# vtk DataFile Version 4.0
vtk output
ASCII
DATASET UNSTRUCTURED_GRID
POINTS 17 float
0.0000000e+00 0.0000000e+00 0.0000000e+00 
1.0000000e+00 0.0000000e+00 0.0000000e+00 
1.0000000e+00 1.0000000e+01 0.0000000e+00 
0.0000000e+00 1.0000000e+01 0.0000000e+00 
1.0000000e+00 2.0000000e+00 0.0000000e+00 
1.0000000e+00 4.0000000e+00 0.0000000e+00 
1.0000000e+00 6.0000000e+00 0.0000000e+00 
1.0000000e+00 8.0000000e+00 0.0000000e+00 
0.0000000e+00 8.0000000e+00 0.0000000e+00 
0.0000000e+00 6.0000000e+00 0.0000000e+00 
0.0000000e+00 4.0000000e+00 0.0000000e+00 
0.0000000e+00 2.0000000e+00 0.0000000e+00 
5.0000000e-01 9.0000000e+00 0.0000000e+00 
5.0000000e-01 1.0000000e+00 0.0000000e+00 
5.0000000e-01 3.0000000e+00 0.0000000e+00 
5.0000000e-01 5.0000000e+00 0.0000000e+00 
5.0000000e-01 7.0000000e+00 0.0000000e+00 

CELLS 20 80
3 10 14 5
3 9 15 6
3 8 16 7
3 1 13 0
3 3 12 2
3 11 13 4
3 7 12 8
3 5 15 10
3 6 16 9
3 4 14 11
3 0 13 11
3 4 13 1
3 2 12 7
3 8 12 3
3 5 14 4
3 6 15 5
3 7 16 6
3 9 16 8
3 10 15 9
3 11 14 10

CELL_TYPES 20
5
5
5
5
5
5
5
5
5
5
5
5
5
5
5
5
5
5
5
5
POINT_DATA 17
FIELD FieldData 2
DISPLACEMENT 3 17  float
0.0000000e+00 -3.3447575e-06 0.0000000e+00 
0.0000000e+00 -3.3447575e-06 0.0000000e+00 
0.0000000e+00 -4.2468632e-06 0.0000000e+00 
0.0000000e+00 -4.2468632e-06 0.0000000e+00 
0.0000000e+00 -3.5254816e-06 0.0000000e+00 
0.0000000e+00 -3.7061313e-06 0.0000000e+00 
0.0000000e+00 -3.8866197e-06 0.0000000e+00 
0.0000000e+00 -4.0671894e-06 0.0000000e+00 
0.0000000e+00 -4.0671894e-06 0.0000000e+00 
0.0000000e+00 -3.8866197e-06 0.0000000e+00 
0.0000000e+00 -3.7061313e-06 0.0000000e+00 
0.0000000e+00 -3.5254816e-06 0.0000000e+00 
1.4851048e-23 -4.1569824e-06 0.0000000e+00 
-2.2979820e-23 -3.4351704e-06 0.0000000e+00 
1.9113595e-23 -3.6157826e-06 0.0000000e+00 
1.7825067e-24 -3.7964062e-06 0.0000000e+00 
-7.1585128e-24 -3.9769498e-06 0.0000000e+00 
VELOCITY 3 17  float
0.0000000e+00 -2.1339565e-05 0.0000000e+00 
0.0000000e+00 -2.1339565e-05 0.0000000e+00 
0.0000000e+00 -2.1253692e-05 0.0000000e+00 
0.0000000e+00 -2.1253692e-05 0.0000000e+00 
0.0000000e+00 -2.1273598e-05 0.0000000e+00 
0.0000000e+00 -2.1393716e-05 0.0000000e+00 
0.0000000e+00 -2.1294043e-05 0.0000000e+00 
0.0000000e+00 -2.1368285e-05 0.0000000e+00 
0.0000000e+00 -2.1368285e-05 0.0000000e+00 
0.0000000e+00 -2.1294043e-05 0.0000000e+00 
0.0000000e+00 -2.1393716e-05 0.0000000e+00 
0.0000000e+00 -2.1273598e-05 0.0000000e+00 
-2.4688957e-20 -2.1350053e-05 0.0000000e+00 
-3.7595533e-21 -2.1290174e-05 0.0000000e+00 
-1.0977764e-20 -2.1344427e-05 0.0000000e+00 
2.3649814e-20 -2.1310692e-05 0.0000000e+00 
1.0069005e-20 -2.1381420e-05 0.0000000e+00 
CELL_DATA 20
FIELD FieldData 0
