# vtk DataFile Version 4.0
vtk output
ASCII
DATASET UNSTRUCTURED_GRID
POINTS 17 float
0.0000000e+00 0.0000000e+00 0.0000000e+00 
1.0000000e+00 0.0000000e+00 0.0000000e+00 
1.0000000e+00 1.0000000e+01 0.0000000e+00 
0.0000000e+00 1.0000000e+01 0.0000000e+00 
1.0000000e+00 2.0000000e+00 0.0000000e+00 
1.0000000e+00 4.0000000e+00 0.0000000e+00 
1.0000000e+00 6.0000000e+00 0.0000000e+00 
1.0000000e+00 8.0000000e+00 0.0000000e+00 
0.0000000e+00 8.0000000e+00 0.0000000e+00 
0.0000000e+00 6.0000000e+00 0.0000000e+00 
0.0000000e+00 4.0000000e+00 0.0000000e+00 
0.0000000e+00 2.0000000e+00 0.0000000e+00 
5.0000000e-01 9.0000000e+00 0.0000000e+00 
5.0000000e-01 1.0000000e+00 0.0000000e+00 
5.0000000e-01 3.0000000e+00 0.0000000e+00 
5.0000000e-01 5.0000000e+00 0.0000000e+00 
5.0000000e-01 7.0000000e+00 0.0000000e+00 

CELLS 20 80
3 10 14 5
3 9 15 6
3 8 16 7
3 1 13 0
3 3 12 2
3 11 13 4
3 7 12 8
3 5 15 10
3 6 16 9
3 4 14 11
3 0 13 11
3 4 13 1
3 2 12 7
3 8 12 3
3 5 14 4
3 6 15 5
3 7 16 6
3 9 16 8
3 10 15 9
3 11 14 10

CELL_TYPES 20
5
5
5
5
5
5
5
5
5
5
5
5
5
5
5
5
5
5
5
5
POINT_DATA 17
FIELD FieldData 2
DISPLACEMENT 3 17  float
0.0000000e+00 -5.4519933e-06 0.0000000e+00 
0.0000000e+00 -5.4519796e-06 0.0000000e+00 
0.0000000e+00 -6.3545413e-06 0.0000000e+00 
0.0000000e+00 -6.3545554e-06 0.0000000e+00 
0.0000000e+00 -5.6329313e-06 0.0000000e+00 
0.0000000e+00 -5.8136143e-06 0.0000000e+00 
0.0000000e+00 -5.9941385e-06 0.0000000e+00 
0.0000000e+00 -6.1744427e-06 0.0000000e+00 
0.0000000e+00 -6.1744249e-06 0.0000000e+00 
0.0000000e+00 -5.9941526e-06 0.0000000e+00 
0.0000000e+00 -5.8136052e-06 0.0000000e+00 
0.0000000e+00 -5.6329300e-06 0.0000000e+00 
-2.1316232e-12 -6.2644986e-06 0.0000000e+00 
-1.0006554e-11 -5.5424744e-06 0.0000000e+00 
-7.4459276e-12 -5.7232824e-06 0.0000000e+00 
-6.7300332e-12 -5.9038921e-06 0.0000000e+00 
-1.5574221e-11 -6.0843126e-06 0.0000000e+00 
VELOCITY 3 17  float
0.0000000e+00 -2.0820240e-05 0.0000000e+00 
0.0000000e+00 -2.0821961e-05 0.0000000e+00 
0.0000000e+00 -2.0828555e-05 0.0000000e+00 
0.0000000e+00 -2.0810230e-05 0.0000000e+00 
0.0000000e+00 -2.0815602e-05 0.0000000e+00 
0.0000000e+00 -2.0813522e-05 0.0000000e+00 
0.0000000e+00 -2.0827685e-05 0.0000000e+00 
0.0000000e+00 -2.0797441e-05 0.0000000e+00 
0.0000000e+00 -2.0812458e-05 0.0000000e+00 
0.0000000e+00 -2.0819902e-05 0.0000000e+00 
0.0000000e+00 -2.0814652e-05 0.0000000e+00 
0.0000000e+00 -2.0817261e-05 0.0000000e+00 
-6.7809069e-09 -2.0819869e-05 0.0000000e+00 
-1.1395823e-09 -2.0821182e-05 0.0000000e+00 
2.1301663e-09 -2.0811465e-05 0.0000000e+00 
-2.3423927e-10 -2.0818235e-05 0.0000000e+00 
1.1642149e-09 -2.0815185e-05 0.0000000e+00 
CELL_DATA 20
FIELD FieldData 0
