# vtk DataFile Version 4.0
vtk output
ASCII
DATASET UNSTRUCTURED_GRID
POINTS 17 float
0.0000000e+00 0.0000000e+00 0.0000000e+00 
1.0000000e+00 0.0000000e+00 0.0000000e+00 
1.0000000e+00 1.0000000e+01 0.0000000e+00 
0.0000000e+00 1.0000000e+01 0.0000000e+00 
1.0000000e+00 2.0000000e+00 0.0000000e+00 
1.0000000e+00 4.0000000e+00 0.0000000e+00 
1.0000000e+00 6.0000000e+00 0.0000000e+00 
1.0000000e+00 8.0000000e+00 0.0000000e+00 
0.0000000e+00 8.0000000e+00 0.0000000e+00 
0.0000000e+00 6.0000000e+00 0.0000000e+00 
0.0000000e+00 4.0000000e+00 0.0000000e+00 
0.0000000e+00 2.0000000e+00 0.0000000e+00 
5.0000000e-01 9.0000000e+00 0.0000000e+00 
5.0000000e-01 1.0000000e+00 0.0000000e+00 
5.0000000e-01 3.0000000e+00 0.0000000e+00 
5.0000000e-01 5.0000000e+00 0.0000000e+00 
5.0000000e-01 7.0000000e+00 0.0000000e+00 

CELLS 20 80
3 10 14 5
3 9 15 6
3 8 16 7
3 1 13 0
3 3 12 2
3 11 13 4
3 7 12 8
3 5 15 10
3 6 16 9
3 4 14 11
3 0 13 11
3 4 13 1
3 2 12 7
3 8 12 3
3 5 14 4
3 6 15 5
3 7 16 6
3 9 16 8
3 10 15 9
3 11 14 10

CELL_TYPES 20
5
5
5
5
5
5
5
5
5
5
5
5
5
5
5
5
5
5
5
5
POINT_DATA 17
FIELD FieldData 2
DISPLACEMENT 3 17  float
0.0000000e+00 -4.3306982e-06 0.0000000e+00 
0.0000000e+00 -4.3306982e-06 0.0000000e+00 
0.0000000e+00 -5.2375285e-06 0.0000000e+00 
0.0000000e+00 -5.2375285e-06 0.0000000e+00 
0.0000000e+00 -4.5131037e-06 0.0000000e+00 
0.0000000e+00 -4.6950199e-06 0.0000000e+00 
0.0000000e+00 -4.8764146e-06 0.0000000e+00 
0.0000000e+00 -5.0570766e-06 0.0000000e+00 
0.0000000e+00 -5.0570766e-06 0.0000000e+00 
0.0000000e+00 -4.8764146e-06 0.0000000e+00 
0.0000000e+00 -4.6950199e-06 0.0000000e+00 
0.0000000e+00 -4.5131037e-06 0.0000000e+00 
4.2186221e-23 -5.1473503e-06 0.0000000e+00 
-9.3293310e-24 -4.4219464e-06 0.0000000e+00 
-2.8766834e-22 -4.6040755e-06 0.0000000e+00 
1.2136063e-22 -4.7857725e-06 0.0000000e+00 
-2.0348695e-22 -4.9667847e-06 0.0000000e+00 
VELOCITY 3 17  float
0.0000000e+00 -2.0239331e-05 0.0000000e+00 
0.0000000e+00 -2.0239331e-05 0.0000000e+00 
0.0000000e+00 -2.0190824e-05 0.0000000e+00 
0.0000000e+00 -2.0190824e-05 0.0000000e+00 
0.0000000e+00 -2.0226340e-05 0.0000000e+00 
0.0000000e+00 -2.0253065e-05 0.0000000e+00 
0.0000000e+00 -2.0210306e-05 0.0000000e+00 
0.0000000e+00 -2.0266412e-05 0.0000000e+00 
0.0000000e+00 -2.0266412e-05 0.0000000e+00 
0.0000000e+00 -2.0210306e-05 0.0000000e+00 
0.0000000e+00 -2.0253065e-05 0.0000000e+00 
0.0000000e+00 -2.0226340e-05 0.0000000e+00 
-1.6545849e-22 -2.0232190e-05 0.0000000e+00 
-1.5312793e-21 -2.0230804e-05 0.0000000e+00 
-1.7846082e-21 -2.0253638e-05 0.0000000e+00 
7.3438003e-22 -2.0210431e-05 0.0000000e+00 
-4.9610314e-22 -2.0237321e-05 0.0000000e+00 
CELL_DATA 20
FIELD FieldData 0
