# vtk DataFile Version 4.0
vtk output
ASCII
DATASET UNSTRUCTURED_GRID
POINTS 17 float
0.0000000e+00 0.0000000e+00 0.0000000e+00 
1.0000000e+00 0.0000000e+00 0.0000000e+00 
1.0000000e+00 1.0000000e+01 0.0000000e+00 
0.0000000e+00 1.0000000e+01 0.0000000e+00 
1.0000000e+00 2.0000000e+00 0.0000000e+00 
1.0000000e+00 4.0000000e+00 0.0000000e+00 
1.0000000e+00 6.0000000e+00 0.0000000e+00 
1.0000000e+00 8.0000000e+00 0.0000000e+00 
0.0000000e+00 8.0000000e+00 0.0000000e+00 
0.0000000e+00 6.0000000e+00 0.0000000e+00 
0.0000000e+00 4.0000000e+00 0.0000000e+00 
0.0000000e+00 2.0000000e+00 0.0000000e+00 
5.0000000e-01 9.0000000e+00 0.0000000e+00 
5.0000000e-01 1.0000000e+00 0.0000000e+00 
5.0000000e-01 3.0000000e+00 0.0000000e+00 
5.0000000e-01 5.0000000e+00 0.0000000e+00 
5.0000000e-01 7.0000000e+00 0.0000000e+00 

CELLS 20 80
3 10 14 5
3 9 15 6
3 8 16 7
3 1 13 0
3 3 12 2
3 11 13 4
3 7 12 8
3 5 15 10
3 6 16 9
3 4 14 11
3 0 13 11
3 4 13 1
3 2 12 7
3 8 12 3
3 5 14 4
3 6 15 5
3 7 16 6
3 9 16 8
3 10 15 9
3 11 14 10

CELL_TYPES 20
5
5
5
5
5
5
5
5
5
5
5
5
5
5
5
5
5
5
5
5
POINT_DATA 17
FIELD FieldData 2
DISPLACEMENT 3 17  float
0.0000000e+00 -1.1765702e-06 0.0000000e+00 
0.0000000e+00 -1.1767816e-06 0.0000000e+00 
0.0000000e+00 -2.0851689e-06 0.0000000e+00 
0.0000000e+00 -2.0860282e-06 0.0000000e+00 
0.0000000e+00 -1.3617840e-06 0.0000000e+00 
0.0000000e+00 -1.5418243e-06 0.0000000e+00 
0.0000000e+00 -1.7234231e-06 0.0000000e+00 
0.0000000e+00 -1.9059205e-06 0.0000000e+00 
0.0000000e+00 -1.9050859e-06 0.0000000e+00 
0.0000000e+00 -1.7241788e-06 0.0000000e+00 
0.0000000e+00 -1.5412121e-06 0.0000000e+00 
0.0000000e+00 -1.3621512e-06 0.0000000e+00 
-1.4265421e-10 -1.9960123e-06 0.0000000e+00 
1.7358068e-10 -1.2690903e-06 0.0000000e+00 
-3.4873221e-10 -1.4522308e-06 0.0000000e+00 
4.0292761e-10 -1.6321254e-06 0.0000000e+00 
-2.9338751e-10 -1.8149667e-06 0.0000000e+00 
VELOCITY 3 17  float
0.0000000e+00 -2.2278846e-05 0.0000000e+00 
0.0000000e+00 -2.2018676e-05 0.0000000e+00 
0.0000000e+00 -2.2871960e-05 0.0000000e+00 
0.0000000e+00 -2.2118507e-05 0.0000000e+00 
0.0000000e+00 -2.2547501e-05 0.0000000e+00 
0.0000000e+00 -2.1136733e-05 0.0000000e+00 
0.0000000e+00 -2.2543856e-05 0.0000000e+00 
0.0000000e+00 -2.1624071e-05 0.0000000e+00 
0.0000000e+00 -2.2170867e-05 0.0000000e+00 
0.0000000e+00 -2.2285714e-05 0.0000000e+00 
0.0000000e+00 -2.1328418e-05 0.0000000e+00 
0.0000000e+00 -2.2313801e-05 0.0000000e+00 
-6.2491615e-08 -2.2143182e-05 0.0000000e+00 
-2.0977474e-07 -2.2595079e-05 0.0000000e+00 
1.5897048e-07 -2.1606589e-05 0.0000000e+00 
-1.3681134e-07 -2.2006872e-05 0.0000000e+00 
2.1968221e-07 -2.1872300e-05 0.0000000e+00 
CELL_DATA 20
FIELD FieldData 0
