# vtk DataFile Version 4.0
vtk output
ASCII
DATASET UNSTRUCTURED_GRID
POINTS 17 float
0.0000000e+00 0.0000000e+00 0.0000000e+00 
1.0000000e+00 0.0000000e+00 0.0000000e+00 
1.0000000e+00 1.0000000e+01 0.0000000e+00 
0.0000000e+00 1.0000000e+01 0.0000000e+00 
1.0000000e+00 2.0000000e+00 0.0000000e+00 
1.0000000e+00 4.0000000e+00 0.0000000e+00 
1.0000000e+00 6.0000000e+00 0.0000000e+00 
1.0000000e+00 8.0000000e+00 0.0000000e+00 
0.0000000e+00 8.0000000e+00 0.0000000e+00 
0.0000000e+00 6.0000000e+00 0.0000000e+00 
0.0000000e+00 4.0000000e+00 0.0000000e+00 
0.0000000e+00 2.0000000e+00 0.0000000e+00 
5.0000000e-01 9.0000000e+00 0.0000000e+00 
5.0000000e-01 1.0000000e+00 0.0000000e+00 
5.0000000e-01 3.0000000e+00 0.0000000e+00 
5.0000000e-01 5.0000000e+00 0.0000000e+00 
5.0000000e-01 7.0000000e+00 0.0000000e+00 

CELLS 20 80
3 10 14 5
3 9 15 6
3 8 16 7
3 1 13 0
3 3 12 2
3 11 13 4
3 7 12 8
3 5 15 10
3 6 16 9
3 4 14 11
3 0 13 11
3 4 13 1
3 2 12 7
3 8 12 3
3 5 14 4
3 6 15 5
3 7 16 6
3 9 16 8
3 10 15 9
3 11 14 10

CELL_TYPES 20
5
5
5
5
5
5
5
5
5
5
5
5
5
5
5
5
5
5
5
5
POINT_DATA 17
FIELD FieldData 2
DISPLACEMENT 3 17  float
0.0000000e+00 -3.3447277e-06 0.0000000e+00 
0.0000000e+00 -3.3446904e-06 0.0000000e+00 
0.0000000e+00 -4.2469933e-06 0.0000000e+00 
0.0000000e+00 -4.2471115e-06 0.0000000e+00 
0.0000000e+00 -3.5255239e-06 0.0000000e+00 
0.0000000e+00 -3.7061711e-06 0.0000000e+00 
0.0000000e+00 -3.8865905e-06 0.0000000e+00 
0.0000000e+00 -4.0671598e-06 0.0000000e+00 
0.0000000e+00 -4.0670302e-06 0.0000000e+00 
0.0000000e+00 -3.8867088e-06 0.0000000e+00 
0.0000000e+00 -3.7061050e-06 0.0000000e+00 
0.0000000e+00 -3.5255237e-06 0.0000000e+00 
3.6489652e-11 -4.1570406e-06 0.0000000e+00 
-2.9816458e-11 -3.4351640e-06 0.0000000e+00 
-1.9828942e-11 -3.6158574e-06 0.0000000e+00 
2.1478097e-11 -3.7963794e-06 0.0000000e+00 
-2.0144719e-11 -3.9768765e-06 0.0000000e+00 
VELOCITY 3 17  float
0.0000000e+00 -2.1326918e-05 0.0000000e+00 
0.0000000e+00 -2.1375950e-05 0.0000000e+00 
0.0000000e+00 -2.1326823e-05 0.0000000e+00 
0.0000000e+00 -2.1188473e-05 0.0000000e+00 
0.0000000e+00 -2.1290449e-05 0.0000000e+00 
0.0000000e+00 -2.1354477e-05 0.0000000e+00 
0.0000000e+00 -2.1314510e-05 0.0000000e+00 
0.0000000e+00 -2.1344054e-05 0.0000000e+00 
0.0000000e+00 -2.1444956e-05 0.0000000e+00 
0.0000000e+00 -2.1287440e-05 0.0000000e+00 
0.0000000e+00 -2.1329835e-05 0.0000000e+00 
0.0000000e+00 -2.1334950e-05 0.0000000e+00 
-3.4165473e-09 -2.1302149e-05 0.0000000e+00 
2.3997156e-08 -2.1301763e-05 0.0000000e+00 
-7.7770377e-09 -2.1332395e-05 0.0000000e+00 
-7.0796466e-09 -2.1333652e-05 0.0000000e+00 
-3.4368248e-09 -2.1369751e-05 0.0000000e+00 
CELL_DATA 20
FIELD FieldData 0
