# vtk DataFile Version 4.0
vtk output
ASCII
DATASET UNSTRUCTURED_GRID
POINTS 395 float
0.0000000e+00 0.0000000e+00 0.0000000e+00 
5.0000000e+00 0.0000000e+00 0.0000000e+00 
5.0000000e+00 3.0000000e+00 0.0000000e+00 
0.0000000e+00 3.0000000e+00 0.0000000e+00 
0.0000000e+00 0.0000000e+00 1.0000000e+01 
5.0000000e+00 0.0000000e+00 1.0000000e+01 
5.0000000e+00 3.0000000e+00 1.0000000e+01 
0.0000000e+00 3.0000000e+00 1.0000000e+01 
1.0000000e+00 3.0000000e+00 5.0000000e-01 
1.0000000e+00 3.0000000e+00 1.0000000e+00 
1.0000000e+00 3.0000000e+00 1.5000000e+00 
1.0000000e+00 3.0000000e+00 2.0000000e+00 
1.0000000e+00 3.0000000e+00 2.5000000e+00 
1.0000000e+00 3.0000000e+00 3.0000000e+00 
1.0000000e+00 3.0000000e+00 3.5000000e+00 
1.0000000e+00 3.0000000e+00 4.0000000e+00 
1.0000000e+00 3.0000000e+00 4.5000000e+00 
1.0000000e+00 3.0000000e+00 5.0000000e+00 
1.0000000e+00 3.0000000e+00 5.5000000e+00 
1.0000000e+00 3.0000000e+00 6.0000000e+00 
1.0000000e+00 3.0000000e+00 6.5000000e+00 
1.0000000e+00 3.0000000e+00 7.0000000e+00 
1.0000000e+00 3.0000000e+00 7.5000000e+00 
1.0000000e+00 3.0000000e+00 8.0000000e+00 
1.0000000e+00 3.0000000e+00 8.5000000e+00 
1.0000000e+00 3.0000000e+00 9.0000000e+00 
1.0000000e+00 3.0000000e+00 9.5000000e+00 
1.0000000e+00 3.0000000e+00 0.0000000e+00 
1.0000000e+00 3.0000000e+00 1.0000000e+01 
1.0000000e+00 3.0250001e+00 0.0000000e+00 
1.0000000e+00 3.0250001e+00 5.0000000e-01 
1.0000000e+00 3.0250001e+00 1.0000000e+00 
1.0000000e+00 3.0250001e+00 1.5000000e+00 
1.0000000e+00 3.0250001e+00 2.0000000e+00 
1.0000000e+00 3.0250001e+00 2.5000000e+00 
1.0000000e+00 3.0250001e+00 3.0000000e+00 
1.0000000e+00 3.0250001e+00 3.5000000e+00 
1.0000000e+00 3.0250001e+00 4.0000000e+00 
1.0000000e+00 3.0250001e+00 4.5000000e+00 
1.0000000e+00 3.0250001e+00 5.0000000e+00 
1.0000000e+00 3.0250001e+00 5.5000000e+00 
1.0000000e+00 3.0250001e+00 6.0000000e+00 
1.0000000e+00 3.0250001e+00 6.5000000e+00 
1.0000000e+00 3.0250001e+00 7.0000000e+00 
1.0000000e+00 3.0250001e+00 7.5000000e+00 
1.0000000e+00 3.0250001e+00 8.0000000e+00 
1.0000000e+00 3.0250001e+00 8.5000000e+00 
1.0000000e+00 3.0250001e+00 9.0000000e+00 
1.0000000e+00 3.0250001e+00 9.5000000e+00 
1.0000000e+00 3.0250001e+00 1.0000000e+01 
1.0000000e+00 0.0000000e+00 0.0000000e+00 
2.0000000e+00 0.0000000e+00 0.0000000e+00 
3.0000000e+00 0.0000000e+00 0.0000000e+00 
4.0000000e+00 0.0000000e+00 0.0000000e+00 
5.0000000e+00 1.0000000e+00 0.0000000e+00 
5.0000000e+00 2.0000000e+00 0.0000000e+00 
0.0000000e+00 2.0000000e+00 0.0000000e+00 
0.0000000e+00 1.0000000e+00 0.0000000e+00 
0.0000000e+00 0.0000000e+00 1.0000000e+00 
0.0000000e+00 0.0000000e+00 2.0000000e+00 
0.0000000e+00 0.0000000e+00 3.0000000e+00 
0.0000000e+00 0.0000000e+00 4.0000000e+00 
0.0000000e+00 0.0000000e+00 5.0000000e+00 
0.0000000e+00 0.0000000e+00 6.0000000e+00 
0.0000000e+00 0.0000000e+00 7.0000000e+00 
0.0000000e+00 0.0000000e+00 8.0000000e+00 
0.0000000e+00 0.0000000e+00 9.0000000e+00 
5.0000000e+00 0.0000000e+00 1.0000000e+00 
5.0000000e+00 0.0000000e+00 2.0000000e+00 
5.0000000e+00 0.0000000e+00 3.0000000e+00 
5.0000000e+00 0.0000000e+00 4.0000000e+00 
5.0000000e+00 0.0000000e+00 5.0000000e+00 
5.0000000e+00 0.0000000e+00 6.0000000e+00 
5.0000000e+00 0.0000000e+00 7.0000000e+00 
5.0000000e+00 0.0000000e+00 8.0000000e+00 
5.0000000e+00 0.0000000e+00 9.0000000e+00 
1.0000000e+00 0.0000000e+00 1.0000000e+01 
2.0000000e+00 0.0000000e+00 1.0000000e+01 
3.0000000e+00 0.0000000e+00 1.0000000e+01 
4.0000000e+00 0.0000000e+00 1.0000000e+01 
5.0000000e+00 3.0000000e+00 1.0000000e+00 
5.0000000e+00 3.0000000e+00 2.0000000e+00 
5.0000000e+00 3.0000000e+00 3.0000000e+00 
5.0000000e+00 3.0000000e+00 4.0000000e+00 
5.0000000e+00 3.0000000e+00 5.0000000e+00 
5.0000000e+00 3.0000000e+00 6.0000000e+00 
5.0000000e+00 3.0000000e+00 7.0000000e+00 
5.0000000e+00 3.0000000e+00 8.0000000e+00 
5.0000000e+00 3.0000000e+00 9.0000000e+00 
5.0000000e+00 1.0000000e+00 1.0000000e+01 
5.0000000e+00 2.0000000e+00 1.0000000e+01 
0.0000000e+00 3.0000000e+00 1.0000000e+00 
0.0000000e+00 3.0000000e+00 2.0000000e+00 
0.0000000e+00 3.0000000e+00 3.0000000e+00 
0.0000000e+00 3.0000000e+00 4.0000000e+00 
0.0000000e+00 3.0000000e+00 5.0000000e+00 
0.0000000e+00 3.0000000e+00 6.0000000e+00 
0.0000000e+00 3.0000000e+00 7.0000000e+00 
0.0000000e+00 3.0000000e+00 8.0000000e+00 
0.0000000e+00 3.0000000e+00 9.0000000e+00 
0.0000000e+00 2.0000000e+00 1.0000000e+01 
0.0000000e+00 1.0000000e+00 1.0000000e+01 
4.0000000e+00 3.0000000e+00 0.0000000e+00 
3.0000000e+00 3.0000000e+00 0.0000000e+00 
2.0000000e+00 3.0000000e+00 0.0000000e+00 
4.0000000e+00 3.0000000e+00 1.0000000e+01 
3.0000000e+00 3.0000000e+00 1.0000000e+01 
2.0000000e+00 3.0000000e+00 1.0000000e+01 
1.5046000e+00 2.2345026e+00 0.0000000e+00 
4.0618000e+00 1.5000000e+00 0.0000000e+00 
2.5000000e+00 8.6602539e-01 0.0000000e+00 
2.4957771e+00 2.1843948e+00 0.0000000e+00 
1.5046000e+00 7.6549745e-01 0.0000000e+00 
3.4700506e+00 2.2420573e+00 0.0000000e+00 
3.4707544e+00 7.6634604e-01 0.0000000e+00 
8.6322361e-01 1.5000000e+00 0.0000000e+00 
2.0000000e+00 1.5000000e+00 0.0000000e+00 
2.9960666e+00 1.5025520e+00 0.0000000e+00 
4.2679491e+00 7.3205084e-01 0.0000000e+00 
4.2679491e+00 2.2679491e+00 0.0000000e+00 
7.2695929e-01 2.2730408e+00 0.0000000e+00 
7.2695929e-01 7.2695929e-01 0.0000000e+00 
4.1822505e+00 0.0000000e+00 2.5515697e+00 
4.2017918e+00 0.0000000e+00 4.4725966e+00 
4.1114569e+00 0.0000000e+00 6.5092020e+00 
8.6602539e-01 0.0000000e+00 3.5000000e+00 
8.4778279e-01 0.0000000e+00 5.4684029e+00 
8.9629614e-01 0.0000000e+00 7.5867257e+00 
2.5566745e+00 0.0000000e+00 8.1853306e-01 
2.4918270e+00 0.0000000e+00 9.1386929e+00 
8.4677207e-01 0.0000000e+00 1.5042374e+00 
4.0943027e+00 0.0000000e+00 8.4081745e+00 
8.6281651e-01 0.0000000e+00 2.5007062e+00 
1.7315160e+00 0.0000000e+00 3.0001178e+00 
1.7319617e+00 0.0000000e+00 4.0000196e+00 
2.5980761e+00 0.0000000e+00 3.5000000e+00 
2.5536871e+00 0.0000000e+00 4.4963923e+00 
2.5928419e+00 0.0000000e+00 2.4239938e+00 
1.5037409e+00 0.0000000e+00 9.1535149e+00 
1.8433737e+00 0.0000000e+00 8.1858873e+00 
3.0000000e+00 0.0000000e+00 8.2679491e+00 
2.5000000e+00 0.0000000e+00 7.4019237e+00 
3.5042722e+00 0.0000000e+00 7.4271150e+00 
3.0310018e+00 0.0000000e+00 6.5282087e+00 
2.0373929e+00 0.0000000e+00 6.5307913e+00 
3.4767809e+00 0.0000000e+00 5.8031492e+00 
2.5452602e+00 0.0000000e+00 5.5720768e+00 
1.6456656e+00 0.0000000e+00 1.9697139e+00 
8.6297011e-01 0.0000000e+00 4.4947371e+00 
1.0111579e+00 0.0000000e+00 6.5282545e+00 
3.4994321e+00 0.0000000e+00 8.4691072e-01 
4.1860156e+00 0.0000000e+00 3.5040276e+00 
1.7320508e+00 0.0000000e+00 5.0000000e+00 
4.0544066e+00 0.0000000e+00 1.5781221e+00 
1.5817389e+00 0.0000000e+00 9.3943578e-01 
8.3166349e-01 0.0000000e+00 8.5090933e+00 
3.4686174e+00 0.0000000e+00 9.1752682e+00 
3.0709300e+00 0.0000000e+00 1.5799091e+00 
3.3927374e+00 0.0000000e+00 3.0399952e+00 
3.3826034e+00 0.0000000e+00 3.9747651e+00 
4.3420062e+00 0.0000000e+00 7.4688983e+00 
3.4023225e+00 0.0000000e+00 4.9314723e+00 
1.6740381e+00 0.0000000e+00 7.3014426e+00 
4.2715640e+00 0.0000000e+00 5.4758859e+00 
1.6225953e+00 0.0000000e+00 5.8104177e+00 
4.2679491e+00 0.0000000e+00 9.2679491e+00 
7.3205084e-01 0.0000000e+00 7.3205084e-01 
4.2679491e+00 0.0000000e+00 7.3205084e-01 
7.3205084e-01 0.0000000e+00 9.2679491e+00 
3.4586334e+00 0.0000000e+00 2.2347178e+00 
2.2895701e+00 0.0000000e+00 1.5463171e+00 
5.0000000e+00 2.2345026e+00 1.5046000e+00 
5.0000000e+00 1.5000000e+00 9.0618000e+00 
5.0000000e+00 2.1339746e+00 3.5000000e+00 
5.0000000e+00 2.1339746e+00 5.5000000e+00 
5.0000000e+00 2.1339746e+00 7.5000000e+00 
5.0000000e+00 8.6602539e-01 2.5000000e+00 
5.0000000e+00 8.6602539e-01 4.5000000e+00 
5.0000000e+00 8.6602539e-01 6.5000000e+00 
5.0000000e+00 8.6602539e-01 3.5000000e+00 
5.0000000e+00 8.6602539e-01 5.5000000e+00 
5.0000000e+00 2.1584709e+00 2.5001996e+00 
5.0000000e+00 2.1339746e+00 4.5000000e+00 
5.0000000e+00 2.1339746e+00 6.5000000e+00 
5.0000000e+00 8.6602539e-01 7.5000000e+00 
5.0000000e+00 7.6549745e-01 1.5046000e+00 
5.0000000e+00 7.6634604e-01 8.4707546e+00 
5.0000000e+00 2.2336540e+00 8.4707546e+00 
5.0000000e+00 1.5000000e+00 8.6322361e-01 
5.0000000e+00 1.5000000e+00 5.0000000e+00 
5.0000000e+00 1.5000000e+00 7.0000000e+00 
5.0000000e+00 1.5000000e+00 2.0000000e+00 
5.0000000e+00 1.5000000e+00 6.0000000e+00 
5.0000000e+00 1.5000000e+00 4.0000000e+00 
5.0000000e+00 1.5000000e+00 3.0000000e+00 
5.0000000e+00 1.5000000e+00 7.9977231e+00 
5.0000000e+00 2.2679491e+00 9.2679491e+00 
5.0000000e+00 7.3205084e-01 9.2679491e+00 
5.0000000e+00 2.2730408e+00 7.2695929e-01 
5.0000000e+00 7.2695929e-01 7.2695929e-01 
0.0000000e+00 7.6549745e-01 1.5046000e+00 
0.0000000e+00 1.5000000e+00 9.0618000e+00 
0.0000000e+00 7.6689392e-01 3.5202229e+00 
0.0000000e+00 8.4174728e-01 6.5073700e+00 
0.0000000e+00 2.1339746e+00 2.5000000e+00 
0.0000000e+00 2.1503205e+00 4.5283122e+00 
0.0000000e+00 2.1339746e+00 7.5000000e+00 
0.0000000e+00 7.5539857e-01 2.5041373e+00 
0.0000000e+00 2.1917200e+00 3.5330307e+00 
0.0000000e+00 2.1758037e+00 5.5047188e+00 
0.0000000e+00 1.4323456e+00 5.0621295e+00 
0.0000000e+00 2.1560361e+00 6.5002046e+00 
0.0000000e+00 8.3464229e-01 7.4971519e+00 
0.0000000e+00 2.2345026e+00 1.5046000e+00 
0.0000000e+00 2.2336540e+00 8.4707546e+00 
0.0000000e+00 7.6111549e-01 8.4702797e+00 
0.0000000e+00 1.5000000e+00 8.6322361e-01 
0.0000000e+00 1.4454463e+00 4.0239491e+00 
0.0000000e+00 7.3467791e-01 5.5115833e+00 
0.0000000e+00 1.5000000e+00 2.0000000e+00 
0.0000000e+00 1.4948297e+00 6.9999175e+00 
0.0000000e+00 1.4754088e+00 3.0096834e+00 
0.0000000e+00 1.5025774e+00 6.0000000e+00 
0.0000000e+00 7.2989392e-01 4.5196476e+00 
0.0000000e+00 1.4981872e+00 7.9961324e+00 
0.0000000e+00 7.3205084e-01 9.2679491e+00 
0.0000000e+00 2.2679491e+00 9.2679491e+00 
0.0000000e+00 2.2730408e+00 7.2695929e-01 
0.0000000e+00 7.2695929e-01 7.2695929e-01 
1.5046000e+00 7.6549745e-01 1.0000000e+01 
[...]
POINT_DATA 395
FIELD FieldData 2
DISPLACEMENT 3 395  float
0.0000000e+00 0.0000000e+00 0.0000000e+00 
0.0000000e+00 0.0000000e+00 0.0000000e+00 
0.0000000e+00 2.3953916e-07 0.0000000e+00 
0.0000000e+00 6.7441050e-08 0.0000000e+00 
0.0000000e+00 0.0000000e+00 0.0000000e+00 
0.0000000e+00 0.0000000e+00 0.0000000e+00 
0.0000000e+00 -3.3412866e-07 0.0000000e+00 
0.0000000e+00 -1.3706839e-05 0.0000000e+00 
-4.3299629e-08 1.1663994e-07 1.3132549e-07 
-6.6311230e-08 9.2953883e-08 3.4854875e-07 
-7.3761250e-08 2.8128671e-08 6.0352079e-07 
-1.1464593e-07 -1.3235332e-07 1.1554007e-06 
-1.1756291e-07 -4.4943499e-07 1.8593075e-06 
-7.1026284e-07 -1.1468222e-06 3.5819151e-06 
-1.1319040e-06 -2.8194415e-06 5.5352170e-06 
-2.2044449e-06 -7.2304597e-06 8.3893647e-06 
-2.8029513e-06 -1.8337361e-05 9.4728484e-06 
-4.6581217e-06 -4.2872482e-05 1.1284748e-05 
-5.7108300e-06 -8.9507805e-05 1.6285851e-05 
-3.4457953e-06 -1.5987516e-04 9.0687545e-06 
8.7072368e-07 -2.3113783e-04 8.2533597e-06 
4.8797060e-06 -2.4058179e-04 -3.0408856e-07 
-6.3681391e-08 -1.8046863e-04 -1.4526740e-05 
-3.7400562e-06 -1.0482935e-04 -1.7165808e-05 
-3.0294141e-06 -5.0549646e-05 -8.1679336e-06 
-3.2635232e-06 -2.1281336e-05 -1.0358451e-05 
-1.4206330e-06 -8.1713979e-06 -3.8339685e-06 
0.0000000e+00 1.1938135e-07 0.0000000e+00 
0.0000000e+00 -4.6971027e-06 0.0000000e+00 
0.0000000e+00 1.2064146e-07 0.0000000e+00 
0.0000000e+00 1.1724649e-07 0.0000000e+00 
0.0000000e+00 9.4217960e-08 0.0000000e+00 
0.0000000e+00 2.6913803e-08 0.0000000e+00 
0.0000000e+00 -1.2997371e-07 0.0000000e+00 
0.0000000e+00 -4.4461623e-07 0.0000000e+00 
0.0000000e+00 -1.1187619e-06 0.0000000e+00 
0.0000000e+00 -2.7580877e-06 0.0000000e+00 
0.0000000e+00 -7.1378190e-06 0.0000000e+00 
0.0000000e+00 -1.8211460e-05 0.0000000e+00 
0.0000000e+00 -4.2920750e-05 0.0000000e+00 
0.0000000e+00 -8.9992660e-05 0.0000000e+00 
0.0000000e+00 -1.6156875e-04 0.0000000e+00 
0.0000000e+00 -2.3374922e-04 0.0000000e+00 
0.0000000e+00 -2.4579719e-04 0.0000000e+00 
0.0000000e+00 -1.8277531e-04 0.0000000e+00 
0.0000000e+00 -1.0600314e-04 0.0000000e+00 
0.0000000e+00 -5.1031282e-05 0.0000000e+00 
0.0000000e+00 -2.1164436e-05 0.0000000e+00 
0.0000000e+00 -8.0361333e-06 0.0000000e+00 
0.0000000e+00 -4.5824800e-06 0.0000000e+00 
0.0000000e+00 0.0000000e+00 0.0000000e+00 
0.0000000e+00 0.0000000e+00 0.0000000e+00 
0.0000000e+00 0.0000000e+00 0.0000000e+00 
0.0000000e+00 0.0000000e+00 0.0000000e+00 
0.0000000e+00 1.0697151e-07 0.0000000e+00 
0.0000000e+00 2.0867678e-07 0.0000000e+00 
0.0000000e+00 5.8050787e-08 0.0000000e+00 
0.0000000e+00 1.9742076e-08 0.0000000e+00 
0.0000000e+00 0.0000000e+00 0.0000000e+00 
0.0000000e+00 0.0000000e+00 0.0000000e+00 
0.0000000e+00 0.0000000e+00 0.0000000e+00 
0.0000000e+00 0.0000000e+00 0.0000000e+00 
0.0000000e+00 0.0000000e+00 0.0000000e+00 
0.0000000e+00 0.0000000e+00 0.0000000e+00 
0.0000000e+00 0.0000000e+00 0.0000000e+00 
0.0000000e+00 0.0000000e+00 0.0000000e+00 
0.0000000e+00 0.0000000e+00 0.0000000e+00 
0.0000000e+00 0.0000000e+00 0.0000000e+00 
0.0000000e+00 0.0000000e+00 0.0000000e+00 
0.0000000e+00 0.0000000e+00 0.0000000e+00 
0.0000000e+00 0.0000000e+00 0.0000000e+00 
0.0000000e+00 0.0000000e+00 0.0000000e+00 
0.0000000e+00 0.0000000e+00 0.0000000e+00 
0.0000000e+00 0.0000000e+00 0.0000000e+00 
0.0000000e+00 0.0000000e+00 0.0000000e+00 
0.0000000e+00 0.0000000e+00 0.0000000e+00 
0.0000000e+00 0.0000000e+00 0.0000000e+00 
0.0000000e+00 0.0000000e+00 0.0000000e+00 
0.0000000e+00 0.0000000e+00 0.0000000e+00 
0.0000000e+00 0.0000000e+00 0.0000000e+00 
0.0000000e+00 2.2733570e-07 0.0000000e+00 
0.0000000e+00 2.6604425e-07 0.0000000e+00 
0.0000000e+00 3.3369466e-07 0.0000000e+00 
0.0000000e+00 -4.2940673e-07 0.0000000e+00 
0.0000000e+00 -1.3081658e-06 0.0000000e+00 
0.0000000e+00 -1.4383710e-06 0.0000000e+00 
0.0000000e+00 -1.5115146e-06 0.0000000e+00 
0.0000000e+00 -5.0331141e-07 0.0000000e+00 
0.0000000e+00 -8.2541521e-07 0.0000000e+00 
0.0000000e+00 -4.2336876e-07 0.0000000e+00 
0.0000000e+00 -3.5708226e-07 0.0000000e+00 
0.0000000e+00 1.9367276e-08 0.0000000e+00 
0.0000000e+00 -5.0687089e-07 0.0000000e+00 
0.0000000e+00 -3.2481230e-06 0.0000000e+00 
0.0000000e+00 -1.1860296e-05 0.0000000e+00 
0.0000000e+00 -3.7365473e-05 0.0000000e+00 
0.0000000e+00 -7.6519747e-05 0.0000000e+00 
0.0000000e+00 -1.0465919e-04 0.0000000e+00 
0.0000000e+00 -5.9715068e-05 0.0000000e+00 
0.0000000e+00 -2.5796659e-05 0.0000000e+00 
0.0000000e+00 -1.1589913e-05 0.0000000e+00 
0.0000000e+00 -6.9239877e-06 0.0000000e+00 
0.0000000e+00 2.1733241e-07 0.0000000e+00 
0.0000000e+00 1.8371534e-07 0.0000000e+00 
0.0000000e+00 1.4988407e-07 0.0000000e+00 
0.0000000e+00 -1.5491005e-06 0.0000000e+00 
0.0000000e+00 -3.6145166e-06 0.0000000e+00 
0.0000000e+00 -8.4335161e-06 0.0000000e+00 
0.0000000e+00 1.6954738e-07 0.0000000e+00 
0.0000000e+00 1.8012877e-07 0.0000000e+00 
0.0000000e+00 7.0395316e-08 0.0000000e+00 
0.0000000e+00 2.2960057e-07 0.0000000e+00 
0.0000000e+00 4.3268471e-08 0.0000000e+00 
0.0000000e+00 2.4209285e-07 0.0000000e+00 
0.0000000e+00 6.4195056e-08 0.0000000e+00 
0.0000000e+00 1.1277363e-07 0.0000000e+00 
0.0000000e+00 1.6066902e-07 0.0000000e+00 
0.0000000e+00 1.7952192e-07 0.0000000e+00 
0.0000000e+00 7.3498065e-08 0.0000000e+00 
0.0000000e+00 2.4577710e-07 0.0000000e+00 
0.0000000e+00 1.2478371e-07 0.0000000e+00 
0.0000000e+00 3.6489276e-08 0.0000000e+00 
0.0000000e+00 0.0000000e+00 0.0000000e+00 
0.0000000e+00 0.0000000e+00 0.0000000e+00 
0.0000000e+00 0.0000000e+00 0.0000000e+00 
0.0000000e+00 0.0000000e+00 0.0000000e+00 
0.0000000e+00 0.0000000e+00 0.0000000e+00 
0.0000000e+00 0.0000000e+00 0.0000000e+00 
0.0000000e+00 0.0000000e+00 0.0000000e+00 
0.0000000e+00 0.0000000e+00 0.0000000e+00 
0.0000000e+00 0.0000000e+00 0.0000000e+00 
0.0000000e+00 0.0000000e+00 0.0000000e+00 
0.0000000e+00 0.0000000e+00 0.0000000e+00 
0.0000000e+00 0.0000000e+00 0.0000000e+00 
0.0000000e+00 0.0000000e+00 0.0000000e+00 
0.0000000e+00 0.0000000e+00 0.0000000e+00 
0.0000000e+00 0.0000000e+00 0.0000000e+00 
0.0000000e+00 0.0000000e+00 0.0000000e+00 
0.0000000e+00 0.0000000e+00 0.0000000e+00 
0.0000000e+00 0.0000000e+00 0.0000000e+00 
0.0000000e+00 0.0000000e+00 0.0000000e+00 
0.0000000e+00 0.0000000e+00 0.0000000e+00 
0.0000000e+00 0.0000000e+00 0.0000000e+00 
0.0000000e+00 0.0000000e+00 0.0000000e+00 
0.0000000e+00 0.0000000e+00 0.0000000e+00 
0.0000000e+00 0.0000000e+00 0.0000000e+00 
0.0000000e+00 0.0000000e+00 0.0000000e+00 
0.0000000e+00 0.0000000e+00 0.0000000e+00 
0.0000000e+00 0.0000000e+00 0.0000000e+00 
0.0000000e+00 0.0000000e+00 0.0000000e+00 
0.0000000e+00 0.0000000e+00 0.0000000e+00 
0.0000000e+00 0.0000000e+00 0.0000000e+00 
0.0000000e+00 0.0000000e+00 0.0000000e+00 
0.0000000e+00 0.0000000e+00 0.0000000e+00 
0.0000000e+00 0.0000000e+00 0.0000000e+00 
0.0000000e+00 0.0000000e+00 0.0000000e+00 
0.0000000e+00 0.0000000e+00 0.0000000e+00 
0.0000000e+00 0.0000000e+00 0.0000000e+00 
0.0000000e+00 0.0000000e+00 0.0000000e+00 
0.0000000e+00 0.0000000e+00 0.0000000e+00 
0.0000000e+00 0.0000000e+00 0.0000000e+00 
0.0000000e+00 0.0000000e+00 0.0000000e+00 
0.0000000e+00 0.0000000e+00 0.0000000e+00 
0.0000000e+00 0.0000000e+00 0.0000000e+00 
0.0000000e+00 0.0000000e+00 0.0000000e+00 
0.0000000e+00 0.0000000e+00 0.0000000e+00 
0.0000000e+00 0.0000000e+00 0.0000000e+00 
0.0000000e+00 0.0000000e+00 0.0000000e+00 
0.0000000e+00 0.0000000e+00 0.0000000e+00 
0.0000000e+00 0.0000000e+00 0.0000000e+00 
0.0000000e+00 0.0000000e+00 0.0000000e+00 
0.0000000e+00 2.4241314e-07 0.0000000e+00 
0.0000000e+00 -3.4826823e-07 0.0000000e+00 
0.0000000e+00 4.0160009e-07 0.0000000e+00 
0.0000000e+00 -4.3805088e-07 0.0000000e+00 
0.0000000e+00 -1.2568718e-07 0.0000000e+00 
0.0000000e+00 5.8711130e-08 0.0000000e+00 
0.0000000e+00 -3.1325291e-07 0.0000000e+00 
0.0000000e+00 -9.4184946e-07 0.0000000e+00 
0.0000000e+00 -1.9949744e-07 0.0000000e+00 
0.0000000e+00 -8.6240618e-07 0.0000000e+00 
0.0000000e+00 2.6368076e-07 0.0000000e+00 
0.0000000e+00 -3.2104694e-08 0.0000000e+00 
0.0000000e+00 -6.5547312e-07 0.0000000e+00 
0.0000000e+00 -1.0681340e-06 0.0000000e+00 
0.0000000e+00 7.8390919e-08 0.0000000e+00 
0.0000000e+00 -5.6357527e-07 0.0000000e+00 
0.0000000e+00 -5.1513467e-07 0.0000000e+00 
0.0000000e+00 1.7457172e-07 0.0000000e+00 
0.0000000e+00 -5.1946535e-07 0.0000000e+00 
0.0000000e+00 -8.5542808e-07 0.0000000e+00 
0.0000000e+00 1.9091023e-07 0.0000000e+00 
0.0000000e+00 -9.5520397e-07 0.0000000e+00 
0.0000000e+00 -1.9832918e-07 0.0000000e+00 
0.0000000e+00 1.3092114e-07 0.0000000e+00 
0.0000000e+00 -6.8176803e-07 0.0000000e+00 
0.0000000e+00 1.2367394e-09 0.0000000e+00 
0.0000000e+00 -3.3452218e-07 0.0000000e+00 
0.0000000e+00 2.3134925e-07 0.0000000e+00 
0.0000000e+00 7.2100285e-08 0.0000000e+00 
0.0000000e+00 -1.4903161e-07 0.0000000e+00 
0.0000000e+00 -1.6658092e-05 0.0000000e+00 
0.0000000e+00 -2.9601849e-06 0.0000000e+00 
0.0000000e+00 -2.6392514e-05 0.0000000e+00 
0.0000000e+00 -1.3132712e-06 0.0000000e+00 
0.0000000e+00 -1.9585295e-05 0.0000000e+00 
0.0000000e+00 -7.0702125e-05 0.0000000e+00 
0.0000000e+00 -5.0733627e-07 0.0000000e+00 
0.0000000e+00 -6.1410205e-06 0.0000000e+00 
0.0000000e+00 -4.7512454e-05 0.0000000e+00 
0.0000000e+00 -2.1732340e-05 0.0000000e+00 
0.0000000e+00 -7.9790152e-05 0.0000000e+00 
0.0000000e+00 -2.4356485e-05 0.0000000e+00 
0.0000000e+00 -1.3609491e-07 0.0000000e+00 
0.0000000e+00 -3.6154910e-05 0.0000000e+00 
0.0000000e+00 -1.2838233e-05 0.0000000e+00 
0.0000000e+00 -7.5360012e-09 0.0000000e+00 
0.0000000e+00 -9.2317123e-06 0.0000000e+00 
0.0000000e+00 -1.6597905e-05 0.0000000e+00 
0.0000000e+00 -5.0954623e-07 0.0000000e+00 
0.0000000e+00 -5.2337738e-05 0.0000000e+00 
0.0000000e+00 -2.3344890e-06 0.0000000e+00 
0.0000000e+00 -4.5657089e-05 0.0000000e+00 
0.0000000e+00 -7.3950364e-06 0.0000000e+00 
0.0000000e+00 -3.6132806e-05 0.0000000e+00 
0.0000000e+00 -7.8928742e-06 0.0000000e+00 
0.0000000e+00 -1.8435301e-05 0.0000000e+00 
0.0000000e+00 3.2759761e-08 0.0000000e+00 
0.0000000e+00 -2.2477766e-09 0.0000000e+00 
0.0000000e+00 -3.7315192e-06 0.0000000e+00 
0.0000000e+00 -9.4493407e-07 0.0000000e+00 
0.0000000e+00 -3.8246089e-06 0.0000000e+00 
0.0000000e+00 -6.4044248e-06 0.0000000e+00 
0.0000000e+00 -3.0203014e-06 0.0000000e+00 
0.0000000e+00 -2.2784716e-06 0.0000000e+00 
0.0000000e+00 -1.0608709e-06 0.0000000e+00 
0.0000000e+00 -8.6093678e-06 0.0000000e+00 
0.0000000e+00 -4.3390191e-06 0.0000000e+00 
0.0000000e+00 -2.6821763e-06 0.0000000e+00 
0.0000000e+00 -5.7241306e-07 0.0000000e+00 
0.0000000e+00 -6.5436950e-07 0.0000000e+00 
0.0000000e+00 -9.4812385e-06 0.0000000e+00 
0.0000000e+00 -4.3097789e-06 0.0000000e+00 
-8.7550761e-06 -1.1758843e-04 7.7490148e-07 
-2.3663824e-07 -2.2237366e-07 1.5171164e-06 
-2.4698122e-06 -5.9598815e-06 6.2150452e-06 
-6.7624906e-06 -4.9649942e-05 1.0702761e-05 
-7.8363764e-06 -4.9429043e-05 -1.2933592e-05 
-1.5381925e-06 -1.0977469e-06 1.1395989e-06 
-3.1247882e-06 -2.7773901e-06 -6.2116300e-07 
-3.6505190e-07 1.4361078e-07 3.4870243e-07 
-9.3114750e-08 1.1401244e-07 5.2710624e-07 
-3.5877715e-06 -7.4201457e-06 -2.6442681e-06 
-1.1451600e-07 2.2786831e-07 1.6406503e-07 
-2.7349677e-06 -1.0683202e-05 -4.9167229e-06 
-1.0811945e-06 -3.0744692e-07 8.7628337e-07 
-7.8104864e-07 -3.8119720e-07 1.2444718e-06 
-5.0695866e-07 1.7969229e-07 8.1360395e-07 
-6.7841188e-07 -2.8885773e-07 1.6717588e-06 
-1.5169038e-06 -2.0760792e-06 2.9351902e-06 
-2.7901524e-07 8.7082661e-08 7.1470299e-07 
-1.0897616e-06 -1.8610330e-06 2.8369136e-06 
-1.8211613e-06 -1.7927010e-06 2.0124221e-06 
-2.9141056e-06 -4.3017599e-06 2.7896024e-06 
-3.7616544e-06 -5.5985747e-06 4.5664592e-06 
-6.3003536e-06 -1.2134007e-05 4.7144154e-06 
-6.9358857e-06 -9.0661624e-06 3.0521312e-06 
-1.1986910e-05 -2.4995312e-05 4.7094559e-06 
-9.7665388e-06 -1.7136281e-05 8.6731797e-07 
-6.2471299e-06 -6.9306598e-06 1.8354743e-06 
-6.5075087e-06 -1.3640957e-05 7.3048254e-06 
-1.2400997e-05 -3.7718786e-05 3.0251585e-06 
-1.1372586e-05 -2.1712765e-05 -1.9638578e-07 
-1.2550060e-05 -5.4783519e-05 8.4146432e-06 
-1.3595906e-07 2.1176460e-07 2.6872164e-07 
-2.2239039e-06 -3.6797132e-06 3.8189169e-06 
-2.8951101e-06 -2.4807257e-06 1.1490133e-06 
-2.3569196e-06 -3.0085787e-06 -1.4231093e-06 
-6.0878647e-06 -8.6742548e-06 -3.1740412e-06 
-6.1585997e-06 -1.9526833e-05 -6.1445203e-06 
-9.8243881e-06 -1.9426487e-05 -3.4119646e-06 
-1.9886625e-06 -1.6808540e-06 -1.0948742e-06 
-1.5439035e-07 2.6650685e-07 1.5115317e-07 
-4.9258546e-07 -1.7956420e-07 1.6208511e-06 
-2.1561637e-07 9.2110163e-08 8.6879601e-07 
-1.5500105e-05 -4.6828416e-05 -2.4793176e-06 
-1.3729683e-05 -4.3917222e-05 -7.8040603e-06 
-9.1975407e-06 -1.0344585e-05 -2.5470667e-06 
-5.4616919e-07 -6.6397325e-07 2.6654047e-06 
-3.0362119e-06 -1.2698518e-05 8.0420787e-06 
-7.1114205e-06 -2.6924637e-05 1.2835844e-05 
-2.7401640e-05 -1.0176218e-04 -1.2896476e-05 
-1.1692508e-06 -2.2113068e-06 4.2393613e-06 
-3.8447520e-06 -2.6266334e-05 -6.7134893e-06 
-3.2717564e-06 -2.3388018e-06 -1.4417691e-07 
-8.5836828e-06 -2.5323039e-05 8.2004353e-06 
-7.9653567e-08 1.4562207e-07 1.9414389e-07 
-1.8403391e-05 -9.1454727e-05 7.8123112e-06 
-9.5752048e-06 -8.5945372e-05 -1.3191091e-05 
-1.5239335e-07 -4.4315644e-08 9.1190196e-07 
-4.6991231e-06 -4.6241462e-06 -2.2792215e-06 
-3.9738643e-06 -1.3214380e-05 -5.3446402e-06 
-6.8482564e-06 -9.1645206e-06 1.5978505e-07 
-1.5481933e-06 -1.0400533e-06 -7.8977649e-07 
-2.6480132e-07 2.4073287e-07 4.8721279e-07 
-5.5456024e-08 2.5252075e-07 7.6658282e-08 
-1.4067089e-07 1.1218295e-07 4.2970743e-07 
-8.4204385e-06 -7.8072422e-05 7.8266348e-06 
-2.5825350e-06 -2.2093511e-06 5.0358159e-07 
-3.2123028e-06 -7.6345732e-06 5.8707706e-06 
-2.1565268e-06 -3.8837829e-06 4.6806013e-06 
-1.7796832e-05 -7.6798628e-05 1.2976850e-06 
-9.7412467e-08 1.8192192e-07 2.0679236e-07 
-4.1418369e-07 -4.6005048e-06 3.7365630e-06 
1.1526970e-07 -1.7174797e-06 1.6049731e-06 
-8.7611761e-07 -8.8799807e-06 6.1435867e-06 
-1.2653002e-06 -1.6219083e-05 7.2429657e-06 
-4.0057468e-09 -5.9322332e-07 1.2246725e-06 
-2.6257544e-06 -3.3632845e-05 9.3406816e-06 
-3.4508539e-06 -5.2408195e-05 8.9710711e-06 
-7.2188636e-06 -9.2139671e-05 8.0472628e-06 
-4.6274108e-06 -1.0668891e-04 4.0650475e-06 
-8.5849497e-06 -1.3246424e-04 -5.7954469e-07 
-9.0875265e-06 -1.3146603e-04 -3.3715976e-06 
-4.1190347e-06 -8.6552682e-05 -5.8853743e-06 
-3.6066858e-06 -6.2771316e-05 -8.1797079e-06 
-2.0858536e-06 -3.6692079e-05 -7.9005213e-06 
-9.5189654e-07 -1.6737495e-05 -5.1642814e-06 
9.3706314e-09 -3.2428363e-07 7.9625465e-07 
-5.0613671e-08 1.5261381e-08 4.1348599e-07 
-2.3045446e-08 6.7156726e-08 1.7729955e-07 
1.1627432e-06 -2.9105831e-06 -2.7112401e-06 
8.2528340e-06 -3.9094928e-05 -6.1411679e-06 
9.0854473e-06 -3.4457025e-05 4.3108671e-06 
6.7098100e-08 7.4545113e-08 -3.1183467e-07 
3.7358916e-06 -9.3874023e-06 -3.7838829e-06 
1.0909495e-06 -2.1168666e-05 -5.7786874e-06 
7.5288876e-06 -1.0668649e-05 -1.4255724e-07 
6.8543790e-07 -4.7047266e-07 -1.0355919e-06 
3.2024473e-06 -2.1232459e-05 6.6430848e-06 
4.8081383e-06 -8.9234658e-05 -2.0493551e-06 
1.4899619e-07 1.1321527e-07 -3.5634511e-07 
4.5368502e-06 -6.3807438e-06 2.0775083e-06 
6.8668548e-08 -6.8663718e-07 -1.9243610e-07 
1.0251282e-06 -6.9883143e-05 -7.5373337e-06 
1.2411227e-06 -1.4155514e-06 -9.6627230e-07 
2.7985222e-06 -6.9117719e-05 8.5261217e-06 
2.9153753e-07 -6.2884055e-06 -4.3926192e-07 
8.8201437e-09 4.9720562e-08 1.9371329e-07 
2.8900561e-06 -3.3113570e-06 -1.0427487e-06 
4.2057815e-07 -4.3778078e-07 -1.1219651e-06 
5.1954389e-06 -4.2740765e-05 -2.1052911e-06 
6.3392616e-07 -4.7550366e-06 -7.9921756e-07 
3.7868481e-06 -1.3715246e-05 -1.8547387e-06 
4.7729575e-08 -7.0054647e-08 -8.5623064e-08 
2.6791525e-07 -3.3533802e-08 -3.7750286e-07 
3.4505542e-06 -3.5037517e-06 7.1932146e-07 
5.5888909e-06 -3.3048338e-05 -5.0883759e-08 
2.2828949e-06 -1.1988093e-05 2.8010563e-06 
1.3551823e-06 -3.0092078e-06 -1.5728874e-07 
-3.5865092e-08 2.0036373e-07 7.2160606e-09 
1.7472814e-06 -2.7648437e-06 -2.6826931e-06 
5.7070711e-06 -2.2911609e-05 1.9304277e-06 
1.6250386e-06 -1.6422518e-06 7.2274452e-07 
2.1456030e-07 8.2394578e-08 -2.4806627e-07 
1.8297665e-07 -9.2006889e-07 -1.0444917e-06 
2.4758026e-06 -7.7510867e-06 -4.2560227e-06 
1.2098026e-07 -1.8531414e-06 -3.7451753e-09 
6.4729943e-06 -1.0332863e-05 -3.3693441e-06 
7.5058085e-07 -3.7066982e-07 -8.7957756e-07 
4.0878112e-06 -2.6958418e-05 -4.2411589e-06 
9.1253876e-09 2.4340210e-07 -2.9840812e-08 
3.7166096e-06 -2.0076541e-05 -6.1854944e-06 
1.6026397e-07 -1.9497297e-06 2.4798953e-07 
-2.9656334e-08 1.6995871e-07 9.6688098e-08 
4.8385195e-06 -1.2319490e-05 4.5411371e-06 
7.8491786e-07 -2.0434115e-06 3.2441295e-07 
7.7388977e-06 -1.2150820e-05 1.4880516e-06 
3.5558720e-08 8.9363894e-08 -2.0594007e-07 
-1.0144895e-07 -1.9462570e-06 2.0280862e-07 
2.0481872e-08 2.5955993e-07 -7.3854189e-08 
3.5847554e-06 -2.8886043e-05 2.2765907e-06 
3.6796748e-06 -2.0936295e-05 5.3438753e-06 
7.7311405e-08 7.2837473e-08 -1.3992987e-07 
1.0066839e-05 -1.7404962e-05 -8.1471205e-07 
2.7710103e-06 -2.8792451e-06 -2.2679978e-06 
2.6567500e-06 -7.3870110e-06 4.1079713e-07 
-1.4300981e-07 -1.0667720e-04 -4.0648119e-06 
1.0939938e-05 -5.6583322e-05 2.3157238e-06 
2.4392159e-08 5.2022610e-08 -1.8608809e-07 
8.1100882e-07 -1.6513348e-05 2.2362697e-06 
3.0757658e-06 -5.0949038e-06 2.1243375e-06 
9.0474111e-07 -3.1097543e-06 3.4040201e-07 
8.4924818e-07 -4.1731673e-06 -3.8231767e-07 
-9.2790231e-07 -1.4841272e-05 -1.6169540e-07 
TOTAL_DISPLACEMENT 3 395  float
0.0000000e+00 0.0000000e+00 0.0000000e+00 
0.0000000e+00 0.0000000e+00 0.0000000e+00 
0.0000000e+00 0.0000000e+00 0.0000000e+00 
0.0000000e+00 0.0000000e+00 0.0000000e+00 
0.0000000e+00 0.0000000e+00 0.0000000e+00 
0.0000000e+00 0.0000000e+00 0.0000000e+00 
0.0000000e+00 0.0000000e+00 0.0000000e+00 
0.0000000e+00 0.0000000e+00 0.0000000e+00 
0.0000000e+00 0.0000000e+00 0.0000000e+00 
0.0000000e+00 0.0000000e+00 0.0000000e+00 
0.0000000e+00 0.0000000e+00 0.0000000e+00 
0.0000000e+00 0.0000000e+00 0.0000000e+00 
0.0000000e+00 0.0000000e+00 0.0000000e+00 
0.0000000e+00 0.0000000e+00 0.0000000e+00 
0.0000000e+00 0.0000000e+00 0.0000000e+00 
0.0000000e+00 0.0000000e+00 0.0000000e+00 
0.0000000e+00 0.0000000e+00 0.0000000e+00 
0.0000000e+00 0.0000000e+00 0.0000000e+00 
0.0000000e+00 0.0000000e+00 0.0000000e+00 
0.0000000e+00 0.0000000e+00 0.0000000e+00 
0.0000000e+00 0.0000000e+00 0.0000000e+00 
0.0000000e+00 0.0000000e+00 0.0000000e+00 
0.0000000e+00 0.0000000e+00 0.0000000e+00 
0.0000000e+00 0.0000000e+00 0.0000000e+00 
0.0000000e+00 0.0000000e+00 0.0000000e+00 
0.0000000e+00 0.0000000e+00 0.0000000e+00 
0.0000000e+00 0.0000000e+00 0.0000000e+00 
0.0000000e+00 0.0000000e+00 0.0000000e+00 
0.0000000e+00 0.0000000e+00 0.0000000e+00 
0.0000000e+00 0.0000000e+00 0.0000000e+00 
0.0000000e+00 0.0000000e+00 0.0000000e+00 
0.0000000e+00 0.0000000e+00 0.0000000e+00 
0.0000000e+00 0.0000000e+00 0.0000000e+00 
0.0000000e+00 0.0000000e+00 0.0000000e+00 
0.0000000e+00 0.0000000e+00 0.0000000e+00 
0.0000000e+00 0.0000000e+00 0.0000000e+00 
0.0000000e+00 0.0000000e+00 0.0000000e+00 
0.0000000e+00 0.0000000e+00 0.0000000e+00 
0.0000000e+00 0.0000000e+00 0.0000000e+00 
0.0000000e+00 0.0000000e+00 0.0000000e+00 
0.0000000e+00 0.0000000e+00 0.0000000e+00 
0.0000000e+00 0.0000000e+00 0.0000000e+00 
0.0000000e+00 0.0000000e+00 0.0000000e+00 
0.0000000e+00 0.0000000e+00 0.0000000e+00 
0.0000000e+00 0.0000000e+00 0.0000000e+00 
0.0000000e+00 0.0000000e+00 0.0000000e+00 
0.0000000e+00 0.0000000e+00 0.0000000e+00 
0.0000000e+00 0.0000000e+00 0.0000000e+00 
0.0000000e+00 0.0000000e+00 0.0000000e+00 
0.0000000e+00 0.0000000e+00 0.0000000e+00 
0.0000000e+00 0.0000000e+00 0.0000000e+00 
0.0000000e+00 0.0000000e+00 0.0000000e+00 
0.0000000e+00 0.0000000e+00 0.0000000e+00 
0.0000000e+00 0.0000000e+00 0.0000000e+00 
0.0000000e+00 0.0000000e+00 0.0000000e+00 
0.0000000e+00 0.0000000e+00 0.0000000e+00 
0.0000000e+00 0.0000000e+00 0.0000000e+00 
0.0000000e+00 0.0000000e+00 0.0000000e+00 