# vtk DataFile Version 4.0
vtk output
ASCII
DATASET UNSTRUCTURED_GRID
POINTS 395 float
0.0000000e+00 0.0000000e+00 0.0000000e+00 
5.0000000e+00 0.0000000e+00 0.0000000e+00 
5.0000000e+00 3.0000000e+00 0.0000000e+00 
0.0000000e+00 3.0000000e+00 0.0000000e+00 
0.0000000e+00 0.0000000e+00 1.0000000e+01 
5.0000000e+00 0.0000000e+00 1.0000000e+01 
5.0000000e+00 3.0000000e+00 1.0000000e+01 
0.0000000e+00 3.0000000e+00 1.0000000e+01 
1.0000000e+00 3.0000000e+00 5.0000000e-01 
1.0000000e+00 3.0000000e+00 1.0000000e+00 
1.0000000e+00 3.0000000e+00 1.5000000e+00 
1.0000000e+00 3.0000000e+00 2.0000000e+00 
1.0000000e+00 3.0000000e+00 2.5000000e+00 
1.0000000e+00 3.0000000e+00 3.0000000e+00 
1.0000000e+00 3.0000000e+00 3.5000000e+00 
1.0000000e+00 3.0000000e+00 4.0000000e+00 
1.0000000e+00 3.0000000e+00 4.5000000e+00 
1.0000000e+00 3.0000000e+00 5.0000000e+00 
1.0000000e+00 3.0000000e+00 5.5000000e+00 
1.0000000e+00 3.0000000e+00 6.0000000e+00 
1.0000000e+00 3.0000000e+00 6.5000000e+00 
1.0000000e+00 3.0000000e+00 7.0000000e+00 
1.0000000e+00 3.0000000e+00 7.5000000e+00 
1.0000000e+00 3.0000000e+00 8.0000000e+00 
1.0000000e+00 3.0000000e+00 8.5000000e+00 
1.0000000e+00 3.0000000e+00 9.0000000e+00 
1.0000000e+00 3.0000000e+00 9.5000000e+00 
1.0000000e+00 3.0000000e+00 0.0000000e+00 
1.0000000e+00 3.0000000e+00 1.0000000e+01 
1.0000000e+00 3.0250001e+00 0.0000000e+00 
1.0000000e+00 3.0250001e+00 5.0000000e-01 
1.0000000e+00 3.0250001e+00 1.0000000e+00 
1.0000000e+00 3.0250001e+00 1.5000000e+00 
1.0000000e+00 3.0250001e+00 2.0000000e+00 
1.0000000e+00 3.0250001e+00 2.5000000e+00 
1.0000000e+00 3.0250001e+00 3.0000000e+00 
1.0000000e+00 3.0250001e+00 3.5000000e+00 
1.0000000e+00 3.0250001e+00 4.0000000e+00 
1.0000000e+00 3.0250001e+00 4.5000000e+00 
1.0000000e+00 3.0250001e+00 5.0000000e+00 
1.0000000e+00 3.0250001e+00 5.5000000e+00 
1.0000000e+00 3.0250001e+00 6.0000000e+00 
1.0000000e+00 3.0250001e+00 6.5000000e+00 
1.0000000e+00 3.0250001e+00 7.0000000e+00 
1.0000000e+00 3.0250001e+00 7.5000000e+00 
1.0000000e+00 3.0250001e+00 8.0000000e+00 
1.0000000e+00 3.0250001e+00 8.5000000e+00 
1.0000000e+00 3.0250001e+00 9.0000000e+00 
1.0000000e+00 3.0250001e+00 9.5000000e+00 
1.0000000e+00 3.0250001e+00 1.0000000e+01 
1.0000000e+00 0.0000000e+00 0.0000000e+00 
2.0000000e+00 0.0000000e+00 0.0000000e+00 
3.0000000e+00 0.0000000e+00 0.0000000e+00 
4.0000000e+00 0.0000000e+00 0.0000000e+00 
5.0000000e+00 1.0000000e+00 0.0000000e+00 
5.0000000e+00 2.0000000e+00 0.0000000e+00 
0.0000000e+00 2.0000000e+00 0.0000000e+00 
0.0000000e+00 1.0000000e+00 0.0000000e+00 
0.0000000e+00 0.0000000e+00 1.0000000e+00 
0.0000000e+00 0.0000000e+00 2.0000000e+00 
0.0000000e+00 0.0000000e+00 3.0000000e+00 
0.0000000e+00 0.0000000e+00 4.0000000e+00 
0.0000000e+00 0.0000000e+00 5.0000000e+00 
0.0000000e+00 0.0000000e+00 6.0000000e+00 
0.0000000e+00 0.0000000e+00 7.0000000e+00 
0.0000000e+00 0.0000000e+00 8.0000000e+00 
0.0000000e+00 0.0000000e+00 9.0000000e+00 
5.0000000e+00 0.0000000e+00 1.0000000e+00 
5.0000000e+00 0.0000000e+00 2.0000000e+00 
5.0000000e+00 0.0000000e+00 3.0000000e+00 
5.0000000e+00 0.0000000e+00 4.0000000e+00 
5.0000000e+00 0.0000000e+00 5.0000000e+00 
5.0000000e+00 0.0000000e+00 6.0000000e+00 
5.0000000e+00 0.0000000e+00 7.0000000e+00 
5.0000000e+00 0.0000000e+00 8.0000000e+00 
5.0000000e+00 0.0000000e+00 9.0000000e+00 
1.0000000e+00 0.0000000e+00 1.0000000e+01 
2.0000000e+00 0.0000000e+00 1.0000000e+01 
3.0000000e+00 0.0000000e+00 1.0000000e+01 
4.0000000e+00 0.0000000e+00 1.0000000e+01 
5.0000000e+00 3.0000000e+00 1.0000000e+00 
5.0000000e+00 3.0000000e+00 2.0000000e+00 
5.0000000e+00 3.0000000e+00 3.0000000e+00 
5.0000000e+00 3.0000000e+00 4.0000000e+00 
5.0000000e+00 3.0000000e+00 5.0000000e+00 
5.0000000e+00 3.0000000e+00 6.0000000e+00 
5.0000000e+00 3.0000000e+00 7.0000000e+00 
5.0000000e+00 3.0000000e+00 8.0000000e+00 
5.0000000e+00 3.0000000e+00 9.0000000e+00 
5.0000000e+00 1.0000000e+00 1.0000000e+01 
5.0000000e+00 2.0000000e+00 1.0000000e+01 
0.0000000e+00 3.0000000e+00 1.0000000e+00 
0.0000000e+00 3.0000000e+00 2.0000000e+00 
0.0000000e+00 3.0000000e+00 3.0000000e+00 
0.0000000e+00 3.0000000e+00 4.0000000e+00 
0.0000000e+00 3.0000000e+00 5.0000000e+00 
0.0000000e+00 3.0000000e+00 6.0000000e+00 
0.0000000e+00 3.0000000e+00 7.0000000e+00 
0.0000000e+00 3.0000000e+00 8.0000000e+00 
0.0000000e+00 3.0000000e+00 9.0000000e+00 
0.0000000e+00 2.0000000e+00 1.0000000e+01 
0.0000000e+00 1.0000000e+00 1.0000000e+01 
4.0000000e+00 3.0000000e+00 0.0000000e+00 
3.0000000e+00 3.0000000e+00 0.0000000e+00 
2.0000000e+00 3.0000000e+00 0.0000000e+00 
4.0000000e+00 3.0000000e+00 1.0000000e+01 
3.0000000e+00 3.0000000e+00 1.0000000e+01 
2.0000000e+00 3.0000000e+00 1.0000000e+01 
1.5046000e+00 2.2345026e+00 0.0000000e+00 
4.0618000e+00 1.5000000e+00 0.0000000e+00 
2.5000000e+00 8.6602539e-01 0.0000000e+00 
2.4957771e+00 2.1843948e+00 0.0000000e+00 
1.5046000e+00 7.6549745e-01 0.0000000e+00 
3.4700506e+00 2.2420573e+00 0.0000000e+00 
3.4707544e+00 7.6634604e-01 0.0000000e+00 
8.6322361e-01 1.5000000e+00 0.0000000e+00 
2.0000000e+00 1.5000000e+00 0.0000000e+00 
2.9960666e+00 1.5025520e+00 0.0000000e+00 
4.2679491e+00 7.3205084e-01 0.0000000e+00 
4.2679491e+00 2.2679491e+00 0.0000000e+00 
7.2695929e-01 2.2730408e+00 0.0000000e+00 
7.2695929e-01 7.2695929e-01 0.0000000e+00 
4.1822505e+00 0.0000000e+00 2.5515697e+00 
4.2017918e+00 0.0000000e+00 4.4725966e+00 
4.1114569e+00 0.0000000e+00 6.5092020e+00 
8.6602539e-01 0.0000000e+00 3.5000000e+00 
8.4778279e-01 0.0000000e+00 5.4684029e+00 
8.9629614e-01 0.0000000e+00 7.5867257e+00 
2.5566745e+00 0.0000000e+00 8.1853306e-01 
2.4918270e+00 0.0000000e+00 9.1386929e+00 
8.4677207e-01 0.0000000e+00 1.5042374e+00 
4.0943027e+00 0.0000000e+00 8.4081745e+00 
8.6281651e-01 0.0000000e+00 2.5007062e+00 
1.7315160e+00 0.0000000e+00 3.0001178e+00 
1.7319617e+00 0.0000000e+00 4.0000196e+00 
2.5980761e+00 0.0000000e+00 3.5000000e+00 
2.5536871e+00 0.0000000e+00 4.4963923e+00 
2.5928419e+00 0.0000000e+00 2.4239938e+00 
1.5037409e+00 0.0000000e+00 9.1535149e+00 
1.8433737e+00 0.0000000e+00 8.1858873e+00 
3.0000000e+00 0.0000000e+00 8.2679491e+00 
2.5000000e+00 0.0000000e+00 7.4019237e+00 
3.5042722e+00 0.0000000e+00 7.4271150e+00 
3.0310018e+00 0.0000000e+00 6.5282087e+00 
2.0373929e+00 0.0000000e+00 6.5307913e+00 
3.4767809e+00 0.0000000e+00 5.8031492e+00 
2.5452602e+00 0.0000000e+00 5.5720768e+00 
1.6456656e+00 0.0000000e+00 1.9697139e+00 
8.6297011e-01 0.0000000e+00 4.4947371e+00 
1.0111579e+00 0.0000000e+00 6.5282545e+00 
3.4994321e+00 0.0000000e+00 8.4691072e-01 
4.1860156e+00 0.0000000e+00 3.5040276e+00 
1.7320508e+00 0.0000000e+00 5.0000000e+00 
4.0544066e+00 0.0000000e+00 1.5781221e+00 
1.5817389e+00 0.0000000e+00 9.3943578e-01 
8.3166349e-01 0.0000000e+00 8.5090933e+00 
3.4686174e+00 0.0000000e+00 9.1752682e+00 
3.0709300e+00 0.0000000e+00 1.5799091e+00 
3.3927374e+00 0.0000000e+00 3.0399952e+00 
3.3826034e+00 0.0000000e+00 3.9747651e+00 
4.3420062e+00 0.0000000e+00 7.4688983e+00 
3.4023225e+00 0.0000000e+00 4.9314723e+00 
1.6740381e+00 0.0000000e+00 7.3014426e+00 
4.2715640e+00 0.0000000e+00 5.4758859e+00 
1.6225953e+00 0.0000000e+00 5.8104177e+00 
4.2679491e+00 0.0000000e+00 9.2679491e+00 
7.3205084e-01 0.0000000e+00 7.3205084e-01 
4.2679491e+00 0.0000000e+00 7.3205084e-01 
7.3205084e-01 0.0000000e+00 9.2679491e+00 
3.4586334e+00 0.0000000e+00 2.2347178e+00 
2.2895701e+00 0.0000000e+00 1.5463171e+00 
5.0000000e+00 2.2345026e+00 1.5046000e+00 
5.0000000e+00 1.5000000e+00 9.0618000e+00 
5.0000000e+00 2.1339746e+00 3.5000000e+00 
5.0000000e+00 2.1339746e+00 5.5000000e+00 
5.0000000e+00 2.1339746e+00 7.5000000e+00 
5.0000000e+00 8.6602539e-01 2.5000000e+00 
5.0000000e+00 8.6602539e-01 4.5000000e+00 
5.0000000e+00 8.6602539e-01 6.5000000e+00 
5.0000000e+00 8.6602539e-01 3.5000000e+00 
5.0000000e+00 8.6602539e-01 5.5000000e+00 
5.0000000e+00 2.1584709e+00 2.5001996e+00 
5.0000000e+00 2.1339746e+00 4.5000000e+00 
5.0000000e+00 2.1339746e+00 6.5000000e+00 
5.0000000e+00 8.6602539e-01 7.5000000e+00 
5.0000000e+00 7.6549745e-01 1.5046000e+00 
5.0000000e+00 7.6634604e-01 8.4707546e+00 
5.0000000e+00 2.2336540e+00 8.4707546e+00 
5.0000000e+00 1.5000000e+00 8.6322361e-01 
5.0000000e+00 1.5000000e+00 5.0000000e+00 
5.0000000e+00 1.5000000e+00 7.0000000e+00 
5.0000000e+00 1.5000000e+00 2.0000000e+00 
5.0000000e+00 1.5000000e+00 6.0000000e+00 
5.0000000e+00 1.5000000e+00 4.0000000e+00 
5.0000000e+00 1.5000000e+00 3.0000000e+00 
5.0000000e+00 1.5000000e+00 7.9977231e+00 
5.0000000e+00 2.2679491e+00 9.2679491e+00 
5.0000000e+00 7.3205084e-01 9.2679491e+00 
5.0000000e+00 2.2730408e+00 7.2695929e-01 
5.0000000e+00 7.2695929e-01 7.2695929e-01 
0.0000000e+00 7.6549745e-01 1.5046000e+00 
0.0000000e+00 1.5000000e+00 9.0618000e+00 
0.0000000e+00 7.6689392e-01 3.5202229e+00 
0.0000000e+00 8.4174728e-01 6.5073700e+00 
0.0000000e+00 2.1339746e+00 2.5000000e+00 
0.0000000e+00 2.1503205e+00 4.5283122e+00 
0.0000000e+00 2.1339746e+00 7.5000000e+00 
0.0000000e+00 7.5539857e-01 2.5041373e+00 
0.0000000e+00 2.1917200e+00 3.5330307e+00 
0.0000000e+00 2.1758037e+00 5.5047188e+00 
0.0000000e+00 1.4323456e+00 5.0621295e+00 
0.0000000e+00 2.1560361e+00 6.5002046e+00 
0.0000000e+00 8.3464229e-01 7.4971519e+00 
0.0000000e+00 2.2345026e+00 1.5046000e+00 
0.0000000e+00 2.2336540e+00 8.4707546e+00 
0.0000000e+00 7.6111549e-01 8.4702797e+00 
0.0000000e+00 1.5000000e+00 8.6322361e-01 
0.0000000e+00 1.4454463e+00 4.0239491e+00 
0.0000000e+00 7.3467791e-01 5.5115833e+00 
0.0000000e+00 1.5000000e+00 2.0000000e+00 
0.0000000e+00 1.4948297e+00 6.9999175e+00 
0.0000000e+00 1.4754088e+00 3.0096834e+00 
0.0000000e+00 1.5025774e+00 6.0000000e+00 
0.0000000e+00 7.2989392e-01 4.5196476e+00 
0.0000000e+00 1.4981872e+00 7.9961324e+00 
0.0000000e+00 7.3205084e-01 9.2679491e+00 
0.0000000e+00 2.2679491e+00 9.2679491e+00 
0.0000000e+00 2.2730408e+00 7.2695929e-01 
0.0000000e+00 7.2695929e-01 7.2695929e-01 
1.5046000e+00 7.6549745e-01 1.0000000e+01 
[...]
POINT_DATA 395
FIELD FieldData 2
DISPLACEMENT 3 395  float
0.0000000e+00 0.0000000e+00 0.0000000e+00 
0.0000000e+00 0.0000000e+00 0.0000000e+00 
0.0000000e+00 5.5313376e-07 0.0000000e+00 
0.0000000e+00 -9.5211357e-07 0.0000000e+00 
0.0000000e+00 0.0000000e+00 0.0000000e+00 
0.0000000e+00 0.0000000e+00 0.0000000e+00 
0.0000000e+00 3.5460474e-07 0.0000000e+00 
0.0000000e+00 -5.8480913e-07 0.0000000e+00 
-3.4967235e-07 -1.4519914e-07 1.1452805e-06 
-8.3328320e-07 -7.0247643e-07 2.7250521e-06 
-1.1457596e-06 -2.2782110e-06 4.2520692e-06 
-2.2355973e-06 -6.6894572e-06 7.2090124e-06 
-2.6241087e-06 -1.7853468e-05 7.8246276e-06 
-5.9615472e-06 -4.2360833e-05 1.3216086e-05 
-6.8851105e-06 -8.8125460e-05 1.5454236e-05 
-4.9638047e-06 -1.5656353e-04 1.9219220e-05 
2.4184760e-06 -2.2230209e-04 3.5905275e-06 
-4.9410104e-08 -2.3571904e-04 -7.2116236e-06 
-2.3472596e-06 -1.7979644e-04 -2.0457552e-05 
-5.1661441e-06 -1.0571836e-04 -1.7140957e-05 
-3.0667743e-06 -5.1573494e-05 -1.5090498e-05 
-2.7040098e-06 -2.1056976e-05 -8.5650399e-06 
-3.0463252e-06 -7.7371269e-06 -7.5193620e-06 
-1.1957204e-06 -2.6038524e-06 -4.1599214e-06 
-5.3243338e-07 -1.0575600e-06 -2.8566858e-06 
-4.3518281e-07 -4.7750132e-07 -1.5719652e-06 
-1.7896822e-07 -2.1800236e-07 -6.0809265e-07 
0.0000000e+00 1.0149041e-07 0.0000000e+00 
0.0000000e+00 -7.1035700e-08 0.0000000e+00 
0.0000000e+00 1.0754082e-07 0.0000000e+00 
0.0000000e+00 -1.3778811e-07 0.0000000e+00 
0.0000000e+00 -6.7606931e-07 0.0000000e+00 
0.0000000e+00 -2.2195097e-06 0.0000000e+00 
0.0000000e+00 -6.6008829e-06 0.0000000e+00 
0.0000000e+00 -1.7748816e-05 0.0000000e+00 
0.0000000e+00 -4.2410127e-05 0.0000000e+00 
0.0000000e+00 -8.8680223e-05 0.0000000e+00 
0.0000000e+00 -1.5765388e-04 0.0000000e+00 
0.0000000e+00 -2.2577023e-04 0.0000000e+00 
0.0000000e+00 -2.4072312e-04 0.0000000e+00 
0.0000000e+00 -1.8190171e-04 0.0000000e+00 
0.0000000e+00 -1.0695723e-04 0.0000000e+00 
0.0000000e+00 -5.1945022e-05 0.0000000e+00 
0.0000000e+00 -2.1148737e-05 0.0000000e+00 
0.0000000e+00 -7.5549428e-06 0.0000000e+00 
0.0000000e+00 -2.5289148e-06 0.0000000e+00 
0.0000000e+00 -9.8530177e-07 0.0000000e+00 
0.0000000e+00 -4.6305627e-07 0.0000000e+00 
0.0000000e+00 -2.1551158e-07 0.0000000e+00 
0.0000000e+00 -6.7565892e-08 0.0000000e+00 
0.0000000e+00 0.0000000e+00 0.0000000e+00 
0.0000000e+00 0.0000000e+00 0.0000000e+00 
0.0000000e+00 0.0000000e+00 0.0000000e+00 
0.0000000e+00 0.0000000e+00 0.0000000e+00 
0.0000000e+00 1.9613498e-07 0.0000000e+00 
0.0000000e+00 4.7434767e-07 0.0000000e+00 
0.0000000e+00 -9.5882058e-07 0.0000000e+00 
0.0000000e+00 -7.7190265e-07 0.0000000e+00 
0.0000000e+00 0.0000000e+00 0.0000000e+00 
0.0000000e+00 0.0000000e+00 0.0000000e+00 
0.0000000e+00 0.0000000e+00 0.0000000e+00 
0.0000000e+00 0.0000000e+00 0.0000000e+00 
0.0000000e+00 0.0000000e+00 0.0000000e+00 
0.0000000e+00 0.0000000e+00 0.0000000e+00 
0.0000000e+00 0.0000000e+00 0.0000000e+00 
0.0000000e+00 0.0000000e+00 0.0000000e+00 
0.0000000e+00 0.0000000e+00 0.0000000e+00 
0.0000000e+00 0.0000000e+00 0.0000000e+00 
0.0000000e+00 0.0000000e+00 0.0000000e+00 
0.0000000e+00 0.0000000e+00 0.0000000e+00 
0.0000000e+00 0.0000000e+00 0.0000000e+00 
0.0000000e+00 0.0000000e+00 0.0000000e+00 
0.0000000e+00 0.0000000e+00 0.0000000e+00 
0.0000000e+00 0.0000000e+00 0.0000000e+00 
0.0000000e+00 0.0000000e+00 0.0000000e+00 
0.0000000e+00 0.0000000e+00 0.0000000e+00 
0.0000000e+00 0.0000000e+00 0.0000000e+00 
0.0000000e+00 0.0000000e+00 0.0000000e+00 
0.0000000e+00 0.0000000e+00 0.0000000e+00 
0.0000000e+00 0.0000000e+00 0.0000000e+00 
0.0000000e+00 3.9458595e-07 0.0000000e+00 
0.0000000e+00 2.7282445e-07 0.0000000e+00 
0.0000000e+00 -1.5561268e-08 0.0000000e+00 
0.0000000e+00 -1.6156710e-06 0.0000000e+00 
0.0000000e+00 -1.7093734e-06 0.0000000e+00 
0.0000000e+00 -1.1696404e-06 0.0000000e+00 
0.0000000e+00 -7.9632213e-07 0.0000000e+00 
0.0000000e+00 1.2062030e-07 0.0000000e+00 
0.0000000e+00 1.5653494e-07 0.0000000e+00 
0.0000000e+00 1.0939827e-07 0.0000000e+00 
0.0000000e+00 2.8341611e-07 0.0000000e+00 
0.0000000e+00 -2.5403760e-06 0.0000000e+00 
0.0000000e+00 -1.2131005e-05 0.0000000e+00 
0.0000000e+00 -3.6971265e-05 0.0000000e+00 
0.0000000e+00 -8.5507498e-05 0.0000000e+00 
0.0000000e+00 -1.0182319e-04 0.0000000e+00 
0.0000000e+00 -5.7047597e-05 0.0000000e+00 
0.0000000e+00 -2.2317912e-05 0.0000000e+00 
0.0000000e+00 -6.0113111e-06 0.0000000e+00 
0.0000000e+00 -1.3294455e-06 0.0000000e+00 
0.0000000e+00 -5.9251829e-07 0.0000000e+00 
0.0000000e+00 -3.6060132e-07 0.0000000e+00 
0.0000000e+00 3.7578073e-07 0.0000000e+00 
0.0000000e+00 1.2698469e-07 0.0000000e+00 
0.0000000e+00 -2.2165557e-07 0.0000000e+00 
0.0000000e+00 2.4985283e-07 0.0000000e+00 
0.0000000e+00 3.0970369e-07 0.0000000e+00 
0.0000000e+00 -1.8210402e-08 0.0000000e+00 
0.0000000e+00 2.0885366e-07 0.0000000e+00 
0.0000000e+00 3.9479778e-07 0.0000000e+00 
0.0000000e+00 -1.2681289e-07 0.0000000e+00 
0.0000000e+00 3.9605271e-07 0.0000000e+00 
0.0000000e+00 -2.4941218e-07 0.0000000e+00 
0.0000000e+00 6.5292267e-07 0.0000000e+00 
0.0000000e+00 4.7484438e-08 0.0000000e+00 
0.0000000e+00 -2.0010663e-07 0.0000000e+00 
0.0000000e+00 3.3304914e-07 0.0000000e+00 
0.0000000e+00 3.7631636e-07 0.0000000e+00 
0.0000000e+00 1.0699180e-07 0.0000000e+00 
0.0000000e+00 6.1274875e-07 0.0000000e+00 
0.0000000e+00 -1.7653309e-07 0.0000000e+00 
0.0000000e+00 -2.4331408e-07 0.0000000e+00 
0.0000000e+00 0.0000000e+00 0.0000000e+00 
0.0000000e+00 0.0000000e+00 0.0000000e+00 
0.0000000e+00 0.0000000e+00 0.0000000e+00 
0.0000000e+00 0.0000000e+00 0.0000000e+00 
0.0000000e+00 0.0000000e+00 0.0000000e+00 
0.0000000e+00 0.0000000e+00 0.0000000e+00 
0.0000000e+00 0.0000000e+00 0.0000000e+00 
0.0000000e+00 0.0000000e+00 0.0000000e+00 
0.0000000e+00 0.0000000e+00 0.0000000e+00 
0.0000000e+00 0.0000000e+00 0.0000000e+00 
0.0000000e+00 0.0000000e+00 0.0000000e+00 
0.0000000e+00 0.0000000e+00 0.0000000e+00 
0.0000000e+00 0.0000000e+00 0.0000000e+00 
0.0000000e+00 0.0000000e+00 0.0000000e+00 
0.0000000e+00 0.0000000e+00 0.0000000e+00 
0.0000000e+00 0.0000000e+00 0.0000000e+00 
0.0000000e+00 0.0000000e+00 0.0000000e+00 
0.0000000e+00 0.0000000e+00 0.0000000e+00 
0.0000000e+00 0.0000000e+00 0.0000000e+00 
0.0000000e+00 0.0000000e+00 0.0000000e+00 
0.0000000e+00 0.0000000e+00 0.0000000e+00 
0.0000000e+00 0.0000000e+00 0.0000000e+00 
0.0000000e+00 0.0000000e+00 0.0000000e+00 
0.0000000e+00 0.0000000e+00 0.0000000e+00 
0.0000000e+00 0.0000000e+00 0.0000000e+00 
0.0000000e+00 0.0000000e+00 0.0000000e+00 
0.0000000e+00 0.0000000e+00 0.0000000e+00 
0.0000000e+00 0.0000000e+00 0.0000000e+00 
0.0000000e+00 0.0000000e+00 0.0000000e+00 
0.0000000e+00 0.0000000e+00 0.0000000e+00 
0.0000000e+00 0.0000000e+00 0.0000000e+00 
0.0000000e+00 0.0000000e+00 0.0000000e+00 
0.0000000e+00 0.0000000e+00 0.0000000e+00 
0.0000000e+00 0.0000000e+00 0.0000000e+00 
0.0000000e+00 0.0000000e+00 0.0000000e+00 
0.0000000e+00 0.0000000e+00 0.0000000e+00 
0.0000000e+00 0.0000000e+00 0.0000000e+00 
0.0000000e+00 0.0000000e+00 0.0000000e+00 
0.0000000e+00 0.0000000e+00 0.0000000e+00 
0.0000000e+00 0.0000000e+00 0.0000000e+00 
0.0000000e+00 0.0000000e+00 0.0000000e+00 
0.0000000e+00 0.0000000e+00 0.0000000e+00 
0.0000000e+00 0.0000000e+00 0.0000000e+00 
0.0000000e+00 0.0000000e+00 0.0000000e+00 
0.0000000e+00 0.0000000e+00 0.0000000e+00 
0.0000000e+00 0.0000000e+00 0.0000000e+00 
0.0000000e+00 0.0000000e+00 0.0000000e+00 
0.0000000e+00 0.0000000e+00 0.0000000e+00 
0.0000000e+00 0.0000000e+00 0.0000000e+00 
0.0000000e+00 4.1141038e-07 0.0000000e+00 
0.0000000e+00 1.5436487e-07 0.0000000e+00 
0.0000000e+00 -4.7799706e-08 0.0000000e+00 
0.0000000e+00 -5.9876908e-07 0.0000000e+00 
0.0000000e+00 1.7801781e-07 0.0000000e+00 
0.0000000e+00 -2.5476930e-07 0.0000000e+00 
0.0000000e+00 -8.2287983e-07 0.0000000e+00 
0.0000000e+00 -6.0398787e-07 0.0000000e+00 
0.0000000e+00 -1.0080790e-06 0.0000000e+00 
0.0000000e+00 -9.7548514e-07 0.0000000e+00 
0.0000000e+00 1.4458516e-07 0.0000000e+00 
0.0000000e+00 -6.3332362e-07 0.0000000e+00 
0.0000000e+00 -3.9593181e-07 0.0000000e+00 
0.0000000e+00 -3.4085392e-07 0.0000000e+00 
0.0000000e+00 4.3012395e-08 0.0000000e+00 
0.0000000e+00 -2.4406521e-08 0.0000000e+00 
0.0000000e+00 1.3113109e-07 0.0000000e+00 
0.0000000e+00 3.4054457e-07 0.0000000e+00 
0.0000000e+00 -8.6134179e-07 0.0000000e+00 
0.0000000e+00 -3.9784817e-07 0.0000000e+00 
0.0000000e+00 1.6102257e-07 0.0000000e+00 
0.0000000e+00 -7.7325922e-07 0.0000000e+00 
0.0000000e+00 -9.8700536e-07 0.0000000e+00 
0.0000000e+00 -4.0124812e-07 0.0000000e+00 
0.0000000e+00 -2.8763725e-09 0.0000000e+00 
0.0000000e+00 3.1273919e-07 0.0000000e+00 
0.0000000e+00 3.3883559e-08 0.0000000e+00 
0.0000000e+00 5.2604810e-07 0.0000000e+00 
0.0000000e+00 8.6902439e-08 0.0000000e+00 
0.0000000e+00 -3.3507117e-06 0.0000000e+00 
0.0000000e+00 -1.2015198e-06 0.0000000e+00 
0.0000000e+00 -1.8212229e-05 0.0000000e+00 
0.0000000e+00 -1.5626258e-05 0.0000000e+00 
0.0000000e+00 -2.1079915e-05 0.0000000e+00 
0.0000000e+00 -8.1868995e-05 0.0000000e+00 
0.0000000e+00 -1.0884796e-05 0.0000000e+00 
0.0000000e+00 -6.9886150e-06 0.0000000e+00 
0.0000000e+00 -4.7884234e-05 0.0000000e+00 
0.0000000e+00 -7.2734765e-05 0.0000000e+00 
0.0000000e+00 -5.0854509e-05 0.0000000e+00 
0.0000000e+00 -3.3429122e-05 0.0000000e+00 
0.0000000e+00 -5.8650230e-06 0.0000000e+00 
0.0000000e+00 -5.9929439e-06 0.0000000e+00 
0.0000000e+00 -3.2754469e-06 0.0000000e+00 
0.0000000e+00 -1.3314766e-06 0.0000000e+00 
0.0000000e+00 -2.1325923e-06 0.0000000e+00 
0.0000000e+00 -4.5580644e-05 0.0000000e+00 
0.0000000e+00 -2.1027374e-05 0.0000000e+00 
0.0000000e+00 -9.6412587e-06 0.0000000e+00 
0.0000000e+00 -1.5728370e-05 0.0000000e+00 
0.0000000e+00 -2.3942530e-05 0.0000000e+00 
0.0000000e+00 -3.8159091e-05 0.0000000e+00 
0.0000000e+00 -2.3797125e-05 0.0000000e+00 
0.0000000e+00 -5.1940174e-06 0.0000000e+00 
0.0000000e+00 -6.4203772e-07 0.0000000e+00 
0.0000000e+00 -1.0199792e-06 0.0000000e+00 
0.0000000e+00 -1.9487238e-06 0.0000000e+00 
0.0000000e+00 -1.0096014e-06 0.0000000e+00 
0.0000000e+00 -1.7533941e-07 0.0000000e+00 
0.0000000e+00 2.1127049e-07 0.0000000e+00 
0.0000000e+00 3.9273445e-07 0.0000000e+00 
0.0000000e+00 3.2947324e-07 0.0000000e+00 
0.0000000e+00 -1.4630949e-07 0.0000000e+00 
0.0000000e+00 3.1990857e-07 0.0000000e+00 
0.0000000e+00 3.7665284e-08 0.0000000e+00 
0.0000000e+00 -1.3394714e-07 0.0000000e+00 
0.0000000e+00 1.3242359e-07 0.0000000e+00 
0.0000000e+00 1.7473009e-07 0.0000000e+00 
0.0000000e+00 5.7576603e-08 0.0000000e+00 
0.0000000e+00 4.1148181e-07 0.0000000e+00 
0.0000000e+00 -1.2058020e-07 0.0000000e+00 
0.0000000e+00 -6.2436442e-08 0.0000000e+00 
-5.4266420e-06 -2.5626401e-05 -1.0378705e-05 
-3.1043730e-06 -1.1836259e-05 6.8549739e-06 
-1.2868485e-05 -6.9437490e-05 1.1920403e-05 
-3.3043680e-06 -1.1942515e-04 -7.8195008e-06 
-1.2787547e-06 -2.8241161e-06 -4.1984154e-06 
-3.1004849e-06 -3.0178226e-06 2.9953003e-07 
-1.0902604e-06 -5.8958022e-07 -1.0451295e-06 
-1.7548265e-06 -9.7657539e-07 8.5854037e-07 
-1.1751963e-06 -2.2721204e-06 3.4455900e-06 
-4.0506842e-07 -2.7265470e-08 -1.0247338e-06 
-7.2342681e-07 1.4051641e-07 8.9001207e-07 
-3.1363402e-07 -1.0666488e-07 -9.2608292e-07 
-2.8859108e-06 -2.2346171e-06 6.0529868e-07 
-3.7563930e-06 -4.4671669e-06 2.5659804e-06 
-3.0146314e-06 -2.4844737e-06 2.4041296e-06 
-4.5717411e-06 -7.9568772e-06 4.3288173e-06 
-8.5908232e-06 -1.5085859e-05 5.2755522e-06 
-2.1466803e-06 -3.6307954e-06 3.2872740e-06 
-7.9250085e-06 -2.2253598e-05 7.2053563e-06 
-4.8248207e-06 -7.6536953e-06 1.6065960e-06 
-6.7457631e-06 -1.0380168e-05 8.8714393e-07 
-9.3953122e-06 -2.2065784e-05 1.5727004e-06 
-1.0790516e-05 -2.4487135e-05 -6.7551974e-07 
-7.4811983e-06 -1.1919975e-05 -2.2315198e-06 
-9.7104030e-06 -2.5547142e-05 -4.7503981e-06 
-5.4465836e-06 -1.0446239e-05 -4.2144316e-06 
-4.7486774e-06 -4.8093389e-06 -2.4492265e-06 
-1.7812286e-05 -5.1657611e-05 2.6952598e-06 
-7.4864465e-06 -1.9138601e-05 -5.1282236e-06 
-4.6384962e-06 -7.5301964e-06 -3.7802743e-06 
-9.3589197e-06 -5.0945611e-05 -8.9851310e-06 
-9.5316301e-07 -2.4909266e-07 1.3781109e-06 
-1.1163292e-05 -2.8191029e-05 5.4267011e-06 
-2.5636584e-06 -3.2839096e-06 -6.2954774e-07 
-4.3800776e-07 1.2258526e-07 -5.9447353e-07 
-1.2517338e-06 -4.4820823e-07 -1.8556709e-06 
-1.1166547e-06 -1.4585952e-06 -2.0635625e-06 
-2.2710331e-06 -3.7262002e-06 -2.8641950e-06 
-4.4284599e-07 4.1848860e-08 -5.6557337e-07 
-9.7733346e-07 8.5557474e-08 7.8734189e-07 
-4.2824568e-06 -1.0753253e-05 6.9730290e-06 
-1.8798551e-06 -4.7871572e-06 4.4500712e-06 
-5.8136893e-06 -1.2499432e-05 -6.7971973e-06 
-2.6039361e-06 -5.7773022e-06 -4.8196534e-06 
-2.7820327e-06 -3.0566191e-06 -3.1774287e-06 
-4.7598955e-06 -2.3825138e-05 1.0033421e-05 
-1.4644955e-05 -1.0171632e-04 1.2251428e-05 
-3.2578297e-05 -1.1116111e-04 -8.5247926e-08 
-3.2394744e-06 -1.2144997e-05 -8.4201301e-06 
-7.6731121e-06 -4.6137458e-05 1.2505980e-05 
-6.9129453e-07 -8.3456098e-07 -1.8890984e-06 
-1.7909607e-06 -1.2806029e-06 -1.1452489e-06 
-1.3868869e-05 -5.3819302e-05 -5.6997123e-06 
-5.4681573e-07 -4.5696365e-07 1.5846254e-06 
-1.0087720e-05 -4.8058220e-05 -1.3867519e-05 
-2.5943475e-06 -6.1380447e-06 -5.7269685e-06 
-1.8034300e-06 -5.7199609e-06 5.4823249e-06 
-1.0544352e-06 -3.8995901e-07 -1.4797449e-06 
-5.2285577e-07 -9.4324129e-08 -1.5119714e-06 
-3.6232566e-06 -4.4946428e-06 -2.7771198e-06 
-2.9259351e-07 3.0412056e-07 -3.9461901e-07 
-1.7933061e-06 -7.8696985e-07 1.9428883e-06 
-3.9049829e-07 4.3643453e-07 4.1981485e-07 
-1.2220258e-06 -1.9976967e-06 2.8841407e-06 
-8.5980892e-06 -8.5804350e-05 -1.0859853e-05 
-1.9409172e-06 -1.9013828e-06 -7.4870366e-07 
-1.3106601e-05 -4.9313025e-05 7.8164958e-06 
-1.2744427e-05 -4.1810006e-05 9.8629762e-06 
-6.7505193e-06 -2.6323889e-05 -1.0303991e-05 
-6.7082146e-07 -3.5504121e-07 1.4819119e-06 
-1.2533966e-06 -5.2717944e-05 1.0754640e-05 
-6.0051428e-07 -2.8333367e-05 6.6148564e-06 
-5.9042713e-06 -8.9573092e-05 1.0066485e-05 
-9.0874310e-06 -1.2428963e-04 2.3857208e-06 
-1.5536500e-06 -1.5492482e-05 6.0521675e-06 
-8.1473108e-06 -1.3522831e-04 -2.8726697e-06 
-1.0592777e-05 -1.3057116e-04 -6.4305714e-06 
-5.3792428e-06 -9.0233385e-05 -1.0639020e-05 
-3.1076418e-06 -6.0050337e-05 -8.2959496e-06 
-1.7652485e-06 -3.3520086e-05 -9.1894644e-06 
-1.2091358e-06 -1.7545326e-05 -6.5170939e-06 
-6.2532445e-07 -7.9418296e-06 -3.9443544e-06 
-5.9366283e-07 -3.6454696e-06 -3.0615934e-06 
-3.2832685e-07 -1.5550363e-06 -2.0426041e-06 
-1.5332435e-07 -6.9126980e-07 -8.5976740e-07 
-6.8270941e-07 -8.9185778e-06 5.1353331e-06 
-5.3486065e-07 -3.1054847e-06 3.0708777e-06 
-2.1282311e-07 -1.2087293e-06 1.5661531e-06 
6.5924387e-06 -2.6162896e-05 -6.6415205e-06 
6.3871853e-06 -2.9369536e-05 7.3848414e-06 
1.6693266e-06 -5.5328251e-06 3.4263689e-06 
1.0222712e-06 -3.2047035e-06 -3.0952856e-06 
1.0739664e-05 -2.5320338e-05 -9.9369618e-07 
4.9327700e-06 -7.6674238e-05 1.8830210e-07 
3.7496807e-06 -5.7923476e-06 2.4965216e-06 
3.7365826e-06 -5.8334017e-06 -2.8079628e-06 
2.3028333e-07 -1.0800528e-06 1.2304598e-06 
1.3921868e-06 -2.4534829e-05 5.4451666e-06 
1.4453469e-06 -1.3769755e-06 -1.8276367e-06 
9.3647287e-07 -9.2152209e-07 1.2932319e-06 
1.1277364e-06 -1.6739839e-05 -4.4364347e-06 
2.9290991e-06 -6.5915890e-05 5.9992590e-06 
3.1718150e-06 -4.4442372e-06 -6.6269507e-07 
1.9530037e-07 -6.8122113e-06 2.0117079e-06 
4.8630468e-06 -6.4639440e-05 -6.6715083e-06 
2.3287502e-07 -5.2707542e-06 -2.8119334e-07 
3.3281103e-06 -3.8033218e-06 7.8931873e-07 
2.8499005e-06 -6.4212677e-06 -4.0239765e-06 
2.8281611e-06 -1.8399041e-05 2.5979400e-06 
6.6147659e-06 -3.1056919e-05 -3.6037900e-06 
5.1155657e-06 -1.5550981e-05 1.0828412e-06 
9.7833617e-07 -6.0030602e-06 -1.7851230e-06 
1.5892587e-06 -1.0421953e-06 -9.9507361e-07 
1.1759274e-06 -1.1749456e-06 1.2743633e-06 
1.9327620e-06 -1.1839075e-05 5.0180897e-06 
1.4510857e-07 -6.7719446e-07 5.8515809e-07 
9.4069094e-07 -1.9134814e-06 5.4556358e-07 
3.5733215e-08 -6.4874848e-07 -3.5769486e-07 
7.0420915e-06 -1.3755834e-05 -3.1315055e-06 
8.5980815e-07 -4.9984396e-06 1.3250150e-06 
2.6975877e-07 -2.1103668e-08 4.1078891e-07 
1.0762966e-06 -1.3698535e-06 -4.1452148e-07 
2.0277450e-06 -1.0945107e-05 -4.2295255e-06 
8.1281187e-06 -2.5089021e-05 -2.8004965e-06 
2.9267660e-06 -2.6352884e-05 -3.5084249e-06 
6.8910322e-06 -1.2005656e-05 3.3631813e-06 
2.4128985e-06 -2.0644045e-06 -1.3287635e-06 
8.8203287e-06 -4.8018199e-05 2.5186714e-06 
1.7675703e-07 2.8236070e-07 -1.6898109e-07 
6.0609909e-06 -3.1538857e-05 3.7826387e-06 
5.0372910e-07 -3.3601806e-05 -3.9023616e-06 
-1.0138310e-07 -6.5613574e-07 1.6415362e-07 
6.4854521e-07 -1.3478071e-06 1.7352836e-06 
1.5509281e-07 -1.1856248e-07 1.9406654e-07 
2.1235012e-06 -3.1439140e-06 2.7229439e-06 
6.8249244e-07 -7.4526565e-07 -1.3907103e-06 
1.1908813e-06 -1.1511797e-05 -3.8141999e-07 
2.7980934e-07 -1.9269480e-07 -1.4915058e-07 
4.2204398e-08 -2.7223728e-06 3.8305015e-07 
5.0640017e-07 -2.2174570e-06 2.1176802e-06 
6.7727024e-07 -2.6537015e-07 -6.2955684e-07 
4.8176548e-06 -8.9303130e-06 4.5660368e-06 
5.8536848e-06 -7.5350331e-06 -8.6299714e-09 
6.0959883e-07 -2.0616126e-06 4.0688403e-07 
-3.6488356e-07 -5.3410156e-05 1.7962490e-06 
8.4124885e-08 -1.0449872e-05 9.2392355e-07 
3.2771109e-07 -1.4876703e-06 -1.5928949e-06 
-6.7419235e-09 -4.5311120e-07 5.3305886e-08 
4.3471172e-07 -3.6011025e-07 7.6526152e-07 
8.6049539e-08 1.6610956e-07 1.4017232e-07 
1.5877828e-06 -6.3949724e-06 3.0765850e-08 
9.3794097e-06 -6.6346009e-05 -1.6254712e-06 
TOTAL_DISPLACEMENT 3 395  float
0.0000000e+00 0.0000000e+00 0.0000000e+00 
0.0000000e+00 0.0000000e+00 0.0000000e+00 
0.0000000e+00 0.0000000e+00 0.0000000e+00 
0.0000000e+00 0.0000000e+00 0.0000000e+00 
0.0000000e+00 0.0000000e+00 0.0000000e+00 
0.0000000e+00 0.0000000e+00 0.0000000e+00 
0.0000000e+00 0.0000000e+00 0.0000000e+00 
0.0000000e+00 0.0000000e+00 0.0000000e+00 
0.0000000e+00 0.0000000e+00 0.0000000e+00 
0.0000000e+00 0.0000000e+00 0.0000000e+00 
0.0000000e+00 0.0000000e+00 0.0000000e+00 
0.0000000e+00 0.0000000e+00 0.0000000e+00 
0.0000000e+00 0.0000000e+00 0.0000000e+00 
0.0000000e+00 0.0000000e+00 0.0000000e+00 
0.0000000e+00 0.0000000e+00 0.0000000e+00 
0.0000000e+00 0.0000000e+00 0.0000000e+00 
0.0000000e+00 0.0000000e+00 0.0000000e+00 
0.0000000e+00 0.0000000e+00 0.0000000e+00 
0.0000000e+00 0.0000000e+00 0.0000000e+00 
0.0000000e+00 0.0000000e+00 0.0000000e+00 
0.0000000e+00 0.0000000e+00 0.0000000e+00 
0.0000000e+00 0.0000000e+00 0.0000000e+00 
0.0000000e+00 0.0000000e+00 0.0000000e+00 
0.0000000e+00 0.0000000e+00 0.0000000e+00 
0.0000000e+00 0.0000000e+00 0.0000000e+00 
0.0000000e+00 0.0000000e+00 0.0000000e+00 
0.0000000e+00 0.0000000e+00 0.0000000e+00 
0.0000000e+00 0.0000000e+00 0.0000000e+00 
0.0000000e+00 0.0000000e+00 0.0000000e+00 
0.0000000e+00 0.0000000e+00 0.0000000e+00 
0.0000000e+00 0.0000000e+00 0.0000000e+00 
0.0000000e+00 0.0000000e+00 0.0000000e+00 
0.0000000e+00 0.0000000e+00 0.0000000e+00 
0.0000000e+00 0.0000000e+00 0.0000000e+00 
0.0000000e+00 0.0000000e+00 0.0000000e+00 
0.0000000e+00 0.0000000e+00 0.0000000e+00 
0.0000000e+00 0.0000000e+00 0.0000000e+00 
0.0000000e+00 0.0000000e+00 0.0000000e+00 
0.0000000e+00 0.0000000e+00 0.0000000e+00 
0.0000000e+00 0.0000000e+00 0.0000000e+00 
0.0000000e+00 0.0000000e+00 0.0000000e+00 
0.0000000e+00 0.0000000e+00 0.0000000e+00 
0.0000000e+00 0.0000000e+00 0.0000000e+00 
0.0000000e+00 0.0000000e+00 0.0000000e+00 
0.0000000e+00 0.0000000e+00 0.0000000e+00 
0.0000000e+00 0.0000000e+00 0.0000000e+00 
0.0000000e+00 0.0000000e+00 0.0000000e+00 
0.0000000e+00 0.0000000e+00 0.0000000e+00 
0.0000000e+00 0.0000000e+00 0.0000000e+00 
0.0000000e+00 0.0000000e+00 0.0000000e+00 
0.0000000e+00 0.0000000e+00 0.0000000e+00 
0.0000000e+00 0.0000000e+00 0.0000000e+00 
0.0000000e+00 0.0000000e+00 0.0000000e+00 
0.0000000e+00 0.0000000e+00 0.0000000e+00 
0.0000000e+00 0.0000000e+00 0.0000000e+00 
0.0000000e+00 0.0000000e+00 0.0000000e+00 
0.0000000e+00 0.0000000e+00 0.0000000e+00 