# vtk DataFile Version 4.0
vtk output
ASCII
DATASET UNSTRUCTURED_GRID
POINTS 189 float
0.0000000e+00 0.0000000e+00 0.0000000e+00 
1.0000000e+00 0.0000000e+00 0.0000000e+00 
1.0000000e+00 1.0000000e+01 0.0000000e+00 
0.0000000e+00 1.0000000e+01 0.0000000e+00 
0.0000000e+00 0.0000000e+00 1.0000000e+00 
1.0000000e+00 0.0000000e+00 1.0000000e+00 
1.0000000e+00 1.0000000e+01 1.0000000e+00 
0.0000000e+00 1.0000000e+01 1.0000000e+00 
5.0000000e-01 0.0000000e+00 0.0000000e+00 
1.0000000e+00 1.0000000e+00 0.0000000e+00 
1.0000000e+00 2.0000000e+00 0.0000000e+00 
1.0000000e+00 3.0000000e+00 0.0000000e+00 
1.0000000e+00 4.0000000e+00 0.0000000e+00 
1.0000000e+00 5.0000000e+00 0.0000000e+00 
1.0000000e+00 6.0000000e+00 0.0000000e+00 
1.0000000e+00 7.0000000e+00 0.0000000e+00 
1.0000000e+00 8.0000000e+00 0.0000000e+00 
1.0000000e+00 9.0000000e+00 0.0000000e+00 
1.0000000e+00 5.0000000e-01 0.0000000e+00 
1.0000000e+00 1.5000000e+00 0.0000000e+00 
1.0000000e+00 2.5000000e+00 0.0000000e+00 
1.0000000e+00 3.5000000e+00 0.0000000e+00 
1.0000000e+00 4.5000000e+00 0.0000000e+00 
1.0000000e+00 5.5000000e+00 0.0000000e+00 
1.0000000e+00 6.5000000e+00 0.0000000e+00 
1.0000000e+00 7.5000000e+00 0.0000000e+00 
1.0000000e+00 8.5000000e+00 0.0000000e+00 
1.0000000e+00 9.5000000e+00 0.0000000e+00 
5.0000000e-01 1.0000000e+01 0.0000000e+00 
0.0000000e+00 9.0000000e+00 0.0000000e+00 
0.0000000e+00 8.0000000e+00 0.0000000e+00 
0.0000000e+00 7.0000000e+00 0.0000000e+00 
0.0000000e+00 6.0000000e+00 0.0000000e+00 
0.0000000e+00 5.0000000e+00 0.0000000e+00 
0.0000000e+00 4.0000000e+00 0.0000000e+00 
0.0000000e+00 3.0000000e+00 0.0000000e+00 
0.0000000e+00 2.0000000e+00 0.0000000e+00 
0.0000000e+00 1.0000000e+00 0.0000000e+00 
0.0000000e+00 9.5000000e+00 0.0000000e+00 
0.0000000e+00 8.5000000e+00 0.0000000e+00 
0.0000000e+00 7.5000000e+00 0.0000000e+00 
0.0000000e+00 6.5000000e+00 0.0000000e+00 
0.0000000e+00 5.5000000e+00 0.0000000e+00 
0.0000000e+00 4.5000000e+00 0.0000000e+00 
0.0000000e+00 3.5000000e+00 0.0000000e+00 
0.0000000e+00 2.5000000e+00 0.0000000e+00 
0.0000000e+00 1.5000000e+00 0.0000000e+00 
0.0000000e+00 5.0000000e-01 0.0000000e+00 
0.0000000e+00 0.0000000e+00 5.0000000e-01 
1.0000000e+00 0.0000000e+00 5.0000000e-01 
5.0000000e-01 0.0000000e+00 1.0000000e+00 
1.0000000e+00 1.0000000e+01 5.0000000e-01 
1.0000000e+00 1.0000000e+00 1.0000000e+00 
1.0000000e+00 2.0000000e+00 1.0000000e+00 
1.0000000e+00 3.0000000e+00 1.0000000e+00 
1.0000000e+00 4.0000000e+00 1.0000000e+00 
1.0000000e+00 5.0000000e+00 1.0000000e+00 
1.0000000e+00 6.0000000e+00 1.0000000e+00 
1.0000000e+00 7.0000000e+00 1.0000000e+00 
1.0000000e+00 8.0000000e+00 1.0000000e+00 
1.0000000e+00 9.0000000e+00 1.0000000e+00 
1.0000000e+00 5.0000000e-01 1.0000000e+00 
1.0000000e+00 1.5000000e+00 1.0000000e+00 
1.0000000e+00 2.5000000e+00 1.0000000e+00 
1.0000000e+00 3.5000000e+00 1.0000000e+00 
1.0000000e+00 4.5000000e+00 1.0000000e+00 
1.0000000e+00 5.5000000e+00 1.0000000e+00 
1.0000000e+00 6.5000000e+00 1.0000000e+00 
1.0000000e+00 7.5000000e+00 1.0000000e+00 
1.0000000e+00 8.5000000e+00 1.0000000e+00 
1.0000000e+00 9.5000000e+00 1.0000000e+00 
0.0000000e+00 1.0000000e+01 5.0000000e-01 
5.0000000e-01 1.0000000e+01 1.0000000e+00 
0.0000000e+00 9.0000000e+00 1.0000000e+00 
0.0000000e+00 8.0000000e+00 1.0000000e+00 
0.0000000e+00 7.0000000e+00 1.0000000e+00 
0.0000000e+00 6.0000000e+00 1.0000000e+00 
0.0000000e+00 5.0000000e+00 1.0000000e+00 
0.0000000e+00 4.0000000e+00 1.0000000e+00 
0.0000000e+00 3.0000000e+00 1.0000000e+00 
0.0000000e+00 2.0000000e+00 1.0000000e+00 
0.0000000e+00 1.0000000e+00 1.0000000e+00 
0.0000000e+00 9.5000000e+00 1.0000000e+00 
0.0000000e+00 8.5000000e+00 1.0000000e+00 
0.0000000e+00 7.5000000e+00 1.0000000e+00 
0.0000000e+00 6.5000000e+00 1.0000000e+00 
0.0000000e+00 5.5000000e+00 1.0000000e+00 
0.0000000e+00 4.5000000e+00 1.0000000e+00 
0.0000000e+00 3.5000000e+00 1.0000000e+00 
0.0000000e+00 2.5000000e+00 1.0000000e+00 
0.0000000e+00 1.5000000e+00 1.0000000e+00 
0.0000000e+00 5.0000000e-01 1.0000000e+00 
5.0000000e-01 1.0000000e+00 0.0000000e+00 
5.0000000e-01 5.0000000e-01 0.0000000e+00 
5.0000000e-01 2.0000000e+00 0.0000000e+00 
5.0000000e-01 1.5000000e+00 0.0000000e+00 
5.0000000e-01 3.0000000e+00 0.0000000e+00 
5.0000000e-01 2.5000000e+00 0.0000000e+00 
5.0000000e-01 4.0000000e+00 0.0000000e+00 
5.0000000e-01 3.5000000e+00 0.0000000e+00 
5.0000000e-01 5.0000000e+00 0.0000000e+00 
5.0000000e-01 4.5000000e+00 0.0000000e+00 
5.0000000e-01 6.0000000e+00 0.0000000e+00 
5.0000000e-01 5.5000000e+00 0.0000000e+00 
5.0000000e-01 7.0000000e+00 0.0000000e+00 
5.0000000e-01 6.5000000e+00 0.0000000e+00 
5.0000000e-01 8.0000000e+00 0.0000000e+00 
5.0000000e-01 7.5000000e+00 0.0000000e+00 
5.0000000e-01 9.0000000e+00 0.0000000e+00 
5.0000000e-01 8.5000000e+00 0.0000000e+00 
5.0000000e-01 9.5000000e+00 0.0000000e+00 
5.0000000e-01 0.0000000e+00 5.0000000e-01 
1.0000000e+00 1.0000000e+00 5.0000000e-01 
1.0000000e+00 5.0000000e-01 5.0000000e-01 
1.0000000e+00 2.0000000e+00 5.0000000e-01 
1.0000000e+00 1.5000000e+00 5.0000000e-01 
1.0000000e+00 3.0000000e+00 5.0000000e-01 
1.0000000e+00 2.5000000e+00 5.0000000e-01 
1.0000000e+00 4.0000000e+00 5.0000000e-01 
1.0000000e+00 3.5000000e+00 5.0000000e-01 
1.0000000e+00 5.0000000e+00 5.0000000e-01 
1.0000000e+00 4.5000000e+00 5.0000000e-01 
1.0000000e+00 6.0000000e+00 5.0000000e-01 
1.0000000e+00 5.5000000e+00 5.0000000e-01 
1.0000000e+00 7.0000000e+00 5.0000000e-01 
1.0000000e+00 6.5000000e+00 5.0000000e-01 
1.0000000e+00 8.0000000e+00 5.0000000e-01 
1.0000000e+00 7.5000000e+00 5.0000000e-01 
1.0000000e+00 9.0000000e+00 5.0000000e-01 
1.0000000e+00 8.5000000e+00 5.0000000e-01 
1.0000000e+00 9.5000000e+00 5.0000000e-01 
5.0000000e-01 1.0000000e+01 5.0000000e-01 
0.0000000e+00 9.0000000e+00 5.0000000e-01 
0.0000000e+00 9.5000000e+00 5.0000000e-01 
0.0000000e+00 8.0000000e+00 5.0000000e-01 
0.0000000e+00 8.5000000e+00 5.0000000e-01 
0.0000000e+00 7.0000000e+00 5.0000000e-01 
0.0000000e+00 7.5000000e+00 5.0000000e-01 
0.0000000e+00 6.0000000e+00 5.0000000e-01 
0.0000000e+00 6.5000000e+00 5.0000000e-01 
0.0000000e+00 5.0000000e+00 5.0000000e-01 
0.0000000e+00 5.5000000e+00 5.0000000e-01 
0.0000000e+00 4.0000000e+00 5.0000000e-01 
0.0000000e+00 4.5000000e+00 5.0000000e-01 
0.0000000e+00 3.0000000e+00 5.0000000e-01 
0.0000000e+00 3.5000000e+00 5.0000000e-01 
0.0000000e+00 2.0000000e+00 5.0000000e-01 
0.0000000e+00 2.5000000e+00 5.0000000e-01 
0.0000000e+00 1.0000000e+00 5.0000000e-01 
0.0000000e+00 1.5000000e+00 5.0000000e-01 
0.0000000e+00 5.0000000e-01 5.0000000e-01 
5.0000000e-01 1.0000000e+00 1.0000000e+00 
5.0000000e-01 5.0000000e-01 1.0000000e+00 
5.0000000e-01 2.0000000e+00 1.0000000e+00 
5.0000000e-01 1.5000000e+00 1.0000000e+00 
5.0000000e-01 3.0000000e+00 1.0000000e+00 
5.0000000e-01 2.5000000e+00 1.0000000e+00 
5.0000000e-01 4.0000000e+00 1.0000000e+00 
5.0000000e-01 3.5000000e+00 1.0000000e+00 
5.0000000e-01 5.0000000e+00 1.0000000e+00 
5.0000000e-01 4.5000000e+00 1.0000000e+00 
5.0000000e-01 6.0000000e+00 1.0000000e+00 
5.0000000e-01 5.5000000e+00 1.0000000e+00 
5.0000000e-01 7.0000000e+00 1.0000000e+00 
5.0000000e-01 6.5000000e+00 1.0000000e+00 
5.0000000e-01 8.0000000e+00 1.0000000e+00 
5.0000000e-01 7.5000000e+00 1.0000000e+00 
5.0000000e-01 9.0000000e+00 1.0000000e+00 
5.0000000e-01 8.5000000e+00 1.0000000e+00 
5.0000000e-01 9.5000000e+00 1.0000000e+00 
5.0000000e-01 1.0000000e+00 5.0000000e-01 
5.0000000e-01 5.0000000e-01 5.0000000e-01 
5.0000000e-01 2.0000000e+00 5.0000000e-01 
5.0000000e-01 1.5000000e+00 5.0000000e-01 
5.0000000e-01 3.0000000e+00 5.0000000e-01 
5.0000000e-01 2.5000000e+00 5.0000000e-01 
5.0000000e-01 4.0000000e+00 5.0000000e-01 
5.0000000e-01 3.5000000e+00 5.0000000e-01 
5.0000000e-01 5.0000000e+00 5.0000000e-01 
5.0000000e-01 4.5000000e+00 5.0000000e-01 
5.0000000e-01 6.0000000e+00 5.0000000e-01 
5.0000000e-01 5.5000000e+00 5.0000000e-01 
5.0000000e-01 7.0000000e+00 5.0000000e-01 
5.0000000e-01 6.5000000e+00 5.0000000e-01 
5.0000000e-01 8.0000000e+00 5.0000000e-01 
5.0000000e-01 7.5000000e+00 5.0000000e-01 
5.0000000e-01 9.0000000e+00 5.0000000e-01 
5.0000000e-01 8.5000000e+00 5.0000000e-01 
5.0000000e-01 9.5000000e+00 5.0000000e-01 

CELLS 10 210
20 0 1 9 37 4 5 52 81 8 18 92 47 50 61 151 91 48 49 112 148
20 37 9 10 36 81 52 53 80 92 19 94 46 151 62 153 90 148 112 114 146
20 36 10 11 35 80 53 54 79 94 20 96 45 153 63 155 89 146 114 116 144
20 35 11 12 34 79 54 55 78 96 21 98 44 155 64 157 88 144 116 118 142
20 34 12 13 33 78 55 56 77 98 22 100 43 157 65 159 87 142 118 120 140
20 33 13 14 32 77 56 57 76 100 23 102 42 159 66 161 86 140 120 122 138
20 32 14 15 31 76 57 58 75 102 24 104 41 161 67 163 85 138 122 124 136
20 31 15 16 30 75 58 59 74 104 25 106 40 163 68 165 84 136 124 126 134
20 30 16 17 29 74 59 60 73 106 26 108 39 165 69 167 83 134 126 128 132
20 29 17 2 3 73 60 6 7 108 27 28 38 167 70 72 82 132 128 51 71

CELL_TYPES 10
25
25
25
25
25
25
25
25
25
25
POINT_DATA 189
FIELD FieldData 2
DISPLACEMENT 3 189  float
0.0000000e+00 -1.1870772e-07 0.0000000e+00 
0.0000000e+00 -1.1870772e-07 0.0000000e+00 
0.0000000e+00 -9.7953512e-07 0.0000000e+00 
0.0000000e+00 -9.7953512e-07 0.0000000e+00 
0.0000000e+00 -1.1870772e-07 0.0000000e+00 
0.0000000e+00 -1.1870772e-07 0.0000000e+00 
0.0000000e+00 -9.7953512e-07 0.0000000e+00 
0.0000000e+00 -9.7953512e-07 0.0000000e+00 
0.0000000e+00 -1.1870772e-07 0.0000000e+00 
0.0000000e+00 -1.7115157e-07 0.0000000e+00 
0.0000000e+00 -2.4015401e-07 0.0000000e+00 
0.0000000e+00 -3.2553800e-07 0.0000000e+00 
0.0000000e+00 -4.2366125e-07 0.0000000e+00 
0.0000000e+00 -5.2694503e-07 0.0000000e+00 
0.0000000e+00 -6.2583649e-07 0.0000000e+00 
0.0000000e+00 -7.1449506e-07 0.0000000e+00 
0.0000000e+00 -7.9776629e-07 0.0000000e+00 
0.0000000e+00 -8.8791739e-07 0.0000000e+00 
0.0000000e+00 -1.4295291e-07 0.0000000e+00 
0.0000000e+00 -2.0353453e-07 0.0000000e+00 
0.0000000e+00 -2.8094226e-07 0.0000000e+00 
0.0000000e+00 -3.7340473e-07 0.0000000e+00 
0.0000000e+00 -4.7525640e-07 0.0000000e+00 
0.0000000e+00 -5.7746337e-07 0.0000000e+00 
0.0000000e+00 -6.7141417e-07 0.0000000e+00 
0.0000000e+00 -7.5602009e-07 0.0000000e+00 
0.0000000e+00 -8.4160160e-07 0.0000000e+00 
0.0000000e+00 -9.3470572e-07 0.0000000e+00 
0.0000000e+00 -9.7953512e-07 0.0000000e+00 
0.0000000e+00 -8.8791739e-07 0.0000000e+00 
0.0000000e+00 -7.9776629e-07 0.0000000e+00 
0.0000000e+00 -7.1449506e-07 0.0000000e+00 
0.0000000e+00 -6.2583649e-07 0.0000000e+00 
0.0000000e+00 -5.2694503e-07 0.0000000e+00 
0.0000000e+00 -4.2366125e-07 0.0000000e+00 
0.0000000e+00 -3.2553800e-07 0.0000000e+00 
0.0000000e+00 -2.4015401e-07 0.0000000e+00 
0.0000000e+00 -1.7115157e-07 0.0000000e+00 
0.0000000e+00 -9.3470572e-07 0.0000000e+00 
0.0000000e+00 -8.4160160e-07 0.0000000e+00 
0.0000000e+00 -7.5602009e-07 0.0000000e+00 
0.0000000e+00 -6.7141417e-07 0.0000000e+00 
0.0000000e+00 -5.7746337e-07 0.0000000e+00 
0.0000000e+00 -4.7525640e-07 0.0000000e+00 
0.0000000e+00 -3.7340473e-07 0.0000000e+00 
0.0000000e+00 -2.8094226e-07 0.0000000e+00 
0.0000000e+00 -2.0353453e-07 0.0000000e+00 
0.0000000e+00 -1.4295291e-07 0.0000000e+00 
0.0000000e+00 -1.1870772e-07 0.0000000e+00 
0.0000000e+00 -1.1870772e-07 0.0000000e+00 
0.0000000e+00 -1.1870772e-07 0.0000000e+00 
0.0000000e+00 -9.7953512e-07 0.0000000e+00 
0.0000000e+00 -1.7115157e-07 0.0000000e+00 
0.0000000e+00 -2.4015401e-07 0.0000000e+00 
0.0000000e+00 -3.2553800e-07 0.0000000e+00 
0.0000000e+00 -4.2366125e-07 0.0000000e+00 
0.0000000e+00 -5.2694503e-07 0.0000000e+00 
0.0000000e+00 -6.2583649e-07 0.0000000e+00 
0.0000000e+00 -7.1449506e-07 0.0000000e+00 
0.0000000e+00 -7.9776629e-07 0.0000000e+00 
0.0000000e+00 -8.8791739e-07 0.0000000e+00 
0.0000000e+00 -1.4295291e-07 0.0000000e+00 
0.0000000e+00 -2.0353453e-07 0.0000000e+00 
0.0000000e+00 -2.8094226e-07 0.0000000e+00 
0.0000000e+00 -3.7340473e-07 0.0000000e+00 
0.0000000e+00 -4.7525640e-07 0.0000000e+00 
0.0000000e+00 -5.7746337e-07 0.0000000e+00 
0.0000000e+00 -6.7141417e-07 0.0000000e+00 
0.0000000e+00 -7.5602009e-07 0.0000000e+00 
0.0000000e+00 -8.4160160e-07 0.0000000e+00 
0.0000000e+00 -9.3470572e-07 0.0000000e+00 
0.0000000e+00 -9.7953512e-07 0.0000000e+00 
0.0000000e+00 -9.7953512e-07 0.0000000e+00 
0.0000000e+00 -8.8791739e-07 0.0000000e+00 
0.0000000e+00 -7.9776629e-07 0.0000000e+00 
0.0000000e+00 -7.1449506e-07 0.0000000e+00 
0.0000000e+00 -6.2583649e-07 0.0000000e+00 
0.0000000e+00 -5.2694503e-07 0.0000000e+00 
0.0000000e+00 -4.2366125e-07 0.0000000e+00 
0.0000000e+00 -3.2553800e-07 0.0000000e+00 
0.0000000e+00 -2.4015401e-07 0.0000000e+00 
0.0000000e+00 -1.7115157e-07 0.0000000e+00 
0.0000000e+00 -9.3470572e-07 0.0000000e+00 
0.0000000e+00 -8.4160160e-07 0.0000000e+00 
0.0000000e+00 -7.5602009e-07 0.0000000e+00 
0.0000000e+00 -6.7141417e-07 0.0000000e+00 
0.0000000e+00 -5.7746337e-07 0.0000000e+00 
0.0000000e+00 -4.7525640e-07 0.0000000e+00 
0.0000000e+00 -3.7340473e-07 0.0000000e+00 
0.0000000e+00 -2.8094226e-07 0.0000000e+00 
0.0000000e+00 -2.0353453e-07 0.0000000e+00 
0.0000000e+00 -1.4295291e-07 0.0000000e+00 
0.0000000e+00 -1.7115157e-07 0.0000000e+00 
0.0000000e+00 0.0000000e+00 0.0000000e+00 
0.0000000e+00 -2.4015401e-07 0.0000000e+00 
0.0000000e+00 0.0000000e+00 0.0000000e+00 
0.0000000e+00 -3.2553800e-07 0.0000000e+00 
0.0000000e+00 0.0000000e+00 0.0000000e+00 
0.0000000e+00 -4.2366125e-07 0.0000000e+00 
0.0000000e+00 0.0000000e+00 0.0000000e+00 
0.0000000e+00 -5.2694503e-07 0.0000000e+00 
0.0000000e+00 0.0000000e+00 0.0000000e+00 
0.0000000e+00 -6.2583649e-07 0.0000000e+00 
0.0000000e+00 0.0000000e+00 0.0000000e+00 
0.0000000e+00 -7.1449506e-07 0.0000000e+00 
0.0000000e+00 0.0000000e+00 0.0000000e+00 
0.0000000e+00 -7.9776629e-07 0.0000000e+00 
0.0000000e+00 0.0000000e+00 0.0000000e+00 
0.0000000e+00 -8.8791739e-07 0.0000000e+00 
0.0000000e+00 0.0000000e+00 0.0000000e+00 
0.0000000e+00 0.0000000e+00 0.0000000e+00 
0.0000000e+00 0.0000000e+00 0.0000000e+00 
0.0000000e+00 -1.7115157e-07 0.0000000e+00 
0.0000000e+00 0.0000000e+00 0.0000000e+00 
0.0000000e+00 -2.4015401e-07 0.0000000e+00 
0.0000000e+00 0.0000000e+00 0.0000000e+00 
0.0000000e+00 -3.2553800e-07 0.0000000e+00 
0.0000000e+00 0.0000000e+00 0.0000000e+00 
0.0000000e+00 -4.2366125e-07 0.0000000e+00 
0.0000000e+00 0.0000000e+00 0.0000000e+00 
0.0000000e+00 -5.2694503e-07 0.0000000e+00 
0.0000000e+00 0.0000000e+00 0.0000000e+00 
0.0000000e+00 -6.2583649e-07 0.0000000e+00 
0.0000000e+00 0.0000000e+00 0.0000000e+00 
0.0000000e+00 -7.1449506e-07 0.0000000e+00 
0.0000000e+00 0.0000000e+00 0.0000000e+00 
0.0000000e+00 -7.9776629e-07 0.0000000e+00 
0.0000000e+00 0.0000000e+00 0.0000000e+00 
0.0000000e+00 -8.8791739e-07 0.0000000e+00 
0.0000000e+00 0.0000000e+00 0.0000000e+00 
0.0000000e+00 0.0000000e+00 0.0000000e+00 
0.0000000e+00 0.0000000e+00 0.0000000e+00 
0.0000000e+00 -8.8791739e-07 0.0000000e+00 
0.0000000e+00 0.0000000e+00 0.0000000e+00 
0.0000000e+00 -7.9776629e-07 0.0000000e+00 
0.0000000e+00 0.0000000e+00 0.0000000e+00 
0.0000000e+00 -7.1449506e-07 0.0000000e+00 
0.0000000e+00 0.0000000e+00 0.0000000e+00 
0.0000000e+00 -6.2583649e-07 0.0000000e+00 
0.0000000e+00 0.0000000e+00 0.0000000e+00 
0.0000000e+00 -5.2694503e-07 0.0000000e+00 
0.0000000e+00 0.0000000e+00 0.0000000e+00 
0.0000000e+00 -4.2366125e-07 0.0000000e+00 
0.0000000e+00 0.0000000e+00 0.0000000e+00 
0.0000000e+00 -3.2553800e-07 0.0000000e+00 
0.0000000e+00 0.0000000e+00 0.0000000e+00 
0.0000000e+00 -2.4015401e-07 0.0000000e+00 
0.0000000e+00 0.0000000e+00 0.0000000e+00 
0.0000000e+00 -1.7115157e-07 0.0000000e+00 
0.0000000e+00 0.0000000e+00 0.0000000e+00 
0.0000000e+00 0.0000000e+00 0.0000000e+00 
0.0000000e+00 -1.7115157e-07 0.0000000e+00 
0.0000000e+00 0.0000000e+00 0.0000000e+00 
0.0000000e+00 -2.4015401e-07 0.0000000e+00 
0.0000000e+00 0.0000000e+00 0.0000000e+00 
0.0000000e+00 -3.2553800e-07 0.0000000e+00 
0.0000000e+00 0.0000000e+00 0.0000000e+00 
0.0000000e+00 -4.2366125e-07 0.0000000e+00 
0.0000000e+00 0.0000000e+00 0.0000000e+00 
0.0000000e+00 -5.2694503e-07 0.0000000e+00 
0.0000000e+00 0.0000000e+00 0.0000000e+00 
0.0000000e+00 -6.2583649e-07 0.0000000e+00 
0.0000000e+00 0.0000000e+00 0.0000000e+00 
0.0000000e+00 -7.1449506e-07 0.0000000e+00 
0.0000000e+00 0.0000000e+00 0.0000000e+00 
0.0000000e+00 -7.9776629e-07 0.0000000e+00 
0.0000000e+00 0.0000000e+00 0.0000000e+00 
0.0000000e+00 -8.8791739e-07 0.0000000e+00 
0.0000000e+00 0.0000000e+00 0.0000000e+00 
0.0000000e+00 0.0000000e+00 0.0000000e+00 
0.0000000e+00 0.0000000e+00 0.0000000e+00 
0.0000000e+00 0.0000000e+00 0.0000000e+00 
0.0000000e+00 0.0000000e+00 0.0000000e+00 
0.0000000e+00 0.0000000e+00 0.0000000e+00 
0.0000000e+00 0.0000000e+00 0.0000000e+00 
0.0000000e+00 0.0000000e+00 0.0000000e+00 
0.0000000e+00 0.0000000e+00 0.0000000e+00 
0.0000000e+00 0.0000000e+00 0.0000000e+00 
0.0000000e+00 0.0000000e+00 0.0000000e+00 
0.0000000e+00 0.0000000e+00 0.0000000e+00 
0.0000000e+00 0.0000000e+00 0.0000000e+00 
0.0000000e+00 0.0000000e+00 0.0000000e+00 
0.0000000e+00 0.0000000e+00 0.0000000e+00 
0.0000000e+00 0.0000000e+00 0.0000000e+00 
0.0000000e+00 0.0000000e+00 0.0000000e+00 
0.0000000e+00 0.0000000e+00 0.0000000e+00 
0.0000000e+00 0.0000000e+00 0.0000000e+00 
0.0000000e+00 0.0000000e+00 0.0000000e+00 
0.0000000e+00 0.0000000e+00 0.0000000e+00 
VELOCITY 3 189  float
0.0000000e+00 -1.1766117e-05 0.0000000e+00 
0.0000000e+00 -1.1766117e-05 0.0000000e+00 
0.0000000e+00 -2.1344598e-05 0.0000000e+00 
0.0000000e+00 -2.1344598e-05 0.0000000e+00 
0.0000000e+00 -1.1766117e-05 0.0000000e+00 
0.0000000e+00 -1.1766117e-05 0.0000000e+00 
0.0000000e+00 -2.1344598e-05 0.0000000e+00 
0.0000000e+00 -2.1344598e-05 0.0000000e+00 
0.0000000e+00 -1.1766117e-05 0.0000000e+00 
0.0000000e+00 -1.5623305e-05 0.0000000e+00 
0.0000000e+00 -1.9684656e-05 0.0000000e+00 
0.0000000e+00 -2.3225859e-05 0.0000000e+00 
0.0000000e+00 -2.5268775e-05 0.0000000e+00 
0.0000000e+00 -2.5014277e-05 0.0000000e+00 
0.0000000e+00 -2.2698239e-05 0.0000000e+00 
0.0000000e+00 -2.0400239e-05 0.0000000e+00 
0.0000000e+00 -2.1047466e-05 0.0000000e+00 
0.0000000e+00 -2.3311737e-05 0.0000000e+00 
0.0000000e+00 -1.3638724e-05 0.0000000e+00 
0.0000000e+00 -1.7666411e-05 0.0000000e+00 
0.0000000e+00 -2.1578755e-05 0.0000000e+00 
0.0000000e+00 -2.4495534e-05 0.0000000e+00 
0.0000000e+00 -2.5446410e-05 0.0000000e+00 
0.0000000e+00 -2.4025707e-05 0.0000000e+00 
0.0000000e+00 -2.1348953e-05 0.0000000e+00 
0.0000000e+00 -2.0270591e-05 0.0000000e+00 
0.0000000e+00 -2.2404018e-05 0.0000000e+00 
0.0000000e+00 -2.2034736e-05 0.0000000e+00 
0.0000000e+00 -2.1344598e-05 0.0000000e+00 
0.0000000e+00 -2.3311737e-05 0.0000000e+00 
0.0000000e+00 -2.1047466e-05 0.0000000e+00 
0.0000000e+00 -2.0400239e-05 0.0000000e+00 
0.0000000e+00 -2.2698239e-05 0.0000000e+00 
0.0000000e+00 -2.5014277e-05 0.0000000e+00 
0.0000000e+00 -2.5268775e-05 0.0000000e+00 
0.0000000e+00 -2.3225859e-05 0.0000000e+00 
0.0000000e+00 -1.9684656e-05 0.0000000e+00 
0.0000000e+00 -1.5623305e-05 0.0000000e+00 
0.0000000e+00 -2.2034736e-05 0.0000000e+00 
0.0000000e+00 -2.2404018e-05 0.0000000e+00 
0.0000000e+00 -2.0270591e-05 0.0000000e+00 
0.0000000e+00 -2.1348953e-05 0.0000000e+00 
0.0000000e+00 -2.4025707e-05 0.0000000e+00 
0.0000000e+00 -2.5446410e-05 0.0000000e+00 
0.0000000e+00 -2.4495534e-05 0.0000000e+00 
0.0000000e+00 -2.1578755e-05 0.0000000e+00 
0.0000000e+00 -1.7666411e-05 0.0000000e+00 
0.0000000e+00 -1.3638724e-05 0.0000000e+00 
0.0000000e+00 -1.1766117e-05 0.0000000e+00 
0.0000000e+00 -1.1766117e-05 0.0000000e+00 
0.0000000e+00 -1.1766117e-05 0.0000000e+00 
0.0000000e+00 -2.1344598e-05 0.0000000e+00 
0.0000000e+00 -1.5623305e-05 0.0000000e+00 
0.0000000e+00 -1.9684656e-05 0.0000000e+00 
0.0000000e+00 -2.3225859e-05 0.0000000e+00 
0.0000000e+00 -2.5268775e-05 0.0000000e+00 
0.0000000e+00 -2.5014277e-05 0.0000000e+00 
0.0000000e+00 -2.2698239e-05 0.0000000e+00 
0.0000000e+00 -2.0400239e-05 0.0000000e+00 
0.0000000e+00 -2.1047466e-05 0.0000000e+00 
0.0000000e+00 -2.3311737e-05 0.0000000e+00 
0.0000000e+00 -1.3638724e-05 0.0000000e+00 
0.0000000e+00 -1.7666411e-05 0.0000000e+00 
0.0000000e+00 -2.1578755e-05 0.0000000e+00 
0.0000000e+00 -2.4495534e-05 0.0000000e+00 
0.0000000e+00 -2.5446410e-05 0.0000000e+00 
0.0000000e+00 -2.4025707e-05 0.0000000e+00 
0.0000000e+00 -2.1348953e-05 0.0000000e+00 
0.0000000e+00 -2.0270591e-05 0.0000000e+00 
0.0000000e+00 -2.2404018e-05 0.0000000e+00 
0.0000000e+00 -2.2034736e-05 0.0000000e+00 
0.0000000e+00 -2.1344598e-05 0.0000000e+00 
0.0000000e+00 -2.1344598e-05 0.0000000e+00 
0.0000000e+00 -2.3311737e-05 0.0000000e+00 
0.0000000e+00 -2.1047466e-05 0.0000000e+00 
0.0000000e+00 -2.0400239e-05 0.0000000e+00 
0.0000000e+00 -2.2698239e-05 0.0000000e+00 
0.0000000e+00 -2.5014277e-05 0.0000000e+00 
0.0000000e+00 -2.5268775e-05 0.0000000e+00 
0.0000000e+00 -2.3225859e-05 0.0000000e+00 
0.0000000e+00 -1.9684656e-05 0.0000000e+00 
0.0000000e+00 -1.5623305e-05 0.0000000e+00 
0.0000000e+00 -2.2034736e-05 0.0000000e+00 
0.0000000e+00 -2.2404018e-05 0.0000000e+00 
0.0000000e+00 -2.0270591e-05 0.0000000e+00 
0.0000000e+00 -2.1348953e-05 0.0000000e+00 
0.0000000e+00 -2.4025707e-05 0.0000000e+00 
0.0000000e+00 -2.5446410e-05 0.0000000e+00 
0.0000000e+00 -2.4495534e-05 0.0000000e+00 
0.0000000e+00 -2.1578755e-05 0.0000000e+00 
0.0000000e+00 -1.7666411e-05 0.0000000e+00 
0.0000000e+00 -1.3638724e-05 0.0000000e+00 
0.0000000e+00 -1.5623305e-05 0.0000000e+00 
0.0000000e+00 0.0000000e+00 0.0000000e+00 
0.0000000e+00 -1.9684656e-05 0.0000000e+00 
0.0000000e+00 0.0000000e+00 0.0000000e+00 
0.0000000e+00 -2.3225859e-05 0.0000000e+00 
0.0000000e+00 0.0000000e+00 0.0000000e+00 
0.0000000e+00 -2.5268775e-05 0.0000000e+00 
0.0000000e+00 0.0000000e+00 0.0000000e+00 
0.0000000e+00 -2.5014277e-05 0.0000000e+00 
0.0000000e+00 0.0000000e+00 0.0000000e+00 
0.0000000e+00 -2.2698239e-05 0.0000000e+00 
0.0000000e+00 0.0000000e+00 0.0000000e+00 
0.0000000e+00 -2.0400239e-05 0.0000000e+00 
0.0000000e+00 0.0000000e+00 0.0000000e+00 
0.0000000e+00 -2.1047466e-05 0.0000000e+00 
0.0000000e+00 0.0000000e+00 0.0000000e+00 
0.0000000e+00 -2.3311737e-05 0.0000000e+00 
0.0000000e+00 0.0000000e+00 0.0000000e+00 
0.0000000e+00 0.0000000e+00 0.0000000e+00 
0.0000000e+00 0.0000000e+00 0.0000000e+00 
0.0000000e+00 -1.5623305e-05 0.0000000e+00 
0.0000000e+00 0.0000000e+00 0.0000000e+00 
0.0000000e+00 -1.9684656e-05 0.0000000e+00 
0.0000000e+00 0.0000000e+00 0.0000000e+00 
0.0000000e+00 -2.3225859e-05 0.0000000e+00 
0.0000000e+00 0.0000000e+00 0.0000000e+00 
0.0000000e+00 -2.5268775e-05 0.0000000e+00 
0.0000000e+00 0.0000000e+00 0.0000000e+00 
0.0000000e+00 -2.5014277e-05 0.0000000e+00 
0.0000000e+00 0.0000000e+00 0.0000000e+00 
0.0000000e+00 -2.2698239e-05 0.0000000e+00 
0.0000000e+00 0.0000000e+00 0.0000000e+00 
0.0000000e+00 -2.0400239e-05 0.0000000e+00 
0.0000000e+00 0.0000000e+00 0.0000000e+00 
0.0000000e+00 -2.1047466e-05 0.0000000e+00 
0.0000000e+00 0.0000000e+00 0.0000000e+00 
0.0000000e+00 -2.3311737e-05 0.0000000e+00 
0.0000000e+00 0.0000000e+00 0.0000000e+00 
0.0000000e+00 0.0000000e+00 0.0000000e+00 
0.0000000e+00 0.0000000e+00 0.0000000e+00 
0.0000000e+00 -2.3311737e-05 0.0000000e+00 
0.0000000e+00 0.0000000e+00 0.0000000e+00 
0.0000000e+00 -2.1047466e-05 0.0000000e+00 
0.0000000e+00 0.0000000e+00 0.0000000e+00 
0.0000000e+00 -2.0400239e-05 0.0000000e+00 
0.0000000e+00 0.0000000e+00 0.0000000e+00 
0.0000000e+00 -2.2698239e-05 0.0000000e+00 
0.0000000e+00 0.0000000e+00 0.0000000e+00 
0.0000000e+00 -2.5014277e-05 0.0000000e+00 
0.0000000e+00 0.0000000e+00 0.0000000e+00 
0.0000000e+00 -2.5268775e-05 0.0000000e+00 
0.0000000e+00 0.0000000e+00 0.0000000e+00 
0.0000000e+00 -2.3225859e-05 0.0000000e+00 
0.0000000e+00 0.0000000e+00 0.0000000e+00 
0.0000000e+00 -1.9684656e-05 0.0000000e+00 
0.0000000e+00 0.0000000e+00 0.0000000e+00 
0.0000000e+00 -1.5623305e-05 0.0000000e+00 
0.0000000e+00 0.0000000e+00 0.0000000e+00 
0.0000000e+00 0.0000000e+00 0.0000000e+00 
0.0000000e+00 -1.5623305e-05 0.0000000e+00 
0.0000000e+00 0.0000000e+00 0.0000000e+00 
0.0000000e+00 -1.9684656e-05 0.0000000e+00 
0.0000000e+00 0.0000000e+00 0.0000000e+00 
0.0000000e+00 -2.3225859e-05 0.0000000e+00 
0.0000000e+00 0.0000000e+00 0.0000000e+00 
0.0000000e+00 -2.5268775e-05 0.0000000e+00 
0.0000000e+00 0.0000000e+00 0.0000000e+00 
0.0000000e+00 -2.5014277e-05 0.0000000e+00 
0.0000000e+00 0.0000000e+00 0.0000000e+00 
0.0000000e+00 -2.2698239e-05 0.0000000e+00 
0.0000000e+00 0.0000000e+00 0.0000000e+00 
0.0000000e+00 -2.0400239e-05 0.0000000e+00 
0.0000000e+00 0.0000000e+00 0.0000000e+00 
0.0000000e+00 -2.1047466e-05 0.0000000e+00 
0.0000000e+00 0.0000000e+00 0.0000000e+00 
0.0000000e+00 -2.3311737e-05 0.0000000e+00 
0.0000000e+00 0.0000000e+00 0.0000000e+00 
0.0000000e+00 0.0000000e+00 0.0000000e+00 
0.0000000e+00 0.0000000e+00 0.0000000e+00 
0.0000000e+00 0.0000000e+00 0.0000000e+00 
0.0000000e+00 0.0000000e+00 0.0000000e+00 
0.0000000e+00 0.0000000e+00 0.0000000e+00 
0.0000000e+00 0.0000000e+00 0.0000000e+00 
0.0000000e+00 0.0000000e+00 0.0000000e+00 
0.0000000e+00 0.0000000e+00 0.0000000e+00 
0.0000000e+00 0.0000000e+00 0.0000000e+00 
0.0000000e+00 0.0000000e+00 0.0000000e+00 
0.0000000e+00 0.0000000e+00 0.0000000e+00 
0.0000000e+00 0.0000000e+00 0.0000000e+00 
0.0000000e+00 0.0000000e+00 0.0000000e+00 
0.0000000e+00 0.0000000e+00 0.0000000e+00 
0.0000000e+00 0.0000000e+00 0.0000000e+00 
0.0000000e+00 0.0000000e+00 0.0000000e+00 
0.0000000e+00 0.0000000e+00 0.0000000e+00 
0.0000000e+00 0.0000000e+00 0.0000000e+00 
0.0000000e+00 0.0000000e+00 0.0000000e+00 
0.0000000e+00 0.0000000e+00 0.0000000e+00 
CELL_DATA 10
FIELD FieldData 0
