# vtk DataFile Version 4.0
vtk output
ASCII
DATASET UNSTRUCTURED_GRID
POINTS 189 float
0.0000000e+00 0.0000000e+00 0.0000000e+00 
1.0000000e+00 0.0000000e+00 0.0000000e+00 
1.0000000e+00 1.0000000e+01 0.0000000e+00 
0.0000000e+00 1.0000000e+01 0.0000000e+00 
0.0000000e+00 0.0000000e+00 1.0000000e+00 
1.0000000e+00 0.0000000e+00 1.0000000e+00 
1.0000000e+00 1.0000000e+01 1.0000000e+00 
0.0000000e+00 1.0000000e+01 1.0000000e+00 
5.0000000e-01 0.0000000e+00 0.0000000e+00 
1.0000000e+00 1.0000000e+00 0.0000000e+00 
1.0000000e+00 2.0000000e+00 0.0000000e+00 
1.0000000e+00 3.0000000e+00 0.0000000e+00 
1.0000000e+00 4.0000000e+00 0.0000000e+00 
1.0000000e+00 5.0000000e+00 0.0000000e+00 
1.0000000e+00 6.0000000e+00 0.0000000e+00 
1.0000000e+00 7.0000000e+00 0.0000000e+00 
1.0000000e+00 8.0000000e+00 0.0000000e+00 
1.0000000e+00 9.0000000e+00 0.0000000e+00 
1.0000000e+00 5.0000000e-01 0.0000000e+00 
1.0000000e+00 1.5000000e+00 0.0000000e+00 
1.0000000e+00 2.5000000e+00 0.0000000e+00 
1.0000000e+00 3.5000000e+00 0.0000000e+00 
1.0000000e+00 4.5000000e+00 0.0000000e+00 
1.0000000e+00 5.5000000e+00 0.0000000e+00 
1.0000000e+00 6.5000000e+00 0.0000000e+00 
1.0000000e+00 7.5000000e+00 0.0000000e+00 
1.0000000e+00 8.5000000e+00 0.0000000e+00 
1.0000000e+00 9.5000000e+00 0.0000000e+00 
5.0000000e-01 1.0000000e+01 0.0000000e+00 
0.0000000e+00 9.0000000e+00 0.0000000e+00 
0.0000000e+00 8.0000000e+00 0.0000000e+00 
0.0000000e+00 7.0000000e+00 0.0000000e+00 
0.0000000e+00 6.0000000e+00 0.0000000e+00 
0.0000000e+00 5.0000000e+00 0.0000000e+00 
0.0000000e+00 4.0000000e+00 0.0000000e+00 
0.0000000e+00 3.0000000e+00 0.0000000e+00 
0.0000000e+00 2.0000000e+00 0.0000000e+00 
0.0000000e+00 1.0000000e+00 0.0000000e+00 
0.0000000e+00 9.5000000e+00 0.0000000e+00 
0.0000000e+00 8.5000000e+00 0.0000000e+00 
0.0000000e+00 7.5000000e+00 0.0000000e+00 
0.0000000e+00 6.5000000e+00 0.0000000e+00 
0.0000000e+00 5.5000000e+00 0.0000000e+00 
0.0000000e+00 4.5000000e+00 0.0000000e+00 
0.0000000e+00 3.5000000e+00 0.0000000e+00 
0.0000000e+00 2.5000000e+00 0.0000000e+00 
0.0000000e+00 1.5000000e+00 0.0000000e+00 
0.0000000e+00 5.0000000e-01 0.0000000e+00 
0.0000000e+00 0.0000000e+00 5.0000000e-01 
1.0000000e+00 0.0000000e+00 5.0000000e-01 
5.0000000e-01 0.0000000e+00 1.0000000e+00 
1.0000000e+00 1.0000000e+01 5.0000000e-01 
1.0000000e+00 1.0000000e+00 1.0000000e+00 
1.0000000e+00 2.0000000e+00 1.0000000e+00 
1.0000000e+00 3.0000000e+00 1.0000000e+00 
1.0000000e+00 4.0000000e+00 1.0000000e+00 
1.0000000e+00 5.0000000e+00 1.0000000e+00 
1.0000000e+00 6.0000000e+00 1.0000000e+00 
1.0000000e+00 7.0000000e+00 1.0000000e+00 
1.0000000e+00 8.0000000e+00 1.0000000e+00 
1.0000000e+00 9.0000000e+00 1.0000000e+00 
1.0000000e+00 5.0000000e-01 1.0000000e+00 
1.0000000e+00 1.5000000e+00 1.0000000e+00 
1.0000000e+00 2.5000000e+00 1.0000000e+00 
1.0000000e+00 3.5000000e+00 1.0000000e+00 
1.0000000e+00 4.5000000e+00 1.0000000e+00 
1.0000000e+00 5.5000000e+00 1.0000000e+00 
1.0000000e+00 6.5000000e+00 1.0000000e+00 
1.0000000e+00 7.5000000e+00 1.0000000e+00 
1.0000000e+00 8.5000000e+00 1.0000000e+00 
1.0000000e+00 9.5000000e+00 1.0000000e+00 
0.0000000e+00 1.0000000e+01 5.0000000e-01 
5.0000000e-01 1.0000000e+01 1.0000000e+00 
0.0000000e+00 9.0000000e+00 1.0000000e+00 
0.0000000e+00 8.0000000e+00 1.0000000e+00 
0.0000000e+00 7.0000000e+00 1.0000000e+00 
0.0000000e+00 6.0000000e+00 1.0000000e+00 
0.0000000e+00 5.0000000e+00 1.0000000e+00 
0.0000000e+00 4.0000000e+00 1.0000000e+00 
0.0000000e+00 3.0000000e+00 1.0000000e+00 
0.0000000e+00 2.0000000e+00 1.0000000e+00 
0.0000000e+00 1.0000000e+00 1.0000000e+00 
0.0000000e+00 9.5000000e+00 1.0000000e+00 
0.0000000e+00 8.5000000e+00 1.0000000e+00 
0.0000000e+00 7.5000000e+00 1.0000000e+00 
0.0000000e+00 6.5000000e+00 1.0000000e+00 
0.0000000e+00 5.5000000e+00 1.0000000e+00 
0.0000000e+00 4.5000000e+00 1.0000000e+00 
0.0000000e+00 3.5000000e+00 1.0000000e+00 
0.0000000e+00 2.5000000e+00 1.0000000e+00 
0.0000000e+00 1.5000000e+00 1.0000000e+00 
0.0000000e+00 5.0000000e-01 1.0000000e+00 
5.0000000e-01 1.0000000e+00 0.0000000e+00 
5.0000000e-01 5.0000000e-01 0.0000000e+00 
5.0000000e-01 2.0000000e+00 0.0000000e+00 
5.0000000e-01 1.5000000e+00 0.0000000e+00 
5.0000000e-01 3.0000000e+00 0.0000000e+00 
5.0000000e-01 2.5000000e+00 0.0000000e+00 
5.0000000e-01 4.0000000e+00 0.0000000e+00 
5.0000000e-01 3.5000000e+00 0.0000000e+00 
5.0000000e-01 5.0000000e+00 0.0000000e+00 
5.0000000e-01 4.5000000e+00 0.0000000e+00 
5.0000000e-01 6.0000000e+00 0.0000000e+00 
5.0000000e-01 5.5000000e+00 0.0000000e+00 
5.0000000e-01 7.0000000e+00 0.0000000e+00 
5.0000000e-01 6.5000000e+00 0.0000000e+00 
5.0000000e-01 8.0000000e+00 0.0000000e+00 
5.0000000e-01 7.5000000e+00 0.0000000e+00 
5.0000000e-01 9.0000000e+00 0.0000000e+00 
5.0000000e-01 8.5000000e+00 0.0000000e+00 
5.0000000e-01 9.5000000e+00 0.0000000e+00 
5.0000000e-01 0.0000000e+00 5.0000000e-01 
1.0000000e+00 1.0000000e+00 5.0000000e-01 
1.0000000e+00 5.0000000e-01 5.0000000e-01 
1.0000000e+00 2.0000000e+00 5.0000000e-01 
1.0000000e+00 1.5000000e+00 5.0000000e-01 
1.0000000e+00 3.0000000e+00 5.0000000e-01 
1.0000000e+00 2.5000000e+00 5.0000000e-01 
1.0000000e+00 4.0000000e+00 5.0000000e-01 
1.0000000e+00 3.5000000e+00 5.0000000e-01 
1.0000000e+00 5.0000000e+00 5.0000000e-01 
1.0000000e+00 4.5000000e+00 5.0000000e-01 
1.0000000e+00 6.0000000e+00 5.0000000e-01 
1.0000000e+00 5.5000000e+00 5.0000000e-01 
1.0000000e+00 7.0000000e+00 5.0000000e-01 
1.0000000e+00 6.5000000e+00 5.0000000e-01 
1.0000000e+00 8.0000000e+00 5.0000000e-01 
1.0000000e+00 7.5000000e+00 5.0000000e-01 
1.0000000e+00 9.0000000e+00 5.0000000e-01 
1.0000000e+00 8.5000000e+00 5.0000000e-01 
1.0000000e+00 9.5000000e+00 5.0000000e-01 
5.0000000e-01 1.0000000e+01 5.0000000e-01 
0.0000000e+00 9.0000000e+00 5.0000000e-01 
0.0000000e+00 9.5000000e+00 5.0000000e-01 
0.0000000e+00 8.0000000e+00 5.0000000e-01 
0.0000000e+00 8.5000000e+00 5.0000000e-01 
0.0000000e+00 7.0000000e+00 5.0000000e-01 
0.0000000e+00 7.5000000e+00 5.0000000e-01 
0.0000000e+00 6.0000000e+00 5.0000000e-01 
0.0000000e+00 6.5000000e+00 5.0000000e-01 
0.0000000e+00 5.0000000e+00 5.0000000e-01 
0.0000000e+00 5.5000000e+00 5.0000000e-01 
0.0000000e+00 4.0000000e+00 5.0000000e-01 
0.0000000e+00 4.5000000e+00 5.0000000e-01 
0.0000000e+00 3.0000000e+00 5.0000000e-01 
0.0000000e+00 3.5000000e+00 5.0000000e-01 
0.0000000e+00 2.0000000e+00 5.0000000e-01 
0.0000000e+00 2.5000000e+00 5.0000000e-01 
0.0000000e+00 1.0000000e+00 5.0000000e-01 
0.0000000e+00 1.5000000e+00 5.0000000e-01 
0.0000000e+00 5.0000000e-01 5.0000000e-01 
5.0000000e-01 1.0000000e+00 1.0000000e+00 
5.0000000e-01 5.0000000e-01 1.0000000e+00 
5.0000000e-01 2.0000000e+00 1.0000000e+00 
5.0000000e-01 1.5000000e+00 1.0000000e+00 
5.0000000e-01 3.0000000e+00 1.0000000e+00 
5.0000000e-01 2.5000000e+00 1.0000000e+00 
5.0000000e-01 4.0000000e+00 1.0000000e+00 
5.0000000e-01 3.5000000e+00 1.0000000e+00 
5.0000000e-01 5.0000000e+00 1.0000000e+00 
5.0000000e-01 4.5000000e+00 1.0000000e+00 
5.0000000e-01 6.0000000e+00 1.0000000e+00 
5.0000000e-01 5.5000000e+00 1.0000000e+00 
5.0000000e-01 7.0000000e+00 1.0000000e+00 
5.0000000e-01 6.5000000e+00 1.0000000e+00 
5.0000000e-01 8.0000000e+00 1.0000000e+00 
5.0000000e-01 7.5000000e+00 1.0000000e+00 
5.0000000e-01 9.0000000e+00 1.0000000e+00 
5.0000000e-01 8.5000000e+00 1.0000000e+00 
5.0000000e-01 9.5000000e+00 1.0000000e+00 
5.0000000e-01 1.0000000e+00 5.0000000e-01 
5.0000000e-01 5.0000000e-01 5.0000000e-01 
5.0000000e-01 2.0000000e+00 5.0000000e-01 
5.0000000e-01 1.5000000e+00 5.0000000e-01 
5.0000000e-01 3.0000000e+00 5.0000000e-01 
5.0000000e-01 2.5000000e+00 5.0000000e-01 
5.0000000e-01 4.0000000e+00 5.0000000e-01 
5.0000000e-01 3.5000000e+00 5.0000000e-01 
5.0000000e-01 5.0000000e+00 5.0000000e-01 
5.0000000e-01 4.5000000e+00 5.0000000e-01 
5.0000000e-01 6.0000000e+00 5.0000000e-01 
5.0000000e-01 5.5000000e+00 5.0000000e-01 
5.0000000e-01 7.0000000e+00 5.0000000e-01 
5.0000000e-01 6.5000000e+00 5.0000000e-01 
5.0000000e-01 8.0000000e+00 5.0000000e-01 
5.0000000e-01 7.5000000e+00 5.0000000e-01 
5.0000000e-01 9.0000000e+00 5.0000000e-01 
5.0000000e-01 8.5000000e+00 5.0000000e-01 
5.0000000e-01 9.5000000e+00 5.0000000e-01 

CELLS 10 210
20 0 1 9 37 4 5 52 81 8 18 92 47 50 61 151 91 48 49 112 148
20 37 9 10 36 81 52 53 80 92 19 94 46 151 62 153 90 148 112 114 146
20 36 10 11 35 80 53 54 79 94 20 96 45 153 63 155 89 146 114 116 144
20 35 11 12 34 79 54 55 78 96 21 98 44 155 64 157 88 144 116 118 142
20 34 12 13 33 78 55 56 77 98 22 100 43 157 65 159 87 142 118 120 140
20 33 13 14 32 77 56 57 76 100 23 102 42 159 66 161 86 140 120 122 138
20 32 14 15 31 76 57 58 75 102 24 104 41 161 67 163 85 138 122 124 136
20 31 15 16 30 75 58 59 74 104 25 106 40 163 68 165 84 136 124 126 134
20 30 16 17 29 74 59 60 73 106 26 108 39 165 69 167 83 134 126 128 132
20 29 17 2 3 73 60 6 7 108 27 28 38 167 70 72 82 132 128 51 71

CELL_TYPES 10
25
25
25
25
25
25
25
25
25
25
POINT_DATA 189
FIELD FieldData 2
DISPLACEMENT 3 189  float
0.0000000e+00 -3.3059400e-06 0.0000000e+00 
0.0000000e+00 -3.3059400e-06 0.0000000e+00 
0.0000000e+00 -4.2132524e-06 0.0000000e+00 
0.0000000e+00 -4.2132524e-06 0.0000000e+00 
0.0000000e+00 -3.3059400e-06 0.0000000e+00 
0.0000000e+00 -3.3059400e-06 0.0000000e+00 
0.0000000e+00 -4.2132524e-06 0.0000000e+00 
0.0000000e+00 -4.2132524e-06 0.0000000e+00 
0.0000000e+00 -3.3059400e-06 0.0000000e+00 
0.0000000e+00 -3.3975971e-06 0.0000000e+00 
0.0000000e+00 -3.4888574e-06 0.0000000e+00 
0.0000000e+00 -3.5798257e-06 0.0000000e+00 
0.0000000e+00 -3.6708486e-06 0.0000000e+00 
0.0000000e+00 -3.7614986e-06 0.0000000e+00 
0.0000000e+00 -3.8519552e-06 0.0000000e+00 
0.0000000e+00 -3.9424422e-06 0.0000000e+00 
0.0000000e+00 -4.0328559e-06 0.0000000e+00 
0.0000000e+00 -4.1231451e-06 0.0000000e+00 
0.0000000e+00 -3.3517872e-06 0.0000000e+00 
0.0000000e+00 -3.4432908e-06 0.0000000e+00 
0.0000000e+00 -3.5343433e-06 0.0000000e+00 
0.0000000e+00 -3.6253466e-06 0.0000000e+00 
0.0000000e+00 -3.7162392e-06 0.0000000e+00 
0.0000000e+00 -3.8067042e-06 0.0000000e+00 
0.0000000e+00 -3.8972389e-06 0.0000000e+00 
0.0000000e+00 -3.9876250e-06 0.0000000e+00 
0.0000000e+00 -4.0780124e-06 0.0000000e+00 
0.0000000e+00 -4.1682429e-06 0.0000000e+00 
0.0000000e+00 -4.2132524e-06 0.0000000e+00 
0.0000000e+00 -4.1231451e-06 0.0000000e+00 
0.0000000e+00 -4.0328559e-06 0.0000000e+00 
0.0000000e+00 -3.9424422e-06 0.0000000e+00 
0.0000000e+00 -3.8519552e-06 0.0000000e+00 
0.0000000e+00 -3.7614986e-06 0.0000000e+00 
0.0000000e+00 -3.6708486e-06 0.0000000e+00 
0.0000000e+00 -3.5798257e-06 0.0000000e+00 
0.0000000e+00 -3.4888574e-06 0.0000000e+00 
0.0000000e+00 -3.3975971e-06 0.0000000e+00 
0.0000000e+00 -4.1682429e-06 0.0000000e+00 
0.0000000e+00 -4.0780124e-06 0.0000000e+00 
0.0000000e+00 -3.9876250e-06 0.0000000e+00 
0.0000000e+00 -3.8972389e-06 0.0000000e+00 
0.0000000e+00 -3.8067042e-06 0.0000000e+00 
0.0000000e+00 -3.7162392e-06 0.0000000e+00 
0.0000000e+00 -3.6253466e-06 0.0000000e+00 
0.0000000e+00 -3.5343433e-06 0.0000000e+00 
0.0000000e+00 -3.4432908e-06 0.0000000e+00 
0.0000000e+00 -3.3517872e-06 0.0000000e+00 
0.0000000e+00 -3.3059400e-06 0.0000000e+00 
0.0000000e+00 -3.3059400e-06 0.0000000e+00 
0.0000000e+00 -3.3059400e-06 0.0000000e+00 
0.0000000e+00 -4.2132524e-06 0.0000000e+00 
0.0000000e+00 -3.3975971e-06 0.0000000e+00 
0.0000000e+00 -3.4888574e-06 0.0000000e+00 
0.0000000e+00 -3.5798257e-06 0.0000000e+00 
0.0000000e+00 -3.6708486e-06 0.0000000e+00 
0.0000000e+00 -3.7614986e-06 0.0000000e+00 
0.0000000e+00 -3.8519552e-06 0.0000000e+00 
0.0000000e+00 -3.9424422e-06 0.0000000e+00 
0.0000000e+00 -4.0328559e-06 0.0000000e+00 
0.0000000e+00 -4.1231451e-06 0.0000000e+00 
0.0000000e+00 -3.3517872e-06 0.0000000e+00 
0.0000000e+00 -3.4432908e-06 0.0000000e+00 
0.0000000e+00 -3.5343433e-06 0.0000000e+00 
0.0000000e+00 -3.6253466e-06 0.0000000e+00 
0.0000000e+00 -3.7162392e-06 0.0000000e+00 
0.0000000e+00 -3.8067042e-06 0.0000000e+00 
0.0000000e+00 -3.8972389e-06 0.0000000e+00 
0.0000000e+00 -3.9876250e-06 0.0000000e+00 
0.0000000e+00 -4.0780124e-06 0.0000000e+00 
0.0000000e+00 -4.1682429e-06 0.0000000e+00 
0.0000000e+00 -4.2132524e-06 0.0000000e+00 
0.0000000e+00 -4.2132524e-06 0.0000000e+00 
0.0000000e+00 -4.1231451e-06 0.0000000e+00 
0.0000000e+00 -4.0328559e-06 0.0000000e+00 
0.0000000e+00 -3.9424422e-06 0.0000000e+00 
0.0000000e+00 -3.8519552e-06 0.0000000e+00 
0.0000000e+00 -3.7614986e-06 0.0000000e+00 
0.0000000e+00 -3.6708486e-06 0.0000000e+00 
0.0000000e+00 -3.5798257e-06 0.0000000e+00 
0.0000000e+00 -3.4888574e-06 0.0000000e+00 
0.0000000e+00 -3.3975971e-06 0.0000000e+00 
0.0000000e+00 -4.1682429e-06 0.0000000e+00 
0.0000000e+00 -4.0780124e-06 0.0000000e+00 
0.0000000e+00 -3.9876250e-06 0.0000000e+00 
0.0000000e+00 -3.8972389e-06 0.0000000e+00 
0.0000000e+00 -3.8067042e-06 0.0000000e+00 
0.0000000e+00 -3.7162392e-06 0.0000000e+00 
0.0000000e+00 -3.6253466e-06 0.0000000e+00 
0.0000000e+00 -3.5343433e-06 0.0000000e+00 
0.0000000e+00 -3.4432908e-06 0.0000000e+00 
0.0000000e+00 -3.3517872e-06 0.0000000e+00 
0.0000000e+00 -3.3975971e-06 0.0000000e+00 
0.0000000e+00 0.0000000e+00 0.0000000e+00 
0.0000000e+00 -3.4888574e-06 0.0000000e+00 
0.0000000e+00 0.0000000e+00 0.0000000e+00 
0.0000000e+00 -3.5798257e-06 0.0000000e+00 
0.0000000e+00 0.0000000e+00 0.0000000e+00 
0.0000000e+00 -3.6708486e-06 0.0000000e+00 
0.0000000e+00 0.0000000e+00 0.0000000e+00 
0.0000000e+00 -3.7614986e-06 0.0000000e+00 
0.0000000e+00 0.0000000e+00 0.0000000e+00 
0.0000000e+00 -3.8519552e-06 0.0000000e+00 
0.0000000e+00 0.0000000e+00 0.0000000e+00 
0.0000000e+00 -3.9424422e-06 0.0000000e+00 
0.0000000e+00 0.0000000e+00 0.0000000e+00 
0.0000000e+00 -4.0328559e-06 0.0000000e+00 
0.0000000e+00 0.0000000e+00 0.0000000e+00 
0.0000000e+00 -4.1231451e-06 0.0000000e+00 
0.0000000e+00 0.0000000e+00 0.0000000e+00 
0.0000000e+00 0.0000000e+00 0.0000000e+00 
0.0000000e+00 0.0000000e+00 0.0000000e+00 
0.0000000e+00 -3.3975971e-06 0.0000000e+00 
0.0000000e+00 0.0000000e+00 0.0000000e+00 
0.0000000e+00 -3.4888574e-06 0.0000000e+00 
0.0000000e+00 0.0000000e+00 0.0000000e+00 
0.0000000e+00 -3.5798257e-06 0.0000000e+00 
0.0000000e+00 0.0000000e+00 0.0000000e+00 
0.0000000e+00 -3.6708486e-06 0.0000000e+00 
0.0000000e+00 0.0000000e+00 0.0000000e+00 
0.0000000e+00 -3.7614986e-06 0.0000000e+00 
0.0000000e+00 0.0000000e+00 0.0000000e+00 
0.0000000e+00 -3.8519552e-06 0.0000000e+00 
0.0000000e+00 0.0000000e+00 0.0000000e+00 
0.0000000e+00 -3.9424422e-06 0.0000000e+00 
0.0000000e+00 0.0000000e+00 0.0000000e+00 
0.0000000e+00 -4.0328559e-06 0.0000000e+00 
0.0000000e+00 0.0000000e+00 0.0000000e+00 
0.0000000e+00 -4.1231451e-06 0.0000000e+00 
0.0000000e+00 0.0000000e+00 0.0000000e+00 
0.0000000e+00 0.0000000e+00 0.0000000e+00 
0.0000000e+00 0.0000000e+00 0.0000000e+00 
0.0000000e+00 -4.1231451e-06 0.0000000e+00 
0.0000000e+00 0.0000000e+00 0.0000000e+00 
0.0000000e+00 -4.0328559e-06 0.0000000e+00 
0.0000000e+00 0.0000000e+00 0.0000000e+00 
0.0000000e+00 -3.9424422e-06 0.0000000e+00 
0.0000000e+00 0.0000000e+00 0.0000000e+00 
0.0000000e+00 -3.8519552e-06 0.0000000e+00 
0.0000000e+00 0.0000000e+00 0.0000000e+00 
0.0000000e+00 -3.7614986e-06 0.0000000e+00 
0.0000000e+00 0.0000000e+00 0.0000000e+00 
0.0000000e+00 -3.6708486e-06 0.0000000e+00 
0.0000000e+00 0.0000000e+00 0.0000000e+00 
0.0000000e+00 -3.5798257e-06 0.0000000e+00 
0.0000000e+00 0.0000000e+00 0.0000000e+00 
0.0000000e+00 -3.4888574e-06 0.0000000e+00 
0.0000000e+00 0.0000000e+00 0.0000000e+00 
0.0000000e+00 -3.3975971e-06 0.0000000e+00 
0.0000000e+00 0.0000000e+00 0.0000000e+00 
0.0000000e+00 0.0000000e+00 0.0000000e+00 
0.0000000e+00 -3.3975971e-06 0.0000000e+00 
0.0000000e+00 0.0000000e+00 0.0000000e+00 
0.0000000e+00 -3.4888574e-06 0.0000000e+00 
0.0000000e+00 0.0000000e+00 0.0000000e+00 
0.0000000e+00 -3.5798257e-06 0.0000000e+00 
0.0000000e+00 0.0000000e+00 0.0000000e+00 
0.0000000e+00 -3.6708486e-06 0.0000000e+00 
0.0000000e+00 0.0000000e+00 0.0000000e+00 
0.0000000e+00 -3.7614986e-06 0.0000000e+00 
0.0000000e+00 0.0000000e+00 0.0000000e+00 
0.0000000e+00 -3.8519552e-06 0.0000000e+00 
0.0000000e+00 0.0000000e+00 0.0000000e+00 
0.0000000e+00 -3.9424422e-06 0.0000000e+00 
0.0000000e+00 0.0000000e+00 0.0000000e+00 
0.0000000e+00 -4.0328559e-06 0.0000000e+00 
0.0000000e+00 0.0000000e+00 0.0000000e+00 
0.0000000e+00 -4.1231451e-06 0.0000000e+00 
0.0000000e+00 0.0000000e+00 0.0000000e+00 
0.0000000e+00 0.0000000e+00 0.0000000e+00 
0.0000000e+00 0.0000000e+00 0.0000000e+00 
0.0000000e+00 0.0000000e+00 0.0000000e+00 
0.0000000e+00 0.0000000e+00 0.0000000e+00 
0.0000000e+00 0.0000000e+00 0.0000000e+00 
0.0000000e+00 0.0000000e+00 0.0000000e+00 
0.0000000e+00 0.0000000e+00 0.0000000e+00 
0.0000000e+00 0.0000000e+00 0.0000000e+00 
0.0000000e+00 0.0000000e+00 0.0000000e+00 
0.0000000e+00 0.0000000e+00 0.0000000e+00 
0.0000000e+00 0.0000000e+00 0.0000000e+00 
0.0000000e+00 0.0000000e+00 0.0000000e+00 
0.0000000e+00 0.0000000e+00 0.0000000e+00 
0.0000000e+00 0.0000000e+00 0.0000000e+00 
0.0000000e+00 0.0000000e+00 0.0000000e+00 
0.0000000e+00 0.0000000e+00 0.0000000e+00 
0.0000000e+00 0.0000000e+00 0.0000000e+00 
0.0000000e+00 0.0000000e+00 0.0000000e+00 
0.0000000e+00 0.0000000e+00 0.0000000e+00 
0.0000000e+00 0.0000000e+00 0.0000000e+00 
VELOCITY 3 189  float
0.0000000e+00 -2.0838548e-05 0.0000000e+00 
0.0000000e+00 -2.0838548e-05 0.0000000e+00 
0.0000000e+00 -2.0817766e-05 0.0000000e+00 
0.0000000e+00 -2.0817766e-05 0.0000000e+00 
0.0000000e+00 -2.0838548e-05 0.0000000e+00 
0.0000000e+00 -2.0838548e-05 0.0000000e+00 
0.0000000e+00 -2.0817766e-05 0.0000000e+00 
0.0000000e+00 -2.0817766e-05 0.0000000e+00 
0.0000000e+00 -2.0838548e-05 0.0000000e+00 
0.0000000e+00 -2.0817235e-05 0.0000000e+00 
0.0000000e+00 -2.0711925e-05 0.0000000e+00 
0.0000000e+00 -2.0750558e-05 0.0000000e+00 
0.0000000e+00 -2.0763055e-05 0.0000000e+00 
0.0000000e+00 -2.0691998e-05 0.0000000e+00 
0.0000000e+00 -2.0767513e-05 0.0000000e+00 
0.0000000e+00 -2.0679499e-05 0.0000000e+00 
0.0000000e+00 -2.0708945e-05 0.0000000e+00 
0.0000000e+00 -2.0779489e-05 0.0000000e+00 
0.0000000e+00 -2.0852238e-05 0.0000000e+00 
0.0000000e+00 -2.0756424e-05 0.0000000e+00 
0.0000000e+00 -2.0714835e-05 0.0000000e+00 
0.0000000e+00 -2.0777443e-05 0.0000000e+00 
0.0000000e+00 -2.0715814e-05 0.0000000e+00 
0.0000000e+00 -2.0728125e-05 0.0000000e+00 
0.0000000e+00 -2.0734735e-05 0.0000000e+00 
0.0000000e+00 -2.0766312e-05 0.0000000e+00 
0.0000000e+00 -2.0743311e-05 0.0000000e+00 
0.0000000e+00 -2.0720337e-05 0.0000000e+00 
0.0000000e+00 -2.0817766e-05 0.0000000e+00 
0.0000000e+00 -2.0779489e-05 0.0000000e+00 
0.0000000e+00 -2.0708945e-05 0.0000000e+00 
0.0000000e+00 -2.0679499e-05 0.0000000e+00 
0.0000000e+00 -2.0767513e-05 0.0000000e+00 
0.0000000e+00 -2.0691998e-05 0.0000000e+00 
0.0000000e+00 -2.0763055e-05 0.0000000e+00 
0.0000000e+00 -2.0750558e-05 0.0000000e+00 
0.0000000e+00 -2.0711925e-05 0.0000000e+00 
0.0000000e+00 -2.0817235e-05 0.0000000e+00 
0.0000000e+00 -2.0720337e-05 0.0000000e+00 
0.0000000e+00 -2.0743311e-05 0.0000000e+00 
0.0000000e+00 -2.0766312e-05 0.0000000e+00 
0.0000000e+00 -2.0734735e-05 0.0000000e+00 
0.0000000e+00 -2.0728125e-05 0.0000000e+00 
0.0000000e+00 -2.0715814e-05 0.0000000e+00 
0.0000000e+00 -2.0777443e-05 0.0000000e+00 
0.0000000e+00 -2.0714835e-05 0.0000000e+00 
0.0000000e+00 -2.0756424e-05 0.0000000e+00 
0.0000000e+00 -2.0852238e-05 0.0000000e+00 
0.0000000e+00 -2.0838548e-05 0.0000000e+00 
0.0000000e+00 -2.0838548e-05 0.0000000e+00 
0.0000000e+00 -2.0838548e-05 0.0000000e+00 
0.0000000e+00 -2.0817766e-05 0.0000000e+00 
0.0000000e+00 -2.0817235e-05 0.0000000e+00 
0.0000000e+00 -2.0711925e-05 0.0000000e+00 
0.0000000e+00 -2.0750558e-05 0.0000000e+00 
0.0000000e+00 -2.0763055e-05 0.0000000e+00 
0.0000000e+00 -2.0691998e-05 0.0000000e+00 
0.0000000e+00 -2.0767513e-05 0.0000000e+00 
0.0000000e+00 -2.0679499e-05 0.0000000e+00 
0.0000000e+00 -2.0708945e-05 0.0000000e+00 
0.0000000e+00 -2.0779489e-05 0.0000000e+00 
0.0000000e+00 -2.0852238e-05 0.0000000e+00 
0.0000000e+00 -2.0756424e-05 0.0000000e+00 
0.0000000e+00 -2.0714835e-05 0.0000000e+00 
0.0000000e+00 -2.0777443e-05 0.0000000e+00 
0.0000000e+00 -2.0715814e-05 0.0000000e+00 
0.0000000e+00 -2.0728125e-05 0.0000000e+00 
0.0000000e+00 -2.0734735e-05 0.0000000e+00 
0.0000000e+00 -2.0766312e-05 0.0000000e+00 
0.0000000e+00 -2.0743311e-05 0.0000000e+00 
0.0000000e+00 -2.0720337e-05 0.0000000e+00 
0.0000000e+00 -2.0817766e-05 0.0000000e+00 
0.0000000e+00 -2.0817766e-05 0.0000000e+00 
0.0000000e+00 -2.0779489e-05 0.0000000e+00 
0.0000000e+00 -2.0708945e-05 0.0000000e+00 
0.0000000e+00 -2.0679499e-05 0.0000000e+00 
0.0000000e+00 -2.0767513e-05 0.0000000e+00 
0.0000000e+00 -2.0691998e-05 0.0000000e+00 
0.0000000e+00 -2.0763055e-05 0.0000000e+00 
0.0000000e+00 -2.0750558e-05 0.0000000e+00 
0.0000000e+00 -2.0711925e-05 0.0000000e+00 
0.0000000e+00 -2.0817235e-05 0.0000000e+00 
0.0000000e+00 -2.0720337e-05 0.0000000e+00 
0.0000000e+00 -2.0743311e-05 0.0000000e+00 
0.0000000e+00 -2.0766312e-05 0.0000000e+00 
0.0000000e+00 -2.0734735e-05 0.0000000e+00 
0.0000000e+00 -2.0728125e-05 0.0000000e+00 
0.0000000e+00 -2.0715814e-05 0.0000000e+00 
0.0000000e+00 -2.0777443e-05 0.0000000e+00 
0.0000000e+00 -2.0714835e-05 0.0000000e+00 
0.0000000e+00 -2.0756424e-05 0.0000000e+00 
0.0000000e+00 -2.0852238e-05 0.0000000e+00 
0.0000000e+00 -2.0817235e-05 0.0000000e+00 
0.0000000e+00 0.0000000e+00 0.0000000e+00 
0.0000000e+00 -2.0711925e-05 0.0000000e+00 
0.0000000e+00 0.0000000e+00 0.0000000e+00 
0.0000000e+00 -2.0750558e-05 0.0000000e+00 
0.0000000e+00 0.0000000e+00 0.0000000e+00 
0.0000000e+00 -2.0763055e-05 0.0000000e+00 
0.0000000e+00 0.0000000e+00 0.0000000e+00 
0.0000000e+00 -2.0691998e-05 0.0000000e+00 
0.0000000e+00 0.0000000e+00 0.0000000e+00 
0.0000000e+00 -2.0767513e-05 0.0000000e+00 
0.0000000e+00 0.0000000e+00 0.0000000e+00 
0.0000000e+00 -2.0679499e-05 0.0000000e+00 
0.0000000e+00 0.0000000e+00 0.0000000e+00 
0.0000000e+00 -2.0708945e-05 0.0000000e+00 
0.0000000e+00 0.0000000e+00 0.0000000e+00 
0.0000000e+00 -2.0779489e-05 0.0000000e+00 
0.0000000e+00 0.0000000e+00 0.0000000e+00 
0.0000000e+00 0.0000000e+00 0.0000000e+00 
0.0000000e+00 0.0000000e+00 0.0000000e+00 
0.0000000e+00 -2.0817235e-05 0.0000000e+00 
0.0000000e+00 0.0000000e+00 0.0000000e+00 
0.0000000e+00 -2.0711925e-05 0.0000000e+00 
0.0000000e+00 0.0000000e+00 0.0000000e+00 
0.0000000e+00 -2.0750558e-05 0.0000000e+00 
0.0000000e+00 0.0000000e+00 0.0000000e+00 
0.0000000e+00 -2.0763055e-05 0.0000000e+00 
0.0000000e+00 0.0000000e+00 0.0000000e+00 
0.0000000e+00 -2.0691998e-05 0.0000000e+00 
0.0000000e+00 0.0000000e+00 0.0000000e+00 
0.0000000e+00 -2.0767513e-05 0.0000000e+00 
0.0000000e+00 0.0000000e+00 0.0000000e+00 
0.0000000e+00 -2.0679499e-05 0.0000000e+00 
0.0000000e+00 0.0000000e+00 0.0000000e+00 
0.0000000e+00 -2.0708945e-05 0.0000000e+00 
0.0000000e+00 0.0000000e+00 0.0000000e+00 
0.0000000e+00 -2.0779489e-05 0.0000000e+00 
0.0000000e+00 0.0000000e+00 0.0000000e+00 
0.0000000e+00 0.0000000e+00 0.0000000e+00 
0.0000000e+00 0.0000000e+00 0.0000000e+00 
0.0000000e+00 -2.0779489e-05 0.0000000e+00 
0.0000000e+00 0.0000000e+00 0.0000000e+00 
0.0000000e+00 -2.0708945e-05 0.0000000e+00 
0.0000000e+00 0.0000000e+00 0.0000000e+00 
0.0000000e+00 -2.0679499e-05 0.0000000e+00 
0.0000000e+00 0.0000000e+00 0.0000000e+00 
0.0000000e+00 -2.0767513e-05 0.0000000e+00 
0.0000000e+00 0.0000000e+00 0.0000000e+00 
0.0000000e+00 -2.0691998e-05 0.0000000e+00 
0.0000000e+00 0.0000000e+00 0.0000000e+00 
0.0000000e+00 -2.0763055e-05 0.0000000e+00 
0.0000000e+00 0.0000000e+00 0.0000000e+00 
0.0000000e+00 -2.0750558e-05 0.0000000e+00 
0.0000000e+00 0.0000000e+00 0.0000000e+00 
0.0000000e+00 -2.0711925e-05 0.0000000e+00 
0.0000000e+00 0.0000000e+00 0.0000000e+00 
0.0000000e+00 -2.0817235e-05 0.0000000e+00 
0.0000000e+00 0.0000000e+00 0.0000000e+00 
0.0000000e+00 0.0000000e+00 0.0000000e+00 
0.0000000e+00 -2.0817235e-05 0.0000000e+00 
0.0000000e+00 0.0000000e+00 0.0000000e+00 
0.0000000e+00 -2.0711925e-05 0.0000000e+00 
0.0000000e+00 0.0000000e+00 0.0000000e+00 
0.0000000e+00 -2.0750558e-05 0.0000000e+00 
0.0000000e+00 0.0000000e+00 0.0000000e+00 
0.0000000e+00 -2.0763055e-05 0.0000000e+00 
0.0000000e+00 0.0000000e+00 0.0000000e+00 
0.0000000e+00 -2.0691998e-05 0.0000000e+00 
0.0000000e+00 0.0000000e+00 0.0000000e+00 
0.0000000e+00 -2.0767513e-05 0.0000000e+00 
0.0000000e+00 0.0000000e+00 0.0000000e+00 
0.0000000e+00 -2.0679499e-05 0.0000000e+00 
0.0000000e+00 0.0000000e+00 0.0000000e+00 
0.0000000e+00 -2.0708945e-05 0.0000000e+00 
0.0000000e+00 0.0000000e+00 0.0000000e+00 
0.0000000e+00 -2.0779489e-05 0.0000000e+00 
0.0000000e+00 0.0000000e+00 0.0000000e+00 
0.0000000e+00 0.0000000e+00 0.0000000e+00 
0.0000000e+00 0.0000000e+00 0.0000000e+00 
0.0000000e+00 0.0000000e+00 0.0000000e+00 
0.0000000e+00 0.0000000e+00 0.0000000e+00 
0.0000000e+00 0.0000000e+00 0.0000000e+00 
0.0000000e+00 0.0000000e+00 0.0000000e+00 
0.0000000e+00 0.0000000e+00 0.0000000e+00 
0.0000000e+00 0.0000000e+00 0.0000000e+00 
0.0000000e+00 0.0000000e+00 0.0000000e+00 
0.0000000e+00 0.0000000e+00 0.0000000e+00 
0.0000000e+00 0.0000000e+00 0.0000000e+00 
0.0000000e+00 0.0000000e+00 0.0000000e+00 
0.0000000e+00 0.0000000e+00 0.0000000e+00 
0.0000000e+00 0.0000000e+00 0.0000000e+00 
0.0000000e+00 0.0000000e+00 0.0000000e+00 
0.0000000e+00 0.0000000e+00 0.0000000e+00 
0.0000000e+00 0.0000000e+00 0.0000000e+00 
0.0000000e+00 0.0000000e+00 0.0000000e+00 
0.0000000e+00 0.0000000e+00 0.0000000e+00 
0.0000000e+00 0.0000000e+00 0.0000000e+00 
CELL_DATA 10
FIELD FieldData 0
