# vtk DataFile Version 4.0
vtk output
ASCII
DATASET UNSTRUCTURED_GRID
POINTS 661 float
0.0000000e+00 0.0000000e+00 0.0000000e+00 
0.0000000e+00 0.0000000e+00 4.0000000e+01 
5.0000000e+00 0.0000000e+00 0.0000000e+00 
5.0000000e+00 0.0000000e+00 4.0000000e+01 
5.0000000e+00 1.0000000e+00 0.0000000e+00 
5.0000000e+00 1.0000000e+00 4.0000000e+01 
0.0000000e+00 1.0000000e+00 0.0000000e+00 
0.0000000e+00 1.0000000e+00 4.0000000e+01 
5.0000000e+00 2.0000000e+00 0.0000000e+00 
5.0000000e+00 2.0000000e+00 4.0000000e+01 
3.0000000e+00 2.0000000e+00 0.0000000e+00 
3.0000000e+00 2.0000000e+00 4.0000000e+01 
0.0000000e+00 2.0000000e+00 0.0000000e+00 
0.0000000e+00 2.0000000e+00 4.0000000e+01 
1.5000000e+00 3.0000000e+00 0.0000000e+00 
1.5000000e+00 3.0000000e+00 4.0000000e+01 
7.5000000e-01 3.0000000e+00 0.0000000e+00 
7.5000000e-01 3.0000000e+00 4.0000000e+01 
0.0000000e+00 3.0000000e+00 0.0000000e+00 
0.0000000e+00 3.0000000e+00 4.0000000e+01 
7.5000000e-01 3.0000000e+00 5.0000000e-01 
7.5000000e-01 3.0000000e+00 1.0000000e+00 
7.5000000e-01 3.0000000e+00 1.5000000e+00 
7.5000000e-01 3.0000000e+00 2.0000000e+00 
7.5000000e-01 3.0000000e+00 2.5000000e+00 
7.5000000e-01 3.0000000e+00 3.0000000e+00 
7.5000000e-01 3.0000000e+00 3.5000000e+00 
7.5000000e-01 3.0000000e+00 4.0000000e+00 
7.5000000e-01 3.0000000e+00 4.5000000e+00 
7.5000000e-01 3.0000000e+00 5.0000000e+00 
7.5000000e-01 3.0000000e+00 5.5000000e+00 
7.5000000e-01 3.0000000e+00 6.0000000e+00 
7.5000000e-01 3.0000000e+00 6.5000000e+00 
7.5000000e-01 3.0000000e+00 7.0000000e+00 
7.5000000e-01 3.0000000e+00 7.5000000e+00 
7.5000000e-01 3.0000000e+00 8.0000000e+00 
7.5000000e-01 3.0000000e+00 8.5000000e+00 
7.5000000e-01 3.0000000e+00 9.0000000e+00 
7.5000000e-01 3.0000000e+00 9.5000000e+00 
7.5000000e-01 3.0000000e+00 1.0000000e+01 
7.5000000e-01 3.0000000e+00 1.0500000e+01 
7.5000000e-01 3.0000000e+00 1.1000000e+01 
7.5000000e-01 3.0000000e+00 1.1500000e+01 
7.5000000e-01 3.0000000e+00 1.2000000e+01 
7.5000000e-01 3.0000000e+00 1.2500000e+01 
7.5000000e-01 3.0000000e+00 1.3000000e+01 
7.5000000e-01 3.0000000e+00 1.3500000e+01 
7.5000000e-01 3.0000000e+00 1.4000000e+01 
7.5000000e-01 3.0000000e+00 1.4500000e+01 
7.5000000e-01 3.0000000e+00 1.5000000e+01 
7.5000000e-01 3.0000000e+00 1.5500000e+01 
7.5000000e-01 3.0000000e+00 1.6000000e+01 
7.5000000e-01 3.0000000e+00 1.6500000e+01 
7.5000000e-01 3.0000000e+00 1.7000000e+01 
7.5000000e-01 3.0000000e+00 1.7500000e+01 
7.5000000e-01 3.0000000e+00 1.8000000e+01 
7.5000000e-01 3.0000000e+00 1.8500000e+01 
7.5000000e-01 3.0000000e+00 1.9000000e+01 
7.5000000e-01 3.0000000e+00 1.9500000e+01 
7.5000000e-01 3.0000000e+00 2.0000000e+01 
7.5000000e-01 3.0000000e+00 2.0500000e+01 
7.5000000e-01 3.0000000e+00 2.1000000e+01 
7.5000000e-01 3.0000000e+00 2.1500000e+01 
7.5000000e-01 3.0000000e+00 2.2000000e+01 
7.5000000e-01 3.0000000e+00 2.2500000e+01 
7.5000000e-01 3.0000000e+00 2.3000000e+01 
7.5000000e-01 3.0000000e+00 2.3500000e+01 
7.5000000e-01 3.0000000e+00 2.4000000e+01 
7.5000000e-01 3.0000000e+00 2.4500000e+01 
7.5000000e-01 3.0000000e+00 2.5000000e+01 
7.5000000e-01 3.0000000e+00 2.5500000e+01 
7.5000000e-01 3.0000000e+00 2.6000000e+01 
7.5000000e-01 3.0000000e+00 2.6500000e+01 
7.5000000e-01 3.0000000e+00 2.7000000e+01 
7.5000000e-01 3.0000000e+00 2.7500000e+01 
7.5000000e-01 3.0000000e+00 2.8000000e+01 
7.5000000e-01 3.0000000e+00 2.8500000e+01 
7.5000000e-01 3.0000000e+00 2.9000000e+01 
7.5000000e-01 3.0000000e+00 2.9500000e+01 
7.5000000e-01 3.0000000e+00 3.0000000e+01 
7.5000000e-01 3.0000000e+00 3.0500000e+01 
7.5000000e-01 3.0000000e+00 3.1000000e+01 
7.5000000e-01 3.0000000e+00 3.1500000e+01 
7.5000000e-01 3.0000000e+00 3.2000000e+01 
7.5000000e-01 3.0000000e+00 3.2500000e+01 
7.5000000e-01 3.0000000e+00 3.3000000e+01 
7.5000000e-01 3.0000000e+00 3.3500000e+01 
7.5000000e-01 3.0000000e+00 3.4000000e+01 
7.5000000e-01 3.0000000e+00 3.4500000e+01 
7.5000000e-01 3.0000000e+00 3.5000000e+01 
7.5000000e-01 3.0000000e+00 3.5500000e+01 
7.5000000e-01 3.0000000e+00 3.6000000e+01 
7.5000000e-01 3.0000000e+00 3.6500000e+01 
7.5000000e-01 3.0000000e+00 3.7000000e+01 
7.5000000e-01 3.0000000e+00 3.7500000e+01 
7.5000000e-01 3.0000000e+00 3.8000000e+01 
7.5000000e-01 3.0000000e+00 3.8500000e+01 
7.5000000e-01 3.0000000e+00 3.9000000e+01 
7.5000000e-01 3.0000000e+00 3.9500000e+01 
7.5000000e-01 3.0000000e+00 4.0500000e+01 
7.5000000e-01 3.0000000e+00 4.1000000e+01 
7.5000000e-01 3.0000000e+00 4.1500000e+01 
7.5000000e-01 3.0000000e+00 4.2000000e+01 
7.5000000e-01 3.0000000e+00 4.2500000e+01 
7.5000000e-01 3.0000000e+00 4.3000000e+01 
7.5000000e-01 3.0000000e+00 4.3500000e+01 
7.5000000e-01 3.0000000e+00 4.4000000e+01 
7.5000000e-01 3.0000000e+00 4.4500000e+01 
7.5000000e-01 3.0000000e+00 4.5000000e+01 
7.5000000e-01 3.0000000e+00 4.5500000e+01 
7.5000000e-01 3.0000000e+00 4.6000000e+01 
7.5000000e-01 3.0000000e+00 4.6500000e+01 
7.5000000e-01 3.0000000e+00 4.7000000e+01 
7.5000000e-01 3.0000000e+00 4.7500000e+01 
7.5000000e-01 3.0000000e+00 4.8000000e+01 
7.5000000e-01 3.0000000e+00 4.8500000e+01 
7.5000000e-01 3.0000000e+00 4.9000000e+01 
7.5000000e-01 3.0000000e+00 4.9500000e+01 
7.5000000e-01 3.0000000e+00 5.0000000e+01 
7.5000000e-01 3.0250001e+00 0.0000000e+00 
7.5000000e-01 3.0250001e+00 5.0000000e-01 
7.5000000e-01 3.0250001e+00 1.0000000e+00 
7.5000000e-01 3.0250001e+00 1.5000000e+00 
7.5000000e-01 3.0250001e+00 2.0000000e+00 
7.5000000e-01 3.0250001e+00 2.5000000e+00 
7.5000000e-01 3.0250001e+00 3.0000000e+00 
7.5000000e-01 3.0250001e+00 3.5000000e+00 
7.5000000e-01 3.0250001e+00 4.0000000e+00 
7.5000000e-01 3.0250001e+00 4.5000000e+00 
7.5000000e-01 3.0250001e+00 5.0000000e+00 
7.5000000e-01 3.0250001e+00 5.5000000e+00 
7.5000000e-01 3.0250001e+00 6.0000000e+00 
7.5000000e-01 3.0250001e+00 6.5000000e+00 
7.5000000e-01 3.0250001e+00 7.0000000e+00 
7.5000000e-01 3.0250001e+00 7.5000000e+00 
7.5000000e-01 3.0250001e+00 8.0000000e+00 
7.5000000e-01 3.0250001e+00 8.5000000e+00 
7.5000000e-01 3.0250001e+00 9.0000000e+00 
7.5000000e-01 3.0250001e+00 9.5000000e+00 
7.5000000e-01 3.0250001e+00 1.0000000e+01 
7.5000000e-01 3.0250001e+00 1.0500000e+01 
7.5000000e-01 3.0250001e+00 1.1000000e+01 
7.5000000e-01 3.0250001e+00 1.1500000e+01 
7.5000000e-01 3.0250001e+00 1.2000000e+01 
7.5000000e-01 3.0250001e+00 1.2500000e+01 
7.5000000e-01 3.0250001e+00 1.3000000e+01 
7.5000000e-01 3.0250001e+00 1.3500000e+01 
7.5000000e-01 3.0250001e+00 1.4000000e+01 
7.5000000e-01 3.0250001e+00 1.4500000e+01 
7.5000000e-01 3.0250001e+00 1.5000000e+01 
7.5000000e-01 3.0250001e+00 1.5500000e+01 
7.5000000e-01 3.0250001e+00 1.6000000e+01 
7.5000000e-01 3.0250001e+00 1.6500000e+01 
7.5000000e-01 3.0250001e+00 1.7000000e+01 
7.5000000e-01 3.0250001e+00 1.7500000e+01 
7.5000000e-01 3.0250001e+00 1.8000000e+01 
7.5000000e-01 3.0250001e+00 1.8500000e+01 
7.5000000e-01 3.0250001e+00 1.9000000e+01 
7.5000000e-01 3.0250001e+00 1.9500000e+01 
7.5000000e-01 3.0250001e+00 2.0000000e+01 
7.5000000e-01 3.0250001e+00 2.0500000e+01 
7.5000000e-01 3.0250001e+00 2.1000000e+01 
7.5000000e-01 3.0250001e+00 2.1500000e+01 
7.5000000e-01 3.0250001e+00 2.2000000e+01 
7.5000000e-01 3.0250001e+00 2.2500000e+01 
7.5000000e-01 3.0250001e+00 2.3000000e+01 
7.5000000e-01 3.0250001e+00 2.3500000e+01 
7.5000000e-01 3.0250001e+00 2.4000000e+01 
7.5000000e-01 3.0250001e+00 2.4500000e+01 
7.5000000e-01 3.0250001e+00 2.5000000e+01 
7.5000000e-01 3.0250001e+00 2.5500000e+01 
7.5000000e-01 3.0250001e+00 2.6000000e+01 
7.5000000e-01 3.0250001e+00 2.6500000e+01 
7.5000000e-01 3.0250001e+00 2.7000000e+01 
7.5000000e-01 3.0250001e+00 2.7500000e+01 
7.5000000e-01 3.0250001e+00 2.8000000e+01 
7.5000000e-01 3.0250001e+00 2.8500000e+01 
7.5000000e-01 3.0250001e+00 2.9000000e+01 
7.5000000e-01 3.0250001e+00 2.9500000e+01 
7.5000000e-01 3.0250001e+00 3.0000000e+01 
7.5000000e-01 3.0250001e+00 3.0500000e+01 
7.5000000e-01 3.0250001e+00 3.1000000e+01 
7.5000000e-01 3.0250001e+00 3.1500000e+01 
7.5000000e-01 3.0250001e+00 3.2000000e+01 
7.5000000e-01 3.0250001e+00 3.2500000e+01 
7.5000000e-01 3.0250001e+00 3.3000000e+01 
7.5000000e-01 3.0250001e+00 3.3500000e+01 
7.5000000e-01 3.0250001e+00 3.4000000e+01 
7.5000000e-01 3.0250001e+00 3.4500000e+01 
7.5000000e-01 3.0250001e+00 3.5000000e+01 
7.5000000e-01 3.0250001e+00 3.5500000e+01 
7.5000000e-01 3.0250001e+00 3.6000000e+01 
7.5000000e-01 3.0250001e+00 3.6500000e+01 
7.5000000e-01 3.0250001e+00 3.7000000e+01 
7.5000000e-01 3.0250001e+00 3.7500000e+01 
7.5000000e-01 3.0250001e+00 3.8000000e+01 
7.5000000e-01 3.0250001e+00 3.8500000e+01 
7.5000000e-01 3.0250001e+00 3.9000000e+01 
7.5000000e-01 3.0250001e+00 3.9500000e+01 
7.5000000e-01 3.0250001e+00 4.0000000e+01 
7.5000000e-01 3.0250001e+00 4.0500000e+01 
7.5000000e-01 3.0250001e+00 4.1000000e+01 
7.5000000e-01 3.0250001e+00 4.1500000e+01 
7.5000000e-01 3.0250001e+00 4.2000000e+01 
7.5000000e-01 3.0250001e+00 4.2500000e+01 
7.5000000e-01 3.0250001e+00 4.3000000e+01 
7.5000000e-01 3.0250001e+00 4.3500000e+01 
7.5000000e-01 3.0250001e+00 4.4000000e+01 
7.5000000e-01 3.0250001e+00 4.4500000e+01 
7.5000000e-01 3.0250001e+00 4.5000000e+01 
7.5000000e-01 3.0250001e+00 4.5500000e+01 
7.5000000e-01 3.0250001e+00 4.6000000e+01 
7.5000000e-01 3.0250001e+00 4.6500000e+01 
7.5000000e-01 3.0250001e+00 4.7000000e+01 
7.5000000e-01 3.0250001e+00 4.7500000e+01 
7.5000000e-01 3.0250001e+00 4.8000000e+01 
7.5000000e-01 3.0250001e+00 4.8500000e+01 
7.5000000e-01 3.0250001e+00 4.9000000e+01 
7.5000000e-01 3.0250001e+00 4.9500000e+01 
7.5000000e-01 3.0250001e+00 5.0000000e+01 
3.0000000e+00 2.0000000e+00 3.6000000e+01 
8.0487806e-01 3.0000000e+00 3.6000000e+01 
0.0000000e+00 0.0000000e+00 2.0000000e+00 
0.0000000e+00 0.0000000e+00 4.0000000e+00 
0.0000000e+00 0.0000000e+00 6.0000000e+00 
0.0000000e+00 0.0000000e+00 8.0000000e+00 
0.0000000e+00 0.0000000e+00 1.0000000e+01 
0.0000000e+00 0.0000000e+00 1.2000000e+01 
0.0000000e+00 0.0000000e+00 1.4000000e+01 
0.0000000e+00 0.0000000e+00 1.6000000e+01 
[...]
POINT_DATA 661
FIELD FieldData 3
DISPLACEMENT 3 661  float
0.0000000e+00 0.0000000e+00 0.0000000e+00 
0.0000000e+00 0.0000000e+00 0.0000000e+00 
0.0000000e+00 0.0000000e+00 0.0000000e+00 
0.0000000e+00 0.0000000e+00 0.0000000e+00 
6.6915500e-06 -4.8770785e-06 -2.0666114e-07 
1.2739876e-07 -3.0357512e-06 -2.4271940e-06 
0.0000000e+00 -7.0195224e-06 0.0000000e+00 
0.0000000e+00 2.9351724e-05 0.0000000e+00 
8.7729259e-06 -6.8680279e-06 -4.4990666e-06 
1.4980671e-06 -7.7178856e-06 5.3149288e-06 
1.2005778e-06 -7.3885335e-06 -9.9200997e-06 
-2.6844605e-06 3.0165668e-07 4.0191630e-06 
0.0000000e+00 -9.5706482e-06 0.0000000e+00 
0.0000000e+00 5.7234058e-05 0.0000000e+00 
-5.0263516e-06 -8.4544827e-06 -1.0680635e-05 
2.2756851e-05 4.4334778e-05 1.9503323e-05 
1.6822771e-05 1.7499948e-05 4.0495261e-06 
2.0672980e-05 8.3974148e-05 2.2550394e-05 
0.0000000e+00 -1.6875860e-05 0.0000000e+00 
0.0000000e+00 8.1602047e-05 0.0000000e+00 
-1.2589504e-05 1.8550081e-05 -1.7685918e-05 
-1.7605757e-05 2.1102633e-05 -2.3637538e-05 
-1.8655928e-05 2.3689312e-05 -2.8464956e-05 
-1.5670576e-05 2.5981315e-05 -3.4369503e-05 
-8.8779307e-06 2.8830917e-05 -3.8026512e-05 
-4.7784306e-06 3.3273252e-05 -4.0219962e-05 
5.3898316e-06 4.1388063e-05 -5.3027608e-05 
1.7650133e-05 5.5139149e-05 -6.3205298e-05 
2.4720926e-05 7.5894844e-05 -5.7780460e-05 
3.1120562e-05 1.0208821e-04 -4.5625748e-05 
3.5533882e-05 1.3206759e-04 -3.7196110e-05 
4.6293615e-05 1.6442897e-04 -2.4259845e-05 
5.9327220e-05 1.9627837e-04 -1.0853005e-05 
6.3895866e-05 2.2016205e-04 7.6337365e-06 
5.0748647e-05 2.2328155e-04 3.7111582e-05 
2.8195200e-05 1.7801041e-04 6.8876885e-05 
-1.4558297e-05 4.2906369e-05 1.1015357e-04 
-2.6625054e-05 -2.2411943e-04 1.5041424e-04 
-5.3962143e-05 -6.8728393e-04 2.0927355e-04 
-1.1349854e-04 -1.3902466e-03 1.6434147e-04 
-2.6778132e-04 -2.3521408e-03 2.4877588e-04 
-2.8073904e-04 -3.3921469e-03 2.2690400e-04 
-1.8037127e-04 -4.2026266e-03 1.6624510e-04 
-1.5609505e-04 -4.2278003e-03 1.7108081e-04 
-2.9122163e-04 -4.0335152e-03 8.6405315e-05 
-3.5953804e-04 -3.9897072e-03 5.1980147e-05 
-2.4772697e-04 -4.2084642e-03 7.2434395e-06 
-9.5888900e-05 -4.2062607e-03 -4.1603784e-05 
-1.2194596e-04 -3.5109159e-03 -1.4270675e-04 
-2.1322131e-04 -2.4893826e-03 -1.7658202e-04 
-2.0398216e-04 -1.5899754e-03 -1.8173039e-04 
-8.0241400e-05 -8.9426897e-04 -1.3267844e-04 
-4.1879874e-05 -4.3676214e-04 -1.7286905e-04 
-2.7393164e-05 -1.5923863e-04 -1.4498309e-04 
-1.7432947e-05 -7.5398161e-06 -1.2662074e-04 
6.4370652e-06 6.3914471e-05 -1.0251348e-04 
2.0630467e-05 8.4032115e-05 -6.8446723e-05 
2.7411046e-05 7.7991615e-05 -3.8609473e-05 
1.9303026e-05 6.2316023e-05 -3.0697203e-05 
1.0656005e-05 4.4452820e-05 -3.3586741e-05 
2.5912659e-06 2.8545830e-05 -3.8971171e-05 
5.1915282e-07 1.2898170e-05 -3.9033726e-05 
-6.4125998e-06 -4.8834113e-06 -2.7121532e-05 
-1.8060848e-05 -2.3883766e-05 -8.4116182e-06 
-1.7632174e-05 -4.1625273e-05 1.0212479e-05 
-1.7761999e-05 -5.2913438e-05 1.9989291e-05 
-1.5111322e-05 -5.2030322e-05 2.1170164e-05 
-9.1179400e-06 -3.5912344e-05 1.6568125e-05 
3.7297311e-06 -1.8900460e-06 -6.0273096e-06 
9.3761864e-06 4.5126304e-05 -2.9332921e-05 
2.6162264e-05 9.9652178e-05 -5.5217999e-05 
4.7579928e-05 1.5416408e-04 -7.1305949e-05 
5.7448538e-05 2.0153794e-04 -6.4142856e-05 
6.4984073e-05 2.3225196e-04 -3.9433828e-05 
5.2770250e-05 2.3283856e-04 -7.1561140e-06 
3.1522941e-05 1.7702296e-04 3.1113308e-05 
-1.0814371e-05 2.2063923e-05 8.9639725e-05 
-2.0287973e-05 -2.7376311e-04 1.4260730e-04 
-4.5145578e-05 -7.7502854e-04 2.0263901e-04 
-1.0657302e-04 -1.5178646e-03 1.5093309e-04 
-2.5973076e-04 -2.5057406e-03 2.3240698e-04 
-2.7394728e-04 -3.5192517e-03 2.0021168e-04 
-1.7339741e-04 -4.1919248e-03 1.3300400e-04 
-1.3214395e-04 -4.1215010e-03 1.3982487e-04 
-2.7062974e-04 -3.9682728e-03 6.5045519e-05 
-3.2976543e-04 -4.0122466e-03 4.2074385e-05 
-2.1609284e-04 -4.2808140e-03 2.0177697e-06 
-8.0041020e-05 -4.1793655e-03 -1.9419509e-05 
-1.1998000e-04 -3.3622447e-03 -1.4464800e-04 
-2.2050957e-04 -2.3070357e-03 -1.8686573e-04 
-2.2095224e-04 -1.4094691e-03 -2.0061967e-04 
-1.3225054e-04 -7.2809332e-04 -1.7561493e-04 
-5.4729328e-05 -2.8512307e-04 -1.7307527e-04 
-3.1777967e-05 -2.3297438e-05 -1.4429173e-04 
-2.3232444e-05 1.1589289e-04 -1.2955540e-04 
2.6131049e-06 1.7566877e-04 -1.0964068e-04 
1.8383707e-05 1.8530233e-04 -7.4448617e-05 
3.1699863e-05 1.6565954e-04 -4.1274820e-05 
2.7746333e-05 1.3078944e-04 -2.1956856e-05 
0.0000000e+00 3.2144657e-05 0.0000000e+00 
0.0000000e+00 -1.9408270e-05 0.0000000e+00 
0.0000000e+00 -6.4525571e-05 0.0000000e+00 
0.0000000e+00 -9.7419070e-05 0.0000000e+00 
0.0000000e+00 -1.1367789e-04 0.0000000e+00 
0.0000000e+00 -1.1141776e-04 0.0000000e+00 
0.0000000e+00 -9.1919290e-05 0.0000000e+00 
0.0000000e+00 -5.9423099e-05 0.0000000e+00 
0.0000000e+00 -2.0191759e-05 0.0000000e+00 
0.0000000e+00 1.8769375e-05 0.0000000e+00 
0.0000000e+00 5.0970615e-05 0.0000000e+00 
0.0000000e+00 7.1478433e-05 0.0000000e+00 
0.0000000e+00 7.7630022e-05 0.0000000e+00 
0.0000000e+00 6.9326146e-05 0.0000000e+00 
0.0000000e+00 4.8866197e-05 0.0000000e+00 
0.0000000e+00 2.0421694e-05 0.0000000e+00 
0.0000000e+00 -1.0671198e-05 0.0000000e+00 
0.0000000e+00 -3.8677517e-05 0.0000000e+00 
0.0000000e+00 -5.8276186e-05 0.0000000e+00 
0.0000000e+00 -6.5401822e-05 0.0000000e+00 
0.0000000e+00 1.7579017e-05 0.0000000e+00 
0.0000000e+00 1.8614206e-05 0.0000000e+00 
0.0000000e+00 2.1045102e-05 0.0000000e+00 
0.0000000e+00 2.3616318e-05 0.0000000e+00 
0.0000000e+00 2.5956115e-05 0.0000000e+00 
0.0000000e+00 2.8772516e-05 0.0000000e+00 
0.0000000e+00 3.3277374e-05 0.0000000e+00 
0.0000000e+00 4.1429732e-05 0.0000000e+00 
0.0000000e+00 5.5296987e-05 0.0000000e+00 
0.0000000e+00 7.5910248e-05 0.0000000e+00 
0.0000000e+00 1.0207910e-04 0.0000000e+00 
0.0000000e+00 1.3215489e-04 0.0000000e+00 
0.0000000e+00 1.6466907e-04 0.0000000e+00 
0.0000000e+00 1.9659646e-04 0.0000000e+00 
0.0000000e+00 2.2102965e-04 0.0000000e+00 
0.0000000e+00 2.2404242e-04 0.0000000e+00 
0.0000000e+00 1.7816288e-04 0.0000000e+00 
0.0000000e+00 4.4118089e-05 0.0000000e+00 
0.0000000e+00 -2.2480213e-04 0.0000000e+00 
0.0000000e+00 -6.8881462e-04 0.0000000e+00 
0.0000000e+00 -1.3998541e-03 0.0000000e+00 
0.0000000e+00 -2.3598352e-03 0.0000000e+00 
0.0000000e+00 -3.4245821e-03 0.0000000e+00 
0.0000000e+00 -4.2269942e-03 0.0000000e+00 
0.0000000e+00 -4.2585060e-03 0.0000000e+00 
0.0000000e+00 -4.0474301e-03 0.0000000e+00 
0.0000000e+00 -4.0197112e-03 0.0000000e+00 
0.0000000e+00 -4.2277067e-03 0.0000000e+00 
0.0000000e+00 -4.2394022e-03 0.0000000e+00 
0.0000000e+00 -3.5284103e-03 0.0000000e+00 
0.0000000e+00 -2.5072114e-03 0.0000000e+00 
0.0000000e+00 -1.5921807e-03 0.0000000e+00 
0.0000000e+00 -8.9821027e-04 0.0000000e+00 
0.0000000e+00 -4.3655871e-04 0.0000000e+00 
0.0000000e+00 -1.5850761e-04 0.0000000e+00 
0.0000000e+00 -6.6188381e-06 0.0000000e+00 
0.0000000e+00 6.4142034e-05 0.0000000e+00 
0.0000000e+00 8.4479310e-05 0.0000000e+00 
0.0000000e+00 7.8476703e-05 0.0000000e+00 
0.0000000e+00 6.2493840e-05 0.0000000e+00 
0.0000000e+00 4.4729099e-05 0.0000000e+00 
0.0000000e+00 2.8570423e-05 0.0000000e+00 
0.0000000e+00 1.2712290e-05 0.0000000e+00 
0.0000000e+00 -4.9579576e-06 0.0000000e+00 
0.0000000e+00 -2.3991490e-05 0.0000000e+00 
0.0000000e+00 -4.1647017e-05 0.0000000e+00 
0.0000000e+00 -5.2792893e-05 0.0000000e+00 
0.0000000e+00 -5.2018953e-05 0.0000000e+00 
0.0000000e+00 -3.5556943e-05 0.0000000e+00 
0.0000000e+00 -1.8554862e-06 0.0000000e+00 
0.0000000e+00 4.5223314e-05 0.0000000e+00 
0.0000000e+00 9.9644894e-05 0.0000000e+00 
0.0000000e+00 1.5427115e-04 0.0000000e+00 
0.0000000e+00 2.0177393e-04 0.0000000e+00 
0.0000000e+00 2.3300847e-04 0.0000000e+00 
0.0000000e+00 2.3373353e-04 0.0000000e+00 
0.0000000e+00 1.7715148e-04 0.0000000e+00 
0.0000000e+00 2.3330485e-05 0.0000000e+00 
0.0000000e+00 -2.7483737e-04 0.0000000e+00 
0.0000000e+00 -7.7702297e-04 0.0000000e+00 
0.0000000e+00 -1.5286513e-03 0.0000000e+00 
0.0000000e+00 -2.5148306e-03 0.0000000e+00 
0.0000000e+00 -3.5542885e-03 0.0000000e+00 
0.0000000e+00 -4.2159706e-03 0.0000000e+00 
0.0000000e+00 -4.1511641e-03 0.0000000e+00 
0.0000000e+00 -3.9818725e-03 0.0000000e+00 
0.0000000e+00 -4.0439558e-03 0.0000000e+00 
0.0000000e+00 -4.3022353e-03 0.0000000e+00 
0.0000000e+00 -4.2133038e-03 0.0000000e+00 
0.0000000e+00 -3.3786031e-03 0.0000000e+00 
0.0000000e+00 -2.3232186e-03 0.0000000e+00 
0.0000000e+00 -1.4111053e-03 0.0000000e+00 
0.0000000e+00 -7.3144434e-04 0.0000000e+00 
0.0000000e+00 -2.8515601e-04 0.0000000e+00 
0.0000000e+00 -2.2239035e-05 0.0000000e+00 
0.0000000e+00 1.1670669e-04 0.0000000e+00 
0.0000000e+00 1.7610352e-04 0.0000000e+00 
0.0000000e+00 1.8570016e-04 0.0000000e+00 
0.0000000e+00 1.6623912e-04 0.0000000e+00 
0.0000000e+00 1.3063184e-04 0.0000000e+00 
0.0000000e+00 8.4046937e-05 0.0000000e+00 
0.0000000e+00 3.2113439e-05 0.0000000e+00 
0.0000000e+00 -1.9399020e-05 0.0000000e+00 
0.0000000e+00 -6.4462183e-05 0.0000000e+00 
0.0000000e+00 -9.7304161e-05 0.0000000e+00 
0.0000000e+00 -1.1353801e-04 0.0000000e+00 
0.0000000e+00 -1.1129095e-04 0.0000000e+00 
0.0000000e+00 -9.1835944e-05 0.0000000e+00 
0.0000000e+00 -5.9396483e-05 0.0000000e+00 
0.0000000e+00 -2.0220525e-05 0.0000000e+00 
0.0000000e+00 1.8695438e-05 0.0000000e+00 
0.0000000e+00 5.0867919e-05 0.0000000e+00 
0.0000000e+00 7.1367860e-05 0.0000000e+00 
0.0000000e+00 7.7531891e-05 0.0000000e+00 
0.0000000e+00 6.9253605e-05 0.0000000e+00 
0.0000000e+00 4.8823305e-05 0.0000000e+00 
0.0000000e+00 2.0408463e-05 0.0000000e+00 
0.0000000e+00 -1.0653047e-05 0.0000000e+00 
0.0000000e+00 -3.8625622e-05 0.0000000e+00 
0.0000000e+00 -5.8195128e-05 0.0000000e+00 
0.0000000e+00 -6.5308581e-05 0.0000000e+00 
2.3620220e-05 -4.4795415e-05 -1.2532944e-07 
-1.0778906e-04 -6.5496279e-04 -1.5170765e-04 
0.0000000e+00 0.0000000e+00 0.0000000e+00 
0.0000000e+00 0.0000000e+00 0.0000000e+00 
0.0000000e+00 0.0000000e+00 0.0000000e+00 
0.0000000e+00 0.0000000e+00 0.0000000e+00 
0.0000000e+00 0.0000000e+00 0.0000000e+00 
0.0000000e+00 0.0000000e+00 0.0000000e+00 
0.0000000e+00 0.0000000e+00 0.0000000e+00 
0.0000000e+00 0.0000000e+00 0.0000000e+00 
0.0000000e+00 0.0000000e+00 0.0000000e+00 
0.0000000e+00 0.0000000e+00 0.0000000e+00 
0.0000000e+00 0.0000000e+00 0.0000000e+00 
0.0000000e+00 0.0000000e+00 0.0000000e+00 
0.0000000e+00 0.0000000e+00 0.0000000e+00 
0.0000000e+00 0.0000000e+00 0.0000000e+00 
0.0000000e+00 0.0000000e+00 0.0000000e+00 
0.0000000e+00 0.0000000e+00 0.0000000e+00 
0.0000000e+00 0.0000000e+00 0.0000000e+00 
0.0000000e+00 0.0000000e+00 0.0000000e+00 
0.0000000e+00 0.0000000e+00 0.0000000e+00 
0.0000000e+00 0.0000000e+00 0.0000000e+00 
0.0000000e+00 0.0000000e+00 0.0000000e+00 
0.0000000e+00 0.0000000e+00 0.0000000e+00 
0.0000000e+00 0.0000000e+00 0.0000000e+00 
0.0000000e+00 0.0000000e+00 0.0000000e+00 
0.0000000e+00 0.0000000e+00 0.0000000e+00 
0.0000000e+00 0.0000000e+00 0.0000000e+00 
0.0000000e+00 0.0000000e+00 0.0000000e+00 
0.0000000e+00 0.0000000e+00 0.0000000e+00 
0.0000000e+00 0.0000000e+00 0.0000000e+00 
0.0000000e+00 0.0000000e+00 0.0000000e+00 
0.0000000e+00 0.0000000e+00 0.0000000e+00 
0.0000000e+00 0.0000000e+00 0.0000000e+00 
0.0000000e+00 0.0000000e+00 0.0000000e+00 
0.0000000e+00 0.0000000e+00 0.0000000e+00 
0.0000000e+00 0.0000000e+00 0.0000000e+00 
0.0000000e+00 0.0000000e+00 0.0000000e+00 
0.0000000e+00 0.0000000e+00 0.0000000e+00 
0.0000000e+00 0.0000000e+00 0.0000000e+00 
0.0000000e+00 0.0000000e+00 0.0000000e+00 
0.0000000e+00 0.0000000e+00 0.0000000e+00 
0.0000000e+00 0.0000000e+00 0.0000000e+00 
0.0000000e+00 0.0000000e+00 0.0000000e+00 
-1.1918082e-06 1.6243152e-07 -6.8996547e-07 
-6.2857521e-06 3.6437982e-07 -4.4065582e-06 
-2.2611403e-06 3.4721785e-07 -9.7538277e-06 
8.1373146e-06 -1.0927290e-06 -9.0092926e-06 
3.0890380e-05 -5.2401801e-06 -1.1000468e-05 
5.2060084e-05 -6.3283701e-06 -3.1066342e-08 
4.5916058e-05 -5.5746818e-06 1.1972538e-05 
2.2932343e-05 -4.7087838e-06 7.4702034e-06 
8.8019260e-06 -1.3185996e-06 2.5669779e-06 
3.3085132e-06 -9.1472954e-09 1.8949841e-06 
-1.4401944e-06 -4.4444591e-06 4.3822688e-06 
-5.5019154e-06 -2.2835441e-06 1.4077590e-06 
-5.9616609e-06 4.2989795e-06 -1.0763129e-06 
5.8888422e-06 -8.2750336e-07 -8.1005828e-06 
3.2550703e-05 -9.6796402e-06 -1.0901090e-05 
5.4696233e-05 -9.9035324e-06 7.6655914e-07 
5.6600162e-05 -1.1199258e-05 1.3523719e-05 
2.2145809e-05 -7.2412972e-06 1.3003428e-05 
-5.7202565e-06 5.8595333e-06 -2.1981457e-07 
0.0000000e+00 1.3184812e-05 0.0000000e+00 
0.0000000e+00 2.1210457e-05 0.0000000e+00 
0.0000000e+00 5.7862781e-05 0.0000000e+00 
0.0000000e+00 3.8315371e-05 0.0000000e+00 
0.0000000e+00 -2.0055508e-04 0.0000000e+00 
0.0000000e+00 -5.7537941e-04 0.0000000e+00 
0.0000000e+00 -5.4280792e-04 0.0000000e+00 
0.0000000e+00 -1.8460554e-04 0.0000000e+00 
0.0000000e+00 6.0906723e-06 0.0000000e+00 
0.0000000e+00 8.0333530e-06 0.0000000e+00 
0.0000000e+00 -6.8029472e-06 0.0000000e+00 
0.0000000e+00 -1.6402342e-05 0.0000000e+00 
0.0000000e+00 5.5969860e-05 0.0000000e+00 
0.0000000e+00 4.0355706e-05 0.0000000e+00 
0.0000000e+00 -2.0970509e-04 0.0000000e+00 
0.0000000e+00 -5.5997184e-04 0.0000000e+00 
0.0000000e+00 -5.3710438e-04 0.0000000e+00 
0.0000000e+00 -1.6383707e-04 0.0000000e+00 
0.0000000e+00 4.0932253e-05 0.0000000e+00 
2.1809367e-06 -3.9265783e-06 -5.3386871e-06 
1.3607964e-06 -8.7794078e-06 -6.9513057e-06 
-3.2244063e-06 -1.7109663e-06 2.3855753e-06 
-8.2272636e-06 1.8029357e-05 -1.0694050e-05 
-2.6501919e-08 -9.3019389e-07 -2.1491485e-06 
-4.7814628e-06 6.6660016e-07 -6.1357396e-06 
1.9929369e-06 3.4855313e-07 -1.4399217e-05 
2.2618346e-05 -3.6173037e-06 -1.4862121e-05 
3.2939282e-05 -4.0092505e-06 -5.7194359e-07 
3.1812622e-05 -3.8141907e-06 6.7098085e-06 
1.7853419e-05 -9.6758799e-07 1.3117967e-05 
6.9939815e-06 -1.8536333e-07 -3.4225593e-07 
9.5698388e-06 -8.4005319e-07 -1.6815927e-06 
4.3498667e-06 -1.7750915e-06 3.8913918e-06 
-1.5250502e-06 -8.1774306e-06 6.6795137e-06 
-5.8332748e-06 -3.0011715e-06 -2.8859913e-06 
-1.5228608e-06 5.4364468e-06 -7.1325599e-06 
2.3046210e-05 -2.1742926e-06 -7.8991916e-06 
3.5521793e-05 -9.3414201e-06 -5.2498757e-07 
3.9715902e-05 -8.3852774e-06 6.9968132e-06 
3.1458243e-05 -8.2978622e-06 1.6507649e-05 
9.6403483e-06 -1.2320735e-06 -6.5882539e-08 
-5.3913768e-06 5.0236390e-06 -2.0505995e-06 
-2.6475971e-07 -9.6302683e-06 -1.0482132e-05 
0.0000000e+00 2.4586827e-05 0.0000000e+00 
0.0000000e+00 3.5583667e-05 0.0000000e+00 
0.0000000e+00 9.7963108e-05 0.0000000e+00 
0.0000000e+00 8.4539890e-05 0.0000000e+00 
0.0000000e+00 -4.2521872e-04 0.0000000e+00 
0.0000000e+00 -1.2643511e-03 0.0000000e+00 
0.0000000e+00 -1.1915207e-03 0.0000000e+00 
0.0000000e+00 -3.4707953e-04 0.0000000e+00 
0.0000000e+00 2.5637319e-05 0.0000000e+00 
0.0000000e+00 1.2614498e-05 0.0000000e+00 
0.0000000e+00 -9.4070137e-06 0.0000000e+00 
0.0000000e+00 -3.2501408e-05 0.0000000e+00 
0.0000000e+00 1.0547158e-04 0.0000000e+00 
0.0000000e+00 8.6174405e-05 0.0000000e+00 
0.0000000e+00 -4.5760817e-04 0.0000000e+00 
0.0000000e+00 -1.2361739e-03 0.0000000e+00 
0.0000000e+00 -1.1614857e-03 0.0000000e+00 
0.0000000e+00 -2.9743690e-04 0.0000000e+00 
0.0000000e+00 9.0158741e-05 0.0000000e+00 
-1.6839472e-06 3.6820576e-05 -1.7430071e-05 
-1.3681401e-05 1.9504554e-05 -2.2449640e-05 
1.8123750e-05 2.8615783e-05 -8.7906359e-05 
7.1633222e-05 9.4208204e-05 -3.2511289e-05 
5.5574110e-05 1.4913164e-04 1.1173376e-04 
-2.6916721e-04 -4.0245394e-04 3.7772811e-04 
-7.1604719e-04 -1.4109020e-03 1.8702720e-04 
-6.3424680e-04 -1.4777710e-03 -1.1208828e-04 
-1.6239633e-04 -3.0092808e-04 -2.6207045e-04 
1.6871028e-05 3.6944693e-05 -1.2582720e-04 
1.5876099e-05 2.3035760e-05 -2.6985073e-05 
-2.4261106e-05 -2.4445351e-05 1.3459541e-05 
-1.3648967e-05 -3.2206066e-05 -1.1298096e-06 
7.4912132e-05 7.4284457e-05 -9.7713673e-05 
5.7669306e-05 1.6199719e-04 8.0830432e-05 
-2.8175872e-04 -4.4186239e-04 3.6649377e-04 
-6.7391625e-04 -1.3401768e-03 1.3804295e-04 
-6.2324264e-04 -1.4432815e-03 -9.1965005e-05 
-1.4151334e-04 -2.9951017e-04 -2.4538994e-04 
1.3013538e-05 1.0224259e-04 -1.4207054e-04 
0.0000000e+00 3.9550461e-05 0.0000000e+00 
0.0000000e+00 4.2341369e-05 0.0000000e+00 
0.0000000e+00 1.3863067e-04 0.0000000e+00 
0.0000000e+00 1.7109470e-04 0.0000000e+00 
0.0000000e+00 -8.0923474e-04 0.0000000e+00 
0.0000000e+00 -2.4312241e-03 0.0000000e+00 
0.0000000e+00 -2.2336747e-03 0.0000000e+00 
0.0000000e+00 -5.7554705e-04 0.0000000e+00 
0.0000000e+00 6.8797715e-05 0.0000000e+00 
0.0000000e+00 2.1301490e-05 0.0000000e+00 
0.0000000e+00 -1.2147447e-05 0.0000000e+00 
0.0000000e+00 -5.5727629e-05 0.0000000e+00 
0.0000000e+00 1.5479809e-04 0.0000000e+00 
0.0000000e+00 1.6576998e-04 0.0000000e+00 
0.0000000e+00 -8.9417718e-04 0.0000000e+00 
0.0000000e+00 -2.3997971e-03 0.0000000e+00 
0.0000000e+00 -2.1906905e-03 0.0000000e+00 
0.0000000e+00 -4.5828841e-04 0.0000000e+00 
0.0000000e+00 1.6221708e-04 0.0000000e+00 
-6.7067504e-06 1.5915107e-06 -8.2449305e-06 
-3.6923877e-06 7.3411238e-06 -1.8581772e-05 
1.1351315e-05 2.3985511e-05 -6.4900278e-06 
2.5738827e-05 5.2611787e-05 2.1801105e-05 
5.5057488e-05 -3.9692331e-05 1.7659380e-05 
5.1791441e-05 -1.1141322e-04 6.7963942e-06 
3.9846440e-05 -1.2033542e-04 1.1374384e-05 
3.1605075e-05 -6.7749272e-05 -4.2716538e-06 
5.7741927e-06 8.2626520e-06 -2.6575224e-05 
3.6015879e-07 2.9056803e-06 -1.5893413e-05 
-1.6154831e-05 -6.5750251e-06 -9.2428593e-07 
-9.4357720e-06 -6.8693735e-06 -6.0420743e-06 
1.0344886e-05 2.0140846e-05 -8.2114648e-06 
1.7631781e-05 5.2754265e-05 1.2450341e-05 
5.9990136e-05 -4.2637210e-05 1.3715849e-05 
6.5514185e-05 -9.9955359e-05 9.1205593e-06 
4.8882288e-05 -1.1330830e-04 2.4025265e-05 
-7.0832934e-06 1.6041131e-05 -2.3713730e-05 
-3.1477299e-05 -2.3617443e-04 -1.1557164e-04 
0.0000000e+00 0.0000000e+00 0.0000000e+00 
0.0000000e+00 0.0000000e+00 0.0000000e+00 
0.0000000e+00 0.0000000e+00 0.0000000e+00 
0.0000000e+00 0.0000000e+00 0.0000000e+00 
0.0000000e+00 0.0000000e+00 0.0000000e+00 
0.0000000e+00 0.0000000e+00 0.0000000e+00 
0.0000000e+00 0.0000000e+00 0.0000000e+00 
0.0000000e+00 0.0000000e+00 0.0000000e+00 
0.0000000e+00 0.0000000e+00 0.0000000e+00 
0.0000000e+00 0.0000000e+00 0.0000000e+00 
0.0000000e+00 0.0000000e+00 0.0000000e+00 
0.0000000e+00 0.0000000e+00 0.0000000e+00 
0.0000000e+00 0.0000000e+00 0.0000000e+00 
0.0000000e+00 0.0000000e+00 0.0000000e+00 
0.0000000e+00 0.0000000e+00 0.0000000e+00 
0.0000000e+00 0.0000000e+00 0.0000000e+00 
0.0000000e+00 0.0000000e+00 0.0000000e+00 
0.0000000e+00 0.0000000e+00 0.0000000e+00 
0.0000000e+00 0.0000000e+00 0.0000000e+00 
0.0000000e+00 0.0000000e+00 0.0000000e+00 
0.0000000e+00 0.0000000e+00 0.0000000e+00 
0.0000000e+00 0.0000000e+00 0.0000000e+00 
0.0000000e+00 0.0000000e+00 0.0000000e+00 
0.0000000e+00 0.0000000e+00 0.0000000e+00 
0.0000000e+00 0.0000000e+00 0.0000000e+00 
0.0000000e+00 0.0000000e+00 0.0000000e+00 
0.0000000e+00 0.0000000e+00 0.0000000e+00 
0.0000000e+00 0.0000000e+00 0.0000000e+00 
0.0000000e+00 0.0000000e+00 0.0000000e+00 
0.0000000e+00 0.0000000e+00 0.0000000e+00 
0.0000000e+00 0.0000000e+00 0.0000000e+00 
0.0000000e+00 0.0000000e+00 0.0000000e+00 
0.0000000e+00 0.0000000e+00 0.0000000e+00 
0.0000000e+00 0.0000000e+00 0.0000000e+00 
0.0000000e+00 0.0000000e+00 0.0000000e+00 
0.0000000e+00 0.0000000e+00 0.0000000e+00 
0.0000000e+00 0.0000000e+00 0.0000000e+00 
0.0000000e+00 0.0000000e+00 0.0000000e+00 
0.0000000e+00 0.0000000e+00 0.0000000e+00 
0.0000000e+00 0.0000000e+00 0.0000000e+00 
0.0000000e+00 0.0000000e+00 0.0000000e+00 
0.0000000e+00 0.0000000e+00 0.0000000e+00 
-3.4254510e-06 1.9787792e-07 -3.5244423e-06 
2.5589670e-05 -8.0930322e-06 4.0560967e-06 
7.9814754e-06 -3.4047671e-06 2.7055503e-06 
-2.2589857e-06 -1.5348376e-06 1.3441165e-06 
-3.5635926e-06 7.6912198e-07 8.1546347e-07 
-2.3498069e-06 2.2109214e-06 -1.2045451e-06 
7.4331660e-06 -7.0751807e-06 -6.5863560e-06 
2.7009530e-05 -1.0671291e-05 -2.3728014e-06 
2.8921007e-05 -1.1927295e-05 3.5559362e-06 