# vtk DataFile Version 4.0
vtk output
ASCII
DATASET UNSTRUCTURED_GRID
POINTS 621 float
0.0000000e+00 0.0000000e+00 0.0000000e+00 
0.0000000e+00 0.0000000e+00 4.0000000e+01 
5.0000000e+00 0.0000000e+00 0.0000000e+00 
5.0000000e+00 0.0000000e+00 4.0000000e+01 
5.0000000e+00 1.0000000e+00 0.0000000e+00 
5.0000000e+00 1.0000000e+00 4.0000000e+01 
0.0000000e+00 1.0000000e+00 0.0000000e+00 
0.0000000e+00 1.0000000e+00 4.0000000e+01 
5.0000000e+00 2.0000000e+00 0.0000000e+00 
5.0000000e+00 2.0000000e+00 4.0000000e+01 
3.0000000e+00 2.0000000e+00 0.0000000e+00 
3.0000000e+00 2.0000000e+00 4.0000000e+01 
0.0000000e+00 2.0000000e+00 0.0000000e+00 
0.0000000e+00 2.0000000e+00 4.0000000e+01 
1.5000000e+00 3.0000000e+00 0.0000000e+00 
1.5000000e+00 3.0000000e+00 4.0000000e+01 
7.5000000e-01 3.0000000e+00 0.0000000e+00 
7.5000000e-01 3.0000000e+00 4.0000000e+01 
0.0000000e+00 3.0000000e+00 0.0000000e+00 
0.0000000e+00 3.0000000e+00 4.0000000e+01 
7.5000000e-01 3.0000000e+00 5.0000000e-01 
7.5000000e-01 3.0000000e+00 1.0000000e+00 
7.5000000e-01 3.0000000e+00 1.5000000e+00 
7.5000000e-01 3.0000000e+00 2.0000000e+00 
7.5000000e-01 3.0000000e+00 2.5000000e+00 
7.5000000e-01 3.0000000e+00 3.0000000e+00 
7.5000000e-01 3.0000000e+00 3.5000000e+00 
7.5000000e-01 3.0000000e+00 4.0000000e+00 
7.5000000e-01 3.0000000e+00 4.5000000e+00 
7.5000000e-01 3.0000000e+00 5.0000000e+00 
7.5000000e-01 3.0000000e+00 5.5000000e+00 
7.5000000e-01 3.0000000e+00 6.0000000e+00 
7.5000000e-01 3.0000000e+00 6.5000000e+00 
7.5000000e-01 3.0000000e+00 7.0000000e+00 
7.5000000e-01 3.0000000e+00 7.5000000e+00 
7.5000000e-01 3.0000000e+00 8.0000000e+00 
7.5000000e-01 3.0000000e+00 8.5000000e+00 
7.5000000e-01 3.0000000e+00 9.0000000e+00 
7.5000000e-01 3.0000000e+00 9.5000000e+00 
7.5000000e-01 3.0000000e+00 1.0000000e+01 
7.5000000e-01 3.0000000e+00 1.0500000e+01 
7.5000000e-01 3.0000000e+00 1.1000000e+01 
7.5000000e-01 3.0000000e+00 1.1500000e+01 
7.5000000e-01 3.0000000e+00 1.2000000e+01 
7.5000000e-01 3.0000000e+00 1.2500000e+01 
7.5000000e-01 3.0000000e+00 1.3000000e+01 
7.5000000e-01 3.0000000e+00 1.3500000e+01 
7.5000000e-01 3.0000000e+00 1.4000000e+01 
7.5000000e-01 3.0000000e+00 1.4500000e+01 
7.5000000e-01 3.0000000e+00 1.5000000e+01 
7.5000000e-01 3.0000000e+00 1.5500000e+01 
7.5000000e-01 3.0000000e+00 1.6000000e+01 
7.5000000e-01 3.0000000e+00 1.6500000e+01 
7.5000000e-01 3.0000000e+00 1.7000000e+01 
7.5000000e-01 3.0000000e+00 1.7500000e+01 
7.5000000e-01 3.0000000e+00 1.8000000e+01 
7.5000000e-01 3.0000000e+00 1.8500000e+01 
7.5000000e-01 3.0000000e+00 1.9000000e+01 
7.5000000e-01 3.0000000e+00 1.9500000e+01 
7.5000000e-01 3.0000000e+00 2.0000000e+01 
7.5000000e-01 3.0000000e+00 2.0500000e+01 
7.5000000e-01 3.0000000e+00 2.1000000e+01 
7.5000000e-01 3.0000000e+00 2.1500000e+01 
7.5000000e-01 3.0000000e+00 2.2000000e+01 
7.5000000e-01 3.0000000e+00 2.2500000e+01 
7.5000000e-01 3.0000000e+00 2.3000000e+01 
7.5000000e-01 3.0000000e+00 2.3500000e+01 
7.5000000e-01 3.0000000e+00 2.4000000e+01 
7.5000000e-01 3.0000000e+00 2.4500000e+01 
7.5000000e-01 3.0000000e+00 2.5000000e+01 
7.5000000e-01 3.0000000e+00 2.5500000e+01 
7.5000000e-01 3.0000000e+00 2.6000000e+01 
7.5000000e-01 3.0000000e+00 2.6500000e+01 
7.5000000e-01 3.0000000e+00 2.7000000e+01 
7.5000000e-01 3.0000000e+00 2.7500000e+01 
7.5000000e-01 3.0000000e+00 2.8000000e+01 
7.5000000e-01 3.0000000e+00 2.8500000e+01 
7.5000000e-01 3.0000000e+00 2.9000000e+01 
7.5000000e-01 3.0000000e+00 2.9500000e+01 
7.5000000e-01 3.0000000e+00 3.0000000e+01 
7.5000000e-01 3.0000000e+00 3.0500000e+01 
7.5000000e-01 3.0000000e+00 3.1000000e+01 
7.5000000e-01 3.0000000e+00 3.1500000e+01 
7.5000000e-01 3.0000000e+00 3.2000000e+01 
7.5000000e-01 3.0000000e+00 3.2500000e+01 
7.5000000e-01 3.0000000e+00 3.3000000e+01 
7.5000000e-01 3.0000000e+00 3.3500000e+01 
7.5000000e-01 3.0000000e+00 3.4000000e+01 
7.5000000e-01 3.0000000e+00 3.4500000e+01 
7.5000000e-01 3.0000000e+00 3.5000000e+01 
7.5000000e-01 3.0000000e+00 3.5500000e+01 
7.5000000e-01 3.0000000e+00 3.6000000e+01 
7.5000000e-01 3.0000000e+00 3.6500000e+01 
7.5000000e-01 3.0000000e+00 3.7000000e+01 
7.5000000e-01 3.0000000e+00 3.7500000e+01 
7.5000000e-01 3.0000000e+00 3.8000000e+01 
7.5000000e-01 3.0000000e+00 3.8500000e+01 
7.5000000e-01 3.0000000e+00 3.9000000e+01 
7.5000000e-01 3.0000000e+00 3.9500000e+01 
7.5000000e-01 3.0250001e+00 0.0000000e+00 
7.5000000e-01 3.0250001e+00 5.0000000e-01 
7.5000000e-01 3.0250001e+00 1.0000000e+00 
7.5000000e-01 3.0250001e+00 1.5000000e+00 
7.5000000e-01 3.0250001e+00 2.0000000e+00 
7.5000000e-01 3.0250001e+00 2.5000000e+00 
7.5000000e-01 3.0250001e+00 3.0000000e+00 
7.5000000e-01 3.0250001e+00 3.5000000e+00 
7.5000000e-01 3.0250001e+00 4.0000000e+00 
7.5000000e-01 3.0250001e+00 4.5000000e+00 
7.5000000e-01 3.0250001e+00 5.0000000e+00 
7.5000000e-01 3.0250001e+00 5.5000000e+00 
7.5000000e-01 3.0250001e+00 6.0000000e+00 
7.5000000e-01 3.0250001e+00 6.5000000e+00 
7.5000000e-01 3.0250001e+00 7.0000000e+00 
7.5000000e-01 3.0250001e+00 7.5000000e+00 
7.5000000e-01 3.0250001e+00 8.0000000e+00 
7.5000000e-01 3.0250001e+00 8.5000000e+00 
7.5000000e-01 3.0250001e+00 9.0000000e+00 
7.5000000e-01 3.0250001e+00 9.5000000e+00 
7.5000000e-01 3.0250001e+00 1.0000000e+01 
7.5000000e-01 3.0250001e+00 1.0500000e+01 
7.5000000e-01 3.0250001e+00 1.1000000e+01 
7.5000000e-01 3.0250001e+00 1.1500000e+01 
7.5000000e-01 3.0250001e+00 1.2000000e+01 
7.5000000e-01 3.0250001e+00 1.2500000e+01 
7.5000000e-01 3.0250001e+00 1.3000000e+01 
7.5000000e-01 3.0250001e+00 1.3500000e+01 
7.5000000e-01 3.0250001e+00 1.4000000e+01 
7.5000000e-01 3.0250001e+00 1.4500000e+01 
7.5000000e-01 3.0250001e+00 1.5000000e+01 
7.5000000e-01 3.0250001e+00 1.5500000e+01 
7.5000000e-01 3.0250001e+00 1.6000000e+01 
7.5000000e-01 3.0250001e+00 1.6500000e+01 
7.5000000e-01 3.0250001e+00 1.7000000e+01 
7.5000000e-01 3.0250001e+00 1.7500000e+01 
7.5000000e-01 3.0250001e+00 1.8000000e+01 
7.5000000e-01 3.0250001e+00 1.8500000e+01 
7.5000000e-01 3.0250001e+00 1.9000000e+01 
7.5000000e-01 3.0250001e+00 1.9500000e+01 
7.5000000e-01 3.0250001e+00 2.0000000e+01 
7.5000000e-01 3.0250001e+00 2.0500000e+01 
7.5000000e-01 3.0250001e+00 2.1000000e+01 
7.5000000e-01 3.0250001e+00 2.1500000e+01 
7.5000000e-01 3.0250001e+00 2.2000000e+01 
7.5000000e-01 3.0250001e+00 2.2500000e+01 
7.5000000e-01 3.0250001e+00 2.3000000e+01 
7.5000000e-01 3.0250001e+00 2.3500000e+01 
7.5000000e-01 3.0250001e+00 2.4000000e+01 
7.5000000e-01 3.0250001e+00 2.4500000e+01 
7.5000000e-01 3.0250001e+00 2.5000000e+01 
7.5000000e-01 3.0250001e+00 2.5500000e+01 
7.5000000e-01 3.0250001e+00 2.6000000e+01 
7.5000000e-01 3.0250001e+00 2.6500000e+01 
7.5000000e-01 3.0250001e+00 2.7000000e+01 
7.5000000e-01 3.0250001e+00 2.7500000e+01 
7.5000000e-01 3.0250001e+00 2.8000000e+01 
7.5000000e-01 3.0250001e+00 2.8500000e+01 
7.5000000e-01 3.0250001e+00 2.9000000e+01 
7.5000000e-01 3.0250001e+00 2.9500000e+01 
7.5000000e-01 3.0250001e+00 3.0000000e+01 
7.5000000e-01 3.0250001e+00 3.0500000e+01 
7.5000000e-01 3.0250001e+00 3.1000000e+01 
7.5000000e-01 3.0250001e+00 3.1500000e+01 
7.5000000e-01 3.0250001e+00 3.2000000e+01 
7.5000000e-01 3.0250001e+00 3.2500000e+01 
7.5000000e-01 3.0250001e+00 3.3000000e+01 
7.5000000e-01 3.0250001e+00 3.3500000e+01 
7.5000000e-01 3.0250001e+00 3.4000000e+01 
7.5000000e-01 3.0250001e+00 3.4500000e+01 
7.5000000e-01 3.0250001e+00 3.5000000e+01 
7.5000000e-01 3.0250001e+00 3.5500000e+01 
7.5000000e-01 3.0250001e+00 3.6000000e+01 
7.5000000e-01 3.0250001e+00 3.6500000e+01 
7.5000000e-01 3.0250001e+00 3.7000000e+01 
7.5000000e-01 3.0250001e+00 3.7500000e+01 
7.5000000e-01 3.0250001e+00 3.8000000e+01 
7.5000000e-01 3.0250001e+00 3.8500000e+01 
7.5000000e-01 3.0250001e+00 3.9000000e+01 
7.5000000e-01 3.0250001e+00 3.9500000e+01 
7.5000000e-01 3.0250001e+00 4.0000000e+01 
3.0000000e+00 2.0000000e+00 3.6000000e+01 
8.0487806e-01 3.0000000e+00 3.6000000e+01 
0.0000000e+00 0.0000000e+00 2.0000000e+00 
0.0000000e+00 0.0000000e+00 4.0000000e+00 
0.0000000e+00 0.0000000e+00 6.0000000e+00 
0.0000000e+00 0.0000000e+00 8.0000000e+00 
0.0000000e+00 0.0000000e+00 1.0000000e+01 
0.0000000e+00 0.0000000e+00 1.2000000e+01 
0.0000000e+00 0.0000000e+00 1.4000000e+01 
0.0000000e+00 0.0000000e+00 1.6000000e+01 
0.0000000e+00 0.0000000e+00 1.8000000e+01 
0.0000000e+00 0.0000000e+00 2.0000000e+01 
0.0000000e+00 0.0000000e+00 2.2000000e+01 
0.0000000e+00 0.0000000e+00 2.4000000e+01 
0.0000000e+00 0.0000000e+00 2.6000000e+01 
0.0000000e+00 0.0000000e+00 2.8000000e+01 
0.0000000e+00 0.0000000e+00 3.0000000e+01 
0.0000000e+00 0.0000000e+00 3.2000000e+01 
0.0000000e+00 0.0000000e+00 3.4000000e+01 
0.0000000e+00 0.0000000e+00 3.6000000e+01 
0.0000000e+00 0.0000000e+00 3.8000000e+01 
5.0000000e+00 0.0000000e+00 2.0000000e+00 
5.0000000e+00 0.0000000e+00 4.0000000e+00 
5.0000000e+00 0.0000000e+00 6.0000000e+00 
5.0000000e+00 0.0000000e+00 8.0000000e+00 
5.0000000e+00 0.0000000e+00 1.0000000e+01 
5.0000000e+00 0.0000000e+00 1.2000000e+01 
5.0000000e+00 0.0000000e+00 1.4000000e+01 
5.0000000e+00 0.0000000e+00 1.6000000e+01 
5.0000000e+00 0.0000000e+00 1.8000000e+01 
5.0000000e+00 0.0000000e+00 2.0000000e+01 
5.0000000e+00 0.0000000e+00 2.2000000e+01 
5.0000000e+00 0.0000000e+00 2.4000000e+01 
5.0000000e+00 0.0000000e+00 2.6000000e+01 
5.0000000e+00 0.0000000e+00 2.8000000e+01 
5.0000000e+00 0.0000000e+00 3.0000000e+01 
5.0000000e+00 0.0000000e+00 3.2000000e+01 
5.0000000e+00 0.0000000e+00 3.4000000e+01 
5.0000000e+00 0.0000000e+00 3.6000000e+01 
5.0000000e+00 0.0000000e+00 3.8000000e+01 
1.6666666e+00 0.0000000e+00 0.0000000e+00 
3.3333333e+00 0.0000000e+00 0.0000000e+00 
1.6666666e+00 0.0000000e+00 4.0000000e+01 
3.3333333e+00 0.0000000e+00 4.0000000e+01 
5.0000000e+00 1.0000000e+00 2.0000000e+00 
5.0000000e+00 1.0000000e+00 4.0000000e+00 
5.0000000e+00 1.0000000e+00 6.0000000e+00 
5.0000000e+00 1.0000000e+00 8.0000000e+00 
5.0000000e+00 1.0000000e+00 1.0000000e+01 
5.0000000e+00 1.0000000e+00 1.2000000e+01 
[...]
POINT_DATA 621
FIELD FieldData 3
DISPLACEMENT 3 621  float
0.0000000e+00 0.0000000e+00 0.0000000e+00 
0.0000000e+00 0.0000000e+00 0.0000000e+00 
0.0000000e+00 0.0000000e+00 0.0000000e+00 
0.0000000e+00 0.0000000e+00 0.0000000e+00 
-1.5502097e-06 -2.1173541e-06 1.1554440e-07 
3.4083430e-07 7.7899256e-07 1.3753464e-06 
0.0000000e+00 1.8442101e-05 0.0000000e+00 
0.0000000e+00 -1.2376911e-05 0.0000000e+00 
-6.1452793e-06 -2.0240086e-06 8.9505960e-08 
-2.6390201e-06 2.0992325e-06 -1.3000407e-06 
-2.0258976e-06 -1.0755673e-05 -1.2624799e-05 
-1.5686902e-06 -2.7779799e-06 -5.9292752e-06 
0.0000000e+00 3.2627508e-05 0.0000000e+00 
0.0000000e+00 -2.2769413e-05 0.0000000e+00 
9.0209860e-06 2.0428759e-05 -5.8951671e-05 
-1.1656386e-05 -1.8540766e-05 -2.6577218e-05 
4.3344489e-06 7.4705102e-05 -1.8516066e-05 
3.3168155e-06 -3.9847600e-05 -3.7035043e-05 
0.0000000e+00 4.6008907e-05 0.0000000e+00 
0.0000000e+00 -3.6142261e-05 0.0000000e+00 
2.8254823e-05 7.8199388e-05 -4.7037985e-05 
3.7394228e-05 8.8499233e-05 -3.8624839e-05 
4.2975822e-05 1.0297848e-04 -3.4091088e-05 
4.5976776e-05 1.2176301e-04 -2.1840071e-05 
4.7740057e-05 1.4386280e-04 5.7724023e-08 
4.3388703e-05 1.6412305e-04 1.4050106e-05 
3.0007399e-05 1.7080909e-04 3.4772707e-05 
1.9149942e-05 1.3376934e-04 5.3410175e-05 
-1.3720057e-05 1.1202945e-05 8.9544541e-05 
-2.4886218e-05 -2.3757681e-04 1.2478785e-04 
-5.8650327e-05 -6.7351724e-04 1.7104829e-04 
-1.1441379e-04 -1.3382663e-03 1.1317762e-04 
-2.5086204e-04 -2.2494423e-03 1.9040304e-04 
-2.5192936e-04 -3.2360135e-03 1.7271371e-04 
-1.3648655e-04 -4.0036300e-03 1.0251205e-04 
-1.0101488e-04 -4.0179361e-03 1.0073682e-04 
-2.4345767e-04 -3.8424779e-03 3.1417825e-05 
-3.1513837e-04 -3.8366434e-03 9.8293549e-06 
-2.0231849e-04 -4.1034794e-03 -3.1542309e-05 
-4.6942823e-05 -4.1374327e-03 -8.0813727e-05 
-8.0821723e-05 -3.4466733e-03 -1.5957281e-04 
-1.7997457e-04 -2.4150545e-03 -1.7178271e-04 
-1.8953574e-04 -1.5126930e-03 -1.4896093e-04 
-7.9885118e-05 -8.2570175e-04 -7.7516197e-05 
-4.3708871e-05 -3.9142306e-04 -1.0940892e-04 
-2.9932988e-05 -1.4670161e-04 -7.6741519e-05 
-3.0010800e-05 -3.0826654e-05 -5.6252393e-05 
-2.0991009e-05 6.7258893e-06 -3.9335657e-05 
-1.2822476e-05 -1.8797317e-07 -2.4551589e-05 
-5.0443582e-06 -2.6527960e-05 -1.5275878e-05 
-3.5629710e-06 -5.5192195e-05 -1.5489582e-05 
-1.0045525e-05 -7.9349695e-05 -1.4001309e-05 
-1.2953618e-05 -9.5390213e-05 5.5146247e-06 
-1.5027649e-05 -1.0525393e-04 2.5352154e-05 
-3.3320783e-05 -1.1232357e-04 5.7964782e-05 
-5.1762134e-05 -1.1657799e-04 8.3032159e-05 
-5.1750416e-05 -1.1666141e-04 6.2129802e-05 
-5.4982840e-05 -1.1193471e-04 2.8855158e-05 
-3.9458784e-05 -1.0074543e-04 -1.5387343e-05 
-1.6650109e-05 -8.1520644e-05 -6.1211096e-05 
2.7184146e-06 -5.0981351e-05 -7.5700045e-05 
1.6677681e-05 -1.1947955e-05 -7.6152341e-05 
3.1637763e-05 3.3959823e-05 -7.8492572e-05 
4.0958927e-05 8.2553081e-05 -6.7127454e-05 
4.9884307e-05 1.2880242e-04 -4.4189102e-05 
5.3720818e-05 1.6567165e-04 -1.7565846e-05 
4.1634466e-05 1.8017818e-04 1.0733097e-05 
2.9535955e-05 1.4282357e-04 3.8091144e-05 
-1.3242992e-05 8.7875078e-06 6.9495174e-05 
-2.2268441e-05 -2.6593124e-04 1.0034478e-04 
-3.7288435e-05 -7.4659905e-04 1.3701101e-04 
-8.4408115e-05 -1.4692582e-03 6.8476525e-05 
-2.2938484e-04 -2.4383406e-03 1.6779517e-04 
-2.3349287e-04 -3.4360683e-03 1.6683104e-04 
-1.3450369e-04 -4.0979395e-03 1.3571186e-04 
-1.0328392e-04 -4.0223496e-03 1.8391426e-04 
-2.5293804e-04 -3.8775618e-03 1.2933501e-04 
-3.2123842e-04 -3.9421287e-03 1.1170841e-04 
-2.1289365e-04 -4.2427136e-03 7.2547147e-05 
-7.6780780e-05 -4.1753585e-03 3.9801394e-05 
-1.2386596e-04 -3.3867029e-03 -1.0311094e-04 
-2.3012362e-04 -2.3558042e-03 -1.6348888e-04 
-2.2277475e-04 -1.4786632e-03 -1.9056772e-04 
-1.0176168e-04 -8.1391004e-04 -1.6705394e-04 
-5.4358334e-05 -3.8322265e-04 -2.0975059e-04 
-2.9624793e-05 -1.2582395e-04 -1.8057198e-04 
-1.7883574e-05 1.5556947e-05 -1.6582270e-04 
2.4276878e-06 8.5749569e-05 -1.4072351e-04 
2.4112091e-05 1.1188420e-04 -9.2895942e-05 
4.1633128e-05 1.1447312e-04 -4.4056171e-05 
3.4401779e-05 1.0480844e-04 -7.2801608e-06 
2.5205156e-05 8.7378459e-05 2.7643284e-05 
2.0421587e-05 6.3837040e-05 4.9510469e-05 
1.3841323e-05 3.7402606e-05 5.9262034e-05 
3.8328321e-06 1.1252406e-05 6.6886831e-05 
-5.6307549e-06 -1.0448393e-05 6.1581231e-05 
-8.7825765e-06 -2.5728619e-05 4.4613811e-05 
-1.2829566e-05 -3.4804252e-05 2.0923864e-05 
-8.6287409e-06 -3.8999213e-05 -3.5207090e-06 
0.0000000e+00 7.4753829e-05 0.0000000e+00 
0.0000000e+00 7.8341312e-05 0.0000000e+00 
0.0000000e+00 8.8373890e-05 0.0000000e+00 
0.0000000e+00 1.0300914e-04 0.0000000e+00 
0.0000000e+00 1.2194113e-04 0.0000000e+00 
0.0000000e+00 1.4422253e-04 0.0000000e+00 
0.0000000e+00 1.6515824e-04 0.0000000e+00 
0.0000000e+00 1.7145749e-04 0.0000000e+00 
0.0000000e+00 1.3382816e-04 0.0000000e+00 
0.0000000e+00 1.2319283e-05 0.0000000e+00 
0.0000000e+00 -2.3823399e-04 0.0000000e+00 
0.0000000e+00 -6.7500782e-04 0.0000000e+00 
0.0000000e+00 -1.3473107e-03 0.0000000e+00 
0.0000000e+00 -2.2569024e-03 0.0000000e+00 
0.0000000e+00 -3.2675739e-03 0.0000000e+00 
0.0000000e+00 -4.0274500e-03 0.0000000e+00 
0.0000000e+00 -4.0485137e-03 0.0000000e+00 
0.0000000e+00 -3.8562766e-03 0.0000000e+00 
0.0000000e+00 -3.8673007e-03 0.0000000e+00 
0.0000000e+00 -4.1234531e-03 0.0000000e+00 
0.0000000e+00 -4.1719843e-03 0.0000000e+00 
0.0000000e+00 -3.4648292e-03 0.0000000e+00 
0.0000000e+00 -2.4336930e-03 0.0000000e+00 
0.0000000e+00 -1.5149759e-03 0.0000000e+00 
0.0000000e+00 -8.2999788e-04 0.0000000e+00 
0.0000000e+00 -3.9126069e-04 0.0000000e+00 
0.0000000e+00 -1.4581985e-04 0.0000000e+00 
0.0000000e+00 -2.9880775e-05 0.0000000e+00 
0.0000000e+00 7.1560939e-06 0.0000000e+00 
0.0000000e+00 1.9699789e-07 0.0000000e+00 
0.0000000e+00 -2.6015983e-05 0.0000000e+00 
0.0000000e+00 -5.5022654e-05 0.0000000e+00 
0.0000000e+00 -7.9084362e-05 0.0000000e+00 
0.0000000e+00 -9.5332063e-05 0.0000000e+00 
0.0000000e+00 -1.0545547e-04 0.0000000e+00 
0.0000000e+00 -1.1242437e-04 0.0000000e+00 
0.0000000e+00 -1.1657329e-04 0.0000000e+00 
0.0000000e+00 -1.1674094e-04 0.0000000e+00 
0.0000000e+00 -1.1194705e-04 0.0000000e+00 
0.0000000e+00 -1.0081191e-04 0.0000000e+00 
0.0000000e+00 -8.1193801e-05 0.0000000e+00 
0.0000000e+00 -5.1027633e-05 0.0000000e+00 
0.0000000e+00 -1.1833323e-05 0.0000000e+00 
0.0000000e+00 3.3991797e-05 0.0000000e+00 
0.0000000e+00 8.2592960e-05 0.0000000e+00 
0.0000000e+00 1.2912034e-04 0.0000000e+00 
0.0000000e+00 1.6660172e-04 0.0000000e+00 
0.0000000e+00 1.8101721e-04 0.0000000e+00 
0.0000000e+00 1.4296954e-04 0.0000000e+00 
0.0000000e+00 9.9639037e-06 0.0000000e+00 
0.0000000e+00 -2.6707875e-04 0.0000000e+00 
0.0000000e+00 -7.4854534e-04 0.0000000e+00 
0.0000000e+00 -1.4799926e-03 0.0000000e+00 
0.0000000e+00 -2.4473930e-03 0.0000000e+00 
0.0000000e+00 -3.4713079e-03 0.0000000e+00 
0.0000000e+00 -4.1220491e-03 0.0000000e+00 
0.0000000e+00 -4.0525077e-03 0.0000000e+00 
0.0000000e+00 -3.8911423e-03 0.0000000e+00 
0.0000000e+00 -3.9742766e-03 0.0000000e+00 
0.0000000e+00 -4.2643514e-03 0.0000000e+00 
0.0000000e+00 -4.2094700e-03 0.0000000e+00 
0.0000000e+00 -3.4031973e-03 0.0000000e+00 
0.0000000e+00 -2.3720034e-03 0.0000000e+00 
0.0000000e+00 -1.4803607e-03 0.0000000e+00 
0.0000000e+00 -8.1739499e-04 0.0000000e+00 
0.0000000e+00 -3.8301473e-04 0.0000000e+00 
0.0000000e+00 -1.2489523e-04 0.0000000e+00 
0.0000000e+00 1.6538506e-05 0.0000000e+00 
0.0000000e+00 8.6123095e-05 0.0000000e+00 
0.0000000e+00 1.1237186e-04 0.0000000e+00 
0.0000000e+00 1.1483567e-04 0.0000000e+00 
0.0000000e+00 1.0493149e-04 0.0000000e+00 
0.0000000e+00 8.7282235e-05 0.0000000e+00 
0.0000000e+00 6.3837462e-05 0.0000000e+00 
0.0000000e+00 3.7385729e-05 0.0000000e+00 
0.0000000e+00 1.1377931e-05 0.0000000e+00 
0.0000000e+00 -1.0346833e-05 0.0000000e+00 
0.0000000e+00 -2.5692516e-05 0.0000000e+00 
0.0000000e+00 -3.4797496e-05 0.0000000e+00 
0.0000000e+00 -3.8990056e-05 0.0000000e+00 
0.0000000e+00 -3.9963808e-05 0.0000000e+00 
3.0031067e-06 2.6398653e-05 3.6917886e-06 
2.6510235e-05 8.9498717e-05 2.7752370e-05 
0.0000000e+00 0.0000000e+00 0.0000000e+00 
0.0000000e+00 0.0000000e+00 0.0000000e+00 
0.0000000e+00 0.0000000e+00 0.0000000e+00 
0.0000000e+00 0.0000000e+00 0.0000000e+00 
0.0000000e+00 0.0000000e+00 0.0000000e+00 
0.0000000e+00 0.0000000e+00 0.0000000e+00 
0.0000000e+00 0.0000000e+00 0.0000000e+00 
0.0000000e+00 0.0000000e+00 0.0000000e+00 
0.0000000e+00 0.0000000e+00 0.0000000e+00 
0.0000000e+00 0.0000000e+00 0.0000000e+00 
0.0000000e+00 0.0000000e+00 0.0000000e+00 
0.0000000e+00 0.0000000e+00 0.0000000e+00 
0.0000000e+00 0.0000000e+00 0.0000000e+00 
0.0000000e+00 0.0000000e+00 0.0000000e+00 
0.0000000e+00 0.0000000e+00 0.0000000e+00 
0.0000000e+00 0.0000000e+00 0.0000000e+00 
0.0000000e+00 0.0000000e+00 0.0000000e+00 
0.0000000e+00 0.0000000e+00 0.0000000e+00 
0.0000000e+00 0.0000000e+00 0.0000000e+00 
0.0000000e+00 0.0000000e+00 0.0000000e+00 
0.0000000e+00 0.0000000e+00 0.0000000e+00 
0.0000000e+00 0.0000000e+00 0.0000000e+00 
0.0000000e+00 0.0000000e+00 0.0000000e+00 
0.0000000e+00 0.0000000e+00 0.0000000e+00 
0.0000000e+00 0.0000000e+00 0.0000000e+00 
0.0000000e+00 0.0000000e+00 0.0000000e+00 
0.0000000e+00 0.0000000e+00 0.0000000e+00 
0.0000000e+00 0.0000000e+00 0.0000000e+00 
0.0000000e+00 0.0000000e+00 0.0000000e+00 
0.0000000e+00 0.0000000e+00 0.0000000e+00 
0.0000000e+00 0.0000000e+00 0.0000000e+00 
0.0000000e+00 0.0000000e+00 0.0000000e+00 
0.0000000e+00 0.0000000e+00 0.0000000e+00 
0.0000000e+00 0.0000000e+00 0.0000000e+00 
0.0000000e+00 0.0000000e+00 0.0000000e+00 
0.0000000e+00 0.0000000e+00 0.0000000e+00 
0.0000000e+00 0.0000000e+00 0.0000000e+00 
0.0000000e+00 0.0000000e+00 0.0000000e+00 
0.0000000e+00 0.0000000e+00 0.0000000e+00 
0.0000000e+00 0.0000000e+00 0.0000000e+00 
0.0000000e+00 0.0000000e+00 0.0000000e+00 
0.0000000e+00 0.0000000e+00 0.0000000e+00 
-4.1250760e-06 -2.6718042e-06 -4.0168325e-06 
6.7671785e-06 9.6394820e-07 -1.0765350e-05 
3.0417454e-05 -3.2302719e-06 -1.3986048e-05 
4.5342345e-05 -1.3717695e-05 -7.5645685e-06 
4.5118843e-05 -8.7734925e-06 2.0601240e-06 
1.8902902e-05 -7.5933787e-07 -1.7785801e-06 
5.3270692e-06 2.2927306e-06 4.3642108e-06 
5.2363375e-06 1.2902478e-06 8.0459768e-06 
2.0160805e-06 -5.2883993e-06 5.0763742e-06 
-3.3941865e-06 -4.6957921e-06 2.2900842e-06 
-5.9020017e-06 3.9312445e-06 -1.4134113e-06 
6.5505988e-06 -2.1116177e-06 -6.9624816e-06 
2.7873299e-05 -5.4851066e-06 -7.3488409e-06 
4.8568854e-05 -9.0539543e-06 -2.9473308e-06 
4.7358491e-05 -1.2462276e-05 3.8431303e-06 
2.1289010e-05 -5.3249655e-06 3.8681492e-06 
1.4320325e-06 6.3671409e-06 8.8908282e-06 
-3.1313348e-06 2.2639865e-06 4.9156151e-06 
1.4625382e-06 -4.7375788e-06 2.9650005e-06 
0.0000000e+00 4.3879711e-05 0.0000000e+00 
0.0000000e+00 3.0943742e-05 0.0000000e+00 
0.0000000e+00 -1.8880931e-04 0.0000000e+00 
0.0000000e+00 -5.1395455e-04 0.0000000e+00 
0.0000000e+00 -4.7588695e-04 0.0000000e+00 
0.0000000e+00 -1.6072456e-04 0.0000000e+00 
0.0000000e+00 -2.9839390e-05 0.0000000e+00 
0.0000000e+00 -3.2838729e-05 0.0000000e+00 
0.0000000e+00 -4.1194380e-05 0.0000000e+00 
0.0000000e+00 -3.9789054e-05 0.0000000e+00 
0.0000000e+00 2.9724824e-05 0.0000000e+00 
0.0000000e+00 3.1503525e-05 0.0000000e+00 
0.0000000e+00 -1.8778205e-04 0.0000000e+00 
0.0000000e+00 -4.9881928e-04 0.0000000e+00 
0.0000000e+00 -5.1178678e-04 0.0000000e+00 
0.0000000e+00 -1.8454365e-04 0.0000000e+00 
0.0000000e+00 9.1436395e-06 0.0000000e+00 
0.0000000e+00 3.8752569e-05 0.0000000e+00 
0.0000000e+00 -9.7421498e-06 0.0000000e+00 
-3.6312206e-06 -6.7968535e-06 -1.5932289e-06 
-6.9883999e-06 2.3049431e-06 1.3092834e-06 
-1.5767297e-07 -9.6712438e-07 -2.0673906e-06 
1.5647894e-06 -7.8254434e-06 8.8069601e-07 
1.7495187e-06 -2.1526748e-06 -8.0902510e-06 
1.8867997e-05 1.0997295e-06 -1.7088578e-05 
3.7697846e-05 1.0846718e-06 -5.9142021e-06 
4.8930244e-05 -2.2647487e-06 -5.0194790e-06 
3.3759541e-05 -8.5473548e-06 -8.6290891e-07 
1.1576351e-05 1.5176942e-06 -1.0054561e-05 
1.7418411e-06 3.4819802e-06 4.4689496e-06 
4.6406712e-06 -4.3991452e-07 1.2341990e-05 
-2.4545864e-06 -7.3842689e-06 9.4788566e-06 
-1.0901125e-05 -4.7041963e-06 -1.8003028e-06 
-4.0064647e-06 5.0183776e-06 -8.6625178e-06 
2.2363376e-05 -2.7981741e-06 -8.6033606e-06 
3.0186406e-05 -2.9816670e-06 -4.8741782e-07 
3.9455390e-05 -8.5732245e-06 4.5068164e-06 
2.5964557e-05 -1.0020098e-05 4.9494120e-06 
5.0040981e-06 -1.2773387e-06 -7.8928579e-06 
3.5416838e-06 6.6299763e-06 3.2923340e-06 
1.7203075e-06 7.3151284e-08 7.3280326e-06 
3.3269775e-06 -4.4371218e-06 5.0928193e-06 
8.5435637e-08 1.3822957e-05 -1.3622513e-05 
0.0000000e+00 8.2952385e-05 0.0000000e+00 
0.0000000e+00 6.5805551e-05 0.0000000e+00 
0.0000000e+00 -4.0492977e-04 0.0000000e+00 
0.0000000e+00 -1.1448615e-03 0.0000000e+00 
0.0000000e+00 -1.0795364e-03 0.0000000e+00 
0.0000000e+00 -3.0131266e-04 0.0000000e+00 
0.0000000e+00 -3.7270958e-05 0.0000000e+00 
0.0000000e+00 -5.9478290e-05 0.0000000e+00 
0.0000000e+00 -7.1195245e-05 0.0000000e+00 
0.0000000e+00 -6.9462789e-05 0.0000000e+00 
0.0000000e+00 5.6633493e-05 0.0000000e+00 
0.0000000e+00 6.7044683e-05 0.0000000e+00 
0.0000000e+00 -4.2034010e-04 0.0000000e+00 
0.0000000e+00 -1.1303244e-03 0.0000000e+00 
0.0000000e+00 -1.1365595e-03 0.0000000e+00 
0.0000000e+00 -3.3691217e-04 0.0000000e+00 
0.0000000e+00 2.4176717e-05 0.0000000e+00 
0.0000000e+00 6.4916298e-05 0.0000000e+00 
0.0000000e+00 -1.5285741e-05 0.0000000e+00 
-2.4525502e-06 -1.2983430e-05 1.8187201e-07 
6.5946784e-05 7.6052114e-05 -1.6541184e-05 
4.8340793e-05 1.1627704e-04 7.2720257e-05 
-2.6264254e-04 -3.9551713e-04 3.1925100e-04 
-6.4308487e-04 -1.2930536e-03 1.0146717e-04 
-5.7875423e-04 -1.3959781e-03 -1.8241673e-04 
-1.7347210e-04 -2.2945860e-04 -2.0735984e-04 
1.7435191e-06 -1.6955162e-05 -4.5606746e-05 
-2.1668176e-05 -5.5526987e-05 -2.0355626e-05 
-7.2049428e-05 -8.2207451e-05 9.8200326e-05 
-2.3849969e-05 -6.0596962e-05 -9.5629308e-05 
5.7519497e-05 3.4253368e-05 -9.1066213e-05 
5.6395991e-05 1.4789315e-04 7.2571667e-05 
-2.5041911e-04 -4.0463620e-04 2.7301235e-04 
-6.4306631e-04 -1.2557862e-03 1.7942919e-04 
-6.1929703e-04 -1.4377161e-03 -4.1081508e-05 
-1.8072309e-04 -2.7815689e-04 -3.0481737e-04 
2.5989419e-05 4.2968655e-05 -1.7236813e-04 
3.2051710e-05 6.7957990e-05 3.7543701e-05 
-1.8425682e-06 -9.2915889e-06 7.4441559e-05 
0.0000000e+00 1.0772170e-04 0.0000000e+00 
0.0000000e+00 1.2889646e-04 0.0000000e+00 
0.0000000e+00 -7.7733031e-04 0.0000000e+00 
0.0000000e+00 -2.2532034e-03 0.0000000e+00 
0.0000000e+00 -2.1070961e-03 0.0000000e+00 
0.0000000e+00 -5.0967583e-04 0.0000000e+00 
0.0000000e+00 -1.5297817e-06 0.0000000e+00 
0.0000000e+00 -8.7483146e-05 0.0000000e+00 
0.0000000e+00 -8.3699742e-05 0.0000000e+00 
0.0000000e+00 -8.3626212e-05 0.0000000e+00 
0.0000000e+00 6.8254943e-05 0.0000000e+00 
0.0000000e+00 1.3207964e-04 0.0000000e+00 
0.0000000e+00 -8.5098168e-04 0.0000000e+00 
0.0000000e+00 -2.2794255e-03 0.0000000e+00 
0.0000000e+00 -2.1597319e-03 0.0000000e+00 
0.0000000e+00 -5.2387634e-04 0.0000000e+00 
0.0000000e+00 6.5182445e-05 0.0000000e+00 
0.0000000e+00 8.1270053e-05 0.0000000e+00 
0.0000000e+00 -1.8163364e-05 0.0000000e+00 
9.4451552e-06 1.9223407e-05 -1.0510458e-05 
2.9012979e-05 3.5585104e-05 4.4952503e-06 
5.1036859e-05 -2.5874204e-05 5.3130930e-06 
5.3190579e-05 -1.0350718e-04 -2.2024160e-05 
4.7417434e-05 -8.2960476e-05 -8.4494832e-06 
3.3597025e-05 -4.0508763e-05 -2.7703616e-06 
7.6280103e-06 -6.6398798e-06 -8.5627080e-06 
-6.8561117e-06 -4.2193560e-06 3.5152882e-06 
-1.7617034e-05 -1.7590111e-05 1.3506546e-05 
-8.1357393e-06 -2.3166029e-05 -1.2212121e-05 
2.7727656e-06 1.5033469e-05 -1.5164441e-05 
2.7386577e-05 4.5074699e-05 4.6346036e-06 
6.4948050e-05 -3.4672776e-05 4.5204870e-06 
6.1569815e-05 -7.9524631e-05 9.7058410e-06 
3.5362300e-05 -1.0962057e-04 2.0805777e-05 
2.5640185e-05 -7.1269897e-05 -1.4574830e-05 
-3.5599280e-07 2.0240423e-05 -3.6928592e-05 
1.4669077e-06 -4.1652884e-06 1.4129160e-05 
2.0533093e-05 5.4354186e-05 2.2444572e-05 
0.0000000e+00 0.0000000e+00 0.0000000e+00 
0.0000000e+00 0.0000000e+00 0.0000000e+00 
0.0000000e+00 0.0000000e+00 0.0000000e+00 
0.0000000e+00 0.0000000e+00 0.0000000e+00 
0.0000000e+00 0.0000000e+00 0.0000000e+00 
0.0000000e+00 0.0000000e+00 0.0000000e+00 
0.0000000e+00 0.0000000e+00 0.0000000e+00 
0.0000000e+00 0.0000000e+00 0.0000000e+00 
0.0000000e+00 0.0000000e+00 0.0000000e+00 
0.0000000e+00 0.0000000e+00 0.0000000e+00 
0.0000000e+00 0.0000000e+00 0.0000000e+00 
0.0000000e+00 0.0000000e+00 0.0000000e+00 
0.0000000e+00 0.0000000e+00 0.0000000e+00 
0.0000000e+00 0.0000000e+00 0.0000000e+00 
0.0000000e+00 0.0000000e+00 0.0000000e+00 
0.0000000e+00 0.0000000e+00 0.0000000e+00 
0.0000000e+00 0.0000000e+00 0.0000000e+00 
0.0000000e+00 0.0000000e+00 0.0000000e+00 
0.0000000e+00 0.0000000e+00 0.0000000e+00 
0.0000000e+00 0.0000000e+00 0.0000000e+00 
0.0000000e+00 0.0000000e+00 0.0000000e+00 
0.0000000e+00 0.0000000e+00 0.0000000e+00 
0.0000000e+00 0.0000000e+00 0.0000000e+00 
0.0000000e+00 0.0000000e+00 0.0000000e+00 
0.0000000e+00 0.0000000e+00 0.0000000e+00 
0.0000000e+00 0.0000000e+00 0.0000000e+00 
0.0000000e+00 0.0000000e+00 0.0000000e+00 
0.0000000e+00 0.0000000e+00 0.0000000e+00 
0.0000000e+00 0.0000000e+00 0.0000000e+00 
0.0000000e+00 0.0000000e+00 0.0000000e+00 
0.0000000e+00 0.0000000e+00 0.0000000e+00 
0.0000000e+00 0.0000000e+00 0.0000000e+00 
0.0000000e+00 0.0000000e+00 0.0000000e+00 
0.0000000e+00 0.0000000e+00 0.0000000e+00 
0.0000000e+00 0.0000000e+00 0.0000000e+00 
0.0000000e+00 0.0000000e+00 0.0000000e+00 
0.0000000e+00 0.0000000e+00 0.0000000e+00 
0.0000000e+00 0.0000000e+00 0.0000000e+00 
0.0000000e+00 0.0000000e+00 0.0000000e+00 
0.0000000e+00 0.0000000e+00 0.0000000e+00 
0.0000000e+00 0.0000000e+00 0.0000000e+00 
0.0000000e+00 0.0000000e+00 0.0000000e+00 
-1.8655785e-06 -5.4551106e-07 -7.1870545e-07 
3.9719112e-06 -8.1063109e-07 9.4342192e-07 
3.0086741e-07 -3.6777355e-06 1.6828733e-06 
-1.3457906e-06 1.6191767e-06 -1.5397960e-06 
6.0469565e-06 -5.7173643e-06 -4.0777209e-06 
2.3687058e-05 -8.5615693e-06 -2.9522766e-06 
2.5724717e-05 -1.1697490e-05 -6.9224183e-07 
2.2271561e-05 -1.1461461e-05 2.7811557e-06 
3.9332522e-06 -4.3776063e-07 5.1437164e-06 
-3.4710004e-06 3.0366223e-06 3.4687978e-06 
-7.8848529e-07 -6.7653400e-07 1.6692467e-06 
1.3365734e-06 -1.4285082e-06 1.7364131e-06 
-2.6786997e-06 -1.1677437e-06 -3.5915039e-06 
8.3418781e-06 -3.4255252e-06 -8.6972432e-06 
2.6531792e-05 -1.0458153e-05 -6.6535395e-06 
2.2849741e-05 -1.1951276e-05 -4.7374152e-07 
1.9061286e-05 -7.4752666e-06 4.1984416e-07 
2.2346526e-06 4.0205950e-07 2.4964063e-06 
3.4657048e-06 -1.5935017e-06 3.4073043e-06 
-2.3217058e-06 1.1010808e-07 1.1236175e-06 
-1.8052846e-06 1.4689671e-05 -2.1232715e-06 
5.8898135e-09 -7.6139122e-06 2.7652750e-06 
3.8557777e-05 1.1233687e-05 -1.5874084e-05 
8.3160732e-05 -1.5866715e-05 -6.0003554e-06 
2.3778008e-05 -1.0889155e-06 6.7044680e-06 
6.4735431e-08 -1.2097580e-06 4.7766616e-06 
-1.8400121e-06 -3.7043296e-06 9.0443604e-07 
2.9985433e-05 1.5158999e-05 -1.3837379e-05 
8.1580059e-05 -2.0188814e-05 4.6767605e-06 
2.2080807e-05 -5.6286617e-06 7.5156313e-06 
1.1328629e-04 -2.3346308e-04 -5.3126732e-05 
9.0609319e-05 -1.8328978e-04 4.0165665e-05 
9.1927232e-06 -1.9533611e-05 2.5376557e-06 
-3.1323771e-06 -3.3932629e-05 7.6107017e-06 
1.0045395e-05 3.4932847e-05 -2.3056255e-06 
1.1723424e-04 -2.0489329e-04 -3.4411642e-05 
8.3120402e-05 -2.1563914e-04 4.4138127e-05 
6.3739762e-06 2.4098676e-05 5.2534006e-06 
-1.1363774e-06 1.6579896e-05 4.5207780e-06 
1.2805547e-06 1.6164717e-05 -2.9093458e-06 
-1.4423507e-06 1.1769694e-06 3.5324181e-06 
1.2028654e-06 3.9937786e-05 2.7661588e-06 
5.6224730e-05 -1.7067588e-05 -1.2480636e-05 
3.8857394e-05 -1.3797162e-05 -2.7401528e-08 
5.6152835e-06 -8.5521265e-07 4.0417722e-06 
-3.9966035e-06 -1.0819637e-05 1.8908222e-06 
3.5681069e-06 1.2519461e-05 -1.2916680e-06 
4.9195027e-05 -1.1229044e-05 -4.1041644e-06 