# vtk DataFile Version 4.0
vtk output
ASCII
DATASET UNSTRUCTURED_GRID
POINTS 661 float
0.0000000e+00 0.0000000e+00 0.0000000e+00 
0.0000000e+00 0.0000000e+00 4.0000000e+01 
5.0000000e+00 0.0000000e+00 0.0000000e+00 
5.0000000e+00 0.0000000e+00 4.0000000e+01 
5.0000000e+00 1.0000000e+00 0.0000000e+00 
5.0000000e+00 1.0000000e+00 4.0000000e+01 
0.0000000e+00 1.0000000e+00 0.0000000e+00 
0.0000000e+00 1.0000000e+00 4.0000000e+01 
5.0000000e+00 2.0000000e+00 0.0000000e+00 
5.0000000e+00 2.0000000e+00 4.0000000e+01 
3.0000000e+00 2.0000000e+00 0.0000000e+00 
3.0000000e+00 2.0000000e+00 4.0000000e+01 
0.0000000e+00 2.0000000e+00 0.0000000e+00 
0.0000000e+00 2.0000000e+00 4.0000000e+01 
1.5000000e+00 3.0000000e+00 0.0000000e+00 
1.5000000e+00 3.0000000e+00 4.0000000e+01 
7.5000000e-01 3.0000000e+00 0.0000000e+00 
7.5000000e-01 3.0000000e+00 4.0000000e+01 
0.0000000e+00 3.0000000e+00 0.0000000e+00 
0.0000000e+00 3.0000000e+00 4.0000000e+01 
7.5000000e-01 3.0000000e+00 5.0000000e-01 
7.5000000e-01 3.0000000e+00 1.0000000e+00 
7.5000000e-01 3.0000000e+00 1.5000000e+00 
7.5000000e-01 3.0000000e+00 2.0000000e+00 
7.5000000e-01 3.0000000e+00 2.5000000e+00 
7.5000000e-01 3.0000000e+00 3.0000000e+00 
7.5000000e-01 3.0000000e+00 3.5000000e+00 
7.5000000e-01 3.0000000e+00 4.0000000e+00 
7.5000000e-01 3.0000000e+00 4.5000000e+00 
7.5000000e-01 3.0000000e+00 5.0000000e+00 
7.5000000e-01 3.0000000e+00 5.5000000e+00 
7.5000000e-01 3.0000000e+00 6.0000000e+00 
7.5000000e-01 3.0000000e+00 6.5000000e+00 
7.5000000e-01 3.0000000e+00 7.0000000e+00 
7.5000000e-01 3.0000000e+00 7.5000000e+00 
7.5000000e-01 3.0000000e+00 8.0000000e+00 
7.5000000e-01 3.0000000e+00 8.5000000e+00 
7.5000000e-01 3.0000000e+00 9.0000000e+00 
7.5000000e-01 3.0000000e+00 9.5000000e+00 
7.5000000e-01 3.0000000e+00 1.0000000e+01 
7.5000000e-01 3.0000000e+00 1.0500000e+01 
7.5000000e-01 3.0000000e+00 1.1000000e+01 
7.5000000e-01 3.0000000e+00 1.1500000e+01 
7.5000000e-01 3.0000000e+00 1.2000000e+01 
7.5000000e-01 3.0000000e+00 1.2500000e+01 
7.5000000e-01 3.0000000e+00 1.3000000e+01 
7.5000000e-01 3.0000000e+00 1.3500000e+01 
7.5000000e-01 3.0000000e+00 1.4000000e+01 
7.5000000e-01 3.0000000e+00 1.4500000e+01 
7.5000000e-01 3.0000000e+00 1.5000000e+01 
7.5000000e-01 3.0000000e+00 1.5500000e+01 
7.5000000e-01 3.0000000e+00 1.6000000e+01 
7.5000000e-01 3.0000000e+00 1.6500000e+01 
7.5000000e-01 3.0000000e+00 1.7000000e+01 
7.5000000e-01 3.0000000e+00 1.7500000e+01 
7.5000000e-01 3.0000000e+00 1.8000000e+01 
7.5000000e-01 3.0000000e+00 1.8500000e+01 
7.5000000e-01 3.0000000e+00 1.9000000e+01 
7.5000000e-01 3.0000000e+00 1.9500000e+01 
7.5000000e-01 3.0000000e+00 2.0000000e+01 
7.5000000e-01 3.0000000e+00 2.0500000e+01 
7.5000000e-01 3.0000000e+00 2.1000000e+01 
7.5000000e-01 3.0000000e+00 2.1500000e+01 
7.5000000e-01 3.0000000e+00 2.2000000e+01 
7.5000000e-01 3.0000000e+00 2.2500000e+01 
7.5000000e-01 3.0000000e+00 2.3000000e+01 
7.5000000e-01 3.0000000e+00 2.3500000e+01 
7.5000000e-01 3.0000000e+00 2.4000000e+01 
7.5000000e-01 3.0000000e+00 2.4500000e+01 
7.5000000e-01 3.0000000e+00 2.5000000e+01 
7.5000000e-01 3.0000000e+00 2.5500000e+01 
7.5000000e-01 3.0000000e+00 2.6000000e+01 
7.5000000e-01 3.0000000e+00 2.6500000e+01 
7.5000000e-01 3.0000000e+00 2.7000000e+01 
7.5000000e-01 3.0000000e+00 2.7500000e+01 
7.5000000e-01 3.0000000e+00 2.8000000e+01 
7.5000000e-01 3.0000000e+00 2.8500000e+01 
7.5000000e-01 3.0000000e+00 2.9000000e+01 
7.5000000e-01 3.0000000e+00 2.9500000e+01 
7.5000000e-01 3.0000000e+00 3.0000000e+01 
7.5000000e-01 3.0000000e+00 3.0500000e+01 
7.5000000e-01 3.0000000e+00 3.1000000e+01 
7.5000000e-01 3.0000000e+00 3.1500000e+01 
7.5000000e-01 3.0000000e+00 3.2000000e+01 
7.5000000e-01 3.0000000e+00 3.2500000e+01 
7.5000000e-01 3.0000000e+00 3.3000000e+01 
7.5000000e-01 3.0000000e+00 3.3500000e+01 
7.5000000e-01 3.0000000e+00 3.4000000e+01 
7.5000000e-01 3.0000000e+00 3.4500000e+01 
7.5000000e-01 3.0000000e+00 3.5000000e+01 
7.5000000e-01 3.0000000e+00 3.5500000e+01 
7.5000000e-01 3.0000000e+00 3.6000000e+01 
7.5000000e-01 3.0000000e+00 3.6500000e+01 
7.5000000e-01 3.0000000e+00 3.7000000e+01 
7.5000000e-01 3.0000000e+00 3.7500000e+01 
7.5000000e-01 3.0000000e+00 3.8000000e+01 
7.5000000e-01 3.0000000e+00 3.8500000e+01 
7.5000000e-01 3.0000000e+00 3.9000000e+01 
7.5000000e-01 3.0000000e+00 3.9500000e+01 
7.5000000e-01 3.0000000e+00 4.0500000e+01 
7.5000000e-01 3.0000000e+00 4.1000000e+01 
7.5000000e-01 3.0000000e+00 4.1500000e+01 
7.5000000e-01 3.0000000e+00 4.2000000e+01 
7.5000000e-01 3.0000000e+00 4.2500000e+01 
7.5000000e-01 3.0000000e+00 4.3000000e+01 
7.5000000e-01 3.0000000e+00 4.3500000e+01 
7.5000000e-01 3.0000000e+00 4.4000000e+01 
7.5000000e-01 3.0000000e+00 4.4500000e+01 
7.5000000e-01 3.0000000e+00 4.5000000e+01 
7.5000000e-01 3.0000000e+00 4.5500000e+01 
7.5000000e-01 3.0000000e+00 4.6000000e+01 
7.5000000e-01 3.0000000e+00 4.6500000e+01 
7.5000000e-01 3.0000000e+00 4.7000000e+01 
7.5000000e-01 3.0000000e+00 4.7500000e+01 
7.5000000e-01 3.0000000e+00 4.8000000e+01 
7.5000000e-01 3.0000000e+00 4.8500000e+01 
7.5000000e-01 3.0000000e+00 4.9000000e+01 
7.5000000e-01 3.0000000e+00 4.9500000e+01 
7.5000000e-01 3.0000000e+00 5.0000000e+01 
7.5000000e-01 3.0250001e+00 0.0000000e+00 
7.5000000e-01 3.0250001e+00 5.0000000e-01 
7.5000000e-01 3.0250001e+00 1.0000000e+00 
7.5000000e-01 3.0250001e+00 1.5000000e+00 
7.5000000e-01 3.0250001e+00 2.0000000e+00 
7.5000000e-01 3.0250001e+00 2.5000000e+00 
7.5000000e-01 3.0250001e+00 3.0000000e+00 
7.5000000e-01 3.0250001e+00 3.5000000e+00 
7.5000000e-01 3.0250001e+00 4.0000000e+00 
7.5000000e-01 3.0250001e+00 4.5000000e+00 
7.5000000e-01 3.0250001e+00 5.0000000e+00 
7.5000000e-01 3.0250001e+00 5.5000000e+00 
7.5000000e-01 3.0250001e+00 6.0000000e+00 
7.5000000e-01 3.0250001e+00 6.5000000e+00 
7.5000000e-01 3.0250001e+00 7.0000000e+00 
7.5000000e-01 3.0250001e+00 7.5000000e+00 
7.5000000e-01 3.0250001e+00 8.0000000e+00 
7.5000000e-01 3.0250001e+00 8.5000000e+00 
7.5000000e-01 3.0250001e+00 9.0000000e+00 
7.5000000e-01 3.0250001e+00 9.5000000e+00 
7.5000000e-01 3.0250001e+00 1.0000000e+01 
7.5000000e-01 3.0250001e+00 1.0500000e+01 
7.5000000e-01 3.0250001e+00 1.1000000e+01 
7.5000000e-01 3.0250001e+00 1.1500000e+01 
7.5000000e-01 3.0250001e+00 1.2000000e+01 
7.5000000e-01 3.0250001e+00 1.2500000e+01 
7.5000000e-01 3.0250001e+00 1.3000000e+01 
7.5000000e-01 3.0250001e+00 1.3500000e+01 
7.5000000e-01 3.0250001e+00 1.4000000e+01 
7.5000000e-01 3.0250001e+00 1.4500000e+01 
7.5000000e-01 3.0250001e+00 1.5000000e+01 
7.5000000e-01 3.0250001e+00 1.5500000e+01 
7.5000000e-01 3.0250001e+00 1.6000000e+01 
7.5000000e-01 3.0250001e+00 1.6500000e+01 
7.5000000e-01 3.0250001e+00 1.7000000e+01 
7.5000000e-01 3.0250001e+00 1.7500000e+01 
7.5000000e-01 3.0250001e+00 1.8000000e+01 
7.5000000e-01 3.0250001e+00 1.8500000e+01 
7.5000000e-01 3.0250001e+00 1.9000000e+01 
7.5000000e-01 3.0250001e+00 1.9500000e+01 
7.5000000e-01 3.0250001e+00 2.0000000e+01 
7.5000000e-01 3.0250001e+00 2.0500000e+01 
7.5000000e-01 3.0250001e+00 2.1000000e+01 
7.5000000e-01 3.0250001e+00 2.1500000e+01 
7.5000000e-01 3.0250001e+00 2.2000000e+01 
7.5000000e-01 3.0250001e+00 2.2500000e+01 
7.5000000e-01 3.0250001e+00 2.3000000e+01 
7.5000000e-01 3.0250001e+00 2.3500000e+01 
7.5000000e-01 3.0250001e+00 2.4000000e+01 
7.5000000e-01 3.0250001e+00 2.4500000e+01 
7.5000000e-01 3.0250001e+00 2.5000000e+01 
7.5000000e-01 3.0250001e+00 2.5500000e+01 
7.5000000e-01 3.0250001e+00 2.6000000e+01 
7.5000000e-01 3.0250001e+00 2.6500000e+01 
7.5000000e-01 3.0250001e+00 2.7000000e+01 
7.5000000e-01 3.0250001e+00 2.7500000e+01 
7.5000000e-01 3.0250001e+00 2.8000000e+01 
7.5000000e-01 3.0250001e+00 2.8500000e+01 
7.5000000e-01 3.0250001e+00 2.9000000e+01 
7.5000000e-01 3.0250001e+00 2.9500000e+01 
7.5000000e-01 3.0250001e+00 3.0000000e+01 
7.5000000e-01 3.0250001e+00 3.0500000e+01 
7.5000000e-01 3.0250001e+00 3.1000000e+01 
7.5000000e-01 3.0250001e+00 3.1500000e+01 
7.5000000e-01 3.0250001e+00 3.2000000e+01 
7.5000000e-01 3.0250001e+00 3.2500000e+01 
7.5000000e-01 3.0250001e+00 3.3000000e+01 
7.5000000e-01 3.0250001e+00 3.3500000e+01 
7.5000000e-01 3.0250001e+00 3.4000000e+01 
7.5000000e-01 3.0250001e+00 3.4500000e+01 
7.5000000e-01 3.0250001e+00 3.5000000e+01 
7.5000000e-01 3.0250001e+00 3.5500000e+01 
7.5000000e-01 3.0250001e+00 3.6000000e+01 
7.5000000e-01 3.0250001e+00 3.6500000e+01 
7.5000000e-01 3.0250001e+00 3.7000000e+01 
7.5000000e-01 3.0250001e+00 3.7500000e+01 
7.5000000e-01 3.0250001e+00 3.8000000e+01 
7.5000000e-01 3.0250001e+00 3.8500000e+01 
7.5000000e-01 3.0250001e+00 3.9000000e+01 
7.5000000e-01 3.0250001e+00 3.9500000e+01 
7.5000000e-01 3.0250001e+00 4.0000000e+01 
7.5000000e-01 3.0250001e+00 4.0500000e+01 
7.5000000e-01 3.0250001e+00 4.1000000e+01 
7.5000000e-01 3.0250001e+00 4.1500000e+01 
7.5000000e-01 3.0250001e+00 4.2000000e+01 
7.5000000e-01 3.0250001e+00 4.2500000e+01 
7.5000000e-01 3.0250001e+00 4.3000000e+01 
7.5000000e-01 3.0250001e+00 4.3500000e+01 
7.5000000e-01 3.0250001e+00 4.4000000e+01 
7.5000000e-01 3.0250001e+00 4.4500000e+01 
7.5000000e-01 3.0250001e+00 4.5000000e+01 
7.5000000e-01 3.0250001e+00 4.5500000e+01 
7.5000000e-01 3.0250001e+00 4.6000000e+01 
7.5000000e-01 3.0250001e+00 4.6500000e+01 
7.5000000e-01 3.0250001e+00 4.7000000e+01 
7.5000000e-01 3.0250001e+00 4.7500000e+01 
7.5000000e-01 3.0250001e+00 4.8000000e+01 
7.5000000e-01 3.0250001e+00 4.8500000e+01 
7.5000000e-01 3.0250001e+00 4.9000000e+01 
7.5000000e-01 3.0250001e+00 4.9500000e+01 
7.5000000e-01 3.0250001e+00 5.0000000e+01 
3.0000000e+00 2.0000000e+00 3.6000000e+01 
8.0487806e-01 3.0000000e+00 3.6000000e+01 
0.0000000e+00 0.0000000e+00 2.0000000e+00 
0.0000000e+00 0.0000000e+00 4.0000000e+00 
0.0000000e+00 0.0000000e+00 6.0000000e+00 
0.0000000e+00 0.0000000e+00 8.0000000e+00 
0.0000000e+00 0.0000000e+00 1.0000000e+01 
0.0000000e+00 0.0000000e+00 1.2000000e+01 
0.0000000e+00 0.0000000e+00 1.4000000e+01 
0.0000000e+00 0.0000000e+00 1.6000000e+01 
[...]
POINT_DATA 661
FIELD FieldData 3
DISPLACEMENT 3 661  float
0.0000000e+00 0.0000000e+00 0.0000000e+00 
0.0000000e+00 0.0000000e+00 0.0000000e+00 
0.0000000e+00 0.0000000e+00 0.0000000e+00 
0.0000000e+00 0.0000000e+00 0.0000000e+00 
8.0039727e-06 -4.4396124e-06 -6.7323394e-06 
8.0477748e-06 6.5422792e-06 1.4155437e-05 
0.0000000e+00 -2.3434948e-05 0.0000000e+00 
0.0000000e+00 -1.5619917e-04 0.0000000e+00 
7.3164620e-06 -3.1584382e-06 -1.0364059e-05 
2.4490608e-05 7.5974281e-06 -1.4718185e-06 
7.0080760e-06 -1.7684682e-05 -2.2378197e-05 
3.3566401e-05 7.3812189e-05 -1.3592891e-05 
0.0000000e+00 -4.3127708e-05 0.0000000e+00 
0.0000000e+00 -3.1515025e-04 0.0000000e+00 
-5.9157142e-06 -5.4199434e-05 -5.7569767e-05 
-8.0165926e-05 -8.5929278e-05 -2.5750758e-04 
-1.4084610e-05 -4.5934699e-05 -4.5642933e-05 
-4.7474870e-05 -5.9438118e-04 -3.0002944e-04 
0.0000000e+00 -6.5838038e-05 0.0000000e+00 
0.0000000e+00 -1.8776975e-04 0.0000000e+00 
-1.9205700e-06 -4.1816056e-05 -4.0937211e-05 
8.2964543e-06 -3.1453739e-05 -3.3800075e-05 
1.2472585e-05 -1.7289572e-05 -2.7094617e-05 
1.7234997e-05 -2.4785675e-07 -1.5676820e-05 
1.9922671e-05 1.9005771e-05 -3.2828900e-06 
1.7491197e-05 3.9467071e-05 1.4850481e-06 
1.2380209e-05 5.9494989e-05 3.6905499e-06 
9.7721013e-06 7.6963683e-05 2.5660063e-06 
6.9873136e-06 9.0197100e-05 -3.5027440e-06 
6.1072933e-06 9.8349505e-05 -3.1588092e-06 
2.5911436e-06 1.0137888e-04 5.7179641e-06 
1.7006893e-07 1.0000199e-04 1.7678567e-05 
3.5531607e-06 9.3843657e-05 2.8868686e-05 
5.9960630e-06 8.3639068e-05 3.4343928e-05 
7.0369556e-06 6.9391288e-05 3.6675690e-05 
9.7966813e-06 5.2197123e-05 3.3715482e-05 
1.2109109e-05 3.3793913e-05 3.0536583e-05 
1.5605792e-05 1.7126864e-05 2.8015626e-05 
2.1088625e-05 6.0838256e-06 2.8754099e-05 
2.2392913e-05 3.5294563e-06 3.0735107e-05 
2.1897700e-05 1.1007916e-05 2.4050280e-05 
1.8882422e-05 2.1489968e-05 2.0556250e-05 
1.4348566e-05 2.2859791e-05 3.0134663e-05 
3.9838292e-06 -1.3908387e-05 4.2898482e-05 
-3.4350574e-05 -1.2915279e-04 7.3525363e-05 
-4.6929235e-05 -3.6448397e-04 1.0363039e-04 
-7.1437164e-05 -7.8243384e-04 1.4604766e-04 
-1.2524948e-04 -1.4278345e-03 9.3106886e-05 
-2.6928808e-04 -2.3235902e-03 1.7087927e-04 
-2.7750904e-04 -3.3023062e-03 1.5573575e-04 
-1.7900574e-04 -4.0747090e-03 1.0136201e-04 
-1.5607833e-04 -4.1091787e-03 1.1119536e-04 
-2.9190426e-04 -3.9624590e-03 4.9571943e-05 
-3.5429705e-04 -3.9852806e-03 3.1002248e-05 
-2.3532219e-04 -4.2725201e-03 -1.2311581e-05 
-7.8213168e-05 -4.3071005e-03 -6.5924978e-05 
-1.0109600e-04 -3.5870611e-03 -1.6582671e-04 
-1.9380437e-04 -2.5102089e-03 -1.9520079e-04 
-1.8610904e-04 -1.5610601e-03 -1.8933063e-04 
-5.7266934e-05 -8.3182100e-04 -1.2484833e-04 
-1.8841465e-05 -3.6315582e-04 -1.5968709e-04 
-3.5176522e-06 -9.1123715e-05 -1.2466563e-04 
5.3956967e-07 4.6163255e-05 -9.8364646e-05 
1.4287551e-05 1.0160256e-04 -6.9092093e-05 
1.7511291e-05 1.0873311e-04 -3.9180151e-05 
1.6891574e-05 9.2458773e-05 -1.5760354e-05 
7.2070352e-06 6.7812682e-05 -4.5688439e-06 
-2.8832533e-06 4.1078561e-05 -3.4150628e-06 
-8.7928665e-06 1.6363643e-05 -6.0604625e-06 
-1.0049102e-05 -6.0928692e-06 -1.0362294e-05 
-1.3400479e-05 -2.6100841e-05 -1.2890827e-05 
-1.8295823e-05 -4.1567706e-05 -1.4292127e-05 
-1.6959993e-05 -4.9390830e-05 -1.6212123e-05 
-1.6996324e-05 -4.9071179e-05 -2.1233771e-05 
-9.7970105e-06 -3.9628776e-05 -2.9386432e-05 
-1.1840565e-06 -2.1379132e-05 -3.3997763e-05 
1.6913626e-05 6.0886036e-06 -3.1565807e-05 
2.8346027e-05 4.1676580e-05 -2.4618086e-05 
3.8409489e-05 8.4791885e-05 -2.2221324e-05 
5.0518192e-05 1.3277039e-04 -1.5684082e-05 
5.5506996e-05 1.8165993e-04 -1.4768760e-05 
5.6806959e-05 2.2075967e-04 -5.8171436e-06 
4.6109701e-05 2.3312613e-04 1.3579152e-05 
2.7080167e-05 1.8637648e-04 3.8403719e-05 
-2.2507300e-05 3.3752356e-05 8.5276552e-05 
-3.6280107e-05 -2.6527201e-04 1.2998060e-04 
-6.4888474e-05 -7.7127264e-04 1.8932699e-04 
-1.2500946e-04 -1.5112712e-03 1.3930991e-04 
-2.6470915e-04 -2.4815425e-03 2.1708992e-04 
-2.7323051e-04 -3.4681158e-03 1.8135787e-04 
-1.7916609e-04 -4.1143629e-03 8.2533930e-05 
-3.6349971e-04 -4.0496173e-03 1.2975003e-04 
-2.6248296e-04 -3.8953859e-03 1.0423094e-04 
-2.9589390e-04 -3.9731688e-03 1.4248297e-05 
-1.0676046e-04 -4.2978944e-03 -1.2966631e-04 
-1.8557276e-04 -4.3132901e-03 -2.0068104e-04 
-1.8031699e-04 -3.5052018e-03 -3.4768649e-04 
-2.1241953e-04 -2.4108095e-03 -3.6587912e-04 
-1.5749673e-04 -1.4349720e-03 -1.5132180e-04 
0.0000000e+00 7.2044313e-05 0.0000000e+00 
0.0000000e+00 5.6589971e-04 0.0000000e+00 
0.0000000e+00 8.9525356e-04 0.0000000e+00 
0.0000000e+00 1.0760635e-03 0.0000000e+00 
0.0000000e+00 1.1293821e-03 0.0000000e+00 
0.0000000e+00 1.0796300e-03 0.0000000e+00 
0.0000000e+00 9.5344009e-04 0.0000000e+00 
0.0000000e+00 7.7811867e-04 0.0000000e+00 
0.0000000e+00 5.7943916e-04 0.0000000e+00 
0.0000000e+00 3.7965411e-04 0.0000000e+00 
0.0000000e+00 1.9652695e-04 0.0000000e+00 
0.0000000e+00 4.3086133e-05 0.0000000e+00 
0.0000000e+00 -7.2702191e-05 0.0000000e+00 
0.0000000e+00 -1.4845844e-04 0.0000000e+00 
0.0000000e+00 -1.8739267e-04 0.0000000e+00 
0.0000000e+00 -1.9721365e-04 0.0000000e+00 
0.0000000e+00 -1.8821562e-04 0.0000000e+00 
0.0000000e+00 -1.7126788e-04 0.0000000e+00 
0.0000000e+00 -1.5612220e-04 0.0000000e+00 
0.0000000e+00 -1.5002997e-04 0.0000000e+00 
0.0000000e+00 -4.5806650e-05 0.0000000e+00 
0.0000000e+00 -4.1811389e-05 0.0000000e+00 
0.0000000e+00 -3.1533236e-05 0.0000000e+00 
0.0000000e+00 -1.7304787e-05 0.0000000e+00 
0.0000000e+00 -2.3270563e-07 0.0000000e+00 
0.0000000e+00 1.9034775e-05 0.0000000e+00 
0.0000000e+00 3.9499282e-05 0.0000000e+00 
0.0000000e+00 5.9489881e-05 0.0000000e+00 
0.0000000e+00 7.6948927e-05 0.0000000e+00 
0.0000000e+00 9.0177513e-05 0.0000000e+00 
0.0000000e+00 9.8326738e-05 0.0000000e+00 
0.0000000e+00 1.0144964e-04 0.0000000e+00 
0.0000000e+00 9.9972007e-05 0.0000000e+00 
0.0000000e+00 9.3900075e-05 0.0000000e+00 
0.0000000e+00 8.3611347e-05 0.0000000e+00 
0.0000000e+00 6.9374815e-05 0.0000000e+00 
0.0000000e+00 5.2141299e-05 0.0000000e+00 
0.0000000e+00 3.3757897e-05 0.0000000e+00 
0.0000000e+00 1.7177725e-05 0.0000000e+00 
0.0000000e+00 6.1429496e-06 0.0000000e+00 
0.0000000e+00 3.9192087e-06 0.0000000e+00 
0.0000000e+00 1.1286596e-05 0.0000000e+00 
0.0000000e+00 2.2413371e-05 0.0000000e+00 
0.0000000e+00 2.3467734e-05 0.0000000e+00 
0.0000000e+00 -1.3763061e-05 0.0000000e+00 
0.0000000e+00 -1.2804082e-04 0.0000000e+00 
0.0000000e+00 -3.6508485e-04 0.0000000e+00 
0.0000000e+00 -7.8383880e-04 0.0000000e+00 
0.0000000e+00 -1.4369650e-03 0.0000000e+00 
0.0000000e+00 -2.3309952e-03 0.0000000e+00 
0.0000000e+00 -3.3338394e-03 0.0000000e+00 
0.0000000e+00 -4.0983967e-03 0.0000000e+00 
0.0000000e+00 -4.1397098e-03 0.0000000e+00 
0.0000000e+00 -3.9762603e-03 0.0000000e+00 
0.0000000e+00 -4.0161232e-03 0.0000000e+00 
0.0000000e+00 -4.2928387e-03 0.0000000e+00 
0.0000000e+00 -4.3420983e-03 0.0000000e+00 
0.0000000e+00 -3.6056500e-03 0.0000000e+00 
0.0000000e+00 -2.5292598e-03 0.0000000e+00 
0.0000000e+00 -1.5634763e-03 0.0000000e+00 
0.0000000e+00 -8.3631236e-04 0.0000000e+00 
0.0000000e+00 -3.6302535e-04 0.0000000e+00 
0.0000000e+00 -9.0299633e-05 0.0000000e+00 
0.0000000e+00 4.7251251e-05 0.0000000e+00 
0.0000000e+00 1.0207450e-04 0.0000000e+00 
0.0000000e+00 1.0923843e-04 0.0000000e+00 
0.0000000e+00 9.2928087e-05 0.0000000e+00 
0.0000000e+00 6.7932917e-05 0.0000000e+00 
0.0000000e+00 4.1250780e-05 0.0000000e+00 
0.0000000e+00 1.6356602e-05 0.0000000e+00 
0.0000000e+00 -6.2067211e-06 0.0000000e+00 
0.0000000e+00 -2.6140666e-05 0.0000000e+00 
0.0000000e+00 -4.1419615e-05 0.0000000e+00 
0.0000000e+00 -4.9415354e-05 0.0000000e+00 
0.0000000e+00 -4.9021237e-05 0.0000000e+00 
0.0000000e+00 -3.9669514e-05 0.0000000e+00 
0.0000000e+00 -2.1328871e-05 0.0000000e+00 
0.0000000e+00 6.0655811e-06 0.0000000e+00 
0.0000000e+00 4.1778920e-05 0.0000000e+00 
0.0000000e+00 8.4866078e-05 0.0000000e+00 
0.0000000e+00 1.3310307e-04 0.0000000e+00 
0.0000000e+00 1.8202263e-04 0.0000000e+00 
0.0000000e+00 2.2164667e-04 0.0000000e+00 
0.0000000e+00 2.3390596e-04 0.0000000e+00 
0.0000000e+00 1.8622588e-04 0.0000000e+00 
0.0000000e+00 3.4855620e-05 0.0000000e+00 
0.0000000e+00 -2.6663602e-04 0.0000000e+00 
0.0000000e+00 -7.7318313e-04 0.0000000e+00 
0.0000000e+00 -1.5214393e-03 0.0000000e+00 
0.0000000e+00 -2.4901934e-03 0.0000000e+00 
0.0000000e+00 -3.5016807e-03 0.0000000e+00 
0.0000000e+00 -4.1404297e-03 0.0000000e+00 
0.0000000e+00 -4.0752236e-03 0.0000000e+00 
0.0000000e+00 -3.9110258e-03 0.0000000e+00 
0.0000000e+00 -4.0035830e-03 0.0000000e+00 
0.0000000e+00 -4.3288530e-03 0.0000000e+00 
0.0000000e+00 -4.3339855e-03 0.0000000e+00 
0.0000000e+00 -3.5232906e-03 0.0000000e+00 
0.0000000e+00 -2.4304474e-03 0.0000000e+00 
0.0000000e+00 -1.4334185e-03 0.0000000e+00 
0.0000000e+00 -5.9531198e-04 0.0000000e+00 
0.0000000e+00 7.1676208e-05 0.0000000e+00 
0.0000000e+00 5.6561170e-04 0.0000000e+00 
0.0000000e+00 8.9505920e-04 0.0000000e+00 
0.0000000e+00 1.0759288e-03 0.0000000e+00 
0.0000000e+00 1.1292961e-03 0.0000000e+00 
0.0000000e+00 1.0796225e-03 0.0000000e+00 
0.0000000e+00 9.5352909e-04 0.0000000e+00 
0.0000000e+00 7.7827409e-04 0.0000000e+00 
0.0000000e+00 5.7961541e-04 0.0000000e+00 
0.0000000e+00 3.7984131e-04 0.0000000e+00 
0.0000000e+00 1.9674773e-04 0.0000000e+00 
0.0000000e+00 4.3344749e-05 0.0000000e+00 
0.0000000e+00 -7.2448624e-05 0.0000000e+00 
0.0000000e+00 -1.4827000e-04 0.0000000e+00 
0.0000000e+00 -1.8729879e-04 0.0000000e+00 
0.0000000e+00 -1.9720368e-04 0.0000000e+00 
0.0000000e+00 -1.8826802e-04 0.0000000e+00 
0.0000000e+00 -1.7137249e-04 0.0000000e+00 
0.0000000e+00 -1.5627113e-04 0.0000000e+00 
0.0000000e+00 -1.5019822e-04 0.0000000e+00 
9.8779732e-05 -1.4889574e-04 1.1439650e-05 
-1.6793498e-04 -3.5242529e-03 1.4719508e-04 
0.0000000e+00 0.0000000e+00 0.0000000e+00 
0.0000000e+00 0.0000000e+00 0.0000000e+00 
0.0000000e+00 0.0000000e+00 0.0000000e+00 
0.0000000e+00 0.0000000e+00 0.0000000e+00 
0.0000000e+00 0.0000000e+00 0.0000000e+00 
0.0000000e+00 0.0000000e+00 0.0000000e+00 
0.0000000e+00 0.0000000e+00 0.0000000e+00 
0.0000000e+00 0.0000000e+00 0.0000000e+00 
0.0000000e+00 0.0000000e+00 0.0000000e+00 
0.0000000e+00 0.0000000e+00 0.0000000e+00 
0.0000000e+00 0.0000000e+00 0.0000000e+00 
0.0000000e+00 0.0000000e+00 0.0000000e+00 
0.0000000e+00 0.0000000e+00 0.0000000e+00 
0.0000000e+00 0.0000000e+00 0.0000000e+00 
0.0000000e+00 0.0000000e+00 0.0000000e+00 
0.0000000e+00 0.0000000e+00 0.0000000e+00 
0.0000000e+00 0.0000000e+00 0.0000000e+00 
0.0000000e+00 0.0000000e+00 0.0000000e+00 
0.0000000e+00 0.0000000e+00 0.0000000e+00 
0.0000000e+00 0.0000000e+00 0.0000000e+00 
0.0000000e+00 0.0000000e+00 0.0000000e+00 
0.0000000e+00 0.0000000e+00 0.0000000e+00 
0.0000000e+00 0.0000000e+00 0.0000000e+00 
0.0000000e+00 0.0000000e+00 0.0000000e+00 
0.0000000e+00 0.0000000e+00 0.0000000e+00 
0.0000000e+00 0.0000000e+00 0.0000000e+00 
0.0000000e+00 0.0000000e+00 0.0000000e+00 
0.0000000e+00 0.0000000e+00 0.0000000e+00 
0.0000000e+00 0.0000000e+00 0.0000000e+00 
0.0000000e+00 0.0000000e+00 0.0000000e+00 
0.0000000e+00 0.0000000e+00 0.0000000e+00 
0.0000000e+00 0.0000000e+00 0.0000000e+00 
0.0000000e+00 0.0000000e+00 0.0000000e+00 
0.0000000e+00 0.0000000e+00 0.0000000e+00 
0.0000000e+00 0.0000000e+00 0.0000000e+00 
0.0000000e+00 0.0000000e+00 0.0000000e+00 
0.0000000e+00 0.0000000e+00 0.0000000e+00 
0.0000000e+00 0.0000000e+00 0.0000000e+00 
0.0000000e+00 0.0000000e+00 0.0000000e+00 
0.0000000e+00 0.0000000e+00 0.0000000e+00 
0.0000000e+00 0.0000000e+00 0.0000000e+00 
0.0000000e+00 0.0000000e+00 0.0000000e+00 
4.4178405e-06 -1.8526130e-06 -4.6884802e-06 
1.1282315e-06 -1.1440942e-06 6.2148888e-07 
-6.0122343e-06 -2.0822181e-07 3.0699700e-06 
-1.0596000e-05 3.0623435e-06 -8.8274412e-08 
-4.4207800e-06 1.0063969e-07 -3.1188656e-06 
1.1717697e-05 -3.6022689e-06 -6.1559567e-06 
3.6407124e-05 -7.1263753e-06 -1.0636562e-05 
5.4494572e-05 -7.9112415e-06 -2.8005938e-06 
4.7533635e-05 -5.8640762e-06 8.1308290e-06 
2.1779084e-05 -2.2763991e-06 4.4267899e-06 
5.4559400e-06 -1.8205225e-06 1.0733086e-06 
2.5555823e-06 -8.2889215e-07 -2.0668040e-08 
-2.4172678e-06 -2.9731777e-06 3.4317393e-06 
-7.8869261e-06 -1.4421540e-06 1.8748204e-06 
-5.5441524e-06 1.1307773e-06 -1.4141956e-06 
1.8598098e-06 1.4353627e-06 -7.5565254e-06 
3.1946744e-05 -6.5484187e-06 -1.6815169e-05 
5.4516724e-05 -2.2055754e-05 -2.1250680e-06 
4.1533513e-05 -1.6595070e-05 1.8560302e-05 
0.0000000e+00 9.5977816e-07 0.0000000e+00 
0.0000000e+00 2.5380501e-05 0.0000000e+00 
0.0000000e+00 2.9648134e-05 0.0000000e+00 
0.0000000e+00 1.2662263e-05 0.0000000e+00 
0.0000000e+00 -2.8376687e-06 0.0000000e+00 
0.0000000e+00 -2.0740588e-05 0.0000000e+00 
0.0000000e+00 -2.2091031e-04 0.0000000e+00 
0.0000000e+00 -5.4273184e-04 0.0000000e+00 
0.0000000e+00 -5.3155125e-04 0.0000000e+00 
0.0000000e+00 -1.5233579e-04 0.0000000e+00 
0.0000000e+00 1.0855141e-05 0.0000000e+00 
0.0000000e+00 1.1397176e-05 0.0000000e+00 
0.0000000e+00 -1.9870129e-05 0.0000000e+00 
0.0000000e+00 -8.6260670e-06 0.0000000e+00 
0.0000000e+00 4.3889853e-05 0.0000000e+00 
0.0000000e+00 4.6686484e-05 0.0000000e+00 
0.0000000e+00 -2.1444904e-04 0.0000000e+00 
0.0000000e+00 -5.7406060e-04 0.0000000e+00 
0.0000000e+00 -5.0729665e-04 0.0000000e+00 
7.4177306e-06 -8.3079094e-06 -1.1301069e-05 
4.8726297e-06 -2.0616197e-05 -1.4180443e-05 
3.9282098e-05 3.1741962e-05 1.5661401e-05 
7.3378957e-05 -8.5730528e-05 1.0697556e-04 
6.0474649e-06 -2.9719372e-06 -7.7274035e-06 
4.5285792e-06 -3.9841998e-06 -9.0790235e-07 
-4.1897647e-06 -2.1823021e-06 3.1918701e-06 
-1.2588303e-05 2.5809316e-06 7.5190894e-07 
-6.9621906e-06 1.8651924e-06 -3.4550358e-06 
1.9338724e-05 -3.0140968e-06 -8.3201940e-06 
3.5550722e-05 -5.4494226e-06 -4.6235705e-06 
3.9078506e-05 -6.7740139e-06 -3.2761031e-07 
2.7042572e-05 -2.7401704e-06 6.7396231e-06 
1.1658292e-05 1.5844114e-06 -2.8122975e-06 
9.9031940e-06 -2.4039950e-06 -1.4992756e-06 
4.3087184e-06 -3.1376903e-06 1.6201714e-06 
-4.6273690e-06 -5.3905865e-06 4.4768403e-06 
-9.5110199e-06 -1.8701120e-06 -7.5131220e-07 
-3.0869850e-07 1.2413445e-06 -7.2018934e-06 
1.6667575e-05 1.2348543e-06 -9.5941532e-06 
3.5432178e-05 -5.9168265e-06 -6.6459775e-06 
4.8755537e-05 -1.5772286e-05 8.3038722e-06 
3.2513195e-05 -6.7670694e-06 1.0498092e-05 
5.7686088e-06 -3.2519907e-05 -2.4578749e-05 
0.0000000e+00 1.1542789e-06 0.0000000e+00 
0.0000000e+00 4.8272916e-05 0.0000000e+00 
0.0000000e+00 5.6566230e-05 0.0000000e+00 
0.0000000e+00 2.5102692e-05 0.0000000e+00 
0.0000000e+00 -8.1124490e-06 0.0000000e+00 
0.0000000e+00 -2.5222851e-05 0.0000000e+00 
0.0000000e+00 -4.6180055e-04 0.0000000e+00 
0.0000000e+00 -1.2002251e-03 0.0000000e+00 
0.0000000e+00 -1.1834471e-03 0.0000000e+00 
0.0000000e+00 -2.8683335e-04 0.0000000e+00 
0.0000000e+00 3.5360936e-05 0.0000000e+00 
0.0000000e+00 2.0934205e-05 0.0000000e+00 
0.0000000e+00 -3.3794702e-05 0.0000000e+00 
0.0000000e+00 -1.7339227e-05 0.0000000e+00 
0.0000000e+00 8.0963415e-05 0.0000000e+00 
0.0000000e+00 9.7383963e-05 0.0000000e+00 
0.0000000e+00 -4.5341591e-04 0.0000000e+00 
0.0000000e+00 -1.2962887e-03 0.0000000e+00 
0.0000000e+00 -1.1253341e-03 0.0000000e+00 
5.5612520e-05 -2.3442098e-04 5.7101784e-05 
2.0900348e-05 -8.9681885e-07 -2.0435975e-05 
1.4083250e-05 4.8549020e-05 1.8520169e-06 
3.4473198e-06 6.4767126e-05 2.3703302e-05 
4.8653028e-06 4.2730750e-05 3.5739809e-05 
3.5972480e-05 -1.4322311e-05 4.9723618e-05 
2.0528756e-05 2.1126763e-05 7.5498443e-05 
-2.8189406e-04 -4.4313015e-04 2.8195244e-04 
-7.0308254e-04 -1.3440151e-03 1.2124879e-04 
-6.4241950e-04 -1.4808587e-03 -1.5088632e-04 
-1.3191694e-04 -2.4681710e-04 -2.4994725e-04 
3.4098382e-05 4.9745646e-05 -7.3712676e-05 
-9.4302379e-08 1.8790844e-05 -1.6385681e-06 
-2.6051550e-05 -3.4980862e-05 -1.8982480e-06 
-1.1425000e-05 -1.2242298e-05 -5.1753494e-05 
7.5781849e-05 6.4830536e-05 -2.2048665e-05 
5.5765111e-05 1.7483348e-04 7.9358069e-05 
-3.1595843e-04 -4.4173069e-04 3.8174857e-04 
-5.0576043e-04 -1.7136795e-03 1.4787642e-04 
-5.9316604e-04 -1.2406368e-03 -2.1467821e-04 
0.0000000e+00 -5.3261288e-06 0.0000000e+00 
0.0000000e+00 7.4422052e-05 0.0000000e+00 
0.0000000e+00 8.7469787e-05 0.0000000e+00 
0.0000000e+00 3.6032034e-05 0.0000000e+00 
0.0000000e+00 -1.6107771e-05 0.0000000e+00 
0.0000000e+00 4.6278897e-06 0.0000000e+00 
0.0000000e+00 -8.5943413e-04 0.0000000e+00 
0.0000000e+00 -2.3243153e-03 0.0000000e+00 
0.0000000e+00 -2.2584037e-03 0.0000000e+00 
0.0000000e+00 -4.9032777e-04 0.0000000e+00 
0.0000000e+00 8.3929626e-05 0.0000000e+00 
0.0000000e+00 3.6052425e-05 0.0000000e+00 
0.0000000e+00 -4.4324694e-05 0.0000000e+00 
0.0000000e+00 -3.2144104e-05 0.0000000e+00 
0.0000000e+00 1.0817344e-04 0.0000000e+00 
0.0000000e+00 1.9242281e-04 0.0000000e+00 
0.0000000e+00 -8.9647097e-04 0.0000000e+00 
0.0000000e+00 -2.4155490e-03 0.0000000e+00 
0.0000000e+00 -2.2087095e-03 0.0000000e+00 
6.4104456e-06 -1.5744956e-06 -6.5248114e-06 
3.3223753e-07 9.3898016e-06 1.3636263e-06 
-1.2569293e-05 1.2142935e-05 8.7492854e-06 
-9.0357817e-06 1.0343026e-05 1.0054999e-05 
8.8185825e-06 -5.5735052e-07 1.3156079e-05 
2.3208710e-05 2.0380696e-05 1.6914351e-05 
5.5405319e-05 -4.7439273e-05 3.7242567e-06 
5.3448708e-05 -1.0126337e-04 -9.2796636e-06 
4.1764757e-05 -1.0408664e-04 -4.3623137e-07 
3.8787912e-05 -5.3235548e-05 -4.4001858e-06 
3.9382394e-06 1.3083183e-05 -1.5078731e-05 
-4.8114994e-06 2.9205621e-06 -1.0086595e-05 
-1.4011749e-05 -1.0962817e-05 -3.3050073e-06 
-9.2361288e-06 -5.2290679e-06 -9.3240251e-06 
7.6618244e-06 1.8261175e-05 -7.2491105e-07 
1.4048449e-05 4.8996226e-05 1.3171784e-05 
4.5734279e-05 -2.3730670e-05 1.2886994e-05 
4.9400613e-05 -1.1086325e-04 1.4017128e-05 
-7.1651324e-05 -1.1219066e-03 7.7267141e-05 
0.0000000e+00 0.0000000e+00 0.0000000e+00 
0.0000000e+00 0.0000000e+00 0.0000000e+00 
0.0000000e+00 0.0000000e+00 0.0000000e+00 
0.0000000e+00 0.0000000e+00 0.0000000e+00 
0.0000000e+00 0.0000000e+00 0.0000000e+00 
0.0000000e+00 0.0000000e+00 0.0000000e+00 
0.0000000e+00 0.0000000e+00 0.0000000e+00 
0.0000000e+00 0.0000000e+00 0.0000000e+00 
0.0000000e+00 0.0000000e+00 0.0000000e+00 
0.0000000e+00 0.0000000e+00 0.0000000e+00 
0.0000000e+00 0.0000000e+00 0.0000000e+00 
0.0000000e+00 0.0000000e+00 0.0000000e+00 
0.0000000e+00 0.0000000e+00 0.0000000e+00 
0.0000000e+00 0.0000000e+00 0.0000000e+00 
0.0000000e+00 0.0000000e+00 0.0000000e+00 
0.0000000e+00 0.0000000e+00 0.0000000e+00 
0.0000000e+00 0.0000000e+00 0.0000000e+00 
0.0000000e+00 0.0000000e+00 0.0000000e+00 
0.0000000e+00 0.0000000e+00 0.0000000e+00 
0.0000000e+00 0.0000000e+00 0.0000000e+00 
0.0000000e+00 0.0000000e+00 0.0000000e+00 
0.0000000e+00 0.0000000e+00 0.0000000e+00 
0.0000000e+00 0.0000000e+00 0.0000000e+00 
0.0000000e+00 0.0000000e+00 0.0000000e+00 
0.0000000e+00 0.0000000e+00 0.0000000e+00 
0.0000000e+00 0.0000000e+00 0.0000000e+00 
0.0000000e+00 0.0000000e+00 0.0000000e+00 
0.0000000e+00 0.0000000e+00 0.0000000e+00 
0.0000000e+00 0.0000000e+00 0.0000000e+00 
0.0000000e+00 0.0000000e+00 0.0000000e+00 
0.0000000e+00 0.0000000e+00 0.0000000e+00 
0.0000000e+00 0.0000000e+00 0.0000000e+00 
0.0000000e+00 0.0000000e+00 0.0000000e+00 
0.0000000e+00 0.0000000e+00 0.0000000e+00 
0.0000000e+00 0.0000000e+00 0.0000000e+00 
0.0000000e+00 0.0000000e+00 0.0000000e+00 
0.0000000e+00 0.0000000e+00 0.0000000e+00 
0.0000000e+00 0.0000000e+00 0.0000000e+00 
0.0000000e+00 0.0000000e+00 0.0000000e+00 
0.0000000e+00 0.0000000e+00 0.0000000e+00 
0.0000000e+00 0.0000000e+00 0.0000000e+00 
0.0000000e+00 0.0000000e+00 0.0000000e+00 
-2.0586233e-06 5.3848782e-07 1.4378895e-06 
1.0441652e-05 -7.2154835e-06 -5.9348031e-06 
2.6491400e-05 -9.2702567e-06 2.6347486e-06 
7.3429561e-07 -2.4549885e-07 -7.4709214e-07 
1.1796506e-06 -6.1525327e-07 1.9607537e-06 
-2.8360560e-06 -9.7522491e-07 1.2168446e-06 
-3.7264292e-06 6.0509301e-08 8.9635193e-08 
-2.5783365e-06 2.0251885e-06 -2.2050639e-07 
6.7670230e-06 -5.2955543e-06 -9.2564751e-06 