# vtk DataFile Version 4.0
vtk output
ASCII
DATASET UNSTRUCTURED_GRID
POINTS 661 float
0.0000000e+00 0.0000000e+00 0.0000000e+00 
0.0000000e+00 0.0000000e+00 4.0000000e+01 
5.0000000e+00 0.0000000e+00 0.0000000e+00 
5.0000000e+00 0.0000000e+00 4.0000000e+01 
5.0000000e+00 1.0000000e+00 0.0000000e+00 
5.0000000e+00 1.0000000e+00 4.0000000e+01 
0.0000000e+00 1.0000000e+00 0.0000000e+00 
0.0000000e+00 1.0000000e+00 4.0000000e+01 
5.0000000e+00 2.0000000e+00 0.0000000e+00 
5.0000000e+00 2.0000000e+00 4.0000000e+01 
3.0000000e+00 2.0000000e+00 0.0000000e+00 
3.0000000e+00 2.0000000e+00 4.0000000e+01 
0.0000000e+00 2.0000000e+00 0.0000000e+00 
0.0000000e+00 2.0000000e+00 4.0000000e+01 
1.5000000e+00 3.0000000e+00 0.0000000e+00 
1.5000000e+00 3.0000000e+00 4.0000000e+01 
7.5000000e-01 3.0000000e+00 0.0000000e+00 
7.5000000e-01 3.0000000e+00 4.0000000e+01 
0.0000000e+00 3.0000000e+00 0.0000000e+00 
0.0000000e+00 3.0000000e+00 4.0000000e+01 
7.5000000e-01 3.0000000e+00 5.0000000e-01 
7.5000000e-01 3.0000000e+00 1.0000000e+00 
7.5000000e-01 3.0000000e+00 1.5000000e+00 
7.5000000e-01 3.0000000e+00 2.0000000e+00 
7.5000000e-01 3.0000000e+00 2.5000000e+00 
7.5000000e-01 3.0000000e+00 3.0000000e+00 
7.5000000e-01 3.0000000e+00 3.5000000e+00 
7.5000000e-01 3.0000000e+00 4.0000000e+00 
7.5000000e-01 3.0000000e+00 4.5000000e+00 
7.5000000e-01 3.0000000e+00 5.0000000e+00 
7.5000000e-01 3.0000000e+00 5.5000000e+00 
7.5000000e-01 3.0000000e+00 6.0000000e+00 
7.5000000e-01 3.0000000e+00 6.5000000e+00 
7.5000000e-01 3.0000000e+00 7.0000000e+00 
7.5000000e-01 3.0000000e+00 7.5000000e+00 
7.5000000e-01 3.0000000e+00 8.0000000e+00 
7.5000000e-01 3.0000000e+00 8.5000000e+00 
7.5000000e-01 3.0000000e+00 9.0000000e+00 
7.5000000e-01 3.0000000e+00 9.5000000e+00 
7.5000000e-01 3.0000000e+00 1.0000000e+01 
7.5000000e-01 3.0000000e+00 1.0500000e+01 
7.5000000e-01 3.0000000e+00 1.1000000e+01 
7.5000000e-01 3.0000000e+00 1.1500000e+01 
7.5000000e-01 3.0000000e+00 1.2000000e+01 
7.5000000e-01 3.0000000e+00 1.2500000e+01 
7.5000000e-01 3.0000000e+00 1.3000000e+01 
7.5000000e-01 3.0000000e+00 1.3500000e+01 
7.5000000e-01 3.0000000e+00 1.4000000e+01 
7.5000000e-01 3.0000000e+00 1.4500000e+01 
7.5000000e-01 3.0000000e+00 1.5000000e+01 
7.5000000e-01 3.0000000e+00 1.5500000e+01 
7.5000000e-01 3.0000000e+00 1.6000000e+01 
7.5000000e-01 3.0000000e+00 1.6500000e+01 
7.5000000e-01 3.0000000e+00 1.7000000e+01 
7.5000000e-01 3.0000000e+00 1.7500000e+01 
7.5000000e-01 3.0000000e+00 1.8000000e+01 
7.5000000e-01 3.0000000e+00 1.8500000e+01 
7.5000000e-01 3.0000000e+00 1.9000000e+01 
7.5000000e-01 3.0000000e+00 1.9500000e+01 
7.5000000e-01 3.0000000e+00 2.0000000e+01 
7.5000000e-01 3.0000000e+00 2.0500000e+01 
7.5000000e-01 3.0000000e+00 2.1000000e+01 
7.5000000e-01 3.0000000e+00 2.1500000e+01 
7.5000000e-01 3.0000000e+00 2.2000000e+01 
7.5000000e-01 3.0000000e+00 2.2500000e+01 
7.5000000e-01 3.0000000e+00 2.3000000e+01 
7.5000000e-01 3.0000000e+00 2.3500000e+01 
7.5000000e-01 3.0000000e+00 2.4000000e+01 
7.5000000e-01 3.0000000e+00 2.4500000e+01 
7.5000000e-01 3.0000000e+00 2.5000000e+01 
7.5000000e-01 3.0000000e+00 2.5500000e+01 
7.5000000e-01 3.0000000e+00 2.6000000e+01 
7.5000000e-01 3.0000000e+00 2.6500000e+01 
7.5000000e-01 3.0000000e+00 2.7000000e+01 
7.5000000e-01 3.0000000e+00 2.7500000e+01 
7.5000000e-01 3.0000000e+00 2.8000000e+01 
7.5000000e-01 3.0000000e+00 2.8500000e+01 
7.5000000e-01 3.0000000e+00 2.9000000e+01 
7.5000000e-01 3.0000000e+00 2.9500000e+01 
7.5000000e-01 3.0000000e+00 3.0000000e+01 
7.5000000e-01 3.0000000e+00 3.0500000e+01 
7.5000000e-01 3.0000000e+00 3.1000000e+01 
7.5000000e-01 3.0000000e+00 3.1500000e+01 
7.5000000e-01 3.0000000e+00 3.2000000e+01 
7.5000000e-01 3.0000000e+00 3.2500000e+01 
7.5000000e-01 3.0000000e+00 3.3000000e+01 
7.5000000e-01 3.0000000e+00 3.3500000e+01 
7.5000000e-01 3.0000000e+00 3.4000000e+01 
7.5000000e-01 3.0000000e+00 3.4500000e+01 
7.5000000e-01 3.0000000e+00 3.5000000e+01 
7.5000000e-01 3.0000000e+00 3.5500000e+01 
7.5000000e-01 3.0000000e+00 3.6000000e+01 
7.5000000e-01 3.0000000e+00 3.6500000e+01 
7.5000000e-01 3.0000000e+00 3.7000000e+01 
7.5000000e-01 3.0000000e+00 3.7500000e+01 
7.5000000e-01 3.0000000e+00 3.8000000e+01 
7.5000000e-01 3.0000000e+00 3.8500000e+01 
7.5000000e-01 3.0000000e+00 3.9000000e+01 
7.5000000e-01 3.0000000e+00 3.9500000e+01 
7.5000000e-01 3.0000000e+00 4.0500000e+01 
7.5000000e-01 3.0000000e+00 4.1000000e+01 
7.5000000e-01 3.0000000e+00 4.1500000e+01 
7.5000000e-01 3.0000000e+00 4.2000000e+01 
7.5000000e-01 3.0000000e+00 4.2500000e+01 
7.5000000e-01 3.0000000e+00 4.3000000e+01 
7.5000000e-01 3.0000000e+00 4.3500000e+01 
7.5000000e-01 3.0000000e+00 4.4000000e+01 
7.5000000e-01 3.0000000e+00 4.4500000e+01 
7.5000000e-01 3.0000000e+00 4.5000000e+01 
7.5000000e-01 3.0000000e+00 4.5500000e+01 
7.5000000e-01 3.0000000e+00 4.6000000e+01 
7.5000000e-01 3.0000000e+00 4.6500000e+01 
7.5000000e-01 3.0000000e+00 4.7000000e+01 
7.5000000e-01 3.0000000e+00 4.7500000e+01 
7.5000000e-01 3.0000000e+00 4.8000000e+01 
7.5000000e-01 3.0000000e+00 4.8500000e+01 
7.5000000e-01 3.0000000e+00 4.9000000e+01 
7.5000000e-01 3.0000000e+00 4.9500000e+01 
7.5000000e-01 3.0000000e+00 5.0000000e+01 
7.5000000e-01 3.0250001e+00 0.0000000e+00 
7.5000000e-01 3.0250001e+00 5.0000000e-01 
7.5000000e-01 3.0250001e+00 1.0000000e+00 
7.5000000e-01 3.0250001e+00 1.5000000e+00 
7.5000000e-01 3.0250001e+00 2.0000000e+00 
7.5000000e-01 3.0250001e+00 2.5000000e+00 
7.5000000e-01 3.0250001e+00 3.0000000e+00 
7.5000000e-01 3.0250001e+00 3.5000000e+00 
7.5000000e-01 3.0250001e+00 4.0000000e+00 
7.5000000e-01 3.0250001e+00 4.5000000e+00 
7.5000000e-01 3.0250001e+00 5.0000000e+00 
7.5000000e-01 3.0250001e+00 5.5000000e+00 
7.5000000e-01 3.0250001e+00 6.0000000e+00 
7.5000000e-01 3.0250001e+00 6.5000000e+00 
7.5000000e-01 3.0250001e+00 7.0000000e+00 
7.5000000e-01 3.0250001e+00 7.5000000e+00 
7.5000000e-01 3.0250001e+00 8.0000000e+00 
7.5000000e-01 3.0250001e+00 8.5000000e+00 
7.5000000e-01 3.0250001e+00 9.0000000e+00 
7.5000000e-01 3.0250001e+00 9.5000000e+00 
7.5000000e-01 3.0250001e+00 1.0000000e+01 
7.5000000e-01 3.0250001e+00 1.0500000e+01 
7.5000000e-01 3.0250001e+00 1.1000000e+01 
7.5000000e-01 3.0250001e+00 1.1500000e+01 
7.5000000e-01 3.0250001e+00 1.2000000e+01 
7.5000000e-01 3.0250001e+00 1.2500000e+01 
7.5000000e-01 3.0250001e+00 1.3000000e+01 
7.5000000e-01 3.0250001e+00 1.3500000e+01 
7.5000000e-01 3.0250001e+00 1.4000000e+01 
7.5000000e-01 3.0250001e+00 1.4500000e+01 
7.5000000e-01 3.0250001e+00 1.5000000e+01 
7.5000000e-01 3.0250001e+00 1.5500000e+01 
7.5000000e-01 3.0250001e+00 1.6000000e+01 
7.5000000e-01 3.0250001e+00 1.6500000e+01 
7.5000000e-01 3.0250001e+00 1.7000000e+01 
7.5000000e-01 3.0250001e+00 1.7500000e+01 
7.5000000e-01 3.0250001e+00 1.8000000e+01 
7.5000000e-01 3.0250001e+00 1.8500000e+01 
7.5000000e-01 3.0250001e+00 1.9000000e+01 
7.5000000e-01 3.0250001e+00 1.9500000e+01 
7.5000000e-01 3.0250001e+00 2.0000000e+01 
7.5000000e-01 3.0250001e+00 2.0500000e+01 
7.5000000e-01 3.0250001e+00 2.1000000e+01 
7.5000000e-01 3.0250001e+00 2.1500000e+01 
7.5000000e-01 3.0250001e+00 2.2000000e+01 
7.5000000e-01 3.0250001e+00 2.2500000e+01 
7.5000000e-01 3.0250001e+00 2.3000000e+01 
7.5000000e-01 3.0250001e+00 2.3500000e+01 
7.5000000e-01 3.0250001e+00 2.4000000e+01 
7.5000000e-01 3.0250001e+00 2.4500000e+01 
7.5000000e-01 3.0250001e+00 2.5000000e+01 
7.5000000e-01 3.0250001e+00 2.5500000e+01 
7.5000000e-01 3.0250001e+00 2.6000000e+01 
7.5000000e-01 3.0250001e+00 2.6500000e+01 
7.5000000e-01 3.0250001e+00 2.7000000e+01 
7.5000000e-01 3.0250001e+00 2.7500000e+01 
7.5000000e-01 3.0250001e+00 2.8000000e+01 
7.5000000e-01 3.0250001e+00 2.8500000e+01 
7.5000000e-01 3.0250001e+00 2.9000000e+01 
7.5000000e-01 3.0250001e+00 2.9500000e+01 
7.5000000e-01 3.0250001e+00 3.0000000e+01 
7.5000000e-01 3.0250001e+00 3.0500000e+01 
7.5000000e-01 3.0250001e+00 3.1000000e+01 
7.5000000e-01 3.0250001e+00 3.1500000e+01 
7.5000000e-01 3.0250001e+00 3.2000000e+01 
7.5000000e-01 3.0250001e+00 3.2500000e+01 
7.5000000e-01 3.0250001e+00 3.3000000e+01 
7.5000000e-01 3.0250001e+00 3.3500000e+01 
7.5000000e-01 3.0250001e+00 3.4000000e+01 
7.5000000e-01 3.0250001e+00 3.4500000e+01 
7.5000000e-01 3.0250001e+00 3.5000000e+01 
7.5000000e-01 3.0250001e+00 3.5500000e+01 
7.5000000e-01 3.0250001e+00 3.6000000e+01 
7.5000000e-01 3.0250001e+00 3.6500000e+01 
7.5000000e-01 3.0250001e+00 3.7000000e+01 
7.5000000e-01 3.0250001e+00 3.7500000e+01 
7.5000000e-01 3.0250001e+00 3.8000000e+01 
7.5000000e-01 3.0250001e+00 3.8500000e+01 
7.5000000e-01 3.0250001e+00 3.9000000e+01 
7.5000000e-01 3.0250001e+00 3.9500000e+01 
7.5000000e-01 3.0250001e+00 4.0000000e+01 
7.5000000e-01 3.0250001e+00 4.0500000e+01 
7.5000000e-01 3.0250001e+00 4.1000000e+01 
7.5000000e-01 3.0250001e+00 4.1500000e+01 
7.5000000e-01 3.0250001e+00 4.2000000e+01 
7.5000000e-01 3.0250001e+00 4.2500000e+01 
7.5000000e-01 3.0250001e+00 4.3000000e+01 
7.5000000e-01 3.0250001e+00 4.3500000e+01 
7.5000000e-01 3.0250001e+00 4.4000000e+01 
7.5000000e-01 3.0250001e+00 4.4500000e+01 
7.5000000e-01 3.0250001e+00 4.5000000e+01 
7.5000000e-01 3.0250001e+00 4.5500000e+01 
7.5000000e-01 3.0250001e+00 4.6000000e+01 
7.5000000e-01 3.0250001e+00 4.6500000e+01 
7.5000000e-01 3.0250001e+00 4.7000000e+01 
7.5000000e-01 3.0250001e+00 4.7500000e+01 
7.5000000e-01 3.0250001e+00 4.8000000e+01 
7.5000000e-01 3.0250001e+00 4.8500000e+01 
7.5000000e-01 3.0250001e+00 4.9000000e+01 
7.5000000e-01 3.0250001e+00 4.9500000e+01 
7.5000000e-01 3.0250001e+00 5.0000000e+01 
3.0000000e+00 2.0000000e+00 3.6000000e+01 
8.0487806e-01 3.0000000e+00 3.6000000e+01 
0.0000000e+00 0.0000000e+00 2.0000000e+00 
0.0000000e+00 0.0000000e+00 4.0000000e+00 
0.0000000e+00 0.0000000e+00 6.0000000e+00 
0.0000000e+00 0.0000000e+00 8.0000000e+00 
0.0000000e+00 0.0000000e+00 1.0000000e+01 
0.0000000e+00 0.0000000e+00 1.2000000e+01 
0.0000000e+00 0.0000000e+00 1.4000000e+01 
0.0000000e+00 0.0000000e+00 1.6000000e+01 
[...]
POINT_DATA 661
FIELD FieldData 3
DISPLACEMENT 3 661  float
0.0000000e+00 0.0000000e+00 0.0000000e+00 
0.0000000e+00 0.0000000e+00 0.0000000e+00 
0.0000000e+00 0.0000000e+00 0.0000000e+00 
0.0000000e+00 0.0000000e+00 0.0000000e+00 
-1.5634205e-05 -5.5169444e-06 -2.1815151e-06 
5.0791408e-07 -1.3659363e-06 1.4102501e-06 
0.0000000e+00 1.1522191e-04 0.0000000e+00 
0.0000000e+00 -1.4205420e-05 0.0000000e+00 
5.8870432e-06 -1.4552666e-06 -2.0311687e-05 
-1.0774334e-06 -1.2969039e-06 -1.3954334e-06 
-7.7583172e-06 1.0265027e-05 -9.6123567e-06 
-1.5116148e-06 -4.3714836e-06 -4.0253267e-06 
0.0000000e+00 1.4665362e-04 0.0000000e+00 
0.0000000e+00 -2.2170892e-05 0.0000000e+00 
-4.3793320e-06 6.5630767e-05 3.6764817e-05 
-6.7756455e-06 -1.3421819e-05 -3.7017246e-05 
4.7670746e-05 6.5561369e-05 -1.4348775e-05 
1.9634651e-06 -3.4791206e-05 -5.4702436e-05 
0.0000000e+00 2.0388961e-04 0.0000000e+00 
0.0000000e+00 -2.5084126e-05 0.0000000e+00 
6.8302696e-05 6.6219502e-05 -3.0021471e-05 
-9.9531480e-06 6.9070811e-05 8.9160758e-06 
-3.3429376e-06 6.6066015e-05 6.5366908e-06 
2.3340492e-05 7.6756747e-05 -3.9262454e-06 
5.1190538e-05 1.0752901e-04 -2.6111180e-05 
7.9115547e-05 1.4548635e-04 -4.4881901e-05 
5.4849761e-06 1.8958509e-04 6.2773892e-05 
8.5210440e-06 1.5574577e-04 5.5034121e-05 
-1.9732448e-05 9.7435868e-06 9.0142203e-05 
-1.0952787e-05 -2.3273325e-04 1.0583307e-04 
-7.6024648e-05 -6.0828117e-04 1.2865597e-04 
-7.9364065e-05 -1.1836138e-03 1.4074722e-04 
-1.6329346e-04 -2.0547663e-03 2.6057035e-04 
-1.9579436e-04 -3.0934198e-03 2.9970476e-04 
-9.6232237e-05 -3.9842417e-03 2.4632458e-04 
-1.1984989e-04 -4.0716743e-03 2.4343640e-04 
-2.4626040e-04 -3.8745061e-03 1.6686232e-04 
-3.3361805e-04 -3.8273870e-03 1.2001424e-04 
-2.0437474e-04 -4.1188220e-03 6.1109582e-05 
-4.5498819e-05 -4.2267297e-03 -1.8895613e-05 
-1.0970799e-04 -3.5904362e-03 -1.4873190e-04 
-2.3694463e-04 -2.5704955e-03 -2.2370789e-04 
-2.2932437e-04 -1.6427811e-03 -2.4967306e-04 
-9.3695715e-05 -9.1738818e-04 -2.1134535e-04 
-2.5432984e-05 -4.3039973e-04 -2.2569975e-04 
2.0606543e-05 -1.1209777e-04 -1.7271079e-04 
2.8862572e-05 8.8578192e-05 -1.3494196e-04 
4.7063899e-05 1.9065206e-04 -1.1135433e-04 
2.2576136e-05 2.0797395e-04 -1.2803596e-04 
-5.1957677e-06 1.7793695e-04 -1.0916266e-04 
-1.0717614e-05 1.3548748e-04 -1.0059524e-04 
-1.7356078e-06 9.5579519e-05 -9.8365148e-05 
2.9511957e-05 6.0804894e-05 -3.3915425e-05 
8.3411847e-05 2.4017829e-05 1.8542786e-06 
2.5996465e-05 -2.5634634e-05 3.6195572e-05 
-4.2649740e-06 -7.2177885e-05 8.7391069e-05 
-3.4386416e-05 -1.0439838e-04 7.5311065e-05 
-6.4180393e-05 -1.1446065e-04 7.5069956e-06 
-6.9219153e-05 -1.1028052e-04 -3.2282851e-06 
-9.4833405e-05 -8.3519160e-05 -2.5436317e-05 
7.8375073e-05 -3.8766164e-05 -9.2619935e-05 
8.8159795e-05 1.9395304e-06 -8.8102817e-05 
1.1228026e-04 3.8543119e-05 -8.9425615e-05 
-2.8632014e-05 5.9615093e-05 -1.1925249e-04 
-3.8971390e-07 8.4549429e-05 -2.3984272e-05 
9.7637661e-05 1.3773411e-04 4.1425948e-05 
2.7855347e-05 2.1693073e-04 5.2221178e-05 
6.0369446e-05 2.3456178e-04 1.0590331e-04 
3.4600576e-05 9.5674506e-05 1.0843276e-04 
3.9508999e-05 -2.2354719e-04 1.1352926e-04 
1.2358159e-06 -7.4550102e-04 1.3866011e-04 
-8.8141969e-05 -1.4158747e-03 1.1537370e-04 
-2.0742381e-04 -2.2426986e-03 2.3062949e-04 
-2.6130976e-04 -3.1235728e-03 2.7023011e-04 
-1.0603789e-04 -3.8256815e-03 2.3300532e-04 
-6.9572656e-05 -3.8611055e-03 2.2059532e-04 
-2.1200051e-04 -3.7348077e-03 1.7503256e-04 
-2.5495858e-04 -3.7553830e-03 1.2197315e-04 
-1.6856518e-04 -4.0001636e-03 8.9071284e-05 
-4.4366949e-05 -3.9661513e-03 7.7633544e-05 
-1.1109464e-04 -3.2578011e-03 -6.0241815e-05 
-2.2880422e-04 -2.2712662e-03 -1.3346579e-04 
-2.2565652e-04 -1.4374158e-03 -1.6968293e-04 
-1.0920842e-04 -8.1022183e-04 -1.6510696e-04 
-6.8453526e-05 -3.9201399e-04 -2.2030612e-04 
-4.9990093e-05 -1.3543495e-04 -2.0466906e-04 
-3.6092344e-05 -4.8939942e-06 -2.1166931e-04 
-1.1878442e-05 4.8720780e-05 -2.0642611e-04 
2.1273701e-05 7.2620081e-05 -1.5119294e-04 
4.6560042e-05 8.9521025e-05 -8.4607171e-05 
4.1139549e-05 9.8243450e-05 -3.4274250e-05 
2.8131482e-05 9.1848327e-05 2.0515876e-05 
2.9488385e-05 7.1374117e-05 5.6875549e-05 
2.3305147e-05 4.5453264e-05 7.8398894e-05 
7.7957966e-06 1.8223598e-05 9.8924720e-05 
-5.8277819e-06 -7.4856362e-06 9.3031325e-05 
-1.4145338e-05 -2.8014683e-05 6.9726746e-05 
-2.0388707e-05 -3.8975628e-05 3.7402959e-05 
-1.3675277e-05 -3.9774106e-05 2.4690153e-06 
0.0000000e+00 -2.8037051e-05 0.0000000e+00 
0.0000000e+00 -1.8600464e-05 0.0000000e+00 
0.0000000e+00 -4.9760301e-06 0.0000000e+00 
0.0000000e+00 1.2054885e-05 0.0000000e+00 
0.0000000e+00 2.8362640e-05 0.0000000e+00 
0.0000000e+00 3.9024035e-05 0.0000000e+00 
0.0000000e+00 4.1397070e-05 0.0000000e+00 
0.0000000e+00 3.5668174e-05 0.0000000e+00 
0.0000000e+00 2.3270077e-05 0.0000000e+00 
0.0000000e+00 5.8337296e-06 0.0000000e+00 
0.0000000e+00 -1.4162692e-05 0.0000000e+00 
0.0000000e+00 -3.2622836e-05 0.0000000e+00 
0.0000000e+00 -4.4745422e-05 0.0000000e+00 
0.0000000e+00 -4.7141741e-05 0.0000000e+00 
0.0000000e+00 -3.9154867e-05 0.0000000e+00 
0.0000000e+00 -2.2525728e-05 0.0000000e+00 
0.0000000e+00 -5.3065230e-07 0.0000000e+00 
0.0000000e+00 2.2231468e-05 0.0000000e+00 
0.0000000e+00 3.9932987e-05 0.0000000e+00 
0.0000000e+00 4.6798177e-05 0.0000000e+00 
0.0000000e+00 6.5935048e-05 0.0000000e+00 
0.0000000e+00 6.6653200e-05 0.0000000e+00 
0.0000000e+00 6.7329893e-05 0.0000000e+00 
0.0000000e+00 6.5829656e-05 0.0000000e+00 
0.0000000e+00 7.7029646e-05 0.0000000e+00 
0.0000000e+00 1.0741607e-04 0.0000000e+00 
0.0000000e+00 1.5051913e-04 0.0000000e+00 
0.0000000e+00 1.8778321e-04 0.0000000e+00 
0.0000000e+00 1.5276270e-04 0.0000000e+00 
0.0000000e+00 1.1350540e-05 0.0000000e+00 
0.0000000e+00 -2.3198534e-04 0.0000000e+00 
0.0000000e+00 -6.0653745e-04 0.0000000e+00 
0.0000000e+00 -1.1925530e-03 0.0000000e+00 
0.0000000e+00 -2.0647554e-03 0.0000000e+00 
0.0000000e+00 -3.1315705e-03 0.0000000e+00 
0.0000000e+00 -4.0059146e-03 0.0000000e+00 
0.0000000e+00 -4.0959222e-03 0.0000000e+00 
0.0000000e+00 -3.8878925e-03 0.0000000e+00 
0.0000000e+00 -3.8623307e-03 0.0000000e+00 
0.0000000e+00 -4.1419743e-03 0.0000000e+00 
0.0000000e+00 -4.2601624e-03 0.0000000e+00 
0.0000000e+00 -3.6071835e-03 0.0000000e+00 
0.0000000e+00 -2.5892369e-03 0.0000000e+00 
0.0000000e+00 -1.6463909e-03 0.0000000e+00 
0.0000000e+00 -9.2150609e-04 0.0000000e+00 
0.0000000e+00 -4.2938572e-04 0.0000000e+00 
0.0000000e+00 -1.1057226e-04 0.0000000e+00 
0.0000000e+00 8.8940113e-05 0.0000000e+00 
0.0000000e+00 1.9000946e-04 0.0000000e+00 
0.0000000e+00 2.0826102e-04 0.0000000e+00 
0.0000000e+00 1.7856038e-04 0.0000000e+00 
0.0000000e+00 1.3581850e-04 0.0000000e+00 
0.0000000e+00 9.6417316e-05 0.0000000e+00 
0.0000000e+00 6.1286155e-05 0.0000000e+00 
0.0000000e+00 2.2471586e-05 0.0000000e+00 
0.0000000e+00 -2.5606672e-05 0.0000000e+00 
0.0000000e+00 -7.1965478e-05 0.0000000e+00 
0.0000000e+00 -1.0378179e-04 0.0000000e+00 
0.0000000e+00 -1.1546224e-04 0.0000000e+00 
0.0000000e+00 -1.0992128e-04 0.0000000e+00 
0.0000000e+00 -8.2743441e-05 0.0000000e+00 
0.0000000e+00 -3.9568578e-05 0.0000000e+00 
0.0000000e+00 2.8612121e-06 0.0000000e+00 
0.0000000e+00 3.6733836e-05 0.0000000e+00 
0.0000000e+00 5.8497932e-05 0.0000000e+00 
0.0000000e+00 8.5677435e-05 0.0000000e+00 
0.0000000e+00 1.4197610e-04 0.0000000e+00 
0.0000000e+00 2.1823280e-04 0.0000000e+00 
0.0000000e+00 2.3208215e-04 0.0000000e+00 
0.0000000e+00 9.4985699e-05 0.0000000e+00 
0.0000000e+00 -2.2864263e-04 0.0000000e+00 
0.0000000e+00 -7.4333284e-04 0.0000000e+00 
0.0000000e+00 -1.4201807e-03 0.0000000e+00 
0.0000000e+00 -2.2515459e-03 0.0000000e+00 
0.0000000e+00 -3.1611049e-03 0.0000000e+00 
0.0000000e+00 -3.8500105e-03 0.0000000e+00 
0.0000000e+00 -3.8893314e-03 0.0000000e+00 
0.0000000e+00 -3.7473252e-03 0.0000000e+00 
0.0000000e+00 -3.7851883e-03 0.0000000e+00 
0.0000000e+00 -4.0208511e-03 0.0000000e+00 
0.0000000e+00 -4.0004109e-03 0.0000000e+00 
0.0000000e+00 -3.2755800e-03 0.0000000e+00 
0.0000000e+00 -2.2890614e-03 0.0000000e+00 
0.0000000e+00 -1.4393831e-03 0.0000000e+00 
0.0000000e+00 -8.1216014e-04 0.0000000e+00 
0.0000000e+00 -3.9171611e-04 0.0000000e+00 
0.0000000e+00 -1.3592544e-04 0.0000000e+00 
0.0000000e+00 -4.4566868e-06 0.0000000e+00 
0.0000000e+00 5.0189330e-05 0.0000000e+00 
0.0000000e+00 7.3683223e-05 0.0000000e+00 
0.0000000e+00 8.9578229e-05 0.0000000e+00 
0.0000000e+00 9.7853605e-05 0.0000000e+00 
0.0000000e+00 9.1595124e-05 0.0000000e+00 
0.0000000e+00 7.1622657e-05 0.0000000e+00 
0.0000000e+00 4.5451707e-05 0.0000000e+00 
0.0000000e+00 1.8172554e-05 0.0000000e+00 
0.0000000e+00 -7.4191335e-06 0.0000000e+00 
0.0000000e+00 -2.7763412e-05 0.0000000e+00 
0.0000000e+00 -3.8808492e-05 0.0000000e+00 
0.0000000e+00 -3.9903141e-05 0.0000000e+00 
0.0000000e+00 -3.5062647e-05 0.0000000e+00 
0.0000000e+00 -2.8010627e-05 0.0000000e+00 
0.0000000e+00 -1.8432660e-05 0.0000000e+00 
0.0000000e+00 -4.8258203e-06 0.0000000e+00 
0.0000000e+00 1.2047384e-05 0.0000000e+00 
0.0000000e+00 2.8231090e-05 0.0000000e+00 
0.0000000e+00 3.8908296e-05 0.0000000e+00 
0.0000000e+00 4.1365594e-05 0.0000000e+00 
0.0000000e+00 3.5661367e-05 0.0000000e+00 
0.0000000e+00 2.3214288e-05 0.0000000e+00 
0.0000000e+00 5.7554012e-06 0.0000000e+00 
0.0000000e+00 -1.4172032e-05 0.0000000e+00 
0.0000000e+00 -3.2530770e-05 0.0000000e+00 
0.0000000e+00 -4.4620694e-05 0.0000000e+00 
0.0000000e+00 -4.7063950e-05 0.0000000e+00 
0.0000000e+00 -3.9120230e-05 0.0000000e+00 
0.0000000e+00 -2.2475595e-05 0.0000000e+00 
0.0000000e+00 -4.5816134e-07 0.0000000e+00 
0.0000000e+00 2.2249076e-05 0.0000000e+00 
0.0000000e+00 3.9830178e-05 0.0000000e+00 
0.0000000e+00 4.6627079e-05 0.0000000e+00 
5.5582677e-06 3.0865256e-05 3.5587711e-06 
2.8788314e-05 9.4426374e-05 1.9264897e-05 
0.0000000e+00 0.0000000e+00 0.0000000e+00 
0.0000000e+00 0.0000000e+00 0.0000000e+00 
0.0000000e+00 0.0000000e+00 0.0000000e+00 
0.0000000e+00 0.0000000e+00 0.0000000e+00 
0.0000000e+00 0.0000000e+00 0.0000000e+00 
0.0000000e+00 0.0000000e+00 0.0000000e+00 
0.0000000e+00 0.0000000e+00 0.0000000e+00 
0.0000000e+00 0.0000000e+00 0.0000000e+00 
0.0000000e+00 0.0000000e+00 0.0000000e+00 
0.0000000e+00 0.0000000e+00 0.0000000e+00 
0.0000000e+00 0.0000000e+00 0.0000000e+00 
0.0000000e+00 0.0000000e+00 0.0000000e+00 
0.0000000e+00 0.0000000e+00 0.0000000e+00 
0.0000000e+00 0.0000000e+00 0.0000000e+00 
0.0000000e+00 0.0000000e+00 0.0000000e+00 
0.0000000e+00 0.0000000e+00 0.0000000e+00 
0.0000000e+00 0.0000000e+00 0.0000000e+00 
0.0000000e+00 0.0000000e+00 0.0000000e+00 
0.0000000e+00 0.0000000e+00 0.0000000e+00 
0.0000000e+00 0.0000000e+00 0.0000000e+00 
0.0000000e+00 0.0000000e+00 0.0000000e+00 
0.0000000e+00 0.0000000e+00 0.0000000e+00 
0.0000000e+00 0.0000000e+00 0.0000000e+00 
0.0000000e+00 0.0000000e+00 0.0000000e+00 
0.0000000e+00 0.0000000e+00 0.0000000e+00 
0.0000000e+00 0.0000000e+00 0.0000000e+00 
0.0000000e+00 0.0000000e+00 0.0000000e+00 
0.0000000e+00 0.0000000e+00 0.0000000e+00 
0.0000000e+00 0.0000000e+00 0.0000000e+00 
0.0000000e+00 0.0000000e+00 0.0000000e+00 
0.0000000e+00 0.0000000e+00 0.0000000e+00 
0.0000000e+00 0.0000000e+00 0.0000000e+00 
0.0000000e+00 0.0000000e+00 0.0000000e+00 
0.0000000e+00 0.0000000e+00 0.0000000e+00 
0.0000000e+00 0.0000000e+00 0.0000000e+00 
0.0000000e+00 0.0000000e+00 0.0000000e+00 
0.0000000e+00 0.0000000e+00 0.0000000e+00 
0.0000000e+00 0.0000000e+00 0.0000000e+00 
0.0000000e+00 0.0000000e+00 0.0000000e+00 
0.0000000e+00 0.0000000e+00 0.0000000e+00 
0.0000000e+00 0.0000000e+00 0.0000000e+00 
0.0000000e+00 0.0000000e+00 0.0000000e+00 
3.4234622e-06 1.2532843e-05 -1.7775335e-05 
9.3049748e-06 1.5046091e-05 -8.4058738e-06 
2.6507823e-05 1.9591067e-05 -1.9089524e-05 
4.1653897e-05 -1.6260246e-05 -8.7379085e-06 
4.6661466e-05 -2.1995158e-05 1.3731584e-05 
1.1804483e-05 -1.0998075e-05 4.5316688e-06 
-6.6134448e-06 1.5650161e-06 -1.2501442e-05 
-4.3270193e-06 1.6471553e-05 1.5338126e-05 
-3.1108316e-06 1.9034956e-05 1.5623207e-06 
-2.2742906e-06 3.9641203e-05 -3.2265425e-06 
-3.9519950e-06 5.2661770e-05 3.1047769e-06 
2.0771470e-06 2.2131862e-05 -2.4799767e-06 
2.0699843e-05 1.1059259e-05 -1.0110532e-05 
3.5173118e-05 -6.7278365e-06 2.3266471e-06 
3.8666974e-05 -2.0429319e-05 -2.3995610e-06 
1.9126623e-05 -1.0564521e-05 -2.1154993e-07 
6.7728588e-06 6.4505812e-06 7.3713154e-06 
-3.4937807e-06 6.0011939e-06 3.1514935e-06 
1.0827508e-06 -2.5194302e-06 6.3120939e-07 
0.0000000e+00 1.8653271e-04 0.0000000e+00 
0.0000000e+00 8.7965316e-05 0.0000000e+00 
0.0000000e+00 -9.4753368e-06 0.0000000e+00 
0.0000000e+00 -4.8714009e-04 0.0000000e+00 
0.0000000e+00 -5.3964573e-04 0.0000000e+00 
0.0000000e+00 -2.5966461e-04 0.0000000e+00 
0.0000000e+00 3.2615069e-05 0.0000000e+00 
0.0000000e+00 9.2971277e-05 0.0000000e+00 
0.0000000e+00 1.0728397e-04 0.0000000e+00 
0.0000000e+00 1.6848951e-04 0.0000000e+00 
0.0000000e+00 1.9020033e-04 0.0000000e+00 
0.0000000e+00 1.8444096e-04 0.0000000e+00 
0.0000000e+00 -4.9759296e-05 0.0000000e+00 
0.0000000e+00 -4.6006011e-04 0.0000000e+00 
0.0000000e+00 -5.1947322e-04 0.0000000e+00 
0.0000000e+00 -1.9323938e-04 0.0000000e+00 
0.0000000e+00 5.6536228e-06 0.0000000e+00 
0.0000000e+00 5.1911487e-05 0.0000000e+00 
0.0000000e+00 -1.3679116e-05 0.0000000e+00 
2.0265911e-06 1.1670985e-05 -8.8659090e-06 
-8.6110231e-06 1.6704455e-05 3.2877153e-06 
7.0073569e-09 -2.0390612e-06 -2.2305392e-06 
1.4233545e-06 -9.8873707e-06 3.8699241e-06 
-1.3685160e-05 2.2642182e-05 -1.7625869e-05 
1.8022130e-05 2.8806968e-05 -2.2561364e-05 
3.2755892e-05 3.6302361e-05 -1.1118076e-05 
4.8920883e-05 -6.3845464e-06 1.9368022e-06 
4.0970797e-05 -2.9607119e-05 2.1235819e-05 
3.2155970e-06 -8.8361003e-06 -1.1907764e-05 
4.0886184e-06 -1.8691851e-07 -3.2061849e-05 
1.7500151e-05 1.2428849e-05 1.6970585e-05 
1.1869252e-05 2.3199544e-05 2.4858855e-06 
-5.3054996e-06 5.4160388e-05 -5.2180567e-06 
3.0826260e-07 6.7604080e-05 -1.1846647e-05 
3.2431992e-05 3.3729120e-05 3.4200382e-06 
4.3409142e-05 1.5469072e-05 8.2142569e-06 
3.7654761e-05 -8.6782393e-06 1.7563632e-05 
2.5025509e-05 -2.1405638e-05 7.8334654e-07 
2.6999915e-06 -9.6757485e-06 -1.2880919e-05 
6.3402572e-06 6.5403337e-06 -3.7005204e-06 
1.0354235e-06 4.9509385e-06 5.1001653e-06 
2.0095256e-06 -1.4420912e-06 4.2295069e-06 
1.7016277e-05 5.3976528e-05 -1.6154791e-05 
0.0000000e+00 2.8524949e-04 0.0000000e+00 
0.0000000e+00 2.4089660e-04 0.0000000e+00 
0.0000000e+00 -2.1137481e-04 0.0000000e+00 
0.0000000e+00 -1.1115526e-03 0.0000000e+00 
0.0000000e+00 -1.1770012e-03 0.0000000e+00 
0.0000000e+00 -4.5297988e-04 0.0000000e+00 
0.0000000e+00 8.0152473e-05 0.0000000e+00 
0.0000000e+00 1.5533187e-04 0.0000000e+00 
0.0000000e+00 9.8919962e-05 0.0000000e+00 
0.0000000e+00 1.7953754e-04 0.0000000e+00 
0.0000000e+00 3.6152414e-04 0.0000000e+00 
0.0000000e+00 2.8961536e-04 0.0000000e+00 
0.0000000e+00 -2.6915752e-04 0.0000000e+00 
0.0000000e+00 -1.0351997e-03 0.0000000e+00 
0.0000000e+00 -1.1151363e-03 0.0000000e+00 
0.0000000e+00 -3.4142309e-04 0.0000000e+00 
0.0000000e+00 1.2572452e-05 0.0000000e+00 
0.0000000e+00 8.2071798e-05 0.0000000e+00 
0.0000000e+00 -2.3943800e-05 0.0000000e+00 
-4.3938248e-06 -1.6289221e-05 6.0628790e-06 
4.6965233e-05 6.4509011e-05 -3.7034864e-05 
3.7860264e-05 3.4158802e-05 9.2473325e-05 
-2.4225120e-04 -3.1734194e-04 2.9291821e-04 
-6.2751066e-04 -1.2926183e-03 2.3446976e-04 
-5.9306534e-04 -1.4279375e-03 -7.3837567e-05 
-1.7768319e-04 -2.9472471e-04 -4.0640525e-04 
6.0866176e-05 7.7660799e-05 -1.2558092e-04 
-8.3779905e-06 1.7811164e-05 -6.5749598e-05 
-1.0570911e-04 -6.1832754e-05 2.3943103e-04 
-1.0567746e-04 -1.9534859e-04 -3.9858023e-05 
-2.8811946e-05 -8.3383136e-05 -1.5476417e-04 
-1.2711603e-05 1.6163765e-04 3.8692840e-05 
-2.5022548e-04 -4.1615832e-04 2.3672644e-04 
-5.5598438e-04 -1.1705449e-03 1.8229109e-04 
-5.8313145e-04 -1.3439778e-03 8.5833664e-05 
-1.8387726e-04 -2.8118925e-04 -2.7187035e-04 
1.9212146e-05 7.8260400e-06 -2.4277929e-04 
3.9991457e-05 8.1451239e-05 1.7669159e-05 
-7.5636999e-06 -1.3325898e-05 1.1493925e-04 
0.0000000e+00 3.6890202e-04 0.0000000e+00 
0.0000000e+00 3.1568631e-04 0.0000000e+00 
0.0000000e+00 -4.9484143e-04 0.0000000e+00 
0.0000000e+00 -2.2769037e-03 0.0000000e+00 
0.0000000e+00 -2.2240235e-03 0.0000000e+00 
0.0000000e+00 -6.9050188e-04 0.0000000e+00 
0.0000000e+00 1.9691627e-04 0.0000000e+00 
0.0000000e+00 2.0235374e-04 0.0000000e+00 
0.0000000e+00 1.1127610e-05 0.0000000e+00 
0.0000000e+00 1.5272407e-04 0.0000000e+00 
0.0000000e+00 2.5454577e-04 0.0000000e+00 
0.0000000e+00 2.3108360e-04 0.0000000e+00 
0.0000000e+00 -6.8738923e-04 0.0000000e+00 
0.0000000e+00 -2.1368377e-03 0.0000000e+00 
0.0000000e+00 -2.1040447e-03 0.0000000e+00 
0.0000000e+00 -5.1593903e-04 0.0000000e+00 
0.0000000e+00 3.3730877e-05 0.0000000e+00 
0.0000000e+00 9.4611452e-05 0.0000000e+00 
0.0000000e+00 -2.7834212e-05 0.0000000e+00 
2.0454350e-05 -1.7899713e-06 1.4568243e-05 
5.9163089e-05 2.4131014e-05 8.8385668e-06 
4.1170701e-05 1.0708834e-05 3.2584358e-06 
5.8178612e-05 -7.8846446e-05 1.7666169e-07 
2.9886174e-05 -1.1926045e-04 1.5623875e-05 
2.5572464e-05 -5.9217597e-05 -2.6142114e-05 
4.7337921e-06 3.3261051e-05 -5.2779989e-05 
2.6862910e-05 4.0584746e-05 -4.2651695e-06 
-5.6273329e-06 2.3214574e-05 2.0745678e-05 
4.3123488e-05 -2.8219350e-05 -4.4715540e-05 
4.3946995e-05 3.9393967e-06 1.0117783e-05 
4.2468142e-05 7.2571209e-05 1.0576753e-05 
8.5847278e-05 2.6364639e-06 1.1395686e-05 
7.2482180e-05 -5.2747524e-05 3.3593213e-05 
2.9940917e-05 -9.8331555e-05 2.3947296e-05 
1.1145317e-05 -8.3662264e-05 -2.3357654e-05 
1.5595726e-06 1.7983686e-05 -4.4772889e-05 
1.7083937e-06 -4.3770683e-06 1.7077444e-05 
2.7844597e-05 6.5305685e-05 8.1678181e-06 
0.0000000e+00 0.0000000e+00 0.0000000e+00 
0.0000000e+00 0.0000000e+00 0.0000000e+00 
0.0000000e+00 0.0000000e+00 0.0000000e+00 
0.0000000e+00 0.0000000e+00 0.0000000e+00 
0.0000000e+00 0.0000000e+00 0.0000000e+00 
0.0000000e+00 0.0000000e+00 0.0000000e+00 
0.0000000e+00 0.0000000e+00 0.0000000e+00 
0.0000000e+00 0.0000000e+00 0.0000000e+00 
0.0000000e+00 0.0000000e+00 0.0000000e+00 
0.0000000e+00 0.0000000e+00 0.0000000e+00 
0.0000000e+00 0.0000000e+00 0.0000000e+00 
0.0000000e+00 0.0000000e+00 0.0000000e+00 
0.0000000e+00 0.0000000e+00 0.0000000e+00 
0.0000000e+00 0.0000000e+00 0.0000000e+00 
0.0000000e+00 0.0000000e+00 0.0000000e+00 
0.0000000e+00 0.0000000e+00 0.0000000e+00 
0.0000000e+00 0.0000000e+00 0.0000000e+00 
0.0000000e+00 0.0000000e+00 0.0000000e+00 
0.0000000e+00 0.0000000e+00 0.0000000e+00 
0.0000000e+00 0.0000000e+00 0.0000000e+00 
0.0000000e+00 0.0000000e+00 0.0000000e+00 
0.0000000e+00 0.0000000e+00 0.0000000e+00 
0.0000000e+00 0.0000000e+00 0.0000000e+00 
0.0000000e+00 0.0000000e+00 0.0000000e+00 
0.0000000e+00 0.0000000e+00 0.0000000e+00 
0.0000000e+00 0.0000000e+00 0.0000000e+00 
0.0000000e+00 0.0000000e+00 0.0000000e+00 
0.0000000e+00 0.0000000e+00 0.0000000e+00 
0.0000000e+00 0.0000000e+00 0.0000000e+00 
0.0000000e+00 0.0000000e+00 0.0000000e+00 
0.0000000e+00 0.0000000e+00 0.0000000e+00 
0.0000000e+00 0.0000000e+00 0.0000000e+00 
0.0000000e+00 0.0000000e+00 0.0000000e+00 
0.0000000e+00 0.0000000e+00 0.0000000e+00 
0.0000000e+00 0.0000000e+00 0.0000000e+00 
0.0000000e+00 0.0000000e+00 0.0000000e+00 
0.0000000e+00 0.0000000e+00 0.0000000e+00 
0.0000000e+00 0.0000000e+00 0.0000000e+00 
0.0000000e+00 0.0000000e+00 0.0000000e+00 
0.0000000e+00 0.0000000e+00 0.0000000e+00 
0.0000000e+00 0.0000000e+00 0.0000000e+00 
0.0000000e+00 0.0000000e+00 0.0000000e+00 
8.7396902e-06 3.8297967e-06 -6.3350149e-06 
-8.4284630e-07 -6.1832338e-06 -7.1661805e-07 
-9.1304155e-06 7.3145884e-06 4.1761855e-06 
-3.0261162e-06 1.8270830e-05 5.3389516e-07 
-4.8113889e-06 3.4428829e-06 -4.7670787e-06 
1.4112013e-05 3.8990228e-07 -3.5186752e-06 
1.7827837e-05 -1.4281021e-05 -2.9430432e-06 
1.8878729e-05 -1.3573719e-05 4.8139171e-08 
6.8728195e-06 -1.1489863e-06 3.4128248e-06 
-1.6029250e-06 3.9581655e-06 3.5333444e-06 