# vtk DataFile Version 4.0
vtk output
ASCII
DATASET UNSTRUCTURED_GRID
POINTS 661 float
0.0000000e+00 0.0000000e+00 0.0000000e+00 
0.0000000e+00 0.0000000e+00 4.0000000e+01 
5.0000000e+00 0.0000000e+00 0.0000000e+00 
5.0000000e+00 0.0000000e+00 4.0000000e+01 
5.0000000e+00 1.0000000e+00 0.0000000e+00 
5.0000000e+00 1.0000000e+00 4.0000000e+01 
0.0000000e+00 1.0000000e+00 0.0000000e+00 
0.0000000e+00 1.0000000e+00 4.0000000e+01 
5.0000000e+00 2.0000000e+00 0.0000000e+00 
5.0000000e+00 2.0000000e+00 4.0000000e+01 
3.0000000e+00 2.0000000e+00 0.0000000e+00 
3.0000000e+00 2.0000000e+00 4.0000000e+01 
0.0000000e+00 2.0000000e+00 0.0000000e+00 
0.0000000e+00 2.0000000e+00 4.0000000e+01 
1.5000000e+00 3.0000000e+00 0.0000000e+00 
1.5000000e+00 3.0000000e+00 4.0000000e+01 
7.5000000e-01 3.0000000e+00 0.0000000e+00 
7.5000000e-01 3.0000000e+00 4.0000000e+01 
0.0000000e+00 3.0000000e+00 0.0000000e+00 
0.0000000e+00 3.0000000e+00 4.0000000e+01 
7.5000000e-01 3.0000000e+00 5.0000000e-01 
7.5000000e-01 3.0000000e+00 1.0000000e+00 
7.5000000e-01 3.0000000e+00 1.5000000e+00 
7.5000000e-01 3.0000000e+00 2.0000000e+00 
7.5000000e-01 3.0000000e+00 2.5000000e+00 
7.5000000e-01 3.0000000e+00 3.0000000e+00 
7.5000000e-01 3.0000000e+00 3.5000000e+00 
7.5000000e-01 3.0000000e+00 4.0000000e+00 
7.5000000e-01 3.0000000e+00 4.5000000e+00 
7.5000000e-01 3.0000000e+00 5.0000000e+00 
7.5000000e-01 3.0000000e+00 5.5000000e+00 
7.5000000e-01 3.0000000e+00 6.0000000e+00 
7.5000000e-01 3.0000000e+00 6.5000000e+00 
7.5000000e-01 3.0000000e+00 7.0000000e+00 
7.5000000e-01 3.0000000e+00 7.5000000e+00 
7.5000000e-01 3.0000000e+00 8.0000000e+00 
7.5000000e-01 3.0000000e+00 8.5000000e+00 
7.5000000e-01 3.0000000e+00 9.0000000e+00 
7.5000000e-01 3.0000000e+00 9.5000000e+00 
7.5000000e-01 3.0000000e+00 1.0000000e+01 
7.5000000e-01 3.0000000e+00 1.0500000e+01 
7.5000000e-01 3.0000000e+00 1.1000000e+01 
7.5000000e-01 3.0000000e+00 1.1500000e+01 
7.5000000e-01 3.0000000e+00 1.2000000e+01 
7.5000000e-01 3.0000000e+00 1.2500000e+01 
7.5000000e-01 3.0000000e+00 1.3000000e+01 
7.5000000e-01 3.0000000e+00 1.3500000e+01 
7.5000000e-01 3.0000000e+00 1.4000000e+01 
7.5000000e-01 3.0000000e+00 1.4500000e+01 
7.5000000e-01 3.0000000e+00 1.5000000e+01 
7.5000000e-01 3.0000000e+00 1.5500000e+01 
7.5000000e-01 3.0000000e+00 1.6000000e+01 
7.5000000e-01 3.0000000e+00 1.6500000e+01 
7.5000000e-01 3.0000000e+00 1.7000000e+01 
7.5000000e-01 3.0000000e+00 1.7500000e+01 
7.5000000e-01 3.0000000e+00 1.8000000e+01 
7.5000000e-01 3.0000000e+00 1.8500000e+01 
7.5000000e-01 3.0000000e+00 1.9000000e+01 
7.5000000e-01 3.0000000e+00 1.9500000e+01 
7.5000000e-01 3.0000000e+00 2.0000000e+01 
7.5000000e-01 3.0000000e+00 2.0500000e+01 
7.5000000e-01 3.0000000e+00 2.1000000e+01 
7.5000000e-01 3.0000000e+00 2.1500000e+01 
7.5000000e-01 3.0000000e+00 2.2000000e+01 
7.5000000e-01 3.0000000e+00 2.2500000e+01 
7.5000000e-01 3.0000000e+00 2.3000000e+01 
7.5000000e-01 3.0000000e+00 2.3500000e+01 
7.5000000e-01 3.0000000e+00 2.4000000e+01 
7.5000000e-01 3.0000000e+00 2.4500000e+01 
7.5000000e-01 3.0000000e+00 2.5000000e+01 
7.5000000e-01 3.0000000e+00 2.5500000e+01 
7.5000000e-01 3.0000000e+00 2.6000000e+01 
7.5000000e-01 3.0000000e+00 2.6500000e+01 
7.5000000e-01 3.0000000e+00 2.7000000e+01 
7.5000000e-01 3.0000000e+00 2.7500000e+01 
7.5000000e-01 3.0000000e+00 2.8000000e+01 
7.5000000e-01 3.0000000e+00 2.8500000e+01 
7.5000000e-01 3.0000000e+00 2.9000000e+01 
7.5000000e-01 3.0000000e+00 2.9500000e+01 
7.5000000e-01 3.0000000e+00 3.0000000e+01 
7.5000000e-01 3.0000000e+00 3.0500000e+01 
7.5000000e-01 3.0000000e+00 3.1000000e+01 
7.5000000e-01 3.0000000e+00 3.1500000e+01 
7.5000000e-01 3.0000000e+00 3.2000000e+01 
7.5000000e-01 3.0000000e+00 3.2500000e+01 
7.5000000e-01 3.0000000e+00 3.3000000e+01 
7.5000000e-01 3.0000000e+00 3.3500000e+01 
7.5000000e-01 3.0000000e+00 3.4000000e+01 
7.5000000e-01 3.0000000e+00 3.4500000e+01 
7.5000000e-01 3.0000000e+00 3.5000000e+01 
7.5000000e-01 3.0000000e+00 3.5500000e+01 
7.5000000e-01 3.0000000e+00 3.6000000e+01 
7.5000000e-01 3.0000000e+00 3.6500000e+01 
7.5000000e-01 3.0000000e+00 3.7000000e+01 
7.5000000e-01 3.0000000e+00 3.7500000e+01 
7.5000000e-01 3.0000000e+00 3.8000000e+01 
7.5000000e-01 3.0000000e+00 3.8500000e+01 
7.5000000e-01 3.0000000e+00 3.9000000e+01 
7.5000000e-01 3.0000000e+00 3.9500000e+01 
7.5000000e-01 3.0000000e+00 4.0500000e+01 
7.5000000e-01 3.0000000e+00 4.1000000e+01 
7.5000000e-01 3.0000000e+00 4.1500000e+01 
7.5000000e-01 3.0000000e+00 4.2000000e+01 
7.5000000e-01 3.0000000e+00 4.2500000e+01 
7.5000000e-01 3.0000000e+00 4.3000000e+01 
7.5000000e-01 3.0000000e+00 4.3500000e+01 
7.5000000e-01 3.0000000e+00 4.4000000e+01 
7.5000000e-01 3.0000000e+00 4.4500000e+01 
7.5000000e-01 3.0000000e+00 4.5000000e+01 
7.5000000e-01 3.0000000e+00 4.5500000e+01 
7.5000000e-01 3.0000000e+00 4.6000000e+01 
7.5000000e-01 3.0000000e+00 4.6500000e+01 
7.5000000e-01 3.0000000e+00 4.7000000e+01 
7.5000000e-01 3.0000000e+00 4.7500000e+01 
7.5000000e-01 3.0000000e+00 4.8000000e+01 
7.5000000e-01 3.0000000e+00 4.8500000e+01 
7.5000000e-01 3.0000000e+00 4.9000000e+01 
7.5000000e-01 3.0000000e+00 4.9500000e+01 
7.5000000e-01 3.0000000e+00 5.0000000e+01 
7.5000000e-01 3.0250001e+00 0.0000000e+00 
7.5000000e-01 3.0250001e+00 5.0000000e-01 
7.5000000e-01 3.0250001e+00 1.0000000e+00 
7.5000000e-01 3.0250001e+00 1.5000000e+00 
7.5000000e-01 3.0250001e+00 2.0000000e+00 
7.5000000e-01 3.0250001e+00 2.5000000e+00 
7.5000000e-01 3.0250001e+00 3.0000000e+00 
7.5000000e-01 3.0250001e+00 3.5000000e+00 
7.5000000e-01 3.0250001e+00 4.0000000e+00 
7.5000000e-01 3.0250001e+00 4.5000000e+00 
7.5000000e-01 3.0250001e+00 5.0000000e+00 
7.5000000e-01 3.0250001e+00 5.5000000e+00 
7.5000000e-01 3.0250001e+00 6.0000000e+00 
7.5000000e-01 3.0250001e+00 6.5000000e+00 
7.5000000e-01 3.0250001e+00 7.0000000e+00 
7.5000000e-01 3.0250001e+00 7.5000000e+00 
7.5000000e-01 3.0250001e+00 8.0000000e+00 
7.5000000e-01 3.0250001e+00 8.5000000e+00 
7.5000000e-01 3.0250001e+00 9.0000000e+00 
7.5000000e-01 3.0250001e+00 9.5000000e+00 
7.5000000e-01 3.0250001e+00 1.0000000e+01 
7.5000000e-01 3.0250001e+00 1.0500000e+01 
7.5000000e-01 3.0250001e+00 1.1000000e+01 
7.5000000e-01 3.0250001e+00 1.1500000e+01 
7.5000000e-01 3.0250001e+00 1.2000000e+01 
7.5000000e-01 3.0250001e+00 1.2500000e+01 
7.5000000e-01 3.0250001e+00 1.3000000e+01 
7.5000000e-01 3.0250001e+00 1.3500000e+01 
7.5000000e-01 3.0250001e+00 1.4000000e+01 
7.5000000e-01 3.0250001e+00 1.4500000e+01 
7.5000000e-01 3.0250001e+00 1.5000000e+01 
7.5000000e-01 3.0250001e+00 1.5500000e+01 
7.5000000e-01 3.0250001e+00 1.6000000e+01 
7.5000000e-01 3.0250001e+00 1.6500000e+01 
7.5000000e-01 3.0250001e+00 1.7000000e+01 
7.5000000e-01 3.0250001e+00 1.7500000e+01 
7.5000000e-01 3.0250001e+00 1.8000000e+01 
7.5000000e-01 3.0250001e+00 1.8500000e+01 
7.5000000e-01 3.0250001e+00 1.9000000e+01 
7.5000000e-01 3.0250001e+00 1.9500000e+01 
7.5000000e-01 3.0250001e+00 2.0000000e+01 
7.5000000e-01 3.0250001e+00 2.0500000e+01 
7.5000000e-01 3.0250001e+00 2.1000000e+01 
7.5000000e-01 3.0250001e+00 2.1500000e+01 
7.5000000e-01 3.0250001e+00 2.2000000e+01 
7.5000000e-01 3.0250001e+00 2.2500000e+01 
7.5000000e-01 3.0250001e+00 2.3000000e+01 
7.5000000e-01 3.0250001e+00 2.3500000e+01 
7.5000000e-01 3.0250001e+00 2.4000000e+01 
7.5000000e-01 3.0250001e+00 2.4500000e+01 
7.5000000e-01 3.0250001e+00 2.5000000e+01 
7.5000000e-01 3.0250001e+00 2.5500000e+01 
7.5000000e-01 3.0250001e+00 2.6000000e+01 
7.5000000e-01 3.0250001e+00 2.6500000e+01 
7.5000000e-01 3.0250001e+00 2.7000000e+01 
7.5000000e-01 3.0250001e+00 2.7500000e+01 
7.5000000e-01 3.0250001e+00 2.8000000e+01 
7.5000000e-01 3.0250001e+00 2.8500000e+01 
7.5000000e-01 3.0250001e+00 2.9000000e+01 
7.5000000e-01 3.0250001e+00 2.9500000e+01 
7.5000000e-01 3.0250001e+00 3.0000000e+01 
7.5000000e-01 3.0250001e+00 3.0500000e+01 
7.5000000e-01 3.0250001e+00 3.1000000e+01 
7.5000000e-01 3.0250001e+00 3.1500000e+01 
7.5000000e-01 3.0250001e+00 3.2000000e+01 
7.5000000e-01 3.0250001e+00 3.2500000e+01 
7.5000000e-01 3.0250001e+00 3.3000000e+01 
7.5000000e-01 3.0250001e+00 3.3500000e+01 
7.5000000e-01 3.0250001e+00 3.4000000e+01 
7.5000000e-01 3.0250001e+00 3.4500000e+01 
7.5000000e-01 3.0250001e+00 3.5000000e+01 
7.5000000e-01 3.0250001e+00 3.5500000e+01 
7.5000000e-01 3.0250001e+00 3.6000000e+01 
7.5000000e-01 3.0250001e+00 3.6500000e+01 
7.5000000e-01 3.0250001e+00 3.7000000e+01 
7.5000000e-01 3.0250001e+00 3.7500000e+01 
7.5000000e-01 3.0250001e+00 3.8000000e+01 
7.5000000e-01 3.0250001e+00 3.8500000e+01 
7.5000000e-01 3.0250001e+00 3.9000000e+01 
7.5000000e-01 3.0250001e+00 3.9500000e+01 
7.5000000e-01 3.0250001e+00 4.0000000e+01 
7.5000000e-01 3.0250001e+00 4.0500000e+01 
7.5000000e-01 3.0250001e+00 4.1000000e+01 
7.5000000e-01 3.0250001e+00 4.1500000e+01 
7.5000000e-01 3.0250001e+00 4.2000000e+01 
7.5000000e-01 3.0250001e+00 4.2500000e+01 
7.5000000e-01 3.0250001e+00 4.3000000e+01 
7.5000000e-01 3.0250001e+00 4.3500000e+01 
7.5000000e-01 3.0250001e+00 4.4000000e+01 
7.5000000e-01 3.0250001e+00 4.4500000e+01 
7.5000000e-01 3.0250001e+00 4.5000000e+01 
7.5000000e-01 3.0250001e+00 4.5500000e+01 
7.5000000e-01 3.0250001e+00 4.6000000e+01 
7.5000000e-01 3.0250001e+00 4.6500000e+01 
7.5000000e-01 3.0250001e+00 4.7000000e+01 
7.5000000e-01 3.0250001e+00 4.7500000e+01 
7.5000000e-01 3.0250001e+00 4.8000000e+01 
7.5000000e-01 3.0250001e+00 4.8500000e+01 
7.5000000e-01 3.0250001e+00 4.9000000e+01 
7.5000000e-01 3.0250001e+00 4.9500000e+01 
7.5000000e-01 3.0250001e+00 5.0000000e+01 
3.0000000e+00 2.0000000e+00 3.6000000e+01 
8.0487806e-01 3.0000000e+00 3.6000000e+01 
0.0000000e+00 0.0000000e+00 2.0000000e+00 
0.0000000e+00 0.0000000e+00 4.0000000e+00 
0.0000000e+00 0.0000000e+00 6.0000000e+00 
0.0000000e+00 0.0000000e+00 8.0000000e+00 
0.0000000e+00 0.0000000e+00 1.0000000e+01 
0.0000000e+00 0.0000000e+00 1.2000000e+01 
0.0000000e+00 0.0000000e+00 1.4000000e+01 
0.0000000e+00 0.0000000e+00 1.6000000e+01 
[...]
POINT_DATA 661
FIELD FieldData 3
DISPLACEMENT 3 661  float
0.0000000e+00 0.0000000e+00 0.0000000e+00 
0.0000000e+00 0.0000000e+00 0.0000000e+00 
0.0000000e+00 0.0000000e+00 0.0000000e+00 
0.0000000e+00 0.0000000e+00 0.0000000e+00 
4.5931115e-06 -5.6511667e-06 -1.7588578e-06 
3.2876636e-07 9.4532635e-07 1.3105887e-06 
0.0000000e+00 -2.4800720e-06 0.0000000e+00 
0.0000000e+00 -1.0938328e-05 0.0000000e+00 
-2.0865996e-07 -5.8875912e-06 -4.3174591e-06 
-2.7333519e-06 2.3607538e-06 -1.4280687e-06 
-2.7712898e-07 -2.3549734e-05 -2.6596341e-05 
-1.4297339e-06 -3.2068983e-06 -5.4337024e-06 
0.0000000e+00 -3.1388133e-06 0.0000000e+00 
0.0000000e+00 -1.9414339e-05 0.0000000e+00 
-1.6968376e-06 -2.0567235e-05 -9.7859855e-05 
-9.6463982e-06 -1.5409192e-05 -3.4011249e-05 
-9.5362366e-06 3.9199102e-05 -5.1104562e-05 
2.2367656e-06 -3.2780019e-05 -3.8765422e-05 
0.0000000e+00 -6.9442649e-06 0.0000000e+00 
0.0000000e+00 -2.6574769e-05 0.0000000e+00 
2.2360920e-05 4.6089481e-05 -7.1009861e-05 
3.5559526e-05 6.4073298e-05 -5.5947679e-05 
4.2166273e-05 8.7058412e-05 -4.7702892e-05 
4.6281864e-05 1.1339423e-04 -3.1450050e-05 
4.9064482e-05 1.4118305e-04 -6.2772647e-06 
4.4146109e-05 1.6523742e-04 9.7111842e-06 
3.0979973e-05 1.7424759e-04 3.0879950e-05 
2.0271669e-05 1.3900398e-04 5.1151732e-05 
-1.1644565e-05 1.7810116e-05 8.8297937e-05 
-2.2585664e-05 -2.3035418e-04 1.2491831e-04 
-5.6663983e-05 -6.6643476e-04 1.7251336e-04 
-1.1332361e-04 -1.3316910e-03 1.1487096e-04 
-2.5047045e-04 -2.2429631e-03 1.9230822e-04 
-2.5121984e-04 -3.2290861e-03 1.7436667e-04 
-1.3602441e-04 -3.9964132e-03 1.0460811e-04 
-1.0012212e-04 -4.0119980e-03 1.0367372e-04 
-2.4272960e-04 -3.8385438e-03 3.4649667e-05 
-3.1489556e-04 -3.8348618e-03 1.3177684e-05 
-2.0251868e-04 -4.1038091e-03 -2.8192520e-05 
-4.7669026e-05 -4.1392501e-03 -7.8074918e-05 
-8.1636856e-05 -3.4489264e-03 -1.5794343e-04 
-1.8086522e-04 -2.4168971e-03 -1.7144941e-04 
-1.9010939e-04 -1.5141163e-03 -1.4977947e-04 
-8.0389356e-05 -8.2695100e-04 -7.9168931e-05 
-4.4481807e-05 -3.9222307e-04 -1.1220938e-04 
-3.0876770e-05 -1.4670441e-04 -8.0061574e-05 
-3.0385827e-05 -3.0144964e-05 -6.0306174e-05 
-2.0674677e-05 7.5985427e-06 -4.3755532e-05 
-1.1936420e-05 4.7078899e-07 -2.7385591e-05 
-3.5288670e-06 -2.6026377e-05 -1.6551479e-05 
-2.4801204e-06 -5.4714132e-05 -1.5093495e-05 
-9.5100331e-06 -7.9011872e-05 -1.1973001e-05 
-1.2627125e-05 -9.5506388e-05 7.6373799e-06 
-1.5319780e-05 -1.0573461e-04 2.7131262e-05 
-3.3341177e-05 -1.1267624e-04 5.9248207e-05 
-5.1876239e-05 -1.1646924e-04 8.3429150e-05 
-5.1873736e-05 -1.1602641e-04 6.1549115e-05 
-5.5045854e-05 -1.1089070e-04 2.8014125e-05 
-3.9387734e-05 -9.9325422e-05 -1.6616515e-05 
-1.5973948e-05 -7.9880869e-05 -6.2624247e-05 
3.2413059e-06 -4.9273596e-05 -7.6211683e-05 
1.7775632e-05 -1.0067773e-05 -7.6550285e-05 
3.2341235e-05 3.6228052e-05 -7.8787569e-05 
4.2019394e-05 8.5569292e-05 -6.6714405e-05 
5.1040715e-05 1.3259650e-04 -4.4385502e-05 
5.4095548e-05 1.6977583e-04 -1.7824268e-05 
4.2641688e-05 1.8392832e-04 1.0540186e-05 
3.0274159e-05 1.4615015e-04 3.7225331e-05 
-1.2381615e-05 1.2151305e-05 6.8997928e-05 
-2.0813970e-05 -2.6222100e-04 1.0008969e-04 
-3.5906407e-05 -7.4255775e-04 1.3718293e-04 
-8.3006737e-05 -1.4654684e-03 6.9324415e-05 
-2.2850056e-04 -2.4351566e-03 1.6909830e-04 
-2.3269074e-04 -3.4329526e-03 1.6814505e-04 
-1.3431026e-04 -4.0941024e-03 1.3708387e-04 
-1.0286170e-04 -4.0176245e-03 1.8524595e-04 
-2.5281977e-04 -3.8726176e-03 1.2990287e-04 
-3.2153452e-04 -3.9383941e-03 1.1232448e-04 
-2.1319189e-04 -4.2417012e-03 7.3328258e-05 
-7.7362871e-05 -4.1771419e-03 4.0546693e-05 
-1.2388417e-04 -3.3901369e-03 -1.0148266e-04 
-2.3004155e-04 -2.3600936e-03 -1.6232936e-04 
-2.2252569e-04 -1.4831717e-03 -1.9042281e-04 
-1.0235511e-04 -8.1752060e-04 -1.6728979e-04 
-5.5386114e-05 -3.8437868e-04 -2.1104502e-04 
-3.0806375e-05 -1.2437804e-04 -1.8238244e-04 
-1.8802446e-05 1.8238243e-05 -1.6831519e-04 
3.2909763e-06 8.8402499e-05 -1.4406581e-04 
2.5346651e-05 1.1380350e-04 -9.4924522e-05 
4.2937183e-05 1.1537666e-04 -4.4831286e-05 
3.5541958e-05 1.0427094e-04 -6.7426363e-06 
2.5234605e-05 8.5319247e-05 3.0021445e-05 
1.9097108e-05 6.0880422e-05 5.0796672e-05 
1.2822099e-05 3.4372370e-05 6.0658480e-05 
2.4877850e-06 8.8819070e-06 7.0020375e-05 
-7.6078677e-06 -1.1952695e-05 6.4159794e-05 
-1.0782360e-05 -2.6250606e-05 4.5869470e-05 
-1.4395955e-05 -3.3945864e-05 2.1428328e-05 
-1.0526395e-05 -3.5873873e-05 -2.8661539e-06 
0.0000000e+00 -2.5802578e-05 0.0000000e+00 
0.0000000e+00 -1.4737287e-05 0.0000000e+00 
0.0000000e+00 -8.5690942e-07 0.0000000e+00 
0.0000000e+00 1.3536058e-05 0.0000000e+00 
0.0000000e+00 2.5601636e-05 0.0000000e+00 
0.0000000e+00 3.2801727e-05 0.0000000e+00 
0.0000000e+00 3.3613363e-05 0.0000000e+00 
0.0000000e+00 2.7875773e-05 0.0000000e+00 
0.0000000e+00 1.6721911e-05 0.0000000e+00 
0.0000000e+00 2.2223314e-06 0.0000000e+00 
0.0000000e+00 -1.3048782e-05 0.0000000e+00 
0.0000000e+00 -2.6368436e-05 0.0000000e+00 
0.0000000e+00 -3.5140663e-05 0.0000000e+00 
0.0000000e+00 -3.7233865e-05 0.0000000e+00 
0.0000000e+00 -3.1501615e-05 0.0000000e+00 
0.0000000e+00 -1.8404004e-05 0.0000000e+00 
0.0000000e+00 -4.0322777e-07 0.0000000e+00 
0.0000000e+00 1.8251090e-05 0.0000000e+00 
0.0000000e+00 3.2496573e-05 0.0000000e+00 
0.0000000e+00 3.7923524e-05 0.0000000e+00 
0.0000000e+00 3.9411385e-05 0.0000000e+00 
0.0000000e+00 4.6257737e-05 0.0000000e+00 
0.0000000e+00 6.3852087e-05 0.0000000e+00 
0.0000000e+00 8.7045737e-05 0.0000000e+00 
0.0000000e+00 1.1353770e-04 0.0000000e+00 
0.0000000e+00 1.4151521e-04 0.0000000e+00 
0.0000000e+00 1.6623750e-04 0.0000000e+00 
0.0000000e+00 1.7493214e-04 0.0000000e+00 
0.0000000e+00 1.3909271e-04 0.0000000e+00 
0.0000000e+00 1.8922623e-05 0.0000000e+00 
0.0000000e+00 -2.3102082e-04 0.0000000e+00 
0.0000000e+00 -6.6795031e-04 0.0000000e+00 
0.0000000e+00 -1.3407208e-03 0.0000000e+00 
0.0000000e+00 -2.2503810e-03 0.0000000e+00 
0.0000000e+00 -3.2605636e-03 0.0000000e+00 
0.0000000e+00 -4.0201885e-03 0.0000000e+00 
0.0000000e+00 -4.0425244e-03 0.0000000e+00 
0.0000000e+00 -3.8523346e-03 0.0000000e+00 
0.0000000e+00 -3.8655568e-03 0.0000000e+00 
0.0000000e+00 -4.1237609e-03 0.0000000e+00 
0.0000000e+00 -4.1736704e-03 0.0000000e+00 
0.0000000e+00 -3.4670457e-03 0.0000000e+00 
0.0000000e+00 -2.4355929e-03 0.0000000e+00 
0.0000000e+00 -1.5164318e-03 0.0000000e+00 
0.0000000e+00 -8.3120028e-04 0.0000000e+00 
0.0000000e+00 -3.9203468e-04 0.0000000e+00 
0.0000000e+00 -1.4584762e-04 0.0000000e+00 
0.0000000e+00 -2.9226414e-05 0.0000000e+00 
0.0000000e+00 8.0271175e-06 0.0000000e+00 
0.0000000e+00 8.8051462e-07 0.0000000e+00 
0.0000000e+00 -2.5508432e-05 0.0000000e+00 
0.0000000e+00 -5.4552609e-05 0.0000000e+00 
0.0000000e+00 -7.8769379e-05 0.0000000e+00 
0.0000000e+00 -9.5444011e-05 0.0000000e+00 
0.0000000e+00 -1.0591228e-04 0.0000000e+00 
0.0000000e+00 -1.1277813e-04 0.0000000e+00 
0.0000000e+00 -1.1646931e-04 0.0000000e+00 
0.0000000e+00 -1.1611245e-04 0.0000000e+00 
0.0000000e+00 -1.1088856e-04 0.0000000e+00 
0.0000000e+00 -9.9398560e-05 0.0000000e+00 
0.0000000e+00 -7.9568526e-05 0.0000000e+00 
0.0000000e+00 -4.9313563e-05 0.0000000e+00 
0.0000000e+00 -9.9566214e-06 0.0000000e+00 
0.0000000e+00 3.6283422e-05 0.0000000e+00 
0.0000000e+00 8.5621003e-05 0.0000000e+00 
0.0000000e+00 1.3290347e-04 0.0000000e+00 
0.0000000e+00 1.7067273e-04 0.0000000e+00 
0.0000000e+00 1.8476172e-04 0.0000000e+00 
0.0000000e+00 1.4631893e-04 0.0000000e+00 
0.0000000e+00 1.3343851e-05 0.0000000e+00 
0.0000000e+00 -2.6334127e-04 0.0000000e+00 
0.0000000e+00 -7.4453867e-04 0.0000000e+00 
0.0000000e+00 -1.4762494e-03 0.0000000e+00 
0.0000000e+00 -2.4441916e-03 0.0000000e+00 
0.0000000e+00 -3.4681372e-03 0.0000000e+00 
0.0000000e+00 -4.1181571e-03 0.0000000e+00 
0.0000000e+00 -4.0477910e-03 0.0000000e+00 
0.0000000e+00 -3.8862347e-03 0.0000000e+00 
0.0000000e+00 -3.9706030e-03 0.0000000e+00 
0.0000000e+00 -4.2633605e-03 0.0000000e+00 
0.0000000e+00 -4.2112716e-03 0.0000000e+00 
0.0000000e+00 -3.4066690e-03 0.0000000e+00 
0.0000000e+00 -2.3763049e-03 0.0000000e+00 
0.0000000e+00 -1.4848470e-03 0.0000000e+00 
0.0000000e+00 -8.2091952e-04 0.0000000e+00 
0.0000000e+00 -3.8417499e-04 0.0000000e+00 
0.0000000e+00 -1.2352479e-04 0.0000000e+00 
0.0000000e+00 1.9204019e-05 0.0000000e+00 
0.0000000e+00 8.8776746e-05 0.0000000e+00 
0.0000000e+00 1.1430747e-04 0.0000000e+00 
0.0000000e+00 1.1571768e-04 0.0000000e+00 
0.0000000e+00 1.0438509e-04 0.0000000e+00 
0.0000000e+00 8.5252635e-05 0.0000000e+00 
0.0000000e+00 6.0890852e-05 0.0000000e+00 
0.0000000e+00 3.4367131e-05 0.0000000e+00 
0.0000000e+00 8.9936120e-06 0.0000000e+00 
0.0000000e+00 -1.1855013e-05 0.0000000e+00 
0.0000000e+00 -2.6221305e-05 0.0000000e+00 
0.0000000e+00 -3.3965513e-05 0.0000000e+00 
0.0000000e+00 -3.5880988e-05 0.0000000e+00 
0.0000000e+00 -3.2872478e-05 0.0000000e+00 
0.0000000e+00 -2.5740626e-05 0.0000000e+00 
0.0000000e+00 -1.4680430e-05 0.0000000e+00 
0.0000000e+00 -8.2769157e-07 0.0000000e+00 
0.0000000e+00 1.3524750e-05 0.0000000e+00 
0.0000000e+00 2.5553873e-05 0.0000000e+00 
0.0000000e+00 3.2736094e-05 0.0000000e+00 
0.0000000e+00 3.3553173e-05 0.0000000e+00 
0.0000000e+00 2.7837283e-05 0.0000000e+00 
0.0000000e+00 1.6707443e-05 0.0000000e+00 
0.0000000e+00 2.2231625e-06 0.0000000e+00 
0.0000000e+00 -1.3041376e-05 0.0000000e+00 
0.0000000e+00 -2.6352893e-05 0.0000000e+00 
0.0000000e+00 -3.5105317e-05 0.0000000e+00 
0.0000000e+00 -3.7169000e-05 0.0000000e+00 
0.0000000e+00 -3.1414093e-05 0.0000000e+00 
0.0000000e+00 -1.8321552e-05 0.0000000e+00 
0.0000000e+00 -3.6286406e-07 0.0000000e+00 
0.0000000e+00 1.8224258e-05 0.0000000e+00 
0.0000000e+00 3.2406828e-05 0.0000000e+00 
0.0000000e+00 3.7807418e-05 0.0000000e+00 
3.4260734e-06 2.6807613e-05 3.2903283e-06 
2.6055861e-05 8.6258478e-05 3.0037410e-05 
0.0000000e+00 0.0000000e+00 0.0000000e+00 
0.0000000e+00 0.0000000e+00 0.0000000e+00 
0.0000000e+00 0.0000000e+00 0.0000000e+00 
0.0000000e+00 0.0000000e+00 0.0000000e+00 
0.0000000e+00 0.0000000e+00 0.0000000e+00 
0.0000000e+00 0.0000000e+00 0.0000000e+00 
0.0000000e+00 0.0000000e+00 0.0000000e+00 
0.0000000e+00 0.0000000e+00 0.0000000e+00 
0.0000000e+00 0.0000000e+00 0.0000000e+00 
0.0000000e+00 0.0000000e+00 0.0000000e+00 
0.0000000e+00 0.0000000e+00 0.0000000e+00 
0.0000000e+00 0.0000000e+00 0.0000000e+00 
0.0000000e+00 0.0000000e+00 0.0000000e+00 
0.0000000e+00 0.0000000e+00 0.0000000e+00 
0.0000000e+00 0.0000000e+00 0.0000000e+00 
0.0000000e+00 0.0000000e+00 0.0000000e+00 
0.0000000e+00 0.0000000e+00 0.0000000e+00 
0.0000000e+00 0.0000000e+00 0.0000000e+00 
0.0000000e+00 0.0000000e+00 0.0000000e+00 
0.0000000e+00 0.0000000e+00 0.0000000e+00 
0.0000000e+00 0.0000000e+00 0.0000000e+00 
0.0000000e+00 0.0000000e+00 0.0000000e+00 
0.0000000e+00 0.0000000e+00 0.0000000e+00 
0.0000000e+00 0.0000000e+00 0.0000000e+00 
0.0000000e+00 0.0000000e+00 0.0000000e+00 
0.0000000e+00 0.0000000e+00 0.0000000e+00 
0.0000000e+00 0.0000000e+00 0.0000000e+00 
0.0000000e+00 0.0000000e+00 0.0000000e+00 
0.0000000e+00 0.0000000e+00 0.0000000e+00 
0.0000000e+00 0.0000000e+00 0.0000000e+00 
0.0000000e+00 0.0000000e+00 0.0000000e+00 
0.0000000e+00 0.0000000e+00 0.0000000e+00 
0.0000000e+00 0.0000000e+00 0.0000000e+00 
0.0000000e+00 0.0000000e+00 0.0000000e+00 
0.0000000e+00 0.0000000e+00 0.0000000e+00 
0.0000000e+00 0.0000000e+00 0.0000000e+00 
0.0000000e+00 0.0000000e+00 0.0000000e+00 
0.0000000e+00 0.0000000e+00 0.0000000e+00 
0.0000000e+00 0.0000000e+00 0.0000000e+00 
0.0000000e+00 0.0000000e+00 0.0000000e+00 
0.0000000e+00 0.0000000e+00 0.0000000e+00 
0.0000000e+00 0.0000000e+00 0.0000000e+00 
-2.2595827e-06 -2.9153327e-06 -4.9250707e-06 
7.6811893e-06 9.4328618e-07 -1.1019375e-05 
3.0647952e-05 -3.2437501e-06 -1.3948300e-05 
4.5426259e-05 -1.3660580e-05 -7.6097376e-06 
4.5181368e-05 -8.9170489e-06 1.6649439e-06 
1.8909612e-05 -8.3105510e-07 -2.1714595e-06 
5.3001718e-06 2.5110230e-06 4.1765343e-06 
5.6107810e-06 1.1264229e-06 7.8026560e-06 
2.9180317e-06 -5.7037591e-06 4.8933734e-06 
-2.0921570e-06 -5.0341600e-06 2.2558070e-06 
-4.6024093e-06 3.4252953e-06 -1.2927458e-06 
7.4644081e-06 -2.3423650e-06 -6.6893012e-06 
2.8154283e-05 -5.7640968e-06 -7.0150700e-06 
4.8777812e-05 -8.8795678e-06 -3.0307017e-06 
4.7404934e-05 -1.2668603e-05 3.6466333e-06 
2.1190095e-05 -5.5563878e-06 4.2585762e-06 
1.1427775e-06 6.2138192e-06 8.8996694e-06 
-2.7175331e-06 2.8425518e-06 4.5393135e-06 
1.9804452e-06 -4.5937099e-06 2.5848785e-06 
0.0000000e+00 4.2379950e-05 0.0000000e+00 
0.0000000e+00 3.3046083e-05 0.0000000e+00 
0.0000000e+00 -1.8731238e-04 0.0000000e+00 
0.0000000e+00 -5.1226409e-04 0.0000000e+00 
0.0000000e+00 -4.7614364e-04 0.0000000e+00 
0.0000000e+00 -1.6148812e-04 0.0000000e+00 
0.0000000e+00 -2.9590705e-05 0.0000000e+00 
0.0000000e+00 -3.2509597e-05 0.0000000e+00 
0.0000000e+00 -4.1351646e-05 0.0000000e+00 
0.0000000e+00 -3.9523911e-05 0.0000000e+00 
0.0000000e+00 3.1153369e-05 0.0000000e+00 
0.0000000e+00 3.2942302e-05 0.0000000e+00 
0.0000000e+00 -1.8628540e-04 0.0000000e+00 
0.0000000e+00 -4.9703952e-04 0.0000000e+00 
0.0000000e+00 -5.1141618e-04 0.0000000e+00 
0.0000000e+00 -1.8699757e-04 0.0000000e+00 
0.0000000e+00 1.1179520e-05 0.0000000e+00 
0.0000000e+00 3.7252208e-05 0.0000000e+00 
0.0000000e+00 -1.0258248e-05 0.0000000e+00 
6.8205986e-07 -1.2663021e-05 -6.7469359e-06 
-4.0488567e-06 -1.5224839e-05 -8.0962573e-06 
4.2936566e-07 -1.2867714e-06 -2.1939663e-06 
1.2975928e-06 -7.9973652e-06 2.3048894e-06 
3.9049532e-06 -2.7187486e-06 -1.0837965e-05 
2.0208294e-05 8.7861235e-07 -1.7754432e-05 
3.8341961e-05 9.4303260e-07 -6.0408479e-06 
4.9061880e-05 -2.2771944e-06 -5.1130000e-06 
3.3806333e-05 -8.6723430e-06 -1.2911095e-06 
1.1440465e-05 1.5001592e-06 -1.0708569e-05 
1.7077321e-06 3.6844833e-06 4.1230951e-06 
5.3270778e-06 -7.5490613e-07 1.2157630e-05 
-1.2149077e-06 -7.9028141e-06 9.2989476e-06 
-9.0948570e-06 -5.2346531e-06 -1.8679572e-06 
-2.0524697e-06 4.3140417e-06 -8.5145248e-06 
2.3723554e-05 -3.2160078e-06 -8.2248362e-06 
3.0916799e-05 -3.3846245e-06 -2.7682324e-07 
4.0054823e-05 -8.3921295e-06 4.5642678e-06 
2.5885280e-05 -1.0277447e-05 4.9479290e-06 
4.5732477e-06 -1.5349158e-06 -7.5439607e-06 
3.5823664e-06 6.5815289e-06 2.8037286e-06 
2.3078044e-06 8.3330599e-07 7.0696583e-06 
3.5166295e-06 -3.9517854e-06 4.8546763e-06 
1.2237124e-06 -1.3196760e-05 -3.0615782e-05 
0.0000000e+00 8.0269179e-05 0.0000000e+00 
0.0000000e+00 6.8382025e-05 0.0000000e+00 
0.0000000e+00 -4.0099476e-04 0.0000000e+00 
0.0000000e+00 -1.1419933e-03 0.0000000e+00 
0.0000000e+00 -1.0799378e-03 0.0000000e+00 
0.0000000e+00 -3.0268586e-04 0.0000000e+00 
0.0000000e+00 -3.6713114e-05 0.0000000e+00 
0.0000000e+00 -5.9175862e-05 0.0000000e+00 
0.0000000e+00 -7.1269533e-05 0.0000000e+00 
0.0000000e+00 -6.8527646e-05 0.0000000e+00 
0.0000000e+00 5.7971265e-05 0.0000000e+00 
0.0000000e+00 6.9657450e-05 0.0000000e+00 
0.0000000e+00 -4.1721738e-04 0.0000000e+00 
0.0000000e+00 -1.1274682e-03 0.0000000e+00 
0.0000000e+00 -1.1359979e-03 0.0000000e+00 
0.0000000e+00 -3.4055268e-04 0.0000000e+00 
0.0000000e+00 2.7782919e-05 0.0000000e+00 
0.0000000e+00 6.2128551e-05 0.0000000e+00 
0.0000000e+00 -1.6273989e-05 0.0000000e+00 
-3.1744376e-06 -1.2695928e-05 2.3443190e-06 
6.5871740e-05 7.4693671e-05 -2.8198830e-05 
4.9972336e-05 1.2024900e-04 6.9838316e-05 
-2.6080728e-04 -3.9096654e-04 3.2191901e-04 
-6.4122671e-04 -1.2904392e-03 1.0490405e-04 
-5.7996414e-04 -1.3968464e-03 -1.7954041e-04 
-1.7415785e-04 -2.3047133e-04 -2.0934110e-04 
2.5424517e-06 -1.6448677e-05 -5.0735591e-05 
-2.1524909e-05 -5.5187229e-05 -1.7890839e-05 
-7.1862560e-05 -8.2107937e-05 9.8516553e-05 
-2.2900173e-05 -5.9869977e-05 -9.7032658e-05 
5.8532991e-05 3.6102541e-05 -9.0895614e-05 
5.7907255e-05 1.5074687e-04 7.2212337e-05 
-2.4897172e-04 -4.0354519e-04 2.7376018e-04 
-6.4224208e-04 -1.2510774e-03 1.8037045e-04 
-6.2006456e-04 -1.4391098e-03 -3.9383274e-05 
-1.8169389e-04 -2.8209100e-04 -3.0585576e-04 
2.6766358e-05 4.9268147e-05 -1.7687419e-04 
3.1912874e-05 6.2816645e-05 4.0409312e-05 
-3.8492080e-06 -1.1639235e-05 7.4834075e-05 
0.0000000e+00 1.0366043e-04 0.0000000e+00 
0.0000000e+00 1.3212019e-04 0.0000000e+00 
0.0000000e+00 -7.7152665e-04 0.0000000e+00 
0.0000000e+00 -2.2486353e-03 0.0000000e+00 
0.0000000e+00 -2.1076670e-03 0.0000000e+00 
0.0000000e+00 -5.1102630e-04 0.0000000e+00 
0.0000000e+00 -6.9630585e-07 0.0000000e+00 
0.0000000e+00 -8.7707507e-05 0.0000000e+00 
0.0000000e+00 -8.3415485e-05 0.0000000e+00 
0.0000000e+00 -8.2984086e-05 0.0000000e+00 
0.0000000e+00 6.9967027e-05 0.0000000e+00 
0.0000000e+00 1.3650957e-04 0.0000000e+00 
0.0000000e+00 -8.4706256e-04 0.0000000e+00 
0.0000000e+00 -2.2749931e-03 0.0000000e+00 
0.0000000e+00 -2.1595533e-03 0.0000000e+00 
0.0000000e+00 -5.2875385e-04 0.0000000e+00 
0.0000000e+00 6.9610076e-05 0.0000000e+00 
0.0000000e+00 7.7600889e-05 0.0000000e+00 
0.0000000e+00 -1.7109565e-05 0.0000000e+00 
1.0120027e-05 1.9418121e-05 -1.5705766e-05 
2.9641897e-05 3.6836082e-05 2.9845573e-06 
5.1572239e-05 -2.5003172e-05 5.5217920e-06 
5.3498101e-05 -1.0306894e-04 -2.1058535e-05 
4.7158312e-05 -8.3295956e-05 -8.1090402e-06 
3.3555923e-05 -4.1051942e-05 -3.6322758e-06 
7.7372160e-06 -6.4485298e-06 -9.5653095e-06 
-6.7014607e-06 -3.8637895e-06 3.7081802e-06 
-1.7074433e-05 -1.7830824e-05 1.3626930e-05 
-7.4258769e-06 -2.3197799e-05 -1.2197251e-05 
3.5623273e-06 1.5411708e-05 -1.5172466e-05 
2.8105358e-05 4.5316647e-05 4.7270578e-06 
6.5304492e-05 -3.4266024e-05 4.6748169e-06 
6.1814804e-05 -7.8565768e-05 9.6653439e-06 
3.5134544e-05 -1.1015475e-04 2.1048880e-05 
2.5146262e-05 -7.2603725e-05 -1.4982757e-05 
2.4433101e-07 2.2261445e-05 -3.7668400e-05 
1.2968649e-06 -5.5830997e-06 1.4708588e-05 
2.0457197e-05 5.1081282e-05 2.3985354e-05 
0.0000000e+00 0.0000000e+00 0.0000000e+00 
0.0000000e+00 0.0000000e+00 0.0000000e+00 
0.0000000e+00 0.0000000e+00 0.0000000e+00 
0.0000000e+00 0.0000000e+00 0.0000000e+00 
0.0000000e+00 0.0000000e+00 0.0000000e+00 
0.0000000e+00 0.0000000e+00 0.0000000e+00 
0.0000000e+00 0.0000000e+00 0.0000000e+00 
0.0000000e+00 0.0000000e+00 0.0000000e+00 
0.0000000e+00 0.0000000e+00 0.0000000e+00 
0.0000000e+00 0.0000000e+00 0.0000000e+00 
0.0000000e+00 0.0000000e+00 0.0000000e+00 
0.0000000e+00 0.0000000e+00 0.0000000e+00 
0.0000000e+00 0.0000000e+00 0.0000000e+00 
0.0000000e+00 0.0000000e+00 0.0000000e+00 
0.0000000e+00 0.0000000e+00 0.0000000e+00 
0.0000000e+00 0.0000000e+00 0.0000000e+00 
0.0000000e+00 0.0000000e+00 0.0000000e+00 
0.0000000e+00 0.0000000e+00 0.0000000e+00 
0.0000000e+00 0.0000000e+00 0.0000000e+00 
0.0000000e+00 0.0000000e+00 0.0000000e+00 
0.0000000e+00 0.0000000e+00 0.0000000e+00 
0.0000000e+00 0.0000000e+00 0.0000000e+00 
0.0000000e+00 0.0000000e+00 0.0000000e+00 
0.0000000e+00 0.0000000e+00 0.0000000e+00 
0.0000000e+00 0.0000000e+00 0.0000000e+00 
0.0000000e+00 0.0000000e+00 0.0000000e+00 
0.0000000e+00 0.0000000e+00 0.0000000e+00 
0.0000000e+00 0.0000000e+00 0.0000000e+00 
0.0000000e+00 0.0000000e+00 0.0000000e+00 
0.0000000e+00 0.0000000e+00 0.0000000e+00 
0.0000000e+00 0.0000000e+00 0.0000000e+00 
0.0000000e+00 0.0000000e+00 0.0000000e+00 
0.0000000e+00 0.0000000e+00 0.0000000e+00 
0.0000000e+00 0.0000000e+00 0.0000000e+00 
0.0000000e+00 0.0000000e+00 0.0000000e+00 
0.0000000e+00 0.0000000e+00 0.0000000e+00 
0.0000000e+00 0.0000000e+00 0.0000000e+00 
0.0000000e+00 0.0000000e+00 0.0000000e+00 
0.0000000e+00 0.0000000e+00 0.0000000e+00 
0.0000000e+00 0.0000000e+00 0.0000000e+00 
0.0000000e+00 0.0000000e+00 0.0000000e+00 
0.0000000e+00 0.0000000e+00 0.0000000e+00 
8.6467180e-06 -3.3928525e-06 -8.7088374e-06 
3.9497641e-06 -7.4038570e-07 8.4072173e-07 
3.8826520e-06 -1.8046678e-06 3.2179332e-06 
-8.2375527e-07 1.4551241e-06 -1.4229819e-06 
6.4184201e-06 -5.8791520e-06 -3.8608810e-06 
2.3725102e-05 -8.5780512e-06 -2.8200045e-06 
2.5846573e-05 -1.1725377e-05 -7.9336456e-07 
2.2347880e-05 -1.1558681e-05 2.8253060e-06 