# vtk DataFile Version 4.0
vtk output
ASCII
DATASET UNSTRUCTURED_GRID
POINTS 621 float
0.0000000e+00 0.0000000e+00 0.0000000e+00 
0.0000000e+00 0.0000000e+00 4.0000000e+01 
5.0000000e+00 0.0000000e+00 0.0000000e+00 
5.0000000e+00 0.0000000e+00 4.0000000e+01 
5.0000000e+00 1.0000000e+00 0.0000000e+00 
5.0000000e+00 1.0000000e+00 4.0000000e+01 
0.0000000e+00 1.0000000e+00 0.0000000e+00 
0.0000000e+00 1.0000000e+00 4.0000000e+01 
5.0000000e+00 2.0000000e+00 0.0000000e+00 
5.0000000e+00 2.0000000e+00 4.0000000e+01 
3.0000000e+00 2.0000000e+00 0.0000000e+00 
3.0000000e+00 2.0000000e+00 4.0000000e+01 
0.0000000e+00 2.0000000e+00 0.0000000e+00 
0.0000000e+00 2.0000000e+00 4.0000000e+01 
1.5000000e+00 3.0000000e+00 0.0000000e+00 
1.5000000e+00 3.0000000e+00 4.0000000e+01 
7.5000000e-01 3.0000000e+00 0.0000000e+00 
7.5000000e-01 3.0000000e+00 4.0000000e+01 
0.0000000e+00 3.0000000e+00 0.0000000e+00 
0.0000000e+00 3.0000000e+00 4.0000000e+01 
7.5000000e-01 3.0000000e+00 5.0000000e-01 
7.5000000e-01 3.0000000e+00 1.0000000e+00 
7.5000000e-01 3.0000000e+00 1.5000000e+00 
7.5000000e-01 3.0000000e+00 2.0000000e+00 
7.5000000e-01 3.0000000e+00 2.5000000e+00 
7.5000000e-01 3.0000000e+00 3.0000000e+00 
7.5000000e-01 3.0000000e+00 3.5000000e+00 
7.5000000e-01 3.0000000e+00 4.0000000e+00 
7.5000000e-01 3.0000000e+00 4.5000000e+00 
7.5000000e-01 3.0000000e+00 5.0000000e+00 
7.5000000e-01 3.0000000e+00 5.5000000e+00 
7.5000000e-01 3.0000000e+00 6.0000000e+00 
7.5000000e-01 3.0000000e+00 6.5000000e+00 
7.5000000e-01 3.0000000e+00 7.0000000e+00 
7.5000000e-01 3.0000000e+00 7.5000000e+00 
7.5000000e-01 3.0000000e+00 8.0000000e+00 
7.5000000e-01 3.0000000e+00 8.5000000e+00 
7.5000000e-01 3.0000000e+00 9.0000000e+00 
7.5000000e-01 3.0000000e+00 9.5000000e+00 
7.5000000e-01 3.0000000e+00 1.0000000e+01 
7.5000000e-01 3.0000000e+00 1.0500000e+01 
7.5000000e-01 3.0000000e+00 1.1000000e+01 
7.5000000e-01 3.0000000e+00 1.1500000e+01 
7.5000000e-01 3.0000000e+00 1.2000000e+01 
7.5000000e-01 3.0000000e+00 1.2500000e+01 
7.5000000e-01 3.0000000e+00 1.3000000e+01 
7.5000000e-01 3.0000000e+00 1.3500000e+01 
7.5000000e-01 3.0000000e+00 1.4000000e+01 
7.5000000e-01 3.0000000e+00 1.4500000e+01 
7.5000000e-01 3.0000000e+00 1.5000000e+01 
7.5000000e-01 3.0000000e+00 1.5500000e+01 
7.5000000e-01 3.0000000e+00 1.6000000e+01 
7.5000000e-01 3.0000000e+00 1.6500000e+01 
7.5000000e-01 3.0000000e+00 1.7000000e+01 
7.5000000e-01 3.0000000e+00 1.7500000e+01 
7.5000000e-01 3.0000000e+00 1.8000000e+01 
7.5000000e-01 3.0000000e+00 1.8500000e+01 
7.5000000e-01 3.0000000e+00 1.9000000e+01 
7.5000000e-01 3.0000000e+00 1.9500000e+01 
7.5000000e-01 3.0000000e+00 2.0000000e+01 
7.5000000e-01 3.0000000e+00 2.0500000e+01 
7.5000000e-01 3.0000000e+00 2.1000000e+01 
7.5000000e-01 3.0000000e+00 2.1500000e+01 
7.5000000e-01 3.0000000e+00 2.2000000e+01 
7.5000000e-01 3.0000000e+00 2.2500000e+01 
7.5000000e-01 3.0000000e+00 2.3000000e+01 
7.5000000e-01 3.0000000e+00 2.3500000e+01 
7.5000000e-01 3.0000000e+00 2.4000000e+01 
7.5000000e-01 3.0000000e+00 2.4500000e+01 
7.5000000e-01 3.0000000e+00 2.5000000e+01 
7.5000000e-01 3.0000000e+00 2.5500000e+01 
7.5000000e-01 3.0000000e+00 2.6000000e+01 
7.5000000e-01 3.0000000e+00 2.6500000e+01 
7.5000000e-01 3.0000000e+00 2.7000000e+01 
7.5000000e-01 3.0000000e+00 2.7500000e+01 
7.5000000e-01 3.0000000e+00 2.8000000e+01 
7.5000000e-01 3.0000000e+00 2.8500000e+01 
7.5000000e-01 3.0000000e+00 2.9000000e+01 
7.5000000e-01 3.0000000e+00 2.9500000e+01 
7.5000000e-01 3.0000000e+00 3.0000000e+01 
7.5000000e-01 3.0000000e+00 3.0500000e+01 
7.5000000e-01 3.0000000e+00 3.1000000e+01 
7.5000000e-01 3.0000000e+00 3.1500000e+01 
7.5000000e-01 3.0000000e+00 3.2000000e+01 
7.5000000e-01 3.0000000e+00 3.2500000e+01 
7.5000000e-01 3.0000000e+00 3.3000000e+01 
7.5000000e-01 3.0000000e+00 3.3500000e+01 
7.5000000e-01 3.0000000e+00 3.4000000e+01 
7.5000000e-01 3.0000000e+00 3.4500000e+01 
7.5000000e-01 3.0000000e+00 3.5000000e+01 
7.5000000e-01 3.0000000e+00 3.5500000e+01 
7.5000000e-01 3.0000000e+00 3.6000000e+01 
7.5000000e-01 3.0000000e+00 3.6500000e+01 
7.5000000e-01 3.0000000e+00 3.7000000e+01 
7.5000000e-01 3.0000000e+00 3.7500000e+01 
7.5000000e-01 3.0000000e+00 3.8000000e+01 
7.5000000e-01 3.0000000e+00 3.8500000e+01 
7.5000000e-01 3.0000000e+00 3.9000000e+01 
7.5000000e-01 3.0000000e+00 3.9500000e+01 
7.5000000e-01 3.0250001e+00 0.0000000e+00 
7.5000000e-01 3.0250001e+00 5.0000000e-01 
7.5000000e-01 3.0250001e+00 1.0000000e+00 
7.5000000e-01 3.0250001e+00 1.5000000e+00 
7.5000000e-01 3.0250001e+00 2.0000000e+00 
7.5000000e-01 3.0250001e+00 2.5000000e+00 
7.5000000e-01 3.0250001e+00 3.0000000e+00 
7.5000000e-01 3.0250001e+00 3.5000000e+00 
7.5000000e-01 3.0250001e+00 4.0000000e+00 
7.5000000e-01 3.0250001e+00 4.5000000e+00 
7.5000000e-01 3.0250001e+00 5.0000000e+00 
7.5000000e-01 3.0250001e+00 5.5000000e+00 
7.5000000e-01 3.0250001e+00 6.0000000e+00 
7.5000000e-01 3.0250001e+00 6.5000000e+00 
7.5000000e-01 3.0250001e+00 7.0000000e+00 
7.5000000e-01 3.0250001e+00 7.5000000e+00 
7.5000000e-01 3.0250001e+00 8.0000000e+00 
7.5000000e-01 3.0250001e+00 8.5000000e+00 
7.5000000e-01 3.0250001e+00 9.0000000e+00 
7.5000000e-01 3.0250001e+00 9.5000000e+00 
7.5000000e-01 3.0250001e+00 1.0000000e+01 
7.5000000e-01 3.0250001e+00 1.0500000e+01 
7.5000000e-01 3.0250001e+00 1.1000000e+01 
7.5000000e-01 3.0250001e+00 1.1500000e+01 
7.5000000e-01 3.0250001e+00 1.2000000e+01 
7.5000000e-01 3.0250001e+00 1.2500000e+01 
7.5000000e-01 3.0250001e+00 1.3000000e+01 
7.5000000e-01 3.0250001e+00 1.3500000e+01 
7.5000000e-01 3.0250001e+00 1.4000000e+01 
7.5000000e-01 3.0250001e+00 1.4500000e+01 
7.5000000e-01 3.0250001e+00 1.5000000e+01 
7.5000000e-01 3.0250001e+00 1.5500000e+01 
7.5000000e-01 3.0250001e+00 1.6000000e+01 
7.5000000e-01 3.0250001e+00 1.6500000e+01 
7.5000000e-01 3.0250001e+00 1.7000000e+01 
7.5000000e-01 3.0250001e+00 1.7500000e+01 
7.5000000e-01 3.0250001e+00 1.8000000e+01 
7.5000000e-01 3.0250001e+00 1.8500000e+01 
7.5000000e-01 3.0250001e+00 1.9000000e+01 
7.5000000e-01 3.0250001e+00 1.9500000e+01 
7.5000000e-01 3.0250001e+00 2.0000000e+01 
7.5000000e-01 3.0250001e+00 2.0500000e+01 
7.5000000e-01 3.0250001e+00 2.1000000e+01 
7.5000000e-01 3.0250001e+00 2.1500000e+01 
7.5000000e-01 3.0250001e+00 2.2000000e+01 
7.5000000e-01 3.0250001e+00 2.2500000e+01 
7.5000000e-01 3.0250001e+00 2.3000000e+01 
7.5000000e-01 3.0250001e+00 2.3500000e+01 
7.5000000e-01 3.0250001e+00 2.4000000e+01 
7.5000000e-01 3.0250001e+00 2.4500000e+01 
7.5000000e-01 3.0250001e+00 2.5000000e+01 
7.5000000e-01 3.0250001e+00 2.5500000e+01 
7.5000000e-01 3.0250001e+00 2.6000000e+01 
7.5000000e-01 3.0250001e+00 2.6500000e+01 
7.5000000e-01 3.0250001e+00 2.7000000e+01 
7.5000000e-01 3.0250001e+00 2.7500000e+01 
7.5000000e-01 3.0250001e+00 2.8000000e+01 
7.5000000e-01 3.0250001e+00 2.8500000e+01 
7.5000000e-01 3.0250001e+00 2.9000000e+01 
7.5000000e-01 3.0250001e+00 2.9500000e+01 
7.5000000e-01 3.0250001e+00 3.0000000e+01 
7.5000000e-01 3.0250001e+00 3.0500000e+01 
7.5000000e-01 3.0250001e+00 3.1000000e+01 
7.5000000e-01 3.0250001e+00 3.1500000e+01 
7.5000000e-01 3.0250001e+00 3.2000000e+01 
7.5000000e-01 3.0250001e+00 3.2500000e+01 
7.5000000e-01 3.0250001e+00 3.3000000e+01 
7.5000000e-01 3.0250001e+00 3.3500000e+01 
7.5000000e-01 3.0250001e+00 3.4000000e+01 
7.5000000e-01 3.0250001e+00 3.4500000e+01 
7.5000000e-01 3.0250001e+00 3.5000000e+01 
7.5000000e-01 3.0250001e+00 3.5500000e+01 
7.5000000e-01 3.0250001e+00 3.6000000e+01 
7.5000000e-01 3.0250001e+00 3.6500000e+01 
7.5000000e-01 3.0250001e+00 3.7000000e+01 
7.5000000e-01 3.0250001e+00 3.7500000e+01 
7.5000000e-01 3.0250001e+00 3.8000000e+01 
7.5000000e-01 3.0250001e+00 3.8500000e+01 
7.5000000e-01 3.0250001e+00 3.9000000e+01 
7.5000000e-01 3.0250001e+00 3.9500000e+01 
7.5000000e-01 3.0250001e+00 4.0000000e+01 
3.0000000e+00 2.0000000e+00 3.6000000e+01 
8.0487806e-01 3.0000000e+00 3.6000000e+01 
0.0000000e+00 0.0000000e+00 2.0000000e+00 
0.0000000e+00 0.0000000e+00 4.0000000e+00 
0.0000000e+00 0.0000000e+00 6.0000000e+00 
0.0000000e+00 0.0000000e+00 8.0000000e+00 
0.0000000e+00 0.0000000e+00 1.0000000e+01 
0.0000000e+00 0.0000000e+00 1.2000000e+01 
0.0000000e+00 0.0000000e+00 1.4000000e+01 
0.0000000e+00 0.0000000e+00 1.6000000e+01 
0.0000000e+00 0.0000000e+00 1.8000000e+01 
0.0000000e+00 0.0000000e+00 2.0000000e+01 
0.0000000e+00 0.0000000e+00 2.2000000e+01 
0.0000000e+00 0.0000000e+00 2.4000000e+01 
0.0000000e+00 0.0000000e+00 2.6000000e+01 
0.0000000e+00 0.0000000e+00 2.8000000e+01 
0.0000000e+00 0.0000000e+00 3.0000000e+01 
0.0000000e+00 0.0000000e+00 3.2000000e+01 
0.0000000e+00 0.0000000e+00 3.4000000e+01 
0.0000000e+00 0.0000000e+00 3.6000000e+01 
0.0000000e+00 0.0000000e+00 3.8000000e+01 
5.0000000e+00 0.0000000e+00 2.0000000e+00 
5.0000000e+00 0.0000000e+00 4.0000000e+00 
5.0000000e+00 0.0000000e+00 6.0000000e+00 
5.0000000e+00 0.0000000e+00 8.0000000e+00 
5.0000000e+00 0.0000000e+00 1.0000000e+01 
5.0000000e+00 0.0000000e+00 1.2000000e+01 
5.0000000e+00 0.0000000e+00 1.4000000e+01 
5.0000000e+00 0.0000000e+00 1.6000000e+01 
5.0000000e+00 0.0000000e+00 1.8000000e+01 
5.0000000e+00 0.0000000e+00 2.0000000e+01 
5.0000000e+00 0.0000000e+00 2.2000000e+01 
5.0000000e+00 0.0000000e+00 2.4000000e+01 
5.0000000e+00 0.0000000e+00 2.6000000e+01 
5.0000000e+00 0.0000000e+00 2.8000000e+01 
5.0000000e+00 0.0000000e+00 3.0000000e+01 
5.0000000e+00 0.0000000e+00 3.2000000e+01 
5.0000000e+00 0.0000000e+00 3.4000000e+01 
5.0000000e+00 0.0000000e+00 3.6000000e+01 
5.0000000e+00 0.0000000e+00 3.8000000e+01 
1.6666666e+00 0.0000000e+00 0.0000000e+00 
3.3333333e+00 0.0000000e+00 0.0000000e+00 
1.6666666e+00 0.0000000e+00 4.0000000e+01 
3.3333333e+00 0.0000000e+00 4.0000000e+01 
5.0000000e+00 1.0000000e+00 2.0000000e+00 
5.0000000e+00 1.0000000e+00 4.0000000e+00 
5.0000000e+00 1.0000000e+00 6.0000000e+00 
5.0000000e+00 1.0000000e+00 8.0000000e+00 
5.0000000e+00 1.0000000e+00 1.0000000e+01 
5.0000000e+00 1.0000000e+00 1.2000000e+01 
[...]
POINT_DATA 621
FIELD FieldData 3
DISPLACEMENT 3 621  float
0.0000000e+00 0.0000000e+00 0.0000000e+00 
0.0000000e+00 0.0000000e+00 0.0000000e+00 
0.0000000e+00 0.0000000e+00 0.0000000e+00 
0.0000000e+00 0.0000000e+00 0.0000000e+00 
4.5661150e-06 -5.7044986e-06 -1.6944265e-06 
3.3488544e-07 7.8613499e-07 1.3811399e-06 
0.0000000e+00 -2.6264031e-06 0.0000000e+00 
0.0000000e+00 -1.2425478e-05 0.0000000e+00 
-1.3071534e-07 -5.9052436e-06 -4.3748992e-06 
-2.6455048e-06 2.1189830e-06 -1.3061223e-06 
-4.0752377e-07 -2.3515684e-05 -2.6566191e-05 
-1.5639374e-06 -2.7672504e-06 -6.0229891e-06 
0.0000000e+00 -3.6876227e-06 0.0000000e+00 
0.0000000e+00 -2.2918010e-05 0.0000000e+00 
-2.1336596e-06 -2.0763287e-05 -9.7869386e-05 
-1.1736162e-05 -1.8830267e-05 -2.7167853e-05 
-9.6611111e-06 3.8660659e-05 -5.1059284e-05 
3.5586338e-06 -4.0412080e-05 -3.7586706e-05 
0.0000000e+00 -7.8580024e-06 0.0000000e+00 
0.0000000e+00 -3.6624435e-05 0.0000000e+00 
2.2668250e-05 4.5430883e-05 -7.1045026e-05 
3.5656292e-05 6.3199033e-05 -5.6076518e-05 
4.2076121e-05 8.6094202e-05 -4.7816986e-05 
4.6034951e-05 1.1259563e-04 -3.1846601e-05 
4.8746781e-05 1.4073068e-04 -6.5925988e-06 
4.4520792e-05 1.6504094e-04 9.3643348e-06 
3.0927818e-05 1.7422122e-04 3.1333526e-05 
2.0313522e-05 1.3859825e-04 5.1317907e-05 
-1.2062289e-05 1.6691283e-05 8.8745132e-05 
-2.2979408e-05 -2.3182915e-04 1.2509931e-04 
-5.7135698e-05 -6.6767517e-04 1.7206601e-04 
-1.1331883e-04 -1.3323873e-03 1.1470833e-04 
-2.5015371e-04 -2.2435610e-03 1.9186686e-04 
-2.5137019e-04 -3.2302847e-03 1.7415824e-04 
-1.3601978e-04 -3.9984444e-03 1.0439190e-04 
-1.0064488e-04 -4.0140674e-03 1.0294723e-04 
-2.4325574e-04 -3.8404211e-03 3.3950520e-05 
-3.1512787e-04 -3.8365084e-03 1.2265244e-05 
-2.0255306e-04 -4.1050729e-03 -2.9116800e-05 
-4.7601214e-05 -4.1402117e-03 -7.8789737e-05 
-8.1721351e-05 -3.4497415e-03 -1.5853526e-04 
-1.8104247e-04 -2.4178086e-03 -1.7178590e-04 
-1.9026695e-04 -1.5148176e-03 -1.4989090e-04 
-8.0223705e-05 -8.2705042e-04 -7.9216879e-05 
-4.4054894e-05 -3.9198328e-04 -1.1164836e-04 
-3.0264848e-05 -1.4659828e-04 -7.9204459e-05 
-3.0110936e-05 -3.0272475e-05 -5.8972149e-05 
-2.0757298e-05 7.4913328e-06 -4.2013966e-05 
-1.2232617e-05 5.1408256e-07 -2.6237705e-05 
-4.1280759e-06 -2.6093223e-05 -1.5830608e-05 
-2.9508612e-06 -5.5161752e-05 -1.4978763e-05 
-9.8508672e-06 -7.9715304e-05 -1.2555139e-05 
-1.2985079e-05 -9.6022486e-05 6.9848970e-06 
-1.5324842e-05 -1.0593935e-04 2.6405529e-05 
-3.3474371e-05 -1.1281897e-04 5.8424335e-05 
-5.1660263e-05 -1.1672256e-04 8.2831466e-05 
-5.1583771e-05 -1.1635065e-04 6.1479470e-05 
-5.4698015e-05 -1.1119063e-04 2.8078108e-05 
-3.9093669e-05 -9.9660392e-05 -1.6137808e-05 
-1.6189091e-05 -8.0180616e-05 -6.1802974e-05 
3.2639734e-06 -4.9455146e-05 -7.6049291e-05 
1.7254039e-05 -1.0253502e-05 -7.6294556e-05 
3.2309945e-05 3.5834084e-05 -7.8584664e-05 
4.1728868e-05 8.4602048e-05 -6.7259309e-05 
5.0596922e-05 1.3101271e-04 -4.4486223e-05 
5.4372649e-05 1.6804053e-04 -1.8013547e-05 
4.2305899e-05 1.8273450e-04 1.0144049e-05 
3.0270043e-05 1.4565425e-04 3.7467140e-05 
-1.2408584e-05 1.2038296e-05 6.8940608e-05 
-2.1337908e-05 -2.6211064e-04 9.9931152e-05 
-3.6304689e-05 -7.4209285e-04 1.3677652e-04 
-8.3321989e-05 -1.4640421e-03 6.8523681e-05 
-2.2838188e-04 -2.4325405e-03 1.6808436e-04 
-2.3254176e-04 -3.4299556e-03 1.6745289e-04 
-1.3368776e-04 -4.0919669e-03 1.3680699e-04 
-1.0253210e-04 -4.0170490e-03 1.8532862e-04 
-2.5241583e-04 -3.8732239e-03 1.3089595e-04 
-3.2089913e-04 -3.9388374e-03 1.1319856e-04 
-2.1281668e-04 -4.2404803e-03 7.4045922e-05 
-7.7025295e-05 -4.1742618e-03 4.1056686e-05 
-1.2430546e-04 -3.3868118e-03 -1.0224511e-04 
-2.3073015e-04 -2.3569805e-03 -1.6316593e-04 
-2.2331157e-04 -1.4805414e-03 -1.9079694e-04 
-1.0232401e-04 -8.1608741e-04 -1.6780774e-04 
-5.4835193e-05 -3.8527304e-04 -2.1081044e-04 
-2.9990202e-05 -1.2745087e-04 -1.8179505e-04 
-1.8030209e-05 1.4555267e-05 -1.6717722e-04 
2.5621698e-06 8.5429798e-05 -1.4199503e-04 
2.4473247e-05 1.1215168e-04 -9.3731644e-05 
4.2147993e-05 1.1516139e-04 -4.4383673e-05 
3.4765493e-05 1.0569036e-04 -7.1553914e-06 
2.5424932e-05 8.8267698e-05 2.8158183e-05 
2.0593188e-05 6.4581356e-05 5.0188904e-05 
1.3932823e-05 3.7910682e-05 5.9983238e-05 
3.8294543e-06 1.1489215e-05 6.7617351e-05 
-5.7306715e-06 -1.0472076e-05 6.2117950e-05 
-8.9506884e-06 -2.5979665e-05 4.4824614e-05 
-1.3020433e-05 -3.5231464e-05 2.0793677e-05 
-8.7098761e-06 -3.9529968e-05 -3.9740007e-06 
0.0000000e+00 3.8866998e-05 0.0000000e+00 
0.0000000e+00 4.5597910e-05 0.0000000e+00 
0.0000000e+00 6.2981846e-05 0.0000000e+00 
0.0000000e+00 8.6085012e-05 0.0000000e+00 
0.0000000e+00 1.1273954e-04 0.0000000e+00 
0.0000000e+00 1.4105203e-04 0.0000000e+00 
0.0000000e+00 1.6607510e-04 0.0000000e+00 
0.0000000e+00 1.7488064e-04 0.0000000e+00 
0.0000000e+00 1.3865643e-04 0.0000000e+00 
0.0000000e+00 1.7814458e-05 0.0000000e+00 
0.0000000e+00 -2.3247859e-04 0.0000000e+00 
0.0000000e+00 -6.6916004e-04 0.0000000e+00 
0.0000000e+00 -1.3414237e-03 0.0000000e+00 
0.0000000e+00 -2.2510139e-03 0.0000000e+00 
0.0000000e+00 -3.2618258e-03 0.0000000e+00 
0.0000000e+00 -4.0222509e-03 0.0000000e+00 
0.0000000e+00 -4.0446375e-03 0.0000000e+00 
0.0000000e+00 -3.8542154e-03 0.0000000e+00 
0.0000000e+00 -3.8671684e-03 0.0000000e+00 
0.0000000e+00 -4.1250573e-03 0.0000000e+00 
0.0000000e+00 -4.1747713e-03 0.0000000e+00 
0.0000000e+00 -3.4679088e-03 0.0000000e+00 
0.0000000e+00 -2.4364528e-03 0.0000000e+00 
0.0000000e+00 -1.5171024e-03 0.0000000e+00 
0.0000000e+00 -8.3134754e-04 0.0000000e+00 
0.0000000e+00 -3.9182376e-04 0.0000000e+00 
0.0000000e+00 -1.4571867e-04 0.0000000e+00 
0.0000000e+00 -2.9325489e-05 0.0000000e+00 
0.0000000e+00 7.9166985e-06 0.0000000e+00 
0.0000000e+00 8.9912328e-07 0.0000000e+00 
0.0000000e+00 -2.5584857e-05 0.0000000e+00 
0.0000000e+00 -5.4991058e-05 0.0000000e+00 
0.0000000e+00 -7.9448073e-05 0.0000000e+00 
0.0000000e+00 -9.5961674e-05 0.0000000e+00 
0.0000000e+00 -1.0613567e-04 0.0000000e+00 
0.0000000e+00 -1.1292099e-04 0.0000000e+00 
0.0000000e+00 -1.1671444e-04 0.0000000e+00 
0.0000000e+00 -1.1643299e-04 0.0000000e+00 
0.0000000e+00 -1.1120681e-04 0.0000000e+00 
0.0000000e+00 -9.9726974e-05 0.0000000e+00 
0.0000000e+00 -7.9854966e-05 0.0000000e+00 
0.0000000e+00 -4.9499937e-05 0.0000000e+00 
0.0000000e+00 -1.0135981e-05 0.0000000e+00 
0.0000000e+00 3.5865909e-05 0.0000000e+00 
0.0000000e+00 8.4641237e-05 0.0000000e+00 
0.0000000e+00 1.3132990e-04 0.0000000e+00 
0.0000000e+00 1.6896945e-04 0.0000000e+00 
0.0000000e+00 1.8357397e-04 0.0000000e+00 
0.0000000e+00 1.4580353e-04 0.0000000e+00 
0.0000000e+00 1.3216832e-05 0.0000000e+00 
0.0000000e+00 -2.6325529e-04 0.0000000e+00 
0.0000000e+00 -7.4403558e-04 0.0000000e+00 
0.0000000e+00 -1.4747757e-03 0.0000000e+00 
0.0000000e+00 -2.4415900e-03 0.0000000e+00 
0.0000000e+00 -3.4651889e-03 0.0000000e+00 
0.0000000e+00 -4.1160677e-03 0.0000000e+00 
0.0000000e+00 -4.0472010e-03 0.0000000e+00 
0.0000000e+00 -3.8867972e-03 0.0000000e+00 
0.0000000e+00 -3.9709783e-03 0.0000000e+00 
0.0000000e+00 -4.2621149e-03 0.0000000e+00 
0.0000000e+00 -4.2083664e-03 0.0000000e+00 
0.0000000e+00 -3.4033037e-03 0.0000000e+00 
0.0000000e+00 -2.3731710e-03 0.0000000e+00 
0.0000000e+00 -1.4822388e-03 0.0000000e+00 
0.0000000e+00 -8.1956573e-04 0.0000000e+00 
0.0000000e+00 -3.8506684e-04 0.0000000e+00 
0.0000000e+00 -1.2651988e-04 0.0000000e+00 
0.0000000e+00 1.5536871e-05 0.0000000e+00 
0.0000000e+00 8.5798914e-05 0.0000000e+00 
0.0000000e+00 1.1263857e-04 0.0000000e+00 
0.0000000e+00 1.1551907e-04 0.0000000e+00 
0.0000000e+00 1.0581385e-04 0.0000000e+00 
0.0000000e+00 8.8170600e-05 0.0000000e+00 
0.0000000e+00 6.4582266e-05 0.0000000e+00 
0.0000000e+00 3.7894941e-05 0.0000000e+00 
0.0000000e+00 1.1616095e-05 0.0000000e+00 
0.0000000e+00 -1.0370606e-05 0.0000000e+00 
0.0000000e+00 -2.5943860e-05 0.0000000e+00 
0.0000000e+00 -3.5223431e-05 0.0000000e+00 
0.0000000e+00 -3.9521041e-05 0.0000000e+00 
0.0000000e+00 -4.0528637e-05 0.0000000e+00 
3.0422191e-06 2.6668740e-05 3.7483869e-06 
2.6735350e-05 9.0393332e-05 2.8287639e-05 
0.0000000e+00 0.0000000e+00 0.0000000e+00 
0.0000000e+00 0.0000000e+00 0.0000000e+00 
0.0000000e+00 0.0000000e+00 0.0000000e+00 
0.0000000e+00 0.0000000e+00 0.0000000e+00 
0.0000000e+00 0.0000000e+00 0.0000000e+00 
0.0000000e+00 0.0000000e+00 0.0000000e+00 
0.0000000e+00 0.0000000e+00 0.0000000e+00 
0.0000000e+00 0.0000000e+00 0.0000000e+00 
0.0000000e+00 0.0000000e+00 0.0000000e+00 
0.0000000e+00 0.0000000e+00 0.0000000e+00 
0.0000000e+00 0.0000000e+00 0.0000000e+00 
0.0000000e+00 0.0000000e+00 0.0000000e+00 
0.0000000e+00 0.0000000e+00 0.0000000e+00 
0.0000000e+00 0.0000000e+00 0.0000000e+00 
0.0000000e+00 0.0000000e+00 0.0000000e+00 
0.0000000e+00 0.0000000e+00 0.0000000e+00 
0.0000000e+00 0.0000000e+00 0.0000000e+00 
0.0000000e+00 0.0000000e+00 0.0000000e+00 
0.0000000e+00 0.0000000e+00 0.0000000e+00 
0.0000000e+00 0.0000000e+00 0.0000000e+00 
0.0000000e+00 0.0000000e+00 0.0000000e+00 
0.0000000e+00 0.0000000e+00 0.0000000e+00 
0.0000000e+00 0.0000000e+00 0.0000000e+00 
0.0000000e+00 0.0000000e+00 0.0000000e+00 
0.0000000e+00 0.0000000e+00 0.0000000e+00 
0.0000000e+00 0.0000000e+00 0.0000000e+00 
0.0000000e+00 0.0000000e+00 0.0000000e+00 
0.0000000e+00 0.0000000e+00 0.0000000e+00 
0.0000000e+00 0.0000000e+00 0.0000000e+00 
0.0000000e+00 0.0000000e+00 0.0000000e+00 
0.0000000e+00 0.0000000e+00 0.0000000e+00 
0.0000000e+00 0.0000000e+00 0.0000000e+00 
0.0000000e+00 0.0000000e+00 0.0000000e+00 
0.0000000e+00 0.0000000e+00 0.0000000e+00 
0.0000000e+00 0.0000000e+00 0.0000000e+00 
0.0000000e+00 0.0000000e+00 0.0000000e+00 
0.0000000e+00 0.0000000e+00 0.0000000e+00 
0.0000000e+00 0.0000000e+00 0.0000000e+00 
0.0000000e+00 0.0000000e+00 0.0000000e+00 
0.0000000e+00 0.0000000e+00 0.0000000e+00 
0.0000000e+00 0.0000000e+00 0.0000000e+00 
0.0000000e+00 0.0000000e+00 0.0000000e+00 
-2.2448244e-06 -2.8646405e-06 -4.9746518e-06 
7.6522902e-06 9.7109455e-07 -1.1143681e-05 
3.0713425e-05 -3.2945065e-06 -1.3986383e-05 
4.5425026e-05 -1.3709283e-05 -7.6287160e-06 
4.5211083e-05 -8.8644611e-06 1.7507192e-06 
1.8893152e-05 -7.6338057e-07 -2.1185183e-06 
5.3413019e-06 2.3996931e-06 4.1315857e-06 
5.6431450e-06 1.1241999e-06 7.8256826e-06 
2.9133837e-06 -5.6726290e-06 4.9024497e-06 
-2.0712039e-06 -5.0646508e-06 2.2694369e-06 
-4.5858792e-06 3.4700586e-06 -1.3135711e-06 
7.4103204e-06 -2.4315984e-06 -6.6601124e-06 
2.8227112e-05 -5.6042259e-06 -7.1005993e-06 
4.8629696e-05 -9.0716039e-06 -2.8539516e-06 
4.7371355e-05 -1.2568775e-05 3.7469488e-06 
2.1327738e-05 -5.3592335e-06 3.8164485e-06 
1.4095083e-06 6.4325095e-06 8.8961933e-06 
-3.1527184e-06 2.2870363e-06 4.9350783e-06 
1.4903362e-06 -4.7652893e-06 2.9881558e-06 
0.0000000e+00 4.2844917e-05 0.0000000e+00 
0.0000000e+00 3.2629407e-05 0.0000000e+00 
0.0000000e+00 -1.8731499e-04 0.0000000e+00 
0.0000000e+00 -5.1306817e-04 0.0000000e+00 
0.0000000e+00 -4.7634915e-04 0.0000000e+00 
0.0000000e+00 -1.6115476e-04 0.0000000e+00 
0.0000000e+00 -2.9609340e-05 0.0000000e+00 
0.0000000e+00 -3.2979449e-05 0.0000000e+00 
0.0000000e+00 -4.1244810e-05 0.0000000e+00 
0.0000000e+00 -3.9424427e-05 0.0000000e+00 
0.0000000e+00 3.0530897e-05 0.0000000e+00 
0.0000000e+00 3.2567867e-05 0.0000000e+00 
0.0000000e+00 -1.8590070e-04 0.0000000e+00 
0.0000000e+00 -4.9698015e-04 0.0000000e+00 
0.0000000e+00 -5.1148020e-04 0.0000000e+00 
0.0000000e+00 -1.8556249e-04 0.0000000e+00 
0.0000000e+00 9.0791373e-06 0.0000000e+00 
0.0000000e+00 3.9221450e-05 0.0000000e+00 
0.0000000e+00 -9.8993942e-06 0.0000000e+00 
6.8728610e-07 -1.2614794e-05 -6.7409105e-06 
-3.9894994e-06 -1.5407111e-05 -8.1138951e-06 
-1.4836746e-07 -9.5182799e-07 -2.0972523e-06 
1.5761706e-06 -7.8752118e-06 9.1075702e-07 
3.8450617e-06 -2.6451305e-06 -1.0780025e-05 
2.0260917e-05 9.8502437e-07 -1.7877926e-05 
3.8341328e-05 9.2652311e-07 -6.0499642e-06 
4.9064027e-05 -2.3201180e-06 -5.1011780e-06 
3.3791126e-05 -8.5872598e-06 -1.2210747e-06 
1.1466466e-05 1.5515595e-06 -1.0588001e-05 
1.7699500e-06 3.5629128e-06 4.1279841e-06 
5.2516425e-06 -7.2380965e-07 1.2156055e-05 
-1.2045070e-06 -7.9264455e-06 9.2979444e-06 
-9.0429548e-06 -5.2830251e-06 -1.8832342e-06 
-2.0623540e-06 4.3351984e-06 -8.5093943e-06 
2.3742343e-05 -3.2755599e-06 -8.3029199e-06 
3.0995379e-05 -3.1819197e-06 -2.3304662e-07 
3.9825525e-05 -8.6327309e-06 4.7175176e-06 
2.5978152e-05 -1.0127645e-05 4.9475343e-06 
4.8845886e-06 -1.2936853e-06 -8.0140089e-06 
3.5025146e-06 6.6956559e-06 3.2153118e-06 
1.7291288e-06 6.6508143e-08 7.3644565e-06 
3.3470983e-06 -4.4487570e-06 5.1316683e-06 
1.2331137e-06 -1.3355228e-05 -3.0754651e-05 
0.0000000e+00 8.0735757e-05 0.0000000e+00 
0.0000000e+00 6.8771515e-05 0.0000000e+00 
0.0000000e+00 -4.0218487e-04 0.0000000e+00 
0.0000000e+00 -1.1430477e-03 0.0000000e+00 
0.0000000e+00 -1.0805858e-03 0.0000000e+00 
0.0000000e+00 -3.0214147e-04 0.0000000e+00 
0.0000000e+00 -3.6715384e-05 0.0000000e+00 
0.0000000e+00 -5.9809543e-05 0.0000000e+00 
0.0000000e+00 -7.1339258e-05 0.0000000e+00 
0.0000000e+00 -6.8796129e-05 0.0000000e+00 
0.0000000e+00 5.8025242e-05 0.0000000e+00 
0.0000000e+00 6.8877409e-05 0.0000000e+00 
0.0000000e+00 -4.1693490e-04 0.0000000e+00 
0.0000000e+00 -1.1270343e-03 0.0000000e+00 
0.0000000e+00 -1.1359863e-03 0.0000000e+00 
0.0000000e+00 -3.3876539e-04 0.0000000e+00 
0.0000000e+00 2.4069994e-05 0.0000000e+00 
0.0000000e+00 6.5691551e-05 0.0000000e+00 
0.0000000e+00 -1.5518504e-05 0.0000000e+00 
-2.4615676e-06 -1.3095448e-05 1.0838733e-07 
6.5823544e-05 7.4336174e-05 -2.8435215e-05 
4.9996030e-05 1.1930893e-04 6.9974980e-05 
-2.6094049e-04 -3.9174804e-04 3.2118845e-04 
-6.4209040e-04 -1.2910804e-03 1.0456273e-04 
-5.7987659e-04 -1.3974294e-03 -1.8005146e-04 
-1.7390719e-04 -2.3034900e-04 -2.0955861e-04 
2.2112338e-06 -1.6385164e-05 -4.8966020e-05 
-2.1613730e-05 -5.5677105e-05 -1.8298573e-05 
-7.1851471e-05 -8.2465296e-05 9.7630582e-05 
-2.3050279e-05 -5.9871039e-05 -9.6043848e-05 
5.8360347e-05 3.5607784e-05 -9.1235001e-05 
5.7597175e-05 1.4953213e-04 7.1977192e-05 
-2.4887320e-04 -4.0136668e-04 2.7283365e-04 
-6.4172491e-04 -1.2523900e-03 1.8125038e-04 
-6.1956671e-04 -1.4373425e-03 -3.9335919e-05 
-1.8151640e-04 -2.7989384e-04 -3.0571231e-04 
2.6239810e-05 4.2838481e-05 -1.7411160e-04 
3.2317595e-05 6.8610847e-05 3.8179787e-05 
-1.9166584e-06 -9.3647559e-06 7.5147269e-05 
0.0000000e+00 1.0471310e-04 0.0000000e+00 
0.0000000e+00 1.3282792e-04 0.0000000e+00 
0.0000000e+00 -7.7284820e-04 0.0000000e+00 
0.0000000e+00 -2.2504586e-03 0.0000000e+00 
0.0000000e+00 -2.1087790e-03 0.0000000e+00 
0.0000000e+00 -5.1075348e-04 0.0000000e+00 
0.0000000e+00 -6.6505953e-07 0.0000000e+00 
0.0000000e+00 -8.8324196e-05 0.0000000e+00 
0.0000000e+00 -8.3751358e-05 0.0000000e+00 
0.0000000e+00 -8.2607454e-05 0.0000000e+00 
0.0000000e+00 7.0099974e-05 0.0000000e+00 
0.0000000e+00 1.3445361e-04 0.0000000e+00 
0.0000000e+00 -8.4609434e-04 0.0000000e+00 
0.0000000e+00 -2.2748930e-03 0.0000000e+00 
0.0000000e+00 -2.1588558e-03 0.0000000e+00 
0.0000000e+00 -5.2631175e-04 0.0000000e+00 
0.0000000e+00 6.4923908e-05 0.0000000e+00 
0.0000000e+00 8.2217412e-05 0.0000000e+00 
0.0000000e+00 -1.8299699e-05 0.0000000e+00 
1.0163383e-05 1.9366624e-05 -1.5694402e-05 
2.9651203e-05 3.6587910e-05 2.9766434e-06 
5.1433850e-05 -2.5070121e-05 5.4374700e-06 
5.3406748e-05 -1.0317049e-04 -2.1374108e-05 
4.7352765e-05 -8.3282161e-05 -8.2618999e-06 
3.3563007e-05 -4.0832681e-05 -3.4071584e-06 
7.6625538e-06 -6.4803903e-06 -9.3121444e-06 
-6.6714429e-06 -4.1718204e-06 3.6150661e-06 
-1.7125161e-05 -1.7770746e-05 1.3548584e-05 
-7.4195705e-06 -2.3154338e-05 -1.2150157e-05 
3.5238500e-06 1.5233897e-05 -1.5165506e-05 
2.8048622e-05 4.5316614e-05 4.5526140e-06 
6.5356238e-05 -3.3972250e-05 4.6304826e-06 
6.1716179e-05 -7.8737598e-05 1.0004696e-05 
3.5266352e-05 -1.0975515e-04 2.0891559e-05 
2.5534458e-05 -7.1775939e-05 -1.4941756e-05 
-3.7808709e-07 2.0297877e-05 -3.7230988e-05 
1.4476982e-06 -4.2957904e-06 1.4261892e-05 
2.0688847e-05 5.4868022e-05 2.2838591e-05 
0.0000000e+00 0.0000000e+00 0.0000000e+00 
0.0000000e+00 0.0000000e+00 0.0000000e+00 
0.0000000e+00 0.0000000e+00 0.0000000e+00 
0.0000000e+00 0.0000000e+00 0.0000000e+00 
0.0000000e+00 0.0000000e+00 0.0000000e+00 
0.0000000e+00 0.0000000e+00 0.0000000e+00 
0.0000000e+00 0.0000000e+00 0.0000000e+00 
0.0000000e+00 0.0000000e+00 0.0000000e+00 
0.0000000e+00 0.0000000e+00 0.0000000e+00 
0.0000000e+00 0.0000000e+00 0.0000000e+00 
0.0000000e+00 0.0000000e+00 0.0000000e+00 
0.0000000e+00 0.0000000e+00 0.0000000e+00 
0.0000000e+00 0.0000000e+00 0.0000000e+00 
0.0000000e+00 0.0000000e+00 0.0000000e+00 
0.0000000e+00 0.0000000e+00 0.0000000e+00 
0.0000000e+00 0.0000000e+00 0.0000000e+00 
0.0000000e+00 0.0000000e+00 0.0000000e+00 
0.0000000e+00 0.0000000e+00 0.0000000e+00 
0.0000000e+00 0.0000000e+00 0.0000000e+00 
0.0000000e+00 0.0000000e+00 0.0000000e+00 
0.0000000e+00 0.0000000e+00 0.0000000e+00 
0.0000000e+00 0.0000000e+00 0.0000000e+00 
0.0000000e+00 0.0000000e+00 0.0000000e+00 
0.0000000e+00 0.0000000e+00 0.0000000e+00 
0.0000000e+00 0.0000000e+00 0.0000000e+00 
0.0000000e+00 0.0000000e+00 0.0000000e+00 
0.0000000e+00 0.0000000e+00 0.0000000e+00 
0.0000000e+00 0.0000000e+00 0.0000000e+00 
0.0000000e+00 0.0000000e+00 0.0000000e+00 
0.0000000e+00 0.0000000e+00 0.0000000e+00 
0.0000000e+00 0.0000000e+00 0.0000000e+00 
0.0000000e+00 0.0000000e+00 0.0000000e+00 
0.0000000e+00 0.0000000e+00 0.0000000e+00 
0.0000000e+00 0.0000000e+00 0.0000000e+00 
0.0000000e+00 0.0000000e+00 0.0000000e+00 
0.0000000e+00 0.0000000e+00 0.0000000e+00 
0.0000000e+00 0.0000000e+00 0.0000000e+00 
0.0000000e+00 0.0000000e+00 0.0000000e+00 
0.0000000e+00 0.0000000e+00 0.0000000e+00 
0.0000000e+00 0.0000000e+00 0.0000000e+00 
0.0000000e+00 0.0000000e+00 0.0000000e+00 
0.0000000e+00 0.0000000e+00 0.0000000e+00 
2.8483703e-07 -1.5718414e-06 -9.6674421e-07 
3.9554930e-06 -7.6902040e-07 8.0813624e-07 
8.4737871e-07 -3.8779813e-06 1.6536784e-06 
-8.1377675e-07 1.4304744e-06 -1.4466559e-06 
6.4300270e-06 -5.8846458e-06 -3.8629346e-06 
2.3717383e-05 -8.5543934e-06 -2.8621253e-06 
2.5766030e-05 -1.1742224e-05 -6.8540436e-07 
2.2315435e-05 -1.1512944e-05 2.7317096e-06 
3.9406532e-06 -4.1969989e-07 5.1561101e-06 
-3.5089681e-06 3.0695555e-06 3.4662710e-06 
-7.8568075e-07 -6.7830291e-07 1.6769352e-06 
1.3545332e-06 -1.4405957e-06 1.7484649e-06 
-1.7840661e-06 -1.2619391e-06 -3.8822682e-06 
8.6701157e-06 -3.4210195e-06 -8.7603930e-06 
2.6594049e-05 -1.0458209e-05 -6.6163493e-06 
2.2925422e-05 -1.1983644e-05 -6.2401324e-07 
1.9100085e-05 -7.5206226e-06 2.6033638e-07 
2.3025968e-06 4.0007907e-07 2.3657963e-06 
3.8855178e-06 -1.7918024e-06 3.2314242e-06 
-1.4480185e-06 -1.9910266e-07 1.1278420e-06 
4.0423376e-07 1.3676910e-05 -4.5330389e-06 
-1.3738159e-09 -7.7547465e-06 2.7953279e-06 
3.8600512e-05 1.1748106e-05 -1.6106524e-05 
8.3163934e-05 -1.5951888e-05 -5.9426420e-06 
2.3803352e-05 -1.1217218e-06 6.4038545e-06 
3.3441256e-07 -1.2587609e-06 4.7762464e-06 
-1.3695656e-06 -3.6529220e-06 9.9302872e-07 
3.0116629e-05 1.5332820e-05 -1.3736315e-05 
8.1421073e-05 -2.0065789e-05 4.5657857e-06 
2.2151286e-05 -5.7730103e-06 7.4308964e-06 
1.1316483e-04 -2.3251762e-04 -5.2934691e-05 
9.0580470e-05 -1.8373998e-04 4.0048828e-05 
9.2937762e-06 -1.9328872e-05 2.3790060e-06 
-2.9858106e-06 -3.3855304e-05 7.6093502e-06 
1.0085364e-05 3.5473840e-05 -2.3306898e-06 
1.1698942e-04 -2.0360042e-04 -3.4283359e-05 
8.3042294e-05 -2.1603511e-04 4.3906552e-05 
6.4029359e-06 2.4391169e-05 5.3384183e-06 
-1.1565285e-06 1.6742986e-05 4.5258162e-06 
1.7964403e-06 1.6727095e-05 -4.0380423e-06 
-1.4562181e-06 1.1544229e-06 3.5641010e-06 
1.9360289e-06 4.0564977e-05 1.8318738e-06 
5.6267523e-05 -1.6913933e-05 -1.2372555e-05 
3.8902959e-05 -1.3969027e-05 -2.7466143e-07 
5.6974909e-06 -7.4437435e-07 3.8586904e-06 
-3.4405939e-06 -1.0891393e-05 1.9192842e-06 
4.0967820e-06 1.2537318e-05 -1.2328544e-06 
4.9200611e-05 -1.0952248e-05 -3.9757956e-06 