# vtk DataFile Version 4.0
vtk output
ASCII
DATASET UNSTRUCTURED_GRID
POINTS 661 float
0.0000000e+00 0.0000000e+00 0.0000000e+00 
0.0000000e+00 0.0000000e+00 4.0000000e+01 
5.0000000e+00 0.0000000e+00 0.0000000e+00 
5.0000000e+00 0.0000000e+00 4.0000000e+01 
5.0000000e+00 1.0000000e+00 0.0000000e+00 
5.0000000e+00 1.0000000e+00 4.0000000e+01 
0.0000000e+00 1.0000000e+00 0.0000000e+00 
0.0000000e+00 1.0000000e+00 4.0000000e+01 
5.0000000e+00 2.0000000e+00 0.0000000e+00 
5.0000000e+00 2.0000000e+00 4.0000000e+01 
3.0000000e+00 2.0000000e+00 0.0000000e+00 
3.0000000e+00 2.0000000e+00 4.0000000e+01 
0.0000000e+00 2.0000000e+00 0.0000000e+00 
0.0000000e+00 2.0000000e+00 4.0000000e+01 
1.5000000e+00 3.0000000e+00 0.0000000e+00 
1.5000000e+00 3.0000000e+00 4.0000000e+01 
7.5000000e-01 3.0000000e+00 0.0000000e+00 
7.5000000e-01 3.0000000e+00 4.0000000e+01 
0.0000000e+00 3.0000000e+00 0.0000000e+00 
0.0000000e+00 3.0000000e+00 4.0000000e+01 
7.5000000e-01 3.0000000e+00 5.0000000e-01 
7.5000000e-01 3.0000000e+00 1.0000000e+00 
7.5000000e-01 3.0000000e+00 1.5000000e+00 
7.5000000e-01 3.0000000e+00 2.0000000e+00 
7.5000000e-01 3.0000000e+00 2.5000000e+00 
7.5000000e-01 3.0000000e+00 3.0000000e+00 
7.5000000e-01 3.0000000e+00 3.5000000e+00 
7.5000000e-01 3.0000000e+00 4.0000000e+00 
7.5000000e-01 3.0000000e+00 4.5000000e+00 
7.5000000e-01 3.0000000e+00 5.0000000e+00 
7.5000000e-01 3.0000000e+00 5.5000000e+00 
7.5000000e-01 3.0000000e+00 6.0000000e+00 
7.5000000e-01 3.0000000e+00 6.5000000e+00 
7.5000000e-01 3.0000000e+00 7.0000000e+00 
7.5000000e-01 3.0000000e+00 7.5000000e+00 
7.5000000e-01 3.0000000e+00 8.0000000e+00 
7.5000000e-01 3.0000000e+00 8.5000000e+00 
7.5000000e-01 3.0000000e+00 9.0000000e+00 
7.5000000e-01 3.0000000e+00 9.5000000e+00 
7.5000000e-01 3.0000000e+00 1.0000000e+01 
7.5000000e-01 3.0000000e+00 1.0500000e+01 
7.5000000e-01 3.0000000e+00 1.1000000e+01 
7.5000000e-01 3.0000000e+00 1.1500000e+01 
7.5000000e-01 3.0000000e+00 1.2000000e+01 
7.5000000e-01 3.0000000e+00 1.2500000e+01 
7.5000000e-01 3.0000000e+00 1.3000000e+01 
7.5000000e-01 3.0000000e+00 1.3500000e+01 
7.5000000e-01 3.0000000e+00 1.4000000e+01 
7.5000000e-01 3.0000000e+00 1.4500000e+01 
7.5000000e-01 3.0000000e+00 1.5000000e+01 
7.5000000e-01 3.0000000e+00 1.5500000e+01 
7.5000000e-01 3.0000000e+00 1.6000000e+01 
7.5000000e-01 3.0000000e+00 1.6500000e+01 
7.5000000e-01 3.0000000e+00 1.7000000e+01 
7.5000000e-01 3.0000000e+00 1.7500000e+01 
7.5000000e-01 3.0000000e+00 1.8000000e+01 
7.5000000e-01 3.0000000e+00 1.8500000e+01 
7.5000000e-01 3.0000000e+00 1.9000000e+01 
7.5000000e-01 3.0000000e+00 1.9500000e+01 
7.5000000e-01 3.0000000e+00 2.0000000e+01 
7.5000000e-01 3.0000000e+00 2.0500000e+01 
7.5000000e-01 3.0000000e+00 2.1000000e+01 
7.5000000e-01 3.0000000e+00 2.1500000e+01 
7.5000000e-01 3.0000000e+00 2.2000000e+01 
7.5000000e-01 3.0000000e+00 2.2500000e+01 
7.5000000e-01 3.0000000e+00 2.3000000e+01 
7.5000000e-01 3.0000000e+00 2.3500000e+01 
7.5000000e-01 3.0000000e+00 2.4000000e+01 
7.5000000e-01 3.0000000e+00 2.4500000e+01 
7.5000000e-01 3.0000000e+00 2.5000000e+01 
7.5000000e-01 3.0000000e+00 2.5500000e+01 
7.5000000e-01 3.0000000e+00 2.6000000e+01 
7.5000000e-01 3.0000000e+00 2.6500000e+01 
7.5000000e-01 3.0000000e+00 2.7000000e+01 
7.5000000e-01 3.0000000e+00 2.7500000e+01 
7.5000000e-01 3.0000000e+00 2.8000000e+01 
7.5000000e-01 3.0000000e+00 2.8500000e+01 
7.5000000e-01 3.0000000e+00 2.9000000e+01 
7.5000000e-01 3.0000000e+00 2.9500000e+01 
7.5000000e-01 3.0000000e+00 3.0000000e+01 
7.5000000e-01 3.0000000e+00 3.0500000e+01 
7.5000000e-01 3.0000000e+00 3.1000000e+01 
7.5000000e-01 3.0000000e+00 3.1500000e+01 
7.5000000e-01 3.0000000e+00 3.2000000e+01 
7.5000000e-01 3.0000000e+00 3.2500000e+01 
7.5000000e-01 3.0000000e+00 3.3000000e+01 
7.5000000e-01 3.0000000e+00 3.3500000e+01 
7.5000000e-01 3.0000000e+00 3.4000000e+01 
7.5000000e-01 3.0000000e+00 3.4500000e+01 
7.5000000e-01 3.0000000e+00 3.5000000e+01 
7.5000000e-01 3.0000000e+00 3.5500000e+01 
7.5000000e-01 3.0000000e+00 3.6000000e+01 
7.5000000e-01 3.0000000e+00 3.6500000e+01 
7.5000000e-01 3.0000000e+00 3.7000000e+01 
7.5000000e-01 3.0000000e+00 3.7500000e+01 
7.5000000e-01 3.0000000e+00 3.8000000e+01 
7.5000000e-01 3.0000000e+00 3.8500000e+01 
7.5000000e-01 3.0000000e+00 3.9000000e+01 
7.5000000e-01 3.0000000e+00 3.9500000e+01 
7.5000000e-01 3.0000000e+00 4.0500000e+01 
7.5000000e-01 3.0000000e+00 4.1000000e+01 
7.5000000e-01 3.0000000e+00 4.1500000e+01 
7.5000000e-01 3.0000000e+00 4.2000000e+01 
7.5000000e-01 3.0000000e+00 4.2500000e+01 
7.5000000e-01 3.0000000e+00 4.3000000e+01 
7.5000000e-01 3.0000000e+00 4.3500000e+01 
7.5000000e-01 3.0000000e+00 4.4000000e+01 
7.5000000e-01 3.0000000e+00 4.4500000e+01 
7.5000000e-01 3.0000000e+00 4.5000000e+01 
7.5000000e-01 3.0000000e+00 4.5500000e+01 
7.5000000e-01 3.0000000e+00 4.6000000e+01 
7.5000000e-01 3.0000000e+00 4.6500000e+01 
7.5000000e-01 3.0000000e+00 4.7000000e+01 
7.5000000e-01 3.0000000e+00 4.7500000e+01 
7.5000000e-01 3.0000000e+00 4.8000000e+01 
7.5000000e-01 3.0000000e+00 4.8500000e+01 
7.5000000e-01 3.0000000e+00 4.9000000e+01 
7.5000000e-01 3.0000000e+00 4.9500000e+01 
7.5000000e-01 3.0000000e+00 5.0000000e+01 
7.5000000e-01 3.0250001e+00 0.0000000e+00 
7.5000000e-01 3.0250001e+00 5.0000000e-01 
7.5000000e-01 3.0250001e+00 1.0000000e+00 
7.5000000e-01 3.0250001e+00 1.5000000e+00 
7.5000000e-01 3.0250001e+00 2.0000000e+00 
7.5000000e-01 3.0250001e+00 2.5000000e+00 
7.5000000e-01 3.0250001e+00 3.0000000e+00 
7.5000000e-01 3.0250001e+00 3.5000000e+00 
7.5000000e-01 3.0250001e+00 4.0000000e+00 
7.5000000e-01 3.0250001e+00 4.5000000e+00 
7.5000000e-01 3.0250001e+00 5.0000000e+00 
7.5000000e-01 3.0250001e+00 5.5000000e+00 
7.5000000e-01 3.0250001e+00 6.0000000e+00 
7.5000000e-01 3.0250001e+00 6.5000000e+00 
7.5000000e-01 3.0250001e+00 7.0000000e+00 
7.5000000e-01 3.0250001e+00 7.5000000e+00 
7.5000000e-01 3.0250001e+00 8.0000000e+00 
7.5000000e-01 3.0250001e+00 8.5000000e+00 
7.5000000e-01 3.0250001e+00 9.0000000e+00 
7.5000000e-01 3.0250001e+00 9.5000000e+00 
7.5000000e-01 3.0250001e+00 1.0000000e+01 
7.5000000e-01 3.0250001e+00 1.0500000e+01 
7.5000000e-01 3.0250001e+00 1.1000000e+01 
7.5000000e-01 3.0250001e+00 1.1500000e+01 
7.5000000e-01 3.0250001e+00 1.2000000e+01 
7.5000000e-01 3.0250001e+00 1.2500000e+01 
7.5000000e-01 3.0250001e+00 1.3000000e+01 
7.5000000e-01 3.0250001e+00 1.3500000e+01 
7.5000000e-01 3.0250001e+00 1.4000000e+01 
7.5000000e-01 3.0250001e+00 1.4500000e+01 
7.5000000e-01 3.0250001e+00 1.5000000e+01 
7.5000000e-01 3.0250001e+00 1.5500000e+01 
7.5000000e-01 3.0250001e+00 1.6000000e+01 
7.5000000e-01 3.0250001e+00 1.6500000e+01 
7.5000000e-01 3.0250001e+00 1.7000000e+01 
7.5000000e-01 3.0250001e+00 1.7500000e+01 
7.5000000e-01 3.0250001e+00 1.8000000e+01 
7.5000000e-01 3.0250001e+00 1.8500000e+01 
7.5000000e-01 3.0250001e+00 1.9000000e+01 
7.5000000e-01 3.0250001e+00 1.9500000e+01 
7.5000000e-01 3.0250001e+00 2.0000000e+01 
7.5000000e-01 3.0250001e+00 2.0500000e+01 
7.5000000e-01 3.0250001e+00 2.1000000e+01 
7.5000000e-01 3.0250001e+00 2.1500000e+01 
7.5000000e-01 3.0250001e+00 2.2000000e+01 
7.5000000e-01 3.0250001e+00 2.2500000e+01 
7.5000000e-01 3.0250001e+00 2.3000000e+01 
7.5000000e-01 3.0250001e+00 2.3500000e+01 
7.5000000e-01 3.0250001e+00 2.4000000e+01 
7.5000000e-01 3.0250001e+00 2.4500000e+01 
7.5000000e-01 3.0250001e+00 2.5000000e+01 
7.5000000e-01 3.0250001e+00 2.5500000e+01 
7.5000000e-01 3.0250001e+00 2.6000000e+01 
7.5000000e-01 3.0250001e+00 2.6500000e+01 
7.5000000e-01 3.0250001e+00 2.7000000e+01 
7.5000000e-01 3.0250001e+00 2.7500000e+01 
7.5000000e-01 3.0250001e+00 2.8000000e+01 
7.5000000e-01 3.0250001e+00 2.8500000e+01 
7.5000000e-01 3.0250001e+00 2.9000000e+01 
7.5000000e-01 3.0250001e+00 2.9500000e+01 
7.5000000e-01 3.0250001e+00 3.0000000e+01 
7.5000000e-01 3.0250001e+00 3.0500000e+01 
7.5000000e-01 3.0250001e+00 3.1000000e+01 
7.5000000e-01 3.0250001e+00 3.1500000e+01 
7.5000000e-01 3.0250001e+00 3.2000000e+01 
7.5000000e-01 3.0250001e+00 3.2500000e+01 
7.5000000e-01 3.0250001e+00 3.3000000e+01 
7.5000000e-01 3.0250001e+00 3.3500000e+01 
7.5000000e-01 3.0250001e+00 3.4000000e+01 
7.5000000e-01 3.0250001e+00 3.4500000e+01 
7.5000000e-01 3.0250001e+00 3.5000000e+01 
7.5000000e-01 3.0250001e+00 3.5500000e+01 
7.5000000e-01 3.0250001e+00 3.6000000e+01 
7.5000000e-01 3.0250001e+00 3.6500000e+01 
7.5000000e-01 3.0250001e+00 3.7000000e+01 
7.5000000e-01 3.0250001e+00 3.7500000e+01 
7.5000000e-01 3.0250001e+00 3.8000000e+01 
7.5000000e-01 3.0250001e+00 3.8500000e+01 
7.5000000e-01 3.0250001e+00 3.9000000e+01 
7.5000000e-01 3.0250001e+00 3.9500000e+01 
7.5000000e-01 3.0250001e+00 4.0000000e+01 
7.5000000e-01 3.0250001e+00 4.0500000e+01 
7.5000000e-01 3.0250001e+00 4.1000000e+01 
7.5000000e-01 3.0250001e+00 4.1500000e+01 
7.5000000e-01 3.0250001e+00 4.2000000e+01 
7.5000000e-01 3.0250001e+00 4.2500000e+01 
7.5000000e-01 3.0250001e+00 4.3000000e+01 
7.5000000e-01 3.0250001e+00 4.3500000e+01 
7.5000000e-01 3.0250001e+00 4.4000000e+01 
7.5000000e-01 3.0250001e+00 4.4500000e+01 
7.5000000e-01 3.0250001e+00 4.5000000e+01 
7.5000000e-01 3.0250001e+00 4.5500000e+01 
7.5000000e-01 3.0250001e+00 4.6000000e+01 
7.5000000e-01 3.0250001e+00 4.6500000e+01 
7.5000000e-01 3.0250001e+00 4.7000000e+01 
7.5000000e-01 3.0250001e+00 4.7500000e+01 
7.5000000e-01 3.0250001e+00 4.8000000e+01 
7.5000000e-01 3.0250001e+00 4.8500000e+01 
7.5000000e-01 3.0250001e+00 4.9000000e+01 
7.5000000e-01 3.0250001e+00 4.9500000e+01 
7.5000000e-01 3.0250001e+00 5.0000000e+01 
3.0000000e+00 2.0000000e+00 3.6000000e+01 
8.0487806e-01 3.0000000e+00 3.6000000e+01 
0.0000000e+00 0.0000000e+00 2.0000000e+00 
0.0000000e+00 0.0000000e+00 4.0000000e+00 
0.0000000e+00 0.0000000e+00 6.0000000e+00 
0.0000000e+00 0.0000000e+00 8.0000000e+00 
0.0000000e+00 0.0000000e+00 1.0000000e+01 
0.0000000e+00 0.0000000e+00 1.2000000e+01 
0.0000000e+00 0.0000000e+00 1.4000000e+01 
0.0000000e+00 0.0000000e+00 1.6000000e+01 
[...]
POINT_DATA 661
FIELD FieldData 3
DISPLACEMENT 3 661  float
0.0000000e+00 0.0000000e+00 0.0000000e+00 
0.0000000e+00 0.0000000e+00 0.0000000e+00 
0.0000000e+00 0.0000000e+00 0.0000000e+00 
0.0000000e+00 0.0000000e+00 0.0000000e+00 
1.9476063e-06 -9.7624252e-07 -5.1500556e-06 
9.4932202e-06 6.5277313e-06 1.4454080e-05 
0.0000000e+00 -2.4172289e-06 0.0000000e+00 
0.0000000e+00 -1.7249546e-04 0.0000000e+00 
1.4385764e-06 4.9918100e-07 -6.1967889e-06 
2.4725327e-05 9.0538942e-06 -1.4169945e-06 
5.2838609e-06 -4.8267220e-06 -8.6176951e-06 
3.5176599e-05 6.7636152e-05 -1.0187759e-05 
0.0000000e+00 -6.9167277e-06 0.0000000e+00 
0.0000000e+00 -3.4716385e-04 0.0000000e+00 
5.1107113e-06 -1.3441902e-05 -1.8350163e-05 
-8.8369197e-05 -1.1489032e-04 -2.3976590e-04 
1.4099861e-07 -1.1057878e-05 -1.4395906e-05 
-6.0883795e-05 -6.2669069e-04 -2.8980666e-04 
0.0000000e+00 -1.2113739e-05 0.0000000e+00 
0.0000000e+00 -2.3398730e-04 0.0000000e+00 
3.6146191e-06 -1.0108107e-05 -1.7439510e-05 
1.0217477e-05 -6.7126348e-06 -1.6208725e-05 
1.3765280e-05 3.1842021e-07 -1.3513630e-05 
1.7743423e-05 1.1993852e-05 -6.3019452e-06 
1.9914536e-05 2.8552939e-05 2.6408215e-06 
1.7906825e-05 4.8964401e-05 5.1491920e-06 
1.3559673e-05 7.0527982e-05 6.1865771e-06 
1.1844209e-05 9.0066162e-05 4.5307866e-06 
9.4783709e-06 1.0512115e-04 -1.0031356e-06 
9.2024557e-06 1.1449554e-04 2.2762362e-07 
5.7035018e-06 1.1777829e-04 1.0825372e-05 
3.2676535e-06 1.1560514e-04 2.4481060e-05 
6.7598921e-06 1.0735629e-04 3.6161036e-05 
8.9590658e-06 9.3992043e-05 4.2065516e-05 
9.7278989e-06 7.5782904e-05 4.5298111e-05 
1.1673778e-05 5.3976924e-05 4.2181011e-05 
1.2072278e-05 3.0370797e-05 3.8820654e-05 
1.4944023e-05 7.8564490e-06 3.5424702e-05 
1.8744291e-05 -9.9182544e-06 3.7100421e-05 
1.8387271e-05 -2.0455376e-05 3.9778806e-05 
1.5537778e-05 -2.2707312e-05 3.3893815e-05 
1.1144505e-05 -2.3889548e-05 3.0196439e-05 
5.0573503e-06 -3.6736874e-05 4.0984753e-05 
-8.7151693e-06 -9.0806629e-05 5.2698913e-05 
-5.3276184e-05 -2.2778272e-04 8.1922852e-05 
-6.9717586e-05 -4.9049931e-04 1.0877927e-04 
-9.3254377e-05 -9.4264263e-04 1.4568280e-04 
-1.4869958e-04 -1.6269482e-03 8.0236809e-05 
-2.9681969e-04 -2.5605531e-03 1.5432421e-04 
-3.0375717e-04 -3.5611470e-03 1.2913599e-04 
-1.9107912e-04 -4.3157362e-03 5.7589525e-05 
-1.5207873e-04 -4.2581963e-03 6.8887653e-05 
-2.7320447e-04 -3.9775581e-03 -2.5320542e-06 
-3.3342326e-04 -3.8594620e-03 -1.3090920e-05 
-2.1930569e-04 -4.0250556e-03 -4.3289219e-05 
-5.7008590e-05 -3.9881491e-03 -7.7175464e-05 
-7.5474236e-05 -3.2751572e-03 -1.6015081e-04 
-1.6055690e-04 -2.2538609e-03 -1.7254465e-04 
-1.5956737e-04 -1.3757453e-03 -1.5333439e-04 
-4.5799603e-05 -7.1868219e-04 -8.5343068e-05 
-1.7219423e-05 -3.1271516e-04 -1.1799669e-04 
-7.7479572e-06 -9.0824899e-05 -9.0645874e-05 
-5.7785001e-06 1.0135720e-05 -7.0314083e-05 
2.6110442e-06 4.1938296e-05 -4.9242386e-05 
4.1260250e-06 3.8536018e-05 -2.7667851e-05 
2.1462181e-06 2.2292443e-05 -1.3575269e-05 
-4.3109958e-06 6.0161524e-06 -9.6701415e-06 
-1.0440135e-05 -7.3287997e-06 -1.3081712e-05 
-1.2387124e-05 -1.6250118e-05 -1.7906466e-05 
-1.1483504e-05 -2.2747194e-05 -2.1437409e-05 
-1.2421596e-05 -2.8490107e-05 -2.3451768e-05 
-1.4263246e-05 -3.2981417e-05 -2.3156877e-05 
-1.2512585e-05 -3.4936966e-05 -2.2388916e-05 
-1.2364001e-05 -3.3635624e-05 -2.3261342e-05 
-7.4321497e-06 -2.7737271e-05 -2.7480384e-05 
-1.1167447e-06 -1.6605809e-05 -2.9298564e-05 
1.4090076e-05 1.0503979e-06 -2.4716181e-05 
2.4597164e-05 2.5952017e-05 -1.8189852e-05 
3.2997486e-05 5.9083763e-05 -1.6290222e-05 
4.3573811e-05 9.9239318e-05 -1.0889949e-05 
4.8357360e-05 1.4356156e-04 -1.3180957e-05 
4.8642407e-05 1.8096736e-04 -7.7257164e-06 
4.0238003e-05 1.9419272e-04 7.3889319e-06 
2.2404418e-05 1.4978935e-04 2.7814429e-05 
-2.7705248e-05 -4.2817294e-07 7.3320851e-05 
-4.1331543e-05 -2.9965313e-04 1.1794327e-04 
-6.9462680e-05 -8.1148866e-04 1.7654915e-04 
-1.2912675e-04 -1.5647247e-03 1.2422621e-04 
-2.7141871e-04 -2.5554269e-03 2.0662979e-04 
-2.7828588e-04 -3.5610592e-03 1.7281964e-04 
-1.8126571e-04 -4.2117601e-03 7.3391791e-05 
-3.7014301e-04 -4.1244733e-03 1.2713378e-04 
-2.6193896e-04 -3.9453437e-03 1.0656851e-04 
-2.9506424e-04 -4.0108371e-03 2.1117212e-05 
-1.0498795e-04 -4.3398831e-03 -1.1750154e-04 
-1.8614737e-04 -4.3635867e-03 -1.8425523e-04 
-1.8315740e-04 -3.5538920e-03 -3.3029032e-04 
-2.1781762e-04 -2.4545956e-03 -3.4835655e-04 
-1.6372964e-04 -1.4747713e-03 -1.3127341e-04 
0.0000000e+00 5.1711097e-05 0.0000000e+00 
0.0000000e+00 5.6088460e-04 0.0000000e+00 
0.0000000e+00 9.0659055e-04 0.0000000e+00 
0.0000000e+00 1.1023806e-03 0.0000000e+00 
0.0000000e+00 1.1675475e-03 0.0000000e+00 
0.0000000e+00 1.1253142e-03 0.0000000e+00 
0.0000000e+00 1.0014385e-03 0.0000000e+00 
0.0000000e+00 8.2290667e-04 0.0000000e+00 
0.0000000e+00 6.1621174e-04 0.0000000e+00 
0.0000000e+00 4.0538798e-04 0.0000000e+00 
0.0000000e+00 2.1039306e-04 0.0000000e+00 
0.0000000e+00 4.6111887e-05 0.0000000e+00 
0.0000000e+00 -7.8232311e-05 0.0000000e+00 
0.0000000e+00 -1.5946261e-04 0.0000000e+00 
0.0000000e+00 -2.0042380e-04 0.0000000e+00 
0.0000000e+00 -2.0913714e-04 0.0000000e+00 
0.0000000e+00 -1.9700949e-04 0.0000000e+00 
0.0000000e+00 -1.7646304e-04 0.0000000e+00 
0.0000000e+00 -1.5861547e-04 0.0000000e+00 
0.0000000e+00 -1.5153093e-04 0.0000000e+00 
0.0000000e+00 -1.1097353e-05 0.0000000e+00 
0.0000000e+00 -1.0138053e-05 0.0000000e+00 
0.0000000e+00 -6.6991879e-06 0.0000000e+00 
0.0000000e+00 3.5817598e-07 0.0000000e+00 
0.0000000e+00 1.2057261e-05 0.0000000e+00 
0.0000000e+00 2.8640636e-05 0.0000000e+00 
0.0000000e+00 4.9001352e-05 0.0000000e+00 
0.0000000e+00 7.0509086e-05 0.0000000e+00 
0.0000000e+00 9.0030619e-05 0.0000000e+00 
0.0000000e+00 1.0510204e-04 0.0000000e+00 
0.0000000e+00 1.1446246e-04 0.0000000e+00 
0.0000000e+00 1.1785992e-04 0.0000000e+00 
0.0000000e+00 1.1555569e-04 0.0000000e+00 
0.0000000e+00 1.0741359e-04 0.0000000e+00 
0.0000000e+00 9.3972703e-05 0.0000000e+00 
0.0000000e+00 7.5770375e-05 0.0000000e+00 
0.0000000e+00 5.3925811e-05 0.0000000e+00 
0.0000000e+00 3.0343528e-05 0.0000000e+00 
0.0000000e+00 7.9094552e-06 0.0000000e+00 
0.0000000e+00 -9.8523769e-06 0.0000000e+00 
0.0000000e+00 -2.0076966e-05 0.0000000e+00 
0.0000000e+00 -2.2414930e-05 0.0000000e+00 
0.0000000e+00 -2.2983137e-05 0.0000000e+00 
0.0000000e+00 -3.6105248e-05 0.0000000e+00 
0.0000000e+00 -9.0667738e-05 0.0000000e+00 
0.0000000e+00 -2.2667862e-04 0.0000000e+00 
0.0000000e+00 -4.9126783e-04 0.0000000e+00 
0.0000000e+00 -9.4427326e-04 0.0000000e+00 
0.0000000e+00 -1.6365522e-03 0.0000000e+00 
0.0000000e+00 -2.5684987e-03 0.0000000e+00 
0.0000000e+00 -3.5944206e-03 0.0000000e+00 
0.0000000e+00 -4.3407492e-03 0.0000000e+00 
0.0000000e+00 -4.2898743e-03 0.0000000e+00 
0.0000000e+00 -3.9918004e-03 0.0000000e+00 
0.0000000e+00 -3.8899758e-03 0.0000000e+00 
0.0000000e+00 -4.0443758e-03 0.0000000e+00 
0.0000000e+00 -4.0217964e-03 0.0000000e+00 
0.0000000e+00 -3.2926893e-03 0.0000000e+00 
0.0000000e+00 -2.2719568e-03 0.0000000e+00 
0.0000000e+00 -1.3779460e-03 0.0000000e+00 
0.0000000e+00 -7.2278589e-04 0.0000000e+00 
0.0000000e+00 -3.1248832e-04 0.0000000e+00 
0.0000000e+00 -8.9934350e-05 0.0000000e+00 
0.0000000e+00 1.1128913e-05 0.0000000e+00 
0.0000000e+00 4.2550724e-05 0.0000000e+00 
0.0000000e+00 3.9017963e-05 0.0000000e+00 
0.0000000e+00 2.2778362e-05 0.0000000e+00 
0.0000000e+00 6.0852753e-06 0.0000000e+00 
0.0000000e+00 -7.1815625e-06 0.0000000e+00 
0.0000000e+00 -1.6278924e-05 0.0000000e+00 
0.0000000e+00 -2.2878916e-05 0.0000000e+00 
0.0000000e+00 -2.8525596e-05 0.0000000e+00 
0.0000000e+00 -3.2931210e-05 0.0000000e+00 
0.0000000e+00 -3.4960849e-05 0.0000000e+00 
0.0000000e+00 -3.3602246e-05 0.0000000e+00 
0.0000000e+00 -2.7773831e-05 0.0000000e+00 
0.0000000e+00 -1.6599579e-05 0.0000000e+00 
0.0000000e+00 1.0380176e-06 0.0000000e+00 
0.0000000e+00 2.6057034e-05 0.0000000e+00 
0.0000000e+00 5.9174534e-05 0.0000000e+00 
0.0000000e+00 9.9644480e-05 0.0000000e+00 
0.0000000e+00 1.4391731e-04 0.0000000e+00 
0.0000000e+00 1.8188078e-04 0.0000000e+00 
0.0000000e+00 1.9497683e-04 0.0000000e+00 
0.0000000e+00 1.4968739e-04 0.0000000e+00 
0.0000000e+00 6.9469075e-07 0.0000000e+00 
0.0000000e+00 -3.0106568e-04 0.0000000e+00 
0.0000000e+00 -8.1350433e-04 0.0000000e+00 
0.0000000e+00 -1.5753021e-03 0.0000000e+00 
0.0000000e+00 -2.5643758e-03 0.0000000e+00 
0.0000000e+00 -3.5957610e-03 0.0000000e+00 
0.0000000e+00 -4.2386670e-03 0.0000000e+00 
0.0000000e+00 -4.1509443e-03 0.0000000e+00 
0.0000000e+00 -3.9615370e-03 0.0000000e+00 
0.0000000e+00 -4.0421081e-03 0.0000000e+00 
0.0000000e+00 -4.3715495e-03 0.0000000e+00 
0.0000000e+00 -4.3846881e-03 0.0000000e+00 
0.0000000e+00 -3.5723546e-03 0.0000000e+00 
0.0000000e+00 -2.4746691e-03 0.0000000e+00 
0.0000000e+00 -1.4730091e-03 0.0000000e+00 
0.0000000e+00 -6.2748377e-04 0.0000000e+00 
0.0000000e+00 5.1378895e-05 0.0000000e+00 
0.0000000e+00 5.6058535e-04 0.0000000e+00 
0.0000000e+00 9.0636703e-04 0.0000000e+00 
0.0000000e+00 1.1022282e-03 0.0000000e+00 
0.0000000e+00 1.1674477e-03 0.0000000e+00 
0.0000000e+00 1.1252710e-03 0.0000000e+00 
0.0000000e+00 1.0014697e-03 0.0000000e+00 
0.0000000e+00 8.2301459e-04 0.0000000e+00 
0.0000000e+00 6.1637943e-04 0.0000000e+00 
0.0000000e+00 4.0559820e-04 0.0000000e+00 
0.0000000e+00 2.1063964e-04 0.0000000e+00 
0.0000000e+00 4.6386627e-05 0.0000000e+00 
0.0000000e+00 -7.7957455e-05 0.0000000e+00 
0.0000000e+00 -1.5923379e-04 0.0000000e+00 
0.0000000e+00 -2.0028447e-04 0.0000000e+00 
0.0000000e+00 -2.0910714e-04 0.0000000e+00 
0.0000000e+00 -1.9707883e-04 0.0000000e+00 
0.0000000e+00 -1.7660120e-04 0.0000000e+00 
0.0000000e+00 -1.5878827e-04 0.0000000e+00 
0.0000000e+00 -1.5171297e-04 0.0000000e+00 
1.0195143e-04 -1.4312782e-04 1.1835844e-05 
-1.6778002e-04 -3.5820547e-03 1.4611958e-04 
0.0000000e+00 0.0000000e+00 0.0000000e+00 
0.0000000e+00 0.0000000e+00 0.0000000e+00 
0.0000000e+00 0.0000000e+00 0.0000000e+00 
0.0000000e+00 0.0000000e+00 0.0000000e+00 
0.0000000e+00 0.0000000e+00 0.0000000e+00 
0.0000000e+00 0.0000000e+00 0.0000000e+00 
0.0000000e+00 0.0000000e+00 0.0000000e+00 
0.0000000e+00 0.0000000e+00 0.0000000e+00 
0.0000000e+00 0.0000000e+00 0.0000000e+00 
0.0000000e+00 0.0000000e+00 0.0000000e+00 
0.0000000e+00 0.0000000e+00 0.0000000e+00 
0.0000000e+00 0.0000000e+00 0.0000000e+00 
0.0000000e+00 0.0000000e+00 0.0000000e+00 
0.0000000e+00 0.0000000e+00 0.0000000e+00 
0.0000000e+00 0.0000000e+00 0.0000000e+00 
0.0000000e+00 0.0000000e+00 0.0000000e+00 
0.0000000e+00 0.0000000e+00 0.0000000e+00 
0.0000000e+00 0.0000000e+00 0.0000000e+00 
0.0000000e+00 0.0000000e+00 0.0000000e+00 
0.0000000e+00 0.0000000e+00 0.0000000e+00 
0.0000000e+00 0.0000000e+00 0.0000000e+00 
0.0000000e+00 0.0000000e+00 0.0000000e+00 
0.0000000e+00 0.0000000e+00 0.0000000e+00 
0.0000000e+00 0.0000000e+00 0.0000000e+00 
0.0000000e+00 0.0000000e+00 0.0000000e+00 
0.0000000e+00 0.0000000e+00 0.0000000e+00 
0.0000000e+00 0.0000000e+00 0.0000000e+00 
0.0000000e+00 0.0000000e+00 0.0000000e+00 
0.0000000e+00 0.0000000e+00 0.0000000e+00 
0.0000000e+00 0.0000000e+00 0.0000000e+00 
0.0000000e+00 0.0000000e+00 0.0000000e+00 
0.0000000e+00 0.0000000e+00 0.0000000e+00 
0.0000000e+00 0.0000000e+00 0.0000000e+00 
0.0000000e+00 0.0000000e+00 0.0000000e+00 
0.0000000e+00 0.0000000e+00 0.0000000e+00 
0.0000000e+00 0.0000000e+00 0.0000000e+00 
0.0000000e+00 0.0000000e+00 0.0000000e+00 
0.0000000e+00 0.0000000e+00 0.0000000e+00 
0.0000000e+00 0.0000000e+00 0.0000000e+00 
0.0000000e+00 0.0000000e+00 0.0000000e+00 
0.0000000e+00 0.0000000e+00 0.0000000e+00 
0.0000000e+00 0.0000000e+00 0.0000000e+00 
2.2614447e-06 -1.7049045e-06 -3.6598576e-06 
-4.2936287e-07 -9.4615257e-07 1.4646433e-06 
-6.6259217e-06 2.8599084e-07 3.0921492e-06 
-9.7249776e-06 2.8712223e-06 -3.7017443e-07 
-2.8532079e-06 -6.8611109e-07 -3.9577999e-06 
1.3936673e-05 -4.3356677e-06 -7.6521401e-06 
3.8295759e-05 -7.1587137e-06 -1.0481418e-05 
5.2595602e-05 -6.6121329e-06 -8.9758652e-07 
4.3368371e-05 -3.5896983e-06 9.2879827e-06 
1.9879782e-05 -1.7623490e-06 4.1402041e-06 
5.1974052e-06 -3.0289327e-06 4.9650242e-07 
2.2411655e-06 -9.9577699e-07 -3.2450700e-07 
-3.0230474e-06 -2.1654628e-06 3.0101533e-06 
-8.0150085e-06 -1.1553982e-06 1.0313878e-06 
-4.9968194e-06 5.0259598e-07 -2.0942057e-06 
2.2704735e-06 1.0248306e-06 -7.7805871e-06 
3.2171993e-05 -6.1457185e-06 -1.6333259e-05 
5.5682776e-05 -2.1593311e-05 -1.2561341e-06 
4.3410004e-05 -1.6799717e-05 1.9013964e-05 
0.0000000e+00 2.4194967e-06 0.0000000e+00 
0.0000000e+00 2.9369621e-05 0.0000000e+00 
0.0000000e+00 3.5237263e-05 0.0000000e+00 
0.0000000e+00 1.3106458e-05 0.0000000e+00 
0.0000000e+00 -1.1162811e-05 0.0000000e+00 
0.0000000e+00 -4.5190438e-05 0.0000000e+00 
0.0000000e+00 -2.6873205e-04 0.0000000e+00 
0.0000000e+00 -5.5759255e-04 0.0000000e+00 
0.0000000e+00 -4.6689410e-04 0.0000000e+00 
0.0000000e+00 -1.2451696e-04 0.0000000e+00 
0.0000000e+00 -8.8948218e-06 0.0000000e+00 
0.0000000e+00 -4.4238127e-06 0.0000000e+00 
0.0000000e+00 -1.6656353e-05 0.0000000e+00 
0.0000000e+00 -6.8781123e-06 0.0000000e+00 
0.0000000e+00 3.2465126e-05 0.0000000e+00 
0.0000000e+00 3.4677581e-05 0.0000000e+00 
0.0000000e+00 -2.2166397e-04 0.0000000e+00 
0.0000000e+00 -5.7269784e-04 0.0000000e+00 
0.0000000e+00 -5.0587492e-04 0.0000000e+00 
2.9806033e-06 -2.4179153e-06 -6.2725903e-06 
1.8067507e-06 -2.7514220e-06 -4.8578054e-06 
4.1428611e-05 2.9495131e-05 1.6245140e-05 
7.6559758e-05 -9.5925287e-05 1.0757778e-04 
3.7515242e-06 -2.6192347e-06 -5.0960612e-06 
2.8861841e-06 -3.7767361e-06 4.9794082e-08 
-4.6355763e-06 -1.4910016e-06 3.5777587e-06 
-1.1712705e-05 2.3357643e-06 9.6046415e-07 
-6.6755201e-06 1.1039774e-06 -3.4881609e-06 
1.8108969e-05 -3.6945446e-06 -9.5454197e-06 
3.2656815e-05 -4.9176983e-06 -6.0591788e-06 
3.6762242e-05 -4.8546035e-06 -1.3660215e-06 
2.8888357e-05 -9.3750930e-07 7.8894200e-06 
1.2531430e-05 1.7304174e-06 3.1048728e-07 
6.5790018e-06 -3.1655181e-06 -7.9174441e-07 
1.4384442e-06 -2.8736988e-06 -1.7639434e-07 
-5.3257390e-06 -4.4304343e-06 3.1681486e-06 
-9.7666389e-06 -1.6215629e-06 -9.7897259e-07 
-1.2835097e-06 6.4615926e-07 -7.4897935e-06 
1.5646001e-05 9.0457854e-07 -1.0728868e-05 
3.6213933e-05 -5.6286181e-06 -7.2190742e-06 
5.1735842e-05 -1.5364869e-05 8.9583800e-06 
3.5959518e-05 -6.9804373e-06 1.1799787e-05 
4.5260067e-06 -5.2327855e-06 -7.5417483e-06 
0.0000000e+00 4.0953378e-06 0.0000000e+00 
0.0000000e+00 5.6339413e-05 0.0000000e+00 
0.0000000e+00 6.6125765e-05 0.0000000e+00 
0.0000000e+00 2.6590375e-05 0.0000000e+00 
0.0000000e+00 -2.2717060e-05 0.0000000e+00 
0.0000000e+00 -7.0537964e-05 0.0000000e+00 
0.0000000e+00 -5.5682159e-04 0.0000000e+00 
0.0000000e+00 -1.2390043e-03 0.0000000e+00 
0.0000000e+00 -1.0488273e-03 0.0000000e+00 
0.0000000e+00 -2.3391463e-04 0.0000000e+00 
0.0000000e+00 -3.7022362e-06 0.0000000e+00 
0.0000000e+00 -8.3229015e-06 0.0000000e+00 
0.0000000e+00 -2.6479514e-05 0.0000000e+00 
0.0000000e+00 -1.3319500e-05 0.0000000e+00 
0.0000000e+00 5.8721154e-05 0.0000000e+00 
0.0000000e+00 7.5077623e-05 0.0000000e+00 
0.0000000e+00 -4.6866608e-04 0.0000000e+00 
0.0000000e+00 -1.3022103e-03 0.0000000e+00 
0.0000000e+00 -1.1244676e-03 0.0000000e+00 
5.8443013e-05 -2.5162697e-04 6.3206833e-05 
2.2141941e-05 1.6706482e-06 -9.9398476e-06 
1.7125027e-05 5.7437530e-05 3.4936070e-06 
8.1583639e-06 7.5007614e-05 3.1676602e-05 
7.5122571e-06 4.3692020e-05 4.6959616e-05 
2.9837547e-05 -2.9741552e-05 6.2240972e-05 
1.1083771e-06 -2.2612279e-05 9.2324481e-05 
-3.2761251e-04 -5.4079172e-04 2.7774062e-04 
-7.2025089e-04 -1.3982183e-03 4.1997824e-05 
-5.8203645e-04 -1.3197305e-03 -1.7298704e-04 
-1.0927835e-04 -1.9130057e-04 -1.8407490e-04 
1.6297712e-05 6.7022884e-06 -4.5453533e-05 
-1.2057762e-05 -1.3361026e-05 -1.9138462e-05 
-2.0933478e-05 -2.6409949e-05 -1.5087559e-05 
-1.1379307e-05 -7.7965897e-06 -4.2608524e-05 
6.5505315e-05 4.1139465e-05 -1.4470635e-05 
4.9359325e-05 1.5107279e-04 6.6041008e-05 
-3.2771411e-04 -4.5554465e-04 3.6815042e-04 
-5.1384437e-04 -1.7271944e-03 1.4318172e-04 
-5.9918908e-04 -1.2400296e-03 -1.9383640e-04 
0.0000000e+00 -1.1749527e-06 0.0000000e+00 
0.0000000e+00 8.6382373e-05 0.0000000e+00 
0.0000000e+00 1.0180221e-04 0.0000000e+00 
0.0000000e+00 3.8382354e-05 0.0000000e+00 
0.0000000e+00 -3.6570742e-05 0.0000000e+00 
0.0000000e+00 -5.7455320e-05 0.0000000e+00 
0.0000000e+00 -1.0180635e-03 0.0000000e+00 
0.0000000e+00 -2.4085524e-03 0.0000000e+00 
0.0000000e+00 -2.0267153e-03 0.0000000e+00 
0.0000000e+00 -4.0624788e-04 0.0000000e+00 
0.0000000e+00 2.2900576e-05 0.0000000e+00 
0.0000000e+00 -6.5835015e-06 0.0000000e+00 
0.0000000e+00 -3.2670581e-05 0.0000000e+00 
0.0000000e+00 -2.6243213e-05 0.0000000e+00 
0.0000000e+00 7.5783428e-05 0.0000000e+00 
0.0000000e+00 1.6194613e-04 0.0000000e+00 
0.0000000e+00 -9.2929765e-04 0.0000000e+00 
0.0000000e+00 -2.4393606e-03 0.0000000e+00 
0.0000000e+00 -2.2160211e-03 0.0000000e+00 
5.6840795e-06 -1.6298578e-06 -1.0881893e-06 
-2.1444474e-07 1.1058867e-05 3.8507787e-06 
-1.2101861e-05 1.4514841e-05 1.1093578e-05 
-7.8966987e-06 1.0894106e-05 1.2188846e-05 
9.2099244e-06 -4.9182022e-06 1.3824058e-05 
2.1314330e-05 1.1322547e-05 1.6019483e-05 
5.4833803e-05 -6.4011889e-05 -6.4690244e-07 
5.5251974e-05 -1.0577695e-04 -1.4881094e-05 
4.2238353e-05 -8.0296370e-05 -5.2541435e-07 
3.7580547e-05 -4.0064322e-05 2.1023736e-06 
2.1939127e-06 2.5420607e-06 -1.0609824e-05 
-6.2430827e-06 -5.0184221e-06 -1.1305446e-05 
-1.4043457e-05 -8.7992403e-06 -5.1902907e-06 
-9.6732556e-06 -3.7329592e-06 -9.2766932e-06 
6.6500556e-06 1.2855168e-05 -1.2006632e-06 
1.3703103e-05 4.3588036e-05 1.0509400e-05 
4.6624478e-05 -2.3145261e-05 1.0079801e-05 
5.2075415e-05 -1.0664080e-04 1.6912260e-05 
-7.0046910e-05 -1.1263014e-03 7.5400705e-05 
0.0000000e+00 0.0000000e+00 0.0000000e+00 
0.0000000e+00 0.0000000e+00 0.0000000e+00 
0.0000000e+00 0.0000000e+00 0.0000000e+00 
0.0000000e+00 0.0000000e+00 0.0000000e+00 
0.0000000e+00 0.0000000e+00 0.0000000e+00 
0.0000000e+00 0.0000000e+00 0.0000000e+00 
0.0000000e+00 0.0000000e+00 0.0000000e+00 
0.0000000e+00 0.0000000e+00 0.0000000e+00 
0.0000000e+00 0.0000000e+00 0.0000000e+00 
0.0000000e+00 0.0000000e+00 0.0000000e+00 
0.0000000e+00 0.0000000e+00 0.0000000e+00 
0.0000000e+00 0.0000000e+00 0.0000000e+00 
0.0000000e+00 0.0000000e+00 0.0000000e+00 
0.0000000e+00 0.0000000e+00 0.0000000e+00 
0.0000000e+00 0.0000000e+00 0.0000000e+00 
0.0000000e+00 0.0000000e+00 0.0000000e+00 
0.0000000e+00 0.0000000e+00 0.0000000e+00 
0.0000000e+00 0.0000000e+00 0.0000000e+00 
0.0000000e+00 0.0000000e+00 0.0000000e+00 
0.0000000e+00 0.0000000e+00 0.0000000e+00 
0.0000000e+00 0.0000000e+00 0.0000000e+00 
0.0000000e+00 0.0000000e+00 0.0000000e+00 
0.0000000e+00 0.0000000e+00 0.0000000e+00 
0.0000000e+00 0.0000000e+00 0.0000000e+00 
0.0000000e+00 0.0000000e+00 0.0000000e+00 
0.0000000e+00 0.0000000e+00 0.0000000e+00 
0.0000000e+00 0.0000000e+00 0.0000000e+00 
0.0000000e+00 0.0000000e+00 0.0000000e+00 
0.0000000e+00 0.0000000e+00 0.0000000e+00 
0.0000000e+00 0.0000000e+00 0.0000000e+00 
0.0000000e+00 0.0000000e+00 0.0000000e+00 
0.0000000e+00 0.0000000e+00 0.0000000e+00 
0.0000000e+00 0.0000000e+00 0.0000000e+00 
0.0000000e+00 0.0000000e+00 0.0000000e+00 
0.0000000e+00 0.0000000e+00 0.0000000e+00 
0.0000000e+00 0.0000000e+00 0.0000000e+00 
0.0000000e+00 0.0000000e+00 0.0000000e+00 
0.0000000e+00 0.0000000e+00 0.0000000e+00 
0.0000000e+00 0.0000000e+00 0.0000000e+00 
0.0000000e+00 0.0000000e+00 0.0000000e+00 
0.0000000e+00 0.0000000e+00 0.0000000e+00 
0.0000000e+00 0.0000000e+00 0.0000000e+00 
-2.9342252e-06 7.3597585e-07 1.7183072e-06 
1.1839903e-05 -7.3087690e-06 -5.8663986e-06 
2.4069977e-05 -8.2293745e-06 3.2379744e-06 
1.1852903e-06 -1.0882387e-06 -7.0608399e-07 
8.3812824e-07 -3.5158055e-07 1.6650824e-06 
-3.1567160e-06 -6.2321965e-07 8.3176582e-07 
-3.4977872e-06 -5.3263978e-08 -3.1270289e-07 
-2.0457621e-06 1.4650944e-06 -4.8684916e-07 
6.7571250e-06 -5.2754299e-06 -9.0492549e-06 