# vtk DataFile Version 4.0
vtk output
ASCII
DATASET UNSTRUCTURED_GRID
POINTS 621 float
0.0000000e+00 0.0000000e+00 0.0000000e+00 
0.0000000e+00 0.0000000e+00 4.0000000e+01 
5.0000000e+00 0.0000000e+00 0.0000000e+00 
5.0000000e+00 0.0000000e+00 4.0000000e+01 
5.0000000e+00 1.0000000e+00 0.0000000e+00 
5.0000000e+00 1.0000000e+00 4.0000000e+01 
0.0000000e+00 1.0000000e+00 0.0000000e+00 
0.0000000e+00 1.0000000e+00 4.0000000e+01 
5.0000000e+00 2.0000000e+00 0.0000000e+00 
5.0000000e+00 2.0000000e+00 4.0000000e+01 
3.0000000e+00 2.0000000e+00 0.0000000e+00 
3.0000000e+00 2.0000000e+00 4.0000000e+01 
0.0000000e+00 2.0000000e+00 0.0000000e+00 
0.0000000e+00 2.0000000e+00 4.0000000e+01 
1.5000000e+00 3.0000000e+00 0.0000000e+00 
1.5000000e+00 3.0000000e+00 4.0000000e+01 
7.5000000e-01 3.0000000e+00 0.0000000e+00 
7.5000000e-01 3.0000000e+00 4.0000000e+01 
0.0000000e+00 3.0000000e+00 0.0000000e+00 
0.0000000e+00 3.0000000e+00 4.0000000e+01 
7.5000000e-01 3.0000000e+00 5.0000000e-01 
7.5000000e-01 3.0000000e+00 1.0000000e+00 
7.5000000e-01 3.0000000e+00 1.5000000e+00 
7.5000000e-01 3.0000000e+00 2.0000000e+00 
7.5000000e-01 3.0000000e+00 2.5000000e+00 
7.5000000e-01 3.0000000e+00 3.0000000e+00 
7.5000000e-01 3.0000000e+00 3.5000000e+00 
7.5000000e-01 3.0000000e+00 4.0000000e+00 
7.5000000e-01 3.0000000e+00 4.5000000e+00 
7.5000000e-01 3.0000000e+00 5.0000000e+00 
7.5000000e-01 3.0000000e+00 5.5000000e+00 
7.5000000e-01 3.0000000e+00 6.0000000e+00 
7.5000000e-01 3.0000000e+00 6.5000000e+00 
7.5000000e-01 3.0000000e+00 7.0000000e+00 
7.5000000e-01 3.0000000e+00 7.5000000e+00 
7.5000000e-01 3.0000000e+00 8.0000000e+00 
7.5000000e-01 3.0000000e+00 8.5000000e+00 
7.5000000e-01 3.0000000e+00 9.0000000e+00 
7.5000000e-01 3.0000000e+00 9.5000000e+00 
7.5000000e-01 3.0000000e+00 1.0000000e+01 
7.5000000e-01 3.0000000e+00 1.0500000e+01 
7.5000000e-01 3.0000000e+00 1.1000000e+01 
7.5000000e-01 3.0000000e+00 1.1500000e+01 
7.5000000e-01 3.0000000e+00 1.2000000e+01 
7.5000000e-01 3.0000000e+00 1.2500000e+01 
7.5000000e-01 3.0000000e+00 1.3000000e+01 
7.5000000e-01 3.0000000e+00 1.3500000e+01 
7.5000000e-01 3.0000000e+00 1.4000000e+01 
7.5000000e-01 3.0000000e+00 1.4500000e+01 
7.5000000e-01 3.0000000e+00 1.5000000e+01 
7.5000000e-01 3.0000000e+00 1.5500000e+01 
7.5000000e-01 3.0000000e+00 1.6000000e+01 
7.5000000e-01 3.0000000e+00 1.6500000e+01 
7.5000000e-01 3.0000000e+00 1.7000000e+01 
7.5000000e-01 3.0000000e+00 1.7500000e+01 
7.5000000e-01 3.0000000e+00 1.8000000e+01 
7.5000000e-01 3.0000000e+00 1.8500000e+01 
7.5000000e-01 3.0000000e+00 1.9000000e+01 
7.5000000e-01 3.0000000e+00 1.9500000e+01 
7.5000000e-01 3.0000000e+00 2.0000000e+01 
7.5000000e-01 3.0000000e+00 2.0500000e+01 
7.5000000e-01 3.0000000e+00 2.1000000e+01 
7.5000000e-01 3.0000000e+00 2.1500000e+01 
7.5000000e-01 3.0000000e+00 2.2000000e+01 
7.5000000e-01 3.0000000e+00 2.2500000e+01 
7.5000000e-01 3.0000000e+00 2.3000000e+01 
7.5000000e-01 3.0000000e+00 2.3500000e+01 
7.5000000e-01 3.0000000e+00 2.4000000e+01 
7.5000000e-01 3.0000000e+00 2.4500000e+01 
7.5000000e-01 3.0000000e+00 2.5000000e+01 
7.5000000e-01 3.0000000e+00 2.5500000e+01 
7.5000000e-01 3.0000000e+00 2.6000000e+01 
7.5000000e-01 3.0000000e+00 2.6500000e+01 
7.5000000e-01 3.0000000e+00 2.7000000e+01 
7.5000000e-01 3.0000000e+00 2.7500000e+01 
7.5000000e-01 3.0000000e+00 2.8000000e+01 
7.5000000e-01 3.0000000e+00 2.8500000e+01 
7.5000000e-01 3.0000000e+00 2.9000000e+01 
7.5000000e-01 3.0000000e+00 2.9500000e+01 
7.5000000e-01 3.0000000e+00 3.0000000e+01 
7.5000000e-01 3.0000000e+00 3.0500000e+01 
7.5000000e-01 3.0000000e+00 3.1000000e+01 
7.5000000e-01 3.0000000e+00 3.1500000e+01 
7.5000000e-01 3.0000000e+00 3.2000000e+01 
7.5000000e-01 3.0000000e+00 3.2500000e+01 
7.5000000e-01 3.0000000e+00 3.3000000e+01 
7.5000000e-01 3.0000000e+00 3.3500000e+01 
7.5000000e-01 3.0000000e+00 3.4000000e+01 
7.5000000e-01 3.0000000e+00 3.4500000e+01 
7.5000000e-01 3.0000000e+00 3.5000000e+01 
7.5000000e-01 3.0000000e+00 3.5500000e+01 
7.5000000e-01 3.0000000e+00 3.6000000e+01 
7.5000000e-01 3.0000000e+00 3.6500000e+01 
7.5000000e-01 3.0000000e+00 3.7000000e+01 
7.5000000e-01 3.0000000e+00 3.7500000e+01 
7.5000000e-01 3.0000000e+00 3.8000000e+01 
7.5000000e-01 3.0000000e+00 3.8500000e+01 
7.5000000e-01 3.0000000e+00 3.9000000e+01 
7.5000000e-01 3.0000000e+00 3.9500000e+01 
7.5000000e-01 3.0250001e+00 0.0000000e+00 
7.5000000e-01 3.0250001e+00 5.0000000e-01 
7.5000000e-01 3.0250001e+00 1.0000000e+00 
7.5000000e-01 3.0250001e+00 1.5000000e+00 
7.5000000e-01 3.0250001e+00 2.0000000e+00 
7.5000000e-01 3.0250001e+00 2.5000000e+00 
7.5000000e-01 3.0250001e+00 3.0000000e+00 
7.5000000e-01 3.0250001e+00 3.5000000e+00 
7.5000000e-01 3.0250001e+00 4.0000000e+00 
7.5000000e-01 3.0250001e+00 4.5000000e+00 
7.5000000e-01 3.0250001e+00 5.0000000e+00 
7.5000000e-01 3.0250001e+00 5.5000000e+00 
7.5000000e-01 3.0250001e+00 6.0000000e+00 
7.5000000e-01 3.0250001e+00 6.5000000e+00 
7.5000000e-01 3.0250001e+00 7.0000000e+00 
7.5000000e-01 3.0250001e+00 7.5000000e+00 
7.5000000e-01 3.0250001e+00 8.0000000e+00 
7.5000000e-01 3.0250001e+00 8.5000000e+00 
7.5000000e-01 3.0250001e+00 9.0000000e+00 
7.5000000e-01 3.0250001e+00 9.5000000e+00 
7.5000000e-01 3.0250001e+00 1.0000000e+01 
7.5000000e-01 3.0250001e+00 1.0500000e+01 
7.5000000e-01 3.0250001e+00 1.1000000e+01 
7.5000000e-01 3.0250001e+00 1.1500000e+01 
7.5000000e-01 3.0250001e+00 1.2000000e+01 
7.5000000e-01 3.0250001e+00 1.2500000e+01 
7.5000000e-01 3.0250001e+00 1.3000000e+01 
7.5000000e-01 3.0250001e+00 1.3500000e+01 
7.5000000e-01 3.0250001e+00 1.4000000e+01 
7.5000000e-01 3.0250001e+00 1.4500000e+01 
7.5000000e-01 3.0250001e+00 1.5000000e+01 
7.5000000e-01 3.0250001e+00 1.5500000e+01 
7.5000000e-01 3.0250001e+00 1.6000000e+01 
7.5000000e-01 3.0250001e+00 1.6500000e+01 
7.5000000e-01 3.0250001e+00 1.7000000e+01 
7.5000000e-01 3.0250001e+00 1.7500000e+01 
7.5000000e-01 3.0250001e+00 1.8000000e+01 
7.5000000e-01 3.0250001e+00 1.8500000e+01 
7.5000000e-01 3.0250001e+00 1.9000000e+01 
7.5000000e-01 3.0250001e+00 1.9500000e+01 
7.5000000e-01 3.0250001e+00 2.0000000e+01 
7.5000000e-01 3.0250001e+00 2.0500000e+01 
7.5000000e-01 3.0250001e+00 2.1000000e+01 
7.5000000e-01 3.0250001e+00 2.1500000e+01 
7.5000000e-01 3.0250001e+00 2.2000000e+01 
7.5000000e-01 3.0250001e+00 2.2500000e+01 
7.5000000e-01 3.0250001e+00 2.3000000e+01 
7.5000000e-01 3.0250001e+00 2.3500000e+01 
7.5000000e-01 3.0250001e+00 2.4000000e+01 
7.5000000e-01 3.0250001e+00 2.4500000e+01 
7.5000000e-01 3.0250001e+00 2.5000000e+01 
7.5000000e-01 3.0250001e+00 2.5500000e+01 
7.5000000e-01 3.0250001e+00 2.6000000e+01 
7.5000000e-01 3.0250001e+00 2.6500000e+01 
7.5000000e-01 3.0250001e+00 2.7000000e+01 
7.5000000e-01 3.0250001e+00 2.7500000e+01 
7.5000000e-01 3.0250001e+00 2.8000000e+01 
7.5000000e-01 3.0250001e+00 2.8500000e+01 
7.5000000e-01 3.0250001e+00 2.9000000e+01 
7.5000000e-01 3.0250001e+00 2.9500000e+01 
7.5000000e-01 3.0250001e+00 3.0000000e+01 
7.5000000e-01 3.0250001e+00 3.0500000e+01 
7.5000000e-01 3.0250001e+00 3.1000000e+01 
7.5000000e-01 3.0250001e+00 3.1500000e+01 
7.5000000e-01 3.0250001e+00 3.2000000e+01 
7.5000000e-01 3.0250001e+00 3.2500000e+01 
7.5000000e-01 3.0250001e+00 3.3000000e+01 
7.5000000e-01 3.0250001e+00 3.3500000e+01 
7.5000000e-01 3.0250001e+00 3.4000000e+01 
7.5000000e-01 3.0250001e+00 3.4500000e+01 
7.5000000e-01 3.0250001e+00 3.5000000e+01 
7.5000000e-01 3.0250001e+00 3.5500000e+01 
7.5000000e-01 3.0250001e+00 3.6000000e+01 
7.5000000e-01 3.0250001e+00 3.6500000e+01 
7.5000000e-01 3.0250001e+00 3.7000000e+01 
7.5000000e-01 3.0250001e+00 3.7500000e+01 
7.5000000e-01 3.0250001e+00 3.8000000e+01 
7.5000000e-01 3.0250001e+00 3.8500000e+01 
7.5000000e-01 3.0250001e+00 3.9000000e+01 
7.5000000e-01 3.0250001e+00 3.9500000e+01 
7.5000000e-01 3.0250001e+00 4.0000000e+01 
3.0000000e+00 2.0000000e+00 3.6000000e+01 
8.0487806e-01 3.0000000e+00 3.6000000e+01 
0.0000000e+00 0.0000000e+00 2.0000000e+00 
0.0000000e+00 0.0000000e+00 4.0000000e+00 
0.0000000e+00 0.0000000e+00 6.0000000e+00 
0.0000000e+00 0.0000000e+00 8.0000000e+00 
0.0000000e+00 0.0000000e+00 1.0000000e+01 
0.0000000e+00 0.0000000e+00 1.2000000e+01 
0.0000000e+00 0.0000000e+00 1.4000000e+01 
0.0000000e+00 0.0000000e+00 1.6000000e+01 
0.0000000e+00 0.0000000e+00 1.8000000e+01 
0.0000000e+00 0.0000000e+00 2.0000000e+01 
0.0000000e+00 0.0000000e+00 2.2000000e+01 
0.0000000e+00 0.0000000e+00 2.4000000e+01 
0.0000000e+00 0.0000000e+00 2.6000000e+01 
0.0000000e+00 0.0000000e+00 2.8000000e+01 
0.0000000e+00 0.0000000e+00 3.0000000e+01 
0.0000000e+00 0.0000000e+00 3.2000000e+01 
0.0000000e+00 0.0000000e+00 3.4000000e+01 
0.0000000e+00 0.0000000e+00 3.6000000e+01 
0.0000000e+00 0.0000000e+00 3.8000000e+01 
5.0000000e+00 0.0000000e+00 2.0000000e+00 
5.0000000e+00 0.0000000e+00 4.0000000e+00 
5.0000000e+00 0.0000000e+00 6.0000000e+00 
5.0000000e+00 0.0000000e+00 8.0000000e+00 
5.0000000e+00 0.0000000e+00 1.0000000e+01 
5.0000000e+00 0.0000000e+00 1.2000000e+01 
5.0000000e+00 0.0000000e+00 1.4000000e+01 
5.0000000e+00 0.0000000e+00 1.6000000e+01 
5.0000000e+00 0.0000000e+00 1.8000000e+01 
5.0000000e+00 0.0000000e+00 2.0000000e+01 
5.0000000e+00 0.0000000e+00 2.2000000e+01 
5.0000000e+00 0.0000000e+00 2.4000000e+01 
5.0000000e+00 0.0000000e+00 2.6000000e+01 
5.0000000e+00 0.0000000e+00 2.8000000e+01 
5.0000000e+00 0.0000000e+00 3.0000000e+01 
5.0000000e+00 0.0000000e+00 3.2000000e+01 
5.0000000e+00 0.0000000e+00 3.4000000e+01 
5.0000000e+00 0.0000000e+00 3.6000000e+01 
5.0000000e+00 0.0000000e+00 3.8000000e+01 
1.6666666e+00 0.0000000e+00 0.0000000e+00 
3.3333333e+00 0.0000000e+00 0.0000000e+00 
1.6666666e+00 0.0000000e+00 4.0000000e+01 
3.3333333e+00 0.0000000e+00 4.0000000e+01 
5.0000000e+00 1.0000000e+00 2.0000000e+00 
5.0000000e+00 1.0000000e+00 4.0000000e+00 
5.0000000e+00 1.0000000e+00 6.0000000e+00 
5.0000000e+00 1.0000000e+00 8.0000000e+00 
5.0000000e+00 1.0000000e+00 1.0000000e+01 
5.0000000e+00 1.0000000e+00 1.2000000e+01 
[...]
POINT_DATA 621
FIELD FieldData 3
DISPLACEMENT 3 621  float
0.0000000e+00 0.0000000e+00 0.0000000e+00 
0.0000000e+00 0.0000000e+00 0.0000000e+00 
0.0000000e+00 0.0000000e+00 0.0000000e+00 
0.0000000e+00 0.0000000e+00 0.0000000e+00 
1.8549490e-07 -1.3984045e-06 2.6041671e-06 
3.5295998e-05 -3.3260963e-05 -2.8442184e-05 
0.0000000e+00 5.3874442e-06 0.0000000e+00 
0.0000000e+00 -1.5370002e-04 0.0000000e+00 
1.7536936e-06 -2.8510794e-06 3.2957786e-07 
5.7633846e-05 -7.4630298e-05 -1.1543153e-05 
3.7840218e-07 -5.6482520e-07 -1.1146763e-06 
2.4356495e-05 5.9730766e-08 2.3876247e-04 
0.0000000e+00 9.0144413e-06 0.0000000e+00 
0.0000000e+00 -8.6478255e-04 0.0000000e+00 
-2.4548503e-06 8.7685739e-06 -2.2827824e-05 
-2.2441517e-04 -1.3670402e-03 1.8033890e-04 
-6.9582711e-06 3.7657206e-05 -1.8240855e-05 
1.4543530e-04 -4.8954245e-03 3.3640684e-04 
0.0000000e+00 1.2562270e-05 0.0000000e+00 
0.0000000e+00 -2.4107695e-03 0.0000000e+00 
-7.2327985e-06 3.9682334e-05 -2.1939899e-05 
-5.5294940e-06 4.4655426e-05 -2.1095897e-05 
-2.5143831e-06 5.0048959e-05 -1.5211080e-05 
3.1764555e-06 5.3425374e-05 -4.1004937e-06 
6.5022614e-06 5.2632688e-05 8.4725152e-06 
1.1850290e-05 4.5575889e-05 2.0637082e-05 
1.0458334e-05 3.2149386e-05 2.9500412e-05 
8.9917330e-06 1.3593844e-05 3.2979722e-05 
7.9665269e-06 -8.3154646e-06 3.2333810e-05 
1.0404772e-05 -3.1482999e-05 3.0842762e-05 
1.4338701e-05 -5.3792035e-05 3.4017688e-05 
1.3600694e-05 -7.2665563e-05 3.8435948e-05 
3.3525748e-06 -8.5770786e-05 3.8878708e-05 
-8.0063828e-06 -9.1781512e-05 3.2089851e-05 
-1.2722711e-05 -8.9872832e-05 2.3171213e-05 
-1.5048840e-05 -8.1044804e-05 7.9717656e-06 
-1.8016939e-05 -6.5445514e-05 -1.1031363e-05 
-2.0319903e-05 -4.6482844e-05 -2.2779521e-05 
-2.0503790e-05 -2.6234353e-05 -2.6043605e-05 
-1.9896839e-05 -6.0326929e-06 -2.2730166e-05 
-1.3969277e-05 1.2753055e-05 -1.7242115e-05 
-9.4230554e-06 2.9569213e-05 -1.3165019e-05 
-3.2519984e-06 4.3844877e-05 -1.8593111e-05 
7.4024215e-06 5.5825123e-05 -2.4082736e-05 
1.7771070e-05 6.5556495e-05 -2.1892260e-05 
2.6214080e-05 7.3907417e-05 -1.4727270e-05 
3.2572403e-05 8.2189348e-05 -8.3604154e-06 
3.7428315e-05 9.1714915e-05 5.9786692e-07 
4.1561019e-05 1.0241527e-04 6.2145014e-06 
4.2253472e-05 1.0872567e-04 1.4951586e-05 
3.5169534e-05 9.9709447e-05 3.2961518e-05 
1.9809228e-05 4.7438283e-05 5.2283252e-05 
-2.4581226e-05 -8.8877809e-05 8.8814151e-05 
-4.0260220e-05 -3.5163030e-04 1.2136100e-04 
-6.7810186e-05 -8.0581004e-04 1.6575365e-04 
-1.2699592e-04 -1.4974136e-03 1.0688246e-04 
-2.8185020e-04 -2.4475311e-03 1.8433448e-04 
-2.9323000e-04 -3.4748558e-03 1.6194326e-04 
-1.8729953e-04 -4.2665899e-03 9.7685239e-05 
-1.5890712e-04 -4.2552096e-03 1.0940757e-04 
-2.8848564e-04 -4.0246109e-03 3.9241244e-05 
-3.5294879e-04 -3.9549433e-03 2.1682523e-05 
-2.3926825e-04 -4.1624079e-03 -1.4922682e-05 
-8.0687627e-05 -4.1524568e-03 -5.9822949e-05 
-1.0186606e-04 -3.4412285e-03 -1.5604102e-04 
-1.8947288e-04 -2.4015366e-03 -1.8301531e-04 
-1.7941874e-04 -1.4926564e-03 -1.7978299e-04 
-5.2344611e-05 -8.0291519e-04 -1.2064500e-04 
-1.3602051e-05 -3.6953026e-04 -1.4774100e-04 
3.5103994e-06 -1.2142457e-04 -1.0745284e-04 
4.9063005e-06 8.9395917e-06 -7.7760815e-05 
1.3739164e-05 6.7143468e-05 -4.5164488e-05 
1.0874391e-05 7.4187141e-05 -2.3969389e-05 
2.7632097e-06 4.9008679e-05 -7.5339990e-06 
-5.7173961e-06 9.4066791e-06 -5.4298062e-07 
-1.2535098e-05 -2.1981006e-05 -8.9622163e-06 
-1.4581538e-05 -3.7127145e-05 -2.9588507e-06 
-1.9440815e-05 -4.1133244e-05 -4.8209631e-06 
-2.2049513e-05 -2.7602244e-05 -3.0931731e-06 
-3.9979066e-05 3.9621791e-06 5.3650706e-06 
-2.8309469e-05 5.1547184e-05 -6.5347958e-06 
-4.7419090e-07 8.3417304e-05 -2.7883518e-05 
2.2179533e-05 7.4382275e-05 -5.8143545e-05 
6.6735469e-05 2.9626211e-05 -8.8410685e-05 
4.2437681e-05 -3.4864293e-05 -6.3398504e-05 
2.1896196e-05 -9.2487680e-05 4.5064971e-06 
-3.1884672e-05 -1.3493677e-04 7.5859396e-05 
-7.1205744e-05 -1.2907571e-04 1.7239399e-04 
4.4632132e-05 -4.4324654e-05 1.5524596e-04 
5.8954665e-05 1.0750072e-04 6.8094989e-05 
1.2929678e-04 3.1160357e-04 1.5136761e-05 
1.0889087e-04 4.5948810e-04 -2.5457392e-05 
1.7448563e-05 4.4848479e-04 -2.8213944e-05 
6.8982299e-05 1.9008538e-04 -9.9884899e-05 
2.1716495e-04 -4.0350977e-04 -2.2990120e-04 
-5.7230889e-05 -1.3357113e-03 2.4052470e-05 
-1.4662696e-04 -2.5037115e-03 1.6991892e-04 
-1.4197863e-04 -3.7115805e-03 1.2134865e-04 
8.3198494e-05 -4.5922017e-03 6.8929920e-05 
0.0000000e+00 3.7745081e-05 0.0000000e+00 
0.0000000e+00 3.9757284e-05 0.0000000e+00 
0.0000000e+00 4.4654582e-05 0.0000000e+00 
0.0000000e+00 5.0041603e-05 0.0000000e+00 
0.0000000e+00 5.3431781e-05 0.0000000e+00 
0.0000000e+00 5.2540447e-05 0.0000000e+00 
0.0000000e+00 4.5521851e-05 0.0000000e+00 
0.0000000e+00 3.2135755e-05 0.0000000e+00 
0.0000000e+00 1.3580565e-05 0.0000000e+00 
0.0000000e+00 -8.3191180e-06 0.0000000e+00 
0.0000000e+00 -3.1512733e-05 0.0000000e+00 
0.0000000e+00 -5.3792464e-05 0.0000000e+00 
0.0000000e+00 -7.2639734e-05 0.0000000e+00 
0.0000000e+00 -8.5764710e-05 0.0000000e+00 
0.0000000e+00 -9.1719688e-05 0.0000000e+00 
0.0000000e+00 -8.9919056e-05 0.0000000e+00 
0.0000000e+00 -8.0878832e-05 0.0000000e+00 
0.0000000e+00 -6.5513843e-05 0.0000000e+00 
0.0000000e+00 -4.6549063e-05 0.0000000e+00 
0.0000000e+00 -2.6243519e-05 0.0000000e+00 
0.0000000e+00 -6.0720772e-06 0.0000000e+00 
0.0000000e+00 1.2752350e-05 0.0000000e+00 
0.0000000e+00 2.9541663e-05 0.0000000e+00 
0.0000000e+00 4.3866752e-05 0.0000000e+00 
0.0000000e+00 5.5797638e-05 0.0000000e+00 
0.0000000e+00 6.5550616e-05 0.0000000e+00 
0.0000000e+00 7.3926094e-05 0.0000000e+00 
0.0000000e+00 8.2258877e-05 0.0000000e+00 
0.0000000e+00 9.1959933e-05 0.0000000e+00 
0.0000000e+00 1.0271683e-04 0.0000000e+00 
0.0000000e+00 1.0968341e-04 0.0000000e+00 
0.0000000e+00 1.0041230e-04 0.0000000e+00 
0.0000000e+00 4.7619971e-05 0.0000000e+00 
0.0000000e+00 -8.7667286e-05 0.0000000e+00 
0.0000000e+00 -3.5227500e-04 0.0000000e+00 
0.0000000e+00 -8.0737908e-04 0.0000000e+00 
0.0000000e+00 -1.5071355e-03 0.0000000e+00 
0.0000000e+00 -2.4554932e-03 0.0000000e+00 
0.0000000e+00 -3.5081382e-03 0.0000000e+00 
0.0000000e+00 -4.2915558e-03 0.0000000e+00 
0.0000000e+00 -4.2868210e-03 0.0000000e+00 
0.0000000e+00 -4.0388042e-03 0.0000000e+00 
0.0000000e+00 -3.9856285e-03 0.0000000e+00 
0.0000000e+00 -4.1821338e-03 0.0000000e+00 
0.0000000e+00 -4.1865264e-03 0.0000000e+00 
0.0000000e+00 -3.4589684e-03 0.0000000e+00 
0.0000000e+00 -2.4194559e-03 0.0000000e+00 
0.0000000e+00 -1.4949534e-03 0.0000000e+00 
0.0000000e+00 -8.0760673e-04 0.0000000e+00 
0.0000000e+00 -3.6947962e-04 0.0000000e+00 
0.0000000e+00 -1.2016374e-04 0.0000000e+00 
0.0000000e+00 1.0420777e-05 0.0000000e+00 
0.0000000e+00 6.7640161e-05 0.0000000e+00 
0.0000000e+00 7.4202508e-05 0.0000000e+00 
0.0000000e+00 4.8451842e-05 0.0000000e+00 
0.0000000e+00 1.0009723e-05 0.0000000e+00 
0.0000000e+00 -2.1154670e-05 0.0000000e+00 
0.0000000e+00 -3.7606398e-05 0.0000000e+00 
0.0000000e+00 -4.1006282e-05 0.0000000e+00 
0.0000000e+00 -2.7529171e-05 0.0000000e+00 
0.0000000e+00 5.6172025e-06 0.0000000e+00 
0.0000000e+00 5.1489271e-05 0.0000000e+00 
0.0000000e+00 8.1899765e-05 0.0000000e+00 
0.0000000e+00 7.3701514e-05 0.0000000e+00 
0.0000000e+00 2.8770988e-05 0.0000000e+00 
0.0000000e+00 -3.4051434e-05 0.0000000e+00 
0.0000000e+00 -9.3261224e-05 0.0000000e+00 
0.0000000e+00 -1.3469564e-04 0.0000000e+00 
0.0000000e+00 -1.2751478e-04 0.0000000e+00 
0.0000000e+00 -4.4317061e-05 0.0000000e+00 
0.0000000e+00 1.1244343e-04 0.0000000e+00 
0.0000000e+00 3.1176457e-04 0.0000000e+00 
0.0000000e+00 4.5920539e-04 0.0000000e+00 
0.0000000e+00 4.4932068e-04 0.0000000e+00 
0.0000000e+00 1.8598640e-04 0.0000000e+00 
0.0000000e+00 -4.0958289e-04 0.0000000e+00 
0.0000000e+00 -1.3408610e-03 0.0000000e+00 
0.0000000e+00 -2.5123954e-03 0.0000000e+00 
0.0000000e+00 -3.7405123e-03 0.0000000e+00 
0.0000000e+00 -4.6521868e-03 0.0000000e+00 
0.0000000e+00 -4.9071712e-03 0.0000000e+00 
-2.8052376e-05 -1.6207589e-06 9.5720592e-05 
7.6965778e-05 4.0792063e-04 2.2519985e-06 
0.0000000e+00 0.0000000e+00 0.0000000e+00 
0.0000000e+00 0.0000000e+00 0.0000000e+00 
0.0000000e+00 0.0000000e+00 0.0000000e+00 
0.0000000e+00 0.0000000e+00 0.0000000e+00 
0.0000000e+00 0.0000000e+00 0.0000000e+00 
0.0000000e+00 0.0000000e+00 0.0000000e+00 
0.0000000e+00 0.0000000e+00 0.0000000e+00 
0.0000000e+00 0.0000000e+00 0.0000000e+00 
0.0000000e+00 0.0000000e+00 0.0000000e+00 
0.0000000e+00 0.0000000e+00 0.0000000e+00 
0.0000000e+00 0.0000000e+00 0.0000000e+00 
0.0000000e+00 0.0000000e+00 0.0000000e+00 
0.0000000e+00 0.0000000e+00 0.0000000e+00 
0.0000000e+00 0.0000000e+00 0.0000000e+00 
0.0000000e+00 0.0000000e+00 0.0000000e+00 
0.0000000e+00 0.0000000e+00 0.0000000e+00 
0.0000000e+00 0.0000000e+00 0.0000000e+00 
0.0000000e+00 0.0000000e+00 0.0000000e+00 
0.0000000e+00 0.0000000e+00 0.0000000e+00 
0.0000000e+00 0.0000000e+00 0.0000000e+00 
0.0000000e+00 0.0000000e+00 0.0000000e+00 
0.0000000e+00 0.0000000e+00 0.0000000e+00 
0.0000000e+00 0.0000000e+00 0.0000000e+00 
0.0000000e+00 0.0000000e+00 0.0000000e+00 
0.0000000e+00 0.0000000e+00 0.0000000e+00 
0.0000000e+00 0.0000000e+00 0.0000000e+00 
0.0000000e+00 0.0000000e+00 0.0000000e+00 
0.0000000e+00 0.0000000e+00 0.0000000e+00 
0.0000000e+00 0.0000000e+00 0.0000000e+00 
0.0000000e+00 0.0000000e+00 0.0000000e+00 
0.0000000e+00 0.0000000e+00 0.0000000e+00 
0.0000000e+00 0.0000000e+00 0.0000000e+00 
0.0000000e+00 0.0000000e+00 0.0000000e+00 
0.0000000e+00 0.0000000e+00 0.0000000e+00 
0.0000000e+00 0.0000000e+00 0.0000000e+00 
0.0000000e+00 0.0000000e+00 0.0000000e+00 
0.0000000e+00 0.0000000e+00 0.0000000e+00 
0.0000000e+00 0.0000000e+00 0.0000000e+00 
0.0000000e+00 0.0000000e+00 0.0000000e+00 
0.0000000e+00 0.0000000e+00 0.0000000e+00 
0.0000000e+00 0.0000000e+00 0.0000000e+00 
0.0000000e+00 0.0000000e+00 0.0000000e+00 
-2.9677340e-06 2.3076889e-06 1.6186773e-06 
-2.9103594e-06 2.9033363e-06 -1.2770912e-06 
1.9385513e-06 -4.2486676e-07 1.2796157e-06 
4.3081923e-06 -2.7581771e-06 3.8819808e-06 
-1.7866834e-06 -2.5876350e-06 6.7283231e-06 
-8.2930937e-06 6.2312836e-07 1.5788354e-06 
-4.2837814e-06 8.0309974e-07 -6.6308489e-06 
1.0834148e-05 -2.9552691e-06 -1.1417796e-05 
3.5392070e-05 -7.5635257e-06 -1.3126003e-05 
5.2201667e-05 -7.0909095e-06 -3.2949365e-06 
4.5262939e-05 -4.4399453e-06 7.9882393e-06 
2.1311218e-05 -2.9067603e-06 4.7920053e-06 
5.4760817e-06 -1.7089657e-06 2.9980222e-06 
-8.2626121e-07 2.7894612e-06 2.0491759e-06 
6.3076692e-07 -3.2466087e-06 6.1680917e-06 
-2.4472633e-05 -6.1467777e-06 7.0432711e-06 
1.3821235e-05 3.8243466e-05 -1.4908292e-05 
-1.8192048e-05 -2.7930600e-05 3.5260913e-05 
-4.9073744e-05 -1.6454956e-05 4.2005780e-05 
0.0000000e+00 1.7918152e-05 0.0000000e+00 
0.0000000e+00 6.4953351e-06 0.0000000e+00 
0.0000000e+00 -1.9747900e-05 0.0000000e+00 
0.0000000e+00 -2.7619835e-05 0.0000000e+00 
0.0000000e+00 -7.3329920e-07 0.0000000e+00 
0.0000000e+00 1.6042562e-05 0.0000000e+00 
0.0000000e+00 2.8724769e-05 0.0000000e+00 
0.0000000e+00 -3.7575232e-06 0.0000000e+00 
0.0000000e+00 -2.3202987e-04 0.0000000e+00 
0.0000000e+00 -5.6436157e-04 0.0000000e+00 
0.0000000e+00 -5.0846481e-04 0.0000000e+00 
0.0000000e+00 -1.5029706e-04 0.0000000e+00 
0.0000000e+00 -6.4883620e-06 0.0000000e+00 
0.0000000e+00 1.3813479e-05 0.0000000e+00 
0.0000000e+00 -3.8785543e-05 0.0000000e+00 
0.0000000e+00 8.5113461e-05 0.0000000e+00 
0.0000000e+00 -1.3082464e-04 0.0000000e+00 
0.0000000e+00 2.6323716e-04 0.0000000e+00 
0.0000000e+00 7.4611307e-05 0.0000000e+00 
-1.4317884e-06 -3.5171823e-07 2.4850285e-06 
-1.5133792e-06 3.0701376e-06 2.5116221e-06 
-3.1031741e-05 -3.7266764e-05 1.2606013e-04 
-2.5102563e-05 -3.5623434e-05 5.8745984e-05 
-9.6363829e-07 2.1370240e-06 9.9141880e-07 
-3.4429704e-06 3.0102124e-06 6.9934816e-07 
1.2265650e-07 1.2687323e-07 4.1389185e-06 
1.9860761e-06 -3.2619532e-06 6.0743996e-06 
-2.1535807e-06 -4.9647574e-06 5.7102052e-06 
-6.6630992e-06 9.6496763e-07 8.1240600e-08 
-2.3209916e-06 2.1392277e-06 -9.6206322e-06 
2.1339667e-05 -2.8574980e-06 -1.3940539e-05 
3.3844564e-05 -5.7845068e-06 -6.9370385e-06 
3.5774188e-05 -5.5327646e-06 -2.1350659e-06 
2.5875117e-05 -1.4902022e-06 7.2648622e-06 
1.2526456e-05 4.1491859e-07 -1.9113297e-06 
5.0485337e-06 -1.6799731e-06 3.0515450e-06 
5.4950146e-06 9.1173419e-08 -6.4213526e-07 
-1.3745785e-05 -8.4993144e-07 1.0811162e-05 
2.0246494e-05 -1.6968439e-05 -1.5376321e-05 
-2.9268496e-05 4.8531521e-05 1.8059507e-05 
-4.3415563e-05 -5.0532275e-05 2.2642795e-05 
-2.5962592e-05 -4.7869915e-05 3.9781102e-05 
-1.1754895e-06 8.7602139e-06 -2.9713276e-06 
0.0000000e+00 3.5318080e-05 0.0000000e+00 
0.0000000e+00 1.2986095e-05 0.0000000e+00 
0.0000000e+00 -3.7829624e-05 0.0000000e+00 
0.0000000e+00 -5.0940700e-05 0.0000000e+00 
0.0000000e+00 5.2553355e-07 0.0000000e+00 
0.0000000e+00 2.9572540e-05 0.0000000e+00 
0.0000000e+00 5.2168161e-05 0.0000000e+00 
0.0000000e+00 5.7586940e-06 0.0000000e+00 
0.0000000e+00 -4.8525966e-04 0.0000000e+00 
0.0000000e+00 -1.2489464e-03 0.0000000e+00 
0.0000000e+00 -1.1312496e-03 0.0000000e+00 
0.0000000e+00 -2.7992649e-04 0.0000000e+00 
0.0000000e+00 -3.4621235e-07 0.0000000e+00 
0.0000000e+00 3.0690226e-06 0.0000000e+00 
0.0000000e+00 -4.8627873e-05 0.0000000e+00 
0.0000000e+00 1.4860876e-04 0.0000000e+00 
0.0000000e+00 -2.8284671e-04 0.0000000e+00 
0.0000000e+00 4.6642235e-04 0.0000000e+00 
0.0000000e+00 3.6430214e-05 0.0000000e+00 
1.3638694e-04 -2.0479775e-04 7.5487631e-05 
9.1576531e-08 4.3373584e-05 -8.8801899e-06 
1.0197225e-05 5.3846493e-06 4.6506353e-05 
1.3604489e-05 -5.9203823e-05 4.9384293e-05 
-2.2454988e-05 -5.9454651e-05 4.1855315e-06 
-2.4912191e-05 -6.4776850e-06 -2.8030348e-05 
5.0059566e-06 4.3196556e-05 -4.6953523e-05 
5.9146219e-05 4.2116379e-05 1.1011236e-06 
4.0297629e-05 6.5607936e-05 8.1447535e-05 
-2.9159366e-04 -4.5986031e-04 3.0589534e-04 
-7.2618644e-04 -1.3937171e-03 1.0237040e-04 
-6.2557223e-04 -1.4117410e-03 -1.5577252e-04 
-1.2156138e-04 -2.4138487e-04 -2.4893376e-04 
2.9492005e-05 1.2631130e-05 -4.7713740e-05 
-2.1889449e-05 1.4167797e-05 -7.1568970e-06 
-1.0101777e-06 -9.7300035e-05 8.8979568e-06 
-5.1650328e-05 2.1559715e-04 -1.3879352e-04 
1.4412373e-04 -3.1219039e-04 2.3142790e-04 
-3.8918355e-05 1.5029896e-04 1.4687424e-05 
7.3144962e-05 3.6816491e-04 1.3017477e-04 
0.0000000e+00 5.0533668e-05 0.0000000e+00 
0.0000000e+00 1.8538101e-05 0.0000000e+00 
0.0000000e+00 -6.5398512e-05 0.0000000e+00 
0.0000000e+00 -7.1038383e-05 0.0000000e+00 
0.0000000e+00 2.9842035e-06 0.0000000e+00 
0.0000000e+00 4.2320786e-05 0.0000000e+00 
0.0000000e+00 7.1953946e-05 0.0000000e+00 
0.0000000e+00 5.0024100e-05 0.0000000e+00 
0.0000000e+00 -9.0354733e-04 0.0000000e+00 
0.0000000e+00 -2.4185868e-03 0.0000000e+00 
0.0000000e+00 -2.1548443e-03 0.0000000e+00 
0.0000000e+00 -4.7996151e-04 0.0000000e+00 
0.0000000e+00 3.4321729e-05 0.0000000e+00 
0.0000000e+00 8.3662616e-07 0.0000000e+00 
0.0000000e+00 -5.8663763e-06 0.0000000e+00 
0.0000000e+00 2.7631559e-05 0.0000000e+00 
0.0000000e+00 -2.2345678e-04 0.0000000e+00 
0.0000000e+00 3.7947187e-04 0.0000000e+00 
0.0000000e+00 -3.1051075e-04 0.0000000e+00 
-4.0203608e-06 1.1486545e-05 -2.9230050e-06 
-6.0295315e-07 2.1639582e-06 6.0580464e-06 
3.1775514e-06 -1.4675875e-05 1.2500773e-05 
-4.1478615e-06 -1.8262926e-05 5.4075990e-06 
-1.3444341e-05 -2.4259230e-06 2.6408071e-07 
-6.7119117e-06 1.0491380e-05 -7.6036285e-06 
1.0740591e-05 1.3382031e-05 -1.3871952e-06 
2.5409574e-05 3.0568088e-05 1.1514793e-05 
5.6684723e-05 -5.1275805e-05 2.6499931e-06 
5.2653104e-05 -1.0455326e-04 -9.4051411e-06 
3.9352417e-05 -9.8134886e-05 -2.6185990e-08 
3.8977574e-05 -5.0621049e-05 -2.3219875e-06 
3.5087762e-06 2.1203696e-06 -8.8014813e-06 
-4.1111680e-06 1.3221426e-05 -5.7736547e-06 
-2.6806440e-05 -4.6860554e-05 3.1292795e-06 
5.1155394e-06 1.1523425e-04 -2.2479162e-05 
-3.6834103e-05 -1.1962283e-04 7.9862868e-05 
2.9370052e-05 2.0069875e-04 1.0297393e-04 
-1.1577235e-04 7.7066921e-05 7.0860384e-05 
0.0000000e+00 0.0000000e+00 0.0000000e+00 
0.0000000e+00 0.0000000e+00 0.0000000e+00 
0.0000000e+00 0.0000000e+00 0.0000000e+00 
0.0000000e+00 0.0000000e+00 0.0000000e+00 
0.0000000e+00 0.0000000e+00 0.0000000e+00 
0.0000000e+00 0.0000000e+00 0.0000000e+00 
0.0000000e+00 0.0000000e+00 0.0000000e+00 
0.0000000e+00 0.0000000e+00 0.0000000e+00 
0.0000000e+00 0.0000000e+00 0.0000000e+00 
0.0000000e+00 0.0000000e+00 0.0000000e+00 
0.0000000e+00 0.0000000e+00 0.0000000e+00 
0.0000000e+00 0.0000000e+00 0.0000000e+00 
0.0000000e+00 0.0000000e+00 0.0000000e+00 
0.0000000e+00 0.0000000e+00 0.0000000e+00 
0.0000000e+00 0.0000000e+00 0.0000000e+00 
0.0000000e+00 0.0000000e+00 0.0000000e+00 
0.0000000e+00 0.0000000e+00 0.0000000e+00 
0.0000000e+00 0.0000000e+00 0.0000000e+00 
0.0000000e+00 0.0000000e+00 0.0000000e+00 
0.0000000e+00 0.0000000e+00 0.0000000e+00 
0.0000000e+00 0.0000000e+00 0.0000000e+00 
0.0000000e+00 0.0000000e+00 0.0000000e+00 
0.0000000e+00 0.0000000e+00 0.0000000e+00 
0.0000000e+00 0.0000000e+00 0.0000000e+00 
0.0000000e+00 0.0000000e+00 0.0000000e+00 
0.0000000e+00 0.0000000e+00 0.0000000e+00 
0.0000000e+00 0.0000000e+00 0.0000000e+00 
0.0000000e+00 0.0000000e+00 0.0000000e+00 
0.0000000e+00 0.0000000e+00 0.0000000e+00 
0.0000000e+00 0.0000000e+00 0.0000000e+00 
0.0000000e+00 0.0000000e+00 0.0000000e+00 
0.0000000e+00 0.0000000e+00 0.0000000e+00 
0.0000000e+00 0.0000000e+00 0.0000000e+00 
0.0000000e+00 0.0000000e+00 0.0000000e+00 
0.0000000e+00 0.0000000e+00 0.0000000e+00 
0.0000000e+00 0.0000000e+00 0.0000000e+00 
0.0000000e+00 0.0000000e+00 0.0000000e+00 
0.0000000e+00 0.0000000e+00 0.0000000e+00 
0.0000000e+00 0.0000000e+00 0.0000000e+00 
0.0000000e+00 0.0000000e+00 0.0000000e+00 
0.0000000e+00 0.0000000e+00 0.0000000e+00 
0.0000000e+00 0.0000000e+00 0.0000000e+00 
-1.5304601e-06 7.2258149e-07 1.8977732e-06 
-3.5689213e-06 -5.7189467e-08 -1.4535949e-06 
2.7063659e-05 -9.8969422e-06 -4.4729441e-06 
2.0450712e-05 -8.1287062e-06 3.1827717e-06 
5.9384251e-06 -2.5685827e-06 1.5278712e-06 
2.5961867e-07 -2.0270399e-07 8.6766630e-07 
2.1848889e-06 1.6832070e-06 2.2426025e-06 
-9.1418751e-06 -4.0207306e-07 6.7668807e-06 
-7.0389042e-06 7.3105393e-06 5.5744740e-06 
6.9178809e-06 6.8159184e-06 -6.3472016e-06 
-2.6206280e-05 -3.0418551e-06 2.8353572e-05 
-1.9522744e-05 -5.8072687e-06 5.4175935e-06 
-2.1577598e-06 1.6255362e-06 3.9467466e-07 
-2.8906942e-07 7.5611320e-07 -6.2161274e-07 
2.7717656e-06 -1.7260334e-06 1.5401819e-06 
1.8057323e-06 -9.8027965e-07 3.0057727e-06 
-3.4398709e-06 5.7421936e-08 2.3638408e-06 
1.1925249e-06 -2.4964291e-07 -3.0167687e-06 
9.6848644e-06 -7.0282681e-06 -7.8645617e-06 
2.4949184e-05 -8.3606783e-06 2.3073928e-06 
-4.4167055e-06 8.7315530e-06 1.8802236e-08 
-3.5607616e-05 1.0846552e-04 2.8538729e-05 
2.5802815e-06 -4.3562131e-06 3.8360486e-06 
-2.8298412e-06 -5.5194396e-06 5.4646666e-06 
-3.6899419e-06 5.4364273e-06 -1.9688280e-06 
3.6437308e-05 1.0797949e-05 -1.5019589e-05 
8.6452128e-05 -2.2943643e-05 4.0713905e-07 
2.0994519e-05 -1.4484053e-06 1.2057600e-05 
-3.8958810e-06 -1.3875315e-05 -5.1651650e-06 
1.2463042e-05 1.3842854e-05 -3.7915870e-05 
2.5718309e-06 -2.2099777e-05 5.4202915e-06 
-7.3119709e-06 6.5444715e-06 3.9645761e-06 
1.4394816e-05 1.5304988e-05 -3.3962654e-06 
1.1704288e-04 -2.3973183e-04 -4.0001516e-05 
9.0605790e-05 -1.9683485e-04 4.1998988e-05 
2.8504569e-06 2.0085577e-07 7.7461573e-07 
-3.6051340e-06 2.6798931e-05 1.0231587e-05 
4.9405057e-06 -8.2783474e-05 4.2026302e-05 
-3.7138489e-05 2.5256790e-04 6.0678340e-05 
-4.1152907e-06 4.6735909e-06 -1.9556230e-06 
-6.7242087e-05 2.3372209e-05 8.9655987e-05 
-2.5978129e-06 1.3787644e-05 -3.1181858e-07 
3.6109730e-06 -6.7244227e-06 4.6473297e-06 
-7.4878540e-06 1.0988400e-06 2.4901387e-06 
7.0834403e-06 7.9987085e-06 -1.3897286e-06 
5.3537424e-05 -1.9155506e-05 -9.2476084e-06 
4.0698633e-05 -2.0239484e-05 5.9066938e-06 
3.4139731e-07 1.9515905e-06 9.1847124e-07 
-1.6484637e-05 6.7139845e-06 1.2451687e-05 