# vtk DataFile Version 4.0
vtk output
ASCII
DATASET UNSTRUCTURED_GRID
POINTS 46 float
0.0000000e+00 0.0000000e+00 0.0000000e+00 
1.0000000e+00 0.0000000e+00 0.0000000e+00 
1.0000000e+00 1.0000000e+01 0.0000000e+00 
0.0000000e+00 1.0000000e+01 0.0000000e+00 
0.0000000e+00 0.0000000e+00 1.0000000e+00 
1.0000000e+00 0.0000000e+00 1.0000000e+00 
1.0000000e+00 1.0000000e+01 1.0000000e+00 
0.0000000e+00 1.0000000e+01 1.0000000e+00 
1.0000000e+00 2.0000000e+00 0.0000000e+00 
1.0000000e+00 4.0000000e+00 0.0000000e+00 
1.0000000e+00 6.0000000e+00 0.0000000e+00 
1.0000000e+00 8.0000000e+00 0.0000000e+00 
0.0000000e+00 8.0000000e+00 0.0000000e+00 
0.0000000e+00 6.0000000e+00 0.0000000e+00 
0.0000000e+00 4.0000000e+00 0.0000000e+00 
0.0000000e+00 2.0000000e+00 0.0000000e+00 
1.0000000e+00 2.0000000e+00 1.0000000e+00 
1.0000000e+00 4.0000000e+00 1.0000000e+00 
1.0000000e+00 6.0000000e+00 1.0000000e+00 
1.0000000e+00 8.0000000e+00 1.0000000e+00 
0.0000000e+00 8.0000000e+00 1.0000000e+00 
0.0000000e+00 6.0000000e+00 1.0000000e+00 
0.0000000e+00 4.0000000e+00 1.0000000e+00 
0.0000000e+00 2.0000000e+00 1.0000000e+00 
5.0000000e-01 9.0000000e+00 0.0000000e+00 
5.0000000e-01 7.0000000e+00 0.0000000e+00 
5.0000000e-01 1.0000000e+00 0.0000000e+00 
5.0000000e-01 3.0000000e+00 0.0000000e+00 
5.0000000e-01 5.0000000e+00 0.0000000e+00 
5.0000000e-01 0.0000000e+00 5.0000000e-01 
1.0000000e+00 9.0000000e+00 5.0000000e-01 
1.0000000e+00 5.0000000e+00 5.0000000e-01 
1.0000000e+00 1.0000000e+00 5.0000000e-01 
1.0000000e+00 3.0000000e+00 5.0000000e-01 
1.0000000e+00 7.0000000e+00 5.0000000e-01 
5.0000000e-01 1.0000000e+01 5.0000000e-01 
0.0000000e+00 9.0000000e+00 5.0000000e-01 
0.0000000e+00 1.0000000e+00 5.0000000e-01 
0.0000000e+00 7.0000000e+00 5.0000000e-01 
0.0000000e+00 5.0000000e+00 5.0000000e-01 
0.0000000e+00 3.0000000e+00 5.0000000e-01 
5.0000000e-01 9.0000000e+00 1.0000000e+00 
5.0000000e-01 1.0000000e+00 1.0000000e+00 
5.0000000e-01 3.0000000e+00 1.0000000e+00 
5.0000000e-01 5.0000000e+00 1.0000000e+00 
5.0000000e-01 7.0000000e+00 1.0000000e+00 

CELLS 100 500
4 38 13 12 25
4 27 9 33 8
4 40 27 15 14
4 36 7 20 41
4 3 12 24 36
4 21 22 39 44
4 40 22 23 43
4 37 23 4 42
4 14 13 39 28
4 5 32 42 16
4 17 31 44 18
4 38 20 21 45
4 18 45 19 34
4 41 6 19 30
4 17 16 43 33
4 24 30 11 2
4 31 10 9 28
4 25 11 34 10
4 0 15 37 26
4 8 32 26 1
4 41 24 36 35
4 30 24 41 35
4 37 32 29 26
4 32 37 29 42
4 43 27 17 33
4 34 38 13 45
4 22 40 27 43
4 23 27 40 43
4 38 19 34 25
4 42 37 23 32
4 31 44 13 28
4 9 39 44 28
4 27 43 16 33
4 19 45 38 34
4 38 34 13 25
4 44 31 9 28
4 24 41 19 30
4 41 24 19 36
4 44 39 13 28
4 32 37 23 26
4 43 23 27 16
4 40 15 27 23
4 10 31 13 28
4 33 16 27 8
4 44 31 17 9
4 14 40 27 22
4 44 14 39 9
4 41 20 36 19
4 13 21 39 44
4 39 22 14 44
4 38 20 45 19
4 11 34 19 25
4 31 13 44 18
4 27 22 43 17
4 32 23 42 16
4 9 14 39 28
4 18 45 34 10
4 21 13 38 45
4 34 13 10 45
4 19 36 24 11
4 12 24 36 11
4 30 19 24 11
4 19 38 12 25
4 34 13 25 10
4 9 17 27 33
4 26 15 32 8
4 37 15 23 26
4 32 23 15 26
4 24 3 36 35
4 42 4 37 29
4 41 6 30 35
4 26 32 29 1
4 42 29 32 5
4 35 30 24 2
4 36 7 41 35
4 29 0 37 26
4 22 27 14 17
4 11 19 12 25
4 20 12 36 19
4 13 21 44 18
4 45 18 13 10
4 18 31 13 10
4 23 15 27 16
4 14 17 44 22
4 17 14 44 9
4 17 27 14 9
4 13 21 18 45
4 20 38 12 19
4 19 12 36 11
4 15 16 32 8
4 16 15 32 23
4 16 15 27 8
4 0 37 4 29
4 6 41 7 35
4 29 42 4 5
4 29 32 5 1
4 24 3 35 2
4 7 36 3 35
4 6 30 35 2
4 26 29 0 1

CELL_TYPES 100
10
10
10
10
10
10
10
10
10
10
10
10
10
10
10
10
10
10
10
10
10
10
10
10
10
10
10
10
10
10
10
10
10
10
10
10
10
10
10
10
10
10
10
10
10
10
10
10
10
10
10
10
10
10
10
10
10
10
10
10
10
10
10
10
10
10
10
10
10
10
10
10
10
10
10
10
10
10
10
10
10
10
10
10
10
10
10
10
10
10
10
10
10
10
10
10
10
10
10
10
POINT_DATA 46
FIELD FieldData 2
DISPLACEMENT 3 46  float
0.0000000e+00 -3.3064227e-06 0.0000000e+00 
0.0000000e+00 -3.3064248e-06 0.0000000e+00 
0.0000000e+00 -4.2131001e-06 0.0000000e+00 
0.0000000e+00 -4.2130928e-06 0.0000000e+00 
0.0000000e+00 -3.3064114e-06 0.0000000e+00 
0.0000000e+00 -3.3064180e-06 0.0000000e+00 
0.0000000e+00 -4.2131064e-06 0.0000000e+00 
0.0000000e+00 -4.2130955e-06 0.0000000e+00 
0.0000000e+00 -3.4888853e-06 0.0000000e+00 
0.0000000e+00 -3.6706028e-06 0.0000000e+00 
0.0000000e+00 -3.8520079e-06 0.0000000e+00 
0.0000000e+00 -4.0329746e-06 0.0000000e+00 
0.0000000e+00 -4.0328950e-06 0.0000000e+00 
0.0000000e+00 -3.8520297e-06 0.0000000e+00 
0.0000000e+00 -3.6706347e-06 0.0000000e+00 
0.0000000e+00 -3.4888615e-06 0.0000000e+00 
0.0000000e+00 -3.4888437e-06 0.0000000e+00 
0.0000000e+00 -3.6705865e-06 0.0000000e+00 
0.0000000e+00 -3.8519884e-06 0.0000000e+00 
0.0000000e+00 -4.0330233e-06 0.0000000e+00 
0.0000000e+00 -4.0329842e-06 0.0000000e+00 
0.0000000e+00 -3.8520143e-06 0.0000000e+00 
0.0000000e+00 -3.6706301e-06 0.0000000e+00 
0.0000000e+00 -3.4888508e-06 0.0000000e+00 
0.0000000e+00 -4.1230214e-06 0.0000000e+00 
0.0000000e+00 -3.9424826e-06 0.0000000e+00 
0.0000000e+00 -3.3977324e-06 0.0000000e+00 
0.0000000e+00 -3.5798289e-06 0.0000000e+00 
0.0000000e+00 -3.7613552e-06 0.0000000e+00 
-7.9460060e-13 -3.3064250e-06 2.3211951e-12 
0.0000000e+00 -4.1230637e-06 0.0000000e+00 
0.0000000e+00 -3.7613477e-06 0.0000000e+00 
0.0000000e+00 -3.3977278e-06 0.0000000e+00 
0.0000000e+00 -3.5797896e-06 0.0000000e+00 
0.0000000e+00 -3.9424895e-06 0.0000000e+00 
-5.5444256e-12 -4.2131028e-06 -7.7263082e-13 
0.0000000e+00 -4.1230310e-06 0.0000000e+00 
0.0000000e+00 -3.3977174e-06 0.0000000e+00 
0.0000000e+00 -3.9424885e-06 0.0000000e+00 
0.0000000e+00 -3.7613640e-06 0.0000000e+00 
0.0000000e+00 -3.5798057e-06 0.0000000e+00 
0.0000000e+00 -4.1230546e-06 0.0000000e+00 
0.0000000e+00 -3.3977133e-06 0.0000000e+00 
0.0000000e+00 -3.5797923e-06 0.0000000e+00 
0.0000000e+00 -3.7613481e-06 0.0000000e+00 
0.0000000e+00 -3.9424945e-06 0.0000000e+00 
VELOCITY 3 46  float
0.0000000e+00 -2.0770609e-05 0.0000000e+00 
0.0000000e+00 -2.0764643e-05 0.0000000e+00 
0.0000000e+00 -2.0628144e-05 0.0000000e+00 
0.0000000e+00 -2.0669904e-05 0.0000000e+00 
0.0000000e+00 -2.0768593e-05 0.0000000e+00 
0.0000000e+00 -2.0761934e-05 0.0000000e+00 
0.0000000e+00 -2.0609132e-05 0.0000000e+00 
0.0000000e+00 -2.0655685e-05 0.0000000e+00 
0.0000000e+00 -2.0718715e-05 0.0000000e+00 
0.0000000e+00 -2.0775278e-05 0.0000000e+00 
0.0000000e+00 -2.0683912e-05 0.0000000e+00 
0.0000000e+00 -2.0798594e-05 0.0000000e+00 
0.0000000e+00 -2.0803705e-05 0.0000000e+00 
0.0000000e+00 -2.0663325e-05 0.0000000e+00 
0.0000000e+00 -2.0763686e-05 0.0000000e+00 
0.0000000e+00 -2.0726893e-05 0.0000000e+00 
0.0000000e+00 -2.0723353e-05 0.0000000e+00 
0.0000000e+00 -2.0750540e-05 0.0000000e+00 
0.0000000e+00 -2.0709962e-05 0.0000000e+00 
0.0000000e+00 -2.0810170e-05 0.0000000e+00 
0.0000000e+00 -2.0787566e-05 0.0000000e+00 
0.0000000e+00 -2.0685804e-05 0.0000000e+00 
0.0000000e+00 -2.0754225e-05 0.0000000e+00 
0.0000000e+00 -2.0727164e-05 0.0000000e+00 
0.0000000e+00 -2.0727288e-05 0.0000000e+00 
0.0000000e+00 -2.0809694e-05 0.0000000e+00 
0.0000000e+00 -2.0717633e-05 0.0000000e+00 
0.0000000e+00 -2.0726106e-05 0.0000000e+00 
0.0000000e+00 -2.0737616e-05 0.0000000e+00 
6.5090550e-10 -2.0764592e-05 -7.3294157e-12 
0.0000000e+00 -2.0717946e-05 0.0000000e+00 
0.0000000e+00 -2.0751659e-05 0.0000000e+00 
0.0000000e+00 -2.0715546e-05 0.0000000e+00 
0.0000000e+00 -2.0725221e-05 0.0000000e+00 
0.0000000e+00 -2.0796617e-05 0.0000000e+00 
7.8357019e-09 -2.0651536e-05 5.4619882e-09 
0.0000000e+00 -2.0719312e-05 0.0000000e+00 
0.0000000e+00 -2.0721383e-05 0.0000000e+00 
0.0000000e+00 -2.0797264e-05 0.0000000e+00 
0.0000000e+00 -2.0746900e-05 0.0000000e+00 
0.0000000e+00 -2.0730542e-05 0.0000000e+00 
0.0000000e+00 -2.0730744e-05 0.0000000e+00 
0.0000000e+00 -2.0718728e-05 0.0000000e+00 
0.0000000e+00 -2.0721674e-05 0.0000000e+00 
0.0000000e+00 -2.0760912e-05 0.0000000e+00 
0.0000000e+00 -2.0782954e-05 0.0000000e+00 
CELL_DATA 100
FIELD FieldData 0
