# vtk DataFile Version 4.0
vtk output
ASCII
DATASET UNSTRUCTURED_GRID
POINTS 46 float
0.0000000e+00 0.0000000e+00 0.0000000e+00 
1.0000000e+00 0.0000000e+00 0.0000000e+00 
1.0000000e+00 1.0000000e+01 0.0000000e+00 
0.0000000e+00 1.0000000e+01 0.0000000e+00 
0.0000000e+00 0.0000000e+00 1.0000000e+00 
1.0000000e+00 0.0000000e+00 1.0000000e+00 
1.0000000e+00 1.0000000e+01 1.0000000e+00 
0.0000000e+00 1.0000000e+01 1.0000000e+00 
1.0000000e+00 2.0000000e+00 0.0000000e+00 
1.0000000e+00 4.0000000e+00 0.0000000e+00 
1.0000000e+00 6.0000000e+00 0.0000000e+00 
1.0000000e+00 8.0000000e+00 0.0000000e+00 
0.0000000e+00 8.0000000e+00 0.0000000e+00 
0.0000000e+00 6.0000000e+00 0.0000000e+00 
0.0000000e+00 4.0000000e+00 0.0000000e+00 
0.0000000e+00 2.0000000e+00 0.0000000e+00 
1.0000000e+00 2.0000000e+00 1.0000000e+00 
1.0000000e+00 4.0000000e+00 1.0000000e+00 
1.0000000e+00 6.0000000e+00 1.0000000e+00 
1.0000000e+00 8.0000000e+00 1.0000000e+00 
0.0000000e+00 8.0000000e+00 1.0000000e+00 
0.0000000e+00 6.0000000e+00 1.0000000e+00 
0.0000000e+00 4.0000000e+00 1.0000000e+00 
0.0000000e+00 2.0000000e+00 1.0000000e+00 
5.0000000e-01 9.0000000e+00 0.0000000e+00 
5.0000000e-01 7.0000000e+00 0.0000000e+00 
5.0000000e-01 1.0000000e+00 0.0000000e+00 
5.0000000e-01 3.0000000e+00 0.0000000e+00 
5.0000000e-01 5.0000000e+00 0.0000000e+00 
5.0000000e-01 0.0000000e+00 5.0000000e-01 
1.0000000e+00 9.0000000e+00 5.0000000e-01 
1.0000000e+00 5.0000000e+00 5.0000000e-01 
1.0000000e+00 1.0000000e+00 5.0000000e-01 
1.0000000e+00 3.0000000e+00 5.0000000e-01 
1.0000000e+00 7.0000000e+00 5.0000000e-01 
5.0000000e-01 1.0000000e+01 5.0000000e-01 
0.0000000e+00 9.0000000e+00 5.0000000e-01 
0.0000000e+00 1.0000000e+00 5.0000000e-01 
0.0000000e+00 7.0000000e+00 5.0000000e-01 
0.0000000e+00 5.0000000e+00 5.0000000e-01 
0.0000000e+00 3.0000000e+00 5.0000000e-01 
5.0000000e-01 9.0000000e+00 1.0000000e+00 
5.0000000e-01 1.0000000e+00 1.0000000e+00 
5.0000000e-01 3.0000000e+00 1.0000000e+00 
5.0000000e-01 5.0000000e+00 1.0000000e+00 
5.0000000e-01 7.0000000e+00 1.0000000e+00 

CELLS 100 500
4 38 13 12 25
4 27 9 33 8
4 40 27 15 14
4 36 7 20 41
4 3 12 24 36
4 21 22 39 44
4 40 22 23 43
4 37 23 4 42
4 14 13 39 28
4 5 32 42 16
4 17 31 44 18
4 38 20 21 45
4 18 45 19 34
4 41 6 19 30
4 17 16 43 33
4 24 30 11 2
4 31 10 9 28
4 25 11 34 10
4 0 15 37 26
4 8 32 26 1
4 41 24 36 35
4 30 24 41 35
4 37 32 29 26
4 32 37 29 42
4 43 27 17 33
4 34 38 13 45
4 22 40 27 43
4 23 27 40 43
4 38 19 34 25
4 42 37 23 32
4 31 44 13 28
4 9 39 44 28
4 27 43 16 33
4 19 45 38 34
4 38 34 13 25
4 44 31 9 28
4 24 41 19 30
4 41 24 19 36
4 44 39 13 28
4 32 37 23 26
4 43 23 27 16
4 40 15 27 23
4 10 31 13 28
4 33 16 27 8
4 44 31 17 9
4 14 40 27 22
4 44 14 39 9
4 41 20 36 19
4 13 21 39 44
4 39 22 14 44
4 38 20 45 19
4 11 34 19 25
4 31 13 44 18
4 27 22 43 17
4 32 23 42 16
4 9 14 39 28
4 18 45 34 10
4 21 13 38 45
4 34 13 10 45
4 19 36 24 11
4 12 24 36 11
4 30 19 24 11
4 19 38 12 25
4 34 13 25 10
4 9 17 27 33
4 26 15 32 8
4 37 15 23 26
4 32 23 15 26
4 24 3 36 35
4 42 4 37 29
4 41 6 30 35
4 26 32 29 1
4 42 29 32 5
4 35 30 24 2
4 36 7 41 35
4 29 0 37 26
4 22 27 14 17
4 11 19 12 25
4 20 12 36 19
4 13 21 44 18
4 45 18 13 10
4 18 31 13 10
4 23 15 27 16
4 14 17 44 22
4 17 14 44 9
4 17 27 14 9
4 13 21 18 45
4 20 38 12 19
4 19 12 36 11
4 15 16 32 8
4 16 15 32 23
4 16 15 27 8
4 0 37 4 29
4 6 41 7 35
4 29 42 4 5
4 29 32 5 1
4 24 3 35 2
4 7 36 3 35
4 6 30 35 2
4 26 29 0 1

CELL_TYPES 100
10
10
10
10
10
10
10
10
10
10
10
10
10
10
10
10
10
10
10
10
10
10
10
10
10
10
10
10
10
10
10
10
10
10
10
10
10
10
10
10
10
10
10
10
10
10
10
10
10
10
10
10
10
10
10
10
10
10
10
10
10
10
10
10
10
10
10
10
10
10
10
10
10
10
10
10
10
10
10
10
10
10
10
10
10
10
10
10
10
10
10
10
10
10
10
10
10
10
10
10
POINT_DATA 46
FIELD FieldData 2
DISPLACEMENT 3 46  float
0.0000000e+00 -2.2564145e-06 0.0000000e+00 
0.0000000e+00 -2.2563661e-06 0.0000000e+00 
0.0000000e+00 -3.1628149e-06 0.0000000e+00 
0.0000000e+00 -3.1626839e-06 0.0000000e+00 
0.0000000e+00 -2.2564027e-06 0.0000000e+00 
0.0000000e+00 -2.2563529e-06 0.0000000e+00 
0.0000000e+00 -3.1629104e-06 0.0000000e+00 
0.0000000e+00 -3.1627626e-06 0.0000000e+00 
0.0000000e+00 -2.4388582e-06 0.0000000e+00 
0.0000000e+00 -2.6212131e-06 0.0000000e+00 
0.0000000e+00 -2.8012314e-06 0.0000000e+00 
0.0000000e+00 -2.9829632e-06 0.0000000e+00 
0.0000000e+00 -2.9827656e-06 0.0000000e+00 
0.0000000e+00 -2.8012500e-06 0.0000000e+00 
0.0000000e+00 -2.6212554e-06 0.0000000e+00 
0.0000000e+00 -2.4388189e-06 0.0000000e+00 
0.0000000e+00 -2.4387653e-06 0.0000000e+00 
0.0000000e+00 -2.6211712e-06 0.0000000e+00 
0.0000000e+00 -2.8012716e-06 0.0000000e+00 
0.0000000e+00 -2.9830348e-06 0.0000000e+00 
0.0000000e+00 -2.9829589e-06 0.0000000e+00 
0.0000000e+00 -2.8012598e-06 0.0000000e+00 
0.0000000e+00 -2.6212947e-06 0.0000000e+00 
0.0000000e+00 -2.4387134e-06 0.0000000e+00 
0.0000000e+00 -3.0729723e-06 0.0000000e+00 
0.0000000e+00 -2.8919114e-06 0.0000000e+00 
0.0000000e+00 -2.3474533e-06 0.0000000e+00 
0.0000000e+00 -2.5304562e-06 0.0000000e+00 
0.0000000e+00 -2.7111673e-06 0.0000000e+00 
8.2892963e-12 -2.2564097e-06 4.2353647e-12 
0.0000000e+00 -3.0729741e-06 0.0000000e+00 
0.0000000e+00 -2.7111089e-06 0.0000000e+00 
0.0000000e+00 -2.3473881e-06 0.0000000e+00 
0.0000000e+00 -2.5303059e-06 0.0000000e+00 
0.0000000e+00 -2.8919562e-06 0.0000000e+00 
-7.7515000e-12 -3.1626835e-06 -1.5341849e-12 
0.0000000e+00 -3.0730037e-06 0.0000000e+00 
0.0000000e+00 -2.3474599e-06 0.0000000e+00 
0.0000000e+00 -2.8919367e-06 0.0000000e+00 
0.0000000e+00 -2.7111787e-06 0.0000000e+00 
0.0000000e+00 -2.5303266e-06 0.0000000e+00 
0.0000000e+00 -3.0729907e-06 0.0000000e+00 
0.0000000e+00 -2.3474208e-06 0.0000000e+00 
0.0000000e+00 -2.5303036e-06 0.0000000e+00 
0.0000000e+00 -2.7111314e-06 0.0000000e+00 
0.0000000e+00 -2.8919605e-06 0.0000000e+00 
VELOCITY 3 46  float
0.0000000e+00 -2.1161237e-05 0.0000000e+00 
0.0000000e+00 -2.1157413e-05 0.0000000e+00 
0.0000000e+00 -2.1403208e-05 0.0000000e+00 
0.0000000e+00 -2.1547428e-05 0.0000000e+00 
0.0000000e+00 -2.1162543e-05 0.0000000e+00 
0.0000000e+00 -2.1161299e-05 0.0000000e+00 
0.0000000e+00 -2.1311695e-05 0.0000000e+00 
0.0000000e+00 -2.1462289e-05 0.0000000e+00 
0.0000000e+00 -2.1370830e-05 0.0000000e+00 
0.0000000e+00 -2.1150805e-05 0.0000000e+00 
0.0000000e+00 -2.1214177e-05 0.0000000e+00 
0.0000000e+00 -2.1288601e-05 0.0000000e+00 
0.0000000e+00 -2.1289166e-05 0.0000000e+00 
0.0000000e+00 -2.1196156e-05 0.0000000e+00 
0.0000000e+00 -2.1147507e-05 0.0000000e+00 
0.0000000e+00 -2.1377415e-05 0.0000000e+00 
0.0000000e+00 -2.1396472e-05 0.0000000e+00 
0.0000000e+00 -2.1120726e-05 0.0000000e+00 
0.0000000e+00 -2.1250322e-05 0.0000000e+00 
0.0000000e+00 -2.1294165e-05 0.0000000e+00 
0.0000000e+00 -2.1276090e-05 0.0000000e+00 
0.0000000e+00 -2.1209067e-05 0.0000000e+00 
0.0000000e+00 -2.1119424e-05 0.0000000e+00 
0.0000000e+00 -2.1423115e-05 0.0000000e+00 
0.0000000e+00 -2.1233336e-05 0.0000000e+00 
0.0000000e+00 -2.1224792e-05 0.0000000e+00 
0.0000000e+00 -2.1225020e-05 0.0000000e+00 
0.0000000e+00 -2.1239191e-05 0.0000000e+00 
0.0000000e+00 -2.1258966e-05 0.0000000e+00 
-9.5880148e-10 -2.1146945e-05 -1.7550652e-09 
0.0000000e+00 -2.1271140e-05 0.0000000e+00 
0.0000000e+00 -2.1293808e-05 0.0000000e+00 
0.0000000e+00 -2.1245516e-05 0.0000000e+00 
0.0000000e+00 -2.1240776e-05 0.0000000e+00 
0.0000000e+00 -2.1198490e-05 0.0000000e+00 
-1.3293342e-08 -2.1506026e-05 -5.9254406e-09 
0.0000000e+00 -2.1242022e-05 0.0000000e+00 
0.0000000e+00 -2.1234691e-05 0.0000000e+00 
0.0000000e+00 -2.1194503e-05 0.0000000e+00 
0.0000000e+00 -2.1260568e-05 0.0000000e+00 
0.0000000e+00 -2.1253523e-05 0.0000000e+00 
0.0000000e+00 -2.1246822e-05 0.0000000e+00 
0.0000000e+00 -2.1241953e-05 0.0000000e+00 
0.0000000e+00 -2.1246968e-05 0.0000000e+00 
0.0000000e+00 -2.1277665e-05 0.0000000e+00 
0.0000000e+00 -2.1177713e-05 0.0000000e+00 
CELL_DATA 100
FIELD FieldData 0
