# vtk DataFile Version 4.0
vtk output
ASCII
DATASET UNSTRUCTURED_GRID
POINTS 46 float
0.0000000e+00 0.0000000e+00 0.0000000e+00 
1.0000000e+00 0.0000000e+00 0.0000000e+00 
1.0000000e+00 1.0000000e+01 0.0000000e+00 
0.0000000e+00 1.0000000e+01 0.0000000e+00 
0.0000000e+00 0.0000000e+00 1.0000000e+00 
1.0000000e+00 0.0000000e+00 1.0000000e+00 
1.0000000e+00 1.0000000e+01 1.0000000e+00 
0.0000000e+00 1.0000000e+01 1.0000000e+00 
1.0000000e+00 2.0000000e+00 0.0000000e+00 
1.0000000e+00 4.0000000e+00 0.0000000e+00 
1.0000000e+00 6.0000000e+00 0.0000000e+00 
1.0000000e+00 8.0000000e+00 0.0000000e+00 
0.0000000e+00 8.0000000e+00 0.0000000e+00 
0.0000000e+00 6.0000000e+00 0.0000000e+00 
0.0000000e+00 4.0000000e+00 0.0000000e+00 
0.0000000e+00 2.0000000e+00 0.0000000e+00 
1.0000000e+00 2.0000000e+00 1.0000000e+00 
1.0000000e+00 4.0000000e+00 1.0000000e+00 
1.0000000e+00 6.0000000e+00 1.0000000e+00 
1.0000000e+00 8.0000000e+00 1.0000000e+00 
0.0000000e+00 8.0000000e+00 1.0000000e+00 
0.0000000e+00 6.0000000e+00 1.0000000e+00 
0.0000000e+00 4.0000000e+00 1.0000000e+00 
0.0000000e+00 2.0000000e+00 1.0000000e+00 
5.0000000e-01 9.0000000e+00 0.0000000e+00 
5.0000000e-01 7.0000000e+00 0.0000000e+00 
5.0000000e-01 1.0000000e+00 0.0000000e+00 
5.0000000e-01 3.0000000e+00 0.0000000e+00 
5.0000000e-01 5.0000000e+00 0.0000000e+00 
5.0000000e-01 0.0000000e+00 5.0000000e-01 
1.0000000e+00 9.0000000e+00 5.0000000e-01 
1.0000000e+00 5.0000000e+00 5.0000000e-01 
1.0000000e+00 1.0000000e+00 5.0000000e-01 
1.0000000e+00 3.0000000e+00 5.0000000e-01 
1.0000000e+00 7.0000000e+00 5.0000000e-01 
5.0000000e-01 1.0000000e+01 5.0000000e-01 
0.0000000e+00 9.0000000e+00 5.0000000e-01 
0.0000000e+00 1.0000000e+00 5.0000000e-01 
0.0000000e+00 7.0000000e+00 5.0000000e-01 
0.0000000e+00 5.0000000e+00 5.0000000e-01 
0.0000000e+00 3.0000000e+00 5.0000000e-01 
5.0000000e-01 9.0000000e+00 1.0000000e+00 
5.0000000e-01 1.0000000e+00 1.0000000e+00 
5.0000000e-01 3.0000000e+00 1.0000000e+00 
5.0000000e-01 5.0000000e+00 1.0000000e+00 
5.0000000e-01 7.0000000e+00 1.0000000e+00 

CELLS 100 500
4 38 13 12 25
4 27 9 33 8
4 40 27 15 14
4 36 7 20 41
4 3 12 24 36
4 21 22 39 44
4 40 22 23 43
4 37 23 4 42
4 14 13 39 28
4 5 32 42 16
4 17 31 44 18
4 38 20 21 45
4 18 45 19 34
4 41 6 19 30
4 17 16 43 33
4 24 30 11 2
4 31 10 9 28
4 25 11 34 10
4 0 15 37 26
4 8 32 26 1
4 41 24 36 35
4 30 24 41 35
4 37 32 29 26
4 32 37 29 42
4 43 27 17 33
4 34 38 13 45
4 22 40 27 43
4 23 27 40 43
4 38 19 34 25
4 42 37 23 32
4 31 44 13 28
4 9 39 44 28
4 27 43 16 33
4 19 45 38 34
4 38 34 13 25
4 44 31 9 28
4 24 41 19 30
4 41 24 19 36
4 44 39 13 28
4 32 37 23 26
4 43 23 27 16
4 40 15 27 23
4 10 31 13 28
4 33 16 27 8
4 44 31 17 9
4 14 40 27 22
4 44 14 39 9
4 41 20 36 19
4 13 21 39 44
4 39 22 14 44
4 38 20 45 19
4 11 34 19 25
4 31 13 44 18
4 27 22 43 17
4 32 23 42 16
4 9 14 39 28
4 18 45 34 10
4 21 13 38 45
4 34 13 10 45
4 19 36 24 11
4 12 24 36 11
4 30 19 24 11
4 19 38 12 25
4 34 13 25 10
4 9 17 27 33
4 26 15 32 8
4 37 15 23 26
4 32 23 15 26
4 24 3 36 35
4 42 4 37 29
4 41 6 30 35
4 26 32 29 1
4 42 29 32 5
4 35 30 24 2
4 36 7 41 35
4 29 0 37 26
4 22 27 14 17
4 11 19 12 25
4 20 12 36 19
4 13 21 44 18
4 45 18 13 10
4 18 31 13 10
4 23 15 27 16
4 14 17 44 22
4 17 14 44 9
4 17 27 14 9
4 13 21 18 45
4 20 38 12 19
4 19 12 36 11
4 15 16 32 8
4 16 15 32 23
4 16 15 27 8
4 0 37 4 29
4 6 41 7 35
4 29 42 4 5
4 29 32 5 1
4 24 3 35 2
4 7 36 3 35
4 6 30 35 2
4 26 29 0 1

CELL_TYPES 100
10
10
10
10
10
10
10
10
10
10
10
10
10
10
10
10
10
10
10
10
10
10
10
10
10
10
10
10
10
10
10
10
10
10
10
10
10
10
10
10
10
10
10
10
10
10
10
10
10
10
10
10
10
10
10
10
10
10
10
10
10
10
10
10
10
10
10
10
10
10
10
10
10
10
10
10
10
10
10
10
10
10
10
10
10
10
10
10
10
10
10
10
10
10
10
10
10
10
10
10
POINT_DATA 46
FIELD FieldData 2
DISPLACEMENT 3 46  float
0.0000000e+00 -4.3307368e-06 0.0000000e+00 
0.0000000e+00 -4.3307396e-06 0.0000000e+00 
0.0000000e+00 -5.2375285e-06 0.0000000e+00 
0.0000000e+00 -5.2375290e-06 0.0000000e+00 
0.0000000e+00 -4.3307332e-06 0.0000000e+00 
0.0000000e+00 -4.3307391e-06 0.0000000e+00 
0.0000000e+00 -5.2375262e-06 0.0000000e+00 
0.0000000e+00 -5.2375271e-06 0.0000000e+00 
0.0000000e+00 -4.5131196e-06 0.0000000e+00 
0.0000000e+00 -4.6949881e-06 0.0000000e+00 
0.0000000e+00 -4.8764250e-06 0.0000000e+00 
0.0000000e+00 -5.0570898e-06 0.0000000e+00 
0.0000000e+00 -5.0570725e-06 0.0000000e+00 
0.0000000e+00 -4.8764359e-06 0.0000000e+00 
0.0000000e+00 -4.6949872e-06 0.0000000e+00 
0.0000000e+00 -4.5131069e-06 0.0000000e+00 
0.0000000e+00 -4.5131060e-06 0.0000000e+00 
0.0000000e+00 -4.6949654e-06 0.0000000e+00 
0.0000000e+00 -4.8764005e-06 0.0000000e+00 
0.0000000e+00 -5.0571089e-06 0.0000000e+00 
0.0000000e+00 -5.0570970e-06 0.0000000e+00 
0.0000000e+00 -4.8764259e-06 0.0000000e+00 
0.0000000e+00 -4.6949876e-06 0.0000000e+00 
0.0000000e+00 -4.5131155e-06 0.0000000e+00 
0.0000000e+00 -5.1473517e-06 0.0000000e+00 
0.0000000e+00 -4.9667810e-06 0.0000000e+00 
0.0000000e+00 -4.4219682e-06 0.0000000e+00 
0.0000000e+00 -4.6040846e-06 0.0000000e+00 
0.0000000e+00 -4.7857789e-06 0.0000000e+00 
-1.2327600e-12 -4.3307364e-06 5.4161569e-13 
0.0000000e+00 -5.1473671e-06 0.0000000e+00 
0.0000000e+00 -4.7857911e-06 0.0000000e+00 
0.0000000e+00 -4.4219746e-06 0.0000000e+00 
0.0000000e+00 -4.6040673e-06 0.0000000e+00 
0.0000000e+00 -4.9667838e-06 0.0000000e+00 
3.7192228e-12 -5.2375385e-06 2.9987224e-12 
0.0000000e+00 -5.1473489e-06 0.0000000e+00 
0.0000000e+00 -4.4219614e-06 0.0000000e+00 
0.0000000e+00 -4.9667838e-06 0.0000000e+00 
0.0000000e+00 -4.7857902e-06 0.0000000e+00 
0.0000000e+00 -4.6040773e-06 0.0000000e+00 
0.0000000e+00 -5.1473662e-06 0.0000000e+00 
0.0000000e+00 -4.4219641e-06 0.0000000e+00 
0.0000000e+00 -4.6040695e-06 0.0000000e+00 
0.0000000e+00 -4.7857989e-06 0.0000000e+00 
0.0000000e+00 -4.9667860e-06 0.0000000e+00 
VELOCITY 3 46  float
0.0000000e+00 -2.0230038e-05 0.0000000e+00 
0.0000000e+00 -2.0230331e-05 0.0000000e+00 
0.0000000e+00 -2.0218275e-05 0.0000000e+00 
0.0000000e+00 -2.0215046e-05 0.0000000e+00 
0.0000000e+00 -2.0228514e-05 0.0000000e+00 
0.0000000e+00 -2.0228530e-05 0.0000000e+00 
0.0000000e+00 -2.0227046e-05 0.0000000e+00 
0.0000000e+00 -2.0223155e-05 0.0000000e+00 
0.0000000e+00 -2.0223941e-05 0.0000000e+00 
0.0000000e+00 -2.0265141e-05 0.0000000e+00 
0.0000000e+00 -2.0213820e-05 0.0000000e+00 
0.0000000e+00 -2.0239628e-05 0.0000000e+00 
0.0000000e+00 -2.0238596e-05 0.0000000e+00 
0.0000000e+00 -2.0204368e-05 0.0000000e+00 
0.0000000e+00 -2.0257481e-05 0.0000000e+00 
0.0000000e+00 -2.0230998e-05 0.0000000e+00 
0.0000000e+00 -2.0225472e-05 0.0000000e+00 
0.0000000e+00 -2.0255677e-05 0.0000000e+00 
0.0000000e+00 -2.0221525e-05 0.0000000e+00 
0.0000000e+00 -2.0233507e-05 0.0000000e+00 
0.0000000e+00 -2.0230667e-05 0.0000000e+00 
0.0000000e+00 -2.0215532e-05 0.0000000e+00 
0.0000000e+00 -2.0252995e-05 0.0000000e+00 
0.0000000e+00 -2.0230866e-05 0.0000000e+00 
0.0000000e+00 -2.0240454e-05 0.0000000e+00 
0.0000000e+00 -2.0237190e-05 0.0000000e+00 
0.0000000e+00 -2.0229629e-05 0.0000000e+00 
0.0000000e+00 -2.0226606e-05 0.0000000e+00 
0.0000000e+00 -2.0235126e-05 0.0000000e+00 
-9.0099851e-11 -2.0227928e-05 9.6585295e-11 
0.0000000e+00 -2.0231239e-05 0.0000000e+00 
0.0000000e+00 -2.0237361e-05 0.0000000e+00 
0.0000000e+00 -2.0229210e-05 0.0000000e+00 
0.0000000e+00 -2.0229108e-05 0.0000000e+00 
0.0000000e+00 -2.0242427e-05 0.0000000e+00 
3.1097971e-09 -2.0208638e-05 1.8311481e-09 
0.0000000e+00 -2.0244843e-05 0.0000000e+00 
0.0000000e+00 -2.0229350e-05 0.0000000e+00 
0.0000000e+00 -2.0235540e-05 0.0000000e+00 
0.0000000e+00 -2.0237459e-05 0.0000000e+00 
0.0000000e+00 -2.0230344e-05 0.0000000e+00 
0.0000000e+00 -2.0236790e-05 0.0000000e+00 
0.0000000e+00 -2.0228837e-05 0.0000000e+00 
0.0000000e+00 -2.0225471e-05 0.0000000e+00 
0.0000000e+00 -2.0241978e-05 0.0000000e+00 
0.0000000e+00 -2.0241132e-05 0.0000000e+00 
CELL_DATA 100
FIELD FieldData 0
