# vtk DataFile Version 4.0
vtk output
ASCII
DATASET UNSTRUCTURED_GRID
POINTS 1919 float
0.0000000e+00 0.0000000e+00 0.0000000e+00 
0.0000000e+00 0.0000000e+00 5.0000000e+01 
5.0000000e+00 0.0000000e+00 0.0000000e+00 
5.0000000e+00 0.0000000e+00 5.0000000e+01 
5.0000000e+00 1.0000000e+00 0.0000000e+00 
5.0000000e+00 1.0000000e+00 5.0000000e+01 
0.0000000e+00 1.0000000e+00 0.0000000e+00 
0.0000000e+00 1.0000000e+00 5.0000000e+01 
5.0000000e+00 2.0000000e+00 0.0000000e+00 
5.0000000e+00 2.0000000e+00 5.0000000e+01 
3.0000000e+00 2.0000000e+00 0.0000000e+00 
3.0000000e+00 2.0000000e+00 5.0000000e+01 
0.0000000e+00 2.0000000e+00 0.0000000e+00 
0.0000000e+00 2.0000000e+00 5.0000000e+01 
1.5000000e+00 3.0000000e+00 0.0000000e+00 
1.5000000e+00 3.0000000e+00 5.0000000e+01 
7.5000000e-01 3.0000000e+00 0.0000000e+00 
7.5000000e-01 3.0000000e+00 5.0000000e+01 
0.0000000e+00 3.0000000e+00 0.0000000e+00 
0.0000000e+00 3.0000000e+00 5.0000000e+01 
7.5000000e-01 3.0000000e+00 5.0000000e-01 
7.5000000e-01 3.0000000e+00 1.0000000e+00 
7.5000000e-01 3.0000000e+00 1.5000000e+00 
7.5000000e-01 3.0000000e+00 2.0000000e+00 
7.5000000e-01 3.0000000e+00 2.5000000e+00 
7.5000000e-01 3.0000000e+00 3.0000000e+00 
7.5000000e-01 3.0000000e+00 3.5000000e+00 
7.5000000e-01 3.0000000e+00 4.0000000e+00 
7.5000000e-01 3.0000000e+00 4.5000000e+00 
7.5000000e-01 3.0000000e+00 5.0000000e+00 
7.5000000e-01 3.0000000e+00 5.5000000e+00 
7.5000000e-01 3.0000000e+00 6.0000000e+00 
7.5000000e-01 3.0000000e+00 6.5000000e+00 
7.5000000e-01 3.0000000e+00 7.0000000e+00 
7.5000000e-01 3.0000000e+00 7.5000000e+00 
7.5000000e-01 3.0000000e+00 8.0000000e+00 
7.5000000e-01 3.0000000e+00 8.5000000e+00 
7.5000000e-01 3.0000000e+00 9.0000000e+00 
7.5000000e-01 3.0000000e+00 9.5000000e+00 
7.5000000e-01 3.0000000e+00 1.0000000e+01 
7.5000000e-01 3.0000000e+00 1.0500000e+01 
7.5000000e-01 3.0000000e+00 1.1000000e+01 
7.5000000e-01 3.0000000e+00 1.1500000e+01 
7.5000000e-01 3.0000000e+00 1.2000000e+01 
7.5000000e-01 3.0000000e+00 1.2500000e+01 
7.5000000e-01 3.0000000e+00 1.3000000e+01 
7.5000000e-01 3.0000000e+00 1.3500000e+01 
7.5000000e-01 3.0000000e+00 1.4000000e+01 
7.5000000e-01 3.0000000e+00 1.4500000e+01 
7.5000000e-01 3.0000000e+00 1.5000000e+01 
7.5000000e-01 3.0000000e+00 1.5500000e+01 
7.5000000e-01 3.0000000e+00 1.6000000e+01 
7.5000000e-01 3.0000000e+00 1.6500000e+01 
7.5000000e-01 3.0000000e+00 1.7000000e+01 
7.5000000e-01 3.0000000e+00 1.7500000e+01 
7.5000000e-01 3.0000000e+00 1.8000000e+01 
7.5000000e-01 3.0000000e+00 1.8500000e+01 
7.5000000e-01 3.0000000e+00 1.9000000e+01 
7.5000000e-01 3.0000000e+00 1.9500000e+01 
7.5000000e-01 3.0000000e+00 2.0000000e+01 
7.5000000e-01 3.0000000e+00 2.0500000e+01 
7.5000000e-01 3.0000000e+00 2.1000000e+01 
7.5000000e-01 3.0000000e+00 2.1500000e+01 
7.5000000e-01 3.0000000e+00 2.2000000e+01 
7.5000000e-01 3.0000000e+00 2.2500000e+01 
7.5000000e-01 3.0000000e+00 2.3000000e+01 
7.5000000e-01 3.0000000e+00 2.3500000e+01 
7.5000000e-01 3.0000000e+00 2.4000000e+01 
7.5000000e-01 3.0000000e+00 2.4500000e+01 
7.5000000e-01 3.0000000e+00 2.5000000e+01 
7.5000000e-01 3.0000000e+00 2.5500000e+01 
7.5000000e-01 3.0000000e+00 2.6000000e+01 
7.5000000e-01 3.0000000e+00 2.6500000e+01 
7.5000000e-01 3.0000000e+00 2.7000000e+01 
7.5000000e-01 3.0000000e+00 2.7500000e+01 
7.5000000e-01 3.0000000e+00 2.8000000e+01 
7.5000000e-01 3.0000000e+00 2.8500000e+01 
7.5000000e-01 3.0000000e+00 2.9000000e+01 
7.5000000e-01 3.0000000e+00 2.9500000e+01 
7.5000000e-01 3.0000000e+00 3.0000000e+01 
7.5000000e-01 3.0000000e+00 3.0500000e+01 
7.5000000e-01 3.0000000e+00 3.1000000e+01 
7.5000000e-01 3.0000000e+00 3.1500000e+01 
7.5000000e-01 3.0000000e+00 3.2000000e+01 
7.5000000e-01 3.0000000e+00 3.2500000e+01 
7.5000000e-01 3.0000000e+00 3.3000000e+01 
7.5000000e-01 3.0000000e+00 3.3500000e+01 
7.5000000e-01 3.0000000e+00 3.4000000e+01 
7.5000000e-01 3.0000000e+00 3.4500000e+01 
7.5000000e-01 3.0000000e+00 3.5000000e+01 
7.5000000e-01 3.0000000e+00 3.5500000e+01 
7.5000000e-01 3.0000000e+00 3.6000000e+01 
7.5000000e-01 3.0000000e+00 3.6500000e+01 
7.5000000e-01 3.0000000e+00 3.7000000e+01 
7.5000000e-01 3.0000000e+00 3.7500000e+01 
7.5000000e-01 3.0000000e+00 3.8000000e+01 
7.5000000e-01 3.0000000e+00 3.8500000e+01 
7.5000000e-01 3.0000000e+00 3.9000000e+01 
7.5000000e-01 3.0000000e+00 3.9500000e+01 
7.5000000e-01 3.0000000e+00 4.0000000e+01 
7.5000000e-01 3.0000000e+00 4.0500000e+01 
7.5000000e-01 3.0000000e+00 4.1000000e+01 
7.5000000e-01 3.0000000e+00 4.1500000e+01 
7.5000000e-01 3.0000000e+00 4.2000000e+01 
7.5000000e-01 3.0000000e+00 4.2500000e+01 
7.5000000e-01 3.0000000e+00 4.3000000e+01 
7.5000000e-01 3.0000000e+00 4.3500000e+01 
7.5000000e-01 3.0000000e+00 4.4000000e+01 
7.5000000e-01 3.0000000e+00 4.4500000e+01 
7.5000000e-01 3.0000000e+00 4.5000000e+01 
7.5000000e-01 3.0000000e+00 4.5500000e+01 
7.5000000e-01 3.0000000e+00 4.6000000e+01 
7.5000000e-01 3.0000000e+00 4.6500000e+01 
7.5000000e-01 3.0000000e+00 4.7000000e+01 
7.5000000e-01 3.0000000e+00 4.7500000e+01 
7.5000000e-01 3.0000000e+00 4.8000000e+01 
7.5000000e-01 3.0000000e+00 4.8500000e+01 
7.5000000e-01 3.0000000e+00 4.9000000e+01 
7.5000000e-01 3.0000000e+00 4.9500000e+01 
7.5000000e-01 3.0250001e+00 0.0000000e+00 
7.5000000e-01 3.0250001e+00 5.0000000e-01 
7.5000000e-01 3.0250001e+00 1.0000000e+00 
7.5000000e-01 3.0250001e+00 1.5000000e+00 
7.5000000e-01 3.0250001e+00 2.0000000e+00 
7.5000000e-01 3.0250001e+00 2.5000000e+00 
7.5000000e-01 3.0250001e+00 3.0000000e+00 
7.5000000e-01 3.0250001e+00 3.5000000e+00 
7.5000000e-01 3.0250001e+00 4.0000000e+00 
7.5000000e-01 3.0250001e+00 4.5000000e+00 
7.5000000e-01 3.0250001e+00 5.0000000e+00 
7.5000000e-01 3.0250001e+00 5.5000000e+00 
7.5000000e-01 3.0250001e+00 6.0000000e+00 
7.5000000e-01 3.0250001e+00 6.5000000e+00 
7.5000000e-01 3.0250001e+00 7.0000000e+00 
7.5000000e-01 3.0250001e+00 7.5000000e+00 
7.5000000e-01 3.0250001e+00 8.0000000e+00 
7.5000000e-01 3.0250001e+00 8.5000000e+00 
7.5000000e-01 3.0250001e+00 9.0000000e+00 
7.5000000e-01 3.0250001e+00 9.5000000e+00 
7.5000000e-01 3.0250001e+00 1.0000000e+01 
7.5000000e-01 3.0250001e+00 1.0500000e+01 
7.5000000e-01 3.0250001e+00 1.1000000e+01 
7.5000000e-01 3.0250001e+00 1.1500000e+01 
7.5000000e-01 3.0250001e+00 1.2000000e+01 
7.5000000e-01 3.0250001e+00 1.2500000e+01 
7.5000000e-01 3.0250001e+00 1.3000000e+01 
7.5000000e-01 3.0250001e+00 1.3500000e+01 
7.5000000e-01 3.0250001e+00 1.4000000e+01 
7.5000000e-01 3.0250001e+00 1.4500000e+01 
7.5000000e-01 3.0250001e+00 1.5000000e+01 
7.5000000e-01 3.0250001e+00 1.5500000e+01 
7.5000000e-01 3.0250001e+00 1.6000000e+01 
7.5000000e-01 3.0250001e+00 1.6500000e+01 
7.5000000e-01 3.0250001e+00 1.7000000e+01 
7.5000000e-01 3.0250001e+00 1.7500000e+01 
7.5000000e-01 3.0250001e+00 1.8000000e+01 
7.5000000e-01 3.0250001e+00 1.8500000e+01 
7.5000000e-01 3.0250001e+00 1.9000000e+01 
7.5000000e-01 3.0250001e+00 1.9500000e+01 
7.5000000e-01 3.0250001e+00 2.0000000e+01 
7.5000000e-01 3.0250001e+00 2.0500000e+01 
7.5000000e-01 3.0250001e+00 2.1000000e+01 
7.5000000e-01 3.0250001e+00 2.1500000e+01 
7.5000000e-01 3.0250001e+00 2.2000000e+01 
7.5000000e-01 3.0250001e+00 2.2500000e+01 
7.5000000e-01 3.0250001e+00 2.3000000e+01 
7.5000000e-01 3.0250001e+00 2.3500000e+01 
7.5000000e-01 3.0250001e+00 2.4000000e+01 
7.5000000e-01 3.0250001e+00 2.4500000e+01 
7.5000000e-01 3.0250001e+00 2.5000000e+01 
7.5000000e-01 3.0250001e+00 2.5500000e+01 
7.5000000e-01 3.0250001e+00 2.6000000e+01 
7.5000000e-01 3.0250001e+00 2.6500000e+01 
7.5000000e-01 3.0250001e+00 2.7000000e+01 
7.5000000e-01 3.0250001e+00 2.7500000e+01 
7.5000000e-01 3.0250001e+00 2.8000000e+01 
7.5000000e-01 3.0250001e+00 2.8500000e+01 
7.5000000e-01 3.0250001e+00 2.9000000e+01 
7.5000000e-01 3.0250001e+00 2.9500000e+01 
7.5000000e-01 3.0250001e+00 3.0000000e+01 
7.5000000e-01 3.0250001e+00 3.0500000e+01 
7.5000000e-01 3.0250001e+00 3.1000000e+01 
7.5000000e-01 3.0250001e+00 3.1500000e+01 
7.5000000e-01 3.0250001e+00 3.2000000e+01 
7.5000000e-01 3.0250001e+00 3.2500000e+01 
7.5000000e-01 3.0250001e+00 3.3000000e+01 
7.5000000e-01 3.0250001e+00 3.3500000e+01 
7.5000000e-01 3.0250001e+00 3.4000000e+01 
7.5000000e-01 3.0250001e+00 3.4500000e+01 
7.5000000e-01 3.0250001e+00 3.5000000e+01 
7.5000000e-01 3.0250001e+00 3.5500000e+01 
7.5000000e-01 3.0250001e+00 3.6000000e+01 
7.5000000e-01 3.0250001e+00 3.6500000e+01 
7.5000000e-01 3.0250001e+00 3.7000000e+01 
7.5000000e-01 3.0250001e+00 3.7500000e+01 
7.5000000e-01 3.0250001e+00 3.8000000e+01 
7.5000000e-01 3.0250001e+00 3.8500000e+01 
7.5000000e-01 3.0250001e+00 3.9000000e+01 
7.5000000e-01 3.0250001e+00 3.9500000e+01 
7.5000000e-01 3.0250001e+00 4.0000000e+01 
7.5000000e-01 3.0250001e+00 4.0500000e+01 
7.5000000e-01 3.0250001e+00 4.1000000e+01 
7.5000000e-01 3.0250001e+00 4.1500000e+01 
7.5000000e-01 3.0250001e+00 4.2000000e+01 
7.5000000e-01 3.0250001e+00 4.2500000e+01 
7.5000000e-01 3.0250001e+00 4.3000000e+01 
7.5000000e-01 3.0250001e+00 4.3500000e+01 
7.5000000e-01 3.0250001e+00 4.4000000e+01 
7.5000000e-01 3.0250001e+00 4.4500000e+01 
7.5000000e-01 3.0250001e+00 4.5000000e+01 
7.5000000e-01 3.0250001e+00 4.5500000e+01 
7.5000000e-01 3.0250001e+00 4.6000000e+01 
7.5000000e-01 3.0250001e+00 4.6500000e+01 
7.5000000e-01 3.0250001e+00 4.7000000e+01 
7.5000000e-01 3.0250001e+00 4.7500000e+01 
7.5000000e-01 3.0250001e+00 4.8000000e+01 
7.5000000e-01 3.0250001e+00 4.8500000e+01 
7.5000000e-01 3.0250001e+00 4.9000000e+01 
7.5000000e-01 3.0250001e+00 4.9500000e+01 
7.5000000e-01 3.0250001e+00 5.0000000e+01 
1.5000000e+00 3.0000000e+00 2.5000000e+01 
3.0000000e+00 2.0000000e+00 2.5000000e+01 
4.0000000e+00 2.0000000e+00 2.5000000e+01 
5.0000000e+00 2.0000000e+00 2.5000000e+01 
0.0000000e+00 3.0000000e+00 2.5000000e+01 
0.0000000e+00 0.0000000e+00 1.0000000e+00 
0.0000000e+00 0.0000000e+00 2.0000000e+00 
0.0000000e+00 0.0000000e+00 3.0000000e+00 
0.0000000e+00 0.0000000e+00 4.0000000e+00 
0.0000000e+00 0.0000000e+00 5.0000000e+00 
[...]
POINT_DATA 1919
FIELD FieldData 3
DISPLACEMENT 3 1919  float
0.0000000e+00 0.0000000e+00 0.0000000e+00 
0.0000000e+00 0.0000000e+00 0.0000000e+00 
0.0000000e+00 0.0000000e+00 0.0000000e+00 
0.0000000e+00 0.0000000e+00 0.0000000e+00 
-8.9774503e-06 9.8672467e-07 6.8023928e-06 
-2.5589884e-08 5.4745861e-09 -7.1796379e-08 
0.0000000e+00 -3.1886193e-06 0.0000000e+00 
0.0000000e+00 5.9497091e-07 0.0000000e+00 
-9.0232625e-06 -4.6187970e-06 -1.1156968e-06 
-9.6146117e-08 -1.4708874e-07 5.8968077e-08 
-9.0464937e-06 1.1992939e-05 9.0814838e-06 
-7.5728956e-08 -5.1986905e-07 -4.1791589e-07 
0.0000000e+00 -8.9247742e-06 0.0000000e+00 
0.0000000e+00 6.5861582e-07 0.0000000e+00 
-3.2063836e-05 -2.4774959e-05 8.7941822e-05 
-7.5173801e-07 -1.6416916e-08 7.3834912e-07 
8.1534075e-05 -1.2695290e-04 1.1817860e-04 
-8.9190898e-08 -1.4979717e-06 -1.8093365e-07 
0.0000000e+00 2.0229800e-05 0.0000000e+00 
0.0000000e+00 -2.3499112e-07 0.0000000e+00 
-3.6071127e-05 -1.2288943e-04 7.2958275e-05 
-7.3024719e-05 -1.1240644e-04 4.9323000e-05 
-8.8017281e-05 -9.8267330e-05 5.5817858e-05 
-9.1549387e-05 -8.0258164e-05 4.3827433e-05 
-1.0579407e-04 -5.7398393e-05 3.0794214e-05 
-8.3109473e-05 -2.8763001e-05 2.4879861e-05 
-8.8973269e-05 4.9481146e-06 1.0793759e-05 
-6.6996210e-05 4.1868840e-05 9.0245267e-06 
-5.9831560e-05 7.9260164e-05 1.0440230e-05 
-5.0380233e-05 1.1529696e-04 1.3437156e-05 
-4.7163048e-05 1.4741124e-04 2.3491046e-05 
-4.9193408e-05 1.7045090e-04 3.5724548e-05 
-6.4950393e-05 1.7429376e-04 4.2498010e-05 
-5.6244575e-05 1.4016838e-04 7.4928466e-05 
-9.8492710e-05 3.4014160e-05 1.1553748e-04 
-1.0745812e-04 -1.9241717e-04 1.2436081e-04 
-1.7355700e-04 -5.9841637e-04 2.1426729e-04 
-1.7769789e-04 -1.2379532e-03 1.5468767e-04 
-2.6817899e-04 -2.1502180e-03 2.5640390e-04 
-2.8349127e-04 -3.2781665e-03 9.9042903e-05 
-3.7170897e-04 -4.4402806e-03 1.6426967e-04 
-4.4577685e-04 -5.1311278e-03 -2.4918620e-05 
-4.1792000e-04 -5.0108223e-03 -1.4289742e-04 
-3.7939203e-04 -4.6748160e-03 -1.5362832e-04 
-2.8953451e-04 -4.6029422e-03 -1.9904693e-04 
-2.2413174e-04 -4.6902047e-03 -2.4204487e-04 
-1.6740320e-04 -4.4696261e-03 -2.6498269e-04 
-1.3953655e-04 -3.4183247e-03 -2.0151594e-04 
-5.1761930e-05 -2.1385024e-03 -2.5879435e-04 
-2.3843990e-05 -1.0504803e-03 -1.1869512e-04 
1.8487224e-05 -3.1284997e-04 -1.2474506e-04 
2.7106027e-05 9.7460506e-05 -4.0989511e-05 
4.2327669e-05 2.6447268e-04 -7.8994362e-06 
4.1670406e-05 2.7947407e-04 6.5681939e-05 
2.1726164e-05 2.1457343e-04 7.0425493e-05 
1.0294114e-05 1.2448862e-04 5.5144232e-05 
-1.0714363e-05 4.0178667e-05 3.8388473e-05 
-2.7365326e-05 -2.4804349e-05 3.1586249e-05 
-3.5299181e-05 -6.6480185e-05 8.6280634e-06 
-3.7335183e-05 -8.8772875e-05 1.2452218e-05 
-1.7299395e-05 -9.6451302e-05 3.0327756e-05 
-3.7145997e-05 -9.3072485e-05 4.2988177e-05 
-6.2171188e-05 -8.0225487e-05 5.6900688e-05 
-6.1903556e-05 -5.8068643e-05 4.7387035e-05 
-8.9429304e-05 -2.7889906e-05 4.0355299e-05 
-5.6456618e-05 8.3373925e-06 1.4644445e-05 
-7.4768148e-05 4.6933936e-05 -1.0531771e-05 
-7.6206779e-05 8.4986517e-05 -2.6484662e-05 
-2.7651995e-05 1.2118604e-04 -7.7602881e-06 
-4.7241989e-05 1.5822034e-04 4.6099613e-06 
-4.3850396e-05 1.9286627e-04 -3.4988732e-06 
-4.1538868e-05 2.1916402e-04 1.8670771e-05 
-5.3146472e-05 2.2237352e-04 3.6070986e-05 
-3.5816440e-05 1.7451265e-04 5.4969827e-05 
-8.5277235e-05 3.8223614e-05 1.1101312e-04 
-1.0199842e-04 -2.3686605e-04 1.3240951e-04 
-1.7964389e-04 -7.0888654e-04 2.2485455e-04 
-2.0507527e-04 -1.4256561e-03 1.5341860e-04 
-2.9753512e-04 -2.4121494e-03 2.4648177e-04 
-3.4538872e-04 -3.5815097e-03 3.8847669e-05 
-4.2005096e-04 -4.7103409e-03 7.9878402e-05 
-4.5175196e-04 -5.2199136e-03 -6.1274695e-05 
-4.1486369e-04 -4.9939346e-03 -1.9075014e-04 
-3.8132616e-04 -4.6794144e-03 -1.9823092e-04 
-3.1784215e-04 -4.6626087e-03 -2.3370882e-04 
-3.1500694e-04 -4.7466457e-03 -2.8307547e-04 
-2.2305701e-04 -4.3794028e-03 -3.4495484e-04 
-1.5986645e-04 -3.2234481e-03 -1.8667441e-04 
-6.3680236e-05 -1.9591707e-03 -2.4810657e-04 
-2.5051024e-06 -9.2115504e-04 -6.4556363e-05 
1.6442489e-05 -2.4173058e-04 -7.0304122e-05 
2.1237009e-05 1.1914301e-04 2.5593258e-06 
2.4180403e-05 2.5273481e-04 3.3911481e-05 
1.1092856e-05 2.5271488e-04 7.4985022e-05 
-7.4962800e-06 1.9332339e-04 9.4681644e-05 
-4.5211164e-05 1.1842130e-04 9.1297654e-05 
-4.9758713e-05 5.2978070e-05 -7.6675235e-07 
-4.4200064e-05 1.0004949e-05 -3.2412627e-05 
-1.7319595e-05 -8.9929836e-06 -5.6864934e-05 
-5.9933109e-06 -1.1065677e-05 -5.1624163e-05 
1.6149015e-05 -5.5705386e-06 -4.0430590e-05 
2.1227459e-05 2.4707785e-07 -2.5370806e-05 
1.9549490e-05 2.1247540e-06 -3.8136654e-06 
1.4725537e-05 1.0837871e-06 4.7328799e-06 
5.1114971e-06 -1.2080292e-06 8.3199920e-06 
1.5964262e-07 -3.1653358e-06 9.4332190e-06 
-2.8730403e-06 -4.0760024e-06 6.5207009e-06 
-3.5318444e-06 -4.2806910e-06 4.3230034e-06 
-3.2995242e-06 -3.9144729e-06 1.2003597e-06 
-2.0353327e-06 -2.9750988e-06 -3.4667336e-12 
-1.7174539e-06 -1.4050125e-06 -4.1043137e-07 
-8.0566377e-07 4.7844406e-07 -7.7671245e-07 
7.7235052e-07 2.1376125e-06 -7.3612853e-07 
8.2716400e-07 2.9479359e-06 3.6022638e-07 
1.2747258e-06 2.6047733e-06 -5.4583188e-07 
1.2727104e-07 1.4800842e-06 -5.3145317e-07 
-1.0322036e-07 1.7691045e-07 1.2798525e-07 
3.5394959e-07 -8.2409815e-07 -3.1949746e-08 
-1.5899820e-07 -1.3503879e-06 2.2802153e-07 
0.0000000e+00 -1.2691048e-04 0.0000000e+00 
0.0000000e+00 -1.2294446e-04 0.0000000e+00 
0.0000000e+00 -1.1263945e-04 0.0000000e+00 
0.0000000e+00 -9.8376127e-05 0.0000000e+00 
0.0000000e+00 -8.0278151e-05 0.0000000e+00 
0.0000000e+00 -5.7319190e-05 0.0000000e+00 
0.0000000e+00 -2.8688390e-05 0.0000000e+00 
0.0000000e+00 5.0225453e-06 0.0000000e+00 
0.0000000e+00 4.1863776e-05 0.0000000e+00 
0.0000000e+00 7.9364909e-05 0.0000000e+00 
0.0000000e+00 1.1550127e-04 0.0000000e+00 
0.0000000e+00 1.4774065e-04 0.0000000e+00 
0.0000000e+00 1.7098343e-04 0.0000000e+00 
0.0000000e+00 1.7520462e-04 0.0000000e+00 
0.0000000e+00 1.4105663e-04 0.0000000e+00 
0.0000000e+00 3.4707751e-05 0.0000000e+00 
0.0000000e+00 -1.9246902e-04 0.0000000e+00 
0.0000000e+00 -5.9910415e-04 0.0000000e+00 
0.0000000e+00 -1.2426764e-03 0.0000000e+00 
0.0000000e+00 -2.1570397e-03 0.0000000e+00 
0.0000000e+00 -3.2951829e-03 0.0000000e+00 
0.0000000e+00 -4.4600540e-03 0.0000000e+00 
0.0000000e+00 -5.1633376e-03 0.0000000e+00 
0.0000000e+00 -5.0330330e-03 0.0000000e+00 
0.0000000e+00 -4.7044549e-03 0.0000000e+00 
0.0000000e+00 -4.6225102e-03 0.0000000e+00 
0.0000000e+00 -4.7203377e-03 0.0000000e+00 
0.0000000e+00 -4.4939835e-03 0.0000000e+00 
0.0000000e+00 -3.4429424e-03 0.0000000e+00 
0.0000000e+00 -2.1519631e-03 0.0000000e+00 
0.0000000e+00 -1.0590599e-03 0.0000000e+00 
0.0000000e+00 -3.1545266e-04 0.0000000e+00 
0.0000000e+00 9.7657678e-05 0.0000000e+00 
0.0000000e+00 2.6574192e-04 0.0000000e+00 
0.0000000e+00 2.8050100e-04 0.0000000e+00 
0.0000000e+00 2.1584125e-04 0.0000000e+00 
0.0000000e+00 1.2541059e-04 0.0000000e+00 
0.0000000e+00 4.0648323e-05 0.0000000e+00 
0.0000000e+00 -2.4458648e-05 0.0000000e+00 
0.0000000e+00 -6.6523666e-05 0.0000000e+00 
0.0000000e+00 -8.8961729e-05 0.0000000e+00 
0.0000000e+00 -9.6650532e-05 0.0000000e+00 
0.0000000e+00 -9.3205519e-05 0.0000000e+00 
0.0000000e+00 -8.0188503e-05 0.0000000e+00 
0.0000000e+00 -5.8011483e-05 0.0000000e+00 
0.0000000e+00 -2.7776725e-05 0.0000000e+00 
0.0000000e+00 8.3465557e-06 0.0000000e+00 
0.0000000e+00 4.6875004e-05 0.0000000e+00 
0.0000000e+00 8.4840700e-05 0.0000000e+00 
0.0000000e+00 1.2158657e-04 0.0000000e+00 
0.0000000e+00 1.5851474e-04 0.0000000e+00 
0.0000000e+00 1.9347329e-04 0.0000000e+00 
0.0000000e+00 2.1999345e-04 0.0000000e+00 
0.0000000e+00 2.2302142e-04 0.0000000e+00 
0.0000000e+00 1.7535385e-04 0.0000000e+00 
0.0000000e+00 3.8813479e-05 0.0000000e+00 
0.0000000e+00 -2.3713250e-04 0.0000000e+00 
0.0000000e+00 -7.1000849e-04 0.0000000e+00 
0.0000000e+00 -1.4311621e-03 0.0000000e+00 
0.0000000e+00 -2.4197220e-03 0.0000000e+00 
0.0000000e+00 -3.6007394e-03 0.0000000e+00 
0.0000000e+00 -4.7303550e-03 0.0000000e+00 
0.0000000e+00 -5.2530826e-03 0.0000000e+00 
0.0000000e+00 -5.0157523e-03 0.0000000e+00 
0.0000000e+00 -4.7088340e-03 0.0000000e+00 
0.0000000e+00 -4.6825740e-03 0.0000000e+00 
0.0000000e+00 -4.7783852e-03 0.0000000e+00 
0.0000000e+00 -4.4013117e-03 0.0000000e+00 
0.0000000e+00 -3.2482040e-03 0.0000000e+00 
0.0000000e+00 -1.9696068e-03 0.0000000e+00 
0.0000000e+00 -9.2910591e-04 0.0000000e+00 
0.0000000e+00 -2.4395864e-04 0.0000000e+00 
0.0000000e+00 1.1951934e-04 0.0000000e+00 
0.0000000e+00 2.5401686e-04 0.0000000e+00 
0.0000000e+00 2.5439783e-04 0.0000000e+00 
0.0000000e+00 1.9431845e-04 0.0000000e+00 
0.0000000e+00 1.1899543e-04 0.0000000e+00 
0.0000000e+00 5.3551808e-05 0.0000000e+00 
0.0000000e+00 1.0433607e-05 0.0000000e+00 
0.0000000e+00 -8.9175765e-06 0.0000000e+00 
0.0000000e+00 -1.1228005e-05 0.0000000e+00 
0.0000000e+00 -5.7558823e-06 0.0000000e+00 
0.0000000e+00 -1.9111384e-08 0.0000000e+00 
0.0000000e+00 2.1094809e-06 0.0000000e+00 
0.0000000e+00 1.1187809e-06 0.0000000e+00 
0.0000000e+00 -1.1581933e-06 0.0000000e+00 
0.0000000e+00 -3.1194265e-06 0.0000000e+00 
0.0000000e+00 -4.0944901e-06 0.0000000e+00 
0.0000000e+00 -4.2938477e-06 0.0000000e+00 
0.0000000e+00 -3.9137803e-06 0.0000000e+00 
0.0000000e+00 -2.9527885e-06 0.0000000e+00 
0.0000000e+00 -1.3968717e-06 0.0000000e+00 
0.0000000e+00 4.7469700e-07 0.0000000e+00 
0.0000000e+00 2.1141084e-06 0.0000000e+00 
0.0000000e+00 2.9119224e-06 0.0000000e+00 
0.0000000e+00 2.6005523e-06 0.0000000e+00 
0.0000000e+00 1.4984345e-06 0.0000000e+00 
0.0000000e+00 1.9984050e-07 0.0000000e+00 
0.0000000e+00 -8.1033943e-07 0.0000000e+00 
0.0000000e+00 -1.3557976e-06 0.0000000e+00 
0.0000000e+00 -1.5104007e-06 0.0000000e+00 
-1.7171595e-05 2.0662474e-04 -1.8262872e-06 
3.0331661e-05 2.6949963e-05 3.7834700e-06 
3.6383262e-05 6.4098726e-06 -6.2750642e-06 
2.5145433e-05 2.6983293e-05 -9.5759915e-06 
0.0000000e+00 -1.0969501e-04 0.0000000e+00 
0.0000000e+00 0.0000000e+00 0.0000000e+00 
0.0000000e+00 0.0000000e+00 0.0000000e+00 
0.0000000e+00 0.0000000e+00 0.0000000e+00 
0.0000000e+00 0.0000000e+00 0.0000000e+00 
0.0000000e+00 0.0000000e+00 0.0000000e+00 
0.0000000e+00 0.0000000e+00 0.0000000e+00 
0.0000000e+00 0.0000000e+00 0.0000000e+00 
0.0000000e+00 0.0000000e+00 0.0000000e+00 
0.0000000e+00 0.0000000e+00 0.0000000e+00 
0.0000000e+00 0.0000000e+00 0.0000000e+00 
0.0000000e+00 0.0000000e+00 0.0000000e+00 
0.0000000e+00 0.0000000e+00 0.0000000e+00 
0.0000000e+00 0.0000000e+00 0.0000000e+00 
0.0000000e+00 0.0000000e+00 0.0000000e+00 
0.0000000e+00 0.0000000e+00 0.0000000e+00 
0.0000000e+00 0.0000000e+00 0.0000000e+00 
0.0000000e+00 0.0000000e+00 0.0000000e+00 
0.0000000e+00 0.0000000e+00 0.0000000e+00 
0.0000000e+00 0.0000000e+00 0.0000000e+00 
0.0000000e+00 0.0000000e+00 0.0000000e+00 
0.0000000e+00 0.0000000e+00 0.0000000e+00 
0.0000000e+00 0.0000000e+00 0.0000000e+00 
0.0000000e+00 0.0000000e+00 0.0000000e+00 
0.0000000e+00 0.0000000e+00 0.0000000e+00 
0.0000000e+00 0.0000000e+00 0.0000000e+00 
0.0000000e+00 0.0000000e+00 0.0000000e+00 
0.0000000e+00 0.0000000e+00 0.0000000e+00 
0.0000000e+00 0.0000000e+00 0.0000000e+00 
0.0000000e+00 0.0000000e+00 0.0000000e+00 
0.0000000e+00 0.0000000e+00 0.0000000e+00 
0.0000000e+00 0.0000000e+00 0.0000000e+00 
0.0000000e+00 0.0000000e+00 0.0000000e+00 
0.0000000e+00 0.0000000e+00 0.0000000e+00 
0.0000000e+00 0.0000000e+00 0.0000000e+00 
0.0000000e+00 0.0000000e+00 0.0000000e+00 
0.0000000e+00 0.0000000e+00 0.0000000e+00 
0.0000000e+00 0.0000000e+00 0.0000000e+00 
0.0000000e+00 0.0000000e+00 0.0000000e+00 
0.0000000e+00 0.0000000e+00 0.0000000e+00 
0.0000000e+00 0.0000000e+00 0.0000000e+00 
0.0000000e+00 0.0000000e+00 0.0000000e+00 
0.0000000e+00 0.0000000e+00 0.0000000e+00 
0.0000000e+00 0.0000000e+00 0.0000000e+00 
0.0000000e+00 0.0000000e+00 0.0000000e+00 
0.0000000e+00 0.0000000e+00 0.0000000e+00 
0.0000000e+00 0.0000000e+00 0.0000000e+00 
0.0000000e+00 0.0000000e+00 0.0000000e+00 
0.0000000e+00 0.0000000e+00 0.0000000e+00 
0.0000000e+00 0.0000000e+00 0.0000000e+00 
0.0000000e+00 0.0000000e+00 0.0000000e+00 
0.0000000e+00 0.0000000e+00 0.0000000e+00 
0.0000000e+00 0.0000000e+00 0.0000000e+00 
0.0000000e+00 0.0000000e+00 0.0000000e+00 
0.0000000e+00 0.0000000e+00 0.0000000e+00 
0.0000000e+00 0.0000000e+00 0.0000000e+00 
0.0000000e+00 0.0000000e+00 0.0000000e+00 
0.0000000e+00 0.0000000e+00 0.0000000e+00 
0.0000000e+00 0.0000000e+00 0.0000000e+00 
0.0000000e+00 0.0000000e+00 0.0000000e+00 
0.0000000e+00 0.0000000e+00 0.0000000e+00 
0.0000000e+00 0.0000000e+00 0.0000000e+00 
0.0000000e+00 0.0000000e+00 0.0000000e+00 
0.0000000e+00 0.0000000e+00 0.0000000e+00 
0.0000000e+00 0.0000000e+00 0.0000000e+00 
0.0000000e+00 0.0000000e+00 0.0000000e+00 
0.0000000e+00 0.0000000e+00 0.0000000e+00 
0.0000000e+00 0.0000000e+00 0.0000000e+00 
0.0000000e+00 0.0000000e+00 0.0000000e+00 
0.0000000e+00 0.0000000e+00 0.0000000e+00 
0.0000000e+00 0.0000000e+00 0.0000000e+00 
0.0000000e+00 0.0000000e+00 0.0000000e+00 
0.0000000e+00 0.0000000e+00 0.0000000e+00 
0.0000000e+00 0.0000000e+00 0.0000000e+00 
0.0000000e+00 0.0000000e+00 0.0000000e+00 
0.0000000e+00 0.0000000e+00 0.0000000e+00 
0.0000000e+00 0.0000000e+00 0.0000000e+00 
0.0000000e+00 0.0000000e+00 0.0000000e+00 
0.0000000e+00 0.0000000e+00 0.0000000e+00 
0.0000000e+00 0.0000000e+00 0.0000000e+00 
0.0000000e+00 0.0000000e+00 0.0000000e+00 
0.0000000e+00 0.0000000e+00 0.0000000e+00 
0.0000000e+00 0.0000000e+00 0.0000000e+00 
0.0000000e+00 0.0000000e+00 0.0000000e+00 
0.0000000e+00 0.0000000e+00 0.0000000e+00 
0.0000000e+00 0.0000000e+00 0.0000000e+00 
0.0000000e+00 0.0000000e+00 0.0000000e+00 
0.0000000e+00 0.0000000e+00 0.0000000e+00 
0.0000000e+00 0.0000000e+00 0.0000000e+00 
0.0000000e+00 0.0000000e+00 0.0000000e+00 
0.0000000e+00 0.0000000e+00 0.0000000e+00 
0.0000000e+00 0.0000000e+00 0.0000000e+00 
0.0000000e+00 0.0000000e+00 0.0000000e+00 
0.0000000e+00 0.0000000e+00 0.0000000e+00 
0.0000000e+00 0.0000000e+00 0.0000000e+00 
0.0000000e+00 0.0000000e+00 0.0000000e+00 
0.0000000e+00 0.0000000e+00 0.0000000e+00 
0.0000000e+00 0.0000000e+00 0.0000000e+00 
0.0000000e+00 0.0000000e+00 0.0000000e+00 
0.0000000e+00 0.0000000e+00 0.0000000e+00 
0.0000000e+00 0.0000000e+00 0.0000000e+00 
0.0000000e+00 0.0000000e+00 0.0000000e+00 
0.0000000e+00 0.0000000e+00 0.0000000e+00 
0.0000000e+00 0.0000000e+00 0.0000000e+00 
0.0000000e+00 0.0000000e+00 0.0000000e+00 
0.0000000e+00 0.0000000e+00 0.0000000e+00 
0.0000000e+00 0.0000000e+00 0.0000000e+00 
-7.1056220e-06 6.2826075e-06 8.6186037e-06 
-2.3950731e-06 1.1666661e-05 6.1788792e-06 
4.2165084e-06 1.3045701e-05 1.9825559e-06 
8.8104025e-06 1.3218705e-05 -3.0768820e-06 
1.6395177e-05 1.1697175e-05 -6.5686104e-06 
2.2834047e-05 1.1154381e-05 -8.9852383e-06 
2.7623042e-05 1.0378812e-05 -1.1048303e-05 
3.2169115e-05 1.1340858e-05 -1.1129276e-05 
3.7350048e-05 1.1556940e-05 -1.0386535e-05 
3.8138100e-05 4.8519746e-06 -1.3745062e-05 
3.7548623e-05 -2.3771638e-06 -1.6225980e-05 
3.8782004e-05 -8.7524049e-06 -1.5227193e-05 
3.3909870e-05 -1.4522989e-05 -1.2249502e-05 
2.0916881e-05 -1.1798885e-05 -3.0700990e-06 
1.2312152e-05 -5.6958538e-06 3.4742923e-06 
1.0435404e-05 -1.1515918e-06 1.2060039e-05 
6.8177706e-06 -2.4810340e-06 2.1680622e-05 
2.8033764e-06 -4.0800160e-06 2.4856743e-05 
-1.6271194e-06 -3.2367104e-06 1.9958485e-05 
-4.8409784e-06 1.5772205e-06 1.4209413e-05 
-5.5357259e-06 5.5231244e-06 9.6641143e-06 
8.3704651e-07 1.5170970e-05 1.8699077e-06 
6.2047202e-06 1.6035630e-05 -5.3367585e-06 
1.3269098e-05 1.3399023e-05 -7.3792153e-06 
1.7459088e-05 1.4175000e-05 -7.3929596e-06 
2.6872069e-05 1.3361175e-05 -7.1038930e-06 
3.2643089e-05 1.1728136e-05 -9.2483797e-06 
3.7478003e-05 1.1932279e-05 -1.2250812e-05 
4.4927692e-05 6.2097906e-06 -1.3969214e-05 
4.1934167e-05 1.3923730e-06 -1.3583819e-05 
3.7085687e-05 -2.6899052e-06 -1.1832216e-05 
3.1709424e-05 -1.2394118e-05 -1.0185247e-05 
2.3296225e-05 -8.7998224e-06 -2.7644123e-06 
1.7359795e-05 -4.8416018e-06 6.4502678e-06 
1.3005600e-05 -4.0383497e-06 1.2985751e-05 
1.0244491e-05 -6.4313190e-06 1.7916695e-05 
7.7504965e-06 -2.2510931e-06 2.0534962e-05 
5.7448078e-06 -1.2930572e-06 1.8254379e-05 
4.6187706e-06 -3.7061573e-06 1.2343139e-05 
3.2920245e-06 -4.5870474e-06 5.0107888e-06 
6.9982298e-07 -1.5228053e-07 4.4883717e-07 
-7.0863581e-07 3.1703717e-06 -3.1520519e-06 
-8.4548367e-07 1.6797397e-06 -4.8874658e-06 
-9.2760246e-07 -6.2371140e-07 -2.8289205e-06 
-3.2221024e-07 -9.9903701e-08 -4.3771033e-07 
4.5476858e-07 6.9019833e-08 7.3209856e-07 
2.6316053e-07 -9.6837809e-08 1.0499846e-06 
-3.5127496e-08 -2.6880608e-07 3.2721891e-07 
8.8234458e-08 5.1235418e-08 1.0512086e-08 
0.0000000e+00 1.8472618e-05 0.0000000e+00 
0.0000000e+00 2.3737954e-05 0.0000000e+00 
0.0000000e+00 1.0864082e-05 0.0000000e+00 
0.0000000e+00 -3.9601550e-06 0.0000000e+00 
0.0000000e+00 -9.3226590e-06 0.0000000e+00 
0.0000000e+00 -1.3913280e-05 0.0000000e+00 
0.0000000e+00 -3.4307654e-05 0.0000000e+00 
0.0000000e+00 -1.0332016e-04 0.0000000e+00 
0.0000000e+00 -2.2626562e-04 0.0000000e+00 
0.0000000e+00 -3.8355918e-04 0.0000000e+00 
0.0000000e+00 -4.7574582e-04 0.0000000e+00 
0.0000000e+00 -4.9651408e-04 0.0000000e+00 
0.0000000e+00 -4.6279799e-04 0.0000000e+00 
0.0000000e+00 -3.2256078e-04 0.0000000e+00 
0.0000000e+00 -1.7081127e-04 0.0000000e+00 
0.0000000e+00 -5.8462381e-05 0.0000000e+00 
0.0000000e+00 5.3736994e-06 0.0000000e+00 
0.0000000e+00 1.8033443e-05 0.0000000e+00 
0.0000000e+00 1.1126261e-05 0.0000000e+00 
0.0000000e+00 1.1896250e-05 0.0000000e+00 
0.0000000e+00 1.0867818e-05 0.0000000e+00 
0.0000000e+00 -6.2599279e-06 0.0000000e+00 
0.0000000e+00 -1.6424452e-05 0.0000000e+00 
0.0000000e+00 -3.2105225e-05 0.0000000e+00 
0.0000000e+00 -5.0570085e-05 0.0000000e+00 
0.0000000e+00 -6.8928457e-05 0.0000000e+00 
0.0000000e+00 -8.2461047e-05 0.0000000e+00 
0.0000000e+00 -1.2978636e-04 0.0000000e+00 
0.0000000e+00 -2.3723365e-04 0.0000000e+00 
0.0000000e+00 -3.8918332e-04 0.0000000e+00 
0.0000000e+00 -4.8502491e-04 0.0000000e+00 
0.0000000e+00 -5.1434123e-04 0.0000000e+00 
0.0000000e+00 -4.6552793e-04 0.0000000e+00 
0.0000000e+00 -3.1313390e-04 0.0000000e+00 
0.0000000e+00 -1.4468592e-04 0.0000000e+00 
0.0000000e+00 -1.6540695e-05 0.0000000e+00 
0.0000000e+00 1.0719387e-05 0.0000000e+00 
0.0000000e+00 1.6390415e-05 0.0000000e+00 
0.0000000e+00 2.2353531e-06 0.0000000e+00 
0.0000000e+00 3.6848455e-06 0.0000000e+00 
0.0000000e+00 5.2167143e-06 0.0000000e+00 
0.0000000e+00 -2.4073411e-06 0.0000000e+00 
0.0000000e+00 -3.1273753e-06 0.0000000e+00 
0.0000000e+00 3.8874259e-07 0.0000000e+00 
0.0000000e+00 1.3980180e-06 0.0000000e+00 
0.0000000e+00 1.6251114e-07 0.0000000e+00 
0.0000000e+00 -6.8366313e-07 0.0000000e+00 
0.0000000e+00 -8.0054480e-07 0.0000000e+00 
0.0000000e+00 -2.5742196e-07 0.0000000e+00 
-8.8128709e-06 3.6586664e-06 9.3203225e-06 
-4.0008122e-06 8.0725131e-06 1.2968482e-05 
1.0605694e-06 3.8510348e-06 1.3574943e-05 
3.1282802e-06 2.2252685e-07 4.7715680e-06 
6.2731033e-08 -1.3396158e-07 -9.6555333e-09 
1.6910856e-07 -1.9179885e-07 -4.0461632e-07 
-1.6719065e-07 1.2741336e-07 -4.8000061e-07 
-1.0614881e-08 1.5416957e-09 -4.5563996e-07 
-7.0544129e-06 4.1095445e-06 9.1147336e-07 
-2.2378754e-07 -7.5957679e-08 -3.8421703e-07 
4.7465869e-06 -1.5851170e-05 3.3349056e-06 
-4.9361932e-07 4.0724976e-06 2.4270910e-05 
0.0000000e+00 1.3097339e-05 0.0000000e+00 
0.0000000e+00 1.1601740e-05 0.0000000e+00 
0.0000000e+00 1.3796086e-06 0.0000000e+00 
0.0000000e+00 -1.2381328e-05 0.0000000e+00 
0.0000000e+00 -2.1000638e-05 0.0000000e+00 
0.0000000e+00 -3.1549072e-05 0.0000000e+00 
0.0000000e+00 -6.7464367e-05 0.0000000e+00 
0.0000000e+00 -2.1090501e-04 0.0000000e+00 
0.0000000e+00 -4.8682973e-04 0.0000000e+00 
0.0000000e+00 -8.5059891e-04 0.0000000e+00 
0.0000000e+00 -1.1075807e-03 0.0000000e+00 
0.0000000e+00 -1.0942337e-03 0.0000000e+00 
0.0000000e+00 -9.8134344e-04 0.0000000e+00 