# vtk DataFile Version 4.0
vtk output
ASCII
DATASET UNSTRUCTURED_GRID
POINTS 1919 float
0.0000000e+00 0.0000000e+00 0.0000000e+00 
0.0000000e+00 0.0000000e+00 5.0000000e+01 
5.0000000e+00 0.0000000e+00 0.0000000e+00 
5.0000000e+00 0.0000000e+00 5.0000000e+01 
5.0000000e+00 1.0000000e+00 0.0000000e+00 
5.0000000e+00 1.0000000e+00 5.0000000e+01 
0.0000000e+00 1.0000000e+00 0.0000000e+00 
0.0000000e+00 1.0000000e+00 5.0000000e+01 
5.0000000e+00 2.0000000e+00 0.0000000e+00 
5.0000000e+00 2.0000000e+00 5.0000000e+01 
3.0000000e+00 2.0000000e+00 0.0000000e+00 
3.0000000e+00 2.0000000e+00 5.0000000e+01 
0.0000000e+00 2.0000000e+00 0.0000000e+00 
0.0000000e+00 2.0000000e+00 5.0000000e+01 
1.5000000e+00 3.0000000e+00 0.0000000e+00 
1.5000000e+00 3.0000000e+00 5.0000000e+01 
7.5000000e-01 3.0000000e+00 0.0000000e+00 
7.5000000e-01 3.0000000e+00 5.0000000e+01 
0.0000000e+00 3.0000000e+00 0.0000000e+00 
0.0000000e+00 3.0000000e+00 5.0000000e+01 
7.5000000e-01 3.0000000e+00 5.0000000e-01 
7.5000000e-01 3.0000000e+00 1.0000000e+00 
7.5000000e-01 3.0000000e+00 1.5000000e+00 
7.5000000e-01 3.0000000e+00 2.0000000e+00 
7.5000000e-01 3.0000000e+00 2.5000000e+00 
7.5000000e-01 3.0000000e+00 3.0000000e+00 
7.5000000e-01 3.0000000e+00 3.5000000e+00 
7.5000000e-01 3.0000000e+00 4.0000000e+00 
7.5000000e-01 3.0000000e+00 4.5000000e+00 
7.5000000e-01 3.0000000e+00 5.0000000e+00 
7.5000000e-01 3.0000000e+00 5.5000000e+00 
7.5000000e-01 3.0000000e+00 6.0000000e+00 
7.5000000e-01 3.0000000e+00 6.5000000e+00 
7.5000000e-01 3.0000000e+00 7.0000000e+00 
7.5000000e-01 3.0000000e+00 7.5000000e+00 
7.5000000e-01 3.0000000e+00 8.0000000e+00 
7.5000000e-01 3.0000000e+00 8.5000000e+00 
7.5000000e-01 3.0000000e+00 9.0000000e+00 
7.5000000e-01 3.0000000e+00 9.5000000e+00 
7.5000000e-01 3.0000000e+00 1.0000000e+01 
7.5000000e-01 3.0000000e+00 1.0500000e+01 
7.5000000e-01 3.0000000e+00 1.1000000e+01 
7.5000000e-01 3.0000000e+00 1.1500000e+01 
7.5000000e-01 3.0000000e+00 1.2000000e+01 
7.5000000e-01 3.0000000e+00 1.2500000e+01 
7.5000000e-01 3.0000000e+00 1.3000000e+01 
7.5000000e-01 3.0000000e+00 1.3500000e+01 
7.5000000e-01 3.0000000e+00 1.4000000e+01 
7.5000000e-01 3.0000000e+00 1.4500000e+01 
7.5000000e-01 3.0000000e+00 1.5000000e+01 
7.5000000e-01 3.0000000e+00 1.5500000e+01 
7.5000000e-01 3.0000000e+00 1.6000000e+01 
7.5000000e-01 3.0000000e+00 1.6500000e+01 
7.5000000e-01 3.0000000e+00 1.7000000e+01 
7.5000000e-01 3.0000000e+00 1.7500000e+01 
7.5000000e-01 3.0000000e+00 1.8000000e+01 
7.5000000e-01 3.0000000e+00 1.8500000e+01 
7.5000000e-01 3.0000000e+00 1.9000000e+01 
7.5000000e-01 3.0000000e+00 1.9500000e+01 
7.5000000e-01 3.0000000e+00 2.0000000e+01 
7.5000000e-01 3.0000000e+00 2.0500000e+01 
7.5000000e-01 3.0000000e+00 2.1000000e+01 
7.5000000e-01 3.0000000e+00 2.1500000e+01 
7.5000000e-01 3.0000000e+00 2.2000000e+01 
7.5000000e-01 3.0000000e+00 2.2500000e+01 
7.5000000e-01 3.0000000e+00 2.3000000e+01 
7.5000000e-01 3.0000000e+00 2.3500000e+01 
7.5000000e-01 3.0000000e+00 2.4000000e+01 
7.5000000e-01 3.0000000e+00 2.4500000e+01 
7.5000000e-01 3.0000000e+00 2.5000000e+01 
7.5000000e-01 3.0000000e+00 2.5500000e+01 
7.5000000e-01 3.0000000e+00 2.6000000e+01 
7.5000000e-01 3.0000000e+00 2.6500000e+01 
7.5000000e-01 3.0000000e+00 2.7000000e+01 
7.5000000e-01 3.0000000e+00 2.7500000e+01 
7.5000000e-01 3.0000000e+00 2.8000000e+01 
7.5000000e-01 3.0000000e+00 2.8500000e+01 
7.5000000e-01 3.0000000e+00 2.9000000e+01 
7.5000000e-01 3.0000000e+00 2.9500000e+01 
7.5000000e-01 3.0000000e+00 3.0000000e+01 
7.5000000e-01 3.0000000e+00 3.0500000e+01 
7.5000000e-01 3.0000000e+00 3.1000000e+01 
7.5000000e-01 3.0000000e+00 3.1500000e+01 
7.5000000e-01 3.0000000e+00 3.2000000e+01 
7.5000000e-01 3.0000000e+00 3.2500000e+01 
7.5000000e-01 3.0000000e+00 3.3000000e+01 
7.5000000e-01 3.0000000e+00 3.3500000e+01 
7.5000000e-01 3.0000000e+00 3.4000000e+01 
7.5000000e-01 3.0000000e+00 3.4500000e+01 
7.5000000e-01 3.0000000e+00 3.5000000e+01 
7.5000000e-01 3.0000000e+00 3.5500000e+01 
7.5000000e-01 3.0000000e+00 3.6000000e+01 
7.5000000e-01 3.0000000e+00 3.6500000e+01 
7.5000000e-01 3.0000000e+00 3.7000000e+01 
7.5000000e-01 3.0000000e+00 3.7500000e+01 
7.5000000e-01 3.0000000e+00 3.8000000e+01 
7.5000000e-01 3.0000000e+00 3.8500000e+01 
7.5000000e-01 3.0000000e+00 3.9000000e+01 
7.5000000e-01 3.0000000e+00 3.9500000e+01 
7.5000000e-01 3.0000000e+00 4.0000000e+01 
7.5000000e-01 3.0000000e+00 4.0500000e+01 
7.5000000e-01 3.0000000e+00 4.1000000e+01 
7.5000000e-01 3.0000000e+00 4.1500000e+01 
7.5000000e-01 3.0000000e+00 4.2000000e+01 
7.5000000e-01 3.0000000e+00 4.2500000e+01 
7.5000000e-01 3.0000000e+00 4.3000000e+01 
7.5000000e-01 3.0000000e+00 4.3500000e+01 
7.5000000e-01 3.0000000e+00 4.4000000e+01 
7.5000000e-01 3.0000000e+00 4.4500000e+01 
7.5000000e-01 3.0000000e+00 4.5000000e+01 
7.5000000e-01 3.0000000e+00 4.5500000e+01 
7.5000000e-01 3.0000000e+00 4.6000000e+01 
7.5000000e-01 3.0000000e+00 4.6500000e+01 
7.5000000e-01 3.0000000e+00 4.7000000e+01 
7.5000000e-01 3.0000000e+00 4.7500000e+01 
7.5000000e-01 3.0000000e+00 4.8000000e+01 
7.5000000e-01 3.0000000e+00 4.8500000e+01 
7.5000000e-01 3.0000000e+00 4.9000000e+01 
7.5000000e-01 3.0000000e+00 4.9500000e+01 
7.5000000e-01 3.0250001e+00 0.0000000e+00 
7.5000000e-01 3.0250001e+00 5.0000000e-01 
7.5000000e-01 3.0250001e+00 1.0000000e+00 
7.5000000e-01 3.0250001e+00 1.5000000e+00 
7.5000000e-01 3.0250001e+00 2.0000000e+00 
7.5000000e-01 3.0250001e+00 2.5000000e+00 
7.5000000e-01 3.0250001e+00 3.0000000e+00 
7.5000000e-01 3.0250001e+00 3.5000000e+00 
7.5000000e-01 3.0250001e+00 4.0000000e+00 
7.5000000e-01 3.0250001e+00 4.5000000e+00 
7.5000000e-01 3.0250001e+00 5.0000000e+00 
7.5000000e-01 3.0250001e+00 5.5000000e+00 
7.5000000e-01 3.0250001e+00 6.0000000e+00 
7.5000000e-01 3.0250001e+00 6.5000000e+00 
7.5000000e-01 3.0250001e+00 7.0000000e+00 
7.5000000e-01 3.0250001e+00 7.5000000e+00 
7.5000000e-01 3.0250001e+00 8.0000000e+00 
7.5000000e-01 3.0250001e+00 8.5000000e+00 
7.5000000e-01 3.0250001e+00 9.0000000e+00 
7.5000000e-01 3.0250001e+00 9.5000000e+00 
7.5000000e-01 3.0250001e+00 1.0000000e+01 
7.5000000e-01 3.0250001e+00 1.0500000e+01 
7.5000000e-01 3.0250001e+00 1.1000000e+01 
7.5000000e-01 3.0250001e+00 1.1500000e+01 
7.5000000e-01 3.0250001e+00 1.2000000e+01 
7.5000000e-01 3.0250001e+00 1.2500000e+01 
7.5000000e-01 3.0250001e+00 1.3000000e+01 
7.5000000e-01 3.0250001e+00 1.3500000e+01 
7.5000000e-01 3.0250001e+00 1.4000000e+01 
7.5000000e-01 3.0250001e+00 1.4500000e+01 
7.5000000e-01 3.0250001e+00 1.5000000e+01 
7.5000000e-01 3.0250001e+00 1.5500000e+01 
7.5000000e-01 3.0250001e+00 1.6000000e+01 
7.5000000e-01 3.0250001e+00 1.6500000e+01 
7.5000000e-01 3.0250001e+00 1.7000000e+01 
7.5000000e-01 3.0250001e+00 1.7500000e+01 
7.5000000e-01 3.0250001e+00 1.8000000e+01 
7.5000000e-01 3.0250001e+00 1.8500000e+01 
7.5000000e-01 3.0250001e+00 1.9000000e+01 
7.5000000e-01 3.0250001e+00 1.9500000e+01 
7.5000000e-01 3.0250001e+00 2.0000000e+01 
7.5000000e-01 3.0250001e+00 2.0500000e+01 
7.5000000e-01 3.0250001e+00 2.1000000e+01 
7.5000000e-01 3.0250001e+00 2.1500000e+01 
7.5000000e-01 3.0250001e+00 2.2000000e+01 
7.5000000e-01 3.0250001e+00 2.2500000e+01 
7.5000000e-01 3.0250001e+00 2.3000000e+01 
7.5000000e-01 3.0250001e+00 2.3500000e+01 
7.5000000e-01 3.0250001e+00 2.4000000e+01 
7.5000000e-01 3.0250001e+00 2.4500000e+01 
7.5000000e-01 3.0250001e+00 2.5000000e+01 
7.5000000e-01 3.0250001e+00 2.5500000e+01 
7.5000000e-01 3.0250001e+00 2.6000000e+01 
7.5000000e-01 3.0250001e+00 2.6500000e+01 
7.5000000e-01 3.0250001e+00 2.7000000e+01 
7.5000000e-01 3.0250001e+00 2.7500000e+01 
7.5000000e-01 3.0250001e+00 2.8000000e+01 
7.5000000e-01 3.0250001e+00 2.8500000e+01 
7.5000000e-01 3.0250001e+00 2.9000000e+01 
7.5000000e-01 3.0250001e+00 2.9500000e+01 
7.5000000e-01 3.0250001e+00 3.0000000e+01 
7.5000000e-01 3.0250001e+00 3.0500000e+01 
7.5000000e-01 3.0250001e+00 3.1000000e+01 
7.5000000e-01 3.0250001e+00 3.1500000e+01 
7.5000000e-01 3.0250001e+00 3.2000000e+01 
7.5000000e-01 3.0250001e+00 3.2500000e+01 
7.5000000e-01 3.0250001e+00 3.3000000e+01 
7.5000000e-01 3.0250001e+00 3.3500000e+01 
7.5000000e-01 3.0250001e+00 3.4000000e+01 
7.5000000e-01 3.0250001e+00 3.4500000e+01 
7.5000000e-01 3.0250001e+00 3.5000000e+01 
7.5000000e-01 3.0250001e+00 3.5500000e+01 
7.5000000e-01 3.0250001e+00 3.6000000e+01 
7.5000000e-01 3.0250001e+00 3.6500000e+01 
7.5000000e-01 3.0250001e+00 3.7000000e+01 
7.5000000e-01 3.0250001e+00 3.7500000e+01 
7.5000000e-01 3.0250001e+00 3.8000000e+01 
7.5000000e-01 3.0250001e+00 3.8500000e+01 
7.5000000e-01 3.0250001e+00 3.9000000e+01 
7.5000000e-01 3.0250001e+00 3.9500000e+01 
7.5000000e-01 3.0250001e+00 4.0000000e+01 
7.5000000e-01 3.0250001e+00 4.0500000e+01 
7.5000000e-01 3.0250001e+00 4.1000000e+01 
7.5000000e-01 3.0250001e+00 4.1500000e+01 
7.5000000e-01 3.0250001e+00 4.2000000e+01 
7.5000000e-01 3.0250001e+00 4.2500000e+01 
7.5000000e-01 3.0250001e+00 4.3000000e+01 
7.5000000e-01 3.0250001e+00 4.3500000e+01 
7.5000000e-01 3.0250001e+00 4.4000000e+01 
7.5000000e-01 3.0250001e+00 4.4500000e+01 
7.5000000e-01 3.0250001e+00 4.5000000e+01 
7.5000000e-01 3.0250001e+00 4.5500000e+01 
7.5000000e-01 3.0250001e+00 4.6000000e+01 
7.5000000e-01 3.0250001e+00 4.6500000e+01 
7.5000000e-01 3.0250001e+00 4.7000000e+01 
7.5000000e-01 3.0250001e+00 4.7500000e+01 
7.5000000e-01 3.0250001e+00 4.8000000e+01 
7.5000000e-01 3.0250001e+00 4.8500000e+01 
7.5000000e-01 3.0250001e+00 4.9000000e+01 
7.5000000e-01 3.0250001e+00 4.9500000e+01 
7.5000000e-01 3.0250001e+00 5.0000000e+01 
1.5000000e+00 3.0000000e+00 2.5000000e+01 
3.0000000e+00 2.0000000e+00 2.5000000e+01 
4.0000000e+00 2.0000000e+00 2.5000000e+01 
5.0000000e+00 2.0000000e+00 2.5000000e+01 
0.0000000e+00 3.0000000e+00 2.5000000e+01 
0.0000000e+00 0.0000000e+00 1.0000000e+00 
0.0000000e+00 0.0000000e+00 2.0000000e+00 
0.0000000e+00 0.0000000e+00 3.0000000e+00 
0.0000000e+00 0.0000000e+00 4.0000000e+00 
0.0000000e+00 0.0000000e+00 5.0000000e+00 
[...]
POINT_DATA 1919
FIELD FieldData 3
DISPLACEMENT 3 1919  float
0.0000000e+00 0.0000000e+00 0.0000000e+00 
0.0000000e+00 0.0000000e+00 0.0000000e+00 
0.0000000e+00 0.0000000e+00 0.0000000e+00 
0.0000000e+00 0.0000000e+00 0.0000000e+00 
1.1385524e-06 -4.5365536e-07 -5.1925821e-07 
3.2579777e-07 5.3299703e-07 -1.5250227e-07 
0.0000000e+00 5.3229305e-06 0.0000000e+00 
0.0000000e+00 2.4765200e-06 0.0000000e+00 
2.1279550e-06 -4.0255401e-07 -1.3383514e-06 
3.9710014e-07 1.2042983e-06 -1.0509284e-06 
3.1802667e-06 8.5111986e-07 -1.8490969e-06 
1.1084824e-06 3.1948880e-06 6.1856537e-07 
0.0000000e+00 8.1461440e-06 0.0000000e+00 
0.0000000e+00 2.7595024e-06 0.0000000e+00 
1.9723309e-06 -3.0640622e-06 6.5220206e-06 
9.9504894e-07 1.1838647e-05 -6.2436034e-06 
1.5599089e-06 -1.2482522e-05 -3.0089525e-06 
-1.5800125e-06 2.3486637e-06 -1.0364730e-05 
0.0000000e+00 5.5960500e-06 0.0000000e+00 
0.0000000e+00 -4.7185895e-06 0.0000000e+00 
6.4144621e-07 -9.8311193e-06 9.5606015e-07 
-2.5428242e-06 -3.4430725e-06 1.2568870e-06 
-6.5504232e-06 3.8940211e-06 -8.8802886e-07 
-4.6620321e-06 1.0070434e-05 -2.9230557e-06 
-4.5237643e-06 1.3906070e-05 -5.7735651e-06 
-1.8612884e-06 1.6082271e-05 -3.1257334e-06 
-3.6262236e-06 1.8236182e-05 -2.7460640e-06 
-2.6549342e-06 2.1130350e-05 -5.5674000e-06 
-3.9580973e-06 2.3650084e-05 -8.6419277e-06 
-1.3169224e-06 2.4086783e-05 -1.3777641e-05 
-7.0640915e-10 2.1477999e-05 -1.7541550e-05 
4.7091194e-06 1.6044178e-05 -1.6620184e-05 
5.0717281e-06 1.0316556e-05 -1.4979072e-05 
5.4105531e-06 8.0572963e-06 -1.2653749e-05 
6.1123029e-07 1.1111722e-05 -9.7562688e-06 
8.4438756e-07 1.6922560e-05 -9.8858800e-06 
4.7545967e-07 1.9776202e-05 -4.8034267e-06 
2.8186516e-06 1.5221197e-05 9.2834904e-07 
1.8107547e-06 6.0336415e-06 7.1960158e-06 
4.6769327e-07 8.8026582e-07 1.8202954e-05 
-4.2553615e-06 5.4353250e-06 2.5667294e-05 
-2.9344235e-06 1.8753866e-05 2.7289821e-05 
-3.6599249e-06 3.1771935e-05 2.7366437e-05 
-9.3945846e-07 3.4318859e-05 2.4267791e-05 
3.8796434e-06 2.5804406e-05 2.2436463e-05 
5.4861465e-07 1.6866337e-05 2.3018962e-05 
-5.3781332e-06 2.4956953e-05 2.6681364e-05 
-3.2263708e-06 6.0222388e-05 3.1217256e-05 
1.8329920e-06 9.7839918e-05 5.0674251e-05 
-3.4460134e-06 7.9797734e-05 5.5389457e-05 
-8.2425404e-06 -4.1875624e-05 8.4139174e-05 
-2.0759915e-05 -2.9483426e-04 9.5107513e-05 
-6.4912056e-05 -6.9232355e-04 1.5461734e-04 
-1.8067037e-04 -1.2563337e-03 2.7633892e-04 
-1.5012828e-04 -2.0273752e-03 2.2502555e-04 
-1.6786333e-04 -3.0025200e-03 1.0471608e-04 
-2.3698792e-04 -4.0535373e-03 1.4148431e-04 
-2.5075223e-04 -4.7370768e-03 2.9528994e-05 
-2.4746690e-04 -4.6436577e-03 -3.1382795e-05 
-2.3811965e-04 -4.2813481e-03 -7.0552509e-05 
-2.1035875e-04 -4.1421200e-03 -7.0296308e-05 
-2.2524716e-04 -4.2213905e-03 -1.5753815e-04 
-2.2453097e-04 -4.1114730e-03 -2.2855017e-04 
-1.2410566e-04 -3.2360007e-03 -2.2959022e-04 
-1.3539239e-04 -2.0535111e-03 -2.5130526e-04 
-5.1819297e-05 -1.0238301e-03 -1.0204833e-04 
-1.4968308e-05 -3.4084497e-04 -1.6223163e-04 
6.8561239e-06 2.5988533e-05 -6.5016298e-05 
1.3808824e-05 1.7065059e-04 -3.1818825e-05 
1.1289872e-05 1.9838627e-04 -5.9295571e-06 
1.0133148e-05 1.7936944e-04 1.6997928e-05 
1.2715564e-05 1.3706998e-04 2.2687103e-05 
5.3229587e-06 8.4455918e-05 2.7613089e-05 
5.2904070e-06 3.8464797e-05 2.4515950e-05 
6.2063668e-07 1.6999591e-05 2.2803117e-05 
-6.1799184e-08 1.8794986e-05 1.1078422e-05 
-3.3763574e-06 2.9429371e-05 8.4745443e-06 
-4.3919895e-06 3.2856682e-05 5.0175045e-06 
-4.5590905e-06 2.3383842e-05 -1.4056594e-07 
-4.4391691e-06 8.1823173e-06 -2.7036951e-06 
-4.1109720e-06 8.5906612e-07 -3.6447075e-06 
-6.1094420e-06 8.1958342e-06 -4.6417022e-06 
-4.1280186e-06 2.3397095e-05 1.7172589e-06 
4.6638079e-06 3.5480924e-05 3.4086604e-06 
1.1409191e-05 3.7928679e-05 1.0502473e-05 
9.3046119e-06 3.0188954e-05 1.5577241e-05 
1.3320140e-05 2.2556471e-05 1.6699350e-05 
6.2474733e-06 2.8551693e-05 2.2325150e-05 
9.0795925e-07 4.5745619e-05 4.3399112e-05 
1.0934197e-06 4.1425006e-05 5.1017018e-05 
-8.9119176e-06 -5.0286653e-05 9.8849698e-05 
-2.1915854e-05 -3.0695804e-04 9.8616023e-05 
-5.3531829e-05 -7.7361544e-04 1.3837077e-04 
-8.9862406e-05 -1.4477775e-03 9.8546821e-05 
-1.8442584e-04 -2.3169480e-03 1.7896727e-04 
-4.3966761e-04 -3.3181112e-03 2.9921622e-04 
-2.4837395e-04 -4.2413524e-03 1.4006962e-04 
-2.2961143e-04 -4.7234194e-03 4.3494005e-05 
-2.3643558e-04 -4.5739110e-03 -3.5030054e-05 
-2.3880191e-04 -4.2812456e-03 -5.6361503e-05 
-2.1513707e-04 -4.2136754e-03 -5.7322555e-05 
-2.1843279e-04 -4.2357980e-03 -1.4488368e-04 
-1.8642425e-04 -3.9206012e-03 -2.0778940e-04 
-1.5715498e-04 -2.9327082e-03 -1.5433034e-04 
-8.4918858e-05 -1.7892768e-03 -2.3771572e-04 
-5.3972617e-05 -8.6053339e-04 -1.2567216e-04 
-3.1594548e-06 -2.6556972e-04 -1.2628484e-04 
1.0332713e-05 4.7561127e-05 -4.9272992e-05 
2.1623231e-05 1.7347904e-04 -1.6669155e-05 
1.9507426e-05 1.8978493e-04 8.8739162e-06 
1.2006944e-05 1.5040628e-04 2.4682351e-05 
7.7264158e-06 9.2168812e-05 2.3642213e-05 
2.6847379e-06 4.2916497e-05 2.6234302e-05 
4.0059115e-07 1.3377248e-05 2.0346681e-05 
-2.7075926e-06 2.0295347e-06 1.7032989e-05 
-3.5688802e-06 5.4045398e-07 1.4123404e-05 
-4.4885992e-06 1.6632674e-06 7.8589292e-06 
-4.0157247e-06 2.3446878e-06 4.8435022e-06 
-2.0614495e-06 2.4377428e-06 -1.9031486e-06 
0.0000000e+00 -1.2408841e-05 0.0000000e+00 
0.0000000e+00 -9.8044984e-06 0.0000000e+00 
0.0000000e+00 -3.4743814e-06 0.0000000e+00 
0.0000000e+00 3.8713829e-06 0.0000000e+00 
0.0000000e+00 1.0004604e-05 0.0000000e+00 
0.0000000e+00 1.3857017e-05 0.0000000e+00 
0.0000000e+00 1.6096172e-05 0.0000000e+00 
0.0000000e+00 1.8317905e-05 0.0000000e+00 
0.0000000e+00 2.1190777e-05 0.0000000e+00 
0.0000000e+00 2.3670162e-05 0.0000000e+00 
0.0000000e+00 2.4072946e-05 0.0000000e+00 
0.0000000e+00 2.1374066e-05 0.0000000e+00 
0.0000000e+00 1.5964848e-05 0.0000000e+00 
0.0000000e+00 1.0367327e-05 0.0000000e+00 
0.0000000e+00 8.2355082e-06 0.0000000e+00 
0.0000000e+00 1.1330784e-05 0.0000000e+00 
0.0000000e+00 1.6993490e-05 0.0000000e+00 
0.0000000e+00 1.9496110e-05 0.0000000e+00 
0.0000000e+00 1.4869242e-05 0.0000000e+00 
0.0000000e+00 6.0079024e-06 0.0000000e+00 
0.0000000e+00 1.1045838e-06 0.0000000e+00 
0.0000000e+00 5.9261893e-06 0.0000000e+00 
0.0000000e+00 1.9003606e-05 0.0000000e+00 
0.0000000e+00 3.1468659e-05 0.0000000e+00 
0.0000000e+00 3.3799901e-05 0.0000000e+00 
0.0000000e+00 2.5220410e-05 0.0000000e+00 
0.0000000e+00 1.6819549e-05 0.0000000e+00 
0.0000000e+00 2.6548130e-05 0.0000000e+00 
0.0000000e+00 6.2255400e-05 0.0000000e+00 
0.0000000e+00 9.8095792e-05 0.0000000e+00 
0.0000000e+00 7.9211735e-05 0.0000000e+00 
0.0000000e+00 -4.3027867e-05 0.0000000e+00 
0.0000000e+00 -2.9530603e-04 0.0000000e+00 
0.0000000e+00 -6.9189572e-04 0.0000000e+00 
0.0000000e+00 -1.2580664e-03 0.0000000e+00 
0.0000000e+00 -2.0334139e-03 0.0000000e+00 
0.0000000e+00 -3.0190086e-03 0.0000000e+00 
0.0000000e+00 -4.0740711e-03 0.0000000e+00 
0.0000000e+00 -4.7669094e-03 0.0000000e+00 
0.0000000e+00 -4.6650721e-03 0.0000000e+00 
0.0000000e+00 -4.3065893e-03 0.0000000e+00 
0.0000000e+00 -4.1631479e-03 0.0000000e+00 
0.0000000e+00 -4.2506489e-03 0.0000000e+00 
0.0000000e+00 -4.1353316e-03 0.0000000e+00 
0.0000000e+00 -3.2555612e-03 0.0000000e+00 
0.0000000e+00 -2.0678258e-03 0.0000000e+00 
0.0000000e+00 -1.0349719e-03 0.0000000e+00 
0.0000000e+00 -3.4326108e-04 0.0000000e+00 
0.0000000e+00 2.6380112e-05 0.0000000e+00 
0.0000000e+00 1.7262975e-04 0.0000000e+00 
0.0000000e+00 2.0044559e-04 0.0000000e+00 
0.0000000e+00 1.7976441e-04 0.0000000e+00 
0.0000000e+00 1.3705625e-04 0.0000000e+00 
0.0000000e+00 8.4657324e-05 0.0000000e+00 
0.0000000e+00 3.9439059e-05 0.0000000e+00 
0.0000000e+00 1.7502936e-05 0.0000000e+00 
0.0000000e+00 1.8699260e-05 0.0000000e+00 
0.0000000e+00 2.9044213e-05 0.0000000e+00 
0.0000000e+00 3.2527121e-05 0.0000000e+00 
0.0000000e+00 2.3104905e-05 0.0000000e+00 
0.0000000e+00 8.2543975e-06 0.0000000e+00 
0.0000000e+00 1.3021219e-06 0.0000000e+00 
0.0000000e+00 8.4645408e-06 0.0000000e+00 
0.0000000e+00 2.3500610e-05 0.0000000e+00 
0.0000000e+00 3.5423225e-05 0.0000000e+00 
0.0000000e+00 3.7378180e-05 0.0000000e+00 
0.0000000e+00 2.9806224e-05 0.0000000e+00 
0.0000000e+00 2.2907181e-05 0.0000000e+00 
0.0000000e+00 2.9762197e-05 0.0000000e+00 
0.0000000e+00 4.7837540e-05 0.0000000e+00 
0.0000000e+00 4.2936088e-05 0.0000000e+00 
0.0000000e+00 -5.1369505e-05 0.0000000e+00 
0.0000000e+00 -3.0964194e-04 0.0000000e+00 
0.0000000e+00 -7.7524513e-04 0.0000000e+00 
0.0000000e+00 -1.4514504e-03 0.0000000e+00 
0.0000000e+00 -2.3243872e-03 0.0000000e+00 
0.0000000e+00 -3.3296917e-03 0.0000000e+00 
0.0000000e+00 -4.2650318e-03 0.0000000e+00 
0.0000000e+00 -4.7550909e-03 0.0000000e+00 
0.0000000e+00 -4.5970022e-03 0.0000000e+00 
0.0000000e+00 -4.3070852e-03 0.0000000e+00 
0.0000000e+00 -4.2329966e-03 0.0000000e+00 
0.0000000e+00 -4.2626048e-03 0.0000000e+00 
0.0000000e+00 -3.9432463e-03 0.0000000e+00 
0.0000000e+00 -2.9559154e-03 0.0000000e+00 
0.0000000e+00 -1.8019801e-03 0.0000000e+00 
0.0000000e+00 -8.6799031e-04 0.0000000e+00 
0.0000000e+00 -2.6694071e-04 0.0000000e+00 
0.0000000e+00 4.8621703e-05 0.0000000e+00 
0.0000000e+00 1.7450078e-04 0.0000000e+00 
0.0000000e+00 1.9061226e-04 0.0000000e+00 
0.0000000e+00 1.5111810e-04 0.0000000e+00 
0.0000000e+00 9.3303337e-05 0.0000000e+00 
0.0000000e+00 4.3554744e-05 0.0000000e+00 
0.0000000e+00 1.3463473e-05 0.0000000e+00 
0.0000000e+00 1.7644891e-06 0.0000000e+00 
0.0000000e+00 3.5394294e-07 0.0000000e+00 
0.0000000e+00 1.7206791e-06 0.0000000e+00 
0.0000000e+00 2.4709489e-06 0.0000000e+00 
0.0000000e+00 2.3954424e-06 0.0000000e+00 
0.0000000e+00 2.2185047e-06 0.0000000e+00 
2.3229490e-05 6.8012603e-05 -1.1986829e-05 
5.9642289e-06 3.6174349e-06 2.5518170e-06 
7.8960820e-06 -2.1472940e-06 8.5347547e-06 
7.2719281e-06 -1.1032660e-06 1.2852310e-05 
0.0000000e+00 7.1824397e-05 0.0000000e+00 
0.0000000e+00 0.0000000e+00 0.0000000e+00 
0.0000000e+00 0.0000000e+00 0.0000000e+00 
0.0000000e+00 0.0000000e+00 0.0000000e+00 
0.0000000e+00 0.0000000e+00 0.0000000e+00 
0.0000000e+00 0.0000000e+00 0.0000000e+00 
0.0000000e+00 0.0000000e+00 0.0000000e+00 
0.0000000e+00 0.0000000e+00 0.0000000e+00 
0.0000000e+00 0.0000000e+00 0.0000000e+00 
0.0000000e+00 0.0000000e+00 0.0000000e+00 
0.0000000e+00 0.0000000e+00 0.0000000e+00 
0.0000000e+00 0.0000000e+00 0.0000000e+00 
0.0000000e+00 0.0000000e+00 0.0000000e+00 
0.0000000e+00 0.0000000e+00 0.0000000e+00 
0.0000000e+00 0.0000000e+00 0.0000000e+00 
0.0000000e+00 0.0000000e+00 0.0000000e+00 
0.0000000e+00 0.0000000e+00 0.0000000e+00 
0.0000000e+00 0.0000000e+00 0.0000000e+00 
0.0000000e+00 0.0000000e+00 0.0000000e+00 
0.0000000e+00 0.0000000e+00 0.0000000e+00 
0.0000000e+00 0.0000000e+00 0.0000000e+00 
0.0000000e+00 0.0000000e+00 0.0000000e+00 
0.0000000e+00 0.0000000e+00 0.0000000e+00 
0.0000000e+00 0.0000000e+00 0.0000000e+00 
0.0000000e+00 0.0000000e+00 0.0000000e+00 
0.0000000e+00 0.0000000e+00 0.0000000e+00 
0.0000000e+00 0.0000000e+00 0.0000000e+00 
0.0000000e+00 0.0000000e+00 0.0000000e+00 
0.0000000e+00 0.0000000e+00 0.0000000e+00 
0.0000000e+00 0.0000000e+00 0.0000000e+00 
0.0000000e+00 0.0000000e+00 0.0000000e+00 
0.0000000e+00 0.0000000e+00 0.0000000e+00 
0.0000000e+00 0.0000000e+00 0.0000000e+00 
0.0000000e+00 0.0000000e+00 0.0000000e+00 
0.0000000e+00 0.0000000e+00 0.0000000e+00 
0.0000000e+00 0.0000000e+00 0.0000000e+00 
0.0000000e+00 0.0000000e+00 0.0000000e+00 
0.0000000e+00 0.0000000e+00 0.0000000e+00 
0.0000000e+00 0.0000000e+00 0.0000000e+00 
0.0000000e+00 0.0000000e+00 0.0000000e+00 
0.0000000e+00 0.0000000e+00 0.0000000e+00 
0.0000000e+00 0.0000000e+00 0.0000000e+00 
0.0000000e+00 0.0000000e+00 0.0000000e+00 
0.0000000e+00 0.0000000e+00 0.0000000e+00 
0.0000000e+00 0.0000000e+00 0.0000000e+00 
0.0000000e+00 0.0000000e+00 0.0000000e+00 
0.0000000e+00 0.0000000e+00 0.0000000e+00 
0.0000000e+00 0.0000000e+00 0.0000000e+00 
0.0000000e+00 0.0000000e+00 0.0000000e+00 
0.0000000e+00 0.0000000e+00 0.0000000e+00 
0.0000000e+00 0.0000000e+00 0.0000000e+00 
0.0000000e+00 0.0000000e+00 0.0000000e+00 
0.0000000e+00 0.0000000e+00 0.0000000e+00 
0.0000000e+00 0.0000000e+00 0.0000000e+00 
0.0000000e+00 0.0000000e+00 0.0000000e+00 
0.0000000e+00 0.0000000e+00 0.0000000e+00 
0.0000000e+00 0.0000000e+00 0.0000000e+00 
0.0000000e+00 0.0000000e+00 0.0000000e+00 
0.0000000e+00 0.0000000e+00 0.0000000e+00 
0.0000000e+00 0.0000000e+00 0.0000000e+00 
0.0000000e+00 0.0000000e+00 0.0000000e+00 
0.0000000e+00 0.0000000e+00 0.0000000e+00 
0.0000000e+00 0.0000000e+00 0.0000000e+00 
0.0000000e+00 0.0000000e+00 0.0000000e+00 
0.0000000e+00 0.0000000e+00 0.0000000e+00 
0.0000000e+00 0.0000000e+00 0.0000000e+00 
0.0000000e+00 0.0000000e+00 0.0000000e+00 
0.0000000e+00 0.0000000e+00 0.0000000e+00 
0.0000000e+00 0.0000000e+00 0.0000000e+00 
0.0000000e+00 0.0000000e+00 0.0000000e+00 
0.0000000e+00 0.0000000e+00 0.0000000e+00 
0.0000000e+00 0.0000000e+00 0.0000000e+00 
0.0000000e+00 0.0000000e+00 0.0000000e+00 
0.0000000e+00 0.0000000e+00 0.0000000e+00 
0.0000000e+00 0.0000000e+00 0.0000000e+00 
0.0000000e+00 0.0000000e+00 0.0000000e+00 
0.0000000e+00 0.0000000e+00 0.0000000e+00 
0.0000000e+00 0.0000000e+00 0.0000000e+00 
0.0000000e+00 0.0000000e+00 0.0000000e+00 
0.0000000e+00 0.0000000e+00 0.0000000e+00 
0.0000000e+00 0.0000000e+00 0.0000000e+00 
0.0000000e+00 0.0000000e+00 0.0000000e+00 
0.0000000e+00 0.0000000e+00 0.0000000e+00 
0.0000000e+00 0.0000000e+00 0.0000000e+00 
0.0000000e+00 0.0000000e+00 0.0000000e+00 
0.0000000e+00 0.0000000e+00 0.0000000e+00 
0.0000000e+00 0.0000000e+00 0.0000000e+00 
0.0000000e+00 0.0000000e+00 0.0000000e+00 
0.0000000e+00 0.0000000e+00 0.0000000e+00 
0.0000000e+00 0.0000000e+00 0.0000000e+00 
0.0000000e+00 0.0000000e+00 0.0000000e+00 
0.0000000e+00 0.0000000e+00 0.0000000e+00 
0.0000000e+00 0.0000000e+00 0.0000000e+00 
0.0000000e+00 0.0000000e+00 0.0000000e+00 
0.0000000e+00 0.0000000e+00 0.0000000e+00 
0.0000000e+00 0.0000000e+00 0.0000000e+00 
0.0000000e+00 0.0000000e+00 0.0000000e+00 
0.0000000e+00 0.0000000e+00 0.0000000e+00 
0.0000000e+00 0.0000000e+00 0.0000000e+00 
0.0000000e+00 0.0000000e+00 0.0000000e+00 
0.0000000e+00 0.0000000e+00 0.0000000e+00 
0.0000000e+00 0.0000000e+00 0.0000000e+00 
0.0000000e+00 0.0000000e+00 0.0000000e+00 
0.0000000e+00 0.0000000e+00 0.0000000e+00 
0.0000000e+00 0.0000000e+00 0.0000000e+00 
0.0000000e+00 0.0000000e+00 0.0000000e+00 
0.0000000e+00 0.0000000e+00 0.0000000e+00 
1.6893994e-06 -4.3756521e-07 -8.4207528e-07 
3.2759056e-06 -9.0737592e-07 -1.7807916e-06 
4.0775094e-06 -7.3591968e-07 -3.6571450e-06 
4.8671777e-06 -1.0241400e-06 -3.2009114e-06 
5.2087421e-06 -9.2322114e-07 -2.9174921e-06 
3.9736342e-06 -2.5645470e-06 -3.8035587e-06 
3.0538604e-06 -8.6067911e-07 -2.5528097e-06 
3.5292981e-06 -7.4498803e-07 -1.9363504e-06 
3.9285942e-06 -1.8919407e-06 -2.1854730e-06 
3.7118193e-06 -5.6704643e-08 1.9745862e-06 
3.7630859e-06 2.7982912e-06 1.8161131e-06 
4.3151094e-06 -6.8408795e-06 -1.2676590e-08 
4.6614741e-06 -2.0946213e-06 3.0319455e-07 
9.2317314e-06 5.2184994e-08 -3.5351227e-06 
1.0777965e-05 -6.5410959e-06 -8.2539618e-06 
1.7414728e-05 -7.1140767e-06 -1.2032521e-05 
2.9875246e-05 -1.0314835e-05 -1.4285860e-05 
3.5579582e-05 -1.4470125e-05 -1.4258188e-05 
4.5789682e-05 -1.3474841e-05 -5.5684463e-06 
4.7038797e-05 -1.5145558e-05 -2.1003720e-07 
4.3561118e-05 -1.1145880e-05 4.3152863e-06 
3.2305230e-05 -7.3155506e-06 1.2716680e-05 
1.9649677e-05 -6.4298702e-06 1.2521605e-05 
1.1755853e-05 -2.4632131e-06 1.3604205e-05 
6.4857272e-06 -3.2721457e-06 9.9908693e-06 
3.1934226e-06 -2.1406545e-06 4.6161413e-06 
4.8776142e-06 -4.4334110e-06 4.6370210e-06 
5.0732624e-06 -1.9384747e-06 5.2133678e-06 
5.7458160e-06 -2.4238307e-06 -1.2919772e-06 
3.2090586e-06 -1.6352834e-06 4.2735380e-07 
5.5855367e-06 3.2040526e-07 -1.0361848e-06 
7.3283595e-06 -1.2636344e-06 -2.3553687e-06 
5.3588083e-06 -3.6578676e-06 -5.2943524e-06 
9.2693135e-06 6.6156163e-06 -7.5170178e-06 
1.5099383e-05 -7.8816938e-06 -9.2419459e-06 
1.7933477e-05 -1.4003836e-05 -1.2601046e-05 
3.0666844e-05 -1.1703214e-05 -1.4444786e-05 
3.9127586e-05 -1.4960008e-05 -1.1257132e-05 
4.3147244e-05 -1.5605046e-05 -7.2060402e-06 
4.2179323e-05 -1.3094153e-05 1.8940773e-06 
3.7167756e-05 -1.2006158e-05 7.8373068e-06 
2.6820435e-05 -8.3527038e-06 1.3610324e-05 
1.7064434e-05 -4.3320542e-06 1.4167502e-05 
7.6332390e-06 -1.6491892e-06 1.1544290e-05 
3.1463562e-06 -1.2514676e-06 1.0314535e-05 
1.8116551e-06 -5.3463395e-07 7.9217843e-06 
7.3484404e-07 -8.6140943e-07 5.9353783e-06 
8.7657281e-07 -8.1008216e-07 3.2401592e-06 
1.0317763e-06 -7.2923791e-07 1.7077682e-06 
0.0000000e+00 4.1979033e-06 0.0000000e+00 
0.0000000e+00 2.2759075e-06 0.0000000e+00 
0.0000000e+00 -6.8414279e-06 0.0000000e+00 
0.0000000e+00 -1.0128087e-05 0.0000000e+00 
0.0000000e+00 -1.0454633e-05 0.0000000e+00 
0.0000000e+00 -1.9122685e-05 0.0000000e+00 
0.0000000e+00 -1.0780111e-05 0.0000000e+00 
0.0000000e+00 -5.5180056e-08 0.0000000e+00 
0.0000000e+00 -5.1814363e-06 0.0000000e+00 
0.0000000e+00 -1.5170474e-06 0.0000000e+00 
0.0000000e+00 6.4103801e-06 0.0000000e+00 
0.0000000e+00 -7.2076182e-07 0.0000000e+00 
0.0000000e+00 -1.2987398e-06 0.0000000e+00 
0.0000000e+00 1.8507313e-05 0.0000000e+00 
0.0000000e+00 3.4461589e-06 0.0000000e+00 
0.0000000e+00 -6.0976345e-05 0.0000000e+00 
0.0000000e+00 -2.0782894e-04 0.0000000e+00 
0.0000000e+00 -3.8963085e-04 0.0000000e+00 
0.0000000e+00 -5.0428149e-04 0.0000000e+00 
0.0000000e+00 -5.0811272e-04 0.0000000e+00 
0.0000000e+00 -4.5826306e-04 0.0000000e+00 
0.0000000e+00 -3.2131525e-04 0.0000000e+00 
0.0000000e+00 -1.5358653e-04 0.0000000e+00 
0.0000000e+00 -3.8523467e-05 0.0000000e+00 
0.0000000e+00 -1.6098301e-06 0.0000000e+00 
0.0000000e+00 -6.8578188e-06 0.0000000e+00 
0.0000000e+00 -2.7329015e-05 0.0000000e+00 
0.0000000e+00 -6.7235951e-06 0.0000000e+00 
0.0000000e+00 -1.5401432e-05 0.0000000e+00 
0.0000000e+00 -2.0009589e-05 0.0000000e+00 
0.0000000e+00 1.2932550e-05 0.0000000e+00 
0.0000000e+00 1.1153445e-05 0.0000000e+00 
0.0000000e+00 -3.0265332e-06 0.0000000e+00 
0.0000000e+00 3.7144186e-05 0.0000000e+00 
0.0000000e+00 8.2637598e-07 0.0000000e+00 
0.0000000e+00 -9.5776704e-05 0.0000000e+00 
0.0000000e+00 -2.1957177e-04 0.0000000e+00 
0.0000000e+00 -3.7406696e-04 0.0000000e+00 
0.0000000e+00 -5.1867816e-04 0.0000000e+00 
0.0000000e+00 -5.0588191e-04 0.0000000e+00 
0.0000000e+00 -4.5224756e-04 0.0000000e+00 
0.0000000e+00 -2.8260733e-04 0.0000000e+00 
0.0000000e+00 -1.1701228e-04 0.0000000e+00 
0.0000000e+00 -1.1373628e-05 0.0000000e+00 
0.0000000e+00 1.2579985e-05 0.0000000e+00 
0.0000000e+00 5.0649369e-06 0.0000000e+00 
0.0000000e+00 -4.3141695e-06 0.0000000e+00 
0.0000000e+00 -1.7593751e-06 0.0000000e+00 
0.0000000e+00 -9.9259887e-07 0.0000000e+00 
1.1022524e-06 4.0527362e-07 -2.3455017e-08 
1.5739761e-06 1.5031124e-07 -1.5419630e-07 
5.7564131e-07 3.7817225e-07 -2.7436187e-07 
2.3917238e-07 2.7783826e-06 -2.6087554e-07 
6.2549464e-07 1.3261827e-07 9.3239282e-07 
2.4707194e-07 1.0641511e-06 1.9601896e-06 
-3.5868877e-07 1.7358188e-06 1.6140046e-06 
-6.3323677e-07 2.2927306e-06 7.9467088e-07 
3.5206108e-06 7.4686142e-07 -1.4360249e-06 
1.2256429e-06 1.2317263e-06 5.3847759e-07 
5.6315906e-07 3.1980740e-06 -1.8956547e-06 
3.1551363e-06 8.5024453e-07 -8.1830694e-07 
0.0000000e+00 6.9353846e-06 0.0000000e+00 
0.0000000e+00 2.2221907e-07 0.0000000e+00 
0.0000000e+00 -4.3619752e-06 0.0000000e+00 
0.0000000e+00 -1.1450783e-05 0.0000000e+00 
0.0000000e+00 -1.9293526e-05 0.0000000e+00 
0.0000000e+00 -2.5322273e-05 0.0000000e+00 
0.0000000e+00 -1.6479535e-05 0.0000000e+00 
0.0000000e+00 -4.2551587e-06 0.0000000e+00 
0.0000000e+00 -2.0781902e-06 0.0000000e+00 
0.0000000e+00 8.7962553e-06 0.0000000e+00 
0.0000000e+00 4.7608905e-06 0.0000000e+00 
0.0000000e+00 -3.0452409e-06 0.0000000e+00 
0.0000000e+00 8.4564563e-06 0.0000000e+00 
0.0000000e+00 6.3230065e-05 0.0000000e+00 
0.0000000e+00 -2.8987930e-05 0.0000000e+00 