# vtk DataFile Version 4.0
vtk output
ASCII
DATASET UNSTRUCTURED_GRID
POINTS 1919 float
0.0000000e+00 0.0000000e+00 0.0000000e+00 
0.0000000e+00 0.0000000e+00 5.0000000e+01 
5.0000000e+00 0.0000000e+00 0.0000000e+00 
5.0000000e+00 0.0000000e+00 5.0000000e+01 
5.0000000e+00 1.0000000e+00 0.0000000e+00 
5.0000000e+00 1.0000000e+00 5.0000000e+01 
0.0000000e+00 1.0000000e+00 0.0000000e+00 
0.0000000e+00 1.0000000e+00 5.0000000e+01 
5.0000000e+00 2.0000000e+00 0.0000000e+00 
5.0000000e+00 2.0000000e+00 5.0000000e+01 
3.0000000e+00 2.0000000e+00 0.0000000e+00 
3.0000000e+00 2.0000000e+00 5.0000000e+01 
0.0000000e+00 2.0000000e+00 0.0000000e+00 
0.0000000e+00 2.0000000e+00 5.0000000e+01 
1.5000000e+00 3.0000000e+00 0.0000000e+00 
1.5000000e+00 3.0000000e+00 5.0000000e+01 
7.5000000e-01 3.0000000e+00 0.0000000e+00 
7.5000000e-01 3.0000000e+00 5.0000000e+01 
0.0000000e+00 3.0000000e+00 0.0000000e+00 
0.0000000e+00 3.0000000e+00 5.0000000e+01 
7.5000000e-01 3.0000000e+00 5.0000000e-01 
7.5000000e-01 3.0000000e+00 1.0000000e+00 
7.5000000e-01 3.0000000e+00 1.5000000e+00 
7.5000000e-01 3.0000000e+00 2.0000000e+00 
7.5000000e-01 3.0000000e+00 2.5000000e+00 
7.5000000e-01 3.0000000e+00 3.0000000e+00 
7.5000000e-01 3.0000000e+00 3.5000000e+00 
7.5000000e-01 3.0000000e+00 4.0000000e+00 
7.5000000e-01 3.0000000e+00 4.5000000e+00 
7.5000000e-01 3.0000000e+00 5.0000000e+00 
7.5000000e-01 3.0000000e+00 5.5000000e+00 
7.5000000e-01 3.0000000e+00 6.0000000e+00 
7.5000000e-01 3.0000000e+00 6.5000000e+00 
7.5000000e-01 3.0000000e+00 7.0000000e+00 
7.5000000e-01 3.0000000e+00 7.5000000e+00 
7.5000000e-01 3.0000000e+00 8.0000000e+00 
7.5000000e-01 3.0000000e+00 8.5000000e+00 
7.5000000e-01 3.0000000e+00 9.0000000e+00 
7.5000000e-01 3.0000000e+00 9.5000000e+00 
7.5000000e-01 3.0000000e+00 1.0000000e+01 
7.5000000e-01 3.0000000e+00 1.0500000e+01 
7.5000000e-01 3.0000000e+00 1.1000000e+01 
7.5000000e-01 3.0000000e+00 1.1500000e+01 
7.5000000e-01 3.0000000e+00 1.2000000e+01 
7.5000000e-01 3.0000000e+00 1.2500000e+01 
7.5000000e-01 3.0000000e+00 1.3000000e+01 
7.5000000e-01 3.0000000e+00 1.3500000e+01 
7.5000000e-01 3.0000000e+00 1.4000000e+01 
7.5000000e-01 3.0000000e+00 1.4500000e+01 
7.5000000e-01 3.0000000e+00 1.5000000e+01 
7.5000000e-01 3.0000000e+00 1.5500000e+01 
7.5000000e-01 3.0000000e+00 1.6000000e+01 
7.5000000e-01 3.0000000e+00 1.6500000e+01 
7.5000000e-01 3.0000000e+00 1.7000000e+01 
7.5000000e-01 3.0000000e+00 1.7500000e+01 
7.5000000e-01 3.0000000e+00 1.8000000e+01 
7.5000000e-01 3.0000000e+00 1.8500000e+01 
7.5000000e-01 3.0000000e+00 1.9000000e+01 
7.5000000e-01 3.0000000e+00 1.9500000e+01 
7.5000000e-01 3.0000000e+00 2.0000000e+01 
7.5000000e-01 3.0000000e+00 2.0500000e+01 
7.5000000e-01 3.0000000e+00 2.1000000e+01 
7.5000000e-01 3.0000000e+00 2.1500000e+01 
7.5000000e-01 3.0000000e+00 2.2000000e+01 
7.5000000e-01 3.0000000e+00 2.2500000e+01 
7.5000000e-01 3.0000000e+00 2.3000000e+01 
7.5000000e-01 3.0000000e+00 2.3500000e+01 
7.5000000e-01 3.0000000e+00 2.4000000e+01 
7.5000000e-01 3.0000000e+00 2.4500000e+01 
7.5000000e-01 3.0000000e+00 2.5000000e+01 
7.5000000e-01 3.0000000e+00 2.5500000e+01 
7.5000000e-01 3.0000000e+00 2.6000000e+01 
7.5000000e-01 3.0000000e+00 2.6500000e+01 
7.5000000e-01 3.0000000e+00 2.7000000e+01 
7.5000000e-01 3.0000000e+00 2.7500000e+01 
7.5000000e-01 3.0000000e+00 2.8000000e+01 
7.5000000e-01 3.0000000e+00 2.8500000e+01 
7.5000000e-01 3.0000000e+00 2.9000000e+01 
7.5000000e-01 3.0000000e+00 2.9500000e+01 
7.5000000e-01 3.0000000e+00 3.0000000e+01 
7.5000000e-01 3.0000000e+00 3.0500000e+01 
7.5000000e-01 3.0000000e+00 3.1000000e+01 
7.5000000e-01 3.0000000e+00 3.1500000e+01 
7.5000000e-01 3.0000000e+00 3.2000000e+01 
7.5000000e-01 3.0000000e+00 3.2500000e+01 
7.5000000e-01 3.0000000e+00 3.3000000e+01 
7.5000000e-01 3.0000000e+00 3.3500000e+01 
7.5000000e-01 3.0000000e+00 3.4000000e+01 
7.5000000e-01 3.0000000e+00 3.4500000e+01 
7.5000000e-01 3.0000000e+00 3.5000000e+01 
7.5000000e-01 3.0000000e+00 3.5500000e+01 
7.5000000e-01 3.0000000e+00 3.6000000e+01 
7.5000000e-01 3.0000000e+00 3.6500000e+01 
7.5000000e-01 3.0000000e+00 3.7000000e+01 
7.5000000e-01 3.0000000e+00 3.7500000e+01 
7.5000000e-01 3.0000000e+00 3.8000000e+01 
7.5000000e-01 3.0000000e+00 3.8500000e+01 
7.5000000e-01 3.0000000e+00 3.9000000e+01 
7.5000000e-01 3.0000000e+00 3.9500000e+01 
7.5000000e-01 3.0000000e+00 4.0000000e+01 
7.5000000e-01 3.0000000e+00 4.0500000e+01 
7.5000000e-01 3.0000000e+00 4.1000000e+01 
7.5000000e-01 3.0000000e+00 4.1500000e+01 
7.5000000e-01 3.0000000e+00 4.2000000e+01 
7.5000000e-01 3.0000000e+00 4.2500000e+01 
7.5000000e-01 3.0000000e+00 4.3000000e+01 
7.5000000e-01 3.0000000e+00 4.3500000e+01 
7.5000000e-01 3.0000000e+00 4.4000000e+01 
7.5000000e-01 3.0000000e+00 4.4500000e+01 
7.5000000e-01 3.0000000e+00 4.5000000e+01 
7.5000000e-01 3.0000000e+00 4.5500000e+01 
7.5000000e-01 3.0000000e+00 4.6000000e+01 
7.5000000e-01 3.0000000e+00 4.6500000e+01 
7.5000000e-01 3.0000000e+00 4.7000000e+01 
7.5000000e-01 3.0000000e+00 4.7500000e+01 
7.5000000e-01 3.0000000e+00 4.8000000e+01 
7.5000000e-01 3.0000000e+00 4.8500000e+01 
7.5000000e-01 3.0000000e+00 4.9000000e+01 
7.5000000e-01 3.0000000e+00 4.9500000e+01 
7.5000000e-01 3.0250001e+00 0.0000000e+00 
7.5000000e-01 3.0250001e+00 5.0000000e-01 
7.5000000e-01 3.0250001e+00 1.0000000e+00 
7.5000000e-01 3.0250001e+00 1.5000000e+00 
7.5000000e-01 3.0250001e+00 2.0000000e+00 
7.5000000e-01 3.0250001e+00 2.5000000e+00 
7.5000000e-01 3.0250001e+00 3.0000000e+00 
7.5000000e-01 3.0250001e+00 3.5000000e+00 
7.5000000e-01 3.0250001e+00 4.0000000e+00 
7.5000000e-01 3.0250001e+00 4.5000000e+00 
7.5000000e-01 3.0250001e+00 5.0000000e+00 
7.5000000e-01 3.0250001e+00 5.5000000e+00 
7.5000000e-01 3.0250001e+00 6.0000000e+00 
7.5000000e-01 3.0250001e+00 6.5000000e+00 
7.5000000e-01 3.0250001e+00 7.0000000e+00 
7.5000000e-01 3.0250001e+00 7.5000000e+00 
7.5000000e-01 3.0250001e+00 8.0000000e+00 
7.5000000e-01 3.0250001e+00 8.5000000e+00 
7.5000000e-01 3.0250001e+00 9.0000000e+00 
7.5000000e-01 3.0250001e+00 9.5000000e+00 
7.5000000e-01 3.0250001e+00 1.0000000e+01 
7.5000000e-01 3.0250001e+00 1.0500000e+01 
7.5000000e-01 3.0250001e+00 1.1000000e+01 
7.5000000e-01 3.0250001e+00 1.1500000e+01 
7.5000000e-01 3.0250001e+00 1.2000000e+01 
7.5000000e-01 3.0250001e+00 1.2500000e+01 
7.5000000e-01 3.0250001e+00 1.3000000e+01 
7.5000000e-01 3.0250001e+00 1.3500000e+01 
7.5000000e-01 3.0250001e+00 1.4000000e+01 
7.5000000e-01 3.0250001e+00 1.4500000e+01 
7.5000000e-01 3.0250001e+00 1.5000000e+01 
7.5000000e-01 3.0250001e+00 1.5500000e+01 
7.5000000e-01 3.0250001e+00 1.6000000e+01 
7.5000000e-01 3.0250001e+00 1.6500000e+01 
7.5000000e-01 3.0250001e+00 1.7000000e+01 
7.5000000e-01 3.0250001e+00 1.7500000e+01 
7.5000000e-01 3.0250001e+00 1.8000000e+01 
7.5000000e-01 3.0250001e+00 1.8500000e+01 
7.5000000e-01 3.0250001e+00 1.9000000e+01 
7.5000000e-01 3.0250001e+00 1.9500000e+01 
7.5000000e-01 3.0250001e+00 2.0000000e+01 
7.5000000e-01 3.0250001e+00 2.0500000e+01 
7.5000000e-01 3.0250001e+00 2.1000000e+01 
7.5000000e-01 3.0250001e+00 2.1500000e+01 
7.5000000e-01 3.0250001e+00 2.2000000e+01 
7.5000000e-01 3.0250001e+00 2.2500000e+01 
7.5000000e-01 3.0250001e+00 2.3000000e+01 
7.5000000e-01 3.0250001e+00 2.3500000e+01 
7.5000000e-01 3.0250001e+00 2.4000000e+01 
7.5000000e-01 3.0250001e+00 2.4500000e+01 
7.5000000e-01 3.0250001e+00 2.5000000e+01 
7.5000000e-01 3.0250001e+00 2.5500000e+01 
7.5000000e-01 3.0250001e+00 2.6000000e+01 
7.5000000e-01 3.0250001e+00 2.6500000e+01 
7.5000000e-01 3.0250001e+00 2.7000000e+01 
7.5000000e-01 3.0250001e+00 2.7500000e+01 
7.5000000e-01 3.0250001e+00 2.8000000e+01 
7.5000000e-01 3.0250001e+00 2.8500000e+01 
7.5000000e-01 3.0250001e+00 2.9000000e+01 
7.5000000e-01 3.0250001e+00 2.9500000e+01 
7.5000000e-01 3.0250001e+00 3.0000000e+01 
7.5000000e-01 3.0250001e+00 3.0500000e+01 
7.5000000e-01 3.0250001e+00 3.1000000e+01 
7.5000000e-01 3.0250001e+00 3.1500000e+01 
7.5000000e-01 3.0250001e+00 3.2000000e+01 
7.5000000e-01 3.0250001e+00 3.2500000e+01 
7.5000000e-01 3.0250001e+00 3.3000000e+01 
7.5000000e-01 3.0250001e+00 3.3500000e+01 
7.5000000e-01 3.0250001e+00 3.4000000e+01 
7.5000000e-01 3.0250001e+00 3.4500000e+01 
7.5000000e-01 3.0250001e+00 3.5000000e+01 
7.5000000e-01 3.0250001e+00 3.5500000e+01 
7.5000000e-01 3.0250001e+00 3.6000000e+01 
7.5000000e-01 3.0250001e+00 3.6500000e+01 
7.5000000e-01 3.0250001e+00 3.7000000e+01 
7.5000000e-01 3.0250001e+00 3.7500000e+01 
7.5000000e-01 3.0250001e+00 3.8000000e+01 
7.5000000e-01 3.0250001e+00 3.8500000e+01 
7.5000000e-01 3.0250001e+00 3.9000000e+01 
7.5000000e-01 3.0250001e+00 3.9500000e+01 
7.5000000e-01 3.0250001e+00 4.0000000e+01 
7.5000000e-01 3.0250001e+00 4.0500000e+01 
7.5000000e-01 3.0250001e+00 4.1000000e+01 
7.5000000e-01 3.0250001e+00 4.1500000e+01 
7.5000000e-01 3.0250001e+00 4.2000000e+01 
7.5000000e-01 3.0250001e+00 4.2500000e+01 
7.5000000e-01 3.0250001e+00 4.3000000e+01 
7.5000000e-01 3.0250001e+00 4.3500000e+01 
7.5000000e-01 3.0250001e+00 4.4000000e+01 
7.5000000e-01 3.0250001e+00 4.4500000e+01 
7.5000000e-01 3.0250001e+00 4.5000000e+01 
7.5000000e-01 3.0250001e+00 4.5500000e+01 
7.5000000e-01 3.0250001e+00 4.6000000e+01 
7.5000000e-01 3.0250001e+00 4.6500000e+01 
7.5000000e-01 3.0250001e+00 4.7000000e+01 
7.5000000e-01 3.0250001e+00 4.7500000e+01 
7.5000000e-01 3.0250001e+00 4.8000000e+01 
7.5000000e-01 3.0250001e+00 4.8500000e+01 
7.5000000e-01 3.0250001e+00 4.9000000e+01 
7.5000000e-01 3.0250001e+00 4.9500000e+01 
7.5000000e-01 3.0250001e+00 5.0000000e+01 
1.5000000e+00 3.0000000e+00 2.5000000e+01 
3.0000000e+00 2.0000000e+00 2.5000000e+01 
4.0000000e+00 2.0000000e+00 2.5000000e+01 
5.0000000e+00 2.0000000e+00 2.5000000e+01 
0.0000000e+00 3.0000000e+00 2.5000000e+01 
0.0000000e+00 0.0000000e+00 1.0000000e+00 
0.0000000e+00 0.0000000e+00 2.0000000e+00 
0.0000000e+00 0.0000000e+00 3.0000000e+00 
0.0000000e+00 0.0000000e+00 4.0000000e+00 
0.0000000e+00 0.0000000e+00 5.0000000e+00 
[...]
POINT_DATA 1919
FIELD FieldData 3
DISPLACEMENT 3 1919  float
0.0000000e+00 0.0000000e+00 0.0000000e+00 
0.0000000e+00 0.0000000e+00 0.0000000e+00 
0.0000000e+00 0.0000000e+00 0.0000000e+00 
0.0000000e+00 0.0000000e+00 0.0000000e+00 
6.2941371e-07 -3.6548661e-07 -7.9154671e-07 
1.9694226e-06 -3.0801230e-06 7.3653832e-06 
0.0000000e+00 -3.3400750e-06 0.0000000e+00 
0.0000000e+00 1.3529224e-05 0.0000000e+00 
-2.5827942e-08 -5.1099018e-08 -4.1623611e-07 
2.7648450e-06 -2.4782512e-06 1.0430281e-05 
6.4273607e-08 -4.6699861e-07 -2.0717600e-06 
3.3488459e-06 2.1208875e-07 1.1121700e-05 
0.0000000e+00 -4.7308799e-06 0.0000000e+00 
0.0000000e+00 2.8114544e-05 0.0000000e+00 
-9.3277885e-07 6.2556893e-07 -2.4279998e-06 
2.0606200e-05 2.3394517e-05 -3.6694532e-06 
-4.1122016e-06 3.5124006e-06 -4.6910131e-06 
8.9457961e-07 2.0447154e-04 -1.5067740e-05 
0.0000000e+00 1.2392289e-06 0.0000000e+00 
0.0000000e+00 1.1823021e-05 0.0000000e+00 
-4.6427635e-07 2.2377155e-06 -3.7850148e-06 
4.0967052e-07 -7.9632275e-07 -3.2338953e-06 
5.2195736e-07 -4.2917650e-06 -4.5344427e-06 
-1.4088638e-06 -7.4954132e-06 -5.4698721e-06 
-2.3660307e-06 -9.8434994e-06 -5.7833131e-06 
-2.9639423e-06 -1.1184298e-05 -4.8510014e-06 
-3.7995487e-06 -1.1384624e-05 -4.1128169e-06 
-3.5887954e-06 -1.0524887e-05 -1.0649183e-06 
-2.2494808e-06 -8.7772805e-06 8.2308651e-07 
-2.6491823e-06 -6.3718826e-06 4.3208011e-06 
-3.5629309e-06 -3.8784783e-06 5.5918276e-06 
-4.8448396e-06 -2.4353160e-06 6.6528874e-06 
-7.2203366e-06 -2.8128220e-06 7.4870859e-06 
-7.5841167e-06 -4.5820479e-06 6.9976891e-06 
-7.7109580e-06 -6.2269278e-06 7.5145690e-06 
-8.8667975e-06 -6.3310972e-06 8.1186263e-06 
-1.0040480e-05 -5.2763125e-06 8.6668606e-06 
-9.2758983e-06 -4.6507589e-06 5.5200503e-06 
-6.9944504e-06 -5.3655717e-06 3.2204262e-06 
-5.9706113e-06 -7.5477201e-06 1.9529532e-06 
-3.4446191e-06 -9.3310091e-06 1.5284022e-06 
-3.5192891e-06 -8.1633516e-06 2.4248313e-06 
-4.0106938e-06 -2.9692799e-06 3.0522344e-06 
-3.2502830e-06 3.9198212e-06 3.0904628e-06 
-1.0640788e-06 7.5335070e-06 1.4148782e-07 
1.0092557e-06 4.2041552e-06 -1.8610109e-06 
1.6796283e-06 -2.4191213e-06 -2.4475810e-06 
-6.4626113e-07 -3.8052187e-06 6.8469080e-07 
9.6689212e-07 4.7850185e-06 4.9305908e-07 
3.8606836e-06 1.9784762e-05 9.3131183e-07 
3.5143673e-06 3.2111286e-05 6.1288893e-06 
3.6104136e-06 3.4025430e-05 1.6279321e-06 
8.7432863e-06 2.6161712e-05 5.0768864e-07 
1.6870770e-05 1.9778912e-05 4.3495565e-06 
3.9977244e-06 3.2382985e-05 1.2038703e-05 
2.4651954e-06 6.8624613e-05 1.7223791e-05 
6.0681532e-06 1.0393183e-04 3.9664279e-05 
-1.6667359e-06 8.5270149e-05 4.7820435e-05 
-9.1588672e-06 -3.8705268e-05 7.9185957e-05 
-2.3909437e-05 -2.9521025e-04 9.8889497e-05 
-5.9201815e-05 -6.9798640e-04 1.6547558e-04 
-8.4130625e-05 -1.2664285e-03 1.2254714e-04 
-1.4862936e-04 -2.0505365e-03 2.3831397e-04 
-1.7687802e-04 -3.0499110e-03 1.4561533e-04 
-3.4730355e-04 -4.1323695e-03 1.5311369e-04 
-2.5449053e-04 -4.8460099e-03 4.2073851e-05 
-2.9053265e-04 -4.7823945e-03 -6.1961335e-05 
-2.1836825e-04 -4.3969261e-03 -1.6276088e-05 
-2.3477479e-04 -4.2020259e-03 -1.6898446e-05 
-1.3863224e-04 -4.2213351e-03 -1.0997737e-04 
-2.0571577e-04 -4.0905154e-03 -1.7730310e-04 
-2.0763205e-04 -3.2100566e-03 -1.5353062e-04 
-1.3960231e-04 -2.0618502e-03 -2.7164095e-04 
-8.3600688e-05 -1.0516231e-03 -1.3861092e-04 
-3.1315041e-05 -3.7661730e-04 -1.6079067e-04 
-1.7672057e-06 -8.2971555e-06 -6.7566500e-05 
1.1170164e-05 1.4658732e-04 -4.7311438e-05 
1.3228109e-05 1.8503502e-04 -1.4323508e-05 
1.2349582e-05 1.6704810e-04 1.0319704e-05 
7.7710301e-06 1.1756275e-04 1.4966718e-05 
1.1484291e-06 5.6130280e-05 2.2493223e-05 
-1.6906188e-06 4.6073219e-06 1.9639530e-05 
-4.8755023e-06 -1.8279537e-05 1.8049190e-05 
-5.2493911e-06 -1.4695896e-05 1.6651989e-05 
-5.8084979e-06 -1.7314575e-06 1.4613239e-05 
-6.0193697e-06 4.9470395e-06 1.0394725e-05 
-5.8139130e-06 7.3122061e-07 6.0257266e-06 
-3.4509819e-06 -8.8453735e-06 4.1173262e-06 
-3.5260405e-06 -1.1194405e-05 -4.3746132e-07 
-6.1640681e-06 2.3339949e-06 -9.2073191e-07 
-5.3752397e-06 2.6744550e-05 -6.3845420e-08 
-1.1018359e-06 4.9450104e-05 -6.9061166e-06 
5.9193594e-06 6.1226834e-05 -2.0660300e-06 
6.0042380e-06 5.8369063e-05 -1.0099939e-06 
1.2031851e-05 5.0215283e-05 8.6787859e-06 
1.9461229e-05 5.3509164e-05 2.0662717e-05 
1.6500829e-06 6.6701119e-05 3.8580998e-05 
-2.2657837e-06 6.2024024e-05 4.2956017e-05 
-1.0452968e-05 -2.8128292e-05 8.9744535e-05 
-1.9490048e-05 -2.8517007e-04 9.7890865e-05 
-5.6299570e-05 -7.5753086e-04 1.7626943e-04 
-8.4087631e-05 -1.4445010e-03 1.4176339e-04 
-1.4416782e-04 -2.3329312e-03 2.5219790e-04 
-1.7301245e-04 -3.3427502e-03 9.0645139e-05 
-2.3516821e-04 -4.3012565e-03 1.5996987e-04 
-2.6101546e-04 -4.7984519e-03 3.0744715e-05 
-2.5056183e-04 -4.6501579e-03 -2.3484059e-05 
-2.4827066e-04 -4.3477416e-03 -4.5291868e-05 
-2.1726308e-04 -4.2663398e-03 -4.1602292e-05 
-2.2204081e-04 -4.2750854e-03 -1.3088377e-04 
-1.9106388e-04 -3.9497060e-03 -1.9912656e-04 
-1.5983050e-04 -2.9550754e-03 -1.4948238e-04 
-8.7696448e-05 -1.8089161e-03 -2.3741982e-04 
-5.9697271e-05 -8.7585853e-04 -1.2602404e-04 
-1.2655456e-05 -2.7150128e-04 -1.2971759e-04 
3.0069150e-06 5.1568277e-05 -7.0018155e-05 
1.7155700e-05 1.8629264e-04 -4.1332747e-05 
1.0259528e-05 2.1808995e-04 -2.1829539e-05 
8.9167133e-06 2.1046275e-04 -1.2158164e-05 
0.0000000e+00 3.4604220e-06 0.0000000e+00 
0.0000000e+00 2.2195143e-06 0.0000000e+00 
0.0000000e+00 -7.6610718e-07 0.0000000e+00 
0.0000000e+00 -4.2755241e-06 0.0000000e+00 
0.0000000e+00 -7.4689137e-06 0.0000000e+00 
0.0000000e+00 -9.8453938e-06 0.0000000e+00 
0.0000000e+00 -1.1190640e-05 0.0000000e+00 
0.0000000e+00 -1.1397093e-05 0.0000000e+00 
0.0000000e+00 -1.0529888e-05 0.0000000e+00 
0.0000000e+00 -8.7674689e-06 0.0000000e+00 
0.0000000e+00 -6.3450002e-06 0.0000000e+00 
0.0000000e+00 -3.8811368e-06 0.0000000e+00 
0.0000000e+00 -2.4800843e-06 0.0000000e+00 
0.0000000e+00 -2.8852685e-06 0.0000000e+00 
0.0000000e+00 -4.6197933e-06 0.0000000e+00 
0.0000000e+00 -6.1632963e-06 0.0000000e+00 
0.0000000e+00 -6.2556001e-06 0.0000000e+00 
0.0000000e+00 -5.2712517e-06 0.0000000e+00 
0.0000000e+00 -4.6749669e-06 0.0000000e+00 
0.0000000e+00 -5.4795519e-06 0.0000000e+00 
0.0000000e+00 -7.6205993e-06 0.0000000e+00 
0.0000000e+00 -9.3239678e-06 0.0000000e+00 
0.0000000e+00 -8.0439140e-06 0.0000000e+00 
0.0000000e+00 -2.7775945e-06 0.0000000e+00 
0.0000000e+00 3.9865918e-06 0.0000000e+00 
0.0000000e+00 7.2375810e-06 0.0000000e+00 
0.0000000e+00 3.8748603e-06 0.0000000e+00 
0.0000000e+00 -2.4213261e-06 0.0000000e+00 
0.0000000e+00 -3.4724267e-06 0.0000000e+00 
0.0000000e+00 5.1902657e-06 0.0000000e+00 
0.0000000e+00 1.9903959e-05 0.0000000e+00 
0.0000000e+00 3.1853415e-05 0.0000000e+00 
0.0000000e+00 3.3516633e-05 0.0000000e+00 
0.0000000e+00 2.5625448e-05 0.0000000e+00 
0.0000000e+00 2.0071968e-05 0.0000000e+00 
0.0000000e+00 3.3610286e-05 0.0000000e+00 
0.0000000e+00 7.0312410e-05 0.0000000e+00 
0.0000000e+00 1.0462451e-04 0.0000000e+00 
0.0000000e+00 8.4589570e-05 0.0000000e+00 
0.0000000e+00 -3.9798048e-05 0.0000000e+00 
0.0000000e+00 -2.9567102e-04 0.0000000e+00 
0.0000000e+00 -6.9687946e-04 0.0000000e+00 
0.0000000e+00 -1.2687288e-03 0.0000000e+00 
0.0000000e+00 -2.0568524e-03 0.0000000e+00 
0.0000000e+00 -3.0660962e-03 0.0000000e+00 
0.0000000e+00 -4.1534561e-03 0.0000000e+00 
0.0000000e+00 -4.8815156e-03 0.0000000e+00 
0.0000000e+00 -4.8008137e-03 0.0000000e+00 
0.0000000e+00 -4.4211904e-03 0.0000000e+00 
0.0000000e+00 -4.2227409e-03 0.0000000e+00 
0.0000000e+00 -4.2540571e-03 0.0000000e+00 
0.0000000e+00 -4.1129338e-03 0.0000000e+00 
0.0000000e+00 -3.2335788e-03 0.0000000e+00 
0.0000000e+00 -2.0732288e-03 0.0000000e+00 
0.0000000e+00 -1.0623381e-03 0.0000000e+00 
0.0000000e+00 -3.7923627e-04 0.0000000e+00 
0.0000000e+00 -7.6580409e-06 0.0000000e+00 
0.0000000e+00 1.4858409e-04 0.0000000e+00 
0.0000000e+00 1.8651495e-04 0.0000000e+00 
0.0000000e+00 1.6723204e-04 0.0000000e+00 
0.0000000e+00 1.1770367e-04 0.0000000e+00 
0.0000000e+00 5.6498771e-05 0.0000000e+00 
0.0000000e+00 5.5695050e-06 0.0000000e+00 
0.0000000e+00 -1.7772829e-05 0.0000000e+00 
0.0000000e+00 -1.4947093e-05 0.0000000e+00 
0.0000000e+00 -2.1125775e-06 0.0000000e+00 
0.0000000e+00 4.7586627e-06 0.0000000e+00 
0.0000000e+00 3.8455050e-07 0.0000000e+00 
0.0000000e+00 -8.9631076e-06 0.0000000e+00 
0.0000000e+00 -1.0776819e-05 0.0000000e+00 
0.0000000e+00 2.7745896e-06 0.0000000e+00 
0.0000000e+00 2.6913600e-05 0.0000000e+00 
0.0000000e+00 4.9462695e-05 0.0000000e+00 
0.0000000e+00 6.0627171e-05 0.0000000e+00 
0.0000000e+00 5.7798450e-05 0.0000000e+00 
0.0000000e+00 5.0704199e-05 0.0000000e+00 
0.0000000e+00 5.4578188e-05 0.0000000e+00 
0.0000000e+00 6.8915164e-05 0.0000000e+00 
0.0000000e+00 6.3501153e-05 0.0000000e+00 
0.0000000e+00 -2.9110595e-05 0.0000000e+00 
0.0000000e+00 -2.8767934e-04 0.0000000e+00 
0.0000000e+00 -7.5930741e-04 0.0000000e+00 
0.0000000e+00 -1.4488180e-03 0.0000000e+00 
0.0000000e+00 -2.3379684e-03 0.0000000e+00 
0.0000000e+00 -3.3587506e-03 0.0000000e+00 
0.0000000e+00 -4.3233880e-03 0.0000000e+00 
0.0000000e+00 -4.8318342e-03 0.0000000e+00 
0.0000000e+00 -4.6736202e-03 0.0000000e+00 
0.0000000e+00 -4.3736575e-03 0.0000000e+00 
0.0000000e+00 -4.2858021e-03 0.0000000e+00 
0.0000000e+00 -4.3023378e-03 0.0000000e+00 
0.0000000e+00 -3.9729886e-03 0.0000000e+00 
0.0000000e+00 -2.9787871e-03 0.0000000e+00 
0.0000000e+00 -1.8215717e-03 0.0000000e+00 
0.0000000e+00 -8.8285527e-04 0.0000000e+00 
0.0000000e+00 -2.7283558e-04 0.0000000e+00 
0.0000000e+00 5.2256117e-05 0.0000000e+00 
0.0000000e+00 1.8704575e-04 0.0000000e+00 
0.0000000e+00 2.1895320e-04 0.0000000e+00 
0.0000000e+00 2.1203114e-04 0.0000000e+00 
0.0000000e+00 2.0549093e-04 0.0000000e+00 
-5.5475108e-04 -1.3262648e-03 -1.5562779e-04 
4.1799576e-05 -6.5805907e-05 2.4915389e-06 
3.6064179e-05 -1.2716061e-05 -1.1789464e-07 
3.0864354e-05 -1.0344611e-05 4.1414328e-06 
0.0000000e+00 -2.0457366e-03 0.0000000e+00 
0.0000000e+00 0.0000000e+00 0.0000000e+00 
0.0000000e+00 0.0000000e+00 0.0000000e+00 
0.0000000e+00 0.0000000e+00 0.0000000e+00 
0.0000000e+00 0.0000000e+00 0.0000000e+00 
0.0000000e+00 0.0000000e+00 0.0000000e+00 
0.0000000e+00 0.0000000e+00 0.0000000e+00 
0.0000000e+00 0.0000000e+00 0.0000000e+00 
0.0000000e+00 0.0000000e+00 0.0000000e+00 
0.0000000e+00 0.0000000e+00 0.0000000e+00 
0.0000000e+00 0.0000000e+00 0.0000000e+00 
0.0000000e+00 0.0000000e+00 0.0000000e+00 
0.0000000e+00 0.0000000e+00 0.0000000e+00 
0.0000000e+00 0.0000000e+00 0.0000000e+00 
0.0000000e+00 0.0000000e+00 0.0000000e+00 
0.0000000e+00 0.0000000e+00 0.0000000e+00 
0.0000000e+00 0.0000000e+00 0.0000000e+00 
0.0000000e+00 0.0000000e+00 0.0000000e+00 
0.0000000e+00 0.0000000e+00 0.0000000e+00 
0.0000000e+00 0.0000000e+00 0.0000000e+00 
0.0000000e+00 0.0000000e+00 0.0000000e+00 
0.0000000e+00 0.0000000e+00 0.0000000e+00 
0.0000000e+00 0.0000000e+00 0.0000000e+00 
0.0000000e+00 0.0000000e+00 0.0000000e+00 
0.0000000e+00 0.0000000e+00 0.0000000e+00 
0.0000000e+00 0.0000000e+00 0.0000000e+00 
0.0000000e+00 0.0000000e+00 0.0000000e+00 
0.0000000e+00 0.0000000e+00 0.0000000e+00 
0.0000000e+00 0.0000000e+00 0.0000000e+00 
0.0000000e+00 0.0000000e+00 0.0000000e+00 
0.0000000e+00 0.0000000e+00 0.0000000e+00 
0.0000000e+00 0.0000000e+00 0.0000000e+00 
0.0000000e+00 0.0000000e+00 0.0000000e+00 
0.0000000e+00 0.0000000e+00 0.0000000e+00 
0.0000000e+00 0.0000000e+00 0.0000000e+00 
0.0000000e+00 0.0000000e+00 0.0000000e+00 
0.0000000e+00 0.0000000e+00 0.0000000e+00 
0.0000000e+00 0.0000000e+00 0.0000000e+00 
0.0000000e+00 0.0000000e+00 0.0000000e+00 
0.0000000e+00 0.0000000e+00 0.0000000e+00 
0.0000000e+00 0.0000000e+00 0.0000000e+00 
0.0000000e+00 0.0000000e+00 0.0000000e+00 
0.0000000e+00 0.0000000e+00 0.0000000e+00 
0.0000000e+00 0.0000000e+00 0.0000000e+00 
0.0000000e+00 0.0000000e+00 0.0000000e+00 
0.0000000e+00 0.0000000e+00 0.0000000e+00 
0.0000000e+00 0.0000000e+00 0.0000000e+00 
0.0000000e+00 0.0000000e+00 0.0000000e+00 
0.0000000e+00 0.0000000e+00 0.0000000e+00 
0.0000000e+00 0.0000000e+00 0.0000000e+00 
0.0000000e+00 0.0000000e+00 0.0000000e+00 
0.0000000e+00 0.0000000e+00 0.0000000e+00 
0.0000000e+00 0.0000000e+00 0.0000000e+00 
0.0000000e+00 0.0000000e+00 0.0000000e+00 
0.0000000e+00 0.0000000e+00 0.0000000e+00 
0.0000000e+00 0.0000000e+00 0.0000000e+00 
0.0000000e+00 0.0000000e+00 0.0000000e+00 
0.0000000e+00 0.0000000e+00 0.0000000e+00 
0.0000000e+00 0.0000000e+00 0.0000000e+00 
0.0000000e+00 0.0000000e+00 0.0000000e+00 
0.0000000e+00 0.0000000e+00 0.0000000e+00 
0.0000000e+00 0.0000000e+00 0.0000000e+00 
0.0000000e+00 0.0000000e+00 0.0000000e+00 
0.0000000e+00 0.0000000e+00 0.0000000e+00 
0.0000000e+00 0.0000000e+00 0.0000000e+00 
0.0000000e+00 0.0000000e+00 0.0000000e+00 
0.0000000e+00 0.0000000e+00 0.0000000e+00 
0.0000000e+00 0.0000000e+00 0.0000000e+00 
0.0000000e+00 0.0000000e+00 0.0000000e+00 
0.0000000e+00 0.0000000e+00 0.0000000e+00 
0.0000000e+00 0.0000000e+00 0.0000000e+00 
0.0000000e+00 0.0000000e+00 0.0000000e+00 
0.0000000e+00 0.0000000e+00 0.0000000e+00 
0.0000000e+00 0.0000000e+00 0.0000000e+00 
0.0000000e+00 0.0000000e+00 0.0000000e+00 
0.0000000e+00 0.0000000e+00 0.0000000e+00 
0.0000000e+00 0.0000000e+00 0.0000000e+00 
0.0000000e+00 0.0000000e+00 0.0000000e+00 
0.0000000e+00 0.0000000e+00 0.0000000e+00 
0.0000000e+00 0.0000000e+00 0.0000000e+00 
0.0000000e+00 0.0000000e+00 0.0000000e+00 
0.0000000e+00 0.0000000e+00 0.0000000e+00 
0.0000000e+00 0.0000000e+00 0.0000000e+00 
0.0000000e+00 0.0000000e+00 0.0000000e+00 
0.0000000e+00 0.0000000e+00 0.0000000e+00 
0.0000000e+00 0.0000000e+00 0.0000000e+00 
0.0000000e+00 0.0000000e+00 0.0000000e+00 
0.0000000e+00 0.0000000e+00 0.0000000e+00 
0.0000000e+00 0.0000000e+00 0.0000000e+00 
0.0000000e+00 0.0000000e+00 0.0000000e+00 
0.0000000e+00 0.0000000e+00 0.0000000e+00 
0.0000000e+00 0.0000000e+00 0.0000000e+00 
0.0000000e+00 0.0000000e+00 0.0000000e+00 
0.0000000e+00 0.0000000e+00 0.0000000e+00 
0.0000000e+00 0.0000000e+00 0.0000000e+00 
0.0000000e+00 0.0000000e+00 0.0000000e+00 
0.0000000e+00 0.0000000e+00 0.0000000e+00 
0.0000000e+00 0.0000000e+00 0.0000000e+00 
0.0000000e+00 0.0000000e+00 0.0000000e+00 
0.0000000e+00 0.0000000e+00 0.0000000e+00 
0.0000000e+00 0.0000000e+00 0.0000000e+00 
0.0000000e+00 0.0000000e+00 0.0000000e+00 
0.0000000e+00 0.0000000e+00 0.0000000e+00 
0.0000000e+00 0.0000000e+00 0.0000000e+00 
0.0000000e+00 0.0000000e+00 0.0000000e+00 
0.0000000e+00 0.0000000e+00 0.0000000e+00 
0.0000000e+00 0.0000000e+00 0.0000000e+00 
-2.9160447e-07 -1.5879608e-07 -5.5135484e-07 
-6.9595768e-07 -5.5945748e-07 -4.0615809e-08 
-1.5583125e-06 -1.5736374e-07 2.6100770e-07 
-1.9749168e-06 1.4955351e-07 2.1951342e-07 
-1.9448969e-06 4.0875108e-07 6.9329133e-07 
-1.6967324e-06 5.6217192e-07 9.7452153e-07 
-2.1641040e-06 4.9123287e-07 9.0347572e-07 
-2.3897380e-06 9.8225598e-07 1.3497687e-06 
-1.9268134e-06 -3.9277231e-07 1.4288679e-07 
-2.1270496e-06 5.3131203e-08 2.7518544e-07 
-1.9855688e-06 9.1890359e-07 8.4658575e-07 
-7.7677782e-07 2.0083293e-07 -3.4623974e-06 
-5.0321620e-07 -1.0287532e-07 -4.8037856e-07 
-8.4259926e-07 -3.1281615e-09 2.0351901e-07 
2.5980587e-06 7.5492994e-07 -1.6753612e-06 
1.1099978e-06 -5.6793219e-06 -3.2337859e-06 
2.9946166e-06 1.7214447e-06 -3.8477556e-06 
8.1812805e-06 -9.0692953e-07 -5.3633630e-06 
1.1347498e-05 -9.9681583e-06 -1.3180406e-05 
1.8117262e-05 -6.6023799e-06 -1.2104932e-05 
3.0344889e-05 -1.0926764e-05 -1.3192419e-05 
3.3966808e-05 -1.4272434e-05 -1.2804891e-05 
4.2512416e-05 -1.3187791e-05 -3.9667448e-06 
4.3550655e-05 -1.1000481e-05 2.3534890e-06 
3.4849003e-05 -8.8730794e-06 9.8890196e-06 
2.5886538e-05 -8.7060553e-06 1.3139090e-05 
1.6870677e-05 -6.1714231e-06 1.0313692e-05 
8.2228562e-06 -1.3894419e-06 1.0565986e-05 
2.3638518e-06 -1.3685901e-06 8.4568119e-06 
1.0684833e-08 -1.3702820e-06 4.5628226e-06 
-8.5796165e-07 -4.3861979e-07 2.1673725e-06 
-8.2138445e-07 -3.2680887e-07 3.7263403e-06 
-2.3206503e-07 -1.8433770e-06 8.5109759e-09 
2.5336187e-06 -3.0519175e-06 -1.9948864e-06 
-2.3033101e-07 2.8106138e-06 -2.1260614e-06 
2.7775513e-06 -8.9756838e-07 -4.4421058e-06 
5.8753662e-06 -2.8566474e-06 -6.3305665e-06 
8.4107151e-06 1.6716371e-06 -8.5276670e-06 
1.4962806e-05 -5.0408016e-06 -1.0923729e-05 
2.0605326e-05 -1.2273688e-05 -1.3129918e-05 
3.2199827e-05 -7.5254284e-06 -1.2580797e-05 
4.2536572e-05 -1.3763559e-05 -1.0712466e-05 
4.3237793e-05 -1.4055870e-05 -3.2471239e-06 
4.3487678e-05 -1.5603282e-05 6.1027908e-06 
3.6045498e-05 -1.0717406e-05 9.8595947e-06 
2.8285574e-05 -8.0092805e-06 1.2124713e-05 
2.2027349e-05 -5.2173850e-06 1.4728864e-05 
1.0368005e-05 -1.8355926e-06 1.2284987e-05 
3.6364054e-06 -1.7929867e-06 8.2796487e-06 
0.0000000e+00 -2.4898709e-06 0.0000000e+00 
0.0000000e+00 1.5595565e-06 0.0000000e+00 
0.0000000e+00 3.8608173e-06 0.0000000e+00 
0.0000000e+00 4.9517698e-06 0.0000000e+00 
0.0000000e+00 7.0506571e-06 0.0000000e+00 
0.0000000e+00 5.4912894e-06 0.0000000e+00 
0.0000000e+00 2.5708725e-06 0.0000000e+00 
0.0000000e+00 5.0498084e-06 0.0000000e+00 
0.0000000e+00 4.7088215e-06 0.0000000e+00 
0.0000000e+00 2.2859795e-06 0.0000000e+00 
0.0000000e+00 1.3030462e-06 0.0000000e+00 
0.0000000e+00 5.5068108e-06 0.0000000e+00 
0.0000000e+00 -8.4229969e-06 0.0000000e+00 
0.0000000e+00 -3.0108768e-06 0.0000000e+00 
0.0000000e+00 -1.6871999e-06 0.0000000e+00 
0.0000000e+00 -6.0273801e-06 0.0000000e+00 
0.0000000e+00 -1.4855092e-05 0.0000000e+00 
0.0000000e+00 3.0846568e-05 0.0000000e+00 
0.0000000e+00 -1.2505125e-05 0.0000000e+00 
0.0000000e+00 -8.5488144e-05 0.0000000e+00 
0.0000000e+00 -2.0243683e-04 0.0000000e+00 
0.0000000e+00 -3.8747821e-04 0.0000000e+00 
0.0000000e+00 -5.3886545e-04 0.0000000e+00 
0.0000000e+00 -5.1204202e-04 0.0000000e+00 
0.0000000e+00 -4.4478499e-04 0.0000000e+00 
0.0000000e+00 -2.7096123e-04 0.0000000e+00 
0.0000000e+00 -1.2033791e-04 0.0000000e+00 
0.0000000e+00 -1.6915857e-05 0.0000000e+00 
0.0000000e+00 1.8267916e-05 0.0000000e+00 
0.0000000e+00 1.6172904e-05 0.0000000e+00 
0.0000000e+00 1.4782518e-06 0.0000000e+00 
0.0000000e+00 8.8365101e-07 0.0000000e+00 
0.0000000e+00 -1.8923567e-06 0.0000000e+00 
0.0000000e+00 -1.0132824e-05 0.0000000e+00 
0.0000000e+00 6.0835146e-06 0.0000000e+00 
0.0000000e+00 5.4981024e-06 0.0000000e+00 
0.0000000e+00 -1.5150247e-06 0.0000000e+00 
0.0000000e+00 5.0229019e-06 0.0000000e+00 
0.0000000e+00 -6.0457041e-06 0.0000000e+00 
0.0000000e+00 -8.5778091e-05 0.0000000e+00 
0.0000000e+00 -2.2761617e-04 0.0000000e+00 
0.0000000e+00 -3.9435230e-04 0.0000000e+00 
0.0000000e+00 -5.2430818e-04 0.0000000e+00 
0.0000000e+00 -4.9935759e-04 0.0000000e+00 
0.0000000e+00 -4.4097073e-04 0.0000000e+00 
0.0000000e+00 -2.9051397e-04 0.0000000e+00 
0.0000000e+00 -1.1916471e-04 0.0000000e+00 
0.0000000e+00 -2.4936304e-05 0.0000000e+00 
0.0000000e+00 1.4548065e-05 0.0000000e+00 
9.5609053e-08 -7.0281499e-07 -9.8494786e-07 
8.7475541e-08 -6.8080936e-07 -1.0928255e-06 
1.4451643e-07 -1.5469259e-06 -2.1104911e-06 
-2.7841146e-08 -2.8373859e-06 -2.4371720e-06 
2.2953757e-06 -2.4540132e-06 7.3535812e-06 
1.9988006e-06 -3.7495965e-07 8.7213857e-06 
-2.1535411e-06 6.0498264e-06 7.4195609e-06 
-2.7627782e-06 1.0292601e-05 4.9850983e-06 
1.5045885e-08 -1.1415790e-06 -1.1655744e-06 
3.3442600e-06 -2.3447560e-06 1.0585944e-05 
-1.5997683e-06 -1.7264291e-06 -3.5219971e-06 
-8.4862199e-07 -1.9582158e-06 -3.2195194e-06 
0.0000000e+00 -2.3127734e-06 0.0000000e+00 
0.0000000e+00 -5.2441038e-07 0.0000000e+00 
0.0000000e+00 3.6743661e-06 0.0000000e+00 
0.0000000e+00 8.4690610e-06 0.0000000e+00 
0.0000000e+00 9.5345886e-06 0.0000000e+00 
0.0000000e+00 6.1402161e-06 0.0000000e+00 
0.0000000e+00 6.6871062e-06 0.0000000e+00 
0.0000000e+00 6.4976116e-06 0.0000000e+00 
0.0000000e+00 2.7595399e-06 0.0000000e+00 
0.0000000e+00 4.6295531e-06 0.0000000e+00 
0.0000000e+00 6.3741891e-06 0.0000000e+00 
0.0000000e+00 3.6648225e-06 0.0000000e+00 
0.0000000e+00 -5.9266022e-06 0.0000000e+00 