# vtk DataFile Version 4.0
vtk output
ASCII
DATASET UNSTRUCTURED_GRID
POINTS 1919 float
0.0000000e+00 0.0000000e+00 0.0000000e+00 
0.0000000e+00 0.0000000e+00 5.0000000e+01 
5.0000000e+00 0.0000000e+00 0.0000000e+00 
5.0000000e+00 0.0000000e+00 5.0000000e+01 
5.0000000e+00 1.0000000e+00 0.0000000e+00 
5.0000000e+00 1.0000000e+00 5.0000000e+01 
0.0000000e+00 1.0000000e+00 0.0000000e+00 
0.0000000e+00 1.0000000e+00 5.0000000e+01 
5.0000000e+00 2.0000000e+00 0.0000000e+00 
5.0000000e+00 2.0000000e+00 5.0000000e+01 
3.0000000e+00 2.0000000e+00 0.0000000e+00 
3.0000000e+00 2.0000000e+00 5.0000000e+01 
0.0000000e+00 2.0000000e+00 0.0000000e+00 
0.0000000e+00 2.0000000e+00 5.0000000e+01 
1.5000000e+00 3.0000000e+00 0.0000000e+00 
1.5000000e+00 3.0000000e+00 5.0000000e+01 
7.5000000e-01 3.0000000e+00 0.0000000e+00 
7.5000000e-01 3.0000000e+00 5.0000000e+01 
0.0000000e+00 3.0000000e+00 0.0000000e+00 
0.0000000e+00 3.0000000e+00 5.0000000e+01 
7.5000000e-01 3.0000000e+00 5.0000000e-01 
7.5000000e-01 3.0000000e+00 1.0000000e+00 
7.5000000e-01 3.0000000e+00 1.5000000e+00 
7.5000000e-01 3.0000000e+00 2.0000000e+00 
7.5000000e-01 3.0000000e+00 2.5000000e+00 
7.5000000e-01 3.0000000e+00 3.0000000e+00 
7.5000000e-01 3.0000000e+00 3.5000000e+00 
7.5000000e-01 3.0000000e+00 4.0000000e+00 
7.5000000e-01 3.0000000e+00 4.5000000e+00 
7.5000000e-01 3.0000000e+00 5.0000000e+00 
7.5000000e-01 3.0000000e+00 5.5000000e+00 
7.5000000e-01 3.0000000e+00 6.0000000e+00 
7.5000000e-01 3.0000000e+00 6.5000000e+00 
7.5000000e-01 3.0000000e+00 7.0000000e+00 
7.5000000e-01 3.0000000e+00 7.5000000e+00 
7.5000000e-01 3.0000000e+00 8.0000000e+00 
7.5000000e-01 3.0000000e+00 8.5000000e+00 
7.5000000e-01 3.0000000e+00 9.0000000e+00 
7.5000000e-01 3.0000000e+00 9.5000000e+00 
7.5000000e-01 3.0000000e+00 1.0000000e+01 
7.5000000e-01 3.0000000e+00 1.0500000e+01 
7.5000000e-01 3.0000000e+00 1.1000000e+01 
7.5000000e-01 3.0000000e+00 1.1500000e+01 
7.5000000e-01 3.0000000e+00 1.2000000e+01 
7.5000000e-01 3.0000000e+00 1.2500000e+01 
7.5000000e-01 3.0000000e+00 1.3000000e+01 
7.5000000e-01 3.0000000e+00 1.3500000e+01 
7.5000000e-01 3.0000000e+00 1.4000000e+01 
7.5000000e-01 3.0000000e+00 1.4500000e+01 
7.5000000e-01 3.0000000e+00 1.5000000e+01 
7.5000000e-01 3.0000000e+00 1.5500000e+01 
7.5000000e-01 3.0000000e+00 1.6000000e+01 
7.5000000e-01 3.0000000e+00 1.6500000e+01 
7.5000000e-01 3.0000000e+00 1.7000000e+01 
7.5000000e-01 3.0000000e+00 1.7500000e+01 
7.5000000e-01 3.0000000e+00 1.8000000e+01 
7.5000000e-01 3.0000000e+00 1.8500000e+01 
7.5000000e-01 3.0000000e+00 1.9000000e+01 
7.5000000e-01 3.0000000e+00 1.9500000e+01 
7.5000000e-01 3.0000000e+00 2.0000000e+01 
7.5000000e-01 3.0000000e+00 2.0500000e+01 
7.5000000e-01 3.0000000e+00 2.1000000e+01 
7.5000000e-01 3.0000000e+00 2.1500000e+01 
7.5000000e-01 3.0000000e+00 2.2000000e+01 
7.5000000e-01 3.0000000e+00 2.2500000e+01 
7.5000000e-01 3.0000000e+00 2.3000000e+01 
7.5000000e-01 3.0000000e+00 2.3500000e+01 
7.5000000e-01 3.0000000e+00 2.4000000e+01 
7.5000000e-01 3.0000000e+00 2.4500000e+01 
7.5000000e-01 3.0000000e+00 2.5000000e+01 
7.5000000e-01 3.0000000e+00 2.5500000e+01 
7.5000000e-01 3.0000000e+00 2.6000000e+01 
7.5000000e-01 3.0000000e+00 2.6500000e+01 
7.5000000e-01 3.0000000e+00 2.7000000e+01 
7.5000000e-01 3.0000000e+00 2.7500000e+01 
7.5000000e-01 3.0000000e+00 2.8000000e+01 
7.5000000e-01 3.0000000e+00 2.8500000e+01 
7.5000000e-01 3.0000000e+00 2.9000000e+01 
7.5000000e-01 3.0000000e+00 2.9500000e+01 
7.5000000e-01 3.0000000e+00 3.0000000e+01 
7.5000000e-01 3.0000000e+00 3.0500000e+01 
7.5000000e-01 3.0000000e+00 3.1000000e+01 
7.5000000e-01 3.0000000e+00 3.1500000e+01 
7.5000000e-01 3.0000000e+00 3.2000000e+01 
7.5000000e-01 3.0000000e+00 3.2500000e+01 
7.5000000e-01 3.0000000e+00 3.3000000e+01 
7.5000000e-01 3.0000000e+00 3.3500000e+01 
7.5000000e-01 3.0000000e+00 3.4000000e+01 
7.5000000e-01 3.0000000e+00 3.4500000e+01 
7.5000000e-01 3.0000000e+00 3.5000000e+01 
7.5000000e-01 3.0000000e+00 3.5500000e+01 
7.5000000e-01 3.0000000e+00 3.6000000e+01 
7.5000000e-01 3.0000000e+00 3.6500000e+01 
7.5000000e-01 3.0000000e+00 3.7000000e+01 
7.5000000e-01 3.0000000e+00 3.7500000e+01 
7.5000000e-01 3.0000000e+00 3.8000000e+01 
7.5000000e-01 3.0000000e+00 3.8500000e+01 
7.5000000e-01 3.0000000e+00 3.9000000e+01 
7.5000000e-01 3.0000000e+00 3.9500000e+01 
7.5000000e-01 3.0000000e+00 4.0000000e+01 
7.5000000e-01 3.0000000e+00 4.0500000e+01 
7.5000000e-01 3.0000000e+00 4.1000000e+01 
7.5000000e-01 3.0000000e+00 4.1500000e+01 
7.5000000e-01 3.0000000e+00 4.2000000e+01 
7.5000000e-01 3.0000000e+00 4.2500000e+01 
7.5000000e-01 3.0000000e+00 4.3000000e+01 
7.5000000e-01 3.0000000e+00 4.3500000e+01 
7.5000000e-01 3.0000000e+00 4.4000000e+01 
7.5000000e-01 3.0000000e+00 4.4500000e+01 
7.5000000e-01 3.0000000e+00 4.5000000e+01 
7.5000000e-01 3.0000000e+00 4.5500000e+01 
7.5000000e-01 3.0000000e+00 4.6000000e+01 
7.5000000e-01 3.0000000e+00 4.6500000e+01 
7.5000000e-01 3.0000000e+00 4.7000000e+01 
7.5000000e-01 3.0000000e+00 4.7500000e+01 
7.5000000e-01 3.0000000e+00 4.8000000e+01 
7.5000000e-01 3.0000000e+00 4.8500000e+01 
7.5000000e-01 3.0000000e+00 4.9000000e+01 
7.5000000e-01 3.0000000e+00 4.9500000e+01 
7.5000000e-01 3.0250001e+00 0.0000000e+00 
7.5000000e-01 3.0250001e+00 5.0000000e-01 
7.5000000e-01 3.0250001e+00 1.0000000e+00 
7.5000000e-01 3.0250001e+00 1.5000000e+00 
7.5000000e-01 3.0250001e+00 2.0000000e+00 
7.5000000e-01 3.0250001e+00 2.5000000e+00 
7.5000000e-01 3.0250001e+00 3.0000000e+00 
7.5000000e-01 3.0250001e+00 3.5000000e+00 
7.5000000e-01 3.0250001e+00 4.0000000e+00 
7.5000000e-01 3.0250001e+00 4.5000000e+00 
7.5000000e-01 3.0250001e+00 5.0000000e+00 
7.5000000e-01 3.0250001e+00 5.5000000e+00 
7.5000000e-01 3.0250001e+00 6.0000000e+00 
7.5000000e-01 3.0250001e+00 6.5000000e+00 
7.5000000e-01 3.0250001e+00 7.0000000e+00 
7.5000000e-01 3.0250001e+00 7.5000000e+00 
7.5000000e-01 3.0250001e+00 8.0000000e+00 
7.5000000e-01 3.0250001e+00 8.5000000e+00 
7.5000000e-01 3.0250001e+00 9.0000000e+00 
7.5000000e-01 3.0250001e+00 9.5000000e+00 
7.5000000e-01 3.0250001e+00 1.0000000e+01 
7.5000000e-01 3.0250001e+00 1.0500000e+01 
7.5000000e-01 3.0250001e+00 1.1000000e+01 
7.5000000e-01 3.0250001e+00 1.1500000e+01 
7.5000000e-01 3.0250001e+00 1.2000000e+01 
7.5000000e-01 3.0250001e+00 1.2500000e+01 
7.5000000e-01 3.0250001e+00 1.3000000e+01 
7.5000000e-01 3.0250001e+00 1.3500000e+01 
7.5000000e-01 3.0250001e+00 1.4000000e+01 
7.5000000e-01 3.0250001e+00 1.4500000e+01 
7.5000000e-01 3.0250001e+00 1.5000000e+01 
7.5000000e-01 3.0250001e+00 1.5500000e+01 
7.5000000e-01 3.0250001e+00 1.6000000e+01 
7.5000000e-01 3.0250001e+00 1.6500000e+01 
7.5000000e-01 3.0250001e+00 1.7000000e+01 
7.5000000e-01 3.0250001e+00 1.7500000e+01 
7.5000000e-01 3.0250001e+00 1.8000000e+01 
7.5000000e-01 3.0250001e+00 1.8500000e+01 
7.5000000e-01 3.0250001e+00 1.9000000e+01 
7.5000000e-01 3.0250001e+00 1.9500000e+01 
7.5000000e-01 3.0250001e+00 2.0000000e+01 
7.5000000e-01 3.0250001e+00 2.0500000e+01 
7.5000000e-01 3.0250001e+00 2.1000000e+01 
7.5000000e-01 3.0250001e+00 2.1500000e+01 
7.5000000e-01 3.0250001e+00 2.2000000e+01 
7.5000000e-01 3.0250001e+00 2.2500000e+01 
7.5000000e-01 3.0250001e+00 2.3000000e+01 
7.5000000e-01 3.0250001e+00 2.3500000e+01 
7.5000000e-01 3.0250001e+00 2.4000000e+01 
7.5000000e-01 3.0250001e+00 2.4500000e+01 
7.5000000e-01 3.0250001e+00 2.5000000e+01 
7.5000000e-01 3.0250001e+00 2.5500000e+01 
7.5000000e-01 3.0250001e+00 2.6000000e+01 
7.5000000e-01 3.0250001e+00 2.6500000e+01 
7.5000000e-01 3.0250001e+00 2.7000000e+01 
7.5000000e-01 3.0250001e+00 2.7500000e+01 
7.5000000e-01 3.0250001e+00 2.8000000e+01 
7.5000000e-01 3.0250001e+00 2.8500000e+01 
7.5000000e-01 3.0250001e+00 2.9000000e+01 
7.5000000e-01 3.0250001e+00 2.9500000e+01 
7.5000000e-01 3.0250001e+00 3.0000000e+01 
7.5000000e-01 3.0250001e+00 3.0500000e+01 
7.5000000e-01 3.0250001e+00 3.1000000e+01 
7.5000000e-01 3.0250001e+00 3.1500000e+01 
7.5000000e-01 3.0250001e+00 3.2000000e+01 
7.5000000e-01 3.0250001e+00 3.2500000e+01 
7.5000000e-01 3.0250001e+00 3.3000000e+01 
7.5000000e-01 3.0250001e+00 3.3500000e+01 
7.5000000e-01 3.0250001e+00 3.4000000e+01 
7.5000000e-01 3.0250001e+00 3.4500000e+01 
7.5000000e-01 3.0250001e+00 3.5000000e+01 
7.5000000e-01 3.0250001e+00 3.5500000e+01 
7.5000000e-01 3.0250001e+00 3.6000000e+01 
7.5000000e-01 3.0250001e+00 3.6500000e+01 
7.5000000e-01 3.0250001e+00 3.7000000e+01 
7.5000000e-01 3.0250001e+00 3.7500000e+01 
7.5000000e-01 3.0250001e+00 3.8000000e+01 
7.5000000e-01 3.0250001e+00 3.8500000e+01 
7.5000000e-01 3.0250001e+00 3.9000000e+01 
7.5000000e-01 3.0250001e+00 3.9500000e+01 
7.5000000e-01 3.0250001e+00 4.0000000e+01 
7.5000000e-01 3.0250001e+00 4.0500000e+01 
7.5000000e-01 3.0250001e+00 4.1000000e+01 
7.5000000e-01 3.0250001e+00 4.1500000e+01 
7.5000000e-01 3.0250001e+00 4.2000000e+01 
7.5000000e-01 3.0250001e+00 4.2500000e+01 
7.5000000e-01 3.0250001e+00 4.3000000e+01 
7.5000000e-01 3.0250001e+00 4.3500000e+01 
7.5000000e-01 3.0250001e+00 4.4000000e+01 
7.5000000e-01 3.0250001e+00 4.4500000e+01 
7.5000000e-01 3.0250001e+00 4.5000000e+01 
7.5000000e-01 3.0250001e+00 4.5500000e+01 
7.5000000e-01 3.0250001e+00 4.6000000e+01 
7.5000000e-01 3.0250001e+00 4.6500000e+01 
7.5000000e-01 3.0250001e+00 4.7000000e+01 
7.5000000e-01 3.0250001e+00 4.7500000e+01 
7.5000000e-01 3.0250001e+00 4.8000000e+01 
7.5000000e-01 3.0250001e+00 4.8500000e+01 
7.5000000e-01 3.0250001e+00 4.9000000e+01 
7.5000000e-01 3.0250001e+00 4.9500000e+01 
7.5000000e-01 3.0250001e+00 5.0000000e+01 
1.5000000e+00 3.0000000e+00 2.5000000e+01 
3.0000000e+00 2.0000000e+00 2.5000000e+01 
4.0000000e+00 2.0000000e+00 2.5000000e+01 
5.0000000e+00 2.0000000e+00 2.5000000e+01 
0.0000000e+00 3.0000000e+00 2.5000000e+01 
0.0000000e+00 0.0000000e+00 1.0000000e+00 
0.0000000e+00 0.0000000e+00 2.0000000e+00 
0.0000000e+00 0.0000000e+00 3.0000000e+00 
0.0000000e+00 0.0000000e+00 4.0000000e+00 
0.0000000e+00 0.0000000e+00 5.0000000e+00 
[...]
POINT_DATA 1919
FIELD FieldData 3
DISPLACEMENT 3 1919  float
0.0000000e+00 0.0000000e+00 0.0000000e+00 
0.0000000e+00 0.0000000e+00 0.0000000e+00 
0.0000000e+00 0.0000000e+00 0.0000000e+00 
0.0000000e+00 0.0000000e+00 0.0000000e+00 
-8.9733931e-06 9.8005842e-07 6.8059294e-06 
-2.9812231e-08 1.3737762e-08 -7.9118060e-08 
0.0000000e+00 -3.1423397e-06 0.0000000e+00 
0.0000000e+00 6.1360493e-07 0.0000000e+00 
-9.0055491e-06 -4.6333994e-06 -1.1121939e-06 
-9.1564701e-08 -1.3892118e-07 5.3900038e-08 
-9.0212270e-06 1.1994362e-05 9.0671329e-06 
-7.6542165e-08 -4.8895345e-07 -4.1961329e-07 
0.0000000e+00 -8.8288079e-06 0.0000000e+00 
0.0000000e+00 6.8476368e-07 0.0000000e+00 
-3.2058375e-05 -2.4719795e-05 8.7898639e-05 
-7.4782349e-07 1.4630173e-08 7.3925918e-07 
8.1553189e-05 -1.2703905e-04 1.1817995e-04 
-9.0353780e-08 -1.4623751e-06 -1.7067651e-07 
0.0000000e+00 2.0319216e-05 0.0000000e+00 
0.0000000e+00 -2.0893503e-07 0.0000000e+00 
-3.6050602e-05 -1.2293883e-04 7.2983115e-05 
-7.3002535e-05 -1.1236280e-04 4.9346618e-05 
-8.7963846e-05 -9.8131284e-05 5.5857105e-05 
-9.1487949e-05 -8.0057791e-05 4.3898130e-05 
-1.0575804e-04 -5.7176021e-05 3.0854713e-05 
-8.3068575e-05 -2.8561140e-05 2.4936742e-05 
-8.8936249e-05 5.0930166e-06 1.0823846e-05 
-6.6972840e-05 4.1928251e-05 9.0403846e-06 
-5.9783648e-05 7.9204685e-05 1.0436233e-05 
-5.0367464e-05 1.1511624e-04 1.3432180e-05 
-4.7173937e-05 1.4710147e-04 2.3438552e-05 
-4.9240218e-05 1.7003861e-04 3.5644171e-05 
-6.4945183e-05 1.7382250e-04 4.2431198e-05 
-5.6251640e-05 1.3968795e-04 7.4950716e-05 
-9.8442833e-05 3.3585511e-05 1.1556962e-04 
-1.0743189e-04 -1.9274880e-04 1.2442395e-04 
-1.7354738e-04 -5.9865060e-04 2.1431605e-04 
-1.7766756e-04 -1.2381106e-03 1.5471366e-04 
-2.6813839e-04 -2.1503314e-03 2.5641284e-04 
-2.8345568e-04 -3.2782801e-03 9.9068755e-05 
-3.7165778e-04 -4.4404641e-03 1.6435499e-04 
-4.4583049e-04 -5.1313983e-03 -2.4874218e-05 
-4.1803689e-04 -5.0111539e-03 -1.4282117e-04 
-3.7949331e-04 -4.6751644e-03 -1.5361428e-04 
-2.8967299e-04 -4.6032574e-03 -1.9903034e-04 
-2.2423596e-04 -4.6904427e-03 -2.4202163e-04 
-1.6747563e-04 -4.4697607e-03 -2.6496427e-04 
-1.3958037e-04 -3.4183320e-03 -2.0150596e-04 
-5.1806284e-05 -2.1383748e-03 -2.5881143e-04 
-2.3871142e-05 -1.0502235e-03 -1.1869118e-04 
1.8442724e-05 -3.1250317e-04 -1.2474965e-04 
2.7089498e-05 9.7819327e-05 -4.0972347e-05 
4.2298194e-05 2.6476139e-04 -7.8695657e-06 
4.1625404e-05 2.7959526e-04 6.5747910e-05 
2.1661825e-05 2.1447575e-04 7.0457987e-05 
1.0237400e-05 1.2419109e-04 5.5143308e-05 
-1.0759233e-05 3.9754632e-05 3.8362112e-05 
-2.7408150e-05 -2.5257470e-05 3.1532898e-05 
-3.5334539e-05 -6.6881708e-05 8.5569773e-06 
-3.7332025e-05 -8.9046735e-05 1.2381106e-05 
-1.7273904e-05 -9.6536758e-05 3.0247065e-05 
-3.7086655e-05 -9.2973445e-05 4.2958567e-05 
-6.2101994e-05 -8.0000224e-05 5.6885554e-05 
-6.1878287e-05 -5.7807771e-05 4.7400561e-05 
-8.9415749e-05 -2.7662714e-05 4.0348095e-05 
-5.6473262e-05 8.4923586e-06 1.4614883e-05 
-7.4726428e-05 4.7015059e-05 -1.0487542e-05 
-7.6190321e-05 8.5005413e-05 -2.6549102e-05 
-2.7671418e-05 1.2116267e-04 -7.8018156e-06 
-4.7245714e-05 1.5817760e-04 4.5235665e-06 
-4.3752545e-05 1.9280965e-04 -3.5924650e-06 
-4.1396033e-05 2.1910817e-04 1.8635536e-05 
-5.2967545e-05 2.2233643e-04 3.6027985e-05 
-3.5703659e-05 1.7451687e-04 5.5002733e-05 
-8.5115556e-05 3.8266429e-05 1.1107780e-04 
-1.0188887e-04 -2.3680596e-04 1.3251568e-04 
-1.7951385e-04 -7.0885516e-04 2.2498942e-04 
-2.0503906e-04 -1.4257020e-03 1.5354253e-04 
-2.9753399e-04 -2.4122777e-03 2.4663596e-04 
-3.4548473e-04 -3.5817262e-03 3.8965252e-05 
-4.2013891e-04 -4.7106515e-03 8.0057027e-05 
-4.5187830e-04 -5.2202996e-03 -6.1159786e-05 
-4.1499466e-04 -4.9943598e-03 -1.9061138e-04 
-3.8142942e-04 -4.6798317e-03 -1.9815996e-04 
-3.1799570e-04 -4.6629980e-03 -2.3363877e-04 
-3.1507533e-04 -4.7469968e-03 -2.8301685e-04 
-2.2311574e-04 -4.3797097e-03 -3.4493278e-04 
-1.5987179e-04 -3.2236956e-03 -1.8663095e-04 
-6.3713589e-05 -1.9593448e-03 -2.4810966e-04 
-2.4981207e-06 -9.2122465e-04 -6.4547537e-05 
1.6432583e-05 -2.4168822e-04 -7.0306749e-05 
2.1245003e-05 1.1928742e-04 2.5771278e-06 
2.4172583e-05 2.5295292e-04 3.3936936e-05 
1.1083823e-05 2.5295059e-04 7.5039512e-05 
-7.5205317e-06 1.9353985e-04 9.4742034e-05 
-4.5208730e-05 1.1859430e-04 9.1315589e-05 
-4.9757862e-05 5.3085510e-05 -7.6987988e-07 
-4.4206114e-05 1.0030895e-05 -3.2415275e-05 
-1.7318553e-05 -9.0542771e-06 -5.6846715e-05 
-5.9942940e-06 -1.1193421e-05 -5.1600528e-05 
1.6139182e-05 -5.7267716e-06 -4.0404997e-05 
2.1213040e-05 1.1455799e-07 -2.5350551e-05 
1.9540197e-05 2.0484874e-06 -3.8134467e-06 
1.4718105e-05 1.0766905e-06 4.7294261e-06 
5.1174538e-06 -1.1598396e-06 8.3129089e-06 
1.6661474e-07 -3.0919489e-06 9.4306461e-06 
-2.8720578e-06 -4.0010236e-06 6.5243094e-06 
-3.5283665e-06 -4.2197471e-06 4.3244422e-06 
-3.2984851e-06 -3.8798316e-06 1.2100114e-06 
-2.0258699e-06 -2.9632515e-06 8.7905647e-09 
-1.7098261e-06 -1.4096123e-06 -4.0358518e-07 
-7.9872916e-07 4.6601295e-07 -7.7374824e-07 
7.7648701e-07 2.1271442e-06 -7.4360582e-07 
8.2828103e-07 2.9473383e-06 3.4936897e-07 
1.2768423e-06 2.6105013e-06 -5.6377098e-07 
1.2976690e-07 1.4988385e-06 -5.5046672e-07 
-1.0112448e-07 2.0124394e-07 1.1702040e-07 
3.5621733e-07 -7.9258007e-07 -3.7130405e-08 
-1.5721918e-07 -1.3157609e-06 2.3254104e-07 
0.0000000e+00 -1.2699513e-04 0.0000000e+00 
0.0000000e+00 -1.2298973e-04 0.0000000e+00 
0.0000000e+00 -1.1259344e-04 0.0000000e+00 
0.0000000e+00 -9.8238284e-05 0.0000000e+00 
0.0000000e+00 -8.0079306e-05 0.0000000e+00 
0.0000000e+00 -5.7098259e-05 0.0000000e+00 
0.0000000e+00 -2.8485945e-05 0.0000000e+00 
0.0000000e+00 5.1684956e-06 0.0000000e+00 
0.0000000e+00 4.1922623e-05 0.0000000e+00 
0.0000000e+00 7.9312696e-05 0.0000000e+00 
0.0000000e+00 1.1532031e-04 0.0000000e+00 
0.0000000e+00 1.4742989e-04 0.0000000e+00 
0.0000000e+00 1.7056997e-04 0.0000000e+00 
0.0000000e+00 1.7473107e-04 0.0000000e+00 
0.0000000e+00 1.4057421e-04 0.0000000e+00 
0.0000000e+00 3.4279867e-05 0.0000000e+00 
0.0000000e+00 -1.9280064e-04 0.0000000e+00 
0.0000000e+00 -5.9933699e-04 0.0000000e+00 
0.0000000e+00 -1.2428325e-03 0.0000000e+00 
0.0000000e+00 -2.1571526e-03 0.0000000e+00 
0.0000000e+00 -3.2953001e-03 0.0000000e+00 
0.0000000e+00 -4.4602361e-03 0.0000000e+00 
0.0000000e+00 -5.1636091e-03 0.0000000e+00 
0.0000000e+00 -5.0333687e-03 0.0000000e+00 
0.0000000e+00 -4.7048018e-03 0.0000000e+00 
0.0000000e+00 -4.6228254e-03 0.0000000e+00 
0.0000000e+00 -4.7205789e-03 0.0000000e+00 
0.0000000e+00 -4.4941190e-03 0.0000000e+00 
0.0000000e+00 -3.4429505e-03 0.0000000e+00 
0.0000000e+00 -2.1518331e-03 0.0000000e+00 
0.0000000e+00 -1.0588025e-03 0.0000000e+00 
0.0000000e+00 -3.1510688e-04 0.0000000e+00 
0.0000000e+00 9.8021912e-05 0.0000000e+00 
0.0000000e+00 2.6603203e-04 0.0000000e+00 
0.0000000e+00 2.8062388e-04 0.0000000e+00 
0.0000000e+00 2.1574699e-04 0.0000000e+00 
0.0000000e+00 1.2511709e-04 0.0000000e+00 
0.0000000e+00 4.0225932e-05 0.0000000e+00 
0.0000000e+00 -2.4917419e-05 0.0000000e+00 
0.0000000e+00 -6.6928864e-05 0.0000000e+00 
0.0000000e+00 -8.9232701e-05 0.0000000e+00 
0.0000000e+00 -9.6734679e-05 0.0000000e+00 
0.0000000e+00 -9.3103656e-05 0.0000000e+00 
0.0000000e+00 -7.9963713e-05 0.0000000e+00 
0.0000000e+00 -5.7749632e-05 0.0000000e+00 
0.0000000e+00 -2.7548767e-05 0.0000000e+00 
0.0000000e+00 8.5056645e-06 0.0000000e+00 
0.0000000e+00 4.6958587e-05 0.0000000e+00 
0.0000000e+00 8.4861793e-05 0.0000000e+00 
0.0000000e+00 1.2156589e-04 0.0000000e+00 
0.0000000e+00 1.5847055e-04 0.0000000e+00 
0.0000000e+00 1.9341550e-04 0.0000000e+00 
0.0000000e+00 2.1993734e-04 0.0000000e+00 
0.0000000e+00 2.2298573e-04 0.0000000e+00 
0.0000000e+00 1.7535588e-04 0.0000000e+00 
0.0000000e+00 3.8856415e-05 0.0000000e+00 
0.0000000e+00 -2.3707184e-04 0.0000000e+00 
0.0000000e+00 -7.0997840e-04 0.0000000e+00 
0.0000000e+00 -1.4312066e-03 0.0000000e+00 
0.0000000e+00 -2.4198527e-03 0.0000000e+00 
0.0000000e+00 -3.6009559e-03 0.0000000e+00 
0.0000000e+00 -4.7306661e-03 0.0000000e+00 
0.0000000e+00 -5.2534724e-03 0.0000000e+00 
0.0000000e+00 -5.0161784e-03 0.0000000e+00 
0.0000000e+00 -4.7092522e-03 0.0000000e+00 
0.0000000e+00 -4.6829642e-03 0.0000000e+00 
0.0000000e+00 -4.7787386e-03 0.0000000e+00 
0.0000000e+00 -4.4016191e-03 0.0000000e+00 
0.0000000e+00 -3.2484548e-03 0.0000000e+00 
0.0000000e+00 -1.9697798e-03 0.0000000e+00 
0.0000000e+00 -9.2917745e-04 0.0000000e+00 
0.0000000e+00 -2.4391443e-04 0.0000000e+00 
0.0000000e+00 1.1966729e-04 0.0000000e+00 
0.0000000e+00 2.5423468e-04 0.0000000e+00 
0.0000000e+00 2.5463547e-04 0.0000000e+00 
0.0000000e+00 1.9453713e-04 0.0000000e+00 
0.0000000e+00 1.1917036e-04 0.0000000e+00 
0.0000000e+00 5.3659918e-05 0.0000000e+00 
0.0000000e+00 1.0458360e-05 0.0000000e+00 
0.0000000e+00 -8.9787727e-06 0.0000000e+00 
0.0000000e+00 -1.1356732e-05 0.0000000e+00 
0.0000000e+00 -5.9113077e-06 0.0000000e+00 
0.0000000e+00 -1.5330100e-07 0.0000000e+00 
0.0000000e+00 2.0333730e-06 0.0000000e+00 
0.0000000e+00 1.1107237e-06 0.0000000e+00 
0.0000000e+00 -1.1118790e-06 0.0000000e+00 
0.0000000e+00 -3.0450817e-06 0.0000000e+00 
0.0000000e+00 -4.0181990e-06 0.0000000e+00 
0.0000000e+00 -4.2341039e-06 0.0000000e+00 
0.0000000e+00 -3.8781313e-06 0.0000000e+00 
0.0000000e+00 -2.9408848e-06 0.0000000e+00 
0.0000000e+00 -1.4018301e-06 0.0000000e+00 
0.0000000e+00 4.6264765e-07 0.0000000e+00 
0.0000000e+00 2.1042874e-06 0.0000000e+00 
0.0000000e+00 2.9092955e-06 0.0000000e+00 
0.0000000e+00 2.6085966e-06 0.0000000e+00 
0.0000000e+00 1.5151604e-06 0.0000000e+00 
0.0000000e+00 2.2534350e-07 0.0000000e+00 
0.0000000e+00 -7.7928917e-07 0.0000000e+00 
0.0000000e+00 -1.3211371e-06 0.0000000e+00 
0.0000000e+00 -1.4746201e-06 0.0000000e+00 
-1.7159218e-05 2.0649495e-04 -1.8727720e-06 
3.0340974e-05 2.6881433e-05 3.7674611e-06 
3.6366444e-05 6.3627122e-06 -6.2914387e-06 
2.5126099e-05 2.6959826e-05 -9.5839150e-06 
0.0000000e+00 -1.0972004e-04 0.0000000e+00 
0.0000000e+00 0.0000000e+00 0.0000000e+00 
0.0000000e+00 0.0000000e+00 0.0000000e+00 
0.0000000e+00 0.0000000e+00 0.0000000e+00 
0.0000000e+00 0.0000000e+00 0.0000000e+00 
0.0000000e+00 0.0000000e+00 0.0000000e+00 
0.0000000e+00 0.0000000e+00 0.0000000e+00 
0.0000000e+00 0.0000000e+00 0.0000000e+00 
0.0000000e+00 0.0000000e+00 0.0000000e+00 
0.0000000e+00 0.0000000e+00 0.0000000e+00 
0.0000000e+00 0.0000000e+00 0.0000000e+00 
0.0000000e+00 0.0000000e+00 0.0000000e+00 
0.0000000e+00 0.0000000e+00 0.0000000e+00 
0.0000000e+00 0.0000000e+00 0.0000000e+00 
0.0000000e+00 0.0000000e+00 0.0000000e+00 
0.0000000e+00 0.0000000e+00 0.0000000e+00 
0.0000000e+00 0.0000000e+00 0.0000000e+00 
0.0000000e+00 0.0000000e+00 0.0000000e+00 
0.0000000e+00 0.0000000e+00 0.0000000e+00 
0.0000000e+00 0.0000000e+00 0.0000000e+00 
0.0000000e+00 0.0000000e+00 0.0000000e+00 
0.0000000e+00 0.0000000e+00 0.0000000e+00 
0.0000000e+00 0.0000000e+00 0.0000000e+00 
0.0000000e+00 0.0000000e+00 0.0000000e+00 
0.0000000e+00 0.0000000e+00 0.0000000e+00 
0.0000000e+00 0.0000000e+00 0.0000000e+00 
0.0000000e+00 0.0000000e+00 0.0000000e+00 
0.0000000e+00 0.0000000e+00 0.0000000e+00 
0.0000000e+00 0.0000000e+00 0.0000000e+00 
0.0000000e+00 0.0000000e+00 0.0000000e+00 
0.0000000e+00 0.0000000e+00 0.0000000e+00 
0.0000000e+00 0.0000000e+00 0.0000000e+00 
0.0000000e+00 0.0000000e+00 0.0000000e+00 
0.0000000e+00 0.0000000e+00 0.0000000e+00 
0.0000000e+00 0.0000000e+00 0.0000000e+00 
0.0000000e+00 0.0000000e+00 0.0000000e+00 
0.0000000e+00 0.0000000e+00 0.0000000e+00 
0.0000000e+00 0.0000000e+00 0.0000000e+00 
0.0000000e+00 0.0000000e+00 0.0000000e+00 
0.0000000e+00 0.0000000e+00 0.0000000e+00 
0.0000000e+00 0.0000000e+00 0.0000000e+00 
0.0000000e+00 0.0000000e+00 0.0000000e+00 
0.0000000e+00 0.0000000e+00 0.0000000e+00 
0.0000000e+00 0.0000000e+00 0.0000000e+00 
0.0000000e+00 0.0000000e+00 0.0000000e+00 
0.0000000e+00 0.0000000e+00 0.0000000e+00 
0.0000000e+00 0.0000000e+00 0.0000000e+00 
0.0000000e+00 0.0000000e+00 0.0000000e+00 
0.0000000e+00 0.0000000e+00 0.0000000e+00 
0.0000000e+00 0.0000000e+00 0.0000000e+00 
0.0000000e+00 0.0000000e+00 0.0000000e+00 
0.0000000e+00 0.0000000e+00 0.0000000e+00 
0.0000000e+00 0.0000000e+00 0.0000000e+00 
0.0000000e+00 0.0000000e+00 0.0000000e+00 
0.0000000e+00 0.0000000e+00 0.0000000e+00 
0.0000000e+00 0.0000000e+00 0.0000000e+00 
0.0000000e+00 0.0000000e+00 0.0000000e+00 
0.0000000e+00 0.0000000e+00 0.0000000e+00 
0.0000000e+00 0.0000000e+00 0.0000000e+00 
0.0000000e+00 0.0000000e+00 0.0000000e+00 
0.0000000e+00 0.0000000e+00 0.0000000e+00 
0.0000000e+00 0.0000000e+00 0.0000000e+00 
0.0000000e+00 0.0000000e+00 0.0000000e+00 
0.0000000e+00 0.0000000e+00 0.0000000e+00 
0.0000000e+00 0.0000000e+00 0.0000000e+00 
0.0000000e+00 0.0000000e+00 0.0000000e+00 
0.0000000e+00 0.0000000e+00 0.0000000e+00 
0.0000000e+00 0.0000000e+00 0.0000000e+00 
0.0000000e+00 0.0000000e+00 0.0000000e+00 
0.0000000e+00 0.0000000e+00 0.0000000e+00 
0.0000000e+00 0.0000000e+00 0.0000000e+00 
0.0000000e+00 0.0000000e+00 0.0000000e+00 
0.0000000e+00 0.0000000e+00 0.0000000e+00 
0.0000000e+00 0.0000000e+00 0.0000000e+00 
0.0000000e+00 0.0000000e+00 0.0000000e+00 
0.0000000e+00 0.0000000e+00 0.0000000e+00 
0.0000000e+00 0.0000000e+00 0.0000000e+00 
0.0000000e+00 0.0000000e+00 0.0000000e+00 
0.0000000e+00 0.0000000e+00 0.0000000e+00 
0.0000000e+00 0.0000000e+00 0.0000000e+00 
0.0000000e+00 0.0000000e+00 0.0000000e+00 
0.0000000e+00 0.0000000e+00 0.0000000e+00 
0.0000000e+00 0.0000000e+00 0.0000000e+00 
0.0000000e+00 0.0000000e+00 0.0000000e+00 
0.0000000e+00 0.0000000e+00 0.0000000e+00 
0.0000000e+00 0.0000000e+00 0.0000000e+00 
0.0000000e+00 0.0000000e+00 0.0000000e+00 
0.0000000e+00 0.0000000e+00 0.0000000e+00 
0.0000000e+00 0.0000000e+00 0.0000000e+00 
0.0000000e+00 0.0000000e+00 0.0000000e+00 
0.0000000e+00 0.0000000e+00 0.0000000e+00 
0.0000000e+00 0.0000000e+00 0.0000000e+00 
0.0000000e+00 0.0000000e+00 0.0000000e+00 
0.0000000e+00 0.0000000e+00 0.0000000e+00 
0.0000000e+00 0.0000000e+00 0.0000000e+00 
0.0000000e+00 0.0000000e+00 0.0000000e+00 
0.0000000e+00 0.0000000e+00 0.0000000e+00 
0.0000000e+00 0.0000000e+00 0.0000000e+00 
0.0000000e+00 0.0000000e+00 0.0000000e+00 
0.0000000e+00 0.0000000e+00 0.0000000e+00 
0.0000000e+00 0.0000000e+00 0.0000000e+00 
0.0000000e+00 0.0000000e+00 0.0000000e+00 
0.0000000e+00 0.0000000e+00 0.0000000e+00 
0.0000000e+00 0.0000000e+00 0.0000000e+00 
0.0000000e+00 0.0000000e+00 0.0000000e+00 
0.0000000e+00 0.0000000e+00 0.0000000e+00 
0.0000000e+00 0.0000000e+00 0.0000000e+00 
-7.1036811e-06 6.2749946e-06 8.6265409e-06 
-2.4015815e-06 1.1655517e-05 6.1876044e-06 
4.2141219e-06 1.3056394e-05 1.9898530e-06 
8.8234774e-06 1.3217772e-05 -3.0678564e-06 
1.6415395e-05 1.1683369e-05 -6.5474360e-06 
2.2845294e-05 1.1147999e-05 -8.9555797e-06 
2.7627530e-05 1.0380732e-05 -1.1018476e-05 
3.2181099e-05 1.1325857e-05 -1.1089604e-05 
3.7369373e-05 1.1538586e-05 -1.0331943e-05 
3.8154911e-05 4.8585198e-06 -1.3693115e-05 
3.7567585e-05 -2.3585233e-06 -1.6188587e-05 
3.8800794e-05 -8.7761173e-06 -1.5214706e-05 
3.3932589e-05 -1.4549722e-05 -1.2251014e-05 
2.0926234e-05 -1.1827390e-05 -3.0792323e-06 
1.2286686e-05 -5.6970107e-06 3.4599736e-06 
1.0393605e-05 -1.1339413e-06 1.2031058e-05 
6.7960036e-06 -2.4563540e-06 2.1653730e-05 
2.7989870e-06 -4.0477103e-06 2.4838107e-05 
-1.6338496e-06 -3.2420246e-06 1.9931407e-05 
-4.8319671e-06 1.5676932e-06 1.4174284e-05 
-5.5255678e-06 5.5199976e-06 9.6274034e-06 
8.3842656e-07 1.5141186e-05 1.8363058e-06 
6.2115078e-06 1.5978234e-05 -5.3628810e-06 
1.3283665e-05 1.3364591e-05 -7.3920769e-06 
1.7460759e-05 1.4161468e-05 -7.3928413e-06 
2.6874464e-05 1.3355259e-05 -7.0901674e-06 
3.2633812e-05 1.1740521e-05 -9.2253849e-06 
3.7460461e-05 1.1966601e-05 -1.2224096e-05 
4.4906890e-05 6.2754170e-06 -1.3946898e-05 
4.1923035e-05 1.4725771e-06 -1.3576963e-05 
3.7089663e-05 -2.6502253e-06 -1.1841505e-05 
3.1731208e-05 -1.2382413e-05 -1.0210347e-05 
2.3340705e-05 -8.7934313e-06 -2.7830022e-06 
1.7400414e-05 -4.8771258e-06 6.4478531e-06 
1.3037391e-05 -4.1038061e-06 1.2990343e-05 
1.0271759e-05 -6.4769856e-06 1.7935612e-05 
7.7759451e-06 -2.2525410e-06 2.0552405e-05 
5.7619936e-06 -1.2982011e-06 1.8270393e-05 
4.6204264e-06 -3.7145073e-06 1.2356551e-05 
3.2812311e-06 -4.5793695e-06 5.0249760e-06 
6.8148688e-07 -1.2836939e-07 4.5910707e-07 
-7.1981839e-07 3.1969184e-06 -3.1466568e-06 
-8.3736359e-07 1.7186122e-06 -4.8871693e-06 
-9.1020587e-07 -6.0940056e-07 -2.8300294e-06 
-3.1828947e-07 -1.2627648e-07 -4.3414096e-07 
4.4845430e-07 3.9946862e-08 7.3223339e-07 
2.5903353e-07 -9.7187218e-08 1.0512706e-06 
-3.5424783e-08 -2.5458178e-07 3.2712674e-07 
8.3049670e-08 6.5578924e-08 5.9115850e-09 
0.0000000e+00 1.8535140e-05 0.0000000e+00 
0.0000000e+00 2.3790419e-05 0.0000000e+00 
0.0000000e+00 1.0882644e-05 0.0000000e+00 
0.0000000e+00 -3.9855572e-06 0.0000000e+00 
0.0000000e+00 -9.3796743e-06 0.0000000e+00 
0.0000000e+00 -1.3957309e-05 0.0000000e+00 
0.0000000e+00 -3.4381213e-05 0.0000000e+00 
0.0000000e+00 -1.0352890e-04 0.0000000e+00 
0.0000000e+00 -2.2646219e-04 0.0000000e+00 
0.0000000e+00 -3.8363281e-04 0.0000000e+00 
0.0000000e+00 -4.7575316e-04 0.0000000e+00 
0.0000000e+00 -4.9653003e-04 0.0000000e+00 
0.0000000e+00 -4.6280152e-04 0.0000000e+00 
0.0000000e+00 -3.2256194e-04 0.0000000e+00 
0.0000000e+00 -1.7077202e-04 0.0000000e+00 
0.0000000e+00 -5.8413498e-05 0.0000000e+00 
0.0000000e+00 5.3692593e-06 0.0000000e+00 
0.0000000e+00 1.7963715e-05 0.0000000e+00 
0.0000000e+00 1.1067362e-05 0.0000000e+00 
0.0000000e+00 1.1885497e-05 0.0000000e+00 
0.0000000e+00 1.0887310e-05 0.0000000e+00 
0.0000000e+00 -6.2360336e-06 0.0000000e+00 
0.0000000e+00 -1.6408219e-05 0.0000000e+00 
0.0000000e+00 -3.2052361e-05 0.0000000e+00 
0.0000000e+00 -5.0503138e-05 0.0000000e+00 
0.0000000e+00 -6.8818277e-05 0.0000000e+00 
0.0000000e+00 -8.2361476e-05 0.0000000e+00 
0.0000000e+00 -1.2970237e-04 0.0000000e+00 
0.0000000e+00 -2.3726044e-04 0.0000000e+00 
0.0000000e+00 -3.8927456e-04 0.0000000e+00 
0.0000000e+00 -4.8514176e-04 0.0000000e+00 
0.0000000e+00 -5.1447318e-04 0.0000000e+00 
0.0000000e+00 -4.6563588e-04 0.0000000e+00 
0.0000000e+00 -3.1321374e-04 0.0000000e+00 
0.0000000e+00 -1.4473721e-04 0.0000000e+00 
0.0000000e+00 -1.6562422e-05 0.0000000e+00 
0.0000000e+00 1.0696232e-05 0.0000000e+00 
0.0000000e+00 1.6369195e-05 0.0000000e+00 
0.0000000e+00 2.2269173e-06 0.0000000e+00 
0.0000000e+00 3.7000600e-06 0.0000000e+00 
0.0000000e+00 5.2147516e-06 0.0000000e+00 
0.0000000e+00 -2.4158637e-06 0.0000000e+00 
0.0000000e+00 -3.1294376e-06 0.0000000e+00 
0.0000000e+00 4.0558220e-07 0.0000000e+00 
0.0000000e+00 1.4144048e-06 0.0000000e+00 
0.0000000e+00 1.6429135e-07 0.0000000e+00 
0.0000000e+00 -6.8655794e-07 0.0000000e+00 
0.0000000e+00 -7.8778072e-07 0.0000000e+00 
0.0000000e+00 -2.3341110e-07 0.0000000e+00 
-8.8082343e-06 3.6582458e-06 9.3289736e-06 
-3.9940978e-06 8.0913978e-06 1.2984264e-05 
1.0691525e-06 3.9023039e-06 1.3604504e-05 
3.1324980e-06 2.5995143e-07 4.8006809e-06 
5.7405924e-08 -1.1669957e-07 -1.5894704e-08 
1.6530480e-07 -1.6605084e-07 -4.0903572e-07 
-1.6846887e-07 1.5218947e-07 -4.8023355e-07 
-9.2526493e-09 2.5344262e-08 -4.5359647e-07 
-7.0322558e-06 4.1105895e-06 9.0961856e-07 
-2.2107214e-07 -5.5307503e-08 -3.8689555e-07 
4.7642725e-06 -1.5761105e-05 3.3666581e-06 
-4.7484156e-07 4.1212124e-06 2.4293235e-05 
0.0000000e+00 1.3247452e-05 0.0000000e+00 
0.0000000e+00 1.1666926e-05 0.0000000e+00 
0.0000000e+00 1.3950634e-06 0.0000000e+00 
0.0000000e+00 -1.2417700e-05 0.0000000e+00 
0.0000000e+00 -2.1044294e-05 0.0000000e+00 
0.0000000e+00 -3.1683296e-05 0.0000000e+00 
0.0000000e+00 -6.7667177e-05 0.0000000e+00 
0.0000000e+00 -2.1123094e-04 0.0000000e+00 
0.0000000e+00 -4.8718156e-04 0.0000000e+00 
0.0000000e+00 -8.5068081e-04 0.0000000e+00 
0.0000000e+00 -1.1075762e-03 0.0000000e+00 
0.0000000e+00 -1.0942181e-03 0.0000000e+00 
0.0000000e+00 -9.8124461e-04 0.0000000e+00 