# vtk DataFile Version 4.0
vtk output
ASCII
DATASET UNSTRUCTURED_GRID
POINTS 1919 float
0.0000000e+00 0.0000000e+00 0.0000000e+00 
0.0000000e+00 0.0000000e+00 5.0000000e+01 
5.0000000e+00 0.0000000e+00 0.0000000e+00 
5.0000000e+00 0.0000000e+00 5.0000000e+01 
5.0000000e+00 1.0000000e+00 0.0000000e+00 
5.0000000e+00 1.0000000e+00 5.0000000e+01 
0.0000000e+00 1.0000000e+00 0.0000000e+00 
0.0000000e+00 1.0000000e+00 5.0000000e+01 
5.0000000e+00 2.0000000e+00 0.0000000e+00 
5.0000000e+00 2.0000000e+00 5.0000000e+01 
3.0000000e+00 2.0000000e+00 0.0000000e+00 
3.0000000e+00 2.0000000e+00 5.0000000e+01 
0.0000000e+00 2.0000000e+00 0.0000000e+00 
0.0000000e+00 2.0000000e+00 5.0000000e+01 
1.5000000e+00 3.0000000e+00 0.0000000e+00 
1.5000000e+00 3.0000000e+00 5.0000000e+01 
7.5000000e-01 3.0000000e+00 0.0000000e+00 
7.5000000e-01 3.0000000e+00 5.0000000e+01 
0.0000000e+00 3.0000000e+00 0.0000000e+00 
0.0000000e+00 3.0000000e+00 5.0000000e+01 
7.5000000e-01 3.0000000e+00 5.0000000e-01 
7.5000000e-01 3.0000000e+00 1.0000000e+00 
7.5000000e-01 3.0000000e+00 1.5000000e+00 
7.5000000e-01 3.0000000e+00 2.0000000e+00 
7.5000000e-01 3.0000000e+00 2.5000000e+00 
7.5000000e-01 3.0000000e+00 3.0000000e+00 
7.5000000e-01 3.0000000e+00 3.5000000e+00 
7.5000000e-01 3.0000000e+00 4.0000000e+00 
7.5000000e-01 3.0000000e+00 4.5000000e+00 
7.5000000e-01 3.0000000e+00 5.0000000e+00 
7.5000000e-01 3.0000000e+00 5.5000000e+00 
7.5000000e-01 3.0000000e+00 6.0000000e+00 
7.5000000e-01 3.0000000e+00 6.5000000e+00 
7.5000000e-01 3.0000000e+00 7.0000000e+00 
7.5000000e-01 3.0000000e+00 7.5000000e+00 
7.5000000e-01 3.0000000e+00 8.0000000e+00 
7.5000000e-01 3.0000000e+00 8.5000000e+00 
7.5000000e-01 3.0000000e+00 9.0000000e+00 
7.5000000e-01 3.0000000e+00 9.5000000e+00 
7.5000000e-01 3.0000000e+00 1.0000000e+01 
7.5000000e-01 3.0000000e+00 1.0500000e+01 
7.5000000e-01 3.0000000e+00 1.1000000e+01 
7.5000000e-01 3.0000000e+00 1.1500000e+01 
7.5000000e-01 3.0000000e+00 1.2000000e+01 
7.5000000e-01 3.0000000e+00 1.2500000e+01 
7.5000000e-01 3.0000000e+00 1.3000000e+01 
7.5000000e-01 3.0000000e+00 1.3500000e+01 
7.5000000e-01 3.0000000e+00 1.4000000e+01 
7.5000000e-01 3.0000000e+00 1.4500000e+01 
7.5000000e-01 3.0000000e+00 1.5000000e+01 
7.5000000e-01 3.0000000e+00 1.5500000e+01 
7.5000000e-01 3.0000000e+00 1.6000000e+01 
7.5000000e-01 3.0000000e+00 1.6500000e+01 
7.5000000e-01 3.0000000e+00 1.7000000e+01 
7.5000000e-01 3.0000000e+00 1.7500000e+01 
7.5000000e-01 3.0000000e+00 1.8000000e+01 
7.5000000e-01 3.0000000e+00 1.8500000e+01 
7.5000000e-01 3.0000000e+00 1.9000000e+01 
7.5000000e-01 3.0000000e+00 1.9500000e+01 
7.5000000e-01 3.0000000e+00 2.0000000e+01 
7.5000000e-01 3.0000000e+00 2.0500000e+01 
7.5000000e-01 3.0000000e+00 2.1000000e+01 
7.5000000e-01 3.0000000e+00 2.1500000e+01 
7.5000000e-01 3.0000000e+00 2.2000000e+01 
7.5000000e-01 3.0000000e+00 2.2500000e+01 
7.5000000e-01 3.0000000e+00 2.3000000e+01 
7.5000000e-01 3.0000000e+00 2.3500000e+01 
7.5000000e-01 3.0000000e+00 2.4000000e+01 
7.5000000e-01 3.0000000e+00 2.4500000e+01 
7.5000000e-01 3.0000000e+00 2.5000000e+01 
7.5000000e-01 3.0000000e+00 2.5500000e+01 
7.5000000e-01 3.0000000e+00 2.6000000e+01 
7.5000000e-01 3.0000000e+00 2.6500000e+01 
7.5000000e-01 3.0000000e+00 2.7000000e+01 
7.5000000e-01 3.0000000e+00 2.7500000e+01 
7.5000000e-01 3.0000000e+00 2.8000000e+01 
7.5000000e-01 3.0000000e+00 2.8500000e+01 
7.5000000e-01 3.0000000e+00 2.9000000e+01 
7.5000000e-01 3.0000000e+00 2.9500000e+01 
7.5000000e-01 3.0000000e+00 3.0000000e+01 
7.5000000e-01 3.0000000e+00 3.0500000e+01 
7.5000000e-01 3.0000000e+00 3.1000000e+01 
7.5000000e-01 3.0000000e+00 3.1500000e+01 
7.5000000e-01 3.0000000e+00 3.2000000e+01 
7.5000000e-01 3.0000000e+00 3.2500000e+01 
7.5000000e-01 3.0000000e+00 3.3000000e+01 
7.5000000e-01 3.0000000e+00 3.3500000e+01 
7.5000000e-01 3.0000000e+00 3.4000000e+01 
7.5000000e-01 3.0000000e+00 3.4500000e+01 
7.5000000e-01 3.0000000e+00 3.5000000e+01 
7.5000000e-01 3.0000000e+00 3.5500000e+01 
7.5000000e-01 3.0000000e+00 3.6000000e+01 
7.5000000e-01 3.0000000e+00 3.6500000e+01 
7.5000000e-01 3.0000000e+00 3.7000000e+01 
7.5000000e-01 3.0000000e+00 3.7500000e+01 
7.5000000e-01 3.0000000e+00 3.8000000e+01 
7.5000000e-01 3.0000000e+00 3.8500000e+01 
7.5000000e-01 3.0000000e+00 3.9000000e+01 
7.5000000e-01 3.0000000e+00 3.9500000e+01 
7.5000000e-01 3.0000000e+00 4.0000000e+01 
7.5000000e-01 3.0000000e+00 4.0500000e+01 
7.5000000e-01 3.0000000e+00 4.1000000e+01 
7.5000000e-01 3.0000000e+00 4.1500000e+01 
7.5000000e-01 3.0000000e+00 4.2000000e+01 
7.5000000e-01 3.0000000e+00 4.2500000e+01 
7.5000000e-01 3.0000000e+00 4.3000000e+01 
7.5000000e-01 3.0000000e+00 4.3500000e+01 
7.5000000e-01 3.0000000e+00 4.4000000e+01 
7.5000000e-01 3.0000000e+00 4.4500000e+01 
7.5000000e-01 3.0000000e+00 4.5000000e+01 
7.5000000e-01 3.0000000e+00 4.5500000e+01 
7.5000000e-01 3.0000000e+00 4.6000000e+01 
7.5000000e-01 3.0000000e+00 4.6500000e+01 
7.5000000e-01 3.0000000e+00 4.7000000e+01 
7.5000000e-01 3.0000000e+00 4.7500000e+01 
7.5000000e-01 3.0000000e+00 4.8000000e+01 
7.5000000e-01 3.0000000e+00 4.8500000e+01 
7.5000000e-01 3.0000000e+00 4.9000000e+01 
7.5000000e-01 3.0000000e+00 4.9500000e+01 
7.5000000e-01 3.0250001e+00 0.0000000e+00 
7.5000000e-01 3.0250001e+00 5.0000000e-01 
7.5000000e-01 3.0250001e+00 1.0000000e+00 
7.5000000e-01 3.0250001e+00 1.5000000e+00 
7.5000000e-01 3.0250001e+00 2.0000000e+00 
7.5000000e-01 3.0250001e+00 2.5000000e+00 
7.5000000e-01 3.0250001e+00 3.0000000e+00 
7.5000000e-01 3.0250001e+00 3.5000000e+00 
7.5000000e-01 3.0250001e+00 4.0000000e+00 
7.5000000e-01 3.0250001e+00 4.5000000e+00 
7.5000000e-01 3.0250001e+00 5.0000000e+00 
7.5000000e-01 3.0250001e+00 5.5000000e+00 
7.5000000e-01 3.0250001e+00 6.0000000e+00 
7.5000000e-01 3.0250001e+00 6.5000000e+00 
7.5000000e-01 3.0250001e+00 7.0000000e+00 
7.5000000e-01 3.0250001e+00 7.5000000e+00 
7.5000000e-01 3.0250001e+00 8.0000000e+00 
7.5000000e-01 3.0250001e+00 8.5000000e+00 
7.5000000e-01 3.0250001e+00 9.0000000e+00 
7.5000000e-01 3.0250001e+00 9.5000000e+00 
7.5000000e-01 3.0250001e+00 1.0000000e+01 
7.5000000e-01 3.0250001e+00 1.0500000e+01 
7.5000000e-01 3.0250001e+00 1.1000000e+01 
7.5000000e-01 3.0250001e+00 1.1500000e+01 
7.5000000e-01 3.0250001e+00 1.2000000e+01 
7.5000000e-01 3.0250001e+00 1.2500000e+01 
7.5000000e-01 3.0250001e+00 1.3000000e+01 
7.5000000e-01 3.0250001e+00 1.3500000e+01 
7.5000000e-01 3.0250001e+00 1.4000000e+01 
7.5000000e-01 3.0250001e+00 1.4500000e+01 
7.5000000e-01 3.0250001e+00 1.5000000e+01 
7.5000000e-01 3.0250001e+00 1.5500000e+01 
7.5000000e-01 3.0250001e+00 1.6000000e+01 
7.5000000e-01 3.0250001e+00 1.6500000e+01 
7.5000000e-01 3.0250001e+00 1.7000000e+01 
7.5000000e-01 3.0250001e+00 1.7500000e+01 
7.5000000e-01 3.0250001e+00 1.8000000e+01 
7.5000000e-01 3.0250001e+00 1.8500000e+01 
7.5000000e-01 3.0250001e+00 1.9000000e+01 
7.5000000e-01 3.0250001e+00 1.9500000e+01 
7.5000000e-01 3.0250001e+00 2.0000000e+01 
7.5000000e-01 3.0250001e+00 2.0500000e+01 
7.5000000e-01 3.0250001e+00 2.1000000e+01 
7.5000000e-01 3.0250001e+00 2.1500000e+01 
7.5000000e-01 3.0250001e+00 2.2000000e+01 
7.5000000e-01 3.0250001e+00 2.2500000e+01 
7.5000000e-01 3.0250001e+00 2.3000000e+01 
7.5000000e-01 3.0250001e+00 2.3500000e+01 
7.5000000e-01 3.0250001e+00 2.4000000e+01 
7.5000000e-01 3.0250001e+00 2.4500000e+01 
7.5000000e-01 3.0250001e+00 2.5000000e+01 
7.5000000e-01 3.0250001e+00 2.5500000e+01 
7.5000000e-01 3.0250001e+00 2.6000000e+01 
7.5000000e-01 3.0250001e+00 2.6500000e+01 
7.5000000e-01 3.0250001e+00 2.7000000e+01 
7.5000000e-01 3.0250001e+00 2.7500000e+01 
7.5000000e-01 3.0250001e+00 2.8000000e+01 
7.5000000e-01 3.0250001e+00 2.8500000e+01 
7.5000000e-01 3.0250001e+00 2.9000000e+01 
7.5000000e-01 3.0250001e+00 2.9500000e+01 
7.5000000e-01 3.0250001e+00 3.0000000e+01 
7.5000000e-01 3.0250001e+00 3.0500000e+01 
7.5000000e-01 3.0250001e+00 3.1000000e+01 
7.5000000e-01 3.0250001e+00 3.1500000e+01 
7.5000000e-01 3.0250001e+00 3.2000000e+01 
7.5000000e-01 3.0250001e+00 3.2500000e+01 
7.5000000e-01 3.0250001e+00 3.3000000e+01 
7.5000000e-01 3.0250001e+00 3.3500000e+01 
7.5000000e-01 3.0250001e+00 3.4000000e+01 
7.5000000e-01 3.0250001e+00 3.4500000e+01 
7.5000000e-01 3.0250001e+00 3.5000000e+01 
7.5000000e-01 3.0250001e+00 3.5500000e+01 
7.5000000e-01 3.0250001e+00 3.6000000e+01 
7.5000000e-01 3.0250001e+00 3.6500000e+01 
7.5000000e-01 3.0250001e+00 3.7000000e+01 
7.5000000e-01 3.0250001e+00 3.7500000e+01 
7.5000000e-01 3.0250001e+00 3.8000000e+01 
7.5000000e-01 3.0250001e+00 3.8500000e+01 
7.5000000e-01 3.0250001e+00 3.9000000e+01 
7.5000000e-01 3.0250001e+00 3.9500000e+01 
7.5000000e-01 3.0250001e+00 4.0000000e+01 
7.5000000e-01 3.0250001e+00 4.0500000e+01 
7.5000000e-01 3.0250001e+00 4.1000000e+01 
7.5000000e-01 3.0250001e+00 4.1500000e+01 
7.5000000e-01 3.0250001e+00 4.2000000e+01 
7.5000000e-01 3.0250001e+00 4.2500000e+01 
7.5000000e-01 3.0250001e+00 4.3000000e+01 
7.5000000e-01 3.0250001e+00 4.3500000e+01 
7.5000000e-01 3.0250001e+00 4.4000000e+01 
7.5000000e-01 3.0250001e+00 4.4500000e+01 
7.5000000e-01 3.0250001e+00 4.5000000e+01 
7.5000000e-01 3.0250001e+00 4.5500000e+01 
7.5000000e-01 3.0250001e+00 4.6000000e+01 
7.5000000e-01 3.0250001e+00 4.6500000e+01 
7.5000000e-01 3.0250001e+00 4.7000000e+01 
7.5000000e-01 3.0250001e+00 4.7500000e+01 
7.5000000e-01 3.0250001e+00 4.8000000e+01 
7.5000000e-01 3.0250001e+00 4.8500000e+01 
7.5000000e-01 3.0250001e+00 4.9000000e+01 
7.5000000e-01 3.0250001e+00 4.9500000e+01 
7.5000000e-01 3.0250001e+00 5.0000000e+01 
1.5000000e+00 3.0000000e+00 2.5000000e+01 
3.0000000e+00 2.0000000e+00 2.5000000e+01 
4.0000000e+00 2.0000000e+00 2.5000000e+01 
5.0000000e+00 2.0000000e+00 2.5000000e+01 
0.0000000e+00 3.0000000e+00 2.5000000e+01 
0.0000000e+00 0.0000000e+00 1.0000000e+00 
0.0000000e+00 0.0000000e+00 2.0000000e+00 
0.0000000e+00 0.0000000e+00 3.0000000e+00 
0.0000000e+00 0.0000000e+00 4.0000000e+00 
0.0000000e+00 0.0000000e+00 5.0000000e+00 
[...]
POINT_DATA 1919
FIELD FieldData 3
DISPLACEMENT 3 1919  float
0.0000000e+00 0.0000000e+00 0.0000000e+00 
0.0000000e+00 0.0000000e+00 0.0000000e+00 
0.0000000e+00 0.0000000e+00 0.0000000e+00 
0.0000000e+00 0.0000000e+00 0.0000000e+00 
-5.4291672e-07 4.1464469e-07 6.8978130e-07 
1.0619604e-05 -4.7881863e-06 1.4482047e-05 
0.0000000e+00 2.4247036e-06 0.0000000e+00 
0.0000000e+00 -1.0690173e-05 0.0000000e+00 
-2.7702595e-07 4.5723445e-07 1.0523278e-06 
9.1721840e-06 -2.4530513e-07 1.4301615e-05 
2.0864897e-07 1.2685595e-06 7.8513284e-07 
1.0004504e-05 4.1191693e-06 7.1533009e-06 
0.0000000e+00 3.8833346e-06 0.0000000e+00 
0.0000000e+00 3.7737733e-05 0.0000000e+00 
-5.2342966e-07 5.9038184e-06 8.2552651e-06 
-3.4212317e-05 9.9211356e-05 -2.4972131e-04 
-3.7712996e-07 -2.4051387e-06 4.2743613e-06 
3.4679972e-05 1.7659810e-04 -2.3533771e-04 
0.0000000e+00 3.2085693e-06 0.0000000e+00 
0.0000000e+00 2.6140379e-04 0.0000000e+00 
-9.9292583e-07 -2.4884564e-06 3.9325942e-06 
-1.3905068e-06 -2.8067577e-06 2.6030323e-06 
-2.5794300e-06 -3.3186902e-06 1.0480552e-06 
-3.8762832e-06 -4.0302252e-06 -2.0975149e-06 
-3.3387587e-06 -4.8199986e-06 -4.2889133e-06 
-3.1085440e-06 -5.5661130e-06 -5.2361916e-06 
-1.6052198e-06 -6.2041186e-06 -4.5588622e-06 
-1.9520426e-06 -6.6259058e-06 -4.0360096e-06 
-1.8689924e-06 -6.9152061e-06 -4.4196868e-06 
-2.5101931e-06 -7.1026670e-06 -6.3397306e-06 
-1.3226330e-06 -7.3217611e-06 -7.0937176e-06 
-4.4944062e-07 -7.4975801e-06 -6.4445680e-06 
8.1608084e-07 -7.6183419e-06 -4.0932368e-06 
-6.7582135e-07 -7.4808631e-06 -1.6747556e-06 
-1.5720462e-06 -7.0568021e-06 -7.7657938e-07 
-2.9820142e-06 -6.3011721e-06 -1.9672823e-06 
-3.8534808e-06 -5.4538377e-06 -3.5920013e-06 
-4.5348329e-06 -4.6397022e-06 -3.9906395e-06 
-3.6757895e-06 -4.0271393e-06 -2.5978836e-06 
-3.5170885e-06 -3.4944978e-06 -1.9735209e-07 
-3.1318025e-06 -2.9330308e-06 1.3350194e-06 
-3.2742062e-06 -2.2310173e-06 1.2071808e-06 
-2.2848569e-06 -1.4965896e-06 1.3932983e-07 
-7.4443847e-07 -1.0945352e-06 -6.9268964e-07 
-1.0223152e-08 -1.4666900e-06 -2.3286486e-07 
-2.3453042e-07 -2.6324933e-06 1.7136033e-06 
-7.6076878e-07 -4.3025043e-06 3.0775991e-06 
-1.7703411e-06 -5.7692118e-06 2.9373352e-06 
1.5665465e-07 -6.3585148e-06 4.5019698e-07 
1.3878478e-06 -5.9822241e-06 -3.0584965e-06 
3.5968408e-06 -4.7137100e-06 -4.8858674e-06 
4.7430126e-06 -2.7784522e-06 -4.3259483e-06 
5.6675572e-06 -1.9095116e-07 -3.6098622e-06 
5.8021651e-06 3.5502321e-06 -1.4148619e-06 
4.7001463e-06 9.1346292e-06 -1.0604307e-06 
3.7952198e-06 1.7269636e-05 -3.1599848e-07 
4.9550804e-06 2.8832375e-05 3.9495703e-07 
8.7979419e-07 4.4267963e-05 5.8670494e-06 
-1.0027143e-06 6.3332234e-05 1.0273227e-05 
-2.2694082e-06 8.2297971e-05 1.9783954e-05 
-1.9965753e-06 9.2243783e-05 3.0725307e-05 
-1.7008509e-06 7.2878494e-05 4.6395999e-05 
-6.1076321e-06 -8.2146535e-06 8.8166620e-05 
-2.4140925e-05 -1.9932349e-04 1.1458297e-04 
-5.3381224e-05 -5.6493020e-04 1.8975086e-04 
-5.5900007e-05 -1.1611076e-03 1.3484144e-04 
-1.5004170e-04 -2.0366388e-03 2.8978885e-04 
-1.8758808e-04 -3.1273633e-03 2.2422906e-04 
-2.3635611e-04 -4.2359894e-03 2.4149842e-04 
-1.5845467e-04 -4.8856349e-03 8.4780557e-05 
-2.6290226e-04 -4.7719441e-03 4.4199710e-06 
-3.0659678e-04 -4.4785142e-03 -4.6672696e-05 
-2.8988600e-04 -4.4553075e-03 -8.5437743e-05 
-3.1954909e-04 -4.5941533e-03 -1.5843470e-04 
-2.9690980e-04 -4.4317129e-03 -2.3431370e-04 
-2.4259309e-04 -3.4283518e-03 -1.7052745e-04 
-1.5852696e-04 -2.1935848e-03 -3.0967960e-04 
-8.8984125e-05 -1.1232051e-03 -1.5807567e-04 
-2.9510324e-05 -3.9316676e-04 -1.8189260e-04 
-1.6996898e-06 2.3255388e-05 -7.9466277e-05 
1.1129697e-05 2.0008952e-04 -5.2925607e-05 
1.2981836e-05 2.2995859e-04 -2.0933079e-05 
8.9505702e-06 1.8924044e-04 -3.6721037e-06 
5.9561103e-06 1.2571314e-04 -5.7610782e-06 
4.2740971e-06 6.8310263e-05 1.1619903e-06 
2.1252827e-06 2.6004782e-05 -2.7693450e-06 
-6.6602092e-07 1.8622973e-07 -3.3137670e-07 
-2.8623599e-06 -1.2861577e-05 -2.5375384e-06 
-2.2612694e-06 -1.7472135e-05 -4.3414207e-06 
-5.2065405e-07 -1.7163351e-05 -6.8068848e-06 
3.1688376e-06 -1.4625653e-05 -7.4989653e-06 
3.7082871e-06 -1.1233620e-05 -6.2470699e-06 
4.9733353e-06 -7.3414253e-06 -2.8851762e-06 
3.8577873e-06 -2.2800598e-06 2.8170479e-07 
3.8676017e-06 5.0330018e-06 -4.2996749e-08 
5.6443068e-06 1.5852214e-05 -3.9229262e-06 
5.6183608e-06 3.0819909e-05 -2.2912191e-06 
4.1894978e-06 4.9696340e-05 2.2869285e-06 
3.1427080e-06 7.0618800e-05 7.6536835e-06 
7.9880260e-07 8.7429886e-05 1.9072122e-05 
-4.4137378e-06 8.8707304e-05 3.3325992e-05 
-8.4405410e-06 5.2126717e-05 4.8044967e-05 
-2.2003020e-05 -5.6880654e-05 9.3766903e-05 
-3.1977943e-05 -2.8809762e-04 1.0741971e-04 
-6.2434738e-05 -7.0297212e-04 1.9868479e-04 
-8.1432816e-05 -1.3550284e-03 1.6182110e-04 
-1.3422570e-04 -2.2754411e-03 2.7046571e-04 
-1.6633650e-04 -3.3862148e-03 1.1577218e-04 
-2.3410773e-04 -4.4666389e-03 1.9062073e-04 
-2.5534394e-04 -4.9540228e-03 5.4895900e-05 
-2.4298731e-04 -4.7178799e-03 8.3188324e-06 
-2.3932410e-04 -4.4175116e-03 -1.8252993e-05 
-2.0556853e-04 -4.4119847e-03 -3.0120686e-05 
-2.2545998e-04 -4.5214957e-03 -1.3737513e-04 
-2.1258379e-04 -4.1737556e-03 -2.1906852e-04 
-8.4563777e-05 -3.0459098e-03 -1.9064969e-04 
-1.0024068e-04 -1.7638468e-03 -2.7092456e-04 
-2.8858369e-05 -7.1480311e-04 -2.0915833e-04 
-1.5250996e-05 -5.0953779e-05 -2.1284551e-04 
0.0000000e+00 -2.4055691e-06 0.0000000e+00 
0.0000000e+00 -2.4988603e-06 0.0000000e+00 
0.0000000e+00 -2.8091515e-06 0.0000000e+00 
0.0000000e+00 -3.3286369e-06 0.0000000e+00 
0.0000000e+00 -4.0328719e-06 0.0000000e+00 
0.0000000e+00 -4.8203724e-06 0.0000000e+00 
0.0000000e+00 -5.5720457e-06 0.0000000e+00 
0.0000000e+00 -6.1992514e-06 0.0000000e+00 
0.0000000e+00 -6.6324133e-06 0.0000000e+00 
0.0000000e+00 -6.9152388e-06 0.0000000e+00 
0.0000000e+00 -7.1180170e-06 0.0000000e+00 
0.0000000e+00 -7.3266315e-06 0.0000000e+00 
0.0000000e+00 -7.5148200e-06 0.0000000e+00 
0.0000000e+00 -7.6186839e-06 0.0000000e+00 
0.0000000e+00 -7.4876302e-06 0.0000000e+00 
0.0000000e+00 -7.0480305e-06 0.0000000e+00 
0.0000000e+00 -6.3104312e-06 0.0000000e+00 
0.0000000e+00 -5.4572065e-06 0.0000000e+00 
0.0000000e+00 -4.6595856e-06 0.0000000e+00 
0.0000000e+00 -4.0341874e-06 0.0000000e+00 
0.0000000e+00 -3.5009173e-06 0.0000000e+00 
0.0000000e+00 -2.9254838e-06 0.0000000e+00 
0.0000000e+00 -2.2174765e-06 0.0000000e+00 
0.0000000e+00 -1.4920148e-06 0.0000000e+00 
0.0000000e+00 -1.1153738e-06 0.0000000e+00 
0.0000000e+00 -1.4855721e-06 0.0000000e+00 
0.0000000e+00 -2.6594316e-06 0.0000000e+00 
0.0000000e+00 -4.3060368e-06 0.0000000e+00 
0.0000000e+00 -5.7433490e-06 0.0000000e+00 
0.0000000e+00 -6.3523962e-06 0.0000000e+00 
0.0000000e+00 -5.9774161e-06 0.0000000e+00 
0.0000000e+00 -4.7299263e-06 0.0000000e+00 
0.0000000e+00 -2.8105128e-06 0.0000000e+00 
0.0000000e+00 -2.0386656e-07 0.0000000e+00 
0.0000000e+00 3.5464257e-06 0.0000000e+00 
0.0000000e+00 9.1247612e-06 0.0000000e+00 
0.0000000e+00 1.7290284e-05 0.0000000e+00 
0.0000000e+00 2.8873519e-05 0.0000000e+00 
0.0000000e+00 4.4443110e-05 0.0000000e+00 
0.0000000e+00 6.3610103e-05 0.0000000e+00 
0.0000000e+00 8.2898325e-05 0.0000000e+00 
0.0000000e+00 9.2918548e-05 0.0000000e+00 
0.0000000e+00 7.3800489e-05 0.0000000e+00 
0.0000000e+00 -7.3190045e-06 0.0000000e+00 
0.0000000e+00 -1.9951290e-04 0.0000000e+00 
0.0000000e+00 -5.6531513e-04 0.0000000e+00 
0.0000000e+00 -1.1669006e-03 0.0000000e+00 
0.0000000e+00 -2.0438633e-03 0.0000000e+00 
0.0000000e+00 -3.1417585e-03 0.0000000e+00 
0.0000000e+00 -4.2550052e-03 0.0000000e+00 
0.0000000e+00 -4.9198801e-03 0.0000000e+00 
0.0000000e+00 -4.7950251e-03 0.0000000e+00 
0.0000000e+00 -4.5065377e-03 0.0000000e+00 
0.0000000e+00 -4.4744466e-03 0.0000000e+00 
0.0000000e+00 -4.6248012e-03 0.0000000e+00 
0.0000000e+00 -4.4537652e-03 0.0000000e+00 
0.0000000e+00 -3.4541956e-03 0.0000000e+00 
0.0000000e+00 -2.2051069e-03 0.0000000e+00 
0.0000000e+00 -1.1327338e-03 0.0000000e+00 
0.0000000e+00 -3.9525921e-04 0.0000000e+00 
0.0000000e+00 2.2829776e-05 0.0000000e+00 
0.0000000e+00 2.0113878e-04 0.0000000e+00 
0.0000000e+00 2.3156295e-04 0.0000000e+00 
0.0000000e+00 1.9026791e-04 0.0000000e+00 
0.0000000e+00 1.2670872e-04 0.0000000e+00 
0.0000000e+00 6.8682377e-05 0.0000000e+00 
0.0000000e+00 2.6219031e-05 0.0000000e+00 
0.0000000e+00 1.9236228e-07 0.0000000e+00 
0.0000000e+00 -1.2926262e-05 0.0000000e+00 
0.0000000e+00 -1.7526805e-05 0.0000000e+00 
0.0000000e+00 -1.7236018e-05 0.0000000e+00 
0.0000000e+00 -1.4685264e-05 0.0000000e+00 
0.0000000e+00 -1.1291726e-05 0.0000000e+00 
0.0000000e+00 -7.3686856e-06 0.0000000e+00 
0.0000000e+00 -2.2892875e-06 0.0000000e+00 
0.0000000e+00 5.0650924e-06 0.0000000e+00 
0.0000000e+00 1.5896130e-05 0.0000000e+00 
0.0000000e+00 3.0909763e-05 0.0000000e+00 
0.0000000e+00 4.9924798e-05 0.0000000e+00 
0.0000000e+00 7.0912683e-05 0.0000000e+00 
0.0000000e+00 8.8009772e-05 0.0000000e+00 
0.0000000e+00 8.9381218e-05 0.0000000e+00 
0.0000000e+00 5.2993903e-05 0.0000000e+00 
0.0000000e+00 -5.6187921e-05 0.0000000e+00 
0.0000000e+00 -2.8832321e-04 0.0000000e+00 
0.0000000e+00 -7.0412259e-04 0.0000000e+00 
0.0000000e+00 -1.3604579e-03 0.0000000e+00 
0.0000000e+00 -2.2832532e-03 0.0000000e+00 
0.0000000e+00 -3.4048166e-03 0.0000000e+00 
0.0000000e+00 -4.4875396e-03 0.0000000e+00 
0.0000000e+00 -4.9851891e-03 0.0000000e+00 
0.0000000e+00 -4.7413670e-03 0.0000000e+00 
0.0000000e+00 -4.4448636e-03 0.0000000e+00 
0.0000000e+00 -4.4334750e-03 0.0000000e+00 
0.0000000e+00 -4.5512547e-03 0.0000000e+00 
0.0000000e+00 -4.1978271e-03 0.0000000e+00 
0.0000000e+00 -3.0653283e-03 0.0000000e+00 
0.0000000e+00 -1.7756262e-03 0.0000000e+00 
0.0000000e+00 -7.1924756e-04 0.0000000e+00 
0.0000000e+00 -5.1742481e-05 0.0000000e+00 
0.0000000e+00 1.7585164e-04 0.0000000e+00 
-6.0222228e-04 -1.4325302e-03 1.2365522e-04 
5.2079271e-05 -8.3840707e-05 -3.5194107e-06 
5.0532228e-05 -1.9124729e-05 -2.6097600e-06 
4.5924629e-05 -1.5215183e-05 -4.9390323e-08 
0.0000000e+00 -2.5689858e-03 0.0000000e+00 
0.0000000e+00 0.0000000e+00 0.0000000e+00 
0.0000000e+00 0.0000000e+00 0.0000000e+00 
0.0000000e+00 0.0000000e+00 0.0000000e+00 
0.0000000e+00 0.0000000e+00 0.0000000e+00 
0.0000000e+00 0.0000000e+00 0.0000000e+00 
0.0000000e+00 0.0000000e+00 0.0000000e+00 
0.0000000e+00 0.0000000e+00 0.0000000e+00 
0.0000000e+00 0.0000000e+00 0.0000000e+00 
0.0000000e+00 0.0000000e+00 0.0000000e+00 
0.0000000e+00 0.0000000e+00 0.0000000e+00 
0.0000000e+00 0.0000000e+00 0.0000000e+00 
0.0000000e+00 0.0000000e+00 0.0000000e+00 
0.0000000e+00 0.0000000e+00 0.0000000e+00 
0.0000000e+00 0.0000000e+00 0.0000000e+00 
0.0000000e+00 0.0000000e+00 0.0000000e+00 
0.0000000e+00 0.0000000e+00 0.0000000e+00 
0.0000000e+00 0.0000000e+00 0.0000000e+00 
0.0000000e+00 0.0000000e+00 0.0000000e+00 
0.0000000e+00 0.0000000e+00 0.0000000e+00 
0.0000000e+00 0.0000000e+00 0.0000000e+00 
0.0000000e+00 0.0000000e+00 0.0000000e+00 
0.0000000e+00 0.0000000e+00 0.0000000e+00 
0.0000000e+00 0.0000000e+00 0.0000000e+00 
0.0000000e+00 0.0000000e+00 0.0000000e+00 
0.0000000e+00 0.0000000e+00 0.0000000e+00 
0.0000000e+00 0.0000000e+00 0.0000000e+00 
0.0000000e+00 0.0000000e+00 0.0000000e+00 
0.0000000e+00 0.0000000e+00 0.0000000e+00 
0.0000000e+00 0.0000000e+00 0.0000000e+00 
0.0000000e+00 0.0000000e+00 0.0000000e+00 
0.0000000e+00 0.0000000e+00 0.0000000e+00 
0.0000000e+00 0.0000000e+00 0.0000000e+00 
0.0000000e+00 0.0000000e+00 0.0000000e+00 
0.0000000e+00 0.0000000e+00 0.0000000e+00 
0.0000000e+00 0.0000000e+00 0.0000000e+00 
0.0000000e+00 0.0000000e+00 0.0000000e+00 
0.0000000e+00 0.0000000e+00 0.0000000e+00 
0.0000000e+00 0.0000000e+00 0.0000000e+00 
0.0000000e+00 0.0000000e+00 0.0000000e+00 
0.0000000e+00 0.0000000e+00 0.0000000e+00 
0.0000000e+00 0.0000000e+00 0.0000000e+00 
0.0000000e+00 0.0000000e+00 0.0000000e+00 
0.0000000e+00 0.0000000e+00 0.0000000e+00 
0.0000000e+00 0.0000000e+00 0.0000000e+00 
0.0000000e+00 0.0000000e+00 0.0000000e+00 
0.0000000e+00 0.0000000e+00 0.0000000e+00 
0.0000000e+00 0.0000000e+00 0.0000000e+00 
0.0000000e+00 0.0000000e+00 0.0000000e+00 
0.0000000e+00 0.0000000e+00 0.0000000e+00 
0.0000000e+00 0.0000000e+00 0.0000000e+00 
0.0000000e+00 0.0000000e+00 0.0000000e+00 
0.0000000e+00 0.0000000e+00 0.0000000e+00 
0.0000000e+00 0.0000000e+00 0.0000000e+00 
0.0000000e+00 0.0000000e+00 0.0000000e+00 
0.0000000e+00 0.0000000e+00 0.0000000e+00 
0.0000000e+00 0.0000000e+00 0.0000000e+00 
0.0000000e+00 0.0000000e+00 0.0000000e+00 
0.0000000e+00 0.0000000e+00 0.0000000e+00 
0.0000000e+00 0.0000000e+00 0.0000000e+00 
0.0000000e+00 0.0000000e+00 0.0000000e+00 
0.0000000e+00 0.0000000e+00 0.0000000e+00 
0.0000000e+00 0.0000000e+00 0.0000000e+00 
0.0000000e+00 0.0000000e+00 0.0000000e+00 
0.0000000e+00 0.0000000e+00 0.0000000e+00 
0.0000000e+00 0.0000000e+00 0.0000000e+00 
0.0000000e+00 0.0000000e+00 0.0000000e+00 
0.0000000e+00 0.0000000e+00 0.0000000e+00 
0.0000000e+00 0.0000000e+00 0.0000000e+00 
0.0000000e+00 0.0000000e+00 0.0000000e+00 
0.0000000e+00 0.0000000e+00 0.0000000e+00 
0.0000000e+00 0.0000000e+00 0.0000000e+00 
0.0000000e+00 0.0000000e+00 0.0000000e+00 
0.0000000e+00 0.0000000e+00 0.0000000e+00 
0.0000000e+00 0.0000000e+00 0.0000000e+00 
0.0000000e+00 0.0000000e+00 0.0000000e+00 
0.0000000e+00 0.0000000e+00 0.0000000e+00 
0.0000000e+00 0.0000000e+00 0.0000000e+00 
0.0000000e+00 0.0000000e+00 0.0000000e+00 
0.0000000e+00 0.0000000e+00 0.0000000e+00 
0.0000000e+00 0.0000000e+00 0.0000000e+00 
0.0000000e+00 0.0000000e+00 0.0000000e+00 
0.0000000e+00 0.0000000e+00 0.0000000e+00 
0.0000000e+00 0.0000000e+00 0.0000000e+00 
0.0000000e+00 0.0000000e+00 0.0000000e+00 
0.0000000e+00 0.0000000e+00 0.0000000e+00 
0.0000000e+00 0.0000000e+00 0.0000000e+00 
0.0000000e+00 0.0000000e+00 0.0000000e+00 
0.0000000e+00 0.0000000e+00 0.0000000e+00 
0.0000000e+00 0.0000000e+00 0.0000000e+00 
0.0000000e+00 0.0000000e+00 0.0000000e+00 
0.0000000e+00 0.0000000e+00 0.0000000e+00 
0.0000000e+00 0.0000000e+00 0.0000000e+00 
0.0000000e+00 0.0000000e+00 0.0000000e+00 
0.0000000e+00 0.0000000e+00 0.0000000e+00 
0.0000000e+00 0.0000000e+00 0.0000000e+00 
0.0000000e+00 0.0000000e+00 0.0000000e+00 
0.0000000e+00 0.0000000e+00 0.0000000e+00 
0.0000000e+00 0.0000000e+00 0.0000000e+00 
0.0000000e+00 0.0000000e+00 0.0000000e+00 
0.0000000e+00 0.0000000e+00 0.0000000e+00 
0.0000000e+00 0.0000000e+00 0.0000000e+00 
0.0000000e+00 0.0000000e+00 0.0000000e+00 
0.0000000e+00 0.0000000e+00 0.0000000e+00 
0.0000000e+00 0.0000000e+00 0.0000000e+00 
0.0000000e+00 0.0000000e+00 0.0000000e+00 
0.0000000e+00 0.0000000e+00 0.0000000e+00 
2.0707031e-08 -6.0788174e-08 4.6486244e-07 
3.1458319e-07 -1.6194346e-07 8.1382943e-08 
4.6291322e-07 4.4761151e-08 -4.2556738e-07 
5.0346347e-07 -6.2971559e-08 -6.4018730e-07 
4.2831172e-07 -4.6443543e-07 -7.2873326e-07 
4.3943425e-07 -7.9268824e-07 -7.6750632e-07 
4.7702429e-07 -6.2260528e-07 -8.8925992e-07 
5.8568173e-07 -4.9409033e-07 -8.1944705e-07 
4.4648050e-07 -1.0041890e-07 -7.5507938e-07 
2.3345687e-07 -1.4152891e-07 -6.1904842e-07 
1.3180161e-07 2.0982906e-08 -6.0469426e-07 
-1.0628327e-07 -2.0142593e-07 -8.9333480e-07 
-6.9712407e-08 -5.8074653e-07 -7.8573879e-07 
-1.0301987e-07 -5.4167998e-07 -6.0195998e-07 
-9.9724701e-08 -3.0580478e-07 -3.0448493e-07 
-1.3211640e-07 -3.9403264e-07 -3.2020196e-07 
-1.3910351e-07 -7.1186889e-07 -5.3612348e-07 
3.9042501e-07 -7.9109967e-08 -1.1756298e-06 
1.2036908e-06 4.5768007e-07 -2.6302143e-06 
5.0704625e-06 -1.6276987e-06 -5.8380310e-06 
9.3663530e-06 -4.3220393e-06 -8.4357953e-06 
1.9564843e-05 -7.5839612e-06 -1.1852704e-05 
3.2891217e-05 -1.0809297e-05 -1.1832287e-05 
4.3661184e-05 -1.5391142e-05 -8.3548430e-06 
4.6630874e-05 -1.4829945e-05 -2.8425150e-06 
4.6935096e-05 -1.5258061e-05 5.9695262e-06 
4.1033010e-05 -1.4326137e-05 1.0914477e-05 
3.0092438e-05 -8.9759951e-06 1.4787181e-05 
1.8747727e-05 -6.4129949e-06 1.4443077e-05 
9.7060838e-06 -3.3904432e-06 1.1149749e-05 
4.5983102e-06 -1.1791515e-06 6.5788986e-06 
1.0995773e-06 -1.1231016e-06 2.7119056e-06 
8.9671872e-08 -4.5261865e-07 1.9994798e-07 
-2.3887227e-07 -2.8072590e-08 -9.3091393e-07 
-3.2023902e-07 2.0193097e-07 -1.2685368e-06 
-4.3719660e-07 -4.3626841e-08 -1.5042548e-06 
-2.5932323e-07 -5.5710893e-07 -2.0145505e-06 
7.8668535e-07 -8.3222187e-07 -2.7325436e-06 
2.6965586e-06 -6.7674165e-07 -4.0701930e-06 
5.6611066e-06 -1.5074341e-06 -6.7243841e-06 
1.2175027e-05 -4.0217187e-06 -1.0307258e-05 
2.2674789e-05 -7.8443409e-06 -1.2760067e-05 
3.3183620e-05 -1.1898536e-05 -1.2265308e-05 
4.5468776e-05 -1.6885755e-05 -6.5153499e-06 
4.9034410e-05 -1.7337958e-05 1.0920054e-06 
4.6981007e-05 -1.3977854e-05 6.5126101e-06 
4.5874433e-05 -1.3884845e-05 1.4592664e-05 
2.9070274e-05 -8.5952461e-06 1.7653903e-05 
1.7622297e-05 -4.9691007e-06 1.7399645e-05 
0.0000000e+00 3.6097165e-06 0.0000000e+00 
0.0000000e+00 3.0881547e-06 0.0000000e+00 
0.0000000e+00 2.4329383e-06 0.0000000e+00 
0.0000000e+00 2.8432260e-06 0.0000000e+00 
0.0000000e+00 4.0414870e-06 0.0000000e+00 
0.0000000e+00 5.4163829e-06 0.0000000e+00 
0.0000000e+00 5.3883737e-06 0.0000000e+00 
0.0000000e+00 4.9352784e-06 0.0000000e+00 
0.0000000e+00 4.4688945e-06 0.0000000e+00 
0.0000000e+00 3.4920870e-06 0.0000000e+00 
0.0000000e+00 2.8476609e-06 0.0000000e+00 
0.0000000e+00 2.7248288e-06 0.0000000e+00 
0.0000000e+00 2.2351198e-06 0.0000000e+00 
0.0000000e+00 1.9424915e-06 0.0000000e+00 
0.0000000e+00 4.4742810e-06 0.0000000e+00 
0.0000000e+00 6.6009375e-06 0.0000000e+00 
0.0000000e+00 6.0306702e-06 0.0000000e+00 
0.0000000e+00 3.4056902e-06 0.0000000e+00 
0.0000000e+00 1.9922736e-06 0.0000000e+00 
0.0000000e+00 -3.6095138e-08 0.0000000e+00 
0.0000000e+00 -1.5274816e-05 0.0000000e+00 
0.0000000e+00 -7.0767303e-05 0.0000000e+00 
0.0000000e+00 -1.9161405e-04 0.0000000e+00 
0.0000000e+00 -3.9330832e-04 0.0000000e+00 
0.0000000e+00 -5.0652842e-04 0.0000000e+00 
0.0000000e+00 -5.1663595e-04 0.0000000e+00 
0.0000000e+00 -4.7779435e-04 0.0000000e+00 
0.0000000e+00 -3.3543885e-04 0.0000000e+00 
0.0000000e+00 -1.5645738e-04 0.0000000e+00 
0.0000000e+00 -2.0029272e-05 0.0000000e+00 
0.0000000e+00 1.6705579e-05 0.0000000e+00 
0.0000000e+00 1.9169544e-05 0.0000000e+00 
0.0000000e+00 1.3549620e-05 0.0000000e+00 
0.0000000e+00 6.2082036e-06 0.0000000e+00 
0.0000000e+00 3.9147167e-06 0.0000000e+00 
0.0000000e+00 3.0834058e-06 0.0000000e+00 
0.0000000e+00 2.3955656e-06 0.0000000e+00 
0.0000000e+00 1.2131426e-06 0.0000000e+00 
0.0000000e+00 2.4682656e-06 0.0000000e+00 
0.0000000e+00 -1.6023772e-07 0.0000000e+00 
0.0000000e+00 -1.8115055e-05 0.0000000e+00 
0.0000000e+00 -8.8060682e-05 0.0000000e+00 
0.0000000e+00 -2.2851123e-04 0.0000000e+00 
0.0000000e+00 -4.0616348e-04 0.0000000e+00 
0.0000000e+00 -5.2127824e-04 0.0000000e+00 
0.0000000e+00 -5.2292208e-04 0.0000000e+00 
0.0000000e+00 -4.6947337e-04 0.0000000e+00 
0.0000000e+00 -3.0801777e-04 0.0000000e+00 
0.0000000e+00 -1.2735708e-04 0.0000000e+00 
-1.6425163e-07 5.3733748e-07 5.9271218e-07 
-4.4073165e-08 5.5570410e-07 3.3713161e-07 
-3.7761890e-07 6.9553738e-07 4.5790571e-07 
-3.9849834e-07 2.0934770e-06 8.1921320e-07 
1.5330699e-05 -3.0872416e-06 1.6761434e-05 
2.0686806e-05 -3.2028156e-06 2.8141767e-05 
2.0132435e-05 -1.4798569e-05 4.2141084e-05 
7.1386762e-06 -2.1808624e-05 6.4068314e-05 
1.7151221e-07 9.3298672e-07 6.8350369e-07 
1.2704836e-05 1.2006149e-07 1.2949897e-05 
5.9577764e-07 3.0865240e-06 1.1765939e-06 
3.1364479e-07 2.0227815e-06 1.1563393e-06 
0.0000000e+00 5.5888977e-06 0.0000000e+00 
0.0000000e+00 4.5637576e-06 0.0000000e+00 
0.0000000e+00 3.9020242e-06 0.0000000e+00 
0.0000000e+00 4.1846529e-06 0.0000000e+00 
0.0000000e+00 6.1301926e-06 0.0000000e+00 
0.0000000e+00 8.4003714e-06 0.0000000e+00 
0.0000000e+00 8.4967487e-06 0.0000000e+00 
0.0000000e+00 7.8487919e-06 0.0000000e+00 
0.0000000e+00 7.3030160e-06 0.0000000e+00 
0.0000000e+00 5.6884442e-06 0.0000000e+00 
0.0000000e+00 4.1885964e-06 0.0000000e+00 
0.0000000e+00 4.7353569e-06 0.0000000e+00 
0.0000000e+00 3.0703684e-06 0.0000000e+00 