# vtk DataFile Version 4.0
vtk output
ASCII
DATASET UNSTRUCTURED_GRID
POINTS 1919 float
0.0000000e+00 0.0000000e+00 0.0000000e+00 
0.0000000e+00 0.0000000e+00 5.0000000e+01 
5.0000000e+00 0.0000000e+00 0.0000000e+00 
5.0000000e+00 0.0000000e+00 5.0000000e+01 
5.0000000e+00 1.0000000e+00 0.0000000e+00 
5.0000000e+00 1.0000000e+00 5.0000000e+01 
0.0000000e+00 1.0000000e+00 0.0000000e+00 
0.0000000e+00 1.0000000e+00 5.0000000e+01 
5.0000000e+00 2.0000000e+00 0.0000000e+00 
5.0000000e+00 2.0000000e+00 5.0000000e+01 
3.0000000e+00 2.0000000e+00 0.0000000e+00 
3.0000000e+00 2.0000000e+00 5.0000000e+01 
0.0000000e+00 2.0000000e+00 0.0000000e+00 
0.0000000e+00 2.0000000e+00 5.0000000e+01 
1.5000000e+00 3.0000000e+00 0.0000000e+00 
1.5000000e+00 3.0000000e+00 5.0000000e+01 
7.5000000e-01 3.0000000e+00 0.0000000e+00 
7.5000000e-01 3.0000000e+00 5.0000000e+01 
0.0000000e+00 3.0000000e+00 0.0000000e+00 
0.0000000e+00 3.0000000e+00 5.0000000e+01 
7.5000000e-01 3.0000000e+00 5.0000000e-01 
7.5000000e-01 3.0000000e+00 1.0000000e+00 
7.5000000e-01 3.0000000e+00 1.5000000e+00 
7.5000000e-01 3.0000000e+00 2.0000000e+00 
7.5000000e-01 3.0000000e+00 2.5000000e+00 
7.5000000e-01 3.0000000e+00 3.0000000e+00 
7.5000000e-01 3.0000000e+00 3.5000000e+00 
7.5000000e-01 3.0000000e+00 4.0000000e+00 
7.5000000e-01 3.0000000e+00 4.5000000e+00 
7.5000000e-01 3.0000000e+00 5.0000000e+00 
7.5000000e-01 3.0000000e+00 5.5000000e+00 
7.5000000e-01 3.0000000e+00 6.0000000e+00 
7.5000000e-01 3.0000000e+00 6.5000000e+00 
7.5000000e-01 3.0000000e+00 7.0000000e+00 
7.5000000e-01 3.0000000e+00 7.5000000e+00 
7.5000000e-01 3.0000000e+00 8.0000000e+00 
7.5000000e-01 3.0000000e+00 8.5000000e+00 
7.5000000e-01 3.0000000e+00 9.0000000e+00 
7.5000000e-01 3.0000000e+00 9.5000000e+00 
7.5000000e-01 3.0000000e+00 1.0000000e+01 
7.5000000e-01 3.0000000e+00 1.0500000e+01 
7.5000000e-01 3.0000000e+00 1.1000000e+01 
7.5000000e-01 3.0000000e+00 1.1500000e+01 
7.5000000e-01 3.0000000e+00 1.2000000e+01 
7.5000000e-01 3.0000000e+00 1.2500000e+01 
7.5000000e-01 3.0000000e+00 1.3000000e+01 
7.5000000e-01 3.0000000e+00 1.3500000e+01 
7.5000000e-01 3.0000000e+00 1.4000000e+01 
7.5000000e-01 3.0000000e+00 1.4500000e+01 
7.5000000e-01 3.0000000e+00 1.5000000e+01 
7.5000000e-01 3.0000000e+00 1.5500000e+01 
7.5000000e-01 3.0000000e+00 1.6000000e+01 
7.5000000e-01 3.0000000e+00 1.6500000e+01 
7.5000000e-01 3.0000000e+00 1.7000000e+01 
7.5000000e-01 3.0000000e+00 1.7500000e+01 
7.5000000e-01 3.0000000e+00 1.8000000e+01 
7.5000000e-01 3.0000000e+00 1.8500000e+01 
7.5000000e-01 3.0000000e+00 1.9000000e+01 
7.5000000e-01 3.0000000e+00 1.9500000e+01 
7.5000000e-01 3.0000000e+00 2.0000000e+01 
7.5000000e-01 3.0000000e+00 2.0500000e+01 
7.5000000e-01 3.0000000e+00 2.1000000e+01 
7.5000000e-01 3.0000000e+00 2.1500000e+01 
7.5000000e-01 3.0000000e+00 2.2000000e+01 
7.5000000e-01 3.0000000e+00 2.2500000e+01 
7.5000000e-01 3.0000000e+00 2.3000000e+01 
7.5000000e-01 3.0000000e+00 2.3500000e+01 
7.5000000e-01 3.0000000e+00 2.4000000e+01 
7.5000000e-01 3.0000000e+00 2.4500000e+01 
7.5000000e-01 3.0000000e+00 2.5000000e+01 
7.5000000e-01 3.0000000e+00 2.5500000e+01 
7.5000000e-01 3.0000000e+00 2.6000000e+01 
7.5000000e-01 3.0000000e+00 2.6500000e+01 
7.5000000e-01 3.0000000e+00 2.7000000e+01 
7.5000000e-01 3.0000000e+00 2.7500000e+01 
7.5000000e-01 3.0000000e+00 2.8000000e+01 
7.5000000e-01 3.0000000e+00 2.8500000e+01 
7.5000000e-01 3.0000000e+00 2.9000000e+01 
7.5000000e-01 3.0000000e+00 2.9500000e+01 
7.5000000e-01 3.0000000e+00 3.0000000e+01 
7.5000000e-01 3.0000000e+00 3.0500000e+01 
7.5000000e-01 3.0000000e+00 3.1000000e+01 
7.5000000e-01 3.0000000e+00 3.1500000e+01 
7.5000000e-01 3.0000000e+00 3.2000000e+01 
7.5000000e-01 3.0000000e+00 3.2500000e+01 
7.5000000e-01 3.0000000e+00 3.3000000e+01 
7.5000000e-01 3.0000000e+00 3.3500000e+01 
7.5000000e-01 3.0000000e+00 3.4000000e+01 
7.5000000e-01 3.0000000e+00 3.4500000e+01 
7.5000000e-01 3.0000000e+00 3.5000000e+01 
7.5000000e-01 3.0000000e+00 3.5500000e+01 
7.5000000e-01 3.0000000e+00 3.6000000e+01 
7.5000000e-01 3.0000000e+00 3.6500000e+01 
7.5000000e-01 3.0000000e+00 3.7000000e+01 
7.5000000e-01 3.0000000e+00 3.7500000e+01 
7.5000000e-01 3.0000000e+00 3.8000000e+01 
7.5000000e-01 3.0000000e+00 3.8500000e+01 
7.5000000e-01 3.0000000e+00 3.9000000e+01 
7.5000000e-01 3.0000000e+00 3.9500000e+01 
7.5000000e-01 3.0000000e+00 4.0000000e+01 
7.5000000e-01 3.0000000e+00 4.0500000e+01 
7.5000000e-01 3.0000000e+00 4.1000000e+01 
7.5000000e-01 3.0000000e+00 4.1500000e+01 
7.5000000e-01 3.0000000e+00 4.2000000e+01 
7.5000000e-01 3.0000000e+00 4.2500000e+01 
7.5000000e-01 3.0000000e+00 4.3000000e+01 
7.5000000e-01 3.0000000e+00 4.3500000e+01 
7.5000000e-01 3.0000000e+00 4.4000000e+01 
7.5000000e-01 3.0000000e+00 4.4500000e+01 
7.5000000e-01 3.0000000e+00 4.5000000e+01 
7.5000000e-01 3.0000000e+00 4.5500000e+01 
7.5000000e-01 3.0000000e+00 4.6000000e+01 
7.5000000e-01 3.0000000e+00 4.6500000e+01 
7.5000000e-01 3.0000000e+00 4.7000000e+01 
7.5000000e-01 3.0000000e+00 4.7500000e+01 
7.5000000e-01 3.0000000e+00 4.8000000e+01 
7.5000000e-01 3.0000000e+00 4.8500000e+01 
7.5000000e-01 3.0000000e+00 4.9000000e+01 
7.5000000e-01 3.0000000e+00 4.9500000e+01 
7.5000000e-01 3.0250001e+00 0.0000000e+00 
7.5000000e-01 3.0250001e+00 5.0000000e-01 
7.5000000e-01 3.0250001e+00 1.0000000e+00 
7.5000000e-01 3.0250001e+00 1.5000000e+00 
7.5000000e-01 3.0250001e+00 2.0000000e+00 
7.5000000e-01 3.0250001e+00 2.5000000e+00 
7.5000000e-01 3.0250001e+00 3.0000000e+00 
7.5000000e-01 3.0250001e+00 3.5000000e+00 
7.5000000e-01 3.0250001e+00 4.0000000e+00 
7.5000000e-01 3.0250001e+00 4.5000000e+00 
7.5000000e-01 3.0250001e+00 5.0000000e+00 
7.5000000e-01 3.0250001e+00 5.5000000e+00 
7.5000000e-01 3.0250001e+00 6.0000000e+00 
7.5000000e-01 3.0250001e+00 6.5000000e+00 
7.5000000e-01 3.0250001e+00 7.0000000e+00 
7.5000000e-01 3.0250001e+00 7.5000000e+00 
7.5000000e-01 3.0250001e+00 8.0000000e+00 
7.5000000e-01 3.0250001e+00 8.5000000e+00 
7.5000000e-01 3.0250001e+00 9.0000000e+00 
7.5000000e-01 3.0250001e+00 9.5000000e+00 
7.5000000e-01 3.0250001e+00 1.0000000e+01 
7.5000000e-01 3.0250001e+00 1.0500000e+01 
7.5000000e-01 3.0250001e+00 1.1000000e+01 
7.5000000e-01 3.0250001e+00 1.1500000e+01 
7.5000000e-01 3.0250001e+00 1.2000000e+01 
7.5000000e-01 3.0250001e+00 1.2500000e+01 
7.5000000e-01 3.0250001e+00 1.3000000e+01 
7.5000000e-01 3.0250001e+00 1.3500000e+01 
7.5000000e-01 3.0250001e+00 1.4000000e+01 
7.5000000e-01 3.0250001e+00 1.4500000e+01 
7.5000000e-01 3.0250001e+00 1.5000000e+01 
7.5000000e-01 3.0250001e+00 1.5500000e+01 
7.5000000e-01 3.0250001e+00 1.6000000e+01 
7.5000000e-01 3.0250001e+00 1.6500000e+01 
7.5000000e-01 3.0250001e+00 1.7000000e+01 
7.5000000e-01 3.0250001e+00 1.7500000e+01 
7.5000000e-01 3.0250001e+00 1.8000000e+01 
7.5000000e-01 3.0250001e+00 1.8500000e+01 
7.5000000e-01 3.0250001e+00 1.9000000e+01 
7.5000000e-01 3.0250001e+00 1.9500000e+01 
7.5000000e-01 3.0250001e+00 2.0000000e+01 
7.5000000e-01 3.0250001e+00 2.0500000e+01 
7.5000000e-01 3.0250001e+00 2.1000000e+01 
7.5000000e-01 3.0250001e+00 2.1500000e+01 
7.5000000e-01 3.0250001e+00 2.2000000e+01 
7.5000000e-01 3.0250001e+00 2.2500000e+01 
7.5000000e-01 3.0250001e+00 2.3000000e+01 
7.5000000e-01 3.0250001e+00 2.3500000e+01 
7.5000000e-01 3.0250001e+00 2.4000000e+01 
7.5000000e-01 3.0250001e+00 2.4500000e+01 
7.5000000e-01 3.0250001e+00 2.5000000e+01 
7.5000000e-01 3.0250001e+00 2.5500000e+01 
7.5000000e-01 3.0250001e+00 2.6000000e+01 
7.5000000e-01 3.0250001e+00 2.6500000e+01 
7.5000000e-01 3.0250001e+00 2.7000000e+01 
7.5000000e-01 3.0250001e+00 2.7500000e+01 
7.5000000e-01 3.0250001e+00 2.8000000e+01 
7.5000000e-01 3.0250001e+00 2.8500000e+01 
7.5000000e-01 3.0250001e+00 2.9000000e+01 
7.5000000e-01 3.0250001e+00 2.9500000e+01 
7.5000000e-01 3.0250001e+00 3.0000000e+01 
7.5000000e-01 3.0250001e+00 3.0500000e+01 
7.5000000e-01 3.0250001e+00 3.1000000e+01 
7.5000000e-01 3.0250001e+00 3.1500000e+01 
7.5000000e-01 3.0250001e+00 3.2000000e+01 
7.5000000e-01 3.0250001e+00 3.2500000e+01 
7.5000000e-01 3.0250001e+00 3.3000000e+01 
7.5000000e-01 3.0250001e+00 3.3500000e+01 
7.5000000e-01 3.0250001e+00 3.4000000e+01 
7.5000000e-01 3.0250001e+00 3.4500000e+01 
7.5000000e-01 3.0250001e+00 3.5000000e+01 
7.5000000e-01 3.0250001e+00 3.5500000e+01 
7.5000000e-01 3.0250001e+00 3.6000000e+01 
7.5000000e-01 3.0250001e+00 3.6500000e+01 
7.5000000e-01 3.0250001e+00 3.7000000e+01 
7.5000000e-01 3.0250001e+00 3.7500000e+01 
7.5000000e-01 3.0250001e+00 3.8000000e+01 
7.5000000e-01 3.0250001e+00 3.8500000e+01 
7.5000000e-01 3.0250001e+00 3.9000000e+01 
7.5000000e-01 3.0250001e+00 3.9500000e+01 
7.5000000e-01 3.0250001e+00 4.0000000e+01 
7.5000000e-01 3.0250001e+00 4.0500000e+01 
7.5000000e-01 3.0250001e+00 4.1000000e+01 
7.5000000e-01 3.0250001e+00 4.1500000e+01 
7.5000000e-01 3.0250001e+00 4.2000000e+01 
7.5000000e-01 3.0250001e+00 4.2500000e+01 
7.5000000e-01 3.0250001e+00 4.3000000e+01 
7.5000000e-01 3.0250001e+00 4.3500000e+01 
7.5000000e-01 3.0250001e+00 4.4000000e+01 
7.5000000e-01 3.0250001e+00 4.4500000e+01 
7.5000000e-01 3.0250001e+00 4.5000000e+01 
7.5000000e-01 3.0250001e+00 4.5500000e+01 
7.5000000e-01 3.0250001e+00 4.6000000e+01 
7.5000000e-01 3.0250001e+00 4.6500000e+01 
7.5000000e-01 3.0250001e+00 4.7000000e+01 
7.5000000e-01 3.0250001e+00 4.7500000e+01 
7.5000000e-01 3.0250001e+00 4.8000000e+01 
7.5000000e-01 3.0250001e+00 4.8500000e+01 
7.5000000e-01 3.0250001e+00 4.9000000e+01 
7.5000000e-01 3.0250001e+00 4.9500000e+01 
7.5000000e-01 3.0250001e+00 5.0000000e+01 
1.5000000e+00 3.0000000e+00 2.5000000e+01 
3.0000000e+00 2.0000000e+00 2.5000000e+01 
4.0000000e+00 2.0000000e+00 2.5000000e+01 
5.0000000e+00 2.0000000e+00 2.5000000e+01 
0.0000000e+00 3.0000000e+00 2.5000000e+01 
0.0000000e+00 0.0000000e+00 1.0000000e+00 
0.0000000e+00 0.0000000e+00 2.0000000e+00 
0.0000000e+00 0.0000000e+00 3.0000000e+00 
0.0000000e+00 0.0000000e+00 4.0000000e+00 
0.0000000e+00 0.0000000e+00 5.0000000e+00 
[...]
POINT_DATA 1919
FIELD FieldData 3
DISPLACEMENT 3 1919  float
0.0000000e+00 0.0000000e+00 0.0000000e+00 
0.0000000e+00 0.0000000e+00 0.0000000e+00 
0.0000000e+00 0.0000000e+00 0.0000000e+00 
0.0000000e+00 0.0000000e+00 0.0000000e+00 
-1.5408491e-06 -8.1906165e-07 3.3811654e-07 
1.1395714e-06 -4.7581477e-07 2.0173775e-06 
0.0000000e+00 1.3348267e-07 0.0000000e+00 
0.0000000e+00 -1.2820431e-06 0.0000000e+00 
-7.5380024e-07 -2.5768868e-06 5.7593775e-07 
1.1976334e-06 1.9831434e-07 1.6835990e-06 
-4.6141417e-06 1.6690221e-06 5.1126967e-06 
6.3070024e-07 -2.3101013e-06 3.7120076e-06 
0.0000000e+00 -8.7722878e-09 0.0000000e+00 
0.0000000e+00 -2.2273788e-07 0.0000000e+00 
-9.6482108e-06 2.4480296e-06 1.2985698e-05 
-1.4364198e-06 -7.3782019e-07 3.7321356e-06 
-1.2250081e-05 -9.7378515e-06 4.1947301e-06 
-9.8332666e-09 7.2778894e-06 -1.4315993e-06 
0.0000000e+00 -5.8968285e-06 0.0000000e+00 
0.0000000e+00 5.1558177e-06 0.0000000e+00 
-9.9159997e-06 -1.0446784e-05 3.5680118e-06 
-1.1603458e-05 -1.2823913e-05 2.4064684e-06 
-1.1409393e-05 -1.6886959e-05 2.2806005e-06 
-1.6249009e-05 -2.2164817e-05 2.0559883e-06 
-1.6230257e-05 -2.7534430e-05 4.0662753e-06 
-1.4259315e-05 -3.1870968e-05 2.1550943e-06 
-1.3004001e-05 -3.5058845e-05 -1.7877365e-07 
-1.1318606e-05 -3.6989317e-05 -1.4898501e-06 
-8.9786236e-06 -3.8125232e-05 2.0348302e-06 
-1.1171470e-05 -3.7918802e-05 9.7393422e-06 
-4.9881119e-06 -3.6635014e-05 1.1582571e-05 
-8.0846185e-06 -3.3986482e-05 8.2162105e-06 
-7.1080622e-06 -3.0683546e-05 4.8914694e-06 
-9.5598798e-06 -2.7108030e-05 6.7906926e-06 
-9.9147683e-06 -2.3678862e-05 1.1986129e-05 
-1.5370144e-05 -2.0037312e-05 1.9576441e-05 
-1.9628513e-05 -1.6529313e-05 1.8685576e-05 
-2.2088660e-05 -1.2402294e-05 1.0953044e-05 
-2.0433568e-05 -7.1738218e-06 3.5108264e-06 
-2.0935388e-05 2.0173752e-07 -2.6118646e-06 
-1.7039833e-05 1.0923097e-05 -3.4713678e-06 
-2.5490459e-05 2.5907944e-05 -3.1245759e-06 
-3.0001062e-05 4.5303477e-05 -2.4413530e-06 
-2.9047082e-05 6.5156863e-05 1.0423234e-06 
-2.9289888e-05 7.5758217e-05 3.3723202e-06 
-2.3746457e-05 5.5728695e-05 1.3615486e-05 
-2.4331341e-05 -2.8120985e-05 6.1803883e-05 
-3.2836735e-05 -2.2535787e-04 8.2527753e-05 
-5.4417327e-05 -5.9810688e-04 1.7252400e-04 
-6.8611313e-05 -1.2060510e-03 1.3478508e-04 
-1.1560443e-04 -2.0922525e-03 2.4463667e-04 
-1.5088407e-04 -3.2038765e-03 9.5969190e-05 
-2.7249460e-04 -4.3556425e-03 1.5828287e-04 
-6.2957831e-04 -5.0470759e-03 9.3433460e-05 
-2.7301189e-04 -4.8426283e-03 3.6962691e-05 
-2.0705900e-04 -4.4523831e-03 3.9096121e-05 
-2.0292671e-04 -4.3341368e-03 -1.8699960e-05 
-2.1891137e-04 -4.4177417e-03 -7.0967908e-05 
-2.2554665e-04 -4.2359144e-03 -1.4457721e-04 
-2.0362870e-04 -3.2739409e-03 -1.1616864e-04 
-1.3152877e-04 -2.0886934e-03 -2.2856466e-04 
-1.0145491e-04 -1.0724324e-03 -1.2137867e-04 
-4.6813948e-05 -3.7445876e-04 -1.4562912e-04 
-3.0431036e-05 2.3116645e-05 -9.2142778e-05 
-9.2798819e-06 1.9746016e-04 -6.4322870e-05 
-5.4717157e-06 2.3250106e-04 -5.3248772e-05 
-2.0225652e-06 1.9940038e-04 -3.9416685e-05 
3.3348292e-07 1.4003090e-04 -2.8500746e-05 
8.0063683e-06 8.1421967e-05 -1.5596164e-05 
9.8673199e-06 3.4551336e-05 -1.2958321e-05 
2.3570944e-06 1.8741198e-06 -4.7033122e-06 
4.8999254e-06 -1.7938415e-05 -7.6671831e-06 
7.2347098e-06 -2.8364662e-05 -4.9847167e-06 
5.4911884e-06 -3.2170683e-05 -3.6097229e-06 
2.9494583e-06 -3.2101456e-05 3.2722137e-06 
-5.2852029e-06 -2.9284995e-05 9.1073762e-06 
-1.1360629e-05 -2.4793642e-05 8.9372425e-06 
-1.5955655e-05 -1.8461666e-05 2.2201200e-06 
-1.4580963e-05 -1.0194287e-05 -6.5914019e-06 
-1.8626695e-05 7.7607444e-07 -8.5365464e-06 
-1.5702733e-05 1.4963169e-05 -4.6073960e-06 
-1.8301846e-05 3.2621720e-05 3.0451465e-06 
-1.8514715e-05 5.2118354e-05 7.9686233e-06 
-1.7149301e-05 6.8584341e-05 1.8658524e-05 
-2.0573740e-05 7.1642004e-05 3.1469026e-05 
-2.0604464e-05 3.9523558e-05 5.0957377e-05 
-3.2956454e-05 -6.1906474e-05 9.5957424e-05 
-4.0253992e-05 -2.8336904e-04 1.1469164e-04 
-7.1393639e-05 -6.8692456e-04 2.0377951e-04 
-8.4377214e-05 -1.3270051e-03 1.6409739e-04 
-1.3952544e-04 -2.2384585e-03 2.6757538e-04 
-1.7053091e-04 -3.3478194e-03 1.1912921e-04 
-2.4555562e-04 -4.4385549e-03 1.9915865e-04 
-3.2619631e-04 -4.9530026e-03 4.7971349e-05 
-3.4339243e-04 -4.7575268e-03 -1.2930621e-05 
-5.3335243e-04 -4.4787391e-03 3.9951229e-07 
-2.2574910e-04 -4.4073062e-03 1.5427295e-05 
-1.8938971e-04 -4.4666384e-03 -6.1351740e-05 
-1.8784413e-04 -4.1106236e-03 -1.5620363e-04 
-1.6463401e-04 -3.0326804e-03 -1.1317019e-04 
-1.0842603e-04 -1.8489480e-03 -2.2954358e-04 
-7.9867583e-05 -8.8634918e-04 -1.3113000e-04 
-3.6443311e-05 -2.5120564e-04 -1.6227012e-04 
-2.2996894e-05 9.3232884e-05 -1.0142200e-04 
-1.1088781e-06 2.2933967e-04 -8.6192493e-05 
5.6629101e-06 2.4018055e-04 -5.9767986e-05 
8.0220443e-06 1.9278692e-04 -3.4943321e-05 
1.0475650e-05 1.2834193e-04 -2.7117132e-05 
9.6500471e-06 6.9776303e-05 -1.3447689e-05 
7.8819030e-06 2.5695825e-05 -1.2415159e-05 
6.9965058e-06 -2.9454068e-06 -2.8947106e-06 
8.2175475e-06 -1.8580064e-05 -1.3473363e-06 
5.5382857e-06 -2.4767700e-05 1.7185714e-06 
3.1189206e-06 -2.4284895e-05 3.9218244e-06 
4.9805726e-06 -1.9490264e-05 1.0751579e-05 
3.0064512e-06 -1.2503540e-05 1.4797020e-05 
-1.7312353e-06 -5.0180793e-06 1.2594770e-05 
-1.9518609e-06 1.3404380e-06 7.8387520e-06 
-4.7822646e-06 5.6863678e-06 1.3234545e-06 
0.0000000e+00 -9.7289367e-06 0.0000000e+00 
0.0000000e+00 -1.0466182e-05 0.0000000e+00 
0.0000000e+00 -1.2862227e-05 0.0000000e+00 
0.0000000e+00 -1.6943259e-05 0.0000000e+00 
0.0000000e+00 -2.2188449e-05 0.0000000e+00 
0.0000000e+00 -2.7507002e-05 0.0000000e+00 
0.0000000e+00 -3.1890300e-05 0.0000000e+00 
0.0000000e+00 -3.5064932e-05 0.0000000e+00 
0.0000000e+00 -3.7072237e-05 0.0000000e+00 
0.0000000e+00 -3.8124159e-05 0.0000000e+00 
0.0000000e+00 -3.7974347e-05 0.0000000e+00 
0.0000000e+00 -3.6615711e-05 0.0000000e+00 
0.0000000e+00 -3.4028079e-05 0.0000000e+00 
0.0000000e+00 -3.0718053e-05 0.0000000e+00 
0.0000000e+00 -2.7170128e-05 0.0000000e+00 
0.0000000e+00 -2.3668237e-05 0.0000000e+00 
0.0000000e+00 -2.0108842e-05 0.0000000e+00 
0.0000000e+00 -1.6536555e-05 0.0000000e+00 
0.0000000e+00 -1.2449624e-05 0.0000000e+00 
0.0000000e+00 -7.2092530e-06 0.0000000e+00 
0.0000000e+00 1.8583557e-07 0.0000000e+00 
0.0000000e+00 1.0937735e-05 0.0000000e+00 
0.0000000e+00 2.6089050e-05 0.0000000e+00 
0.0000000e+00 4.5586257e-05 0.0000000e+00 
0.0000000e+00 6.5751396e-05 0.0000000e+00 
0.0000000e+00 7.6404816e-05 0.0000000e+00 
0.0000000e+00 5.6643050e-05 0.0000000e+00 
0.0000000e+00 -2.7395021e-05 0.0000000e+00 
0.0000000e+00 -2.2531414e-04 0.0000000e+00 
0.0000000e+00 -5.9892371e-04 0.0000000e+00 
0.0000000e+00 -1.2107643e-03 0.0000000e+00 
0.0000000e+00 -2.0992677e-03 0.0000000e+00 
0.0000000e+00 -3.2212285e-03 0.0000000e+00 
0.0000000e+00 -4.3793791e-03 0.0000000e+00 
0.0000000e+00 -5.0670658e-03 0.0000000e+00 
0.0000000e+00 -4.8709349e-03 0.0000000e+00 
0.0000000e+00 -4.4800080e-03 0.0000000e+00 
0.0000000e+00 -4.3550814e-03 0.0000000e+00 
0.0000000e+00 -4.4461670e-03 0.0000000e+00 
0.0000000e+00 -4.2588478e-03 0.0000000e+00 
0.0000000e+00 -3.2969462e-03 0.0000000e+00 
0.0000000e+00 -2.1012321e-03 0.0000000e+00 
0.0000000e+00 -1.0803862e-03 0.0000000e+00 
0.0000000e+00 -3.7707851e-04 0.0000000e+00 
0.0000000e+00 2.3162462e-05 0.0000000e+00 
0.0000000e+00 1.9837821e-04 0.0000000e+00 
0.0000000e+00 2.3411505e-04 0.0000000e+00 
0.0000000e+00 2.0022414e-04 0.0000000e+00 
0.0000000e+00 1.4083345e-04 0.0000000e+00 
0.0000000e+00 8.1855491e-05 0.0000000e+00 
0.0000000e+00 3.4721012e-05 0.0000000e+00 
0.0000000e+00 1.9586498e-06 0.0000000e+00 
0.0000000e+00 -1.7991028e-05 0.0000000e+00 
0.0000000e+00 -2.8388640e-05 0.0000000e+00 
0.0000000e+00 -3.2268239e-05 0.0000000e+00 
0.0000000e+00 -3.2129159e-05 0.0000000e+00 
0.0000000e+00 -2.9369201e-05 0.0000000e+00 
0.0000000e+00 -2.4815099e-05 0.0000000e+00 
0.0000000e+00 -1.8511237e-05 0.0000000e+00 
0.0000000e+00 -1.0202773e-05 0.0000000e+00 
0.0000000e+00 7.6877711e-07 0.0000000e+00 
0.0000000e+00 1.5039681e-05 0.0000000e+00 
0.0000000e+00 3.2770691e-05 0.0000000e+00 
0.0000000e+00 5.2400021e-05 0.0000000e+00 
0.0000000e+00 6.9169328e-05 0.0000000e+00 
0.0000000e+00 7.2299074e-05 0.0000000e+00 
0.0000000e+00 4.0434388e-05 0.0000000e+00 
0.0000000e+00 -6.1258826e-05 0.0000000e+00 
0.0000000e+00 -2.8358804e-04 0.0000000e+00 
0.0000000e+00 -6.8791205e-04 0.0000000e+00 
0.0000000e+00 -1.3323693e-03 0.0000000e+00 
0.0000000e+00 -2.2462681e-03 0.0000000e+00 
0.0000000e+00 -3.3662755e-03 0.0000000e+00 
0.0000000e+00 -4.4594374e-03 0.0000000e+00 
0.0000000e+00 -4.9855546e-03 0.0000000e+00 
0.0000000e+00 -4.7822963e-03 0.0000000e+00 
0.0000000e+00 -4.4970843e-03 0.0000000e+00 
0.0000000e+00 -4.4324431e-03 0.0000000e+00 
0.0000000e+00 -4.4959313e-03 0.0000000e+00 
0.0000000e+00 -4.1335220e-03 0.0000000e+00 
0.0000000e+00 -3.0543730e-03 0.0000000e+00 
0.0000000e+00 -1.8601833e-03 0.0000000e+00 
0.0000000e+00 -8.9301681e-04 0.0000000e+00 
0.0000000e+00 -2.5311869e-04 0.0000000e+00 
0.0000000e+00 9.3584618e-05 0.0000000e+00 
0.0000000e+00 2.3039273e-04 0.0000000e+00 
0.0000000e+00 2.4160960e-04 0.0000000e+00 
0.0000000e+00 1.9377604e-04 0.0000000e+00 
0.0000000e+00 1.2907013e-04 0.0000000e+00 
0.0000000e+00 7.0156755e-05 0.0000000e+00 
0.0000000e+00 2.5848532e-05 0.0000000e+00 
0.0000000e+00 -2.9064061e-06 0.0000000e+00 
0.0000000e+00 -1.8632523e-05 0.0000000e+00 
0.0000000e+00 -2.4800775e-05 0.0000000e+00 
0.0000000e+00 -2.4306861e-05 0.0000000e+00 
0.0000000e+00 -1.9524270e-05 0.0000000e+00 
0.0000000e+00 -1.2519328e-05 0.0000000e+00 
0.0000000e+00 -5.0579233e-06 0.0000000e+00 
0.0000000e+00 1.3371813e-06 0.0000000e+00 
0.0000000e+00 5.6806675e-06 0.0000000e+00 
0.0000000e+00 7.2555054e-06 0.0000000e+00 
3.5070314e-06 2.3975801e-05 -1.3163927e-05 
-8.3174909e-06 -1.4682533e-07 -7.9384572e-06 
-8.0784794e-06 4.6202872e-06 -1.9042432e-06 
-5.8895571e-06 2.9055036e-06 -8.1428641e-07 
0.0000000e+00 2.4091921e-06 0.0000000e+00 
0.0000000e+00 0.0000000e+00 0.0000000e+00 
0.0000000e+00 0.0000000e+00 0.0000000e+00 
0.0000000e+00 0.0000000e+00 0.0000000e+00 
0.0000000e+00 0.0000000e+00 0.0000000e+00 
0.0000000e+00 0.0000000e+00 0.0000000e+00 
0.0000000e+00 0.0000000e+00 0.0000000e+00 
0.0000000e+00 0.0000000e+00 0.0000000e+00 
0.0000000e+00 0.0000000e+00 0.0000000e+00 
0.0000000e+00 0.0000000e+00 0.0000000e+00 
0.0000000e+00 0.0000000e+00 0.0000000e+00 
0.0000000e+00 0.0000000e+00 0.0000000e+00 
0.0000000e+00 0.0000000e+00 0.0000000e+00 
0.0000000e+00 0.0000000e+00 0.0000000e+00 
0.0000000e+00 0.0000000e+00 0.0000000e+00 
0.0000000e+00 0.0000000e+00 0.0000000e+00 
0.0000000e+00 0.0000000e+00 0.0000000e+00 
0.0000000e+00 0.0000000e+00 0.0000000e+00 
0.0000000e+00 0.0000000e+00 0.0000000e+00 
0.0000000e+00 0.0000000e+00 0.0000000e+00 
0.0000000e+00 0.0000000e+00 0.0000000e+00 
0.0000000e+00 0.0000000e+00 0.0000000e+00 
0.0000000e+00 0.0000000e+00 0.0000000e+00 
0.0000000e+00 0.0000000e+00 0.0000000e+00 
0.0000000e+00 0.0000000e+00 0.0000000e+00 
0.0000000e+00 0.0000000e+00 0.0000000e+00 
0.0000000e+00 0.0000000e+00 0.0000000e+00 
0.0000000e+00 0.0000000e+00 0.0000000e+00 
0.0000000e+00 0.0000000e+00 0.0000000e+00 
0.0000000e+00 0.0000000e+00 0.0000000e+00 
0.0000000e+00 0.0000000e+00 0.0000000e+00 
0.0000000e+00 0.0000000e+00 0.0000000e+00 
0.0000000e+00 0.0000000e+00 0.0000000e+00 
0.0000000e+00 0.0000000e+00 0.0000000e+00 
0.0000000e+00 0.0000000e+00 0.0000000e+00 
0.0000000e+00 0.0000000e+00 0.0000000e+00 
0.0000000e+00 0.0000000e+00 0.0000000e+00 
0.0000000e+00 0.0000000e+00 0.0000000e+00 
0.0000000e+00 0.0000000e+00 0.0000000e+00 
0.0000000e+00 0.0000000e+00 0.0000000e+00 
0.0000000e+00 0.0000000e+00 0.0000000e+00 
0.0000000e+00 0.0000000e+00 0.0000000e+00 
0.0000000e+00 0.0000000e+00 0.0000000e+00 
0.0000000e+00 0.0000000e+00 0.0000000e+00 
0.0000000e+00 0.0000000e+00 0.0000000e+00 
0.0000000e+00 0.0000000e+00 0.0000000e+00 
0.0000000e+00 0.0000000e+00 0.0000000e+00 
0.0000000e+00 0.0000000e+00 0.0000000e+00 
0.0000000e+00 0.0000000e+00 0.0000000e+00 
0.0000000e+00 0.0000000e+00 0.0000000e+00 
0.0000000e+00 0.0000000e+00 0.0000000e+00 
0.0000000e+00 0.0000000e+00 0.0000000e+00 
0.0000000e+00 0.0000000e+00 0.0000000e+00 
0.0000000e+00 0.0000000e+00 0.0000000e+00 
0.0000000e+00 0.0000000e+00 0.0000000e+00 
0.0000000e+00 0.0000000e+00 0.0000000e+00 
0.0000000e+00 0.0000000e+00 0.0000000e+00 
0.0000000e+00 0.0000000e+00 0.0000000e+00 
0.0000000e+00 0.0000000e+00 0.0000000e+00 
0.0000000e+00 0.0000000e+00 0.0000000e+00 
0.0000000e+00 0.0000000e+00 0.0000000e+00 
0.0000000e+00 0.0000000e+00 0.0000000e+00 
0.0000000e+00 0.0000000e+00 0.0000000e+00 
0.0000000e+00 0.0000000e+00 0.0000000e+00 
0.0000000e+00 0.0000000e+00 0.0000000e+00 
0.0000000e+00 0.0000000e+00 0.0000000e+00 
0.0000000e+00 0.0000000e+00 0.0000000e+00 
0.0000000e+00 0.0000000e+00 0.0000000e+00 
0.0000000e+00 0.0000000e+00 0.0000000e+00 
0.0000000e+00 0.0000000e+00 0.0000000e+00 
0.0000000e+00 0.0000000e+00 0.0000000e+00 
0.0000000e+00 0.0000000e+00 0.0000000e+00 
0.0000000e+00 0.0000000e+00 0.0000000e+00 
0.0000000e+00 0.0000000e+00 0.0000000e+00 
0.0000000e+00 0.0000000e+00 0.0000000e+00 
0.0000000e+00 0.0000000e+00 0.0000000e+00 
0.0000000e+00 0.0000000e+00 0.0000000e+00 
0.0000000e+00 0.0000000e+00 0.0000000e+00 
0.0000000e+00 0.0000000e+00 0.0000000e+00 
0.0000000e+00 0.0000000e+00 0.0000000e+00 
0.0000000e+00 0.0000000e+00 0.0000000e+00 
0.0000000e+00 0.0000000e+00 0.0000000e+00 
0.0000000e+00 0.0000000e+00 0.0000000e+00 
0.0000000e+00 0.0000000e+00 0.0000000e+00 
0.0000000e+00 0.0000000e+00 0.0000000e+00 
0.0000000e+00 0.0000000e+00 0.0000000e+00 
0.0000000e+00 0.0000000e+00 0.0000000e+00 
0.0000000e+00 0.0000000e+00 0.0000000e+00 
0.0000000e+00 0.0000000e+00 0.0000000e+00 
0.0000000e+00 0.0000000e+00 0.0000000e+00 
0.0000000e+00 0.0000000e+00 0.0000000e+00 
0.0000000e+00 0.0000000e+00 0.0000000e+00 
0.0000000e+00 0.0000000e+00 0.0000000e+00 
0.0000000e+00 0.0000000e+00 0.0000000e+00 
0.0000000e+00 0.0000000e+00 0.0000000e+00 
0.0000000e+00 0.0000000e+00 0.0000000e+00 
0.0000000e+00 0.0000000e+00 0.0000000e+00 
0.0000000e+00 0.0000000e+00 0.0000000e+00 
0.0000000e+00 0.0000000e+00 0.0000000e+00 
0.0000000e+00 0.0000000e+00 0.0000000e+00 
0.0000000e+00 0.0000000e+00 0.0000000e+00 
0.0000000e+00 0.0000000e+00 0.0000000e+00 
0.0000000e+00 0.0000000e+00 0.0000000e+00 
0.0000000e+00 0.0000000e+00 0.0000000e+00 
0.0000000e+00 0.0000000e+00 0.0000000e+00 
0.0000000e+00 0.0000000e+00 0.0000000e+00 
0.0000000e+00 0.0000000e+00 0.0000000e+00 
-2.3999721e-06 -5.5754180e-07 1.7458742e-06 
-3.7188420e-06 1.6373330e-07 2.8717479e-06 
-5.3436183e-06 1.3027327e-06 3.1570028e-06 
-6.2669260e-06 6.5208798e-07 2.7392953e-06 
-6.5705717e-06 -3.1815679e-07 2.4250296e-06 
-6.2115373e-06 1.1953201e-08 2.4142291e-06 
-5.8560186e-06 6.9636428e-07 2.1774442e-06 
-4.9477890e-06 8.7055179e-07 1.0707423e-06 
-3.3366518e-06 -5.4930752e-07 -8.7588808e-07 
-2.2128679e-06 -1.4721105e-06 -4.8966417e-06 
1.2570374e-06 -3.6572508e-06 -8.9504383e-06 
4.9784026e-06 -5.1230973e-06 -1.3825913e-05 
1.3616826e-05 -7.6241181e-06 -1.7918044e-05 
2.3712966e-05 -9.7507291e-06 -1.9128918e-05 
3.4396417e-05 -1.0761561e-05 -1.5749214e-05 
4.1592750e-05 -1.1562032e-05 -1.0373807e-05 
4.8434624e-05 -1.3384682e-05 -1.4116697e-06 
4.5806588e-05 -1.2964294e-05 9.6806134e-06 
3.8944941e-05 -1.3728986e-05 1.7251574e-05 
2.8322338e-05 -1.2968055e-05 1.8501325e-05 
1.9476936e-05 -1.0342298e-05 1.6273594e-05 
9.5854139e-06 -3.8016260e-06 1.0768164e-05 
1.6469027e-06 8.5845664e-07 4.5149732e-06 
-3.0199444e-06 3.7686925e-06 7.0231448e-07 
-4.9017585e-06 3.2737071e-06 -1.5235180e-06 
-5.6843855e-06 1.8061658e-06 -2.1393832e-06 
-5.1957045e-06 1.7170638e-06 -1.9071977e-06 
-4.4739736e-06 9.2565818e-07 -1.8192472e-06 
-3.7129262e-06 1.5947138e-07 -2.7608526e-06 
-2.1096553e-06 -8.9823556e-07 -4.4240983e-06 
8.8898707e-07 -2.3215134e-06 -7.2717303e-06 
5.2587820e-06 -3.3506944e-06 -1.0935304e-05 
1.2922988e-05 -5.8809951e-06 -1.3000456e-05 
2.3064542e-05 -8.6237442e-06 -1.2588786e-05 
3.4906905e-05 -1.0185919e-05 -1.0528497e-05 
4.3670047e-05 -1.4505275e-05 -3.1453062e-06 
4.7717291e-05 -1.4456719e-05 5.2988908e-06 
4.4328550e-05 -1.4314421e-05 1.4094147e-05 
3.7806360e-05 -1.5033773e-05 1.6762478e-05 
2.8071257e-05 -1.1839126e-05 1.7406210e-05 
1.9283143e-05 -8.8848919e-06 1.3907661e-05 
1.0005456e-05 -4.1851131e-06 8.5540178e-06 
4.2713555e-06 -3.0917946e-08 3.1618179e-06 
4.1051825e-07 2.7704587e-06 -9.6915596e-07 
-1.3438325e-06 2.1726632e-06 -2.1091166e-06 
-1.6405304e-06 9.9572617e-07 -1.7585464e-06 
-1.3831225e-06 -2.3710389e-07 -1.2573364e-06 
-3.1092964e-07 -8.8641156e-07 6.8906849e-07 
5.9493658e-07 -8.2442705e-07 2.0825958e-06 
0.0000000e+00 1.2264361e-05 0.0000000e+00 
0.0000000e+00 1.8378403e-05 0.0000000e+00 
0.0000000e+00 2.2530308e-05 0.0000000e+00 
0.0000000e+00 2.6402500e-05 0.0000000e+00 
0.0000000e+00 2.4411465e-05 0.0000000e+00 
0.0000000e+00 2.1951155e-05 0.0000000e+00 
0.0000000e+00 2.1055448e-05 0.0000000e+00 
0.0000000e+00 2.1332575e-05 0.0000000e+00 
0.0000000e+00 2.3370603e-05 0.0000000e+00 
0.0000000e+00 2.8064569e-05 0.0000000e+00 
0.0000000e+00 3.0455820e-05 0.0000000e+00 
0.0000000e+00 2.4768287e-05 0.0000000e+00 
0.0000000e+00 1.7907151e-06 0.0000000e+00 
0.0000000e+00 -8.5297048e-05 0.0000000e+00 
0.0000000e+00 -2.1118189e-04 0.0000000e+00 
0.0000000e+00 -3.7483612e-04 0.0000000e+00 
0.0000000e+00 -5.3378480e-04 0.0000000e+00 
0.0000000e+00 -5.1678234e-04 0.0000000e+00 
0.0000000e+00 -4.5174343e-04 0.0000000e+00 
0.0000000e+00 -3.0636642e-04 0.0000000e+00 
0.0000000e+00 -1.1308800e-04 0.0000000e+00 
0.0000000e+00 -1.1802378e-05 0.0000000e+00 
0.0000000e+00 2.7450802e-05 0.0000000e+00 
0.0000000e+00 2.2894992e-05 0.0000000e+00 
0.0000000e+00 8.5132433e-06 0.0000000e+00 
0.0000000e+00 1.3911126e-06 0.0000000e+00 
0.0000000e+00 4.5057650e-06 0.0000000e+00 
0.0000000e+00 1.0185164e-05 0.0000000e+00 
0.0000000e+00 1.4205611e-05 0.0000000e+00 
0.0000000e+00 2.1779437e-05 0.0000000e+00 
0.0000000e+00 2.6581327e-05 0.0000000e+00 
0.0000000e+00 2.3865423e-05 0.0000000e+00 
0.0000000e+00 7.1382765e-06 0.0000000e+00 
0.0000000e+00 -7.6402219e-05 0.0000000e+00 
0.0000000e+00 -2.1968172e-04 0.0000000e+00 
0.0000000e+00 -4.3827589e-04 0.0000000e+00 
0.0000000e+00 -5.2283012e-04 0.0000000e+00 
0.0000000e+00 -5.1738211e-04 0.0000000e+00 
0.0000000e+00 -4.5046510e-04 0.0000000e+00 
0.0000000e+00 -3.0180893e-04 0.0000000e+00 
0.0000000e+00 -1.3174370e-04 0.0000000e+00 
0.0000000e+00 -1.4406193e-05 0.0000000e+00 
0.0000000e+00 1.6801881e-05 0.0000000e+00 
0.0000000e+00 1.4101999e-05 0.0000000e+00 
0.0000000e+00 5.1816032e-06 0.0000000e+00 
0.0000000e+00 9.6225756e-07 0.0000000e+00 
0.0000000e+00 -9.1877013e-07 0.0000000e+00 
0.0000000e+00 -3.0179694e-07 0.0000000e+00 
0.0000000e+00 -1.0116088e-06 0.0000000e+00 
-2.7400756e-06 4.7567846e-07 1.9660663e-06 
-2.6383843e-06 1.0221439e-06 2.3927937e-06 
-2.3637076e-06 -4.0787751e-07 1.7103720e-06 
-2.1434348e-06 8.0906591e-07 7.8284707e-08 
9.8619716e-07 -8.0215659e-07 2.5886502e-06 
9.7050349e-07 -1.7234694e-06 3.0403037e-06 
2.9334888e-07 -2.2375916e-06 3.8060136e-06 
-6.5662431e-07 -1.9391746e-06 3.1594693e-06 
-2.8958632e-06 -1.8020309e-07 2.4818405e-06 
7.7960487e-07 -5.5586247e-07 2.5036095e-06 
-1.5935235e-06 1.4996797e-06 -2.8111829e-06 
-3.4774080e-06 -3.3960433e-08 4.6122022e-06 
0.0000000e+00 1.9014797e-05 0.0000000e+00 
0.0000000e+00 2.6935737e-05 0.0000000e+00 
0.0000000e+00 3.4276032e-05 0.0000000e+00 
0.0000000e+00 4.0611361e-05 0.0000000e+00 
0.0000000e+00 3.8407798e-05 0.0000000e+00 
0.0000000e+00 3.4638586e-05 0.0000000e+00 
0.0000000e+00 3.4058474e-05 0.0000000e+00 
0.0000000e+00 3.5678248e-05 0.0000000e+00 
0.0000000e+00 3.9359853e-05 0.0000000e+00 
0.0000000e+00 4.7319318e-05 0.0000000e+00 
0.0000000e+00 5.1373354e-05 0.0000000e+00 
0.0000000e+00 4.4127439e-05 0.0000000e+00 
0.0000000e+00 -7.5119083e-06 0.0000000e+00 