# vtk DataFile Version 4.0
vtk output
ASCII
DATASET UNSTRUCTURED_GRID
POINTS 1919 float
0.0000000e+00 0.0000000e+00 0.0000000e+00 
0.0000000e+00 0.0000000e+00 5.0000000e+01 
5.0000000e+00 0.0000000e+00 0.0000000e+00 
5.0000000e+00 0.0000000e+00 5.0000000e+01 
5.0000000e+00 1.0000000e+00 0.0000000e+00 
5.0000000e+00 1.0000000e+00 5.0000000e+01 
0.0000000e+00 1.0000000e+00 0.0000000e+00 
0.0000000e+00 1.0000000e+00 5.0000000e+01 
5.0000000e+00 2.0000000e+00 0.0000000e+00 
5.0000000e+00 2.0000000e+00 5.0000000e+01 
3.0000000e+00 2.0000000e+00 0.0000000e+00 
3.0000000e+00 2.0000000e+00 5.0000000e+01 
0.0000000e+00 2.0000000e+00 0.0000000e+00 
0.0000000e+00 2.0000000e+00 5.0000000e+01 
1.5000000e+00 3.0000000e+00 0.0000000e+00 
1.5000000e+00 3.0000000e+00 5.0000000e+01 
7.5000000e-01 3.0000000e+00 0.0000000e+00 
7.5000000e-01 3.0000000e+00 5.0000000e+01 
0.0000000e+00 3.0000000e+00 0.0000000e+00 
0.0000000e+00 3.0000000e+00 5.0000000e+01 
7.5000000e-01 3.0000000e+00 5.0000000e-01 
7.5000000e-01 3.0000000e+00 1.0000000e+00 
7.5000000e-01 3.0000000e+00 1.5000000e+00 
7.5000000e-01 3.0000000e+00 2.0000000e+00 
7.5000000e-01 3.0000000e+00 2.5000000e+00 
7.5000000e-01 3.0000000e+00 3.0000000e+00 
7.5000000e-01 3.0000000e+00 3.5000000e+00 
7.5000000e-01 3.0000000e+00 4.0000000e+00 
7.5000000e-01 3.0000000e+00 4.5000000e+00 
7.5000000e-01 3.0000000e+00 5.0000000e+00 
7.5000000e-01 3.0000000e+00 5.5000000e+00 
7.5000000e-01 3.0000000e+00 6.0000000e+00 
7.5000000e-01 3.0000000e+00 6.5000000e+00 
7.5000000e-01 3.0000000e+00 7.0000000e+00 
7.5000000e-01 3.0000000e+00 7.5000000e+00 
7.5000000e-01 3.0000000e+00 8.0000000e+00 
7.5000000e-01 3.0000000e+00 8.5000000e+00 
7.5000000e-01 3.0000000e+00 9.0000000e+00 
7.5000000e-01 3.0000000e+00 9.5000000e+00 
7.5000000e-01 3.0000000e+00 1.0000000e+01 
7.5000000e-01 3.0000000e+00 1.0500000e+01 
7.5000000e-01 3.0000000e+00 1.1000000e+01 
7.5000000e-01 3.0000000e+00 1.1500000e+01 
7.5000000e-01 3.0000000e+00 1.2000000e+01 
7.5000000e-01 3.0000000e+00 1.2500000e+01 
7.5000000e-01 3.0000000e+00 1.3000000e+01 
7.5000000e-01 3.0000000e+00 1.3500000e+01 
7.5000000e-01 3.0000000e+00 1.4000000e+01 
7.5000000e-01 3.0000000e+00 1.4500000e+01 
7.5000000e-01 3.0000000e+00 1.5000000e+01 
7.5000000e-01 3.0000000e+00 1.5500000e+01 
7.5000000e-01 3.0000000e+00 1.6000000e+01 
7.5000000e-01 3.0000000e+00 1.6500000e+01 
7.5000000e-01 3.0000000e+00 1.7000000e+01 
7.5000000e-01 3.0000000e+00 1.7500000e+01 
7.5000000e-01 3.0000000e+00 1.8000000e+01 
7.5000000e-01 3.0000000e+00 1.8500000e+01 
7.5000000e-01 3.0000000e+00 1.9000000e+01 
7.5000000e-01 3.0000000e+00 1.9500000e+01 
7.5000000e-01 3.0000000e+00 2.0000000e+01 
7.5000000e-01 3.0000000e+00 2.0500000e+01 
7.5000000e-01 3.0000000e+00 2.1000000e+01 
7.5000000e-01 3.0000000e+00 2.1500000e+01 
7.5000000e-01 3.0000000e+00 2.2000000e+01 
7.5000000e-01 3.0000000e+00 2.2500000e+01 
7.5000000e-01 3.0000000e+00 2.3000000e+01 
7.5000000e-01 3.0000000e+00 2.3500000e+01 
7.5000000e-01 3.0000000e+00 2.4000000e+01 
7.5000000e-01 3.0000000e+00 2.4500000e+01 
7.5000000e-01 3.0000000e+00 2.5000000e+01 
7.5000000e-01 3.0000000e+00 2.5500000e+01 
7.5000000e-01 3.0000000e+00 2.6000000e+01 
7.5000000e-01 3.0000000e+00 2.6500000e+01 
7.5000000e-01 3.0000000e+00 2.7000000e+01 
7.5000000e-01 3.0000000e+00 2.7500000e+01 
7.5000000e-01 3.0000000e+00 2.8000000e+01 
7.5000000e-01 3.0000000e+00 2.8500000e+01 
7.5000000e-01 3.0000000e+00 2.9000000e+01 
7.5000000e-01 3.0000000e+00 2.9500000e+01 
7.5000000e-01 3.0000000e+00 3.0000000e+01 
7.5000000e-01 3.0000000e+00 3.0500000e+01 
7.5000000e-01 3.0000000e+00 3.1000000e+01 
7.5000000e-01 3.0000000e+00 3.1500000e+01 
7.5000000e-01 3.0000000e+00 3.2000000e+01 
7.5000000e-01 3.0000000e+00 3.2500000e+01 
7.5000000e-01 3.0000000e+00 3.3000000e+01 
7.5000000e-01 3.0000000e+00 3.3500000e+01 
7.5000000e-01 3.0000000e+00 3.4000000e+01 
7.5000000e-01 3.0000000e+00 3.4500000e+01 
7.5000000e-01 3.0000000e+00 3.5000000e+01 
7.5000000e-01 3.0000000e+00 3.5500000e+01 
7.5000000e-01 3.0000000e+00 3.6000000e+01 
7.5000000e-01 3.0000000e+00 3.6500000e+01 
7.5000000e-01 3.0000000e+00 3.7000000e+01 
7.5000000e-01 3.0000000e+00 3.7500000e+01 
7.5000000e-01 3.0000000e+00 3.8000000e+01 
7.5000000e-01 3.0000000e+00 3.8500000e+01 
7.5000000e-01 3.0000000e+00 3.9000000e+01 
7.5000000e-01 3.0000000e+00 3.9500000e+01 
7.5000000e-01 3.0000000e+00 4.0000000e+01 
7.5000000e-01 3.0000000e+00 4.0500000e+01 
7.5000000e-01 3.0000000e+00 4.1000000e+01 
7.5000000e-01 3.0000000e+00 4.1500000e+01 
7.5000000e-01 3.0000000e+00 4.2000000e+01 
7.5000000e-01 3.0000000e+00 4.2500000e+01 
7.5000000e-01 3.0000000e+00 4.3000000e+01 
7.5000000e-01 3.0000000e+00 4.3500000e+01 
7.5000000e-01 3.0000000e+00 4.4000000e+01 
7.5000000e-01 3.0000000e+00 4.4500000e+01 
7.5000000e-01 3.0000000e+00 4.5000000e+01 
7.5000000e-01 3.0000000e+00 4.5500000e+01 
7.5000000e-01 3.0000000e+00 4.6000000e+01 
7.5000000e-01 3.0000000e+00 4.6500000e+01 
7.5000000e-01 3.0000000e+00 4.7000000e+01 
7.5000000e-01 3.0000000e+00 4.7500000e+01 
7.5000000e-01 3.0000000e+00 4.8000000e+01 
7.5000000e-01 3.0000000e+00 4.8500000e+01 
7.5000000e-01 3.0000000e+00 4.9000000e+01 
7.5000000e-01 3.0000000e+00 4.9500000e+01 
7.5000000e-01 3.0250001e+00 0.0000000e+00 
7.5000000e-01 3.0250001e+00 5.0000000e-01 
7.5000000e-01 3.0250001e+00 1.0000000e+00 
7.5000000e-01 3.0250001e+00 1.5000000e+00 
7.5000000e-01 3.0250001e+00 2.0000000e+00 
7.5000000e-01 3.0250001e+00 2.5000000e+00 
7.5000000e-01 3.0250001e+00 3.0000000e+00 
7.5000000e-01 3.0250001e+00 3.5000000e+00 
7.5000000e-01 3.0250001e+00 4.0000000e+00 
7.5000000e-01 3.0250001e+00 4.5000000e+00 
7.5000000e-01 3.0250001e+00 5.0000000e+00 
7.5000000e-01 3.0250001e+00 5.5000000e+00 
7.5000000e-01 3.0250001e+00 6.0000000e+00 
7.5000000e-01 3.0250001e+00 6.5000000e+00 
7.5000000e-01 3.0250001e+00 7.0000000e+00 
7.5000000e-01 3.0250001e+00 7.5000000e+00 
7.5000000e-01 3.0250001e+00 8.0000000e+00 
7.5000000e-01 3.0250001e+00 8.5000000e+00 
7.5000000e-01 3.0250001e+00 9.0000000e+00 
7.5000000e-01 3.0250001e+00 9.5000000e+00 
7.5000000e-01 3.0250001e+00 1.0000000e+01 
7.5000000e-01 3.0250001e+00 1.0500000e+01 
7.5000000e-01 3.0250001e+00 1.1000000e+01 
7.5000000e-01 3.0250001e+00 1.1500000e+01 
7.5000000e-01 3.0250001e+00 1.2000000e+01 
7.5000000e-01 3.0250001e+00 1.2500000e+01 
7.5000000e-01 3.0250001e+00 1.3000000e+01 
7.5000000e-01 3.0250001e+00 1.3500000e+01 
7.5000000e-01 3.0250001e+00 1.4000000e+01 
7.5000000e-01 3.0250001e+00 1.4500000e+01 
7.5000000e-01 3.0250001e+00 1.5000000e+01 
7.5000000e-01 3.0250001e+00 1.5500000e+01 
7.5000000e-01 3.0250001e+00 1.6000000e+01 
7.5000000e-01 3.0250001e+00 1.6500000e+01 
7.5000000e-01 3.0250001e+00 1.7000000e+01 
7.5000000e-01 3.0250001e+00 1.7500000e+01 
7.5000000e-01 3.0250001e+00 1.8000000e+01 
7.5000000e-01 3.0250001e+00 1.8500000e+01 
7.5000000e-01 3.0250001e+00 1.9000000e+01 
7.5000000e-01 3.0250001e+00 1.9500000e+01 
7.5000000e-01 3.0250001e+00 2.0000000e+01 
7.5000000e-01 3.0250001e+00 2.0500000e+01 
7.5000000e-01 3.0250001e+00 2.1000000e+01 
7.5000000e-01 3.0250001e+00 2.1500000e+01 
7.5000000e-01 3.0250001e+00 2.2000000e+01 
7.5000000e-01 3.0250001e+00 2.2500000e+01 
7.5000000e-01 3.0250001e+00 2.3000000e+01 
7.5000000e-01 3.0250001e+00 2.3500000e+01 
7.5000000e-01 3.0250001e+00 2.4000000e+01 
7.5000000e-01 3.0250001e+00 2.4500000e+01 
7.5000000e-01 3.0250001e+00 2.5000000e+01 
7.5000000e-01 3.0250001e+00 2.5500000e+01 
7.5000000e-01 3.0250001e+00 2.6000000e+01 
7.5000000e-01 3.0250001e+00 2.6500000e+01 
7.5000000e-01 3.0250001e+00 2.7000000e+01 
7.5000000e-01 3.0250001e+00 2.7500000e+01 
7.5000000e-01 3.0250001e+00 2.8000000e+01 
7.5000000e-01 3.0250001e+00 2.8500000e+01 
7.5000000e-01 3.0250001e+00 2.9000000e+01 
7.5000000e-01 3.0250001e+00 2.9500000e+01 
7.5000000e-01 3.0250001e+00 3.0000000e+01 
7.5000000e-01 3.0250001e+00 3.0500000e+01 
7.5000000e-01 3.0250001e+00 3.1000000e+01 
7.5000000e-01 3.0250001e+00 3.1500000e+01 
7.5000000e-01 3.0250001e+00 3.2000000e+01 
7.5000000e-01 3.0250001e+00 3.2500000e+01 
7.5000000e-01 3.0250001e+00 3.3000000e+01 
7.5000000e-01 3.0250001e+00 3.3500000e+01 
7.5000000e-01 3.0250001e+00 3.4000000e+01 
7.5000000e-01 3.0250001e+00 3.4500000e+01 
7.5000000e-01 3.0250001e+00 3.5000000e+01 
7.5000000e-01 3.0250001e+00 3.5500000e+01 
7.5000000e-01 3.0250001e+00 3.6000000e+01 
7.5000000e-01 3.0250001e+00 3.6500000e+01 
7.5000000e-01 3.0250001e+00 3.7000000e+01 
7.5000000e-01 3.0250001e+00 3.7500000e+01 
7.5000000e-01 3.0250001e+00 3.8000000e+01 
7.5000000e-01 3.0250001e+00 3.8500000e+01 
7.5000000e-01 3.0250001e+00 3.9000000e+01 
7.5000000e-01 3.0250001e+00 3.9500000e+01 
7.5000000e-01 3.0250001e+00 4.0000000e+01 
7.5000000e-01 3.0250001e+00 4.0500000e+01 
7.5000000e-01 3.0250001e+00 4.1000000e+01 
7.5000000e-01 3.0250001e+00 4.1500000e+01 
7.5000000e-01 3.0250001e+00 4.2000000e+01 
7.5000000e-01 3.0250001e+00 4.2500000e+01 
7.5000000e-01 3.0250001e+00 4.3000000e+01 
7.5000000e-01 3.0250001e+00 4.3500000e+01 
7.5000000e-01 3.0250001e+00 4.4000000e+01 
7.5000000e-01 3.0250001e+00 4.4500000e+01 
7.5000000e-01 3.0250001e+00 4.5000000e+01 
7.5000000e-01 3.0250001e+00 4.5500000e+01 
7.5000000e-01 3.0250001e+00 4.6000000e+01 
7.5000000e-01 3.0250001e+00 4.6500000e+01 
7.5000000e-01 3.0250001e+00 4.7000000e+01 
7.5000000e-01 3.0250001e+00 4.7500000e+01 
7.5000000e-01 3.0250001e+00 4.8000000e+01 
7.5000000e-01 3.0250001e+00 4.8500000e+01 
7.5000000e-01 3.0250001e+00 4.9000000e+01 
7.5000000e-01 3.0250001e+00 4.9500000e+01 
7.5000000e-01 3.0250001e+00 5.0000000e+01 
1.5000000e+00 3.0000000e+00 2.5000000e+01 
3.0000000e+00 2.0000000e+00 2.5000000e+01 
4.0000000e+00 2.0000000e+00 2.5000000e+01 
5.0000000e+00 2.0000000e+00 2.5000000e+01 
0.0000000e+00 3.0000000e+00 2.5000000e+01 
0.0000000e+00 0.0000000e+00 1.0000000e+00 
0.0000000e+00 0.0000000e+00 2.0000000e+00 
0.0000000e+00 0.0000000e+00 3.0000000e+00 
0.0000000e+00 0.0000000e+00 4.0000000e+00 
0.0000000e+00 0.0000000e+00 5.0000000e+00 
[...]
POINT_DATA 1919
FIELD FieldData 3
DISPLACEMENT 3 1919  float
0.0000000e+00 0.0000000e+00 0.0000000e+00 
0.0000000e+00 0.0000000e+00 0.0000000e+00 
0.0000000e+00 0.0000000e+00 0.0000000e+00 
0.0000000e+00 0.0000000e+00 0.0000000e+00 
6.2865070e-06 -5.6038664e-07 -2.0431414e-06 
2.4577920e-07 3.1789462e-08 -3.4012874e-07 
0.0000000e+00 6.3318407e-06 0.0000000e+00 
0.0000000e+00 7.0450589e-08 0.0000000e+00 
3.4525183e-06 3.2327337e-06 -1.6036897e-06 
5.9013598e-07 4.3611454e-08 5.1150607e-07 
6.3347611e-06 -1.4942488e-05 -2.1061640e-05 
-7.1464848e-07 9.2987199e-07 -1.3888246e-07 
0.0000000e+00 1.2336175e-05 0.0000000e+00 
0.0000000e+00 -4.2931113e-08 0.0000000e+00 
2.0286610e-05 -3.7604615e-05 -3.9095325e-05 
6.7687688e-07 -2.9328558e-07 -8.3315871e-07 
7.4353462e-05 -1.8339438e-06 -4.0171341e-05 
3.3771894e-07 -5.9820746e-07 1.2674237e-06 
0.0000000e+00 3.8983162e-05 0.0000000e+00 
0.0000000e+00 -3.8244099e-07 0.0000000e+00 
2.1211692e-05 4.7943740e-08 -4.2937759e-06 
1.2504888e-05 4.0279056e-06 1.2876410e-05 
1.1413388e-05 8.8395072e-06 1.9124418e-05 
1.0180923e-05 1.3703757e-05 2.7825483e-05 
8.3914874e-06 1.7726821e-05 2.1085247e-05 
6.8916447e-06 1.9899140e-05 1.6970056e-05 
-1.3063574e-05 2.1120741e-05 1.7159644e-05 
-1.6764303e-05 2.1284903e-05 1.7319273e-05 
-2.0153177e-05 2.2388476e-05 1.1262283e-05 
-2.0466188e-05 2.4169769e-05 8.1324861e-06 
-1.9060295e-05 2.8722727e-05 3.4767636e-06 
-2.9559636e-05 3.5422847e-05 -5.5902528e-06 
-2.1332757e-05 4.6251313e-05 -8.3793584e-06 
-2.2181710e-05 6.0732480e-05 -1.1455886e-05 
-1.2176697e-05 7.9149206e-05 -1.0130400e-05 
-5.3609515e-06 9.4753581e-05 -2.3902298e-06 
-1.4032355e-05 9.8241915e-05 5.5346118e-06 
-1.0028096e-05 6.6603927e-05 1.7807530e-05 
-1.3572640e-05 -3.2253814e-05 5.2184663e-05 
-4.6287209e-06 -2.4738346e-04 6.5257998e-05 
-2.0821815e-05 -6.3998305e-04 1.5853632e-04 
-4.9307193e-05 -1.2681448e-03 1.4004503e-04 
-9.9164798e-05 -2.1723390e-03 2.7313930e-04 
-1.5481292e-04 -3.2926241e-03 1.5185603e-04 
-1.9486419e-04 -4.4454779e-03 2.5251409e-04 
-2.0241566e-04 -5.1024794e-03 1.3005457e-04 
-2.0901908e-04 -4.9227057e-03 9.4975920e-05 
-2.2574916e-04 -4.5417654e-03 9.0598405e-05 
-2.2721893e-04 -4.4390350e-03 8.0588034e-05 
-2.5126792e-04 -4.5401659e-03 -2.4110092e-05 
-2.5237017e-04 -4.3640938e-03 -1.0121555e-04 
-2.3070612e-04 -3.3811687e-03 -1.0449890e-04 
-1.7888057e-04 -2.1690002e-03 -2.3120605e-04 
-1.5486988e-04 -1.1292674e-03 -3.4926520e-04 
-4.8206766e-05 -3.9243919e-04 -2.3046322e-04 
-8.8621691e-06 3.1371012e-05 -1.7545422e-04 
1.8932154e-05 2.1943093e-04 -1.6493295e-04 
3.3597891e-05 2.5839399e-04 -1.3782350e-04 
5.7344503e-05 2.2240797e-04 -1.0424163e-04 
7.0562048e-05 1.5983662e-04 -8.2964303e-05 
7.2681709e-05 9.8862954e-05 -5.0262806e-05 
5.8095509e-05 5.1472929e-05 -2.2960379e-05 
4.3700209e-05 1.9696541e-05 7.4974560e-06 
2.9155215e-05 3.3907133e-07 2.9193856e-05 
4.9538044e-06 -1.1607656e-05 4.6352867e-05 
3.6390697e-06 -1.9428779e-05 4.2941341e-05 
-1.5890069e-05 -2.4025832e-05 4.1341234e-05 
-4.5254492e-05 -2.6464211e-05 3.0399640e-05 
-2.2425926e-05 -2.6132242e-05 1.5723954e-05 
-4.3829445e-05 -2.3319575e-05 1.1459242e-05 
-3.2432381e-05 -1.7068120e-05 -2.3945638e-06 
-4.5871981e-05 -7.6369533e-06 -6.9397170e-06 
-4.3881912e-05 7.9757228e-06 -5.2369214e-06 
-3.5195761e-05 2.9713354e-05 -3.0809178e-06 
-2.1501395e-05 5.7765228e-05 -1.1515150e-05 
-1.5552016e-05 8.3864456e-05 -3.1705954e-07 
-1.6821537e-05 9.5554002e-05 6.1932592e-06 
-7.1359082e-06 6.5482229e-05 3.2186246e-05 
-2.2938713e-05 -4.3148233e-05 8.2050850e-05 
-6.4817536e-06 -2.8409433e-04 9.4639196e-05 
-3.1810221e-05 -7.2026555e-04 1.8124390e-04 
-6.1300176e-05 -1.4072944e-03 1.3689713e-04 
-1.2043789e-04 -2.3768011e-03 2.5775592e-04 
-1.8683240e-04 -3.5417594e-03 1.0827481e-04 
-2.5359611e-04 -4.6740402e-03 2.0027804e-04 
-3.0823040e-04 -5.1770932e-03 8.1375489e-05 
-2.8644540e-04 -4.9270778e-03 -4.8373136e-06 
-2.8170104e-04 -4.5826710e-03 9.4707630e-06 
-2.3594564e-04 -4.5416155e-03 -1.4011451e-06 
-2.2609315e-04 -4.6130419e-03 -3.8535894e-05 
-2.1908720e-04 -4.2469865e-03 -1.1955259e-04 
-1.9718734e-04 -3.1249018e-03 -8.8764049e-05 
-1.4574960e-04 -1.8912979e-03 -2.3787364e-04 
-1.1523937e-04 -8.9138490e-04 -1.6526300e-04 
-6.5075707e-05 -2.3767201e-04 -2.2463319e-04 
-6.6389712e-06 1.1573997e-04 -1.9692845e-04 
5.2274981e-06 2.5020918e-04 -1.0636479e-04 
4.5042088e-06 2.5386841e-04 -8.2730585e-05 
1.2365262e-05 1.9685850e-04 -6.1062143e-05 
1.9933779e-05 1.2332179e-04 -6.0466820e-05 
2.7273371e-05 5.8324942e-05 -3.6500260e-05 
2.7306811e-05 1.1954031e-05 -1.7967361e-05 
2.6168847e-05 -1.5288038e-05 1.4505528e-05 
1.4606228e-05 -2.7267452e-05 2.8545193e-05 
3.5091423e-06 -2.9805296e-05 3.8949645e-05 
-9.6738022e-09 -2.6808379e-05 3.3640292e-05 
-4.8256161e-06 -2.0450680e-05 2.0025258e-05 
-4.8900074e-06 -1.2209312e-05 1.1978534e-05 
-5.8361088e-06 -3.1862626e-06 6.2797772e-06 
-4.7612521e-06 4.4956973e-06 5.4820048e-06 
-4.3388854e-06 9.2944856e-06 4.2718725e-06 
-3.4145055e-06 1.0539063e-05 1.6293601e-06 
-1.8589983e-06 8.7153394e-06 -3.1816609e-07 
-2.2710815e-06 5.1339775e-06 -1.8365392e-06 
-1.7870993e-06 1.3169922e-06 -2.9834255e-06 
-9.4704296e-07 -1.4072352e-06 -4.8578304e-06 
8.2315722e-07 -2.4068513e-06 -3.7905822e-06 
3.0598366e-07 -1.9763145e-06 -3.9626721e-06 
1.8968710e-06 -1.0275944e-06 -1.5465351e-06 
0.0000000e+00 -1.7127884e-06 0.0000000e+00 
0.0000000e+00 2.1907484e-08 0.0000000e+00 
0.0000000e+00 4.0041114e-06 0.0000000e+00 
0.0000000e+00 8.8670922e-06 0.0000000e+00 
0.0000000e+00 1.3727034e-05 0.0000000e+00 
0.0000000e+00 1.7667344e-05 0.0000000e+00 
0.0000000e+00 1.9983527e-05 0.0000000e+00 
0.0000000e+00 2.1074613e-05 0.0000000e+00 
0.0000000e+00 2.1438320e-05 0.0000000e+00 
0.0000000e+00 2.2341421e-05 0.0000000e+00 
0.0000000e+00 2.4347262e-05 0.0000000e+00 
0.0000000e+00 2.8654711e-05 0.0000000e+00 
0.0000000e+00 3.5582198e-05 0.0000000e+00 
0.0000000e+00 4.6297348e-05 0.0000000e+00 
0.0000000e+00 6.1132159e-05 0.0000000e+00 
0.0000000e+00 7.9354664e-05 0.0000000e+00 
0.0000000e+00 9.5498501e-05 0.0000000e+00 
0.0000000e+00 9.8813907e-05 0.0000000e+00 
0.0000000e+00 6.7587898e-05 0.0000000e+00 
0.0000000e+00 -3.1500778e-05 0.0000000e+00 
0.0000000e+00 -2.4735497e-04 0.0000000e+00 
0.0000000e+00 -6.4087409e-04 0.0000000e+00 
0.0000000e+00 -1.2730550e-03 0.0000000e+00 
0.0000000e+00 -2.1791358e-03 0.0000000e+00 
0.0000000e+00 -3.3106792e-03 0.0000000e+00 
0.0000000e+00 -4.4645499e-03 0.0000000e+00 
0.0000000e+00 -5.1344614e-03 0.0000000e+00 
0.0000000e+00 -4.9472796e-03 0.0000000e+00 
0.0000000e+00 -4.5699240e-03 0.0000000e+00 
0.0000000e+00 -4.4606836e-03 0.0000000e+00 
0.0000000e+00 -4.5696674e-03 0.0000000e+00 
0.0000000e+00 -4.3882388e-03 0.0000000e+00 
0.0000000e+00 -3.4054955e-03 0.0000000e+00 
0.0000000e+00 -2.1828103e-03 0.0000000e+00 
0.0000000e+00 -1.1347748e-03 0.0000000e+00 
0.0000000e+00 -3.9632796e-04 0.0000000e+00 
0.0000000e+00 3.1170970e-05 0.0000000e+00 
0.0000000e+00 2.2040066e-04 0.0000000e+00 
0.0000000e+00 2.5986438e-04 0.0000000e+00 
0.0000000e+00 2.2351751e-04 0.0000000e+00 
0.0000000e+00 1.6067995e-04 0.0000000e+00 
0.0000000e+00 9.9394914e-05 0.0000000e+00 
0.0000000e+00 5.1761726e-05 0.0000000e+00 
0.0000000e+00 1.9801739e-05 0.0000000e+00 
0.0000000e+00 2.5470786e-07 0.0000000e+00 
0.0000000e+00 -1.1717947e-05 0.0000000e+00 
0.0000000e+00 -1.9397243e-05 0.0000000e+00 
0.0000000e+00 -2.4082514e-05 0.0000000e+00 
0.0000000e+00 -2.6412734e-05 0.0000000e+00 
0.0000000e+00 -2.6166186e-05 0.0000000e+00 
0.0000000e+00 -2.3253635e-05 0.0000000e+00 
0.0000000e+00 -1.7213011e-05 0.0000000e+00 
0.0000000e+00 -7.4883369e-06 0.0000000e+00 
0.0000000e+00 7.9981100e-06 0.0000000e+00 
0.0000000e+00 3.0159816e-05 0.0000000e+00 
0.0000000e+00 5.8053956e-05 0.0000000e+00 
0.0000000e+00 8.4667590e-05 0.0000000e+00 
0.0000000e+00 9.6131138e-05 0.0000000e+00 
0.0000000e+00 6.6449989e-05 0.0000000e+00 
0.0000000e+00 -4.2538519e-05 0.0000000e+00 
0.0000000e+00 -2.8423849e-04 0.0000000e+00 
0.0000000e+00 -7.2147610e-04 0.0000000e+00 
0.0000000e+00 -1.4131463e-03 0.0000000e+00 
0.0000000e+00 -2.3846016e-03 0.0000000e+00 
0.0000000e+00 -3.5616271e-03 0.0000000e+00 
0.0000000e+00 -4.6943622e-03 0.0000000e+00 
0.0000000e+00 -5.2106739e-03 0.0000000e+00 
0.0000000e+00 -4.9490221e-03 0.0000000e+00 
0.0000000e+00 -4.6123844e-03 0.0000000e+00 
0.0000000e+00 -4.5615789e-03 0.0000000e+00 
0.0000000e+00 -4.6435939e-03 0.0000000e+00 
0.0000000e+00 -4.2708418e-03 0.0000000e+00 
0.0000000e+00 -3.1473292e-03 0.0000000e+00 
0.0000000e+00 -1.9031710e-03 0.0000000e+00 
0.0000000e+00 -8.9877308e-04 0.0000000e+00 
0.0000000e+00 -2.3903130e-04 0.0000000e+00 
0.0000000e+00 1.1585437e-04 0.0000000e+00 
0.0000000e+00 2.5137045e-04 0.0000000e+00 
0.0000000e+00 2.5534755e-04 0.0000000e+00 
0.0000000e+00 1.9789118e-04 0.0000000e+00 
0.0000000e+00 1.2408331e-04 0.0000000e+00 
0.0000000e+00 5.8796279e-05 0.0000000e+00 
0.0000000e+00 1.2143565e-05 0.0000000e+00 
0.0000000e+00 -1.5231622e-05 0.0000000e+00 
0.0000000e+00 -2.7400267e-05 0.0000000e+00 
0.0000000e+00 -2.9916502e-05 0.0000000e+00 
0.0000000e+00 -2.6843745e-05 0.0000000e+00 
0.0000000e+00 -2.0467223e-05 0.0000000e+00 
0.0000000e+00 -1.2164931e-05 0.0000000e+00 
0.0000000e+00 -3.2209821e-06 0.0000000e+00 
0.0000000e+00 4.4453109e-06 0.0000000e+00 
0.0000000e+00 9.2415057e-06 0.0000000e+00 
0.0000000e+00 1.0510977e-05 0.0000000e+00 
0.0000000e+00 8.7177050e-06 0.0000000e+00 
0.0000000e+00 5.1506868e-06 0.0000000e+00 
0.0000000e+00 1.3534691e-06 0.0000000e+00 
0.0000000e+00 -1.3653166e-06 0.0000000e+00 
0.0000000e+00 -2.3805651e-06 0.0000000e+00 
0.0000000e+00 -1.9758320e-06 0.0000000e+00 
0.0000000e+00 -1.0600584e-06 0.0000000e+00 
0.0000000e+00 -6.1734033e-07 0.0000000e+00 
-7.3531257e-05 2.5942591e-05 2.5195568e-06 
1.1395869e-05 1.6211872e-05 -5.6042031e-06 
2.5075019e-06 -6.8777268e-07 -8.2138304e-06 
-6.1599767e-06 1.6956446e-06 -5.4424522e-06 
0.0000000e+00 -5.2190240e-05 0.0000000e+00 
0.0000000e+00 0.0000000e+00 0.0000000e+00 
0.0000000e+00 0.0000000e+00 0.0000000e+00 
0.0000000e+00 0.0000000e+00 0.0000000e+00 
0.0000000e+00 0.0000000e+00 0.0000000e+00 
0.0000000e+00 0.0000000e+00 0.0000000e+00 
0.0000000e+00 0.0000000e+00 0.0000000e+00 
0.0000000e+00 0.0000000e+00 0.0000000e+00 
0.0000000e+00 0.0000000e+00 0.0000000e+00 
0.0000000e+00 0.0000000e+00 0.0000000e+00 
0.0000000e+00 0.0000000e+00 0.0000000e+00 
0.0000000e+00 0.0000000e+00 0.0000000e+00 
0.0000000e+00 0.0000000e+00 0.0000000e+00 
0.0000000e+00 0.0000000e+00 0.0000000e+00 
0.0000000e+00 0.0000000e+00 0.0000000e+00 
0.0000000e+00 0.0000000e+00 0.0000000e+00 
0.0000000e+00 0.0000000e+00 0.0000000e+00 
0.0000000e+00 0.0000000e+00 0.0000000e+00 
0.0000000e+00 0.0000000e+00 0.0000000e+00 
0.0000000e+00 0.0000000e+00 0.0000000e+00 
0.0000000e+00 0.0000000e+00 0.0000000e+00 
0.0000000e+00 0.0000000e+00 0.0000000e+00 
0.0000000e+00 0.0000000e+00 0.0000000e+00 
0.0000000e+00 0.0000000e+00 0.0000000e+00 
0.0000000e+00 0.0000000e+00 0.0000000e+00 
0.0000000e+00 0.0000000e+00 0.0000000e+00 
0.0000000e+00 0.0000000e+00 0.0000000e+00 
0.0000000e+00 0.0000000e+00 0.0000000e+00 
0.0000000e+00 0.0000000e+00 0.0000000e+00 
0.0000000e+00 0.0000000e+00 0.0000000e+00 
0.0000000e+00 0.0000000e+00 0.0000000e+00 
0.0000000e+00 0.0000000e+00 0.0000000e+00 
0.0000000e+00 0.0000000e+00 0.0000000e+00 
0.0000000e+00 0.0000000e+00 0.0000000e+00 
0.0000000e+00 0.0000000e+00 0.0000000e+00 
0.0000000e+00 0.0000000e+00 0.0000000e+00 
0.0000000e+00 0.0000000e+00 0.0000000e+00 
0.0000000e+00 0.0000000e+00 0.0000000e+00 
0.0000000e+00 0.0000000e+00 0.0000000e+00 
0.0000000e+00 0.0000000e+00 0.0000000e+00 
0.0000000e+00 0.0000000e+00 0.0000000e+00 
0.0000000e+00 0.0000000e+00 0.0000000e+00 
0.0000000e+00 0.0000000e+00 0.0000000e+00 
0.0000000e+00 0.0000000e+00 0.0000000e+00 
0.0000000e+00 0.0000000e+00 0.0000000e+00 
0.0000000e+00 0.0000000e+00 0.0000000e+00 
0.0000000e+00 0.0000000e+00 0.0000000e+00 
0.0000000e+00 0.0000000e+00 0.0000000e+00 
0.0000000e+00 0.0000000e+00 0.0000000e+00 
0.0000000e+00 0.0000000e+00 0.0000000e+00 
0.0000000e+00 0.0000000e+00 0.0000000e+00 
0.0000000e+00 0.0000000e+00 0.0000000e+00 
0.0000000e+00 0.0000000e+00 0.0000000e+00 
0.0000000e+00 0.0000000e+00 0.0000000e+00 
0.0000000e+00 0.0000000e+00 0.0000000e+00 
0.0000000e+00 0.0000000e+00 0.0000000e+00 
0.0000000e+00 0.0000000e+00 0.0000000e+00 
0.0000000e+00 0.0000000e+00 0.0000000e+00 
0.0000000e+00 0.0000000e+00 0.0000000e+00 
0.0000000e+00 0.0000000e+00 0.0000000e+00 
0.0000000e+00 0.0000000e+00 0.0000000e+00 
0.0000000e+00 0.0000000e+00 0.0000000e+00 
0.0000000e+00 0.0000000e+00 0.0000000e+00 
0.0000000e+00 0.0000000e+00 0.0000000e+00 
0.0000000e+00 0.0000000e+00 0.0000000e+00 
0.0000000e+00 0.0000000e+00 0.0000000e+00 
0.0000000e+00 0.0000000e+00 0.0000000e+00 
0.0000000e+00 0.0000000e+00 0.0000000e+00 
0.0000000e+00 0.0000000e+00 0.0000000e+00 
0.0000000e+00 0.0000000e+00 0.0000000e+00 
0.0000000e+00 0.0000000e+00 0.0000000e+00 
0.0000000e+00 0.0000000e+00 0.0000000e+00 
0.0000000e+00 0.0000000e+00 0.0000000e+00 
0.0000000e+00 0.0000000e+00 0.0000000e+00 
0.0000000e+00 0.0000000e+00 0.0000000e+00 
0.0000000e+00 0.0000000e+00 0.0000000e+00 
0.0000000e+00 0.0000000e+00 0.0000000e+00 
0.0000000e+00 0.0000000e+00 0.0000000e+00 
0.0000000e+00 0.0000000e+00 0.0000000e+00 
0.0000000e+00 0.0000000e+00 0.0000000e+00 
0.0000000e+00 0.0000000e+00 0.0000000e+00 
0.0000000e+00 0.0000000e+00 0.0000000e+00 
0.0000000e+00 0.0000000e+00 0.0000000e+00 
0.0000000e+00 0.0000000e+00 0.0000000e+00 
0.0000000e+00 0.0000000e+00 0.0000000e+00 
0.0000000e+00 0.0000000e+00 0.0000000e+00 
0.0000000e+00 0.0000000e+00 0.0000000e+00 
0.0000000e+00 0.0000000e+00 0.0000000e+00 
0.0000000e+00 0.0000000e+00 0.0000000e+00 
0.0000000e+00 0.0000000e+00 0.0000000e+00 
0.0000000e+00 0.0000000e+00 0.0000000e+00 
0.0000000e+00 0.0000000e+00 0.0000000e+00 
0.0000000e+00 0.0000000e+00 0.0000000e+00 
0.0000000e+00 0.0000000e+00 0.0000000e+00 
0.0000000e+00 0.0000000e+00 0.0000000e+00 
0.0000000e+00 0.0000000e+00 0.0000000e+00 
0.0000000e+00 0.0000000e+00 0.0000000e+00 
0.0000000e+00 0.0000000e+00 0.0000000e+00 
0.0000000e+00 0.0000000e+00 0.0000000e+00 
0.0000000e+00 0.0000000e+00 0.0000000e+00 
0.0000000e+00 0.0000000e+00 0.0000000e+00 
0.0000000e+00 0.0000000e+00 0.0000000e+00 
0.0000000e+00 0.0000000e+00 0.0000000e+00 
0.0000000e+00 0.0000000e+00 0.0000000e+00 
0.0000000e+00 0.0000000e+00 0.0000000e+00 
0.0000000e+00 0.0000000e+00 0.0000000e+00 
0.0000000e+00 0.0000000e+00 0.0000000e+00 
3.0906342e-06 -6.0334867e-07 -6.4188575e-06 
4.1238404e-06 -2.8079327e-07 -7.7147388e-06 
6.5141453e-06 -1.3965183e-06 -6.4661290e-06 
5.8951205e-06 -9.2324683e-07 -5.2892856e-06 
4.2592860e-06 -8.2989243e-07 -4.8159091e-06 
2.4610224e-06 -3.5120465e-08 -4.2035967e-06 
2.7073356e-06 2.8701717e-07 -4.6040468e-06 
6.0657912e-06 -3.6890938e-07 -4.2657794e-06 
1.2170413e-05 -2.5170154e-06 -3.5104304e-06 
2.0824764e-05 -4.3742252e-06 -2.1210158e-06 
2.8005568e-05 -8.1923999e-06 -1.7074614e-06 
3.7180685e-05 -1.3220411e-05 2.3705061e-06 
4.8276583e-05 -1.7075250e-05 8.8042480e-06 
4.8346250e-05 -1.9927353e-05 8.8006791e-06 
4.7369911e-05 -1.8811199e-05 1.0425199e-05 
4.2726460e-05 -1.4746198e-05 1.2783135e-05 
3.0735791e-05 -1.1720880e-05 1.1772799e-05 
1.3628382e-05 -4.6882005e-06 7.9084557e-06 
3.1691488e-06 -3.8071406e-07 -1.1868879e-06 
-6.7336293e-07 7.9299372e-07 -7.2985767e-06 
-1.0034788e-06 2.3175487e-06 -9.4927673e-06 
-1.0265958e-06 2.9068415e-06 -1.0656665e-05 
5.7914582e-07 5.1214255e-07 -9.3330109e-06 
7.7597001e-08 -2.2819744e-07 -5.8051805e-06 
-1.9366141e-06 -4.2221325e-07 -3.6138458e-06 
-3.6971048e-07 -2.4518242e-06 -2.3258722e-06 
2.3302273e-06 -3.0655142e-06 -1.8710506e-06 
5.5242745e-06 -4.1843291e-06 -2.3545638e-06 
1.3818291e-05 -6.8198819e-06 -2.8879228e-06 
2.4088889e-05 -8.5813554e-06 -2.1247959e-06 
3.3054406e-05 -1.0542303e-05 -1.9186095e-06 
4.5214692e-05 -1.5692191e-05 1.8404139e-06 
4.8674930e-05 -1.5833115e-05 2.9303678e-06 
4.9873648e-05 -1.6712291e-05 6.0060424e-06 
4.6710466e-05 -1.8485236e-05 1.0506339e-05 
3.5922880e-05 -1.1546241e-05 1.2600156e-05 
2.0816577e-05 -6.3550310e-06 1.1473776e-05 
6.4585156e-06 -1.8893111e-07 7.3292977e-06 
7.9912394e-07 -4.0967844e-08 2.5062586e-06 
-2.0461753e-06 1.0570602e-06 -1.0574443e-06 
-2.0327786e-06 1.5049612e-06 -2.1494047e-06 
-7.2956539e-07 1.1250920e-06 -2.7947199e-06 
1.1137957e-06 -1.4187569e-07 -2.1385511e-06 
7.9139818e-07 4.1855083e-07 1.1721266e-07 
-5.1843358e-07 1.1946692e-06 2.0169443e-06 
-2.5861561e-07 -2.6898181e-07 1.9336062e-06 
-3.7970435e-07 -1.4748064e-06 1.8529822e-06 
5.6052674e-08 -2.9215636e-07 1.1888346e-06 
4.5086199e-07 7.3461570e-07 4.7354303e-07 
0.0000000e+00 -2.5086774e-05 0.0000000e+00 
0.0000000e+00 -5.0562074e-05 0.0000000e+00 
0.0000000e+00 -6.6442335e-05 0.0000000e+00 
0.0000000e+00 -7.8233694e-05 0.0000000e+00 
0.0000000e+00 -7.7822820e-05 0.0000000e+00 
0.0000000e+00 -7.7591481e-05 0.0000000e+00 
0.0000000e+00 -7.5364238e-05 0.0000000e+00 
0.0000000e+00 -7.3242918e-05 0.0000000e+00 
0.0000000e+00 -8.7210232e-05 0.0000000e+00 
0.0000000e+00 -1.4443244e-04 0.0000000e+00 
0.0000000e+00 -2.4788117e-04 0.0000000e+00 
0.0000000e+00 -3.9823877e-04 0.0000000e+00 
0.0000000e+00 -5.1571085e-04 0.0000000e+00 
0.0000000e+00 -5.1993760e-04 0.0000000e+00 
0.0000000e+00 -4.5465672e-04 0.0000000e+00 
0.0000000e+00 -3.2417692e-04 0.0000000e+00 
0.0000000e+00 -1.3474403e-04 0.0000000e+00 
0.0000000e+00 -2.6770567e-05 0.0000000e+00 
0.0000000e+00 3.6677473e-06 0.0000000e+00 
0.0000000e+00 -2.7175829e-06 0.0000000e+00 
0.0000000e+00 -2.5461577e-05 0.0000000e+00 
0.0000000e+00 -3.7999496e-05 0.0000000e+00 
0.0000000e+00 -4.9033006e-05 0.0000000e+00 
0.0000000e+00 -5.8870926e-05 0.0000000e+00 
0.0000000e+00 -4.9208025e-05 0.0000000e+00 
0.0000000e+00 -4.4760298e-05 0.0000000e+00 
0.0000000e+00 -4.7680016e-05 0.0000000e+00 
0.0000000e+00 -5.8147078e-05 0.0000000e+00 
0.0000000e+00 -8.4909450e-05 0.0000000e+00 
0.0000000e+00 -1.6568703e-04 0.0000000e+00 
0.0000000e+00 -2.8282806e-04 0.0000000e+00 
0.0000000e+00 -4.6700126e-04 0.0000000e+00 
0.0000000e+00 -5.1023776e-04 0.0000000e+00 
0.0000000e+00 -5.0476450e-04 0.0000000e+00 
0.0000000e+00 -4.3859510e-04 0.0000000e+00 
0.0000000e+00 -2.9051569e-04 0.0000000e+00 
0.0000000e+00 -1.6110753e-04 0.0000000e+00 
0.0000000e+00 -4.2061234e-05 0.0000000e+00 
0.0000000e+00 1.4468246e-05 0.0000000e+00 
0.0000000e+00 1.6105329e-05 0.0000000e+00 
0.0000000e+00 1.0627042e-05 0.0000000e+00 
0.0000000e+00 9.5471669e-06 0.0000000e+00 
0.0000000e+00 9.7201803e-07 0.0000000e+00 
0.0000000e+00 -7.5395014e-06 0.0000000e+00 
0.0000000e+00 -5.4570187e-06 0.0000000e+00 
0.0000000e+00 5.0311712e-07 0.0000000e+00 
0.0000000e+00 2.5960937e-06 0.0000000e+00 
0.0000000e+00 6.1800415e-07 0.0000000e+00 
0.0000000e+00 -7.4419194e-07 0.0000000e+00 
5.5994542e-06 -5.3892131e-06 -9.0820940e-06 
2.3050752e-06 -7.7433297e-06 -9.5134046e-06 
-9.8619967e-07 -3.5745857e-06 -6.1466044e-06 
-1.6217691e-06 -1.5742165e-06 -1.2688333e-06 
1.9771808e-07 5.4893832e-07 2.4685926e-07 
1.0064384e-08 5.1872127e-07 2.2613598e-07 
2.9460773e-07 3.2439030e-07 -5.9115831e-07 
2.3030204e-07 -3.5608727e-07 -4.2448380e-07 
4.8203729e-06 -5.2794553e-06 -1.1863274e-05 
-7.1806170e-08 6.5396728e-07 2.8557096e-07 
-1.8085258e-06 -8.9253817e-06 4.2324546e-06 
2.9019725e-06 -1.4248512e-05 -1.8730920e-05 
0.0000000e+00 -3.6004625e-05 0.0000000e+00 
0.0000000e+00 -7.4264157e-05 0.0000000e+00 
0.0000000e+00 -1.0536825e-04 0.0000000e+00 
0.0000000e+00 -1.2540152e-04 0.0000000e+00 
0.0000000e+00 -1.2814034e-04 0.0000000e+00 
0.0000000e+00 -1.2887560e-04 0.0000000e+00 
0.0000000e+00 -1.2696949e-04 0.0000000e+00 
0.0000000e+00 -1.2124150e-04 0.0000000e+00 
0.0000000e+00 -1.4626340e-04 0.0000000e+00 
0.0000000e+00 -2.5510695e-04 0.0000000e+00 
0.0000000e+00 -5.2227883e-04 0.0000000e+00 
0.0000000e+00 -8.8261481e-04 0.0000000e+00 
0.0000000e+00 -1.1409248e-03 0.0000000e+00 