# vtk DataFile Version 4.0
vtk output
ASCII
DATASET UNSTRUCTURED_GRID
POINTS 1919 float
0.0000000e+00 0.0000000e+00 0.0000000e+00 
0.0000000e+00 0.0000000e+00 5.0000000e+01 
5.0000000e+00 0.0000000e+00 0.0000000e+00 
5.0000000e+00 0.0000000e+00 5.0000000e+01 
5.0000000e+00 1.0000000e+00 0.0000000e+00 
5.0000000e+00 1.0000000e+00 5.0000000e+01 
0.0000000e+00 1.0000000e+00 0.0000000e+00 
0.0000000e+00 1.0000000e+00 5.0000000e+01 
5.0000000e+00 2.0000000e+00 0.0000000e+00 
5.0000000e+00 2.0000000e+00 5.0000000e+01 
3.0000000e+00 2.0000000e+00 0.0000000e+00 
3.0000000e+00 2.0000000e+00 5.0000000e+01 
0.0000000e+00 2.0000000e+00 0.0000000e+00 
0.0000000e+00 2.0000000e+00 5.0000000e+01 
1.5000000e+00 3.0000000e+00 0.0000000e+00 
1.5000000e+00 3.0000000e+00 5.0000000e+01 
7.5000000e-01 3.0000000e+00 0.0000000e+00 
7.5000000e-01 3.0000000e+00 5.0000000e+01 
0.0000000e+00 3.0000000e+00 0.0000000e+00 
0.0000000e+00 3.0000000e+00 5.0000000e+01 
7.5000000e-01 3.0000000e+00 5.0000000e-01 
7.5000000e-01 3.0000000e+00 1.0000000e+00 
7.5000000e-01 3.0000000e+00 1.5000000e+00 
7.5000000e-01 3.0000000e+00 2.0000000e+00 
7.5000000e-01 3.0000000e+00 2.5000000e+00 
7.5000000e-01 3.0000000e+00 3.0000000e+00 
7.5000000e-01 3.0000000e+00 3.5000000e+00 
7.5000000e-01 3.0000000e+00 4.0000000e+00 
7.5000000e-01 3.0000000e+00 4.5000000e+00 
7.5000000e-01 3.0000000e+00 5.0000000e+00 
7.5000000e-01 3.0000000e+00 5.5000000e+00 
7.5000000e-01 3.0000000e+00 6.0000000e+00 
7.5000000e-01 3.0000000e+00 6.5000000e+00 
7.5000000e-01 3.0000000e+00 7.0000000e+00 
7.5000000e-01 3.0000000e+00 7.5000000e+00 
7.5000000e-01 3.0000000e+00 8.0000000e+00 
7.5000000e-01 3.0000000e+00 8.5000000e+00 
7.5000000e-01 3.0000000e+00 9.0000000e+00 
7.5000000e-01 3.0000000e+00 9.5000000e+00 
7.5000000e-01 3.0000000e+00 1.0000000e+01 
7.5000000e-01 3.0000000e+00 1.0500000e+01 
7.5000000e-01 3.0000000e+00 1.1000000e+01 
7.5000000e-01 3.0000000e+00 1.1500000e+01 
7.5000000e-01 3.0000000e+00 1.2000000e+01 
7.5000000e-01 3.0000000e+00 1.2500000e+01 
7.5000000e-01 3.0000000e+00 1.3000000e+01 
7.5000000e-01 3.0000000e+00 1.3500000e+01 
7.5000000e-01 3.0000000e+00 1.4000000e+01 
7.5000000e-01 3.0000000e+00 1.4500000e+01 
7.5000000e-01 3.0000000e+00 1.5000000e+01 
7.5000000e-01 3.0000000e+00 1.5500000e+01 
7.5000000e-01 3.0000000e+00 1.6000000e+01 
7.5000000e-01 3.0000000e+00 1.6500000e+01 
7.5000000e-01 3.0000000e+00 1.7000000e+01 
7.5000000e-01 3.0000000e+00 1.7500000e+01 
7.5000000e-01 3.0000000e+00 1.8000000e+01 
7.5000000e-01 3.0000000e+00 1.8500000e+01 
7.5000000e-01 3.0000000e+00 1.9000000e+01 
7.5000000e-01 3.0000000e+00 1.9500000e+01 
7.5000000e-01 3.0000000e+00 2.0000000e+01 
7.5000000e-01 3.0000000e+00 2.0500000e+01 
7.5000000e-01 3.0000000e+00 2.1000000e+01 
7.5000000e-01 3.0000000e+00 2.1500000e+01 
7.5000000e-01 3.0000000e+00 2.2000000e+01 
7.5000000e-01 3.0000000e+00 2.2500000e+01 
7.5000000e-01 3.0000000e+00 2.3000000e+01 
7.5000000e-01 3.0000000e+00 2.3500000e+01 
7.5000000e-01 3.0000000e+00 2.4000000e+01 
7.5000000e-01 3.0000000e+00 2.4500000e+01 
7.5000000e-01 3.0000000e+00 2.5000000e+01 
7.5000000e-01 3.0000000e+00 2.5500000e+01 
7.5000000e-01 3.0000000e+00 2.6000000e+01 
7.5000000e-01 3.0000000e+00 2.6500000e+01 
7.5000000e-01 3.0000000e+00 2.7000000e+01 
7.5000000e-01 3.0000000e+00 2.7500000e+01 
7.5000000e-01 3.0000000e+00 2.8000000e+01 
7.5000000e-01 3.0000000e+00 2.8500000e+01 
7.5000000e-01 3.0000000e+00 2.9000000e+01 
7.5000000e-01 3.0000000e+00 2.9500000e+01 
7.5000000e-01 3.0000000e+00 3.0000000e+01 
7.5000000e-01 3.0000000e+00 3.0500000e+01 
7.5000000e-01 3.0000000e+00 3.1000000e+01 
7.5000000e-01 3.0000000e+00 3.1500000e+01 
7.5000000e-01 3.0000000e+00 3.2000000e+01 
7.5000000e-01 3.0000000e+00 3.2500000e+01 
7.5000000e-01 3.0000000e+00 3.3000000e+01 
7.5000000e-01 3.0000000e+00 3.3500000e+01 
7.5000000e-01 3.0000000e+00 3.4000000e+01 
7.5000000e-01 3.0000000e+00 3.4500000e+01 
7.5000000e-01 3.0000000e+00 3.5000000e+01 
7.5000000e-01 3.0000000e+00 3.5500000e+01 
7.5000000e-01 3.0000000e+00 3.6000000e+01 
7.5000000e-01 3.0000000e+00 3.6500000e+01 
7.5000000e-01 3.0000000e+00 3.7000000e+01 
7.5000000e-01 3.0000000e+00 3.7500000e+01 
7.5000000e-01 3.0000000e+00 3.8000000e+01 
7.5000000e-01 3.0000000e+00 3.8500000e+01 
7.5000000e-01 3.0000000e+00 3.9000000e+01 
7.5000000e-01 3.0000000e+00 3.9500000e+01 
7.5000000e-01 3.0000000e+00 4.0000000e+01 
7.5000000e-01 3.0000000e+00 4.0500000e+01 
7.5000000e-01 3.0000000e+00 4.1000000e+01 
7.5000000e-01 3.0000000e+00 4.1500000e+01 
7.5000000e-01 3.0000000e+00 4.2000000e+01 
7.5000000e-01 3.0000000e+00 4.2500000e+01 
7.5000000e-01 3.0000000e+00 4.3000000e+01 
7.5000000e-01 3.0000000e+00 4.3500000e+01 
7.5000000e-01 3.0000000e+00 4.4000000e+01 
7.5000000e-01 3.0000000e+00 4.4500000e+01 
7.5000000e-01 3.0000000e+00 4.5000000e+01 
7.5000000e-01 3.0000000e+00 4.5500000e+01 
7.5000000e-01 3.0000000e+00 4.6000000e+01 
7.5000000e-01 3.0000000e+00 4.6500000e+01 
7.5000000e-01 3.0000000e+00 4.7000000e+01 
7.5000000e-01 3.0000000e+00 4.7500000e+01 
7.5000000e-01 3.0000000e+00 4.8000000e+01 
7.5000000e-01 3.0000000e+00 4.8500000e+01 
7.5000000e-01 3.0000000e+00 4.9000000e+01 
7.5000000e-01 3.0000000e+00 4.9500000e+01 
7.5000000e-01 3.0250001e+00 0.0000000e+00 
7.5000000e-01 3.0250001e+00 5.0000000e-01 
7.5000000e-01 3.0250001e+00 1.0000000e+00 
7.5000000e-01 3.0250001e+00 1.5000000e+00 
7.5000000e-01 3.0250001e+00 2.0000000e+00 
7.5000000e-01 3.0250001e+00 2.5000000e+00 
7.5000000e-01 3.0250001e+00 3.0000000e+00 
7.5000000e-01 3.0250001e+00 3.5000000e+00 
7.5000000e-01 3.0250001e+00 4.0000000e+00 
7.5000000e-01 3.0250001e+00 4.5000000e+00 
7.5000000e-01 3.0250001e+00 5.0000000e+00 
7.5000000e-01 3.0250001e+00 5.5000000e+00 
7.5000000e-01 3.0250001e+00 6.0000000e+00 
7.5000000e-01 3.0250001e+00 6.5000000e+00 
7.5000000e-01 3.0250001e+00 7.0000000e+00 
7.5000000e-01 3.0250001e+00 7.5000000e+00 
7.5000000e-01 3.0250001e+00 8.0000000e+00 
7.5000000e-01 3.0250001e+00 8.5000000e+00 
7.5000000e-01 3.0250001e+00 9.0000000e+00 
7.5000000e-01 3.0250001e+00 9.5000000e+00 
7.5000000e-01 3.0250001e+00 1.0000000e+01 
7.5000000e-01 3.0250001e+00 1.0500000e+01 
7.5000000e-01 3.0250001e+00 1.1000000e+01 
7.5000000e-01 3.0250001e+00 1.1500000e+01 
7.5000000e-01 3.0250001e+00 1.2000000e+01 
7.5000000e-01 3.0250001e+00 1.2500000e+01 
7.5000000e-01 3.0250001e+00 1.3000000e+01 
7.5000000e-01 3.0250001e+00 1.3500000e+01 
7.5000000e-01 3.0250001e+00 1.4000000e+01 
7.5000000e-01 3.0250001e+00 1.4500000e+01 
7.5000000e-01 3.0250001e+00 1.5000000e+01 
7.5000000e-01 3.0250001e+00 1.5500000e+01 
7.5000000e-01 3.0250001e+00 1.6000000e+01 
7.5000000e-01 3.0250001e+00 1.6500000e+01 
7.5000000e-01 3.0250001e+00 1.7000000e+01 
7.5000000e-01 3.0250001e+00 1.7500000e+01 
7.5000000e-01 3.0250001e+00 1.8000000e+01 
7.5000000e-01 3.0250001e+00 1.8500000e+01 
7.5000000e-01 3.0250001e+00 1.9000000e+01 
7.5000000e-01 3.0250001e+00 1.9500000e+01 
7.5000000e-01 3.0250001e+00 2.0000000e+01 
7.5000000e-01 3.0250001e+00 2.0500000e+01 
7.5000000e-01 3.0250001e+00 2.1000000e+01 
7.5000000e-01 3.0250001e+00 2.1500000e+01 
7.5000000e-01 3.0250001e+00 2.2000000e+01 
7.5000000e-01 3.0250001e+00 2.2500000e+01 
7.5000000e-01 3.0250001e+00 2.3000000e+01 
7.5000000e-01 3.0250001e+00 2.3500000e+01 
7.5000000e-01 3.0250001e+00 2.4000000e+01 
7.5000000e-01 3.0250001e+00 2.4500000e+01 
7.5000000e-01 3.0250001e+00 2.5000000e+01 
7.5000000e-01 3.0250001e+00 2.5500000e+01 
7.5000000e-01 3.0250001e+00 2.6000000e+01 
7.5000000e-01 3.0250001e+00 2.6500000e+01 
7.5000000e-01 3.0250001e+00 2.7000000e+01 
7.5000000e-01 3.0250001e+00 2.7500000e+01 
7.5000000e-01 3.0250001e+00 2.8000000e+01 
7.5000000e-01 3.0250001e+00 2.8500000e+01 
7.5000000e-01 3.0250001e+00 2.9000000e+01 
7.5000000e-01 3.0250001e+00 2.9500000e+01 
7.5000000e-01 3.0250001e+00 3.0000000e+01 
7.5000000e-01 3.0250001e+00 3.0500000e+01 
7.5000000e-01 3.0250001e+00 3.1000000e+01 
7.5000000e-01 3.0250001e+00 3.1500000e+01 
7.5000000e-01 3.0250001e+00 3.2000000e+01 
7.5000000e-01 3.0250001e+00 3.2500000e+01 
7.5000000e-01 3.0250001e+00 3.3000000e+01 
7.5000000e-01 3.0250001e+00 3.3500000e+01 
7.5000000e-01 3.0250001e+00 3.4000000e+01 
7.5000000e-01 3.0250001e+00 3.4500000e+01 
7.5000000e-01 3.0250001e+00 3.5000000e+01 
7.5000000e-01 3.0250001e+00 3.5500000e+01 
7.5000000e-01 3.0250001e+00 3.6000000e+01 
7.5000000e-01 3.0250001e+00 3.6500000e+01 
7.5000000e-01 3.0250001e+00 3.7000000e+01 
7.5000000e-01 3.0250001e+00 3.7500000e+01 
7.5000000e-01 3.0250001e+00 3.8000000e+01 
7.5000000e-01 3.0250001e+00 3.8500000e+01 
7.5000000e-01 3.0250001e+00 3.9000000e+01 
7.5000000e-01 3.0250001e+00 3.9500000e+01 
7.5000000e-01 3.0250001e+00 4.0000000e+01 
7.5000000e-01 3.0250001e+00 4.0500000e+01 
7.5000000e-01 3.0250001e+00 4.1000000e+01 
7.5000000e-01 3.0250001e+00 4.1500000e+01 
7.5000000e-01 3.0250001e+00 4.2000000e+01 
7.5000000e-01 3.0250001e+00 4.2500000e+01 
7.5000000e-01 3.0250001e+00 4.3000000e+01 
7.5000000e-01 3.0250001e+00 4.3500000e+01 
7.5000000e-01 3.0250001e+00 4.4000000e+01 
7.5000000e-01 3.0250001e+00 4.4500000e+01 
7.5000000e-01 3.0250001e+00 4.5000000e+01 
7.5000000e-01 3.0250001e+00 4.5500000e+01 
7.5000000e-01 3.0250001e+00 4.6000000e+01 
7.5000000e-01 3.0250001e+00 4.6500000e+01 
7.5000000e-01 3.0250001e+00 4.7000000e+01 
7.5000000e-01 3.0250001e+00 4.7500000e+01 
7.5000000e-01 3.0250001e+00 4.8000000e+01 
7.5000000e-01 3.0250001e+00 4.8500000e+01 
7.5000000e-01 3.0250001e+00 4.9000000e+01 
7.5000000e-01 3.0250001e+00 4.9500000e+01 
7.5000000e-01 3.0250001e+00 5.0000000e+01 
1.5000000e+00 3.0000000e+00 2.5000000e+01 
3.0000000e+00 2.0000000e+00 2.5000000e+01 
4.0000000e+00 2.0000000e+00 2.5000000e+01 
5.0000000e+00 2.0000000e+00 2.5000000e+01 
0.0000000e+00 3.0000000e+00 2.5000000e+01 
0.0000000e+00 0.0000000e+00 1.0000000e+00 
0.0000000e+00 0.0000000e+00 2.0000000e+00 
0.0000000e+00 0.0000000e+00 3.0000000e+00 
0.0000000e+00 0.0000000e+00 4.0000000e+00 
0.0000000e+00 0.0000000e+00 5.0000000e+00 
[...]
POINT_DATA 1919
FIELD FieldData 3
DISPLACEMENT 3 1919  float
0.0000000e+00 0.0000000e+00 0.0000000e+00 
0.0000000e+00 0.0000000e+00 0.0000000e+00 
0.0000000e+00 0.0000000e+00 0.0000000e+00 
0.0000000e+00 0.0000000e+00 0.0000000e+00 
3.8138842e-07 -5.8411078e-06 -1.0839478e-06 
7.1565365e-11 4.1547030e-10 4.2393949e-12 
0.0000000e+00 2.7551030e-05 0.0000000e+00 
0.0000000e+00 -3.9977670e-09 0.0000000e+00 
-8.5076965e-07 -3.8206495e-06 4.6643254e-06 
1.9020914e-10 3.3361613e-10 2.5299188e-10 
1.8068551e-05 2.2342241e-05 -3.1691750e-05 
1.2419272e-09 4.1934776e-09 1.0983747e-09 
0.0000000e+00 4.3045500e-05 0.0000000e+00 
0.0000000e+00 -7.0738920e-08 0.0000000e+00 
8.9692967e-06 4.5465717e-05 -6.2136489e-05 
2.7140251e-08 9.0968726e-09 3.9630907e-09 
3.6217830e-07 8.3183208e-05 -1.2975446e-05 
-1.4931958e-09 -8.0202221e-07 -4.1079343e-08 
0.0000000e+00 8.9442387e-05 0.0000000e+00 
0.0000000e+00 -1.9360681e-07 0.0000000e+00 
1.0986720e-05 8.2329949e-05 -4.4796275e-06 
1.7327215e-05 7.4348412e-05 2.8297394e-05 
1.7856435e-05 5.1413488e-05 7.1110248e-05 
1.4082054e-06 4.2520219e-06 1.0451438e-04 
-4.0383744e-05 -7.8326360e-05 1.3905541e-04 
-3.8078146e-05 -2.0852267e-04 1.6007868e-04 
-6.9564878e-05 -4.0805078e-04 2.2411831e-04 
-7.8719750e-05 -7.1855093e-04 2.5923952e-04 
-1.2959255e-04 -1.1891045e-03 3.2675106e-04 
-1.9090573e-04 -1.8711427e-03 2.8281531e-04 
-2.8298103e-04 -2.7894392e-03 3.3904353e-04 
-3.0424161e-04 -3.8751888e-03 1.0987279e-04 
-3.9843915e-04 -4.9419417e-03 1.2092861e-04 
-4.8019577e-04 -5.5249939e-03 -1.1413462e-04 
-4.5885559e-04 -5.3043510e-03 -2.6834846e-04 
-3.9073665e-04 -4.8592035e-03 -2.5258958e-04 
-3.1585587e-04 -4.6508689e-03 -2.6050588e-04 
-2.5928518e-04 -4.5965156e-03 -2.5918515e-04 
-2.4989116e-04 -4.2699929e-03 -2.8156870e-04 
-1.9082337e-04 -3.1976916e-03 -2.5541996e-04 
-9.6377429e-05 -1.9425888e-03 -3.2599914e-04 
-4.6896334e-05 -8.9807011e-04 -1.6829606e-04 
7.3323404e-06 -2.1089666e-04 -1.4233247e-04 
3.1051364e-05 1.5886994e-04 -1.9342112e-06 
2.8762077e-05 2.9395623e-04 3.1233554e-05 
1.3694875e-05 2.9119026e-04 3.3687571e-05 
8.1915914e-06 2.2536173e-04 4.6097706e-05 
5.2200621e-06 1.3895110e-04 1.5274865e-05 
8.5491405e-07 5.7568610e-05 3.7630161e-06 
2.2486790e-06 -4.7984668e-06 1.2460559e-07 
-7.2091648e-06 -4.2561856e-05 -1.5108265e-05 
-4.7394537e-06 -5.4022770e-05 -1.5155542e-06 
-4.5115739e-06 -4.1838590e-05 4.0353020e-06 
-3.7056734e-06 -1.5801423e-05 3.4139628e-06 
2.9015175e-06 1.1967918e-05 8.9241994e-06 
-2.3840310e-07 2.9063633e-05 -1.7016357e-07 
-1.6205188e-06 2.9287268e-05 -1.5889414e-05 
3.1950199e-06 2.0004285e-05 -9.8979881e-06 
7.0118458e-06 1.6232854e-05 -2.0510823e-05 
1.8246473e-06 2.9216468e-05 -1.0709777e-05 
3.4643124e-06 5.6372315e-05 1.4290856e-06 
7.4517097e-06 7.7354322e-05 8.7941389e-06 
4.5102656e-06 7.0246206e-05 6.2999963e-05 
1.5235579e-05 2.1606262e-05 1.2121866e-04 
-8.5703305e-06 -7.8094956e-05 1.5658606e-04 
-4.6378380e-05 -2.3968783e-04 1.7227784e-04 
-9.8801851e-05 -4.7956847e-04 2.3916630e-04 
-2.1419149e-04 -8.3597610e-04 3.1351080e-04 
-1.5586763e-04 -1.3486817e-03 2.9176415e-04 
-2.2238705e-04 -2.0716023e-03 2.6489407e-04 
-2.5208871e-04 -3.0313111e-03 3.2739298e-04 
-4.2617286e-04 -4.1432041e-03 7.9046513e-05 
-4.4104079e-04 -5.1751062e-03 7.8330253e-05 
-4.7606876e-04 -5.5907755e-03 -9.2713824e-05 
-4.5179692e-04 -5.2770106e-03 -2.9363070e-04 
-4.1334357e-04 -4.8588752e-03 -2.9558779e-04 
-3.4465644e-04 -4.7115572e-03 -2.8688996e-04 
-3.4791592e-04 -4.6640383e-03 -2.9957810e-04 
-3.0065773e-04 -4.2054676e-03 -3.6834634e-04 
-2.1765320e-04 -3.0340073e-03 -2.8862321e-04 
-1.1763496e-04 -1.7861472e-03 -3.8271345e-04 
-4.6709483e-05 -7.7745126e-04 -1.7329463e-04 
5.9590725e-06 -1.3197986e-04 -1.2622896e-04 
3.0714004e-05 2.0310005e-04 2.0269728e-05 
2.6333437e-05 3.1318283e-04 4.4612912e-05 
1.7961223e-05 2.9194608e-04 3.5176734e-05 
1.9503450e-05 2.1316427e-04 4.6526726e-05 
4.6208479e-06 1.1821393e-04 6.0476991e-06 
-1.9464489e-06 3.5091689e-05 6.8228055e-06 
-6.7047944e-07 -2.1309326e-05 3.2146116e-07 
-4.2174215e-06 -4.4481421e-05 -1.5250819e-05 
-2.2722788e-06 -3.9307321e-05 -3.0759822e-06 
4.1497947e-07 -1.7719085e-05 5.2968932e-08 
-8.8693588e-07 4.3598220e-06 -9.9051732e-08 
3.3829322e-06 1.5507765e-05 2.6203977e-06 
-2.1989470e-06 1.4267208e-05 -2.8386698e-06 
1.4419473e-06 3.9846846e-06 6.5863355e-07 
-6.3072932e-08 -8.2413708e-06 2.5038919e-06 
-3.4448058e-07 -1.4204390e-05 -3.1417687e-06 
2.6319523e-07 -1.0805115e-05 6.2575685e-07 
-1.0028323e-08 -1.0907308e-06 6.3600675e-07 
-3.4480013e-07 7.8059702e-06 -1.3254398e-06 
3.8954028e-07 9.9286126e-06 1.1429789e-06 
2.2723262e-07 6.0445223e-06 -1.0401849e-07 
-1.4422308e-07 -7.2456110e-08 -5.8740761e-07 
7.5943758e-09 -4.9389701e-06 5.0004894e-07 
-1.9241484e-07 -6.2423628e-06 -3.6625764e-07 
-3.3890353e-07 -3.7825018e-06 -3.0149772e-07 
1.5653680e-07 9.5488247e-07 3.6156075e-07 
2.2748712e-07 4.6301961e-06 -2.6800175e-08 
-1.3402785e-08 4.0393261e-06 -1.9328013e-08 
-6.5812856e-08 1.9089261e-07 9.0200786e-08 
-6.6000936e-08 -2.8832567e-06 -1.1719661e-07 
-6.0796687e-08 -2.6918656e-06 -4.8252687e-08 
3.0187088e-08 -1.7328627e-07 5.0946444e-08 
-1.3657514e-08 1.7601338e-06 -4.0454729e-08 
-2.8569351e-08 1.5994181e-06 1.6536656e-08 
1.0750379e-08 3.2817204e-07 -3.9568957e-09 
-1.2883328e-08 -5.6963160e-07 1.6162367e-08 
0.0000000e+00 8.3393745e-05 0.0000000e+00 
0.0000000e+00 8.2352584e-05 0.0000000e+00 
0.0000000e+00 7.4514079e-05 0.0000000e+00 
0.0000000e+00 5.1726351e-05 0.0000000e+00 
0.0000000e+00 4.4669773e-06 0.0000000e+00 
0.0000000e+00 -7.7847901e-05 0.0000000e+00 
0.0000000e+00 -2.0761174e-04 0.0000000e+00 
0.0000000e+00 -4.0767013e-04 0.0000000e+00 
0.0000000e+00 -7.1828970e-04 0.0000000e+00 
0.0000000e+00 -1.1903745e-03 0.0000000e+00 
0.0000000e+00 -1.8758302e-03 0.0000000e+00 
0.0000000e+00 -2.7958164e-03 0.0000000e+00 
0.0000000e+00 -3.8898098e-03 0.0000000e+00 
0.0000000e+00 -4.9609579e-03 0.0000000e+00 
0.0000000e+00 -5.5544083e-03 0.0000000e+00 
0.0000000e+00 -5.3256042e-03 0.0000000e+00 
0.0000000e+00 -4.8867133e-03 0.0000000e+00 
0.0000000e+00 -4.6692789e-03 0.0000000e+00 
0.0000000e+00 -4.6244571e-03 0.0000000e+00 
0.0000000e+00 -4.2935936e-03 0.0000000e+00 
0.0000000e+00 -3.2206792e-03 0.0000000e+00 
0.0000000e+00 -1.9550857e-03 0.0000000e+00 
0.0000000e+00 -9.0668944e-04 0.0000000e+00 
0.0000000e+00 -2.1261690e-04 0.0000000e+00 
0.0000000e+00 1.5849220e-04 0.0000000e+00 
0.0000000e+00 2.9511459e-04 0.0000000e+00 
0.0000000e+00 2.9298660e-04 0.0000000e+00 
0.0000000e+00 2.2643742e-04 0.0000000e+00 
0.0000000e+00 1.3966775e-04 0.0000000e+00 
0.0000000e+00 5.8045414e-05 0.0000000e+00 
0.0000000e+00 -4.6504019e-06 0.0000000e+00 
0.0000000e+00 -4.2493157e-05 0.0000000e+00 
0.0000000e+00 -5.3822143e-05 0.0000000e+00 
0.0000000e+00 -4.1788895e-05 0.0000000e+00 
0.0000000e+00 -1.5796615e-05 0.0000000e+00 
0.0000000e+00 1.1722981e-05 0.0000000e+00 
0.0000000e+00 2.8518778e-05 0.0000000e+00 
0.0000000e+00 2.8986889e-05 0.0000000e+00 
0.0000000e+00 2.0192296e-05 0.0000000e+00 
0.0000000e+00 1.6824613e-05 0.0000000e+00 
0.0000000e+00 2.9943987e-05 0.0000000e+00 
0.0000000e+00 5.6451147e-05 0.0000000e+00 
0.0000000e+00 7.7115299e-05 0.0000000e+00 
0.0000000e+00 7.0215232e-05 0.0000000e+00 
0.0000000e+00 2.1718723e-05 0.0000000e+00 
0.0000000e+00 -7.7750665e-05 0.0000000e+00 
0.0000000e+00 -2.3858000e-04 0.0000000e+00 
0.0000000e+00 -4.7935543e-04 0.0000000e+00 
0.0000000e+00 -8.3511329e-04 0.0000000e+00 
0.0000000e+00 -1.3501006e-03 0.0000000e+00 
0.0000000e+00 -2.0774077e-03 0.0000000e+00 
0.0000000e+00 -3.0393696e-03 0.0000000e+00 
0.0000000e+00 -4.1596168e-03 0.0000000e+00 
0.0000000e+00 -5.1941779e-03 0.0000000e+00 
0.0000000e+00 -5.6207958e-03 0.0000000e+00 
0.0000000e+00 -5.2976585e-03 0.0000000e+00 
0.0000000e+00 -4.8864423e-03 0.0000000e+00 
0.0000000e+00 -4.7305501e-03 0.0000000e+00 
0.0000000e+00 -4.6932208e-03 0.0000000e+00 
0.0000000e+00 -4.2264974e-03 0.0000000e+00 
0.0000000e+00 -3.0570356e-03 0.0000000e+00 
0.0000000e+00 -1.7959281e-03 0.0000000e+00 
0.0000000e+00 -7.8556046e-04 0.0000000e+00 
0.0000000e+00 -1.3328643e-04 0.0000000e+00 
0.0000000e+00 2.0317688e-04 0.0000000e+00 
0.0000000e+00 3.1434884e-04 0.0000000e+00 
0.0000000e+00 2.9364755e-04 0.0000000e+00 
0.0000000e+00 2.1392867e-04 0.0000000e+00 
0.0000000e+00 1.1894519e-04 0.0000000e+00 
0.0000000e+00 3.5591271e-05 0.0000000e+00 
0.0000000e+00 -2.0761703e-05 0.0000000e+00 
0.0000000e+00 -4.4247892e-05 0.0000000e+00 
0.0000000e+00 -3.9237006e-05 0.0000000e+00 
0.0000000e+00 -1.7997882e-05 0.0000000e+00 
0.0000000e+00 3.8419394e-06 0.0000000e+00 
0.0000000e+00 1.5294911e-05 0.0000000e+00 
0.0000000e+00 1.4146932e-05 0.0000000e+00 
0.0000000e+00 4.0144319e-06 0.0000000e+00 
0.0000000e+00 -7.9117972e-06 0.0000000e+00 
0.0000000e+00 -1.3928771e-05 0.0000000e+00 
0.0000000e+00 -1.0725825e-05 0.0000000e+00 
0.0000000e+00 -1.2290321e-06 0.0000000e+00 
0.0000000e+00 7.4828822e-06 0.0000000e+00 
0.0000000e+00 9.8320670e-06 0.0000000e+00 
0.0000000e+00 6.1054552e-06 0.0000000e+00 
0.0000000e+00 1.2670488e-09 0.0000000e+00 
0.0000000e+00 -4.8175607e-06 0.0000000e+00 
0.0000000e+00 -6.1541796e-06 0.0000000e+00 
0.0000000e+00 -3.7400850e-06 0.0000000e+00 
0.0000000e+00 8.8051326e-07 0.0000000e+00 
0.0000000e+00 4.4053336e-06 0.0000000e+00 
0.0000000e+00 3.9536931e-06 0.0000000e+00 
0.0000000e+00 3.5346025e-07 0.0000000e+00 
0.0000000e+00 -2.7122776e-06 0.0000000e+00 
0.0000000e+00 -2.6755595e-06 0.0000000e+00 
0.0000000e+00 -2.9534564e-07 0.0000000e+00 
0.0000000e+00 1.6590559e-06 0.0000000e+00 
0.0000000e+00 1.6309411e-06 0.0000000e+00 
0.0000000e+00 4.1760711e-07 0.0000000e+00 
0.0000000e+00 -5.5818731e-07 0.0000000e+00 
0.0000000e+00 -8.4671939e-07 0.0000000e+00 
-5.2164693e-04 -1.2119527e-03 4.0528766e-04 
-2.7972177e-05 -3.6018642e-04 1.0602435e-05 
3.2533306e-05 -1.2141342e-04 -3.3993736e-05 
5.3798532e-05 6.4670632e-05 -3.0078099e-05 
0.0000000e+00 -1.7615437e-03 0.0000000e+00 
0.0000000e+00 0.0000000e+00 0.0000000e+00 
0.0000000e+00 0.0000000e+00 0.0000000e+00 
0.0000000e+00 0.0000000e+00 0.0000000e+00 
0.0000000e+00 0.0000000e+00 0.0000000e+00 
0.0000000e+00 0.0000000e+00 0.0000000e+00 
0.0000000e+00 0.0000000e+00 0.0000000e+00 
0.0000000e+00 0.0000000e+00 0.0000000e+00 
0.0000000e+00 0.0000000e+00 0.0000000e+00 
0.0000000e+00 0.0000000e+00 0.0000000e+00 
0.0000000e+00 0.0000000e+00 0.0000000e+00 
0.0000000e+00 0.0000000e+00 0.0000000e+00 
0.0000000e+00 0.0000000e+00 0.0000000e+00 
0.0000000e+00 0.0000000e+00 0.0000000e+00 
0.0000000e+00 0.0000000e+00 0.0000000e+00 
0.0000000e+00 0.0000000e+00 0.0000000e+00 
0.0000000e+00 0.0000000e+00 0.0000000e+00 
0.0000000e+00 0.0000000e+00 0.0000000e+00 
0.0000000e+00 0.0000000e+00 0.0000000e+00 
0.0000000e+00 0.0000000e+00 0.0000000e+00 
0.0000000e+00 0.0000000e+00 0.0000000e+00 
0.0000000e+00 0.0000000e+00 0.0000000e+00 
0.0000000e+00 0.0000000e+00 0.0000000e+00 
0.0000000e+00 0.0000000e+00 0.0000000e+00 
0.0000000e+00 0.0000000e+00 0.0000000e+00 
0.0000000e+00 0.0000000e+00 0.0000000e+00 
0.0000000e+00 0.0000000e+00 0.0000000e+00 
0.0000000e+00 0.0000000e+00 0.0000000e+00 
0.0000000e+00 0.0000000e+00 0.0000000e+00 
0.0000000e+00 0.0000000e+00 0.0000000e+00 
0.0000000e+00 0.0000000e+00 0.0000000e+00 
0.0000000e+00 0.0000000e+00 0.0000000e+00 
0.0000000e+00 0.0000000e+00 0.0000000e+00 
0.0000000e+00 0.0000000e+00 0.0000000e+00 
0.0000000e+00 0.0000000e+00 0.0000000e+00 
0.0000000e+00 0.0000000e+00 0.0000000e+00 
0.0000000e+00 0.0000000e+00 0.0000000e+00 
0.0000000e+00 0.0000000e+00 0.0000000e+00 
0.0000000e+00 0.0000000e+00 0.0000000e+00 
0.0000000e+00 0.0000000e+00 0.0000000e+00 
0.0000000e+00 0.0000000e+00 0.0000000e+00 
0.0000000e+00 0.0000000e+00 0.0000000e+00 
0.0000000e+00 0.0000000e+00 0.0000000e+00 
0.0000000e+00 0.0000000e+00 0.0000000e+00 
0.0000000e+00 0.0000000e+00 0.0000000e+00 
0.0000000e+00 0.0000000e+00 0.0000000e+00 
0.0000000e+00 0.0000000e+00 0.0000000e+00 
0.0000000e+00 0.0000000e+00 0.0000000e+00 
0.0000000e+00 0.0000000e+00 0.0000000e+00 
0.0000000e+00 0.0000000e+00 0.0000000e+00 
0.0000000e+00 0.0000000e+00 0.0000000e+00 
0.0000000e+00 0.0000000e+00 0.0000000e+00 
0.0000000e+00 0.0000000e+00 0.0000000e+00 
0.0000000e+00 0.0000000e+00 0.0000000e+00 
0.0000000e+00 0.0000000e+00 0.0000000e+00 
0.0000000e+00 0.0000000e+00 0.0000000e+00 
0.0000000e+00 0.0000000e+00 0.0000000e+00 
0.0000000e+00 0.0000000e+00 0.0000000e+00 
0.0000000e+00 0.0000000e+00 0.0000000e+00 
0.0000000e+00 0.0000000e+00 0.0000000e+00 
0.0000000e+00 0.0000000e+00 0.0000000e+00 
0.0000000e+00 0.0000000e+00 0.0000000e+00 
0.0000000e+00 0.0000000e+00 0.0000000e+00 
0.0000000e+00 0.0000000e+00 0.0000000e+00 
0.0000000e+00 0.0000000e+00 0.0000000e+00 
0.0000000e+00 0.0000000e+00 0.0000000e+00 
0.0000000e+00 0.0000000e+00 0.0000000e+00 
0.0000000e+00 0.0000000e+00 0.0000000e+00 
0.0000000e+00 0.0000000e+00 0.0000000e+00 
0.0000000e+00 0.0000000e+00 0.0000000e+00 
0.0000000e+00 0.0000000e+00 0.0000000e+00 
0.0000000e+00 0.0000000e+00 0.0000000e+00 
0.0000000e+00 0.0000000e+00 0.0000000e+00 
0.0000000e+00 0.0000000e+00 0.0000000e+00 
0.0000000e+00 0.0000000e+00 0.0000000e+00 
0.0000000e+00 0.0000000e+00 0.0000000e+00 
0.0000000e+00 0.0000000e+00 0.0000000e+00 
0.0000000e+00 0.0000000e+00 0.0000000e+00 
0.0000000e+00 0.0000000e+00 0.0000000e+00 
0.0000000e+00 0.0000000e+00 0.0000000e+00 
0.0000000e+00 0.0000000e+00 0.0000000e+00 
0.0000000e+00 0.0000000e+00 0.0000000e+00 
0.0000000e+00 0.0000000e+00 0.0000000e+00 
0.0000000e+00 0.0000000e+00 0.0000000e+00 
0.0000000e+00 0.0000000e+00 0.0000000e+00 
0.0000000e+00 0.0000000e+00 0.0000000e+00 
0.0000000e+00 0.0000000e+00 0.0000000e+00 
0.0000000e+00 0.0000000e+00 0.0000000e+00 
0.0000000e+00 0.0000000e+00 0.0000000e+00 
0.0000000e+00 0.0000000e+00 0.0000000e+00 
0.0000000e+00 0.0000000e+00 0.0000000e+00 
0.0000000e+00 0.0000000e+00 0.0000000e+00 
0.0000000e+00 0.0000000e+00 0.0000000e+00 
0.0000000e+00 0.0000000e+00 0.0000000e+00 
0.0000000e+00 0.0000000e+00 0.0000000e+00 
0.0000000e+00 0.0000000e+00 0.0000000e+00 
0.0000000e+00 0.0000000e+00 0.0000000e+00 
0.0000000e+00 0.0000000e+00 0.0000000e+00 
0.0000000e+00 0.0000000e+00 0.0000000e+00 
0.0000000e+00 0.0000000e+00 0.0000000e+00 
0.0000000e+00 0.0000000e+00 0.0000000e+00 
0.0000000e+00 0.0000000e+00 0.0000000e+00 
0.0000000e+00 0.0000000e+00 0.0000000e+00 
0.0000000e+00 0.0000000e+00 0.0000000e+00 
0.0000000e+00 0.0000000e+00 0.0000000e+00 
0.0000000e+00 0.0000000e+00 0.0000000e+00 
0.0000000e+00 0.0000000e+00 0.0000000e+00 
5.0875524e-06 -9.5150072e-06 -4.7818439e-06 
2.4217479e-05 3.2973635e-06 -1.8860268e-05 
6.2245999e-05 -3.4928385e-06 -3.2496038e-05 
9.1506015e-05 -3.9291152e-07 -3.5161353e-05 
1.2875046e-04 2.4192295e-05 -3.2750981e-05 
1.5150299e-04 3.0704883e-05 -1.6256578e-05 
1.6855930e-04 2.8535987e-05 9.5786354e-06 
1.4534507e-04 2.6038488e-05 3.1461994e-05 
1.1108646e-04 6.3110469e-06 3.8618324e-05 
5.5910394e-05 1.1110535e-05 3.2592256e-05 
3.1439202e-05 -3.5165071e-06 2.0711557e-05 
1.0017063e-05 -1.1097688e-05 6.4266405e-06 
4.4288279e-07 -7.1775225e-06 -8.9880660e-07 
-4.0452213e-07 1.2382311e-05 8.2410304e-07 
-9.5103161e-07 -7.7224576e-07 8.9309708e-07 
7.2427997e-07 -2.8363143e-06 8.8092889e-07 
-4.8635206e-07 -3.1491977e-06 -1.8308023e-06 
-1.2829878e-06 7.1039303e-06 3.3044986e-07 
-2.3135481e-06 4.9301639e-07 2.8631216e-06 
2.2551026e-06 -9.6696176e-06 -2.7915394e-06 
1.1847812e-05 -5.5000601e-06 -8.8843799e-06 
3.7152055e-05 1.4973975e-05 -2.1533200e-05 
7.5884956e-05 7.4554564e-06 -3.2617492e-05 
1.2159765e-04 1.2563020e-05 -3.8828348e-05 
1.5315905e-04 4.0537281e-05 -2.8587338e-05 
1.7770668e-04 5.3124011e-05 -5.3207438e-09 
1.6089289e-04 2.9620558e-05 1.8873981e-05 
1.2588316e-04 2.7890410e-05 3.4407109e-05 
9.5084513e-05 -1.0744935e-05 4.0389921e-05 
4.7350950e-05 -4.3842379e-06 3.6049041e-05 
1.9575542e-05 -5.8308933e-06 1.4418793e-05 
3.4190912e-06 -2.3269864e-05 2.0891532e-06 
-3.3243259e-06 1.3846048e-06 -3.5317425e-06 
-2.8358270e-06 8.0715918e-06 -2.5023855e-06 
1.3179688e-07 -5.9681076e-07 -1.1263898e-07 
8.2592800e-07 -3.7476368e-06 5.4813910e-07 
-3.5051855e-07 2.0820073e-06 -3.9299644e-07 
-2.8167054e-08 6.0381842e-07 3.9480699e-07 
-1.5921154e-07 -4.3818176e-07 -6.4680599e-08 
2.5587251e-08 8.6049084e-08 -8.6774001e-08 
-5.4639089e-09 9.5760058e-08 5.7130201e-08 
1.6508041e-08 -6.6623834e-08 1.1220924e-09 
7.9387128e-09 -2.1372092e-08 -1.2703378e-08 
1.2639773e-09 3.4268702e-08 8.8867607e-09 
4.0182333e-09 -5.8877152e-09 1.7755729e-09 
2.2429700e-09 1.3220146e-09 -2.8306726e-09 
-1.1191742e-09 -2.1886577e-09 -3.0962228e-09 
1.7519221e-10 9.9893027e-10 7.4756262e-10 
2.1517814e-11 -9.3669306e-10 -1.0470613e-10 
0.0000000e+00 -4.0783932e-05 0.0000000e+00 
0.0000000e+00 -1.0028939e-04 0.0000000e+00 
0.0000000e+00 -1.5185839e-04 0.0000000e+00 
0.0000000e+00 -2.6010326e-04 0.0000000e+00 
0.0000000e+00 -3.8442682e-04 0.0000000e+00 
0.0000000e+00 -5.5061176e-04 0.0000000e+00 
0.0000000e+00 -7.2564324e-04 0.0000000e+00 
0.0000000e+00 -7.4845232e-04 0.0000000e+00 
0.0000000e+00 -6.5793149e-04 0.0000000e+00 
0.0000000e+00 -4.6113748e-04 0.0000000e+00 
0.0000000e+00 -2.2680941e-04 0.0000000e+00 
0.0000000e+00 -1.9997251e-05 0.0000000e+00 
0.0000000e+00 6.7975430e-05 0.0000000e+00 
0.0000000e+00 3.2511867e-05 0.0000000e+00 
0.0000000e+00 -9.1283403e-07 0.0000000e+00 
0.0000000e+00 -1.6195820e-05 0.0000000e+00 
0.0000000e+00 -7.9319416e-06 0.0000000e+00 
0.0000000e+00 1.1423017e-05 0.0000000e+00 
0.0000000e+00 2.1866197e-05 0.0000000e+00 
0.0000000e+00 1.7061726e-06 0.0000000e+00 
0.0000000e+00 -3.7828449e-05 0.0000000e+00 
0.0000000e+00 -8.0513812e-05 0.0000000e+00 
0.0000000e+00 -1.4103224e-04 0.0000000e+00 
0.0000000e+00 -2.5116824e-04 0.0000000e+00 
0.0000000e+00 -3.7227635e-04 0.0000000e+00 
0.0000000e+00 -5.6261191e-04 0.0000000e+00 
0.0000000e+00 -7.2062237e-04 0.0000000e+00 
0.0000000e+00 -7.5329118e-04 0.0000000e+00 
0.0000000e+00 -6.4366759e-04 0.0000000e+00 
0.0000000e+00 -4.0334233e-04 0.0000000e+00 
0.0000000e+00 -1.9881745e-04 0.0000000e+00 
0.0000000e+00 2.5299125e-05 0.0000000e+00 
0.0000000e+00 6.2657775e-05 0.0000000e+00 
0.0000000e+00 3.5718687e-05 0.0000000e+00 
0.0000000e+00 -5.5849415e-07 0.0000000e+00 
0.0000000e+00 -1.5056098e-05 0.0000000e+00 
0.0000000e+00 -6.7696615e-06 0.0000000e+00 
0.0000000e+00 7.7289906e-06 0.0000000e+00 
0.0000000e+00 4.6289024e-06 0.0000000e+00 
0.0000000e+00 -3.1530326e-06 0.0000000e+00 
0.0000000e+00 -2.3436319e-06 0.0000000e+00 
0.0000000e+00 1.0084531e-06 0.0000000e+00 
0.0000000e+00 1.4318938e-06 0.0000000e+00 
0.0000000e+00 -1.0796512e-06 0.0000000e+00 
0.0000000e+00 -2.0118996e-07 0.0000000e+00 
0.0000000e+00 4.4677424e-07 0.0000000e+00 
0.0000000e+00 -3.0029273e-07 0.0000000e+00 
0.0000000e+00 1.1479096e-07 0.0000000e+00 
0.0000000e+00 -1.0257484e-08 0.0000000e+00 
3.2964811e-06 -4.0146051e-06 -5.0933463e-06 
8.6781174e-06 1.2872287e-05 -2.1955859e-05 
9.0644617e-06 2.3325636e-05 -2.5767520e-05 
-3.5581411e-06 1.9830137e-05 -1.3944379e-05 
-5.2752441e-11 -1.3311602e-09 -1.3736323e-10 
-6.9851885e-10 2.9489251e-09 -4.1204173e-10 
3.7781174e-09 -8.4961940e-09 5.0139848e-09 
-2.2039661e-09 7.7437967e-09 -5.0694990e-09 
1.6088798e-05 1.1176312e-06 -2.3045683e-05 
-6.0530908e-10 -8.8176666e-10 -4.2273191e-10 
-1.0549842e-06 4.1745330e-05 2.7380534e-06 
3.0630415e-06 4.7078345e-05 -2.4651657e-05 
0.0000000e+00 -3.6422080e-05 0.0000000e+00 
0.0000000e+00 -1.2200465e-04 0.0000000e+00 
0.0000000e+00 -2.5142287e-04 0.0000000e+00 
0.0000000e+00 -4.8922875e-04 0.0000000e+00 
0.0000000e+00 -7.9183845e-04 0.0000000e+00 
0.0000000e+00 -1.2569849e-03 0.0000000e+00 
0.0000000e+00 -1.5334488e-03 0.0000000e+00 
0.0000000e+00 -1.4892794e-03 0.0000000e+00 
0.0000000e+00 -1.2842166e-03 0.0000000e+00 
0.0000000e+00 -8.8177092e-04 0.0000000e+00 
0.0000000e+00 -3.4609981e-04 0.0000000e+00 
0.0000000e+00 2.9543953e-05 0.0000000e+00 
0.0000000e+00 1.1287917e-04 0.0000000e+00 
0.0000000e+00 4.6469449e-05 0.0000000e+00 