# vtk DataFile Version 4.0
vtk output
ASCII
DATASET UNSTRUCTURED_GRID
POINTS 1919 float
0.0000000e+00 0.0000000e+00 0.0000000e+00 
0.0000000e+00 0.0000000e+00 5.0000000e+01 
5.0000000e+00 0.0000000e+00 0.0000000e+00 
5.0000000e+00 0.0000000e+00 5.0000000e+01 
5.0000000e+00 1.0000000e+00 0.0000000e+00 
5.0000000e+00 1.0000000e+00 5.0000000e+01 
0.0000000e+00 1.0000000e+00 0.0000000e+00 
0.0000000e+00 1.0000000e+00 5.0000000e+01 
5.0000000e+00 2.0000000e+00 0.0000000e+00 
5.0000000e+00 2.0000000e+00 5.0000000e+01 
3.0000000e+00 2.0000000e+00 0.0000000e+00 
3.0000000e+00 2.0000000e+00 5.0000000e+01 
0.0000000e+00 2.0000000e+00 0.0000000e+00 
0.0000000e+00 2.0000000e+00 5.0000000e+01 
1.5000000e+00 3.0000000e+00 0.0000000e+00 
1.5000000e+00 3.0000000e+00 5.0000000e+01 
7.5000000e-01 3.0000000e+00 0.0000000e+00 
7.5000000e-01 3.0000000e+00 5.0000000e+01 
0.0000000e+00 3.0000000e+00 0.0000000e+00 
0.0000000e+00 3.0000000e+00 5.0000000e+01 
7.5000000e-01 3.0000000e+00 5.0000000e-01 
7.5000000e-01 3.0000000e+00 1.0000000e+00 
7.5000000e-01 3.0000000e+00 1.5000000e+00 
7.5000000e-01 3.0000000e+00 2.0000000e+00 
7.5000000e-01 3.0000000e+00 2.5000000e+00 
7.5000000e-01 3.0000000e+00 3.0000000e+00 
7.5000000e-01 3.0000000e+00 3.5000000e+00 
7.5000000e-01 3.0000000e+00 4.0000000e+00 
7.5000000e-01 3.0000000e+00 4.5000000e+00 
7.5000000e-01 3.0000000e+00 5.0000000e+00 
7.5000000e-01 3.0000000e+00 5.5000000e+00 
7.5000000e-01 3.0000000e+00 6.0000000e+00 
7.5000000e-01 3.0000000e+00 6.5000000e+00 
7.5000000e-01 3.0000000e+00 7.0000000e+00 
7.5000000e-01 3.0000000e+00 7.5000000e+00 
7.5000000e-01 3.0000000e+00 8.0000000e+00 
7.5000000e-01 3.0000000e+00 8.5000000e+00 
7.5000000e-01 3.0000000e+00 9.0000000e+00 
7.5000000e-01 3.0000000e+00 9.5000000e+00 
7.5000000e-01 3.0000000e+00 1.0000000e+01 
7.5000000e-01 3.0000000e+00 1.0500000e+01 
7.5000000e-01 3.0000000e+00 1.1000000e+01 
7.5000000e-01 3.0000000e+00 1.1500000e+01 
7.5000000e-01 3.0000000e+00 1.2000000e+01 
7.5000000e-01 3.0000000e+00 1.2500000e+01 
7.5000000e-01 3.0000000e+00 1.3000000e+01 
7.5000000e-01 3.0000000e+00 1.3500000e+01 
7.5000000e-01 3.0000000e+00 1.4000000e+01 
7.5000000e-01 3.0000000e+00 1.4500000e+01 
7.5000000e-01 3.0000000e+00 1.5000000e+01 
7.5000000e-01 3.0000000e+00 1.5500000e+01 
7.5000000e-01 3.0000000e+00 1.6000000e+01 
7.5000000e-01 3.0000000e+00 1.6500000e+01 
7.5000000e-01 3.0000000e+00 1.7000000e+01 
7.5000000e-01 3.0000000e+00 1.7500000e+01 
7.5000000e-01 3.0000000e+00 1.8000000e+01 
7.5000000e-01 3.0000000e+00 1.8500000e+01 
7.5000000e-01 3.0000000e+00 1.9000000e+01 
7.5000000e-01 3.0000000e+00 1.9500000e+01 
7.5000000e-01 3.0000000e+00 2.0000000e+01 
7.5000000e-01 3.0000000e+00 2.0500000e+01 
7.5000000e-01 3.0000000e+00 2.1000000e+01 
7.5000000e-01 3.0000000e+00 2.1500000e+01 
7.5000000e-01 3.0000000e+00 2.2000000e+01 
7.5000000e-01 3.0000000e+00 2.2500000e+01 
7.5000000e-01 3.0000000e+00 2.3000000e+01 
7.5000000e-01 3.0000000e+00 2.3500000e+01 
7.5000000e-01 3.0000000e+00 2.4000000e+01 
7.5000000e-01 3.0000000e+00 2.4500000e+01 
7.5000000e-01 3.0000000e+00 2.5000000e+01 
7.5000000e-01 3.0000000e+00 2.5500000e+01 
7.5000000e-01 3.0000000e+00 2.6000000e+01 
7.5000000e-01 3.0000000e+00 2.6500000e+01 
7.5000000e-01 3.0000000e+00 2.7000000e+01 
7.5000000e-01 3.0000000e+00 2.7500000e+01 
7.5000000e-01 3.0000000e+00 2.8000000e+01 
7.5000000e-01 3.0000000e+00 2.8500000e+01 
7.5000000e-01 3.0000000e+00 2.9000000e+01 
7.5000000e-01 3.0000000e+00 2.9500000e+01 
7.5000000e-01 3.0000000e+00 3.0000000e+01 
7.5000000e-01 3.0000000e+00 3.0500000e+01 
7.5000000e-01 3.0000000e+00 3.1000000e+01 
7.5000000e-01 3.0000000e+00 3.1500000e+01 
7.5000000e-01 3.0000000e+00 3.2000000e+01 
7.5000000e-01 3.0000000e+00 3.2500000e+01 
7.5000000e-01 3.0000000e+00 3.3000000e+01 
7.5000000e-01 3.0000000e+00 3.3500000e+01 
7.5000000e-01 3.0000000e+00 3.4000000e+01 
7.5000000e-01 3.0000000e+00 3.4500000e+01 
7.5000000e-01 3.0000000e+00 3.5000000e+01 
7.5000000e-01 3.0000000e+00 3.5500000e+01 
7.5000000e-01 3.0000000e+00 3.6000000e+01 
7.5000000e-01 3.0000000e+00 3.6500000e+01 
7.5000000e-01 3.0000000e+00 3.7000000e+01 
7.5000000e-01 3.0000000e+00 3.7500000e+01 
7.5000000e-01 3.0000000e+00 3.8000000e+01 
7.5000000e-01 3.0000000e+00 3.8500000e+01 
7.5000000e-01 3.0000000e+00 3.9000000e+01 
7.5000000e-01 3.0000000e+00 3.9500000e+01 
7.5000000e-01 3.0000000e+00 4.0000000e+01 
7.5000000e-01 3.0000000e+00 4.0500000e+01 
7.5000000e-01 3.0000000e+00 4.1000000e+01 
7.5000000e-01 3.0000000e+00 4.1500000e+01 
7.5000000e-01 3.0000000e+00 4.2000000e+01 
7.5000000e-01 3.0000000e+00 4.2500000e+01 
7.5000000e-01 3.0000000e+00 4.3000000e+01 
7.5000000e-01 3.0000000e+00 4.3500000e+01 
7.5000000e-01 3.0000000e+00 4.4000000e+01 
7.5000000e-01 3.0000000e+00 4.4500000e+01 
7.5000000e-01 3.0000000e+00 4.5000000e+01 
7.5000000e-01 3.0000000e+00 4.5500000e+01 
7.5000000e-01 3.0000000e+00 4.6000000e+01 
7.5000000e-01 3.0000000e+00 4.6500000e+01 
7.5000000e-01 3.0000000e+00 4.7000000e+01 
7.5000000e-01 3.0000000e+00 4.7500000e+01 
7.5000000e-01 3.0000000e+00 4.8000000e+01 
7.5000000e-01 3.0000000e+00 4.8500000e+01 
7.5000000e-01 3.0000000e+00 4.9000000e+01 
7.5000000e-01 3.0000000e+00 4.9500000e+01 
7.5000000e-01 3.0250001e+00 0.0000000e+00 
7.5000000e-01 3.0250001e+00 5.0000000e-01 
7.5000000e-01 3.0250001e+00 1.0000000e+00 
7.5000000e-01 3.0250001e+00 1.5000000e+00 
7.5000000e-01 3.0250001e+00 2.0000000e+00 
7.5000000e-01 3.0250001e+00 2.5000000e+00 
7.5000000e-01 3.0250001e+00 3.0000000e+00 
7.5000000e-01 3.0250001e+00 3.5000000e+00 
7.5000000e-01 3.0250001e+00 4.0000000e+00 
7.5000000e-01 3.0250001e+00 4.5000000e+00 
7.5000000e-01 3.0250001e+00 5.0000000e+00 
7.5000000e-01 3.0250001e+00 5.5000000e+00 
7.5000000e-01 3.0250001e+00 6.0000000e+00 
7.5000000e-01 3.0250001e+00 6.5000000e+00 
7.5000000e-01 3.0250001e+00 7.0000000e+00 
7.5000000e-01 3.0250001e+00 7.5000000e+00 
7.5000000e-01 3.0250001e+00 8.0000000e+00 
7.5000000e-01 3.0250001e+00 8.5000000e+00 
7.5000000e-01 3.0250001e+00 9.0000000e+00 
7.5000000e-01 3.0250001e+00 9.5000000e+00 
7.5000000e-01 3.0250001e+00 1.0000000e+01 
7.5000000e-01 3.0250001e+00 1.0500000e+01 
7.5000000e-01 3.0250001e+00 1.1000000e+01 
7.5000000e-01 3.0250001e+00 1.1500000e+01 
7.5000000e-01 3.0250001e+00 1.2000000e+01 
7.5000000e-01 3.0250001e+00 1.2500000e+01 
7.5000000e-01 3.0250001e+00 1.3000000e+01 
7.5000000e-01 3.0250001e+00 1.3500000e+01 
7.5000000e-01 3.0250001e+00 1.4000000e+01 
7.5000000e-01 3.0250001e+00 1.4500000e+01 
7.5000000e-01 3.0250001e+00 1.5000000e+01 
7.5000000e-01 3.0250001e+00 1.5500000e+01 
7.5000000e-01 3.0250001e+00 1.6000000e+01 
7.5000000e-01 3.0250001e+00 1.6500000e+01 
7.5000000e-01 3.0250001e+00 1.7000000e+01 
7.5000000e-01 3.0250001e+00 1.7500000e+01 
7.5000000e-01 3.0250001e+00 1.8000000e+01 
7.5000000e-01 3.0250001e+00 1.8500000e+01 
7.5000000e-01 3.0250001e+00 1.9000000e+01 
7.5000000e-01 3.0250001e+00 1.9500000e+01 
7.5000000e-01 3.0250001e+00 2.0000000e+01 
7.5000000e-01 3.0250001e+00 2.0500000e+01 
7.5000000e-01 3.0250001e+00 2.1000000e+01 
7.5000000e-01 3.0250001e+00 2.1500000e+01 
7.5000000e-01 3.0250001e+00 2.2000000e+01 
7.5000000e-01 3.0250001e+00 2.2500000e+01 
7.5000000e-01 3.0250001e+00 2.3000000e+01 
7.5000000e-01 3.0250001e+00 2.3500000e+01 
7.5000000e-01 3.0250001e+00 2.4000000e+01 
7.5000000e-01 3.0250001e+00 2.4500000e+01 
7.5000000e-01 3.0250001e+00 2.5000000e+01 
7.5000000e-01 3.0250001e+00 2.5500000e+01 
7.5000000e-01 3.0250001e+00 2.6000000e+01 
7.5000000e-01 3.0250001e+00 2.6500000e+01 
7.5000000e-01 3.0250001e+00 2.7000000e+01 
7.5000000e-01 3.0250001e+00 2.7500000e+01 
7.5000000e-01 3.0250001e+00 2.8000000e+01 
7.5000000e-01 3.0250001e+00 2.8500000e+01 
7.5000000e-01 3.0250001e+00 2.9000000e+01 
7.5000000e-01 3.0250001e+00 2.9500000e+01 
7.5000000e-01 3.0250001e+00 3.0000000e+01 
7.5000000e-01 3.0250001e+00 3.0500000e+01 
7.5000000e-01 3.0250001e+00 3.1000000e+01 
7.5000000e-01 3.0250001e+00 3.1500000e+01 
7.5000000e-01 3.0250001e+00 3.2000000e+01 
7.5000000e-01 3.0250001e+00 3.2500000e+01 
7.5000000e-01 3.0250001e+00 3.3000000e+01 
7.5000000e-01 3.0250001e+00 3.3500000e+01 
7.5000000e-01 3.0250001e+00 3.4000000e+01 
7.5000000e-01 3.0250001e+00 3.4500000e+01 
7.5000000e-01 3.0250001e+00 3.5000000e+01 
7.5000000e-01 3.0250001e+00 3.5500000e+01 
7.5000000e-01 3.0250001e+00 3.6000000e+01 
7.5000000e-01 3.0250001e+00 3.6500000e+01 
7.5000000e-01 3.0250001e+00 3.7000000e+01 
7.5000000e-01 3.0250001e+00 3.7500000e+01 
7.5000000e-01 3.0250001e+00 3.8000000e+01 
7.5000000e-01 3.0250001e+00 3.8500000e+01 
7.5000000e-01 3.0250001e+00 3.9000000e+01 
7.5000000e-01 3.0250001e+00 3.9500000e+01 
7.5000000e-01 3.0250001e+00 4.0000000e+01 
7.5000000e-01 3.0250001e+00 4.0500000e+01 
7.5000000e-01 3.0250001e+00 4.1000000e+01 
7.5000000e-01 3.0250001e+00 4.1500000e+01 
7.5000000e-01 3.0250001e+00 4.2000000e+01 
7.5000000e-01 3.0250001e+00 4.2500000e+01 
7.5000000e-01 3.0250001e+00 4.3000000e+01 
7.5000000e-01 3.0250001e+00 4.3500000e+01 
7.5000000e-01 3.0250001e+00 4.4000000e+01 
7.5000000e-01 3.0250001e+00 4.4500000e+01 
7.5000000e-01 3.0250001e+00 4.5000000e+01 
7.5000000e-01 3.0250001e+00 4.5500000e+01 
7.5000000e-01 3.0250001e+00 4.6000000e+01 
7.5000000e-01 3.0250001e+00 4.6500000e+01 
7.5000000e-01 3.0250001e+00 4.7000000e+01 
7.5000000e-01 3.0250001e+00 4.7500000e+01 
7.5000000e-01 3.0250001e+00 4.8000000e+01 
7.5000000e-01 3.0250001e+00 4.8500000e+01 
7.5000000e-01 3.0250001e+00 4.9000000e+01 
7.5000000e-01 3.0250001e+00 4.9500000e+01 
7.5000000e-01 3.0250001e+00 5.0000000e+01 
1.5000000e+00 3.0000000e+00 2.5000000e+01 
3.0000000e+00 2.0000000e+00 2.5000000e+01 
4.0000000e+00 2.0000000e+00 2.5000000e+01 
5.0000000e+00 2.0000000e+00 2.5000000e+01 
0.0000000e+00 3.0000000e+00 2.5000000e+01 
0.0000000e+00 0.0000000e+00 1.0000000e+00 
0.0000000e+00 0.0000000e+00 2.0000000e+00 
0.0000000e+00 0.0000000e+00 3.0000000e+00 
0.0000000e+00 0.0000000e+00 4.0000000e+00 
0.0000000e+00 0.0000000e+00 5.0000000e+00 
[...]
POINT_DATA 1919
FIELD FieldData 3
DISPLACEMENT 3 1919  float
0.0000000e+00 0.0000000e+00 0.0000000e+00 
0.0000000e+00 0.0000000e+00 0.0000000e+00 
0.0000000e+00 0.0000000e+00 0.0000000e+00 
0.0000000e+00 0.0000000e+00 0.0000000e+00 
3.8975821e-07 -5.8284127e-06 -1.0824541e-06 
7.0003919e-11 3.9906839e-10 2.3331857e-12 
0.0000000e+00 2.7477372e-05 0.0000000e+00 
0.0000000e+00 -3.8839616e-09 0.0000000e+00 
-8.7887884e-07 -3.8038713e-06 4.6923892e-06 
1.8661218e-10 3.1480021e-10 2.5039920e-10 
1.8083652e-05 2.2320750e-05 -3.1760952e-05 
1.1977728e-09 3.9644705e-09 1.0988225e-09 
0.0000000e+00 4.3186559e-05 0.0000000e+00 
0.0000000e+00 -7.0164354e-08 0.0000000e+00 
9.0295471e-06 4.5474149e-05 -6.2485145e-05 
2.6814620e-08 6.0684471e-09 3.7628278e-09 
3.3598479e-07 8.2988525e-05 -1.2996183e-05 
-1.3750628e-09 -7.5545205e-07 -4.0377685e-08 
0.0000000e+00 8.9860892e-05 0.0000000e+00 
0.0000000e+00 -2.0462134e-07 0.0000000e+00 
1.0983854e-05 8.2537212e-05 -4.5270835e-06 
1.7397386e-05 7.5454001e-05 2.8258441e-05 
1.7936201e-05 5.3291762e-05 7.1068280e-05 
1.5579295e-06 6.3093485e-06 1.0464268e-04 
-4.0341951e-05 -7.6767610e-05 1.3917111e-04 
-3.8068083e-05 -2.0797612e-04 1.6044566e-04 
-6.9708112e-05 -4.0913073e-04 2.2496546e-04 
-7.9198559e-05 -7.2284695e-04 2.6005672e-04 
-1.3033430e-04 -1.1998678e-03 3.2884642e-04 
-1.9239518e-04 -1.8933060e-03 2.8395042e-04 
-2.8452754e-04 -2.8285803e-03 3.4141226e-04 
-3.0658607e-04 -3.9348709e-03 1.1006009e-04 
-4.0138990e-04 -5.0211134e-03 1.2243552e-04 
-4.8556706e-04 -5.6122714e-03 -1.1549361e-04 
-4.6258856e-04 -5.3819586e-03 -2.7089781e-04 
-3.9428595e-04 -4.9222410e-03 -2.5335350e-04 
-3.1800248e-04 -4.7052088e-03 -2.6209786e-04 
-2.6139757e-04 -4.6476764e-03 -2.6032247e-04 
-2.5153588e-04 -4.3170950e-03 -2.8321033e-04 
-1.9228389e-04 -3.2321040e-03 -2.5662041e-04 
-9.6671814e-05 -1.9622783e-03 -3.2770913e-04 
-4.7075417e-05 -9.0602954e-04 -1.6861851e-04 
7.3984879e-06 -2.1196759e-04 -1.4302702e-04 
3.1300609e-05 1.6084799e-04 -1.7295350e-06 
2.8895205e-05 2.9681873e-04 3.1348045e-05 
1.3758781e-05 2.9395011e-04 3.3772092e-05 
8.2020160e-06 2.2751982e-04 4.6268400e-05 
5.2589039e-06 1.4022448e-04 1.5267427e-05 
8.4420458e-07 5.7954410e-05 3.7922941e-06 
2.2185757e-06 -4.9889763e-06 1.0131100e-07 
-7.2202374e-06 -4.2905267e-05 -1.5176902e-05 
-4.7390749e-06 -5.4318400e-05 -1.4840018e-06 
-4.5319912e-06 -4.2129715e-05 4.0599662e-06 
-3.7157097e-06 -1.6126647e-05 3.4001316e-06 
2.8938102e-06 1.1719630e-05 8.9654668e-06 
-2.2626367e-07 2.9068835e-05 -1.6825251e-07 
-1.6041670e-06 2.9551702e-05 -1.5910831e-05 
3.2338360e-06 2.0267236e-05 -9.8629644e-06 
7.0022779e-06 1.6215621e-05 -2.0589747e-05 
1.7822365e-06 2.8977583e-05 -1.0732259e-05 
3.4228090e-06 5.6351408e-05 1.4009977e-06 
7.4639083e-06 7.8122503e-05 8.6640266e-06 
4.5557808e-06 7.2096525e-05 6.3010863e-05 
1.5340582e-05 2.4180663e-05 1.2129153e-04 
-8.4356861e-06 -7.5710661e-05 1.5669296e-04 
-4.6385932e-05 -2.3868751e-04 1.7265952e-04 
-9.8785407e-05 -4.8121563e-04 2.4011910e-04 
-2.1467330e-04 -8.4188645e-04 3.1505805e-04 
-1.5648648e-04 -1.3615877e-03 2.9391004e-04 
-2.2343105e-04 -2.0960018e-03 2.6615779e-04 
-2.5417627e-04 -3.0729165e-03 3.2974017e-04 
-4.3041146e-04 -4.2058825e-03 7.8068406e-05 
-4.4530802e-04 -5.2571511e-03 7.8161022e-05 
-4.8166618e-04 -5.6776470e-03 -9.4225616e-05 
-4.5573773e-04 -5.3519108e-03 -2.9622420e-04 
-4.1701877e-04 -4.9196472e-03 -2.9616928e-04 
-3.4733562e-04 -4.7653802e-03 -2.8803482e-04 
-3.5113146e-04 -4.7159586e-03 -3.0110468e-04 
-3.0290594e-04 -4.2519616e-03 -3.7087328e-04 
-2.1944236e-04 -3.0661265e-03 -2.9011833e-04 
-1.1829289e-04 -1.8040744e-03 -3.8507019e-04 
-4.6903246e-05 -7.8500877e-04 -1.7352743e-04 
6.0389548e-06 -1.3332664e-04 -1.2680485e-04 
3.0951836e-05 2.0514838e-04 2.0484464e-05 
2.6533542e-05 3.1668419e-04 4.4841760e-05 
1.8114250e-05 2.9536834e-04 3.5235866e-05 
1.9568926e-05 2.1541769e-04 4.6693003e-05 
4.6387672e-06 1.1901437e-04 6.0318821e-06 
-1.9807060e-06 3.4969395e-05 6.8173340e-06 
-7.0829810e-07 -2.1694572e-05 2.9923393e-07 
-4.2219699e-06 -4.4770950e-05 -1.5296044e-05 
-2.2657391e-06 -3.9480761e-05 -3.0752317e-06 
4.3687311e-07 -1.7847173e-05 9.8441006e-08 
-8.7653842e-07 4.3017330e-06 -1.1959618e-07 
3.3974777e-06 1.5574018e-05 2.6056825e-06 
-2.2076390e-06 1.4401619e-05 -2.8384038e-06 
1.4026152e-06 4.0424370e-06 6.5633350e-07 
-7.8702833e-08 -8.3298128e-06 2.5136735e-06 
-3.4499558e-07 -1.4327742e-05 -3.1380473e-06 
2.5658792e-07 -1.0822180e-05 6.0992465e-07 
-3.7691739e-09 -9.8509247e-07 6.5417117e-07 
-3.4612887e-07 7.9354104e-06 -1.3343717e-06 
3.8748260e-07 9.9748413e-06 1.1349551e-06 
2.3363827e-07 5.9908011e-06 -8.9258769e-08 
-1.4788219e-07 -1.6588615e-07 -5.9433859e-07 
-1.1680306e-09 -5.0137410e-06 4.9404935e-07 
-1.8931360e-07 -6.2613562e-06 -3.5932644e-07 
-3.3320637e-07 -3.7299453e-06 -3.0392155e-07 
1.5745719e-07 1.0462065e-06 3.6222048e-07 
2.2856749e-07 4.6839364e-06 -2.2303071e-08 
-1.5816275e-08 3.9996144e-06 -2.2852319e-08 
-6.9471945e-08 9.4817402e-08 8.8291294e-08 
-6.4322386e-08 -2.9301914e-06 -1.1519479e-07 
-5.7331153e-08 -2.6431874e-06 -4.8187157e-08 
2.9951924e-08 -9.6881358e-08 5.1044623e-08 
-1.2665667e-08 1.7755652e-06 -3.9951765e-08 
-2.9002795e-08 1.5448780e-06 1.5804595e-08 
1.0296714e-08 2.7418781e-07 -3.6486063e-09 
-1.2164739e-08 -5.6194466e-07 1.5746703e-08 
0.0000000e+00 8.3218074e-05 0.0000000e+00 
0.0000000e+00 8.2572529e-05 0.0000000e+00 
0.0000000e+00 7.5612217e-05 0.0000000e+00 
0.0000000e+00 5.3587457e-05 0.0000000e+00 
0.0000000e+00 6.5141885e-06 0.0000000e+00 
0.0000000e+00 -7.6278389e-05 0.0000000e+00 
0.0000000e+00 -2.0702557e-04 0.0000000e+00 
0.0000000e+00 -4.0871339e-04 0.0000000e+00 
0.0000000e+00 -7.2257605e-04 0.0000000e+00 
0.0000000e+00 -1.2011830e-03 0.0000000e+00 
0.0000000e+00 -1.8981249e-03 0.0000000e+00 
0.0000000e+00 -2.8351101e-03 0.0000000e+00 
0.0000000e+00 -3.9498089e-03 0.0000000e+00 
0.0000000e+00 -5.0404905e-03 0.0000000e+00 
0.0000000e+00 -5.6422814e-03 0.0000000e+00 
0.0000000e+00 -5.4036388e-03 0.0000000e+00 
0.0000000e+00 -4.9503171e-03 0.0000000e+00 
0.0000000e+00 -4.7239438e-03 0.0000000e+00 
0.0000000e+00 -4.6760133e-03 0.0000000e+00 
0.0000000e+00 -4.3409653e-03 0.0000000e+00 
0.0000000e+00 -3.2553792e-03 0.0000000e+00 
0.0000000e+00 -1.9749468e-03 0.0000000e+00 
0.0000000e+00 -9.1477257e-04 0.0000000e+00 
0.0000000e+00 -2.1370167e-04 0.0000000e+00 
0.0000000e+00 1.6050288e-04 0.0000000e+00 
0.0000000e+00 2.9800265e-04 0.0000000e+00 
0.0000000e+00 2.9574987e-04 0.0000000e+00 
0.0000000e+00 2.2859489e-04 0.0000000e+00 
0.0000000e+00 1.4095026e-04 0.0000000e+00 
0.0000000e+00 5.8447615e-05 0.0000000e+00 
0.0000000e+00 -4.8256716e-06 0.0000000e+00 
0.0000000e+00 -4.2840911e-05 0.0000000e+00 
0.0000000e+00 -5.4135024e-05 0.0000000e+00 
0.0000000e+00 -4.2089021e-05 0.0000000e+00 
0.0000000e+00 -1.6117347e-05 0.0000000e+00 
0.0000000e+00 1.1487897e-05 0.0000000e+00 
0.0000000e+00 2.8532140e-05 0.0000000e+00 
0.0000000e+00 2.9242778e-05 0.0000000e+00 
0.0000000e+00 2.0437932e-05 0.0000000e+00 
0.0000000e+00 1.6799102e-05 0.0000000e+00 
0.0000000e+00 2.9709659e-05 0.0000000e+00 
0.0000000e+00 5.6450110e-05 0.0000000e+00 
0.0000000e+00 7.7908815e-05 0.0000000e+00 
0.0000000e+00 7.2069684e-05 0.0000000e+00 
0.0000000e+00 2.4284600e-05 0.0000000e+00 
0.0000000e+00 -7.5379074e-05 0.0000000e+00 
0.0000000e+00 -2.3757400e-04 0.0000000e+00 
0.0000000e+00 -4.8096979e-04 0.0000000e+00 
0.0000000e+00 -8.4098871e-04 0.0000000e+00 
0.0000000e+00 -1.3630254e-03 0.0000000e+00 
0.0000000e+00 -2.1019452e-03 0.0000000e+00 
0.0000000e+00 -3.0811764e-03 0.0000000e+00 
0.0000000e+00 -4.2227032e-03 0.0000000e+00 
0.0000000e+00 -5.2766199e-03 0.0000000e+00 
0.0000000e+00 -5.7083368e-03 0.0000000e+00 
0.0000000e+00 -5.3729927e-03 0.0000000e+00 
0.0000000e+00 -4.9477597e-03 0.0000000e+00 
0.0000000e+00 -4.7847009e-03 0.0000000e+00 
0.0000000e+00 -4.7455705e-03 0.0000000e+00 
0.0000000e+00 -4.2732898e-03 0.0000000e+00 
0.0000000e+00 -3.0895250e-03 0.0000000e+00 
0.0000000e+00 -1.8140036e-03 0.0000000e+00 
0.0000000e+00 -7.9317222e-04 0.0000000e+00 
0.0000000e+00 -1.3460878e-04 0.0000000e+00 
0.0000000e+00 2.0523244e-04 0.0000000e+00 
0.0000000e+00 3.1784171e-04 0.0000000e+00 
0.0000000e+00 2.9706306e-04 0.0000000e+00 
0.0000000e+00 2.1619479e-04 0.0000000e+00 
0.0000000e+00 1.1978312e-04 0.0000000e+00 
0.0000000e+00 3.5484634e-05 0.0000000e+00 
0.0000000e+00 -2.1153606e-05 0.0000000e+00 
0.0000000e+00 -4.4551365e-05 0.0000000e+00 
0.0000000e+00 -3.9414910e-05 0.0000000e+00 
0.0000000e+00 -1.8119221e-05 0.0000000e+00 
0.0000000e+00 3.7888087e-06 0.0000000e+00 
0.0000000e+00 1.5356889e-05 0.0000000e+00 
0.0000000e+00 1.4273814e-05 0.0000000e+00 
0.0000000e+00 4.0709801e-06 0.0000000e+00 
0.0000000e+00 -7.9906931e-06 0.0000000e+00 
0.0000000e+00 -1.4046922e-05 0.0000000e+00 
0.0000000e+00 -1.0747066e-05 0.0000000e+00 
0.0000000e+00 -1.1287897e-06 0.0000000e+00 
0.0000000e+00 7.6102506e-06 0.0000000e+00 
0.0000000e+00 9.8802539e-06 0.0000000e+00 
0.0000000e+00 6.0549337e-06 0.0000000e+00 
0.0000000e+00 -9.1480935e-08 0.0000000e+00 
0.0000000e+00 -4.8918350e-06 0.0000000e+00 
0.0000000e+00 -6.1725573e-06 0.0000000e+00 
0.0000000e+00 -3.6899016e-06 0.0000000e+00 
0.0000000e+00 9.6844019e-07 0.0000000e+00 
0.0000000e+00 4.4584108e-06 0.0000000e+00 
0.0000000e+00 3.9173597e-06 0.0000000e+00 
0.0000000e+00 2.6211379e-07 0.0000000e+00 
0.0000000e+00 -2.7595368e-06 0.0000000e+00 
0.0000000e+00 -2.6321447e-06 0.0000000e+00 
0.0000000e+00 -2.2155865e-07 0.0000000e+00 
0.0000000e+00 1.6764458e-06 0.0000000e+00 
0.0000000e+00 1.5797037e-06 0.0000000e+00 
0.0000000e+00 3.6501018e-07 0.0000000e+00 
0.0000000e+00 -5.5159217e-07 0.0000000e+00 
0.0000000e+00 -8.0200164e-07 0.0000000e+00 
-5.2483578e-04 -1.2225551e-03 4.0823084e-04 
-2.7445636e-05 -3.6086477e-04 1.0363570e-05 
3.2970798e-05 -1.2116318e-04 -3.4119403e-05 
5.4016702e-05 6.4675092e-05 -3.0141890e-05 
0.0000000e+00 -1.7765939e-03 0.0000000e+00 
0.0000000e+00 0.0000000e+00 0.0000000e+00 
0.0000000e+00 0.0000000e+00 0.0000000e+00 
0.0000000e+00 0.0000000e+00 0.0000000e+00 
0.0000000e+00 0.0000000e+00 0.0000000e+00 
0.0000000e+00 0.0000000e+00 0.0000000e+00 
0.0000000e+00 0.0000000e+00 0.0000000e+00 
0.0000000e+00 0.0000000e+00 0.0000000e+00 
0.0000000e+00 0.0000000e+00 0.0000000e+00 
0.0000000e+00 0.0000000e+00 0.0000000e+00 
0.0000000e+00 0.0000000e+00 0.0000000e+00 
0.0000000e+00 0.0000000e+00 0.0000000e+00 
0.0000000e+00 0.0000000e+00 0.0000000e+00 
0.0000000e+00 0.0000000e+00 0.0000000e+00 
0.0000000e+00 0.0000000e+00 0.0000000e+00 
0.0000000e+00 0.0000000e+00 0.0000000e+00 
0.0000000e+00 0.0000000e+00 0.0000000e+00 
0.0000000e+00 0.0000000e+00 0.0000000e+00 
0.0000000e+00 0.0000000e+00 0.0000000e+00 
0.0000000e+00 0.0000000e+00 0.0000000e+00 
0.0000000e+00 0.0000000e+00 0.0000000e+00 
0.0000000e+00 0.0000000e+00 0.0000000e+00 
0.0000000e+00 0.0000000e+00 0.0000000e+00 
0.0000000e+00 0.0000000e+00 0.0000000e+00 
0.0000000e+00 0.0000000e+00 0.0000000e+00 
0.0000000e+00 0.0000000e+00 0.0000000e+00 
0.0000000e+00 0.0000000e+00 0.0000000e+00 
0.0000000e+00 0.0000000e+00 0.0000000e+00 
0.0000000e+00 0.0000000e+00 0.0000000e+00 
0.0000000e+00 0.0000000e+00 0.0000000e+00 
0.0000000e+00 0.0000000e+00 0.0000000e+00 
0.0000000e+00 0.0000000e+00 0.0000000e+00 
0.0000000e+00 0.0000000e+00 0.0000000e+00 
0.0000000e+00 0.0000000e+00 0.0000000e+00 
0.0000000e+00 0.0000000e+00 0.0000000e+00 
0.0000000e+00 0.0000000e+00 0.0000000e+00 
0.0000000e+00 0.0000000e+00 0.0000000e+00 
0.0000000e+00 0.0000000e+00 0.0000000e+00 
0.0000000e+00 0.0000000e+00 0.0000000e+00 
0.0000000e+00 0.0000000e+00 0.0000000e+00 
0.0000000e+00 0.0000000e+00 0.0000000e+00 
0.0000000e+00 0.0000000e+00 0.0000000e+00 
0.0000000e+00 0.0000000e+00 0.0000000e+00 
0.0000000e+00 0.0000000e+00 0.0000000e+00 
0.0000000e+00 0.0000000e+00 0.0000000e+00 
0.0000000e+00 0.0000000e+00 0.0000000e+00 
0.0000000e+00 0.0000000e+00 0.0000000e+00 
0.0000000e+00 0.0000000e+00 0.0000000e+00 
0.0000000e+00 0.0000000e+00 0.0000000e+00 
0.0000000e+00 0.0000000e+00 0.0000000e+00 
0.0000000e+00 0.0000000e+00 0.0000000e+00 
0.0000000e+00 0.0000000e+00 0.0000000e+00 
0.0000000e+00 0.0000000e+00 0.0000000e+00 
0.0000000e+00 0.0000000e+00 0.0000000e+00 
0.0000000e+00 0.0000000e+00 0.0000000e+00 
0.0000000e+00 0.0000000e+00 0.0000000e+00 
0.0000000e+00 0.0000000e+00 0.0000000e+00 
0.0000000e+00 0.0000000e+00 0.0000000e+00 
0.0000000e+00 0.0000000e+00 0.0000000e+00 
0.0000000e+00 0.0000000e+00 0.0000000e+00 
0.0000000e+00 0.0000000e+00 0.0000000e+00 
0.0000000e+00 0.0000000e+00 0.0000000e+00 
0.0000000e+00 0.0000000e+00 0.0000000e+00 
0.0000000e+00 0.0000000e+00 0.0000000e+00 
0.0000000e+00 0.0000000e+00 0.0000000e+00 
0.0000000e+00 0.0000000e+00 0.0000000e+00 
0.0000000e+00 0.0000000e+00 0.0000000e+00 
0.0000000e+00 0.0000000e+00 0.0000000e+00 
0.0000000e+00 0.0000000e+00 0.0000000e+00 
0.0000000e+00 0.0000000e+00 0.0000000e+00 
0.0000000e+00 0.0000000e+00 0.0000000e+00 
0.0000000e+00 0.0000000e+00 0.0000000e+00 
0.0000000e+00 0.0000000e+00 0.0000000e+00 
0.0000000e+00 0.0000000e+00 0.0000000e+00 
0.0000000e+00 0.0000000e+00 0.0000000e+00 
0.0000000e+00 0.0000000e+00 0.0000000e+00 
0.0000000e+00 0.0000000e+00 0.0000000e+00 
0.0000000e+00 0.0000000e+00 0.0000000e+00 
0.0000000e+00 0.0000000e+00 0.0000000e+00 
0.0000000e+00 0.0000000e+00 0.0000000e+00 
0.0000000e+00 0.0000000e+00 0.0000000e+00 
0.0000000e+00 0.0000000e+00 0.0000000e+00 
0.0000000e+00 0.0000000e+00 0.0000000e+00 
0.0000000e+00 0.0000000e+00 0.0000000e+00 
0.0000000e+00 0.0000000e+00 0.0000000e+00 
0.0000000e+00 0.0000000e+00 0.0000000e+00 
0.0000000e+00 0.0000000e+00 0.0000000e+00 
0.0000000e+00 0.0000000e+00 0.0000000e+00 
0.0000000e+00 0.0000000e+00 0.0000000e+00 
0.0000000e+00 0.0000000e+00 0.0000000e+00 
0.0000000e+00 0.0000000e+00 0.0000000e+00 
0.0000000e+00 0.0000000e+00 0.0000000e+00 
0.0000000e+00 0.0000000e+00 0.0000000e+00 
0.0000000e+00 0.0000000e+00 0.0000000e+00 
0.0000000e+00 0.0000000e+00 0.0000000e+00 
0.0000000e+00 0.0000000e+00 0.0000000e+00 
0.0000000e+00 0.0000000e+00 0.0000000e+00 
0.0000000e+00 0.0000000e+00 0.0000000e+00 
0.0000000e+00 0.0000000e+00 0.0000000e+00 
0.0000000e+00 0.0000000e+00 0.0000000e+00 
0.0000000e+00 0.0000000e+00 0.0000000e+00 
0.0000000e+00 0.0000000e+00 0.0000000e+00 
0.0000000e+00 0.0000000e+00 0.0000000e+00 
0.0000000e+00 0.0000000e+00 0.0000000e+00 
0.0000000e+00 0.0000000e+00 0.0000000e+00 
0.0000000e+00 0.0000000e+00 0.0000000e+00 
0.0000000e+00 0.0000000e+00 0.0000000e+00 
5.0800236e-06 -9.5680589e-06 -4.7832327e-06 
2.4219215e-05 3.2896291e-06 -1.8871518e-05 
6.2310981e-05 -3.4801169e-06 -3.2527914e-05 
9.1609625e-05 -4.3312153e-07 -3.5194669e-05 
1.2889049e-04 2.4151544e-05 -3.2785836e-05 
1.5170549e-04 3.0734271e-05 -1.6278736e-05 
1.6879114e-04 2.8546870e-05 9.5846835e-06 
1.4550312e-04 2.6037451e-05 3.1497395e-05 
1.1120392e-04 6.3025805e-06 3.8644386e-05 
5.5964774e-05 1.1154373e-05 3.2618478e-05 
3.1471041e-05 -3.5440769e-06 2.0732659e-05 
1.0026670e-05 -1.1132022e-05 6.4309220e-06 
4.5182395e-07 -7.1534814e-06 -9.0104135e-07 
-4.1038393e-07 1.2389627e-05 8.2910026e-07 
-9.5044459e-07 -7.9701601e-07 8.9057613e-07 
7.2401218e-07 -2.8234701e-06 8.7817051e-07 
-4.8728987e-07 -3.1522222e-06 -1.8273300e-06 
-1.2835170e-06 7.0901538e-06 3.2516220e-07 
-2.3124462e-06 5.0698378e-07 2.8632699e-06 
2.2560262e-06 -9.6589556e-06 -2.7867129e-06 
1.1840570e-05 -5.5243277e-06 -8.8844108e-06 
3.7158989e-05 1.4980381e-05 -2.1546002e-05 
7.5924749e-05 7.4356276e-06 -3.2621942e-05 
1.2169185e-04 1.2519065e-05 -3.8845192e-05 
1.5327544e-04 4.0499657e-05 -2.8630649e-05 
1.7788008e-04 5.3122429e-05 -3.8943102e-09 
1.6106950e-04 2.9616225e-05 1.8878334e-05 
1.2601938e-04 2.7871638e-05 3.4422592e-05 
9.5191259e-05 -1.0744710e-05 4.0426272e-05 
4.7375725e-05 -4.4275371e-06 3.6076512e-05 
1.9588704e-05 -5.8771689e-06 1.4419341e-05 
3.4117802e-06 -2.3284068e-05 2.0824168e-06 
-3.3339459e-06 1.4175455e-06 -3.5312892e-06 
-2.8382844e-06 8.0672598e-06 -2.5015459e-06 
1.3404075e-07 -6.2063611e-07 -1.0968336e-07 
8.2560530e-07 -3.7352922e-06 5.4286340e-07 
-3.5031269e-07 2.0851674e-06 -3.9031889e-07 
-2.8811183e-08 5.9245065e-07 3.9370317e-07 
-1.5784579e-07 -4.3563455e-07 -6.4358723e-08 
2.5464592e-08 8.8373042e-08 -8.5339870e-08 
-5.2296873e-09 9.4373959e-08 5.6719646e-08 
1.6775735e-08 -6.6889015e-08 8.7826113e-10 
7.8110158e-09 -2.0612436e-08 -1.2481204e-08 
1.2561139e-09 3.3991405e-08 8.8713135e-09 
3.9813672e-09 -6.0711209e-09 1.6220681e-09 
2.2172537e-09 1.3166127e-09 -2.8228349e-09 
-1.1055417e-09 -2.1389122e-09 -3.0439509e-09 
1.7131996e-10 9.6955466e-10 7.3851530e-10 
2.5002509e-11 -9.0495644e-10 -9.8011564e-11 
0.0000000e+00 -4.0535404e-05 0.0000000e+00 
0.0000000e+00 -1.0039173e-04 0.0000000e+00 
0.0000000e+00 -1.5230848e-04 0.0000000e+00 
0.0000000e+00 -2.6178249e-04 0.0000000e+00 
0.0000000e+00 -3.8844554e-04 0.0000000e+00 
0.0000000e+00 -5.5760879e-04 0.0000000e+00 
0.0000000e+00 -7.3297165e-04 0.0000000e+00 
0.0000000e+00 -7.5435755e-04 0.0000000e+00 
0.0000000e+00 -6.6255720e-04 0.0000000e+00 
0.0000000e+00 -4.6373846e-04 0.0000000e+00 
0.0000000e+00 -2.2702514e-04 0.0000000e+00 
0.0000000e+00 -1.9408868e-05 0.0000000e+00 
0.0000000e+00 6.8127847e-05 0.0000000e+00 
0.0000000e+00 3.2427793e-05 0.0000000e+00 
0.0000000e+00 -9.9017313e-07 0.0000000e+00 
0.0000000e+00 -1.6213118e-05 0.0000000e+00 
0.0000000e+00 -7.9247193e-06 0.0000000e+00 
0.0000000e+00 1.1522749e-05 0.0000000e+00 
0.0000000e+00 2.1779540e-05 0.0000000e+00 
0.0000000e+00 1.7863855e-06 0.0000000e+00 
0.0000000e+00 -3.7603677e-05 0.0000000e+00 
0.0000000e+00 -8.0286023e-05 0.0000000e+00 
0.0000000e+00 -1.4139323e-04 0.0000000e+00 
0.0000000e+00 -2.5301505e-04 0.0000000e+00 
0.0000000e+00 -3.7703293e-04 0.0000000e+00 
0.0000000e+00 -5.7016104e-04 0.0000000e+00 
0.0000000e+00 -7.2806526e-04 0.0000000e+00 
0.0000000e+00 -7.5865723e-04 0.0000000e+00 
0.0000000e+00 -6.4803805e-04 0.0000000e+00 
0.0000000e+00 -4.0519395e-04 0.0000000e+00 
0.0000000e+00 -1.9882787e-04 0.0000000e+00 
0.0000000e+00 2.5808387e-05 0.0000000e+00 
0.0000000e+00 6.2929379e-05 0.0000000e+00 
0.0000000e+00 3.5605375e-05 0.0000000e+00 
0.0000000e+00 -6.2369429e-07 0.0000000e+00 
0.0000000e+00 -1.5049775e-05 0.0000000e+00 
0.0000000e+00 -6.8060858e-06 0.0000000e+00 
0.0000000e+00 7.7559898e-06 0.0000000e+00 
0.0000000e+00 4.6098930e-06 0.0000000e+00 
0.0000000e+00 -3.1816626e-06 0.0000000e+00 
0.0000000e+00 -2.3568280e-06 0.0000000e+00 
0.0000000e+00 1.0415608e-06 0.0000000e+00 
0.0000000e+00 1.3978462e-06 0.0000000e+00 
0.0000000e+00 -1.0777146e-06 0.0000000e+00 
0.0000000e+00 -1.8585612e-07 0.0000000e+00 
0.0000000e+00 4.3970860e-07 0.0000000e+00 
0.0000000e+00 -3.0250138e-07 0.0000000e+00 
0.0000000e+00 1.1538097e-07 0.0000000e+00 
0.0000000e+00 -1.2026287e-08 0.0000000e+00 
3.2865526e-06 -4.0597088e-06 -5.0880385e-06 
8.6760665e-06 1.2911945e-05 -2.1969194e-05 
9.0653321e-06 2.3336705e-05 -2.5751433e-05 
-3.5531696e-06 1.9844940e-05 -1.3940340e-05 
-4.3266581e-11 -1.2755814e-09 -1.2457366e-10 
-7.0139455e-10 2.7825600e-09 -4.4137335e-10 
3.7516505e-09 -8.0545171e-09 4.9970073e-09 
-2.2214419e-09 7.3844331e-09 -5.0525388e-09 
1.6114547e-05 1.1135264e-06 -2.3077831e-05 
-5.9488919e-10 -8.3352142e-10 -4.1892306e-10 
-1.0726657e-06 4.1792668e-05 2.7762474e-06 
3.0738224e-06 4.7149268e-05 -2.4587107e-05 
0.0000000e+00 -3.6422978e-05 0.0000000e+00 
0.0000000e+00 -1.2201635e-04 0.0000000e+00 
0.0000000e+00 -2.5165058e-04 0.0000000e+00 
0.0000000e+00 -4.9258763e-04 0.0000000e+00 
0.0000000e+00 -8.0087682e-04 0.0000000e+00 
0.0000000e+00 -1.2718237e-03 0.0000000e+00 
0.0000000e+00 -1.5493649e-03 0.0000000e+00 
0.0000000e+00 -1.5011327e-03 0.0000000e+00 
0.0000000e+00 -1.2936383e-03 0.0000000e+00 
0.0000000e+00 -8.8725740e-04 0.0000000e+00 
0.0000000e+00 -3.4640651e-04 0.0000000e+00 
0.0000000e+00 3.0924468e-05 0.0000000e+00 
0.0000000e+00 1.1332187e-04 0.0000000e+00 
0.0000000e+00 4.6348887e-05 0.0000000e+00 