# vtk DataFile Version 4.0
vtk output
ASCII
DATASET UNSTRUCTURED_GRID
POINTS 1919 float
0.0000000e+00 0.0000000e+00 0.0000000e+00 
0.0000000e+00 0.0000000e+00 5.0000000e+01 
5.0000000e+00 0.0000000e+00 0.0000000e+00 
5.0000000e+00 0.0000000e+00 5.0000000e+01 
5.0000000e+00 1.0000000e+00 0.0000000e+00 
5.0000000e+00 1.0000000e+00 5.0000000e+01 
0.0000000e+00 1.0000000e+00 0.0000000e+00 
0.0000000e+00 1.0000000e+00 5.0000000e+01 
5.0000000e+00 2.0000000e+00 0.0000000e+00 
5.0000000e+00 2.0000000e+00 5.0000000e+01 
3.0000000e+00 2.0000000e+00 0.0000000e+00 
3.0000000e+00 2.0000000e+00 5.0000000e+01 
0.0000000e+00 2.0000000e+00 0.0000000e+00 
0.0000000e+00 2.0000000e+00 5.0000000e+01 
1.5000000e+00 3.0000000e+00 0.0000000e+00 
1.5000000e+00 3.0000000e+00 5.0000000e+01 
7.5000000e-01 3.0000000e+00 0.0000000e+00 
7.5000000e-01 3.0000000e+00 5.0000000e+01 
0.0000000e+00 3.0000000e+00 0.0000000e+00 
0.0000000e+00 3.0000000e+00 5.0000000e+01 
7.5000000e-01 3.0000000e+00 5.0000000e-01 
7.5000000e-01 3.0000000e+00 1.0000000e+00 
7.5000000e-01 3.0000000e+00 1.5000000e+00 
7.5000000e-01 3.0000000e+00 2.0000000e+00 
7.5000000e-01 3.0000000e+00 2.5000000e+00 
7.5000000e-01 3.0000000e+00 3.0000000e+00 
7.5000000e-01 3.0000000e+00 3.5000000e+00 
7.5000000e-01 3.0000000e+00 4.0000000e+00 
7.5000000e-01 3.0000000e+00 4.5000000e+00 
7.5000000e-01 3.0000000e+00 5.0000000e+00 
7.5000000e-01 3.0000000e+00 5.5000000e+00 
7.5000000e-01 3.0000000e+00 6.0000000e+00 
7.5000000e-01 3.0000000e+00 6.5000000e+00 
7.5000000e-01 3.0000000e+00 7.0000000e+00 
7.5000000e-01 3.0000000e+00 7.5000000e+00 
7.5000000e-01 3.0000000e+00 8.0000000e+00 
7.5000000e-01 3.0000000e+00 8.5000000e+00 
7.5000000e-01 3.0000000e+00 9.0000000e+00 
7.5000000e-01 3.0000000e+00 9.5000000e+00 
7.5000000e-01 3.0000000e+00 1.0000000e+01 
7.5000000e-01 3.0000000e+00 1.0500000e+01 
7.5000000e-01 3.0000000e+00 1.1000000e+01 
7.5000000e-01 3.0000000e+00 1.1500000e+01 
7.5000000e-01 3.0000000e+00 1.2000000e+01 
7.5000000e-01 3.0000000e+00 1.2500000e+01 
7.5000000e-01 3.0000000e+00 1.3000000e+01 
7.5000000e-01 3.0000000e+00 1.3500000e+01 
7.5000000e-01 3.0000000e+00 1.4000000e+01 
7.5000000e-01 3.0000000e+00 1.4500000e+01 
7.5000000e-01 3.0000000e+00 1.5000000e+01 
7.5000000e-01 3.0000000e+00 1.5500000e+01 
7.5000000e-01 3.0000000e+00 1.6000000e+01 
7.5000000e-01 3.0000000e+00 1.6500000e+01 
7.5000000e-01 3.0000000e+00 1.7000000e+01 
7.5000000e-01 3.0000000e+00 1.7500000e+01 
7.5000000e-01 3.0000000e+00 1.8000000e+01 
7.5000000e-01 3.0000000e+00 1.8500000e+01 
7.5000000e-01 3.0000000e+00 1.9000000e+01 
7.5000000e-01 3.0000000e+00 1.9500000e+01 
7.5000000e-01 3.0000000e+00 2.0000000e+01 
7.5000000e-01 3.0000000e+00 2.0500000e+01 
7.5000000e-01 3.0000000e+00 2.1000000e+01 
7.5000000e-01 3.0000000e+00 2.1500000e+01 
7.5000000e-01 3.0000000e+00 2.2000000e+01 
7.5000000e-01 3.0000000e+00 2.2500000e+01 
7.5000000e-01 3.0000000e+00 2.3000000e+01 
7.5000000e-01 3.0000000e+00 2.3500000e+01 
7.5000000e-01 3.0000000e+00 2.4000000e+01 
7.5000000e-01 3.0000000e+00 2.4500000e+01 
7.5000000e-01 3.0000000e+00 2.5000000e+01 
7.5000000e-01 3.0000000e+00 2.5500000e+01 
7.5000000e-01 3.0000000e+00 2.6000000e+01 
7.5000000e-01 3.0000000e+00 2.6500000e+01 
7.5000000e-01 3.0000000e+00 2.7000000e+01 
7.5000000e-01 3.0000000e+00 2.7500000e+01 
7.5000000e-01 3.0000000e+00 2.8000000e+01 
7.5000000e-01 3.0000000e+00 2.8500000e+01 
7.5000000e-01 3.0000000e+00 2.9000000e+01 
7.5000000e-01 3.0000000e+00 2.9500000e+01 
7.5000000e-01 3.0000000e+00 3.0000000e+01 
7.5000000e-01 3.0000000e+00 3.0500000e+01 
7.5000000e-01 3.0000000e+00 3.1000000e+01 
7.5000000e-01 3.0000000e+00 3.1500000e+01 
7.5000000e-01 3.0000000e+00 3.2000000e+01 
7.5000000e-01 3.0000000e+00 3.2500000e+01 
7.5000000e-01 3.0000000e+00 3.3000000e+01 
7.5000000e-01 3.0000000e+00 3.3500000e+01 
7.5000000e-01 3.0000000e+00 3.4000000e+01 
7.5000000e-01 3.0000000e+00 3.4500000e+01 
7.5000000e-01 3.0000000e+00 3.5000000e+01 
7.5000000e-01 3.0000000e+00 3.5500000e+01 
7.5000000e-01 3.0000000e+00 3.6000000e+01 
7.5000000e-01 3.0000000e+00 3.6500000e+01 
7.5000000e-01 3.0000000e+00 3.7000000e+01 
7.5000000e-01 3.0000000e+00 3.7500000e+01 
7.5000000e-01 3.0000000e+00 3.8000000e+01 
7.5000000e-01 3.0000000e+00 3.8500000e+01 
7.5000000e-01 3.0000000e+00 3.9000000e+01 
7.5000000e-01 3.0000000e+00 3.9500000e+01 
7.5000000e-01 3.0000000e+00 4.0000000e+01 
7.5000000e-01 3.0000000e+00 4.0500000e+01 
7.5000000e-01 3.0000000e+00 4.1000000e+01 
7.5000000e-01 3.0000000e+00 4.1500000e+01 
7.5000000e-01 3.0000000e+00 4.2000000e+01 
7.5000000e-01 3.0000000e+00 4.2500000e+01 
7.5000000e-01 3.0000000e+00 4.3000000e+01 
7.5000000e-01 3.0000000e+00 4.3500000e+01 
7.5000000e-01 3.0000000e+00 4.4000000e+01 
7.5000000e-01 3.0000000e+00 4.4500000e+01 
7.5000000e-01 3.0000000e+00 4.5000000e+01 
7.5000000e-01 3.0000000e+00 4.5500000e+01 
7.5000000e-01 3.0000000e+00 4.6000000e+01 
7.5000000e-01 3.0000000e+00 4.6500000e+01 
7.5000000e-01 3.0000000e+00 4.7000000e+01 
7.5000000e-01 3.0000000e+00 4.7500000e+01 
7.5000000e-01 3.0000000e+00 4.8000000e+01 
7.5000000e-01 3.0000000e+00 4.8500000e+01 
7.5000000e-01 3.0000000e+00 4.9000000e+01 
7.5000000e-01 3.0000000e+00 4.9500000e+01 
7.5000000e-01 3.0250001e+00 0.0000000e+00 
7.5000000e-01 3.0250001e+00 5.0000000e-01 
7.5000000e-01 3.0250001e+00 1.0000000e+00 
7.5000000e-01 3.0250001e+00 1.5000000e+00 
7.5000000e-01 3.0250001e+00 2.0000000e+00 
7.5000000e-01 3.0250001e+00 2.5000000e+00 
7.5000000e-01 3.0250001e+00 3.0000000e+00 
7.5000000e-01 3.0250001e+00 3.5000000e+00 
7.5000000e-01 3.0250001e+00 4.0000000e+00 
7.5000000e-01 3.0250001e+00 4.5000000e+00 
7.5000000e-01 3.0250001e+00 5.0000000e+00 
7.5000000e-01 3.0250001e+00 5.5000000e+00 
7.5000000e-01 3.0250001e+00 6.0000000e+00 
7.5000000e-01 3.0250001e+00 6.5000000e+00 
7.5000000e-01 3.0250001e+00 7.0000000e+00 
7.5000000e-01 3.0250001e+00 7.5000000e+00 
7.5000000e-01 3.0250001e+00 8.0000000e+00 
7.5000000e-01 3.0250001e+00 8.5000000e+00 
7.5000000e-01 3.0250001e+00 9.0000000e+00 
7.5000000e-01 3.0250001e+00 9.5000000e+00 
7.5000000e-01 3.0250001e+00 1.0000000e+01 
7.5000000e-01 3.0250001e+00 1.0500000e+01 
7.5000000e-01 3.0250001e+00 1.1000000e+01 
7.5000000e-01 3.0250001e+00 1.1500000e+01 
7.5000000e-01 3.0250001e+00 1.2000000e+01 
7.5000000e-01 3.0250001e+00 1.2500000e+01 
7.5000000e-01 3.0250001e+00 1.3000000e+01 
7.5000000e-01 3.0250001e+00 1.3500000e+01 
7.5000000e-01 3.0250001e+00 1.4000000e+01 
7.5000000e-01 3.0250001e+00 1.4500000e+01 
7.5000000e-01 3.0250001e+00 1.5000000e+01 
7.5000000e-01 3.0250001e+00 1.5500000e+01 
7.5000000e-01 3.0250001e+00 1.6000000e+01 
7.5000000e-01 3.0250001e+00 1.6500000e+01 
7.5000000e-01 3.0250001e+00 1.7000000e+01 
7.5000000e-01 3.0250001e+00 1.7500000e+01 
7.5000000e-01 3.0250001e+00 1.8000000e+01 
7.5000000e-01 3.0250001e+00 1.8500000e+01 
7.5000000e-01 3.0250001e+00 1.9000000e+01 
7.5000000e-01 3.0250001e+00 1.9500000e+01 
7.5000000e-01 3.0250001e+00 2.0000000e+01 
7.5000000e-01 3.0250001e+00 2.0500000e+01 
7.5000000e-01 3.0250001e+00 2.1000000e+01 
7.5000000e-01 3.0250001e+00 2.1500000e+01 
7.5000000e-01 3.0250001e+00 2.2000000e+01 
7.5000000e-01 3.0250001e+00 2.2500000e+01 
7.5000000e-01 3.0250001e+00 2.3000000e+01 
7.5000000e-01 3.0250001e+00 2.3500000e+01 
7.5000000e-01 3.0250001e+00 2.4000000e+01 
7.5000000e-01 3.0250001e+00 2.4500000e+01 
7.5000000e-01 3.0250001e+00 2.5000000e+01 
7.5000000e-01 3.0250001e+00 2.5500000e+01 
7.5000000e-01 3.0250001e+00 2.6000000e+01 
7.5000000e-01 3.0250001e+00 2.6500000e+01 
7.5000000e-01 3.0250001e+00 2.7000000e+01 
7.5000000e-01 3.0250001e+00 2.7500000e+01 
7.5000000e-01 3.0250001e+00 2.8000000e+01 
7.5000000e-01 3.0250001e+00 2.8500000e+01 
7.5000000e-01 3.0250001e+00 2.9000000e+01 
7.5000000e-01 3.0250001e+00 2.9500000e+01 
7.5000000e-01 3.0250001e+00 3.0000000e+01 
7.5000000e-01 3.0250001e+00 3.0500000e+01 
7.5000000e-01 3.0250001e+00 3.1000000e+01 
7.5000000e-01 3.0250001e+00 3.1500000e+01 
7.5000000e-01 3.0250001e+00 3.2000000e+01 
7.5000000e-01 3.0250001e+00 3.2500000e+01 
7.5000000e-01 3.0250001e+00 3.3000000e+01 
7.5000000e-01 3.0250001e+00 3.3500000e+01 
7.5000000e-01 3.0250001e+00 3.4000000e+01 
7.5000000e-01 3.0250001e+00 3.4500000e+01 
7.5000000e-01 3.0250001e+00 3.5000000e+01 
7.5000000e-01 3.0250001e+00 3.5500000e+01 
7.5000000e-01 3.0250001e+00 3.6000000e+01 
7.5000000e-01 3.0250001e+00 3.6500000e+01 
7.5000000e-01 3.0250001e+00 3.7000000e+01 
7.5000000e-01 3.0250001e+00 3.7500000e+01 
7.5000000e-01 3.0250001e+00 3.8000000e+01 
7.5000000e-01 3.0250001e+00 3.8500000e+01 
7.5000000e-01 3.0250001e+00 3.9000000e+01 
7.5000000e-01 3.0250001e+00 3.9500000e+01 
7.5000000e-01 3.0250001e+00 4.0000000e+01 
7.5000000e-01 3.0250001e+00 4.0500000e+01 
7.5000000e-01 3.0250001e+00 4.1000000e+01 
7.5000000e-01 3.0250001e+00 4.1500000e+01 
7.5000000e-01 3.0250001e+00 4.2000000e+01 
7.5000000e-01 3.0250001e+00 4.2500000e+01 
7.5000000e-01 3.0250001e+00 4.3000000e+01 
7.5000000e-01 3.0250001e+00 4.3500000e+01 
7.5000000e-01 3.0250001e+00 4.4000000e+01 
7.5000000e-01 3.0250001e+00 4.4500000e+01 
7.5000000e-01 3.0250001e+00 4.5000000e+01 
7.5000000e-01 3.0250001e+00 4.5500000e+01 
7.5000000e-01 3.0250001e+00 4.6000000e+01 
7.5000000e-01 3.0250001e+00 4.6500000e+01 
7.5000000e-01 3.0250001e+00 4.7000000e+01 
7.5000000e-01 3.0250001e+00 4.7500000e+01 
7.5000000e-01 3.0250001e+00 4.8000000e+01 
7.5000000e-01 3.0250001e+00 4.8500000e+01 
7.5000000e-01 3.0250001e+00 4.9000000e+01 
7.5000000e-01 3.0250001e+00 4.9500000e+01 
7.5000000e-01 3.0250001e+00 5.0000000e+01 
1.5000000e+00 3.0000000e+00 2.5000000e+01 
3.0000000e+00 2.0000000e+00 2.5000000e+01 
4.0000000e+00 2.0000000e+00 2.5000000e+01 
5.0000000e+00 2.0000000e+00 2.5000000e+01 
0.0000000e+00 3.0000000e+00 2.5000000e+01 
0.0000000e+00 0.0000000e+00 1.0000000e+00 
0.0000000e+00 0.0000000e+00 2.0000000e+00 
0.0000000e+00 0.0000000e+00 3.0000000e+00 
0.0000000e+00 0.0000000e+00 4.0000000e+00 
0.0000000e+00 0.0000000e+00 5.0000000e+00 
[...]
POINT_DATA 1919
FIELD FieldData 3
DISPLACEMENT 3 1919  float
0.0000000e+00 0.0000000e+00 0.0000000e+00 
0.0000000e+00 0.0000000e+00 0.0000000e+00 
0.0000000e+00 0.0000000e+00 0.0000000e+00 
0.0000000e+00 0.0000000e+00 0.0000000e+00 
1.0123964e-06 -6.2186132e-07 -5.0834865e-07 
3.8281485e-07 4.4230717e-07 -7.0109863e-08 
0.0000000e+00 5.8186442e-06 0.0000000e+00 
0.0000000e+00 2.2759648e-06 0.0000000e+00 
2.0643884e-06 -3.3958554e-07 -1.3815047e-06 
4.1610733e-07 1.3384940e-06 -9.9104716e-07 
3.1893412e-06 7.4451555e-07 -9.5351760e-07 
1.1965883e-06 3.2744013e-06 7.2576461e-07 
0.0000000e+00 8.3812565e-06 0.0000000e+00 
0.0000000e+00 3.5427950e-06 0.0000000e+00 
2.3089585e-06 -2.2430713e-06 5.4704842e-06 
1.1995681e-06 1.2551117e-05 -6.3245898e-06 
1.1717418e-06 -1.1061501e-05 -3.5942908e-06 
-1.6245228e-06 4.2128245e-06 -1.0350189e-05 
0.0000000e+00 6.4164819e-06 0.0000000e+00 
0.0000000e+00 -8.6955441e-07 0.0000000e+00 
9.4615581e-07 -9.1213396e-06 6.4445248e-07 
-2.1003416e-06 -4.2990946e-06 1.6215381e-06 
-6.1853348e-06 1.9684328e-06 -1.4897310e-07 
-5.0433582e-06 8.4370959e-06 -3.0738388e-06 
-5.0647336e-06 1.3981078e-05 -6.1803348e-06 
-2.3202631e-06 1.8186176e-05 -3.5151529e-06 
-3.8322974e-06 2.0861091e-05 -2.6483519e-06 
-2.3993944e-06 2.2147884e-05 -5.0291774e-06 
-3.7684551e-06 2.2186827e-05 -8.4183639e-06 
-1.0581717e-06 2.1142871e-05 -1.4021562e-05 
6.3372062e-07 1.9414885e-05 -1.7676233e-05 
4.0932355e-06 1.7227414e-05 -1.7810944e-05 
3.8294579e-06 1.5006544e-05 -1.5347638e-05 
5.9915506e-06 1.3228952e-05 -1.2274231e-05 
1.7842111e-06 1.2085665e-05 -9.8073251e-06 
1.4805402e-06 1.1585361e-05 -9.2014361e-06 
3.7877268e-07 1.1513492e-05 -6.1272362e-06 
1.6320982e-06 1.1632290e-05 -1.1011678e-06 
7.1259245e-07 1.1609257e-05 8.5149350e-06 
2.0314342e-06 1.1832487e-05 2.0123187e-05 
-1.7524468e-06 1.2181028e-05 2.6004416e-05 
-3.3578617e-06 1.3509311e-05 2.7482127e-05 
-2.8743493e-06 1.6273723e-05 2.7153677e-05 
-1.7207200e-06 2.1276983e-05 2.4231380e-05 
-1.1980641e-06 2.9083045e-05 2.3341738e-05 
-3.6669391e-07 3.9930812e-05 2.3095121e-05 
2.2158922e-06 5.3223961e-05 2.5724717e-05 
1.0453823e-06 6.5185712e-05 3.4900873e-05 
-6.1607938e-07 6.6854416e-05 4.6296376e-05 
-6.0905199e-06 3.8487378e-05 5.5634515e-05 
-1.0559817e-05 -5.1083978e-05 8.8079214e-05 
-2.1587784e-05 -2.4842401e-04 9.2250608e-05 
-6.1439372e-05 -6.1111077e-04 1.5346961e-04 
-1.7679039e-04 -1.1964921e-03 2.7612256e-04 
-1.4912174e-04 -2.0278923e-03 2.2221176e-04 
-1.7087943e-04 -3.0625295e-03 1.0774549e-04 
-2.3877861e-04 -4.1267076e-03 1.5181769e-04 
-2.5449970e-04 -4.7427812e-03 2.5341584e-05 
-2.4334188e-04 -4.5864396e-03 -3.8440568e-05 
-2.3692097e-04 -4.2515341e-03 -6.4058324e-05 
-2.1028159e-04 -4.1829851e-03 -7.3214738e-05 
-2.2813446e-04 -4.3033026e-03 -1.6199041e-04 
-2.2953413e-04 -4.1478155e-03 -2.2586714e-04 
-1.2465879e-04 -3.2089478e-03 -2.3156915e-04 
-1.3769258e-04 -2.0224259e-03 -2.5673758e-04 
-5.2454452e-05 -1.0130273e-03 -1.0301228e-04 
-1.5211079e-05 -3.3639962e-04 -1.6165354e-04 
5.6869485e-06 4.0845640e-05 -6.4611835e-05 
1.4296387e-05 1.9460669e-04 -3.1236701e-05 
1.2612479e-05 2.1521532e-04 -5.4238853e-06 
9.7960610e-06 1.7709204e-04 1.5908965e-05 
1.2386346e-05 1.2304555e-04 2.0321688e-05 
5.6045687e-06 7.7229961e-05 2.9177587e-05 
4.6796818e-06 4.5692668e-05 2.5845169e-05 
1.0594736e-06 2.8554216e-05 2.2872844e-05 
1.1446492e-06 2.1017664e-05 1.3459351e-05 
-3.0370470e-06 1.8852170e-05 7.5709272e-06 
-5.6344861e-06 1.8585506e-05 1.8490958e-06 
-5.2642517e-06 1.8533143e-05 -1.4486349e-06 
-5.0100962e-06 1.7883265e-05 -3.0137633e-06 
-5.3782478e-06 1.6597553e-05 -1.5933861e-06 
-4.6610007e-06 1.5289115e-05 -6.5337321e-07 
-1.4369772e-06 1.4886788e-05 1.0877141e-06 
3.6502463e-06 1.7033892e-05 3.1606573e-06 
9.6974227e-06 2.2915958e-05 7.9139800e-06 
9.0734866e-06 3.3008673e-05 1.3902221e-05 
1.0105896e-05 4.5745648e-05 1.9326577e-05 
8.6183045e-06 5.5823173e-05 2.8132854e-05 
6.4510127e-06 5.2506526e-05 4.2402720e-05 
5.7079126e-07 1.4459286e-05 5.5193319e-05 
-1.2273940e-05 -9.1864764e-05 9.3281618e-05 
-2.0460599e-05 -3.1579248e-04 9.1687012e-05 
-5.1462688e-05 -7.1862445e-04 1.5046266e-04 
-8.8835528e-05 -1.3553294e-03 9.8717392e-05 
-1.7320974e-04 -2.2552956e-03 1.8283122e-04 
-4.2572935e-04 -3.3445472e-03 2.9974189e-04 
-2.4634600e-04 -4.3531735e-03 1.3351934e-04 
-2.3644972e-04 -4.7913115e-03 3.4652236e-05 
-2.3758793e-04 -4.5327749e-03 -3.2787713e-05 
-2.3741210e-04 -4.2184764e-03 -5.6401797e-05 
-2.1027199e-04 -4.1974094e-03 -5.9785798e-05 
-2.1674640e-04 -4.3011345e-03 -1.4434847e-04 
-1.9172895e-04 -3.9840345e-03 -2.0724983e-04 
-1.6043076e-04 -2.9400927e-03 -1.5621366e-04 
-8.6179243e-05 -1.7876645e-03 -2.4086724e-04 
-5.3411615e-05 -8.5480139e-04 -1.2751177e-04 
-1.3264622e-06 -2.4833941e-04 -1.2562684e-04 
1.1857676e-05 7.1573741e-05 -4.7927013e-05 
2.2008633e-05 1.8968257e-04 -1.5206055e-05 
1.9289109e-05 1.9134120e-04 8.6525124e-06 
1.1793513e-05 1.4435945e-04 2.5052650e-05 
7.7139621e-06 8.8347180e-05 2.3843124e-05 
2.8779518e-06 4.4109296e-05 2.6409418e-05 
5.2312600e-07 1.6170188e-05 2.0907000e-05 
-2.6710363e-06 2.5577060e-06 1.6855014e-05 
-3.5627879e-06 -1.7057345e-06 1.4195392e-05 
-4.2768911e-06 -1.1005305e-06 7.9255669e-06 
-3.8567255e-06 1.2112849e-06 4.9685891e-06 
-2.1370083e-06 3.3381798e-06 -2.1231542e-06 
0.0000000e+00 -1.1008395e-05 0.0000000e+00 
0.0000000e+00 -9.1181673e-06 0.0000000e+00 
0.0000000e+00 -4.3165742e-06 0.0000000e+00 
0.0000000e+00 1.9585686e-06 0.0000000e+00 
0.0000000e+00 8.4047952e-06 0.0000000e+00 
0.0000000e+00 1.3977869e-05 0.0000000e+00 
0.0000000e+00 1.8182367e-05 0.0000000e+00 
0.0000000e+00 2.0876596e-05 0.0000000e+00 
0.0000000e+00 2.2159185e-05 0.0000000e+00 
0.0000000e+00 2.2191292e-05 0.0000000e+00 
0.0000000e+00 2.1167350e-05 0.0000000e+00 
0.0000000e+00 1.9422776e-05 0.0000000e+00 
0.0000000e+00 1.7240169e-05 0.0000000e+00 
0.0000000e+00 1.5034071e-05 0.0000000e+00 
0.0000000e+00 1.3247203e-05 0.0000000e+00 
0.0000000e+00 1.2105959e-05 0.0000000e+00 
0.0000000e+00 1.1597174e-05 0.0000000e+00 
0.0000000e+00 1.1526373e-05 0.0000000e+00 
0.0000000e+00 1.1605713e-05 0.0000000e+00 
0.0000000e+00 1.1636952e-05 0.0000000e+00 
0.0000000e+00 1.1789451e-05 0.0000000e+00 
0.0000000e+00 1.2204304e-05 0.0000000e+00 
0.0000000e+00 1.3499292e-05 0.0000000e+00 
0.0000000e+00 1.6290523e-05 0.0000000e+00 
0.0000000e+00 2.1297306e-05 0.0000000e+00 
0.0000000e+00 2.9130406e-05 0.0000000e+00 
0.0000000e+00 4.0087936e-05 0.0000000e+00 
0.0000000e+00 5.3489606e-05 0.0000000e+00 
0.0000000e+00 6.5740525e-05 0.0000000e+00 
0.0000000e+00 6.7477886e-05 0.0000000e+00 
0.0000000e+00 3.9340641e-05 0.0000000e+00 
0.0000000e+00 -5.0411512e-05 0.0000000e+00 
0.0000000e+00 -2.4841417e-04 0.0000000e+00 
0.0000000e+00 -6.1283290e-04 0.0000000e+00 
0.0000000e+00 -1.1996955e-03 0.0000000e+00 
0.0000000e+00 -2.0349286e-03 0.0000000e+00 
0.0000000e+00 -3.0786374e-03 0.0000000e+00 
0.0000000e+00 -4.1455887e-03 0.0000000e+00 
0.0000000e+00 -4.7722561e-03 0.0000000e+00 
0.0000000e+00 -4.6094242e-03 0.0000000e+00 
0.0000000e+00 -4.2781034e-03 0.0000000e+00 
0.0000000e+00 -4.2035491e-03 0.0000000e+00 
0.0000000e+00 -4.3315818e-03 0.0000000e+00 
0.0000000e+00 -4.1717230e-03 0.0000000e+00 
0.0000000e+00 -3.2290206e-03 0.0000000e+00 
0.0000000e+00 -2.0361806e-03 0.0000000e+00 
0.0000000e+00 -1.0221910e-03 0.0000000e+00 
0.0000000e+00 -3.3809518e-04 0.0000000e+00 
0.0000000e+00 4.0624309e-05 0.0000000e+00 
0.0000000e+00 1.9564135e-04 0.0000000e+00 
0.0000000e+00 2.1698033e-04 0.0000000e+00 
0.0000000e+00 1.7813098e-04 0.0000000e+00 
0.0000000e+00 1.2395236e-04 0.0000000e+00 
0.0000000e+00 7.7535864e-05 0.0000000e+00 
0.0000000e+00 4.5921613e-05 0.0000000e+00 
0.0000000e+00 2.8533579e-05 0.0000000e+00 
0.0000000e+00 2.0981617e-05 0.0000000e+00 
0.0000000e+00 1.8780702e-05 0.0000000e+00 
0.0000000e+00 1.8559153e-05 0.0000000e+00 
0.0000000e+00 1.8510551e-05 0.0000000e+00 
0.0000000e+00 1.7859640e-05 0.0000000e+00 
0.0000000e+00 1.6589593e-05 0.0000000e+00 
0.0000000e+00 1.5261812e-05 0.0000000e+00 
0.0000000e+00 1.4914121e-05 0.0000000e+00 
0.0000000e+00 1.7067941e-05 0.0000000e+00 
0.0000000e+00 2.3011884e-05 0.0000000e+00 
0.0000000e+00 3.3188895e-05 0.0000000e+00 
0.0000000e+00 4.6025110e-05 0.0000000e+00 
0.0000000e+00 5.6366782e-05 0.0000000e+00 
0.0000000e+00 5.3155960e-05 0.0000000e+00 
0.0000000e+00 1.5329986e-05 0.0000000e+00 
0.0000000e+00 -9.1174603e-05 0.0000000e+00 
0.0000000e+00 -3.1594277e-04 0.0000000e+00 
0.0000000e+00 -7.1982568e-04 0.0000000e+00 
0.0000000e+00 -1.3609169e-03 0.0000000e+00 
0.0000000e+00 -2.2655826e-03 0.0000000e+00 
0.0000000e+00 -3.3567261e-03 0.0000000e+00 
0.0000000e+00 -4.3758098e-03 0.0000000e+00 
0.0000000e+00 -4.8215273e-03 0.0000000e+00 
0.0000000e+00 -4.5554144e-03 0.0000000e+00 
0.0000000e+00 -4.2447271e-03 0.0000000e+00 
0.0000000e+00 -4.2180629e-03 0.0000000e+00 
0.0000000e+00 -4.3295333e-03 0.0000000e+00 
0.0000000e+00 -4.0065837e-03 0.0000000e+00 
0.0000000e+00 -2.9617858e-03 0.0000000e+00 
0.0000000e+00 -1.7989236e-03 0.0000000e+00 
0.0000000e+00 -8.6163590e-04 0.0000000e+00 
0.0000000e+00 -2.5021040e-04 0.0000000e+00 
0.0000000e+00 7.1940245e-05 0.0000000e+00 
0.0000000e+00 1.9080505e-04 0.0000000e+00 
0.0000000e+00 1.9287675e-04 0.0000000e+00 
0.0000000e+00 1.4535793e-04 0.0000000e+00 
0.0000000e+00 8.9144800e-05 0.0000000e+00 
0.0000000e+00 4.4415749e-05 0.0000000e+00 
0.0000000e+00 1.6288670e-05 0.0000000e+00 
0.0000000e+00 2.5205488e-06 0.0000000e+00 
0.0000000e+00 -1.7782177e-06 0.0000000e+00 
0.0000000e+00 -1.1642223e-06 0.0000000e+00 
0.0000000e+00 1.1727846e-06 0.0000000e+00 
0.0000000e+00 3.3182059e-06 0.0000000e+00 
0.0000000e+00 4.1843386e-06 0.0000000e+00 
2.4506591e-05 5.9893311e-05 -1.6348102e-05 
1.6437446e-06 3.5138091e-06 6.0808211e-06 
4.1274711e-06 -1.4832123e-06 9.3392591e-06 
7.7298455e-06 -2.6558462e-06 1.2555486e-05 
0.0000000e+00 7.2290051e-05 0.0000000e+00 
0.0000000e+00 0.0000000e+00 0.0000000e+00 
0.0000000e+00 0.0000000e+00 0.0000000e+00 
0.0000000e+00 0.0000000e+00 0.0000000e+00 
0.0000000e+00 0.0000000e+00 0.0000000e+00 
0.0000000e+00 0.0000000e+00 0.0000000e+00 
0.0000000e+00 0.0000000e+00 0.0000000e+00 
0.0000000e+00 0.0000000e+00 0.0000000e+00 
0.0000000e+00 0.0000000e+00 0.0000000e+00 
0.0000000e+00 0.0000000e+00 0.0000000e+00 
0.0000000e+00 0.0000000e+00 0.0000000e+00 
0.0000000e+00 0.0000000e+00 0.0000000e+00 
0.0000000e+00 0.0000000e+00 0.0000000e+00 
0.0000000e+00 0.0000000e+00 0.0000000e+00 
0.0000000e+00 0.0000000e+00 0.0000000e+00 
0.0000000e+00 0.0000000e+00 0.0000000e+00 
0.0000000e+00 0.0000000e+00 0.0000000e+00 
0.0000000e+00 0.0000000e+00 0.0000000e+00 
0.0000000e+00 0.0000000e+00 0.0000000e+00 
0.0000000e+00 0.0000000e+00 0.0000000e+00 
0.0000000e+00 0.0000000e+00 0.0000000e+00 
0.0000000e+00 0.0000000e+00 0.0000000e+00 
0.0000000e+00 0.0000000e+00 0.0000000e+00 
0.0000000e+00 0.0000000e+00 0.0000000e+00 
0.0000000e+00 0.0000000e+00 0.0000000e+00 
0.0000000e+00 0.0000000e+00 0.0000000e+00 
0.0000000e+00 0.0000000e+00 0.0000000e+00 
0.0000000e+00 0.0000000e+00 0.0000000e+00 
0.0000000e+00 0.0000000e+00 0.0000000e+00 
0.0000000e+00 0.0000000e+00 0.0000000e+00 
0.0000000e+00 0.0000000e+00 0.0000000e+00 
0.0000000e+00 0.0000000e+00 0.0000000e+00 
0.0000000e+00 0.0000000e+00 0.0000000e+00 
0.0000000e+00 0.0000000e+00 0.0000000e+00 
0.0000000e+00 0.0000000e+00 0.0000000e+00 
0.0000000e+00 0.0000000e+00 0.0000000e+00 
0.0000000e+00 0.0000000e+00 0.0000000e+00 
0.0000000e+00 0.0000000e+00 0.0000000e+00 
0.0000000e+00 0.0000000e+00 0.0000000e+00 
0.0000000e+00 0.0000000e+00 0.0000000e+00 
0.0000000e+00 0.0000000e+00 0.0000000e+00 
0.0000000e+00 0.0000000e+00 0.0000000e+00 
0.0000000e+00 0.0000000e+00 0.0000000e+00 
0.0000000e+00 0.0000000e+00 0.0000000e+00 
0.0000000e+00 0.0000000e+00 0.0000000e+00 
0.0000000e+00 0.0000000e+00 0.0000000e+00 
0.0000000e+00 0.0000000e+00 0.0000000e+00 
0.0000000e+00 0.0000000e+00 0.0000000e+00 
0.0000000e+00 0.0000000e+00 0.0000000e+00 
0.0000000e+00 0.0000000e+00 0.0000000e+00 
0.0000000e+00 0.0000000e+00 0.0000000e+00 
0.0000000e+00 0.0000000e+00 0.0000000e+00 
0.0000000e+00 0.0000000e+00 0.0000000e+00 
0.0000000e+00 0.0000000e+00 0.0000000e+00 
0.0000000e+00 0.0000000e+00 0.0000000e+00 
0.0000000e+00 0.0000000e+00 0.0000000e+00 
0.0000000e+00 0.0000000e+00 0.0000000e+00 
0.0000000e+00 0.0000000e+00 0.0000000e+00 
0.0000000e+00 0.0000000e+00 0.0000000e+00 
0.0000000e+00 0.0000000e+00 0.0000000e+00 
0.0000000e+00 0.0000000e+00 0.0000000e+00 
0.0000000e+00 0.0000000e+00 0.0000000e+00 
0.0000000e+00 0.0000000e+00 0.0000000e+00 
0.0000000e+00 0.0000000e+00 0.0000000e+00 
0.0000000e+00 0.0000000e+00 0.0000000e+00 
0.0000000e+00 0.0000000e+00 0.0000000e+00 
0.0000000e+00 0.0000000e+00 0.0000000e+00 
0.0000000e+00 0.0000000e+00 0.0000000e+00 
0.0000000e+00 0.0000000e+00 0.0000000e+00 
0.0000000e+00 0.0000000e+00 0.0000000e+00 
0.0000000e+00 0.0000000e+00 0.0000000e+00 
0.0000000e+00 0.0000000e+00 0.0000000e+00 
0.0000000e+00 0.0000000e+00 0.0000000e+00 
0.0000000e+00 0.0000000e+00 0.0000000e+00 
0.0000000e+00 0.0000000e+00 0.0000000e+00 
0.0000000e+00 0.0000000e+00 0.0000000e+00 
0.0000000e+00 0.0000000e+00 0.0000000e+00 
0.0000000e+00 0.0000000e+00 0.0000000e+00 
0.0000000e+00 0.0000000e+00 0.0000000e+00 
0.0000000e+00 0.0000000e+00 0.0000000e+00 
0.0000000e+00 0.0000000e+00 0.0000000e+00 
0.0000000e+00 0.0000000e+00 0.0000000e+00 
0.0000000e+00 0.0000000e+00 0.0000000e+00 
0.0000000e+00 0.0000000e+00 0.0000000e+00 
0.0000000e+00 0.0000000e+00 0.0000000e+00 
0.0000000e+00 0.0000000e+00 0.0000000e+00 
0.0000000e+00 0.0000000e+00 0.0000000e+00 
0.0000000e+00 0.0000000e+00 0.0000000e+00 
0.0000000e+00 0.0000000e+00 0.0000000e+00 
0.0000000e+00 0.0000000e+00 0.0000000e+00 
0.0000000e+00 0.0000000e+00 0.0000000e+00 
0.0000000e+00 0.0000000e+00 0.0000000e+00 
0.0000000e+00 0.0000000e+00 0.0000000e+00 
0.0000000e+00 0.0000000e+00 0.0000000e+00 
0.0000000e+00 0.0000000e+00 0.0000000e+00 
0.0000000e+00 0.0000000e+00 0.0000000e+00 
0.0000000e+00 0.0000000e+00 0.0000000e+00 
0.0000000e+00 0.0000000e+00 0.0000000e+00 
0.0000000e+00 0.0000000e+00 0.0000000e+00 
0.0000000e+00 0.0000000e+00 0.0000000e+00 
0.0000000e+00 0.0000000e+00 0.0000000e+00 
0.0000000e+00 0.0000000e+00 0.0000000e+00 
0.0000000e+00 0.0000000e+00 0.0000000e+00 
0.0000000e+00 0.0000000e+00 0.0000000e+00 
0.0000000e+00 0.0000000e+00 0.0000000e+00 
0.0000000e+00 0.0000000e+00 0.0000000e+00 
0.0000000e+00 0.0000000e+00 0.0000000e+00 
2.0114981e-06 -4.6691389e-07 -9.6565986e-07 
2.9510279e-06 -4.7446605e-07 -1.9109900e-06 
4.2929050e-06 -1.0078342e-06 -3.0535016e-06 
5.1390571e-06 -1.2232661e-06 -3.2839357e-06 
4.8064471e-06 -1.3042186e-06 -3.4589375e-06 
4.0054733e-06 -1.4889898e-06 -3.5041323e-06 
3.3688425e-06 -1.2437972e-06 -2.9823204e-06 
3.6814229e-06 -1.0106684e-06 -1.8486097e-06 
3.5309808e-06 -1.5466273e-07 -4.0798398e-07 
3.9467145e-06 -2.0330809e-07 8.3610126e-07 
4.2721549e-06 -4.5495761e-07 1.3371044e-06 
5.0003455e-06 -1.4438048e-06 1.1991829e-06 
5.8828050e-06 -1.7316856e-06 -8.1904892e-07 
7.8052635e-06 -3.3964484e-06 -4.2626261e-06 
1.2295631e-05 -5.6468625e-06 -8.1966627e-06 
1.8429064e-05 -7.9041720e-06 -1.1525566e-05 
2.7917795e-05 -1.0097641e-05 -1.4244578e-05 
3.7740163e-05 -1.1425112e-05 -1.3917068e-05 
4.5501478e-05 -1.4021090e-05 -7.3835899e-06 
4.6791607e-05 -1.5040258e-05 4.7413675e-07 
4.3835844e-05 -1.2723182e-05 4.8569696e-06 
3.2352873e-05 -7.3318579e-06 1.2238203e-05 
1.9510597e-05 -4.8175743e-06 1.3249464e-05 
1.1152616e-05 -3.5556329e-06 1.1790402e-05 
6.8842878e-06 -2.2760378e-06 9.9140234e-06 
4.2770102e-06 -2.3236064e-06 6.6167959e-06 
4.8359675e-06 -2.8254904e-06 4.2503202e-06 
5.4435859e-06 -3.2605440e-06 3.1366255e-06 
4.9895052e-06 -2.6811977e-06 1.9935685e-06 
4.9349737e-06 -1.2786184e-06 3.8238218e-07 
4.9071682e-06 -5.7481333e-07 -1.4530564e-06 
5.4137922e-06 -2.9095020e-07 -2.8462589e-06 
5.9029971e-06 -4.9519309e-07 -4.6749115e-06 
7.8926605e-06 -1.3092405e-06 -7.2527300e-06 
1.2894414e-05 -4.6999776e-06 -1.0342855e-05 
2.1259391e-05 -8.4467192e-06 -1.2827561e-05 
3.1278858e-05 -1.1756241e-05 -1.4117214e-05 
3.9200124e-05 -1.3671074e-05 -1.0365525e-05 
4.3185755e-05 -1.4518582e-05 -6.0312700e-06 
4.2282776e-05 -1.4348151e-05 1.5610569e-06 
3.6936151e-05 -1.1883801e-05 7.9962929e-06 
2.7089021e-05 -7.5996559e-06 1.3099024e-05 
1.6826787e-05 -4.7071071e-06 1.4053877e-05 
7.6224965e-06 -1.8473154e-06 1.2450388e-05 
2.9355765e-06 -1.1162691e-06 9.9535891e-06 
1.4321391e-06 -5.3678031e-07 7.4074801e-06 
6.9579295e-07 -8.7982079e-07 5.8524606e-06 
9.4336758e-07 -8.4489244e-07 3.4145939e-06 
9.3973819e-07 -6.7518101e-07 1.5394320e-06 
0.0000000e+00 3.4820503e-06 0.0000000e+00 
0.0000000e+00 6.6298657e-07 0.0000000e+00 
0.0000000e+00 -4.7416970e-06 0.0000000e+00 
0.0000000e+00 -1.1352051e-05 0.0000000e+00 
0.0000000e+00 -1.4117531e-05 0.0000000e+00 
0.0000000e+00 -1.4912992e-05 0.0000000e+00 
0.0000000e+00 -1.1258531e-05 0.0000000e+00 
0.0000000e+00 -5.1426987e-06 0.0000000e+00 
0.0000000e+00 5.4801552e-07 0.0000000e+00 
0.0000000e+00 1.9630911e-06 0.0000000e+00 
0.0000000e+00 8.7786719e-07 0.0000000e+00 
0.0000000e+00 3.0426984e-06 0.0000000e+00 
0.0000000e+00 9.5682444e-06 0.0000000e+00 
0.0000000e+00 1.4919217e-05 0.0000000e+00 
0.0000000e+00 2.1602846e-06 0.0000000e+00 
0.0000000e+00 -5.1279945e-05 0.0000000e+00 
0.0000000e+00 -2.1239127e-04 0.0000000e+00 
0.0000000e+00 -3.8419891e-04 0.0000000e+00 
0.0000000e+00 -4.9336295e-04 0.0000000e+00 
0.0000000e+00 -5.2303838e-04 0.0000000e+00 
0.0000000e+00 -4.5776629e-04 0.0000000e+00 
0.0000000e+00 -3.2719850e-04 0.0000000e+00 
0.0000000e+00 -1.5143756e-04 0.0000000e+00 
0.0000000e+00 -3.3820630e-05 0.0000000e+00 
0.0000000e+00 -3.3814010e-06 0.0000000e+00 
0.0000000e+00 -1.0751236e-05 0.0000000e+00 
0.0000000e+00 -1.8508455e-05 0.0000000e+00 
0.0000000e+00 -1.9637271e-05 0.0000000e+00 
0.0000000e+00 -1.3409016e-05 0.0000000e+00 
0.0000000e+00 -5.4004677e-06 0.0000000e+00 
0.0000000e+00 2.8274576e-06 0.0000000e+00 
0.0000000e+00 9.8891360e-06 0.0000000e+00 
0.0000000e+00 1.3614764e-05 0.0000000e+00 
0.0000000e+00 1.5037423e-05 0.0000000e+00 
0.0000000e+00 -5.9525260e-06 0.0000000e+00 
0.0000000e+00 -8.2094062e-05 0.0000000e+00 
0.0000000e+00 -2.0174021e-04 0.0000000e+00 
0.0000000e+00 -3.7382217e-04 0.0000000e+00 
0.0000000e+00 -5.1591860e-04 0.0000000e+00 
0.0000000e+00 -5.0487288e-04 0.0000000e+00 
0.0000000e+00 -4.5240676e-04 0.0000000e+00 
0.0000000e+00 -2.8668612e-04 0.0000000e+00 
0.0000000e+00 -1.1747178e-04 0.0000000e+00 
0.0000000e+00 -1.0034631e-05 0.0000000e+00 
0.0000000e+00 1.3386016e-05 0.0000000e+00 
0.0000000e+00 4.7481867e-06 0.0000000e+00 
0.0000000e+00 -2.6462712e-06 0.0000000e+00 
0.0000000e+00 -2.7391238e-06 0.0000000e+00 
0.0000000e+00 1.2379494e-08 0.0000000e+00 
1.7341994e-06 1.2285426e-07 -5.2082447e-07 
1.5720154e-06 4.2634025e-07 -5.1870904e-07 
3.2923072e-07 1.0693320e-06 -4.7507433e-07 
-3.9739328e-07 3.4414140e-06 -3.2520472e-07 
6.1335112e-07 2.2792909e-07 1.0262983e-06 
1.8861400e-07 1.0931866e-06 1.9169756e-06 
-6.1085564e-07 1.9276347e-06 1.4741446e-06 
-5.5793879e-07 2.2327256e-06 6.8786329e-07 
2.9504363e-06 4.1756749e-07 -1.3317789e-06 
1.2930584e-06 1.1275816e-06 6.3593967e-07 
1.5573886e-06 2.0180644e-06 -1.4681658e-06 
3.1364370e-06 6.2316161e-07 -1.2471546e-06 
0.0000000e+00 4.6698447e-06 0.0000000e+00 
0.0000000e+00 2.6672358e-06 0.0000000e+00 
0.0000000e+00 -2.9775820e-06 0.0000000e+00 
0.0000000e+00 -1.3628071e-05 0.0000000e+00 
0.0000000e+00 -1.9380208e-05 0.0000000e+00 
0.0000000e+00 -2.0616104e-05 0.0000000e+00 
0.0000000e+00 -1.6743328e-05 0.0000000e+00 
0.0000000e+00 -7.9547162e-06 0.0000000e+00 
0.0000000e+00 1.5498284e-06 0.0000000e+00 
0.0000000e+00 4.8038987e-06 0.0000000e+00 
0.0000000e+00 3.7500165e-06 0.0000000e+00 
0.0000000e+00 8.1415255e-06 0.0000000e+00 
0.0000000e+00 1.8611914e-05 0.0000000e+00 
0.0000000e+00 2.6447324e-05 0.0000000e+00 
0.0000000e+00 -1.4083902e-06 0.0000000e+00 