# vtk DataFile Version 4.0
vtk output
ASCII
DATASET UNSTRUCTURED_GRID
POINTS 1919 float
0.0000000e+00 0.0000000e+00 0.0000000e+00 
0.0000000e+00 0.0000000e+00 5.0000000e+01 
5.0000000e+00 0.0000000e+00 0.0000000e+00 
5.0000000e+00 0.0000000e+00 5.0000000e+01 
5.0000000e+00 1.0000000e+00 0.0000000e+00 
5.0000000e+00 1.0000000e+00 5.0000000e+01 
0.0000000e+00 1.0000000e+00 0.0000000e+00 
0.0000000e+00 1.0000000e+00 5.0000000e+01 
5.0000000e+00 2.0000000e+00 0.0000000e+00 
5.0000000e+00 2.0000000e+00 5.0000000e+01 
3.0000000e+00 2.0000000e+00 0.0000000e+00 
3.0000000e+00 2.0000000e+00 5.0000000e+01 
0.0000000e+00 2.0000000e+00 0.0000000e+00 
0.0000000e+00 2.0000000e+00 5.0000000e+01 
1.5000000e+00 3.0000000e+00 0.0000000e+00 
1.5000000e+00 3.0000000e+00 5.0000000e+01 
7.5000000e-01 3.0000000e+00 0.0000000e+00 
7.5000000e-01 3.0000000e+00 5.0000000e+01 
0.0000000e+00 3.0000000e+00 0.0000000e+00 
0.0000000e+00 3.0000000e+00 5.0000000e+01 
7.5000000e-01 3.0000000e+00 5.0000000e-01 
7.5000000e-01 3.0000000e+00 1.0000000e+00 
7.5000000e-01 3.0000000e+00 1.5000000e+00 
7.5000000e-01 3.0000000e+00 2.0000000e+00 
7.5000000e-01 3.0000000e+00 2.5000000e+00 
7.5000000e-01 3.0000000e+00 3.0000000e+00 
7.5000000e-01 3.0000000e+00 3.5000000e+00 
7.5000000e-01 3.0000000e+00 4.0000000e+00 
7.5000000e-01 3.0000000e+00 4.5000000e+00 
7.5000000e-01 3.0000000e+00 5.0000000e+00 
7.5000000e-01 3.0000000e+00 5.5000000e+00 
7.5000000e-01 3.0000000e+00 6.0000000e+00 
7.5000000e-01 3.0000000e+00 6.5000000e+00 
7.5000000e-01 3.0000000e+00 7.0000000e+00 
7.5000000e-01 3.0000000e+00 7.5000000e+00 
7.5000000e-01 3.0000000e+00 8.0000000e+00 
7.5000000e-01 3.0000000e+00 8.5000000e+00 
7.5000000e-01 3.0000000e+00 9.0000000e+00 
7.5000000e-01 3.0000000e+00 9.5000000e+00 
7.5000000e-01 3.0000000e+00 1.0000000e+01 
7.5000000e-01 3.0000000e+00 1.0500000e+01 
7.5000000e-01 3.0000000e+00 1.1000000e+01 
7.5000000e-01 3.0000000e+00 1.1500000e+01 
7.5000000e-01 3.0000000e+00 1.2000000e+01 
7.5000000e-01 3.0000000e+00 1.2500000e+01 
7.5000000e-01 3.0000000e+00 1.3000000e+01 
7.5000000e-01 3.0000000e+00 1.3500000e+01 
7.5000000e-01 3.0000000e+00 1.4000000e+01 
7.5000000e-01 3.0000000e+00 1.4500000e+01 
7.5000000e-01 3.0000000e+00 1.5000000e+01 
7.5000000e-01 3.0000000e+00 1.5500000e+01 
7.5000000e-01 3.0000000e+00 1.6000000e+01 
7.5000000e-01 3.0000000e+00 1.6500000e+01 
7.5000000e-01 3.0000000e+00 1.7000000e+01 
7.5000000e-01 3.0000000e+00 1.7500000e+01 
7.5000000e-01 3.0000000e+00 1.8000000e+01 
7.5000000e-01 3.0000000e+00 1.8500000e+01 
7.5000000e-01 3.0000000e+00 1.9000000e+01 
7.5000000e-01 3.0000000e+00 1.9500000e+01 
7.5000000e-01 3.0000000e+00 2.0000000e+01 
7.5000000e-01 3.0000000e+00 2.0500000e+01 
7.5000000e-01 3.0000000e+00 2.1000000e+01 
7.5000000e-01 3.0000000e+00 2.1500000e+01 
7.5000000e-01 3.0000000e+00 2.2000000e+01 
7.5000000e-01 3.0000000e+00 2.2500000e+01 
7.5000000e-01 3.0000000e+00 2.3000000e+01 
7.5000000e-01 3.0000000e+00 2.3500000e+01 
7.5000000e-01 3.0000000e+00 2.4000000e+01 
7.5000000e-01 3.0000000e+00 2.4500000e+01 
7.5000000e-01 3.0000000e+00 2.5000000e+01 
7.5000000e-01 3.0000000e+00 2.5500000e+01 
7.5000000e-01 3.0000000e+00 2.6000000e+01 
7.5000000e-01 3.0000000e+00 2.6500000e+01 
7.5000000e-01 3.0000000e+00 2.7000000e+01 
7.5000000e-01 3.0000000e+00 2.7500000e+01 
7.5000000e-01 3.0000000e+00 2.8000000e+01 
7.5000000e-01 3.0000000e+00 2.8500000e+01 
7.5000000e-01 3.0000000e+00 2.9000000e+01 
7.5000000e-01 3.0000000e+00 2.9500000e+01 
7.5000000e-01 3.0000000e+00 3.0000000e+01 
7.5000000e-01 3.0000000e+00 3.0500000e+01 
7.5000000e-01 3.0000000e+00 3.1000000e+01 
7.5000000e-01 3.0000000e+00 3.1500000e+01 
7.5000000e-01 3.0000000e+00 3.2000000e+01 
7.5000000e-01 3.0000000e+00 3.2500000e+01 
7.5000000e-01 3.0000000e+00 3.3000000e+01 
7.5000000e-01 3.0000000e+00 3.3500000e+01 
7.5000000e-01 3.0000000e+00 3.4000000e+01 
7.5000000e-01 3.0000000e+00 3.4500000e+01 
7.5000000e-01 3.0000000e+00 3.5000000e+01 
7.5000000e-01 3.0000000e+00 3.5500000e+01 
7.5000000e-01 3.0000000e+00 3.6000000e+01 
7.5000000e-01 3.0000000e+00 3.6500000e+01 
7.5000000e-01 3.0000000e+00 3.7000000e+01 
7.5000000e-01 3.0000000e+00 3.7500000e+01 
7.5000000e-01 3.0000000e+00 3.8000000e+01 
7.5000000e-01 3.0000000e+00 3.8500000e+01 
7.5000000e-01 3.0000000e+00 3.9000000e+01 
7.5000000e-01 3.0000000e+00 3.9500000e+01 
7.5000000e-01 3.0000000e+00 4.0000000e+01 
7.5000000e-01 3.0000000e+00 4.0500000e+01 
7.5000000e-01 3.0000000e+00 4.1000000e+01 
7.5000000e-01 3.0000000e+00 4.1500000e+01 
7.5000000e-01 3.0000000e+00 4.2000000e+01 
7.5000000e-01 3.0000000e+00 4.2500000e+01 
7.5000000e-01 3.0000000e+00 4.3000000e+01 
7.5000000e-01 3.0000000e+00 4.3500000e+01 
7.5000000e-01 3.0000000e+00 4.4000000e+01 
7.5000000e-01 3.0000000e+00 4.4500000e+01 
7.5000000e-01 3.0000000e+00 4.5000000e+01 
7.5000000e-01 3.0000000e+00 4.5500000e+01 
7.5000000e-01 3.0000000e+00 4.6000000e+01 
7.5000000e-01 3.0000000e+00 4.6500000e+01 
7.5000000e-01 3.0000000e+00 4.7000000e+01 
7.5000000e-01 3.0000000e+00 4.7500000e+01 
7.5000000e-01 3.0000000e+00 4.8000000e+01 
7.5000000e-01 3.0000000e+00 4.8500000e+01 
7.5000000e-01 3.0000000e+00 4.9000000e+01 
7.5000000e-01 3.0000000e+00 4.9500000e+01 
7.5000000e-01 3.0250001e+00 0.0000000e+00 
7.5000000e-01 3.0250001e+00 5.0000000e-01 
7.5000000e-01 3.0250001e+00 1.0000000e+00 
7.5000000e-01 3.0250001e+00 1.5000000e+00 
7.5000000e-01 3.0250001e+00 2.0000000e+00 
7.5000000e-01 3.0250001e+00 2.5000000e+00 
7.5000000e-01 3.0250001e+00 3.0000000e+00 
7.5000000e-01 3.0250001e+00 3.5000000e+00 
7.5000000e-01 3.0250001e+00 4.0000000e+00 
7.5000000e-01 3.0250001e+00 4.5000000e+00 
7.5000000e-01 3.0250001e+00 5.0000000e+00 
7.5000000e-01 3.0250001e+00 5.5000000e+00 
7.5000000e-01 3.0250001e+00 6.0000000e+00 
7.5000000e-01 3.0250001e+00 6.5000000e+00 
7.5000000e-01 3.0250001e+00 7.0000000e+00 
7.5000000e-01 3.0250001e+00 7.5000000e+00 
7.5000000e-01 3.0250001e+00 8.0000000e+00 
7.5000000e-01 3.0250001e+00 8.5000000e+00 
7.5000000e-01 3.0250001e+00 9.0000000e+00 
7.5000000e-01 3.0250001e+00 9.5000000e+00 
7.5000000e-01 3.0250001e+00 1.0000000e+01 
7.5000000e-01 3.0250001e+00 1.0500000e+01 
7.5000000e-01 3.0250001e+00 1.1000000e+01 
7.5000000e-01 3.0250001e+00 1.1500000e+01 
7.5000000e-01 3.0250001e+00 1.2000000e+01 
7.5000000e-01 3.0250001e+00 1.2500000e+01 
7.5000000e-01 3.0250001e+00 1.3000000e+01 
7.5000000e-01 3.0250001e+00 1.3500000e+01 
7.5000000e-01 3.0250001e+00 1.4000000e+01 
7.5000000e-01 3.0250001e+00 1.4500000e+01 
7.5000000e-01 3.0250001e+00 1.5000000e+01 
7.5000000e-01 3.0250001e+00 1.5500000e+01 
7.5000000e-01 3.0250001e+00 1.6000000e+01 
7.5000000e-01 3.0250001e+00 1.6500000e+01 
7.5000000e-01 3.0250001e+00 1.7000000e+01 
7.5000000e-01 3.0250001e+00 1.7500000e+01 
7.5000000e-01 3.0250001e+00 1.8000000e+01 
7.5000000e-01 3.0250001e+00 1.8500000e+01 
7.5000000e-01 3.0250001e+00 1.9000000e+01 
7.5000000e-01 3.0250001e+00 1.9500000e+01 
7.5000000e-01 3.0250001e+00 2.0000000e+01 
7.5000000e-01 3.0250001e+00 2.0500000e+01 
7.5000000e-01 3.0250001e+00 2.1000000e+01 
7.5000000e-01 3.0250001e+00 2.1500000e+01 
7.5000000e-01 3.0250001e+00 2.2000000e+01 
7.5000000e-01 3.0250001e+00 2.2500000e+01 
7.5000000e-01 3.0250001e+00 2.3000000e+01 
7.5000000e-01 3.0250001e+00 2.3500000e+01 
7.5000000e-01 3.0250001e+00 2.4000000e+01 
7.5000000e-01 3.0250001e+00 2.4500000e+01 
7.5000000e-01 3.0250001e+00 2.5000000e+01 
7.5000000e-01 3.0250001e+00 2.5500000e+01 
7.5000000e-01 3.0250001e+00 2.6000000e+01 
7.5000000e-01 3.0250001e+00 2.6500000e+01 
7.5000000e-01 3.0250001e+00 2.7000000e+01 
7.5000000e-01 3.0250001e+00 2.7500000e+01 
7.5000000e-01 3.0250001e+00 2.8000000e+01 
7.5000000e-01 3.0250001e+00 2.8500000e+01 
7.5000000e-01 3.0250001e+00 2.9000000e+01 
7.5000000e-01 3.0250001e+00 2.9500000e+01 
7.5000000e-01 3.0250001e+00 3.0000000e+01 
7.5000000e-01 3.0250001e+00 3.0500000e+01 
7.5000000e-01 3.0250001e+00 3.1000000e+01 
7.5000000e-01 3.0250001e+00 3.1500000e+01 
7.5000000e-01 3.0250001e+00 3.2000000e+01 
7.5000000e-01 3.0250001e+00 3.2500000e+01 
7.5000000e-01 3.0250001e+00 3.3000000e+01 
7.5000000e-01 3.0250001e+00 3.3500000e+01 
7.5000000e-01 3.0250001e+00 3.4000000e+01 
7.5000000e-01 3.0250001e+00 3.4500000e+01 
7.5000000e-01 3.0250001e+00 3.5000000e+01 
7.5000000e-01 3.0250001e+00 3.5500000e+01 
7.5000000e-01 3.0250001e+00 3.6000000e+01 
7.5000000e-01 3.0250001e+00 3.6500000e+01 
7.5000000e-01 3.0250001e+00 3.7000000e+01 
7.5000000e-01 3.0250001e+00 3.7500000e+01 
7.5000000e-01 3.0250001e+00 3.8000000e+01 
7.5000000e-01 3.0250001e+00 3.8500000e+01 
7.5000000e-01 3.0250001e+00 3.9000000e+01 
7.5000000e-01 3.0250001e+00 3.9500000e+01 
7.5000000e-01 3.0250001e+00 4.0000000e+01 
7.5000000e-01 3.0250001e+00 4.0500000e+01 
7.5000000e-01 3.0250001e+00 4.1000000e+01 
7.5000000e-01 3.0250001e+00 4.1500000e+01 
7.5000000e-01 3.0250001e+00 4.2000000e+01 
7.5000000e-01 3.0250001e+00 4.2500000e+01 
7.5000000e-01 3.0250001e+00 4.3000000e+01 
7.5000000e-01 3.0250001e+00 4.3500000e+01 
7.5000000e-01 3.0250001e+00 4.4000000e+01 
7.5000000e-01 3.0250001e+00 4.4500000e+01 
7.5000000e-01 3.0250001e+00 4.5000000e+01 
7.5000000e-01 3.0250001e+00 4.5500000e+01 
7.5000000e-01 3.0250001e+00 4.6000000e+01 
7.5000000e-01 3.0250001e+00 4.6500000e+01 
7.5000000e-01 3.0250001e+00 4.7000000e+01 
7.5000000e-01 3.0250001e+00 4.7500000e+01 
7.5000000e-01 3.0250001e+00 4.8000000e+01 
7.5000000e-01 3.0250001e+00 4.8500000e+01 
7.5000000e-01 3.0250001e+00 4.9000000e+01 
7.5000000e-01 3.0250001e+00 4.9500000e+01 
7.5000000e-01 3.0250001e+00 5.0000000e+01 
1.5000000e+00 3.0000000e+00 2.5000000e+01 
3.0000000e+00 2.0000000e+00 2.5000000e+01 
4.0000000e+00 2.0000000e+00 2.5000000e+01 
5.0000000e+00 2.0000000e+00 2.5000000e+01 
0.0000000e+00 3.0000000e+00 2.5000000e+01 
0.0000000e+00 0.0000000e+00 1.0000000e+00 
0.0000000e+00 0.0000000e+00 2.0000000e+00 
0.0000000e+00 0.0000000e+00 3.0000000e+00 
0.0000000e+00 0.0000000e+00 4.0000000e+00 
0.0000000e+00 0.0000000e+00 5.0000000e+00 
[...]
POINT_DATA 1919
FIELD FieldData 3
DISPLACEMENT 3 1919  float
0.0000000e+00 0.0000000e+00 0.0000000e+00 
0.0000000e+00 0.0000000e+00 0.0000000e+00 
0.0000000e+00 0.0000000e+00 0.0000000e+00 
0.0000000e+00 0.0000000e+00 0.0000000e+00 
-1.5571780e-07 5.7444299e-07 2.3979368e-07 
-7.6347021e-07 -3.0776360e-07 2.0076968e-07 
0.0000000e+00 -9.2416133e-07 0.0000000e+00 
0.0000000e+00 -1.2091436e-06 0.0000000e+00 
-8.4275666e-07 7.5618186e-07 1.5420855e-07 
-6.3796728e-07 -9.8544956e-07 1.5091146e-06 
-3.9617703e-07 -6.8644960e-07 1.0559376e-06 
-8.3429188e-07 8.5943401e-07 -2.7033636e-06 
0.0000000e+00 -3.2125888e-06 0.0000000e+00 
0.0000000e+00 -6.3526013e-06 0.0000000e+00 
1.1817066e-06 -5.3076596e-06 -7.2904290e-06 
1.6256273e-06 -9.2726341e-06 7.3804808e-06 
3.8581074e-06 2.0441478e-06 -1.4904432e-06 
3.6347640e-06 -1.5132515e-05 4.2735901e-06 
0.0000000e+00 -5.4928119e-06 0.0000000e+00 
0.0000000e+00 -2.3465382e-05 0.0000000e+00 
3.1784746e-06 2.8374725e-06 -1.9200543e-07 
5.2425712e-06 5.0855369e-06 2.4896940e-06 
8.2641573e-06 8.2821643e-06 6.7840347e-06 
1.0325078e-05 1.2020651e-05 1.1228191e-05 
8.7083381e-06 1.5572134e-05 1.3139510e-05 
9.4643565e-06 1.8356699e-05 1.2418837e-05 
8.0718610e-06 2.0074091e-05 1.1484653e-05 
8.9671603e-06 2.0410958e-05 8.3941477e-06 
8.2234128e-06 1.9494366e-05 8.0799909e-06 
8.4638568e-06 1.7439084e-05 7.3378451e-06 
7.0087299e-06 1.4757115e-05 8.6892269e-06 
6.9910043e-06 1.1792999e-05 6.2076456e-06 
3.3325286e-06 9.1884240e-06 1.7222825e-06 
5.0687004e-06 7.3431834e-06 -5.5366236e-06 
6.3344746e-06 6.7937976e-06 -1.1489890e-05 
1.0279451e-05 7.0747310e-06 -1.3556647e-05 
1.1744180e-05 7.8466028e-06 -1.2955708e-05 
1.2408220e-05 8.3220912e-06 -9.9359595e-06 
1.0872276e-05 8.2736669e-06 -8.9640553e-06 
1.2358932e-05 7.7366867e-06 -8.1663566e-06 
1.1692089e-05 6.8254867e-06 -1.0229292e-05 
1.3113217e-05 5.6341332e-06 -1.1838928e-05 
1.3343347e-05 4.3624173e-06 -1.2599010e-05 
1.2724835e-05 3.3429224e-06 -9.9869076e-06 
9.8216124e-06 3.3568842e-06 -7.8014682e-06 
4.2260313e-06 5.2201312e-06 -6.1949040e-06 
-9.7497264e-07 9.8160353e-06 -9.2083346e-06 
-7.4851943e-07 1.7818995e-05 -1.0720522e-05 
1.4747530e-06 2.9832252e-05 -1.2650022e-05 
-9.0843264e-07 4.6083933e-05 -6.1912851e-06 
-2.4339347e-06 6.5773027e-05 1.4614379e-06 
-2.6294115e-06 8.4394873e-05 1.5647720e-05 
-2.3110636e-06 9.1390575e-05 2.9607450e-05 
-6.8007839e-06 6.4900472e-05 5.7438745e-05 
-1.7677794e-05 -3.0746556e-05 9.1776834e-05 
-2.6916228e-05 -2.4016059e-04 1.0473642e-04 
-5.3716067e-05 -6.2348222e-04 1.9660179e-04 
-7.3066520e-05 -1.2374204e-03 1.6473752e-04 
-1.2387913e-04 -2.1246991e-03 2.7899662e-04 
-1.5488116e-04 -3.2333930e-03 1.3746425e-04 
-2.1978581e-04 -4.3810783e-03 2.2307725e-04 
-2.7321692e-04 -5.0552990e-03 6.2356979e-05 
-2.9568016e-04 -4.9063698e-03 1.2527566e-05 
-2.3813928e-04 -4.5619900e-03 6.4825376e-06 
-3.4189486e-04 -4.4723796e-03 1.0194703e-05 
-2.2657435e-04 -4.5861434e-03 -5.9263621e-05 
-2.2401108e-04 -4.4414536e-03 -1.9115029e-04 
-1.0094528e-04 -3.4424243e-03 -1.6293004e-04 
-9.5173891e-05 -2.1907662e-03 -2.1865523e-04 
-3.8249360e-05 -1.1126980e-03 -1.3589019e-04 
-1.2320121e-05 -3.7775954e-04 -1.4765536e-04 
5.3363256e-06 3.6291349e-05 -6.9540329e-05 
1.4868202e-05 2.1134152e-04 -5.4155873e-05 
1.7933307e-05 2.4028092e-04 -2.8368877e-05 
1.6530532e-05 2.0013907e-04 -1.2938449e-05 
1.5091081e-05 1.3798513e-04 -1.4452501e-05 
1.2704871e-05 8.1978433e-05 -7.5917137e-06 
9.4559518e-06 4.0316747e-05 -1.0065691e-05 
5.1238312e-06 1.4293229e-05 -9.1055526e-06 
4.0954765e-06 5.9875617e-07 -1.2830442e-05 
4.6235969e-06 -4.2808106e-06 -1.5799620e-05 
7.5564062e-06 -3.8967710e-06 -1.6825230e-05 
8.2135575e-06 -9.8669955e-07 -1.5482774e-05 
1.0120601e-05 2.7264041e-06 -1.1067804e-05 
8.8893621e-06 6.7638380e-06 -8.0618838e-06 
9.0921840e-06 1.1846310e-05 -6.0397147e-06 
8.2553515e-06 1.9145349e-05 -6.6886851e-06 
3.6192389e-06 2.9651774e-05 -4.2874608e-06 
-6.9400534e-07 4.4254404e-05 -5.0434405e-06 
4.7769890e-07 6.2363099e-05 -1.8361822e-06 
5.7633446e-07 8.2347695e-05 3.3019196e-06 
-4.9448322e-06 9.8456934e-05 1.6532895e-05 
-9.4772204e-06 9.9171462e-05 3.1358672e-05 
-7.9670881e-06 6.1056111e-05 4.8496662e-05 
-2.1864014e-05 -5.2142314e-05 8.5702537e-05 
-6.4095446e-05 -2.9327397e-04 1.6799998e-04 
-6.6535795e-05 -7.2307122e-04 1.9898805e-04 
-8.6042201e-05 -1.3932702e-03 1.6442573e-04 
-1.3589156e-04 -2.3353002e-03 2.8073348e-04 
-1.6429326e-04 -3.4687126e-03 1.3269813e-04 
-2.3751099e-04 -4.5660269e-03 2.1134858e-04 
-2.6143141e-04 -5.0517889e-03 6.8416797e-05 
-2.4460634e-04 -4.7931527e-03 1.5757738e-05 
-2.3806009e-04 -4.4666673e-03 -9.2537657e-06 
-2.0619111e-04 -4.4441042e-03 -1.1675994e-05 
-2.2416688e-04 -4.5512402e-03 -1.0593910e-04 
-2.0641790e-04 -4.2166794e-03 -1.8530186e-04 
-1.6904625e-04 -3.1175020e-03 -1.3822426e-04 
-1.0038664e-04 -1.8992848e-03 -2.3740510e-04 
-7.1800489e-05 -9.0772094e-04 -1.2598034e-04 
-2.2341035e-05 -2.5684808e-04 -1.4330442e-04 
-9.0683588e-06 9.1729111e-05 -7.2660849e-05 
4.2321167e-06 2.2499885e-04 -5.2353153e-05 
5.7027046e-06 2.3137391e-04 -2.9876868e-05 
6.4227811e-06 1.8167227e-04 -1.2478377e-05 
2.1709620e-06 1.1750074e-04 -1.1314160e-05 
2.2646100e-06 6.0394814e-05 -5.2260890e-07 
9.8581677e-07 1.8583536e-05 -4.3976561e-07 
1.0745318e-06 -6.5995409e-06 2.6155669e-06 
0.0000000e+00 2.0597338e-06 0.0000000e+00 
0.0000000e+00 2.8586969e-06 0.0000000e+00 
0.0000000e+00 5.0865542e-06 0.0000000e+00 
0.0000000e+00 8.3072691e-06 0.0000000e+00 
0.0000000e+00 1.2024133e-05 0.0000000e+00 
0.0000000e+00 1.5570507e-05 0.0000000e+00 
0.0000000e+00 1.8370494e-05 0.0000000e+00 
0.0000000e+00 2.0069372e-05 0.0000000e+00 
0.0000000e+00 2.0427489e-05 0.0000000e+00 
0.0000000e+00 1.9491574e-05 0.0000000e+00 
0.0000000e+00 1.7459242e-05 0.0000000e+00 
0.0000000e+00 1.4752692e-05 0.0000000e+00 
0.0000000e+00 1.1809209e-05 0.0000000e+00 
0.0000000e+00 9.1938891e-06 0.0000000e+00 
0.0000000e+00 7.4052250e-06 0.0000000e+00 
0.0000000e+00 6.8041086e-06 0.0000000e+00 
0.0000000e+00 7.1103100e-06 0.0000000e+00 
0.0000000e+00 7.8316225e-06 0.0000000e+00 
0.0000000e+00 8.3183559e-06 0.0000000e+00 
0.0000000e+00 8.2833649e-06 0.0000000e+00 
0.0000000e+00 7.7521045e-06 0.0000000e+00 
0.0000000e+00 6.8359359e-06 0.0000000e+00 
0.0000000e+00 5.6372733e-06 0.0000000e+00 
0.0000000e+00 4.3424852e-06 0.0000000e+00 
0.0000000e+00 3.3410035e-06 0.0000000e+00 
0.0000000e+00 3.3579270e-06 0.0000000e+00 
0.0000000e+00 5.2346418e-06 0.0000000e+00 
0.0000000e+00 9.8256669e-06 0.0000000e+00 
0.0000000e+00 1.7841423e-05 0.0000000e+00 
0.0000000e+00 2.9887498e-05 0.0000000e+00 
0.0000000e+00 4.6267258e-05 0.0000000e+00 
0.0000000e+00 6.6085850e-05 0.0000000e+00 
0.0000000e+00 8.5011976e-05 0.0000000e+00 
0.0000000e+00 9.2139278e-05 0.0000000e+00 
0.0000000e+00 6.5439010e-05 0.0000000e+00 
0.0000000e+00 -2.9888575e-05 0.0000000e+00 
0.0000000e+00 -2.4015525e-04 0.0000000e+00 
0.0000000e+00 -6.2418473e-04 0.0000000e+00 
0.0000000e+00 -1.2420787e-03 0.0000000e+00 
0.0000000e+00 -2.1318044e-03 0.0000000e+00 
0.0000000e+00 -3.2507528e-03 0.0000000e+00 
0.0000000e+00 -4.4011828e-03 0.0000000e+00 
0.0000000e+00 -5.0868881e-03 0.0000000e+00 
0.0000000e+00 -4.9316986e-03 0.0000000e+00 
0.0000000e+00 -4.5871800e-03 0.0000000e+00 
0.0000000e+00 -4.4944766e-03 0.0000000e+00 
0.0000000e+00 -4.6203784e-03 0.0000000e+00 
0.0000000e+00 -4.4613951e-03 0.0000000e+00 
0.0000000e+00 -3.4661700e-03 0.0000000e+00 
0.0000000e+00 -2.2042051e-03 0.0000000e+00 
0.0000000e+00 -1.1218762e-03 0.0000000e+00 
0.0000000e+00 -3.8038488e-04 0.0000000e+00 
0.0000000e+00 3.6215581e-05 0.0000000e+00 
0.0000000e+00 2.1242491e-04 0.0000000e+00 
0.0000000e+00 2.4195528e-04 0.0000000e+00 
0.0000000e+00 2.0117554e-04 0.0000000e+00 
0.0000000e+00 1.3897374e-04 0.0000000e+00 
0.0000000e+00 8.2320301e-05 0.0000000e+00 
0.0000000e+00 4.0521008e-05 0.0000000e+00 
0.0000000e+00 1.4303278e-05 0.0000000e+00 
0.0000000e+00 5.9760248e-07 0.0000000e+00 
0.0000000e+00 -4.3161144e-06 0.0000000e+00 
0.0000000e+00 -3.9411552e-06 0.0000000e+00 
0.0000000e+00 -1.0409786e-06 0.0000000e+00 
0.0000000e+00 2.6745054e-06 0.0000000e+00 
0.0000000e+00 6.7490582e-06 0.0000000e+00 
0.0000000e+00 1.1862019e-05 0.0000000e+00 
0.0000000e+00 1.9163957e-05 0.0000000e+00 
0.0000000e+00 2.9735484e-05 0.0000000e+00 
0.0000000e+00 4.4321969e-05 0.0000000e+00 
0.0000000e+00 6.2578860e-05 0.0000000e+00 
0.0000000e+00 8.2663049e-05 0.0000000e+00 
0.0000000e+00 9.9083292e-05 0.0000000e+00 
0.0000000e+00 9.9890123e-05 0.0000000e+00 
0.0000000e+00 6.1994331e-05 0.0000000e+00 
0.0000000e+00 -5.1665163e-05 0.0000000e+00 
0.0000000e+00 -2.9356027e-04 0.0000000e+00 
0.0000000e+00 -7.2412199e-04 0.0000000e+00 
0.0000000e+00 -1.3988577e-03 0.0000000e+00 
0.0000000e+00 -2.3433620e-03 0.0000000e+00 
0.0000000e+00 -3.4876331e-03 0.0000000e+00 
0.0000000e+00 -4.5874040e-03 0.0000000e+00 
0.0000000e+00 -5.0836648e-03 0.0000000e+00 
0.0000000e+00 -4.8170495e-03 0.0000000e+00 
0.0000000e+00 -4.4943872e-03 0.0000000e+00 
0.0000000e+00 -4.4658748e-03 0.0000000e+00 
0.0000000e+00 -4.5811380e-03 0.0000000e+00 
0.0000000e+00 -4.2402898e-03 0.0000000e+00 
0.0000000e+00 -3.1400106e-03 0.0000000e+00 
0.0000000e+00 -1.9110909e-03 0.0000000e+00 
0.0000000e+00 -9.1485260e-04 0.0000000e+00 
0.0000000e+00 -2.5888148e-04 0.0000000e+00 
0.0000000e+00 9.2092516e-05 0.0000000e+00 
0.0000000e+00 2.2614883e-04 0.0000000e+00 
0.0000000e+00 2.3296710e-04 0.0000000e+00 
0.0000000e+00 1.8272895e-04 0.0000000e+00 
0.0000000e+00 1.1815671e-04 0.0000000e+00 
0.0000000e+00 6.0729566e-05 0.0000000e+00 
0.0000000e+00 1.8628123e-05 0.0000000e+00 
0.0000000e+00 -6.6415137e-06 0.0000000e+00 
0.0000000e+00 -1.5115036e-05 0.0000000e+00 
-1.6756848e-04 -4.1595302e-04 -2.4976229e-04 
2.6910229e-05 -2.5946794e-05 1.7665801e-05 
2.2287160e-05 -7.3283668e-06 1.3912157e-05 
1.5384057e-05 -1.6075701e-06 1.3170590e-05 
0.0000000e+00 -2.4337103e-04 0.0000000e+00 
0.0000000e+00 0.0000000e+00 0.0000000e+00 
0.0000000e+00 0.0000000e+00 0.0000000e+00 
0.0000000e+00 0.0000000e+00 0.0000000e+00 
0.0000000e+00 0.0000000e+00 0.0000000e+00 
0.0000000e+00 0.0000000e+00 0.0000000e+00 
0.0000000e+00 0.0000000e+00 0.0000000e+00 
0.0000000e+00 0.0000000e+00 0.0000000e+00 
0.0000000e+00 0.0000000e+00 0.0000000e+00 
0.0000000e+00 0.0000000e+00 0.0000000e+00 
0.0000000e+00 0.0000000e+00 0.0000000e+00 
0.0000000e+00 0.0000000e+00 0.0000000e+00 
0.0000000e+00 0.0000000e+00 0.0000000e+00 
0.0000000e+00 0.0000000e+00 0.0000000e+00 
0.0000000e+00 0.0000000e+00 0.0000000e+00 
0.0000000e+00 0.0000000e+00 0.0000000e+00 
0.0000000e+00 0.0000000e+00 0.0000000e+00 
0.0000000e+00 0.0000000e+00 0.0000000e+00 
0.0000000e+00 0.0000000e+00 0.0000000e+00 
0.0000000e+00 0.0000000e+00 0.0000000e+00 
0.0000000e+00 0.0000000e+00 0.0000000e+00 
0.0000000e+00 0.0000000e+00 0.0000000e+00 
0.0000000e+00 0.0000000e+00 0.0000000e+00 
0.0000000e+00 0.0000000e+00 0.0000000e+00 
0.0000000e+00 0.0000000e+00 0.0000000e+00 
0.0000000e+00 0.0000000e+00 0.0000000e+00 
0.0000000e+00 0.0000000e+00 0.0000000e+00 
0.0000000e+00 0.0000000e+00 0.0000000e+00 
0.0000000e+00 0.0000000e+00 0.0000000e+00 
0.0000000e+00 0.0000000e+00 0.0000000e+00 
0.0000000e+00 0.0000000e+00 0.0000000e+00 
0.0000000e+00 0.0000000e+00 0.0000000e+00 
0.0000000e+00 0.0000000e+00 0.0000000e+00 
0.0000000e+00 0.0000000e+00 0.0000000e+00 
0.0000000e+00 0.0000000e+00 0.0000000e+00 
0.0000000e+00 0.0000000e+00 0.0000000e+00 
0.0000000e+00 0.0000000e+00 0.0000000e+00 
0.0000000e+00 0.0000000e+00 0.0000000e+00 
0.0000000e+00 0.0000000e+00 0.0000000e+00 
0.0000000e+00 0.0000000e+00 0.0000000e+00 
0.0000000e+00 0.0000000e+00 0.0000000e+00 
0.0000000e+00 0.0000000e+00 0.0000000e+00 
0.0000000e+00 0.0000000e+00 0.0000000e+00 
0.0000000e+00 0.0000000e+00 0.0000000e+00 
0.0000000e+00 0.0000000e+00 0.0000000e+00 
0.0000000e+00 0.0000000e+00 0.0000000e+00 
0.0000000e+00 0.0000000e+00 0.0000000e+00 
0.0000000e+00 0.0000000e+00 0.0000000e+00 
0.0000000e+00 0.0000000e+00 0.0000000e+00 
0.0000000e+00 0.0000000e+00 0.0000000e+00 
0.0000000e+00 0.0000000e+00 0.0000000e+00 
0.0000000e+00 0.0000000e+00 0.0000000e+00 
0.0000000e+00 0.0000000e+00 0.0000000e+00 
0.0000000e+00 0.0000000e+00 0.0000000e+00 
0.0000000e+00 0.0000000e+00 0.0000000e+00 
0.0000000e+00 0.0000000e+00 0.0000000e+00 
0.0000000e+00 0.0000000e+00 0.0000000e+00 
0.0000000e+00 0.0000000e+00 0.0000000e+00 
0.0000000e+00 0.0000000e+00 0.0000000e+00 
0.0000000e+00 0.0000000e+00 0.0000000e+00 
0.0000000e+00 0.0000000e+00 0.0000000e+00 
0.0000000e+00 0.0000000e+00 0.0000000e+00 
0.0000000e+00 0.0000000e+00 0.0000000e+00 
0.0000000e+00 0.0000000e+00 0.0000000e+00 
0.0000000e+00 0.0000000e+00 0.0000000e+00 
0.0000000e+00 0.0000000e+00 0.0000000e+00 
0.0000000e+00 0.0000000e+00 0.0000000e+00 
0.0000000e+00 0.0000000e+00 0.0000000e+00 
0.0000000e+00 0.0000000e+00 0.0000000e+00 
0.0000000e+00 0.0000000e+00 0.0000000e+00 
0.0000000e+00 0.0000000e+00 0.0000000e+00 
0.0000000e+00 0.0000000e+00 0.0000000e+00 
0.0000000e+00 0.0000000e+00 0.0000000e+00 
0.0000000e+00 0.0000000e+00 0.0000000e+00 
0.0000000e+00 0.0000000e+00 0.0000000e+00 
0.0000000e+00 0.0000000e+00 0.0000000e+00 
0.0000000e+00 0.0000000e+00 0.0000000e+00 
0.0000000e+00 0.0000000e+00 0.0000000e+00 
0.0000000e+00 0.0000000e+00 0.0000000e+00 
0.0000000e+00 0.0000000e+00 0.0000000e+00 
0.0000000e+00 0.0000000e+00 0.0000000e+00 
0.0000000e+00 0.0000000e+00 0.0000000e+00 
0.0000000e+00 0.0000000e+00 0.0000000e+00 
0.0000000e+00 0.0000000e+00 0.0000000e+00 
0.0000000e+00 0.0000000e+00 0.0000000e+00 
0.0000000e+00 0.0000000e+00 0.0000000e+00 
0.0000000e+00 0.0000000e+00 0.0000000e+00 
0.0000000e+00 0.0000000e+00 0.0000000e+00 
0.0000000e+00 0.0000000e+00 0.0000000e+00 
0.0000000e+00 0.0000000e+00 0.0000000e+00 
0.0000000e+00 0.0000000e+00 0.0000000e+00 
0.0000000e+00 0.0000000e+00 0.0000000e+00 
0.0000000e+00 0.0000000e+00 0.0000000e+00 
0.0000000e+00 0.0000000e+00 0.0000000e+00 
0.0000000e+00 0.0000000e+00 0.0000000e+00 
0.0000000e+00 0.0000000e+00 0.0000000e+00 
0.0000000e+00 0.0000000e+00 0.0000000e+00 
0.0000000e+00 0.0000000e+00 0.0000000e+00 
0.0000000e+00 0.0000000e+00 0.0000000e+00 
0.0000000e+00 0.0000000e+00 0.0000000e+00 
0.0000000e+00 0.0000000e+00 0.0000000e+00 
0.0000000e+00 0.0000000e+00 0.0000000e+00 
0.0000000e+00 0.0000000e+00 0.0000000e+00 
0.0000000e+00 0.0000000e+00 0.0000000e+00 
0.0000000e+00 0.0000000e+00 0.0000000e+00 
0.0000000e+00 0.0000000e+00 0.0000000e+00 
0.0000000e+00 0.0000000e+00 0.0000000e+00 
-6.0185890e-08 6.5994175e-07 7.4724184e-08 
4.9602727e-07 4.6640466e-07 2.6101131e-07 
1.1710075e-06 3.3118820e-08 6.5792585e-07 
1.4172042e-06 7.6615933e-08 7.3440339e-07 
1.5969620e-06 -1.1207773e-07 7.8214555e-07 
1.5157285e-06 -2.2686716e-07 6.9690492e-07 
1.5917639e-06 -1.2575904e-07 2.9376542e-07 
1.3664427e-06 4.3122441e-07 -3.1772339e-07 
1.3710830e-06 3.7566269e-07 -6.0558227e-07 
1.5985855e-06 2.5054399e-07 2.0254720e-07 
1.3654688e-06 3.2393558e-07 1.0412997e-06 
4.5242757e-07 3.5904475e-07 1.0302103e-06 
-1.6111846e-07 5.7381334e-07 -1.7096832e-07 
-2.5075605e-07 4.7856969e-07 -1.5432217e-06 
6.3926399e-07 2.6510588e-07 -4.1824419e-06 
3.1778561e-06 -7.1883034e-07 -7.3422621e-06 
8.9093910e-06 -3.8665348e-06 -1.0862145e-05 
2.0155314e-05 -7.0778015e-06 -1.4307027e-05 
3.2462962e-05 -1.1147808e-05 -1.2767809e-05 
4.3210592e-05 -1.5107599e-05 -7.8999819e-06 
4.9343605e-05 -1.6803408e-05 -4.0805285e-06 
4.6394256e-05 -1.3090397e-05 5.8669484e-06 
3.9413990e-05 -1.1712907e-05 1.3395544e-05 
3.0604657e-05 -9.9123354e-06 1.6135622e-05 
1.9811554e-05 -4.6859668e-06 1.4325435e-05 
1.0355396e-05 -3.2858343e-06 1.0259407e-05 
5.1804655e-06 -2.5375193e-06 6.5568365e-06 
1.4525317e-06 -4.6230545e-07 2.1985097e-06 
7.7404843e-07 -2.4005793e-08 -7.9458054e-08 
1.6320165e-07 2.8388769e-07 -3.1566492e-07 
-6.3950438e-07 8.3616038e-07 1.7896066e-07 
-9.0412897e-07 1.0938263e-06 1.2626299e-07 
-9.2623281e-07 1.1681959e-06 -1.1491701e-07 
-2.5679731e-07 8.6359006e-07 -1.2546909e-06 
1.1220737e-06 4.0403629e-07 -2.8142856e-06 
5.0436743e-06 -8.5821097e-07 -6.6262228e-06 
1.2950029e-05 -4.6640262e-06 -1.1085586e-05 
2.4328301e-05 -8.9543737e-06 -1.3625298e-05 
3.4376390e-05 -1.2734357e-05 -1.3775000e-05 
4.4156699e-05 -1.7999737e-05 -9.1169777e-06 
4.8931604e-05 -1.6924587e-05 -2.9545868e-06 
4.9470389e-05 -1.6447244e-05 6.8240101e-06 
4.1099513e-05 -1.3210491e-05 1.3063348e-05 
2.8964867e-05 -9.1043439e-06 1.6071377e-05 
1.6232070e-05 -4.5458896e-06 1.4535435e-05 
9.9814897e-06 -2.2628610e-06 1.0059727e-05 
4.2496131e-06 -8.0053826e-07 6.3154366e-06 
9.6818837e-07 1.1996984e-07 2.0915666e-06 
-3.3024997e-07 3.7651881e-07 2.3840828e-07 
0.0000000e+00 -5.5778087e-06 0.0000000e+00 
0.0000000e+00 -8.2581464e-06 0.0000000e+00 
0.0000000e+00 -9.1279016e-06 0.0000000e+00 
0.0000000e+00 -8.5925985e-06 0.0000000e+00 
0.0000000e+00 -7.7804907e-06 0.0000000e+00 
0.0000000e+00 -8.1283451e-06 0.0000000e+00 
0.0000000e+00 -1.0286420e-05 0.0000000e+00 
0.0000000e+00 -1.2025659e-05 0.0000000e+00 
0.0000000e+00 -1.2396269e-05 0.0000000e+00 
0.0000000e+00 -1.2336957e-05 0.0000000e+00 
0.0000000e+00 -1.0414040e-05 0.0000000e+00 
0.0000000e+00 -5.9181939e-06 0.0000000e+00 
0.0000000e+00 -3.2174560e-06 0.0000000e+00 
0.0000000e+00 1.2284215e-06 0.0000000e+00 
0.0000000e+00 4.4637741e-06 0.0000000e+00 
0.0000000e+00 4.6101745e-06 0.0000000e+00 
0.0000000e+00 -1.3494886e-05 0.0000000e+00 
0.0000000e+00 -6.8627596e-05 0.0000000e+00 
0.0000000e+00 -2.1415489e-04 0.0000000e+00 
0.0000000e+00 -4.1102429e-04 0.0000000e+00 
0.0000000e+00 -5.3694920e-04 0.0000000e+00 
0.0000000e+00 -5.6511868e-04 0.0000000e+00 
0.0000000e+00 -5.3886842e-04 0.0000000e+00 
0.0000000e+00 -3.7251165e-04 0.0000000e+00 
0.0000000e+00 -1.4462235e-04 0.0000000e+00 
0.0000000e+00 -1.6943828e-05 0.0000000e+00 
0.0000000e+00 1.8661645e-05 0.0000000e+00 
0.0000000e+00 1.5466723e-05 0.0000000e+00 
0.0000000e+00 3.4782556e-06 0.0000000e+00 
0.0000000e+00 -7.5895528e-06 0.0000000e+00 
0.0000000e+00 -1.0291245e-05 0.0000000e+00 
0.0000000e+00 -9.5761579e-06 0.0000000e+00 
0.0000000e+00 -8.6438004e-06 0.0000000e+00 
0.0000000e+00 -5.6699828e-06 0.0000000e+00 
0.0000000e+00 1.0195261e-06 0.0000000e+00 
0.0000000e+00 4.7510675e-06 0.0000000e+00 
0.0000000e+00 -1.2409921e-05 0.0000000e+00 
0.0000000e+00 -7.7563636e-05 0.0000000e+00 
0.0000000e+00 -2.3238997e-04 0.0000000e+00 
0.0000000e+00 -3.9784389e-04 0.0000000e+00 
0.0000000e+00 -5.3120608e-04 0.0000000e+00 
0.0000000e+00 -5.3974258e-04 0.0000000e+00 
0.0000000e+00 -4.7146837e-04 0.0000000e+00 
0.0000000e+00 -3.1179911e-04 0.0000000e+00 
0.0000000e+00 -1.3591142e-04 0.0000000e+00 
0.0000000e+00 -2.0868962e-05 0.0000000e+00 
0.0000000e+00 1.6930146e-05 0.0000000e+00 
0.0000000e+00 1.4476547e-05 0.0000000e+00 
0.0000000e+00 5.8217729e-06 0.0000000e+00 
-3.0746389e-07 6.2996968e-08 2.1522973e-07 
-2.3823556e-07 -4.4272262e-08 8.8473240e-07 
5.9197595e-07 5.8775254e-07 2.0984724e-06 
1.3503208e-06 -3.9381797e-07 2.3680936e-06 
-1.2568827e-06 2.6689804e-07 -9.1626271e-07 
-1.2246495e-06 9.7061991e-07 -2.8494603e-06 
-3.3646685e-07 1.9873985e-06 -4.4325025e-06 
8.4946055e-07 6.9971389e-07 -4.4021126e-06 
-9.7604004e-07 -1.1822300e-07 8.3563754e-07 
-1.1329922e-06 -3.4315100e-08 -6.3645115e-07 
7.9013216e-07 -1.9118968e-06 4.3771429e-06 
3.1868228e-07 -4.6244440e-07 2.4385117e-06 
0.0000000e+00 -8.8649249e-06 0.0000000e+00 
0.0000000e+00 -1.1677962e-05 0.0000000e+00 
0.0000000e+00 -1.3892247e-05 0.0000000e+00 
0.0000000e+00 -1.2566220e-05 0.0000000e+00 
0.0000000e+00 -1.1221937e-05 0.0000000e+00 
0.0000000e+00 -1.2717381e-05 0.0000000e+00 
0.0000000e+00 -1.7648023e-05 0.0000000e+00 
0.0000000e+00 -2.0351428e-05 0.0000000e+00 
0.0000000e+00 -2.0791662e-05 0.0000000e+00 
0.0000000e+00 -2.0620510e-05 0.0000000e+00 
0.0000000e+00 -1.6947602e-05 0.0000000e+00 
0.0000000e+00 -9.6243684e-06 0.0000000e+00 
0.0000000e+00 -3.6777585e-06 0.0000000e+00 
0.0000000e+00 3.3298249e-06 0.0000000e+00 