# vtk DataFile Version 4.0
vtk output
ASCII
DATASET UNSTRUCTURED_GRID
POINTS 1919 float
0.0000000e+00 0.0000000e+00 0.0000000e+00 
0.0000000e+00 0.0000000e+00 5.0000000e+01 
5.0000000e+00 0.0000000e+00 0.0000000e+00 
5.0000000e+00 0.0000000e+00 5.0000000e+01 
5.0000000e+00 1.0000000e+00 0.0000000e+00 
5.0000000e+00 1.0000000e+00 5.0000000e+01 
0.0000000e+00 1.0000000e+00 0.0000000e+00 
0.0000000e+00 1.0000000e+00 5.0000000e+01 
5.0000000e+00 2.0000000e+00 0.0000000e+00 
5.0000000e+00 2.0000000e+00 5.0000000e+01 
3.0000000e+00 2.0000000e+00 0.0000000e+00 
3.0000000e+00 2.0000000e+00 5.0000000e+01 
0.0000000e+00 2.0000000e+00 0.0000000e+00 
0.0000000e+00 2.0000000e+00 5.0000000e+01 
1.5000000e+00 3.0000000e+00 0.0000000e+00 
1.5000000e+00 3.0000000e+00 5.0000000e+01 
7.5000000e-01 3.0000000e+00 0.0000000e+00 
7.5000000e-01 3.0000000e+00 5.0000000e+01 
0.0000000e+00 3.0000000e+00 0.0000000e+00 
0.0000000e+00 3.0000000e+00 5.0000000e+01 
7.5000000e-01 3.0000000e+00 5.0000000e-01 
7.5000000e-01 3.0000000e+00 1.0000000e+00 
7.5000000e-01 3.0000000e+00 1.5000000e+00 
7.5000000e-01 3.0000000e+00 2.0000000e+00 
7.5000000e-01 3.0000000e+00 2.5000000e+00 
7.5000000e-01 3.0000000e+00 3.0000000e+00 
7.5000000e-01 3.0000000e+00 3.5000000e+00 
7.5000000e-01 3.0000000e+00 4.0000000e+00 
7.5000000e-01 3.0000000e+00 4.5000000e+00 
7.5000000e-01 3.0000000e+00 5.0000000e+00 
7.5000000e-01 3.0000000e+00 5.5000000e+00 
7.5000000e-01 3.0000000e+00 6.0000000e+00 
7.5000000e-01 3.0000000e+00 6.5000000e+00 
7.5000000e-01 3.0000000e+00 7.0000000e+00 
7.5000000e-01 3.0000000e+00 7.5000000e+00 
7.5000000e-01 3.0000000e+00 8.0000000e+00 
7.5000000e-01 3.0000000e+00 8.5000000e+00 
7.5000000e-01 3.0000000e+00 9.0000000e+00 
7.5000000e-01 3.0000000e+00 9.5000000e+00 
7.5000000e-01 3.0000000e+00 1.0000000e+01 
7.5000000e-01 3.0000000e+00 1.0500000e+01 
7.5000000e-01 3.0000000e+00 1.1000000e+01 
7.5000000e-01 3.0000000e+00 1.1500000e+01 
7.5000000e-01 3.0000000e+00 1.2000000e+01 
7.5000000e-01 3.0000000e+00 1.2500000e+01 
7.5000000e-01 3.0000000e+00 1.3000000e+01 
7.5000000e-01 3.0000000e+00 1.3500000e+01 
7.5000000e-01 3.0000000e+00 1.4000000e+01 
7.5000000e-01 3.0000000e+00 1.4500000e+01 
7.5000000e-01 3.0000000e+00 1.5000000e+01 
7.5000000e-01 3.0000000e+00 1.5500000e+01 
7.5000000e-01 3.0000000e+00 1.6000000e+01 
7.5000000e-01 3.0000000e+00 1.6500000e+01 
7.5000000e-01 3.0000000e+00 1.7000000e+01 
7.5000000e-01 3.0000000e+00 1.7500000e+01 
7.5000000e-01 3.0000000e+00 1.8000000e+01 
7.5000000e-01 3.0000000e+00 1.8500000e+01 
7.5000000e-01 3.0000000e+00 1.9000000e+01 
7.5000000e-01 3.0000000e+00 1.9500000e+01 
7.5000000e-01 3.0000000e+00 2.0000000e+01 
7.5000000e-01 3.0000000e+00 2.0500000e+01 
7.5000000e-01 3.0000000e+00 2.1000000e+01 
7.5000000e-01 3.0000000e+00 2.1500000e+01 
7.5000000e-01 3.0000000e+00 2.2000000e+01 
7.5000000e-01 3.0000000e+00 2.2500000e+01 
7.5000000e-01 3.0000000e+00 2.3000000e+01 
7.5000000e-01 3.0000000e+00 2.3500000e+01 
7.5000000e-01 3.0000000e+00 2.4000000e+01 
7.5000000e-01 3.0000000e+00 2.4500000e+01 
7.5000000e-01 3.0000000e+00 2.5000000e+01 
7.5000000e-01 3.0000000e+00 2.5500000e+01 
7.5000000e-01 3.0000000e+00 2.6000000e+01 
7.5000000e-01 3.0000000e+00 2.6500000e+01 
7.5000000e-01 3.0000000e+00 2.7000000e+01 
7.5000000e-01 3.0000000e+00 2.7500000e+01 
7.5000000e-01 3.0000000e+00 2.8000000e+01 
7.5000000e-01 3.0000000e+00 2.8500000e+01 
7.5000000e-01 3.0000000e+00 2.9000000e+01 
7.5000000e-01 3.0000000e+00 2.9500000e+01 
7.5000000e-01 3.0000000e+00 3.0000000e+01 
7.5000000e-01 3.0000000e+00 3.0500000e+01 
7.5000000e-01 3.0000000e+00 3.1000000e+01 
7.5000000e-01 3.0000000e+00 3.1500000e+01 
7.5000000e-01 3.0000000e+00 3.2000000e+01 
7.5000000e-01 3.0000000e+00 3.2500000e+01 
7.5000000e-01 3.0000000e+00 3.3000000e+01 
7.5000000e-01 3.0000000e+00 3.3500000e+01 
7.5000000e-01 3.0000000e+00 3.4000000e+01 
7.5000000e-01 3.0000000e+00 3.4500000e+01 
7.5000000e-01 3.0000000e+00 3.5000000e+01 
7.5000000e-01 3.0000000e+00 3.5500000e+01 
7.5000000e-01 3.0000000e+00 3.6000000e+01 
7.5000000e-01 3.0000000e+00 3.6500000e+01 
7.5000000e-01 3.0000000e+00 3.7000000e+01 
7.5000000e-01 3.0000000e+00 3.7500000e+01 
7.5000000e-01 3.0000000e+00 3.8000000e+01 
7.5000000e-01 3.0000000e+00 3.8500000e+01 
7.5000000e-01 3.0000000e+00 3.9000000e+01 
7.5000000e-01 3.0000000e+00 3.9500000e+01 
7.5000000e-01 3.0000000e+00 4.0000000e+01 
7.5000000e-01 3.0000000e+00 4.0500000e+01 
7.5000000e-01 3.0000000e+00 4.1000000e+01 
7.5000000e-01 3.0000000e+00 4.1500000e+01 
7.5000000e-01 3.0000000e+00 4.2000000e+01 
7.5000000e-01 3.0000000e+00 4.2500000e+01 
7.5000000e-01 3.0000000e+00 4.3000000e+01 
7.5000000e-01 3.0000000e+00 4.3500000e+01 
7.5000000e-01 3.0000000e+00 4.4000000e+01 
7.5000000e-01 3.0000000e+00 4.4500000e+01 
7.5000000e-01 3.0000000e+00 4.5000000e+01 
7.5000000e-01 3.0000000e+00 4.5500000e+01 
7.5000000e-01 3.0000000e+00 4.6000000e+01 
7.5000000e-01 3.0000000e+00 4.6500000e+01 
7.5000000e-01 3.0000000e+00 4.7000000e+01 
7.5000000e-01 3.0000000e+00 4.7500000e+01 
7.5000000e-01 3.0000000e+00 4.8000000e+01 
7.5000000e-01 3.0000000e+00 4.8500000e+01 
7.5000000e-01 3.0000000e+00 4.9000000e+01 
7.5000000e-01 3.0000000e+00 4.9500000e+01 
7.5000000e-01 3.0250001e+00 0.0000000e+00 
7.5000000e-01 3.0250001e+00 5.0000000e-01 
7.5000000e-01 3.0250001e+00 1.0000000e+00 
7.5000000e-01 3.0250001e+00 1.5000000e+00 
7.5000000e-01 3.0250001e+00 2.0000000e+00 
7.5000000e-01 3.0250001e+00 2.5000000e+00 
7.5000000e-01 3.0250001e+00 3.0000000e+00 
7.5000000e-01 3.0250001e+00 3.5000000e+00 
7.5000000e-01 3.0250001e+00 4.0000000e+00 
7.5000000e-01 3.0250001e+00 4.5000000e+00 
7.5000000e-01 3.0250001e+00 5.0000000e+00 
7.5000000e-01 3.0250001e+00 5.5000000e+00 
7.5000000e-01 3.0250001e+00 6.0000000e+00 
7.5000000e-01 3.0250001e+00 6.5000000e+00 
7.5000000e-01 3.0250001e+00 7.0000000e+00 
7.5000000e-01 3.0250001e+00 7.5000000e+00 
7.5000000e-01 3.0250001e+00 8.0000000e+00 
7.5000000e-01 3.0250001e+00 8.5000000e+00 
7.5000000e-01 3.0250001e+00 9.0000000e+00 
7.5000000e-01 3.0250001e+00 9.5000000e+00 
7.5000000e-01 3.0250001e+00 1.0000000e+01 
7.5000000e-01 3.0250001e+00 1.0500000e+01 
7.5000000e-01 3.0250001e+00 1.1000000e+01 
7.5000000e-01 3.0250001e+00 1.1500000e+01 
7.5000000e-01 3.0250001e+00 1.2000000e+01 
7.5000000e-01 3.0250001e+00 1.2500000e+01 
7.5000000e-01 3.0250001e+00 1.3000000e+01 
7.5000000e-01 3.0250001e+00 1.3500000e+01 
7.5000000e-01 3.0250001e+00 1.4000000e+01 
7.5000000e-01 3.0250001e+00 1.4500000e+01 
7.5000000e-01 3.0250001e+00 1.5000000e+01 
7.5000000e-01 3.0250001e+00 1.5500000e+01 
7.5000000e-01 3.0250001e+00 1.6000000e+01 
7.5000000e-01 3.0250001e+00 1.6500000e+01 
7.5000000e-01 3.0250001e+00 1.7000000e+01 
7.5000000e-01 3.0250001e+00 1.7500000e+01 
7.5000000e-01 3.0250001e+00 1.8000000e+01 
7.5000000e-01 3.0250001e+00 1.8500000e+01 
7.5000000e-01 3.0250001e+00 1.9000000e+01 
7.5000000e-01 3.0250001e+00 1.9500000e+01 
7.5000000e-01 3.0250001e+00 2.0000000e+01 
7.5000000e-01 3.0250001e+00 2.0500000e+01 
7.5000000e-01 3.0250001e+00 2.1000000e+01 
7.5000000e-01 3.0250001e+00 2.1500000e+01 
7.5000000e-01 3.0250001e+00 2.2000000e+01 
7.5000000e-01 3.0250001e+00 2.2500000e+01 
7.5000000e-01 3.0250001e+00 2.3000000e+01 
7.5000000e-01 3.0250001e+00 2.3500000e+01 
7.5000000e-01 3.0250001e+00 2.4000000e+01 
7.5000000e-01 3.0250001e+00 2.4500000e+01 
7.5000000e-01 3.0250001e+00 2.5000000e+01 
7.5000000e-01 3.0250001e+00 2.5500000e+01 
7.5000000e-01 3.0250001e+00 2.6000000e+01 
7.5000000e-01 3.0250001e+00 2.6500000e+01 
7.5000000e-01 3.0250001e+00 2.7000000e+01 
7.5000000e-01 3.0250001e+00 2.7500000e+01 
7.5000000e-01 3.0250001e+00 2.8000000e+01 
7.5000000e-01 3.0250001e+00 2.8500000e+01 
7.5000000e-01 3.0250001e+00 2.9000000e+01 
7.5000000e-01 3.0250001e+00 2.9500000e+01 
7.5000000e-01 3.0250001e+00 3.0000000e+01 
7.5000000e-01 3.0250001e+00 3.0500000e+01 
7.5000000e-01 3.0250001e+00 3.1000000e+01 
7.5000000e-01 3.0250001e+00 3.1500000e+01 
7.5000000e-01 3.0250001e+00 3.2000000e+01 
7.5000000e-01 3.0250001e+00 3.2500000e+01 
7.5000000e-01 3.0250001e+00 3.3000000e+01 
7.5000000e-01 3.0250001e+00 3.3500000e+01 
7.5000000e-01 3.0250001e+00 3.4000000e+01 
7.5000000e-01 3.0250001e+00 3.4500000e+01 
7.5000000e-01 3.0250001e+00 3.5000000e+01 
7.5000000e-01 3.0250001e+00 3.5500000e+01 
7.5000000e-01 3.0250001e+00 3.6000000e+01 
7.5000000e-01 3.0250001e+00 3.6500000e+01 
7.5000000e-01 3.0250001e+00 3.7000000e+01 
7.5000000e-01 3.0250001e+00 3.7500000e+01 
7.5000000e-01 3.0250001e+00 3.8000000e+01 
7.5000000e-01 3.0250001e+00 3.8500000e+01 
7.5000000e-01 3.0250001e+00 3.9000000e+01 
7.5000000e-01 3.0250001e+00 3.9500000e+01 
7.5000000e-01 3.0250001e+00 4.0000000e+01 
7.5000000e-01 3.0250001e+00 4.0500000e+01 
7.5000000e-01 3.0250001e+00 4.1000000e+01 
7.5000000e-01 3.0250001e+00 4.1500000e+01 
7.5000000e-01 3.0250001e+00 4.2000000e+01 
7.5000000e-01 3.0250001e+00 4.2500000e+01 
7.5000000e-01 3.0250001e+00 4.3000000e+01 
7.5000000e-01 3.0250001e+00 4.3500000e+01 
7.5000000e-01 3.0250001e+00 4.4000000e+01 
7.5000000e-01 3.0250001e+00 4.4500000e+01 
7.5000000e-01 3.0250001e+00 4.5000000e+01 
7.5000000e-01 3.0250001e+00 4.5500000e+01 
7.5000000e-01 3.0250001e+00 4.6000000e+01 
7.5000000e-01 3.0250001e+00 4.6500000e+01 
7.5000000e-01 3.0250001e+00 4.7000000e+01 
7.5000000e-01 3.0250001e+00 4.7500000e+01 
7.5000000e-01 3.0250001e+00 4.8000000e+01 
7.5000000e-01 3.0250001e+00 4.8500000e+01 
7.5000000e-01 3.0250001e+00 4.9000000e+01 
7.5000000e-01 3.0250001e+00 4.9500000e+01 
7.5000000e-01 3.0250001e+00 5.0000000e+01 
1.5000000e+00 3.0000000e+00 2.5000000e+01 
3.0000000e+00 2.0000000e+00 2.5000000e+01 
4.0000000e+00 2.0000000e+00 2.5000000e+01 
5.0000000e+00 2.0000000e+00 2.5000000e+01 
0.0000000e+00 3.0000000e+00 2.5000000e+01 
0.0000000e+00 0.0000000e+00 1.0000000e+00 
0.0000000e+00 0.0000000e+00 2.0000000e+00 
0.0000000e+00 0.0000000e+00 3.0000000e+00 
0.0000000e+00 0.0000000e+00 4.0000000e+00 
0.0000000e+00 0.0000000e+00 5.0000000e+00 
[...]
POINT_DATA 1919
FIELD FieldData 3
DISPLACEMENT 3 1919  float
0.0000000e+00 0.0000000e+00 0.0000000e+00 
0.0000000e+00 0.0000000e+00 0.0000000e+00 
0.0000000e+00 0.0000000e+00 0.0000000e+00 
0.0000000e+00 0.0000000e+00 0.0000000e+00 
-5.3966219e-06 3.8637199e-06 8.7966100e-06 
1.4787730e-08 3.5199317e-08 1.5399126e-08 
0.0000000e+00 -1.0150726e-05 0.0000000e+00 
0.0000000e+00 -2.5943743e-07 0.0000000e+00 
-6.1791121e-07 6.6172161e-06 4.6373998e-06 
-2.4387921e-07 3.8091602e-07 -3.3541687e-07 
1.2055310e-05 2.9373892e-05 -5.2916726e-06 
1.8507419e-07 5.1980837e-08 5.0970164e-07 
0.0000000e+00 -2.5094991e-05 0.0000000e+00 
0.0000000e+00 -3.5662504e-07 0.0000000e+00 
4.8725242e-06 2.7981077e-05 -2.2433625e-05 
6.0959093e-07 -6.2841224e-07 7.8364042e-07 
-1.7379214e-05 6.9907874e-05 -2.0848107e-05 
-1.4703211e-08 -1.3876489e-06 -2.7032945e-07 
0.0000000e+00 -6.6876964e-05 0.0000000e+00 
0.0000000e+00 1.6412983e-08 0.0000000e+00 
-2.0110921e-05 7.1512026e-05 -2.4219520e-05 
-2.9398829e-05 7.6244185e-05 -6.4098655e-05 
-4.6588757e-05 8.2830942e-05 -1.0539054e-04 
-4.5118260e-05 9.0860776e-05 -1.3399418e-04 
-3.2728040e-05 1.0317712e-04 -1.5641436e-04 
-1.7181854e-05 1.2235412e-04 -1.2435776e-04 
-1.0927555e-05 1.4788513e-04 -1.0906115e-04 
-1.1245359e-05 1.7276271e-04 -9.7394906e-05 
1.5260491e-06 1.8176141e-04 -8.1650454e-05 
-1.5115492e-05 1.5328807e-04 -3.2437252e-05 
-8.2302950e-06 5.5748922e-05 1.0806575e-05 
-7.8327748e-06 -1.5151207e-04 6.3091335e-05 
-3.9163893e-05 -5.2608090e-04 1.7170106e-04 
-8.5209875e-05 -1.1249618e-03 1.3727689e-04 
-1.4257214e-04 -1.9918478e-03 2.8641697e-04 
-2.2643473e-04 -3.0697936e-03 1.7598576e-04 
-2.9595679e-04 -4.1859648e-03 2.9859834e-04 
-2.9917707e-04 -4.8255585e-03 2.1948603e-04 
-3.3258612e-04 -4.6614199e-03 2.0688100e-04 
-3.3465165e-04 -4.3097222e-03 1.8346563e-04 
-3.4706891e-04 -4.2340891e-03 1.5863020e-04 
-3.9116119e-04 -4.3609496e-03 -1.8151779e-05 
-3.3204764e-04 -4.2192833e-03 -1.6182085e-04 
-2.5439347e-04 -3.2695169e-03 -1.4927074e-04 
-1.5358778e-04 -2.0984635e-03 -3.1126002e-04 
-7.6075936e-05 -1.0843384e-03 -1.5787456e-04 
-4.5013709e-05 -3.9088886e-04 -1.9358487e-04 
-2.4219695e-05 6.6343085e-07 -1.4699707e-04 
1.0027264e-05 1.6673784e-04 -1.5953550e-04 
2.1860285e-05 1.9316525e-04 -1.4248432e-04 
5.1275292e-05 1.5324100e-04 -8.0977567e-05 
5.0621737e-05 9.4203679e-05 -1.6048742e-05 
3.2915199e-05 4.2432202e-05 5.7004581e-05 
1.4292096e-05 8.7107082e-06 7.7116740e-05 
1.1398699e-05 -6.6832436e-06 8.6812841e-05 
-9.4382194e-06 -8.9990890e-06 6.6914821e-05 
-1.3126639e-05 -3.3970891e-06 3.8929971e-05 
-9.5155028e-06 5.7343377e-06 1.0289994e-05 
-1.7385129e-05 1.7249738e-05 -9.2848459e-06 
-1.9919959e-05 3.0892723e-05 -2.2566206e-05 
-2.8421180e-05 4.4993707e-05 -4.1267849e-05 
-4.2708110e-05 5.7187248e-05 -6.6393106e-05 
-4.8182279e-05 6.6147732e-05 -9.8153461e-05 
-1.6532687e-05 7.6006560e-05 -1.0490175e-04 
-3.9967344e-05 9.3187402e-05 -1.2958491e-04 
-3.7493879e-05 1.2095743e-04 -1.1595155e-04 
2.6053169e-05 1.5674339e-04 -9.6641292e-05 
1.4615319e-05 1.9119629e-04 -1.0658029e-04 
4.8475729e-05 2.0840274e-04 -5.6445824e-05 
-2.1392316e-05 1.8281644e-04 -3.5249570e-05 
3.2972068e-05 8.3077532e-05 2.8248525e-05 
-7.8568810e-06 -1.4316414e-04 7.6048556e-05 
-2.2466835e-05 -5.6047761e-04 1.8204683e-04 
-8.8157743e-05 -1.2214332e-03 1.6246829e-04 
-1.5800649e-04 -2.1608179e-03 3.2670176e-04 
-2.4252314e-04 -3.2908295e-03 1.8454787e-04 
-3.0396591e-04 -4.3907124e-03 2.9017791e-04 
-3.7544977e-04 -4.8827389e-03 2.0266727e-04 
-3.8562340e-04 -4.6522184e-03 1.3471428e-04 
-3.6580651e-04 -4.3369560e-03 1.5380964e-04 
-3.6042335e-04 -4.3256273e-03 1.0986443e-04 
-3.7609314e-04 -4.4331402e-03 -1.9694344e-05 
-3.1909015e-04 -4.1217669e-03 -1.9836411e-04 
-2.5079789e-04 -3.0564705e-03 -1.8562889e-04 
-1.5116709e-04 -1.8838679e-03 -3.1356388e-04 
-7.6365599e-05 -9.2163187e-04 -1.6544285e-04 
-4.0803181e-05 -2.9388076e-04 -2.0270144e-04 
-1.3204034e-05 4.5020890e-05 -1.4057008e-04 
2.7071485e-05 1.7679080e-04 -1.5430342e-04 
3.3118235e-05 1.8836255e-04 -1.2075042e-04 
5.3987966e-05 1.4859000e-04 -4.5329009e-05 
4.4360269e-05 9.7548706e-05 2.0480249e-07 
1.1324517e-05 5.4549411e-05 5.4665226e-05 
-8.3418454e-06 2.5495776e-05 5.5516233e-05 
-1.9379613e-05 9.5925934e-06 4.8002217e-05 
-1.7788367e-05 3.0859278e-06 2.2953805e-05 
-1.1881889e-05 1.7431321e-06 1.0884337e-05 
-6.7530991e-06 1.8605795e-06 -8.2412644e-06 
4.2318271e-07 1.9447325e-06 -8.3678096e-06 
3.8512549e-06 1.0428637e-06 -1.0157167e-05 
2.6903342e-06 -1.8217277e-06 -3.0726330e-06 
6.0536757e-07 -5.2303176e-06 -1.1693287e-07 
3.1248447e-07 -7.7152054e-06 -4.6790126e-07 
-3.5321742e-07 -7.4834666e-06 3.0841193e-06 
-3.4711721e-07 -3.7456209e-06 9.1073616e-07 
-3.1190447e-07 1.4210112e-06 -2.7526491e-07 
-4.8747125e-07 5.4074244e-06 1.1535155e-06 
9.2845429e-09 6.2267136e-06 -1.2520344e-06 
2.4517567e-07 3.5659889e-06 -4.6145962e-07 
1.9076644e-07 -4.4903203e-07 3.7453435e-07 
-2.7600970e-08 -3.3610659e-06 -7.3182144e-07 
-9.9954676e-08 -3.8152411e-06 3.8901868e-07 
-9.7624579e-08 -1.9274346e-06 5.0512352e-07 
-1.6436005e-07 6.6106992e-07 -6.4492616e-07 
-3.6206322e-07 2.3076809e-06 6.7770776e-07 
2.9363142e-07 2.4873107e-06 -2.9849329e-07 
-1.8960115e-07 1.5031026e-06 -1.0801885e-07 
2.6763084e-07 1.0082734e-07 3.4669693e-08 
-1.8105426e-07 -9.7727070e-07 2.9591695e-07 
0.0000000e+00 6.9952948e-05 0.0000000e+00 
0.0000000e+00 7.1625102e-05 0.0000000e+00 
0.0000000e+00 7.6245356e-05 0.0000000e+00 
0.0000000e+00 8.2671912e-05 0.0000000e+00 
0.0000000e+00 9.0838679e-05 0.0000000e+00 
0.0000000e+00 1.0326658e-04 0.0000000e+00 
0.0000000e+00 1.2261048e-04 0.0000000e+00 
0.0000000e+00 1.4822312e-04 0.0000000e+00 
0.0000000e+00 1.7305033e-04 0.0000000e+00 
0.0000000e+00 1.8220046e-04 0.0000000e+00 
0.0000000e+00 1.5371101e-04 0.0000000e+00 
0.0000000e+00 5.6570942e-05 0.0000000e+00 
0.0000000e+00 -1.5149571e-04 0.0000000e+00 
0.0000000e+00 -5.2697700e-04 0.0000000e+00 
0.0000000e+00 -1.1300740e-03 0.0000000e+00 
0.0000000e+00 -1.9984187e-03 0.0000000e+00 
0.0000000e+00 -3.0877772e-03 0.0000000e+00 
0.0000000e+00 -4.2041251e-03 0.0000000e+00 
0.0000000e+00 -4.8563862e-03 0.0000000e+00 
0.0000000e+00 -4.6853558e-03 0.0000000e+00 
0.0000000e+00 -4.3371171e-03 0.0000000e+00 
0.0000000e+00 -4.2553963e-03 0.0000000e+00 
0.0000000e+00 -4.3908092e-03 0.0000000e+00 
0.0000000e+00 -4.2410172e-03 0.0000000e+00 
0.0000000e+00 -3.2947711e-03 0.0000000e+00 
0.0000000e+00 -2.1095518e-03 0.0000000e+00 
0.0000000e+00 -1.0928628e-03 0.0000000e+00 
0.0000000e+00 -3.9349511e-04 0.0000000e+00 
0.0000000e+00 6.5787805e-07 0.0000000e+00 
0.0000000e+00 1.6766148e-04 0.0000000e+00 
0.0000000e+00 1.9463085e-04 0.0000000e+00 
0.0000000e+00 1.5431651e-04 0.0000000e+00 
0.0000000e+00 9.4910589e-05 0.0000000e+00 
0.0000000e+00 4.2887434e-05 0.0000000e+00 
0.0000000e+00 8.9338428e-06 0.0000000e+00 
0.0000000e+00 -6.6980006e-06 0.0000000e+00 
0.0000000e+00 -8.9977293e-06 0.0000000e+00 
0.0000000e+00 -3.5285991e-06 0.0000000e+00 
0.0000000e+00 5.6896074e-06 0.0000000e+00 
0.0000000e+00 1.7342076e-05 0.0000000e+00 
0.0000000e+00 3.0963740e-05 0.0000000e+00 
0.0000000e+00 4.4985933e-05 0.0000000e+00 
0.0000000e+00 5.6949131e-05 0.0000000e+00 
0.0000000e+00 6.6009881e-05 0.0000000e+00 
0.0000000e+00 7.6101664e-05 0.0000000e+00 
0.0000000e+00 9.3423652e-05 0.0000000e+00 
0.0000000e+00 1.2123830e-04 0.0000000e+00 
0.0000000e+00 1.5701879e-04 0.0000000e+00 
0.0000000e+00 1.9160759e-04 0.0000000e+00 
0.0000000e+00 2.0866246e-04 0.0000000e+00 
0.0000000e+00 1.8390942e-04 0.0000000e+00 
0.0000000e+00 8.3705105e-05 0.0000000e+00 
0.0000000e+00 -1.4371397e-04 0.0000000e+00 
0.0000000e+00 -5.6156574e-04 0.0000000e+00 
0.0000000e+00 -1.2276294e-03 0.0000000e+00 
0.0000000e+00 -2.1683231e-03 0.0000000e+00 
0.0000000e+00 -3.3101041e-03 0.0000000e+00 
0.0000000e+00 -4.4100834e-03 0.0000000e+00 
0.0000000e+00 -4.9153869e-03 0.0000000e+00 
0.0000000e+00 -4.6733837e-03 0.0000000e+00 
0.0000000e+00 -4.3659350e-03 0.0000000e+00 
0.0000000e+00 -4.3453630e-03 0.0000000e+00 
0.0000000e+00 -4.4641583e-03 0.0000000e+00 
0.0000000e+00 -4.1432916e-03 0.0000000e+00 
0.0000000e+00 -3.0800244e-03 0.0000000e+00 
0.0000000e+00 -1.8938208e-03 0.0000000e+00 
0.0000000e+00 -9.2947640e-04 0.0000000e+00 
0.0000000e+00 -2.9538054e-04 0.0000000e+00 
0.0000000e+00 4.5259410e-05 0.0000000e+00 
0.0000000e+00 1.7793807e-04 0.0000000e+00 
0.0000000e+00 1.8991414e-04 0.0000000e+00 
0.0000000e+00 1.4964576e-04 0.0000000e+00 
0.0000000e+00 9.8164623e-05 0.0000000e+00 
0.0000000e+00 5.4836823e-05 0.0000000e+00 
0.0000000e+00 2.5632316e-05 0.0000000e+00 
0.0000000e+00 9.6198510e-06 0.0000000e+00 
0.0000000e+00 3.0701995e-06 0.0000000e+00 
0.0000000e+00 1.6433877e-06 0.0000000e+00 
0.0000000e+00 1.8254461e-06 0.0000000e+00 
0.0000000e+00 1.9348706e-06 0.0000000e+00 
0.0000000e+00 9.2401069e-07 0.0000000e+00 
0.0000000e+00 -1.8073513e-06 0.0000000e+00 
0.0000000e+00 -5.2143091e-06 0.0000000e+00 
0.0000000e+00 -7.6594024e-06 0.0000000e+00 
0.0000000e+00 -7.3558513e-06 0.0000000e+00 
0.0000000e+00 -3.7501734e-06 0.0000000e+00 
0.0000000e+00 1.3548306e-06 0.0000000e+00 
0.0000000e+00 5.3189360e-06 0.0000000e+00 
0.0000000e+00 6.1251444e-06 0.0000000e+00 
0.0000000e+00 3.5847154e-06 0.0000000e+00 
0.0000000e+00 -3.6013691e-07 0.0000000e+00 
0.0000000e+00 -3.2895343e-06 0.0000000e+00 
0.0000000e+00 -3.7696739e-06 0.0000000e+00 
0.0000000e+00 -1.9614190e-06 0.0000000e+00 
0.0000000e+00 5.8453941e-07 0.0000000e+00 
0.0000000e+00 2.2797869e-06 0.0000000e+00 
0.0000000e+00 2.5001211e-06 0.0000000e+00 
0.0000000e+00 1.5317463e-06 0.0000000e+00 
0.0000000e+00 1.2835282e-07 0.0000000e+00 
0.0000000e+00 -9.8334965e-07 0.0000000e+00 
0.0000000e+00 -1.4010383e-06 0.0000000e+00 
1.5062981e-05 -7.8053781e-05 2.7749173e-05 
2.1490412e-05 -9.9410739e-05 -5.1894885e-06 
7.9590071e-05 -3.3529337e-05 -1.3904556e-05 
7.7645927e-05 -1.3304802e-05 -2.2452596e-05 
0.0000000e+00 4.1237587e-04 0.0000000e+00 
0.0000000e+00 0.0000000e+00 0.0000000e+00 
0.0000000e+00 0.0000000e+00 0.0000000e+00 
0.0000000e+00 0.0000000e+00 0.0000000e+00 
0.0000000e+00 0.0000000e+00 0.0000000e+00 
0.0000000e+00 0.0000000e+00 0.0000000e+00 
0.0000000e+00 0.0000000e+00 0.0000000e+00 
0.0000000e+00 0.0000000e+00 0.0000000e+00 
0.0000000e+00 0.0000000e+00 0.0000000e+00 
0.0000000e+00 0.0000000e+00 0.0000000e+00 
0.0000000e+00 0.0000000e+00 0.0000000e+00 
0.0000000e+00 0.0000000e+00 0.0000000e+00 
0.0000000e+00 0.0000000e+00 0.0000000e+00 
0.0000000e+00 0.0000000e+00 0.0000000e+00 
0.0000000e+00 0.0000000e+00 0.0000000e+00 
0.0000000e+00 0.0000000e+00 0.0000000e+00 
0.0000000e+00 0.0000000e+00 0.0000000e+00 
0.0000000e+00 0.0000000e+00 0.0000000e+00 
0.0000000e+00 0.0000000e+00 0.0000000e+00 
0.0000000e+00 0.0000000e+00 0.0000000e+00 
0.0000000e+00 0.0000000e+00 0.0000000e+00 
0.0000000e+00 0.0000000e+00 0.0000000e+00 
0.0000000e+00 0.0000000e+00 0.0000000e+00 
0.0000000e+00 0.0000000e+00 0.0000000e+00 
0.0000000e+00 0.0000000e+00 0.0000000e+00 
0.0000000e+00 0.0000000e+00 0.0000000e+00 
0.0000000e+00 0.0000000e+00 0.0000000e+00 
0.0000000e+00 0.0000000e+00 0.0000000e+00 
0.0000000e+00 0.0000000e+00 0.0000000e+00 
0.0000000e+00 0.0000000e+00 0.0000000e+00 
0.0000000e+00 0.0000000e+00 0.0000000e+00 
0.0000000e+00 0.0000000e+00 0.0000000e+00 
0.0000000e+00 0.0000000e+00 0.0000000e+00 
0.0000000e+00 0.0000000e+00 0.0000000e+00 
0.0000000e+00 0.0000000e+00 0.0000000e+00 
0.0000000e+00 0.0000000e+00 0.0000000e+00 
0.0000000e+00 0.0000000e+00 0.0000000e+00 
0.0000000e+00 0.0000000e+00 0.0000000e+00 
0.0000000e+00 0.0000000e+00 0.0000000e+00 
0.0000000e+00 0.0000000e+00 0.0000000e+00 
0.0000000e+00 0.0000000e+00 0.0000000e+00 
0.0000000e+00 0.0000000e+00 0.0000000e+00 
0.0000000e+00 0.0000000e+00 0.0000000e+00 
0.0000000e+00 0.0000000e+00 0.0000000e+00 
0.0000000e+00 0.0000000e+00 0.0000000e+00 
0.0000000e+00 0.0000000e+00 0.0000000e+00 
0.0000000e+00 0.0000000e+00 0.0000000e+00 
0.0000000e+00 0.0000000e+00 0.0000000e+00 
0.0000000e+00 0.0000000e+00 0.0000000e+00 
0.0000000e+00 0.0000000e+00 0.0000000e+00 
0.0000000e+00 0.0000000e+00 0.0000000e+00 
0.0000000e+00 0.0000000e+00 0.0000000e+00 
0.0000000e+00 0.0000000e+00 0.0000000e+00 
0.0000000e+00 0.0000000e+00 0.0000000e+00 
0.0000000e+00 0.0000000e+00 0.0000000e+00 
0.0000000e+00 0.0000000e+00 0.0000000e+00 
0.0000000e+00 0.0000000e+00 0.0000000e+00 
0.0000000e+00 0.0000000e+00 0.0000000e+00 
0.0000000e+00 0.0000000e+00 0.0000000e+00 
0.0000000e+00 0.0000000e+00 0.0000000e+00 
0.0000000e+00 0.0000000e+00 0.0000000e+00 
0.0000000e+00 0.0000000e+00 0.0000000e+00 
0.0000000e+00 0.0000000e+00 0.0000000e+00 
0.0000000e+00 0.0000000e+00 0.0000000e+00 
0.0000000e+00 0.0000000e+00 0.0000000e+00 
0.0000000e+00 0.0000000e+00 0.0000000e+00 
0.0000000e+00 0.0000000e+00 0.0000000e+00 
0.0000000e+00 0.0000000e+00 0.0000000e+00 
0.0000000e+00 0.0000000e+00 0.0000000e+00 
0.0000000e+00 0.0000000e+00 0.0000000e+00 
0.0000000e+00 0.0000000e+00 0.0000000e+00 
0.0000000e+00 0.0000000e+00 0.0000000e+00 
0.0000000e+00 0.0000000e+00 0.0000000e+00 
0.0000000e+00 0.0000000e+00 0.0000000e+00 
0.0000000e+00 0.0000000e+00 0.0000000e+00 
0.0000000e+00 0.0000000e+00 0.0000000e+00 
0.0000000e+00 0.0000000e+00 0.0000000e+00 
0.0000000e+00 0.0000000e+00 0.0000000e+00 
0.0000000e+00 0.0000000e+00 0.0000000e+00 
0.0000000e+00 0.0000000e+00 0.0000000e+00 
0.0000000e+00 0.0000000e+00 0.0000000e+00 
0.0000000e+00 0.0000000e+00 0.0000000e+00 
0.0000000e+00 0.0000000e+00 0.0000000e+00 
0.0000000e+00 0.0000000e+00 0.0000000e+00 
0.0000000e+00 0.0000000e+00 0.0000000e+00 
0.0000000e+00 0.0000000e+00 0.0000000e+00 
0.0000000e+00 0.0000000e+00 0.0000000e+00 
0.0000000e+00 0.0000000e+00 0.0000000e+00 
0.0000000e+00 0.0000000e+00 0.0000000e+00 
0.0000000e+00 0.0000000e+00 0.0000000e+00 
0.0000000e+00 0.0000000e+00 0.0000000e+00 
0.0000000e+00 0.0000000e+00 0.0000000e+00 
0.0000000e+00 0.0000000e+00 0.0000000e+00 
0.0000000e+00 0.0000000e+00 0.0000000e+00 
0.0000000e+00 0.0000000e+00 0.0000000e+00 
0.0000000e+00 0.0000000e+00 0.0000000e+00 
0.0000000e+00 0.0000000e+00 0.0000000e+00 
0.0000000e+00 0.0000000e+00 0.0000000e+00 
0.0000000e+00 0.0000000e+00 0.0000000e+00 
0.0000000e+00 0.0000000e+00 0.0000000e+00 
0.0000000e+00 0.0000000e+00 0.0000000e+00 
0.0000000e+00 0.0000000e+00 0.0000000e+00 
0.0000000e+00 0.0000000e+00 0.0000000e+00 
0.0000000e+00 0.0000000e+00 0.0000000e+00 
0.0000000e+00 0.0000000e+00 0.0000000e+00 
0.0000000e+00 0.0000000e+00 0.0000000e+00 
0.0000000e+00 0.0000000e+00 0.0000000e+00 
4.8075381e-06 9.5239438e-06 -8.1784543e-07 
1.3878553e-05 7.5856351e-06 -1.4932662e-05 
2.1037296e-05 -1.8862225e-07 -2.3608331e-05 
2.4224895e-05 -9.5281639e-06 -2.3101216e-05 
3.3021075e-05 -1.5333764e-05 -2.0070034e-05 
4.4060853e-05 -2.0642288e-05 -1.5318879e-05 
5.5574146e-05 -2.2826189e-05 -6.3597431e-06 
6.3088068e-05 -2.1416648e-05 7.1140994e-06 
6.6180291e-05 -7.8310513e-06 1.8169952e-05 
6.5060245e-05 9.7747452e-06 2.2601473e-05 
5.3419677e-05 4.9872478e-06 1.4397403e-05 
3.5239391e-05 -3.0004705e-06 -7.4117872e-07 
1.3708241e-05 -3.7356363e-06 -1.4645196e-05 
2.0583736e-06 7.9119724e-07 -2.2395516e-05 
-8.6795098e-06 9.7529608e-07 -1.7337743e-05 
-1.0371749e-05 6.3205300e-07 -6.6339069e-08 
-8.7001645e-06 -6.9789058e-07 1.7873863e-05 
-3.3314411e-06 6.6543917e-06 2.6696694e-05 
-4.4799876e-07 3.8772614e-06 2.4979285e-05 
1.9873764e-06 -4.7888915e-07 1.3083616e-05 
6.4869605e-06 1.2711496e-06 -4.6758450e-07 
1.2557894e-05 9.4694469e-06 -1.7870934e-05 
2.4591753e-05 7.9118063e-06 -2.3510100e-05 
4.0225783e-05 -8.0859081e-06 -2.4209063e-05 
5.1670504e-05 -1.3982613e-05 -1.9672749e-05 
6.4015338e-05 -1.1065793e-05 -9.9431982e-06 
6.3367435e-05 -1.6428383e-05 1.3278637e-06 
6.8696994e-05 -1.8171006e-05 1.2569360e-05 
7.2558170e-05 -1.3161219e-05 2.0552618e-05 
6.5028275e-05 2.3955031e-06 2.3560815e-05 
4.6484405e-05 4.5445231e-06 1.3751442e-05 
2.5078956e-05 -8.1154276e-06 2.9095211e-06 
8.7370663e-06 -1.0296529e-06 -1.3200708e-05 
-6.1087718e-07 1.8852178e-06 -2.1731941e-05 
-8.6176206e-06 -1.3707991e-06 -1.9323825e-05 
-7.7765471e-06 -4.3207046e-07 -7.5240905e-06 
-6.4937211e-07 4.6349078e-06 1.2012842e-06 
2.4041708e-06 1.8687767e-06 8.2933484e-06 
1.7070053e-06 -1.9864140e-06 8.6835780e-06 
8.3142578e-07 -2.5285849e-06 4.9206551e-06 
2.8541942e-07 -1.2251585e-06 -2.3823547e-07 
3.7776584e-07 -8.1320428e-07 -1.0525653e-06 
-2.3861358e-07 1.7771213e-06 -3.3038577e-07 
-3.5743230e-07 6.8069852e-07 2.8629350e-07 
1.2699860e-07 -9.4468004e-07 5.4136399e-07 
1.7255428e-07 -2.5391017e-07 -1.8899280e-08 
-5.1918647e-09 3.7061241e-08 -2.6395347e-07 
-1.3191269e-07 2.5161879e-07 -2.2494096e-07 
4.9949175e-08 -3.7743297e-07 1.0815020e-07 
0.0000000e+00 2.4486091e-05 0.0000000e+00 
0.0000000e+00 9.7144039e-05 0.0000000e+00 
0.0000000e+00 1.6856502e-04 0.0000000e+00 
0.0000000e+00 2.0993476e-04 0.0000000e+00 
0.0000000e+00 1.9896630e-04 0.0000000e+00 
0.0000000e+00 1.6101888e-04 0.0000000e+00 
0.0000000e+00 1.8928320e-05 0.0000000e+00 
0.0000000e+00 -1.5984556e-04 0.0000000e+00 
0.0000000e+00 -3.0546685e-04 0.0000000e+00 
0.0000000e+00 -3.9103284e-04 0.0000000e+00 
0.0000000e+00 -4.0303601e-04 0.0000000e+00 
0.0000000e+00 -3.5206057e-04 0.0000000e+00 
0.0000000e+00 -1.9430058e-04 0.0000000e+00 
0.0000000e+00 -5.9063765e-05 0.0000000e+00 
0.0000000e+00 -4.6308905e-06 0.0000000e+00 
0.0000000e+00 4.5604946e-05 0.0000000e+00 
0.0000000e+00 3.2971813e-05 0.0000000e+00 
0.0000000e+00 -3.0655898e-05 0.0000000e+00 
0.0000000e+00 -3.3991535e-05 0.0000000e+00 
0.0000000e+00 -5.5536693e-06 0.0000000e+00 
0.0000000e+00 4.8006383e-05 0.0000000e+00 
0.0000000e+00 8.8182809e-05 0.0000000e+00 
0.0000000e+00 1.3426592e-04 0.0000000e+00 
0.0000000e+00 1.8913204e-04 0.0000000e+00 
0.0000000e+00 1.8078227e-04 0.0000000e+00 
0.0000000e+00 1.3728309e-04 0.0000000e+00 
0.0000000e+00 5.0587855e-06 0.0000000e+00 
0.0000000e+00 -1.7657592e-04 0.0000000e+00 
0.0000000e+00 -2.8208402e-04 0.0000000e+00 
0.0000000e+00 -3.4919326e-04 0.0000000e+00 
0.0000000e+00 -4.0290045e-04 0.0000000e+00 
0.0000000e+00 -3.0734012e-04 0.0000000e+00 
0.0000000e+00 -1.8622620e-04 0.0000000e+00 
0.0000000e+00 -5.4255484e-05 0.0000000e+00 
0.0000000e+00 -1.1240978e-05 0.0000000e+00 
0.0000000e+00 3.4299213e-05 0.0000000e+00 
0.0000000e+00 3.0333706e-05 0.0000000e+00 
0.0000000e+00 -7.2806461e-07 0.0000000e+00 
0.0000000e+00 -1.2353369e-05 0.0000000e+00 
0.0000000e+00 -6.8188888e-06 0.0000000e+00 
0.0000000e+00 4.1871676e-06 0.0000000e+00 
0.0000000e+00 2.3864447e-06 0.0000000e+00 
0.0000000e+00 -9.6991801e-07 0.0000000e+00 
0.0000000e+00 -2.0874140e-07 0.0000000e+00 
0.0000000e+00 4.5229442e-07 0.0000000e+00 
0.0000000e+00 -1.2318571e-07 0.0000000e+00 
0.0000000e+00 -4.5961144e-07 0.0000000e+00 
0.0000000e+00 8.1698767e-07 0.0000000e+00 
0.0000000e+00 4.9935278e-07 0.0000000e+00 
-4.2031246e-07 1.1026901e-05 1.9799572e-06 
6.2350873e-06 1.6368096e-05 4.8135580e-06 
1.0479744e-05 1.4212676e-05 1.1381907e-05 
5.3298627e-06 1.5945861e-06 7.8968114e-06 
5.3118477e-08 -1.6777368e-07 4.1710312e-08 
-9.2970900e-08 2.6638065e-07 1.4597073e-07 
-9.2244665e-09 2.1227449e-07 -2.5010948e-07 
8.3890733e-08 6.9530630e-09 -6.9510961e-08 
9.8990295e-06 1.9133338e-05 -9.1026077e-06 
2.4986619e-07 -3.8315591e-09 1.2329201e-07 
-9.7874766e-09 1.5095891e-05 -5.3023032e-06 
6.1371602e-06 2.1057247e-05 -5.1366794e-07 
0.0000000e+00 3.3372722e-05 0.0000000e+00 
0.0000000e+00 1.3879822e-04 0.0000000e+00 
0.0000000e+00 2.6875059e-04 0.0000000e+00 
0.0000000e+00 3.6366985e-04 0.0000000e+00 
0.0000000e+00 3.5806058e-04 0.0000000e+00 
0.0000000e+00 2.4885044e-04 0.0000000e+00 
0.0000000e+00 -2.5598190e-05 0.0000000e+00 
0.0000000e+00 -4.2970534e-04 0.0000000e+00 
0.0000000e+00 -7.3183788e-04 0.0000000e+00 
0.0000000e+00 -8.8279531e-04 0.0000000e+00 
0.0000000e+00 -9.1736438e-04 0.0000000e+00 
0.0000000e+00 -7.2733662e-04 0.0000000e+00 
0.0000000e+00 -2.8749401e-04 0.0000000e+00 
0.0000000e+00 -9.7867000e-05 0.0000000e+00 