# vtk DataFile Version 4.0
vtk output
ASCII
DATASET UNSTRUCTURED_GRID
POINTS 1919 float
0.0000000e+00 0.0000000e+00 0.0000000e+00 
0.0000000e+00 0.0000000e+00 5.0000000e+01 
5.0000000e+00 0.0000000e+00 0.0000000e+00 
5.0000000e+00 0.0000000e+00 5.0000000e+01 
5.0000000e+00 1.0000000e+00 0.0000000e+00 
5.0000000e+00 1.0000000e+00 5.0000000e+01 
0.0000000e+00 1.0000000e+00 0.0000000e+00 
0.0000000e+00 1.0000000e+00 5.0000000e+01 
5.0000000e+00 2.0000000e+00 0.0000000e+00 
5.0000000e+00 2.0000000e+00 5.0000000e+01 
3.0000000e+00 2.0000000e+00 0.0000000e+00 
3.0000000e+00 2.0000000e+00 5.0000000e+01 
0.0000000e+00 2.0000000e+00 0.0000000e+00 
0.0000000e+00 2.0000000e+00 5.0000000e+01 
1.5000000e+00 3.0000000e+00 0.0000000e+00 
1.5000000e+00 3.0000000e+00 5.0000000e+01 
7.5000000e-01 3.0000000e+00 0.0000000e+00 
7.5000000e-01 3.0000000e+00 5.0000000e+01 
0.0000000e+00 3.0000000e+00 0.0000000e+00 
0.0000000e+00 3.0000000e+00 5.0000000e+01 
7.5000000e-01 3.0000000e+00 5.0000000e-01 
7.5000000e-01 3.0000000e+00 1.0000000e+00 
7.5000000e-01 3.0000000e+00 1.5000000e+00 
7.5000000e-01 3.0000000e+00 2.0000000e+00 
7.5000000e-01 3.0000000e+00 2.5000000e+00 
7.5000000e-01 3.0000000e+00 3.0000000e+00 
7.5000000e-01 3.0000000e+00 3.5000000e+00 
7.5000000e-01 3.0000000e+00 4.0000000e+00 
7.5000000e-01 3.0000000e+00 4.5000000e+00 
7.5000000e-01 3.0000000e+00 5.0000000e+00 
7.5000000e-01 3.0000000e+00 5.5000000e+00 
7.5000000e-01 3.0000000e+00 6.0000000e+00 
7.5000000e-01 3.0000000e+00 6.5000000e+00 
7.5000000e-01 3.0000000e+00 7.0000000e+00 
7.5000000e-01 3.0000000e+00 7.5000000e+00 
7.5000000e-01 3.0000000e+00 8.0000000e+00 
7.5000000e-01 3.0000000e+00 8.5000000e+00 
7.5000000e-01 3.0000000e+00 9.0000000e+00 
7.5000000e-01 3.0000000e+00 9.5000000e+00 
7.5000000e-01 3.0000000e+00 1.0000000e+01 
7.5000000e-01 3.0000000e+00 1.0500000e+01 
7.5000000e-01 3.0000000e+00 1.1000000e+01 
7.5000000e-01 3.0000000e+00 1.1500000e+01 
7.5000000e-01 3.0000000e+00 1.2000000e+01 
7.5000000e-01 3.0000000e+00 1.2500000e+01 
7.5000000e-01 3.0000000e+00 1.3000000e+01 
7.5000000e-01 3.0000000e+00 1.3500000e+01 
7.5000000e-01 3.0000000e+00 1.4000000e+01 
7.5000000e-01 3.0000000e+00 1.4500000e+01 
7.5000000e-01 3.0000000e+00 1.5000000e+01 
7.5000000e-01 3.0000000e+00 1.5500000e+01 
7.5000000e-01 3.0000000e+00 1.6000000e+01 
7.5000000e-01 3.0000000e+00 1.6500000e+01 
7.5000000e-01 3.0000000e+00 1.7000000e+01 
7.5000000e-01 3.0000000e+00 1.7500000e+01 
7.5000000e-01 3.0000000e+00 1.8000000e+01 
7.5000000e-01 3.0000000e+00 1.8500000e+01 
7.5000000e-01 3.0000000e+00 1.9000000e+01 
7.5000000e-01 3.0000000e+00 1.9500000e+01 
7.5000000e-01 3.0000000e+00 2.0000000e+01 
7.5000000e-01 3.0000000e+00 2.0500000e+01 
7.5000000e-01 3.0000000e+00 2.1000000e+01 
7.5000000e-01 3.0000000e+00 2.1500000e+01 
7.5000000e-01 3.0000000e+00 2.2000000e+01 
7.5000000e-01 3.0000000e+00 2.2500000e+01 
7.5000000e-01 3.0000000e+00 2.3000000e+01 
7.5000000e-01 3.0000000e+00 2.3500000e+01 
7.5000000e-01 3.0000000e+00 2.4000000e+01 
7.5000000e-01 3.0000000e+00 2.4500000e+01 
7.5000000e-01 3.0000000e+00 2.5000000e+01 
7.5000000e-01 3.0000000e+00 2.5500000e+01 
7.5000000e-01 3.0000000e+00 2.6000000e+01 
7.5000000e-01 3.0000000e+00 2.6500000e+01 
7.5000000e-01 3.0000000e+00 2.7000000e+01 
7.5000000e-01 3.0000000e+00 2.7500000e+01 
7.5000000e-01 3.0000000e+00 2.8000000e+01 
7.5000000e-01 3.0000000e+00 2.8500000e+01 
7.5000000e-01 3.0000000e+00 2.9000000e+01 
7.5000000e-01 3.0000000e+00 2.9500000e+01 
7.5000000e-01 3.0000000e+00 3.0000000e+01 
7.5000000e-01 3.0000000e+00 3.0500000e+01 
7.5000000e-01 3.0000000e+00 3.1000000e+01 
7.5000000e-01 3.0000000e+00 3.1500000e+01 
7.5000000e-01 3.0000000e+00 3.2000000e+01 
7.5000000e-01 3.0000000e+00 3.2500000e+01 
7.5000000e-01 3.0000000e+00 3.3000000e+01 
7.5000000e-01 3.0000000e+00 3.3500000e+01 
7.5000000e-01 3.0000000e+00 3.4000000e+01 
7.5000000e-01 3.0000000e+00 3.4500000e+01 
7.5000000e-01 3.0000000e+00 3.5000000e+01 
7.5000000e-01 3.0000000e+00 3.5500000e+01 
7.5000000e-01 3.0000000e+00 3.6000000e+01 
7.5000000e-01 3.0000000e+00 3.6500000e+01 
7.5000000e-01 3.0000000e+00 3.7000000e+01 
7.5000000e-01 3.0000000e+00 3.7500000e+01 
7.5000000e-01 3.0000000e+00 3.8000000e+01 
7.5000000e-01 3.0000000e+00 3.8500000e+01 
7.5000000e-01 3.0000000e+00 3.9000000e+01 
7.5000000e-01 3.0000000e+00 3.9500000e+01 
7.5000000e-01 3.0000000e+00 4.0000000e+01 
7.5000000e-01 3.0000000e+00 4.0500000e+01 
7.5000000e-01 3.0000000e+00 4.1000000e+01 
7.5000000e-01 3.0000000e+00 4.1500000e+01 
7.5000000e-01 3.0000000e+00 4.2000000e+01 
7.5000000e-01 3.0000000e+00 4.2500000e+01 
7.5000000e-01 3.0000000e+00 4.3000000e+01 
7.5000000e-01 3.0000000e+00 4.3500000e+01 
7.5000000e-01 3.0000000e+00 4.4000000e+01 
7.5000000e-01 3.0000000e+00 4.4500000e+01 
7.5000000e-01 3.0000000e+00 4.5000000e+01 
7.5000000e-01 3.0000000e+00 4.5500000e+01 
7.5000000e-01 3.0000000e+00 4.6000000e+01 
7.5000000e-01 3.0000000e+00 4.6500000e+01 
7.5000000e-01 3.0000000e+00 4.7000000e+01 
7.5000000e-01 3.0000000e+00 4.7500000e+01 
7.5000000e-01 3.0000000e+00 4.8000000e+01 
7.5000000e-01 3.0000000e+00 4.8500000e+01 
7.5000000e-01 3.0000000e+00 4.9000000e+01 
7.5000000e-01 3.0000000e+00 4.9500000e+01 
7.5000000e-01 3.0250001e+00 0.0000000e+00 
7.5000000e-01 3.0250001e+00 5.0000000e-01 
7.5000000e-01 3.0250001e+00 1.0000000e+00 
7.5000000e-01 3.0250001e+00 1.5000000e+00 
7.5000000e-01 3.0250001e+00 2.0000000e+00 
7.5000000e-01 3.0250001e+00 2.5000000e+00 
7.5000000e-01 3.0250001e+00 3.0000000e+00 
7.5000000e-01 3.0250001e+00 3.5000000e+00 
7.5000000e-01 3.0250001e+00 4.0000000e+00 
7.5000000e-01 3.0250001e+00 4.5000000e+00 
7.5000000e-01 3.0250001e+00 5.0000000e+00 
7.5000000e-01 3.0250001e+00 5.5000000e+00 
7.5000000e-01 3.0250001e+00 6.0000000e+00 
7.5000000e-01 3.0250001e+00 6.5000000e+00 
7.5000000e-01 3.0250001e+00 7.0000000e+00 
7.5000000e-01 3.0250001e+00 7.5000000e+00 
7.5000000e-01 3.0250001e+00 8.0000000e+00 
7.5000000e-01 3.0250001e+00 8.5000000e+00 
7.5000000e-01 3.0250001e+00 9.0000000e+00 
7.5000000e-01 3.0250001e+00 9.5000000e+00 
7.5000000e-01 3.0250001e+00 1.0000000e+01 
7.5000000e-01 3.0250001e+00 1.0500000e+01 
7.5000000e-01 3.0250001e+00 1.1000000e+01 
7.5000000e-01 3.0250001e+00 1.1500000e+01 
7.5000000e-01 3.0250001e+00 1.2000000e+01 
7.5000000e-01 3.0250001e+00 1.2500000e+01 
7.5000000e-01 3.0250001e+00 1.3000000e+01 
7.5000000e-01 3.0250001e+00 1.3500000e+01 
7.5000000e-01 3.0250001e+00 1.4000000e+01 
7.5000000e-01 3.0250001e+00 1.4500000e+01 
7.5000000e-01 3.0250001e+00 1.5000000e+01 
7.5000000e-01 3.0250001e+00 1.5500000e+01 
7.5000000e-01 3.0250001e+00 1.6000000e+01 
7.5000000e-01 3.0250001e+00 1.6500000e+01 
7.5000000e-01 3.0250001e+00 1.7000000e+01 
7.5000000e-01 3.0250001e+00 1.7500000e+01 
7.5000000e-01 3.0250001e+00 1.8000000e+01 
7.5000000e-01 3.0250001e+00 1.8500000e+01 
7.5000000e-01 3.0250001e+00 1.9000000e+01 
7.5000000e-01 3.0250001e+00 1.9500000e+01 
7.5000000e-01 3.0250001e+00 2.0000000e+01 
7.5000000e-01 3.0250001e+00 2.0500000e+01 
7.5000000e-01 3.0250001e+00 2.1000000e+01 
7.5000000e-01 3.0250001e+00 2.1500000e+01 
7.5000000e-01 3.0250001e+00 2.2000000e+01 
7.5000000e-01 3.0250001e+00 2.2500000e+01 
7.5000000e-01 3.0250001e+00 2.3000000e+01 
7.5000000e-01 3.0250001e+00 2.3500000e+01 
7.5000000e-01 3.0250001e+00 2.4000000e+01 
7.5000000e-01 3.0250001e+00 2.4500000e+01 
7.5000000e-01 3.0250001e+00 2.5000000e+01 
7.5000000e-01 3.0250001e+00 2.5500000e+01 
7.5000000e-01 3.0250001e+00 2.6000000e+01 
7.5000000e-01 3.0250001e+00 2.6500000e+01 
7.5000000e-01 3.0250001e+00 2.7000000e+01 
7.5000000e-01 3.0250001e+00 2.7500000e+01 
7.5000000e-01 3.0250001e+00 2.8000000e+01 
7.5000000e-01 3.0250001e+00 2.8500000e+01 
7.5000000e-01 3.0250001e+00 2.9000000e+01 
7.5000000e-01 3.0250001e+00 2.9500000e+01 
7.5000000e-01 3.0250001e+00 3.0000000e+01 
7.5000000e-01 3.0250001e+00 3.0500000e+01 
7.5000000e-01 3.0250001e+00 3.1000000e+01 
7.5000000e-01 3.0250001e+00 3.1500000e+01 
7.5000000e-01 3.0250001e+00 3.2000000e+01 
7.5000000e-01 3.0250001e+00 3.2500000e+01 
7.5000000e-01 3.0250001e+00 3.3000000e+01 
7.5000000e-01 3.0250001e+00 3.3500000e+01 
7.5000000e-01 3.0250001e+00 3.4000000e+01 
7.5000000e-01 3.0250001e+00 3.4500000e+01 
7.5000000e-01 3.0250001e+00 3.5000000e+01 
7.5000000e-01 3.0250001e+00 3.5500000e+01 
7.5000000e-01 3.0250001e+00 3.6000000e+01 
7.5000000e-01 3.0250001e+00 3.6500000e+01 
7.5000000e-01 3.0250001e+00 3.7000000e+01 
7.5000000e-01 3.0250001e+00 3.7500000e+01 
7.5000000e-01 3.0250001e+00 3.8000000e+01 
7.5000000e-01 3.0250001e+00 3.8500000e+01 
7.5000000e-01 3.0250001e+00 3.9000000e+01 
7.5000000e-01 3.0250001e+00 3.9500000e+01 
7.5000000e-01 3.0250001e+00 4.0000000e+01 
7.5000000e-01 3.0250001e+00 4.0500000e+01 
7.5000000e-01 3.0250001e+00 4.1000000e+01 
7.5000000e-01 3.0250001e+00 4.1500000e+01 
7.5000000e-01 3.0250001e+00 4.2000000e+01 
7.5000000e-01 3.0250001e+00 4.2500000e+01 
7.5000000e-01 3.0250001e+00 4.3000000e+01 
7.5000000e-01 3.0250001e+00 4.3500000e+01 
7.5000000e-01 3.0250001e+00 4.4000000e+01 
7.5000000e-01 3.0250001e+00 4.4500000e+01 
7.5000000e-01 3.0250001e+00 4.5000000e+01 
7.5000000e-01 3.0250001e+00 4.5500000e+01 
7.5000000e-01 3.0250001e+00 4.6000000e+01 
7.5000000e-01 3.0250001e+00 4.6500000e+01 
7.5000000e-01 3.0250001e+00 4.7000000e+01 
7.5000000e-01 3.0250001e+00 4.7500000e+01 
7.5000000e-01 3.0250001e+00 4.8000000e+01 
7.5000000e-01 3.0250001e+00 4.8500000e+01 
7.5000000e-01 3.0250001e+00 4.9000000e+01 
7.5000000e-01 3.0250001e+00 4.9500000e+01 
7.5000000e-01 3.0250001e+00 5.0000000e+01 
1.5000000e+00 3.0000000e+00 2.5000000e+01 
3.0000000e+00 2.0000000e+00 2.5000000e+01 
4.0000000e+00 2.0000000e+00 2.5000000e+01 
5.0000000e+00 2.0000000e+00 2.5000000e+01 
0.0000000e+00 3.0000000e+00 2.5000000e+01 
0.0000000e+00 0.0000000e+00 1.0000000e+00 
0.0000000e+00 0.0000000e+00 2.0000000e+00 
0.0000000e+00 0.0000000e+00 3.0000000e+00 
0.0000000e+00 0.0000000e+00 4.0000000e+00 
0.0000000e+00 0.0000000e+00 5.0000000e+00 
[...]
POINT_DATA 1919
FIELD FieldData 3
DISPLACEMENT 3 1919  float
0.0000000e+00 0.0000000e+00 0.0000000e+00 
0.0000000e+00 0.0000000e+00 0.0000000e+00 
0.0000000e+00 0.0000000e+00 0.0000000e+00 
0.0000000e+00 0.0000000e+00 0.0000000e+00 
-1.5262589e-07 5.7589466e-07 2.3954874e-07 
-7.6461015e-07 -3.0591872e-07 2.0317354e-07 
0.0000000e+00 -9.2094831e-07 0.0000000e+00 
0.0000000e+00 -1.2198562e-06 0.0000000e+00 
-8.4678828e-07 7.5815501e-07 1.5678462e-07 
-6.3900296e-07 -9.8328280e-07 1.5109538e-06 
-3.9336291e-07 -6.7976140e-07 1.0466301e-06 
-8.4409237e-07 8.5955298e-07 -2.7129381e-06 
0.0000000e+00 -3.2170385e-06 0.0000000e+00 
0.0000000e+00 -6.3140433e-06 0.0000000e+00 
1.1684549e-06 -5.3093645e-06 -7.2830453e-06 
1.6223515e-06 -9.2704022e-06 7.3725587e-06 
3.8591666e-06 2.0293573e-06 -1.4943514e-06 
3.6447420e-06 -1.4867093e-05 4.2581382e-06 
0.0000000e+00 -5.4925890e-06 0.0000000e+00 
0.0000000e+00 -2.3422681e-05 0.0000000e+00 
3.1816210e-06 2.8276781e-06 -1.9386675e-07 
5.2479559e-06 5.0888430e-06 2.4920153e-06 
8.2740025e-06 8.3002960e-06 6.7919336e-06 
1.0343597e-05 1.2048829e-05 1.1248630e-05 
8.7235703e-06 1.5600190e-05 1.3154729e-05 
9.4862435e-06 1.8376704e-05 1.2441233e-05 
8.0913178e-06 2.0088379e-05 1.1501752e-05 
8.9865271e-06 2.0431138e-05 8.4062094e-06 
8.2384304e-06 1.9532790e-05 8.0988430e-06 
8.4777830e-06 1.7497483e-05 7.3443957e-06 
7.0264236e-06 1.4819374e-05 8.7038352e-06 
7.0201768e-06 1.1827278e-05 6.2346166e-06 
3.3558290e-06 9.1760621e-06 1.7513836e-06 
5.0757985e-06 7.3034216e-06 -5.5230989e-06 
6.3332072e-06 6.7741612e-06 -1.1482415e-05 
1.0276992e-05 7.1124346e-06 -1.3557808e-05 
1.1742043e-05 7.9296642e-06 -1.2943893e-05 
1.2418151e-05 8.3883860e-06 -9.9404724e-06 
1.0891953e-05 8.2673168e-06 -8.9983287e-06 
1.2372911e-05 7.6564656e-06 -8.1805774e-06 
1.1698602e-05 6.7424658e-06 -1.0272204e-05 
1.3130680e-05 5.6512249e-06 -1.1896114e-05 
1.3353108e-05 4.5145957e-06 -1.2649220e-05 
1.2755097e-05 3.5317100e-06 -1.0034110e-05 
9.9084655e-06 3.4260861e-06 -7.8411049e-06 
4.2775227e-06 5.0859230e-06 -6.2316772e-06 
-1.0068225e-06 9.5635969e-06 -9.2268774e-06 
-8.0331375e-07 1.7674412e-05 -1.0759893e-05 
1.4866959e-06 2.9951267e-05 -1.2676721e-05 
-8.4490642e-07 4.6374993e-05 -6.2393310e-06 
-2.4020442e-06 6.5956679e-05 1.4816062e-06 
-2.6593573e-06 8.4186737e-05 1.5690561e-05 
-2.2664888e-06 9.0766560e-05 2.9551617e-05 
-6.7016763e-06 6.4222615e-05 5.7396293e-05 
-1.7721533e-05 -3.0991192e-05 9.1734575e-05 
-2.6944070e-05 -2.3965776e-04 1.0460195e-04 
-5.3597530e-05 -6.2232855e-04 1.9648808e-04 
-7.2939009e-05 -1.2360645e-03 1.6467861e-04 
-1.2375684e-04 -2.1234404e-03 2.7872785e-04 
-1.5474332e-04 -3.2319189e-03 1.3747709e-04 
-2.1964552e-04 -4.3787030e-03 2.2299707e-04 
-2.7307769e-04 -5.0519672e-03 6.2281179e-05 
-2.9543453e-04 -4.9029333e-03 1.2743491e-05 
-2.3787799e-04 -4.5586852e-03 6.6308926e-06 
-3.4159911e-04 -4.4692992e-03 1.0252197e-05 
-2.2644388e-04 -4.5836060e-03 -5.9192822e-05 
-2.2384766e-04 -4.4397335e-03 -1.9093989e-04 
-1.0087631e-04 -3.4412995e-03 -1.6274488e-04 
-9.5118558e-05 -2.1896663e-03 -2.1848033e-04 
-3.8209451e-05 -1.1115592e-03 -1.3577829e-04 
-1.2311974e-05 -3.7711253e-04 -1.4756926e-04 
5.3234571e-06 3.6193876e-05 -6.9525304e-05 
1.4848687e-05 2.1089017e-04 -5.4185359e-05 
1.7907614e-05 2.3999381e-04 -2.8425213e-05 
1.6564500e-05 2.0014486e-04 -1.2972112e-05 
1.5127981e-05 1.3808729e-04 -1.4481924e-05 
1.2699987e-05 8.1980783e-05 -7.6456445e-06 
9.4717507e-06 4.0250616e-05 -1.0075762e-05 
5.1690176e-06 1.4322000e-05 -9.0898984e-06 
4.1337821e-06 7.1997130e-07 -1.2800747e-05 
4.6598093e-06 -4.2468619e-06 -1.5801264e-05 
7.5582429e-06 -4.0226851e-06 -1.6834125e-05 
8.1815197e-06 -1.1261722e-06 -1.5501551e-05 
1.0113614e-05 2.7680351e-06 -1.1072756e-05 
8.9085288e-06 6.9964794e-06 -8.0337522e-06 
9.1121547e-06 1.2035828e-05 -6.0263296e-06 
8.2901870e-06 1.9056462e-05 -6.7284095e-06 
3.6260735e-06 2.9309764e-05 -4.3661967e-06 
-7.3614007e-07 4.3955835e-05 -5.0879894e-06 
4.4542236e-07 6.2431733e-05 -1.9447496e-06 
5.5926870e-07 8.2792059e-05 3.3246824e-06 
-4.9333662e-06 9.8909608e-05 1.6487211e-05 
-9.4192465e-06 9.9206714e-05 3.1234591e-05 
-7.9277252e-06 6.0569633e-05 4.8391244e-05 
-2.1869202e-05 -5.2724805e-05 8.5626903e-05 
-6.4063745e-05 -2.9319976e-04 1.6789799e-04 
-6.6459819e-05 -7.2190817e-04 1.9896244e-04 
-8.5900756e-05 -1.3911308e-03 1.6434313e-04 
-1.3574566e-04 -2.3327488e-03 2.8053211e-04 
-1.6411432e-04 -3.4663025e-03 1.3277665e-04 
-2.3733442e-04 -4.5637325e-03 2.1125692e-04 
-2.6130167e-04 -5.0490852e-03 6.8379522e-05 
-2.4447712e-04 -4.7896048e-03 1.5980724e-05 
-2.3781635e-04 -4.4624060e-03 -9.1750680e-06 
-2.0607145e-04 -4.4400105e-03 -1.1592896e-05 
-2.2405759e-04 -4.5481673e-03 -1.0587044e-04 
-2.0623817e-04 -4.2144260e-03 -1.8521509e-04 
-1.6890014e-04 -3.1153506e-03 -1.3812544e-04 
-1.0031179e-04 -1.8974885e-03 -2.3730686e-04 
-7.1719929e-05 -9.0684619e-04 -1.2593703e-04 
-2.2334381e-05 -2.5696162e-04 -1.4327819e-04 
-9.0975000e-06 9.1216411e-05 -7.2674316e-05 
4.2692282e-06 2.2478087e-04 -5.2314608e-05 
5.7437564e-06 2.3159674e-04 -2.9822962e-05 
6.4130209e-06 1.8193439e-04 -1.2453464e-05 
2.1666028e-06 1.1742472e-04 -1.1286655e-05 
2.2550789e-06 6.0020968e-05 -5.0746019e-07 
9.7173540e-07 1.8282535e-05 -4.3579547e-07 
1.0717503e-06 -6.5467034e-06 2.5890263e-06 
0.0000000e+00 2.0448895e-06 0.0000000e+00 
0.0000000e+00 2.8490031e-06 0.0000000e+00 
0.0000000e+00 5.0899894e-06 0.0000000e+00 
0.0000000e+00 8.3255891e-06 0.0000000e+00 
0.0000000e+00 1.2052155e-05 0.0000000e+00 
0.0000000e+00 1.5598196e-05 0.0000000e+00 
0.0000000e+00 1.8390307e-05 0.0000000e+00 
0.0000000e+00 2.0083811e-05 0.0000000e+00 
0.0000000e+00 2.0448178e-05 0.0000000e+00 
0.0000000e+00 1.9530627e-05 0.0000000e+00 
0.0000000e+00 1.7518030e-05 0.0000000e+00 
0.0000000e+00 1.4813830e-05 0.0000000e+00 
0.0000000e+00 1.1842061e-05 0.0000000e+00 
0.0000000e+00 9.1813117e-06 0.0000000e+00 
0.0000000e+00 7.3667643e-06 0.0000000e+00 
0.0000000e+00 6.7866995e-06 0.0000000e+00 
0.0000000e+00 7.1490208e-06 0.0000000e+00 
0.0000000e+00 7.9128113e-06 0.0000000e+00 
0.0000000e+00 8.3822779e-06 0.0000000e+00 
0.0000000e+00 8.2749102e-06 0.0000000e+00 
0.0000000e+00 7.6723400e-06 0.0000000e+00 
0.0000000e+00 6.7575502e-06 0.0000000e+00 
0.0000000e+00 5.6590429e-06 0.0000000e+00 
0.0000000e+00 4.4933536e-06 0.0000000e+00 
0.0000000e+00 3.5243929e-06 0.0000000e+00 
0.0000000e+00 3.4204816e-06 0.0000000e+00 
0.0000000e+00 5.0986641e-06 0.0000000e+00 
0.0000000e+00 9.5818250e-06 0.0000000e+00 
0.0000000e+00 1.7707007e-05 0.0000000e+00 
0.0000000e+00 3.0007997e-05 0.0000000e+00 
0.0000000e+00 4.6552905e-05 0.0000000e+00 
0.0000000e+00 6.6255860e-05 0.0000000e+00 
0.0000000e+00 8.4792206e-05 0.0000000e+00 
0.0000000e+00 9.1520844e-05 0.0000000e+00 
0.0000000e+00 6.4774002e-05 0.0000000e+00 
0.0000000e+00 -3.0116884e-05 0.0000000e+00 
0.0000000e+00 -2.3964715e-04 0.0000000e+00 
0.0000000e+00 -6.2305108e-04 0.0000000e+00 
0.0000000e+00 -1.2407504e-03 0.0000000e+00 
0.0000000e+00 -2.1305466e-03 0.0000000e+00 
0.0000000e+00 -3.2492422e-03 0.0000000e+00 
0.0000000e+00 -4.3987399e-03 0.0000000e+00 
0.0000000e+00 -5.0834622e-03 0.0000000e+00 
0.0000000e+00 -4.9282163e-03 0.0000000e+00 
0.0000000e+00 -4.5838729e-03 0.0000000e+00 
0.0000000e+00 -4.4914274e-03 0.0000000e+00 
0.0000000e+00 -4.6178615e-03 0.0000000e+00 
0.0000000e+00 -4.4596316e-03 0.0000000e+00 
0.0000000e+00 -3.4650154e-03 0.0000000e+00 
0.0000000e+00 -2.2031162e-03 0.0000000e+00 
0.0000000e+00 -1.1207766e-03 0.0000000e+00 
0.0000000e+00 -3.7974195e-04 0.0000000e+00 
0.0000000e+00 3.6152302e-05 0.0000000e+00 
0.0000000e+00 2.1199204e-04 0.0000000e+00 
0.0000000e+00 2.4165194e-04 0.0000000e+00 
0.0000000e+00 2.0116387e-04 0.0000000e+00 
0.0000000e+00 1.3907412e-04 0.0000000e+00 
0.0000000e+00 8.2333238e-05 0.0000000e+00 
0.0000000e+00 4.0466923e-05 0.0000000e+00 
0.0000000e+00 1.4327386e-05 0.0000000e+00 
0.0000000e+00 7.0251082e-07 0.0000000e+00 
0.0000000e+00 -4.2860888e-06 0.0000000e+00 
0.0000000e+00 -4.0553291e-06 0.0000000e+00 
0.0000000e+00 -1.1677432e-06 0.0000000e+00 
0.0000000e+00 2.7172823e-06 0.0000000e+00 
0.0000000e+00 6.9697180e-06 0.0000000e+00 
0.0000000e+00 1.2040216e-05 0.0000000e+00 
0.0000000e+00 1.9072822e-05 0.0000000e+00 
0.0000000e+00 2.9401974e-05 0.0000000e+00 
0.0000000e+00 4.4039574e-05 0.0000000e+00 
0.0000000e+00 6.2653737e-05 0.0000000e+00 
0.0000000e+00 8.3097584e-05 0.0000000e+00 
0.0000000e+00 9.9520541e-05 0.0000000e+00 
0.0000000e+00 9.9909630e-05 0.0000000e+00 
0.0000000e+00 6.1508130e-05 0.0000000e+00 
0.0000000e+00 -5.2220596e-05 0.0000000e+00 
0.0000000e+00 -2.9347016e-04 0.0000000e+00 
0.0000000e+00 -7.2295108e-04 0.0000000e+00 
0.0000000e+00 -1.3967315e-03 0.0000000e+00 
0.0000000e+00 -2.3408448e-03 0.0000000e+00 
0.0000000e+00 -3.4852379e-03 0.0000000e+00 
0.0000000e+00 -4.5850719e-03 0.0000000e+00 
0.0000000e+00 -5.0809039e-03 0.0000000e+00 
0.0000000e+00 -4.8134904e-03 0.0000000e+00 
0.0000000e+00 -4.4901553e-03 0.0000000e+00 
0.0000000e+00 -4.4618216e-03 0.0000000e+00 
0.0000000e+00 -4.5780800e-03 0.0000000e+00 
0.0000000e+00 -4.2380481e-03 0.0000000e+00 
0.0000000e+00 -3.1379040e-03 0.0000000e+00 
0.0000000e+00 -1.9093219e-03 0.0000000e+00 
0.0000000e+00 -9.1396534e-04 0.0000000e+00 
0.0000000e+00 -2.5896620e-04 0.0000000e+00 
0.0000000e+00 9.1595306e-05 0.0000000e+00 
0.0000000e+00 2.2592074e-04 0.0000000e+00 
0.0000000e+00 2.3316841e-04 0.0000000e+00 
0.0000000e+00 1.8298249e-04 0.0000000e+00 
0.0000000e+00 1.1808707e-04 0.0000000e+00 
0.0000000e+00 6.0368693e-05 0.0000000e+00 
0.0000000e+00 1.8335884e-05 0.0000000e+00 
0.0000000e+00 -6.5920299e-06 0.0000000e+00 
0.0000000e+00 -1.4860804e-05 0.0000000e+00 
-1.6748105e-04 -4.1568992e-04 -2.4961118e-04 
2.6948142e-05 -2.5889625e-05 1.7688237e-05 
2.2276814e-05 -7.3263150e-06 1.3883722e-05 
1.5355554e-05 -1.6147551e-06 1.3146058e-05 
0.0000000e+00 -2.4354299e-04 0.0000000e+00 
0.0000000e+00 0.0000000e+00 0.0000000e+00 
0.0000000e+00 0.0000000e+00 0.0000000e+00 
0.0000000e+00 0.0000000e+00 0.0000000e+00 
0.0000000e+00 0.0000000e+00 0.0000000e+00 
0.0000000e+00 0.0000000e+00 0.0000000e+00 
0.0000000e+00 0.0000000e+00 0.0000000e+00 
0.0000000e+00 0.0000000e+00 0.0000000e+00 
0.0000000e+00 0.0000000e+00 0.0000000e+00 
0.0000000e+00 0.0000000e+00 0.0000000e+00 
0.0000000e+00 0.0000000e+00 0.0000000e+00 
0.0000000e+00 0.0000000e+00 0.0000000e+00 
0.0000000e+00 0.0000000e+00 0.0000000e+00 
0.0000000e+00 0.0000000e+00 0.0000000e+00 
0.0000000e+00 0.0000000e+00 0.0000000e+00 
0.0000000e+00 0.0000000e+00 0.0000000e+00 
0.0000000e+00 0.0000000e+00 0.0000000e+00 
0.0000000e+00 0.0000000e+00 0.0000000e+00 
0.0000000e+00 0.0000000e+00 0.0000000e+00 
0.0000000e+00 0.0000000e+00 0.0000000e+00 
0.0000000e+00 0.0000000e+00 0.0000000e+00 
0.0000000e+00 0.0000000e+00 0.0000000e+00 
0.0000000e+00 0.0000000e+00 0.0000000e+00 
0.0000000e+00 0.0000000e+00 0.0000000e+00 
0.0000000e+00 0.0000000e+00 0.0000000e+00 
0.0000000e+00 0.0000000e+00 0.0000000e+00 
0.0000000e+00 0.0000000e+00 0.0000000e+00 
0.0000000e+00 0.0000000e+00 0.0000000e+00 
0.0000000e+00 0.0000000e+00 0.0000000e+00 
0.0000000e+00 0.0000000e+00 0.0000000e+00 
0.0000000e+00 0.0000000e+00 0.0000000e+00 
0.0000000e+00 0.0000000e+00 0.0000000e+00 
0.0000000e+00 0.0000000e+00 0.0000000e+00 
0.0000000e+00 0.0000000e+00 0.0000000e+00 
0.0000000e+00 0.0000000e+00 0.0000000e+00 
0.0000000e+00 0.0000000e+00 0.0000000e+00 
0.0000000e+00 0.0000000e+00 0.0000000e+00 
0.0000000e+00 0.0000000e+00 0.0000000e+00 
0.0000000e+00 0.0000000e+00 0.0000000e+00 
0.0000000e+00 0.0000000e+00 0.0000000e+00 
0.0000000e+00 0.0000000e+00 0.0000000e+00 
0.0000000e+00 0.0000000e+00 0.0000000e+00 
0.0000000e+00 0.0000000e+00 0.0000000e+00 
0.0000000e+00 0.0000000e+00 0.0000000e+00 
0.0000000e+00 0.0000000e+00 0.0000000e+00 
0.0000000e+00 0.0000000e+00 0.0000000e+00 
0.0000000e+00 0.0000000e+00 0.0000000e+00 
0.0000000e+00 0.0000000e+00 0.0000000e+00 
0.0000000e+00 0.0000000e+00 0.0000000e+00 
0.0000000e+00 0.0000000e+00 0.0000000e+00 
0.0000000e+00 0.0000000e+00 0.0000000e+00 
0.0000000e+00 0.0000000e+00 0.0000000e+00 
0.0000000e+00 0.0000000e+00 0.0000000e+00 
0.0000000e+00 0.0000000e+00 0.0000000e+00 
0.0000000e+00 0.0000000e+00 0.0000000e+00 
0.0000000e+00 0.0000000e+00 0.0000000e+00 
0.0000000e+00 0.0000000e+00 0.0000000e+00 
0.0000000e+00 0.0000000e+00 0.0000000e+00 
0.0000000e+00 0.0000000e+00 0.0000000e+00 
0.0000000e+00 0.0000000e+00 0.0000000e+00 
0.0000000e+00 0.0000000e+00 0.0000000e+00 
0.0000000e+00 0.0000000e+00 0.0000000e+00 
0.0000000e+00 0.0000000e+00 0.0000000e+00 
0.0000000e+00 0.0000000e+00 0.0000000e+00 
0.0000000e+00 0.0000000e+00 0.0000000e+00 
0.0000000e+00 0.0000000e+00 0.0000000e+00 
0.0000000e+00 0.0000000e+00 0.0000000e+00 
0.0000000e+00 0.0000000e+00 0.0000000e+00 
0.0000000e+00 0.0000000e+00 0.0000000e+00 
0.0000000e+00 0.0000000e+00 0.0000000e+00 
0.0000000e+00 0.0000000e+00 0.0000000e+00 
0.0000000e+00 0.0000000e+00 0.0000000e+00 
0.0000000e+00 0.0000000e+00 0.0000000e+00 
0.0000000e+00 0.0000000e+00 0.0000000e+00 
0.0000000e+00 0.0000000e+00 0.0000000e+00 
0.0000000e+00 0.0000000e+00 0.0000000e+00 
0.0000000e+00 0.0000000e+00 0.0000000e+00 
0.0000000e+00 0.0000000e+00 0.0000000e+00 
0.0000000e+00 0.0000000e+00 0.0000000e+00 
0.0000000e+00 0.0000000e+00 0.0000000e+00 
0.0000000e+00 0.0000000e+00 0.0000000e+00 
0.0000000e+00 0.0000000e+00 0.0000000e+00 
0.0000000e+00 0.0000000e+00 0.0000000e+00 
0.0000000e+00 0.0000000e+00 0.0000000e+00 
0.0000000e+00 0.0000000e+00 0.0000000e+00 
0.0000000e+00 0.0000000e+00 0.0000000e+00 
0.0000000e+00 0.0000000e+00 0.0000000e+00 
0.0000000e+00 0.0000000e+00 0.0000000e+00 
0.0000000e+00 0.0000000e+00 0.0000000e+00 
0.0000000e+00 0.0000000e+00 0.0000000e+00 
0.0000000e+00 0.0000000e+00 0.0000000e+00 
0.0000000e+00 0.0000000e+00 0.0000000e+00 
0.0000000e+00 0.0000000e+00 0.0000000e+00 
0.0000000e+00 0.0000000e+00 0.0000000e+00 
0.0000000e+00 0.0000000e+00 0.0000000e+00 
0.0000000e+00 0.0000000e+00 0.0000000e+00 
0.0000000e+00 0.0000000e+00 0.0000000e+00 
0.0000000e+00 0.0000000e+00 0.0000000e+00 
0.0000000e+00 0.0000000e+00 0.0000000e+00 
0.0000000e+00 0.0000000e+00 0.0000000e+00 
0.0000000e+00 0.0000000e+00 0.0000000e+00 
0.0000000e+00 0.0000000e+00 0.0000000e+00 
0.0000000e+00 0.0000000e+00 0.0000000e+00 
0.0000000e+00 0.0000000e+00 0.0000000e+00 
0.0000000e+00 0.0000000e+00 0.0000000e+00 
0.0000000e+00 0.0000000e+00 0.0000000e+00 
0.0000000e+00 0.0000000e+00 0.0000000e+00 
-6.4020242e-08 6.6189932e-07 7.6438667e-08 
4.9909573e-07 4.6281511e-07 2.6172046e-07 
1.1705513e-06 3.9281346e-08 6.5578979e-07 
1.4171727e-06 8.1276355e-08 7.3384962e-07 
1.6026657e-06 -1.0882752e-07 7.9221678e-07 
1.5216505e-06 -2.3264957e-07 7.0370800e-07 
1.5878145e-06 -1.2659771e-07 2.9259277e-07 
1.3717090e-06 4.4190423e-07 -3.1209973e-07 
1.3782420e-06 3.5956049e-07 -6.1031278e-07 
1.6009444e-06 2.4962998e-07 2.1078202e-07 
1.3712838e-06 3.5347190e-07 1.0438229e-06 
4.5665112e-07 3.2996198e-07 9.7787245e-07 
-1.7587600e-07 5.7669229e-07 -1.4928300e-07 
-2.6025819e-07 5.1347530e-07 -1.5219465e-06 
6.4276378e-07 2.7077363e-07 -4.1696389e-06 
3.1402531e-06 -7.9341572e-07 -7.3538381e-06 
8.9159130e-06 -3.7753591e-06 -1.0848163e-05 
2.0133279e-05 -7.0974252e-06 -1.4277624e-05 
3.2416385e-05 -1.1211813e-05 -1.2791783e-05 
4.3157870e-05 -1.5079316e-05 -7.9001429e-06 
4.9335275e-05 -1.6781603e-05 -4.0786808e-06 
4.6349262e-05 -1.3090939e-05 5.8576306e-06 
3.9397961e-05 -1.1698359e-05 1.3388742e-05 
3.0599658e-05 -9.8886594e-06 1.6138652e-05 
1.9796817e-05 -4.6900718e-06 1.4354440e-05 
1.0343622e-05 -3.2900568e-06 1.0242545e-05 
5.1768470e-06 -2.5538830e-06 6.5095624e-06 
1.4523453e-06 -4.5428038e-07 2.2214344e-06 
7.7232255e-07 -1.8582107e-08 -8.5086953e-08 
1.6144260e-07 2.8680302e-07 -3.2159303e-07 
-6.4505252e-07 8.3617607e-07 1.7075358e-07 
-8.9964078e-07 1.0935411e-06 1.5629716e-07 
-9.3965781e-07 1.1308338e-06 -1.1544716e-07 
-2.4362896e-07 9.0698552e-07 -1.2538553e-06 
1.1122705e-06 4.5124972e-07 -2.7924686e-06 
5.0085991e-06 -9.0426562e-07 -6.6168063e-06 
1.2922978e-05 -4.6468454e-06 -1.1092484e-05 
2.4313887e-05 -8.8978368e-06 -1.3619506e-05 
3.4365181e-05 -1.2717840e-05 -1.3756793e-05 
4.4088458e-05 -1.7981771e-05 -9.1075344e-06 
4.8909496e-05 -1.6895789e-05 -2.9490036e-06 
4.9440707e-05 -1.6429407e-05 6.8078880e-06 
4.1061354e-05 -1.3195067e-05 1.3032000e-05 
2.8938264e-05 -9.1024876e-06 1.6069360e-05 
1.6221711e-05 -4.5389415e-06 1.4527414e-05 
9.9631416e-06 -2.2598649e-06 1.0039491e-05 
4.2407164e-06 -7.9785696e-07 6.2982026e-06 
9.6945269e-07 1.1975946e-07 2.0929624e-06 
-3.2999941e-07 3.7419855e-07 2.3348456e-07 
0.0000000e+00 -5.5846508e-06 0.0000000e+00 
0.0000000e+00 -8.2527158e-06 0.0000000e+00 
0.0000000e+00 -9.1684169e-06 0.0000000e+00 
0.0000000e+00 -8.6214059e-06 0.0000000e+00 
0.0000000e+00 -7.7543373e-06 0.0000000e+00 
0.0000000e+00 -8.1569597e-06 0.0000000e+00 
0.0000000e+00 -1.0317348e-05 0.0000000e+00 
0.0000000e+00 -1.1998355e-05 0.0000000e+00 
0.0000000e+00 -1.2436549e-05 0.0000000e+00 
0.0000000e+00 -1.2417624e-05 0.0000000e+00 
0.0000000e+00 -1.0429136e-05 0.0000000e+00 
0.0000000e+00 -5.8733340e-06 0.0000000e+00 
0.0000000e+00 -3.3588592e-06 0.0000000e+00 
0.0000000e+00 1.3020250e-06 0.0000000e+00 
0.0000000e+00 4.5487100e-06 0.0000000e+00 
0.0000000e+00 4.5410025e-06 0.0000000e+00 
0.0000000e+00 -1.3716459e-05 0.0000000e+00 
0.0000000e+00 -6.8065237e-05 0.0000000e+00 
0.0000000e+00 -2.1422743e-04 0.0000000e+00 
0.0000000e+00 -4.1074655e-04 0.0000000e+00 
0.0000000e+00 -5.3652498e-04 0.0000000e+00 
0.0000000e+00 -5.6442025e-04 0.0000000e+00 
0.0000000e+00 -5.3864636e-04 0.0000000e+00 
0.0000000e+00 -3.7221611e-04 0.0000000e+00 
0.0000000e+00 -1.4455909e-04 0.0000000e+00 
0.0000000e+00 -1.6896562e-05 0.0000000e+00 
0.0000000e+00 1.8553512e-05 0.0000000e+00 
0.0000000e+00 1.5562211e-05 0.0000000e+00 
0.0000000e+00 3.4881864e-06 0.0000000e+00 
0.0000000e+00 -7.6903389e-06 0.0000000e+00 
0.0000000e+00 -1.0296953e-05 0.0000000e+00 
0.0000000e+00 -9.5599153e-06 0.0000000e+00 
0.0000000e+00 -8.7061389e-06 0.0000000e+00 
0.0000000e+00 -5.6075896e-06 0.0000000e+00 
0.0000000e+00 1.1871963e-06 0.0000000e+00 
0.0000000e+00 4.7147569e-06 0.0000000e+00 
0.0000000e+00 -1.2522003e-05 0.0000000e+00 
0.0000000e+00 -7.7271063e-05 0.0000000e+00 
0.0000000e+00 -2.3192303e-04 0.0000000e+00 
0.0000000e+00 -3.9765352e-04 0.0000000e+00 
0.0000000e+00 -5.3091382e-04 0.0000000e+00 
0.0000000e+00 -5.3914473e-04 0.0000000e+00 
0.0000000e+00 -4.7106238e-04 0.0000000e+00 
0.0000000e+00 -3.1152071e-04 0.0000000e+00 
0.0000000e+00 -1.3575796e-04 0.0000000e+00 
0.0000000e+00 -2.0862917e-05 0.0000000e+00 
0.0000000e+00 1.6992841e-05 0.0000000e+00 
0.0000000e+00 1.4467221e-05 0.0000000e+00 
0.0000000e+00 5.8371525e-06 0.0000000e+00 
-3.1282573e-07 6.4691356e-08 2.1852338e-07 
-2.4058551e-07 -4.3589072e-08 8.9027986e-07 
5.9128234e-07 5.8298991e-07 2.1036490e-06 
1.3557334e-06 -3.9728639e-07 2.3693392e-06 
-1.2568669e-06 2.7114365e-07 -9.1909624e-07 
-1.2199554e-06 9.6143640e-07 -2.8486268e-06 
-3.4619441e-07 2.0058733e-06 -4.4401409e-06 
8.5012033e-07 6.8919906e-07 -4.4050680e-06 
-9.7353870e-07 -1.2047704e-07 8.3608364e-07 
-1.1314555e-06 -3.9663103e-08 -6.3595462e-07 
7.8163151e-07 -1.8955608e-06 4.3782520e-06 
3.1985795e-07 -4.6357070e-07 2.4398519e-06 
0.0000000e+00 -8.8509541e-06 0.0000000e+00 
0.0000000e+00 -1.1719521e-05 0.0000000e+00 
0.0000000e+00 -1.3939368e-05 0.0000000e+00 
0.0000000e+00 -1.2581215e-05 0.0000000e+00 
0.0000000e+00 -1.1223850e-05 0.0000000e+00 
0.0000000e+00 -1.2760824e-05 0.0000000e+00 
0.0000000e+00 -1.7655926e-05 0.0000000e+00 
0.0000000e+00 -2.0356576e-05 0.0000000e+00 
0.0000000e+00 -2.0882828e-05 0.0000000e+00 
0.0000000e+00 -2.0653008e-05 0.0000000e+00 
0.0000000e+00 -1.6948105e-05 0.0000000e+00 
0.0000000e+00 -9.6390795e-06 0.0000000e+00 
0.0000000e+00 -3.7738548e-06 0.0000000e+00 
0.0000000e+00 3.7897037e-06 0.0000000e+00 