# vtk DataFile Version 4.0
vtk output
ASCII
DATASET UNSTRUCTURED_GRID
POINTS 1919 float
0.0000000e+00 0.0000000e+00 0.0000000e+00 
0.0000000e+00 0.0000000e+00 5.0000000e+01 
5.0000000e+00 0.0000000e+00 0.0000000e+00 
5.0000000e+00 0.0000000e+00 5.0000000e+01 
5.0000000e+00 1.0000000e+00 0.0000000e+00 
5.0000000e+00 1.0000000e+00 5.0000000e+01 
0.0000000e+00 1.0000000e+00 0.0000000e+00 
0.0000000e+00 1.0000000e+00 5.0000000e+01 
5.0000000e+00 2.0000000e+00 0.0000000e+00 
5.0000000e+00 2.0000000e+00 5.0000000e+01 
3.0000000e+00 2.0000000e+00 0.0000000e+00 
3.0000000e+00 2.0000000e+00 5.0000000e+01 
0.0000000e+00 2.0000000e+00 0.0000000e+00 
0.0000000e+00 2.0000000e+00 5.0000000e+01 
1.5000000e+00 3.0000000e+00 0.0000000e+00 
1.5000000e+00 3.0000000e+00 5.0000000e+01 
7.5000000e-01 3.0000000e+00 0.0000000e+00 
7.5000000e-01 3.0000000e+00 5.0000000e+01 
0.0000000e+00 3.0000000e+00 0.0000000e+00 
0.0000000e+00 3.0000000e+00 5.0000000e+01 
7.5000000e-01 3.0000000e+00 5.0000000e-01 
7.5000000e-01 3.0000000e+00 1.0000000e+00 
7.5000000e-01 3.0000000e+00 1.5000000e+00 
7.5000000e-01 3.0000000e+00 2.0000000e+00 
7.5000000e-01 3.0000000e+00 2.5000000e+00 
7.5000000e-01 3.0000000e+00 3.0000000e+00 
7.5000000e-01 3.0000000e+00 3.5000000e+00 
7.5000000e-01 3.0000000e+00 4.0000000e+00 
7.5000000e-01 3.0000000e+00 4.5000000e+00 
7.5000000e-01 3.0000000e+00 5.0000000e+00 
7.5000000e-01 3.0000000e+00 5.5000000e+00 
7.5000000e-01 3.0000000e+00 6.0000000e+00 
7.5000000e-01 3.0000000e+00 6.5000000e+00 
7.5000000e-01 3.0000000e+00 7.0000000e+00 
7.5000000e-01 3.0000000e+00 7.5000000e+00 
7.5000000e-01 3.0000000e+00 8.0000000e+00 
7.5000000e-01 3.0000000e+00 8.5000000e+00 
7.5000000e-01 3.0000000e+00 9.0000000e+00 
7.5000000e-01 3.0000000e+00 9.5000000e+00 
7.5000000e-01 3.0000000e+00 1.0000000e+01 
7.5000000e-01 3.0000000e+00 1.0500000e+01 
7.5000000e-01 3.0000000e+00 1.1000000e+01 
7.5000000e-01 3.0000000e+00 1.1500000e+01 
7.5000000e-01 3.0000000e+00 1.2000000e+01 
7.5000000e-01 3.0000000e+00 1.2500000e+01 
7.5000000e-01 3.0000000e+00 1.3000000e+01 
7.5000000e-01 3.0000000e+00 1.3500000e+01 
7.5000000e-01 3.0000000e+00 1.4000000e+01 
7.5000000e-01 3.0000000e+00 1.4500000e+01 
7.5000000e-01 3.0000000e+00 1.5000000e+01 
7.5000000e-01 3.0000000e+00 1.5500000e+01 
7.5000000e-01 3.0000000e+00 1.6000000e+01 
7.5000000e-01 3.0000000e+00 1.6500000e+01 
7.5000000e-01 3.0000000e+00 1.7000000e+01 
7.5000000e-01 3.0000000e+00 1.7500000e+01 
7.5000000e-01 3.0000000e+00 1.8000000e+01 
7.5000000e-01 3.0000000e+00 1.8500000e+01 
7.5000000e-01 3.0000000e+00 1.9000000e+01 
7.5000000e-01 3.0000000e+00 1.9500000e+01 
7.5000000e-01 3.0000000e+00 2.0000000e+01 
7.5000000e-01 3.0000000e+00 2.0500000e+01 
7.5000000e-01 3.0000000e+00 2.1000000e+01 
7.5000000e-01 3.0000000e+00 2.1500000e+01 
7.5000000e-01 3.0000000e+00 2.2000000e+01 
7.5000000e-01 3.0000000e+00 2.2500000e+01 
7.5000000e-01 3.0000000e+00 2.3000000e+01 
7.5000000e-01 3.0000000e+00 2.3500000e+01 
7.5000000e-01 3.0000000e+00 2.4000000e+01 
7.5000000e-01 3.0000000e+00 2.4500000e+01 
7.5000000e-01 3.0000000e+00 2.5000000e+01 
7.5000000e-01 3.0000000e+00 2.5500000e+01 
7.5000000e-01 3.0000000e+00 2.6000000e+01 
7.5000000e-01 3.0000000e+00 2.6500000e+01 
7.5000000e-01 3.0000000e+00 2.7000000e+01 
7.5000000e-01 3.0000000e+00 2.7500000e+01 
7.5000000e-01 3.0000000e+00 2.8000000e+01 
7.5000000e-01 3.0000000e+00 2.8500000e+01 
7.5000000e-01 3.0000000e+00 2.9000000e+01 
7.5000000e-01 3.0000000e+00 2.9500000e+01 
7.5000000e-01 3.0000000e+00 3.0000000e+01 
7.5000000e-01 3.0000000e+00 3.0500000e+01 
7.5000000e-01 3.0000000e+00 3.1000000e+01 
7.5000000e-01 3.0000000e+00 3.1500000e+01 
7.5000000e-01 3.0000000e+00 3.2000000e+01 
7.5000000e-01 3.0000000e+00 3.2500000e+01 
7.5000000e-01 3.0000000e+00 3.3000000e+01 
7.5000000e-01 3.0000000e+00 3.3500000e+01 
7.5000000e-01 3.0000000e+00 3.4000000e+01 
7.5000000e-01 3.0000000e+00 3.4500000e+01 
7.5000000e-01 3.0000000e+00 3.5000000e+01 
7.5000000e-01 3.0000000e+00 3.5500000e+01 
7.5000000e-01 3.0000000e+00 3.6000000e+01 
7.5000000e-01 3.0000000e+00 3.6500000e+01 
7.5000000e-01 3.0000000e+00 3.7000000e+01 
7.5000000e-01 3.0000000e+00 3.7500000e+01 
7.5000000e-01 3.0000000e+00 3.8000000e+01 
7.5000000e-01 3.0000000e+00 3.8500000e+01 
7.5000000e-01 3.0000000e+00 3.9000000e+01 
7.5000000e-01 3.0000000e+00 3.9500000e+01 
7.5000000e-01 3.0000000e+00 4.0000000e+01 
7.5000000e-01 3.0000000e+00 4.0500000e+01 
7.5000000e-01 3.0000000e+00 4.1000000e+01 
7.5000000e-01 3.0000000e+00 4.1500000e+01 
7.5000000e-01 3.0000000e+00 4.2000000e+01 
7.5000000e-01 3.0000000e+00 4.2500000e+01 
7.5000000e-01 3.0000000e+00 4.3000000e+01 
7.5000000e-01 3.0000000e+00 4.3500000e+01 
7.5000000e-01 3.0000000e+00 4.4000000e+01 
7.5000000e-01 3.0000000e+00 4.4500000e+01 
7.5000000e-01 3.0000000e+00 4.5000000e+01 
7.5000000e-01 3.0000000e+00 4.5500000e+01 
7.5000000e-01 3.0000000e+00 4.6000000e+01 
7.5000000e-01 3.0000000e+00 4.6500000e+01 
7.5000000e-01 3.0000000e+00 4.7000000e+01 
7.5000000e-01 3.0000000e+00 4.7500000e+01 
7.5000000e-01 3.0000000e+00 4.8000000e+01 
7.5000000e-01 3.0000000e+00 4.8500000e+01 
7.5000000e-01 3.0000000e+00 4.9000000e+01 
7.5000000e-01 3.0000000e+00 4.9500000e+01 
7.5000000e-01 3.0250001e+00 0.0000000e+00 
7.5000000e-01 3.0250001e+00 5.0000000e-01 
7.5000000e-01 3.0250001e+00 1.0000000e+00 
7.5000000e-01 3.0250001e+00 1.5000000e+00 
7.5000000e-01 3.0250001e+00 2.0000000e+00 
7.5000000e-01 3.0250001e+00 2.5000000e+00 
7.5000000e-01 3.0250001e+00 3.0000000e+00 
7.5000000e-01 3.0250001e+00 3.5000000e+00 
7.5000000e-01 3.0250001e+00 4.0000000e+00 
7.5000000e-01 3.0250001e+00 4.5000000e+00 
7.5000000e-01 3.0250001e+00 5.0000000e+00 
7.5000000e-01 3.0250001e+00 5.5000000e+00 
7.5000000e-01 3.0250001e+00 6.0000000e+00 
7.5000000e-01 3.0250001e+00 6.5000000e+00 
7.5000000e-01 3.0250001e+00 7.0000000e+00 
7.5000000e-01 3.0250001e+00 7.5000000e+00 
7.5000000e-01 3.0250001e+00 8.0000000e+00 
7.5000000e-01 3.0250001e+00 8.5000000e+00 
7.5000000e-01 3.0250001e+00 9.0000000e+00 
7.5000000e-01 3.0250001e+00 9.5000000e+00 
7.5000000e-01 3.0250001e+00 1.0000000e+01 
7.5000000e-01 3.0250001e+00 1.0500000e+01 
7.5000000e-01 3.0250001e+00 1.1000000e+01 
7.5000000e-01 3.0250001e+00 1.1500000e+01 
7.5000000e-01 3.0250001e+00 1.2000000e+01 
7.5000000e-01 3.0250001e+00 1.2500000e+01 
7.5000000e-01 3.0250001e+00 1.3000000e+01 
7.5000000e-01 3.0250001e+00 1.3500000e+01 
7.5000000e-01 3.0250001e+00 1.4000000e+01 
7.5000000e-01 3.0250001e+00 1.4500000e+01 
7.5000000e-01 3.0250001e+00 1.5000000e+01 
7.5000000e-01 3.0250001e+00 1.5500000e+01 
7.5000000e-01 3.0250001e+00 1.6000000e+01 
7.5000000e-01 3.0250001e+00 1.6500000e+01 
7.5000000e-01 3.0250001e+00 1.7000000e+01 
7.5000000e-01 3.0250001e+00 1.7500000e+01 
7.5000000e-01 3.0250001e+00 1.8000000e+01 
7.5000000e-01 3.0250001e+00 1.8500000e+01 
7.5000000e-01 3.0250001e+00 1.9000000e+01 
7.5000000e-01 3.0250001e+00 1.9500000e+01 
7.5000000e-01 3.0250001e+00 2.0000000e+01 
7.5000000e-01 3.0250001e+00 2.0500000e+01 
7.5000000e-01 3.0250001e+00 2.1000000e+01 
7.5000000e-01 3.0250001e+00 2.1500000e+01 
7.5000000e-01 3.0250001e+00 2.2000000e+01 
7.5000000e-01 3.0250001e+00 2.2500000e+01 
7.5000000e-01 3.0250001e+00 2.3000000e+01 
7.5000000e-01 3.0250001e+00 2.3500000e+01 
7.5000000e-01 3.0250001e+00 2.4000000e+01 
7.5000000e-01 3.0250001e+00 2.4500000e+01 
7.5000000e-01 3.0250001e+00 2.5000000e+01 
7.5000000e-01 3.0250001e+00 2.5500000e+01 
7.5000000e-01 3.0250001e+00 2.6000000e+01 
7.5000000e-01 3.0250001e+00 2.6500000e+01 
7.5000000e-01 3.0250001e+00 2.7000000e+01 
7.5000000e-01 3.0250001e+00 2.7500000e+01 
7.5000000e-01 3.0250001e+00 2.8000000e+01 
7.5000000e-01 3.0250001e+00 2.8500000e+01 
7.5000000e-01 3.0250001e+00 2.9000000e+01 
7.5000000e-01 3.0250001e+00 2.9500000e+01 
7.5000000e-01 3.0250001e+00 3.0000000e+01 
7.5000000e-01 3.0250001e+00 3.0500000e+01 
7.5000000e-01 3.0250001e+00 3.1000000e+01 
7.5000000e-01 3.0250001e+00 3.1500000e+01 
7.5000000e-01 3.0250001e+00 3.2000000e+01 
7.5000000e-01 3.0250001e+00 3.2500000e+01 
7.5000000e-01 3.0250001e+00 3.3000000e+01 
7.5000000e-01 3.0250001e+00 3.3500000e+01 
7.5000000e-01 3.0250001e+00 3.4000000e+01 
7.5000000e-01 3.0250001e+00 3.4500000e+01 
7.5000000e-01 3.0250001e+00 3.5000000e+01 
7.5000000e-01 3.0250001e+00 3.5500000e+01 
7.5000000e-01 3.0250001e+00 3.6000000e+01 
7.5000000e-01 3.0250001e+00 3.6500000e+01 
7.5000000e-01 3.0250001e+00 3.7000000e+01 
7.5000000e-01 3.0250001e+00 3.7500000e+01 
7.5000000e-01 3.0250001e+00 3.8000000e+01 
7.5000000e-01 3.0250001e+00 3.8500000e+01 
7.5000000e-01 3.0250001e+00 3.9000000e+01 
7.5000000e-01 3.0250001e+00 3.9500000e+01 
7.5000000e-01 3.0250001e+00 4.0000000e+01 
7.5000000e-01 3.0250001e+00 4.0500000e+01 
7.5000000e-01 3.0250001e+00 4.1000000e+01 
7.5000000e-01 3.0250001e+00 4.1500000e+01 
7.5000000e-01 3.0250001e+00 4.2000000e+01 
7.5000000e-01 3.0250001e+00 4.2500000e+01 
7.5000000e-01 3.0250001e+00 4.3000000e+01 
7.5000000e-01 3.0250001e+00 4.3500000e+01 
7.5000000e-01 3.0250001e+00 4.4000000e+01 
7.5000000e-01 3.0250001e+00 4.4500000e+01 
7.5000000e-01 3.0250001e+00 4.5000000e+01 
7.5000000e-01 3.0250001e+00 4.5500000e+01 
7.5000000e-01 3.0250001e+00 4.6000000e+01 
7.5000000e-01 3.0250001e+00 4.6500000e+01 
7.5000000e-01 3.0250001e+00 4.7000000e+01 
7.5000000e-01 3.0250001e+00 4.7500000e+01 
7.5000000e-01 3.0250001e+00 4.8000000e+01 
7.5000000e-01 3.0250001e+00 4.8500000e+01 
7.5000000e-01 3.0250001e+00 4.9000000e+01 
7.5000000e-01 3.0250001e+00 4.9500000e+01 
7.5000000e-01 3.0250001e+00 5.0000000e+01 
1.5000000e+00 3.0000000e+00 2.5000000e+01 
3.0000000e+00 2.0000000e+00 2.5000000e+01 
4.0000000e+00 2.0000000e+00 2.5000000e+01 
5.0000000e+00 2.0000000e+00 2.5000000e+01 
0.0000000e+00 3.0000000e+00 2.5000000e+01 
0.0000000e+00 0.0000000e+00 1.0000000e+00 
0.0000000e+00 0.0000000e+00 2.0000000e+00 
0.0000000e+00 0.0000000e+00 3.0000000e+00 
0.0000000e+00 0.0000000e+00 4.0000000e+00 
0.0000000e+00 0.0000000e+00 5.0000000e+00 
[...]
POINT_DATA 1919
FIELD FieldData 3
DISPLACEMENT 3 1919  float
0.0000000e+00 0.0000000e+00 0.0000000e+00 
0.0000000e+00 0.0000000e+00 0.0000000e+00 
0.0000000e+00 0.0000000e+00 0.0000000e+00 
0.0000000e+00 0.0000000e+00 0.0000000e+00 
-1.5098054e-06 -7.9989826e-07 3.3816244e-07 
1.1415425e-06 -4.6157669e-07 2.0135781e-06 
0.0000000e+00 1.5440841e-07 0.0000000e+00 
0.0000000e+00 -1.2453650e-06 0.0000000e+00 
-7.0965552e-07 -2.5487313e-06 5.8278090e-07 
1.2046372e-06 2.1892242e-07 1.6900284e-06 
-4.5860011e-06 1.6457491e-06 5.0892090e-06 
6.3493394e-07 -2.2687998e-06 3.7205666e-06 
0.0000000e+00 4.9026116e-08 0.0000000e+00 
0.0000000e+00 -1.7091908e-07 0.0000000e+00 
-9.6413460e-06 2.4088472e-06 1.2891805e-05 
-1.4111391e-06 -6.8052617e-07 3.6869742e-06 
-1.2175075e-05 -9.9653516e-06 4.1490080e-06 
7.7846130e-09 7.3850092e-06 -1.4556488e-06 
0.0000000e+00 -5.8350111e-06 0.0000000e+00 
0.0000000e+00 5.2038840e-06 0.0000000e+00 
-9.8967130e-06 -1.0624740e-05 3.5311193e-06 
-1.1578768e-05 -1.2871238e-05 2.3547773e-06 
-1.1370865e-05 -1.6781010e-05 2.2240727e-06 
-1.6213469e-05 -2.1925409e-05 2.0384425e-06 
-1.6186241e-05 -2.7205422e-05 4.0427672e-06 
-1.4222349e-05 -3.1522621e-05 2.1642868e-06 
-1.2940632e-05 -3.4770204e-05 -1.7356462e-07 
-1.1279064e-05 -3.6827438e-05 -1.4967007e-06 
-8.8837478e-06 -3.8144419e-05 2.0073621e-06 
-1.1128070e-05 -3.8152826e-05 9.6872218e-06 
-4.9593823e-06 -3.7077360e-05 1.1491665e-05 
-8.1079479e-06 -3.4597535e-05 8.1000135e-06 
-7.1174100e-06 -3.1398016e-05 4.8006591e-06 
-9.6081340e-06 -2.7878617e-05 6.7907608e-06 
-9.9349218e-06 -2.4436766e-05 1.1985750e-05 
-1.5401303e-05 -2.0723448e-05 1.9620409e-05 
-1.9658613e-05 -1.7102342e-05 1.8693701e-05 
-2.2049979e-05 -1.2868111e-05 1.0936612e-05 
-2.0380776e-05 -7.5692628e-06 3.4718266e-06 
-2.0877278e-05 -1.8654015e-07 -2.6055970e-06 
-1.7014252e-05 1.0458174e-05 -3.4112306e-06 
-2.5573081e-05 2.5336318e-05 -3.0976159e-06 
-3.0155419e-05 4.4657212e-05 -2.3591897e-06 
-2.9161716e-05 6.4490843e-05 1.0727140e-06 
-2.9439676e-05 7.5134325e-05 3.3967808e-06 
-2.3789624e-05 5.5206248e-05 1.3634089e-05 
-2.4345911e-05 -2.8494476e-05 6.1811275e-05 
-3.2831234e-05 -2.2555767e-04 8.2518556e-05 
-5.4424971e-05 -5.9815007e-04 1.7252976e-04 
-6.8614863e-05 -1.2059446e-03 1.3482007e-04 
-1.1561933e-04 -2.0920360e-03 2.4471717e-04 
-1.5088567e-04 -3.2036272e-03 9.6061704e-05 
-2.7246773e-04 -4.3554599e-03 1.5842539e-04 
-6.2948605e-04 -5.0470699e-03 9.3643990e-05 
-2.7304751e-04 -4.8428527e-03 3.7116195e-05 
-2.0712870e-04 -4.4528390e-03 3.9228111e-05 
-2.0303755e-04 -4.3347557e-03 -1.8591698e-05 
-2.1902136e-04 -4.4184239e-03 -7.0916212e-05 
-2.2570523e-04 -4.2365505e-03 -1.4459011e-04 
-2.0374302e-04 -3.2744333e-03 -1.1620331e-04 
-1.3164550e-04 -2.0889828e-03 -2.2865040e-04 
-1.0150850e-04 -1.0725063e-03 -1.2143581e-04 
-4.6843619e-05 -3.7436391e-04 -1.4569980e-04 
-3.0452229e-05 2.3293587e-05 -9.2185248e-05 
-9.2632108e-06 1.9764979e-04 -6.4363383e-05 
-5.4224511e-06 2.3264984e-04 -5.3307474e-05 
-1.9550369e-06 1.9947960e-04 -3.9375369e-05 
3.8936838e-07 1.4001341e-04 -2.8531087e-05 
8.0174505e-06 8.1283142e-05 -1.5571643e-05 
9.8991532e-06 3.4293120e-05 -1.2989371e-05 
2.4528977e-06 1.4964186e-06 -4.7181584e-06 
4.9767864e-06 -1.8390028e-05 -7.6404940e-06 
7.3609508e-06 -2.8827884e-05 -4.9806035e-06 
5.5306682e-06 -3.2578184e-05 -3.5375324e-06 
3.0371500e-06 -3.2432068e-05 3.3563763e-06 
-5.2474902e-06 -2.9542836e-05 9.2432274e-06 
-1.1295400e-05 -2.5011561e-05 9.0697886e-06 
-1.5959777e-05 -1.8675495e-05 2.3638481e-06 
-1.4577497e-05 -1.0411130e-05 -6.4484316e-06 
-1.8704059e-05 5.3875107e-07 -8.4136636e-06 
-1.5732918e-05 1.4693108e-05 -4.4519161e-06 
-1.8391713e-05 3.2325584e-05 3.1184863e-06 
-1.8588573e-05 5.1792231e-05 8.0640848e-06 
-1.7244733e-05 6.8244248e-05 1.8659404e-05 
-2.0703088e-05 7.1294802e-05 3.1457032e-05 
-2.0672407e-05 3.9184604e-05 5.0889321e-05 
-3.3010980e-05 -6.2237683e-05 9.5907424e-05 
-4.0265219e-05 -2.8368036e-04 1.1464642e-04 
-7.1456678e-05 -6.8721955e-04 2.0375034e-04 
-8.4429521e-05 -1.3272717e-03 1.6409064e-04 
-1.3959747e-04 -2.2386971e-03 2.6758286e-04 
-1.7056378e-04 -3.3480094e-03 1.1910048e-04 
-2.4558892e-04 -4.4386950e-03 1.9911614e-04 
-3.2617661e-04 -4.9531199e-03 4.7921953e-05 
-3.4332849e-04 -4.7576549e-03 -1.2959225e-05 
-5.3321267e-04 -4.4788942e-03 3.7575438e-07 
-2.2568750e-04 -4.4074999e-03 1.5359792e-05 
-1.8937580e-04 -4.4668783e-03 -6.1415165e-05 
-1.8789335e-04 -4.1109044e-03 -1.5626523e-04 
-1.6465857e-04 -3.0329954e-03 -1.1321808e-04 
-1.0846159e-04 -1.8492631e-03 -2.2960521e-04 
-7.9871003e-05 -8.8664726e-04 -1.3118828e-04 
-3.6451904e-05 -2.5149327e-04 -1.6234801e-04 
-2.3002442e-05 9.2953058e-05 -1.0149361e-04 
-1.1297464e-06 2.2906961e-04 -8.6265580e-05 
5.6448212e-06 2.3992349e-04 -5.9835631e-05 
7.9980491e-06 1.9256935e-04 -3.5003453e-05 
1.0462767e-05 1.2818730e-04 -2.7155787e-05 
9.6483245e-06 6.9665271e-05 -1.3462960e-05 
7.8884368e-06 2.5582520e-05 -1.2408984e-05 
6.9964503e-06 -3.0964595e-06 -2.8673849e-06 
8.2155793e-06 -1.8782595e-05 -1.3148342e-06 
5.5309147e-06 -2.4998910e-05 1.7502489e-06 
3.1109946e-06 -2.4511639e-05 3.9408092e-06 
4.9826240e-06 -1.9669549e-05 1.0742574e-05 
3.0146880e-06 -1.2603580e-05 1.4772007e-05 
-1.7166052e-06 -5.0298204e-06 1.2556839e-05 
-1.9358081e-06 1.3903446e-06 7.8008734e-06 
-4.7640210e-06 5.7757779e-06 1.2917327e-06 
0.0000000e+00 -9.9554491e-06 0.0000000e+00 
0.0000000e+00 -1.0640377e-05 0.0000000e+00 
0.0000000e+00 -1.2907009e-05 0.0000000e+00 
0.0000000e+00 -1.6836530e-05 0.0000000e+00 
0.0000000e+00 -2.1948275e-05 0.0000000e+00 
0.0000000e+00 -2.7179643e-05 0.0000000e+00 
0.0000000e+00 -3.1542953e-05 0.0000000e+00 
0.0000000e+00 -3.4773871e-05 0.0000000e+00 
0.0000000e+00 -3.6908277e-05 0.0000000e+00 
0.0000000e+00 -3.8142214e-05 0.0000000e+00 
0.0000000e+00 -3.8206086e-05 0.0000000e+00 
0.0000000e+00 -3.7059490e-05 0.0000000e+00 
0.0000000e+00 -3.4638353e-05 0.0000000e+00 
0.0000000e+00 -3.1438376e-05 0.0000000e+00 
0.0000000e+00 -2.7942548e-05 0.0000000e+00 
0.0000000e+00 -2.4426907e-05 0.0000000e+00 
0.0000000e+00 -2.0792280e-05 0.0000000e+00 
0.0000000e+00 -1.7111353e-05 0.0000000e+00 
0.0000000e+00 -1.2916718e-05 0.0000000e+00 
0.0000000e+00 -7.6071678e-06 0.0000000e+00 
0.0000000e+00 -2.0773402e-07 0.0000000e+00 
0.0000000e+00 1.0471485e-05 0.0000000e+00 
0.0000000e+00 2.5517020e-05 0.0000000e+00 
0.0000000e+00 4.4936329e-05 0.0000000e+00 
0.0000000e+00 6.5086242e-05 0.0000000e+00 
0.0000000e+00 7.5779652e-05 0.0000000e+00 
0.0000000e+00 5.6116318e-05 0.0000000e+00 
0.0000000e+00 -2.7770950e-05 0.0000000e+00 
0.0000000e+00 -2.2551806e-04 0.0000000e+00 
0.0000000e+00 -5.9896614e-04 0.0000000e+00 
0.0000000e+00 -1.2106597e-03 0.0000000e+00 
0.0000000e+00 -2.0990537e-03 0.0000000e+00 
0.0000000e+00 -3.2209780e-03 0.0000000e+00 
0.0000000e+00 -4.3791980e-03 0.0000000e+00 
0.0000000e+00 -5.0670579e-03 0.0000000e+00 
0.0000000e+00 -4.8711589e-03 0.0000000e+00 
0.0000000e+00 -4.4804597e-03 0.0000000e+00 
0.0000000e+00 -4.3557007e-03 0.0000000e+00 
0.0000000e+00 -4.4468557e-03 0.0000000e+00 
0.0000000e+00 -4.2594890e-03 0.0000000e+00 
0.0000000e+00 -3.2974384e-03 0.0000000e+00 
0.0000000e+00 -2.1015201e-03 0.0000000e+00 
0.0000000e+00 -1.0804585e-03 0.0000000e+00 
0.0000000e+00 -3.7698439e-04 0.0000000e+00 
0.0000000e+00 2.3340795e-05 0.0000000e+00 
0.0000000e+00 1.9856912e-04 0.0000000e+00 
0.0000000e+00 2.3426912e-04 0.0000000e+00 
0.0000000e+00 2.0030598e-04 0.0000000e+00 
0.0000000e+00 1.4081616e-04 0.0000000e+00 
0.0000000e+00 8.1720558e-05 0.0000000e+00 
0.0000000e+00 3.4459033e-05 0.0000000e+00 
0.0000000e+00 1.5779041e-06 0.0000000e+00 
0.0000000e+00 -1.8443439e-05 0.0000000e+00 
0.0000000e+00 -2.8849183e-05 0.0000000e+00 
0.0000000e+00 -3.2679549e-05 0.0000000e+00 
0.0000000e+00 -3.2463151e-05 0.0000000e+00 
0.0000000e+00 -2.9628965e-05 0.0000000e+00 
0.0000000e+00 -2.5033471e-05 0.0000000e+00 
0.0000000e+00 -1.8724850e-05 0.0000000e+00 
0.0000000e+00 -1.0424586e-05 0.0000000e+00 
0.0000000e+00 5.3138467e-07 0.0000000e+00 
0.0000000e+00 1.4769628e-05 0.0000000e+00 
0.0000000e+00 3.2468404e-05 0.0000000e+00 
0.0000000e+00 5.2075298e-05 0.0000000e+00 
0.0000000e+00 6.8830239e-05 0.0000000e+00 
0.0000000e+00 7.1953204e-05 0.0000000e+00 
0.0000000e+00 4.0093604e-05 0.0000000e+00 
0.0000000e+00 -6.1588202e-05 0.0000000e+00 
0.0000000e+00 -2.8390303e-04 0.0000000e+00 
0.0000000e+00 -6.8820646e-04 0.0000000e+00 
0.0000000e+00 -1.3326409e-03 0.0000000e+00 
0.0000000e+00 -2.2465049e-03 0.0000000e+00 
0.0000000e+00 -3.3664636e-03 0.0000000e+00 
0.0000000e+00 -4.4595790e-03 0.0000000e+00 
0.0000000e+00 -4.9856734e-03 0.0000000e+00 
0.0000000e+00 -4.7824220e-03 0.0000000e+00 
0.0000000e+00 -4.4972370e-03 0.0000000e+00 
0.0000000e+00 -4.4326382e-03 0.0000000e+00 
0.0000000e+00 -4.4961725e-03 0.0000000e+00 
0.0000000e+00 -4.1338033e-03 0.0000000e+00 
0.0000000e+00 -3.0546866e-03 0.0000000e+00 
0.0000000e+00 -1.8604995e-03 0.0000000e+00 
0.0000000e+00 -8.9331809e-04 0.0000000e+00 
0.0000000e+00 -2.5340734e-04 0.0000000e+00 
0.0000000e+00 9.3303868e-05 0.0000000e+00 
0.0000000e+00 2.3012004e-04 0.0000000e+00 
0.0000000e+00 2.4135383e-04 0.0000000e+00 
0.0000000e+00 1.9356028e-04 0.0000000e+00 
0.0000000e+00 1.2891409e-04 0.0000000e+00 
0.0000000e+00 7.0043665e-05 0.0000000e+00 
0.0000000e+00 2.5735571e-05 0.0000000e+00 
0.0000000e+00 -3.0597632e-06 0.0000000e+00 
0.0000000e+00 -1.8835099e-05 0.0000000e+00 
0.0000000e+00 -2.5033574e-05 0.0000000e+00 
0.0000000e+00 -2.4532623e-05 0.0000000e+00 
0.0000000e+00 -1.9701989e-05 0.0000000e+00 
0.0000000e+00 -1.2619395e-05 0.0000000e+00 
0.0000000e+00 -5.0745898e-06 0.0000000e+00 
0.0000000e+00 1.3892744e-06 0.0000000e+00 
0.0000000e+00 5.7737598e-06 0.0000000e+00 
0.0000000e+00 7.3609749e-06 0.0000000e+00 
3.4858858e-06 2.3746088e-05 -1.3153863e-05 
-8.3278856e-06 -1.9840913e-07 -7.9292540e-06 
-8.1289954e-06 4.5897705e-06 -1.9049713e-06 
-5.9449285e-06 2.9032581e-06 -8.0635874e-07 
0.0000000e+00 2.1546500e-06 0.0000000e+00 
0.0000000e+00 0.0000000e+00 0.0000000e+00 
0.0000000e+00 0.0000000e+00 0.0000000e+00 
0.0000000e+00 0.0000000e+00 0.0000000e+00 
0.0000000e+00 0.0000000e+00 0.0000000e+00 
0.0000000e+00 0.0000000e+00 0.0000000e+00 
0.0000000e+00 0.0000000e+00 0.0000000e+00 
0.0000000e+00 0.0000000e+00 0.0000000e+00 
0.0000000e+00 0.0000000e+00 0.0000000e+00 
0.0000000e+00 0.0000000e+00 0.0000000e+00 
0.0000000e+00 0.0000000e+00 0.0000000e+00 
0.0000000e+00 0.0000000e+00 0.0000000e+00 
0.0000000e+00 0.0000000e+00 0.0000000e+00 
0.0000000e+00 0.0000000e+00 0.0000000e+00 
0.0000000e+00 0.0000000e+00 0.0000000e+00 
0.0000000e+00 0.0000000e+00 0.0000000e+00 
0.0000000e+00 0.0000000e+00 0.0000000e+00 
0.0000000e+00 0.0000000e+00 0.0000000e+00 
0.0000000e+00 0.0000000e+00 0.0000000e+00 
0.0000000e+00 0.0000000e+00 0.0000000e+00 
0.0000000e+00 0.0000000e+00 0.0000000e+00 
0.0000000e+00 0.0000000e+00 0.0000000e+00 
0.0000000e+00 0.0000000e+00 0.0000000e+00 
0.0000000e+00 0.0000000e+00 0.0000000e+00 
0.0000000e+00 0.0000000e+00 0.0000000e+00 
0.0000000e+00 0.0000000e+00 0.0000000e+00 
0.0000000e+00 0.0000000e+00 0.0000000e+00 
0.0000000e+00 0.0000000e+00 0.0000000e+00 
0.0000000e+00 0.0000000e+00 0.0000000e+00 
0.0000000e+00 0.0000000e+00 0.0000000e+00 
0.0000000e+00 0.0000000e+00 0.0000000e+00 
0.0000000e+00 0.0000000e+00 0.0000000e+00 
0.0000000e+00 0.0000000e+00 0.0000000e+00 
0.0000000e+00 0.0000000e+00 0.0000000e+00 
0.0000000e+00 0.0000000e+00 0.0000000e+00 
0.0000000e+00 0.0000000e+00 0.0000000e+00 
0.0000000e+00 0.0000000e+00 0.0000000e+00 
0.0000000e+00 0.0000000e+00 0.0000000e+00 
0.0000000e+00 0.0000000e+00 0.0000000e+00 
0.0000000e+00 0.0000000e+00 0.0000000e+00 
0.0000000e+00 0.0000000e+00 0.0000000e+00 
0.0000000e+00 0.0000000e+00 0.0000000e+00 
0.0000000e+00 0.0000000e+00 0.0000000e+00 
0.0000000e+00 0.0000000e+00 0.0000000e+00 
0.0000000e+00 0.0000000e+00 0.0000000e+00 
0.0000000e+00 0.0000000e+00 0.0000000e+00 
0.0000000e+00 0.0000000e+00 0.0000000e+00 
0.0000000e+00 0.0000000e+00 0.0000000e+00 
0.0000000e+00 0.0000000e+00 0.0000000e+00 
0.0000000e+00 0.0000000e+00 0.0000000e+00 
0.0000000e+00 0.0000000e+00 0.0000000e+00 
0.0000000e+00 0.0000000e+00 0.0000000e+00 
0.0000000e+00 0.0000000e+00 0.0000000e+00 
0.0000000e+00 0.0000000e+00 0.0000000e+00 
0.0000000e+00 0.0000000e+00 0.0000000e+00 
0.0000000e+00 0.0000000e+00 0.0000000e+00 
0.0000000e+00 0.0000000e+00 0.0000000e+00 
0.0000000e+00 0.0000000e+00 0.0000000e+00 
0.0000000e+00 0.0000000e+00 0.0000000e+00 
0.0000000e+00 0.0000000e+00 0.0000000e+00 
0.0000000e+00 0.0000000e+00 0.0000000e+00 
0.0000000e+00 0.0000000e+00 0.0000000e+00 
0.0000000e+00 0.0000000e+00 0.0000000e+00 
0.0000000e+00 0.0000000e+00 0.0000000e+00 
0.0000000e+00 0.0000000e+00 0.0000000e+00 
0.0000000e+00 0.0000000e+00 0.0000000e+00 
0.0000000e+00 0.0000000e+00 0.0000000e+00 
0.0000000e+00 0.0000000e+00 0.0000000e+00 
0.0000000e+00 0.0000000e+00 0.0000000e+00 
0.0000000e+00 0.0000000e+00 0.0000000e+00 
0.0000000e+00 0.0000000e+00 0.0000000e+00 
0.0000000e+00 0.0000000e+00 0.0000000e+00 
0.0000000e+00 0.0000000e+00 0.0000000e+00 
0.0000000e+00 0.0000000e+00 0.0000000e+00 
0.0000000e+00 0.0000000e+00 0.0000000e+00 
0.0000000e+00 0.0000000e+00 0.0000000e+00 
0.0000000e+00 0.0000000e+00 0.0000000e+00 
0.0000000e+00 0.0000000e+00 0.0000000e+00 
0.0000000e+00 0.0000000e+00 0.0000000e+00 
0.0000000e+00 0.0000000e+00 0.0000000e+00 
0.0000000e+00 0.0000000e+00 0.0000000e+00 
0.0000000e+00 0.0000000e+00 0.0000000e+00 
0.0000000e+00 0.0000000e+00 0.0000000e+00 
0.0000000e+00 0.0000000e+00 0.0000000e+00 
0.0000000e+00 0.0000000e+00 0.0000000e+00 
0.0000000e+00 0.0000000e+00 0.0000000e+00 
0.0000000e+00 0.0000000e+00 0.0000000e+00 
0.0000000e+00 0.0000000e+00 0.0000000e+00 
0.0000000e+00 0.0000000e+00 0.0000000e+00 
0.0000000e+00 0.0000000e+00 0.0000000e+00 
0.0000000e+00 0.0000000e+00 0.0000000e+00 
0.0000000e+00 0.0000000e+00 0.0000000e+00 
0.0000000e+00 0.0000000e+00 0.0000000e+00 
0.0000000e+00 0.0000000e+00 0.0000000e+00 
0.0000000e+00 0.0000000e+00 0.0000000e+00 
0.0000000e+00 0.0000000e+00 0.0000000e+00 
0.0000000e+00 0.0000000e+00 0.0000000e+00 
0.0000000e+00 0.0000000e+00 0.0000000e+00 
0.0000000e+00 0.0000000e+00 0.0000000e+00 
0.0000000e+00 0.0000000e+00 0.0000000e+00 
0.0000000e+00 0.0000000e+00 0.0000000e+00 
0.0000000e+00 0.0000000e+00 0.0000000e+00 
0.0000000e+00 0.0000000e+00 0.0000000e+00 
0.0000000e+00 0.0000000e+00 0.0000000e+00 
0.0000000e+00 0.0000000e+00 0.0000000e+00 
0.0000000e+00 0.0000000e+00 0.0000000e+00 
0.0000000e+00 0.0000000e+00 0.0000000e+00 
-2.3729810e-06 -5.4698529e-07 1.7426847e-06 
-3.7045211e-06 1.4546887e-07 2.8657485e-06 
-5.3318659e-06 1.2831981e-06 3.1475486e-06 
-6.2312242e-06 6.2390399e-07 2.7290887e-06 
-6.5310728e-06 -3.3933452e-07 2.4304256e-06 
-6.1961814e-06 1.8767146e-08 2.4279361e-06 
-5.8557935e-06 7.1071298e-07 2.1875676e-06 
-4.9280657e-06 8.5361012e-07 1.0885017e-06 
-3.3013880e-06 -5.7086919e-07 -8.3230066e-07 
-2.1843596e-06 -1.4618097e-06 -4.8457387e-06 
1.2833377e-06 -3.6308436e-06 -8.8977094e-06 
4.9955606e-06 -5.1359889e-06 -1.3791461e-05 
1.3635226e-05 -7.6441584e-06 -1.7884329e-05 
2.3717306e-05 -9.7733428e-06 -1.9086745e-05 
3.4352583e-05 -1.0748731e-05 -1.5701611e-05 
4.1521773e-05 -1.1521949e-05 -1.0346192e-05 
4.8383288e-05 -1.3345708e-05 -1.3818483e-06 
4.5758192e-05 -1.2913822e-05 9.7295278e-06 
3.8882441e-05 -1.3684800e-05 1.7288612e-05 
2.8272021e-05 -1.2924272e-05 1.8521640e-05 
1.9430096e-05 -1.0309491e-05 1.6284714e-05 
9.5486903e-06 -3.8214575e-06 1.0771902e-05 
1.6345380e-06 8.2129083e-07 4.5219640e-06 
-3.0290503e-06 3.7472826e-06 7.1689306e-07 
-4.9304267e-06 3.2725052e-06 -1.5030266e-06 
-5.7148332e-06 1.8309388e-06 -2.1141595e-06 
-5.2424430e-06 1.7636233e-06 -1.8803908e-06 
-4.5294264e-06 9.8652652e-07 -1.8065115e-06 
-3.7585121e-06 2.0542905e-07 -2.7702440e-06 
-2.1227174e-06 -8.7068895e-07 -4.4504513e-06 
8.9914488e-07 -2.3171804e-06 -7.3098895e-06 
5.2953960e-06 -3.3569336e-06 -1.0988506e-05 
1.2985349e-05 -5.8919841e-06 -1.3050684e-05 
2.3129247e-05 -8.6738273e-06 -1.2628097e-05 
3.4967783e-05 -1.0266953e-05 -1.0567637e-05 
4.3732558e-05 -1.4583855e-05 -3.1722379e-06 
4.7792266e-05 -1.4490689e-05 5.2788350e-06 
4.4394554e-05 -1.4336631e-05 1.4088884e-05 
3.7843267e-05 -1.5041483e-05 1.6764399e-05 
2.8082335e-05 -1.1803633e-05 1.7410915e-05 
1.9277877e-05 -8.8286524e-06 1.3904357e-05 
9.9981426e-06 -4.1518661e-06 8.5428901e-06 
4.2764800e-06 -5.7979497e-09 3.1528612e-06 
4.1665876e-07 2.7819326e-06 -9.7285169e-07 
-1.3526466e-06 2.1529995e-06 -2.1097885e-06 
-1.6583140e-06 9.7076054e-07 -1.7626635e-06 
-1.3952723e-06 -2.3081103e-07 -1.2501177e-06 
-3.1849507e-07 -8.3958497e-07 6.9674383e-07 
5.9102945e-07 -7.9233831e-07 2.0824916e-06 
0.0000000e+00 1.2305633e-05 0.0000000e+00 
0.0000000e+00 1.8448562e-05 0.0000000e+00 
0.0000000e+00 2.2595992e-05 0.0000000e+00 
0.0000000e+00 2.6405360e-05 0.0000000e+00 
0.0000000e+00 2.4397392e-05 0.0000000e+00 
0.0000000e+00 2.1950949e-05 0.0000000e+00 
0.0000000e+00 2.0993426e-05 0.0000000e+00 
0.0000000e+00 2.1085183e-05 0.0000000e+00 
0.0000000e+00 2.3153978e-05 0.0000000e+00 
0.0000000e+00 2.8007704e-05 0.0000000e+00 
0.0000000e+00 3.0441057e-05 0.0000000e+00 
0.0000000e+00 2.4716810e-05 0.0000000e+00 
0.0000000e+00 1.7719639e-06 0.0000000e+00 
0.0000000e+00 -8.5311207e-05 0.0000000e+00 
0.0000000e+00 -2.1108796e-04 0.0000000e+00 
0.0000000e+00 -3.7471496e-04 0.0000000e+00 
0.0000000e+00 -5.3374353e-04 0.0000000e+00 
0.0000000e+00 -5.1683106e-04 0.0000000e+00 
0.0000000e+00 -4.5186226e-04 0.0000000e+00 
0.0000000e+00 -3.0642198e-04 0.0000000e+00 
0.0000000e+00 -1.1307295e-04 0.0000000e+00 
0.0000000e+00 -1.1802845e-05 0.0000000e+00 
0.0000000e+00 2.7441043e-05 0.0000000e+00 
0.0000000e+00 2.2917200e-05 0.0000000e+00 
0.0000000e+00 8.5282682e-06 0.0000000e+00 
0.0000000e+00 1.4417179e-06 0.0000000e+00 
0.0000000e+00 4.5426591e-06 0.0000000e+00 
0.0000000e+00 1.0206919e-05 0.0000000e+00 
0.0000000e+00 1.4112848e-05 0.0000000e+00 
0.0000000e+00 2.1651944e-05 0.0000000e+00 
0.0000000e+00 2.6433856e-05 0.0000000e+00 
0.0000000e+00 2.3734954e-05 0.0000000e+00 
0.0000000e+00 7.0260207e-06 0.0000000e+00 
0.0000000e+00 -7.6483899e-05 0.0000000e+00 
0.0000000e+00 -2.1975535e-04 0.0000000e+00 
0.0000000e+00 -4.3837234e-04 0.0000000e+00 
0.0000000e+00 -5.2290177e-04 0.0000000e+00 
0.0000000e+00 -5.1744207e-04 0.0000000e+00 
0.0000000e+00 -4.5050410e-04 0.0000000e+00 
0.0000000e+00 -3.0182855e-04 0.0000000e+00 
0.0000000e+00 -1.3175141e-04 0.0000000e+00 
0.0000000e+00 -1.4454692e-05 0.0000000e+00 
0.0000000e+00 1.6772401e-05 0.0000000e+00 
0.0000000e+00 1.4117720e-05 0.0000000e+00 
0.0000000e+00 5.1910970e-06 0.0000000e+00 
0.0000000e+00 9.2941889e-07 0.0000000e+00 
0.0000000e+00 -9.8616783e-07 0.0000000e+00 
0.0000000e+00 -3.2908022e-07 0.0000000e+00 
0.0000000e+00 -9.8301018e-07 0.0000000e+00 
-2.7055262e-06 4.9599748e-07 1.9645124e-06 
-2.6080695e-06 1.0244296e-06 2.3929933e-06 
-2.3446350e-06 -4.0269398e-07 1.7199358e-06 
-2.1406713e-06 8.0175056e-07 9.0746255e-08 
9.8932355e-07 -7.7960573e-07 2.5922391e-06 
9.7660245e-07 -1.6905338e-06 3.0514948e-06 
2.9969559e-07 -2.2035542e-06 3.8179364e-06 
-6.5098948e-07 -1.8965080e-06 3.1700458e-06 
-2.8569173e-06 -1.5674860e-07 2.4799106e-06 
7.8706580e-07 -5.2511319e-07 2.5166178e-06 
-1.5737820e-06 1.5180415e-06 -2.8115189e-06 
-3.4546074e-06 -5.3401877e-08 4.6107775e-06 
0.0000000e+00 1.9133318e-05 0.0000000e+00 
0.0000000e+00 2.7042175e-05 0.0000000e+00 
0.0000000e+00 3.4378449e-05 0.0000000e+00 
0.0000000e+00 4.0618288e-05 0.0000000e+00 
0.0000000e+00 3.8417453e-05 0.0000000e+00 
0.0000000e+00 3.4534307e-05 0.0000000e+00 
0.0000000e+00 3.3835124e-05 0.0000000e+00 
0.0000000e+00 3.5260979e-05 0.0000000e+00 
0.0000000e+00 3.8941416e-05 0.0000000e+00 
0.0000000e+00 4.7215086e-05 0.0000000e+00 
0.0000000e+00 5.1287676e-05 0.0000000e+00 
0.0000000e+00 4.4033237e-05 0.0000000e+00 
0.0000000e+00 -7.4374248e-06 0.0000000e+00 