# vtk DataFile Version 4.0
vtk output
ASCII
DATASET UNSTRUCTURED_GRID
POINTS 1919 float
0.0000000e+00 0.0000000e+00 0.0000000e+00 
0.0000000e+00 0.0000000e+00 5.0000000e+01 
5.0000000e+00 0.0000000e+00 0.0000000e+00 
5.0000000e+00 0.0000000e+00 5.0000000e+01 
5.0000000e+00 1.0000000e+00 0.0000000e+00 
5.0000000e+00 1.0000000e+00 5.0000000e+01 
0.0000000e+00 1.0000000e+00 0.0000000e+00 
0.0000000e+00 1.0000000e+00 5.0000000e+01 
5.0000000e+00 2.0000000e+00 0.0000000e+00 
5.0000000e+00 2.0000000e+00 5.0000000e+01 
3.0000000e+00 2.0000000e+00 0.0000000e+00 
3.0000000e+00 2.0000000e+00 5.0000000e+01 
0.0000000e+00 2.0000000e+00 0.0000000e+00 
0.0000000e+00 2.0000000e+00 5.0000000e+01 
1.5000000e+00 3.0000000e+00 0.0000000e+00 
1.5000000e+00 3.0000000e+00 5.0000000e+01 
7.5000000e-01 3.0000000e+00 0.0000000e+00 
7.5000000e-01 3.0000000e+00 5.0000000e+01 
0.0000000e+00 3.0000000e+00 0.0000000e+00 
0.0000000e+00 3.0000000e+00 5.0000000e+01 
7.5000000e-01 3.0000000e+00 5.0000000e-01 
7.5000000e-01 3.0000000e+00 1.0000000e+00 
7.5000000e-01 3.0000000e+00 1.5000000e+00 
7.5000000e-01 3.0000000e+00 2.0000000e+00 
7.5000000e-01 3.0000000e+00 2.5000000e+00 
7.5000000e-01 3.0000000e+00 3.0000000e+00 
7.5000000e-01 3.0000000e+00 3.5000000e+00 
7.5000000e-01 3.0000000e+00 4.0000000e+00 
7.5000000e-01 3.0000000e+00 4.5000000e+00 
7.5000000e-01 3.0000000e+00 5.0000000e+00 
7.5000000e-01 3.0000000e+00 5.5000000e+00 
7.5000000e-01 3.0000000e+00 6.0000000e+00 
7.5000000e-01 3.0000000e+00 6.5000000e+00 
7.5000000e-01 3.0000000e+00 7.0000000e+00 
7.5000000e-01 3.0000000e+00 7.5000000e+00 
7.5000000e-01 3.0000000e+00 8.0000000e+00 
7.5000000e-01 3.0000000e+00 8.5000000e+00 
7.5000000e-01 3.0000000e+00 9.0000000e+00 
7.5000000e-01 3.0000000e+00 9.5000000e+00 
7.5000000e-01 3.0000000e+00 1.0000000e+01 
7.5000000e-01 3.0000000e+00 1.0500000e+01 
7.5000000e-01 3.0000000e+00 1.1000000e+01 
7.5000000e-01 3.0000000e+00 1.1500000e+01 
7.5000000e-01 3.0000000e+00 1.2000000e+01 
7.5000000e-01 3.0000000e+00 1.2500000e+01 
7.5000000e-01 3.0000000e+00 1.3000000e+01 
7.5000000e-01 3.0000000e+00 1.3500000e+01 
7.5000000e-01 3.0000000e+00 1.4000000e+01 
7.5000000e-01 3.0000000e+00 1.4500000e+01 
7.5000000e-01 3.0000000e+00 1.5000000e+01 
7.5000000e-01 3.0000000e+00 1.5500000e+01 
7.5000000e-01 3.0000000e+00 1.6000000e+01 
7.5000000e-01 3.0000000e+00 1.6500000e+01 
7.5000000e-01 3.0000000e+00 1.7000000e+01 
7.5000000e-01 3.0000000e+00 1.7500000e+01 
7.5000000e-01 3.0000000e+00 1.8000000e+01 
7.5000000e-01 3.0000000e+00 1.8500000e+01 
7.5000000e-01 3.0000000e+00 1.9000000e+01 
7.5000000e-01 3.0000000e+00 1.9500000e+01 
7.5000000e-01 3.0000000e+00 2.0000000e+01 
7.5000000e-01 3.0000000e+00 2.0500000e+01 
7.5000000e-01 3.0000000e+00 2.1000000e+01 
7.5000000e-01 3.0000000e+00 2.1500000e+01 
7.5000000e-01 3.0000000e+00 2.2000000e+01 
7.5000000e-01 3.0000000e+00 2.2500000e+01 
7.5000000e-01 3.0000000e+00 2.3000000e+01 
7.5000000e-01 3.0000000e+00 2.3500000e+01 
7.5000000e-01 3.0000000e+00 2.4000000e+01 
7.5000000e-01 3.0000000e+00 2.4500000e+01 
7.5000000e-01 3.0000000e+00 2.5000000e+01 
7.5000000e-01 3.0000000e+00 2.5500000e+01 
7.5000000e-01 3.0000000e+00 2.6000000e+01 
7.5000000e-01 3.0000000e+00 2.6500000e+01 
7.5000000e-01 3.0000000e+00 2.7000000e+01 
7.5000000e-01 3.0000000e+00 2.7500000e+01 
7.5000000e-01 3.0000000e+00 2.8000000e+01 
7.5000000e-01 3.0000000e+00 2.8500000e+01 
7.5000000e-01 3.0000000e+00 2.9000000e+01 
7.5000000e-01 3.0000000e+00 2.9500000e+01 
7.5000000e-01 3.0000000e+00 3.0000000e+01 
7.5000000e-01 3.0000000e+00 3.0500000e+01 
7.5000000e-01 3.0000000e+00 3.1000000e+01 
7.5000000e-01 3.0000000e+00 3.1500000e+01 
7.5000000e-01 3.0000000e+00 3.2000000e+01 
7.5000000e-01 3.0000000e+00 3.2500000e+01 
7.5000000e-01 3.0000000e+00 3.3000000e+01 
7.5000000e-01 3.0000000e+00 3.3500000e+01 
7.5000000e-01 3.0000000e+00 3.4000000e+01 
7.5000000e-01 3.0000000e+00 3.4500000e+01 
7.5000000e-01 3.0000000e+00 3.5000000e+01 
7.5000000e-01 3.0000000e+00 3.5500000e+01 
7.5000000e-01 3.0000000e+00 3.6000000e+01 
7.5000000e-01 3.0000000e+00 3.6500000e+01 
7.5000000e-01 3.0000000e+00 3.7000000e+01 
7.5000000e-01 3.0000000e+00 3.7500000e+01 
7.5000000e-01 3.0000000e+00 3.8000000e+01 
7.5000000e-01 3.0000000e+00 3.8500000e+01 
7.5000000e-01 3.0000000e+00 3.9000000e+01 
7.5000000e-01 3.0000000e+00 3.9500000e+01 
7.5000000e-01 3.0000000e+00 4.0000000e+01 
7.5000000e-01 3.0000000e+00 4.0500000e+01 
7.5000000e-01 3.0000000e+00 4.1000000e+01 
7.5000000e-01 3.0000000e+00 4.1500000e+01 
7.5000000e-01 3.0000000e+00 4.2000000e+01 
7.5000000e-01 3.0000000e+00 4.2500000e+01 
7.5000000e-01 3.0000000e+00 4.3000000e+01 
7.5000000e-01 3.0000000e+00 4.3500000e+01 
7.5000000e-01 3.0000000e+00 4.4000000e+01 
7.5000000e-01 3.0000000e+00 4.4500000e+01 
7.5000000e-01 3.0000000e+00 4.5000000e+01 
7.5000000e-01 3.0000000e+00 4.5500000e+01 
7.5000000e-01 3.0000000e+00 4.6000000e+01 
7.5000000e-01 3.0000000e+00 4.6500000e+01 
7.5000000e-01 3.0000000e+00 4.7000000e+01 
7.5000000e-01 3.0000000e+00 4.7500000e+01 
7.5000000e-01 3.0000000e+00 4.8000000e+01 
7.5000000e-01 3.0000000e+00 4.8500000e+01 
7.5000000e-01 3.0000000e+00 4.9000000e+01 
7.5000000e-01 3.0000000e+00 4.9500000e+01 
7.5000000e-01 3.0250001e+00 0.0000000e+00 
7.5000000e-01 3.0250001e+00 5.0000000e-01 
7.5000000e-01 3.0250001e+00 1.0000000e+00 
7.5000000e-01 3.0250001e+00 1.5000000e+00 
7.5000000e-01 3.0250001e+00 2.0000000e+00 
7.5000000e-01 3.0250001e+00 2.5000000e+00 
7.5000000e-01 3.0250001e+00 3.0000000e+00 
7.5000000e-01 3.0250001e+00 3.5000000e+00 
7.5000000e-01 3.0250001e+00 4.0000000e+00 
7.5000000e-01 3.0250001e+00 4.5000000e+00 
7.5000000e-01 3.0250001e+00 5.0000000e+00 
7.5000000e-01 3.0250001e+00 5.5000000e+00 
7.5000000e-01 3.0250001e+00 6.0000000e+00 
7.5000000e-01 3.0250001e+00 6.5000000e+00 
7.5000000e-01 3.0250001e+00 7.0000000e+00 
7.5000000e-01 3.0250001e+00 7.5000000e+00 
7.5000000e-01 3.0250001e+00 8.0000000e+00 
7.5000000e-01 3.0250001e+00 8.5000000e+00 
7.5000000e-01 3.0250001e+00 9.0000000e+00 
7.5000000e-01 3.0250001e+00 9.5000000e+00 
7.5000000e-01 3.0250001e+00 1.0000000e+01 
7.5000000e-01 3.0250001e+00 1.0500000e+01 
7.5000000e-01 3.0250001e+00 1.1000000e+01 
7.5000000e-01 3.0250001e+00 1.1500000e+01 
7.5000000e-01 3.0250001e+00 1.2000000e+01 
7.5000000e-01 3.0250001e+00 1.2500000e+01 
7.5000000e-01 3.0250001e+00 1.3000000e+01 
7.5000000e-01 3.0250001e+00 1.3500000e+01 
7.5000000e-01 3.0250001e+00 1.4000000e+01 
7.5000000e-01 3.0250001e+00 1.4500000e+01 
7.5000000e-01 3.0250001e+00 1.5000000e+01 
7.5000000e-01 3.0250001e+00 1.5500000e+01 
7.5000000e-01 3.0250001e+00 1.6000000e+01 
7.5000000e-01 3.0250001e+00 1.6500000e+01 
7.5000000e-01 3.0250001e+00 1.7000000e+01 
7.5000000e-01 3.0250001e+00 1.7500000e+01 
7.5000000e-01 3.0250001e+00 1.8000000e+01 
7.5000000e-01 3.0250001e+00 1.8500000e+01 
7.5000000e-01 3.0250001e+00 1.9000000e+01 
7.5000000e-01 3.0250001e+00 1.9500000e+01 
7.5000000e-01 3.0250001e+00 2.0000000e+01 
7.5000000e-01 3.0250001e+00 2.0500000e+01 
7.5000000e-01 3.0250001e+00 2.1000000e+01 
7.5000000e-01 3.0250001e+00 2.1500000e+01 
7.5000000e-01 3.0250001e+00 2.2000000e+01 
7.5000000e-01 3.0250001e+00 2.2500000e+01 
7.5000000e-01 3.0250001e+00 2.3000000e+01 
7.5000000e-01 3.0250001e+00 2.3500000e+01 
7.5000000e-01 3.0250001e+00 2.4000000e+01 
7.5000000e-01 3.0250001e+00 2.4500000e+01 
7.5000000e-01 3.0250001e+00 2.5000000e+01 
7.5000000e-01 3.0250001e+00 2.5500000e+01 
7.5000000e-01 3.0250001e+00 2.6000000e+01 
7.5000000e-01 3.0250001e+00 2.6500000e+01 
7.5000000e-01 3.0250001e+00 2.7000000e+01 
7.5000000e-01 3.0250001e+00 2.7500000e+01 
7.5000000e-01 3.0250001e+00 2.8000000e+01 
7.5000000e-01 3.0250001e+00 2.8500000e+01 
7.5000000e-01 3.0250001e+00 2.9000000e+01 
7.5000000e-01 3.0250001e+00 2.9500000e+01 
7.5000000e-01 3.0250001e+00 3.0000000e+01 
7.5000000e-01 3.0250001e+00 3.0500000e+01 
7.5000000e-01 3.0250001e+00 3.1000000e+01 
7.5000000e-01 3.0250001e+00 3.1500000e+01 
7.5000000e-01 3.0250001e+00 3.2000000e+01 
7.5000000e-01 3.0250001e+00 3.2500000e+01 
7.5000000e-01 3.0250001e+00 3.3000000e+01 
7.5000000e-01 3.0250001e+00 3.3500000e+01 
7.5000000e-01 3.0250001e+00 3.4000000e+01 
7.5000000e-01 3.0250001e+00 3.4500000e+01 
7.5000000e-01 3.0250001e+00 3.5000000e+01 
7.5000000e-01 3.0250001e+00 3.5500000e+01 
7.5000000e-01 3.0250001e+00 3.6000000e+01 
7.5000000e-01 3.0250001e+00 3.6500000e+01 
7.5000000e-01 3.0250001e+00 3.7000000e+01 
7.5000000e-01 3.0250001e+00 3.7500000e+01 
7.5000000e-01 3.0250001e+00 3.8000000e+01 
7.5000000e-01 3.0250001e+00 3.8500000e+01 
7.5000000e-01 3.0250001e+00 3.9000000e+01 
7.5000000e-01 3.0250001e+00 3.9500000e+01 
7.5000000e-01 3.0250001e+00 4.0000000e+01 
7.5000000e-01 3.0250001e+00 4.0500000e+01 
7.5000000e-01 3.0250001e+00 4.1000000e+01 
7.5000000e-01 3.0250001e+00 4.1500000e+01 
7.5000000e-01 3.0250001e+00 4.2000000e+01 
7.5000000e-01 3.0250001e+00 4.2500000e+01 
7.5000000e-01 3.0250001e+00 4.3000000e+01 
7.5000000e-01 3.0250001e+00 4.3500000e+01 
7.5000000e-01 3.0250001e+00 4.4000000e+01 
7.5000000e-01 3.0250001e+00 4.4500000e+01 
7.5000000e-01 3.0250001e+00 4.5000000e+01 
7.5000000e-01 3.0250001e+00 4.5500000e+01 
7.5000000e-01 3.0250001e+00 4.6000000e+01 
7.5000000e-01 3.0250001e+00 4.6500000e+01 
7.5000000e-01 3.0250001e+00 4.7000000e+01 
7.5000000e-01 3.0250001e+00 4.7500000e+01 
7.5000000e-01 3.0250001e+00 4.8000000e+01 
7.5000000e-01 3.0250001e+00 4.8500000e+01 
7.5000000e-01 3.0250001e+00 4.9000000e+01 
7.5000000e-01 3.0250001e+00 4.9500000e+01 
7.5000000e-01 3.0250001e+00 5.0000000e+01 
1.5000000e+00 3.0000000e+00 2.5000000e+01 
3.0000000e+00 2.0000000e+00 2.5000000e+01 
4.0000000e+00 2.0000000e+00 2.5000000e+01 
5.0000000e+00 2.0000000e+00 2.5000000e+01 
0.0000000e+00 3.0000000e+00 2.5000000e+01 
0.0000000e+00 0.0000000e+00 1.0000000e+00 
0.0000000e+00 0.0000000e+00 2.0000000e+00 
0.0000000e+00 0.0000000e+00 3.0000000e+00 
0.0000000e+00 0.0000000e+00 4.0000000e+00 
0.0000000e+00 0.0000000e+00 5.0000000e+00 
[...]
POINT_DATA 1919
FIELD FieldData 3
DISPLACEMENT 3 1919  float
0.0000000e+00 0.0000000e+00 0.0000000e+00 
0.0000000e+00 0.0000000e+00 0.0000000e+00 
0.0000000e+00 0.0000000e+00 0.0000000e+00 
0.0000000e+00 0.0000000e+00 0.0000000e+00 
1.1404261e-06 -4.6915429e-07 -5.2704149e-07 
3.2124288e-07 5.3664229e-07 -1.6129614e-07 
0.0000000e+00 5.2719465e-06 0.0000000e+00 
0.0000000e+00 2.4422611e-06 0.0000000e+00 
2.1513761e-06 -4.2489748e-07 -1.3219969e-06 
3.8489398e-07 1.2071470e-06 -1.0628775e-06 
3.1980085e-06 8.9129554e-07 -1.8661132e-06 
1.1047514e-06 3.1766494e-06 6.1095261e-07 
0.0000000e+00 8.0088066e-06 0.0000000e+00 
0.0000000e+00 2.6907828e-06 0.0000000e+00 
2.0213881e-06 -3.2091712e-06 6.4752890e-06 
9.7319548e-07 1.1722314e-05 -6.1851606e-06 
1.6304870e-06 -1.2319172e-05 -2.9776954e-06 
-1.5987282e-06 2.2594397e-06 -1.0349014e-05 
0.0000000e+00 5.2560736e-06 0.0000000e+00 
0.0000000e+00 -4.8613815e-06 0.0000000e+00 
6.5642229e-07 -9.6660306e-06 9.3130245e-07 
-2.5413701e-06 -3.2736627e-06 1.2215691e-06 
-6.5521185e-06 4.0534037e-06 -9.1274700e-07 
-4.6420764e-06 1.0208072e-05 -2.9207367e-06 
-4.4892358e-06 1.3986004e-05 -5.7233497e-06 
-1.8262205e-06 1.6035860e-05 -3.0764079e-06 
-3.6078984e-06 1.8029325e-05 -2.6702808e-06 
-2.6600144e-06 2.0780757e-05 -5.5370438e-06 
-4.0273321e-06 2.3219234e-05 -8.6014797e-06 
-1.3927391e-06 2.3650693e-05 -1.3760300e-05 
-1.3105883e-07 2.1082993e-05 -1.7509235e-05 
4.5896963e-06 1.5689357e-05 -1.6566964e-05 
5.0219792e-06 1.0003762e-05 -1.4882894e-05 
5.3784743e-06 7.7864743e-06 -1.2619875e-05 
5.4952301e-07 1.0860034e-05 -9.7772227e-06 
8.0049205e-07 1.6658885e-05 -9.9199597e-06 
4.1622820e-07 1.9483939e-05 -4.8713146e-06 
2.7266249e-06 1.4905055e-05 8.5494253e-07 
1.7020592e-06 5.7167267e-06 7.1016107e-06 
3.9352878e-07 6.1006034e-07 1.8118473e-05 
-4.2944926e-06 5.2470396e-06 2.5535743e-05 
-2.9347048e-06 1.8659444e-05 2.7218242e-05 
-3.6032764e-06 3.1753236e-05 2.7323487e-05 
-8.9759618e-07 3.4345776e-05 2.4270026e-05 
3.9298216e-06 2.5812536e-05 2.2491928e-05 
5.8351793e-07 1.6797316e-05 2.3060165e-05 
-5.3299486e-06 2.4751802e-05 2.6732638e-05 
-3.2020630e-06 5.9855829e-05 3.1250678e-05 
1.8271700e-06 9.7320684e-05 5.0738345e-05 
-3.4810053e-06 7.9165060e-05 5.5409091e-05 
-8.2632005e-06 -4.2565964e-05 8.4157342e-05 
-2.0767257e-05 -2.9549279e-04 9.5069641e-05 
-6.4894135e-05 -6.9284550e-04 1.5451005e-04 
-1.8065859e-04 -1.2566209e-03 2.7612815e-04 
-1.5013514e-04 -2.0273719e-03 2.2489634e-04 
-1.6786615e-04 -3.0022329e-03 1.0462401e-04 
-2.3700285e-04 -4.0530516e-03 1.4141820e-04 
-2.5075980e-04 -4.7365190e-03 2.9508737e-05 
-2.4749216e-04 -4.6431683e-03 -3.1345262e-05 
-2.3812459e-04 -4.2810477e-03 -7.0500981e-05 
-2.1036356e-04 -4.1420795e-03 -7.0216134e-05 
-2.2526605e-04 -4.2216033e-03 -1.5749404e-04 
-2.2453295e-04 -4.1118311e-03 -2.2850596e-04 
-1.2408700e-04 -3.2363620e-03 -2.2956877e-04 
-1.3535228e-04 -2.0537563e-03 -2.5134251e-04 
-5.1779301e-05 -1.0238951e-03 -1.0211398e-04 
-1.4948942e-05 -3.4070236e-04 -1.6232014e-04 
6.8873355e-06 2.6306108e-05 -6.5063439e-05 
1.3877660e-05 1.7105773e-04 -3.1876483e-05 
1.1371465e-05 1.9879919e-04 -5.9580962e-06 
1.0205604e-05 1.7973756e-04 1.7015684e-05 
1.2765366e-05 1.3734239e-04 2.2715520e-05 
5.3079175e-06 8.4630134e-05 2.7679955e-05 
5.3027670e-06 3.8578593e-05 2.4547579e-05 
6.0042635e-07 1.7091463e-05 2.2783455e-05 
-6.1351230e-08 1.8869427e-05 1.1055849e-05 
-3.3675292e-06 2.9474524e-05 8.4324956e-06 
-4.3837263e-06 3.2853604e-05 4.9969099e-06 
-4.5327456e-06 2.3310649e-05 -1.6792578e-07 
-4.4166773e-06 8.0522686e-06 -2.7194678e-06 
-4.0604718e-06 6.7739029e-07 -3.6971653e-06 
-6.0660350e-06 7.9684451e-06 -4.6918180e-06 
-4.0511609e-06 2.3112652e-05 1.6996363e-06 
4.6985979e-06 3.5125209e-05 3.3802148e-06 
1.1479710e-05 3.7488186e-05 1.0526804e-05 
9.3218696e-06 2.9678869e-05 1.5595509e-05 
1.3320394e-05 2.2003091e-05 1.6721342e-05 
6.2076074e-06 2.8030974e-05 2.2330227e-05 
8.8741251e-07 4.5314260e-05 4.3399075e-05 
1.0414292e-06 4.1123967e-05 5.1022176e-05 
-8.9304585e-06 -5.0479626e-05 9.8881268e-05 
-2.1936548e-05 -3.0709369e-04 9.8612720e-05 
-5.3580159e-05 -7.7374058e-04 1.3835366e-04 
-8.9901660e-05 -1.4479286e-03 9.8500444e-05 
-1.8450008e-04 -2.3171236e-03 1.7888812e-04 
-4.3972663e-04 -3.3183079e-03 2.9909608e-04 
-2.4839435e-04 -4.2415573e-03 1.4004497e-04 
-2.2965578e-04 -4.7236285e-03 4.3506101e-05 
-2.3650956e-04 -4.5741228e-03 -3.4990750e-05 
-2.3883856e-04 -4.2814580e-03 -5.6307359e-05 
-2.1515168e-04 -4.2138835e-03 -5.7262081e-05 
-2.1842515e-04 -4.2359913e-03 -1.4482667e-04 
-1.8643314e-04 -3.9207777e-03 -2.0776167e-04 
-1.5714906e-04 -2.9328659e-03 -1.5429511e-04 
-8.4925938e-05 -1.7894064e-03 -2.3769813e-04 
-5.3973497e-05 -8.6063915e-04 -1.2563542e-04 
-3.1562481e-06 -2.6564705e-04 -1.2625971e-04 
1.0341183e-05 4.7504422e-05 -4.9254868e-05 
2.1631889e-05 1.7344262e-04 -1.6665066e-05 
1.9518044e-05 1.8975283e-04 8.8803863e-06 
1.2018661e-05 1.5036280e-04 2.4692967e-05 
7.7287532e-06 9.2096539e-05 2.3645052e-05 
2.6782777e-06 4.2811520e-05 2.6237823e-05 
3.8358962e-07 1.3251703e-05 2.0345647e-05 
-2.7341300e-06 1.9071357e-06 1.7040005e-05 
-3.5926537e-06 4.3409338e-07 1.4137170e-05 
-4.4989606e-06 1.5738301e-06 7.8795829e-06 
-4.0207142e-06 2.2621055e-06 4.8742945e-06 
-2.0648388e-06 2.3523403e-06 -1.8687149e-06 
0.0000000e+00 -1.2242987e-05 0.0000000e+00 
0.0000000e+00 -9.6355952e-06 0.0000000e+00 
0.0000000e+00 -3.3056865e-06 0.0000000e+00 
0.0000000e+00 4.0305931e-06 0.0000000e+00 
0.0000000e+00 1.0141963e-05 0.0000000e+00 
0.0000000e+00 1.3935660e-05 0.0000000e+00 
0.0000000e+00 1.6049960e-05 0.0000000e+00 
0.0000000e+00 1.8110055e-05 0.0000000e+00 
0.0000000e+00 2.0841686e-05 0.0000000e+00 
0.0000000e+00 2.3240098e-05 0.0000000e+00 
0.0000000e+00 2.3635594e-05 0.0000000e+00 
0.0000000e+00 2.0976158e-05 0.0000000e+00 
0.0000000e+00 1.5610003e-05 0.0000000e+00 
0.0000000e+00 1.0054700e-05 0.0000000e+00 
0.0000000e+00 7.9634920e-06 0.0000000e+00 
0.0000000e+00 1.1078060e-05 0.0000000e+00 
0.0000000e+00 1.6728673e-05 0.0000000e+00 
0.0000000e+00 1.9202906e-05 0.0000000e+00 
0.0000000e+00 1.4552468e-05 0.0000000e+00 
0.0000000e+00 5.6900394e-06 0.0000000e+00 
0.0000000e+00 8.3264354e-07 0.0000000e+00 
0.0000000e+00 5.7357065e-06 0.0000000e+00 
0.0000000e+00 1.8906856e-05 0.0000000e+00 
0.0000000e+00 3.1451989e-05 0.0000000e+00 
0.0000000e+00 3.3824985e-05 0.0000000e+00 
0.0000000e+00 2.5228777e-05 0.0000000e+00 
0.0000000e+00 1.6748658e-05 0.0000000e+00 
0.0000000e+00 2.6342825e-05 0.0000000e+00 
0.0000000e+00 6.1889259e-05 0.0000000e+00 
0.0000000e+00 9.7577373e-05 0.0000000e+00 
0.0000000e+00 7.8576319e-05 0.0000000e+00 
0.0000000e+00 -4.3719578e-05 0.0000000e+00 
0.0000000e+00 -2.9596590e-04 0.0000000e+00 
0.0000000e+00 -6.9241686e-04 0.0000000e+00 
0.0000000e+00 -1.2583542e-03 0.0000000e+00 
0.0000000e+00 -2.0334108e-03 0.0000000e+00 
0.0000000e+00 -3.0187233e-03 0.0000000e+00 
0.0000000e+00 -4.0735845e-03 0.0000000e+00 
0.0000000e+00 -4.7663511e-03 0.0000000e+00 
0.0000000e+00 -4.6645822e-03 0.0000000e+00 
0.0000000e+00 -4.3062875e-03 0.0000000e+00 
0.0000000e+00 -4.1631088e-03 0.0000000e+00 
0.0000000e+00 -4.2508612e-03 0.0000000e+00 
0.0000000e+00 -4.1356906e-03 0.0000000e+00 
0.0000000e+00 -3.2559200e-03 0.0000000e+00 
0.0000000e+00 -2.0680714e-03 0.0000000e+00 
0.0000000e+00 -1.0350356e-03 0.0000000e+00 
0.0000000e+00 -3.4311859e-04 0.0000000e+00 
0.0000000e+00 2.6696340e-05 0.0000000e+00 
0.0000000e+00 1.7303675e-04 0.0000000e+00 
0.0000000e+00 2.0086295e-04 0.0000000e+00 
0.0000000e+00 1.8013184e-04 0.0000000e+00 
0.0000000e+00 1.3732968e-04 0.0000000e+00 
0.0000000e+00 8.4833111e-05 0.0000000e+00 
0.0000000e+00 3.9553965e-05 0.0000000e+00 
0.0000000e+00 1.7593493e-05 0.0000000e+00 
0.0000000e+00 1.8773670e-05 0.0000000e+00 
0.0000000e+00 2.9089682e-05 0.0000000e+00 
0.0000000e+00 3.2520915e-05 0.0000000e+00 
0.0000000e+00 2.3032879e-05 0.0000000e+00 
0.0000000e+00 8.1217386e-06 0.0000000e+00 
0.0000000e+00 1.1207612e-06 0.0000000e+00 
0.0000000e+00 8.2368197e-06 0.0000000e+00 
0.0000000e+00 2.3214929e-05 0.0000000e+00 
0.0000000e+00 3.5064761e-05 0.0000000e+00 
0.0000000e+00 3.6937763e-05 0.0000000e+00 
0.0000000e+00 2.9291774e-05 0.0000000e+00 
0.0000000e+00 2.2352891e-05 0.0000000e+00 
0.0000000e+00 2.9237633e-05 0.0000000e+00 
0.0000000e+00 4.7405960e-05 0.0000000e+00 
0.0000000e+00 4.2632142e-05 0.0000000e+00 
0.0000000e+00 -5.1564271e-05 0.0000000e+00 
0.0000000e+00 -3.0977657e-04 0.0000000e+00 
0.0000000e+00 -7.7536999e-04 0.0000000e+00 
0.0000000e+00 -1.4516000e-03 0.0000000e+00 
0.0000000e+00 -2.3245655e-03 0.0000000e+00 
0.0000000e+00 -3.3298854e-03 0.0000000e+00 
0.0000000e+00 -4.2652348e-03 0.0000000e+00 
0.0000000e+00 -4.7552991e-03 0.0000000e+00 
0.0000000e+00 -4.5972145e-03 0.0000000e+00 
0.0000000e+00 -4.3072989e-03 0.0000000e+00 
0.0000000e+00 -4.2332043e-03 0.0000000e+00 
0.0000000e+00 -4.2627994e-03 0.0000000e+00 
0.0000000e+00 -3.9434237e-03 0.0000000e+00 
0.0000000e+00 -2.9560721e-03 0.0000000e+00 
0.0000000e+00 -1.8021126e-03 0.0000000e+00 
0.0000000e+00 -8.6809543e-04 0.0000000e+00 
0.0000000e+00 -2.6701941e-04 0.0000000e+00 
0.0000000e+00 4.8566959e-05 0.0000000e+00 
0.0000000e+00 1.7446421e-04 0.0000000e+00 
0.0000000e+00 1.9058192e-04 0.0000000e+00 
0.0000000e+00 1.5107314e-04 0.0000000e+00 
0.0000000e+00 9.3229959e-05 0.0000000e+00 
0.0000000e+00 4.3449705e-05 0.0000000e+00 
0.0000000e+00 1.3338821e-05 0.0000000e+00 
0.0000000e+00 1.6413869e-06 0.0000000e+00 
0.0000000e+00 2.4823296e-07 0.0000000e+00 
0.0000000e+00 1.6310829e-06 0.0000000e+00 
0.0000000e+00 2.3878481e-06 0.0000000e+00 
0.0000000e+00 2.3094128e-06 0.0000000e+00 
0.0000000e+00 2.1289336e-06 0.0000000e+00 
2.3267996e-05 6.8067435e-05 -1.1967652e-05 
5.9176750e-06 3.5941659e-06 2.5437585e-06 
7.8069725e-06 -2.1170422e-06 8.5209258e-06 
7.1841050e-06 -1.0386647e-06 1.2850628e-05 
0.0000000e+00 7.2078452e-05 0.0000000e+00 
0.0000000e+00 0.0000000e+00 0.0000000e+00 
0.0000000e+00 0.0000000e+00 0.0000000e+00 
0.0000000e+00 0.0000000e+00 0.0000000e+00 
0.0000000e+00 0.0000000e+00 0.0000000e+00 
0.0000000e+00 0.0000000e+00 0.0000000e+00 
0.0000000e+00 0.0000000e+00 0.0000000e+00 
0.0000000e+00 0.0000000e+00 0.0000000e+00 
0.0000000e+00 0.0000000e+00 0.0000000e+00 
0.0000000e+00 0.0000000e+00 0.0000000e+00 
0.0000000e+00 0.0000000e+00 0.0000000e+00 
0.0000000e+00 0.0000000e+00 0.0000000e+00 
0.0000000e+00 0.0000000e+00 0.0000000e+00 
0.0000000e+00 0.0000000e+00 0.0000000e+00 
0.0000000e+00 0.0000000e+00 0.0000000e+00 
0.0000000e+00 0.0000000e+00 0.0000000e+00 
0.0000000e+00 0.0000000e+00 0.0000000e+00 
0.0000000e+00 0.0000000e+00 0.0000000e+00 
0.0000000e+00 0.0000000e+00 0.0000000e+00 
0.0000000e+00 0.0000000e+00 0.0000000e+00 
0.0000000e+00 0.0000000e+00 0.0000000e+00 
0.0000000e+00 0.0000000e+00 0.0000000e+00 
0.0000000e+00 0.0000000e+00 0.0000000e+00 
0.0000000e+00 0.0000000e+00 0.0000000e+00 
0.0000000e+00 0.0000000e+00 0.0000000e+00 
0.0000000e+00 0.0000000e+00 0.0000000e+00 
0.0000000e+00 0.0000000e+00 0.0000000e+00 
0.0000000e+00 0.0000000e+00 0.0000000e+00 
0.0000000e+00 0.0000000e+00 0.0000000e+00 
0.0000000e+00 0.0000000e+00 0.0000000e+00 
0.0000000e+00 0.0000000e+00 0.0000000e+00 
0.0000000e+00 0.0000000e+00 0.0000000e+00 
0.0000000e+00 0.0000000e+00 0.0000000e+00 
0.0000000e+00 0.0000000e+00 0.0000000e+00 
0.0000000e+00 0.0000000e+00 0.0000000e+00 
0.0000000e+00 0.0000000e+00 0.0000000e+00 
0.0000000e+00 0.0000000e+00 0.0000000e+00 
0.0000000e+00 0.0000000e+00 0.0000000e+00 
0.0000000e+00 0.0000000e+00 0.0000000e+00 
0.0000000e+00 0.0000000e+00 0.0000000e+00 
0.0000000e+00 0.0000000e+00 0.0000000e+00 
0.0000000e+00 0.0000000e+00 0.0000000e+00 
0.0000000e+00 0.0000000e+00 0.0000000e+00 
0.0000000e+00 0.0000000e+00 0.0000000e+00 
0.0000000e+00 0.0000000e+00 0.0000000e+00 
0.0000000e+00 0.0000000e+00 0.0000000e+00 
0.0000000e+00 0.0000000e+00 0.0000000e+00 
0.0000000e+00 0.0000000e+00 0.0000000e+00 
0.0000000e+00 0.0000000e+00 0.0000000e+00 
0.0000000e+00 0.0000000e+00 0.0000000e+00 
0.0000000e+00 0.0000000e+00 0.0000000e+00 
0.0000000e+00 0.0000000e+00 0.0000000e+00 
0.0000000e+00 0.0000000e+00 0.0000000e+00 
0.0000000e+00 0.0000000e+00 0.0000000e+00 
0.0000000e+00 0.0000000e+00 0.0000000e+00 
0.0000000e+00 0.0000000e+00 0.0000000e+00 
0.0000000e+00 0.0000000e+00 0.0000000e+00 
0.0000000e+00 0.0000000e+00 0.0000000e+00 
0.0000000e+00 0.0000000e+00 0.0000000e+00 
0.0000000e+00 0.0000000e+00 0.0000000e+00 
0.0000000e+00 0.0000000e+00 0.0000000e+00 
0.0000000e+00 0.0000000e+00 0.0000000e+00 
0.0000000e+00 0.0000000e+00 0.0000000e+00 
0.0000000e+00 0.0000000e+00 0.0000000e+00 
0.0000000e+00 0.0000000e+00 0.0000000e+00 
0.0000000e+00 0.0000000e+00 0.0000000e+00 
0.0000000e+00 0.0000000e+00 0.0000000e+00 
0.0000000e+00 0.0000000e+00 0.0000000e+00 
0.0000000e+00 0.0000000e+00 0.0000000e+00 
0.0000000e+00 0.0000000e+00 0.0000000e+00 
0.0000000e+00 0.0000000e+00 0.0000000e+00 
0.0000000e+00 0.0000000e+00 0.0000000e+00 
0.0000000e+00 0.0000000e+00 0.0000000e+00 
0.0000000e+00 0.0000000e+00 0.0000000e+00 
0.0000000e+00 0.0000000e+00 0.0000000e+00 
0.0000000e+00 0.0000000e+00 0.0000000e+00 
0.0000000e+00 0.0000000e+00 0.0000000e+00 
0.0000000e+00 0.0000000e+00 0.0000000e+00 
0.0000000e+00 0.0000000e+00 0.0000000e+00 
0.0000000e+00 0.0000000e+00 0.0000000e+00 
0.0000000e+00 0.0000000e+00 0.0000000e+00 
0.0000000e+00 0.0000000e+00 0.0000000e+00 
0.0000000e+00 0.0000000e+00 0.0000000e+00 
0.0000000e+00 0.0000000e+00 0.0000000e+00 
0.0000000e+00 0.0000000e+00 0.0000000e+00 
0.0000000e+00 0.0000000e+00 0.0000000e+00 
0.0000000e+00 0.0000000e+00 0.0000000e+00 
0.0000000e+00 0.0000000e+00 0.0000000e+00 
0.0000000e+00 0.0000000e+00 0.0000000e+00 
0.0000000e+00 0.0000000e+00 0.0000000e+00 
0.0000000e+00 0.0000000e+00 0.0000000e+00 
0.0000000e+00 0.0000000e+00 0.0000000e+00 
0.0000000e+00 0.0000000e+00 0.0000000e+00 
0.0000000e+00 0.0000000e+00 0.0000000e+00 
0.0000000e+00 0.0000000e+00 0.0000000e+00 
0.0000000e+00 0.0000000e+00 0.0000000e+00 
0.0000000e+00 0.0000000e+00 0.0000000e+00 
0.0000000e+00 0.0000000e+00 0.0000000e+00 
0.0000000e+00 0.0000000e+00 0.0000000e+00 
0.0000000e+00 0.0000000e+00 0.0000000e+00 
0.0000000e+00 0.0000000e+00 0.0000000e+00 
0.0000000e+00 0.0000000e+00 0.0000000e+00 
0.0000000e+00 0.0000000e+00 0.0000000e+00 
0.0000000e+00 0.0000000e+00 0.0000000e+00 
0.0000000e+00 0.0000000e+00 0.0000000e+00 
0.0000000e+00 0.0000000e+00 0.0000000e+00 
0.0000000e+00 0.0000000e+00 0.0000000e+00 
1.6934079e-06 -4.7603297e-07 -8.4557922e-07 
3.2823166e-06 -9.5502935e-07 -1.7784090e-06 
4.0915129e-06 -7.6213757e-07 -3.6483120e-06 
4.8750585e-06 -1.0234515e-06 -3.1959055e-06 
5.2008877e-06 -9.3206262e-07 -2.9214182e-06 
3.9691831e-06 -2.5950710e-06 -3.8095047e-06 
3.0563556e-06 -8.8859451e-07 -2.5545471e-06 
3.5243686e-06 -7.3570573e-07 -1.9430927e-06 
3.9293309e-06 -1.8569493e-06 -2.1936883e-06 
3.7163848e-06 -2.3010537e-08 1.9656281e-06 
3.7784100e-06 2.8072918e-06 1.8037462e-06 
4.3430027e-06 -6.8450668e-06 -1.5001678e-08 
4.6824480e-06 -2.0768130e-06 3.0874651e-07 
9.2455775e-06 8.0285645e-08 -3.5300725e-06 
1.0785740e-05 -6.5127060e-06 -8.2484039e-06 
1.7425289e-05 -7.0908914e-06 -1.2024415e-05 
2.9896617e-05 -1.0290869e-05 -1.4272241e-05 
3.5593966e-05 -1.4471187e-05 -1.4241017e-05 
4.5777888e-05 -1.3470753e-05 -5.5544328e-06 
4.7012847e-05 -1.5142545e-05 -2.1611783e-07 
4.3557095e-05 -1.1161436e-05 4.2980623e-06 
3.2330288e-05 -7.3495253e-06 1.2716231e-05 
1.9659972e-05 -6.4454116e-06 1.2535465e-05 
1.1735312e-05 -2.4278559e-06 1.3621921e-05 
6.4375727e-06 -3.2182979e-06 9.9966219e-06 
3.1468246e-06 -2.0785874e-06 4.6047962e-06 
4.8482057e-06 -4.3877681e-06 4.6195755e-06 
5.0608774e-06 -1.9291040e-06 5.1935804e-06 
5.7360944e-06 -2.4350929e-06 -1.3034479e-06 
3.1851082e-06 -1.6226517e-06 4.1472529e-07 
5.5643068e-06 3.4440868e-07 -1.0594698e-06 
7.3165602e-06 -1.2632528e-06 -2.3852635e-06 
5.3549002e-06 -3.6540307e-06 -5.3219633e-06 
9.2764221e-06 6.6049879e-06 -7.5417533e-06 
1.5103172e-05 -7.8830763e-06 -9.2608234e-06 
1.7929546e-05 -1.3982269e-05 -1.2617927e-05 
3.0650484e-05 -1.1689119e-05 -1.4458694e-05 
3.9109436e-05 -1.4964444e-05 -1.1272234e-05 
4.3135296e-05 -1.5604046e-05 -7.2100697e-06 
4.2168132e-05 -1.3075810e-05 1.8938680e-06 
3.7146376e-05 -1.1989585e-05 7.8390149e-06 
2.6791127e-05 -8.3478863e-06 1.3609970e-05 
1.7045078e-05 -4.3250611e-06 1.4169502e-05 
7.6340166e-06 -1.6478887e-06 1.1540657e-05 
3.1586578e-06 -1.2715826e-06 1.0307265e-05 
1.8325217e-06 -5.6742749e-07 7.9188403e-06 
7.5639292e-07 -8.8730826e-07 5.9392059e-06 
8.8473968e-07 -8.1538343e-07 3.2396283e-06 
1.0310625e-06 -7.3222236e-07 1.7015400e-06 
0.0000000e+00 4.2090228e-06 0.0000000e+00 
0.0000000e+00 2.3169343e-06 0.0000000e+00 
0.0000000e+00 -6.8136683e-06 0.0000000e+00 
0.0000000e+00 -1.0179454e-05 0.0000000e+00 
0.0000000e+00 -1.0515306e-05 0.0000000e+00 
0.0000000e+00 -1.9210960e-05 0.0000000e+00 
0.0000000e+00 -1.0884704e-05 0.0000000e+00 
0.0000000e+00 -1.6121135e-07 0.0000000e+00 
0.0000000e+00 -5.2410819e-06 0.0000000e+00 
0.0000000e+00 -1.5685778e-06 0.0000000e+00 
0.0000000e+00 6.4418555e-06 0.0000000e+00 
0.0000000e+00 -7.0428439e-07 0.0000000e+00 
0.0000000e+00 -1.2802050e-06 0.0000000e+00 
0.0000000e+00 1.8405806e-05 0.0000000e+00 
0.0000000e+00 3.4140662e-06 0.0000000e+00 
0.0000000e+00 -6.1080660e-05 0.0000000e+00 
0.0000000e+00 -2.0790170e-04 0.0000000e+00 
0.0000000e+00 -3.8964019e-04 0.0000000e+00 
0.0000000e+00 -5.0423457e-04 0.0000000e+00 
0.0000000e+00 -5.0811633e-04 0.0000000e+00 
0.0000000e+00 -4.5830078e-04 0.0000000e+00 
0.0000000e+00 -3.2131662e-04 0.0000000e+00 
0.0000000e+00 -1.5357639e-04 0.0000000e+00 
0.0000000e+00 -3.8479702e-05 0.0000000e+00 
0.0000000e+00 -1.5641253e-06 0.0000000e+00 
0.0000000e+00 -6.8156273e-06 0.0000000e+00 
0.0000000e+00 -2.7299084e-05 0.0000000e+00 
0.0000000e+00 -6.6956877e-06 0.0000000e+00 
0.0000000e+00 -1.5334321e-05 0.0000000e+00 
0.0000000e+00 -1.9941293e-05 0.0000000e+00 
0.0000000e+00 1.2928616e-05 0.0000000e+00 
0.0000000e+00 1.1159459e-05 0.0000000e+00 
0.0000000e+00 -3.0453161e-06 0.0000000e+00 
0.0000000e+00 3.7117610e-05 0.0000000e+00 
0.0000000e+00 7.8022094e-07 0.0000000e+00 
0.0000000e+00 -9.5826239e-05 0.0000000e+00 
0.0000000e+00 -2.1962321e-04 0.0000000e+00 
0.0000000e+00 -3.7412375e-04 0.0000000e+00 
0.0000000e+00 -5.1874854e-04 0.0000000e+00 
0.0000000e+00 -5.0597975e-04 0.0000000e+00 
0.0000000e+00 -4.5233563e-04 0.0000000e+00 
0.0000000e+00 -2.8266921e-04 0.0000000e+00 
0.0000000e+00 -1.1703417e-04 0.0000000e+00 
0.0000000e+00 -1.1376324e-05 0.0000000e+00 
0.0000000e+00 1.2606937e-05 0.0000000e+00 
0.0000000e+00 5.0686199e-06 0.0000000e+00 
0.0000000e+00 -4.3413947e-06 0.0000000e+00 
0.0000000e+00 -1.7894829e-06 0.0000000e+00 
0.0000000e+00 -1.0226137e-06 0.0000000e+00 
1.0999310e-06 3.9435091e-07 -3.7703199e-08 
1.5735661e-06 1.5686490e-07 -1.6830660e-07 
5.9200028e-07 3.7297457e-07 -2.8338169e-07 
2.5564776e-07 2.7602441e-06 -2.6783690e-07 
6.2210324e-07 1.2835397e-07 9.2189407e-07 
2.4292962e-07 1.0453624e-06 1.9561026e-06 
-3.5898836e-07 1.7096760e-06 1.6247735e-06 
-6.3593308e-07 2.2566192e-06 8.0654377e-07 
3.5454887e-06 7.3967635e-07 -1.4366116e-06 
1.2133434e-06 1.2235906e-06 5.2308491e-07 
5.8031543e-07 3.1465204e-06 -1.9052192e-06 
3.1782965e-06 8.3985987e-07 -8.4535162e-07 
0.0000000e+00 6.8797885e-06 0.0000000e+00 
0.0000000e+00 2.6971333e-07 0.0000000e+00 
0.0000000e+00 -4.3313576e-06 0.0000000e+00 
0.0000000e+00 -1.1545089e-05 0.0000000e+00 
0.0000000e+00 -1.9467761e-05 0.0000000e+00 
0.0000000e+00 -2.5508070e-05 0.0000000e+00 
0.0000000e+00 -1.6635378e-05 0.0000000e+00 
0.0000000e+00 -4.3093692e-06 0.0000000e+00 
0.0000000e+00 -2.1447756e-06 0.0000000e+00 
0.0000000e+00 8.7979224e-06 0.0000000e+00 
0.0000000e+00 4.8203956e-06 0.0000000e+00 
0.0000000e+00 -2.9647906e-06 0.0000000e+00 
0.0000000e+00 8.4528938e-06 0.0000000e+00 
0.0000000e+00 6.3112449e-05 0.0000000e+00 
0.0000000e+00 -2.9174273e-05 0.0000000e+00 