# vtk DataFile Version 4.0
vtk output
ASCII
DATASET UNSTRUCTURED_GRID
POINTS 1919 float
0.0000000e+00 0.0000000e+00 0.0000000e+00 
0.0000000e+00 0.0000000e+00 5.0000000e+01 
5.0000000e+00 0.0000000e+00 0.0000000e+00 
5.0000000e+00 0.0000000e+00 5.0000000e+01 
5.0000000e+00 1.0000000e+00 0.0000000e+00 
5.0000000e+00 1.0000000e+00 5.0000000e+01 
0.0000000e+00 1.0000000e+00 0.0000000e+00 
0.0000000e+00 1.0000000e+00 5.0000000e+01 
5.0000000e+00 2.0000000e+00 0.0000000e+00 
5.0000000e+00 2.0000000e+00 5.0000000e+01 
3.0000000e+00 2.0000000e+00 0.0000000e+00 
3.0000000e+00 2.0000000e+00 5.0000000e+01 
0.0000000e+00 2.0000000e+00 0.0000000e+00 
0.0000000e+00 2.0000000e+00 5.0000000e+01 
1.5000000e+00 3.0000000e+00 0.0000000e+00 
1.5000000e+00 3.0000000e+00 5.0000000e+01 
7.5000000e-01 3.0000000e+00 0.0000000e+00 
7.5000000e-01 3.0000000e+00 5.0000000e+01 
0.0000000e+00 3.0000000e+00 0.0000000e+00 
0.0000000e+00 3.0000000e+00 5.0000000e+01 
7.5000000e-01 3.0000000e+00 5.0000000e-01 
7.5000000e-01 3.0000000e+00 1.0000000e+00 
7.5000000e-01 3.0000000e+00 1.5000000e+00 
7.5000000e-01 3.0000000e+00 2.0000000e+00 
7.5000000e-01 3.0000000e+00 2.5000000e+00 
7.5000000e-01 3.0000000e+00 3.0000000e+00 
7.5000000e-01 3.0000000e+00 3.5000000e+00 
7.5000000e-01 3.0000000e+00 4.0000000e+00 
7.5000000e-01 3.0000000e+00 4.5000000e+00 
7.5000000e-01 3.0000000e+00 5.0000000e+00 
7.5000000e-01 3.0000000e+00 5.5000000e+00 
7.5000000e-01 3.0000000e+00 6.0000000e+00 
7.5000000e-01 3.0000000e+00 6.5000000e+00 
7.5000000e-01 3.0000000e+00 7.0000000e+00 
7.5000000e-01 3.0000000e+00 7.5000000e+00 
7.5000000e-01 3.0000000e+00 8.0000000e+00 
7.5000000e-01 3.0000000e+00 8.5000000e+00 
7.5000000e-01 3.0000000e+00 9.0000000e+00 
7.5000000e-01 3.0000000e+00 9.5000000e+00 
7.5000000e-01 3.0000000e+00 1.0000000e+01 
7.5000000e-01 3.0000000e+00 1.0500000e+01 
7.5000000e-01 3.0000000e+00 1.1000000e+01 
7.5000000e-01 3.0000000e+00 1.1500000e+01 
7.5000000e-01 3.0000000e+00 1.2000000e+01 
7.5000000e-01 3.0000000e+00 1.2500000e+01 
7.5000000e-01 3.0000000e+00 1.3000000e+01 
7.5000000e-01 3.0000000e+00 1.3500000e+01 
7.5000000e-01 3.0000000e+00 1.4000000e+01 
7.5000000e-01 3.0000000e+00 1.4500000e+01 
7.5000000e-01 3.0000000e+00 1.5000000e+01 
7.5000000e-01 3.0000000e+00 1.5500000e+01 
7.5000000e-01 3.0000000e+00 1.6000000e+01 
7.5000000e-01 3.0000000e+00 1.6500000e+01 
7.5000000e-01 3.0000000e+00 1.7000000e+01 
7.5000000e-01 3.0000000e+00 1.7500000e+01 
7.5000000e-01 3.0000000e+00 1.8000000e+01 
7.5000000e-01 3.0000000e+00 1.8500000e+01 
7.5000000e-01 3.0000000e+00 1.9000000e+01 
7.5000000e-01 3.0000000e+00 1.9500000e+01 
7.5000000e-01 3.0000000e+00 2.0000000e+01 
7.5000000e-01 3.0000000e+00 2.0500000e+01 
7.5000000e-01 3.0000000e+00 2.1000000e+01 
7.5000000e-01 3.0000000e+00 2.1500000e+01 
7.5000000e-01 3.0000000e+00 2.2000000e+01 
7.5000000e-01 3.0000000e+00 2.2500000e+01 
7.5000000e-01 3.0000000e+00 2.3000000e+01 
7.5000000e-01 3.0000000e+00 2.3500000e+01 
7.5000000e-01 3.0000000e+00 2.4000000e+01 
7.5000000e-01 3.0000000e+00 2.4500000e+01 
7.5000000e-01 3.0000000e+00 2.5000000e+01 
7.5000000e-01 3.0000000e+00 2.5500000e+01 
7.5000000e-01 3.0000000e+00 2.6000000e+01 
7.5000000e-01 3.0000000e+00 2.6500000e+01 
7.5000000e-01 3.0000000e+00 2.7000000e+01 
7.5000000e-01 3.0000000e+00 2.7500000e+01 
7.5000000e-01 3.0000000e+00 2.8000000e+01 
7.5000000e-01 3.0000000e+00 2.8500000e+01 
7.5000000e-01 3.0000000e+00 2.9000000e+01 
7.5000000e-01 3.0000000e+00 2.9500000e+01 
7.5000000e-01 3.0000000e+00 3.0000000e+01 
7.5000000e-01 3.0000000e+00 3.0500000e+01 
7.5000000e-01 3.0000000e+00 3.1000000e+01 
7.5000000e-01 3.0000000e+00 3.1500000e+01 
7.5000000e-01 3.0000000e+00 3.2000000e+01 
7.5000000e-01 3.0000000e+00 3.2500000e+01 
7.5000000e-01 3.0000000e+00 3.3000000e+01 
7.5000000e-01 3.0000000e+00 3.3500000e+01 
7.5000000e-01 3.0000000e+00 3.4000000e+01 
7.5000000e-01 3.0000000e+00 3.4500000e+01 
7.5000000e-01 3.0000000e+00 3.5000000e+01 
7.5000000e-01 3.0000000e+00 3.5500000e+01 
7.5000000e-01 3.0000000e+00 3.6000000e+01 
7.5000000e-01 3.0000000e+00 3.6500000e+01 
7.5000000e-01 3.0000000e+00 3.7000000e+01 
7.5000000e-01 3.0000000e+00 3.7500000e+01 
7.5000000e-01 3.0000000e+00 3.8000000e+01 
7.5000000e-01 3.0000000e+00 3.8500000e+01 
7.5000000e-01 3.0000000e+00 3.9000000e+01 
7.5000000e-01 3.0000000e+00 3.9500000e+01 
7.5000000e-01 3.0000000e+00 4.0000000e+01 
7.5000000e-01 3.0000000e+00 4.0500000e+01 
7.5000000e-01 3.0000000e+00 4.1000000e+01 
7.5000000e-01 3.0000000e+00 4.1500000e+01 
7.5000000e-01 3.0000000e+00 4.2000000e+01 
7.5000000e-01 3.0000000e+00 4.2500000e+01 
7.5000000e-01 3.0000000e+00 4.3000000e+01 
7.5000000e-01 3.0000000e+00 4.3500000e+01 
7.5000000e-01 3.0000000e+00 4.4000000e+01 
7.5000000e-01 3.0000000e+00 4.4500000e+01 
7.5000000e-01 3.0000000e+00 4.5000000e+01 
7.5000000e-01 3.0000000e+00 4.5500000e+01 
7.5000000e-01 3.0000000e+00 4.6000000e+01 
7.5000000e-01 3.0000000e+00 4.6500000e+01 
7.5000000e-01 3.0000000e+00 4.7000000e+01 
7.5000000e-01 3.0000000e+00 4.7500000e+01 
7.5000000e-01 3.0000000e+00 4.8000000e+01 
7.5000000e-01 3.0000000e+00 4.8500000e+01 
7.5000000e-01 3.0000000e+00 4.9000000e+01 
7.5000000e-01 3.0000000e+00 4.9500000e+01 
7.5000000e-01 3.0250001e+00 0.0000000e+00 
7.5000000e-01 3.0250001e+00 5.0000000e-01 
7.5000000e-01 3.0250001e+00 1.0000000e+00 
7.5000000e-01 3.0250001e+00 1.5000000e+00 
7.5000000e-01 3.0250001e+00 2.0000000e+00 
7.5000000e-01 3.0250001e+00 2.5000000e+00 
7.5000000e-01 3.0250001e+00 3.0000000e+00 
7.5000000e-01 3.0250001e+00 3.5000000e+00 
7.5000000e-01 3.0250001e+00 4.0000000e+00 
7.5000000e-01 3.0250001e+00 4.5000000e+00 
7.5000000e-01 3.0250001e+00 5.0000000e+00 
7.5000000e-01 3.0250001e+00 5.5000000e+00 
7.5000000e-01 3.0250001e+00 6.0000000e+00 
7.5000000e-01 3.0250001e+00 6.5000000e+00 
7.5000000e-01 3.0250001e+00 7.0000000e+00 
7.5000000e-01 3.0250001e+00 7.5000000e+00 
7.5000000e-01 3.0250001e+00 8.0000000e+00 
7.5000000e-01 3.0250001e+00 8.5000000e+00 
7.5000000e-01 3.0250001e+00 9.0000000e+00 
7.5000000e-01 3.0250001e+00 9.5000000e+00 
7.5000000e-01 3.0250001e+00 1.0000000e+01 
7.5000000e-01 3.0250001e+00 1.0500000e+01 
7.5000000e-01 3.0250001e+00 1.1000000e+01 
7.5000000e-01 3.0250001e+00 1.1500000e+01 
7.5000000e-01 3.0250001e+00 1.2000000e+01 
7.5000000e-01 3.0250001e+00 1.2500000e+01 
7.5000000e-01 3.0250001e+00 1.3000000e+01 
7.5000000e-01 3.0250001e+00 1.3500000e+01 
7.5000000e-01 3.0250001e+00 1.4000000e+01 
7.5000000e-01 3.0250001e+00 1.4500000e+01 
7.5000000e-01 3.0250001e+00 1.5000000e+01 
7.5000000e-01 3.0250001e+00 1.5500000e+01 
7.5000000e-01 3.0250001e+00 1.6000000e+01 
7.5000000e-01 3.0250001e+00 1.6500000e+01 
7.5000000e-01 3.0250001e+00 1.7000000e+01 
7.5000000e-01 3.0250001e+00 1.7500000e+01 
7.5000000e-01 3.0250001e+00 1.8000000e+01 
7.5000000e-01 3.0250001e+00 1.8500000e+01 
7.5000000e-01 3.0250001e+00 1.9000000e+01 
7.5000000e-01 3.0250001e+00 1.9500000e+01 
7.5000000e-01 3.0250001e+00 2.0000000e+01 
7.5000000e-01 3.0250001e+00 2.0500000e+01 
7.5000000e-01 3.0250001e+00 2.1000000e+01 
7.5000000e-01 3.0250001e+00 2.1500000e+01 
7.5000000e-01 3.0250001e+00 2.2000000e+01 
7.5000000e-01 3.0250001e+00 2.2500000e+01 
7.5000000e-01 3.0250001e+00 2.3000000e+01 
7.5000000e-01 3.0250001e+00 2.3500000e+01 
7.5000000e-01 3.0250001e+00 2.4000000e+01 
7.5000000e-01 3.0250001e+00 2.4500000e+01 
7.5000000e-01 3.0250001e+00 2.5000000e+01 
7.5000000e-01 3.0250001e+00 2.5500000e+01 
7.5000000e-01 3.0250001e+00 2.6000000e+01 
7.5000000e-01 3.0250001e+00 2.6500000e+01 
7.5000000e-01 3.0250001e+00 2.7000000e+01 
7.5000000e-01 3.0250001e+00 2.7500000e+01 
7.5000000e-01 3.0250001e+00 2.8000000e+01 
7.5000000e-01 3.0250001e+00 2.8500000e+01 
7.5000000e-01 3.0250001e+00 2.9000000e+01 
7.5000000e-01 3.0250001e+00 2.9500000e+01 
7.5000000e-01 3.0250001e+00 3.0000000e+01 
7.5000000e-01 3.0250001e+00 3.0500000e+01 
7.5000000e-01 3.0250001e+00 3.1000000e+01 
7.5000000e-01 3.0250001e+00 3.1500000e+01 
7.5000000e-01 3.0250001e+00 3.2000000e+01 
7.5000000e-01 3.0250001e+00 3.2500000e+01 
7.5000000e-01 3.0250001e+00 3.3000000e+01 
7.5000000e-01 3.0250001e+00 3.3500000e+01 
7.5000000e-01 3.0250001e+00 3.4000000e+01 
7.5000000e-01 3.0250001e+00 3.4500000e+01 
7.5000000e-01 3.0250001e+00 3.5000000e+01 
7.5000000e-01 3.0250001e+00 3.5500000e+01 
7.5000000e-01 3.0250001e+00 3.6000000e+01 
7.5000000e-01 3.0250001e+00 3.6500000e+01 
7.5000000e-01 3.0250001e+00 3.7000000e+01 
7.5000000e-01 3.0250001e+00 3.7500000e+01 
7.5000000e-01 3.0250001e+00 3.8000000e+01 
7.5000000e-01 3.0250001e+00 3.8500000e+01 
7.5000000e-01 3.0250001e+00 3.9000000e+01 
7.5000000e-01 3.0250001e+00 3.9500000e+01 
7.5000000e-01 3.0250001e+00 4.0000000e+01 
7.5000000e-01 3.0250001e+00 4.0500000e+01 
7.5000000e-01 3.0250001e+00 4.1000000e+01 
7.5000000e-01 3.0250001e+00 4.1500000e+01 
7.5000000e-01 3.0250001e+00 4.2000000e+01 
7.5000000e-01 3.0250001e+00 4.2500000e+01 
7.5000000e-01 3.0250001e+00 4.3000000e+01 
7.5000000e-01 3.0250001e+00 4.3500000e+01 
7.5000000e-01 3.0250001e+00 4.4000000e+01 
7.5000000e-01 3.0250001e+00 4.4500000e+01 
7.5000000e-01 3.0250001e+00 4.5000000e+01 
7.5000000e-01 3.0250001e+00 4.5500000e+01 
7.5000000e-01 3.0250001e+00 4.6000000e+01 
7.5000000e-01 3.0250001e+00 4.6500000e+01 
7.5000000e-01 3.0250001e+00 4.7000000e+01 
7.5000000e-01 3.0250001e+00 4.7500000e+01 
7.5000000e-01 3.0250001e+00 4.8000000e+01 
7.5000000e-01 3.0250001e+00 4.8500000e+01 
7.5000000e-01 3.0250001e+00 4.9000000e+01 
7.5000000e-01 3.0250001e+00 4.9500000e+01 
7.5000000e-01 3.0250001e+00 5.0000000e+01 
1.5000000e+00 3.0000000e+00 2.5000000e+01 
3.0000000e+00 2.0000000e+00 2.5000000e+01 
4.0000000e+00 2.0000000e+00 2.5000000e+01 
5.0000000e+00 2.0000000e+00 2.5000000e+01 
0.0000000e+00 3.0000000e+00 2.5000000e+01 
0.0000000e+00 0.0000000e+00 1.0000000e+00 
0.0000000e+00 0.0000000e+00 2.0000000e+00 
0.0000000e+00 0.0000000e+00 3.0000000e+00 
0.0000000e+00 0.0000000e+00 4.0000000e+00 
0.0000000e+00 0.0000000e+00 5.0000000e+00 
[...]
POINT_DATA 1919
FIELD FieldData 3
DISPLACEMENT 3 1919  float
0.0000000e+00 0.0000000e+00 0.0000000e+00 
0.0000000e+00 0.0000000e+00 0.0000000e+00 
0.0000000e+00 0.0000000e+00 0.0000000e+00 
0.0000000e+00 0.0000000e+00 0.0000000e+00 
-1.5192604e-06 -8.2677286e-07 3.3337636e-07 
1.1478505e-06 -4.8295118e-07 2.0391194e-06 
0.0000000e+00 8.2129461e-08 0.0000000e+00 
0.0000000e+00 -1.3344805e-06 0.0000000e+00 
-7.5654316e-07 -2.5588536e-06 6.0200330e-07 
1.1965298e-06 1.9651927e-07 1.6818161e-06 
-4.6106502e-06 1.6473032e-06 5.0482859e-06 
6.2102350e-07 -2.3717960e-06 3.7209281e-06 
0.0000000e+00 -9.2966182e-08 0.0000000e+00 
0.0000000e+00 -2.7563578e-07 0.0000000e+00 
-9.6365475e-06 2.4531489e-06 1.3055970e-05 
-1.4789841e-06 -8.5693767e-07 3.6991000e-06 
-1.2112832e-05 -9.6301037e-06 4.2379888e-06 
4.0471942e-08 7.0844471e-06 -1.5319124e-06 
0.0000000e+00 -5.8194805e-06 0.0000000e+00 
0.0000000e+00 5.2049841e-06 0.0000000e+00 
-9.8855435e-06 -1.0387177e-05 3.6781312e-06 
-1.1640562e-05 -1.2866565e-05 2.4969818e-06 
-1.1507058e-05 -1.7012715e-05 2.2326933e-06 
-1.6397595e-05 -2.2331025e-05 1.8784303e-06 
-1.6374077e-05 -2.7721948e-05 3.9194620e-06 
-1.4374494e-05 -3.2112352e-05 2.1132134e-06 
-1.3110635e-05 -3.5419976e-05 -1.4110338e-07 
-1.1483859e-05 -3.7499743e-05 -1.4782950e-06 
-9.1677730e-06 -3.8743245e-05 1.8611140e-06 
-1.1427687e-05 -3.8557737e-05 9.3175413e-06 
-5.1630036e-06 -3.7211434e-05 1.1093994e-05 
-8.2091556e-06 -3.4468943e-05 7.8210078e-06 
-7.2010071e-06 -3.1113810e-05 4.6092991e-06 
-9.6890126e-06 -2.7570615e-05 6.5666068e-06 
-9.9915023e-06 -2.4229581e-05 1.1656392e-05 
-1.5545944e-05 -2.0605981e-05 1.9166191e-05 
-1.9784142e-05 -1.6956372e-05 1.8165072e-05 
-2.2308981e-05 -1.2518611e-05 1.0405666e-05 
-2.0672573e-05 -6.9089651e-06 2.9163225e-06 
-2.1216068e-05 7.9507720e-07 -3.2130083e-06 
-1.7151169e-05 1.1774967e-05 -4.1536700e-06 
-2.5663372e-05 2.7043374e-05 -3.5715486e-06 
-3.0110019e-05 4.6896559e-05 -2.5746940e-06 
-2.9052075e-05 6.7371060e-05 1.4566065e-06 
-2.9253502e-05 7.8267163e-05 4.6000332e-06 
-2.3668528e-05 5.7231522e-05 1.5616768e-05 
-2.4400937e-05 -3.0040339e-05 6.5540255e-05 
-3.3320630e-05 -2.3412101e-04 8.7193890e-05 
-5.5900422e-05 -6.1810092e-04 1.7997267e-04 
-7.0774644e-05 -1.2426591e-03 1.4138009e-04 
-1.1954395e-04 -2.1522834e-03 2.5456061e-04 
-1.5610587e-04 -3.2939625e-03 1.0152238e-04 
-2.8152019e-04 -4.4787168e-03 1.6488523e-04 
-6.4766267e-04 -5.1933737e-03 9.6783107e-05 
-2.8332751e-04 -4.9905367e-03 3.4782362e-05 
-2.1611771e-04 -4.5998455e-03 3.4946945e-05 
-2.0938845e-04 -4.4900309e-03 -2.5421812e-05 
-2.2604343e-04 -4.5850920e-03 -8.1454957e-05 
-2.2850836e-04 -4.3969355e-03 -1.5671285e-04 
-2.0614262e-04 -3.3905234e-03 -1.2437956e-04 
-1.2957801e-04 -2.1522704e-03 -2.3711452e-04 
-9.9628473e-05 -1.0936203e-03 -1.2253903e-04 
-4.4746819e-05 -3.7021807e-04 -1.4473869e-04 
-2.9234498e-05 3.7980200e-05 -8.8380017e-05 
-9.2380369e-06 2.1271476e-04 -6.0155409e-05 
-5.8860828e-06 2.4296920e-04 -5.0378072e-05 
-3.2211508e-06 2.0422920e-04 -3.7148940e-05 
-4.3785039e-07 1.4052566e-04 -2.8413126e-05 
7.4418003e-06 7.9723592e-05 -1.6610937e-05 
9.5208834e-06 3.2281034e-05 -1.4698208e-05 
2.5359793e-06 -1.4328840e-07 -6.4977366e-06 
5.0727094e-06 -1.9346342e-05 -8.9991017e-06 
7.3558040e-06 -2.9047300e-05 -5.7365328e-06 
5.5256533e-06 -3.2245669e-05 -3.8483081e-06 
2.8901832e-06 -3.1978750e-05 3.2086916e-06 
-5.4252992e-06 -2.9371864e-05 8.9409286e-06 
-1.1475239e-05 -2.5248042e-05 8.5153797e-06 
-1.6132326e-05 -1.9018427e-05 1.5613971e-06 
-1.4726777e-05 -1.0381915e-05 -7.3716155e-06 
-1.8809993e-05 1.2215521e-06 -9.3345770e-06 
-1.5659631e-05 1.5992820e-05 -5.4378465e-06 
-1.8282528e-05 3.4098117e-05 2.4783828e-06 
-1.8355397e-05 5.4100448e-05 7.5777880e-06 
-1.6849712e-05 7.1285671e-05 1.8863590e-05 
-2.0062163e-05 7.4904128e-05 3.2571665e-05 
-1.9875584e-05 4.2199634e-05 5.3062267e-05 
-3.2359803e-05 -6.2477862e-05 1.0007102e-04 
-3.9927170e-05 -2.9153653e-04 1.1978759e-04 
-7.2159513e-05 -7.0847000e-04 2.1180887e-04 
-8.6199376e-05 -1.3685584e-03 1.7133701e-04 
-1.4332836e-04 -2.3073782e-03 2.7834374e-04 
-1.7608280e-04 -3.4499082e-03 1.2516431e-04 
-2.5392295e-04 -4.5744828e-03 2.0685729e-04 
-3.3838101e-04 -5.1085069e-03 4.9745144e-05 
-3.5665790e-04 -4.9148141e-03 -1.4058582e-05 
-5.5159285e-04 -4.6375697e-03 -2.8749180e-06 
-2.3471258e-04 -4.5733294e-03 8.6520813e-06 
-1.9722655e-04 -4.6398784e-03 -7.1362192e-05 
-1.9196073e-04 -4.2684884e-03 -1.6885341e-04 
-1.6777466e-04 -3.1420551e-03 -1.2205509e-04 
-1.0667936e-04 -1.9063033e-03 -2.3943075e-04 
-7.7578225e-05 -9.0356334e-04 -1.3392630e-04 
-3.3680069e-05 -2.4518580e-04 -1.6257651e-04 
-2.0983918e-05 1.0802425e-04 -9.8351302e-05 
-9.7899726e-07 2.4344923e-04 -8.2096783e-05 
5.3693420e-06 2.4949384e-04 -5.6382403e-05 
6.8125833e-06 1.9711288e-04 -3.2616736e-05 
9.4445277e-06 1.2907608e-04 -2.6484211e-05 
8.9457290e-06 6.8585294e-05 -1.4091269e-05 
7.4606096e-06 2.3844297e-05 -1.3758201e-05 
7.1425425e-06 -4.5820325e-06 -4.3566797e-06 
8.4601124e-06 -1.9497456e-05 -2.4258311e-06 
5.9278768e-06 -2.4856154e-05 1.2259178e-06 
3.4290695e-06 -2.3793889e-05 3.9090942e-06 
5.0979957e-06 -1.8898903e-05 1.1042015e-05 
3.0329700e-06 -1.2178476e-05 1.5172847e-05 
-1.7633179e-06 -5.0387494e-06 1.2863291e-05 
-2.0183948e-06 1.1287418e-06 7.9743604e-06 
-4.8487091e-06 5.4630104e-06 1.3198402e-06 
0.0000000e+00 -9.6236827e-06 0.0000000e+00 
0.0000000e+00 -1.0407684e-05 0.0000000e+00 
0.0000000e+00 -1.2902517e-05 0.0000000e+00 
0.0000000e+00 -1.7066821e-05 0.0000000e+00 
0.0000000e+00 -2.2353157e-05 0.0000000e+00 
0.0000000e+00 -2.7695196e-05 0.0000000e+00 
0.0000000e+00 -3.2135194e-05 0.0000000e+00 
0.0000000e+00 -3.5428358e-05 0.0000000e+00 
0.0000000e+00 -3.7582198e-05 0.0000000e+00 
0.0000000e+00 -3.8740658e-05 0.0000000e+00 
0.0000000e+00 -3.8611321e-05 0.0000000e+00 
0.0000000e+00 -3.7190657e-05 0.0000000e+00 
0.0000000e+00 -3.4511333e-05 0.0000000e+00 
0.0000000e+00 -3.1152078e-05 0.0000000e+00 
0.0000000e+00 -2.7638800e-05 0.0000000e+00 
0.0000000e+00 -2.4219455e-05 0.0000000e+00 
0.0000000e+00 -2.0675237e-05 0.0000000e+00 
0.0000000e+00 -1.6958200e-05 0.0000000e+00 
0.0000000e+00 -1.2563467e-05 0.0000000e+00 
0.0000000e+00 -6.9478792e-06 0.0000000e+00 
0.0000000e+00 7.7387244e-07 0.0000000e+00 
0.0000000e+00 1.1783361e-05 0.0000000e+00 
0.0000000e+00 2.7227157e-05 0.0000000e+00 
0.0000000e+00 4.7201429e-05 0.0000000e+00 
0.0000000e+00 6.7994108e-05 0.0000000e+00 
0.0000000e+00 7.8930570e-05 0.0000000e+00 
0.0000000e+00 5.8148275e-05 0.0000000e+00 
0.0000000e+00 -2.9321145e-05 0.0000000e+00 
0.0000000e+00 -2.3408639e-04 0.0000000e+00 
0.0000000e+00 -6.1890506e-04 0.0000000e+00 
0.0000000e+00 -1.2474455e-03 0.0000000e+00 
0.0000000e+00 -2.1594642e-03 0.0000000e+00 
0.0000000e+00 -3.3117838e-03 0.0000000e+00 
0.0000000e+00 -4.5031533e-03 0.0000000e+00 
0.0000000e+00 -5.2139559e-03 0.0000000e+00 
0.0000000e+00 -5.0196950e-03 0.0000000e+00 
0.0000000e+00 -4.6283188e-03 0.0000000e+00 
0.0000000e+00 -4.5117475e-03 0.0000000e+00 
0.0000000e+00 -4.6147266e-03 0.0000000e+00 
0.0000000e+00 -4.4210171e-03 0.0000000e+00 
0.0000000e+00 -3.4147210e-03 0.0000000e+00 
0.0000000e+00 -2.1654386e-03 0.0000000e+00 
0.0000000e+00 -1.1019633e-03 0.0000000e+00 
0.0000000e+00 -3.7294126e-04 0.0000000e+00 
0.0000000e+00 3.8023773e-05 0.0000000e+00 
0.0000000e+00 2.1369607e-04 0.0000000e+00 
0.0000000e+00 2.4471400e-04 0.0000000e+00 
0.0000000e+00 2.0512196e-04 0.0000000e+00 
0.0000000e+00 1.4138133e-04 0.0000000e+00 
0.0000000e+00 8.0160440e-05 0.0000000e+00 
0.0000000e+00 3.2431515e-05 0.0000000e+00 
0.0000000e+00 -6.7278535e-08 0.0000000e+00 
0.0000000e+00 -1.9396368e-05 0.0000000e+00 
0.0000000e+00 -2.9069382e-05 0.0000000e+00 
0.0000000e+00 -3.2361546e-05 0.0000000e+00 
0.0000000e+00 -3.2021304e-05 0.0000000e+00 
0.0000000e+00 -2.9463643e-05 0.0000000e+00 
0.0000000e+00 -2.5258656e-05 0.0000000e+00 
0.0000000e+00 -1.9048202e-05 0.0000000e+00 
0.0000000e+00 -1.0383480e-05 0.0000000e+00 
0.0000000e+00 1.2049948e-06 0.0000000e+00 
0.0000000e+00 1.6054379e-05 0.0000000e+00 
0.0000000e+00 3.4245502e-05 0.0000000e+00 
0.0000000e+00 5.4402593e-05 0.0000000e+00 
0.0000000e+00 7.1899565e-05 0.0000000e+00 
0.0000000e+00 7.5594893e-05 0.0000000e+00 
0.0000000e+00 4.3131462e-05 0.0000000e+00 
0.0000000e+00 -6.1837127e-05 0.0000000e+00 
0.0000000e+00 -2.9178674e-04 0.0000000e+00 
0.0000000e+00 -7.0947816e-04 0.0000000e+00 
0.0000000e+00 -1.3740446e-03 0.0000000e+00 
0.0000000e+00 -2.3153753e-03 0.0000000e+00 
0.0000000e+00 -3.4688702e-03 0.0000000e+00 
0.0000000e+00 -4.5960257e-03 0.0000000e+00 
0.0000000e+00 -5.1420955e-03 0.0000000e+00 
0.0000000e+00 -4.9403948e-03 0.0000000e+00 
0.0000000e+00 -4.6564927e-03 0.0000000e+00 
0.0000000e+00 -4.5993971e-03 0.0000000e+00 
0.0000000e+00 -4.6704076e-03 0.0000000e+00 
0.0000000e+00 -4.2924504e-03 0.0000000e+00 
0.0000000e+00 -3.1647685e-03 0.0000000e+00 
0.0000000e+00 -1.9180670e-03 0.0000000e+00 
0.0000000e+00 -9.1058708e-04 0.0000000e+00 
0.0000000e+00 -2.4720156e-04 0.0000000e+00 
0.0000000e+00 1.0840080e-04 0.0000000e+00 
0.0000000e+00 2.4459706e-04 0.0000000e+00 
0.0000000e+00 2.5104111e-04 0.0000000e+00 
0.0000000e+00 1.9816011e-04 0.0000000e+00 
0.0000000e+00 1.2983172e-04 0.0000000e+00 
0.0000000e+00 6.8966656e-05 0.0000000e+00 
0.0000000e+00 2.3998777e-05 0.0000000e+00 
0.0000000e+00 -4.5438987e-06 0.0000000e+00 
0.0000000e+00 -1.9558374e-05 0.0000000e+00 
0.0000000e+00 -2.4899251e-05 0.0000000e+00 
0.0000000e+00 -2.3829614e-05 0.0000000e+00 
0.0000000e+00 -1.8936746e-05 0.0000000e+00 
0.0000000e+00 -1.2190138e-05 0.0000000e+00 
0.0000000e+00 -5.0710414e-06 0.0000000e+00 
0.0000000e+00 1.1305714e-06 0.0000000e+00 
0.0000000e+00 5.4565435e-06 0.0000000e+00 
0.0000000e+00 7.0578858e-06 0.0000000e+00 
3.2012904e-06 2.1754533e-05 -1.4693373e-05 
-8.4671265e-06 -4.8058820e-07 -8.1877106e-06 
-8.1305861e-06 4.5685101e-06 -2.1080207e-06 
-5.9317590e-06 2.8854663e-06 -1.0683852e-06 
0.0000000e+00 1.2667838e-06 0.0000000e+00 
0.0000000e+00 0.0000000e+00 0.0000000e+00 
0.0000000e+00 0.0000000e+00 0.0000000e+00 
0.0000000e+00 0.0000000e+00 0.0000000e+00 
0.0000000e+00 0.0000000e+00 0.0000000e+00 
0.0000000e+00 0.0000000e+00 0.0000000e+00 
0.0000000e+00 0.0000000e+00 0.0000000e+00 
0.0000000e+00 0.0000000e+00 0.0000000e+00 
0.0000000e+00 0.0000000e+00 0.0000000e+00 
0.0000000e+00 0.0000000e+00 0.0000000e+00 
0.0000000e+00 0.0000000e+00 0.0000000e+00 
0.0000000e+00 0.0000000e+00 0.0000000e+00 
0.0000000e+00 0.0000000e+00 0.0000000e+00 
0.0000000e+00 0.0000000e+00 0.0000000e+00 
0.0000000e+00 0.0000000e+00 0.0000000e+00 
0.0000000e+00 0.0000000e+00 0.0000000e+00 
0.0000000e+00 0.0000000e+00 0.0000000e+00 
0.0000000e+00 0.0000000e+00 0.0000000e+00 
0.0000000e+00 0.0000000e+00 0.0000000e+00 
0.0000000e+00 0.0000000e+00 0.0000000e+00 
0.0000000e+00 0.0000000e+00 0.0000000e+00 
0.0000000e+00 0.0000000e+00 0.0000000e+00 
0.0000000e+00 0.0000000e+00 0.0000000e+00 
0.0000000e+00 0.0000000e+00 0.0000000e+00 
0.0000000e+00 0.0000000e+00 0.0000000e+00 
0.0000000e+00 0.0000000e+00 0.0000000e+00 
0.0000000e+00 0.0000000e+00 0.0000000e+00 
0.0000000e+00 0.0000000e+00 0.0000000e+00 
0.0000000e+00 0.0000000e+00 0.0000000e+00 
0.0000000e+00 0.0000000e+00 0.0000000e+00 
0.0000000e+00 0.0000000e+00 0.0000000e+00 
0.0000000e+00 0.0000000e+00 0.0000000e+00 
0.0000000e+00 0.0000000e+00 0.0000000e+00 
0.0000000e+00 0.0000000e+00 0.0000000e+00 
0.0000000e+00 0.0000000e+00 0.0000000e+00 
0.0000000e+00 0.0000000e+00 0.0000000e+00 
0.0000000e+00 0.0000000e+00 0.0000000e+00 
0.0000000e+00 0.0000000e+00 0.0000000e+00 
0.0000000e+00 0.0000000e+00 0.0000000e+00 
0.0000000e+00 0.0000000e+00 0.0000000e+00 
0.0000000e+00 0.0000000e+00 0.0000000e+00 
0.0000000e+00 0.0000000e+00 0.0000000e+00 
0.0000000e+00 0.0000000e+00 0.0000000e+00 
0.0000000e+00 0.0000000e+00 0.0000000e+00 
0.0000000e+00 0.0000000e+00 0.0000000e+00 
0.0000000e+00 0.0000000e+00 0.0000000e+00 
0.0000000e+00 0.0000000e+00 0.0000000e+00 
0.0000000e+00 0.0000000e+00 0.0000000e+00 
0.0000000e+00 0.0000000e+00 0.0000000e+00 
0.0000000e+00 0.0000000e+00 0.0000000e+00 
0.0000000e+00 0.0000000e+00 0.0000000e+00 
0.0000000e+00 0.0000000e+00 0.0000000e+00 
0.0000000e+00 0.0000000e+00 0.0000000e+00 
0.0000000e+00 0.0000000e+00 0.0000000e+00 
0.0000000e+00 0.0000000e+00 0.0000000e+00 
0.0000000e+00 0.0000000e+00 0.0000000e+00 
0.0000000e+00 0.0000000e+00 0.0000000e+00 
0.0000000e+00 0.0000000e+00 0.0000000e+00 
0.0000000e+00 0.0000000e+00 0.0000000e+00 
0.0000000e+00 0.0000000e+00 0.0000000e+00 
0.0000000e+00 0.0000000e+00 0.0000000e+00 
0.0000000e+00 0.0000000e+00 0.0000000e+00 
0.0000000e+00 0.0000000e+00 0.0000000e+00 
0.0000000e+00 0.0000000e+00 0.0000000e+00 
0.0000000e+00 0.0000000e+00 0.0000000e+00 
0.0000000e+00 0.0000000e+00 0.0000000e+00 
0.0000000e+00 0.0000000e+00 0.0000000e+00 
0.0000000e+00 0.0000000e+00 0.0000000e+00 
0.0000000e+00 0.0000000e+00 0.0000000e+00 
0.0000000e+00 0.0000000e+00 0.0000000e+00 
0.0000000e+00 0.0000000e+00 0.0000000e+00 
0.0000000e+00 0.0000000e+00 0.0000000e+00 
0.0000000e+00 0.0000000e+00 0.0000000e+00 
0.0000000e+00 0.0000000e+00 0.0000000e+00 
0.0000000e+00 0.0000000e+00 0.0000000e+00 
0.0000000e+00 0.0000000e+00 0.0000000e+00 
0.0000000e+00 0.0000000e+00 0.0000000e+00 
0.0000000e+00 0.0000000e+00 0.0000000e+00 
0.0000000e+00 0.0000000e+00 0.0000000e+00 
0.0000000e+00 0.0000000e+00 0.0000000e+00 
0.0000000e+00 0.0000000e+00 0.0000000e+00 
0.0000000e+00 0.0000000e+00 0.0000000e+00 
0.0000000e+00 0.0000000e+00 0.0000000e+00 
0.0000000e+00 0.0000000e+00 0.0000000e+00 
0.0000000e+00 0.0000000e+00 0.0000000e+00 
0.0000000e+00 0.0000000e+00 0.0000000e+00 
0.0000000e+00 0.0000000e+00 0.0000000e+00 
0.0000000e+00 0.0000000e+00 0.0000000e+00 
0.0000000e+00 0.0000000e+00 0.0000000e+00 
0.0000000e+00 0.0000000e+00 0.0000000e+00 
0.0000000e+00 0.0000000e+00 0.0000000e+00 
0.0000000e+00 0.0000000e+00 0.0000000e+00 
0.0000000e+00 0.0000000e+00 0.0000000e+00 
0.0000000e+00 0.0000000e+00 0.0000000e+00 
0.0000000e+00 0.0000000e+00 0.0000000e+00 
0.0000000e+00 0.0000000e+00 0.0000000e+00 
0.0000000e+00 0.0000000e+00 0.0000000e+00 
0.0000000e+00 0.0000000e+00 0.0000000e+00 
0.0000000e+00 0.0000000e+00 0.0000000e+00 
0.0000000e+00 0.0000000e+00 0.0000000e+00 
0.0000000e+00 0.0000000e+00 0.0000000e+00 
0.0000000e+00 0.0000000e+00 0.0000000e+00 
0.0000000e+00 0.0000000e+00 0.0000000e+00 
0.0000000e+00 0.0000000e+00 0.0000000e+00 
0.0000000e+00 0.0000000e+00 0.0000000e+00 
0.0000000e+00 0.0000000e+00 0.0000000e+00 
0.0000000e+00 0.0000000e+00 0.0000000e+00 
-2.4011831e-06 -5.7016183e-07 1.7203438e-06 
-3.7427624e-06 1.6075575e-07 2.8414424e-06 
-5.3594345e-06 1.2761748e-06 3.1266832e-06 
-6.2763193e-06 6.3059127e-07 2.6992768e-06 
-6.5913837e-06 -3.3721534e-07 2.3938144e-06 
-6.2284362e-06 -2.2213795e-09 2.3681332e-06 
-5.8633086e-06 6.7396883e-07 2.1110998e-06 
-4.9328446e-06 9.0272556e-07 1.0120309e-06 
-3.3012545e-06 -5.3408763e-07 -9.6177553e-07 
-2.1825952e-06 -1.5090602e-06 -5.0193535e-06 
1.3210998e-06 -3.6850927e-06 -9.0842423e-06 
5.1609645e-06 -5.1604952e-06 -1.3990802e-05 
1.4013773e-05 -7.7983377e-06 -1.8150442e-05 
2.4362116e-05 -1.0075249e-05 -1.9440798e-05 
3.5440553e-05 -1.1196470e-05 -1.5944168e-05 
4.2812400e-05 -1.2091394e-05 -1.0422447e-05 
4.9813276e-05 -1.3936497e-05 -1.2249136e-06 
4.6885812e-05 -1.3228145e-05 1.0192074e-05 
3.9669019e-05 -1.3779160e-05 1.7903751e-05 
2.8662043e-05 -1.2922669e-05 1.9031591e-05 
1.9540665e-05 -1.0250264e-05 1.6574329e-05 
9.5951309e-06 -3.7767052e-06 1.0796072e-05 
1.6542533e-06 7.8212173e-07 4.3837258e-06 
-2.9802172e-06 3.6694314e-06 5.2527196e-07 
-4.8808383e-06 3.2737837e-06 -1.6505060e-06 
-5.7029188e-06 1.9020363e-06 -2.2446989e-06 
-5.2537157e-06 1.7636098e-06 -2.0448886e-06 
-4.5052252e-06 9.2523368e-07 -1.9257066e-06 
-3.7336827e-06 1.7012719e-07 -2.8470063e-06 
-2.0932887e-06 -9.1141999e-07 -4.5358629e-06 
9.1166703e-07 -2.3728619e-06 -7.4086702e-06 
5.3788431e-06 -3.3781002e-06 -1.1134547e-05 
1.3259361e-05 -6.0474713e-06 -1.3277134e-05 
2.3715447e-05 -8.9160239e-06 -1.2902262e-05 
3.5945668e-05 -1.0511088e-05 -1.0808541e-05 
4.5019970e-05 -1.4977504e-05 -3.2165101e-06 
4.9079805e-05 -1.4955644e-05 5.5199957e-06 
4.5402136e-05 -1.4591331e-05 1.4616302e-05 
3.8608883e-05 -1.5227843e-05 1.7382452e-05 
2.8452791e-05 -1.1714993e-05 1.7925722e-05 
1.9490355e-05 -8.8405341e-06 1.4248225e-05 
1.0044650e-05 -4.1649823e-06 8.6486107e-06 
4.3130240e-06 -1.2875383e-07 3.1153345e-06 
4.5059340e-07 2.6758014e-06 -1.0591320e-06 
-1.3445871e-06 2.1608316e-06 -2.2103088e-06 
-1.6680681e-06 1.0244137e-06 -1.8479195e-06 
-1.4192286e-06 -1.7788108e-07 -1.3353941e-06 
-3.3573957e-07 -8.7007243e-07 6.4563153e-07 
5.9052280e-07 -8.5082564e-07 2.0740081e-06 
0.0000000e+00 1.2159220e-05 0.0000000e+00 
0.0000000e+00 1.8405119e-05 0.0000000e+00 
0.0000000e+00 2.2711907e-05 0.0000000e+00 
0.0000000e+00 2.6526073e-05 0.0000000e+00 
0.0000000e+00 2.4640020e-05 0.0000000e+00 
0.0000000e+00 2.2439071e-05 0.0000000e+00 
0.0000000e+00 2.1359159e-05 0.0000000e+00 
0.0000000e+00 2.1736743e-05 0.0000000e+00 
0.0000000e+00 2.3966730e-05 0.0000000e+00 
0.0000000e+00 2.8597569e-05 0.0000000e+00 
0.0000000e+00 3.1038930e-05 0.0000000e+00 
0.0000000e+00 2.5702451e-05 0.0000000e+00 
0.0000000e+00 1.8204693e-06 0.0000000e+00 
0.0000000e+00 -8.7619097e-05 0.0000000e+00 
0.0000000e+00 -2.1762017e-04 0.0000000e+00 
0.0000000e+00 -3.8734073e-04 0.0000000e+00 
0.0000000e+00 -5.5365585e-04 0.0000000e+00 
0.0000000e+00 -5.3691817e-04 0.0000000e+00 
0.0000000e+00 -4.6714011e-04 0.0000000e+00 
0.0000000e+00 -3.1213099e-04 0.0000000e+00 
0.0000000e+00 -1.1044621e-04 0.0000000e+00 
0.0000000e+00 -8.6120981e-06 0.0000000e+00 
0.0000000e+00 2.8570626e-05 0.0000000e+00 
0.0000000e+00 2.2384620e-05 0.0000000e+00 
0.0000000e+00 7.9478114e-06 0.0000000e+00 
0.0000000e+00 1.5533959e-06 0.0000000e+00 
0.0000000e+00 4.9512951e-06 0.0000000e+00 
0.0000000e+00 1.0364194e-05 0.0000000e+00 
0.0000000e+00 1.4784257e-05 0.0000000e+00 
0.0000000e+00 2.2496548e-05 0.0000000e+00 
0.0000000e+00 2.7139657e-05 0.0000000e+00 
0.0000000e+00 2.4959592e-05 0.0000000e+00 
0.0000000e+00 7.9178753e-06 0.0000000e+00 
0.0000000e+00 -7.9018617e-05 0.0000000e+00 
0.0000000e+00 -2.2673828e-04 0.0000000e+00 
0.0000000e+00 -4.5308130e-04 0.0000000e+00 
0.0000000e+00 -5.4182013e-04 0.0000000e+00 
0.0000000e+00 -5.3735444e-04 0.0000000e+00 
0.0000000e+00 -4.6624365e-04 0.0000000e+00 
0.0000000e+00 -3.0841352e-04 0.0000000e+00 
0.0000000e+00 -1.3042895e-04 0.0000000e+00 
0.0000000e+00 -1.1314177e-05 0.0000000e+00 
0.0000000e+00 1.7750095e-05 0.0000000e+00 
0.0000000e+00 1.3536078e-05 0.0000000e+00 
0.0000000e+00 4.5875490e-06 0.0000000e+00 
0.0000000e+00 9.1631523e-07 0.0000000e+00 
0.0000000e+00 -6.8018869e-07 0.0000000e+00 
0.0000000e+00 -2.0202103e-07 0.0000000e+00 
0.0000000e+00 -1.0316653e-06 0.0000000e+00 
-2.7297274e-06 4.4833612e-07 1.9246152e-06 
-2.6363953e-06 1.0000158e-06 2.3562145e-06 
-2.3585533e-06 -4.4424633e-07 1.6610960e-06 
-2.1524766e-06 7.5079265e-07 2.6215019e-08 
9.8703879e-07 -8.2566288e-07 2.5914558e-06 
9.7429756e-07 -1.7700502e-06 3.0371370e-06 
2.9386430e-07 -2.2922025e-06 3.8151584e-06 
-6.6199033e-07 -1.9970312e-06 3.1728671e-06 
-2.8931620e-06 -2.1408864e-07 2.4269470e-06 
7.7798478e-07 -5.9070743e-07 2.5060224e-06 
-1.6068311e-06 1.4385220e-06 -2.8442862e-06 
-3.4986867e-06 -9.8382706e-08 4.5237875e-06 
0.0000000e+00 1.8875795e-05 0.0000000e+00 
0.0000000e+00 2.6987420e-05 0.0000000e+00 
0.0000000e+00 3.4455963e-05 0.0000000e+00 
0.0000000e+00 4.0820985e-05 0.0000000e+00 
0.0000000e+00 3.8855014e-05 0.0000000e+00 
0.0000000e+00 3.5251571e-05 0.0000000e+00 
0.0000000e+00 3.4662608e-05 0.0000000e+00 
0.0000000e+00 3.6371468e-05 0.0000000e+00 
0.0000000e+00 4.0240990e-05 0.0000000e+00 
0.0000000e+00 4.8239101e-05 0.0000000e+00 
0.0000000e+00 5.2765925e-05 0.0000000e+00 
0.0000000e+00 4.5879195e-05 0.0000000e+00 
0.0000000e+00 -7.6352653e-06 0.0000000e+00 