# vtk DataFile Version 4.0
vtk output
ASCII
DATASET UNSTRUCTURED_GRID
POINTS 1919 float
0.0000000e+00 0.0000000e+00 0.0000000e+00 
0.0000000e+00 0.0000000e+00 5.0000000e+01 
5.0000000e+00 0.0000000e+00 0.0000000e+00 
5.0000000e+00 0.0000000e+00 5.0000000e+01 
5.0000000e+00 1.0000000e+00 0.0000000e+00 
5.0000000e+00 1.0000000e+00 5.0000000e+01 
0.0000000e+00 1.0000000e+00 0.0000000e+00 
0.0000000e+00 1.0000000e+00 5.0000000e+01 
5.0000000e+00 2.0000000e+00 0.0000000e+00 
5.0000000e+00 2.0000000e+00 5.0000000e+01 
3.0000000e+00 2.0000000e+00 0.0000000e+00 
3.0000000e+00 2.0000000e+00 5.0000000e+01 
0.0000000e+00 2.0000000e+00 0.0000000e+00 
0.0000000e+00 2.0000000e+00 5.0000000e+01 
1.5000000e+00 3.0000000e+00 0.0000000e+00 
1.5000000e+00 3.0000000e+00 5.0000000e+01 
7.5000000e-01 3.0000000e+00 0.0000000e+00 
7.5000000e-01 3.0000000e+00 5.0000000e+01 
0.0000000e+00 3.0000000e+00 0.0000000e+00 
0.0000000e+00 3.0000000e+00 5.0000000e+01 
7.5000000e-01 3.0000000e+00 5.0000000e-01 
7.5000000e-01 3.0000000e+00 1.0000000e+00 
7.5000000e-01 3.0000000e+00 1.5000000e+00 
7.5000000e-01 3.0000000e+00 2.0000000e+00 
7.5000000e-01 3.0000000e+00 2.5000000e+00 
7.5000000e-01 3.0000000e+00 3.0000000e+00 
7.5000000e-01 3.0000000e+00 3.5000000e+00 
7.5000000e-01 3.0000000e+00 4.0000000e+00 
7.5000000e-01 3.0000000e+00 4.5000000e+00 
7.5000000e-01 3.0000000e+00 5.0000000e+00 
7.5000000e-01 3.0000000e+00 5.5000000e+00 
7.5000000e-01 3.0000000e+00 6.0000000e+00 
7.5000000e-01 3.0000000e+00 6.5000000e+00 
7.5000000e-01 3.0000000e+00 7.0000000e+00 
7.5000000e-01 3.0000000e+00 7.5000000e+00 
7.5000000e-01 3.0000000e+00 8.0000000e+00 
7.5000000e-01 3.0000000e+00 8.5000000e+00 
7.5000000e-01 3.0000000e+00 9.0000000e+00 
7.5000000e-01 3.0000000e+00 9.5000000e+00 
7.5000000e-01 3.0000000e+00 1.0000000e+01 
7.5000000e-01 3.0000000e+00 1.0500000e+01 
7.5000000e-01 3.0000000e+00 1.1000000e+01 
7.5000000e-01 3.0000000e+00 1.1500000e+01 
7.5000000e-01 3.0000000e+00 1.2000000e+01 
7.5000000e-01 3.0000000e+00 1.2500000e+01 
7.5000000e-01 3.0000000e+00 1.3000000e+01 
7.5000000e-01 3.0000000e+00 1.3500000e+01 
7.5000000e-01 3.0000000e+00 1.4000000e+01 
7.5000000e-01 3.0000000e+00 1.4500000e+01 
7.5000000e-01 3.0000000e+00 1.5000000e+01 
7.5000000e-01 3.0000000e+00 1.5500000e+01 
7.5000000e-01 3.0000000e+00 1.6000000e+01 
7.5000000e-01 3.0000000e+00 1.6500000e+01 
7.5000000e-01 3.0000000e+00 1.7000000e+01 
7.5000000e-01 3.0000000e+00 1.7500000e+01 
7.5000000e-01 3.0000000e+00 1.8000000e+01 
7.5000000e-01 3.0000000e+00 1.8500000e+01 
7.5000000e-01 3.0000000e+00 1.9000000e+01 
7.5000000e-01 3.0000000e+00 1.9500000e+01 
7.5000000e-01 3.0000000e+00 2.0000000e+01 
7.5000000e-01 3.0000000e+00 2.0500000e+01 
7.5000000e-01 3.0000000e+00 2.1000000e+01 
7.5000000e-01 3.0000000e+00 2.1500000e+01 
7.5000000e-01 3.0000000e+00 2.2000000e+01 
7.5000000e-01 3.0000000e+00 2.2500000e+01 
7.5000000e-01 3.0000000e+00 2.3000000e+01 
7.5000000e-01 3.0000000e+00 2.3500000e+01 
7.5000000e-01 3.0000000e+00 2.4000000e+01 
7.5000000e-01 3.0000000e+00 2.4500000e+01 
7.5000000e-01 3.0000000e+00 2.5000000e+01 
7.5000000e-01 3.0000000e+00 2.5500000e+01 
7.5000000e-01 3.0000000e+00 2.6000000e+01 
7.5000000e-01 3.0000000e+00 2.6500000e+01 
7.5000000e-01 3.0000000e+00 2.7000000e+01 
7.5000000e-01 3.0000000e+00 2.7500000e+01 
7.5000000e-01 3.0000000e+00 2.8000000e+01 
7.5000000e-01 3.0000000e+00 2.8500000e+01 
7.5000000e-01 3.0000000e+00 2.9000000e+01 
7.5000000e-01 3.0000000e+00 2.9500000e+01 
7.5000000e-01 3.0000000e+00 3.0000000e+01 
7.5000000e-01 3.0000000e+00 3.0500000e+01 
7.5000000e-01 3.0000000e+00 3.1000000e+01 
7.5000000e-01 3.0000000e+00 3.1500000e+01 
7.5000000e-01 3.0000000e+00 3.2000000e+01 
7.5000000e-01 3.0000000e+00 3.2500000e+01 
7.5000000e-01 3.0000000e+00 3.3000000e+01 
7.5000000e-01 3.0000000e+00 3.3500000e+01 
7.5000000e-01 3.0000000e+00 3.4000000e+01 
7.5000000e-01 3.0000000e+00 3.4500000e+01 
7.5000000e-01 3.0000000e+00 3.5000000e+01 
7.5000000e-01 3.0000000e+00 3.5500000e+01 
7.5000000e-01 3.0000000e+00 3.6000000e+01 
7.5000000e-01 3.0000000e+00 3.6500000e+01 
7.5000000e-01 3.0000000e+00 3.7000000e+01 
7.5000000e-01 3.0000000e+00 3.7500000e+01 
7.5000000e-01 3.0000000e+00 3.8000000e+01 
7.5000000e-01 3.0000000e+00 3.8500000e+01 
7.5000000e-01 3.0000000e+00 3.9000000e+01 
7.5000000e-01 3.0000000e+00 3.9500000e+01 
7.5000000e-01 3.0000000e+00 4.0000000e+01 
7.5000000e-01 3.0000000e+00 4.0500000e+01 
7.5000000e-01 3.0000000e+00 4.1000000e+01 
7.5000000e-01 3.0000000e+00 4.1500000e+01 
7.5000000e-01 3.0000000e+00 4.2000000e+01 
7.5000000e-01 3.0000000e+00 4.2500000e+01 
7.5000000e-01 3.0000000e+00 4.3000000e+01 
7.5000000e-01 3.0000000e+00 4.3500000e+01 
7.5000000e-01 3.0000000e+00 4.4000000e+01 
7.5000000e-01 3.0000000e+00 4.4500000e+01 
7.5000000e-01 3.0000000e+00 4.5000000e+01 
7.5000000e-01 3.0000000e+00 4.5500000e+01 
7.5000000e-01 3.0000000e+00 4.6000000e+01 
7.5000000e-01 3.0000000e+00 4.6500000e+01 
7.5000000e-01 3.0000000e+00 4.7000000e+01 
7.5000000e-01 3.0000000e+00 4.7500000e+01 
7.5000000e-01 3.0000000e+00 4.8000000e+01 
7.5000000e-01 3.0000000e+00 4.8500000e+01 
7.5000000e-01 3.0000000e+00 4.9000000e+01 
7.5000000e-01 3.0000000e+00 4.9500000e+01 
7.5000000e-01 3.0250001e+00 0.0000000e+00 
7.5000000e-01 3.0250001e+00 5.0000000e-01 
7.5000000e-01 3.0250001e+00 1.0000000e+00 
7.5000000e-01 3.0250001e+00 1.5000000e+00 
7.5000000e-01 3.0250001e+00 2.0000000e+00 
7.5000000e-01 3.0250001e+00 2.5000000e+00 
7.5000000e-01 3.0250001e+00 3.0000000e+00 
7.5000000e-01 3.0250001e+00 3.5000000e+00 
7.5000000e-01 3.0250001e+00 4.0000000e+00 
7.5000000e-01 3.0250001e+00 4.5000000e+00 
7.5000000e-01 3.0250001e+00 5.0000000e+00 
7.5000000e-01 3.0250001e+00 5.5000000e+00 
7.5000000e-01 3.0250001e+00 6.0000000e+00 
7.5000000e-01 3.0250001e+00 6.5000000e+00 
7.5000000e-01 3.0250001e+00 7.0000000e+00 
7.5000000e-01 3.0250001e+00 7.5000000e+00 
7.5000000e-01 3.0250001e+00 8.0000000e+00 
7.5000000e-01 3.0250001e+00 8.5000000e+00 
7.5000000e-01 3.0250001e+00 9.0000000e+00 
7.5000000e-01 3.0250001e+00 9.5000000e+00 
7.5000000e-01 3.0250001e+00 1.0000000e+01 
7.5000000e-01 3.0250001e+00 1.0500000e+01 
7.5000000e-01 3.0250001e+00 1.1000000e+01 
7.5000000e-01 3.0250001e+00 1.1500000e+01 
7.5000000e-01 3.0250001e+00 1.2000000e+01 
7.5000000e-01 3.0250001e+00 1.2500000e+01 
7.5000000e-01 3.0250001e+00 1.3000000e+01 
7.5000000e-01 3.0250001e+00 1.3500000e+01 
7.5000000e-01 3.0250001e+00 1.4000000e+01 
7.5000000e-01 3.0250001e+00 1.4500000e+01 
7.5000000e-01 3.0250001e+00 1.5000000e+01 
7.5000000e-01 3.0250001e+00 1.5500000e+01 
7.5000000e-01 3.0250001e+00 1.6000000e+01 
7.5000000e-01 3.0250001e+00 1.6500000e+01 
7.5000000e-01 3.0250001e+00 1.7000000e+01 
7.5000000e-01 3.0250001e+00 1.7500000e+01 
7.5000000e-01 3.0250001e+00 1.8000000e+01 
7.5000000e-01 3.0250001e+00 1.8500000e+01 
7.5000000e-01 3.0250001e+00 1.9000000e+01 
7.5000000e-01 3.0250001e+00 1.9500000e+01 
7.5000000e-01 3.0250001e+00 2.0000000e+01 
7.5000000e-01 3.0250001e+00 2.0500000e+01 
7.5000000e-01 3.0250001e+00 2.1000000e+01 
7.5000000e-01 3.0250001e+00 2.1500000e+01 
7.5000000e-01 3.0250001e+00 2.2000000e+01 
7.5000000e-01 3.0250001e+00 2.2500000e+01 
7.5000000e-01 3.0250001e+00 2.3000000e+01 
7.5000000e-01 3.0250001e+00 2.3500000e+01 
7.5000000e-01 3.0250001e+00 2.4000000e+01 
7.5000000e-01 3.0250001e+00 2.4500000e+01 
7.5000000e-01 3.0250001e+00 2.5000000e+01 
7.5000000e-01 3.0250001e+00 2.5500000e+01 
7.5000000e-01 3.0250001e+00 2.6000000e+01 
7.5000000e-01 3.0250001e+00 2.6500000e+01 
7.5000000e-01 3.0250001e+00 2.7000000e+01 
7.5000000e-01 3.0250001e+00 2.7500000e+01 
7.5000000e-01 3.0250001e+00 2.8000000e+01 
7.5000000e-01 3.0250001e+00 2.8500000e+01 
7.5000000e-01 3.0250001e+00 2.9000000e+01 
7.5000000e-01 3.0250001e+00 2.9500000e+01 
7.5000000e-01 3.0250001e+00 3.0000000e+01 
7.5000000e-01 3.0250001e+00 3.0500000e+01 
7.5000000e-01 3.0250001e+00 3.1000000e+01 
7.5000000e-01 3.0250001e+00 3.1500000e+01 
7.5000000e-01 3.0250001e+00 3.2000000e+01 
7.5000000e-01 3.0250001e+00 3.2500000e+01 
7.5000000e-01 3.0250001e+00 3.3000000e+01 
7.5000000e-01 3.0250001e+00 3.3500000e+01 
7.5000000e-01 3.0250001e+00 3.4000000e+01 
7.5000000e-01 3.0250001e+00 3.4500000e+01 
7.5000000e-01 3.0250001e+00 3.5000000e+01 
7.5000000e-01 3.0250001e+00 3.5500000e+01 
7.5000000e-01 3.0250001e+00 3.6000000e+01 
7.5000000e-01 3.0250001e+00 3.6500000e+01 
7.5000000e-01 3.0250001e+00 3.7000000e+01 
7.5000000e-01 3.0250001e+00 3.7500000e+01 
7.5000000e-01 3.0250001e+00 3.8000000e+01 
7.5000000e-01 3.0250001e+00 3.8500000e+01 
7.5000000e-01 3.0250001e+00 3.9000000e+01 
7.5000000e-01 3.0250001e+00 3.9500000e+01 
7.5000000e-01 3.0250001e+00 4.0000000e+01 
7.5000000e-01 3.0250001e+00 4.0500000e+01 
7.5000000e-01 3.0250001e+00 4.1000000e+01 
7.5000000e-01 3.0250001e+00 4.1500000e+01 
7.5000000e-01 3.0250001e+00 4.2000000e+01 
7.5000000e-01 3.0250001e+00 4.2500000e+01 
7.5000000e-01 3.0250001e+00 4.3000000e+01 
7.5000000e-01 3.0250001e+00 4.3500000e+01 
7.5000000e-01 3.0250001e+00 4.4000000e+01 
7.5000000e-01 3.0250001e+00 4.4500000e+01 
7.5000000e-01 3.0250001e+00 4.5000000e+01 
7.5000000e-01 3.0250001e+00 4.5500000e+01 
7.5000000e-01 3.0250001e+00 4.6000000e+01 
7.5000000e-01 3.0250001e+00 4.6500000e+01 
7.5000000e-01 3.0250001e+00 4.7000000e+01 
7.5000000e-01 3.0250001e+00 4.7500000e+01 
7.5000000e-01 3.0250001e+00 4.8000000e+01 
7.5000000e-01 3.0250001e+00 4.8500000e+01 
7.5000000e-01 3.0250001e+00 4.9000000e+01 
7.5000000e-01 3.0250001e+00 4.9500000e+01 
7.5000000e-01 3.0250001e+00 5.0000000e+01 
1.5000000e+00 3.0000000e+00 2.5000000e+01 
3.0000000e+00 2.0000000e+00 2.5000000e+01 
4.0000000e+00 2.0000000e+00 2.5000000e+01 
5.0000000e+00 2.0000000e+00 2.5000000e+01 
0.0000000e+00 3.0000000e+00 2.5000000e+01 
0.0000000e+00 0.0000000e+00 1.0000000e+00 
0.0000000e+00 0.0000000e+00 2.0000000e+00 
0.0000000e+00 0.0000000e+00 3.0000000e+00 
0.0000000e+00 0.0000000e+00 4.0000000e+00 
0.0000000e+00 0.0000000e+00 5.0000000e+00 
[...]
POINT_DATA 1919
FIELD FieldData 3
DISPLACEMENT 3 1919  float
0.0000000e+00 0.0000000e+00 0.0000000e+00 
0.0000000e+00 0.0000000e+00 0.0000000e+00 
0.0000000e+00 0.0000000e+00 0.0000000e+00 
0.0000000e+00 0.0000000e+00 0.0000000e+00 
-8.4332178e-06 1.1937722e-07 5.2250471e-06 
-3.3210799e-08 1.2098094e-09 -7.0913096e-08 
0.0000000e+00 -2.0753025e-06 0.0000000e+00 
0.0000000e+00 5.8599522e-07 0.0000000e+00 
-9.2163500e-06 -2.6237833e-06 -2.9974282e-07 
-1.1478975e-07 -1.3254734e-07 4.6585019e-08 
-9.9196232e-06 1.0319447e-05 1.0544854e-05 
-6.0336809e-08 -5.3390420e-07 -3.8090471e-07 
0.0000000e+00 -6.3662869e-06 0.0000000e+00 
0.0000000e+00 4.9115852e-07 0.0000000e+00 
-3.2622687e-05 -1.8178442e-05 7.5532735e-05 
-7.1316089e-07 -4.5482651e-08 7.2234639e-07 
7.8679877e-05 -1.1506630e-04 1.1318010e-04 
-1.0926676e-07 -1.8281278e-06 -1.8765827e-07 
0.0000000e+00 2.3736306e-05 0.0000000e+00 
0.0000000e+00 -7.5855917e-07 0.0000000e+00 
-3.6620946e-05 -1.1502281e-04 7.1052222e-05 
-6.9992893e-05 -1.1425212e-04 5.0363156e-05 
-8.4386615e-05 -1.0836794e-04 5.6701134e-05 
-9.2391878e-05 -9.1048096e-05 4.1380215e-05 
-1.0609561e-04 -5.9744172e-05 2.9580697e-05 
-8.2766324e-05 -1.8114200e-05 2.2499717e-05 
-8.9143723e-05 2.2860862e-05 1.3912755e-05 
-6.6321583e-05 5.4028398e-05 1.1268689e-05 
-5.7315745e-05 7.5064796e-05 9.1545444e-06 
-4.9944781e-05 9.3160488e-05 1.4334492e-05 
-4.9615606e-05 1.2063202e-04 2.3687258e-05 
-5.2450639e-05 1.6494654e-04 3.1512714e-05 
-6.5067652e-05 2.0329609e-04 4.7623646e-05 
-5.6920551e-05 1.8115222e-04 7.9989870e-05 
-9.5634794e-05 4.3325308e-05 1.1421013e-04 
-1.0562248e-04 -2.3947867e-04 1.2420925e-04 
-1.7516561e-04 -6.8052806e-04 2.0778499e-04 
-1.8367225e-04 -1.2974610e-03 1.4740114e-04 
-2.6820513e-04 -2.1424624e-03 2.6235092e-04 
-2.7967041e-04 -3.2067380e-03 9.5504001e-05 
-3.7020398e-04 -4.3577882e-03 1.5104190e-04 
-4.3922069e-04 -5.1273997e-03 -2.2108128e-05 
-4.1880747e-04 -5.0813504e-03 -1.3706683e-04 
-3.8819303e-04 -4.7162557e-03 -1.6012460e-04 
-2.9338035e-04 -4.5638666e-03 -1.9756016e-04 
-2.2062984e-04 -4.6012783e-03 -2.3733122e-04 
-1.6373061e-04 -4.4248332e-03 -2.6646836e-04 
-1.4234679e-04 -3.4404255e-03 -2.0308956e-04 
-5.1049548e-05 -2.1671923e-03 -2.5500893e-04 
-2.2515498e-05 -1.0612430e-03 -1.1691001e-04 
1.7893688e-05 -3.1803100e-04 -1.2401503e-04 
2.7342861e-05 8.1418133e-05 -4.1311177e-05 
4.0449409e-05 2.3974096e-04 -8.6309246e-06 
4.2247200e-05 2.6317054e-04 6.2707491e-05 
2.2753064e-05 2.1743352e-04 7.0448383e-05 
1.2090130e-05 1.3875456e-04 5.6939916e-05 
-1.0386299e-05 4.8476628e-05 3.8000238e-05 
-2.8618186e-05 -3.0520630e-05 3.1350897e-05 
-3.7172053e-05 -7.7935227e-05 9.3867302e-06 
-3.8419359e-05 -9.2275157e-05 1.1753673e-05 
-1.7472054e-05 -8.6411332e-05 2.9266919e-05 
-3.5529512e-05 -7.6719749e-05 4.1938900e-05 
-6.1521983e-05 -7.0922986e-05 5.9934209e-05 
-6.2856278e-05 -6.4705739e-05 5.0907664e-05 
-8.6681066e-05 -4.5803663e-05 3.8096929e-05 
-5.9483849e-05 -3.8819917e-06 1.1069674e-05 
-7.7322176e-05 5.5758959e-05 -8.8783409e-06 
-7.4326555e-05 1.1295246e-04 -2.4886886e-05 
-2.9293982e-05 1.5033796e-04 -8.1971139e-06 
-4.6726906e-05 1.6597433e-04 7.4622567e-06 
-4.5102559e-05 1.6876688e-04 -7.5745747e-06 
-4.1558218e-05 1.7916514e-04 1.5984575e-05 
-5.5601970e-05 1.9947031e-04 3.9488637e-05 
-3.9901144e-05 1.9133807e-04 5.3444270e-05 
-8.5084474e-05 8.0676153e-05 1.1667459e-04 
-9.8972254e-05 -2.1952647e-04 1.3597503e-04 
-1.8015076e-04 -7.5600430e-04 2.1674020e-04 
-2.0771215e-04 -1.5182452e-03 1.4743378e-04 
-2.9990452e-04 -2.4835272e-03 2.4442116e-04 
-3.4867189e-04 -3.5650458e-03 3.5175082e-05 
-4.2040410e-04 -4.5950576e-03 8.1935497e-05 
-4.4325681e-04 -5.1428648e-03 -5.8095884e-05 
-4.0937698e-04 -5.0320015e-03 -1.9107699e-04 
-3.8334276e-04 -4.7468198e-03 -2.0309699e-04 
-3.2226639e-04 -4.6879016e-03 -2.3455644e-04 
-3.1568180e-04 -4.6855449e-03 -2.8108215e-04 
-2.1988960e-04 -4.3112375e-03 -3.4091400e-04 
-1.5875808e-04 -3.2065015e-03 -1.8507941e-04 
-6.2864121e-05 -1.9535718e-03 -2.4616616e-04 
-3.4873858e-06 -9.2777924e-04 -6.4393498e-05 
1.4410944e-05 -2.6596745e-04 -7.1177310e-05 
1.9536750e-05 8.8116562e-05 2.2716613e-06 
2.3456165e-05 2.3468331e-04 3.3014858e-05 
1.1177742e-05 2.5430592e-04 7.3695650e-05 
-7.5983439e-06 2.0244990e-04 9.2555019e-05 
-4.4220393e-05 1.2143585e-04 8.9096131e-05 
-4.9023089e-05 4.7808888e-05 -1.8140493e-07 
-4.3088359e-05 5.0354338e-06 -3.1187614e-05 
-1.7221730e-05 -7.1886288e-06 -5.5186003e-05 
-5.6846188e-06 -4.8130091e-06 -5.0038299e-05 
1.5472891e-05 -2.2887541e-06 -4.0355961e-05 
2.0267367e-05 -2.3166399e-06 -2.5956406e-05 
1.9266266e-05 -2.1133603e-06 -4.3755863e-06 
1.4650172e-05 -3.9207585e-08 4.3774658e-06 
5.4074844e-06 1.1165785e-06 8.2729866e-06 
5.8927714e-07 -5.3956165e-07 9.4361167e-06 
-2.9189578e-06 -3.8479398e-06 6.4480869e-06 
-3.7250707e-06 -6.0424550e-06 4.1842036e-06 
-3.2049886e-06 -5.2324740e-06 1.2628855e-06 
-1.9021694e-06 -2.5737313e-06 1.7280848e-07 
-1.6808585e-06 -1.8325495e-07 -3.4080534e-07 
-8.0340402e-07 1.0727455e-06 -7.4185834e-07 
6.8231640e-07 1.6848187e-06 -7.5524656e-07 
7.3968204e-07 2.1181970e-06 2.7939424e-07 
1.2672285e-06 2.2431914e-06 -5.1043787e-07 
1.4375706e-07 1.7728966e-06 -5.2434001e-07 
-1.2723642e-07 7.0657518e-07 1.4835589e-07 
3.1392386e-07 -5.4134114e-07 -9.7084287e-09 
-1.4299205e-07 -1.4754133e-06 2.7022347e-07 
0.0000000e+00 -1.1499518e-04 0.0000000e+00 
0.0000000e+00 -1.1520392e-04 0.0000000e+00 
0.0000000e+00 -1.1457181e-04 0.0000000e+00 
0.0000000e+00 -1.0849323e-04 0.0000000e+00 
0.0000000e+00 -9.0895104e-05 0.0000000e+00 
0.0000000e+00 -5.9318772e-05 0.0000000e+00 
0.0000000e+00 -1.7977465e-05 0.0000000e+00 
0.0000000e+00 2.2678680e-05 0.0000000e+00 
0.0000000e+00 5.3766802e-05 0.0000000e+00 
0.0000000e+00 7.4663134e-05 0.0000000e+00 
0.0000000e+00 9.3068797e-05 0.0000000e+00 
0.0000000e+00 1.2196675e-04 0.0000000e+00 
0.0000000e+00 1.6687767e-04 0.0000000e+00 
0.0000000e+00 2.0422965e-04 0.0000000e+00 
0.0000000e+00 1.8054484e-04 0.0000000e+00 
0.0000000e+00 4.2177584e-05 0.0000000e+00 
0.0000000e+00 -2.3997844e-04 0.0000000e+00 
0.0000000e+00 -6.7929953e-04 0.0000000e+00 
0.0000000e+00 -1.3002319e-03 0.0000000e+00 
0.0000000e+00 -2.1483384e-03 0.0000000e+00 
0.0000000e+00 -3.2239652e-03 0.0000000e+00 
0.0000000e+00 -4.3795514e-03 0.0000000e+00 
0.0000000e+00 -5.1601529e-03 0.0000000e+00 
0.0000000e+00 -5.1014009e-03 0.0000000e+00 
0.0000000e+00 -4.7444883e-03 0.0000000e+00 
0.0000000e+00 -4.5840810e-03 0.0000000e+00 
0.0000000e+00 -4.6324655e-03 0.0000000e+00 
0.0000000e+00 -4.4492232e-03 0.0000000e+00 
0.0000000e+00 -3.4645328e-03 0.0000000e+00 
0.0000000e+00 -2.1812515e-03 0.0000000e+00 
0.0000000e+00 -1.0715582e-03 0.0000000e+00 
0.0000000e+00 -3.2144212e-04 0.0000000e+00 
0.0000000e+00 8.2147053e-05 0.0000000e+00 
0.0000000e+00 2.4203153e-04 0.0000000e+00 
0.0000000e+00 2.6450309e-04 0.0000000e+00 
0.0000000e+00 2.1808172e-04 0.0000000e+00 
0.0000000e+00 1.3888963e-04 0.0000000e+00 
0.0000000e+00 4.8831767e-05 0.0000000e+00 
0.0000000e+00 -2.9611570e-05 0.0000000e+00 
0.0000000e+00 -7.7520606e-05 0.0000000e+00 
0.0000000e+00 -9.2406692e-05 0.0000000e+00 
0.0000000e+00 -8.6786204e-05 0.0000000e+00 
0.0000000e+00 -7.7049001e-05 0.0000000e+00 
0.0000000e+00 -7.1262126e-05 0.0000000e+00 
0.0000000e+00 -6.4852975e-05 0.0000000e+00 
0.0000000e+00 -4.5319703e-05 0.0000000e+00 
0.0000000e+00 -3.1561499e-06 0.0000000e+00 
0.0000000e+00 5.5964229e-05 0.0000000e+00 
0.0000000e+00 1.1264290e-04 0.0000000e+00 
0.0000000e+00 1.5003064e-04 0.0000000e+00 
0.0000000e+00 1.6532045e-04 0.0000000e+00 
0.0000000e+00 1.6938506e-04 0.0000000e+00 
0.0000000e+00 1.8099337e-04 0.0000000e+00 
0.0000000e+00 2.0168847e-04 0.0000000e+00 
0.0000000e+00 1.9291644e-04 0.0000000e+00 
0.0000000e+00 7.9371450e-05 0.0000000e+00 
0.0000000e+00 -2.2240441e-04 0.0000000e+00 
0.0000000e+00 -7.5773540e-04 0.0000000e+00 
0.0000000e+00 -1.5222953e-03 0.0000000e+00 
0.0000000e+00 -2.4879707e-03 0.0000000e+00 
0.0000000e+00 -3.5824135e-03 0.0000000e+00 
0.0000000e+00 -4.6166312e-03 0.0000000e+00 
0.0000000e+00 -5.1782001e-03 0.0000000e+00 
0.0000000e+00 -5.0543747e-03 0.0000000e+00 
0.0000000e+00 -4.7756582e-03 0.0000000e+00 
0.0000000e+00 -4.7061336e-03 0.0000000e+00 
0.0000000e+00 -4.7152811e-03 0.0000000e+00 
0.0000000e+00 -4.3334062e-03 0.0000000e+00 
0.0000000e+00 -3.2333676e-03 0.0000000e+00 
0.0000000e+00 -1.9656327e-03 0.0000000e+00 
0.0000000e+00 -9.3606662e-04 0.0000000e+00 
0.0000000e+00 -2.6749738e-04 0.0000000e+00 
0.0000000e+00 8.9257439e-05 0.0000000e+00 
0.0000000e+00 2.3577739e-04 0.0000000e+00 
0.0000000e+00 2.5503949e-04 0.0000000e+00 
0.0000000e+00 2.0307020e-04 0.0000000e+00 
0.0000000e+00 1.2233687e-04 0.0000000e+00 
0.0000000e+00 4.8950413e-05 0.0000000e+00 
0.0000000e+00 5.5529345e-06 0.0000000e+00 
0.0000000e+00 -7.4410609e-06 0.0000000e+00 
0.0000000e+00 -5.3436379e-06 0.0000000e+00 
0.0000000e+00 -2.4260264e-06 0.0000000e+00 
0.0000000e+00 -2.2175266e-06 0.0000000e+00 
0.0000000e+00 -1.9779659e-06 0.0000000e+00 
0.0000000e+00 -1.6941611e-07 0.0000000e+00 
0.0000000e+00 9.7497593e-07 0.0000000e+00 
0.0000000e+00 -5.2984791e-07 0.0000000e+00 
0.0000000e+00 -3.7577593e-06 0.0000000e+00 
0.0000000e+00 -5.9247513e-06 0.0000000e+00 
0.0000000e+00 -5.2398732e-06 0.0000000e+00 
0.0000000e+00 -2.6590646e-06 0.0000000e+00 
0.0000000e+00 -2.2729944e-07 0.0000000e+00 
0.0000000e+00 1.1133039e-06 0.0000000e+00 
0.0000000e+00 1.7178810e-06 0.0000000e+00 
0.0000000e+00 2.0899965e-06 0.0000000e+00 
0.0000000e+00 2.2025592e-06 0.0000000e+00 
0.0000000e+00 1.7670562e-06 0.0000000e+00 
0.0000000e+00 7.4063462e-07 0.0000000e+00 
0.0000000e+00 -5.0515268e-07 0.0000000e+00 
0.0000000e+00 -1.4811153e-06 0.0000000e+00 
0.0000000e+00 -1.8519652e-06 0.0000000e+00 
-4.5487759e-06 1.6781106e-04 9.1507900e-06 
2.6920417e-05 2.4187013e-05 9.6437734e-06 
3.0796735e-05 1.2220882e-05 -3.8776834e-06 
2.5638836e-05 2.2623593e-05 -1.4258161e-05 
0.0000000e+00 -1.3123576e-04 0.0000000e+00 
0.0000000e+00 0.0000000e+00 0.0000000e+00 
0.0000000e+00 0.0000000e+00 0.0000000e+00 
0.0000000e+00 0.0000000e+00 0.0000000e+00 
0.0000000e+00 0.0000000e+00 0.0000000e+00 
0.0000000e+00 0.0000000e+00 0.0000000e+00 
0.0000000e+00 0.0000000e+00 0.0000000e+00 
0.0000000e+00 0.0000000e+00 0.0000000e+00 
0.0000000e+00 0.0000000e+00 0.0000000e+00 
0.0000000e+00 0.0000000e+00 0.0000000e+00 
0.0000000e+00 0.0000000e+00 0.0000000e+00 
0.0000000e+00 0.0000000e+00 0.0000000e+00 
0.0000000e+00 0.0000000e+00 0.0000000e+00 
0.0000000e+00 0.0000000e+00 0.0000000e+00 
0.0000000e+00 0.0000000e+00 0.0000000e+00 
0.0000000e+00 0.0000000e+00 0.0000000e+00 
0.0000000e+00 0.0000000e+00 0.0000000e+00 
0.0000000e+00 0.0000000e+00 0.0000000e+00 
0.0000000e+00 0.0000000e+00 0.0000000e+00 
0.0000000e+00 0.0000000e+00 0.0000000e+00 
0.0000000e+00 0.0000000e+00 0.0000000e+00 
0.0000000e+00 0.0000000e+00 0.0000000e+00 
0.0000000e+00 0.0000000e+00 0.0000000e+00 
0.0000000e+00 0.0000000e+00 0.0000000e+00 
0.0000000e+00 0.0000000e+00 0.0000000e+00 
0.0000000e+00 0.0000000e+00 0.0000000e+00 
0.0000000e+00 0.0000000e+00 0.0000000e+00 
0.0000000e+00 0.0000000e+00 0.0000000e+00 
0.0000000e+00 0.0000000e+00 0.0000000e+00 
0.0000000e+00 0.0000000e+00 0.0000000e+00 
0.0000000e+00 0.0000000e+00 0.0000000e+00 
0.0000000e+00 0.0000000e+00 0.0000000e+00 
0.0000000e+00 0.0000000e+00 0.0000000e+00 
0.0000000e+00 0.0000000e+00 0.0000000e+00 
0.0000000e+00 0.0000000e+00 0.0000000e+00 
0.0000000e+00 0.0000000e+00 0.0000000e+00 
0.0000000e+00 0.0000000e+00 0.0000000e+00 
0.0000000e+00 0.0000000e+00 0.0000000e+00 
0.0000000e+00 0.0000000e+00 0.0000000e+00 
0.0000000e+00 0.0000000e+00 0.0000000e+00 
0.0000000e+00 0.0000000e+00 0.0000000e+00 
0.0000000e+00 0.0000000e+00 0.0000000e+00 
0.0000000e+00 0.0000000e+00 0.0000000e+00 
0.0000000e+00 0.0000000e+00 0.0000000e+00 
0.0000000e+00 0.0000000e+00 0.0000000e+00 
0.0000000e+00 0.0000000e+00 0.0000000e+00 
0.0000000e+00 0.0000000e+00 0.0000000e+00 
0.0000000e+00 0.0000000e+00 0.0000000e+00 
0.0000000e+00 0.0000000e+00 0.0000000e+00 
0.0000000e+00 0.0000000e+00 0.0000000e+00 
0.0000000e+00 0.0000000e+00 0.0000000e+00 
0.0000000e+00 0.0000000e+00 0.0000000e+00 
0.0000000e+00 0.0000000e+00 0.0000000e+00 
0.0000000e+00 0.0000000e+00 0.0000000e+00 
0.0000000e+00 0.0000000e+00 0.0000000e+00 
0.0000000e+00 0.0000000e+00 0.0000000e+00 
0.0000000e+00 0.0000000e+00 0.0000000e+00 
0.0000000e+00 0.0000000e+00 0.0000000e+00 
0.0000000e+00 0.0000000e+00 0.0000000e+00 
0.0000000e+00 0.0000000e+00 0.0000000e+00 
0.0000000e+00 0.0000000e+00 0.0000000e+00 
0.0000000e+00 0.0000000e+00 0.0000000e+00 
0.0000000e+00 0.0000000e+00 0.0000000e+00 
0.0000000e+00 0.0000000e+00 0.0000000e+00 
0.0000000e+00 0.0000000e+00 0.0000000e+00 
0.0000000e+00 0.0000000e+00 0.0000000e+00 
0.0000000e+00 0.0000000e+00 0.0000000e+00 
0.0000000e+00 0.0000000e+00 0.0000000e+00 
0.0000000e+00 0.0000000e+00 0.0000000e+00 
0.0000000e+00 0.0000000e+00 0.0000000e+00 
0.0000000e+00 0.0000000e+00 0.0000000e+00 
0.0000000e+00 0.0000000e+00 0.0000000e+00 
0.0000000e+00 0.0000000e+00 0.0000000e+00 
0.0000000e+00 0.0000000e+00 0.0000000e+00 
0.0000000e+00 0.0000000e+00 0.0000000e+00 
0.0000000e+00 0.0000000e+00 0.0000000e+00 
0.0000000e+00 0.0000000e+00 0.0000000e+00 
0.0000000e+00 0.0000000e+00 0.0000000e+00 
0.0000000e+00 0.0000000e+00 0.0000000e+00 
0.0000000e+00 0.0000000e+00 0.0000000e+00 
0.0000000e+00 0.0000000e+00 0.0000000e+00 
0.0000000e+00 0.0000000e+00 0.0000000e+00 
0.0000000e+00 0.0000000e+00 0.0000000e+00 
0.0000000e+00 0.0000000e+00 0.0000000e+00 
0.0000000e+00 0.0000000e+00 0.0000000e+00 
0.0000000e+00 0.0000000e+00 0.0000000e+00 
0.0000000e+00 0.0000000e+00 0.0000000e+00 
0.0000000e+00 0.0000000e+00 0.0000000e+00 
0.0000000e+00 0.0000000e+00 0.0000000e+00 
0.0000000e+00 0.0000000e+00 0.0000000e+00 
0.0000000e+00 0.0000000e+00 0.0000000e+00 
0.0000000e+00 0.0000000e+00 0.0000000e+00 
0.0000000e+00 0.0000000e+00 0.0000000e+00 
0.0000000e+00 0.0000000e+00 0.0000000e+00 
0.0000000e+00 0.0000000e+00 0.0000000e+00 
0.0000000e+00 0.0000000e+00 0.0000000e+00 
0.0000000e+00 0.0000000e+00 0.0000000e+00 
0.0000000e+00 0.0000000e+00 0.0000000e+00 
0.0000000e+00 0.0000000e+00 0.0000000e+00 
0.0000000e+00 0.0000000e+00 0.0000000e+00 
0.0000000e+00 0.0000000e+00 0.0000000e+00 
0.0000000e+00 0.0000000e+00 0.0000000e+00 
0.0000000e+00 0.0000000e+00 0.0000000e+00 
0.0000000e+00 0.0000000e+00 0.0000000e+00 
0.0000000e+00 0.0000000e+00 0.0000000e+00 
0.0000000e+00 0.0000000e+00 0.0000000e+00 
0.0000000e+00 0.0000000e+00 0.0000000e+00 
-6.9821699e-06 5.9540139e-06 8.6127047e-06 
-2.3741609e-06 1.3498424e-05 8.4815256e-06 
3.9672436e-06 1.4221260e-05 1.8041978e-06 
9.6736158e-06 1.0629403e-05 -3.9366473e-06 
1.4715188e-05 1.0264232e-05 -6.7257242e-06 
2.6496435e-05 1.7406577e-05 -9.8912697e-06 
2.7139291e-05 6.8448317e-06 -1.1042071e-05 
3.1948359e-05 1.1593324e-05 -1.0978322e-05 
3.8421360e-05 1.4024698e-05 -9.9942217e-06 
3.8066406e-05 4.5447091e-06 -1.4186538e-05 
3.8009064e-05 -2.4155986e-06 -1.5910544e-05 
3.9056336e-05 -7.0512533e-06 -1.4990142e-05 
3.3587185e-05 -1.3956024e-05 -1.1511330e-05 
2.0496422e-05 -1.1638730e-05 -3.3539566e-06 
1.2578575e-05 -5.4272764e-06 2.8930738e-06 
1.0303570e-05 -1.5899356e-06 1.1513047e-05 
7.2756789e-06 -1.6742773e-06 2.2252805e-05 
3.2471014e-06 -5.0004810e-06 2.4211313e-05 
-1.1100202e-06 -3.2984733e-06 2.0991563e-05 
-5.7294815e-06 2.6702737e-06 1.5568650e-05 
-5.5732421e-06 3.7915688e-06 7.5130856e-06 
1.5302339e-06 1.6787282e-05 1.3711974e-06 
5.1585293e-06 1.7381972e-05 -4.8251786e-06 
1.5279196e-05 9.3457711e-06 -8.7731069e-06 
1.8757142e-05 1.3037347e-05 -8.5311021e-06 
2.6127149e-05 1.8359431e-05 -5.9298263e-06 
3.4310047e-05 1.0103848e-05 -6.9978341e-06 
3.6297679e-05 8.6398913e-06 -1.4112061e-05 
4.4910590e-05 8.3944324e-06 -1.3074006e-05 
4.2835087e-05 -7.6357327e-07 -1.2847736e-05 
3.6329799e-05 -4.4967514e-06 -1.2061948e-05 
3.1109637e-05 -9.8495975e-06 -1.0049932e-05 
2.2665654e-05 -9.1344646e-06 -3.7606167e-06 
1.8066636e-05 -5.9137451e-06 7.3344590e-06 
1.2705248e-05 -3.9147653e-06 1.2700499e-05 
9.9659346e-06 -5.9625127e-06 1.8470424e-05 
7.9082665e-06 -2.9046989e-06 2.0575988e-05 
5.6993599e-06 -1.4555899e-06 1.7982573e-05 
4.6597293e-06 -3.6412041e-06 1.2524642e-05 
3.2166270e-06 -4.5901643e-06 5.0338158e-06 
6.8597882e-07 -1.1216370e-07 3.9646525e-07 
-6.2097547e-07 3.0679491e-06 -3.0961326e-06 
-8.6547510e-07 1.6722814e-06 -4.8194570e-06 
-9.4810133e-07 -6.0855717e-07 -2.8451545e-06 
-3.3450883e-07 -1.1807951e-07 -4.6837727e-07 
4.5094373e-07 6.0476417e-08 7.1486915e-07 
2.7366434e-07 -1.0621459e-07 1.0590904e-06 
-3.2415659e-08 -2.7598946e-07 3.2377918e-07 
8.0968995e-08 4.5515030e-08 1.3957417e-08 
0.0000000e+00 1.4270317e-05 0.0000000e+00 
0.0000000e+00 1.3318207e-05 0.0000000e+00 
0.0000000e+00 1.8909332e-05 0.0000000e+00 
0.0000000e+00 -6.0682833e-06 0.0000000e+00 
0.0000000e+00 -2.7342739e-05 0.0000000e+00 
0.0000000e+00 6.8689315e-06 0.0000000e+00 
0.0000000e+00 -3.4873821e-05 0.0000000e+00 
0.0000000e+00 -1.3351347e-04 0.0000000e+00 
0.0000000e+00 -2.1129573e-04 0.0000000e+00 
0.0000000e+00 -3.8016235e-04 0.0000000e+00 
0.0000000e+00 -4.7818047e-04 0.0000000e+00 
0.0000000e+00 -4.9243664e-04 0.0000000e+00 
0.0000000e+00 -4.6262436e-04 0.0000000e+00 
0.0000000e+00 -3.1893110e-04 0.0000000e+00 
0.0000000e+00 -1.7231444e-04 0.0000000e+00 
0.0000000e+00 -6.3411884e-05 0.0000000e+00 
0.0000000e+00 8.0295395e-06 0.0000000e+00 
0.0000000e+00 1.8529661e-05 0.0000000e+00 
0.0000000e+00 7.9274969e-06 0.0000000e+00 
0.0000000e+00 1.5606623e-05 0.0000000e+00 
0.0000000e+00 1.3920521e-05 0.0000000e+00 
0.0000000e+00 -1.1822936e-05 0.0000000e+00 
0.0000000e+00 -2.0173011e-05 0.0000000e+00 
0.0000000e+00 -2.9122386e-06 0.0000000e+00 
0.0000000e+00 -6.1364903e-05 0.0000000e+00 
0.0000000e+00 -8.6724940e-05 0.0000000e+00 
0.0000000e+00 -5.4471424e-05 0.0000000e+00 
0.0000000e+00 -1.5995755e-04 0.0000000e+00 
0.0000000e+00 -2.4264304e-04 0.0000000e+00 
0.0000000e+00 -3.5870713e-04 0.0000000e+00 
0.0000000e+00 -5.0107343e-04 0.0000000e+00 
0.0000000e+00 -5.0654047e-04 0.0000000e+00 
0.0000000e+00 -4.5974014e-04 0.0000000e+00 
0.0000000e+00 -3.1416569e-04 0.0000000e+00 
0.0000000e+00 -1.4290237e-04 0.0000000e+00 
0.0000000e+00 -2.0739128e-05 0.0000000e+00 
0.0000000e+00 1.0773721e-05 0.0000000e+00 
0.0000000e+00 1.6053416e-05 0.0000000e+00 
0.0000000e+00 2.5274742e-06 0.0000000e+00 
0.0000000e+00 3.8938956e-06 0.0000000e+00 
0.0000000e+00 5.5245737e-06 0.0000000e+00 
0.0000000e+00 -2.4457231e-06 0.0000000e+00 
0.0000000e+00 -2.9437635e-06 0.0000000e+00 
0.0000000e+00 4.4587068e-07 0.0000000e+00 
0.0000000e+00 1.4060633e-06 0.0000000e+00 
0.0000000e+00 2.4105259e-07 0.0000000e+00 
0.0000000e+00 -9.0221823e-07 0.0000000e+00 
0.0000000e+00 -6.9415665e-07 0.0000000e+00 
0.0000000e+00 -4.1538428e-07 0.0000000e+00 
-6.7389255e-06 3.4934478e-06 7.9765268e-06 
-3.7997565e-06 1.0206800e-05 1.3450615e-05 
-8.9976680e-07 3.8961130e-06 1.3555488e-05 
9.2938933e-07 4.2674374e-06 6.1760506e-06 
5.6491235e-08 -1.3486171e-07 -4.8641082e-09 
1.4857410e-07 -1.8809470e-07 -4.0852385e-07 
-1.2848346e-07 9.0006445e-08 -4.2441738e-07 
-1.7911871e-08 1.3749636e-08 -4.3712419e-07 
-8.3585201e-06 2.5310169e-06 5.0455031e-07 
-2.2238318e-07 -7.8558969e-08 -3.8465194e-07 
9.0522080e-06 -2.2959559e-05 1.9469865e-06 
-9.0586508e-07 3.8455819e-06 2.6305686e-05 
0.0000000e+00 -1.1807089e-06 0.0000000e+00 
0.0000000e+00 2.6872489e-05 0.0000000e+00 
0.0000000e+00 5.8442324e-06 0.0000000e+00 
0.0000000e+00 -2.1941703e-05 0.0000000e+00 
0.0000000e+00 -2.2461487e-05 0.0000000e+00 
0.0000000e+00 -1.2796234e-05 0.0000000e+00 
0.0000000e+00 -7.0350921e-05 0.0000000e+00 
0.0000000e+00 -2.3295236e-04 0.0000000e+00 
0.0000000e+00 -4.5810640e-04 0.0000000e+00 
0.0000000e+00 -8.8141480e-04 0.0000000e+00 
0.0000000e+00 -1.1064206e-03 0.0000000e+00 
0.0000000e+00 -1.0635870e-03 0.0000000e+00 
0.0000000e+00 -9.8454580e-04 0.0000000e+00 