# vtk DataFile Version 4.0
vtk output
ASCII
DATASET UNSTRUCTURED_GRID
POINTS 1919 float
0.0000000e+00 0.0000000e+00 0.0000000e+00 
0.0000000e+00 0.0000000e+00 5.0000000e+01 
5.0000000e+00 0.0000000e+00 0.0000000e+00 
5.0000000e+00 0.0000000e+00 5.0000000e+01 
5.0000000e+00 1.0000000e+00 0.0000000e+00 
5.0000000e+00 1.0000000e+00 5.0000000e+01 
0.0000000e+00 1.0000000e+00 0.0000000e+00 
0.0000000e+00 1.0000000e+00 5.0000000e+01 
5.0000000e+00 2.0000000e+00 0.0000000e+00 
5.0000000e+00 2.0000000e+00 5.0000000e+01 
3.0000000e+00 2.0000000e+00 0.0000000e+00 
3.0000000e+00 2.0000000e+00 5.0000000e+01 
0.0000000e+00 2.0000000e+00 0.0000000e+00 
0.0000000e+00 2.0000000e+00 5.0000000e+01 
1.5000000e+00 3.0000000e+00 0.0000000e+00 
1.5000000e+00 3.0000000e+00 5.0000000e+01 
7.5000000e-01 3.0000000e+00 0.0000000e+00 
7.5000000e-01 3.0000000e+00 5.0000000e+01 
0.0000000e+00 3.0000000e+00 0.0000000e+00 
0.0000000e+00 3.0000000e+00 5.0000000e+01 
7.5000000e-01 3.0000000e+00 5.0000000e-01 
7.5000000e-01 3.0000000e+00 1.0000000e+00 
7.5000000e-01 3.0000000e+00 1.5000000e+00 
7.5000000e-01 3.0000000e+00 2.0000000e+00 
7.5000000e-01 3.0000000e+00 2.5000000e+00 
7.5000000e-01 3.0000000e+00 3.0000000e+00 
7.5000000e-01 3.0000000e+00 3.5000000e+00 
7.5000000e-01 3.0000000e+00 4.0000000e+00 
7.5000000e-01 3.0000000e+00 4.5000000e+00 
7.5000000e-01 3.0000000e+00 5.0000000e+00 
7.5000000e-01 3.0000000e+00 5.5000000e+00 
7.5000000e-01 3.0000000e+00 6.0000000e+00 
7.5000000e-01 3.0000000e+00 6.5000000e+00 
7.5000000e-01 3.0000000e+00 7.0000000e+00 
7.5000000e-01 3.0000000e+00 7.5000000e+00 
7.5000000e-01 3.0000000e+00 8.0000000e+00 
7.5000000e-01 3.0000000e+00 8.5000000e+00 
7.5000000e-01 3.0000000e+00 9.0000000e+00 
7.5000000e-01 3.0000000e+00 9.5000000e+00 
7.5000000e-01 3.0000000e+00 1.0000000e+01 
7.5000000e-01 3.0000000e+00 1.0500000e+01 
7.5000000e-01 3.0000000e+00 1.1000000e+01 
7.5000000e-01 3.0000000e+00 1.1500000e+01 
7.5000000e-01 3.0000000e+00 1.2000000e+01 
7.5000000e-01 3.0000000e+00 1.2500000e+01 
7.5000000e-01 3.0000000e+00 1.3000000e+01 
7.5000000e-01 3.0000000e+00 1.3500000e+01 
7.5000000e-01 3.0000000e+00 1.4000000e+01 
7.5000000e-01 3.0000000e+00 1.4500000e+01 
7.5000000e-01 3.0000000e+00 1.5000000e+01 
7.5000000e-01 3.0000000e+00 1.5500000e+01 
7.5000000e-01 3.0000000e+00 1.6000000e+01 
7.5000000e-01 3.0000000e+00 1.6500000e+01 
7.5000000e-01 3.0000000e+00 1.7000000e+01 
7.5000000e-01 3.0000000e+00 1.7500000e+01 
7.5000000e-01 3.0000000e+00 1.8000000e+01 
7.5000000e-01 3.0000000e+00 1.8500000e+01 
7.5000000e-01 3.0000000e+00 1.9000000e+01 
7.5000000e-01 3.0000000e+00 1.9500000e+01 
7.5000000e-01 3.0000000e+00 2.0000000e+01 
7.5000000e-01 3.0000000e+00 2.0500000e+01 
7.5000000e-01 3.0000000e+00 2.1000000e+01 
7.5000000e-01 3.0000000e+00 2.1500000e+01 
7.5000000e-01 3.0000000e+00 2.2000000e+01 
7.5000000e-01 3.0000000e+00 2.2500000e+01 
7.5000000e-01 3.0000000e+00 2.3000000e+01 
7.5000000e-01 3.0000000e+00 2.3500000e+01 
7.5000000e-01 3.0000000e+00 2.4000000e+01 
7.5000000e-01 3.0000000e+00 2.4500000e+01 
7.5000000e-01 3.0000000e+00 2.5000000e+01 
7.5000000e-01 3.0000000e+00 2.5500000e+01 
7.5000000e-01 3.0000000e+00 2.6000000e+01 
7.5000000e-01 3.0000000e+00 2.6500000e+01 
7.5000000e-01 3.0000000e+00 2.7000000e+01 
7.5000000e-01 3.0000000e+00 2.7500000e+01 
7.5000000e-01 3.0000000e+00 2.8000000e+01 
7.5000000e-01 3.0000000e+00 2.8500000e+01 
7.5000000e-01 3.0000000e+00 2.9000000e+01 
7.5000000e-01 3.0000000e+00 2.9500000e+01 
7.5000000e-01 3.0000000e+00 3.0000000e+01 
7.5000000e-01 3.0000000e+00 3.0500000e+01 
7.5000000e-01 3.0000000e+00 3.1000000e+01 
7.5000000e-01 3.0000000e+00 3.1500000e+01 
7.5000000e-01 3.0000000e+00 3.2000000e+01 
7.5000000e-01 3.0000000e+00 3.2500000e+01 
7.5000000e-01 3.0000000e+00 3.3000000e+01 
7.5000000e-01 3.0000000e+00 3.3500000e+01 
7.5000000e-01 3.0000000e+00 3.4000000e+01 
7.5000000e-01 3.0000000e+00 3.4500000e+01 
7.5000000e-01 3.0000000e+00 3.5000000e+01 
7.5000000e-01 3.0000000e+00 3.5500000e+01 
7.5000000e-01 3.0000000e+00 3.6000000e+01 
7.5000000e-01 3.0000000e+00 3.6500000e+01 
7.5000000e-01 3.0000000e+00 3.7000000e+01 
7.5000000e-01 3.0000000e+00 3.7500000e+01 
7.5000000e-01 3.0000000e+00 3.8000000e+01 
7.5000000e-01 3.0000000e+00 3.8500000e+01 
7.5000000e-01 3.0000000e+00 3.9000000e+01 
7.5000000e-01 3.0000000e+00 3.9500000e+01 
7.5000000e-01 3.0000000e+00 4.0000000e+01 
7.5000000e-01 3.0000000e+00 4.0500000e+01 
7.5000000e-01 3.0000000e+00 4.1000000e+01 
7.5000000e-01 3.0000000e+00 4.1500000e+01 
7.5000000e-01 3.0000000e+00 4.2000000e+01 
7.5000000e-01 3.0000000e+00 4.2500000e+01 
7.5000000e-01 3.0000000e+00 4.3000000e+01 
7.5000000e-01 3.0000000e+00 4.3500000e+01 
7.5000000e-01 3.0000000e+00 4.4000000e+01 
7.5000000e-01 3.0000000e+00 4.4500000e+01 
7.5000000e-01 3.0000000e+00 4.5000000e+01 
7.5000000e-01 3.0000000e+00 4.5500000e+01 
7.5000000e-01 3.0000000e+00 4.6000000e+01 
7.5000000e-01 3.0000000e+00 4.6500000e+01 
7.5000000e-01 3.0000000e+00 4.7000000e+01 
7.5000000e-01 3.0000000e+00 4.7500000e+01 
7.5000000e-01 3.0000000e+00 4.8000000e+01 
7.5000000e-01 3.0000000e+00 4.8500000e+01 
7.5000000e-01 3.0000000e+00 4.9000000e+01 
7.5000000e-01 3.0000000e+00 4.9500000e+01 
7.5000000e-01 3.0250001e+00 0.0000000e+00 
7.5000000e-01 3.0250001e+00 5.0000000e-01 
7.5000000e-01 3.0250001e+00 1.0000000e+00 
7.5000000e-01 3.0250001e+00 1.5000000e+00 
7.5000000e-01 3.0250001e+00 2.0000000e+00 
7.5000000e-01 3.0250001e+00 2.5000000e+00 
7.5000000e-01 3.0250001e+00 3.0000000e+00 
7.5000000e-01 3.0250001e+00 3.5000000e+00 
7.5000000e-01 3.0250001e+00 4.0000000e+00 
7.5000000e-01 3.0250001e+00 4.5000000e+00 
7.5000000e-01 3.0250001e+00 5.0000000e+00 
7.5000000e-01 3.0250001e+00 5.5000000e+00 
7.5000000e-01 3.0250001e+00 6.0000000e+00 
7.5000000e-01 3.0250001e+00 6.5000000e+00 
7.5000000e-01 3.0250001e+00 7.0000000e+00 
7.5000000e-01 3.0250001e+00 7.5000000e+00 
7.5000000e-01 3.0250001e+00 8.0000000e+00 
7.5000000e-01 3.0250001e+00 8.5000000e+00 
7.5000000e-01 3.0250001e+00 9.0000000e+00 
7.5000000e-01 3.0250001e+00 9.5000000e+00 
7.5000000e-01 3.0250001e+00 1.0000000e+01 
7.5000000e-01 3.0250001e+00 1.0500000e+01 
7.5000000e-01 3.0250001e+00 1.1000000e+01 
7.5000000e-01 3.0250001e+00 1.1500000e+01 
7.5000000e-01 3.0250001e+00 1.2000000e+01 
7.5000000e-01 3.0250001e+00 1.2500000e+01 
7.5000000e-01 3.0250001e+00 1.3000000e+01 
7.5000000e-01 3.0250001e+00 1.3500000e+01 
7.5000000e-01 3.0250001e+00 1.4000000e+01 
7.5000000e-01 3.0250001e+00 1.4500000e+01 
7.5000000e-01 3.0250001e+00 1.5000000e+01 
7.5000000e-01 3.0250001e+00 1.5500000e+01 
7.5000000e-01 3.0250001e+00 1.6000000e+01 
7.5000000e-01 3.0250001e+00 1.6500000e+01 
7.5000000e-01 3.0250001e+00 1.7000000e+01 
7.5000000e-01 3.0250001e+00 1.7500000e+01 
7.5000000e-01 3.0250001e+00 1.8000000e+01 
7.5000000e-01 3.0250001e+00 1.8500000e+01 
7.5000000e-01 3.0250001e+00 1.9000000e+01 
7.5000000e-01 3.0250001e+00 1.9500000e+01 
7.5000000e-01 3.0250001e+00 2.0000000e+01 
7.5000000e-01 3.0250001e+00 2.0500000e+01 
7.5000000e-01 3.0250001e+00 2.1000000e+01 
7.5000000e-01 3.0250001e+00 2.1500000e+01 
7.5000000e-01 3.0250001e+00 2.2000000e+01 
7.5000000e-01 3.0250001e+00 2.2500000e+01 
7.5000000e-01 3.0250001e+00 2.3000000e+01 
7.5000000e-01 3.0250001e+00 2.3500000e+01 
7.5000000e-01 3.0250001e+00 2.4000000e+01 
7.5000000e-01 3.0250001e+00 2.4500000e+01 
7.5000000e-01 3.0250001e+00 2.5000000e+01 
7.5000000e-01 3.0250001e+00 2.5500000e+01 
7.5000000e-01 3.0250001e+00 2.6000000e+01 
7.5000000e-01 3.0250001e+00 2.6500000e+01 
7.5000000e-01 3.0250001e+00 2.7000000e+01 
7.5000000e-01 3.0250001e+00 2.7500000e+01 
7.5000000e-01 3.0250001e+00 2.8000000e+01 
7.5000000e-01 3.0250001e+00 2.8500000e+01 
7.5000000e-01 3.0250001e+00 2.9000000e+01 
7.5000000e-01 3.0250001e+00 2.9500000e+01 
7.5000000e-01 3.0250001e+00 3.0000000e+01 
7.5000000e-01 3.0250001e+00 3.0500000e+01 
7.5000000e-01 3.0250001e+00 3.1000000e+01 
7.5000000e-01 3.0250001e+00 3.1500000e+01 
7.5000000e-01 3.0250001e+00 3.2000000e+01 
7.5000000e-01 3.0250001e+00 3.2500000e+01 
7.5000000e-01 3.0250001e+00 3.3000000e+01 
7.5000000e-01 3.0250001e+00 3.3500000e+01 
7.5000000e-01 3.0250001e+00 3.4000000e+01 
7.5000000e-01 3.0250001e+00 3.4500000e+01 
7.5000000e-01 3.0250001e+00 3.5000000e+01 
7.5000000e-01 3.0250001e+00 3.5500000e+01 
7.5000000e-01 3.0250001e+00 3.6000000e+01 
7.5000000e-01 3.0250001e+00 3.6500000e+01 
7.5000000e-01 3.0250001e+00 3.7000000e+01 
7.5000000e-01 3.0250001e+00 3.7500000e+01 
7.5000000e-01 3.0250001e+00 3.8000000e+01 
7.5000000e-01 3.0250001e+00 3.8500000e+01 
7.5000000e-01 3.0250001e+00 3.9000000e+01 
7.5000000e-01 3.0250001e+00 3.9500000e+01 
7.5000000e-01 3.0250001e+00 4.0000000e+01 
7.5000000e-01 3.0250001e+00 4.0500000e+01 
7.5000000e-01 3.0250001e+00 4.1000000e+01 
7.5000000e-01 3.0250001e+00 4.1500000e+01 
7.5000000e-01 3.0250001e+00 4.2000000e+01 
7.5000000e-01 3.0250001e+00 4.2500000e+01 
7.5000000e-01 3.0250001e+00 4.3000000e+01 
7.5000000e-01 3.0250001e+00 4.3500000e+01 
7.5000000e-01 3.0250001e+00 4.4000000e+01 
7.5000000e-01 3.0250001e+00 4.4500000e+01 
7.5000000e-01 3.0250001e+00 4.5000000e+01 
7.5000000e-01 3.0250001e+00 4.5500000e+01 
7.5000000e-01 3.0250001e+00 4.6000000e+01 
7.5000000e-01 3.0250001e+00 4.6500000e+01 
7.5000000e-01 3.0250001e+00 4.7000000e+01 
7.5000000e-01 3.0250001e+00 4.7500000e+01 
7.5000000e-01 3.0250001e+00 4.8000000e+01 
7.5000000e-01 3.0250001e+00 4.8500000e+01 
7.5000000e-01 3.0250001e+00 4.9000000e+01 
7.5000000e-01 3.0250001e+00 4.9500000e+01 
7.5000000e-01 3.0250001e+00 5.0000000e+01 
1.5000000e+00 3.0000000e+00 2.5000000e+01 
3.0000000e+00 2.0000000e+00 2.5000000e+01 
4.0000000e+00 2.0000000e+00 2.5000000e+01 
5.0000000e+00 2.0000000e+00 2.5000000e+01 
0.0000000e+00 3.0000000e+00 2.5000000e+01 
0.0000000e+00 0.0000000e+00 1.0000000e+00 
0.0000000e+00 0.0000000e+00 2.0000000e+00 
0.0000000e+00 0.0000000e+00 3.0000000e+00 
0.0000000e+00 0.0000000e+00 4.0000000e+00 
0.0000000e+00 0.0000000e+00 5.0000000e+00 
[...]
POINT_DATA 1919
FIELD FieldData 3
DISPLACEMENT 3 1919  float
0.0000000e+00 0.0000000e+00 0.0000000e+00 
0.0000000e+00 0.0000000e+00 0.0000000e+00 
0.0000000e+00 0.0000000e+00 0.0000000e+00 
0.0000000e+00 0.0000000e+00 0.0000000e+00 
4.5436764e-07 -3.1494784e-07 -7.0189310e-07 
2.1839667e-06 -3.3937581e-06 7.5237931e-06 
0.0000000e+00 -3.8377943e-06 0.0000000e+00 
0.0000000e+00 1.4965748e-05 0.0000000e+00 
8.1902094e-08 -1.7797754e-07 -5.8738812e-07 
2.7896278e-06 -2.8019185e-06 1.0957266e-05 
-1.3232152e-07 -9.0033922e-07 -1.7905622e-06 
3.5181204e-06 4.1664373e-07 1.1204984e-05 
0.0000000e+00 -4.3404734e-06 0.0000000e+00 
0.0000000e+00 2.7685594e-05 0.0000000e+00 
-2.4448903e-07 6.2075350e-07 -2.9763473e-06 
2.0506401e-05 2.5130124e-05 -2.9423038e-07 
-4.1167555e-06 3.5217811e-06 -4.6842447e-06 
-1.2665821e-07 2.1289640e-04 -1.3111508e-05 
0.0000000e+00 1.1278578e-06 0.0000000e+00 
0.0000000e+00 -2.5999870e-07 0.0000000e+00 
-3.1293328e-07 2.3565128e-06 -3.6767688e-06 
4.9269761e-07 -5.4385583e-07 -3.2638484e-06 
7.3959626e-07 -4.1462413e-06 -4.3611290e-06 
-1.2055940e-06 -7.6614269e-06 -5.2830364e-06 
-2.3710343e-06 -1.0224910e-05 -5.6087747e-06 
-3.2729836e-06 -1.1467399e-05 -5.2196997e-06 
-4.1613202e-06 -1.1281130e-05 -4.4892927e-06 
-3.6948079e-06 -1.0086056e-05 -1.3097278e-06 
-1.8223858e-06 -8.4175736e-06 7.2395369e-07 
-2.1207986e-06 -6.6102757e-06 4.8298634e-06 
-3.7689906e-06 -4.9674645e-06 5.9933159e-06 
-5.1812044e-06 -3.7080219e-06 7.1381655e-06 
-7.0807746e-06 -3.1288093e-06 7.1442564e-06 
-7.7313980e-06 -3.4390339e-06 7.0833744e-06 
-8.3153509e-06 -4.5139877e-06 7.7246968e-06 
-8.8294064e-06 -5.9329086e-06 8.4250159e-06 
-9.4331290e-06 -7.1088893e-06 8.1730022e-06 
-9.2171504e-06 -7.5962694e-06 5.6340568e-06 
-7.6307515e-06 -7.1560180e-06 2.8174236e-06 
-6.4563978e-06 -6.1797664e-06 4.0632969e-07 
-3.6490089e-06 -5.0016279e-06 1.3625800e-06 
-2.7026956e-06 -3.9877291e-06 2.9161149e-06 
-2.6292564e-06 -3.1043969e-06 3.1147076e-06 
-3.0792735e-06 -2.0308489e-06 2.2204392e-06 
-2.6999624e-06 -5.0770171e-07 -1.1680657e-07 
2.4858728e-08 1.3947921e-06 -2.6553923e-06 
2.4743911e-06 3.5769158e-06 -2.3720308e-06 
1.6912635e-06 5.8984619e-06 -1.8604172e-07 
1.6021035e-06 8.5416641e-06 2.4426704e-06 
1.7832934e-06 1.2116788e-05 3.8083701e-06 
2.9088694e-06 1.7510039e-05 1.5759792e-06 
4.4833705e-06 2.5514913e-05 -8.2811334e-07 
5.9008717e-06 3.6713958e-05 -8.9916864e-07 
1.1724153e-05 5.0873783e-05 2.2845888e-06 
8.2187316e-06 6.6361550e-05 1.0530131e-05 
5.9663175e-06 7.9435289e-05 1.8984645e-05 
2.4855635e-06 8.0998463e-05 3.2233085e-05 
-2.8715901e-06 5.1538296e-05 4.5873461e-05 
-1.0676127e-05 -4.0412531e-05 8.4483385e-05 
-2.1060170e-05 -2.4216597e-04 9.5258976e-05 
-5.1372248e-05 -6.1366078e-04 1.7386439e-04 
-7.9298661e-05 -1.2125752e-03 1.3483400e-04 
-1.4976907e-04 -2.0811295e-03 2.4070997e-04 
-1.7786105e-04 -3.1686916e-03 1.6364314e-04 
-3.5236025e-04 -4.2916373e-03 1.8385293e-04 
-2.6254321e-04 -4.9561318e-03 5.9676157e-05 
-3.0940986e-04 -4.8426753e-03 -4.9170940e-05 
-2.3531764e-04 -4.5059156e-03 -7.3140524e-07 
-2.5010193e-04 -4.4137486e-03 -9.8385326e-06 
-1.5487337e-04 -4.5111692e-03 -1.1898729e-04 
-2.2729489e-04 -4.3497151e-03 -1.8892197e-04 
-2.2213832e-04 -3.3730967e-03 -1.6686108e-04 
-1.4868740e-04 -2.1642649e-03 -3.0252646e-04 
-8.6737295e-05 -1.1138977e-03 -1.5679807e-04 
-2.9701434e-05 -3.9627086e-04 -1.7717376e-04 
1.0404145e-06 1.3035030e-05 -7.6081895e-05 
1.6579517e-05 1.8591438e-04 -4.8149246e-05 
1.8071472e-05 2.1413882e-04 -1.1628300e-05 
1.2804305e-05 1.7325525e-04 1.3162638e-05 
7.3569145e-06 1.1071160e-04 1.6752638e-05 
1.0294016e-06 5.5164855e-05 2.6730928e-05 
-1.7167285e-06 1.5476744e-05 2.1789660e-05 
-4.2387064e-06 -6.8642589e-06 2.1725342e-05 
-4.9573691e-06 -1.5896765e-05 1.7131328e-05 
-7.1849431e-06 -1.6034592e-05 1.2903774e-05 
-7.5918488e-06 -1.1523397e-05 8.9631576e-06 
-6.2753011e-06 -5.3573967e-06 5.1394209e-06 
-4.0219102e-06 6.8550287e-07 3.7209199e-06 
-3.5798114e-06 6.2167965e-06 1.3580884e-06 
-4.4854673e-06 1.1894540e-05 1.2464282e-06 
-3.3354161e-06 1.9136653e-05 -2.0108507e-06 
-2.0546263e-06 2.9259016e-05 -3.5426688e-06 
2.7387284e-06 4.3256536e-05 -5.1097309e-06 
6.9546659e-06 6.0859431e-05 -2.2275385e-07 
8.5206639e-06 8.0057587e-05 6.0873776e-06 
1.5695598e-05 9.4837102e-05 1.8537992e-05 
2.6505363e-06 9.2141570e-05 3.4357021e-05 
-4.5602721e-07 5.1580515e-05 4.4252800e-05 
-1.2428347e-05 -6.1914143e-05 8.7347587e-05 
-2.2419410e-05 -2.9843108e-04 9.8858516e-05 
-5.6922810e-05 -7.1984925e-04 1.8757280e-04 
-8.2455554e-05 -1.3799251e-03 1.4656373e-04 
-1.4134473e-04 -2.3100388e-03 2.5622334e-04 
-1.7248327e-04 -3.4305956e-03 1.0656561e-04 
-2.4416426e-04 -4.5166709e-03 1.7756269e-04 
-2.7379475e-04 -4.9996702e-03 3.7353748e-05 
-2.6031514e-04 -4.7489409e-03 -1.3607289e-05 
-2.5549065e-04 -4.4330875e-03 -3.9010960e-05 
-2.2668106e-04 -4.4196662e-03 -3.8001970e-05 
-2.3445302e-04 -4.5338511e-03 -1.3122351e-04 
-2.0885846e-04 -4.2039766e-03 -2.1037979e-04 
-1.7342446e-04 -3.1093869e-03 -1.6336335e-04 
-9.4072609e-05 -1.8978037e-03 -2.5804987e-04 
-6.2299419e-05 -9.1383414e-04 -1.3891966e-04 
-1.0989786e-05 -2.7002563e-04 -1.3935303e-04 
4.1026210e-06 7.4993957e-05 -7.5678741e-05 
1.8684957e-05 2.1307333e-04 -4.2657066e-05 
1.1309633e-05 2.3765888e-04 -2.1408092e-05 
1.0033054e-05 2.2212425e-04 -1.0048452e-05 
0.0000000e+00 3.4849388e-06 0.0000000e+00 
0.0000000e+00 2.3441851e-06 0.0000000e+00 
0.0000000e+00 -5.2827897e-07 0.0000000e+00 
0.0000000e+00 -4.1495073e-06 0.0000000e+00 
0.0000000e+00 -7.6417018e-06 0.0000000e+00 
0.0000000e+00 -1.0216824e-05 0.0000000e+00 
0.0000000e+00 -1.1446639e-05 0.0000000e+00 
0.0000000e+00 -1.1283132e-05 0.0000000e+00 
0.0000000e+00 -1.0104218e-05 0.0000000e+00 
0.0000000e+00 -8.4275453e-06 0.0000000e+00 
0.0000000e+00 -6.6198650e-06 0.0000000e+00 
0.0000000e+00 -4.9674459e-06 0.0000000e+00 
0.0000000e+00 -3.7143895e-06 0.0000000e+00 
0.0000000e+00 -3.1490408e-06 0.0000000e+00 
0.0000000e+00 -3.4592260e-06 0.0000000e+00 
0.0000000e+00 -4.5300835e-06 0.0000000e+00 
0.0000000e+00 -5.9345534e-06 0.0000000e+00 
0.0000000e+00 -7.1046861e-06 0.0000000e+00 
0.0000000e+00 -7.5697985e-06 0.0000000e+00 
0.0000000e+00 -7.1629411e-06 0.0000000e+00 
0.0000000e+00 -6.1831624e-06 0.0000000e+00 
0.0000000e+00 -5.0269741e-06 0.0000000e+00 
0.0000000e+00 -4.0088621e-06 0.0000000e+00 
0.0000000e+00 -3.1057702e-06 0.0000000e+00 
0.0000000e+00 -2.0158773e-06 0.0000000e+00 
0.0000000e+00 -5.0413706e-07 0.0000000e+00 
0.0000000e+00 1.4006079e-06 0.0000000e+00 
0.0000000e+00 3.5645060e-06 0.0000000e+00 
0.0000000e+00 5.8799187e-06 0.0000000e+00 
0.0000000e+00 8.5335741e-06 0.0000000e+00 
0.0000000e+00 1.2127233e-05 0.0000000e+00 
0.0000000e+00 1.7531103e-05 0.0000000e+00 
0.0000000e+00 2.5574942e-05 0.0000000e+00 
0.0000000e+00 3.6802128e-05 0.0000000e+00 
0.0000000e+00 5.0984156e-05 0.0000000e+00 
0.0000000e+00 6.6641936e-05 0.0000000e+00 
0.0000000e+00 7.9985017e-05 0.0000000e+00 
0.0000000e+00 8.1662671e-05 0.0000000e+00 
0.0000000e+00 5.2430911e-05 0.0000000e+00 
0.0000000e+00 -3.9691724e-05 0.0000000e+00 
0.0000000e+00 -2.4212527e-04 0.0000000e+00 
0.0000000e+00 -6.1442115e-04 0.0000000e+00 
0.0000000e+00 -1.2172209e-03 0.0000000e+00 
0.0000000e+00 -2.0883526e-03 0.0000000e+00 
0.0000000e+00 -3.1847307e-03 0.0000000e+00 
0.0000000e+00 -4.3111262e-03 0.0000000e+00 
0.0000000e+00 -4.9918708e-03 0.0000000e+00 
0.0000000e+00 -4.8632664e-03 0.0000000e+00 
0.0000000e+00 -4.5318450e-03 0.0000000e+00 
0.0000000e+00 -4.4350014e-03 0.0000000e+00 
0.0000000e+00 -4.5440742e-03 0.0000000e+00 
0.0000000e+00 -4.3730042e-03 0.0000000e+00 
0.0000000e+00 -3.3978468e-03 0.0000000e+00 
0.0000000e+00 -2.1754771e-03 0.0000000e+00 
0.0000000e+00 -1.1232569e-03 0.0000000e+00 
0.0000000e+00 -3.9838647e-04 0.0000000e+00 
0.0000000e+00 1.2532846e-05 0.0000000e+00 
0.0000000e+00 1.8695716e-04 0.0000000e+00 
0.0000000e+00 2.1571320e-04 0.0000000e+00 
0.0000000e+00 1.7426907e-04 0.0000000e+00 
0.0000000e+00 1.1169082e-04 0.0000000e+00 
0.0000000e+00 5.5524037e-05 0.0000000e+00 
0.0000000e+00 1.5713726e-05 0.0000000e+00 
0.0000000e+00 -6.8660624e-06 0.0000000e+00 
0.0000000e+00 -1.5927599e-05 0.0000000e+00 
0.0000000e+00 -1.6104974e-05 0.0000000e+00 
0.0000000e+00 -1.1586670e-05 0.0000000e+00 
0.0000000e+00 -5.4256948e-06 0.0000000e+00 
0.0000000e+00 6.3419759e-07 0.0000000e+00 
0.0000000e+00 6.1820906e-06 0.0000000e+00 
0.0000000e+00 1.1906059e-05 0.0000000e+00 
0.0000000e+00 1.9164074e-05 0.0000000e+00 
0.0000000e+00 2.9329554e-05 0.0000000e+00 
0.0000000e+00 4.3357122e-05 0.0000000e+00 
0.0000000e+00 6.1091429e-05 0.0000000e+00 
0.0000000e+00 8.0434336e-05 0.0000000e+00 
0.0000000e+00 9.5234092e-05 0.0000000e+00 
0.0000000e+00 9.2934402e-05 0.0000000e+00 
0.0000000e+00 5.2453524e-05 0.0000000e+00 
0.0000000e+00 -6.1223473e-05 0.0000000e+00 
0.0000000e+00 -2.9866694e-04 0.0000000e+00 
0.0000000e+00 -7.2100433e-04 0.0000000e+00 
0.0000000e+00 -1.3854603e-03 0.0000000e+00 
0.0000000e+00 -2.3180018e-03 0.0000000e+00 
0.0000000e+00 -3.4492975e-03 0.0000000e+00 
0.0000000e+00 -4.5377612e-03 0.0000000e+00 
0.0000000e+00 -5.0311615e-03 0.0000000e+00 
0.0000000e+00 -4.7725504e-03 0.0000000e+00 
0.0000000e+00 -4.4606226e-03 0.0000000e+00 
0.0000000e+00 -4.4414122e-03 0.0000000e+00 
0.0000000e+00 -4.5636287e-03 0.0000000e+00 
0.0000000e+00 -4.2276233e-03 0.0000000e+00 
0.0000000e+00 -3.1320748e-03 0.0000000e+00 
0.0000000e+00 -1.9096126e-03 0.0000000e+00 
0.0000000e+00 -9.2101353e-04 0.0000000e+00 
0.0000000e+00 -2.7216331e-04 0.0000000e+00 
0.0000000e+00 7.5332595e-05 0.0000000e+00 
0.0000000e+00 2.1431744e-04 0.0000000e+00 
0.0000000e+00 2.3915459e-04 0.0000000e+00 
0.0000000e+00 2.2372304e-04 0.0000000e+00 
0.0000000e+00 2.1361954e-04 0.0000000e+00 
-5.9043884e-04 -1.3873539e-03 -1.4067047e-04 
4.4524939e-05 -6.7610352e-05 -1.5595326e-06 
4.1059990e-05 -1.3509158e-05 1.9932756e-06 
3.4298231e-05 -9.5298265e-06 6.5020618e-06 
0.0000000e+00 -2.2018920e-03 0.0000000e+00 
0.0000000e+00 0.0000000e+00 0.0000000e+00 
0.0000000e+00 0.0000000e+00 0.0000000e+00 
0.0000000e+00 0.0000000e+00 0.0000000e+00 
0.0000000e+00 0.0000000e+00 0.0000000e+00 
0.0000000e+00 0.0000000e+00 0.0000000e+00 
0.0000000e+00 0.0000000e+00 0.0000000e+00 
0.0000000e+00 0.0000000e+00 0.0000000e+00 
0.0000000e+00 0.0000000e+00 0.0000000e+00 
0.0000000e+00 0.0000000e+00 0.0000000e+00 
0.0000000e+00 0.0000000e+00 0.0000000e+00 
0.0000000e+00 0.0000000e+00 0.0000000e+00 
0.0000000e+00 0.0000000e+00 0.0000000e+00 
0.0000000e+00 0.0000000e+00 0.0000000e+00 
0.0000000e+00 0.0000000e+00 0.0000000e+00 
0.0000000e+00 0.0000000e+00 0.0000000e+00 
0.0000000e+00 0.0000000e+00 0.0000000e+00 
0.0000000e+00 0.0000000e+00 0.0000000e+00 
0.0000000e+00 0.0000000e+00 0.0000000e+00 
0.0000000e+00 0.0000000e+00 0.0000000e+00 
0.0000000e+00 0.0000000e+00 0.0000000e+00 
0.0000000e+00 0.0000000e+00 0.0000000e+00 
0.0000000e+00 0.0000000e+00 0.0000000e+00 
0.0000000e+00 0.0000000e+00 0.0000000e+00 
0.0000000e+00 0.0000000e+00 0.0000000e+00 
0.0000000e+00 0.0000000e+00 0.0000000e+00 
0.0000000e+00 0.0000000e+00 0.0000000e+00 
0.0000000e+00 0.0000000e+00 0.0000000e+00 
0.0000000e+00 0.0000000e+00 0.0000000e+00 
0.0000000e+00 0.0000000e+00 0.0000000e+00 
0.0000000e+00 0.0000000e+00 0.0000000e+00 
0.0000000e+00 0.0000000e+00 0.0000000e+00 
0.0000000e+00 0.0000000e+00 0.0000000e+00 
0.0000000e+00 0.0000000e+00 0.0000000e+00 
0.0000000e+00 0.0000000e+00 0.0000000e+00 
0.0000000e+00 0.0000000e+00 0.0000000e+00 
0.0000000e+00 0.0000000e+00 0.0000000e+00 
0.0000000e+00 0.0000000e+00 0.0000000e+00 
0.0000000e+00 0.0000000e+00 0.0000000e+00 
0.0000000e+00 0.0000000e+00 0.0000000e+00 
0.0000000e+00 0.0000000e+00 0.0000000e+00 
0.0000000e+00 0.0000000e+00 0.0000000e+00 
0.0000000e+00 0.0000000e+00 0.0000000e+00 
0.0000000e+00 0.0000000e+00 0.0000000e+00 
0.0000000e+00 0.0000000e+00 0.0000000e+00 
0.0000000e+00 0.0000000e+00 0.0000000e+00 
0.0000000e+00 0.0000000e+00 0.0000000e+00 
0.0000000e+00 0.0000000e+00 0.0000000e+00 
0.0000000e+00 0.0000000e+00 0.0000000e+00 
0.0000000e+00 0.0000000e+00 0.0000000e+00 
0.0000000e+00 0.0000000e+00 0.0000000e+00 
0.0000000e+00 0.0000000e+00 0.0000000e+00 
0.0000000e+00 0.0000000e+00 0.0000000e+00 
0.0000000e+00 0.0000000e+00 0.0000000e+00 
0.0000000e+00 0.0000000e+00 0.0000000e+00 
0.0000000e+00 0.0000000e+00 0.0000000e+00 
0.0000000e+00 0.0000000e+00 0.0000000e+00 
0.0000000e+00 0.0000000e+00 0.0000000e+00 
0.0000000e+00 0.0000000e+00 0.0000000e+00 
0.0000000e+00 0.0000000e+00 0.0000000e+00 
0.0000000e+00 0.0000000e+00 0.0000000e+00 
0.0000000e+00 0.0000000e+00 0.0000000e+00 
0.0000000e+00 0.0000000e+00 0.0000000e+00 
0.0000000e+00 0.0000000e+00 0.0000000e+00 
0.0000000e+00 0.0000000e+00 0.0000000e+00 
0.0000000e+00 0.0000000e+00 0.0000000e+00 
0.0000000e+00 0.0000000e+00 0.0000000e+00 
0.0000000e+00 0.0000000e+00 0.0000000e+00 
0.0000000e+00 0.0000000e+00 0.0000000e+00 
0.0000000e+00 0.0000000e+00 0.0000000e+00 
0.0000000e+00 0.0000000e+00 0.0000000e+00 
0.0000000e+00 0.0000000e+00 0.0000000e+00 
0.0000000e+00 0.0000000e+00 0.0000000e+00 
0.0000000e+00 0.0000000e+00 0.0000000e+00 
0.0000000e+00 0.0000000e+00 0.0000000e+00 
0.0000000e+00 0.0000000e+00 0.0000000e+00 
0.0000000e+00 0.0000000e+00 0.0000000e+00 
0.0000000e+00 0.0000000e+00 0.0000000e+00 
0.0000000e+00 0.0000000e+00 0.0000000e+00 
0.0000000e+00 0.0000000e+00 0.0000000e+00 
0.0000000e+00 0.0000000e+00 0.0000000e+00 
0.0000000e+00 0.0000000e+00 0.0000000e+00 
0.0000000e+00 0.0000000e+00 0.0000000e+00 
0.0000000e+00 0.0000000e+00 0.0000000e+00 
0.0000000e+00 0.0000000e+00 0.0000000e+00 
0.0000000e+00 0.0000000e+00 0.0000000e+00 
0.0000000e+00 0.0000000e+00 0.0000000e+00 
0.0000000e+00 0.0000000e+00 0.0000000e+00 
0.0000000e+00 0.0000000e+00 0.0000000e+00 
0.0000000e+00 0.0000000e+00 0.0000000e+00 
0.0000000e+00 0.0000000e+00 0.0000000e+00 
0.0000000e+00 0.0000000e+00 0.0000000e+00 
0.0000000e+00 0.0000000e+00 0.0000000e+00 
0.0000000e+00 0.0000000e+00 0.0000000e+00 
0.0000000e+00 0.0000000e+00 0.0000000e+00 
0.0000000e+00 0.0000000e+00 0.0000000e+00 
0.0000000e+00 0.0000000e+00 0.0000000e+00 
0.0000000e+00 0.0000000e+00 0.0000000e+00 
0.0000000e+00 0.0000000e+00 0.0000000e+00 
0.0000000e+00 0.0000000e+00 0.0000000e+00 
0.0000000e+00 0.0000000e+00 0.0000000e+00 
0.0000000e+00 0.0000000e+00 0.0000000e+00 
0.0000000e+00 0.0000000e+00 0.0000000e+00 
0.0000000e+00 0.0000000e+00 0.0000000e+00 
0.0000000e+00 0.0000000e+00 0.0000000e+00 
0.0000000e+00 0.0000000e+00 0.0000000e+00 
0.0000000e+00 0.0000000e+00 0.0000000e+00 
-1.9549744e-07 -3.2564211e-07 -5.6348313e-07 
-7.8333591e-07 -3.7405746e-07 -1.3352823e-07 
-1.5224310e-06 -2.2772394e-07 3.5098921e-07 
-1.9092818e-06 -1.4476295e-07 5.4877501e-07 
-2.0194927e-06 2.8987762e-07 6.2940143e-07 
-1.9490344e-06 6.9868952e-07 7.9260900e-07 
-1.9719250e-06 6.0416676e-07 1.0865466e-06 
-2.3211740e-06 3.0735742e-07 1.1575004e-06 
-2.3399607e-06 1.7198407e-07 6.4968640e-07 
-2.1398798e-06 8.4547864e-08 -2.0200378e-07 
-1.7148834e-06 -1.4861855e-07 -6.5797940e-07 
-8.5593030e-07 -3.2821550e-08 -6.1621859e-07 
-4.5089558e-07 -3.3389429e-07 -7.3426816e-07 
3.4560284e-07 -6.0757276e-07 -1.2958706e-06 
1.3000024e-06 -1.1992921e-06 -2.1307349e-06 
2.3615200e-06 -1.4622880e-06 -2.7846795e-06 
3.7394900e-06 -9.8346447e-07 -3.9398824e-06 
6.8908080e-06 -2.5157171e-06 -6.8754321e-06 
1.2146143e-05 -5.3178692e-06 -1.0060690e-05 
2.1247268e-05 -8.7691324e-06 -1.2762663e-05 
2.9144065e-05 -1.1287952e-05 -1.4171442e-05 
3.6865677e-05 -1.1807500e-05 -1.1820185e-05 
4.3993452e-05 -1.4568090e-05 -4.9011855e-06 
4.4755168e-05 -1.4834680e-05 2.3435782e-06 
3.7048558e-05 -1.0529278e-05 7.8904568e-06 
2.7167898e-05 -7.9469346e-06 1.2490110e-05 
1.7796088e-05 -5.8642186e-06 1.3022228e-05 
8.3253462e-06 -1.7155718e-06 1.0968775e-05 
2.3037348e-06 -1.0707532e-06 7.6671267e-06 
-3.0124042e-07 -8.5264685e-07 4.9662999e-06 
-6.1862147e-07 -8.8559602e-07 3.0922570e-06 
-4.6675927e-07 -1.0039313e-06 1.9344727e-06 
3.8086441e-07 -7.2644667e-07 8.9983894e-07 
9.2190970e-07 -8.6631957e-07 -5.2744525e-07 
1.6895279e-06 -1.6479719e-06 -2.1942551e-06 
3.0219537e-06 -1.6381380e-06 -4.0625141e-06 
5.1635798e-06 -1.6659388e-06 -6.3125526e-06 
9.0243284e-06 -2.5607274e-06 -9.0177518e-06 
1.4873115e-05 -4.9290225e-06 -1.1863359e-05 
2.3219778e-05 -9.1890070e-06 -1.3358665e-05 
3.2446551e-05 -1.1184432e-05 -1.3703573e-05 
4.2699423e-05 -1.4747636e-05 -1.0126902e-05 
4.6695106e-05 -1.5461863e-05 -3.9066053e-06 
4.6936166e-05 -1.6074688e-05 5.3521408e-06 
3.8060931e-05 -1.2154060e-05 1.2313786e-05 
3.0564806e-05 -8.4202184e-06 1.3667470e-05 
2.2934850e-05 -5.3021781e-06 1.5484504e-05 
1.0709298e-05 -1.7558457e-06 1.2632566e-05 
3.8943317e-06 -1.4290188e-06 9.0865024e-06 
0.0000000e+00 -2.0472737e-06 0.0000000e+00 
0.0000000e+00 8.4391036e-07 0.0000000e+00 
0.0000000e+00 4.1444623e-06 0.0000000e+00 
0.0000000e+00 6.6661532e-06 0.0000000e+00 
0.0000000e+00 6.0594739e-06 0.0000000e+00 
0.0000000e+00 4.7330154e-06 0.0000000e+00 
0.0000000e+00 4.1605795e-06 0.0000000e+00 
0.0000000e+00 3.9277606e-06 0.0000000e+00 
0.0000000e+00 4.0945233e-06 0.0000000e+00 
0.0000000e+00 4.9492878e-06 0.0000000e+00 
0.0000000e+00 3.7745638e-06 0.0000000e+00 
0.0000000e+00 -5.2938137e-08 0.0000000e+00 
0.0000000e+00 -2.4385859e-06 0.0000000e+00 
0.0000000e+00 -5.3587555e-06 0.0000000e+00 
0.0000000e+00 -7.3623869e-06 0.0000000e+00 
0.0000000e+00 -6.0145862e-06 0.0000000e+00 
0.0000000e+00 -7.1087987e-07 0.0000000e+00 
0.0000000e+00 3.6592578e-06 0.0000000e+00 
0.0000000e+00 -1.1495484e-05 0.0000000e+00 
0.0000000e+00 -7.6536213e-05 0.0000000e+00 
0.0000000e+00 -2.1515270e-04 0.0000000e+00 
0.0000000e+00 -3.9914041e-04 0.0000000e+00 
0.0000000e+00 -5.4389494e-04 0.0000000e+00 
0.0000000e+00 -5.4929761e-04 0.0000000e+00 
0.0000000e+00 -4.6700911e-04 0.0000000e+00 
0.0000000e+00 -2.9786734e-04 0.0000000e+00 
0.0000000e+00 -1.2925664e-04 0.0000000e+00 
0.0000000e+00 -1.4029885e-05 0.0000000e+00 
0.0000000e+00 1.8869850e-05 0.0000000e+00 
0.0000000e+00 1.6650858e-05 0.0000000e+00 
0.0000000e+00 6.1869500e-06 0.0000000e+00 
0.0000000e+00 -2.9405358e-06 0.0000000e+00 
0.0000000e+00 -4.0747423e-06 0.0000000e+00 
0.0000000e+00 -3.0433500e-06 0.0000000e+00 
0.0000000e+00 -2.6720822e-06 0.0000000e+00 
0.0000000e+00 -5.0302214e-07 0.0000000e+00 
0.0000000e+00 7.5297152e-07 0.0000000e+00 
0.0000000e+00 4.5723286e-07 0.0000000e+00 
0.0000000e+00 -1.8955583e-05 0.0000000e+00 
0.0000000e+00 -8.2034683e-05 0.0000000e+00 
0.0000000e+00 -2.2202506e-04 0.0000000e+00 
0.0000000e+00 -4.1621338e-04 0.0000000e+00 
0.0000000e+00 -5.2286149e-04 0.0000000e+00 
0.0000000e+00 -5.2685029e-04 0.0000000e+00 
0.0000000e+00 -4.7253250e-04 0.0000000e+00 
0.0000000e+00 -3.1145193e-04 0.0000000e+00 
0.0000000e+00 -1.3081853e-04 0.0000000e+00 
0.0000000e+00 -2.3142005e-05 0.0000000e+00 
0.0000000e+00 1.4179588e-05 0.0000000e+00 
1.5627221e-07 -6.8791820e-07 -9.0995655e-07 
1.6764257e-07 -7.8365372e-07 -1.3035639e-06 
3.2219532e-07 -1.4163242e-06 -2.2114946e-06 
-8.8961322e-08 -2.8726727e-06 -2.4093740e-06 
2.4463438e-06 -2.5926440e-06 7.6806782e-06 
1.7138360e-06 2.3464269e-08 8.7216767e-06 
-1.5192270e-06 6.2457821e-06 7.9061938e-06 
-3.1094091e-06 1.1623571e-05 4.5640713e-06 
4.5949339e-08 -8.3855656e-07 -1.1394205e-06 
3.9948163e-06 -2.2866998e-06 1.0809821e-05 
-1.2967525e-06 -2.2421709e-06 -3.3514734e-06 
-8.5284728e-07 -1.5382428e-06 -2.8250290e-06 
0.0000000e+00 -3.0588269e-06 0.0000000e+00 
0.0000000e+00 -3.5321867e-07 0.0000000e+00 
0.0000000e+00 4.1297503e-06 0.0000000e+00 
0.0000000e+00 8.8472289e-06 0.0000000e+00 
0.0000000e+00 8.4248459e-06 0.0000000e+00 
0.0000000e+00 6.5129293e-06 0.0000000e+00 
0.0000000e+00 6.1219334e-06 0.0000000e+00 
0.0000000e+00 5.5779315e-06 0.0000000e+00 
0.0000000e+00 5.4927291e-06 0.0000000e+00 
0.0000000e+00 7.2308771e-06 0.0000000e+00 
0.0000000e+00 5.6086301e-06 0.0000000e+00 
0.0000000e+00 -7.5916518e-07 0.0000000e+00 
0.0000000e+00 -3.4799091e-06 0.0000000e+00 