# vtk DataFile Version 4.0
vtk output
ASCII
DATASET UNSTRUCTURED_GRID
POINTS 1919 float
0.0000000e+00 0.0000000e+00 0.0000000e+00 
0.0000000e+00 0.0000000e+00 5.0000000e+01 
5.0000000e+00 0.0000000e+00 0.0000000e+00 
5.0000000e+00 0.0000000e+00 5.0000000e+01 
5.0000000e+00 1.0000000e+00 0.0000000e+00 
5.0000000e+00 1.0000000e+00 5.0000000e+01 
0.0000000e+00 1.0000000e+00 0.0000000e+00 
0.0000000e+00 1.0000000e+00 5.0000000e+01 
5.0000000e+00 2.0000000e+00 0.0000000e+00 
5.0000000e+00 2.0000000e+00 5.0000000e+01 
3.0000000e+00 2.0000000e+00 0.0000000e+00 
3.0000000e+00 2.0000000e+00 5.0000000e+01 
0.0000000e+00 2.0000000e+00 0.0000000e+00 
0.0000000e+00 2.0000000e+00 5.0000000e+01 
1.5000000e+00 3.0000000e+00 0.0000000e+00 
1.5000000e+00 3.0000000e+00 5.0000000e+01 
7.5000000e-01 3.0000000e+00 0.0000000e+00 
7.5000000e-01 3.0000000e+00 5.0000000e+01 
0.0000000e+00 3.0000000e+00 0.0000000e+00 
0.0000000e+00 3.0000000e+00 5.0000000e+01 
7.5000000e-01 3.0000000e+00 5.0000000e-01 
7.5000000e-01 3.0000000e+00 1.0000000e+00 
7.5000000e-01 3.0000000e+00 1.5000000e+00 
7.5000000e-01 3.0000000e+00 2.0000000e+00 
7.5000000e-01 3.0000000e+00 2.5000000e+00 
7.5000000e-01 3.0000000e+00 3.0000000e+00 
7.5000000e-01 3.0000000e+00 3.5000000e+00 
7.5000000e-01 3.0000000e+00 4.0000000e+00 
7.5000000e-01 3.0000000e+00 4.5000000e+00 
7.5000000e-01 3.0000000e+00 5.0000000e+00 
7.5000000e-01 3.0000000e+00 5.5000000e+00 
7.5000000e-01 3.0000000e+00 6.0000000e+00 
7.5000000e-01 3.0000000e+00 6.5000000e+00 
7.5000000e-01 3.0000000e+00 7.0000000e+00 
7.5000000e-01 3.0000000e+00 7.5000000e+00 
7.5000000e-01 3.0000000e+00 8.0000000e+00 
7.5000000e-01 3.0000000e+00 8.5000000e+00 
7.5000000e-01 3.0000000e+00 9.0000000e+00 
7.5000000e-01 3.0000000e+00 9.5000000e+00 
7.5000000e-01 3.0000000e+00 1.0000000e+01 
7.5000000e-01 3.0000000e+00 1.0500000e+01 
7.5000000e-01 3.0000000e+00 1.1000000e+01 
7.5000000e-01 3.0000000e+00 1.1500000e+01 
7.5000000e-01 3.0000000e+00 1.2000000e+01 
7.5000000e-01 3.0000000e+00 1.2500000e+01 
7.5000000e-01 3.0000000e+00 1.3000000e+01 
7.5000000e-01 3.0000000e+00 1.3500000e+01 
7.5000000e-01 3.0000000e+00 1.4000000e+01 
7.5000000e-01 3.0000000e+00 1.4500000e+01 
7.5000000e-01 3.0000000e+00 1.5000000e+01 
7.5000000e-01 3.0000000e+00 1.5500000e+01 
7.5000000e-01 3.0000000e+00 1.6000000e+01 
7.5000000e-01 3.0000000e+00 1.6500000e+01 
7.5000000e-01 3.0000000e+00 1.7000000e+01 
7.5000000e-01 3.0000000e+00 1.7500000e+01 
7.5000000e-01 3.0000000e+00 1.8000000e+01 
7.5000000e-01 3.0000000e+00 1.8500000e+01 
7.5000000e-01 3.0000000e+00 1.9000000e+01 
7.5000000e-01 3.0000000e+00 1.9500000e+01 
7.5000000e-01 3.0000000e+00 2.0000000e+01 
7.5000000e-01 3.0000000e+00 2.0500000e+01 
7.5000000e-01 3.0000000e+00 2.1000000e+01 
7.5000000e-01 3.0000000e+00 2.1500000e+01 
7.5000000e-01 3.0000000e+00 2.2000000e+01 
7.5000000e-01 3.0000000e+00 2.2500000e+01 
7.5000000e-01 3.0000000e+00 2.3000000e+01 
7.5000000e-01 3.0000000e+00 2.3500000e+01 
7.5000000e-01 3.0000000e+00 2.4000000e+01 
7.5000000e-01 3.0000000e+00 2.4500000e+01 
7.5000000e-01 3.0000000e+00 2.5000000e+01 
7.5000000e-01 3.0000000e+00 2.5500000e+01 
7.5000000e-01 3.0000000e+00 2.6000000e+01 
7.5000000e-01 3.0000000e+00 2.6500000e+01 
7.5000000e-01 3.0000000e+00 2.7000000e+01 
7.5000000e-01 3.0000000e+00 2.7500000e+01 
7.5000000e-01 3.0000000e+00 2.8000000e+01 
7.5000000e-01 3.0000000e+00 2.8500000e+01 
7.5000000e-01 3.0000000e+00 2.9000000e+01 
7.5000000e-01 3.0000000e+00 2.9500000e+01 
7.5000000e-01 3.0000000e+00 3.0000000e+01 
7.5000000e-01 3.0000000e+00 3.0500000e+01 
7.5000000e-01 3.0000000e+00 3.1000000e+01 
7.5000000e-01 3.0000000e+00 3.1500000e+01 
7.5000000e-01 3.0000000e+00 3.2000000e+01 
7.5000000e-01 3.0000000e+00 3.2500000e+01 
7.5000000e-01 3.0000000e+00 3.3000000e+01 
7.5000000e-01 3.0000000e+00 3.3500000e+01 
7.5000000e-01 3.0000000e+00 3.4000000e+01 
7.5000000e-01 3.0000000e+00 3.4500000e+01 
7.5000000e-01 3.0000000e+00 3.5000000e+01 
7.5000000e-01 3.0000000e+00 3.5500000e+01 
7.5000000e-01 3.0000000e+00 3.6000000e+01 
7.5000000e-01 3.0000000e+00 3.6500000e+01 
7.5000000e-01 3.0000000e+00 3.7000000e+01 
7.5000000e-01 3.0000000e+00 3.7500000e+01 
7.5000000e-01 3.0000000e+00 3.8000000e+01 
7.5000000e-01 3.0000000e+00 3.8500000e+01 
7.5000000e-01 3.0000000e+00 3.9000000e+01 
7.5000000e-01 3.0000000e+00 3.9500000e+01 
7.5000000e-01 3.0000000e+00 4.0000000e+01 
7.5000000e-01 3.0000000e+00 4.0500000e+01 
7.5000000e-01 3.0000000e+00 4.1000000e+01 
7.5000000e-01 3.0000000e+00 4.1500000e+01 
7.5000000e-01 3.0000000e+00 4.2000000e+01 
7.5000000e-01 3.0000000e+00 4.2500000e+01 
7.5000000e-01 3.0000000e+00 4.3000000e+01 
7.5000000e-01 3.0000000e+00 4.3500000e+01 
7.5000000e-01 3.0000000e+00 4.4000000e+01 
7.5000000e-01 3.0000000e+00 4.4500000e+01 
7.5000000e-01 3.0000000e+00 4.5000000e+01 
7.5000000e-01 3.0000000e+00 4.5500000e+01 
7.5000000e-01 3.0000000e+00 4.6000000e+01 
7.5000000e-01 3.0000000e+00 4.6500000e+01 
7.5000000e-01 3.0000000e+00 4.7000000e+01 
7.5000000e-01 3.0000000e+00 4.7500000e+01 
7.5000000e-01 3.0000000e+00 4.8000000e+01 
7.5000000e-01 3.0000000e+00 4.8500000e+01 
7.5000000e-01 3.0000000e+00 4.9000000e+01 
7.5000000e-01 3.0000000e+00 4.9500000e+01 
7.5000000e-01 3.0250001e+00 0.0000000e+00 
7.5000000e-01 3.0250001e+00 5.0000000e-01 
7.5000000e-01 3.0250001e+00 1.0000000e+00 
7.5000000e-01 3.0250001e+00 1.5000000e+00 
7.5000000e-01 3.0250001e+00 2.0000000e+00 
7.5000000e-01 3.0250001e+00 2.5000000e+00 
7.5000000e-01 3.0250001e+00 3.0000000e+00 
7.5000000e-01 3.0250001e+00 3.5000000e+00 
7.5000000e-01 3.0250001e+00 4.0000000e+00 
7.5000000e-01 3.0250001e+00 4.5000000e+00 
7.5000000e-01 3.0250001e+00 5.0000000e+00 
7.5000000e-01 3.0250001e+00 5.5000000e+00 
7.5000000e-01 3.0250001e+00 6.0000000e+00 
7.5000000e-01 3.0250001e+00 6.5000000e+00 
7.5000000e-01 3.0250001e+00 7.0000000e+00 
7.5000000e-01 3.0250001e+00 7.5000000e+00 
7.5000000e-01 3.0250001e+00 8.0000000e+00 
7.5000000e-01 3.0250001e+00 8.5000000e+00 
7.5000000e-01 3.0250001e+00 9.0000000e+00 
7.5000000e-01 3.0250001e+00 9.5000000e+00 
7.5000000e-01 3.0250001e+00 1.0000000e+01 
7.5000000e-01 3.0250001e+00 1.0500000e+01 
7.5000000e-01 3.0250001e+00 1.1000000e+01 
7.5000000e-01 3.0250001e+00 1.1500000e+01 
7.5000000e-01 3.0250001e+00 1.2000000e+01 
7.5000000e-01 3.0250001e+00 1.2500000e+01 
7.5000000e-01 3.0250001e+00 1.3000000e+01 
7.5000000e-01 3.0250001e+00 1.3500000e+01 
7.5000000e-01 3.0250001e+00 1.4000000e+01 
7.5000000e-01 3.0250001e+00 1.4500000e+01 
7.5000000e-01 3.0250001e+00 1.5000000e+01 
7.5000000e-01 3.0250001e+00 1.5500000e+01 
7.5000000e-01 3.0250001e+00 1.6000000e+01 
7.5000000e-01 3.0250001e+00 1.6500000e+01 
7.5000000e-01 3.0250001e+00 1.7000000e+01 
7.5000000e-01 3.0250001e+00 1.7500000e+01 
7.5000000e-01 3.0250001e+00 1.8000000e+01 
7.5000000e-01 3.0250001e+00 1.8500000e+01 
7.5000000e-01 3.0250001e+00 1.9000000e+01 
7.5000000e-01 3.0250001e+00 1.9500000e+01 
7.5000000e-01 3.0250001e+00 2.0000000e+01 
7.5000000e-01 3.0250001e+00 2.0500000e+01 
7.5000000e-01 3.0250001e+00 2.1000000e+01 
7.5000000e-01 3.0250001e+00 2.1500000e+01 
7.5000000e-01 3.0250001e+00 2.2000000e+01 
7.5000000e-01 3.0250001e+00 2.2500000e+01 
7.5000000e-01 3.0250001e+00 2.3000000e+01 
7.5000000e-01 3.0250001e+00 2.3500000e+01 
7.5000000e-01 3.0250001e+00 2.4000000e+01 
7.5000000e-01 3.0250001e+00 2.4500000e+01 
7.5000000e-01 3.0250001e+00 2.5000000e+01 
7.5000000e-01 3.0250001e+00 2.5500000e+01 
7.5000000e-01 3.0250001e+00 2.6000000e+01 
7.5000000e-01 3.0250001e+00 2.6500000e+01 
7.5000000e-01 3.0250001e+00 2.7000000e+01 
7.5000000e-01 3.0250001e+00 2.7500000e+01 
7.5000000e-01 3.0250001e+00 2.8000000e+01 
7.5000000e-01 3.0250001e+00 2.8500000e+01 
7.5000000e-01 3.0250001e+00 2.9000000e+01 
7.5000000e-01 3.0250001e+00 2.9500000e+01 
7.5000000e-01 3.0250001e+00 3.0000000e+01 
7.5000000e-01 3.0250001e+00 3.0500000e+01 
7.5000000e-01 3.0250001e+00 3.1000000e+01 
7.5000000e-01 3.0250001e+00 3.1500000e+01 
7.5000000e-01 3.0250001e+00 3.2000000e+01 
7.5000000e-01 3.0250001e+00 3.2500000e+01 
7.5000000e-01 3.0250001e+00 3.3000000e+01 
7.5000000e-01 3.0250001e+00 3.3500000e+01 
7.5000000e-01 3.0250001e+00 3.4000000e+01 
7.5000000e-01 3.0250001e+00 3.4500000e+01 
7.5000000e-01 3.0250001e+00 3.5000000e+01 
7.5000000e-01 3.0250001e+00 3.5500000e+01 
7.5000000e-01 3.0250001e+00 3.6000000e+01 
7.5000000e-01 3.0250001e+00 3.6500000e+01 
7.5000000e-01 3.0250001e+00 3.7000000e+01 
7.5000000e-01 3.0250001e+00 3.7500000e+01 
7.5000000e-01 3.0250001e+00 3.8000000e+01 
7.5000000e-01 3.0250001e+00 3.8500000e+01 
7.5000000e-01 3.0250001e+00 3.9000000e+01 
7.5000000e-01 3.0250001e+00 3.9500000e+01 
7.5000000e-01 3.0250001e+00 4.0000000e+01 
7.5000000e-01 3.0250001e+00 4.0500000e+01 
7.5000000e-01 3.0250001e+00 4.1000000e+01 
7.5000000e-01 3.0250001e+00 4.1500000e+01 
7.5000000e-01 3.0250001e+00 4.2000000e+01 
7.5000000e-01 3.0250001e+00 4.2500000e+01 
7.5000000e-01 3.0250001e+00 4.3000000e+01 
7.5000000e-01 3.0250001e+00 4.3500000e+01 
7.5000000e-01 3.0250001e+00 4.4000000e+01 
7.5000000e-01 3.0250001e+00 4.4500000e+01 
7.5000000e-01 3.0250001e+00 4.5000000e+01 
7.5000000e-01 3.0250001e+00 4.5500000e+01 
7.5000000e-01 3.0250001e+00 4.6000000e+01 
7.5000000e-01 3.0250001e+00 4.6500000e+01 
7.5000000e-01 3.0250001e+00 4.7000000e+01 
7.5000000e-01 3.0250001e+00 4.7500000e+01 
7.5000000e-01 3.0250001e+00 4.8000000e+01 
7.5000000e-01 3.0250001e+00 4.8500000e+01 
7.5000000e-01 3.0250001e+00 4.9000000e+01 
7.5000000e-01 3.0250001e+00 4.9500000e+01 
7.5000000e-01 3.0250001e+00 5.0000000e+01 
1.5000000e+00 3.0000000e+00 2.5000000e+01 
3.0000000e+00 2.0000000e+00 2.5000000e+01 
4.0000000e+00 2.0000000e+00 2.5000000e+01 
5.0000000e+00 2.0000000e+00 2.5000000e+01 
0.0000000e+00 3.0000000e+00 2.5000000e+01 
0.0000000e+00 0.0000000e+00 1.0000000e+00 
0.0000000e+00 0.0000000e+00 2.0000000e+00 
0.0000000e+00 0.0000000e+00 3.0000000e+00 
0.0000000e+00 0.0000000e+00 4.0000000e+00 
0.0000000e+00 0.0000000e+00 5.0000000e+00 
[...]
POINT_DATA 1919
FIELD FieldData 3
DISPLACEMENT 3 1919  float
0.0000000e+00 0.0000000e+00 0.0000000e+00 
0.0000000e+00 0.0000000e+00 0.0000000e+00 
0.0000000e+00 0.0000000e+00 0.0000000e+00 
0.0000000e+00 0.0000000e+00 0.0000000e+00 
-4.4232920e-07 5.5608058e-07 3.2491630e-07 
-7.9217756e-07 -6.1869792e-07 5.0059644e-08 
0.0000000e+00 -1.2043865e-06 0.0000000e+00 
0.0000000e+00 -1.3094395e-06 0.0000000e+00 
-5.5169374e-07 6.7501560e-07 1.1999636e-07 
-5.5856628e-07 -1.0878921e-06 1.4382152e-06 
-6.5647646e-07 -1.1233000e-06 1.7336395e-06 
-8.8352363e-07 6.0760908e-07 -2.7029894e-06 
0.0000000e+00 -2.9035421e-06 0.0000000e+00 
0.0000000e+00 -5.7349066e-06 0.0000000e+00 
2.2304316e-06 -5.3285657e-06 -8.3855857e-06 
1.6084426e-06 -1.0839409e-05 8.4188796e-06 
3.7577720e-06 2.6321650e-06 -1.5440446e-06 
3.2158771e-06 -6.7737146e-06 4.6566997e-06 
0.0000000e+00 -5.5825767e-06 0.0000000e+00 
0.0000000e+00 -2.6945101e-05 0.0000000e+00 
3.4147240e-06 3.2097726e-06 -2.2334959e-07 
5.3752433e-06 4.9563650e-06 2.5147999e-06 
8.5937536e-06 7.7592003e-06 7.2326302e-06 
1.0220822e-05 1.1441522e-05 1.1169027e-05 
8.4846261e-06 1.5280888e-05 1.3295320e-05 
9.0195281e-06 1.8459352e-05 1.1982039e-05 
7.6578262e-06 2.0353584e-05 1.1349341e-05 
8.7838207e-06 2.0379166e-05 8.4963658e-06 
8.4290159e-06 1.8606052e-05 8.1240487e-06 
8.7946537e-06 1.5495143e-05 7.7755649e-06 
6.9255470e-06 1.2414876e-05 8.7044355e-06 
6.3640032e-06 1.0743969e-05 5.5179735e-06 
2.6858763e-06 1.0510533e-05 1.0354372e-06 
5.3487083e-06 1.0134723e-05 -4.8896031e-06 
6.9078151e-06 8.6806540e-06 -1.0042656e-05 
1.0577830e-05 5.7513053e-06 -1.3065693e-05 
1.1820720e-05 3.2181845e-06 -1.3652804e-05 
1.2067722e-05 3.4158174e-06 -1.0525576e-05 
1.0108868e-05 7.1082322e-06 -8.3420910e-06 
1.2437425e-05 1.2467546e-05 -9.5240712e-06 
1.2127334e-05 1.4540438e-05 -1.0952257e-05 
1.3878200e-05 8.8546576e-06 -1.1754788e-05 
1.5141168e-05 -1.7143245e-06 -1.3024875e-05 
1.3522716e-05 -7.5445773e-06 -1.0668196e-05 
6.8521194e-06 -2.2998215e-06 -7.9012616e-06 
2.9504890e-06 1.1616510e-05 -6.6063913e-06 
3.6184417e-06 2.4756291e-05 -8.8882962e-06 
4.3332893e-06 2.7543616e-05 -9.0082813e-06 
1.5131731e-06 2.1229025e-05 -1.1501905e-05 
-5.7032989e-06 1.9403598e-05 -3.4990665e-06 
-4.9827486e-06 3.7466834e-05 -3.1620905e-06 
4.6793520e-08 8.0481579e-05 9.5438763e-06 
-4.9660775e-06 1.2379876e-04 3.1648506e-05 
-1.4651103e-05 1.1271578e-04 5.4967699e-05 
-1.3305106e-05 -2.0628702e-06 8.4236053e-05 
-2.1655729e-05 -2.4780651e-04 9.9458237e-05 
-5.3754145e-05 -6.4089929e-04 1.8145733e-04 
-7.2705850e-05 -1.1998407e-03 1.5064285e-04 
-1.0970014e-04 -1.9702287e-03 2.6646795e-04 
-1.3769569e-04 -2.9505736e-03 1.3036678e-04 
-2.0163329e-04 -4.0195654e-03 2.0975423e-04 
-2.5167197e-04 -4.7319322e-03 7.2841729e-05 
-2.7688537e-04 -4.6742857e-03 2.5740987e-05 
-2.2512100e-04 -4.3446971e-03 1.5441632e-05 
-3.3179787e-04 -4.2122449e-03 2.3438535e-05 
-2.1425834e-04 -4.3003717e-03 -4.1341511e-05 
-2.1532646e-04 -4.2248336e-03 -1.8360958e-04 
-1.0024601e-04 -3.3403807e-03 -1.5592034e-04 
-9.3455063e-05 -2.1431702e-03 -2.1036231e-04 
-3.8490794e-05 -1.0848211e-03 -1.3794177e-04 
-1.0840318e-05 -3.7241323e-04 -1.4901950e-04 
6.7106253e-06 1.5425549e-05 -7.1423521e-05 
1.4289287e-05 1.7901615e-04 -5.6689139e-05 
1.7042990e-05 2.1951810e-04 -3.0116311e-05 
1.7998540e-05 2.0148892e-04 -1.0847268e-05 
1.7736391e-05 1.5080791e-04 -1.0385837e-05 
1.2685760e-05 8.6177424e-05 -5.4056745e-06 
8.6049376e-06 2.9398816e-05 -9.7441007e-06 
3.7018135e-06 1.5434568e-07 -9.1736702e-06 
2.5924771e-06 -2.3017180e-06 -1.4477681e-05 
3.7660632e-06 5.9374124e-06 -1.4445603e-05 
9.0869671e-06 8.9352561e-06 -1.4304325e-05 
1.0436856e-05 2.0282537e-06 -1.4310916e-05 
1.0491749e-05 -8.5986740e-06 -1.1093629e-05 
9.2528326e-06 -1.0444591e-05 -9.8519195e-06 
8.2195193e-06 3.6233980e-06 -6.4678761e-06 
5.2235919e-06 2.6576621e-05 -5.8365804e-06 
3.5700436e-06 4.7495418e-05 -6.8687831e-07 
2.6532568e-06 5.8781396e-05 -2.4180913e-06 
2.0098237e-06 5.6441437e-05 3.1792815e-06 
2.4810397e-06 5.1482053e-05 -2.3387420e-06 
-4.1694861e-06 6.0650244e-05 1.5257500e-05 
-1.1975000e-05 8.3691863e-05 3.3478813e-05 
-9.6504900e-06 8.7800981e-05 4.8111186e-05 
-1.7751914e-05 3.7755526e-06 7.8106430e-05 
-6.0167251e-05 -2.5010778e-04 1.5154570e-04 
-6.3565967e-05 -7.1017625e-04 1.7746260e-04 
-8.3127401e-05 -1.3802852e-03 1.5160469e-04 
-1.2676214e-04 -2.2485019e-03 2.6891945e-04 
-1.5367415e-04 -3.2371327e-03 1.1412925e-04 
-2.2079775e-04 -4.1799042e-03 1.9799826e-04 
-2.3864118e-04 -4.6774033e-03 7.5991054e-05 
-2.2561835e-04 -4.5533543e-03 2.5301548e-05 
-2.2344735e-04 -4.2896476e-03 -1.6771347e-06 
-2.0123800e-04 -4.2477357e-03 -1.9127144e-06 
-2.1615448e-04 -4.2859702e-03 -9.7310796e-05 
-1.9591507e-04 -3.9735646e-03 -1.7262767e-04 
-1.6158690e-04 -2.9773782e-03 -1.3074170e-04 
-9.6678334e-05 -1.8201919e-03 -2.2673397e-04 
-7.0241491e-05 -8.7826245e-04 -1.2245850e-04 
-2.3590064e-05 -2.7102185e-04 -1.4295883e-04 
-1.1035571e-05 5.5749988e-05 -7.4682721e-05 
4.7010926e-06 1.9794682e-04 -5.3045806e-05 
7.1276590e-06 2.2722459e-04 -2.9417364e-05 
7.4879649e-06 1.8904127e-04 -1.3053866e-05 
2.7012647e-06 1.1882796e-04 -1.0504758e-05 
2.0897091e-06 5.1331961e-05 5.6274121e-07 
7.7740629e-07 9.6922859e-06 7.7788468e-07 
1.6005018e-06 -4.9956875e-06 2.8917734e-06 
0.0000000e+00 2.6560654e-06 0.0000000e+00 
0.0000000e+00 3.2282626e-06 0.0000000e+00 
0.0000000e+00 4.9514451e-06 0.0000000e+00 
0.0000000e+00 7.7787072e-06 0.0000000e+00 
0.0000000e+00 1.1450868e-05 0.0000000e+00 
0.0000000e+00 1.5287244e-05 0.0000000e+00 
0.0000000e+00 1.8481851e-05 0.0000000e+00 
0.0000000e+00 2.0352349e-05 0.0000000e+00 
0.0000000e+00 2.0383637e-05 0.0000000e+00 
0.0000000e+00 1.8562916e-05 0.0000000e+00 
0.0000000e+00 1.5471494e-05 0.0000000e+00 
0.0000000e+00 1.2473745e-05 0.0000000e+00 
0.0000000e+00 1.0846114e-05 0.0000000e+00 
0.0000000e+00 1.0530452e-05 0.0000000e+00 
0.0000000e+00 1.0146962e-05 0.0000000e+00 
0.0000000e+00 8.5749280e-06 0.0000000e+00 
0.0000000e+00 5.7096922e-06 0.0000000e+00 
0.0000000e+00 3.2542041e-06 0.0000000e+00 
0.0000000e+00 3.5133348e-06 0.0000000e+00 
0.0000000e+00 7.3198007e-06 0.0000000e+00 
0.0000000e+00 1.2575925e-05 0.0000000e+00 
0.0000000e+00 1.4261954e-05 0.0000000e+00 
0.0000000e+00 8.4551148e-06 0.0000000e+00 
0.0000000e+00 -1.7280616e-06 0.0000000e+00 
0.0000000e+00 -7.2013463e-06 0.0000000e+00 
0.0000000e+00 -1.8547466e-06 0.0000000e+00 
0.0000000e+00 1.1797291e-05 0.0000000e+00 
0.0000000e+00 2.4378796e-05 0.0000000e+00 
0.0000000e+00 2.6958336e-05 0.0000000e+00 
0.0000000e+00 2.0908152e-05 0.0000000e+00 
0.0000000e+00 1.9552321e-05 0.0000000e+00 
0.0000000e+00 3.8775641e-05 0.0000000e+00 
0.0000000e+00 8.2364444e-05 0.0000000e+00 
0.0000000e+00 1.2434037e-04 0.0000000e+00 
0.0000000e+00 1.1200950e-04 0.0000000e+00 
0.0000000e+00 -2.9220475e-06 0.0000000e+00 
0.0000000e+00 -2.4829144e-04 0.0000000e+00 
0.0000000e+00 -6.3993380e-04 0.0000000e+00 
0.0000000e+00 -1.2018612e-03 0.0000000e+00 
0.0000000e+00 -1.9760644e-03 0.0000000e+00 
0.0000000e+00 -2.9674359e-03 0.0000000e+00 
0.0000000e+00 -4.0401435e-03 0.0000000e+00 
0.0000000e+00 -4.7621666e-03 0.0000000e+00 
0.0000000e+00 -4.6962798e-03 0.0000000e+00 
0.0000000e+00 -4.3671620e-03 0.0000000e+00 
0.0000000e+00 -4.2338921e-03 0.0000000e+00 
0.0000000e+00 -4.3343282e-03 0.0000000e+00 
0.0000000e+00 -4.2435182e-03 0.0000000e+00 
0.0000000e+00 -3.3620785e-03 0.0000000e+00 
0.0000000e+00 -2.1567091e-03 0.0000000e+00 
0.0000000e+00 -1.0960193e-03 0.0000000e+00 
0.0000000e+00 -3.7564806e-04 0.0000000e+00 
0.0000000e+00 1.6308411e-05 0.0000000e+00 
0.0000000e+00 1.8108668e-04 0.0000000e+00 
0.0000000e+00 2.2116548e-04 0.0000000e+00 
0.0000000e+00 2.0173714e-04 0.0000000e+00 
0.0000000e+00 1.5090674e-04 0.0000000e+00 
0.0000000e+00 8.6506865e-05 0.0000000e+00 
0.0000000e+00 3.0340141e-05 0.0000000e+00 
0.0000000e+00 7.0820909e-07 0.0000000e+00 
0.0000000e+00 -2.4537098e-06 0.0000000e+00 
0.0000000e+00 5.5536689e-06 0.0000000e+00 
0.0000000e+00 8.7022581e-06 0.0000000e+00 
0.0000000e+00 1.6954258e-06 0.0000000e+00 
0.0000000e+00 -8.6522741e-06 0.0000000e+00 
0.0000000e+00 -9.9926528e-06 0.0000000e+00 
0.0000000e+00 3.9026127e-06 0.0000000e+00 
0.0000000e+00 2.6796068e-05 0.0000000e+00 
0.0000000e+00 4.7606358e-05 0.0000000e+00 
0.0000000e+00 5.7989710e-05 0.0000000e+00 
0.0000000e+00 5.5857130e-05 0.0000000e+00 
0.0000000e+00 5.1927931e-05 0.0000000e+00 
0.0000000e+00 6.2043822e-05 0.0000000e+00 
0.0000000e+00 8.5969368e-05 0.0000000e+00 
0.0000000e+00 8.9328205e-05 0.0000000e+00 
0.0000000e+00 2.0533357e-06 0.0000000e+00 
0.0000000e+00 -2.5200628e-04 0.0000000e+00 
0.0000000e+00 -7.1198202e-04 0.0000000e+00 
0.0000000e+00 -1.3842577e-03 0.0000000e+00 
0.0000000e+00 -2.2532502e-03 0.0000000e+00 
0.0000000e+00 -3.2529735e-03 0.0000000e+00 
0.0000000e+00 -4.2014020e-03 0.0000000e+00 
0.0000000e+00 -4.7098571e-03 0.0000000e+00 
0.0000000e+00 -4.5764614e-03 0.0000000e+00 
0.0000000e+00 -4.3153469e-03 0.0000000e+00 
0.0000000e+00 -4.2669796e-03 0.0000000e+00 
0.0000000e+00 -4.3126699e-03 0.0000000e+00 
0.0000000e+00 -3.9962018e-03 0.0000000e+00 
0.0000000e+00 -3.0005390e-03 0.0000000e+00 
0.0000000e+00 -1.8331093e-03 0.0000000e+00 
0.0000000e+00 -8.8585838e-04 0.0000000e+00 
0.0000000e+00 -2.7240909e-04 0.0000000e+00 
0.0000000e+00 5.7115980e-05 0.0000000e+00 
0.0000000e+00 1.9913410e-04 0.0000000e+00 
0.0000000e+00 2.2780469e-04 0.0000000e+00 
0.0000000e+00 1.8935098e-04 0.0000000e+00 
0.0000000e+00 1.1955883e-04 0.0000000e+00 
0.0000000e+00 5.2346229e-05 0.0000000e+00 
0.0000000e+00 1.0282356e-05 0.0000000e+00 
0.0000000e+00 -5.1789261e-06 0.0000000e+00 
0.0000000e+00 -7.2859748e-06 0.0000000e+00 
-1.6278872e-04 -4.2186258e-04 -2.4189423e-04 
2.3310655e-05 -2.8732589e-05 1.4183940e-05 
2.0255222e-05 -6.4999444e-06 1.2368195e-05 
1.6354228e-05 -1.3622554e-06 1.4195566e-05 
0.0000000e+00 -2.8296103e-04 0.0000000e+00 
0.0000000e+00 0.0000000e+00 0.0000000e+00 
0.0000000e+00 0.0000000e+00 0.0000000e+00 
0.0000000e+00 0.0000000e+00 0.0000000e+00 
0.0000000e+00 0.0000000e+00 0.0000000e+00 
0.0000000e+00 0.0000000e+00 0.0000000e+00 
0.0000000e+00 0.0000000e+00 0.0000000e+00 
0.0000000e+00 0.0000000e+00 0.0000000e+00 
0.0000000e+00 0.0000000e+00 0.0000000e+00 
0.0000000e+00 0.0000000e+00 0.0000000e+00 
0.0000000e+00 0.0000000e+00 0.0000000e+00 
0.0000000e+00 0.0000000e+00 0.0000000e+00 
0.0000000e+00 0.0000000e+00 0.0000000e+00 
0.0000000e+00 0.0000000e+00 0.0000000e+00 
0.0000000e+00 0.0000000e+00 0.0000000e+00 
0.0000000e+00 0.0000000e+00 0.0000000e+00 
0.0000000e+00 0.0000000e+00 0.0000000e+00 
0.0000000e+00 0.0000000e+00 0.0000000e+00 
0.0000000e+00 0.0000000e+00 0.0000000e+00 
0.0000000e+00 0.0000000e+00 0.0000000e+00 
0.0000000e+00 0.0000000e+00 0.0000000e+00 
0.0000000e+00 0.0000000e+00 0.0000000e+00 
0.0000000e+00 0.0000000e+00 0.0000000e+00 
0.0000000e+00 0.0000000e+00 0.0000000e+00 
0.0000000e+00 0.0000000e+00 0.0000000e+00 
0.0000000e+00 0.0000000e+00 0.0000000e+00 
0.0000000e+00 0.0000000e+00 0.0000000e+00 
0.0000000e+00 0.0000000e+00 0.0000000e+00 
0.0000000e+00 0.0000000e+00 0.0000000e+00 
0.0000000e+00 0.0000000e+00 0.0000000e+00 
0.0000000e+00 0.0000000e+00 0.0000000e+00 
0.0000000e+00 0.0000000e+00 0.0000000e+00 
0.0000000e+00 0.0000000e+00 0.0000000e+00 
0.0000000e+00 0.0000000e+00 0.0000000e+00 
0.0000000e+00 0.0000000e+00 0.0000000e+00 
0.0000000e+00 0.0000000e+00 0.0000000e+00 
0.0000000e+00 0.0000000e+00 0.0000000e+00 
0.0000000e+00 0.0000000e+00 0.0000000e+00 
0.0000000e+00 0.0000000e+00 0.0000000e+00 
0.0000000e+00 0.0000000e+00 0.0000000e+00 
0.0000000e+00 0.0000000e+00 0.0000000e+00 
0.0000000e+00 0.0000000e+00 0.0000000e+00 
0.0000000e+00 0.0000000e+00 0.0000000e+00 
0.0000000e+00 0.0000000e+00 0.0000000e+00 
0.0000000e+00 0.0000000e+00 0.0000000e+00 
0.0000000e+00 0.0000000e+00 0.0000000e+00 
0.0000000e+00 0.0000000e+00 0.0000000e+00 
0.0000000e+00 0.0000000e+00 0.0000000e+00 
0.0000000e+00 0.0000000e+00 0.0000000e+00 
0.0000000e+00 0.0000000e+00 0.0000000e+00 
0.0000000e+00 0.0000000e+00 0.0000000e+00 
0.0000000e+00 0.0000000e+00 0.0000000e+00 
0.0000000e+00 0.0000000e+00 0.0000000e+00 
0.0000000e+00 0.0000000e+00 0.0000000e+00 
0.0000000e+00 0.0000000e+00 0.0000000e+00 
0.0000000e+00 0.0000000e+00 0.0000000e+00 
0.0000000e+00 0.0000000e+00 0.0000000e+00 
0.0000000e+00 0.0000000e+00 0.0000000e+00 
0.0000000e+00 0.0000000e+00 0.0000000e+00 
0.0000000e+00 0.0000000e+00 0.0000000e+00 
0.0000000e+00 0.0000000e+00 0.0000000e+00 
0.0000000e+00 0.0000000e+00 0.0000000e+00 
0.0000000e+00 0.0000000e+00 0.0000000e+00 
0.0000000e+00 0.0000000e+00 0.0000000e+00 
0.0000000e+00 0.0000000e+00 0.0000000e+00 
0.0000000e+00 0.0000000e+00 0.0000000e+00 
0.0000000e+00 0.0000000e+00 0.0000000e+00 
0.0000000e+00 0.0000000e+00 0.0000000e+00 
0.0000000e+00 0.0000000e+00 0.0000000e+00 
0.0000000e+00 0.0000000e+00 0.0000000e+00 
0.0000000e+00 0.0000000e+00 0.0000000e+00 
0.0000000e+00 0.0000000e+00 0.0000000e+00 
0.0000000e+00 0.0000000e+00 0.0000000e+00 
0.0000000e+00 0.0000000e+00 0.0000000e+00 
0.0000000e+00 0.0000000e+00 0.0000000e+00 
0.0000000e+00 0.0000000e+00 0.0000000e+00 
0.0000000e+00 0.0000000e+00 0.0000000e+00 
0.0000000e+00 0.0000000e+00 0.0000000e+00 
0.0000000e+00 0.0000000e+00 0.0000000e+00 
0.0000000e+00 0.0000000e+00 0.0000000e+00 
0.0000000e+00 0.0000000e+00 0.0000000e+00 
0.0000000e+00 0.0000000e+00 0.0000000e+00 
0.0000000e+00 0.0000000e+00 0.0000000e+00 
0.0000000e+00 0.0000000e+00 0.0000000e+00 
0.0000000e+00 0.0000000e+00 0.0000000e+00 
0.0000000e+00 0.0000000e+00 0.0000000e+00 
0.0000000e+00 0.0000000e+00 0.0000000e+00 
0.0000000e+00 0.0000000e+00 0.0000000e+00 
0.0000000e+00 0.0000000e+00 0.0000000e+00 
0.0000000e+00 0.0000000e+00 0.0000000e+00 
0.0000000e+00 0.0000000e+00 0.0000000e+00 
0.0000000e+00 0.0000000e+00 0.0000000e+00 
0.0000000e+00 0.0000000e+00 0.0000000e+00 
0.0000000e+00 0.0000000e+00 0.0000000e+00 
0.0000000e+00 0.0000000e+00 0.0000000e+00 
0.0000000e+00 0.0000000e+00 0.0000000e+00 
0.0000000e+00 0.0000000e+00 0.0000000e+00 
0.0000000e+00 0.0000000e+00 0.0000000e+00 
0.0000000e+00 0.0000000e+00 0.0000000e+00 
0.0000000e+00 0.0000000e+00 0.0000000e+00 
0.0000000e+00 0.0000000e+00 0.0000000e+00 
0.0000000e+00 0.0000000e+00 0.0000000e+00 
0.0000000e+00 0.0000000e+00 0.0000000e+00 
0.0000000e+00 0.0000000e+00 0.0000000e+00 
0.0000000e+00 0.0000000e+00 0.0000000e+00 
0.0000000e+00 0.0000000e+00 0.0000000e+00 
0.0000000e+00 0.0000000e+00 0.0000000e+00 
1.4413719e-07 4.5658234e-07 5.7578916e-08 
3.6357110e-07 6.9930087e-07 1.8640498e-07 
1.3027681e-06 -9.6931323e-08 8.2016800e-07 
1.5244658e-06 -1.9532487e-07 1.1766211e-06 
1.3964918e-06 -4.2909102e-07 4.6305735e-07 
1.0897785e-06 2.3169299e-07 5.3846702e-07 
1.9654055e-06 -1.0575309e-07 4.1697365e-07 
1.3959045e-06 -2.3574687e-07 -4.1128189e-07 
1.1766252e-06 1.4906319e-06 -4.0451147e-07 
1.9320526e-06 6.9885721e-07 -5.5799813e-07 
1.5869711e-06 -2.0900818e-06 1.1585158e-06 
4.1613882e-07 2.3090133e-06 3.8510084e-06 
1.2416093e-06 6.8504539e-07 -2.1581593e-06 
-2.2942329e-08 -1.8588328e-06 -1.7178096e-06 
-4.2652636e-07 -6.5735725e-07 -4.1812377e-06 
5.1269294e-06 3.9917577e-06 -5.9345571e-06 
5.7870229e-06 -1.0329867e-05 -1.0619142e-05 
1.8180559e-05 -3.7211516e-06 -1.3980952e-05 
3.1465759e-05 -7.5157755e-06 -1.1294598e-05 
4.1818534e-05 -1.6966011e-05 -8.1062926e-06 
4.6898240e-05 -1.6043396e-05 -3.0427489e-06 
4.6039604e-05 -1.1232730e-05 6.1253872e-06 
3.8017366e-05 -9.3741637e-06 1.2290124e-05 
2.8572998e-05 -9.7224638e-06 1.5476346e-05 
1.9449182e-05 -4.6852688e-06 1.2396549e-05 
1.0168080e-05 -3.6725087e-06 9.5477535e-06 
5.4434545e-06 -9.6203087e-07 8.4733510e-06 
1.2297563e-06 -8.8138336e-07 -1.8011171e-07 
1.1595088e-06 1.6751210e-07 -1.3574254e-07 
2.3380673e-09 5.3477470e-07 1.0513819e-06 
-4.1263968e-07 2.8432314e-07 1.2381298e-06 
-1.4017799e-06 1.1234750e-06 -1.2789602e-06 
-4.4975087e-07 4.1253957e-06 1.5422123e-06 
-1.1076194e-06 -1.3683855e-06 -6.4192079e-07 
6.3045320e-07 -2.4301921e-06 -3.7771049e-06 
5.7612374e-06 3.5601229e-06 -6.6508887e-06 
1.4654910e-05 -5.9982904e-06 -9.2034925e-06 
2.2349541e-05 -1.0304246e-05 -1.1269593e-05 
3.0613483e-05 -1.0725039e-05 -1.3279750e-05 
4.2586362e-05 -1.7907721e-05 -8.7548633e-06 
4.4424971e-05 -1.6358923e-05 -3.6888941e-06 
4.7262554e-05 -1.4221485e-05 6.3889761e-06 
3.8949467e-05 -1.3882996e-05 1.3371036e-05 
2.7542323e-05 -8.4503845e-06 1.4443104e-05 
1.4922985e-05 -4.2006031e-06 1.2683474e-05 
9.6323138e-06 -2.0273753e-06 9.6998865e-06 
4.6907535e-06 -1.0367257e-06 6.6222965e-06 
5.2532386e-07 8.9329419e-08 1.4061516e-06 
-3.7166726e-07 6.7267365e-07 2.7253267e-07 
0.0000000e+00 -5.3508315e-06 0.0000000e+00 
0.0000000e+00 -9.6352323e-06 0.0000000e+00 
0.0000000e+00 -7.5139342e-06 0.0000000e+00 
0.0000000e+00 -7.2983216e-06 0.0000000e+00 
0.0000000e+00 -1.0292930e-05 0.0000000e+00 
0.0000000e+00 -6.9513057e-06 0.0000000e+00 
0.0000000e+00 -8.6299096e-06 0.0000000e+00 
0.0000000e+00 -1.5452435e-05 0.0000000e+00 
0.0000000e+00 -1.1461753e-05 0.0000000e+00 
0.0000000e+00 -7.8541243e-06 0.0000000e+00 
0.0000000e+00 -1.0090863e-05 0.0000000e+00 
0.0000000e+00 -9.2595083e-06 0.0000000e+00 
0.0000000e+00 6.7540818e-06 0.0000000e+00 
0.0000000e+00 -4.3852406e-06 0.0000000e+00 
0.0000000e+00 -1.8103066e-06 0.0000000e+00 
0.0000000e+00 6.2021832e-06 0.0000000e+00 
0.0000000e+00 4.2211695e-06 0.0000000e+00 
0.0000000e+00 -1.0191010e-04 0.0000000e+00 
0.0000000e+00 -1.7812582e-04 0.0000000e+00 
0.0000000e+00 -3.9484233e-04 0.0000000e+00 
0.0000000e+00 -5.0003949e-04 0.0000000e+00 
0.0000000e+00 -5.2722072e-04 0.0000000e+00 
0.0000000e+00 -5.1277876e-04 0.0000000e+00 
0.0000000e+00 -3.5332225e-04 0.0000000e+00 
0.0000000e+00 -1.4117816e-04 0.0000000e+00 
0.0000000e+00 -2.1585138e-05 0.0000000e+00 
0.0000000e+00 2.4053785e-05 0.0000000e+00 
0.0000000e+00 1.3731426e-05 0.0000000e+00 
0.0000000e+00 -1.3840573e-06 0.0000000e+00 
0.0000000e+00 -7.5581414e-07 0.0000000e+00 
0.0000000e+00 -1.0352342e-05 0.0000000e+00 
0.0000000e+00 -1.3136793e-05 0.0000000e+00 
0.0000000e+00 -2.5266834e-06 0.0000000e+00 
0.0000000e+00 -1.0548055e-05 0.0000000e+00 
0.0000000e+00 -9.2578612e-06 0.0000000e+00 
0.0000000e+00 8.8037523e-06 0.0000000e+00 
0.0000000e+00 1.1206583e-07 0.0000000e+00 
0.0000000e+00 -9.0269787e-05 0.0000000e+00 
0.0000000e+00 -2.2951119e-04 0.0000000e+00 
0.0000000e+00 -3.5215498e-04 0.0000000e+00 
0.0000000e+00 -4.9804460e-04 0.0000000e+00 
0.0000000e+00 -5.1345356e-04 0.0000000e+00 
0.0000000e+00 -4.4466634e-04 0.0000000e+00 
0.0000000e+00 -3.0013462e-04 0.0000000e+00 
0.0000000e+00 -1.3138105e-04 0.0000000e+00 
0.0000000e+00 -2.0787485e-05 0.0000000e+00 
0.0000000e+00 1.7212042e-05 0.0000000e+00 
0.0000000e+00 1.5610090e-05 0.0000000e+00 
0.0000000e+00 5.3690692e-06 0.0000000e+00 
-1.0360830e-08 -5.1488968e-08 6.1547198e-08 
-1.2048997e-07 -6.6232666e-08 4.6343445e-07 
6.1166349e-07 1.0119508e-06 1.8117945e-06 
1.0638298e-06 -9.6337203e-08 2.5361994e-06 
-1.2897303e-06 3.5312368e-07 -7.7932413e-07 
-9.5100188e-07 4.1135672e-07 -2.7185758e-06 
-2.7960064e-07 2.3876000e-06 -4.3054952e-06 
8.7026194e-07 -2.8998130e-07 -4.1533131e-06 
-1.2099174e-06 7.9520525e-08 7.4562070e-07 
-9.6229496e-07 1.1467709e-07 -4.3480716e-07 
1.3971011e-06 -3.0290005e-06 4.4967710e-06 
2.4495421e-07 -1.3367230e-07 2.4564615e-06 
0.0000000e+00 -1.0511340e-05 0.0000000e+00 
0.0000000e+00 -1.0500124e-05 0.0000000e+00 
0.0000000e+00 -1.2354411e-05 0.0000000e+00 
0.0000000e+00 -1.3205004e-05 0.0000000e+00 
0.0000000e+00 -1.2326977e-05 0.0000000e+00 
0.0000000e+00 -1.1030524e-05 0.0000000e+00 
0.0000000e+00 -1.8001425e-05 0.0000000e+00 
0.0000000e+00 -2.1437118e-05 0.0000000e+00 
0.0000000e+00 -1.7616610e-05 0.0000000e+00 
0.0000000e+00 -1.9428537e-05 0.0000000e+00 
0.0000000e+00 -1.8762932e-05 0.0000000e+00 
0.0000000e+00 -1.0702048e-05 0.0000000e+00 
0.0000000e+00 3.9225838e-06 0.0000000e+00 
0.0000000e+00 -2.4502058e-05 0.0000000e+00 