# vtk DataFile Version 4.0
vtk output
ASCII
DATASET UNSTRUCTURED_GRID
POINTS 1919 float
0.0000000e+00 0.0000000e+00 0.0000000e+00 
0.0000000e+00 0.0000000e+00 5.0000000e+01 
5.0000000e+00 0.0000000e+00 0.0000000e+00 
5.0000000e+00 0.0000000e+00 5.0000000e+01 
5.0000000e+00 1.0000000e+00 0.0000000e+00 
5.0000000e+00 1.0000000e+00 5.0000000e+01 
0.0000000e+00 1.0000000e+00 0.0000000e+00 
0.0000000e+00 1.0000000e+00 5.0000000e+01 
5.0000000e+00 2.0000000e+00 0.0000000e+00 
5.0000000e+00 2.0000000e+00 5.0000000e+01 
3.0000000e+00 2.0000000e+00 0.0000000e+00 
3.0000000e+00 2.0000000e+00 5.0000000e+01 
0.0000000e+00 2.0000000e+00 0.0000000e+00 
0.0000000e+00 2.0000000e+00 5.0000000e+01 
1.5000000e+00 3.0000000e+00 0.0000000e+00 
1.5000000e+00 3.0000000e+00 5.0000000e+01 
7.5000000e-01 3.0000000e+00 0.0000000e+00 
7.5000000e-01 3.0000000e+00 5.0000000e+01 
0.0000000e+00 3.0000000e+00 0.0000000e+00 
0.0000000e+00 3.0000000e+00 5.0000000e+01 
7.5000000e-01 3.0000000e+00 5.0000000e-01 
7.5000000e-01 3.0000000e+00 1.0000000e+00 
7.5000000e-01 3.0000000e+00 1.5000000e+00 
7.5000000e-01 3.0000000e+00 2.0000000e+00 
7.5000000e-01 3.0000000e+00 2.5000000e+00 
7.5000000e-01 3.0000000e+00 3.0000000e+00 
7.5000000e-01 3.0000000e+00 3.5000000e+00 
7.5000000e-01 3.0000000e+00 4.0000000e+00 
7.5000000e-01 3.0000000e+00 4.5000000e+00 
7.5000000e-01 3.0000000e+00 5.0000000e+00 
7.5000000e-01 3.0000000e+00 5.5000000e+00 
7.5000000e-01 3.0000000e+00 6.0000000e+00 
7.5000000e-01 3.0000000e+00 6.5000000e+00 
7.5000000e-01 3.0000000e+00 7.0000000e+00 
7.5000000e-01 3.0000000e+00 7.5000000e+00 
7.5000000e-01 3.0000000e+00 8.0000000e+00 
7.5000000e-01 3.0000000e+00 8.5000000e+00 
7.5000000e-01 3.0000000e+00 9.0000000e+00 
7.5000000e-01 3.0000000e+00 9.5000000e+00 
7.5000000e-01 3.0000000e+00 1.0000000e+01 
7.5000000e-01 3.0000000e+00 1.0500000e+01 
7.5000000e-01 3.0000000e+00 1.1000000e+01 
7.5000000e-01 3.0000000e+00 1.1500000e+01 
7.5000000e-01 3.0000000e+00 1.2000000e+01 
7.5000000e-01 3.0000000e+00 1.2500000e+01 
7.5000000e-01 3.0000000e+00 1.3000000e+01 
7.5000000e-01 3.0000000e+00 1.3500000e+01 
7.5000000e-01 3.0000000e+00 1.4000000e+01 
7.5000000e-01 3.0000000e+00 1.4500000e+01 
7.5000000e-01 3.0000000e+00 1.5000000e+01 
7.5000000e-01 3.0000000e+00 1.5500000e+01 
7.5000000e-01 3.0000000e+00 1.6000000e+01 
7.5000000e-01 3.0000000e+00 1.6500000e+01 
7.5000000e-01 3.0000000e+00 1.7000000e+01 
7.5000000e-01 3.0000000e+00 1.7500000e+01 
7.5000000e-01 3.0000000e+00 1.8000000e+01 
7.5000000e-01 3.0000000e+00 1.8500000e+01 
7.5000000e-01 3.0000000e+00 1.9000000e+01 
7.5000000e-01 3.0000000e+00 1.9500000e+01 
7.5000000e-01 3.0000000e+00 2.0000000e+01 
7.5000000e-01 3.0000000e+00 2.0500000e+01 
7.5000000e-01 3.0000000e+00 2.1000000e+01 
7.5000000e-01 3.0000000e+00 2.1500000e+01 
7.5000000e-01 3.0000000e+00 2.2000000e+01 
7.5000000e-01 3.0000000e+00 2.2500000e+01 
7.5000000e-01 3.0000000e+00 2.3000000e+01 
7.5000000e-01 3.0000000e+00 2.3500000e+01 
7.5000000e-01 3.0000000e+00 2.4000000e+01 
7.5000000e-01 3.0000000e+00 2.4500000e+01 
7.5000000e-01 3.0000000e+00 2.5000000e+01 
7.5000000e-01 3.0000000e+00 2.5500000e+01 
7.5000000e-01 3.0000000e+00 2.6000000e+01 
7.5000000e-01 3.0000000e+00 2.6500000e+01 
7.5000000e-01 3.0000000e+00 2.7000000e+01 
7.5000000e-01 3.0000000e+00 2.7500000e+01 
7.5000000e-01 3.0000000e+00 2.8000000e+01 
7.5000000e-01 3.0000000e+00 2.8500000e+01 
7.5000000e-01 3.0000000e+00 2.9000000e+01 
7.5000000e-01 3.0000000e+00 2.9500000e+01 
7.5000000e-01 3.0000000e+00 3.0000000e+01 
7.5000000e-01 3.0000000e+00 3.0500000e+01 
7.5000000e-01 3.0000000e+00 3.1000000e+01 
7.5000000e-01 3.0000000e+00 3.1500000e+01 
7.5000000e-01 3.0000000e+00 3.2000000e+01 
7.5000000e-01 3.0000000e+00 3.2500000e+01 
7.5000000e-01 3.0000000e+00 3.3000000e+01 
7.5000000e-01 3.0000000e+00 3.3500000e+01 
7.5000000e-01 3.0000000e+00 3.4000000e+01 
7.5000000e-01 3.0000000e+00 3.4500000e+01 
7.5000000e-01 3.0000000e+00 3.5000000e+01 
7.5000000e-01 3.0000000e+00 3.5500000e+01 
7.5000000e-01 3.0000000e+00 3.6000000e+01 
7.5000000e-01 3.0000000e+00 3.6500000e+01 
7.5000000e-01 3.0000000e+00 3.7000000e+01 
7.5000000e-01 3.0000000e+00 3.7500000e+01 
7.5000000e-01 3.0000000e+00 3.8000000e+01 
7.5000000e-01 3.0000000e+00 3.8500000e+01 
7.5000000e-01 3.0000000e+00 3.9000000e+01 
7.5000000e-01 3.0000000e+00 3.9500000e+01 
7.5000000e-01 3.0000000e+00 4.0000000e+01 
7.5000000e-01 3.0000000e+00 4.0500000e+01 
7.5000000e-01 3.0000000e+00 4.1000000e+01 
7.5000000e-01 3.0000000e+00 4.1500000e+01 
7.5000000e-01 3.0000000e+00 4.2000000e+01 
7.5000000e-01 3.0000000e+00 4.2500000e+01 
7.5000000e-01 3.0000000e+00 4.3000000e+01 
7.5000000e-01 3.0000000e+00 4.3500000e+01 
7.5000000e-01 3.0000000e+00 4.4000000e+01 
7.5000000e-01 3.0000000e+00 4.4500000e+01 
7.5000000e-01 3.0000000e+00 4.5000000e+01 
7.5000000e-01 3.0000000e+00 4.5500000e+01 
7.5000000e-01 3.0000000e+00 4.6000000e+01 
7.5000000e-01 3.0000000e+00 4.6500000e+01 
7.5000000e-01 3.0000000e+00 4.7000000e+01 
7.5000000e-01 3.0000000e+00 4.7500000e+01 
7.5000000e-01 3.0000000e+00 4.8000000e+01 
7.5000000e-01 3.0000000e+00 4.8500000e+01 
7.5000000e-01 3.0000000e+00 4.9000000e+01 
7.5000000e-01 3.0000000e+00 4.9500000e+01 
7.5000000e-01 3.0250001e+00 0.0000000e+00 
7.5000000e-01 3.0250001e+00 5.0000000e-01 
7.5000000e-01 3.0250001e+00 1.0000000e+00 
7.5000000e-01 3.0250001e+00 1.5000000e+00 
7.5000000e-01 3.0250001e+00 2.0000000e+00 
7.5000000e-01 3.0250001e+00 2.5000000e+00 
7.5000000e-01 3.0250001e+00 3.0000000e+00 
7.5000000e-01 3.0250001e+00 3.5000000e+00 
7.5000000e-01 3.0250001e+00 4.0000000e+00 
7.5000000e-01 3.0250001e+00 4.5000000e+00 
7.5000000e-01 3.0250001e+00 5.0000000e+00 
7.5000000e-01 3.0250001e+00 5.5000000e+00 
7.5000000e-01 3.0250001e+00 6.0000000e+00 
7.5000000e-01 3.0250001e+00 6.5000000e+00 
7.5000000e-01 3.0250001e+00 7.0000000e+00 
7.5000000e-01 3.0250001e+00 7.5000000e+00 
7.5000000e-01 3.0250001e+00 8.0000000e+00 
7.5000000e-01 3.0250001e+00 8.5000000e+00 
7.5000000e-01 3.0250001e+00 9.0000000e+00 
7.5000000e-01 3.0250001e+00 9.5000000e+00 
7.5000000e-01 3.0250001e+00 1.0000000e+01 
7.5000000e-01 3.0250001e+00 1.0500000e+01 
7.5000000e-01 3.0250001e+00 1.1000000e+01 
7.5000000e-01 3.0250001e+00 1.1500000e+01 
7.5000000e-01 3.0250001e+00 1.2000000e+01 
7.5000000e-01 3.0250001e+00 1.2500000e+01 
7.5000000e-01 3.0250001e+00 1.3000000e+01 
7.5000000e-01 3.0250001e+00 1.3500000e+01 
7.5000000e-01 3.0250001e+00 1.4000000e+01 
7.5000000e-01 3.0250001e+00 1.4500000e+01 
7.5000000e-01 3.0250001e+00 1.5000000e+01 
7.5000000e-01 3.0250001e+00 1.5500000e+01 
7.5000000e-01 3.0250001e+00 1.6000000e+01 
7.5000000e-01 3.0250001e+00 1.6500000e+01 
7.5000000e-01 3.0250001e+00 1.7000000e+01 
7.5000000e-01 3.0250001e+00 1.7500000e+01 
7.5000000e-01 3.0250001e+00 1.8000000e+01 
7.5000000e-01 3.0250001e+00 1.8500000e+01 
7.5000000e-01 3.0250001e+00 1.9000000e+01 
7.5000000e-01 3.0250001e+00 1.9500000e+01 
7.5000000e-01 3.0250001e+00 2.0000000e+01 
7.5000000e-01 3.0250001e+00 2.0500000e+01 
7.5000000e-01 3.0250001e+00 2.1000000e+01 
7.5000000e-01 3.0250001e+00 2.1500000e+01 
7.5000000e-01 3.0250001e+00 2.2000000e+01 
7.5000000e-01 3.0250001e+00 2.2500000e+01 
7.5000000e-01 3.0250001e+00 2.3000000e+01 
7.5000000e-01 3.0250001e+00 2.3500000e+01 
7.5000000e-01 3.0250001e+00 2.4000000e+01 
7.5000000e-01 3.0250001e+00 2.4500000e+01 
7.5000000e-01 3.0250001e+00 2.5000000e+01 
7.5000000e-01 3.0250001e+00 2.5500000e+01 
7.5000000e-01 3.0250001e+00 2.6000000e+01 
7.5000000e-01 3.0250001e+00 2.6500000e+01 
7.5000000e-01 3.0250001e+00 2.7000000e+01 
7.5000000e-01 3.0250001e+00 2.7500000e+01 
7.5000000e-01 3.0250001e+00 2.8000000e+01 
7.5000000e-01 3.0250001e+00 2.8500000e+01 
7.5000000e-01 3.0250001e+00 2.9000000e+01 
7.5000000e-01 3.0250001e+00 2.9500000e+01 
7.5000000e-01 3.0250001e+00 3.0000000e+01 
7.5000000e-01 3.0250001e+00 3.0500000e+01 
7.5000000e-01 3.0250001e+00 3.1000000e+01 
7.5000000e-01 3.0250001e+00 3.1500000e+01 
7.5000000e-01 3.0250001e+00 3.2000000e+01 
7.5000000e-01 3.0250001e+00 3.2500000e+01 
7.5000000e-01 3.0250001e+00 3.3000000e+01 
7.5000000e-01 3.0250001e+00 3.3500000e+01 
7.5000000e-01 3.0250001e+00 3.4000000e+01 
7.5000000e-01 3.0250001e+00 3.4500000e+01 
7.5000000e-01 3.0250001e+00 3.5000000e+01 
7.5000000e-01 3.0250001e+00 3.5500000e+01 
7.5000000e-01 3.0250001e+00 3.6000000e+01 
7.5000000e-01 3.0250001e+00 3.6500000e+01 
7.5000000e-01 3.0250001e+00 3.7000000e+01 
7.5000000e-01 3.0250001e+00 3.7500000e+01 
7.5000000e-01 3.0250001e+00 3.8000000e+01 
7.5000000e-01 3.0250001e+00 3.8500000e+01 
7.5000000e-01 3.0250001e+00 3.9000000e+01 
7.5000000e-01 3.0250001e+00 3.9500000e+01 
7.5000000e-01 3.0250001e+00 4.0000000e+01 
7.5000000e-01 3.0250001e+00 4.0500000e+01 
7.5000000e-01 3.0250001e+00 4.1000000e+01 
7.5000000e-01 3.0250001e+00 4.1500000e+01 
7.5000000e-01 3.0250001e+00 4.2000000e+01 
7.5000000e-01 3.0250001e+00 4.2500000e+01 
7.5000000e-01 3.0250001e+00 4.3000000e+01 
7.5000000e-01 3.0250001e+00 4.3500000e+01 
7.5000000e-01 3.0250001e+00 4.4000000e+01 
7.5000000e-01 3.0250001e+00 4.4500000e+01 
7.5000000e-01 3.0250001e+00 4.5000000e+01 
7.5000000e-01 3.0250001e+00 4.5500000e+01 
7.5000000e-01 3.0250001e+00 4.6000000e+01 
7.5000000e-01 3.0250001e+00 4.6500000e+01 
7.5000000e-01 3.0250001e+00 4.7000000e+01 
7.5000000e-01 3.0250001e+00 4.7500000e+01 
7.5000000e-01 3.0250001e+00 4.8000000e+01 
7.5000000e-01 3.0250001e+00 4.8500000e+01 
7.5000000e-01 3.0250001e+00 4.9000000e+01 
7.5000000e-01 3.0250001e+00 4.9500000e+01 
7.5000000e-01 3.0250001e+00 5.0000000e+01 
1.5000000e+00 3.0000000e+00 2.5000000e+01 
3.0000000e+00 2.0000000e+00 2.5000000e+01 
4.0000000e+00 2.0000000e+00 2.5000000e+01 
5.0000000e+00 2.0000000e+00 2.5000000e+01 
0.0000000e+00 3.0000000e+00 2.5000000e+01 
0.0000000e+00 0.0000000e+00 1.0000000e+00 
0.0000000e+00 0.0000000e+00 2.0000000e+00 
0.0000000e+00 0.0000000e+00 3.0000000e+00 
0.0000000e+00 0.0000000e+00 4.0000000e+00 
0.0000000e+00 0.0000000e+00 5.0000000e+00 
[...]
POINT_DATA 1919
FIELD FieldData 3
DISPLACEMENT 3 1919  float
0.0000000e+00 0.0000000e+00 0.0000000e+00 
0.0000000e+00 0.0000000e+00 0.0000000e+00 
0.0000000e+00 0.0000000e+00 0.0000000e+00 
0.0000000e+00 0.0000000e+00 0.0000000e+00 
-1.5573455e-07 5.7437984e-07 2.3967672e-07 
-7.6335334e-07 -3.0746185e-07 2.0091868e-07 
0.0000000e+00 -9.2612385e-07 0.0000000e+00 
0.0000000e+00 -1.2100190e-06 0.0000000e+00 
-8.4278724e-07 7.5618271e-07 1.5419617e-07 
-6.3814252e-07 -9.8475664e-07 1.5085899e-06 
-3.9628853e-07 -6.8603703e-07 1.0563195e-06 
-8.3427437e-07 8.5916082e-07 -2.7031397e-06 
0.0000000e+00 -3.2158171e-06 0.0000000e+00 
0.0000000e+00 -6.3533466e-06 0.0000000e+00 
1.1837521e-06 -5.3099429e-06 -7.2916037e-06 
1.6252392e-06 -9.2692180e-06 7.3788619e-06 
3.8580633e-06 2.0518337e-06 -1.4914940e-06 
3.6353517e-06 -1.5126335e-05 4.2715797e-06 
0.0000000e+00 -5.4971479e-06 0.0000000e+00 
0.0000000e+00 -2.3466891e-05 0.0000000e+00 
3.1797563e-06 2.8441593e-06 -1.9175867e-07 
5.2426044e-06 5.0899043e-06 2.4904321e-06 
8.2638644e-06 8.2837869e-06 6.7844485e-06 
1.0324400e-05 1.2019479e-05 1.1227938e-05 
8.7075268e-06 1.5568272e-05 1.3140346e-05 
9.4627330e-06 1.8350651e-05 1.2419099e-05 
8.0705040e-06 2.0066658e-05 1.1484474e-05 
8.9648265e-06 2.0402960e-05 8.3934374e-06 
8.2216575e-06 1.9486564e-05 8.0788923e-06 
8.4623780e-06 1.7432600e-05 7.3376573e-06 
7.0080537e-06 1.4753047e-05 8.6885057e-06 
6.9902831e-06 1.1791858e-05 6.2069430e-06 
3.3310469e-06 9.1897318e-06 1.7212858e-06 
5.0688018e-06 7.3458737e-06 -5.5377682e-06 
6.3349603e-06 6.7967121e-06 -1.1490955e-05 
1.0280467e-05 7.0766318e-06 -1.3556765e-05 
1.1745210e-05 7.8464554e-06 -1.2954933e-05 
1.2408211e-05 8.3198211e-06 -9.9354920e-06 
1.0872342e-05 8.2699135e-06 -8.9635660e-06 
1.2358002e-05 7.7316618e-06 -8.1667313e-06 
1.1692140e-05 6.8189743e-06 -1.0229289e-05 
1.3112452e-05 5.6266845e-06 -1.1838109e-05 
1.3341974e-05 4.3559985e-06 -1.2597370e-05 
1.2722748e-05 3.3396473e-06 -9.9849967e-06 
9.8201772e-06 3.3572564e-06 -7.8011735e-06 
4.2254010e-06 5.2233386e-06 -6.1955980e-06 
-9.7415079e-07 9.8214587e-06 -9.2098062e-06 
-7.4657447e-07 1.7826365e-05 -1.0720843e-05 
1.4770840e-06 2.9841340e-05 -1.2649260e-05 
-9.0497019e-07 4.6095036e-05 -6.1896421e-06 
-2.4312978e-06 6.5786815e-05 1.4622190e-06 
-2.6261059e-06 8.4410465e-05 1.5646543e-05 
-2.3081550e-06 9.1404137e-05 2.9605500e-05 
-6.7980427e-06 6.4906933e-05 5.7441062e-05 
-1.7676275e-05 -3.0749292e-05 9.1778878e-05 
-2.6916150e-05 -2.4017112e-04 1.0473686e-04 
-5.3718173e-05 -6.2349805e-04 1.9660164e-04 
-7.3069830e-05 -1.2374384e-03 1.6473484e-04 
-1.2388204e-04 -2.1247137e-03 2.7899237e-04 
-1.5488405e-04 -3.2333937e-03 1.3746269e-04 
-2.1978655e-04 -4.3810569e-03 2.2307545e-04 
-2.7321797e-04 -5.0552711e-03 6.2356958e-05 
-2.9568133e-04 -4.9063694e-03 1.2530551e-05 
-2.3813972e-04 -4.5620110e-03 6.4815417e-06 
-3.4189507e-04 -4.4723940e-03 1.0191681e-05 
-2.2657294e-04 -4.5861285e-03 -5.9261416e-05 
-2.2401012e-04 -4.4414173e-03 -1.9115102e-04 
-1.0094543e-04 -3.4424050e-03 -1.6292845e-04 
-9.5172712e-05 -2.1907694e-03 -2.1865268e-04 
-3.8246460e-05 -1.1127145e-03 -1.3588832e-04 
-1.2320636e-05 -3.7778044e-04 -1.4765523e-04 
5.3352392e-06 3.6274170e-05 -6.9541049e-05 
1.4868716e-05 2.1133444e-04 -5.4155960e-05 
1.7933686e-05 2.4028399e-04 -2.8369743e-05 
1.6529575e-05 2.0014466e-04 -1.2938037e-05 
1.5088893e-05 1.3798625e-04 -1.4451208e-05 
1.2701566e-05 8.1975042e-05 -7.5917624e-06 
9.4532197e-06 4.0313065e-05 -1.0065726e-05 
5.1234715e-06 1.4292562e-05 -9.1055908e-06 
4.0956870e-06 6.0117219e-07 -1.2829952e-05 
4.6238515e-06 -4.2777847e-06 -1.5799093e-05 
7.5567159e-06 -3.8954081e-06 -1.6825619e-05 
8.2146526e-06 -9.8668727e-07 -1.5484666e-05 
1.0121331e-05 2.7274068e-06 -1.1068833e-05 
8.8901179e-06 6.7672927e-06 -8.0619602e-06 
9.0934673e-06 1.1851278e-05 -6.0385523e-06 
8.2558036e-06 1.9149938e-05 -6.6864955e-06 
3.6207975e-06 2.9655408e-05 -4.2866423e-06 
-6.9206908e-07 4.4258475e-05 -5.0434796e-06 
4.7927091e-07 6.2368657e-05 -1.8358832e-06 
5.7798377e-07 8.2354418e-05 3.3028298e-06 
-4.9422474e-06 9.8464632e-05 1.6533106e-05 
-9.4752504e-06 9.9179771e-05 3.1358606e-05 
-7.9652391e-06 6.1061408e-05 4.8495855e-05 
-2.1862277e-05 -5.2145591e-05 8.5703170e-05 
-6.4095861e-05 -2.9328797e-04 1.6800553e-04 
-6.6537941e-05 -7.2309206e-04 1.9898605e-04 
-8.6044631e-05 -1.3932901e-03 1.6442161e-04 
-1.3589374e-04 -2.3353100e-03 2.8072848e-04 
-1.6429598e-04 -3.4687046e-03 1.3269702e-04 
-2.3751224e-04 -4.5660003e-03 2.1134649e-04 
-2.6143293e-04 -5.0517651e-03 6.8416717e-05 
-2.4460696e-04 -4.7931559e-03 1.5761114e-05 
-2.3806088e-04 -4.4666855e-03 -9.2546843e-06 
-2.0619077e-04 -4.4441107e-03 -1.1678721e-05 
-2.2416482e-04 -4.5512193e-03 -1.0593716e-04 
-2.0641458e-04 -4.2166463e-03 -1.8529865e-04 
-1.6904314e-04 -3.1174873e-03 -1.3822067e-04 
-1.0038593e-04 -1.8992920e-03 -2.3740111e-04 
-7.1799550e-05 -9.0774056e-04 -1.2597976e-04 
-2.2340551e-05 -2.5686889e-04 -1.4330466e-04 
-9.0680496e-06 9.1715017e-05 -7.2661074e-05 
4.2318929e-06 2.2499319e-04 -5.2353502e-05 
5.7013308e-06 2.3137347e-04 -2.9876750e-05 
6.4214196e-06 1.8167330e-04 -1.2478748e-05 
2.1697167e-06 1.1750167e-04 -1.1314120e-05 
2.2641398e-06 6.0396058e-05 -5.2187420e-07 
9.8445264e-07 1.8586210e-05 -4.3894983e-07 
1.0715936e-06 -6.5946310e-06 2.6157422e-06 
0.0000000e+00 2.0673990e-06 0.0000000e+00 
0.0000000e+00 2.8653992e-06 0.0000000e+00 
0.0000000e+00 5.0909584e-06 0.0000000e+00 
0.0000000e+00 8.3089044e-06 0.0000000e+00 
0.0000000e+00 1.2022943e-05 0.0000000e+00 
0.0000000e+00 1.5566635e-05 0.0000000e+00 
0.0000000e+00 1.8364441e-05 0.0000000e+00 
0.0000000e+00 2.0061927e-05 0.0000000e+00 
0.0000000e+00 2.0419455e-05 0.0000000e+00 
0.0000000e+00 1.9483763e-05 0.0000000e+00 
0.0000000e+00 1.7452769e-05 0.0000000e+00 
0.0000000e+00 1.4748655e-05 0.0000000e+00 
0.0000000e+00 1.1808073e-05 0.0000000e+00 
0.0000000e+00 9.1951806e-06 0.0000000e+00 
0.0000000e+00 7.4079180e-06 0.0000000e+00 
0.0000000e+00 6.8070262e-06 0.0000000e+00 
0.0000000e+00 7.1121858e-06 0.0000000e+00 
0.0000000e+00 7.8314633e-06 0.0000000e+00 
0.0000000e+00 8.3161112e-06 0.0000000e+00 
0.0000000e+00 8.2796250e-06 0.0000000e+00 
0.0000000e+00 7.7470431e-06 0.0000000e+00 
0.0000000e+00 6.8293475e-06 0.0000000e+00 
0.0000000e+00 5.6298145e-06 0.0000000e+00 
0.0000000e+00 4.3361583e-06 0.0000000e+00 
0.0000000e+00 3.3377828e-06 0.0000000e+00 
0.0000000e+00 3.3582485e-06 0.0000000e+00 
0.0000000e+00 5.2378077e-06 0.0000000e+00 
0.0000000e+00 9.8311002e-06 0.0000000e+00 
0.0000000e+00 1.7848797e-05 0.0000000e+00 
0.0000000e+00 2.9896566e-05 0.0000000e+00 
0.0000000e+00 4.6278405e-05 0.0000000e+00 
0.0000000e+00 6.6099805e-05 0.0000000e+00 
0.0000000e+00 8.5027670e-05 0.0000000e+00 
0.0000000e+00 9.2152681e-05 0.0000000e+00 
0.0000000e+00 6.5445369e-05 0.0000000e+00 
0.0000000e+00 -2.9891240e-05 0.0000000e+00 
0.0000000e+00 -2.4016568e-04 0.0000000e+00 
0.0000000e+00 -6.2420062e-04 0.0000000e+00 
0.0000000e+00 -1.2420972e-03 0.0000000e+00 
0.0000000e+00 -2.1318193e-03 0.0000000e+00 
0.0000000e+00 -3.2507533e-03 0.0000000e+00 
0.0000000e+00 -4.4011609e-03 0.0000000e+00 
0.0000000e+00 -5.0868597e-03 0.0000000e+00 
0.0000000e+00 -4.9316981e-03 0.0000000e+00 
0.0000000e+00 -4.5872009e-03 0.0000000e+00 
0.0000000e+00 -4.4944915e-03 0.0000000e+00 
0.0000000e+00 -4.6203630e-03 0.0000000e+00 
0.0000000e+00 -4.4613588e-03 0.0000000e+00 
0.0000000e+00 -3.4661505e-03 0.0000000e+00 
0.0000000e+00 -2.2042086e-03 0.0000000e+00 
0.0000000e+00 -1.1218931e-03 0.0000000e+00 
0.0000000e+00 -3.8040584e-04 0.0000000e+00 
0.0000000e+00 3.6198544e-05 0.0000000e+00 
0.0000000e+00 2.1241781e-04 0.0000000e+00 
0.0000000e+00 2.4195800e-04 0.0000000e+00 
0.0000000e+00 2.0118101e-04 0.0000000e+00 
0.0000000e+00 1.3897516e-04 0.0000000e+00 
0.0000000e+00 8.2317143e-05 0.0000000e+00 
0.0000000e+00 4.0517316e-05 0.0000000e+00 
0.0000000e+00 1.4302515e-05 0.0000000e+00 
0.0000000e+00 5.9993664e-07 0.0000000e+00 
0.0000000e+00 -4.3131158e-06 0.0000000e+00 
0.0000000e+00 -3.9397551e-06 0.0000000e+00 
0.0000000e+00 -1.0409337e-06 0.0000000e+00 
0.0000000e+00 2.6754919e-06 0.0000000e+00 
0.0000000e+00 6.7525166e-06 0.0000000e+00 
0.0000000e+00 1.1867014e-05 0.0000000e+00 
0.0000000e+00 1.9168523e-05 0.0000000e+00 
0.0000000e+00 2.9739131e-05 0.0000000e+00 
0.0000000e+00 4.4326043e-05 0.0000000e+00 
0.0000000e+00 6.2584368e-05 0.0000000e+00 
0.0000000e+00 8.2669794e-05 0.0000000e+00 
0.0000000e+00 9.9091179e-05 0.0000000e+00 
0.0000000e+00 9.9898534e-05 0.0000000e+00 
0.0000000e+00 6.1999483e-05 0.0000000e+00 
0.0000000e+00 -5.1668674e-05 0.0000000e+00 
0.0000000e+00 -2.9357430e-04 0.0000000e+00 
0.0000000e+00 -7.2414277e-04 0.0000000e+00 
0.0000000e+00 -1.3988776e-03 0.0000000e+00 
0.0000000e+00 -2.3433722e-03 0.0000000e+00 
0.0000000e+00 -3.4876254e-03 0.0000000e+00 
0.0000000e+00 -4.5873774e-03 0.0000000e+00 
0.0000000e+00 -5.0836410e-03 0.0000000e+00 
0.0000000e+00 -4.8170527e-03 0.0000000e+00 
0.0000000e+00 -4.4944054e-03 0.0000000e+00 
0.0000000e+00 -4.4658813e-03 0.0000000e+00 
0.0000000e+00 -4.5811171e-03 0.0000000e+00 
0.0000000e+00 -4.2402563e-03 0.0000000e+00 
0.0000000e+00 -3.1399960e-03 0.0000000e+00 
0.0000000e+00 -1.9110983e-03 0.0000000e+00 
0.0000000e+00 -9.1487222e-04 0.0000000e+00 
0.0000000e+00 -2.5890238e-04 0.0000000e+00 
0.0000000e+00 9.2078131e-05 0.0000000e+00 
0.0000000e+00 2.2614298e-04 0.0000000e+00 
0.0000000e+00 2.3296681e-04 0.0000000e+00 
0.0000000e+00 1.8273020e-04 0.0000000e+00 
0.0000000e+00 1.1815770e-04 0.0000000e+00 
0.0000000e+00 6.0730734e-05 0.0000000e+00 
0.0000000e+00 1.8630753e-05 0.0000000e+00 
0.0000000e+00 -6.6365787e-06 0.0000000e+00 
0.0000000e+00 -1.5108847e-05 0.0000000e+00 
-1.6756864e-04 -4.1595357e-04 -2.4975918e-04 
2.6909864e-05 -2.5948417e-05 1.7665949e-05 
2.2286578e-05 -7.3287219e-06 1.3912177e-05 
1.5383626e-05 -1.6069590e-06 1.3170595e-05 
0.0000000e+00 -2.4338668e-04 0.0000000e+00 
0.0000000e+00 0.0000000e+00 0.0000000e+00 
0.0000000e+00 0.0000000e+00 0.0000000e+00 
0.0000000e+00 0.0000000e+00 0.0000000e+00 
0.0000000e+00 0.0000000e+00 0.0000000e+00 
0.0000000e+00 0.0000000e+00 0.0000000e+00 
0.0000000e+00 0.0000000e+00 0.0000000e+00 
0.0000000e+00 0.0000000e+00 0.0000000e+00 
0.0000000e+00 0.0000000e+00 0.0000000e+00 
0.0000000e+00 0.0000000e+00 0.0000000e+00 
0.0000000e+00 0.0000000e+00 0.0000000e+00 
0.0000000e+00 0.0000000e+00 0.0000000e+00 
0.0000000e+00 0.0000000e+00 0.0000000e+00 
0.0000000e+00 0.0000000e+00 0.0000000e+00 
0.0000000e+00 0.0000000e+00 0.0000000e+00 
0.0000000e+00 0.0000000e+00 0.0000000e+00 
0.0000000e+00 0.0000000e+00 0.0000000e+00 
0.0000000e+00 0.0000000e+00 0.0000000e+00 
0.0000000e+00 0.0000000e+00 0.0000000e+00 
0.0000000e+00 0.0000000e+00 0.0000000e+00 
0.0000000e+00 0.0000000e+00 0.0000000e+00 
0.0000000e+00 0.0000000e+00 0.0000000e+00 
0.0000000e+00 0.0000000e+00 0.0000000e+00 
0.0000000e+00 0.0000000e+00 0.0000000e+00 
0.0000000e+00 0.0000000e+00 0.0000000e+00 
0.0000000e+00 0.0000000e+00 0.0000000e+00 
0.0000000e+00 0.0000000e+00 0.0000000e+00 
0.0000000e+00 0.0000000e+00 0.0000000e+00 
0.0000000e+00 0.0000000e+00 0.0000000e+00 
0.0000000e+00 0.0000000e+00 0.0000000e+00 
0.0000000e+00 0.0000000e+00 0.0000000e+00 
0.0000000e+00 0.0000000e+00 0.0000000e+00 
0.0000000e+00 0.0000000e+00 0.0000000e+00 
0.0000000e+00 0.0000000e+00 0.0000000e+00 
0.0000000e+00 0.0000000e+00 0.0000000e+00 
0.0000000e+00 0.0000000e+00 0.0000000e+00 
0.0000000e+00 0.0000000e+00 0.0000000e+00 
0.0000000e+00 0.0000000e+00 0.0000000e+00 
0.0000000e+00 0.0000000e+00 0.0000000e+00 
0.0000000e+00 0.0000000e+00 0.0000000e+00 
0.0000000e+00 0.0000000e+00 0.0000000e+00 
0.0000000e+00 0.0000000e+00 0.0000000e+00 
0.0000000e+00 0.0000000e+00 0.0000000e+00 
0.0000000e+00 0.0000000e+00 0.0000000e+00 
0.0000000e+00 0.0000000e+00 0.0000000e+00 
0.0000000e+00 0.0000000e+00 0.0000000e+00 
0.0000000e+00 0.0000000e+00 0.0000000e+00 
0.0000000e+00 0.0000000e+00 0.0000000e+00 
0.0000000e+00 0.0000000e+00 0.0000000e+00 
0.0000000e+00 0.0000000e+00 0.0000000e+00 
0.0000000e+00 0.0000000e+00 0.0000000e+00 
0.0000000e+00 0.0000000e+00 0.0000000e+00 
0.0000000e+00 0.0000000e+00 0.0000000e+00 
0.0000000e+00 0.0000000e+00 0.0000000e+00 
0.0000000e+00 0.0000000e+00 0.0000000e+00 
0.0000000e+00 0.0000000e+00 0.0000000e+00 
0.0000000e+00 0.0000000e+00 0.0000000e+00 
0.0000000e+00 0.0000000e+00 0.0000000e+00 
0.0000000e+00 0.0000000e+00 0.0000000e+00 
0.0000000e+00 0.0000000e+00 0.0000000e+00 
0.0000000e+00 0.0000000e+00 0.0000000e+00 
0.0000000e+00 0.0000000e+00 0.0000000e+00 
0.0000000e+00 0.0000000e+00 0.0000000e+00 
0.0000000e+00 0.0000000e+00 0.0000000e+00 
0.0000000e+00 0.0000000e+00 0.0000000e+00 
0.0000000e+00 0.0000000e+00 0.0000000e+00 
0.0000000e+00 0.0000000e+00 0.0000000e+00 
0.0000000e+00 0.0000000e+00 0.0000000e+00 
0.0000000e+00 0.0000000e+00 0.0000000e+00 
0.0000000e+00 0.0000000e+00 0.0000000e+00 
0.0000000e+00 0.0000000e+00 0.0000000e+00 
0.0000000e+00 0.0000000e+00 0.0000000e+00 
0.0000000e+00 0.0000000e+00 0.0000000e+00 
0.0000000e+00 0.0000000e+00 0.0000000e+00 
0.0000000e+00 0.0000000e+00 0.0000000e+00 
0.0000000e+00 0.0000000e+00 0.0000000e+00 
0.0000000e+00 0.0000000e+00 0.0000000e+00 
0.0000000e+00 0.0000000e+00 0.0000000e+00 
0.0000000e+00 0.0000000e+00 0.0000000e+00 
0.0000000e+00 0.0000000e+00 0.0000000e+00 
0.0000000e+00 0.0000000e+00 0.0000000e+00 
0.0000000e+00 0.0000000e+00 0.0000000e+00 
0.0000000e+00 0.0000000e+00 0.0000000e+00 
0.0000000e+00 0.0000000e+00 0.0000000e+00 
0.0000000e+00 0.0000000e+00 0.0000000e+00 
0.0000000e+00 0.0000000e+00 0.0000000e+00 
0.0000000e+00 0.0000000e+00 0.0000000e+00 
0.0000000e+00 0.0000000e+00 0.0000000e+00 
0.0000000e+00 0.0000000e+00 0.0000000e+00 
0.0000000e+00 0.0000000e+00 0.0000000e+00 
0.0000000e+00 0.0000000e+00 0.0000000e+00 
0.0000000e+00 0.0000000e+00 0.0000000e+00 
0.0000000e+00 0.0000000e+00 0.0000000e+00 
0.0000000e+00 0.0000000e+00 0.0000000e+00 
0.0000000e+00 0.0000000e+00 0.0000000e+00 
0.0000000e+00 0.0000000e+00 0.0000000e+00 
0.0000000e+00 0.0000000e+00 0.0000000e+00 
0.0000000e+00 0.0000000e+00 0.0000000e+00 
0.0000000e+00 0.0000000e+00 0.0000000e+00 
0.0000000e+00 0.0000000e+00 0.0000000e+00 
0.0000000e+00 0.0000000e+00 0.0000000e+00 
0.0000000e+00 0.0000000e+00 0.0000000e+00 
0.0000000e+00 0.0000000e+00 0.0000000e+00 
0.0000000e+00 0.0000000e+00 0.0000000e+00 
0.0000000e+00 0.0000000e+00 0.0000000e+00 
0.0000000e+00 0.0000000e+00 0.0000000e+00 
0.0000000e+00 0.0000000e+00 0.0000000e+00 
-6.0209722e-08 6.5995442e-07 7.4638521e-08 
4.9592688e-07 4.6644300e-07 2.6103262e-07 
1.1707650e-06 3.3005019e-08 6.5801083e-07 
1.4169515e-06 7.6329961e-08 7.3455493e-07 
1.5967349e-06 -1.1218442e-07 7.8228555e-07 
1.5157615e-06 -2.2679086e-07 6.9698120e-07 
1.5919389e-06 -1.2565161e-07 2.9375244e-07 
1.3665933e-06 4.3143083e-07 -3.1768008e-07 
1.3711282e-06 3.7553465e-07 -6.0562439e-07 
1.5985887e-06 2.5030405e-07 2.0251075e-07 
1.3654069e-06 3.2393774e-07 1.0413481e-06 
4.5243422e-07 3.5914584e-07 1.0302168e-06 
-1.6114915e-07 5.7375485e-07 -1.7095817e-07 
-2.5081400e-07 4.7858998e-07 -1.5433565e-06 
6.3947465e-07 2.6535602e-07 -4.1825710e-06 
3.1780589e-06 -7.1869090e-07 -7.3423321e-06 
8.9097239e-06 -3.8660241e-06 -1.0862130e-05 
2.0155510e-05 -7.0776250e-06 -1.4307041e-05 
3.2462780e-05 -1.1148019e-05 -1.2767806e-05 
4.3210126e-05 -1.5107905e-05 -7.8999465e-06 
4.9343176e-05 -1.6803957e-05 -4.0807176e-06 
4.6393947e-05 -1.3090726e-05 5.8664864e-06 
3.9414084e-05 -1.1712998e-05 1.3395214e-05 
3.0605013e-05 -9.9119470e-06 1.6135506e-05 
1.9811787e-05 -4.6853556e-06 1.4325767e-05 
1.0355372e-05 -3.2853268e-06 1.0259951e-05 
5.1802845e-06 -2.5376453e-06 6.5570221e-06 
1.4524737e-06 -4.6287275e-07 2.1984758e-06 
7.7409311e-07 -2.4344489e-08 -7.9381991e-08 
1.6355237e-07 2.8411671e-07 -3.1564048e-07 
-6.3948659e-07 8.3631323e-07 1.7905394e-07 
-9.0430524e-07 1.0939302e-06 1.2625361e-07 
-9.2624134e-07 1.1680747e-06 -1.1523147e-07 
-2.5664698e-07 8.6349564e-07 -1.2548373e-06 
1.1221672e-06 4.0416759e-07 -2.8142690e-06 
5.0438584e-06 -8.5818328e-07 -6.6262137e-06 
1.2950278e-05 -4.6637506e-06 -1.1085598e-05 
2.4328436e-05 -8.9539717e-06 -1.3625267e-05 
3.4376120e-05 -1.2734247e-05 -1.3774835e-05 
4.4156146e-05 -1.7999977e-05 -9.1169177e-06 
4.8931153e-05 -1.6925069e-05 -2.9546582e-06 
4.9470433e-05 -1.6447568e-05 6.8238269e-06 
4.1099967e-05 -1.3210075e-05 1.3063192e-05 
2.8965469e-05 -9.1038410e-06 1.6071406e-05 
1.6232314e-05 -4.5454258e-06 1.4535623e-05 
9.9814615e-06 -2.2629001e-06 1.0060036e-05 
4.2489610e-06 -8.0076040e-07 6.3156695e-06 
9.6782071e-07 1.1936146e-07 2.0916341e-06 
-3.3037227e-07 3.7588620e-07 2.3854696e-07 
0.0000000e+00 -5.5802243e-06 0.0000000e+00 
0.0000000e+00 -8.2577735e-06 0.0000000e+00 
0.0000000e+00 -9.1236752e-06 0.0000000e+00 
0.0000000e+00 -8.5864503e-06 0.0000000e+00 
0.0000000e+00 -7.7760105e-06 0.0000000e+00 
0.0000000e+00 -8.1272674e-06 0.0000000e+00 
0.0000000e+00 -1.0288340e-05 0.0000000e+00 
0.0000000e+00 -1.2027152e-05 0.0000000e+00 
0.0000000e+00 -1.2395166e-05 0.0000000e+00 
0.0000000e+00 -1.2333732e-05 0.0000000e+00 
0.0000000e+00 -1.0409964e-05 0.0000000e+00 
0.0000000e+00 -5.9149934e-06 0.0000000e+00 
0.0000000e+00 -3.2180608e-06 0.0000000e+00 
0.0000000e+00 1.2243008e-06 0.0000000e+00 
0.0000000e+00 4.4572553e-06 0.0000000e+00 
0.0000000e+00 4.6026876e-06 0.0000000e+00 
0.0000000e+00 -1.3503063e-05 0.0000000e+00 
0.0000000e+00 -6.8630608e-05 0.0000000e+00 
0.0000000e+00 -2.1415386e-04 0.0000000e+00 
0.0000000e+00 -4.1101652e-04 0.0000000e+00 
0.0000000e+00 -5.3693925e-04 0.0000000e+00 
0.0000000e+00 -5.6511303e-04 0.0000000e+00 
0.0000000e+00 -5.3886621e-04 0.0000000e+00 
0.0000000e+00 -3.7251439e-04 0.0000000e+00 
0.0000000e+00 -1.4462871e-04 0.0000000e+00 
0.0000000e+00 -1.6949627e-05 0.0000000e+00 
0.0000000e+00 1.8662473e-05 0.0000000e+00 
0.0000000e+00 1.5470938e-05 0.0000000e+00 
0.0000000e+00 3.4835637e-06 0.0000000e+00 
0.0000000e+00 -7.5860585e-06 0.0000000e+00 
0.0000000e+00 -1.0292473e-05 0.0000000e+00 
0.0000000e+00 -9.5781834e-06 0.0000000e+00 
0.0000000e+00 -8.6452055e-06 0.0000000e+00 
0.0000000e+00 -5.6735607e-06 0.0000000e+00 
0.0000000e+00 1.0167442e-06 0.0000000e+00 
0.0000000e+00 4.7468939e-06 0.0000000e+00 
0.0000000e+00 -1.2416504e-05 0.0000000e+00 
0.0000000e+00 -7.7568002e-05 0.0000000e+00 
0.0000000e+00 -2.3238950e-04 0.0000000e+00 
0.0000000e+00 -3.9783659e-04 0.0000000e+00 
0.0000000e+00 -5.3119706e-04 0.0000000e+00 
0.0000000e+00 -5.3973775e-04 0.0000000e+00 
0.0000000e+00 -4.7146855e-04 0.0000000e+00 
0.0000000e+00 -3.1180447e-04 0.0000000e+00 
0.0000000e+00 -1.3591826e-04 0.0000000e+00 
0.0000000e+00 -2.0872340e-05 0.0000000e+00 
0.0000000e+00 1.6932172e-05 0.0000000e+00 
0.0000000e+00 1.4481231e-05 0.0000000e+00 
0.0000000e+00 5.8262071e-06 0.0000000e+00 
-3.0745622e-07 6.3114037e-08 2.1510745e-07 
-2.3801778e-07 -4.4084338e-08 8.8472046e-07 
5.9244860e-07 5.8736481e-07 2.0985178e-06 
1.3506989e-06 -3.9524696e-07 2.3680195e-06 
-1.2570082e-06 2.6664631e-07 -9.1605301e-07 
-1.2248123e-06 9.7046097e-07 -2.8496984e-06 
-3.3660990e-07 1.9876584e-06 -4.4329804e-06 
8.4956224e-07 6.9994041e-07 -4.4024328e-06 
-9.7601901e-07 -1.1811723e-07 8.3564316e-07 
-1.1329745e-06 -3.4464488e-08 -6.3649458e-07 
7.9001387e-07 -1.9132119e-06 4.3774694e-06 
3.1834128e-07 -4.6365710e-07 2.4390458e-06 
0.0000000e+00 -8.8685183e-06 0.0000000e+00 
0.0000000e+00 -1.1677015e-05 0.0000000e+00 
0.0000000e+00 -1.3886514e-05 0.0000000e+00 
0.0000000e+00 -1.2556804e-05 0.0000000e+00 
0.0000000e+00 -1.1214766e-05 0.0000000e+00 
0.0000000e+00 -1.2716895e-05 0.0000000e+00 
0.0000000e+00 -1.7650951e-05 0.0000000e+00 
0.0000000e+00 -2.0353677e-05 0.0000000e+00 
0.0000000e+00 -2.0790549e-05 0.0000000e+00 
0.0000000e+00 -2.0616370e-05 0.0000000e+00 
0.0000000e+00 -1.6941340e-05 0.0000000e+00 
0.0000000e+00 -9.6198437e-06 0.0000000e+00 
0.0000000e+00 -3.6781412e-06 0.0000000e+00 
0.0000000e+00 3.3239398e-06 0.0000000e+00 