# vtk DataFile Version 4.0
vtk output
ASCII
DATASET UNSTRUCTURED_GRID
POINTS 1919 float
0.0000000e+00 0.0000000e+00 0.0000000e+00 
0.0000000e+00 0.0000000e+00 5.0000000e+01 
5.0000000e+00 0.0000000e+00 0.0000000e+00 
5.0000000e+00 0.0000000e+00 5.0000000e+01 
5.0000000e+00 1.0000000e+00 0.0000000e+00 
5.0000000e+00 1.0000000e+00 5.0000000e+01 
0.0000000e+00 1.0000000e+00 0.0000000e+00 
0.0000000e+00 1.0000000e+00 5.0000000e+01 
5.0000000e+00 2.0000000e+00 0.0000000e+00 
5.0000000e+00 2.0000000e+00 5.0000000e+01 
3.0000000e+00 2.0000000e+00 0.0000000e+00 
3.0000000e+00 2.0000000e+00 5.0000000e+01 
0.0000000e+00 2.0000000e+00 0.0000000e+00 
0.0000000e+00 2.0000000e+00 5.0000000e+01 
1.5000000e+00 3.0000000e+00 0.0000000e+00 
1.5000000e+00 3.0000000e+00 5.0000000e+01 
7.5000000e-01 3.0000000e+00 0.0000000e+00 
7.5000000e-01 3.0000000e+00 5.0000000e+01 
0.0000000e+00 3.0000000e+00 0.0000000e+00 
0.0000000e+00 3.0000000e+00 5.0000000e+01 
7.5000000e-01 3.0000000e+00 5.0000000e-01 
7.5000000e-01 3.0000000e+00 1.0000000e+00 
7.5000000e-01 3.0000000e+00 1.5000000e+00 
7.5000000e-01 3.0000000e+00 2.0000000e+00 
7.5000000e-01 3.0000000e+00 2.5000000e+00 
7.5000000e-01 3.0000000e+00 3.0000000e+00 
7.5000000e-01 3.0000000e+00 3.5000000e+00 
7.5000000e-01 3.0000000e+00 4.0000000e+00 
7.5000000e-01 3.0000000e+00 4.5000000e+00 
7.5000000e-01 3.0000000e+00 5.0000000e+00 
7.5000000e-01 3.0000000e+00 5.5000000e+00 
7.5000000e-01 3.0000000e+00 6.0000000e+00 
7.5000000e-01 3.0000000e+00 6.5000000e+00 
7.5000000e-01 3.0000000e+00 7.0000000e+00 
7.5000000e-01 3.0000000e+00 7.5000000e+00 
7.5000000e-01 3.0000000e+00 8.0000000e+00 
7.5000000e-01 3.0000000e+00 8.5000000e+00 
7.5000000e-01 3.0000000e+00 9.0000000e+00 
7.5000000e-01 3.0000000e+00 9.5000000e+00 
7.5000000e-01 3.0000000e+00 1.0000000e+01 
7.5000000e-01 3.0000000e+00 1.0500000e+01 
7.5000000e-01 3.0000000e+00 1.1000000e+01 
7.5000000e-01 3.0000000e+00 1.1500000e+01 
7.5000000e-01 3.0000000e+00 1.2000000e+01 
7.5000000e-01 3.0000000e+00 1.2500000e+01 
7.5000000e-01 3.0000000e+00 1.3000000e+01 
7.5000000e-01 3.0000000e+00 1.3500000e+01 
7.5000000e-01 3.0000000e+00 1.4000000e+01 
7.5000000e-01 3.0000000e+00 1.4500000e+01 
7.5000000e-01 3.0000000e+00 1.5000000e+01 
7.5000000e-01 3.0000000e+00 1.5500000e+01 
7.5000000e-01 3.0000000e+00 1.6000000e+01 
7.5000000e-01 3.0000000e+00 1.6500000e+01 
7.5000000e-01 3.0000000e+00 1.7000000e+01 
7.5000000e-01 3.0000000e+00 1.7500000e+01 
7.5000000e-01 3.0000000e+00 1.8000000e+01 
7.5000000e-01 3.0000000e+00 1.8500000e+01 
7.5000000e-01 3.0000000e+00 1.9000000e+01 
7.5000000e-01 3.0000000e+00 1.9500000e+01 
7.5000000e-01 3.0000000e+00 2.0000000e+01 
7.5000000e-01 3.0000000e+00 2.0500000e+01 
7.5000000e-01 3.0000000e+00 2.1000000e+01 
7.5000000e-01 3.0000000e+00 2.1500000e+01 
7.5000000e-01 3.0000000e+00 2.2000000e+01 
7.5000000e-01 3.0000000e+00 2.2500000e+01 
7.5000000e-01 3.0000000e+00 2.3000000e+01 
7.5000000e-01 3.0000000e+00 2.3500000e+01 
7.5000000e-01 3.0000000e+00 2.4000000e+01 
7.5000000e-01 3.0000000e+00 2.4500000e+01 
7.5000000e-01 3.0000000e+00 2.5000000e+01 
7.5000000e-01 3.0000000e+00 2.5500000e+01 
7.5000000e-01 3.0000000e+00 2.6000000e+01 
7.5000000e-01 3.0000000e+00 2.6500000e+01 
7.5000000e-01 3.0000000e+00 2.7000000e+01 
7.5000000e-01 3.0000000e+00 2.7500000e+01 
7.5000000e-01 3.0000000e+00 2.8000000e+01 
7.5000000e-01 3.0000000e+00 2.8500000e+01 
7.5000000e-01 3.0000000e+00 2.9000000e+01 
7.5000000e-01 3.0000000e+00 2.9500000e+01 
7.5000000e-01 3.0000000e+00 3.0000000e+01 
7.5000000e-01 3.0000000e+00 3.0500000e+01 
7.5000000e-01 3.0000000e+00 3.1000000e+01 
7.5000000e-01 3.0000000e+00 3.1500000e+01 
7.5000000e-01 3.0000000e+00 3.2000000e+01 
7.5000000e-01 3.0000000e+00 3.2500000e+01 
7.5000000e-01 3.0000000e+00 3.3000000e+01 
7.5000000e-01 3.0000000e+00 3.3500000e+01 
7.5000000e-01 3.0000000e+00 3.4000000e+01 
7.5000000e-01 3.0000000e+00 3.4500000e+01 
7.5000000e-01 3.0000000e+00 3.5000000e+01 
7.5000000e-01 3.0000000e+00 3.5500000e+01 
7.5000000e-01 3.0000000e+00 3.6000000e+01 
7.5000000e-01 3.0000000e+00 3.6500000e+01 
7.5000000e-01 3.0000000e+00 3.7000000e+01 
7.5000000e-01 3.0000000e+00 3.7500000e+01 
7.5000000e-01 3.0000000e+00 3.8000000e+01 
7.5000000e-01 3.0000000e+00 3.8500000e+01 
7.5000000e-01 3.0000000e+00 3.9000000e+01 
7.5000000e-01 3.0000000e+00 3.9500000e+01 
7.5000000e-01 3.0000000e+00 4.0000000e+01 
7.5000000e-01 3.0000000e+00 4.0500000e+01 
7.5000000e-01 3.0000000e+00 4.1000000e+01 
7.5000000e-01 3.0000000e+00 4.1500000e+01 
7.5000000e-01 3.0000000e+00 4.2000000e+01 
7.5000000e-01 3.0000000e+00 4.2500000e+01 
7.5000000e-01 3.0000000e+00 4.3000000e+01 
7.5000000e-01 3.0000000e+00 4.3500000e+01 
7.5000000e-01 3.0000000e+00 4.4000000e+01 
7.5000000e-01 3.0000000e+00 4.4500000e+01 
7.5000000e-01 3.0000000e+00 4.5000000e+01 
7.5000000e-01 3.0000000e+00 4.5500000e+01 
7.5000000e-01 3.0000000e+00 4.6000000e+01 
7.5000000e-01 3.0000000e+00 4.6500000e+01 
7.5000000e-01 3.0000000e+00 4.7000000e+01 
7.5000000e-01 3.0000000e+00 4.7500000e+01 
7.5000000e-01 3.0000000e+00 4.8000000e+01 
7.5000000e-01 3.0000000e+00 4.8500000e+01 
7.5000000e-01 3.0000000e+00 4.9000000e+01 
7.5000000e-01 3.0000000e+00 4.9500000e+01 
7.5000000e-01 3.0250001e+00 0.0000000e+00 
7.5000000e-01 3.0250001e+00 5.0000000e-01 
7.5000000e-01 3.0250001e+00 1.0000000e+00 
7.5000000e-01 3.0250001e+00 1.5000000e+00 
7.5000000e-01 3.0250001e+00 2.0000000e+00 
7.5000000e-01 3.0250001e+00 2.5000000e+00 
7.5000000e-01 3.0250001e+00 3.0000000e+00 
7.5000000e-01 3.0250001e+00 3.5000000e+00 
7.5000000e-01 3.0250001e+00 4.0000000e+00 
7.5000000e-01 3.0250001e+00 4.5000000e+00 
7.5000000e-01 3.0250001e+00 5.0000000e+00 
7.5000000e-01 3.0250001e+00 5.5000000e+00 
7.5000000e-01 3.0250001e+00 6.0000000e+00 
7.5000000e-01 3.0250001e+00 6.5000000e+00 
7.5000000e-01 3.0250001e+00 7.0000000e+00 
7.5000000e-01 3.0250001e+00 7.5000000e+00 
7.5000000e-01 3.0250001e+00 8.0000000e+00 
7.5000000e-01 3.0250001e+00 8.5000000e+00 
7.5000000e-01 3.0250001e+00 9.0000000e+00 
7.5000000e-01 3.0250001e+00 9.5000000e+00 
7.5000000e-01 3.0250001e+00 1.0000000e+01 
7.5000000e-01 3.0250001e+00 1.0500000e+01 
7.5000000e-01 3.0250001e+00 1.1000000e+01 
7.5000000e-01 3.0250001e+00 1.1500000e+01 
7.5000000e-01 3.0250001e+00 1.2000000e+01 
7.5000000e-01 3.0250001e+00 1.2500000e+01 
7.5000000e-01 3.0250001e+00 1.3000000e+01 
7.5000000e-01 3.0250001e+00 1.3500000e+01 
7.5000000e-01 3.0250001e+00 1.4000000e+01 
7.5000000e-01 3.0250001e+00 1.4500000e+01 
7.5000000e-01 3.0250001e+00 1.5000000e+01 
7.5000000e-01 3.0250001e+00 1.5500000e+01 
7.5000000e-01 3.0250001e+00 1.6000000e+01 
7.5000000e-01 3.0250001e+00 1.6500000e+01 
7.5000000e-01 3.0250001e+00 1.7000000e+01 
7.5000000e-01 3.0250001e+00 1.7500000e+01 
7.5000000e-01 3.0250001e+00 1.8000000e+01 
7.5000000e-01 3.0250001e+00 1.8500000e+01 
7.5000000e-01 3.0250001e+00 1.9000000e+01 
7.5000000e-01 3.0250001e+00 1.9500000e+01 
7.5000000e-01 3.0250001e+00 2.0000000e+01 
7.5000000e-01 3.0250001e+00 2.0500000e+01 
7.5000000e-01 3.0250001e+00 2.1000000e+01 
7.5000000e-01 3.0250001e+00 2.1500000e+01 
7.5000000e-01 3.0250001e+00 2.2000000e+01 
7.5000000e-01 3.0250001e+00 2.2500000e+01 
7.5000000e-01 3.0250001e+00 2.3000000e+01 
7.5000000e-01 3.0250001e+00 2.3500000e+01 
7.5000000e-01 3.0250001e+00 2.4000000e+01 
7.5000000e-01 3.0250001e+00 2.4500000e+01 
7.5000000e-01 3.0250001e+00 2.5000000e+01 
7.5000000e-01 3.0250001e+00 2.5500000e+01 
7.5000000e-01 3.0250001e+00 2.6000000e+01 
7.5000000e-01 3.0250001e+00 2.6500000e+01 
7.5000000e-01 3.0250001e+00 2.7000000e+01 
7.5000000e-01 3.0250001e+00 2.7500000e+01 
7.5000000e-01 3.0250001e+00 2.8000000e+01 
7.5000000e-01 3.0250001e+00 2.8500000e+01 
7.5000000e-01 3.0250001e+00 2.9000000e+01 
7.5000000e-01 3.0250001e+00 2.9500000e+01 
7.5000000e-01 3.0250001e+00 3.0000000e+01 
7.5000000e-01 3.0250001e+00 3.0500000e+01 
7.5000000e-01 3.0250001e+00 3.1000000e+01 
7.5000000e-01 3.0250001e+00 3.1500000e+01 
7.5000000e-01 3.0250001e+00 3.2000000e+01 
7.5000000e-01 3.0250001e+00 3.2500000e+01 
7.5000000e-01 3.0250001e+00 3.3000000e+01 
7.5000000e-01 3.0250001e+00 3.3500000e+01 
7.5000000e-01 3.0250001e+00 3.4000000e+01 
7.5000000e-01 3.0250001e+00 3.4500000e+01 
7.5000000e-01 3.0250001e+00 3.5000000e+01 
7.5000000e-01 3.0250001e+00 3.5500000e+01 
7.5000000e-01 3.0250001e+00 3.6000000e+01 
7.5000000e-01 3.0250001e+00 3.6500000e+01 
7.5000000e-01 3.0250001e+00 3.7000000e+01 
7.5000000e-01 3.0250001e+00 3.7500000e+01 
7.5000000e-01 3.0250001e+00 3.8000000e+01 
7.5000000e-01 3.0250001e+00 3.8500000e+01 
7.5000000e-01 3.0250001e+00 3.9000000e+01 
7.5000000e-01 3.0250001e+00 3.9500000e+01 
7.5000000e-01 3.0250001e+00 4.0000000e+01 
7.5000000e-01 3.0250001e+00 4.0500000e+01 
7.5000000e-01 3.0250001e+00 4.1000000e+01 
7.5000000e-01 3.0250001e+00 4.1500000e+01 
7.5000000e-01 3.0250001e+00 4.2000000e+01 
7.5000000e-01 3.0250001e+00 4.2500000e+01 
7.5000000e-01 3.0250001e+00 4.3000000e+01 
7.5000000e-01 3.0250001e+00 4.3500000e+01 
7.5000000e-01 3.0250001e+00 4.4000000e+01 
7.5000000e-01 3.0250001e+00 4.4500000e+01 
7.5000000e-01 3.0250001e+00 4.5000000e+01 
7.5000000e-01 3.0250001e+00 4.5500000e+01 
7.5000000e-01 3.0250001e+00 4.6000000e+01 
7.5000000e-01 3.0250001e+00 4.6500000e+01 
7.5000000e-01 3.0250001e+00 4.7000000e+01 
7.5000000e-01 3.0250001e+00 4.7500000e+01 
7.5000000e-01 3.0250001e+00 4.8000000e+01 
7.5000000e-01 3.0250001e+00 4.8500000e+01 
7.5000000e-01 3.0250001e+00 4.9000000e+01 
7.5000000e-01 3.0250001e+00 4.9500000e+01 
7.5000000e-01 3.0250001e+00 5.0000000e+01 
1.5000000e+00 3.0000000e+00 2.5000000e+01 
3.0000000e+00 2.0000000e+00 2.5000000e+01 
4.0000000e+00 2.0000000e+00 2.5000000e+01 
5.0000000e+00 2.0000000e+00 2.5000000e+01 
0.0000000e+00 3.0000000e+00 2.5000000e+01 
0.0000000e+00 0.0000000e+00 1.0000000e+00 
0.0000000e+00 0.0000000e+00 2.0000000e+00 
0.0000000e+00 0.0000000e+00 3.0000000e+00 
0.0000000e+00 0.0000000e+00 4.0000000e+00 
0.0000000e+00 0.0000000e+00 5.0000000e+00 
[...]
POINT_DATA 1919
FIELD FieldData 3
DISPLACEMENT 3 1919  float
0.0000000e+00 0.0000000e+00 0.0000000e+00 
0.0000000e+00 0.0000000e+00 0.0000000e+00 
0.0000000e+00 0.0000000e+00 0.0000000e+00 
0.0000000e+00 0.0000000e+00 0.0000000e+00 
6.8861664e-06 -7.0298063e-07 -2.7194583e-06 
2.4537971e-07 2.8594009e-08 -3.3313066e-07 
0.0000000e+00 9.2682521e-06 0.0000000e+00 
0.0000000e+00 7.1397630e-09 0.0000000e+00 
2.7696244e-06 3.1054701e-06 -6.1130027e-07 
5.8543117e-07 3.6347018e-08 4.8568512e-07 
7.1752074e-06 -1.2073249e-05 -2.0796848e-05 
-7.4645192e-07 8.8582345e-07 -2.0270838e-07 
0.0000000e+00 8.3382165e-06 0.0000000e+00 
0.0000000e+00 -8.8365759e-09 0.0000000e+00 
1.7779917e-05 -3.9248345e-05 -3.2225755e-05 
6.3288246e-07 -3.1651385e-07 -8.0622516e-07 
7.3129711e-05 -1.0853372e-06 -3.9120856e-05 
3.4095297e-07 3.6717009e-07 1.2672531e-06 
0.0000000e+00 3.5266057e-05 0.0000000e+00 
0.0000000e+00 -8.4727412e-07 0.0000000e+00 
2.1339116e-05 -3.1993682e-07 -4.3513583e-06 
1.1255247e-05 2.1302351e-06 1.2185369e-05 
8.7651470e-06 7.6884944e-06 1.7373273e-05 
1.0086978e-05 1.6028514e-05 2.7553184e-05 
9.1781449e-06 2.2711740e-05 2.0585516e-05 
8.7978142e-06 2.1882530e-05 2.0453263e-05 
-1.1835683e-05 1.5268559e-05 1.7985865e-05 
-1.6710619e-05 1.0468118e-05 1.6592712e-05 
-2.1181950e-05 1.5828315e-05 1.0691220e-05 
-2.1949669e-05 3.0025250e-05 6.5395507e-06 
-2.1164438e-05 4.5884950e-05 3.4789546e-06 
-2.7494798e-05 5.1436105e-05 -3.3268229e-06 
-1.3209638e-05 4.6727549e-05 -6.4654178e-06 
-2.0832978e-05 4.0949042e-05 -1.3825249e-05 
-1.6529195e-05 5.2273554e-05 -1.4924976e-05 
-7.7214036e-06 8.7381530e-05 -5.5400515e-06 
-1.3784205e-05 1.2386817e-04 1.1617460e-05 
-8.7442031e-06 1.0568159e-04 1.8061924e-05 
-1.0682692e-05 -1.7878505e-05 4.8017155e-05 
-4.5635488e-06 -2.8483279e-04 7.1282862e-05 
-2.4002838e-05 -7.1633363e-04 1.5766051e-04 
-5.4403979e-05 -1.3290854e-03 1.3318275e-04 
-1.0107653e-04 -2.1683050e-03 2.7598953e-04 
-1.5152345e-04 -3.2227181e-03 1.5125499e-04 
-1.9279007e-04 -4.3598078e-03 2.4499962e-04 
-1.9858261e-04 -5.0923647e-03 1.3263071e-04 
-2.1233867e-04 -4.9877646e-03 9.8366058e-05 
-2.2732824e-04 -4.5811953e-03 8.4706953e-05 
-2.2718983e-04 -4.4000526e-03 8.4770116e-05 
-2.4721838e-04 -4.4495636e-03 -1.8053226e-05 
-2.4853711e-04 -4.3138526e-03 -1.0480646e-04 
-2.3277674e-04 -3.3969299e-03 -1.0566203e-04 
-1.7874855e-04 -2.1953001e-03 -2.2805725e-04 
-1.5717428e-04 -1.1415555e-03 -3.4637100e-04 
-4.8852646e-05 -3.9699627e-04 -2.3041212e-04 
-9.3453627e-06 1.8582376e-05 -1.7488812e-04 
1.7651038e-05 1.9846691e-04 -1.6673675e-04 
3.2608925e-05 2.4358842e-04 -1.3935857e-04 
5.7155772e-05 2.2458140e-04 -1.0503404e-04 
7.2410090e-05 1.7277869e-04 -8.1964230e-05 
7.2946226e-05 1.0643715e-04 -4.8591610e-05 
5.6799021e-05 4.5765984e-05 -2.2626140e-05 
4.2748838e-05 7.6242918e-06 3.6723181e-06 
2.7604028e-05 -5.1373941e-06 2.5970958e-05 
4.0829841e-06 -4.8376073e-06 4.6005618e-05 
5.6278341e-06 -7.7371296e-06 4.5686309e-05 
-1.7085900e-05 -2.0648795e-05 4.2290994e-05 
-4.8072128e-05 -3.7533740e-05 2.9418075e-05 
-1.9770037e-05 -4.4228618e-05 1.5504949e-05 
-4.5906527e-05 -3.3013777e-05 5.9561080e-06 
-3.5881891e-05 -8.0445980e-06 -7.0388199e-07 
-4.6417044e-05 1.4882815e-05 -3.2693547e-06 
-4.1322011e-05 2.7919346e-05 -3.4095547e-06 
-3.4023116e-05 2.9908560e-05 -1.7765528e-06 
-1.9510127e-05 3.4213917e-05 -1.6269800e-05 
-1.6044087e-05 5.3222946e-05 -2.5291649e-06 
-2.2209344e-05 8.3254534e-05 8.8188153e-06 
-9.0133290e-06 8.9909096e-05 3.8161124e-05 
-1.7892571e-05 5.4354769e-06 8.9530811e-05 
-2.6114501e-06 -2.6342945e-04 9.7205681e-05 
-3.2833814e-05 -7.6743128e-04 1.7105846e-04 
-6.4796601e-05 -1.5010245e-03 1.3593349e-04 
-1.2192259e-04 -2.4478082e-03 2.5676540e-04 
-1.8984983e-04 -3.5218839e-03 1.0374917e-04 
-2.5550558e-04 -4.5521976e-03 2.0327925e-04 
-3.0137665e-04 -5.0932085e-03 8.6397100e-05 
-2.8091751e-04 -4.9604364e-03 -5.9884933e-06 
-2.8262447e-04 -4.6465527e-03 5.3290273e-06 
-2.4209655e-04 -4.5635249e-03 -2.8879317e-06 
-2.2721432e-04 -4.5493105e-03 -4.1101135e-05 
-2.1317694e-04 -4.1790111e-03 -1.1986017e-04 
-1.9375353e-04 -3.1108519e-03 -8.7105080e-05 
-1.4379175e-04 -1.8888565e-03 -2.3398668e-04 
-1.1508410e-04 -9.0010214e-04 -1.6312012e-04 
-6.7363413e-05 -2.6398996e-04 -2.2376614e-04 
-8.7357612e-06 8.3271982e-05 -1.9803655e-04 
4.7590147e-06 2.3097683e-04 -1.0732191e-04 
5.3782596e-06 2.5475508e-04 -8.3331804e-05 
1.2800818e-05 2.0584789e-04 -6.1356455e-05 
1.9861363e-05 1.2655376e-04 -5.9906444e-05 
2.6678510e-05 5.3742799e-05 -3.6072241e-05 
2.6391455e-05 7.1608197e-06 -1.8394769e-05 
2.6043874e-05 -1.3612063e-05 1.4268552e-05 
1.5197284e-05 -2.0925259e-05 2.8318291e-05 
3.8339440e-06 -2.6042802e-05 3.7949339e-05 
-4.2588990e-08 -2.8849387e-05 3.2982534e-05 
-4.8018260e-06 -2.4447805e-05 2.0374679e-05 
-4.8819675e-06 -1.3241700e-05 1.2406816e-05 
-5.6554145e-06 -7.4941863e-07 6.5778599e-06 
-4.4324843e-06 7.0609399e-06 5.6284998e-06 
-4.4586945e-06 8.9503283e-06 4.0644427e-06 
-3.7165828e-06 7.8808116e-06 1.4439870e-06 
-1.8513859e-06 6.9140465e-06 -2.6397973e-07 
-2.1300327e-06 5.8987666e-06 -1.6600666e-06 
-1.7210731e-06 3.2184162e-06 -2.9526745e-06 
-9.1542881e-07 -7.2393249e-07 -4.7767030e-06 
7.3942965e-07 -3.5115554e-06 -3.6884371e-06 
2.6260690e-07 -3.3019626e-06 -3.8794474e-06 
1.9209467e-06 -9.8929911e-07 -1.5949277e-06 
0.0000000e+00 -1.1462014e-06 0.0000000e+00 
0.0000000e+00 -4.2747030e-07 0.0000000e+00 
0.0000000e+00 2.2405864e-06 0.0000000e+00 
0.0000000e+00 8.0106120e-06 0.0000000e+00 
0.0000000e+00 1.6243228e-05 0.0000000e+00 
0.0000000e+00 2.2427665e-05 0.0000000e+00 
0.0000000e+00 2.1501988e-05 0.0000000e+00 
0.0000000e+00 1.5077000e-05 0.0000000e+00 
0.0000000e+00 1.0902843e-05 0.0000000e+00 
0.0000000e+00 1.6281725e-05 0.0000000e+00 
0.0000000e+00 3.0496149e-05 0.0000000e+00 
0.0000000e+00 4.5561770e-05 0.0000000e+00 
0.0000000e+00 5.1102576e-05 0.0000000e+00 
0.0000000e+00 4.6128618e-05 0.0000000e+00 
0.0000000e+00 4.1133761e-05 0.0000000e+00 
0.0000000e+00 5.3588305e-05 0.0000000e+00 
0.0000000e+00 8.9424808e-05 0.0000000e+00 
0.0000000e+00 1.2444248e-04 0.0000000e+00 
0.0000000e+00 1.0557356e-04 0.0000000e+00 
0.0000000e+00 -1.9045036e-05 0.0000000e+00 
0.0000000e+00 -2.8573588e-04 0.0000000e+00 
0.0000000e+00 -7.1542629e-04 0.0000000e+00 
0.0000000e+00 -1.3316253e-03 0.0000000e+00 
0.0000000e+00 -2.1741621e-03 0.0000000e+00 
0.0000000e+00 -3.2409951e-03 0.0000000e+00 
0.0000000e+00 -4.3807859e-03 0.0000000e+00 
0.0000000e+00 -5.1249703e-03 0.0000000e+00 
0.0000000e+00 -5.0103767e-03 0.0000000e+00 
0.0000000e+00 -4.6079559e-03 0.0000000e+00 
0.0000000e+00 -4.4222358e-03 0.0000000e+00 
0.0000000e+00 -4.4800257e-03 0.0000000e+00 
0.0000000e+00 -4.3380354e-03 0.0000000e+00 
0.0000000e+00 -3.4209176e-03 0.0000000e+00 
0.0000000e+00 -2.2097891e-03 0.0000000e+00 
0.0000000e+00 -1.1483146e-03 0.0000000e+00 
0.0000000e+00 -4.0180993e-04 0.0000000e+00 
0.0000000e+00 1.8875067e-05 0.0000000e+00 
0.0000000e+00 2.0032450e-04 0.0000000e+00 
0.0000000e+00 2.4537629e-04 0.0000000e+00 
0.0000000e+00 2.2516047e-04 0.0000000e+00 
0.0000000e+00 1.7288316e-04 0.0000000e+00 
0.0000000e+00 1.0685994e-04 0.0000000e+00 
0.0000000e+00 4.6506138e-05 0.0000000e+00 
0.0000000e+00 8.1861081e-06 0.0000000e+00 
0.0000000e+00 -5.1205370e-06 0.0000000e+00 
0.0000000e+00 -5.1794677e-06 0.0000000e+00 
0.0000000e+00 -8.0205091e-06 0.0000000e+00 
0.0000000e+00 -2.0974019e-05 0.0000000e+00 
0.0000000e+00 -3.7504797e-05 0.0000000e+00 
0.0000000e+00 -4.3928743e-05 0.0000000e+00 
0.0000000e+00 -3.2459495e-05 0.0000000e+00 
0.0000000e+00 -8.0987329e-06 0.0000000e+00 
0.0000000e+00 1.4924577e-05 0.0000000e+00 
0.0000000e+00 2.7306736e-05 0.0000000e+00 
0.0000000e+00 2.9745117e-05 0.0000000e+00 
0.0000000e+00 3.4624805e-05 0.0000000e+00 
0.0000000e+00 5.4419437e-05 0.0000000e+00 
0.0000000e+00 8.5317071e-05 0.0000000e+00 
0.0000000e+00 9.2155358e-05 0.0000000e+00 
0.0000000e+00 4.0643913e-06 0.0000000e+00 
0.0000000e+00 -2.6634824e-04 0.0000000e+00 
0.0000000e+00 -7.6916831e-04 0.0000000e+00 
0.0000000e+00 -1.5053370e-03 0.0000000e+00 
0.0000000e+00 -2.4525204e-03 0.0000000e+00 
0.0000000e+00 -3.5398966e-03 0.0000000e+00 
0.0000000e+00 -4.5739664e-03 0.0000000e+00 
0.0000000e+00 -5.1289271e-03 0.0000000e+00 
0.0000000e+00 -4.9829949e-03 0.0000000e+00 
0.0000000e+00 -4.6756836e-03 0.0000000e+00 
0.0000000e+00 -4.5817168e-03 0.0000000e+00 
0.0000000e+00 -4.5780363e-03 0.0000000e+00 
0.0000000e+00 -4.2031161e-03 0.0000000e+00 
0.0000000e+00 -3.1351373e-03 0.0000000e+00 
0.0000000e+00 -1.9023657e-03 0.0000000e+00 
0.0000000e+00 -9.0812013e-04 0.0000000e+00 
0.0000000e+00 -2.6452029e-04 0.0000000e+00 
0.0000000e+00 8.4192397e-05 0.0000000e+00 
0.0000000e+00 2.3198970e-04 0.0000000e+00 
0.0000000e+00 2.5526038e-04 0.0000000e+00 
0.0000000e+00 2.0646332e-04 0.0000000e+00 
0.0000000e+00 1.2772156e-04 0.0000000e+00 
0.0000000e+00 5.4727119e-05 0.0000000e+00 
0.0000000e+00 7.4776522e-06 0.0000000e+00 
0.0000000e+00 -1.3846916e-05 0.0000000e+00 
0.0000000e+00 -2.1433667e-05 0.0000000e+00 
0.0000000e+00 -2.6142068e-05 0.0000000e+00 
0.0000000e+00 -2.8536762e-05 0.0000000e+00 
0.0000000e+00 -2.4283116e-05 0.0000000e+00 
0.0000000e+00 -1.3334235e-05 0.0000000e+00 
0.0000000e+00 -9.8737553e-07 0.0000000e+00 
0.0000000e+00 6.9307089e-06 0.0000000e+00 
0.0000000e+00 8.9957257e-06 0.0000000e+00 
0.0000000e+00 8.0236969e-06 0.0000000e+00 
0.0000000e+00 6.9530570e-06 0.0000000e+00 
0.0000000e+00 5.7921670e-06 0.0000000e+00 
0.0000000e+00 3.1401780e-06 0.0000000e+00 
0.0000000e+00 -6.7679275e-07 0.0000000e+00 
0.0000000e+00 -3.3830186e-06 0.0000000e+00 
0.0000000e+00 -3.2155090e-06 0.0000000e+00 
0.0000000e+00 -1.0427137e-06 0.0000000e+00 
0.0000000e+00 2.6587531e-07 0.0000000e+00 
-7.9794132e-05 4.4970522e-05 -8.2719171e-06 
2.1098544e-05 1.4909689e-05 -1.1978901e-05 
6.7216506e-06 -7.1827540e-06 -8.7046492e-06 
-7.9312031e-06 5.7422549e-06 -6.9492880e-06 
0.0000000e+00 -5.4185290e-05 0.0000000e+00 
0.0000000e+00 0.0000000e+00 0.0000000e+00 
0.0000000e+00 0.0000000e+00 0.0000000e+00 
0.0000000e+00 0.0000000e+00 0.0000000e+00 
0.0000000e+00 0.0000000e+00 0.0000000e+00 
0.0000000e+00 0.0000000e+00 0.0000000e+00 
0.0000000e+00 0.0000000e+00 0.0000000e+00 
0.0000000e+00 0.0000000e+00 0.0000000e+00 
0.0000000e+00 0.0000000e+00 0.0000000e+00 
0.0000000e+00 0.0000000e+00 0.0000000e+00 
0.0000000e+00 0.0000000e+00 0.0000000e+00 
0.0000000e+00 0.0000000e+00 0.0000000e+00 
0.0000000e+00 0.0000000e+00 0.0000000e+00 
0.0000000e+00 0.0000000e+00 0.0000000e+00 
0.0000000e+00 0.0000000e+00 0.0000000e+00 
0.0000000e+00 0.0000000e+00 0.0000000e+00 
0.0000000e+00 0.0000000e+00 0.0000000e+00 
0.0000000e+00 0.0000000e+00 0.0000000e+00 
0.0000000e+00 0.0000000e+00 0.0000000e+00 
0.0000000e+00 0.0000000e+00 0.0000000e+00 
0.0000000e+00 0.0000000e+00 0.0000000e+00 
0.0000000e+00 0.0000000e+00 0.0000000e+00 
0.0000000e+00 0.0000000e+00 0.0000000e+00 
0.0000000e+00 0.0000000e+00 0.0000000e+00 
0.0000000e+00 0.0000000e+00 0.0000000e+00 
0.0000000e+00 0.0000000e+00 0.0000000e+00 
0.0000000e+00 0.0000000e+00 0.0000000e+00 
0.0000000e+00 0.0000000e+00 0.0000000e+00 
0.0000000e+00 0.0000000e+00 0.0000000e+00 
0.0000000e+00 0.0000000e+00 0.0000000e+00 
0.0000000e+00 0.0000000e+00 0.0000000e+00 
0.0000000e+00 0.0000000e+00 0.0000000e+00 
0.0000000e+00 0.0000000e+00 0.0000000e+00 
0.0000000e+00 0.0000000e+00 0.0000000e+00 
0.0000000e+00 0.0000000e+00 0.0000000e+00 
0.0000000e+00 0.0000000e+00 0.0000000e+00 
0.0000000e+00 0.0000000e+00 0.0000000e+00 
0.0000000e+00 0.0000000e+00 0.0000000e+00 
0.0000000e+00 0.0000000e+00 0.0000000e+00 
0.0000000e+00 0.0000000e+00 0.0000000e+00 
0.0000000e+00 0.0000000e+00 0.0000000e+00 
0.0000000e+00 0.0000000e+00 0.0000000e+00 
0.0000000e+00 0.0000000e+00 0.0000000e+00 
0.0000000e+00 0.0000000e+00 0.0000000e+00 
0.0000000e+00 0.0000000e+00 0.0000000e+00 
0.0000000e+00 0.0000000e+00 0.0000000e+00 
0.0000000e+00 0.0000000e+00 0.0000000e+00 
0.0000000e+00 0.0000000e+00 0.0000000e+00 
0.0000000e+00 0.0000000e+00 0.0000000e+00 
0.0000000e+00 0.0000000e+00 0.0000000e+00 
0.0000000e+00 0.0000000e+00 0.0000000e+00 
0.0000000e+00 0.0000000e+00 0.0000000e+00 
0.0000000e+00 0.0000000e+00 0.0000000e+00 
0.0000000e+00 0.0000000e+00 0.0000000e+00 
0.0000000e+00 0.0000000e+00 0.0000000e+00 
0.0000000e+00 0.0000000e+00 0.0000000e+00 
0.0000000e+00 0.0000000e+00 0.0000000e+00 
0.0000000e+00 0.0000000e+00 0.0000000e+00 
0.0000000e+00 0.0000000e+00 0.0000000e+00 
0.0000000e+00 0.0000000e+00 0.0000000e+00 
0.0000000e+00 0.0000000e+00 0.0000000e+00 
0.0000000e+00 0.0000000e+00 0.0000000e+00 
0.0000000e+00 0.0000000e+00 0.0000000e+00 
0.0000000e+00 0.0000000e+00 0.0000000e+00 
0.0000000e+00 0.0000000e+00 0.0000000e+00 
0.0000000e+00 0.0000000e+00 0.0000000e+00 
0.0000000e+00 0.0000000e+00 0.0000000e+00 
0.0000000e+00 0.0000000e+00 0.0000000e+00 
0.0000000e+00 0.0000000e+00 0.0000000e+00 
0.0000000e+00 0.0000000e+00 0.0000000e+00 
0.0000000e+00 0.0000000e+00 0.0000000e+00 
0.0000000e+00 0.0000000e+00 0.0000000e+00 
0.0000000e+00 0.0000000e+00 0.0000000e+00 
0.0000000e+00 0.0000000e+00 0.0000000e+00 
0.0000000e+00 0.0000000e+00 0.0000000e+00 
0.0000000e+00 0.0000000e+00 0.0000000e+00 
0.0000000e+00 0.0000000e+00 0.0000000e+00 
0.0000000e+00 0.0000000e+00 0.0000000e+00 
0.0000000e+00 0.0000000e+00 0.0000000e+00 
0.0000000e+00 0.0000000e+00 0.0000000e+00 
0.0000000e+00 0.0000000e+00 0.0000000e+00 
0.0000000e+00 0.0000000e+00 0.0000000e+00 
0.0000000e+00 0.0000000e+00 0.0000000e+00 
0.0000000e+00 0.0000000e+00 0.0000000e+00 
0.0000000e+00 0.0000000e+00 0.0000000e+00 
0.0000000e+00 0.0000000e+00 0.0000000e+00 
0.0000000e+00 0.0000000e+00 0.0000000e+00 
0.0000000e+00 0.0000000e+00 0.0000000e+00 
0.0000000e+00 0.0000000e+00 0.0000000e+00 
0.0000000e+00 0.0000000e+00 0.0000000e+00 
0.0000000e+00 0.0000000e+00 0.0000000e+00 
0.0000000e+00 0.0000000e+00 0.0000000e+00 
0.0000000e+00 0.0000000e+00 0.0000000e+00 
0.0000000e+00 0.0000000e+00 0.0000000e+00 
0.0000000e+00 0.0000000e+00 0.0000000e+00 
0.0000000e+00 0.0000000e+00 0.0000000e+00 
0.0000000e+00 0.0000000e+00 0.0000000e+00 
0.0000000e+00 0.0000000e+00 0.0000000e+00 
0.0000000e+00 0.0000000e+00 0.0000000e+00 
0.0000000e+00 0.0000000e+00 0.0000000e+00 
0.0000000e+00 0.0000000e+00 0.0000000e+00 
0.0000000e+00 0.0000000e+00 0.0000000e+00 
0.0000000e+00 0.0000000e+00 0.0000000e+00 
0.0000000e+00 0.0000000e+00 0.0000000e+00 
0.0000000e+00 0.0000000e+00 0.0000000e+00 
0.0000000e+00 0.0000000e+00 0.0000000e+00 
0.0000000e+00 0.0000000e+00 0.0000000e+00 
2.8140705e-06 2.4433177e-07 -5.0761018e-06 
3.9993361e-06 -1.2562832e-06 -8.7025946e-06 
6.0374778e-06 -2.0138214e-06 -7.8838757e-06 
5.3041986e-06 -7.9270274e-07 -3.8254839e-06 
5.1868174e-06 4.4259682e-06 -5.4514499e-06 
2.4750170e-06 -6.0651837e-06 -4.0477225e-06 
1.1202445e-06 -5.6676907e-07 -2.6922769e-06 
5.8898236e-06 5.0394387e-06 -5.8074947e-06 
1.3342156e-05 -9.3180779e-06 -4.4647682e-06 
1.9794637e-05 -4.0986533e-06 -1.1596086e-06 
2.8092680e-05 -3.4646760e-06 -7.6108870e-07 
3.5385161e-05 -1.7764049e-05 8.6100948e-07 
4.7992282e-05 -1.7647173e-05 8.9899031e-06 
4.8324044e-05 -1.8975117e-05 9.0896792e-06 
4.7006484e-05 -1.7743012e-05 1.0054777e-05 
4.3257856e-05 -1.3755654e-05 1.4242404e-05 
3.0091722e-05 -1.2138816e-05 1.0042556e-05 
1.3829575e-05 -4.0886298e-06 8.3086015e-06 
3.3817714e-06 -3.7729254e-07 -1.8073793e-08 
-4.3360426e-08 -3.8285611e-07 -8.8887155e-06 
-1.0135897e-06 4.2168308e-06 -9.9164126e-06 
-2.3990503e-06 3.5181745e-06 -9.4444767e-06 
9.2533423e-07 -1.1449043e-06 -9.8988075e-06 
-5.9076763e-07 1.1687191e-06 -5.1509833e-06 
-3.4457278e-06 2.0251832e-06 -5.4944621e-07 
-8.6966787e-07 -3.5074670e-06 -5.8318278e-06 
2.1138212e-06 -8.2997822e-06 -4.9839132e-06 
5.6562549e-06 -1.4380347e-06 -1.6790581e-07 
1.4450032e-05 -7.0192968e-06 -3.6026959e-06 
1.9985393e-05 -1.0479797e-05 -5.5188320e-07 
3.4447177e-05 -8.5658421e-06 -2.3728117e-06 
4.7076330e-05 -1.7241593e-05 2.3961982e-06 
4.7128364e-05 -1.5837355e-05 2.0045225e-06 
5.1200488e-05 -1.4765834e-05 6.2991876e-06 
4.7563954e-05 -1.8817087e-05 1.0773040e-05 
3.5919027e-05 -1.1454429e-05 1.1760537e-05 
2.0744712e-05 -6.5704894e-06 1.1916521e-05 
6.5271815e-06 -3.9260854e-07 6.9659950e-06 
9.4497136e-07 7.1434968e-08 2.4666504e-06 
-2.0271407e-06 9.2020593e-07 -7.3300487e-07 
-1.8816636e-06 1.3402372e-06 -2.1616052e-06 
-8.3369190e-07 1.1007727e-06 -2.8750953e-06 
1.1700018e-06 -1.5750872e-07 -2.1088977e-06 
7.8705904e-07 3.4640874e-07 8.4043521e-08 
-4.9475716e-07 1.1917688e-06 1.9899044e-06 
-2.7731315e-07 -2.3768327e-07 1.8493147e-06 
-3.3281708e-07 -1.4495092e-06 1.8421745e-06 
4.4979036e-08 -3.2509678e-07 1.2065958e-06 
4.3464129e-07 7.0314690e-07 4.6692131e-07 
0.0000000e+00 -2.8527485e-05 0.0000000e+00 
0.0000000e+00 -4.2986438e-05 0.0000000e+00 
0.0000000e+00 -6.8606729e-05 0.0000000e+00 
0.0000000e+00 -8.6595595e-05 0.0000000e+00 
0.0000000e+00 -6.5864842e-05 0.0000000e+00 
0.0000000e+00 -7.5049691e-05 0.0000000e+00 
0.0000000e+00 -8.8279972e-05 0.0000000e+00 
0.0000000e+00 -5.4879823e-05 0.0000000e+00 
0.0000000e+00 -8.7193584e-05 0.0000000e+00 
0.0000000e+00 -1.6021891e-04 0.0000000e+00 
0.0000000e+00 -2.4881226e-04 0.0000000e+00 
0.0000000e+00 -4.0281651e-04 0.0000000e+00 
0.0000000e+00 -5.2515051e-04 0.0000000e+00 
0.0000000e+00 -5.1207322e-04 0.0000000e+00 
0.0000000e+00 -4.5054266e-04 0.0000000e+00 
0.0000000e+00 -3.2329580e-04 0.0000000e+00 
0.0000000e+00 -1.3574047e-04 0.0000000e+00 
0.0000000e+00 -3.0121160e-05 0.0000000e+00 
0.0000000e+00 3.8193134e-06 0.0000000e+00 
0.0000000e+00 -4.7414569e-06 0.0000000e+00 
0.0000000e+00 -3.0192688e-05 0.0000000e+00 
0.0000000e+00 -3.6668443e-05 0.0000000e+00 
0.0000000e+00 -4.0800864e-05 0.0000000e+00 
0.0000000e+00 -8.2255632e-05 0.0000000e+00 
0.0000000e+00 -4.4750599e-05 0.0000000e+00 
0.0000000e+00 -2.7819990e-05 0.0000000e+00 
0.0000000e+00 -7.3300020e-05 0.0000000e+00 
0.0000000e+00 -5.7481760e-05 0.0000000e+00 
0.0000000e+00 -4.9852664e-05 0.0000000e+00 
0.0000000e+00 -1.9165306e-04 0.0000000e+00 
0.0000000e+00 -2.8534239e-04 0.0000000e+00 
0.0000000e+00 -4.7262336e-04 0.0000000e+00 
0.0000000e+00 -5.2212877e-04 0.0000000e+00 
0.0000000e+00 -4.7928677e-04 0.0000000e+00 
0.0000000e+00 -4.4100243e-04 0.0000000e+00 
0.0000000e+00 -2.8963180e-04 0.0000000e+00 
0.0000000e+00 -1.5952713e-04 0.0000000e+00 
0.0000000e+00 -4.3158849e-05 0.0000000e+00 
0.0000000e+00 1.3067674e-05 0.0000000e+00 
0.0000000e+00 1.6533106e-05 0.0000000e+00 
0.0000000e+00 9.4734087e-06 0.0000000e+00 
0.0000000e+00 1.0624801e-05 0.0000000e+00 
0.0000000e+00 2.9848098e-07 0.0000000e+00 
0.0000000e+00 -7.4482405e-06 0.0000000e+00 
0.0000000e+00 -5.2023011e-06 0.0000000e+00 
0.0000000e+00 5.3743759e-07 0.0000000e+00 
0.0000000e+00 2.5134646e-06 0.0000000e+00 
0.0000000e+00 7.4932450e-07 0.0000000e+00 
0.0000000e+00 -8.3576788e-07 0.0000000e+00 
4.4014746e-06 -4.6638183e-06 -8.0607215e-06 
1.5419679e-06 -8.4733401e-06 -9.4207317e-06 
-4.8365899e-07 -4.2637821e-06 -5.2399946e-06 
-3.6634620e-07 -3.4216596e-06 -2.8159930e-06 
1.9050135e-07 5.5236370e-07 2.4603284e-07 
1.6435557e-08 4.4629044e-07 2.2983581e-07 
2.8609944e-07 3.6938337e-07 -5.9058948e-07 
2.1162313e-07 -4.4689747e-07 -4.6661663e-07 
5.1892584e-06 -5.7691932e-06 -1.2332647e-05 
-6.3136248e-08 6.3424579e-07 2.9086129e-07 
-4.7729459e-06 -3.3684316e-06 4.0743967e-06 
2.3064115e-06 -1.6338658e-05 -2.1149441e-05 
0.0000000e+00 -2.6945059e-05 0.0000000e+00 
0.0000000e+00 -7.8473269e-05 0.0000000e+00 
0.0000000e+00 -1.1547976e-04 0.0000000e+00 
0.0000000e+00 -1.1844117e-04 0.0000000e+00 
0.0000000e+00 -1.1664481e-04 0.0000000e+00 
0.0000000e+00 -1.3920397e-04 0.0000000e+00 
0.0000000e+00 -1.2251970e-04 0.0000000e+00 
0.0000000e+00 -1.0775831e-04 0.0000000e+00 
0.0000000e+00 -1.6606908e-04 0.0000000e+00 
0.0000000e+00 -2.7275839e-04 0.0000000e+00 
0.0000000e+00 -4.9093814e-04 0.0000000e+00 
0.0000000e+00 -9.0920686e-04 0.0000000e+00 
0.0000000e+00 -1.1399986e-03 0.0000000e+00 