# vtk DataFile Version 4.0
vtk output
ASCII
DATASET UNSTRUCTURED_GRID
POINTS 1919 float
0.0000000e+00 0.0000000e+00 0.0000000e+00 
0.0000000e+00 0.0000000e+00 5.0000000e+01 
5.0000000e+00 0.0000000e+00 0.0000000e+00 
5.0000000e+00 0.0000000e+00 5.0000000e+01 
5.0000000e+00 1.0000000e+00 0.0000000e+00 
5.0000000e+00 1.0000000e+00 5.0000000e+01 
0.0000000e+00 1.0000000e+00 0.0000000e+00 
0.0000000e+00 1.0000000e+00 5.0000000e+01 
5.0000000e+00 2.0000000e+00 0.0000000e+00 
5.0000000e+00 2.0000000e+00 5.0000000e+01 
3.0000000e+00 2.0000000e+00 0.0000000e+00 
3.0000000e+00 2.0000000e+00 5.0000000e+01 
0.0000000e+00 2.0000000e+00 0.0000000e+00 
0.0000000e+00 2.0000000e+00 5.0000000e+01 
1.5000000e+00 3.0000000e+00 0.0000000e+00 
1.5000000e+00 3.0000000e+00 5.0000000e+01 
7.5000000e-01 3.0000000e+00 0.0000000e+00 
7.5000000e-01 3.0000000e+00 5.0000000e+01 
0.0000000e+00 3.0000000e+00 0.0000000e+00 
0.0000000e+00 3.0000000e+00 5.0000000e+01 
7.5000000e-01 3.0000000e+00 5.0000000e-01 
7.5000000e-01 3.0000000e+00 1.0000000e+00 
7.5000000e-01 3.0000000e+00 1.5000000e+00 
7.5000000e-01 3.0000000e+00 2.0000000e+00 
7.5000000e-01 3.0000000e+00 2.5000000e+00 
7.5000000e-01 3.0000000e+00 3.0000000e+00 
7.5000000e-01 3.0000000e+00 3.5000000e+00 
7.5000000e-01 3.0000000e+00 4.0000000e+00 
7.5000000e-01 3.0000000e+00 4.5000000e+00 
7.5000000e-01 3.0000000e+00 5.0000000e+00 
7.5000000e-01 3.0000000e+00 5.5000000e+00 
7.5000000e-01 3.0000000e+00 6.0000000e+00 
7.5000000e-01 3.0000000e+00 6.5000000e+00 
7.5000000e-01 3.0000000e+00 7.0000000e+00 
7.5000000e-01 3.0000000e+00 7.5000000e+00 
7.5000000e-01 3.0000000e+00 8.0000000e+00 
7.5000000e-01 3.0000000e+00 8.5000000e+00 
7.5000000e-01 3.0000000e+00 9.0000000e+00 
7.5000000e-01 3.0000000e+00 9.5000000e+00 
7.5000000e-01 3.0000000e+00 1.0000000e+01 
7.5000000e-01 3.0000000e+00 1.0500000e+01 
7.5000000e-01 3.0000000e+00 1.1000000e+01 
7.5000000e-01 3.0000000e+00 1.1500000e+01 
7.5000000e-01 3.0000000e+00 1.2000000e+01 
7.5000000e-01 3.0000000e+00 1.2500000e+01 
7.5000000e-01 3.0000000e+00 1.3000000e+01 
7.5000000e-01 3.0000000e+00 1.3500000e+01 
7.5000000e-01 3.0000000e+00 1.4000000e+01 
7.5000000e-01 3.0000000e+00 1.4500000e+01 
7.5000000e-01 3.0000000e+00 1.5000000e+01 
7.5000000e-01 3.0000000e+00 1.5500000e+01 
7.5000000e-01 3.0000000e+00 1.6000000e+01 
7.5000000e-01 3.0000000e+00 1.6500000e+01 
7.5000000e-01 3.0000000e+00 1.7000000e+01 
7.5000000e-01 3.0000000e+00 1.7500000e+01 
7.5000000e-01 3.0000000e+00 1.8000000e+01 
7.5000000e-01 3.0000000e+00 1.8500000e+01 
7.5000000e-01 3.0000000e+00 1.9000000e+01 
7.5000000e-01 3.0000000e+00 1.9500000e+01 
7.5000000e-01 3.0000000e+00 2.0000000e+01 
7.5000000e-01 3.0000000e+00 2.0500000e+01 
7.5000000e-01 3.0000000e+00 2.1000000e+01 
7.5000000e-01 3.0000000e+00 2.1500000e+01 
7.5000000e-01 3.0000000e+00 2.2000000e+01 
7.5000000e-01 3.0000000e+00 2.2500000e+01 
7.5000000e-01 3.0000000e+00 2.3000000e+01 
7.5000000e-01 3.0000000e+00 2.3500000e+01 
7.5000000e-01 3.0000000e+00 2.4000000e+01 
7.5000000e-01 3.0000000e+00 2.4500000e+01 
7.5000000e-01 3.0000000e+00 2.5000000e+01 
7.5000000e-01 3.0000000e+00 2.5500000e+01 
7.5000000e-01 3.0000000e+00 2.6000000e+01 
7.5000000e-01 3.0000000e+00 2.6500000e+01 
7.5000000e-01 3.0000000e+00 2.7000000e+01 
7.5000000e-01 3.0000000e+00 2.7500000e+01 
7.5000000e-01 3.0000000e+00 2.8000000e+01 
7.5000000e-01 3.0000000e+00 2.8500000e+01 
7.5000000e-01 3.0000000e+00 2.9000000e+01 
7.5000000e-01 3.0000000e+00 2.9500000e+01 
7.5000000e-01 3.0000000e+00 3.0000000e+01 
7.5000000e-01 3.0000000e+00 3.0500000e+01 
7.5000000e-01 3.0000000e+00 3.1000000e+01 
7.5000000e-01 3.0000000e+00 3.1500000e+01 
7.5000000e-01 3.0000000e+00 3.2000000e+01 
7.5000000e-01 3.0000000e+00 3.2500000e+01 
7.5000000e-01 3.0000000e+00 3.3000000e+01 
7.5000000e-01 3.0000000e+00 3.3500000e+01 
7.5000000e-01 3.0000000e+00 3.4000000e+01 
7.5000000e-01 3.0000000e+00 3.4500000e+01 
7.5000000e-01 3.0000000e+00 3.5000000e+01 
7.5000000e-01 3.0000000e+00 3.5500000e+01 
7.5000000e-01 3.0000000e+00 3.6000000e+01 
7.5000000e-01 3.0000000e+00 3.6500000e+01 
7.5000000e-01 3.0000000e+00 3.7000000e+01 
7.5000000e-01 3.0000000e+00 3.7500000e+01 
7.5000000e-01 3.0000000e+00 3.8000000e+01 
7.5000000e-01 3.0000000e+00 3.8500000e+01 
7.5000000e-01 3.0000000e+00 3.9000000e+01 
7.5000000e-01 3.0000000e+00 3.9500000e+01 
7.5000000e-01 3.0000000e+00 4.0000000e+01 
7.5000000e-01 3.0000000e+00 4.0500000e+01 
7.5000000e-01 3.0000000e+00 4.1000000e+01 
7.5000000e-01 3.0000000e+00 4.1500000e+01 
7.5000000e-01 3.0000000e+00 4.2000000e+01 
7.5000000e-01 3.0000000e+00 4.2500000e+01 
7.5000000e-01 3.0000000e+00 4.3000000e+01 
7.5000000e-01 3.0000000e+00 4.3500000e+01 
7.5000000e-01 3.0000000e+00 4.4000000e+01 
7.5000000e-01 3.0000000e+00 4.4500000e+01 
7.5000000e-01 3.0000000e+00 4.5000000e+01 
7.5000000e-01 3.0000000e+00 4.5500000e+01 
7.5000000e-01 3.0000000e+00 4.6000000e+01 
7.5000000e-01 3.0000000e+00 4.6500000e+01 
7.5000000e-01 3.0000000e+00 4.7000000e+01 
7.5000000e-01 3.0000000e+00 4.7500000e+01 
7.5000000e-01 3.0000000e+00 4.8000000e+01 
7.5000000e-01 3.0000000e+00 4.8500000e+01 
7.5000000e-01 3.0000000e+00 4.9000000e+01 
7.5000000e-01 3.0000000e+00 4.9500000e+01 
7.5000000e-01 3.0250001e+00 0.0000000e+00 
7.5000000e-01 3.0250001e+00 5.0000000e-01 
7.5000000e-01 3.0250001e+00 1.0000000e+00 
7.5000000e-01 3.0250001e+00 1.5000000e+00 
7.5000000e-01 3.0250001e+00 2.0000000e+00 
7.5000000e-01 3.0250001e+00 2.5000000e+00 
7.5000000e-01 3.0250001e+00 3.0000000e+00 
7.5000000e-01 3.0250001e+00 3.5000000e+00 
7.5000000e-01 3.0250001e+00 4.0000000e+00 
7.5000000e-01 3.0250001e+00 4.5000000e+00 
7.5000000e-01 3.0250001e+00 5.0000000e+00 
7.5000000e-01 3.0250001e+00 5.5000000e+00 
7.5000000e-01 3.0250001e+00 6.0000000e+00 
7.5000000e-01 3.0250001e+00 6.5000000e+00 
7.5000000e-01 3.0250001e+00 7.0000000e+00 
7.5000000e-01 3.0250001e+00 7.5000000e+00 
7.5000000e-01 3.0250001e+00 8.0000000e+00 
7.5000000e-01 3.0250001e+00 8.5000000e+00 
7.5000000e-01 3.0250001e+00 9.0000000e+00 
7.5000000e-01 3.0250001e+00 9.5000000e+00 
7.5000000e-01 3.0250001e+00 1.0000000e+01 
7.5000000e-01 3.0250001e+00 1.0500000e+01 
7.5000000e-01 3.0250001e+00 1.1000000e+01 
7.5000000e-01 3.0250001e+00 1.1500000e+01 
7.5000000e-01 3.0250001e+00 1.2000000e+01 
7.5000000e-01 3.0250001e+00 1.2500000e+01 
7.5000000e-01 3.0250001e+00 1.3000000e+01 
7.5000000e-01 3.0250001e+00 1.3500000e+01 
7.5000000e-01 3.0250001e+00 1.4000000e+01 
7.5000000e-01 3.0250001e+00 1.4500000e+01 
7.5000000e-01 3.0250001e+00 1.5000000e+01 
7.5000000e-01 3.0250001e+00 1.5500000e+01 
7.5000000e-01 3.0250001e+00 1.6000000e+01 
7.5000000e-01 3.0250001e+00 1.6500000e+01 
7.5000000e-01 3.0250001e+00 1.7000000e+01 
7.5000000e-01 3.0250001e+00 1.7500000e+01 
7.5000000e-01 3.0250001e+00 1.8000000e+01 
7.5000000e-01 3.0250001e+00 1.8500000e+01 
7.5000000e-01 3.0250001e+00 1.9000000e+01 
7.5000000e-01 3.0250001e+00 1.9500000e+01 
7.5000000e-01 3.0250001e+00 2.0000000e+01 
7.5000000e-01 3.0250001e+00 2.0500000e+01 
7.5000000e-01 3.0250001e+00 2.1000000e+01 
7.5000000e-01 3.0250001e+00 2.1500000e+01 
7.5000000e-01 3.0250001e+00 2.2000000e+01 
7.5000000e-01 3.0250001e+00 2.2500000e+01 
7.5000000e-01 3.0250001e+00 2.3000000e+01 
7.5000000e-01 3.0250001e+00 2.3500000e+01 
7.5000000e-01 3.0250001e+00 2.4000000e+01 
7.5000000e-01 3.0250001e+00 2.4500000e+01 
7.5000000e-01 3.0250001e+00 2.5000000e+01 
7.5000000e-01 3.0250001e+00 2.5500000e+01 
7.5000000e-01 3.0250001e+00 2.6000000e+01 
7.5000000e-01 3.0250001e+00 2.6500000e+01 
7.5000000e-01 3.0250001e+00 2.7000000e+01 
7.5000000e-01 3.0250001e+00 2.7500000e+01 
7.5000000e-01 3.0250001e+00 2.8000000e+01 
7.5000000e-01 3.0250001e+00 2.8500000e+01 
7.5000000e-01 3.0250001e+00 2.9000000e+01 
7.5000000e-01 3.0250001e+00 2.9500000e+01 
7.5000000e-01 3.0250001e+00 3.0000000e+01 
7.5000000e-01 3.0250001e+00 3.0500000e+01 
7.5000000e-01 3.0250001e+00 3.1000000e+01 
7.5000000e-01 3.0250001e+00 3.1500000e+01 
7.5000000e-01 3.0250001e+00 3.2000000e+01 
7.5000000e-01 3.0250001e+00 3.2500000e+01 
7.5000000e-01 3.0250001e+00 3.3000000e+01 
7.5000000e-01 3.0250001e+00 3.3500000e+01 
7.5000000e-01 3.0250001e+00 3.4000000e+01 
7.5000000e-01 3.0250001e+00 3.4500000e+01 
7.5000000e-01 3.0250001e+00 3.5000000e+01 
7.5000000e-01 3.0250001e+00 3.5500000e+01 
7.5000000e-01 3.0250001e+00 3.6000000e+01 
7.5000000e-01 3.0250001e+00 3.6500000e+01 
7.5000000e-01 3.0250001e+00 3.7000000e+01 
7.5000000e-01 3.0250001e+00 3.7500000e+01 
7.5000000e-01 3.0250001e+00 3.8000000e+01 
7.5000000e-01 3.0250001e+00 3.8500000e+01 
7.5000000e-01 3.0250001e+00 3.9000000e+01 
7.5000000e-01 3.0250001e+00 3.9500000e+01 
7.5000000e-01 3.0250001e+00 4.0000000e+01 
7.5000000e-01 3.0250001e+00 4.0500000e+01 
7.5000000e-01 3.0250001e+00 4.1000000e+01 
7.5000000e-01 3.0250001e+00 4.1500000e+01 
7.5000000e-01 3.0250001e+00 4.2000000e+01 
7.5000000e-01 3.0250001e+00 4.2500000e+01 
7.5000000e-01 3.0250001e+00 4.3000000e+01 
7.5000000e-01 3.0250001e+00 4.3500000e+01 
7.5000000e-01 3.0250001e+00 4.4000000e+01 
7.5000000e-01 3.0250001e+00 4.4500000e+01 
7.5000000e-01 3.0250001e+00 4.5000000e+01 
7.5000000e-01 3.0250001e+00 4.5500000e+01 
7.5000000e-01 3.0250001e+00 4.6000000e+01 
7.5000000e-01 3.0250001e+00 4.6500000e+01 
7.5000000e-01 3.0250001e+00 4.7000000e+01 
7.5000000e-01 3.0250001e+00 4.7500000e+01 
7.5000000e-01 3.0250001e+00 4.8000000e+01 
7.5000000e-01 3.0250001e+00 4.8500000e+01 
7.5000000e-01 3.0250001e+00 4.9000000e+01 
7.5000000e-01 3.0250001e+00 4.9500000e+01 
7.5000000e-01 3.0250001e+00 5.0000000e+01 
1.5000000e+00 3.0000000e+00 2.5000000e+01 
3.0000000e+00 2.0000000e+00 2.5000000e+01 
4.0000000e+00 2.0000000e+00 2.5000000e+01 
5.0000000e+00 2.0000000e+00 2.5000000e+01 
0.0000000e+00 3.0000000e+00 2.5000000e+01 
0.0000000e+00 0.0000000e+00 1.0000000e+00 
0.0000000e+00 0.0000000e+00 2.0000000e+00 
0.0000000e+00 0.0000000e+00 3.0000000e+00 
0.0000000e+00 0.0000000e+00 4.0000000e+00 
0.0000000e+00 0.0000000e+00 5.0000000e+00 
[...]
POINT_DATA 1919
FIELD FieldData 3
DISPLACEMENT 3 1919  float
0.0000000e+00 0.0000000e+00 0.0000000e+00 
0.0000000e+00 0.0000000e+00 0.0000000e+00 
0.0000000e+00 0.0000000e+00 0.0000000e+00 
0.0000000e+00 0.0000000e+00 0.0000000e+00 
-5.3943527e-06 3.9191023e-06 8.9209670e-06 
1.5940689e-08 3.0578292e-08 1.6522245e-08 
0.0000000e+00 -1.0280915e-05 0.0000000e+00 
0.0000000e+00 -2.6327950e-07 0.0000000e+00 
-5.7398279e-07 6.6618154e-06 4.7415742e-06 
-2.4158328e-07 3.8006445e-07 -3.3384498e-07 
1.2179454e-05 2.9421315e-05 -5.4925249e-06 
1.8586408e-07 5.2881354e-08 5.0979042e-07 
0.0000000e+00 -2.5024952e-05 0.0000000e+00 
0.0000000e+00 -3.5521870e-07 0.0000000e+00 
4.9716477e-06 2.7936405e-05 -2.2920622e-05 
6.0905296e-07 -6.0092322e-07 7.7636787e-07 
-1.7556777e-05 6.9955262e-05 -2.1155483e-05 
-1.5416797e-08 -1.4151981e-06 -2.6787788e-07 
0.0000000e+00 -6.7114561e-05 0.0000000e+00 
0.0000000e+00 6.4562329e-08 0.0000000e+00 
-2.0132387e-05 7.1661416e-05 -2.4700339e-05 
-2.9419123e-05 7.6569253e-05 -6.4626540e-05 
-4.6545803e-05 8.3130210e-05 -1.0586226e-04 
-4.5115765e-05 9.0795016e-05 -1.3435929e-04 
-3.2750111e-05 1.0249336e-04 -1.5679281e-04 
-1.7260394e-05 1.2104440e-04 -1.2489909e-04 
-1.0873950e-05 1.4627862e-04 -1.0983586e-04 
-1.1319173e-05 1.7142855e-04 -9.8488177e-05 
1.5753749e-06 1.8127631e-04 -8.3238847e-05 
-1.5238260e-05 1.5421757e-04 -3.4572338e-05 
-7.4880681e-06 5.8961370e-05 7.3185852e-06 
-7.0095380e-06 -1.4445392e-04 5.9116101e-05 
-3.7033773e-05 -5.1247625e-04 1.6622676e-04 
-8.3269399e-05 -1.1011123e-03 1.3248867e-04 
-1.3832226e-04 -1.9538493e-03 2.8028619e-04 
-2.2218711e-04 -3.0154071e-03 1.7236914e-04 
-2.8900223e-04 -4.1158861e-03 2.9536468e-04 
-2.9261407e-04 -4.7459542e-03 2.1988727e-04 
-3.2526135e-04 -4.5814379e-03 2.0961027e-04 
-3.2850515e-04 -4.2318371e-03 1.8787743e-04 
-3.4229175e-04 -4.1552722e-03 1.6292473e-04 
-3.8581892e-04 -4.2796531e-03 -1.2515072e-05 
-3.2766562e-04 -4.1422280e-03 -1.5561392e-04 
-2.5093692e-04 -3.2128231e-03 -1.4549358e-04 
-1.5149533e-04 -2.0654032e-03 -3.0572817e-04 
-7.5049829e-05 -1.0702467e-03 -1.5527397e-04 
-4.4898956e-05 -3.8805793e-04 -1.9076330e-04 
-2.4277182e-05 -1.5099585e-06 -1.4533447e-04 
9.5032819e-06 1.6311421e-04 -1.5863169e-04 
2.1416841e-05 1.8963940e-04 -1.4212001e-04 
5.0997471e-05 1.5036398e-04 -8.1254468e-05 
5.0461880e-05 9.2214657e-05 -1.6448495e-05 
3.3051307e-05 4.1328422e-05 5.6569519e-05 
1.4398354e-05 8.2360193e-06 7.6732445e-05 
1.1503523e-05 -6.8427980e-06 8.6758715e-05 
-9.4073712e-06 -9.0152853e-06 6.7013803e-05 
-1.3156777e-05 -3.2418768e-06 3.8997710e-05 
-9.5603727e-06 6.0953203e-06 1.0365104e-05 
-1.7475817e-05 1.7694627e-05 -9.4224824e-06 
-2.0007792e-05 3.1198029e-05 -2.2838754e-05 
-2.8545308e-05 4.5057175e-05 -4.1676758e-05 
-4.2766827e-05 5.7141177e-05 -6.6924295e-05 
-4.8148864e-05 6.6172477e-05 -9.8515600e-05 
-1.6414964e-05 7.6061260e-05 -1.0520497e-04 
-3.9946815e-05 9.2945775e-05 -1.2983088e-04 
-3.7538641e-05 1.2001504e-04 -1.1633216e-04 
2.6164502e-05 1.5504465e-04 -9.7360542e-05 
1.4853173e-05 1.8935029e-04 -1.0765759e-04 
4.8624977e-05 2.0748092e-04 -5.8010977e-05 
-2.1084150e-05 1.8397735e-04 -3.7411850e-05 
3.3903714e-05 8.7513610e-05 2.4987461e-05 
-7.1652707e-06 -1.3394722e-04 7.2137336e-05 
-2.0189071e-05 -5.4401130e-04 1.7615875e-04 
-8.5881489e-05 -1.1940943e-03 1.5754011e-04 
-1.5324767e-04 -2.1183763e-03 3.2046175e-04 
-2.3757535e-04 -3.2305189e-03 1.8137584e-04 
-2.9601413e-04 -4.3134736e-03 2.8775129e-04 
-3.6781625e-04 -4.7972286e-03 2.0387155e-04 
-3.7769519e-04 -4.5687407e-03 1.3875247e-04 
-3.5891976e-04 -4.2570755e-03 1.5941217e-04 
-3.5505276e-04 -4.2451718e-03 1.1561137e-04 
-3.7066400e-04 -4.3510818e-03 -1.3797635e-05 
-3.1488918e-04 -4.0474930e-03 -1.9188202e-04 
-2.4763658e-04 -3.0050254e-03 -1.8212618e-04 
-1.4907580e-04 -1.8553198e-03 -3.0840712e-04 
-7.5257980e-05 -9.0987101e-04 -1.6300983e-04 
-4.0594536e-05 -2.9175438e-04 -1.9978313e-04 
-1.3395068e-05 4.2521606e-05 -1.3887571e-04 
2.6474501e-05 1.7267621e-04 -1.5346809e-04 
3.2615520e-05 1.8442402e-04 -1.2060312e-04 
5.3815816e-05 1.4577511e-04 -4.5789071e-05 
4.4317334e-05 9.6026597e-05 -2.9546862e-07 
1.1442695e-05 5.3883075e-05 5.4200777e-05 
-8.2406668e-06 2.5170662e-05 5.5194971e-05 
-1.9310113e-05 9.3779090e-06 4.7858550e-05 
-1.7729217e-05 3.0306203e-06 2.2964656e-05 
-1.1867428e-05 1.9198426e-06 1.0970973e-05 
-6.7598544e-06 2.1720427e-06 -8.1466105e-06 
4.0118294e-07 2.1809394e-06 -8.3401228e-06 
3.8293579e-06 1.1066949e-06 -1.0148614e-05 
2.6868940e-06 -1.8411830e-06 -3.0473248e-06 
6.0629907e-07 -5.2098949e-06 -1.4432743e-07 
3.2178374e-07 -7.6382021e-06 -4.5544061e-07 
-3.5045190e-07 -7.4333630e-06 3.0884953e-06 
-3.5275499e-07 -3.8039723e-06 8.8552827e-07 
-3.1803529e-07 1.2808384e-06 -2.6983187e-07 
-4.8561401e-07 5.3004960e-06 1.1511436e-06 
1.0870920e-08 6.2313220e-06 -1.2565332e-06 
2.4545886e-07 3.6598858e-06 -4.4807098e-07 
1.8828740e-07 -3.5187736e-07 3.6614574e-07 
-2.8459255e-08 -3.3335402e-06 -7.3332023e-07 
-9.9169895e-08 -3.8593912e-06 3.9362627e-07 
-9.7020241e-08 -1.9908957e-06 4.9663089e-07 
-1.6324634e-07 6.2912324e-07 -6.3903332e-07 
-3.5932837e-07 2.3230998e-06 6.7893097e-07 
2.8973895e-07 2.5277241e-06 -2.9975050e-07 
-1.8722577e-07 1.5355142e-06 -1.0773289e-07 
2.7014838e-07 1.0733353e-07 3.6223337e-08 
-1.8097369e-07 -9.9539511e-07 2.9153696e-07 
0.0000000e+00 7.0007416e-05 0.0000000e+00 
0.0000000e+00 7.1780247e-05 0.0000000e+00 
0.0000000e+00 7.6564953e-05 0.0000000e+00 
0.0000000e+00 8.2962360e-05 0.0000000e+00 
0.0000000e+00 9.0766189e-05 0.0000000e+00 
0.0000000e+00 1.0257590e-04 0.0000000e+00 
0.0000000e+00 1.2130140e-04 0.0000000e+00 
0.0000000e+00 1.4662613e-04 0.0000000e+00 
0.0000000e+00 1.7171838e-04 0.0000000e+00 
0.0000000e+00 1.8170418e-04 0.0000000e+00 
0.0000000e+00 1.5462328e-04 0.0000000e+00 
0.0000000e+00 5.9754751e-05 0.0000000e+00 
0.0000000e+00 -1.4444449e-04 0.0000000e+00 
0.0000000e+00 -5.1334046e-04 0.0000000e+00 
0.0000000e+00 -1.1061286e-03 0.0000000e+00 
0.0000000e+00 -1.9603348e-03 0.0000000e+00 
0.0000000e+00 -3.0332366e-03 0.0000000e+00 
0.0000000e+00 -4.1339127e-03 0.0000000e+00 
0.0000000e+00 -4.7765565e-03 0.0000000e+00 
0.0000000e+00 -4.6051494e-03 0.0000000e+00 
0.0000000e+00 -4.2588501e-03 0.0000000e+00 
0.0000000e+00 -4.1761920e-03 0.0000000e+00 
0.0000000e+00 -4.3089273e-03 0.0000000e+00 
0.0000000e+00 -4.1635367e-03 0.0000000e+00 
0.0000000e+00 -3.2375276e-03 0.0000000e+00 
0.0000000e+00 -2.0762358e-03 0.0000000e+00 
0.0000000e+00 -1.0785753e-03 0.0000000e+00 
0.0000000e+00 -3.9062707e-04 0.0000000e+00 
0.0000000e+00 -1.5686023e-06 0.0000000e+00 
0.0000000e+00 1.6398913e-04 0.0000000e+00 
0.0000000e+00 1.9108174e-04 0.0000000e+00 
0.0000000e+00 1.5143948e-04 0.0000000e+00 
0.0000000e+00 9.2917107e-05 0.0000000e+00 
0.0000000e+00 4.1768337e-05 0.0000000e+00 
0.0000000e+00 8.4489420e-06 0.0000000e+00 
0.0000000e+00 -6.8563863e-06 0.0000000e+00 
0.0000000e+00 -9.0010981e-06 0.0000000e+00 
0.0000000e+00 -3.3652773e-06 0.0000000e+00 
0.0000000e+00 6.0451812e-06 0.0000000e+00 
0.0000000e+00 1.7774290e-05 0.0000000e+00 
0.0000000e+00 3.1264026e-05 0.0000000e+00 
0.0000000e+00 4.5058776e-05 0.0000000e+00 
0.0000000e+00 5.6915575e-05 0.0000000e+00 
0.0000000e+00 6.6039443e-05 0.0000000e+00 
0.0000000e+00 7.6149583e-05 0.0000000e+00 
0.0000000e+00 9.3161681e-05 0.0000000e+00 
0.0000000e+00 1.2027688e-04 0.0000000e+00 
0.0000000e+00 1.5532397e-04 0.0000000e+00 
0.0000000e+00 1.8977479e-04 0.0000000e+00 
0.0000000e+00 2.0774396e-04 0.0000000e+00 
0.0000000e+00 1.8506193e-04 0.0000000e+00 
0.0000000e+00 8.8110515e-05 0.0000000e+00 
0.0000000e+00 -1.3451390e-04 0.0000000e+00 
0.0000000e+00 -5.4508308e-04 0.0000000e+00 
0.0000000e+00 -1.2001961e-03 0.0000000e+00 
0.0000000e+00 -2.1257552e-03 0.0000000e+00 
0.0000000e+00 -3.2495554e-03 0.0000000e+00 
0.0000000e+00 -4.3326449e-03 0.0000000e+00 
0.0000000e+00 -4.8295804e-03 0.0000000e+00 
0.0000000e+00 -4.5896475e-03 0.0000000e+00 
0.0000000e+00 -4.2856084e-03 0.0000000e+00 
0.0000000e+00 -4.2645116e-03 0.0000000e+00 
0.0000000e+00 -4.3814606e-03 0.0000000e+00 
0.0000000e+00 -4.0685395e-03 0.0000000e+00 
0.0000000e+00 -3.0279953e-03 0.0000000e+00 
0.0000000e+00 -1.8650324e-03 0.0000000e+00 
0.0000000e+00 -9.1759884e-04 0.0000000e+00 
0.0000000e+00 -2.9327493e-04 0.0000000e+00 
0.0000000e+00 4.2726246e-05 0.0000000e+00 
0.0000000e+00 1.7381016e-04 0.0000000e+00 
0.0000000e+00 1.8596672e-04 0.0000000e+00 
0.0000000e+00 1.4681468e-04 0.0000000e+00 
0.0000000e+00 9.6614916e-05 0.0000000e+00 
0.0000000e+00 5.4157208e-05 0.0000000e+00 
0.0000000e+00 2.5313515e-05 0.0000000e+00 
0.0000000e+00 9.4181305e-06 0.0000000e+00 
0.0000000e+00 3.0195936e-06 0.0000000e+00 
0.0000000e+00 1.8132071e-06 0.0000000e+00 
0.0000000e+00 2.1275132e-06 0.0000000e+00 
0.0000000e+00 2.1717992e-06 0.0000000e+00 
0.0000000e+00 9.9726628e-07 0.0000000e+00 
0.0000000e+00 -1.8221405e-06 0.0000000e+00 
0.0000000e+00 -5.1976963e-06 0.0000000e+00 
0.0000000e+00 -7.5876419e-06 0.0000000e+00 
0.0000000e+00 -7.3080719e-06 0.0000000e+00 
0.0000000e+00 -3.8054895e-06 0.0000000e+00 
0.0000000e+00 1.2201870e-06 0.0000000e+00 
0.0000000e+00 5.2130031e-06 0.0000000e+00 
0.0000000e+00 6.1265582e-06 0.0000000e+00 
0.0000000e+00 3.6754441e-06 0.0000000e+00 
0.0000000e+00 -2.6431300e-07 0.0000000e+00 
0.0000000e+00 -3.2606235e-06 0.0000000e+00 
0.0000000e+00 -3.8116491e-06 0.0000000e+00 
0.0000000e+00 -2.0238572e-06 0.0000000e+00 
0.0000000e+00 5.5285187e-07 0.0000000e+00 
0.0000000e+00 2.2943027e-06 0.0000000e+00 
0.0000000e+00 2.5393149e-06 0.0000000e+00 
0.0000000e+00 1.5635110e-06 0.0000000e+00 
0.0000000e+00 1.3474188e-07 0.0000000e+00 
0.0000000e+00 -1.0008868e-06 0.0000000e+00 
0.0000000e+00 -1.4279236e-06 0.0000000e+00 
1.5603513e-05 -7.9250945e-05 2.6100886e-05 
2.0830090e-05 -1.0029729e-04 -5.0177741e-06 
7.8920406e-05 -3.4215722e-05 -1.3765740e-05 
7.7023287e-05 -1.3277473e-05 -2.2120677e-05 
0.0000000e+00 4.1799794e-04 0.0000000e+00 
0.0000000e+00 0.0000000e+00 0.0000000e+00 
0.0000000e+00 0.0000000e+00 0.0000000e+00 
0.0000000e+00 0.0000000e+00 0.0000000e+00 
0.0000000e+00 0.0000000e+00 0.0000000e+00 
0.0000000e+00 0.0000000e+00 0.0000000e+00 
0.0000000e+00 0.0000000e+00 0.0000000e+00 
0.0000000e+00 0.0000000e+00 0.0000000e+00 
0.0000000e+00 0.0000000e+00 0.0000000e+00 
0.0000000e+00 0.0000000e+00 0.0000000e+00 
0.0000000e+00 0.0000000e+00 0.0000000e+00 
0.0000000e+00 0.0000000e+00 0.0000000e+00 
0.0000000e+00 0.0000000e+00 0.0000000e+00 
0.0000000e+00 0.0000000e+00 0.0000000e+00 
0.0000000e+00 0.0000000e+00 0.0000000e+00 
0.0000000e+00 0.0000000e+00 0.0000000e+00 
0.0000000e+00 0.0000000e+00 0.0000000e+00 
0.0000000e+00 0.0000000e+00 0.0000000e+00 
0.0000000e+00 0.0000000e+00 0.0000000e+00 
0.0000000e+00 0.0000000e+00 0.0000000e+00 
0.0000000e+00 0.0000000e+00 0.0000000e+00 
0.0000000e+00 0.0000000e+00 0.0000000e+00 
0.0000000e+00 0.0000000e+00 0.0000000e+00 
0.0000000e+00 0.0000000e+00 0.0000000e+00 
0.0000000e+00 0.0000000e+00 0.0000000e+00 
0.0000000e+00 0.0000000e+00 0.0000000e+00 
0.0000000e+00 0.0000000e+00 0.0000000e+00 
0.0000000e+00 0.0000000e+00 0.0000000e+00 
0.0000000e+00 0.0000000e+00 0.0000000e+00 
0.0000000e+00 0.0000000e+00 0.0000000e+00 
0.0000000e+00 0.0000000e+00 0.0000000e+00 
0.0000000e+00 0.0000000e+00 0.0000000e+00 
0.0000000e+00 0.0000000e+00 0.0000000e+00 
0.0000000e+00 0.0000000e+00 0.0000000e+00 
0.0000000e+00 0.0000000e+00 0.0000000e+00 
0.0000000e+00 0.0000000e+00 0.0000000e+00 
0.0000000e+00 0.0000000e+00 0.0000000e+00 
0.0000000e+00 0.0000000e+00 0.0000000e+00 
0.0000000e+00 0.0000000e+00 0.0000000e+00 
0.0000000e+00 0.0000000e+00 0.0000000e+00 
0.0000000e+00 0.0000000e+00 0.0000000e+00 
0.0000000e+00 0.0000000e+00 0.0000000e+00 
0.0000000e+00 0.0000000e+00 0.0000000e+00 
0.0000000e+00 0.0000000e+00 0.0000000e+00 
0.0000000e+00 0.0000000e+00 0.0000000e+00 
0.0000000e+00 0.0000000e+00 0.0000000e+00 
0.0000000e+00 0.0000000e+00 0.0000000e+00 
0.0000000e+00 0.0000000e+00 0.0000000e+00 
0.0000000e+00 0.0000000e+00 0.0000000e+00 
0.0000000e+00 0.0000000e+00 0.0000000e+00 
0.0000000e+00 0.0000000e+00 0.0000000e+00 
0.0000000e+00 0.0000000e+00 0.0000000e+00 
0.0000000e+00 0.0000000e+00 0.0000000e+00 
0.0000000e+00 0.0000000e+00 0.0000000e+00 
0.0000000e+00 0.0000000e+00 0.0000000e+00 
0.0000000e+00 0.0000000e+00 0.0000000e+00 
0.0000000e+00 0.0000000e+00 0.0000000e+00 
0.0000000e+00 0.0000000e+00 0.0000000e+00 
0.0000000e+00 0.0000000e+00 0.0000000e+00 
0.0000000e+00 0.0000000e+00 0.0000000e+00 
0.0000000e+00 0.0000000e+00 0.0000000e+00 
0.0000000e+00 0.0000000e+00 0.0000000e+00 
0.0000000e+00 0.0000000e+00 0.0000000e+00 
0.0000000e+00 0.0000000e+00 0.0000000e+00 
0.0000000e+00 0.0000000e+00 0.0000000e+00 
0.0000000e+00 0.0000000e+00 0.0000000e+00 
0.0000000e+00 0.0000000e+00 0.0000000e+00 
0.0000000e+00 0.0000000e+00 0.0000000e+00 
0.0000000e+00 0.0000000e+00 0.0000000e+00 
0.0000000e+00 0.0000000e+00 0.0000000e+00 
0.0000000e+00 0.0000000e+00 0.0000000e+00 
0.0000000e+00 0.0000000e+00 0.0000000e+00 
0.0000000e+00 0.0000000e+00 0.0000000e+00 
0.0000000e+00 0.0000000e+00 0.0000000e+00 
0.0000000e+00 0.0000000e+00 0.0000000e+00 
0.0000000e+00 0.0000000e+00 0.0000000e+00 
0.0000000e+00 0.0000000e+00 0.0000000e+00 
0.0000000e+00 0.0000000e+00 0.0000000e+00 
0.0000000e+00 0.0000000e+00 0.0000000e+00 
0.0000000e+00 0.0000000e+00 0.0000000e+00 
0.0000000e+00 0.0000000e+00 0.0000000e+00 
0.0000000e+00 0.0000000e+00 0.0000000e+00 
0.0000000e+00 0.0000000e+00 0.0000000e+00 
0.0000000e+00 0.0000000e+00 0.0000000e+00 
0.0000000e+00 0.0000000e+00 0.0000000e+00 
0.0000000e+00 0.0000000e+00 0.0000000e+00 
0.0000000e+00 0.0000000e+00 0.0000000e+00 
0.0000000e+00 0.0000000e+00 0.0000000e+00 
0.0000000e+00 0.0000000e+00 0.0000000e+00 
0.0000000e+00 0.0000000e+00 0.0000000e+00 
0.0000000e+00 0.0000000e+00 0.0000000e+00 
0.0000000e+00 0.0000000e+00 0.0000000e+00 
0.0000000e+00 0.0000000e+00 0.0000000e+00 
0.0000000e+00 0.0000000e+00 0.0000000e+00 
0.0000000e+00 0.0000000e+00 0.0000000e+00 
0.0000000e+00 0.0000000e+00 0.0000000e+00 
0.0000000e+00 0.0000000e+00 0.0000000e+00 
0.0000000e+00 0.0000000e+00 0.0000000e+00 
0.0000000e+00 0.0000000e+00 0.0000000e+00 
0.0000000e+00 0.0000000e+00 0.0000000e+00 
0.0000000e+00 0.0000000e+00 0.0000000e+00 
0.0000000e+00 0.0000000e+00 0.0000000e+00 
0.0000000e+00 0.0000000e+00 0.0000000e+00 
0.0000000e+00 0.0000000e+00 0.0000000e+00 
0.0000000e+00 0.0000000e+00 0.0000000e+00 
0.0000000e+00 0.0000000e+00 0.0000000e+00 
0.0000000e+00 0.0000000e+00 0.0000000e+00 
4.8535012e-06 9.5433106e-06 -8.0609914e-07 
1.3971090e-05 7.5793082e-06 -1.4974155e-05 
2.1169288e-05 -1.3909413e-07 -2.3666616e-05 
2.4261666e-05 -9.4259458e-06 -2.3106790e-05 
3.2874697e-05 -1.5261199e-05 -1.9954412e-05 
4.3596865e-05 -2.0516432e-05 -1.5113295e-05 
5.4848540e-05 -2.2697968e-05 -6.0675270e-06 
6.2104060e-05 -2.1295093e-05 7.3670781e-06 
6.5134307e-05 -7.6296219e-06 1.8275146e-05 
6.4284111e-05 1.0156561e-05 2.2621387e-05 
5.2763404e-05 5.2789910e-06 1.4323175e-05 
3.4829085e-05 -2.8256172e-06 -8.8918227e-07 
1.3559132e-05 -3.5335192e-06 -1.4831775e-05 
1.9249235e-06 8.6470135e-07 -2.2608074e-05 
-8.7851440e-06 9.0872339e-07 -1.7550863e-05 
-1.0450889e-05 5.9527281e-07 -2.1397194e-07 
-8.7446751e-06 -6.5590615e-07 1.7802988e-05 
-3.3651588e-06 6.7275782e-06 2.6731555e-05 
-4.3926286e-07 3.8436060e-06 2.5012636e-05 
2.0018051e-06 -4.7554792e-07 1.3115581e-05 
6.5423596e-06 1.3034727e-06 -4.5688768e-07 
1.2634462e-05 9.4525758e-06 -1.7944700e-05 
2.4680125e-05 7.9468491e-06 -2.3569275e-05 
4.0239000e-05 -7.9609663e-06 -2.4170175e-05 
5.1428218e-05 -1.4024104e-05 -1.9472067e-05 
6.3473657e-05 -1.1104262e-05 -9.6792546e-06 
6.2609652e-05 -1.6273718e-05 1.6582193e-06 
6.7747700e-05 -1.7853561e-05 1.2861963e-05 
7.1582661e-05 -1.2793092e-05 2.0695174e-05 
6.4333159e-05 2.8249865e-06 2.3589468e-05 
4.5966710e-05 4.8513962e-06 1.3688586e-05 
2.4765201e-05 -7.9200790e-06 2.7773012e-06 
8.5594329e-06 -9.1459225e-07 -1.3418074e-05 
-7.1768278e-07 1.9553622e-06 -2.1966878e-05 
-8.7166618e-06 -1.4641587e-06 -1.9559544e-05 
-7.8293451e-06 -4.6128213e-07 -7.7335353e-06 
-6.9196852e-07 4.7239610e-06 1.0774729e-06 
2.3725283e-06 1.9040858e-06 8.2554197e-06 
1.7000652e-06 -1.9873564e-06 8.6746850e-06 
8.4088629e-07 -2.5429144e-06 4.9255318e-06 
2.8557594e-07 -1.2206792e-06 -2.3071426e-07 
3.7171830e-07 -8.1319297e-07 -1.0552970e-06 
-2.3612974e-07 1.7647720e-06 -3.2997269e-07 
-3.5528640e-07 6.8452601e-07 2.8663021e-07 
1.2458123e-07 -9.3577023e-07 5.4231543e-07 
1.7152108e-07 -2.5638062e-07 -1.5305226e-08 
-4.6019841e-09 3.3384879e-08 -2.6144647e-07 
-1.3089043e-07 2.5297740e-07 -2.2480322e-07 
4.8885003e-08 -3.7245906e-07 1.0758799e-07 
0.0000000e+00 2.4656696e-05 0.0000000e+00 
0.0000000e+00 9.7122764e-05 0.0000000e+00 
0.0000000e+00 1.6820799e-04 0.0000000e+00 
0.0000000e+00 2.1021030e-04 0.0000000e+00 
0.0000000e+00 2.0006836e-04 0.0000000e+00 
0.0000000e+00 1.6365630e-04 0.0000000e+00 
0.0000000e+00 2.6650636e-05 0.0000000e+00 
0.0000000e+00 -1.4676678e-04 0.0000000e+00 
0.0000000e+00 -2.8921696e-04 0.0000000e+00 
0.0000000e+00 -3.7622391e-04 0.0000000e+00 
0.0000000e+00 -3.9264146e-04 0.0000000e+00 
0.0000000e+00 -3.4654763e-04 0.0000000e+00 
0.0000000e+00 -1.9221382e-04 0.0000000e+00 
0.0000000e+00 -5.9058624e-05 0.0000000e+00 
0.0000000e+00 -5.0884587e-06 0.0000000e+00 
0.0000000e+00 4.5317607e-05 0.0000000e+00 
0.0000000e+00 3.2886936e-05 0.0000000e+00 
0.0000000e+00 -3.0518324e-05 0.0000000e+00 
0.0000000e+00 -3.3993612e-05 0.0000000e+00 
0.0000000e+00 -5.5629416e-06 0.0000000e+00 
0.0000000e+00 4.8127491e-05 0.0000000e+00 
0.0000000e+00 8.8335008e-05 0.0000000e+00 
0.0000000e+00 1.3404866e-04 0.0000000e+00 
0.0000000e+00 1.8920627e-04 0.0000000e+00 
0.0000000e+00 1.8191202e-04 0.0000000e+00 
0.0000000e+00 1.4107044e-04 0.0000000e+00 
0.0000000e+00 1.2790832e-05 0.0000000e+00 
0.0000000e+00 -1.6268580e-04 0.0000000e+00 
0.0000000e+00 -2.6604423e-04 0.0000000e+00 
0.0000000e+00 -3.3575913e-04 0.0000000e+00 
0.0000000e+00 -3.9370501e-04 0.0000000e+00 
0.0000000e+00 -3.0326651e-04 0.0000000e+00 
0.0000000e+00 -1.8409875e-04 0.0000000e+00 
0.0000000e+00 -5.4181219e-05 0.0000000e+00 
0.0000000e+00 -1.1781986e-05 0.0000000e+00 
0.0000000e+00 3.4083067e-05 0.0000000e+00 
0.0000000e+00 3.0327075e-05 0.0000000e+00 
0.0000000e+00 -6.3934715e-07 0.0000000e+00 
0.0000000e+00 -1.2318425e-05 0.0000000e+00 
0.0000000e+00 -6.8323716e-06 0.0000000e+00 
0.0000000e+00 4.1315011e-06 0.0000000e+00 
0.0000000e+00 2.4128092e-06 0.0000000e+00 
0.0000000e+00 -9.6165081e-07 0.0000000e+00 
0.0000000e+00 -2.2263994e-07 0.0000000e+00 
0.0000000e+00 4.4376119e-07 0.0000000e+00 
0.0000000e+00 -1.0994552e-07 0.0000000e+00 
0.0000000e+00 -4.4541409e-07 0.0000000e+00 
0.0000000e+00 8.0439844e-07 0.0000000e+00 
0.0000000e+00 5.0077955e-07 0.0000000e+00 
-3.6234869e-07 1.1021983e-05 1.9777519e-06 
6.3332391e-06 1.6372642e-05 4.7342946e-06 
1.0550671e-05 1.4210114e-05 1.1261102e-05 
5.3624217e-06 1.4892515e-06 7.7896839e-06 
5.2606531e-08 -1.6424679e-07 4.3404544e-08 
-9.3965895e-08 2.6623567e-07 1.4443373e-07 
-9.7512753e-09 2.1023239e-07 -2.4959681e-07 
8.2619735e-08 6.9390005e-09 -7.0405605e-08 
1.0028731e-05 1.9221397e-05 -9.0911090e-06 
2.5148526e-07 -6.3606480e-09 1.2620860e-07 
-9.2028252e-08 1.5076676e-05 -5.3734993e-06 
6.2388449e-06 2.1137776e-05 -7.6352558e-07 
0.0000000e+00 3.3484088e-05 0.0000000e+00 
0.0000000e+00 1.3837281e-04 0.0000000e+00 
0.0000000e+00 2.6854378e-04 0.0000000e+00 
0.0000000e+00 3.6400981e-04 0.0000000e+00 
0.0000000e+00 3.5964057e-04 0.0000000e+00 
0.0000000e+00 2.5556545e-04 0.0000000e+00 
0.0000000e+00 -1.0448941e-05 0.0000000e+00 
0.0000000e+00 -4.0376512e-04 0.0000000e+00 
0.0000000e+00 -6.9919165e-04 0.0000000e+00 
0.0000000e+00 -8.5292471e-04 0.0000000e+00 
0.0000000e+00 -8.9765619e-04 0.0000000e+00 
0.0000000e+00 -7.1721384e-04 0.0000000e+00 
0.0000000e+00 -2.8458142e-04 0.0000000e+00 
0.0000000e+00 -9.8103919e-05 0.0000000e+00 