# vtk DataFile Version 4.0
vtk output
ASCII
DATASET UNSTRUCTURED_GRID
POINTS 1919 float
0.0000000e+00 0.0000000e+00 0.0000000e+00 
0.0000000e+00 0.0000000e+00 5.0000000e+01 
5.0000000e+00 0.0000000e+00 0.0000000e+00 
5.0000000e+00 0.0000000e+00 5.0000000e+01 
5.0000000e+00 1.0000000e+00 0.0000000e+00 
5.0000000e+00 1.0000000e+00 5.0000000e+01 
0.0000000e+00 1.0000000e+00 0.0000000e+00 
0.0000000e+00 1.0000000e+00 5.0000000e+01 
5.0000000e+00 2.0000000e+00 0.0000000e+00 
5.0000000e+00 2.0000000e+00 5.0000000e+01 
3.0000000e+00 2.0000000e+00 0.0000000e+00 
3.0000000e+00 2.0000000e+00 5.0000000e+01 
0.0000000e+00 2.0000000e+00 0.0000000e+00 
0.0000000e+00 2.0000000e+00 5.0000000e+01 
1.5000000e+00 3.0000000e+00 0.0000000e+00 
1.5000000e+00 3.0000000e+00 5.0000000e+01 
7.5000000e-01 3.0000000e+00 0.0000000e+00 
7.5000000e-01 3.0000000e+00 5.0000000e+01 
0.0000000e+00 3.0000000e+00 0.0000000e+00 
0.0000000e+00 3.0000000e+00 5.0000000e+01 
7.5000000e-01 3.0000000e+00 5.0000000e-01 
7.5000000e-01 3.0000000e+00 1.0000000e+00 
7.5000000e-01 3.0000000e+00 1.5000000e+00 
7.5000000e-01 3.0000000e+00 2.0000000e+00 
7.5000000e-01 3.0000000e+00 2.5000000e+00 
7.5000000e-01 3.0000000e+00 3.0000000e+00 
7.5000000e-01 3.0000000e+00 3.5000000e+00 
7.5000000e-01 3.0000000e+00 4.0000000e+00 
7.5000000e-01 3.0000000e+00 4.5000000e+00 
7.5000000e-01 3.0000000e+00 5.0000000e+00 
7.5000000e-01 3.0000000e+00 5.5000000e+00 
7.5000000e-01 3.0000000e+00 6.0000000e+00 
7.5000000e-01 3.0000000e+00 6.5000000e+00 
7.5000000e-01 3.0000000e+00 7.0000000e+00 
7.5000000e-01 3.0000000e+00 7.5000000e+00 
7.5000000e-01 3.0000000e+00 8.0000000e+00 
7.5000000e-01 3.0000000e+00 8.5000000e+00 
7.5000000e-01 3.0000000e+00 9.0000000e+00 
7.5000000e-01 3.0000000e+00 9.5000000e+00 
7.5000000e-01 3.0000000e+00 1.0000000e+01 
7.5000000e-01 3.0000000e+00 1.0500000e+01 
7.5000000e-01 3.0000000e+00 1.1000000e+01 
7.5000000e-01 3.0000000e+00 1.1500000e+01 
7.5000000e-01 3.0000000e+00 1.2000000e+01 
7.5000000e-01 3.0000000e+00 1.2500000e+01 
7.5000000e-01 3.0000000e+00 1.3000000e+01 
7.5000000e-01 3.0000000e+00 1.3500000e+01 
7.5000000e-01 3.0000000e+00 1.4000000e+01 
7.5000000e-01 3.0000000e+00 1.4500000e+01 
7.5000000e-01 3.0000000e+00 1.5000000e+01 
7.5000000e-01 3.0000000e+00 1.5500000e+01 
7.5000000e-01 3.0000000e+00 1.6000000e+01 
7.5000000e-01 3.0000000e+00 1.6500000e+01 
7.5000000e-01 3.0000000e+00 1.7000000e+01 
7.5000000e-01 3.0000000e+00 1.7500000e+01 
7.5000000e-01 3.0000000e+00 1.8000000e+01 
7.5000000e-01 3.0000000e+00 1.8500000e+01 
7.5000000e-01 3.0000000e+00 1.9000000e+01 
7.5000000e-01 3.0000000e+00 1.9500000e+01 
7.5000000e-01 3.0000000e+00 2.0000000e+01 
7.5000000e-01 3.0000000e+00 2.0500000e+01 
7.5000000e-01 3.0000000e+00 2.1000000e+01 
7.5000000e-01 3.0000000e+00 2.1500000e+01 
7.5000000e-01 3.0000000e+00 2.2000000e+01 
7.5000000e-01 3.0000000e+00 2.2500000e+01 
7.5000000e-01 3.0000000e+00 2.3000000e+01 
7.5000000e-01 3.0000000e+00 2.3500000e+01 
7.5000000e-01 3.0000000e+00 2.4000000e+01 
7.5000000e-01 3.0000000e+00 2.4500000e+01 
7.5000000e-01 3.0000000e+00 2.5000000e+01 
7.5000000e-01 3.0000000e+00 2.5500000e+01 
7.5000000e-01 3.0000000e+00 2.6000000e+01 
7.5000000e-01 3.0000000e+00 2.6500000e+01 
7.5000000e-01 3.0000000e+00 2.7000000e+01 
7.5000000e-01 3.0000000e+00 2.7500000e+01 
7.5000000e-01 3.0000000e+00 2.8000000e+01 
7.5000000e-01 3.0000000e+00 2.8500000e+01 
7.5000000e-01 3.0000000e+00 2.9000000e+01 
7.5000000e-01 3.0000000e+00 2.9500000e+01 
7.5000000e-01 3.0000000e+00 3.0000000e+01 
7.5000000e-01 3.0000000e+00 3.0500000e+01 
7.5000000e-01 3.0000000e+00 3.1000000e+01 
7.5000000e-01 3.0000000e+00 3.1500000e+01 
7.5000000e-01 3.0000000e+00 3.2000000e+01 
7.5000000e-01 3.0000000e+00 3.2500000e+01 
7.5000000e-01 3.0000000e+00 3.3000000e+01 
7.5000000e-01 3.0000000e+00 3.3500000e+01 
7.5000000e-01 3.0000000e+00 3.4000000e+01 
7.5000000e-01 3.0000000e+00 3.4500000e+01 
7.5000000e-01 3.0000000e+00 3.5000000e+01 
7.5000000e-01 3.0000000e+00 3.5500000e+01 
7.5000000e-01 3.0000000e+00 3.6000000e+01 
7.5000000e-01 3.0000000e+00 3.6500000e+01 
7.5000000e-01 3.0000000e+00 3.7000000e+01 
7.5000000e-01 3.0000000e+00 3.7500000e+01 
7.5000000e-01 3.0000000e+00 3.8000000e+01 
7.5000000e-01 3.0000000e+00 3.8500000e+01 
7.5000000e-01 3.0000000e+00 3.9000000e+01 
7.5000000e-01 3.0000000e+00 3.9500000e+01 
7.5000000e-01 3.0000000e+00 4.0000000e+01 
7.5000000e-01 3.0000000e+00 4.0500000e+01 
7.5000000e-01 3.0000000e+00 4.1000000e+01 
7.5000000e-01 3.0000000e+00 4.1500000e+01 
7.5000000e-01 3.0000000e+00 4.2000000e+01 
7.5000000e-01 3.0000000e+00 4.2500000e+01 
7.5000000e-01 3.0000000e+00 4.3000000e+01 
7.5000000e-01 3.0000000e+00 4.3500000e+01 
7.5000000e-01 3.0000000e+00 4.4000000e+01 
7.5000000e-01 3.0000000e+00 4.4500000e+01 
7.5000000e-01 3.0000000e+00 4.5000000e+01 
7.5000000e-01 3.0000000e+00 4.5500000e+01 
7.5000000e-01 3.0000000e+00 4.6000000e+01 
7.5000000e-01 3.0000000e+00 4.6500000e+01 
7.5000000e-01 3.0000000e+00 4.7000000e+01 
7.5000000e-01 3.0000000e+00 4.7500000e+01 
7.5000000e-01 3.0000000e+00 4.8000000e+01 
7.5000000e-01 3.0000000e+00 4.8500000e+01 
7.5000000e-01 3.0000000e+00 4.9000000e+01 
7.5000000e-01 3.0000000e+00 4.9500000e+01 
7.5000000e-01 3.0250001e+00 0.0000000e+00 
7.5000000e-01 3.0250001e+00 5.0000000e-01 
7.5000000e-01 3.0250001e+00 1.0000000e+00 
7.5000000e-01 3.0250001e+00 1.5000000e+00 
7.5000000e-01 3.0250001e+00 2.0000000e+00 
7.5000000e-01 3.0250001e+00 2.5000000e+00 
7.5000000e-01 3.0250001e+00 3.0000000e+00 
7.5000000e-01 3.0250001e+00 3.5000000e+00 
7.5000000e-01 3.0250001e+00 4.0000000e+00 
7.5000000e-01 3.0250001e+00 4.5000000e+00 
7.5000000e-01 3.0250001e+00 5.0000000e+00 
7.5000000e-01 3.0250001e+00 5.5000000e+00 
7.5000000e-01 3.0250001e+00 6.0000000e+00 
7.5000000e-01 3.0250001e+00 6.5000000e+00 
7.5000000e-01 3.0250001e+00 7.0000000e+00 
7.5000000e-01 3.0250001e+00 7.5000000e+00 
7.5000000e-01 3.0250001e+00 8.0000000e+00 
7.5000000e-01 3.0250001e+00 8.5000000e+00 
7.5000000e-01 3.0250001e+00 9.0000000e+00 
7.5000000e-01 3.0250001e+00 9.5000000e+00 
7.5000000e-01 3.0250001e+00 1.0000000e+01 
7.5000000e-01 3.0250001e+00 1.0500000e+01 
7.5000000e-01 3.0250001e+00 1.1000000e+01 
7.5000000e-01 3.0250001e+00 1.1500000e+01 
7.5000000e-01 3.0250001e+00 1.2000000e+01 
7.5000000e-01 3.0250001e+00 1.2500000e+01 
7.5000000e-01 3.0250001e+00 1.3000000e+01 
7.5000000e-01 3.0250001e+00 1.3500000e+01 
7.5000000e-01 3.0250001e+00 1.4000000e+01 
7.5000000e-01 3.0250001e+00 1.4500000e+01 
7.5000000e-01 3.0250001e+00 1.5000000e+01 
7.5000000e-01 3.0250001e+00 1.5500000e+01 
7.5000000e-01 3.0250001e+00 1.6000000e+01 
7.5000000e-01 3.0250001e+00 1.6500000e+01 
7.5000000e-01 3.0250001e+00 1.7000000e+01 
7.5000000e-01 3.0250001e+00 1.7500000e+01 
7.5000000e-01 3.0250001e+00 1.8000000e+01 
7.5000000e-01 3.0250001e+00 1.8500000e+01 
7.5000000e-01 3.0250001e+00 1.9000000e+01 
7.5000000e-01 3.0250001e+00 1.9500000e+01 
7.5000000e-01 3.0250001e+00 2.0000000e+01 
7.5000000e-01 3.0250001e+00 2.0500000e+01 
7.5000000e-01 3.0250001e+00 2.1000000e+01 
7.5000000e-01 3.0250001e+00 2.1500000e+01 
7.5000000e-01 3.0250001e+00 2.2000000e+01 
7.5000000e-01 3.0250001e+00 2.2500000e+01 
7.5000000e-01 3.0250001e+00 2.3000000e+01 
7.5000000e-01 3.0250001e+00 2.3500000e+01 
7.5000000e-01 3.0250001e+00 2.4000000e+01 
7.5000000e-01 3.0250001e+00 2.4500000e+01 
7.5000000e-01 3.0250001e+00 2.5000000e+01 
7.5000000e-01 3.0250001e+00 2.5500000e+01 
7.5000000e-01 3.0250001e+00 2.6000000e+01 
7.5000000e-01 3.0250001e+00 2.6500000e+01 
7.5000000e-01 3.0250001e+00 2.7000000e+01 
7.5000000e-01 3.0250001e+00 2.7500000e+01 
7.5000000e-01 3.0250001e+00 2.8000000e+01 
7.5000000e-01 3.0250001e+00 2.8500000e+01 
7.5000000e-01 3.0250001e+00 2.9000000e+01 
7.5000000e-01 3.0250001e+00 2.9500000e+01 
7.5000000e-01 3.0250001e+00 3.0000000e+01 
7.5000000e-01 3.0250001e+00 3.0500000e+01 
7.5000000e-01 3.0250001e+00 3.1000000e+01 
7.5000000e-01 3.0250001e+00 3.1500000e+01 
7.5000000e-01 3.0250001e+00 3.2000000e+01 
7.5000000e-01 3.0250001e+00 3.2500000e+01 
7.5000000e-01 3.0250001e+00 3.3000000e+01 
7.5000000e-01 3.0250001e+00 3.3500000e+01 
7.5000000e-01 3.0250001e+00 3.4000000e+01 
7.5000000e-01 3.0250001e+00 3.4500000e+01 
7.5000000e-01 3.0250001e+00 3.5000000e+01 
7.5000000e-01 3.0250001e+00 3.5500000e+01 
7.5000000e-01 3.0250001e+00 3.6000000e+01 
7.5000000e-01 3.0250001e+00 3.6500000e+01 
7.5000000e-01 3.0250001e+00 3.7000000e+01 
7.5000000e-01 3.0250001e+00 3.7500000e+01 
7.5000000e-01 3.0250001e+00 3.8000000e+01 
7.5000000e-01 3.0250001e+00 3.8500000e+01 
7.5000000e-01 3.0250001e+00 3.9000000e+01 
7.5000000e-01 3.0250001e+00 3.9500000e+01 
7.5000000e-01 3.0250001e+00 4.0000000e+01 
7.5000000e-01 3.0250001e+00 4.0500000e+01 
7.5000000e-01 3.0250001e+00 4.1000000e+01 
7.5000000e-01 3.0250001e+00 4.1500000e+01 
7.5000000e-01 3.0250001e+00 4.2000000e+01 
7.5000000e-01 3.0250001e+00 4.2500000e+01 
7.5000000e-01 3.0250001e+00 4.3000000e+01 
7.5000000e-01 3.0250001e+00 4.3500000e+01 
7.5000000e-01 3.0250001e+00 4.4000000e+01 
7.5000000e-01 3.0250001e+00 4.4500000e+01 
7.5000000e-01 3.0250001e+00 4.5000000e+01 
7.5000000e-01 3.0250001e+00 4.5500000e+01 
7.5000000e-01 3.0250001e+00 4.6000000e+01 
7.5000000e-01 3.0250001e+00 4.6500000e+01 
7.5000000e-01 3.0250001e+00 4.7000000e+01 
7.5000000e-01 3.0250001e+00 4.7500000e+01 
7.5000000e-01 3.0250001e+00 4.8000000e+01 
7.5000000e-01 3.0250001e+00 4.8500000e+01 
7.5000000e-01 3.0250001e+00 4.9000000e+01 
7.5000000e-01 3.0250001e+00 4.9500000e+01 
7.5000000e-01 3.0250001e+00 5.0000000e+01 
1.5000000e+00 3.0000000e+00 2.5000000e+01 
3.0000000e+00 2.0000000e+00 2.5000000e+01 
4.0000000e+00 2.0000000e+00 2.5000000e+01 
5.0000000e+00 2.0000000e+00 2.5000000e+01 
0.0000000e+00 3.0000000e+00 2.5000000e+01 
0.0000000e+00 0.0000000e+00 1.0000000e+00 
0.0000000e+00 0.0000000e+00 2.0000000e+00 
0.0000000e+00 0.0000000e+00 3.0000000e+00 
0.0000000e+00 0.0000000e+00 4.0000000e+00 
0.0000000e+00 0.0000000e+00 5.0000000e+00 
[...]
POINT_DATA 1919
FIELD FieldData 3
DISPLACEMENT 3 1919  float
0.0000000e+00 0.0000000e+00 0.0000000e+00 
0.0000000e+00 0.0000000e+00 0.0000000e+00 
0.0000000e+00 0.0000000e+00 0.0000000e+00 
0.0000000e+00 0.0000000e+00 0.0000000e+00 
-5.3896688e-06 3.8507997e-06 8.7927228e-06 
1.3687425e-08 3.6505838e-08 1.7217550e-08 
0.0000000e+00 -1.0135735e-05 0.0000000e+00 
0.0000000e+00 -2.4751017e-07 0.0000000e+00 
-6.0332991e-07 6.6008392e-06 4.6271048e-06 
-2.4135798e-07 3.8220202e-07 -3.2948455e-07 
1.2078487e-05 2.9365205e-05 -5.3202712e-06 
1.9241710e-07 6.1961806e-08 5.1886354e-07 
0.0000000e+00 -2.5057239e-05 0.0000000e+00 
0.0000000e+00 -3.3952713e-07 0.0000000e+00 
4.8526995e-06 2.7947859e-05 -2.2522112e-05 
6.1794719e-07 -6.1024400e-07 7.9436938e-07 
-1.7367165e-05 6.9640962e-05 -2.0914355e-05 
-2.2672328e-08 -1.3573497e-06 -2.6345251e-07 
0.0000000e+00 -6.6813118e-05 0.0000000e+00 
0.0000000e+00 2.8177189e-08 0.0000000e+00 
-2.0108046e-05 7.1277609e-05 -2.4264025e-05 
-2.9372448e-05 7.6108583e-05 -6.4173058e-05 
-4.6545370e-05 8.2830520e-05 -1.0547102e-04 
-4.5062035e-05 9.1011556e-05 -1.3406262e-04 
-3.2670425e-05 1.0346208e-04 -1.5650006e-04 
-1.7119621e-05 1.2272107e-04 -1.2440579e-04 
-1.0876230e-05 1.4825960e-04 -1.0911414e-04 
-1.1216776e-05 1.7305654e-04 -9.7431926e-05 
1.5980434e-06 1.8190511e-04 -8.1691855e-05 
-1.5059695e-05 1.5325671e-04 -3.2477030e-05 
-8.1803855e-06 5.5549299e-05 1.0731522e-05 
-7.8204512e-06 -1.5184586e-04 6.3004503e-05 
-3.9092025e-05 -5.2650523e-04 1.7164607e-04 
-8.5190477e-05 -1.1254257e-03 1.3731264e-04 
-1.4250605e-04 -1.9922778e-03 2.8646624e-04 
-2.2640031e-04 -3.0701200e-03 1.7604126e-04 
-2.9592885e-04 -4.1861706e-03 2.9864992e-04 
-2.9914090e-04 -4.8256502e-03 2.1952800e-04 
-3.3253085e-04 -4.6614320e-03 2.0691610e-04 
-3.3459894e-04 -4.3097157e-03 1.8351211e-04 
-3.4700986e-04 -4.2341449e-03 1.5870597e-04 
-3.9116130e-04 -4.3611005e-03 -1.8138227e-05 
-3.3208556e-04 -4.2195045e-03 -1.6178134e-04 
-2.5442397e-04 -3.2697730e-03 -1.4930032e-04 
-1.5364318e-04 -2.0986996e-03 -3.1129367e-04 
-7.6095806e-05 -1.0844992e-03 -1.5789995e-04 
-4.5002012e-05 -3.9093115e-04 -1.9363272e-04 
-2.4186043e-05 7.7688486e-07 -1.4704098e-04 
1.0074328e-05 1.6701741e-04 -1.5960229e-04 
2.1901053e-05 1.9360216e-04 -1.4253086e-04 
5.1308885e-05 1.5380296e-04 -8.1021106e-05 
5.0650739e-05 9.4818228e-05 -1.6060554e-05 
3.2940210e-05 4.3009084e-05 5.7018169e-05 
1.4321243e-05 9.1264310e-06 7.7171841e-05 
1.1386190e-05 -6.5263212e-06 8.6878928e-05 
-9.4765264e-06 -9.1249549e-06 6.6966742e-05 
-1.3165413e-05 -3.7516479e-06 3.8996535e-05 
-9.5594305e-06 5.2659375e-06 1.0320655e-05 
-1.7427243e-05 1.6780301e-05 -9.2737664e-06 
-1.9952626e-05 3.0522191e-05 -2.2573557e-05 
-2.8461947e-05 4.4791326e-05 -4.1313429e-05 
-4.2711490e-05 5.7162375e-05 -6.6427172e-05 
-4.8173042e-05 6.6273751e-05 -9.8232820e-05 
-1.6556774e-05 7.6233533e-05 -1.0499355e-04 
-3.9931820e-05 9.3475341e-05 -1.2966244e-04 
-3.7503345e-05 1.2126865e-04 -1.1601343e-04 
2.6074757e-05 1.5704193e-04 -9.6601398e-05 
1.4624212e-05 1.9143640e-04 -1.0666594e-04 
4.8484599e-05 2.0856080e-04 -5.6462326e-05 
-2.1380923e-05 1.8290136e-04 -3.5311281e-05 
3.3058903e-05 8.3117193e-05 2.8174509e-05 
-7.7378991e-06 -1.4313773e-04 7.6031472e-05 
-2.2321123e-05 -5.6044332e-04 1.8203499e-04 
-8.8045133e-05 -1.2213801e-03 1.6251630e-04 
-1.5785026e-04 -2.1607543e-03 3.2681314e-04 
-2.4243369e-04 -3.2907666e-03 1.8469182e-04 
-3.0386602e-04 -4.3906821e-03 2.9034266e-04 
-3.7542693e-04 -4.8827766e-03 2.0281263e-04 
-3.8561830e-04 -4.6523232e-03 1.3484305e-04 
-3.6588177e-04 -4.3371245e-03 1.5389420e-04 
-3.6047326e-04 -4.3258588e-03 1.0999498e-04 
-3.7619498e-04 -4.4333977e-03 -1.9628304e-05 
-3.1917801e-04 -4.1220081e-03 -1.9827548e-04 
-2.5086364e-04 -3.0566589e-03 -1.8561586e-04 
-1.5125782e-04 -1.8839890e-03 -3.1357148e-04 
-7.6389704e-05 -9.2168676e-04 -1.6546040e-04 
-4.0822033e-05 -2.9387913e-04 -2.0273027e-04 
-1.3189282e-05 4.5077497e-05 -1.4058381e-04 
2.7094800e-05 1.7689557e-04 -1.5434493e-04 
3.3154967e-05 1.8851824e-04 -1.2079092e-04 
5.4004999e-05 1.4879886e-04 -4.5354911e-05 
4.4377281e-05 9.7812444e-05 1.9999624e-07 
1.1319064e-05 5.4852888e-05 5.4643406e-05 
-8.3490850e-06 2.5790270e-05 5.5497945e-05 
-1.9381279e-05 9.8293403e-06 4.7993075e-05 
-1.7779428e-05 3.2303553e-06 2.2964734e-05 
-1.1865753e-05 1.7853462e-06 1.0902297e-05 
-6.7420133e-06 1.8180713e-06 -8.2253046e-06 
4.2849041e-07 1.8447116e-06 -8.3361319e-06 
3.8563703e-06 9.1985572e-07 -1.0125341e-05 
2.6906937e-06 -1.9435995e-06 -3.0435576e-06 
6.0154639e-07 -5.3313202e-06 -8.8079403e-08 
2.9692103e-07 -7.7904751e-06 -4.5881592e-07 
-3.7634229e-07 -7.5307307e-06 3.0837198e-06 
-3.7700531e-07 -3.7698885e-06 8.9835817e-07 
-3.3859115e-07 1.4101223e-06 -2.9432357e-07 
-5.0207029e-07 5.4052152e-06 1.1387909e-06 
2.6290550e-09 6.2305944e-06 -1.2618704e-06 
2.5035106e-07 3.5680951e-06 -4.6111012e-07 
1.9805124e-07 -4.4821738e-07 3.8235618e-07 
-2.3049203e-08 -3.3592039e-06 -7.2409205e-07 
-9.6120210e-08 -3.8122243e-06 3.9286792e-07 
-9.2816649e-08 -1.9219867e-06 5.0581104e-07 
-1.5718253e-07 6.7053378e-07 -6.4679443e-07 
-3.5036203e-07 2.3185498e-06 6.7813670e-07 
3.0618219e-07 2.5017519e-06 -2.9580286e-07 
-1.7965331e-07 1.5211334e-06 -1.0129204e-07 
2.7657123e-07 1.2451522e-07 4.1365009e-08 
-1.7577234e-07 -9.4889862e-07 3.0287180e-07 
0.0000000e+00 6.9684167e-05 0.0000000e+00 
0.0000000e+00 7.1392242e-05 0.0000000e+00 
0.0000000e+00 7.6111319e-05 0.0000000e+00 
0.0000000e+00 8.2673272e-05 0.0000000e+00 
0.0000000e+00 9.0987880e-05 0.0000000e+00 
0.0000000e+00 1.0355013e-04 0.0000000e+00 
0.0000000e+00 1.2298008e-04 0.0000000e+00 
0.0000000e+00 1.4859902e-04 0.0000000e+00 
0.0000000e+00 1.7334496e-04 0.0000000e+00 
0.0000000e+00 1.8234734e-04 0.0000000e+00 
0.0000000e+00 1.5367902e-04 0.0000000e+00 
0.0000000e+00 5.6369641e-05 0.0000000e+00 
0.0000000e+00 -1.5183084e-04 0.0000000e+00 
0.0000000e+00 -5.2740372e-04 0.0000000e+00 
0.0000000e+00 -1.1305403e-03 0.0000000e+00 
0.0000000e+00 -1.9988487e-03 0.0000000e+00 
0.0000000e+00 -3.0881050e-03 0.0000000e+00 
0.0000000e+00 -4.2043296e-03 0.0000000e+00 
0.0000000e+00 -4.8564775e-03 0.0000000e+00 
0.0000000e+00 -4.6853675e-03 0.0000000e+00 
0.0000000e+00 -4.3371129e-03 0.0000000e+00 
0.0000000e+00 -4.2554522e-03 0.0000000e+00 
0.0000000e+00 -4.3909606e-03 0.0000000e+00 
0.0000000e+00 -4.2412421e-03 0.0000000e+00 
0.0000000e+00 -3.2950260e-03 0.0000000e+00 
0.0000000e+00 -2.1097884e-03 0.0000000e+00 
0.0000000e+00 -1.0930261e-03 0.0000000e+00 
0.0000000e+00 -3.9353734e-04 0.0000000e+00 
0.0000000e+00 7.7115783e-07 0.0000000e+00 
0.0000000e+00 1.6794441e-04 0.0000000e+00 
0.0000000e+00 1.9506989e-04 0.0000000e+00 
0.0000000e+00 1.5487803e-04 0.0000000e+00 
0.0000000e+00 9.5530195e-05 0.0000000e+00 
0.0000000e+00 4.3464897e-05 0.0000000e+00 
0.0000000e+00 9.3503540e-06 0.0000000e+00 
0.0000000e+00 -6.5382737e-06 0.0000000e+00 
0.0000000e+00 -9.1211468e-06 0.0000000e+00 
0.0000000e+00 -3.8823514e-06 0.0000000e+00 
0.0000000e+00 5.2143887e-06 0.0000000e+00 
0.0000000e+00 1.6867878e-05 0.0000000e+00 
0.0000000e+00 3.0594176e-05 0.0000000e+00 
0.0000000e+00 4.4783905e-05 0.0000000e+00 
0.0000000e+00 5.6927271e-05 0.0000000e+00 
0.0000000e+00 6.6135464e-05 0.0000000e+00 
0.0000000e+00 7.6329670e-05 0.0000000e+00 
0.0000000e+00 9.3714116e-05 0.0000000e+00 
0.0000000e+00 1.2155496e-04 0.0000000e+00 
0.0000000e+00 1.5731994e-04 0.0000000e+00 
0.0000000e+00 1.9184966e-04 0.0000000e+00 
0.0000000e+00 2.0882253e-04 0.0000000e+00 
0.0000000e+00 1.8399465e-04 0.0000000e+00 
0.0000000e+00 8.3744206e-05 0.0000000e+00 
0.0000000e+00 -1.4368743e-04 0.0000000e+00 
0.0000000e+00 -5.6153041e-04 0.0000000e+00 
0.0000000e+00 -1.2275787e-03 0.0000000e+00 
0.0000000e+00 -2.1682600e-03 0.0000000e+00 
0.0000000e+00 -3.3100410e-03 0.0000000e+00 
0.0000000e+00 -4.4100536e-03 0.0000000e+00 
0.0000000e+00 -4.9154228e-03 0.0000000e+00 
0.0000000e+00 -4.6734894e-03 0.0000000e+00 
0.0000000e+00 -4.3661036e-03 0.0000000e+00 
0.0000000e+00 -4.3455940e-03 0.0000000e+00 
0.0000000e+00 -4.4644200e-03 0.0000000e+00 
0.0000000e+00 -4.1435338e-03 0.0000000e+00 
0.0000000e+00 -3.0802139e-03 0.0000000e+00 
0.0000000e+00 -1.8939433e-03 0.0000000e+00 
0.0000000e+00 -9.2953275e-04 0.0000000e+00 
0.0000000e+00 -2.9537888e-04 0.0000000e+00 
0.0000000e+00 4.5314693e-05 0.0000000e+00 
0.0000000e+00 1.7804457e-04 0.0000000e+00 
0.0000000e+00 1.9006910e-04 0.0000000e+00 
0.0000000e+00 1.4985725e-04 0.0000000e+00 
0.0000000e+00 9.8432167e-05 0.0000000e+00 
0.0000000e+00 5.5140528e-05 0.0000000e+00 
0.0000000e+00 2.5928392e-05 0.0000000e+00 
0.0000000e+00 9.8582141e-06 0.0000000e+00 
0.0000000e+00 3.2154373e-06 0.0000000e+00 
0.0000000e+00 1.6850906e-06 0.0000000e+00 
0.0000000e+00 1.7800878e-06 0.0000000e+00 
0.0000000e+00 1.8339900e-06 0.0000000e+00 
0.0000000e+00 7.9997994e-07 0.0000000e+00 
0.0000000e+00 -1.9284732e-06 0.0000000e+00 
0.0000000e+00 -5.3163335e-06 0.0000000e+00 
0.0000000e+00 -7.7339819e-06 0.0000000e+00 
0.0000000e+00 -7.4033351e-06 0.0000000e+00 
0.0000000e+00 -3.7756147e-06 0.0000000e+00 
0.0000000e+00 1.3446401e-06 0.0000000e+00 
0.0000000e+00 5.3178001e-06 0.0000000e+00 
0.0000000e+00 6.1274627e-06 0.0000000e+00 
0.0000000e+00 3.5873177e-06 0.0000000e+00 
0.0000000e+00 -3.5869559e-07 0.0000000e+00 
0.0000000e+00 -3.2882724e-06 0.0000000e+00 
0.0000000e+00 -3.7666489e-06 0.0000000e+00 
0.0000000e+00 -1.9554150e-06 0.0000000e+00 
0.0000000e+00 5.9320303e-07 0.0000000e+00 
0.0000000e+00 2.2912486e-06 0.0000000e+00 
0.0000000e+00 2.5142413e-06 0.0000000e+00 
0.0000000e+00 1.5501856e-06 0.0000000e+00 
0.0000000e+00 1.5187244e-07 0.0000000e+00 
0.0000000e+00 -9.5505322e-07 0.0000000e+00 
0.0000000e+00 -1.3707104e-06 0.0000000e+00 
1.5080187e-05 -7.8108795e-05 2.7673810e-05 
2.1475016e-05 -9.9413577e-05 -5.2183755e-06 
7.9551646e-05 -3.3548640e-05 -1.3926160e-05 
7.7618919e-05 -1.3315094e-05 -2.2477101e-05 
0.0000000e+00 4.1230745e-04 0.0000000e+00 
0.0000000e+00 0.0000000e+00 0.0000000e+00 
0.0000000e+00 0.0000000e+00 0.0000000e+00 
0.0000000e+00 0.0000000e+00 0.0000000e+00 
0.0000000e+00 0.0000000e+00 0.0000000e+00 
0.0000000e+00 0.0000000e+00 0.0000000e+00 
0.0000000e+00 0.0000000e+00 0.0000000e+00 
0.0000000e+00 0.0000000e+00 0.0000000e+00 
0.0000000e+00 0.0000000e+00 0.0000000e+00 
0.0000000e+00 0.0000000e+00 0.0000000e+00 
0.0000000e+00 0.0000000e+00 0.0000000e+00 
0.0000000e+00 0.0000000e+00 0.0000000e+00 
0.0000000e+00 0.0000000e+00 0.0000000e+00 
0.0000000e+00 0.0000000e+00 0.0000000e+00 
0.0000000e+00 0.0000000e+00 0.0000000e+00 
0.0000000e+00 0.0000000e+00 0.0000000e+00 
0.0000000e+00 0.0000000e+00 0.0000000e+00 
0.0000000e+00 0.0000000e+00 0.0000000e+00 
0.0000000e+00 0.0000000e+00 0.0000000e+00 
0.0000000e+00 0.0000000e+00 0.0000000e+00 
0.0000000e+00 0.0000000e+00 0.0000000e+00 
0.0000000e+00 0.0000000e+00 0.0000000e+00 
0.0000000e+00 0.0000000e+00 0.0000000e+00 
0.0000000e+00 0.0000000e+00 0.0000000e+00 
0.0000000e+00 0.0000000e+00 0.0000000e+00 
0.0000000e+00 0.0000000e+00 0.0000000e+00 
0.0000000e+00 0.0000000e+00 0.0000000e+00 
0.0000000e+00 0.0000000e+00 0.0000000e+00 
0.0000000e+00 0.0000000e+00 0.0000000e+00 
0.0000000e+00 0.0000000e+00 0.0000000e+00 
0.0000000e+00 0.0000000e+00 0.0000000e+00 
0.0000000e+00 0.0000000e+00 0.0000000e+00 
0.0000000e+00 0.0000000e+00 0.0000000e+00 
0.0000000e+00 0.0000000e+00 0.0000000e+00 
0.0000000e+00 0.0000000e+00 0.0000000e+00 
0.0000000e+00 0.0000000e+00 0.0000000e+00 
0.0000000e+00 0.0000000e+00 0.0000000e+00 
0.0000000e+00 0.0000000e+00 0.0000000e+00 
0.0000000e+00 0.0000000e+00 0.0000000e+00 
0.0000000e+00 0.0000000e+00 0.0000000e+00 
0.0000000e+00 0.0000000e+00 0.0000000e+00 
0.0000000e+00 0.0000000e+00 0.0000000e+00 
0.0000000e+00 0.0000000e+00 0.0000000e+00 
0.0000000e+00 0.0000000e+00 0.0000000e+00 
0.0000000e+00 0.0000000e+00 0.0000000e+00 
0.0000000e+00 0.0000000e+00 0.0000000e+00 
0.0000000e+00 0.0000000e+00 0.0000000e+00 
0.0000000e+00 0.0000000e+00 0.0000000e+00 
0.0000000e+00 0.0000000e+00 0.0000000e+00 
0.0000000e+00 0.0000000e+00 0.0000000e+00 
0.0000000e+00 0.0000000e+00 0.0000000e+00 
0.0000000e+00 0.0000000e+00 0.0000000e+00 
0.0000000e+00 0.0000000e+00 0.0000000e+00 
0.0000000e+00 0.0000000e+00 0.0000000e+00 
0.0000000e+00 0.0000000e+00 0.0000000e+00 
0.0000000e+00 0.0000000e+00 0.0000000e+00 
0.0000000e+00 0.0000000e+00 0.0000000e+00 
0.0000000e+00 0.0000000e+00 0.0000000e+00 
0.0000000e+00 0.0000000e+00 0.0000000e+00 
0.0000000e+00 0.0000000e+00 0.0000000e+00 
0.0000000e+00 0.0000000e+00 0.0000000e+00 
0.0000000e+00 0.0000000e+00 0.0000000e+00 
0.0000000e+00 0.0000000e+00 0.0000000e+00 
0.0000000e+00 0.0000000e+00 0.0000000e+00 
0.0000000e+00 0.0000000e+00 0.0000000e+00 
0.0000000e+00 0.0000000e+00 0.0000000e+00 
0.0000000e+00 0.0000000e+00 0.0000000e+00 
0.0000000e+00 0.0000000e+00 0.0000000e+00 
0.0000000e+00 0.0000000e+00 0.0000000e+00 
0.0000000e+00 0.0000000e+00 0.0000000e+00 
0.0000000e+00 0.0000000e+00 0.0000000e+00 
0.0000000e+00 0.0000000e+00 0.0000000e+00 
0.0000000e+00 0.0000000e+00 0.0000000e+00 
0.0000000e+00 0.0000000e+00 0.0000000e+00 
0.0000000e+00 0.0000000e+00 0.0000000e+00 
0.0000000e+00 0.0000000e+00 0.0000000e+00 
0.0000000e+00 0.0000000e+00 0.0000000e+00 
0.0000000e+00 0.0000000e+00 0.0000000e+00 
0.0000000e+00 0.0000000e+00 0.0000000e+00 
0.0000000e+00 0.0000000e+00 0.0000000e+00 
0.0000000e+00 0.0000000e+00 0.0000000e+00 
0.0000000e+00 0.0000000e+00 0.0000000e+00 
0.0000000e+00 0.0000000e+00 0.0000000e+00 
0.0000000e+00 0.0000000e+00 0.0000000e+00 
0.0000000e+00 0.0000000e+00 0.0000000e+00 
0.0000000e+00 0.0000000e+00 0.0000000e+00 
0.0000000e+00 0.0000000e+00 0.0000000e+00 
0.0000000e+00 0.0000000e+00 0.0000000e+00 
0.0000000e+00 0.0000000e+00 0.0000000e+00 
0.0000000e+00 0.0000000e+00 0.0000000e+00 
0.0000000e+00 0.0000000e+00 0.0000000e+00 
0.0000000e+00 0.0000000e+00 0.0000000e+00 
0.0000000e+00 0.0000000e+00 0.0000000e+00 
0.0000000e+00 0.0000000e+00 0.0000000e+00 
0.0000000e+00 0.0000000e+00 0.0000000e+00 
0.0000000e+00 0.0000000e+00 0.0000000e+00 
0.0000000e+00 0.0000000e+00 0.0000000e+00 
0.0000000e+00 0.0000000e+00 0.0000000e+00 
0.0000000e+00 0.0000000e+00 0.0000000e+00 
0.0000000e+00 0.0000000e+00 0.0000000e+00 
0.0000000e+00 0.0000000e+00 0.0000000e+00 
0.0000000e+00 0.0000000e+00 0.0000000e+00 
0.0000000e+00 0.0000000e+00 0.0000000e+00 
0.0000000e+00 0.0000000e+00 0.0000000e+00 
0.0000000e+00 0.0000000e+00 0.0000000e+00 
0.0000000e+00 0.0000000e+00 0.0000000e+00 
0.0000000e+00 0.0000000e+00 0.0000000e+00 
4.8023880e-06 9.5145615e-06 -8.2307037e-07 
1.3862537e-05 7.5900225e-06 -1.4937173e-05 
2.1019228e-05 -1.5395591e-07 -2.3614355e-05 
2.4214060e-05 -9.5093801e-06 -2.3111685e-05 
3.3023571e-05 -1.5329897e-05 -2.0074913e-05 
4.4064374e-05 -2.0642010e-05 -1.5309435e-05 
5.5578992e-05 -2.2832264e-05 -6.3393895e-06 
6.3106854e-05 -2.1438824e-05 7.1464310e-06 
6.6210807e-05 -7.8591538e-06 1.8216177e-05 
6.5090942e-05 9.7576039e-06 2.2653650e-05 
5.3455275e-05 4.9844612e-06 1.4443359e-05 
3.5276767e-05 -3.0248332e-06 -7.2074613e-07 
1.3743220e-05 -3.7625989e-06 -1.4639450e-05 
2.0758594e-06 7.6333652e-07 -2.2392778e-05 
-8.6959335e-06 9.6300550e-07 -1.7342250e-05 
-1.0406467e-05 6.3860551e-07 -8.3649056e-08 
-8.7242224e-06 -6.7865454e-07 1.7856592e-05 
-3.3419115e-06 6.6894909e-06 2.6685098e-05 
-4.5753899e-07 3.8918156e-06 2.4958177e-05 
1.9933018e-06 -4.7890245e-07 1.3053376e-05 
6.4951737e-06 1.2655865e-06 -4.9824627e-07 
1.2556093e-05 9.4341003e-06 -1.7896975e-05 
2.4586876e-05 7.8555740e-06 -2.3531362e-05 
4.0223946e-05 -8.1140852e-06 -2.4221665e-05 
5.1656476e-05 -1.3986964e-05 -1.9681132e-05 
6.4005864e-05 -1.1070563e-05 -9.9515064e-06 
6.3351225e-05 -1.6430869e-05 1.3281883e-06 
6.8677386e-05 -1.8165010e-05 1.2578146e-05 
7.2532734e-05 -1.3123287e-05 2.0567020e-05 
6.5006345e-05 2.4583251e-06 2.3567723e-05 
4.6473433e-05 4.5745983e-06 1.3740581e-05 
2.5084817e-05 -8.1105536e-06 2.8798670e-06 
8.7621274e-06 -1.0297944e-06 -1.3233056e-05 
-5.9009614e-07 1.8537881e-06 -2.1757985e-05 
-8.6006212e-06 -1.4183114e-06 -1.9346166e-05 
-7.7615041e-06 -4.6795549e-07 -7.5362341e-06 
-6.3660571e-07 4.6290775e-06 1.1974893e-06 
2.4143415e-06 1.8688075e-06 8.2957877e-06 
1.7098787e-06 -1.9934287e-06 8.6882883e-06 
8.2251148e-07 -2.5317138e-06 4.9266000e-06 
2.6730632e-07 -1.2126552e-06 -2.3354946e-07 
3.6614432e-07 -7.9051819e-07 -1.0504885e-06 
-2.3515449e-07 1.8102329e-06 -3.3170548e-07 
-3.4880279e-07 6.9716879e-07 2.8270910e-07 
1.2496446e-07 -9.5865312e-07 5.3841126e-07 
1.6634482e-07 -2.7816751e-07 -2.6640858e-08 
-7.3399229e-09 3.0767207e-08 -2.7089811e-07 
-1.2795408e-07 2.5642723e-07 -2.2939925e-07 
5.2063506e-08 -3.7233823e-07 1.0711056e-07 
0.0000000e+00 2.4538058e-05 0.0000000e+00 
0.0000000e+00 9.7209675e-05 0.0000000e+00 
0.0000000e+00 1.6860009e-04 0.0000000e+00 
0.0000000e+00 2.0994419e-04 0.0000000e+00 
0.0000000e+00 1.9894633e-04 0.0000000e+00 
0.0000000e+00 1.6101020e-04 0.0000000e+00 
0.0000000e+00 1.8916073e-05 0.0000000e+00 
0.0000000e+00 -1.5997948e-04 0.0000000e+00 
0.0000000e+00 -3.0558085e-04 0.0000000e+00 
0.0000000e+00 -3.9104605e-04 0.0000000e+00 
0.0000000e+00 -4.0301634e-04 0.0000000e+00 
0.0000000e+00 -3.5206709e-04 0.0000000e+00 
0.0000000e+00 -1.9428144e-04 0.0000000e+00 
0.0000000e+00 -5.9024227e-05 0.0000000e+00 
0.0000000e+00 -4.5483889e-06 0.0000000e+00 
0.0000000e+00 4.5709705e-05 0.0000000e+00 
0.0000000e+00 3.3032225e-05 0.0000000e+00 
0.0000000e+00 -3.0692947e-05 0.0000000e+00 
0.0000000e+00 -3.4040386e-05 0.0000000e+00 
0.0000000e+00 -5.5871838e-06 0.0000000e+00 
0.0000000e+00 4.7975896e-05 0.0000000e+00 
0.0000000e+00 8.8157365e-05 0.0000000e+00 
0.0000000e+00 1.3425482e-04 0.0000000e+00 
0.0000000e+00 1.8918030e-04 0.0000000e+00 
0.0000000e+00 1.8085586e-04 0.0000000e+00 
0.0000000e+00 1.3742410e-04 0.0000000e+00 
0.0000000e+00 5.2179216e-06 0.0000000e+00 
0.0000000e+00 -1.7646649e-04 0.0000000e+00 
0.0000000e+00 -2.8209100e-04 0.0000000e+00 
0.0000000e+00 -3.4925144e-04 0.0000000e+00 
0.0000000e+00 -4.0297461e-04 0.0000000e+00 
0.0000000e+00 -3.0737606e-04 0.0000000e+00 
0.0000000e+00 -1.8625875e-04 0.0000000e+00 
0.0000000e+00 -5.4271539e-05 0.0000000e+00 
0.0000000e+00 -1.1252420e-05 0.0000000e+00 
0.0000000e+00 3.4323719e-05 0.0000000e+00 
0.0000000e+00 3.0351081e-05 0.0000000e+00 
0.0000000e+00 -7.0824461e-07 0.0000000e+00 
0.0000000e+00 -1.2338297e-05 0.0000000e+00 
0.0000000e+00 -6.8035588e-06 0.0000000e+00 
0.0000000e+00 4.1770436e-06 0.0000000e+00 
0.0000000e+00 2.3565558e-06 0.0000000e+00 
0.0000000e+00 -9.8482838e-07 0.0000000e+00 
0.0000000e+00 -1.9834029e-07 0.0000000e+00 
0.0000000e+00 4.6406024e-07 0.0000000e+00 
0.0000000e+00 -1.2282128e-07 0.0000000e+00 
0.0000000e+00 -4.6023152e-07 0.0000000e+00 
0.0000000e+00 8.2922861e-07 0.0000000e+00 
0.0000000e+00 5.1547312e-07 0.0000000e+00 
-4.2177987e-07 1.1011104e-05 1.9724428e-06 
6.2327881e-06 1.6369757e-05 4.8184929e-06 
1.0484991e-05 1.4245955e-05 1.1407486e-05 
5.3307831e-06 1.6058967e-06 7.9176725e-06 
5.4248407e-08 -1.6266850e-07 4.1571568e-08 
-8.9920597e-08 2.7531672e-07 1.4832376e-07 
-6.4814598e-09 2.2334800e-07 -2.4391412e-07 
8.6061689e-08 2.0093953e-08 -6.5055183e-08 
9.9154995e-06 1.9118839e-05 -9.1248958e-06 
2.5615324e-07 2.3212956e-09 1.2656206e-07 
-4.2340562e-09 1.5111021e-05 -5.2967453e-06 
6.1568453e-06 2.1077300e-05 -5.0425518e-07 
0.0000000e+00 3.3487457e-05 0.0000000e+00 
0.0000000e+00 1.3888608e-04 0.0000000e+00 
0.0000000e+00 2.6881101e-04 0.0000000e+00 
0.0000000e+00 3.6368278e-04 0.0000000e+00 
0.0000000e+00 3.5808564e-04 0.0000000e+00 
0.0000000e+00 2.4879104e-04 0.0000000e+00 
0.0000000e+00 -2.5689738e-05 0.0000000e+00 
0.0000000e+00 -4.2990476e-04 0.0000000e+00 
0.0000000e+00 -7.3203736e-04 0.0000000e+00 
0.0000000e+00 -8.8278111e-04 0.0000000e+00 
0.0000000e+00 -9.1734424e-04 0.0000000e+00 
0.0000000e+00 -7.2735565e-04 0.0000000e+00 
0.0000000e+00 -2.8741281e-04 0.0000000e+00 
0.0000000e+00 -9.7786360e-05 0.0000000e+00 