# vtk DataFile Version 4.0
vtk output
ASCII
DATASET UNSTRUCTURED_GRID
POINTS 1919 float
0.0000000e+00 0.0000000e+00 0.0000000e+00 
0.0000000e+00 0.0000000e+00 5.0000000e+01 
5.0000000e+00 0.0000000e+00 0.0000000e+00 
5.0000000e+00 0.0000000e+00 5.0000000e+01 
5.0000000e+00 1.0000000e+00 0.0000000e+00 
5.0000000e+00 1.0000000e+00 5.0000000e+01 
0.0000000e+00 1.0000000e+00 0.0000000e+00 
0.0000000e+00 1.0000000e+00 5.0000000e+01 
5.0000000e+00 2.0000000e+00 0.0000000e+00 
5.0000000e+00 2.0000000e+00 5.0000000e+01 
3.0000000e+00 2.0000000e+00 0.0000000e+00 
3.0000000e+00 2.0000000e+00 5.0000000e+01 
0.0000000e+00 2.0000000e+00 0.0000000e+00 
0.0000000e+00 2.0000000e+00 5.0000000e+01 
1.5000000e+00 3.0000000e+00 0.0000000e+00 
1.5000000e+00 3.0000000e+00 5.0000000e+01 
7.5000000e-01 3.0000000e+00 0.0000000e+00 
7.5000000e-01 3.0000000e+00 5.0000000e+01 
0.0000000e+00 3.0000000e+00 0.0000000e+00 
0.0000000e+00 3.0000000e+00 5.0000000e+01 
7.5000000e-01 3.0000000e+00 5.0000000e-01 
7.5000000e-01 3.0000000e+00 1.0000000e+00 
7.5000000e-01 3.0000000e+00 1.5000000e+00 
7.5000000e-01 3.0000000e+00 2.0000000e+00 
7.5000000e-01 3.0000000e+00 2.5000000e+00 
7.5000000e-01 3.0000000e+00 3.0000000e+00 
7.5000000e-01 3.0000000e+00 3.5000000e+00 
7.5000000e-01 3.0000000e+00 4.0000000e+00 
7.5000000e-01 3.0000000e+00 4.5000000e+00 
7.5000000e-01 3.0000000e+00 5.0000000e+00 
7.5000000e-01 3.0000000e+00 5.5000000e+00 
7.5000000e-01 3.0000000e+00 6.0000000e+00 
7.5000000e-01 3.0000000e+00 6.5000000e+00 
7.5000000e-01 3.0000000e+00 7.0000000e+00 
7.5000000e-01 3.0000000e+00 7.5000000e+00 
7.5000000e-01 3.0000000e+00 8.0000000e+00 
7.5000000e-01 3.0000000e+00 8.5000000e+00 
7.5000000e-01 3.0000000e+00 9.0000000e+00 
7.5000000e-01 3.0000000e+00 9.5000000e+00 
7.5000000e-01 3.0000000e+00 1.0000000e+01 
7.5000000e-01 3.0000000e+00 1.0500000e+01 
7.5000000e-01 3.0000000e+00 1.1000000e+01 
7.5000000e-01 3.0000000e+00 1.1500000e+01 
7.5000000e-01 3.0000000e+00 1.2000000e+01 
7.5000000e-01 3.0000000e+00 1.2500000e+01 
7.5000000e-01 3.0000000e+00 1.3000000e+01 
7.5000000e-01 3.0000000e+00 1.3500000e+01 
7.5000000e-01 3.0000000e+00 1.4000000e+01 
7.5000000e-01 3.0000000e+00 1.4500000e+01 
7.5000000e-01 3.0000000e+00 1.5000000e+01 
7.5000000e-01 3.0000000e+00 1.5500000e+01 
7.5000000e-01 3.0000000e+00 1.6000000e+01 
7.5000000e-01 3.0000000e+00 1.6500000e+01 
7.5000000e-01 3.0000000e+00 1.7000000e+01 
7.5000000e-01 3.0000000e+00 1.7500000e+01 
7.5000000e-01 3.0000000e+00 1.8000000e+01 
7.5000000e-01 3.0000000e+00 1.8500000e+01 
7.5000000e-01 3.0000000e+00 1.9000000e+01 
7.5000000e-01 3.0000000e+00 1.9500000e+01 
7.5000000e-01 3.0000000e+00 2.0000000e+01 
7.5000000e-01 3.0000000e+00 2.0500000e+01 
7.5000000e-01 3.0000000e+00 2.1000000e+01 
7.5000000e-01 3.0000000e+00 2.1500000e+01 
7.5000000e-01 3.0000000e+00 2.2000000e+01 
7.5000000e-01 3.0000000e+00 2.2500000e+01 
7.5000000e-01 3.0000000e+00 2.3000000e+01 
7.5000000e-01 3.0000000e+00 2.3500000e+01 
7.5000000e-01 3.0000000e+00 2.4000000e+01 
7.5000000e-01 3.0000000e+00 2.4500000e+01 
7.5000000e-01 3.0000000e+00 2.5000000e+01 
7.5000000e-01 3.0000000e+00 2.5500000e+01 
7.5000000e-01 3.0000000e+00 2.6000000e+01 
7.5000000e-01 3.0000000e+00 2.6500000e+01 
7.5000000e-01 3.0000000e+00 2.7000000e+01 
7.5000000e-01 3.0000000e+00 2.7500000e+01 
7.5000000e-01 3.0000000e+00 2.8000000e+01 
7.5000000e-01 3.0000000e+00 2.8500000e+01 
7.5000000e-01 3.0000000e+00 2.9000000e+01 
7.5000000e-01 3.0000000e+00 2.9500000e+01 
7.5000000e-01 3.0000000e+00 3.0000000e+01 
7.5000000e-01 3.0000000e+00 3.0500000e+01 
7.5000000e-01 3.0000000e+00 3.1000000e+01 
7.5000000e-01 3.0000000e+00 3.1500000e+01 
7.5000000e-01 3.0000000e+00 3.2000000e+01 
7.5000000e-01 3.0000000e+00 3.2500000e+01 
7.5000000e-01 3.0000000e+00 3.3000000e+01 
7.5000000e-01 3.0000000e+00 3.3500000e+01 
7.5000000e-01 3.0000000e+00 3.4000000e+01 
7.5000000e-01 3.0000000e+00 3.4500000e+01 
7.5000000e-01 3.0000000e+00 3.5000000e+01 
7.5000000e-01 3.0000000e+00 3.5500000e+01 
7.5000000e-01 3.0000000e+00 3.6000000e+01 
7.5000000e-01 3.0000000e+00 3.6500000e+01 
7.5000000e-01 3.0000000e+00 3.7000000e+01 
7.5000000e-01 3.0000000e+00 3.7500000e+01 
7.5000000e-01 3.0000000e+00 3.8000000e+01 
7.5000000e-01 3.0000000e+00 3.8500000e+01 
7.5000000e-01 3.0000000e+00 3.9000000e+01 
7.5000000e-01 3.0000000e+00 3.9500000e+01 
7.5000000e-01 3.0000000e+00 4.0000000e+01 
7.5000000e-01 3.0000000e+00 4.0500000e+01 
7.5000000e-01 3.0000000e+00 4.1000000e+01 
7.5000000e-01 3.0000000e+00 4.1500000e+01 
7.5000000e-01 3.0000000e+00 4.2000000e+01 
7.5000000e-01 3.0000000e+00 4.2500000e+01 
7.5000000e-01 3.0000000e+00 4.3000000e+01 
7.5000000e-01 3.0000000e+00 4.3500000e+01 
7.5000000e-01 3.0000000e+00 4.4000000e+01 
7.5000000e-01 3.0000000e+00 4.4500000e+01 
7.5000000e-01 3.0000000e+00 4.5000000e+01 
7.5000000e-01 3.0000000e+00 4.5500000e+01 
7.5000000e-01 3.0000000e+00 4.6000000e+01 
7.5000000e-01 3.0000000e+00 4.6500000e+01 
7.5000000e-01 3.0000000e+00 4.7000000e+01 
7.5000000e-01 3.0000000e+00 4.7500000e+01 
7.5000000e-01 3.0000000e+00 4.8000000e+01 
7.5000000e-01 3.0000000e+00 4.8500000e+01 
7.5000000e-01 3.0000000e+00 4.9000000e+01 
7.5000000e-01 3.0000000e+00 4.9500000e+01 
7.5000000e-01 3.0250001e+00 0.0000000e+00 
7.5000000e-01 3.0250001e+00 5.0000000e-01 
7.5000000e-01 3.0250001e+00 1.0000000e+00 
7.5000000e-01 3.0250001e+00 1.5000000e+00 
7.5000000e-01 3.0250001e+00 2.0000000e+00 
7.5000000e-01 3.0250001e+00 2.5000000e+00 
7.5000000e-01 3.0250001e+00 3.0000000e+00 
7.5000000e-01 3.0250001e+00 3.5000000e+00 
7.5000000e-01 3.0250001e+00 4.0000000e+00 
7.5000000e-01 3.0250001e+00 4.5000000e+00 
7.5000000e-01 3.0250001e+00 5.0000000e+00 
7.5000000e-01 3.0250001e+00 5.5000000e+00 
7.5000000e-01 3.0250001e+00 6.0000000e+00 
7.5000000e-01 3.0250001e+00 6.5000000e+00 
7.5000000e-01 3.0250001e+00 7.0000000e+00 
7.5000000e-01 3.0250001e+00 7.5000000e+00 
7.5000000e-01 3.0250001e+00 8.0000000e+00 
7.5000000e-01 3.0250001e+00 8.5000000e+00 
7.5000000e-01 3.0250001e+00 9.0000000e+00 
7.5000000e-01 3.0250001e+00 9.5000000e+00 
7.5000000e-01 3.0250001e+00 1.0000000e+01 
7.5000000e-01 3.0250001e+00 1.0500000e+01 
7.5000000e-01 3.0250001e+00 1.1000000e+01 
7.5000000e-01 3.0250001e+00 1.1500000e+01 
7.5000000e-01 3.0250001e+00 1.2000000e+01 
7.5000000e-01 3.0250001e+00 1.2500000e+01 
7.5000000e-01 3.0250001e+00 1.3000000e+01 
7.5000000e-01 3.0250001e+00 1.3500000e+01 
7.5000000e-01 3.0250001e+00 1.4000000e+01 
7.5000000e-01 3.0250001e+00 1.4500000e+01 
7.5000000e-01 3.0250001e+00 1.5000000e+01 
7.5000000e-01 3.0250001e+00 1.5500000e+01 
7.5000000e-01 3.0250001e+00 1.6000000e+01 
7.5000000e-01 3.0250001e+00 1.6500000e+01 
7.5000000e-01 3.0250001e+00 1.7000000e+01 
7.5000000e-01 3.0250001e+00 1.7500000e+01 
7.5000000e-01 3.0250001e+00 1.8000000e+01 
7.5000000e-01 3.0250001e+00 1.8500000e+01 
7.5000000e-01 3.0250001e+00 1.9000000e+01 
7.5000000e-01 3.0250001e+00 1.9500000e+01 
7.5000000e-01 3.0250001e+00 2.0000000e+01 
7.5000000e-01 3.0250001e+00 2.0500000e+01 
7.5000000e-01 3.0250001e+00 2.1000000e+01 
7.5000000e-01 3.0250001e+00 2.1500000e+01 
7.5000000e-01 3.0250001e+00 2.2000000e+01 
7.5000000e-01 3.0250001e+00 2.2500000e+01 
7.5000000e-01 3.0250001e+00 2.3000000e+01 
7.5000000e-01 3.0250001e+00 2.3500000e+01 
7.5000000e-01 3.0250001e+00 2.4000000e+01 
7.5000000e-01 3.0250001e+00 2.4500000e+01 
7.5000000e-01 3.0250001e+00 2.5000000e+01 
7.5000000e-01 3.0250001e+00 2.5500000e+01 
7.5000000e-01 3.0250001e+00 2.6000000e+01 
7.5000000e-01 3.0250001e+00 2.6500000e+01 
7.5000000e-01 3.0250001e+00 2.7000000e+01 
7.5000000e-01 3.0250001e+00 2.7500000e+01 
7.5000000e-01 3.0250001e+00 2.8000000e+01 
7.5000000e-01 3.0250001e+00 2.8500000e+01 
7.5000000e-01 3.0250001e+00 2.9000000e+01 
7.5000000e-01 3.0250001e+00 2.9500000e+01 
7.5000000e-01 3.0250001e+00 3.0000000e+01 
7.5000000e-01 3.0250001e+00 3.0500000e+01 
7.5000000e-01 3.0250001e+00 3.1000000e+01 
7.5000000e-01 3.0250001e+00 3.1500000e+01 
7.5000000e-01 3.0250001e+00 3.2000000e+01 
7.5000000e-01 3.0250001e+00 3.2500000e+01 
7.5000000e-01 3.0250001e+00 3.3000000e+01 
7.5000000e-01 3.0250001e+00 3.3500000e+01 
7.5000000e-01 3.0250001e+00 3.4000000e+01 
7.5000000e-01 3.0250001e+00 3.4500000e+01 
7.5000000e-01 3.0250001e+00 3.5000000e+01 
7.5000000e-01 3.0250001e+00 3.5500000e+01 
7.5000000e-01 3.0250001e+00 3.6000000e+01 
7.5000000e-01 3.0250001e+00 3.6500000e+01 
7.5000000e-01 3.0250001e+00 3.7000000e+01 
7.5000000e-01 3.0250001e+00 3.7500000e+01 
7.5000000e-01 3.0250001e+00 3.8000000e+01 
7.5000000e-01 3.0250001e+00 3.8500000e+01 
7.5000000e-01 3.0250001e+00 3.9000000e+01 
7.5000000e-01 3.0250001e+00 3.9500000e+01 
7.5000000e-01 3.0250001e+00 4.0000000e+01 
7.5000000e-01 3.0250001e+00 4.0500000e+01 
7.5000000e-01 3.0250001e+00 4.1000000e+01 
7.5000000e-01 3.0250001e+00 4.1500000e+01 
7.5000000e-01 3.0250001e+00 4.2000000e+01 
7.5000000e-01 3.0250001e+00 4.2500000e+01 
7.5000000e-01 3.0250001e+00 4.3000000e+01 
7.5000000e-01 3.0250001e+00 4.3500000e+01 
7.5000000e-01 3.0250001e+00 4.4000000e+01 
7.5000000e-01 3.0250001e+00 4.4500000e+01 
7.5000000e-01 3.0250001e+00 4.5000000e+01 
7.5000000e-01 3.0250001e+00 4.5500000e+01 
7.5000000e-01 3.0250001e+00 4.6000000e+01 
7.5000000e-01 3.0250001e+00 4.6500000e+01 
7.5000000e-01 3.0250001e+00 4.7000000e+01 
7.5000000e-01 3.0250001e+00 4.7500000e+01 
7.5000000e-01 3.0250001e+00 4.8000000e+01 
7.5000000e-01 3.0250001e+00 4.8500000e+01 
7.5000000e-01 3.0250001e+00 4.9000000e+01 
7.5000000e-01 3.0250001e+00 4.9500000e+01 
7.5000000e-01 3.0250001e+00 5.0000000e+01 
1.5000000e+00 3.0000000e+00 2.5000000e+01 
3.0000000e+00 2.0000000e+00 2.5000000e+01 
4.0000000e+00 2.0000000e+00 2.5000000e+01 
5.0000000e+00 2.0000000e+00 2.5000000e+01 
0.0000000e+00 3.0000000e+00 2.5000000e+01 
0.0000000e+00 0.0000000e+00 1.0000000e+00 
0.0000000e+00 0.0000000e+00 2.0000000e+00 
0.0000000e+00 0.0000000e+00 3.0000000e+00 
0.0000000e+00 0.0000000e+00 4.0000000e+00 
0.0000000e+00 0.0000000e+00 5.0000000e+00 
[...]
POINT_DATA 1919
FIELD FieldData 3
DISPLACEMENT 3 1919  float
0.0000000e+00 0.0000000e+00 0.0000000e+00 
0.0000000e+00 0.0000000e+00 0.0000000e+00 
0.0000000e+00 0.0000000e+00 0.0000000e+00 
0.0000000e+00 0.0000000e+00 0.0000000e+00 
4.5557084e-07 -3.1537141e-07 -7.0179556e-07 
2.1821927e-06 -3.3952367e-06 7.5227194e-06 
0.0000000e+00 -3.8256785e-06 0.0000000e+00 
0.0000000e+00 1.4994767e-05 0.0000000e+00 
7.9802781e-08 -1.7737612e-07 -5.8478344e-07 
2.7915755e-06 -2.8056822e-06 1.0958334e-05 
-1.2828772e-07 -8.9207151e-07 -1.7911912e-06 
3.5102028e-06 3.9280647e-07 1.1202887e-05 
0.0000000e+00 -4.3386867e-06 0.0000000e+00 
0.0000000e+00 2.7690485e-05 0.0000000e+00 
-2.5356354e-07 6.2029409e-07 -2.9579342e-06 
2.0513555e-05 2.5140831e-05 -2.7554407e-07 
-4.1109333e-06 3.5018279e-06 -4.6725613e-06 
-1.3768745e-07 2.1311681e-04 -1.3104530e-05 
0.0000000e+00 1.1282373e-06 0.0000000e+00 
0.0000000e+00 -5.2935286e-07 0.0000000e+00 
-3.1395118e-07 2.3383177e-06 -3.6710064e-06 
4.9124020e-07 -5.5685433e-07 -3.2565276e-06 
7.3724823e-07 -4.1512822e-06 -4.3547830e-06 
-1.2042001e-06 -7.6567057e-06 -5.2738919e-06 
-2.3657292e-06 -1.0210651e-05 -5.6032532e-06 
-3.2606654e-06 -1.1445755e-05 -5.2048699e-06 
-4.1461540e-06 -1.1256281e-05 -4.4714602e-06 
-3.6810022e-06 -1.0061621e-05 -1.2886667e-06 
-1.8170754e-06 -8.3946898e-06 7.4888817e-07 
-2.1242513e-06 -6.5868730e-06 4.8426878e-06 
-3.7692516e-06 -4.9419127e-06 6.0045786e-06 
-5.1811480e-06 -3.6882752e-06 7.1378095e-06 
-7.0873107e-06 -3.1277918e-06 7.1471204e-06 
-7.7391087e-06 -3.4623074e-06 7.0661713e-06 
-8.3163877e-06 -4.5489460e-06 7.6967617e-06 
-8.8317202e-06 -5.9497766e-06 8.3849563e-06 
-9.4308916e-06 -7.0867818e-06 8.1383942e-06 
-9.1991778e-06 -7.5471598e-06 5.5926653e-06 
-7.5939006e-06 -7.1204690e-06 2.7801418e-06 
-6.4191227e-06 -6.1999876e-06 3.9589935e-07 
-3.6216093e-06 -5.0756844e-06 1.3460584e-06 
-2.6943433e-06 -4.0513610e-06 2.9016692e-06 
-2.6320176e-06 -3.0828999e-06 3.1121820e-06 
-3.0746810e-06 -1.9184276e-06 2.2258096e-06 
-2.6733387e-06 -3.9133695e-07 -1.1704985e-07 
3.9722448e-08 1.3913451e-06 -2.6543444e-06 
2.4550907e-06 3.4157492e-06 -2.3720459e-06 
1.6311267e-06 5.6928707e-06 -1.8092226e-07 
1.5701810e-06 8.4673811e-06 2.4214435e-06 
1.7963310e-06 1.2248268e-05 3.7793461e-06 
2.8942479e-06 1.7726816e-05 1.6314114e-06 
4.4434100e-06 2.5570458e-05 -7.9075704e-07 
5.9251870e-06 3.6445712e-05 -8.9598240e-07 
1.1784967e-05 5.0380644e-05 2.3034543e-06 
8.1579601e-06 6.5971886e-05 1.0531901e-05 
5.9186550e-06 7.9459431e-05 1.8950715e-05 
2.5057782e-06 8.1443170e-05 3.2342050e-05 
-2.8641191e-06 5.2032203e-05 4.5903791e-05 
-1.0644533e-05 -4.0377359e-05 8.4434243e-05 
-2.1059497e-05 -2.4281272e-04 9.5384807e-05 
-5.1462910e-05 -6.1475282e-04 1.7389275e-04 
-7.9333586e-05 -1.2135851e-03 1.3483223e-04 
-1.4983473e-04 -2.0818030e-03 2.4094571e-04 
-1.7792640e-04 -3.1694204e-03 1.6363569e-04 
-3.5246747e-04 -4.2931349e-03 1.8401536e-04 
-2.6254822e-04 -4.9586245e-03 5.9783812e-05 
-3.0947433e-04 -4.8455764e-03 -4.9202434e-05 
-2.3548381e-04 -4.5089605e-03 -7.0929207e-07 
-2.5018514e-04 -4.4167028e-03 -9.7423708e-06 
-1.5489510e-04 -4.5135790e-03 -1.1902115e-04 
-2.2737218e-04 -4.3512890e-03 -1.8902036e-04 
-2.2216710e-04 -3.3740783e-03 -1.6686624e-04 
-1.4880746e-04 -2.1652614e-03 -3.0270530e-04 
-8.6839340e-05 -1.1149884e-03 -1.5690093e-04 
-2.9707218e-05 -3.9692677e-04 -1.7728793e-04 
1.0422160e-06 1.3111136e-05 -7.6151999e-05 
1.6596288e-05 1.8634996e-04 -4.8200189e-05 
1.8108856e-05 2.1443870e-04 -1.1636022e-05 
1.2798345e-05 1.7330221e-04 1.3140798e-05 
7.3342690e-06 1.1068235e-04 1.6729831e-05 
1.0536035e-06 5.5224165e-05 2.6736852e-05 
-1.7079649e-06 1.5576305e-05 2.1799027e-05 
-4.2707397e-06 -6.8757154e-06 2.1687787e-05 
-4.9774558e-06 -1.5998050e-05 1.7116214e-05 
-7.1926620e-06 -1.6046881e-05 1.2893725e-05 
-7.5914877e-06 -1.1389002e-05 8.9369642e-06 
-6.2441641e-06 -5.2368455e-06 5.1074098e-06 
-3.9831689e-06 6.0097068e-07 3.7045916e-06 
-3.5746459e-06 5.9461240e-06 1.3091089e-06 
-4.5055508e-06 1.1704699e-05 1.1972508e-06 
-3.3402432e-06 1.9270165e-05 -1.9871381e-06 
-2.0229215e-06 2.9656432e-05 -3.5843773e-06 
2.7966626e-06 4.3592237e-05 -5.1031307e-06 
6.9816974e-06 6.0824546e-05 -2.3676843e-07 
8.5778456e-06 7.9670994e-05 6.1142814e-06 
1.5777527e-05 9.4476905e-05 1.8577150e-05 
2.6679763e-06 9.2168681e-05 3.4425764e-05 
-4.3860737e-07 5.2050356e-05 4.4274813e-05 
-1.2377332e-05 -6.1394188e-05 8.7425491e-05 
-2.2354843e-05 -2.9849005e-04 9.8948716e-05 
-5.6889330e-05 -7.2085572e-04 1.8760128e-04 
-8.2484461e-05 -1.3816886e-03 1.4668446e-04 
-1.4144553e-04 -2.3120274e-03 2.5648074e-04 
-1.7258446e-04 -3.4323614e-03 1.0658390e-04 
-2.4426155e-04 -4.5182896e-03 1.7774748e-04 
-2.7389071e-04 -5.0017266e-03 3.7439797e-05 
-2.6048350e-04 -4.7518942e-03 -1.3681736e-05 
-2.5579325e-04 -4.4367411e-03 -3.9000115e-05 
-2.2686872e-04 -4.4231457e-03 -3.8008362e-05 
-2.3459534e-04 -4.5363936e-03 -1.3126855e-04 
-2.0905647e-04 -4.2058462e-03 -2.1048608e-04 
-1.7361825e-04 -3.1112470e-03 -1.6353825e-04 
-9.4141600e-05 -1.8992657e-03 -2.5823101e-04 
-6.2323750e-05 -9.1439544e-04 -1.3903965e-04 
-1.0958085e-05 -2.6984105e-04 -1.3946851e-04 
4.1322737e-06 7.5306329e-05 -7.5765573e-05 
1.8681347e-05 2.1311574e-04 -4.2682779e-05 
1.1303282e-05 2.3757291e-04 -2.1414171e-05 
1.0063255e-05 2.2220623e-04 -1.0043320e-05 
0.0000000e+00 3.4648990e-06 0.0000000e+00 
0.0000000e+00 2.3259436e-06 0.0000000e+00 
0.0000000e+00 -5.4124064e-07 0.0000000e+00 
0.0000000e+00 -4.1544190e-06 0.0000000e+00 
0.0000000e+00 -7.6368979e-06 0.0000000e+00 
0.0000000e+00 -1.0202533e-05 0.0000000e+00 
0.0000000e+00 -1.1425191e-05 0.0000000e+00 
0.0000000e+00 -1.1258430e-05 0.0000000e+00 
0.0000000e+00 -1.0079809e-05 0.0000000e+00 
0.0000000e+00 -8.4044714e-06 0.0000000e+00 
0.0000000e+00 -6.5959393e-06 0.0000000e+00 
0.0000000e+00 -4.9418736e-06 0.0000000e+00 
0.0000000e+00 -3.6950562e-06 0.0000000e+00 
0.0000000e+00 -3.1487264e-06 0.0000000e+00 
0.0000000e+00 -3.4829179e-06 0.0000000e+00 
0.0000000e+00 -4.5640927e-06 0.0000000e+00 
0.0000000e+00 -5.9500726e-06 0.0000000e+00 
0.0000000e+00 -7.0820624e-06 0.0000000e+00 
0.0000000e+00 -7.5213470e-06 0.0000000e+00 
0.0000000e+00 -7.1297482e-06 0.0000000e+00 
0.0000000e+00 -6.2052686e-06 0.0000000e+00 
0.0000000e+00 -5.0997078e-06 0.0000000e+00 
0.0000000e+00 -4.0688387e-06 0.0000000e+00 
0.0000000e+00 -3.0814829e-06 0.0000000e+00 
0.0000000e+00 -1.9041526e-06 0.0000000e+00 
0.0000000e+00 -3.9334364e-07 0.0000000e+00 
0.0000000e+00 1.3920953e-06 0.0000000e+00 
0.0000000e+00 3.4045418e-06 0.0000000e+00 
0.0000000e+00 5.6812132e-06 0.0000000e+00 
0.0000000e+00 8.4665635e-06 0.0000000e+00 
0.0000000e+00 1.2259175e-05 0.0000000e+00 
0.0000000e+00 1.7739452e-05 0.0000000e+00 
0.0000000e+00 2.5619380e-05 0.0000000e+00 
0.0000000e+00 3.6529713e-05 0.0000000e+00 
0.0000000e+00 5.0499526e-05 0.0000000e+00 
0.0000000e+00 6.6266795e-05 0.0000000e+00 
0.0000000e+00 8.0017955e-05 0.0000000e+00 
0.0000000e+00 8.2101753e-05 0.0000000e+00 
0.0000000e+00 5.2905219e-05 0.0000000e+00 
0.0000000e+00 -3.9672166e-05 0.0000000e+00 
0.0000000e+00 -2.4277234e-04 0.0000000e+00 
0.0000000e+00 -6.1548833e-04 0.0000000e+00 
0.0000000e+00 -1.2182071e-03 0.0000000e+00 
0.0000000e+00 -2.0890282e-03 0.0000000e+00 
0.0000000e+00 -3.1854862e-03 0.0000000e+00 
0.0000000e+00 -4.3126890e-03 0.0000000e+00 
0.0000000e+00 -4.9944604e-03 0.0000000e+00 
0.0000000e+00 -4.8662014e-03 0.0000000e+00 
0.0000000e+00 -4.5348848e-03 0.0000000e+00 
0.0000000e+00 -4.4379239e-03 0.0000000e+00 
0.0000000e+00 -4.5464709e-03 0.0000000e+00 
0.0000000e+00 -4.3746163e-03 0.0000000e+00 
0.0000000e+00 -3.3988566e-03 0.0000000e+00 
0.0000000e+00 -2.1764620e-03 0.0000000e+00 
0.0000000e+00 -1.1243108e-03 0.0000000e+00 
0.0000000e+00 -3.9903485e-04 0.0000000e+00 
0.0000000e+00 1.2574029e-05 0.0000000e+00 
0.0000000e+00 1.8737478e-04 0.0000000e+00 
0.0000000e+00 2.1602970e-04 0.0000000e+00 
0.0000000e+00 1.7433256e-04 0.0000000e+00 
0.0000000e+00 1.1166274e-04 0.0000000e+00 
0.0000000e+00 5.5572815e-05 0.0000000e+00 
0.0000000e+00 1.5802529e-05 0.0000000e+00 
0.0000000e+00 -6.8723575e-06 0.0000000e+00 
0.0000000e+00 -1.6013668e-05 0.0000000e+00 
0.0000000e+00 -1.6113574e-05 0.0000000e+00 
0.0000000e+00 -1.1463620e-05 0.0000000e+00 
0.0000000e+00 -5.3178769e-06 0.0000000e+00 
0.0000000e+00 5.4849949e-07 0.0000000e+00 
0.0000000e+00 5.9241684e-06 0.0000000e+00 
0.0000000e+00 1.1728705e-05 0.0000000e+00 
0.0000000e+00 1.9297682e-05 0.0000000e+00 
0.0000000e+00 2.9716612e-05 0.0000000e+00 
0.0000000e+00 4.3678490e-05 0.0000000e+00 
0.0000000e+00 6.1051775e-05 0.0000000e+00 
0.0000000e+00 8.0060490e-05 0.0000000e+00 
0.0000000e+00 9.4886142e-05 0.0000000e+00 
0.0000000e+00 9.2972638e-05 0.0000000e+00 
0.0000000e+00 5.2921027e-05 0.0000000e+00 
0.0000000e+00 -6.0724000e-05 0.0000000e+00 
0.0000000e+00 -2.9874474e-04 0.0000000e+00 
0.0000000e+00 -7.2201219e-04 0.0000000e+00 
0.0000000e+00 -1.3872127e-03 0.0000000e+00 
0.0000000e+00 -2.3199632e-03 0.0000000e+00 
0.0000000e+00 -3.4510463e-03 0.0000000e+00 
0.0000000e+00 -4.5394129e-03 0.0000000e+00 
0.0000000e+00 -5.0332635e-03 0.0000000e+00 
0.0000000e+00 -4.7755050e-03 0.0000000e+00 
0.0000000e+00 -4.4642449e-03 0.0000000e+00 
0.0000000e+00 -4.4448576e-03 0.0000000e+00 
0.0000000e+00 -4.5661582e-03 0.0000000e+00 
0.0000000e+00 -4.2294716e-03 0.0000000e+00 
0.0000000e+00 -3.1338737e-03 0.0000000e+00 
0.0000000e+00 -1.9110442e-03 0.0000000e+00 
0.0000000e+00 -9.2160306e-04 0.0000000e+00 
0.0000000e+00 -2.7202073e-04 0.0000000e+00 
0.0000000e+00 7.5636985e-05 0.0000000e+00 
0.0000000e+00 2.1439038e-04 0.0000000e+00 
0.0000000e+00 2.3909680e-04 0.0000000e+00 
0.0000000e+00 2.2379975e-04 0.0000000e+00 
0.0000000e+00 2.1381810e-04 0.0000000e+00 
-5.9101288e-04 -1.3881087e-03 -1.4073790e-04 
4.4529770e-05 -6.7651723e-05 -1.5197186e-06 
4.1078241e-05 -1.3486135e-05 1.9666127e-06 
3.4338656e-05 -9.5516543e-06 6.5017575e-06 
0.0000000e+00 -2.2036636e-03 0.0000000e+00 
0.0000000e+00 0.0000000e+00 0.0000000e+00 
0.0000000e+00 0.0000000e+00 0.0000000e+00 
0.0000000e+00 0.0000000e+00 0.0000000e+00 
0.0000000e+00 0.0000000e+00 0.0000000e+00 
0.0000000e+00 0.0000000e+00 0.0000000e+00 
0.0000000e+00 0.0000000e+00 0.0000000e+00 
0.0000000e+00 0.0000000e+00 0.0000000e+00 
0.0000000e+00 0.0000000e+00 0.0000000e+00 
0.0000000e+00 0.0000000e+00 0.0000000e+00 
0.0000000e+00 0.0000000e+00 0.0000000e+00 
0.0000000e+00 0.0000000e+00 0.0000000e+00 
0.0000000e+00 0.0000000e+00 0.0000000e+00 
0.0000000e+00 0.0000000e+00 0.0000000e+00 
0.0000000e+00 0.0000000e+00 0.0000000e+00 
0.0000000e+00 0.0000000e+00 0.0000000e+00 
0.0000000e+00 0.0000000e+00 0.0000000e+00 
0.0000000e+00 0.0000000e+00 0.0000000e+00 
0.0000000e+00 0.0000000e+00 0.0000000e+00 
0.0000000e+00 0.0000000e+00 0.0000000e+00 
0.0000000e+00 0.0000000e+00 0.0000000e+00 
0.0000000e+00 0.0000000e+00 0.0000000e+00 
0.0000000e+00 0.0000000e+00 0.0000000e+00 
0.0000000e+00 0.0000000e+00 0.0000000e+00 
0.0000000e+00 0.0000000e+00 0.0000000e+00 
0.0000000e+00 0.0000000e+00 0.0000000e+00 
0.0000000e+00 0.0000000e+00 0.0000000e+00 
0.0000000e+00 0.0000000e+00 0.0000000e+00 
0.0000000e+00 0.0000000e+00 0.0000000e+00 
0.0000000e+00 0.0000000e+00 0.0000000e+00 
0.0000000e+00 0.0000000e+00 0.0000000e+00 
0.0000000e+00 0.0000000e+00 0.0000000e+00 
0.0000000e+00 0.0000000e+00 0.0000000e+00 
0.0000000e+00 0.0000000e+00 0.0000000e+00 
0.0000000e+00 0.0000000e+00 0.0000000e+00 
0.0000000e+00 0.0000000e+00 0.0000000e+00 
0.0000000e+00 0.0000000e+00 0.0000000e+00 
0.0000000e+00 0.0000000e+00 0.0000000e+00 
0.0000000e+00 0.0000000e+00 0.0000000e+00 
0.0000000e+00 0.0000000e+00 0.0000000e+00 
0.0000000e+00 0.0000000e+00 0.0000000e+00 
0.0000000e+00 0.0000000e+00 0.0000000e+00 
0.0000000e+00 0.0000000e+00 0.0000000e+00 
0.0000000e+00 0.0000000e+00 0.0000000e+00 
0.0000000e+00 0.0000000e+00 0.0000000e+00 
0.0000000e+00 0.0000000e+00 0.0000000e+00 
0.0000000e+00 0.0000000e+00 0.0000000e+00 
0.0000000e+00 0.0000000e+00 0.0000000e+00 
0.0000000e+00 0.0000000e+00 0.0000000e+00 
0.0000000e+00 0.0000000e+00 0.0000000e+00 
0.0000000e+00 0.0000000e+00 0.0000000e+00 
0.0000000e+00 0.0000000e+00 0.0000000e+00 
0.0000000e+00 0.0000000e+00 0.0000000e+00 
0.0000000e+00 0.0000000e+00 0.0000000e+00 
0.0000000e+00 0.0000000e+00 0.0000000e+00 
0.0000000e+00 0.0000000e+00 0.0000000e+00 
0.0000000e+00 0.0000000e+00 0.0000000e+00 
0.0000000e+00 0.0000000e+00 0.0000000e+00 
0.0000000e+00 0.0000000e+00 0.0000000e+00 
0.0000000e+00 0.0000000e+00 0.0000000e+00 
0.0000000e+00 0.0000000e+00 0.0000000e+00 
0.0000000e+00 0.0000000e+00 0.0000000e+00 
0.0000000e+00 0.0000000e+00 0.0000000e+00 
0.0000000e+00 0.0000000e+00 0.0000000e+00 
0.0000000e+00 0.0000000e+00 0.0000000e+00 
0.0000000e+00 0.0000000e+00 0.0000000e+00 
0.0000000e+00 0.0000000e+00 0.0000000e+00 
0.0000000e+00 0.0000000e+00 0.0000000e+00 
0.0000000e+00 0.0000000e+00 0.0000000e+00 
0.0000000e+00 0.0000000e+00 0.0000000e+00 
0.0000000e+00 0.0000000e+00 0.0000000e+00 
0.0000000e+00 0.0000000e+00 0.0000000e+00 
0.0000000e+00 0.0000000e+00 0.0000000e+00 
0.0000000e+00 0.0000000e+00 0.0000000e+00 
0.0000000e+00 0.0000000e+00 0.0000000e+00 
0.0000000e+00 0.0000000e+00 0.0000000e+00 
0.0000000e+00 0.0000000e+00 0.0000000e+00 
0.0000000e+00 0.0000000e+00 0.0000000e+00 
0.0000000e+00 0.0000000e+00 0.0000000e+00 
0.0000000e+00 0.0000000e+00 0.0000000e+00 
0.0000000e+00 0.0000000e+00 0.0000000e+00 
0.0000000e+00 0.0000000e+00 0.0000000e+00 
0.0000000e+00 0.0000000e+00 0.0000000e+00 
0.0000000e+00 0.0000000e+00 0.0000000e+00 
0.0000000e+00 0.0000000e+00 0.0000000e+00 
0.0000000e+00 0.0000000e+00 0.0000000e+00 
0.0000000e+00 0.0000000e+00 0.0000000e+00 
0.0000000e+00 0.0000000e+00 0.0000000e+00 
0.0000000e+00 0.0000000e+00 0.0000000e+00 
0.0000000e+00 0.0000000e+00 0.0000000e+00 
0.0000000e+00 0.0000000e+00 0.0000000e+00 
0.0000000e+00 0.0000000e+00 0.0000000e+00 
0.0000000e+00 0.0000000e+00 0.0000000e+00 
0.0000000e+00 0.0000000e+00 0.0000000e+00 
0.0000000e+00 0.0000000e+00 0.0000000e+00 
0.0000000e+00 0.0000000e+00 0.0000000e+00 
0.0000000e+00 0.0000000e+00 0.0000000e+00 
0.0000000e+00 0.0000000e+00 0.0000000e+00 
0.0000000e+00 0.0000000e+00 0.0000000e+00 
0.0000000e+00 0.0000000e+00 0.0000000e+00 
0.0000000e+00 0.0000000e+00 0.0000000e+00 
0.0000000e+00 0.0000000e+00 0.0000000e+00 
0.0000000e+00 0.0000000e+00 0.0000000e+00 
0.0000000e+00 0.0000000e+00 0.0000000e+00 
0.0000000e+00 0.0000000e+00 0.0000000e+00 
0.0000000e+00 0.0000000e+00 0.0000000e+00 
0.0000000e+00 0.0000000e+00 0.0000000e+00 
-1.9707089e-07 -3.2243398e-07 -5.6103130e-07 
-7.8047083e-07 -3.7586744e-07 -1.2947172e-07 
-1.5207826e-06 -2.2585088e-07 3.5278941e-07 
-1.9084550e-06 -1.3994244e-07 5.4472969e-07 
-2.0148552e-06 2.9203733e-07 6.3081183e-07 
-1.9422664e-06 6.9411698e-07 7.9529912e-07 
-1.9719425e-06 5.9859235e-07 1.0783555e-06 
-2.3123300e-06 3.1557144e-07 1.1556973e-06 
-2.3307512e-06 1.6218331e-07 6.4430037e-07 
-2.1346050e-06 8.1008885e-08 -2.0115230e-07 
-1.7125018e-06 -1.3733533e-07 -6.4695985e-07 
-8.5249184e-07 -3.3583671e-08 -6.5530156e-07 
-4.5443934e-07 -3.2783171e-07 -7.3405494e-07 
3.3017653e-07 -5.9269701e-07 -1.2774150e-06 
1.3123873e-06 -1.1878816e-06 -2.1218214e-06 
2.3461789e-06 -1.5123196e-06 -2.7909880e-06 
3.7322318e-06 -9.4062909e-07 -3.9426527e-06 
6.8900808e-06 -2.4866929e-06 -6.8545587e-06 
1.2137220e-05 -5.3881081e-06 -1.0107940e-05 
2.1214939e-05 -8.7745393e-06 -1.2763797e-05 
2.9177088e-05 -1.1266729e-05 -1.4167643e-05 
3.6864138e-05 -1.1854931e-05 -1.1833776e-05 
4.4026146e-05 -1.4570139e-05 -4.9097221e-06 
4.4785851e-05 -1.4841806e-05 2.3541138e-06 
3.7072328e-05 -1.0547760e-05 7.9306838e-06 
2.7199110e-05 -7.9831161e-06 1.2513015e-05 
1.7813003e-05 -5.8740238e-06 1.2997276e-05 
8.3322784e-06 -1.7137140e-06 1.0994317e-05 
2.3056712e-06 -1.0695014e-06 7.6864853e-06 
-2.9385848e-07 -8.5793368e-07 4.9700425e-06 
-6.1699831e-07 -8.8397377e-07 3.0759122e-06 
-4.6466104e-07 -9.9561805e-07 1.9484446e-06 
3.7432505e-07 -7.4458825e-07 8.9932911e-07 
9.4445170e-07 -8.8017941e-07 -5.4058637e-07 
1.6781321e-06 -1.6042369e-06 -2.1999244e-06 
3.0033161e-06 -1.6382153e-06 -4.0792229e-06 
5.1883267e-06 -1.6915898e-06 -6.3236253e-06 
9.0306694e-06 -2.5223280e-06 -9.0035246e-06 
1.4886407e-05 -4.9334189e-06 -1.1865725e-05 
2.3198401e-05 -9.2592263e-06 -1.3375535e-05 
3.2465494e-05 -1.1171293e-05 -1.3698174e-05 
4.2773801e-05 -1.4745434e-05 -1.0138652e-05 
4.6718240e-05 -1.5490758e-05 -3.9034571e-06 
4.6976209e-05 -1.6105614e-05 5.3684153e-06 
3.8093182e-05 -1.2159924e-05 1.2310138e-05 
3.0573654e-05 -8.4240473e-06 1.3665970e-05 
2.2955539e-05 -5.3044000e-06 1.5496784e-05 
1.0705033e-05 -1.7533436e-06 1.2638451e-05 
3.8928606e-06 -1.4277961e-06 9.0844514e-06 
0.0000000e+00 -2.0421678e-06 0.0000000e+00 
0.0000000e+00 8.6085578e-07 0.0000000e+00 
0.0000000e+00 4.1359112e-06 0.0000000e+00 
0.0000000e+00 6.6401140e-06 0.0000000e+00 
0.0000000e+00 6.0657921e-06 0.0000000e+00 
0.0000000e+00 4.7310045e-06 0.0000000e+00 
0.0000000e+00 4.1398480e-06 0.0000000e+00 
0.0000000e+00 3.9459610e-06 0.0000000e+00 
0.0000000e+00 4.1071576e-06 0.0000000e+00 
0.0000000e+00 4.9129771e-06 0.0000000e+00 
0.0000000e+00 3.7323664e-06 0.0000000e+00 
0.0000000e+00 2.9592734e-08 0.0000000e+00 
0.0000000e+00 -2.5471547e-06 0.0000000e+00 
0.0000000e+00 -5.3175449e-06 0.0000000e+00 
0.0000000e+00 -7.2504695e-06 0.0000000e+00 
0.0000000e+00 -6.0161183e-06 0.0000000e+00 
0.0000000e+00 -9.0389693e-07 0.0000000e+00 
0.0000000e+00 4.0628256e-06 0.0000000e+00 
0.0000000e+00 -1.1541559e-05 0.0000000e+00 
0.0000000e+00 -7.6686149e-05 0.0000000e+00 
0.0000000e+00 -2.1501005e-04 0.0000000e+00 
0.0000000e+00 -3.9902417e-04 0.0000000e+00 
0.0000000e+00 -5.4424576e-04 0.0000000e+00 
0.0000000e+00 -5.4970122e-04 0.0000000e+00 
0.0000000e+00 -4.6736191e-04 0.0000000e+00 
0.0000000e+00 -2.9788935e-04 0.0000000e+00 
0.0000000e+00 -1.2944837e-04 0.0000000e+00 
0.0000000e+00 -1.4051901e-05 0.0000000e+00 
0.0000000e+00 1.8949397e-05 0.0000000e+00 
0.0000000e+00 1.6633190e-05 0.0000000e+00 
0.0000000e+00 6.1684223e-06 0.0000000e+00 
0.0000000e+00 -2.9135022e-06 0.0000000e+00 
0.0000000e+00 -4.0439854e-06 0.0000000e+00 
0.0000000e+00 -3.0585111e-06 0.0000000e+00 
0.0000000e+00 -2.5636400e-06 0.0000000e+00 
0.0000000e+00 -4.1168400e-07 0.0000000e+00 
0.0000000e+00 7.1185974e-07 0.0000000e+00 
0.0000000e+00 5.3664098e-07 0.0000000e+00 
0.0000000e+00 -1.8805127e-05 0.0000000e+00 
0.0000000e+00 -8.2127750e-05 0.0000000e+00 
0.0000000e+00 -2.2236163e-04 0.0000000e+00 
0.0000000e+00 -4.1621400e-04 0.0000000e+00 
0.0000000e+00 -5.2331359e-04 0.0000000e+00 
0.0000000e+00 -5.2733952e-04 0.0000000e+00 
0.0000000e+00 -4.7298492e-04 0.0000000e+00 
0.0000000e+00 -3.1156829e-04 0.0000000e+00 
0.0000000e+00 -1.3105774e-04 0.0000000e+00 
0.0000000e+00 -2.3085526e-05 0.0000000e+00 
0.0000000e+00 1.4108785e-05 0.0000000e+00 
1.5451535e-07 -6.8669999e-07 -9.0833402e-07 
1.6693963e-07 -7.8074999e-07 -1.2968543e-06 
3.2001978e-07 -1.4157529e-06 -2.2054753e-06 
-8.7319236e-08 -2.8681907e-06 -2.4064095e-06 
2.4463882e-06 -2.5906234e-06 7.6841952e-06 
1.7121280e-06 1.8814498e-08 8.7164362e-06 
-1.5102939e-06 6.2669810e-06 7.9138790e-06 
-3.1181783e-06 1.1629223e-05 4.5459369e-06 
4.5788390e-08 -8.4171194e-07 -1.1374805e-06 
3.9958718e-06 -2.2831364e-06 1.0810682e-05 
-1.2984445e-06 -2.2294842e-06 -3.3503809e-06 
-8.4871118e-07 -1.5402945e-06 -2.8243330e-06 
0.0000000e+00 -3.0318106e-06 0.0000000e+00 
0.0000000e+00 -3.5010339e-07 0.0000000e+00 
0.0000000e+00 4.1206972e-06 0.0000000e+00 
0.0000000e+00 8.8387151e-06 0.0000000e+00 
0.0000000e+00 8.4285239e-06 0.0000000e+00 
0.0000000e+00 6.4921037e-06 0.0000000e+00 
0.0000000e+00 6.1281321e-06 0.0000000e+00 
0.0000000e+00 5.5973514e-06 0.0000000e+00 
0.0000000e+00 5.4622251e-06 0.0000000e+00 
0.0000000e+00 7.2113198e-06 0.0000000e+00 
0.0000000e+00 5.6274898e-06 0.0000000e+00 
0.0000000e+00 -7.1511602e-07 0.0000000e+00 
0.0000000e+00 -3.5271044e-06 0.0000000e+00 