# vtk DataFile Version 4.0
vtk output
ASCII
DATASET UNSTRUCTURED_GRID
POINTS 1919 float
0.0000000e+00 0.0000000e+00 0.0000000e+00 
0.0000000e+00 0.0000000e+00 5.0000000e+01 
5.0000000e+00 0.0000000e+00 0.0000000e+00 
5.0000000e+00 0.0000000e+00 5.0000000e+01 
5.0000000e+00 1.0000000e+00 0.0000000e+00 
5.0000000e+00 1.0000000e+00 5.0000000e+01 
0.0000000e+00 1.0000000e+00 0.0000000e+00 
0.0000000e+00 1.0000000e+00 5.0000000e+01 
5.0000000e+00 2.0000000e+00 0.0000000e+00 
5.0000000e+00 2.0000000e+00 5.0000000e+01 
3.0000000e+00 2.0000000e+00 0.0000000e+00 
3.0000000e+00 2.0000000e+00 5.0000000e+01 
0.0000000e+00 2.0000000e+00 0.0000000e+00 
0.0000000e+00 2.0000000e+00 5.0000000e+01 
1.5000000e+00 3.0000000e+00 0.0000000e+00 
1.5000000e+00 3.0000000e+00 5.0000000e+01 
7.5000000e-01 3.0000000e+00 0.0000000e+00 
7.5000000e-01 3.0000000e+00 5.0000000e+01 
0.0000000e+00 3.0000000e+00 0.0000000e+00 
0.0000000e+00 3.0000000e+00 5.0000000e+01 
7.5000000e-01 3.0000000e+00 5.0000000e-01 
7.5000000e-01 3.0000000e+00 1.0000000e+00 
7.5000000e-01 3.0000000e+00 1.5000000e+00 
7.5000000e-01 3.0000000e+00 2.0000000e+00 
7.5000000e-01 3.0000000e+00 2.5000000e+00 
7.5000000e-01 3.0000000e+00 3.0000000e+00 
7.5000000e-01 3.0000000e+00 3.5000000e+00 
7.5000000e-01 3.0000000e+00 4.0000000e+00 
7.5000000e-01 3.0000000e+00 4.5000000e+00 
7.5000000e-01 3.0000000e+00 5.0000000e+00 
7.5000000e-01 3.0000000e+00 5.5000000e+00 
7.5000000e-01 3.0000000e+00 6.0000000e+00 
7.5000000e-01 3.0000000e+00 6.5000000e+00 
7.5000000e-01 3.0000000e+00 7.0000000e+00 
7.5000000e-01 3.0000000e+00 7.5000000e+00 
7.5000000e-01 3.0000000e+00 8.0000000e+00 
7.5000000e-01 3.0000000e+00 8.5000000e+00 
7.5000000e-01 3.0000000e+00 9.0000000e+00 
7.5000000e-01 3.0000000e+00 9.5000000e+00 
7.5000000e-01 3.0000000e+00 1.0000000e+01 
7.5000000e-01 3.0000000e+00 1.0500000e+01 
7.5000000e-01 3.0000000e+00 1.1000000e+01 
7.5000000e-01 3.0000000e+00 1.1500000e+01 
7.5000000e-01 3.0000000e+00 1.2000000e+01 
7.5000000e-01 3.0000000e+00 1.2500000e+01 
7.5000000e-01 3.0000000e+00 1.3000000e+01 
7.5000000e-01 3.0000000e+00 1.3500000e+01 
7.5000000e-01 3.0000000e+00 1.4000000e+01 
7.5000000e-01 3.0000000e+00 1.4500000e+01 
7.5000000e-01 3.0000000e+00 1.5000000e+01 
7.5000000e-01 3.0000000e+00 1.5500000e+01 
7.5000000e-01 3.0000000e+00 1.6000000e+01 
7.5000000e-01 3.0000000e+00 1.6500000e+01 
7.5000000e-01 3.0000000e+00 1.7000000e+01 
7.5000000e-01 3.0000000e+00 1.7500000e+01 
7.5000000e-01 3.0000000e+00 1.8000000e+01 
7.5000000e-01 3.0000000e+00 1.8500000e+01 
7.5000000e-01 3.0000000e+00 1.9000000e+01 
7.5000000e-01 3.0000000e+00 1.9500000e+01 
7.5000000e-01 3.0000000e+00 2.0000000e+01 
7.5000000e-01 3.0000000e+00 2.0500000e+01 
7.5000000e-01 3.0000000e+00 2.1000000e+01 
7.5000000e-01 3.0000000e+00 2.1500000e+01 
7.5000000e-01 3.0000000e+00 2.2000000e+01 
7.5000000e-01 3.0000000e+00 2.2500000e+01 
7.5000000e-01 3.0000000e+00 2.3000000e+01 
7.5000000e-01 3.0000000e+00 2.3500000e+01 
7.5000000e-01 3.0000000e+00 2.4000000e+01 
7.5000000e-01 3.0000000e+00 2.4500000e+01 
7.5000000e-01 3.0000000e+00 2.5000000e+01 
7.5000000e-01 3.0000000e+00 2.5500000e+01 
7.5000000e-01 3.0000000e+00 2.6000000e+01 
7.5000000e-01 3.0000000e+00 2.6500000e+01 
7.5000000e-01 3.0000000e+00 2.7000000e+01 
7.5000000e-01 3.0000000e+00 2.7500000e+01 
7.5000000e-01 3.0000000e+00 2.8000000e+01 
7.5000000e-01 3.0000000e+00 2.8500000e+01 
7.5000000e-01 3.0000000e+00 2.9000000e+01 
7.5000000e-01 3.0000000e+00 2.9500000e+01 
7.5000000e-01 3.0000000e+00 3.0000000e+01 
7.5000000e-01 3.0000000e+00 3.0500000e+01 
7.5000000e-01 3.0000000e+00 3.1000000e+01 
7.5000000e-01 3.0000000e+00 3.1500000e+01 
7.5000000e-01 3.0000000e+00 3.2000000e+01 
7.5000000e-01 3.0000000e+00 3.2500000e+01 
7.5000000e-01 3.0000000e+00 3.3000000e+01 
7.5000000e-01 3.0000000e+00 3.3500000e+01 
7.5000000e-01 3.0000000e+00 3.4000000e+01 
7.5000000e-01 3.0000000e+00 3.4500000e+01 
7.5000000e-01 3.0000000e+00 3.5000000e+01 
7.5000000e-01 3.0000000e+00 3.5500000e+01 
7.5000000e-01 3.0000000e+00 3.6000000e+01 
7.5000000e-01 3.0000000e+00 3.6500000e+01 
7.5000000e-01 3.0000000e+00 3.7000000e+01 
7.5000000e-01 3.0000000e+00 3.7500000e+01 
7.5000000e-01 3.0000000e+00 3.8000000e+01 
7.5000000e-01 3.0000000e+00 3.8500000e+01 
7.5000000e-01 3.0000000e+00 3.9000000e+01 
7.5000000e-01 3.0000000e+00 3.9500000e+01 
7.5000000e-01 3.0000000e+00 4.0000000e+01 
7.5000000e-01 3.0000000e+00 4.0500000e+01 
7.5000000e-01 3.0000000e+00 4.1000000e+01 
7.5000000e-01 3.0000000e+00 4.1500000e+01 
7.5000000e-01 3.0000000e+00 4.2000000e+01 
7.5000000e-01 3.0000000e+00 4.2500000e+01 
7.5000000e-01 3.0000000e+00 4.3000000e+01 
7.5000000e-01 3.0000000e+00 4.3500000e+01 
7.5000000e-01 3.0000000e+00 4.4000000e+01 
7.5000000e-01 3.0000000e+00 4.4500000e+01 
7.5000000e-01 3.0000000e+00 4.5000000e+01 
7.5000000e-01 3.0000000e+00 4.5500000e+01 
7.5000000e-01 3.0000000e+00 4.6000000e+01 
7.5000000e-01 3.0000000e+00 4.6500000e+01 
7.5000000e-01 3.0000000e+00 4.7000000e+01 
7.5000000e-01 3.0000000e+00 4.7500000e+01 
7.5000000e-01 3.0000000e+00 4.8000000e+01 
7.5000000e-01 3.0000000e+00 4.8500000e+01 
7.5000000e-01 3.0000000e+00 4.9000000e+01 
7.5000000e-01 3.0000000e+00 4.9500000e+01 
7.5000000e-01 3.0250001e+00 0.0000000e+00 
7.5000000e-01 3.0250001e+00 5.0000000e-01 
7.5000000e-01 3.0250001e+00 1.0000000e+00 
7.5000000e-01 3.0250001e+00 1.5000000e+00 
7.5000000e-01 3.0250001e+00 2.0000000e+00 
7.5000000e-01 3.0250001e+00 2.5000000e+00 
7.5000000e-01 3.0250001e+00 3.0000000e+00 
7.5000000e-01 3.0250001e+00 3.5000000e+00 
7.5000000e-01 3.0250001e+00 4.0000000e+00 
7.5000000e-01 3.0250001e+00 4.5000000e+00 
7.5000000e-01 3.0250001e+00 5.0000000e+00 
7.5000000e-01 3.0250001e+00 5.5000000e+00 
7.5000000e-01 3.0250001e+00 6.0000000e+00 
7.5000000e-01 3.0250001e+00 6.5000000e+00 
7.5000000e-01 3.0250001e+00 7.0000000e+00 
7.5000000e-01 3.0250001e+00 7.5000000e+00 
7.5000000e-01 3.0250001e+00 8.0000000e+00 
7.5000000e-01 3.0250001e+00 8.5000000e+00 
7.5000000e-01 3.0250001e+00 9.0000000e+00 
7.5000000e-01 3.0250001e+00 9.5000000e+00 
7.5000000e-01 3.0250001e+00 1.0000000e+01 
7.5000000e-01 3.0250001e+00 1.0500000e+01 
7.5000000e-01 3.0250001e+00 1.1000000e+01 
7.5000000e-01 3.0250001e+00 1.1500000e+01 
7.5000000e-01 3.0250001e+00 1.2000000e+01 
7.5000000e-01 3.0250001e+00 1.2500000e+01 
7.5000000e-01 3.0250001e+00 1.3000000e+01 
7.5000000e-01 3.0250001e+00 1.3500000e+01 
7.5000000e-01 3.0250001e+00 1.4000000e+01 
7.5000000e-01 3.0250001e+00 1.4500000e+01 
7.5000000e-01 3.0250001e+00 1.5000000e+01 
7.5000000e-01 3.0250001e+00 1.5500000e+01 
7.5000000e-01 3.0250001e+00 1.6000000e+01 
7.5000000e-01 3.0250001e+00 1.6500000e+01 
7.5000000e-01 3.0250001e+00 1.7000000e+01 
7.5000000e-01 3.0250001e+00 1.7500000e+01 
7.5000000e-01 3.0250001e+00 1.8000000e+01 
7.5000000e-01 3.0250001e+00 1.8500000e+01 
7.5000000e-01 3.0250001e+00 1.9000000e+01 
7.5000000e-01 3.0250001e+00 1.9500000e+01 
7.5000000e-01 3.0250001e+00 2.0000000e+01 
7.5000000e-01 3.0250001e+00 2.0500000e+01 
7.5000000e-01 3.0250001e+00 2.1000000e+01 
7.5000000e-01 3.0250001e+00 2.1500000e+01 
7.5000000e-01 3.0250001e+00 2.2000000e+01 
7.5000000e-01 3.0250001e+00 2.2500000e+01 
7.5000000e-01 3.0250001e+00 2.3000000e+01 
7.5000000e-01 3.0250001e+00 2.3500000e+01 
7.5000000e-01 3.0250001e+00 2.4000000e+01 
7.5000000e-01 3.0250001e+00 2.4500000e+01 
7.5000000e-01 3.0250001e+00 2.5000000e+01 
7.5000000e-01 3.0250001e+00 2.5500000e+01 
7.5000000e-01 3.0250001e+00 2.6000000e+01 
7.5000000e-01 3.0250001e+00 2.6500000e+01 
7.5000000e-01 3.0250001e+00 2.7000000e+01 
7.5000000e-01 3.0250001e+00 2.7500000e+01 
7.5000000e-01 3.0250001e+00 2.8000000e+01 
7.5000000e-01 3.0250001e+00 2.8500000e+01 
7.5000000e-01 3.0250001e+00 2.9000000e+01 
7.5000000e-01 3.0250001e+00 2.9500000e+01 
7.5000000e-01 3.0250001e+00 3.0000000e+01 
7.5000000e-01 3.0250001e+00 3.0500000e+01 
7.5000000e-01 3.0250001e+00 3.1000000e+01 
7.5000000e-01 3.0250001e+00 3.1500000e+01 
7.5000000e-01 3.0250001e+00 3.2000000e+01 
7.5000000e-01 3.0250001e+00 3.2500000e+01 
7.5000000e-01 3.0250001e+00 3.3000000e+01 
7.5000000e-01 3.0250001e+00 3.3500000e+01 
7.5000000e-01 3.0250001e+00 3.4000000e+01 
7.5000000e-01 3.0250001e+00 3.4500000e+01 
7.5000000e-01 3.0250001e+00 3.5000000e+01 
7.5000000e-01 3.0250001e+00 3.5500000e+01 
7.5000000e-01 3.0250001e+00 3.6000000e+01 
7.5000000e-01 3.0250001e+00 3.6500000e+01 
7.5000000e-01 3.0250001e+00 3.7000000e+01 
7.5000000e-01 3.0250001e+00 3.7500000e+01 
7.5000000e-01 3.0250001e+00 3.8000000e+01 
7.5000000e-01 3.0250001e+00 3.8500000e+01 
7.5000000e-01 3.0250001e+00 3.9000000e+01 
7.5000000e-01 3.0250001e+00 3.9500000e+01 
7.5000000e-01 3.0250001e+00 4.0000000e+01 
7.5000000e-01 3.0250001e+00 4.0500000e+01 
7.5000000e-01 3.0250001e+00 4.1000000e+01 
7.5000000e-01 3.0250001e+00 4.1500000e+01 
7.5000000e-01 3.0250001e+00 4.2000000e+01 
7.5000000e-01 3.0250001e+00 4.2500000e+01 
7.5000000e-01 3.0250001e+00 4.3000000e+01 
7.5000000e-01 3.0250001e+00 4.3500000e+01 
7.5000000e-01 3.0250001e+00 4.4000000e+01 
7.5000000e-01 3.0250001e+00 4.4500000e+01 
7.5000000e-01 3.0250001e+00 4.5000000e+01 
7.5000000e-01 3.0250001e+00 4.5500000e+01 
7.5000000e-01 3.0250001e+00 4.6000000e+01 
7.5000000e-01 3.0250001e+00 4.6500000e+01 
7.5000000e-01 3.0250001e+00 4.7000000e+01 
7.5000000e-01 3.0250001e+00 4.7500000e+01 
7.5000000e-01 3.0250001e+00 4.8000000e+01 
7.5000000e-01 3.0250001e+00 4.8500000e+01 
7.5000000e-01 3.0250001e+00 4.9000000e+01 
7.5000000e-01 3.0250001e+00 4.9500000e+01 
7.5000000e-01 3.0250001e+00 5.0000000e+01 
1.5000000e+00 3.0000000e+00 2.5000000e+01 
3.0000000e+00 2.0000000e+00 2.5000000e+01 
4.0000000e+00 2.0000000e+00 2.5000000e+01 
5.0000000e+00 2.0000000e+00 2.5000000e+01 
0.0000000e+00 3.0000000e+00 2.5000000e+01 
0.0000000e+00 0.0000000e+00 1.0000000e+00 
0.0000000e+00 0.0000000e+00 2.0000000e+00 
0.0000000e+00 0.0000000e+00 3.0000000e+00 
0.0000000e+00 0.0000000e+00 4.0000000e+00 
0.0000000e+00 0.0000000e+00 5.0000000e+00 
[...]
POINT_DATA 1919
FIELD FieldData 3
DISPLACEMENT 3 1919  float
0.0000000e+00 0.0000000e+00 0.0000000e+00 
0.0000000e+00 0.0000000e+00 0.0000000e+00 
0.0000000e+00 0.0000000e+00 0.0000000e+00 
0.0000000e+00 0.0000000e+00 0.0000000e+00 
-5.4385066e-07 4.2258463e-07 6.9598423e-07 
1.0368884e-05 -4.6467521e-06 1.4073091e-05 
0.0000000e+00 2.4395317e-06 0.0000000e+00 
0.0000000e+00 -8.0423333e-06 0.0000000e+00 
-2.7846062e-07 4.7122219e-07 1.0649236e-06 
9.0642725e-06 -2.2386710e-07 1.3989038e-05 
2.0847165e-07 1.2761436e-06 7.8805226e-07 
9.9488116e-06 4.7279946e-06 6.9320954e-06 
0.0000000e+00 3.8978078e-06 0.0000000e+00 
0.0000000e+00 4.2192143e-05 0.0000000e+00 
-5.3621579e-07 5.9052704e-06 8.2476554e-06 
-3.1582826e-05 1.0305519e-04 -2.4565886e-04 
-3.7600776e-07 -2.3828620e-06 4.2919110e-06 
3.4124787e-05 1.9157786e-04 -2.3020063e-04 
0.0000000e+00 3.1922195e-06 0.0000000e+00 
0.0000000e+00 2.6254196e-04 0.0000000e+00 
-1.0020017e-06 -2.4601168e-06 3.9569204e-06 
-1.3819136e-06 -2.7636761e-06 2.6193791e-06 
-2.5561899e-06 -3.2588146e-06 1.0666179e-06 
-3.8311478e-06 -3.9559914e-06 -2.0862772e-06 
-3.2929258e-06 -4.7378130e-06 -4.2918796e-06 
-3.0660285e-06 -5.4828147e-06 -5.2716723e-06 
-1.5783439e-06 -6.1240562e-06 -4.6323466e-06 
-1.9260169e-06 -6.5514032e-06 -4.1402150e-06 
-1.8340326e-06 -6.8428458e-06 -4.5247648e-06 
-2.4604294e-06 -7.0248320e-06 -6.4245501e-06 
-1.2765653e-06 -7.2269877e-06 -7.1785444e-06 
-4.1462212e-07 -7.3799843e-06 -6.5552645e-06 
8.2287534e-07 -7.4791492e-06 -4.2413444e-06 
-6.4995857e-07 -7.3303081e-06 -1.8491128e-06 
-1.5419801e-06 -6.9081875e-06 -9.1732676e-07 
-2.9407333e-06 -6.1625383e-06 -2.0021200e-06 
-3.8053902e-06 -5.3232166e-06 -3.5500047e-06 
-4.4909698e-06 -4.5101892e-06 -3.9261040e-06 
-3.6754559e-06 -3.8911335e-06 -2.6050379e-06 
-3.5237670e-06 -3.3546053e-06 -2.8230431e-07 
-3.1677669e-06 -2.7985830e-06 1.2189464e-06 
-3.3163715e-06 -2.1150822e-06 1.1460106e-06 
-2.3671196e-06 -1.4076880e-06 1.3029477e-07 
-8.9658852e-07 -1.0330995e-06 -7.0961107e-07 
-2.1695161e-07 -1.4222735e-06 -3.0753984e-07 
-4.1454504e-07 -2.5968432e-06 1.5267260e-06 
-8.5814031e-07 -4.2689908e-06 2.8459588e-06 
-1.8551691e-06 -5.7421548e-06 2.7581204e-06 
3.8524554e-08 -6.3468606e-06 3.5970189e-07 
1.2664262e-06 -5.9927920e-06 -3.0631327e-06 
3.5173953e-06 -4.7452481e-06 -4.9115001e-06 
4.6787895e-06 -2.8221482e-06 -4.4073922e-06 
5.6580529e-06 -2.2364414e-07 -3.7250477e-06 
5.8728683e-06 3.5591752e-06 -1.5913082e-06 
4.6537275e-06 9.2319160e-06 -1.3336123e-06 
3.7667321e-06 1.7516037e-05 -6.0779826e-07 
4.9205109e-06 2.9312532e-05 -2.1498479e-08 
9.5806126e-07 4.5091980e-05 5.3705530e-06 
-8.1631316e-07 6.4637657e-05 9.5652122e-06 
-1.6761883e-06 8.4260755e-05 1.8929284e-05 
-1.0342791e-06 9.5091287e-05 2.9798852e-05 
-4.9275872e-07 7.6978955e-05 4.5651468e-05 
-4.7960157e-06 -2.3190012e-06 8.7712426e-05 
-2.2596059e-05 -1.9080576e-04 1.1464341e-04 
-5.1522919e-05 -5.5271131e-04 1.9050638e-04 
-5.4108707e-05 -1.1440367e-03 1.3738152e-04 
-1.4836938e-04 -2.0138237e-03 2.9341783e-04 
-1.8655723e-04 -3.0991009e-03 2.3009995e-04 
-2.3583851e-04 -4.2049382e-03 2.4744653e-04 
-1.6008568e-04 -4.8588808e-03 9.1530761e-05 
-2.6618404e-04 -4.7594090e-03 1.0519416e-05 
-3.1201617e-04 -4.4853007e-03 -4.5281271e-05 
-2.9569582e-04 -4.4808039e-03 -8.7093285e-05 
-3.2680429e-04 -4.6330066e-03 -1.6637197e-04 
-3.0023436e-04 -4.4724760e-03 -2.4640528e-04 
-2.4449718e-04 -3.4561146e-03 -1.8234612e-04 
-1.5538748e-04 -2.2039602e-03 -3.2137864e-04 
-8.4965854e-05 -1.1189203e-03 -1.6416368e-04 
-2.4500936e-05 -3.8060552e-04 -1.8404610e-04 
2.7089388e-06 3.8197355e-05 -7.7507204e-05 
1.3802926e-05 2.1290267e-04 -4.7907091e-05 
1.4683821e-05 2.3837712e-04 -1.5315303e-05 
8.8431270e-06 1.9286052e-04 2.3016028e-06 
5.2987511e-06 1.2534950e-04 -1.5018002e-06 
2.9875057e-06 6.5498054e-05 3.9706856e-06 
8.4894225e-07 2.2228156e-05 -1.7328460e-06 
-1.5041453e-06 -3.3165722e-06 -5.0971738e-07 
-3.4168220e-06 -1.5400006e-05 -3.1714674e-06 
-2.4059793e-06 -1.8825258e-05 -5.1864577e-06 
-5.6216425e-07 -1.7458913e-05 -7.3096398e-06 
3.2295827e-06 -1.4199804e-05 -7.8079083e-06 
3.7527684e-06 -1.0453179e-05 -6.4040341e-06 
4.9959158e-06 -6.5159043e-06 -3.0269023e-06 
3.8603130e-06 -1.6033345e-06 1.1277893e-07 
3.8065934e-06 5.4860661e-06 -1.8277223e-07 
5.5789164e-06 1.6097994e-05 -4.0673754e-06 
5.5357973e-06 3.0937557e-05 -2.5227662e-06 
4.1215571e-06 4.9801467e-05 1.9559031e-06 
3.1102898e-06 7.0837727e-05 7.1725208e-06 
8.9735295e-07 8.7896413e-05 1.8525327e-05 
-4.0835248e-06 8.9573579e-05 3.2771241e-05 
-7.9719630e-06 5.3616568e-05 4.7660666e-05 
-2.1333748e-05 -5.4432247e-05 9.3513387e-05 
-3.1267224e-05 -2.8418080e-04 1.0750811e-04 
-6.1498584e-05 -6.9693109e-04 1.9887422e-04 
-8.0453414e-05 -1.3462006e-03 1.6261566e-04 
-1.3284251e-04 -2.2633709e-03 2.7165056e-04 
-1.6529480e-04 -3.3711905e-03 1.1792486e-04 
-2.3276909e-04 -4.4501335e-03 1.9318689e-04 
-2.5456832e-04 -4.9395580e-03 5.7636687e-05 
-2.4267627e-04 -4.7097011e-03 1.0784282e-05 
-2.4007335e-04 -4.4180332e-03 -1.8016934e-05 
-2.0629590e-04 -4.4212192e-03 -3.1337022e-05 
-2.2721878e-04 -4.5368141e-03 -1.4118812e-04 
-2.1242717e-04 -4.1886759e-03 -2.2406543e-04 
-8.3215127e-05 -3.0533173e-03 -1.9508242e-04 
-9.8334793e-05 -1.7620784e-03 -2.7347729e-04 
-2.6591355e-05 -7.0568180e-04 -2.0931606e-04 
-1.3301168e-05 -3.7425987e-05 -2.1015840e-04 
0.0000000e+00 -2.3830360e-06 0.0000000e+00 
0.0000000e+00 -2.4703725e-06 0.0000000e+00 
0.0000000e+00 -2.7661576e-06 0.0000000e+00 
0.0000000e+00 -3.2687635e-06 0.0000000e+00 
0.0000000e+00 -3.9587881e-06 0.0000000e+00 
0.0000000e+00 -4.7382659e-06 0.0000000e+00 
0.0000000e+00 -5.4886400e-06 0.0000000e+00 
0.0000000e+00 -6.1192864e-06 0.0000000e+00 
0.0000000e+00 -6.5577997e-06 0.0000000e+00 
0.0000000e+00 -6.8427826e-06 0.0000000e+00 
0.0000000e+00 -7.0396040e-06 0.0000000e+00 
0.0000000e+00 -7.2315934e-06 0.0000000e+00 
0.0000000e+00 -7.3969422e-06 0.0000000e+00 
0.0000000e+00 -7.4796358e-06 0.0000000e+00 
0.0000000e+00 -7.3374395e-06 0.0000000e+00 
0.0000000e+00 -6.8996319e-06 0.0000000e+00 
0.0000000e+00 -6.1715218e-06 0.0000000e+00 
0.0000000e+00 -5.3262293e-06 0.0000000e+00 
0.0000000e+00 -4.5293368e-06 0.0000000e+00 
0.0000000e+00 -3.8981261e-06 0.0000000e+00 
0.0000000e+00 -3.3610099e-06 0.0000000e+00 
0.0000000e+00 -2.7913391e-06 0.0000000e+00 
0.0000000e+00 -2.1017165e-06 0.0000000e+00 
0.0000000e+00 -1.4032175e-06 0.0000000e+00 
0.0000000e+00 -1.0532879e-06 0.0000000e+00 
0.0000000e+00 -1.4411187e-06 0.0000000e+00 
0.0000000e+00 -2.6232381e-06 0.0000000e+00 
0.0000000e+00 -4.2727656e-06 0.0000000e+00 
0.0000000e+00 -5.7166735e-06 0.0000000e+00 
0.0000000e+00 -6.3410926e-06 0.0000000e+00 
0.0000000e+00 -5.9880613e-06 0.0000000e+00 
0.0000000e+00 -4.7617928e-06 0.0000000e+00 
0.0000000e+00 -2.8538582e-06 0.0000000e+00 
0.0000000e+00 -2.3695085e-07 0.0000000e+00 
0.0000000e+00 3.5553805e-06 0.0000000e+00 
0.0000000e+00 9.2214641e-06 0.0000000e+00 
0.0000000e+00 1.7536460e-05 0.0000000e+00 
0.0000000e+00 2.9353563e-05 0.0000000e+00 
0.0000000e+00 4.5266843e-05 0.0000000e+00 
0.0000000e+00 6.4915053e-05 0.0000000e+00 
0.0000000e+00 8.4856889e-05 0.0000000e+00 
0.0000000e+00 9.5764131e-05 0.0000000e+00 
0.0000000e+00 7.7895078e-05 0.0000000e+00 
0.0000000e+00 -1.4216411e-06 0.0000000e+00 
0.0000000e+00 -1.9098596e-04 0.0000000e+00 
0.0000000e+00 -5.5307744e-04 0.0000000e+00 
0.0000000e+00 -1.1497785e-03 0.0000000e+00 
0.0000000e+00 -2.0209807e-03 0.0000000e+00 
0.0000000e+00 -3.1133809e-03 0.0000000e+00 
0.0000000e+00 -4.2238235e-03 0.0000000e+00 
0.0000000e+00 -4.8929285e-03 0.0000000e+00 
0.0000000e+00 -4.7824080e-03 0.0000000e+00 
0.0000000e+00 -4.5132684e-03 0.0000000e+00 
0.0000000e+00 -4.5000184e-03 0.0000000e+00 
0.0000000e+00 -4.6638516e-03 0.0000000e+00 
0.0000000e+00 -4.4947853e-03 0.0000000e+00 
0.0000000e+00 -3.4823194e-03 0.0000000e+00 
0.0000000e+00 -2.2156634e-03 0.0000000e+00 
0.0000000e+00 -1.1286436e-03 0.0000000e+00 
0.0000000e+00 -3.8273420e-04 0.0000000e+00 
0.0000000e+00 3.7744816e-05 0.0000000e+00 
0.0000000e+00 2.1397932e-04 0.0000000e+00 
0.0000000e+00 2.4002089e-04 0.0000000e+00 
0.0000000e+00 1.9391588e-04 0.0000000e+00 
0.0000000e+00 1.2638324e-04 0.0000000e+00 
0.0000000e+00 6.5878841e-05 0.0000000e+00 
0.0000000e+00 2.2454122e-05 0.0000000e+00 
0.0000000e+00 -3.3163615e-06 0.0000000e+00 
0.0000000e+00 -1.5472928e-05 0.0000000e+00 
0.0000000e+00 -1.8887733e-05 0.0000000e+00 
0.0000000e+00 -1.7540724e-05 0.0000000e+00 
0.0000000e+00 -1.4263655e-05 0.0000000e+00 
0.0000000e+00 -1.0513548e-05 0.0000000e+00 
0.0000000e+00 -6.5426502e-06 0.0000000e+00 
0.0000000e+00 -1.6105621e-06 0.0000000e+00 
0.0000000e+00 5.5197588e-06 0.0000000e+00 
0.0000000e+00 1.6143140e-05 0.0000000e+00 
0.0000000e+00 3.1028540e-05 0.0000000e+00 
0.0000000e+00 5.0029990e-05 0.0000000e+00 
0.0000000e+00 7.1130868e-05 0.0000000e+00 
0.0000000e+00 8.8473462e-05 0.0000000e+00 
0.0000000e+00 9.0245121e-05 0.0000000e+00 
0.0000000e+00 5.4479908e-05 0.0000000e+00 
0.0000000e+00 -5.3738699e-05 0.0000000e+00 
0.0000000e+00 -2.8439995e-04 0.0000000e+00 
0.0000000e+00 -6.9806963e-04 0.0000000e+00 
0.0000000e+00 -1.3516007e-03 0.0000000e+00 
0.0000000e+00 -2.2711544e-03 0.0000000e+00 
0.0000000e+00 -3.3897376e-03 0.0000000e+00 
0.0000000e+00 -4.4709989e-03 0.0000000e+00 
0.0000000e+00 -4.9706884e-03 0.0000000e+00 
0.0000000e+00 -4.7331876e-03 0.0000000e+00 
0.0000000e+00 -4.4453875e-03 0.0000000e+00 
0.0000000e+00 -4.4427728e-03 0.0000000e+00 
0.0000000e+00 -4.5666946e-03 0.0000000e+00 
0.0000000e+00 -4.2129210e-03 0.0000000e+00 
0.0000000e+00 -3.0728856e-03 0.0000000e+00 
0.0000000e+00 -1.7739726e-03 0.0000000e+00 
0.0000000e+00 -7.1017281e-04 0.0000000e+00 
0.0000000e+00 -3.8205406e-05 0.0000000e+00 
0.0000000e+00 1.9084504e-04 0.0000000e+00 
-6.0100976e-04 -1.4249646e-03 1.3433398e-04 
5.1608935e-05 -8.3805018e-05 -2.6470275e-06 
5.0342620e-05 -1.9179939e-05 -2.5315783e-06 
4.5538734e-05 -1.5060822e-05 3.1721502e-08 
0.0000000e+00 -2.5542255e-03 0.0000000e+00 
0.0000000e+00 0.0000000e+00 0.0000000e+00 
0.0000000e+00 0.0000000e+00 0.0000000e+00 
0.0000000e+00 0.0000000e+00 0.0000000e+00 
0.0000000e+00 0.0000000e+00 0.0000000e+00 
0.0000000e+00 0.0000000e+00 0.0000000e+00 
0.0000000e+00 0.0000000e+00 0.0000000e+00 
0.0000000e+00 0.0000000e+00 0.0000000e+00 
0.0000000e+00 0.0000000e+00 0.0000000e+00 
0.0000000e+00 0.0000000e+00 0.0000000e+00 
0.0000000e+00 0.0000000e+00 0.0000000e+00 
0.0000000e+00 0.0000000e+00 0.0000000e+00 
0.0000000e+00 0.0000000e+00 0.0000000e+00 
0.0000000e+00 0.0000000e+00 0.0000000e+00 
0.0000000e+00 0.0000000e+00 0.0000000e+00 
0.0000000e+00 0.0000000e+00 0.0000000e+00 
0.0000000e+00 0.0000000e+00 0.0000000e+00 
0.0000000e+00 0.0000000e+00 0.0000000e+00 
0.0000000e+00 0.0000000e+00 0.0000000e+00 
0.0000000e+00 0.0000000e+00 0.0000000e+00 
0.0000000e+00 0.0000000e+00 0.0000000e+00 
0.0000000e+00 0.0000000e+00 0.0000000e+00 
0.0000000e+00 0.0000000e+00 0.0000000e+00 
0.0000000e+00 0.0000000e+00 0.0000000e+00 
0.0000000e+00 0.0000000e+00 0.0000000e+00 
0.0000000e+00 0.0000000e+00 0.0000000e+00 
0.0000000e+00 0.0000000e+00 0.0000000e+00 
0.0000000e+00 0.0000000e+00 0.0000000e+00 
0.0000000e+00 0.0000000e+00 0.0000000e+00 
0.0000000e+00 0.0000000e+00 0.0000000e+00 
0.0000000e+00 0.0000000e+00 0.0000000e+00 
0.0000000e+00 0.0000000e+00 0.0000000e+00 
0.0000000e+00 0.0000000e+00 0.0000000e+00 
0.0000000e+00 0.0000000e+00 0.0000000e+00 
0.0000000e+00 0.0000000e+00 0.0000000e+00 
0.0000000e+00 0.0000000e+00 0.0000000e+00 
0.0000000e+00 0.0000000e+00 0.0000000e+00 
0.0000000e+00 0.0000000e+00 0.0000000e+00 
0.0000000e+00 0.0000000e+00 0.0000000e+00 
0.0000000e+00 0.0000000e+00 0.0000000e+00 
0.0000000e+00 0.0000000e+00 0.0000000e+00 
0.0000000e+00 0.0000000e+00 0.0000000e+00 
0.0000000e+00 0.0000000e+00 0.0000000e+00 
0.0000000e+00 0.0000000e+00 0.0000000e+00 
0.0000000e+00 0.0000000e+00 0.0000000e+00 
0.0000000e+00 0.0000000e+00 0.0000000e+00 
0.0000000e+00 0.0000000e+00 0.0000000e+00 
0.0000000e+00 0.0000000e+00 0.0000000e+00 
0.0000000e+00 0.0000000e+00 0.0000000e+00 
0.0000000e+00 0.0000000e+00 0.0000000e+00 
0.0000000e+00 0.0000000e+00 0.0000000e+00 
0.0000000e+00 0.0000000e+00 0.0000000e+00 
0.0000000e+00 0.0000000e+00 0.0000000e+00 
0.0000000e+00 0.0000000e+00 0.0000000e+00 
0.0000000e+00 0.0000000e+00 0.0000000e+00 
0.0000000e+00 0.0000000e+00 0.0000000e+00 
0.0000000e+00 0.0000000e+00 0.0000000e+00 
0.0000000e+00 0.0000000e+00 0.0000000e+00 
0.0000000e+00 0.0000000e+00 0.0000000e+00 
0.0000000e+00 0.0000000e+00 0.0000000e+00 
0.0000000e+00 0.0000000e+00 0.0000000e+00 
0.0000000e+00 0.0000000e+00 0.0000000e+00 
0.0000000e+00 0.0000000e+00 0.0000000e+00 
0.0000000e+00 0.0000000e+00 0.0000000e+00 
0.0000000e+00 0.0000000e+00 0.0000000e+00 
0.0000000e+00 0.0000000e+00 0.0000000e+00 
0.0000000e+00 0.0000000e+00 0.0000000e+00 
0.0000000e+00 0.0000000e+00 0.0000000e+00 
0.0000000e+00 0.0000000e+00 0.0000000e+00 
0.0000000e+00 0.0000000e+00 0.0000000e+00 
0.0000000e+00 0.0000000e+00 0.0000000e+00 
0.0000000e+00 0.0000000e+00 0.0000000e+00 
0.0000000e+00 0.0000000e+00 0.0000000e+00 
0.0000000e+00 0.0000000e+00 0.0000000e+00 
0.0000000e+00 0.0000000e+00 0.0000000e+00 
0.0000000e+00 0.0000000e+00 0.0000000e+00 
0.0000000e+00 0.0000000e+00 0.0000000e+00 
0.0000000e+00 0.0000000e+00 0.0000000e+00 
0.0000000e+00 0.0000000e+00 0.0000000e+00 
0.0000000e+00 0.0000000e+00 0.0000000e+00 
0.0000000e+00 0.0000000e+00 0.0000000e+00 
0.0000000e+00 0.0000000e+00 0.0000000e+00 
0.0000000e+00 0.0000000e+00 0.0000000e+00 
0.0000000e+00 0.0000000e+00 0.0000000e+00 
0.0000000e+00 0.0000000e+00 0.0000000e+00 
0.0000000e+00 0.0000000e+00 0.0000000e+00 
0.0000000e+00 0.0000000e+00 0.0000000e+00 
0.0000000e+00 0.0000000e+00 0.0000000e+00 
0.0000000e+00 0.0000000e+00 0.0000000e+00 
0.0000000e+00 0.0000000e+00 0.0000000e+00 
0.0000000e+00 0.0000000e+00 0.0000000e+00 
0.0000000e+00 0.0000000e+00 0.0000000e+00 
0.0000000e+00 0.0000000e+00 0.0000000e+00 
0.0000000e+00 0.0000000e+00 0.0000000e+00 
0.0000000e+00 0.0000000e+00 0.0000000e+00 
0.0000000e+00 0.0000000e+00 0.0000000e+00 
0.0000000e+00 0.0000000e+00 0.0000000e+00 
0.0000000e+00 0.0000000e+00 0.0000000e+00 
0.0000000e+00 0.0000000e+00 0.0000000e+00 
0.0000000e+00 0.0000000e+00 0.0000000e+00 
0.0000000e+00 0.0000000e+00 0.0000000e+00 
0.0000000e+00 0.0000000e+00 0.0000000e+00 
0.0000000e+00 0.0000000e+00 0.0000000e+00 
0.0000000e+00 0.0000000e+00 0.0000000e+00 
0.0000000e+00 0.0000000e+00 0.0000000e+00 
0.0000000e+00 0.0000000e+00 0.0000000e+00 
0.0000000e+00 0.0000000e+00 0.0000000e+00 
2.2086638e-08 -5.5483632e-08 4.6254411e-07 
3.1992755e-07 -1.6032097e-07 7.1648351e-08 
4.7265974e-07 3.6619188e-08 -4.3904427e-07 
5.1691421e-07 -7.0443051e-08 -6.5572146e-07 
4.4344083e-07 -4.6457907e-07 -7.4707339e-07 
4.4890444e-07 -7.8721075e-07 -7.8609082e-07 
4.7896890e-07 -6.2084462e-07 -9.0422111e-07 
5.8304323e-07 -4.9787837e-07 -8.2888192e-07 
4.4358404e-07 -1.0574757e-07 -7.6466898e-07 
2.3741727e-07 -1.5037813e-07 -6.3470191e-07 
1.4493124e-07 4.8709703e-09 -6.1767906e-07 
-8.8263810e-08 -2.1887142e-07 -8.8927544e-07 
-6.5613612e-08 -5.9640246e-07 -7.8651857e-07 
-9.8630942e-08 -5.6195427e-07 -6.0152621e-07 
-1.0298378e-07 -3.2851926e-07 -2.8764018e-07 
-1.5053736e-07 -4.0353427e-07 -2.7079219e-07 
-1.9063427e-07 -7.0544303e-07 -4.5384860e-07 
3.0490395e-07 -7.7664751e-08 -1.0703742e-06 
1.1085369e-06 4.6563974e-07 -2.5090637e-06 
4.9576220e-06 -1.5481351e-06 -5.6816230e-06 
9.2103774e-06 -4.1553149e-06 -8.2627957e-06 
1.9423276e-05 -7.3517908e-06 -1.1736150e-05 
3.2758624e-05 -1.0602686e-05 -1.1847746e-05 
4.3544514e-05 -1.5296710e-05 -8.4944095e-06 
4.6515172e-05 -1.4784141e-05 -3.0630065e-06 
4.6749465e-05 -1.5263126e-05 5.7207158e-06 
4.0762447e-05 -1.4244574e-05 1.0695032e-05 
2.9582819e-05 -8.6418650e-06 1.4611339e-05 
1.8196726e-05 -6.0159623e-06 1.4245831e-05 
9.2750424e-06 -3.1263098e-06 1.0908543e-05 
4.3945897e-06 -1.1064056e-06 6.3830516e-06 
1.0979338e-06 -1.1626045e-06 2.6234939e-06 
1.7773769e-07 -5.6288587e-07 2.3395108e-07 
-1.4029197e-07 -1.1842644e-07 -8.4823546e-07 
-2.3145338e-07 1.4353276e-07 -1.1866589e-06 
-3.7486225e-07 -6.8362127e-08 -1.4417388e-06 
-2.2968457e-07 -5.6524499e-07 -1.9625363e-06 
7.7282277e-07 -8.3429529e-07 -2.6839089e-06 
2.6405885e-06 -6.7679684e-07 -4.0195778e-06 
5.5706028e-06 -1.4820700e-06 -6.6469343e-06 
1.2028930e-05 -3.9222678e-06 -1.0206848e-05 
2.2479109e-05 -7.7107716e-06 -1.2678080e-05 
3.2971293e-05 -1.1785558e-05 -1.2226541e-05 
4.5268680e-05 -1.6841499e-05 -6.5285203e-06 
4.8797439e-05 -1.7312568e-05 1.0620015e-06 
4.6686837e-05 -1.3896308e-05 6.4349974e-06 
4.5621022e-05 -1.3810849e-05 1.4527677e-05 
2.8675066e-05 -8.3347240e-06 1.7509537e-05 
1.7205561e-05 -4.6424102e-06 1.7097125e-05 
0.0000000e+00 3.5918868e-06 0.0000000e+00 
0.0000000e+00 3.0394121e-06 0.0000000e+00 
0.0000000e+00 2.3562689e-06 0.0000000e+00 
0.0000000e+00 2.7446604e-06 0.0000000e+00 
0.0000000e+00 3.9322194e-06 0.0000000e+00 
0.0000000e+00 5.3226468e-06 0.0000000e+00 
0.0000000e+00 5.3210797e-06 0.0000000e+00 
0.0000000e+00 4.8602860e-06 0.0000000e+00 
0.0000000e+00 4.3761720e-06 0.0000000e+00 
0.0000000e+00 3.4064137e-06 0.0000000e+00 
0.0000000e+00 2.7673243e-06 0.0000000e+00 
0.0000000e+00 2.6631058e-06 0.0000000e+00 
0.0000000e+00 2.2173372e-06 0.0000000e+00 
0.0000000e+00 1.9524959e-06 0.0000000e+00 
0.0000000e+00 4.4293424e-06 0.0000000e+00 
0.0000000e+00 6.5000499e-06 0.0000000e+00 
0.0000000e+00 5.9653162e-06 0.0000000e+00 
0.0000000e+00 3.4465063e-06 0.0000000e+00 
0.0000000e+00 2.3500263e-06 0.0000000e+00 
0.0000000e+00 9.3223031e-07 0.0000000e+00 
0.0000000e+00 -1.3308849e-05 0.0000000e+00 
0.0000000e+00 -6.7683090e-05 0.0000000e+00 
0.0000000e+00 -1.8740165e-04 0.0000000e+00 
0.0000000e+00 -3.8903442e-04 0.0000000e+00 
0.0000000e+00 -5.0579413e-04 0.0000000e+00 
0.0000000e+00 -5.2202324e-04 0.0000000e+00 
0.0000000e+00 -4.8469935e-04 0.0000000e+00 
0.0000000e+00 -3.3720769e-04 0.0000000e+00 
0.0000000e+00 -1.5296026e-04 0.0000000e+00 
0.0000000e+00 -1.5353340e-05 0.0000000e+00 
0.0000000e+00 1.9292796e-05 0.0000000e+00 
0.0000000e+00 1.8723134e-05 0.0000000e+00 
0.0000000e+00 1.2361747e-05 0.0000000e+00 
0.0000000e+00 5.4243637e-06 0.0000000e+00 
0.0000000e+00 3.7426746e-06 0.0000000e+00 
0.0000000e+00 3.2052571e-06 0.0000000e+00 
0.0000000e+00 2.5229076e-06 0.0000000e+00 
0.0000000e+00 1.3374494e-06 0.0000000e+00 
0.0000000e+00 2.6313699e-06 0.0000000e+00 
0.0000000e+00 1.9356342e-07 0.0000000e+00 
0.0000000e+00 -1.7437513e-05 0.0000000e+00 
0.0000000e+00 -8.6828331e-05 0.0000000e+00 
0.0000000e+00 -2.2656842e-04 0.0000000e+00 
0.0000000e+00 -4.0394458e-04 0.0000000e+00 
0.0000000e+00 -5.2047800e-04 0.0000000e+00 
0.0000000e+00 -5.2423886e-04 0.0000000e+00 
0.0000000e+00 -4.7149308e-04 0.0000000e+00 
0.0000000e+00 -3.0772042e-04 0.0000000e+00 
0.0000000e+00 -1.2469030e-04 0.0000000e+00 
-1.6404169e-07 5.4345099e-07 5.9097977e-07 
-4.5559634e-08 5.5939404e-07 3.3453898e-07 
-3.7983688e-07 7.0380378e-07 4.6272322e-07 
-3.9942316e-07 2.1056251e-06 8.3084427e-07 
1.5023933e-05 -2.8378759e-06 1.6472362e-05 
2.0228061e-05 -2.5924546e-06 2.7865815e-05 
1.9578145e-05 -1.3247924e-05 4.1717623e-05 
6.7504361e-06 -1.9533431e-05 6.3592102e-05 
1.6995526e-07 9.4364350e-07 6.8763296e-07 
1.2517587e-05 3.6460594e-07 1.2687433e-05 
5.9165956e-07 3.1002512e-06 1.2058459e-06 
3.1196586e-07 2.0358791e-06 1.1652093e-06 
0.0000000e+00 5.5666314e-06 0.0000000e+00 
0.0000000e+00 4.5097686e-06 0.0000000e+00 
0.0000000e+00 3.7952054e-06 0.0000000e+00 
0.0000000e+00 4.0341538e-06 0.0000000e+00 
0.0000000e+00 5.9544368e-06 0.0000000e+00 
0.0000000e+00 8.2511960e-06 0.0000000e+00 
0.0000000e+00 8.3993600e-06 0.0000000e+00 
0.0000000e+00 7.7283685e-06 0.0000000e+00 
0.0000000e+00 7.1469931e-06 0.0000000e+00 
0.0000000e+00 5.5506571e-06 0.0000000e+00 
0.0000000e+00 4.0744935e-06 0.0000000e+00 
0.0000000e+00 4.6280525e-06 0.0000000e+00 
0.0000000e+00 3.0433007e-06 0.0000000e+00 