# vtk DataFile Version 4.0
vtk output
ASCII
DATASET UNSTRUCTURED_GRID
POINTS 1919 float
0.0000000e+00 0.0000000e+00 0.0000000e+00 
0.0000000e+00 0.0000000e+00 5.0000000e+01 
5.0000000e+00 0.0000000e+00 0.0000000e+00 
5.0000000e+00 0.0000000e+00 5.0000000e+01 
5.0000000e+00 1.0000000e+00 0.0000000e+00 
5.0000000e+00 1.0000000e+00 5.0000000e+01 
0.0000000e+00 1.0000000e+00 0.0000000e+00 
0.0000000e+00 1.0000000e+00 5.0000000e+01 
5.0000000e+00 2.0000000e+00 0.0000000e+00 
5.0000000e+00 2.0000000e+00 5.0000000e+01 
3.0000000e+00 2.0000000e+00 0.0000000e+00 
3.0000000e+00 2.0000000e+00 5.0000000e+01 
0.0000000e+00 2.0000000e+00 0.0000000e+00 
0.0000000e+00 2.0000000e+00 5.0000000e+01 
1.5000000e+00 3.0000000e+00 0.0000000e+00 
1.5000000e+00 3.0000000e+00 5.0000000e+01 
7.5000000e-01 3.0000000e+00 0.0000000e+00 
7.5000000e-01 3.0000000e+00 5.0000000e+01 
0.0000000e+00 3.0000000e+00 0.0000000e+00 
0.0000000e+00 3.0000000e+00 5.0000000e+01 
7.5000000e-01 3.0000000e+00 5.0000000e-01 
7.5000000e-01 3.0000000e+00 1.0000000e+00 
7.5000000e-01 3.0000000e+00 1.5000000e+00 
7.5000000e-01 3.0000000e+00 2.0000000e+00 
7.5000000e-01 3.0000000e+00 2.5000000e+00 
7.5000000e-01 3.0000000e+00 3.0000000e+00 
7.5000000e-01 3.0000000e+00 3.5000000e+00 
7.5000000e-01 3.0000000e+00 4.0000000e+00 
7.5000000e-01 3.0000000e+00 4.5000000e+00 
7.5000000e-01 3.0000000e+00 5.0000000e+00 
7.5000000e-01 3.0000000e+00 5.5000000e+00 
7.5000000e-01 3.0000000e+00 6.0000000e+00 
7.5000000e-01 3.0000000e+00 6.5000000e+00 
7.5000000e-01 3.0000000e+00 7.0000000e+00 
7.5000000e-01 3.0000000e+00 7.5000000e+00 
7.5000000e-01 3.0000000e+00 8.0000000e+00 
7.5000000e-01 3.0000000e+00 8.5000000e+00 
7.5000000e-01 3.0000000e+00 9.0000000e+00 
7.5000000e-01 3.0000000e+00 9.5000000e+00 
7.5000000e-01 3.0000000e+00 1.0000000e+01 
7.5000000e-01 3.0000000e+00 1.0500000e+01 
7.5000000e-01 3.0000000e+00 1.1000000e+01 
7.5000000e-01 3.0000000e+00 1.1500000e+01 
7.5000000e-01 3.0000000e+00 1.2000000e+01 
7.5000000e-01 3.0000000e+00 1.2500000e+01 
7.5000000e-01 3.0000000e+00 1.3000000e+01 
7.5000000e-01 3.0000000e+00 1.3500000e+01 
7.5000000e-01 3.0000000e+00 1.4000000e+01 
7.5000000e-01 3.0000000e+00 1.4500000e+01 
7.5000000e-01 3.0000000e+00 1.5000000e+01 
7.5000000e-01 3.0000000e+00 1.5500000e+01 
7.5000000e-01 3.0000000e+00 1.6000000e+01 
7.5000000e-01 3.0000000e+00 1.6500000e+01 
7.5000000e-01 3.0000000e+00 1.7000000e+01 
7.5000000e-01 3.0000000e+00 1.7500000e+01 
7.5000000e-01 3.0000000e+00 1.8000000e+01 
7.5000000e-01 3.0000000e+00 1.8500000e+01 
7.5000000e-01 3.0000000e+00 1.9000000e+01 
7.5000000e-01 3.0000000e+00 1.9500000e+01 
7.5000000e-01 3.0000000e+00 2.0000000e+01 
7.5000000e-01 3.0000000e+00 2.0500000e+01 
7.5000000e-01 3.0000000e+00 2.1000000e+01 
7.5000000e-01 3.0000000e+00 2.1500000e+01 
7.5000000e-01 3.0000000e+00 2.2000000e+01 
7.5000000e-01 3.0000000e+00 2.2500000e+01 
7.5000000e-01 3.0000000e+00 2.3000000e+01 
7.5000000e-01 3.0000000e+00 2.3500000e+01 
7.5000000e-01 3.0000000e+00 2.4000000e+01 
7.5000000e-01 3.0000000e+00 2.4500000e+01 
7.5000000e-01 3.0000000e+00 2.5000000e+01 
7.5000000e-01 3.0000000e+00 2.5500000e+01 
7.5000000e-01 3.0000000e+00 2.6000000e+01 
7.5000000e-01 3.0000000e+00 2.6500000e+01 
7.5000000e-01 3.0000000e+00 2.7000000e+01 
7.5000000e-01 3.0000000e+00 2.7500000e+01 
7.5000000e-01 3.0000000e+00 2.8000000e+01 
7.5000000e-01 3.0000000e+00 2.8500000e+01 
7.5000000e-01 3.0000000e+00 2.9000000e+01 
7.5000000e-01 3.0000000e+00 2.9500000e+01 
7.5000000e-01 3.0000000e+00 3.0000000e+01 
7.5000000e-01 3.0000000e+00 3.0500000e+01 
7.5000000e-01 3.0000000e+00 3.1000000e+01 
7.5000000e-01 3.0000000e+00 3.1500000e+01 
7.5000000e-01 3.0000000e+00 3.2000000e+01 
7.5000000e-01 3.0000000e+00 3.2500000e+01 
7.5000000e-01 3.0000000e+00 3.3000000e+01 
7.5000000e-01 3.0000000e+00 3.3500000e+01 
7.5000000e-01 3.0000000e+00 3.4000000e+01 
7.5000000e-01 3.0000000e+00 3.4500000e+01 
7.5000000e-01 3.0000000e+00 3.5000000e+01 
7.5000000e-01 3.0000000e+00 3.5500000e+01 
7.5000000e-01 3.0000000e+00 3.6000000e+01 
7.5000000e-01 3.0000000e+00 3.6500000e+01 
7.5000000e-01 3.0000000e+00 3.7000000e+01 
7.5000000e-01 3.0000000e+00 3.7500000e+01 
7.5000000e-01 3.0000000e+00 3.8000000e+01 
7.5000000e-01 3.0000000e+00 3.8500000e+01 
7.5000000e-01 3.0000000e+00 3.9000000e+01 
7.5000000e-01 3.0000000e+00 3.9500000e+01 
7.5000000e-01 3.0000000e+00 4.0000000e+01 
7.5000000e-01 3.0000000e+00 4.0500000e+01 
7.5000000e-01 3.0000000e+00 4.1000000e+01 
7.5000000e-01 3.0000000e+00 4.1500000e+01 
7.5000000e-01 3.0000000e+00 4.2000000e+01 
7.5000000e-01 3.0000000e+00 4.2500000e+01 
7.5000000e-01 3.0000000e+00 4.3000000e+01 
7.5000000e-01 3.0000000e+00 4.3500000e+01 
7.5000000e-01 3.0000000e+00 4.4000000e+01 
7.5000000e-01 3.0000000e+00 4.4500000e+01 
7.5000000e-01 3.0000000e+00 4.5000000e+01 
7.5000000e-01 3.0000000e+00 4.5500000e+01 
7.5000000e-01 3.0000000e+00 4.6000000e+01 
7.5000000e-01 3.0000000e+00 4.6500000e+01 
7.5000000e-01 3.0000000e+00 4.7000000e+01 
7.5000000e-01 3.0000000e+00 4.7500000e+01 
7.5000000e-01 3.0000000e+00 4.8000000e+01 
7.5000000e-01 3.0000000e+00 4.8500000e+01 
7.5000000e-01 3.0000000e+00 4.9000000e+01 
7.5000000e-01 3.0000000e+00 4.9500000e+01 
7.5000000e-01 3.0250001e+00 0.0000000e+00 
7.5000000e-01 3.0250001e+00 5.0000000e-01 
7.5000000e-01 3.0250001e+00 1.0000000e+00 
7.5000000e-01 3.0250001e+00 1.5000000e+00 
7.5000000e-01 3.0250001e+00 2.0000000e+00 
7.5000000e-01 3.0250001e+00 2.5000000e+00 
7.5000000e-01 3.0250001e+00 3.0000000e+00 
7.5000000e-01 3.0250001e+00 3.5000000e+00 
7.5000000e-01 3.0250001e+00 4.0000000e+00 
7.5000000e-01 3.0250001e+00 4.5000000e+00 
7.5000000e-01 3.0250001e+00 5.0000000e+00 
7.5000000e-01 3.0250001e+00 5.5000000e+00 
7.5000000e-01 3.0250001e+00 6.0000000e+00 
7.5000000e-01 3.0250001e+00 6.5000000e+00 
7.5000000e-01 3.0250001e+00 7.0000000e+00 
7.5000000e-01 3.0250001e+00 7.5000000e+00 
7.5000000e-01 3.0250001e+00 8.0000000e+00 
7.5000000e-01 3.0250001e+00 8.5000000e+00 
7.5000000e-01 3.0250001e+00 9.0000000e+00 
7.5000000e-01 3.0250001e+00 9.5000000e+00 
7.5000000e-01 3.0250001e+00 1.0000000e+01 
7.5000000e-01 3.0250001e+00 1.0500000e+01 
7.5000000e-01 3.0250001e+00 1.1000000e+01 
7.5000000e-01 3.0250001e+00 1.1500000e+01 
7.5000000e-01 3.0250001e+00 1.2000000e+01 
7.5000000e-01 3.0250001e+00 1.2500000e+01 
7.5000000e-01 3.0250001e+00 1.3000000e+01 
7.5000000e-01 3.0250001e+00 1.3500000e+01 
7.5000000e-01 3.0250001e+00 1.4000000e+01 
7.5000000e-01 3.0250001e+00 1.4500000e+01 
7.5000000e-01 3.0250001e+00 1.5000000e+01 
7.5000000e-01 3.0250001e+00 1.5500000e+01 
7.5000000e-01 3.0250001e+00 1.6000000e+01 
7.5000000e-01 3.0250001e+00 1.6500000e+01 
7.5000000e-01 3.0250001e+00 1.7000000e+01 
7.5000000e-01 3.0250001e+00 1.7500000e+01 
7.5000000e-01 3.0250001e+00 1.8000000e+01 
7.5000000e-01 3.0250001e+00 1.8500000e+01 
7.5000000e-01 3.0250001e+00 1.9000000e+01 
7.5000000e-01 3.0250001e+00 1.9500000e+01 
7.5000000e-01 3.0250001e+00 2.0000000e+01 
7.5000000e-01 3.0250001e+00 2.0500000e+01 
7.5000000e-01 3.0250001e+00 2.1000000e+01 
7.5000000e-01 3.0250001e+00 2.1500000e+01 
7.5000000e-01 3.0250001e+00 2.2000000e+01 
7.5000000e-01 3.0250001e+00 2.2500000e+01 
7.5000000e-01 3.0250001e+00 2.3000000e+01 
7.5000000e-01 3.0250001e+00 2.3500000e+01 
7.5000000e-01 3.0250001e+00 2.4000000e+01 
7.5000000e-01 3.0250001e+00 2.4500000e+01 
7.5000000e-01 3.0250001e+00 2.5000000e+01 
7.5000000e-01 3.0250001e+00 2.5500000e+01 
7.5000000e-01 3.0250001e+00 2.6000000e+01 
7.5000000e-01 3.0250001e+00 2.6500000e+01 
7.5000000e-01 3.0250001e+00 2.7000000e+01 
7.5000000e-01 3.0250001e+00 2.7500000e+01 
7.5000000e-01 3.0250001e+00 2.8000000e+01 
7.5000000e-01 3.0250001e+00 2.8500000e+01 
7.5000000e-01 3.0250001e+00 2.9000000e+01 
7.5000000e-01 3.0250001e+00 2.9500000e+01 
7.5000000e-01 3.0250001e+00 3.0000000e+01 
7.5000000e-01 3.0250001e+00 3.0500000e+01 
7.5000000e-01 3.0250001e+00 3.1000000e+01 
7.5000000e-01 3.0250001e+00 3.1500000e+01 
7.5000000e-01 3.0250001e+00 3.2000000e+01 
7.5000000e-01 3.0250001e+00 3.2500000e+01 
7.5000000e-01 3.0250001e+00 3.3000000e+01 
7.5000000e-01 3.0250001e+00 3.3500000e+01 
7.5000000e-01 3.0250001e+00 3.4000000e+01 
7.5000000e-01 3.0250001e+00 3.4500000e+01 
7.5000000e-01 3.0250001e+00 3.5000000e+01 
7.5000000e-01 3.0250001e+00 3.5500000e+01 
7.5000000e-01 3.0250001e+00 3.6000000e+01 
7.5000000e-01 3.0250001e+00 3.6500000e+01 
7.5000000e-01 3.0250001e+00 3.7000000e+01 
7.5000000e-01 3.0250001e+00 3.7500000e+01 
7.5000000e-01 3.0250001e+00 3.8000000e+01 
7.5000000e-01 3.0250001e+00 3.8500000e+01 
7.5000000e-01 3.0250001e+00 3.9000000e+01 
7.5000000e-01 3.0250001e+00 3.9500000e+01 
7.5000000e-01 3.0250001e+00 4.0000000e+01 
7.5000000e-01 3.0250001e+00 4.0500000e+01 
7.5000000e-01 3.0250001e+00 4.1000000e+01 
7.5000000e-01 3.0250001e+00 4.1500000e+01 
7.5000000e-01 3.0250001e+00 4.2000000e+01 
7.5000000e-01 3.0250001e+00 4.2500000e+01 
7.5000000e-01 3.0250001e+00 4.3000000e+01 
7.5000000e-01 3.0250001e+00 4.3500000e+01 
7.5000000e-01 3.0250001e+00 4.4000000e+01 
7.5000000e-01 3.0250001e+00 4.4500000e+01 
7.5000000e-01 3.0250001e+00 4.5000000e+01 
7.5000000e-01 3.0250001e+00 4.5500000e+01 
7.5000000e-01 3.0250001e+00 4.6000000e+01 
7.5000000e-01 3.0250001e+00 4.6500000e+01 
7.5000000e-01 3.0250001e+00 4.7000000e+01 
7.5000000e-01 3.0250001e+00 4.7500000e+01 
7.5000000e-01 3.0250001e+00 4.8000000e+01 
7.5000000e-01 3.0250001e+00 4.8500000e+01 
7.5000000e-01 3.0250001e+00 4.9000000e+01 
7.5000000e-01 3.0250001e+00 4.9500000e+01 
7.5000000e-01 3.0250001e+00 5.0000000e+01 
1.5000000e+00 3.0000000e+00 2.5000000e+01 
3.0000000e+00 2.0000000e+00 2.5000000e+01 
4.0000000e+00 2.0000000e+00 2.5000000e+01 
5.0000000e+00 2.0000000e+00 2.5000000e+01 
0.0000000e+00 3.0000000e+00 2.5000000e+01 
0.0000000e+00 0.0000000e+00 1.0000000e+00 
0.0000000e+00 0.0000000e+00 2.0000000e+00 
0.0000000e+00 0.0000000e+00 3.0000000e+00 
0.0000000e+00 0.0000000e+00 4.0000000e+00 
0.0000000e+00 0.0000000e+00 5.0000000e+00 
[...]
POINT_DATA 1919
FIELD FieldData 3
DISPLACEMENT 3 1919  float
0.0000000e+00 0.0000000e+00 0.0000000e+00 
0.0000000e+00 0.0000000e+00 0.0000000e+00 
0.0000000e+00 0.0000000e+00 0.0000000e+00 
0.0000000e+00 0.0000000e+00 0.0000000e+00 
-2.7497208e-06 4.0241430e-06 3.0511897e-06 
-6.3917391e-09 1.9510144e-07 -3.8921158e-07 
0.0000000e+00 -1.4708026e-05 0.0000000e+00 
0.0000000e+00 1.5525876e-06 0.0000000e+00 
-6.6402008e-06 3.9571337e-06 5.7770571e-06 
5.0753968e-08 4.0511526e-07 -1.0270269e-06 
-4.5742822e-06 -2.1176636e-06 2.5648839e-07 
4.0094585e-07 5.0388087e-07 -1.0303078e-06 
0.0000000e+00 -9.3582639e-06 0.0000000e+00 
0.0000000e+00 2.1200342e-06 0.0000000e+00 
1.3107004e-05 1.0003947e-05 -1.3291599e-05 
2.6683483e-06 2.5483705e-06 -3.0873500e-06 
-1.4044873e-06 2.9695080e-05 -4.1788162e-06 
-1.9725306e-07 -1.7741132e-06 3.7860168e-06 
0.0000000e+00 -5.9019176e-06 0.0000000e+00 
0.0000000e+00 2.1475014e-07 0.0000000e+00 
1.5013708e-05 2.9862958e-05 -5.2141017e-06 
1.5527579e-05 2.9200106e-05 -9.5482155e-06 
2.8085013e-05 2.4756871e-05 -1.2574170e-05 
2.7788623e-05 1.5457194e-05 -1.2032324e-05 
2.8051742e-05 4.2260699e-06 -1.1105743e-05 
2.2038666e-05 -4.8742504e-06 -1.4606273e-05 
2.6124704e-05 -8.3920722e-06 -1.1652958e-05 
2.3351473e-05 -7.6533997e-06 -1.1033773e-05 
2.8967499e-05 -8.0474774e-06 -1.2080114e-05 
1.8683722e-05 -1.4457239e-05 -8.9770674e-06 
2.7281047e-05 -2.5470346e-05 -6.1207716e-06 
1.5618501e-05 -3.3220163e-05 4.7239000e-06 
2.1536292e-05 -3.0898311e-05 6.7164151e-06 
6.7085675e-06 -1.7568060e-05 1.2344947e-05 
1.3630469e-05 1.1077525e-07 1.0348073e-05 
1.3954906e-05 1.1747347e-05 5.2771957e-06 
3.2237076e-05 1.5389143e-05 -1.0228098e-05 
2.9207637e-05 2.0301772e-05 -2.3725042e-06 
3.3559034e-05 4.2953605e-05 -2.5411400e-06 
3.2852186e-05 8.9221554e-05 7.0512560e-06 
3.5283749e-05 1.3606418e-04 1.5205705e-05 
3.5975401e-05 1.3063072e-04 2.0209975e-05 
3.7529902e-05 2.0780228e-05 5.5281045e-05 
2.5268302e-05 -2.2868553e-04 9.0804278e-05 
-2.8624034e-05 -6.3519145e-04 1.7618560e-04 
-6.2616491e-05 -1.2152118e-03 1.4710632e-04 
-1.2506932e-04 -2.0166931e-03 2.5808736e-04 
-1.5877430e-04 -3.0386152e-03 1.1194116e-04 
-2.4500728e-04 -4.1549271e-03 1.8236766e-04 
-2.8730178e-04 -4.9035773e-03 4.2093492e-05 
-2.9696629e-04 -4.8599117e-03 -4.8110960e-06 
-2.9071272e-04 -4.5415228e-03 -6.0925297e-05 
-3.3123951e-04 -4.4526621e-03 -8.6302825e-05 
-6.2237785e-04 -4.5874515e-03 -1.5454149e-04 
-2.6139047e-04 -4.4263597e-03 -2.1922537e-04 
-1.6102559e-04 -3.4631442e-03 -1.4924561e-04 
-6.8884074e-05 -2.2060683e-03 -2.8002606e-04 
-3.1262818e-05 -1.1107374e-03 -1.3148838e-04 
2.1483638e-05 -3.7228360e-04 -1.2179648e-04 
3.1936979e-05 2.8247297e-05 -2.9062263e-05 
4.1538900e-05 1.9079819e-04 1.4468745e-06 
3.7725255e-05 2.2044122e-04 2.0019752e-05 
3.9214272e-05 1.8891919e-04 3.9793082e-05 
3.1309439e-05 1.2748079e-04 4.3505272e-05 
2.0874655e-05 5.5883014e-05 4.2505693e-05 
4.4443682e-06 -5.4780339e-06 3.2366919e-05 
1.1780501e-05 -3.9377905e-05 3.3674278e-05 
8.5046613e-06 -4.5420555e-05 5.8545202e-06 
2.6720525e-06 -3.6453785e-05 -1.0319532e-05 
-2.6214584e-06 -2.9706982e-05 -2.0833761e-05 
1.9772806e-05 -3.3419448e-05 -2.0761876e-05 
1.4063899e-05 -4.2545187e-05 -1.0488227e-05 
1.7622822e-05 -4.6542245e-05 -4.0014497e-06 
8.9030855e-06 -3.6007921e-05 2.4413443e-06 
1.5419584e-05 -1.5001210e-05 4.0304491e-07 
1.5604039e-05 6.3863927e-06 2.7583808e-06 
3.7652891e-05 2.2350980e-05 2.1488731e-06 
3.0622090e-05 3.0298481e-05 9.1029151e-06 
3.1605665e-05 3.7681082e-05 6.8098175e-06 
2.9249430e-05 5.7627123e-05 2.7318996e-05 
2.6716179e-05 8.8153472e-05 4.0256793e-05 
2.8043038e-05 9.7508950e-05 5.8313253e-05 
2.0944097e-05 1.8457204e-05 9.9654397e-05 
8.2305869e-06 -2.3539984e-04 1.0694865e-04 
-4.5514371e-05 -7.1225758e-04 1.7371026e-04 
-9.0455076e-05 -1.4096331e-03 1.3344534e-04 
-1.6582018e-04 -2.3152800e-03 2.2895394e-04 
-2.3840134e-04 -3.3484853e-03 6.9880647e-05 
-2.9935065e-04 -4.3445593e-03 1.3338902e-04 
-2.9200519e-04 -4.8795869e-03 9.6950498e-06 
-2.8899778e-04 -4.7748932e-03 -5.9220805e-05 
-2.9046583e-04 -4.5327847e-03 -8.7290122e-05 
-2.8324360e-04 -4.5320955e-03 -8.5104875e-05 
-3.5089246e-04 -4.6235276e-03 -2.0909504e-04 
-3.4167097e-04 -4.3506217e-03 -2.9119538e-04 
-3.9977412e-04 -3.3346966e-03 -4.5138824e-04 
-9.2335678e-05 -2.0629074e-03 -2.5256030e-04 
-1.2130057e-05 -1.0197529e-03 -1.2197896e-04 
2.6645983e-05 -3.3819000e-04 -1.0619732e-04 
2.8063772e-05 3.2093511e-05 -1.7191913e-05 
3.0007424e-05 1.9287998e-04 1.1016023e-05 
2.8567112e-05 2.2578807e-04 3.2997279e-05 
1.4603353e-05 1.8718862e-04 4.5466139e-05 
7.9555502e-06 1.1888973e-04 4.1666804e-05 
-1.8200301e-06 5.6799723e-05 4.0891613e-05 
-8.7188528e-06 1.8589895e-05 2.9966142e-05 
-1.5067216e-05 4.4981784e-06 2.3618884e-05 
-1.2761649e-05 1.7209470e-06 9.6290541e-06 
-1.2936790e-05 -9.2680392e-07 -8.1584603e-06 
-9.0902831e-06 -4.4523863e-06 -1.7793920e-05 
1.2370098e-06 -4.7353728e-06 -2.2855846e-05 
2.1079916e-06 -1.0719115e-06 -1.7051832e-05 
2.2575564e-06 2.9634284e-06 -6.9865096e-06 
1.9861036e-06 4.1845760e-06 -1.1394021e-06 
-2.8250859e-06 2.0387345e-06 -3.3154427e-06 
-2.1794972e-06 -1.1197858e-06 -5.8127926e-06 
3.5667010e-06 -2.9537666e-06 -8.5827369e-06 
3.1518543e-06 -3.0062074e-06 -6.5855397e-06 
3.9353249e-06 -2.2160700e-06 -1.2553395e-06 
0.0000000e+00 2.9798131e-05 0.0000000e+00 
0.0000000e+00 2.9972934e-05 0.0000000e+00 
0.0000000e+00 2.9123472e-05 0.0000000e+00 
0.0000000e+00 2.4578512e-05 0.0000000e+00 
0.0000000e+00 1.5409754e-05 0.0000000e+00 
0.0000000e+00 4.2202173e-06 0.0000000e+00 
0.0000000e+00 -4.6788859e-06 0.0000000e+00 
0.0000000e+00 -8.1665385e-06 0.0000000e+00 
0.0000000e+00 -7.6012752e-06 0.0000000e+00 
0.0000000e+00 -8.2994065e-06 0.0000000e+00 
0.0000000e+00 -1.4833196e-05 0.0000000e+00 
0.0000000e+00 -2.5628269e-05 0.0000000e+00 
0.0000000e+00 -3.3091888e-05 0.0000000e+00 
0.0000000e+00 -3.0478795e-05 0.0000000e+00 
0.0000000e+00 -1.7214923e-05 0.0000000e+00 
0.0000000e+00 -1.6492726e-07 0.0000000e+00 
0.0000000e+00 1.1196096e-05 0.0000000e+00 
0.0000000e+00 1.4845684e-05 0.0000000e+00 
0.0000000e+00 2.0516814e-05 0.0000000e+00 
0.0000000e+00 4.4172248e-05 0.0000000e+00 
0.0000000e+00 9.0934183e-05 0.0000000e+00 
0.0000000e+00 1.3684698e-04 0.0000000e+00 
0.0000000e+00 1.3039639e-04 0.0000000e+00 
0.0000000e+00 1.9501893e-05 0.0000000e+00 
0.0000000e+00 -2.2947029e-04 0.0000000e+00 
0.0000000e+00 -6.3401862e-04 0.0000000e+00 
0.0000000e+00 -1.2172792e-03 0.0000000e+00 
0.0000000e+00 -2.0226249e-03 0.0000000e+00 
0.0000000e+00 -3.0559897e-03 0.0000000e+00 
0.0000000e+00 -4.1759862e-03 0.0000000e+00 
0.0000000e+00 -4.9345251e-03 0.0000000e+00 
0.0000000e+00 -4.8817494e-03 0.0000000e+00 
0.0000000e+00 -4.5682704e-03 0.0000000e+00 
0.0000000e+00 -4.4789850e-03 0.0000000e+00 
0.0000000e+00 -4.6081720e-03 0.0000000e+00 
0.0000000e+00 -4.4547347e-03 0.0000000e+00 
0.0000000e+00 -3.4872235e-03 0.0000000e+00 
0.0000000e+00 -2.2199627e-03 0.0000000e+00 
0.0000000e+00 -1.1211346e-03 0.0000000e+00 
0.0000000e+00 -3.7562978e-04 0.0000000e+00 
0.0000000e+00 2.8834023e-05 0.0000000e+00 
0.0000000e+00 1.9272507e-04 0.0000000e+00 
0.0000000e+00 2.2230933e-04 0.0000000e+00 
0.0000000e+00 1.8943762e-04 0.0000000e+00 
0.0000000e+00 1.2760035e-04 0.0000000e+00 
0.0000000e+00 5.6242934e-05 0.0000000e+00 
0.0000000e+00 -4.6694922e-06 0.0000000e+00 
0.0000000e+00 -3.8956718e-05 0.0000000e+00 
0.0000000e+00 -4.5434172e-05 0.0000000e+00 
0.0000000e+00 -3.6835252e-05 0.0000000e+00 
0.0000000e+00 -3.0075671e-05 0.0000000e+00 
0.0000000e+00 -3.3696229e-05 0.0000000e+00 
0.0000000e+00 -4.2847005e-05 0.0000000e+00 
0.0000000e+00 -4.6226713e-05 0.0000000e+00 
0.0000000e+00 -3.5716846e-05 0.0000000e+00 
0.0000000e+00 -1.4894325e-05 0.0000000e+00 
0.0000000e+00 6.5437412e-06 0.0000000e+00 
0.0000000e+00 2.1877548e-05 0.0000000e+00 
0.0000000e+00 2.9732071e-05 0.0000000e+00 
0.0000000e+00 3.7918599e-05 0.0000000e+00 
0.0000000e+00 5.8808044e-05 0.0000000e+00 
0.0000000e+00 9.0363101e-05 0.0000000e+00 
0.0000000e+00 9.9405057e-05 0.0000000e+00 
0.0000000e+00 1.7182414e-05 0.0000000e+00 
0.0000000e+00 -2.3813109e-04 0.0000000e+00 
0.0000000e+00 -7.1395829e-04 0.0000000e+00 
0.0000000e+00 -1.4138238e-03 0.0000000e+00 
0.0000000e+00 -2.3197688e-03 0.0000000e+00 
0.0000000e+00 -3.3655392e-03 0.0000000e+00 
0.0000000e+00 -4.3658093e-03 0.0000000e+00 
0.0000000e+00 -4.9129478e-03 0.0000000e+00 
0.0000000e+00 -4.7988971e-03 0.0000000e+00 
0.0000000e+00 -4.5596831e-03 0.0000000e+00 
0.0000000e+00 -4.5523974e-03 0.0000000e+00 
0.0000000e+00 -4.6531283e-03 0.0000000e+00 
0.0000000e+00 -4.3753348e-03 0.0000000e+00 
0.0000000e+00 -3.3511508e-03 0.0000000e+00 
0.0000000e+00 -2.0804529e-03 0.0000000e+00 
0.0000000e+00 -1.0282842e-03 0.0000000e+00 
0.0000000e+00 -3.3981376e-04 0.0000000e+00 
0.0000000e+00 3.3291526e-05 0.0000000e+00 
0.0000000e+00 1.9395955e-04 0.0000000e+00 
0.0000000e+00 2.2651606e-04 0.0000000e+00 
0.0000000e+00 1.8781633e-04 0.0000000e+00 
0.0000000e+00 1.2012585e-04 0.0000000e+00 
0.0000000e+00 5.7687583e-05 0.0000000e+00 
0.0000000e+00 1.8971348e-05 0.0000000e+00 
0.0000000e+00 4.2294232e-06 0.0000000e+00 
0.0000000e+00 1.2529091e-06 0.0000000e+00 
0.0000000e+00 -1.0257144e-06 0.0000000e+00 
0.0000000e+00 -4.1968869e-06 0.0000000e+00 
0.0000000e+00 -4.5975298e-06 0.0000000e+00 
0.0000000e+00 -1.2279055e-06 0.0000000e+00 
0.0000000e+00 2.8013517e-06 0.0000000e+00 
0.0000000e+00 4.1346266e-06 0.0000000e+00 
0.0000000e+00 2.1297290e-06 0.0000000e+00 
0.0000000e+00 -1.0271307e-06 0.0000000e+00 
0.0000000e+00 -2.9654068e-06 0.0000000e+00 
0.0000000e+00 -3.0638298e-06 0.0000000e+00 
0.0000000e+00 -2.2291313e-06 0.0000000e+00 
0.0000000e+00 -1.7435261e-06 0.0000000e+00 
1.1219259e-05 -4.5035365e-05 -1.0621734e-05 
1.3412899e-05 4.8360826e-06 1.9352797e-06 
1.0262609e-05 6.1556066e-06 -1.4355873e-06 
-5.1026115e-07 -2.5642614e-06 4.3797518e-06 
0.0000000e+00 5.0555245e-05 0.0000000e+00 
0.0000000e+00 0.0000000e+00 0.0000000e+00 
0.0000000e+00 0.0000000e+00 0.0000000e+00 
0.0000000e+00 0.0000000e+00 0.0000000e+00 
0.0000000e+00 0.0000000e+00 0.0000000e+00 
0.0000000e+00 0.0000000e+00 0.0000000e+00 
0.0000000e+00 0.0000000e+00 0.0000000e+00 
0.0000000e+00 0.0000000e+00 0.0000000e+00 
0.0000000e+00 0.0000000e+00 0.0000000e+00 
0.0000000e+00 0.0000000e+00 0.0000000e+00 
0.0000000e+00 0.0000000e+00 0.0000000e+00 
0.0000000e+00 0.0000000e+00 0.0000000e+00 
0.0000000e+00 0.0000000e+00 0.0000000e+00 
0.0000000e+00 0.0000000e+00 0.0000000e+00 
0.0000000e+00 0.0000000e+00 0.0000000e+00 
0.0000000e+00 0.0000000e+00 0.0000000e+00 
0.0000000e+00 0.0000000e+00 0.0000000e+00 
0.0000000e+00 0.0000000e+00 0.0000000e+00 
0.0000000e+00 0.0000000e+00 0.0000000e+00 
0.0000000e+00 0.0000000e+00 0.0000000e+00 
0.0000000e+00 0.0000000e+00 0.0000000e+00 
0.0000000e+00 0.0000000e+00 0.0000000e+00 
0.0000000e+00 0.0000000e+00 0.0000000e+00 
0.0000000e+00 0.0000000e+00 0.0000000e+00 
0.0000000e+00 0.0000000e+00 0.0000000e+00 
0.0000000e+00 0.0000000e+00 0.0000000e+00 
0.0000000e+00 0.0000000e+00 0.0000000e+00 
0.0000000e+00 0.0000000e+00 0.0000000e+00 
0.0000000e+00 0.0000000e+00 0.0000000e+00 
0.0000000e+00 0.0000000e+00 0.0000000e+00 
0.0000000e+00 0.0000000e+00 0.0000000e+00 
0.0000000e+00 0.0000000e+00 0.0000000e+00 
0.0000000e+00 0.0000000e+00 0.0000000e+00 
0.0000000e+00 0.0000000e+00 0.0000000e+00 
0.0000000e+00 0.0000000e+00 0.0000000e+00 
0.0000000e+00 0.0000000e+00 0.0000000e+00 
0.0000000e+00 0.0000000e+00 0.0000000e+00 
0.0000000e+00 0.0000000e+00 0.0000000e+00 
0.0000000e+00 0.0000000e+00 0.0000000e+00 
0.0000000e+00 0.0000000e+00 0.0000000e+00 
0.0000000e+00 0.0000000e+00 0.0000000e+00 
0.0000000e+00 0.0000000e+00 0.0000000e+00 
0.0000000e+00 0.0000000e+00 0.0000000e+00 
0.0000000e+00 0.0000000e+00 0.0000000e+00 
0.0000000e+00 0.0000000e+00 0.0000000e+00 
0.0000000e+00 0.0000000e+00 0.0000000e+00 
0.0000000e+00 0.0000000e+00 0.0000000e+00 
0.0000000e+00 0.0000000e+00 0.0000000e+00 
0.0000000e+00 0.0000000e+00 0.0000000e+00 
0.0000000e+00 0.0000000e+00 0.0000000e+00 
0.0000000e+00 0.0000000e+00 0.0000000e+00 
0.0000000e+00 0.0000000e+00 0.0000000e+00 
0.0000000e+00 0.0000000e+00 0.0000000e+00 
0.0000000e+00 0.0000000e+00 0.0000000e+00 
0.0000000e+00 0.0000000e+00 0.0000000e+00 
0.0000000e+00 0.0000000e+00 0.0000000e+00 
0.0000000e+00 0.0000000e+00 0.0000000e+00 
0.0000000e+00 0.0000000e+00 0.0000000e+00 
0.0000000e+00 0.0000000e+00 0.0000000e+00 
0.0000000e+00 0.0000000e+00 0.0000000e+00 
0.0000000e+00 0.0000000e+00 0.0000000e+00 
0.0000000e+00 0.0000000e+00 0.0000000e+00 
0.0000000e+00 0.0000000e+00 0.0000000e+00 
0.0000000e+00 0.0000000e+00 0.0000000e+00 
0.0000000e+00 0.0000000e+00 0.0000000e+00 
0.0000000e+00 0.0000000e+00 0.0000000e+00 
0.0000000e+00 0.0000000e+00 0.0000000e+00 
0.0000000e+00 0.0000000e+00 0.0000000e+00 
0.0000000e+00 0.0000000e+00 0.0000000e+00 
0.0000000e+00 0.0000000e+00 0.0000000e+00 
0.0000000e+00 0.0000000e+00 0.0000000e+00 
0.0000000e+00 0.0000000e+00 0.0000000e+00 
0.0000000e+00 0.0000000e+00 0.0000000e+00 
0.0000000e+00 0.0000000e+00 0.0000000e+00 
0.0000000e+00 0.0000000e+00 0.0000000e+00 
0.0000000e+00 0.0000000e+00 0.0000000e+00 
0.0000000e+00 0.0000000e+00 0.0000000e+00 
0.0000000e+00 0.0000000e+00 0.0000000e+00 
0.0000000e+00 0.0000000e+00 0.0000000e+00 
0.0000000e+00 0.0000000e+00 0.0000000e+00 
0.0000000e+00 0.0000000e+00 0.0000000e+00 
0.0000000e+00 0.0000000e+00 0.0000000e+00 
0.0000000e+00 0.0000000e+00 0.0000000e+00 
0.0000000e+00 0.0000000e+00 0.0000000e+00 
0.0000000e+00 0.0000000e+00 0.0000000e+00 
0.0000000e+00 0.0000000e+00 0.0000000e+00 
0.0000000e+00 0.0000000e+00 0.0000000e+00 
0.0000000e+00 0.0000000e+00 0.0000000e+00 
0.0000000e+00 0.0000000e+00 0.0000000e+00 
0.0000000e+00 0.0000000e+00 0.0000000e+00 
0.0000000e+00 0.0000000e+00 0.0000000e+00 
0.0000000e+00 0.0000000e+00 0.0000000e+00 
0.0000000e+00 0.0000000e+00 0.0000000e+00 
0.0000000e+00 0.0000000e+00 0.0000000e+00 
0.0000000e+00 0.0000000e+00 0.0000000e+00 
0.0000000e+00 0.0000000e+00 0.0000000e+00 
0.0000000e+00 0.0000000e+00 0.0000000e+00 
0.0000000e+00 0.0000000e+00 0.0000000e+00 
0.0000000e+00 0.0000000e+00 0.0000000e+00 
0.0000000e+00 0.0000000e+00 0.0000000e+00 
0.0000000e+00 0.0000000e+00 0.0000000e+00 
0.0000000e+00 0.0000000e+00 0.0000000e+00 
0.0000000e+00 0.0000000e+00 0.0000000e+00 
0.0000000e+00 0.0000000e+00 0.0000000e+00 
0.0000000e+00 0.0000000e+00 0.0000000e+00 
0.0000000e+00 0.0000000e+00 0.0000000e+00 
0.0000000e+00 0.0000000e+00 0.0000000e+00 
-2.6507068e-06 2.0520005e-07 2.2952997e-06 
-2.7280528e-06 -2.8917739e-06 1.3464146e-06 
-4.3138216e-06 -4.5350562e-06 2.5584745e-06 
-6.0538478e-06 -5.0419112e-06 1.8514072e-06 
-5.7946218e-06 -5.1561874e-06 -2.9502490e-07 
-7.4140403e-06 -2.0321370e-06 -2.5063741e-07 
-5.1482152e-06 -1.2755286e-06 -2.4077553e-06 
-3.9978245e-06 -8.2730458e-06 -3.4836983e-06 
-4.3576983e-06 -1.0622176e-06 -6.4182823e-06 
2.3520613e-06 -4.9901137e-06 -1.4273135e-05 
9.8397159e-06 -1.5544136e-05 -1.8565670e-05 
1.5477111e-05 -6.9102657e-06 -1.8871133e-05 
3.3126402e-05 -1.2452645e-05 -2.1153497e-05 
4.1594565e-05 -1.4475190e-05 -1.6345624e-05 
4.5586825e-05 -1.2777436e-05 -7.8301236e-06 
4.7162350e-05 -8.6021055e-06 2.1159808e-07 
4.1592804e-05 -7.5699927e-06 8.6018499e-06 
2.6913609e-05 -5.2887481e-06 1.8603901e-05 
1.3163313e-05 -5.7949342e-06 1.8734105e-05 
6.2293293e-06 -3.3876624e-06 2.0277508e-05 
2.2031336e-06 -4.7361473e-06 1.8485161e-05 
-1.3402409e-06 -5.6054978e-06 9.9632935e-06 
-1.9613151e-06 -2.7421790e-06 8.5326801e-06 
-3.8436156e-06 -4.7241870e-06 6.0455186e-06 
-6.3068151e-06 -3.6330748e-06 -1.7352850e-06 
-5.8249507e-06 -6.2962322e-06 1.2436089e-06 
-4.8962161e-06 3.0051860e-06 1.4789089e-06 
-5.5320024e-06 -2.3865030e-06 -5.3442127e-06 
-3.6336492e-06 -8.1991275e-06 -6.7372580e-06 
2.8433512e-06 -3.3103797e-06 -1.3828173e-05 
8.1075332e-06 -5.8491937e-06 -1.7490129e-05 
1.9635696e-05 -1.4860246e-05 -2.1595441e-05 
3.3782049e-05 -6.3189027e-06 -1.9789577e-05 
3.9661245e-05 -1.3756713e-05 -1.9657715e-05 
4.8440805e-05 -8.7242406e-06 -1.3749170e-05 
4.7179296e-05 -9.0418725e-06 -1.4023605e-06 
3.5182889e-05 -9.8369055e-06 7.4581048e-06 
2.2368922e-05 -8.3545510e-06 1.4278862e-05 
1.4303298e-05 -5.6522176e-06 1.4007924e-05 
8.4972062e-06 -3.4534908e-06 1.4274997e-05 
5.7006218e-06 -2.9536045e-06 1.1849309e-05 
3.8351341e-06 -2.1199348e-06 8.4951052e-06 
2.7459282e-06 -1.2380017e-06 5.6877884e-06 
8.1662955e-07 1.1595917e-07 3.2503012e-06 
-5.7402605e-07 -7.5591956e-08 1.4280907e-06 
-7.3618384e-07 -3.1296702e-07 1.0517123e-07 
-4.1783682e-07 -8.8596561e-09 -5.4665293e-07 
2.0715886e-07 -3.9883666e-08 -4.7502687e-07 
9.5080722e-08 -1.8645542e-07 -4.9323749e-08 
0.0000000e+00 -3.8231246e-06 0.0000000e+00 
0.0000000e+00 -1.5220520e-06 0.0000000e+00 
0.0000000e+00 7.7502064e-06 0.0000000e+00 
0.0000000e+00 2.6690261e-05 0.0000000e+00 
0.0000000e+00 2.5125701e-05 0.0000000e+00 
0.0000000e+00 2.3355744e-05 0.0000000e+00 
0.0000000e+00 4.0872001e-05 0.0000000e+00 
0.0000000e+00 2.0219812e-05 0.0000000e+00 
0.0000000e+00 1.2646356e-05 0.0000000e+00 
0.0000000e+00 1.3654344e-05 0.0000000e+00 
0.0000000e+00 -1.3130328e-05 0.0000000e+00 
0.0000000e+00 -1.0103333e-04 0.0000000e+00 
0.0000000e+00 -1.7631474e-04 0.0000000e+00 
0.0000000e+00 -4.1716659e-04 0.0000000e+00 
0.0000000e+00 -5.1376072e-04 0.0000000e+00 
0.0000000e+00 -5.0608383e-04 0.0000000e+00 
0.0000000e+00 -4.6823654e-04 0.0000000e+00 
0.0000000e+00 -3.2857936e-04 0.0000000e+00 
0.0000000e+00 -1.4264499e-04 0.0000000e+00 
0.0000000e+00 -3.0938871e-05 0.0000000e+00 
0.0000000e+00 1.3653241e-05 0.0000000e+00 
0.0000000e+00 2.3315954e-05 0.0000000e+00 
0.0000000e+00 1.7523564e-05 0.0000000e+00 
0.0000000e+00 4.0777973e-05 0.0000000e+00 
0.0000000e+00 4.6673169e-05 0.0000000e+00 
0.0000000e+00 4.1854051e-05 0.0000000e+00 
0.0000000e+00 5.3426076e-05 0.0000000e+00 
0.0000000e+00 5.3923719e-05 0.0000000e+00 
0.0000000e+00 1.2579206e-05 0.0000000e+00 
0.0000000e+00 1.7944980e-05 0.0000000e+00 
0.0000000e+00 -1.2031120e-05 0.0000000e+00 
0.0000000e+00 -1.3522452e-04 0.0000000e+00 
0.0000000e+00 -2.1515790e-04 0.0000000e+00 
0.0000000e+00 -4.3727038e-04 0.0000000e+00 
0.0000000e+00 -5.5314536e-04 0.0000000e+00 
0.0000000e+00 -5.3294777e-04 0.0000000e+00 
0.0000000e+00 -4.6966851e-04 0.0000000e+00 
0.0000000e+00 -3.1737142e-04 0.0000000e+00 
0.0000000e+00 -1.0884679e-04 0.0000000e+00 
0.0000000e+00 -2.3220284e-05 0.0000000e+00 
0.0000000e+00 4.2327056e-06 0.0000000e+00 
0.0000000e+00 5.2037166e-07 0.0000000e+00 
0.0000000e+00 -5.1674010e-07 0.0000000e+00 
0.0000000e+00 2.6608407e-06 0.0000000e+00 
0.0000000e+00 3.3437120e-06 0.0000000e+00 
0.0000000e+00 1.4896716e-06 0.0000000e+00 
0.0000000e+00 9.4352811e-07 0.0000000e+00 
0.0000000e+00 -1.9451882e-06 0.0000000e+00 
0.0000000e+00 3.2179506e-07 0.0000000e+00 
-1.9127353e-06 -5.3872463e-07 1.6999126e-06 
-5.7626602e-07 -1.9138361e-06 -1.5837529e-06 
1.2558980e-06 -2.2432705e-06 -2.2703277e-06 
5.0575557e-07 -6.5455565e-06 -2.7496230e-07 
1.1021380e-07 2.0435809e-07 -7.9384797e-08 
-4.9585054e-08 1.7629435e-07 1.7909025e-07 
-4.7164303e-07 1.0347344e-06 -4.9014619e-07 
-5.6923948e-08 1.4817746e-06 -5.0699163e-07 
-4.7927870e-06 2.3501595e-06 5.3917083e-06 
1.9106741e-07 4.3921045e-07 -8.0556055e-07 
-1.0525590e-06 -2.2638917e-06 1.8834209e-06 
-3.1105139e-06 1.3539490e-06 4.8334500e-06 
0.0000000e+00 -1.2935093e-05 0.0000000e+00 
0.0000000e+00 -1.6785407e-06 0.0000000e+00 
0.0000000e+00 1.8830970e-05 0.0000000e+00 
0.0000000e+00 2.8083114e-05 0.0000000e+00 
0.0000000e+00 2.7643853e-05 0.0000000e+00 
0.0000000e+00 5.3898311e-05 0.0000000e+00 
0.0000000e+00 5.0653533e-05 0.0000000e+00 
0.0000000e+00 3.5289664e-05 0.0000000e+00 
0.0000000e+00 3.5704783e-05 0.0000000e+00 
0.0000000e+00 3.5741396e-05 0.0000000e+00 
0.0000000e+00 -3.6874197e-05 0.0000000e+00 
0.0000000e+00 -1.9585682e-04 0.0000000e+00 
0.0000000e+00 -4.5209806e-04 0.0000000e+00 
0.0000000e+00 -8.9792773e-04 0.0000000e+00 