# vtk DataFile Version 4.0
vtk output
ASCII
DATASET UNSTRUCTURED_GRID
POINTS 1919 float
0.0000000e+00 0.0000000e+00 0.0000000e+00 
0.0000000e+00 0.0000000e+00 5.0000000e+01 
5.0000000e+00 0.0000000e+00 0.0000000e+00 
5.0000000e+00 0.0000000e+00 5.0000000e+01 
5.0000000e+00 1.0000000e+00 0.0000000e+00 
5.0000000e+00 1.0000000e+00 5.0000000e+01 
0.0000000e+00 1.0000000e+00 0.0000000e+00 
0.0000000e+00 1.0000000e+00 5.0000000e+01 
5.0000000e+00 2.0000000e+00 0.0000000e+00 
5.0000000e+00 2.0000000e+00 5.0000000e+01 
3.0000000e+00 2.0000000e+00 0.0000000e+00 
3.0000000e+00 2.0000000e+00 5.0000000e+01 
0.0000000e+00 2.0000000e+00 0.0000000e+00 
0.0000000e+00 2.0000000e+00 5.0000000e+01 
1.5000000e+00 3.0000000e+00 0.0000000e+00 
1.5000000e+00 3.0000000e+00 5.0000000e+01 
7.5000000e-01 3.0000000e+00 0.0000000e+00 
7.5000000e-01 3.0000000e+00 5.0000000e+01 
0.0000000e+00 3.0000000e+00 0.0000000e+00 
0.0000000e+00 3.0000000e+00 5.0000000e+01 
7.5000000e-01 3.0000000e+00 5.0000000e-01 
7.5000000e-01 3.0000000e+00 1.0000000e+00 
7.5000000e-01 3.0000000e+00 1.5000000e+00 
7.5000000e-01 3.0000000e+00 2.0000000e+00 
7.5000000e-01 3.0000000e+00 2.5000000e+00 
7.5000000e-01 3.0000000e+00 3.0000000e+00 
7.5000000e-01 3.0000000e+00 3.5000000e+00 
7.5000000e-01 3.0000000e+00 4.0000000e+00 
7.5000000e-01 3.0000000e+00 4.5000000e+00 
7.5000000e-01 3.0000000e+00 5.0000000e+00 
7.5000000e-01 3.0000000e+00 5.5000000e+00 
7.5000000e-01 3.0000000e+00 6.0000000e+00 
7.5000000e-01 3.0000000e+00 6.5000000e+00 
7.5000000e-01 3.0000000e+00 7.0000000e+00 
7.5000000e-01 3.0000000e+00 7.5000000e+00 
7.5000000e-01 3.0000000e+00 8.0000000e+00 
7.5000000e-01 3.0000000e+00 8.5000000e+00 
7.5000000e-01 3.0000000e+00 9.0000000e+00 
7.5000000e-01 3.0000000e+00 9.5000000e+00 
7.5000000e-01 3.0000000e+00 1.0000000e+01 
7.5000000e-01 3.0000000e+00 1.0500000e+01 
7.5000000e-01 3.0000000e+00 1.1000000e+01 
7.5000000e-01 3.0000000e+00 1.1500000e+01 
7.5000000e-01 3.0000000e+00 1.2000000e+01 
7.5000000e-01 3.0000000e+00 1.2500000e+01 
7.5000000e-01 3.0000000e+00 1.3000000e+01 
7.5000000e-01 3.0000000e+00 1.3500000e+01 
7.5000000e-01 3.0000000e+00 1.4000000e+01 
7.5000000e-01 3.0000000e+00 1.4500000e+01 
7.5000000e-01 3.0000000e+00 1.5000000e+01 
7.5000000e-01 3.0000000e+00 1.5500000e+01 
7.5000000e-01 3.0000000e+00 1.6000000e+01 
7.5000000e-01 3.0000000e+00 1.6500000e+01 
7.5000000e-01 3.0000000e+00 1.7000000e+01 
7.5000000e-01 3.0000000e+00 1.7500000e+01 
7.5000000e-01 3.0000000e+00 1.8000000e+01 
7.5000000e-01 3.0000000e+00 1.8500000e+01 
7.5000000e-01 3.0000000e+00 1.9000000e+01 
7.5000000e-01 3.0000000e+00 1.9500000e+01 
7.5000000e-01 3.0000000e+00 2.0000000e+01 
7.5000000e-01 3.0000000e+00 2.0500000e+01 
7.5000000e-01 3.0000000e+00 2.1000000e+01 
7.5000000e-01 3.0000000e+00 2.1500000e+01 
7.5000000e-01 3.0000000e+00 2.2000000e+01 
7.5000000e-01 3.0000000e+00 2.2500000e+01 
7.5000000e-01 3.0000000e+00 2.3000000e+01 
7.5000000e-01 3.0000000e+00 2.3500000e+01 
7.5000000e-01 3.0000000e+00 2.4000000e+01 
7.5000000e-01 3.0000000e+00 2.4500000e+01 
7.5000000e-01 3.0000000e+00 2.5000000e+01 
7.5000000e-01 3.0000000e+00 2.5500000e+01 
7.5000000e-01 3.0000000e+00 2.6000000e+01 
7.5000000e-01 3.0000000e+00 2.6500000e+01 
7.5000000e-01 3.0000000e+00 2.7000000e+01 
7.5000000e-01 3.0000000e+00 2.7500000e+01 
7.5000000e-01 3.0000000e+00 2.8000000e+01 
7.5000000e-01 3.0000000e+00 2.8500000e+01 
7.5000000e-01 3.0000000e+00 2.9000000e+01 
7.5000000e-01 3.0000000e+00 2.9500000e+01 
7.5000000e-01 3.0000000e+00 3.0000000e+01 
7.5000000e-01 3.0000000e+00 3.0500000e+01 
7.5000000e-01 3.0000000e+00 3.1000000e+01 
7.5000000e-01 3.0000000e+00 3.1500000e+01 
7.5000000e-01 3.0000000e+00 3.2000000e+01 
7.5000000e-01 3.0000000e+00 3.2500000e+01 
7.5000000e-01 3.0000000e+00 3.3000000e+01 
7.5000000e-01 3.0000000e+00 3.3500000e+01 
7.5000000e-01 3.0000000e+00 3.4000000e+01 
7.5000000e-01 3.0000000e+00 3.4500000e+01 
7.5000000e-01 3.0000000e+00 3.5000000e+01 
7.5000000e-01 3.0000000e+00 3.5500000e+01 
7.5000000e-01 3.0000000e+00 3.6000000e+01 
7.5000000e-01 3.0000000e+00 3.6500000e+01 
7.5000000e-01 3.0000000e+00 3.7000000e+01 
7.5000000e-01 3.0000000e+00 3.7500000e+01 
7.5000000e-01 3.0000000e+00 3.8000000e+01 
7.5000000e-01 3.0000000e+00 3.8500000e+01 
7.5000000e-01 3.0000000e+00 3.9000000e+01 
7.5000000e-01 3.0000000e+00 3.9500000e+01 
7.5000000e-01 3.0000000e+00 4.0000000e+01 
7.5000000e-01 3.0000000e+00 4.0500000e+01 
7.5000000e-01 3.0000000e+00 4.1000000e+01 
7.5000000e-01 3.0000000e+00 4.1500000e+01 
7.5000000e-01 3.0000000e+00 4.2000000e+01 
7.5000000e-01 3.0000000e+00 4.2500000e+01 
7.5000000e-01 3.0000000e+00 4.3000000e+01 
7.5000000e-01 3.0000000e+00 4.3500000e+01 
7.5000000e-01 3.0000000e+00 4.4000000e+01 
7.5000000e-01 3.0000000e+00 4.4500000e+01 
7.5000000e-01 3.0000000e+00 4.5000000e+01 
7.5000000e-01 3.0000000e+00 4.5500000e+01 
7.5000000e-01 3.0000000e+00 4.6000000e+01 
7.5000000e-01 3.0000000e+00 4.6500000e+01 
7.5000000e-01 3.0000000e+00 4.7000000e+01 
7.5000000e-01 3.0000000e+00 4.7500000e+01 
7.5000000e-01 3.0000000e+00 4.8000000e+01 
7.5000000e-01 3.0000000e+00 4.8500000e+01 
7.5000000e-01 3.0000000e+00 4.9000000e+01 
7.5000000e-01 3.0000000e+00 4.9500000e+01 
7.5000000e-01 3.0250001e+00 0.0000000e+00 
7.5000000e-01 3.0250001e+00 5.0000000e-01 
7.5000000e-01 3.0250001e+00 1.0000000e+00 
7.5000000e-01 3.0250001e+00 1.5000000e+00 
7.5000000e-01 3.0250001e+00 2.0000000e+00 
7.5000000e-01 3.0250001e+00 2.5000000e+00 
7.5000000e-01 3.0250001e+00 3.0000000e+00 
7.5000000e-01 3.0250001e+00 3.5000000e+00 
7.5000000e-01 3.0250001e+00 4.0000000e+00 
7.5000000e-01 3.0250001e+00 4.5000000e+00 
7.5000000e-01 3.0250001e+00 5.0000000e+00 
7.5000000e-01 3.0250001e+00 5.5000000e+00 
7.5000000e-01 3.0250001e+00 6.0000000e+00 
7.5000000e-01 3.0250001e+00 6.5000000e+00 
7.5000000e-01 3.0250001e+00 7.0000000e+00 
7.5000000e-01 3.0250001e+00 7.5000000e+00 
7.5000000e-01 3.0250001e+00 8.0000000e+00 
7.5000000e-01 3.0250001e+00 8.5000000e+00 
7.5000000e-01 3.0250001e+00 9.0000000e+00 
7.5000000e-01 3.0250001e+00 9.5000000e+00 
7.5000000e-01 3.0250001e+00 1.0000000e+01 
7.5000000e-01 3.0250001e+00 1.0500000e+01 
7.5000000e-01 3.0250001e+00 1.1000000e+01 
7.5000000e-01 3.0250001e+00 1.1500000e+01 
7.5000000e-01 3.0250001e+00 1.2000000e+01 
7.5000000e-01 3.0250001e+00 1.2500000e+01 
7.5000000e-01 3.0250001e+00 1.3000000e+01 
7.5000000e-01 3.0250001e+00 1.3500000e+01 
7.5000000e-01 3.0250001e+00 1.4000000e+01 
7.5000000e-01 3.0250001e+00 1.4500000e+01 
7.5000000e-01 3.0250001e+00 1.5000000e+01 
7.5000000e-01 3.0250001e+00 1.5500000e+01 
7.5000000e-01 3.0250001e+00 1.6000000e+01 
7.5000000e-01 3.0250001e+00 1.6500000e+01 
7.5000000e-01 3.0250001e+00 1.7000000e+01 
7.5000000e-01 3.0250001e+00 1.7500000e+01 
7.5000000e-01 3.0250001e+00 1.8000000e+01 
7.5000000e-01 3.0250001e+00 1.8500000e+01 
7.5000000e-01 3.0250001e+00 1.9000000e+01 
7.5000000e-01 3.0250001e+00 1.9500000e+01 
7.5000000e-01 3.0250001e+00 2.0000000e+01 
7.5000000e-01 3.0250001e+00 2.0500000e+01 
7.5000000e-01 3.0250001e+00 2.1000000e+01 
7.5000000e-01 3.0250001e+00 2.1500000e+01 
7.5000000e-01 3.0250001e+00 2.2000000e+01 
7.5000000e-01 3.0250001e+00 2.2500000e+01 
7.5000000e-01 3.0250001e+00 2.3000000e+01 
7.5000000e-01 3.0250001e+00 2.3500000e+01 
7.5000000e-01 3.0250001e+00 2.4000000e+01 
7.5000000e-01 3.0250001e+00 2.4500000e+01 
7.5000000e-01 3.0250001e+00 2.5000000e+01 
7.5000000e-01 3.0250001e+00 2.5500000e+01 
7.5000000e-01 3.0250001e+00 2.6000000e+01 
7.5000000e-01 3.0250001e+00 2.6500000e+01 
7.5000000e-01 3.0250001e+00 2.7000000e+01 
7.5000000e-01 3.0250001e+00 2.7500000e+01 
7.5000000e-01 3.0250001e+00 2.8000000e+01 
7.5000000e-01 3.0250001e+00 2.8500000e+01 
7.5000000e-01 3.0250001e+00 2.9000000e+01 
7.5000000e-01 3.0250001e+00 2.9500000e+01 
7.5000000e-01 3.0250001e+00 3.0000000e+01 
7.5000000e-01 3.0250001e+00 3.0500000e+01 
7.5000000e-01 3.0250001e+00 3.1000000e+01 
7.5000000e-01 3.0250001e+00 3.1500000e+01 
7.5000000e-01 3.0250001e+00 3.2000000e+01 
7.5000000e-01 3.0250001e+00 3.2500000e+01 
7.5000000e-01 3.0250001e+00 3.3000000e+01 
7.5000000e-01 3.0250001e+00 3.3500000e+01 
7.5000000e-01 3.0250001e+00 3.4000000e+01 
7.5000000e-01 3.0250001e+00 3.4500000e+01 
7.5000000e-01 3.0250001e+00 3.5000000e+01 
7.5000000e-01 3.0250001e+00 3.5500000e+01 
7.5000000e-01 3.0250001e+00 3.6000000e+01 
7.5000000e-01 3.0250001e+00 3.6500000e+01 
7.5000000e-01 3.0250001e+00 3.7000000e+01 
7.5000000e-01 3.0250001e+00 3.7500000e+01 
7.5000000e-01 3.0250001e+00 3.8000000e+01 
7.5000000e-01 3.0250001e+00 3.8500000e+01 
7.5000000e-01 3.0250001e+00 3.9000000e+01 
7.5000000e-01 3.0250001e+00 3.9500000e+01 
7.5000000e-01 3.0250001e+00 4.0000000e+01 
7.5000000e-01 3.0250001e+00 4.0500000e+01 
7.5000000e-01 3.0250001e+00 4.1000000e+01 
7.5000000e-01 3.0250001e+00 4.1500000e+01 
7.5000000e-01 3.0250001e+00 4.2000000e+01 
7.5000000e-01 3.0250001e+00 4.2500000e+01 
7.5000000e-01 3.0250001e+00 4.3000000e+01 
7.5000000e-01 3.0250001e+00 4.3500000e+01 
7.5000000e-01 3.0250001e+00 4.4000000e+01 
7.5000000e-01 3.0250001e+00 4.4500000e+01 
7.5000000e-01 3.0250001e+00 4.5000000e+01 
7.5000000e-01 3.0250001e+00 4.5500000e+01 
7.5000000e-01 3.0250001e+00 4.6000000e+01 
7.5000000e-01 3.0250001e+00 4.6500000e+01 
7.5000000e-01 3.0250001e+00 4.7000000e+01 
7.5000000e-01 3.0250001e+00 4.7500000e+01 
7.5000000e-01 3.0250001e+00 4.8000000e+01 
7.5000000e-01 3.0250001e+00 4.8500000e+01 
7.5000000e-01 3.0250001e+00 4.9000000e+01 
7.5000000e-01 3.0250001e+00 4.9500000e+01 
7.5000000e-01 3.0250001e+00 5.0000000e+01 
1.5000000e+00 3.0000000e+00 2.5000000e+01 
3.0000000e+00 2.0000000e+00 2.5000000e+01 
4.0000000e+00 2.0000000e+00 2.5000000e+01 
5.0000000e+00 2.0000000e+00 2.5000000e+01 
0.0000000e+00 3.0000000e+00 2.5000000e+01 
0.0000000e+00 0.0000000e+00 1.0000000e+00 
0.0000000e+00 0.0000000e+00 2.0000000e+00 
0.0000000e+00 0.0000000e+00 3.0000000e+00 
0.0000000e+00 0.0000000e+00 4.0000000e+00 
0.0000000e+00 0.0000000e+00 5.0000000e+00 
[...]
POINT_DATA 1919
FIELD FieldData 3
DISPLACEMENT 3 1919  float
0.0000000e+00 0.0000000e+00 0.0000000e+00 
0.0000000e+00 0.0000000e+00 0.0000000e+00 
0.0000000e+00 0.0000000e+00 0.0000000e+00 
0.0000000e+00 0.0000000e+00 0.0000000e+00 
-8.4391468e-06 1.3425260e-07 5.2391229e-06 
-2.3032941e-08 4.2957335e-09 -7.1977496e-08 
0.0000000e+00 -2.0572422e-06 0.0000000e+00 
0.0000000e+00 6.0306536e-07 0.0000000e+00 
-9.2361925e-06 -2.6050095e-06 -3.0411815e-07 
-1.0131529e-07 -1.2827634e-07 4.7133696e-08 
-9.9353729e-06 1.0313650e-05 1.0562026e-05 
-6.1880371e-08 -5.2229450e-07 -3.8284159e-07 
0.0000000e+00 -6.2821819e-06 0.0000000e+00 
0.0000000e+00 5.2201295e-07 0.0000000e+00 
-3.2661814e-05 -1.8033244e-05 7.5584307e-05 
-7.0752998e-07 -8.3694864e-09 6.8691338e-07 
7.8652272e-05 -1.1518046e-04 1.1316142e-04 
-9.2403788e-08 -1.8194838e-06 -1.9746132e-07 
0.0000000e+00 2.4056924e-05 0.0000000e+00 
0.0000000e+00 -7.0198422e-07 0.0000000e+00 
-3.6641781e-05 -1.1513699e-04 7.1076916e-05 
-7.0008791e-05 -1.1436307e-04 5.0382740e-05 
-8.4402745e-05 -1.0846454e-04 5.6720637e-05 
-9.2399074e-05 -9.1123722e-05 4.1373103e-05 
-1.0612932e-04 -5.9778806e-05 2.9526173e-05 
-8.2794693e-05 -1.8057945e-05 2.2450706e-05 
-8.9162277e-05 2.3032972e-05 1.3830997e-05 
-6.6304790e-05 5.4300963e-05 1.1220640e-05 
-5.7246714e-05 7.5390373e-05 9.0956773e-06 
-4.9870927e-05 9.3472845e-05 1.4296748e-05 
-4.9505499e-05 1.2088442e-04 2.3642457e-05 
-5.2351672e-05 1.6513723e-04 3.1450814e-05 
-6.5039145e-05 2.0343091e-04 4.7520905e-05 
-5.6902994e-05 1.8124164e-04 7.9957805e-05 
-9.5602118e-05 4.3392563e-05 1.1424293e-04 
-1.0562471e-04 -2.3940326e-04 1.2427205e-04 
-1.7515969e-04 -6.8042782e-04 2.0788191e-04 
-1.8365715e-04 -1.2973386e-03 1.4749545e-04 
-2.6817404e-04 -2.1423416e-03 2.6244842e-04 
-2.7964704e-04 -3.2066680e-03 9.5585208e-05 
-3.7015660e-04 -4.3578041e-03 1.5115186e-04 
-4.3916728e-04 -5.1275077e-03 -2.2072089e-05 
-4.1880072e-04 -5.0815307e-03 -1.3704934e-04 
-3.8819201e-04 -4.7164736e-03 -1.6015171e-04 
-2.9340238e-04 -4.5640683e-03 -1.9761505e-04 
-2.2065245e-04 -4.6014134e-03 -2.3737423e-04 
-1.6375739e-04 -4.4248481e-03 -2.6651958e-04 
-1.4236924e-04 -3.4402937e-03 -2.0313142e-04 
-5.1051444e-05 -2.1669301e-03 -2.5506745e-04 
-2.2538525e-05 -1.0608996e-03 -1.1694633e-04 
1.7875091e-05 -3.1766563e-04 -1.2402420e-04 
2.7311240e-05 8.1731538e-05 -4.1296033e-05 
4.0426847e-05 2.3992463e-04 -8.5836809e-06 
4.2224056e-05 2.6316004e-04 6.2775667e-05 
2.2737537e-05 2.1720231e-04 7.0502618e-05 
1.2046322e-05 1.3832292e-04 5.6961802e-05 
-1.0445225e-05 4.7920767e-05 3.7999769e-05 
-2.8681063e-05 -3.1096642e-05 3.1323783e-05 
-3.7230846e-05 -7.8430654e-05 9.3275930e-06 
-3.8459595e-05 -9.2601520e-05 1.1709722e-05 
-1.7494220e-05 -8.6517088e-05 2.9198103e-05 
-3.5529163e-05 -7.6609082e-05 4.1902389e-05 
-6.1534476e-05 -7.0675582e-05 5.9890121e-05 
-6.2871382e-05 -6.4426982e-05 5.0882296e-05 
-8.6709435e-05 -4.5586079e-05 3.8116905e-05 
-5.9510985e-05 -3.7783998e-06 1.1099256e-05 
-7.7333920e-05 5.5720426e-05 -8.8301831e-06 
-7.4382522e-05 1.1278924e-04 -2.4870877e-05 
-2.9355711e-05 1.5010589e-04 -8.1664675e-06 
-4.6798257e-05 1.6573374e-04 7.4785553e-06 
-4.5182169e-05 1.6855884e-04 -7.5985117e-06 
-4.1607709e-05 1.7904016e-04 1.5948215e-05 
-5.5587749e-05 1.9943964e-04 3.9416031e-05 
-3.9918228e-05 1.9137881e-04 5.3420023e-05 
-8.5061802e-05 8.0765960e-05 1.1669174e-04 
-9.8981945e-05 -2.1938515e-04 1.3600454e-04 
-1.8012691e-04 -7.5580663e-04 2.1678112e-04 
-2.0770842e-04 -1.5179970e-03 1.4748104e-04 
-2.9986899e-04 -2.4832354e-03 2.4448082e-04 
-3.4865728e-04 -3.5647424e-03 3.5232311e-05 
-4.2039633e-04 -4.5947595e-03 8.2019498e-05 
-4.4326848e-04 -5.1425789e-03 -5.8038975e-05 
-4.0941386e-04 -5.0317240e-03 -1.9102126e-04 
-3.8334701e-04 -4.7465428e-03 -2.0304396e-04 
-3.2227254e-04 -4.6876017e-03 -2.3452681e-04 
-3.1566742e-04 -4.6852063e-03 -2.8106279e-04 
-2.1987170e-04 -4.3108608e-03 -3.4090670e-04 
-1.5873488e-04 -3.2061257e-03 -1.8509892e-04 
-6.2858249e-05 -1.9532449e-03 -2.4618814e-04 
-3.4795294e-06 -9.2755089e-04 -6.4414751e-05 
1.4420267e-05 -2.6584044e-04 -7.1195740e-05 
1.9542078e-05 8.8167282e-05 2.2636025e-06 
2.3480086e-05 2.3469148e-04 3.3023342e-05 
1.1192694e-05 2.5429789e-04 7.3693845e-05 
-7.5705984e-06 2.0243204e-04 9.2567316e-05 
-4.4182671e-05 1.2141807e-04 8.9126559e-05 
-4.9005361e-05 4.7796013e-05 -1.8172666e-07 
-4.3066684e-05 5.0361673e-06 -3.1200405e-05 
-1.7202301e-05 -7.1792456e-06 -5.5203549e-05 
-5.6754229e-06 -4.8051788e-06 -5.0055467e-05 
1.5474470e-05 -2.2914994e-06 -4.0370145e-05 
2.0267187e-05 -2.3322129e-06 -2.5970459e-05 
1.9273688e-05 -2.1379217e-06 -4.3841155e-06 
1.4655432e-05 -6.7485317e-08 4.3664377e-06 
5.4041193e-06 1.0761772e-06 8.2645929e-06 
5.7894641e-07 -5.8959563e-07 9.4309962e-06 
-2.9287842e-06 -3.9078886e-06 6.4433925e-06 
-3.7351006e-06 -6.0919278e-06 4.1825460e-06 
-3.2118521e-06 -5.2586724e-06 1.2585768e-06 
-1.9087547e-06 -2.5661666e-06 1.6975633e-07 
-1.6915111e-06 -1.5463000e-07 -3.4496171e-07 
-8.1487178e-07 1.1108575e-06 -7.4903119e-07 
6.7472229e-07 1.7193049e-06 -7.6265781e-07 
7.3572863e-07 2.1412534e-06 2.6873047e-07 
1.2709925e-06 2.2523316e-06 -5.2656907e-07 
1.4859188e-07 1.7770618e-06 -5.4679003e-07 
-1.2374598e-07 7.0831862e-07 1.2065556e-07 
3.1566978e-07 -5.3633426e-07 -4.2010551e-08 
-1.3836041e-07 -1.4672778e-06 2.4335972e-07 
0.0000000e+00 -1.1511147e-04 0.0000000e+00 
0.0000000e+00 -1.1532083e-04 0.0000000e+00 
0.0000000e+00 -1.1468273e-04 0.0000000e+00 
0.0000000e+00 -1.0858941e-04 0.0000000e+00 
0.0000000e+00 -9.0971058e-05 0.0000000e+00 
0.0000000e+00 -5.9352351e-05 0.0000000e+00 
0.0000000e+00 -1.7921155e-05 0.0000000e+00 
0.0000000e+00 2.2851587e-05 0.0000000e+00 
0.0000000e+00 5.4040051e-05 0.0000000e+00 
0.0000000e+00 7.4988602e-05 0.0000000e+00 
0.0000000e+00 9.3381655e-05 0.0000000e+00 
0.0000000e+00 1.2222081e-04 0.0000000e+00 
0.0000000e+00 1.6706846e-04 0.0000000e+00 
0.0000000e+00 2.0436395e-04 0.0000000e+00 
0.0000000e+00 1.8063388e-04 0.0000000e+00 
0.0000000e+00 4.2245225e-05 0.0000000e+00 
0.0000000e+00 -2.3990228e-04 0.0000000e+00 
0.0000000e+00 -6.7919825e-04 0.0000000e+00 
0.0000000e+00 -1.3001079e-03 0.0000000e+00 
0.0000000e+00 -2.1482159e-03 0.0000000e+00 
0.0000000e+00 -3.2238939e-03 0.0000000e+00 
0.0000000e+00 -4.3795654e-03 0.0000000e+00 
0.0000000e+00 -5.1602586e-03 0.0000000e+00 
0.0000000e+00 -5.1015820e-03 0.0000000e+00 
0.0000000e+00 -4.7447053e-03 0.0000000e+00 
0.0000000e+00 -4.5842831e-03 0.0000000e+00 
0.0000000e+00 -4.6325992e-03 0.0000000e+00 
0.0000000e+00 -4.4492376e-03 0.0000000e+00 
0.0000000e+00 -3.4644015e-03 0.0000000e+00 
0.0000000e+00 -2.1809896e-03 0.0000000e+00 
0.0000000e+00 -1.0712130e-03 0.0000000e+00 
0.0000000e+00 -3.2107646e-04 0.0000000e+00 
0.0000000e+00 8.2460450e-05 0.0000000e+00 
0.0000000e+00 2.4221410e-04 0.0000000e+00 
0.0000000e+00 2.6449264e-04 0.0000000e+00 
0.0000000e+00 2.1785007e-04 0.0000000e+00 
0.0000000e+00 1.3845865e-04 0.0000000e+00 
0.0000000e+00 4.8275288e-05 0.0000000e+00 
0.0000000e+00 -3.0188921e-05 0.0000000e+00 
0.0000000e+00 -7.8016492e-05 0.0000000e+00 
0.0000000e+00 -9.2734692e-05 0.0000000e+00 
0.0000000e+00 -8.6892018e-05 0.0000000e+00 
0.0000000e+00 -7.6939541e-05 0.0000000e+00 
0.0000000e+00 -7.1014249e-05 0.0000000e+00 
0.0000000e+00 -6.4575848e-05 0.0000000e+00 
0.0000000e+00 -4.5101649e-05 0.0000000e+00 
0.0000000e+00 -3.0531976e-06 0.0000000e+00 
0.0000000e+00 5.5926324e-05 0.0000000e+00 
0.0000000e+00 1.1248097e-04 0.0000000e+00 
0.0000000e+00 1.4980019e-04 0.0000000e+00 
0.0000000e+00 1.6507716e-04 0.0000000e+00 
0.0000000e+00 1.6917798e-04 0.0000000e+00 
0.0000000e+00 1.8086756e-04 0.0000000e+00 
0.0000000e+00 2.0165689e-04 0.0000000e+00 
0.0000000e+00 1.9295643e-04 0.0000000e+00 
0.0000000e+00 7.9462268e-05 0.0000000e+00 
0.0000000e+00 -2.2226304e-04 0.0000000e+00 
0.0000000e+00 -7.5753871e-04 0.0000000e+00 
0.0000000e+00 -1.5220442e-03 0.0000000e+00 
0.0000000e+00 -2.4876797e-03 0.0000000e+00 
0.0000000e+00 -3.5821088e-03 0.0000000e+00 
0.0000000e+00 -4.6163332e-03 0.0000000e+00 
0.0000000e+00 -5.1779142e-03 0.0000000e+00 
0.0000000e+00 -5.0540972e-03 0.0000000e+00 
0.0000000e+00 -4.7753789e-03 0.0000000e+00 
0.0000000e+00 -4.7058333e-03 0.0000000e+00 
0.0000000e+00 -4.7149407e-03 0.0000000e+00 
0.0000000e+00 -4.3330295e-03 0.0000000e+00 
0.0000000e+00 -3.2329897e-03 0.0000000e+00 
0.0000000e+00 -1.9653060e-03 0.0000000e+00 
0.0000000e+00 -9.3583675e-04 0.0000000e+00 
0.0000000e+00 -2.6737043e-04 0.0000000e+00 
0.0000000e+00 8.9307847e-05 0.0000000e+00 
0.0000000e+00 2.3578583e-04 0.0000000e+00 
0.0000000e+00 2.5503023e-04 0.0000000e+00 
0.0000000e+00 2.0305421e-04 0.0000000e+00 
0.0000000e+00 1.2231743e-04 0.0000000e+00 
0.0000000e+00 4.8937338e-05 0.0000000e+00 
0.0000000e+00 5.5527780e-06 0.0000000e+00 
0.0000000e+00 -7.4312861e-06 0.0000000e+00 
0.0000000e+00 -5.3351805e-06 0.0000000e+00 
0.0000000e+00 -2.4292503e-06 0.0000000e+00 
0.0000000e+00 -2.2330551e-06 0.0000000e+00 
0.0000000e+00 -2.0015646e-06 0.0000000e+00 
0.0000000e+00 -1.9907517e-07 0.0000000e+00 
0.0000000e+00 9.3616086e-07 0.0000000e+00 
0.0000000e+00 -5.8218205e-07 0.0000000e+00 
0.0000000e+00 -3.8165381e-06 0.0000000e+00 
0.0000000e+00 -5.9758659e-06 0.0000000e+00 
0.0000000e+00 -5.2654404e-06 0.0000000e+00 
0.0000000e+00 -2.6540515e-06 0.0000000e+00 
0.0000000e+00 -1.9762413e-07 0.0000000e+00 
0.0000000e+00 1.1523570e-06 0.0000000e+00 
0.0000000e+00 1.7526326e-06 0.0000000e+00 
0.0000000e+00 2.1125479e-06 0.0000000e+00 
0.0000000e+00 2.2133049e-06 0.0000000e+00 
0.0000000e+00 1.7704215e-06 0.0000000e+00 
0.0000000e+00 7.4323736e-07 0.0000000e+00 
0.0000000e+00 -5.0037664e-07 0.0000000e+00 
0.0000000e+00 -1.4733157e-06 0.0000000e+00 
0.0000000e+00 -1.8427108e-06 0.0000000e+00 
-4.5860488e-06 1.6779634e-04 9.1036800e-06 
2.6936561e-05 2.4238609e-05 9.6320500e-06 
3.0850173e-05 1.2215804e-05 -3.8894345e-06 
2.5699079e-05 2.2576809e-05 -1.4279618e-05 
0.0000000e+00 -1.3140848e-04 0.0000000e+00 
0.0000000e+00 0.0000000e+00 0.0000000e+00 
0.0000000e+00 0.0000000e+00 0.0000000e+00 
0.0000000e+00 0.0000000e+00 0.0000000e+00 
0.0000000e+00 0.0000000e+00 0.0000000e+00 
0.0000000e+00 0.0000000e+00 0.0000000e+00 
0.0000000e+00 0.0000000e+00 0.0000000e+00 
0.0000000e+00 0.0000000e+00 0.0000000e+00 
0.0000000e+00 0.0000000e+00 0.0000000e+00 
0.0000000e+00 0.0000000e+00 0.0000000e+00 
0.0000000e+00 0.0000000e+00 0.0000000e+00 
0.0000000e+00 0.0000000e+00 0.0000000e+00 
0.0000000e+00 0.0000000e+00 0.0000000e+00 
0.0000000e+00 0.0000000e+00 0.0000000e+00 
0.0000000e+00 0.0000000e+00 0.0000000e+00 
0.0000000e+00 0.0000000e+00 0.0000000e+00 
0.0000000e+00 0.0000000e+00 0.0000000e+00 
0.0000000e+00 0.0000000e+00 0.0000000e+00 
0.0000000e+00 0.0000000e+00 0.0000000e+00 
0.0000000e+00 0.0000000e+00 0.0000000e+00 
0.0000000e+00 0.0000000e+00 0.0000000e+00 
0.0000000e+00 0.0000000e+00 0.0000000e+00 
0.0000000e+00 0.0000000e+00 0.0000000e+00 
0.0000000e+00 0.0000000e+00 0.0000000e+00 
0.0000000e+00 0.0000000e+00 0.0000000e+00 
0.0000000e+00 0.0000000e+00 0.0000000e+00 
0.0000000e+00 0.0000000e+00 0.0000000e+00 
0.0000000e+00 0.0000000e+00 0.0000000e+00 
0.0000000e+00 0.0000000e+00 0.0000000e+00 
0.0000000e+00 0.0000000e+00 0.0000000e+00 
0.0000000e+00 0.0000000e+00 0.0000000e+00 
0.0000000e+00 0.0000000e+00 0.0000000e+00 
0.0000000e+00 0.0000000e+00 0.0000000e+00 
0.0000000e+00 0.0000000e+00 0.0000000e+00 
0.0000000e+00 0.0000000e+00 0.0000000e+00 
0.0000000e+00 0.0000000e+00 0.0000000e+00 
0.0000000e+00 0.0000000e+00 0.0000000e+00 
0.0000000e+00 0.0000000e+00 0.0000000e+00 
0.0000000e+00 0.0000000e+00 0.0000000e+00 
0.0000000e+00 0.0000000e+00 0.0000000e+00 
0.0000000e+00 0.0000000e+00 0.0000000e+00 
0.0000000e+00 0.0000000e+00 0.0000000e+00 
0.0000000e+00 0.0000000e+00 0.0000000e+00 
0.0000000e+00 0.0000000e+00 0.0000000e+00 
0.0000000e+00 0.0000000e+00 0.0000000e+00 
0.0000000e+00 0.0000000e+00 0.0000000e+00 
0.0000000e+00 0.0000000e+00 0.0000000e+00 
0.0000000e+00 0.0000000e+00 0.0000000e+00 
0.0000000e+00 0.0000000e+00 0.0000000e+00 
0.0000000e+00 0.0000000e+00 0.0000000e+00 
0.0000000e+00 0.0000000e+00 0.0000000e+00 
0.0000000e+00 0.0000000e+00 0.0000000e+00 
0.0000000e+00 0.0000000e+00 0.0000000e+00 
0.0000000e+00 0.0000000e+00 0.0000000e+00 
0.0000000e+00 0.0000000e+00 0.0000000e+00 
0.0000000e+00 0.0000000e+00 0.0000000e+00 
0.0000000e+00 0.0000000e+00 0.0000000e+00 
0.0000000e+00 0.0000000e+00 0.0000000e+00 
0.0000000e+00 0.0000000e+00 0.0000000e+00 
0.0000000e+00 0.0000000e+00 0.0000000e+00 
0.0000000e+00 0.0000000e+00 0.0000000e+00 
0.0000000e+00 0.0000000e+00 0.0000000e+00 
0.0000000e+00 0.0000000e+00 0.0000000e+00 
0.0000000e+00 0.0000000e+00 0.0000000e+00 
0.0000000e+00 0.0000000e+00 0.0000000e+00 
0.0000000e+00 0.0000000e+00 0.0000000e+00 
0.0000000e+00 0.0000000e+00 0.0000000e+00 
0.0000000e+00 0.0000000e+00 0.0000000e+00 
0.0000000e+00 0.0000000e+00 0.0000000e+00 
0.0000000e+00 0.0000000e+00 0.0000000e+00 
0.0000000e+00 0.0000000e+00 0.0000000e+00 
0.0000000e+00 0.0000000e+00 0.0000000e+00 
0.0000000e+00 0.0000000e+00 0.0000000e+00 
0.0000000e+00 0.0000000e+00 0.0000000e+00 
0.0000000e+00 0.0000000e+00 0.0000000e+00 
0.0000000e+00 0.0000000e+00 0.0000000e+00 
0.0000000e+00 0.0000000e+00 0.0000000e+00 
0.0000000e+00 0.0000000e+00 0.0000000e+00 
0.0000000e+00 0.0000000e+00 0.0000000e+00 
0.0000000e+00 0.0000000e+00 0.0000000e+00 
0.0000000e+00 0.0000000e+00 0.0000000e+00 
0.0000000e+00 0.0000000e+00 0.0000000e+00 
0.0000000e+00 0.0000000e+00 0.0000000e+00 
0.0000000e+00 0.0000000e+00 0.0000000e+00 
0.0000000e+00 0.0000000e+00 0.0000000e+00 
0.0000000e+00 0.0000000e+00 0.0000000e+00 
0.0000000e+00 0.0000000e+00 0.0000000e+00 
0.0000000e+00 0.0000000e+00 0.0000000e+00 
0.0000000e+00 0.0000000e+00 0.0000000e+00 
0.0000000e+00 0.0000000e+00 0.0000000e+00 
0.0000000e+00 0.0000000e+00 0.0000000e+00 
0.0000000e+00 0.0000000e+00 0.0000000e+00 
0.0000000e+00 0.0000000e+00 0.0000000e+00 
0.0000000e+00 0.0000000e+00 0.0000000e+00 
0.0000000e+00 0.0000000e+00 0.0000000e+00 
0.0000000e+00 0.0000000e+00 0.0000000e+00 
0.0000000e+00 0.0000000e+00 0.0000000e+00 
0.0000000e+00 0.0000000e+00 0.0000000e+00 
0.0000000e+00 0.0000000e+00 0.0000000e+00 
0.0000000e+00 0.0000000e+00 0.0000000e+00 
0.0000000e+00 0.0000000e+00 0.0000000e+00 
0.0000000e+00 0.0000000e+00 0.0000000e+00 
0.0000000e+00 0.0000000e+00 0.0000000e+00 
0.0000000e+00 0.0000000e+00 0.0000000e+00 
0.0000000e+00 0.0000000e+00 0.0000000e+00 
0.0000000e+00 0.0000000e+00 0.0000000e+00 
0.0000000e+00 0.0000000e+00 0.0000000e+00 
-6.9939174e-06 5.9872650e-06 8.6205564e-06 
-2.3914304e-06 1.3533454e-05 8.4777148e-06 
3.9457559e-06 1.4233246e-05 1.7890143e-06 
9.6693220e-06 1.0624947e-05 -3.9476295e-06 
1.4725425e-05 1.0266934e-05 -6.7299525e-06 
2.6511210e-05 1.7421809e-05 -9.8938508e-06 
2.7147455e-05 6.8627824e-06 -1.1041730e-05 
3.1942120e-05 1.1598204e-05 -1.0971774e-05 
3.8402901e-05 1.4021700e-05 -9.9939944e-06 
3.8047030e-05 4.5312104e-06 -1.4185631e-05 
3.7989532e-05 -2.4198507e-06 -1.5909260e-05 
3.9031103e-05 -7.0523697e-06 -1.4997065e-05 
3.3569795e-05 -1.3960247e-05 -1.1521644e-05 
2.0481129e-05 -1.1639343e-05 -3.3638346e-06 
1.2561167e-05 -5.4264160e-06 2.8805252e-06 
1.0282676e-05 -1.5849730e-06 1.1495523e-05 
7.2446146e-06 -1.6612070e-06 2.2225779e-05 
3.2232849e-06 -4.9802879e-06 2.4179177e-05 
-1.1113862e-06 -3.2921209e-06 2.0968315e-05 
-5.7254279e-06 2.6773764e-06 1.5560729e-05 
-5.5809351e-06 3.8067494e-06 7.5124126e-06 
1.5084236e-06 1.6806500e-05 1.3634398e-06 
5.1416073e-06 1.7389035e-05 -4.8441048e-06 
1.5280990e-05 9.3155868e-06 -8.7971875e-06 
1.8781539e-05 1.3000596e-05 -8.5488846e-06 
2.6151523e-05 1.8327792e-05 -5.9311351e-06 
3.4322766e-05 1.0080204e-05 -6.9907551e-06 
3.6296144e-05 8.6366881e-06 -1.4098810e-05 
4.4899858e-05 8.4101302e-06 -1.3060020e-05 
4.2827927e-05 -7.6585252e-07 -1.2837171e-05 
3.6336969e-05 -4.5103639e-06 -1.2051375e-05 
3.1121250e-05 -9.8552555e-06 -1.0031425e-05 
2.2674045e-05 -9.1392403e-06 -3.7414422e-06 
1.8071354e-05 -5.9132371e-06 7.3516226e-06 
1.2715604e-05 -3.9281363e-06 1.2716802e-05 
9.9754088e-06 -5.9804756e-06 1.8484547e-05 
7.9134379e-06 -2.9081866e-06 2.0583806e-05 
5.7026591e-06 -1.4381923e-06 1.7985214e-05 
4.6587179e-06 -3.6210909e-06 1.2523990e-05 
3.2111509e-06 -4.5767952e-06 5.0304261e-06 
6.8027146e-07 -1.0123816e-07 3.8772501e-07 
-6.2450874e-07 3.0784056e-06 -3.1066666e-06 
-8.7023523e-07 1.6804231e-06 -4.8293118e-06 
-9.5238818e-07 -6.0465567e-07 -2.8511436e-06 
-3.3796482e-07 -1.1409448e-07 -4.6866768e-07 
4.4313327e-07 6.6107745e-08 7.1818738e-07 
2.6151434e-07 -9.3291710e-08 1.0613328e-06 
-3.5666908e-08 -2.6622268e-07 3.2404469e-07 
8.7550994e-08 5.0798111e-08 1.2478957e-08 
0.0000000e+00 1.4220032e-05 0.0000000e+00 
0.0000000e+00 1.3257833e-05 0.0000000e+00 
0.0000000e+00 1.8863107e-05 0.0000000e+00 
0.0000000e+00 -6.0469124e-06 0.0000000e+00 
0.0000000e+00 -2.7308073e-05 0.0000000e+00 
0.0000000e+00 6.9287817e-06 0.0000000e+00 
0.0000000e+00 -3.4827070e-05 0.0000000e+00 
0.0000000e+00 -1.3347597e-04 0.0000000e+00 
0.0000000e+00 -2.1129426e-04 0.0000000e+00 
0.0000000e+00 -3.8017437e-04 0.0000000e+00 
0.0000000e+00 -4.7822538e-04 0.0000000e+00 
0.0000000e+00 -4.9250241e-04 0.0000000e+00 
0.0000000e+00 -4.6269086e-04 0.0000000e+00 
0.0000000e+00 -3.1888584e-04 0.0000000e+00 
0.0000000e+00 -1.7228958e-04 0.0000000e+00 
0.0000000e+00 -6.3346139e-05 0.0000000e+00 
0.0000000e+00 8.0469754e-06 0.0000000e+00 
0.0000000e+00 1.8494511e-05 0.0000000e+00 
0.0000000e+00 7.8567864e-06 0.0000000e+00 
0.0000000e+00 1.5591680e-05 0.0000000e+00 
0.0000000e+00 1.3930885e-05 0.0000000e+00 
0.0000000e+00 -1.1825455e-05 0.0000000e+00 
0.0000000e+00 -2.0206990e-05 0.0000000e+00 
0.0000000e+00 -2.9505977e-06 0.0000000e+00 
0.0000000e+00 -6.1411083e-05 0.0000000e+00 
0.0000000e+00 -8.6760250e-05 0.0000000e+00 
0.0000000e+00 -5.4479442e-05 0.0000000e+00 
0.0000000e+00 -1.5996772e-04 0.0000000e+00 
0.0000000e+00 -2.4265969e-04 0.0000000e+00 
0.0000000e+00 -3.5873070e-04 0.0000000e+00 
0.0000000e+00 -5.0105335e-04 0.0000000e+00 
0.0000000e+00 -5.0654111e-04 0.0000000e+00 
0.0000000e+00 -4.5973205e-04 0.0000000e+00 
0.0000000e+00 -3.1416409e-04 0.0000000e+00 
0.0000000e+00 -1.4288904e-04 0.0000000e+00 
0.0000000e+00 -2.0742147e-05 0.0000000e+00 
0.0000000e+00 1.0766540e-05 0.0000000e+00 
0.0000000e+00 1.6074895e-05 0.0000000e+00 
0.0000000e+00 2.5511838e-06 0.0000000e+00 
0.0000000e+00 3.9131983e-06 0.0000000e+00 
0.0000000e+00 5.5368646e-06 0.0000000e+00 
0.0000000e+00 -2.4335168e-06 0.0000000e+00 
0.0000000e+00 -2.9501709e-06 0.0000000e+00 
0.0000000e+00 4.2376377e-07 0.0000000e+00 
0.0000000e+00 1.3947434e-06 0.0000000e+00 
0.0000000e+00 2.3637907e-07 0.0000000e+00 
0.0000000e+00 -9.0265382e-07 0.0000000e+00 
0.0000000e+00 -6.8872339e-07 0.0000000e+00 
0.0000000e+00 -4.0348505e-07 0.0000000e+00 
-6.7420447e-06 3.5062440e-06 7.9910924e-06 
-3.8011544e-06 1.0214334e-05 1.3458135e-05 
-9.0907031e-07 3.9063434e-06 1.3555029e-05 
9.1585434e-07 4.2633028e-06 6.1716642e-06 
6.3357831e-08 -1.2763252e-07 -5.2692473e-09 
1.4775159e-07 -1.7718506e-07 -4.0857262e-07 
-1.3370196e-07 1.0798141e-07 -4.3216835e-07 
-1.9266906e-08 3.4897322e-08 -4.4805171e-07 
-8.3762907e-06 2.5431618e-06 5.0545333e-07 
-2.1433351e-07 -7.0674588e-08 -3.8215779e-07 
9.0287895e-06 -2.2948512e-05 1.9508848e-06 
-9.3153250e-07 3.8639510e-06 2.6333877e-05 
0.0000000e+00 -1.1998783e-06 0.0000000e+00 
0.0000000e+00 2.6791377e-05 0.0000000e+00 
0.0000000e+00 5.7721627e-06 0.0000000e+00 
0.0000000e+00 -2.1907756e-05 0.0000000e+00 
0.0000000e+00 -2.2345785e-05 0.0000000e+00 
0.0000000e+00 -1.2681663e-05 0.0000000e+00 
0.0000000e+00 -7.0273607e-05 0.0000000e+00 
0.0000000e+00 -2.3297967e-04 0.0000000e+00 
0.0000000e+00 -4.5812197e-04 0.0000000e+00 
0.0000000e+00 -8.8148942e-04 0.0000000e+00 
0.0000000e+00 -1.1065205e-03 0.0000000e+00 
0.0000000e+00 -1.0637436e-03 0.0000000e+00 
0.0000000e+00 -9.8464859e-04 0.0000000e+00 