# vtk DataFile Version 4.0
vtk output
ASCII
DATASET UNSTRUCTURED_GRID
POINTS 1919 float
0.0000000e+00 0.0000000e+00 0.0000000e+00 
0.0000000e+00 0.0000000e+00 5.0000000e+01 
5.0000000e+00 0.0000000e+00 0.0000000e+00 
5.0000000e+00 0.0000000e+00 5.0000000e+01 
5.0000000e+00 1.0000000e+00 0.0000000e+00 
5.0000000e+00 1.0000000e+00 5.0000000e+01 
0.0000000e+00 1.0000000e+00 0.0000000e+00 
0.0000000e+00 1.0000000e+00 5.0000000e+01 
5.0000000e+00 2.0000000e+00 0.0000000e+00 
5.0000000e+00 2.0000000e+00 5.0000000e+01 
3.0000000e+00 2.0000000e+00 0.0000000e+00 
3.0000000e+00 2.0000000e+00 5.0000000e+01 
0.0000000e+00 2.0000000e+00 0.0000000e+00 
0.0000000e+00 2.0000000e+00 5.0000000e+01 
1.5000000e+00 3.0000000e+00 0.0000000e+00 
1.5000000e+00 3.0000000e+00 5.0000000e+01 
7.5000000e-01 3.0000000e+00 0.0000000e+00 
7.5000000e-01 3.0000000e+00 5.0000000e+01 
0.0000000e+00 3.0000000e+00 0.0000000e+00 
0.0000000e+00 3.0000000e+00 5.0000000e+01 
7.5000000e-01 3.0000000e+00 5.0000000e-01 
7.5000000e-01 3.0000000e+00 1.0000000e+00 
7.5000000e-01 3.0000000e+00 1.5000000e+00 
7.5000000e-01 3.0000000e+00 2.0000000e+00 
7.5000000e-01 3.0000000e+00 2.5000000e+00 
7.5000000e-01 3.0000000e+00 3.0000000e+00 
7.5000000e-01 3.0000000e+00 3.5000000e+00 
7.5000000e-01 3.0000000e+00 4.0000000e+00 
7.5000000e-01 3.0000000e+00 4.5000000e+00 
7.5000000e-01 3.0000000e+00 5.0000000e+00 
7.5000000e-01 3.0000000e+00 5.5000000e+00 
7.5000000e-01 3.0000000e+00 6.0000000e+00 
7.5000000e-01 3.0000000e+00 6.5000000e+00 
7.5000000e-01 3.0000000e+00 7.0000000e+00 
7.5000000e-01 3.0000000e+00 7.5000000e+00 
7.5000000e-01 3.0000000e+00 8.0000000e+00 
7.5000000e-01 3.0000000e+00 8.5000000e+00 
7.5000000e-01 3.0000000e+00 9.0000000e+00 
7.5000000e-01 3.0000000e+00 9.5000000e+00 
7.5000000e-01 3.0000000e+00 1.0000000e+01 
7.5000000e-01 3.0000000e+00 1.0500000e+01 
7.5000000e-01 3.0000000e+00 1.1000000e+01 
7.5000000e-01 3.0000000e+00 1.1500000e+01 
7.5000000e-01 3.0000000e+00 1.2000000e+01 
7.5000000e-01 3.0000000e+00 1.2500000e+01 
7.5000000e-01 3.0000000e+00 1.3000000e+01 
7.5000000e-01 3.0000000e+00 1.3500000e+01 
7.5000000e-01 3.0000000e+00 1.4000000e+01 
7.5000000e-01 3.0000000e+00 1.4500000e+01 
7.5000000e-01 3.0000000e+00 1.5000000e+01 
7.5000000e-01 3.0000000e+00 1.5500000e+01 
7.5000000e-01 3.0000000e+00 1.6000000e+01 
7.5000000e-01 3.0000000e+00 1.6500000e+01 
7.5000000e-01 3.0000000e+00 1.7000000e+01 
7.5000000e-01 3.0000000e+00 1.7500000e+01 
7.5000000e-01 3.0000000e+00 1.8000000e+01 
7.5000000e-01 3.0000000e+00 1.8500000e+01 
7.5000000e-01 3.0000000e+00 1.9000000e+01 
7.5000000e-01 3.0000000e+00 1.9500000e+01 
7.5000000e-01 3.0000000e+00 2.0000000e+01 
7.5000000e-01 3.0000000e+00 2.0500000e+01 
7.5000000e-01 3.0000000e+00 2.1000000e+01 
7.5000000e-01 3.0000000e+00 2.1500000e+01 
7.5000000e-01 3.0000000e+00 2.2000000e+01 
7.5000000e-01 3.0000000e+00 2.2500000e+01 
7.5000000e-01 3.0000000e+00 2.3000000e+01 
7.5000000e-01 3.0000000e+00 2.3500000e+01 
7.5000000e-01 3.0000000e+00 2.4000000e+01 
7.5000000e-01 3.0000000e+00 2.4500000e+01 
7.5000000e-01 3.0000000e+00 2.5000000e+01 
7.5000000e-01 3.0000000e+00 2.5500000e+01 
7.5000000e-01 3.0000000e+00 2.6000000e+01 
7.5000000e-01 3.0000000e+00 2.6500000e+01 
7.5000000e-01 3.0000000e+00 2.7000000e+01 
7.5000000e-01 3.0000000e+00 2.7500000e+01 
7.5000000e-01 3.0000000e+00 2.8000000e+01 
7.5000000e-01 3.0000000e+00 2.8500000e+01 
7.5000000e-01 3.0000000e+00 2.9000000e+01 
7.5000000e-01 3.0000000e+00 2.9500000e+01 
7.5000000e-01 3.0000000e+00 3.0000000e+01 
7.5000000e-01 3.0000000e+00 3.0500000e+01 
7.5000000e-01 3.0000000e+00 3.1000000e+01 
7.5000000e-01 3.0000000e+00 3.1500000e+01 
7.5000000e-01 3.0000000e+00 3.2000000e+01 
7.5000000e-01 3.0000000e+00 3.2500000e+01 
7.5000000e-01 3.0000000e+00 3.3000000e+01 
7.5000000e-01 3.0000000e+00 3.3500000e+01 
7.5000000e-01 3.0000000e+00 3.4000000e+01 
7.5000000e-01 3.0000000e+00 3.4500000e+01 
7.5000000e-01 3.0000000e+00 3.5000000e+01 
7.5000000e-01 3.0000000e+00 3.5500000e+01 
7.5000000e-01 3.0000000e+00 3.6000000e+01 
7.5000000e-01 3.0000000e+00 3.6500000e+01 
7.5000000e-01 3.0000000e+00 3.7000000e+01 
7.5000000e-01 3.0000000e+00 3.7500000e+01 
7.5000000e-01 3.0000000e+00 3.8000000e+01 
7.5000000e-01 3.0000000e+00 3.8500000e+01 
7.5000000e-01 3.0000000e+00 3.9000000e+01 
7.5000000e-01 3.0000000e+00 3.9500000e+01 
7.5000000e-01 3.0000000e+00 4.0000000e+01 
7.5000000e-01 3.0000000e+00 4.0500000e+01 
7.5000000e-01 3.0000000e+00 4.1000000e+01 
7.5000000e-01 3.0000000e+00 4.1500000e+01 
7.5000000e-01 3.0000000e+00 4.2000000e+01 
7.5000000e-01 3.0000000e+00 4.2500000e+01 
7.5000000e-01 3.0000000e+00 4.3000000e+01 
7.5000000e-01 3.0000000e+00 4.3500000e+01 
7.5000000e-01 3.0000000e+00 4.4000000e+01 
7.5000000e-01 3.0000000e+00 4.4500000e+01 
7.5000000e-01 3.0000000e+00 4.5000000e+01 
7.5000000e-01 3.0000000e+00 4.5500000e+01 
7.5000000e-01 3.0000000e+00 4.6000000e+01 
7.5000000e-01 3.0000000e+00 4.6500000e+01 
7.5000000e-01 3.0000000e+00 4.7000000e+01 
7.5000000e-01 3.0000000e+00 4.7500000e+01 
7.5000000e-01 3.0000000e+00 4.8000000e+01 
7.5000000e-01 3.0000000e+00 4.8500000e+01 
7.5000000e-01 3.0000000e+00 4.9000000e+01 
7.5000000e-01 3.0000000e+00 4.9500000e+01 
7.5000000e-01 3.0250001e+00 0.0000000e+00 
7.5000000e-01 3.0250001e+00 5.0000000e-01 
7.5000000e-01 3.0250001e+00 1.0000000e+00 
7.5000000e-01 3.0250001e+00 1.5000000e+00 
7.5000000e-01 3.0250001e+00 2.0000000e+00 
7.5000000e-01 3.0250001e+00 2.5000000e+00 
7.5000000e-01 3.0250001e+00 3.0000000e+00 
7.5000000e-01 3.0250001e+00 3.5000000e+00 
7.5000000e-01 3.0250001e+00 4.0000000e+00 
7.5000000e-01 3.0250001e+00 4.5000000e+00 
7.5000000e-01 3.0250001e+00 5.0000000e+00 
7.5000000e-01 3.0250001e+00 5.5000000e+00 
7.5000000e-01 3.0250001e+00 6.0000000e+00 
7.5000000e-01 3.0250001e+00 6.5000000e+00 
7.5000000e-01 3.0250001e+00 7.0000000e+00 
7.5000000e-01 3.0250001e+00 7.5000000e+00 
7.5000000e-01 3.0250001e+00 8.0000000e+00 
7.5000000e-01 3.0250001e+00 8.5000000e+00 
7.5000000e-01 3.0250001e+00 9.0000000e+00 
7.5000000e-01 3.0250001e+00 9.5000000e+00 
7.5000000e-01 3.0250001e+00 1.0000000e+01 
7.5000000e-01 3.0250001e+00 1.0500000e+01 
7.5000000e-01 3.0250001e+00 1.1000000e+01 
7.5000000e-01 3.0250001e+00 1.1500000e+01 
7.5000000e-01 3.0250001e+00 1.2000000e+01 
7.5000000e-01 3.0250001e+00 1.2500000e+01 
7.5000000e-01 3.0250001e+00 1.3000000e+01 
7.5000000e-01 3.0250001e+00 1.3500000e+01 
7.5000000e-01 3.0250001e+00 1.4000000e+01 
7.5000000e-01 3.0250001e+00 1.4500000e+01 
7.5000000e-01 3.0250001e+00 1.5000000e+01 
7.5000000e-01 3.0250001e+00 1.5500000e+01 
7.5000000e-01 3.0250001e+00 1.6000000e+01 
7.5000000e-01 3.0250001e+00 1.6500000e+01 
7.5000000e-01 3.0250001e+00 1.7000000e+01 
7.5000000e-01 3.0250001e+00 1.7500000e+01 
7.5000000e-01 3.0250001e+00 1.8000000e+01 
7.5000000e-01 3.0250001e+00 1.8500000e+01 
7.5000000e-01 3.0250001e+00 1.9000000e+01 
7.5000000e-01 3.0250001e+00 1.9500000e+01 
7.5000000e-01 3.0250001e+00 2.0000000e+01 
7.5000000e-01 3.0250001e+00 2.0500000e+01 
7.5000000e-01 3.0250001e+00 2.1000000e+01 
7.5000000e-01 3.0250001e+00 2.1500000e+01 
7.5000000e-01 3.0250001e+00 2.2000000e+01 
7.5000000e-01 3.0250001e+00 2.2500000e+01 
7.5000000e-01 3.0250001e+00 2.3000000e+01 
7.5000000e-01 3.0250001e+00 2.3500000e+01 
7.5000000e-01 3.0250001e+00 2.4000000e+01 
7.5000000e-01 3.0250001e+00 2.4500000e+01 
7.5000000e-01 3.0250001e+00 2.5000000e+01 
7.5000000e-01 3.0250001e+00 2.5500000e+01 
7.5000000e-01 3.0250001e+00 2.6000000e+01 
7.5000000e-01 3.0250001e+00 2.6500000e+01 
7.5000000e-01 3.0250001e+00 2.7000000e+01 
7.5000000e-01 3.0250001e+00 2.7500000e+01 
7.5000000e-01 3.0250001e+00 2.8000000e+01 
7.5000000e-01 3.0250001e+00 2.8500000e+01 
7.5000000e-01 3.0250001e+00 2.9000000e+01 
7.5000000e-01 3.0250001e+00 2.9500000e+01 
7.5000000e-01 3.0250001e+00 3.0000000e+01 
7.5000000e-01 3.0250001e+00 3.0500000e+01 
7.5000000e-01 3.0250001e+00 3.1000000e+01 
7.5000000e-01 3.0250001e+00 3.1500000e+01 
7.5000000e-01 3.0250001e+00 3.2000000e+01 
7.5000000e-01 3.0250001e+00 3.2500000e+01 
7.5000000e-01 3.0250001e+00 3.3000000e+01 
7.5000000e-01 3.0250001e+00 3.3500000e+01 
7.5000000e-01 3.0250001e+00 3.4000000e+01 
7.5000000e-01 3.0250001e+00 3.4500000e+01 
7.5000000e-01 3.0250001e+00 3.5000000e+01 
7.5000000e-01 3.0250001e+00 3.5500000e+01 
7.5000000e-01 3.0250001e+00 3.6000000e+01 
7.5000000e-01 3.0250001e+00 3.6500000e+01 
7.5000000e-01 3.0250001e+00 3.7000000e+01 
7.5000000e-01 3.0250001e+00 3.7500000e+01 
7.5000000e-01 3.0250001e+00 3.8000000e+01 
7.5000000e-01 3.0250001e+00 3.8500000e+01 
7.5000000e-01 3.0250001e+00 3.9000000e+01 
7.5000000e-01 3.0250001e+00 3.9500000e+01 
7.5000000e-01 3.0250001e+00 4.0000000e+01 
7.5000000e-01 3.0250001e+00 4.0500000e+01 
7.5000000e-01 3.0250001e+00 4.1000000e+01 
7.5000000e-01 3.0250001e+00 4.1500000e+01 
7.5000000e-01 3.0250001e+00 4.2000000e+01 
7.5000000e-01 3.0250001e+00 4.2500000e+01 
7.5000000e-01 3.0250001e+00 4.3000000e+01 
7.5000000e-01 3.0250001e+00 4.3500000e+01 
7.5000000e-01 3.0250001e+00 4.4000000e+01 
7.5000000e-01 3.0250001e+00 4.4500000e+01 
7.5000000e-01 3.0250001e+00 4.5000000e+01 
7.5000000e-01 3.0250001e+00 4.5500000e+01 
7.5000000e-01 3.0250001e+00 4.6000000e+01 
7.5000000e-01 3.0250001e+00 4.6500000e+01 
7.5000000e-01 3.0250001e+00 4.7000000e+01 
7.5000000e-01 3.0250001e+00 4.7500000e+01 
7.5000000e-01 3.0250001e+00 4.8000000e+01 
7.5000000e-01 3.0250001e+00 4.8500000e+01 
7.5000000e-01 3.0250001e+00 4.9000000e+01 
7.5000000e-01 3.0250001e+00 4.9500000e+01 
7.5000000e-01 3.0250001e+00 5.0000000e+01 
1.5000000e+00 3.0000000e+00 2.5000000e+01 
3.0000000e+00 2.0000000e+00 2.5000000e+01 
4.0000000e+00 2.0000000e+00 2.5000000e+01 
5.0000000e+00 2.0000000e+00 2.5000000e+01 
0.0000000e+00 3.0000000e+00 2.5000000e+01 
0.0000000e+00 0.0000000e+00 1.0000000e+00 
0.0000000e+00 0.0000000e+00 2.0000000e+00 
0.0000000e+00 0.0000000e+00 3.0000000e+00 
0.0000000e+00 0.0000000e+00 4.0000000e+00 
0.0000000e+00 0.0000000e+00 5.0000000e+00 
[...]
POINT_DATA 1919
FIELD FieldData 3
DISPLACEMENT 3 1919  float
0.0000000e+00 0.0000000e+00 0.0000000e+00 
0.0000000e+00 0.0000000e+00 0.0000000e+00 
0.0000000e+00 0.0000000e+00 0.0000000e+00 
0.0000000e+00 0.0000000e+00 0.0000000e+00 
-5.4291206e-07 4.1499649e-07 6.8849317e-07 
1.0622124e-05 -4.7908261e-06 1.4485691e-05 
0.0000000e+00 2.4185426e-06 0.0000000e+00 
0.0000000e+00 -1.0718134e-05 0.0000000e+00 
-2.7507076e-07 4.5524226e-07 1.0480288e-06 
9.1769298e-06 -2.4399128e-07 1.4313751e-05 
2.0743617e-07 1.2626826e-06 7.8088107e-07 
9.9962708e-06 4.1015387e-06 7.1546169e-06 
0.0000000e+00 3.8854942e-06 0.0000000e+00 
0.0000000e+00 3.7820573e-05 0.0000000e+00 
-5.1921376e-07 5.8962692e-06 8.2384940e-06 
-3.4230383e-05 9.9226192e-05 -2.4977961e-04 
-3.7849298e-07 -2.4050296e-06 4.2661995e-06 
3.4674602e-05 1.7740511e-04 -2.3537646e-04 
0.0000000e+00 3.2116479e-06 0.0000000e+00 
0.0000000e+00 2.6168287e-04 0.0000000e+00 
-9.9232057e-07 -2.4864044e-06 3.9271677e-06 
-1.3889356e-06 -2.8008383e-06 2.5921022e-06 
-2.5749969e-06 -3.3104814e-06 1.0375749e-06 
-3.8693192e-06 -4.0226405e-06 -2.1075525e-06 
-3.3302385e-06 -4.8146103e-06 -4.2948473e-06 
-3.0983904e-06 -5.5619685e-06 -5.2409769e-06 
-1.5945285e-06 -6.1984751e-06 -4.5614315e-06 
-1.9413339e-06 -6.6180760e-06 -4.0354953e-06 
-1.8581079e-06 -6.9068783e-06 -4.4132557e-06 
-2.4985966e-06 -7.0947272e-06 -6.3222019e-06 
-1.3176256e-06 -7.3139645e-06 -7.0704373e-06 
-4.4851041e-07 -7.4885102e-06 -6.4126925e-06 
8.1405244e-07 -7.6059077e-06 -4.0697510e-06 
-6.8188473e-07 -7.4620352e-06 -1.6487817e-06 
-1.5826558e-06 -7.0300439e-06 -7.5372822e-07 
-2.9837106e-06 -6.2716240e-06 -1.9451236e-06 
-3.8455864e-06 -5.4312582e-06 -3.5750902e-06 
-4.5268816e-06 -4.6330592e-06 -3.9727911e-06 
-3.6762583e-06 -4.0338496e-06 -2.5875725e-06 
-3.5193668e-06 -3.4946454e-06 -1.9699272e-07 
-3.1263969e-06 -2.9060659e-06 1.3397218e-06 
-3.2545258e-06 -2.1795979e-06 1.2126366e-06 
-2.2632667e-06 -1.4545939e-06 1.3676622e-07 
-7.2248287e-07 -1.1080629e-06 -6.9486697e-07 
1.2661335e-09 -1.5451189e-06 -2.3073899e-07 
-2.3917434e-07 -2.7169601e-06 1.7062779e-06 
-7.7337199e-07 -4.3102859e-06 3.0713395e-06 
-1.7565322e-06 -5.6696781e-06 2.9155917e-06 
1.6817290e-07 -6.2207037e-06 4.5233651e-07 
1.3888223e-06 -5.9355775e-06 -3.0624226e-06 
3.6094739e-06 -4.8179850e-06 -4.9446421e-06 
4.7480380e-06 -2.9493722e-06 -4.3604982e-06 
5.6495874e-06 -2.5172494e-07 -3.6161343e-06 
5.7954676e-06 3.7192060e-06 -1.4100611e-06 
4.7210669e-06 9.4383604e-06 -1.0223687e-06 
3.8238927e-06 1.7470353e-05 -2.6071197e-07 
4.9856035e-06 2.8736131e-05 3.4452415e-07 
8.8101183e-07 4.3902575e-05 5.8835562e-06 
-1.0670705e-06 6.3000640e-05 1.0324815e-05 
-2.3075208e-06 8.2360326e-05 1.9750147e-05 
-1.9513177e-06 9.2770730e-05 3.0778043e-05 
-1.6133808e-06 7.3491210e-05 4.6386271e-05 
-6.0371181e-06 -8.0617692e-06 8.8172143e-05 
-2.4171130e-05 -1.9993226e-04 1.1469584e-04 
-5.3355328e-05 -5.6604703e-04 1.8972081e-04 
-5.5949327e-05 -1.1619314e-03 1.3488460e-04 
-1.5016808e-04 -2.0365349e-03 2.8999581e-04 
-1.8756418e-04 -3.1267372e-03 2.2430235e-04 
-2.3648798e-04 -4.2359359e-03 2.4153349e-04 
-1.5853354e-04 -4.8867920e-03 8.4875537e-05 
-2.6298841e-04 -4.7739409e-03 4.3523155e-06 
-3.0669617e-04 -4.4808132e-03 -4.6670830e-05 
-2.9005442e-04 -4.4572493e-03 -8.5462270e-05 
-3.1970281e-04 -4.5953123e-03 -1.5859964e-04 
-2.9698611e-04 -4.4322633e-03 -2.3443940e-04 
-2.4259670e-04 -3.4289171e-03 -1.7055382e-04 
-1.5863845e-04 -2.1946100e-03 -3.0991872e-04 
-8.9062436e-05 -1.1244231e-03 -1.5822869e-04 
-2.9479954e-05 -3.9381764e-04 -1.8196975e-04 
-1.6664308e-06 2.3453216e-05 -7.9491292e-05 
1.1141961e-05 2.0058350e-04 -5.2919822e-05 
1.3002548e-05 2.3015949e-04 -2.0884649e-05 
8.9247078e-06 1.8911276e-04 -3.6429326e-06 
5.9315612e-06 1.2556408e-04 -5.7603002e-06 
4.2924294e-06 6.8369074e-05 1.2030390e-06 
2.1345918e-06 2.6190917e-05 -2.7422127e-06 
-6.8265359e-07 2.6124334e-07 -3.2351173e-07 
-2.8860761e-06 -1.2937528e-05 -2.5457398e-06 
-2.2800155e-06 -1.7514763e-05 -4.3212349e-06 
-5.0898666e-07 -1.7073933e-05 -6.8095342e-06 
3.1798040e-06 -1.4516650e-05 -7.4948266e-06 
3.7019952e-06 -1.1266624e-05 -6.2070317e-06 
4.9694022e-06 -7.5226053e-06 -2.9138459e-06 
3.8476974e-06 -2.4229505e-06 2.5782717e-07 
3.8463381e-06 5.1221582e-06 -5.3830046e-08 
5.6284239e-06 1.6147733e-05 -3.9503684e-06 
5.6340850e-06 3.1104497e-05 -2.2930501e-06 
4.2032202e-06 4.9747556e-05 2.2982263e-06 
3.1442862e-06 7.0420057e-05 7.5833532e-06 
7.6506166e-07 8.7196975e-05 1.9084109e-05 
-4.4451017e-06 8.8719062e-05 3.3405373e-05 
-8.4440735e-06 5.2505649e-05 4.8014153e-05 
-2.1959275e-05 -5.6332337e-05 9.3767296e-05 
-3.1953135e-05 -2.8790379e-04 1.0753710e-04 
-6.2413608e-05 -7.0357340e-04 1.9862846e-04 
-8.1467355e-05 -1.3562819e-03 1.6192734e-04 
-1.3432668e-04 -2.2766930e-03 2.7059487e-04 
-1.6644267e-04 -3.3868020e-03 1.1578171e-04 
-2.3416974e-04 -4.4665881e-03 1.9072680e-04 
-2.5532718e-04 -4.9542761e-03 5.4986227e-05 
-2.4305598e-04 -4.7194636e-03 8.2173974e-06 
-2.3953586e-04 -4.4204094e-03 -1.8253380e-05 
-2.0568796e-04 -4.4150054e-03 -3.0128165e-05 
-2.2559213e-04 -4.5234379e-03 -1.3742135e-04 
-2.1272262e-04 -4.1748686e-03 -2.1914435e-04 
-8.4578634e-05 -3.0473405e-03 -1.9074166e-04 
-1.0024600e-04 -1.7655490e-03 -2.7099787e-04 
-2.8871764e-05 -7.1588444e-04 -2.0922050e-04 
-1.5245308e-05 -5.0812603e-05 -2.1294350e-04 
0.0000000e+00 -2.4052761e-06 0.0000000e+00 
0.0000000e+00 -2.4967112e-06 0.0000000e+00 
0.0000000e+00 -2.8033728e-06 0.0000000e+00 
0.0000000e+00 -3.3206309e-06 0.0000000e+00 
0.0000000e+00 -4.0253990e-06 0.0000000e+00 
0.0000000e+00 -4.8149154e-06 0.0000000e+00 
0.0000000e+00 -5.5675973e-06 0.0000000e+00 
0.0000000e+00 -6.1935325e-06 0.0000000e+00 
0.0000000e+00 -6.6247967e-06 0.0000000e+00 
0.0000000e+00 -6.9069865e-06 0.0000000e+00 
0.0000000e+00 -7.1100708e-06 0.0000000e+00 
0.0000000e+00 -7.3188289e-06 0.0000000e+00 
0.0000000e+00 -7.5057901e-06 0.0000000e+00 
0.0000000e+00 -7.6061178e-06 0.0000000e+00 
0.0000000e+00 -7.4684935e-06 0.0000000e+00 
0.0000000e+00 -7.0212272e-06 0.0000000e+00 
0.0000000e+00 -6.2810122e-06 0.0000000e+00 
0.0000000e+00 -5.4352140e-06 0.0000000e+00 
0.0000000e+00 -4.6534810e-06 0.0000000e+00 
0.0000000e+00 -4.0403947e-06 0.0000000e+00 
0.0000000e+00 -3.4999241e-06 0.0000000e+00 
0.0000000e+00 -2.8975205e-06 0.0000000e+00 
0.0000000e+00 -2.1661838e-06 0.0000000e+00 
0.0000000e+00 -1.4524257e-06 0.0000000e+00 
0.0000000e+00 -1.1314011e-06 0.0000000e+00 
0.0000000e+00 -1.5631820e-06 0.0000000e+00 
0.0000000e+00 -2.7406334e-06 0.0000000e+00 
0.0000000e+00 -4.3099690e-06 0.0000000e+00 
0.0000000e+00 -5.6435802e-06 0.0000000e+00 
0.0000000e+00 -6.2203053e-06 0.0000000e+00 
0.0000000e+00 -5.9359604e-06 0.0000000e+00 
0.0000000e+00 -4.8347006e-06 0.0000000e+00 
0.0000000e+00 -2.9756504e-06 0.0000000e+00 
0.0000000e+00 -2.5509831e-07 0.0000000e+00 
0.0000000e+00 3.7155071e-06 0.0000000e+00 
0.0000000e+00 9.4223897e-06 0.0000000e+00 
0.0000000e+00 1.7481841e-05 0.0000000e+00 
0.0000000e+00 2.8769706e-05 0.0000000e+00 
0.0000000e+00 4.4082994e-05 0.0000000e+00 
0.0000000e+00 6.3295527e-05 0.0000000e+00 
0.0000000e+00 8.2974431e-05 0.0000000e+00 
0.0000000e+00 9.3439819e-05 0.0000000e+00 
0.0000000e+00 7.4396557e-05 0.0000000e+00 
0.0000000e+00 -7.1887184e-06 0.0000000e+00 
0.0000000e+00 -2.0013380e-04 0.0000000e+00 
0.0000000e+00 -5.6640181e-04 0.0000000e+00 
0.0000000e+00 -1.1676742e-03 0.0000000e+00 
0.0000000e+00 -2.0437627e-03 0.0000000e+00 
0.0000000e+00 -3.1411757e-03 0.0000000e+00 
0.0000000e+00 -4.2550154e-03 0.0000000e+00 
0.0000000e+00 -4.9211225e-03 0.0000000e+00 
0.0000000e+00 -4.7970377e-03 0.0000000e+00 
0.0000000e+00 -4.5088045e-03 0.0000000e+00 
0.0000000e+00 -4.4763577e-03 0.0000000e+00 
0.0000000e+00 -4.6259682e-03 0.0000000e+00 
0.0000000e+00 -4.4543580e-03 0.0000000e+00 
0.0000000e+00 -3.4547627e-03 0.0000000e+00 
0.0000000e+00 -2.2061062e-03 0.0000000e+00 
0.0000000e+00 -1.1339156e-03 0.0000000e+00 
0.0000000e+00 -3.9591041e-04 0.0000000e+00 
0.0000000e+00 2.2982707e-05 0.0000000e+00 
0.0000000e+00 2.0161438e-04 0.0000000e+00 
0.0000000e+00 2.3178884e-04 0.0000000e+00 
0.0000000e+00 1.9016111e-04 0.0000000e+00 
0.0000000e+00 1.2655898e-04 0.0000000e+00 
0.0000000e+00 6.8727255e-05 0.0000000e+00 
0.0000000e+00 2.6392025e-05 0.0000000e+00 
0.0000000e+00 2.7264997e-07 0.0000000e+00 
0.0000000e+00 -1.2984716e-05 0.0000000e+00 
0.0000000e+00 -1.7565442e-05 0.0000000e+00 
0.0000000e+00 -1.7158354e-05 0.0000000e+00 
0.0000000e+00 -1.4587328e-05 0.0000000e+00 
0.0000000e+00 -1.1324523e-05 0.0000000e+00 
0.0000000e+00 -7.5397106e-06 0.0000000e+00 
0.0000000e+00 -2.4217973e-06 0.0000000e+00 
0.0000000e+00 5.1530938e-06 0.0000000e+00 
0.0000000e+00 1.6183600e-05 0.0000000e+00 
0.0000000e+00 3.1185937e-05 0.0000000e+00 
0.0000000e+00 4.9974602e-05 0.0000000e+00 
0.0000000e+00 7.0718357e-05 0.0000000e+00 
0.0000000e+00 8.7783468e-05 0.0000000e+00 
0.0000000e+00 8.9403395e-05 0.0000000e+00 
0.0000000e+00 5.3381173e-05 0.0000000e+00 
0.0000000e+00 -5.5653385e-05 0.0000000e+00 
0.0000000e+00 -2.8815510e-04 0.0000000e+00 
0.0000000e+00 -7.0473342e-04 0.0000000e+00 
0.0000000e+00 -1.3617013e-03 0.0000000e+00 
0.0000000e+00 -2.2844670e-03 0.0000000e+00 
0.0000000e+00 -3.4053707e-03 0.0000000e+00 
0.0000000e+00 -4.4875108e-03 0.0000000e+00 
0.0000000e+00 -4.9854922e-03 0.0000000e+00 
0.0000000e+00 -4.7429609e-03 0.0000000e+00 
0.0000000e+00 -4.4477205e-03 0.0000000e+00 
0.0000000e+00 -4.4364347e-03 0.0000000e+00 
0.0000000e+00 -4.5531620e-03 0.0000000e+00 
0.0000000e+00 -4.1989298e-03 0.0000000e+00 
0.0000000e+00 -3.0667332e-03 0.0000000e+00 
0.0000000e+00 -1.7772977e-03 0.0000000e+00 
0.0000000e+00 -7.2031230e-04 0.0000000e+00 
0.0000000e+00 -5.1610747e-05 0.0000000e+00 
0.0000000e+00 1.7663304e-04 0.0000000e+00 
-6.0244312e-04 -1.4337000e-03 1.2355279e-04 
5.2093212e-05 -8.3744184e-05 -3.5317314e-06 
5.0561503e-05 -1.9163885e-05 -2.5875286e-06 
4.5904293e-05 -1.5207460e-05 -9.2135444e-08 
0.0000000e+00 -2.5711923e-03 0.0000000e+00 
0.0000000e+00 0.0000000e+00 0.0000000e+00 
0.0000000e+00 0.0000000e+00 0.0000000e+00 
0.0000000e+00 0.0000000e+00 0.0000000e+00 
0.0000000e+00 0.0000000e+00 0.0000000e+00 
0.0000000e+00 0.0000000e+00 0.0000000e+00 
0.0000000e+00 0.0000000e+00 0.0000000e+00 
0.0000000e+00 0.0000000e+00 0.0000000e+00 
0.0000000e+00 0.0000000e+00 0.0000000e+00 
0.0000000e+00 0.0000000e+00 0.0000000e+00 
0.0000000e+00 0.0000000e+00 0.0000000e+00 
0.0000000e+00 0.0000000e+00 0.0000000e+00 
0.0000000e+00 0.0000000e+00 0.0000000e+00 
0.0000000e+00 0.0000000e+00 0.0000000e+00 
0.0000000e+00 0.0000000e+00 0.0000000e+00 
0.0000000e+00 0.0000000e+00 0.0000000e+00 
0.0000000e+00 0.0000000e+00 0.0000000e+00 
0.0000000e+00 0.0000000e+00 0.0000000e+00 
0.0000000e+00 0.0000000e+00 0.0000000e+00 
0.0000000e+00 0.0000000e+00 0.0000000e+00 
0.0000000e+00 0.0000000e+00 0.0000000e+00 
0.0000000e+00 0.0000000e+00 0.0000000e+00 
0.0000000e+00 0.0000000e+00 0.0000000e+00 
0.0000000e+00 0.0000000e+00 0.0000000e+00 
0.0000000e+00 0.0000000e+00 0.0000000e+00 
0.0000000e+00 0.0000000e+00 0.0000000e+00 
0.0000000e+00 0.0000000e+00 0.0000000e+00 
0.0000000e+00 0.0000000e+00 0.0000000e+00 
0.0000000e+00 0.0000000e+00 0.0000000e+00 
0.0000000e+00 0.0000000e+00 0.0000000e+00 
0.0000000e+00 0.0000000e+00 0.0000000e+00 
0.0000000e+00 0.0000000e+00 0.0000000e+00 
0.0000000e+00 0.0000000e+00 0.0000000e+00 
0.0000000e+00 0.0000000e+00 0.0000000e+00 
0.0000000e+00 0.0000000e+00 0.0000000e+00 
0.0000000e+00 0.0000000e+00 0.0000000e+00 
0.0000000e+00 0.0000000e+00 0.0000000e+00 
0.0000000e+00 0.0000000e+00 0.0000000e+00 
0.0000000e+00 0.0000000e+00 0.0000000e+00 
0.0000000e+00 0.0000000e+00 0.0000000e+00 
0.0000000e+00 0.0000000e+00 0.0000000e+00 
0.0000000e+00 0.0000000e+00 0.0000000e+00 
0.0000000e+00 0.0000000e+00 0.0000000e+00 
0.0000000e+00 0.0000000e+00 0.0000000e+00 
0.0000000e+00 0.0000000e+00 0.0000000e+00 
0.0000000e+00 0.0000000e+00 0.0000000e+00 
0.0000000e+00 0.0000000e+00 0.0000000e+00 
0.0000000e+00 0.0000000e+00 0.0000000e+00 
0.0000000e+00 0.0000000e+00 0.0000000e+00 
0.0000000e+00 0.0000000e+00 0.0000000e+00 
0.0000000e+00 0.0000000e+00 0.0000000e+00 
0.0000000e+00 0.0000000e+00 0.0000000e+00 
0.0000000e+00 0.0000000e+00 0.0000000e+00 
0.0000000e+00 0.0000000e+00 0.0000000e+00 
0.0000000e+00 0.0000000e+00 0.0000000e+00 
0.0000000e+00 0.0000000e+00 0.0000000e+00 
0.0000000e+00 0.0000000e+00 0.0000000e+00 
0.0000000e+00 0.0000000e+00 0.0000000e+00 
0.0000000e+00 0.0000000e+00 0.0000000e+00 
0.0000000e+00 0.0000000e+00 0.0000000e+00 
0.0000000e+00 0.0000000e+00 0.0000000e+00 
0.0000000e+00 0.0000000e+00 0.0000000e+00 
0.0000000e+00 0.0000000e+00 0.0000000e+00 
0.0000000e+00 0.0000000e+00 0.0000000e+00 
0.0000000e+00 0.0000000e+00 0.0000000e+00 
0.0000000e+00 0.0000000e+00 0.0000000e+00 
0.0000000e+00 0.0000000e+00 0.0000000e+00 
0.0000000e+00 0.0000000e+00 0.0000000e+00 
0.0000000e+00 0.0000000e+00 0.0000000e+00 
0.0000000e+00 0.0000000e+00 0.0000000e+00 
0.0000000e+00 0.0000000e+00 0.0000000e+00 
0.0000000e+00 0.0000000e+00 0.0000000e+00 
0.0000000e+00 0.0000000e+00 0.0000000e+00 
0.0000000e+00 0.0000000e+00 0.0000000e+00 
0.0000000e+00 0.0000000e+00 0.0000000e+00 
0.0000000e+00 0.0000000e+00 0.0000000e+00 
0.0000000e+00 0.0000000e+00 0.0000000e+00 
0.0000000e+00 0.0000000e+00 0.0000000e+00 
0.0000000e+00 0.0000000e+00 0.0000000e+00 
0.0000000e+00 0.0000000e+00 0.0000000e+00 
0.0000000e+00 0.0000000e+00 0.0000000e+00 
0.0000000e+00 0.0000000e+00 0.0000000e+00 
0.0000000e+00 0.0000000e+00 0.0000000e+00 
0.0000000e+00 0.0000000e+00 0.0000000e+00 
0.0000000e+00 0.0000000e+00 0.0000000e+00 
0.0000000e+00 0.0000000e+00 0.0000000e+00 
0.0000000e+00 0.0000000e+00 0.0000000e+00 
0.0000000e+00 0.0000000e+00 0.0000000e+00 
0.0000000e+00 0.0000000e+00 0.0000000e+00 
0.0000000e+00 0.0000000e+00 0.0000000e+00 
0.0000000e+00 0.0000000e+00 0.0000000e+00 
0.0000000e+00 0.0000000e+00 0.0000000e+00 
0.0000000e+00 0.0000000e+00 0.0000000e+00 
0.0000000e+00 0.0000000e+00 0.0000000e+00 
0.0000000e+00 0.0000000e+00 0.0000000e+00 
0.0000000e+00 0.0000000e+00 0.0000000e+00 
0.0000000e+00 0.0000000e+00 0.0000000e+00 
0.0000000e+00 0.0000000e+00 0.0000000e+00 
0.0000000e+00 0.0000000e+00 0.0000000e+00 
0.0000000e+00 0.0000000e+00 0.0000000e+00 
0.0000000e+00 0.0000000e+00 0.0000000e+00 
0.0000000e+00 0.0000000e+00 0.0000000e+00 
0.0000000e+00 0.0000000e+00 0.0000000e+00 
0.0000000e+00 0.0000000e+00 0.0000000e+00 
0.0000000e+00 0.0000000e+00 0.0000000e+00 
0.0000000e+00 0.0000000e+00 0.0000000e+00 
0.0000000e+00 0.0000000e+00 0.0000000e+00 
2.1917783e-08 -6.2965434e-08 4.6299343e-07 
3.1476995e-07 -1.6109456e-07 7.8199321e-08 
4.6199943e-07 4.5567724e-08 -4.2729303e-07 
5.0321290e-07 -6.4746565e-08 -6.3584150e-07 
4.2642790e-07 -4.6541345e-07 -7.2672481e-07 
4.3560979e-07 -7.9099084e-07 -7.7204652e-07 
4.7785795e-07 -6.1373271e-07 -8.8227137e-07 
5.8042576e-07 -4.9915485e-07 -8.1436946e-07 
4.4522486e-07 -9.7352100e-08 -7.5497638e-07 
2.3020722e-07 -1.4006278e-07 -6.0959320e-07 
1.2888775e-07 2.0248990e-08 -6.0707112e-07 
-1.0997199e-07 -2.1051312e-07 -8.8138285e-07 
-7.0187241e-08 -5.8705746e-07 -7.7343367e-07 
-9.3286438e-08 -5.4746044e-07 -6.0908224e-07 
-1.0893937e-07 -3.0497418e-07 -3.2261536e-07 
-1.2955702e-07 -3.8533679e-07 -3.2333048e-07 
-1.2537222e-07 -7.0107393e-07 -5.4483996e-07 
3.9858631e-07 -1.2451871e-07 -1.1901703e-06 
1.2069718e-06 4.7330158e-07 -2.5954332e-06 
5.0768240e-06 -1.5813094e-06 -5.8433429e-06 
9.3427816e-06 -4.3698610e-06 -8.4515641e-06 
1.9574642e-05 -7.5695739e-06 -1.1860544e-05 
3.2882726e-05 -1.0831287e-05 -1.1836868e-05 
4.3692507e-05 -1.5440197e-05 -8.3781861e-06 
4.6655241e-05 -1.4831315e-05 -2.8821785e-06 
4.6950347e-05 -1.5257246e-05 5.9572303e-06 
4.1055493e-05 -1.4351452e-05 1.0942489e-05 
3.0106334e-05 -8.9877285e-06 1.4776681e-05 
1.8749402e-05 -6.4019055e-06 1.4443953e-05 
9.7015345e-06 -3.3914271e-06 1.1153198e-05 
4.6010941e-06 -1.1789521e-06 6.5998547e-06 
1.1099314e-06 -1.1327655e-06 2.7166739e-06 
9.8807973e-08 -4.4602146e-07 1.8737398e-07 
-2.4707526e-07 -1.2482197e-08 -9.1836631e-07 
-3.1932476e-07 1.8815958e-07 -1.2576020e-06 
-4.1021906e-07 -6.9538579e-08 -1.4831369e-06 
-2.9230310e-07 -5.3708112e-07 -2.0023078e-06 
7.7887370e-07 -8.4306441e-07 -2.7750018e-06 
2.7147205e-06 -7.0038880e-07 -4.0840359e-06 
5.6911817e-06 -1.4496731e-06 -6.7136384e-06 
1.2207368e-05 -4.0103155e-06 -1.0312332e-05 
2.2662747e-05 -7.9025349e-06 -1.2767804e-05 
3.3214052e-05 -1.1862057e-05 -1.2282388e-05 
4.5484310e-05 -1.6891445e-05 -6.5054337e-06 
4.9037972e-05 -1.7382959e-05 1.0884208e-06 
4.6996611e-05 -1.4001432e-05 6.5011236e-06 
4.5895453e-05 -1.3899880e-05 1.4588516e-05 
2.9077817e-05 -8.5978154e-06 1.7658067e-05 
1.7633736e-05 -4.9783634e-06 1.7408525e-05 
0.0000000e+00 3.6046874e-06 0.0000000e+00 
0.0000000e+00 3.0721478e-06 0.0000000e+00 
0.0000000e+00 2.4218546e-06 0.0000000e+00 
0.0000000e+00 2.8530080e-06 0.0000000e+00 
0.0000000e+00 4.0373088e-06 0.0000000e+00 
0.0000000e+00 5.3972103e-06 0.0000000e+00 
0.0000000e+00 5.3880340e-06 0.0000000e+00 
0.0000000e+00 4.9211453e-06 0.0000000e+00 
0.0000000e+00 4.4431708e-06 0.0000000e+00 
0.0000000e+00 3.4928753e-06 0.0000000e+00 
0.0000000e+00 2.8777604e-06 0.0000000e+00 
0.0000000e+00 2.6683922e-06 0.0000000e+00 
0.0000000e+00 2.2687800e-06 0.0000000e+00 
0.0000000e+00 1.9486008e-06 0.0000000e+00 
0.0000000e+00 4.4207732e-06 0.0000000e+00 
0.0000000e+00 6.5997697e-06 0.0000000e+00 
0.0000000e+00 6.1142032e-06 0.0000000e+00 
0.0000000e+00 3.2913797e-06 0.0000000e+00 
0.0000000e+00 1.8786582e-06 0.0000000e+00 
0.0000000e+00 1.5098242e-07 0.0000000e+00 
0.0000000e+00 -1.5420626e-05 0.0000000e+00 
0.0000000e+00 -7.0890310e-05 0.0000000e+00 
0.0000000e+00 -1.9168746e-04 0.0000000e+00 
0.0000000e+00 -3.9288434e-04 0.0000000e+00 
0.0000000e+00 -5.0680619e-04 0.0000000e+00 
0.0000000e+00 -5.1693647e-04 0.0000000e+00 
0.0000000e+00 -4.7793219e-04 0.0000000e+00 
0.0000000e+00 -3.3538218e-04 0.0000000e+00 
0.0000000e+00 -1.5671493e-04 0.0000000e+00 
0.0000000e+00 -2.0022835e-05 0.0000000e+00 
0.0000000e+00 1.6761805e-05 0.0000000e+00 
0.0000000e+00 1.9101679e-05 0.0000000e+00 
0.0000000e+00 1.3507948e-05 0.0000000e+00 
0.0000000e+00 6.2791396e-06 0.0000000e+00 
0.0000000e+00 3.8722287e-06 0.0000000e+00 
0.0000000e+00 3.0230642e-06 0.0000000e+00 
0.0000000e+00 2.3735417e-06 0.0000000e+00 
0.0000000e+00 1.2382765e-06 0.0000000e+00 
0.0000000e+00 2.4317421e-06 0.0000000e+00 
0.0000000e+00 -2.8048385e-07 0.0000000e+00 
0.0000000e+00 -1.7927787e-05 0.0000000e+00 
0.0000000e+00 -8.8197405e-05 0.0000000e+00 
0.0000000e+00 -2.2868844e-04 0.0000000e+00 
0.0000000e+00 -4.0620321e-04 0.0000000e+00 
0.0000000e+00 -5.2145735e-04 0.0000000e+00 
0.0000000e+00 -5.2340422e-04 0.0000000e+00 
0.0000000e+00 -4.6989397e-04 0.0000000e+00 
0.0000000e+00 -3.0814848e-04 0.0000000e+00 
0.0000000e+00 -1.2738010e-04 0.0000000e+00 
-1.6390646e-07 5.3638161e-07 5.9276243e-07 
-4.3180183e-08 5.5307532e-07 3.3270200e-07 
-3.7475203e-07 6.9358856e-07 4.5526915e-07 
-3.9804132e-07 2.0895377e-06 8.1833491e-07 
1.5337737e-05 -3.0834919e-06 1.6774387e-05 
2.0702342e-05 -3.2355674e-06 2.8167718e-05 
2.0117701e-05 -1.4770948e-05 4.2156946e-05 
7.1535806e-06 -2.1849248e-05 6.4089509e-05 
1.7423159e-07 9.3465070e-07 6.8051821e-07 
1.2716532e-05 1.2790395e-07 1.2960790e-05 
5.9557919e-07 3.0792989e-06 1.1759948e-06 
3.1214174e-07 2.0232048e-06 1.1561261e-06 
0.0000000e+00 5.5693349e-06 0.0000000e+00 
0.0000000e+00 4.5444526e-06 0.0000000e+00 
0.0000000e+00 3.8912394e-06 0.0000000e+00 
0.0000000e+00 4.1801945e-06 0.0000000e+00 
0.0000000e+00 6.1151623e-06 0.0000000e+00 
0.0000000e+00 8.3945897e-06 0.0000000e+00 
0.0000000e+00 8.4768781e-06 0.0000000e+00 
0.0000000e+00 7.8223402e-06 0.0000000e+00 
0.0000000e+00 7.3011861e-06 0.0000000e+00 
0.0000000e+00 5.6930307e-06 0.0000000e+00 
0.0000000e+00 4.1701051e-06 0.0000000e+00 
0.0000000e+00 4.6855644e-06 0.0000000e+00 
0.0000000e+00 3.0860601e-06 0.0000000e+00 