# vtk DataFile Version 4.0
vtk output
ASCII
DATASET UNSTRUCTURED_GRID
POINTS 1919 float
0.0000000e+00 0.0000000e+00 0.0000000e+00 
0.0000000e+00 0.0000000e+00 5.0000000e+01 
5.0000000e+00 0.0000000e+00 0.0000000e+00 
5.0000000e+00 0.0000000e+00 5.0000000e+01 
5.0000000e+00 1.0000000e+00 0.0000000e+00 
5.0000000e+00 1.0000000e+00 5.0000000e+01 
0.0000000e+00 1.0000000e+00 0.0000000e+00 
0.0000000e+00 1.0000000e+00 5.0000000e+01 
5.0000000e+00 2.0000000e+00 0.0000000e+00 
5.0000000e+00 2.0000000e+00 5.0000000e+01 
3.0000000e+00 2.0000000e+00 0.0000000e+00 
3.0000000e+00 2.0000000e+00 5.0000000e+01 
0.0000000e+00 2.0000000e+00 0.0000000e+00 
0.0000000e+00 2.0000000e+00 5.0000000e+01 
1.5000000e+00 3.0000000e+00 0.0000000e+00 
1.5000000e+00 3.0000000e+00 5.0000000e+01 
7.5000000e-01 3.0000000e+00 0.0000000e+00 
7.5000000e-01 3.0000000e+00 5.0000000e+01 
0.0000000e+00 3.0000000e+00 0.0000000e+00 
0.0000000e+00 3.0000000e+00 5.0000000e+01 
7.5000000e-01 3.0000000e+00 5.0000000e-01 
7.5000000e-01 3.0000000e+00 1.0000000e+00 
7.5000000e-01 3.0000000e+00 1.5000000e+00 
7.5000000e-01 3.0000000e+00 2.0000000e+00 
7.5000000e-01 3.0000000e+00 2.5000000e+00 
7.5000000e-01 3.0000000e+00 3.0000000e+00 
7.5000000e-01 3.0000000e+00 3.5000000e+00 
7.5000000e-01 3.0000000e+00 4.0000000e+00 
7.5000000e-01 3.0000000e+00 4.5000000e+00 
7.5000000e-01 3.0000000e+00 5.0000000e+00 
7.5000000e-01 3.0000000e+00 5.5000000e+00 
7.5000000e-01 3.0000000e+00 6.0000000e+00 
7.5000000e-01 3.0000000e+00 6.5000000e+00 
7.5000000e-01 3.0000000e+00 7.0000000e+00 
7.5000000e-01 3.0000000e+00 7.5000000e+00 
7.5000000e-01 3.0000000e+00 8.0000000e+00 
7.5000000e-01 3.0000000e+00 8.5000000e+00 
7.5000000e-01 3.0000000e+00 9.0000000e+00 
7.5000000e-01 3.0000000e+00 9.5000000e+00 
7.5000000e-01 3.0000000e+00 1.0000000e+01 
7.5000000e-01 3.0000000e+00 1.0500000e+01 
7.5000000e-01 3.0000000e+00 1.1000000e+01 
7.5000000e-01 3.0000000e+00 1.1500000e+01 
7.5000000e-01 3.0000000e+00 1.2000000e+01 
7.5000000e-01 3.0000000e+00 1.2500000e+01 
7.5000000e-01 3.0000000e+00 1.3000000e+01 
7.5000000e-01 3.0000000e+00 1.3500000e+01 
7.5000000e-01 3.0000000e+00 1.4000000e+01 
7.5000000e-01 3.0000000e+00 1.4500000e+01 
7.5000000e-01 3.0000000e+00 1.5000000e+01 
7.5000000e-01 3.0000000e+00 1.5500000e+01 
7.5000000e-01 3.0000000e+00 1.6000000e+01 
7.5000000e-01 3.0000000e+00 1.6500000e+01 
7.5000000e-01 3.0000000e+00 1.7000000e+01 
7.5000000e-01 3.0000000e+00 1.7500000e+01 
7.5000000e-01 3.0000000e+00 1.8000000e+01 
7.5000000e-01 3.0000000e+00 1.8500000e+01 
7.5000000e-01 3.0000000e+00 1.9000000e+01 
7.5000000e-01 3.0000000e+00 1.9500000e+01 
7.5000000e-01 3.0000000e+00 2.0000000e+01 
7.5000000e-01 3.0000000e+00 2.0500000e+01 
7.5000000e-01 3.0000000e+00 2.1000000e+01 
7.5000000e-01 3.0000000e+00 2.1500000e+01 
7.5000000e-01 3.0000000e+00 2.2000000e+01 
7.5000000e-01 3.0000000e+00 2.2500000e+01 
7.5000000e-01 3.0000000e+00 2.3000000e+01 
7.5000000e-01 3.0000000e+00 2.3500000e+01 
7.5000000e-01 3.0000000e+00 2.4000000e+01 
7.5000000e-01 3.0000000e+00 2.4500000e+01 
7.5000000e-01 3.0000000e+00 2.5000000e+01 
7.5000000e-01 3.0000000e+00 2.5500000e+01 
7.5000000e-01 3.0000000e+00 2.6000000e+01 
7.5000000e-01 3.0000000e+00 2.6500000e+01 
7.5000000e-01 3.0000000e+00 2.7000000e+01 
7.5000000e-01 3.0000000e+00 2.7500000e+01 
7.5000000e-01 3.0000000e+00 2.8000000e+01 
7.5000000e-01 3.0000000e+00 2.8500000e+01 
7.5000000e-01 3.0000000e+00 2.9000000e+01 
7.5000000e-01 3.0000000e+00 2.9500000e+01 
7.5000000e-01 3.0000000e+00 3.0000000e+01 
7.5000000e-01 3.0000000e+00 3.0500000e+01 
7.5000000e-01 3.0000000e+00 3.1000000e+01 
7.5000000e-01 3.0000000e+00 3.1500000e+01 
7.5000000e-01 3.0000000e+00 3.2000000e+01 
7.5000000e-01 3.0000000e+00 3.2500000e+01 
7.5000000e-01 3.0000000e+00 3.3000000e+01 
7.5000000e-01 3.0000000e+00 3.3500000e+01 
7.5000000e-01 3.0000000e+00 3.4000000e+01 
7.5000000e-01 3.0000000e+00 3.4500000e+01 
7.5000000e-01 3.0000000e+00 3.5000000e+01 
7.5000000e-01 3.0000000e+00 3.5500000e+01 
7.5000000e-01 3.0000000e+00 3.6000000e+01 
7.5000000e-01 3.0000000e+00 3.6500000e+01 
7.5000000e-01 3.0000000e+00 3.7000000e+01 
7.5000000e-01 3.0000000e+00 3.7500000e+01 
7.5000000e-01 3.0000000e+00 3.8000000e+01 
7.5000000e-01 3.0000000e+00 3.8500000e+01 
7.5000000e-01 3.0000000e+00 3.9000000e+01 
7.5000000e-01 3.0000000e+00 3.9500000e+01 
7.5000000e-01 3.0000000e+00 4.0000000e+01 
7.5000000e-01 3.0000000e+00 4.0500000e+01 
7.5000000e-01 3.0000000e+00 4.1000000e+01 
7.5000000e-01 3.0000000e+00 4.1500000e+01 
7.5000000e-01 3.0000000e+00 4.2000000e+01 
7.5000000e-01 3.0000000e+00 4.2500000e+01 
7.5000000e-01 3.0000000e+00 4.3000000e+01 
7.5000000e-01 3.0000000e+00 4.3500000e+01 
7.5000000e-01 3.0000000e+00 4.4000000e+01 
7.5000000e-01 3.0000000e+00 4.4500000e+01 
7.5000000e-01 3.0000000e+00 4.5000000e+01 
7.5000000e-01 3.0000000e+00 4.5500000e+01 
7.5000000e-01 3.0000000e+00 4.6000000e+01 
7.5000000e-01 3.0000000e+00 4.6500000e+01 
7.5000000e-01 3.0000000e+00 4.7000000e+01 
7.5000000e-01 3.0000000e+00 4.7500000e+01 
7.5000000e-01 3.0000000e+00 4.8000000e+01 
7.5000000e-01 3.0000000e+00 4.8500000e+01 
7.5000000e-01 3.0000000e+00 4.9000000e+01 
7.5000000e-01 3.0000000e+00 4.9500000e+01 
7.5000000e-01 3.0250001e+00 0.0000000e+00 
7.5000000e-01 3.0250001e+00 5.0000000e-01 
7.5000000e-01 3.0250001e+00 1.0000000e+00 
7.5000000e-01 3.0250001e+00 1.5000000e+00 
7.5000000e-01 3.0250001e+00 2.0000000e+00 
7.5000000e-01 3.0250001e+00 2.5000000e+00 
7.5000000e-01 3.0250001e+00 3.0000000e+00 
7.5000000e-01 3.0250001e+00 3.5000000e+00 
7.5000000e-01 3.0250001e+00 4.0000000e+00 
7.5000000e-01 3.0250001e+00 4.5000000e+00 
7.5000000e-01 3.0250001e+00 5.0000000e+00 
7.5000000e-01 3.0250001e+00 5.5000000e+00 
7.5000000e-01 3.0250001e+00 6.0000000e+00 
7.5000000e-01 3.0250001e+00 6.5000000e+00 
7.5000000e-01 3.0250001e+00 7.0000000e+00 
7.5000000e-01 3.0250001e+00 7.5000000e+00 
7.5000000e-01 3.0250001e+00 8.0000000e+00 
7.5000000e-01 3.0250001e+00 8.5000000e+00 
7.5000000e-01 3.0250001e+00 9.0000000e+00 
7.5000000e-01 3.0250001e+00 9.5000000e+00 
7.5000000e-01 3.0250001e+00 1.0000000e+01 
7.5000000e-01 3.0250001e+00 1.0500000e+01 
7.5000000e-01 3.0250001e+00 1.1000000e+01 
7.5000000e-01 3.0250001e+00 1.1500000e+01 
7.5000000e-01 3.0250001e+00 1.2000000e+01 
7.5000000e-01 3.0250001e+00 1.2500000e+01 
7.5000000e-01 3.0250001e+00 1.3000000e+01 
7.5000000e-01 3.0250001e+00 1.3500000e+01 
7.5000000e-01 3.0250001e+00 1.4000000e+01 
7.5000000e-01 3.0250001e+00 1.4500000e+01 
7.5000000e-01 3.0250001e+00 1.5000000e+01 
7.5000000e-01 3.0250001e+00 1.5500000e+01 
7.5000000e-01 3.0250001e+00 1.6000000e+01 
7.5000000e-01 3.0250001e+00 1.6500000e+01 
7.5000000e-01 3.0250001e+00 1.7000000e+01 
7.5000000e-01 3.0250001e+00 1.7500000e+01 
7.5000000e-01 3.0250001e+00 1.8000000e+01 
7.5000000e-01 3.0250001e+00 1.8500000e+01 
7.5000000e-01 3.0250001e+00 1.9000000e+01 
7.5000000e-01 3.0250001e+00 1.9500000e+01 
7.5000000e-01 3.0250001e+00 2.0000000e+01 
7.5000000e-01 3.0250001e+00 2.0500000e+01 
7.5000000e-01 3.0250001e+00 2.1000000e+01 
7.5000000e-01 3.0250001e+00 2.1500000e+01 
7.5000000e-01 3.0250001e+00 2.2000000e+01 
7.5000000e-01 3.0250001e+00 2.2500000e+01 
7.5000000e-01 3.0250001e+00 2.3000000e+01 
7.5000000e-01 3.0250001e+00 2.3500000e+01 
7.5000000e-01 3.0250001e+00 2.4000000e+01 
7.5000000e-01 3.0250001e+00 2.4500000e+01 
7.5000000e-01 3.0250001e+00 2.5000000e+01 
7.5000000e-01 3.0250001e+00 2.5500000e+01 
7.5000000e-01 3.0250001e+00 2.6000000e+01 
7.5000000e-01 3.0250001e+00 2.6500000e+01 
7.5000000e-01 3.0250001e+00 2.7000000e+01 
7.5000000e-01 3.0250001e+00 2.7500000e+01 
7.5000000e-01 3.0250001e+00 2.8000000e+01 
7.5000000e-01 3.0250001e+00 2.8500000e+01 
7.5000000e-01 3.0250001e+00 2.9000000e+01 
7.5000000e-01 3.0250001e+00 2.9500000e+01 
7.5000000e-01 3.0250001e+00 3.0000000e+01 
7.5000000e-01 3.0250001e+00 3.0500000e+01 
7.5000000e-01 3.0250001e+00 3.1000000e+01 
7.5000000e-01 3.0250001e+00 3.1500000e+01 
7.5000000e-01 3.0250001e+00 3.2000000e+01 
7.5000000e-01 3.0250001e+00 3.2500000e+01 
7.5000000e-01 3.0250001e+00 3.3000000e+01 
7.5000000e-01 3.0250001e+00 3.3500000e+01 
7.5000000e-01 3.0250001e+00 3.4000000e+01 
7.5000000e-01 3.0250001e+00 3.4500000e+01 
7.5000000e-01 3.0250001e+00 3.5000000e+01 
7.5000000e-01 3.0250001e+00 3.5500000e+01 
7.5000000e-01 3.0250001e+00 3.6000000e+01 
7.5000000e-01 3.0250001e+00 3.6500000e+01 
7.5000000e-01 3.0250001e+00 3.7000000e+01 
7.5000000e-01 3.0250001e+00 3.7500000e+01 
7.5000000e-01 3.0250001e+00 3.8000000e+01 
7.5000000e-01 3.0250001e+00 3.8500000e+01 
7.5000000e-01 3.0250001e+00 3.9000000e+01 
7.5000000e-01 3.0250001e+00 3.9500000e+01 
7.5000000e-01 3.0250001e+00 4.0000000e+01 
7.5000000e-01 3.0250001e+00 4.0500000e+01 
7.5000000e-01 3.0250001e+00 4.1000000e+01 
7.5000000e-01 3.0250001e+00 4.1500000e+01 
7.5000000e-01 3.0250001e+00 4.2000000e+01 
7.5000000e-01 3.0250001e+00 4.2500000e+01 
7.5000000e-01 3.0250001e+00 4.3000000e+01 
7.5000000e-01 3.0250001e+00 4.3500000e+01 
7.5000000e-01 3.0250001e+00 4.4000000e+01 
7.5000000e-01 3.0250001e+00 4.4500000e+01 
7.5000000e-01 3.0250001e+00 4.5000000e+01 
7.5000000e-01 3.0250001e+00 4.5500000e+01 
7.5000000e-01 3.0250001e+00 4.6000000e+01 
7.5000000e-01 3.0250001e+00 4.6500000e+01 
7.5000000e-01 3.0250001e+00 4.7000000e+01 
7.5000000e-01 3.0250001e+00 4.7500000e+01 
7.5000000e-01 3.0250001e+00 4.8000000e+01 
7.5000000e-01 3.0250001e+00 4.8500000e+01 
7.5000000e-01 3.0250001e+00 4.9000000e+01 
7.5000000e-01 3.0250001e+00 4.9500000e+01 
7.5000000e-01 3.0250001e+00 5.0000000e+01 
1.5000000e+00 3.0000000e+00 2.5000000e+01 
3.0000000e+00 2.0000000e+00 2.5000000e+01 
4.0000000e+00 2.0000000e+00 2.5000000e+01 
5.0000000e+00 2.0000000e+00 2.5000000e+01 
0.0000000e+00 3.0000000e+00 2.5000000e+01 
0.0000000e+00 0.0000000e+00 1.0000000e+00 
0.0000000e+00 0.0000000e+00 2.0000000e+00 
0.0000000e+00 0.0000000e+00 3.0000000e+00 
0.0000000e+00 0.0000000e+00 4.0000000e+00 
0.0000000e+00 0.0000000e+00 5.0000000e+00 
[...]
POINT_DATA 1919
FIELD FieldData 3
DISPLACEMENT 3 1919  float
0.0000000e+00 0.0000000e+00 0.0000000e+00 
0.0000000e+00 0.0000000e+00 0.0000000e+00 
0.0000000e+00 0.0000000e+00 0.0000000e+00 
0.0000000e+00 0.0000000e+00 0.0000000e+00 
-5.2135988e-07 4.5165947e-07 7.0220057e-07 
1.0360249e-05 -4.6007981e-06 1.4058282e-05 
0.0000000e+00 2.4649373e-06 0.0000000e+00 
0.0000000e+00 -8.1302496e-06 0.0000000e+00 
-2.4476537e-07 5.1046828e-07 1.0789569e-06 
9.0595213e-06 -1.6589127e-07 1.3970549e-05 
2.3053060e-07 1.2714983e-06 7.7682563e-07 
9.9156987e-06 4.7507529e-06 6.9494736e-06 
0.0000000e+00 3.9597603e-06 0.0000000e+00 
0.0000000e+00 4.2085689e-05 0.0000000e+00 
-5.2782008e-07 5.8789215e-06 8.1692879e-06 
-3.1674401e-05 1.0288352e-04 -2.4554465e-04 
-2.9764828e-07 -2.6106791e-06 4.2524061e-06 
3.4087116e-05 1.9138242e-04 -2.3007324e-04 
0.0000000e+00 3.2498228e-06 0.0000000e+00 
0.0000000e+00 2.6232793e-04 0.0000000e+00 
-9.7877648e-07 -2.6378204e-06 3.9299325e-06 
-1.3571203e-06 -2.8097818e-06 2.5818269e-06 
-2.5173158e-06 -3.1535549e-06 1.0262504e-06 
-3.8007558e-06 -3.7166842e-06 -2.0860987e-06 
-3.2576970e-06 -4.4121794e-06 -4.2967336e-06 
-3.0391300e-06 -5.1453926e-06 -5.2461100e-06 
-1.5299229e-06 -5.8464425e-06 -4.6084610e-06 
-1.9013131e-06 -6.4081651e-06 -4.1236162e-06 
-1.7592938e-06 -6.8877694e-06 -4.5176207e-06 
-2.4287774e-06 -7.2873695e-06 -6.4389469e-06 
-1.2587295e-06 -7.6953856e-06 -7.2312255e-06 
-4.4098937e-07 -8.0053596e-06 -6.6337375e-06 
8.1501855e-07 -8.1807157e-06 -4.2933598e-06 
-6.8972940e-07 -8.0444706e-06 -1.8007231e-06 
-1.5477375e-06 -7.5530565e-06 -8.7151017e-07 
-2.9563084e-06 -6.6852558e-06 -1.9078418e-06 
-3.8097116e-06 -5.6942094e-06 -3.4958298e-06 
-4.4355788e-06 -4.7560857e-06 -3.8957946e-06 
-3.5889348e-06 -4.0647515e-06 -2.5988184e-06 
-3.4235638e-06 -3.5304270e-06 -2.4029021e-07 
-3.0837994e-06 -3.0628034e-06 1.3065614e-06 
-3.3424458e-06 -2.4929413e-06 1.1934601e-06 
-2.4556980e-06 -1.8604426e-06 2.2968676e-07 
-9.6659574e-07 -1.5045193e-06 -6.6165904e-07 
-3.1096164e-07 -1.8416436e-06 -2.6850000e-07 
-4.2959644e-07 -2.9089047e-06 1.5596173e-06 
-8.3334811e-07 -4.4434182e-06 2.8525369e-06 
-1.8243572e-06 -5.7518455e-06 2.7377966e-06 
7.1982605e-08 -6.1958340e-06 3.1718790e-07 
1.2904977e-06 -5.7038096e-06 -3.0923759e-06 
3.5524329e-06 -4.3736263e-06 -4.9405612e-06 
4.7251729e-06 -2.4533952e-06 -4.4333606e-06 
5.7232119e-06 5.6838090e-08 -3.7319860e-06 
5.8928013e-06 3.6621930e-06 -1.5432679e-06 
4.6521241e-06 9.1165784e-06 -1.2979781e-06 
3.7428472e-06 1.7184349e-05 -5.6259074e-07 
4.8665388e-06 2.8829974e-05 2.5183853e-08 
8.8947792e-07 4.4566845e-05 5.3881699e-06 
-9.1523532e-07 6.4160820e-05 9.5733549e-06 
-1.7367656e-06 8.3925188e-05 1.8938474e-05 
-1.0689769e-06 9.4967494e-05 2.9784815e-05 
-4.7376852e-07 7.7085184e-05 4.5662240e-05 
-4.7768885e-06 -2.0393684e-06 8.7702429e-05 
-2.2602138e-05 -1.9045093e-04 1.1465786e-04 
-5.1492905e-05 -5.5238121e-04 1.9051772e-04 
-5.4049102e-05 -1.1437950e-03 1.3736135e-04 
-1.4825039e-04 -2.0136784e-03 2.9346824e-04 
-1.8645117e-04 -3.0990406e-03 2.2998679e-04 
-2.3579363e-04 -4.2049536e-03 2.4739670e-04 
-1.5998412e-04 -4.8589362e-03 9.1410868e-05 
-2.6603328e-04 -4.7594900e-03 1.0414868e-05 
-3.1187930e-04 -4.4853571e-03 -4.5325061e-05 
-2.9551270e-04 -4.4808015e-03 -8.7156004e-05 
-3.2669536e-04 -4.6329158e-03 -1.6634140e-04 
-3.0007388e-04 -4.4723316e-03 -2.4635726e-04 
-2.4440049e-04 -3.4559669e-03 -1.8221981e-04 
-1.5526074e-04 -2.2038764e-03 -3.2124418e-04 
-8.4917607e-05 -1.1189561e-03 -1.6400008e-04 
-2.4450537e-05 -3.8076303e-04 -1.8388664e-04 
2.6447487e-06 3.7928367e-05 -7.7383687e-05 
1.3775828e-05 2.1255319e-04 -4.7762085e-05 
1.4580523e-05 2.3800276e-04 -1.5243472e-05 
8.7625467e-06 1.9250992e-04 2.3862176e-06 
5.2198684e-06 1.2506107e-04 -1.4967003e-06 
2.8937227e-06 6.5248350e-05 3.9719512e-06 
8.1837936e-07 2.1965707e-05 -1.7686160e-06 
-1.5189135e-06 -3.6358747e-06 -5.2571295e-07 
-3.4081406e-06 -1.5774131e-05 -3.1880361e-06 
-2.4485889e-06 -1.9235818e-05 -5.2163928e-06 
-6.0101888e-07 -1.7854003e-05 -7.3362639e-06 
3.1821594e-06 -1.4534005e-05 -7.8415133e-06 
3.7148259e-06 -1.0690610e-05 -6.4493979e-06 
4.9432006e-06 -6.6419525e-06 -3.0827503e-06 
3.8214898e-06 -1.6483440e-06 8.9390198e-08 
3.7807711e-06 5.4848206e-06 -2.0209413e-07 
5.5649411e-06 1.6093596e-05 -4.0714713e-06 
5.5756104e-06 3.0896088e-05 -2.5306597e-06 
4.1389426e-06 4.9694354e-05 1.9542895e-06 
3.1178267e-06 7.0648304e-05 7.2116327e-06 
9.0167225e-07 8.7634980e-05 1.8571140e-05 
-4.1029607e-06 8.9281042e-05 3.2815868e-05 
-7.9788533e-06 5.3349624e-05 4.7696903e-05 
-2.1345340e-05 -5.4635617e-05 9.3526331e-05 
-3.1277956e-05 -2.8431433e-04 1.0752943e-04 
-6.1522594e-05 -6.9700798e-04 1.9891562e-04 
-8.0481987e-05 -1.3462554e-03 1.6266418e-04 
-1.3288431e-04 -2.2634235e-03 2.7172995e-04 
-1.6535132e-04 -3.3712697e-03 1.1799901e-04 
-2.3284016e-04 -4.4502658e-03 1.9327668e-04 
-2.5464295e-04 -4.9397657e-03 5.7710178e-05 
-2.4277870e-04 -4.7099707e-03 1.0848440e-05 
-2.4016641e-04 -4.4183466e-03 -1.7983504e-05 
-2.0638316e-04 -4.4215433e-03 -3.1329317e-05 
-2.2730640e-04 -4.5371302e-03 -1.4120527e-04 
-2.1251498e-04 -4.1889534e-03 -2.2409055e-04 
-8.3275365e-05 -3.0535541e-03 -1.9508123e-04 
-9.8398115e-05 -1.7622837e-03 -2.7347275e-04 
-2.6641563e-05 -7.0587714e-04 -2.0930421e-04 
-1.3334387e-05 -3.7621932e-05 -2.1008059e-04 
0.0000000e+00 -2.6096468e-06 0.0000000e+00 
0.0000000e+00 -2.6442690e-06 0.0000000e+00 
0.0000000e+00 -2.8103609e-06 0.0000000e+00 
0.0000000e+00 -3.1613615e-06 0.0000000e+00 
0.0000000e+00 -3.7198024e-06 0.0000000e+00 
0.0000000e+00 -4.4152434e-06 0.0000000e+00 
0.0000000e+00 -5.1490942e-06 0.0000000e+00 
0.0000000e+00 -5.8415176e-06 0.0000000e+00 
0.0000000e+00 -6.4124083e-06 0.0000000e+00 
0.0000000e+00 -6.8856116e-06 0.0000000e+00 
0.0000000e+00 -7.3002070e-06 0.0000000e+00 
0.0000000e+00 -7.7023633e-06 0.0000000e+00 
0.0000000e+00 -8.0215341e-06 0.0000000e+00 
0.0000000e+00 -8.1865455e-06 0.0000000e+00 
0.0000000e+00 -8.0521786e-06 0.0000000e+00 
0.0000000e+00 -7.5467369e-06 0.0000000e+00 
0.0000000e+00 -6.6912776e-06 0.0000000e+00 
0.0000000e+00 -5.6994422e-06 0.0000000e+00 
0.0000000e+00 -4.7753470e-06 0.0000000e+00 
0.0000000e+00 -4.0728924e-06 0.0000000e+00 
0.0000000e+00 -3.5404089e-06 0.0000000e+00 
0.0000000e+00 -3.0551598e-06 0.0000000e+00 
0.0000000e+00 -2.4796498e-06 0.0000000e+00 
0.0000000e+00 -1.8618346e-06 0.0000000e+00 
0.0000000e+00 -1.5233950e-06 0.0000000e+00 
0.0000000e+00 -1.8607503e-06 0.0000000e+00 
0.0000000e+00 -2.9397579e-06 0.0000000e+00 
0.0000000e+00 -4.4480107e-06 0.0000000e+00 
0.0000000e+00 -5.7276397e-06 0.0000000e+00 
0.0000000e+00 -6.1881587e-06 0.0000000e+00 
0.0000000e+00 -5.6988706e-06 0.0000000e+00 
0.0000000e+00 -4.3915406e-06 0.0000000e+00 
0.0000000e+00 -2.4816752e-06 0.0000000e+00 
0.0000000e+00 4.4920156e-08 0.0000000e+00 
0.0000000e+00 3.6626918e-06 0.0000000e+00 
0.0000000e+00 9.1083502e-06 0.0000000e+00 
0.0000000e+00 1.7209106e-05 0.0000000e+00 
0.0000000e+00 2.8873696e-05 0.0000000e+00 
0.0000000e+00 4.4734497e-05 0.0000000e+00 
0.0000000e+00 6.4435852e-05 0.0000000e+00 
0.0000000e+00 8.4523272e-05 0.0000000e+00 
0.0000000e+00 9.5642950e-05 0.0000000e+00 
0.0000000e+00 7.8002478e-05 0.0000000e+00 
0.0000000e+00 -1.1417093e-06 0.0000000e+00 
0.0000000e+00 -1.9063128e-04 0.0000000e+00 
0.0000000e+00 -5.5274490e-04 0.0000000e+00 
0.0000000e+00 -1.1495297e-03 0.0000000e+00 
0.0000000e+00 -2.0208301e-03 0.0000000e+00 
0.0000000e+00 -3.1133182e-03 0.0000000e+00 
0.0000000e+00 -4.2238329e-03 0.0000000e+00 
0.0000000e+00 -4.8929895e-03 0.0000000e+00 
0.0000000e+00 -4.7824900e-03 0.0000000e+00 
0.0000000e+00 -4.5133252e-03 0.0000000e+00 
0.0000000e+00 -4.5000119e-03 0.0000000e+00 
0.0000000e+00 -4.6637654e-03 0.0000000e+00 
0.0000000e+00 -4.4946428e-03 0.0000000e+00 
0.0000000e+00 -3.4821734e-03 0.0000000e+00 
0.0000000e+00 -2.2155819e-03 0.0000000e+00 
0.0000000e+00 -1.1286787e-03 0.0000000e+00 
0.0000000e+00 -3.8289555e-04 0.0000000e+00 
0.0000000e+00 3.7477002e-05 0.0000000e+00 
0.0000000e+00 2.1363175e-04 0.0000000e+00 
0.0000000e+00 2.3964359e-04 0.0000000e+00 
0.0000000e+00 1.9356712e-04 0.0000000e+00 
0.0000000e+00 1.2609367e-04 0.0000000e+00 
0.0000000e+00 6.5628556e-05 0.0000000e+00 
0.0000000e+00 2.2190492e-05 0.0000000e+00 
0.0000000e+00 -3.6348449e-06 0.0000000e+00 
0.0000000e+00 -1.5851199e-05 0.0000000e+00 
0.0000000e+00 -1.9298855e-05 0.0000000e+00 
0.0000000e+00 -1.7938575e-05 0.0000000e+00 
0.0000000e+00 -1.4596966e-05 0.0000000e+00 
0.0000000e+00 -1.0748554e-05 0.0000000e+00 
0.0000000e+00 -6.6704929e-06 0.0000000e+00 
0.0000000e+00 -1.6547226e-06 0.0000000e+00 
0.0000000e+00 5.5190885e-06 0.0000000e+00 
0.0000000e+00 1.6141465e-05 0.0000000e+00 
0.0000000e+00 3.0985975e-05 0.0000000e+00 
0.0000000e+00 4.9921706e-05 0.0000000e+00 
0.0000000e+00 7.0942137e-05 0.0000000e+00 
0.0000000e+00 8.8212895e-05 0.0000000e+00 
0.0000000e+00 8.9952002e-05 0.0000000e+00 
0.0000000e+00 5.4213018e-05 0.0000000e+00 
0.0000000e+00 -5.3942662e-05 0.0000000e+00 
0.0000000e+00 -2.8453313e-04 0.0000000e+00 
0.0000000e+00 -6.9814944e-04 0.0000000e+00 
0.0000000e+00 -1.3516527e-03 0.0000000e+00 
0.0000000e+00 -2.2712070e-03 0.0000000e+00 
0.0000000e+00 -3.3898167e-03 0.0000000e+00 
0.0000000e+00 -4.4711339e-03 0.0000000e+00 
0.0000000e+00 -4.9708937e-03 0.0000000e+00 
0.0000000e+00 -4.7334582e-03 0.0000000e+00 
0.0000000e+00 -4.4456995e-03 0.0000000e+00 
0.0000000e+00 -4.4430983e-03 0.0000000e+00 
0.0000000e+00 -4.5670080e-03 0.0000000e+00 
0.0000000e+00 -4.2131976e-03 0.0000000e+00 
0.0000000e+00 -3.0731226e-03 0.0000000e+00 
0.0000000e+00 -1.7741803e-03 0.0000000e+00 
0.0000000e+00 -7.1036810e-04 0.0000000e+00 
0.0000000e+00 -3.8400885e-05 0.0000000e+00 
0.0000000e+00 1.9064838e-04 0.0000000e+00 
-6.0094136e-04 -1.4250325e-03 1.3425438e-04 
5.1638261e-05 -8.3887280e-05 -2.6630469e-06 
5.0328337e-05 -1.9272293e-05 -2.5533836e-06 
4.5512013e-05 -1.5101357e-05 1.0197284e-08 
0.0000000e+00 -2.5543454e-03 0.0000000e+00 
0.0000000e+00 0.0000000e+00 0.0000000e+00 
0.0000000e+00 0.0000000e+00 0.0000000e+00 
0.0000000e+00 0.0000000e+00 0.0000000e+00 
0.0000000e+00 0.0000000e+00 0.0000000e+00 
0.0000000e+00 0.0000000e+00 0.0000000e+00 
0.0000000e+00 0.0000000e+00 0.0000000e+00 
0.0000000e+00 0.0000000e+00 0.0000000e+00 
0.0000000e+00 0.0000000e+00 0.0000000e+00 
0.0000000e+00 0.0000000e+00 0.0000000e+00 
0.0000000e+00 0.0000000e+00 0.0000000e+00 
0.0000000e+00 0.0000000e+00 0.0000000e+00 
0.0000000e+00 0.0000000e+00 0.0000000e+00 
0.0000000e+00 0.0000000e+00 0.0000000e+00 
0.0000000e+00 0.0000000e+00 0.0000000e+00 
0.0000000e+00 0.0000000e+00 0.0000000e+00 
0.0000000e+00 0.0000000e+00 0.0000000e+00 
0.0000000e+00 0.0000000e+00 0.0000000e+00 
0.0000000e+00 0.0000000e+00 0.0000000e+00 
0.0000000e+00 0.0000000e+00 0.0000000e+00 
0.0000000e+00 0.0000000e+00 0.0000000e+00 
0.0000000e+00 0.0000000e+00 0.0000000e+00 
0.0000000e+00 0.0000000e+00 0.0000000e+00 
0.0000000e+00 0.0000000e+00 0.0000000e+00 
0.0000000e+00 0.0000000e+00 0.0000000e+00 
0.0000000e+00 0.0000000e+00 0.0000000e+00 
0.0000000e+00 0.0000000e+00 0.0000000e+00 
0.0000000e+00 0.0000000e+00 0.0000000e+00 
0.0000000e+00 0.0000000e+00 0.0000000e+00 
0.0000000e+00 0.0000000e+00 0.0000000e+00 
0.0000000e+00 0.0000000e+00 0.0000000e+00 
0.0000000e+00 0.0000000e+00 0.0000000e+00 
0.0000000e+00 0.0000000e+00 0.0000000e+00 
0.0000000e+00 0.0000000e+00 0.0000000e+00 
0.0000000e+00 0.0000000e+00 0.0000000e+00 
0.0000000e+00 0.0000000e+00 0.0000000e+00 
0.0000000e+00 0.0000000e+00 0.0000000e+00 
0.0000000e+00 0.0000000e+00 0.0000000e+00 
0.0000000e+00 0.0000000e+00 0.0000000e+00 
0.0000000e+00 0.0000000e+00 0.0000000e+00 
0.0000000e+00 0.0000000e+00 0.0000000e+00 
0.0000000e+00 0.0000000e+00 0.0000000e+00 
0.0000000e+00 0.0000000e+00 0.0000000e+00 
0.0000000e+00 0.0000000e+00 0.0000000e+00 
0.0000000e+00 0.0000000e+00 0.0000000e+00 
0.0000000e+00 0.0000000e+00 0.0000000e+00 
0.0000000e+00 0.0000000e+00 0.0000000e+00 
0.0000000e+00 0.0000000e+00 0.0000000e+00 
0.0000000e+00 0.0000000e+00 0.0000000e+00 
0.0000000e+00 0.0000000e+00 0.0000000e+00 
0.0000000e+00 0.0000000e+00 0.0000000e+00 
0.0000000e+00 0.0000000e+00 0.0000000e+00 
0.0000000e+00 0.0000000e+00 0.0000000e+00 
0.0000000e+00 0.0000000e+00 0.0000000e+00 
0.0000000e+00 0.0000000e+00 0.0000000e+00 
0.0000000e+00 0.0000000e+00 0.0000000e+00 
0.0000000e+00 0.0000000e+00 0.0000000e+00 
0.0000000e+00 0.0000000e+00 0.0000000e+00 
0.0000000e+00 0.0000000e+00 0.0000000e+00 
0.0000000e+00 0.0000000e+00 0.0000000e+00 
0.0000000e+00 0.0000000e+00 0.0000000e+00 
0.0000000e+00 0.0000000e+00 0.0000000e+00 
0.0000000e+00 0.0000000e+00 0.0000000e+00 
0.0000000e+00 0.0000000e+00 0.0000000e+00 
0.0000000e+00 0.0000000e+00 0.0000000e+00 
0.0000000e+00 0.0000000e+00 0.0000000e+00 
0.0000000e+00 0.0000000e+00 0.0000000e+00 
0.0000000e+00 0.0000000e+00 0.0000000e+00 
0.0000000e+00 0.0000000e+00 0.0000000e+00 
0.0000000e+00 0.0000000e+00 0.0000000e+00 
0.0000000e+00 0.0000000e+00 0.0000000e+00 
0.0000000e+00 0.0000000e+00 0.0000000e+00 
0.0000000e+00 0.0000000e+00 0.0000000e+00 
0.0000000e+00 0.0000000e+00 0.0000000e+00 
0.0000000e+00 0.0000000e+00 0.0000000e+00 
0.0000000e+00 0.0000000e+00 0.0000000e+00 
0.0000000e+00 0.0000000e+00 0.0000000e+00 
0.0000000e+00 0.0000000e+00 0.0000000e+00 
0.0000000e+00 0.0000000e+00 0.0000000e+00 
0.0000000e+00 0.0000000e+00 0.0000000e+00 
0.0000000e+00 0.0000000e+00 0.0000000e+00 
0.0000000e+00 0.0000000e+00 0.0000000e+00 
0.0000000e+00 0.0000000e+00 0.0000000e+00 
0.0000000e+00 0.0000000e+00 0.0000000e+00 
0.0000000e+00 0.0000000e+00 0.0000000e+00 
0.0000000e+00 0.0000000e+00 0.0000000e+00 
0.0000000e+00 0.0000000e+00 0.0000000e+00 
0.0000000e+00 0.0000000e+00 0.0000000e+00 
0.0000000e+00 0.0000000e+00 0.0000000e+00 
0.0000000e+00 0.0000000e+00 0.0000000e+00 
0.0000000e+00 0.0000000e+00 0.0000000e+00 
0.0000000e+00 0.0000000e+00 0.0000000e+00 
0.0000000e+00 0.0000000e+00 0.0000000e+00 
0.0000000e+00 0.0000000e+00 0.0000000e+00 
0.0000000e+00 0.0000000e+00 0.0000000e+00 
0.0000000e+00 0.0000000e+00 0.0000000e+00 
0.0000000e+00 0.0000000e+00 0.0000000e+00 
0.0000000e+00 0.0000000e+00 0.0000000e+00 
0.0000000e+00 0.0000000e+00 0.0000000e+00 
0.0000000e+00 0.0000000e+00 0.0000000e+00 
0.0000000e+00 0.0000000e+00 0.0000000e+00 
0.0000000e+00 0.0000000e+00 0.0000000e+00 
0.0000000e+00 0.0000000e+00 0.0000000e+00 
0.0000000e+00 0.0000000e+00 0.0000000e+00 
0.0000000e+00 0.0000000e+00 0.0000000e+00 
0.0000000e+00 0.0000000e+00 0.0000000e+00 
0.0000000e+00 0.0000000e+00 0.0000000e+00 
4.1452637e-08 -3.3850611e-08 4.6730420e-07 
3.2493435e-07 -1.6713126e-07 7.5743422e-08 
4.6960054e-07 3.3450526e-08 -4.3465855e-07 
5.2792387e-07 -7.5241303e-08 -6.4838127e-07 
4.4796755e-07 -4.5705224e-07 -7.2062818e-07 
4.2139513e-07 -7.4284975e-07 -7.5047558e-07 
4.3461546e-07 -5.6668728e-07 -8.7307376e-07 
5.5984674e-07 -4.7769635e-07 -7.9344562e-07 
4.4414122e-07 -1.0470833e-07 -7.1140738e-07 
2.4253097e-07 -1.4341163e-07 -5.7649640e-07 
1.5632155e-07 3.0291261e-08 -5.6404429e-07 
-8.0526213e-08 -2.2205973e-07 -8.6465366e-07 
-4.8781324e-08 -6.1613702e-07 -7.7362171e-07 
-9.2803113e-08 -5.8043531e-07 -5.8762555e-07 
-1.3439259e-07 -3.2110461e-07 -2.7649276e-07 
-1.9328024e-07 -3.9042490e-07 -2.7557869e-07 
-2.0738193e-07 -7.0978808e-07 -4.4621038e-07 
2.9619528e-07 -7.2692401e-08 -1.0322375e-06 
1.0889854e-06 4.6970925e-07 -2.4741389e-06 
4.9474929e-06 -1.5232961e-06 -5.6627769e-06 
9.2106447e-06 -4.1316562e-06 -8.2573652e-06 
1.9417224e-05 -7.3694641e-06 -1.1736352e-05 
3.2761283e-05 -1.0661624e-05 -1.1854288e-05 
4.3569158e-05 -1.5363108e-05 -8.4966350e-06 
4.6520825e-05 -1.4821816e-05 -3.0520323e-06 
4.6752648e-05 -1.5220494e-05 5.7420530e-06 
4.0744380e-05 -1.4179698e-05 1.0712090e-05 
2.9558831e-05 -8.5946631e-06 1.4606787e-05 
1.8191791e-05 -5.9864155e-06 1.4224413e-05 
9.3124600e-06 -3.1145744e-06 1.0869781e-05 
4.4700055e-06 -1.1404650e-06 6.3354178e-06 
1.2008189e-06 -1.2021499e-06 2.5693239e-06 
2.9331542e-07 -5.8501729e-07 1.9225881e-07 
-4.3514273e-08 -1.6296569e-07 -8.7056515e-07 
-1.5385007e-07 9.0852247e-08 -1.2084115e-06 
-3.1521000e-07 -1.1396647e-07 -1.4562336e-06 
-1.6790850e-07 -5.7578438e-07 -1.9727763e-06 
8.3255065e-07 -8.4268032e-07 -2.6811615e-06 
2.6686112e-06 -6.9356020e-07 -4.0052291e-06 
5.5698288e-06 -1.4743321e-06 -6.6276916e-06 
1.2022186e-05 -3.9077941e-06 -1.0193036e-05 
2.2478924e-05 -7.7242112e-06 -1.2662728e-05 
3.2974975e-05 -1.1800984e-05 -1.2207918e-05 
4.5262495e-05 -1.6871456e-05 -6.5072277e-06 
4.8758266e-05 -1.7369666e-05 1.0897592e-06 
4.6625115e-05 -1.3926896e-05 6.4490882e-06 
4.5567798e-05 -1.3800727e-05 1.4533491e-05 
2.8637356e-05 -8.3202094e-06 1.7508779e-05 
1.7186101e-05 -4.5939441e-06 1.7089147e-05 
0.0000000e+00 3.6378940e-06 0.0000000e+00 
0.0000000e+00 3.1060765e-06 0.0000000e+00 
0.0000000e+00 2.4173994e-06 0.0000000e+00 
0.0000000e+00 2.7404787e-06 0.0000000e+00 
0.0000000e+00 3.9077850e-06 0.0000000e+00 
0.0000000e+00 5.3109620e-06 0.0000000e+00 
0.0000000e+00 5.2683440e-06 0.0000000e+00 
0.0000000e+00 4.6461250e-06 0.0000000e+00 
0.0000000e+00 4.2010884e-06 0.0000000e+00 
0.0000000e+00 3.3870301e-06 0.0000000e+00 
0.0000000e+00 2.7815154e-06 0.0000000e+00 
0.0000000e+00 2.6444523e-06 0.0000000e+00 
0.0000000e+00 2.2273016e-06 0.0000000e+00 
0.0000000e+00 1.9198008e-06 0.0000000e+00 
0.0000000e+00 4.4425774e-06 0.0000000e+00 
0.0000000e+00 6.5362660e-06 0.0000000e+00 
0.0000000e+00 5.9860658e-06 0.0000000e+00 
0.0000000e+00 3.3853744e-06 0.0000000e+00 
0.0000000e+00 2.2687848e-06 0.0000000e+00 
0.0000000e+00 9.0281651e-07 0.0000000e+00 
0.0000000e+00 -1.3286422e-05 0.0000000e+00 
0.0000000e+00 -6.7664841e-05 0.0000000e+00 
0.0000000e+00 -1.8739140e-04 0.0000000e+00 
0.0000000e+00 -3.8898198e-04 0.0000000e+00 
0.0000000e+00 -5.0573703e-04 0.0000000e+00 
0.0000000e+00 -5.2188290e-04 0.0000000e+00 
0.0000000e+00 -4.8451737e-04 0.0000000e+00 
0.0000000e+00 -3.3703612e-04 0.0000000e+00 
0.0000000e+00 -1.5296674e-04 0.0000000e+00 
0.0000000e+00 -1.5441290e-05 0.0000000e+00 
0.0000000e+00 1.9159332e-05 0.0000000e+00 
0.0000000e+00 1.8605628e-05 0.0000000e+00 
0.0000000e+00 1.2258914e-05 0.0000000e+00 
0.0000000e+00 5.3068120e-06 0.0000000e+00 
0.0000000e+00 3.5888434e-06 0.0000000e+00 
0.0000000e+00 3.1285392e-06 0.0000000e+00 
0.0000000e+00 2.4641149e-06 0.0000000e+00 
0.0000000e+00 1.2961115e-06 0.0000000e+00 
0.0000000e+00 2.6067671e-06 0.0000000e+00 
0.0000000e+00 1.9024047e-07 0.0000000e+00 
0.0000000e+00 -1.7458678e-05 0.0000000e+00 
0.0000000e+00 -8.6847613e-05 0.0000000e+00 
0.0000000e+00 -2.2656520e-04 0.0000000e+00 
0.0000000e+00 -4.0393262e-04 0.0000000e+00 
0.0000000e+00 -5.2051636e-04 0.0000000e+00 
0.0000000e+00 -5.2432285e-04 0.0000000e+00 
0.0000000e+00 -4.7165371e-04 0.0000000e+00 
0.0000000e+00 -3.0789580e-04 0.0000000e+00 
0.0000000e+00 -1.2478218e-04 0.0000000e+00 
-1.3558065e-07 5.7561266e-07 5.9776175e-07 
-1.8172640e-08 5.7582400e-07 3.4316272e-07 
-3.6050230e-07 7.1936546e-07 4.8058189e-07 
-3.9451530e-07 2.1053418e-06 8.4898664e-07 
1.5017481e-05 -2.7828735e-06 1.6468110e-05 
2.0219224e-05 -2.5403765e-06 2.7872786e-05 
1.9573376e-05 -1.3231812e-05 4.1735631e-05 
6.7591818e-06 -1.9567624e-05 6.3624560e-05 
2.0013410e-07 9.8180885e-07 6.9578931e-07 
1.2507519e-05 4.2859992e-07 1.2681036e-05 
6.1392137e-07 3.1262398e-06 1.2131139e-06 
3.3331631e-07 2.0315922e-06 1.1780521e-06 
0.0000000e+00 5.6921804e-06 0.0000000e+00 
0.0000000e+00 4.6127716e-06 0.0000000e+00 
0.0000000e+00 3.8856906e-06 0.0000000e+00 
0.0000000e+00 4.0267278e-06 0.0000000e+00 
0.0000000e+00 5.9460954e-06 0.0000000e+00 
0.0000000e+00 8.1376684e-06 0.0000000e+00 
0.0000000e+00 8.1939797e-06 0.0000000e+00 
0.0000000e+00 7.3806996e-06 0.0000000e+00 
0.0000000e+00 6.8162276e-06 0.0000000e+00 
0.0000000e+00 5.5244245e-06 0.0000000e+00 
0.0000000e+00 4.0659943e-06 0.0000000e+00 
0.0000000e+00 4.6077143e-06 0.0000000e+00 
0.0000000e+00 3.1716393e-06 0.0000000e+00 