# vtk DataFile Version 4.0
vtk output
ASCII
DATASET UNSTRUCTURED_GRID
POINTS 1919 float
0.0000000e+00 0.0000000e+00 0.0000000e+00 
0.0000000e+00 0.0000000e+00 5.0000000e+01 
5.0000000e+00 0.0000000e+00 0.0000000e+00 
5.0000000e+00 0.0000000e+00 5.0000000e+01 
5.0000000e+00 1.0000000e+00 0.0000000e+00 
5.0000000e+00 1.0000000e+00 5.0000000e+01 
0.0000000e+00 1.0000000e+00 0.0000000e+00 
0.0000000e+00 1.0000000e+00 5.0000000e+01 
5.0000000e+00 2.0000000e+00 0.0000000e+00 
5.0000000e+00 2.0000000e+00 5.0000000e+01 
3.0000000e+00 2.0000000e+00 0.0000000e+00 
3.0000000e+00 2.0000000e+00 5.0000000e+01 
0.0000000e+00 2.0000000e+00 0.0000000e+00 
0.0000000e+00 2.0000000e+00 5.0000000e+01 
1.5000000e+00 3.0000000e+00 0.0000000e+00 
1.5000000e+00 3.0000000e+00 5.0000000e+01 
7.5000000e-01 3.0000000e+00 0.0000000e+00 
7.5000000e-01 3.0000000e+00 5.0000000e+01 
0.0000000e+00 3.0000000e+00 0.0000000e+00 
0.0000000e+00 3.0000000e+00 5.0000000e+01 
7.5000000e-01 3.0000000e+00 5.0000000e-01 
7.5000000e-01 3.0000000e+00 1.0000000e+00 
7.5000000e-01 3.0000000e+00 1.5000000e+00 
7.5000000e-01 3.0000000e+00 2.0000000e+00 
7.5000000e-01 3.0000000e+00 2.5000000e+00 
7.5000000e-01 3.0000000e+00 3.0000000e+00 
7.5000000e-01 3.0000000e+00 3.5000000e+00 
7.5000000e-01 3.0000000e+00 4.0000000e+00 
7.5000000e-01 3.0000000e+00 4.5000000e+00 
7.5000000e-01 3.0000000e+00 5.0000000e+00 
7.5000000e-01 3.0000000e+00 5.5000000e+00 
7.5000000e-01 3.0000000e+00 6.0000000e+00 
7.5000000e-01 3.0000000e+00 6.5000000e+00 
7.5000000e-01 3.0000000e+00 7.0000000e+00 
7.5000000e-01 3.0000000e+00 7.5000000e+00 
7.5000000e-01 3.0000000e+00 8.0000000e+00 
7.5000000e-01 3.0000000e+00 8.5000000e+00 
7.5000000e-01 3.0000000e+00 9.0000000e+00 
7.5000000e-01 3.0000000e+00 9.5000000e+00 
7.5000000e-01 3.0000000e+00 1.0000000e+01 
7.5000000e-01 3.0000000e+00 1.0500000e+01 
7.5000000e-01 3.0000000e+00 1.1000000e+01 
7.5000000e-01 3.0000000e+00 1.1500000e+01 
7.5000000e-01 3.0000000e+00 1.2000000e+01 
7.5000000e-01 3.0000000e+00 1.2500000e+01 
7.5000000e-01 3.0000000e+00 1.3000000e+01 
7.5000000e-01 3.0000000e+00 1.3500000e+01 
7.5000000e-01 3.0000000e+00 1.4000000e+01 
7.5000000e-01 3.0000000e+00 1.4500000e+01 
7.5000000e-01 3.0000000e+00 1.5000000e+01 
7.5000000e-01 3.0000000e+00 1.5500000e+01 
7.5000000e-01 3.0000000e+00 1.6000000e+01 
7.5000000e-01 3.0000000e+00 1.6500000e+01 
7.5000000e-01 3.0000000e+00 1.7000000e+01 
7.5000000e-01 3.0000000e+00 1.7500000e+01 
7.5000000e-01 3.0000000e+00 1.8000000e+01 
7.5000000e-01 3.0000000e+00 1.8500000e+01 
7.5000000e-01 3.0000000e+00 1.9000000e+01 
7.5000000e-01 3.0000000e+00 1.9500000e+01 
7.5000000e-01 3.0000000e+00 2.0000000e+01 
7.5000000e-01 3.0000000e+00 2.0500000e+01 
7.5000000e-01 3.0000000e+00 2.1000000e+01 
7.5000000e-01 3.0000000e+00 2.1500000e+01 
7.5000000e-01 3.0000000e+00 2.2000000e+01 
7.5000000e-01 3.0000000e+00 2.2500000e+01 
7.5000000e-01 3.0000000e+00 2.3000000e+01 
7.5000000e-01 3.0000000e+00 2.3500000e+01 
7.5000000e-01 3.0000000e+00 2.4000000e+01 
7.5000000e-01 3.0000000e+00 2.4500000e+01 
7.5000000e-01 3.0000000e+00 2.5000000e+01 
7.5000000e-01 3.0000000e+00 2.5500000e+01 
7.5000000e-01 3.0000000e+00 2.6000000e+01 
7.5000000e-01 3.0000000e+00 2.6500000e+01 
7.5000000e-01 3.0000000e+00 2.7000000e+01 
7.5000000e-01 3.0000000e+00 2.7500000e+01 
7.5000000e-01 3.0000000e+00 2.8000000e+01 
7.5000000e-01 3.0000000e+00 2.8500000e+01 
7.5000000e-01 3.0000000e+00 2.9000000e+01 
7.5000000e-01 3.0000000e+00 2.9500000e+01 
7.5000000e-01 3.0000000e+00 3.0000000e+01 
7.5000000e-01 3.0000000e+00 3.0500000e+01 
7.5000000e-01 3.0000000e+00 3.1000000e+01 
7.5000000e-01 3.0000000e+00 3.1500000e+01 
7.5000000e-01 3.0000000e+00 3.2000000e+01 
7.5000000e-01 3.0000000e+00 3.2500000e+01 
7.5000000e-01 3.0000000e+00 3.3000000e+01 
7.5000000e-01 3.0000000e+00 3.3500000e+01 
7.5000000e-01 3.0000000e+00 3.4000000e+01 
7.5000000e-01 3.0000000e+00 3.4500000e+01 
7.5000000e-01 3.0000000e+00 3.5000000e+01 
7.5000000e-01 3.0000000e+00 3.5500000e+01 
7.5000000e-01 3.0000000e+00 3.6000000e+01 
7.5000000e-01 3.0000000e+00 3.6500000e+01 
7.5000000e-01 3.0000000e+00 3.7000000e+01 
7.5000000e-01 3.0000000e+00 3.7500000e+01 
7.5000000e-01 3.0000000e+00 3.8000000e+01 
7.5000000e-01 3.0000000e+00 3.8500000e+01 
7.5000000e-01 3.0000000e+00 3.9000000e+01 
7.5000000e-01 3.0000000e+00 3.9500000e+01 
7.5000000e-01 3.0000000e+00 4.0000000e+01 
7.5000000e-01 3.0000000e+00 4.0500000e+01 
7.5000000e-01 3.0000000e+00 4.1000000e+01 
7.5000000e-01 3.0000000e+00 4.1500000e+01 
7.5000000e-01 3.0000000e+00 4.2000000e+01 
7.5000000e-01 3.0000000e+00 4.2500000e+01 
7.5000000e-01 3.0000000e+00 4.3000000e+01 
7.5000000e-01 3.0000000e+00 4.3500000e+01 
7.5000000e-01 3.0000000e+00 4.4000000e+01 
7.5000000e-01 3.0000000e+00 4.4500000e+01 
7.5000000e-01 3.0000000e+00 4.5000000e+01 
7.5000000e-01 3.0000000e+00 4.5500000e+01 
7.5000000e-01 3.0000000e+00 4.6000000e+01 
7.5000000e-01 3.0000000e+00 4.6500000e+01 
7.5000000e-01 3.0000000e+00 4.7000000e+01 
7.5000000e-01 3.0000000e+00 4.7500000e+01 
7.5000000e-01 3.0000000e+00 4.8000000e+01 
7.5000000e-01 3.0000000e+00 4.8500000e+01 
7.5000000e-01 3.0000000e+00 4.9000000e+01 
7.5000000e-01 3.0000000e+00 4.9500000e+01 
7.5000000e-01 3.0250001e+00 0.0000000e+00 
7.5000000e-01 3.0250001e+00 5.0000000e-01 
7.5000000e-01 3.0250001e+00 1.0000000e+00 
7.5000000e-01 3.0250001e+00 1.5000000e+00 
7.5000000e-01 3.0250001e+00 2.0000000e+00 
7.5000000e-01 3.0250001e+00 2.5000000e+00 
7.5000000e-01 3.0250001e+00 3.0000000e+00 
7.5000000e-01 3.0250001e+00 3.5000000e+00 
7.5000000e-01 3.0250001e+00 4.0000000e+00 
7.5000000e-01 3.0250001e+00 4.5000000e+00 
7.5000000e-01 3.0250001e+00 5.0000000e+00 
7.5000000e-01 3.0250001e+00 5.5000000e+00 
7.5000000e-01 3.0250001e+00 6.0000000e+00 
7.5000000e-01 3.0250001e+00 6.5000000e+00 
7.5000000e-01 3.0250001e+00 7.0000000e+00 
7.5000000e-01 3.0250001e+00 7.5000000e+00 
7.5000000e-01 3.0250001e+00 8.0000000e+00 
7.5000000e-01 3.0250001e+00 8.5000000e+00 
7.5000000e-01 3.0250001e+00 9.0000000e+00 
7.5000000e-01 3.0250001e+00 9.5000000e+00 
7.5000000e-01 3.0250001e+00 1.0000000e+01 
7.5000000e-01 3.0250001e+00 1.0500000e+01 
7.5000000e-01 3.0250001e+00 1.1000000e+01 
7.5000000e-01 3.0250001e+00 1.1500000e+01 
7.5000000e-01 3.0250001e+00 1.2000000e+01 
7.5000000e-01 3.0250001e+00 1.2500000e+01 
7.5000000e-01 3.0250001e+00 1.3000000e+01 
7.5000000e-01 3.0250001e+00 1.3500000e+01 
7.5000000e-01 3.0250001e+00 1.4000000e+01 
7.5000000e-01 3.0250001e+00 1.4500000e+01 
7.5000000e-01 3.0250001e+00 1.5000000e+01 
7.5000000e-01 3.0250001e+00 1.5500000e+01 
7.5000000e-01 3.0250001e+00 1.6000000e+01 
7.5000000e-01 3.0250001e+00 1.6500000e+01 
7.5000000e-01 3.0250001e+00 1.7000000e+01 
7.5000000e-01 3.0250001e+00 1.7500000e+01 
7.5000000e-01 3.0250001e+00 1.8000000e+01 
7.5000000e-01 3.0250001e+00 1.8500000e+01 
7.5000000e-01 3.0250001e+00 1.9000000e+01 
7.5000000e-01 3.0250001e+00 1.9500000e+01 
7.5000000e-01 3.0250001e+00 2.0000000e+01 
7.5000000e-01 3.0250001e+00 2.0500000e+01 
7.5000000e-01 3.0250001e+00 2.1000000e+01 
7.5000000e-01 3.0250001e+00 2.1500000e+01 
7.5000000e-01 3.0250001e+00 2.2000000e+01 
7.5000000e-01 3.0250001e+00 2.2500000e+01 
7.5000000e-01 3.0250001e+00 2.3000000e+01 
7.5000000e-01 3.0250001e+00 2.3500000e+01 
7.5000000e-01 3.0250001e+00 2.4000000e+01 
7.5000000e-01 3.0250001e+00 2.4500000e+01 
7.5000000e-01 3.0250001e+00 2.5000000e+01 
7.5000000e-01 3.0250001e+00 2.5500000e+01 
7.5000000e-01 3.0250001e+00 2.6000000e+01 
7.5000000e-01 3.0250001e+00 2.6500000e+01 
7.5000000e-01 3.0250001e+00 2.7000000e+01 
7.5000000e-01 3.0250001e+00 2.7500000e+01 
7.5000000e-01 3.0250001e+00 2.8000000e+01 
7.5000000e-01 3.0250001e+00 2.8500000e+01 
7.5000000e-01 3.0250001e+00 2.9000000e+01 
7.5000000e-01 3.0250001e+00 2.9500000e+01 
7.5000000e-01 3.0250001e+00 3.0000000e+01 
7.5000000e-01 3.0250001e+00 3.0500000e+01 
7.5000000e-01 3.0250001e+00 3.1000000e+01 
7.5000000e-01 3.0250001e+00 3.1500000e+01 
7.5000000e-01 3.0250001e+00 3.2000000e+01 
7.5000000e-01 3.0250001e+00 3.2500000e+01 
7.5000000e-01 3.0250001e+00 3.3000000e+01 
7.5000000e-01 3.0250001e+00 3.3500000e+01 
7.5000000e-01 3.0250001e+00 3.4000000e+01 
7.5000000e-01 3.0250001e+00 3.4500000e+01 
7.5000000e-01 3.0250001e+00 3.5000000e+01 
7.5000000e-01 3.0250001e+00 3.5500000e+01 
7.5000000e-01 3.0250001e+00 3.6000000e+01 
7.5000000e-01 3.0250001e+00 3.6500000e+01 
7.5000000e-01 3.0250001e+00 3.7000000e+01 
7.5000000e-01 3.0250001e+00 3.7500000e+01 
7.5000000e-01 3.0250001e+00 3.8000000e+01 
7.5000000e-01 3.0250001e+00 3.8500000e+01 
7.5000000e-01 3.0250001e+00 3.9000000e+01 
7.5000000e-01 3.0250001e+00 3.9500000e+01 
7.5000000e-01 3.0250001e+00 4.0000000e+01 
7.5000000e-01 3.0250001e+00 4.0500000e+01 
7.5000000e-01 3.0250001e+00 4.1000000e+01 
7.5000000e-01 3.0250001e+00 4.1500000e+01 
7.5000000e-01 3.0250001e+00 4.2000000e+01 
7.5000000e-01 3.0250001e+00 4.2500000e+01 
7.5000000e-01 3.0250001e+00 4.3000000e+01 
7.5000000e-01 3.0250001e+00 4.3500000e+01 
7.5000000e-01 3.0250001e+00 4.4000000e+01 
7.5000000e-01 3.0250001e+00 4.4500000e+01 
7.5000000e-01 3.0250001e+00 4.5000000e+01 
7.5000000e-01 3.0250001e+00 4.5500000e+01 
7.5000000e-01 3.0250001e+00 4.6000000e+01 
7.5000000e-01 3.0250001e+00 4.6500000e+01 
7.5000000e-01 3.0250001e+00 4.7000000e+01 
7.5000000e-01 3.0250001e+00 4.7500000e+01 
7.5000000e-01 3.0250001e+00 4.8000000e+01 
7.5000000e-01 3.0250001e+00 4.8500000e+01 
7.5000000e-01 3.0250001e+00 4.9000000e+01 
7.5000000e-01 3.0250001e+00 4.9500000e+01 
7.5000000e-01 3.0250001e+00 5.0000000e+01 
1.5000000e+00 3.0000000e+00 2.5000000e+01 
3.0000000e+00 2.0000000e+00 2.5000000e+01 
4.0000000e+00 2.0000000e+00 2.5000000e+01 
5.0000000e+00 2.0000000e+00 2.5000000e+01 
0.0000000e+00 3.0000000e+00 2.5000000e+01 
0.0000000e+00 0.0000000e+00 1.0000000e+00 
0.0000000e+00 0.0000000e+00 2.0000000e+00 
0.0000000e+00 0.0000000e+00 3.0000000e+00 
0.0000000e+00 0.0000000e+00 4.0000000e+00 
0.0000000e+00 0.0000000e+00 5.0000000e+00 
[...]
POINT_DATA 1919
FIELD FieldData 3
DISPLACEMENT 3 1919  float
0.0000000e+00 0.0000000e+00 0.0000000e+00 
0.0000000e+00 0.0000000e+00 0.0000000e+00 
0.0000000e+00 0.0000000e+00 0.0000000e+00 
0.0000000e+00 0.0000000e+00 0.0000000e+00 
3.8773251e-07 -5.8380783e-06 -1.0844501e-06 
7.0023695e-11 3.9926482e-10 2.3412140e-12 
0.0000000e+00 2.7546856e-05 0.0000000e+00 
0.0000000e+00 -3.8870858e-09 0.0000000e+00 
-8.5478939e-07 -3.8150838e-06 4.6726941e-06 
1.8664952e-10 3.1496858e-10 2.5046665e-10 
1.8070074e-05 2.2323920e-05 -3.1700900e-05 
1.1980766e-09 3.9666341e-09 1.0991220e-09 
0.0000000e+00 4.3066637e-05 0.0000000e+00 
0.0000000e+00 -7.0207413e-08 0.0000000e+00 
8.9487539e-06 4.5429671e-05 -6.2190578e-05 
2.6826200e-08 6.0724501e-09 3.7645815e-09 
3.5637066e-07 8.3218503e-05 -1.2977865e-05 
-1.3757161e-09 -7.5586638e-07 -4.0398049e-08 
0.0000000e+00 8.9459456e-05 0.0000000e+00 
0.0000000e+00 -2.0476018e-07 0.0000000e+00 
1.0987131e-05 8.2323255e-05 -4.4713847e-06 
1.7324533e-05 7.4274431e-05 2.8298948e-05 
1.7850012e-05 5.1336057e-05 7.1094641e-05 
1.4075906e-06 4.2425449e-06 1.0452852e-04 
-4.0406521e-05 -7.8271500e-05 1.3904065e-04 
-3.8077676e-05 -2.0846343e-04 1.6008344e-04 
-6.9552458e-05 -4.0802063e-04 2.2410350e-04 
-7.8721998e-05 -7.1852625e-04 2.5923928e-04 
-1.2958217e-04 -1.1890507e-03 3.2677836e-04 
-1.9088914e-04 -1.8710874e-03 2.8281639e-04 
-2.8298495e-04 -2.7894669e-03 3.3906917e-04 
-3.0424190e-04 -3.8753229e-03 1.0985259e-04 
-3.9844515e-04 -4.9420907e-03 1.2091279e-04 
-4.8019236e-04 -5.5250502e-03 -1.1411693e-04 
-4.5887244e-04 -5.3042974e-03 -2.6839413e-04 
-3.9074133e-04 -4.8591262e-03 -2.5259031e-04 
-3.1584423e-04 -4.6508377e-03 -2.6048190e-04 
-2.5927307e-04 -4.5965123e-03 -2.5919697e-04 
-2.4989026e-04 -4.2699631e-03 -2.8154600e-04 
-1.9083275e-04 -3.1976434e-03 -2.5543218e-04 
-9.6375799e-05 -1.9425950e-03 -3.2602635e-04 
-4.6903097e-05 -8.9812110e-04 -1.6826279e-04 
7.3229339e-06 -2.1089423e-04 -1.4234698e-04 
3.1076794e-05 1.5895744e-04 -1.9081212e-06 
2.8770997e-05 2.9402997e-04 3.1253177e-05 
1.3685862e-05 2.9116028e-04 3.3663491e-05 
8.1907519e-06 2.2525879e-04 4.6113386e-05 
5.2320433e-06 1.3886872e-04 1.5276870e-05 
8.5081723e-07 5.7552515e-05 3.7473060e-06 
2.2412039e-06 -4.7667031e-06 1.4029514e-07 
-7.2175394e-06 -4.2525917e-05 -1.5154563e-05 
-4.7423650e-06 -5.4010015e-05 -1.5044540e-06 
-4.5153702e-06 -4.1836342e-05 4.0621007e-06 
-3.7124319e-06 -1.5780959e-05 3.4005120e-06 
2.9076332e-06 1.2003803e-05 8.9542018e-06 
-2.2937995e-07 2.9075409e-05 -1.6012832e-07 
-1.6221247e-06 2.9247012e-05 -1.5915406e-05 
3.2108421e-06 1.9932497e-05 -9.8837272e-06 
7.0116234e-06 1.6199270e-05 -2.0529094e-05 
1.8153202e-06 2.9250841e-05 -1.0717623e-05 
3.4609238e-06 5.6418045e-05 1.4429356e-06 
7.4440313e-06 7.7355144e-05 8.7621975e-06 
4.5047705e-06 7.0219816e-05 6.3014413e-05 
1.5253068e-05 2.1607726e-05 1.2122990e-04 
-8.5732308e-06 -7.8052486e-05 1.5656276e-04 
-4.6386882e-05 -2.3965430e-04 1.7227148e-04 
-9.8800003e-05 -4.7958060e-04 2.3914619e-04 
-2.1419550e-04 -8.3597971e-04 3.1352701e-04 
-1.5586558e-04 -1.3486103e-03 2.9176864e-04 
-2.2239071e-04 -2.0714977e-03 2.6489800e-04 
-2.5209086e-04 -3.0313088e-03 3.2743625e-04 
-4.2617656e-04 -4.1433345e-03 7.9013407e-05 
-4.4103712e-04 -5.1752436e-03 7.8326804e-05 
-4.7606672e-04 -5.5907993e-03 -9.2702801e-05 
-4.5182547e-04 -5.2769487e-03 -2.9369423e-04 
-4.1334517e-04 -4.8588342e-03 -2.9557786e-04 
-3.4464835e-04 -4.7115781e-03 -2.8685940e-04 
-3.4791298e-04 -4.6640737e-03 -2.9960490e-04 
-3.0064146e-04 -4.2054406e-03 -3.6830825e-04 
-2.1765992e-04 -3.0339214e-03 -2.8863343e-04 
-1.1764155e-04 -1.7860909e-03 -3.8274543e-04 
-4.6712845e-05 -7.7746558e-04 -1.7325438e-04 
5.9509248e-06 -1.3202996e-04 -1.2624255e-04 
3.0733896e-05 2.0307022e-04 2.0284608e-05 
2.6345117e-05 3.1320794e-04 4.4653669e-05 
1.7940274e-05 2.9200612e-04 3.5136272e-05 
1.9521838e-05 2.1320392e-04 4.6534489e-05 
4.6331343e-06 1.1819262e-04 6.0602952e-06 
-1.9735385e-06 3.5011413e-05 6.7861524e-06 
-6.9268691e-07 -2.1400670e-05 3.2644616e-07 
-4.2211118e-06 -4.4526783e-05 -1.5276315e-05 
-2.2677946e-06 -3.9291350e-05 -3.0855663e-06 
4.3916867e-07 -1.7657107e-05 9.7441003e-08 
-8.6746951e-07 4.4426201e-06 -1.1033097e-07 
3.3840345e-06 1.5565933e-05 2.6095290e-06 
-2.2112652e-06 1.4258435e-05 -2.8398658e-06 
1.4110682e-06 3.9003262e-06 6.5558669e-07 
-6.9922933e-08 -8.3495024e-06 2.5109398e-06 
-3.4297923e-07 -1.4248301e-05 -3.1377344e-06 
2.5962089e-07 -1.0753215e-05 6.1508706e-07 
-6.4974031e-09 -1.0002061e-06 6.4969646e-07 
-3.4943312e-07 7.8646744e-06 -1.3347601e-06 
3.8859386e-07 9.9331955e-06 1.1366534e-06 
2.3523700e-07 6.0149109e-06 -9.0602406e-08 
-1.4748839e-07 -1.1591103e-07 -5.9333757e-07 
-1.0725507e-09 -4.9904966e-06 4.9468503e-07 
-1.8995841e-07 -6.2768709e-06 -3.6040507e-07 
-3.3399277e-07 -3.7582245e-06 -3.0395847e-07 
1.5768218e-07 1.0350386e-06 3.6241278e-07 
2.2896859e-07 4.6938271e-06 -2.2419297e-08 
-1.5787137e-08 4.0127929e-06 -2.2675518e-08 
-6.9559221e-08 9.7901385e-08 8.8339050e-08 
-6.4401263e-08 -2.9351786e-06 -1.1532959e-07 
-5.7388263e-08 -2.6479265e-06 -4.8192213e-08 
2.9983632e-08 -9.7183566e-08 5.1067889e-08 
-1.2685366e-08 1.7778266e-06 -3.9982069e-08 
-2.9016023e-08 1.5464008e-06 1.5823284e-08 
1.0302344e-08 2.7415166e-07 -3.6510472e-09 
-1.2172240e-08 -5.6246290e-07 1.5752816e-08 
0.0000000e+00 8.3425701e-05 0.0000000e+00 
0.0000000e+00 8.2344493e-05 0.0000000e+00 
0.0000000e+00 7.4443073e-05 0.0000000e+00 
0.0000000e+00 5.1653158e-05 0.0000000e+00 
0.0000000e+00 4.4583107e-06 0.0000000e+00 
0.0000000e+00 -7.7796554e-05 0.0000000e+00 
0.0000000e+00 -2.0755536e-04 0.0000000e+00 
0.0000000e+00 -4.0763911e-04 0.0000000e+00 
0.0000000e+00 -7.1826129e-04 0.0000000e+00 
0.0000000e+00 -1.1903191e-03 0.0000000e+00 
0.0000000e+00 -1.8757795e-03 0.0000000e+00 
0.0000000e+00 -2.7958476e-03 0.0000000e+00 
0.0000000e+00 -3.8899397e-03 0.0000000e+00 
0.0000000e+00 -4.9611018e-03 0.0000000e+00 
0.0000000e+00 -5.5544660e-03 0.0000000e+00 
0.0000000e+00 -5.3255549e-03 0.0000000e+00 
0.0000000e+00 -4.8866388e-03 0.0000000e+00 
0.0000000e+00 -4.6692449e-03 0.0000000e+00 
0.0000000e+00 -4.6244492e-03 0.0000000e+00 
0.0000000e+00 -4.2935666e-03 0.0000000e+00 
0.0000000e+00 -3.2206369e-03 0.0000000e+00 
0.0000000e+00 -1.9550896e-03 0.0000000e+00 
0.0000000e+00 -9.0673147e-04 0.0000000e+00 
0.0000000e+00 -2.1261233e-04 0.0000000e+00 
0.0000000e+00 1.5857114e-04 0.0000000e+00 
0.0000000e+00 2.9518225e-04 0.0000000e+00 
0.0000000e+00 2.9296018e-04 0.0000000e+00 
0.0000000e+00 2.2634053e-04 0.0000000e+00 
0.0000000e+00 1.3958578e-04 0.0000000e+00 
0.0000000e+00 5.8027206e-05 0.0000000e+00 
0.0000000e+00 -4.6195441e-06 0.0000000e+00 
0.0000000e+00 -4.2457763e-05 0.0000000e+00 
0.0000000e+00 -5.3809148e-05 0.0000000e+00 
0.0000000e+00 -4.1786145e-05 0.0000000e+00 
0.0000000e+00 -1.5777343e-05 0.0000000e+00 
0.0000000e+00 1.1757303e-05 0.0000000e+00 
0.0000000e+00 2.8531860e-05 0.0000000e+00 
0.0000000e+00 2.8948982e-05 0.0000000e+00 
0.0000000e+00 2.0123865e-05 0.0000000e+00 
0.0000000e+00 1.6789643e-05 0.0000000e+00 
0.0000000e+00 2.9971448e-05 0.0000000e+00 
0.0000000e+00 5.6494850e-05 0.0000000e+00 
0.0000000e+00 7.7121171e-05 0.0000000e+00 
0.0000000e+00 7.0192873e-05 0.0000000e+00 
0.0000000e+00 2.1719363e-05 0.0000000e+00 
0.0000000e+00 -7.7711731e-05 0.0000000e+00 
0.0000000e+00 -2.3854757e-04 0.0000000e+00 
0.0000000e+00 -4.7936357e-04 0.0000000e+00 
0.0000000e+00 -8.3511433e-04 0.0000000e+00 
0.0000000e+00 -1.3500318e-03 0.0000000e+00 
0.0000000e+00 -2.0773094e-03 0.0000000e+00 
0.0000000e+00 -3.0393659e-03 0.0000000e+00 
0.0000000e+00 -4.1597392e-03 0.0000000e+00 
0.0000000e+00 -5.1943124e-03 0.0000000e+00 
0.0000000e+00 -5.6208274e-03 0.0000000e+00 
0.0000000e+00 -5.2976008e-03 0.0000000e+00 
0.0000000e+00 -4.8863976e-03 0.0000000e+00 
0.0000000e+00 -4.7305673e-03 0.0000000e+00 
0.0000000e+00 -4.6932558e-03 0.0000000e+00 
0.0000000e+00 -4.2264736e-03 0.0000000e+00 
0.0000000e+00 -3.0569534e-03 0.0000000e+00 
0.0000000e+00 -1.7958701e-03 0.0000000e+00 
0.0000000e+00 -7.8557146e-04 0.0000000e+00 
0.0000000e+00 -1.3333559e-04 0.0000000e+00 
0.0000000e+00 2.0314772e-04 0.0000000e+00 
0.0000000e+00 3.1437259e-04 0.0000000e+00 
0.0000000e+00 2.9370494e-04 0.0000000e+00 
0.0000000e+00 2.1396783e-04 0.0000000e+00 
0.0000000e+00 1.1892491e-04 0.0000000e+00 
0.0000000e+00 3.5512840e-05 0.0000000e+00 
0.0000000e+00 -2.0851518e-05 0.0000000e+00 
0.0000000e+00 -4.4294997e-05 0.0000000e+00 
0.0000000e+00 -3.9222643e-05 0.0000000e+00 
0.0000000e+00 -1.7935110e-05 0.0000000e+00 
0.0000000e+00 3.9239849e-06 0.0000000e+00 
0.0000000e+00 1.5352007e-05 0.0000000e+00 
0.0000000e+00 1.4137941e-05 0.0000000e+00 
0.0000000e+00 3.9322172e-06 0.0000000e+00 
0.0000000e+00 -8.0161180e-06 0.0000000e+00 
0.0000000e+00 -1.3973058e-05 0.0000000e+00 
0.0000000e+00 -1.0678600e-05 0.0000000e+00 
0.0000000e+00 -1.1402740e-06 0.0000000e+00 
0.0000000e+00 7.5435723e-06 0.0000000e+00 
0.0000000e+00 9.8383498e-06 0.0000000e+00 
0.0000000e+00 6.0753587e-06 0.0000000e+00 
0.0000000e+00 -4.3294488e-08 0.0000000e+00 
0.0000000e+00 -4.8673705e-06 0.0000000e+00 
0.0000000e+00 -6.1862993e-06 0.0000000e+00 
0.0000000e+00 -3.7174277e-06 0.0000000e+00 
0.0000000e+00 9.5659550e-07 0.0000000e+00 
0.0000000e+00 4.4671447e-06 0.0000000e+00 
0.0000000e+00 3.9303491e-06 0.0000000e+00 
0.0000000e+00 2.6581890e-07 0.0000000e+00 
0.0000000e+00 -2.7641227e-06 0.0000000e+00 
0.0000000e+00 -2.6369678e-06 0.0000000e+00 
0.0000000e+00 -2.2211454e-07 0.0000000e+00 
0.0000000e+00 1.6785938e-06 0.0000000e+00 
0.0000000e+00 1.5813074e-06 0.0000000e+00 
0.0000000e+00 3.6508428e-07 0.0000000e+00 
0.0000000e+00 -5.5210870e-07 0.0000000e+00 
0.0000000e+00 -8.0247315e-07 0.0000000e+00 
-5.2165898e-04 -1.2119594e-03 4.0525486e-04 
-2.7968057e-05 -3.6019366e-04 1.0606781e-05 
3.2536151e-05 -1.2141067e-04 -3.3993485e-05 
5.3797252e-05 6.4671272e-05 -3.0084944e-05 
0.0000000e+00 -1.7616163e-03 0.0000000e+00 
0.0000000e+00 0.0000000e+00 0.0000000e+00 
0.0000000e+00 0.0000000e+00 0.0000000e+00 
0.0000000e+00 0.0000000e+00 0.0000000e+00 
0.0000000e+00 0.0000000e+00 0.0000000e+00 
0.0000000e+00 0.0000000e+00 0.0000000e+00 
0.0000000e+00 0.0000000e+00 0.0000000e+00 
0.0000000e+00 0.0000000e+00 0.0000000e+00 
0.0000000e+00 0.0000000e+00 0.0000000e+00 
0.0000000e+00 0.0000000e+00 0.0000000e+00 
0.0000000e+00 0.0000000e+00 0.0000000e+00 
0.0000000e+00 0.0000000e+00 0.0000000e+00 
0.0000000e+00 0.0000000e+00 0.0000000e+00 
0.0000000e+00 0.0000000e+00 0.0000000e+00 
0.0000000e+00 0.0000000e+00 0.0000000e+00 
0.0000000e+00 0.0000000e+00 0.0000000e+00 
0.0000000e+00 0.0000000e+00 0.0000000e+00 
0.0000000e+00 0.0000000e+00 0.0000000e+00 
0.0000000e+00 0.0000000e+00 0.0000000e+00 
0.0000000e+00 0.0000000e+00 0.0000000e+00 
0.0000000e+00 0.0000000e+00 0.0000000e+00 
0.0000000e+00 0.0000000e+00 0.0000000e+00 
0.0000000e+00 0.0000000e+00 0.0000000e+00 
0.0000000e+00 0.0000000e+00 0.0000000e+00 
0.0000000e+00 0.0000000e+00 0.0000000e+00 
0.0000000e+00 0.0000000e+00 0.0000000e+00 
0.0000000e+00 0.0000000e+00 0.0000000e+00 
0.0000000e+00 0.0000000e+00 0.0000000e+00 
0.0000000e+00 0.0000000e+00 0.0000000e+00 
0.0000000e+00 0.0000000e+00 0.0000000e+00 
0.0000000e+00 0.0000000e+00 0.0000000e+00 
0.0000000e+00 0.0000000e+00 0.0000000e+00 
0.0000000e+00 0.0000000e+00 0.0000000e+00 
0.0000000e+00 0.0000000e+00 0.0000000e+00 
0.0000000e+00 0.0000000e+00 0.0000000e+00 
0.0000000e+00 0.0000000e+00 0.0000000e+00 
0.0000000e+00 0.0000000e+00 0.0000000e+00 
0.0000000e+00 0.0000000e+00 0.0000000e+00 
0.0000000e+00 0.0000000e+00 0.0000000e+00 
0.0000000e+00 0.0000000e+00 0.0000000e+00 
0.0000000e+00 0.0000000e+00 0.0000000e+00 
0.0000000e+00 0.0000000e+00 0.0000000e+00 
0.0000000e+00 0.0000000e+00 0.0000000e+00 
0.0000000e+00 0.0000000e+00 0.0000000e+00 
0.0000000e+00 0.0000000e+00 0.0000000e+00 
0.0000000e+00 0.0000000e+00 0.0000000e+00 
0.0000000e+00 0.0000000e+00 0.0000000e+00 
0.0000000e+00 0.0000000e+00 0.0000000e+00 
0.0000000e+00 0.0000000e+00 0.0000000e+00 
0.0000000e+00 0.0000000e+00 0.0000000e+00 
0.0000000e+00 0.0000000e+00 0.0000000e+00 
0.0000000e+00 0.0000000e+00 0.0000000e+00 
0.0000000e+00 0.0000000e+00 0.0000000e+00 
0.0000000e+00 0.0000000e+00 0.0000000e+00 
0.0000000e+00 0.0000000e+00 0.0000000e+00 
0.0000000e+00 0.0000000e+00 0.0000000e+00 
0.0000000e+00 0.0000000e+00 0.0000000e+00 
0.0000000e+00 0.0000000e+00 0.0000000e+00 
0.0000000e+00 0.0000000e+00 0.0000000e+00 
0.0000000e+00 0.0000000e+00 0.0000000e+00 
0.0000000e+00 0.0000000e+00 0.0000000e+00 
0.0000000e+00 0.0000000e+00 0.0000000e+00 
0.0000000e+00 0.0000000e+00 0.0000000e+00 
0.0000000e+00 0.0000000e+00 0.0000000e+00 
0.0000000e+00 0.0000000e+00 0.0000000e+00 
0.0000000e+00 0.0000000e+00 0.0000000e+00 
0.0000000e+00 0.0000000e+00 0.0000000e+00 
0.0000000e+00 0.0000000e+00 0.0000000e+00 
0.0000000e+00 0.0000000e+00 0.0000000e+00 
0.0000000e+00 0.0000000e+00 0.0000000e+00 
0.0000000e+00 0.0000000e+00 0.0000000e+00 
0.0000000e+00 0.0000000e+00 0.0000000e+00 
0.0000000e+00 0.0000000e+00 0.0000000e+00 
0.0000000e+00 0.0000000e+00 0.0000000e+00 
0.0000000e+00 0.0000000e+00 0.0000000e+00 
0.0000000e+00 0.0000000e+00 0.0000000e+00 
0.0000000e+00 0.0000000e+00 0.0000000e+00 
0.0000000e+00 0.0000000e+00 0.0000000e+00 
0.0000000e+00 0.0000000e+00 0.0000000e+00 
0.0000000e+00 0.0000000e+00 0.0000000e+00 
0.0000000e+00 0.0000000e+00 0.0000000e+00 
0.0000000e+00 0.0000000e+00 0.0000000e+00 
0.0000000e+00 0.0000000e+00 0.0000000e+00 
0.0000000e+00 0.0000000e+00 0.0000000e+00 
0.0000000e+00 0.0000000e+00 0.0000000e+00 
0.0000000e+00 0.0000000e+00 0.0000000e+00 
0.0000000e+00 0.0000000e+00 0.0000000e+00 
0.0000000e+00 0.0000000e+00 0.0000000e+00 
0.0000000e+00 0.0000000e+00 0.0000000e+00 
0.0000000e+00 0.0000000e+00 0.0000000e+00 
0.0000000e+00 0.0000000e+00 0.0000000e+00 
0.0000000e+00 0.0000000e+00 0.0000000e+00 
0.0000000e+00 0.0000000e+00 0.0000000e+00 
0.0000000e+00 0.0000000e+00 0.0000000e+00 
0.0000000e+00 0.0000000e+00 0.0000000e+00 
0.0000000e+00 0.0000000e+00 0.0000000e+00 
0.0000000e+00 0.0000000e+00 0.0000000e+00 
0.0000000e+00 0.0000000e+00 0.0000000e+00 
0.0000000e+00 0.0000000e+00 0.0000000e+00 
0.0000000e+00 0.0000000e+00 0.0000000e+00 
0.0000000e+00 0.0000000e+00 0.0000000e+00 
0.0000000e+00 0.0000000e+00 0.0000000e+00 
0.0000000e+00 0.0000000e+00 0.0000000e+00 
0.0000000e+00 0.0000000e+00 0.0000000e+00 
0.0000000e+00 0.0000000e+00 0.0000000e+00 
0.0000000e+00 0.0000000e+00 0.0000000e+00 
0.0000000e+00 0.0000000e+00 0.0000000e+00 
5.0835970e-06 -9.5270516e-06 -4.7805311e-06 
2.4211653e-05 3.2954395e-06 -1.8859968e-05 
6.2245555e-05 -3.4898953e-06 -3.2496722e-05 
9.1503367e-05 -3.9256994e-07 -3.5161236e-05 
1.2874899e-04 2.4188601e-05 -3.2748463e-05 
1.5150373e-04 3.0705392e-05 -1.6255446e-05 
1.6856060e-04 2.8537608e-05 9.5777632e-06 
1.4534559e-04 2.6033516e-05 3.1462445e-05 
1.1108290e-04 6.3092298e-06 3.8614740e-05 
5.5908571e-05 1.1130519e-05 3.2590793e-05 
3.1439507e-05 -3.5271339e-06 2.0710084e-05 
1.0018839e-05 -1.1109534e-05 6.4263086e-06 
4.5062981e-07 -7.1572854e-06 -8.9784783e-07 
-4.0824534e-07 1.2373894e-05 8.2707504e-07 
-9.5038553e-07 -7.8706455e-07 8.8925736e-07 
7.2454316e-07 -2.8235595e-06 8.7968988e-07 
-4.8700059e-07 -3.1533793e-06 -1.8269415e-06 
-1.2847968e-06 7.0950869e-06 3.2506463e-07 
-2.3124505e-06 5.0406845e-07 2.8637089e-06 
2.2588649e-06 -9.6653539e-06 -2.7903707e-06 
1.1846015e-05 -5.5085879e-06 -8.8856978e-06 
3.7151276e-05 1.4980605e-05 -2.1535416e-05 
7.5884127e-05 7.4548484e-06 -3.2614684e-05 
1.2159871e-04 1.2555593e-05 -3.8826820e-05 
1.5316533e-04 4.0540912e-05 -2.8587929e-05 
1.7771038e-04 5.3129908e-05 -2.3349320e-09 
1.6089436e-04 2.9620076e-05 1.8876292e-05 
1.2587885e-04 2.7878970e-05 3.4404107e-05 
9.5087351e-05 -1.0734476e-05 4.0389587e-05 
4.7345704e-05 -4.3795367e-06 3.6048750e-05 
1.9576755e-05 -5.8411183e-06 1.4415581e-05 
3.4184145e-06 -2.3270197e-05 2.0876339e-06 
-3.3260358e-06 1.3993202e-06 -3.5299427e-06 
-2.8370291e-06 8.0663885e-06 -2.5018853e-06 
1.3221033e-07 -6.1092379e-07 -1.1153814e-07 
8.2602742e-07 -3.7382501e-06 5.4446929e-07 
-3.5037237e-07 2.0839277e-06 -3.9095954e-07 
-2.8789088e-08 5.9451679e-07 3.9396812e-07 
-1.5800677e-07 -4.3598467e-07 -6.4425500e-08 
2.5472033e-08 8.8076135e-08 -8.5513967e-08 
-5.2476490e-09 9.4502411e-08 5.6764112e-08 
1.6769580e-08 -6.6868388e-08 9.0383395e-10 
7.8154727e-09 -2.0657323e-08 -1.2497400e-08 
1.2592027e-09 3.4013656e-08 8.8765555e-09 
3.9831094e-09 -6.0666352e-09 1.6259635e-09 
2.2179920e-09 1.3178968e-09 -2.8236335e-09 
-1.1059450e-09 -2.1413589e-09 -3.0457379e-09 
1.7135221e-10 9.7036312e-10 7.3887718e-10 
2.5027485e-11 -9.0547103e-10 -9.8052858e-11 
0.0000000e+00 -4.0779094e-05 0.0000000e+00 
0.0000000e+00 -1.0026751e-04 0.0000000e+00 
0.0000000e+00 -1.5186654e-04 0.0000000e+00 
0.0000000e+00 -2.6009945e-04 0.0000000e+00 
0.0000000e+00 -3.8441704e-04 0.0000000e+00 
0.0000000e+00 -5.5063009e-04 0.0000000e+00 
0.0000000e+00 -7.2565064e-04 0.0000000e+00 
0.0000000e+00 -7.4849097e-04 0.0000000e+00 
0.0000000e+00 -6.5794302e-04 0.0000000e+00 
0.0000000e+00 -4.6110674e-04 0.0000000e+00 
0.0000000e+00 -2.2676428e-04 0.0000000e+00 
0.0000000e+00 -2.0028016e-05 0.0000000e+00 
0.0000000e+00 6.7988891e-05 0.0000000e+00 
0.0000000e+00 3.2491414e-05 0.0000000e+00 
0.0000000e+00 -9.1850421e-07 0.0000000e+00 
0.0000000e+00 -1.6252427e-05 0.0000000e+00 
0.0000000e+00 -7.8930088e-06 0.0000000e+00 
0.0000000e+00 1.1452849e-05 0.0000000e+00 
0.0000000e+00 2.1853872e-05 0.0000000e+00 
0.0000000e+00 1.7105507e-06 0.0000000e+00 
0.0000000e+00 -3.7827802e-05 0.0000000e+00 
0.0000000e+00 -8.0505066e-05 0.0000000e+00 
0.0000000e+00 -1.4102682e-04 0.0000000e+00 
0.0000000e+00 -2.5116702e-04 0.0000000e+00 
0.0000000e+00 -3.7224291e-04 0.0000000e+00 
0.0000000e+00 -5.6265516e-04 0.0000000e+00 
0.0000000e+00 -7.2062999e-04 0.0000000e+00 
0.0000000e+00 -7.5330661e-04 0.0000000e+00 
0.0000000e+00 -6.4369198e-04 0.0000000e+00 
0.0000000e+00 -4.0330394e-04 0.0000000e+00 
0.0000000e+00 -1.9880910e-04 0.0000000e+00 
0.0000000e+00 2.5304373e-05 0.0000000e+00 
0.0000000e+00 6.2681589e-05 0.0000000e+00 
0.0000000e+00 3.5744815e-05 0.0000000e+00 
0.0000000e+00 -5.7896028e-07 0.0000000e+00 
0.0000000e+00 -1.5078277e-05 0.0000000e+00 
0.0000000e+00 -6.7887700e-06 0.0000000e+00 
0.0000000e+00 7.7502355e-06 0.0000000e+00 
0.0000000e+00 4.6115101e-06 0.0000000e+00 
0.0000000e+00 -3.1721302e-06 0.0000000e+00 
0.0000000e+00 -2.3548434e-06 0.0000000e+00 
0.0000000e+00 1.0361940e-06 0.0000000e+00 
0.0000000e+00 1.4030511e-06 0.0000000e+00 
0.0000000e+00 -1.0791313e-06 0.0000000e+00 
0.0000000e+00 -1.8661682e-07 0.0000000e+00 
0.0000000e+00 4.4032205e-07 0.0000000e+00 
0.0000000e+00 -3.0274799e-07 0.0000000e+00 
0.0000000e+00 1.1546525e-07 0.0000000e+00 
0.0000000e+00 -1.2035546e-08 0.0000000e+00 
3.2931539e-06 -4.0269338e-06 -5.0890044e-06 
8.6744494e-06 1.2879513e-05 -2.1954829e-05 
9.0657641e-06 2.3313749e-05 -2.5757648e-05 
-3.5577527e-06 1.9845471e-05 -1.3939812e-05 
-4.3269575e-11 -1.2760968e-09 -1.2463428e-10 
-7.0167694e-10 2.7835727e-09 -4.4150344e-10 
3.7532812e-09 -8.0559754e-09 4.9992623e-09 
-2.2222209e-09 7.3858901e-09 -5.0550573e-09 
1.6087295e-05 1.1170023e-06 -2.3049839e-05 
-5.9503458e-10 -8.3389401e-10 -4.1903273e-10 
-1.0520453e-06 4.1721760e-05 2.7412812e-06 
3.0625140e-06 4.7105026e-05 -2.4639286e-05 
0.0000000e+00 -3.6429916e-05 0.0000000e+00 
0.0000000e+00 -1.2197762e-04 0.0000000e+00 
0.0000000e+00 -2.5143925e-04 0.0000000e+00 
0.0000000e+00 -4.8922887e-04 0.0000000e+00 
0.0000000e+00 -7.9185457e-04 0.0000000e+00 
0.0000000e+00 -1.2570056e-03 0.0000000e+00 
0.0000000e+00 -1.5334771e-03 0.0000000e+00 
0.0000000e+00 -1.4893127e-03 0.0000000e+00 
0.0000000e+00 -1.2842527e-03 0.0000000e+00 
0.0000000e+00 -8.8170811e-04 0.0000000e+00 
0.0000000e+00 -3.4606963e-04 0.0000000e+00 
0.0000000e+00 2.9508894e-05 0.0000000e+00 
0.0000000e+00 1.1292450e-04 0.0000000e+00 
0.0000000e+00 4.6495705e-05 0.0000000e+00 