# vtk DataFile Version 4.0
vtk output
ASCII
DATASET UNSTRUCTURED_GRID
POINTS 1919 float
0.0000000e+00 0.0000000e+00 0.0000000e+00 
0.0000000e+00 0.0000000e+00 5.0000000e+01 
5.0000000e+00 0.0000000e+00 0.0000000e+00 
5.0000000e+00 0.0000000e+00 5.0000000e+01 
5.0000000e+00 1.0000000e+00 0.0000000e+00 
5.0000000e+00 1.0000000e+00 5.0000000e+01 
0.0000000e+00 1.0000000e+00 0.0000000e+00 
0.0000000e+00 1.0000000e+00 5.0000000e+01 
5.0000000e+00 2.0000000e+00 0.0000000e+00 
5.0000000e+00 2.0000000e+00 5.0000000e+01 
3.0000000e+00 2.0000000e+00 0.0000000e+00 
3.0000000e+00 2.0000000e+00 5.0000000e+01 
0.0000000e+00 2.0000000e+00 0.0000000e+00 
0.0000000e+00 2.0000000e+00 5.0000000e+01 
1.5000000e+00 3.0000000e+00 0.0000000e+00 
1.5000000e+00 3.0000000e+00 5.0000000e+01 
7.5000000e-01 3.0000000e+00 0.0000000e+00 
7.5000000e-01 3.0000000e+00 5.0000000e+01 
0.0000000e+00 3.0000000e+00 0.0000000e+00 
0.0000000e+00 3.0000000e+00 5.0000000e+01 
7.5000000e-01 3.0000000e+00 5.0000000e-01 
7.5000000e-01 3.0000000e+00 1.0000000e+00 
7.5000000e-01 3.0000000e+00 1.5000000e+00 
7.5000000e-01 3.0000000e+00 2.0000000e+00 
7.5000000e-01 3.0000000e+00 2.5000000e+00 
7.5000000e-01 3.0000000e+00 3.0000000e+00 
7.5000000e-01 3.0000000e+00 3.5000000e+00 
7.5000000e-01 3.0000000e+00 4.0000000e+00 
7.5000000e-01 3.0000000e+00 4.5000000e+00 
7.5000000e-01 3.0000000e+00 5.0000000e+00 
7.5000000e-01 3.0000000e+00 5.5000000e+00 
7.5000000e-01 3.0000000e+00 6.0000000e+00 
7.5000000e-01 3.0000000e+00 6.5000000e+00 
7.5000000e-01 3.0000000e+00 7.0000000e+00 
7.5000000e-01 3.0000000e+00 7.5000000e+00 
7.5000000e-01 3.0000000e+00 8.0000000e+00 
7.5000000e-01 3.0000000e+00 8.5000000e+00 
7.5000000e-01 3.0000000e+00 9.0000000e+00 
7.5000000e-01 3.0000000e+00 9.5000000e+00 
7.5000000e-01 3.0000000e+00 1.0000000e+01 
7.5000000e-01 3.0000000e+00 1.0500000e+01 
7.5000000e-01 3.0000000e+00 1.1000000e+01 
7.5000000e-01 3.0000000e+00 1.1500000e+01 
7.5000000e-01 3.0000000e+00 1.2000000e+01 
7.5000000e-01 3.0000000e+00 1.2500000e+01 
7.5000000e-01 3.0000000e+00 1.3000000e+01 
7.5000000e-01 3.0000000e+00 1.3500000e+01 
7.5000000e-01 3.0000000e+00 1.4000000e+01 
7.5000000e-01 3.0000000e+00 1.4500000e+01 
7.5000000e-01 3.0000000e+00 1.5000000e+01 
7.5000000e-01 3.0000000e+00 1.5500000e+01 
7.5000000e-01 3.0000000e+00 1.6000000e+01 
7.5000000e-01 3.0000000e+00 1.6500000e+01 
7.5000000e-01 3.0000000e+00 1.7000000e+01 
7.5000000e-01 3.0000000e+00 1.7500000e+01 
7.5000000e-01 3.0000000e+00 1.8000000e+01 
7.5000000e-01 3.0000000e+00 1.8500000e+01 
7.5000000e-01 3.0000000e+00 1.9000000e+01 
7.5000000e-01 3.0000000e+00 1.9500000e+01 
7.5000000e-01 3.0000000e+00 2.0000000e+01 
7.5000000e-01 3.0000000e+00 2.0500000e+01 
7.5000000e-01 3.0000000e+00 2.1000000e+01 
7.5000000e-01 3.0000000e+00 2.1500000e+01 
7.5000000e-01 3.0000000e+00 2.2000000e+01 
7.5000000e-01 3.0000000e+00 2.2500000e+01 
7.5000000e-01 3.0000000e+00 2.3000000e+01 
7.5000000e-01 3.0000000e+00 2.3500000e+01 
7.5000000e-01 3.0000000e+00 2.4000000e+01 
7.5000000e-01 3.0000000e+00 2.4500000e+01 
7.5000000e-01 3.0000000e+00 2.5000000e+01 
7.5000000e-01 3.0000000e+00 2.5500000e+01 
7.5000000e-01 3.0000000e+00 2.6000000e+01 
7.5000000e-01 3.0000000e+00 2.6500000e+01 
7.5000000e-01 3.0000000e+00 2.7000000e+01 
7.5000000e-01 3.0000000e+00 2.7500000e+01 
7.5000000e-01 3.0000000e+00 2.8000000e+01 
7.5000000e-01 3.0000000e+00 2.8500000e+01 
7.5000000e-01 3.0000000e+00 2.9000000e+01 
7.5000000e-01 3.0000000e+00 2.9500000e+01 
7.5000000e-01 3.0000000e+00 3.0000000e+01 
7.5000000e-01 3.0000000e+00 3.0500000e+01 
7.5000000e-01 3.0000000e+00 3.1000000e+01 
7.5000000e-01 3.0000000e+00 3.1500000e+01 
7.5000000e-01 3.0000000e+00 3.2000000e+01 
7.5000000e-01 3.0000000e+00 3.2500000e+01 
7.5000000e-01 3.0000000e+00 3.3000000e+01 
7.5000000e-01 3.0000000e+00 3.3500000e+01 
7.5000000e-01 3.0000000e+00 3.4000000e+01 
7.5000000e-01 3.0000000e+00 3.4500000e+01 
7.5000000e-01 3.0000000e+00 3.5000000e+01 
7.5000000e-01 3.0000000e+00 3.5500000e+01 
7.5000000e-01 3.0000000e+00 3.6000000e+01 
7.5000000e-01 3.0000000e+00 3.6500000e+01 
7.5000000e-01 3.0000000e+00 3.7000000e+01 
7.5000000e-01 3.0000000e+00 3.7500000e+01 
7.5000000e-01 3.0000000e+00 3.8000000e+01 
7.5000000e-01 3.0000000e+00 3.8500000e+01 
7.5000000e-01 3.0000000e+00 3.9000000e+01 
7.5000000e-01 3.0000000e+00 3.9500000e+01 
7.5000000e-01 3.0000000e+00 4.0000000e+01 
7.5000000e-01 3.0000000e+00 4.0500000e+01 
7.5000000e-01 3.0000000e+00 4.1000000e+01 
7.5000000e-01 3.0000000e+00 4.1500000e+01 
7.5000000e-01 3.0000000e+00 4.2000000e+01 
7.5000000e-01 3.0000000e+00 4.2500000e+01 
7.5000000e-01 3.0000000e+00 4.3000000e+01 
7.5000000e-01 3.0000000e+00 4.3500000e+01 
7.5000000e-01 3.0000000e+00 4.4000000e+01 
7.5000000e-01 3.0000000e+00 4.4500000e+01 
7.5000000e-01 3.0000000e+00 4.5000000e+01 
7.5000000e-01 3.0000000e+00 4.5500000e+01 
7.5000000e-01 3.0000000e+00 4.6000000e+01 
7.5000000e-01 3.0000000e+00 4.6500000e+01 
7.5000000e-01 3.0000000e+00 4.7000000e+01 
7.5000000e-01 3.0000000e+00 4.7500000e+01 
7.5000000e-01 3.0000000e+00 4.8000000e+01 
7.5000000e-01 3.0000000e+00 4.8500000e+01 
7.5000000e-01 3.0000000e+00 4.9000000e+01 
7.5000000e-01 3.0000000e+00 4.9500000e+01 
7.5000000e-01 3.0250001e+00 0.0000000e+00 
7.5000000e-01 3.0250001e+00 5.0000000e-01 
7.5000000e-01 3.0250001e+00 1.0000000e+00 
7.5000000e-01 3.0250001e+00 1.5000000e+00 
7.5000000e-01 3.0250001e+00 2.0000000e+00 
7.5000000e-01 3.0250001e+00 2.5000000e+00 
7.5000000e-01 3.0250001e+00 3.0000000e+00 
7.5000000e-01 3.0250001e+00 3.5000000e+00 
7.5000000e-01 3.0250001e+00 4.0000000e+00 
7.5000000e-01 3.0250001e+00 4.5000000e+00 
7.5000000e-01 3.0250001e+00 5.0000000e+00 
7.5000000e-01 3.0250001e+00 5.5000000e+00 
7.5000000e-01 3.0250001e+00 6.0000000e+00 
7.5000000e-01 3.0250001e+00 6.5000000e+00 
7.5000000e-01 3.0250001e+00 7.0000000e+00 
7.5000000e-01 3.0250001e+00 7.5000000e+00 
7.5000000e-01 3.0250001e+00 8.0000000e+00 
7.5000000e-01 3.0250001e+00 8.5000000e+00 
7.5000000e-01 3.0250001e+00 9.0000000e+00 
7.5000000e-01 3.0250001e+00 9.5000000e+00 
7.5000000e-01 3.0250001e+00 1.0000000e+01 
7.5000000e-01 3.0250001e+00 1.0500000e+01 
7.5000000e-01 3.0250001e+00 1.1000000e+01 
7.5000000e-01 3.0250001e+00 1.1500000e+01 
7.5000000e-01 3.0250001e+00 1.2000000e+01 
7.5000000e-01 3.0250001e+00 1.2500000e+01 
7.5000000e-01 3.0250001e+00 1.3000000e+01 
7.5000000e-01 3.0250001e+00 1.3500000e+01 
7.5000000e-01 3.0250001e+00 1.4000000e+01 
7.5000000e-01 3.0250001e+00 1.4500000e+01 
7.5000000e-01 3.0250001e+00 1.5000000e+01 
7.5000000e-01 3.0250001e+00 1.5500000e+01 
7.5000000e-01 3.0250001e+00 1.6000000e+01 
7.5000000e-01 3.0250001e+00 1.6500000e+01 
7.5000000e-01 3.0250001e+00 1.7000000e+01 
7.5000000e-01 3.0250001e+00 1.7500000e+01 
7.5000000e-01 3.0250001e+00 1.8000000e+01 
7.5000000e-01 3.0250001e+00 1.8500000e+01 
7.5000000e-01 3.0250001e+00 1.9000000e+01 
7.5000000e-01 3.0250001e+00 1.9500000e+01 
7.5000000e-01 3.0250001e+00 2.0000000e+01 
7.5000000e-01 3.0250001e+00 2.0500000e+01 
7.5000000e-01 3.0250001e+00 2.1000000e+01 
7.5000000e-01 3.0250001e+00 2.1500000e+01 
7.5000000e-01 3.0250001e+00 2.2000000e+01 
7.5000000e-01 3.0250001e+00 2.2500000e+01 
7.5000000e-01 3.0250001e+00 2.3000000e+01 
7.5000000e-01 3.0250001e+00 2.3500000e+01 
7.5000000e-01 3.0250001e+00 2.4000000e+01 
7.5000000e-01 3.0250001e+00 2.4500000e+01 
7.5000000e-01 3.0250001e+00 2.5000000e+01 
7.5000000e-01 3.0250001e+00 2.5500000e+01 
7.5000000e-01 3.0250001e+00 2.6000000e+01 
7.5000000e-01 3.0250001e+00 2.6500000e+01 
7.5000000e-01 3.0250001e+00 2.7000000e+01 
7.5000000e-01 3.0250001e+00 2.7500000e+01 
7.5000000e-01 3.0250001e+00 2.8000000e+01 
7.5000000e-01 3.0250001e+00 2.8500000e+01 
7.5000000e-01 3.0250001e+00 2.9000000e+01 
7.5000000e-01 3.0250001e+00 2.9500000e+01 
7.5000000e-01 3.0250001e+00 3.0000000e+01 
7.5000000e-01 3.0250001e+00 3.0500000e+01 
7.5000000e-01 3.0250001e+00 3.1000000e+01 
7.5000000e-01 3.0250001e+00 3.1500000e+01 
7.5000000e-01 3.0250001e+00 3.2000000e+01 
7.5000000e-01 3.0250001e+00 3.2500000e+01 
7.5000000e-01 3.0250001e+00 3.3000000e+01 
7.5000000e-01 3.0250001e+00 3.3500000e+01 
7.5000000e-01 3.0250001e+00 3.4000000e+01 
7.5000000e-01 3.0250001e+00 3.4500000e+01 
7.5000000e-01 3.0250001e+00 3.5000000e+01 
7.5000000e-01 3.0250001e+00 3.5500000e+01 
7.5000000e-01 3.0250001e+00 3.6000000e+01 
7.5000000e-01 3.0250001e+00 3.6500000e+01 
7.5000000e-01 3.0250001e+00 3.7000000e+01 
7.5000000e-01 3.0250001e+00 3.7500000e+01 
7.5000000e-01 3.0250001e+00 3.8000000e+01 
7.5000000e-01 3.0250001e+00 3.8500000e+01 
7.5000000e-01 3.0250001e+00 3.9000000e+01 
7.5000000e-01 3.0250001e+00 3.9500000e+01 
7.5000000e-01 3.0250001e+00 4.0000000e+01 
7.5000000e-01 3.0250001e+00 4.0500000e+01 
7.5000000e-01 3.0250001e+00 4.1000000e+01 
7.5000000e-01 3.0250001e+00 4.1500000e+01 
7.5000000e-01 3.0250001e+00 4.2000000e+01 
7.5000000e-01 3.0250001e+00 4.2500000e+01 
7.5000000e-01 3.0250001e+00 4.3000000e+01 
7.5000000e-01 3.0250001e+00 4.3500000e+01 
7.5000000e-01 3.0250001e+00 4.4000000e+01 
7.5000000e-01 3.0250001e+00 4.4500000e+01 
7.5000000e-01 3.0250001e+00 4.5000000e+01 
7.5000000e-01 3.0250001e+00 4.5500000e+01 
7.5000000e-01 3.0250001e+00 4.6000000e+01 
7.5000000e-01 3.0250001e+00 4.6500000e+01 
7.5000000e-01 3.0250001e+00 4.7000000e+01 
7.5000000e-01 3.0250001e+00 4.7500000e+01 
7.5000000e-01 3.0250001e+00 4.8000000e+01 
7.5000000e-01 3.0250001e+00 4.8500000e+01 
7.5000000e-01 3.0250001e+00 4.9000000e+01 
7.5000000e-01 3.0250001e+00 4.9500000e+01 
7.5000000e-01 3.0250001e+00 5.0000000e+01 
1.5000000e+00 3.0000000e+00 2.5000000e+01 
3.0000000e+00 2.0000000e+00 2.5000000e+01 
4.0000000e+00 2.0000000e+00 2.5000000e+01 
5.0000000e+00 2.0000000e+00 2.5000000e+01 
0.0000000e+00 3.0000000e+00 2.5000000e+01 
0.0000000e+00 0.0000000e+00 1.0000000e+00 
0.0000000e+00 0.0000000e+00 2.0000000e+00 
0.0000000e+00 0.0000000e+00 3.0000000e+00 
0.0000000e+00 0.0000000e+00 4.0000000e+00 
0.0000000e+00 0.0000000e+00 5.0000000e+00 
[...]
POINT_DATA 1919
FIELD FieldData 3
DISPLACEMENT 3 1919  float
0.0000000e+00 0.0000000e+00 0.0000000e+00 
0.0000000e+00 0.0000000e+00 0.0000000e+00 
0.0000000e+00 0.0000000e+00 0.0000000e+00 
0.0000000e+00 0.0000000e+00 0.0000000e+00 
4.5923682e-07 -3.2092512e-07 -7.1204084e-07 
2.1068422e-06 -3.2058329e-06 7.2752391e-06 
0.0000000e+00 -3.8165144e-06 0.0000000e+00 
0.0000000e+00 1.3878707e-05 0.0000000e+00 
9.3151151e-08 -1.8364477e-07 -6.0684715e-07 
2.5812992e-06 -2.5647739e-06 1.0426239e-05 
-1.1518237e-07 -9.1215253e-07 -1.8240474e-06 
3.2276637e-06 2.9861351e-07 1.0602347e-05 
0.0000000e+00 -4.3110731e-06 0.0000000e+00 
0.0000000e+00 2.6099009e-05 0.0000000e+00 
-2.5911771e-07 5.9667377e-07 -3.0022668e-06 
1.8936500e-05 2.3941628e-05 -2.5198478e-06 
-4.1428548e-06 3.4350010e-06 -4.6907512e-06 
6.2084541e-07 1.9852609e-04 -1.4220364e-05 
0.0000000e+00 1.1488895e-06 0.0000000e+00 
0.0000000e+00 2.0273014e-06 0.0000000e+00 
-2.9510119e-07 2.2743852e-06 -3.7058221e-06 
5.1718945e-07 -6.1582841e-07 -3.3043550e-06 
7.5486969e-07 -4.2069391e-06 -4.3990240e-06 
-1.2012002e-06 -7.7116129e-06 -5.3023341e-06 
-2.3700266e-06 -1.0265606e-05 -5.6108529e-06 
-3.2816677e-06 -1.1497175e-05 -5.1913426e-06 
-4.1855610e-06 -1.1298409e-05 -4.4542498e-06 
-3.7278580e-06 -1.0087369e-05 -1.2740695e-06 
-1.8623755e-06 -8.3992481e-06 7.5603344e-07 
-2.1468288e-06 -6.5690110e-06 4.8734996e-06 
-3.7805623e-06 -4.9019641e-06 6.0568141e-06 
-5.1521879e-06 -3.6164433e-06 7.2205366e-06 
-7.0215974e-06 -3.0089200e-06 7.2426642e-06 
-7.6501647e-06 -3.2870551e-06 7.2121766e-06 
-8.2410070e-06 -4.3310088e-06 7.8655075e-06 
-8.7432891e-06 -5.7307129e-06 8.5688462e-06 
-9.3608269e-06 -6.9091730e-06 8.3065315e-06 
-9.1420379e-06 -7.4201002e-06 5.7401026e-06 
-7.5775415e-06 -7.0111296e-06 2.9107227e-06 
-6.3986349e-06 -6.0519114e-06 4.6429983e-07 
-3.6359052e-06 -4.8579122e-06 1.3244614e-06 
-2.6348634e-06 -3.7942389e-06 2.7468620e-06 
-2.5578411e-06 -2.8399779e-06 2.8923350e-06 
-2.9541982e-06 -1.7009251e-06 2.0678203e-06 
-2.5835625e-06 -1.3572159e-07 -1.4752169e-07 
8.5224741e-08 1.7800817e-06 -2.5392435e-06 
2.4251424e-06 3.9477663e-06 -2.2449324e-06 
1.7621245e-06 6.2252589e-06 -1.3342240e-07 
1.7678943e-06 8.7793842e-06 2.4962876e-06 
2.0091688e-06 1.2192599e-05 3.9374240e-06 
2.9739251e-06 1.7310183e-05 2.0455714e-06 
4.3997015e-06 2.4883744e-05 -6.1098454e-08 
5.5900227e-06 3.5432615e-05 1.4187266e-07 
1.1013809e-05 4.8664162e-05 3.5856331e-06 
7.7082032e-06 6.2885083e-05 1.2019836e-05 
5.3362141e-06 7.4348762e-05 2.0412699e-05 
1.3954345e-06 7.4045282e-05 3.3869750e-05 
-4.0112095e-06 4.2803793e-05 4.7037716e-05 
-1.2322192e-05 -5.0222818e-05 8.4739200e-05 
-2.2743990e-05 -2.5132389e-04 9.4245508e-05 
-5.2969455e-05 -6.1897445e-04 1.6981973e-04 
-8.0566511e-05 -1.2092409e-03 1.2918978e-04 
-1.4938037e-04 -2.0625058e-03 2.2949914e-04 
-1.7591314e-04 -3.1276429e-03 1.5027088e-04 
-3.4612342e-04 -4.2218128e-03 1.6565058e-04 
-2.5793500e-04 -4.8570898e-03 4.4281605e-05 
-2.9559972e-04 -4.7174189e-03 -6.7479894e-05 
-2.2033985e-04 -4.3516974e-03 -1.4351721e-05 
-2.3281813e-04 -4.2255563e-03 -1.8134759e-05 
-1.4117802e-04 -4.2934068e-03 -1.1480429e-04 
-2.1054030e-04 -4.1270792e-03 -1.7566467e-04 
-2.0664737e-04 -3.1910760e-03 -1.4981181e-04 
-1.3973667e-04 -2.0409215e-03 -2.7640696e-04 
-8.2019236e-05 -1.0465643e-03 -1.3899556e-04 
-3.0190873e-05 -3.7093394e-04 -1.6046062e-04 
-1.3725573e-06 1.1868417e-05 -6.8575027e-05 
1.3359832e-05 1.7216153e-04 -4.4989869e-05 
1.5163984e-05 1.9741757e-04 -1.2713024e-05 
1.1233586e-05 1.5914383e-04 9.6019767e-06 
6.4444080e-06 1.0147769e-04 1.3181323e-05 
1.0984857e-06 5.0756989e-05 2.3082421e-05 
-1.3269091e-06 1.4804466e-05 1.9446114e-05 
-3.6941306e-06 -5.3353879e-06 2.0087955e-05 
-4.3872328e-06 -1.3471885e-05 1.6373997e-05 
-6.8532149e-06 -1.3666649e-05 1.2753395e-05 
-7.3459123e-06 -9.7149086e-06 9.1451329e-06 
-6.3371463e-06 -4.2493739e-06 5.5281862e-06 
-4.1722437e-06 1.1656631e-06 3.9859801e-06 
-3.8307007e-06 6.2490644e-06 1.5733563e-06 
-4.5808360e-06 1.1621844e-05 1.3236740e-06 
-3.3994966e-06 1.8619894e-05 -1.8114843e-06 
-2.2001932e-06 2.8439446e-05 -3.1651248e-06 
2.4303620e-06 4.1952873e-05 -4.4803210e-06 
6.6407661e-06 5.8803147e-05 4.6075007e-07 
8.0491427e-06 7.6931501e-05 6.9842126e-06 
1.4673806e-05 9.0408736e-05 1.9821564e-05 
1.9727738e-06 8.6463871e-05 3.5510162e-05 
-1.1631101e-06 4.5225988e-05 4.5027027e-05 
-1.3101774e-05 -6.7450143e-05 8.7036191e-05 
-2.3030208e-05 -3.0029428e-04 9.7664815e-05 
-5.6934492e-05 -7.1341958e-04 1.8329511e-04 
-8.2208855e-05 -1.3589337e-03 1.4167739e-04 
-1.3920825e-04 -2.2667788e-03 2.4618412e-04 
-1.6963170e-04 -3.3583529e-03 9.7877477e-05 
-2.3789465e-04 -4.4123512e-03 1.6405742e-04 
-2.6672974e-04 -4.8711398e-03 2.6990776e-05 
-2.5009766e-04 -4.6066954e-03 -2.4381472e-05 
-2.4471976e-04 -4.2761411e-03 -4.5179237e-05 
-2.1390137e-04 -4.2422991e-03 -4.2112610e-05 
-2.2156553e-04 -4.3397173e-03 -1.2712514e-04 
-1.9610957e-04 -4.0176869e-03 -1.9940353e-04 
-1.6286610e-04 -2.9655183e-03 -1.5164752e-04 
-8.8416811e-05 -1.8051792e-03 -2.4088683e-04 
-5.8549871e-05 -8.6592528e-04 -1.2733249e-04 
-1.0964709e-05 -2.5384955e-04 -1.2892333e-04 
2.9848520e-06 7.2310308e-05 -6.9707996e-05 
1.6985237e-05 2.0144465e-04 -4.0076968e-05 
1.0036460e-05 2.2320826e-04 -2.1150732e-05 
9.1432166e-06 2.0756832e-04 -1.1170129e-05 
0.0000000e+00 3.3983424e-06 0.0000000e+00 
0.0000000e+00 2.2619888e-06 0.0000000e+00 
0.0000000e+00 -6.0044897e-07 0.0000000e+00 
0.0000000e+00 -4.2103761e-06 0.0000000e+00 
0.0000000e+00 -7.6920796e-06 0.0000000e+00 
0.0000000e+00 -1.0257439e-05 0.0000000e+00 
0.0000000e+00 -1.1476509e-05 0.0000000e+00 
0.0000000e+00 -1.1300343e-05 0.0000000e+00 
0.0000000e+00 -1.0105504e-05 0.0000000e+00 
0.0000000e+00 -8.4091234e-06 0.0000000e+00 
0.0000000e+00 -6.5786844e-06 0.0000000e+00 
0.0000000e+00 -4.9019136e-06 0.0000000e+00 
0.0000000e+00 -3.6228519e-06 0.0000000e+00 
0.0000000e+00 -3.0287579e-06 0.0000000e+00 
0.0000000e+00 -3.3067859e-06 0.0000000e+00 
0.0000000e+00 -4.3469158e-06 0.0000000e+00 
0.0000000e+00 -5.7326847e-06 0.0000000e+00 
0.0000000e+00 -6.9054513e-06 0.0000000e+00 
0.0000000e+00 -7.3939623e-06 0.0000000e+00 
0.0000000e+00 -7.0177598e-06 0.0000000e+00 
0.0000000e+00 -6.0543230e-06 0.0000000e+00 
0.0000000e+00 -4.8823586e-06 0.0000000e+00 
0.0000000e+00 -3.8143719e-06 0.0000000e+00 
0.0000000e+00 -2.8414265e-06 0.0000000e+00 
0.0000000e+00 -1.6863155e-06 0.0000000e+00 
0.0000000e+00 -1.3222298e-07 0.0000000e+00 
0.0000000e+00 1.7862902e-06 0.0000000e+00 
0.0000000e+00 3.9363808e-06 0.0000000e+00 
0.0000000e+00 6.2077183e-06 0.0000000e+00 
0.0000000e+00 8.7722119e-06 0.0000000e+00 
0.0000000e+00 1.2203382e-05 0.0000000e+00 
0.0000000e+00 1.7332442e-05 0.0000000e+00 
0.0000000e+00 2.4943496e-05 0.0000000e+00 
0.0000000e+00 3.5520454e-05 0.0000000e+00 
0.0000000e+00 4.8771792e-05 0.0000000e+00 
0.0000000e+00 6.3160653e-05 0.0000000e+00 
0.0000000e+00 7.4885051e-05 0.0000000e+00 
0.0000000e+00 7.4693409e-05 0.0000000e+00 
0.0000000e+00 4.3672717e-05 0.0000000e+00 
0.0000000e+00 -4.9527738e-05 0.0000000e+00 
0.0000000e+00 -2.5129665e-04 0.0000000e+00 
0.0000000e+00 -6.1974971e-04 0.0000000e+00 
0.0000000e+00 -1.2138271e-03 0.0000000e+00 
0.0000000e+00 -2.0696612e-03 0.0000000e+00 
0.0000000e+00 -3.1434286e-03 0.0000000e+00 
0.0000000e+00 -4.2410502e-03 0.0000000e+00 
0.0000000e+00 -4.8922249e-03 0.0000000e+00 
0.0000000e+00 -4.7376053e-03 0.0000000e+00 
0.0000000e+00 -4.3770387e-03 0.0000000e+00 
0.0000000e+00 -4.2461902e-03 0.0000000e+00 
0.0000000e+00 -4.3251184e-03 0.0000000e+00 
0.0000000e+00 -4.1494486e-03 0.0000000e+00 
0.0000000e+00 -3.2148296e-03 0.0000000e+00 
0.0000000e+00 -2.0516173e-03 0.0000000e+00 
0.0000000e+00 -1.0554304e-03 0.0000000e+00 
0.0000000e+00 -3.7289615e-04 0.0000000e+00 
0.0000000e+00 1.1480692e-05 0.0000000e+00 
0.0000000e+00 1.7317776e-04 0.0000000e+00 
0.0000000e+00 1.9893878e-04 0.0000000e+00 
0.0000000e+00 1.6009915e-04 0.0000000e+00 
0.0000000e+00 1.0238847e-04 0.0000000e+00 
0.0000000e+00 5.1084713e-05 0.0000000e+00 
0.0000000e+00 1.5009864e-05 0.0000000e+00 
0.0000000e+00 -5.3416193e-06 0.0000000e+00 
0.0000000e+00 -1.3504508e-05 0.0000000e+00 
0.0000000e+00 -1.3730757e-05 0.0000000e+00 
0.0000000e+00 -9.7693219e-06 0.0000000e+00 
0.0000000e+00 -4.3115342e-06 0.0000000e+00 
0.0000000e+00 1.1218705e-06 0.0000000e+00 
0.0000000e+00 6.2167574e-06 0.0000000e+00 
0.0000000e+00 1.1634938e-05 0.0000000e+00 
0.0000000e+00 1.8647184e-05 0.0000000e+00 
0.0000000e+00 2.8508071e-05 0.0000000e+00 
0.0000000e+00 4.2051277e-05 0.0000000e+00 
0.0000000e+00 5.9027752e-05 0.0000000e+00 
0.0000000e+00 7.7297533e-05 0.0000000e+00 
0.0000000e+00 9.0793321e-05 0.0000000e+00 
0.0000000e+00 8.7234905e-05 0.0000000e+00 
0.0000000e+00 4.6073332e-05 0.0000000e+00 
0.0000000e+00 -6.6783869e-05 0.0000000e+00 
0.0000000e+00 -3.0053122e-04 0.0000000e+00 
0.0000000e+00 -7.1456563e-04 0.0000000e+00 
0.0000000e+00 -1.3643513e-03 0.0000000e+00 
0.0000000e+00 -2.2745980e-03 0.0000000e+00 
0.0000000e+00 -3.3766609e-03 0.0000000e+00 
0.0000000e+00 -4.4330317e-03 0.0000000e+00 
0.0000000e+00 -4.9019665e-03 0.0000000e+00 
0.0000000e+00 -4.6297899e-03 0.0000000e+00 
0.0000000e+00 -4.3029431e-03 0.0000000e+00 
0.0000000e+00 -4.2633782e-03 0.0000000e+00 
0.0000000e+00 -4.3684915e-03 0.0000000e+00 
0.0000000e+00 -4.0404983e-03 0.0000000e+00 
0.0000000e+00 -2.9873860e-03 0.0000000e+00 
0.0000000e+00 -1.8165138e-03 0.0000000e+00 
0.0000000e+00 -8.7277929e-04 0.0000000e+00 
0.0000000e+00 -2.5585253e-04 0.0000000e+00 
0.0000000e+00 7.2675168e-05 0.0000000e+00 
0.0000000e+00 2.0265744e-04 0.0000000e+00 
0.0000000e+00 2.2464393e-04 0.0000000e+00 
0.0000000e+00 2.0908080e-04 0.0000000e+00 
0.0000000e+00 1.9920574e-04 0.0000000e+00 
-5.5870862e-04 -1.3094373e-03 -1.4168797e-04 
4.3050673e-05 -6.1371313e-05 -8.3771818e-07 
3.9113162e-05 -1.1801741e-05 2.4190201e-06 
3.2811542e-05 -8.7005401e-06 6.3871598e-06 
0.0000000e+00 -2.0642332e-03 0.0000000e+00 
0.0000000e+00 0.0000000e+00 0.0000000e+00 
0.0000000e+00 0.0000000e+00 0.0000000e+00 
0.0000000e+00 0.0000000e+00 0.0000000e+00 
0.0000000e+00 0.0000000e+00 0.0000000e+00 
0.0000000e+00 0.0000000e+00 0.0000000e+00 
0.0000000e+00 0.0000000e+00 0.0000000e+00 
0.0000000e+00 0.0000000e+00 0.0000000e+00 
0.0000000e+00 0.0000000e+00 0.0000000e+00 
0.0000000e+00 0.0000000e+00 0.0000000e+00 
0.0000000e+00 0.0000000e+00 0.0000000e+00 
0.0000000e+00 0.0000000e+00 0.0000000e+00 
0.0000000e+00 0.0000000e+00 0.0000000e+00 
0.0000000e+00 0.0000000e+00 0.0000000e+00 
0.0000000e+00 0.0000000e+00 0.0000000e+00 
0.0000000e+00 0.0000000e+00 0.0000000e+00 
0.0000000e+00 0.0000000e+00 0.0000000e+00 
0.0000000e+00 0.0000000e+00 0.0000000e+00 
0.0000000e+00 0.0000000e+00 0.0000000e+00 
0.0000000e+00 0.0000000e+00 0.0000000e+00 
0.0000000e+00 0.0000000e+00 0.0000000e+00 
0.0000000e+00 0.0000000e+00 0.0000000e+00 
0.0000000e+00 0.0000000e+00 0.0000000e+00 
0.0000000e+00 0.0000000e+00 0.0000000e+00 
0.0000000e+00 0.0000000e+00 0.0000000e+00 
0.0000000e+00 0.0000000e+00 0.0000000e+00 
0.0000000e+00 0.0000000e+00 0.0000000e+00 
0.0000000e+00 0.0000000e+00 0.0000000e+00 
0.0000000e+00 0.0000000e+00 0.0000000e+00 
0.0000000e+00 0.0000000e+00 0.0000000e+00 
0.0000000e+00 0.0000000e+00 0.0000000e+00 
0.0000000e+00 0.0000000e+00 0.0000000e+00 
0.0000000e+00 0.0000000e+00 0.0000000e+00 
0.0000000e+00 0.0000000e+00 0.0000000e+00 
0.0000000e+00 0.0000000e+00 0.0000000e+00 
0.0000000e+00 0.0000000e+00 0.0000000e+00 
0.0000000e+00 0.0000000e+00 0.0000000e+00 
0.0000000e+00 0.0000000e+00 0.0000000e+00 
0.0000000e+00 0.0000000e+00 0.0000000e+00 
0.0000000e+00 0.0000000e+00 0.0000000e+00 
0.0000000e+00 0.0000000e+00 0.0000000e+00 
0.0000000e+00 0.0000000e+00 0.0000000e+00 
0.0000000e+00 0.0000000e+00 0.0000000e+00 
0.0000000e+00 0.0000000e+00 0.0000000e+00 
0.0000000e+00 0.0000000e+00 0.0000000e+00 
0.0000000e+00 0.0000000e+00 0.0000000e+00 
0.0000000e+00 0.0000000e+00 0.0000000e+00 
0.0000000e+00 0.0000000e+00 0.0000000e+00 
0.0000000e+00 0.0000000e+00 0.0000000e+00 
0.0000000e+00 0.0000000e+00 0.0000000e+00 
0.0000000e+00 0.0000000e+00 0.0000000e+00 
0.0000000e+00 0.0000000e+00 0.0000000e+00 
0.0000000e+00 0.0000000e+00 0.0000000e+00 
0.0000000e+00 0.0000000e+00 0.0000000e+00 
0.0000000e+00 0.0000000e+00 0.0000000e+00 
0.0000000e+00 0.0000000e+00 0.0000000e+00 
0.0000000e+00 0.0000000e+00 0.0000000e+00 
0.0000000e+00 0.0000000e+00 0.0000000e+00 
0.0000000e+00 0.0000000e+00 0.0000000e+00 
0.0000000e+00 0.0000000e+00 0.0000000e+00 
0.0000000e+00 0.0000000e+00 0.0000000e+00 
0.0000000e+00 0.0000000e+00 0.0000000e+00 
0.0000000e+00 0.0000000e+00 0.0000000e+00 
0.0000000e+00 0.0000000e+00 0.0000000e+00 
0.0000000e+00 0.0000000e+00 0.0000000e+00 
0.0000000e+00 0.0000000e+00 0.0000000e+00 
0.0000000e+00 0.0000000e+00 0.0000000e+00 
0.0000000e+00 0.0000000e+00 0.0000000e+00 
0.0000000e+00 0.0000000e+00 0.0000000e+00 
0.0000000e+00 0.0000000e+00 0.0000000e+00 
0.0000000e+00 0.0000000e+00 0.0000000e+00 
0.0000000e+00 0.0000000e+00 0.0000000e+00 
0.0000000e+00 0.0000000e+00 0.0000000e+00 
0.0000000e+00 0.0000000e+00 0.0000000e+00 
0.0000000e+00 0.0000000e+00 0.0000000e+00 
0.0000000e+00 0.0000000e+00 0.0000000e+00 
0.0000000e+00 0.0000000e+00 0.0000000e+00 
0.0000000e+00 0.0000000e+00 0.0000000e+00 
0.0000000e+00 0.0000000e+00 0.0000000e+00 
0.0000000e+00 0.0000000e+00 0.0000000e+00 
0.0000000e+00 0.0000000e+00 0.0000000e+00 
0.0000000e+00 0.0000000e+00 0.0000000e+00 
0.0000000e+00 0.0000000e+00 0.0000000e+00 
0.0000000e+00 0.0000000e+00 0.0000000e+00 
0.0000000e+00 0.0000000e+00 0.0000000e+00 
0.0000000e+00 0.0000000e+00 0.0000000e+00 
0.0000000e+00 0.0000000e+00 0.0000000e+00 
0.0000000e+00 0.0000000e+00 0.0000000e+00 
0.0000000e+00 0.0000000e+00 0.0000000e+00 
0.0000000e+00 0.0000000e+00 0.0000000e+00 
0.0000000e+00 0.0000000e+00 0.0000000e+00 
0.0000000e+00 0.0000000e+00 0.0000000e+00 
0.0000000e+00 0.0000000e+00 0.0000000e+00 
0.0000000e+00 0.0000000e+00 0.0000000e+00 
0.0000000e+00 0.0000000e+00 0.0000000e+00 
0.0000000e+00 0.0000000e+00 0.0000000e+00 
0.0000000e+00 0.0000000e+00 0.0000000e+00 
0.0000000e+00 0.0000000e+00 0.0000000e+00 
0.0000000e+00 0.0000000e+00 0.0000000e+00 
0.0000000e+00 0.0000000e+00 0.0000000e+00 
0.0000000e+00 0.0000000e+00 0.0000000e+00 
0.0000000e+00 0.0000000e+00 0.0000000e+00 
0.0000000e+00 0.0000000e+00 0.0000000e+00 
0.0000000e+00 0.0000000e+00 0.0000000e+00 
0.0000000e+00 0.0000000e+00 0.0000000e+00 
0.0000000e+00 0.0000000e+00 0.0000000e+00 
0.0000000e+00 0.0000000e+00 0.0000000e+00 
-1.8875080e-07 -3.2636069e-07 -5.7479656e-07 
-7.7462505e-07 -3.7516347e-07 -1.4592459e-07 
-1.5131949e-06 -2.2706705e-07 3.4044953e-07 
-1.9057345e-06 -1.3940817e-07 5.4236830e-07 
-2.0232435e-06 3.0102836e-07 6.2586577e-07 
-1.9518832e-06 7.1221928e-07 7.9232609e-07 
-1.9678184e-06 6.1763200e-07 1.0906722e-06 
-2.3123914e-06 3.2310223e-07 1.1618063e-06 
-2.3354567e-06 1.8322760e-07 6.5824844e-07 
-2.1347037e-06 1.0747028e-07 -1.8115115e-07 
-1.7195330e-06 -1.0459112e-07 -6.3421635e-07 
-8.8490782e-07 -7.8917406e-09 -6.0748266e-07 
-4.7642075e-07 -3.0737692e-07 -7.2495243e-07 
3.1397008e-07 -5.5747637e-07 -1.2729041e-06 
1.2623525e-06 -1.1268762e-06 -2.0941754e-06 
2.3170703e-06 -1.3987240e-06 -2.7462861e-06 
3.7286140e-06 -9.5115456e-07 -3.8898456e-06 
6.8576123e-06 -2.4467463e-06 -6.7481087e-06 
1.2034297e-05 -5.2160449e-06 -9.8169958e-06 
2.0833755e-05 -8.6231139e-06 -1.2342074e-05 
2.8454890e-05 -1.1061627e-05 -1.3614862e-05 
3.5525343e-05 -1.1372555e-05 -1.1058154e-05 
4.1890209e-05 -1.3728520e-05 -4.2064894e-06 
4.2337801e-05 -1.3755342e-05 2.6981863e-06 
3.4954915e-05 -9.6634485e-06 7.7872110e-06 
2.5610023e-05 -7.4314089e-06 1.1934394e-05 
1.6839122e-05 -5.6043568e-06 1.2324565e-05 
8.0080117e-06 -1.8355847e-06 1.0369802e-05 
2.2286742e-06 -1.1198664e-06 7.2764437e-06 
-3.4992294e-07 -7.9057725e-07 4.6959312e-06 
-7.0210444e-07 -7.6120995e-07 2.8654563e-06 
-5.5232329e-07 -8.9036752e-07 1.7451296e-06 
2.9890390e-07 -6.8099337e-07 7.6216304e-07 
8.6147577e-07 -8.3409765e-07 -5.8315311e-07 
1.6306196e-06 -1.5798023e-06 -2.1681376e-06 
2.9374821e-06 -1.5647407e-06 -3.9831348e-06 
5.0635026e-06 -1.5820225e-06 -6.1706533e-06 
8.8623447e-06 -2.4468543e-06 -8.7767039e-06 
1.4541822e-05 -4.7211124e-06 -1.1513724e-05 
2.2629931e-05 -8.9052483e-06 -1.2871546e-05 
3.1405150e-05 -1.0781418e-05 -1.3073538e-05 
4.1072228e-05 -1.4175997e-05 -9.4725547e-06 
4.4625798e-05 -1.4711877e-05 -3.4468260e-06 
4.4596065e-05 -1.5113554e-05 5.3268418e-06 
3.6084301e-05 -1.1374803e-05 1.1803862e-05 
2.9043586e-05 -7.9527035e-06 1.3052740e-05 
2.1800668e-05 -5.0723720e-06 1.4724410e-05 
1.0274355e-05 -1.8031516e-06 1.2080310e-05 
3.7945783e-06 -1.4692924e-06 8.7780882e-06 
0.0000000e+00 -1.9942329e-06 0.0000000e+00 
0.0000000e+00 9.0285607e-07 0.0000000e+00 
0.0000000e+00 4.1775634e-06 0.0000000e+00 
0.0000000e+00 6.6579023e-06 0.0000000e+00 
0.0000000e+00 6.0280213e-06 0.0000000e+00 
0.0000000e+00 4.6694604e-06 0.0000000e+00 
0.0000000e+00 4.0679670e-06 0.0000000e+00 
0.0000000e+00 3.8008584e-06 0.0000000e+00 
0.0000000e+00 3.9097213e-06 0.0000000e+00 
0.0000000e+00 4.7000967e-06 0.0000000e+00 
0.0000000e+00 3.5453058e-06 0.0000000e+00 
0.0000000e+00 -2.1841119e-07 0.0000000e+00 
0.0000000e+00 -2.6341677e-06 0.0000000e+00 
0.0000000e+00 -5.5320925e-06 0.0000000e+00 
0.0000000e+00 -7.4572858e-06 0.0000000e+00 
0.0000000e+00 -6.0924076e-06 0.0000000e+00 
0.0000000e+00 -1.1054075e-06 0.0000000e+00 
0.0000000e+00 2.7151548e-06 0.0000000e+00 
0.0000000e+00 -1.3433440e-05 0.0000000e+00 
0.0000000e+00 -7.9150988e-05 0.0000000e+00 
0.0000000e+00 -2.1697812e-04 0.0000000e+00 
0.0000000e+00 -3.9623879e-04 0.0000000e+00 
0.0000000e+00 -5.3194031e-04 0.0000000e+00 
0.0000000e+00 -5.2531122e-04 0.0000000e+00 
0.0000000e+00 -4.3706081e-04 0.0000000e+00 
0.0000000e+00 -2.7451265e-04 0.0000000e+00 
0.0000000e+00 -1.1980906e-04 0.0000000e+00 
0.0000000e+00 -1.4877829e-05 0.0000000e+00 
0.0000000e+00 1.5757319e-05 0.0000000e+00 
0.0000000e+00 1.4889622e-05 0.0000000e+00 
0.0000000e+00 5.9422778e-06 0.0000000e+00 
0.0000000e+00 -2.4974311e-06 0.0000000e+00 
0.0000000e+00 -3.8015194e-06 0.0000000e+00 
0.0000000e+00 -3.2116880e-06 0.0000000e+00 
0.0000000e+00 -2.9071216e-06 0.0000000e+00 
0.0000000e+00 -6.9073059e-07 0.0000000e+00 
0.0000000e+00 4.7206532e-07 0.0000000e+00 
0.0000000e+00 -1.6258137e-07 0.0000000e+00 
0.0000000e+00 -2.0031863e-05 0.0000000e+00 
0.0000000e+00 -8.2660881e-05 0.0000000e+00 
0.0000000e+00 -2.2004553e-04 0.0000000e+00 
0.0000000e+00 -4.0816600e-04 0.0000000e+00 
0.0000000e+00 -5.0709071e-04 0.0000000e+00 
0.0000000e+00 -5.0423288e-04 0.0000000e+00 
0.0000000e+00 -4.4710276e-04 0.0000000e+00 
0.0000000e+00 -2.9291093e-04 0.0000000e+00 
0.0000000e+00 -1.2286626e-04 0.0000000e+00 
0.0000000e+00 -2.2529892e-05 0.0000000e+00 
0.0000000e+00 1.2510458e-05 0.0000000e+00 
1.6532725e-07 -6.9195750e-07 -9.2331919e-07 
1.7648750e-07 -7.9126164e-07 -1.3200490e-06 
3.2221377e-07 -1.4232236e-06 -2.2277623e-06 
-9.5817263e-08 -2.8633219e-06 -2.4184262e-06 
2.3810767e-06 -2.5099744e-06 7.4268687e-06 
1.7041835e-06 -1.4083295e-07 8.4825033e-06 
-1.4096137e-06 5.5204409e-06 7.7781879e-06 
-2.9783844e-06 1.0600084e-05 4.6496875e-06 
6.0421669e-08 -8.4186570e-07 -1.1637403e-06 
3.7428731e-06 -2.1855797e-06 1.0312950e-05 
-1.2920491e-06 -2.2462330e-06 -3.3881645e-06 
-8.3888636e-07 -1.5532240e-06 -2.8674924e-06 
0.0000000e+00 -2.9889345e-06 0.0000000e+00 
0.0000000e+00 -2.7617639e-07 0.0000000e+00 
0.0000000e+00 4.1846702e-06 0.0000000e+00 
0.0000000e+00 8.8357565e-06 0.0000000e+00 
0.0000000e+00 8.3788127e-06 0.0000000e+00 
0.0000000e+00 6.4285073e-06 0.0000000e+00 
0.0000000e+00 5.9866916e-06 0.0000000e+00 
0.0000000e+00 5.4029897e-06 0.0000000e+00 
0.0000000e+00 5.2223722e-06 0.0000000e+00 
0.0000000e+00 6.8473792e-06 0.0000000e+00 
0.0000000e+00 5.2701807e-06 0.0000000e+00 
0.0000000e+00 -9.8811120e-07 0.0000000e+00 
0.0000000e+00 -3.7519037e-06 0.0000000e+00 