# vtk DataFile Version 4.0
vtk output
ASCII
DATASET UNSTRUCTURED_GRID
POINTS 1919 float
0.0000000e+00 0.0000000e+00 0.0000000e+00 
0.0000000e+00 0.0000000e+00 5.0000000e+01 
5.0000000e+00 0.0000000e+00 0.0000000e+00 
5.0000000e+00 0.0000000e+00 5.0000000e+01 
5.0000000e+00 1.0000000e+00 0.0000000e+00 
5.0000000e+00 1.0000000e+00 5.0000000e+01 
0.0000000e+00 1.0000000e+00 0.0000000e+00 
0.0000000e+00 1.0000000e+00 5.0000000e+01 
5.0000000e+00 2.0000000e+00 0.0000000e+00 
5.0000000e+00 2.0000000e+00 5.0000000e+01 
3.0000000e+00 2.0000000e+00 0.0000000e+00 
3.0000000e+00 2.0000000e+00 5.0000000e+01 
0.0000000e+00 2.0000000e+00 0.0000000e+00 
0.0000000e+00 2.0000000e+00 5.0000000e+01 
1.5000000e+00 3.0000000e+00 0.0000000e+00 
1.5000000e+00 3.0000000e+00 5.0000000e+01 
7.5000000e-01 3.0000000e+00 0.0000000e+00 
7.5000000e-01 3.0000000e+00 5.0000000e+01 
0.0000000e+00 3.0000000e+00 0.0000000e+00 
0.0000000e+00 3.0000000e+00 5.0000000e+01 
7.5000000e-01 3.0000000e+00 5.0000000e-01 
7.5000000e-01 3.0000000e+00 1.0000000e+00 
7.5000000e-01 3.0000000e+00 1.5000000e+00 
7.5000000e-01 3.0000000e+00 2.0000000e+00 
7.5000000e-01 3.0000000e+00 2.5000000e+00 
7.5000000e-01 3.0000000e+00 3.0000000e+00 
7.5000000e-01 3.0000000e+00 3.5000000e+00 
7.5000000e-01 3.0000000e+00 4.0000000e+00 
7.5000000e-01 3.0000000e+00 4.5000000e+00 
7.5000000e-01 3.0000000e+00 5.0000000e+00 
7.5000000e-01 3.0000000e+00 5.5000000e+00 
7.5000000e-01 3.0000000e+00 6.0000000e+00 
7.5000000e-01 3.0000000e+00 6.5000000e+00 
7.5000000e-01 3.0000000e+00 7.0000000e+00 
7.5000000e-01 3.0000000e+00 7.5000000e+00 
7.5000000e-01 3.0000000e+00 8.0000000e+00 
7.5000000e-01 3.0000000e+00 8.5000000e+00 
7.5000000e-01 3.0000000e+00 9.0000000e+00 
7.5000000e-01 3.0000000e+00 9.5000000e+00 
7.5000000e-01 3.0000000e+00 1.0000000e+01 
7.5000000e-01 3.0000000e+00 1.0500000e+01 
7.5000000e-01 3.0000000e+00 1.1000000e+01 
7.5000000e-01 3.0000000e+00 1.1500000e+01 
7.5000000e-01 3.0000000e+00 1.2000000e+01 
7.5000000e-01 3.0000000e+00 1.2500000e+01 
7.5000000e-01 3.0000000e+00 1.3000000e+01 
7.5000000e-01 3.0000000e+00 1.3500000e+01 
7.5000000e-01 3.0000000e+00 1.4000000e+01 
7.5000000e-01 3.0000000e+00 1.4500000e+01 
7.5000000e-01 3.0000000e+00 1.5000000e+01 
7.5000000e-01 3.0000000e+00 1.5500000e+01 
7.5000000e-01 3.0000000e+00 1.6000000e+01 
7.5000000e-01 3.0000000e+00 1.6500000e+01 
7.5000000e-01 3.0000000e+00 1.7000000e+01 
7.5000000e-01 3.0000000e+00 1.7500000e+01 
7.5000000e-01 3.0000000e+00 1.8000000e+01 
7.5000000e-01 3.0000000e+00 1.8500000e+01 
7.5000000e-01 3.0000000e+00 1.9000000e+01 
7.5000000e-01 3.0000000e+00 1.9500000e+01 
7.5000000e-01 3.0000000e+00 2.0000000e+01 
7.5000000e-01 3.0000000e+00 2.0500000e+01 
7.5000000e-01 3.0000000e+00 2.1000000e+01 
7.5000000e-01 3.0000000e+00 2.1500000e+01 
7.5000000e-01 3.0000000e+00 2.2000000e+01 
7.5000000e-01 3.0000000e+00 2.2500000e+01 
7.5000000e-01 3.0000000e+00 2.3000000e+01 
7.5000000e-01 3.0000000e+00 2.3500000e+01 
7.5000000e-01 3.0000000e+00 2.4000000e+01 
7.5000000e-01 3.0000000e+00 2.4500000e+01 
7.5000000e-01 3.0000000e+00 2.5000000e+01 
7.5000000e-01 3.0000000e+00 2.5500000e+01 
7.5000000e-01 3.0000000e+00 2.6000000e+01 
7.5000000e-01 3.0000000e+00 2.6500000e+01 
7.5000000e-01 3.0000000e+00 2.7000000e+01 
7.5000000e-01 3.0000000e+00 2.7500000e+01 
7.5000000e-01 3.0000000e+00 2.8000000e+01 
7.5000000e-01 3.0000000e+00 2.8500000e+01 
7.5000000e-01 3.0000000e+00 2.9000000e+01 
7.5000000e-01 3.0000000e+00 2.9500000e+01 
7.5000000e-01 3.0000000e+00 3.0000000e+01 
7.5000000e-01 3.0000000e+00 3.0500000e+01 
7.5000000e-01 3.0000000e+00 3.1000000e+01 
7.5000000e-01 3.0000000e+00 3.1500000e+01 
7.5000000e-01 3.0000000e+00 3.2000000e+01 
7.5000000e-01 3.0000000e+00 3.2500000e+01 
7.5000000e-01 3.0000000e+00 3.3000000e+01 
7.5000000e-01 3.0000000e+00 3.3500000e+01 
7.5000000e-01 3.0000000e+00 3.4000000e+01 
7.5000000e-01 3.0000000e+00 3.4500000e+01 
7.5000000e-01 3.0000000e+00 3.5000000e+01 
7.5000000e-01 3.0000000e+00 3.5500000e+01 
7.5000000e-01 3.0000000e+00 3.6000000e+01 
7.5000000e-01 3.0000000e+00 3.6500000e+01 
7.5000000e-01 3.0000000e+00 3.7000000e+01 
7.5000000e-01 3.0000000e+00 3.7500000e+01 
7.5000000e-01 3.0000000e+00 3.8000000e+01 
7.5000000e-01 3.0000000e+00 3.8500000e+01 
7.5000000e-01 3.0000000e+00 3.9000000e+01 
7.5000000e-01 3.0000000e+00 3.9500000e+01 
7.5000000e-01 3.0000000e+00 4.0000000e+01 
7.5000000e-01 3.0000000e+00 4.0500000e+01 
7.5000000e-01 3.0000000e+00 4.1000000e+01 
7.5000000e-01 3.0000000e+00 4.1500000e+01 
7.5000000e-01 3.0000000e+00 4.2000000e+01 
7.5000000e-01 3.0000000e+00 4.2500000e+01 
7.5000000e-01 3.0000000e+00 4.3000000e+01 
7.5000000e-01 3.0000000e+00 4.3500000e+01 
7.5000000e-01 3.0000000e+00 4.4000000e+01 
7.5000000e-01 3.0000000e+00 4.4500000e+01 
7.5000000e-01 3.0000000e+00 4.5000000e+01 
7.5000000e-01 3.0000000e+00 4.5500000e+01 
7.5000000e-01 3.0000000e+00 4.6000000e+01 
7.5000000e-01 3.0000000e+00 4.6500000e+01 
7.5000000e-01 3.0000000e+00 4.7000000e+01 
7.5000000e-01 3.0000000e+00 4.7500000e+01 
7.5000000e-01 3.0000000e+00 4.8000000e+01 
7.5000000e-01 3.0000000e+00 4.8500000e+01 
7.5000000e-01 3.0000000e+00 4.9000000e+01 
7.5000000e-01 3.0000000e+00 4.9500000e+01 
7.5000000e-01 3.0250001e+00 0.0000000e+00 
7.5000000e-01 3.0250001e+00 5.0000000e-01 
7.5000000e-01 3.0250001e+00 1.0000000e+00 
7.5000000e-01 3.0250001e+00 1.5000000e+00 
7.5000000e-01 3.0250001e+00 2.0000000e+00 
7.5000000e-01 3.0250001e+00 2.5000000e+00 
7.5000000e-01 3.0250001e+00 3.0000000e+00 
7.5000000e-01 3.0250001e+00 3.5000000e+00 
7.5000000e-01 3.0250001e+00 4.0000000e+00 
7.5000000e-01 3.0250001e+00 4.5000000e+00 
7.5000000e-01 3.0250001e+00 5.0000000e+00 
7.5000000e-01 3.0250001e+00 5.5000000e+00 
7.5000000e-01 3.0250001e+00 6.0000000e+00 
7.5000000e-01 3.0250001e+00 6.5000000e+00 
7.5000000e-01 3.0250001e+00 7.0000000e+00 
7.5000000e-01 3.0250001e+00 7.5000000e+00 
7.5000000e-01 3.0250001e+00 8.0000000e+00 
7.5000000e-01 3.0250001e+00 8.5000000e+00 
7.5000000e-01 3.0250001e+00 9.0000000e+00 
7.5000000e-01 3.0250001e+00 9.5000000e+00 
7.5000000e-01 3.0250001e+00 1.0000000e+01 
7.5000000e-01 3.0250001e+00 1.0500000e+01 
7.5000000e-01 3.0250001e+00 1.1000000e+01 
7.5000000e-01 3.0250001e+00 1.1500000e+01 
7.5000000e-01 3.0250001e+00 1.2000000e+01 
7.5000000e-01 3.0250001e+00 1.2500000e+01 
7.5000000e-01 3.0250001e+00 1.3000000e+01 
7.5000000e-01 3.0250001e+00 1.3500000e+01 
7.5000000e-01 3.0250001e+00 1.4000000e+01 
7.5000000e-01 3.0250001e+00 1.4500000e+01 
7.5000000e-01 3.0250001e+00 1.5000000e+01 
7.5000000e-01 3.0250001e+00 1.5500000e+01 
7.5000000e-01 3.0250001e+00 1.6000000e+01 
7.5000000e-01 3.0250001e+00 1.6500000e+01 
7.5000000e-01 3.0250001e+00 1.7000000e+01 
7.5000000e-01 3.0250001e+00 1.7500000e+01 
7.5000000e-01 3.0250001e+00 1.8000000e+01 
7.5000000e-01 3.0250001e+00 1.8500000e+01 
7.5000000e-01 3.0250001e+00 1.9000000e+01 
7.5000000e-01 3.0250001e+00 1.9500000e+01 
7.5000000e-01 3.0250001e+00 2.0000000e+01 
7.5000000e-01 3.0250001e+00 2.0500000e+01 
7.5000000e-01 3.0250001e+00 2.1000000e+01 
7.5000000e-01 3.0250001e+00 2.1500000e+01 
7.5000000e-01 3.0250001e+00 2.2000000e+01 
7.5000000e-01 3.0250001e+00 2.2500000e+01 
7.5000000e-01 3.0250001e+00 2.3000000e+01 
7.5000000e-01 3.0250001e+00 2.3500000e+01 
7.5000000e-01 3.0250001e+00 2.4000000e+01 
7.5000000e-01 3.0250001e+00 2.4500000e+01 
7.5000000e-01 3.0250001e+00 2.5000000e+01 
7.5000000e-01 3.0250001e+00 2.5500000e+01 
7.5000000e-01 3.0250001e+00 2.6000000e+01 
7.5000000e-01 3.0250001e+00 2.6500000e+01 
7.5000000e-01 3.0250001e+00 2.7000000e+01 
7.5000000e-01 3.0250001e+00 2.7500000e+01 
7.5000000e-01 3.0250001e+00 2.8000000e+01 
7.5000000e-01 3.0250001e+00 2.8500000e+01 
7.5000000e-01 3.0250001e+00 2.9000000e+01 
7.5000000e-01 3.0250001e+00 2.9500000e+01 
7.5000000e-01 3.0250001e+00 3.0000000e+01 
7.5000000e-01 3.0250001e+00 3.0500000e+01 
7.5000000e-01 3.0250001e+00 3.1000000e+01 
7.5000000e-01 3.0250001e+00 3.1500000e+01 
7.5000000e-01 3.0250001e+00 3.2000000e+01 
7.5000000e-01 3.0250001e+00 3.2500000e+01 
7.5000000e-01 3.0250001e+00 3.3000000e+01 
7.5000000e-01 3.0250001e+00 3.3500000e+01 
7.5000000e-01 3.0250001e+00 3.4000000e+01 
7.5000000e-01 3.0250001e+00 3.4500000e+01 
7.5000000e-01 3.0250001e+00 3.5000000e+01 
7.5000000e-01 3.0250001e+00 3.5500000e+01 
7.5000000e-01 3.0250001e+00 3.6000000e+01 
7.5000000e-01 3.0250001e+00 3.6500000e+01 
7.5000000e-01 3.0250001e+00 3.7000000e+01 
7.5000000e-01 3.0250001e+00 3.7500000e+01 
7.5000000e-01 3.0250001e+00 3.8000000e+01 
7.5000000e-01 3.0250001e+00 3.8500000e+01 
7.5000000e-01 3.0250001e+00 3.9000000e+01 
7.5000000e-01 3.0250001e+00 3.9500000e+01 
7.5000000e-01 3.0250001e+00 4.0000000e+01 
7.5000000e-01 3.0250001e+00 4.0500000e+01 
7.5000000e-01 3.0250001e+00 4.1000000e+01 
7.5000000e-01 3.0250001e+00 4.1500000e+01 
7.5000000e-01 3.0250001e+00 4.2000000e+01 
7.5000000e-01 3.0250001e+00 4.2500000e+01 
7.5000000e-01 3.0250001e+00 4.3000000e+01 
7.5000000e-01 3.0250001e+00 4.3500000e+01 
7.5000000e-01 3.0250001e+00 4.4000000e+01 
7.5000000e-01 3.0250001e+00 4.4500000e+01 
7.5000000e-01 3.0250001e+00 4.5000000e+01 
7.5000000e-01 3.0250001e+00 4.5500000e+01 
7.5000000e-01 3.0250001e+00 4.6000000e+01 
7.5000000e-01 3.0250001e+00 4.6500000e+01 
7.5000000e-01 3.0250001e+00 4.7000000e+01 
7.5000000e-01 3.0250001e+00 4.7500000e+01 
7.5000000e-01 3.0250001e+00 4.8000000e+01 
7.5000000e-01 3.0250001e+00 4.8500000e+01 
7.5000000e-01 3.0250001e+00 4.9000000e+01 
7.5000000e-01 3.0250001e+00 4.9500000e+01 
7.5000000e-01 3.0250001e+00 5.0000000e+01 
1.5000000e+00 3.0000000e+00 2.5000000e+01 
3.0000000e+00 2.0000000e+00 2.5000000e+01 
4.0000000e+00 2.0000000e+00 2.5000000e+01 
5.0000000e+00 2.0000000e+00 2.5000000e+01 
0.0000000e+00 3.0000000e+00 2.5000000e+01 
0.0000000e+00 0.0000000e+00 1.0000000e+00 
0.0000000e+00 0.0000000e+00 2.0000000e+00 
0.0000000e+00 0.0000000e+00 3.0000000e+00 
0.0000000e+00 0.0000000e+00 4.0000000e+00 
0.0000000e+00 0.0000000e+00 5.0000000e+00 
[...]
POINT_DATA 1919
FIELD FieldData 3
DISPLACEMENT 3 1919  float
0.0000000e+00 0.0000000e+00 0.0000000e+00 
0.0000000e+00 0.0000000e+00 0.0000000e+00 
0.0000000e+00 0.0000000e+00 0.0000000e+00 
0.0000000e+00 0.0000000e+00 0.0000000e+00 
-9.0073891e-06 1.0048556e-06 6.8304576e-06 
-2.4816465e-08 7.4643483e-09 -6.9509142e-08 
0.0000000e+00 -3.1932552e-06 0.0000000e+00 
0.0000000e+00 5.8961041e-07 0.0000000e+00 
-9.0162057e-06 -4.5561078e-06 -1.0917996e-06 
-1.0105648e-07 -1.4015806e-07 5.3233766e-08 
-9.0194935e-06 1.2136674e-05 9.1190304e-06 
-7.4797143e-08 -5.1941930e-07 -4.1154615e-07 
0.0000000e+00 -8.9866398e-06 0.0000000e+00 
0.0000000e+00 6.5730961e-07 0.0000000e+00 
-3.2244014e-05 -2.4509600e-05 8.8133689e-05 
-7.4338584e-07 -2.5638277e-08 7.4055367e-07 
8.1606791e-05 -1.2662451e-04 1.1851272e-04 
-9.0735625e-08 -1.5219942e-06 -1.8073870e-07 
0.0000000e+00 1.9880899e-05 0.0000000e+00 
0.0000000e+00 -2.1094641e-07 0.0000000e+00 
-3.6285215e-05 -1.2262139e-04 7.3111682e-05 
-7.3362462e-05 -1.1226828e-04 4.9394719e-05 
-8.8427922e-05 -9.8224562e-05 5.5805736e-05 
-9.1903465e-05 -8.0210048e-05 4.3704076e-05 
-1.0607110e-04 -5.7255991e-05 3.0782739e-05 
-8.3261322e-05 -2.8513936e-05 2.5082492e-05 
-8.9109322e-05 5.1436773e-06 1.1356237e-05 
-6.7031084e-05 4.1724230e-05 9.7069214e-06 
-5.9825117e-05 7.8506411e-05 1.1317328e-05 
-5.0286009e-05 1.1379157e-04 1.4626395e-05 
-4.7125013e-05 1.4511059e-04 2.5112662e-05 
-4.9031252e-05 1.6735507e-04 3.7380909e-05 
-6.5082393e-05 1.7015832e-04 4.4790788e-05 
-5.6188957e-05 1.3454379e-04 7.7027689e-05 
-9.8949320e-05 2.6649865e-05 1.1769458e-04 
-1.0780113e-04 -2.0063370e-04 1.2619686e-04 
-1.7480890e-04 -6.0484867e-04 2.1494430e-04 
-1.7845597e-04 -1.2378239e-03 1.5465109e-04 
-2.7000700e-04 -2.1371620e-03 2.5312166e-04 
-2.8374424e-04 -3.2458368e-03 9.6193871e-05 
-3.7200033e-04 -4.3844506e-03 1.5617571e-04 
-4.4307607e-04 -5.0553405e-03 -3.1832067e-05 
-4.1441963e-04 -4.9230387e-03 -1.5245711e-04 
-3.7386923e-04 -4.5715151e-03 -1.6162073e-04 
-2.8246568e-04 -4.4733593e-03 -2.0720248e-04 
-2.1599703e-04 -4.5329724e-03 -2.4247827e-04 
-1.5899140e-04 -4.3044118e-03 -2.6064971e-04 
-1.3238509e-04 -3.2850581e-03 -1.9555370e-04 
-4.8803620e-05 -2.0522098e-03 -2.4831886e-04 
-2.2285996e-05 -1.0069689e-03 -1.1340936e-04 
1.8228142e-05 -2.9915798e-04 -1.1981463e-04 
2.6754791e-05 9.4446907e-05 -3.9969891e-05 
4.1941465e-05 2.5459359e-04 -7.8625189e-06 
4.1061059e-05 2.6867588e-04 6.4802880e-05 
2.1968202e-05 2.0598191e-04 7.0123191e-05 
1.0610170e-05 1.1916427e-04 5.5497618e-05 
-1.0586431e-05 3.7831389e-05 3.8882219e-05 
-2.7457447e-05 -2.5193602e-05 3.2357158e-05 
-3.5724202e-05 -6.6063752e-05 9.1859320e-06 
-3.7770715e-05 -8.8231573e-05 1.2727523e-05 
-1.7701659e-05 -9.5916963e-05 3.0398834e-05 
-3.7475358e-05 -9.2490998e-05 4.2993699e-05 
-6.2518375e-05 -7.9629048e-05 5.6884441e-05 
-6.2236482e-05 -5.7628164e-05 4.7302070e-05 
-8.9717993e-05 -2.7704811e-05 4.0147253e-05 
-5.6626533e-05 8.4185776e-06 1.4442831e-05 
-7.4892021e-05 4.7149468e-05 -1.0289716e-05 
-7.6084340e-05 8.5284060e-05 -2.5772091e-05 
-2.7619342e-05 1.2112904e-04 -6.7717488e-06 
-4.7058194e-05 1.5721258e-04 5.9630011e-06 
-4.3829452e-05 1.9045929e-04 -1.9945301e-06 
-4.1469753e-05 2.1534188e-04 2.0168227e-05 
-5.3420725e-05 2.1735804e-04 3.8044254e-05 
-3.5908473e-05 1.6857375e-04 5.6586279e-05 
-8.5829139e-05 3.1650383e-05 1.1267250e-04 
-1.0223941e-04 -2.4307460e-04 1.3372352e-04 
-1.8065034e-04 -7.1211508e-04 2.2465028e-04 
-2.0521632e-04 -1.4208769e-03 1.5268596e-04 
-2.9856456e-04 -2.3921821e-03 2.4237728e-04 
-3.4421642e-04 -3.5393138e-03 3.5529400e-05 
-4.1890226e-04 -4.6423147e-03 7.2236813e-05 
-4.4832911e-04 -5.1338891e-03 -6.8573958e-05 
-4.1047187e-04 -4.8986510e-03 -2.0005583e-04 
-3.7448358e-04 -4.5696627e-03 -2.0525146e-04 
-3.0901271e-04 -4.5269411e-03 -2.4023151e-04 
-3.0305382e-04 -4.5856601e-03 -2.8128352e-04 
-2.1239469e-04 -4.2181392e-03 -3.3714357e-04 
-1.5145070e-04 -3.0994827e-03 -1.7924074e-04 
-5.9440499e-05 -1.8813272e-03 -2.3548040e-04 
-8.2610370e-07 -8.8302494e-04 -5.8897986e-05 
1.6045817e-05 -2.3059372e-04 -6.5780623e-05 
2.0713580e-05 1.1510230e-04 3.3948297e-06 
2.3811022e-05 2.4251996e-04 3.3718021e-05 
1.0699845e-05 2.4218751e-04 7.4294265e-05 
-7.4668183e-06 1.8547644e-04 9.4023657e-05 
-4.5402729e-05 1.1398777e-04 9.1478658e-05 
-4.9842423e-05 5.1245668e-05 -3.9434781e-07 
-4.4292712e-05 9.7049196e-06 -3.1925349e-05 
-1.7561835e-05 -8.7667077e-06 -5.6548575e-05 
-6.2445074e-06 -1.0681316e-05 -5.1486069e-05 
1.6016649e-05 -5.0873796e-06 -4.0492239e-05 
2.1175125e-05 7.3744786e-07 -2.5512989e-05 
1.9588144e-05 2.4616991e-06 -3.9898755e-06 
1.4784313e-05 1.1917992e-06 4.5844040e-06 
5.1717120e-06 -1.2450209e-06 8.2413580e-06 
2.0378546e-07 -3.2117953e-06 9.3880644e-06 
-2.8505856e-06 -4.0721379e-06 6.5355089e-06 
-3.5152502e-06 -4.2575684e-06 4.3472969e-06 
-3.2992621e-06 -3.9267893e-06 1.2227189e-06 
-2.0477319e-06 -3.0268777e-06 1.8729182e-08 
-1.7268044e-06 -1.4514434e-06 -4.0722148e-07 
-8.1304836e-07 4.6662203e-07 -7.7361898e-07 
7.6560224e-07 2.1460548e-06 -7.3803892e-07 
8.2369388e-07 2.9529820e-06 3.4837609e-07 
1.2731122e-06 2.6062594e-06 -5.4042118e-07 
1.2864346e-07 1.4910233e-06 -5.3408502e-07 
-9.6596317e-08 1.9773309e-07 1.2788669e-07 
3.5421402e-07 -8.1144657e-07 -3.5815983e-08 
-1.6036533e-07 -1.3611992e-06 2.2900808e-07 
0.0000000e+00 -1.2658248e-04 0.0000000e+00 
0.0000000e+00 -1.2267713e-04 0.0000000e+00 
0.0000000e+00 -1.1250124e-04 0.0000000e+00 
0.0000000e+00 -9.8333141e-05 0.0000000e+00 
0.0000000e+00 -8.0229045e-05 0.0000000e+00 
0.0000000e+00 -5.7171012e-05 0.0000000e+00 
0.0000000e+00 -2.8437966e-05 0.0000000e+00 
0.0000000e+00 5.2137921e-06 0.0000000e+00 
0.0000000e+00 4.1713425e-05 0.0000000e+00 
0.0000000e+00 7.8607947e-05 0.0000000e+00 
0.0000000e+00 1.1399393e-04 0.0000000e+00 
0.0000000e+00 1.4545323e-04 0.0000000e+00 
0.0000000e+00 1.6789020e-04 0.0000000e+00 
0.0000000e+00 1.7105504e-04 0.0000000e+00 
0.0000000e+00 1.3538831e-04 0.0000000e+00 
0.0000000e+00 2.7305563e-05 0.0000000e+00 
0.0000000e+00 -2.0071834e-04 0.0000000e+00 
0.0000000e+00 -6.0551893e-04 0.0000000e+00 
0.0000000e+00 -1.2424698e-03 0.0000000e+00 
0.0000000e+00 -2.1438620e-03 0.0000000e+00 
0.0000000e+00 -3.2625529e-03 0.0000000e+00 
0.0000000e+00 -4.4038696e-03 0.0000000e+00 
0.0000000e+00 -5.0868737e-03 0.0000000e+00 
0.0000000e+00 -4.9447338e-03 0.0000000e+00 
0.0000000e+00 -4.6003168e-03 0.0000000e+00 
0.0000000e+00 -4.4922908e-03 0.0000000e+00 
0.0000000e+00 -4.5620864e-03 0.0000000e+00 
0.0000000e+00 -4.3279235e-03 0.0000000e+00 
0.0000000e+00 -3.3087558e-03 0.0000000e+00 
0.0000000e+00 -2.0651072e-03 0.0000000e+00 
0.0000000e+00 -1.0151371e-03 0.0000000e+00 
0.0000000e+00 -3.0161891e-04 0.0000000e+00 
0.0000000e+00 9.4647563e-05 0.0000000e+00 
0.0000000e+00 2.5580588e-04 0.0000000e+00 
0.0000000e+00 2.6966829e-04 0.0000000e+00 
0.0000000e+00 2.0720942e-04 0.0000000e+00 
0.0000000e+00 1.2004314e-04 0.0000000e+00 
0.0000000e+00 3.8265825e-05 0.0000000e+00 
0.0000000e+00 -2.4873978e-05 0.0000000e+00 
0.0000000e+00 -6.6103901e-05 0.0000000e+00 
0.0000000e+00 -8.8397384e-05 0.0000000e+00 
0.0000000e+00 -9.6102754e-05 0.0000000e+00 
0.0000000e+00 -9.2624672e-05 0.0000000e+00 
0.0000000e+00 -7.9604397e-05 0.0000000e+00 
0.0000000e+00 -5.7579742e-05 0.0000000e+00 
0.0000000e+00 -2.7582597e-05 0.0000000e+00 
0.0000000e+00 8.4467201e-06 0.0000000e+00 
0.0000000e+00 4.7096619e-05 0.0000000e+00 
0.0000000e+00 8.5129948e-05 0.0000000e+00 
0.0000000e+00 1.2151596e-04 0.0000000e+00 
0.0000000e+00 1.5749186e-04 0.0000000e+00 
0.0000000e+00 1.9107141e-04 0.0000000e+00 
0.0000000e+00 2.1617733e-04 0.0000000e+00 
0.0000000e+00 2.1800921e-04 0.0000000e+00 
0.0000000e+00 1.6938681e-04 0.0000000e+00 
0.0000000e+00 3.2197269e-05 0.0000000e+00 
0.0000000e+00 -2.4338652e-04 0.0000000e+00 
0.0000000e+00 -7.1323762e-04 0.0000000e+00 
0.0000000e+00 -1.4262866e-03 0.0000000e+00 
0.0000000e+00 -2.3995789e-03 0.0000000e+00 
0.0000000e+00 -3.5581114e-03 0.0000000e+00 
0.0000000e+00 -4.6619121e-03 0.0000000e+00 
0.0000000e+00 -5.1662577e-03 0.0000000e+00 
0.0000000e+00 -4.9199057e-03 0.0000000e+00 
0.0000000e+00 -4.5981938e-03 0.0000000e+00 
0.0000000e+00 -4.5462311e-03 0.0000000e+00 
0.0000000e+00 -4.6163201e-03 0.0000000e+00 
0.0000000e+00 -4.2392258e-03 0.0000000e+00 
0.0000000e+00 -3.1232524e-03 0.0000000e+00 
0.0000000e+00 -1.8913109e-03 0.0000000e+00 
0.0000000e+00 -8.9065224e-04 0.0000000e+00 
0.0000000e+00 -2.3273518e-04 0.0000000e+00 
0.0000000e+00 1.1549404e-04 0.0000000e+00 
0.0000000e+00 2.4378506e-04 0.0000000e+00 
0.0000000e+00 2.4382379e-04 0.0000000e+00 
0.0000000e+00 1.8641735e-04 0.0000000e+00 
0.0000000e+00 1.1451507e-04 0.0000000e+00 
0.0000000e+00 5.1780979e-05 0.0000000e+00 
0.0000000e+00 1.0133561e-05 0.0000000e+00 
0.0000000e+00 -8.6774171e-06 0.0000000e+00 
0.0000000e+00 -1.0831516e-05 0.0000000e+00 
0.0000000e+00 -5.2746850e-06 0.0000000e+00 
0.0000000e+00 4.6473232e-07 0.0000000e+00 
0.0000000e+00 2.4464684e-06 0.0000000e+00 
0.0000000e+00 1.2340436e-06 0.0000000e+00 
0.0000000e+00 -1.1904367e-06 0.0000000e+00 
0.0000000e+00 -3.1679679e-06 0.0000000e+00 
0.0000000e+00 -4.0946425e-06 0.0000000e+00 
0.0000000e+00 -4.2726847e-06 0.0000000e+00 
0.0000000e+00 -3.9243923e-06 0.0000000e+00 
0.0000000e+00 -3.0013330e-06 0.0000000e+00 
0.0000000e+00 -1.4430472e-06 0.0000000e+00 
0.0000000e+00 4.6013884e-07 0.0000000e+00 
0.0000000e+00 2.1210108e-06 0.0000000e+00 
0.0000000e+00 2.9183520e-06 0.0000000e+00 
0.0000000e+00 2.6038852e-06 0.0000000e+00 
0.0000000e+00 1.5094852e-06 0.0000000e+00 
0.0000000e+00 2.1905774e-07 0.0000000e+00 
0.0000000e+00 -7.9913235e-07 0.0000000e+00 
0.0000000e+00 -1.3661582e-06 0.0000000e+00 
0.0000000e+00 -1.5330612e-06 0.0000000e+00 
-1.6846925e-05 2.0591245e-04 -2.9542042e-07 
3.0119114e-05 2.6541429e-05 4.2947017e-06 
3.6144975e-05 6.0976954e-06 -5.9829899e-06 
2.5204277e-05 2.6774904e-05 -9.6159847e-06 
0.0000000e+00 -1.1152013e-04 0.0000000e+00 
0.0000000e+00 0.0000000e+00 0.0000000e+00 
0.0000000e+00 0.0000000e+00 0.0000000e+00 
0.0000000e+00 0.0000000e+00 0.0000000e+00 
0.0000000e+00 0.0000000e+00 0.0000000e+00 
0.0000000e+00 0.0000000e+00 0.0000000e+00 
0.0000000e+00 0.0000000e+00 0.0000000e+00 
0.0000000e+00 0.0000000e+00 0.0000000e+00 
0.0000000e+00 0.0000000e+00 0.0000000e+00 
0.0000000e+00 0.0000000e+00 0.0000000e+00 
0.0000000e+00 0.0000000e+00 0.0000000e+00 
0.0000000e+00 0.0000000e+00 0.0000000e+00 
0.0000000e+00 0.0000000e+00 0.0000000e+00 
0.0000000e+00 0.0000000e+00 0.0000000e+00 
0.0000000e+00 0.0000000e+00 0.0000000e+00 
0.0000000e+00 0.0000000e+00 0.0000000e+00 
0.0000000e+00 0.0000000e+00 0.0000000e+00 
0.0000000e+00 0.0000000e+00 0.0000000e+00 
0.0000000e+00 0.0000000e+00 0.0000000e+00 
0.0000000e+00 0.0000000e+00 0.0000000e+00 
0.0000000e+00 0.0000000e+00 0.0000000e+00 
0.0000000e+00 0.0000000e+00 0.0000000e+00 
0.0000000e+00 0.0000000e+00 0.0000000e+00 
0.0000000e+00 0.0000000e+00 0.0000000e+00 
0.0000000e+00 0.0000000e+00 0.0000000e+00 
0.0000000e+00 0.0000000e+00 0.0000000e+00 
0.0000000e+00 0.0000000e+00 0.0000000e+00 
0.0000000e+00 0.0000000e+00 0.0000000e+00 
0.0000000e+00 0.0000000e+00 0.0000000e+00 
0.0000000e+00 0.0000000e+00 0.0000000e+00 
0.0000000e+00 0.0000000e+00 0.0000000e+00 
0.0000000e+00 0.0000000e+00 0.0000000e+00 
0.0000000e+00 0.0000000e+00 0.0000000e+00 
0.0000000e+00 0.0000000e+00 0.0000000e+00 
0.0000000e+00 0.0000000e+00 0.0000000e+00 
0.0000000e+00 0.0000000e+00 0.0000000e+00 
0.0000000e+00 0.0000000e+00 0.0000000e+00 
0.0000000e+00 0.0000000e+00 0.0000000e+00 
0.0000000e+00 0.0000000e+00 0.0000000e+00 
0.0000000e+00 0.0000000e+00 0.0000000e+00 
0.0000000e+00 0.0000000e+00 0.0000000e+00 
0.0000000e+00 0.0000000e+00 0.0000000e+00 
0.0000000e+00 0.0000000e+00 0.0000000e+00 
0.0000000e+00 0.0000000e+00 0.0000000e+00 
0.0000000e+00 0.0000000e+00 0.0000000e+00 
0.0000000e+00 0.0000000e+00 0.0000000e+00 
0.0000000e+00 0.0000000e+00 0.0000000e+00 
0.0000000e+00 0.0000000e+00 0.0000000e+00 
0.0000000e+00 0.0000000e+00 0.0000000e+00 
0.0000000e+00 0.0000000e+00 0.0000000e+00 
0.0000000e+00 0.0000000e+00 0.0000000e+00 
0.0000000e+00 0.0000000e+00 0.0000000e+00 
0.0000000e+00 0.0000000e+00 0.0000000e+00 
0.0000000e+00 0.0000000e+00 0.0000000e+00 
0.0000000e+00 0.0000000e+00 0.0000000e+00 
0.0000000e+00 0.0000000e+00 0.0000000e+00 
0.0000000e+00 0.0000000e+00 0.0000000e+00 
0.0000000e+00 0.0000000e+00 0.0000000e+00 
0.0000000e+00 0.0000000e+00 0.0000000e+00 
0.0000000e+00 0.0000000e+00 0.0000000e+00 
0.0000000e+00 0.0000000e+00 0.0000000e+00 
0.0000000e+00 0.0000000e+00 0.0000000e+00 
0.0000000e+00 0.0000000e+00 0.0000000e+00 
0.0000000e+00 0.0000000e+00 0.0000000e+00 
0.0000000e+00 0.0000000e+00 0.0000000e+00 
0.0000000e+00 0.0000000e+00 0.0000000e+00 
0.0000000e+00 0.0000000e+00 0.0000000e+00 
0.0000000e+00 0.0000000e+00 0.0000000e+00 
0.0000000e+00 0.0000000e+00 0.0000000e+00 
0.0000000e+00 0.0000000e+00 0.0000000e+00 
0.0000000e+00 0.0000000e+00 0.0000000e+00 
0.0000000e+00 0.0000000e+00 0.0000000e+00 
0.0000000e+00 0.0000000e+00 0.0000000e+00 
0.0000000e+00 0.0000000e+00 0.0000000e+00 
0.0000000e+00 0.0000000e+00 0.0000000e+00 
0.0000000e+00 0.0000000e+00 0.0000000e+00 
0.0000000e+00 0.0000000e+00 0.0000000e+00 
0.0000000e+00 0.0000000e+00 0.0000000e+00 
0.0000000e+00 0.0000000e+00 0.0000000e+00 
0.0000000e+00 0.0000000e+00 0.0000000e+00 
0.0000000e+00 0.0000000e+00 0.0000000e+00 
0.0000000e+00 0.0000000e+00 0.0000000e+00 
0.0000000e+00 0.0000000e+00 0.0000000e+00 
0.0000000e+00 0.0000000e+00 0.0000000e+00 
0.0000000e+00 0.0000000e+00 0.0000000e+00 
0.0000000e+00 0.0000000e+00 0.0000000e+00 
0.0000000e+00 0.0000000e+00 0.0000000e+00 
0.0000000e+00 0.0000000e+00 0.0000000e+00 
0.0000000e+00 0.0000000e+00 0.0000000e+00 
0.0000000e+00 0.0000000e+00 0.0000000e+00 
0.0000000e+00 0.0000000e+00 0.0000000e+00 
0.0000000e+00 0.0000000e+00 0.0000000e+00 
0.0000000e+00 0.0000000e+00 0.0000000e+00 
0.0000000e+00 0.0000000e+00 0.0000000e+00 
0.0000000e+00 0.0000000e+00 0.0000000e+00 
0.0000000e+00 0.0000000e+00 0.0000000e+00 
0.0000000e+00 0.0000000e+00 0.0000000e+00 
0.0000000e+00 0.0000000e+00 0.0000000e+00 
0.0000000e+00 0.0000000e+00 0.0000000e+00 
0.0000000e+00 0.0000000e+00 0.0000000e+00 
0.0000000e+00 0.0000000e+00 0.0000000e+00 
0.0000000e+00 0.0000000e+00 0.0000000e+00 
0.0000000e+00 0.0000000e+00 0.0000000e+00 
0.0000000e+00 0.0000000e+00 0.0000000e+00 
0.0000000e+00 0.0000000e+00 0.0000000e+00 
0.0000000e+00 0.0000000e+00 0.0000000e+00 
0.0000000e+00 0.0000000e+00 0.0000000e+00 
-7.0888327e-06 6.3025909e-06 8.5558750e-06 
-2.3119571e-06 1.1734878e-05 6.0681273e-06 
4.3366699e-06 1.3086820e-05 1.8061507e-06 
8.9515479e-06 1.3184348e-05 -3.2524731e-06 
1.6502972e-05 1.1599948e-05 -6.6993962e-06 
2.2983450e-05 1.1072415e-05 -9.0453132e-06 
2.7658958e-05 1.0149658e-05 -1.1029721e-05 
3.2144948e-05 1.1022978e-05 -1.1007950e-05 
3.7170066e-05 1.1292731e-05 -1.0144266e-05 
3.7671398e-05 4.5599259e-06 -1.3464205e-05 
3.6858004e-05 -2.5157954e-06 -1.5915495e-05 
3.7860049e-05 -8.5844194e-06 -1.5017032e-05 
3.2890101e-05 -1.4221588e-05 -1.2297613e-05 
2.0168405e-05 -1.1580706e-05 -3.2887224e-06 
1.1830319e-05 -5.6309063e-06 3.2094642e-06 
1.0118693e-05 -1.0774902e-06 1.1842673e-05 
6.7052420e-06 -2.3726589e-06 2.1611868e-05 
2.7595795e-06 -4.0679474e-06 2.4872730e-05 
-1.6402289e-06 -3.2656612e-06 2.0030242e-05 
-4.8352676e-06 1.6095853e-06 1.4248929e-05 
-5.4934476e-06 5.5204050e-06 9.6103568e-06 
9.5723306e-07 1.5230887e-05 1.7289084e-06 
6.3246039e-06 1.6084527e-05 -5.5022492e-06 
1.3447637e-05 1.3315170e-05 -7.5482490e-06 
1.7620194e-05 1.4080492e-05 -7.5377616e-06 
2.6951358e-05 1.3220216e-05 -7.1112777e-06 
3.2676104e-05 1.1471114e-05 -9.1331740e-06 
3.7392925e-05 1.1607381e-05 -1.2153095e-05 
4.4586817e-05 5.9834124e-06 -1.3777739e-05 
4.1318970e-05 1.2460895e-06 -1.3357686e-05 
3.6225862e-05 -2.6813029e-06 -1.1591135e-05 
3.0620518e-05 -1.2116757e-05 -1.0046209e-05 
2.2356606e-05 -8.5445081e-06 -2.7481667e-06 
1.6588796e-05 -4.7121111e-06 6.2981499e-06 
1.2488557e-05 -3.9862493e-06 1.2720730e-05 
9.9933322e-06 -6.3856628e-06 1.7676755e-05 
7.6863444e-06 -2.1479855e-06 2.0379406e-05 
5.7306556e-06 -1.2886037e-06 1.8184433e-05 
4.6168966e-06 -3.7251837e-06 1.2337073e-05 
3.3120525e-06 -4.6064083e-06 5.0426997e-06 
7.0652442e-07 -1.5709392e-07 4.8744221e-07 
-7.0280038e-07 3.1725026e-06 -3.1298778e-06 
-8.4230476e-07 1.6773840e-06 -4.8835323e-06 
-9.3212424e-07 -6.2723257e-07 -2.8418899e-06 
-3.2687547e-07 -9.8975256e-08 -4.5705320e-07 
4.5322301e-07 7.0999157e-08 7.2278567e-07 
2.6083652e-07 -9.6189559e-08 1.0499709e-06 
-3.6963712e-08 -2.6967078e-07 3.2834802e-07 
8.8837403e-08 4.6069200e-08 9.1021626e-09 
0.0000000e+00 1.8525196e-05 0.0000000e+00 
0.0000000e+00 2.3881774e-05 0.0000000e+00 
0.0000000e+00 1.1361551e-05 0.0000000e+00 
0.0000000e+00 -3.6364272e-06 0.0000000e+00 
0.0000000e+00 -9.5022751e-06 0.0000000e+00 
0.0000000e+00 -1.4125041e-05 0.0000000e+00 
0.0000000e+00 -3.5608507e-05 0.0000000e+00 
0.0000000e+00 -1.0584328e-04 0.0000000e+00 
0.0000000e+00 -2.2835708e-04 0.0000000e+00 
0.0000000e+00 -3.8465389e-04 0.0000000e+00 
0.0000000e+00 -4.7411464e-04 0.0000000e+00 
0.0000000e+00 -4.8855168e-04 0.0000000e+00 
0.0000000e+00 -4.4801782e-04 0.0000000e+00 
0.0000000e+00 -3.0986429e-04 0.0000000e+00 
0.0000000e+00 -1.6540740e-04 0.0000000e+00 
0.0000000e+00 -5.7951325e-05 0.0000000e+00 
0.0000000e+00 4.2474289e-06 0.0000000e+00 
0.0000000e+00 1.7507520e-05 0.0000000e+00 
0.0000000e+00 1.1085501e-05 0.0000000e+00 
0.0000000e+00 1.2072416e-05 0.0000000e+00 
0.0000000e+00 1.0980574e-05 0.0000000e+00 
0.0000000e+00 -6.1950586e-06 0.0000000e+00 
0.0000000e+00 -1.6252417e-05 0.0000000e+00 
0.0000000e+00 -3.1597356e-05 0.0000000e+00 
0.0000000e+00 -5.0912313e-05 0.0000000e+00 
0.0000000e+00 -7.0045222e-05 0.0000000e+00 
0.0000000e+00 -8.3576473e-05 0.0000000e+00 
0.0000000e+00 -1.3234165e-04 0.0000000e+00 
0.0000000e+00 -2.3953394e-04 0.0000000e+00 
0.0000000e+00 -3.8922328e-04 0.0000000e+00 
0.0000000e+00 -4.8178463e-04 0.0000000e+00 
0.0000000e+00 -5.0288858e-04 0.0000000e+00 
0.0000000e+00 -4.5068265e-04 0.0000000e+00 
0.0000000e+00 -3.0126228e-04 0.0000000e+00 
0.0000000e+00 -1.3996831e-04 0.0000000e+00 
0.0000000e+00 -1.7202115e-05 0.0000000e+00 
0.0000000e+00 9.4878969e-06 0.0000000e+00 
0.0000000e+00 1.5881724e-05 0.0000000e+00 
0.0000000e+00 2.3219709e-06 0.0000000e+00 
0.0000000e+00 3.7835759e-06 0.0000000e+00 
0.0000000e+00 5.2553064e-06 0.0000000e+00 
0.0000000e+00 -2.4366259e-06 0.0000000e+00 
0.0000000e+00 -3.1412267e-06 0.0000000e+00 
0.0000000e+00 3.9735195e-07 0.0000000e+00 
0.0000000e+00 1.4102430e-06 0.0000000e+00 
0.0000000e+00 1.6256466e-07 0.0000000e+00 
0.0000000e+00 -6.8361317e-07 0.0000000e+00 
0.0000000e+00 -7.9520839e-07 0.0000000e+00 
0.0000000e+00 -2.4799547e-07 0.0000000e+00 
-8.8146853e-06 3.7108634e-06 9.3062781e-06 
-3.9924134e-06 8.1772696e-06 1.2993446e-05 
1.0637093e-06 3.9544680e-06 1.3618856e-05 
3.1337977e-06 3.0093204e-07 4.8493307e-06 
6.2088432e-08 -1.3468392e-07 -1.2674811e-08 
1.6538702e-07 -1.8881966e-07 -4.0599818e-07 
-1.6826256e-07 1.3314215e-07 -4.8187951e-07 
-6.7715162e-09 6.1317209e-09 -4.5354395e-07 
-7.0361193e-06 4.2018623e-06 8.6344414e-07 
-2.2228288e-07 -7.7297429e-08 -3.8562229e-07 
4.8129841e-06 -1.5894755e-05 3.3442877e-06 
-4.6455423e-07 4.2718480e-06 2.4389368e-05 
0.0000000e+00 1.3041948e-05 0.0000000e+00 
0.0000000e+00 1.2169779e-05 0.0000000e+00 
0.0000000e+00 1.9946103e-06 0.0000000e+00 
0.0000000e+00 -1.2075621e-05 0.0000000e+00 
0.0000000e+00 -2.1055825e-05 0.0000000e+00 
0.0000000e+00 -3.2448195e-05 0.0000000e+00 
0.0000000e+00 -7.0236434e-05 0.0000000e+00 
0.0000000e+00 -2.1537776e-04 0.0000000e+00 
0.0000000e+00 -4.9073662e-04 0.0000000e+00 
0.0000000e+00 -8.5245812e-04 0.0000000e+00 
0.0000000e+00 -1.1025016e-03 0.0000000e+00 
0.0000000e+00 -1.0745892e-03 0.0000000e+00 
0.0000000e+00 -9.4762660e-04 0.0000000e+00 