# vtk DataFile Version 4.0
vtk output
ASCII
DATASET UNSTRUCTURED_GRID
POINTS 1919 float
0.0000000e+00 0.0000000e+00 0.0000000e+00 
0.0000000e+00 0.0000000e+00 5.0000000e+01 
5.0000000e+00 0.0000000e+00 0.0000000e+00 
5.0000000e+00 0.0000000e+00 5.0000000e+01 
5.0000000e+00 1.0000000e+00 0.0000000e+00 
5.0000000e+00 1.0000000e+00 5.0000000e+01 
0.0000000e+00 1.0000000e+00 0.0000000e+00 
0.0000000e+00 1.0000000e+00 5.0000000e+01 
5.0000000e+00 2.0000000e+00 0.0000000e+00 
5.0000000e+00 2.0000000e+00 5.0000000e+01 
3.0000000e+00 2.0000000e+00 0.0000000e+00 
3.0000000e+00 2.0000000e+00 5.0000000e+01 
0.0000000e+00 2.0000000e+00 0.0000000e+00 
0.0000000e+00 2.0000000e+00 5.0000000e+01 
1.5000000e+00 3.0000000e+00 0.0000000e+00 
1.5000000e+00 3.0000000e+00 5.0000000e+01 
7.5000000e-01 3.0000000e+00 0.0000000e+00 
7.5000000e-01 3.0000000e+00 5.0000000e+01 
0.0000000e+00 3.0000000e+00 0.0000000e+00 
0.0000000e+00 3.0000000e+00 5.0000000e+01 
7.5000000e-01 3.0000000e+00 5.0000000e-01 
7.5000000e-01 3.0000000e+00 1.0000000e+00 
7.5000000e-01 3.0000000e+00 1.5000000e+00 
7.5000000e-01 3.0000000e+00 2.0000000e+00 
7.5000000e-01 3.0000000e+00 2.5000000e+00 
7.5000000e-01 3.0000000e+00 3.0000000e+00 
7.5000000e-01 3.0000000e+00 3.5000000e+00 
7.5000000e-01 3.0000000e+00 4.0000000e+00 
7.5000000e-01 3.0000000e+00 4.5000000e+00 
7.5000000e-01 3.0000000e+00 5.0000000e+00 
7.5000000e-01 3.0000000e+00 5.5000000e+00 
7.5000000e-01 3.0000000e+00 6.0000000e+00 
7.5000000e-01 3.0000000e+00 6.5000000e+00 
7.5000000e-01 3.0000000e+00 7.0000000e+00 
7.5000000e-01 3.0000000e+00 7.5000000e+00 
7.5000000e-01 3.0000000e+00 8.0000000e+00 
7.5000000e-01 3.0000000e+00 8.5000000e+00 
7.5000000e-01 3.0000000e+00 9.0000000e+00 
7.5000000e-01 3.0000000e+00 9.5000000e+00 
7.5000000e-01 3.0000000e+00 1.0000000e+01 
7.5000000e-01 3.0000000e+00 1.0500000e+01 
7.5000000e-01 3.0000000e+00 1.1000000e+01 
7.5000000e-01 3.0000000e+00 1.1500000e+01 
7.5000000e-01 3.0000000e+00 1.2000000e+01 
7.5000000e-01 3.0000000e+00 1.2500000e+01 
7.5000000e-01 3.0000000e+00 1.3000000e+01 
7.5000000e-01 3.0000000e+00 1.3500000e+01 
7.5000000e-01 3.0000000e+00 1.4000000e+01 
7.5000000e-01 3.0000000e+00 1.4500000e+01 
7.5000000e-01 3.0000000e+00 1.5000000e+01 
7.5000000e-01 3.0000000e+00 1.5500000e+01 
7.5000000e-01 3.0000000e+00 1.6000000e+01 
7.5000000e-01 3.0000000e+00 1.6500000e+01 
7.5000000e-01 3.0000000e+00 1.7000000e+01 
7.5000000e-01 3.0000000e+00 1.7500000e+01 
7.5000000e-01 3.0000000e+00 1.8000000e+01 
7.5000000e-01 3.0000000e+00 1.8500000e+01 
7.5000000e-01 3.0000000e+00 1.9000000e+01 
7.5000000e-01 3.0000000e+00 1.9500000e+01 
7.5000000e-01 3.0000000e+00 2.0000000e+01 
7.5000000e-01 3.0000000e+00 2.0500000e+01 
7.5000000e-01 3.0000000e+00 2.1000000e+01 
7.5000000e-01 3.0000000e+00 2.1500000e+01 
7.5000000e-01 3.0000000e+00 2.2000000e+01 
7.5000000e-01 3.0000000e+00 2.2500000e+01 
7.5000000e-01 3.0000000e+00 2.3000000e+01 
7.5000000e-01 3.0000000e+00 2.3500000e+01 
7.5000000e-01 3.0000000e+00 2.4000000e+01 
7.5000000e-01 3.0000000e+00 2.4500000e+01 
7.5000000e-01 3.0000000e+00 2.5000000e+01 
7.5000000e-01 3.0000000e+00 2.5500000e+01 
7.5000000e-01 3.0000000e+00 2.6000000e+01 
7.5000000e-01 3.0000000e+00 2.6500000e+01 
7.5000000e-01 3.0000000e+00 2.7000000e+01 
7.5000000e-01 3.0000000e+00 2.7500000e+01 
7.5000000e-01 3.0000000e+00 2.8000000e+01 
7.5000000e-01 3.0000000e+00 2.8500000e+01 
7.5000000e-01 3.0000000e+00 2.9000000e+01 
7.5000000e-01 3.0000000e+00 2.9500000e+01 
7.5000000e-01 3.0000000e+00 3.0000000e+01 
7.5000000e-01 3.0000000e+00 3.0500000e+01 
7.5000000e-01 3.0000000e+00 3.1000000e+01 
7.5000000e-01 3.0000000e+00 3.1500000e+01 
7.5000000e-01 3.0000000e+00 3.2000000e+01 
7.5000000e-01 3.0000000e+00 3.2500000e+01 
7.5000000e-01 3.0000000e+00 3.3000000e+01 
7.5000000e-01 3.0000000e+00 3.3500000e+01 
7.5000000e-01 3.0000000e+00 3.4000000e+01 
7.5000000e-01 3.0000000e+00 3.4500000e+01 
7.5000000e-01 3.0000000e+00 3.5000000e+01 
7.5000000e-01 3.0000000e+00 3.5500000e+01 
7.5000000e-01 3.0000000e+00 3.6000000e+01 
7.5000000e-01 3.0000000e+00 3.6500000e+01 
7.5000000e-01 3.0000000e+00 3.7000000e+01 
7.5000000e-01 3.0000000e+00 3.7500000e+01 
7.5000000e-01 3.0000000e+00 3.8000000e+01 
7.5000000e-01 3.0000000e+00 3.8500000e+01 
7.5000000e-01 3.0000000e+00 3.9000000e+01 
7.5000000e-01 3.0000000e+00 3.9500000e+01 
7.5000000e-01 3.0000000e+00 4.0000000e+01 
7.5000000e-01 3.0000000e+00 4.0500000e+01 
7.5000000e-01 3.0000000e+00 4.1000000e+01 
7.5000000e-01 3.0000000e+00 4.1500000e+01 
7.5000000e-01 3.0000000e+00 4.2000000e+01 
7.5000000e-01 3.0000000e+00 4.2500000e+01 
7.5000000e-01 3.0000000e+00 4.3000000e+01 
7.5000000e-01 3.0000000e+00 4.3500000e+01 
7.5000000e-01 3.0000000e+00 4.4000000e+01 
7.5000000e-01 3.0000000e+00 4.4500000e+01 
7.5000000e-01 3.0000000e+00 4.5000000e+01 
7.5000000e-01 3.0000000e+00 4.5500000e+01 
7.5000000e-01 3.0000000e+00 4.6000000e+01 
7.5000000e-01 3.0000000e+00 4.6500000e+01 
7.5000000e-01 3.0000000e+00 4.7000000e+01 
7.5000000e-01 3.0000000e+00 4.7500000e+01 
7.5000000e-01 3.0000000e+00 4.8000000e+01 
7.5000000e-01 3.0000000e+00 4.8500000e+01 
7.5000000e-01 3.0000000e+00 4.9000000e+01 
7.5000000e-01 3.0000000e+00 4.9500000e+01 
7.5000000e-01 3.0250001e+00 0.0000000e+00 
7.5000000e-01 3.0250001e+00 5.0000000e-01 
7.5000000e-01 3.0250001e+00 1.0000000e+00 
7.5000000e-01 3.0250001e+00 1.5000000e+00 
7.5000000e-01 3.0250001e+00 2.0000000e+00 
7.5000000e-01 3.0250001e+00 2.5000000e+00 
7.5000000e-01 3.0250001e+00 3.0000000e+00 
7.5000000e-01 3.0250001e+00 3.5000000e+00 
7.5000000e-01 3.0250001e+00 4.0000000e+00 
7.5000000e-01 3.0250001e+00 4.5000000e+00 
7.5000000e-01 3.0250001e+00 5.0000000e+00 
7.5000000e-01 3.0250001e+00 5.5000000e+00 
7.5000000e-01 3.0250001e+00 6.0000000e+00 
7.5000000e-01 3.0250001e+00 6.5000000e+00 
7.5000000e-01 3.0250001e+00 7.0000000e+00 
7.5000000e-01 3.0250001e+00 7.5000000e+00 
7.5000000e-01 3.0250001e+00 8.0000000e+00 
7.5000000e-01 3.0250001e+00 8.5000000e+00 
7.5000000e-01 3.0250001e+00 9.0000000e+00 
7.5000000e-01 3.0250001e+00 9.5000000e+00 
7.5000000e-01 3.0250001e+00 1.0000000e+01 
7.5000000e-01 3.0250001e+00 1.0500000e+01 
7.5000000e-01 3.0250001e+00 1.1000000e+01 
7.5000000e-01 3.0250001e+00 1.1500000e+01 
7.5000000e-01 3.0250001e+00 1.2000000e+01 
7.5000000e-01 3.0250001e+00 1.2500000e+01 
7.5000000e-01 3.0250001e+00 1.3000000e+01 
7.5000000e-01 3.0250001e+00 1.3500000e+01 
7.5000000e-01 3.0250001e+00 1.4000000e+01 
7.5000000e-01 3.0250001e+00 1.4500000e+01 
7.5000000e-01 3.0250001e+00 1.5000000e+01 
7.5000000e-01 3.0250001e+00 1.5500000e+01 
7.5000000e-01 3.0250001e+00 1.6000000e+01 
7.5000000e-01 3.0250001e+00 1.6500000e+01 
7.5000000e-01 3.0250001e+00 1.7000000e+01 
7.5000000e-01 3.0250001e+00 1.7500000e+01 
7.5000000e-01 3.0250001e+00 1.8000000e+01 
7.5000000e-01 3.0250001e+00 1.8500000e+01 
7.5000000e-01 3.0250001e+00 1.9000000e+01 
7.5000000e-01 3.0250001e+00 1.9500000e+01 
7.5000000e-01 3.0250001e+00 2.0000000e+01 
7.5000000e-01 3.0250001e+00 2.0500000e+01 
7.5000000e-01 3.0250001e+00 2.1000000e+01 
7.5000000e-01 3.0250001e+00 2.1500000e+01 
7.5000000e-01 3.0250001e+00 2.2000000e+01 
7.5000000e-01 3.0250001e+00 2.2500000e+01 
7.5000000e-01 3.0250001e+00 2.3000000e+01 
7.5000000e-01 3.0250001e+00 2.3500000e+01 
7.5000000e-01 3.0250001e+00 2.4000000e+01 
7.5000000e-01 3.0250001e+00 2.4500000e+01 
7.5000000e-01 3.0250001e+00 2.5000000e+01 
7.5000000e-01 3.0250001e+00 2.5500000e+01 
7.5000000e-01 3.0250001e+00 2.6000000e+01 
7.5000000e-01 3.0250001e+00 2.6500000e+01 
7.5000000e-01 3.0250001e+00 2.7000000e+01 
7.5000000e-01 3.0250001e+00 2.7500000e+01 
7.5000000e-01 3.0250001e+00 2.8000000e+01 
7.5000000e-01 3.0250001e+00 2.8500000e+01 
7.5000000e-01 3.0250001e+00 2.9000000e+01 
7.5000000e-01 3.0250001e+00 2.9500000e+01 
7.5000000e-01 3.0250001e+00 3.0000000e+01 
7.5000000e-01 3.0250001e+00 3.0500000e+01 
7.5000000e-01 3.0250001e+00 3.1000000e+01 
7.5000000e-01 3.0250001e+00 3.1500000e+01 
7.5000000e-01 3.0250001e+00 3.2000000e+01 
7.5000000e-01 3.0250001e+00 3.2500000e+01 
7.5000000e-01 3.0250001e+00 3.3000000e+01 
7.5000000e-01 3.0250001e+00 3.3500000e+01 
7.5000000e-01 3.0250001e+00 3.4000000e+01 
7.5000000e-01 3.0250001e+00 3.4500000e+01 
7.5000000e-01 3.0250001e+00 3.5000000e+01 
7.5000000e-01 3.0250001e+00 3.5500000e+01 
7.5000000e-01 3.0250001e+00 3.6000000e+01 
7.5000000e-01 3.0250001e+00 3.6500000e+01 
7.5000000e-01 3.0250001e+00 3.7000000e+01 
7.5000000e-01 3.0250001e+00 3.7500000e+01 
7.5000000e-01 3.0250001e+00 3.8000000e+01 
7.5000000e-01 3.0250001e+00 3.8500000e+01 
7.5000000e-01 3.0250001e+00 3.9000000e+01 
7.5000000e-01 3.0250001e+00 3.9500000e+01 
7.5000000e-01 3.0250001e+00 4.0000000e+01 
7.5000000e-01 3.0250001e+00 4.0500000e+01 
7.5000000e-01 3.0250001e+00 4.1000000e+01 
7.5000000e-01 3.0250001e+00 4.1500000e+01 
7.5000000e-01 3.0250001e+00 4.2000000e+01 
7.5000000e-01 3.0250001e+00 4.2500000e+01 
7.5000000e-01 3.0250001e+00 4.3000000e+01 
7.5000000e-01 3.0250001e+00 4.3500000e+01 
7.5000000e-01 3.0250001e+00 4.4000000e+01 
7.5000000e-01 3.0250001e+00 4.4500000e+01 
7.5000000e-01 3.0250001e+00 4.5000000e+01 
7.5000000e-01 3.0250001e+00 4.5500000e+01 
7.5000000e-01 3.0250001e+00 4.6000000e+01 
7.5000000e-01 3.0250001e+00 4.6500000e+01 
7.5000000e-01 3.0250001e+00 4.7000000e+01 
7.5000000e-01 3.0250001e+00 4.7500000e+01 
7.5000000e-01 3.0250001e+00 4.8000000e+01 
7.5000000e-01 3.0250001e+00 4.8500000e+01 
7.5000000e-01 3.0250001e+00 4.9000000e+01 
7.5000000e-01 3.0250001e+00 4.9500000e+01 
7.5000000e-01 3.0250001e+00 5.0000000e+01 
3.0000000e+00 2.0000000e+00 3.6000000e+01 
8.0487806e-01 3.0000000e+00 3.6000000e+01 
0.0000000e+00 0.0000000e+00 1.0000000e+00 
0.0000000e+00 0.0000000e+00 2.0000000e+00 
0.0000000e+00 0.0000000e+00 3.0000000e+00 
0.0000000e+00 0.0000000e+00 4.0000000e+00 
0.0000000e+00 0.0000000e+00 5.0000000e+00 
0.0000000e+00 0.0000000e+00 6.0000000e+00 
0.0000000e+00 0.0000000e+00 7.0000000e+00 
0.0000000e+00 0.0000000e+00 8.0000000e+00 
[...]
POINT_DATA 1919
FIELD FieldData 3
DISPLACEMENT 3 1919  float
0.0000000e+00 0.0000000e+00 0.0000000e+00 
0.0000000e+00 0.0000000e+00 0.0000000e+00 
0.0000000e+00 0.0000000e+00 0.0000000e+00 
0.0000000e+00 0.0000000e+00 0.0000000e+00 
-1.3648391e-06 -3.1721386e-06 -1.4826797e-06 
2.3295534e-07 -3.8439882e-07 7.0148536e-07 
0.0000000e+00 2.9304481e-05 0.0000000e+00 
0.0000000e+00 4.6530397e-07 0.0000000e+00 
1.5306085e-06 -3.4880386e-06 -4.6580690e-06 
4.3012832e-07 -1.2383803e-07 1.0922378e-06 
2.0517036e-06 -4.9650653e-06 -5.6980130e-06 
1.6600282e-07 -6.8199432e-07 2.3722107e-06 
0.0000000e+00 3.8368242e-05 0.0000000e+00 
0.0000000e+00 1.2243238e-06 0.0000000e+00 
2.9265686e-05 1.0497298e-05 -5.8564023e-05 
-1.0129193e-06 2.9149166e-07 2.9502103e-06 
1.9321451e-05 9.4085277e-05 -5.2997126e-05 
3.1781560e-06 1.4283085e-05 -1.1730576e-06 
0.0000000e+00 6.1075712e-05 0.0000000e+00 
0.0000000e+00 1.9698389e-06 0.0000000e+00 
2.8265311e-05 9.4729578e-05 -1.5914477e-05 
3.7981255e-05 9.7477132e-05 5.5754123e-07 
3.6708003e-05 1.0614500e-04 2.8817242e-06 
3.0717682e-05 1.2445843e-04 1.6845109e-07 
2.3956041e-05 1.5076285e-04 -4.7416415e-06 
3.2829241e-05 1.7663771e-04 -2.4103949e-06 
4.0210762e-05 1.9096900e-04 1.4219326e-05 
3.4304925e-05 1.8639938e-04 1.5558335e-05 
3.2273125e-05 1.7114960e-04 1.3104435e-05 
3.9638151e-05 1.6426189e-04 -2.6640998e-06 
3.5547368e-05 1.8447512e-04 -5.8226815e-06 
3.6285845e-05 2.4328195e-04 4.6311779e-06 
6.4880500e-05 3.2183641e-04 3.3345503e-05 
6.4029613e-05 3.7582003e-04 4.7096080e-05 
6.2268569e-05 3.7410369e-04 7.2221992e-05 
6.0721264e-05 2.9560921e-04 9.8476179e-05 
3.5234883e-05 1.2212750e-04 1.5255460e-04 
-3.8391672e-06 -1.7841338e-04 1.7852269e-04 
-5.3216936e-05 -6.9480477e-04 3.2148411e-04 
-1.1683846e-04 -1.5243039e-03 2.5563320e-04 
-1.8225674e-04 -2.7011833e-03 3.7515696e-04 
-3.0447979e-04 -4.0427442e-03 1.7742891e-04 
-3.5966406e-04 -5.0654369e-03 1.6392581e-04 
-3.7790858e-04 -5.1441942e-03 2.0945543e-05 
-3.2644742e-04 -4.8550307e-03 -8.0681057e-05 
-2.6484393e-04 -4.6912427e-03 -9.2661809e-05 
-2.6110120e-04 -4.8046135e-03 -7.1115028e-05 
-2.7734064e-04 -4.7387742e-03 -1.3683071e-04 
-2.5159374e-04 -3.9273007e-03 -2.8272209e-04 
-1.8626520e-04 -2.7332399e-03 -2.3679483e-04 
-1.1859200e-04 -1.6139657e-03 -3.2482360e-04 
-6.8101544e-05 -7.5413607e-04 -1.9890309e-04 
-2.7373206e-05 -2.0486723e-04 -1.8464016e-04 
-1.6756901e-05 8.4677973e-05 -9.6450603e-05 
2.0164522e-05 1.9715352e-04 -6.8172121e-05 
3.0103243e-05 2.0848293e-04 -4.9696140e-05 
2.1230686e-05 1.7222149e-04 -2.8393719e-05 
3.1997857e-05 1.1668018e-04 -3.4807752e-05 
4.1033320e-05 6.3087711e-05 -3.2867025e-05 
6.3138774e-05 2.8482289e-05 -1.4734901e-05 
5.5127173e-05 2.0164347e-05 2.3704390e-05 
4.3783370e-05 2.9171131e-05 3.7196143e-05 
2.1258615e-05 4.4772714e-05 1.1421889e-05 
3.2794462e-05 6.5156630e-05 -1.9620535e-05 
9.7566672e-06 9.9626071e-05 -6.1577579e-05 
1.9156643e-05 1.5596718e-04 -7.9314843e-05 
3.0080888e-05 2.2244490e-04 -7.9260324e-05 
3.4618861e-05 2.7400075e-04 -5.4007221e-05 
4.7541129e-05 2.9354083e-04 -4.4303681e-05 
6.0902956e-05 2.8221728e-04 -2.5640393e-05 
5.9442704e-05 2.6614495e-04 -3.7199683e-05 
6.0594932e-05 2.8617901e-04 -1.8724413e-05 
5.5120676e-05 3.5503574e-04 1.6311158e-05 
5.3264270e-05 4.3981586e-04 5.1280829e-05 
5.7207832e-05 4.7264766e-04 1.0561757e-04 
5.2278716e-05 3.8383965e-04 1.4903392e-04 
2.5256266e-05 1.4290979e-04 2.1484084e-04 
-9.9266836e-06 -2.6572484e-04 2.3503973e-04 
-3.9817874e-05 -8.8298740e-04 3.5040322e-04 
-1.1310280e-04 -1.7516144e-03 2.7206793e-04 
-1.5968025e-04 -2.8992519e-03 4.1210634e-04 
-2.6828467e-04 -4.1505769e-03 2.1695688e-04 
-3.1971946e-04 -5.0686547e-03 2.0072267e-04 
-3.4574303e-04 -5.0971489e-03 1.0609811e-04 
-3.5013523e-04 -4.8354119e-03 1.9475563e-05 
-3.5885576e-04 -4.7148927e-03 -5.1068604e-05 
-3.4937850e-04 -4.8342454e-03 -9.5874049e-05 
-3.3342818e-04 -4.7115078e-03 -1.5529340e-04 
-3.0836248e-04 -3.8389941e-03 -3.2686171e-04 
-3.2495886e-05 -2.6135840e-03 -4.6504071e-04 
-1.0500880e-04 -1.4687332e-03 -3.4727101e-04 
-6.5812608e-05 -6.3077174e-04 -2.7122948e-04 
-2.3324510e-05 -1.2123853e-04 -2.7962451e-04 
1.3215866e-05 1.3296073e-04 -1.8080279e-04 
4.2119398e-05 2.2160061e-04 -1.0410540e-04 
4.4026656e-05 2.1071383e-04 -2.7203063e-05 
3.7631689e-05 1.4442370e-04 2.2771008e-05 
2.0386997e-05 6.0009806e-05 3.3454762e-05 
3.2983328e-06 -1.0689042e-05 5.0836850e-05 
1.1460196e-06 -5.3076557e-05 5.5764707e-05 
4.4142752e-07 -6.7244990e-05 6.3297281e-05 
6.0894075e-07 -6.1874278e-05 5.8954298e-05 
-9.8444189e-06 -4.3950593e-05 3.7021833e-05 
-1.5476708e-05 -1.8536806e-05 1.3405356e-05 
-1.0778070e-05 1.0139264e-05 -1.8336148e-05 
-4.1374947e-06 3.4137091e-05 -3.1898817e-05 
1.0323249e-06 4.5963570e-05 -3.0195051e-05 
4.0165494e-07 4.3497006e-05 -1.3239960e-05 
5.1260458e-06 3.0363080e-05 8.0204818e-06 
2.9347016e-06 1.2956362e-05 1.1266434e-05 
2.9760324e-06 -3.0614397e-06 1.1222897e-05 
1.6188145e-06 -1.4839885e-05 4.5703723e-06 
6.9603823e-07 -2.1045560e-05 8.5738229e-08 
-2.1195673e-07 -2.1606289e-05 -2.9744708e-06 
-1.0644229e-06 -1.6769724e-05 -3.2681328e-06 
-1.1862866e-06 -8.3085615e-06 -7.8296910e-07 
-3.5823728e-06 9.7257669e-07 -1.9887544e-07 
-3.2280507e-06 8.4463745e-06 1.8778722e-07 
-1.7326140e-06 1.2869851e-05 -4.7037383e-07 
0.0000000e+00 9.4425057e-05 0.0000000e+00 
0.0000000e+00 9.4788375e-05 0.0000000e+00 
0.0000000e+00 9.7260279e-05 0.0000000e+00 
0.0000000e+00 1.0599566e-04 0.0000000e+00 
0.0000000e+00 1.2454248e-04 0.0000000e+00 
0.0000000e+00 1.5114274e-04 0.0000000e+00 
0.0000000e+00 1.7701616e-04 0.0000000e+00 
0.0000000e+00 1.9061346e-04 0.0000000e+00 
0.0000000e+00 1.8587626e-04 0.0000000e+00 
0.0000000e+00 1.7072674e-04 0.0000000e+00 
0.0000000e+00 1.6406713e-04 0.0000000e+00 
0.0000000e+00 1.8595091e-04 0.0000000e+00 
0.0000000e+00 2.4516162e-04 0.0000000e+00 
0.0000000e+00 3.2206881e-04 0.0000000e+00 
0.0000000e+00 3.7570458e-04 0.0000000e+00 
0.0000000e+00 3.7343064e-04 0.0000000e+00 
0.0000000e+00 2.9563985e-04 0.0000000e+00 
0.0000000e+00 1.2473619e-04 0.0000000e+00 
0.0000000e+00 -1.7754726e-04 0.0000000e+00 
0.0000000e+00 -6.9717789e-04 0.0000000e+00 
0.0000000e+00 -1.5343336e-03 0.0000000e+00 
0.0000000e+00 -2.7173930e-03 0.0000000e+00 
0.0000000e+00 -4.0709646e-03 0.0000000e+00 
0.0000000e+00 -5.0850152e-03 0.0000000e+00 
0.0000000e+00 -5.1707444e-03 0.0000000e+00 
0.0000000e+00 -4.8736101e-03 0.0000000e+00 
0.0000000e+00 -4.7218422e-03 0.0000000e+00 
0.0000000e+00 -4.8305946e-03 0.0000000e+00 
0.0000000e+00 -4.7677243e-03 0.0000000e+00 
0.0000000e+00 -3.9445544e-03 0.0000000e+00 
0.0000000e+00 -2.7480279e-03 0.0000000e+00 
0.0000000e+00 -1.6212390e-03 0.0000000e+00 
0.0000000e+00 -7.5900712e-04 0.0000000e+00 
0.0000000e+00 -2.0586140e-04 0.0000000e+00 
0.0000000e+00 8.5772830e-05 0.0000000e+00 
0.0000000e+00 1.9860158e-04 0.0000000e+00 
0.0000000e+00 2.0964831e-04 0.0000000e+00 
0.0000000e+00 1.7240390e-04 0.0000000e+00 
0.0000000e+00 1.1689134e-04 0.0000000e+00 
0.0000000e+00 6.3749387e-05 0.0000000e+00 
0.0000000e+00 2.9473862e-05 0.0000000e+00 
0.0000000e+00 2.0506919e-05 0.0000000e+00 
0.0000000e+00 2.8907376e-05 0.0000000e+00 
0.0000000e+00 4.4180524e-05 0.0000000e+00 
0.0000000e+00 6.5110245e-05 0.0000000e+00 
0.0000000e+00 1.0056603e-04 0.0000000e+00 
0.0000000e+00 1.5679131e-04 0.0000000e+00 
0.0000000e+00 2.2242167e-04 0.0000000e+00 
0.0000000e+00 2.7344504e-04 0.0000000e+00 
0.0000000e+00 2.9242609e-04 0.0000000e+00 
0.0000000e+00 2.8137086e-04 0.0000000e+00 
0.0000000e+00 2.6714758e-04 0.0000000e+00 
0.0000000e+00 2.8821113e-04 0.0000000e+00 
0.0000000e+00 3.5730007e-04 0.0000000e+00 
0.0000000e+00 4.4078915e-04 0.0000000e+00 
0.0000000e+00 4.7120033e-04 0.0000000e+00 
0.0000000e+00 3.8288973e-04 0.0000000e+00 
0.0000000e+00 1.4329037e-04 0.0000000e+00 
0.0000000e+00 -2.6605118e-04 0.0000000e+00 
0.0000000e+00 -8.8366197e-04 0.0000000e+00 
0.0000000e+00 -1.7611748e-03 0.0000000e+00 
0.0000000e+00 -2.9135251e-03 0.0000000e+00 
0.0000000e+00 -4.1789790e-03 0.0000000e+00 
0.0000000e+00 -5.0906911e-03 0.0000000e+00 
0.0000000e+00 -5.1264004e-03 0.0000000e+00 
0.0000000e+00 -4.8534465e-03 0.0000000e+00 
0.0000000e+00 -4.7440259e-03 0.0000000e+00 
0.0000000e+00 -4.8570279e-03 0.0000000e+00 
0.0000000e+00 -4.7417711e-03 0.0000000e+00 
0.0000000e+00 -3.8572012e-03 0.0000000e+00 
0.0000000e+00 -2.6242491e-03 0.0000000e+00 
0.0000000e+00 -1.4787361e-03 0.0000000e+00 
0.0000000e+00 -6.3474034e-04 0.0000000e+00 
0.0000000e+00 -1.2128914e-04 0.0000000e+00 
0.0000000e+00 1.3420745e-04 0.0000000e+00 
0.0000000e+00 2.2252424e-04 0.0000000e+00 
0.0000000e+00 2.1109947e-04 0.0000000e+00 
0.0000000e+00 1.4496228e-04 0.0000000e+00 
0.0000000e+00 6.1066152e-05 0.0000000e+00 
0.0000000e+00 -1.0029474e-05 0.0000000e+00 
0.0000000e+00 -5.2877320e-05 0.0000000e+00 
0.0000000e+00 -6.7428125e-05 0.0000000e+00 
0.0000000e+00 -6.1917170e-05 0.0000000e+00 
0.0000000e+00 -4.3906592e-05 0.0000000e+00 
0.0000000e+00 -1.8349165e-05 0.0000000e+00 
0.0000000e+00 1.0060819e-05 0.0000000e+00 
0.0000000e+00 3.3814875e-05 0.0000000e+00 
0.0000000e+00 4.5698831e-05 0.0000000e+00 
0.0000000e+00 4.3417713e-05 0.0000000e+00 
0.0000000e+00 3.0437322e-05 0.0000000e+00 
0.0000000e+00 1.3087913e-05 0.0000000e+00 
0.0000000e+00 -3.0055303e-06 0.0000000e+00 
0.0000000e+00 -1.4782037e-05 0.0000000e+00 
0.0000000e+00 -2.1018837e-05 0.0000000e+00 
0.0000000e+00 -2.1532258e-05 0.0000000e+00 
0.0000000e+00 -1.6737133e-05 0.0000000e+00 
0.0000000e+00 -8.3411478e-06 0.0000000e+00 
0.0000000e+00 8.9791797e-07 0.0000000e+00 
0.0000000e+00 8.3926343e-06 0.0000000e+00 
0.0000000e+00 1.2875223e-05 0.0000000e+00 
0.0000000e+00 1.4305930e-05 0.0000000e+00 
1.2970152e-05 -1.6620741e-05 -3.5399727e-05 
-6.8613503e-05 -5.8487791e-04 -2.8340370e-04 
0.0000000e+00 0.0000000e+00 0.0000000e+00 
0.0000000e+00 0.0000000e+00 0.0000000e+00 
0.0000000e+00 0.0000000e+00 0.0000000e+00 
0.0000000e+00 0.0000000e+00 0.0000000e+00 
0.0000000e+00 0.0000000e+00 0.0000000e+00 
0.0000000e+00 0.0000000e+00 0.0000000e+00 
0.0000000e+00 0.0000000e+00 0.0000000e+00 
0.0000000e+00 0.0000000e+00 0.0000000e+00 
0.0000000e+00 0.0000000e+00 0.0000000e+00 
0.0000000e+00 0.0000000e+00 0.0000000e+00 
0.0000000e+00 0.0000000e+00 0.0000000e+00 
0.0000000e+00 0.0000000e+00 0.0000000e+00 
0.0000000e+00 0.0000000e+00 0.0000000e+00 
0.0000000e+00 0.0000000e+00 0.0000000e+00 
0.0000000e+00 0.0000000e+00 0.0000000e+00 
0.0000000e+00 0.0000000e+00 0.0000000e+00 
0.0000000e+00 0.0000000e+00 0.0000000e+00 
0.0000000e+00 0.0000000e+00 0.0000000e+00 
0.0000000e+00 0.0000000e+00 0.0000000e+00 
0.0000000e+00 0.0000000e+00 0.0000000e+00 
0.0000000e+00 0.0000000e+00 0.0000000e+00 
0.0000000e+00 0.0000000e+00 0.0000000e+00 
0.0000000e+00 0.0000000e+00 0.0000000e+00 
0.0000000e+00 0.0000000e+00 0.0000000e+00 
0.0000000e+00 0.0000000e+00 0.0000000e+00 
0.0000000e+00 0.0000000e+00 0.0000000e+00 
0.0000000e+00 0.0000000e+00 0.0000000e+00 
0.0000000e+00 0.0000000e+00 0.0000000e+00 
0.0000000e+00 0.0000000e+00 0.0000000e+00 
0.0000000e+00 0.0000000e+00 0.0000000e+00 
0.0000000e+00 0.0000000e+00 0.0000000e+00 
0.0000000e+00 0.0000000e+00 0.0000000e+00 
0.0000000e+00 0.0000000e+00 0.0000000e+00 
0.0000000e+00 0.0000000e+00 0.0000000e+00 
0.0000000e+00 0.0000000e+00 0.0000000e+00 
0.0000000e+00 0.0000000e+00 0.0000000e+00 
0.0000000e+00 0.0000000e+00 0.0000000e+00 
0.0000000e+00 0.0000000e+00 0.0000000e+00 
0.0000000e+00 0.0000000e+00 0.0000000e+00 
0.0000000e+00 0.0000000e+00 0.0000000e+00 
0.0000000e+00 0.0000000e+00 0.0000000e+00 
0.0000000e+00 0.0000000e+00 0.0000000e+00 
0.0000000e+00 0.0000000e+00 0.0000000e+00 
0.0000000e+00 0.0000000e+00 0.0000000e+00 
0.0000000e+00 0.0000000e+00 0.0000000e+00 
0.0000000e+00 0.0000000e+00 0.0000000e+00 
0.0000000e+00 0.0000000e+00 0.0000000e+00 
0.0000000e+00 0.0000000e+00 0.0000000e+00 
0.0000000e+00 0.0000000e+00 0.0000000e+00 
0.0000000e+00 0.0000000e+00 0.0000000e+00 
0.0000000e+00 0.0000000e+00 0.0000000e+00 
0.0000000e+00 0.0000000e+00 0.0000000e+00 
0.0000000e+00 0.0000000e+00 0.0000000e+00 
0.0000000e+00 0.0000000e+00 0.0000000e+00 
0.0000000e+00 0.0000000e+00 0.0000000e+00 
0.0000000e+00 0.0000000e+00 0.0000000e+00 
0.0000000e+00 0.0000000e+00 0.0000000e+00 
0.0000000e+00 0.0000000e+00 0.0000000e+00 
0.0000000e+00 0.0000000e+00 0.0000000e+00 
0.0000000e+00 0.0000000e+00 0.0000000e+00 
0.0000000e+00 0.0000000e+00 0.0000000e+00 
0.0000000e+00 0.0000000e+00 0.0000000e+00 
0.0000000e+00 0.0000000e+00 0.0000000e+00 
0.0000000e+00 0.0000000e+00 0.0000000e+00 
0.0000000e+00 0.0000000e+00 0.0000000e+00 
0.0000000e+00 0.0000000e+00 0.0000000e+00 
0.0000000e+00 0.0000000e+00 0.0000000e+00 
0.0000000e+00 0.0000000e+00 0.0000000e+00 
0.0000000e+00 0.0000000e+00 0.0000000e+00 
0.0000000e+00 0.0000000e+00 0.0000000e+00 
0.0000000e+00 0.0000000e+00 0.0000000e+00 
0.0000000e+00 0.0000000e+00 0.0000000e+00 
0.0000000e+00 0.0000000e+00 0.0000000e+00 
0.0000000e+00 0.0000000e+00 0.0000000e+00 
0.0000000e+00 0.0000000e+00 0.0000000e+00 
0.0000000e+00 0.0000000e+00 0.0000000e+00 
0.0000000e+00 0.0000000e+00 0.0000000e+00 
0.0000000e+00 0.0000000e+00 0.0000000e+00 
0.0000000e+00 0.0000000e+00 0.0000000e+00 
0.0000000e+00 0.0000000e+00 0.0000000e+00 
0.0000000e+00 0.0000000e+00 0.0000000e+00 
0.0000000e+00 0.0000000e+00 0.0000000e+00 
0.0000000e+00 0.0000000e+00 0.0000000e+00 
0.0000000e+00 0.0000000e+00 0.0000000e+00 
0.0000000e+00 0.0000000e+00 0.0000000e+00 
0.0000000e+00 0.0000000e+00 0.0000000e+00 
0.0000000e+00 0.0000000e+00 0.0000000e+00 
0.0000000e+00 0.0000000e+00 0.0000000e+00 
0.0000000e+00 0.0000000e+00 0.0000000e+00 
0.0000000e+00 0.0000000e+00 0.0000000e+00 
0.0000000e+00 0.0000000e+00 0.0000000e+00 
0.0000000e+00 0.0000000e+00 0.0000000e+00 
0.0000000e+00 0.0000000e+00 0.0000000e+00 
0.0000000e+00 0.0000000e+00 0.0000000e+00 
0.0000000e+00 0.0000000e+00 0.0000000e+00 
0.0000000e+00 0.0000000e+00 0.0000000e+00 
0.0000000e+00 0.0000000e+00 0.0000000e+00 
0.0000000e+00 0.0000000e+00 0.0000000e+00 
0.0000000e+00 0.0000000e+00 0.0000000e+00 
0.0000000e+00 0.0000000e+00 0.0000000e+00 
0.0000000e+00 0.0000000e+00 0.0000000e+00 
0.0000000e+00 0.0000000e+00 0.0000000e+00 
0.0000000e+00 0.0000000e+00 0.0000000e+00 
0.0000000e+00 0.0000000e+00 0.0000000e+00 
0.0000000e+00 0.0000000e+00 0.0000000e+00 
0.0000000e+00 0.0000000e+00 0.0000000e+00 
-5.2706919e-09 -1.9819447e-06 -1.0256385e-06 
-6.1481649e-07 4.8319583e-07 4.1656408e-06 
-2.2630675e-06 7.2024739e-07 -9.6277654e-07 
-5.6037470e-07 2.7788833e-06 -2.1937353e-06 
4.0867346e-07 4.1284906e-07 -4.3270579e-06 
5.4319116e-06 6.3181342e-06 -7.7762425e-06 
3.3613553e-06 -9.1650281e-06 -1.2807321e-05 
2.0063624e-05 -1.9020787e-06 -2.0220963e-05 
3.5490870e-05 -9.7502079e-06 -2.0495476e-05 
4.1493055e-05 -1.8336199e-05 -1.8356141e-05 
5.0944898e-05 -1.4656009e-05 -9.4763036e-06 
5.2280237e-05 -1.3682472e-05 6.5430567e-07 
4.3729342e-05 -1.3418473e-05 3.9406991e-06 
3.2984783e-05 -7.9099300e-06 7.0454616e-06 
2.0029487e-05 -8.9161749e-06 5.8037799e-06 
1.3685347e-05 -4.8877009e-06 6.9775051e-06 
9.2893088e-06 -2.1497078e-06 4.9837140e-06 
7.3857750e-06 2.3820003e-06 4.2907900e-06 
1.3283061e-06 5.2124813e-07 6.9542111e-06 
-3.4064396e-06 -1.9281360e-07 2.0966941e-06 
-9.3489587e-07 -6.0649859e-06 -1.1135683e-06 
2.5747204e-06 -4.2282300e-06 2.3076448e-06 
2.1371268e-06 3.3752328e-06 6.3610719e-06 
5.6737167e-07 2.8621541e-06 4.2051911e-06 
-2.5084587e-06 2.0533115e-07 2.0733969e-06 
7.4443813e-07 5.9408198e-06 -3.0685039e-06 
9.2618893e-06 -4.6987543e-06 -6.6353159e-06 
1.9943955e-05 -2.3994805e-06 -8.4374178e-06 
2.6633566e-05 -1.5127789e-06 -7.7777122e-06 
3.7903970e-05 -1.3127405e-05 -7.1129061e-06 
4.5480585e-05 -2.1284233e-05 -1.0045130e-05 
5.1453873e-05 -1.6343034e-05 -4.6597293e-06 
4.6159425e-05 -1.9283210e-05 3.5197977e-06 
3.8758968e-05 -1.2237960e-05 5.8268579e-06 
2.6402215e-05 -5.7739844e-06 7.4296431e-06 
1.2341772e-05 1.1113291e-06 6.4211022e-06 
4.7485671e-07 4.7700159e-06 3.9820129e-06 
-1.9776362e-06 2.3221219e-06 2.0333875e-06 
-3.5732748e-07 -1.1671360e-06 3.4698216e-06 
1.7706896e-06 -3.1841344e-06 3.7642690e-06 
4.4200278e-06 -4.2492179e-06 5.2143018e-06 
4.0871487e-06 -2.0630475e-06 5.8764299e-06 
1.3808649e-06 1.0737145e-06 3.3985787e-06 
-3.5379784e-07 7.9715136e-07 3.0281961e-07 
-1.7469023e-06 -9.6378351e-08 -1.9024130e-06 
-1.1985377e-06 -1.6758725e-07 -2.1941796e-06 
-3.0419912e-08 3.5773897e-07 -1.4469385e-06 
3.9993154e-07 2.2839717e-07 3.8634777e-08 
9.2244534e-08 1.3446204e-07 9.3799622e-07 
0.0000000e+00 7.1967293e-06 0.0000000e+00 
0.0000000e+00 -1.5665855e-05 0.0000000e+00 
0.0000000e+00 2.1377802e-05 0.0000000e+00 
0.0000000e+00 -2.9975199e-06 0.0000000e+00 
0.0000000e+00 1.2477048e-05 0.0000000e+00 
0.0000000e+00 4.8902264e-05 0.0000000e+00 
0.0000000e+00 6.8792491e-05 0.0000000e+00 
0.0000000e+00 -5.1843072e-06 0.0000000e+00 
0.0000000e+00 1.0401996e-05 0.0000000e+00 
0.0000000e+00 -1.9118231e-04 0.0000000e+00 
0.0000000e+00 -4.4425525e-04 0.0000000e+00 
0.0000000e+00 -5.3569052e-04 0.0000000e+00 
0.0000000e+00 -5.4241798e-04 0.0000000e+00 
0.0000000e+00 -4.8692033e-04 0.0000000e+00 
0.0000000e+00 -3.2766283e-04 0.0000000e+00 
0.0000000e+00 -1.4385246e-04 0.0000000e+00 
0.0000000e+00 -4.5977486e-05 0.0000000e+00 
0.0000000e+00 -5.4072290e-05 0.0000000e+00 
0.0000000e+00 -7.7382596e-05 0.0000000e+00 
0.0000000e+00 -1.1166449e-04 0.0000000e+00 
0.0000000e+00 -1.0855270e-04 0.0000000e+00 
0.0000000e+00 -9.5640891e-05 0.0000000e+00 
0.0000000e+00 -1.4534983e-05 0.0000000e+00 
0.0000000e+00 -3.4163952e-06 0.0000000e+00 
0.0000000e+00 1.8861911e-05 0.0000000e+00 
0.0000000e+00 3.4082208e-05 0.0000000e+00 
0.0000000e+00 1.1156757e-04 0.0000000e+00 
0.0000000e+00 3.1350042e-05 0.0000000e+00 
0.0000000e+00 -3.5790006e-05 0.0000000e+00 
0.0000000e+00 -1.5915504e-04 0.0000000e+00 
0.0000000e+00 -4.2401641e-04 0.0000000e+00 
0.0000000e+00 -5.6267186e-04 0.0000000e+00 
0.0000000e+00 -5.4849725e-04 0.0000000e+00 
0.0000000e+00 -5.0939887e-04 0.0000000e+00 
0.0000000e+00 -3.1522760e-04 0.0000000e+00 
0.0000000e+00 -1.2560550e-04 0.0000000e+00 
0.0000000e+00 1.0421296e-05 0.0000000e+00 
0.0000000e+00 3.4654957e-05 0.0000000e+00 
0.0000000e+00 7.4435534e-06 0.0000000e+00 
0.0000000e+00 -9.0793919e-06 0.0000000e+00 
0.0000000e+00 -1.7699223e-05 0.0000000e+00 
0.0000000e+00 -1.0598472e-05 0.0000000e+00 
0.0000000e+00 9.1263464e-06 0.0000000e+00 
0.0000000e+00 1.3958164e-05 0.0000000e+00 
0.0000000e+00 5.8629130e-06 0.0000000e+00 
0.0000000e+00 -4.5731845e-06 0.0000000e+00 
0.0000000e+00 -5.6484423e-06 0.0000000e+00 
0.0000000e+00 1.1431199e-07 0.0000000e+00 
0.0000000e+00 1.8131279e-06 0.0000000e+00 
2.2596812e-06 -3.2692333e-06 -1.5041672e-06 
-3.7066550e-06 2.0263001e-06 2.6869013e-06 
-2.8450427e-06 1.0337613e-05 4.1568683e-06 
-2.3327855e-06 1.9795154e-05 2.6792090e-06 
4.8684498e-08 -2.7718031e-07 1.2218437e-06 
-7.4753757e-08 -3.2031761e-07 1.0190189e-06 
-2.0248419e-07 -2.8656504e-07 2.1982095e-07 
-2.5773639e-07 1.7718567e-07 -5.4393331e-07 
1.6667933e-06 -3.8777262e-06 4.8677714e-07 
1.4334888e-06 1.5664684e-06 1.1832204e-06 
-3.2776995e-06 -3.0092326e-06 -3.1209418e-06 
-2.2470820e-06 -3.6391377e-06 -2.0696546e-06 
1.3242106e-05 2.0001605e-06 -2.7452770e-06 
7.1697223e-06 2.4381811e-06 -1.0285281e-05 
7.5186858e-06 -1.4286981e-05 -1.7828099e-05 
2.4541174e-05 -5.7206762e-06 -2.2153674e-05 
4.1511805e-05 -1.2382734e-05 -2.6761933e-05 
4.8949023e-05 -1.0996305e-05 -2.0477208e-05 
5.1245657e-05 -1.2564812e-05 -6.1863998e-06 
4.7028690e-05 -9.4730140e-06 -2.7121855e-06 
3.5716163e-05 -7.4757454e-06 3.7061436e-06 
2.4517572e-05 -8.5057280e-07 6.6346001e-06 
9.8122755e-06 -7.7509412e-06 3.4346804e-06 
6.6994489e-06 -4.6518380e-06 1.9176787e-06 
6.1625833e-06 -2.1994001e-06 2.3747235e-07 
4.8997381e-06 4.4079061e-06 3.6026586e-06 
1.8763290e-06 4.2498359e-06 1.0652761e-05 
-1.0967046e-05 7.9515496e-07 8.9822925e-06 
-1.3080898e-05 -1.0896265e-05 3.5972591e-06 