# vtk DataFile Version 4.0
vtk output
ASCII
DATASET UNSTRUCTURED_GRID
POINTS 766 float
0.0000000e+00 0.0000000e+00 0.0000000e+00 
0.0000000e+00 0.0000000e+00 5.0000000e+01 
5.0000000e+00 0.0000000e+00 0.0000000e+00 
5.0000000e+00 0.0000000e+00 5.0000000e+01 
5.0000000e+00 1.0000000e+00 0.0000000e+00 
5.0000000e+00 1.0000000e+00 5.0000000e+01 
0.0000000e+00 1.0000000e+00 0.0000000e+00 
0.0000000e+00 1.0000000e+00 5.0000000e+01 
5.0000000e+00 2.0000000e+00 0.0000000e+00 
5.0000000e+00 2.0000000e+00 5.0000000e+01 
3.0000000e+00 2.0000000e+00 0.0000000e+00 
3.0000000e+00 2.0000000e+00 5.0000000e+01 
0.0000000e+00 2.0000000e+00 0.0000000e+00 
0.0000000e+00 2.0000000e+00 5.0000000e+01 
1.5000000e+00 3.0000000e+00 0.0000000e+00 
1.5000000e+00 3.0000000e+00 5.0000000e+01 
7.5000000e-01 3.0000000e+00 0.0000000e+00 
7.5000000e-01 3.0000000e+00 5.0000000e+01 
0.0000000e+00 3.0000000e+00 0.0000000e+00 
0.0000000e+00 3.0000000e+00 5.0000000e+01 
7.5000000e-01 3.0000000e+00 5.0000000e-01 
7.5000000e-01 3.0000000e+00 1.0000000e+00 
7.5000000e-01 3.0000000e+00 1.5000000e+00 
7.5000000e-01 3.0000000e+00 2.0000000e+00 
7.5000000e-01 3.0000000e+00 2.5000000e+00 
7.5000000e-01 3.0000000e+00 3.0000000e+00 
7.5000000e-01 3.0000000e+00 3.5000000e+00 
7.5000000e-01 3.0000000e+00 4.0000000e+00 
7.5000000e-01 3.0000000e+00 4.5000000e+00 
7.5000000e-01 3.0000000e+00 5.0000000e+00 
7.5000000e-01 3.0000000e+00 5.5000000e+00 
7.5000000e-01 3.0000000e+00 6.0000000e+00 
7.5000000e-01 3.0000000e+00 6.5000000e+00 
7.5000000e-01 3.0000000e+00 7.0000000e+00 
7.5000000e-01 3.0000000e+00 7.5000000e+00 
7.5000000e-01 3.0000000e+00 8.0000000e+00 
7.5000000e-01 3.0000000e+00 8.5000000e+00 
7.5000000e-01 3.0000000e+00 9.0000000e+00 
7.5000000e-01 3.0000000e+00 9.5000000e+00 
7.5000000e-01 3.0000000e+00 1.0000000e+01 
7.5000000e-01 3.0000000e+00 1.0500000e+01 
7.5000000e-01 3.0000000e+00 1.1000000e+01 
7.5000000e-01 3.0000000e+00 1.1500000e+01 
7.5000000e-01 3.0000000e+00 1.2000000e+01 
7.5000000e-01 3.0000000e+00 1.2500000e+01 
7.5000000e-01 3.0000000e+00 1.3000000e+01 
7.5000000e-01 3.0000000e+00 1.3500000e+01 
7.5000000e-01 3.0000000e+00 1.4000000e+01 
7.5000000e-01 3.0000000e+00 1.4500000e+01 
7.5000000e-01 3.0000000e+00 1.5000000e+01 
7.5000000e-01 3.0000000e+00 1.5500000e+01 
7.5000000e-01 3.0000000e+00 1.6000000e+01 
7.5000000e-01 3.0000000e+00 1.6500000e+01 
7.5000000e-01 3.0000000e+00 1.7000000e+01 
7.5000000e-01 3.0000000e+00 1.7500000e+01 
7.5000000e-01 3.0000000e+00 1.8000000e+01 
7.5000000e-01 3.0000000e+00 1.8500000e+01 
7.5000000e-01 3.0000000e+00 1.9000000e+01 
7.5000000e-01 3.0000000e+00 1.9500000e+01 
7.5000000e-01 3.0000000e+00 2.0000000e+01 
7.5000000e-01 3.0000000e+00 2.0500000e+01 
7.5000000e-01 3.0000000e+00 2.1000000e+01 
7.5000000e-01 3.0000000e+00 2.1500000e+01 
7.5000000e-01 3.0000000e+00 2.2000000e+01 
7.5000000e-01 3.0000000e+00 2.2500000e+01 
7.5000000e-01 3.0000000e+00 2.3000000e+01 
7.5000000e-01 3.0000000e+00 2.3500000e+01 
7.5000000e-01 3.0000000e+00 2.4000000e+01 
7.5000000e-01 3.0000000e+00 2.4500000e+01 
7.5000000e-01 3.0000000e+00 2.5000000e+01 
7.5000000e-01 3.0000000e+00 2.5500000e+01 
7.5000000e-01 3.0000000e+00 2.6000000e+01 
7.5000000e-01 3.0000000e+00 2.6500000e+01 
7.5000000e-01 3.0000000e+00 2.7000000e+01 
7.5000000e-01 3.0000000e+00 2.7500000e+01 
7.5000000e-01 3.0000000e+00 2.8000000e+01 
7.5000000e-01 3.0000000e+00 2.8500000e+01 
7.5000000e-01 3.0000000e+00 2.9000000e+01 
7.5000000e-01 3.0000000e+00 2.9500000e+01 
7.5000000e-01 3.0000000e+00 3.0000000e+01 
7.5000000e-01 3.0000000e+00 3.0500000e+01 
7.5000000e-01 3.0000000e+00 3.1000000e+01 
7.5000000e-01 3.0000000e+00 3.1500000e+01 
7.5000000e-01 3.0000000e+00 3.2000000e+01 
7.5000000e-01 3.0000000e+00 3.2500000e+01 
7.5000000e-01 3.0000000e+00 3.3000000e+01 
7.5000000e-01 3.0000000e+00 3.3500000e+01 
7.5000000e-01 3.0000000e+00 3.4000000e+01 
7.5000000e-01 3.0000000e+00 3.4500000e+01 
7.5000000e-01 3.0000000e+00 3.5000000e+01 
7.5000000e-01 3.0000000e+00 3.5500000e+01 
7.5000000e-01 3.0000000e+00 3.6000000e+01 
7.5000000e-01 3.0000000e+00 3.6500000e+01 
7.5000000e-01 3.0000000e+00 3.7000000e+01 
7.5000000e-01 3.0000000e+00 3.7500000e+01 
7.5000000e-01 3.0000000e+00 3.8000000e+01 
7.5000000e-01 3.0000000e+00 3.8500000e+01 
7.5000000e-01 3.0000000e+00 3.9000000e+01 
7.5000000e-01 3.0000000e+00 3.9500000e+01 
7.5000000e-01 3.0000000e+00 4.0000000e+01 
7.5000000e-01 3.0000000e+00 4.0500000e+01 
7.5000000e-01 3.0000000e+00 4.1000000e+01 
7.5000000e-01 3.0000000e+00 4.1500000e+01 
7.5000000e-01 3.0000000e+00 4.2000000e+01 
7.5000000e-01 3.0000000e+00 4.2500000e+01 
7.5000000e-01 3.0000000e+00 4.3000000e+01 
7.5000000e-01 3.0000000e+00 4.3500000e+01 
7.5000000e-01 3.0000000e+00 4.4000000e+01 
7.5000000e-01 3.0000000e+00 4.4500000e+01 
7.5000000e-01 3.0000000e+00 4.5000000e+01 
7.5000000e-01 3.0000000e+00 4.5500000e+01 
7.5000000e-01 3.0000000e+00 4.6000000e+01 
7.5000000e-01 3.0000000e+00 4.6500000e+01 
7.5000000e-01 3.0000000e+00 4.7000000e+01 
7.5000000e-01 3.0000000e+00 4.7500000e+01 
7.5000000e-01 3.0000000e+00 4.8000000e+01 
7.5000000e-01 3.0000000e+00 4.8500000e+01 
7.5000000e-01 3.0000000e+00 4.9000000e+01 
7.5000000e-01 3.0000000e+00 4.9500000e+01 
7.5000000e-01 3.0250001e+00 0.0000000e+00 
7.5000000e-01 3.0250001e+00 5.0000000e-01 
7.5000000e-01 3.0250001e+00 1.0000000e+00 
7.5000000e-01 3.0250001e+00 1.5000000e+00 
7.5000000e-01 3.0250001e+00 2.0000000e+00 
7.5000000e-01 3.0250001e+00 2.5000000e+00 
7.5000000e-01 3.0250001e+00 3.0000000e+00 
7.5000000e-01 3.0250001e+00 3.5000000e+00 
7.5000000e-01 3.0250001e+00 4.0000000e+00 
7.5000000e-01 3.0250001e+00 4.5000000e+00 
7.5000000e-01 3.0250001e+00 5.0000000e+00 
7.5000000e-01 3.0250001e+00 5.5000000e+00 
7.5000000e-01 3.0250001e+00 6.0000000e+00 
7.5000000e-01 3.0250001e+00 6.5000000e+00 
7.5000000e-01 3.0250001e+00 7.0000000e+00 
7.5000000e-01 3.0250001e+00 7.5000000e+00 
7.5000000e-01 3.0250001e+00 8.0000000e+00 
7.5000000e-01 3.0250001e+00 8.5000000e+00 
7.5000000e-01 3.0250001e+00 9.0000000e+00 
7.5000000e-01 3.0250001e+00 9.5000000e+00 
7.5000000e-01 3.0250001e+00 1.0000000e+01 
7.5000000e-01 3.0250001e+00 1.0500000e+01 
7.5000000e-01 3.0250001e+00 1.1000000e+01 
7.5000000e-01 3.0250001e+00 1.1500000e+01 
7.5000000e-01 3.0250001e+00 1.2000000e+01 
7.5000000e-01 3.0250001e+00 1.2500000e+01 
7.5000000e-01 3.0250001e+00 1.3000000e+01 
7.5000000e-01 3.0250001e+00 1.3500000e+01 
7.5000000e-01 3.0250001e+00 1.4000000e+01 
7.5000000e-01 3.0250001e+00 1.4500000e+01 
7.5000000e-01 3.0250001e+00 1.5000000e+01 
7.5000000e-01 3.0250001e+00 1.5500000e+01 
7.5000000e-01 3.0250001e+00 1.6000000e+01 
7.5000000e-01 3.0250001e+00 1.6500000e+01 
7.5000000e-01 3.0250001e+00 1.7000000e+01 
7.5000000e-01 3.0250001e+00 1.7500000e+01 
7.5000000e-01 3.0250001e+00 1.8000000e+01 
7.5000000e-01 3.0250001e+00 1.8500000e+01 
7.5000000e-01 3.0250001e+00 1.9000000e+01 
7.5000000e-01 3.0250001e+00 1.9500000e+01 
7.5000000e-01 3.0250001e+00 2.0000000e+01 
7.5000000e-01 3.0250001e+00 2.0500000e+01 
7.5000000e-01 3.0250001e+00 2.1000000e+01 
7.5000000e-01 3.0250001e+00 2.1500000e+01 
7.5000000e-01 3.0250001e+00 2.2000000e+01 
7.5000000e-01 3.0250001e+00 2.2500000e+01 
7.5000000e-01 3.0250001e+00 2.3000000e+01 
7.5000000e-01 3.0250001e+00 2.3500000e+01 
7.5000000e-01 3.0250001e+00 2.4000000e+01 
7.5000000e-01 3.0250001e+00 2.4500000e+01 
7.5000000e-01 3.0250001e+00 2.5000000e+01 
7.5000000e-01 3.0250001e+00 2.5500000e+01 
7.5000000e-01 3.0250001e+00 2.6000000e+01 
7.5000000e-01 3.0250001e+00 2.6500000e+01 
7.5000000e-01 3.0250001e+00 2.7000000e+01 
7.5000000e-01 3.0250001e+00 2.7500000e+01 
7.5000000e-01 3.0250001e+00 2.8000000e+01 
7.5000000e-01 3.0250001e+00 2.8500000e+01 
7.5000000e-01 3.0250001e+00 2.9000000e+01 
7.5000000e-01 3.0250001e+00 2.9500000e+01 
7.5000000e-01 3.0250001e+00 3.0000000e+01 
7.5000000e-01 3.0250001e+00 3.0500000e+01 
7.5000000e-01 3.0250001e+00 3.1000000e+01 
7.5000000e-01 3.0250001e+00 3.1500000e+01 
7.5000000e-01 3.0250001e+00 3.2000000e+01 
7.5000000e-01 3.0250001e+00 3.2500000e+01 
7.5000000e-01 3.0250001e+00 3.3000000e+01 
7.5000000e-01 3.0250001e+00 3.3500000e+01 
7.5000000e-01 3.0250001e+00 3.4000000e+01 
7.5000000e-01 3.0250001e+00 3.4500000e+01 
7.5000000e-01 3.0250001e+00 3.5000000e+01 
7.5000000e-01 3.0250001e+00 3.5500000e+01 
7.5000000e-01 3.0250001e+00 3.6000000e+01 
7.5000000e-01 3.0250001e+00 3.6500000e+01 
7.5000000e-01 3.0250001e+00 3.7000000e+01 
7.5000000e-01 3.0250001e+00 3.7500000e+01 
7.5000000e-01 3.0250001e+00 3.8000000e+01 
7.5000000e-01 3.0250001e+00 3.8500000e+01 
7.5000000e-01 3.0250001e+00 3.9000000e+01 
7.5000000e-01 3.0250001e+00 3.9500000e+01 
7.5000000e-01 3.0250001e+00 4.0000000e+01 
7.5000000e-01 3.0250001e+00 4.0500000e+01 
7.5000000e-01 3.0250001e+00 4.1000000e+01 
7.5000000e-01 3.0250001e+00 4.1500000e+01 
7.5000000e-01 3.0250001e+00 4.2000000e+01 
7.5000000e-01 3.0250001e+00 4.2500000e+01 
7.5000000e-01 3.0250001e+00 4.3000000e+01 
7.5000000e-01 3.0250001e+00 4.3500000e+01 
7.5000000e-01 3.0250001e+00 4.4000000e+01 
7.5000000e-01 3.0250001e+00 4.4500000e+01 
7.5000000e-01 3.0250001e+00 4.5000000e+01 
7.5000000e-01 3.0250001e+00 4.5500000e+01 
7.5000000e-01 3.0250001e+00 4.6000000e+01 
7.5000000e-01 3.0250001e+00 4.6500000e+01 
7.5000000e-01 3.0250001e+00 4.7000000e+01 
7.5000000e-01 3.0250001e+00 4.7500000e+01 
7.5000000e-01 3.0250001e+00 4.8000000e+01 
7.5000000e-01 3.0250001e+00 4.8500000e+01 
7.5000000e-01 3.0250001e+00 4.9000000e+01 
7.5000000e-01 3.0250001e+00 4.9500000e+01 
7.5000000e-01 3.0250001e+00 5.0000000e+01 
3.0000000e+00 2.0000000e+00 3.6000000e+01 
8.0487806e-01 3.0000000e+00 3.6000000e+01 
0.0000000e+00 0.0000000e+00 2.0000000e+00 
0.0000000e+00 0.0000000e+00 4.0000000e+00 
0.0000000e+00 0.0000000e+00 6.0000000e+00 
0.0000000e+00 0.0000000e+00 8.0000000e+00 
0.0000000e+00 0.0000000e+00 1.0000000e+01 
0.0000000e+00 0.0000000e+00 1.2000000e+01 
0.0000000e+00 0.0000000e+00 1.4000000e+01 
0.0000000e+00 0.0000000e+00 1.6000000e+01 
[...]
POINT_DATA 766
FIELD FieldData 3
DISPLACEMENT 3 766  float
0.0000000e+00 0.0000000e+00 0.0000000e+00 
0.0000000e+00 0.0000000e+00 0.0000000e+00 
0.0000000e+00 0.0000000e+00 0.0000000e+00 
0.0000000e+00 0.0000000e+00 0.0000000e+00 
5.9317739e-07 5.6962824e-07 2.4948592e-06 
-2.7427668e-06 -3.7526451e-07 -3.0787965e-07 
0.0000000e+00 -1.0630501e-05 0.0000000e+00 
0.0000000e+00 -1.6349006e-05 0.0000000e+00 
1.0526670e-06 1.7095667e-07 3.3500610e-06 
-3.8414973e-06 9.7346522e-08 4.0064469e-06 
-1.8773352e-06 9.8849137e-07 5.0023327e-06 
3.1342552e-06 -3.7444938e-06 -6.9845182e-06 
0.0000000e+00 -2.1889795e-05 0.0000000e+00 
0.0000000e+00 -3.0605683e-05 0.0000000e+00 
-7.7810173e-06 -9.4912639e-06 1.2079253e-05 
-1.3735275e-05 -1.2221120e-05 3.3356791e-05 
-1.9898085e-05 -2.6705613e-05 2.1655360e-06 
-2.9956809e-05 1.8937488e-05 1.3167934e-05 
0.0000000e+00 -1.0546301e-05 0.0000000e+00 
0.0000000e+00 -4.0861920e-05 0.0000000e+00 
-1.6396045e-05 -2.5927251e-05 -1.1379491e-05 
-1.2197480e-05 -2.4624245e-05 -1.4048350e-05 
-1.7722699e-05 -2.3470655e-05 -1.7807672e-05 
-1.2858226e-05 -2.9779274e-05 -1.2684018e-05 
-1.6293197e-05 -4.3508157e-05 -4.8628012e-06 
-5.4448733e-06 -5.9274480e-05 -2.7901051e-06 
-1.1738862e-05 -7.2565213e-05 -2.1855647e-06 
-3.2446360e-06 -7.7435710e-05 3.3232750e-06 
-5.0420504e-06 -7.9126046e-05 -2.4390004e-06 
-8.2279221e-06 -8.9529531e-05 3.7039438e-08 
-8.3544933e-07 -1.1445202e-04 6.1846742e-07 
1.2133180e-06 -1.3780419e-04 -1.7748946e-06 
-6.3238003e-06 -1.4277652e-04 1.3131054e-05 
-1.6715314e-05 -1.2795920e-04 2.0526215e-06 
-1.7816365e-05 -1.0566670e-04 -9.6083904e-06 
-2.5560070e-05 -8.8228066e-05 -1.2066415e-05 
-2.1409878e-05 -7.9850011e-05 -3.0915875e-05 
-2.0412182e-05 -7.0809103e-05 -2.9034505e-05 
-1.7712497e-05 -4.4749733e-05 -1.1717957e-05 
-2.2131651e-05 -1.6370564e-05 -1.5432468e-05 
-1.8763432e-05 1.3895936e-06 -1.5232156e-05 
-2.0832463e-06 5.8512296e-06 1.3150197e-05 
-2.8160644e-05 3.1891063e-06 -3.3383117e-06 
-1.9075226e-06 8.1891574e-07 -1.0648212e-05 
-9.9190584e-06 7.8685514e-07 2.5951129e-05 
-2.3294651e-06 -5.5740334e-06 7.7605773e-06 
1.2320345e-05 -3.5879886e-05 -5.2826495e-06 
1.9123685e-05 -4.6701171e-05 4.4688859e-05 
3.6523848e-05 -2.2282233e-05 2.0927184e-05 
7.3154251e-06 4.1564317e-06 1.4672349e-05 
3.4695768e-05 1.2906210e-06 7.3942698e-05 
-2.1899010e-05 -8.5125190e-05 5.4596767e-05 
-8.0733596e-05 -2.6786845e-04 8.8950699e-05 
-4.8214559e-05 -5.3099170e-04 1.2634632e-04 
-1.1964123e-04 -9.0431509e-04 1.6627765e-04 
-1.3112338e-04 -1.4928100e-03 1.1909199e-04 
-2.8667421e-04 -2.3918257e-03 1.8779328e-04 
-3.0682853e-04 -3.4466218e-03 1.8583836e-04 
-2.1411983e-04 -4.3167537e-03 1.2286783e-04 
-1.7952301e-04 -4.3618102e-03 1.2906628e-04 
-2.7848157e-04 -4.1112793e-03 6.6843335e-05 
-3.7706373e-04 -4.0056556e-03 6.4893233e-05 
-2.6550982e-04 -4.2357654e-03 3.5572473e-05 
-1.2138276e-04 -4.3036975e-03 -1.5583673e-05 
-1.3920455e-04 -3.6898146e-03 -9.7790842e-05 
-2.3003803e-04 -2.7099054e-03 -1.4589273e-04 
-2.1055649e-04 -1.8113524e-03 -1.6272749e-04 
-8.0203492e-05 -1.0993250e-03 -1.0632358e-04 
-4.6535381e-05 -6.3498004e-04 -1.4719368e-04 
-4.4895121e-05 -3.5451943e-04 -1.2414457e-04 
-3.4736840e-05 -1.9375327e-04 -1.0122264e-04 
-2.6325548e-05 -1.1440448e-04 -7.8583565e-05 
-2.6542313e-05 -9.7851917e-05 -5.5234654e-05 
-2.4910050e-05 -1.0603722e-04 -4.6542718e-05 
-3.0430081e-05 -1.0306809e-04 -4.0920695e-05 
-4.1409567e-05 -9.1066584e-05 -4.9792547e-05 
-3.8271482e-05 -8.5489090e-05 -6.6862536e-05 
-4.1904306e-05 -9.2695518e-05 -4.8818129e-05 
-4.7150443e-05 -9.5530289e-05 -4.4854860e-05 
-3.7128073e-05 -8.3540799e-05 -6.8820846e-05 
-2.8435894e-05 -5.0762737e-05 -5.2478004e-05 
-1.4353061e-05 -1.3581301e-05 -5.4035299e-05 
-2.2137987e-05 3.7134253e-06 -9.6907061e-05 
1.4263375e-05 2.2143073e-05 -8.5390413e-05 
1.8121304e-05 5.6847206e-05 -6.5302971e-05 
2.3283472e-05 9.8165721e-05 -6.9719521e-05 
6.4331864e-05 1.2740833e-04 -4.9896931e-05 
2.3684150e-05 1.4949778e-04 -2.1170465e-06 
7.2869429e-05 1.7674612e-04 -1.1598634e-05 
5.0647854e-05 2.1508713e-04 2.7496601e-05 
3.3306256e-05 2.5697073e-04 1.1796854e-04 
5.8117475e-05 2.0463672e-04 1.0113137e-04 
-8.7453540e-05 2.7995807e-06 9.7503536e-05 
-1.4839909e-05 -3.4837183e-04 1.9512048e-04 
-8.1473736e-05 -8.6249463e-04 2.3720191e-04 
-1.3134425e-04 -1.5395242e-03 1.3401132e-04 
-2.3303015e-04 -2.4179958e-03 2.1530282e-04 
-3.2230854e-04 -3.3807054e-03 1.8326702e-04 
-1.8273517e-04 -4.1607358e-03 9.8468125e-05 
-1.8016830e-04 -4.1907150e-03 1.0742751e-04 
-2.9660354e-04 -3.9985715e-03 5.7632635e-05 
-3.4618971e-04 -3.9473567e-03 2.0454187e-05 
-2.2143670e-04 -4.1573253e-03 -2.8300057e-05 
-6.1318373e-05 -4.1306913e-03 -6.0875842e-05 
-7.4273899e-05 -3.3921080e-03 -1.5859847e-04 
-1.5653575e-04 -2.3285863e-03 -1.8220211e-04 
-1.5568276e-04 -1.4090219e-03 -1.5537524e-04 
-4.5777764e-05 -7.1986450e-04 -7.2956194e-05 
-2.1160471e-05 -2.8113788e-04 -1.0804011e-04 
-1.7690634e-05 -2.2098515e-05 -8.0364756e-05 
-1.9120766e-05 1.0873727e-04 -7.0037058e-05 
-8.9676205e-06 1.5372357e-04 -6.4586318e-05 
2.6039854e-06 1.4583065e-04 -4.3885997e-05 
1.1301408e-05 1.2047706e-04 -2.4226745e-05 
8.9263986e-06 1.0029320e-04 -8.6749405e-06 
5.9700283e-06 8.3590407e-05 1.8232506e-05 
1.2278598e-06 6.5995227e-05 3.5707999e-05 
-3.6025128e-06 4.5777040e-05 4.1457628e-05 
-9.7354123e-06 2.6684560e-05 4.8901769e-05 
0.0000000e+00 -2.6828580e-05 0.0000000e+00 
0.0000000e+00 -2.5984460e-05 0.0000000e+00 
0.0000000e+00 -2.4146155e-05 0.0000000e+00 
0.0000000e+00 -2.3631143e-05 0.0000000e+00 
0.0000000e+00 -2.9938288e-05 0.0000000e+00 
0.0000000e+00 -4.3593085e-05 0.0000000e+00 
0.0000000e+00 -5.9678601e-05 0.0000000e+00 
0.0000000e+00 -7.2086681e-05 0.0000000e+00 
0.0000000e+00 -7.6860750e-05 0.0000000e+00 
0.0000000e+00 -7.9289566e-05 0.0000000e+00 
0.0000000e+00 -9.0675996e-05 0.0000000e+00 
0.0000000e+00 -1.1471479e-04 0.0000000e+00 
0.0000000e+00 -1.3729489e-04 0.0000000e+00 
0.0000000e+00 -1.4210920e-04 0.0000000e+00 
0.0000000e+00 -1.2764160e-04 0.0000000e+00 
0.0000000e+00 -1.0599820e-04 0.0000000e+00 
0.0000000e+00 -8.9174056e-05 0.0000000e+00 
0.0000000e+00 -8.0341139e-05 0.0000000e+00 
0.0000000e+00 -6.9234127e-05 0.0000000e+00 
0.0000000e+00 -4.4733210e-05 0.0000000e+00 
0.0000000e+00 -1.6763450e-05 0.0000000e+00 
0.0000000e+00 1.0110160e-06 0.0000000e+00 
0.0000000e+00 5.4123052e-06 0.0000000e+00 
0.0000000e+00 3.5659505e-06 0.0000000e+00 
0.0000000e+00 1.8407175e-06 0.0000000e+00 
0.0000000e+00 1.2885885e-06 0.0000000e+00 
0.0000000e+00 -8.7637445e-06 0.0000000e+00 
0.0000000e+00 -3.5017096e-05 0.0000000e+00 
0.0000000e+00 -4.4571629e-05 0.0000000e+00 
0.0000000e+00 -2.1838001e-05 0.0000000e+00 
0.0000000e+00 6.5056083e-06 0.0000000e+00 
0.0000000e+00 -8.2684448e-07 0.0000000e+00 
0.0000000e+00 -8.7634093e-05 0.0000000e+00 
0.0000000e+00 -2.6603611e-04 0.0000000e+00 
0.0000000e+00 -5.2718358e-04 0.0000000e+00 
0.0000000e+00 -9.0417330e-04 0.0000000e+00 
0.0000000e+00 -1.5034238e-03 0.0000000e+00 
0.0000000e+00 -2.4020877e-03 0.0000000e+00 
0.0000000e+00 -3.4833383e-03 0.0000000e+00 
0.0000000e+00 -4.3386258e-03 0.0000000e+00 
0.0000000e+00 -4.3876087e-03 0.0000000e+00 
0.0000000e+00 -4.1251467e-03 0.0000000e+00 
0.0000000e+00 -4.0400727e-03 0.0000000e+00 
0.0000000e+00 -4.2578173e-03 0.0000000e+00 
0.0000000e+00 -4.3372046e-03 0.0000000e+00 
0.0000000e+00 -3.7060378e-03 0.0000000e+00 
0.0000000e+00 -2.7283859e-03 0.0000000e+00 
0.0000000e+00 -1.8143184e-03 0.0000000e+00 
0.0000000e+00 -1.1045894e-03 0.0000000e+00 
0.0000000e+00 -6.3438551e-04 0.0000000e+00 
0.0000000e+00 -3.5259302e-04 0.0000000e+00 
0.0000000e+00 -1.9308781e-04 0.0000000e+00 
0.0000000e+00 -1.1599445e-04 0.0000000e+00 
0.0000000e+00 -9.7754586e-05 0.0000000e+00 
0.0000000e+00 -1.0366261e-04 0.0000000e+00 
0.0000000e+00 -1.0222437e-04 0.0000000e+00 
0.0000000e+00 -9.1775175e-05 0.0000000e+00 
0.0000000e+00 -8.6792075e-05 0.0000000e+00 
0.0000000e+00 -9.2448354e-05 0.0000000e+00 
0.0000000e+00 -9.5231320e-05 0.0000000e+00 
0.0000000e+00 -8.2354250e-05 0.0000000e+00 
0.0000000e+00 -5.0440020e-05 0.0000000e+00 
0.0000000e+00 -1.5993537e-05 0.0000000e+00 
0.0000000e+00 4.1134331e-06 0.0000000e+00 
0.0000000e+00 2.3574952e-05 0.0000000e+00 
0.0000000e+00 5.7273297e-05 0.0000000e+00 
0.0000000e+00 9.7352626e-05 0.0000000e+00 
0.0000000e+00 1.2674072e-04 0.0000000e+00 
0.0000000e+00 1.4912113e-04 0.0000000e+00 
0.0000000e+00 1.7755869e-04 0.0000000e+00 
0.0000000e+00 2.2026230e-04 0.0000000e+00 
0.0000000e+00 2.5571446e-04 0.0000000e+00 
0.0000000e+00 2.0217399e-04 0.0000000e+00 
0.0000000e+00 2.9013058e-06 0.0000000e+00 
0.0000000e+00 -3.5033200e-04 0.0000000e+00 
0.0000000e+00 -8.6078205e-04 0.0000000e+00 
0.0000000e+00 -1.5454025e-03 0.0000000e+00 
0.0000000e+00 -2.4267444e-03 0.0000000e+00 
0.0000000e+00 -3.4182346e-03 0.0000000e+00 
0.0000000e+00 -4.1844104e-03 0.0000000e+00 
0.0000000e+00 -4.2184405e-03 0.0000000e+00 
0.0000000e+00 -4.0116906e-03 0.0000000e+00 
0.0000000e+00 -3.9781556e-03 0.0000000e+00 
0.0000000e+00 -4.1785515e-03 0.0000000e+00 
0.0000000e+00 -4.1636219e-03 0.0000000e+00 
0.0000000e+00 -3.4090797e-03 0.0000000e+00 
0.0000000e+00 -2.3478598e-03 0.0000000e+00 
0.0000000e+00 -1.4120023e-03 0.0000000e+00 
0.0000000e+00 -7.2293158e-04 0.0000000e+00 
0.0000000e+00 -2.8010897e-04 0.0000000e+00 
0.0000000e+00 -2.1943430e-05 0.0000000e+00 
0.0000000e+00 1.0906258e-04 0.0000000e+00 
0.0000000e+00 1.5411127e-04 0.0000000e+00 
0.0000000e+00 1.4691251e-04 0.0000000e+00 
0.0000000e+00 1.2161521e-04 0.0000000e+00 
0.0000000e+00 9.9988312e-05 0.0000000e+00 
0.0000000e+00 8.3288949e-05 0.0000000e+00 
0.0000000e+00 6.5977678e-05 0.0000000e+00 
0.0000000e+00 4.5729612e-05 0.0000000e+00 
0.0000000e+00 2.6962867e-05 0.0000000e+00 
0.0000000e+00 1.9015406e-05 0.0000000e+00 
1.9098468e-05 4.2333559e-05 3.1550964e-05 
3.8034261e-05 2.1121748e-04 9.7017808e-05 
0.0000000e+00 0.0000000e+00 0.0000000e+00 
0.0000000e+00 0.0000000e+00 0.0000000e+00 
0.0000000e+00 0.0000000e+00 0.0000000e+00 
0.0000000e+00 0.0000000e+00 0.0000000e+00 
0.0000000e+00 0.0000000e+00 0.0000000e+00 
0.0000000e+00 0.0000000e+00 0.0000000e+00 
0.0000000e+00 0.0000000e+00 0.0000000e+00 
0.0000000e+00 0.0000000e+00 0.0000000e+00 
0.0000000e+00 0.0000000e+00 0.0000000e+00 
0.0000000e+00 0.0000000e+00 0.0000000e+00 
0.0000000e+00 0.0000000e+00 0.0000000e+00 
0.0000000e+00 0.0000000e+00 0.0000000e+00 
0.0000000e+00 0.0000000e+00 0.0000000e+00 
0.0000000e+00 0.0000000e+00 0.0000000e+00 
0.0000000e+00 0.0000000e+00 0.0000000e+00 
0.0000000e+00 0.0000000e+00 0.0000000e+00 
0.0000000e+00 0.0000000e+00 0.0000000e+00 
0.0000000e+00 0.0000000e+00 0.0000000e+00 
0.0000000e+00 0.0000000e+00 0.0000000e+00 
0.0000000e+00 0.0000000e+00 0.0000000e+00 
0.0000000e+00 0.0000000e+00 0.0000000e+00 
0.0000000e+00 0.0000000e+00 0.0000000e+00 
0.0000000e+00 0.0000000e+00 0.0000000e+00 
0.0000000e+00 0.0000000e+00 0.0000000e+00 
0.0000000e+00 0.0000000e+00 0.0000000e+00 
0.0000000e+00 0.0000000e+00 0.0000000e+00 
0.0000000e+00 0.0000000e+00 0.0000000e+00 
0.0000000e+00 0.0000000e+00 0.0000000e+00 
0.0000000e+00 0.0000000e+00 0.0000000e+00 
0.0000000e+00 0.0000000e+00 0.0000000e+00 
0.0000000e+00 0.0000000e+00 0.0000000e+00 
0.0000000e+00 0.0000000e+00 0.0000000e+00 
0.0000000e+00 0.0000000e+00 0.0000000e+00 
0.0000000e+00 0.0000000e+00 0.0000000e+00 
0.0000000e+00 0.0000000e+00 0.0000000e+00 
0.0000000e+00 0.0000000e+00 0.0000000e+00 
0.0000000e+00 0.0000000e+00 0.0000000e+00 
0.0000000e+00 0.0000000e+00 0.0000000e+00 
0.0000000e+00 0.0000000e+00 0.0000000e+00 
0.0000000e+00 0.0000000e+00 0.0000000e+00 
0.0000000e+00 0.0000000e+00 0.0000000e+00 
0.0000000e+00 0.0000000e+00 0.0000000e+00 
0.0000000e+00 0.0000000e+00 0.0000000e+00 
0.0000000e+00 0.0000000e+00 0.0000000e+00 
0.0000000e+00 0.0000000e+00 0.0000000e+00 
0.0000000e+00 0.0000000e+00 0.0000000e+00 
0.0000000e+00 0.0000000e+00 0.0000000e+00 
0.0000000e+00 0.0000000e+00 0.0000000e+00 
0.0000000e+00 0.0000000e+00 0.0000000e+00 
0.0000000e+00 0.0000000e+00 0.0000000e+00 
0.0000000e+00 0.0000000e+00 0.0000000e+00 
0.0000000e+00 0.0000000e+00 0.0000000e+00 
6.3121183e-07 9.6826591e-07 -1.2425554e-06 
3.3149895e-06 1.9767824e-06 -6.7102810e-06 
2.1623657e-06 -1.3609640e-06 -4.5474121e-06 
-8.5701129e-07 -1.6727962e-06 -3.9065119e-07 
-4.5837460e-06 -2.3430466e-06 2.1854751e-06 
-1.0378742e-05 2.3583239e-07 1.0789198e-06 
-2.7113074e-06 -3.4258128e-06 -1.0854329e-06 
1.4493639e-05 -2.2843064e-06 -4.2751681e-06 
3.7284957e-05 -1.5619449e-06 -8.3480381e-06 
5.6154666e-05 -1.8330670e-06 -3.2427556e-06 
5.1673578e-05 -2.8675204e-06 8.4705234e-06 
2.7991004e-05 -1.7425002e-06 5.1476154e-06 
9.0674612e-06 1.9646384e-06 6.2079710e-07 
2.2720253e-06 1.4156003e-06 -2.5877118e-06 
-1.9640779e-06 2.2817467e-06 -2.6244311e-07 
-8.2372671e-06 -1.7690779e-06 1.8226242e-06 
-4.0127529e-06 1.3511807e-06 2.8266752e-06 
1.0350326e-05 -2.1870005e-06 2.2884119e-06 
3.4469991e-05 -1.1811275e-05 -6.9400094e-06 
5.4248274e-05 -1.2056483e-05 -1.1538990e-06 
4.1175175e-05 -8.7440849e-06 1.5680203e-05 
1.9948273e-05 -1.2735798e-06 1.3814712e-05 
4.0057048e-06 2.0883647e-06 3.8317166e-06 
9.7996281e-07 3.1583568e-06 -4.8887782e-06 
0.0000000e+00 -1.3929139e-05 0.0000000e+00 
0.0000000e+00 5.7755858e-07 0.0000000e+00 
0.0000000e+00 -1.6592821e-05 0.0000000e+00 
0.0000000e+00 -2.6781865e-05 0.0000000e+00 
0.0000000e+00 -3.7872036e-05 0.0000000e+00 
0.0000000e+00 -2.5772868e-05 0.0000000e+00 
0.0000000e+00 1.6489110e-05 0.0000000e+00 
0.0000000e+00 -8.3842227e-05 0.0000000e+00 
0.0000000e+00 -2.3669269e-04 0.0000000e+00 
0.0000000e+00 -5.4190779e-04 0.0000000e+00 
0.0000000e+00 -5.4519967e-04 0.0000000e+00 
0.0000000e+00 -2.1913310e-04 0.0000000e+00 
0.0000000e+00 -4.9071641e-05 0.0000000e+00 
0.0000000e+00 -3.8266735e-05 0.0000000e+00 
0.0000000e+00 -5.4042775e-05 0.0000000e+00 
0.0000000e+00 2.0118357e-05 0.0000000e+00 
0.0000000e+00 5.2398122e-05 0.0000000e+00 
0.0000000e+00 6.3739881e-06 0.0000000e+00 
0.0000000e+00 -2.0257689e-04 0.0000000e+00 
0.0000000e+00 -5.5292912e-04 0.0000000e+00 
0.0000000e+00 -5.2867999e-04 0.0000000e+00 
0.0000000e+00 -1.1979510e-04 0.0000000e+00 
0.0000000e+00 2.8164131e-05 0.0000000e+00 
0.0000000e+00 2.9170680e-05 0.0000000e+00 
1.1904389e-06 -3.3463294e-07 1.2280859e-06 
3.3561932e-06 -7.7066352e-06 -2.4012786e-06 
2.8940821e-07 7.1590755e-08 -9.2135660e-06 
4.7984590e-06 -6.3335478e-06 -1.2673858e-05 
1.3142147e-07 3.7717623e-06 -1.8104746e-06 
-7.9800839e-07 5.0865656e-06 -6.0449775e-06 
-4.4925008e-07 -2.9684577e-06 -4.0368141e-06 
-4.0494774e-07 -2.1478711e-06 -3.4301622e-06 
-5.6689050e-06 -2.1850076e-06 2.2811614e-06 
-1.0043595e-05 1.4770450e-06 6.5688624e-07 
-5.2799860e-06 -5.1897501e-07 -9.8740247e-07 
1.7599799e-05 -3.6114159e-06 -9.1025158e-06 
3.5667766e-05 -1.2206305e-06 -3.2033138e-06 
3.8755144e-05 -1.4956947e-06 1.3285204e-06 
2.6304639e-05 3.1888055e-07 9.5113555e-06 
8.9089826e-06 3.9234137e-06 6.8272584e-07 
4.6583732e-06 1.8540878e-06 -4.5638617e-06 
2.1710238e-07 -1.9761851e-06 -6.2045674e-06 
-5.8861456e-06 -6.4413939e-07 3.3359024e-06 
-1.9793583e-06 1.5801091e-06 -3.1608035e-06 
3.9658839e-06 4.3213695e-06 3.8343805e-06 
2.2524329e-05 -4.6932573e-06 2.4142082e-06 
2.8262539e-05 -9.6416779e-06 6.0160733e-06 
3.4825938e-05 -1.3506451e-05 -8.5819892e-07 
3.5734603e-05 3.6453930e-06 1.1791547e-05 
2.0917316e-05 1.8625885e-06 6.9940102e-06 
9.5310588e-06 4.3754267e-06 2.6733335e-06 
6.4258165e-06 2.8124487e-06 -3.9640026e-06 
-4.4498429e-06 -1.2585720e-05 -2.8911714e-07 
0.0000000e+00 -1.2541795e-05 0.0000000e+00 
0.0000000e+00 -8.2313245e-06 0.0000000e+00 
0.0000000e+00 -4.7580994e-05 0.0000000e+00 
0.0000000e+00 -6.0251885e-05 0.0000000e+00 
0.0000000e+00 -2.2085771e-06 0.0000000e+00 
0.0000000e+00 -4.4496530e-05 0.0000000e+00 
0.0000000e+00 -7.9887461e-05 0.0000000e+00 
0.0000000e+00 -1.3479435e-05 0.0000000e+00 
0.0000000e+00 -5.2097259e-04 0.0000000e+00 
0.0000000e+00 -1.2629827e-03 0.0000000e+00 
0.0000000e+00 -1.1932451e-03 0.0000000e+00 
0.0000000e+00 -4.4043633e-04 0.0000000e+00 
0.0000000e+00 -7.2823917e-05 0.0000000e+00 
0.0000000e+00 -6.0327158e-05 0.0000000e+00 
0.0000000e+00 -3.5973026e-05 0.0000000e+00 
0.0000000e+00 -4.4677334e-05 0.0000000e+00 
0.0000000e+00 1.1244632e-04 0.0000000e+00 
0.0000000e+00 1.3810348e-04 0.0000000e+00 
0.0000000e+00 -5.4109172e-04 0.0000000e+00 
0.0000000e+00 -1.2191485e-03 0.0000000e+00 
0.0000000e+00 -1.1527454e-03 0.0000000e+00 
0.0000000e+00 -2.3241322e-04 0.0000000e+00 
0.0000000e+00 5.2741354e-05 0.0000000e+00 
0.0000000e+00 5.5781897e-05 0.0000000e+00 
5.8372993e-06 -6.3149805e-06 -5.5638038e-06 
-2.6806038e-05 -1.9606756e-05 -5.6561894e-06 
-2.8861741e-06 -6.3523556e-05 1.4256060e-05 
2.7656897e-06 -9.4609473e-05 -4.0252862e-06 
-3.5090692e-05 -7.7662589e-05 -4.0331510e-05 
-2.8829952e-05 -8.4878211e-06 -3.8557442e-05 
-6.7504930e-06 8.6672098e-06 -2.5893439e-06 
3.6349818e-05 -2.1603519e-05 6.2207837e-05 
-1.6769113e-06 -5.6337245e-05 1.0582995e-04 
-3.1828249e-04 -5.5045384e-04 3.1341315e-04 
-7.3263969e-04 -1.4701349e-03 1.3367369e-04 
-6.5725524e-04 -1.5193766e-03 -9.7762168e-05 
-1.6930404e-04 -4.3160046e-04 -2.3637588e-04 
-1.6198093e-05 -1.0843843e-04 -1.0355415e-04 
-4.9551600e-05 -8.6604872e-05 -8.4413652e-05 
-3.9967133e-05 -4.6810506e-05 -1.0029863e-04 
4.3532946e-06 1.9281180e-05 -1.1069988e-04 
8.3205989e-05 1.4136250e-04 -3.2600114e-05 
5.8481808e-05 1.1081235e-04 1.4020220e-04 
-2.9406149e-04 -4.7958834e-04 3.4776295e-04 
-7.0721295e-04 -1.3535928e-03 9.0576068e-05 
-5.8778841e-04 -1.4433374e-03 -1.6173735e-04 
-1.1357663e-04 -1.9745489e-04 -1.8552675e-04 
9.4130946e-06 8.1593855e-05 -6.4435313e-05 
1.2017738e-05 6.0485214e-05 4.9409118e-06 
0.0000000e+00 -2.9477638e-05 0.0000000e+00 
0.0000000e+00 -3.9442923e-05 0.0000000e+00 
0.0000000e+00 -1.0252457e-04 0.0000000e+00 
0.0000000e+00 -5.3593281e-05 0.0000000e+00 
0.0000000e+00 -6.5849895e-06 0.0000000e+00 
0.0000000e+00 -1.2202028e-04 0.0000000e+00 
0.0000000e+00 -5.1490180e-05 0.0000000e+00 
0.0000000e+00 3.6137222e-05 0.0000000e+00 
0.0000000e+00 -9.1014913e-04 0.0000000e+00 
0.0000000e+00 -2.4330064e-03 0.0000000e+00 
0.0000000e+00 -2.3043684e-03 0.0000000e+00 
0.0000000e+00 -7.2727341e-04 0.0000000e+00 
0.0000000e+00 -5.8205329e-05 0.0000000e+00 
0.0000000e+00 -4.6549732e-05 0.0000000e+00 
0.0000000e+00 -1.0200377e-04 0.0000000e+00 
0.0000000e+00 -6.8417015e-05 0.0000000e+00 
0.0000000e+00 1.8274700e-04 0.0000000e+00 
0.0000000e+00 2.1564683e-04 0.0000000e+00 
0.0000000e+00 -1.0042255e-03 0.0000000e+00 
0.0000000e+00 -2.3960858e-03 0.0000000e+00 
0.0000000e+00 -2.2074212e-03 0.0000000e+00 
0.0000000e+00 -3.9195278e-04 0.0000000e+00 
0.0000000e+00 1.1683930e-04 0.0000000e+00 
0.0000000e+00 7.3994473e-05 0.0000000e+00 
-6.7360293e-06 -2.9016553e-07 -7.3301335e-06 
2.0702698e-06 -1.1059117e-05 -7.6370807e-06 
4.3438919e-07 -2.2702563e-05 -5.4745506e-06 
-7.2684020e-06 -1.0780259e-05 -5.2223286e-06 
-1.5714504e-05 1.3756473e-06 -5.4787361e-06 
-8.7291573e-06 8.1658200e-06 8.2367706e-07 
8.1500575e-06 1.1958123e-05 1.0551648e-05 
2.5078300e-05 1.2857935e-05 1.9557281e-05 
5.3225504e-05 -6.6843400e-05 1.3781878e-05 
4.2872296e-05 -1.1933578e-04 3.2545061e-06 
3.7658523e-05 -1.2309897e-04 1.1766243e-05 
4.0973580e-05 -8.2694445e-05 -9.4051467e-07 
1.0470490e-06 -1.2409745e-05 -1.8582392e-05 
-9.0764242e-06 -8.5744678e-06 -2.2032178e-05 
-1.1348741e-05 -1.0749854e-05 -2.3243239e-05 
-4.5331617e-06 1.0008570e-05 -2.2184089e-05 
7.8877729e-06 4.0045110e-05 8.4618904e-07 
4.1263040e-05 -6.9666632e-05 2.2340371e-05 
4.9674847e-05 -1.1808643e-04 -5.4209913e-06 
3.7667553e-05 -1.1245596e-04 1.4106177e-05 
3.4084311e-05 -2.7113980e-05 1.0452120e-05 
7.4305926e-06 1.8079090e-05 -6.2735289e-06 
2.9467346e-06 1.9324092e-05 -1.0811264e-05 
4.5450604e-05 1.0509689e-04 8.7684559e-05 
0.0000000e+00 0.0000000e+00 0.0000000e+00 
0.0000000e+00 0.0000000e+00 0.0000000e+00 
0.0000000e+00 0.0000000e+00 0.0000000e+00 