# vtk DataFile Version 4.0
vtk output
ASCII
DATASET UNSTRUCTURED_GRID
POINTS 1919 float
0.0000000e+00 0.0000000e+00 0.0000000e+00 
0.0000000e+00 0.0000000e+00 5.0000000e+01 
5.0000000e+00 0.0000000e+00 0.0000000e+00 
5.0000000e+00 0.0000000e+00 5.0000000e+01 
5.0000000e+00 1.0000000e+00 0.0000000e+00 
5.0000000e+00 1.0000000e+00 5.0000000e+01 
0.0000000e+00 1.0000000e+00 0.0000000e+00 
0.0000000e+00 1.0000000e+00 5.0000000e+01 
5.0000000e+00 2.0000000e+00 0.0000000e+00 
5.0000000e+00 2.0000000e+00 5.0000000e+01 
3.0000000e+00 2.0000000e+00 0.0000000e+00 
3.0000000e+00 2.0000000e+00 5.0000000e+01 
0.0000000e+00 2.0000000e+00 0.0000000e+00 
0.0000000e+00 2.0000000e+00 5.0000000e+01 
1.5000000e+00 3.0000000e+00 0.0000000e+00 
1.5000000e+00 3.0000000e+00 5.0000000e+01 
7.5000000e-01 3.0000000e+00 0.0000000e+00 
7.5000000e-01 3.0000000e+00 5.0000000e+01 
0.0000000e+00 3.0000000e+00 0.0000000e+00 
0.0000000e+00 3.0000000e+00 5.0000000e+01 
7.5000000e-01 3.0000000e+00 5.0000000e-01 
7.5000000e-01 3.0000000e+00 1.0000000e+00 
7.5000000e-01 3.0000000e+00 1.5000000e+00 
7.5000000e-01 3.0000000e+00 2.0000000e+00 
7.5000000e-01 3.0000000e+00 2.5000000e+00 
7.5000000e-01 3.0000000e+00 3.0000000e+00 
7.5000000e-01 3.0000000e+00 3.5000000e+00 
7.5000000e-01 3.0000000e+00 4.0000000e+00 
7.5000000e-01 3.0000000e+00 4.5000000e+00 
7.5000000e-01 3.0000000e+00 5.0000000e+00 
7.5000000e-01 3.0000000e+00 5.5000000e+00 
7.5000000e-01 3.0000000e+00 6.0000000e+00 
7.5000000e-01 3.0000000e+00 6.5000000e+00 
7.5000000e-01 3.0000000e+00 7.0000000e+00 
7.5000000e-01 3.0000000e+00 7.5000000e+00 
7.5000000e-01 3.0000000e+00 8.0000000e+00 
7.5000000e-01 3.0000000e+00 8.5000000e+00 
7.5000000e-01 3.0000000e+00 9.0000000e+00 
7.5000000e-01 3.0000000e+00 9.5000000e+00 
7.5000000e-01 3.0000000e+00 1.0000000e+01 
7.5000000e-01 3.0000000e+00 1.0500000e+01 
7.5000000e-01 3.0000000e+00 1.1000000e+01 
7.5000000e-01 3.0000000e+00 1.1500000e+01 
7.5000000e-01 3.0000000e+00 1.2000000e+01 
7.5000000e-01 3.0000000e+00 1.2500000e+01 
7.5000000e-01 3.0000000e+00 1.3000000e+01 
7.5000000e-01 3.0000000e+00 1.3500000e+01 
7.5000000e-01 3.0000000e+00 1.4000000e+01 
7.5000000e-01 3.0000000e+00 1.4500000e+01 
7.5000000e-01 3.0000000e+00 1.5000000e+01 
7.5000000e-01 3.0000000e+00 1.5500000e+01 
7.5000000e-01 3.0000000e+00 1.6000000e+01 
7.5000000e-01 3.0000000e+00 1.6500000e+01 
7.5000000e-01 3.0000000e+00 1.7000000e+01 
7.5000000e-01 3.0000000e+00 1.7500000e+01 
7.5000000e-01 3.0000000e+00 1.8000000e+01 
7.5000000e-01 3.0000000e+00 1.8500000e+01 
7.5000000e-01 3.0000000e+00 1.9000000e+01 
7.5000000e-01 3.0000000e+00 1.9500000e+01 
7.5000000e-01 3.0000000e+00 2.0000000e+01 
7.5000000e-01 3.0000000e+00 2.0500000e+01 
7.5000000e-01 3.0000000e+00 2.1000000e+01 
7.5000000e-01 3.0000000e+00 2.1500000e+01 
7.5000000e-01 3.0000000e+00 2.2000000e+01 
7.5000000e-01 3.0000000e+00 2.2500000e+01 
7.5000000e-01 3.0000000e+00 2.3000000e+01 
7.5000000e-01 3.0000000e+00 2.3500000e+01 
7.5000000e-01 3.0000000e+00 2.4000000e+01 
7.5000000e-01 3.0000000e+00 2.4500000e+01 
7.5000000e-01 3.0000000e+00 2.5000000e+01 
7.5000000e-01 3.0000000e+00 2.5500000e+01 
7.5000000e-01 3.0000000e+00 2.6000000e+01 
7.5000000e-01 3.0000000e+00 2.6500000e+01 
7.5000000e-01 3.0000000e+00 2.7000000e+01 
7.5000000e-01 3.0000000e+00 2.7500000e+01 
7.5000000e-01 3.0000000e+00 2.8000000e+01 
7.5000000e-01 3.0000000e+00 2.8500000e+01 
7.5000000e-01 3.0000000e+00 2.9000000e+01 
7.5000000e-01 3.0000000e+00 2.9500000e+01 
7.5000000e-01 3.0000000e+00 3.0000000e+01 
7.5000000e-01 3.0000000e+00 3.0500000e+01 
7.5000000e-01 3.0000000e+00 3.1000000e+01 
7.5000000e-01 3.0000000e+00 3.1500000e+01 
7.5000000e-01 3.0000000e+00 3.2000000e+01 
7.5000000e-01 3.0000000e+00 3.2500000e+01 
7.5000000e-01 3.0000000e+00 3.3000000e+01 
7.5000000e-01 3.0000000e+00 3.3500000e+01 
7.5000000e-01 3.0000000e+00 3.4000000e+01 
7.5000000e-01 3.0000000e+00 3.4500000e+01 
7.5000000e-01 3.0000000e+00 3.5000000e+01 
7.5000000e-01 3.0000000e+00 3.5500000e+01 
7.5000000e-01 3.0000000e+00 3.6000000e+01 
7.5000000e-01 3.0000000e+00 3.6500000e+01 
7.5000000e-01 3.0000000e+00 3.7000000e+01 
7.5000000e-01 3.0000000e+00 3.7500000e+01 
7.5000000e-01 3.0000000e+00 3.8000000e+01 
7.5000000e-01 3.0000000e+00 3.8500000e+01 
7.5000000e-01 3.0000000e+00 3.9000000e+01 
7.5000000e-01 3.0000000e+00 3.9500000e+01 
7.5000000e-01 3.0000000e+00 4.0000000e+01 
7.5000000e-01 3.0000000e+00 4.0500000e+01 
7.5000000e-01 3.0000000e+00 4.1000000e+01 
7.5000000e-01 3.0000000e+00 4.1500000e+01 
7.5000000e-01 3.0000000e+00 4.2000000e+01 
7.5000000e-01 3.0000000e+00 4.2500000e+01 
7.5000000e-01 3.0000000e+00 4.3000000e+01 
7.5000000e-01 3.0000000e+00 4.3500000e+01 
7.5000000e-01 3.0000000e+00 4.4000000e+01 
7.5000000e-01 3.0000000e+00 4.4500000e+01 
7.5000000e-01 3.0000000e+00 4.5000000e+01 
7.5000000e-01 3.0000000e+00 4.5500000e+01 
7.5000000e-01 3.0000000e+00 4.6000000e+01 
7.5000000e-01 3.0000000e+00 4.6500000e+01 
7.5000000e-01 3.0000000e+00 4.7000000e+01 
7.5000000e-01 3.0000000e+00 4.7500000e+01 
7.5000000e-01 3.0000000e+00 4.8000000e+01 
7.5000000e-01 3.0000000e+00 4.8500000e+01 
7.5000000e-01 3.0000000e+00 4.9000000e+01 
7.5000000e-01 3.0000000e+00 4.9500000e+01 
7.5000000e-01 3.0250001e+00 0.0000000e+00 
7.5000000e-01 3.0250001e+00 5.0000000e-01 
7.5000000e-01 3.0250001e+00 1.0000000e+00 
7.5000000e-01 3.0250001e+00 1.5000000e+00 
7.5000000e-01 3.0250001e+00 2.0000000e+00 
7.5000000e-01 3.0250001e+00 2.5000000e+00 
7.5000000e-01 3.0250001e+00 3.0000000e+00 
7.5000000e-01 3.0250001e+00 3.5000000e+00 
7.5000000e-01 3.0250001e+00 4.0000000e+00 
7.5000000e-01 3.0250001e+00 4.5000000e+00 
7.5000000e-01 3.0250001e+00 5.0000000e+00 
7.5000000e-01 3.0250001e+00 5.5000000e+00 
7.5000000e-01 3.0250001e+00 6.0000000e+00 
7.5000000e-01 3.0250001e+00 6.5000000e+00 
7.5000000e-01 3.0250001e+00 7.0000000e+00 
7.5000000e-01 3.0250001e+00 7.5000000e+00 
7.5000000e-01 3.0250001e+00 8.0000000e+00 
7.5000000e-01 3.0250001e+00 8.5000000e+00 
7.5000000e-01 3.0250001e+00 9.0000000e+00 
7.5000000e-01 3.0250001e+00 9.5000000e+00 
7.5000000e-01 3.0250001e+00 1.0000000e+01 
7.5000000e-01 3.0250001e+00 1.0500000e+01 
7.5000000e-01 3.0250001e+00 1.1000000e+01 
7.5000000e-01 3.0250001e+00 1.1500000e+01 
7.5000000e-01 3.0250001e+00 1.2000000e+01 
7.5000000e-01 3.0250001e+00 1.2500000e+01 
7.5000000e-01 3.0250001e+00 1.3000000e+01 
7.5000000e-01 3.0250001e+00 1.3500000e+01 
7.5000000e-01 3.0250001e+00 1.4000000e+01 
7.5000000e-01 3.0250001e+00 1.4500000e+01 
7.5000000e-01 3.0250001e+00 1.5000000e+01 
7.5000000e-01 3.0250001e+00 1.5500000e+01 
7.5000000e-01 3.0250001e+00 1.6000000e+01 
7.5000000e-01 3.0250001e+00 1.6500000e+01 
7.5000000e-01 3.0250001e+00 1.7000000e+01 
7.5000000e-01 3.0250001e+00 1.7500000e+01 
7.5000000e-01 3.0250001e+00 1.8000000e+01 
7.5000000e-01 3.0250001e+00 1.8500000e+01 
7.5000000e-01 3.0250001e+00 1.9000000e+01 
7.5000000e-01 3.0250001e+00 1.9500000e+01 
7.5000000e-01 3.0250001e+00 2.0000000e+01 
7.5000000e-01 3.0250001e+00 2.0500000e+01 
7.5000000e-01 3.0250001e+00 2.1000000e+01 
7.5000000e-01 3.0250001e+00 2.1500000e+01 
7.5000000e-01 3.0250001e+00 2.2000000e+01 
7.5000000e-01 3.0250001e+00 2.2500000e+01 
7.5000000e-01 3.0250001e+00 2.3000000e+01 
7.5000000e-01 3.0250001e+00 2.3500000e+01 
7.5000000e-01 3.0250001e+00 2.4000000e+01 
7.5000000e-01 3.0250001e+00 2.4500000e+01 
7.5000000e-01 3.0250001e+00 2.5000000e+01 
7.5000000e-01 3.0250001e+00 2.5500000e+01 
7.5000000e-01 3.0250001e+00 2.6000000e+01 
7.5000000e-01 3.0250001e+00 2.6500000e+01 
7.5000000e-01 3.0250001e+00 2.7000000e+01 
7.5000000e-01 3.0250001e+00 2.7500000e+01 
7.5000000e-01 3.0250001e+00 2.8000000e+01 
7.5000000e-01 3.0250001e+00 2.8500000e+01 
7.5000000e-01 3.0250001e+00 2.9000000e+01 
7.5000000e-01 3.0250001e+00 2.9500000e+01 
7.5000000e-01 3.0250001e+00 3.0000000e+01 
7.5000000e-01 3.0250001e+00 3.0500000e+01 
7.5000000e-01 3.0250001e+00 3.1000000e+01 
7.5000000e-01 3.0250001e+00 3.1500000e+01 
7.5000000e-01 3.0250001e+00 3.2000000e+01 
7.5000000e-01 3.0250001e+00 3.2500000e+01 
7.5000000e-01 3.0250001e+00 3.3000000e+01 
7.5000000e-01 3.0250001e+00 3.3500000e+01 
7.5000000e-01 3.0250001e+00 3.4000000e+01 
7.5000000e-01 3.0250001e+00 3.4500000e+01 
7.5000000e-01 3.0250001e+00 3.5000000e+01 
7.5000000e-01 3.0250001e+00 3.5500000e+01 
7.5000000e-01 3.0250001e+00 3.6000000e+01 
7.5000000e-01 3.0250001e+00 3.6500000e+01 
7.5000000e-01 3.0250001e+00 3.7000000e+01 
7.5000000e-01 3.0250001e+00 3.7500000e+01 
7.5000000e-01 3.0250001e+00 3.8000000e+01 
7.5000000e-01 3.0250001e+00 3.8500000e+01 
7.5000000e-01 3.0250001e+00 3.9000000e+01 
7.5000000e-01 3.0250001e+00 3.9500000e+01 
7.5000000e-01 3.0250001e+00 4.0000000e+01 
7.5000000e-01 3.0250001e+00 4.0500000e+01 
7.5000000e-01 3.0250001e+00 4.1000000e+01 
7.5000000e-01 3.0250001e+00 4.1500000e+01 
7.5000000e-01 3.0250001e+00 4.2000000e+01 
7.5000000e-01 3.0250001e+00 4.2500000e+01 
7.5000000e-01 3.0250001e+00 4.3000000e+01 
7.5000000e-01 3.0250001e+00 4.3500000e+01 
7.5000000e-01 3.0250001e+00 4.4000000e+01 
7.5000000e-01 3.0250001e+00 4.4500000e+01 
7.5000000e-01 3.0250001e+00 4.5000000e+01 
7.5000000e-01 3.0250001e+00 4.5500000e+01 
7.5000000e-01 3.0250001e+00 4.6000000e+01 
7.5000000e-01 3.0250001e+00 4.6500000e+01 
7.5000000e-01 3.0250001e+00 4.7000000e+01 
7.5000000e-01 3.0250001e+00 4.7500000e+01 
7.5000000e-01 3.0250001e+00 4.8000000e+01 
7.5000000e-01 3.0250001e+00 4.8500000e+01 
7.5000000e-01 3.0250001e+00 4.9000000e+01 
7.5000000e-01 3.0250001e+00 4.9500000e+01 
7.5000000e-01 3.0250001e+00 5.0000000e+01 
3.0000000e+00 2.0000000e+00 3.6000000e+01 
8.0487806e-01 3.0000000e+00 3.6000000e+01 
0.0000000e+00 0.0000000e+00 1.0000000e+00 
0.0000000e+00 0.0000000e+00 2.0000000e+00 
0.0000000e+00 0.0000000e+00 3.0000000e+00 
0.0000000e+00 0.0000000e+00 4.0000000e+00 
0.0000000e+00 0.0000000e+00 5.0000000e+00 
0.0000000e+00 0.0000000e+00 6.0000000e+00 
0.0000000e+00 0.0000000e+00 7.0000000e+00 
0.0000000e+00 0.0000000e+00 8.0000000e+00 
[...]
POINT_DATA 1919
FIELD FieldData 3
DISPLACEMENT 3 1919  float
0.0000000e+00 0.0000000e+00 0.0000000e+00 
0.0000000e+00 0.0000000e+00 0.0000000e+00 
0.0000000e+00 0.0000000e+00 0.0000000e+00 
0.0000000e+00 0.0000000e+00 0.0000000e+00 
1.1854399e-05 -1.6585231e-05 -1.7827459e-05 
-5.7969993e-09 8.3565972e-09 -5.8319931e-09 
0.0000000e+00 -8.8873694e-06 0.0000000e+00 
0.0000000e+00 -1.2019243e-08 0.0000000e+00 
1.0622265e-04 -4.8891998e-05 -7.8065990e-05 
-7.7319724e-09 5.0163314e-09 -8.7218908e-09 
9.4852421e-06 -4.5926939e-05 -8.0965045e-05 
-5.8283716e-09 3.0595860e-08 -1.9646673e-09 
0.0000000e+00 5.6849251e-05 0.0000000e+00 
0.0000000e+00 -9.1467804e-08 0.0000000e+00 
-1.3155607e-05 -7.3138282e-05 8.8248180e-06 
8.0749544e-08 -2.1790729e-07 7.8620644e-08 
7.4897507e-05 4.2647542e-04 3.3374021e-05 
1.5182311e-08 -4.7032293e-07 -7.6643779e-08 
0.0000000e+00 4.3259595e-05 0.0000000e+00 
0.0000000e+00 -1.3725722e-07 0.0000000e+00 
-1.4734710e-05 3.8910614e-04 1.0591805e-04 
-7.8368539e-06 2.2738126e-04 1.4170323e-04 
6.5173524e-05 -1.7307204e-04 2.1512306e-04 
-3.6783895e-05 -9.1249513e-04 2.0292755e-04 
1.1512891e-05 -2.0037051e-03 2.9737243e-04 
-2.3558612e-04 -3.2608884e-03 2.0161009e-04 
-2.8407204e-04 -4.2652441e-03 2.7291154e-04 
-2.6857835e-04 -4.4616014e-03 1.0232165e-04 
-3.4201657e-04 -4.4246139e-03 2.1243275e-05 
-3.7274990e-04 -4.5742746e-03 1.2430110e-05 
-3.3924205e-04 -4.9688658e-03 2.7712131e-05 
-2.8712748e-04 -5.0729029e-03 -4.1346419e-05 
-2.6705864e-04 -4.3145847e-03 -1.6111742e-04 
-2.1023356e-04 -3.1028448e-03 -1.4277318e-04 
-1.8121141e-04 -1.9523817e-03 -3.1386784e-04 
-1.2255127e-04 -1.0628417e-03 -2.5396477e-04 
-5.9594811e-05 -4.9146556e-04 -3.2858519e-04 
-1.0936722e-05 -1.6421656e-04 -2.5918605e-04 
2.9324179e-05 1.7164957e-05 -1.8055594e-04 
3.0515512e-05 1.1757821e-04 -7.9205078e-05 
2.4769566e-05 1.6114977e-04 6.0873358e-06 
1.8675753e-05 1.5774764e-04 5.9280592e-05 
5.1043389e-06 1.2595567e-04 5.6782388e-05 
-2.3840178e-06 9.6736570e-05 5.8348243e-05 
-1.1475096e-06 9.1137859e-05 3.8718998e-05 
-8.5540350e-06 9.3964940e-05 -1.0847305e-06 
-4.9599316e-06 7.7034303e-05 -2.8510240e-05 
1.1620723e-06 3.2041797e-05 -5.1128434e-05 
7.4536351e-06 -2.1181781e-05 -3.0914984e-05 
5.1784568e-06 -4.8049224e-05 -6.8616241e-06 
-1.2523525e-05 -3.6208639e-05 -8.0229102e-06 
2.5727513e-06 -4.5512411e-06 -2.6293492e-05 
-8.0493106e-07 1.8382758e-05 -5.2135310e-05 
-1.2149898e-05 1.9697962e-05 -5.4467138e-05 
-6.0328698e-06 1.9424004e-05 -3.4034583e-05 
1.1369561e-05 6.5592219e-05 -2.9324425e-05 
1.6696222e-05 1.8692114e-04 -2.9328759e-05 
2.1709378e-05 3.5592489e-04 -8.5290194e-06 
8.1269172e-05 5.0471292e-04 5.2753671e-07 
5.2269545e-05 5.4943620e-04 -4.4119738e-06 
8.7901950e-05 4.4773534e-04 4.8954855e-05 
6.0872560e-05 1.7810035e-04 9.0934576e-05 
7.8334553e-05 -3.0603554e-04 2.2550937e-04 
-2.1342417e-05 -1.0656959e-03 1.8915006e-04 
-3.6491583e-06 -2.1363203e-03 3.8456704e-04 
-9.9923025e-05 -3.3723332e-03 2.4370190e-04 
-1.6231305e-04 -4.3390198e-03 3.1314077e-04 
-2.0912979e-04 -4.4885580e-03 2.3900619e-04 
-2.8492440e-04 -4.3958589e-03 2.0942019e-04 
-3.5276596e-04 -4.4918768e-03 6.8293593e-05 
-3.4388213e-04 -4.8240442e-03 -2.5944872e-05 
-3.4517117e-04 -4.8692869e-03 -1.5641903e-04 
-3.2814188e-04 -4.0907767e-03 -3.0311546e-04 
-2.2275052e-04 -2.8971783e-03 -1.9583871e-04 
-1.8047987e-04 -1.7954484e-03 -3.1488447e-04 
-1.0445188e-04 -9.5599669e-04 -2.2018563e-04 
-4.6875266e-05 -4.1447073e-04 -2.6473415e-04 
-5.5430319e-06 -9.6477794e-05 -1.9804674e-04 
1.7434031e-05 8.1341896e-05 -1.5529855e-04 
3.6997881e-05 1.6899967e-04 -6.0723247e-05 
2.4299326e-05 1.9007918e-04 9.9628078e-06 
1.7271501e-05 1.6902044e-04 5.0255509e-05 
7.4434865e-06 1.3285206e-04 5.9500522e-05 
-9.7187421e-07 9.6342723e-05 3.9638315e-05 
5.3808361e-07 6.2705891e-05 2.9736699e-05 
-2.5474183e-06 2.9352264e-05 9.1685388e-06 
-2.4697988e-06 -3.6058898e-06 1.4278418e-06 
-9.9841589e-07 -2.8471977e-05 -7.3340047e-06 
-2.8642742e-06 -3.6077083e-05 -7.7345103e-06 
1.4524758e-06 -2.8269120e-05 -8.2221841e-06 
1.1647846e-06 -1.4187806e-05 -2.4511210e-06 
-5.0735179e-07 -3.2011901e-06 -4.9349507e-07 
1.8177383e-07 2.4042636e-06 -5.6974619e-07 
9.4611510e-09 4.1267640e-06 5.4597439e-07 
5.1717069e-07 3.9358019e-06 3.7420051e-07 
3.3132255e-07 2.6342416e-06 1.4790788e-06 
-2.2283993e-07 8.4657756e-07 4.2508961e-07 
-2.0735038e-07 -2.8326852e-07 -9.2283244e-08 
1.7094986e-07 1.3461072e-07 3.7103047e-07 
1.8055719e-07 1.1770024e-06 -6.1511594e-07 
1.6630837e-07 1.2587649e-06 9.8402928e-08 
8.2986432e-08 4.3615962e-08 2.4044684e-07 
-2.4559114e-07 -1.5571679e-06 -4.4085968e-07 
-2.3794678e-07 -2.1751548e-06 9.2992465e-08 
-4.1498623e-08 -1.1790337e-06 -7.5739173e-08 
8.5230674e-08 5.1210623e-07 -7.7456306e-08 
2.0028305e-07 1.5717186e-06 2.5435162e-07 
-8.8218997e-08 1.4389608e-06 -9.7705374e-08 
2.9171391e-08 4.5270920e-07 -1.2974732e-08 
-9.7325270e-08 -5.4688621e-07 1.1728513e-07 
-3.4359878e-08 -9.2133916e-07 -2.1541652e-07 
1.6185328e-09 -7.2948319e-07 7.2449119e-08 
-2.6010319e-08 -2.6809886e-07 7.4431419e-08 
-7.2248987e-08 1.9475131e-07 -8.6782428e-08 
1.9722640e-08 4.6569758e-07 1.0018121e-07 
2.7963514e-08 5.5657694e-07 -3.4614299e-08 
-4.5332694e-08 4.4501544e-07 -4.3454136e-08 
3.8537419e-08 9.9240694e-08 -1.1696650e-08 
-6.6362453e-09 -2.9278331e-07 3.7382165e-08 
0.0000000e+00 4.2858275e-04 0.0000000e+00 
0.0000000e+00 3.9157679e-04 0.0000000e+00 
0.0000000e+00 2.2781605e-04 0.0000000e+00 
0.0000000e+00 -1.7597739e-04 0.0000000e+00 
0.0000000e+00 -9.2110684e-04 0.0000000e+00 
0.0000000e+00 -2.0163534e-03 0.0000000e+00 
0.0000000e+00 -3.2882807e-03 0.0000000e+00 
0.0000000e+00 -4.2850859e-03 0.0000000e+00 
0.0000000e+00 -4.4902833e-03 0.0000000e+00 
0.0000000e+00 -4.4438546e-03 0.0000000e+00 
0.0000000e+00 -4.6037226e-03 0.0000000e+00 
0.0000000e+00 -4.9918289e-03 0.0000000e+00 
0.0000000e+00 -5.1026735e-03 0.0000000e+00 
0.0000000e+00 -4.3328437e-03 0.0000000e+00 
0.0000000e+00 -3.1199858e-03 0.0000000e+00 
0.0000000e+00 -1.9601216e-03 0.0000000e+00 
0.0000000e+00 -1.0688254e-03 0.0000000e+00 
0.0000000e+00 -4.9189496e-04 0.0000000e+00 
0.0000000e+00 -1.6186737e-04 0.0000000e+00 
0.0000000e+00 1.9165896e-05 0.0000000e+00 
0.0000000e+00 1.1783507e-04 0.0000000e+00 
0.0000000e+00 1.6046640e-04 0.0000000e+00 
0.0000000e+00 1.5735818e-04 0.0000000e+00 
0.0000000e+00 1.2674253e-04 0.0000000e+00 
0.0000000e+00 9.8580727e-05 0.0000000e+00 
0.0000000e+00 9.1783659e-05 0.0000000e+00 
0.0000000e+00 9.2968141e-05 0.0000000e+00 
0.0000000e+00 7.5609430e-05 0.0000000e+00 
0.0000000e+00 3.1348354e-05 0.0000000e+00 
0.0000000e+00 -2.0096724e-05 0.0000000e+00 
0.0000000e+00 -4.6586647e-05 0.0000000e+00 
0.0000000e+00 -3.5717072e-05 0.0000000e+00 
0.0000000e+00 -5.2651799e-06 0.0000000e+00 
0.0000000e+00 1.6721153e-05 0.0000000e+00 
0.0000000e+00 1.8089406e-05 0.0000000e+00 
0.0000000e+00 1.9876501e-05 0.0000000e+00 
0.0000000e+00 6.8017405e-05 0.0000000e+00 
0.0000000e+00 1.8947257e-04 0.0000000e+00 
0.0000000e+00 3.5765028e-04 0.0000000e+00 
0.0000000e+00 5.0322438e-04 0.0000000e+00 
0.0000000e+00 5.4828939e-04 0.0000000e+00 
0.0000000e+00 4.4838779e-04 0.0000000e+00 
0.0000000e+00 1.7863911e-04 0.0000000e+00 
0.0000000e+00 -3.0676051e-04 0.0000000e+00 
0.0000000e+00 -1.0738530e-03 0.0000000e+00 
0.0000000e+00 -2.1516897e-03 0.0000000e+00 
0.0000000e+00 -3.4003789e-03 0.0000000e+00 
0.0000000e+00 -4.3622106e-03 0.0000000e+00 
0.0000000e+00 -4.5164651e-03 0.0000000e+00 
0.0000000e+00 -4.4162734e-03 0.0000000e+00 
0.0000000e+00 -4.5206966e-03 0.0000000e+00 
0.0000000e+00 -4.8469594e-03 0.0000000e+00 
0.0000000e+00 -4.8994706e-03 0.0000000e+00 
0.0000000e+00 -4.1068019e-03 0.0000000e+00 
0.0000000e+00 -2.9146776e-03 0.0000000e+00 
0.0000000e+00 -1.8024535e-03 0.0000000e+00 
0.0000000e+00 -9.6042780e-04 0.0000000e+00 
0.0000000e+00 -4.1432484e-04 0.0000000e+00 
0.0000000e+00 -9.4766961e-05 0.0000000e+00 
0.0000000e+00 8.2393148e-05 0.0000000e+00 
0.0000000e+00 1.6891297e-04 0.0000000e+00 
0.0000000e+00 1.9021561e-04 0.0000000e+00 
0.0000000e+00 1.6993513e-04 0.0000000e+00 
0.0000000e+00 1.3342434e-04 0.0000000e+00 
0.0000000e+00 9.6371135e-05 0.0000000e+00 
0.0000000e+00 6.2466403e-05 0.0000000e+00 
0.0000000e+00 2.9128356e-05 0.0000000e+00 
0.0000000e+00 -3.4985053e-06 0.0000000e+00 
0.0000000e+00 -2.7903721e-05 0.0000000e+00 
0.0000000e+00 -3.5837802e-05 0.0000000e+00 
0.0000000e+00 -2.8396478e-05 0.0000000e+00 
0.0000000e+00 -1.4550268e-05 0.0000000e+00 
0.0000000e+00 -3.3069691e-06 0.0000000e+00 
0.0000000e+00 2.4383655e-06 0.0000000e+00 
0.0000000e+00 4.1578814e-06 0.0000000e+00 
0.0000000e+00 3.9187885e-06 0.0000000e+00 
0.0000000e+00 2.6270186e-06 0.0000000e+00 
0.0000000e+00 8.8685294e-07 0.0000000e+00 
0.0000000e+00 -1.9261206e-07 0.0000000e+00 
0.0000000e+00 1.4418825e-07 0.0000000e+00 
0.0000000e+00 1.0912100e-06 0.0000000e+00 
0.0000000e+00 1.2051706e-06 0.0000000e+00 
0.0000000e+00 5.1408843e-08 0.0000000e+00 
0.0000000e+00 -1.5069369e-06 0.0000000e+00 
0.0000000e+00 -2.1099795e-06 0.0000000e+00 
0.0000000e+00 -1.1790364e-06 0.0000000e+00 
0.0000000e+00 4.6334904e-07 0.0000000e+00 
0.0000000e+00 1.5330321e-06 0.0000000e+00 
0.0000000e+00 1.4243993e-06 0.0000000e+00 
0.0000000e+00 4.6936864e-07 0.0000000e+00 
0.0000000e+00 -5.0905464e-07 0.0000000e+00 
0.0000000e+00 -9.1097553e-07 0.0000000e+00 
0.0000000e+00 -7.3560017e-07 0.0000000e+00 
0.0000000e+00 -2.7753154e-07 0.0000000e+00 
0.0000000e+00 1.7750834e-07 0.0000000e+00 
0.0000000e+00 4.6604839e-07 0.0000000e+00 
0.0000000e+00 5.6629347e-07 0.0000000e+00 
0.0000000e+00 4.4486467e-07 0.0000000e+00 
0.0000000e+00 1.0023797e-07 0.0000000e+00 
0.0000000e+00 -2.9232939e-07 0.0000000e+00 
0.0000000e+00 -4.7014794e-07 0.0000000e+00 
9.6234680e-07 -3.1315457e-07 -1.4225749e-06 
-3.7809116e-07 -4.6068471e-06 -1.2033166e-07 
0.0000000e+00 0.0000000e+00 0.0000000e+00 
0.0000000e+00 0.0000000e+00 0.0000000e+00 
0.0000000e+00 0.0000000e+00 0.0000000e+00 
0.0000000e+00 0.0000000e+00 0.0000000e+00 
0.0000000e+00 0.0000000e+00 0.0000000e+00 
0.0000000e+00 0.0000000e+00 0.0000000e+00 
0.0000000e+00 0.0000000e+00 0.0000000e+00 
0.0000000e+00 0.0000000e+00 0.0000000e+00 
0.0000000e+00 0.0000000e+00 0.0000000e+00 
0.0000000e+00 0.0000000e+00 0.0000000e+00 
0.0000000e+00 0.0000000e+00 0.0000000e+00 
0.0000000e+00 0.0000000e+00 0.0000000e+00 
0.0000000e+00 0.0000000e+00 0.0000000e+00 
0.0000000e+00 0.0000000e+00 0.0000000e+00 
0.0000000e+00 0.0000000e+00 0.0000000e+00 
0.0000000e+00 0.0000000e+00 0.0000000e+00 
0.0000000e+00 0.0000000e+00 0.0000000e+00 
0.0000000e+00 0.0000000e+00 0.0000000e+00 
0.0000000e+00 0.0000000e+00 0.0000000e+00 
0.0000000e+00 0.0000000e+00 0.0000000e+00 
0.0000000e+00 0.0000000e+00 0.0000000e+00 
0.0000000e+00 0.0000000e+00 0.0000000e+00 
0.0000000e+00 0.0000000e+00 0.0000000e+00 
0.0000000e+00 0.0000000e+00 0.0000000e+00 
0.0000000e+00 0.0000000e+00 0.0000000e+00 
0.0000000e+00 0.0000000e+00 0.0000000e+00 
0.0000000e+00 0.0000000e+00 0.0000000e+00 
0.0000000e+00 0.0000000e+00 0.0000000e+00 
0.0000000e+00 0.0000000e+00 0.0000000e+00 
0.0000000e+00 0.0000000e+00 0.0000000e+00 
0.0000000e+00 0.0000000e+00 0.0000000e+00 
0.0000000e+00 0.0000000e+00 0.0000000e+00 
0.0000000e+00 0.0000000e+00 0.0000000e+00 
0.0000000e+00 0.0000000e+00 0.0000000e+00 
0.0000000e+00 0.0000000e+00 0.0000000e+00 
0.0000000e+00 0.0000000e+00 0.0000000e+00 
0.0000000e+00 0.0000000e+00 0.0000000e+00 
0.0000000e+00 0.0000000e+00 0.0000000e+00 
0.0000000e+00 0.0000000e+00 0.0000000e+00 
0.0000000e+00 0.0000000e+00 0.0000000e+00 
0.0000000e+00 0.0000000e+00 0.0000000e+00 
0.0000000e+00 0.0000000e+00 0.0000000e+00 
0.0000000e+00 0.0000000e+00 0.0000000e+00 
0.0000000e+00 0.0000000e+00 0.0000000e+00 
0.0000000e+00 0.0000000e+00 0.0000000e+00 
0.0000000e+00 0.0000000e+00 0.0000000e+00 
0.0000000e+00 0.0000000e+00 0.0000000e+00 
0.0000000e+00 0.0000000e+00 0.0000000e+00 
0.0000000e+00 0.0000000e+00 0.0000000e+00 
0.0000000e+00 0.0000000e+00 0.0000000e+00 
0.0000000e+00 0.0000000e+00 0.0000000e+00 
0.0000000e+00 0.0000000e+00 0.0000000e+00 
0.0000000e+00 0.0000000e+00 0.0000000e+00 
0.0000000e+00 0.0000000e+00 0.0000000e+00 
0.0000000e+00 0.0000000e+00 0.0000000e+00 
0.0000000e+00 0.0000000e+00 0.0000000e+00 
0.0000000e+00 0.0000000e+00 0.0000000e+00 
0.0000000e+00 0.0000000e+00 0.0000000e+00 
0.0000000e+00 0.0000000e+00 0.0000000e+00 
0.0000000e+00 0.0000000e+00 0.0000000e+00 
0.0000000e+00 0.0000000e+00 0.0000000e+00 
0.0000000e+00 0.0000000e+00 0.0000000e+00 
0.0000000e+00 0.0000000e+00 0.0000000e+00 
0.0000000e+00 0.0000000e+00 0.0000000e+00 
0.0000000e+00 0.0000000e+00 0.0000000e+00 
0.0000000e+00 0.0000000e+00 0.0000000e+00 
0.0000000e+00 0.0000000e+00 0.0000000e+00 
0.0000000e+00 0.0000000e+00 0.0000000e+00 
0.0000000e+00 0.0000000e+00 0.0000000e+00 
0.0000000e+00 0.0000000e+00 0.0000000e+00 
0.0000000e+00 0.0000000e+00 0.0000000e+00 
0.0000000e+00 0.0000000e+00 0.0000000e+00 
0.0000000e+00 0.0000000e+00 0.0000000e+00 
0.0000000e+00 0.0000000e+00 0.0000000e+00 
0.0000000e+00 0.0000000e+00 0.0000000e+00 
0.0000000e+00 0.0000000e+00 0.0000000e+00 
0.0000000e+00 0.0000000e+00 0.0000000e+00 
0.0000000e+00 0.0000000e+00 0.0000000e+00 
0.0000000e+00 0.0000000e+00 0.0000000e+00 
0.0000000e+00 0.0000000e+00 0.0000000e+00 
0.0000000e+00 0.0000000e+00 0.0000000e+00 
0.0000000e+00 0.0000000e+00 0.0000000e+00 
0.0000000e+00 0.0000000e+00 0.0000000e+00 
0.0000000e+00 0.0000000e+00 0.0000000e+00 
0.0000000e+00 0.0000000e+00 0.0000000e+00 
0.0000000e+00 0.0000000e+00 0.0000000e+00 
0.0000000e+00 0.0000000e+00 0.0000000e+00 
0.0000000e+00 0.0000000e+00 0.0000000e+00 
0.0000000e+00 0.0000000e+00 0.0000000e+00 
0.0000000e+00 0.0000000e+00 0.0000000e+00 
0.0000000e+00 0.0000000e+00 0.0000000e+00 
0.0000000e+00 0.0000000e+00 0.0000000e+00 
0.0000000e+00 0.0000000e+00 0.0000000e+00 
0.0000000e+00 0.0000000e+00 0.0000000e+00 
0.0000000e+00 0.0000000e+00 0.0000000e+00 
0.0000000e+00 0.0000000e+00 0.0000000e+00 
0.0000000e+00 0.0000000e+00 0.0000000e+00 
0.0000000e+00 0.0000000e+00 0.0000000e+00 
0.0000000e+00 0.0000000e+00 0.0000000e+00 
0.0000000e+00 0.0000000e+00 0.0000000e+00 
0.0000000e+00 0.0000000e+00 0.0000000e+00 
0.0000000e+00 0.0000000e+00 0.0000000e+00 
0.0000000e+00 0.0000000e+00 0.0000000e+00 
0.0000000e+00 0.0000000e+00 0.0000000e+00 
0.0000000e+00 0.0000000e+00 0.0000000e+00 
0.0000000e+00 0.0000000e+00 0.0000000e+00 
3.4975616e-05 2.1146247e-05 -1.6337081e-05 
3.4142577e-05 3.7269725e-05 -2.2042224e-05 
3.9449278e-05 4.4523524e-05 -2.2746819e-05 
4.1162799e-05 3.6818303e-05 -1.6230049e-05 
2.6410615e-05 -5.2161822e-06 1.2184101e-06 
1.3210779e-05 -2.4518366e-05 -2.0404580e-06 
1.2411147e-05 -3.3498647e-05 -8.9828727e-06 
6.2125041e-06 -1.4570335e-05 -1.9382225e-05 
8.0803184e-06 1.6826620e-05 1.4045640e-06 
3.1470131e-06 5.9017448e-06 1.4464643e-05 
4.1118919e-06 -1.8147922e-06 1.6359389e-05 
3.1674799e-06 -2.4964700e-06 1.2010101e-05 
1.2778698e-06 -2.0956843e-06 6.3450279e-06 
-2.6990908e-06 -3.4179507e-06 2.0501848e-06 
-1.1695386e-05 1.3165211e-07 2.8544491e-06 
-1.0528089e-05 -2.5726963e-06 3.0159456e-06 
-9.6025888e-06 -6.8359650e-06 3.8904568e-06 
-3.3890749e-06 1.2913439e-05 3.1254992e-06 
1.0760073e-05 1.9508843e-05 2.1376841e-06 
2.3180490e-05 3.5816593e-05 8.4791772e-08 
3.4560308e-05 4.9530267e-05 -1.8987065e-06 
3.6810896e-05 4.2296975e-05 -6.9932148e-06 
4.6945468e-05 2.2842356e-05 -1.1010103e-05 
3.8384365e-05 1.0952353e-05 -1.3592698e-05 
2.7754042e-05 -2.4324592e-05 -1.4982655e-05 
2.3149001e-05 -2.2435694e-05 -1.4119767e-05 
1.6105130e-05 -2.2061500e-05 -8.2184961e-06 
9.7312422e-06 -5.7948723e-06 4.5599509e-06 
7.9312122e-06 2.1308304e-06 1.4042365e-05 
7.2201137e-06 5.4482825e-06 1.7696129e-05 
5.3385497e-06 1.7915637e-08 1.5139140e-05 
2.4999702e-06 -3.0415035e-06 9.3593881e-06 
6.1241639e-07 -3.4311790e-06 1.5910191e-06 
-3.9384091e-08 -9.0289740e-07 -1.3453774e-06 
3.1710408e-07 1.6931507e-06 -7.3995892e-07 
-4.6182130e-08 7.8707461e-07 1.4704364e-07 
-1.3542694e-07 -2.1201289e-07 1.4399139e-07 
2.6385788e-07 -6.7078327e-07 3.6692009e-07 
-7.7061053e-08 8.0257678e-08 -1.5935903e-07 
-4.8778595e-08 3.8868237e-07 6.7875243e-09 
-6.4200364e-08 -1.0927234e-07 5.2401415e-08 
4.5110255e-08 -2.6153845e-07 2.7725267e-08 
-2.2448061e-08 1.8407211e-07 -3.4001925e-08 
-1.7035454e-08 2.8171165e-08 2.9112901e-08 
1.0738847e-08 -6.3493722e-08 1.9420700e-08 
-9.6624486e-09 1.1675218e-08 -5.4957408e-09 
-1.3593414e-08 3.1885556e-08 -7.5592750e-09 
-6.7601635e-09 2.1194615e-09 -1.3020737e-09 
-9.2101882e-09 -1.0876839e-08 -6.6834391e-09 
0.0000000e+00 -7.2929426e-05 0.0000000e+00 
0.0000000e+00 -2.0050013e-04 0.0000000e+00 
0.0000000e+00 -3.7209544e-04 0.0000000e+00 
0.0000000e+00 -4.2926028e-04 0.0000000e+00 
0.0000000e+00 -5.3385127e-04 0.0000000e+00 
0.0000000e+00 -4.6667203e-04 0.0000000e+00 
0.0000000e+00 -3.9249935e-04 0.0000000e+00 
0.0000000e+00 -2.1346413e-04 0.0000000e+00 
0.0000000e+00 -6.5826796e-05 0.0000000e+00 
0.0000000e+00 2.4126395e-05 0.0000000e+00 
0.0000000e+00 2.6598629e-05 0.0000000e+00 
0.0000000e+00 4.9704079e-07 0.0000000e+00 
0.0000000e+00 2.9059652e-06 0.0000000e+00 
0.0000000e+00 4.2011229e-06 0.0000000e+00 
0.0000000e+00 3.5863799e-05 0.0000000e+00 
0.0000000e+00 6.7910543e-05 0.0000000e+00 
0.0000000e+00 4.4905602e-05 0.0000000e+00 
0.0000000e+00 4.3073811e-05 0.0000000e+00 
0.0000000e+00 1.3682949e-05 0.0000000e+00 
0.0000000e+00 -3.5338413e-05 0.0000000e+00 
0.0000000e+00 -1.0498479e-04 0.0000000e+00 
0.0000000e+00 -1.9724020e-04 0.0000000e+00 
0.0000000e+00 -4.2110725e-04 0.0000000e+00 
0.0000000e+00 -5.0894369e-04 0.0000000e+00 
0.0000000e+00 -5.3517602e-04 0.0000000e+00 
0.0000000e+00 -5.0987815e-04 0.0000000e+00 
0.0000000e+00 -3.8200041e-04 0.0000000e+00 
0.0000000e+00 -1.7385639e-04 0.0000000e+00 
0.0000000e+00 -4.1550618e-05 0.0000000e+00 
0.0000000e+00 1.7923199e-05 0.0000000e+00 
0.0000000e+00 3.4578505e-05 0.0000000e+00 
0.0000000e+00 9.9346380e-06 0.0000000e+00 
0.0000000e+00 -1.3706538e-06 0.0000000e+00 
0.0000000e+00 -4.6505893e-06 0.0000000e+00 
0.0000000e+00 -2.9798732e-06 0.0000000e+00 
0.0000000e+00 -3.8657964e-07 0.0000000e+00 
0.0000000e+00 -9.8746307e-07 0.0000000e+00 
0.0000000e+00 1.0249747e-06 0.0000000e+00 
0.0000000e+00 -1.9596084e-07 0.0000000e+00 
0.0000000e+00 4.2530505e-08 0.0000000e+00 
0.0000000e+00 5.4241576e-07 0.0000000e+00 
0.0000000e+00 -3.3282313e-07 0.0000000e+00 
0.0000000e+00 -2.3187722e-07 0.0000000e+00 
0.0000000e+00 1.5417473e-07 0.0000000e+00 
0.0000000e+00 4.5788960e-07 0.0000000e+00 
0.0000000e+00 -1.4283253e-07 0.0000000e+00 
0.0000000e+00 -2.8902863e-07 0.0000000e+00 
0.0000000e+00 1.5483744e-07 0.0000000e+00 
0.0000000e+00 1.6945583e-07 0.0000000e+00 
4.1001062e-05 2.1976730e-05 -2.3415547e-05 
3.4542802e-05 -1.7861870e-05 -4.3152704e-05 
1.1230914e-05 -3.6934533e-05 -5.2477088e-05 
-3.1887498e-06 -3.4261775e-05 -3.1009586e-05 
-1.2368408e-08 -1.0065408e-08 -9.8544799e-09 
2.0331377e-10 3.1441068e-09 -2.0196962e-09 
-1.2839139e-08 3.0639498e-08 1.0538063e-08 
2.2123977e-08 -5.2073968e-08 -1.7495941e-08 
7.0130918e-05 3.8000937e-05 -5.0179166e-05 
5.8789985e-05 6.9998277e-05 -4.6028843e-05 
7.0932852e-05 8.4187006e-05 -3.6751288e-05 
1.0406564e-04 7.9024125e-05 -5.5397704e-06 
9.3323390e-05 1.6305537e-05 3.0194242e-05 
5.0993043e-05 -1.7439297e-05 3.5140103e-05 
1.4997607e-05 -3.7290680e-05 1.3167441e-05 
-6.9401854e-06 -2.4051917e-05 -2.7920600e-05 
-1.6390567e-06 6.0458742e-06 -2.5857369e-05 
-2.3256434e-06 1.1644045e-05 9.6765871e-06 
4.8383026e-06 -4.2376682e-06 2.4899886e-05 
9.0342637e-06 -2.5845727e-06 2.4463496e-05 
-2.3979003e-06 -1.1332115e-07 1.7100665e-05 
-1.0501765e-05 -4.9555110e-06 5.1124021e-06 
-3.9766069e-06 -3.2192872e-06 -9.5844662e-06 
6.3123471e-06 2.0469788e-06 -1.0500296e-05 
2.6487920e-05 -1.1579899e-06 -1.7177001e-05 
6.0879524e-05 2.4287174e-05 -2.5008023e-05 
9.0874324e-05 3.8977556e-05 -2.2739705e-05 
1.1219741e-04 6.7761510e-05 -1.9902236e-05 
1.2063515e-04 8.3287719e-05 -7.7611894e-06 