# vtk DataFile Version 4.0
vtk output
ASCII
DATASET UNSTRUCTURED_GRID
POINTS 766 float
0.0000000e+00 0.0000000e+00 0.0000000e+00 
0.0000000e+00 0.0000000e+00 5.0000000e+01 
5.0000000e+00 0.0000000e+00 0.0000000e+00 
5.0000000e+00 0.0000000e+00 5.0000000e+01 
5.0000000e+00 1.0000000e+00 0.0000000e+00 
5.0000000e+00 1.0000000e+00 5.0000000e+01 
0.0000000e+00 1.0000000e+00 0.0000000e+00 
0.0000000e+00 1.0000000e+00 5.0000000e+01 
5.0000000e+00 2.0000000e+00 0.0000000e+00 
5.0000000e+00 2.0000000e+00 5.0000000e+01 
3.0000000e+00 2.0000000e+00 0.0000000e+00 
3.0000000e+00 2.0000000e+00 5.0000000e+01 
0.0000000e+00 2.0000000e+00 0.0000000e+00 
0.0000000e+00 2.0000000e+00 5.0000000e+01 
1.5000000e+00 3.0000000e+00 0.0000000e+00 
1.5000000e+00 3.0000000e+00 5.0000000e+01 
7.5000000e-01 3.0000000e+00 0.0000000e+00 
7.5000000e-01 3.0000000e+00 5.0000000e+01 
0.0000000e+00 3.0000000e+00 0.0000000e+00 
0.0000000e+00 3.0000000e+00 5.0000000e+01 
7.5000000e-01 3.0000000e+00 5.0000000e-01 
7.5000000e-01 3.0000000e+00 1.0000000e+00 
7.5000000e-01 3.0000000e+00 1.5000000e+00 
7.5000000e-01 3.0000000e+00 2.0000000e+00 
7.5000000e-01 3.0000000e+00 2.5000000e+00 
7.5000000e-01 3.0000000e+00 3.0000000e+00 
7.5000000e-01 3.0000000e+00 3.5000000e+00 
7.5000000e-01 3.0000000e+00 4.0000000e+00 
7.5000000e-01 3.0000000e+00 4.5000000e+00 
7.5000000e-01 3.0000000e+00 5.0000000e+00 
7.5000000e-01 3.0000000e+00 5.5000000e+00 
7.5000000e-01 3.0000000e+00 6.0000000e+00 
7.5000000e-01 3.0000000e+00 6.5000000e+00 
7.5000000e-01 3.0000000e+00 7.0000000e+00 
7.5000000e-01 3.0000000e+00 7.5000000e+00 
7.5000000e-01 3.0000000e+00 8.0000000e+00 
7.5000000e-01 3.0000000e+00 8.5000000e+00 
7.5000000e-01 3.0000000e+00 9.0000000e+00 
7.5000000e-01 3.0000000e+00 9.5000000e+00 
7.5000000e-01 3.0000000e+00 1.0000000e+01 
7.5000000e-01 3.0000000e+00 1.0500000e+01 
7.5000000e-01 3.0000000e+00 1.1000000e+01 
7.5000000e-01 3.0000000e+00 1.1500000e+01 
7.5000000e-01 3.0000000e+00 1.2000000e+01 
7.5000000e-01 3.0000000e+00 1.2500000e+01 
7.5000000e-01 3.0000000e+00 1.3000000e+01 
7.5000000e-01 3.0000000e+00 1.3500000e+01 
7.5000000e-01 3.0000000e+00 1.4000000e+01 
7.5000000e-01 3.0000000e+00 1.4500000e+01 
7.5000000e-01 3.0000000e+00 1.5000000e+01 
7.5000000e-01 3.0000000e+00 1.5500000e+01 
7.5000000e-01 3.0000000e+00 1.6000000e+01 
7.5000000e-01 3.0000000e+00 1.6500000e+01 
7.5000000e-01 3.0000000e+00 1.7000000e+01 
7.5000000e-01 3.0000000e+00 1.7500000e+01 
7.5000000e-01 3.0000000e+00 1.8000000e+01 
7.5000000e-01 3.0000000e+00 1.8500000e+01 
7.5000000e-01 3.0000000e+00 1.9000000e+01 
7.5000000e-01 3.0000000e+00 1.9500000e+01 
7.5000000e-01 3.0000000e+00 2.0000000e+01 
7.5000000e-01 3.0000000e+00 2.0500000e+01 
7.5000000e-01 3.0000000e+00 2.1000000e+01 
7.5000000e-01 3.0000000e+00 2.1500000e+01 
7.5000000e-01 3.0000000e+00 2.2000000e+01 
7.5000000e-01 3.0000000e+00 2.2500000e+01 
7.5000000e-01 3.0000000e+00 2.3000000e+01 
7.5000000e-01 3.0000000e+00 2.3500000e+01 
7.5000000e-01 3.0000000e+00 2.4000000e+01 
7.5000000e-01 3.0000000e+00 2.4500000e+01 
7.5000000e-01 3.0000000e+00 2.5000000e+01 
7.5000000e-01 3.0000000e+00 2.5500000e+01 
7.5000000e-01 3.0000000e+00 2.6000000e+01 
7.5000000e-01 3.0000000e+00 2.6500000e+01 
7.5000000e-01 3.0000000e+00 2.7000000e+01 
7.5000000e-01 3.0000000e+00 2.7500000e+01 
7.5000000e-01 3.0000000e+00 2.8000000e+01 
7.5000000e-01 3.0000000e+00 2.8500000e+01 
7.5000000e-01 3.0000000e+00 2.9000000e+01 
7.5000000e-01 3.0000000e+00 2.9500000e+01 
7.5000000e-01 3.0000000e+00 3.0000000e+01 
7.5000000e-01 3.0000000e+00 3.0500000e+01 
7.5000000e-01 3.0000000e+00 3.1000000e+01 
7.5000000e-01 3.0000000e+00 3.1500000e+01 
7.5000000e-01 3.0000000e+00 3.2000000e+01 
7.5000000e-01 3.0000000e+00 3.2500000e+01 
7.5000000e-01 3.0000000e+00 3.3000000e+01 
7.5000000e-01 3.0000000e+00 3.3500000e+01 
7.5000000e-01 3.0000000e+00 3.4000000e+01 
7.5000000e-01 3.0000000e+00 3.4500000e+01 
7.5000000e-01 3.0000000e+00 3.5000000e+01 
7.5000000e-01 3.0000000e+00 3.5500000e+01 
7.5000000e-01 3.0000000e+00 3.6000000e+01 
7.5000000e-01 3.0000000e+00 3.6500000e+01 
7.5000000e-01 3.0000000e+00 3.7000000e+01 
7.5000000e-01 3.0000000e+00 3.7500000e+01 
7.5000000e-01 3.0000000e+00 3.8000000e+01 
7.5000000e-01 3.0000000e+00 3.8500000e+01 
7.5000000e-01 3.0000000e+00 3.9000000e+01 
7.5000000e-01 3.0000000e+00 3.9500000e+01 
7.5000000e-01 3.0000000e+00 4.0000000e+01 
7.5000000e-01 3.0000000e+00 4.0500000e+01 
7.5000000e-01 3.0000000e+00 4.1000000e+01 
7.5000000e-01 3.0000000e+00 4.1500000e+01 
7.5000000e-01 3.0000000e+00 4.2000000e+01 
7.5000000e-01 3.0000000e+00 4.2500000e+01 
7.5000000e-01 3.0000000e+00 4.3000000e+01 
7.5000000e-01 3.0000000e+00 4.3500000e+01 
7.5000000e-01 3.0000000e+00 4.4000000e+01 
7.5000000e-01 3.0000000e+00 4.4500000e+01 
7.5000000e-01 3.0000000e+00 4.5000000e+01 
7.5000000e-01 3.0000000e+00 4.5500000e+01 
7.5000000e-01 3.0000000e+00 4.6000000e+01 
7.5000000e-01 3.0000000e+00 4.6500000e+01 
7.5000000e-01 3.0000000e+00 4.7000000e+01 
7.5000000e-01 3.0000000e+00 4.7500000e+01 
7.5000000e-01 3.0000000e+00 4.8000000e+01 
7.5000000e-01 3.0000000e+00 4.8500000e+01 
7.5000000e-01 3.0000000e+00 4.9000000e+01 
7.5000000e-01 3.0000000e+00 4.9500000e+01 
7.5000000e-01 3.0250001e+00 0.0000000e+00 
7.5000000e-01 3.0250001e+00 5.0000000e-01 
7.5000000e-01 3.0250001e+00 1.0000000e+00 
7.5000000e-01 3.0250001e+00 1.5000000e+00 
7.5000000e-01 3.0250001e+00 2.0000000e+00 
7.5000000e-01 3.0250001e+00 2.5000000e+00 
7.5000000e-01 3.0250001e+00 3.0000000e+00 
7.5000000e-01 3.0250001e+00 3.5000000e+00 
7.5000000e-01 3.0250001e+00 4.0000000e+00 
7.5000000e-01 3.0250001e+00 4.5000000e+00 
7.5000000e-01 3.0250001e+00 5.0000000e+00 
7.5000000e-01 3.0250001e+00 5.5000000e+00 
7.5000000e-01 3.0250001e+00 6.0000000e+00 
7.5000000e-01 3.0250001e+00 6.5000000e+00 
7.5000000e-01 3.0250001e+00 7.0000000e+00 
7.5000000e-01 3.0250001e+00 7.5000000e+00 
7.5000000e-01 3.0250001e+00 8.0000000e+00 
7.5000000e-01 3.0250001e+00 8.5000000e+00 
7.5000000e-01 3.0250001e+00 9.0000000e+00 
7.5000000e-01 3.0250001e+00 9.5000000e+00 
7.5000000e-01 3.0250001e+00 1.0000000e+01 
7.5000000e-01 3.0250001e+00 1.0500000e+01 
7.5000000e-01 3.0250001e+00 1.1000000e+01 
7.5000000e-01 3.0250001e+00 1.1500000e+01 
7.5000000e-01 3.0250001e+00 1.2000000e+01 
7.5000000e-01 3.0250001e+00 1.2500000e+01 
7.5000000e-01 3.0250001e+00 1.3000000e+01 
7.5000000e-01 3.0250001e+00 1.3500000e+01 
7.5000000e-01 3.0250001e+00 1.4000000e+01 
7.5000000e-01 3.0250001e+00 1.4500000e+01 
7.5000000e-01 3.0250001e+00 1.5000000e+01 
7.5000000e-01 3.0250001e+00 1.5500000e+01 
7.5000000e-01 3.0250001e+00 1.6000000e+01 
7.5000000e-01 3.0250001e+00 1.6500000e+01 
7.5000000e-01 3.0250001e+00 1.7000000e+01 
7.5000000e-01 3.0250001e+00 1.7500000e+01 
7.5000000e-01 3.0250001e+00 1.8000000e+01 
7.5000000e-01 3.0250001e+00 1.8500000e+01 
7.5000000e-01 3.0250001e+00 1.9000000e+01 
7.5000000e-01 3.0250001e+00 1.9500000e+01 
7.5000000e-01 3.0250001e+00 2.0000000e+01 
7.5000000e-01 3.0250001e+00 2.0500000e+01 
7.5000000e-01 3.0250001e+00 2.1000000e+01 
7.5000000e-01 3.0250001e+00 2.1500000e+01 
7.5000000e-01 3.0250001e+00 2.2000000e+01 
7.5000000e-01 3.0250001e+00 2.2500000e+01 
7.5000000e-01 3.0250001e+00 2.3000000e+01 
7.5000000e-01 3.0250001e+00 2.3500000e+01 
7.5000000e-01 3.0250001e+00 2.4000000e+01 
7.5000000e-01 3.0250001e+00 2.4500000e+01 
7.5000000e-01 3.0250001e+00 2.5000000e+01 
7.5000000e-01 3.0250001e+00 2.5500000e+01 
7.5000000e-01 3.0250001e+00 2.6000000e+01 
7.5000000e-01 3.0250001e+00 2.6500000e+01 
7.5000000e-01 3.0250001e+00 2.7000000e+01 
7.5000000e-01 3.0250001e+00 2.7500000e+01 
7.5000000e-01 3.0250001e+00 2.8000000e+01 
7.5000000e-01 3.0250001e+00 2.8500000e+01 
7.5000000e-01 3.0250001e+00 2.9000000e+01 
7.5000000e-01 3.0250001e+00 2.9500000e+01 
7.5000000e-01 3.0250001e+00 3.0000000e+01 
7.5000000e-01 3.0250001e+00 3.0500000e+01 
7.5000000e-01 3.0250001e+00 3.1000000e+01 
7.5000000e-01 3.0250001e+00 3.1500000e+01 
7.5000000e-01 3.0250001e+00 3.2000000e+01 
7.5000000e-01 3.0250001e+00 3.2500000e+01 
7.5000000e-01 3.0250001e+00 3.3000000e+01 
7.5000000e-01 3.0250001e+00 3.3500000e+01 
7.5000000e-01 3.0250001e+00 3.4000000e+01 
7.5000000e-01 3.0250001e+00 3.4500000e+01 
7.5000000e-01 3.0250001e+00 3.5000000e+01 
7.5000000e-01 3.0250001e+00 3.5500000e+01 
7.5000000e-01 3.0250001e+00 3.6000000e+01 
7.5000000e-01 3.0250001e+00 3.6500000e+01 
7.5000000e-01 3.0250001e+00 3.7000000e+01 
7.5000000e-01 3.0250001e+00 3.7500000e+01 
7.5000000e-01 3.0250001e+00 3.8000000e+01 
7.5000000e-01 3.0250001e+00 3.8500000e+01 
7.5000000e-01 3.0250001e+00 3.9000000e+01 
7.5000000e-01 3.0250001e+00 3.9500000e+01 
7.5000000e-01 3.0250001e+00 4.0000000e+01 
7.5000000e-01 3.0250001e+00 4.0500000e+01 
7.5000000e-01 3.0250001e+00 4.1000000e+01 
7.5000000e-01 3.0250001e+00 4.1500000e+01 
7.5000000e-01 3.0250001e+00 4.2000000e+01 
7.5000000e-01 3.0250001e+00 4.2500000e+01 
7.5000000e-01 3.0250001e+00 4.3000000e+01 
7.5000000e-01 3.0250001e+00 4.3500000e+01 
7.5000000e-01 3.0250001e+00 4.4000000e+01 
7.5000000e-01 3.0250001e+00 4.4500000e+01 
7.5000000e-01 3.0250001e+00 4.5000000e+01 
7.5000000e-01 3.0250001e+00 4.5500000e+01 
7.5000000e-01 3.0250001e+00 4.6000000e+01 
7.5000000e-01 3.0250001e+00 4.6500000e+01 
7.5000000e-01 3.0250001e+00 4.7000000e+01 
7.5000000e-01 3.0250001e+00 4.7500000e+01 
7.5000000e-01 3.0250001e+00 4.8000000e+01 
7.5000000e-01 3.0250001e+00 4.8500000e+01 
7.5000000e-01 3.0250001e+00 4.9000000e+01 
7.5000000e-01 3.0250001e+00 4.9500000e+01 
7.5000000e-01 3.0250001e+00 5.0000000e+01 
3.0000000e+00 2.0000000e+00 3.6000000e+01 
8.0487806e-01 3.0000000e+00 3.6000000e+01 
0.0000000e+00 0.0000000e+00 2.0000000e+00 
0.0000000e+00 0.0000000e+00 4.0000000e+00 
0.0000000e+00 0.0000000e+00 6.0000000e+00 
0.0000000e+00 0.0000000e+00 8.0000000e+00 
0.0000000e+00 0.0000000e+00 1.0000000e+01 
0.0000000e+00 0.0000000e+00 1.2000000e+01 
0.0000000e+00 0.0000000e+00 1.4000000e+01 
0.0000000e+00 0.0000000e+00 1.6000000e+01 
[...]
POINT_DATA 766
FIELD FieldData 3
DISPLACEMENT 3 766  float
0.0000000e+00 0.0000000e+00 0.0000000e+00 
0.0000000e+00 0.0000000e+00 0.0000000e+00 
0.0000000e+00 0.0000000e+00 0.0000000e+00 
0.0000000e+00 0.0000000e+00 0.0000000e+00 
-1.5947707e-06 7.5769242e-07 5.4526826e-08 
2.2665622e-06 3.2152147e-07 2.4260203e-06 
0.0000000e+00 1.6258893e-05 0.0000000e+00 
0.0000000e+00 2.5243751e-05 0.0000000e+00 
-2.8819998e-06 1.6857723e-06 5.5938568e-07 
3.6276933e-06 -4.8760933e-07 -1.5772281e-06 
-5.9068668e-07 2.2907291e-06 6.7313135e-06 
1.2130731e-06 6.7064593e-06 5.1062498e-06 
0.0000000e+00 2.3214759e-05 0.0000000e+00 
0.0000000e+00 5.7845158e-05 0.0000000e+00 
6.7549099e-06 1.1709829e-05 2.6056823e-05 
2.2118102e-05 5.2359086e-05 -2.0760392e-05 
2.4279478e-05 -2.9293189e-05 2.2125376e-05 
2.6752565e-05 2.1464424e-05 -7.9060856e-06 
0.0000000e+00 2.3419745e-05 0.0000000e+00 
0.0000000e+00 1.0416482e-04 0.0000000e+00 
1.4673997e-05 -3.0342362e-05 2.8777384e-05 
-4.2127331e-06 -3.7214493e-05 2.5733912e-05 
4.3175255e-06 -5.7421690e-05 3.2481010e-05 
-2.0774514e-06 -7.8944533e-05 3.2289972e-05 
4.9785958e-06 -9.0947877e-05 1.9365423e-05 
-1.5298519e-05 -8.6994216e-05 1.2416394e-05 
2.5769439e-06 -7.5192969e-05 -1.4300317e-05 
-1.0874651e-05 -6.5800712e-05 -2.6361915e-05 
-9.6068134e-06 -6.2437328e-05 -3.5734109e-05 
-2.0178202e-05 -5.6434685e-05 -3.4132310e-05 
-1.4793840e-05 -3.2732958e-05 -2.6348785e-05 
-2.0633117e-05 -7.5647831e-06 -3.8507227e-05 
-2.5697749e-05 7.9763358e-06 -4.5250152e-05 
-6.5458171e-06 1.5296326e-05 -2.3174369e-05 
-3.3081273e-05 2.1986918e-05 -3.4271674e-05 
6.4632645e-06 3.3801418e-05 -3.4849265e-05 
1.1237143e-05 4.8372451e-05 1.2870250e-06 
2.0883281e-05 5.5048920e-05 -1.4995654e-05 
3.4206652e-05 3.6636771e-05 -3.1179676e-05 
3.1435258e-05 3.8892518e-05 1.0578509e-05 
4.6384059e-05 7.9629273e-05 -1.1471319e-05 
1.9847568e-05 1.2189322e-04 -1.1579658e-05 
4.8762660e-05 1.2678567e-04 5.5145247e-05 
-1.4158175e-06 3.7696911e-05 4.9909300e-05 
-5.2057050e-05 -1.6139899e-04 9.7703232e-05 
-1.3218974e-05 -4.5022817e-04 1.4444521e-04 
-8.6984437e-05 -8.5398281e-04 1.8949146e-04 
-1.1231467e-04 -1.4707342e-03 1.4598227e-04 
-2.8303475e-04 -2.3932972e-03 2.1652863e-04 
-3.1331790e-04 -3.4654578e-03 2.1530627e-04 
-2.1060121e-04 -4.3409052e-03 1.4449770e-04 
-1.6482294e-04 -4.3713916e-03 1.4072837e-04 
-2.7295100e-04 -4.0937150e-03 6.6916371e-05 
-3.7186494e-04 -3.9520711e-03 6.1027171e-05 
-2.5282681e-04 -4.1383458e-03 3.3500415e-05 
-9.3691924e-05 -4.1685184e-03 -9.9941963e-06 
-1.2813689e-04 -3.5381394e-03 -1.0062512e-04 
-2.2715921e-04 -2.5581450e-03 -1.5044936e-04 
-2.0346913e-04 -1.6679550e-03 -1.6047982e-04 
-5.9724494e-05 -9.7433920e-04 -1.0047325e-04 
-3.3098397e-05 -5.3894595e-04 -1.3110231e-04 
-3.9664756e-05 -2.8934923e-04 -1.0666024e-04 
-2.8460016e-05 -1.5301896e-04 -8.6444299e-05 
-2.2238552e-05 -8.9387933e-05 -6.7919667e-05 
-3.2129326e-05 -7.8955636e-05 -5.8125443e-05 
-3.6429625e-05 -8.4980355e-05 -6.1108294e-05 
-3.0204463e-05 -7.4455020e-05 -5.5875080e-05 
-2.8140184e-05 -6.2788553e-05 -6.3394371e-05 
-3.5115332e-05 -7.5340300e-05 -7.8584337e-05 
-3.6939564e-05 -1.1362917e-04 -4.8744994e-05 
-4.2208689e-05 -1.5100985e-04 -3.2797732e-05 
-2.6793936e-05 -1.6992461e-04 -5.3187447e-05 
-4.5285058e-05 -1.5956318e-04 -4.0223851e-05 
-4.1906875e-05 -1.3487670e-04 -4.7081063e-05 
-4.3192049e-05 -1.2041511e-04 -8.5076048e-05 
5.5692112e-06 -9.1551636e-05 -6.0878698e-05 
2.5168869e-05 -3.5602417e-05 -3.9110466e-05 
1.5851778e-05 2.8626409e-05 -4.7570487e-05 
6.0725499e-05 7.0979710e-05 -3.0817675e-05 
3.8414735e-05 1.0087972e-04 3.4153170e-06 
6.1782092e-05 1.4225151e-04 -7.2785560e-06 
7.6489807e-05 2.0510425e-04 2.7315815e-05 
5.5931356e-05 2.8040042e-04 7.3958501e-05 
4.3177799e-05 2.6000233e-04 6.0895542e-05 
-2.5370040e-05 7.7131495e-05 9.8447214e-05 
-1.2251243e-05 -2.4701984e-04 1.2454666e-04 
-1.0023534e-04 -7.2051224e-04 1.5142176e-04 
-1.2659367e-04 -1.3570118e-03 1.1953163e-04 
-2.0759467e-04 -2.2043053e-03 1.9690668e-04 
-2.2396856e-04 -3.1592860e-03 2.0503416e-04 
-1.1143370e-04 -3.9766538e-03 9.9970239e-05 
-3.8446632e-04 -4.0446534e-03 1.3296101e-04 
-2.2068822e-04 -3.7952475e-03 1.6144064e-04 
-2.7556115e-04 -3.6954554e-03 8.2200262e-05 
-1.7261210e-04 -3.9331806e-03 3.4601544e-05 
-2.1859087e-05 -3.9657620e-03 8.7326034e-06 
-7.4037882e-05 -3.3010901e-03 -1.0007540e-04 
-1.6208444e-04 -2.3163147e-03 -1.4465199e-04 
-1.6699008e-04 -1.4649051e-03 -1.3812122e-04 
-7.0333634e-05 -8.2172285e-04 -7.9345613e-05 
-3.9138329e-05 -3.9839791e-04 -1.2027612e-04 
-3.5650668e-05 -1.2541277e-04 -9.7082848e-05 
-2.7848064e-05 4.3824970e-05 -8.7693312e-05 
-9.1653883e-06 1.3561707e-04 -8.0563987e-05 
2.3652221e-06 1.6899192e-04 -7.3200034e-05 
1.1687986e-05 1.7490456e-04 -6.4079053e-05 
1.7767667e-05 1.7233381e-04 -6.7760586e-05 
2.5948993e-05 1.5705406e-04 -7.2007628e-05 
2.7009275e-05 1.1803407e-04 -4.7270798e-05 
3.0243144e-05 6.3300162e-05 -2.1934262e-05 
1.6332280e-05 6.4168885e-06 1.5448833e-06 
-4.3957557e-06 -4.4517299e-05 1.8953355e-05 
-1.1635286e-05 -8.7094646e-05 2.6551939e-05 
-1.7633445e-05 -1.1746136e-04 2.1679614e-05 
-1.5441497e-05 -1.2600720e-04 1.2088320e-05 
-1.1397384e-05 -1.0698756e-04 -1.8377901e-06 
-4.2813354e-06 -6.8307374e-05 -1.3604908e-05 
1.9699382e-06 -2.4975458e-05 -1.9498173e-05 
8.9260639e-06 9.1058828e-06 -1.9983365e-05 
0.0000000e+00 -2.8788991e-05 0.0000000e+00 
0.0000000e+00 -3.0156438e-05 0.0000000e+00 
0.0000000e+00 -3.8428752e-05 0.0000000e+00 
0.0000000e+00 -5.7773519e-05 0.0000000e+00 
0.0000000e+00 -7.8912723e-05 0.0000000e+00 
0.0000000e+00 -9.0080030e-05 0.0000000e+00 
0.0000000e+00 -8.6461601e-05 0.0000000e+00 
0.0000000e+00 -7.5389326e-05 0.0000000e+00 
0.0000000e+00 -6.6726076e-05 0.0000000e+00 
0.0000000e+00 -6.2997424e-05 0.0000000e+00 
0.0000000e+00 -5.4861470e-05 0.0000000e+00 
0.0000000e+00 -3.2875196e-05 0.0000000e+00 
0.0000000e+00 -8.0016880e-06 0.0000000e+00 
0.0000000e+00 7.7549357e-06 0.0000000e+00 
0.0000000e+00 1.4977735e-05 0.0000000e+00 
0.0000000e+00 2.2444963e-05 0.0000000e+00 
0.0000000e+00 3.4664728e-05 0.0000000e+00 
0.0000000e+00 4.8753347e-05 0.0000000e+00 
0.0000000e+00 5.1770287e-05 0.0000000e+00 
0.0000000e+00 3.7547463e-05 0.0000000e+00 
0.0000000e+00 4.1340296e-05 0.0000000e+00 
0.0000000e+00 8.0214653e-05 0.0000000e+00 
0.0000000e+00 1.2392810e-04 0.0000000e+00 
0.0000000e+00 1.2469194e-04 0.0000000e+00 
0.0000000e+00 3.4892921e-05 0.0000000e+00 
0.0000000e+00 -1.5956287e-04 0.0000000e+00 
0.0000000e+00 -4.4655666e-04 0.0000000e+00 
0.0000000e+00 -8.5365138e-04 0.0000000e+00 
0.0000000e+00 -1.4813015e-03 0.0000000e+00 
0.0000000e+00 -2.4037766e-03 0.0000000e+00 
0.0000000e+00 -3.5025931e-03 0.0000000e+00 
0.0000000e+00 -4.3634041e-03 0.0000000e+00 
0.0000000e+00 -4.3978277e-03 0.0000000e+00 
0.0000000e+00 -4.1077267e-03 0.0000000e+00 
0.0000000e+00 -3.9857840e-03 0.0000000e+00 
0.0000000e+00 -4.1598659e-03 0.0000000e+00 
0.0000000e+00 -4.2015696e-03 0.0000000e+00 
0.0000000e+00 -3.5540254e-03 0.0000000e+00 
0.0000000e+00 -2.5760420e-03 0.0000000e+00 
0.0000000e+00 -1.6709155e-03 0.0000000e+00 
0.0000000e+00 -9.8007964e-04 0.0000000e+00 
0.0000000e+00 -5.3834287e-04 0.0000000e+00 
0.0000000e+00 -2.8709552e-04 0.0000000e+00 
0.0000000e+00 -1.5224826e-04 0.0000000e+00 
0.0000000e+00 -9.0864574e-05 0.0000000e+00 
0.0000000e+00 -7.8755918e-05 0.0000000e+00 
0.0000000e+00 -8.2056547e-05 0.0000000e+00 
0.0000000e+00 -7.3777075e-05 0.0000000e+00 
0.0000000e+00 -6.4276828e-05 0.0000000e+00 
0.0000000e+00 -7.6907192e-05 0.0000000e+00 
0.0000000e+00 -1.1334005e-04 0.0000000e+00 
0.0000000e+00 -1.5054131e-04 0.0000000e+00 
0.0000000e+00 -1.6840869e-04 0.0000000e+00 
0.0000000e+00 -1.5915539e-04 0.0000000e+00 
0.0000000e+00 -1.3765493e-04 0.0000000e+00 
0.0000000e+00 -1.1991939e-04 0.0000000e+00 
0.0000000e+00 -8.9880246e-05 0.0000000e+00 
0.0000000e+00 -3.5050889e-05 0.0000000e+00 
0.0000000e+00 2.7106375e-05 0.0000000e+00 
0.0000000e+00 6.9951573e-05 0.0000000e+00 
0.0000000e+00 1.0077008e-04 0.0000000e+00 
0.0000000e+00 1.4328827e-04 0.0000000e+00 
0.0000000e+00 2.1083324e-04 0.0000000e+00 
0.0000000e+00 2.7919767e-04 0.0000000e+00 
0.0000000e+00 2.5572613e-04 0.0000000e+00 
0.0000000e+00 7.7840596e-05 0.0000000e+00 
0.0000000e+00 -2.4775972e-04 0.0000000e+00 
0.0000000e+00 -7.1879936e-04 0.0000000e+00 
0.0000000e+00 -1.3622422e-03 0.0000000e+00 
0.0000000e+00 -2.2126590e-03 0.0000000e+00 
0.0000000e+00 -3.2021413e-03 0.0000000e+00 
0.0000000e+00 -4.0056235e-03 0.0000000e+00 
0.0000000e+00 -4.0619005e-03 0.0000000e+00 
0.0000000e+00 -3.8100244e-03 0.0000000e+00 
0.0000000e+00 -3.7330999e-03 0.0000000e+00 
0.0000000e+00 -3.9534741e-03 0.0000000e+00 
0.0000000e+00 -3.9985520e-03 0.0000000e+00 
0.0000000e+00 -3.3182669e-03 0.0000000e+00 
0.0000000e+00 -2.3352362e-03 0.0000000e+00 
0.0000000e+00 -1.4677740e-03 0.0000000e+00 
0.0000000e+00 -8.2455919e-04 0.0000000e+00 
0.0000000e+00 -3.9724685e-04 0.0000000e+00 
0.0000000e+00 -1.2457998e-04 0.0000000e+00 
0.0000000e+00 4.4093231e-05 0.0000000e+00 
0.0000000e+00 1.3538425e-04 0.0000000e+00 
0.0000000e+00 1.6984592e-04 0.0000000e+00 
0.0000000e+00 1.7601741e-04 0.0000000e+00 
0.0000000e+00 1.7249935e-04 0.0000000e+00 
0.0000000e+00 1.5605832e-04 0.0000000e+00 
0.0000000e+00 1.1788127e-04 0.0000000e+00 
0.0000000e+00 6.3716827e-05 0.0000000e+00 
0.0000000e+00 6.6792386e-06 0.0000000e+00 
0.0000000e+00 -4.4718254e-05 0.0000000e+00 
0.0000000e+00 -8.7427179e-05 0.0000000e+00 
0.0000000e+00 -1.1718386e-04 0.0000000e+00 
0.0000000e+00 -1.2528042e-04 0.0000000e+00 
0.0000000e+00 -1.0669429e-04 0.0000000e+00 
0.0000000e+00 -6.8428359e-05 0.0000000e+00 
0.0000000e+00 -2.5067744e-05 0.0000000e+00 
0.0000000e+00 8.6739819e-06 0.0000000e+00 
0.0000000e+00 2.1260508e-05 0.0000000e+00 
8.4340565e-05 -9.2739036e-05 6.6280204e-06 
-2.3325717e-04 -3.6981683e-03 1.6203785e-04 
0.0000000e+00 0.0000000e+00 0.0000000e+00 
0.0000000e+00 0.0000000e+00 0.0000000e+00 
0.0000000e+00 0.0000000e+00 0.0000000e+00 
0.0000000e+00 0.0000000e+00 0.0000000e+00 
0.0000000e+00 0.0000000e+00 0.0000000e+00 
0.0000000e+00 0.0000000e+00 0.0000000e+00 
0.0000000e+00 0.0000000e+00 0.0000000e+00 
0.0000000e+00 0.0000000e+00 0.0000000e+00 
0.0000000e+00 0.0000000e+00 0.0000000e+00 
0.0000000e+00 0.0000000e+00 0.0000000e+00 
0.0000000e+00 0.0000000e+00 0.0000000e+00 
0.0000000e+00 0.0000000e+00 0.0000000e+00 
0.0000000e+00 0.0000000e+00 0.0000000e+00 
0.0000000e+00 0.0000000e+00 0.0000000e+00 
0.0000000e+00 0.0000000e+00 0.0000000e+00 
0.0000000e+00 0.0000000e+00 0.0000000e+00 
0.0000000e+00 0.0000000e+00 0.0000000e+00 
0.0000000e+00 0.0000000e+00 0.0000000e+00 
0.0000000e+00 0.0000000e+00 0.0000000e+00 
0.0000000e+00 0.0000000e+00 0.0000000e+00 
0.0000000e+00 0.0000000e+00 0.0000000e+00 
0.0000000e+00 0.0000000e+00 0.0000000e+00 
0.0000000e+00 0.0000000e+00 0.0000000e+00 
0.0000000e+00 0.0000000e+00 0.0000000e+00 
0.0000000e+00 0.0000000e+00 0.0000000e+00 
0.0000000e+00 0.0000000e+00 0.0000000e+00 
0.0000000e+00 0.0000000e+00 0.0000000e+00 
0.0000000e+00 0.0000000e+00 0.0000000e+00 
0.0000000e+00 0.0000000e+00 0.0000000e+00 
0.0000000e+00 0.0000000e+00 0.0000000e+00 
0.0000000e+00 0.0000000e+00 0.0000000e+00 
0.0000000e+00 0.0000000e+00 0.0000000e+00 
0.0000000e+00 0.0000000e+00 0.0000000e+00 
0.0000000e+00 0.0000000e+00 0.0000000e+00 
0.0000000e+00 0.0000000e+00 0.0000000e+00 
0.0000000e+00 0.0000000e+00 0.0000000e+00 
0.0000000e+00 0.0000000e+00 0.0000000e+00 
0.0000000e+00 0.0000000e+00 0.0000000e+00 
0.0000000e+00 0.0000000e+00 0.0000000e+00 
0.0000000e+00 0.0000000e+00 0.0000000e+00 
0.0000000e+00 0.0000000e+00 0.0000000e+00 
0.0000000e+00 0.0000000e+00 0.0000000e+00 
0.0000000e+00 0.0000000e+00 0.0000000e+00 
0.0000000e+00 0.0000000e+00 0.0000000e+00 
0.0000000e+00 0.0000000e+00 0.0000000e+00 
0.0000000e+00 0.0000000e+00 0.0000000e+00 
0.0000000e+00 0.0000000e+00 0.0000000e+00 
0.0000000e+00 0.0000000e+00 0.0000000e+00 
0.0000000e+00 0.0000000e+00 0.0000000e+00 
0.0000000e+00 0.0000000e+00 0.0000000e+00 
0.0000000e+00 0.0000000e+00 0.0000000e+00 
0.0000000e+00 0.0000000e+00 0.0000000e+00 
3.4439358e-06 -1.9221509e-06 -2.5963866e-06 
1.7122562e-06 -5.4450766e-06 -1.0744004e-06 
-6.7534024e-06 -1.2323158e-06 4.2128463e-06 
-5.5936212e-06 2.9364119e-06 2.0183411e-07 
-1.5564872e-07 4.6504551e-06 -5.0343697e-06 
1.7757518e-05 4.7835797e-06 -7.5511534e-06 
4.2078700e-05 -1.4664283e-06 -1.2264659e-05 
5.7160541e-05 -5.2544774e-06 -8.1432090e-06 
4.8363458e-05 -6.5270610e-06 8.2037350e-06 
2.3067409e-05 -8.5913789e-06 4.2805191e-06 
9.3608160e-06 -6.5770823e-06 -2.3962227e-06 
3.7956297e-06 -1.4309295e-07 -2.8955628e-07 
-6.3222046e-07 -7.6835602e-07 8.6213577e-06 
-6.2660192e-06 4.3140417e-06 4.8224615e-06 
-2.0649040e-06 7.3294414e-06 4.4930894e-06 
1.2118882e-05 2.3304021e-06 2.4586720e-06 
3.2328724e-05 -1.0015688e-05 -1.2143650e-05 
5.2620613e-05 -1.5302861e-05 -1.9855300e-07 
4.6272780e-05 -1.2184868e-05 1.6955682e-05 
1.9581823e-05 -3.7582372e-06 8.3073946e-06 
2.2176996e-06 2.3780949e-06 -2.6780851e-06 
-1.9026620e-06 2.1314759e-06 -5.3037566e-06 
-2.3091702e-07 -1.0547907e-06 -7.3353057e-08 
8.6812292e-07 -3.8003782e-06 5.0927156e-06 
0.0000000e+00 -1.1947929e-05 0.0000000e+00 
0.0000000e+00 -2.1174688e-05 0.0000000e+00 
0.0000000e+00 -4.0484272e-05 0.0000000e+00 
0.0000000e+00 3.3245733e-06 0.0000000e+00 
0.0000000e+00 7.7439232e-05 0.0000000e+00 
0.0000000e+00 -7.1053705e-06 0.0000000e+00 
0.0000000e+00 -2.1775394e-04 0.0000000e+00 
0.0000000e+00 -5.6255801e-04 0.0000000e+00 
0.0000000e+00 -5.5402640e-04 0.0000000e+00 
0.0000000e+00 -1.9113299e-04 0.0000000e+00 
0.0000000e+00 -6.2038001e-05 0.0000000e+00 
0.0000000e+00 -4.4630375e-05 0.0000000e+00 
0.0000000e+00 -8.0023492e-05 0.0000000e+00 
0.0000000e+00 3.2033342e-05 0.0000000e+00 
0.0000000e+00 7.5528369e-05 0.0000000e+00 
0.0000000e+00 -1.1018794e-07 0.0000000e+00 
0.0000000e+00 -1.7214788e-04 0.0000000e+00 
0.0000000e+00 -5.8246189e-04 0.0000000e+00 
0.0000000e+00 -4.9668719e-04 0.0000000e+00 
0.0000000e+00 -1.5915631e-04 0.0000000e+00 
0.0000000e+00 2.5435716e-05 0.0000000e+00 
0.0000000e+00 4.9330240e-05 0.0000000e+00 
0.0000000e+00 -1.8286508e-05 0.0000000e+00 
0.0000000e+00 -4.0797724e-05 0.0000000e+00 
-1.2182896e-06 1.2357359e-06 7.2332034e-07 
-3.9379529e-06 7.1166573e-06 -1.7677831e-07 
1.1125121e-06 -1.0710457e-07 8.6802247e-06 
-3.5824082e-06 1.1502206e-05 1.2319554e-05 
1.1004309e-06 -1.5724751e-06 6.2655459e-07 
-1.6469695e-06 -8.3220029e-06 -8.9252615e-07 
-1.0055976e-05 -4.1009544e-06 5.3064525e-07 
-7.3223014e-06 8.1959224e-06 1.2176794e-06 
1.2808655e-06 8.0110531e-06 -8.1142643e-06 
2.2513716e-05 4.6195155e-06 -1.0555807e-05 
3.9167935e-05 3.3153819e-07 -1.7305931e-06 
3.2782442e-05 -3.0037490e-06 2.8046003e-07 
1.7445689e-05 -1.5627136e-06 8.0190021e-06 
-1.1599011e-06 -2.6106666e-06 2.6389037e-06 
-3.5988623e-06 -6.2376807e-06 -1.0716014e-05 
-9.8503242e-06 -2.2607569e-06 -2.7193296e-06 
-1.4150127e-05 -3.1946602e-06 8.6095552e-06 
-6.6915682e-06 9.0453250e-06 -1.4830945e-06 
-2.1928943e-07 1.2380588e-05 2.7460865e-06 
2.0415080e-05 8.2897037e-07 1.4765949e-06 
3.4813438e-05 -8.4284029e-06 -2.1480660e-06 
4.5942805e-05 -1.5614980e-05 7.1782738e-06 
2.8485765e-05 -9.8142673e-06 1.8612258e-05 
6.1760270e-06 2.3225975e-06 2.9964497e-07 
3.1362513e-06 3.5195608e-06 -5.0707795e-06 
-1.2237385e-06 5.7529132e-07 -3.2062505e-06 
-4.5247343e-06 -2.6553732e-06 3.9478268e-06 
-3.4784430e-06 -3.9946926e-06 3.9512065e-06 
-3.2174668e-07 6.4781639e-06 5.7342036e-06 
0.0000000e+00 -3.5943151e-05 0.0000000e+00 
0.0000000e+00 -5.6318535e-05 0.0000000e+00 
0.0000000e+00 -1.2618357e-05 0.0000000e+00 
0.0000000e+00 2.3951668e-06 0.0000000e+00 
0.0000000e+00 1.8757079e-05 0.0000000e+00 
0.0000000e+00 1.0867862e-04 0.0000000e+00 
0.0000000e+00 -4.8840919e-04 0.0000000e+00 
0.0000000e+00 -1.2992584e-03 0.0000000e+00 
0.0000000e+00 -1.1955487e-03 0.0000000e+00 
0.0000000e+00 -3.9027608e-04 0.0000000e+00 
0.0000000e+00 -1.0680118e-04 0.0000000e+00 
0.0000000e+00 -5.8965074e-05 0.0000000e+00 
0.0000000e+00 -9.6224256e-05 0.0000000e+00 
0.0000000e+00 -3.6625654e-05 0.0000000e+00 
0.0000000e+00 1.2557080e-04 0.0000000e+00 
0.0000000e+00 1.4808966e-04 0.0000000e+00 
0.0000000e+00 -4.6855805e-04 0.0000000e+00 
0.0000000e+00 -1.2795022e-03 0.0000000e+00 
0.0000000e+00 -1.0790707e-03 0.0000000e+00 
0.0000000e+00 -3.0978574e-04 0.0000000e+00 
0.0000000e+00 5.2944193e-05 0.0000000e+00 
0.0000000e+00 9.4910516e-05 0.0000000e+00 
0.0000000e+00 -3.0596868e-05 0.0000000e+00 
0.0000000e+00 -7.9314828e-05 0.0000000e+00 
-4.3867449e-06 1.6931263e-05 1.0068190e-05 
-6.1553874e-06 -5.6607016e-05 2.3819659e-05 
-2.0001004e-05 -4.4817476e-05 -4.2705768e-05 
-1.8575101e-05 1.5499882e-05 -3.9837720e-05 
-4.3275036e-06 3.2627133e-05 -2.8838578e-05 
5.2772011e-05 2.4453402e-05 2.2084494e-05 
2.1074176e-05 2.4071585e-05 1.1137974e-04 
-3.0171132e-04 -5.2459701e-04 3.2640621e-04 
-7.3498685e-04 -1.4143767e-03 1.1978766e-04 
-6.1005907e-04 -1.4098517e-03 -8.3321407e-05 
-1.4938020e-04 -2.9563505e-04 -2.0495933e-04 
-2.2290395e-05 -4.4113425e-05 -7.9383972e-05 
-3.6874462e-05 -2.5481300e-05 -5.2276813e-05 
-4.5440618e-05 -7.6403630e-05 -1.2514777e-05 
-1.1450287e-05 -3.9337065e-05 -7.2822368e-05 
8.1508784e-05 4.8246482e-05 -4.0015912e-05 
5.4257787e-05 1.5557779e-04 1.0734730e-04 
-2.7909176e-04 -6.4985122e-04 3.1738440e-04 
-6.5475202e-04 -2.0344022e-03 1.7524013e-04 
-5.3568633e-04 -1.5060084e-03 -7.5413889e-05 
-1.4502040e-04 -2.6072131e-04 -1.9392365e-04 
3.5001431e-06 7.4610514e-05 -1.1344755e-04 
4.5127843e-05 9.8858211e-05 -7.6971002e-05 
-1.0967478e-05 -3.5915531e-05 5.1676026e-05 
-1.9867162e-05 -8.6412583e-05 2.9049145e-06 
0.0000000e+00 -7.5821103e-05 0.0000000e+00 
0.0000000e+00 -3.7509952e-05 0.0000000e+00 
0.0000000e+00 -2.8792925e-05 0.0000000e+00 
0.0000000e+00 -6.6585664e-05 0.0000000e+00 
0.0000000e+00 6.6751207e-05 0.0000000e+00 
0.0000000e+00 1.8377656e-04 0.0000000e+00 
0.0000000e+00 -8.8897254e-04 0.0000000e+00 
0.0000000e+00 -2.4692514e-03 0.0000000e+00 
0.0000000e+00 -2.2848360e-03 0.0000000e+00 
0.0000000e+00 -6.6087610e-04 0.0000000e+00 
0.0000000e+00 -1.2523252e-04 0.0000000e+00 
0.0000000e+00 -2.5242334e-05 0.0000000e+00 
0.0000000e+00 -2.1154946e-04 0.0000000e+00 
0.0000000e+00 -1.1650752e-04 0.0000000e+00 
0.0000000e+00 1.9071583e-04 0.0000000e+00 
0.0000000e+00 2.3564637e-04 0.0000000e+00 
0.0000000e+00 -8.2927389e-04 0.0000000e+00 
0.0000000e+00 -2.3910217e-03 0.0000000e+00 
0.0000000e+00 -2.0675277e-03 0.0000000e+00 
0.0000000e+00 -5.1446329e-04 0.0000000e+00 
0.0000000e+00 1.1744018e-04 0.0000000e+00 
0.0000000e+00 1.4323561e-04 0.0000000e+00 
0.0000000e+00 -5.0584455e-05 0.0000000e+00 
0.0000000e+00 -1.2082056e-04 0.0000000e+00 
4.8673251e-06 -1.6500528e-05 -1.5792281e-07 
-5.1109050e-06 -1.9422592e-05 -2.5072823e-06 
-1.0842439e-05 -2.9158971e-06 -4.2656088e-06 
-6.0962307e-06 3.4276288e-06 -1.1306754e-05 
1.0345947e-05 1.6430016e-05 -1.7835193e-07 
2.7244398e-05 2.8425289e-05 2.1154268e-05 
5.4946988e-05 -6.7232490e-05 1.4532036e-05 
4.4643686e-05 -1.2584568e-04 3.4407567e-06 
4.0713869e-05 -1.2965511e-04 1.6522958e-05 
3.1327865e-05 -8.2944767e-05 1.0020817e-05 
-8.6545651e-06 -2.7474418e-05 -2.1973523e-05 
-1.0977280e-05 -3.0772557e-05 -2.0710539e-05 
-2.1163340e-05 -3.5722071e-05 -1.0855283e-05 
-1.1446872e-05 -7.8052926e-06 -1.3193498e-05 
9.8449182e-06 2.7211849e-05 5.0913773e-06 
1.5154671e-05 4.0808522e-05 3.5901598e-05 
3.8842965e-05 -4.9269700e-05 2.4834433e-05 
4.1250471e-05 -9.4525050e-05 2.3032593e-05 
3.2036198e-05 -6.0385042e-05 1.6352804e-05 
4.9235814e-07 1.9574993e-05 -2.3730348e-05 
-1.3424279e-06 1.8139426e-05 -2.1789279e-05 
-5.6840995e-06 -1.1372483e-05 -2.9762241e-06 
-7.1814547e-06 -2.4002678e-05 9.4879006e-06 
-9.9206423e-05 -1.1956794e-03 6.8239788e-05 
0.0000000e+00 0.0000000e+00 0.0000000e+00 
0.0000000e+00 0.0000000e+00 0.0000000e+00 
0.0000000e+00 0.0000000e+00 0.0000000e+00 
0.0000000e+00 0.0000000e+00 0.0000000e+00 