# vtk DataFile Version 4.0
vtk output
ASCII
DATASET UNSTRUCTURED_GRID
POINTS 1919 float
0.0000000e+00 0.0000000e+00 0.0000000e+00 
0.0000000e+00 0.0000000e+00 5.0000000e+01 
5.0000000e+00 0.0000000e+00 0.0000000e+00 
5.0000000e+00 0.0000000e+00 5.0000000e+01 
5.0000000e+00 1.0000000e+00 0.0000000e+00 
5.0000000e+00 1.0000000e+00 5.0000000e+01 
0.0000000e+00 1.0000000e+00 0.0000000e+00 
0.0000000e+00 1.0000000e+00 5.0000000e+01 
5.0000000e+00 2.0000000e+00 0.0000000e+00 
5.0000000e+00 2.0000000e+00 5.0000000e+01 
3.0000000e+00 2.0000000e+00 0.0000000e+00 
3.0000000e+00 2.0000000e+00 5.0000000e+01 
0.0000000e+00 2.0000000e+00 0.0000000e+00 
0.0000000e+00 2.0000000e+00 5.0000000e+01 
1.5000000e+00 3.0000000e+00 0.0000000e+00 
1.5000000e+00 3.0000000e+00 5.0000000e+01 
7.5000000e-01 3.0000000e+00 0.0000000e+00 
7.5000000e-01 3.0000000e+00 5.0000000e+01 
0.0000000e+00 3.0000000e+00 0.0000000e+00 
0.0000000e+00 3.0000000e+00 5.0000000e+01 
7.5000000e-01 3.0000000e+00 5.0000000e-01 
7.5000000e-01 3.0000000e+00 1.0000000e+00 
7.5000000e-01 3.0000000e+00 1.5000000e+00 
7.5000000e-01 3.0000000e+00 2.0000000e+00 
7.5000000e-01 3.0000000e+00 2.5000000e+00 
7.5000000e-01 3.0000000e+00 3.0000000e+00 
7.5000000e-01 3.0000000e+00 3.5000000e+00 
7.5000000e-01 3.0000000e+00 4.0000000e+00 
7.5000000e-01 3.0000000e+00 4.5000000e+00 
7.5000000e-01 3.0000000e+00 5.0000000e+00 
7.5000000e-01 3.0000000e+00 5.5000000e+00 
7.5000000e-01 3.0000000e+00 6.0000000e+00 
7.5000000e-01 3.0000000e+00 6.5000000e+00 
7.5000000e-01 3.0000000e+00 7.0000000e+00 
7.5000000e-01 3.0000000e+00 7.5000000e+00 
7.5000000e-01 3.0000000e+00 8.0000000e+00 
7.5000000e-01 3.0000000e+00 8.5000000e+00 
7.5000000e-01 3.0000000e+00 9.0000000e+00 
7.5000000e-01 3.0000000e+00 9.5000000e+00 
7.5000000e-01 3.0000000e+00 1.0000000e+01 
7.5000000e-01 3.0000000e+00 1.0500000e+01 
7.5000000e-01 3.0000000e+00 1.1000000e+01 
7.5000000e-01 3.0000000e+00 1.1500000e+01 
7.5000000e-01 3.0000000e+00 1.2000000e+01 
7.5000000e-01 3.0000000e+00 1.2500000e+01 
7.5000000e-01 3.0000000e+00 1.3000000e+01 
7.5000000e-01 3.0000000e+00 1.3500000e+01 
7.5000000e-01 3.0000000e+00 1.4000000e+01 
7.5000000e-01 3.0000000e+00 1.4500000e+01 
7.5000000e-01 3.0000000e+00 1.5000000e+01 
7.5000000e-01 3.0000000e+00 1.5500000e+01 
7.5000000e-01 3.0000000e+00 1.6000000e+01 
7.5000000e-01 3.0000000e+00 1.6500000e+01 
7.5000000e-01 3.0000000e+00 1.7000000e+01 
7.5000000e-01 3.0000000e+00 1.7500000e+01 
7.5000000e-01 3.0000000e+00 1.8000000e+01 
7.5000000e-01 3.0000000e+00 1.8500000e+01 
7.5000000e-01 3.0000000e+00 1.9000000e+01 
7.5000000e-01 3.0000000e+00 1.9500000e+01 
7.5000000e-01 3.0000000e+00 2.0000000e+01 
7.5000000e-01 3.0000000e+00 2.0500000e+01 
7.5000000e-01 3.0000000e+00 2.1000000e+01 
7.5000000e-01 3.0000000e+00 2.1500000e+01 
7.5000000e-01 3.0000000e+00 2.2000000e+01 
7.5000000e-01 3.0000000e+00 2.2500000e+01 
7.5000000e-01 3.0000000e+00 2.3000000e+01 
7.5000000e-01 3.0000000e+00 2.3500000e+01 
7.5000000e-01 3.0000000e+00 2.4000000e+01 
7.5000000e-01 3.0000000e+00 2.4500000e+01 
7.5000000e-01 3.0000000e+00 2.5000000e+01 
7.5000000e-01 3.0000000e+00 2.5500000e+01 
7.5000000e-01 3.0000000e+00 2.6000000e+01 
7.5000000e-01 3.0000000e+00 2.6500000e+01 
7.5000000e-01 3.0000000e+00 2.7000000e+01 
7.5000000e-01 3.0000000e+00 2.7500000e+01 
7.5000000e-01 3.0000000e+00 2.8000000e+01 
7.5000000e-01 3.0000000e+00 2.8500000e+01 
7.5000000e-01 3.0000000e+00 2.9000000e+01 
7.5000000e-01 3.0000000e+00 2.9500000e+01 
7.5000000e-01 3.0000000e+00 3.0000000e+01 
7.5000000e-01 3.0000000e+00 3.0500000e+01 
7.5000000e-01 3.0000000e+00 3.1000000e+01 
7.5000000e-01 3.0000000e+00 3.1500000e+01 
7.5000000e-01 3.0000000e+00 3.2000000e+01 
7.5000000e-01 3.0000000e+00 3.2500000e+01 
7.5000000e-01 3.0000000e+00 3.3000000e+01 
7.5000000e-01 3.0000000e+00 3.3500000e+01 
7.5000000e-01 3.0000000e+00 3.4000000e+01 
7.5000000e-01 3.0000000e+00 3.4500000e+01 
7.5000000e-01 3.0000000e+00 3.5000000e+01 
7.5000000e-01 3.0000000e+00 3.5500000e+01 
7.5000000e-01 3.0000000e+00 3.6000000e+01 
7.5000000e-01 3.0000000e+00 3.6500000e+01 
7.5000000e-01 3.0000000e+00 3.7000000e+01 
7.5000000e-01 3.0000000e+00 3.7500000e+01 
7.5000000e-01 3.0000000e+00 3.8000000e+01 
7.5000000e-01 3.0000000e+00 3.8500000e+01 
7.5000000e-01 3.0000000e+00 3.9000000e+01 
7.5000000e-01 3.0000000e+00 3.9500000e+01 
7.5000000e-01 3.0000000e+00 4.0000000e+01 
7.5000000e-01 3.0000000e+00 4.0500000e+01 
7.5000000e-01 3.0000000e+00 4.1000000e+01 
7.5000000e-01 3.0000000e+00 4.1500000e+01 
7.5000000e-01 3.0000000e+00 4.2000000e+01 
7.5000000e-01 3.0000000e+00 4.2500000e+01 
7.5000000e-01 3.0000000e+00 4.3000000e+01 
7.5000000e-01 3.0000000e+00 4.3500000e+01 
7.5000000e-01 3.0000000e+00 4.4000000e+01 
7.5000000e-01 3.0000000e+00 4.4500000e+01 
7.5000000e-01 3.0000000e+00 4.5000000e+01 
7.5000000e-01 3.0000000e+00 4.5500000e+01 
7.5000000e-01 3.0000000e+00 4.6000000e+01 
7.5000000e-01 3.0000000e+00 4.6500000e+01 
7.5000000e-01 3.0000000e+00 4.7000000e+01 
7.5000000e-01 3.0000000e+00 4.7500000e+01 
7.5000000e-01 3.0000000e+00 4.8000000e+01 
7.5000000e-01 3.0000000e+00 4.8500000e+01 
7.5000000e-01 3.0000000e+00 4.9000000e+01 
7.5000000e-01 3.0000000e+00 4.9500000e+01 
7.5000000e-01 3.0250001e+00 0.0000000e+00 
7.5000000e-01 3.0250001e+00 5.0000000e-01 
7.5000000e-01 3.0250001e+00 1.0000000e+00 
7.5000000e-01 3.0250001e+00 1.5000000e+00 
7.5000000e-01 3.0250001e+00 2.0000000e+00 
7.5000000e-01 3.0250001e+00 2.5000000e+00 
7.5000000e-01 3.0250001e+00 3.0000000e+00 
7.5000000e-01 3.0250001e+00 3.5000000e+00 
7.5000000e-01 3.0250001e+00 4.0000000e+00 
7.5000000e-01 3.0250001e+00 4.5000000e+00 
7.5000000e-01 3.0250001e+00 5.0000000e+00 
7.5000000e-01 3.0250001e+00 5.5000000e+00 
7.5000000e-01 3.0250001e+00 6.0000000e+00 
7.5000000e-01 3.0250001e+00 6.5000000e+00 
7.5000000e-01 3.0250001e+00 7.0000000e+00 
7.5000000e-01 3.0250001e+00 7.5000000e+00 
7.5000000e-01 3.0250001e+00 8.0000000e+00 
7.5000000e-01 3.0250001e+00 8.5000000e+00 
7.5000000e-01 3.0250001e+00 9.0000000e+00 
7.5000000e-01 3.0250001e+00 9.5000000e+00 
7.5000000e-01 3.0250001e+00 1.0000000e+01 
7.5000000e-01 3.0250001e+00 1.0500000e+01 
7.5000000e-01 3.0250001e+00 1.1000000e+01 
7.5000000e-01 3.0250001e+00 1.1500000e+01 
7.5000000e-01 3.0250001e+00 1.2000000e+01 
7.5000000e-01 3.0250001e+00 1.2500000e+01 
7.5000000e-01 3.0250001e+00 1.3000000e+01 
7.5000000e-01 3.0250001e+00 1.3500000e+01 
7.5000000e-01 3.0250001e+00 1.4000000e+01 
7.5000000e-01 3.0250001e+00 1.4500000e+01 
7.5000000e-01 3.0250001e+00 1.5000000e+01 
7.5000000e-01 3.0250001e+00 1.5500000e+01 
7.5000000e-01 3.0250001e+00 1.6000000e+01 
7.5000000e-01 3.0250001e+00 1.6500000e+01 
7.5000000e-01 3.0250001e+00 1.7000000e+01 
7.5000000e-01 3.0250001e+00 1.7500000e+01 
7.5000000e-01 3.0250001e+00 1.8000000e+01 
7.5000000e-01 3.0250001e+00 1.8500000e+01 
7.5000000e-01 3.0250001e+00 1.9000000e+01 
7.5000000e-01 3.0250001e+00 1.9500000e+01 
7.5000000e-01 3.0250001e+00 2.0000000e+01 
7.5000000e-01 3.0250001e+00 2.0500000e+01 
7.5000000e-01 3.0250001e+00 2.1000000e+01 
7.5000000e-01 3.0250001e+00 2.1500000e+01 
7.5000000e-01 3.0250001e+00 2.2000000e+01 
7.5000000e-01 3.0250001e+00 2.2500000e+01 
7.5000000e-01 3.0250001e+00 2.3000000e+01 
7.5000000e-01 3.0250001e+00 2.3500000e+01 
7.5000000e-01 3.0250001e+00 2.4000000e+01 
7.5000000e-01 3.0250001e+00 2.4500000e+01 
7.5000000e-01 3.0250001e+00 2.5000000e+01 
7.5000000e-01 3.0250001e+00 2.5500000e+01 
7.5000000e-01 3.0250001e+00 2.6000000e+01 
7.5000000e-01 3.0250001e+00 2.6500000e+01 
7.5000000e-01 3.0250001e+00 2.7000000e+01 
7.5000000e-01 3.0250001e+00 2.7500000e+01 
7.5000000e-01 3.0250001e+00 2.8000000e+01 
7.5000000e-01 3.0250001e+00 2.8500000e+01 
7.5000000e-01 3.0250001e+00 2.9000000e+01 
7.5000000e-01 3.0250001e+00 2.9500000e+01 
7.5000000e-01 3.0250001e+00 3.0000000e+01 
7.5000000e-01 3.0250001e+00 3.0500000e+01 
7.5000000e-01 3.0250001e+00 3.1000000e+01 
7.5000000e-01 3.0250001e+00 3.1500000e+01 
7.5000000e-01 3.0250001e+00 3.2000000e+01 
7.5000000e-01 3.0250001e+00 3.2500000e+01 
7.5000000e-01 3.0250001e+00 3.3000000e+01 
7.5000000e-01 3.0250001e+00 3.3500000e+01 
7.5000000e-01 3.0250001e+00 3.4000000e+01 
7.5000000e-01 3.0250001e+00 3.4500000e+01 
7.5000000e-01 3.0250001e+00 3.5000000e+01 
7.5000000e-01 3.0250001e+00 3.5500000e+01 
7.5000000e-01 3.0250001e+00 3.6000000e+01 
7.5000000e-01 3.0250001e+00 3.6500000e+01 
7.5000000e-01 3.0250001e+00 3.7000000e+01 
7.5000000e-01 3.0250001e+00 3.7500000e+01 
7.5000000e-01 3.0250001e+00 3.8000000e+01 
7.5000000e-01 3.0250001e+00 3.8500000e+01 
7.5000000e-01 3.0250001e+00 3.9000000e+01 
7.5000000e-01 3.0250001e+00 3.9500000e+01 
7.5000000e-01 3.0250001e+00 4.0000000e+01 
7.5000000e-01 3.0250001e+00 4.0500000e+01 
7.5000000e-01 3.0250001e+00 4.1000000e+01 
7.5000000e-01 3.0250001e+00 4.1500000e+01 
7.5000000e-01 3.0250001e+00 4.2000000e+01 
7.5000000e-01 3.0250001e+00 4.2500000e+01 
7.5000000e-01 3.0250001e+00 4.3000000e+01 
7.5000000e-01 3.0250001e+00 4.3500000e+01 
7.5000000e-01 3.0250001e+00 4.4000000e+01 
7.5000000e-01 3.0250001e+00 4.4500000e+01 
7.5000000e-01 3.0250001e+00 4.5000000e+01 
7.5000000e-01 3.0250001e+00 4.5500000e+01 
7.5000000e-01 3.0250001e+00 4.6000000e+01 
7.5000000e-01 3.0250001e+00 4.6500000e+01 
7.5000000e-01 3.0250001e+00 4.7000000e+01 
7.5000000e-01 3.0250001e+00 4.7500000e+01 
7.5000000e-01 3.0250001e+00 4.8000000e+01 
7.5000000e-01 3.0250001e+00 4.8500000e+01 
7.5000000e-01 3.0250001e+00 4.9000000e+01 
7.5000000e-01 3.0250001e+00 4.9500000e+01 
7.5000000e-01 3.0250001e+00 5.0000000e+01 
3.0000000e+00 2.0000000e+00 3.6000000e+01 
8.0487806e-01 3.0000000e+00 3.6000000e+01 
0.0000000e+00 0.0000000e+00 1.0000000e+00 
0.0000000e+00 0.0000000e+00 2.0000000e+00 
0.0000000e+00 0.0000000e+00 3.0000000e+00 
0.0000000e+00 0.0000000e+00 4.0000000e+00 
0.0000000e+00 0.0000000e+00 5.0000000e+00 
0.0000000e+00 0.0000000e+00 6.0000000e+00 
0.0000000e+00 0.0000000e+00 7.0000000e+00 
0.0000000e+00 0.0000000e+00 8.0000000e+00 
[...]
POINT_DATA 1919
FIELD FieldData 3
DISPLACEMENT 3 1919  float
0.0000000e+00 0.0000000e+00 0.0000000e+00 
0.0000000e+00 0.0000000e+00 0.0000000e+00 
0.0000000e+00 0.0000000e+00 0.0000000e+00 
0.0000000e+00 0.0000000e+00 0.0000000e+00 
2.2722033e-07 -1.9905553e-08 -2.6410808e-07 
3.1262648e-06 -2.3945731e-06 3.3612516e-06 
0.0000000e+00 -2.1891806e-06 0.0000000e+00 
0.0000000e+00 1.7491306e-05 0.0000000e+00 
-2.8307826e-07 3.0894967e-07 1.3670290e-06 
5.0560411e-06 -2.8283823e-06 4.6108821e-06 
-3.5814182e-07 4.0491284e-07 1.8240338e-06 
1.8929684e-06 -5.9174840e-06 1.0218200e-05 
0.0000000e+00 -1.3364157e-06 0.0000000e+00 
0.0000000e+00 3.5833062e-05 0.0000000e+00 
-3.7866939e-06 -2.3354078e-06 2.5320678e-05 
1.7225988e-05 1.1500200e-05 1.5694919e-05 
1.3567037e-05 -3.5720204e-05 2.0338375e-05 
2.3127224e-05 -2.2227085e-05 3.0239669e-05 
0.0000000e+00 -3.4160407e-06 0.0000000e+00 
0.0000000e+00 6.4966167e-05 0.0000000e+00 
-9.3857871e-06 -3.4659362e-05 1.0161889e-05 
-1.1909328e-05 -3.1810891e-05 9.6740541e-07 
-1.2257321e-05 -2.8423676e-05 -2.8414579e-06 
-1.0328082e-05 -2.5184172e-05 -3.3521126e-06 
-1.0996860e-05 -2.0910347e-05 -8.1446824e-06 
-3.5080718e-06 -1.4184084e-05 -9.1994998e-06 
-2.5388435e-06 -2.9933551e-06 -1.8472998e-05 
3.3274171e-06 1.1591354e-05 -2.4542636e-05 
2.3521764e-06 2.6216811e-05 -3.0087860e-05 
7.6376919e-06 3.6160924e-05 -2.7827202e-05 
8.2964143e-06 3.9998704e-05 -1.9577032e-05 
1.1415264e-05 3.7134425e-05 -9.9007839e-06 
1.1741719e-05 3.1734209e-05 -1.0007825e-05 
1.3759626e-05 2.9953313e-05 -8.1821690e-06 
1.1662770e-05 3.3571778e-05 -9.8384362e-06 
8.0056761e-06 4.0237715e-05 -1.0729939e-05 
7.1260811e-06 4.3765820e-05 -3.1047236e-06 
1.0841563e-05 3.6393372e-05 4.8752361e-07 
1.2559491e-05 2.0838459e-05 7.9299089e-06 
2.2105585e-06 6.9739835e-06 2.1803618e-05 
1.8547065e-06 2.2513910e-07 4.1164571e-05 
-4.3120317e-06 -6.6278801e-07 4.8005284e-05 
-5.4367783e-06 -5.0901249e-06 5.6612160e-05 
-5.5521714e-06 -2.1926091e-05 5.8310419e-05 
3.0449896e-06 -5.0668379e-05 5.1658943e-05 
-2.8963206e-07 -7.5932679e-05 5.2389347e-05 
-9.3270355e-06 -7.6586322e-05 6.2655890e-05 
-1.3863780e-05 -3.9727991e-05 6.1645827e-05 
-1.8258728e-05 2.2089431e-05 6.4922853e-05 
-7.8788416e-06 6.8723100e-05 5.5419663e-05 
-6.4162837e-06 7.1511982e-05 3.6879923e-05 
-6.0496268e-06 1.3041590e-05 5.7032797e-05 
-3.0352572e-05 -1.1765644e-04 9.6905678e-05 
-4.2036983e-05 -3.4810649e-04 1.0094093e-04 
-5.4730477e-05 -7.6296233e-04 1.9040021e-04 
-8.4888823e-05 -1.4711970e-03 1.2453229e-04 
-1.2517501e-04 -2.5229836e-03 2.5588402e-04 
-1.6958693e-04 -3.7520465e-03 9.8281220e-05 
-1.9750511e-04 -4.6916902e-03 1.4562692e-04 
-2.0903627e-04 -4.7550621e-03 5.2066633e-05 
-2.1931437e-04 -4.5170728e-03 6.1967854e-05 
-2.3689421e-04 -4.4834488e-03 3.6603094e-05 
-2.3621522e-04 -4.7646239e-03 5.4904580e-05 
-2.5162162e-04 -4.8622070e-03 -3.8908925e-05 
-2.6314057e-04 -4.1731615e-03 -1.6879314e-04 
-2.2651545e-04 -3.0566826e-03 -1.4592483e-04 
-1.8634208e-04 -1.9711042e-03 -2.7315074e-04 
-1.1986154e-04 -1.1055835e-03 -1.8755501e-04 
-7.5131560e-05 -5.1424216e-04 -2.2963040e-04 
-3.8008511e-05 -1.5738420e-04 -1.8135563e-04 
-2.0531052e-05 3.2662250e-05 -1.7749010e-04 
6.8442000e-07 1.1174619e-04 -1.4234721e-04 
1.3923769e-05 1.2412333e-04 -1.1701147e-04 
2.1571301e-05 9.9043144e-05 -8.8056731e-05 
1.1306221e-05 6.6209563e-05 -6.8994261e-05 
7.4961581e-06 5.1923525e-05 -5.9758881e-05 
1.5358359e-05 6.5061991e-05 -5.1508217e-05 
2.4084160e-05 8.9896050e-05 -3.7998689e-05 
3.1415482e-05 1.0442599e-04 -1.9488363e-05 
3.5091358e-05 9.9885299e-05 1.6921183e-06 
4.9222715e-05 9.0687325e-05 4.4432340e-06 
4.6431527e-05 9.7476470e-05 9.1086631e-06 
3.7397815e-05 1.2064262e-04 2.8749340e-05 
2.6677972e-05 1.4442122e-04 4.7450107e-05 
2.1627520e-05 1.4322129e-04 7.6234326e-05 
1.8119224e-05 1.0920197e-04 9.5876989e-05 
3.5908108e-06 6.7310626e-05 1.0001399e-04 
-6.9486250e-06 5.9341794e-05 9.9135948e-05 
-1.1776134e-05 1.0715450e-04 8.6783875e-05 
-2.8594706e-05 1.8892516e-04 4.0100931e-05 
-2.4354218e-05 2.3432783e-04 2.2426048e-05 
-7.8734301e-06 1.7368254e-04 3.0458865e-05 
7.1006093e-06 -2.9789033e-05 8.9814297e-05 
-6.1148471e-06 -3.6911023e-04 1.3183962e-04 
-2.1679298e-05 -8.7315048e-04 2.7049478e-04 
-5.8649955e-05 -1.6098008e-03 2.3371205e-04 
-9.3464354e-05 -2.6292130e-03 3.7752464e-04 
-1.6570502e-04 -3.7889865e-03 1.9061216e-04 
-2.3069428e-04 -4.6682293e-03 1.8583087e-04 
-2.5296569e-04 -4.7414973e-03 8.3407067e-05 
-2.5984130e-04 -4.5611612e-03 5.2167561e-05 
-2.6685855e-04 -4.5530121e-03 -3.5910565e-05 
-2.7548443e-04 -4.7710636e-03 -5.8508023e-05 
-2.7233429e-04 -4.7287345e-03 -1.5972450e-04 
-2.3581329e-04 -3.8848938e-03 -2.9817771e-04 
-1.7292447e-04 -2.6644510e-03 -2.1543143e-04 
-1.2246489e-04 -1.5474387e-03 -2.8627983e-04 
-1.1014814e-04 -7.1672734e-04 -3.1043615e-04 
-2.5680854e-05 -1.9531249e-04 -1.4417538e-04 
-9.2906648e-06 7.1267845e-05 -7.2495139e-05 
-7.5433136e-06 1.7147462e-04 -3.8195671e-05 
-7.2045755e-06 1.7266013e-04 -1.8116802e-05 
-1.1184403e-05 1.2309071e-04 -9.4207744e-06 
-1.2446818e-05 5.8091038e-05 -2.3293351e-05 
-1.1104481e-05 6.8566364e-06 -3.3760229e-05 
-1.7647943e-06 -1.9607134e-05 -4.7775746e-05 
8.4070934e-06 -2.5728512e-05 -5.0883136e-05 
1.5518721e-05 -2.4219960e-05 -4.6740915e-05 
2.4831998e-05 -2.2506516e-05 -2.0493422e-05 
0.0000000e+00 -3.5756424e-05 0.0000000e+00 
0.0000000e+00 -3.4657554e-05 0.0000000e+00 
0.0000000e+00 -3.1822216e-05 0.0000000e+00 
0.0000000e+00 -2.8447890e-05 0.0000000e+00 
0.0000000e+00 -2.5128507e-05 0.0000000e+00 
0.0000000e+00 -2.0959031e-05 0.0000000e+00 
0.0000000e+00 -1.4125628e-05 0.0000000e+00 
0.0000000e+00 -2.8910758e-06 0.0000000e+00 
0.0000000e+00 1.1736454e-05 0.0000000e+00 
0.0000000e+00 2.6187688e-05 0.0000000e+00 
0.0000000e+00 3.6225374e-05 0.0000000e+00 
0.0000000e+00 3.9786471e-05 0.0000000e+00 
0.0000000e+00 3.6997350e-05 0.0000000e+00 
0.0000000e+00 3.1881795e-05 0.0000000e+00 
0.0000000e+00 3.0122636e-05 0.0000000e+00 
0.0000000e+00 3.3889999e-05 0.0000000e+00 
0.0000000e+00 4.0489900e-05 0.0000000e+00 
0.0000000e+00 4.3334083e-05 0.0000000e+00 
0.0000000e+00 3.5955465e-05 0.0000000e+00 
0.0000000e+00 2.0828387e-05 0.0000000e+00 
0.0000000e+00 7.1692375e-06 0.0000000e+00 
0.0000000e+00 6.9443928e-07 0.0000000e+00 
0.0000000e+00 -5.0513336e-07 0.0000000e+00 
0.0000000e+00 -5.3701306e-06 0.0000000e+00 
0.0000000e+00 -2.2623255e-05 0.0000000e+00 
0.0000000e+00 -5.1315801e-05 0.0000000e+00 
0.0000000e+00 -7.6080636e-05 0.0000000e+00 
0.0000000e+00 -7.5441443e-05 0.0000000e+00 
0.0000000e+00 -3.7911075e-05 0.0000000e+00 
0.0000000e+00 2.2234704e-05 0.0000000e+00 
0.0000000e+00 6.8514470e-05 0.0000000e+00 
0.0000000e+00 7.0733076e-05 0.0000000e+00 
0.0000000e+00 1.3175938e-05 0.0000000e+00 
0.0000000e+00 -1.1502924e-04 0.0000000e+00 
0.0000000e+00 -3.4648497e-04 0.0000000e+00 
0.0000000e+00 -7.6510833e-04 0.0000000e+00 
0.0000000e+00 -1.4810895e-03 0.0000000e+00 
0.0000000e+00 -2.5388671e-03 0.0000000e+00 
0.0000000e+00 -3.7788928e-03 0.0000000e+00 
0.0000000e+00 -4.7121458e-03 0.0000000e+00 
0.0000000e+00 -4.7806739e-03 0.0000000e+00 
0.0000000e+00 -4.5382539e-03 0.0000000e+00 
0.0000000e+00 -4.5140656e-03 0.0000000e+00 
0.0000000e+00 -4.7906009e-03 0.0000000e+00 
0.0000000e+00 -4.8913145e-03 0.0000000e+00 
0.0000000e+00 -4.1907080e-03 0.0000000e+00 
0.0000000e+00 -3.0713493e-03 0.0000000e+00 
0.0000000e+00 -1.9784793e-03 0.0000000e+00 
0.0000000e+00 -1.1101493e-03 0.0000000e+00 
0.0000000e+00 -5.1512115e-04 0.0000000e+00 
0.0000000e+00 -1.5610055e-04 0.0000000e+00 
0.0000000e+00 3.3558441e-05 0.0000000e+00 
0.0000000e+00 1.1233980e-04 0.0000000e+00 
0.0000000e+00 1.2390409e-04 0.0000000e+00 
0.0000000e+00 9.9221688e-05 0.0000000e+00 
0.0000000e+00 6.7218542e-05 0.0000000e+00 
0.0000000e+00 5.3250100e-05 0.0000000e+00 
0.0000000e+00 6.5551838e-05 0.0000000e+00 
0.0000000e+00 8.9333276e-05 0.0000000e+00 
0.0000000e+00 1.0316439e-04 0.0000000e+00 
0.0000000e+00 9.9402168e-05 0.0000000e+00 
0.0000000e+00 9.1483162e-05 0.0000000e+00 
0.0000000e+00 9.8239623e-05 0.0000000e+00 
0.0000000e+00 1.2145428e-04 0.0000000e+00 
0.0000000e+00 1.4392889e-04 0.0000000e+00 
0.0000000e+00 1.4172131e-04 0.0000000e+00 
0.0000000e+00 1.0817714e-04 0.0000000e+00 
0.0000000e+00 6.7621062e-05 0.0000000e+00 
0.0000000e+00 6.1062266e-05 0.0000000e+00 
0.0000000e+00 1.1005665e-04 0.0000000e+00 
0.0000000e+00 1.8993930e-04 0.0000000e+00 
0.0000000e+00 2.3326637e-04 0.0000000e+00 
0.0000000e+00 1.7106558e-04 0.0000000e+00 
0.0000000e+00 -2.8999993e-05 0.0000000e+00 
0.0000000e+00 -3.6757695e-04 0.0000000e+00 
0.0000000e+00 -8.7391480e-04 0.0000000e+00 
0.0000000e+00 -1.6188038e-03 0.0000000e+00 
0.0000000e+00 -2.6441249e-03 0.0000000e+00 
0.0000000e+00 -3.8156467e-03 0.0000000e+00 
0.0000000e+00 -4.6902671e-03 0.0000000e+00 
0.0000000e+00 -4.7679143e-03 0.0000000e+00 
0.0000000e+00 -4.5809909e-03 0.0000000e+00 
0.0000000e+00 -4.5804889e-03 0.0000000e+00 
0.0000000e+00 -4.7958735e-03 0.0000000e+00 
0.0000000e+00 -4.7577647e-03 0.0000000e+00 
0.0000000e+00 -3.9027350e-03 0.0000000e+00 
0.0000000e+00 -2.6799475e-03 0.0000000e+00 
0.0000000e+00 -1.5554593e-03 0.0000000e+00 
0.0000000e+00 -7.1990496e-04 0.0000000e+00 
0.0000000e+00 -1.9637383e-04 0.0000000e+00 
0.0000000e+00 7.2513634e-05 0.0000000e+00 
0.0000000e+00 1.7239114e-04 0.0000000e+00 
0.0000000e+00 1.7326139e-04 0.0000000e+00 
0.0000000e+00 1.2355279e-04 0.0000000e+00 
0.0000000e+00 5.9126422e-05 0.0000000e+00 
0.0000000e+00 7.6412243e-06 0.0000000e+00 
0.0000000e+00 -1.9260844e-05 0.0000000e+00 
0.0000000e+00 -2.6039268e-05 0.0000000e+00 
0.0000000e+00 -2.4553165e-05 0.0000000e+00 
0.0000000e+00 -2.2644337e-05 0.0000000e+00 
0.0000000e+00 -2.2156211e-05 0.0000000e+00 
2.5746718e-05 -1.5758336e-05 1.5718795e-05 
-7.0118408e-06 1.9887178e-04 3.4319743e-05 
0.0000000e+00 0.0000000e+00 0.0000000e+00 
0.0000000e+00 0.0000000e+00 0.0000000e+00 
0.0000000e+00 0.0000000e+00 0.0000000e+00 
0.0000000e+00 0.0000000e+00 0.0000000e+00 
0.0000000e+00 0.0000000e+00 0.0000000e+00 
0.0000000e+00 0.0000000e+00 0.0000000e+00 
0.0000000e+00 0.0000000e+00 0.0000000e+00 
0.0000000e+00 0.0000000e+00 0.0000000e+00 
0.0000000e+00 0.0000000e+00 0.0000000e+00 
0.0000000e+00 0.0000000e+00 0.0000000e+00 
0.0000000e+00 0.0000000e+00 0.0000000e+00 
0.0000000e+00 0.0000000e+00 0.0000000e+00 
0.0000000e+00 0.0000000e+00 0.0000000e+00 
0.0000000e+00 0.0000000e+00 0.0000000e+00 
0.0000000e+00 0.0000000e+00 0.0000000e+00 
0.0000000e+00 0.0000000e+00 0.0000000e+00 
0.0000000e+00 0.0000000e+00 0.0000000e+00 
0.0000000e+00 0.0000000e+00 0.0000000e+00 
0.0000000e+00 0.0000000e+00 0.0000000e+00 
0.0000000e+00 0.0000000e+00 0.0000000e+00 
0.0000000e+00 0.0000000e+00 0.0000000e+00 
0.0000000e+00 0.0000000e+00 0.0000000e+00 
0.0000000e+00 0.0000000e+00 0.0000000e+00 
0.0000000e+00 0.0000000e+00 0.0000000e+00 
0.0000000e+00 0.0000000e+00 0.0000000e+00 
0.0000000e+00 0.0000000e+00 0.0000000e+00 
0.0000000e+00 0.0000000e+00 0.0000000e+00 
0.0000000e+00 0.0000000e+00 0.0000000e+00 
0.0000000e+00 0.0000000e+00 0.0000000e+00 
0.0000000e+00 0.0000000e+00 0.0000000e+00 
0.0000000e+00 0.0000000e+00 0.0000000e+00 
0.0000000e+00 0.0000000e+00 0.0000000e+00 
0.0000000e+00 0.0000000e+00 0.0000000e+00 
0.0000000e+00 0.0000000e+00 0.0000000e+00 
0.0000000e+00 0.0000000e+00 0.0000000e+00 
0.0000000e+00 0.0000000e+00 0.0000000e+00 
0.0000000e+00 0.0000000e+00 0.0000000e+00 
0.0000000e+00 0.0000000e+00 0.0000000e+00 
0.0000000e+00 0.0000000e+00 0.0000000e+00 
0.0000000e+00 0.0000000e+00 0.0000000e+00 
0.0000000e+00 0.0000000e+00 0.0000000e+00 
0.0000000e+00 0.0000000e+00 0.0000000e+00 
0.0000000e+00 0.0000000e+00 0.0000000e+00 
0.0000000e+00 0.0000000e+00 0.0000000e+00 
0.0000000e+00 0.0000000e+00 0.0000000e+00 
0.0000000e+00 0.0000000e+00 0.0000000e+00 
0.0000000e+00 0.0000000e+00 0.0000000e+00 
0.0000000e+00 0.0000000e+00 0.0000000e+00 
0.0000000e+00 0.0000000e+00 0.0000000e+00 
0.0000000e+00 0.0000000e+00 0.0000000e+00 
0.0000000e+00 0.0000000e+00 0.0000000e+00 
0.0000000e+00 0.0000000e+00 0.0000000e+00 
0.0000000e+00 0.0000000e+00 0.0000000e+00 
0.0000000e+00 0.0000000e+00 0.0000000e+00 
0.0000000e+00 0.0000000e+00 0.0000000e+00 
0.0000000e+00 0.0000000e+00 0.0000000e+00 
0.0000000e+00 0.0000000e+00 0.0000000e+00 
0.0000000e+00 0.0000000e+00 0.0000000e+00 
0.0000000e+00 0.0000000e+00 0.0000000e+00 
0.0000000e+00 0.0000000e+00 0.0000000e+00 
0.0000000e+00 0.0000000e+00 0.0000000e+00 
0.0000000e+00 0.0000000e+00 0.0000000e+00 
0.0000000e+00 0.0000000e+00 0.0000000e+00 
0.0000000e+00 0.0000000e+00 0.0000000e+00 
0.0000000e+00 0.0000000e+00 0.0000000e+00 
0.0000000e+00 0.0000000e+00 0.0000000e+00 
0.0000000e+00 0.0000000e+00 0.0000000e+00 
0.0000000e+00 0.0000000e+00 0.0000000e+00 
0.0000000e+00 0.0000000e+00 0.0000000e+00 
0.0000000e+00 0.0000000e+00 0.0000000e+00 
0.0000000e+00 0.0000000e+00 0.0000000e+00 
0.0000000e+00 0.0000000e+00 0.0000000e+00 
0.0000000e+00 0.0000000e+00 0.0000000e+00 
0.0000000e+00 0.0000000e+00 0.0000000e+00 
0.0000000e+00 0.0000000e+00 0.0000000e+00 
0.0000000e+00 0.0000000e+00 0.0000000e+00 
0.0000000e+00 0.0000000e+00 0.0000000e+00 
0.0000000e+00 0.0000000e+00 0.0000000e+00 
0.0000000e+00 0.0000000e+00 0.0000000e+00 
0.0000000e+00 0.0000000e+00 0.0000000e+00 
0.0000000e+00 0.0000000e+00 0.0000000e+00 
0.0000000e+00 0.0000000e+00 0.0000000e+00 
0.0000000e+00 0.0000000e+00 0.0000000e+00 
0.0000000e+00 0.0000000e+00 0.0000000e+00 
0.0000000e+00 0.0000000e+00 0.0000000e+00 
0.0000000e+00 0.0000000e+00 0.0000000e+00 
0.0000000e+00 0.0000000e+00 0.0000000e+00 
0.0000000e+00 0.0000000e+00 0.0000000e+00 
0.0000000e+00 0.0000000e+00 0.0000000e+00 
0.0000000e+00 0.0000000e+00 0.0000000e+00 
0.0000000e+00 0.0000000e+00 0.0000000e+00 
0.0000000e+00 0.0000000e+00 0.0000000e+00 
0.0000000e+00 0.0000000e+00 0.0000000e+00 
0.0000000e+00 0.0000000e+00 0.0000000e+00 
0.0000000e+00 0.0000000e+00 0.0000000e+00 
0.0000000e+00 0.0000000e+00 0.0000000e+00 
0.0000000e+00 0.0000000e+00 0.0000000e+00 
0.0000000e+00 0.0000000e+00 0.0000000e+00 
0.0000000e+00 0.0000000e+00 0.0000000e+00 
0.0000000e+00 0.0000000e+00 0.0000000e+00 
0.0000000e+00 0.0000000e+00 0.0000000e+00 
0.0000000e+00 0.0000000e+00 0.0000000e+00 
0.0000000e+00 0.0000000e+00 0.0000000e+00 
0.0000000e+00 0.0000000e+00 0.0000000e+00 
0.0000000e+00 0.0000000e+00 0.0000000e+00 
0.0000000e+00 0.0000000e+00 0.0000000e+00 
4.5780023e-08 -4.3304308e-07 8.3211336e-07 
7.7700810e-07 -1.0655637e-06 -9.1271296e-08 
9.9029319e-07 2.9868289e-07 1.1862965e-07 
-6.8848414e-07 -1.2082434e-07 1.2121196e-06 
-1.1955308e-06 -7.0845545e-07 5.6092358e-07 
-1.6481022e-06 6.3270011e-07 -7.7516614e-07 
-2.6322339e-06 7.0555797e-07 1.9643539e-06 
-4.6808582e-06 1.8419638e-06 4.6623177e-07 
-1.1489263e-06 3.8516134e-07 -2.2513214e-07 
-5.2009079e-07 3.2169251e-06 2.7932188e-06 
-3.3420151e-06 -1.7263810e-06 1.0026931e-06 
2.0814848e-06 -4.8792344e-06 -1.5458090e-06 
4.8591219e-06 3.5187651e-07 -3.4089546e-06 
6.0242455e-06 2.8378420e-06 -6.5239565e-06 
1.1982608e-05 -1.2580760e-05 -1.2040771e-05 
1.5642241e-05 -4.0599421e-06 -1.1200002e-05 
2.3417324e-05 -4.7558469e-06 -1.5808091e-05 
3.3381431e-05 -1.7662334e-05 -1.7698467e-05 
4.2712523e-05 -1.3158622e-05 -1.3884631e-05 
4.8058406e-05 -1.9257264e-05 -7.1350782e-06 
4.7959376e-05 -2.0034637e-05 -3.3230597e-06 
4.3058884e-05 -1.4096251e-05 5.3016265e-06 
3.0800806e-05 -9.7816774e-06 6.5435083e-06 
2.5522180e-05 -7.5295179e-06 1.1461792e-05 
1.0530559e-05 -3.7438799e-06 1.2592781e-05 
3.7799402e-06 -1.8391073e-06 5.7558696e-06 
-5.5276601e-06 4.6042992e-06 5.4108727e-06 
-7.4961272e-06 1.4309538e-06 5.1131560e-06 
-3.3157812e-06 -3.3005083e-06 3.4756752e-06 
-9.5167917e-07 -1.0546024e-07 5.6569761e-06 
-1.9113754e-08 7.5720695e-06 9.1998554e-06 
1.1550248e-06 -2.3412581e-06 6.4388414e-06 
9.6010308e-07 -5.9871954e-06 1.3444532e-06 
3.7503071e-06 3.5203248e-06 -1.7375320e-06 
9.3597610e-06 -9.2943746e-06 -7.6858578e-06 
1.6037257e-05 -5.0680296e-06 -8.9805371e-06 
2.8594563e-05 -9.2118898e-06 -1.2472817e-05 
3.5150690e-05 -1.3978448e-05 -1.2595114e-05 
4.3387747e-05 -1.5150277e-05 -1.0905703e-05 
4.8848364e-05 -1.8027446e-05 -4.9005057e-06 
4.5073433e-05 -1.7703798e-05 1.3913657e-06 
3.8489834e-05 -1.3314204e-05 6.9018201e-06 
2.6344904e-05 -3.4339419e-06 9.2685905e-06 
1.5922504e-05 -2.4410285e-06 8.1334219e-06 
5.5981109e-06 1.4442718e-08 4.5905522e-06 
2.4613082e-06 8.5538124e-07 3.7887423e-06 
-3.3560417e-07 -6.9408856e-08 2.6716564e-06 
-1.5640005e-07 -5.2882211e-07 2.3002417e-06 
8.2683243e-07 -1.1680188e-06 2.9978439e-06 
0.0000000e+00 -1.5483885e-05 0.0000000e+00 
0.0000000e+00 -2.0217845e-05 0.0000000e+00 
0.0000000e+00 -3.6969701e-05 0.0000000e+00 
0.0000000e+00 -3.9128972e-05 0.0000000e+00 
0.0000000e+00 -3.2939584e-05 0.0000000e+00 
0.0000000e+00 -3.2986776e-05 0.0000000e+00 
0.0000000e+00 -1.9282121e-05 0.0000000e+00 
0.0000000e+00 1.0508989e-05 0.0000000e+00 
0.0000000e+00 9.8965775e-06 0.0000000e+00 
0.0000000e+00 3.5886434e-05 0.0000000e+00 
0.0000000e+00 4.2779611e-05 0.0000000e+00 
0.0000000e+00 3.3079414e-05 0.0000000e+00 
0.0000000e+00 -1.0407365e-05 0.0000000e+00 
0.0000000e+00 -7.0297244e-09 0.0000000e+00 
0.0000000e+00 -2.8534720e-05 0.0000000e+00 
0.0000000e+00 -1.3055047e-04 0.0000000e+00 
0.0000000e+00 -1.2777450e-04 0.0000000e+00 
0.0000000e+00 -2.8041322e-04 0.0000000e+00 
0.0000000e+00 -4.4435446e-04 0.0000000e+00 
0.0000000e+00 -5.4393016e-04 0.0000000e+00 
0.0000000e+00 -5.6107307e-04 0.0000000e+00 
0.0000000e+00 -5.3241552e-04 0.0000000e+00 
0.0000000e+00 -4.2424482e-04 0.0000000e+00 
0.0000000e+00 -3.0184892e-04 0.0000000e+00 
0.0000000e+00 -1.3069165e-04 0.0000000e+00 
0.0000000e+00 -4.7629896e-05 0.0000000e+00 
0.0000000e+00 -3.3733573e-05 0.0000000e+00 
0.0000000e+00 3.8463877e-06 0.0000000e+00 
0.0000000e+00 2.3261453e-05 0.0000000e+00 
0.0000000e+00 3.1845164e-05 0.0000000e+00 
0.0000000e+00 4.1159787e-05 0.0000000e+00 
0.0000000e+00 5.5857799e-05 0.0000000e+00 
0.0000000e+00 3.4565663e-05 0.0000000e+00 
0.0000000e+00 1.1347547e-05 0.0000000e+00 
0.0000000e+00 2.6435506e-05 0.0000000e+00 
0.0000000e+00 -5.5722649e-05 0.0000000e+00 
0.0000000e+00 -9.1805909e-05 0.0000000e+00 
0.0000000e+00 -1.7846933e-04 0.0000000e+00 
0.0000000e+00 -4.4966248e-04 0.0000000e+00 
0.0000000e+00 -5.3413690e-04 0.0000000e+00 
0.0000000e+00 -5.3434074e-04 0.0000000e+00 
0.0000000e+00 -5.0471560e-04 0.0000000e+00 
0.0000000e+00 -2.9847753e-04 0.0000000e+00 
0.0000000e+00 -1.3157075e-04 0.0000000e+00 
0.0000000e+00 -2.5554311e-05 0.0000000e+00 
0.0000000e+00 1.2763970e-06 0.0000000e+00 
0.0000000e+00 -1.3905117e-05 0.0000000e+00 
0.0000000e+00 -1.3059052e-05 0.0000000e+00 
0.0000000e+00 2.8418413e-06 0.0000000e+00 
-7.1839816e-07 -7.4512144e-08 6.7652138e-07 
8.9587047e-07 -1.1857547e-06 -1.3097027e-06 
1.6807404e-06 -1.7581511e-06 -1.9289394e-06 
8.9659818e-07 -2.5044724e-06 -2.3171624e-06 
2.7236861e-06 -2.5244606e-06 4.8331062e-06 
1.5448281e-06 -3.1276047e-06 8.0042173e-06 
-1.6704338e-06 1.8276288e-06 9.4972065e-06 
-2.5305576e-06 1.0148154e-05 5.2121623e-06 
-1.0325199e-06 -3.7654499e-07 5.1942811e-07 
-9.7786619e-07 -1.7621660e-07 2.9620404e-07 
-1.5235852e-06 -2.7474815e-07 1.0517954e-06 
-1.7963981e-06 7.0035861e-07 1.1831816e-06 
-2.9158734e-06 1.5256400e-06 -8.2628952e-07 
-5.2136197e-06 1.2448497e-06 3.6017241e-07 
-1.3043403e-06 1.5953570e-06 9.0180873e-07 
-1.3705925e-06 2.3360785e-06 8.7201265e-08 
-2.0626999e-06 -1.4654164e-08 3.0736387e-06 
1.0214328e-07 2.6994089e-06 1.2596123e-06 
6.1076375e-06 1.0422234e-06 4.1167095e-06 
5.0871026e-06 -5.2753771e-06 3.6647436e-06 
6.3172233e-06 -4.7788899e-06 -4.1504536e-06 
4.9227533e-06 4.8091562e-07 -8.6103919e-06 
1.2883595e-05 -1.0118786e-05 -1.4137635e-05 
1.8002678e-05 -3.0273320e-06 -1.7037908e-05 
2.0505744e-05 -8.2012747e-08 -1.8957646e-05 
3.3951026e-05 -1.5137170e-05 -1.8540333e-05 
4.2887856e-05 -8.7770613e-06 -1.5637706e-05 
4.3731605e-05 -1.5422567e-05 -9.0275025e-06 