# vtk DataFile Version 4.0
vtk output
ASCII
DATASET UNSTRUCTURED_GRID
POINTS 1919 float
0.0000000e+00 0.0000000e+00 0.0000000e+00 
0.0000000e+00 0.0000000e+00 5.0000000e+01 
5.0000000e+00 0.0000000e+00 0.0000000e+00 
5.0000000e+00 0.0000000e+00 5.0000000e+01 
5.0000000e+00 1.0000000e+00 0.0000000e+00 
5.0000000e+00 1.0000000e+00 5.0000000e+01 
0.0000000e+00 1.0000000e+00 0.0000000e+00 
0.0000000e+00 1.0000000e+00 5.0000000e+01 
5.0000000e+00 2.0000000e+00 0.0000000e+00 
5.0000000e+00 2.0000000e+00 5.0000000e+01 
3.0000000e+00 2.0000000e+00 0.0000000e+00 
3.0000000e+00 2.0000000e+00 5.0000000e+01 
0.0000000e+00 2.0000000e+00 0.0000000e+00 
0.0000000e+00 2.0000000e+00 5.0000000e+01 
1.5000000e+00 3.0000000e+00 0.0000000e+00 
1.5000000e+00 3.0000000e+00 5.0000000e+01 
7.5000000e-01 3.0000000e+00 0.0000000e+00 
7.5000000e-01 3.0000000e+00 5.0000000e+01 
0.0000000e+00 3.0000000e+00 0.0000000e+00 
0.0000000e+00 3.0000000e+00 5.0000000e+01 
7.5000000e-01 3.0000000e+00 5.0000000e-01 
7.5000000e-01 3.0000000e+00 1.0000000e+00 
7.5000000e-01 3.0000000e+00 1.5000000e+00 
7.5000000e-01 3.0000000e+00 2.0000000e+00 
7.5000000e-01 3.0000000e+00 2.5000000e+00 
7.5000000e-01 3.0000000e+00 3.0000000e+00 
7.5000000e-01 3.0000000e+00 3.5000000e+00 
7.5000000e-01 3.0000000e+00 4.0000000e+00 
7.5000000e-01 3.0000000e+00 4.5000000e+00 
7.5000000e-01 3.0000000e+00 5.0000000e+00 
7.5000000e-01 3.0000000e+00 5.5000000e+00 
7.5000000e-01 3.0000000e+00 6.0000000e+00 
7.5000000e-01 3.0000000e+00 6.5000000e+00 
7.5000000e-01 3.0000000e+00 7.0000000e+00 
7.5000000e-01 3.0000000e+00 7.5000000e+00 
7.5000000e-01 3.0000000e+00 8.0000000e+00 
7.5000000e-01 3.0000000e+00 8.5000000e+00 
7.5000000e-01 3.0000000e+00 9.0000000e+00 
7.5000000e-01 3.0000000e+00 9.5000000e+00 
7.5000000e-01 3.0000000e+00 1.0000000e+01 
7.5000000e-01 3.0000000e+00 1.0500000e+01 
7.5000000e-01 3.0000000e+00 1.1000000e+01 
7.5000000e-01 3.0000000e+00 1.1500000e+01 
7.5000000e-01 3.0000000e+00 1.2000000e+01 
7.5000000e-01 3.0000000e+00 1.2500000e+01 
7.5000000e-01 3.0000000e+00 1.3000000e+01 
7.5000000e-01 3.0000000e+00 1.3500000e+01 
7.5000000e-01 3.0000000e+00 1.4000000e+01 
7.5000000e-01 3.0000000e+00 1.4500000e+01 
7.5000000e-01 3.0000000e+00 1.5000000e+01 
7.5000000e-01 3.0000000e+00 1.5500000e+01 
7.5000000e-01 3.0000000e+00 1.6000000e+01 
7.5000000e-01 3.0000000e+00 1.6500000e+01 
7.5000000e-01 3.0000000e+00 1.7000000e+01 
7.5000000e-01 3.0000000e+00 1.7500000e+01 
7.5000000e-01 3.0000000e+00 1.8000000e+01 
7.5000000e-01 3.0000000e+00 1.8500000e+01 
7.5000000e-01 3.0000000e+00 1.9000000e+01 
7.5000000e-01 3.0000000e+00 1.9500000e+01 
7.5000000e-01 3.0000000e+00 2.0000000e+01 
7.5000000e-01 3.0000000e+00 2.0500000e+01 
7.5000000e-01 3.0000000e+00 2.1000000e+01 
7.5000000e-01 3.0000000e+00 2.1500000e+01 
7.5000000e-01 3.0000000e+00 2.2000000e+01 
7.5000000e-01 3.0000000e+00 2.2500000e+01 
7.5000000e-01 3.0000000e+00 2.3000000e+01 
7.5000000e-01 3.0000000e+00 2.3500000e+01 
7.5000000e-01 3.0000000e+00 2.4000000e+01 
7.5000000e-01 3.0000000e+00 2.4500000e+01 
7.5000000e-01 3.0000000e+00 2.5000000e+01 
7.5000000e-01 3.0000000e+00 2.5500000e+01 
7.5000000e-01 3.0000000e+00 2.6000000e+01 
7.5000000e-01 3.0000000e+00 2.6500000e+01 
7.5000000e-01 3.0000000e+00 2.7000000e+01 
7.5000000e-01 3.0000000e+00 2.7500000e+01 
7.5000000e-01 3.0000000e+00 2.8000000e+01 
7.5000000e-01 3.0000000e+00 2.8500000e+01 
7.5000000e-01 3.0000000e+00 2.9000000e+01 
7.5000000e-01 3.0000000e+00 2.9500000e+01 
7.5000000e-01 3.0000000e+00 3.0000000e+01 
7.5000000e-01 3.0000000e+00 3.0500000e+01 
7.5000000e-01 3.0000000e+00 3.1000000e+01 
7.5000000e-01 3.0000000e+00 3.1500000e+01 
7.5000000e-01 3.0000000e+00 3.2000000e+01 
7.5000000e-01 3.0000000e+00 3.2500000e+01 
7.5000000e-01 3.0000000e+00 3.3000000e+01 
7.5000000e-01 3.0000000e+00 3.3500000e+01 
7.5000000e-01 3.0000000e+00 3.4000000e+01 
7.5000000e-01 3.0000000e+00 3.4500000e+01 
7.5000000e-01 3.0000000e+00 3.5000000e+01 
7.5000000e-01 3.0000000e+00 3.5500000e+01 
7.5000000e-01 3.0000000e+00 3.6000000e+01 
7.5000000e-01 3.0000000e+00 3.6500000e+01 
7.5000000e-01 3.0000000e+00 3.7000000e+01 
7.5000000e-01 3.0000000e+00 3.7500000e+01 
7.5000000e-01 3.0000000e+00 3.8000000e+01 
7.5000000e-01 3.0000000e+00 3.8500000e+01 
7.5000000e-01 3.0000000e+00 3.9000000e+01 
7.5000000e-01 3.0000000e+00 3.9500000e+01 
7.5000000e-01 3.0000000e+00 4.0000000e+01 
7.5000000e-01 3.0000000e+00 4.0500000e+01 
7.5000000e-01 3.0000000e+00 4.1000000e+01 
7.5000000e-01 3.0000000e+00 4.1500000e+01 
7.5000000e-01 3.0000000e+00 4.2000000e+01 
7.5000000e-01 3.0000000e+00 4.2500000e+01 
7.5000000e-01 3.0000000e+00 4.3000000e+01 
7.5000000e-01 3.0000000e+00 4.3500000e+01 
7.5000000e-01 3.0000000e+00 4.4000000e+01 
7.5000000e-01 3.0000000e+00 4.4500000e+01 
7.5000000e-01 3.0000000e+00 4.5000000e+01 
7.5000000e-01 3.0000000e+00 4.5500000e+01 
7.5000000e-01 3.0000000e+00 4.6000000e+01 
7.5000000e-01 3.0000000e+00 4.6500000e+01 
7.5000000e-01 3.0000000e+00 4.7000000e+01 
7.5000000e-01 3.0000000e+00 4.7500000e+01 
7.5000000e-01 3.0000000e+00 4.8000000e+01 
7.5000000e-01 3.0000000e+00 4.8500000e+01 
7.5000000e-01 3.0000000e+00 4.9000000e+01 
7.5000000e-01 3.0000000e+00 4.9500000e+01 
7.5000000e-01 3.0250001e+00 0.0000000e+00 
7.5000000e-01 3.0250001e+00 5.0000000e-01 
7.5000000e-01 3.0250001e+00 1.0000000e+00 
7.5000000e-01 3.0250001e+00 1.5000000e+00 
7.5000000e-01 3.0250001e+00 2.0000000e+00 
7.5000000e-01 3.0250001e+00 2.5000000e+00 
7.5000000e-01 3.0250001e+00 3.0000000e+00 
7.5000000e-01 3.0250001e+00 3.5000000e+00 
7.5000000e-01 3.0250001e+00 4.0000000e+00 
7.5000000e-01 3.0250001e+00 4.5000000e+00 
7.5000000e-01 3.0250001e+00 5.0000000e+00 
7.5000000e-01 3.0250001e+00 5.5000000e+00 
7.5000000e-01 3.0250001e+00 6.0000000e+00 
7.5000000e-01 3.0250001e+00 6.5000000e+00 
7.5000000e-01 3.0250001e+00 7.0000000e+00 
7.5000000e-01 3.0250001e+00 7.5000000e+00 
7.5000000e-01 3.0250001e+00 8.0000000e+00 
7.5000000e-01 3.0250001e+00 8.5000000e+00 
7.5000000e-01 3.0250001e+00 9.0000000e+00 
7.5000000e-01 3.0250001e+00 9.5000000e+00 
7.5000000e-01 3.0250001e+00 1.0000000e+01 
7.5000000e-01 3.0250001e+00 1.0500000e+01 
7.5000000e-01 3.0250001e+00 1.1000000e+01 
7.5000000e-01 3.0250001e+00 1.1500000e+01 
7.5000000e-01 3.0250001e+00 1.2000000e+01 
7.5000000e-01 3.0250001e+00 1.2500000e+01 
7.5000000e-01 3.0250001e+00 1.3000000e+01 
7.5000000e-01 3.0250001e+00 1.3500000e+01 
7.5000000e-01 3.0250001e+00 1.4000000e+01 
7.5000000e-01 3.0250001e+00 1.4500000e+01 
7.5000000e-01 3.0250001e+00 1.5000000e+01 
7.5000000e-01 3.0250001e+00 1.5500000e+01 
7.5000000e-01 3.0250001e+00 1.6000000e+01 
7.5000000e-01 3.0250001e+00 1.6500000e+01 
7.5000000e-01 3.0250001e+00 1.7000000e+01 
7.5000000e-01 3.0250001e+00 1.7500000e+01 
7.5000000e-01 3.0250001e+00 1.8000000e+01 
7.5000000e-01 3.0250001e+00 1.8500000e+01 
7.5000000e-01 3.0250001e+00 1.9000000e+01 
7.5000000e-01 3.0250001e+00 1.9500000e+01 
7.5000000e-01 3.0250001e+00 2.0000000e+01 
7.5000000e-01 3.0250001e+00 2.0500000e+01 
7.5000000e-01 3.0250001e+00 2.1000000e+01 
7.5000000e-01 3.0250001e+00 2.1500000e+01 
7.5000000e-01 3.0250001e+00 2.2000000e+01 
7.5000000e-01 3.0250001e+00 2.2500000e+01 
7.5000000e-01 3.0250001e+00 2.3000000e+01 
7.5000000e-01 3.0250001e+00 2.3500000e+01 
7.5000000e-01 3.0250001e+00 2.4000000e+01 
7.5000000e-01 3.0250001e+00 2.4500000e+01 
7.5000000e-01 3.0250001e+00 2.5000000e+01 
7.5000000e-01 3.0250001e+00 2.5500000e+01 
7.5000000e-01 3.0250001e+00 2.6000000e+01 
7.5000000e-01 3.0250001e+00 2.6500000e+01 
7.5000000e-01 3.0250001e+00 2.7000000e+01 
7.5000000e-01 3.0250001e+00 2.7500000e+01 
7.5000000e-01 3.0250001e+00 2.8000000e+01 
7.5000000e-01 3.0250001e+00 2.8500000e+01 
7.5000000e-01 3.0250001e+00 2.9000000e+01 
7.5000000e-01 3.0250001e+00 2.9500000e+01 
7.5000000e-01 3.0250001e+00 3.0000000e+01 
7.5000000e-01 3.0250001e+00 3.0500000e+01 
7.5000000e-01 3.0250001e+00 3.1000000e+01 
7.5000000e-01 3.0250001e+00 3.1500000e+01 
7.5000000e-01 3.0250001e+00 3.2000000e+01 
7.5000000e-01 3.0250001e+00 3.2500000e+01 
7.5000000e-01 3.0250001e+00 3.3000000e+01 
7.5000000e-01 3.0250001e+00 3.3500000e+01 
7.5000000e-01 3.0250001e+00 3.4000000e+01 
7.5000000e-01 3.0250001e+00 3.4500000e+01 
7.5000000e-01 3.0250001e+00 3.5000000e+01 
7.5000000e-01 3.0250001e+00 3.5500000e+01 
7.5000000e-01 3.0250001e+00 3.6000000e+01 
7.5000000e-01 3.0250001e+00 3.6500000e+01 
7.5000000e-01 3.0250001e+00 3.7000000e+01 
7.5000000e-01 3.0250001e+00 3.7500000e+01 
7.5000000e-01 3.0250001e+00 3.8000000e+01 
7.5000000e-01 3.0250001e+00 3.8500000e+01 
7.5000000e-01 3.0250001e+00 3.9000000e+01 
7.5000000e-01 3.0250001e+00 3.9500000e+01 
7.5000000e-01 3.0250001e+00 4.0000000e+01 
7.5000000e-01 3.0250001e+00 4.0500000e+01 
7.5000000e-01 3.0250001e+00 4.1000000e+01 
7.5000000e-01 3.0250001e+00 4.1500000e+01 
7.5000000e-01 3.0250001e+00 4.2000000e+01 
7.5000000e-01 3.0250001e+00 4.2500000e+01 
7.5000000e-01 3.0250001e+00 4.3000000e+01 
7.5000000e-01 3.0250001e+00 4.3500000e+01 
7.5000000e-01 3.0250001e+00 4.4000000e+01 
7.5000000e-01 3.0250001e+00 4.4500000e+01 
7.5000000e-01 3.0250001e+00 4.5000000e+01 
7.5000000e-01 3.0250001e+00 4.5500000e+01 
7.5000000e-01 3.0250001e+00 4.6000000e+01 
7.5000000e-01 3.0250001e+00 4.6500000e+01 
7.5000000e-01 3.0250001e+00 4.7000000e+01 
7.5000000e-01 3.0250001e+00 4.7500000e+01 
7.5000000e-01 3.0250001e+00 4.8000000e+01 
7.5000000e-01 3.0250001e+00 4.8500000e+01 
7.5000000e-01 3.0250001e+00 4.9000000e+01 
7.5000000e-01 3.0250001e+00 4.9500000e+01 
7.5000000e-01 3.0250001e+00 5.0000000e+01 
3.0000000e+00 2.0000000e+00 3.6000000e+01 
8.0487806e-01 3.0000000e+00 3.6000000e+01 
0.0000000e+00 0.0000000e+00 1.0000000e+00 
0.0000000e+00 0.0000000e+00 2.0000000e+00 
0.0000000e+00 0.0000000e+00 3.0000000e+00 
0.0000000e+00 0.0000000e+00 4.0000000e+00 
0.0000000e+00 0.0000000e+00 5.0000000e+00 
0.0000000e+00 0.0000000e+00 6.0000000e+00 
0.0000000e+00 0.0000000e+00 7.0000000e+00 
0.0000000e+00 0.0000000e+00 8.0000000e+00 
[...]
POINT_DATA 1919
FIELD FieldData 3
DISPLACEMENT 3 1919  float
0.0000000e+00 0.0000000e+00 0.0000000e+00 
0.0000000e+00 0.0000000e+00 0.0000000e+00 
0.0000000e+00 0.0000000e+00 0.0000000e+00 
0.0000000e+00 0.0000000e+00 0.0000000e+00 
1.1862021e-05 -1.6578759e-05 -1.7827024e-05 
-2.3567687e-10 7.7378388e-09 -6.5567596e-10 
0.0000000e+00 -8.7473445e-06 0.0000000e+00 
0.0000000e+00 -1.6538523e-08 0.0000000e+00 
1.0618390e-04 -4.8876525e-05 -7.8045283e-05 
-3.0556044e-09 7.1513266e-09 -3.8063841e-09 
9.4666420e-06 -4.6025023e-05 -8.1034181e-05 
2.9719875e-09 2.7443287e-08 4.4295243e-09 
0.0000000e+00 5.6904046e-05 0.0000000e+00 
0.0000000e+00 -1.0194674e-07 0.0000000e+00 
-1.3076634e-05 -7.3008145e-05 8.9768628e-06 
7.1051204e-08 -2.2430578e-07 8.9795407e-08 
7.4771604e-05 4.2650555e-04 3.3023538e-05 
6.1481185e-09 -4.8175292e-07 -6.7054422e-08 
0.0000000e+00 4.2747244e-05 0.0000000e+00 
0.0000000e+00 -1.5561753e-07 0.0000000e+00 
-1.4728088e-05 3.8912648e-04 1.0573896e-04 
-7.8535695e-06 2.2738006e-04 1.4166863e-04 
6.5181361e-05 -1.7309043e-04 2.1509347e-04 
-3.6769608e-05 -9.1252004e-04 2.0287324e-04 
1.1549329e-05 -2.0037279e-03 2.9733469e-04 
-2.3559364e-04 -3.2609024e-03 2.0162461e-04 
-2.8402809e-04 -4.2652464e-03 2.7294378e-04 
-2.6855778e-04 -4.4615981e-03 1.0239639e-04 
-3.4200642e-04 -4.4246204e-03 2.1336022e-05 
-3.7275933e-04 -4.5743100e-03 1.2502400e-05 
-3.3924732e-04 -4.9689440e-03 2.7775601e-05 
-2.8713455e-04 -5.0730151e-03 -4.1317046e-05 
-2.6705966e-04 -4.3147104e-03 -1.6109113e-04 
-2.1022519e-04 -3.1029682e-03 -1.4275780e-04 
-1.8121857e-04 -1.9524948e-03 -3.1385431e-04 
-1.2254858e-04 -1.0629490e-03 -2.5395292e-04 
-5.9587903e-05 -4.9157185e-04 -3.2858056e-04 
-1.0907781e-05 -1.6431115e-04 -2.5919414e-04 
2.9343282e-05 1.7094912e-05 -1.8057381e-04 
3.0530467e-05 1.1752533e-04 -7.9219259e-05 
2.4753448e-05 1.6110003e-04 6.0695702e-06 
1.8648321e-05 1.5769234e-04 5.9273483e-05 
5.0815843e-06 1.2590046e-04 5.6786968e-05 
-2.4030871e-06 9.6700016e-05 5.8362199e-05 
-1.1586360e-06 9.1134323e-05 3.8730923e-05 
-8.5613201e-06 9.3996037e-05 -1.0787276e-06 
-4.9472815e-06 7.7100114e-05 -2.8515109e-05 
1.1750305e-06 3.2136537e-05 -5.1128151e-05 
7.4664654e-06 -2.1062426e-05 -3.0919640e-05 
5.1814654e-06 -4.7920821e-05 -6.8586819e-06 
-1.2529855e-05 -3.6086676e-05 -8.0045374e-06 
2.5546990e-06 -4.4505796e-06 -2.6283265e-05 
-8.2499128e-07 1.8450208e-05 -5.2122734e-05 
-1.2160038e-05 1.9727608e-05 -5.4458698e-05 
-6.0709758e-06 1.9426843e-05 -3.4039836e-05 
1.1323411e-05 6.5584143e-05 -2.9330595e-05 
1.6647653e-05 1.8692695e-04 -2.9329260e-05 
2.1696631e-05 3.5596371e-04 -8.5180218e-06 
8.1263330e-05 5.0480297e-04 5.3105219e-07 
5.2274234e-05 5.4958096e-04 -4.4090025e-06 
8.7942841e-05 4.4792792e-04 4.8932900e-05 
6.0912877e-05 1.7830989e-04 9.0925379e-05 
7.8356163e-05 -3.0584465e-04 2.2549325e-04 
-2.1308881e-05 -1.0655563e-03 1.8912545e-04 
-3.5829332e-06 -2.1362426e-03 3.8453343e-04 
-9.9879588e-05 -3.3723083e-03 2.4365709e-04 
-1.6230217e-04 -4.3390207e-03 3.1308091e-04 
-2.0911705e-04 -4.4885580e-03 2.3895132e-04 
-2.8490846e-04 -4.3958379e-03 2.0937584e-04 
-3.5276538e-04 -4.4918293e-03 6.8258742e-05 
-3.4385000e-04 -4.8239664e-03 -2.5955038e-05 
-3.4514428e-04 -4.8691770e-03 -1.5640874e-04 
-3.2811586e-04 -4.0906356e-03 -3.0310158e-04 
-2.2270172e-04 -2.8970088e-03 -1.9582723e-04 
-1.8044018e-04 -1.7952768e-03 -3.1488526e-04 
-1.0441819e-04 -9.5585122e-04 -2.2019654e-04 
-4.6856880e-05 -4.1436285e-04 -2.6475120e-04 
-5.5462283e-06 -9.6403041e-05 -1.9807063e-04 
1.7417895e-05 8.1401653e-05 -1.5531819e-04 
3.6971811e-05 1.6904563e-04 -6.0742070e-05 
2.4269804e-05 1.9009958e-04 9.9516556e-06 
1.7246759e-05 1.6900402e-04 5.0250623e-05 
7.4212244e-06 1.3279829e-04 5.9497939e-05 
-9.8208886e-07 9.6266325e-05 3.9633484e-05 
5.2711897e-07 6.2623869e-05 2.9730880e-05 
-2.5498919e-06 2.9273564e-05 9.1552811e-06 
-2.4606659e-06 -3.6770111e-06 1.4145573e-06 
-9.8002943e-07 -2.8524382e-05 -7.3403103e-06 
-2.8423899e-06 -3.6106358e-05 -7.7455106e-06 
1.4712406e-06 -2.8272330e-05 -8.2421757e-06 
1.1738970e-06 -1.4162164e-05 -2.4771880e-06 
-5.0085953e-07 -3.1533411e-06 -5.1639802e-07 
1.9250258e-07 2.4632850e-06 -5.8850395e-07 
1.7349077e-08 4.1850908e-06 5.3319553e-07 
5.2140575e-07 3.9855022e-06 3.6828192e-07 
3.3348192e-07 2.6705252e-06 1.4728283e-06 
-2.2440405e-07 8.7023852e-07 4.1178549e-07 
-2.0985813e-07 -2.6738195e-07 -1.0969104e-07 
1.6898619e-07 1.5325779e-07 3.4771199e-07 
1.7841481e-07 1.2063325e-06 -6.3928303e-07 
1.6312646e-07 1.3026311e-06 7.4965165e-08 
7.9722199e-08 1.0181073e-07 2.2458806e-07 
-2.4813608e-07 -1.4879631e-06 -4.4699055e-07 
-2.3662011e-07 -2.1024923e-06 9.4756807e-08 
-3.9652036e-08 -1.1165257e-06 -6.9729019e-08 
9.2056368e-08 5.5693135e-07 -7.0936132e-08 
2.0805902e-07 1.5926181e-06 2.6198828e-07 
-7.7519388e-08 1.4381384e-06 -9.1659544e-08 
3.9089226e-08 4.3923836e-07 -8.4815213e-09 
-8.6703622e-08 -5.6145586e-07 1.2173976e-07 
-2.2632902e-08 -9.3072981e-07 -2.1569676e-07 
1.1571494e-08 -7.2959455e-07 7.0687577e-08 
-1.4787483e-08 -2.6138176e-07 7.2488717e-08 
-6.2496206e-08 2.0578399e-07 -8.7992547e-08 
2.5148006e-08 4.7853302e-07 1.0191037e-07 
3.0665884e-08 5.6756829e-07 -3.1052029e-08 
-4.9815284e-08 4.4906844e-07 -3.6012427e-08 
3.2903777e-08 9.6845092e-08 -2.3688791e-09 
-1.3688780e-08 -3.0116146e-07 4.7990127e-08 
0.0000000e+00 4.2861319e-04 0.0000000e+00 
0.0000000e+00 3.9159722e-04 0.0000000e+00 
0.0000000e+00 2.2781562e-04 0.0000000e+00 
0.0000000e+00 -1.7599523e-04 0.0000000e+00 
0.0000000e+00 -9.2113228e-04 0.0000000e+00 
0.0000000e+00 -2.0163767e-03 0.0000000e+00 
0.0000000e+00 -3.2882949e-03 0.0000000e+00 
0.0000000e+00 -4.2850883e-03 0.0000000e+00 
0.0000000e+00 -4.4902801e-03 0.0000000e+00 
0.0000000e+00 -4.4438615e-03 0.0000000e+00 
0.0000000e+00 -4.6037589e-03 0.0000000e+00 
0.0000000e+00 -4.9919067e-03 0.0000000e+00 
0.0000000e+00 -5.1027848e-03 0.0000000e+00 
0.0000000e+00 -4.3329685e-03 0.0000000e+00 
0.0000000e+00 -3.1201083e-03 0.0000000e+00 
0.0000000e+00 -1.9602343e-03 0.0000000e+00 
0.0000000e+00 -1.0689328e-03 0.0000000e+00 
0.0000000e+00 -4.9200101e-04 0.0000000e+00 
0.0000000e+00 -1.6196197e-04 0.0000000e+00 
0.0000000e+00 1.9095693e-05 0.0000000e+00 
0.0000000e+00 1.1778220e-04 0.0000000e+00 
0.0000000e+00 1.6041689e-04 0.0000000e+00 
0.0000000e+00 1.5730245e-04 0.0000000e+00 
0.0000000e+00 1.2668807e-04 0.0000000e+00 
0.0000000e+00 9.8545504e-05 0.0000000e+00 
0.0000000e+00 9.1780516e-05 0.0000000e+00 
0.0000000e+00 9.3000468e-05 0.0000000e+00 
0.0000000e+00 7.5674892e-05 0.0000000e+00 
0.0000000e+00 3.1444000e-05 0.0000000e+00 
0.0000000e+00 -1.9977511e-05 0.0000000e+00 
0.0000000e+00 -4.6457484e-05 0.0000000e+00 
0.0000000e+00 -3.5594778e-05 0.0000000e+00 
0.0000000e+00 -5.1652501e-06 0.0000000e+00 
0.0000000e+00 1.6788041e-05 0.0000000e+00 
0.0000000e+00 1.8120198e-05 0.0000000e+00 
0.0000000e+00 1.9880144e-05 0.0000000e+00 
0.0000000e+00 6.8010362e-05 0.0000000e+00 
0.0000000e+00 1.8947777e-04 0.0000000e+00 
0.0000000e+00 3.5769047e-04 0.0000000e+00 
0.0000000e+00 5.0331489e-04 0.0000000e+00 
0.0000000e+00 5.4843468e-04 0.0000000e+00 
0.0000000e+00 4.4858007e-04 0.0000000e+00 
0.0000000e+00 1.7884886e-04 0.0000000e+00 
0.0000000e+00 -3.0657015e-04 0.0000000e+00 
0.0000000e+00 -1.0737121e-03 0.0000000e+00 
0.0000000e+00 -2.1516110e-03 0.0000000e+00 
0.0000000e+00 -3.4003535e-03 0.0000000e+00 
0.0000000e+00 -4.3622125e-03 0.0000000e+00 
0.0000000e+00 -4.5164651e-03 0.0000000e+00 
0.0000000e+00 -4.4162525e-03 0.0000000e+00 
0.0000000e+00 -4.5206482e-03 0.0000000e+00 
0.0000000e+00 -4.8468821e-03 0.0000000e+00 
0.0000000e+00 -4.8993621e-03 0.0000000e+00 
0.0000000e+00 -4.1066604e-03 0.0000000e+00 
0.0000000e+00 -2.9145093e-03 0.0000000e+00 
0.0000000e+00 -1.8022824e-03 0.0000000e+00 
0.0000000e+00 -9.6028205e-04 0.0000000e+00 
0.0000000e+00 -4.1421651e-04 0.0000000e+00 
0.0000000e+00 -9.4690760e-05 0.0000000e+00 
0.0000000e+00 8.2452498e-05 0.0000000e+00 
0.0000000e+00 1.6895909e-04 0.0000000e+00 
0.0000000e+00 1.9023646e-04 0.0000000e+00 
0.0000000e+00 1.6991797e-04 0.0000000e+00 
0.0000000e+00 1.3337027e-04 0.0000000e+00 
0.0000000e+00 9.6295022e-05 0.0000000e+00 
0.0000000e+00 6.2384199e-05 0.0000000e+00 
0.0000000e+00 2.9048839e-05 0.0000000e+00 
0.0000000e+00 -3.5689186e-06 0.0000000e+00 
0.0000000e+00 -2.7957652e-05 0.0000000e+00 
0.0000000e+00 -3.5867812e-05 0.0000000e+00 
0.0000000e+00 -2.8398536e-05 0.0000000e+00 
0.0000000e+00 -1.4524927e-05 0.0000000e+00 
0.0000000e+00 -3.2594510e-06 0.0000000e+00 
0.0000000e+00 2.4971957e-06 0.0000000e+00 
0.0000000e+00 4.2163133e-06 0.0000000e+00 
0.0000000e+00 3.9686533e-06 0.0000000e+00 
0.0000000e+00 2.6636583e-06 0.0000000e+00 
0.0000000e+00 9.1045069e-07 0.0000000e+00 
0.0000000e+00 -1.7576411e-07 0.0000000e+00 
0.0000000e+00 1.6318072e-07 0.0000000e+00 
0.0000000e+00 1.1202563e-06 0.0000000e+00 
0.0000000e+00 1.2486701e-06 0.0000000e+00 
0.0000000e+00 1.0980379e-07 0.0000000e+00 
0.0000000e+00 -1.4375319e-06 0.0000000e+00 
0.0000000e+00 -2.0380385e-06 0.0000000e+00 
0.0000000e+00 -1.1156249e-06 0.0000000e+00 
0.0000000e+00 5.0755705e-07 0.0000000e+00 
0.0000000e+00 1.5535473e-06 0.0000000e+00 
0.0000000e+00 1.4237817e-06 0.0000000e+00 
0.0000000e+00 4.5652180e-07 0.0000000e+00 
0.0000000e+00 -5.2383007e-07 0.0000000e+00 
0.0000000e+00 -9.1997094e-07 0.0000000e+00 
0.0000000e+00 -7.3647897e-07 0.0000000e+00 
0.0000000e+00 -2.7079571e-07 0.0000000e+00 
0.0000000e+00 1.8900235e-07 0.0000000e+00 
0.0000000e+00 4.7884083e-07 0.0000000e+00 
0.0000000e+00 5.7656973e-07 0.0000000e+00 
0.0000000e+00 4.4962965e-07 0.0000000e+00 
0.0000000e+00 9.7645326e-08 0.0000000e+00 
0.0000000e+00 -3.0103314e-07 0.0000000e+00 
0.0000000e+00 -4.8127634e-07 0.0000000e+00 
9.4185208e-07 -3.2649973e-07 -1.4263939e-06 
-3.7178594e-07 -4.5602110e-06 -1.4550086e-07 
0.0000000e+00 0.0000000e+00 0.0000000e+00 
0.0000000e+00 0.0000000e+00 0.0000000e+00 
0.0000000e+00 0.0000000e+00 0.0000000e+00 
0.0000000e+00 0.0000000e+00 0.0000000e+00 
0.0000000e+00 0.0000000e+00 0.0000000e+00 
0.0000000e+00 0.0000000e+00 0.0000000e+00 
0.0000000e+00 0.0000000e+00 0.0000000e+00 
0.0000000e+00 0.0000000e+00 0.0000000e+00 
0.0000000e+00 0.0000000e+00 0.0000000e+00 
0.0000000e+00 0.0000000e+00 0.0000000e+00 
0.0000000e+00 0.0000000e+00 0.0000000e+00 
0.0000000e+00 0.0000000e+00 0.0000000e+00 
0.0000000e+00 0.0000000e+00 0.0000000e+00 
0.0000000e+00 0.0000000e+00 0.0000000e+00 
0.0000000e+00 0.0000000e+00 0.0000000e+00 
0.0000000e+00 0.0000000e+00 0.0000000e+00 
0.0000000e+00 0.0000000e+00 0.0000000e+00 
0.0000000e+00 0.0000000e+00 0.0000000e+00 
0.0000000e+00 0.0000000e+00 0.0000000e+00 
0.0000000e+00 0.0000000e+00 0.0000000e+00 
0.0000000e+00 0.0000000e+00 0.0000000e+00 
0.0000000e+00 0.0000000e+00 0.0000000e+00 
0.0000000e+00 0.0000000e+00 0.0000000e+00 
0.0000000e+00 0.0000000e+00 0.0000000e+00 
0.0000000e+00 0.0000000e+00 0.0000000e+00 
0.0000000e+00 0.0000000e+00 0.0000000e+00 
0.0000000e+00 0.0000000e+00 0.0000000e+00 
0.0000000e+00 0.0000000e+00 0.0000000e+00 
0.0000000e+00 0.0000000e+00 0.0000000e+00 
0.0000000e+00 0.0000000e+00 0.0000000e+00 
0.0000000e+00 0.0000000e+00 0.0000000e+00 
0.0000000e+00 0.0000000e+00 0.0000000e+00 
0.0000000e+00 0.0000000e+00 0.0000000e+00 
0.0000000e+00 0.0000000e+00 0.0000000e+00 
0.0000000e+00 0.0000000e+00 0.0000000e+00 
0.0000000e+00 0.0000000e+00 0.0000000e+00 
0.0000000e+00 0.0000000e+00 0.0000000e+00 
0.0000000e+00 0.0000000e+00 0.0000000e+00 
0.0000000e+00 0.0000000e+00 0.0000000e+00 
0.0000000e+00 0.0000000e+00 0.0000000e+00 
0.0000000e+00 0.0000000e+00 0.0000000e+00 
0.0000000e+00 0.0000000e+00 0.0000000e+00 
0.0000000e+00 0.0000000e+00 0.0000000e+00 
0.0000000e+00 0.0000000e+00 0.0000000e+00 
0.0000000e+00 0.0000000e+00 0.0000000e+00 
0.0000000e+00 0.0000000e+00 0.0000000e+00 
0.0000000e+00 0.0000000e+00 0.0000000e+00 
0.0000000e+00 0.0000000e+00 0.0000000e+00 
0.0000000e+00 0.0000000e+00 0.0000000e+00 
0.0000000e+00 0.0000000e+00 0.0000000e+00 
0.0000000e+00 0.0000000e+00 0.0000000e+00 
0.0000000e+00 0.0000000e+00 0.0000000e+00 
0.0000000e+00 0.0000000e+00 0.0000000e+00 
0.0000000e+00 0.0000000e+00 0.0000000e+00 
0.0000000e+00 0.0000000e+00 0.0000000e+00 
0.0000000e+00 0.0000000e+00 0.0000000e+00 
0.0000000e+00 0.0000000e+00 0.0000000e+00 
0.0000000e+00 0.0000000e+00 0.0000000e+00 
0.0000000e+00 0.0000000e+00 0.0000000e+00 
0.0000000e+00 0.0000000e+00 0.0000000e+00 
0.0000000e+00 0.0000000e+00 0.0000000e+00 
0.0000000e+00 0.0000000e+00 0.0000000e+00 
0.0000000e+00 0.0000000e+00 0.0000000e+00 
0.0000000e+00 0.0000000e+00 0.0000000e+00 
0.0000000e+00 0.0000000e+00 0.0000000e+00 
0.0000000e+00 0.0000000e+00 0.0000000e+00 
0.0000000e+00 0.0000000e+00 0.0000000e+00 
0.0000000e+00 0.0000000e+00 0.0000000e+00 
0.0000000e+00 0.0000000e+00 0.0000000e+00 
0.0000000e+00 0.0000000e+00 0.0000000e+00 
0.0000000e+00 0.0000000e+00 0.0000000e+00 
0.0000000e+00 0.0000000e+00 0.0000000e+00 
0.0000000e+00 0.0000000e+00 0.0000000e+00 
0.0000000e+00 0.0000000e+00 0.0000000e+00 
0.0000000e+00 0.0000000e+00 0.0000000e+00 
0.0000000e+00 0.0000000e+00 0.0000000e+00 
0.0000000e+00 0.0000000e+00 0.0000000e+00 
0.0000000e+00 0.0000000e+00 0.0000000e+00 
0.0000000e+00 0.0000000e+00 0.0000000e+00 
0.0000000e+00 0.0000000e+00 0.0000000e+00 
0.0000000e+00 0.0000000e+00 0.0000000e+00 
0.0000000e+00 0.0000000e+00 0.0000000e+00 
0.0000000e+00 0.0000000e+00 0.0000000e+00 
0.0000000e+00 0.0000000e+00 0.0000000e+00 
0.0000000e+00 0.0000000e+00 0.0000000e+00 
0.0000000e+00 0.0000000e+00 0.0000000e+00 
0.0000000e+00 0.0000000e+00 0.0000000e+00 
0.0000000e+00 0.0000000e+00 0.0000000e+00 
0.0000000e+00 0.0000000e+00 0.0000000e+00 
0.0000000e+00 0.0000000e+00 0.0000000e+00 
0.0000000e+00 0.0000000e+00 0.0000000e+00 
0.0000000e+00 0.0000000e+00 0.0000000e+00 
0.0000000e+00 0.0000000e+00 0.0000000e+00 
0.0000000e+00 0.0000000e+00 0.0000000e+00 
0.0000000e+00 0.0000000e+00 0.0000000e+00 
0.0000000e+00 0.0000000e+00 0.0000000e+00 
0.0000000e+00 0.0000000e+00 0.0000000e+00 
0.0000000e+00 0.0000000e+00 0.0000000e+00 
0.0000000e+00 0.0000000e+00 0.0000000e+00 
0.0000000e+00 0.0000000e+00 0.0000000e+00 
0.0000000e+00 0.0000000e+00 0.0000000e+00 
0.0000000e+00 0.0000000e+00 0.0000000e+00 
0.0000000e+00 0.0000000e+00 0.0000000e+00 
0.0000000e+00 0.0000000e+00 0.0000000e+00 
0.0000000e+00 0.0000000e+00 0.0000000e+00 
0.0000000e+00 0.0000000e+00 0.0000000e+00 
3.4971585e-05 2.1140442e-05 -1.6331949e-05 
3.4128567e-05 3.7278965e-05 -2.2037877e-05 
3.9441169e-05 4.4532062e-05 -2.2751477e-05 
4.1158044e-05 3.6824222e-05 -1.6245467e-05 
2.6411657e-05 -5.2234668e-06 1.1951063e-06 
1.3224216e-05 -2.4527269e-05 -2.0576076e-06 
1.2435949e-05 -3.3497909e-05 -8.9855557e-06 
6.2236977e-06 -1.4574089e-05 -1.9376523e-05 
8.0789741e-06 1.6815757e-05 1.4080464e-06 
3.1374802e-06 5.8925480e-06 1.4468431e-05 
4.0891036e-06 -1.8279535e-06 1.6359907e-05 
3.1443694e-06 -2.5161330e-06 1.2011806e-05 
1.2624679e-06 -2.1133073e-06 6.3449074e-06 
-2.7003146e-06 -3.4295460e-06 2.0485293e-06 
-1.1683123e-05 1.1478150e-07 2.8562358e-06 
-1.0512535e-05 -2.5900483e-06 3.0181400e-06 
-9.5915930e-06 -6.8481390e-06 3.8896246e-06 
-3.3778110e-06 1.2897014e-05 3.1293710e-06 
1.0760181e-05 1.9495412e-05 2.1432029e-06 
2.3176019e-05 3.5794903e-05 9.1838736e-08 
3.4562428e-05 4.9510614e-05 -1.8915940e-06 
3.6813599e-05 4.2268388e-05 -6.9875882e-06 
4.6948324e-05 2.2823309e-05 -1.1000153e-05 
3.8396669e-05 1.0935013e-05 -1.3583906e-05 
2.7764843e-05 -2.4341734e-05 -1.4974961e-05 
2.3152475e-05 -2.2450422e-05 -1.4112183e-05 
1.6111144e-05 -2.2069680e-05 -8.2118595e-06 
9.7413995e-06 -5.8057540e-06 4.5687470e-06 
7.9316205e-06 2.1305484e-06 1.4051649e-05 
7.2040843e-06 5.4595594e-06 1.7698358e-05 
5.3240278e-06 3.3250696e-08 1.5136488e-05 
2.4966273e-06 -3.0272554e-06 9.3610597e-06 
6.1212609e-07 -3.4184959e-06 1.5965016e-06 
-3.7992187e-08 -8.9751688e-07 -1.3375188e-06 
3.1465694e-07 1.6953664e-06 -7.3234582e-07 
-5.5607948e-08 7.9241539e-07 1.5025428e-07 
-1.5003972e-07 -2.0276958e-07 1.4158699e-07 
2.4318527e-07 -6.5681905e-07 3.5985752e-07 
-9.5251075e-08 1.0539222e-07 -1.6826507e-07 
-6.0092937e-08 4.1416243e-07 -2.2733970e-09 
-7.0222427e-08 -9.4691167e-08 4.4906567e-08 
3.9371830e-08 -2.5848456e-07 2.3432930e-08 
-2.7396823e-08 1.8001013e-07 -3.8058825e-08 
-1.8842361e-08 2.0439275e-08 2.4172337e-08 
1.1407877e-08 -7.2491474e-08 1.6867252e-08 
-7.7094802e-09 3.9985730e-09 -7.2048469e-09 
-6.9753119e-09 2.5066013e-08 -6.7252328e-09 
1.3361603e-09 -2.6765536e-09 1.8751667e-09 
-1.7716145e-09 -1.2776892e-08 -1.0200804e-09 
0.0000000e+00 -7.2906696e-05 0.0000000e+00 
0.0000000e+00 -2.0047743e-04 0.0000000e+00 
0.0000000e+00 -3.7210144e-04 0.0000000e+00 
0.0000000e+00 -4.2925338e-04 0.0000000e+00 
0.0000000e+00 -5.3384510e-04 0.0000000e+00 
0.0000000e+00 -4.6667602e-04 0.0000000e+00 
0.0000000e+00 -3.9253075e-04 0.0000000e+00 
0.0000000e+00 -2.1349495e-04 0.0000000e+00 
0.0000000e+00 -6.5856490e-05 0.0000000e+00 
0.0000000e+00 2.4101530e-05 0.0000000e+00 
0.0000000e+00 2.6587812e-05 0.0000000e+00 
0.0000000e+00 4.8639168e-07 0.0000000e+00 
0.0000000e+00 2.8874269e-06 0.0000000e+00 
0.0000000e+00 4.2080637e-06 0.0000000e+00 
0.0000000e+00 3.5858466e-05 0.0000000e+00 
0.0000000e+00 6.7911249e-05 0.0000000e+00 
0.0000000e+00 4.4905530e-05 0.0000000e+00 
0.0000000e+00 4.3059757e-05 0.0000000e+00 
0.0000000e+00 1.3648983e-05 0.0000000e+00 
0.0000000e+00 -3.5323421e-05 0.0000000e+00 
0.0000000e+00 -1.0492348e-04 0.0000000e+00 
0.0000000e+00 -1.9722605e-04 0.0000000e+00 
0.0000000e+00 -4.2110094e-04 0.0000000e+00 
0.0000000e+00 -5.0894578e-04 0.0000000e+00 
0.0000000e+00 -5.3516944e-04 0.0000000e+00 
0.0000000e+00 -5.0983625e-04 0.0000000e+00 
0.0000000e+00 -3.8197770e-04 0.0000000e+00 
0.0000000e+00 -1.7385348e-04 0.0000000e+00 
0.0000000e+00 -4.1552652e-05 0.0000000e+00 
0.0000000e+00 1.7918763e-05 0.0000000e+00 
0.0000000e+00 3.4576045e-05 0.0000000e+00 
0.0000000e+00 9.9340114e-06 0.0000000e+00 
0.0000000e+00 -1.3765100e-06 0.0000000e+00 
0.0000000e+00 -4.6496784e-06 0.0000000e+00 
0.0000000e+00 -2.9803339e-06 0.0000000e+00 
0.0000000e+00 -3.8314931e-07 0.0000000e+00 
0.0000000e+00 -9.7901238e-07 0.0000000e+00 
0.0000000e+00 1.0222512e-06 0.0000000e+00 
0.0000000e+00 -2.0234994e-07 0.0000000e+00 
0.0000000e+00 5.1245166e-08 0.0000000e+00 
0.0000000e+00 5.6433419e-07 0.0000000e+00 
0.0000000e+00 -3.0926520e-07 0.0000000e+00 
0.0000000e+00 -2.1630682e-07 0.0000000e+00 
0.0000000e+00 1.5959608e-07 0.0000000e+00 
0.0000000e+00 4.5763900e-07 0.0000000e+00 
0.0000000e+00 -1.4566437e-07 0.0000000e+00 
0.0000000e+00 -2.8764393e-07 0.0000000e+00 
0.0000000e+00 1.5768457e-07 0.0000000e+00 
0.0000000e+00 1.6876709e-07 0.0000000e+00 
4.1003990e-05 2.1960062e-05 -2.3417950e-05 
3.4558048e-05 -1.7868431e-05 -4.3156466e-05 
1.1230015e-05 -3.6975951e-05 -5.2474239e-05 
-3.1908171e-06 -3.4266926e-05 -3.1008080e-05 
-5.3614349e-09 -1.2021063e-08 -3.5045475e-09 
6.2719603e-09 4.7263732e-10 4.5895105e-09 
-8.0247968e-09 2.8907287e-08 1.5185906e-08 
2.4395234e-08 -5.5180323e-08 -1.5782160e-08 
7.0103975e-05 3.7994389e-05 -5.0166713e-05 
5.8763744e-05 7.0008253e-05 -4.6029774e-05 
7.0912611e-05 8.4200270e-05 -3.6768244e-05 
1.0404757e-04 7.9023564e-05 -5.5720475e-06 
9.3316565e-05 1.6296664e-05 3.0157955e-05 
5.1004547e-05 -1.7448552e-05 3.5107969e-05 
1.5016925e-05 -3.7290822e-05 1.3160176e-05 
-6.9296320e-06 -2.4052853e-05 -2.7911203e-05 
-1.6394778e-06 6.0312168e-06 -2.5847319e-05 
-2.3418272e-06 1.1632895e-05 9.6836493e-06 
4.8073912e-06 -4.2572037e-06 2.4904823e-05 
9.0019075e-06 -2.6151749e-06 2.4466115e-05 
-2.4114747e-06 -1.3922461e-07 1.7094855e-05 
-1.0495258e-05 -4.9763871e-06 5.1095976e-06 
-3.9518254e-06 -3.2462558e-06 -9.5838468e-06 
6.3363350e-06 2.0232826e-06 -1.0499292e-05 
2.6507847e-05 -1.1679285e-06 -1.7177847e-05 
6.0900220e-05 2.4269599e-05 -2.4998957e-05 
9.0882000e-05 3.8956696e-05 -2.2727272e-05 
1.1219872e-04 6.7736721e-05 -1.9887009e-05 
1.2063813e-04 8.3259256e-05 -7.7500081e-06 