# vtk DataFile Version 4.0
vtk output
ASCII
DATASET UNSTRUCTURED_GRID
POINTS 1029 float
0.0000000e+00 0.0000000e+00 0.0000000e+00 
2.0000000e+01 0.0000000e+00 0.0000000e+00 
2.0000000e+01 1.0000000e+01 0.0000000e+00 
0.0000000e+00 1.0000000e+01 0.0000000e+00 
1.0000000e+00 1.0000000e+01 0.0000000e+00 
5.0000000e+00 1.0000000e+01 0.0000000e+00 
1.0000000e+01 1.0000000e+01 0.0000000e+00 
1.5000000e+01 1.0000000e+01 0.0000000e+00 
1.0000000e+00 0.0000000e+00 0.0000000e+00 
2.0000000e+00 0.0000000e+00 0.0000000e+00 
3.0000000e+00 0.0000000e+00 0.0000000e+00 
4.0000000e+00 0.0000000e+00 0.0000000e+00 
5.0000000e+00 0.0000000e+00 0.0000000e+00 
6.0000000e+00 0.0000000e+00 0.0000000e+00 
7.0000000e+00 0.0000000e+00 0.0000000e+00 
8.0000000e+00 0.0000000e+00 0.0000000e+00 
9.0000000e+00 0.0000000e+00 0.0000000e+00 
1.0000000e+01 0.0000000e+00 0.0000000e+00 
1.1000000e+01 0.0000000e+00 0.0000000e+00 
1.2000000e+01 0.0000000e+00 0.0000000e+00 
1.3000000e+01 0.0000000e+00 0.0000000e+00 
1.4000000e+01 0.0000000e+00 0.0000000e+00 
1.5000000e+01 0.0000000e+00 0.0000000e+00 
1.6000000e+01 0.0000000e+00 0.0000000e+00 
1.7000000e+01 0.0000000e+00 0.0000000e+00 
1.8000000e+01 0.0000000e+00 0.0000000e+00 
1.9000000e+01 0.0000000e+00 0.0000000e+00 
5.0000000e-01 0.0000000e+00 0.0000000e+00 
1.5000000e+00 0.0000000e+00 0.0000000e+00 
2.5000000e+00 0.0000000e+00 0.0000000e+00 
3.5000000e+00 0.0000000e+00 0.0000000e+00 
4.5000000e+00 0.0000000e+00 0.0000000e+00 
5.5000000e+00 0.0000000e+00 0.0000000e+00 
6.5000000e+00 0.0000000e+00 0.0000000e+00 
7.5000000e+00 0.0000000e+00 0.0000000e+00 
8.5000000e+00 0.0000000e+00 0.0000000e+00 
9.5000000e+00 0.0000000e+00 0.0000000e+00 
1.0500000e+01 0.0000000e+00 0.0000000e+00 
1.1500000e+01 0.0000000e+00 0.0000000e+00 
1.2500000e+01 0.0000000e+00 0.0000000e+00 
1.3500000e+01 0.0000000e+00 0.0000000e+00 
1.4500000e+01 0.0000000e+00 0.0000000e+00 
1.5500000e+01 0.0000000e+00 0.0000000e+00 
1.6500000e+01 0.0000000e+00 0.0000000e+00 
1.7500000e+01 0.0000000e+00 0.0000000e+00 
1.8500000e+01 0.0000000e+00 0.0000000e+00 
1.9500000e+01 0.0000000e+00 0.0000000e+00 
2.0000000e+01 1.0000000e+00 0.0000000e+00 
2.0000000e+01 2.0000000e+00 0.0000000e+00 
2.0000000e+01 3.0000000e+00 0.0000000e+00 
2.0000000e+01 4.0000000e+00 0.0000000e+00 
2.0000000e+01 5.0000000e+00 0.0000000e+00 
2.0000000e+01 6.0000000e+00 0.0000000e+00 
2.0000000e+01 7.0000000e+00 0.0000000e+00 
2.0000000e+01 8.0000000e+00 0.0000000e+00 
2.0000000e+01 9.0000000e+00 0.0000000e+00 
2.0000000e+01 5.0000000e-01 0.0000000e+00 
2.0000000e+01 1.5000000e+00 0.0000000e+00 
2.0000000e+01 2.5000000e+00 0.0000000e+00 
2.0000000e+01 3.5000000e+00 0.0000000e+00 
2.0000000e+01 4.5000000e+00 0.0000000e+00 
2.0000000e+01 5.5000000e+00 0.0000000e+00 
2.0000000e+01 6.5000000e+00 0.0000000e+00 
2.0000000e+01 7.5000000e+00 0.0000000e+00 
2.0000000e+01 8.5000000e+00 0.0000000e+00 
2.0000000e+01 9.5000000e+00 0.0000000e+00 
0.0000000e+00 9.0000000e+00 0.0000000e+00 
0.0000000e+00 8.0000000e+00 0.0000000e+00 
0.0000000e+00 7.0000000e+00 0.0000000e+00 
0.0000000e+00 6.0000000e+00 0.0000000e+00 
0.0000000e+00 5.0000000e+00 0.0000000e+00 
0.0000000e+00 4.0000000e+00 0.0000000e+00 
0.0000000e+00 3.0000000e+00 0.0000000e+00 
0.0000000e+00 2.0000000e+00 0.0000000e+00 
0.0000000e+00 1.0000000e+00 0.0000000e+00 
0.0000000e+00 9.5000000e+00 0.0000000e+00 
0.0000000e+00 8.5000000e+00 0.0000000e+00 
0.0000000e+00 7.5000000e+00 0.0000000e+00 
0.0000000e+00 6.5000000e+00 0.0000000e+00 
0.0000000e+00 5.5000000e+00 0.0000000e+00 
0.0000000e+00 4.5000000e+00 0.0000000e+00 
0.0000000e+00 3.5000000e+00 0.0000000e+00 
0.0000000e+00 2.5000000e+00 0.0000000e+00 
0.0000000e+00 1.5000000e+00 0.0000000e+00 
0.0000000e+00 5.0000000e-01 0.0000000e+00 
5.0000000e-01 1.0000000e+01 0.0000000e+00 
6.0000000e+00 1.0000000e+01 0.0000000e+00 
7.0000000e+00 1.0000000e+01 0.0000000e+00 
8.0000000e+00 1.0000000e+01 0.0000000e+00 
9.0000000e+00 1.0000000e+01 0.0000000e+00 
5.5000000e+00 1.0000000e+01 0.0000000e+00 
6.5000000e+00 1.0000000e+01 0.0000000e+00 
7.5000000e+00 1.0000000e+01 0.0000000e+00 
8.5000000e+00 1.0000000e+01 0.0000000e+00 
9.5000000e+00 1.0000000e+01 0.0000000e+00 
1.1000000e+01 1.0000000e+01 0.0000000e+00 
1.2000000e+01 1.0000000e+01 0.0000000e+00 
1.3000000e+01 1.0000000e+01 0.0000000e+00 
1.4000000e+01 1.0000000e+01 0.0000000e+00 
1.0500000e+01 1.0000000e+01 0.0000000e+00 
1.1500000e+01 1.0000000e+01 0.0000000e+00 
1.2500000e+01 1.0000000e+01 0.0000000e+00 
1.3500000e+01 1.0000000e+01 0.0000000e+00 
1.4500000e+01 1.0000000e+01 0.0000000e+00 
1.9000000e+01 1.0000000e+01 0.0000000e+00 
1.8000000e+01 1.0000000e+01 0.0000000e+00 
1.7000000e+01 1.0000000e+01 0.0000000e+00 
1.6000000e+01 1.0000000e+01 0.0000000e+00 
1.9500000e+01 1.0000000e+01 0.0000000e+00 
1.8500000e+01 1.0000000e+01 0.0000000e+00 
1.7500000e+01 1.0000000e+01 0.0000000e+00 
1.6500000e+01 1.0000000e+01 0.0000000e+00 
1.5500000e+01 1.0000000e+01 0.0000000e+00 
4.0000000e+00 1.0000000e+01 0.0000000e+00 
3.0000000e+00 1.0000000e+01 0.0000000e+00 
2.0000000e+00 1.0000000e+01 0.0000000e+00 
4.5000000e+00 1.0000000e+01 0.0000000e+00 
3.5000000e+00 1.0000000e+01 0.0000000e+00 
2.5000000e+00 1.0000000e+01 0.0000000e+00 
1.5000000e+00 1.0000000e+01 0.0000000e+00 
9.5000000e+00 9.1339750e+00 0.0000000e+00 
1.4500000e+01 9.1339750e+00 0.0000000e+00 
5.5000000e+00 9.1339750e+00 0.0000000e+00 
7.5000000e+00 8.6602539e-01 0.0000000e+00 
1.1500000e+01 8.6602539e-01 0.0000000e+00 
1.4500000e+01 8.6602539e-01 0.0000000e+00 
4.5246964e+00 8.5176694e-01 0.0000000e+00 
1.9059727e+01 4.6363034e+00 0.0000000e+00 
8.4778279e-01 5.4684029e+00 0.0000000e+00 
7.5000000e+00 9.1339750e+00 0.0000000e+00 
1.1500000e+01 9.1339750e+00 0.0000000e+00 
1.6500000e+01 9.1339750e+00 0.0000000e+00 
3.5000000e+00 9.1339750e+00 0.0000000e+00 
9.5000000e+00 8.6602539e-01 0.0000000e+00 
1.6500000e+01 8.6602539e-01 0.0000000e+00 
8.6602539e-01 3.5000000e+00 0.0000000e+00 
1.9111458e+01 6.5092020e+00 0.0000000e+00 
8.9629614e-01 7.5867257e+00 0.0000000e+00 
1.9112749e+01 2.5204153e+00 0.0000000e+00 
2.5402119e+00 7.9592258e-01 0.0000000e+00 
1.9094303e+01 8.4081745e+00 0.0000000e+00 
1.5042374e+00 9.1532278e+00 0.0000000e+00 
8.2949740e-01 1.5059323e+00 0.0000000e+00 
1.8445559e+01 9.5495284e-01 0.0000000e+00 
4.5000000e+00 9.1339750e+00 0.0000000e+00 
5.0000000e+00 8.2679491e+00 0.0000000e+00 
6.0000000e+00 8.2679491e+00 0.0000000e+00 
5.5000000e+00 7.4019237e+00 0.0000000e+00 
6.5000000e+00 7.4019237e+00 0.0000000e+00 
6.0000000e+00 6.5358982e+00 0.0000000e+00 
7.0000000e+00 6.5358982e+00 0.0000000e+00 
6.5000000e+00 5.6698728e+00 0.0000000e+00 
7.5000000e+00 5.6698728e+00 0.0000000e+00 
5.5000000e+00 5.6698728e+00 0.0000000e+00 
6.0000000e+00 4.8038478e+00 0.0000000e+00 
5.0000000e+00 4.8038478e+00 0.0000000e+00 
4.5000000e+00 5.6698728e+00 0.0000000e+00 
4.0000000e+00 4.8038478e+00 0.0000000e+00 
5.5000000e+00 3.9378221e+00 0.0000000e+00 
6.5000000e+00 3.9378221e+00 0.0000000e+00 
8.0000000e+00 6.5358982e+00 0.0000000e+00 
8.5000000e+00 5.6698728e+00 0.0000000e+00 
9.0000000e+00 6.5358982e+00 0.0000000e+00 
9.5000000e+00 5.6698728e+00 0.0000000e+00 
9.0000000e+00 4.8038478e+00 0.0000000e+00 
1.0000000e+01 4.8038478e+00 0.0000000e+00 
1.0500000e+01 5.6698728e+00 0.0000000e+00 
1.1000000e+01 4.8038478e+00 0.0000000e+00 
1.1500000e+01 5.6698728e+00 0.0000000e+00 
1.2000000e+01 4.8038478e+00 0.0000000e+00 
1.2500000e+01 5.6698728e+00 0.0000000e+00 
1.3000000e+01 4.8038478e+00 0.0000000e+00 
1.3500000e+01 5.6698728e+00 0.0000000e+00 
1.4000000e+01 4.8038478e+00 0.0000000e+00 
1.4500000e+01 5.6698728e+00 0.0000000e+00 
1.5000000e+01 4.8038478e+00 0.0000000e+00 
1.5500000e+01 5.6698728e+00 0.0000000e+00 
1.3500000e+01 3.9378221e+00 0.0000000e+00 
1.0500000e+01 3.9378221e+00 0.0000000e+00 
1.6000000e+01 4.8038478e+00 0.0000000e+00 
1.5500000e+01 3.9378221e+00 0.0000000e+00 
1.3000000e+01 6.5358982e+00 0.0000000e+00 
1.6500000e+01 3.9378221e+00 0.0000000e+00 
6.0246964e+00 3.0860553e+00 0.0000000e+00 
3.5000000e+00 5.6698728e+00 0.0000000e+00 
1.6500000e+01 5.6698728e+00 0.0000000e+00 
1.6000000e+01 6.5358982e+00 0.0000000e+00 
1.1000000e+01 6.5358982e+00 0.0000000e+00 
5.0288124e+00 3.1213744e+00 0.0000000e+00 
7.0041161e+00 3.0741732e+00 0.0000000e+00 
2.9553418e+00 4.8365397e+00 0.0000000e+00 
1.6000000e+01 3.0717967e+00 0.0000000e+00 
1.7000000e+01 6.5358982e+00 0.0000000e+00 
1.7000000e+01 3.0717967e+00 0.0000000e+00 
8.5000000e+00 7.4019237e+00 0.0000000e+00 
3.4925570e+00 3.9432709e+00 0.0000000e+00 
9.5000000e+00 7.4019237e+00 0.0000000e+00 
4.5000000e+00 7.4019237e+00 0.0000000e+00 
1.5000000e+01 3.0717967e+00 0.0000000e+00 
1.7507488e+01 5.6669536e+00 0.0000000e+00 
6.5107503e+00 2.2357147e+00 0.0000000e+00 
1.5500000e+01 2.2057714e+00 0.0000000e+00 
1.7482849e+01 3.9478383e+00 0.0000000e+00 
2.4838426e+00 5.7012835e+00 0.0000000e+00 
2.9973071e+00 6.5411334e+00 0.0000000e+00 
1.6500000e+01 7.4019237e+00 0.0000000e+00 
1.5500000e+01 7.4019237e+00 0.0000000e+00 
1.7500000e+01 7.4019237e+00 0.0000000e+00 
7.5006862e+00 3.9382184e+00 0.0000000e+00 
8.0008001e+00 3.0722589e+00 0.0000000e+00 
2.4646075e+00 3.9872341e+00 0.0000000e+00 
3.0000000e+00 3.0717967e+00 0.0000000e+00 
2.0000000e+00 6.5358982e+00 0.0000000e+00 
2.5285575e+00 7.3860493e+00 0.0000000e+00 
1.4500000e+01 2.2057714e+00 0.0000000e+00 
1.8143080e+01 3.0350568e+00 0.0000000e+00 
1.7489780e+01 2.2149704e+00 0.0000000e+00 
1.8901860e+00 3.0475340e+00 0.0000000e+00 
2.5122623e+00 2.2156274e+00 0.0000000e+00 
3.5267401e+00 2.3241744e+00 0.0000000e+00 
1.6000000e+01 8.2679491e+00 0.0000000e+00 
1.5000000e+01 8.2679491e+00 0.0000000e+00 
1.4500000e+01 7.4019237e+00 0.0000000e+00 
1.4000000e+01 8.2679491e+00 0.0000000e+00 
1.3500000e+01 9.1339750e+00 0.0000000e+00 
1.3000000e+01 8.2679491e+00 0.0000000e+00 
9.0000000e+00 8.2679491e+00 0.0000000e+00 
1.0000000e+01 8.2679491e+00 0.0000000e+00 
1.8026423e+01 6.5280433e+00 0.0000000e+00 
1.8507418e+01 7.4261799e+00 0.0000000e+00 
[...]
POINT_DATA 1029
FIELD FieldData 1
VELOCITY 3 1029  float
0.0000000e+00 0.0000000e+00 0.0000000e+00 
0.0000000e+00 0.0000000e+00 0.0000000e+00 
0.0000000e+00 6.5098214e-03 0.0000000e+00 
0.0000000e+00 -2.4971132e+00 0.0000000e+00 
-1.0023816e+00 -1.9867522e+00 0.0000000e+00 
-6.2473979e-02 -7.6481938e-02 0.0000000e+00 
1.0091459e-02 4.3952004e-03 0.0000000e+00 
5.6653138e-04 5.1554441e-03 0.0000000e+00 
0.0000000e+00 0.0000000e+00 0.0000000e+00 
0.0000000e+00 0.0000000e+00 0.0000000e+00 
0.0000000e+00 0.0000000e+00 0.0000000e+00 
0.0000000e+00 0.0000000e+00 0.0000000e+00 
0.0000000e+00 0.0000000e+00 0.0000000e+00 
0.0000000e+00 0.0000000e+00 0.0000000e+00 
0.0000000e+00 0.0000000e+00 0.0000000e+00 
0.0000000e+00 0.0000000e+00 0.0000000e+00 
0.0000000e+00 0.0000000e+00 0.0000000e+00 
0.0000000e+00 0.0000000e+00 0.0000000e+00 
0.0000000e+00 0.0000000e+00 0.0000000e+00 
0.0000000e+00 0.0000000e+00 0.0000000e+00 
0.0000000e+00 0.0000000e+00 0.0000000e+00 
0.0000000e+00 0.0000000e+00 0.0000000e+00 
0.0000000e+00 0.0000000e+00 0.0000000e+00 
0.0000000e+00 0.0000000e+00 0.0000000e+00 
0.0000000e+00 0.0000000e+00 0.0000000e+00 
0.0000000e+00 0.0000000e+00 0.0000000e+00 
0.0000000e+00 0.0000000e+00 0.0000000e+00 
0.0000000e+00 0.0000000e+00 0.0000000e+00 
0.0000000e+00 0.0000000e+00 0.0000000e+00 
0.0000000e+00 0.0000000e+00 0.0000000e+00 
0.0000000e+00 0.0000000e+00 0.0000000e+00 
0.0000000e+00 0.0000000e+00 0.0000000e+00 
0.0000000e+00 0.0000000e+00 0.0000000e+00 
0.0000000e+00 0.0000000e+00 0.0000000e+00 
0.0000000e+00 0.0000000e+00 0.0000000e+00 
0.0000000e+00 0.0000000e+00 0.0000000e+00 
0.0000000e+00 0.0000000e+00 0.0000000e+00 
0.0000000e+00 0.0000000e+00 0.0000000e+00 
0.0000000e+00 0.0000000e+00 0.0000000e+00 
0.0000000e+00 0.0000000e+00 0.0000000e+00 
0.0000000e+00 0.0000000e+00 0.0000000e+00 
0.0000000e+00 0.0000000e+00 0.0000000e+00 
0.0000000e+00 0.0000000e+00 0.0000000e+00 
0.0000000e+00 0.0000000e+00 0.0000000e+00 
0.0000000e+00 0.0000000e+00 0.0000000e+00 
0.0000000e+00 0.0000000e+00 0.0000000e+00 
0.0000000e+00 0.0000000e+00 0.0000000e+00 
0.0000000e+00 -5.4177088e-03 0.0000000e+00 
0.0000000e+00 -6.0288575e-03 0.0000000e+00 
0.0000000e+00 -3.5546857e-03 0.0000000e+00 
0.0000000e+00 -1.1841315e-02 0.0000000e+00 
0.0000000e+00 -4.6750321e-03 0.0000000e+00 
0.0000000e+00 3.1421629e-03 0.0000000e+00 
0.0000000e+00 7.1949610e-03 0.0000000e+00 
0.0000000e+00 1.5839837e-02 0.0000000e+00 
0.0000000e+00 1.4931660e-02 0.0000000e+00 
0.0000000e+00 3.8128931e-04 0.0000000e+00 
0.0000000e+00 5.7908014e-04 0.0000000e+00 
0.0000000e+00 -2.3233183e-03 0.0000000e+00 
0.0000000e+00 3.0431766e-03 0.0000000e+00 
0.0000000e+00 -4.4535580e-03 0.0000000e+00 
0.0000000e+00 1.0185137e-02 0.0000000e+00 
0.0000000e+00 -1.4657405e-02 0.0000000e+00 
0.0000000e+00 1.7673630e-02 0.0000000e+00 
0.0000000e+00 -2.1204611e-02 0.0000000e+00 
0.0000000e+00 2.7753219e-02 0.0000000e+00 
0.0000000e+00 -2.8356161e+00 0.0000000e+00 
0.0000000e+00 -3.0630097e+00 0.0000000e+00 
0.0000000e+00 -3.5230467e-01 0.0000000e+00 
0.0000000e+00 -5.3630662e-01 0.0000000e+00 
0.0000000e+00 -3.3618987e-02 0.0000000e+00 
0.0000000e+00 1.2367672e-01 0.0000000e+00 
0.0000000e+00 8.0054656e-02 0.0000000e+00 
0.0000000e+00 1.1789217e-01 0.0000000e+00 
0.0000000e+00 2.0668123e-02 0.0000000e+00 
0.0000000e+00 -2.6042578e+00 0.0000000e+00 
0.0000000e+00 -2.8867359e+00 0.0000000e+00 
0.0000000e+00 -1.7046844e+00 0.0000000e+00 
0.0000000e+00 5.8807611e-01 0.0000000e+00 
0.0000000e+00 9.8673470e-02 0.0000000e+00 
0.0000000e+00 -1.7330529e-01 0.0000000e+00 
0.0000000e+00 -4.6723641e-02 0.0000000e+00 
0.0000000e+00 -7.6072603e-02 0.0000000e+00 
0.0000000e+00 7.7166213e-03 0.0000000e+00 
0.0000000e+00 -4.1849099e-02 0.0000000e+00 
-6.4024293e-01 -2.5667868e+00 0.0000000e+00 
6.0540400e-03 1.2475456e-02 0.0000000e+00 
5.5689570e-03 -1.4102280e-02 0.0000000e+00 
1.2588356e-02 9.5899533e-03 0.0000000e+00 
3.2021783e-03 1.1933074e-02 0.0000000e+00 
7.2157122e-03 3.3008002e-02 0.0000000e+00 
-2.0373406e-02 -2.5998363e-03 0.0000000e+00 
-3.8671056e-03 3.9705951e-03 0.0000000e+00 
-4.8658075e-03 -1.0966475e-02 0.0000000e+00 
-1.8775523e-02 -2.5450315e-02 0.0000000e+00 
1.9642162e-04 -1.6933266e-02 0.0000000e+00 
-5.0265128e-03 -3.1898078e-02 0.0000000e+00 
-6.2381029e-03 -2.7571796e-02 0.0000000e+00 
-5.0923065e-03 -1.3051749e-02 0.0000000e+00 
-2.0253868e-03 -1.3547690e-02 0.0000000e+00 
-3.3657223e-03 -2.4999299e-03 0.0000000e+00 
6.6822530e-03 1.2809125e-02 0.0000000e+00 
3.1619500e-03 5.2019972e-03 0.0000000e+00 
2.4680884e-03 3.9355042e-03 0.0000000e+00 
-5.7148663e-03 -8.9727400e-04 0.0000000e+00 
-1.1769603e-03 1.9780049e-02 0.0000000e+00 
2.4723953e-03 1.6543176e-02 0.0000000e+00 
3.5415613e-03 2.2131823e-02 0.0000000e+00 
3.2812223e-04 1.9190570e-02 0.0000000e+00 
3.2094456e-03 1.3598556e-03 0.0000000e+00 
-3.2208050e-03 -2.8565722e-03 0.0000000e+00 
-1.9642683e-03 -7.7645252e-03 0.0000000e+00 
-2.8720084e-03 -1.0108424e-02 0.0000000e+00 
-3.2935284e-02 -1.0843194e-01 0.0000000e+00 
1.6287503e-01 2.2558118e-01 0.0000000e+00 
-1.0051891e+00 -3.9075395e-01 0.0000000e+00 
8.2188742e-03 1.7322879e-01 0.0000000e+00 
1.8196578e-01 5.3592704e-02 0.0000000e+00 
-4.0318164e-01 5.4352473e-02 0.0000000e+00 
-1.0369549e+00 -1.5807177e+00 0.0000000e+00 
-1.0757781e-02 -2.7689602e-02 0.0000000e+00 
2.5957038e-03 -1.5410330e-04 0.0000000e+00 
-1.5461368e-02 1.6843092e-01 0.0000000e+00 
-2.6991246e-02 3.1801336e-02 0.0000000e+00 
8.5880784e-03 2.3862992e-04 0.0000000e+00 
-1.6912390e-04 4.9364213e-03 0.0000000e+00 
-2.7253903e-02 1.2769291e-02 0.0000000e+00 
-4.7354889e-03 -8.4304949e-03 0.0000000e+00 
-1.2000149e-01 2.7492672e-01 0.0000000e+00 
-2.9099199e-03 3.2497112e-02 0.0000000e+00 
-7.6370388e-03 -2.2083227e-02 0.0000000e+00 
1.7162983e-04 2.1027438e-03 0.0000000e+00 
6.0762779e-04 -1.5600166e-01 0.0000000e+00 
3.1880676e-04 -1.0274879e-03 0.0000000e+00 
-5.5862078e-03 6.8685426e-03 0.0000000e+00 
-2.5259495e-02 -9.8819211e-02 0.0000000e+00 
-1.7051465e-03 -9.8938001e-03 0.0000000e+00 
4.6536496e-01 -1.5046592e+00 0.0000000e+00 
-3.8151506e-03 -9.7937724e-03 0.0000000e+00 
2.4577813e-02 -5.0632570e-02 0.0000000e+00 
-1.1136868e-03 -6.6773500e-03 0.0000000e+00 
5.5378854e-02 -9.4607288e-01 0.0000000e+00 
3.8202677e-02 2.0465476e-02 0.0000000e+00 
-2.7927670e-03 -4.0228390e-03 0.0000000e+00 
6.9288447e-02 1.8102969e-01 0.0000000e+00 
-4.6279646e-02 -6.6031446e-03 0.0000000e+00 
-1.6227420e-02 -4.0672850e-02 0.0000000e+00 
-2.6091956e-02 -9.1929525e-02 0.0000000e+00 
-1.1263556e-02 -5.2816696e-02 0.0000000e+00 
-3.5464086e-02 -7.4876240e-03 0.0000000e+00 
7.8754984e-03 3.2428004e-02 0.0000000e+00 
-1.9514777e-02 1.7743759e-02 0.0000000e+00 
3.1498015e-02 9.3909251e-03 0.0000000e+00 
6.6836723e-03 9.4836289e-03 0.0000000e+00 
-2.5877075e-03 2.8235309e-03 0.0000000e+00 
3.2590076e-02 2.4578106e-02 0.0000000e+00 
2.1014424e-02 1.6775293e-03 0.0000000e+00 
2.4779914e-02 -5.8388609e-02 0.0000000e+00 
1.3070588e-02 2.8370988e-02 0.0000000e+00 
-1.3734119e-02 -2.4031194e-04 0.0000000e+00 
2.2791151e-02 3.0102013e-02 0.0000000e+00 
2.3593551e-03 1.3595224e-02 0.0000000e+00 
-7.8060236e-03 -2.3018806e-03 0.0000000e+00 
-2.2776095e-02 1.4367601e-02 0.0000000e+00 
-1.1020072e-02 -9.2995670e-03 0.0000000e+00 
-5.3428644e-03 -5.5638240e-03 0.0000000e+00 
-4.7051776e-03 1.2254201e-02 0.0000000e+00 
1.1286454e-02 1.0167197e-02 0.0000000e+00 
6.0367556e-03 5.3655971e-03 0.0000000e+00 
1.2230017e-02 1.5515734e-02 0.0000000e+00 
1.5761897e-02 6.0684388e-03 0.0000000e+00 
7.6713073e-03 3.1895742e-02 0.0000000e+00 
5.9936354e-03 7.2851097e-03 0.0000000e+00 
3.8240601e-03 2.0057719e-02 0.0000000e+00 
-4.3443157e-04 2.0477405e-02 0.0000000e+00 
-9.2276314e-04 1.2474813e-02 0.0000000e+00 
-4.7468911e-03 1.0007905e-02 0.0000000e+00 
1.2175452e-02 1.4615694e-02 0.0000000e+00 
8.5181126e-04 1.1117383e-02 0.0000000e+00 
-4.1632955e-03 2.6805215e-03 0.0000000e+00 
-8.3988737e-03 1.0720018e-02 0.0000000e+00 
8.3453665e-03 8.8932393e-03 0.0000000e+00 
-1.2310852e-02 1.4674797e-02 0.0000000e+00 
1.8326143e-02 4.8127184e-03 0.0000000e+00 
-5.1177397e-02 -8.9153074e-02 0.0000000e+00 
-5.3965757e-03 1.0534662e-02 0.0000000e+00 
-4.6367785e-03 9.5497901e-03 0.0000000e+00 
-5.1544206e-03 -5.1871194e-03 0.0000000e+00 
5.2681893e-02 -3.6016530e-03 0.0000000e+00 
-5.0794845e-03 -3.2621052e-02 0.0000000e+00 
-1.8480137e-02 1.5405339e-02 0.0000000e+00 
-6.1837300e-03 1.6041638e-03 0.0000000e+00 
-7.6029990e-03 5.9730988e-03 0.0000000e+00 
-9.9552022e-03 -8.0406386e-03 0.0000000e+00 
-1.2478568e-03 -6.6985311e-03 0.0000000e+00 
6.1885017e-04 1.7880987e-02 0.0000000e+00 
-1.1020741e-02 -7.9528140e-03 0.0000000e+00 
8.7371664e-03 -3.9818268e-02 0.0000000e+00 
-4.8715365e-03 1.9180097e-02 0.0000000e+00 
-4.6782293e-03 -6.7241644e-03 0.0000000e+00 
2.4934947e-03 2.6602944e-02 0.0000000e+00 
-8.6810980e-03 6.2610311e-03 0.0000000e+00 
-7.6407734e-03 -7.7466969e-03 0.0000000e+00 
3.5083264e-02 9.8562062e-02 0.0000000e+00 
-1.0961811e-01 -2.3635380e-01 0.0000000e+00 
1.0135908e-03 5.3069848e-03 0.0000000e+00 
3.9797166e-04 2.4028448e-03 0.0000000e+00 
-3.0493340e-03 1.4998384e-03 0.0000000e+00 
6.1930874e-03 -3.9520558e-02 0.0000000e+00 
-6.8451501e-03 -2.3071708e-02 0.0000000e+00 
-2.9207444e-02 -8.6332120e-02 0.0000000e+00 
-2.7994970e-02 3.5852067e-02 0.0000000e+00 
1.4445379e-01 -1.1061364e-01 0.0000000e+00 
-2.0017824e-01 4.1348852e-02 0.0000000e+00 
6.9402455e-04 1.4519284e-02 0.0000000e+00 
-1.0964447e-02 3.1105573e-03 0.0000000e+00 
-8.8725910e-03 -6.1608003e-03 0.0000000e+00 
-7.0278207e-03 7.4839137e-02 0.0000000e+00 
-1.1209252e-02 1.0449689e-01 0.0000000e+00 
-4.1407127e-02 1.1937905e-02 0.0000000e+00 
-4.4308915e-03 1.7511331e-02 0.0000000e+00 
-2.1037348e-03 6.2565794e-03 0.0000000e+00 
4.4511782e-04 1.0441318e-02 0.0000000e+00 
3.5767937e-03 -4.6252455e-03 0.0000000e+00 
-7.4318866e-04 -6.6960547e-03 0.0000000e+00 
9.0237167e-03 -1.3775527e-02 0.0000000e+00 
-5.4854206e-03 -1.5034845e-02 0.0000000e+00 
-7.1068224e-03 -1.4648328e-02 0.0000000e+00 
-5.3654746e-03 1.5711956e-02 0.0000000e+00 
-4.8503252e-03 1.1145375e-02 0.0000000e+00 
-6.5879780e-04 1.6371170e-02 0.0000000e+00 
-6.8378490e-03 -2.7691543e-03 0.0000000e+00 
-1.0241966e-02 1.0978821e-02 0.0000000e+00 
1.0651597e-02 -2.0012617e-02 0.0000000e+00 
-3.2900244e-03 1.2174620e-02 0.0000000e+00 
-3.9179265e-03 9.9137779e-03 0.0000000e+00 
2.1726831e-03 -2.4251109e-03 0.0000000e+00 
8.0437481e-04 -1.0114414e-02 0.0000000e+00 
5.9523148e-04 6.4771371e-03 0.0000000e+00 
5.0447104e-03 -4.5429356e-03 0.0000000e+00 
-1.8826526e-02 -1.0598705e-02 0.0000000e+00 
-1.7518074e-03 -2.6908712e-02 0.0000000e+00 
-1.1127750e-02 -1.2371930e-02 0.0000000e+00 
-3.1871998e-03 -1.0767536e-02 0.0000000e+00 
-3.0365612e-03 -3.1005614e-02 0.0000000e+00 
5.9850526e-04 -5.8485544e-03 0.0000000e+00 
8.2316892e-03 5.7768639e-02 0.0000000e+00 
-3.9790478e-03 7.0339753e-03 0.0000000e+00 
4.1770110e-01 -7.9178117e-02 0.0000000e+00 
2.0552261e-02 -4.6586925e-03 0.0000000e+00 
-5.6549786e-03 -2.3822129e-02 0.0000000e+00 
3.8782151e-03 -2.4846064e-02 0.0000000e+00 
1.1396324e-03 2.0487493e-02 0.0000000e+00 
-9.6368035e-03 -3.1770964e-03 0.0000000e+00 
-1.3946105e-02 5.6734201e-03 0.0000000e+00 
-3.8196617e-03 2.5954698e-03 0.0000000e+00 
-4.1927481e-03 -3.2953240e-04 0.0000000e+00 
8.6354017e-03 1.9266337e-02 0.0000000e+00 
1.5086755e-02 1.4269453e-02 0.0000000e+00 
1.9633768e-02 9.5005436e-03 0.0000000e+00 
1.0163004e-02 1.8085834e-02 0.0000000e+00 
1.1062000e-02 2.8984491e-02 0.0000000e+00 
-9.0205697e-03 1.7729056e-03 0.0000000e+00 
-5.8534048e-03 2.0291042e-03 0.0000000e+00 
-1.3410996e-02 -2.6903523e-02 0.0000000e+00 
-1.1412132e-02 2.2302315e-02 0.0000000e+00 
8.9432551e-03 -6.7701768e-03 0.0000000e+00 
4.7905063e-03 8.2767950e-03 0.0000000e+00 
3.4935102e-03 6.0847662e-03 0.0000000e+00 
-3.2587245e-03 -4.0103388e-03 0.0000000e+00 
2.1744053e-01 3.8117477e-01 0.0000000e+00 
-8.1653334e-02 -1.2331890e-01 0.0000000e+00 
-6.6625215e-02 -1.7226228e-01 0.0000000e+00 
1.6113091e-02 -4.5812391e-02 0.0000000e+00 
-2.9188786e-03 -8.5634559e-02 0.0000000e+00 
5.4603945e-03 -1.5011664e-02 0.0000000e+00 
2.7405199e-02 -2.0181127e-02 0.0000000e+00 
1.7651530e-02 2.3014342e-02 0.0000000e+00 
4.6549758e-04 2.4952751e-02 0.0000000e+00 
-1.3742550e-02 1.3104996e-02 0.0000000e+00 
1.5168122e-03 -5.4339399e-03 0.0000000e+00 
-1.3159405e-02 -4.6412954e-03 0.0000000e+00 
9.9430159e-03 1.6968112e-02 0.0000000e+00 
2.4601170e-03 -8.9466211e-04 0.0000000e+00 
-1.3651703e-02 -1.2231004e-02 0.0000000e+00 
1.0210490e-02 2.9590743e-02 0.0000000e+00 
8.7339915e-02 1.2616765e-01 0.0000000e+00 
-2.1709714e-03 7.3704240e-03 0.0000000e+00 
7.2912560e-03 -3.1636540e-02 0.0000000e+00 
6.7230077e-03 4.7579142e-03 0.0000000e+00 
-1.3093665e-03 -1.7387971e-03 0.0000000e+00 
1.0962628e-01 8.2317874e-02 0.0000000e+00 
2.4444978e-03 -1.5534436e-02 0.0000000e+00 
1.0232524e+00 -7.6767778e-01 0.0000000e+00 
7.1699016e-02 -2.2076184e-01 0.0000000e+00 
-1.2063618e-02 -3.7377046e-03 0.0000000e+00 
-2.2059986e-03 -7.1499497e-03 0.0000000e+00 
-3.6243899e-05 -5.8104889e-03 0.0000000e+00 
6.5445555e-03 3.0245262e-04 0.0000000e+00 
-2.7572466e-03 -5.0329817e-03 0.0000000e+00 
8.0069244e-01 -1.9493344e+00 0.0000000e+00 
-2.1011954e-02 6.4004958e-02 0.0000000e+00 
-8.1925956e-04 2.0001786e-02 0.0000000e+00 
-6.1243675e-03 1.2621514e-01 0.0000000e+00 
-4.1373456e-03 -5.7632276e-03 0.0000000e+00 
-4.0464029e-02 -1.1225522e-01 0.0000000e+00 
-7.0192446e-03 -1.4090038e-02 0.0000000e+00 
-2.3546716e-02 4.6283614e-02 0.0000000e+00 
3.4954574e-02 -5.3856913e-03 0.0000000e+00 
-2.6051605e-03 2.3000764e-02 0.0000000e+00 
-8.9532528e-03 2.9182123e-02 0.0000000e+00 
-1.4344535e-02 2.0736365e-03 0.0000000e+00 
-2.4994485e-02 7.4614245e-03 0.0000000e+00 
-1.3352590e-02 3.4327868e-03 0.0000000e+00 
-3.0328345e-03 -2.0000692e-03 0.0000000e+00 
1.0918638e-02 1.5921568e-02 0.0000000e+00 
1.7005784e-02 3.0467581e-04 0.0000000e+00 
9.9777747e-03 1.2657057e-02 0.0000000e+00 
-1.4028832e-03 1.6011240e-02 0.0000000e+00 
-6.9195465e-03 1.7999025e-02 0.0000000e+00 
-6.9488189e-03 3.9332989e-03 0.0000000e+00 
-6.7251134e-03 -4.8476108e-03 0.0000000e+00 
1.0251638e-02 3.2697387e-02 0.0000000e+00 
4.2995689e-03 -1.4528486e-02 0.0000000e+00 
-2.5128974e-03 -1.7155437e-01 0.0000000e+00 
-4.5574200e-03 1.0641268e-02 0.0000000e+00 
-9.0435848e-02 1.6067711e-01 0.0000000e+00 
-7.5903494e-04 -3.0368641e-03 0.0000000e+00 
-3.4399030e-01 -2.6046073e+00 0.0000000e+00 
4.8501939e-02 -8.7446477e-03 0.0000000e+00 
-1.4284311e-03 3.7391376e-02 0.0000000e+00 
-6.6856551e-03 2.8590476e-03 0.0000000e+00 
4.0347674e-03 2.8637994e-02 0.0000000e+00 
-5.7580985e-02 3.6323860e-02 0.0000000e+00 
3.1631157e-02 5.3617038e-02 0.0000000e+00 
1.4812270e-02 -2.5365926e-02 0.0000000e+00 
1.1492521e+00 -1.4462172e+00 0.0000000e+00 
1.1005564e+00 -1.9604269e+00 0.0000000e+00 
9.5426708e-01 -1.3532529e+00 0.0000000e+00 
1.2726271e-01 -7.2106111e-01 0.0000000e+00 
4.3013734e-01 -6.7351097e-01 0.0000000e+00 
-2.5491763e-03 5.4381681e-03 0.0000000e+00 
9.7108836e-04 -5.5257799e-03 0.0000000e+00 
2.1659578e-03 -1.2305945e-04 0.0000000e+00 
-7.9276953e-03 6.4131580e-02 0.0000000e+00 
-4.9502436e-02 -4.7678456e-02 0.0000000e+00 
5.2682094e-02 6.5361589e-02 0.0000000e+00 
2.9400366e-03 -7.9915030e-03 0.0000000e+00 
-4.4609638e-05 -6.2021851e-03 0.0000000e+00 
-2.5755111e-03 1.3786327e-02 0.0000000e+00 
-9.3696034e-04 3.3265562e-03 0.0000000e+00 
1.3376507e-03 -1.4532126e-02 0.0000000e+00 
-4.1015141e-04 1.2608752e-02 0.0000000e+00 
2.2321990e-02 3.0092305e-02 0.0000000e+00 
-2.3128599e-02 2.7867688e-02 0.0000000e+00 
6.1873343e-02 3.4739799e-03 0.0000000e+00 
-1.6275657e-02 -3.0754767e-02 0.0000000e+00 
-4.1745300e-04 -3.4175126e-03 0.0000000e+00 
-1.5267066e-03 3.4832594e-03 0.0000000e+00 
5.3743467e-02 -9.1678262e-02 0.0000000e+00 
8.5983174e-03 -4.5930978e-02 0.0000000e+00 
8.5077237e-04 -1.7365362e-03 0.0000000e+00 
1.9018579e-03 -1.1918256e-02 0.0000000e+00 
1.6118591e-03 -1.7559834e-02 0.0000000e+00 
-6.2874210e-04 3.9811442e-03 0.0000000e+00 
-1.2278443e-03 1.4786323e-02 0.0000000e+00 
2.3621707e-03 -1.3120946e-02 0.0000000e+00 
-1.1395920e-03 -1.1513812e-03 0.0000000e+00 
2.1747155e-03 -1.2025663e-02 0.0000000e+00 
-1.0259282e-03 1.3809715e-02 0.0000000e+00 
5.4214317e-03 -4.3715049e-02 0.0000000e+00 
-4.7709256e-02 -1.1743267e-01 0.0000000e+00 
-2.4287910e-03 2.6695712e-03 0.0000000e+00 
2.0052863e-03 1.0186372e-03 0.0000000e+00 
4.3739372e-01 -1.6921285e+00 0.0000000e+00 
7.9622608e-01 -8.2199758e-01 0.0000000e+00 
-1.7810661e-01 9.1201045e-02 0.0000000e+00 
-8.8467486e-02 3.2503566e-01 0.0000000e+00 
1.0371003e-01 1.4823343e-01 0.0000000e+00 
1.4856230e-03 1.3495802e-02 0.0000000e+00 
-9.3372777e-04 -1.4955695e-02 0.0000000e+00 
-2.1350514e-03 -2.7237084e-02 0.0000000e+00 
-4.1030250e-02 -2.2504119e-02 0.0000000e+00 
4.5796487e-02 2.4692155e-03 0.0000000e+00 
2.5842063e-02 -7.2894366e-03 0.0000000e+00 
4.1602934e-03 7.9388143e-03 0.0000000e+00 
-1.7981430e-03 6.8167122e-03 0.0000000e+00 
2.4072272e-03 -3.9247968e-03 0.0000000e+00 
1.6201304e-03 -1.4504994e-02 0.0000000e+00 
1.0807614e-02 5.3558568e-03 0.0000000e+00 
-1.5512523e-02 -1.0287925e-03 0.0000000e+00 
2.0689299e-02 4.2032665e-03 0.0000000e+00 
-1.1042784e-02 6.5861049e-04 0.0000000e+00 
-2.6815459e-02 -8.5816430e-03 0.0000000e+00 
-1.0826670e-03 1.3185971e-02 0.0000000e+00 
-1.1670316e-03 -1.1738996e-03 0.0000000e+00 
2.6699968e-04 -3.0948811e-03 0.0000000e+00 
3.7554037e-04 8.5351132e-03 0.0000000e+00 
-2.5355897e-04 -2.5999884e-03 0.0000000e+00 
1.5964247e-04 2.1973478e-03 0.0000000e+00 
1.4823682e-04 4.9127033e-04 0.0000000e+00 
-2.6542524e-02 -2.0624025e-01 0.0000000e+00 
7.7805772e-02 -1.7420165e-01 0.0000000e+00 
-1.6805960e-03 -4.5020976e-03 0.0000000e+00 
-1.9442676e-01 -2.3634668e-01 0.0000000e+00 
2.9215779e-02 -1.8609369e-02 0.0000000e+00 
-1.5592049e-02 1.0639830e-02 0.0000000e+00 
-2.1566238e-04 1.8250293e-03 0.0000000e+00 
2.7922173e-03 -7.4016098e-03 0.0000000e+00 
-4.0090987e-03 1.4109280e-02 0.0000000e+00 
1.5245813e-03 -6.8920045e-03 0.0000000e+00 
-6.6429982e-04 1.1580866e-02 0.0000000e+00 
1.7529782e-03 1.9216066e-02 0.0000000e+00 
1.5034848e-02 -5.3176158e-03 0.0000000e+00 
-1.9935712e-02 3.5574879e-02 0.0000000e+00 
2.7255019e-02 -1.6717887e-02 0.0000000e+00 
2.8757658e-03 -4.1988739e-03 0.0000000e+00 
-2.4022795e-03 7.3070703e-03 0.0000000e+00 
-3.3018316e-04 -5.6965011e-03 0.0000000e+00 
-7.4389577e-04 1.2024881e-02 0.0000000e+00 
1.0450003e-03 -3.8621949e-03 0.0000000e+00 
-2.1788666e-03 9.3200523e-03 0.0000000e+00 
-1.4275234e-03 3.9939918e-03 0.0000000e+00 
3.3691020e-03 -1.1995372e-02 0.0000000e+00 
1.7521300e-03 -7.3510287e-03 0.0000000e+00 
7.9035159e-04 -7.3921694e-03 0.0000000e+00 
2.4225002e-03 9.0928562e-03 0.0000000e+00 
-4.1867769e-03 7.9801716e-03 0.0000000e+00 
9.5233833e-04 3.8885595e-03 0.0000000e+00 
2.4481970e-03 1.4476362e-03 0.0000000e+00 
-1.3743606e-03 1.4331383e-03 0.0000000e+00 
-1.0306013e-03 -3.1426023e-03 0.0000000e+00 
-2.8597857e-03 1.6707835e-03 0.0000000e+00 
4.0310519e-03 -1.3847006e-03 0.0000000e+00 
-3.7012186e-03 7.0264107e-03 0.0000000e+00 
1.0589421e-03 -9.3507357e-03 0.0000000e+00 
5.7444844e-04 1.4694931e-03 0.0000000e+00 
-1.3935044e-03 8.1013450e-03 0.0000000e+00 
-2.1013578e-03 -1.0182450e-02 0.0000000e+00 
3.5582690e-03 1.3057471e-02 0.0000000e+00 
1.0889833e-03 9.1318018e-04 0.0000000e+00 
2.0234012e-03 -6.4566536e-03 0.0000000e+00 
-2.1557023e-03 6.6699130e-03 0.0000000e+00 
-1.7924783e-03 -4.1200225e-03 0.0000000e+00 
-7.0414292e-03 -4.7513265e-03 0.0000000e+00 
3.8432525e-03 2.0512489e-03 0.0000000e+00 
-7.3175197e-03 5.9527025e-04 0.0000000e+00 
9.1313589e-03 3.6390028e-03 0.0000000e+00 
-1.5710278e-03 -2.0364400e-03 0.0000000e+00 
5.3905458e-03 -6.7552286e-03 0.0000000e+00 
9.0216956e-04 1.0916816e-02 0.0000000e+00 
-1.9577178e-03 7.3294607e-03 0.0000000e+00 
-2.4927701e-03 -6.4460109e-03 0.0000000e+00 
-1.7887483e-03 -3.9536743e-03 0.0000000e+00 