# vtk DataFile Version 4.0
vtk output
ASCII
DATASET UNSTRUCTURED_GRID
POINTS 1029 float
0.0000000e+00 0.0000000e+00 0.0000000e+00 
2.0000000e+01 0.0000000e+00 0.0000000e+00 
2.0000000e+01 1.0000000e+01 0.0000000e+00 
0.0000000e+00 1.0000000e+01 0.0000000e+00 
1.0000000e+00 1.0000000e+01 0.0000000e+00 
5.0000000e+00 1.0000000e+01 0.0000000e+00 
1.0000000e+01 1.0000000e+01 0.0000000e+00 
1.5000000e+01 1.0000000e+01 0.0000000e+00 
1.0000000e+00 0.0000000e+00 0.0000000e+00 
2.0000000e+00 0.0000000e+00 0.0000000e+00 
3.0000000e+00 0.0000000e+00 0.0000000e+00 
4.0000000e+00 0.0000000e+00 0.0000000e+00 
5.0000000e+00 0.0000000e+00 0.0000000e+00 
6.0000000e+00 0.0000000e+00 0.0000000e+00 
7.0000000e+00 0.0000000e+00 0.0000000e+00 
8.0000000e+00 0.0000000e+00 0.0000000e+00 
9.0000000e+00 0.0000000e+00 0.0000000e+00 
1.0000000e+01 0.0000000e+00 0.0000000e+00 
1.1000000e+01 0.0000000e+00 0.0000000e+00 
1.2000000e+01 0.0000000e+00 0.0000000e+00 
1.3000000e+01 0.0000000e+00 0.0000000e+00 
1.4000000e+01 0.0000000e+00 0.0000000e+00 
1.5000000e+01 0.0000000e+00 0.0000000e+00 
1.6000000e+01 0.0000000e+00 0.0000000e+00 
1.7000000e+01 0.0000000e+00 0.0000000e+00 
1.8000000e+01 0.0000000e+00 0.0000000e+00 
1.9000000e+01 0.0000000e+00 0.0000000e+00 
5.0000000e-01 0.0000000e+00 0.0000000e+00 
1.5000000e+00 0.0000000e+00 0.0000000e+00 
2.5000000e+00 0.0000000e+00 0.0000000e+00 
3.5000000e+00 0.0000000e+00 0.0000000e+00 
4.5000000e+00 0.0000000e+00 0.0000000e+00 
5.5000000e+00 0.0000000e+00 0.0000000e+00 
6.5000000e+00 0.0000000e+00 0.0000000e+00 
7.5000000e+00 0.0000000e+00 0.0000000e+00 
8.5000000e+00 0.0000000e+00 0.0000000e+00 
9.5000000e+00 0.0000000e+00 0.0000000e+00 
1.0500000e+01 0.0000000e+00 0.0000000e+00 
1.1500000e+01 0.0000000e+00 0.0000000e+00 
1.2500000e+01 0.0000000e+00 0.0000000e+00 
1.3500000e+01 0.0000000e+00 0.0000000e+00 
1.4500000e+01 0.0000000e+00 0.0000000e+00 
1.5500000e+01 0.0000000e+00 0.0000000e+00 
1.6500000e+01 0.0000000e+00 0.0000000e+00 
1.7500000e+01 0.0000000e+00 0.0000000e+00 
1.8500000e+01 0.0000000e+00 0.0000000e+00 
1.9500000e+01 0.0000000e+00 0.0000000e+00 
2.0000000e+01 1.0000000e+00 0.0000000e+00 
2.0000000e+01 2.0000000e+00 0.0000000e+00 
2.0000000e+01 3.0000000e+00 0.0000000e+00 
2.0000000e+01 4.0000000e+00 0.0000000e+00 
2.0000000e+01 5.0000000e+00 0.0000000e+00 
2.0000000e+01 6.0000000e+00 0.0000000e+00 
2.0000000e+01 7.0000000e+00 0.0000000e+00 
2.0000000e+01 8.0000000e+00 0.0000000e+00 
2.0000000e+01 9.0000000e+00 0.0000000e+00 
2.0000000e+01 5.0000000e-01 0.0000000e+00 
2.0000000e+01 1.5000000e+00 0.0000000e+00 
2.0000000e+01 2.5000000e+00 0.0000000e+00 
2.0000000e+01 3.5000000e+00 0.0000000e+00 
2.0000000e+01 4.5000000e+00 0.0000000e+00 
2.0000000e+01 5.5000000e+00 0.0000000e+00 
2.0000000e+01 6.5000000e+00 0.0000000e+00 
2.0000000e+01 7.5000000e+00 0.0000000e+00 
2.0000000e+01 8.5000000e+00 0.0000000e+00 
2.0000000e+01 9.5000000e+00 0.0000000e+00 
0.0000000e+00 9.0000000e+00 0.0000000e+00 
0.0000000e+00 8.0000000e+00 0.0000000e+00 
0.0000000e+00 7.0000000e+00 0.0000000e+00 
0.0000000e+00 6.0000000e+00 0.0000000e+00 
0.0000000e+00 5.0000000e+00 0.0000000e+00 
0.0000000e+00 4.0000000e+00 0.0000000e+00 
0.0000000e+00 3.0000000e+00 0.0000000e+00 
0.0000000e+00 2.0000000e+00 0.0000000e+00 
0.0000000e+00 1.0000000e+00 0.0000000e+00 
0.0000000e+00 9.5000000e+00 0.0000000e+00 
0.0000000e+00 8.5000000e+00 0.0000000e+00 
0.0000000e+00 7.5000000e+00 0.0000000e+00 
0.0000000e+00 6.5000000e+00 0.0000000e+00 
0.0000000e+00 5.5000000e+00 0.0000000e+00 
0.0000000e+00 4.5000000e+00 0.0000000e+00 
0.0000000e+00 3.5000000e+00 0.0000000e+00 
0.0000000e+00 2.5000000e+00 0.0000000e+00 
0.0000000e+00 1.5000000e+00 0.0000000e+00 
0.0000000e+00 5.0000000e-01 0.0000000e+00 
5.0000000e-01 1.0000000e+01 0.0000000e+00 
6.0000000e+00 1.0000000e+01 0.0000000e+00 
7.0000000e+00 1.0000000e+01 0.0000000e+00 
8.0000000e+00 1.0000000e+01 0.0000000e+00 
9.0000000e+00 1.0000000e+01 0.0000000e+00 
5.5000000e+00 1.0000000e+01 0.0000000e+00 
6.5000000e+00 1.0000000e+01 0.0000000e+00 
7.5000000e+00 1.0000000e+01 0.0000000e+00 
8.5000000e+00 1.0000000e+01 0.0000000e+00 
9.5000000e+00 1.0000000e+01 0.0000000e+00 
1.1000000e+01 1.0000000e+01 0.0000000e+00 
1.2000000e+01 1.0000000e+01 0.0000000e+00 
1.3000000e+01 1.0000000e+01 0.0000000e+00 
1.4000000e+01 1.0000000e+01 0.0000000e+00 
1.0500000e+01 1.0000000e+01 0.0000000e+00 
1.1500000e+01 1.0000000e+01 0.0000000e+00 
1.2500000e+01 1.0000000e+01 0.0000000e+00 
1.3500000e+01 1.0000000e+01 0.0000000e+00 
1.4500000e+01 1.0000000e+01 0.0000000e+00 
1.9000000e+01 1.0000000e+01 0.0000000e+00 
1.8000000e+01 1.0000000e+01 0.0000000e+00 
1.7000000e+01 1.0000000e+01 0.0000000e+00 
1.6000000e+01 1.0000000e+01 0.0000000e+00 
1.9500000e+01 1.0000000e+01 0.0000000e+00 
1.8500000e+01 1.0000000e+01 0.0000000e+00 
1.7500000e+01 1.0000000e+01 0.0000000e+00 
1.6500000e+01 1.0000000e+01 0.0000000e+00 
1.5500000e+01 1.0000000e+01 0.0000000e+00 
4.0000000e+00 1.0000000e+01 0.0000000e+00 
3.0000000e+00 1.0000000e+01 0.0000000e+00 
2.0000000e+00 1.0000000e+01 0.0000000e+00 
4.5000000e+00 1.0000000e+01 0.0000000e+00 
3.5000000e+00 1.0000000e+01 0.0000000e+00 
2.5000000e+00 1.0000000e+01 0.0000000e+00 
1.5000000e+00 1.0000000e+01 0.0000000e+00 
9.5000000e+00 9.1339750e+00 0.0000000e+00 
1.4500000e+01 9.1339750e+00 0.0000000e+00 
5.5000000e+00 9.1339750e+00 0.0000000e+00 
7.5000000e+00 8.6602539e-01 0.0000000e+00 
1.1500000e+01 8.6602539e-01 0.0000000e+00 
1.4500000e+01 8.6602539e-01 0.0000000e+00 
4.5246964e+00 8.5176694e-01 0.0000000e+00 
1.9059727e+01 4.6363034e+00 0.0000000e+00 
8.4778279e-01 5.4684029e+00 0.0000000e+00 
7.5000000e+00 9.1339750e+00 0.0000000e+00 
1.1500000e+01 9.1339750e+00 0.0000000e+00 
1.6500000e+01 9.1339750e+00 0.0000000e+00 
3.5000000e+00 9.1339750e+00 0.0000000e+00 
9.5000000e+00 8.6602539e-01 0.0000000e+00 
1.6500000e+01 8.6602539e-01 0.0000000e+00 
8.6602539e-01 3.5000000e+00 0.0000000e+00 
1.9111458e+01 6.5092020e+00 0.0000000e+00 
8.9629614e-01 7.5867257e+00 0.0000000e+00 
1.9112749e+01 2.5204153e+00 0.0000000e+00 
2.5402119e+00 7.9592258e-01 0.0000000e+00 
1.9094303e+01 8.4081745e+00 0.0000000e+00 
1.5042374e+00 9.1532278e+00 0.0000000e+00 
8.2949740e-01 1.5059323e+00 0.0000000e+00 
1.8445559e+01 9.5495284e-01 0.0000000e+00 
4.5000000e+00 9.1339750e+00 0.0000000e+00 
5.0000000e+00 8.2679491e+00 0.0000000e+00 
6.0000000e+00 8.2679491e+00 0.0000000e+00 
5.5000000e+00 7.4019237e+00 0.0000000e+00 
6.5000000e+00 7.4019237e+00 0.0000000e+00 
6.0000000e+00 6.5358982e+00 0.0000000e+00 
7.0000000e+00 6.5358982e+00 0.0000000e+00 
6.5000000e+00 5.6698728e+00 0.0000000e+00 
7.5000000e+00 5.6698728e+00 0.0000000e+00 
5.5000000e+00 5.6698728e+00 0.0000000e+00 
6.0000000e+00 4.8038478e+00 0.0000000e+00 
5.0000000e+00 4.8038478e+00 0.0000000e+00 
4.5000000e+00 5.6698728e+00 0.0000000e+00 
4.0000000e+00 4.8038478e+00 0.0000000e+00 
5.5000000e+00 3.9378221e+00 0.0000000e+00 
6.5000000e+00 3.9378221e+00 0.0000000e+00 
8.0000000e+00 6.5358982e+00 0.0000000e+00 
8.5000000e+00 5.6698728e+00 0.0000000e+00 
9.0000000e+00 6.5358982e+00 0.0000000e+00 
9.5000000e+00 5.6698728e+00 0.0000000e+00 
9.0000000e+00 4.8038478e+00 0.0000000e+00 
1.0000000e+01 4.8038478e+00 0.0000000e+00 
1.0500000e+01 5.6698728e+00 0.0000000e+00 
1.1000000e+01 4.8038478e+00 0.0000000e+00 
1.1500000e+01 5.6698728e+00 0.0000000e+00 
1.2000000e+01 4.8038478e+00 0.0000000e+00 
1.2500000e+01 5.6698728e+00 0.0000000e+00 
1.3000000e+01 4.8038478e+00 0.0000000e+00 
1.3500000e+01 5.6698728e+00 0.0000000e+00 
1.4000000e+01 4.8038478e+00 0.0000000e+00 
1.4500000e+01 5.6698728e+00 0.0000000e+00 
1.5000000e+01 4.8038478e+00 0.0000000e+00 
1.5500000e+01 5.6698728e+00 0.0000000e+00 
1.3500000e+01 3.9378221e+00 0.0000000e+00 
1.0500000e+01 3.9378221e+00 0.0000000e+00 
1.6000000e+01 4.8038478e+00 0.0000000e+00 
1.5500000e+01 3.9378221e+00 0.0000000e+00 
1.3000000e+01 6.5358982e+00 0.0000000e+00 
1.6500000e+01 3.9378221e+00 0.0000000e+00 
6.0246964e+00 3.0860553e+00 0.0000000e+00 
3.5000000e+00 5.6698728e+00 0.0000000e+00 
1.6500000e+01 5.6698728e+00 0.0000000e+00 
1.6000000e+01 6.5358982e+00 0.0000000e+00 
1.1000000e+01 6.5358982e+00 0.0000000e+00 
5.0288124e+00 3.1213744e+00 0.0000000e+00 
7.0041161e+00 3.0741732e+00 0.0000000e+00 
2.9553418e+00 4.8365397e+00 0.0000000e+00 
1.6000000e+01 3.0717967e+00 0.0000000e+00 
1.7000000e+01 6.5358982e+00 0.0000000e+00 
1.7000000e+01 3.0717967e+00 0.0000000e+00 
8.5000000e+00 7.4019237e+00 0.0000000e+00 
3.4925570e+00 3.9432709e+00 0.0000000e+00 
9.5000000e+00 7.4019237e+00 0.0000000e+00 
4.5000000e+00 7.4019237e+00 0.0000000e+00 
1.5000000e+01 3.0717967e+00 0.0000000e+00 
1.7507488e+01 5.6669536e+00 0.0000000e+00 
6.5107503e+00 2.2357147e+00 0.0000000e+00 
1.5500000e+01 2.2057714e+00 0.0000000e+00 
1.7482849e+01 3.9478383e+00 0.0000000e+00 
2.4838426e+00 5.7012835e+00 0.0000000e+00 
2.9973071e+00 6.5411334e+00 0.0000000e+00 
1.6500000e+01 7.4019237e+00 0.0000000e+00 
1.5500000e+01 7.4019237e+00 0.0000000e+00 
1.7500000e+01 7.4019237e+00 0.0000000e+00 
7.5006862e+00 3.9382184e+00 0.0000000e+00 
8.0008001e+00 3.0722589e+00 0.0000000e+00 
2.4646075e+00 3.9872341e+00 0.0000000e+00 
3.0000000e+00 3.0717967e+00 0.0000000e+00 
2.0000000e+00 6.5358982e+00 0.0000000e+00 
2.5285575e+00 7.3860493e+00 0.0000000e+00 
1.4500000e+01 2.2057714e+00 0.0000000e+00 
1.8143080e+01 3.0350568e+00 0.0000000e+00 
1.7489780e+01 2.2149704e+00 0.0000000e+00 
1.8901860e+00 3.0475340e+00 0.0000000e+00 
2.5122623e+00 2.2156274e+00 0.0000000e+00 
3.5267401e+00 2.3241744e+00 0.0000000e+00 
1.6000000e+01 8.2679491e+00 0.0000000e+00 
1.5000000e+01 8.2679491e+00 0.0000000e+00 
1.4500000e+01 7.4019237e+00 0.0000000e+00 
1.4000000e+01 8.2679491e+00 0.0000000e+00 
1.3500000e+01 9.1339750e+00 0.0000000e+00 
1.3000000e+01 8.2679491e+00 0.0000000e+00 
9.0000000e+00 8.2679491e+00 0.0000000e+00 
1.0000000e+01 8.2679491e+00 0.0000000e+00 
1.8026423e+01 6.5280433e+00 0.0000000e+00 
1.8507418e+01 7.4261799e+00 0.0000000e+00 
[...]
POINT_DATA 1029
FIELD FieldData 1
VELOCITY 3 1029  float
0.0000000e+00 0.0000000e+00 0.0000000e+00 
0.0000000e+00 0.0000000e+00 0.0000000e+00 
0.0000000e+00 3.7286023e-03 0.0000000e+00 
0.0000000e+00 -3.8732457e-01 0.0000000e+00 
2.5139203e-02 -4.2480299e-01 0.0000000e+00 
1.0659723e-02 -7.2452360e-01 0.0000000e+00 
-4.1452613e-02 -6.9316424e-02 0.0000000e+00 
5.2417308e-04 2.9665788e-03 0.0000000e+00 
0.0000000e+00 0.0000000e+00 0.0000000e+00 
0.0000000e+00 0.0000000e+00 0.0000000e+00 
0.0000000e+00 0.0000000e+00 0.0000000e+00 
0.0000000e+00 0.0000000e+00 0.0000000e+00 
0.0000000e+00 0.0000000e+00 0.0000000e+00 
0.0000000e+00 0.0000000e+00 0.0000000e+00 
0.0000000e+00 0.0000000e+00 0.0000000e+00 
0.0000000e+00 0.0000000e+00 0.0000000e+00 
0.0000000e+00 0.0000000e+00 0.0000000e+00 
0.0000000e+00 0.0000000e+00 0.0000000e+00 
0.0000000e+00 0.0000000e+00 0.0000000e+00 
0.0000000e+00 0.0000000e+00 0.0000000e+00 
0.0000000e+00 0.0000000e+00 0.0000000e+00 
0.0000000e+00 0.0000000e+00 0.0000000e+00 
0.0000000e+00 0.0000000e+00 0.0000000e+00 
0.0000000e+00 0.0000000e+00 0.0000000e+00 
0.0000000e+00 0.0000000e+00 0.0000000e+00 
0.0000000e+00 0.0000000e+00 0.0000000e+00 
0.0000000e+00 0.0000000e+00 0.0000000e+00 
0.0000000e+00 0.0000000e+00 0.0000000e+00 
0.0000000e+00 0.0000000e+00 0.0000000e+00 
0.0000000e+00 0.0000000e+00 0.0000000e+00 
0.0000000e+00 0.0000000e+00 0.0000000e+00 
0.0000000e+00 0.0000000e+00 0.0000000e+00 
0.0000000e+00 0.0000000e+00 0.0000000e+00 
0.0000000e+00 0.0000000e+00 0.0000000e+00 
0.0000000e+00 0.0000000e+00 0.0000000e+00 
0.0000000e+00 0.0000000e+00 0.0000000e+00 
0.0000000e+00 0.0000000e+00 0.0000000e+00 
0.0000000e+00 0.0000000e+00 0.0000000e+00 
0.0000000e+00 0.0000000e+00 0.0000000e+00 
0.0000000e+00 0.0000000e+00 0.0000000e+00 
0.0000000e+00 0.0000000e+00 0.0000000e+00 
0.0000000e+00 0.0000000e+00 0.0000000e+00 
0.0000000e+00 0.0000000e+00 0.0000000e+00 
0.0000000e+00 0.0000000e+00 0.0000000e+00 
0.0000000e+00 0.0000000e+00 0.0000000e+00 
0.0000000e+00 0.0000000e+00 0.0000000e+00 
0.0000000e+00 0.0000000e+00 0.0000000e+00 
0.0000000e+00 4.5386355e-04 0.0000000e+00 
0.0000000e+00 -1.2159846e-03 0.0000000e+00 
0.0000000e+00 1.0401095e-02 0.0000000e+00 
0.0000000e+00 -1.8309118e-02 0.0000000e+00 
0.0000000e+00 -6.9750324e-03 0.0000000e+00 
0.0000000e+00 -1.1319757e-02 0.0000000e+00 
0.0000000e+00 -4.4938631e-02 0.0000000e+00 
0.0000000e+00 1.8902704e-02 0.0000000e+00 
0.0000000e+00 1.4114054e-02 0.0000000e+00 
0.0000000e+00 -2.8457653e-02 0.0000000e+00 
0.0000000e+00 7.5985985e-03 0.0000000e+00 
0.0000000e+00 9.0609360e-03 0.0000000e+00 
0.0000000e+00 -3.4312024e-03 0.0000000e+00 
0.0000000e+00 -1.1105691e-03 0.0000000e+00 
0.0000000e+00 -3.2784078e-02 0.0000000e+00 
0.0000000e+00 -1.4174705e-02 0.0000000e+00 
0.0000000e+00 -2.8264182e-04 0.0000000e+00 
0.0000000e+00 9.5830252e-03 0.0000000e+00 
0.0000000e+00 3.6231133e-03 0.0000000e+00 
0.0000000e+00 -4.3851709e-01 0.0000000e+00 
0.0000000e+00 -3.8896632e-01 0.0000000e+00 
0.0000000e+00 -3.7740642e-01 0.0000000e+00 
0.0000000e+00 -5.3066987e-01 0.0000000e+00 
0.0000000e+00 -3.6209950e-01 0.0000000e+00 
0.0000000e+00 -6.7737591e-01 0.0000000e+00 
0.0000000e+00 3.7313528e-02 0.0000000e+00 
0.0000000e+00 1.4335136e-01 0.0000000e+00 
0.0000000e+00 2.8974395e-02 0.0000000e+00 
0.0000000e+00 -4.4398701e-01 0.0000000e+00 
0.0000000e+00 -3.7125263e-01 0.0000000e+00 
0.0000000e+00 -4.4607526e-01 0.0000000e+00 
0.0000000e+00 -4.1867489e-01 0.0000000e+00 
0.0000000e+00 -4.2951080e-01 0.0000000e+00 
0.0000000e+00 -5.9058064e-01 0.0000000e+00 
0.0000000e+00 -3.5393554e-01 0.0000000e+00 
0.0000000e+00 1.9692855e-01 0.0000000e+00 
0.0000000e+00 3.7153225e-02 0.0000000e+00 
0.0000000e+00 5.2798551e-02 0.0000000e+00 
2.5954001e-02 -3.8951218e-01 0.0000000e+00 
-2.0790477e-01 -1.0950739e+00 0.0000000e+00 
-8.5432643e-01 -6.3581795e-01 0.0000000e+00 
-6.8492448e-01 3.4349105e-01 0.0000000e+00 
-7.7313200e-02 2.7101269e-01 0.0000000e+00 
-6.2619746e-02 -9.0316212e-01 0.0000000e+00 
-5.3724825e-01 -1.0767847e+00 0.0000000e+00 
-9.1219413e-01 -5.4028004e-02 0.0000000e+00 
-2.9475158e-01 4.5639747e-01 0.0000000e+00 
-5.3544056e-02 1.9524930e-02 0.0000000e+00 
-3.8182981e-02 7.7195920e-02 0.0000000e+00 
1.4623152e-01 -4.8143730e-02 0.0000000e+00 
1.0738086e-01 7.1723960e-02 0.0000000e+00 
1.4683724e-02 -3.0781351e-02 0.0000000e+00 
-5.3438779e-02 -1.3604016e-03 0.0000000e+00 
9.0615168e-02 2.7284218e-02 0.0000000e+00 
9.9947102e-02 2.0458627e-02 0.0000000e+00 
6.9512099e-02 8.1374114e-03 0.0000000e+00 
5.6622638e-03 2.3604585e-02 0.0000000e+00 
1.1985747e-02 -4.8222477e-03 0.0000000e+00 
1.3547422e-03 -2.3542320e-02 0.0000000e+00 
-1.4443583e-02 5.7588490e-03 0.0000000e+00 
2.7932506e-03 4.2653281e-02 0.0000000e+00 
-4.5157177e-03 4.3963171e-03 0.0000000e+00 
-7.8876410e-03 1.5247747e-02 0.0000000e+00 
1.8044123e-02 1.9302471e-02 0.0000000e+00 
-3.0160188e-03 -8.8523496e-03 0.0000000e+00 
-6.9071813e-03 -3.3121470e-02 0.0000000e+00 
-2.6529798e-02 -5.1814371e-01 0.0000000e+00 
2.1215884e-02 -4.5033580e-01 0.0000000e+00 
-2.0922380e-02 -4.3537420e-01 0.0000000e+00 
5.5163959e-03 -6.3668317e-01 0.0000000e+00 
-2.4594633e-02 -4.7332782e-01 0.0000000e+00 
3.0637810e-03 -4.1713965e-01 0.0000000e+00 
-2.4545591e-03 -3.6370066e-01 0.0000000e+00 
-1.6894884e-01 1.2498192e-01 0.0000000e+00 
4.1869087e-03 1.2471141e-02 0.0000000e+00 
-2.4978916e-01 -8.9208668e-01 0.0000000e+00 
4.0046337e-01 -1.7463590e-01 0.0000000e+00 
3.2584596e-02 3.8252007e-02 0.0000000e+00 
-1.3269269e-02 2.7821604e-02 0.0000000e+00 
-1.7268840e-02 1.3072111e-01 0.0000000e+00 
-1.2291457e-02 9.9367313e-03 0.0000000e+00 
-2.8049652e-02 -4.8775008e-01 0.0000000e+00 
-3.1753457e-01 -1.4679910e-01 0.0000000e+00 
8.8370785e-02 1.1379217e-01 0.0000000e+00 
-3.0981917e-03 1.6502298e-04 0.0000000e+00 
-3.4557030e-02 -5.0685239e-01 0.0000000e+00 
1.8018299e-01 -1.5983403e-01 0.0000000e+00 
3.0108331e-02 -5.3206203e-03 0.0000000e+00 
-1.0299879e-01 -4.7071430e-01 0.0000000e+00 
5.3402712e-04 -2.4889747e-02 0.0000000e+00 
-4.6054766e-02 -4.2410696e-01 0.0000000e+00 
-6.3767550e-03 -7.4909539e-03 0.0000000e+00 
7.2487988e-02 1.2327306e-01 0.0000000e+00 
1.2318159e-02 5.5462052e-03 0.0000000e+00 
-1.2071197e-02 -4.2293590e-01 0.0000000e+00 
1.6666874e-02 -9.2436738e-02 0.0000000e+00 
-1.8589072e-02 -5.3330995e-03 0.0000000e+00 
-7.8892566e-02 -6.1572087e-01 0.0000000e+00 
-2.4096802e-01 -7.6621485e-01 0.0000000e+00 
-1.8839379e-01 -9.9270451e-01 0.0000000e+00 
-1.7150697e-01 -8.6192375e-01 0.0000000e+00 
-1.5752952e-01 -7.8871769e-01 0.0000000e+00 
-2.2815572e-01 -8.5033870e-01 0.0000000e+00 
-8.3316997e-02 -4.5166966e-01 0.0000000e+00 
-6.5328315e-02 -5.4030162e-01 0.0000000e+00 
1.7628184e-01 9.1731049e-02 0.0000000e+00 
-2.7783087e-01 -8.1348515e-01 0.0000000e+00 
-7.3236838e-02 -5.9175956e-01 0.0000000e+00 
-2.1973102e-01 -8.2925898e-01 0.0000000e+00 
-2.1161945e-01 -7.3686785e-01 0.0000000e+00 
-2.2604354e-01 -6.7092484e-01 0.0000000e+00 
-1.0145861e-02 -4.3802741e-01 0.0000000e+00 
3.6621520e-01 7.6350883e-02 0.0000000e+00 
7.7228934e-02 2.7817482e-01 0.0000000e+00 
1.7712192e-01 2.4077916e-01 0.0000000e+00 
5.6865755e-02 2.3165914e-01 0.0000000e+00 
1.0841410e-01 5.8225747e-02 0.0000000e+00 
1.7461607e-01 2.9885700e-02 0.0000000e+00 
2.0019870e-01 1.1599236e-02 0.0000000e+00 
1.5255439e-01 7.2181322e-02 0.0000000e+00 
2.1503755e-01 -1.0474504e-01 0.0000000e+00 
1.8645528e-01 -7.3660791e-02 0.0000000e+00 
1.4396659e-01 -9.6706627e-03 0.0000000e+00 
1.0183866e-01 2.4399519e-02 0.0000000e+00 
4.4175986e-02 -2.2128042e-02 0.0000000e+00 
1.6401377e-02 -2.3087924e-02 0.0000000e+00 
-2.9259054e-02 2.1874546e-03 0.0000000e+00 
2.0647810e-03 -1.4263987e-02 0.0000000e+00 
1.5553008e-02 8.8493293e-03 0.0000000e+00 
1.0485191e-02 1.1789585e-02 0.0000000e+00 
-2.7564239e-02 1.7599007e-02 0.0000000e+00 
2.5183091e-01 -1.0033162e-01 0.0000000e+00 
-7.2506345e-03 -6.1025191e-03 0.0000000e+00 
2.0129111e-02 8.5085789e-03 0.0000000e+00 
7.4169546e-02 4.6627651e-05 0.0000000e+00 
-3.6987001e-03 1.2419546e-02 0.0000000e+00 
5.9282666e-01 -7.5560257e-02 0.0000000e+00 
-1.3725705e-01 -6.4531153e-01 0.0000000e+00 
-1.2523949e-02 1.5211430e-03 0.0000000e+00 
1.3186586e-02 2.2383904e-02 0.0000000e+00 
1.0710075e-01 8.8178150e-02 0.0000000e+00 
2.4848540e-01 -4.1836104e-01 0.0000000e+00 
3.5821569e-01 -8.9094833e-02 0.0000000e+00 
-1.5919420e-01 -4.9785283e-01 0.0000000e+00 
-6.5398152e-04 -2.5208446e-03 0.0000000e+00 
8.6353468e-03 4.3366477e-02 0.0000000e+00 
-3.3612612e-03 -9.8871416e-04 0.0000000e+00 
-3.4970984e-02 2.9255453e-01 0.0000000e+00 
-2.0167224e-01 -8.0669200e-01 0.0000000e+00 
-1.9239139e-02 1.6503875e-01 0.0000000e+00 
-1.4518279e-01 -6.5875477e-01 0.0000000e+00 
-6.6880784e-03 -1.4725973e-02 0.0000000e+00 
-8.3443196e-03 -2.4509326e-02 0.0000000e+00 
2.0178784e-01 -1.5393102e-01 0.0000000e+00 
1.4288741e-03 -1.4276888e-02 0.0000000e+00 
-1.1915774e-02 -7.9483092e-03 0.0000000e+00 
-6.3219443e-02 -5.7485896e-01 0.0000000e+00 
-9.5393695e-02 -5.0092810e-01 0.0000000e+00 
-4.4223364e-03 -2.6881039e-02 0.0000000e+00 
-1.5368512e-02 -7.3322426e-03 0.0000000e+00 
8.0238814e-03 5.0748531e-03 0.0000000e+00 
3.8496149e-01 3.2075260e-02 0.0000000e+00 
2.5080445e-01 -3.7143681e-02 0.0000000e+00 
-1.4508614e-01 -7.4394614e-01 0.0000000e+00 
-2.1697544e-01 -4.9421751e-01 0.0000000e+00 
-3.4651145e-02 -4.4593441e-01 0.0000000e+00 
-9.6301146e-02 -4.8330402e-01 0.0000000e+00 
7.9415040e-03 3.1167179e-02 0.0000000e+00 
-1.0243644e-05 -1.6376508e-02 0.0000000e+00 
1.0107185e-02 2.9719677e-02 0.0000000e+00 
-1.0091583e-01 -2.4568647e-01 0.0000000e+00 
2.0075877e-01 1.2507950e-01 0.0000000e+00 
4.5966181e-01 7.0907557e-03 0.0000000e+00 
1.4398955e-02 -1.3338094e-02 0.0000000e+00 
1.0649147e-02 -1.1127954e-02 0.0000000e+00 
2.9806292e-04 3.3809867e-02 0.0000000e+00 
1.1258360e-02 1.3531551e-02 0.0000000e+00 
4.0473051e-02 -5.6541875e-02 0.0000000e+00 
7.4359328e-02 1.9382516e-02 0.0000000e+00 
-1.6414906e-01 2.9555747e-01 0.0000000e+00 
-6.3693225e-02 4.8337307e-02 0.0000000e+00 
-5.7998532e-03 1.1326165e-02 0.0000000e+00 
1.2096389e-02 1.7539872e-02 0.0000000e+00 
-6.9025946e-03 -1.8942742e-02 0.0000000e+00 
6.1140885e-03 -1.1470200e-02 0.0000000e+00 
2.0351969e-02 3.4752232e-03 0.0000000e+00 
-1.7298545e-01 -6.0495782e-01 0.0000000e+00 
-1.3660616e-02 -3.7975464e-02 0.0000000e+00 
-7.6207070e-04 1.8757733e-02 0.0000000e+00 
1.5770605e-01 -8.1839822e-02 0.0000000e+00 
1.0395630e-01 2.0151442e-02 0.0000000e+00 
-2.9736875e-02 -3.7037313e-02 0.0000000e+00 
1.1689250e-01 -4.2080354e-02 0.0000000e+00 
2.8616205e-01 -1.6188306e-01 0.0000000e+00 
3.4296870e-01 -1.8991187e-01 0.0000000e+00 
2.7665818e-01 -8.6295545e-02 0.0000000e+00 
3.0937615e-01 -1.8000902e-01 0.0000000e+00 
-3.4941718e-02 -5.0953481e-02 0.0000000e+00 
1.2209061e-02 7.9954891e-03 0.0000000e+00 
-3.4593618e-01 -1.0136452e+00 0.0000000e+00 
-2.7617091e-01 4.6903321e-01 0.0000000e+00 
-2.5537498e-02 -4.3609142e-01 0.0000000e+00 
-1.7156306e-01 2.3363738e-01 0.0000000e+00 
6.0387105e-02 1.1803396e-01 0.0000000e+00 
1.1587968e-01 -2.8732779e-02 0.0000000e+00 
3.7009621e-03 -4.0835543e-03 0.0000000e+00 
-5.5172392e-03 -4.3661618e-03 0.0000000e+00 
4.3506905e-01 -3.1606591e-01 0.0000000e+00 
-1.8782826e-02 -1.5778011e-02 0.0000000e+00 
-1.5451252e-02 -1.4690194e-02 0.0000000e+00 
1.7822519e-01 -6.0443878e-02 0.0000000e+00 
1.8705654e-01 -9.6851856e-02 0.0000000e+00 
5.2041214e-02 -1.1225825e-02 0.0000000e+00 
1.7137127e-02 -4.2756174e-02 0.0000000e+00 
1.1639224e-02 2.5226578e-02 0.0000000e+00 
-5.8720004e-02 -2.3181746e-02 0.0000000e+00 
1.2346025e-01 3.0968443e-01 0.0000000e+00 
4.5814416e-01 1.6567157e-01 0.0000000e+00 
2.2503674e-01 1.2793672e-01 0.0000000e+00 
-3.6228318e-02 -1.5315554e-02 0.0000000e+00 
-3.4172557e-02 -4.4637214e-02 0.0000000e+00 
3.9839029e-02 -8.4208548e-03 0.0000000e+00 
6.7988201e-03 -7.0101675e-04 0.0000000e+00 
-4.2731337e-02 -4.3846166e-01 0.0000000e+00 
-1.6178451e-02 -5.2524990e-01 0.0000000e+00 
-6.9422245e-02 -4.4205371e-01 0.0000000e+00 
2.5079239e-02 1.5251692e-01 0.0000000e+00 
-2.0096032e-01 -7.5539774e-01 0.0000000e+00 
-1.3303356e-01 -1.3297898e-01 0.0000000e+00 
-2.1349022e-01 -7.6231652e-01 0.0000000e+00 
4.9692601e-02 -5.0022960e-02 0.0000000e+00 
2.3768535e-02 -2.1458231e-02 0.0000000e+00 
-1.0698038e-02 4.7331736e-03 0.0000000e+00 
4.7516651e-02 6.8822801e-02 0.0000000e+00 
7.6752320e-02 3.6421183e-02 0.0000000e+00 
-1.5714396e-02 -3.5030324e-02 0.0000000e+00 
2.6857060e-01 1.8817370e-01 0.0000000e+00 
2.6224092e-01 2.5568791e-02 0.0000000e+00 
-2.9437480e-02 1.8538140e-02 0.0000000e+00 
-1.0523901e-01 -5.7753217e-01 0.0000000e+00 
-2.4728759e-01 -6.6564631e-01 0.0000000e+00 
2.2871172e-01 -2.5013922e-02 0.0000000e+00 
1.6931698e-02 -6.4701317e-03 0.0000000e+00 
4.4831611e-02 2.0735566e-02 0.0000000e+00 
-1.2781449e-01 -5.5733949e-01 0.0000000e+00 
-9.4632618e-02 -6.4042765e-01 0.0000000e+00 
-4.0238161e-02 -4.6016797e-01 0.0000000e+00 
-6.6735424e-02 -4.7674620e-01 0.0000000e+00 
2.2885570e-01 7.2500389e-03 0.0000000e+00 
2.9789156e-01 -1.6206275e-01 0.0000000e+00 
1.2097461e-01 1.2761051e-02 0.0000000e+00 
2.1221718e-01 -1.1968295e-01 0.0000000e+00 
-5.2034846e-03 -7.4023972e-03 0.0000000e+00 
9.3089240e-03 -4.3318659e-01 0.0000000e+00 
1.3635586e-01 3.8192201e-02 0.0000000e+00 
-1.0998192e-02 3.7809846e-03 0.0000000e+00 
1.5280060e-02 1.1290505e-01 0.0000000e+00 
2.5064347e-03 -7.6641524e-03 0.0000000e+00 
-8.4674999e-02 -6.2704796e-01 0.0000000e+00 
1.5827468e-02 7.8576375e-03 0.0000000e+00 
5.0744140e-01 3.5878381e-01 0.0000000e+00 
4.9755239e-01 -3.4549009e-02 0.0000000e+00 
-7.7457661e-03 1.2449471e-02 0.0000000e+00 
3.7028372e-01 2.1572393e-01 0.0000000e+00 
2.7022833e-01 -2.0310283e-01 0.0000000e+00 
4.9131876e-01 -1.1830103e-01 0.0000000e+00 
2.7113014e-01 -2.4030985e-01 0.0000000e+00 
2.4819481e-01 -1.8781342e-01 0.0000000e+00 
2.9876988e-02 -3.5187747e-02 0.0000000e+00 
-2.7303359e-02 1.7556632e-02 0.0000000e+00 
4.1579615e-02 -1.4505833e-02 0.0000000e+00 
-3.7478752e-02 2.5846921e-02 0.0000000e+00 
1.5275604e-02 4.0539103e-03 0.0000000e+00 
9.2064431e-03 -2.1846693e-02 0.0000000e+00 
-1.0639885e-02 2.0375136e-02 0.0000000e+00 
5.0384283e-01 -2.4777215e-02 0.0000000e+00 
7.3693401e-01 5.7290379e-02 0.0000000e+00 
-4.2995229e-02 -4.9355438e-01 0.0000000e+00 
-1.1457550e-02 2.5677560e-02 0.0000000e+00 
-7.2503544e-02 -5.4619640e-01 0.0000000e+00 
8.7652383e-03 3.2890655e-02 0.0000000e+00 
-1.7600754e-02 -4.2344290e-01 0.0000000e+00 
5.6519486e-02 -5.9115938e-03 0.0000000e+00 
6.5585212e-03 -1.6044972e-02 0.0000000e+00 
-1.2458377e-03 -1.4324587e-02 0.0000000e+00 
2.2148821e-01 5.8280140e-02 0.0000000e+00 
-1.0741031e-01 -5.1154453e-01 0.0000000e+00 
-6.5388292e-02 -5.8841139e-01 0.0000000e+00 
-1.2094931e-01 -6.1243635e-01 0.0000000e+00 
-1.1216514e-02 -4.0684608e-01 0.0000000e+00 
-1.1286821e-02 -4.5594895e-01 0.0000000e+00 
-3.6015559e-02 -4.3589598e-01 0.0000000e+00 
-3.6348946e-02 -4.1370809e-01 0.0000000e+00 
-5.3345863e-02 -4.9737167e-01 0.0000000e+00 
3.4527269e-03 7.6986580e-05 0.0000000e+00 
2.6538884e-03 5.1272050e-03 0.0000000e+00 
4.8888861e-03 6.6039567e-03 0.0000000e+00 
-3.5258245e-02 -8.4841639e-02 0.0000000e+00 
-1.6870318e-02 2.6753658e-02 0.0000000e+00 
-9.2867196e-02 -2.9810238e-01 0.0000000e+00 
-3.0897064e-03 1.0515320e-02 0.0000000e+00 
-6.8257991e-03 -4.2153555e-03 0.0000000e+00 
-4.8582619e-03 -9.4486158e-03 0.0000000e+00 
-7.3269261e-03 1.0462982e-02 0.0000000e+00 
-6.3985866e-03 -8.0722598e-03 0.0000000e+00 
1.2029241e-02 1.3832555e-02 0.0000000e+00 
-5.9103750e-02 -5.7104141e-01 0.0000000e+00 
-9.9790141e-02 -6.3856024e-01 0.0000000e+00 
-3.1216297e-02 1.3731872e-01 0.0000000e+00 
-2.7830940e-02 3.7250187e-02 0.0000000e+00 
-1.1315398e-03 -1.1992915e-02 0.0000000e+00 
-1.0853015e-02 6.8806633e-03 0.0000000e+00 
-7.3003329e-02 -4.8027179e-01 0.0000000e+00 
-9.2853710e-02 -5.3993201e-01 0.0000000e+00 
9.3680061e-03 4.0816846e-03 0.0000000e+00 
3.1787567e-03 -1.3350132e-02 0.0000000e+00 
-2.7406325e-03 -7.3243957e-03 0.0000000e+00 
8.8574545e-04 -1.9990552e-02 0.0000000e+00 
1.5961940e-03 -8.9252442e-03 0.0000000e+00 
2.9072221e-03 1.5892649e-02 0.0000000e+00 
2.9485766e-04 9.4748205e-03 0.0000000e+00 
3.8722805e-03 1.5376421e-02 0.0000000e+00 
-4.6165151e-04 -1.5113311e-02 0.0000000e+00 
-1.4189835e-01 -4.8090401e-01 0.0000000e+00 
-1.0409587e-01 -6.0129744e-01 0.0000000e+00 
-3.8134362e-04 -8.1748236e-03 0.0000000e+00 
-7.3583373e-03 4.8660599e-03 0.0000000e+00 
-1.8172683e-02 -3.9596277e-01 0.0000000e+00 
-1.7599875e-02 -4.2273435e-01 0.0000000e+00 
-4.5154225e-02 -4.6332011e-01 0.0000000e+00 
-2.7038734e-02 -4.1396293e-01 0.0000000e+00 
-4.7038019e-02 -4.5251864e-01 0.0000000e+00 
-7.0840667e-04 1.6349021e-02 0.0000000e+00 
-5.2167112e-03 -1.9865796e-02 0.0000000e+00 
1.4171734e-01 8.1421427e-02 0.0000000e+00 
4.6700942e-03 6.4898506e-02 0.0000000e+00 
1.3710470e-01 3.3427808e-02 0.0000000e+00 
1.0278680e-01 8.3107084e-02 0.0000000e+00 
-1.8077893e-02 -9.4839215e-02 0.0000000e+00 
-3.6382987e-03 -6.7590079e-03 0.0000000e+00 
4.6723778e-03 7.8982394e-03 0.0000000e+00 
4.4585761e-01 2.7399218e-01 0.0000000e+00 
2.0558093e-01 1.2907994e-01 0.0000000e+00 
1.6756459e-01 2.0333208e-01 0.0000000e+00 
3.7297115e-01 -2.1329807e-01 0.0000000e+00 
6.5907180e-01 9.2154564e-03 0.0000000e+00 
4.5988503e-01 -1.0617067e-01 0.0000000e+00 
-2.8019228e-03 9.6348114e-03 0.0000000e+00 
-5.7469010e-03 -1.6838089e-02 0.0000000e+00 
1.7549500e-02 -2.9666857e-03 0.0000000e+00 
-2.1859754e-03 -5.6530186e-03 0.0000000e+00 
4.4229692e-03 5.8464576e-03 0.0000000e+00 
1.0043040e-02 8.0799684e-03 0.0000000e+00 
-7.2703939e-03 -8.8070044e-03 0.0000000e+00 
-4.1709565e-02 -5.0708532e-01 0.0000000e+00 
-5.6971062e-02 -5.0983244e-01 0.0000000e+00 
3.2745188e-03 3.3176139e-03 0.0000000e+00 
-4.2715124e-03 -4.0968966e-01 0.0000000e+00 
1.6222411e-01 9.0731112e-03 0.0000000e+00 
1.6120917e-01 7.4932337e-02 0.0000000e+00 
-4.2992588e-03 2.8570320e-03 0.0000000e+00 
-8.6351959e-03 -8.5225381e-04 0.0000000e+00 
-1.1833305e-02 -8.1396773e-03 0.0000000e+00 
-5.7785911e-03 1.0914066e-03 0.0000000e+00 
3.3466215e-04 -9.1663431e-03 0.0000000e+00 
7.5166482e-01 1.6140446e-01 0.0000000e+00 
6.3460708e-01 3.9714798e-02 0.0000000e+00 
4.8199773e-01 2.1585295e-01 0.0000000e+00 
6.6921872e-01 2.6956570e-01 0.0000000e+00 
3.7530486e-03 1.8404612e-02 0.0000000e+00 
-8.9891686e-04 -8.2117766e-03 0.0000000e+00 
-1.7031062e-03 1.0251309e-02 0.0000000e+00 
1.2801563e-03 6.0283463e-03 0.0000000e+00 
-4.1585413e-04 -1.5486434e-02 0.0000000e+00 
3.1398577e-03 1.6622270e-02 0.0000000e+00 
-1.1254911e-02 7.6574174e-04 0.0000000e+00 
2.0427785e-03 -9.2766089e-03 0.0000000e+00 
-5.6765549e-04 -8.2667070e-03 0.0000000e+00 
-1.0570050e-03 1.9770421e-02 0.0000000e+00 
2.6834710e-04 -7.0002391e-03 0.0000000e+00 
1.0505363e-02 2.0813253e-02 0.0000000e+00 
-3.9407681e-03 4.2827185e-03 0.0000000e+00 
1.3859129e-01 -6.6500721e-03 0.0000000e+00 
9.3936928e-02 9.0969009e-03 0.0000000e+00 
1.3159370e-01 4.8504109e-03 0.0000000e+00 
7.8231551e-02 2.4528369e-02 0.0000000e+00 
5.2148007e-02 4.7844067e-02 0.0000000e+00 
8.2082339e-02 1.9499166e-02 0.0000000e+00 
1.8456461e-02 -3.2001797e-02 0.0000000e+00 
-1.3245763e-03 -1.6733771e-02 0.0000000e+00 
-3.5225160e-03 -2.0480042e-02 0.0000000e+00 
-5.8298025e-02 -2.8182836e-03 0.0000000e+00 
-8.1334606e-02 -4.2763497e-03 0.0000000e+00 
-9.9766456e-02 9.3831040e-02 0.0000000e+00 
-8.5546868e-03 -1.0506884e-02 0.0000000e+00 
6.5961815e-02 8.4191218e-02 0.0000000e+00 
6.8789728e-02 3.8353845e-02 0.0000000e+00 
-1.1636298e-01 1.5850796e-01 0.0000000e+00 
-1.7128658e-01 2.1520838e-01 0.0000000e+00 
-2.5393394e-01 2.8620139e-01 0.0000000e+00 
-2.4285583e-01 3.5092714e-01 0.0000000e+00 
1.5965402e-02 5.6547025e-04 0.0000000e+00 
2.7975636e-02 -2.2930617e-02 0.0000000e+00 
1.3671901e-02 2.8703180e-03 0.0000000e+00 
1.3063125e-01 -1.5951201e-03 0.0000000e+00 
1.1016774e-01 -2.2191973e-02 0.0000000e+00 