# vtk DataFile Version 4.0
vtk output
ASCII
DATASET UNSTRUCTURED_GRID
POINTS 76 float
0.0000000e+00 0.0000000e+00 0.0000000e+00 
5.0000000e+00 0.0000000e+00 0.0000000e+00 
5.0000000e+00 1.0000000e+00 0.0000000e+00 
0.0000000e+00 1.0000000e+00 0.0000000e+00 
0.0000000e+00 0.0000000e+00 3.0000000e+00 
5.0000000e+00 0.0000000e+00 3.0000000e+00 
5.0000000e+00 1.0000000e+00 3.0000000e+00 
0.0000000e+00 1.0000000e+00 3.0000000e+00 
1.0000000e+00 0.0000000e+00 0.0000000e+00 
2.0000000e+00 0.0000000e+00 0.0000000e+00 
3.0000000e+00 0.0000000e+00 0.0000000e+00 
4.0000000e+00 0.0000000e+00 0.0000000e+00 
4.0000000e+00 1.0000000e+00 0.0000000e+00 
3.0000000e+00 1.0000000e+00 0.0000000e+00 
2.0000000e+00 1.0000000e+00 0.0000000e+00 
1.0000000e+00 1.0000000e+00 0.0000000e+00 
0.0000000e+00 0.0000000e+00 1.0000000e+00 
0.0000000e+00 0.0000000e+00 2.0000000e+00 
5.0000000e+00 0.0000000e+00 1.0000000e+00 
5.0000000e+00 0.0000000e+00 2.0000000e+00 
1.0000000e+00 0.0000000e+00 3.0000000e+00 
2.0000000e+00 0.0000000e+00 3.0000000e+00 
3.0000000e+00 0.0000000e+00 3.0000000e+00 
4.0000000e+00 0.0000000e+00 3.0000000e+00 
5.0000000e+00 1.0000000e+00 1.0000000e+00 
5.0000000e+00 1.0000000e+00 2.0000000e+00 
0.0000000e+00 1.0000000e+00 1.0000000e+00 
0.0000000e+00 1.0000000e+00 2.0000000e+00 
4.0000000e+00 1.0000000e+00 3.0000000e+00 
3.0000000e+00 1.0000000e+00 3.0000000e+00 
2.0000000e+00 1.0000000e+00 3.0000000e+00 
1.0000000e+00 1.0000000e+00 3.0000000e+00 
4.5000000e+00 5.0000000e-01 0.0000000e+00 
5.0000000e-01 5.0000000e-01 0.0000000e+00 
2.5000000e+00 5.0000000e-01 0.0000000e+00 
3.5000000e+00 5.0000000e-01 0.0000000e+00 
1.5000000e+00 5.0000000e-01 0.0000000e+00 
1.5046000e+00 0.0000000e+00 7.6549745e-01 
4.0618000e+00 0.0000000e+00 1.5000000e+00 
2.5000000e+00 0.0000000e+00 2.1339746e+00 
1.5046000e+00 0.0000000e+00 2.2345026e+00 
2.4957771e+00 0.0000000e+00 8.1560516e-01 
3.4700506e+00 0.0000000e+00 7.5794268e-01 
3.4707544e+00 0.0000000e+00 2.2336540e+00 
8.6322361e-01 0.0000000e+00 1.5000000e+00 
2.0000000e+00 0.0000000e+00 1.5000000e+00 
2.9960666e+00 0.0000000e+00 1.4974480e+00 
4.2679491e+00 0.0000000e+00 2.2679491e+00 
4.2679491e+00 0.0000000e+00 7.3205084e-01 
7.2695929e-01 0.0000000e+00 7.2695929e-01 
7.2695929e-01 0.0000000e+00 2.2730408e+00 
5.0000000e+00 5.0000000e-01 5.0000000e-01 
5.0000000e+00 5.0000000e-01 2.5000000e+00 
5.0000000e+00 5.0000000e-01 1.5000000e+00 
3.4954000e+00 1.0000000e+00 7.6549745e-01 
9.3820012e-01 1.0000000e+00 1.5000000e+00 
2.5000000e+00 1.0000000e+00 2.1339746e+00 
3.4954000e+00 1.0000000e+00 2.2345026e+00 
2.5042229e+00 1.0000000e+00 8.1560516e-01 
1.5299494e+00 1.0000000e+00 7.5794268e-01 
1.5292456e+00 1.0000000e+00 2.2336540e+00 
4.1367764e+00 1.0000000e+00 1.5000000e+00 
3.0000000e+00 1.0000000e+00 1.5000000e+00 
2.0039334e+00 1.0000000e+00 1.4974480e+00 
7.3205084e-01 1.0000000e+00 2.2679491e+00 
7.3205084e-01 1.0000000e+00 7.3205084e-01 
4.2730408e+00 1.0000000e+00 7.2695929e-01 
4.2730408e+00 1.0000000e+00 2.2730408e+00 
0.0000000e+00 5.0000000e-01 2.5000000e+00 
0.0000000e+00 5.0000000e-01 1.5000000e+00 
0.0000000e+00 5.0000000e-01 5.0000000e-01 
4.5000000e+00 5.0000000e-01 3.0000000e+00 
1.5000000e+00 5.0000000e-01 3.0000000e+00 
2.5000000e+00 5.0000000e-01 3.0000000e+00 
3.5000000e+00 5.0000000e-01 3.0000000e+00 
5.0000000e-01 5.0000000e-01 3.0000000e+00 

CELLS 184 920
4 40 39 60 73
4 57 43 73 56
4 73 39 60 56
4 39 73 43 56
4 34 13 58 42
4 59 41 9 34
4 21 40 60 73
4 29 43 73 57
4 34 58 41 42
4 41 59 58 34
4 39 40 21 73
4 73 29 57 56
4 30 21 60 73
4 73 22 43 29
4 21 30 60 72
4 74 43 22 29
4 29 74 43 57
4 21 60 40 72
4 10 35 13 42
4 10 13 34 42
4 9 14 59 34
4 14 9 59 36
4 54 13 35 42
4 36 37 9 59
4 58 59 14 34
4 10 34 41 42
4 39 73 22 43
4 60 30 73 56
4 13 54 58 42
4 37 41 9 59
4 45 60 55 40
4 57 38 43 62
4 46 41 58 42
4 59 63 41 58
4 65 37 36 59
4 42 35 54 48
4 40 60 64 72
4 74 47 43 57
4 39 63 60 56
4 55 63 60 45
4 62 38 43 46
4 35 66 54 48
4 36 49 37 65
4 40 64 50 72
4 47 74 67 57
4 37 41 59 45
4 62 58 54 42
4 58 63 41 46
4 56 43 39 62
4 60 45 39 40
4 56 57 43 62
4 67 23 71 28
4 67 74 23 28
4 11 12 66 32
4 12 11 66 35
4 8 15 49 36
4 20 31 50 75
4 31 20 50 72
4 8 15 33 49
4 58 62 46 42
4 59 41 63 45
4 55 44 37 45
4 54 62 38 61
4 66 35 11 48
4 65 36 49 15
4 64 31 50 72
4 74 23 47 67
4 32 66 11 48
4 64 31 75 50
4 71 47 23 67
4 49 33 65 15
4 47 67 53 61
4 53 61 66 48
4 62 57 38 61
4 45 55 44 40
4 63 39 60 45
4 62 43 39 46
4 19 67 25 53
4 24 18 66 51
4 18 24 66 53
4 27 17 50 68
4 16 26 49 70
4 26 16 49 69
4 17 27 50 69
4 67 52 19 25
4 54 38 42 48
4 37 65 55 59
4 47 38 43 57
4 55 60 64 40
4 39 62 63 56
4 61 53 38 48
4 53 38 47 61
4 53 66 18 48
4 64 27 69 50
4 49 65 26 69
4 67 19 47 53
4 41 63 45 46
4 58 62 63 46
4 65 70 49 26
4 27 64 68 50
4 18 66 51 48
4 52 19 47 67
4 65 49 37 55
4 50 55 64 40
4 62 39 63 46
4 39 45 63 46
4 49 44 37 55
4 50 44 55 40
4 12 66 54 35
4 37 8 49 36
4 11 35 42 48
4 15 65 36 59
4 43 23 47 74
4 31 64 60 72
4 28 67 74 57
4 40 50 20 72
4 33 70 49 65
4 71 52 47 67
4 66 32 51 48
4 64 75 68 50
4 19 38 47 53
4 18 38 53 48
4 55 26 65 69
4 27 69 55 64
4 16 44 49 69
4 50 69 44 17
4 53 61 24 66
4 67 25 53 61
4 73 21 39 22
4 29 73 30 56
4 19 38 53 18
4 69 55 26 27
4 75 7 64 68
4 3 70 33 65
4 52 47 5 71
4 51 32 1 48
4 68 75 4 50
4 32 2 66 51
4 70 49 0 33
4 6 52 71 67
4 13 58 14 34
4 41 9 34 10
4 25 53 61 24
4 69 16 44 17
4 30 31 60 72
4 23 43 22 74
4 15 36 14 59
4 42 10 35 11
4 9 8 37 36
4 13 12 54 35
4 21 40 20 72
4 28 74 29 57
4 47 23 5 71
4 11 1 32 48
4 65 33 3 15
4 7 64 31 75
4 67 6 52 25
4 8 0 49 33
4 16 49 0 70
4 20 4 75 50
4 4 68 50 17
4 2 66 12 32
4 67 71 6 28
4 2 24 66 51
4 70 0 3 33
4 75 4 7 68
4 5 6 52 71
4 32 1 2 51
4 7 27 64 68
4 18 51 1 48
4 3 70 65 26
4 47 5 19 52
4 62 42 38 46
4 38 42 62 54
4 45 59 55 63
4 45 55 59 37
4 49 55 69 44
4 69 55 49 65
4 50 55 69 64
4 50 69 55 44
4 61 48 54 66
4 54 48 61 38
4 47 61 57 67
4 57 61 47 38

CELL_TYPES 184
10
10
10
10
10
10
10
10
10
10
10
10
10
10
10
10
10
10
10
10
10
10
10
10
10
10
10
10
10
10
10
10
10
10
10
10
10
10
10
10
10
10
10
10
10
10
10
10
10
10
10
10
10
10
10
10
10
10
10
10
10
10
10
10
10
10
10
10
10
10
10
10
10
10
10
10
10
10
10
10
10
10
10
10
10
10
10
10
10
10
10
10
10
10
10
10
10
10
10
10
10
10
10
10
10
10
10
10
10
10
10
10
10
10
10
10
10
10
10
10
10
10
10
10
10
10
10
10
10
10
10
10
10
10
10
10
10
10
10
10
10
10
10
10
10
10
10
10
10
10
10
10
10
10
10
10
10
10
10
10
10
10
10
10
10
10
10
10
10
10
10
10
10
10
10
10
10
10
10
10
10
10
10
10
POINT_DATA 76
FIELD FieldData 2
DISPLACEMENT 3 76  float
0.0000000e+00 0.0000000e+00 0.0000000e+00 
0.0000000e+00 0.0000000e+00 0.0000000e+00 
0.0000000e+00 0.0000000e+00 0.0000000e+00 
0.0000000e+00 0.0000000e+00 0.0000000e+00 
0.0000000e+00 3.4367528e-07 3.4402586e-07 
0.0000000e+00 -1.9872716e-06 -5.1086943e-07 
0.0000000e+00 -1.5925768e-06 3.3792023e-07 
0.0000000e+00 2.4539651e-07 1.5731210e-07 
0.0000000e+00 0.0000000e+00 0.0000000e+00 
0.0000000e+00 0.0000000e+00 0.0000000e+00 
0.0000000e+00 0.0000000e+00 0.0000000e+00 
0.0000000e+00 0.0000000e+00 0.0000000e+00 
0.0000000e+00 0.0000000e+00 0.0000000e+00 
0.0000000e+00 0.0000000e+00 0.0000000e+00 
0.0000000e+00 0.0000000e+00 0.0000000e+00 
0.0000000e+00 0.0000000e+00 0.0000000e+00 
0.0000000e+00 1.4366898e-07 1.4342926e-07 
0.0000000e+00 3.1721473e-07 3.0943693e-07 
0.0000000e+00 -3.7834977e-07 -2.0613524e-07 
0.0000000e+00 -8.6306835e-07 -3.4161451e-07 
0.0000000e+00 2.8339284e-07 3.1185036e-07 
0.0000000e+00 -3.2711498e-08 1.7525977e-07 
0.0000000e+00 -3.8625200e-07 6.3550580e-08 
0.0000000e+00 -1.3727663e-06 -2.5949774e-07 
0.0000000e+00 -3.4769423e-07 1.2178235e-07 
0.0000000e+00 -8.6612658e-07 2.2834182e-07 
0.0000000e+00 1.5615362e-07 1.2105700e-07 
0.0000000e+00 2.9836181e-07 2.3169800e-07 
0.0000000e+00 -1.1935124e-06 2.4913305e-07 
0.0000000e+00 -4.6216996e-07 2.3659570e-07 
0.0000000e+00 1.7522300e-08 2.3837943e-07 
0.0000000e+00 1.7285723e-07 1.8382578e-07 
0.0000000e+00 0.0000000e+00 0.0000000e+00 
0.0000000e+00 0.0000000e+00 0.0000000e+00 
0.0000000e+00 0.0000000e+00 0.0000000e+00 
0.0000000e+00 0.0000000e+00 0.0000000e+00 
0.0000000e+00 0.0000000e+00 0.0000000e+00 
0.0000000e+00 6.0538177e-08 1.0499673e-07 
0.0000000e+00 -5.5536219e-07 -2.0996102e-07 
0.0000000e+00 -1.6075259e-07 1.0398379e-07 
0.0000000e+00 1.2977155e-07 2.0109717e-07 
0.0000000e+00 -1.0420916e-07 1.1097404e-08 
0.0000000e+00 -2.0203078e-07 -8.3471598e-08 
0.0000000e+00 -5.1671140e-07 -4.4671349e-08 
0.0000000e+00 1.9619159e-07 2.0545707e-07 
0.0000000e+00 -4.2310027e-08 1.0464519e-07 
0.0000000e+00 -2.5664906e-07 7.4013204e-09 
0.0000000e+00 -9.3722963e-07 -2.6997586e-07 
0.0000000e+00 -2.5934349e-07 -1.7375616e-07 
0.0000000e+00 1.1311467e-07 1.2408751e-07 
0.0000000e+00 2.5448773e-07 2.5799753e-07 
0.0000000e+00 -1.4099011e-07 -2.2384246e-08 
0.0000000e+00 -1.2662854e-06 -3.5368490e-08 
0.0000000e+00 -5.9697544e-07 -8.5041904e-08 
0.0000000e+00 -2.3308328e-07 4.9950362e-08 
0.0000000e+00 1.9509680e-07 1.9439456e-07 
0.0000000e+00 -2.0659853e-07 1.2440354e-07 
0.0000000e+00 -5.8448035e-07 1.5219521e-07 
0.0000000e+00 -1.5284112e-07 1.5292420e-08 
0.0000000e+00 1.3441987e-08 6.1229976e-08 
0.0000000e+00 1.5372041e-07 2.4551278e-07 
0.0000000e+00 -5.6034122e-07 9.4486225e-08 
0.0000000e+00 -3.2330595e-07 5.7676655e-08 
0.0000000e+00 -7.7898598e-08 9.2177984e-08 
0.0000000e+00 2.3408344e-07 2.0928330e-07 
0.0000000e+00 1.2463801e-07 1.1772784e-07 
0.0000000e+00 -2.2880970e-07 6.2574898e-08 
0.0000000e+00 -9.3801424e-07 2.2408950e-07 
0.0000000e+00 3.2447898e-07 2.8024624e-07 
0.0000000e+00 2.2300874e-07 1.9053320e-07 
0.0000000e+00 7.7525897e-08 6.8720418e-08 
3.6949846e-08 -1.5106846e-06 -4.8561741e-09 
3.0470126e-08 1.3307269e-07 2.3541585e-07 
2.3899172e-08 -1.8743198e-07 1.7943518e-07 
3.2921193e-08 -8.9390488e-07 5.5879902e-08 
-1.5089499e-08 2.3510292e-07 2.1020082e-07 
TOTAL_DISPLACEMENT 3 76  float
0.0000000e+00 0.0000000e+00 0.0000000e+00 
0.0000000e+00 0.0000000e+00 0.0000000e+00 
0.0000000e+00 0.0000000e+00 0.0000000e+00 
0.0000000e+00 0.0000000e+00 0.0000000e+00 
0.0000000e+00 0.0000000e+00 0.0000000e+00 
0.0000000e+00 0.0000000e+00 0.0000000e+00 
0.0000000e+00 0.0000000e+00 0.0000000e+00 
0.0000000e+00 0.0000000e+00 0.0000000e+00 
0.0000000e+00 0.0000000e+00 0.0000000e+00 
0.0000000e+00 0.0000000e+00 0.0000000e+00 
0.0000000e+00 0.0000000e+00 0.0000000e+00 
0.0000000e+00 0.0000000e+00 0.0000000e+00 
0.0000000e+00 0.0000000e+00 0.0000000e+00 
0.0000000e+00 0.0000000e+00 0.0000000e+00 
0.0000000e+00 0.0000000e+00 0.0000000e+00 
0.0000000e+00 0.0000000e+00 0.0000000e+00 
0.0000000e+00 0.0000000e+00 0.0000000e+00 
0.0000000e+00 0.0000000e+00 0.0000000e+00 
0.0000000e+00 0.0000000e+00 0.0000000e+00 
0.0000000e+00 0.0000000e+00 0.0000000e+00 
0.0000000e+00 0.0000000e+00 0.0000000e+00 
0.0000000e+00 0.0000000e+00 0.0000000e+00 
0.0000000e+00 0.0000000e+00 0.0000000e+00 
0.0000000e+00 0.0000000e+00 0.0000000e+00 
0.0000000e+00 0.0000000e+00 0.0000000e+00 
0.0000000e+00 0.0000000e+00 0.0000000e+00 
0.0000000e+00 0.0000000e+00 0.0000000e+00 
0.0000000e+00 0.0000000e+00 0.0000000e+00 
0.0000000e+00 0.0000000e+00 0.0000000e+00 
0.0000000e+00 0.0000000e+00 0.0000000e+00 
0.0000000e+00 0.0000000e+00 0.0000000e+00 
0.0000000e+00 0.0000000e+00 0.0000000e+00 
0.0000000e+00 0.0000000e+00 0.0000000e+00 
0.0000000e+00 0.0000000e+00 0.0000000e+00 
0.0000000e+00 0.0000000e+00 0.0000000e+00 
0.0000000e+00 0.0000000e+00 0.0000000e+00 
0.0000000e+00 0.0000000e+00 0.0000000e+00 
0.0000000e+00 0.0000000e+00 0.0000000e+00 
0.0000000e+00 0.0000000e+00 0.0000000e+00 
0.0000000e+00 0.0000000e+00 0.0000000e+00 
0.0000000e+00 0.0000000e+00 0.0000000e+00 
0.0000000e+00 0.0000000e+00 0.0000000e+00 
0.0000000e+00 0.0000000e+00 0.0000000e+00 
0.0000000e+00 0.0000000e+00 0.0000000e+00 
0.0000000e+00 0.0000000e+00 0.0000000e+00 
0.0000000e+00 0.0000000e+00 0.0000000e+00 
0.0000000e+00 0.0000000e+00 0.0000000e+00 
0.0000000e+00 0.0000000e+00 0.0000000e+00 
0.0000000e+00 0.0000000e+00 0.0000000e+00 
0.0000000e+00 0.0000000e+00 0.0000000e+00 
0.0000000e+00 0.0000000e+00 0.0000000e+00 
0.0000000e+00 0.0000000e+00 0.0000000e+00 
0.0000000e+00 0.0000000e+00 0.0000000e+00 
0.0000000e+00 0.0000000e+00 0.0000000e+00 
0.0000000e+00 0.0000000e+00 0.0000000e+00 
0.0000000e+00 0.0000000e+00 0.0000000e+00 
0.0000000e+00 0.0000000e+00 0.0000000e+00 
0.0000000e+00 0.0000000e+00 0.0000000e+00 
0.0000000e+00 0.0000000e+00 0.0000000e+00 
0.0000000e+00 0.0000000e+00 0.0000000e+00 
0.0000000e+00 0.0000000e+00 0.0000000e+00 
0.0000000e+00 0.0000000e+00 0.0000000e+00 
0.0000000e+00 0.0000000e+00 0.0000000e+00 
0.0000000e+00 0.0000000e+00 0.0000000e+00 
0.0000000e+00 0.0000000e+00 0.0000000e+00 
0.0000000e+00 0.0000000e+00 0.0000000e+00 
0.0000000e+00 0.0000000e+00 0.0000000e+00 
0.0000000e+00 0.0000000e+00 0.0000000e+00 
0.0000000e+00 0.0000000e+00 0.0000000e+00 
0.0000000e+00 0.0000000e+00 0.0000000e+00 
0.0000000e+00 0.0000000e+00 0.0000000e+00 
0.0000000e+00 0.0000000e+00 0.0000000e+00 
0.0000000e+00 0.0000000e+00 0.0000000e+00 
0.0000000e+00 0.0000000e+00 0.0000000e+00 
0.0000000e+00 0.0000000e+00 0.0000000e+00 
0.0000000e+00 0.0000000e+00 0.0000000e+00 
CELL_DATA 184
FIELD FieldData 0
