# vtk DataFile Version 4.0
vtk output
ASCII
DATASET UNSTRUCTURED_GRID
POINTS 76 float
0.0000000e+00 0.0000000e+00 0.0000000e+00 
5.0000000e+00 0.0000000e+00 0.0000000e+00 
5.0000000e+00 1.0000000e+00 0.0000000e+00 
0.0000000e+00 1.0000000e+00 0.0000000e+00 
0.0000000e+00 0.0000000e+00 3.0000000e+00 
5.0000000e+00 0.0000000e+00 3.0000000e+00 
5.0000000e+00 1.0000000e+00 3.0000000e+00 
0.0000000e+00 1.0000000e+00 3.0000000e+00 
1.0000000e+00 0.0000000e+00 0.0000000e+00 
2.0000000e+00 0.0000000e+00 0.0000000e+00 
3.0000000e+00 0.0000000e+00 0.0000000e+00 
4.0000000e+00 0.0000000e+00 0.0000000e+00 
4.0000000e+00 1.0000000e+00 0.0000000e+00 
3.0000000e+00 1.0000000e+00 0.0000000e+00 
2.0000000e+00 1.0000000e+00 0.0000000e+00 
1.0000000e+00 1.0000000e+00 0.0000000e+00 
0.0000000e+00 0.0000000e+00 1.0000000e+00 
0.0000000e+00 0.0000000e+00 2.0000000e+00 
5.0000000e+00 0.0000000e+00 1.0000000e+00 
5.0000000e+00 0.0000000e+00 2.0000000e+00 
1.0000000e+00 0.0000000e+00 3.0000000e+00 
2.0000000e+00 0.0000000e+00 3.0000000e+00 
3.0000000e+00 0.0000000e+00 3.0000000e+00 
4.0000000e+00 0.0000000e+00 3.0000000e+00 
5.0000000e+00 1.0000000e+00 1.0000000e+00 
5.0000000e+00 1.0000000e+00 2.0000000e+00 
0.0000000e+00 1.0000000e+00 1.0000000e+00 
0.0000000e+00 1.0000000e+00 2.0000000e+00 
4.0000000e+00 1.0000000e+00 3.0000000e+00 
3.0000000e+00 1.0000000e+00 3.0000000e+00 
2.0000000e+00 1.0000000e+00 3.0000000e+00 
1.0000000e+00 1.0000000e+00 3.0000000e+00 
4.5000000e+00 5.0000000e-01 0.0000000e+00 
5.0000000e-01 5.0000000e-01 0.0000000e+00 
2.5000000e+00 5.0000000e-01 0.0000000e+00 
3.5000000e+00 5.0000000e-01 0.0000000e+00 
1.5000000e+00 5.0000000e-01 0.0000000e+00 
1.5046000e+00 0.0000000e+00 7.6549745e-01 
4.0618000e+00 0.0000000e+00 1.5000000e+00 
2.5000000e+00 0.0000000e+00 2.1339746e+00 
1.5046000e+00 0.0000000e+00 2.2345026e+00 
2.4957771e+00 0.0000000e+00 8.1560516e-01 
3.4700506e+00 0.0000000e+00 7.5794268e-01 
3.4707544e+00 0.0000000e+00 2.2336540e+00 
8.6322361e-01 0.0000000e+00 1.5000000e+00 
2.0000000e+00 0.0000000e+00 1.5000000e+00 
2.9960666e+00 0.0000000e+00 1.4974480e+00 
4.2679491e+00 0.0000000e+00 2.2679491e+00 
4.2679491e+00 0.0000000e+00 7.3205084e-01 
7.2695929e-01 0.0000000e+00 7.2695929e-01 
7.2695929e-01 0.0000000e+00 2.2730408e+00 
5.0000000e+00 5.0000000e-01 5.0000000e-01 
5.0000000e+00 5.0000000e-01 2.5000000e+00 
5.0000000e+00 5.0000000e-01 1.5000000e+00 
3.4954000e+00 1.0000000e+00 7.6549745e-01 
9.3820012e-01 1.0000000e+00 1.5000000e+00 
2.5000000e+00 1.0000000e+00 2.1339746e+00 
3.4954000e+00 1.0000000e+00 2.2345026e+00 
2.5042229e+00 1.0000000e+00 8.1560516e-01 
1.5299494e+00 1.0000000e+00 7.5794268e-01 
1.5292456e+00 1.0000000e+00 2.2336540e+00 
4.1367764e+00 1.0000000e+00 1.5000000e+00 
3.0000000e+00 1.0000000e+00 1.5000000e+00 
2.0039334e+00 1.0000000e+00 1.4974480e+00 
7.3205084e-01 1.0000000e+00 2.2679491e+00 
7.3205084e-01 1.0000000e+00 7.3205084e-01 
4.2730408e+00 1.0000000e+00 7.2695929e-01 
4.2730408e+00 1.0000000e+00 2.2730408e+00 
0.0000000e+00 5.0000000e-01 2.5000000e+00 
0.0000000e+00 5.0000000e-01 1.5000000e+00 
0.0000000e+00 5.0000000e-01 5.0000000e-01 
4.5000000e+00 5.0000000e-01 3.0000000e+00 
1.5000000e+00 5.0000000e-01 3.0000000e+00 
2.5000000e+00 5.0000000e-01 3.0000000e+00 
3.5000000e+00 5.0000000e-01 3.0000000e+00 
5.0000000e-01 5.0000000e-01 3.0000000e+00 

CELLS 184 920
4 40 39 60 73
4 57 43 73 56
4 73 39 60 56
4 39 73 43 56
4 34 13 58 42
4 59 41 9 34
4 21 40 60 73
4 29 43 73 57
4 34 58 41 42
4 41 59 58 34
4 39 40 21 73
4 73 29 57 56
4 30 21 60 73
4 73 22 43 29
4 21 30 60 72
4 74 43 22 29
4 29 74 43 57
4 21 60 40 72
4 10 35 13 42
4 10 13 34 42
4 9 14 59 34
4 14 9 59 36
4 54 13 35 42
4 36 37 9 59
4 58 59 14 34
4 10 34 41 42
4 39 73 22 43
4 60 30 73 56
4 13 54 58 42
4 37 41 9 59
4 45 60 55 40
4 57 38 43 62
4 46 41 58 42
4 59 63 41 58
4 65 37 36 59
4 42 35 54 48
4 40 60 64 72
4 74 47 43 57
4 39 63 60 56
4 55 63 60 45
4 62 38 43 46
4 35 66 54 48
4 36 49 37 65
4 40 64 50 72
4 47 74 67 57
4 37 41 59 45
4 62 58 54 42
4 58 63 41 46
4 56 43 39 62
4 60 45 39 40
4 56 57 43 62
4 67 23 71 28
4 67 74 23 28
4 11 12 66 32
4 12 11 66 35
4 8 15 49 36
4 20 31 50 75
4 31 20 50 72
4 8 15 33 49
4 58 62 46 42
4 59 41 63 45
4 55 44 37 45
4 54 62 38 61
4 66 35 11 48
4 65 36 49 15
4 64 31 50 72
4 74 23 47 67
4 32 66 11 48
4 64 31 75 50
4 71 47 23 67
4 49 33 65 15
4 47 67 53 61
4 53 61 66 48
4 62 57 38 61
4 45 55 44 40
4 63 39 60 45
4 62 43 39 46
4 19 67 25 53
4 24 18 66 51
4 18 24 66 53
4 27 17 50 68
4 16 26 49 70
4 26 16 49 69
4 17 27 50 69
4 67 52 19 25
4 54 38 42 48
4 37 65 55 59
4 47 38 43 57
4 55 60 64 40
4 39 62 63 56
4 61 53 38 48
4 53 38 47 61
4 53 66 18 48
4 64 27 69 50
4 49 65 26 69
4 67 19 47 53
4 41 63 45 46
4 58 62 63 46
4 65 70 49 26
4 27 64 68 50
4 18 66 51 48
4 52 19 47 67
4 65 49 37 55
4 50 55 64 40
4 62 39 63 46
4 39 45 63 46
4 49 44 37 55
4 50 44 55 40
4 12 66 54 35
4 37 8 49 36
4 11 35 42 48
4 15 65 36 59
4 43 23 47 74
4 31 64 60 72
4 28 67 74 57
4 40 50 20 72
4 33 70 49 65
4 71 52 47 67
4 66 32 51 48
4 64 75 68 50
4 19 38 47 53
4 18 38 53 48
4 55 26 65 69
4 27 69 55 64
4 16 44 49 69
4 50 69 44 17
4 53 61 24 66
4 67 25 53 61
4 73 21 39 22
4 29 73 30 56
4 19 38 53 18
4 69 55 26 27
4 75 7 64 68
4 3 70 33 65
4 52 47 5 71
4 51 32 1 48
4 68 75 4 50
4 32 2 66 51
4 70 49 0 33
4 6 52 71 67
4 13 58 14 34
4 41 9 34 10
4 25 53 61 24
4 69 16 44 17
4 30 31 60 72
4 23 43 22 74
4 15 36 14 59
4 42 10 35 11
4 9 8 37 36
4 13 12 54 35
4 21 40 20 72
4 28 74 29 57
4 47 23 5 71
4 11 1 32 48
4 65 33 3 15
4 7 64 31 75
4 67 6 52 25
4 8 0 49 33
4 16 49 0 70
4 20 4 75 50
4 4 68 50 17
4 2 66 12 32
4 67 71 6 28
4 2 24 66 51
4 70 0 3 33
4 75 4 7 68
4 5 6 52 71
4 32 1 2 51
4 7 27 64 68
4 18 51 1 48
4 3 70 65 26
4 47 5 19 52
4 62 42 38 46
4 38 42 62 54
4 45 59 55 63
4 45 55 59 37
4 49 55 69 44
4 69 55 49 65
4 50 55 69 64
4 50 69 55 44
4 61 48 54 66
4 54 48 61 38
4 47 61 57 67
4 57 61 47 38

CELL_TYPES 184
10
10
10
10
10
10
10
10
10
10
10
10
10
10
10
10
10
10
10
10
10
10
10
10
10
10
10
10
10
10
10
10
10
10
10
10
10
10
10
10
10
10
10
10
10
10
10
10
10
10
10
10
10
10
10
10
10
10
10
10
10
10
10
10
10
10
10
10
10
10
10
10
10
10
10
10
10
10
10
10
10
10
10
10
10
10
10
10
10
10
10
10
10
10
10
10
10
10
10
10
10
10
10
10
10
10
10
10
10
10
10
10
10
10
10
10
10
10
10
10
10
10
10
10
10
10
10
10
10
10
10
10
10
10
10
10
10
10
10
10
10
10
10
10
10
10
10
10
10
10
10
10
10
10
10
10
10
10
10
10
10
10
10
10
10
10
10
10
10
10
10
10
10
10
10
10
10
10
10
10
10
10
10
10
POINT_DATA 76
FIELD FieldData 2
DISPLACEMENT 3 76  float
0.0000000e+00 0.0000000e+00 0.0000000e+00 
0.0000000e+00 0.0000000e+00 0.0000000e+00 
0.0000000e+00 0.0000000e+00 0.0000000e+00 
0.0000000e+00 0.0000000e+00 0.0000000e+00 
0.0000000e+00 -3.9220708e-06 -8.9375897e-07 
0.0000000e+00 -5.7793268e-06 -1.5861679e-06 
0.0000000e+00 -5.8293035e-06 9.5258963e-07 
0.0000000e+00 -3.9761735e-06 5.6846983e-07 
0.0000000e+00 0.0000000e+00 0.0000000e+00 
0.0000000e+00 0.0000000e+00 0.0000000e+00 
0.0000000e+00 0.0000000e+00 0.0000000e+00 
0.0000000e+00 0.0000000e+00 0.0000000e+00 
0.0000000e+00 0.0000000e+00 0.0000000e+00 
0.0000000e+00 0.0000000e+00 0.0000000e+00 
0.0000000e+00 0.0000000e+00 0.0000000e+00 
0.0000000e+00 0.0000000e+00 0.0000000e+00 
0.0000000e+00 -9.0737245e-07 -5.5110934e-07 
0.0000000e+00 -2.4973069e-06 -9.5999042e-07 
0.0000000e+00 -1.0908686e-06 -7.1735894e-07 
0.0000000e+00 -3.1684885e-06 -1.3269181e-06 
0.0000000e+00 -4.1043595e-06 -9.6321060e-07 
0.0000000e+00 -4.3305477e-06 -8.9832372e-07 
0.0000000e+00 -4.7656013e-06 -1.1352199e-06 
0.0000000e+00 -5.8379605e-06 -1.3227051e-06 
0.0000000e+00 -1.0374974e-06 5.4060996e-07 
0.0000000e+00 -3.1275770e-06 9.4282950e-07 
0.0000000e+00 -9.7965801e-07 3.4116235e-07 
0.0000000e+00 -2.4676222e-06 5.6926405e-07 
0.0000000e+00 -5.4910529e-06 9.7790360e-07 
0.0000000e+00 -4.8209172e-06 8.5870289e-07 
0.0000000e+00 -4.3846030e-06 6.4571145e-07 
0.0000000e+00 -4.0102791e-06 6.2349955e-07 
0.0000000e+00 0.0000000e+00 0.0000000e+00 
0.0000000e+00 0.0000000e+00 0.0000000e+00 
0.0000000e+00 0.0000000e+00 0.0000000e+00 
0.0000000e+00 0.0000000e+00 0.0000000e+00 
0.0000000e+00 0.0000000e+00 0.0000000e+00 
0.0000000e+00 -7.3269268e-07 -5.5680658e-07 
0.0000000e+00 -1.9572383e-06 -9.1369503e-07 
0.0000000e+00 -2.9335035e-06 -9.3909682e-07 
0.0000000e+00 -2.8643362e-06 -8.8062092e-07 
0.0000000e+00 -8.4217970e-07 -6.4757961e-07 
0.0000000e+00 -6.4279607e-07 -5.5834465e-07 
0.0000000e+00 -3.3320769e-06 -1.0438980e-06 
0.0000000e+00 -1.6999228e-06 -7.3853721e-07 
0.0000000e+00 -1.8429497e-06 -8.4243146e-07 
0.0000000e+00 -1.8804997e-06 -8.2955887e-07 
0.0000000e+00 -3.7831462e-06 -1.2160515e-06 
0.0000000e+00 -5.6829441e-07 -5.4078436e-07 
0.0000000e+00 -5.9122357e-07 -4.7040646e-07 
0.0000000e+00 -2.9122928e-06 -9.2739754e-07 
0.0000000e+00 -3.8670311e-07 -7.2321207e-08 
0.0000000e+00 -4.4552817e-06 -2.7774161e-07 
0.0000000e+00 -1.9556614e-06 -1.6830131e-07 
0.0000000e+00 -6.5334604e-07 5.7407192e-07 
0.0000000e+00 -1.6500576e-06 4.6862513e-07 
0.0000000e+00 -2.9358596e-06 7.3004725e-07 
0.0000000e+00 -3.3708009e-06 8.9987202e-07 
0.0000000e+00 -7.8083985e-07 4.9299109e-07 
0.0000000e+00 -6.4982191e-07 3.4300191e-07 
0.0000000e+00 -2.9059847e-06 6.0460661e-07 
0.0000000e+00 -1.8897138e-06 7.8248917e-07 
0.0000000e+00 -1.8201470e-06 7.2450541e-07 
0.0000000e+00 -1.8230160e-06 5.3132101e-07 
0.0000000e+00 -2.8794586e-06 5.6201702e-07 
0.0000000e+00 -6.5477218e-07 2.8773738e-07 
0.0000000e+00 -5.2307240e-07 4.6600053e-07 
0.0000000e+00 -3.7444092e-06 9.4148754e-07 
0.0000000e+00 -3.2297371e-06 -1.6857787e-07 
0.0000000e+00 -1.6494541e-06 -1.5094687e-07 
0.0000000e+00 -3.8413955e-07 -4.9248584e-08 
-4.8790461e-08 -5.7292173e-06 -2.5971877e-07 
-1.3439734e-08 -4.1423223e-06 -1.3773899e-07 
-2.0033678e-08 -4.5734419e-06 -1.6662023e-07 
2.5741128e-08 -5.2615997e-06 -1.1905875e-07 
5.5881156e-08 -3.9413239e-06 -1.0839333e-07 
TOTAL_DISPLACEMENT 3 76  float
0.0000000e+00 0.0000000e+00 0.0000000e+00 
0.0000000e+00 0.0000000e+00 0.0000000e+00 
0.0000000e+00 0.0000000e+00 0.0000000e+00 
0.0000000e+00 0.0000000e+00 0.0000000e+00 
0.0000000e+00 0.0000000e+00 0.0000000e+00 
0.0000000e+00 0.0000000e+00 0.0000000e+00 
0.0000000e+00 0.0000000e+00 0.0000000e+00 
0.0000000e+00 0.0000000e+00 0.0000000e+00 
0.0000000e+00 0.0000000e+00 0.0000000e+00 
0.0000000e+00 0.0000000e+00 0.0000000e+00 
0.0000000e+00 0.0000000e+00 0.0000000e+00 
0.0000000e+00 0.0000000e+00 0.0000000e+00 
0.0000000e+00 0.0000000e+00 0.0000000e+00 
0.0000000e+00 0.0000000e+00 0.0000000e+00 
0.0000000e+00 0.0000000e+00 0.0000000e+00 
0.0000000e+00 0.0000000e+00 0.0000000e+00 
0.0000000e+00 0.0000000e+00 0.0000000e+00 
0.0000000e+00 0.0000000e+00 0.0000000e+00 
0.0000000e+00 0.0000000e+00 0.0000000e+00 
0.0000000e+00 0.0000000e+00 0.0000000e+00 
0.0000000e+00 0.0000000e+00 0.0000000e+00 
0.0000000e+00 0.0000000e+00 0.0000000e+00 
0.0000000e+00 0.0000000e+00 0.0000000e+00 
0.0000000e+00 0.0000000e+00 0.0000000e+00 
0.0000000e+00 0.0000000e+00 0.0000000e+00 
0.0000000e+00 0.0000000e+00 0.0000000e+00 
0.0000000e+00 0.0000000e+00 0.0000000e+00 
0.0000000e+00 0.0000000e+00 0.0000000e+00 
0.0000000e+00 0.0000000e+00 0.0000000e+00 
0.0000000e+00 0.0000000e+00 0.0000000e+00 
0.0000000e+00 0.0000000e+00 0.0000000e+00 
0.0000000e+00 0.0000000e+00 0.0000000e+00 
0.0000000e+00 0.0000000e+00 0.0000000e+00 
0.0000000e+00 0.0000000e+00 0.0000000e+00 
0.0000000e+00 0.0000000e+00 0.0000000e+00 
0.0000000e+00 0.0000000e+00 0.0000000e+00 
0.0000000e+00 0.0000000e+00 0.0000000e+00 
0.0000000e+00 0.0000000e+00 0.0000000e+00 
0.0000000e+00 0.0000000e+00 0.0000000e+00 
0.0000000e+00 0.0000000e+00 0.0000000e+00 
0.0000000e+00 0.0000000e+00 0.0000000e+00 
0.0000000e+00 0.0000000e+00 0.0000000e+00 
0.0000000e+00 0.0000000e+00 0.0000000e+00 
0.0000000e+00 0.0000000e+00 0.0000000e+00 
0.0000000e+00 0.0000000e+00 0.0000000e+00 
0.0000000e+00 0.0000000e+00 0.0000000e+00 
0.0000000e+00 0.0000000e+00 0.0000000e+00 
0.0000000e+00 0.0000000e+00 0.0000000e+00 
0.0000000e+00 0.0000000e+00 0.0000000e+00 
0.0000000e+00 0.0000000e+00 0.0000000e+00 
0.0000000e+00 0.0000000e+00 0.0000000e+00 
0.0000000e+00 0.0000000e+00 0.0000000e+00 
0.0000000e+00 0.0000000e+00 0.0000000e+00 
0.0000000e+00 0.0000000e+00 0.0000000e+00 
0.0000000e+00 0.0000000e+00 0.0000000e+00 
0.0000000e+00 0.0000000e+00 0.0000000e+00 
0.0000000e+00 0.0000000e+00 0.0000000e+00 
0.0000000e+00 0.0000000e+00 0.0000000e+00 
0.0000000e+00 0.0000000e+00 0.0000000e+00 
0.0000000e+00 0.0000000e+00 0.0000000e+00 
0.0000000e+00 0.0000000e+00 0.0000000e+00 
0.0000000e+00 0.0000000e+00 0.0000000e+00 
0.0000000e+00 0.0000000e+00 0.0000000e+00 
0.0000000e+00 0.0000000e+00 0.0000000e+00 
0.0000000e+00 0.0000000e+00 0.0000000e+00 
0.0000000e+00 0.0000000e+00 0.0000000e+00 
0.0000000e+00 0.0000000e+00 0.0000000e+00 
0.0000000e+00 0.0000000e+00 0.0000000e+00 
0.0000000e+00 0.0000000e+00 0.0000000e+00 
0.0000000e+00 0.0000000e+00 0.0000000e+00 
0.0000000e+00 0.0000000e+00 0.0000000e+00 
0.0000000e+00 0.0000000e+00 0.0000000e+00 
0.0000000e+00 0.0000000e+00 0.0000000e+00 
0.0000000e+00 0.0000000e+00 0.0000000e+00 
0.0000000e+00 0.0000000e+00 0.0000000e+00 
0.0000000e+00 0.0000000e+00 0.0000000e+00 
CELL_DATA 184
FIELD FieldData 0
