# vtk DataFile Version 4.0
vtk output
ASCII
DATASET UNSTRUCTURED_GRID
POINTS 1439 float
0.0000000e+00 0.0000000e+00 0.0000000e+00 
0.0000000e+00 0.0000000e+00 2.0000000e+01 
3.4700000e+00 0.0000000e+00 0.0000000e+00 
3.4700000e+00 0.0000000e+00 2.0000000e+01 
3.4700000e+00 1.0000000e+00 0.0000000e+00 
3.4700000e+00 1.0000000e+00 2.0000000e+01 
0.0000000e+00 1.0000000e+00 0.0000000e+00 
0.0000000e+00 1.0000000e+00 2.0000000e+01 
1.2500000e+00 2.5000000e+00 0.0000000e+00 
1.2500000e+00 2.5000000e+00 1.1700000e-01 
7.5000000e-01 2.5000000e+00 1.1700000e-01 
7.5000000e-01 2.5000000e+00 0.0000000e+00 
0.0000000e+00 2.5000000e+00 0.0000000e+00 
0.0000000e+00 2.5000000e+00 1.1700000e-01 
1.2500000e+00 2.8000000e+00 1.1700000e-01 
1.2500000e+00 2.8000000e+00 0.0000000e+00 
0.0000000e+00 2.8000000e+00 0.0000000e+00 
0.0000000e+00 2.8000000e+00 1.1700000e-01 
7.5000000e-01 2.5000000e+00 8.8300002e-01 
1.2500000e+00 2.5000000e+00 8.8300002e-01 
1.2500000e+00 2.5000000e+00 1.1170000e+00 
7.5000000e-01 2.5000000e+00 1.1170000e+00 
7.5000000e-01 2.5000000e+00 1.0000000e+00 
0.0000000e+00 2.5000000e+00 8.8300002e-01 
0.0000000e+00 2.5000000e+00 1.1170000e+00 
1.2500000e+00 2.8000000e+00 1.1170000e+00 
1.2500000e+00 2.8000000e+00 8.8300002e-01 
0.0000000e+00 2.8000000e+00 8.8300002e-01 
0.0000000e+00 2.8000000e+00 1.1170000e+00 
7.5000000e-01 2.5000000e+00 1.8830000e+00 
1.2500000e+00 2.5000000e+00 1.8830000e+00 
1.2500000e+00 2.5000000e+00 2.1170001e+00 
7.5000000e-01 2.5000000e+00 2.1170001e+00 
7.5000000e-01 2.5000000e+00 2.0000000e+00 
0.0000000e+00 2.5000000e+00 1.8830000e+00 
0.0000000e+00 2.5000000e+00 2.1170001e+00 
1.2500000e+00 2.8000000e+00 2.1170001e+00 
1.2500000e+00 2.8000000e+00 1.8830000e+00 
0.0000000e+00 2.8000000e+00 1.8830000e+00 
0.0000000e+00 2.8000000e+00 2.1170001e+00 
7.5000000e-01 2.5000000e+00 2.8829999e+00 
1.2500000e+00 2.5000000e+00 2.8829999e+00 
1.2500000e+00 2.5000000e+00 3.1170001e+00 
7.5000000e-01 2.5000000e+00 3.1170001e+00 
7.5000000e-01 2.5000000e+00 3.0000000e+00 
0.0000000e+00 2.5000000e+00 2.8829999e+00 
0.0000000e+00 2.5000000e+00 3.1170001e+00 
1.2500000e+00 2.8000000e+00 3.1170001e+00 
1.2500000e+00 2.8000000e+00 2.8829999e+00 
0.0000000e+00 2.8000000e+00 2.8829999e+00 
0.0000000e+00 2.8000000e+00 3.1170001e+00 
7.5000000e-01 2.5000000e+00 3.8829999e+00 
1.2500000e+00 2.5000000e+00 3.8829999e+00 
1.2500000e+00 2.5000000e+00 4.1170001e+00 
7.5000000e-01 2.5000000e+00 4.1170001e+00 
7.5000000e-01 2.5000000e+00 4.0000000e+00 
0.0000000e+00 2.5000000e+00 3.8829999e+00 
0.0000000e+00 2.5000000e+00 4.1170001e+00 
1.2500000e+00 2.8000000e+00 4.1170001e+00 
1.2500000e+00 2.8000000e+00 3.8829999e+00 
0.0000000e+00 2.8000000e+00 3.8829999e+00 
0.0000000e+00 2.8000000e+00 4.1170001e+00 
7.5000000e-01 2.5000000e+00 4.8829999e+00 
1.2500000e+00 2.5000000e+00 4.8829999e+00 
1.2500000e+00 2.5000000e+00 5.1170001e+00 
7.5000000e-01 2.5000000e+00 5.1170001e+00 
7.5000000e-01 2.5000000e+00 5.0000000e+00 
0.0000000e+00 2.5000000e+00 4.8829999e+00 
0.0000000e+00 2.5000000e+00 5.1170001e+00 
1.2500000e+00 2.8000000e+00 5.1170001e+00 
1.2500000e+00 2.8000000e+00 4.8829999e+00 
0.0000000e+00 2.8000000e+00 4.8829999e+00 
0.0000000e+00 2.8000000e+00 5.1170001e+00 
7.5000000e-01 2.5000000e+00 5.8829999e+00 
1.2500000e+00 2.5000000e+00 5.8829999e+00 
1.2500000e+00 2.5000000e+00 6.1170001e+00 
7.5000000e-01 2.5000000e+00 6.1170001e+00 
7.5000000e-01 2.5000000e+00 6.0000000e+00 
0.0000000e+00 2.5000000e+00 5.8829999e+00 
0.0000000e+00 2.5000000e+00 6.1170001e+00 
1.2500000e+00 2.8000000e+00 6.1170001e+00 
1.2500000e+00 2.8000000e+00 5.8829999e+00 
0.0000000e+00 2.8000000e+00 5.8829999e+00 
0.0000000e+00 2.8000000e+00 6.1170001e+00 
7.5000000e-01 2.5000000e+00 6.8829999e+00 
1.2500000e+00 2.5000000e+00 6.8829999e+00 
1.2500000e+00 2.5000000e+00 7.1170001e+00 
7.5000000e-01 2.5000000e+00 7.1170001e+00 
7.5000000e-01 2.5000000e+00 7.0000000e+00 
0.0000000e+00 2.5000000e+00 6.8829999e+00 
0.0000000e+00 2.5000000e+00 7.1170001e+00 
1.2500000e+00 2.8000000e+00 7.1170001e+00 
1.2500000e+00 2.8000000e+00 6.8829999e+00 
0.0000000e+00 2.8000000e+00 6.8829999e+00 
0.0000000e+00 2.8000000e+00 7.1170001e+00 
7.5000000e-01 2.5000000e+00 7.8829999e+00 
1.2500000e+00 2.5000000e+00 7.8829999e+00 
1.2500000e+00 2.5000000e+00 8.1169996e+00 
7.5000000e-01 2.5000000e+00 8.1169996e+00 
7.5000000e-01 2.5000000e+00 8.0000000e+00 
0.0000000e+00 2.5000000e+00 7.8829999e+00 
0.0000000e+00 2.5000000e+00 8.1169996e+00 
1.2500000e+00 2.8000000e+00 8.1169996e+00 
1.2500000e+00 2.8000000e+00 7.8829999e+00 
0.0000000e+00 2.8000000e+00 7.8829999e+00 
0.0000000e+00 2.8000000e+00 8.1169996e+00 
7.5000000e-01 2.5000000e+00 8.8830004e+00 
1.2500000e+00 2.5000000e+00 8.8830004e+00 
1.2500000e+00 2.5000000e+00 9.1169996e+00 
7.5000000e-01 2.5000000e+00 9.1169996e+00 
7.5000000e-01 2.5000000e+00 9.0000000e+00 
0.0000000e+00 2.5000000e+00 8.8830004e+00 
0.0000000e+00 2.5000000e+00 9.1169996e+00 
1.2500000e+00 2.8000000e+00 9.1169996e+00 
1.2500000e+00 2.8000000e+00 8.8830004e+00 
0.0000000e+00 2.8000000e+00 8.8830004e+00 
0.0000000e+00 2.8000000e+00 9.1169996e+00 
7.5000000e-01 2.5000000e+00 9.8830004e+00 
1.2500000e+00 2.5000000e+00 9.8830004e+00 
1.2500000e+00 2.5000000e+00 1.0117000e+01 
7.5000000e-01 2.5000000e+00 1.0117000e+01 
7.5000000e-01 2.5000000e+00 1.0000000e+01 
0.0000000e+00 2.5000000e+00 9.8830004e+00 
0.0000000e+00 2.5000000e+00 1.0117000e+01 
1.2500000e+00 2.8000000e+00 1.0117000e+01 
1.2500000e+00 2.8000000e+00 9.8830004e+00 
0.0000000e+00 2.8000000e+00 9.8830004e+00 
0.0000000e+00 2.8000000e+00 1.0117000e+01 
7.5000000e-01 2.5000000e+00 1.0883000e+01 
1.2500000e+00 2.5000000e+00 1.0883000e+01 
1.2500000e+00 2.5000000e+00 1.1117000e+01 
7.5000000e-01 2.5000000e+00 1.1117000e+01 
7.5000000e-01 2.5000000e+00 1.1000000e+01 
0.0000000e+00 2.5000000e+00 1.0883000e+01 
0.0000000e+00 2.5000000e+00 1.1117000e+01 
1.2500000e+00 2.8000000e+00 1.1117000e+01 
1.2500000e+00 2.8000000e+00 1.0883000e+01 
0.0000000e+00 2.8000000e+00 1.0883000e+01 
0.0000000e+00 2.8000000e+00 1.1117000e+01 
7.5000000e-01 2.5000000e+00 1.1883000e+01 
1.2500000e+00 2.5000000e+00 1.1883000e+01 
1.2500000e+00 2.5000000e+00 1.2117000e+01 
7.5000000e-01 2.5000000e+00 1.2117000e+01 
7.5000000e-01 2.5000000e+00 1.2000000e+01 
0.0000000e+00 2.5000000e+00 1.1883000e+01 
0.0000000e+00 2.5000000e+00 1.2117000e+01 
1.2500000e+00 2.8000000e+00 1.2117000e+01 
1.2500000e+00 2.8000000e+00 1.1883000e+01 
0.0000000e+00 2.8000000e+00 1.1883000e+01 
0.0000000e+00 2.8000000e+00 1.2117000e+01 
7.5000000e-01 2.5000000e+00 1.2883000e+01 
1.2500000e+00 2.5000000e+00 1.2883000e+01 
1.2500000e+00 2.5000000e+00 1.3117000e+01 
7.5000000e-01 2.5000000e+00 1.3117000e+01 
7.5000000e-01 2.5000000e+00 1.3000000e+01 
0.0000000e+00 2.5000000e+00 1.2883000e+01 
0.0000000e+00 2.5000000e+00 1.3117000e+01 
1.2500000e+00 2.8000000e+00 1.3117000e+01 
1.2500000e+00 2.8000000e+00 1.2883000e+01 
0.0000000e+00 2.8000000e+00 1.2883000e+01 
0.0000000e+00 2.8000000e+00 1.3117000e+01 
7.5000000e-01 2.5000000e+00 1.3883000e+01 
1.2500000e+00 2.5000000e+00 1.3883000e+01 
1.2500000e+00 2.5000000e+00 1.4117000e+01 
7.5000000e-01 2.5000000e+00 1.4117000e+01 
7.5000000e-01 2.5000000e+00 1.4000000e+01 
0.0000000e+00 2.5000000e+00 1.3883000e+01 
0.0000000e+00 2.5000000e+00 1.4117000e+01 
1.2500000e+00 2.8000000e+00 1.4117000e+01 
1.2500000e+00 2.8000000e+00 1.3883000e+01 
0.0000000e+00 2.8000000e+00 1.3883000e+01 
0.0000000e+00 2.8000000e+00 1.4117000e+01 
7.5000000e-01 2.5000000e+00 1.4883000e+01 
1.2500000e+00 2.5000000e+00 1.4883000e+01 
1.2500000e+00 2.5000000e+00 1.5117000e+01 
7.5000000e-01 2.5000000e+00 1.5117000e+01 
7.5000000e-01 2.5000000e+00 1.5000000e+01 
0.0000000e+00 2.5000000e+00 1.4883000e+01 
0.0000000e+00 2.5000000e+00 1.5117000e+01 
1.2500000e+00 2.8000000e+00 1.5117000e+01 
1.2500000e+00 2.8000000e+00 1.4883000e+01 
0.0000000e+00 2.8000000e+00 1.4883000e+01 
0.0000000e+00 2.8000000e+00 1.5117000e+01 
7.5000000e-01 2.5000000e+00 1.5883000e+01 
1.2500000e+00 2.5000000e+00 1.5883000e+01 
1.2500000e+00 2.5000000e+00 1.6117001e+01 
7.5000000e-01 2.5000000e+00 1.6117001e+01 
7.5000000e-01 2.5000000e+00 1.6000000e+01 
0.0000000e+00 2.5000000e+00 1.5883000e+01 
0.0000000e+00 2.5000000e+00 1.6117001e+01 
1.2500000e+00 2.8000000e+00 1.6117001e+01 
1.2500000e+00 2.8000000e+00 1.5883000e+01 
0.0000000e+00 2.8000000e+00 1.5883000e+01 
0.0000000e+00 2.8000000e+00 1.6117001e+01 
7.5000000e-01 2.5000000e+00 1.6882999e+01 
1.2500000e+00 2.5000000e+00 1.6882999e+01 
1.2500000e+00 2.5000000e+00 1.7117001e+01 
7.5000000e-01 2.5000000e+00 1.7117001e+01 
7.5000000e-01 2.5000000e+00 1.7000000e+01 
0.0000000e+00 2.5000000e+00 1.6882999e+01 
0.0000000e+00 2.5000000e+00 1.7117001e+01 
1.2500000e+00 2.8000000e+00 1.7117001e+01 
1.2500000e+00 2.8000000e+00 1.6882999e+01 
0.0000000e+00 2.8000000e+00 1.6882999e+01 
0.0000000e+00 2.8000000e+00 1.7117001e+01 
7.5000000e-01 2.5000000e+00 1.7882999e+01 
1.2500000e+00 2.5000000e+00 1.7882999e+01 
1.2500000e+00 2.5000000e+00 1.8117001e+01 
7.5000000e-01 2.5000000e+00 1.8117001e+01 
7.5000000e-01 2.5000000e+00 1.8000000e+01 
0.0000000e+00 2.5000000e+00 1.7882999e+01 
0.0000000e+00 2.5000000e+00 1.8117001e+01 
1.2500000e+00 2.8000000e+00 1.8117001e+01 
1.2500000e+00 2.8000000e+00 1.7882999e+01 
0.0000000e+00 2.8000000e+00 1.7882999e+01 
0.0000000e+00 2.8000000e+00 1.8117001e+01 
7.5000000e-01 2.5000000e+00 1.8882999e+01 
1.2500000e+00 2.5000000e+00 1.8882999e+01 
1.2500000e+00 2.5000000e+00 1.9117001e+01 
7.5000000e-01 2.5000000e+00 1.9117001e+01 
7.5000000e-01 2.5000000e+00 1.9000000e+01 
0.0000000e+00 2.5000000e+00 1.8882999e+01 
0.0000000e+00 2.5000000e+00 1.9117001e+01 
1.2500000e+00 2.8000000e+00 1.9117001e+01 
1.2500000e+00 2.8000000e+00 1.8882999e+01 
0.0000000e+00 2.8000000e+00 1.8882999e+01 
0.0000000e+00 2.8000000e+00 1.9117001e+01 
3.4700000e+00 2.5000000e+00 0.0000000e+00 
3.4700000e+00 2.5000000e+00 2.0000000e+01 
7.5000000e-01 2.5000000e+00 1.9882999e+01 
[...]
POINT_DATA 1439
FIELD FieldData 1
DISPLACEMENT 3 1439  float
0.0000000e+00 0.0000000e+00 0.0000000e+00 
0.0000000e+00 0.0000000e+00 0.0000000e+00 
0.0000000e+00 0.0000000e+00 0.0000000e+00 
0.0000000e+00 0.0000000e+00 0.0000000e+00 
0.0000000e+00 -2.3136972e-09 0.0000000e+00 
0.0000000e+00 -1.9117402e-07 0.0000000e+00 
0.0000000e+00 1.5488883e-08 0.0000000e+00 
0.0000000e+00 -2.3781015e-06 0.0000000e+00 
0.0000000e+00 -6.1911840e-07 0.0000000e+00 
7.3791190e-12 -6.1911436e-07 4.3483372e-12 
-3.9129416e-12 -6.1915898e-07 6.5251212e-12 
0.0000000e+00 -6.1916791e-07 0.0000000e+00 
0.0000000e+00 -6.1900784e-07 0.0000000e+00 
0.0000000e+00 -6.1901125e-07 0.0000000e+00 
-6.4583508e-12 -6.1913380e-07 -2.8165220e-12 
0.0000000e+00 -6.1913079e-07 0.0000000e+00 
0.0000000e+00 -6.1902603e-07 0.0000000e+00 
0.0000000e+00 -6.1902290e-07 0.0000000e+00 
-1.2852643e-11 -4.5427754e-07 3.2645609e-12 
4.7204341e-12 -4.5434686e-07 1.8925726e-11 
-1.4737721e-12 -4.5434999e-07 2.2387930e-11 
-1.8550269e-11 -4.5428030e-07 1.1636491e-11 
-1.7248977e-11 -4.5428359e-07 7.4483501e-12 
0.0000000e+00 -4.5411682e-07 0.0000000e+00 
0.0000000e+00 -4.5411676e-07 0.0000000e+00 
3.5501959e-11 -4.5436434e-07 2.4053891e-11 
4.0902674e-11 -4.5436113e-07 2.6271070e-11 
0.0000000e+00 -4.5413208e-07 0.0000000e+00 
0.0000000e+00 -4.5413009e-07 0.0000000e+00 
1.5661458e-11 1.1065959e-07 -7.4188867e-12 
-1.2096178e-11 1.1068579e-07 -3.5903319e-11 
-1.7167935e-12 1.1069852e-07 -3.6182949e-11 
2.4536409e-11 1.1067096e-07 -2.0719594e-11 
2.3815137e-11 1.1067481e-07 -1.4119766e-11 
0.0000000e+00 1.1045150e-07 0.0000000e+00 
0.0000000e+00 1.1045406e-07 0.0000000e+00 
-1.2269939e-11 1.1070700e-07 -4.9570174e-11 
-2.2621169e-11 1.1069624e-07 -5.2948739e-11 
0.0000000e+00 1.1045398e-07 0.0000000e+00 
0.0000000e+00 1.1045047e-07 0.0000000e+00 
9.1048467e-11 1.1748932e-06 3.3393951e-11 
-3.0115785e-11 1.1751323e-06 -3.2387842e-11 
-9.2407765e-12 1.1751758e-06 -4.0364823e-11 
1.0735614e-10 1.1749287e-06 -2.3520916e-11 
1.1424674e-10 1.1749488e-06 5.2123653e-12 
0.0000000e+00 1.1739029e-06 0.0000000e+00 
0.0000000e+00 1.1739181e-06 0.0000000e+00 
-1.2969652e-10 1.1752325e-06 -8.3484199e-11 
-1.4553803e-10 1.1751920e-06 -9.6572104e-11 
0.0000000e+00 1.1739496e-06 0.0000000e+00 
0.0000000e+00 1.1739229e-06 0.0000000e+00 
1.7083665e-10 2.4529168e-06 9.5830271e-12 
-5.9398535e-11 2.4534424e-06 -1.3152812e-10 
-1.4822300e-11 2.4535345e-06 -1.4962924e-10 
2.1559660e-10 2.4530007e-06 -1.0254072e-10 
2.2148847e-10 2.4530323e-06 -4.7987066e-11 
0.0000000e+00 2.4509764e-06 0.0000000e+00 
0.0000000e+00 2.4510011e-06 0.0000000e+00 
-2.7636654e-10 2.4536466e-06 -2.4430949e-10 
-3.1918895e-10 2.4535650e-06 -2.7424649e-10 
0.0000000e+00 2.4510723e-06 0.0000000e+00 
0.0000000e+00 2.4510350e-06 0.0000000e+00 
2.4658953e-10 2.5174986e-06 3.1960393e-10 
4.3718078e-11 2.5181328e-06 4.3178308e-10 
-2.7350859e-11 2.5182283e-06 4.1735090e-10 
1.9066297e-10 2.5175761e-06 2.1498225e-10 
2.4395358e-10 2.5176071e-06 2.6507754e-10 
0.0000000e+00 2.5155609e-06 0.0000000e+00 
0.0000000e+00 2.5155807e-06 0.0000000e+00 
-3.6264411e-10 2.5183342e-06 3.0727645e-10 
-2.8097188e-10 2.5182394e-06 2.8304475e-10 
0.0000000e+00 2.5156410e-06 0.0000000e+00 
0.0000000e+00 2.5156387e-06 0.0000000e+00 
3.3330973e-12 -1.9684719e-06 7.8933565e-10 
3.0387937e-10 -1.9686661e-06 1.5295084e-09 
-2.0881526e-11 -1.9685060e-06 1.5584223e-09 
-2.6557631e-10 -1.9683196e-06 9.1671148e-10 
-1.6514852e-10 -1.9684785e-06 8.4530394e-10 
0.0000000e+00 -1.9665829e-06 0.0000000e+00 
0.0000000e+00 -1.9665608e-06 0.0000000e+00 
3.8927125e-11 -1.9686599e-06 1.2951732e-09 
3.6464495e-10 -1.9688239e-06 1.3258431e-09 
0.0000000e+00 -1.9666390e-06 0.0000000e+00 
0.0000000e+00 -1.9666354e-06 0.0000000e+00 
-6.2539562e-10 -1.5635906e-05 2.2331532e-09 
1.1709965e-09 -1.5638920e-05 5.3175246e-09 
-1.2303894e-10 -1.5639311e-05 5.4777014e-09 
-1.7518386e-09 -1.5636258e-05 3.0511813e-09 
-1.3992412e-09 -1.5636610e-05 2.6348790e-09 
0.0000000e+00 -1.5622305e-05 0.0000000e+00 
0.0000000e+00 -1.5622420e-05 0.0000000e+00 
1.3134976e-09 -1.5640193e-05 5.7232463e-09 
2.5947486e-09 -1.5639906e-05 5.9435803e-09 
0.0000000e+00 -1.5623031e-05 0.0000000e+00 
0.0000000e+00 -1.5622662e-05 0.0000000e+00 
-2.0028752e-09 -3.9535953e-05 2.4036253e-09 
2.3558127e-09 -3.9543753e-05 7.7562019e-09 
2.1014067e-10 -3.9544437e-05 8.1251512e-09 
-3.7971293e-09 -3.9536535e-05 4.3933959e-09 
-3.3934955e-09 -3.9537572e-05 3.3734431e-09 
0.0000000e+00 -3.9502280e-05 0.0000000e+00 
0.0000000e+00 -3.9502316e-05 0.0000000e+00 
4.0185526e-09 -3.9546674e-05 8.5159888e-09 
6.0152443e-09 -3.9546067e-05 8.9933705e-09 
0.0000000e+00 -3.9503790e-05 0.0000000e+00 
0.0000000e+00 -3.9503306e-05 0.0000000e+00 
-7.0199100e-09 -5.8651036e-05 -7.2023538e-09 
-1.2438364e-09 -5.8667774e-05 -1.2900039e-08 
2.0404198e-09 -5.8666334e-05 -1.2397360e-08 
-4.0444892e-09 -5.8650021e-05 -4.3234030e-09 
-6.2439103e-09 -5.8652433e-05 -5.7470269e-09 
0.0000000e+00 -5.8596954e-05 0.0000000e+00 
0.0000000e+00 -5.8596415e-05 0.0000000e+00 
1.0341939e-08 -5.8669626e-05 -1.4704613e-08 
7.3107076e-09 -5.8670859e-05 -1.4005729e-08 
0.0000000e+00 -5.8598365e-05 0.0000000e+00 
0.0000000e+00 -5.8599177e-05 0.0000000e+00 
-3.4925376e-09 -2.2875422e-05 -1.2417657e-09 
-1.7196158e-09 -2.2887294e-05 -1.5796953e-09 
-1.2792982e-09 -2.2886994e-05 -1.4429932e-09 
-3.2431389e-09 -2.2875414e-05 -2.2011297e-10 
-3.5748293e-09 -2.2876051e-05 -7.2139705e-10 
0.0000000e+00 -2.2852064e-05 0.0000000e+00 
0.0000000e+00 -2.2851782e-05 0.0000000e+00 
5.0585691e-09 -2.2888009e-05 -1.7244536e-09 
4.6667563e-09 -2.2888187e-05 -1.4397966e-09 
0.0000000e+00 -2.2853208e-05 0.0000000e+00 
0.0000000e+00 -2.2852591e-05 0.0000000e+00 
5.0106848e-09 1.6146110e-04 -2.5054742e-08 
-1.3546998e-08 1.6148508e-04 -5.8052965e-08 
4.0266493e-10 1.6148911e-04 -5.9699225e-08 
1.7190663e-08 1.6146453e-04 -3.3478365e-08 
1.3301618e-08 1.6146826e-04 -2.9175839e-08 
0.0000000e+00 1.6132733e-04 0.0000000e+00 
0.0000000e+00 1.6132882e-04 0.0000000e+00 
-1.0438275e-08 1.6149817e-04 -6.2083359e-08 
-2.4260133e-08 1.6149538e-04 -6.4321512e-08 
0.0000000e+00 1.6133436e-04 0.0000000e+00 
0.0000000e+00 1.6133064e-04 0.0000000e+00 
2.9664145e-08 5.8347039e-04 -2.3483723e-08 
-3.3332011e-08 5.8356713e-04 -8.5098094e-08 
-1.0113319e-08 5.8358262e-04 -9.0629804e-08 
4.9400015e-08 5.8348582e-04 -5.2742887e-08 
4.6742645e-08 5.8349728e-04 -3.8080373e-08 
0.0000000e+00 5.8299786e-04 0.0000000e+00 
0.0000000e+00 5.8299996e-04 0.0000000e+00 
-5.4342493e-08 5.8361469e-04 -1.0334755e-07 
-7.7346662e-08 5.8360159e-04 -1.1117464e-07 
0.0000000e+00 5.8302068e-04 0.0000000e+00 
0.0000000e+00 5.8301096e-04 0.0000000e+00 
7.0320077e-08 1.1470852e-03 -9.2426760e-09 
-4.8490605e-08 1.1473087e-03 -1.0029622e-07 
-1.6503408e-08 1.1473434e-03 -1.1061992e-07 
9.6766307e-08 1.1471187e-03 -6.5525064e-08 
9.7216017e-08 1.1471387e-03 -3.7609730e-08 
0.0000000e+00 1.1461502e-03 0.0000000e+00 
0.0000000e+00 1.1461553e-03 0.0000000e+00 
-1.2367194e-07 1.1474037e-03 -1.4159416e-07 
-1.5485219e-07 1.1473737e-03 -1.5667364e-07 
0.0000000e+00 1.1461959e-03 0.0000000e+00 
0.0000000e+00 1.1461785e-03 0.0000000e+00 
7.7486852e-08 1.2551167e-03 -4.5828244e-08 
-4.4030656e-08 1.2553881e-03 -1.6603380e-07 
1.1104202e-09 1.2554268e-03 -1.7694320e-07 
1.1865571e-07 1.2551527e-03 -1.0412763e-07 
1.1261701e-07 1.2551724e-03 -7.5315647e-08 
0.0000000e+00 1.2541130e-03 0.0000000e+00 
0.0000000e+00 1.2541225e-03 0.0000000e+00 
-1.3370948e-07 1.2554886e-03 -2.1258613e-07 
-1.7803659e-07 1.2554552e-03 -2.2826134e-07 
0.0000000e+00 1.2541660e-03 0.0000000e+00 
0.0000000e+00 1.2541439e-03 0.0000000e+00 
4.0495500e-08 7.4735179e-04 -1.2251361e-08 
-2.8946497e-08 7.4748287e-04 -7.2435412e-08 
-6.6936590e-09 7.4749603e-04 -7.8358475e-08 
5.9816188e-08 7.4736221e-04 -4.4911950e-08 
5.8244254e-08 7.4737874e-04 -2.8380386e-08 
0.0000000e+00 7.4679806e-04 0.0000000e+00 
0.0000000e+00 7.4679864e-04 0.0000000e+00 
-7.1633814e-08 7.4753247e-04 -8.8081833e-08 
-9.1496361e-08 7.4752053e-04 -9.5804516e-08 
0.0000000e+00 7.4682222e-04 0.0000000e+00 
0.0000000e+00 7.4681517e-04 0.0000000e+00 
1.4767294e-08 2.7966252e-04 4.4626627e-09 
-8.8505470e-09 2.7970539e-04 -7.1732931e-09 
-5.6874065e-09 2.7971258e-04 -9.2690433e-09 
1.7973765e-08 2.7966945e-04 -6.9948234e-09 
1.9247651e-08 2.7967343e-04 -1.4102838e-09 
0.0000000e+00 2.7947704e-04 0.0000000e+00 
0.0000000e+00 2.7947850e-04 0.0000000e+00 
-2.5905083e-08 2.7972489e-04 -1.6397202e-08 
-2.8899427e-08 2.7971834e-04 -1.9426677e-08 
0.0000000e+00 2.7948632e-04 0.0000000e+00 
0.0000000e+00 2.7948237e-04 0.0000000e+00 
1.9638606e-09 3.4298155e-05 9.7133368e-09 
5.0961796e-10 3.4296976e-05 1.6777634e-08 
-2.9672513e-09 3.4298064e-05 1.6635429e-08 
-1.0325421e-09 3.4299243e-05 8.9249372e-09 
6.9388839e-10 3.4299199e-05 9.2477945e-09 
0.0000000e+00 3.4290028e-05 0.0000000e+00 
0.0000000e+00 3.4290046e-05 0.0000000e+00 
-2.0062181e-09 3.4299042e-05 1.5095008e-08 
1.5117610e-09 3.4297827e-05 1.4929093e-08 
0.0000000e+00 3.4290108e-05 0.0000000e+00 
0.0000000e+00 3.4290275e-05 0.0000000e+00 
-2.9685294e-09 -4.5099114e-05 3.6089614e-09 
1.9741899e-09 -4.5110897e-05 9.9660324e-09 
-5.8590671e-10 -4.5112454e-05 1.0393668e-08 
-5.2367533e-09 -4.5100500e-05 5.9106524e-09 
-4.6819308e-09 -4.5101289e-05 4.7611048e-09 
0.0000000e+00 -4.5057699e-05 0.0000000e+00 
0.0000000e+00 -4.5058183e-05 0.0000000e+00 
5.3839893e-09 -4.5114884e-05 1.1738709e-08 
7.8914999e-09 -4.5113604e-05 1.2363707e-08 
0.0000000e+00 -4.5059984e-05 0.0000000e+00 
0.0000000e+00 -4.5059056e-05 0.0000000e+00 
-5.1244493e-09 -5.1994808e-05 -4.8723203e-09 
-3.4988235e-10 -5.2006308e-05 -8.3727008e-09 
1.7410418e-09 -5.2004936e-05 -7.9475582e-09 
-3.2445504e-09 -5.1993484e-05 -2.5013913e-09 
-4.7797504e-09 -5.1995674e-05 -3.6948531e-09 
0.0000000e+00 -5.1952313e-05 0.0000000e+00 
0.0000000e+00 -5.1951978e-05 0.0000000e+00 
7.4239188e-09 -5.2007643e-05 -1.0230973e-08 
5.3748836e-09 -5.2008822e-05 -9.5963824e-09 
0.0000000e+00 -5.1953186e-05 0.0000000e+00 
0.0000000e+00 -5.1954150e-05 0.0000000e+00 
0.0000000e+00 -7.9181675e-09 0.0000000e+00 
0.0000000e+00 -5.2072301e-07 0.0000000e+00 
-3.7123085e-10 -4.7797712e-05 -9.3972152e-10 
6.6539629e-10 -4.7790083e-05 -3.4541345e-10 
0.0000000e+00 -4.7790440e-05 0.0000000e+00 
0.0000000e+00 -4.7798960e-05 0.0000000e+00 
0.0000000e+00 -4.7775462e-05 0.0000000e+00 
0.0000000e+00 -4.7775437e-05 0.0000000e+00 
0.0000000e+00 -4.7791862e-05 0.0000000e+00 
-1.3317115e-09 -4.7791757e-05 5.0446392e-10 
0.0000000e+00 -4.7776753e-05 0.0000000e+00 
0.0000000e+00 -4.7776659e-05 0.0000000e+00 
0.0000000e+00 -6.1978920e-07 0.0000000e+00 
0.0000000e+00 -4.5506033e-07 0.0000000e+00 
0.0000000e+00 1.1159747e-07 0.0000000e+00 
0.0000000e+00 1.1793682e-06 0.0000000e+00 
0.0000000e+00 2.4620260e-06 0.0000000e+00 
0.0000000e+00 2.5271054e-06 0.0000000e+00 
0.0000000e+00 -1.9748829e-06 0.0000000e+00 
0.0000000e+00 -1.5693055e-05 0.0000000e+00 
0.0000000e+00 -3.9685463e-05 0.0000000e+00 
0.0000000e+00 -5.8878239e-05 0.0000000e+00 
0.0000000e+00 -2.2986425e-05 0.0000000e+00 
0.0000000e+00 1.6202278e-04 0.0000000e+00 
0.0000000e+00 5.8561034e-04 0.0000000e+00 
0.0000000e+00 1.1513929e-03 0.0000000e+00 
0.0000000e+00 1.2598368e-03 0.0000000e+00 
0.0000000e+00 7.5011636e-04 0.0000000e+00 
0.0000000e+00 2.8067140e-04 0.0000000e+00 
0.0000000e+00 3.4398359e-05 0.0000000e+00 
0.0000000e+00 -4.5277040e-05 0.0000000e+00 
0.0000000e+00 -5.2189684e-05 0.0000000e+00 
0.0000000e+00 -4.7887544e-05 0.0000000e+00 
0.0000000e+00 -6.1921600e-07 0.0000000e+00 
4.5128373e-11 -4.5433521e-07 1.2209394e-11 
-4.3484608e-11 1.1075318e-07 -2.9295229e-11 
-2.3104194e-10 1.1752932e-06 -4.4907307e-11 
-4.7173038e-10 2.4537085e-06 -1.6272282e-10 
-4.7544141e-10 2.5182494e-06 1.5754437e-10 
4.1704862e-10 -1.9692272e-06 6.5228689e-10 
3.2444749e-09 -1.5641454e-05 3.1620913e-09 
8.0834113e-09 -3.9549508e-05 4.3426107e-09 
1.3078877e-08 -5.8669841e-05 -7.4154678e-09 
6.0035736e-09 -2.2882487e-05 -7.2014367e-10 
-3.1063227e-08 1.6151773e-04 -3.4320511e-08 
-1.1192117e-07 5.8367144e-04 -5.9431532e-08 
-2.2542130e-07 1.1474754e-03 -8.3977021e-08 
-2.4447851e-07 1.2555224e-03 -1.2604430e-07 
-1.3207627e-07 7.4757438e-04 -4.5102862e-08 
-4.5096748e-08 2.7974221e-04 -1.1199783e-08 
-1.7242471e-09 3.4303761e-05 7.8080751e-09 
1.0131909e-08 -4.5115110e-05 6.7544867e-09 
1.0027515e-08 -5.2009891e-05 -5.5890794e-09 
0.0000000e+00 -4.7805643e-05 0.0000000e+00 
0.0000000e+00 0.0000000e+00 0.0000000e+00 
0.0000000e+00 0.0000000e+00 0.0000000e+00 
0.0000000e+00 0.0000000e+00 0.0000000e+00 
0.0000000e+00 0.0000000e+00 0.0000000e+00 
0.0000000e+00 0.0000000e+00 0.0000000e+00 
0.0000000e+00 0.0000000e+00 0.0000000e+00 
0.0000000e+00 0.0000000e+00 0.0000000e+00 
0.0000000e+00 0.0000000e+00 0.0000000e+00 
0.0000000e+00 0.0000000e+00 0.0000000e+00 
0.0000000e+00 0.0000000e+00 0.0000000e+00 
0.0000000e+00 0.0000000e+00 0.0000000e+00 
0.0000000e+00 0.0000000e+00 0.0000000e+00 
0.0000000e+00 0.0000000e+00 0.0000000e+00 
0.0000000e+00 0.0000000e+00 0.0000000e+00 
0.0000000e+00 0.0000000e+00 0.0000000e+00 
0.0000000e+00 0.0000000e+00 0.0000000e+00 
0.0000000e+00 0.0000000e+00 0.0000000e+00 
0.0000000e+00 0.0000000e+00 0.0000000e+00 
0.0000000e+00 0.0000000e+00 0.0000000e+00 
0.0000000e+00 0.0000000e+00 0.0000000e+00 
0.0000000e+00 0.0000000e+00 0.0000000e+00 
0.0000000e+00 0.0000000e+00 0.0000000e+00 
0.0000000e+00 0.0000000e+00 0.0000000e+00 
0.0000000e+00 0.0000000e+00 0.0000000e+00 
0.0000000e+00 0.0000000e+00 0.0000000e+00 
0.0000000e+00 0.0000000e+00 0.0000000e+00 
0.0000000e+00 0.0000000e+00 0.0000000e+00 
0.0000000e+00 0.0000000e+00 0.0000000e+00 
0.0000000e+00 0.0000000e+00 0.0000000e+00 
0.0000000e+00 0.0000000e+00 0.0000000e+00 
0.0000000e+00 0.0000000e+00 0.0000000e+00 
0.0000000e+00 0.0000000e+00 0.0000000e+00 
0.0000000e+00 0.0000000e+00 0.0000000e+00 
0.0000000e+00 0.0000000e+00 0.0000000e+00 
0.0000000e+00 0.0000000e+00 0.0000000e+00 
0.0000000e+00 0.0000000e+00 0.0000000e+00 
0.0000000e+00 0.0000000e+00 0.0000000e+00 
0.0000000e+00 0.0000000e+00 0.0000000e+00 
0.0000000e+00 0.0000000e+00 0.0000000e+00 
0.0000000e+00 0.0000000e+00 0.0000000e+00 
0.0000000e+00 0.0000000e+00 0.0000000e+00 
0.0000000e+00 0.0000000e+00 0.0000000e+00 
0.0000000e+00 0.0000000e+00 0.0000000e+00 
0.0000000e+00 0.0000000e+00 0.0000000e+00 
0.0000000e+00 -1.2188778e-09 0.0000000e+00 
0.0000000e+00 1.5836982e-09 0.0000000e+00 
0.0000000e+00 5.6560490e-09 0.0000000e+00 
0.0000000e+00 9.0076693e-09 0.0000000e+00 
0.0000000e+00 -7.6492777e-09 0.0000000e+00 
0.0000000e+00 -2.0826834e-08 0.0000000e+00 
0.0000000e+00 -7.8660584e-08 0.0000000e+00 
0.0000000e+00 -1.6224308e-07 0.0000000e+00 
0.0000000e+00 -3.1439608e-08 0.0000000e+00 
0.0000000e+00 5.1921671e-07 0.0000000e+00 
0.0000000e+00 1.1928207e-06 0.0000000e+00 
0.0000000e+00 9.6662416e-07 0.0000000e+00 
0.0000000e+00 2.6406515e-06 0.0000000e+00 
0.0000000e+00 3.7059049e-06 0.0000000e+00 
0.0000000e+00 1.4599458e-06 0.0000000e+00 
0.0000000e+00 3.4491765e-07 0.0000000e+00 
0.0000000e+00 1.7515303e-07 0.0000000e+00 
0.0000000e+00 2.3050131e-07 0.0000000e+00 
0.0000000e+00 -2.2320017e-07 0.0000000e+00 
0.0000000e+00 1.8320028e-08 0.0000000e+00 
0.0000000e+00 3.2744079e-08 0.0000000e+00 
0.0000000e+00 5.3113219e-08 0.0000000e+00 
0.0000000e+00 5.4104063e-08 0.0000000e+00 
0.0000000e+00 -6.5949962e-08 0.0000000e+00 
0.0000000e+00 -3.9343399e-07 0.0000000e+00 
0.0000000e+00 -1.0391483e-06 0.0000000e+00 
0.0000000e+00 -1.5701496e-06 0.0000000e+00 
0.0000000e+00 -8.9346446e-07 0.0000000e+00 
0.0000000e+00 3.1945463e-06 0.0000000e+00 
0.0000000e+00 1.4322855e-05 0.0000000e+00 
0.0000000e+00 3.2244174e-05 0.0000000e+00 
0.0000000e+00 5.0635841e-05 0.0000000e+00 
0.0000000e+00 5.3383872e-05 0.0000000e+00 
0.0000000e+00 3.7382975e-05 0.0000000e+00 
0.0000000e+00 1.7324983e-05 0.0000000e+00 
0.0000000e+00 4.6328428e-06 0.0000000e+00 
0.0000000e+00 -5.0661237e-07 0.0000000e+00 
0.0000000e+00 -2.1569354e-06 0.0000000e+00 
0.0000000e+00 7.9394763e-10 0.0000000e+00 
0.0000000e+00 8.2317904e-09 0.0000000e+00 
0.0000000e+00 1.3065929e-08 0.0000000e+00 
0.0000000e+00 -3.0727853e-07 0.0000000e+00 
0.0000000e+00 -9.0365756e-07 0.0000000e+00 
0.0000000e+00 -1.8823112e-06 0.0000000e+00 
7.0174856e-12 -6.1917962e-07 -5.1694627e-14 
4.8734017e-11 -4.5427652e-07 9.3868012e-12 
3.9124138e-11 -4.5428084e-07 8.5857545e-12 
-5.0913135e-11 1.1065999e-07 -2.4391652e-11 
-4.0640730e-11 1.1067595e-07 -2.3678590e-11 
-2.5588853e-10 1.1748962e-06 -3.8973082e-11 
-2.1493940e-10 1.1749331e-06 -2.7619726e-11 
-5.1096016e-10 2.4529015e-06 -1.4175061e-10 
-4.4612902e-10 2.4530277e-06 -1.3823635e-10 
-4.8084403e-10 2.5174709e-06 1.1250750e-10 
-4.7159743e-10 2.5175509e-06 1.3828882e-10 
5.4001387e-10 -1.9685831e-06 4.9540316e-10 
3.2644326e-10 -1.9683966e-06 4.8573323e-10 
3.8978261e-09 -1.5635944e-05 2.5125078e-09 
2.7313567e-09 -1.5636617e-05 2.5201283e-09 
9.3792618e-09 -3.9536153e-05 3.4374303e-09 
6.9828956e-09 -3.9537008e-05 3.0745295e-09 
1.1080671e-08 -5.8650683e-05 -5.4303588e-09 
1.5230365e-08 -5.8649268e-05 -5.9482952e-09 
5.8445573e-09 -2.2873995e-05 -4.5386334e-10 
5.9437331e-09 -2.2874532e-05 -5.3171451e-10 
-3.8236070e-08 1.6146275e-04 -2.7267593e-08 
-2.5680015e-08 1.6146945e-04 -2.7393360e-08 
-1.2521394e-07 5.8347493e-04 -4.8244189e-08 
-1.0303382e-07 5.8350095e-04 -4.7844786e-08 
-2.4479326e-07 1.1470880e-03 -6.9241842e-08 
-2.1262555e-07 1.1471416e-03 -6.8143152e-08 
-2.7225130e-07 1.2551111e-03 -1.0389606e-07 
-2.2344152e-07 1.2551695e-03 -1.0308667e-07 
-1.4942098e-07 7.4735424e-04 -3.6531272e-08 
-1.1807689e-07 7.4736896e-04 -3.0392293e-08 
-4.8455981e-08 2.7966377e-04 -9.8467625e-09 
-4.3223849e-08 2.7967521e-04 -9.5182129e-09 
-6.1855315e-10 3.4299093e-05 5.9877614e-09 
-3.1417733e-09 3.4300403e-05 6.0759349e-09 
1.1520167e-08 -4.5098564e-05 5.4926330e-09 
9.0070813e-09 -4.5100860e-05 5.4701568e-09 
9.0907797e-09 -5.1995365e-05 -4.5391206e-09 
1.1257092e-08 -5.1993098e-05 -4.5710897e-09 
0.0000000e+00 -4.7319131e-09 0.0000000e+00 
0.0000000e+00 -3.6228293e-10 0.0000000e+00 
0.0000000e+00 8.0813063e-09 0.0000000e+00 
0.0000000e+00 2.1792932e-08 0.0000000e+00 
0.0000000e+00 3.3873757e-09 0.0000000e+00 
0.0000000e+00 -3.2609339e-08 0.0000000e+00 
0.0000000e+00 -1.2333629e-07 0.0000000e+00 
0.0000000e+00 -3.4825408e-07 0.0000000e+00 
0.0000000e+00 -5.2266802e-07 0.0000000e+00 
0.0000000e+00 1.4629255e-07 0.0000000e+00 
0.0000000e+00 -1.3273120e-06 0.0000000e+00 
0.0000000e+00 1.6887205e-06 0.0000000e+00 
0.0000000e+00 3.1626630e-06 0.0000000e+00 
0.0000000e+00 2.7587182e-06 0.0000000e+00 
0.0000000e+00 1.2979249e-06 0.0000000e+00 
0.0000000e+00 1.7591894e-08 0.0000000e+00 
0.0000000e+00 1.3906511e-07 0.0000000e+00 
0.0000000e+00 -2.7573600e-07 0.0000000e+00 
0.0000000e+00 -5.6872585e-07 0.0000000e+00 
0.0000000e+00 -5.8046474e-09 0.0000000e+00 
0.0000000e+00 -3.9446789e-07 0.0000000e+00 
0.0000000e+00 -2.4675002e-09 0.0000000e+00 
0.0000000e+00 1.1026529e-08 0.0000000e+00 
0.0000000e+00 -8.8227523e-07 0.0000000e+00 
0.0000000e+00 -1.9230731e-06 0.0000000e+00 
0.0000000e+00 1.9505846e-08 0.0000000e+00 
0.0000000e+00 -5.8670898e-06 0.0000000e+00 
1.0854554e-09 -4.7800160e-05 6.4630849e-11 
0.0000000e+00 0.0000000e+00 0.0000000e+00 
0.0000000e+00 0.0000000e+00 0.0000000e+00 
0.0000000e+00 0.0000000e+00 0.0000000e+00 
0.0000000e+00 0.0000000e+00 0.0000000e+00 
0.0000000e+00 0.0000000e+00 0.0000000e+00 
0.0000000e+00 0.0000000e+00 0.0000000e+00 
0.0000000e+00 0.0000000e+00 0.0000000e+00 
0.0000000e+00 0.0000000e+00 0.0000000e+00 
0.0000000e+00 0.0000000e+00 0.0000000e+00 
0.0000000e+00 0.0000000e+00 0.0000000e+00 
0.0000000e+00 0.0000000e+00 0.0000000e+00 
0.0000000e+00 0.0000000e+00 0.0000000e+00 
0.0000000e+00 0.0000000e+00 0.0000000e+00 
0.0000000e+00 0.0000000e+00 0.0000000e+00 
0.0000000e+00 0.0000000e+00 0.0000000e+00 
0.0000000e+00 0.0000000e+00 0.0000000e+00 
0.0000000e+00 0.0000000e+00 0.0000000e+00 
0.0000000e+00 0.0000000e+00 0.0000000e+00 