# vtk DataFile Version 4.0
vtk output
ASCII
DATASET UNSTRUCTURED_GRID
POINTS 1439 float
0.0000000e+00 0.0000000e+00 0.0000000e+00 
0.0000000e+00 0.0000000e+00 2.0000000e+01 
3.4700000e+00 0.0000000e+00 0.0000000e+00 
3.4700000e+00 0.0000000e+00 2.0000000e+01 
3.4700000e+00 1.0000000e+00 0.0000000e+00 
3.4700000e+00 1.0000000e+00 2.0000000e+01 
0.0000000e+00 1.0000000e+00 0.0000000e+00 
0.0000000e+00 1.0000000e+00 2.0000000e+01 
1.2500000e+00 2.5000000e+00 0.0000000e+00 
1.2500000e+00 2.5000000e+00 1.1700000e-01 
7.5000000e-01 2.5000000e+00 1.1700000e-01 
7.5000000e-01 2.5000000e+00 0.0000000e+00 
0.0000000e+00 2.5000000e+00 0.0000000e+00 
0.0000000e+00 2.5000000e+00 1.1700000e-01 
1.2500000e+00 2.8000000e+00 1.1700000e-01 
1.2500000e+00 2.8000000e+00 0.0000000e+00 
0.0000000e+00 2.8000000e+00 0.0000000e+00 
0.0000000e+00 2.8000000e+00 1.1700000e-01 
7.5000000e-01 2.5000000e+00 8.8300002e-01 
1.2500000e+00 2.5000000e+00 8.8300002e-01 
1.2500000e+00 2.5000000e+00 1.1170000e+00 
7.5000000e-01 2.5000000e+00 1.1170000e+00 
7.5000000e-01 2.5000000e+00 1.0000000e+00 
0.0000000e+00 2.5000000e+00 8.8300002e-01 
0.0000000e+00 2.5000000e+00 1.1170000e+00 
1.2500000e+00 2.8000000e+00 1.1170000e+00 
1.2500000e+00 2.8000000e+00 8.8300002e-01 
0.0000000e+00 2.8000000e+00 8.8300002e-01 
0.0000000e+00 2.8000000e+00 1.1170000e+00 
7.5000000e-01 2.5000000e+00 1.8830000e+00 
1.2500000e+00 2.5000000e+00 1.8830000e+00 
1.2500000e+00 2.5000000e+00 2.1170001e+00 
7.5000000e-01 2.5000000e+00 2.1170001e+00 
7.5000000e-01 2.5000000e+00 2.0000000e+00 
0.0000000e+00 2.5000000e+00 1.8830000e+00 
0.0000000e+00 2.5000000e+00 2.1170001e+00 
1.2500000e+00 2.8000000e+00 2.1170001e+00 
1.2500000e+00 2.8000000e+00 1.8830000e+00 
0.0000000e+00 2.8000000e+00 1.8830000e+00 
0.0000000e+00 2.8000000e+00 2.1170001e+00 
7.5000000e-01 2.5000000e+00 2.8829999e+00 
1.2500000e+00 2.5000000e+00 2.8829999e+00 
1.2500000e+00 2.5000000e+00 3.1170001e+00 
7.5000000e-01 2.5000000e+00 3.1170001e+00 
7.5000000e-01 2.5000000e+00 3.0000000e+00 
0.0000000e+00 2.5000000e+00 2.8829999e+00 
0.0000000e+00 2.5000000e+00 3.1170001e+00 
1.2500000e+00 2.8000000e+00 3.1170001e+00 
1.2500000e+00 2.8000000e+00 2.8829999e+00 
0.0000000e+00 2.8000000e+00 2.8829999e+00 
0.0000000e+00 2.8000000e+00 3.1170001e+00 
7.5000000e-01 2.5000000e+00 3.8829999e+00 
1.2500000e+00 2.5000000e+00 3.8829999e+00 
1.2500000e+00 2.5000000e+00 4.1170001e+00 
7.5000000e-01 2.5000000e+00 4.1170001e+00 
7.5000000e-01 2.5000000e+00 4.0000000e+00 
0.0000000e+00 2.5000000e+00 3.8829999e+00 
0.0000000e+00 2.5000000e+00 4.1170001e+00 
1.2500000e+00 2.8000000e+00 4.1170001e+00 
1.2500000e+00 2.8000000e+00 3.8829999e+00 
0.0000000e+00 2.8000000e+00 3.8829999e+00 
0.0000000e+00 2.8000000e+00 4.1170001e+00 
7.5000000e-01 2.5000000e+00 4.8829999e+00 
1.2500000e+00 2.5000000e+00 4.8829999e+00 
1.2500000e+00 2.5000000e+00 5.1170001e+00 
7.5000000e-01 2.5000000e+00 5.1170001e+00 
7.5000000e-01 2.5000000e+00 5.0000000e+00 
0.0000000e+00 2.5000000e+00 4.8829999e+00 
0.0000000e+00 2.5000000e+00 5.1170001e+00 
1.2500000e+00 2.8000000e+00 5.1170001e+00 
1.2500000e+00 2.8000000e+00 4.8829999e+00 
0.0000000e+00 2.8000000e+00 4.8829999e+00 
0.0000000e+00 2.8000000e+00 5.1170001e+00 
7.5000000e-01 2.5000000e+00 5.8829999e+00 
1.2500000e+00 2.5000000e+00 5.8829999e+00 
1.2500000e+00 2.5000000e+00 6.1170001e+00 
7.5000000e-01 2.5000000e+00 6.1170001e+00 
7.5000000e-01 2.5000000e+00 6.0000000e+00 
0.0000000e+00 2.5000000e+00 5.8829999e+00 
0.0000000e+00 2.5000000e+00 6.1170001e+00 
1.2500000e+00 2.8000000e+00 6.1170001e+00 
1.2500000e+00 2.8000000e+00 5.8829999e+00 
0.0000000e+00 2.8000000e+00 5.8829999e+00 
0.0000000e+00 2.8000000e+00 6.1170001e+00 
7.5000000e-01 2.5000000e+00 6.8829999e+00 
1.2500000e+00 2.5000000e+00 6.8829999e+00 
1.2500000e+00 2.5000000e+00 7.1170001e+00 
7.5000000e-01 2.5000000e+00 7.1170001e+00 
7.5000000e-01 2.5000000e+00 7.0000000e+00 
0.0000000e+00 2.5000000e+00 6.8829999e+00 
0.0000000e+00 2.5000000e+00 7.1170001e+00 
1.2500000e+00 2.8000000e+00 7.1170001e+00 
1.2500000e+00 2.8000000e+00 6.8829999e+00 
0.0000000e+00 2.8000000e+00 6.8829999e+00 
0.0000000e+00 2.8000000e+00 7.1170001e+00 
7.5000000e-01 2.5000000e+00 7.8829999e+00 
1.2500000e+00 2.5000000e+00 7.8829999e+00 
1.2500000e+00 2.5000000e+00 8.1169996e+00 
7.5000000e-01 2.5000000e+00 8.1169996e+00 
7.5000000e-01 2.5000000e+00 8.0000000e+00 
0.0000000e+00 2.5000000e+00 7.8829999e+00 
0.0000000e+00 2.5000000e+00 8.1169996e+00 
1.2500000e+00 2.8000000e+00 8.1169996e+00 
1.2500000e+00 2.8000000e+00 7.8829999e+00 
0.0000000e+00 2.8000000e+00 7.8829999e+00 
0.0000000e+00 2.8000000e+00 8.1169996e+00 
7.5000000e-01 2.5000000e+00 8.8830004e+00 
1.2500000e+00 2.5000000e+00 8.8830004e+00 
1.2500000e+00 2.5000000e+00 9.1169996e+00 
7.5000000e-01 2.5000000e+00 9.1169996e+00 
7.5000000e-01 2.5000000e+00 9.0000000e+00 
0.0000000e+00 2.5000000e+00 8.8830004e+00 
0.0000000e+00 2.5000000e+00 9.1169996e+00 
1.2500000e+00 2.8000000e+00 9.1169996e+00 
1.2500000e+00 2.8000000e+00 8.8830004e+00 
0.0000000e+00 2.8000000e+00 8.8830004e+00 
0.0000000e+00 2.8000000e+00 9.1169996e+00 
7.5000000e-01 2.5000000e+00 9.8830004e+00 
1.2500000e+00 2.5000000e+00 9.8830004e+00 
1.2500000e+00 2.5000000e+00 1.0117000e+01 
7.5000000e-01 2.5000000e+00 1.0117000e+01 
7.5000000e-01 2.5000000e+00 1.0000000e+01 
0.0000000e+00 2.5000000e+00 9.8830004e+00 
0.0000000e+00 2.5000000e+00 1.0117000e+01 
1.2500000e+00 2.8000000e+00 1.0117000e+01 
1.2500000e+00 2.8000000e+00 9.8830004e+00 
0.0000000e+00 2.8000000e+00 9.8830004e+00 
0.0000000e+00 2.8000000e+00 1.0117000e+01 
7.5000000e-01 2.5000000e+00 1.0883000e+01 
1.2500000e+00 2.5000000e+00 1.0883000e+01 
1.2500000e+00 2.5000000e+00 1.1117000e+01 
7.5000000e-01 2.5000000e+00 1.1117000e+01 
7.5000000e-01 2.5000000e+00 1.1000000e+01 
0.0000000e+00 2.5000000e+00 1.0883000e+01 
0.0000000e+00 2.5000000e+00 1.1117000e+01 
1.2500000e+00 2.8000000e+00 1.1117000e+01 
1.2500000e+00 2.8000000e+00 1.0883000e+01 
0.0000000e+00 2.8000000e+00 1.0883000e+01 
0.0000000e+00 2.8000000e+00 1.1117000e+01 
7.5000000e-01 2.5000000e+00 1.1883000e+01 
1.2500000e+00 2.5000000e+00 1.1883000e+01 
1.2500000e+00 2.5000000e+00 1.2117000e+01 
7.5000000e-01 2.5000000e+00 1.2117000e+01 
7.5000000e-01 2.5000000e+00 1.2000000e+01 
0.0000000e+00 2.5000000e+00 1.1883000e+01 
0.0000000e+00 2.5000000e+00 1.2117000e+01 
1.2500000e+00 2.8000000e+00 1.2117000e+01 
1.2500000e+00 2.8000000e+00 1.1883000e+01 
0.0000000e+00 2.8000000e+00 1.1883000e+01 
0.0000000e+00 2.8000000e+00 1.2117000e+01 
7.5000000e-01 2.5000000e+00 1.2883000e+01 
1.2500000e+00 2.5000000e+00 1.2883000e+01 
1.2500000e+00 2.5000000e+00 1.3117000e+01 
7.5000000e-01 2.5000000e+00 1.3117000e+01 
7.5000000e-01 2.5000000e+00 1.3000000e+01 
0.0000000e+00 2.5000000e+00 1.2883000e+01 
0.0000000e+00 2.5000000e+00 1.3117000e+01 
1.2500000e+00 2.8000000e+00 1.3117000e+01 
1.2500000e+00 2.8000000e+00 1.2883000e+01 
0.0000000e+00 2.8000000e+00 1.2883000e+01 
0.0000000e+00 2.8000000e+00 1.3117000e+01 
7.5000000e-01 2.5000000e+00 1.3883000e+01 
1.2500000e+00 2.5000000e+00 1.3883000e+01 
1.2500000e+00 2.5000000e+00 1.4117000e+01 
7.5000000e-01 2.5000000e+00 1.4117000e+01 
7.5000000e-01 2.5000000e+00 1.4000000e+01 
0.0000000e+00 2.5000000e+00 1.3883000e+01 
0.0000000e+00 2.5000000e+00 1.4117000e+01 
1.2500000e+00 2.8000000e+00 1.4117000e+01 
1.2500000e+00 2.8000000e+00 1.3883000e+01 
0.0000000e+00 2.8000000e+00 1.3883000e+01 
0.0000000e+00 2.8000000e+00 1.4117000e+01 
7.5000000e-01 2.5000000e+00 1.4883000e+01 
1.2500000e+00 2.5000000e+00 1.4883000e+01 
1.2500000e+00 2.5000000e+00 1.5117000e+01 
7.5000000e-01 2.5000000e+00 1.5117000e+01 
7.5000000e-01 2.5000000e+00 1.5000000e+01 
0.0000000e+00 2.5000000e+00 1.4883000e+01 
0.0000000e+00 2.5000000e+00 1.5117000e+01 
1.2500000e+00 2.8000000e+00 1.5117000e+01 
1.2500000e+00 2.8000000e+00 1.4883000e+01 
0.0000000e+00 2.8000000e+00 1.4883000e+01 
0.0000000e+00 2.8000000e+00 1.5117000e+01 
7.5000000e-01 2.5000000e+00 1.5883000e+01 
1.2500000e+00 2.5000000e+00 1.5883000e+01 
1.2500000e+00 2.5000000e+00 1.6117001e+01 
7.5000000e-01 2.5000000e+00 1.6117001e+01 
7.5000000e-01 2.5000000e+00 1.6000000e+01 
0.0000000e+00 2.5000000e+00 1.5883000e+01 
0.0000000e+00 2.5000000e+00 1.6117001e+01 
1.2500000e+00 2.8000000e+00 1.6117001e+01 
1.2500000e+00 2.8000000e+00 1.5883000e+01 
0.0000000e+00 2.8000000e+00 1.5883000e+01 
0.0000000e+00 2.8000000e+00 1.6117001e+01 
7.5000000e-01 2.5000000e+00 1.6882999e+01 
1.2500000e+00 2.5000000e+00 1.6882999e+01 
1.2500000e+00 2.5000000e+00 1.7117001e+01 
7.5000000e-01 2.5000000e+00 1.7117001e+01 
7.5000000e-01 2.5000000e+00 1.7000000e+01 
0.0000000e+00 2.5000000e+00 1.6882999e+01 
0.0000000e+00 2.5000000e+00 1.7117001e+01 
1.2500000e+00 2.8000000e+00 1.7117001e+01 
1.2500000e+00 2.8000000e+00 1.6882999e+01 
0.0000000e+00 2.8000000e+00 1.6882999e+01 
0.0000000e+00 2.8000000e+00 1.7117001e+01 
7.5000000e-01 2.5000000e+00 1.7882999e+01 
1.2500000e+00 2.5000000e+00 1.7882999e+01 
1.2500000e+00 2.5000000e+00 1.8117001e+01 
7.5000000e-01 2.5000000e+00 1.8117001e+01 
7.5000000e-01 2.5000000e+00 1.8000000e+01 
0.0000000e+00 2.5000000e+00 1.7882999e+01 
0.0000000e+00 2.5000000e+00 1.8117001e+01 
1.2500000e+00 2.8000000e+00 1.8117001e+01 
1.2500000e+00 2.8000000e+00 1.7882999e+01 
0.0000000e+00 2.8000000e+00 1.7882999e+01 
0.0000000e+00 2.8000000e+00 1.8117001e+01 
7.5000000e-01 2.5000000e+00 1.8882999e+01 
1.2500000e+00 2.5000000e+00 1.8882999e+01 
1.2500000e+00 2.5000000e+00 1.9117001e+01 
7.5000000e-01 2.5000000e+00 1.9117001e+01 
7.5000000e-01 2.5000000e+00 1.9000000e+01 
0.0000000e+00 2.5000000e+00 1.8882999e+01 
0.0000000e+00 2.5000000e+00 1.9117001e+01 
1.2500000e+00 2.8000000e+00 1.9117001e+01 
1.2500000e+00 2.8000000e+00 1.8882999e+01 
0.0000000e+00 2.8000000e+00 1.8882999e+01 
0.0000000e+00 2.8000000e+00 1.9117001e+01 
3.4700000e+00 2.5000000e+00 0.0000000e+00 
3.4700000e+00 2.5000000e+00 2.0000000e+01 
7.5000000e-01 2.5000000e+00 1.9882999e+01 
[...]
POINT_DATA 1439
FIELD FieldData 1
DISPLACEMENT 3 1439  float
0.0000000e+00 0.0000000e+00 0.0000000e+00 
0.0000000e+00 0.0000000e+00 0.0000000e+00 
0.0000000e+00 0.0000000e+00 0.0000000e+00 
0.0000000e+00 0.0000000e+00 0.0000000e+00 
0.0000000e+00 -5.5435226e-08 0.0000000e+00 
0.0000000e+00 -5.9612042e-08 0.0000000e+00 
0.0000000e+00 3.7309820e-07 0.0000000e+00 
0.0000000e+00 3.7894762e-07 0.0000000e+00 
0.0000000e+00 -3.5681255e-06 0.0000000e+00 
-1.9282265e-12 -3.5681323e-06 -9.4610387e-12 
1.8316345e-11 -3.5681933e-06 -1.3899912e-11 
0.0000000e+00 -3.5681755e-06 0.0000000e+00 
0.0000000e+00 -3.5687633e-06 0.0000000e+00 
0.0000000e+00 -3.5687599e-06 0.0000000e+00 
-9.8037715e-12 -3.5680530e-06 8.0451454e-16 
0.0000000e+00 -3.5680591e-06 0.0000000e+00 
0.0000000e+00 -3.5687226e-06 0.0000000e+00 
0.0000000e+00 -3.5687269e-06 0.0000000e+00 
-2.5624995e-11 -3.2164328e-06 -6.1719851e-11 
-4.6378540e-11 -3.2168832e-06 8.7860517e-11 
-1.1922033e-10 -3.2168289e-06 6.9530701e-11 
-4.3822477e-11 -3.2163955e-06 -8.0915594e-11 
-2.8748079e-11 -3.2164028e-06 -7.3177568e-11 
0.0000000e+00 -3.2162818e-06 0.0000000e+00 
0.0000000e+00 -3.2162523e-06 0.0000000e+00 
1.4973853e-10 -3.2167759e-06 7.6290528e-12 
2.1860079e-10 -3.2168248e-06 8.3481069e-12 
0.0000000e+00 -3.2162698e-06 0.0000000e+00 
0.0000000e+00 -3.2162507e-06 0.0000000e+00 
-7.4561878e-11 -2.2004651e-06 -5.2888045e-11 
-8.6334564e-11 -2.2007303e-06 -1.0975870e-10 
-6.6795167e-11 -2.2007498e-06 -1.1011720e-10 
-5.1423279e-11 -2.2004776e-06 -5.6193217e-11 
-6.2140057e-11 -2.2004681e-06 -5.4311545e-11 
0.0000000e+00 -2.2002587e-06 0.0000000e+00 
0.0000000e+00 -2.2002648e-06 0.0000000e+00 
9.0643194e-11 -2.2007455e-06 -8.5709530e-11 
6.8918905e-11 -2.2007275e-06 -8.1825463e-11 
0.0000000e+00 -2.2002700e-06 0.0000000e+00 
0.0000000e+00 -2.2002764e-06 0.0000000e+00 
-4.8511323e-11 -6.2606813e-07 4.8771469e-12 
-1.8218814e-11 -6.2630562e-07 -1.0673783e-10 
2.6527461e-11 -6.2636730e-07 -8.9131161e-11 
-4.4913333e-11 -6.2611099e-07 2.6542282e-11 
-4.8259428e-11 -6.2609723e-07 1.6524365e-11 
0.0000000e+00 -6.2562248e-07 0.0000000e+00 
0.0000000e+00 -6.2565044e-07 0.0000000e+00 
1.6392232e-10 -6.2642431e-07 -2.2916780e-11 
1.0009665e-10 -6.2636207e-07 -2.2074799e-11 
0.0000000e+00 -6.2569057e-07 0.0000000e+00 
0.0000000e+00 -6.2569961e-07 0.0000000e+00 
1.0916327e-10 1.3375037e-06 -1.1131991e-10 
2.5430863e-10 1.3378093e-06 -9.1969557e-11 
2.4417385e-10 1.3377096e-06 -5.1937454e-11 
1.1172616e-10 1.3374190e-06 -5.7260714e-11 
9.8228876e-11 1.3374338e-06 -8.1726452e-11 
0.0000000e+00 1.3377831e-06 0.0000000e+00 
0.0000000e+00 1.3377465e-06 0.0000000e+00 
5.3577882e-11 1.3375711e-06 4.0546230e-11 
5.0923647e-11 1.3376675e-06 5.9695533e-11 
0.0000000e+00 1.3376731e-06 0.0000000e+00 
0.0000000e+00 1.3376563e-06 0.0000000e+00 
1.8384451e-10 3.4875702e-06 2.3833735e-10 
3.7596354e-10 3.4880034e-06 4.2970433e-10 
2.9432143e-10 3.4880625e-06 4.8050541e-10 
9.7869234e-11 3.4876221e-06 3.1537883e-10 
1.2227554e-10 3.4875629e-06 2.7285144e-10 
0.0000000e+00 3.4880593e-06 0.0000000e+00 
0.0000000e+00 3.4880916e-06 0.0000000e+00 
4.7691916e-12 3.4878619e-06 3.6108042e-10 
7.8008530e-11 3.4877871e-06 3.8153616e-10 
0.0000000e+00 3.4879217e-06 0.0000000e+00 
0.0000000e+00 3.4879542e-06 0.0000000e+00 
2.0361574e-10 5.6322447e-06 -1.5448776e-10 
4.2210793e-10 5.6332028e-06 -5.5273491e-10 
6.1196376e-10 5.6331151e-06 -4.7030679e-10 
3.0737099e-10 5.6321796e-06 -6.4495624e-11 
2.3283422e-10 5.6321633e-06 -1.0393293e-10 
0.0000000e+00 5.6325384e-06 0.0000000e+00 
0.0000000e+00 5.6324816e-06 0.0000000e+00 
1.9496422e-11 5.6328331e-06 -3.9799758e-10 
-1.6105796e-10 5.6329231e-06 -3.7451842e-10 
0.0000000e+00 5.6323770e-06 0.0000000e+00 
0.0000000e+00 5.6323402e-06 0.0000000e+00 
3.5424516e-10 7.5837670e-06 -1.6951487e-11 
6.7435130e-10 7.5849548e-06 8.5503264e-11 
6.2122113e-10 7.5848711e-06 1.6974724e-10 
3.0918557e-10 7.5837197e-06 9.7281121e-11 
3.0728892e-10 7.5836815e-06 4.0566484e-11 
0.0000000e+00 7.5840821e-06 0.0000000e+00 
0.0000000e+00 7.5840635e-06 0.0000000e+00 
-1.0529453e-10 7.5845569e-06 2.1416811e-10 
-5.6743825e-11 7.5846206e-06 2.2510320e-10 
0.0000000e+00 7.5839048e-06 0.0000000e+00 
0.0000000e+00 7.5839016e-06 0.0000000e+00 
5.3077515e-10 9.1428001e-06 2.5053194e-11 
8.7768864e-10 9.1445509e-06 1.6484404e-10 
8.1520479e-10 9.1445118e-06 2.5823324e-10 
4.7873827e-10 9.1427637e-06 1.3515299e-10 
4.7881848e-10 9.1427228e-06 8.0818213e-11 
0.0000000e+00 9.1424581e-06 0.0000000e+00 
0.0000000e+00 9.1424690e-06 0.0000000e+00 
-2.5790825e-10 9.1441534e-06 2.5926505e-10 
-1.9405651e-10 9.1441989e-06 2.8081404e-10 
0.0000000e+00 9.1423017e-06 0.0000000e+00 
0.0000000e+00 9.1422771e-06 0.0000000e+00 
2.9965777e-10 1.0164753e-05 -6.5877560e-11 
7.8023332e-10 1.0166094e-05 -3.7421663e-11 
7.8310602e-10 1.0166134e-05 1.9801558e-11 
2.9844704e-10 1.0164777e-05 7.6733564e-11 
2.5199406e-10 1.0164671e-05 2.0906553e-12 
0.0000000e+00 1.0165592e-05 0.0000000e+00 
0.0000000e+00 1.0165606e-05 0.0000000e+00 
-6.1311858e-11 1.0165739e-05 -6.3841141e-11 
-5.0699497e-11 1.0165712e-05 -2.8881404e-11 
0.0000000e+00 1.0165444e-05 0.0000000e+00 
0.0000000e+00 1.0165434e-05 0.0000000e+00 
-1.6245207e-10 1.0567769e-05 4.0986284e-11 
4.5194973e-10 1.0567336e-05 5.0011373e-10 
2.9084016e-10 1.0567172e-05 5.7695271e-10 
-2.9537911e-10 1.0567612e-05 3.3061057e-10 
-2.9935601e-10 1.0567499e-05 1.8448931e-10 
0.0000000e+00 1.0571978e-05 0.0000000e+00 
0.0000000e+00 1.0571960e-05 0.0000000e+00 
4.0600343e-10 1.0566820e-05 7.0068218e-10 
5.5871707e-10 1.0566953e-05 7.7270812e-10 
0.0000000e+00 1.0571776e-05 0.0000000e+00 
0.0000000e+00 1.0571854e-05 0.0000000e+00 
3.7345965e-10 1.0274978e-05 1.8833515e-11 
7.9950280e-10 1.0276413e-05 1.3520836e-10 
7.5832285e-10 1.0276429e-05 2.2927681e-10 
3.3695752e-10 1.0274994e-05 1.7647221e-10 
3.0685954e-10 1.0274891e-05 9.7628239e-11 
0.0000000e+00 1.0275776e-05 0.0000000e+00 
0.0000000e+00 1.0275785e-05 0.0000000e+00 
-1.3597685e-10 1.0276065e-05 1.3410875e-10 
-1.1223465e-10 1.0276040e-05 1.7685103e-10 
0.0000000e+00 1.0275588e-05 0.0000000e+00 
0.0000000e+00 1.0275640e-05 0.0000000e+00 
5.6808663e-10 9.3331901e-06 1.0455144e-10 
9.0179042e-10 9.3349654e-06 3.5775566e-10 
7.9396545e-10 9.3349872e-06 4.4694912e-10 
4.8449195e-10 9.3331955e-06 2.0487118e-10 
4.9769522e-10 9.3331382e-06 1.4858895e-10 
0.0000000e+00 9.3328099e-06 0.0000000e+00 
0.0000000e+00 9.3328545e-06 0.0000000e+00 
-2.7979555e-10 9.3346262e-06 3.6086503e-10 
-1.7427106e-10 9.3346134e-06 3.9298637e-10 
0.0000000e+00 9.3326607e-06 0.0000000e+00 
0.0000000e+00 9.3326598e-06 0.0000000e+00 
3.9328657e-10 7.8301955e-06 1.7322237e-10 
6.2886729e-10 7.8313278e-06 -1.8404339e-10 
8.2368035e-10 7.8311623e-06 -1.0641378e-10 
4.1452161e-10 7.8300454e-06 2.9000663e-10 
3.7580172e-10 7.8300554e-06 2.3372951e-10 
0.0000000e+00 7.8305102e-06 0.0000000e+00 
0.0000000e+00 7.8304511e-06 0.0000000e+00 
1.1676669e-10 7.8308512e-06 7.2445119e-11 
-6.4808714e-11 7.8310104e-06 9.6530388e-11 
0.0000000e+00 7.8303201e-06 0.0000000e+00 
0.0000000e+00 7.8302746e-06 0.0000000e+00 
2.8975838e-10 5.8741566e-06 -2.2488530e-11 
5.6244270e-10 5.8749793e-06 6.5010317e-11 
5.2770410e-10 5.8749401e-06 1.3771882e-10 
2.6146244e-10 5.8741171e-06 7.4357902e-11 
2.5278890e-10 5.8740816e-06 2.7178582e-11 
0.0000000e+00 5.8745495e-06 0.0000000e+00 
0.0000000e+00 5.8745431e-06 0.0000000e+00 
1.7542441e-11 5.8746655e-06 1.3289617e-10 
4.4120346e-11 5.8747028e-06 1.6013041e-10 
0.0000000e+00 5.8743735e-06 0.0000000e+00 
0.0000000e+00 5.8743749e-06 0.0000000e+00 
2.1818719e-10 3.6561298e-06 -1.0695151e-10 
4.5570184e-10 3.6567628e-06 1.0425985e-10 
3.4743794e-10 3.6565064e-06 1.6985723e-10 
1.5531761e-10 3.6559416e-06 -2.8898385e-11 
1.7655477e-10 3.6559863e-06 -6.2518102e-11 
0.0000000e+00 3.6564329e-06 0.0000000e+00 
0.0000000e+00 3.6563713e-06 0.0000000e+00 
-5.1628885e-11 3.6562851e-06 4.5304366e-10 
6.0429758e-11 3.6565491e-06 4.8370868e-10 
0.0000000e+00 3.6562826e-06 0.0000000e+00 
0.0000000e+00 3.6562199e-06 0.0000000e+00 
1.2103397e-10 1.4060724e-06 1.0744722e-10 
2.4703309e-10 1.4063161e-06 1.4370825e-10 
2.4300120e-10 1.4064523e-06 1.7526754e-10 
9.9378603e-11 1.4061783e-06 1.5675708e-10 
9.6990270e-11 1.4060998e-06 1.3080940e-10 
0.0000000e+00 1.4064036e-06 0.0000000e+00 
0.0000000e+00 1.4064481e-06 0.0000000e+00 
6.0563311e-11 1.4063173e-06 -1.6938707e-11 
7.1144431e-11 1.4061736e-06 1.0772633e-12 
0.0000000e+00 1.4063105e-06 0.0000000e+00 
0.0000000e+00 1.4063552e-06 0.0000000e+00 
2.6842322e-11 -6.3726571e-07 3.4513222e-11 
8.1035824e-11 -6.3727992e-07 1.0209111e-10 
5.4920197e-11 -6.3727350e-07 1.0884937e-10 
9.2705904e-12 -6.3725776e-07 5.7196786e-11 
1.2416332e-11 -6.3727128e-07 4.6074526e-11 
0.0000000e+00 -6.3704323e-07 0.0000000e+00 
0.0000000e+00 -6.3703345e-07 0.0000000e+00 
5.3515237e-11 -6.3734433e-07 9.4292803e-11 
8.2991732e-11 -6.3735428e-07 9.7346520e-11 
0.0000000e+00 -6.3710291e-07 0.0000000e+00 
0.0000000e+00 -6.3708984e-07 0.0000000e+00 
-1.9366462e-11 -2.2575418e-06 -4.2861301e-10 
2.4402617e-11 -2.2578397e-06 -1.4403422e-10 
-1.3018633e-10 -2.2585830e-06 -1.5125713e-10 
-7.2628424e-11 -2.2581157e-06 -4.2690482e-10 
-4.1614372e-11 -2.2578304e-06 -4.2041690e-10 
0.0000000e+00 -2.2574166e-06 0.0000000e+00 
0.0000000e+00 -2.2576423e-06 0.0000000e+00 
8.9466927e-11 -2.2585784e-06 7.8337931e-10 
2.4175384e-10 -2.2578245e-06 7.8080004e-10 
0.0000000e+00 -2.2575020e-06 0.0000000e+00 
0.0000000e+00 -2.2576714e-06 0.0000000e+00 
-9.7802294e-11 -3.3009856e-06 3.9494078e-11 
-1.4578956e-10 -3.3014387e-06 7.1958106e-11 
-1.6282485e-10 -3.3014030e-06 5.8028148e-11 
-1.0395068e-10 -3.3009608e-06 2.4292044e-11 
-9.5691080e-11 -3.3009635e-06 3.1214697e-11 
0.0000000e+00 -3.3008030e-06 0.0000000e+00 
0.0000000e+00 -3.3007943e-06 0.0000000e+00 
1.0382654e-10 -3.3013562e-06 2.1442252e-11 
1.1518456e-10 -3.3013889e-06 2.0001660e-11 
0.0000000e+00 -3.3007957e-06 0.0000000e+00 
0.0000000e+00 -3.3007909e-06 0.0000000e+00 
0.0000000e+00 -1.4898346e-07 0.0000000e+00 
0.0000000e+00 -1.4339915e-07 0.0000000e+00 
-4.0235901e-11 -3.6647139e-06 1.0586253e-11 
-3.9813493e-11 -3.6654772e-06 1.4329748e-11 
0.0000000e+00 -3.6654892e-06 0.0000000e+00 
0.0000000e+00 -3.6647002e-06 0.0000000e+00 
0.0000000e+00 -3.6644897e-06 0.0000000e+00 
0.0000000e+00 -3.6644851e-06 0.0000000e+00 
0.0000000e+00 -3.6653992e-06 0.0000000e+00 
9.2303276e-11 -3.6654155e-06 -8.3210348e-12 
0.0000000e+00 -3.6644626e-06 0.0000000e+00 
0.0000000e+00 -3.6644542e-06 0.0000000e+00 
0.0000000e+00 -3.5697444e-06 0.0000000e+00 
0.0000000e+00 -3.2193298e-06 0.0000000e+00 
0.0000000e+00 -2.2026206e-06 0.0000000e+00 
0.0000000e+00 -6.2687451e-07 0.0000000e+00 
0.0000000e+00 1.3384288e-06 0.0000000e+00 
0.0000000e+00 3.4915761e-06 0.0000000e+00 
0.0000000e+00 5.6382901e-06 0.0000000e+00 
0.0000000e+00 7.5895650e-06 0.0000000e+00 
0.0000000e+00 9.1665697e-06 0.0000000e+00 
0.0000000e+00 1.0142729e-05 0.0000000e+00 
0.0000000e+00 1.0425690e-05 0.0000000e+00 
0.0000000e+00 1.0252936e-05 0.0000000e+00 
0.0000000e+00 9.3576082e-06 0.0000000e+00 
0.0000000e+00 7.8360781e-06 0.0000000e+00 
0.0000000e+00 5.8801534e-06 0.0000000e+00 
0.0000000e+00 3.6600572e-06 0.0000000e+00 
0.0000000e+00 1.4072106e-06 0.0000000e+00 
0.0000000e+00 -6.3792027e-07 0.0000000e+00 
0.0000000e+00 -2.2601312e-06 0.0000000e+00 
0.0000000e+00 -3.3040380e-06 0.0000000e+00 
0.0000000e+00 -3.6662607e-06 0.0000000e+00 
0.0000000e+00 -3.5680948e-06 0.0000000e+00 
1.2034758e-10 -3.2163275e-06 -1.0724011e-10 
6.6370388e-11 -2.2004745e-06 -4.0037456e-11 
1.3958996e-10 -6.2624167e-07 5.7583247e-11 
1.0236959e-10 1.3371495e-06 3.7503136e-11 
1.3474999e-10 3.4871584e-06 1.9477248e-10 
6.9816895e-11 5.6316903e-06 -6.0968230e-11 
9.3416941e-11 7.5831108e-06 1.1160208e-10 
-5.6050234e-11 9.1421916e-06 1.3590877e-10 
1.8163343e-10 1.0163849e-05 -3.3933491e-11 
1.0039178e-09 1.0565827e-05 4.1429959e-10 
1.6083194e-10 1.0274066e-05 6.9437130e-11 
-7.1866554e-11 9.3326498e-06 1.5066666e-10 
1.7791570e-10 7.8294543e-06 3.7503495e-10 
1.4900813e-10 5.8735736e-06 7.5694506e-11 
1.0805184e-10 3.6555878e-06 2.3237041e-10 
1.1151333e-10 1.4058104e-06 -2.0934476e-11 
7.9082858e-11 -6.3741237e-07 3.7825128e-11 
1.3407460e-10 -2.2578679e-06 4.3476420e-10 
6.6323780e-11 -3.3009023e-06 -3.5276705e-13 
0.0000000e+00 -3.6646341e-06 0.0000000e+00 
0.0000000e+00 0.0000000e+00 0.0000000e+00 
0.0000000e+00 0.0000000e+00 0.0000000e+00 
0.0000000e+00 0.0000000e+00 0.0000000e+00 
0.0000000e+00 0.0000000e+00 0.0000000e+00 
0.0000000e+00 0.0000000e+00 0.0000000e+00 
0.0000000e+00 0.0000000e+00 0.0000000e+00 
0.0000000e+00 0.0000000e+00 0.0000000e+00 
0.0000000e+00 0.0000000e+00 0.0000000e+00 
0.0000000e+00 0.0000000e+00 0.0000000e+00 
0.0000000e+00 0.0000000e+00 0.0000000e+00 
0.0000000e+00 0.0000000e+00 0.0000000e+00 
0.0000000e+00 0.0000000e+00 0.0000000e+00 
0.0000000e+00 0.0000000e+00 0.0000000e+00 
0.0000000e+00 0.0000000e+00 0.0000000e+00 
0.0000000e+00 0.0000000e+00 0.0000000e+00 
0.0000000e+00 0.0000000e+00 0.0000000e+00 
0.0000000e+00 0.0000000e+00 0.0000000e+00 
0.0000000e+00 0.0000000e+00 0.0000000e+00 
0.0000000e+00 0.0000000e+00 0.0000000e+00 
0.0000000e+00 0.0000000e+00 0.0000000e+00 
0.0000000e+00 0.0000000e+00 0.0000000e+00 
0.0000000e+00 0.0000000e+00 0.0000000e+00 
0.0000000e+00 0.0000000e+00 0.0000000e+00 
0.0000000e+00 0.0000000e+00 0.0000000e+00 
0.0000000e+00 0.0000000e+00 0.0000000e+00 
0.0000000e+00 0.0000000e+00 0.0000000e+00 
0.0000000e+00 0.0000000e+00 0.0000000e+00 
0.0000000e+00 0.0000000e+00 0.0000000e+00 
0.0000000e+00 0.0000000e+00 0.0000000e+00 
0.0000000e+00 0.0000000e+00 0.0000000e+00 
0.0000000e+00 0.0000000e+00 0.0000000e+00 
0.0000000e+00 0.0000000e+00 0.0000000e+00 
0.0000000e+00 0.0000000e+00 0.0000000e+00 
0.0000000e+00 0.0000000e+00 0.0000000e+00 
0.0000000e+00 0.0000000e+00 0.0000000e+00 
0.0000000e+00 0.0000000e+00 0.0000000e+00 
0.0000000e+00 0.0000000e+00 0.0000000e+00 
0.0000000e+00 0.0000000e+00 0.0000000e+00 
0.0000000e+00 0.0000000e+00 0.0000000e+00 
0.0000000e+00 0.0000000e+00 0.0000000e+00 
0.0000000e+00 0.0000000e+00 0.0000000e+00 
0.0000000e+00 0.0000000e+00 0.0000000e+00 
0.0000000e+00 0.0000000e+00 0.0000000e+00 
0.0000000e+00 0.0000000e+00 0.0000000e+00 
0.0000000e+00 -4.8137544e-08 0.0000000e+00 
0.0000000e+00 -2.8670449e-08 0.0000000e+00 
0.0000000e+00 4.9984781e-09 0.0000000e+00 
0.0000000e+00 3.4434422e-08 0.0000000e+00 
0.0000000e+00 5.7434292e-08 0.0000000e+00 
0.0000000e+00 8.5857486e-08 0.0000000e+00 
0.0000000e+00 1.3131847e-07 0.0000000e+00 
0.0000000e+00 1.6008441e-07 0.0000000e+00 
0.0000000e+00 1.2764981e-07 0.0000000e+00 
0.0000000e+00 1.4457163e-07 0.0000000e+00 
0.0000000e+00 1.4137666e-07 0.0000000e+00 
0.0000000e+00 1.5944076e-07 0.0000000e+00 
0.0000000e+00 1.3582064e-07 0.0000000e+00 
0.0000000e+00 8.1024709e-08 0.0000000e+00 
0.0000000e+00 7.9317701e-08 0.0000000e+00 
0.0000000e+00 4.6314923e-08 0.0000000e+00 
0.0000000e+00 -2.4819815e-09 0.0000000e+00 
0.0000000e+00 -2.2738169e-08 0.0000000e+00 
0.0000000e+00 -3.2764959e-08 0.0000000e+00 
0.0000000e+00 3.0897732e-07 0.0000000e+00 
0.0000000e+00 1.6747234e-07 0.0000000e+00 
0.0000000e+00 -6.5379185e-10 0.0000000e+00 
0.0000000e+00 -2.3629093e-07 0.0000000e+00 
0.0000000e+00 -5.3204195e-07 0.0000000e+00 
0.0000000e+00 -7.5531244e-07 0.0000000e+00 
0.0000000e+00 -9.0471048e-07 0.0000000e+00 
0.0000000e+00 -1.0404998e-06 0.0000000e+00 
0.0000000e+00 -1.1207942e-06 0.0000000e+00 
0.0000000e+00 -1.2560193e-06 0.0000000e+00 
0.0000000e+00 -1.1673320e-06 0.0000000e+00 
0.0000000e+00 -1.0929297e-06 0.0000000e+00 
0.0000000e+00 -9.1065999e-07 0.0000000e+00 
0.0000000e+00 -7.7344907e-07 0.0000000e+00 
0.0000000e+00 -5.3972514e-07 0.0000000e+00 
0.0000000e+00 -2.5464576e-07 0.0000000e+00 
0.0000000e+00 -2.0104659e-08 0.0000000e+00 
0.0000000e+00 1.6383571e-07 0.0000000e+00 
0.0000000e+00 3.2013378e-07 0.0000000e+00 
0.0000000e+00 -2.5419997e-08 0.0000000e+00 
0.0000000e+00 1.1126132e-07 0.0000000e+00 
0.0000000e+00 2.7622181e-07 0.0000000e+00 
0.0000000e+00 -1.7943549e-08 0.0000000e+00 
0.0000000e+00 9.9060721e-08 0.0000000e+00 
0.0000000e+00 2.7562882e-07 0.0000000e+00 
-2.5322357e-11 -3.5682065e-06 2.2961589e-12 
1.0090342e-10 -3.2163259e-06 -1.2525188e-10 
1.0170031e-10 -3.2162966e-06 -1.2680336e-10 
5.2324270e-11 -2.2004162e-06 -2.4352471e-11 
6.6514655e-11 -2.2004278e-06 -2.5776551e-11 
1.4009470e-10 -6.2607711e-07 7.1888474e-11 
1.2165907e-10 -6.2611218e-07 7.2894392e-11 
1.1455417e-10 1.3373350e-06 2.3090923e-11 
1.0337442e-10 1.3372547e-06 3.4988692e-11 
1.8617830e-10 3.4873574e-06 1.5032939e-10 
9.5149909e-11 3.4873851e-06 1.5857231e-10 
4.5322208e-11 5.6318809e-06 2.2433787e-12 
1.3242375e-10 5.6318495e-06 1.9520153e-11 
1.4011962e-10 7.5833527e-06 8.1671413e-11 
8.4138939e-11 7.5832959e-06 9.2865937e-11 
-1.3033130e-11 9.1422498e-06 1.0136395e-10 
-5.6815427e-11 9.1422044e-06 1.0969350e-10 
1.8148877e-10 1.0164272e-05 -1.9283639e-11 
2.3069116e-10 1.0164302e-05 -2.8326317e-11 
1.1184136e-09 1.0567630e-05 3.4812125e-10 
9.6059616e-10 1.0567368e-05 3.3686312e-10 
2.4363969e-10 1.0274499e-05 4.3484393e-11 
1.6910968e-10 1.0274474e-05 6.2999370e-11 
5.5610048e-12 9.3326453e-06 7.7746969e-11 
-7.9087029e-11 9.3326516e-06 1.0389656e-10 
2.1544715e-10 7.8297599e-06 4.2092221e-10 
1.6815915e-10 7.8296080e-06 4.3541190e-10 
1.8157532e-10 5.8738187e-06 5.1379973e-11 
1.4160882e-10 5.8737719e-06 6.2554670e-11 
1.5229203e-10 3.6558408e-06 1.8846139e-10 
9.0917954e-11 3.6556949e-06 1.6229559e-10 
1.2518424e-10 1.4059198e-06 -2.9261555e-11 
1.0429960e-10 1.4059966e-06 -1.9801889e-11 
8.6690523e-11 -6.3732176e-07 1.8959570e-11 
6.3806196e-11 -6.3731687e-07 2.3219347e-11 
1.4402511e-10 -2.2575366e-06 3.3359940e-10 
9.6733399e-11 -2.2580309e-06 3.5515677e-10 
6.0239931e-11 -3.3008794e-06 -2.7523522e-12 
4.9328881e-11 -3.3008605e-06 -5.5933851e-12 
0.0000000e+00 -1.2327048e-07 0.0000000e+00 
0.0000000e+00 -7.9109689e-08 0.0000000e+00 
0.0000000e+00 -7.2797279e-09 0.0000000e+00 
0.0000000e+00 1.0806585e-07 0.0000000e+00 
0.0000000e+00 2.1929019e-07 0.0000000e+00 
0.0000000e+00 3.0994789e-07 0.0000000e+00 
0.0000000e+00 3.9387223e-07 0.0000000e+00 
0.0000000e+00 4.4413054e-07 0.0000000e+00 
0.0000000e+00 5.3656709e-07 0.0000000e+00 
0.0000000e+00 4.9953553e-07 0.0000000e+00 
0.0000000e+00 6.3412335e-07 0.0000000e+00 
0.0000000e+00 4.3710003e-07 0.0000000e+00 
0.0000000e+00 3.8592947e-07 0.0000000e+00 
0.0000000e+00 3.2049988e-07 0.0000000e+00 
0.0000000e+00 2.3262963e-07 0.0000000e+00 
0.0000000e+00 1.2500659e-07 0.0000000e+00 
0.0000000e+00 5.9161791e-09 0.0000000e+00 
0.0000000e+00 -6.8891218e-08 0.0000000e+00 
0.0000000e+00 -1.2114853e-07 0.0000000e+00 
0.0000000e+00 -1.1623531e-07 0.0000000e+00 
0.0000000e+00 -1.2783676e-07 0.0000000e+00 
0.0000000e+00 -9.2617078e-08 0.0000000e+00 
0.0000000e+00 1.2805705e-07 0.0000000e+00 
0.0000000e+00 -7.7962980e-08 0.0000000e+00 
0.0000000e+00 1.3913599e-07 0.0000000e+00 
0.0000000e+00 8.1481932e-07 0.0000000e+00 
0.0000000e+00 8.1933376e-07 0.0000000e+00 
7.0747058e-12 -3.6645770e-06 1.0766456e-13 
0.0000000e+00 0.0000000e+00 0.0000000e+00 
0.0000000e+00 0.0000000e+00 0.0000000e+00 
0.0000000e+00 0.0000000e+00 0.0000000e+00 
0.0000000e+00 0.0000000e+00 0.0000000e+00 
0.0000000e+00 0.0000000e+00 0.0000000e+00 
0.0000000e+00 0.0000000e+00 0.0000000e+00 
0.0000000e+00 0.0000000e+00 0.0000000e+00 
0.0000000e+00 0.0000000e+00 0.0000000e+00 
0.0000000e+00 0.0000000e+00 0.0000000e+00 
0.0000000e+00 0.0000000e+00 0.0000000e+00 
0.0000000e+00 0.0000000e+00 0.0000000e+00 
0.0000000e+00 0.0000000e+00 0.0000000e+00 
0.0000000e+00 0.0000000e+00 0.0000000e+00 
0.0000000e+00 0.0000000e+00 0.0000000e+00 
0.0000000e+00 0.0000000e+00 0.0000000e+00 
0.0000000e+00 0.0000000e+00 0.0000000e+00 
0.0000000e+00 0.0000000e+00 0.0000000e+00 
0.0000000e+00 0.0000000e+00 0.0000000e+00 
0.0000000e+00 0.0000000e+00 0.0000000e+00 
0.0000000e+00 0.0000000e+00 0.0000000e+00 
0.0000000e+00 0.0000000e+00 0.0000000e+00 