# vtk DataFile Version 4.0
vtk output
ASCII
DATASET UNSTRUCTURED_GRID
POINTS 1439 float
0.0000000e+00 0.0000000e+00 0.0000000e+00 
0.0000000e+00 0.0000000e+00 2.0000000e+01 
3.4700000e+00 0.0000000e+00 0.0000000e+00 
3.4700000e+00 0.0000000e+00 2.0000000e+01 
3.4700000e+00 1.0000000e+00 0.0000000e+00 
3.4700000e+00 1.0000000e+00 2.0000000e+01 
0.0000000e+00 1.0000000e+00 0.0000000e+00 
0.0000000e+00 1.0000000e+00 2.0000000e+01 
1.2500000e+00 2.5000000e+00 0.0000000e+00 
1.2500000e+00 2.5000000e+00 1.1700000e-01 
7.5000000e-01 2.5000000e+00 1.1700000e-01 
7.5000000e-01 2.5000000e+00 0.0000000e+00 
0.0000000e+00 2.5000000e+00 0.0000000e+00 
0.0000000e+00 2.5000000e+00 1.1700000e-01 
1.2500000e+00 2.8000000e+00 1.1700000e-01 
1.2500000e+00 2.8000000e+00 0.0000000e+00 
0.0000000e+00 2.8000000e+00 0.0000000e+00 
0.0000000e+00 2.8000000e+00 1.1700000e-01 
7.5000000e-01 2.5000000e+00 8.8300002e-01 
1.2500000e+00 2.5000000e+00 8.8300002e-01 
1.2500000e+00 2.5000000e+00 1.1170000e+00 
7.5000000e-01 2.5000000e+00 1.1170000e+00 
7.5000000e-01 2.5000000e+00 1.0000000e+00 
0.0000000e+00 2.5000000e+00 8.8300002e-01 
0.0000000e+00 2.5000000e+00 1.1170000e+00 
1.2500000e+00 2.8000000e+00 1.1170000e+00 
1.2500000e+00 2.8000000e+00 8.8300002e-01 
0.0000000e+00 2.8000000e+00 8.8300002e-01 
0.0000000e+00 2.8000000e+00 1.1170000e+00 
7.5000000e-01 2.5000000e+00 1.8830000e+00 
1.2500000e+00 2.5000000e+00 1.8830000e+00 
1.2500000e+00 2.5000000e+00 2.1170001e+00 
7.5000000e-01 2.5000000e+00 2.1170001e+00 
7.5000000e-01 2.5000000e+00 2.0000000e+00 
0.0000000e+00 2.5000000e+00 1.8830000e+00 
0.0000000e+00 2.5000000e+00 2.1170001e+00 
1.2500000e+00 2.8000000e+00 2.1170001e+00 
1.2500000e+00 2.8000000e+00 1.8830000e+00 
0.0000000e+00 2.8000000e+00 1.8830000e+00 
0.0000000e+00 2.8000000e+00 2.1170001e+00 
7.5000000e-01 2.5000000e+00 2.8829999e+00 
1.2500000e+00 2.5000000e+00 2.8829999e+00 
1.2500000e+00 2.5000000e+00 3.1170001e+00 
7.5000000e-01 2.5000000e+00 3.1170001e+00 
7.5000000e-01 2.5000000e+00 3.0000000e+00 
0.0000000e+00 2.5000000e+00 2.8829999e+00 
0.0000000e+00 2.5000000e+00 3.1170001e+00 
1.2500000e+00 2.8000000e+00 3.1170001e+00 
1.2500000e+00 2.8000000e+00 2.8829999e+00 
0.0000000e+00 2.8000000e+00 2.8829999e+00 
0.0000000e+00 2.8000000e+00 3.1170001e+00 
7.5000000e-01 2.5000000e+00 3.8829999e+00 
1.2500000e+00 2.5000000e+00 3.8829999e+00 
1.2500000e+00 2.5000000e+00 4.1170001e+00 
7.5000000e-01 2.5000000e+00 4.1170001e+00 
7.5000000e-01 2.5000000e+00 4.0000000e+00 
0.0000000e+00 2.5000000e+00 3.8829999e+00 
0.0000000e+00 2.5000000e+00 4.1170001e+00 
1.2500000e+00 2.8000000e+00 4.1170001e+00 
1.2500000e+00 2.8000000e+00 3.8829999e+00 
0.0000000e+00 2.8000000e+00 3.8829999e+00 
0.0000000e+00 2.8000000e+00 4.1170001e+00 
7.5000000e-01 2.5000000e+00 4.8829999e+00 
1.2500000e+00 2.5000000e+00 4.8829999e+00 
1.2500000e+00 2.5000000e+00 5.1170001e+00 
7.5000000e-01 2.5000000e+00 5.1170001e+00 
7.5000000e-01 2.5000000e+00 5.0000000e+00 
0.0000000e+00 2.5000000e+00 4.8829999e+00 
0.0000000e+00 2.5000000e+00 5.1170001e+00 
1.2500000e+00 2.8000000e+00 5.1170001e+00 
1.2500000e+00 2.8000000e+00 4.8829999e+00 
0.0000000e+00 2.8000000e+00 4.8829999e+00 
0.0000000e+00 2.8000000e+00 5.1170001e+00 
7.5000000e-01 2.5000000e+00 5.8829999e+00 
1.2500000e+00 2.5000000e+00 5.8829999e+00 
1.2500000e+00 2.5000000e+00 6.1170001e+00 
7.5000000e-01 2.5000000e+00 6.1170001e+00 
7.5000000e-01 2.5000000e+00 6.0000000e+00 
0.0000000e+00 2.5000000e+00 5.8829999e+00 
0.0000000e+00 2.5000000e+00 6.1170001e+00 
1.2500000e+00 2.8000000e+00 6.1170001e+00 
1.2500000e+00 2.8000000e+00 5.8829999e+00 
0.0000000e+00 2.8000000e+00 5.8829999e+00 
0.0000000e+00 2.8000000e+00 6.1170001e+00 
7.5000000e-01 2.5000000e+00 6.8829999e+00 
1.2500000e+00 2.5000000e+00 6.8829999e+00 
1.2500000e+00 2.5000000e+00 7.1170001e+00 
7.5000000e-01 2.5000000e+00 7.1170001e+00 
7.5000000e-01 2.5000000e+00 7.0000000e+00 
0.0000000e+00 2.5000000e+00 6.8829999e+00 
0.0000000e+00 2.5000000e+00 7.1170001e+00 
1.2500000e+00 2.8000000e+00 7.1170001e+00 
1.2500000e+00 2.8000000e+00 6.8829999e+00 
0.0000000e+00 2.8000000e+00 6.8829999e+00 
0.0000000e+00 2.8000000e+00 7.1170001e+00 
7.5000000e-01 2.5000000e+00 7.8829999e+00 
1.2500000e+00 2.5000000e+00 7.8829999e+00 
1.2500000e+00 2.5000000e+00 8.1169996e+00 
7.5000000e-01 2.5000000e+00 8.1169996e+00 
7.5000000e-01 2.5000000e+00 8.0000000e+00 
0.0000000e+00 2.5000000e+00 7.8829999e+00 
0.0000000e+00 2.5000000e+00 8.1169996e+00 
1.2500000e+00 2.8000000e+00 8.1169996e+00 
1.2500000e+00 2.8000000e+00 7.8829999e+00 
0.0000000e+00 2.8000000e+00 7.8829999e+00 
0.0000000e+00 2.8000000e+00 8.1169996e+00 
7.5000000e-01 2.5000000e+00 8.8830004e+00 
1.2500000e+00 2.5000000e+00 8.8830004e+00 
1.2500000e+00 2.5000000e+00 9.1169996e+00 
7.5000000e-01 2.5000000e+00 9.1169996e+00 
7.5000000e-01 2.5000000e+00 9.0000000e+00 
0.0000000e+00 2.5000000e+00 8.8830004e+00 
0.0000000e+00 2.5000000e+00 9.1169996e+00 
1.2500000e+00 2.8000000e+00 9.1169996e+00 
1.2500000e+00 2.8000000e+00 8.8830004e+00 
0.0000000e+00 2.8000000e+00 8.8830004e+00 
0.0000000e+00 2.8000000e+00 9.1169996e+00 
7.5000000e-01 2.5000000e+00 9.8830004e+00 
1.2500000e+00 2.5000000e+00 9.8830004e+00 
1.2500000e+00 2.5000000e+00 1.0117000e+01 
7.5000000e-01 2.5000000e+00 1.0117000e+01 
7.5000000e-01 2.5000000e+00 1.0000000e+01 
0.0000000e+00 2.5000000e+00 9.8830004e+00 
0.0000000e+00 2.5000000e+00 1.0117000e+01 
1.2500000e+00 2.8000000e+00 1.0117000e+01 
1.2500000e+00 2.8000000e+00 9.8830004e+00 
0.0000000e+00 2.8000000e+00 9.8830004e+00 
0.0000000e+00 2.8000000e+00 1.0117000e+01 
7.5000000e-01 2.5000000e+00 1.0883000e+01 
1.2500000e+00 2.5000000e+00 1.0883000e+01 
1.2500000e+00 2.5000000e+00 1.1117000e+01 
7.5000000e-01 2.5000000e+00 1.1117000e+01 
7.5000000e-01 2.5000000e+00 1.1000000e+01 
0.0000000e+00 2.5000000e+00 1.0883000e+01 
0.0000000e+00 2.5000000e+00 1.1117000e+01 
1.2500000e+00 2.8000000e+00 1.1117000e+01 
1.2500000e+00 2.8000000e+00 1.0883000e+01 
0.0000000e+00 2.8000000e+00 1.0883000e+01 
0.0000000e+00 2.8000000e+00 1.1117000e+01 
7.5000000e-01 2.5000000e+00 1.1883000e+01 
1.2500000e+00 2.5000000e+00 1.1883000e+01 
1.2500000e+00 2.5000000e+00 1.2117000e+01 
7.5000000e-01 2.5000000e+00 1.2117000e+01 
7.5000000e-01 2.5000000e+00 1.2000000e+01 
0.0000000e+00 2.5000000e+00 1.1883000e+01 
0.0000000e+00 2.5000000e+00 1.2117000e+01 
1.2500000e+00 2.8000000e+00 1.2117000e+01 
1.2500000e+00 2.8000000e+00 1.1883000e+01 
0.0000000e+00 2.8000000e+00 1.1883000e+01 
0.0000000e+00 2.8000000e+00 1.2117000e+01 
7.5000000e-01 2.5000000e+00 1.2883000e+01 
1.2500000e+00 2.5000000e+00 1.2883000e+01 
1.2500000e+00 2.5000000e+00 1.3117000e+01 
7.5000000e-01 2.5000000e+00 1.3117000e+01 
7.5000000e-01 2.5000000e+00 1.3000000e+01 
0.0000000e+00 2.5000000e+00 1.2883000e+01 
0.0000000e+00 2.5000000e+00 1.3117000e+01 
1.2500000e+00 2.8000000e+00 1.3117000e+01 
1.2500000e+00 2.8000000e+00 1.2883000e+01 
0.0000000e+00 2.8000000e+00 1.2883000e+01 
0.0000000e+00 2.8000000e+00 1.3117000e+01 
7.5000000e-01 2.5000000e+00 1.3883000e+01 
1.2500000e+00 2.5000000e+00 1.3883000e+01 
1.2500000e+00 2.5000000e+00 1.4117000e+01 
7.5000000e-01 2.5000000e+00 1.4117000e+01 
7.5000000e-01 2.5000000e+00 1.4000000e+01 
0.0000000e+00 2.5000000e+00 1.3883000e+01 
0.0000000e+00 2.5000000e+00 1.4117000e+01 
1.2500000e+00 2.8000000e+00 1.4117000e+01 
1.2500000e+00 2.8000000e+00 1.3883000e+01 
0.0000000e+00 2.8000000e+00 1.3883000e+01 
0.0000000e+00 2.8000000e+00 1.4117000e+01 
7.5000000e-01 2.5000000e+00 1.4883000e+01 
1.2500000e+00 2.5000000e+00 1.4883000e+01 
1.2500000e+00 2.5000000e+00 1.5117000e+01 
7.5000000e-01 2.5000000e+00 1.5117000e+01 
7.5000000e-01 2.5000000e+00 1.5000000e+01 
0.0000000e+00 2.5000000e+00 1.4883000e+01 
0.0000000e+00 2.5000000e+00 1.5117000e+01 
1.2500000e+00 2.8000000e+00 1.5117000e+01 
1.2500000e+00 2.8000000e+00 1.4883000e+01 
0.0000000e+00 2.8000000e+00 1.4883000e+01 
0.0000000e+00 2.8000000e+00 1.5117000e+01 
7.5000000e-01 2.5000000e+00 1.5883000e+01 
1.2500000e+00 2.5000000e+00 1.5883000e+01 
1.2500000e+00 2.5000000e+00 1.6117001e+01 
7.5000000e-01 2.5000000e+00 1.6117001e+01 
7.5000000e-01 2.5000000e+00 1.6000000e+01 
0.0000000e+00 2.5000000e+00 1.5883000e+01 
0.0000000e+00 2.5000000e+00 1.6117001e+01 
1.2500000e+00 2.8000000e+00 1.6117001e+01 
1.2500000e+00 2.8000000e+00 1.5883000e+01 
0.0000000e+00 2.8000000e+00 1.5883000e+01 
0.0000000e+00 2.8000000e+00 1.6117001e+01 
7.5000000e-01 2.5000000e+00 1.6882999e+01 
1.2500000e+00 2.5000000e+00 1.6882999e+01 
1.2500000e+00 2.5000000e+00 1.7117001e+01 
7.5000000e-01 2.5000000e+00 1.7117001e+01 
7.5000000e-01 2.5000000e+00 1.7000000e+01 
0.0000000e+00 2.5000000e+00 1.6882999e+01 
0.0000000e+00 2.5000000e+00 1.7117001e+01 
1.2500000e+00 2.8000000e+00 1.7117001e+01 
1.2500000e+00 2.8000000e+00 1.6882999e+01 
0.0000000e+00 2.8000000e+00 1.6882999e+01 
0.0000000e+00 2.8000000e+00 1.7117001e+01 
7.5000000e-01 2.5000000e+00 1.7882999e+01 
1.2500000e+00 2.5000000e+00 1.7882999e+01 
1.2500000e+00 2.5000000e+00 1.8117001e+01 
7.5000000e-01 2.5000000e+00 1.8117001e+01 
7.5000000e-01 2.5000000e+00 1.8000000e+01 
0.0000000e+00 2.5000000e+00 1.7882999e+01 
0.0000000e+00 2.5000000e+00 1.8117001e+01 
1.2500000e+00 2.8000000e+00 1.8117001e+01 
1.2500000e+00 2.8000000e+00 1.7882999e+01 
0.0000000e+00 2.8000000e+00 1.7882999e+01 
0.0000000e+00 2.8000000e+00 1.8117001e+01 
7.5000000e-01 2.5000000e+00 1.8882999e+01 
1.2500000e+00 2.5000000e+00 1.8882999e+01 
1.2500000e+00 2.5000000e+00 1.9117001e+01 
7.5000000e-01 2.5000000e+00 1.9117001e+01 
7.5000000e-01 2.5000000e+00 1.9000000e+01 
0.0000000e+00 2.5000000e+00 1.8882999e+01 
0.0000000e+00 2.5000000e+00 1.9117001e+01 
1.2500000e+00 2.8000000e+00 1.9117001e+01 
1.2500000e+00 2.8000000e+00 1.8882999e+01 
0.0000000e+00 2.8000000e+00 1.8882999e+01 
0.0000000e+00 2.8000000e+00 1.9117001e+01 
3.4700000e+00 2.5000000e+00 0.0000000e+00 
3.4700000e+00 2.5000000e+00 2.0000000e+01 
7.5000000e-01 2.5000000e+00 1.9882999e+01 
[...]
POINT_DATA 1439
FIELD FieldData 1
DISPLACEMENT 3 1439  float
0.0000000e+00 0.0000000e+00 0.0000000e+00 
0.0000000e+00 0.0000000e+00 0.0000000e+00 
0.0000000e+00 0.0000000e+00 0.0000000e+00 
0.0000000e+00 0.0000000e+00 0.0000000e+00 
0.0000000e+00 4.5885869e-08 0.0000000e+00 
0.0000000e+00 6.3001615e-08 0.0000000e+00 
0.0000000e+00 6.6225903e-07 0.0000000e+00 
0.0000000e+00 6.8467267e-07 0.0000000e+00 
0.0000000e+00 -3.0537616e-05 0.0000000e+00 
1.2344459e-10 -3.0537543e-05 9.1400207e-11 
-7.7241352e-11 -3.0538144e-05 1.3006618e-10 
0.0000000e+00 -3.0538304e-05 0.0000000e+00 
0.0000000e+00 -3.0535299e-05 0.0000000e+00 
0.0000000e+00 -3.0535375e-05 0.0000000e+00 
-9.2676679e-11 -3.0538005e-05 -4.2573473e-11 
0.0000000e+00 -3.0537944e-05 0.0000000e+00 
0.0000000e+00 -3.0535804e-05 0.0000000e+00 
0.0000000e+00 -3.0535732e-05 0.0000000e+00 
-2.1845468e-11 -2.6897174e-05 5.1604332e-11 
5.8661404e-10 -2.6898226e-05 3.8266637e-10 
4.4309303e-10 -2.6898391e-05 5.7309874e-10 
-1.6321831e-10 -2.6897291e-05 3.2112160e-10 
-1.3400753e-10 -2.6897356e-05 1.8763911e-10 
0.0000000e+00 -2.6893500e-05 0.0000000e+00 
0.0000000e+00 -2.6893524e-05 0.0000000e+00 
9.5340347e-10 -2.6899066e-05 6.4303968e-10 
1.0793588e-09 -2.6898924e-05 7.1359546e-10 
0.0000000e+00 -2.6894162e-05 0.0000000e+00 
0.0000000e+00 -2.6894151e-05 0.0000000e+00 
6.8988926e-10 -1.5343679e-05 -4.3747519e-10 
1.4048243e-09 -1.5342259e-05 -7.0464728e-10 
1.5176769e-09 -1.5342397e-05 -3.7748721e-10 
7.6809553e-10 -1.5343790e-05 -1.5944246e-10 
6.9468631e-10 -1.5343829e-05 -2.9408692e-10 
0.0000000e+00 -1.5342739e-05 0.0000000e+00 
0.0000000e+00 -1.5342794e-05 0.0000000e+00 
5.7246058e-10 -1.5343476e-05 -3.9859208e-10 
4.5841519e-10 -1.5343343e-05 -3.2390093e-10 
0.0000000e+00 -1.5343645e-05 0.0000000e+00 
0.0000000e+00 -1.5343701e-05 0.0000000e+00 
1.3937378e-09 4.0448331e-06 3.5971282e-11 
2.1605451e-09 4.0487407e-06 2.6890410e-11 
2.1215929e-09 4.0485220e-06 4.0245862e-10 
1.3309556e-09 4.0446812e-06 2.7785133e-10 
1.3266334e-09 4.0446848e-06 1.5865466e-10 
0.0000000e+00 4.0434293e-06 0.0000000e+00 
0.0000000e+00 4.0433351e-06 0.0000000e+00 
-2.2715591e-10 4.0473265e-06 4.3312987e-10 
-1.8903722e-10 4.0475061e-06 4.8969556e-10 
0.0000000e+00 4.0424538e-06 0.0000000e+00 
0.0000000e+00 4.0424775e-06 0.0000000e+00 
1.3296987e-09 2.7148484e-05 3.3895137e-11 
1.7436004e-09 2.7153215e-05 5.8219082e-11 
1.7068585e-09 2.7153195e-05 2.2233054e-10 
1.3053156e-09 2.7148501e-05 1.2416970e-10 
1.2871026e-09 2.7148450e-05 7.8032282e-11 
0.0000000e+00 2.7145286e-05 0.0000000e+00 
0.0000000e+00 2.7145232e-05 0.0000000e+00 
-1.0634831e-09 2.7152648e-05 1.2838057e-10 
-1.0299139e-09 2.7152648e-05 1.4202259e-10 
0.0000000e+00 2.7145112e-05 0.0000000e+00 
0.0000000e+00 2.7145030e-05 0.0000000e+00 
-2.3303612e-10 4.4620767e-05 2.8700459e-10 
-8.2258128e-10 4.4622131e-05 3.2031466e-10 
-8.1854307e-10 4.4622186e-05 -1.6820267e-11 
-2.3550620e-10 4.4620814e-05 4.5244204e-11 
-2.3264979e-10 4.4620836e-05 1.6437909e-10 
0.0000000e+00 4.4618297e-05 0.0000000e+00 
0.0000000e+00 4.4618311e-05 0.0000000e+00 
-1.4729352e-09 4.4623233e-05 1.0974394e-10 
-1.4637208e-09 4.4623182e-05 3.5002144e-11 
0.0000000e+00 4.4619454e-05 0.0000000e+00 
0.0000000e+00 4.4619468e-05 0.0000000e+00 
-1.6391984e-09 4.5524164e-05 1.7956391e-09 
-3.7764711e-09 4.5521381e-05 3.1799690e-09 
-4.3674708e-09 4.5521643e-05 2.1596525e-09 
-2.1516686e-09 4.5524372e-05 9.7855313e-10 
-1.8113722e-09 4.5524528e-05 1.3781546e-09 
0.0000000e+00 4.5520024e-05 0.0000000e+00 
0.0000000e+00 4.5520133e-05 0.0000000e+00 
-2.3768243e-09 4.5524939e-05 2.4657765e-09 
-1.7972589e-09 4.5524699e-05 2.2341839e-09 
0.0000000e+00 4.5522938e-05 0.0000000e+00 
0.0000000e+00 4.5523000e-05 0.0000000e+00 
-3.4866818e-09 2.5381047e-05 5.1751586e-10 
-8.4490015e-09 2.5373920e-05 -3.3518285e-10 
-8.0762002e-09 2.5374762e-05 -1.9995237e-09 
-3.0724125e-09 2.5381700e-05 -1.3957265e-09 
-2.9297418e-09 2.5382256e-05 -4.5604473e-10 
0.0000000e+00 2.5367439e-05 0.0000000e+00 
0.0000000e+00 2.5367581e-05 0.0000000e+00 
-3.1316927e-09 2.5380532e-05 -1.9374198e-09 
-3.4766052e-09 2.5379832e-05 -2.4496574e-09 
0.0000000e+00 2.5371983e-05 0.0000000e+00 
0.0000000e+00 2.5371930e-05 0.0000000e+00 
-5.3697455e-09 -7.3922456e-06 8.5856933e-10 
-1.3347991e-08 -7.4061850e-06 -1.6887544e-09 
-1.2341575e-08 -7.4049308e-06 -3.8512855e-09 
-4.4796717e-09 -7.3911424e-06 -2.2214306e-09 
-4.2684176e-09 -7.3900455e-06 -6.8553657e-10 
0.0000000e+00 -7.4142940e-06 0.0000000e+00 
0.0000000e+00 -7.4142599e-06 0.0000000e+00 
-2.9626013e-09 -7.3968617e-06 -4.0276649e-09 
-3.8297494e-09 -7.3980495e-06 -4.7586708e-09 
0.0000000e+00 -7.4088707e-06 0.0000000e+00 
0.0000000e+00 -7.4087648e-06 0.0000000e+00 
-5.5229097e-09 -3.7173591e-05 3.9341650e-09 
-1.4156643e-08 -3.7192578e-05 6.7440671e-09 
-1.5669528e-08 -3.7193095e-05 4.2054400e-09 
-6.8551080e-09 -3.7173901e-05 6.2952477e-10 
-5.4661600e-09 -3.7172020e-05 2.2839086e-09 
0.0000000e+00 -3.7195045e-05 0.0000000e+00 
0.0000000e+00 -3.7194932e-05 0.0000000e+00 
-3.1839367e-09 -3.7183632e-05 6.4590862e-09 
-1.7844785e-09 -3.7183279e-05 5.6934075e-09 
0.0000000e+00 -3.7188813e-05 0.0000000e+00 
0.0000000e+00 -3.7188620e-05 0.0000000e+00 
-7.6724467e-09 -5.0744700e-05 -5.9540706e-10 
-1.7497442e-08 -5.0767809e-05 -4.9641162e-09 
-1.5750995e-08 -5.0766826e-05 -7.6160438e-09 
-6.1901120e-09 -5.0743780e-05 -4.4118136e-09 
-6.0892629e-09 -5.0742168e-05 -2.4966624e-09 
0.0000000e+00 -5.0767216e-05 0.0000000e+00 
0.0000000e+00 -5.0767387e-05 0.0000000e+00 
-7.6444706e-10 -5.0757033e-05 -7.0270878e-09 
-2.4458564e-09 -5.0757852e-05 -7.9913800e-09 
0.0000000e+00 -5.0761144e-05 0.0000000e+00 
0.0000000e+00 -5.0761446e-05 0.0000000e+00 
-7.2895521e-09 -3.7645888e-05 -1.5493403e-09 
-1.6377768e-08 -3.7666836e-05 -5.8507412e-09 
-1.4563491e-08 -3.7666548e-05 -8.4388265e-09 
-5.7067520e-09 -3.7645663e-05 -4.9216076e-09 
-5.7531850e-09 -3.7644044e-05 -3.2303784e-09 
0.0000000e+00 -3.7666323e-05 0.0000000e+00 
0.0000000e+00 -3.7666425e-05 0.0000000e+00 
-1.0447426e-09 -3.7657104e-05 -7.0563284e-09 
-2.8083849e-09 -3.7657243e-05 -7.9047586e-09 
0.0000000e+00 -3.7660051e-05 0.0000000e+00 
0.0000000e+00 -3.7660517e-05 0.0000000e+00 
-5.5720468e-09 -8.0187992e-06 -1.4093225e-09 
-1.3595501e-08 -8.0331638e-06 -5.7895875e-09 
-1.1788757e-08 -8.0329082e-06 -7.9445659e-09 
-4.0696047e-09 -8.0183145e-06 -4.4493413e-09 
-4.1714228e-09 -8.0169766e-06 -2.9158924e-09 
0.0000000e+00 -8.0407099e-06 0.0000000e+00 
0.0000000e+00 -8.0410109e-06 0.0000000e+00 
-2.0906952e-09 -8.0248174e-06 -6.9352089e-09 
-3.8317940e-09 -8.0251111e-06 -7.7213977e-09 
0.0000000e+00 -8.0353366e-06 0.0000000e+00 
0.0000000e+00 -8.0357477e-06 0.0000000e+00 
-3.8642356e-09 2.4735145e-05 -1.8218955e-09 
-8.9524255e-09 2.4728493e-05 -5.3329341e-09 
-7.3735800e-09 2.4728552e-05 -6.9630945e-09 
-2.5997478e-09 2.4735255e-05 -3.7629606e-09 
-2.8908986e-09 2.4736097e-05 -2.7779097e-09 
0.0000000e+00 2.4720995e-05 0.0000000e+00 
0.0000000e+00 2.4720812e-05 0.0000000e+00 
-2.6538922e-09 2.4734323e-05 -5.9268954e-09 
-4.1647792e-09 2.4734301e-05 -6.4492252e-09 
0.0000000e+00 2.4725459e-05 0.0000000e+00 
0.0000000e+00 2.4725199e-05 0.0000000e+00 
-2.3278712e-09 4.5164779e-05 -1.5833632e-09 
-4.5712198e-09 4.5161993e-05 -3.3139709e-09 
-3.7171781e-09 4.5161716e-05 -4.3308872e-09 
-1.5885500e-09 4.5164521e-05 -2.4045685e-09 
-1.8651836e-09 4.5164907e-05 -1.9818920e-09 
0.0000000e+00 4.5160537e-05 0.0000000e+00 
0.0000000e+00 4.5160341e-05 0.0000000e+00 
-1.7109010e-09 4.5165012e-05 -3.3219860e-09 
-2.5569660e-09 4.5165307e-05 -3.5551073e-09 
0.0000000e+00 4.5163357e-05 0.0000000e+00 
0.0000000e+00 4.5163277e-05 0.0000000e+00 
-3.4236328e-10 4.4671804e-05 -8.3175222e-10 
-9.1553548e-10 4.4673627e-05 -1.7569015e-09 
-4.5150378e-10 4.4673619e-05 -2.0878652e-09 
3.7480113e-11 4.4671793e-05 -1.0563244e-09 
-1.5921159e-10 4.4671826e-05 -9.3823049e-10 
0.0000000e+00 4.4669145e-05 0.0000000e+00 
0.0000000e+00 4.4669148e-05 0.0000000e+00 
-1.3756781e-09 4.4674627e-05 -1.8473650e-09 
-1.8277534e-09 4.4674656e-05 -1.9221031e-09 
0.0000000e+00 4.4670338e-05 0.0000000e+00 
0.0000000e+00 4.4670302e-05 0.0000000e+00 
1.0912872e-09 2.7420336e-05 -4.8428145e-10 
1.4701906e-09 2.7424690e-05 -8.6922580e-10 
1.6424976e-09 2.7424845e-05 -7.0596623e-10 
1.2554190e-09 2.7420465e-05 -3.8393994e-10 
1.1440999e-09 2.7420352e-05 -4.3387163e-10 
0.0000000e+00 2.7417413e-05 0.0000000e+00 
0.0000000e+00 2.7417471e-05 0.0000000e+00 
-9.2098984e-10 2.7424288e-05 -9.6867581e-10 
-1.0957659e-09 2.7424159e-05 -9.5442021e-10 
0.0000000e+00 2.7417282e-05 0.0000000e+00 
0.0000000e+00 2.7417236e-05 0.0000000e+00 
1.2976629e-09 4.2922711e-06 2.8393229e-10 
2.0430468e-09 4.2957263e-06 6.1597066e-10 
1.8522213e-09 4.2958782e-06 9.8102459e-10 
1.1496759e-09 4.2924144e-06 5.2278087e-10 
1.1926600e-09 4.2922757e-06 3.9869802e-10 
0.0000000e+00 4.2910870e-06 0.0000000e+00 
0.0000000e+00 4.2911888e-06 0.0000000e+00 
-2.3500726e-10 4.2946895e-06 5.7104571e-10 
-6.0964775e-11 4.2945458e-06 6.2855243e-10 
0.0000000e+00 4.2902620e-06 0.0000000e+00 
0.0000000e+00 4.2902452e-06 0.0000000e+00 
9.2664754e-10 -1.5215958e-05 6.9620881e-10 
1.6853979e-09 -1.5214298e-05 1.4167507e-09 
1.3410086e-09 -1.5214083e-05 1.7486749e-09 
6.3408884e-10 -1.5215777e-05 9.7068598e-10 
7.4447049e-10 -1.5215956e-05 8.2696133e-10 
0.0000000e+00 -1.5215157e-05 0.0000000e+00 
0.0000000e+00 -1.5215056e-05 0.0000000e+00 
2.4732263e-10 -1.5215178e-05 1.2726666e-09 
5.8998439e-10 -1.5215386e-05 1.3468336e-09 
0.0000000e+00 -1.5216009e-05 0.0000000e+00 
0.0000000e+00 -1.5215964e-05 0.0000000e+00 
-1.2202657e-10 -2.6867523e-05 -2.1301644e-10 
4.9229482e-10 -2.6868591e-05 -2.8266547e-10 
5.4805410e-10 -2.6868422e-05 -9.0793588e-11 
-5.2357368e-11 -2.6867387e-05 5.8552323e-11 
-1.2919947e-10 -2.6867576e-05 -8.0474322e-11 
0.0000000e+00 -2.6863805e-05 0.0000000e+00 
0.0000000e+00 -2.6863774e-05 0.0000000e+00 
1.0317671e-09 -2.6869120e-05 -4.3570236e-10 
9.7877884e-10 -2.6869264e-05 -3.5852044e-10 
0.0000000e+00 -2.6864403e-05 0.0000000e+00 
0.0000000e+00 -2.6864438e-05 0.0000000e+00 
0.0000000e+00 1.4456221e-07 0.0000000e+00 
0.0000000e+00 1.8226274e-07 0.0000000e+00 
-6.3692572e-11 -3.0545649e-05 -1.3408441e-10 
8.6619184e-11 -3.0545103e-05 -6.7996490e-11 
0.0000000e+00 -3.0545129e-05 0.0000000e+00 
0.0000000e+00 -3.0545802e-05 0.0000000e+00 
0.0000000e+00 -3.0542833e-05 0.0000000e+00 
0.0000000e+00 -3.0542829e-05 0.0000000e+00 
0.0000000e+00 -3.0545525e-05 0.0000000e+00 
-1.1686040e-10 -3.0545507e-05 4.2236652e-11 
0.0000000e+00 -3.0543310e-05 0.0000000e+00 
0.0000000e+00 -3.0543299e-05 0.0000000e+00 
0.0000000e+00 -3.0526226e-05 0.0000000e+00 
0.0000000e+00 -2.6886872e-05 0.0000000e+00 
0.0000000e+00 -1.5355023e-05 0.0000000e+00 
0.0000000e+00 4.0388713e-06 0.0000000e+00 
0.0000000e+00 2.7151356e-05 0.0000000e+00 
0.0000000e+00 4.4584791e-05 0.0000000e+00 
0.0000000e+00 4.5492296e-05 0.0000000e+00 
0.0000000e+00 2.5502302e-05 0.0000000e+00 
0.0000000e+00 -7.3767546e-06 0.0000000e+00 
0.0000000e+00 -3.7499252e-05 0.0000000e+00 
0.0000000e+00 -5.0378014e-05 0.0000000e+00 
0.0000000e+00 -3.7967871e-05 0.0000000e+00 
0.0000000e+00 -8.0096834e-06 0.0000000e+00 
0.0000000e+00 2.4857251e-05 0.0000000e+00 
0.0000000e+00 4.5134297e-05 0.0000000e+00 
0.0000000e+00 4.4636115e-05 0.0000000e+00 
0.0000000e+00 2.7421493e-05 0.0000000e+00 
0.0000000e+00 4.2864908e-06 0.0000000e+00 
0.0000000e+00 -1.5226517e-05 0.0000000e+00 
0.0000000e+00 -2.6856929e-05 0.0000000e+00 
0.0000000e+00 -3.0533687e-05 0.0000000e+00 
0.0000000e+00 -3.0539279e-05 0.0000000e+00 
1.1554122e-09 -2.6898953e-05 3.5848766e-10 
5.7440513e-10 -1.5345329e-05 -1.5395939e-10 
-9.5502668e-11 4.0435425e-06 3.4842185e-10 
-8.3565466e-10 2.7148171e-05 4.6327581e-11 
-1.2126212e-09 4.4622291e-05 7.5683779e-11 
-2.1244604e-09 4.5528926e-05 1.1489593e-09 
-4.8252278e-09 2.5392770e-05 -1.3051180e-09 
-6.8422570e-09 -7.3729348e-06 -2.2552782e-09 
-6.3363075e-09 -3.7154241e-05 2.8649876e-09 
-6.4342083e-09 -5.0721574e-05 -3.9066141e-09 
-6.0003833e-09 -3.7626058e-05 -3.7090302e-09 
-6.4729018e-09 -8.0002883e-06 -3.7150654e-09 
-4.9045683e-09 2.4746809e-05 -3.0642733e-09 
-2.1809234e-09 4.5169345e-05 -1.6804450e-09 
-1.2832911e-09 4.4673201e-05 -9.4804642e-10 
-7.9621931e-10 2.7420005e-05 -5.9330557e-10 
-6.5378931e-11 4.2911556e-06 2.3689106e-10 
4.9133703e-10 -1.5217404e-05 6.1179145e-10 
1.1467931e-09 -2.6869182e-05 -2.6149619e-10 
0.0000000e+00 -3.0546755e-05 0.0000000e+00 
0.0000000e+00 0.0000000e+00 0.0000000e+00 
0.0000000e+00 0.0000000e+00 0.0000000e+00 
0.0000000e+00 0.0000000e+00 0.0000000e+00 
0.0000000e+00 0.0000000e+00 0.0000000e+00 
0.0000000e+00 0.0000000e+00 0.0000000e+00 
0.0000000e+00 0.0000000e+00 0.0000000e+00 
0.0000000e+00 0.0000000e+00 0.0000000e+00 
0.0000000e+00 0.0000000e+00 0.0000000e+00 
0.0000000e+00 0.0000000e+00 0.0000000e+00 
0.0000000e+00 0.0000000e+00 0.0000000e+00 
0.0000000e+00 0.0000000e+00 0.0000000e+00 
0.0000000e+00 0.0000000e+00 0.0000000e+00 
0.0000000e+00 0.0000000e+00 0.0000000e+00 
0.0000000e+00 0.0000000e+00 0.0000000e+00 
0.0000000e+00 0.0000000e+00 0.0000000e+00 
0.0000000e+00 0.0000000e+00 0.0000000e+00 
0.0000000e+00 0.0000000e+00 0.0000000e+00 
0.0000000e+00 0.0000000e+00 0.0000000e+00 
0.0000000e+00 0.0000000e+00 0.0000000e+00 
0.0000000e+00 0.0000000e+00 0.0000000e+00 
0.0000000e+00 0.0000000e+00 0.0000000e+00 
0.0000000e+00 0.0000000e+00 0.0000000e+00 
0.0000000e+00 0.0000000e+00 0.0000000e+00 
0.0000000e+00 0.0000000e+00 0.0000000e+00 
0.0000000e+00 0.0000000e+00 0.0000000e+00 
0.0000000e+00 0.0000000e+00 0.0000000e+00 
0.0000000e+00 0.0000000e+00 0.0000000e+00 
0.0000000e+00 0.0000000e+00 0.0000000e+00 
0.0000000e+00 0.0000000e+00 0.0000000e+00 
0.0000000e+00 0.0000000e+00 0.0000000e+00 
0.0000000e+00 0.0000000e+00 0.0000000e+00 
0.0000000e+00 0.0000000e+00 0.0000000e+00 
0.0000000e+00 0.0000000e+00 0.0000000e+00 
0.0000000e+00 0.0000000e+00 0.0000000e+00 
0.0000000e+00 0.0000000e+00 0.0000000e+00 
0.0000000e+00 0.0000000e+00 0.0000000e+00 
0.0000000e+00 0.0000000e+00 0.0000000e+00 
0.0000000e+00 0.0000000e+00 0.0000000e+00 
0.0000000e+00 0.0000000e+00 0.0000000e+00 
0.0000000e+00 0.0000000e+00 0.0000000e+00 
0.0000000e+00 0.0000000e+00 0.0000000e+00 
0.0000000e+00 0.0000000e+00 0.0000000e+00 
0.0000000e+00 0.0000000e+00 0.0000000e+00 
0.0000000e+00 0.0000000e+00 0.0000000e+00 
0.0000000e+00 6.5229791e-08 0.0000000e+00 
0.0000000e+00 1.4344397e-07 0.0000000e+00 
0.0000000e+00 1.6800306e-07 0.0000000e+00 
0.0000000e+00 5.3751659e-08 0.0000000e+00 
0.0000000e+00 -3.0111855e-07 0.0000000e+00 
0.0000000e+00 -7.7195136e-07 0.0000000e+00 
0.0000000e+00 -1.7289984e-06 0.0000000e+00 
0.0000000e+00 -2.3988332e-06 0.0000000e+00 
0.0000000e+00 -2.2978609e-06 0.0000000e+00 
0.0000000e+00 -2.8040854e-06 0.0000000e+00 
0.0000000e+00 -2.6490038e-06 0.0000000e+00 
0.0000000e+00 -2.3815585e-06 0.0000000e+00 
0.0000000e+00 -1.6446260e-06 0.0000000e+00 
0.0000000e+00 -5.6812860e-07 0.0000000e+00 
0.0000000e+00 -9.9278729e-08 0.0000000e+00 
0.0000000e+00 1.9984211e-07 0.0000000e+00 
0.0000000e+00 2.1632033e-07 0.0000000e+00 
0.0000000e+00 8.4491418e-08 0.0000000e+00 
0.0000000e+00 1.0360755e-07 0.0000000e+00 
0.0000000e+00 3.0435072e-07 0.0000000e+00 
0.0000000e+00 -7.3794615e-07 0.0000000e+00 
0.0000000e+00 -1.9872743e-06 0.0000000e+00 
0.0000000e+00 -2.7829064e-06 0.0000000e+00 
0.0000000e+00 -1.7339387e-06 0.0000000e+00 
0.0000000e+00 1.5836363e-06 0.0000000e+00 
0.0000000e+00 7.7699924e-06 0.0000000e+00 
0.0000000e+00 1.4392249e-05 0.0000000e+00 
0.0000000e+00 2.0120095e-05 0.0000000e+00 
0.0000000e+00 2.4516390e-05 0.0000000e+00 
0.0000000e+00 2.0946543e-05 0.0000000e+00 
0.0000000e+00 1.4928779e-05 0.0000000e+00 
0.0000000e+00 6.9083571e-06 0.0000000e+00 
0.0000000e+00 1.7211979e-06 0.0000000e+00 
0.0000000e+00 -1.5945036e-06 0.0000000e+00 
0.0000000e+00 -2.4136987e-06 0.0000000e+00 
0.0000000e+00 -1.8137189e-06 0.0000000e+00 
0.0000000e+00 -7.9589984e-07 0.0000000e+00 
0.0000000e+00 2.5345514e-07 0.0000000e+00 
0.0000000e+00 1.1517429e-07 0.0000000e+00 
0.0000000e+00 3.0211663e-07 0.0000000e+00 
0.0000000e+00 5.1890055e-07 0.0000000e+00 
0.0000000e+00 1.0944436e-07 0.0000000e+00 
0.0000000e+00 3.0427944e-07 0.0000000e+00 
0.0000000e+00 5.1769706e-07 0.0000000e+00 
1.3212259e-10 -3.0538602e-05 9.7018582e-12 
1.2338492e-09 -2.6897549e-05 2.7330249e-10 
9.8992059e-10 -2.6897702e-05 2.8228464e-10 
5.2532817e-10 -1.5344829e-05 -1.4908157e-10 
5.5837140e-10 -1.5344933e-05 -6.2111122e-11 
-3.8507055e-11 4.0432569e-06 2.7277183e-10 
-1.1612349e-10 4.0431132e-06 3.6376333e-10 
-7.4191842e-10 2.7147278e-05 -8.7675006e-13 
-7.7732526e-10 2.7147340e-05 4.4507519e-11 
-1.1203288e-09 4.4621476e-05 1.1212374e-10 
-1.0490082e-09 4.4621574e-05 3.8263448e-11 
-1.7266383e-09 4.5527329e-05 9.9415165e-10 
-2.2540081e-09 4.5527482e-05 7.1643963e-10 
-5.1582769e-09 2.5386715e-05 -8.9345792e-10 
-4.4714583e-09 2.5387593e-05 -1.2704074e-09 
-7.8091800e-09 -7.3837077e-06 -1.6975510e-09 
-6.1981247e-09 -7.3823367e-06 -1.7419768e-09 
-5.6500906e-09 -3.7163252e-05 2.1708890e-09 
-7.6552622e-09 -3.7164031e-05 1.9810857e-09 
-7.8360802e-09 -5.0733492e-05 -2.7742018e-09 
-5.9101901e-09 -5.0731815e-05 -3.3168439e-09 
-7.3717565e-09 -3.7635702e-05 -2.5249198e-09 
-5.4246736e-09 -3.7634803e-05 -3.0773495e-09 
-7.6008639e-09 -8.0104855e-06 -2.6224845e-09 
-5.8245768e-09 -8.0093714e-06 -3.0746963e-09 
-5.5452984e-09 2.4740759e-05 -2.1154587e-09 
-4.1888288e-09 2.4741197e-05 -2.5090545e-09 
-2.4182583e-09 4.5167904e-05 -1.1076661e-09 
-1.6824612e-09 4.5167715e-05 -1.3931365e-09 
-1.3309881e-09 4.4672412e-05 -6.7761557e-10 
-9.5080721e-10 4.4672459e-05 -7.6404472e-10 
-7.9724249e-10 2.7419195e-05 -5.2092014e-10 
-6.5523886e-10 2.7419332e-05 -4.8354992e-10 
2.2133777e-11 4.2907823e-06 9.6133275e-11 
-1.3287901e-10 4.2909287e-06 2.0081414e-10 
6.0856864e-10 -1.5217112e-05 3.9476292e-10 
3.2698733e-10 -1.5216970e-05 4.8974647e-10 
1.0516849e-09 -2.6867965e-05 -2.5014102e-10 
1.1610019e-09 -2.6867774e-05 -2.0658963e-10 
0.0000000e+00 2.3925529e-07 0.0000000e+00 
0.0000000e+00 4.6833023e-07 0.0000000e+00 
0.0000000e+00 5.0568417e-07 0.0000000e+00 
0.0000000e+00 3.0658904e-07 0.0000000e+00 
0.0000000e+00 -7.2398774e-07 0.0000000e+00 
0.0000000e+00 -2.0297202e-06 0.0000000e+00 
0.0000000e+00 -4.4155172e-06 0.0000000e+00 
0.0000000e+00 -6.6003195e-06 0.0000000e+00 
0.0000000e+00 -9.1705178e-06 0.0000000e+00 
0.0000000e+00 -9.0612848e-06 0.0000000e+00 
0.0000000e+00 -1.0965619e-05 0.0000000e+00 
0.0000000e+00 -6.4097853e-06 0.0000000e+00 
0.0000000e+00 -4.2751176e-06 0.0000000e+00 
0.0000000e+00 -1.8956590e-06 0.0000000e+00 
0.0000000e+00 -2.3076826e-07 0.0000000e+00 
0.0000000e+00 5.0919749e-07 0.0000000e+00 
0.0000000e+00 5.8477838e-07 0.0000000e+00 
0.0000000e+00 4.1736862e-07 0.0000000e+00 
0.0000000e+00 3.0974934e-07 0.0000000e+00 
0.0000000e+00 1.1890388e-07 0.0000000e+00 
0.0000000e+00 1.2408073e-07 0.0000000e+00 
0.0000000e+00 3.4770650e-07 0.0000000e+00 
0.0000000e+00 7.7609610e-07 0.0000000e+00 
0.0000000e+00 3.7133785e-07 0.0000000e+00 
0.0000000e+00 8.1327789e-07 0.0000000e+00 
0.0000000e+00 1.2621538e-06 0.0000000e+00 
0.0000000e+00 1.2152838e-06 0.0000000e+00 
1.3486301e-10 -3.0546089e-05 -1.1429496e-11 
0.0000000e+00 0.0000000e+00 0.0000000e+00 
0.0000000e+00 0.0000000e+00 0.0000000e+00 
0.0000000e+00 0.0000000e+00 0.0000000e+00 
0.0000000e+00 0.0000000e+00 0.0000000e+00 
0.0000000e+00 0.0000000e+00 0.0000000e+00 
0.0000000e+00 0.0000000e+00 0.0000000e+00 
0.0000000e+00 0.0000000e+00 0.0000000e+00 
0.0000000e+00 0.0000000e+00 0.0000000e+00 
0.0000000e+00 0.0000000e+00 0.0000000e+00 
0.0000000e+00 0.0000000e+00 0.0000000e+00 
0.0000000e+00 0.0000000e+00 0.0000000e+00 
0.0000000e+00 0.0000000e+00 0.0000000e+00 
0.0000000e+00 0.0000000e+00 0.0000000e+00 
0.0000000e+00 0.0000000e+00 0.0000000e+00 
0.0000000e+00 0.0000000e+00 0.0000000e+00 
0.0000000e+00 0.0000000e+00 0.0000000e+00 
0.0000000e+00 0.0000000e+00 0.0000000e+00 