# vtk DataFile Version 4.0
vtk output
ASCII
DATASET UNSTRUCTURED_GRID
POINTS 460 float
0.0000000e+00 0.0000000e+00 0.0000000e+00 
5.0000000e+00 0.0000000e+00 0.0000000e+00 
5.0000000e+00 3.0000000e+00 0.0000000e+00 
0.0000000e+00 3.0000000e+00 0.0000000e+00 
0.0000000e+00 0.0000000e+00 1.0000000e+01 
5.0000000e+00 0.0000000e+00 1.0000000e+01 
5.0000000e+00 3.0000000e+00 1.0000000e+01 
0.0000000e+00 3.0000000e+00 1.0000000e+01 
1.0000000e+00 3.0000000e+00 -5.0000000e+00 
1.0000000e+00 3.0000000e+00 -4.5000000e+00 
1.0000000e+00 3.0000000e+00 -4.0000000e+00 
1.0000000e+00 3.0000000e+00 -3.5000000e+00 
1.0000000e+00 3.0000000e+00 -3.0000000e+00 
1.0000000e+00 3.0000000e+00 -2.5000000e+00 
1.0000000e+00 3.0000000e+00 -2.0000000e+00 
1.0000000e+00 3.0000000e+00 -1.5000000e+00 
1.0000000e+00 3.0000000e+00 -1.0000000e+00 
1.0000000e+00 3.0000000e+00 -5.0000000e-01 
1.0000000e+00 3.0000000e+00 0.0000000e+00 
1.0000000e+00 3.0000000e+00 5.0000000e-01 
1.0000000e+00 3.0000000e+00 1.0000000e+00 
1.0000000e+00 3.0000000e+00 1.5000000e+00 
1.0000000e+00 3.0000000e+00 2.0000000e+00 
1.0000000e+00 3.0000000e+00 2.5000000e+00 
1.0000000e+00 3.0000000e+00 3.0000000e+00 
1.0000000e+00 3.0000000e+00 3.5000000e+00 
1.0000000e+00 3.0000000e+00 4.0000000e+00 
1.0000000e+00 3.0000000e+00 4.5000000e+00 
1.0000000e+00 3.0000000e+00 5.0000000e+00 
1.0000000e+00 3.0000000e+00 5.5000000e+00 
1.0000000e+00 3.0000000e+00 6.0000000e+00 
1.0000000e+00 3.0000000e+00 6.5000000e+00 
1.0000000e+00 3.0000000e+00 7.0000000e+00 
1.0000000e+00 3.0000000e+00 7.5000000e+00 
1.0000000e+00 3.0000000e+00 8.0000000e+00 
1.0000000e+00 3.0000000e+00 8.5000000e+00 
1.0000000e+00 3.0000000e+00 9.0000000e+00 
1.0000000e+00 3.0000000e+00 9.5000000e+00 
1.0000000e+00 3.0000000e+00 1.0000000e+01 
1.0000000e+00 3.0000000e+00 1.0500000e+01 
1.0000000e+00 3.0000000e+00 1.1000000e+01 
1.0000000e+00 3.0000000e+00 1.1500000e+01 
1.0000000e+00 3.0000000e+00 1.2000000e+01 
1.0000000e+00 3.0000000e+00 1.2500000e+01 
1.0000000e+00 3.0000000e+00 1.3000000e+01 
1.0000000e+00 3.0000000e+00 1.3500000e+01 
1.0000000e+00 3.0000000e+00 1.4000000e+01 
1.0000000e+00 3.0000000e+00 1.4500000e+01 
1.0000000e+00 3.0250001e+00 -5.0000000e+00 
1.0000000e+00 3.0250001e+00 -4.5000000e+00 
1.0000000e+00 3.0250001e+00 -4.0000000e+00 
1.0000000e+00 3.0250001e+00 -3.5000000e+00 
1.0000000e+00 3.0250001e+00 -3.0000000e+00 
1.0000000e+00 3.0250001e+00 -2.5000000e+00 
1.0000000e+00 3.0250001e+00 -2.0000000e+00 
1.0000000e+00 3.0250001e+00 -1.5000000e+00 
1.0000000e+00 3.0250001e+00 -1.0000000e+00 
1.0000000e+00 3.0250001e+00 -5.0000000e-01 
1.0000000e+00 3.0250001e+00 0.0000000e+00 
1.0000000e+00 3.0250001e+00 5.0000000e-01 
1.0000000e+00 3.0250001e+00 1.0000000e+00 
1.0000000e+00 3.0250001e+00 1.5000000e+00 
1.0000000e+00 3.0250001e+00 2.0000000e+00 
1.0000000e+00 3.0250001e+00 2.5000000e+00 
1.0000000e+00 3.0250001e+00 3.0000000e+00 
1.0000000e+00 3.0250001e+00 3.5000000e+00 
1.0000000e+00 3.0250001e+00 4.0000000e+00 
1.0000000e+00 3.0250001e+00 4.5000000e+00 
1.0000000e+00 3.0250001e+00 5.0000000e+00 
1.0000000e+00 3.0250001e+00 5.5000000e+00 
1.0000000e+00 3.0250001e+00 6.0000000e+00 
1.0000000e+00 3.0250001e+00 6.5000000e+00 
1.0000000e+00 3.0250001e+00 7.0000000e+00 
1.0000000e+00 3.0250001e+00 7.5000000e+00 
1.0000000e+00 3.0250001e+00 8.0000000e+00 
1.0000000e+00 3.0250001e+00 8.5000000e+00 
1.0000000e+00 3.0250001e+00 9.0000000e+00 
1.0000000e+00 3.0250001e+00 9.5000000e+00 
1.0000000e+00 3.0250001e+00 1.0000000e+01 
1.0000000e+00 3.0250001e+00 1.0500000e+01 
1.0000000e+00 3.0250001e+00 1.1000000e+01 
1.0000000e+00 3.0250001e+00 1.1500000e+01 
1.0000000e+00 3.0250001e+00 1.2000000e+01 
1.0000000e+00 3.0250001e+00 1.2500000e+01 
1.0000000e+00 3.0250001e+00 1.3000000e+01 
1.0000000e+00 3.0250001e+00 1.3500000e+01 
1.0000000e+00 3.0250001e+00 1.4000000e+01 
1.0000000e+00 3.0250001e+00 1.4500000e+01 
1.0000000e+00 -2.0000000e+00 -5.0000000e+00 
1.0000000e+00 -2.0000000e+00 -4.5000000e+00 
1.0000000e+00 -2.0000000e+00 -4.0000000e+00 
1.0000000e+00 -2.0000000e+00 -3.5000000e+00 
1.0000000e+00 -2.0000000e+00 -3.0000000e+00 
1.0000000e+00 -2.0000000e+00 -2.5000000e+00 
1.0000000e+00 -2.0000000e+00 -2.0000000e+00 
1.0000000e+00 -2.0000000e+00 -1.5000000e+00 
1.0000000e+00 -2.0000000e+00 -1.0000000e+00 
1.0000000e+00 -2.0000000e+00 -5.0000000e-01 
1.0000000e+00 -2.0000000e+00 1.0500000e+01 
1.0000000e+00 -2.0000000e+00 1.1000000e+01 
1.0000000e+00 -2.0000000e+00 1.1500000e+01 
1.0000000e+00 -2.0000000e+00 1.2000000e+01 
1.0000000e+00 -2.0000000e+00 1.2500000e+01 
1.0000000e+00 -2.0000000e+00 1.3000000e+01 
1.0000000e+00 -2.0000000e+00 1.3500000e+01 
1.0000000e+00 -2.0000000e+00 1.4000000e+01 
1.0000000e+00 -2.0000000e+00 1.4500000e+01 
1.0000000e+00 0.0000000e+00 0.0000000e+00 
2.0000000e+00 0.0000000e+00 0.0000000e+00 
3.0000000e+00 0.0000000e+00 0.0000000e+00 
4.0000000e+00 0.0000000e+00 0.0000000e+00 
5.0000000e+00 1.0000000e+00 0.0000000e+00 
5.0000000e+00 2.0000000e+00 0.0000000e+00 
0.0000000e+00 2.0000000e+00 0.0000000e+00 
0.0000000e+00 1.0000000e+00 0.0000000e+00 
0.0000000e+00 0.0000000e+00 1.0000000e+00 
0.0000000e+00 0.0000000e+00 2.0000000e+00 
0.0000000e+00 0.0000000e+00 3.0000000e+00 
0.0000000e+00 0.0000000e+00 4.0000000e+00 
0.0000000e+00 0.0000000e+00 5.0000000e+00 
0.0000000e+00 0.0000000e+00 6.0000000e+00 
0.0000000e+00 0.0000000e+00 7.0000000e+00 
0.0000000e+00 0.0000000e+00 8.0000000e+00 
0.0000000e+00 0.0000000e+00 9.0000000e+00 
5.0000000e+00 0.0000000e+00 1.0000000e+00 
5.0000000e+00 0.0000000e+00 2.0000000e+00 
5.0000000e+00 0.0000000e+00 3.0000000e+00 
5.0000000e+00 0.0000000e+00 4.0000000e+00 
5.0000000e+00 0.0000000e+00 5.0000000e+00 
5.0000000e+00 0.0000000e+00 6.0000000e+00 
5.0000000e+00 0.0000000e+00 7.0000000e+00 
5.0000000e+00 0.0000000e+00 8.0000000e+00 
5.0000000e+00 0.0000000e+00 9.0000000e+00 
1.0000000e+00 0.0000000e+00 1.0000000e+01 
2.0000000e+00 0.0000000e+00 1.0000000e+01 
3.0000000e+00 0.0000000e+00 1.0000000e+01 
4.0000000e+00 0.0000000e+00 1.0000000e+01 
5.0000000e+00 3.0000000e+00 1.0000000e+00 
5.0000000e+00 3.0000000e+00 2.0000000e+00 
5.0000000e+00 3.0000000e+00 3.0000000e+00 
5.0000000e+00 3.0000000e+00 4.0000000e+00 
5.0000000e+00 3.0000000e+00 5.0000000e+00 
5.0000000e+00 3.0000000e+00 6.0000000e+00 
5.0000000e+00 3.0000000e+00 7.0000000e+00 
5.0000000e+00 3.0000000e+00 8.0000000e+00 
5.0000000e+00 3.0000000e+00 9.0000000e+00 
5.0000000e+00 1.0000000e+00 1.0000000e+01 
5.0000000e+00 2.0000000e+00 1.0000000e+01 
0.0000000e+00 3.0000000e+00 1.0000000e+00 
0.0000000e+00 3.0000000e+00 2.0000000e+00 
0.0000000e+00 3.0000000e+00 3.0000000e+00 
0.0000000e+00 3.0000000e+00 4.0000000e+00 
0.0000000e+00 3.0000000e+00 5.0000000e+00 
0.0000000e+00 3.0000000e+00 6.0000000e+00 
0.0000000e+00 3.0000000e+00 7.0000000e+00 
0.0000000e+00 3.0000000e+00 8.0000000e+00 
0.0000000e+00 3.0000000e+00 9.0000000e+00 
0.0000000e+00 2.0000000e+00 1.0000000e+01 
0.0000000e+00 1.0000000e+00 1.0000000e+01 
4.0000000e+00 3.0000000e+00 0.0000000e+00 
3.0000000e+00 3.0000000e+00 0.0000000e+00 
2.0000000e+00 3.0000000e+00 0.0000000e+00 
4.0000000e+00 3.0000000e+00 1.0000000e+01 
3.0000000e+00 3.0000000e+00 1.0000000e+01 
2.0000000e+00 3.0000000e+00 1.0000000e+01 
4.0618000e+00 1.5000000e+00 0.0000000e+00 
1.5046000e+00 7.6549745e-01 0.0000000e+00 
2.5000000e+00 2.1339746e+00 0.0000000e+00 
1.5046000e+00 2.2345026e+00 0.0000000e+00 
2.4957771e+00 8.1560516e-01 0.0000000e+00 
3.4707544e+00 2.2336540e+00 0.0000000e+00 
3.4700506e+00 7.5794268e-01 0.0000000e+00 
8.6322361e-01 1.5000000e+00 0.0000000e+00 
2.0000000e+00 1.5000000e+00 0.0000000e+00 
2.9960666e+00 1.4974480e+00 0.0000000e+00 
4.2679491e+00 7.3205084e-01 0.0000000e+00 
4.2679491e+00 2.2679491e+00 0.0000000e+00 
7.2695929e-01 2.2730408e+00 0.0000000e+00 
7.2695929e-01 7.2695929e-01 0.0000000e+00 
4.1822505e+00 0.0000000e+00 2.5515697e+00 
4.2017918e+00 0.0000000e+00 4.4725966e+00 
4.1114569e+00 0.0000000e+00 6.5092020e+00 
8.6602539e-01 0.0000000e+00 3.5000000e+00 
8.4778279e-01 0.0000000e+00 5.4684029e+00 
8.9629614e-01 0.0000000e+00 7.5867257e+00 
2.5566745e+00 0.0000000e+00 8.1853306e-01 
2.4918270e+00 0.0000000e+00 9.1386929e+00 
8.4677207e-01 0.0000000e+00 1.5042374e+00 
4.0943027e+00 0.0000000e+00 8.4081745e+00 
8.6281651e-01 0.0000000e+00 2.5007062e+00 
1.7315160e+00 0.0000000e+00 3.0001178e+00 
1.7319617e+00 0.0000000e+00 4.0000196e+00 
2.5980761e+00 0.0000000e+00 3.5000000e+00 
2.5536871e+00 0.0000000e+00 4.4963923e+00 
2.5928419e+00 0.0000000e+00 2.4239938e+00 
1.5037409e+00 0.0000000e+00 9.1535149e+00 
1.8433737e+00 0.0000000e+00 8.1858873e+00 
3.0000000e+00 0.0000000e+00 8.2679491e+00 
2.5000000e+00 0.0000000e+00 7.4019237e+00 
3.5042722e+00 0.0000000e+00 7.4271150e+00 
3.0310018e+00 0.0000000e+00 6.5282087e+00 
2.0373929e+00 0.0000000e+00 6.5307913e+00 
3.4767809e+00 0.0000000e+00 5.8031492e+00 
2.5452602e+00 0.0000000e+00 5.5720768e+00 
1.6456656e+00 0.0000000e+00 1.9697139e+00 
8.6297011e-01 0.0000000e+00 4.4947371e+00 
1.0111579e+00 0.0000000e+00 6.5282545e+00 
3.4994321e+00 0.0000000e+00 8.4691072e-01 
4.1860156e+00 0.0000000e+00 3.5040276e+00 
1.7320508e+00 0.0000000e+00 5.0000000e+00 
4.0544066e+00 0.0000000e+00 1.5781221e+00 
1.5817389e+00 0.0000000e+00 9.3943578e-01 
8.3166349e-01 0.0000000e+00 8.5090933e+00 
3.4686174e+00 0.0000000e+00 9.1752682e+00 
3.0709300e+00 0.0000000e+00 1.5799091e+00 
3.3927374e+00 0.0000000e+00 3.0399952e+00 
3.3826034e+00 0.0000000e+00 3.9747651e+00 
4.3420062e+00 0.0000000e+00 7.4688983e+00 
3.4023225e+00 0.0000000e+00 4.9314723e+00 
1.6740381e+00 0.0000000e+00 7.3014426e+00 
4.2715640e+00 0.0000000e+00 5.4758859e+00 
1.6225953e+00 0.0000000e+00 5.8104177e+00 
4.2679491e+00 0.0000000e+00 9.2679491e+00 
7.3205084e-01 0.0000000e+00 7.3205084e-01 
4.2679491e+00 0.0000000e+00 7.3205084e-01 
7.3205084e-01 0.0000000e+00 9.2679491e+00 
3.4586334e+00 0.0000000e+00 2.2347178e+00 
2.2895701e+00 0.0000000e+00 1.5463171e+00 
5.0000000e+00 2.2345026e+00 1.5046000e+00 
[...]
POINT_DATA 460
FIELD FieldData 2
DISPLACEMENT 3 460  float
0.0000000e+00 0.0000000e+00 0.0000000e+00 
0.0000000e+00 0.0000000e+00 0.0000000e+00 
0.0000000e+00 2.1527978e-07 0.0000000e+00 
0.0000000e+00 3.2967037e-06 0.0000000e+00 
0.0000000e+00 0.0000000e+00 0.0000000e+00 
0.0000000e+00 0.0000000e+00 0.0000000e+00 
0.0000000e+00 -9.5229136e-10 0.0000000e+00 
0.0000000e+00 1.8606093e-09 0.0000000e+00 
0.0000000e+00 -3.3092534e-04 0.0000000e+00 
0.0000000e+00 -3.9011068e-04 0.0000000e+00 
0.0000000e+00 -5.3702801e-04 0.0000000e+00 
0.0000000e+00 -6.9151219e-04 0.0000000e+00 
0.0000000e+00 -7.2243699e-04 0.0000000e+00 
0.0000000e+00 -5.9309078e-04 0.0000000e+00 
0.0000000e+00 -4.1178291e-04 0.0000000e+00 
0.0000000e+00 -2.4584943e-04 0.0000000e+00 
0.0000000e+00 -1.2198503e-04 0.0000000e+00 
0.0000000e+00 -4.3682914e-05 0.0000000e+00 
0.0000000e+00 -3.6278748e-06 0.0000000e+00 
9.6310217e-08 8.9077894e-06 1.5769212e-06 
5.0569275e-07 9.6319072e-06 4.9994543e-07 
1.4785641e-07 6.8946210e-06 5.7098583e-07 
2.1565025e-07 4.0955074e-06 9.6227666e-07 
2.0153172e-07 2.1302158e-06 6.6259560e-07 
1.1997993e-07 9.7607528e-07 5.0823121e-07 
1.1841715e-07 3.7631801e-07 4.2968509e-07 
4.7452023e-08 8.3211049e-08 2.4396215e-07 
1.5768778e-08 -5.0852389e-08 1.4425991e-07 
-2.3660338e-09 -9.5865261e-08 4.6650502e-08 
-3.3424459e-09 -9.2847053e-08 2.0069366e-09 
-1.5525932e-09 -6.8706143e-08 -1.1360005e-08 
-1.1892318e-09 -3.9251415e-08 -1.9479828e-08 
1.7530849e-10 -1.4771930e-08 -1.9261890e-08 
7.7648710e-10 9.5529074e-10 -1.2148083e-08 
8.3271445e-10 8.1123348e-09 -7.0794819e-09 
1.1300693e-09 9.0708872e-09 -1.8257871e-09 
9.7487751e-10 6.7790724e-09 8.1484243e-11 
4.3928561e-10 3.4761864e-09 1.4105639e-10 
0.0000000e+00 4.9357529e-10 0.0000000e+00 
0.0000000e+00 -2.1401045e-09 0.0000000e+00 
0.0000000e+00 -4.0001575e-09 0.0000000e+00 
0.0000000e+00 -4.8846154e-09 0.0000000e+00 
0.0000000e+00 -4.8245949e-09 0.0000000e+00 
0.0000000e+00 -4.0402250e-09 0.0000000e+00 
0.0000000e+00 -2.8659324e-09 0.0000000e+00 
0.0000000e+00 -1.6718203e-09 0.0000000e+00 
0.0000000e+00 -7.9168500e-10 0.0000000e+00 
0.0000000e+00 -4.6586751e-10 0.0000000e+00 
0.0000000e+00 -3.3195323e-04 0.0000000e+00 
0.0000000e+00 -3.9136966e-04 0.0000000e+00 
0.0000000e+00 -5.3887680e-04 0.0000000e+00 
0.0000000e+00 -6.9398992e-04 0.0000000e+00 
0.0000000e+00 -7.2506280e-04 0.0000000e+00 
0.0000000e+00 -5.9524039e-04 0.0000000e+00 
0.0000000e+00 -4.1324989e-04 0.0000000e+00 
0.0000000e+00 -2.4669745e-04 0.0000000e+00 
0.0000000e+00 -1.2238180e-04 0.0000000e+00 
0.0000000e+00 -4.3805332e-05 0.0000000e+00 
0.0000000e+00 -3.7873642e-06 0.0000000e+00 
0.0000000e+00 9.1918018e-06 0.0000000e+00 
0.0000000e+00 9.8011114e-06 0.0000000e+00 
0.0000000e+00 6.9619505e-06 0.0000000e+00 
0.0000000e+00 4.1154831e-06 0.0000000e+00 
0.0000000e+00 2.1326630e-06 0.0000000e+00 
0.0000000e+00 9.7355417e-07 0.0000000e+00 
0.0000000e+00 3.7293239e-07 0.0000000e+00 
0.0000000e+00 8.1208874e-08 0.0000000e+00 
0.0000000e+00 -5.1005156e-08 0.0000000e+00 
0.0000000e+00 -9.5714093e-08 0.0000000e+00 
0.0000000e+00 -9.2958928e-08 0.0000000e+00 
0.0000000e+00 -6.8737087e-08 0.0000000e+00 
0.0000000e+00 -3.9471050e-08 0.0000000e+00 
0.0000000e+00 -1.5003257e-08 0.0000000e+00 
0.0000000e+00 7.7902668e-10 0.0000000e+00 
0.0000000e+00 8.0180032e-09 0.0000000e+00 
0.0000000e+00 9.0611705e-09 0.0000000e+00 
0.0000000e+00 6.7927171e-09 0.0000000e+00 
0.0000000e+00 3.5252472e-09 0.0000000e+00 
0.0000000e+00 4.8637477e-10 0.0000000e+00 
0.0000000e+00 -2.1331006e-09 0.0000000e+00 
0.0000000e+00 -3.9943227e-09 0.0000000e+00 
0.0000000e+00 -4.8805191e-09 0.0000000e+00 
0.0000000e+00 -4.8224713e-09 0.0000000e+00 
0.0000000e+00 -4.0400563e-09 0.0000000e+00 
0.0000000e+00 -2.8675047e-09 0.0000000e+00 
0.0000000e+00 -1.6747611e-09 0.0000000e+00 
0.0000000e+00 -7.9549861e-10 0.0000000e+00 
0.0000000e+00 -4.6998044e-10 0.0000000e+00 
0.0000000e+00 0.0000000e+00 0.0000000e+00 
0.0000000e+00 0.0000000e+00 0.0000000e+00 
0.0000000e+00 0.0000000e+00 0.0000000e+00 
0.0000000e+00 0.0000000e+00 0.0000000e+00 
0.0000000e+00 0.0000000e+00 0.0000000e+00 
0.0000000e+00 0.0000000e+00 0.0000000e+00 
0.0000000e+00 0.0000000e+00 0.0000000e+00 
0.0000000e+00 0.0000000e+00 0.0000000e+00 
0.0000000e+00 0.0000000e+00 0.0000000e+00 
0.0000000e+00 0.0000000e+00 0.0000000e+00 
0.0000000e+00 0.0000000e+00 0.0000000e+00 
0.0000000e+00 0.0000000e+00 0.0000000e+00 
0.0000000e+00 0.0000000e+00 0.0000000e+00 
0.0000000e+00 0.0000000e+00 0.0000000e+00 
0.0000000e+00 0.0000000e+00 0.0000000e+00 
0.0000000e+00 0.0000000e+00 0.0000000e+00 
0.0000000e+00 0.0000000e+00 0.0000000e+00 
0.0000000e+00 0.0000000e+00 0.0000000e+00 
0.0000000e+00 0.0000000e+00 0.0000000e+00 
0.0000000e+00 0.0000000e+00 0.0000000e+00 
0.0000000e+00 0.0000000e+00 0.0000000e+00 
0.0000000e+00 0.0000000e+00 0.0000000e+00 
0.0000000e+00 0.0000000e+00 0.0000000e+00 
0.0000000e+00 1.0953676e-07 0.0000000e+00 
0.0000000e+00 1.9581920e-07 0.0000000e+00 
0.0000000e+00 2.4870192e-06 0.0000000e+00 
0.0000000e+00 1.2920675e-06 0.0000000e+00 
0.0000000e+00 0.0000000e+00 0.0000000e+00 
0.0000000e+00 0.0000000e+00 0.0000000e+00 
0.0000000e+00 0.0000000e+00 0.0000000e+00 
0.0000000e+00 0.0000000e+00 0.0000000e+00 
0.0000000e+00 0.0000000e+00 0.0000000e+00 
0.0000000e+00 0.0000000e+00 0.0000000e+00 
0.0000000e+00 0.0000000e+00 0.0000000e+00 
0.0000000e+00 0.0000000e+00 0.0000000e+00 
0.0000000e+00 0.0000000e+00 0.0000000e+00 
0.0000000e+00 0.0000000e+00 0.0000000e+00 
0.0000000e+00 0.0000000e+00 0.0000000e+00 
0.0000000e+00 0.0000000e+00 0.0000000e+00 
0.0000000e+00 0.0000000e+00 0.0000000e+00 
0.0000000e+00 0.0000000e+00 0.0000000e+00 
0.0000000e+00 0.0000000e+00 0.0000000e+00 
0.0000000e+00 0.0000000e+00 0.0000000e+00 
0.0000000e+00 0.0000000e+00 0.0000000e+00 
0.0000000e+00 0.0000000e+00 0.0000000e+00 
0.0000000e+00 0.0000000e+00 0.0000000e+00 
0.0000000e+00 0.0000000e+00 0.0000000e+00 
0.0000000e+00 0.0000000e+00 0.0000000e+00 
0.0000000e+00 0.0000000e+00 0.0000000e+00 
0.0000000e+00 1.7362756e-07 0.0000000e+00 
0.0000000e+00 2.2179625e-08 0.0000000e+00 
0.0000000e+00 -4.8126401e-09 0.0000000e+00 
0.0000000e+00 -6.2192271e-08 0.0000000e+00 
0.0000000e+00 -3.4853851e-08 0.0000000e+00 
0.0000000e+00 -1.0404654e-08 0.0000000e+00 
0.0000000e+00 2.7118330e-09 0.0000000e+00 
0.0000000e+00 3.3940790e-09 0.0000000e+00 
0.0000000e+00 3.5602399e-10 0.0000000e+00 
0.0000000e+00 -3.0007283e-10 0.0000000e+00 
0.0000000e+00 -6.4292266e-10 0.0000000e+00 
0.0000000e+00 4.0904652e-06 0.0000000e+00 
0.0000000e+00 2.8149716e-06 0.0000000e+00 
0.0000000e+00 1.1000592e-06 0.0000000e+00 
0.0000000e+00 2.2288852e-07 0.0000000e+00 
0.0000000e+00 -4.7656414e-08 0.0000000e+00 
0.0000000e+00 -5.2970673e-08 0.0000000e+00 
0.0000000e+00 -1.1089531e-08 0.0000000e+00 
0.0000000e+00 7.5422930e-09 0.0000000e+00 
0.0000000e+00 5.2111258e-09 0.0000000e+00 
0.0000000e+00 1.8189436e-09 0.0000000e+00 
0.0000000e+00 9.7173680e-10 0.0000000e+00 
0.0000000e+00 3.7947308e-07 0.0000000e+00 
0.0000000e+00 9.5832024e-07 0.0000000e+00 
0.0000000e+00 2.0790715e-06 0.0000000e+00 
0.0000000e+00 -7.1461093e-10 0.0000000e+00 
0.0000000e+00 -5.5629050e-11 0.0000000e+00 
0.0000000e+00 9.1222579e-10 0.0000000e+00 
0.0000000e+00 2.7575112e-07 0.0000000e+00 
0.0000000e+00 7.4326141e-07 0.0000000e+00 
0.0000000e+00 1.1879489e-06 0.0000000e+00 
0.0000000e+00 2.0005521e-06 0.0000000e+00 
0.0000000e+00 5.0028450e-07 0.0000000e+00 
0.0000000e+00 5.6668057e-07 0.0000000e+00 
0.0000000e+00 2.2940472e-07 0.0000000e+00 
0.0000000e+00 1.8100051e-06 0.0000000e+00 
0.0000000e+00 1.1358155e-06 0.0000000e+00 
0.0000000e+00 6.5144411e-07 0.0000000e+00 
0.0000000e+00 1.3553957e-07 0.0000000e+00 
0.0000000e+00 3.0282297e-07 0.0000000e+00 
0.0000000e+00 1.7231815e-06 0.0000000e+00 
0.0000000e+00 8.5491877e-07 0.0000000e+00 
0.0000000e+00 0.0000000e+00 0.0000000e+00 
0.0000000e+00 0.0000000e+00 0.0000000e+00 
0.0000000e+00 0.0000000e+00 0.0000000e+00 
0.0000000e+00 0.0000000e+00 0.0000000e+00 
0.0000000e+00 0.0000000e+00 0.0000000e+00 
0.0000000e+00 0.0000000e+00 0.0000000e+00 
0.0000000e+00 0.0000000e+00 0.0000000e+00 
0.0000000e+00 0.0000000e+00 0.0000000e+00 
0.0000000e+00 0.0000000e+00 0.0000000e+00 
0.0000000e+00 0.0000000e+00 0.0000000e+00 
0.0000000e+00 0.0000000e+00 0.0000000e+00 
0.0000000e+00 0.0000000e+00 0.0000000e+00 
0.0000000e+00 0.0000000e+00 0.0000000e+00 
0.0000000e+00 0.0000000e+00 0.0000000e+00 
0.0000000e+00 0.0000000e+00 0.0000000e+00 
0.0000000e+00 0.0000000e+00 0.0000000e+00 
0.0000000e+00 0.0000000e+00 0.0000000e+00 
0.0000000e+00 0.0000000e+00 0.0000000e+00 
0.0000000e+00 0.0000000e+00 0.0000000e+00 
0.0000000e+00 0.0000000e+00 0.0000000e+00 
0.0000000e+00 0.0000000e+00 0.0000000e+00 
0.0000000e+00 0.0000000e+00 0.0000000e+00 
0.0000000e+00 0.0000000e+00 0.0000000e+00 
0.0000000e+00 0.0000000e+00 0.0000000e+00 
0.0000000e+00 0.0000000e+00 0.0000000e+00 
0.0000000e+00 0.0000000e+00 0.0000000e+00 
0.0000000e+00 0.0000000e+00 0.0000000e+00 
0.0000000e+00 0.0000000e+00 0.0000000e+00 
0.0000000e+00 0.0000000e+00 0.0000000e+00 
0.0000000e+00 0.0000000e+00 0.0000000e+00 
0.0000000e+00 0.0000000e+00 0.0000000e+00 
0.0000000e+00 0.0000000e+00 0.0000000e+00 
0.0000000e+00 0.0000000e+00 0.0000000e+00 
0.0000000e+00 0.0000000e+00 0.0000000e+00 
0.0000000e+00 0.0000000e+00 0.0000000e+00 
0.0000000e+00 0.0000000e+00 0.0000000e+00 
0.0000000e+00 0.0000000e+00 0.0000000e+00 
0.0000000e+00 0.0000000e+00 0.0000000e+00 
0.0000000e+00 0.0000000e+00 0.0000000e+00 
0.0000000e+00 0.0000000e+00 0.0000000e+00 
0.0000000e+00 0.0000000e+00 0.0000000e+00 
0.0000000e+00 0.0000000e+00 0.0000000e+00 
0.0000000e+00 0.0000000e+00 0.0000000e+00 
0.0000000e+00 0.0000000e+00 0.0000000e+00 
0.0000000e+00 0.0000000e+00 0.0000000e+00 
0.0000000e+00 0.0000000e+00 0.0000000e+00 
0.0000000e+00 0.0000000e+00 0.0000000e+00 
0.0000000e+00 0.0000000e+00 0.0000000e+00 
0.0000000e+00 0.0000000e+00 0.0000000e+00 
0.0000000e+00 5.1712483e-08 0.0000000e+00 
0.0000000e+00 2.8935118e-10 0.0000000e+00 
0.0000000e+00 -6.3048283e-08 0.0000000e+00 
0.0000000e+00 -2.2684027e-08 0.0000000e+00 
0.0000000e+00 4.1591841e-09 0.0000000e+00 
0.0000000e+00 2.4049465e-08 0.0000000e+00 
0.0000000e+00 -1.5806478e-08 0.0000000e+00 
0.0000000e+00 -9.4705965e-10 0.0000000e+00 
0.0000000e+00 -1.7161945e-08 0.0000000e+00 
0.0000000e+00 -8.7986205e-09 0.0000000e+00 
0.0000000e+00 3.5896344e-09 0.0000000e+00 
0.0000000e+00 -4.9351925e-08 0.0000000e+00 
0.0000000e+00 -8.9543678e-11 0.0000000e+00 
0.0000000e+00 1.7087779e-09 0.0000000e+00 
0.0000000e+00 7.3279701e-08 0.0000000e+00 
0.0000000e+00 9.8415598e-10 0.0000000e+00 
0.0000000e+00 1.8848063e-09 0.0000000e+00 
0.0000000e+00 1.0611301e-07 0.0000000e+00 
0.0000000e+00 -2.9427083e-08 0.0000000e+00 
0.0000000e+00 2.3465079e-09 0.0000000e+00 
0.0000000e+00 4.5962150e-08 0.0000000e+00 
0.0000000e+00 -6.8122081e-09 0.0000000e+00 
0.0000000e+00 -4.3939725e-08 0.0000000e+00 
0.0000000e+00 -2.1431774e-08 0.0000000e+00 
0.0000000e+00 2.6579909e-09 0.0000000e+00 
0.0000000e+00 -1.8503317e-10 0.0000000e+00 
0.0000000e+00 1.1141389e-10 0.0000000e+00 
0.0000000e+00 1.3467994e-07 0.0000000e+00 
0.0000000e+00 5.9396552e-08 0.0000000e+00 
0.0000000e+00 3.7503423e-09 0.0000000e+00 
0.0000000e+00 2.3293119e-06 0.0000000e+00 
0.0000000e+00 7.6124377e-07 0.0000000e+00 
0.0000000e+00 1.7864087e-08 0.0000000e+00 
0.0000000e+00 2.4638205e-10 0.0000000e+00 
0.0000000e+00 4.9514853e-07 0.0000000e+00 
0.0000000e+00 -5.9945826e-08 0.0000000e+00 
0.0000000e+00 1.9951996e-09 0.0000000e+00 
0.0000000e+00 2.5953406e-07 0.0000000e+00 
0.0000000e+00 1.6478288e-06 0.0000000e+00 
0.0000000e+00 3.1600109e-08 0.0000000e+00 
0.0000000e+00 -2.7760867e-08 0.0000000e+00 
0.0000000e+00 -3.1027987e-08 0.0000000e+00 
0.0000000e+00 7.5674356e-09 0.0000000e+00 
0.0000000e+00 3.1918667e-06 0.0000000e+00 
0.0000000e+00 9.8238786e-07 0.0000000e+00 
0.0000000e+00 2.9214349e-09 0.0000000e+00 
0.0000000e+00 -2.8308893e-08 0.0000000e+00 
0.0000000e+00 -8.4435685e-09 0.0000000e+00 
0.0000000e+00 1.8602550e-07 0.0000000e+00 
0.0000000e+00 7.5155452e-07 0.0000000e+00 
0.0000000e+00 -7.0328063e-09 0.0000000e+00 
0.0000000e+00 -2.0820789e-08 0.0000000e+00 
0.0000000e+00 5.7514860e-09 0.0000000e+00 
0.0000000e+00 1.7419246e-06 0.0000000e+00 
0.0000000e+00 1.7474232e-09 0.0000000e+00 
0.0000000e+00 3.4050593e-06 0.0000000e+00 
0.0000000e+00 1.0838638e-06 0.0000000e+00 
0.0000000e+00 3.8582861e-09 0.0000000e+00 
0.0000000e+00 7.2230760e-10 0.0000000e+00 
0.0000000e+00 -3.3105133e-10 0.0000000e+00 
0.0000000e+00 5.3189536e-10 0.0000000e+00 
0.0000000e+00 8.8749263e-10 0.0000000e+00 
0.0000000e+00 5.6756938e-10 0.0000000e+00 
0.0000000e+00 -5.7835919e-10 0.0000000e+00 
0.0000000e+00 -7.4639031e-11 0.0000000e+00 
0.0000000e+00 1.0425483e-09 0.0000000e+00 
0.0000000e+00 8.5475521e-10 0.0000000e+00 
0.0000000e+00 1.0750045e-10 0.0000000e+00 
0.0000000e+00 -1.5857891e-10 0.0000000e+00 
0.0000000e+00 -8.5722390e-10 0.0000000e+00 
0.0000000e+00 1.1590248e-09 0.0000000e+00 
0.0000000e+00 5.4209892e-10 0.0000000e+00 
1.7501941e-08 -5.9265673e-08 1.1775700e-07 
-2.6707974e-09 -4.3772172e-08 -1.1742533e-08 
3.3107761e-10 5.5255795e-09 -1.0698134e-08 
4.5493226e-07 2.0788057e-06 6.6584425e-07 
1.8299635e-07 5.9003008e-07 4.4794569e-07 
3.9308414e-09 -2.5423372e-08 -1.2896247e-09 
9.9659445e-08 3.4482621e-08 7.8138058e-08 
-2.0780191e-09 3.3086682e-09 -5.3490457e-09 
3.3945165e-07 4.8208267e-06 3.6014106e-07 
1.0481517e-09 6.2827188e-09 -1.8130462e-09 
3.6938329e-07 6.1953955e-07 8.7851923e-08 
8.9419507e-11 5.8430877e-10 -4.3870543e-10 
-3.1411223e-09 -5.0569366e-09 -8.7403302e-09 
-3.2010605e-09 -1.4175404e-09 -1.0472125e-08 
-1.3677214e-09 2.6812716e-09 -6.7650334e-09 
-2.4094395e-09 3.3153935e-10 -1.0287192e-08 
-3.5204495e-09 -1.4577551e-08 -1.3645830e-08 
6.2915811e-11 4.8576925e-09 -4.7794688e-09 
-1.8942643e-09 -6.9929200e-09 -1.7019394e-08 
-1.7834831e-09 -2.2884665e-08 -1.0295776e-08 
1.1721555e-08 -4.7046445e-08 5.9148486e-09 
6.2558643e-09 -4.4919208e-08 8.5676879e-09 
2.9418169e-08 -6.6978778e-08 5.8739015e-08 
5.2734897e-08 -6.7385876e-08 6.7779041e-08 
8.6525787e-08 3.8268094e-10 1.6819538e-07 
1.0133970e-07 2.2329404e-08 1.1233169e-07 
2.0511320e-07 2.3598031e-07 2.9504181e-07 
2.2743664e-07 2.6818736e-07 2.4086322e-07 
2.7860756e-07 6.1772261e-07 3.5514805e-07 
3.2176700e-07 5.0031474e-07 2.5367436e-07 
5.4625440e-07 1.2884512e-06 3.6342513e-07 
3.9063353e-09 -7.3275366e-08 1.7301829e-08 
-1.4453700e-09 -4.6903597e-08 -6.7469341e-09 
1.4608871e-07 1.7650777e-07 3.0183921e-07 
6.6820427e-08 -3.2971496e-08 6.3267812e-08 
3.8293951e-10 1.8377823e-09 -1.0134342e-09 
4.7460034e-08 -2.8570508e-08 1.3479068e-07 
1.9407793e-08 -5.9820167e-08 1.6409748e-08 
4.5133089e-07 1.5081849e-06 1.0711236e-07 
-3.1843170e-10 2.3865674e-09 -1.0851313e-09 
-1.4351567e-10 3.2007503e-09 -1.0997726e-08 
2.4403748e-10 5.5124345e-09 -6.2095920e-09 
9.2557001e-10 -7.4535059e-08 9.1650474e-09 
1.5743167e-07 1.7046639e-07 6.2627954e-08 
2.6958844e-07 1.2195565e-06 6.0019812e-07 
2.4684792e-07 6.0283895e-07 4.4167180e-07 
1.1498690e-07 2.3272058e-07 3.4646820e-07 
4.8585562e-08 1.7993557e-08 1.8548654e-07 
-1.7991932e-09 -2.2166969e-08 -1.8009402e-08 
-6.4510131e-10 -2.9535629e-09 -1.4812904e-08 
9.1003392e-07 5.1135225e-06 3.7303849e-07 
5.8321206e-07 3.3462923e-06 6.0291245e-07 
7.6486567e-10 3.2078527e-09 -4.9070654e-11 
4.3115443e-07 7.8891009e-07 1.7371090e-07 
3.8679133e-07 1.2017272e-06 5.5400943e-07 
1.0164083e-09 6.6762897e-09 -5.6319691e-09 
-3.8102437e-09 -2.7717826e-08 -1.8075449e-08 
7.1979798e-07 2.3297409e-06 4.3818838e-07 
5.6883898e-09 -7.4831185e-08 5.6352800e-08 
-1.5190653e-10 3.2506668e-09 -2.8066709e-09 
-3.5079168e-12 3.9970006e-11 -1.0699008e-10 
1.4583752e-07 2.8008654e-07 2.7650627e-08 
5.8730048e-08 -3.1282983e-08 7.0436776e-08 
5.6762332e-07 2.0655864e-06 5.7903941e-07 
8.4537199e-10 4.2544643e-09 -1.6336598e-09 
-3.3785899e-09 -3.3591558e-08 -1.2358879e-08 
2.6194721e-07 2.8177504e-07 1.5040476e-07 
1.6208581e-07 8.5616676e-08 1.4565904e-07 
3.9715897e-07 2.9933522e-06 2.7121712e-07 
1.8589510e-08 -5.5917003e-08 7.6060012e-08 
5.0370658e-10 2.1056537e-09 -3.6137990e-10 
1.9172595e-07 2.8569032e-06 4.3620810e-07 
3.6695508e-07 4.2383322e-06 5.3234191e-07 
8.5173937e-08 1.6062968e-06 4.7814888e-07 
6.0457324e-08 8.4633666e-07 3.6200069e-07 
4.2313221e-07 5.3356357e-06 4.3283717e-07 
4.1970246e-08 3.7039922e-07 1.9521853e-07 
-4.2917185e-09 8.6176080e-08 1.0833868e-07 
-5.8452476e-10 -4.1919289e-08 5.2507342e-08 
-8.0448048e-09 -7.5106882e-08 1.1926259e-08 
-2.7132649e-09 -6.9306708e-08 -5.5827059e-09 
-2.2971851e-09 -5.0770758e-08 -1.0089108e-08 
-5.9907534e-10 -2.4208084e-08 -1.3005459e-08 
6.7941947e-10 -4.0471462e-09 -1.0005057e-08 
8.7877905e-10 6.0524452e-09 -6.2014602e-09 
1.0291265e-09 7.6624893e-09 -3.5514696e-09 
1.0222108e-09 6.7153114e-09 -1.0034622e-09 
3.4130498e-10 3.6504599e-09 2.5832650e-10 
-3.8207062e-07 4.9142636e-06 1.7895853e-07 
-2.4836726e-07 1.4415712e-06 -3.1336239e-07 
-8.2984286e-08 2.6690691e-07 -2.1373813e-07 
-5.3772947e-10 -4.2966249e-08 -3.2428098e-08 
1.6954621e-09 -6.5205197e-09 -2.5973490e-09 
-4.7754765e-11 4.9311661e-09 -1.5264695e-09 
-1.3844524e-07 1.9492583e-07 -1.5112474e-07 
-2.5164336e-08 -3.1966458e-08 -5.8327711e-08 
7.8993451e-10 -1.5523801e-08 -7.4225617e-09 
-3.5520127e-09 -4.5543498e-09 -6.5152953e-08 
-6.5406901e-08 1.1381807e-06 -1.8577190e-07 
-2.7888530e-07 3.2659552e-06 -1.5663491e-07 
-1.5758143e-10 3.8514627e-09 -1.9202098e-09 
-2.6667004e-07 8.4464830e-07 -9.2158757e-08 
1.1886599e-09 -3.9828979e-08 -7.8299172e-09 
6.0695970e-10 5.4064673e-09 -2.8938389e-09 
3.1033258e-09 3.0522907e-07 -5.5445824e-08 
-8.8445383e-11 -3.7822812e-08 -3.8597801e-08 
-1.1460110e-07 6.1017249e-07 -1.4123036e-07 
-1.3343585e-09 -7.8347860e-08 -8.8841414e-09 
-2.3322187e-08 1.1196319e-08 -9.5030792e-08 
-1.2029597e-07 2.5114857e-06 -1.5905995e-07 
-4.6800603e-09 -2.7610161e-08 -1.2427291e-08 
3.8689688e-10 6.5699832e-09 -1.6617664e-09 
-1.3211348e-07 1.8281195e-07 -6.3846507e-08 
-3.9058184e-10 1.5980997e-09 -1.4570126e-09 
-9.8658511e-08 5.5843526e-07 -2.6014129e-07 
-1.2142952e-08 -2.1524762e-08 -4.0419419e-08 
-2.4281948e-07 4.9240185e-07 -2.1289105e-07 
-1.0553570e-07 1.5554897e-07 -1.6673025e-07 
-2.2038821e-08 8.9838487e-08 -4.2813070e-08 
-9.9500874e-10 1.3851355e-10 -4.1067891e-09 
3.9981979e-10 -1.3007158e-08 -6.9898314e-09 
9.7732455e-10 -9.2536121e-09 -7.7565989e-09 
1.9286293e-09 -5.3884197e-08 -1.0094106e-08 
-4.2071796e-10 2.0000588e-09 -1.1487215e-09 
1.7273780e-10 4.7536530e-09 -3.9370684e-09 
-2.7861128e-07 8.1092662e-07 -1.0670469e-07 
-3.0049677e-08 -1.3250888e-08 -3.2155729e-08 
-1.9143118e-07 1.4915031e-06 -1.5016158e-07 
3.9212105e-09 -1.7362954e-08 -5.5948512e-09 
-2.5696044e-08 8.2900677e-08 -1.2111532e-07 
-1.5150975e-10 2.9748541e-09 -1.4214006e-09 
4.3855905e-10 2.9506830e-09 3.4857409e-10 
1.8516520e-08 1.1588497e-07 1.2886757e-08 
-2.1626411e-07 1.8878538e-06 -1.1966304e-07 
3.6999837e-09 -5.4885113e-08 -8.6030090e-09 
-6.4129907e-08 4.0004359e-08 -5.7229144e-08 
1.4292604e-11 2.2572819e-09 -6.6302935e-10 
-6.4527576e-08 5.7959960e-07 -3.6806526e-08 
-5.6180449e-10 -1.2813549e-08 -4.4744706e-08 
-3.2737763e-08 1.0058535e-07 -1.6519747e-08 
-2.1627324e-10 2.2600812e-09 -1.1846959e-09 
4.5191492e-10 6.9437345e-09 -2.7973166e-09 
-4.5749499e-10 -4.1437122e-08 -1.0181779e-08 
2.8244120e-09 -4.9929351e-08 -1.1256292e-08 
2.4163749e-09 -1.5522104e-08 -1.0072591e-08 
-7.8751838e-11 2.9509033e-09 -7.4831763e-10 
-6.3817211e-08 3.8814969e-07 -1.7324657e-08 
6.0073953e-11 -6.4897819e-08 -3.4801777e-09 
-2.0403647e-08 -1.7004838e-08 -2.6063132e-08 
-6.0759464e-10 -2.0580440e-08 -7.5172997e-09 
-8.4206586e-10 -4.2980854e-09 -2.2057631e-09 
-4.2647077e-08 1.3712237e-06 -2.1628752e-08 
7.7542983e-10 8.2379588e-09 -3.5826537e-09 
-5.4431904e-08 9.8722150e-09 -9.7721049e-08 
-7.1867234e-10 4.0814800e-09 -2.5854912e-09 
6.8835408e-09 -7.1840027e-08 -8.2260803e-09 