# vtk DataFile Version 4.0
vtk output
ASCII
DATASET UNSTRUCTURED_GRID
POINTS 460 float
0.0000000e+00 0.0000000e+00 0.0000000e+00 
5.0000000e+00 0.0000000e+00 0.0000000e+00 
5.0000000e+00 3.0000000e+00 0.0000000e+00 
0.0000000e+00 3.0000000e+00 0.0000000e+00 
0.0000000e+00 0.0000000e+00 1.0000000e+01 
5.0000000e+00 0.0000000e+00 1.0000000e+01 
5.0000000e+00 3.0000000e+00 1.0000000e+01 
0.0000000e+00 3.0000000e+00 1.0000000e+01 
1.0000000e+00 3.0000000e+00 -5.0000000e+00 
1.0000000e+00 3.0000000e+00 -4.5000000e+00 
1.0000000e+00 3.0000000e+00 -4.0000000e+00 
1.0000000e+00 3.0000000e+00 -3.5000000e+00 
1.0000000e+00 3.0000000e+00 -3.0000000e+00 
1.0000000e+00 3.0000000e+00 -2.5000000e+00 
1.0000000e+00 3.0000000e+00 -2.0000000e+00 
1.0000000e+00 3.0000000e+00 -1.5000000e+00 
1.0000000e+00 3.0000000e+00 -1.0000000e+00 
1.0000000e+00 3.0000000e+00 -5.0000000e-01 
1.0000000e+00 3.0000000e+00 0.0000000e+00 
1.0000000e+00 3.0000000e+00 5.0000000e-01 
1.0000000e+00 3.0000000e+00 1.0000000e+00 
1.0000000e+00 3.0000000e+00 1.5000000e+00 
1.0000000e+00 3.0000000e+00 2.0000000e+00 
1.0000000e+00 3.0000000e+00 2.5000000e+00 
1.0000000e+00 3.0000000e+00 3.0000000e+00 
1.0000000e+00 3.0000000e+00 3.5000000e+00 
1.0000000e+00 3.0000000e+00 4.0000000e+00 
1.0000000e+00 3.0000000e+00 4.5000000e+00 
1.0000000e+00 3.0000000e+00 5.0000000e+00 
1.0000000e+00 3.0000000e+00 5.5000000e+00 
1.0000000e+00 3.0000000e+00 6.0000000e+00 
1.0000000e+00 3.0000000e+00 6.5000000e+00 
1.0000000e+00 3.0000000e+00 7.0000000e+00 
1.0000000e+00 3.0000000e+00 7.5000000e+00 
1.0000000e+00 3.0000000e+00 8.0000000e+00 
1.0000000e+00 3.0000000e+00 8.5000000e+00 
1.0000000e+00 3.0000000e+00 9.0000000e+00 
1.0000000e+00 3.0000000e+00 9.5000000e+00 
1.0000000e+00 3.0000000e+00 1.0000000e+01 
1.0000000e+00 3.0000000e+00 1.0500000e+01 
1.0000000e+00 3.0000000e+00 1.1000000e+01 
1.0000000e+00 3.0000000e+00 1.1500000e+01 
1.0000000e+00 3.0000000e+00 1.2000000e+01 
1.0000000e+00 3.0000000e+00 1.2500000e+01 
1.0000000e+00 3.0000000e+00 1.3000000e+01 
1.0000000e+00 3.0000000e+00 1.3500000e+01 
1.0000000e+00 3.0000000e+00 1.4000000e+01 
1.0000000e+00 3.0000000e+00 1.4500000e+01 
1.0000000e+00 3.0250001e+00 -5.0000000e+00 
1.0000000e+00 3.0250001e+00 -4.5000000e+00 
1.0000000e+00 3.0250001e+00 -4.0000000e+00 
1.0000000e+00 3.0250001e+00 -3.5000000e+00 
1.0000000e+00 3.0250001e+00 -3.0000000e+00 
1.0000000e+00 3.0250001e+00 -2.5000000e+00 
1.0000000e+00 3.0250001e+00 -2.0000000e+00 
1.0000000e+00 3.0250001e+00 -1.5000000e+00 
1.0000000e+00 3.0250001e+00 -1.0000000e+00 
1.0000000e+00 3.0250001e+00 -5.0000000e-01 
1.0000000e+00 3.0250001e+00 0.0000000e+00 
1.0000000e+00 3.0250001e+00 5.0000000e-01 
1.0000000e+00 3.0250001e+00 1.0000000e+00 
1.0000000e+00 3.0250001e+00 1.5000000e+00 
1.0000000e+00 3.0250001e+00 2.0000000e+00 
1.0000000e+00 3.0250001e+00 2.5000000e+00 
1.0000000e+00 3.0250001e+00 3.0000000e+00 
1.0000000e+00 3.0250001e+00 3.5000000e+00 
1.0000000e+00 3.0250001e+00 4.0000000e+00 
1.0000000e+00 3.0250001e+00 4.5000000e+00 
1.0000000e+00 3.0250001e+00 5.0000000e+00 
1.0000000e+00 3.0250001e+00 5.5000000e+00 
1.0000000e+00 3.0250001e+00 6.0000000e+00 
1.0000000e+00 3.0250001e+00 6.5000000e+00 
1.0000000e+00 3.0250001e+00 7.0000000e+00 
1.0000000e+00 3.0250001e+00 7.5000000e+00 
1.0000000e+00 3.0250001e+00 8.0000000e+00 
1.0000000e+00 3.0250001e+00 8.5000000e+00 
1.0000000e+00 3.0250001e+00 9.0000000e+00 
1.0000000e+00 3.0250001e+00 9.5000000e+00 
1.0000000e+00 3.0250001e+00 1.0000000e+01 
1.0000000e+00 3.0250001e+00 1.0500000e+01 
1.0000000e+00 3.0250001e+00 1.1000000e+01 
1.0000000e+00 3.0250001e+00 1.1500000e+01 
1.0000000e+00 3.0250001e+00 1.2000000e+01 
1.0000000e+00 3.0250001e+00 1.2500000e+01 
1.0000000e+00 3.0250001e+00 1.3000000e+01 
1.0000000e+00 3.0250001e+00 1.3500000e+01 
1.0000000e+00 3.0250001e+00 1.4000000e+01 
1.0000000e+00 3.0250001e+00 1.4500000e+01 
1.0000000e+00 -2.0000000e+00 -5.0000000e+00 
1.0000000e+00 -2.0000000e+00 -4.5000000e+00 
1.0000000e+00 -2.0000000e+00 -4.0000000e+00 
1.0000000e+00 -2.0000000e+00 -3.5000000e+00 
1.0000000e+00 -2.0000000e+00 -3.0000000e+00 
1.0000000e+00 -2.0000000e+00 -2.5000000e+00 
1.0000000e+00 -2.0000000e+00 -2.0000000e+00 
1.0000000e+00 -2.0000000e+00 -1.5000000e+00 
1.0000000e+00 -2.0000000e+00 -1.0000000e+00 
1.0000000e+00 -2.0000000e+00 -5.0000000e-01 
1.0000000e+00 -2.0000000e+00 1.0500000e+01 
1.0000000e+00 -2.0000000e+00 1.1000000e+01 
1.0000000e+00 -2.0000000e+00 1.1500000e+01 
1.0000000e+00 -2.0000000e+00 1.2000000e+01 
1.0000000e+00 -2.0000000e+00 1.2500000e+01 
1.0000000e+00 -2.0000000e+00 1.3000000e+01 
1.0000000e+00 -2.0000000e+00 1.3500000e+01 
1.0000000e+00 -2.0000000e+00 1.4000000e+01 
1.0000000e+00 -2.0000000e+00 1.4500000e+01 
1.0000000e+00 0.0000000e+00 0.0000000e+00 
2.0000000e+00 0.0000000e+00 0.0000000e+00 
3.0000000e+00 0.0000000e+00 0.0000000e+00 
4.0000000e+00 0.0000000e+00 0.0000000e+00 
5.0000000e+00 1.0000000e+00 0.0000000e+00 
5.0000000e+00 2.0000000e+00 0.0000000e+00 
0.0000000e+00 2.0000000e+00 0.0000000e+00 
0.0000000e+00 1.0000000e+00 0.0000000e+00 
0.0000000e+00 0.0000000e+00 1.0000000e+00 
0.0000000e+00 0.0000000e+00 2.0000000e+00 
0.0000000e+00 0.0000000e+00 3.0000000e+00 
0.0000000e+00 0.0000000e+00 4.0000000e+00 
0.0000000e+00 0.0000000e+00 5.0000000e+00 
0.0000000e+00 0.0000000e+00 6.0000000e+00 
0.0000000e+00 0.0000000e+00 7.0000000e+00 
0.0000000e+00 0.0000000e+00 8.0000000e+00 
0.0000000e+00 0.0000000e+00 9.0000000e+00 
5.0000000e+00 0.0000000e+00 1.0000000e+00 
5.0000000e+00 0.0000000e+00 2.0000000e+00 
5.0000000e+00 0.0000000e+00 3.0000000e+00 
5.0000000e+00 0.0000000e+00 4.0000000e+00 
5.0000000e+00 0.0000000e+00 5.0000000e+00 
5.0000000e+00 0.0000000e+00 6.0000000e+00 
5.0000000e+00 0.0000000e+00 7.0000000e+00 
5.0000000e+00 0.0000000e+00 8.0000000e+00 
5.0000000e+00 0.0000000e+00 9.0000000e+00 
1.0000000e+00 0.0000000e+00 1.0000000e+01 
2.0000000e+00 0.0000000e+00 1.0000000e+01 
3.0000000e+00 0.0000000e+00 1.0000000e+01 
4.0000000e+00 0.0000000e+00 1.0000000e+01 
5.0000000e+00 3.0000000e+00 1.0000000e+00 
5.0000000e+00 3.0000000e+00 2.0000000e+00 
5.0000000e+00 3.0000000e+00 3.0000000e+00 
5.0000000e+00 3.0000000e+00 4.0000000e+00 
5.0000000e+00 3.0000000e+00 5.0000000e+00 
5.0000000e+00 3.0000000e+00 6.0000000e+00 
5.0000000e+00 3.0000000e+00 7.0000000e+00 
5.0000000e+00 3.0000000e+00 8.0000000e+00 
5.0000000e+00 3.0000000e+00 9.0000000e+00 
5.0000000e+00 1.0000000e+00 1.0000000e+01 
5.0000000e+00 2.0000000e+00 1.0000000e+01 
0.0000000e+00 3.0000000e+00 1.0000000e+00 
0.0000000e+00 3.0000000e+00 2.0000000e+00 
0.0000000e+00 3.0000000e+00 3.0000000e+00 
0.0000000e+00 3.0000000e+00 4.0000000e+00 
0.0000000e+00 3.0000000e+00 5.0000000e+00 
0.0000000e+00 3.0000000e+00 6.0000000e+00 
0.0000000e+00 3.0000000e+00 7.0000000e+00 
0.0000000e+00 3.0000000e+00 8.0000000e+00 
0.0000000e+00 3.0000000e+00 9.0000000e+00 
0.0000000e+00 2.0000000e+00 1.0000000e+01 
0.0000000e+00 1.0000000e+00 1.0000000e+01 
4.0000000e+00 3.0000000e+00 0.0000000e+00 
3.0000000e+00 3.0000000e+00 0.0000000e+00 
2.0000000e+00 3.0000000e+00 0.0000000e+00 
4.0000000e+00 3.0000000e+00 1.0000000e+01 
3.0000000e+00 3.0000000e+00 1.0000000e+01 
2.0000000e+00 3.0000000e+00 1.0000000e+01 
4.0618000e+00 1.5000000e+00 0.0000000e+00 
1.5046000e+00 7.6549745e-01 0.0000000e+00 
2.5000000e+00 2.1339746e+00 0.0000000e+00 
1.5046000e+00 2.2345026e+00 0.0000000e+00 
2.4957771e+00 8.1560516e-01 0.0000000e+00 
3.4707544e+00 2.2336540e+00 0.0000000e+00 
3.4700506e+00 7.5794268e-01 0.0000000e+00 
8.6322361e-01 1.5000000e+00 0.0000000e+00 
2.0000000e+00 1.5000000e+00 0.0000000e+00 
2.9960666e+00 1.4974480e+00 0.0000000e+00 
4.2679491e+00 7.3205084e-01 0.0000000e+00 
4.2679491e+00 2.2679491e+00 0.0000000e+00 
7.2695929e-01 2.2730408e+00 0.0000000e+00 
7.2695929e-01 7.2695929e-01 0.0000000e+00 
4.1822505e+00 0.0000000e+00 2.5515697e+00 
4.2017918e+00 0.0000000e+00 4.4725966e+00 
4.1114569e+00 0.0000000e+00 6.5092020e+00 
8.6602539e-01 0.0000000e+00 3.5000000e+00 
8.4778279e-01 0.0000000e+00 5.4684029e+00 
8.9629614e-01 0.0000000e+00 7.5867257e+00 
2.5566745e+00 0.0000000e+00 8.1853306e-01 
2.4918270e+00 0.0000000e+00 9.1386929e+00 
8.4677207e-01 0.0000000e+00 1.5042374e+00 
4.0943027e+00 0.0000000e+00 8.4081745e+00 
8.6281651e-01 0.0000000e+00 2.5007062e+00 
1.7315160e+00 0.0000000e+00 3.0001178e+00 
1.7319617e+00 0.0000000e+00 4.0000196e+00 
2.5980761e+00 0.0000000e+00 3.5000000e+00 
2.5536871e+00 0.0000000e+00 4.4963923e+00 
2.5928419e+00 0.0000000e+00 2.4239938e+00 
1.5037409e+00 0.0000000e+00 9.1535149e+00 
1.8433737e+00 0.0000000e+00 8.1858873e+00 
3.0000000e+00 0.0000000e+00 8.2679491e+00 
2.5000000e+00 0.0000000e+00 7.4019237e+00 
3.5042722e+00 0.0000000e+00 7.4271150e+00 
3.0310018e+00 0.0000000e+00 6.5282087e+00 
2.0373929e+00 0.0000000e+00 6.5307913e+00 
3.4767809e+00 0.0000000e+00 5.8031492e+00 
2.5452602e+00 0.0000000e+00 5.5720768e+00 
1.6456656e+00 0.0000000e+00 1.9697139e+00 
8.6297011e-01 0.0000000e+00 4.4947371e+00 
1.0111579e+00 0.0000000e+00 6.5282545e+00 
3.4994321e+00 0.0000000e+00 8.4691072e-01 
4.1860156e+00 0.0000000e+00 3.5040276e+00 
1.7320508e+00 0.0000000e+00 5.0000000e+00 
4.0544066e+00 0.0000000e+00 1.5781221e+00 
1.5817389e+00 0.0000000e+00 9.3943578e-01 
8.3166349e-01 0.0000000e+00 8.5090933e+00 
3.4686174e+00 0.0000000e+00 9.1752682e+00 
3.0709300e+00 0.0000000e+00 1.5799091e+00 
3.3927374e+00 0.0000000e+00 3.0399952e+00 
3.3826034e+00 0.0000000e+00 3.9747651e+00 
4.3420062e+00 0.0000000e+00 7.4688983e+00 
3.4023225e+00 0.0000000e+00 4.9314723e+00 
1.6740381e+00 0.0000000e+00 7.3014426e+00 
4.2715640e+00 0.0000000e+00 5.4758859e+00 
1.6225953e+00 0.0000000e+00 5.8104177e+00 
4.2679491e+00 0.0000000e+00 9.2679491e+00 
7.3205084e-01 0.0000000e+00 7.3205084e-01 
4.2679491e+00 0.0000000e+00 7.3205084e-01 
7.3205084e-01 0.0000000e+00 9.2679491e+00 
3.4586334e+00 0.0000000e+00 2.2347178e+00 
2.2895701e+00 0.0000000e+00 1.5463171e+00 
5.0000000e+00 2.2345026e+00 1.5046000e+00 
[...]
POINT_DATA 460
FIELD FieldData 2
DISPLACEMENT 3 460  float
0.0000000e+00 0.0000000e+00 0.0000000e+00 
0.0000000e+00 0.0000000e+00 0.0000000e+00 
0.0000000e+00 2.0439443e-09 0.0000000e+00 
0.0000000e+00 3.8925236e-09 0.0000000e+00 
0.0000000e+00 0.0000000e+00 0.0000000e+00 
0.0000000e+00 0.0000000e+00 0.0000000e+00 
0.0000000e+00 2.6284721e-07 0.0000000e+00 
0.0000000e+00 3.6526856e-06 0.0000000e+00 
0.0000000e+00 3.3634215e-10 0.0000000e+00 
0.0000000e+00 4.8692994e-10 0.0000000e+00 
0.0000000e+00 9.5323160e-10 0.0000000e+00 
0.0000000e+00 1.7126188e-09 0.0000000e+00 
0.0000000e+00 2.6945253e-09 0.0000000e+00 
0.0000000e+00 3.8009405e-09 0.0000000e+00 
0.0000000e+00 4.9121591e-09 0.0000000e+00 
0.0000000e+00 5.8605543e-09 0.0000000e+00 
0.0000000e+00 6.4147958e-09 0.0000000e+00 
0.0000000e+00 6.3101351e-09 0.0000000e+00 
0.0000000e+00 5.2574123e-09 0.0000000e+00 
1.6620068e-10 3.1588581e-09 1.9756419e-09 
-9.8434934e-11 -9.6537756e-10 4.4916777e-09 
-2.8890915e-10 -7.2359891e-09 5.1224265e-09 
-8.2411339e-10 -1.5600360e-08 4.7694821e-09 
-9.8379671e-10 -2.3927107e-08 -6.2539857e-10 
-1.2694215e-09 -2.8112032e-08 -1.0538285e-08 
-9.8615993e-10 -2.1723263e-08 -2.6642232e-08 
8.2682146e-09 1.7503522e-09 -5.8205895e-08 
1.3511629e-08 4.7699096e-08 -9.1660709e-08 
3.2162308e-08 1.1352530e-07 -1.4796169e-07 
5.7045188e-08 1.9393210e-07 -1.9988397e-07 
6.8378867e-08 2.9143504e-07 -2.5240993e-07 
1.3181005e-07 4.4354701e-07 -3.4817077e-07 
1.5777427e-07 8.0121259e-07 -4.6205562e-07 
1.8034099e-07 1.7025233e-06 -4.9394362e-07 
1.8511619e-07 3.6434737e-06 -4.9753788e-07 
6.9651222e-08 6.9964572e-06 -1.2282236e-06 
5.9923514e-07 1.0889606e-05 -7.4825522e-07 
4.2833594e-08 1.2098596e-05 -1.2044545e-06 
0.0000000e+00 1.8694645e-06 0.0000000e+00 
0.0000000e+00 -3.7835693e-05 0.0000000e+00 
0.0000000e+00 -1.2193368e-04 0.0000000e+00 
0.0000000e+00 -2.5619398e-04 0.0000000e+00 
0.0000000e+00 -4.2507591e-04 0.0000000e+00 
0.0000000e+00 -5.7363830e-04 0.0000000e+00 
0.0000000e+00 -6.1222573e-04 0.0000000e+00 
0.0000000e+00 -5.1974546e-04 0.0000000e+00 
0.0000000e+00 -4.0350136e-04 0.0000000e+00 
0.0000000e+00 -3.5321209e-04 0.0000000e+00 
0.0000000e+00 4.9203913e-10 0.0000000e+00 
0.0000000e+00 6.1006128e-10 0.0000000e+00 
0.0000000e+00 9.4599861e-10 0.0000000e+00 
0.0000000e+00 1.5284798e-09 0.0000000e+00 
0.0000000e+00 2.4287077e-09 0.0000000e+00 
0.0000000e+00 3.6388894e-09 0.0000000e+00 
0.0000000e+00 4.8969686e-09 0.0000000e+00 
0.0000000e+00 5.8933112e-09 0.0000000e+00 
0.0000000e+00 6.4278738e-09 0.0000000e+00 
0.0000000e+00 6.3056942e-09 0.0000000e+00 
0.0000000e+00 5.3002580e-09 0.0000000e+00 
0.0000000e+00 3.0944529e-09 0.0000000e+00 
0.0000000e+00 -1.0026440e-09 0.0000000e+00 
0.0000000e+00 -7.3340849e-09 0.0000000e+00 
0.0000000e+00 -1.5666352e-08 0.0000000e+00 
0.0000000e+00 -2.3945169e-08 0.0000000e+00 
0.0000000e+00 -2.7988550e-08 0.0000000e+00 
0.0000000e+00 -2.1522679e-08 0.0000000e+00 
0.0000000e+00 2.2557058e-09 0.0000000e+00 
0.0000000e+00 4.7973568e-08 0.0000000e+00 
0.0000000e+00 1.1357772e-07 0.0000000e+00 
0.0000000e+00 1.9319141e-07 0.0000000e+00 
0.0000000e+00 2.8712719e-07 0.0000000e+00 
0.0000000e+00 4.3551844e-07 0.0000000e+00 
0.0000000e+00 7.9108077e-07 0.0000000e+00 
0.0000000e+00 1.6968879e-06 0.0000000e+00 
0.0000000e+00 3.6689858e-06 0.0000000e+00 
0.0000000e+00 7.0451297e-06 0.0000000e+00 
0.0000000e+00 1.1062197e-05 0.0000000e+00 
0.0000000e+00 1.2468980e-05 0.0000000e+00 
0.0000000e+00 1.9184447e-06 0.0000000e+00 
0.0000000e+00 -3.8023722e-05 0.0000000e+00 
0.0000000e+00 -1.2248405e-04 0.0000000e+00 
0.0000000e+00 -2.5730318e-04 0.0000000e+00 
0.0000000e+00 -4.2687281e-04 0.0000000e+00 
0.0000000e+00 -5.7602668e-04 0.0000000e+00 
0.0000000e+00 -6.1475055e-04 0.0000000e+00 
0.0000000e+00 -5.2188436e-04 0.0000000e+00 
0.0000000e+00 -4.0516551e-04 0.0000000e+00 
0.0000000e+00 -3.5467165e-04 0.0000000e+00 
0.0000000e+00 0.0000000e+00 0.0000000e+00 
0.0000000e+00 0.0000000e+00 0.0000000e+00 
0.0000000e+00 0.0000000e+00 0.0000000e+00 
0.0000000e+00 0.0000000e+00 0.0000000e+00 
0.0000000e+00 0.0000000e+00 0.0000000e+00 
0.0000000e+00 0.0000000e+00 0.0000000e+00 
0.0000000e+00 0.0000000e+00 0.0000000e+00 
0.0000000e+00 0.0000000e+00 0.0000000e+00 
0.0000000e+00 0.0000000e+00 0.0000000e+00 
0.0000000e+00 0.0000000e+00 0.0000000e+00 
0.0000000e+00 0.0000000e+00 0.0000000e+00 
0.0000000e+00 0.0000000e+00 0.0000000e+00 
0.0000000e+00 0.0000000e+00 0.0000000e+00 
0.0000000e+00 0.0000000e+00 0.0000000e+00 
0.0000000e+00 0.0000000e+00 0.0000000e+00 
0.0000000e+00 0.0000000e+00 0.0000000e+00 
0.0000000e+00 0.0000000e+00 0.0000000e+00 
0.0000000e+00 0.0000000e+00 0.0000000e+00 
0.0000000e+00 0.0000000e+00 0.0000000e+00 
0.0000000e+00 0.0000000e+00 0.0000000e+00 
0.0000000e+00 0.0000000e+00 0.0000000e+00 
0.0000000e+00 0.0000000e+00 0.0000000e+00 
0.0000000e+00 0.0000000e+00 0.0000000e+00 
0.0000000e+00 1.0930713e-09 0.0000000e+00 
0.0000000e+00 1.8232152e-09 0.0000000e+00 
0.0000000e+00 3.1557004e-09 0.0000000e+00 
0.0000000e+00 1.8402331e-09 0.0000000e+00 
0.0000000e+00 0.0000000e+00 0.0000000e+00 
0.0000000e+00 0.0000000e+00 0.0000000e+00 
0.0000000e+00 0.0000000e+00 0.0000000e+00 
0.0000000e+00 0.0000000e+00 0.0000000e+00 
0.0000000e+00 0.0000000e+00 0.0000000e+00 
0.0000000e+00 0.0000000e+00 0.0000000e+00 
0.0000000e+00 0.0000000e+00 0.0000000e+00 
0.0000000e+00 0.0000000e+00 0.0000000e+00 
0.0000000e+00 0.0000000e+00 0.0000000e+00 
0.0000000e+00 0.0000000e+00 0.0000000e+00 
0.0000000e+00 0.0000000e+00 0.0000000e+00 
0.0000000e+00 0.0000000e+00 0.0000000e+00 
0.0000000e+00 0.0000000e+00 0.0000000e+00 
0.0000000e+00 0.0000000e+00 0.0000000e+00 
0.0000000e+00 0.0000000e+00 0.0000000e+00 
0.0000000e+00 0.0000000e+00 0.0000000e+00 
0.0000000e+00 0.0000000e+00 0.0000000e+00 
0.0000000e+00 0.0000000e+00 0.0000000e+00 
0.0000000e+00 0.0000000e+00 0.0000000e+00 
0.0000000e+00 0.0000000e+00 0.0000000e+00 
0.0000000e+00 0.0000000e+00 0.0000000e+00 
0.0000000e+00 0.0000000e+00 0.0000000e+00 
0.0000000e+00 1.0920275e-09 0.0000000e+00 
0.0000000e+00 -3.8288133e-09 0.0000000e+00 
0.0000000e+00 -1.5398545e-08 0.0000000e+00 
0.0000000e+00 -3.1984051e-08 0.0000000e+00 
0.0000000e+00 -2.5678482e-08 0.0000000e+00 
0.0000000e+00 1.3546885e-09 0.0000000e+00 
0.0000000e+00 9.7251885e-08 0.0000000e+00 
0.0000000e+00 1.5752704e-07 0.0000000e+00 
0.0000000e+00 2.5112189e-07 0.0000000e+00 
0.0000000e+00 1.4236841e-07 0.0000000e+00 
0.0000000e+00 2.2995762e-07 0.0000000e+00 
0.0000000e+00 -4.0033815e-10 0.0000000e+00 
0.0000000e+00 -1.3329776e-08 0.0000000e+00 
0.0000000e+00 -2.2586647e-08 0.0000000e+00 
0.0000000e+00 1.0512919e-08 0.0000000e+00 
0.0000000e+00 1.4336447e-07 0.0000000e+00 
0.0000000e+00 4.2671746e-07 0.0000000e+00 
0.0000000e+00 1.0818503e-06 0.0000000e+00 
0.0000000e+00 2.2805043e-06 0.0000000e+00 
0.0000000e+00 3.9372180e-06 0.0000000e+00 
0.0000000e+00 2.6183166e-06 0.0000000e+00 
0.0000000e+00 1.1755532e-06 0.0000000e+00 
0.0000000e+00 2.3462401e-09 0.0000000e+00 
0.0000000e+00 2.3085314e-09 0.0000000e+00 
0.0000000e+00 2.7416029e-09 0.0000000e+00 
0.0000000e+00 3.6109344e-07 0.0000000e+00 
0.0000000e+00 7.8171729e-07 0.0000000e+00 
0.0000000e+00 2.0891105e-06 0.0000000e+00 
0.0000000e+00 2.1532405e-09 0.0000000e+00 
0.0000000e+00 1.4826481e-09 0.0000000e+00 
0.0000000e+00 3.5993393e-09 0.0000000e+00 
0.0000000e+00 4.2746873e-09 0.0000000e+00 
0.0000000e+00 1.7684811e-09 0.0000000e+00 
0.0000000e+00 3.0923732e-09 0.0000000e+00 
0.0000000e+00 9.5462704e-10 0.0000000e+00 
0.0000000e+00 3.2831553e-09 0.0000000e+00 
0.0000000e+00 3.1248304e-09 0.0000000e+00 
0.0000000e+00 2.6323905e-09 0.0000000e+00 
0.0000000e+00 1.2284659e-09 0.0000000e+00 
0.0000000e+00 2.4623124e-09 0.0000000e+00 
0.0000000e+00 4.2851998e-09 0.0000000e+00 
0.0000000e+00 1.7626409e-09 0.0000000e+00 
0.0000000e+00 0.0000000e+00 0.0000000e+00 
0.0000000e+00 0.0000000e+00 0.0000000e+00 
0.0000000e+00 0.0000000e+00 0.0000000e+00 
0.0000000e+00 0.0000000e+00 0.0000000e+00 
0.0000000e+00 0.0000000e+00 0.0000000e+00 
0.0000000e+00 0.0000000e+00 0.0000000e+00 
0.0000000e+00 0.0000000e+00 0.0000000e+00 
0.0000000e+00 0.0000000e+00 0.0000000e+00 
0.0000000e+00 0.0000000e+00 0.0000000e+00 
0.0000000e+00 0.0000000e+00 0.0000000e+00 
0.0000000e+00 0.0000000e+00 0.0000000e+00 
0.0000000e+00 0.0000000e+00 0.0000000e+00 
0.0000000e+00 0.0000000e+00 0.0000000e+00 
0.0000000e+00 0.0000000e+00 0.0000000e+00 
0.0000000e+00 0.0000000e+00 0.0000000e+00 
0.0000000e+00 0.0000000e+00 0.0000000e+00 
0.0000000e+00 0.0000000e+00 0.0000000e+00 
0.0000000e+00 0.0000000e+00 0.0000000e+00 
0.0000000e+00 0.0000000e+00 0.0000000e+00 
0.0000000e+00 0.0000000e+00 0.0000000e+00 
0.0000000e+00 0.0000000e+00 0.0000000e+00 
0.0000000e+00 0.0000000e+00 0.0000000e+00 
0.0000000e+00 0.0000000e+00 0.0000000e+00 
0.0000000e+00 0.0000000e+00 0.0000000e+00 
0.0000000e+00 0.0000000e+00 0.0000000e+00 
0.0000000e+00 0.0000000e+00 0.0000000e+00 
0.0000000e+00 0.0000000e+00 0.0000000e+00 
0.0000000e+00 0.0000000e+00 0.0000000e+00 
0.0000000e+00 0.0000000e+00 0.0000000e+00 
0.0000000e+00 0.0000000e+00 0.0000000e+00 
0.0000000e+00 0.0000000e+00 0.0000000e+00 
0.0000000e+00 0.0000000e+00 0.0000000e+00 
0.0000000e+00 0.0000000e+00 0.0000000e+00 
0.0000000e+00 0.0000000e+00 0.0000000e+00 
0.0000000e+00 0.0000000e+00 0.0000000e+00 
0.0000000e+00 0.0000000e+00 0.0000000e+00 
0.0000000e+00 0.0000000e+00 0.0000000e+00 
0.0000000e+00 0.0000000e+00 0.0000000e+00 
0.0000000e+00 0.0000000e+00 0.0000000e+00 
0.0000000e+00 0.0000000e+00 0.0000000e+00 
0.0000000e+00 0.0000000e+00 0.0000000e+00 
0.0000000e+00 0.0000000e+00 0.0000000e+00 
0.0000000e+00 0.0000000e+00 0.0000000e+00 
0.0000000e+00 0.0000000e+00 0.0000000e+00 
0.0000000e+00 0.0000000e+00 0.0000000e+00 
0.0000000e+00 0.0000000e+00 0.0000000e+00 
0.0000000e+00 0.0000000e+00 0.0000000e+00 
0.0000000e+00 0.0000000e+00 0.0000000e+00 
0.0000000e+00 0.0000000e+00 0.0000000e+00 
0.0000000e+00 -3.9258821e-10 0.0000000e+00 
0.0000000e+00 1.7484490e-07 0.0000000e+00 
0.0000000e+00 -2.2679329e-08 0.0000000e+00 
0.0000000e+00 -2.0434134e-08 0.0000000e+00 
0.0000000e+00 1.0741865e-07 0.0000000e+00 
0.0000000e+00 -3.4621841e-09 0.0000000e+00 
0.0000000e+00 -1.2064983e-08 0.0000000e+00 
0.0000000e+00 2.4481082e-08 0.0000000e+00 
0.0000000e+00 -1.0304099e-08 0.0000000e+00 
0.0000000e+00 -9.1552490e-09 0.0000000e+00 
0.0000000e+00 -7.6853555e-09 0.0000000e+00 
0.0000000e+00 -3.3096097e-08 0.0000000e+00 
0.0000000e+00 1.9418360e-08 0.0000000e+00 
0.0000000e+00 6.7249573e-08 0.0000000e+00 
0.0000000e+00 -3.8820397e-10 0.0000000e+00 
0.0000000e+00 9.3213309e-08 0.0000000e+00 
0.0000000e+00 1.6048031e-07 0.0000000e+00 
0.0000000e+00 1.0308210e-09 0.0000000e+00 
0.0000000e+00 -2.0356719e-08 0.0000000e+00 
0.0000000e+00 5.2613228e-08 0.0000000e+00 
0.0000000e+00 -2.2703830e-09 0.0000000e+00 
0.0000000e+00 -3.8032222e-09 0.0000000e+00 
0.0000000e+00 -2.2908294e-08 0.0000000e+00 
0.0000000e+00 -1.1347554e-08 0.0000000e+00 
0.0000000e+00 1.0997986e-07 0.0000000e+00 
0.0000000e+00 2.1607858e-07 0.0000000e+00 
0.0000000e+00 9.5799201e-08 0.0000000e+00 
0.0000000e+00 1.4864191e-09 0.0000000e+00 
0.0000000e+00 6.0957772e-10 0.0000000e+00 
0.0000000e+00 2.0152017e-06 0.0000000e+00 
0.0000000e+00 8.7539576e-12 0.0000000e+00 
0.0000000e+00 -7.9608959e-09 0.0000000e+00 
0.0000000e+00 2.8727358e-08 0.0000000e+00 
0.0000000e+00 6.0363266e-07 0.0000000e+00 
0.0000000e+00 -1.5166636e-08 0.0000000e+00 
0.0000000e+00 2.5397992e-07 0.0000000e+00 
0.0000000e+00 1.3917959e-06 0.0000000e+00 
0.0000000e+00 -5.6275917e-09 0.0000000e+00 
0.0000000e+00 -1.8672136e-08 0.0000000e+00 
0.0000000e+00 5.7139186e-08 0.0000000e+00 
0.0000000e+00 6.5077273e-07 0.0000000e+00 
0.0000000e+00 3.6443964e-07 0.0000000e+00 
0.0000000e+00 2.8825832e-06 0.0000000e+00 
0.0000000e+00 -5.9336962e-09 0.0000000e+00 
0.0000000e+00 -2.7559348e-09 0.0000000e+00 
0.0000000e+00 8.1027332e-07 0.0000000e+00 
0.0000000e+00 1.0380577e-07 0.0000000e+00 
0.0000000e+00 2.8778834e-07 0.0000000e+00 
0.0000000e+00 1.2837550e-08 0.0000000e+00 
0.0000000e+00 -1.5833605e-08 0.0000000e+00 
0.0000000e+00 7.3947206e-07 0.0000000e+00 
0.0000000e+00 1.0650040e-07 0.0000000e+00 
0.0000000e+00 1.5017512e-06 0.0000000e+00 
0.0000000e+00 -9.5319894e-09 0.0000000e+00 
0.0000000e+00 8.8530686e-07 0.0000000e+00 
0.0000000e+00 1.5490403e-09 0.0000000e+00 
0.0000000e+00 1.5839041e-10 0.0000000e+00 
0.0000000e+00 3.2871292e-06 0.0000000e+00 
0.0000000e+00 6.9091328e-07 0.0000000e+00 
0.0000000e+00 2.4080967e-07 0.0000000e+00 
0.0000000e+00 1.0942972e-06 0.0000000e+00 
0.0000000e+00 2.5562283e-06 0.0000000e+00 
0.0000000e+00 4.1991260e-07 0.0000000e+00 
0.0000000e+00 4.5132674e-07 0.0000000e+00 
0.0000000e+00 2.0837926e-07 0.0000000e+00 
0.0000000e+00 1.8502558e-06 0.0000000e+00 
0.0000000e+00 1.1350857e-06 0.0000000e+00 
0.0000000e+00 5.4617465e-07 0.0000000e+00 
0.0000000e+00 1.2993964e-07 0.0000000e+00 
0.0000000e+00 2.7972027e-07 0.0000000e+00 
0.0000000e+00 3.4054929e-06 0.0000000e+00 
0.0000000e+00 8.1079520e-07 0.0000000e+00 
2.6161903e-08 4.6470497e-08 -1.1429443e-07 
1.1551594e-07 4.1888242e-07 -2.7935360e-07 
2.8755747e-07 1.8511200e-06 -4.5867077e-07 
-1.0826406e-09 -1.5164257e-08 1.2451657e-09 
1.8019970e-09 -2.7587054e-08 -2.1939821e-08 
4.1120622e-08 1.0406257e-10 -4.9464372e-08 
1.4341613e-09 -1.0811081e-08 1.2355466e-09 
9.3994686e-08 1.5595484e-07 -8.0300886e-08 
-3.6551556e-10 -2.7063833e-09 4.7538853e-09 
4.5995594e-07 4.6096734e-06 -4.7712882e-07 
-7.8310136e-10 1.0992085e-09 3.1648768e-09 
2.2405575e-07 5.5602885e-07 -1.7556083e-08 
8.2142762e-08 7.7575478e-08 -7.2969918e-08 
1.5852135e-07 2.5563858e-07 -1.6131877e-07 
2.7573103e-07 3.8053889e-07 -1.8228066e-07 
2.2271206e-07 5.1493879e-07 -1.6872367e-07 
1.5714991e-07 3.2390554e-07 -1.7119487e-07 
3.8154951e-07 9.3302691e-07 -1.8876335e-07 
2.3230352e-07 6.6810213e-07 -3.3831674e-07 
1.1025269e-07 1.2303018e-07 -1.4176509e-07 
5.8832491e-08 2.8317883e-08 -8.4693362e-08 
8.4622052e-08 1.0998223e-07 -1.3355523e-07 
4.6803194e-08 2.3232447e-08 -1.0104736e-07 
2.7198922e-08 -2.4013810e-08 -4.7072270e-08 
2.1740350e-08 -2.2084851e-08 -4.9418052e-08 
1.3252672e-08 -2.4367294e-08 -1.8345489e-08 
5.3592135e-09 -2.5011259e-08 -1.9670077e-08 
3.4066210e-09 -2.0215888e-08 -4.5358881e-09 
2.4222233e-09 -1.8245757e-08 -4.9563638e-09 
7.6358037e-10 -9.9039275e-09 2.8216176e-09 
-8.5018248e-10 -7.4930391e-09 3.6873702e-09 
6.7891392e-08 1.1399086e-07 -1.7406860e-07 
1.0355507e-07 2.3664916e-07 -1.9773904e-07 
1.2209940e-08 -1.9905817e-08 -3.8601630e-08 
6.3657097e-09 -2.5594115e-08 -4.0274482e-09 
3.0992479e-07 1.2057864e-06 -5.5277813e-08 
2.5516266e-08 3.4101575e-09 -7.9179756e-08 
2.3911758e-08 -3.4985941e-08 -3.1313458e-08 
-6.5327288e-10 8.6890173e-10 3.5083352e-09 
1.5487038e-07 2.8992559e-07 -4.6649966e-08 
3.8926072e-07 1.0535123e-06 -3.9429304e-07 
4.4799549e-07 1.6619163e-06 -3.4178419e-07 
7.8380936e-08 2.2576231e-07 -2.0831327e-07 
-6.4942129e-10 -1.1652262e-09 2.3990334e-09 
-4.1255530e-10 -2.3265969e-08 -6.1763221e-09 
2.3551958e-09 -2.5879009e-08 -1.3145987e-08 
7.8195903e-09 -1.4893221e-08 -4.6595307e-08 
2.1097591e-08 4.1741091e-09 -8.5164977e-08 
1.7659499e-07 6.8235329e-07 -3.3131545e-07 
2.7559801e-07 1.2026698e-06 -4.3678617e-07 
-5.5105306e-11 2.2681945e-09 3.0763683e-09 
-1.1886579e-09 -9.0109893e-09 4.6593027e-09 
5.6282840e-07 5.4619536e-06 -2.4319226e-07 
-6.6190842e-10 -3.2545520e-09 4.4614241e-09 
-4.1554520e-11 -1.6488984e-08 -6.9284822e-10 
5.7122060e-07 2.9559567e-06 -5.6153715e-07 
1.7176707e-07 4.3119815e-07 -2.7471813e-07 
-9.4140162e-10 -4.1855577e-09 5.0557394e-09 
4.3310084e-08 1.2906912e-07 -1.5672646e-07 
2.9774026e-07 6.0407388e-07 -1.0996738e-07 
1.1012407e-07 3.2148711e-07 -2.0811104e-08 
-4.8088333e-10 1.6258132e-09 1.5094217e-09 
1.7301183e-08 -2.7014041e-08 -2.2376119e-08 
-9.9826891e-10 -1.0703503e-08 3.9976134e-09 
6.4223212e-07 2.2154591e-06 -3.0890149e-07 
1.2856654e-07 2.2206376e-07 -1.7336973e-07 
-1.7442309e-10 -5.6128164e-09 2.9161940e-09 
3.5191077e-09 -1.7104854e-08 -2.8311642e-09 
-3.4520789e-10 2.7799577e-10 3.7513574e-09 
3.8049574e-08 5.7883582e-08 -1.2481821e-07 
3.7412514e-07 2.6191303e-06 -1.0312556e-07 
-1.2938070e-09 -1.7433454e-08 1.3836934e-09 
-5.5039956e-10 -1.0015617e-08 3.5002912e-09 
-2.0557978e-09 -2.1475584e-08 -3.4082124e-09 
-2.0965689e-09 -2.3443286e-08 -9.2920107e-09 
-2.3961313e-10 -3.1192300e-09 3.4158170e-09 
-1.3862769e-09 -7.7505335e-09 -2.0068871e-08 
4.3171426e-09 2.9961569e-08 -4.2201268e-08 
5.9001417e-09 9.3324807e-08 -6.2611463e-08 
2.2040030e-08 1.9700811e-07 -1.3323225e-07 
4.0620758e-08 3.3425292e-07 -2.0876631e-07 
3.9147839e-08 5.0683076e-07 -2.3865641e-07 
5.6273201e-08 8.3369633e-07 -3.2214507e-07 
8.1377728e-08 1.3681639e-06 -3.3745798e-07 
1.9128517e-07 2.4448225e-06 -3.3491338e-07 
1.4647372e-07 3.3133017e-06 -3.9691753e-07 
1.7995926e-07 4.8764987e-06 -4.2629358e-07 
-1.8633850e-07 6.2790582e-06 -3.5345673e-07 
2.8209596e-10 2.1687501e-09 2.2457565e-09 
3.4998254e-10 -9.0387227e-09 -7.0810663e-10 
-8.2885349e-10 -1.9227192e-08 7.7479267e-09 
-2.3556002e-08 1.1719984e-07 6.6563736e-08 
-1.2108431e-07 5.5117374e-07 1.8275674e-07 
-3.0318088e-07 1.4517520e-06 2.1926570e-07 
2.8885488e-10 -1.1979918e-08 6.6370315e-10 
-8.0384135e-09 -1.9492418e-08 1.4984643e-08 
-5.7787755e-08 1.6088192e-07 7.2315935e-08 
9.2942687e-10 2.0235142e-08 4.2383699e-10 
-4.6534343e-10 -2.2367390e-08 -2.9070508e-09 
3.3085097e-11 -2.2141748e-09 -2.9762792e-10 
-1.7984269e-07 3.5594533e-07 1.1219432e-07 
2.1518025e-10 -1.3328744e-09 -1.2652622e-10 
-1.7484238e-08 4.3382596e-07 5.7330997e-08 
-3.7073018e-08 1.7404342e-06 2.9212316e-07 
5.7400590e-12 -1.8723577e-08 -8.1093123e-09 
-9.4975527e-10 -8.4711385e-09 -8.0645035e-10 
2.5023764e-10 -1.9571004e-08 -9.3578314e-12 
2.5114713e-09 1.3773612e-07 -1.8451880e-08 
-5.5393303e-09 8.2726119e-09 3.5012317e-08 
-4.0442866e-10 -1.2575005e-08 -1.3301600e-10 
-2.3404342e-08 1.9207689e-09 2.5552408e-08 
-3.8452406e-08 3.7610987e-06 5.2788954e-07 
4.3354406e-10 -1.1905795e-09 -7.3667633e-10 
-1.1831249e-07 3.2128784e-07 2.7675371e-08 
-1.9916344e-10 -1.1449371e-08 3.6768346e-09 
-3.0149501e-08 3.9584830e-08 5.9533356e-08 
6.3104300e-10 -6.2941452e-09 -8.6215007e-11 
-7.9948326e-10 -1.2256936e-08 7.6228597e-09 
2.2341384e-09 -2.5116362e-08 -4.8283666e-09 
-2.1825254e-08 9.9190800e-08 7.1490098e-09 
-8.7977146e-09 4.1904502e-07 2.0582466e-08 
6.3575323e-09 8.8034267e-07 2.6845678e-08 
9.8472333e-09 1.4527090e-07 -1.5453574e-08 
-2.4115343e-07 5.7708377e-07 6.4186288e-08 
-1.2485006e-07 9.2546821e-07 1.1497269e-07 
4.1530251e-10 -8.0983642e-10 -8.8393803e-10 
-6.7932093e-10 -2.1533674e-08 9.7060429e-11 
2.4410560e-10 -1.6459267e-09 -1.3216053e-09 
-3.4079335e-08 2.5058594e-07 1.2839853e-07 
2.4786811e-10 -3.6499301e-09 1.9193424e-08 
-2.7781843e-07 1.4322557e-06 7.5809062e-08 
-1.4708826e-07 7.6365058e-07 2.5213177e-07 
3.6157903e-09 -2.3497002e-08 -1.5376319e-08 
2.5527282e-11 -3.4846541e-09 3.8619316e-10 
2.1615457e-10 1.4588772e-08 -3.5822219e-09 
-9.9967412e-10 -8.0585512e-09 5.5194838e-10 
-1.6698911e-07 4.3468594e-07 1.4933377e-07 
2.9263422e-10 -8.7728802e-09 8.7708318e-10 
-7.0104154e-09 5.7402865e-08 5.1851213e-08 
3.7094902e-10 -6.3725878e-09 -1.2688345e-10 
-8.0588869e-08 1.2966115e-07 5.6427982e-08 
-1.0477403e-07 2.2051165e-06 1.4596277e-07 
2.1262069e-08 3.2293212e-07 -3.8017280e-08 
-9.1821866e-09 1.8746485e-07 5.4660660e-08 
-5.5566048e-08 1.3020639e-07 9.3682928e-08 
-1.9151476e-07 1.3186235e-06 1.0789488e-07 
-2.0142966e-10 1.2233795e-09 4.6953302e-10 
4.6216480e-09 -3.5479427e-08 -5.3379332e-09 
-4.2364103e-09 -1.2077849e-08 5.6079053e-09 
4.9877182e-09 2.4174618e-08 -9.7880655e-09 
-4.3861093e-08 5.6766755e-08 3.9567997e-08 
4.0629752e-12 -1.4096978e-08 -6.7988747e-11 
7.9394731e-08 3.0638957e-06 2.3926083e-07 
-7.8488798e-09 -4.0350709e-09 2.1043467e-08 
1.3304016e-10 1.8002389e-07 -1.3908001e-08 
4.5944524e-09 4.5094495e-08 -1.9950297e-08 