# vtk DataFile Version 4.0
vtk output
ASCII
DATASET UNSTRUCTURED_GRID
POINTS 460 float
0.0000000e+00 0.0000000e+00 0.0000000e+00 
5.0000000e+00 0.0000000e+00 0.0000000e+00 
5.0000000e+00 3.0000000e+00 0.0000000e+00 
0.0000000e+00 3.0000000e+00 0.0000000e+00 
0.0000000e+00 0.0000000e+00 1.0000000e+01 
5.0000000e+00 0.0000000e+00 1.0000000e+01 
5.0000000e+00 3.0000000e+00 1.0000000e+01 
0.0000000e+00 3.0000000e+00 1.0000000e+01 
1.0000000e+00 3.0000000e+00 -5.0000000e+00 
1.0000000e+00 3.0000000e+00 -4.5000000e+00 
1.0000000e+00 3.0000000e+00 -4.0000000e+00 
1.0000000e+00 3.0000000e+00 -3.5000000e+00 
1.0000000e+00 3.0000000e+00 -3.0000000e+00 
1.0000000e+00 3.0000000e+00 -2.5000000e+00 
1.0000000e+00 3.0000000e+00 -2.0000000e+00 
1.0000000e+00 3.0000000e+00 -1.5000000e+00 
1.0000000e+00 3.0000000e+00 -1.0000000e+00 
1.0000000e+00 3.0000000e+00 -5.0000000e-01 
1.0000000e+00 3.0000000e+00 0.0000000e+00 
1.0000000e+00 3.0000000e+00 5.0000000e-01 
1.0000000e+00 3.0000000e+00 1.0000000e+00 
1.0000000e+00 3.0000000e+00 1.5000000e+00 
1.0000000e+00 3.0000000e+00 2.0000000e+00 
1.0000000e+00 3.0000000e+00 2.5000000e+00 
1.0000000e+00 3.0000000e+00 3.0000000e+00 
1.0000000e+00 3.0000000e+00 3.5000000e+00 
1.0000000e+00 3.0000000e+00 4.0000000e+00 
1.0000000e+00 3.0000000e+00 4.5000000e+00 
1.0000000e+00 3.0000000e+00 5.0000000e+00 
1.0000000e+00 3.0000000e+00 5.5000000e+00 
1.0000000e+00 3.0000000e+00 6.0000000e+00 
1.0000000e+00 3.0000000e+00 6.5000000e+00 
1.0000000e+00 3.0000000e+00 7.0000000e+00 
1.0000000e+00 3.0000000e+00 7.5000000e+00 
1.0000000e+00 3.0000000e+00 8.0000000e+00 
1.0000000e+00 3.0000000e+00 8.5000000e+00 
1.0000000e+00 3.0000000e+00 9.0000000e+00 
1.0000000e+00 3.0000000e+00 9.5000000e+00 
1.0000000e+00 3.0000000e+00 1.0000000e+01 
1.0000000e+00 3.0000000e+00 1.0500000e+01 
1.0000000e+00 3.0000000e+00 1.1000000e+01 
1.0000000e+00 3.0000000e+00 1.1500000e+01 
1.0000000e+00 3.0000000e+00 1.2000000e+01 
1.0000000e+00 3.0000000e+00 1.2500000e+01 
1.0000000e+00 3.0000000e+00 1.3000000e+01 
1.0000000e+00 3.0000000e+00 1.3500000e+01 
1.0000000e+00 3.0000000e+00 1.4000000e+01 
1.0000000e+00 3.0000000e+00 1.4500000e+01 
1.0000000e+00 3.0250001e+00 -5.0000000e+00 
1.0000000e+00 3.0250001e+00 -4.5000000e+00 
1.0000000e+00 3.0250001e+00 -4.0000000e+00 
1.0000000e+00 3.0250001e+00 -3.5000000e+00 
1.0000000e+00 3.0250001e+00 -3.0000000e+00 
1.0000000e+00 3.0250001e+00 -2.5000000e+00 
1.0000000e+00 3.0250001e+00 -2.0000000e+00 
1.0000000e+00 3.0250001e+00 -1.5000000e+00 
1.0000000e+00 3.0250001e+00 -1.0000000e+00 
1.0000000e+00 3.0250001e+00 -5.0000000e-01 
1.0000000e+00 3.0250001e+00 0.0000000e+00 
1.0000000e+00 3.0250001e+00 5.0000000e-01 
1.0000000e+00 3.0250001e+00 1.0000000e+00 
1.0000000e+00 3.0250001e+00 1.5000000e+00 
1.0000000e+00 3.0250001e+00 2.0000000e+00 
1.0000000e+00 3.0250001e+00 2.5000000e+00 
1.0000000e+00 3.0250001e+00 3.0000000e+00 
1.0000000e+00 3.0250001e+00 3.5000000e+00 
1.0000000e+00 3.0250001e+00 4.0000000e+00 
1.0000000e+00 3.0250001e+00 4.5000000e+00 
1.0000000e+00 3.0250001e+00 5.0000000e+00 
1.0000000e+00 3.0250001e+00 5.5000000e+00 
1.0000000e+00 3.0250001e+00 6.0000000e+00 
1.0000000e+00 3.0250001e+00 6.5000000e+00 
1.0000000e+00 3.0250001e+00 7.0000000e+00 
1.0000000e+00 3.0250001e+00 7.5000000e+00 
1.0000000e+00 3.0250001e+00 8.0000000e+00 
1.0000000e+00 3.0250001e+00 8.5000000e+00 
1.0000000e+00 3.0250001e+00 9.0000000e+00 
1.0000000e+00 3.0250001e+00 9.5000000e+00 
1.0000000e+00 3.0250001e+00 1.0000000e+01 
1.0000000e+00 3.0250001e+00 1.0500000e+01 
1.0000000e+00 3.0250001e+00 1.1000000e+01 
1.0000000e+00 3.0250001e+00 1.1500000e+01 
1.0000000e+00 3.0250001e+00 1.2000000e+01 
1.0000000e+00 3.0250001e+00 1.2500000e+01 
1.0000000e+00 3.0250001e+00 1.3000000e+01 
1.0000000e+00 3.0250001e+00 1.3500000e+01 
1.0000000e+00 3.0250001e+00 1.4000000e+01 
1.0000000e+00 3.0250001e+00 1.4500000e+01 
1.0000000e+00 -2.0000000e+00 -5.0000000e+00 
1.0000000e+00 -2.0000000e+00 -4.5000000e+00 
1.0000000e+00 -2.0000000e+00 -4.0000000e+00 
1.0000000e+00 -2.0000000e+00 -3.5000000e+00 
1.0000000e+00 -2.0000000e+00 -3.0000000e+00 
1.0000000e+00 -2.0000000e+00 -2.5000000e+00 
1.0000000e+00 -2.0000000e+00 -2.0000000e+00 
1.0000000e+00 -2.0000000e+00 -1.5000000e+00 
1.0000000e+00 -2.0000000e+00 -1.0000000e+00 
1.0000000e+00 -2.0000000e+00 -5.0000000e-01 
1.0000000e+00 -2.0000000e+00 1.0500000e+01 
1.0000000e+00 -2.0000000e+00 1.1000000e+01 
1.0000000e+00 -2.0000000e+00 1.1500000e+01 
1.0000000e+00 -2.0000000e+00 1.2000000e+01 
1.0000000e+00 -2.0000000e+00 1.2500000e+01 
1.0000000e+00 -2.0000000e+00 1.3000000e+01 
1.0000000e+00 -2.0000000e+00 1.3500000e+01 
1.0000000e+00 -2.0000000e+00 1.4000000e+01 
1.0000000e+00 -2.0000000e+00 1.4500000e+01 
1.0000000e+00 0.0000000e+00 0.0000000e+00 
2.0000000e+00 0.0000000e+00 0.0000000e+00 
3.0000000e+00 0.0000000e+00 0.0000000e+00 
4.0000000e+00 0.0000000e+00 0.0000000e+00 
5.0000000e+00 1.0000000e+00 0.0000000e+00 
5.0000000e+00 2.0000000e+00 0.0000000e+00 
0.0000000e+00 2.0000000e+00 0.0000000e+00 
0.0000000e+00 1.0000000e+00 0.0000000e+00 
0.0000000e+00 0.0000000e+00 1.0000000e+00 
0.0000000e+00 0.0000000e+00 2.0000000e+00 
0.0000000e+00 0.0000000e+00 3.0000000e+00 
0.0000000e+00 0.0000000e+00 4.0000000e+00 
0.0000000e+00 0.0000000e+00 5.0000000e+00 
0.0000000e+00 0.0000000e+00 6.0000000e+00 
0.0000000e+00 0.0000000e+00 7.0000000e+00 
0.0000000e+00 0.0000000e+00 8.0000000e+00 
0.0000000e+00 0.0000000e+00 9.0000000e+00 
5.0000000e+00 0.0000000e+00 1.0000000e+00 
5.0000000e+00 0.0000000e+00 2.0000000e+00 
5.0000000e+00 0.0000000e+00 3.0000000e+00 
5.0000000e+00 0.0000000e+00 4.0000000e+00 
5.0000000e+00 0.0000000e+00 5.0000000e+00 
5.0000000e+00 0.0000000e+00 6.0000000e+00 
5.0000000e+00 0.0000000e+00 7.0000000e+00 
5.0000000e+00 0.0000000e+00 8.0000000e+00 
5.0000000e+00 0.0000000e+00 9.0000000e+00 
1.0000000e+00 0.0000000e+00 1.0000000e+01 
2.0000000e+00 0.0000000e+00 1.0000000e+01 
3.0000000e+00 0.0000000e+00 1.0000000e+01 
4.0000000e+00 0.0000000e+00 1.0000000e+01 
5.0000000e+00 3.0000000e+00 1.0000000e+00 
5.0000000e+00 3.0000000e+00 2.0000000e+00 
5.0000000e+00 3.0000000e+00 3.0000000e+00 
5.0000000e+00 3.0000000e+00 4.0000000e+00 
5.0000000e+00 3.0000000e+00 5.0000000e+00 
5.0000000e+00 3.0000000e+00 6.0000000e+00 
5.0000000e+00 3.0000000e+00 7.0000000e+00 
5.0000000e+00 3.0000000e+00 8.0000000e+00 
5.0000000e+00 3.0000000e+00 9.0000000e+00 
5.0000000e+00 1.0000000e+00 1.0000000e+01 
5.0000000e+00 2.0000000e+00 1.0000000e+01 
0.0000000e+00 3.0000000e+00 1.0000000e+00 
0.0000000e+00 3.0000000e+00 2.0000000e+00 
0.0000000e+00 3.0000000e+00 3.0000000e+00 
0.0000000e+00 3.0000000e+00 4.0000000e+00 
0.0000000e+00 3.0000000e+00 5.0000000e+00 
0.0000000e+00 3.0000000e+00 6.0000000e+00 
0.0000000e+00 3.0000000e+00 7.0000000e+00 
0.0000000e+00 3.0000000e+00 8.0000000e+00 
0.0000000e+00 3.0000000e+00 9.0000000e+00 
0.0000000e+00 2.0000000e+00 1.0000000e+01 
0.0000000e+00 1.0000000e+00 1.0000000e+01 
4.0000000e+00 3.0000000e+00 0.0000000e+00 
3.0000000e+00 3.0000000e+00 0.0000000e+00 
2.0000000e+00 3.0000000e+00 0.0000000e+00 
4.0000000e+00 3.0000000e+00 1.0000000e+01 
3.0000000e+00 3.0000000e+00 1.0000000e+01 
2.0000000e+00 3.0000000e+00 1.0000000e+01 
4.0618000e+00 1.5000000e+00 0.0000000e+00 
1.5046000e+00 7.6549745e-01 0.0000000e+00 
2.5000000e+00 2.1339746e+00 0.0000000e+00 
1.5046000e+00 2.2345026e+00 0.0000000e+00 
2.4957771e+00 8.1560516e-01 0.0000000e+00 
3.4707544e+00 2.2336540e+00 0.0000000e+00 
3.4700506e+00 7.5794268e-01 0.0000000e+00 
8.6322361e-01 1.5000000e+00 0.0000000e+00 
2.0000000e+00 1.5000000e+00 0.0000000e+00 
2.9960666e+00 1.4974480e+00 0.0000000e+00 
4.2679491e+00 7.3205084e-01 0.0000000e+00 
4.2679491e+00 2.2679491e+00 0.0000000e+00 
7.2695929e-01 2.2730408e+00 0.0000000e+00 
7.2695929e-01 7.2695929e-01 0.0000000e+00 
4.1822505e+00 0.0000000e+00 2.5515697e+00 
4.2017918e+00 0.0000000e+00 4.4725966e+00 
4.1114569e+00 0.0000000e+00 6.5092020e+00 
8.6602539e-01 0.0000000e+00 3.5000000e+00 
8.4778279e-01 0.0000000e+00 5.4684029e+00 
8.9629614e-01 0.0000000e+00 7.5867257e+00 
2.5566745e+00 0.0000000e+00 8.1853306e-01 
2.4918270e+00 0.0000000e+00 9.1386929e+00 
8.4677207e-01 0.0000000e+00 1.5042374e+00 
4.0943027e+00 0.0000000e+00 8.4081745e+00 
8.6281651e-01 0.0000000e+00 2.5007062e+00 
1.7315160e+00 0.0000000e+00 3.0001178e+00 
1.7319617e+00 0.0000000e+00 4.0000196e+00 
2.5980761e+00 0.0000000e+00 3.5000000e+00 
2.5536871e+00 0.0000000e+00 4.4963923e+00 
2.5928419e+00 0.0000000e+00 2.4239938e+00 
1.5037409e+00 0.0000000e+00 9.1535149e+00 
1.8433737e+00 0.0000000e+00 8.1858873e+00 
3.0000000e+00 0.0000000e+00 8.2679491e+00 
2.5000000e+00 0.0000000e+00 7.4019237e+00 
3.5042722e+00 0.0000000e+00 7.4271150e+00 
3.0310018e+00 0.0000000e+00 6.5282087e+00 
2.0373929e+00 0.0000000e+00 6.5307913e+00 
3.4767809e+00 0.0000000e+00 5.8031492e+00 
2.5452602e+00 0.0000000e+00 5.5720768e+00 
1.6456656e+00 0.0000000e+00 1.9697139e+00 
8.6297011e-01 0.0000000e+00 4.4947371e+00 
1.0111579e+00 0.0000000e+00 6.5282545e+00 
3.4994321e+00 0.0000000e+00 8.4691072e-01 
4.1860156e+00 0.0000000e+00 3.5040276e+00 
1.7320508e+00 0.0000000e+00 5.0000000e+00 
4.0544066e+00 0.0000000e+00 1.5781221e+00 
1.5817389e+00 0.0000000e+00 9.3943578e-01 
8.3166349e-01 0.0000000e+00 8.5090933e+00 
3.4686174e+00 0.0000000e+00 9.1752682e+00 
3.0709300e+00 0.0000000e+00 1.5799091e+00 
3.3927374e+00 0.0000000e+00 3.0399952e+00 
3.3826034e+00 0.0000000e+00 3.9747651e+00 
4.3420062e+00 0.0000000e+00 7.4688983e+00 
3.4023225e+00 0.0000000e+00 4.9314723e+00 
1.6740381e+00 0.0000000e+00 7.3014426e+00 
4.2715640e+00 0.0000000e+00 5.4758859e+00 
1.6225953e+00 0.0000000e+00 5.8104177e+00 
4.2679491e+00 0.0000000e+00 9.2679491e+00 
7.3205084e-01 0.0000000e+00 7.3205084e-01 
4.2679491e+00 0.0000000e+00 7.3205084e-01 
7.3205084e-01 0.0000000e+00 9.2679491e+00 
3.4586334e+00 0.0000000e+00 2.2347178e+00 
2.2895701e+00 0.0000000e+00 1.5463171e+00 
5.0000000e+00 2.2345026e+00 1.5046000e+00 
[...]
POINT_DATA 460
FIELD FieldData 2
DISPLACEMENT 3 460  float
0.0000000e+00 0.0000000e+00 0.0000000e+00 
0.0000000e+00 0.0000000e+00 0.0000000e+00 
0.0000000e+00 8.5711690e-08 0.0000000e+00 
0.0000000e+00 -5.4738239e-06 0.0000000e+00 
0.0000000e+00 0.0000000e+00 0.0000000e+00 
0.0000000e+00 0.0000000e+00 0.0000000e+00 
0.0000000e+00 3.1054481e-07 0.0000000e+00 
0.0000000e+00 6.8347248e-09 0.0000000e+00 
0.0000000e+00 -4.9401649e-07 0.0000000e+00 
0.0000000e+00 -4.8627635e-07 0.0000000e+00 
0.0000000e+00 -4.5829626e-07 0.0000000e+00 
0.0000000e+00 -4.0464823e-07 0.0000000e+00 
0.0000000e+00 -3.2433564e-07 0.0000000e+00 
0.0000000e+00 -2.2529228e-07 0.0000000e+00 
0.0000000e+00 -1.3099556e-07 0.0000000e+00 
0.0000000e+00 -8.8128196e-08 0.0000000e+00 
0.0000000e+00 -1.7194667e-07 0.0000000e+00 
0.0000000e+00 -4.8259625e-07 0.0000000e+00 
0.0000000e+00 -1.1644877e-06 0.0000000e+00 
-8.1507761e-07 -2.4574194e-06 2.6485297e-06 
-2.2740783e-06 -6.0135171e-06 6.8727363e-06 
-2.7165017e-06 -1.5462212e-05 9.5500573e-06 
-3.8362809e-06 -3.8164933e-05 1.5715364e-05 
-4.2412648e-06 -8.3448438e-05 1.3929454e-05 
-4.5835732e-06 -1.5647197e-04 9.1637148e-06 
-1.3650269e-05 -2.3662120e-04 1.4621426e-05 
-2.0308735e-06 -2.4544433e-04 1.5878999e-06 
-1.4627067e-05 -1.7617307e-04 -1.9913536e-05 
-8.7036724e-06 -9.9335535e-05 -1.5799989e-05 
-3.5181549e-06 -4.7696314e-05 -1.5139889e-05 
-3.9784900e-06 -2.0105994e-05 -9.9211966e-06 
-2.0440359e-06 -7.5260104e-06 -6.8894542e-06 
-1.5203583e-06 -2.5597085e-06 -4.7846393e-06 
-7.6252394e-07 -8.3383452e-07 -3.0360329e-06 
-4.9497390e-07 -2.7437551e-07 -2.0225536e-06 
-2.3082136e-07 -7.7701110e-08 -9.9753140e-07 
-1.3085996e-07 2.4018021e-08 -5.6255953e-07 
-7.6289666e-08 8.7696733e-08 -2.6763769e-07 
0.0000000e+00 9.6288410e-08 0.0000000e+00 
0.0000000e+00 7.8558003e-08 0.0000000e+00 
0.0000000e+00 5.2554299e-08 0.0000000e+00 
0.0000000e+00 2.9162482e-08 0.0000000e+00 
0.0000000e+00 1.2381794e-08 0.0000000e+00 
0.0000000e+00 2.3317832e-09 0.0000000e+00 
0.0000000e+00 -2.5746951e-09 0.0000000e+00 
0.0000000e+00 -4.3074904e-09 0.0000000e+00 
0.0000000e+00 -4.5555271e-09 0.0000000e+00 
0.0000000e+00 -4.4775286e-09 0.0000000e+00 
0.0000000e+00 -4.9411346e-07 0.0000000e+00 
0.0000000e+00 -4.8640089e-07 0.0000000e+00 
0.0000000e+00 -4.5851817e-07 0.0000000e+00 
0.0000000e+00 -4.0485875e-07 0.0000000e+00 
0.0000000e+00 -3.2436043e-07 0.0000000e+00 
0.0000000e+00 -2.2505353e-07 0.0000000e+00 
0.0000000e+00 -1.3055899e-07 0.0000000e+00 
0.0000000e+00 -8.7734122e-08 0.0000000e+00 
0.0000000e+00 -1.7211873e-07 0.0000000e+00 
0.0000000e+00 -4.8423243e-07 0.0000000e+00 
0.0000000e+00 -1.1253175e-06 0.0000000e+00 
0.0000000e+00 -2.4036451e-06 0.0000000e+00 
0.0000000e+00 -5.8904816e-06 0.0000000e+00 
0.0000000e+00 -1.5352887e-05 0.0000000e+00 
0.0000000e+00 -3.8159429e-05 0.0000000e+00 
0.0000000e+00 -8.4008898e-05 0.0000000e+00 
0.0000000e+00 -1.5824568e-04 0.0000000e+00 
0.0000000e+00 -2.3963685e-04 0.0000000e+00 
0.0000000e+00 -2.5062510e-04 0.0000000e+00 
0.0000000e+00 -1.7818545e-04 0.0000000e+00 
0.0000000e+00 -1.0052980e-04 0.0000000e+00 
0.0000000e+00 -4.7973703e-05 0.0000000e+00 
0.0000000e+00 -2.0024127e-05 0.0000000e+00 
0.0000000e+00 -7.4120780e-06 0.0000000e+00 
0.0000000e+00 -2.4772992e-06 0.0000000e+00 
0.0000000e+00 -7.8858233e-07 0.0000000e+00 
0.0000000e+00 -2.5607454e-07 0.0000000e+00 
0.0000000e+00 -7.0682397e-08 0.0000000e+00 
0.0000000e+00 2.6401725e-08 0.0000000e+00 
0.0000000e+00 8.5568750e-08 0.0000000e+00 
0.0000000e+00 9.6693171e-08 0.0000000e+00 
0.0000000e+00 7.8869050e-08 0.0000000e+00 
0.0000000e+00 5.2762960e-08 0.0000000e+00 
0.0000000e+00 2.9278759e-08 0.0000000e+00 
0.0000000e+00 1.2431651e-08 0.0000000e+00 
0.0000000e+00 2.3417548e-09 0.0000000e+00 
0.0000000e+00 -2.5842852e-09 0.0000000e+00 
0.0000000e+00 -4.3240695e-09 0.0000000e+00 
0.0000000e+00 -4.5731783e-09 0.0000000e+00 
0.0000000e+00 -4.4949036e-09 0.0000000e+00 
0.0000000e+00 0.0000000e+00 0.0000000e+00 
0.0000000e+00 0.0000000e+00 0.0000000e+00 
0.0000000e+00 0.0000000e+00 0.0000000e+00 
0.0000000e+00 0.0000000e+00 0.0000000e+00 
0.0000000e+00 0.0000000e+00 0.0000000e+00 
0.0000000e+00 0.0000000e+00 0.0000000e+00 
0.0000000e+00 0.0000000e+00 0.0000000e+00 
0.0000000e+00 0.0000000e+00 0.0000000e+00 
0.0000000e+00 0.0000000e+00 0.0000000e+00 
0.0000000e+00 0.0000000e+00 0.0000000e+00 
0.0000000e+00 0.0000000e+00 0.0000000e+00 
0.0000000e+00 0.0000000e+00 0.0000000e+00 
0.0000000e+00 0.0000000e+00 0.0000000e+00 
0.0000000e+00 0.0000000e+00 0.0000000e+00 
0.0000000e+00 0.0000000e+00 0.0000000e+00 
0.0000000e+00 0.0000000e+00 0.0000000e+00 
0.0000000e+00 0.0000000e+00 0.0000000e+00 
0.0000000e+00 0.0000000e+00 0.0000000e+00 
0.0000000e+00 0.0000000e+00 0.0000000e+00 
0.0000000e+00 0.0000000e+00 0.0000000e+00 
0.0000000e+00 0.0000000e+00 0.0000000e+00 
0.0000000e+00 0.0000000e+00 0.0000000e+00 
0.0000000e+00 0.0000000e+00 0.0000000e+00 
0.0000000e+00 -5.9965302e-08 0.0000000e+00 
0.0000000e+00 4.9905054e-08 0.0000000e+00 
0.0000000e+00 -4.9857254e-06 0.0000000e+00 
0.0000000e+00 -3.0825631e-06 0.0000000e+00 
0.0000000e+00 0.0000000e+00 0.0000000e+00 
0.0000000e+00 0.0000000e+00 0.0000000e+00 
0.0000000e+00 0.0000000e+00 0.0000000e+00 
0.0000000e+00 0.0000000e+00 0.0000000e+00 
0.0000000e+00 0.0000000e+00 0.0000000e+00 
0.0000000e+00 0.0000000e+00 0.0000000e+00 
0.0000000e+00 0.0000000e+00 0.0000000e+00 
0.0000000e+00 0.0000000e+00 0.0000000e+00 
0.0000000e+00 0.0000000e+00 0.0000000e+00 
0.0000000e+00 0.0000000e+00 0.0000000e+00 
0.0000000e+00 0.0000000e+00 0.0000000e+00 
0.0000000e+00 0.0000000e+00 0.0000000e+00 
0.0000000e+00 0.0000000e+00 0.0000000e+00 
0.0000000e+00 0.0000000e+00 0.0000000e+00 
0.0000000e+00 0.0000000e+00 0.0000000e+00 
0.0000000e+00 0.0000000e+00 0.0000000e+00 
0.0000000e+00 0.0000000e+00 0.0000000e+00 
0.0000000e+00 0.0000000e+00 0.0000000e+00 
0.0000000e+00 0.0000000e+00 0.0000000e+00 
0.0000000e+00 0.0000000e+00 0.0000000e+00 
0.0000000e+00 0.0000000e+00 0.0000000e+00 
0.0000000e+00 0.0000000e+00 0.0000000e+00 
0.0000000e+00 -2.1792108e-07 0.0000000e+00 
0.0000000e+00 -2.9707749e-07 0.0000000e+00 
0.0000000e+00 -1.5288664e-06 0.0000000e+00 
0.0000000e+00 -1.0709173e-06 0.0000000e+00 
0.0000000e+00 -1.3775057e-06 0.0000000e+00 
0.0000000e+00 4.4302229e-07 0.0000000e+00 
0.0000000e+00 7.4980491e-08 0.0000000e+00 
0.0000000e+00 3.9486702e-07 0.0000000e+00 
0.0000000e+00 3.0326061e-07 0.0000000e+00 
0.0000000e+00 1.1835765e-07 0.0000000e+00 
0.0000000e+00 2.6246707e-07 0.0000000e+00 
0.0000000e+00 -1.0355819e-05 0.0000000e+00 
0.0000000e+00 -3.5225989e-05 0.0000000e+00 
0.0000000e+00 -8.3907122e-05 0.0000000e+00 
0.0000000e+00 -1.0077420e-04 0.0000000e+00 
0.0000000e+00 -5.9348033e-05 0.0000000e+00 
0.0000000e+00 -2.0952091e-05 0.0000000e+00 
0.0000000e+00 -6.3615998e-06 0.0000000e+00 
0.0000000e+00 -1.4211015e-06 0.0000000e+00 
0.0000000e+00 -2.4389087e-07 0.0000000e+00 
0.0000000e+00 -9.6314823e-09 0.0000000e+00 
0.0000000e+00 -3.2463976e-08 0.0000000e+00 
0.0000000e+00 -8.7112888e-08 0.0000000e+00 
0.0000000e+00 -1.6233706e-06 0.0000000e+00 
0.0000000e+00 -3.4125919e-06 0.0000000e+00 
0.0000000e+00 2.9270234e-07 0.0000000e+00 
0.0000000e+00 2.4527833e-07 0.0000000e+00 
0.0000000e+00 2.3697208e-07 0.0000000e+00 
0.0000000e+00 -6.5320613e-08 0.0000000e+00 
0.0000000e+00 -1.8662830e-06 0.0000000e+00 
0.0000000e+00 -1.0689860e-06 0.0000000e+00 
0.0000000e+00 -2.1024691e-06 0.0000000e+00 
0.0000000e+00 -8.7821871e-07 0.0000000e+00 
0.0000000e+00 -1.0350643e-07 0.0000000e+00 
0.0000000e+00 -6.1309476e-07 0.0000000e+00 
0.0000000e+00 -2.8473837e-06 0.0000000e+00 
0.0000000e+00 -1.6516644e-06 0.0000000e+00 
0.0000000e+00 -6.6910900e-07 0.0000000e+00 
0.0000000e+00 -8.9502720e-08 0.0000000e+00 
0.0000000e+00 9.5011607e-08 0.0000000e+00 
0.0000000e+00 -3.1991790e-06 0.0000000e+00 
0.0000000e+00 -1.6213231e-06 0.0000000e+00 
0.0000000e+00 0.0000000e+00 0.0000000e+00 
0.0000000e+00 0.0000000e+00 0.0000000e+00 
0.0000000e+00 0.0000000e+00 0.0000000e+00 
0.0000000e+00 0.0000000e+00 0.0000000e+00 
0.0000000e+00 0.0000000e+00 0.0000000e+00 
0.0000000e+00 0.0000000e+00 0.0000000e+00 
0.0000000e+00 0.0000000e+00 0.0000000e+00 
0.0000000e+00 0.0000000e+00 0.0000000e+00 
0.0000000e+00 0.0000000e+00 0.0000000e+00 
0.0000000e+00 0.0000000e+00 0.0000000e+00 
0.0000000e+00 0.0000000e+00 0.0000000e+00 
0.0000000e+00 0.0000000e+00 0.0000000e+00 
0.0000000e+00 0.0000000e+00 0.0000000e+00 
0.0000000e+00 0.0000000e+00 0.0000000e+00 
0.0000000e+00 0.0000000e+00 0.0000000e+00 
0.0000000e+00 0.0000000e+00 0.0000000e+00 
0.0000000e+00 0.0000000e+00 0.0000000e+00 
0.0000000e+00 0.0000000e+00 0.0000000e+00 
0.0000000e+00 0.0000000e+00 0.0000000e+00 
0.0000000e+00 0.0000000e+00 0.0000000e+00 
0.0000000e+00 0.0000000e+00 0.0000000e+00 
0.0000000e+00 0.0000000e+00 0.0000000e+00 
0.0000000e+00 0.0000000e+00 0.0000000e+00 
0.0000000e+00 0.0000000e+00 0.0000000e+00 
0.0000000e+00 0.0000000e+00 0.0000000e+00 
0.0000000e+00 0.0000000e+00 0.0000000e+00 
0.0000000e+00 0.0000000e+00 0.0000000e+00 
0.0000000e+00 0.0000000e+00 0.0000000e+00 
0.0000000e+00 0.0000000e+00 0.0000000e+00 
0.0000000e+00 0.0000000e+00 0.0000000e+00 
0.0000000e+00 0.0000000e+00 0.0000000e+00 
0.0000000e+00 0.0000000e+00 0.0000000e+00 
0.0000000e+00 0.0000000e+00 0.0000000e+00 
0.0000000e+00 0.0000000e+00 0.0000000e+00 
0.0000000e+00 0.0000000e+00 0.0000000e+00 
0.0000000e+00 0.0000000e+00 0.0000000e+00 
0.0000000e+00 0.0000000e+00 0.0000000e+00 
0.0000000e+00 0.0000000e+00 0.0000000e+00 
0.0000000e+00 0.0000000e+00 0.0000000e+00 
0.0000000e+00 0.0000000e+00 0.0000000e+00 
0.0000000e+00 0.0000000e+00 0.0000000e+00 
0.0000000e+00 0.0000000e+00 0.0000000e+00 
0.0000000e+00 0.0000000e+00 0.0000000e+00 
0.0000000e+00 0.0000000e+00 0.0000000e+00 
0.0000000e+00 0.0000000e+00 0.0000000e+00 
0.0000000e+00 0.0000000e+00 0.0000000e+00 
0.0000000e+00 0.0000000e+00 0.0000000e+00 
0.0000000e+00 0.0000000e+00 0.0000000e+00 
0.0000000e+00 0.0000000e+00 0.0000000e+00 
0.0000000e+00 -1.0442586e-07 0.0000000e+00 
0.0000000e+00 1.9429505e-07 0.0000000e+00 
0.0000000e+00 -6.5159986e-07 0.0000000e+00 
0.0000000e+00 1.6221242e-07 0.0000000e+00 
0.0000000e+00 3.9699458e-07 0.0000000e+00 
0.0000000e+00 -7.3284104e-07 0.0000000e+00 
0.0000000e+00 -7.6543733e-07 0.0000000e+00 
0.0000000e+00 -2.5580587e-07 0.0000000e+00 
0.0000000e+00 -9.4021641e-07 0.0000000e+00 
0.0000000e+00 -5.2904983e-07 0.0000000e+00 
0.0000000e+00 -5.4866825e-07 0.0000000e+00 
0.0000000e+00 -8.1697692e-07 0.0000000e+00 
0.0000000e+00 2.4660167e-07 0.0000000e+00 
0.0000000e+00 3.6166428e-09 0.0000000e+00 
0.0000000e+00 -6.0636006e-07 0.0000000e+00 
0.0000000e+00 7.7322127e-08 0.0000000e+00 
0.0000000e+00 3.2410273e-07 0.0000000e+00 
0.0000000e+00 -5.6171849e-08 0.0000000e+00 
0.0000000e+00 -5.1506692e-07 0.0000000e+00 
0.0000000e+00 9.3496247e-08 0.0000000e+00 
0.0000000e+00 -6.3289878e-07 0.0000000e+00 
0.0000000e+00 -9.7144856e-08 0.0000000e+00 
0.0000000e+00 -7.4576337e-07 0.0000000e+00 
0.0000000e+00 -9.8269538e-07 0.0000000e+00 
0.0000000e+00 2.4932115e-07 0.0000000e+00 
0.0000000e+00 3.0960163e-07 0.0000000e+00 
0.0000000e+00 7.0507575e-08 0.0000000e+00 
0.0000000e+00 1.4146543e-07 0.0000000e+00 
0.0000000e+00 -1.7937197e-07 0.0000000e+00 
0.0000000e+00 -2.0594564e-07 0.0000000e+00 
0.0000000e+00 -7.9786951e-06 0.0000000e+00 
0.0000000e+00 -1.8328623e-05 0.0000000e+00 
0.0000000e+00 -2.2702889e-05 0.0000000e+00 
0.0000000e+00 -1.9071009e-06 0.0000000e+00 
0.0000000e+00 -8.2544342e-05 0.0000000e+00 
0.0000000e+00 -3.2167394e-05 0.0000000e+00 
0.0000000e+00 -3.1258289e-06 0.0000000e+00 
0.0000000e+00 -2.7534470e-05 0.0000000e+00 
0.0000000e+00 -4.9151644e-05 0.0000000e+00 
0.0000000e+00 -7.1196846e-05 0.0000000e+00 
0.0000000e+00 -1.1759292e-05 0.0000000e+00 
0.0000000e+00 -1.4327390e-05 0.0000000e+00 
0.0000000e+00 -7.2923604e-07 0.0000000e+00 
0.0000000e+00 -1.9092240e-05 0.0000000e+00 
0.0000000e+00 -8.5498477e-06 0.0000000e+00 
0.0000000e+00 -4.9184894e-07 0.0000000e+00 
0.0000000e+00 -3.5945377e-05 0.0000000e+00 
0.0000000e+00 -4.2424067e-06 0.0000000e+00 
0.0000000e+00 -5.4111144e-05 0.0000000e+00 
0.0000000e+00 -4.6776451e-05 0.0000000e+00 
0.0000000e+00 -4.8762008e-06 0.0000000e+00 
0.0000000e+00 -1.2395326e-05 0.0000000e+00 
0.0000000e+00 -1.2361777e-06 0.0000000e+00 
0.0000000e+00 -2.3498878e-05 0.0000000e+00 
0.0000000e+00 -1.4043404e-07 0.0000000e+00 
0.0000000e+00 -7.7337745e-06 0.0000000e+00 
0.0000000e+00 -4.2107827e-06 0.0000000e+00 
0.0000000e+00 -1.2341481e-07 0.0000000e+00 
0.0000000e+00 -4.3780255e-09 0.0000000e+00 
0.0000000e+00 2.0588510e-07 0.0000000e+00 
0.0000000e+00 3.2463032e-07 0.0000000e+00 
0.0000000e+00 2.7658115e-07 0.0000000e+00 
0.0000000e+00 1.1845471e-08 0.0000000e+00 
0.0000000e+00 3.4998044e-07 0.0000000e+00 
0.0000000e+00 8.0911548e-08 0.0000000e+00 
0.0000000e+00 9.9935136e-08 0.0000000e+00 
0.0000000e+00 1.8251026e-07 0.0000000e+00 
0.0000000e+00 2.3993474e-07 0.0000000e+00 
0.0000000e+00 7.0454192e-08 0.0000000e+00 
0.0000000e+00 3.3565965e-07 0.0000000e+00 
0.0000000e+00 1.2266946e-07 0.0000000e+00 
0.0000000e+00 -8.2130391e-09 0.0000000e+00 
-1.3384722e-05 -8.2363935e-05 -1.0424471e-05 
-4.0091436e-06 -1.5263084e-05 -8.4481071e-06 
-7.2087965e-07 -8.8460257e-07 -2.5029542e-06 
-9.5523219e-06 -4.1245730e-05 1.3609891e-05 
-6.8739510e-06 -1.0724810e-04 7.3128326e-06 
-2.6623836e-06 -9.2831402e-07 -9.5394785e-07 
-2.0598925e-06 -2.1065694e-06 4.0804338e-07 
-7.3639751e-07 7.1375695e-08 -6.5485773e-07 
-3.2780640e-06 -1.0105187e-05 6.9441767e-06 
-2.0398605e-07 -3.4588645e-08 -8.2397440e-07 
-1.9747542e-06 -1.6679159e-06 1.6697270e-06 
-1.6570958e-07 3.1361711e-07 -2.5728289e-07 
-1.0436661e-06 -2.8911026e-07 -9.1213064e-07 
-1.8148558e-06 -8.3479722e-07 -2.2173815e-06 
-8.0108038e-07 -4.2490450e-07 -1.3210386e-06 
-1.3131635e-06 -1.3771680e-06 -1.6255175e-06 
-2.6589894e-06 -4.2398729e-06 -2.8559455e-06 
-4.6260806e-07 -2.1641247e-07 -9.0912494e-07 
-1.8187536e-06 -2.9854646e-06 -4.1568119e-06 
-3.5739142e-06 -3.3254703e-06 -2.9950627e-06 
-4.6053042e-06 -6.0289613e-06 -2.5076570e-06 
-6.1509722e-06 -1.1177515e-05 -4.4421058e-06 
-1.0054435e-05 -2.0582267e-05 -5.3542431e-06 
-6.9359353e-06 -1.0312091e-05 -1.4645552e-06 
-1.1415908e-05 -2.6242242e-05 -1.0142959e-06 
-5.6095582e-06 -9.2408081e-06 5.5229734e-08 
-1.0321022e-05 -2.6827183e-05 3.6027388e-06 
-6.9216335e-06 -1.3446515e-05 2.7775436e-06 
-8.9090954e-06 -2.1267675e-05 4.6380082e-06 
-6.0225780e-06 -8.8260813e-06 3.3824176e-06 
-6.1826208e-06 -1.2006473e-05 5.4616821e-06 
-8.9365831e-06 -2.4655095e-05 -9.1502297e-06 
-6.2778954e-06 -1.4443602e-05 -7.1192567e-06 
-1.7127111e-05 -5.5337325e-05 1.2110070e-06 
-3.0484018e-06 -3.0054262e-06 3.8617313e-07 
-2.1534650e-07 2.6180160e-07 -4.1716163e-07 
-1.4613209e-05 -5.0399150e-05 -5.2822015e-06 
-2.8417944e-06 -2.6534963e-06 -1.0425316e-06 
-2.4880326e-06 -3.5092687e-06 2.6435655e-06 
-2.3711381e-07 3.3268481e-07 -2.6674388e-07 
-7.0855498e-07 -1.3183495e-06 -2.2404654e-06 
-5.8455169e-07 -4.1016608e-07 -1.5643658e-06 
-6.4814881e-06 -2.9499541e-05 -9.4863553e-06 
-1.4577912e-06 -8.6019782e-07 8.0499308e-07 
-9.7359425e-06 -6.5039065e-05 1.1588693e-05 
-8.4432650e-06 -5.1901810e-05 5.3435524e-06 
-1.2876701e-05 -1.3340331e-04 7.0734395e-06 
-1.3685963e-05 -1.1880480e-04 -7.4604923e-06 
-2.3080997e-06 -6.3170573e-06 -5.6321551e-06 
-1.0981937e-06 -2.6079529e-06 -3.2326329e-06 
-1.7304703e-06 -3.9060692e-06 4.1151579e-06 
-5.5203627e-06 -2.2028044e-05 9.8206810e-06 
-1.4177959e-07 2.0695123e-07 -4.0433275e-07 
-3.6806068e-06 -4.5955508e-06 3.4095460e-06 
-1.2033828e-05 -3.2359119e-05 1.0906346e-05 
-4.0939977e-07 -4.4619748e-07 -1.5449971e-06 
-3.0348745e-06 -7.2935072e-06 -4.9400310e-06 
-5.1237785e-06 -1.1710598e-05 7.5573289e-06 
-9.0648145e-06 -5.4561289e-05 -1.3347354e-05 
-3.6521865e-07 1.7981642e-07 -6.9699462e-07 
-9.3708074e-08 3.4931031e-07 -1.4096490e-07 
-8.3376858e-07 -2.7361332e-07 5.7645542e-07 
-4.9545356e-06 -6.0574866e-06 -2.0957408e-07 
-7.6812203e-06 -2.1688566e-05 1.0452603e-05 
-2.6874824e-07 1.1011403e-07 -6.5612477e-07 
-3.8829630e-06 -7.3428250e-06 -3.8809872e-06 
-2.8798650e-06 -3.0429960e-06 1.5739253e-06 
-4.0793475e-06 -5.5299188e-06 9.6568658e-07 
-2.4568606e-06 -5.6330869e-06 4.3523050e-06 
-1.4537833e-05 -4.3452121e-05 -9.9835579e-06 
-1.5272495e-07 2.6124798e-07 -2.9673063e-07 
-4.2308707e-06 -5.0547384e-05 9.3510625e-06 
-1.6181071e-06 -2.8616463e-05 9.9138242e-06 
-5.3356066e-06 -8.0838414e-05 1.0654214e-05 
-8.2554252e-06 -1.1343164e-04 6.3881989e-06 
-1.3501922e-06 -1.4210379e-05 6.8948029e-06 
-1.3475434e-06 -1.2353488e-04 6.4242164e-07 
-5.2682731e-06 -1.2067204e-04 -4.7807384e-06 
-2.1660853e-06 -8.5088242e-05 -5.0976946e-06 
-3.4856039e-06 -5.7408339e-05 -8.9469404e-06 
-2.3049588e-06 -3.0980755e-05 -8.1870312e-06 
-1.3570991e-06 -1.8634626e-05 -6.4685710e-06 
-8.1452220e-07 -8.4533722e-06 -5.4868651e-06 
-2.8786698e-07 -3.4884285e-06 -3.3511287e-06 
-2.7712773e-07 -1.4875412e-06 -2.0554280e-06 
-1.7146088e-07 -8.0078183e-07 -1.3043326e-06 
-7.5280362e-08 -3.5186719e-07 -7.3567736e-07 
-5.9911471e-08 -2.5158538e-08 -3.3056961e-07 
-6.2542841e-07 -6.4577039e-06 3.4475895e-06 
4.4741887e-06 -1.9012359e-05 -7.1517311e-06 
1.0435670e-05 -3.8023616e-05 -1.8030142e-06 
5.4213037e-06 -1.9519221e-05 6.2716272e-06 
9.5633959e-07 -3.0680649e-06 2.6402035e-06 
9.0916231e-08 -2.0520775e-07 7.0825155e-07 
4.5881543e-06 -6.7267079e-06 -2.0829088e-06 
4.8965785e-06 -6.2903437e-06 5.8502417e-07 
2.0255461e-06 -3.6231331e-06 2.3825446e-06 
7.7863451e-06 -5.9640872e-05 6.8399868e-06 
2.4954620e-06 -6.1490653e-05 -6.7324563e-06 
4.3300884e-07 -1.0653103e-05 -2.7657811e-06 
5.9632822e-07 -4.1961596e-07 1.0471695e-06 
1.7566119e-06 -4.5346051e-06 -1.9928123e-06 
1.3415563e-06 -1.3214110e-05 4.4661283e-06 
-3.4382971e-08 -1.1556873e-06 4.5835233e-07 
-1.3586141e-06 -1.0712104e-04 -5.3024592e-06 
6.7835331e-06 -2.3957678e-05 1.9338092e-06 
6.3491739e-06 -2.1577011e-05 -3.5309904e-06 
1.9018777e-06 -4.5221492e-05 6.3540647e-06 
7.8070580e-06 -1.8903373e-05 3.2403725e-06 
1.2823134e-06 -3.0178402e-05 -2.3861205e-06 
2.3298137e-06 -2.2333018e-06 1.2076028e-06 
-3.6096008e-08 -6.0299932e-08 1.2174483e-08 
1.7468100e-06 -1.2390736e-06 -1.2416524e-06 
1.4393240e-07 2.5356502e-07 2.2425607e-07 
6.3021339e-06 -2.4452213e-05 -5.1501061e-06 
5.7123011e-06 -8.2237411e-06 3.4215739e-06 
4.9604705e-06 -7.3265905e-06 -3.7707880e-06 
7.2876110e-06 -1.2110699e-05 -1.4730284e-06 
3.9414049e-06 -1.2823642e-05 -1.2029466e-06 
4.0975146e-07 -2.3718589e-07 3.7614006e-07 
5.3123898e-07 -4.1535918e-06 1.0380136e-06 
-8.5231456e-08 -3.9928022e-06 3.5306405e-07 
2.0773437e-06 -1.2738453e-05 1.5497155e-06 
1.5690591e-07 2.8947953e-08 4.8088344e-07 
2.1510763e-07 -7.9277231e-07 6.8242275e-07 
2.0512730e-06 -4.6541054e-06 -3.1490513e-06 
2.1666690e-06 -2.7848105e-06 -3.7099639e-07 
8.3716407e-07 -7.2954681e-06 -3.7066484e-06 
1.5355461e-06 -7.3090450e-06 4.1131802e-06 
5.8537262e-06 -3.7395850e-05 2.4903661e-06 
-5.1392693e-08 2.0546656e-07 8.4728534e-08 
1.1623229e-07 -1.0559844e-06 1.4620133e-06 
8.9624828e-06 -6.2382613e-05 -2.2072006e-06 
8.6685759e-07 -9.3977706e-06 -2.1194262e-06 
1.6621707e-06 -7.0443302e-06 9.3733490e-07 
2.5288405e-06 -2.0046041e-06 -5.6284244e-07 
3.9234831e-07 -7.2491798e-07 1.3377670e-06 
1.4401749e-06 -7.5971898e-06 -1.0924766e-06 
3.4713134e-06 -1.7968516e-05 5.0303775e-06 
9.8174780e-07 -1.7852544e-06 -5.2423803e-07 
4.4813575e-07 -1.3930870e-07 5.9339578e-07 
-1.1465818e-07 -2.1405301e-08 -2.3354100e-07 
4.2293158e-07 -1.0783137e-05 4.8275700e-07 
1.1546039e-06 -2.0804093e-05 5.1785296e-06 
2.8577019e-06 -4.8251336e-06 3.5924811e-06 
2.3908974e-08 -7.0271668e-08 4.2047174e-07 
4.6140158e-07 -9.0182601e-07 -4.3531819e-07 
3.8649932e-07 -2.7036240e-06 1.1740604e-07 
2.3717312e-06 -1.9079025e-06 2.4188788e-07 
5.9025103e-07 -1.6835031e-06 2.9291741e-07 
1.0754928e-06 -5.8941004e-07 9.4629939e-07 
7.7563203e-07 -2.1427648e-05 -1.2627874e-06 