# vtk DataFile Version 4.0
vtk output
ASCII
DATASET UNSTRUCTURED_GRID
POINTS 460 float
0.0000000e+00 0.0000000e+00 0.0000000e+00 
5.0000000e+00 0.0000000e+00 0.0000000e+00 
5.0000000e+00 3.0000000e+00 0.0000000e+00 
0.0000000e+00 3.0000000e+00 0.0000000e+00 
0.0000000e+00 0.0000000e+00 1.0000000e+01 
5.0000000e+00 0.0000000e+00 1.0000000e+01 
5.0000000e+00 3.0000000e+00 1.0000000e+01 
0.0000000e+00 3.0000000e+00 1.0000000e+01 
1.0000000e+00 3.0000000e+00 -5.0000000e+00 
1.0000000e+00 3.0000000e+00 -4.5000000e+00 
1.0000000e+00 3.0000000e+00 -4.0000000e+00 
1.0000000e+00 3.0000000e+00 -3.5000000e+00 
1.0000000e+00 3.0000000e+00 -3.0000000e+00 
1.0000000e+00 3.0000000e+00 -2.5000000e+00 
1.0000000e+00 3.0000000e+00 -2.0000000e+00 
1.0000000e+00 3.0000000e+00 -1.5000000e+00 
1.0000000e+00 3.0000000e+00 -1.0000000e+00 
1.0000000e+00 3.0000000e+00 -5.0000000e-01 
1.0000000e+00 3.0000000e+00 0.0000000e+00 
1.0000000e+00 3.0000000e+00 5.0000000e-01 
1.0000000e+00 3.0000000e+00 1.0000000e+00 
1.0000000e+00 3.0000000e+00 1.5000000e+00 
1.0000000e+00 3.0000000e+00 2.0000000e+00 
1.0000000e+00 3.0000000e+00 2.5000000e+00 
1.0000000e+00 3.0000000e+00 3.0000000e+00 
1.0000000e+00 3.0000000e+00 3.5000000e+00 
1.0000000e+00 3.0000000e+00 4.0000000e+00 
1.0000000e+00 3.0000000e+00 4.5000000e+00 
1.0000000e+00 3.0000000e+00 5.0000000e+00 
1.0000000e+00 3.0000000e+00 5.5000000e+00 
1.0000000e+00 3.0000000e+00 6.0000000e+00 
1.0000000e+00 3.0000000e+00 6.5000000e+00 
1.0000000e+00 3.0000000e+00 7.0000000e+00 
1.0000000e+00 3.0000000e+00 7.5000000e+00 
1.0000000e+00 3.0000000e+00 8.0000000e+00 
1.0000000e+00 3.0000000e+00 8.5000000e+00 
1.0000000e+00 3.0000000e+00 9.0000000e+00 
1.0000000e+00 3.0000000e+00 9.5000000e+00 
1.0000000e+00 3.0000000e+00 1.0000000e+01 
1.0000000e+00 3.0000000e+00 1.0500000e+01 
1.0000000e+00 3.0000000e+00 1.1000000e+01 
1.0000000e+00 3.0000000e+00 1.1500000e+01 
1.0000000e+00 3.0000000e+00 1.2000000e+01 
1.0000000e+00 3.0000000e+00 1.2500000e+01 
1.0000000e+00 3.0000000e+00 1.3000000e+01 
1.0000000e+00 3.0000000e+00 1.3500000e+01 
1.0000000e+00 3.0000000e+00 1.4000000e+01 
1.0000000e+00 3.0000000e+00 1.4500000e+01 
1.0000000e+00 3.0250001e+00 -5.0000000e+00 
1.0000000e+00 3.0250001e+00 -4.5000000e+00 
1.0000000e+00 3.0250001e+00 -4.0000000e+00 
1.0000000e+00 3.0250001e+00 -3.5000000e+00 
1.0000000e+00 3.0250001e+00 -3.0000000e+00 
1.0000000e+00 3.0250001e+00 -2.5000000e+00 
1.0000000e+00 3.0250001e+00 -2.0000000e+00 
1.0000000e+00 3.0250001e+00 -1.5000000e+00 
1.0000000e+00 3.0250001e+00 -1.0000000e+00 
1.0000000e+00 3.0250001e+00 -5.0000000e-01 
1.0000000e+00 3.0250001e+00 0.0000000e+00 
1.0000000e+00 3.0250001e+00 5.0000000e-01 
1.0000000e+00 3.0250001e+00 1.0000000e+00 
1.0000000e+00 3.0250001e+00 1.5000000e+00 
1.0000000e+00 3.0250001e+00 2.0000000e+00 
1.0000000e+00 3.0250001e+00 2.5000000e+00 
1.0000000e+00 3.0250001e+00 3.0000000e+00 
1.0000000e+00 3.0250001e+00 3.5000000e+00 
1.0000000e+00 3.0250001e+00 4.0000000e+00 
1.0000000e+00 3.0250001e+00 4.5000000e+00 
1.0000000e+00 3.0250001e+00 5.0000000e+00 
1.0000000e+00 3.0250001e+00 5.5000000e+00 
1.0000000e+00 3.0250001e+00 6.0000000e+00 
1.0000000e+00 3.0250001e+00 6.5000000e+00 
1.0000000e+00 3.0250001e+00 7.0000000e+00 
1.0000000e+00 3.0250001e+00 7.5000000e+00 
1.0000000e+00 3.0250001e+00 8.0000000e+00 
1.0000000e+00 3.0250001e+00 8.5000000e+00 
1.0000000e+00 3.0250001e+00 9.0000000e+00 
1.0000000e+00 3.0250001e+00 9.5000000e+00 
1.0000000e+00 3.0250001e+00 1.0000000e+01 
1.0000000e+00 3.0250001e+00 1.0500000e+01 
1.0000000e+00 3.0250001e+00 1.1000000e+01 
1.0000000e+00 3.0250001e+00 1.1500000e+01 
1.0000000e+00 3.0250001e+00 1.2000000e+01 
1.0000000e+00 3.0250001e+00 1.2500000e+01 
1.0000000e+00 3.0250001e+00 1.3000000e+01 
1.0000000e+00 3.0250001e+00 1.3500000e+01 
1.0000000e+00 3.0250001e+00 1.4000000e+01 
1.0000000e+00 3.0250001e+00 1.4500000e+01 
1.0000000e+00 -2.0000000e+00 -5.0000000e+00 
1.0000000e+00 -2.0000000e+00 -4.5000000e+00 
1.0000000e+00 -2.0000000e+00 -4.0000000e+00 
1.0000000e+00 -2.0000000e+00 -3.5000000e+00 
1.0000000e+00 -2.0000000e+00 -3.0000000e+00 
1.0000000e+00 -2.0000000e+00 -2.5000000e+00 
1.0000000e+00 -2.0000000e+00 -2.0000000e+00 
1.0000000e+00 -2.0000000e+00 -1.5000000e+00 
1.0000000e+00 -2.0000000e+00 -1.0000000e+00 
1.0000000e+00 -2.0000000e+00 -5.0000000e-01 
1.0000000e+00 -2.0000000e+00 1.0500000e+01 
1.0000000e+00 -2.0000000e+00 1.1000000e+01 
1.0000000e+00 -2.0000000e+00 1.1500000e+01 
1.0000000e+00 -2.0000000e+00 1.2000000e+01 
1.0000000e+00 -2.0000000e+00 1.2500000e+01 
1.0000000e+00 -2.0000000e+00 1.3000000e+01 
1.0000000e+00 -2.0000000e+00 1.3500000e+01 
1.0000000e+00 -2.0000000e+00 1.4000000e+01 
1.0000000e+00 -2.0000000e+00 1.4500000e+01 
1.0000000e+00 0.0000000e+00 0.0000000e+00 
2.0000000e+00 0.0000000e+00 0.0000000e+00 
3.0000000e+00 0.0000000e+00 0.0000000e+00 
4.0000000e+00 0.0000000e+00 0.0000000e+00 
5.0000000e+00 1.0000000e+00 0.0000000e+00 
5.0000000e+00 2.0000000e+00 0.0000000e+00 
0.0000000e+00 2.0000000e+00 0.0000000e+00 
0.0000000e+00 1.0000000e+00 0.0000000e+00 
0.0000000e+00 0.0000000e+00 1.0000000e+00 
0.0000000e+00 0.0000000e+00 2.0000000e+00 
0.0000000e+00 0.0000000e+00 3.0000000e+00 
0.0000000e+00 0.0000000e+00 4.0000000e+00 
0.0000000e+00 0.0000000e+00 5.0000000e+00 
0.0000000e+00 0.0000000e+00 6.0000000e+00 
0.0000000e+00 0.0000000e+00 7.0000000e+00 
0.0000000e+00 0.0000000e+00 8.0000000e+00 
0.0000000e+00 0.0000000e+00 9.0000000e+00 
5.0000000e+00 0.0000000e+00 1.0000000e+00 
5.0000000e+00 0.0000000e+00 2.0000000e+00 
5.0000000e+00 0.0000000e+00 3.0000000e+00 
5.0000000e+00 0.0000000e+00 4.0000000e+00 
5.0000000e+00 0.0000000e+00 5.0000000e+00 
5.0000000e+00 0.0000000e+00 6.0000000e+00 
5.0000000e+00 0.0000000e+00 7.0000000e+00 
5.0000000e+00 0.0000000e+00 8.0000000e+00 
5.0000000e+00 0.0000000e+00 9.0000000e+00 
1.0000000e+00 0.0000000e+00 1.0000000e+01 
2.0000000e+00 0.0000000e+00 1.0000000e+01 
3.0000000e+00 0.0000000e+00 1.0000000e+01 
4.0000000e+00 0.0000000e+00 1.0000000e+01 
5.0000000e+00 3.0000000e+00 1.0000000e+00 
5.0000000e+00 3.0000000e+00 2.0000000e+00 
5.0000000e+00 3.0000000e+00 3.0000000e+00 
5.0000000e+00 3.0000000e+00 4.0000000e+00 
5.0000000e+00 3.0000000e+00 5.0000000e+00 
5.0000000e+00 3.0000000e+00 6.0000000e+00 
5.0000000e+00 3.0000000e+00 7.0000000e+00 
5.0000000e+00 3.0000000e+00 8.0000000e+00 
5.0000000e+00 3.0000000e+00 9.0000000e+00 
5.0000000e+00 1.0000000e+00 1.0000000e+01 
5.0000000e+00 2.0000000e+00 1.0000000e+01 
0.0000000e+00 3.0000000e+00 1.0000000e+00 
0.0000000e+00 3.0000000e+00 2.0000000e+00 
0.0000000e+00 3.0000000e+00 3.0000000e+00 
0.0000000e+00 3.0000000e+00 4.0000000e+00 
0.0000000e+00 3.0000000e+00 5.0000000e+00 
0.0000000e+00 3.0000000e+00 6.0000000e+00 
0.0000000e+00 3.0000000e+00 7.0000000e+00 
0.0000000e+00 3.0000000e+00 8.0000000e+00 
0.0000000e+00 3.0000000e+00 9.0000000e+00 
0.0000000e+00 2.0000000e+00 1.0000000e+01 
0.0000000e+00 1.0000000e+00 1.0000000e+01 
4.0000000e+00 3.0000000e+00 0.0000000e+00 
3.0000000e+00 3.0000000e+00 0.0000000e+00 
2.0000000e+00 3.0000000e+00 0.0000000e+00 
4.0000000e+00 3.0000000e+00 1.0000000e+01 
3.0000000e+00 3.0000000e+00 1.0000000e+01 
2.0000000e+00 3.0000000e+00 1.0000000e+01 
4.0618000e+00 1.5000000e+00 0.0000000e+00 
1.5046000e+00 7.6549745e-01 0.0000000e+00 
2.5000000e+00 2.1339746e+00 0.0000000e+00 
1.5046000e+00 2.2345026e+00 0.0000000e+00 
2.4957771e+00 8.1560516e-01 0.0000000e+00 
3.4707544e+00 2.2336540e+00 0.0000000e+00 
3.4700506e+00 7.5794268e-01 0.0000000e+00 
8.6322361e-01 1.5000000e+00 0.0000000e+00 
2.0000000e+00 1.5000000e+00 0.0000000e+00 
2.9960666e+00 1.4974480e+00 0.0000000e+00 
4.2679491e+00 7.3205084e-01 0.0000000e+00 
4.2679491e+00 2.2679491e+00 0.0000000e+00 
7.2695929e-01 2.2730408e+00 0.0000000e+00 
7.2695929e-01 7.2695929e-01 0.0000000e+00 
4.1822505e+00 0.0000000e+00 2.5515697e+00 
4.2017918e+00 0.0000000e+00 4.4725966e+00 
4.1114569e+00 0.0000000e+00 6.5092020e+00 
8.6602539e-01 0.0000000e+00 3.5000000e+00 
8.4778279e-01 0.0000000e+00 5.4684029e+00 
8.9629614e-01 0.0000000e+00 7.5867257e+00 
2.5566745e+00 0.0000000e+00 8.1853306e-01 
2.4918270e+00 0.0000000e+00 9.1386929e+00 
8.4677207e-01 0.0000000e+00 1.5042374e+00 
4.0943027e+00 0.0000000e+00 8.4081745e+00 
8.6281651e-01 0.0000000e+00 2.5007062e+00 
1.7315160e+00 0.0000000e+00 3.0001178e+00 
1.7319617e+00 0.0000000e+00 4.0000196e+00 
2.5980761e+00 0.0000000e+00 3.5000000e+00 
2.5536871e+00 0.0000000e+00 4.4963923e+00 
2.5928419e+00 0.0000000e+00 2.4239938e+00 
1.5037409e+00 0.0000000e+00 9.1535149e+00 
1.8433737e+00 0.0000000e+00 8.1858873e+00 
3.0000000e+00 0.0000000e+00 8.2679491e+00 
2.5000000e+00 0.0000000e+00 7.4019237e+00 
3.5042722e+00 0.0000000e+00 7.4271150e+00 
3.0310018e+00 0.0000000e+00 6.5282087e+00 
2.0373929e+00 0.0000000e+00 6.5307913e+00 
3.4767809e+00 0.0000000e+00 5.8031492e+00 
2.5452602e+00 0.0000000e+00 5.5720768e+00 
1.6456656e+00 0.0000000e+00 1.9697139e+00 
8.6297011e-01 0.0000000e+00 4.4947371e+00 
1.0111579e+00 0.0000000e+00 6.5282545e+00 
3.4994321e+00 0.0000000e+00 8.4691072e-01 
4.1860156e+00 0.0000000e+00 3.5040276e+00 
1.7320508e+00 0.0000000e+00 5.0000000e+00 
4.0544066e+00 0.0000000e+00 1.5781221e+00 
1.5817389e+00 0.0000000e+00 9.3943578e-01 
8.3166349e-01 0.0000000e+00 8.5090933e+00 
3.4686174e+00 0.0000000e+00 9.1752682e+00 
3.0709300e+00 0.0000000e+00 1.5799091e+00 
3.3927374e+00 0.0000000e+00 3.0399952e+00 
3.3826034e+00 0.0000000e+00 3.9747651e+00 
4.3420062e+00 0.0000000e+00 7.4688983e+00 
3.4023225e+00 0.0000000e+00 4.9314723e+00 
1.6740381e+00 0.0000000e+00 7.3014426e+00 
4.2715640e+00 0.0000000e+00 5.4758859e+00 
1.6225953e+00 0.0000000e+00 5.8104177e+00 
4.2679491e+00 0.0000000e+00 9.2679491e+00 
7.3205084e-01 0.0000000e+00 7.3205084e-01 
4.2679491e+00 0.0000000e+00 7.3205084e-01 
7.3205084e-01 0.0000000e+00 9.2679491e+00 
3.4586334e+00 0.0000000e+00 2.2347178e+00 
2.2895701e+00 0.0000000e+00 1.5463171e+00 
5.0000000e+00 2.2345026e+00 1.5046000e+00 
[...]
POINT_DATA 460
FIELD FieldData 5
DISPLACEMENT 3 460  float
0.0000000e+00 0.0000000e+00 0.0000000e+00 
0.0000000e+00 0.0000000e+00 0.0000000e+00 
0.0000000e+00 -4.5591910e-06 0.0000000e+00 
0.0000000e+00 -1.0856695e-04 0.0000000e+00 
0.0000000e+00 0.0000000e+00 0.0000000e+00 
0.0000000e+00 0.0000000e+00 0.0000000e+00 
0.0000000e+00 -1.7015006e-08 0.0000000e+00 
0.0000000e+00 3.9370125e-08 0.0000000e+00 
0.0000000e+00 -9.6112235e-06 0.0000000e+00 
0.0000000e+00 -7.7077329e-06 0.0000000e+00 
0.0000000e+00 -4.0628852e-06 0.0000000e+00 
0.0000000e+00 -4.5801262e-06 0.0000000e+00 
0.0000000e+00 -1.7406152e-05 0.0000000e+00 
0.0000000e+00 -5.2417472e-05 0.0000000e+00 
0.0000000e+00 -1.1825913e-04 0.0000000e+00 
0.0000000e+00 -2.1589393e-04 0.0000000e+00 
0.0000000e+00 -3.2844348e-04 0.0000000e+00 
0.0000000e+00 -4.0742772e-04 0.0000000e+00 
0.0000000e+00 -3.8226103e-04 0.0000000e+00 
-1.0178752e-05 -2.6600820e-04 -3.5839269e-06 
-1.1329161e-05 -1.4509137e-04 -1.5261341e-05 
-5.1733500e-06 -6.7853915e-05 -1.7608023e-05 
-4.6663872e-06 -2.7331240e-05 -1.6685352e-05 
-2.9619600e-06 -1.0234718e-05 -1.0497707e-05 
-1.4378287e-06 -4.2101228e-06 -6.4200735e-06 
-1.2274307e-06 -2.0551338e-06 -4.1979156e-06 
-6.7493738e-07 -1.2065641e-06 -2.5585368e-06 
-3.8800513e-07 -6.7089786e-07 -1.5062340e-06 
-1.7035056e-07 -2.4209618e-07 -7.9218040e-07 
-9.7463470e-08 -1.6616838e-08 -4.4659996e-07 
-7.1892522e-08 -1.3599798e-08 -2.7785347e-07 
-1.4826606e-08 -7.0332014e-08 -1.3199053e-07 
5.6756466e-09 -1.0207968e-07 -5.2677084e-08 
1.3389084e-08 -1.6240567e-07 -1.0377925e-08 
1.2410214e-08 -1.2116557e-07 1.9959151e-10 
9.4337107e-09 -2.1534985e-08 1.3428912e-08 
5.2853782e-10 3.6466037e-08 2.1185148e-08 
-5.2448140e-10 1.5989244e-07 -1.8126681e-08 
0.0000000e+00 -6.6769203e-08 0.0000000e+00 
0.0000000e+00 -4.3648737e-07 0.0000000e+00 
0.0000000e+00 -5.2653485e-07 0.0000000e+00 
0.0000000e+00 -3.9707021e-07 0.0000000e+00 
0.0000000e+00 -2.1111546e-07 0.0000000e+00 
0.0000000e+00 -7.3299070e-08 0.0000000e+00 
0.0000000e+00 -1.2535128e-07 0.0000000e+00 
0.0000000e+00 -3.2250975e-07 0.0000000e+00 
0.0000000e+00 -3.3872283e-07 0.0000000e+00 
0.0000000e+00 -3.2886228e-07 0.0000000e+00 
0.0000000e+00 -9.5419218e-06 0.0000000e+00 
0.0000000e+00 -7.6341466e-06 0.0000000e+00 
0.0000000e+00 -3.9850047e-06 0.0000000e+00 
0.0000000e+00 -4.5204638e-06 0.0000000e+00 
0.0000000e+00 -1.7418330e-05 0.0000000e+00 
0.0000000e+00 -5.2592510e-05 0.0000000e+00 
0.0000000e+00 -1.1871996e-04 0.0000000e+00 
0.0000000e+00 -2.1676331e-04 0.0000000e+00 
0.0000000e+00 -3.2977358e-04 0.0000000e+00 
0.0000000e+00 -4.0907323e-04 0.0000000e+00 
0.0000000e+00 -3.8664852e-04 0.0000000e+00 
0.0000000e+00 -2.6909390e-04 0.0000000e+00 
0.0000000e+00 -1.4714658e-04 0.0000000e+00 
0.0000000e+00 -6.8039895e-05 0.0000000e+00 
0.0000000e+00 -2.7227899e-05 0.0000000e+00 
0.0000000e+00 -1.0061960e-05 0.0000000e+00 
0.0000000e+00 -4.1082480e-06 0.0000000e+00 
0.0000000e+00 -2.0061434e-06 0.0000000e+00 
0.0000000e+00 -1.1782126e-06 0.0000000e+00 
0.0000000e+00 -6.6524694e-07 0.0000000e+00 
0.0000000e+00 -2.3870467e-07 0.0000000e+00 
0.0000000e+00 -1.3409713e-08 0.0000000e+00 
0.0000000e+00 -1.4209729e-08 0.0000000e+00 
0.0000000e+00 -7.3973652e-08 0.0000000e+00 
0.0000000e+00 -1.0496930e-07 0.0000000e+00 
0.0000000e+00 -1.6780693e-07 0.0000000e+00 
0.0000000e+00 -1.2507481e-07 0.0000000e+00 
0.0000000e+00 -2.3185361e-08 0.0000000e+00 
0.0000000e+00 3.4337628e-08 0.0000000e+00 
0.0000000e+00 1.6549112e-07 0.0000000e+00 
0.0000000e+00 -7.0215812e-08 0.0000000e+00 
0.0000000e+00 -4.3831926e-07 0.0000000e+00 
0.0000000e+00 -5.2878892e-07 0.0000000e+00 
0.0000000e+00 -3.9888198e-07 0.0000000e+00 
0.0000000e+00 -2.1217876e-07 0.0000000e+00 
0.0000000e+00 -7.3720443e-08 0.0000000e+00 
0.0000000e+00 -1.2594609e-07 0.0000000e+00 
0.0000000e+00 -3.2380746e-07 0.0000000e+00 
0.0000000e+00 -3.3999288e-07 0.0000000e+00 
0.0000000e+00 -3.3005043e-07 0.0000000e+00 
0.0000000e+00 0.0000000e+00 0.0000000e+00 
0.0000000e+00 0.0000000e+00 0.0000000e+00 
0.0000000e+00 0.0000000e+00 0.0000000e+00 
0.0000000e+00 0.0000000e+00 0.0000000e+00 
0.0000000e+00 0.0000000e+00 0.0000000e+00 
0.0000000e+00 0.0000000e+00 0.0000000e+00 
0.0000000e+00 0.0000000e+00 0.0000000e+00 
0.0000000e+00 0.0000000e+00 0.0000000e+00 
0.0000000e+00 0.0000000e+00 0.0000000e+00 
0.0000000e+00 0.0000000e+00 0.0000000e+00 
0.0000000e+00 0.0000000e+00 0.0000000e+00 
0.0000000e+00 0.0000000e+00 0.0000000e+00 
0.0000000e+00 0.0000000e+00 0.0000000e+00 
0.0000000e+00 0.0000000e+00 0.0000000e+00 
0.0000000e+00 0.0000000e+00 0.0000000e+00 
0.0000000e+00 0.0000000e+00 0.0000000e+00 
0.0000000e+00 0.0000000e+00 0.0000000e+00 
0.0000000e+00 0.0000000e+00 0.0000000e+00 
0.0000000e+00 0.0000000e+00 0.0000000e+00 
0.0000000e+00 0.0000000e+00 0.0000000e+00 
0.0000000e+00 0.0000000e+00 0.0000000e+00 
0.0000000e+00 0.0000000e+00 0.0000000e+00 
0.0000000e+00 0.0000000e+00 0.0000000e+00 
0.0000000e+00 -2.3287835e-06 0.0000000e+00 
0.0000000e+00 -4.2111942e-06 0.0000000e+00 
0.0000000e+00 -9.4131174e-05 0.0000000e+00 
0.0000000e+00 -4.6439542e-05 0.0000000e+00 
0.0000000e+00 0.0000000e+00 0.0000000e+00 
0.0000000e+00 0.0000000e+00 0.0000000e+00 
0.0000000e+00 0.0000000e+00 0.0000000e+00 
0.0000000e+00 0.0000000e+00 0.0000000e+00 
0.0000000e+00 0.0000000e+00 0.0000000e+00 
0.0000000e+00 0.0000000e+00 0.0000000e+00 
0.0000000e+00 0.0000000e+00 0.0000000e+00 
0.0000000e+00 0.0000000e+00 0.0000000e+00 
0.0000000e+00 0.0000000e+00 0.0000000e+00 
0.0000000e+00 0.0000000e+00 0.0000000e+00 
0.0000000e+00 0.0000000e+00 0.0000000e+00 
0.0000000e+00 0.0000000e+00 0.0000000e+00 
0.0000000e+00 0.0000000e+00 0.0000000e+00 
0.0000000e+00 0.0000000e+00 0.0000000e+00 
0.0000000e+00 0.0000000e+00 0.0000000e+00 
0.0000000e+00 0.0000000e+00 0.0000000e+00 
0.0000000e+00 0.0000000e+00 0.0000000e+00 
0.0000000e+00 0.0000000e+00 0.0000000e+00 
0.0000000e+00 0.0000000e+00 0.0000000e+00 
0.0000000e+00 0.0000000e+00 0.0000000e+00 
0.0000000e+00 0.0000000e+00 0.0000000e+00 
0.0000000e+00 0.0000000e+00 0.0000000e+00 
0.0000000e+00 -3.5112441e-06 0.0000000e+00 
0.0000000e+00 -1.2132664e-06 0.0000000e+00 
0.0000000e+00 -7.3398473e-07 0.0000000e+00 
0.0000000e+00 1.9938398e-07 0.0000000e+00 
0.0000000e+00 2.2963638e-07 0.0000000e+00 
0.0000000e+00 2.1466241e-07 0.0000000e+00 
0.0000000e+00 9.0256904e-08 0.0000000e+00 
0.0000000e+00 2.8455480e-08 0.0000000e+00 
0.0000000e+00 -5.8714464e-09 0.0000000e+00 
0.0000000e+00 -8.0507352e-09 0.0000000e+00 
0.0000000e+00 -1.4743256e-08 0.0000000e+00 
0.0000000e+00 -8.7301734e-05 0.0000000e+00 
0.0000000e+00 -3.1334846e-05 0.0000000e+00 
0.0000000e+00 -9.2378377e-06 0.0000000e+00 
0.0000000e+00 -2.4920530e-06 0.0000000e+00 
0.0000000e+00 -6.1419979e-07 0.0000000e+00 
0.0000000e+00 -8.0909288e-08 0.0000000e+00 
0.0000000e+00 -1.4428659e-08 0.0000000e+00 
0.0000000e+00 2.9326284e-09 0.0000000e+00 
0.0000000e+00 5.3014592e-08 0.0000000e+00 
0.0000000e+00 2.1910628e-08 0.0000000e+00 
0.0000000e+00 5.9257226e-09 0.0000000e+00 
0.0000000e+00 -8.4028006e-06 0.0000000e+00 
0.0000000e+00 -2.1834257e-05 0.0000000e+00 
0.0000000e+00 -5.4224587e-05 0.0000000e+00 
0.0000000e+00 -1.4324937e-08 0.0000000e+00 
0.0000000e+00 -7.1729875e-09 0.0000000e+00 
0.0000000e+00 1.1169762e-08 0.0000000e+00 
0.0000000e+00 -5.5429550e-06 0.0000000e+00 
0.0000000e+00 -2.7438868e-05 0.0000000e+00 
0.0000000e+00 -3.4704255e-05 0.0000000e+00 
0.0000000e+00 -1.0492359e-04 0.0000000e+00 
0.0000000e+00 -1.6838820e-05 0.0000000e+00 
0.0000000e+00 -1.3790008e-05 0.0000000e+00 
0.0000000e+00 -4.6718419e-06 0.0000000e+00 
0.0000000e+00 -8.0448786e-05 0.0000000e+00 
0.0000000e+00 -4.5420224e-05 0.0000000e+00 
0.0000000e+00 -1.7299981e-05 0.0000000e+00 
0.0000000e+00 -2.8182392e-06 0.0000000e+00 
0.0000000e+00 -6.4633441e-06 0.0000000e+00 
0.0000000e+00 -1.5644719e-04 0.0000000e+00 
0.0000000e+00 -3.6739890e-05 0.0000000e+00 
0.0000000e+00 0.0000000e+00 0.0000000e+00 
0.0000000e+00 0.0000000e+00 0.0000000e+00 
0.0000000e+00 0.0000000e+00 0.0000000e+00 
0.0000000e+00 0.0000000e+00 0.0000000e+00 
0.0000000e+00 0.0000000e+00 0.0000000e+00 
0.0000000e+00 0.0000000e+00 0.0000000e+00 
0.0000000e+00 0.0000000e+00 0.0000000e+00 
0.0000000e+00 0.0000000e+00 0.0000000e+00 
0.0000000e+00 0.0000000e+00 0.0000000e+00 
0.0000000e+00 0.0000000e+00 0.0000000e+00 
0.0000000e+00 0.0000000e+00 0.0000000e+00 
0.0000000e+00 0.0000000e+00 0.0000000e+00 
0.0000000e+00 0.0000000e+00 0.0000000e+00 
0.0000000e+00 0.0000000e+00 0.0000000e+00 
0.0000000e+00 0.0000000e+00 0.0000000e+00 
0.0000000e+00 0.0000000e+00 0.0000000e+00 
0.0000000e+00 0.0000000e+00 0.0000000e+00 
0.0000000e+00 0.0000000e+00 0.0000000e+00 
0.0000000e+00 0.0000000e+00 0.0000000e+00 
0.0000000e+00 0.0000000e+00 0.0000000e+00 
0.0000000e+00 0.0000000e+00 0.0000000e+00 
0.0000000e+00 0.0000000e+00 0.0000000e+00 
0.0000000e+00 0.0000000e+00 0.0000000e+00 
0.0000000e+00 0.0000000e+00 0.0000000e+00 
0.0000000e+00 0.0000000e+00 0.0000000e+00 
0.0000000e+00 0.0000000e+00 0.0000000e+00 
0.0000000e+00 0.0000000e+00 0.0000000e+00 
0.0000000e+00 0.0000000e+00 0.0000000e+00 
0.0000000e+00 0.0000000e+00 0.0000000e+00 
0.0000000e+00 0.0000000e+00 0.0000000e+00 
0.0000000e+00 0.0000000e+00 0.0000000e+00 
0.0000000e+00 0.0000000e+00 0.0000000e+00 
0.0000000e+00 0.0000000e+00 0.0000000e+00 
0.0000000e+00 0.0000000e+00 0.0000000e+00 
0.0000000e+00 0.0000000e+00 0.0000000e+00 
0.0000000e+00 0.0000000e+00 0.0000000e+00 
0.0000000e+00 0.0000000e+00 0.0000000e+00 
0.0000000e+00 0.0000000e+00 0.0000000e+00 
0.0000000e+00 0.0000000e+00 0.0000000e+00 
0.0000000e+00 0.0000000e+00 0.0000000e+00 
0.0000000e+00 0.0000000e+00 0.0000000e+00 
0.0000000e+00 0.0000000e+00 0.0000000e+00 
0.0000000e+00 0.0000000e+00 0.0000000e+00 
0.0000000e+00 0.0000000e+00 0.0000000e+00 
0.0000000e+00 0.0000000e+00 0.0000000e+00 
0.0000000e+00 0.0000000e+00 0.0000000e+00 
0.0000000e+00 0.0000000e+00 0.0000000e+00 
0.0000000e+00 0.0000000e+00 0.0000000e+00 
0.0000000e+00 0.0000000e+00 0.0000000e+00 
0.0000000e+00 -1.5164412e-06 0.0000000e+00 
0.0000000e+00 -6.2200218e-09 0.0000000e+00 
0.0000000e+00 1.2496392e-07 0.0000000e+00 
0.0000000e+00 2.7462593e-07 0.0000000e+00 
0.0000000e+00 5.0815903e-08 0.0000000e+00 
0.0000000e+00 -7.3884297e-07 0.0000000e+00 
0.0000000e+00 5.6602513e-08 0.0000000e+00 
0.0000000e+00 6.5413687e-08 0.0000000e+00 
0.0000000e+00 -1.1817787e-07 0.0000000e+00 
0.0000000e+00 9.6422951e-08 0.0000000e+00 
0.0000000e+00 -8.5670223e-07 0.0000000e+00 
0.0000000e+00 2.6044378e-07 0.0000000e+00 
0.0000000e+00 1.3457441e-07 0.0000000e+00 
0.0000000e+00 2.9022964e-08 0.0000000e+00 
0.0000000e+00 -1.4054074e-06 0.0000000e+00 
0.0000000e+00 4.5631725e-09 0.0000000e+00 
0.0000000e+00 7.2121815e-09 0.0000000e+00 
0.0000000e+00 -2.2693896e-06 0.0000000e+00 
0.0000000e+00 2.4213017e-07 0.0000000e+00 
0.0000000e+00 7.4459514e-08 0.0000000e+00 
0.0000000e+00 -1.2360431e-06 0.0000000e+00 
0.0000000e+00 1.5534130e-07 0.0000000e+00 
0.0000000e+00 1.2975826e-07 0.0000000e+00 
0.0000000e+00 -3.4279068e-07 0.0000000e+00 
0.0000000e+00 2.1114971e-08 0.0000000e+00 
0.0000000e+00 -1.4293318e-08 0.0000000e+00 
0.0000000e+00 -5.7044973e-09 0.0000000e+00 
0.0000000e+00 -2.9639473e-06 0.0000000e+00 
0.0000000e+00 -1.2772825e-06 0.0000000e+00 
0.0000000e+00 2.2573406e-08 0.0000000e+00 
0.0000000e+00 -5.4207401e-05 0.0000000e+00 
0.0000000e+00 -8.8780744e-06 0.0000000e+00 
0.0000000e+00 -5.4259584e-07 0.0000000e+00 
0.0000000e+00 7.5405087e-09 0.0000000e+00 
0.0000000e+00 -4.4688950e-06 0.0000000e+00 
0.0000000e+00 -2.1624849e-07 0.0000000e+00 
0.0000000e+00 1.0558135e-08 0.0000000e+00 
0.0000000e+00 -2.6502132e-06 0.0000000e+00 
0.0000000e+00 -1.6482221e-05 0.0000000e+00 
0.0000000e+00 -1.2193797e-06 0.0000000e+00 
0.0000000e+00 -8.0943048e-09 0.0000000e+00 
0.0000000e+00 -3.8349551e-08 0.0000000e+00 
0.0000000e+00 3.4878877e-08 0.0000000e+00 
0.0000000e+00 -4.8753438e-05 0.0000000e+00 
0.0000000e+00 -1.7043269e-05 0.0000000e+00 
0.0000000e+00 8.2592013e-09 0.0000000e+00 
0.0000000e+00 -4.2370277e-07 0.0000000e+00 
0.0000000e+00 3.0842511e-09 0.0000000e+00 
0.0000000e+00 -2.1793610e-06 0.0000000e+00 
0.0000000e+00 -7.4336403e-06 0.0000000e+00 
0.0000000e+00 1.7984698e-08 0.0000000e+00 
0.0000000e+00 -9.5141175e-08 0.0000000e+00 
0.0000000e+00 1.5064726e-08 0.0000000e+00 
0.0000000e+00 -2.2887989e-05 0.0000000e+00 
0.0000000e+00 8.8211403e-09 0.0000000e+00 
0.0000000e+00 -9.2112678e-05 0.0000000e+00 
0.0000000e+00 -2.5847097e-05 0.0000000e+00 
0.0000000e+00 3.9780005e-08 0.0000000e+00 
0.0000000e+00 3.0018166e-10 0.0000000e+00 
0.0000000e+00 -1.0436180e-08 0.0000000e+00 
0.0000000e+00 -7.7267632e-09 0.0000000e+00 
0.0000000e+00 5.1835407e-09 0.0000000e+00 
0.0000000e+00 -1.3616517e-09 0.0000000e+00 
0.0000000e+00 -1.7185855e-08 0.0000000e+00 
0.0000000e+00 -6.8769808e-09 0.0000000e+00 
0.0000000e+00 3.0890714e-09 0.0000000e+00 
0.0000000e+00 -6.8703927e-09 0.0000000e+00 
0.0000000e+00 -1.4102765e-08 0.0000000e+00 
0.0000000e+00 -7.6610167e-09 0.0000000e+00 
0.0000000e+00 -1.9989292e-08 0.0000000e+00 
0.0000000e+00 1.2224338e-08 0.0000000e+00 
0.0000000e+00 2.3943232e-09 0.0000000e+00 
-4.0173458e-07 -3.1061097e-07 -1.4729748e-06 
-7.4157768e-08 6.0716779e-08 -2.8620244e-07 
-1.4454766e-09 -2.3566521e-08 1.1834682e-08 
-4.9601531e-06 -2.0280717e-05 -1.1726992e-05 
-2.0699379e-06 -3.6153226e-06 -5.4704296e-06 
-1.4333990e-07 2.2871428e-07 -2.1173346e-07 
-1.2294500e-06 -1.1984014e-06 -1.2958872e-06 
-2.3407738e-08 7.1538139e-08 -2.6648070e-10 
-8.1035632e-06 -7.1561080e-05 -1.5972255e-05 
-3.0809915e-09 7.2530725e-08 2.2411047e-08 
-6.7680062e-06 -1.1290239e-05 -3.2566909e-06 
3.9908166e-09 -7.5643483e-09 1.4298926e-08 
-3.7133091e-08 1.6934767e-07 -1.9407807e-08 
-6.0050361e-08 1.4122801e-07 -6.2779570e-08 
-1.9464633e-08 5.2377700e-08 7.6207636e-09 
-3.4853780e-08 9.7334876e-08 -1.9832189e-08 
-8.8752856e-08 1.5977609e-07 -1.3201011e-07 
-1.0229022e-10 2.5681166e-08 1.5189904e-08 
-5.5137996e-08 1.0385881e-07 -6.3327683e-08 
-1.3605025e-07 2.2291893e-07 -1.9927380e-07 
-2.8065588e-07 2.5920687e-07 -4.3204986e-07 
-2.6336414e-07 1.7557514e-07 -5.0617103e-07 
-4.9705460e-07 1.7027685e-07 -1.0618805e-06 
-6.6192240e-07 2.6500911e-07 -1.1247276e-06 
-1.0295280e-06 -4.5056564e-07 -2.2672673e-06 
-1.1108989e-06 -6.9955468e-07 -1.6659097e-06 
-2.1575308e-06 -2.3943912e-06 -3.9497472e-06 
-2.5107151e-06 -3.1323457e-06 -3.5705768e-06 
-3.1020516e-06 -6.5588679e-06 -5.3010203e-06 
-4.0723125e-06 -6.6022512e-06 -4.5959951e-06 
-7.6526730e-06 -1.6300519e-05 -7.6819415e-06 
-2.4909414e-07 1.6449852e-07 -6.7151097e-07 
-1.6881287e-07 1.6576543e-07 -3.7193846e-07 
-1.4814506e-06 -1.8720336e-06 -3.4079947e-06 
-7.3061483e-07 -2.5530517e-07 -1.0261349e-06 
1.9315867e-09 7.3670531e-10 1.8892527e-08 
-6.4973506e-07 -3.1865522e-07 -1.7643046e-06 
-2.8915096e-07 3.2158943e-07 -4.5079230e-07 
-8.9557407e-06 -3.0605450e-05 -5.8042360e-06 
3.5653944e-09 1.0554125e-08 1.8644059e-08 
-1.5745023e-08 2.8736098e-08 8.0544806e-09 
4.4533785e-10 1.4359289e-08 3.1551100e-08 
-1.4206377e-07 8.5466603e-08 -5.4377927e-07 
-2.3449668e-06 -3.0507956e-06 -1.3708288e-06 
-3.0781637e-06 -8.4186640e-06 -8.6077416e-06 
-2.7647727e-06 -4.6762161e-06 -5.7592833e-06 
-1.2714323e-06 -2.0250443e-06 -3.7396831e-06 
-7.2630041e-07 -7.8064591e-07 -2.0997929e-06 
-3.9135404e-08 6.9436638e-08 -1.2280657e-07 
-3.1270929e-08 1.6928253e-08 -1.2680886e-08 
-1.3607297e-05 -1.2937048e-04 -8.6418868e-06 
-8.4555068e-06 -4.1878331e-05 -1.6061893e-05 
-3.2011589e-09 6.8819745e-08 1.3700051e-08 
-6.9190437e-06 -1.2789838e-05 -5.5765663e-06 
-4.0630985e-06 -1.2540282e-05 -8.6811742e-06 
3.8806185e-09 1.8130069e-09 3.4225668e-08 
-8.9910465e-08 1.6314081e-07 -1.5322678e-07 
-1.1291200e-05 -3.5887973e-05 -1.4135069e-05 
-2.5608864e-07 -9.4743207e-08 -9.7075758e-07 
-8.5568153e-10 7.4717521e-09 2.7350474e-08 
6.9316006e-09 -1.3304517e-08 1.6007824e-08 
-2.4963649e-06 -4.9536284e-06 -9.4956096e-07 
-6.7821514e-07 -1.2197459e-07 -1.1403770e-06 
-7.6870483e-06 -2.4573927e-05 -1.2904994e-05 
8.2893514e-09 1.8244799e-08 1.9409132e-08 
-1.3292619e-07 2.2215971e-07 -2.3594610e-07 
-3.8043631e-06 -4.2872971e-06 -3.0968165e-06 
-1.8678788e-06 -1.4539715e-06 -2.3102452e-06 
-9.1096963e-06 -6.4275875e-05 -1.2885774e-05 
-4.2521870e-07 -1.3466023e-07 -1.2027741e-06 
-1.5055314e-09 1.9298026e-08 1.4466092e-08 
-1.3858331e-06 -2.4928511e-05 -9.8677110e-06 
-3.3323072e-06 -4.8627360e-05 -1.4095096e-05 
-5.7310103e-07 -1.3032103e-05 -7.4722043e-06 
-5.2053213e-07 -5.6408126e-06 -4.8451379e-06 
-6.3644125e-06 -9.2042035e-05 -1.1864820e-05 
-6.0727416e-07 -3.1518055e-06 -2.3439336e-06 
-1.3006681e-07 -1.4680400e-06 -1.1342553e-06 
-1.3889931e-07 -6.2888267e-07 -6.3458583e-07 
-3.0973492e-08 -3.0771861e-07 -3.4158998e-07 
-6.0694404e-08 -1.1769550e-07 -2.2870886e-07 
-1.9112475e-08 -3.4571592e-08 -1.5030783e-07 
-7.7366753e-09 -2.5633522e-08 -7.9610508e-08 
1.3820145e-09 -2.5346267e-08 -2.8383768e-08 
-2.5182684e-10 -2.4496519e-08 -3.1516370e-09 
7.9712166e-09 1.2345282e-08 4.2270923e-10 
1.5141529e-08 7.4987554e-08 3.8642880e-09 
6.9488686e-09 8.2164362e-08 2.3008107e-09 
-1.8386943e-06 -1.4401018e-04 -9.2971050e-06 
4.0056452e-06 -1.8933180e-05 9.1329457e-06 
8.1656964e-07 -2.7568453e-06 2.7664028e-06 
3.1483896e-08 8.1166540e-09 3.0627933e-07 
3.0474245e-09 7.7453123e-08 6.1365748e-09 
1.6779683e-10 2.3153092e-08 -1.0663737e-08 
1.8806915e-06 -2.5874990e-06 2.4431229e-06 
3.0091371e-07 -2.0838293e-08 6.8874624e-07 
-4.3208179e-09 1.7466361e-07 2.2027224e-08 
-4.4331173e-08 -5.5710814e-07 4.2097662e-07 
1.5336187e-07 -9.2547425e-06 2.5899337e-06 
4.8666070e-06 -6.2791973e-05 1.3204252e-05 
-9.2643644e-09 4.7505981e-08 -3.0059894e-08 
4.2219317e-06 -1.2501290e-05 3.3055530e-06 
-1.1650438e-09 6.4191028e-08 -1.7100981e-09 
-3.2028993e-09 2.0715882e-09 -1.1561454e-09 
-2.2785285e-07 -2.6964672e-06 2.0012303e-07 
-4.4129273e-08 -5.9611139e-08 2.4934786e-07 
1.2966544e-06 -6.2664935e-06 2.4456631e-06 
-3.3517964e-08 -6.6533772e-08 -8.9695689e-08 
2.6726320e-07 -4.8557780e-07 1.0823554e-06 
1.1127541e-06 -2.6695339e-05 3.8796538e-06 
8.0879275e-08 2.1216702e-07 1.4966504e-07 
1.1153218e-11 5.2113350e-08 8.4200522e-09 
1.9322631e-06 -2.9915689e-06 1.1872014e-06 
-7.8449709e-09 1.4518431e-09 -1.1518964e-08 
1.0942306e-06 -5.5457358e-06 4.6012833e-06 
1.7627396e-07 1.9827739e-08 4.6561323e-07 
3.5395892e-06 -6.7164456e-06 4.5629486e-06 
1.2740387e-06 -1.9288218e-06 2.3579971e-06 
3.0235745e-07 -1.2431925e-06 6.1885282e-07 
-1.6200138e-08 1.1923886e-07 -2.1797025e-08 
-3.5133599e-08 1.6126519e-07 -6.2984562e-08 
-2.3840425e-09 2.9179381e-08 -3.8894438e-08 
-7.3890988e-08 2.4243701e-07 -1.3089610e-07 
-5.9074039e-09 6.2581869e-09 -1.3838279e-08 
-2.3625497e-09 5.3854340e-08 -2.9155698e-08 
5.1519328e-06 -1.5251325e-05 5.2094429e-06 
4.1322576e-07 -3.6386555e-07 4.1390967e-07 
3.9008528e-06 -2.7356531e-05 8.7462131e-06 
-4.4533701e-09 2.3452614e-08 1.0592761e-07 
1.3610605e-07 -1.0761268e-06 1.5247924e-06 
-4.8528568e-09 4.4638671e-09 -8.8390739e-10 
2.5375662e-09 1.6846743e-08 -4.7684026e-09 
-3.5593379e-07 -1.1874223e-06 -4.3595492e-07 
4.0497098e-06 -2.7109370e-05 4.9715677e-06 
-7.3440042e-08 3.4470358e-07 -1.0136186e-07 
8.3218919e-07 -8.0980641e-07 8.4167857e-07 
-1.4816279e-09 3.3683474e-08 -1.6184584e-08 
9.9995987e-07 -7.4151417e-06 9.7913721e-07 
4.2054825e-08 -2.3170573e-07 5.2066770e-07 
4.5366849e-07 -1.8914271e-06 1.9057862e-07 
-2.3746800e-09 3.9827036e-08 -1.6854937e-08 
1.2746443e-10 1.9923140e-08 8.4972376e-09 
-3.7271040e-08 1.8788270e-07 -1.2223082e-07 
-1.0929782e-08 -8.1692519e-09 9.4529753e-08 
1.2275709e-08 8.0085130e-08 1.2426676e-07 
-1.7217827e-10 1.3259093e-08 -8.2276461e-09 
1.1665655e-06 -6.2102872e-06 4.0675485e-07 
5.2120903e-09 3.0054494e-07 -7.1525861e-08 
2.5858191e-07 -4.9468145e-08 3.6258538e-07 
-4.4111829e-08 2.6246647e-07 -3.4905028e-08 
1.6408672e-08 1.0543254e-07 1.2788484e-08 
2.3322204e-07 -1.5313200e-05 1.1830506e-06 