# vtk DataFile Version 4.0
vtk output
ASCII
DATASET UNSTRUCTURED_GRID
POINTS 460 float
0.0000000e+00 0.0000000e+00 0.0000000e+00 
5.0000000e+00 0.0000000e+00 0.0000000e+00 
5.0000000e+00 3.0000000e+00 0.0000000e+00 
0.0000000e+00 3.0000000e+00 0.0000000e+00 
0.0000000e+00 0.0000000e+00 1.0000000e+01 
5.0000000e+00 0.0000000e+00 1.0000000e+01 
5.0000000e+00 3.0000000e+00 1.0000000e+01 
0.0000000e+00 3.0000000e+00 1.0000000e+01 
1.0000000e+00 3.0000000e+00 -5.0000000e+00 
1.0000000e+00 3.0000000e+00 -4.5000000e+00 
1.0000000e+00 3.0000000e+00 -4.0000000e+00 
1.0000000e+00 3.0000000e+00 -3.5000000e+00 
1.0000000e+00 3.0000000e+00 -3.0000000e+00 
1.0000000e+00 3.0000000e+00 -2.5000000e+00 
1.0000000e+00 3.0000000e+00 -2.0000000e+00 
1.0000000e+00 3.0000000e+00 -1.5000000e+00 
1.0000000e+00 3.0000000e+00 -1.0000000e+00 
1.0000000e+00 3.0000000e+00 -5.0000000e-01 
1.0000000e+00 3.0000000e+00 0.0000000e+00 
1.0000000e+00 3.0000000e+00 5.0000000e-01 
1.0000000e+00 3.0000000e+00 1.0000000e+00 
1.0000000e+00 3.0000000e+00 1.5000000e+00 
1.0000000e+00 3.0000000e+00 2.0000000e+00 
1.0000000e+00 3.0000000e+00 2.5000000e+00 
1.0000000e+00 3.0000000e+00 3.0000000e+00 
1.0000000e+00 3.0000000e+00 3.5000000e+00 
1.0000000e+00 3.0000000e+00 4.0000000e+00 
1.0000000e+00 3.0000000e+00 4.5000000e+00 
1.0000000e+00 3.0000000e+00 5.0000000e+00 
1.0000000e+00 3.0000000e+00 5.5000000e+00 
1.0000000e+00 3.0000000e+00 6.0000000e+00 
1.0000000e+00 3.0000000e+00 6.5000000e+00 
1.0000000e+00 3.0000000e+00 7.0000000e+00 
1.0000000e+00 3.0000000e+00 7.5000000e+00 
1.0000000e+00 3.0000000e+00 8.0000000e+00 
1.0000000e+00 3.0000000e+00 8.5000000e+00 
1.0000000e+00 3.0000000e+00 9.0000000e+00 
1.0000000e+00 3.0000000e+00 9.5000000e+00 
1.0000000e+00 3.0000000e+00 1.0000000e+01 
1.0000000e+00 3.0000000e+00 1.0500000e+01 
1.0000000e+00 3.0000000e+00 1.1000000e+01 
1.0000000e+00 3.0000000e+00 1.1500000e+01 
1.0000000e+00 3.0000000e+00 1.2000000e+01 
1.0000000e+00 3.0000000e+00 1.2500000e+01 
1.0000000e+00 3.0000000e+00 1.3000000e+01 
1.0000000e+00 3.0000000e+00 1.3500000e+01 
1.0000000e+00 3.0000000e+00 1.4000000e+01 
1.0000000e+00 3.0000000e+00 1.4500000e+01 
1.0000000e+00 3.0250001e+00 -5.0000000e+00 
1.0000000e+00 3.0250001e+00 -4.5000000e+00 
1.0000000e+00 3.0250001e+00 -4.0000000e+00 
1.0000000e+00 3.0250001e+00 -3.5000000e+00 
1.0000000e+00 3.0250001e+00 -3.0000000e+00 
1.0000000e+00 3.0250001e+00 -2.5000000e+00 
1.0000000e+00 3.0250001e+00 -2.0000000e+00 
1.0000000e+00 3.0250001e+00 -1.5000000e+00 
1.0000000e+00 3.0250001e+00 -1.0000000e+00 
1.0000000e+00 3.0250001e+00 -5.0000000e-01 
1.0000000e+00 3.0250001e+00 0.0000000e+00 
1.0000000e+00 3.0250001e+00 5.0000000e-01 
1.0000000e+00 3.0250001e+00 1.0000000e+00 
1.0000000e+00 3.0250001e+00 1.5000000e+00 
1.0000000e+00 3.0250001e+00 2.0000000e+00 
1.0000000e+00 3.0250001e+00 2.5000000e+00 
1.0000000e+00 3.0250001e+00 3.0000000e+00 
1.0000000e+00 3.0250001e+00 3.5000000e+00 
1.0000000e+00 3.0250001e+00 4.0000000e+00 
1.0000000e+00 3.0250001e+00 4.5000000e+00 
1.0000000e+00 3.0250001e+00 5.0000000e+00 
1.0000000e+00 3.0250001e+00 5.5000000e+00 
1.0000000e+00 3.0250001e+00 6.0000000e+00 
1.0000000e+00 3.0250001e+00 6.5000000e+00 
1.0000000e+00 3.0250001e+00 7.0000000e+00 
1.0000000e+00 3.0250001e+00 7.5000000e+00 
1.0000000e+00 3.0250001e+00 8.0000000e+00 
1.0000000e+00 3.0250001e+00 8.5000000e+00 
1.0000000e+00 3.0250001e+00 9.0000000e+00 
1.0000000e+00 3.0250001e+00 9.5000000e+00 
1.0000000e+00 3.0250001e+00 1.0000000e+01 
1.0000000e+00 3.0250001e+00 1.0500000e+01 
1.0000000e+00 3.0250001e+00 1.1000000e+01 
1.0000000e+00 3.0250001e+00 1.1500000e+01 
1.0000000e+00 3.0250001e+00 1.2000000e+01 
1.0000000e+00 3.0250001e+00 1.2500000e+01 
1.0000000e+00 3.0250001e+00 1.3000000e+01 
1.0000000e+00 3.0250001e+00 1.3500000e+01 
1.0000000e+00 3.0250001e+00 1.4000000e+01 
1.0000000e+00 3.0250001e+00 1.4500000e+01 
1.0000000e+00 -2.0000000e+00 -5.0000000e+00 
1.0000000e+00 -2.0000000e+00 -4.5000000e+00 
1.0000000e+00 -2.0000000e+00 -4.0000000e+00 
1.0000000e+00 -2.0000000e+00 -3.5000000e+00 
1.0000000e+00 -2.0000000e+00 -3.0000000e+00 
1.0000000e+00 -2.0000000e+00 -2.5000000e+00 
1.0000000e+00 -2.0000000e+00 -2.0000000e+00 
1.0000000e+00 -2.0000000e+00 -1.5000000e+00 
1.0000000e+00 -2.0000000e+00 -1.0000000e+00 
1.0000000e+00 -2.0000000e+00 -5.0000000e-01 
1.0000000e+00 -2.0000000e+00 1.0500000e+01 
1.0000000e+00 -2.0000000e+00 1.1000000e+01 
1.0000000e+00 -2.0000000e+00 1.1500000e+01 
1.0000000e+00 -2.0000000e+00 1.2000000e+01 
1.0000000e+00 -2.0000000e+00 1.2500000e+01 
1.0000000e+00 -2.0000000e+00 1.3000000e+01 
1.0000000e+00 -2.0000000e+00 1.3500000e+01 
1.0000000e+00 -2.0000000e+00 1.4000000e+01 
1.0000000e+00 -2.0000000e+00 1.4500000e+01 
1.0000000e+00 0.0000000e+00 0.0000000e+00 
2.0000000e+00 0.0000000e+00 0.0000000e+00 
3.0000000e+00 0.0000000e+00 0.0000000e+00 
4.0000000e+00 0.0000000e+00 0.0000000e+00 
5.0000000e+00 1.0000000e+00 0.0000000e+00 
5.0000000e+00 2.0000000e+00 0.0000000e+00 
0.0000000e+00 2.0000000e+00 0.0000000e+00 
0.0000000e+00 1.0000000e+00 0.0000000e+00 
0.0000000e+00 0.0000000e+00 1.0000000e+00 
0.0000000e+00 0.0000000e+00 2.0000000e+00 
0.0000000e+00 0.0000000e+00 3.0000000e+00 
0.0000000e+00 0.0000000e+00 4.0000000e+00 
0.0000000e+00 0.0000000e+00 5.0000000e+00 
0.0000000e+00 0.0000000e+00 6.0000000e+00 
0.0000000e+00 0.0000000e+00 7.0000000e+00 
0.0000000e+00 0.0000000e+00 8.0000000e+00 
0.0000000e+00 0.0000000e+00 9.0000000e+00 
5.0000000e+00 0.0000000e+00 1.0000000e+00 
5.0000000e+00 0.0000000e+00 2.0000000e+00 
5.0000000e+00 0.0000000e+00 3.0000000e+00 
5.0000000e+00 0.0000000e+00 4.0000000e+00 
5.0000000e+00 0.0000000e+00 5.0000000e+00 
5.0000000e+00 0.0000000e+00 6.0000000e+00 
5.0000000e+00 0.0000000e+00 7.0000000e+00 
5.0000000e+00 0.0000000e+00 8.0000000e+00 
5.0000000e+00 0.0000000e+00 9.0000000e+00 
1.0000000e+00 0.0000000e+00 1.0000000e+01 
2.0000000e+00 0.0000000e+00 1.0000000e+01 
3.0000000e+00 0.0000000e+00 1.0000000e+01 
4.0000000e+00 0.0000000e+00 1.0000000e+01 
5.0000000e+00 3.0000000e+00 1.0000000e+00 
5.0000000e+00 3.0000000e+00 2.0000000e+00 
5.0000000e+00 3.0000000e+00 3.0000000e+00 
5.0000000e+00 3.0000000e+00 4.0000000e+00 
5.0000000e+00 3.0000000e+00 5.0000000e+00 
5.0000000e+00 3.0000000e+00 6.0000000e+00 
5.0000000e+00 3.0000000e+00 7.0000000e+00 
5.0000000e+00 3.0000000e+00 8.0000000e+00 
5.0000000e+00 3.0000000e+00 9.0000000e+00 
5.0000000e+00 1.0000000e+00 1.0000000e+01 
5.0000000e+00 2.0000000e+00 1.0000000e+01 
0.0000000e+00 3.0000000e+00 1.0000000e+00 
0.0000000e+00 3.0000000e+00 2.0000000e+00 
0.0000000e+00 3.0000000e+00 3.0000000e+00 
0.0000000e+00 3.0000000e+00 4.0000000e+00 
0.0000000e+00 3.0000000e+00 5.0000000e+00 
0.0000000e+00 3.0000000e+00 6.0000000e+00 
0.0000000e+00 3.0000000e+00 7.0000000e+00 
0.0000000e+00 3.0000000e+00 8.0000000e+00 
0.0000000e+00 3.0000000e+00 9.0000000e+00 
0.0000000e+00 2.0000000e+00 1.0000000e+01 
0.0000000e+00 1.0000000e+00 1.0000000e+01 
4.0000000e+00 3.0000000e+00 0.0000000e+00 
3.0000000e+00 3.0000000e+00 0.0000000e+00 
2.0000000e+00 3.0000000e+00 0.0000000e+00 
4.0000000e+00 3.0000000e+00 1.0000000e+01 
3.0000000e+00 3.0000000e+00 1.0000000e+01 
2.0000000e+00 3.0000000e+00 1.0000000e+01 
4.0618000e+00 1.5000000e+00 0.0000000e+00 
1.5046000e+00 7.6549745e-01 0.0000000e+00 
2.5000000e+00 2.1339746e+00 0.0000000e+00 
1.5046000e+00 2.2345026e+00 0.0000000e+00 
2.4957771e+00 8.1560516e-01 0.0000000e+00 
3.4707544e+00 2.2336540e+00 0.0000000e+00 
3.4700506e+00 7.5794268e-01 0.0000000e+00 
8.6322361e-01 1.5000000e+00 0.0000000e+00 
2.0000000e+00 1.5000000e+00 0.0000000e+00 
2.9960666e+00 1.4974480e+00 0.0000000e+00 
4.2679491e+00 7.3205084e-01 0.0000000e+00 
4.2679491e+00 2.2679491e+00 0.0000000e+00 
7.2695929e-01 2.2730408e+00 0.0000000e+00 
7.2695929e-01 7.2695929e-01 0.0000000e+00 
4.1822505e+00 0.0000000e+00 2.5515697e+00 
4.2017918e+00 0.0000000e+00 4.4725966e+00 
4.1114569e+00 0.0000000e+00 6.5092020e+00 
8.6602539e-01 0.0000000e+00 3.5000000e+00 
8.4778279e-01 0.0000000e+00 5.4684029e+00 
8.9629614e-01 0.0000000e+00 7.5867257e+00 
2.5566745e+00 0.0000000e+00 8.1853306e-01 
2.4918270e+00 0.0000000e+00 9.1386929e+00 
8.4677207e-01 0.0000000e+00 1.5042374e+00 
4.0943027e+00 0.0000000e+00 8.4081745e+00 
8.6281651e-01 0.0000000e+00 2.5007062e+00 
1.7315160e+00 0.0000000e+00 3.0001178e+00 
1.7319617e+00 0.0000000e+00 4.0000196e+00 
2.5980761e+00 0.0000000e+00 3.5000000e+00 
2.5536871e+00 0.0000000e+00 4.4963923e+00 
2.5928419e+00 0.0000000e+00 2.4239938e+00 
1.5037409e+00 0.0000000e+00 9.1535149e+00 
1.8433737e+00 0.0000000e+00 8.1858873e+00 
3.0000000e+00 0.0000000e+00 8.2679491e+00 
2.5000000e+00 0.0000000e+00 7.4019237e+00 
3.5042722e+00 0.0000000e+00 7.4271150e+00 
3.0310018e+00 0.0000000e+00 6.5282087e+00 
2.0373929e+00 0.0000000e+00 6.5307913e+00 
3.4767809e+00 0.0000000e+00 5.8031492e+00 
2.5452602e+00 0.0000000e+00 5.5720768e+00 
1.6456656e+00 0.0000000e+00 1.9697139e+00 
8.6297011e-01 0.0000000e+00 4.4947371e+00 
1.0111579e+00 0.0000000e+00 6.5282545e+00 
3.4994321e+00 0.0000000e+00 8.4691072e-01 
4.1860156e+00 0.0000000e+00 3.5040276e+00 
1.7320508e+00 0.0000000e+00 5.0000000e+00 
4.0544066e+00 0.0000000e+00 1.5781221e+00 
1.5817389e+00 0.0000000e+00 9.3943578e-01 
8.3166349e-01 0.0000000e+00 8.5090933e+00 
3.4686174e+00 0.0000000e+00 9.1752682e+00 
3.0709300e+00 0.0000000e+00 1.5799091e+00 
3.3927374e+00 0.0000000e+00 3.0399952e+00 
3.3826034e+00 0.0000000e+00 3.9747651e+00 
4.3420062e+00 0.0000000e+00 7.4688983e+00 
3.4023225e+00 0.0000000e+00 4.9314723e+00 
1.6740381e+00 0.0000000e+00 7.3014426e+00 
4.2715640e+00 0.0000000e+00 5.4758859e+00 
1.6225953e+00 0.0000000e+00 5.8104177e+00 
4.2679491e+00 0.0000000e+00 9.2679491e+00 
7.3205084e-01 0.0000000e+00 7.3205084e-01 
4.2679491e+00 0.0000000e+00 7.3205084e-01 
7.3205084e-01 0.0000000e+00 9.2679491e+00 
3.4586334e+00 0.0000000e+00 2.2347178e+00 
2.2895701e+00 0.0000000e+00 1.5463171e+00 
5.0000000e+00 2.2345026e+00 1.5046000e+00 
[...]
POINT_DATA 460
FIELD FieldData 2
DISPLACEMENT 3 460  float
0.0000000e+00 0.0000000e+00 0.0000000e+00 
0.0000000e+00 0.0000000e+00 0.0000000e+00 
0.0000000e+00 -2.8355896e-07 0.0000000e+00 
0.0000000e+00 -5.7672351e-06 0.0000000e+00 
0.0000000e+00 0.0000000e+00 0.0000000e+00 
0.0000000e+00 0.0000000e+00 0.0000000e+00 
0.0000000e+00 -7.5431226e-09 0.0000000e+00 
0.0000000e+00 -7.7792528e-09 0.0000000e+00 
0.0000000e+00 -5.9868646e-05 0.0000000e+00 
0.0000000e+00 -9.1322581e-05 0.0000000e+00 
0.0000000e+00 -1.8514971e-04 0.0000000e+00 
0.0000000e+00 -3.3557919e-04 0.0000000e+00 
0.0000000e+00 -5.1866652e-04 0.0000000e+00 
0.0000000e+00 -6.7249849e-04 0.0000000e+00 
0.0000000e+00 -6.9976016e-04 0.0000000e+00 
0.0000000e+00 -5.6944974e-04 0.0000000e+00 
0.0000000e+00 -3.7671358e-04 0.0000000e+00 
0.0000000e+00 -1.9971411e-04 0.0000000e+00 
0.0000000e+00 -7.4492127e-05 0.0000000e+00 
-1.2781297e-06 -1.5445721e-05 4.5204815e-06 
-2.6659933e-07 6.5045065e-06 -6.5601517e-07 
-4.4733787e-07 9.8399523e-06 -8.6977320e-07 
-2.4285845e-07 7.1871668e-06 2.8528655e-07 
8.3533767e-09 3.7884681e-06 1.1512338e-07 
3.4876823e-08 1.4754746e-06 1.9129789e-07 
6.9165047e-08 3.4231934e-07 2.8675268e-07 
1.9629185e-08 -7.9992873e-08 9.7036462e-08 
-1.0902051e-08 -1.6150209e-07 3.4377582e-08 
-1.1680830e-08 -1.1403733e-07 -1.2631048e-08 
-8.4760882e-10 -4.5069253e-08 -2.4958119e-08 
5.6937460e-10 5.5651626e-09 -1.2011750e-08 
2.5705131e-09 3.0941223e-08 -2.9582059e-09 
3.0338858e-09 3.5908673e-08 4.8262456e-09 
2.5528037e-09 2.9325170e-08 9.9492077e-09 
1.9856825e-09 1.8232200e-08 1.1354500e-08 
8.2753460e-10 7.2046085e-09 1.0660684e-08 
5.6238514e-10 -1.5078490e-09 7.5390965e-09 
1.9246024e-10 -7.0147803e-09 3.7947165e-09 
0.0000000e+00 -9.4001047e-09 0.0000000e+00 
0.0000000e+00 -9.9248307e-09 0.0000000e+00 
0.0000000e+00 -9.0923882e-09 0.0000000e+00 
0.0000000e+00 -7.4514608e-09 0.0000000e+00 
0.0000000e+00 -5.4285536e-09 0.0000000e+00 
0.0000000e+00 -3.3637741e-09 0.0000000e+00 
0.0000000e+00 -1.5175214e-09 0.0000000e+00 
0.0000000e+00 -7.8346642e-11 0.0000000e+00 
0.0000000e+00 8.2918883e-10 0.0000000e+00 
0.0000000e+00 1.1377846e-09 0.0000000e+00 
0.0000000e+00 -5.9853286e-05 0.0000000e+00 
0.0000000e+00 -9.1436043e-05 0.0000000e+00 
0.0000000e+00 -1.8565178e-04 0.0000000e+00 
0.0000000e+00 -3.3670283e-04 0.0000000e+00 
0.0000000e+00 -5.2054418e-04 0.0000000e+00 
0.0000000e+00 -6.7501084e-04 0.0000000e+00 
0.0000000e+00 -7.0239819e-04 0.0000000e+00 
0.0000000e+00 -5.7159440e-04 0.0000000e+00 
0.0000000e+00 -3.7812526e-04 0.0000000e+00 
0.0000000e+00 -2.0045828e-04 0.0000000e+00 
0.0000000e+00 -7.6311866e-05 0.0000000e+00 
0.0000000e+00 -1.5025493e-05 0.0000000e+00 
0.0000000e+00 6.7471342e-06 0.0000000e+00 
0.0000000e+00 1.0100374e-05 0.0000000e+00 
0.0000000e+00 7.3093515e-06 0.0000000e+00 
0.0000000e+00 3.8503717e-06 0.0000000e+00 
0.0000000e+00 1.4972953e-06 0.0000000e+00 
0.0000000e+00 3.3848482e-07 0.0000000e+00 
0.0000000e+00 -8.4834198e-08 0.0000000e+00 
0.0000000e+00 -1.6455628e-07 0.0000000e+00 
0.0000000e+00 -1.1623938e-07 0.0000000e+00 
0.0000000e+00 -4.6333920e-08 0.0000000e+00 
0.0000000e+00 4.9708473e-09 0.0000000e+00 
0.0000000e+00 3.0571552e-08 0.0000000e+00 
0.0000000e+00 3.5826591e-08 0.0000000e+00 
0.0000000e+00 2.9326436e-08 0.0000000e+00 
0.0000000e+00 1.8289926e-08 0.0000000e+00 
0.0000000e+00 7.2714581e-09 0.0000000e+00 
0.0000000e+00 -1.4273164e-09 0.0000000e+00 
0.0000000e+00 -6.9224502e-09 0.0000000e+00 
0.0000000e+00 -9.4387369e-09 0.0000000e+00 
0.0000000e+00 -9.9327844e-09 0.0000000e+00 
0.0000000e+00 -9.1002645e-09 0.0000000e+00 
0.0000000e+00 -7.4585786e-09 0.0000000e+00 
0.0000000e+00 -5.4345031e-09 0.0000000e+00 
0.0000000e+00 -3.3683794e-09 0.0000000e+00 
0.0000000e+00 -1.5208185e-09 0.0000000e+00 
0.0000000e+00 -8.0555548e-11 0.0000000e+00 
0.0000000e+00 8.2770046e-10 0.0000000e+00 
0.0000000e+00 1.1365495e-09 0.0000000e+00 
0.0000000e+00 0.0000000e+00 0.0000000e+00 
0.0000000e+00 0.0000000e+00 0.0000000e+00 
0.0000000e+00 0.0000000e+00 0.0000000e+00 
0.0000000e+00 0.0000000e+00 0.0000000e+00 
0.0000000e+00 0.0000000e+00 0.0000000e+00 
0.0000000e+00 0.0000000e+00 0.0000000e+00 
0.0000000e+00 0.0000000e+00 0.0000000e+00 
0.0000000e+00 0.0000000e+00 0.0000000e+00 
0.0000000e+00 0.0000000e+00 0.0000000e+00 
0.0000000e+00 0.0000000e+00 0.0000000e+00 
0.0000000e+00 0.0000000e+00 0.0000000e+00 
0.0000000e+00 0.0000000e+00 0.0000000e+00 
0.0000000e+00 0.0000000e+00 0.0000000e+00 
0.0000000e+00 0.0000000e+00 0.0000000e+00 
0.0000000e+00 0.0000000e+00 0.0000000e+00 
0.0000000e+00 0.0000000e+00 0.0000000e+00 
0.0000000e+00 0.0000000e+00 0.0000000e+00 
0.0000000e+00 0.0000000e+00 0.0000000e+00 
0.0000000e+00 0.0000000e+00 0.0000000e+00 
0.0000000e+00 0.0000000e+00 0.0000000e+00 
0.0000000e+00 0.0000000e+00 0.0000000e+00 
0.0000000e+00 0.0000000e+00 0.0000000e+00 
0.0000000e+00 0.0000000e+00 0.0000000e+00 
0.0000000e+00 -1.3734110e-07 0.0000000e+00 
0.0000000e+00 -2.5473611e-07 0.0000000e+00 
0.0000000e+00 -6.5956747e-06 0.0000000e+00 
0.0000000e+00 -3.0546400e-06 0.0000000e+00 
0.0000000e+00 0.0000000e+00 0.0000000e+00 
0.0000000e+00 0.0000000e+00 0.0000000e+00 
0.0000000e+00 0.0000000e+00 0.0000000e+00 
0.0000000e+00 0.0000000e+00 0.0000000e+00 
0.0000000e+00 0.0000000e+00 0.0000000e+00 
0.0000000e+00 0.0000000e+00 0.0000000e+00 
0.0000000e+00 0.0000000e+00 0.0000000e+00 
0.0000000e+00 0.0000000e+00 0.0000000e+00 
0.0000000e+00 0.0000000e+00 0.0000000e+00 
0.0000000e+00 0.0000000e+00 0.0000000e+00 
0.0000000e+00 0.0000000e+00 0.0000000e+00 
0.0000000e+00 0.0000000e+00 0.0000000e+00 
0.0000000e+00 0.0000000e+00 0.0000000e+00 
0.0000000e+00 0.0000000e+00 0.0000000e+00 
0.0000000e+00 0.0000000e+00 0.0000000e+00 
0.0000000e+00 0.0000000e+00 0.0000000e+00 
0.0000000e+00 0.0000000e+00 0.0000000e+00 
0.0000000e+00 0.0000000e+00 0.0000000e+00 
0.0000000e+00 0.0000000e+00 0.0000000e+00 
0.0000000e+00 0.0000000e+00 0.0000000e+00 
0.0000000e+00 0.0000000e+00 0.0000000e+00 
0.0000000e+00 0.0000000e+00 0.0000000e+00 
0.0000000e+00 -1.9931626e-07 0.0000000e+00 
0.0000000e+00 -1.2129851e-07 0.0000000e+00 
0.0000000e+00 -3.4170810e-08 0.0000000e+00 
0.0000000e+00 8.4723597e-09 0.0000000e+00 
0.0000000e+00 2.8479404e-08 0.0000000e+00 
0.0000000e+00 2.5306942e-08 0.0000000e+00 
0.0000000e+00 9.6548343e-09 0.0000000e+00 
0.0000000e+00 -2.7803302e-09 0.0000000e+00 
0.0000000e+00 -6.6256822e-09 0.0000000e+00 
0.0000000e+00 -3.6585210e-09 0.0000000e+00 
0.0000000e+00 -6.4822081e-09 0.0000000e+00 
0.0000000e+00 -1.4128551e-06 0.0000000e+00 
0.0000000e+00 2.4078527e-06 0.0000000e+00 
0.0000000e+00 9.9915951e-07 0.0000000e+00 
0.0000000e+00 1.3747173e-07 0.0000000e+00 
0.0000000e+00 -1.3808751e-08 0.0000000e+00 
0.0000000e+00 2.3231019e-08 0.0000000e+00 
0.0000000e+00 3.3161967e-08 0.0000000e+00 
0.0000000e+00 1.5404094e-08 0.0000000e+00 
0.0000000e+00 -1.5258523e-09 0.0000000e+00 
0.0000000e+00 -6.3398287e-09 0.0000000e+00 
0.0000000e+00 -3.5933672e-09 0.0000000e+00 
0.0000000e+00 -4.5339542e-07 0.0000000e+00 
0.0000000e+00 -8.6647128e-07 0.0000000e+00 
0.0000000e+00 -1.9963409e-06 0.0000000e+00 
0.0000000e+00 -7.1774342e-09 0.0000000e+00 
0.0000000e+00 -7.1407475e-09 0.0000000e+00 
0.0000000e+00 -7.6380537e-09 0.0000000e+00 
0.0000000e+00 -2.5892217e-07 0.0000000e+00 
0.0000000e+00 -1.9817642e-06 0.0000000e+00 
0.0000000e+00 -1.9749903e-06 0.0000000e+00 
0.0000000e+00 -1.0206268e-05 0.0000000e+00 
0.0000000e+00 -1.1791966e-06 0.0000000e+00 
0.0000000e+00 -7.3880250e-07 0.0000000e+00 
0.0000000e+00 -1.7090427e-07 0.0000000e+00 
0.0000000e+00 -6.7353330e-06 0.0000000e+00 
0.0000000e+00 -3.6404253e-06 0.0000000e+00 
0.0000000e+00 -9.2066881e-07 0.0000000e+00 
0.0000000e+00 -1.3893985e-07 0.0000000e+00 
0.0000000e+00 -3.5183240e-07 0.0000000e+00 
0.0000000e+00 -1.9082809e-05 0.0000000e+00 
0.0000000e+00 -2.9332607e-06 0.0000000e+00 
0.0000000e+00 0.0000000e+00 0.0000000e+00 
0.0000000e+00 0.0000000e+00 0.0000000e+00 
0.0000000e+00 0.0000000e+00 0.0000000e+00 
0.0000000e+00 0.0000000e+00 0.0000000e+00 
0.0000000e+00 0.0000000e+00 0.0000000e+00 
0.0000000e+00 0.0000000e+00 0.0000000e+00 
0.0000000e+00 0.0000000e+00 0.0000000e+00 
0.0000000e+00 0.0000000e+00 0.0000000e+00 
0.0000000e+00 0.0000000e+00 0.0000000e+00 
0.0000000e+00 0.0000000e+00 0.0000000e+00 
0.0000000e+00 0.0000000e+00 0.0000000e+00 
0.0000000e+00 0.0000000e+00 0.0000000e+00 
0.0000000e+00 0.0000000e+00 0.0000000e+00 
0.0000000e+00 0.0000000e+00 0.0000000e+00 
0.0000000e+00 0.0000000e+00 0.0000000e+00 
0.0000000e+00 0.0000000e+00 0.0000000e+00 
0.0000000e+00 0.0000000e+00 0.0000000e+00 
0.0000000e+00 0.0000000e+00 0.0000000e+00 
0.0000000e+00 0.0000000e+00 0.0000000e+00 
0.0000000e+00 0.0000000e+00 0.0000000e+00 
0.0000000e+00 0.0000000e+00 0.0000000e+00 
0.0000000e+00 0.0000000e+00 0.0000000e+00 
0.0000000e+00 0.0000000e+00 0.0000000e+00 
0.0000000e+00 0.0000000e+00 0.0000000e+00 
0.0000000e+00 0.0000000e+00 0.0000000e+00 
0.0000000e+00 0.0000000e+00 0.0000000e+00 
0.0000000e+00 0.0000000e+00 0.0000000e+00 
0.0000000e+00 0.0000000e+00 0.0000000e+00 
0.0000000e+00 0.0000000e+00 0.0000000e+00 
0.0000000e+00 0.0000000e+00 0.0000000e+00 
0.0000000e+00 0.0000000e+00 0.0000000e+00 
0.0000000e+00 0.0000000e+00 0.0000000e+00 
0.0000000e+00 0.0000000e+00 0.0000000e+00 
0.0000000e+00 0.0000000e+00 0.0000000e+00 
0.0000000e+00 0.0000000e+00 0.0000000e+00 
0.0000000e+00 0.0000000e+00 0.0000000e+00 
0.0000000e+00 0.0000000e+00 0.0000000e+00 
0.0000000e+00 0.0000000e+00 0.0000000e+00 
0.0000000e+00 0.0000000e+00 0.0000000e+00 
0.0000000e+00 0.0000000e+00 0.0000000e+00 
0.0000000e+00 0.0000000e+00 0.0000000e+00 
0.0000000e+00 0.0000000e+00 0.0000000e+00 
0.0000000e+00 0.0000000e+00 0.0000000e+00 
0.0000000e+00 0.0000000e+00 0.0000000e+00 
0.0000000e+00 0.0000000e+00 0.0000000e+00 
0.0000000e+00 0.0000000e+00 0.0000000e+00 
0.0000000e+00 0.0000000e+00 0.0000000e+00 
0.0000000e+00 0.0000000e+00 0.0000000e+00 
0.0000000e+00 0.0000000e+00 0.0000000e+00 
0.0000000e+00 -1.4597580e-07 0.0000000e+00 
0.0000000e+00 -4.8082347e-09 0.0000000e+00 
0.0000000e+00 -1.2116502e-08 0.0000000e+00 
0.0000000e+00 2.9295544e-08 0.0000000e+00 
0.0000000e+00 1.7470274e-09 0.0000000e+00 
0.0000000e+00 -3.0905074e-08 0.0000000e+00 
0.0000000e+00 1.2939923e-08 0.0000000e+00 
0.0000000e+00 8.5487288e-09 0.0000000e+00 
0.0000000e+00 -2.1251592e-09 0.0000000e+00 
0.0000000e+00 1.3572039e-08 0.0000000e+00 
0.0000000e+00 -6.9495627e-08 0.0000000e+00 
0.0000000e+00 2.0079167e-08 0.0000000e+00 
0.0000000e+00 1.6259396e-08 0.0000000e+00 
0.0000000e+00 1.9476196e-09 0.0000000e+00 
0.0000000e+00 -5.0283628e-08 0.0000000e+00 
0.0000000e+00 -1.8186647e-09 0.0000000e+00 
0.0000000e+00 -5.0819966e-09 0.0000000e+00 
0.0000000e+00 -1.4888606e-07 0.0000000e+00 
0.0000000e+00 2.2865684e-08 0.0000000e+00 
0.0000000e+00 7.4619209e-09 0.0000000e+00 
0.0000000e+00 -7.7091904e-08 0.0000000e+00 
0.0000000e+00 1.9284080e-08 0.0000000e+00 
0.0000000e+00 7.5931199e-09 0.0000000e+00 
0.0000000e+00 -2.9415734e-08 0.0000000e+00 
0.0000000e+00 -1.6769565e-09 0.0000000e+00 
0.0000000e+00 -6.8227335e-09 0.0000000e+00 
0.0000000e+00 -2.5536679e-09 0.0000000e+00 
0.0000000e+00 -2.1455607e-07 0.0000000e+00 
0.0000000e+00 -7.9012558e-08 0.0000000e+00 
0.0000000e+00 -1.4466867e-09 0.0000000e+00 
0.0000000e+00 -1.5087327e-06 0.0000000e+00 
0.0000000e+00 4.2979465e-07 0.0000000e+00 
0.0000000e+00 1.6365968e-08 0.0000000e+00 
0.0000000e+00 9.7085229e-09 0.0000000e+00 
0.0000000e+00 3.6131189e-07 0.0000000e+00 
0.0000000e+00 7.3491231e-09 0.0000000e+00 
0.0000000e+00 2.3684931e-08 0.0000000e+00 
0.0000000e+00 1.6865651e-07 0.0000000e+00 
0.0000000e+00 1.3283163e-06 0.0000000e+00 
0.0000000e+00 1.4900409e-08 0.0000000e+00 
0.0000000e+00 3.1744335e-08 0.0000000e+00 
0.0000000e+00 1.8134321e-08 0.0000000e+00 
0.0000000e+00 5.8900387e-09 0.0000000e+00 
0.0000000e+00 1.2399868e-06 0.0000000e+00 
0.0000000e+00 -4.1446762e-09 0.0000000e+00 
0.0000000e+00 3.1600937e-09 0.0000000e+00 
0.0000000e+00 4.2973300e-09 0.0000000e+00 
0.0000000e+00 1.2670866e-08 0.0000000e+00 
0.0000000e+00 1.2503547e-07 0.0000000e+00 
0.0000000e+00 5.2690274e-07 0.0000000e+00 
0.0000000e+00 2.2572733e-08 0.0000000e+00 
0.0000000e+00 6.3943393e-09 0.0000000e+00 
0.0000000e+00 1.0896509e-08 0.0000000e+00 
0.0000000e+00 8.5004444e-07 0.0000000e+00 
0.0000000e+00 -9.3883346e-10 0.0000000e+00 
0.0000000e+00 -3.8431594e-06 0.0000000e+00 
0.0000000e+00 -7.7221313e-07 0.0000000e+00 
0.0000000e+00 -4.1214037e-09 0.0000000e+00 
0.0000000e+00 -2.9414791e-09 0.0000000e+00 
0.0000000e+00 -5.4888627e-09 0.0000000e+00 
0.0000000e+00 -8.0525808e-09 0.0000000e+00 
0.0000000e+00 -9.1846353e-09 0.0000000e+00 
0.0000000e+00 -3.0345988e-09 0.0000000e+00 
0.0000000e+00 -8.2299829e-09 0.0000000e+00 
0.0000000e+00 -3.3586331e-09 0.0000000e+00 
0.0000000e+00 -6.3238268e-09 0.0000000e+00 
0.0000000e+00 -6.4021428e-09 0.0000000e+00 
0.0000000e+00 -6.3796812e-09 0.0000000e+00 
0.0000000e+00 -2.8903220e-09 0.0000000e+00 
0.0000000e+00 -7.6170279e-09 0.0000000e+00 
0.0000000e+00 -8.5546832e-09 0.0000000e+00 
0.0000000e+00 -3.0273062e-09 0.0000000e+00 
-5.9510490e-09 -4.4442494e-08 2.4095341e-08 
-9.1892138e-10 2.1572342e-08 -7.6643749e-09 
3.0785718e-09 1.8318318e-08 1.1152624e-08 
4.1980908e-07 2.1236742e-06 -3.1007124e-09 
1.0046850e-07 6.6844132e-07 1.5865919e-07 
-3.0875085e-09 2.7738649e-08 -5.7650245e-09 
1.9183577e-08 -5.6537612e-08 -4.0082949e-08 
1.1796359e-09 4.9853481e-09 5.5372595e-09 
-3.0987405e-07 2.9173948e-06 -1.2878662e-06 
1.2188432e-09 1.2709144e-09 8.9959764e-09 
-4.9970659e-08 -2.7842952e-07 -2.5537207e-07 
1.5155427e-09 -7.0255850e-09 3.7710439e-09 
1.2403481e-10 1.9108510e-08 3.9875054e-09 
1.5299634e-09 1.7037447e-08 6.1365610e-09 
2.8655984e-09 4.8350488e-09 8.5427292e-09 
2.6327100e-09 1.5704703e-08 7.7845153e-09 
9.6368269e-10 2.4522144e-08 1.9291810e-09 
2.9933973e-09 3.0428640e-09 9.2243955e-09 
2.7931231e-09 2.6695371e-08 5.0890803e-09 
-1.6099351e-09 2.7975913e-08 -8.9977509e-10 
-3.8471599e-09 2.6225106e-08 -1.0650575e-08 
-3.0128831e-09 2.6168186e-08 -7.6330187e-09 
1.5410091e-09 1.4802631e-08 -7.4782447e-09 
1.2287241e-08 1.6240989e-08 -1.2905874e-08 
2.7676174e-08 3.1479420e-08 1.8375204e-08 
2.9663580e-08 2.2961077e-08 -2.5259402e-08 
1.1754458e-07 1.6796187e-07 4.1053784e-08 
1.0946220e-07 1.3331240e-07 -2.5514675e-08 
1.5305180e-07 3.5169765e-07 2.5410540e-09 
1.2982900e-07 1.1602099e-07 -1.1389382e-07 
2.5206481e-07 6.3841526e-07 -2.1034685e-07 
-6.4052603e-09 7.0865736e-09 -1.4863257e-08 
-3.6049890e-09 2.2435616e-08 -9.8366053e-09 
8.6958764e-08 1.3659414e-07 1.0577659e-07 
1.4819467e-08 -5.8656373e-09 -2.9363575e-08 
1.7698737e-09 -6.4200747e-09 5.3412554e-09 
9.2169294e-09 4.5882920e-09 1.6496935e-08 
-1.9785356e-09 2.2466351e-08 -1.2723292e-08 
-1.0479393e-07 -6.8598160e-07 -5.5165526e-07 
1.9645157e-09 -4.7422204e-09 4.5482040e-09 
3.5716194e-09 1.5106457e-08 1.0596454e-08 
3.2588003e-09 5.5897096e-09 1.0806603e-08 
-2.5479330e-09 -1.2182879e-09 -1.0136941e-08 
1.6312576e-08 -1.3241106e-07 -7.5927524e-08 
1.6725753e-07 1.4868357e-06 1.6070069e-07 
1.3928172e-07 5.5693238e-07 1.2089833e-07 
6.3561863e-08 1.7692840e-07 1.6669743e-07 
1.0317167e-08 -2.2094783e-08 5.2156924e-08 
2.1908271e-09 3.0560038e-08 1.0936240e-09 
3.7951016e-09 2.5834517e-08 8.8912167e-09 
7.1215521e-07 -4.7353810e-06 -2.3376630e-08 
3.2508484e-07 2.7177391e-06 -6.4698031e-07 
9.3820185e-10 -6.5837975e-09 5.4672631e-09 
6.8321469e-08 -1.1915071e-07 -3.7466410e-07 
3.1622449e-07 9.2322716e-07 7.2840116e-08 
2.5119886e-09 9.2279526e-09 1.1143600e-08 
6.7185224e-10 2.7920153e-08 -1.6885184e-09 
2.9496857e-07 7.8223394e-07 -8.3183107e-07 
-5.6463536e-09 -2.8486486e-08 -2.4112514e-09 
2.5847444e-09 -3.0777305e-09 7.3383308e-09 
1.0500991e-09 -7.4260740e-09 2.4048517e-09 
-1.1937318e-08 -2.1174162e-07 -8.1662407e-08 
1.2702928e-08 1.6424048e-08 -1.9824572e-08 
3.4104420e-07 1.5150761e-06 -3.2861934e-07 
1.9827091e-09 -2.4070719e-09 7.9912637e-09 
-9.7018582e-10 2.8024395e-08 -3.9914423e-09 
4.0335166e-08 -5.1591829e-08 -1.2601795e-07 
5.2036274e-08 -9.2941621e-10 -4.9536972e-08 
-2.3304919e-07 -1.2871142e-06 -1.0981895e-06 
-7.0209407e-09 -3.6432526e-09 -1.5859650e-09 
1.0851777e-09 -6.9031252e-09 4.3610955e-09 
2.7787024e-07 3.4807013e-06 -2.9846569e-07 
5.4030369e-07 4.2528868e-06 -5.0989667e-07 
7.3848156e-08 1.7825043e-06 8.3414641e-08 
4.3095749e-08 9.4338623e-07 1.1355460e-07 
2.6236577e-07 1.3673487e-06 -3.6627287e-07 
4.3668056e-09 3.2284456e-07 5.7313226e-08 
-1.2444025e-08 2.5490493e-08 2.9430955e-08 
-5.5056852e-09 -3.7509430e-08 4.2517345e-09 
-6.7808745e-09 -3.1390204e-08 -1.2217323e-08 
-5.5273863e-10 2.3420847e-09 -1.0499566e-08 
1.5255281e-09 2.3345175e-08 -5.6907563e-09 
3.0872429e-09 3.3451382e-08 6.9104597e-11 
2.6641649e-09 3.2311718e-08 4.7292996e-09 
1.7189739e-09 2.0806940e-08 6.9569963e-09 
8.2875784e-10 1.1711469e-08 7.7419466e-09 
2.6167196e-10 1.9996063e-09 6.4333254e-09 
-1.6620763e-10 -5.2966569e-09 4.0754928e-09 
-1.4419626e-06 -7.3780866e-06 -6.9265263e-07 
-8.1427970e-08 7.3161340e-07 3.7962971e-07 
-7.4111774e-08 1.9985363e-07 -1.0245070e-07 
-2.2893405e-09 1.4446471e-08 -1.7932969e-08 
-5.7164029e-10 2.0448834e-08 -3.0440461e-09 
-7.1302053e-10 1.9506770e-09 -2.5501055e-09 
-6.4850539e-08 4.7415931e-08 1.7739110e-09 
-1.8073965e-08 1.5011315e-08 -1.9091869e-08 
-2.5499052e-09 2.1658648e-08 -7.0272668e-09 
-1.2089290e-08 2.0446350e-08 -7.4613780e-08 
-1.5778649e-07 1.1531411e-06 -2.1933504e-07 
-1.0883923e-07 -3.8743886e-07 1.4165855e-06 
-1.9346926e-09 5.4871592e-09 -3.9497468e-09 
-1.1761013e-07 1.4274680e-07 1.9252636e-07 
1.2871469e-09 2.4278238e-08 -2.5547262e-09 
-7.4042883e-11 1.7166714e-08 4.8329502e-10 
-2.4675165e-08 2.3856069e-07 -1.5049363e-07 
-1.2054611e-08 2.1345219e-08 -3.6218861e-08 
-1.2370693e-07 4.0336235e-07 -4.4536360e-08 
-2.4774305e-09 -1.9255667e-08 -1.5279337e-08 
-1.6097458e-08 2.6662976e-08 -4.3521887e-08 
-2.4344581e-07 2.3980340e-06 -2.1112768e-08 
-4.0517185e-09 1.8532441e-08 -6.0674701e-09 
1.3780957e-10 7.5688844e-10 2.7120947e-10 
-4.2168615e-08 -5.6794534e-08 4.0130754e-08 
-4.1278173e-10 -5.2171489e-09 -4.2784332e-10 
-6.8752733e-08 4.1236581e-07 -4.3928200e-10 
-9.6807513e-09 2.0535190e-08 -1.6128174e-08 
-1.0134226e-07 1.4374652e-07 9.7913230e-08 
-6.3004364e-08 7.7857088e-08 -3.6691016e-08 
-3.2942463e-08 5.7487721e-08 -2.8752085e-08 
-1.4217212e-09 1.2192544e-08 -2.1399402e-09 
-9.3373453e-10 2.5162180e-08 -2.6807765e-09 
1.1405614e-09 2.9512419e-08 9.9429531e-10 
-3.0994427e-09 2.4319315e-08 -1.3675836e-08 
-8.8872154e-10 -2.5340650e-09 -2.2255280e-09 
-7.3319639e-10 1.1400112e-08 -6.9127780e-11 
-2.7089042e-09 -2.2373679e-07 4.0552297e-07 
-1.9392463e-08 -4.2890140e-09 -7.9154701e-09 
3.9883808e-08 -9.6376695e-08 7.5456381e-07 
4.7879245e-10 1.3963798e-08 -3.4424459e-09 
-2.8766582e-08 5.8769061e-08 -4.3088328e-08 
3.1820077e-10 -5.1076401e-09 9.7824637e-10 
-9.9749020e-10 1.0446535e-08 -4.0291095e-09 
-1.4665931e-08 1.0325071e-07 -6.6598425e-08 
-5.4152952e-08 8.1925958e-07 2.8817524e-07 
-6.0159482e-09 2.4090133e-08 -1.3862514e-08 
-2.8572648e-08 2.9593406e-09 6.0864807e-09 
-1.1209715e-09 7.2721313e-09 -3.4746632e-09 
-6.0382142e-08 1.6374312e-07 1.0043168e-08 
-6.0471357e-11 1.2160130e-08 -1.5598294e-08 
-2.5478100e-08 -5.7067986e-08 -5.0233346e-09 
-1.4284144e-09 3.6564660e-09 -3.3104284e-09 
5.1921900e-10 3.3625678e-09 3.6737882e-09 
-1.5555505e-10 2.6843116e-08 -6.2969119e-09 
1.8553530e-09 8.3117984e-09 -4.7842570e-09 
-1.4513828e-09 1.3659989e-08 -6.2252261e-09 
-3.6874837e-10 -7.2841450e-10 -1.8792863e-09 
-9.2954000e-09 -1.3047432e-07 1.7472242e-08 
-7.7983708e-09 1.3723286e-08 -1.2430662e-08 
-8.9085592e-09 7.8274924e-09 -8.0383838e-10 
-3.4716139e-09 2.7507271e-08 -5.0423012e-09 
-1.9199899e-09 1.2079098e-08 -4.5076165e-09 
-1.5021512e-07 9.5121459e-07 2.7541549e-09 
7.1362344e-10 9.7677031e-09 4.3312043e-09 
-3.0648934e-08 1.8191038e-08 -2.7243136e-08 
-1.8513764e-10 4.4479495e-10 8.5970780e-10 