# vtk DataFile Version 4.0
vtk output
ASCII
DATASET UNSTRUCTURED_GRID
POINTS 460 float
0.0000000e+00 0.0000000e+00 0.0000000e+00 
5.0000000e+00 0.0000000e+00 0.0000000e+00 
5.0000000e+00 3.0000000e+00 0.0000000e+00 
0.0000000e+00 3.0000000e+00 0.0000000e+00 
0.0000000e+00 0.0000000e+00 1.0000000e+01 
5.0000000e+00 0.0000000e+00 1.0000000e+01 
5.0000000e+00 3.0000000e+00 1.0000000e+01 
0.0000000e+00 3.0000000e+00 1.0000000e+01 
1.0000000e+00 3.0000000e+00 -5.0000000e+00 
1.0000000e+00 3.0000000e+00 -4.5000000e+00 
1.0000000e+00 3.0000000e+00 -4.0000000e+00 
1.0000000e+00 3.0000000e+00 -3.5000000e+00 
1.0000000e+00 3.0000000e+00 -3.0000000e+00 
1.0000000e+00 3.0000000e+00 -2.5000000e+00 
1.0000000e+00 3.0000000e+00 -2.0000000e+00 
1.0000000e+00 3.0000000e+00 -1.5000000e+00 
1.0000000e+00 3.0000000e+00 -1.0000000e+00 
1.0000000e+00 3.0000000e+00 -5.0000000e-01 
1.0000000e+00 3.0000000e+00 0.0000000e+00 
1.0000000e+00 3.0000000e+00 5.0000000e-01 
1.0000000e+00 3.0000000e+00 1.0000000e+00 
1.0000000e+00 3.0000000e+00 1.5000000e+00 
1.0000000e+00 3.0000000e+00 2.0000000e+00 
1.0000000e+00 3.0000000e+00 2.5000000e+00 
1.0000000e+00 3.0000000e+00 3.0000000e+00 
1.0000000e+00 3.0000000e+00 3.5000000e+00 
1.0000000e+00 3.0000000e+00 4.0000000e+00 
1.0000000e+00 3.0000000e+00 4.5000000e+00 
1.0000000e+00 3.0000000e+00 5.0000000e+00 
1.0000000e+00 3.0000000e+00 5.5000000e+00 
1.0000000e+00 3.0000000e+00 6.0000000e+00 
1.0000000e+00 3.0000000e+00 6.5000000e+00 
1.0000000e+00 3.0000000e+00 7.0000000e+00 
1.0000000e+00 3.0000000e+00 7.5000000e+00 
1.0000000e+00 3.0000000e+00 8.0000000e+00 
1.0000000e+00 3.0000000e+00 8.5000000e+00 
1.0000000e+00 3.0000000e+00 9.0000000e+00 
1.0000000e+00 3.0000000e+00 9.5000000e+00 
1.0000000e+00 3.0000000e+00 1.0000000e+01 
1.0000000e+00 3.0000000e+00 1.0500000e+01 
1.0000000e+00 3.0000000e+00 1.1000000e+01 
1.0000000e+00 3.0000000e+00 1.1500000e+01 
1.0000000e+00 3.0000000e+00 1.2000000e+01 
1.0000000e+00 3.0000000e+00 1.2500000e+01 
1.0000000e+00 3.0000000e+00 1.3000000e+01 
1.0000000e+00 3.0000000e+00 1.3500000e+01 
1.0000000e+00 3.0000000e+00 1.4000000e+01 
1.0000000e+00 3.0000000e+00 1.4500000e+01 
1.0000000e+00 3.0250001e+00 -5.0000000e+00 
1.0000000e+00 3.0250001e+00 -4.5000000e+00 
1.0000000e+00 3.0250001e+00 -4.0000000e+00 
1.0000000e+00 3.0250001e+00 -3.5000000e+00 
1.0000000e+00 3.0250001e+00 -3.0000000e+00 
1.0000000e+00 3.0250001e+00 -2.5000000e+00 
1.0000000e+00 3.0250001e+00 -2.0000000e+00 
1.0000000e+00 3.0250001e+00 -1.5000000e+00 
1.0000000e+00 3.0250001e+00 -1.0000000e+00 
1.0000000e+00 3.0250001e+00 -5.0000000e-01 
1.0000000e+00 3.0250001e+00 0.0000000e+00 
1.0000000e+00 3.0250001e+00 5.0000000e-01 
1.0000000e+00 3.0250001e+00 1.0000000e+00 
1.0000000e+00 3.0250001e+00 1.5000000e+00 
1.0000000e+00 3.0250001e+00 2.0000000e+00 
1.0000000e+00 3.0250001e+00 2.5000000e+00 
1.0000000e+00 3.0250001e+00 3.0000000e+00 
1.0000000e+00 3.0250001e+00 3.5000000e+00 
1.0000000e+00 3.0250001e+00 4.0000000e+00 
1.0000000e+00 3.0250001e+00 4.5000000e+00 
1.0000000e+00 3.0250001e+00 5.0000000e+00 
1.0000000e+00 3.0250001e+00 5.5000000e+00 
1.0000000e+00 3.0250001e+00 6.0000000e+00 
1.0000000e+00 3.0250001e+00 6.5000000e+00 
1.0000000e+00 3.0250001e+00 7.0000000e+00 
1.0000000e+00 3.0250001e+00 7.5000000e+00 
1.0000000e+00 3.0250001e+00 8.0000000e+00 
1.0000000e+00 3.0250001e+00 8.5000000e+00 
1.0000000e+00 3.0250001e+00 9.0000000e+00 
1.0000000e+00 3.0250001e+00 9.5000000e+00 
1.0000000e+00 3.0250001e+00 1.0000000e+01 
1.0000000e+00 3.0250001e+00 1.0500000e+01 
1.0000000e+00 3.0250001e+00 1.1000000e+01 
1.0000000e+00 3.0250001e+00 1.1500000e+01 
1.0000000e+00 3.0250001e+00 1.2000000e+01 
1.0000000e+00 3.0250001e+00 1.2500000e+01 
1.0000000e+00 3.0250001e+00 1.3000000e+01 
1.0000000e+00 3.0250001e+00 1.3500000e+01 
1.0000000e+00 3.0250001e+00 1.4000000e+01 
1.0000000e+00 3.0250001e+00 1.4500000e+01 
1.0000000e+00 -2.0000000e+00 -5.0000000e+00 
1.0000000e+00 -2.0000000e+00 -4.5000000e+00 
1.0000000e+00 -2.0000000e+00 -4.0000000e+00 
1.0000000e+00 -2.0000000e+00 -3.5000000e+00 
1.0000000e+00 -2.0000000e+00 -3.0000000e+00 
1.0000000e+00 -2.0000000e+00 -2.5000000e+00 
1.0000000e+00 -2.0000000e+00 -2.0000000e+00 
1.0000000e+00 -2.0000000e+00 -1.5000000e+00 
1.0000000e+00 -2.0000000e+00 -1.0000000e+00 
1.0000000e+00 -2.0000000e+00 -5.0000000e-01 
1.0000000e+00 -2.0000000e+00 1.0500000e+01 
1.0000000e+00 -2.0000000e+00 1.1000000e+01 
1.0000000e+00 -2.0000000e+00 1.1500000e+01 
1.0000000e+00 -2.0000000e+00 1.2000000e+01 
1.0000000e+00 -2.0000000e+00 1.2500000e+01 
1.0000000e+00 -2.0000000e+00 1.3000000e+01 
1.0000000e+00 -2.0000000e+00 1.3500000e+01 
1.0000000e+00 -2.0000000e+00 1.4000000e+01 
1.0000000e+00 -2.0000000e+00 1.4500000e+01 
1.0000000e+00 0.0000000e+00 0.0000000e+00 
2.0000000e+00 0.0000000e+00 0.0000000e+00 
3.0000000e+00 0.0000000e+00 0.0000000e+00 
4.0000000e+00 0.0000000e+00 0.0000000e+00 
5.0000000e+00 1.0000000e+00 0.0000000e+00 
5.0000000e+00 2.0000000e+00 0.0000000e+00 
0.0000000e+00 2.0000000e+00 0.0000000e+00 
0.0000000e+00 1.0000000e+00 0.0000000e+00 
0.0000000e+00 0.0000000e+00 1.0000000e+00 
0.0000000e+00 0.0000000e+00 2.0000000e+00 
0.0000000e+00 0.0000000e+00 3.0000000e+00 
0.0000000e+00 0.0000000e+00 4.0000000e+00 
0.0000000e+00 0.0000000e+00 5.0000000e+00 
0.0000000e+00 0.0000000e+00 6.0000000e+00 
0.0000000e+00 0.0000000e+00 7.0000000e+00 
0.0000000e+00 0.0000000e+00 8.0000000e+00 
0.0000000e+00 0.0000000e+00 9.0000000e+00 
5.0000000e+00 0.0000000e+00 1.0000000e+00 
5.0000000e+00 0.0000000e+00 2.0000000e+00 
5.0000000e+00 0.0000000e+00 3.0000000e+00 
5.0000000e+00 0.0000000e+00 4.0000000e+00 
5.0000000e+00 0.0000000e+00 5.0000000e+00 
5.0000000e+00 0.0000000e+00 6.0000000e+00 
5.0000000e+00 0.0000000e+00 7.0000000e+00 
5.0000000e+00 0.0000000e+00 8.0000000e+00 
5.0000000e+00 0.0000000e+00 9.0000000e+00 
1.0000000e+00 0.0000000e+00 1.0000000e+01 
2.0000000e+00 0.0000000e+00 1.0000000e+01 
3.0000000e+00 0.0000000e+00 1.0000000e+01 
4.0000000e+00 0.0000000e+00 1.0000000e+01 
5.0000000e+00 3.0000000e+00 1.0000000e+00 
5.0000000e+00 3.0000000e+00 2.0000000e+00 
5.0000000e+00 3.0000000e+00 3.0000000e+00 
5.0000000e+00 3.0000000e+00 4.0000000e+00 
5.0000000e+00 3.0000000e+00 5.0000000e+00 
5.0000000e+00 3.0000000e+00 6.0000000e+00 
5.0000000e+00 3.0000000e+00 7.0000000e+00 
5.0000000e+00 3.0000000e+00 8.0000000e+00 
5.0000000e+00 3.0000000e+00 9.0000000e+00 
5.0000000e+00 1.0000000e+00 1.0000000e+01 
5.0000000e+00 2.0000000e+00 1.0000000e+01 
0.0000000e+00 3.0000000e+00 1.0000000e+00 
0.0000000e+00 3.0000000e+00 2.0000000e+00 
0.0000000e+00 3.0000000e+00 3.0000000e+00 
0.0000000e+00 3.0000000e+00 4.0000000e+00 
0.0000000e+00 3.0000000e+00 5.0000000e+00 
0.0000000e+00 3.0000000e+00 6.0000000e+00 
0.0000000e+00 3.0000000e+00 7.0000000e+00 
0.0000000e+00 3.0000000e+00 8.0000000e+00 
0.0000000e+00 3.0000000e+00 9.0000000e+00 
0.0000000e+00 2.0000000e+00 1.0000000e+01 
0.0000000e+00 1.0000000e+00 1.0000000e+01 
4.0000000e+00 3.0000000e+00 0.0000000e+00 
3.0000000e+00 3.0000000e+00 0.0000000e+00 
2.0000000e+00 3.0000000e+00 0.0000000e+00 
4.0000000e+00 3.0000000e+00 1.0000000e+01 
3.0000000e+00 3.0000000e+00 1.0000000e+01 
2.0000000e+00 3.0000000e+00 1.0000000e+01 
4.0618000e+00 1.5000000e+00 0.0000000e+00 
1.5046000e+00 7.6549745e-01 0.0000000e+00 
2.5000000e+00 2.1339746e+00 0.0000000e+00 
1.5046000e+00 2.2345026e+00 0.0000000e+00 
2.4957771e+00 8.1560516e-01 0.0000000e+00 
3.4707544e+00 2.2336540e+00 0.0000000e+00 
3.4700506e+00 7.5794268e-01 0.0000000e+00 
8.6322361e-01 1.5000000e+00 0.0000000e+00 
2.0000000e+00 1.5000000e+00 0.0000000e+00 
2.9960666e+00 1.4974480e+00 0.0000000e+00 
4.2679491e+00 7.3205084e-01 0.0000000e+00 
4.2679491e+00 2.2679491e+00 0.0000000e+00 
7.2695929e-01 2.2730408e+00 0.0000000e+00 
7.2695929e-01 7.2695929e-01 0.0000000e+00 
4.1822505e+00 0.0000000e+00 2.5515697e+00 
4.2017918e+00 0.0000000e+00 4.4725966e+00 
4.1114569e+00 0.0000000e+00 6.5092020e+00 
8.6602539e-01 0.0000000e+00 3.5000000e+00 
8.4778279e-01 0.0000000e+00 5.4684029e+00 
8.9629614e-01 0.0000000e+00 7.5867257e+00 
2.5566745e+00 0.0000000e+00 8.1853306e-01 
2.4918270e+00 0.0000000e+00 9.1386929e+00 
8.4677207e-01 0.0000000e+00 1.5042374e+00 
4.0943027e+00 0.0000000e+00 8.4081745e+00 
8.6281651e-01 0.0000000e+00 2.5007062e+00 
1.7315160e+00 0.0000000e+00 3.0001178e+00 
1.7319617e+00 0.0000000e+00 4.0000196e+00 
2.5980761e+00 0.0000000e+00 3.5000000e+00 
2.5536871e+00 0.0000000e+00 4.4963923e+00 
2.5928419e+00 0.0000000e+00 2.4239938e+00 
1.5037409e+00 0.0000000e+00 9.1535149e+00 
1.8433737e+00 0.0000000e+00 8.1858873e+00 
3.0000000e+00 0.0000000e+00 8.2679491e+00 
2.5000000e+00 0.0000000e+00 7.4019237e+00 
3.5042722e+00 0.0000000e+00 7.4271150e+00 
3.0310018e+00 0.0000000e+00 6.5282087e+00 
2.0373929e+00 0.0000000e+00 6.5307913e+00 
3.4767809e+00 0.0000000e+00 5.8031492e+00 
2.5452602e+00 0.0000000e+00 5.5720768e+00 
1.6456656e+00 0.0000000e+00 1.9697139e+00 
8.6297011e-01 0.0000000e+00 4.4947371e+00 
1.0111579e+00 0.0000000e+00 6.5282545e+00 
3.4994321e+00 0.0000000e+00 8.4691072e-01 
4.1860156e+00 0.0000000e+00 3.5040276e+00 
1.7320508e+00 0.0000000e+00 5.0000000e+00 
4.0544066e+00 0.0000000e+00 1.5781221e+00 
1.5817389e+00 0.0000000e+00 9.3943578e-01 
8.3166349e-01 0.0000000e+00 8.5090933e+00 
3.4686174e+00 0.0000000e+00 9.1752682e+00 
3.0709300e+00 0.0000000e+00 1.5799091e+00 
3.3927374e+00 0.0000000e+00 3.0399952e+00 
3.3826034e+00 0.0000000e+00 3.9747651e+00 
4.3420062e+00 0.0000000e+00 7.4688983e+00 
3.4023225e+00 0.0000000e+00 4.9314723e+00 
1.6740381e+00 0.0000000e+00 7.3014426e+00 
4.2715640e+00 0.0000000e+00 5.4758859e+00 
1.6225953e+00 0.0000000e+00 5.8104177e+00 
4.2679491e+00 0.0000000e+00 9.2679491e+00 
7.3205084e-01 0.0000000e+00 7.3205084e-01 
4.2679491e+00 0.0000000e+00 7.3205084e-01 
7.3205084e-01 0.0000000e+00 9.2679491e+00 
3.4586334e+00 0.0000000e+00 2.2347178e+00 
2.2895701e+00 0.0000000e+00 1.5463171e+00 
5.0000000e+00 2.2345026e+00 1.5046000e+00 
[...]
POINT_DATA 460
FIELD FieldData 2
DISPLACEMENT 3 460  float
0.0000000e+00 0.0000000e+00 0.0000000e+00 
0.0000000e+00 0.0000000e+00 0.0000000e+00 
0.0000000e+00 -5.5037158e-10 0.0000000e+00 
0.0000000e+00 -3.1089400e-10 0.0000000e+00 
0.0000000e+00 0.0000000e+00 0.0000000e+00 
0.0000000e+00 0.0000000e+00 0.0000000e+00 
0.0000000e+00 -5.6176543e-07 0.0000000e+00 
0.0000000e+00 -1.4999080e-05 0.0000000e+00 
0.0000000e+00 -3.5977610e-09 0.0000000e+00 
0.0000000e+00 -3.5516006e-09 0.0000000e+00 
0.0000000e+00 -3.4023941e-09 0.0000000e+00 
0.0000000e+00 -3.1585434e-09 0.0000000e+00 
0.0000000e+00 -2.8381912e-09 0.0000000e+00 
0.0000000e+00 -2.4627433e-09 0.0000000e+00 
0.0000000e+00 -2.0623461e-09 0.0000000e+00 
0.0000000e+00 -1.6722959e-09 0.0000000e+00 
0.0000000e+00 -1.3207252e-09 0.0000000e+00 
0.0000000e+00 -1.0158933e-09 0.0000000e+00 
0.0000000e+00 -7.3542000e-10 0.0000000e+00 
-2.2646324e-11 -3.9916626e-10 -1.0717598e-09 
3.9875520e-11 2.7535840e-10 -2.6641993e-09 
1.5715975e-11 1.5955244e-09 -3.8991033e-09 
-4.7686542e-11 4.0954515e-09 -6.2828867e-09 
1.6086844e-10 8.1239042e-09 -9.0861008e-09 
2.1565870e-10 1.3690339e-08 -1.2714337e-08 
2.2829513e-10 1.9575774e-08 -1.7723211e-08 
2.5739937e-09 2.2205027e-08 -2.7281340e-08 
1.0736290e-10 1.7541167e-08 -3.2283939e-08 
4.3926986e-09 6.9636710e-09 -4.9494869e-08 
1.7414116e-08 1.7643508e-08 -6.6428939e-08 
1.1573043e-08 1.4241196e-07 -6.0589727e-08 
7.5777464e-09 5.8025660e-07 -4.5351072e-08 
-1.3415730e-07 1.6859190e-06 -9.7221360e-08 
-3.2358378e-07 3.8096300e-06 4.7907093e-07 
-4.7613673e-07 6.6992179e-06 1.2833408e-06 
-1.1186927e-06 7.9069041e-06 3.3081883e-06 
-8.8161335e-07 6.3606940e-08 3.6563274e-06 
-1.7096866e-06 -3.1484058e-05 -5.6154781e-06 
0.0000000e+00 -1.0828076e-04 0.0000000e+00 
0.0000000e+00 -2.5870645e-04 0.0000000e+00 
0.0000000e+00 -4.5424333e-04 0.0000000e+00 
0.0000000e+00 -6.2820071e-04 0.0000000e+00 
0.0000000e+00 -6.6181348e-04 0.0000000e+00 
0.0000000e+00 -5.2828086e-04 0.0000000e+00 
0.0000000e+00 -3.4338655e-04 0.0000000e+00 
0.0000000e+00 -1.8095772e-04 0.0000000e+00 
0.0000000e+00 -7.5035750e-05 0.0000000e+00 
0.0000000e+00 -3.8569811e-05 0.0000000e+00 
0.0000000e+00 -3.4531180e-09 0.0000000e+00 
0.0000000e+00 -3.4464667e-09 0.0000000e+00 
0.0000000e+00 -3.3854757e-09 0.0000000e+00 
0.0000000e+00 -3.1796783e-09 0.0000000e+00 
0.0000000e+00 -2.8486824e-09 0.0000000e+00 
0.0000000e+00 -2.4615929e-09 0.0000000e+00 
0.0000000e+00 -2.0613979e-09 0.0000000e+00 
0.0000000e+00 -1.6743428e-09 0.0000000e+00 
0.0000000e+00 -1.3234823e-09 0.0000000e+00 
0.0000000e+00 -1.0182043e-09 0.0000000e+00 
0.0000000e+00 -7.3954504e-10 0.0000000e+00 
0.0000000e+00 -3.9873851e-10 0.0000000e+00 
0.0000000e+00 2.6673816e-10 0.0000000e+00 
0.0000000e+00 1.5983606e-09 0.0000000e+00 
0.0000000e+00 4.0981747e-09 0.0000000e+00 
0.0000000e+00 8.1536315e-09 0.0000000e+00 
0.0000000e+00 1.3762894e-08 0.0000000e+00 
0.0000000e+00 1.9610285e-08 0.0000000e+00 
0.0000000e+00 2.2130733e-08 0.0000000e+00 
0.0000000e+00 1.6889503e-08 0.0000000e+00 
0.0000000e+00 5.0862496e-09 0.0000000e+00 
0.0000000e+00 1.4301086e-08 0.0000000e+00 
0.0000000e+00 1.3629879e-07 0.0000000e+00 
0.0000000e+00 5.7657547e-07 0.0000000e+00 
0.0000000e+00 1.6963196e-06 0.0000000e+00 
0.0000000e+00 3.8673429e-06 0.0000000e+00 
0.0000000e+00 6.8453323e-06 0.0000000e+00 
0.0000000e+00 8.1276075e-06 0.0000000e+00 
0.0000000e+00 3.6373848e-07 0.0000000e+00 
0.0000000e+00 -3.1051321e-05 0.0000000e+00 
0.0000000e+00 -1.1010626e-04 0.0000000e+00 
0.0000000e+00 -2.5974269e-04 0.0000000e+00 
0.0000000e+00 -4.5605795e-04 0.0000000e+00 
0.0000000e+00 -6.3070242e-04 0.0000000e+00 
0.0000000e+00 -6.6444755e-04 0.0000000e+00 
0.0000000e+00 -5.3039071e-04 0.0000000e+00 
0.0000000e+00 -3.4476191e-04 0.0000000e+00 
0.0000000e+00 -1.8168542e-04 0.0000000e+00 
0.0000000e+00 -7.5340249e-05 0.0000000e+00 
0.0000000e+00 -3.8728460e-05 0.0000000e+00 
0.0000000e+00 0.0000000e+00 0.0000000e+00 
0.0000000e+00 0.0000000e+00 0.0000000e+00 
0.0000000e+00 0.0000000e+00 0.0000000e+00 
0.0000000e+00 0.0000000e+00 0.0000000e+00 
0.0000000e+00 0.0000000e+00 0.0000000e+00 
0.0000000e+00 0.0000000e+00 0.0000000e+00 
0.0000000e+00 0.0000000e+00 0.0000000e+00 
0.0000000e+00 0.0000000e+00 0.0000000e+00 
0.0000000e+00 0.0000000e+00 0.0000000e+00 
0.0000000e+00 0.0000000e+00 0.0000000e+00 
0.0000000e+00 0.0000000e+00 0.0000000e+00 
0.0000000e+00 0.0000000e+00 0.0000000e+00 
0.0000000e+00 0.0000000e+00 0.0000000e+00 
0.0000000e+00 0.0000000e+00 0.0000000e+00 
0.0000000e+00 0.0000000e+00 0.0000000e+00 
0.0000000e+00 0.0000000e+00 0.0000000e+00 
0.0000000e+00 0.0000000e+00 0.0000000e+00 
0.0000000e+00 0.0000000e+00 0.0000000e+00 
0.0000000e+00 0.0000000e+00 0.0000000e+00 
0.0000000e+00 0.0000000e+00 0.0000000e+00 
0.0000000e+00 0.0000000e+00 0.0000000e+00 
0.0000000e+00 0.0000000e+00 0.0000000e+00 
0.0000000e+00 0.0000000e+00 0.0000000e+00 
0.0000000e+00 -2.4810995e-10 0.0000000e+00 
0.0000000e+00 -4.8430771e-10 0.0000000e+00 
0.0000000e+00 -2.8766617e-10 0.0000000e+00 
0.0000000e+00 -1.4214874e-10 0.0000000e+00 
0.0000000e+00 0.0000000e+00 0.0000000e+00 
0.0000000e+00 0.0000000e+00 0.0000000e+00 
0.0000000e+00 0.0000000e+00 0.0000000e+00 
0.0000000e+00 0.0000000e+00 0.0000000e+00 
0.0000000e+00 0.0000000e+00 0.0000000e+00 
0.0000000e+00 0.0000000e+00 0.0000000e+00 
0.0000000e+00 0.0000000e+00 0.0000000e+00 
0.0000000e+00 0.0000000e+00 0.0000000e+00 
0.0000000e+00 0.0000000e+00 0.0000000e+00 
0.0000000e+00 0.0000000e+00 0.0000000e+00 
0.0000000e+00 0.0000000e+00 0.0000000e+00 
0.0000000e+00 0.0000000e+00 0.0000000e+00 
0.0000000e+00 0.0000000e+00 0.0000000e+00 
0.0000000e+00 0.0000000e+00 0.0000000e+00 
0.0000000e+00 0.0000000e+00 0.0000000e+00 
0.0000000e+00 0.0000000e+00 0.0000000e+00 
0.0000000e+00 0.0000000e+00 0.0000000e+00 
0.0000000e+00 0.0000000e+00 0.0000000e+00 
0.0000000e+00 0.0000000e+00 0.0000000e+00 
0.0000000e+00 0.0000000e+00 0.0000000e+00 
0.0000000e+00 0.0000000e+00 0.0000000e+00 
0.0000000e+00 0.0000000e+00 0.0000000e+00 
0.0000000e+00 -4.9506649e-11 0.0000000e+00 
0.0000000e+00 1.4749549e-09 0.0000000e+00 
0.0000000e+00 6.4674550e-09 0.0000000e+00 
0.0000000e+00 1.6209322e-08 0.0000000e+00 
0.0000000e+00 3.0574409e-08 0.0000000e+00 
0.0000000e+00 4.1693241e-08 0.0000000e+00 
0.0000000e+00 -2.9675997e-08 0.0000000e+00 
0.0000000e+00 -1.5516660e-07 0.0000000e+00 
0.0000000e+00 -4.7536437e-07 0.0000000e+00 
0.0000000e+00 -3.0693548e-07 0.0000000e+00 
0.0000000e+00 -4.9960420e-07 0.0000000e+00 
0.0000000e+00 4.5162857e-10 0.0000000e+00 
0.0000000e+00 3.5216132e-09 0.0000000e+00 
0.0000000e+00 1.1681752e-08 0.0000000e+00 
0.0000000e+00 2.9836425e-08 0.0000000e+00 
0.0000000e+00 8.1229402e-08 0.0000000e+00 
0.0000000e+00 2.6190054e-07 0.0000000e+00 
0.0000000e+00 9.1801513e-07 0.0000000e+00 
0.0000000e+00 2.4427894e-07 0.0000000e+00 
0.0000000e+00 -8.1071748e-06 0.0000000e+00 
0.0000000e+00 -1.5215303e-05 0.0000000e+00 
0.0000000e+00 -7.7562527e-06 0.0000000e+00 
0.0000000e+00 -6.0077421e-10 0.0000000e+00 
0.0000000e+00 -4.7394288e-10 0.0000000e+00 
0.0000000e+00 -3.1338440e-10 0.0000000e+00 
0.0000000e+00 -9.7336499e-07 0.0000000e+00 
0.0000000e+00 -2.6549808e-06 0.0000000e+00 
0.0000000e+00 -7.0048982e-06 0.0000000e+00 
0.0000000e+00 -7.0851458e-10 0.0000000e+00 
0.0000000e+00 -2.7651351e-10 0.0000000e+00 
0.0000000e+00 -1.0126248e-09 0.0000000e+00 
0.0000000e+00 -8.2103369e-10 0.0000000e+00 
0.0000000e+00 -4.5490961e-10 0.0000000e+00 
0.0000000e+00 -9.8960196e-10 0.0000000e+00 
0.0000000e+00 -2.3946764e-10 0.0000000e+00 
0.0000000e+00 -5.7670774e-10 0.0000000e+00 
0.0000000e+00 -8.4578805e-10 0.0000000e+00 
0.0000000e+00 -7.3541684e-10 0.0000000e+00 
0.0000000e+00 -3.3234837e-10 0.0000000e+00 
0.0000000e+00 -7.7625251e-10 0.0000000e+00 
0.0000000e+00 -6.3215139e-10 0.0000000e+00 
0.0000000e+00 -2.3089095e-10 0.0000000e+00 
0.0000000e+00 0.0000000e+00 0.0000000e+00 
0.0000000e+00 0.0000000e+00 0.0000000e+00 
0.0000000e+00 0.0000000e+00 0.0000000e+00 
0.0000000e+00 0.0000000e+00 0.0000000e+00 
0.0000000e+00 0.0000000e+00 0.0000000e+00 
0.0000000e+00 0.0000000e+00 0.0000000e+00 
0.0000000e+00 0.0000000e+00 0.0000000e+00 
0.0000000e+00 0.0000000e+00 0.0000000e+00 
0.0000000e+00 0.0000000e+00 0.0000000e+00 
0.0000000e+00 0.0000000e+00 0.0000000e+00 
0.0000000e+00 0.0000000e+00 0.0000000e+00 
0.0000000e+00 0.0000000e+00 0.0000000e+00 
0.0000000e+00 0.0000000e+00 0.0000000e+00 
0.0000000e+00 0.0000000e+00 0.0000000e+00 
0.0000000e+00 0.0000000e+00 0.0000000e+00 
0.0000000e+00 0.0000000e+00 0.0000000e+00 
0.0000000e+00 0.0000000e+00 0.0000000e+00 
0.0000000e+00 0.0000000e+00 0.0000000e+00 
0.0000000e+00 0.0000000e+00 0.0000000e+00 
0.0000000e+00 0.0000000e+00 0.0000000e+00 
0.0000000e+00 0.0000000e+00 0.0000000e+00 
0.0000000e+00 0.0000000e+00 0.0000000e+00 
0.0000000e+00 0.0000000e+00 0.0000000e+00 
0.0000000e+00 0.0000000e+00 0.0000000e+00 
0.0000000e+00 0.0000000e+00 0.0000000e+00 
0.0000000e+00 0.0000000e+00 0.0000000e+00 
0.0000000e+00 0.0000000e+00 0.0000000e+00 
0.0000000e+00 0.0000000e+00 0.0000000e+00 
0.0000000e+00 0.0000000e+00 0.0000000e+00 
0.0000000e+00 0.0000000e+00 0.0000000e+00 
0.0000000e+00 0.0000000e+00 0.0000000e+00 
0.0000000e+00 0.0000000e+00 0.0000000e+00 
0.0000000e+00 0.0000000e+00 0.0000000e+00 
0.0000000e+00 0.0000000e+00 0.0000000e+00 
0.0000000e+00 0.0000000e+00 0.0000000e+00 
0.0000000e+00 0.0000000e+00 0.0000000e+00 
0.0000000e+00 0.0000000e+00 0.0000000e+00 
0.0000000e+00 0.0000000e+00 0.0000000e+00 
0.0000000e+00 0.0000000e+00 0.0000000e+00 
0.0000000e+00 0.0000000e+00 0.0000000e+00 
0.0000000e+00 0.0000000e+00 0.0000000e+00 
0.0000000e+00 0.0000000e+00 0.0000000e+00 
0.0000000e+00 0.0000000e+00 0.0000000e+00 
0.0000000e+00 0.0000000e+00 0.0000000e+00 
0.0000000e+00 0.0000000e+00 0.0000000e+00 
0.0000000e+00 0.0000000e+00 0.0000000e+00 
0.0000000e+00 0.0000000e+00 0.0000000e+00 
0.0000000e+00 0.0000000e+00 0.0000000e+00 
0.0000000e+00 0.0000000e+00 0.0000000e+00 
0.0000000e+00 3.4456157e-10 0.0000000e+00 
0.0000000e+00 -2.9158298e-07 0.0000000e+00 
0.0000000e+00 8.9156753e-09 0.0000000e+00 
0.0000000e+00 3.5490256e-08 0.0000000e+00 
0.0000000e+00 -7.6736050e-08 0.0000000e+00 
0.0000000e+00 1.3564304e-09 0.0000000e+00 
0.0000000e+00 9.2279482e-09 0.0000000e+00 
0.0000000e+00 1.1812205e-08 0.0000000e+00 
0.0000000e+00 4.6386397e-09 0.0000000e+00 
0.0000000e+00 1.4214964e-08 0.0000000e+00 
0.0000000e+00 2.4761708e-09 0.0000000e+00 
0.0000000e+00 2.0019179e-08 0.0000000e+00 
0.0000000e+00 4.2575174e-08 0.0000000e+00 
0.0000000e+00 -3.0925612e-08 0.0000000e+00 
0.0000000e+00 2.4586688e-10 0.0000000e+00 
0.0000000e+00 -1.2095173e-07 0.0000000e+00 
0.0000000e+00 -1.8898541e-07 0.0000000e+00 
0.0000000e+00 -1.7200978e-10 0.0000000e+00 
0.0000000e+00 2.1782304e-08 0.0000000e+00 
0.0000000e+00 1.7564485e-08 0.0000000e+00 
0.0000000e+00 8.7087504e-10 0.0000000e+00 
0.0000000e+00 3.2763147e-08 0.0000000e+00 
0.0000000e+00 1.0916288e-08 0.0000000e+00 
0.0000000e+00 4.3784705e-09 0.0000000e+00 
0.0000000e+00 -8.9513925e-08 0.0000000e+00 
0.0000000e+00 -4.0120230e-07 0.0000000e+00 
0.0000000e+00 -1.4975035e-07 0.0000000e+00 
0.0000000e+00 -3.0691899e-10 0.0000000e+00 
0.0000000e+00 -6.1317965e-11 0.0000000e+00 
0.0000000e+00 -5.7278153e-06 0.0000000e+00 
0.0000000e+00 2.1203493e-10 0.0000000e+00 
0.0000000e+00 2.5410150e-09 0.0000000e+00 
0.0000000e+00 2.4282444e-08 0.0000000e+00 
0.0000000e+00 -2.1125511e-07 0.0000000e+00 
0.0000000e+00 1.6822586e-08 0.0000000e+00 
0.0000000e+00 1.3542498e-07 0.0000000e+00 
0.0000000e+00 1.0049474e-07 0.0000000e+00 
0.0000000e+00 7.8734788e-09 0.0000000e+00 
0.0000000e+00 5.5544565e-09 0.0000000e+00 
0.0000000e+00 4.6819771e-08 0.0000000e+00 
0.0000000e+00 3.9083105e-07 0.0000000e+00 
0.0000000e+00 1.8598203e-07 0.0000000e+00 
0.0000000e+00 -2.6811704e-06 0.0000000e+00 
0.0000000e+00 1.3564719e-09 0.0000000e+00 
0.0000000e+00 7.9457302e-10 0.0000000e+00 
0.0000000e+00 -1.2700252e-06 0.0000000e+00 
0.0000000e+00 6.8587099e-08 0.0000000e+00 
0.0000000e+00 9.2312277e-08 0.0000000e+00 
0.0000000e+00 2.4182997e-08 0.0000000e+00 
0.0000000e+00 7.7334974e-09 0.0000000e+00 
0.0000000e+00 1.9962927e-07 0.0000000e+00 
0.0000000e+00 6.3634360e-08 0.0000000e+00 
0.0000000e+00 -8.2626667e-07 0.0000000e+00 
0.0000000e+00 2.1669813e-09 0.0000000e+00 
0.0000000e+00 -2.8382333e-06 0.0000000e+00 
0.0000000e+00 -1.6082136e-11 0.0000000e+00 
0.0000000e+00 1.6881796e-10 0.0000000e+00 
0.0000000e+00 -1.1370379e-05 0.0000000e+00 
0.0000000e+00 -4.2142583e-06 0.0000000e+00 
0.0000000e+00 -6.4952633e-07 0.0000000e+00 
0.0000000e+00 -4.7227509e-06 0.0000000e+00 
0.0000000e+00 -2.2017235e-05 0.0000000e+00 
0.0000000e+00 -2.1612025e-06 0.0000000e+00 
0.0000000e+00 -1.7924017e-06 0.0000000e+00 
0.0000000e+00 -8.7887605e-07 0.0000000e+00 
0.0000000e+00 -1.6106884e-05 0.0000000e+00 
0.0000000e+00 -7.5852367e-06 0.0000000e+00 
0.0000000e+00 -2.2608481e-06 0.0000000e+00 
0.0000000e+00 -3.5593942e-07 0.0000000e+00 
0.0000000e+00 -7.6927728e-07 0.0000000e+00 
0.0000000e+00 -3.1918618e-05 0.0000000e+00 
0.0000000e+00 -6.7618357e-06 0.0000000e+00 
7.2219590e-09 5.6256205e-08 -4.3593744e-08 
4.2594181e-08 3.7954572e-07 -2.0057788e-08 
-1.9485071e-07 1.9463653e-06 8.3748398e-07 
8.6790569e-10 5.2279088e-09 -9.1511270e-09 
1.5239746e-09 1.4244654e-08 -1.7764437e-08 
2.4273177e-09 5.1341249e-08 1.6999657e-08 
1.6609194e-09 4.1047383e-09 -4.0173704e-09 
-7.7547199e-08 -5.8524957e-08 1.9132383e-07 
1.9216795e-10 6.0163935e-10 -3.6340897e-09 
-1.0296271e-06 -2.3449713e-06 3.2035821e-06 
5.8529082e-10 -2.3354485e-10 -2.1351074e-09 
-6.5630775e-07 -1.4600141e-06 3.8420396e-07 
-2.4711937e-08 3.4389519e-08 1.0795812e-07 
-5.5297296e-08 6.7106114e-08 2.8394743e-07 
-2.5770751e-07 -3.7694005e-07 6.7110244e-07 
-1.4461375e-07 3.2276734e-08 4.4040499e-07 
2.5709743e-09 1.5999385e-07 1.7192799e-07 
-4.7136081e-07 -1.0556066e-06 9.1994423e-07 
4.6398011e-08 5.8620509e-07 2.9703918e-07 
2.5051984e-08 9.5452712e-08 1.0823388e-07 
1.1282503e-08 6.5190179e-08 2.3969054e-08 
3.3565733e-08 1.1123936e-07 3.2304829e-08 
2.3212250e-08 7.1862559e-08 -1.5354532e-08 
1.0858258e-08 4.2828692e-08 -1.0024300e-08 
9.4279731e-09 3.4607080e-08 -1.9377252e-08 
6.6004984e-09 1.9531100e-08 -1.1325902e-08 
4.1068491e-09 1.6158964e-08 -1.5453107e-08 
3.3921916e-09 9.7925517e-09 -1.0506908e-08 
2.8409255e-09 6.8296448e-09 -1.1610243e-08 
2.2452871e-09 3.9616768e-09 -7.6165181e-09 
1.2561745e-09 1.8907753e-09 -6.7235999e-09 
3.1104900e-08 1.1974701e-07 -3.4431856e-08 
4.0187992e-08 2.0489246e-07 1.2933785e-08 
5.1250333e-09 2.2989267e-08 -2.3032378e-08 
3.8966843e-09 1.2507953e-08 -5.7311760e-09 
-9.9766635e-07 -3.1729219e-06 7.9882483e-07 
1.3019821e-08 5.0596785e-08 -2.8070753e-08 
5.5853011e-09 3.0701553e-08 5.3366239e-10 
5.5091548e-10 -4.2132864e-10 -2.5516194e-09 
-3.1563823e-07 -4.5182009e-07 3.2153554e-07 
-2.9524461e-09 4.7708278e-07 7.9208758e-07 
-2.1849191e-07 -5.8250760e-07 1.1084481e-06 
3.0749259e-08 1.8273673e-07 -4.0846391e-08 
8.9407942e-10 5.4885735e-10 -2.0085866e-09 
1.0439944e-09 8.7281400e-09 -1.2515041e-08 
2.5761326e-09 1.1155130e-08 -1.5137671e-08 
2.8109424e-09 2.1330917e-08 -2.4490879e-08 
7.3954349e-09 3.3151931e-08 -3.6061607e-08 
4.1431790e-08 7.7799854e-07 1.1628761e-07 
6.9814767e-08 1.2895702e-06 4.7998344e-07 
1.5100278e-10 -3.5064793e-10 -1.7588243e-09 
5.1184135e-10 2.3099569e-09 -5.7514731e-09 
-3.3306799e-07 -1.1004992e-05 2.0112861e-06 
1.1545743e-09 4.9627824e-10 -4.0850914e-09 
1.7225342e-09 6.0514389e-09 -1.0757375e-08 
-1.2049506e-07 5.9208435e-07 2.0485797e-06 
5.7564595e-08 3.4332595e-07 1.1667816e-07 
6.9731132e-10 1.1450002e-09 -4.8782973e-09 
1.4535444e-08 9.6195130e-08 -4.8630998e-08 
-5.9478594e-07 -1.0344659e-06 7.8899637e-07 
-3.0965896e-07 -7.0789287e-07 1.9421347e-07 
3.9964099e-10 -4.1451567e-10 -1.0484400e-09 
7.9901072e-09 2.4414506e-08 -9.0513899e-09 
1.1239685e-09 2.6200211e-09 -7.2079613e-09 
-9.1673320e-07 -3.6743472e-06 1.9540055e-06 
3.7121676e-08 1.8218007e-07 9.9430551e-08 
1.4123768e-09 1.9248680e-09 -4.7169784e-09 
3.0975855e-09 7.7228366e-09 -7.6853928e-09 
3.7166251e-10 -1.7263897e-10 -2.6344833e-09 
1.3525219e-08 7.6994738e-08 -3.8382066e-08 
-1.4755479e-06 -6.2250078e-06 1.9697150e-06 
-1.1826462e-10 5.0412199e-09 -5.3142530e-09 
-1.9254159e-10 2.8406706e-09 -3.8144243e-09 
-3.8209588e-10 9.8123367e-09 -7.5609430e-09 
-3.3407210e-10 1.5180149e-08 -9.3316972e-09 
-6.2299561e-11 9.5196850e-10 -2.4664042e-09 
-4.9564963e-10 2.3189422e-08 -1.1992514e-08 
2.4143387e-10 3.6092995e-08 -1.8237696e-08 
3.8421150e-10 5.9005707e-08 -2.4701945e-08 
-7.8033429e-09 1.0095874e-07 -4.2043816e-08 
-2.0684904e-08 2.1351025e-07 -3.9067935e-08 
-1.9840025e-08 4.2783662e-07 8.2120613e-09 
-3.6104570e-08 8.6375070e-07 9.1650634e-08 
-1.4953260e-08 1.5734278e-06 4.7781560e-07 
4.6487560e-08 2.3184364e-06 9.7722932e-07 
-1.6297911e-07 5.0417208e-07 1.9265713e-06 
-8.4985835e-08 -4.1408607e-06 2.2036709e-06 
-1.2647755e-06 -1.8178836e-05 1.3135209e-06 
-1.3599909e-10 -2.2046726e-11 -1.1728777e-09 
2.0686050e-10 1.7768989e-09 2.9909566e-10 
3.8967171e-10 1.3151165e-08 2.0504720e-09 
-1.5332999e-08 1.2404720e-07 -3.0301524e-09 
-6.3050209e-08 2.2932396e-07 -2.1263199e-07 
1.7872161e-07 -1.8756029e-06 -1.4678347e-06 
-5.8146380e-11 3.4562864e-09 1.7175422e-09 
-2.3499260e-09 2.1290012e-08 2.2784508e-09 
-2.7456831e-08 1.3107964e-07 -6.5160656e-08 
-3.7076753e-10 4.0665686e-08 -6.1156191e-09 
2.2544784e-10 6.9117418e-09 -3.6652434e-09 
8.3833711e-11 2.3907970e-10 -1.0326865e-09 
1.0733482e-07 -5.9551372e-08 -4.0314160e-07 
3.1110584e-10 -1.8562371e-10 -2.9798522e-10 
-2.8049532e-08 4.0260934e-07 3.3018683e-08 
-2.4930504e-08 1.3323743e-06 -3.6557452e-07 
1.4188224e-10 1.9104226e-08 -7.6845188e-09 
1.1387971e-09 4.3247894e-08 -2.4838856e-10 
8.1017165e-10 5.3454481e-09 -1.1472511e-09 
-7.1147491e-11 1.1118553e-07 -6.7203838e-09 
-4.7428168e-09 3.1159853e-08 7.7506117e-09 
3.0538651e-11 2.7359812e-09 -3.1144305e-09 
-5.2340967e-09 3.5634820e-08 -9.6772803e-09 
4.9322870e-07 -3.5258754e-06 -2.2723650e-06 
-6.8373161e-11 3.6108805e-10 7.5135587e-10 
1.6485276e-07 -6.3972584e-07 -1.4877998e-07 
3.4678437e-11 4.3568158e-09 2.3598996e-09 
-1.1973624e-08 5.4947431e-08 -1.4452753e-08 
-8.9126602e-11 1.6117320e-09 1.4587785e-09 
-7.8538187e-10 5.7062013e-09 2.7178300e-09 
1.7142238e-09 1.4004471e-08 -2.4643907e-09 
5.7971632e-09 4.3724764e-08 -2.0861840e-08 
-7.8487901e-08 2.4014315e-07 -8.0307627e-09 
-1.0799484e-07 1.0664343e-06 6.2750729e-08 
-1.0390466e-08 1.6038200e-07 5.9606426e-09 
3.4220105e-07 -1.4157787e-06 -4.8722939e-07 
-2.0813091e-07 -8.2303828e-08 -3.0406571e-07 
1.0549318e-10 9.5117178e-11 5.1492538e-10 
1.6146770e-10 8.6345047e-09 1.3102321e-09 
1.0280037e-10 3.1111283e-10 5.6028093e-10 
-6.7420336e-09 1.6278842e-07 -5.3079955e-08 
-8.4280111e-10 1.6171207e-08 4.2385984e-09 
2.7249322e-07 -3.8693070e-06 -4.2573933e-07 
-7.0255489e-08 -7.9094264e-08 -8.3993496e-07 
3.0718004e-09 2.2110180e-08 -9.6668940e-09 
3.7750475e-10 2.1898296e-10 -1.7060299e-09 
-3.0190379e-09 7.2917601e-08 -1.5708755e-10 
-5.8780864e-10 3.3722778e-09 1.8886190e-09 
8.9143178e-08 -1.1663068e-07 -4.5706042e-07 
7.7137507e-10 1.4341897e-09 -1.6756688e-09 
-3.9475578e-09 5.2007096e-08 8.7166354e-09 
3.8129053e-10 1.7716368e-09 -2.3043083e-10 
4.5826997e-08 -2.9683653e-08 -1.5912748e-07 
-7.6941653e-08 -7.5745123e-07 -2.5810567e-07 
-2.0334308e-08 2.8968026e-07 2.2583006e-08 
-5.5291212e-09 1.5592560e-07 1.8740410e-08 
-2.8457455e-08 8.4616588e-08 -6.7113085e-08 
3.0807664e-07 -2.8485908e-06 -1.8076774e-06 
3.0735725e-10 -5.1382648e-10 -3.5689290e-10 
9.9283615e-10 2.0640837e-08 9.7869668e-10 
-1.4399569e-09 8.2783194e-09 5.2869142e-10 
-7.1123401e-09 7.2769673e-08 1.0890509e-08 
6.1987206e-09 3.5130682e-08 -5.3376581e-08 
7.7836509e-10 2.8235931e-09 -3.8113677e-09 
-5.7890752e-08 1.4526420e-06 -2.3792728e-07 
-3.2861536e-09 1.6141128e-08 3.1054159e-09 
-3.3100385e-08 -1.3813735e-07 6.3931793e-08 