# vtk DataFile Version 4.0
vtk output
ASCII
DATASET UNSTRUCTURED_GRID
POINTS 460 float
0.0000000e+00 0.0000000e+00 0.0000000e+00 
5.0000000e+00 0.0000000e+00 0.0000000e+00 
5.0000000e+00 3.0000000e+00 0.0000000e+00 
0.0000000e+00 3.0000000e+00 0.0000000e+00 
0.0000000e+00 0.0000000e+00 1.0000000e+01 
5.0000000e+00 0.0000000e+00 1.0000000e+01 
5.0000000e+00 3.0000000e+00 1.0000000e+01 
0.0000000e+00 3.0000000e+00 1.0000000e+01 
1.0000000e+00 3.0000000e+00 -5.0000000e+00 
1.0000000e+00 3.0000000e+00 -4.5000000e+00 
1.0000000e+00 3.0000000e+00 -4.0000000e+00 
1.0000000e+00 3.0000000e+00 -3.5000000e+00 
1.0000000e+00 3.0000000e+00 -3.0000000e+00 
1.0000000e+00 3.0000000e+00 -2.5000000e+00 
1.0000000e+00 3.0000000e+00 -2.0000000e+00 
1.0000000e+00 3.0000000e+00 -1.5000000e+00 
1.0000000e+00 3.0000000e+00 -1.0000000e+00 
1.0000000e+00 3.0000000e+00 -5.0000000e-01 
1.0000000e+00 3.0000000e+00 0.0000000e+00 
1.0000000e+00 3.0000000e+00 5.0000000e-01 
1.0000000e+00 3.0000000e+00 1.0000000e+00 
1.0000000e+00 3.0000000e+00 1.5000000e+00 
1.0000000e+00 3.0000000e+00 2.0000000e+00 
1.0000000e+00 3.0000000e+00 2.5000000e+00 
1.0000000e+00 3.0000000e+00 3.0000000e+00 
1.0000000e+00 3.0000000e+00 3.5000000e+00 
1.0000000e+00 3.0000000e+00 4.0000000e+00 
1.0000000e+00 3.0000000e+00 4.5000000e+00 
1.0000000e+00 3.0000000e+00 5.0000000e+00 
1.0000000e+00 3.0000000e+00 5.5000000e+00 
1.0000000e+00 3.0000000e+00 6.0000000e+00 
1.0000000e+00 3.0000000e+00 6.5000000e+00 
1.0000000e+00 3.0000000e+00 7.0000000e+00 
1.0000000e+00 3.0000000e+00 7.5000000e+00 
1.0000000e+00 3.0000000e+00 8.0000000e+00 
1.0000000e+00 3.0000000e+00 8.5000000e+00 
1.0000000e+00 3.0000000e+00 9.0000000e+00 
1.0000000e+00 3.0000000e+00 9.5000000e+00 
1.0000000e+00 3.0000000e+00 1.0000000e+01 
1.0000000e+00 3.0000000e+00 1.0500000e+01 
1.0000000e+00 3.0000000e+00 1.1000000e+01 
1.0000000e+00 3.0000000e+00 1.1500000e+01 
1.0000000e+00 3.0000000e+00 1.2000000e+01 
1.0000000e+00 3.0000000e+00 1.2500000e+01 
1.0000000e+00 3.0000000e+00 1.3000000e+01 
1.0000000e+00 3.0000000e+00 1.3500000e+01 
1.0000000e+00 3.0000000e+00 1.4000000e+01 
1.0000000e+00 3.0000000e+00 1.4500000e+01 
1.0000000e+00 3.0250001e+00 -5.0000000e+00 
1.0000000e+00 3.0250001e+00 -4.5000000e+00 
1.0000000e+00 3.0250001e+00 -4.0000000e+00 
1.0000000e+00 3.0250001e+00 -3.5000000e+00 
1.0000000e+00 3.0250001e+00 -3.0000000e+00 
1.0000000e+00 3.0250001e+00 -2.5000000e+00 
1.0000000e+00 3.0250001e+00 -2.0000000e+00 
1.0000000e+00 3.0250001e+00 -1.5000000e+00 
1.0000000e+00 3.0250001e+00 -1.0000000e+00 
1.0000000e+00 3.0250001e+00 -5.0000000e-01 
1.0000000e+00 3.0250001e+00 0.0000000e+00 
1.0000000e+00 3.0250001e+00 5.0000000e-01 
1.0000000e+00 3.0250001e+00 1.0000000e+00 
1.0000000e+00 3.0250001e+00 1.5000000e+00 
1.0000000e+00 3.0250001e+00 2.0000000e+00 
1.0000000e+00 3.0250001e+00 2.5000000e+00 
1.0000000e+00 3.0250001e+00 3.0000000e+00 
1.0000000e+00 3.0250001e+00 3.5000000e+00 
1.0000000e+00 3.0250001e+00 4.0000000e+00 
1.0000000e+00 3.0250001e+00 4.5000000e+00 
1.0000000e+00 3.0250001e+00 5.0000000e+00 
1.0000000e+00 3.0250001e+00 5.5000000e+00 
1.0000000e+00 3.0250001e+00 6.0000000e+00 
1.0000000e+00 3.0250001e+00 6.5000000e+00 
1.0000000e+00 3.0250001e+00 7.0000000e+00 
1.0000000e+00 3.0250001e+00 7.5000000e+00 
1.0000000e+00 3.0250001e+00 8.0000000e+00 
1.0000000e+00 3.0250001e+00 8.5000000e+00 
1.0000000e+00 3.0250001e+00 9.0000000e+00 
1.0000000e+00 3.0250001e+00 9.5000000e+00 
1.0000000e+00 3.0250001e+00 1.0000000e+01 
1.0000000e+00 3.0250001e+00 1.0500000e+01 
1.0000000e+00 3.0250001e+00 1.1000000e+01 
1.0000000e+00 3.0250001e+00 1.1500000e+01 
1.0000000e+00 3.0250001e+00 1.2000000e+01 
1.0000000e+00 3.0250001e+00 1.2500000e+01 
1.0000000e+00 3.0250001e+00 1.3000000e+01 
1.0000000e+00 3.0250001e+00 1.3500000e+01 
1.0000000e+00 3.0250001e+00 1.4000000e+01 
1.0000000e+00 3.0250001e+00 1.4500000e+01 
1.0000000e+00 -2.0000000e+00 -5.0000000e+00 
1.0000000e+00 -2.0000000e+00 -4.5000000e+00 
1.0000000e+00 -2.0000000e+00 -4.0000000e+00 
1.0000000e+00 -2.0000000e+00 -3.5000000e+00 
1.0000000e+00 -2.0000000e+00 -3.0000000e+00 
1.0000000e+00 -2.0000000e+00 -2.5000000e+00 
1.0000000e+00 -2.0000000e+00 -2.0000000e+00 
1.0000000e+00 -2.0000000e+00 -1.5000000e+00 
1.0000000e+00 -2.0000000e+00 -1.0000000e+00 
1.0000000e+00 -2.0000000e+00 -5.0000000e-01 
1.0000000e+00 -2.0000000e+00 1.0500000e+01 
1.0000000e+00 -2.0000000e+00 1.1000000e+01 
1.0000000e+00 -2.0000000e+00 1.1500000e+01 
1.0000000e+00 -2.0000000e+00 1.2000000e+01 
1.0000000e+00 -2.0000000e+00 1.2500000e+01 
1.0000000e+00 -2.0000000e+00 1.3000000e+01 
1.0000000e+00 -2.0000000e+00 1.3500000e+01 
1.0000000e+00 -2.0000000e+00 1.4000000e+01 
1.0000000e+00 -2.0000000e+00 1.4500000e+01 
1.0000000e+00 0.0000000e+00 0.0000000e+00 
2.0000000e+00 0.0000000e+00 0.0000000e+00 
3.0000000e+00 0.0000000e+00 0.0000000e+00 
4.0000000e+00 0.0000000e+00 0.0000000e+00 
5.0000000e+00 1.0000000e+00 0.0000000e+00 
5.0000000e+00 2.0000000e+00 0.0000000e+00 
0.0000000e+00 2.0000000e+00 0.0000000e+00 
0.0000000e+00 1.0000000e+00 0.0000000e+00 
0.0000000e+00 0.0000000e+00 1.0000000e+00 
0.0000000e+00 0.0000000e+00 2.0000000e+00 
0.0000000e+00 0.0000000e+00 3.0000000e+00 
0.0000000e+00 0.0000000e+00 4.0000000e+00 
0.0000000e+00 0.0000000e+00 5.0000000e+00 
0.0000000e+00 0.0000000e+00 6.0000000e+00 
0.0000000e+00 0.0000000e+00 7.0000000e+00 
0.0000000e+00 0.0000000e+00 8.0000000e+00 
0.0000000e+00 0.0000000e+00 9.0000000e+00 
5.0000000e+00 0.0000000e+00 1.0000000e+00 
5.0000000e+00 0.0000000e+00 2.0000000e+00 
5.0000000e+00 0.0000000e+00 3.0000000e+00 
5.0000000e+00 0.0000000e+00 4.0000000e+00 
5.0000000e+00 0.0000000e+00 5.0000000e+00 
5.0000000e+00 0.0000000e+00 6.0000000e+00 
5.0000000e+00 0.0000000e+00 7.0000000e+00 
5.0000000e+00 0.0000000e+00 8.0000000e+00 
5.0000000e+00 0.0000000e+00 9.0000000e+00 
1.0000000e+00 0.0000000e+00 1.0000000e+01 
2.0000000e+00 0.0000000e+00 1.0000000e+01 
3.0000000e+00 0.0000000e+00 1.0000000e+01 
4.0000000e+00 0.0000000e+00 1.0000000e+01 
5.0000000e+00 3.0000000e+00 1.0000000e+00 
5.0000000e+00 3.0000000e+00 2.0000000e+00 
5.0000000e+00 3.0000000e+00 3.0000000e+00 
5.0000000e+00 3.0000000e+00 4.0000000e+00 
5.0000000e+00 3.0000000e+00 5.0000000e+00 
5.0000000e+00 3.0000000e+00 6.0000000e+00 
5.0000000e+00 3.0000000e+00 7.0000000e+00 
5.0000000e+00 3.0000000e+00 8.0000000e+00 
5.0000000e+00 3.0000000e+00 9.0000000e+00 
5.0000000e+00 1.0000000e+00 1.0000000e+01 
5.0000000e+00 2.0000000e+00 1.0000000e+01 
0.0000000e+00 3.0000000e+00 1.0000000e+00 
0.0000000e+00 3.0000000e+00 2.0000000e+00 
0.0000000e+00 3.0000000e+00 3.0000000e+00 
0.0000000e+00 3.0000000e+00 4.0000000e+00 
0.0000000e+00 3.0000000e+00 5.0000000e+00 
0.0000000e+00 3.0000000e+00 6.0000000e+00 
0.0000000e+00 3.0000000e+00 7.0000000e+00 
0.0000000e+00 3.0000000e+00 8.0000000e+00 
0.0000000e+00 3.0000000e+00 9.0000000e+00 
0.0000000e+00 2.0000000e+00 1.0000000e+01 
0.0000000e+00 1.0000000e+00 1.0000000e+01 
4.0000000e+00 3.0000000e+00 0.0000000e+00 
3.0000000e+00 3.0000000e+00 0.0000000e+00 
2.0000000e+00 3.0000000e+00 0.0000000e+00 
4.0000000e+00 3.0000000e+00 1.0000000e+01 
3.0000000e+00 3.0000000e+00 1.0000000e+01 
2.0000000e+00 3.0000000e+00 1.0000000e+01 
4.0618000e+00 1.5000000e+00 0.0000000e+00 
1.5046000e+00 7.6549745e-01 0.0000000e+00 
2.5000000e+00 2.1339746e+00 0.0000000e+00 
1.5046000e+00 2.2345026e+00 0.0000000e+00 
2.4957771e+00 8.1560516e-01 0.0000000e+00 
3.4707544e+00 2.2336540e+00 0.0000000e+00 
3.4700506e+00 7.5794268e-01 0.0000000e+00 
8.6322361e-01 1.5000000e+00 0.0000000e+00 
2.0000000e+00 1.5000000e+00 0.0000000e+00 
2.9960666e+00 1.4974480e+00 0.0000000e+00 
4.2679491e+00 7.3205084e-01 0.0000000e+00 
4.2679491e+00 2.2679491e+00 0.0000000e+00 
7.2695929e-01 2.2730408e+00 0.0000000e+00 
7.2695929e-01 7.2695929e-01 0.0000000e+00 
4.1822505e+00 0.0000000e+00 2.5515697e+00 
4.2017918e+00 0.0000000e+00 4.4725966e+00 
4.1114569e+00 0.0000000e+00 6.5092020e+00 
8.6602539e-01 0.0000000e+00 3.5000000e+00 
8.4778279e-01 0.0000000e+00 5.4684029e+00 
8.9629614e-01 0.0000000e+00 7.5867257e+00 
2.5566745e+00 0.0000000e+00 8.1853306e-01 
2.4918270e+00 0.0000000e+00 9.1386929e+00 
8.4677207e-01 0.0000000e+00 1.5042374e+00 
4.0943027e+00 0.0000000e+00 8.4081745e+00 
8.6281651e-01 0.0000000e+00 2.5007062e+00 
1.7315160e+00 0.0000000e+00 3.0001178e+00 
1.7319617e+00 0.0000000e+00 4.0000196e+00 
2.5980761e+00 0.0000000e+00 3.5000000e+00 
2.5536871e+00 0.0000000e+00 4.4963923e+00 
2.5928419e+00 0.0000000e+00 2.4239938e+00 
1.5037409e+00 0.0000000e+00 9.1535149e+00 
1.8433737e+00 0.0000000e+00 8.1858873e+00 
3.0000000e+00 0.0000000e+00 8.2679491e+00 
2.5000000e+00 0.0000000e+00 7.4019237e+00 
3.5042722e+00 0.0000000e+00 7.4271150e+00 
3.0310018e+00 0.0000000e+00 6.5282087e+00 
2.0373929e+00 0.0000000e+00 6.5307913e+00 
3.4767809e+00 0.0000000e+00 5.8031492e+00 
2.5452602e+00 0.0000000e+00 5.5720768e+00 
1.6456656e+00 0.0000000e+00 1.9697139e+00 
8.6297011e-01 0.0000000e+00 4.4947371e+00 
1.0111579e+00 0.0000000e+00 6.5282545e+00 
3.4994321e+00 0.0000000e+00 8.4691072e-01 
4.1860156e+00 0.0000000e+00 3.5040276e+00 
1.7320508e+00 0.0000000e+00 5.0000000e+00 
4.0544066e+00 0.0000000e+00 1.5781221e+00 
1.5817389e+00 0.0000000e+00 9.3943578e-01 
8.3166349e-01 0.0000000e+00 8.5090933e+00 
3.4686174e+00 0.0000000e+00 9.1752682e+00 
3.0709300e+00 0.0000000e+00 1.5799091e+00 
3.3927374e+00 0.0000000e+00 3.0399952e+00 
3.3826034e+00 0.0000000e+00 3.9747651e+00 
4.3420062e+00 0.0000000e+00 7.4688983e+00 
3.4023225e+00 0.0000000e+00 4.9314723e+00 
1.6740381e+00 0.0000000e+00 7.3014426e+00 
4.2715640e+00 0.0000000e+00 5.4758859e+00 
1.6225953e+00 0.0000000e+00 5.8104177e+00 
4.2679491e+00 0.0000000e+00 9.2679491e+00 
7.3205084e-01 0.0000000e+00 7.3205084e-01 
4.2679491e+00 0.0000000e+00 7.3205084e-01 
7.3205084e-01 0.0000000e+00 9.2679491e+00 
3.4586334e+00 0.0000000e+00 2.2347178e+00 
2.2895701e+00 0.0000000e+00 1.5463171e+00 
5.0000000e+00 2.2345026e+00 1.5046000e+00 
[...]
POINT_DATA 460
FIELD FieldData 2
DISPLACEMENT 3 460  float
0.0000000e+00 0.0000000e+00 0.0000000e+00 
0.0000000e+00 0.0000000e+00 0.0000000e+00 
0.0000000e+00 -8.1976015e-10 0.0000000e+00 
0.0000000e+00 -7.3355944e-10 0.0000000e+00 
0.0000000e+00 0.0000000e+00 0.0000000e+00 
0.0000000e+00 0.0000000e+00 0.0000000e+00 
0.0000000e+00 1.9150379e-09 0.0000000e+00 
0.0000000e+00 -6.0870416e-06 0.0000000e+00 
0.0000000e+00 2.2181150e-10 0.0000000e+00 
0.0000000e+00 2.2412920e-10 0.0000000e+00 
0.0000000e+00 2.3026521e-10 0.0000000e+00 
0.0000000e+00 2.3117738e-10 0.0000000e+00 
0.0000000e+00 2.2329838e-10 0.0000000e+00 
0.0000000e+00 2.0850119e-10 0.0000000e+00 
0.0000000e+00 1.8387551e-10 0.0000000e+00 
0.0000000e+00 1.3764875e-10 0.0000000e+00 
0.0000000e+00 5.0565007e-11 0.0000000e+00 
0.0000000e+00 -1.0050324e-10 0.0000000e+00 
0.0000000e+00 -3.4388917e-10 0.0000000e+00 
-5.2578910e-11 -6.8002354e-10 -3.0872052e-10 
-1.0134614e-10 -1.2781873e-09 -7.1932077e-10 
-1.4125814e-10 -2.2571642e-09 -1.3734455e-09 
-1.6705606e-10 -3.7002783e-09 -2.6056237e-09 
3.4511984e-11 -4.9265863e-09 -5.4016445e-09 
-2.0789221e-11 -4.1431329e-09 -9.4620516e-09 
-3.3182948e-10 2.6422520e-09 -1.4694429e-08 
3.3022216e-09 2.1823922e-08 -2.2645503e-08 
3.4422130e-09 6.0720822e-08 -3.1572149e-08 
2.0696749e-09 1.2294970e-07 -2.4575739e-08 
-5.8837544e-09 2.0172709e-07 -7.0858752e-10 
-7.7871611e-09 2.6113241e-07 6.5605903e-08 
-5.2331291e-08 2.1017563e-07 2.0179779e-07 
-6.5278222e-08 -1.2564094e-07 4.0884220e-07 
-1.2351899e-07 -9.9065267e-07 5.9248418e-07 
-1.7388332e-07 -2.6335370e-06 7.4831991e-07 
-2.8465769e-07 -4.9721666e-06 1.3038079e-06 
-5.9901345e-07 -7.2022672e-06 9.7136069e-07 
-2.9544782e-07 -7.3984947e-06 1.0542842e-06 
0.0000000e+00 -2.0387581e-06 0.0000000e+00 
0.0000000e+00 1.5105333e-05 0.0000000e+00 
0.0000000e+00 4.4404322e-05 0.0000000e+00 
0.0000000e+00 8.5692234e-05 0.0000000e+00 
0.0000000e+00 1.3609565e-04 0.0000000e+00 
0.0000000e+00 1.9039995e-04 0.0000000e+00 
0.0000000e+00 2.4164008e-04 0.0000000e+00 
0.0000000e+00 2.8246333e-04 0.0000000e+00 
0.0000000e+00 3.0724247e-04 0.0000000e+00 
0.0000000e+00 3.1474675e-04 0.0000000e+00 
0.0000000e+00 3.3109948e-10 0.0000000e+00 
0.0000000e+00 2.9974784e-10 0.0000000e+00 
0.0000000e+00 2.3821545e-10 0.0000000e+00 
0.0000000e+00 2.1618972e-10 0.0000000e+00 
0.0000000e+00 2.1980996e-10 0.0000000e+00 
0.0000000e+00 2.1262342e-10 0.0000000e+00 
0.0000000e+00 1.8630962e-10 0.0000000e+00 
0.0000000e+00 1.3770658e-10 0.0000000e+00 
0.0000000e+00 5.0231135e-11 0.0000000e+00 
0.0000000e+00 -1.0123048e-10 0.0000000e+00 
0.0000000e+00 -3.3588080e-10 0.0000000e+00 
0.0000000e+00 -6.8502160e-10 0.0000000e+00 
0.0000000e+00 -1.2902506e-09 0.0000000e+00 
0.0000000e+00 -2.3145041e-09 0.0000000e+00 
0.0000000e+00 -3.7805021e-09 0.0000000e+00 
0.0000000e+00 -5.0528488e-09 0.0000000e+00 
0.0000000e+00 -4.2271413e-09 0.0000000e+00 
0.0000000e+00 2.7754576e-09 0.0000000e+00 
0.0000000e+00 2.2380682e-08 0.0000000e+00 
0.0000000e+00 6.1764190e-08 0.0000000e+00 
0.0000000e+00 1.2514849e-07 0.0000000e+00 
0.0000000e+00 2.0483446e-07 0.0000000e+00 
0.0000000e+00 2.6299531e-07 0.0000000e+00 
0.0000000e+00 2.0791849e-07 0.0000000e+00 
0.0000000e+00 -1.3565892e-07 0.0000000e+00 
0.0000000e+00 -1.0189905e-06 0.0000000e+00 
0.0000000e+00 -2.6720916e-06 0.0000000e+00 
0.0000000e+00 -5.0084686e-06 0.0000000e+00 
0.0000000e+00 -7.2019534e-06 0.0000000e+00 
0.0000000e+00 -7.3221900e-06 0.0000000e+00 
0.0000000e+00 -1.5649796e-06 0.0000000e+00 
0.0000000e+00 1.5072945e-05 0.0000000e+00 
0.0000000e+00 4.4317625e-05 0.0000000e+00 
0.0000000e+00 8.5555163e-05 0.0000000e+00 
0.0000000e+00 1.3595719e-04 0.0000000e+00 
0.0000000e+00 1.9035599e-04 0.0000000e+00 
0.0000000e+00 2.4179963e-04 0.0000000e+00 
0.0000000e+00 2.8288199e-04 0.0000000e+00 
0.0000000e+00 3.0786192e-04 0.0000000e+00 
0.0000000e+00 3.1542528e-04 0.0000000e+00 
0.0000000e+00 0.0000000e+00 0.0000000e+00 
0.0000000e+00 0.0000000e+00 0.0000000e+00 
0.0000000e+00 0.0000000e+00 0.0000000e+00 
0.0000000e+00 0.0000000e+00 0.0000000e+00 
0.0000000e+00 0.0000000e+00 0.0000000e+00 
0.0000000e+00 0.0000000e+00 0.0000000e+00 
0.0000000e+00 0.0000000e+00 0.0000000e+00 
0.0000000e+00 0.0000000e+00 0.0000000e+00 
0.0000000e+00 0.0000000e+00 0.0000000e+00 
0.0000000e+00 0.0000000e+00 0.0000000e+00 
0.0000000e+00 0.0000000e+00 0.0000000e+00 
0.0000000e+00 0.0000000e+00 0.0000000e+00 
0.0000000e+00 0.0000000e+00 0.0000000e+00 
0.0000000e+00 0.0000000e+00 0.0000000e+00 
0.0000000e+00 0.0000000e+00 0.0000000e+00 
0.0000000e+00 0.0000000e+00 0.0000000e+00 
0.0000000e+00 0.0000000e+00 0.0000000e+00 
0.0000000e+00 0.0000000e+00 0.0000000e+00 
0.0000000e+00 0.0000000e+00 0.0000000e+00 
0.0000000e+00 0.0000000e+00 0.0000000e+00 
0.0000000e+00 0.0000000e+00 0.0000000e+00 
0.0000000e+00 0.0000000e+00 0.0000000e+00 
0.0000000e+00 0.0000000e+00 0.0000000e+00 
0.0000000e+00 -4.5187587e-10 0.0000000e+00 
0.0000000e+00 -7.4993872e-10 0.0000000e+00 
0.0000000e+00 -6.8167155e-10 0.0000000e+00 
0.0000000e+00 -4.1430590e-10 0.0000000e+00 
0.0000000e+00 0.0000000e+00 0.0000000e+00 
0.0000000e+00 0.0000000e+00 0.0000000e+00 
0.0000000e+00 0.0000000e+00 0.0000000e+00 
0.0000000e+00 0.0000000e+00 0.0000000e+00 
0.0000000e+00 0.0000000e+00 0.0000000e+00 
0.0000000e+00 0.0000000e+00 0.0000000e+00 
0.0000000e+00 0.0000000e+00 0.0000000e+00 
0.0000000e+00 0.0000000e+00 0.0000000e+00 
0.0000000e+00 0.0000000e+00 0.0000000e+00 
0.0000000e+00 0.0000000e+00 0.0000000e+00 
0.0000000e+00 0.0000000e+00 0.0000000e+00 
0.0000000e+00 0.0000000e+00 0.0000000e+00 
0.0000000e+00 0.0000000e+00 0.0000000e+00 
0.0000000e+00 0.0000000e+00 0.0000000e+00 
0.0000000e+00 0.0000000e+00 0.0000000e+00 
0.0000000e+00 0.0000000e+00 0.0000000e+00 
0.0000000e+00 0.0000000e+00 0.0000000e+00 
0.0000000e+00 0.0000000e+00 0.0000000e+00 
0.0000000e+00 0.0000000e+00 0.0000000e+00 
0.0000000e+00 0.0000000e+00 0.0000000e+00 
0.0000000e+00 0.0000000e+00 0.0000000e+00 
0.0000000e+00 0.0000000e+00 0.0000000e+00 
0.0000000e+00 -1.0932907e-09 0.0000000e+00 
0.0000000e+00 -2.1230866e-09 0.0000000e+00 
0.0000000e+00 -2.0181741e-09 0.0000000e+00 
0.0000000e+00 1.2067243e-09 0.0000000e+00 
0.0000000e+00 1.4583319e-08 0.0000000e+00 
0.0000000e+00 4.5070760e-08 0.0000000e+00 
0.0000000e+00 5.6379708e-08 0.0000000e+00 
0.0000000e+00 8.0741565e-08 0.0000000e+00 
0.0000000e+00 -2.7384524e-09 0.0000000e+00 
0.0000000e+00 -1.5765677e-08 0.0000000e+00 
0.0000000e+00 -8.1097840e-09 0.0000000e+00 
0.0000000e+00 -1.0880578e-09 0.0000000e+00 
0.0000000e+00 -2.4296012e-09 0.0000000e+00 
0.0000000e+00 -1.0570051e-11 0.0000000e+00 
0.0000000e+00 2.2787276e-08 0.0000000e+00 
0.0000000e+00 8.5466297e-08 0.0000000e+00 
0.0000000e+00 1.4462027e-07 0.0000000e+00 
0.0000000e+00 -2.4835160e-07 0.0000000e+00 
0.0000000e+00 -1.8250175e-06 0.0000000e+00 
0.0000000e+00 -4.6205228e-06 0.0000000e+00 
0.0000000e+00 -4.5570141e-06 0.0000000e+00 
0.0000000e+00 -2.3329837e-06 0.0000000e+00 
0.0000000e+00 -7.5555928e-10 0.0000000e+00 
0.0000000e+00 -7.0292083e-10 0.0000000e+00 
0.0000000e+00 -6.5624356e-10 0.0000000e+00 
0.0000000e+00 -1.9425828e-07 0.0000000e+00 
0.0000000e+00 -1.0078231e-06 0.0000000e+00 
0.0000000e+00 -3.2066905e-06 0.0000000e+00 
0.0000000e+00 -6.3141670e-10 0.0000000e+00 
0.0000000e+00 -4.0838682e-10 0.0000000e+00 
0.0000000e+00 -7.6028633e-10 0.0000000e+00 
0.0000000e+00 -6.4431893e-10 0.0000000e+00 
0.0000000e+00 -4.8199955e-10 0.0000000e+00 
0.0000000e+00 -7.7041623e-10 0.0000000e+00 
0.0000000e+00 -4.7959064e-10 0.0000000e+00 
0.0000000e+00 -6.0822203e-10 0.0000000e+00 
0.0000000e+00 -7.0828404e-10 0.0000000e+00 
0.0000000e+00 -6.7257167e-10 0.0000000e+00 
0.0000000e+00 -3.0911920e-10 0.0000000e+00 
0.0000000e+00 -7.7290618e-10 0.0000000e+00 
0.0000000e+00 -6.3554095e-10 0.0000000e+00 
0.0000000e+00 -3.0615505e-10 0.0000000e+00 
0.0000000e+00 0.0000000e+00 0.0000000e+00 
0.0000000e+00 0.0000000e+00 0.0000000e+00 
0.0000000e+00 0.0000000e+00 0.0000000e+00 
0.0000000e+00 0.0000000e+00 0.0000000e+00 
0.0000000e+00 0.0000000e+00 0.0000000e+00 
0.0000000e+00 0.0000000e+00 0.0000000e+00 
0.0000000e+00 0.0000000e+00 0.0000000e+00 
0.0000000e+00 0.0000000e+00 0.0000000e+00 
0.0000000e+00 0.0000000e+00 0.0000000e+00 
0.0000000e+00 0.0000000e+00 0.0000000e+00 
0.0000000e+00 0.0000000e+00 0.0000000e+00 
0.0000000e+00 0.0000000e+00 0.0000000e+00 
0.0000000e+00 0.0000000e+00 0.0000000e+00 
0.0000000e+00 0.0000000e+00 0.0000000e+00 
0.0000000e+00 0.0000000e+00 0.0000000e+00 
0.0000000e+00 0.0000000e+00 0.0000000e+00 
0.0000000e+00 0.0000000e+00 0.0000000e+00 
0.0000000e+00 0.0000000e+00 0.0000000e+00 
0.0000000e+00 0.0000000e+00 0.0000000e+00 
0.0000000e+00 0.0000000e+00 0.0000000e+00 
0.0000000e+00 0.0000000e+00 0.0000000e+00 
0.0000000e+00 0.0000000e+00 0.0000000e+00 
0.0000000e+00 0.0000000e+00 0.0000000e+00 
0.0000000e+00 0.0000000e+00 0.0000000e+00 
0.0000000e+00 0.0000000e+00 0.0000000e+00 
0.0000000e+00 0.0000000e+00 0.0000000e+00 
0.0000000e+00 0.0000000e+00 0.0000000e+00 
0.0000000e+00 0.0000000e+00 0.0000000e+00 
0.0000000e+00 0.0000000e+00 0.0000000e+00 
0.0000000e+00 0.0000000e+00 0.0000000e+00 
0.0000000e+00 0.0000000e+00 0.0000000e+00 
0.0000000e+00 0.0000000e+00 0.0000000e+00 
0.0000000e+00 0.0000000e+00 0.0000000e+00 
0.0000000e+00 0.0000000e+00 0.0000000e+00 
0.0000000e+00 0.0000000e+00 0.0000000e+00 
0.0000000e+00 0.0000000e+00 0.0000000e+00 
0.0000000e+00 0.0000000e+00 0.0000000e+00 
0.0000000e+00 0.0000000e+00 0.0000000e+00 
0.0000000e+00 0.0000000e+00 0.0000000e+00 
0.0000000e+00 0.0000000e+00 0.0000000e+00 
0.0000000e+00 0.0000000e+00 0.0000000e+00 
0.0000000e+00 0.0000000e+00 0.0000000e+00 
0.0000000e+00 0.0000000e+00 0.0000000e+00 
0.0000000e+00 0.0000000e+00 0.0000000e+00 
0.0000000e+00 0.0000000e+00 0.0000000e+00 
0.0000000e+00 0.0000000e+00 0.0000000e+00 
0.0000000e+00 0.0000000e+00 0.0000000e+00 
0.0000000e+00 0.0000000e+00 0.0000000e+00 
0.0000000e+00 0.0000000e+00 0.0000000e+00 
0.0000000e+00 -1.5591948e-09 0.0000000e+00 
0.0000000e+00 1.5574388e-08 0.0000000e+00 
0.0000000e+00 -1.9903936e-09 0.0000000e+00 
0.0000000e+00 2.3391847e-08 0.0000000e+00 
0.0000000e+00 6.5904089e-08 0.0000000e+00 
0.0000000e+00 -1.1167999e-09 0.0000000e+00 
0.0000000e+00 1.7365994e-09 0.0000000e+00 
0.0000000e+00 2.1239863e-08 0.0000000e+00 
0.0000000e+00 -1.0066337e-09 0.0000000e+00 
0.0000000e+00 9.5442330e-09 0.0000000e+00 
0.0000000e+00 -2.3878632e-09 0.0000000e+00 
0.0000000e+00 4.7085349e-09 0.0000000e+00 
0.0000000e+00 6.1652386e-08 0.0000000e+00 
0.0000000e+00 2.2527226e-08 0.0000000e+00 
0.0000000e+00 -7.0608447e-10 0.0000000e+00 
0.0000000e+00 6.0287282e-09 0.0000000e+00 
0.0000000e+00 8.7864102e-08 0.0000000e+00 
0.0000000e+00 -8.2799612e-10 0.0000000e+00 
0.0000000e+00 9.8249728e-09 0.0000000e+00 
0.0000000e+00 5.5882484e-08 0.0000000e+00 
0.0000000e+00 -1.5283731e-09 0.0000000e+00 
0.0000000e+00 2.9572153e-08 0.0000000e+00 
0.0000000e+00 -2.4702898e-10 0.0000000e+00 
0.0000000e+00 -1.9869955e-09 0.0000000e+00 
0.0000000e+00 6.3080407e-08 0.0000000e+00 
0.0000000e+00 3.7886632e-08 0.0000000e+00 
0.0000000e+00 1.0962513e-08 0.0000000e+00 
0.0000000e+00 -9.4922281e-10 0.0000000e+00 
0.0000000e+00 -4.3128012e-10 0.0000000e+00 
0.0000000e+00 -2.9017788e-06 0.0000000e+00 
0.0000000e+00 -8.4926222e-10 0.0000000e+00 
0.0000000e+00 -8.3257312e-10 0.0000000e+00 
0.0000000e+00 1.8340758e-08 0.0000000e+00 
0.0000000e+00 -3.7355957e-07 0.0000000e+00 
0.0000000e+00 5.8977343e-09 0.0000000e+00 
0.0000000e+00 1.1396059e-07 0.0000000e+00 
0.0000000e+00 -7.4761772e-07 0.0000000e+00 
0.0000000e+00 2.7329283e-09 0.0000000e+00 
0.0000000e+00 -2.2365521e-09 0.0000000e+00 
0.0000000e+00 4.5379789e-08 0.0000000e+00 
0.0000000e+00 5.1122811e-08 0.0000000e+00 
0.0000000e+00 4.6655952e-08 0.0000000e+00 
0.0000000e+00 -2.8973977e-06 0.0000000e+00 
0.0000000e+00 -1.6980001e-09 0.0000000e+00 
0.0000000e+00 -7.0615125e-10 0.0000000e+00 
0.0000000e+00 -8.8197294e-07 0.0000000e+00 
0.0000000e+00 5.5738024e-08 0.0000000e+00 
0.0000000e+00 -2.0567633e-08 0.0000000e+00 
0.0000000e+00 1.5262506e-08 0.0000000e+00 
0.0000000e+00 2.2050142e-12 0.0000000e+00 
0.0000000e+00 -2.0480785e-07 0.0000000e+00 
0.0000000e+00 3.7918621e-08 0.0000000e+00 
0.0000000e+00 -1.2487953e-06 0.0000000e+00 
0.0000000e+00 -1.6828727e-09 0.0000000e+00 
0.0000000e+00 -1.4355184e-06 0.0000000e+00 
0.0000000e+00 -9.1811492e-10 0.0000000e+00 
0.0000000e+00 -4.3392090e-10 0.0000000e+00 
0.0000000e+00 -4.6834389e-06 0.0000000e+00 
0.0000000e+00 -1.2207421e-06 0.0000000e+00 
0.0000000e+00 -1.0611909e-07 0.0000000e+00 
0.0000000e+00 -1.7599147e-06 0.0000000e+00 
0.0000000e+00 -3.9807960e-06 0.0000000e+00 
0.0000000e+00 -6.4887706e-07 0.0000000e+00 
0.0000000e+00 -5.2069737e-07 0.0000000e+00 
0.0000000e+00 -2.4559020e-07 0.0000000e+00 
0.0000000e+00 -3.4061900e-06 0.0000000e+00 
0.0000000e+00 -1.9271779e-06 0.0000000e+00 
0.0000000e+00 -7.6563157e-07 0.0000000e+00 
0.0000000e+00 -5.8599230e-08 0.0000000e+00 
0.0000000e+00 -9.0302144e-08 0.0000000e+00 
0.0000000e+00 -4.9815590e-06 0.0000000e+00 
0.0000000e+00 -1.6280216e-06 0.0000000e+00 
7.5152737e-09 6.2887182e-08 -2.6266909e-08 
-2.0246915e-08 1.1614971e-07 1.0696802e-07 
-2.3413762e-07 -1.1336815e-06 6.0363072e-07 
8.2602354e-12 -2.2138444e-09 -5.2167621e-09 
1.0793465e-09 8.1574797e-10 -1.4097689e-08 
4.6277089e-09 3.6585330e-08 -8.3265759e-09 
1.4423029e-09 -2.3052418e-09 -3.0746632e-09 
-5.5536940e-08 7.5306069e-08 5.3582639e-08 
-8.8946878e-11 -1.5239320e-09 -1.3590810e-09 
-5.6760024e-07 -3.7745626e-06 8.2842945e-07 
2.5236507e-10 -1.0111241e-09 -7.9264068e-10 
-3.3152909e-07 -4.7427937e-07 8.8302755e-08 
-2.8154384e-08 5.9133850e-08 2.1594609e-08 
-7.2590730e-08 4.8959148e-08 1.0904985e-07 
-2.4240933e-07 -8.3353392e-08 2.4767886e-07 
-1.5464295e-07 -6.3359181e-08 1.6381308e-07 
-4.6625779e-08 6.0815466e-08 6.5567157e-08 
-3.9685349e-07 -6.9848915e-07 3.1238264e-07 
-1.2416785e-07 -3.6083893e-08 2.8165405e-07 
-6.4513981e-09 6.1725565e-08 3.2360056e-08 
5.4095408e-09 3.4363353e-08 -6.5873120e-09 
1.0027957e-08 6.4962776e-08 -2.3889946e-09 
1.1295535e-08 4.3209443e-08 -2.0235793e-08 
7.5232816e-09 1.6977872e-08 -1.7693065e-08 
7.2701791e-09 1.4408506e-08 -2.0595087e-08 
5.2299618e-09 3.2223209e-09 -1.2551627e-08 
3.3110847e-09 2.0413249e-09 -1.3980807e-08 
2.5986744e-09 -8.1231105e-10 -8.6479446e-09 
1.9113351e-09 -1.6825543e-09 -8.5173752e-09 
1.4849526e-09 -1.6567383e-09 -4.8748636e-09 
4.8365795e-10 -1.9613489e-09 -3.7055421e-09 
1.0955460e-08 9.8561884e-08 -1.7061537e-09 
1.6497611e-09 1.1292613e-07 2.4097307e-08 
4.2930770e-09 9.2301402e-09 -2.0781869e-08 
3.3839078e-09 -6.2857819e-10 -6.2569963e-09 
-4.3874292e-07 -1.4335790e-06 1.8687017e-07 
9.8021005e-09 3.3603463e-08 -2.7095865e-08 
4.7353583e-09 1.1088751e-08 -1.1007067e-08 
1.4856623e-10 -1.2087608e-09 -1.0463398e-09 
-1.8913067e-07 -3.9073477e-08 8.3793068e-08 
-3.1147036e-07 -5.0636203e-07 4.8736229e-07 
-4.3105535e-07 -1.3748521e-06 5.4672523e-07 
-4.5686672e-09 1.5843119e-07 2.0537978e-08 
5.0570031e-10 -1.5572974e-09 -9.4988439e-10 
4.0223883e-10 -2.3268041e-09 -8.6773682e-09 
1.8637070e-09 -6.6141387e-10 -1.2113191e-08 
2.9777449e-09 1.1517837e-08 -2.0856357e-08 
5.7790399e-09 3.0845545e-08 -2.6512236e-08 
-7.5999765e-08 1.6826755e-08 2.2681989e-07 
-1.8890634e-07 -4.6391381e-07 4.7795027e-07 
-1.5157349e-11 -8.8236335e-10 -4.9985543e-10 
-1.2484166e-10 -2.1058011e-09 -2.6564444e-09 
-6.1633261e-07 -5.0343797e-06 5.8770809e-07 
5.5554300e-10 -1.8232690e-09 -2.0856239e-09 
7.1095141e-10 -1.6934580e-09 -6.9968524e-09 
-5.1841619e-07 -2.3613818e-06 8.2856025e-07 
-5.6599536e-08 5.7733018e-08 1.4650247e-07 
7.3810964e-11 -1.5393324e-09 -2.1697852e-09 
9.1278922e-09 1.0711280e-07 -1.9069656e-08 
-3.5772248e-07 -4.1437781e-07 2.2917639e-07 
-1.6281437e-07 -8.6467914e-08 4.7309964e-08 
2.1930269e-10 -9.9021391e-10 -3.8420500e-10 
6.0163114e-09 5.7647545e-09 -1.2938616e-08 
2.3386040e-10 -2.2626112e-09 -3.7963681e-09 
-6.7237067e-07 -2.2922159e-06 5.5122598e-07 
-1.5251203e-08 9.7018521e-08 4.3181011e-08 
9.1336860e-10 -2.0146385e-09 -2.8902434e-09 
2.6073124e-09 -1.6658147e-09 -6.5296430e-09 
3.8880028e-11 -1.2289165e-09 -1.0364403e-09 
1.2894865e-08 6.1220021e-08 -2.5228463e-08 
-4.8400830e-07 -3.0886365e-06 3.1608459e-07 
-4.8289373e-10 -3.0803060e-09 -2.9230935e-09 
-3.0108602e-10 -2.1878321e-09 -1.5157945e-09 
-7.5645362e-10 -1.2741664e-09 -5.2019811e-09 
-8.9311786e-10 1.5831142e-09 -7.4310176e-09 
-1.6177884e-10 -1.5203907e-09 -7.8693418e-10 
-6.7022982e-10 1.3993431e-08 -1.0728163e-08 
-5.5055155e-11 3.7323613e-08 -1.6713287e-08 
-1.1493014e-09 7.5426257e-08 -1.4563447e-08 
5.7410086e-09 1.1792449e-07 1.3351490e-08 
-1.1562001e-10 1.7751182e-07 7.3096629e-08 
6.8150730e-09 1.4560932e-07 1.2404081e-07 
-8.9986747e-09 -4.7744525e-08 2.6390808e-07 
-4.4949246e-08 -5.1176050e-07 3.8992715e-07 
-1.5390629e-07 -1.6631375e-06 5.3793218e-07 
-1.8990295e-07 -2.7881863e-06 7.0452978e-07 
-2.3575492e-07 -4.5404840e-06 7.6642760e-07 
-1.7743042e-07 -6.1271348e-06 6.5521550e-07 
-1.0341987e-10 -8.1209367e-10 -2.7674552e-10 
-1.7318010e-11 -1.9605457e-09 -1.2644412e-09 
-7.2794276e-10 3.5997316e-09 -1.3651426e-09 
-6.5508621e-10 7.7421547e-08 -3.7161463e-08 
8.4532331e-08 -1.0290299e-07 -2.4514270e-07 
2.9278345e-07 -1.4615039e-06 -4.5786857e-07 
1.5902345e-10 -2.3878566e-09 -1.6037445e-09 
9.0056179e-10 5.1689826e-09 -4.2581894e-09 
2.6719899e-08 6.4791159e-08 -6.6803054e-08 
-3.1749756e-09 4.1981238e-08 -7.0879169e-09 
-2.6238015e-10 -2.5044755e-09 -3.4702026e-09 
-8.2233810e-11 -1.5439138e-09 -1.2189036e-09 
1.7487845e-07 -7.3623106e-08 -1.9863978e-07 
1.4894974e-10 -1.5193101e-09 -1.1849685e-09 
1.2299428e-08 1.1666921e-07 -8.3445009e-08 
2.3822194e-08 -1.0927862e-06 -2.8341316e-07 
-8.8902252e-10 8.8875751e-09 -5.6212186e-09 
2.1380548e-09 2.1536355e-08 -9.3845252e-09 
3.9783704e-10 -2.6551017e-09 -2.8771689e-09 
-6.0952227e-10 1.1625460e-07 -2.1755563e-08 
-5.9863381e-09 2.0164283e-08 -2.9832943e-09 
-1.4974208e-10 -2.6934197e-09 -2.5864224e-09 
5.6513501e-09 1.8027997e-08 -1.0465461e-08 
9.2251966e-08 -3.6343270e-06 -4.1856345e-07 
1.9177798e-10 -1.2742355e-09 -7.3256684e-10 
1.3585371e-07 -1.4492055e-07 -6.4177506e-08 
-2.4582247e-10 -6.8626294e-10 3.3528125e-10 
5.3966605e-09 2.3423850e-08 -2.5336334e-08 
-5.7486880e-11 -1.5455782e-09 -1.0066520e-09 
-7.4840811e-10 -9.8524544e-10 -1.0011991e-09 
1.6779381e-09 4.4487733e-10 -6.1975052e-09 
2.6121398e-08 7.7337262e-08 -2.0381668e-08 
7.3228663e-09 3.3656399e-08 -6.7788314e-08 
8.8290237e-09 -1.4630659e-07 -6.1023371e-08 
2.5359423e-09 8.3433150e-08 -2.6515103e-08 
2.8162145e-07 -6.5314254e-07 -1.8134465e-07 
8.3772349e-08 -4.9217977e-07 -1.9453110e-07 
3.9525536e-12 -8.9479812e-10 -5.6060351e-10 
9.5108832e-10 -1.7653324e-09 -2.3898483e-09 
-6.2194257e-11 -9.7537134e-10 -4.2668588e-10 
7.2479192e-09 2.4913009e-08 -1.1162179e-07 
-1.9700528e-09 1.0772216e-08 -2.1200065e-10 
2.3519026e-07 -1.8076209e-06 -1.5311262e-07 
1.0774656e-07 -4.7259445e-07 -4.3120278e-07 
1.3196451e-09 9.9757624e-09 -1.0063345e-08 
9.3682839e-11 -1.8106462e-09 -1.7575805e-09 
6.6425012e-09 3.7606217e-08 -1.6229455e-08 
4.3660440e-11 -1.3453727e-09 -5.3150301e-10 
1.5059781e-07 -1.8990302e-07 -2.4928056e-07 
4.8653154e-10 -2.6730758e-09 -2.4428743e-09 
-3.7764751e-09 3.4883897e-08 -1.3026090e-08 
4.6429963e-10 -2.3731059e-09 -1.5425309e-09 
7.0331417e-08 7.5267712e-09 -7.3483555e-08 
3.9929187e-08 -1.9752724e-06 -5.1603276e-08 
3.9120982e-09 1.2645486e-07 -3.1851275e-08 
-2.1592670e-09 1.0592680e-07 -3.7287826e-08 
2.0419545e-08 2.1703492e-08 -7.4478287e-08 
2.4331328e-07 -1.6607524e-06 -3.4180104e-07 
2.0252412e-10 -1.1624099e-09 -7.1215511e-10 
2.5181421e-09 2.0528443e-09 -5.3625726e-09 
-9.4150618e-11 4.5939603e-11 -1.2898833e-09 
7.5685094e-09 5.2024809e-08 -1.0302053e-08 
2.3232282e-08 3.1655304e-08 -2.9180976e-08 
3.2745243e-10 -2.8383755e-09 -3.3975855e-09 
-6.1909439e-08 -2.5391578e-06 -1.1586945e-08 
-7.7308121e-10 4.7559729e-09 -3.4592749e-09 