# vtk DataFile Version 4.0
vtk output
ASCII
DATASET UNSTRUCTURED_GRID
POINTS 460 float
0.0000000e+00 0.0000000e+00 0.0000000e+00 
5.0000000e+00 0.0000000e+00 0.0000000e+00 
5.0000000e+00 3.0000000e+00 0.0000000e+00 
0.0000000e+00 3.0000000e+00 0.0000000e+00 
0.0000000e+00 0.0000000e+00 1.0000000e+01 
5.0000000e+00 0.0000000e+00 1.0000000e+01 
5.0000000e+00 3.0000000e+00 1.0000000e+01 
0.0000000e+00 3.0000000e+00 1.0000000e+01 
1.0000000e+00 3.0000000e+00 -5.0000000e+00 
1.0000000e+00 3.0000000e+00 -4.5000000e+00 
1.0000000e+00 3.0000000e+00 -4.0000000e+00 
1.0000000e+00 3.0000000e+00 -3.5000000e+00 
1.0000000e+00 3.0000000e+00 -3.0000000e+00 
1.0000000e+00 3.0000000e+00 -2.5000000e+00 
1.0000000e+00 3.0000000e+00 -2.0000000e+00 
1.0000000e+00 3.0000000e+00 -1.5000000e+00 
1.0000000e+00 3.0000000e+00 -1.0000000e+00 
1.0000000e+00 3.0000000e+00 -5.0000000e-01 
1.0000000e+00 3.0000000e+00 0.0000000e+00 
1.0000000e+00 3.0000000e+00 5.0000000e-01 
1.0000000e+00 3.0000000e+00 1.0000000e+00 
1.0000000e+00 3.0000000e+00 1.5000000e+00 
1.0000000e+00 3.0000000e+00 2.0000000e+00 
1.0000000e+00 3.0000000e+00 2.5000000e+00 
1.0000000e+00 3.0000000e+00 3.0000000e+00 
1.0000000e+00 3.0000000e+00 3.5000000e+00 
1.0000000e+00 3.0000000e+00 4.0000000e+00 
1.0000000e+00 3.0000000e+00 4.5000000e+00 
1.0000000e+00 3.0000000e+00 5.0000000e+00 
1.0000000e+00 3.0000000e+00 5.5000000e+00 
1.0000000e+00 3.0000000e+00 6.0000000e+00 
1.0000000e+00 3.0000000e+00 6.5000000e+00 
1.0000000e+00 3.0000000e+00 7.0000000e+00 
1.0000000e+00 3.0000000e+00 7.5000000e+00 
1.0000000e+00 3.0000000e+00 8.0000000e+00 
1.0000000e+00 3.0000000e+00 8.5000000e+00 
1.0000000e+00 3.0000000e+00 9.0000000e+00 
1.0000000e+00 3.0000000e+00 9.5000000e+00 
1.0000000e+00 3.0000000e+00 1.0000000e+01 
1.0000000e+00 3.0000000e+00 1.0500000e+01 
1.0000000e+00 3.0000000e+00 1.1000000e+01 
1.0000000e+00 3.0000000e+00 1.1500000e+01 
1.0000000e+00 3.0000000e+00 1.2000000e+01 
1.0000000e+00 3.0000000e+00 1.2500000e+01 
1.0000000e+00 3.0000000e+00 1.3000000e+01 
1.0000000e+00 3.0000000e+00 1.3500000e+01 
1.0000000e+00 3.0000000e+00 1.4000000e+01 
1.0000000e+00 3.0000000e+00 1.4500000e+01 
1.0000000e+00 3.0250001e+00 -5.0000000e+00 
1.0000000e+00 3.0250001e+00 -4.5000000e+00 
1.0000000e+00 3.0250001e+00 -4.0000000e+00 
1.0000000e+00 3.0250001e+00 -3.5000000e+00 
1.0000000e+00 3.0250001e+00 -3.0000000e+00 
1.0000000e+00 3.0250001e+00 -2.5000000e+00 
1.0000000e+00 3.0250001e+00 -2.0000000e+00 
1.0000000e+00 3.0250001e+00 -1.5000000e+00 
1.0000000e+00 3.0250001e+00 -1.0000000e+00 
1.0000000e+00 3.0250001e+00 -5.0000000e-01 
1.0000000e+00 3.0250001e+00 0.0000000e+00 
1.0000000e+00 3.0250001e+00 5.0000000e-01 
1.0000000e+00 3.0250001e+00 1.0000000e+00 
1.0000000e+00 3.0250001e+00 1.5000000e+00 
1.0000000e+00 3.0250001e+00 2.0000000e+00 
1.0000000e+00 3.0250001e+00 2.5000000e+00 
1.0000000e+00 3.0250001e+00 3.0000000e+00 
1.0000000e+00 3.0250001e+00 3.5000000e+00 
1.0000000e+00 3.0250001e+00 4.0000000e+00 
1.0000000e+00 3.0250001e+00 4.5000000e+00 
1.0000000e+00 3.0250001e+00 5.0000000e+00 
1.0000000e+00 3.0250001e+00 5.5000000e+00 
1.0000000e+00 3.0250001e+00 6.0000000e+00 
1.0000000e+00 3.0250001e+00 6.5000000e+00 
1.0000000e+00 3.0250001e+00 7.0000000e+00 
1.0000000e+00 3.0250001e+00 7.5000000e+00 
1.0000000e+00 3.0250001e+00 8.0000000e+00 
1.0000000e+00 3.0250001e+00 8.5000000e+00 
1.0000000e+00 3.0250001e+00 9.0000000e+00 
1.0000000e+00 3.0250001e+00 9.5000000e+00 
1.0000000e+00 3.0250001e+00 1.0000000e+01 
1.0000000e+00 3.0250001e+00 1.0500000e+01 
1.0000000e+00 3.0250001e+00 1.1000000e+01 
1.0000000e+00 3.0250001e+00 1.1500000e+01 
1.0000000e+00 3.0250001e+00 1.2000000e+01 
1.0000000e+00 3.0250001e+00 1.2500000e+01 
1.0000000e+00 3.0250001e+00 1.3000000e+01 
1.0000000e+00 3.0250001e+00 1.3500000e+01 
1.0000000e+00 3.0250001e+00 1.4000000e+01 
1.0000000e+00 3.0250001e+00 1.4500000e+01 
1.0000000e+00 -2.0000000e+00 -5.0000000e+00 
1.0000000e+00 -2.0000000e+00 -4.5000000e+00 
1.0000000e+00 -2.0000000e+00 -4.0000000e+00 
1.0000000e+00 -2.0000000e+00 -3.5000000e+00 
1.0000000e+00 -2.0000000e+00 -3.0000000e+00 
1.0000000e+00 -2.0000000e+00 -2.5000000e+00 
1.0000000e+00 -2.0000000e+00 -2.0000000e+00 
1.0000000e+00 -2.0000000e+00 -1.5000000e+00 
1.0000000e+00 -2.0000000e+00 -1.0000000e+00 
1.0000000e+00 -2.0000000e+00 -5.0000000e-01 
1.0000000e+00 -2.0000000e+00 1.0500000e+01 
1.0000000e+00 -2.0000000e+00 1.1000000e+01 
1.0000000e+00 -2.0000000e+00 1.1500000e+01 
1.0000000e+00 -2.0000000e+00 1.2000000e+01 
1.0000000e+00 -2.0000000e+00 1.2500000e+01 
1.0000000e+00 -2.0000000e+00 1.3000000e+01 
1.0000000e+00 -2.0000000e+00 1.3500000e+01 
1.0000000e+00 -2.0000000e+00 1.4000000e+01 
1.0000000e+00 -2.0000000e+00 1.4500000e+01 
1.0000000e+00 0.0000000e+00 0.0000000e+00 
2.0000000e+00 0.0000000e+00 0.0000000e+00 
3.0000000e+00 0.0000000e+00 0.0000000e+00 
4.0000000e+00 0.0000000e+00 0.0000000e+00 
5.0000000e+00 1.0000000e+00 0.0000000e+00 
5.0000000e+00 2.0000000e+00 0.0000000e+00 
0.0000000e+00 2.0000000e+00 0.0000000e+00 
0.0000000e+00 1.0000000e+00 0.0000000e+00 
0.0000000e+00 0.0000000e+00 1.0000000e+00 
0.0000000e+00 0.0000000e+00 2.0000000e+00 
0.0000000e+00 0.0000000e+00 3.0000000e+00 
0.0000000e+00 0.0000000e+00 4.0000000e+00 
0.0000000e+00 0.0000000e+00 5.0000000e+00 
0.0000000e+00 0.0000000e+00 6.0000000e+00 
0.0000000e+00 0.0000000e+00 7.0000000e+00 
0.0000000e+00 0.0000000e+00 8.0000000e+00 
0.0000000e+00 0.0000000e+00 9.0000000e+00 
5.0000000e+00 0.0000000e+00 1.0000000e+00 
5.0000000e+00 0.0000000e+00 2.0000000e+00 
5.0000000e+00 0.0000000e+00 3.0000000e+00 
5.0000000e+00 0.0000000e+00 4.0000000e+00 
5.0000000e+00 0.0000000e+00 5.0000000e+00 
5.0000000e+00 0.0000000e+00 6.0000000e+00 
5.0000000e+00 0.0000000e+00 7.0000000e+00 
5.0000000e+00 0.0000000e+00 8.0000000e+00 
5.0000000e+00 0.0000000e+00 9.0000000e+00 
1.0000000e+00 0.0000000e+00 1.0000000e+01 
2.0000000e+00 0.0000000e+00 1.0000000e+01 
3.0000000e+00 0.0000000e+00 1.0000000e+01 
4.0000000e+00 0.0000000e+00 1.0000000e+01 
5.0000000e+00 3.0000000e+00 1.0000000e+00 
5.0000000e+00 3.0000000e+00 2.0000000e+00 
5.0000000e+00 3.0000000e+00 3.0000000e+00 
5.0000000e+00 3.0000000e+00 4.0000000e+00 
5.0000000e+00 3.0000000e+00 5.0000000e+00 
5.0000000e+00 3.0000000e+00 6.0000000e+00 
5.0000000e+00 3.0000000e+00 7.0000000e+00 
5.0000000e+00 3.0000000e+00 8.0000000e+00 
5.0000000e+00 3.0000000e+00 9.0000000e+00 
5.0000000e+00 1.0000000e+00 1.0000000e+01 
5.0000000e+00 2.0000000e+00 1.0000000e+01 
0.0000000e+00 3.0000000e+00 1.0000000e+00 
0.0000000e+00 3.0000000e+00 2.0000000e+00 
0.0000000e+00 3.0000000e+00 3.0000000e+00 
0.0000000e+00 3.0000000e+00 4.0000000e+00 
0.0000000e+00 3.0000000e+00 5.0000000e+00 
0.0000000e+00 3.0000000e+00 6.0000000e+00 
0.0000000e+00 3.0000000e+00 7.0000000e+00 
0.0000000e+00 3.0000000e+00 8.0000000e+00 
0.0000000e+00 3.0000000e+00 9.0000000e+00 
0.0000000e+00 2.0000000e+00 1.0000000e+01 
0.0000000e+00 1.0000000e+00 1.0000000e+01 
4.0000000e+00 3.0000000e+00 0.0000000e+00 
3.0000000e+00 3.0000000e+00 0.0000000e+00 
2.0000000e+00 3.0000000e+00 0.0000000e+00 
4.0000000e+00 3.0000000e+00 1.0000000e+01 
3.0000000e+00 3.0000000e+00 1.0000000e+01 
2.0000000e+00 3.0000000e+00 1.0000000e+01 
4.0618000e+00 1.5000000e+00 0.0000000e+00 
1.5046000e+00 7.6549745e-01 0.0000000e+00 
2.5000000e+00 2.1339746e+00 0.0000000e+00 
1.5046000e+00 2.2345026e+00 0.0000000e+00 
2.4957771e+00 8.1560516e-01 0.0000000e+00 
3.4707544e+00 2.2336540e+00 0.0000000e+00 
3.4700506e+00 7.5794268e-01 0.0000000e+00 
8.6322361e-01 1.5000000e+00 0.0000000e+00 
2.0000000e+00 1.5000000e+00 0.0000000e+00 
2.9960666e+00 1.4974480e+00 0.0000000e+00 
4.2679491e+00 7.3205084e-01 0.0000000e+00 
4.2679491e+00 2.2679491e+00 0.0000000e+00 
7.2695929e-01 2.2730408e+00 0.0000000e+00 
7.2695929e-01 7.2695929e-01 0.0000000e+00 
4.1822505e+00 0.0000000e+00 2.5515697e+00 
4.2017918e+00 0.0000000e+00 4.4725966e+00 
4.1114569e+00 0.0000000e+00 6.5092020e+00 
8.6602539e-01 0.0000000e+00 3.5000000e+00 
8.4778279e-01 0.0000000e+00 5.4684029e+00 
8.9629614e-01 0.0000000e+00 7.5867257e+00 
2.5566745e+00 0.0000000e+00 8.1853306e-01 
2.4918270e+00 0.0000000e+00 9.1386929e+00 
8.4677207e-01 0.0000000e+00 1.5042374e+00 
4.0943027e+00 0.0000000e+00 8.4081745e+00 
8.6281651e-01 0.0000000e+00 2.5007062e+00 
1.7315160e+00 0.0000000e+00 3.0001178e+00 
1.7319617e+00 0.0000000e+00 4.0000196e+00 
2.5980761e+00 0.0000000e+00 3.5000000e+00 
2.5536871e+00 0.0000000e+00 4.4963923e+00 
2.5928419e+00 0.0000000e+00 2.4239938e+00 
1.5037409e+00 0.0000000e+00 9.1535149e+00 
1.8433737e+00 0.0000000e+00 8.1858873e+00 
3.0000000e+00 0.0000000e+00 8.2679491e+00 
2.5000000e+00 0.0000000e+00 7.4019237e+00 
3.5042722e+00 0.0000000e+00 7.4271150e+00 
3.0310018e+00 0.0000000e+00 6.5282087e+00 
2.0373929e+00 0.0000000e+00 6.5307913e+00 
3.4767809e+00 0.0000000e+00 5.8031492e+00 
2.5452602e+00 0.0000000e+00 5.5720768e+00 
1.6456656e+00 0.0000000e+00 1.9697139e+00 
8.6297011e-01 0.0000000e+00 4.4947371e+00 
1.0111579e+00 0.0000000e+00 6.5282545e+00 
3.4994321e+00 0.0000000e+00 8.4691072e-01 
4.1860156e+00 0.0000000e+00 3.5040276e+00 
1.7320508e+00 0.0000000e+00 5.0000000e+00 
4.0544066e+00 0.0000000e+00 1.5781221e+00 
1.5817389e+00 0.0000000e+00 9.3943578e-01 
8.3166349e-01 0.0000000e+00 8.5090933e+00 
3.4686174e+00 0.0000000e+00 9.1752682e+00 
3.0709300e+00 0.0000000e+00 1.5799091e+00 
3.3927374e+00 0.0000000e+00 3.0399952e+00 
3.3826034e+00 0.0000000e+00 3.9747651e+00 
4.3420062e+00 0.0000000e+00 7.4688983e+00 
3.4023225e+00 0.0000000e+00 4.9314723e+00 
1.6740381e+00 0.0000000e+00 7.3014426e+00 
4.2715640e+00 0.0000000e+00 5.4758859e+00 
1.6225953e+00 0.0000000e+00 5.8104177e+00 
4.2679491e+00 0.0000000e+00 9.2679491e+00 
7.3205084e-01 0.0000000e+00 7.3205084e-01 
4.2679491e+00 0.0000000e+00 7.3205084e-01 
7.3205084e-01 0.0000000e+00 9.2679491e+00 
3.4586334e+00 0.0000000e+00 2.2347178e+00 
2.2895701e+00 0.0000000e+00 1.5463171e+00 
5.0000000e+00 2.2345026e+00 1.5046000e+00 
[...]
POINT_DATA 460
FIELD FieldData 5
DISPLACEMENT 3 460  float
0.0000000e+00 0.0000000e+00 0.0000000e+00 
0.0000000e+00 0.0000000e+00 0.0000000e+00 
0.0000000e+00 -1.9542756e-06 0.0000000e+00 
0.0000000e+00 -4.4569770e-05 0.0000000e+00 
0.0000000e+00 0.0000000e+00 0.0000000e+00 
0.0000000e+00 0.0000000e+00 0.0000000e+00 
0.0000000e+00 -3.2862978e-08 0.0000000e+00 
0.0000000e+00 2.9885598e-08 0.0000000e+00 
0.0000000e+00 2.4510666e-06 0.0000000e+00 
0.0000000e+00 -3.7820407e-06 0.0000000e+00 
0.0000000e+00 -2.7373906e-05 0.0000000e+00 
0.0000000e+00 -7.9324003e-05 0.0000000e+00 
0.0000000e+00 -1.7073714e-04 0.0000000e+00 
0.0000000e+00 -3.0476644e-04 0.0000000e+00 
0.0000000e+00 -4.6287055e-04 0.0000000e+00 
0.0000000e+00 -5.8658374e-04 0.0000000e+00 
0.0000000e+00 -5.8293610e-04 0.0000000e+00 
0.0000000e+00 -4.2975563e-04 0.0000000e+00 
0.0000000e+00 -2.3731495e-04 0.0000000e+00 
-5.2713503e-06 -1.0794455e-04 5.9251897e-06 
-4.0399741e-06 -3.5785051e-05 -6.0431503e-06 
-2.3982718e-06 -6.4203227e-06 -7.1579875e-06 
-1.8871806e-06 2.1974038e-06 -5.0640342e-06 
-9.5272100e-07 2.5778934e-06 -3.3443048e-06 
-4.2655964e-07 1.1279195e-06 -1.8634634e-06 
-3.0661735e-07 1.3857751e-07 -9.5170560e-07 
-2.2390141e-07 -2.7831427e-07 -7.0189969e-07 
-1.6850976e-07 -2.0469172e-07 -4.6260817e-07 
-8.3559613e-08 8.6624318e-08 -3.0380812e-07 
-3.8844220e-08 3.0992476e-07 -1.9826443e-07 
-1.9703212e-08 3.6138110e-07 -1.1147527e-07 
4.8011182e-09 3.1276713e-07 -3.8927681e-08 
8.3172225e-09 2.4351934e-07 1.2182744e-08 
1.0102664e-08 1.3768387e-07 2.9484244e-08 
8.7596650e-09 1.1463545e-07 3.9949722e-08 
5.7518057e-09 1.0935300e-07 4.2056019e-08 
6.1169931e-09 9.8473109e-08 3.5662588e-08 
-5.6925226e-10 1.5228672e-07 -4.2991140e-09 
0.0000000e+00 -1.0851501e-07 0.0000000e+00 
0.0000000e+00 -5.4673154e-07 0.0000000e+00 
0.0000000e+00 -7.7853946e-07 0.0000000e+00 
0.0000000e+00 -7.2077376e-07 0.0000000e+00 
0.0000000e+00 -5.7611550e-07 0.0000000e+00 
0.0000000e+00 -4.6201052e-07 0.0000000e+00 
0.0000000e+00 -6.2358816e-07 0.0000000e+00 
0.0000000e+00 -8.4474658e-07 0.0000000e+00 
0.0000000e+00 -8.3580306e-07 0.0000000e+00 
0.0000000e+00 -8.2004095e-07 0.0000000e+00 
0.0000000e+00 2.6298292e-06 0.0000000e+00 
0.0000000e+00 -3.6338140e-06 0.0000000e+00 
0.0000000e+00 -2.7337072e-05 0.0000000e+00 
0.0000000e+00 -7.9519399e-05 0.0000000e+00 
0.0000000e+00 -1.7132553e-04 0.0000000e+00 
0.0000000e+00 -3.0591700e-04 0.0000000e+00 
0.0000000e+00 -4.6467534e-04 0.0000000e+00 
0.0000000e+00 -5.8889645e-04 0.0000000e+00 
0.0000000e+00 -5.8523758e-04 0.0000000e+00 
0.0000000e+00 -4.3145238e-04 0.0000000e+00 
0.0000000e+00 -2.4144942e-04 0.0000000e+00 
0.0000000e+00 -1.0822010e-04 0.0000000e+00 
0.0000000e+00 -3.6019443e-05 0.0000000e+00 
0.0000000e+00 -6.0711259e-06 0.0000000e+00 
0.0000000e+00 2.4155022e-06 0.0000000e+00 
0.0000000e+00 2.7245733e-06 0.0000000e+00 
0.0000000e+00 1.1913104e-06 0.0000000e+00 
0.0000000e+00 1.4869960e-07 0.0000000e+00 
0.0000000e+00 -2.7745142e-07 0.0000000e+00 
0.0000000e+00 -2.0656803e-07 0.0000000e+00 
0.0000000e+00 8.7623803e-08 0.0000000e+00 
0.0000000e+00 3.1357084e-07 0.0000000e+00 
0.0000000e+00 3.6624317e-07 0.0000000e+00 
0.0000000e+00 3.1522754e-07 0.0000000e+00 
0.0000000e+00 2.4480661e-07 0.0000000e+00 
0.0000000e+00 1.3723023e-07 0.0000000e+00 
0.0000000e+00 1.1475967e-07 0.0000000e+00 
0.0000000e+00 1.0974598e-07 0.0000000e+00 
0.0000000e+00 9.8333970e-08 0.0000000e+00 
0.0000000e+00 1.5927867e-07 0.0000000e+00 
0.0000000e+00 -1.1242517e-07 0.0000000e+00 
0.0000000e+00 -5.4898436e-07 0.0000000e+00 
0.0000000e+00 -7.8174531e-07 0.0000000e+00 
0.0000000e+00 -7.2375576e-07 0.0000000e+00 
0.0000000e+00 -5.7849235e-07 0.0000000e+00 
0.0000000e+00 -4.6386927e-07 0.0000000e+00 
0.0000000e+00 -6.2597417e-07 0.0000000e+00 
0.0000000e+00 -8.4793260e-07 0.0000000e+00 
0.0000000e+00 -8.3895162e-07 0.0000000e+00 
0.0000000e+00 -8.2313380e-07 0.0000000e+00 
0.0000000e+00 0.0000000e+00 0.0000000e+00 
0.0000000e+00 0.0000000e+00 0.0000000e+00 
0.0000000e+00 0.0000000e+00 0.0000000e+00 
0.0000000e+00 0.0000000e+00 0.0000000e+00 
0.0000000e+00 0.0000000e+00 0.0000000e+00 
0.0000000e+00 0.0000000e+00 0.0000000e+00 
0.0000000e+00 0.0000000e+00 0.0000000e+00 
0.0000000e+00 0.0000000e+00 0.0000000e+00 
0.0000000e+00 0.0000000e+00 0.0000000e+00 
0.0000000e+00 0.0000000e+00 0.0000000e+00 
0.0000000e+00 0.0000000e+00 0.0000000e+00 
0.0000000e+00 0.0000000e+00 0.0000000e+00 
0.0000000e+00 0.0000000e+00 0.0000000e+00 
0.0000000e+00 0.0000000e+00 0.0000000e+00 
0.0000000e+00 0.0000000e+00 0.0000000e+00 
0.0000000e+00 0.0000000e+00 0.0000000e+00 
0.0000000e+00 0.0000000e+00 0.0000000e+00 
0.0000000e+00 0.0000000e+00 0.0000000e+00 
0.0000000e+00 0.0000000e+00 0.0000000e+00 
0.0000000e+00 0.0000000e+00 0.0000000e+00 
0.0000000e+00 0.0000000e+00 0.0000000e+00 
0.0000000e+00 0.0000000e+00 0.0000000e+00 
0.0000000e+00 0.0000000e+00 0.0000000e+00 
0.0000000e+00 -9.9454235e-07 0.0000000e+00 
0.0000000e+00 -1.8056664e-06 0.0000000e+00 
0.0000000e+00 -4.1083040e-05 0.0000000e+00 
0.0000000e+00 -2.0095618e-05 0.0000000e+00 
0.0000000e+00 0.0000000e+00 0.0000000e+00 
0.0000000e+00 0.0000000e+00 0.0000000e+00 
0.0000000e+00 0.0000000e+00 0.0000000e+00 
0.0000000e+00 0.0000000e+00 0.0000000e+00 
0.0000000e+00 0.0000000e+00 0.0000000e+00 
0.0000000e+00 0.0000000e+00 0.0000000e+00 
0.0000000e+00 0.0000000e+00 0.0000000e+00 
0.0000000e+00 0.0000000e+00 0.0000000e+00 
0.0000000e+00 0.0000000e+00 0.0000000e+00 
0.0000000e+00 0.0000000e+00 0.0000000e+00 
0.0000000e+00 0.0000000e+00 0.0000000e+00 
0.0000000e+00 0.0000000e+00 0.0000000e+00 
0.0000000e+00 0.0000000e+00 0.0000000e+00 
0.0000000e+00 0.0000000e+00 0.0000000e+00 
0.0000000e+00 0.0000000e+00 0.0000000e+00 
0.0000000e+00 0.0000000e+00 0.0000000e+00 
0.0000000e+00 0.0000000e+00 0.0000000e+00 
0.0000000e+00 0.0000000e+00 0.0000000e+00 
0.0000000e+00 0.0000000e+00 0.0000000e+00 
0.0000000e+00 0.0000000e+00 0.0000000e+00 
0.0000000e+00 0.0000000e+00 0.0000000e+00 
0.0000000e+00 0.0000000e+00 0.0000000e+00 
0.0000000e+00 -1.4443291e-06 0.0000000e+00 
0.0000000e+00 -5.2732258e-07 0.0000000e+00 
0.0000000e+00 -2.4117099e-07 0.0000000e+00 
0.0000000e+00 1.1005978e-07 0.0000000e+00 
0.0000000e+00 1.2995829e-07 0.0000000e+00 
0.0000000e+00 8.7922359e-08 0.0000000e+00 
0.0000000e+00 2.6370804e-08 0.0000000e+00 
0.0000000e+00 -1.3704584e-08 0.0000000e+00 
0.0000000e+00 -2.7332788e-08 0.0000000e+00 
0.0000000e+00 -1.5381383e-08 0.0000000e+00 
0.0000000e+00 -2.8874027e-08 0.0000000e+00 
0.0000000e+00 -3.0635434e-05 0.0000000e+00 
0.0000000e+00 -6.5060599e-06 0.0000000e+00 
0.0000000e+00 -1.2997110e-06 0.0000000e+00 
0.0000000e+00 -3.8780664e-07 0.0000000e+00 
0.0000000e+00 -9.0037453e-09 0.0000000e+00 
0.0000000e+00 1.9300244e-07 0.0000000e+00 
0.0000000e+00 1.8538512e-07 0.0000000e+00 
0.0000000e+00 1.0695013e-07 0.0000000e+00 
0.0000000e+00 6.9697613e-08 0.0000000e+00 
0.0000000e+00 1.6089793e-08 0.0000000e+00 
0.0000000e+00 3.4513570e-09 0.0000000e+00 
0.0000000e+00 -3.5295400e-06 0.0000000e+00 
0.0000000e+00 -8.6525670e-06 0.0000000e+00 
0.0000000e+00 -2.0992973e-05 0.0000000e+00 
0.0000000e+00 -2.9643603e-08 0.0000000e+00 
0.0000000e+00 -1.9004535e-08 0.0000000e+00 
0.0000000e+00 -1.0177933e-09 0.0000000e+00 
0.0000000e+00 -2.2792792e-06 0.0000000e+00 
0.0000000e+00 -1.2141194e-05 0.0000000e+00 
0.0000000e+00 -1.4633952e-05 0.0000000e+00 
0.0000000e+00 -4.9907878e-05 0.0000000e+00 
0.0000000e+00 -7.4332165e-06 0.0000000e+00 
0.0000000e+00 -5.8013861e-06 0.0000000e+00 
0.0000000e+00 -1.8458745e-06 0.0000000e+00 
0.0000000e+00 -3.6755016e-05 0.0000000e+00 
0.0000000e+00 -2.0633524e-05 0.0000000e+00 
0.0000000e+00 -7.2432658e-06 0.0000000e+00 
0.0000000e+00 -1.1912338e-06 0.0000000e+00 
0.0000000e+00 -2.7316344e-06 0.0000000e+00 
0.0000000e+00 -8.0145706e-05 0.0000000e+00 
0.0000000e+00 -1.6666636e-05 0.0000000e+00 
0.0000000e+00 0.0000000e+00 0.0000000e+00 
0.0000000e+00 0.0000000e+00 0.0000000e+00 
0.0000000e+00 0.0000000e+00 0.0000000e+00 
0.0000000e+00 0.0000000e+00 0.0000000e+00 
0.0000000e+00 0.0000000e+00 0.0000000e+00 
0.0000000e+00 0.0000000e+00 0.0000000e+00 
0.0000000e+00 0.0000000e+00 0.0000000e+00 
0.0000000e+00 0.0000000e+00 0.0000000e+00 
0.0000000e+00 0.0000000e+00 0.0000000e+00 
0.0000000e+00 0.0000000e+00 0.0000000e+00 
0.0000000e+00 0.0000000e+00 0.0000000e+00 
0.0000000e+00 0.0000000e+00 0.0000000e+00 
0.0000000e+00 0.0000000e+00 0.0000000e+00 
0.0000000e+00 0.0000000e+00 0.0000000e+00 
0.0000000e+00 0.0000000e+00 0.0000000e+00 
0.0000000e+00 0.0000000e+00 0.0000000e+00 
0.0000000e+00 0.0000000e+00 0.0000000e+00 
0.0000000e+00 0.0000000e+00 0.0000000e+00 
0.0000000e+00 0.0000000e+00 0.0000000e+00 
0.0000000e+00 0.0000000e+00 0.0000000e+00 
0.0000000e+00 0.0000000e+00 0.0000000e+00 
0.0000000e+00 0.0000000e+00 0.0000000e+00 
0.0000000e+00 0.0000000e+00 0.0000000e+00 
0.0000000e+00 0.0000000e+00 0.0000000e+00 
0.0000000e+00 0.0000000e+00 0.0000000e+00 
0.0000000e+00 0.0000000e+00 0.0000000e+00 
0.0000000e+00 0.0000000e+00 0.0000000e+00 
0.0000000e+00 0.0000000e+00 0.0000000e+00 
0.0000000e+00 0.0000000e+00 0.0000000e+00 
0.0000000e+00 0.0000000e+00 0.0000000e+00 
0.0000000e+00 0.0000000e+00 0.0000000e+00 
0.0000000e+00 0.0000000e+00 0.0000000e+00 
0.0000000e+00 0.0000000e+00 0.0000000e+00 
0.0000000e+00 0.0000000e+00 0.0000000e+00 
0.0000000e+00 0.0000000e+00 0.0000000e+00 
0.0000000e+00 0.0000000e+00 0.0000000e+00 
0.0000000e+00 0.0000000e+00 0.0000000e+00 
0.0000000e+00 0.0000000e+00 0.0000000e+00 
0.0000000e+00 0.0000000e+00 0.0000000e+00 
0.0000000e+00 0.0000000e+00 0.0000000e+00 
0.0000000e+00 0.0000000e+00 0.0000000e+00 
0.0000000e+00 0.0000000e+00 0.0000000e+00 
0.0000000e+00 0.0000000e+00 0.0000000e+00 
0.0000000e+00 0.0000000e+00 0.0000000e+00 
0.0000000e+00 0.0000000e+00 0.0000000e+00 
0.0000000e+00 0.0000000e+00 0.0000000e+00 
0.0000000e+00 0.0000000e+00 0.0000000e+00 
0.0000000e+00 0.0000000e+00 0.0000000e+00 
0.0000000e+00 0.0000000e+00 0.0000000e+00 
0.0000000e+00 -6.7768474e-07 0.0000000e+00 
0.0000000e+00 -2.0067720e-08 0.0000000e+00 
0.0000000e+00 5.8507698e-08 0.0000000e+00 
0.0000000e+00 1.2476487e-07 0.0000000e+00 
0.0000000e+00 8.3595358e-10 0.0000000e+00 
0.0000000e+00 -2.6507010e-07 0.0000000e+00 
0.0000000e+00 4.5874856e-08 0.0000000e+00 
0.0000000e+00 3.2645673e-08 0.0000000e+00 
0.0000000e+00 -2.1311829e-08 0.0000000e+00 
0.0000000e+00 5.1380649e-08 0.0000000e+00 
0.0000000e+00 -3.3674587e-07 0.0000000e+00 
0.0000000e+00 1.3391873e-07 0.0000000e+00 
0.0000000e+00 4.9669339e-08 0.0000000e+00 
0.0000000e+00 8.2022087e-09 0.0000000e+00 
0.0000000e+00 -5.2645703e-07 0.0000000e+00 
0.0000000e+00 -5.8257186e-09 0.0000000e+00 
0.0000000e+00 -2.1230679e-08 0.0000000e+00 
0.0000000e+00 -9.6143583e-07 0.0000000e+00 
0.0000000e+00 1.1896496e-07 0.0000000e+00 
0.0000000e+00 2.3450221e-08 0.0000000e+00 
0.0000000e+00 -4.8259545e-07 0.0000000e+00 
0.0000000e+00 7.0197615e-08 0.0000000e+00 
0.0000000e+00 7.6104172e-08 0.0000000e+00 
0.0000000e+00 -1.1538110e-07 0.0000000e+00 
0.0000000e+00 -8.7493843e-09 0.0000000e+00 
0.0000000e+00 -3.2754013e-08 0.0000000e+00 
0.0000000e+00 -1.2349441e-08 0.0000000e+00 
0.0000000e+00 -1.3036860e-06 0.0000000e+00 
0.0000000e+00 -5.4021456e-07 0.0000000e+00 
0.0000000e+00 3.4354500e-08 0.0000000e+00 
0.0000000e+00 -2.0197291e-05 0.0000000e+00 
0.0000000e+00 -2.2313789e-06 0.0000000e+00 
0.0000000e+00 -7.8103128e-08 0.0000000e+00 
0.0000000e+00 5.0211785e-08 0.0000000e+00 
0.0000000e+00 -7.2465878e-07 0.0000000e+00 
0.0000000e+00 1.1284848e-07 0.0000000e+00 
0.0000000e+00 1.3263356e-07 0.0000000e+00 
0.0000000e+00 -5.2877499e-07 0.0000000e+00 
0.0000000e+00 -3.2656947e-06 0.0000000e+00 
0.0000000e+00 -1.9309461e-07 0.0000000e+00 
0.0000000e+00 1.9485009e-07 0.0000000e+00 
0.0000000e+00 1.2617356e-07 0.0000000e+00 
0.0000000e+00 8.2626030e-08 0.0000000e+00 
0.0000000e+00 -1.4084425e-05 0.0000000e+00 
0.0000000e+00 -5.6329513e-06 0.0000000e+00 
0.0000000e+00 2.7391945e-08 0.0000000e+00 
0.0000000e+00 -1.6543062e-09 0.0000000e+00 
0.0000000e+00 6.4406763e-08 0.0000000e+00 
0.0000000e+00 -3.8416619e-07 0.0000000e+00 
0.0000000e+00 -1.5152953e-06 0.0000000e+00 
0.0000000e+00 1.2258305e-07 0.0000000e+00 
0.0000000e+00 3.6779177e-08 0.0000000e+00 
0.0000000e+00 7.0780139e-08 0.0000000e+00 
0.0000000e+00 -6.2121530e-06 0.0000000e+00 
0.0000000e+00 1.4075233e-08 0.0000000e+00 
0.0000000e+00 -3.6058242e-05 0.0000000e+00 
0.0000000e+00 -9.7828379e-06 0.0000000e+00 
0.0000000e+00 4.2411994e-08 0.0000000e+00 
0.0000000e+00 -1.4512662e-10 0.0000000e+00 
0.0000000e+00 -2.0996852e-08 0.0000000e+00 
0.0000000e+00 -1.8553187e-08 0.0000000e+00 
0.0000000e+00 -1.3112056e-08 0.0000000e+00 
0.0000000e+00 -3.6790258e-09 0.0000000e+00 
0.0000000e+00 -3.1389195e-08 0.0000000e+00 
0.0000000e+00 -1.1066643e-08 0.0000000e+00 
0.0000000e+00 -6.0147047e-09 0.0000000e+00 
0.0000000e+00 -1.4479347e-08 0.0000000e+00 
0.0000000e+00 -2.2338423e-08 0.0000000e+00 
0.0000000e+00 -1.2252176e-08 0.0000000e+00 
0.0000000e+00 -3.4914727e-08 0.0000000e+00 
0.0000000e+00 -8.7250438e-09 0.0000000e+00 
0.0000000e+00 -2.0887292e-09 0.0000000e+00 
-1.5843918e-07 4.7842725e-08 -4.8496617e-07 
4.3904058e-09 2.2117408e-07 -1.1645248e-07 
3.9094510e-09 9.6442143e-08 4.8998260e-08 
-9.5568839e-07 -3.2646274e-06 -3.9211627e-06 
-5.5082961e-07 5.6596310e-08 -1.5850989e-06 
-3.7417436e-08 1.1621790e-07 -7.3373137e-08 
-3.6238947e-07 -4.1663702e-07 -5.0745217e-07 
-4.7273625e-09 1.3980057e-08 1.0652574e-08 
-3.1095196e-06 -1.8472418e-05 -7.2712155e-06 
-7.4869316e-10 8.9312621e-08 4.4629274e-08 
-2.3230982e-06 -4.1834355e-06 -1.5205027e-06 
6.9694637e-09 -2.4532300e-08 1.5331947e-08 
-7.2723241e-09 6.8999626e-08 5.0064588e-09 
-1.3220429e-08 7.4005015e-08 -1.6757911e-09 
1.4892237e-09 1.9607238e-08 3.1485470e-08 
-6.0990071e-09 7.2045026e-08 1.3022910e-08 
-2.6565699e-08 1.3241819e-07 -4.6381874e-08 
8.6302583e-09 1.8016117e-08 2.3892865e-08 
-7.1033064e-09 1.4872752e-07 -3.1296294e-09 
-3.4596912e-08 1.3884421e-07 -5.8758911e-08 
-7.3388655e-08 1.8359286e-07 -1.6004516e-07 
-7.3268325e-08 1.8075372e-07 -1.8930223e-07 
-1.3775070e-07 2.1204021e-07 -3.8078727e-07 
-1.6785276e-07 2.2299794e-07 -4.1349352e-07 
-2.8001003e-07 6.7482695e-08 -7.4709914e-07 
-2.8453894e-07 -7.8324845e-08 -6.0752694e-07 
-5.1431880e-07 -3.6074337e-07 -1.2657600e-06 
-6.4638306e-07 -7.0294215e-07 -1.2388650e-06 
-7.8484004e-07 -1.4954994e-06 -1.7778435e-06 
-1.1403880e-06 -1.9337101e-06 -1.7294678e-06 
-2.1093715e-06 -4.3380455e-06 -2.9080672e-06 
-7.1199800e-08 2.2817680e-07 -2.7683257e-07 
-4.4889312e-08 2.1168697e-07 -1.5891665e-07 
-3.5667310e-07 -2.1672966e-07 -9.8263979e-07 
-1.8523640e-07 -3.6746709e-08 -4.0450365e-07 
5.6542682e-09 -1.1337171e-08 2.2585231e-08 
-1.9339329e-07 8.6299906e-08 -5.9578514e-07 
-7.9014981e-08 1.7863081e-07 -1.7285770e-07 
-3.1026050e-06 -1.1191602e-05 -2.8216268e-06 
7.7603808e-09 -1.9348562e-08 1.7436491e-08 
4.4572031e-09 7.2680635e-08 3.8069818e-08 
1.6936914e-08 3.8820598e-08 5.0971305e-08 
-3.1251851e-08 2.3237406e-07 -2.2827774e-07 
-7.5406308e-07 -1.1772197e-06 -6.0235607e-07 
-7.5993142e-07 -3.1189313e-07 -2.6331982e-06 
-7.0207312e-07 -4.9486658e-07 -1.7370365e-06 
-3.5706518e-07 -1.8828177e-07 -9.8928649e-07 
-2.5233439e-07 -7.2123015e-08 -6.3867333e-07 
3.6316214e-09 2.1835028e-07 -3.4870581e-08 
-1.8209245e-09 1.3307854e-07 3.6987615e-08 
-3.2180817e-06 -4.8758906e-05 -2.9216014e-06 
-2.2127761e-06 -9.3218605e-06 -6.3017605e-06 
-1.2427756e-11 4.7676110e-08 2.8756352e-08 
-2.1820931e-06 -4.4067037e-06 -2.4681385e-06 
-8.2680066e-07 -2.5834192e-06 -2.7966892e-06 
1.1444182e-08 7.5245289e-08 6.6829905e-08 
-1.9063368e-08 1.8737423e-07 -5.2273087e-08 
-3.1885447e-06 -1.0490997e-05 -5.9497211e-06 
-9.4490780e-08 1.6090030e-07 -3.7540832e-07 
4.4565547e-09 -1.4906547e-08 3.5447648e-08 
8.4948395e-09 -3.3170544e-08 1.4613860e-08 
-8.5974648e-07 -1.9647657e-06 -4.6319383e-07 
-1.6619717e-07 7.1082283e-08 -4.4168033e-07 
-1.9551467e-06 -5.6311305e-06 -4.7905623e-06 
1.4084909e-08 1.5445080e-08 3.1287790e-08 
-4.0869974e-08 1.8634552e-07 -9.4148085e-08 
-1.1938052e-06 -1.4396222e-06 -1.2610928e-06 
-5.1556844e-07 -3.8002182e-07 -8.6062835e-07 
-3.3377637e-06 -2.2876095e-05 -5.9311365e-06 
-1.5285180e-07 1.3833832e-07 -4.5198777e-07 
8.8932389e-10 5.3400346e-09 2.1272269e-08 
-2.9475093e-08 -2.7050480e-06 -3.7715733e-06 
-2.4907885e-07 -9.1946376e-06 -5.4388174e-06 
-6.7958908e-08 -1.3821701e-06 -2.3911002e-06 
-1.0921958e-07 -1.7578823e-07 -1.4585190e-06 
-1.6155548e-06 -2.7563034e-05 -4.4795142e-06 
-2.1583676e-07 -3.2726709e-07 -7.1052710e-07 
-9.7097015e-08 -2.3507276e-07 -3.3825441e-07 
-8.0781142e-08 -3.3428574e-08 -2.1135999e-07 
-2.3041910e-08 8.9580304e-08 -1.3143691e-07 
-8.1342577e-09 2.1689469e-07 -8.7634753e-08 
8.7032275e-09 2.4729306e-07 -5.0401045e-08 
2.1908848e-08 2.4356422e-07 -9.7218971e-09 
1.6630608e-08 1.9285864e-07 1.3701692e-08 
6.9961477e-09 1.3444368e-07 2.5537979e-08 
7.9333997e-09 1.1243508e-07 2.9529168e-08 
1.4247441e-08 1.0904119e-07 2.9130259e-08 
5.9815570e-09 6.8568468e-08 1.8556324e-08 
-2.9240202e-06 -5.7753510e-05 -4.1226813e-06 
1.1818785e-06 -5.0243871e-06 3.5846476e-06 
1.4167534e-07 -4.6645809e-07 7.5901607e-07 
-2.8316780e-08 1.2966611e-07 3.0581752e-08 
-2.9292293e-08 1.1490425e-07 -4.8671971e-08 
-1.4460869e-08 3.6141554e-08 -3.1573382e-08 
5.2112307e-07 -7.1739953e-07 8.3135041e-07 
5.5543556e-08 8.1448682e-08 1.8894320e-07 
-3.9116280e-08 1.2626737e-07 -4.7182677e-08 
-4.5124555e-08 2.7940976e-08 5.7957783e-10 
-1.9014732e-07 -1.1057856e-06 4.9226492e-07 
1.3923981e-06 -2.0997582e-05 6.3825655e-06 
-3.2503404e-08 3.1421639e-08 -4.8617558e-08 
1.2055555e-06 -3.9203251e-06 1.4100884e-06 
-2.6658130e-08 2.1183951e-07 -4.5864823e-08 
-1.3112922e-08 9.6061967e-08 -2.3992662e-08 
-1.1965609e-07 -3.2780872e-07 -1.8352152e-07 
-4.3715456e-08 1.5034557e-07 1.6748308e-09 
2.3267734e-07 -1.3299817e-06 7.5033171e-07 
-2.6016030e-08 1.4985788e-07 -8.2290015e-08 
4.2481837e-08 -4.2587811e-08 2.7561575e-07 
7.1888362e-09 -4.9683213e-06 1.1596933e-06 
2.1328046e-09 1.2110915e-07 2.0314612e-08 
-3.2404208e-09 7.4139990e-08 -8.7267740e-09 
5.8255330e-07 -1.0582165e-06 4.7095259e-07 
-1.5067888e-08 -1.6451120e-08 -1.5135633e-08 
2.4802117e-07 -1.1100715e-06 1.5330633e-06 
1.1932952e-08 9.5064891e-08 9.5320772e-08 
1.0004766e-06 -1.9549616e-06 1.6875800e-06 
3.1228336e-07 -4.6564213e-07 7.4281490e-07 
5.9022693e-08 -1.9529597e-07 1.6681665e-07 
-2.5815638e-08 5.1539537e-08 -2.5805711e-08 
-4.9916164e-08 1.5060469e-07 -7.2530412e-08 
-2.0251887e-08 1.7019089e-07 -4.8452790e-08 
-5.8201735e-08 2.2122741e-07 -1.1898747e-07 
-1.6647068e-08 1.9972579e-09 -2.3817798e-08 
-2.6805260e-08 6.5589816e-08 -4.8770200e-08 
1.6887769e-06 -5.3984354e-06 2.3739835e-06 
1.0750083e-07 -7.1639597e-08 1.2327807e-07 
1.3569770e-06 -9.1443571e-06 4.0641025e-06 
-2.1900629e-08 9.3018848e-08 -5.1554543e-09 
-8.6860874e-09 -1.5376284e-07 4.2983140e-07 
-9.6399448e-09 5.6038962e-10 -8.3117637e-09 
-1.0166326e-08 5.8587002e-08 -3.6460538e-08 
-1.4886874e-07 -4.7556195e-08 -2.5888500e-07 
1.2187332e-06 -7.6359765e-06 2.0371804e-06 
-4.6486957e-08 2.3052098e-07 -1.0026650e-07 
2.4167713e-07 -2.4356282e-07 2.9311752e-07 
-2.5431323e-08 4.6266113e-08 -4.4470568e-08 
2.3200381e-07 -2.1537353e-06 3.4122931e-07 
-3.4547065e-09 1.5305016e-08 1.2338307e-07 
1.1292119e-07 -6.5754159e-07 4.8140173e-08 
-1.9309720e-08 1.7582636e-08 -2.8758301e-08 
-7.3634538e-09 4.7432991e-08 1.0372085e-09 
-3.8304705e-08 2.2359606e-07 -1.0065684e-07 
-2.3147061e-08 1.4338436e-07 -1.0439947e-08 
-3.2255926e-08 9.1912668e-08 -1.0829512e-08 
-5.9215357e-09 1.9935907e-08 -2.2391612e-08 
3.7278724e-07 -2.2767897e-06 1.5951386e-07 
-3.5945587e-09 1.6781526e-07 -5.8008283e-08 
6.0784863e-08 2.2725482e-08 1.1428830e-07 
-3.7165101e-08 1.3741847e-07 -3.6132924e-08 
-1.8782938e-08 6.0225545e-08 -2.3833621e-08 
-1.5085755e-07 -3.4826546e-06 3.6989229e-07 
-3.5159640e-09 8.5767368e-08 7.9733367e-09 