# vtk DataFile Version 4.0
vtk output
ASCII
DATASET UNSTRUCTURED_GRID
POINTS 460 float
0.0000000e+00 0.0000000e+00 0.0000000e+00 
5.0000000e+00 0.0000000e+00 0.0000000e+00 
5.0000000e+00 3.0000000e+00 0.0000000e+00 
0.0000000e+00 3.0000000e+00 0.0000000e+00 
0.0000000e+00 0.0000000e+00 1.0000000e+01 
5.0000000e+00 0.0000000e+00 1.0000000e+01 
5.0000000e+00 3.0000000e+00 1.0000000e+01 
0.0000000e+00 3.0000000e+00 1.0000000e+01 
1.0000000e+00 3.0000000e+00 -5.0000000e+00 
1.0000000e+00 3.0000000e+00 -4.5000000e+00 
1.0000000e+00 3.0000000e+00 -4.0000000e+00 
1.0000000e+00 3.0000000e+00 -3.5000000e+00 
1.0000000e+00 3.0000000e+00 -3.0000000e+00 
1.0000000e+00 3.0000000e+00 -2.5000000e+00 
1.0000000e+00 3.0000000e+00 -2.0000000e+00 
1.0000000e+00 3.0000000e+00 -1.5000000e+00 
1.0000000e+00 3.0000000e+00 -1.0000000e+00 
1.0000000e+00 3.0000000e+00 -5.0000000e-01 
1.0000000e+00 3.0000000e+00 0.0000000e+00 
1.0000000e+00 3.0000000e+00 5.0000000e-01 
1.0000000e+00 3.0000000e+00 1.0000000e+00 
1.0000000e+00 3.0000000e+00 1.5000000e+00 
1.0000000e+00 3.0000000e+00 2.0000000e+00 
1.0000000e+00 3.0000000e+00 2.5000000e+00 
1.0000000e+00 3.0000000e+00 3.0000000e+00 
1.0000000e+00 3.0000000e+00 3.5000000e+00 
1.0000000e+00 3.0000000e+00 4.0000000e+00 
1.0000000e+00 3.0000000e+00 4.5000000e+00 
1.0000000e+00 3.0000000e+00 5.0000000e+00 
1.0000000e+00 3.0000000e+00 5.5000000e+00 
1.0000000e+00 3.0000000e+00 6.0000000e+00 
1.0000000e+00 3.0000000e+00 6.5000000e+00 
1.0000000e+00 3.0000000e+00 7.0000000e+00 
1.0000000e+00 3.0000000e+00 7.5000000e+00 
1.0000000e+00 3.0000000e+00 8.0000000e+00 
1.0000000e+00 3.0000000e+00 8.5000000e+00 
1.0000000e+00 3.0000000e+00 9.0000000e+00 
1.0000000e+00 3.0000000e+00 9.5000000e+00 
1.0000000e+00 3.0000000e+00 1.0000000e+01 
1.0000000e+00 3.0000000e+00 1.0500000e+01 
1.0000000e+00 3.0000000e+00 1.1000000e+01 
1.0000000e+00 3.0000000e+00 1.1500000e+01 
1.0000000e+00 3.0000000e+00 1.2000000e+01 
1.0000000e+00 3.0000000e+00 1.2500000e+01 
1.0000000e+00 3.0000000e+00 1.3000000e+01 
1.0000000e+00 3.0000000e+00 1.3500000e+01 
1.0000000e+00 3.0000000e+00 1.4000000e+01 
1.0000000e+00 3.0000000e+00 1.4500000e+01 
1.0000000e+00 3.0250001e+00 -5.0000000e+00 
1.0000000e+00 3.0250001e+00 -4.5000000e+00 
1.0000000e+00 3.0250001e+00 -4.0000000e+00 
1.0000000e+00 3.0250001e+00 -3.5000000e+00 
1.0000000e+00 3.0250001e+00 -3.0000000e+00 
1.0000000e+00 3.0250001e+00 -2.5000000e+00 
1.0000000e+00 3.0250001e+00 -2.0000000e+00 
1.0000000e+00 3.0250001e+00 -1.5000000e+00 
1.0000000e+00 3.0250001e+00 -1.0000000e+00 
1.0000000e+00 3.0250001e+00 -5.0000000e-01 
1.0000000e+00 3.0250001e+00 0.0000000e+00 
1.0000000e+00 3.0250001e+00 5.0000000e-01 
1.0000000e+00 3.0250001e+00 1.0000000e+00 
1.0000000e+00 3.0250001e+00 1.5000000e+00 
1.0000000e+00 3.0250001e+00 2.0000000e+00 
1.0000000e+00 3.0250001e+00 2.5000000e+00 
1.0000000e+00 3.0250001e+00 3.0000000e+00 
1.0000000e+00 3.0250001e+00 3.5000000e+00 
1.0000000e+00 3.0250001e+00 4.0000000e+00 
1.0000000e+00 3.0250001e+00 4.5000000e+00 
1.0000000e+00 3.0250001e+00 5.0000000e+00 
1.0000000e+00 3.0250001e+00 5.5000000e+00 
1.0000000e+00 3.0250001e+00 6.0000000e+00 
1.0000000e+00 3.0250001e+00 6.5000000e+00 
1.0000000e+00 3.0250001e+00 7.0000000e+00 
1.0000000e+00 3.0250001e+00 7.5000000e+00 
1.0000000e+00 3.0250001e+00 8.0000000e+00 
1.0000000e+00 3.0250001e+00 8.5000000e+00 
1.0000000e+00 3.0250001e+00 9.0000000e+00 
1.0000000e+00 3.0250001e+00 9.5000000e+00 
1.0000000e+00 3.0250001e+00 1.0000000e+01 
1.0000000e+00 3.0250001e+00 1.0500000e+01 
1.0000000e+00 3.0250001e+00 1.1000000e+01 
1.0000000e+00 3.0250001e+00 1.1500000e+01 
1.0000000e+00 3.0250001e+00 1.2000000e+01 
1.0000000e+00 3.0250001e+00 1.2500000e+01 
1.0000000e+00 3.0250001e+00 1.3000000e+01 
1.0000000e+00 3.0250001e+00 1.3500000e+01 
1.0000000e+00 3.0250001e+00 1.4000000e+01 
1.0000000e+00 3.0250001e+00 1.4500000e+01 
1.0000000e+00 -2.0000000e+00 -5.0000000e+00 
1.0000000e+00 -2.0000000e+00 -4.5000000e+00 
1.0000000e+00 -2.0000000e+00 -4.0000000e+00 
1.0000000e+00 -2.0000000e+00 -3.5000000e+00 
1.0000000e+00 -2.0000000e+00 -3.0000000e+00 
1.0000000e+00 -2.0000000e+00 -2.5000000e+00 
1.0000000e+00 -2.0000000e+00 -2.0000000e+00 
1.0000000e+00 -2.0000000e+00 -1.5000000e+00 
1.0000000e+00 -2.0000000e+00 -1.0000000e+00 
1.0000000e+00 -2.0000000e+00 -5.0000000e-01 
1.0000000e+00 -2.0000000e+00 1.0500000e+01 
1.0000000e+00 -2.0000000e+00 1.1000000e+01 
1.0000000e+00 -2.0000000e+00 1.1500000e+01 
1.0000000e+00 -2.0000000e+00 1.2000000e+01 
1.0000000e+00 -2.0000000e+00 1.2500000e+01 
1.0000000e+00 -2.0000000e+00 1.3000000e+01 
1.0000000e+00 -2.0000000e+00 1.3500000e+01 
1.0000000e+00 -2.0000000e+00 1.4000000e+01 
1.0000000e+00 -2.0000000e+00 1.4500000e+01 
1.0000000e+00 0.0000000e+00 0.0000000e+00 
2.0000000e+00 0.0000000e+00 0.0000000e+00 
3.0000000e+00 0.0000000e+00 0.0000000e+00 
4.0000000e+00 0.0000000e+00 0.0000000e+00 
5.0000000e+00 1.0000000e+00 0.0000000e+00 
5.0000000e+00 2.0000000e+00 0.0000000e+00 
0.0000000e+00 2.0000000e+00 0.0000000e+00 
0.0000000e+00 1.0000000e+00 0.0000000e+00 
0.0000000e+00 0.0000000e+00 1.0000000e+00 
0.0000000e+00 0.0000000e+00 2.0000000e+00 
0.0000000e+00 0.0000000e+00 3.0000000e+00 
0.0000000e+00 0.0000000e+00 4.0000000e+00 
0.0000000e+00 0.0000000e+00 5.0000000e+00 
0.0000000e+00 0.0000000e+00 6.0000000e+00 
0.0000000e+00 0.0000000e+00 7.0000000e+00 
0.0000000e+00 0.0000000e+00 8.0000000e+00 
0.0000000e+00 0.0000000e+00 9.0000000e+00 
5.0000000e+00 0.0000000e+00 1.0000000e+00 
5.0000000e+00 0.0000000e+00 2.0000000e+00 
5.0000000e+00 0.0000000e+00 3.0000000e+00 
5.0000000e+00 0.0000000e+00 4.0000000e+00 
5.0000000e+00 0.0000000e+00 5.0000000e+00 
5.0000000e+00 0.0000000e+00 6.0000000e+00 
5.0000000e+00 0.0000000e+00 7.0000000e+00 
5.0000000e+00 0.0000000e+00 8.0000000e+00 
5.0000000e+00 0.0000000e+00 9.0000000e+00 
1.0000000e+00 0.0000000e+00 1.0000000e+01 
2.0000000e+00 0.0000000e+00 1.0000000e+01 
3.0000000e+00 0.0000000e+00 1.0000000e+01 
4.0000000e+00 0.0000000e+00 1.0000000e+01 
5.0000000e+00 3.0000000e+00 1.0000000e+00 
5.0000000e+00 3.0000000e+00 2.0000000e+00 
5.0000000e+00 3.0000000e+00 3.0000000e+00 
5.0000000e+00 3.0000000e+00 4.0000000e+00 
5.0000000e+00 3.0000000e+00 5.0000000e+00 
5.0000000e+00 3.0000000e+00 6.0000000e+00 
5.0000000e+00 3.0000000e+00 7.0000000e+00 
5.0000000e+00 3.0000000e+00 8.0000000e+00 
5.0000000e+00 3.0000000e+00 9.0000000e+00 
5.0000000e+00 1.0000000e+00 1.0000000e+01 
5.0000000e+00 2.0000000e+00 1.0000000e+01 
0.0000000e+00 3.0000000e+00 1.0000000e+00 
0.0000000e+00 3.0000000e+00 2.0000000e+00 
0.0000000e+00 3.0000000e+00 3.0000000e+00 
0.0000000e+00 3.0000000e+00 4.0000000e+00 
0.0000000e+00 3.0000000e+00 5.0000000e+00 
0.0000000e+00 3.0000000e+00 6.0000000e+00 
0.0000000e+00 3.0000000e+00 7.0000000e+00 
0.0000000e+00 3.0000000e+00 8.0000000e+00 
0.0000000e+00 3.0000000e+00 9.0000000e+00 
0.0000000e+00 2.0000000e+00 1.0000000e+01 
0.0000000e+00 1.0000000e+00 1.0000000e+01 
4.0000000e+00 3.0000000e+00 0.0000000e+00 
3.0000000e+00 3.0000000e+00 0.0000000e+00 
2.0000000e+00 3.0000000e+00 0.0000000e+00 
4.0000000e+00 3.0000000e+00 1.0000000e+01 
3.0000000e+00 3.0000000e+00 1.0000000e+01 
2.0000000e+00 3.0000000e+00 1.0000000e+01 
4.0618000e+00 1.5000000e+00 0.0000000e+00 
1.5046000e+00 7.6549745e-01 0.0000000e+00 
2.5000000e+00 2.1339746e+00 0.0000000e+00 
1.5046000e+00 2.2345026e+00 0.0000000e+00 
2.4957771e+00 8.1560516e-01 0.0000000e+00 
3.4707544e+00 2.2336540e+00 0.0000000e+00 
3.4700506e+00 7.5794268e-01 0.0000000e+00 
8.6322361e-01 1.5000000e+00 0.0000000e+00 
2.0000000e+00 1.5000000e+00 0.0000000e+00 
2.9960666e+00 1.4974480e+00 0.0000000e+00 
4.2679491e+00 7.3205084e-01 0.0000000e+00 
4.2679491e+00 2.2679491e+00 0.0000000e+00 
7.2695929e-01 2.2730408e+00 0.0000000e+00 
7.2695929e-01 7.2695929e-01 0.0000000e+00 
4.1822505e+00 0.0000000e+00 2.5515697e+00 
4.2017918e+00 0.0000000e+00 4.4725966e+00 
4.1114569e+00 0.0000000e+00 6.5092020e+00 
8.6602539e-01 0.0000000e+00 3.5000000e+00 
8.4778279e-01 0.0000000e+00 5.4684029e+00 
8.9629614e-01 0.0000000e+00 7.5867257e+00 
2.5566745e+00 0.0000000e+00 8.1853306e-01 
2.4918270e+00 0.0000000e+00 9.1386929e+00 
8.4677207e-01 0.0000000e+00 1.5042374e+00 
4.0943027e+00 0.0000000e+00 8.4081745e+00 
8.6281651e-01 0.0000000e+00 2.5007062e+00 
1.7315160e+00 0.0000000e+00 3.0001178e+00 
1.7319617e+00 0.0000000e+00 4.0000196e+00 
2.5980761e+00 0.0000000e+00 3.5000000e+00 
2.5536871e+00 0.0000000e+00 4.4963923e+00 
2.5928419e+00 0.0000000e+00 2.4239938e+00 
1.5037409e+00 0.0000000e+00 9.1535149e+00 
1.8433737e+00 0.0000000e+00 8.1858873e+00 
3.0000000e+00 0.0000000e+00 8.2679491e+00 
2.5000000e+00 0.0000000e+00 7.4019237e+00 
3.5042722e+00 0.0000000e+00 7.4271150e+00 
3.0310018e+00 0.0000000e+00 6.5282087e+00 
2.0373929e+00 0.0000000e+00 6.5307913e+00 
3.4767809e+00 0.0000000e+00 5.8031492e+00 
2.5452602e+00 0.0000000e+00 5.5720768e+00 
1.6456656e+00 0.0000000e+00 1.9697139e+00 
8.6297011e-01 0.0000000e+00 4.4947371e+00 
1.0111579e+00 0.0000000e+00 6.5282545e+00 
3.4994321e+00 0.0000000e+00 8.4691072e-01 
4.1860156e+00 0.0000000e+00 3.5040276e+00 
1.7320508e+00 0.0000000e+00 5.0000000e+00 
4.0544066e+00 0.0000000e+00 1.5781221e+00 
1.5817389e+00 0.0000000e+00 9.3943578e-01 
8.3166349e-01 0.0000000e+00 8.5090933e+00 
3.4686174e+00 0.0000000e+00 9.1752682e+00 
3.0709300e+00 0.0000000e+00 1.5799091e+00 
3.3927374e+00 0.0000000e+00 3.0399952e+00 
3.3826034e+00 0.0000000e+00 3.9747651e+00 
4.3420062e+00 0.0000000e+00 7.4688983e+00 
3.4023225e+00 0.0000000e+00 4.9314723e+00 
1.6740381e+00 0.0000000e+00 7.3014426e+00 
4.2715640e+00 0.0000000e+00 5.4758859e+00 
1.6225953e+00 0.0000000e+00 5.8104177e+00 
4.2679491e+00 0.0000000e+00 9.2679491e+00 
7.3205084e-01 0.0000000e+00 7.3205084e-01 
4.2679491e+00 0.0000000e+00 7.3205084e-01 
7.3205084e-01 0.0000000e+00 9.2679491e+00 
3.4586334e+00 0.0000000e+00 2.2347178e+00 
2.2895701e+00 0.0000000e+00 1.5463171e+00 
5.0000000e+00 2.2345026e+00 1.5046000e+00 
[...]
POINT_DATA 460
FIELD FieldData 2
DISPLACEMENT 3 460  float
0.0000000e+00 0.0000000e+00 0.0000000e+00 
0.0000000e+00 0.0000000e+00 0.0000000e+00 
0.0000000e+00 -8.4929383e-07 0.0000000e+00 
0.0000000e+00 -2.1304053e-05 0.0000000e+00 
0.0000000e+00 0.0000000e+00 0.0000000e+00 
0.0000000e+00 0.0000000e+00 0.0000000e+00 
0.0000000e+00 1.6650955e-07 0.0000000e+00 
0.0000000e+00 8.2684551e-08 0.0000000e+00 
0.0000000e+00 6.3584497e-07 0.0000000e+00 
0.0000000e+00 6.5963388e-07 0.0000000e+00 
0.0000000e+00 7.5386163e-07 0.0000000e+00 
0.0000000e+00 9.6071778e-07 0.0000000e+00 
0.0000000e+00 1.3114981e-06 0.0000000e+00 
0.0000000e+00 1.7818730e-06 0.0000000e+00 
0.0000000e+00 2.2246056e-06 0.0000000e+00 
0.0000000e+00 2.2872393e-06 0.0000000e+00 
0.0000000e+00 1.3416270e-06 0.0000000e+00 
0.0000000e+00 -1.5175926e-06 0.0000000e+00 
0.0000000e+00 -7.5464181e-06 0.0000000e+00 
-1.8434963e-06 -1.8229028e-05 3.6499735e-06 
-4.9664227e-06 -4.1210136e-05 1.1442449e-05 
-3.7209643e-06 -8.4553387e-05 1.1733740e-05 
-7.8664516e-07 -1.5602006e-04 2.0050542e-05 
1.8630798e-06 -2.3209807e-04 7.1260793e-06 
-1.8711012e-06 -2.4242477e-04 -2.4688256e-06 
-1.2808556e-05 -1.7299998e-04 -1.8809094e-05 
-3.5440428e-06 -9.5635602e-05 -1.1144833e-05 
-4.9899454e-06 -4.5665642e-05 -1.7957937e-05 
-2.5928052e-06 -1.8737423e-05 -9.8615665e-06 
-1.5367192e-06 -6.8436921e-06 -6.4694941e-06 
-1.4265437e-06 -2.3874625e-06 -4.6879186e-06 
-6.4699094e-07 -9.3284700e-07 -2.7529381e-06 
-4.0801248e-07 -4.3088042e-07 -1.6282094e-06 
-1.9262326e-07 -1.8284261e-07 -9.8979626e-07 
-1.2766927e-07 -3.0209854e-08 -6.5356619e-07 
-7.0725314e-08 6.2290155e-08 -3.0679840e-07 
-4.5296247e-08 1.0929485e-07 -1.5733315e-07 
-2.5930094e-08 1.2426456e-07 -7.2878663e-08 
0.0000000e+00 1.0955323e-07 0.0000000e+00 
0.0000000e+00 7.9292356e-08 0.0000000e+00 
0.0000000e+00 4.8414385e-08 0.0000000e+00 
0.0000000e+00 2.4081199e-08 0.0000000e+00 
0.0000000e+00 8.1196321e-09 0.0000000e+00 
0.0000000e+00 -6.0769095e-10 0.0000000e+00 
0.0000000e+00 -4.2989243e-09 0.0000000e+00 
0.0000000e+00 -5.1501003e-09 0.0000000e+00 
0.0000000e+00 -4.8881765e-09 0.0000000e+00 
0.0000000e+00 -4.6466031e-09 0.0000000e+00 
0.0000000e+00 6.3604807e-07 0.0000000e+00 
0.0000000e+00 6.5994243e-07 0.0000000e+00 
0.0000000e+00 7.5453374e-07 0.0000000e+00 
0.0000000e+00 9.6235624e-07 0.0000000e+00 
0.0000000e+00 1.3148727e-06 0.0000000e+00 
0.0000000e+00 1.7875485e-06 0.0000000e+00 
0.0000000e+00 2.2324525e-06 0.0000000e+00 
0.0000000e+00 2.2956772e-06 0.0000000e+00 
0.0000000e+00 1.3464967e-06 0.0000000e+00 
0.0000000e+00 -1.5241006e-06 0.0000000e+00 
0.0000000e+00 -7.3388096e-06 0.0000000e+00 
0.0000000e+00 -1.8178462e-05 0.0000000e+00 
0.0000000e+00 -4.1067538e-05 0.0000000e+00 
0.0000000e+00 -8.5306681e-05 0.0000000e+00 
0.0000000e+00 -1.5740965e-04 0.0000000e+00 
0.0000000e+00 -2.3567739e-04 0.0000000e+00 
0.0000000e+00 -2.4725634e-04 0.0000000e+00 
0.0000000e+00 -1.7496105e-04 0.0000000e+00 
0.0000000e+00 -9.7094264e-05 0.0000000e+00 
0.0000000e+00 -4.5759116e-05 0.0000000e+00 
0.0000000e+00 -1.8697641e-05 0.0000000e+00 
0.0000000e+00 -6.7301748e-06 0.0000000e+00 
0.0000000e+00 -2.2996292e-06 0.0000000e+00 
0.0000000e+00 -8.8492664e-07 0.0000000e+00 
0.0000000e+00 -4.1286862e-07 0.0000000e+00 
0.0000000e+00 -1.7944691e-07 0.0000000e+00 
0.0000000e+00 -2.9840393e-08 0.0000000e+00 
0.0000000e+00 6.2299463e-08 0.0000000e+00 
0.0000000e+00 1.0972710e-07 0.0000000e+00 
0.0000000e+00 1.2373511e-07 0.0000000e+00 
0.0000000e+00 1.0950902e-07 0.0000000e+00 
0.0000000e+00 7.9608647e-08 0.0000000e+00 
0.0000000e+00 4.8607383e-08 0.0000000e+00 
0.0000000e+00 2.4177037e-08 0.0000000e+00 
0.0000000e+00 8.1517735e-09 0.0000000e+00 
0.0000000e+00 -6.1032612e-10 0.0000000e+00 
0.0000000e+00 -4.3162105e-09 0.0000000e+00 
0.0000000e+00 -5.1707034e-09 0.0000000e+00 
0.0000000e+00 -4.9076769e-09 0.0000000e+00 
0.0000000e+00 -4.6651190e-09 0.0000000e+00 
0.0000000e+00 0.0000000e+00 0.0000000e+00 
0.0000000e+00 0.0000000e+00 0.0000000e+00 
0.0000000e+00 0.0000000e+00 0.0000000e+00 
0.0000000e+00 0.0000000e+00 0.0000000e+00 
0.0000000e+00 0.0000000e+00 0.0000000e+00 
0.0000000e+00 0.0000000e+00 0.0000000e+00 
0.0000000e+00 0.0000000e+00 0.0000000e+00 
0.0000000e+00 0.0000000e+00 0.0000000e+00 
0.0000000e+00 0.0000000e+00 0.0000000e+00 
0.0000000e+00 0.0000000e+00 0.0000000e+00 
0.0000000e+00 0.0000000e+00 0.0000000e+00 
0.0000000e+00 0.0000000e+00 0.0000000e+00 
0.0000000e+00 0.0000000e+00 0.0000000e+00 
0.0000000e+00 0.0000000e+00 0.0000000e+00 
0.0000000e+00 0.0000000e+00 0.0000000e+00 
0.0000000e+00 0.0000000e+00 0.0000000e+00 
0.0000000e+00 0.0000000e+00 0.0000000e+00 
0.0000000e+00 0.0000000e+00 0.0000000e+00 
0.0000000e+00 0.0000000e+00 0.0000000e+00 
0.0000000e+00 0.0000000e+00 0.0000000e+00 
0.0000000e+00 0.0000000e+00 0.0000000e+00 
0.0000000e+00 0.0000000e+00 0.0000000e+00 
0.0000000e+00 0.0000000e+00 0.0000000e+00 
0.0000000e+00 -5.7481839e-07 0.0000000e+00 
0.0000000e+00 -8.1395996e-07 0.0000000e+00 
0.0000000e+00 -1.8626550e-05 0.0000000e+00 
0.0000000e+00 -1.0469120e-05 0.0000000e+00 
0.0000000e+00 0.0000000e+00 0.0000000e+00 
0.0000000e+00 0.0000000e+00 0.0000000e+00 
0.0000000e+00 0.0000000e+00 0.0000000e+00 
0.0000000e+00 0.0000000e+00 0.0000000e+00 
0.0000000e+00 0.0000000e+00 0.0000000e+00 
0.0000000e+00 0.0000000e+00 0.0000000e+00 
0.0000000e+00 0.0000000e+00 0.0000000e+00 
0.0000000e+00 0.0000000e+00 0.0000000e+00 
0.0000000e+00 0.0000000e+00 0.0000000e+00 
0.0000000e+00 0.0000000e+00 0.0000000e+00 
0.0000000e+00 0.0000000e+00 0.0000000e+00 
0.0000000e+00 0.0000000e+00 0.0000000e+00 
0.0000000e+00 0.0000000e+00 0.0000000e+00 
0.0000000e+00 0.0000000e+00 0.0000000e+00 
0.0000000e+00 0.0000000e+00 0.0000000e+00 
0.0000000e+00 0.0000000e+00 0.0000000e+00 
0.0000000e+00 0.0000000e+00 0.0000000e+00 
0.0000000e+00 0.0000000e+00 0.0000000e+00 
0.0000000e+00 0.0000000e+00 0.0000000e+00 
0.0000000e+00 0.0000000e+00 0.0000000e+00 
0.0000000e+00 0.0000000e+00 0.0000000e+00 
0.0000000e+00 0.0000000e+00 0.0000000e+00 
0.0000000e+00 -1.1770647e-06 0.0000000e+00 
0.0000000e+00 -8.3186922e-07 0.0000000e+00 
0.0000000e+00 -1.9569409e-06 0.0000000e+00 
0.0000000e+00 -8.0755700e-07 0.0000000e+00 
0.0000000e+00 -7.6837080e-07 0.0000000e+00 
0.0000000e+00 4.2108366e-07 0.0000000e+00 
0.0000000e+00 1.8881282e-07 0.0000000e+00 
0.0000000e+00 2.6497071e-07 0.0000000e+00 
0.0000000e+00 1.8053433e-07 0.0000000e+00 
0.0000000e+00 6.9762265e-08 0.0000000e+00 
0.0000000e+00 1.4333848e-07 0.0000000e+00 
0.0000000e+00 -3.6065048e-05 0.0000000e+00 
0.0000000e+00 -8.6378524e-05 0.0000000e+00 
0.0000000e+00 -1.0526303e-04 0.0000000e+00 
0.0000000e+00 -6.1667633e-05 0.0000000e+00 
0.0000000e+00 -2.2074939e-05 0.0000000e+00 
0.0000000e+00 -5.7259067e-06 0.0000000e+00 
0.0000000e+00 -1.4213310e-06 0.0000000e+00 
0.0000000e+00 -2.2900502e-07 0.0000000e+00 
0.0000000e+00 2.9774496e-08 0.0000000e+00 
0.0000000e+00 6.8194645e-08 0.0000000e+00 
0.0000000e+00 3.0158230e-08 0.0000000e+00 
0.0000000e+00 -1.6814826e-06 0.0000000e+00 
0.0000000e+00 -6.4137071e-06 0.0000000e+00 
0.0000000e+00 -1.4186010e-05 0.0000000e+00 
0.0000000e+00 1.7082385e-07 0.0000000e+00 
0.0000000e+00 1.6845158e-07 0.0000000e+00 
0.0000000e+00 1.7051214e-07 0.0000000e+00 
0.0000000e+00 -1.3014997e-06 0.0000000e+00 
0.0000000e+00 -6.4767505e-06 0.0000000e+00 
0.0000000e+00 -6.7340957e-06 0.0000000e+00 
0.0000000e+00 -1.3223649e-05 0.0000000e+00 
0.0000000e+00 -3.6188023e-06 0.0000000e+00 
0.0000000e+00 -2.4858414e-06 0.0000000e+00 
0.0000000e+00 -1.8519243e-06 0.0000000e+00 
0.0000000e+00 -1.2842232e-05 0.0000000e+00 
0.0000000e+00 -8.1735734e-06 0.0000000e+00 
0.0000000e+00 -3.7477764e-06 0.0000000e+00 
0.0000000e+00 -6.8091981e-07 0.0000000e+00 
0.0000000e+00 -1.1666083e-06 0.0000000e+00 
0.0000000e+00 -1.5343892e-05 0.0000000e+00 
0.0000000e+00 -6.2658023e-06 0.0000000e+00 
0.0000000e+00 0.0000000e+00 0.0000000e+00 
0.0000000e+00 0.0000000e+00 0.0000000e+00 
0.0000000e+00 0.0000000e+00 0.0000000e+00 
0.0000000e+00 0.0000000e+00 0.0000000e+00 
0.0000000e+00 0.0000000e+00 0.0000000e+00 
0.0000000e+00 0.0000000e+00 0.0000000e+00 
0.0000000e+00 0.0000000e+00 0.0000000e+00 
0.0000000e+00 0.0000000e+00 0.0000000e+00 
0.0000000e+00 0.0000000e+00 0.0000000e+00 
0.0000000e+00 0.0000000e+00 0.0000000e+00 
0.0000000e+00 0.0000000e+00 0.0000000e+00 
0.0000000e+00 0.0000000e+00 0.0000000e+00 
0.0000000e+00 0.0000000e+00 0.0000000e+00 
0.0000000e+00 0.0000000e+00 0.0000000e+00 
0.0000000e+00 0.0000000e+00 0.0000000e+00 
0.0000000e+00 0.0000000e+00 0.0000000e+00 
0.0000000e+00 0.0000000e+00 0.0000000e+00 
0.0000000e+00 0.0000000e+00 0.0000000e+00 
0.0000000e+00 0.0000000e+00 0.0000000e+00 
0.0000000e+00 0.0000000e+00 0.0000000e+00 
0.0000000e+00 0.0000000e+00 0.0000000e+00 
0.0000000e+00 0.0000000e+00 0.0000000e+00 
0.0000000e+00 0.0000000e+00 0.0000000e+00 
0.0000000e+00 0.0000000e+00 0.0000000e+00 
0.0000000e+00 0.0000000e+00 0.0000000e+00 
0.0000000e+00 0.0000000e+00 0.0000000e+00 
0.0000000e+00 0.0000000e+00 0.0000000e+00 
0.0000000e+00 0.0000000e+00 0.0000000e+00 
0.0000000e+00 0.0000000e+00 0.0000000e+00 
0.0000000e+00 0.0000000e+00 0.0000000e+00 
0.0000000e+00 0.0000000e+00 0.0000000e+00 
0.0000000e+00 0.0000000e+00 0.0000000e+00 
0.0000000e+00 0.0000000e+00 0.0000000e+00 
0.0000000e+00 0.0000000e+00 0.0000000e+00 
0.0000000e+00 0.0000000e+00 0.0000000e+00 
0.0000000e+00 0.0000000e+00 0.0000000e+00 
0.0000000e+00 0.0000000e+00 0.0000000e+00 
0.0000000e+00 0.0000000e+00 0.0000000e+00 
0.0000000e+00 0.0000000e+00 0.0000000e+00 
0.0000000e+00 0.0000000e+00 0.0000000e+00 
0.0000000e+00 0.0000000e+00 0.0000000e+00 
0.0000000e+00 0.0000000e+00 0.0000000e+00 
0.0000000e+00 0.0000000e+00 0.0000000e+00 
0.0000000e+00 0.0000000e+00 0.0000000e+00 
0.0000000e+00 0.0000000e+00 0.0000000e+00 
0.0000000e+00 0.0000000e+00 0.0000000e+00 
0.0000000e+00 0.0000000e+00 0.0000000e+00 
0.0000000e+00 0.0000000e+00 0.0000000e+00 
0.0000000e+00 0.0000000e+00 0.0000000e+00 
0.0000000e+00 -6.0489333e-07 0.0000000e+00 
0.0000000e+00 1.1765908e-07 0.0000000e+00 
0.0000000e+00 -6.0542118e-07 0.0000000e+00 
0.0000000e+00 3.0236748e-07 0.0000000e+00 
0.0000000e+00 2.8137902e-07 0.0000000e+00 
0.0000000e+00 -1.1110785e-06 0.0000000e+00 
0.0000000e+00 -5.2059858e-07 0.0000000e+00 
0.0000000e+00 -4.4314739e-08 0.0000000e+00 
0.0000000e+00 -8.9411992e-07 0.0000000e+00 
0.0000000e+00 -2.3952353e-07 0.0000000e+00 
0.0000000e+00 -1.0785533e-06 0.0000000e+00 
0.0000000e+00 -4.8451216e-07 0.0000000e+00 
0.0000000e+00 2.6526507e-07 0.0000000e+00 
0.0000000e+00 5.8027876e-08 0.0000000e+00 
0.0000000e+00 -1.1871073e-06 0.0000000e+00 
0.0000000e+00 6.2278481e-08 0.0000000e+00 
0.0000000e+00 2.0144975e-07 0.0000000e+00 
0.0000000e+00 -6.5611277e-07 0.0000000e+00 
0.0000000e+00 -1.6573740e-07 0.0000000e+00 
0.0000000e+00 1.5145370e-07 0.0000000e+00 
0.0000000e+00 -1.2173143e-06 0.0000000e+00 
0.0000000e+00 9.9440093e-08 0.0000000e+00 
0.0000000e+00 -5.5077879e-07 0.0000000e+00 
0.0000000e+00 -1.1344180e-06 0.0000000e+00 
0.0000000e+00 1.7741607e-07 0.0000000e+00 
0.0000000e+00 1.6991983e-07 0.0000000e+00 
0.0000000e+00 4.7585075e-08 0.0000000e+00 
0.0000000e+00 -4.8571860e-07 0.0000000e+00 
0.0000000e+00 -5.2747544e-07 0.0000000e+00 
0.0000000e+00 1.3312177e-08 0.0000000e+00 
0.0000000e+00 -2.3303857e-05 0.0000000e+00 
0.0000000e+00 -2.8168555e-05 0.0000000e+00 
0.0000000e+00 -1.2357376e-05 0.0000000e+00 
0.0000000e+00 -4.7447307e-07 0.0000000e+00 
0.0000000e+00 -7.0423266e-05 0.0000000e+00 
0.0000000e+00 -1.0440212e-05 0.0000000e+00 
0.0000000e+00 -6.1629720e-07 0.0000000e+00 
0.0000000e+00 -2.4983405e-05 0.0000000e+00 
0.0000000e+00 -8.1742997e-05 0.0000000e+00 
0.0000000e+00 -3.3576995e-05 0.0000000e+00 
0.0000000e+00 -2.9711698e-06 0.0000000e+00 
0.0000000e+00 -4.3289938e-06 0.0000000e+00 
0.0000000e+00 -8.3234916e-08 0.0000000e+00 
0.0000000e+00 -5.2364292e-05 0.0000000e+00 
0.0000000e+00 -1.7597942e-05 0.0000000e+00 
0.0000000e+00 -9.1794419e-08 0.0000000e+00 
0.0000000e+00 -1.5344374e-05 0.0000000e+00 
0.0000000e+00 -1.1554462e-06 0.0000000e+00 
0.0000000e+00 -3.6950296e-05 0.0000000e+00 
0.0000000e+00 -5.3377953e-05 0.0000000e+00 
0.0000000e+00 -1.1449041e-06 0.0000000e+00 
0.0000000e+00 -4.6046266e-06 0.0000000e+00 
0.0000000e+00 -2.2071322e-07 0.0000000e+00 
0.0000000e+00 -4.5692930e-05 0.0000000e+00 
0.0000000e+00 -5.9031171e-09 0.0000000e+00 
0.0000000e+00 -2.6208032e-05 0.0000000e+00 
0.0000000e+00 -1.1351340e-05 0.0000000e+00 
0.0000000e+00 5.1707413e-08 0.0000000e+00 
0.0000000e+00 3.0047897e-08 0.0000000e+00 
0.0000000e+00 1.1848832e-07 0.0000000e+00 
0.0000000e+00 1.9070536e-07 0.0000000e+00 
0.0000000e+00 1.6633204e-07 0.0000000e+00 
0.0000000e+00 3.4762497e-08 0.0000000e+00 
0.0000000e+00 1.8865488e-07 0.0000000e+00 
0.0000000e+00 5.0675716e-08 0.0000000e+00 
0.0000000e+00 8.8540922e-08 0.0000000e+00 
0.0000000e+00 1.2192147e-07 0.0000000e+00 
0.0000000e+00 1.3553306e-07 0.0000000e+00 
0.0000000e+00 4.4891937e-08 0.0000000e+00 
0.0000000e+00 1.7422595e-07 0.0000000e+00 
0.0000000e+00 1.1056065e-07 0.0000000e+00 
0.0000000e+00 2.4778076e-08 0.0000000e+00 
-5.6642943e-06 -2.9126089e-05 -1.0540984e-05 
-1.3211018e-06 -3.5868711e-06 -3.9873053e-06 
-1.8876050e-07 -3.7271992e-08 -8.3722460e-07 
-1.9464516e-05 -9.0005939e-05 9.2787304e-06 
-5.1163720e-06 -1.1356352e-04 -4.1362050e-06 
-1.4603650e-06 -3.5962449e-07 -9.6718009e-07 
-2.5677000e-06 -2.9218613e-06 -2.6939642e-07 
-2.8224201e-07 2.1377400e-07 -2.9488854e-07 
-7.0332312e-06 -4.1878160e-05 9.7054544e-06 
-6.6112975e-08 1.3325315e-07 -2.4139169e-07 
-4.3900382e-06 -5.1334009e-06 1.8577755e-06 
-5.1039386e-08 2.0370831e-07 -8.1384442e-08 
-4.2683459e-07 1.3046534e-07 -4.6965582e-07 
-7.0150043e-07 5.7797543e-08 -1.1275781e-06 
-2.6067025e-07 7.9455369e-08 -5.4172904e-07 
-4.5186582e-07 -6.5901062e-08 -7.2925747e-07 
-1.0037579e-06 -1.0545774e-06 -1.5114433e-06 
-1.2907174e-07 1.5214988e-07 -3.3228540e-07 
-5.8312759e-07 -3.9150703e-07 -1.6465018e-06 
-1.5230379e-06 -1.1031673e-06 -1.8749457e-06 
-2.5588567e-06 -2.9509504e-06 -2.0967661e-06 
-2.7788444e-06 -4.7626872e-06 -3.2723538e-06 
-5.3403346e-06 -1.0129998e-05 -4.9531182e-06 
-4.8719612e-06 -6.3402163e-06 -2.7178221e-06 
-7.7627419e-06 -1.7259210e-05 -4.3998075e-06 
-4.9603659e-06 -8.4285912e-06 -1.8360566e-06 
-1.0113655e-05 -2.7273143e-05 -2.0710204e-06 
-8.4204048e-06 -1.6310760e-05 -5.6691107e-07 
-1.0858193e-05 -2.9166256e-05 -5.3443046e-07 
-8.4430230e-06 -1.3691266e-05 1.1519026e-06 
-1.1973292e-05 -2.5294699e-05 3.8787693e-06 
-3.4150512e-06 -8.2247952e-06 -5.5716778e-06 
-2.2448419e-06 -4.4201788e-06 -3.9019383e-06 
-1.3648092e-05 -4.0129988e-05 -7.9144093e-06 
-2.8849904e-06 -2.7802989e-06 -5.8355943e-07 
-6.4591326e-08 2.0443976e-07 -1.4269229e-07 
-7.9612400e-06 -2.4620531e-05 -7.3306283e-06 
-1.9633885e-06 -1.5767935e-06 -1.2815143e-06 
-5.6347044e-06 -1.1973517e-05 3.1680233e-06 
-7.2893762e-08 2.3722706e-07 -7.4714961e-08 
-2.0693747e-07 -1.1355704e-07 -7.6915052e-07 
-1.8136309e-07 7.8505892e-08 -5.1053877e-07 
-2.6386756e-06 -7.1345544e-06 -5.7889551e-06 
-2.4470446e-06 -2.1296271e-06 6.5136499e-07 
-1.0470895e-05 -1.1263773e-04 1.2344063e-06 
-8.5812499e-06 -6.3979242e-05 -3.2018233e-06 
-9.5204696e-06 -7.9005476e-05 -1.0819696e-05 
-7.4688883e-06 -4.9898248e-05 -1.1367322e-05 
-7.6255128e-07 -1.1026045e-06 -2.3362938e-06 
-3.2291516e-07 -3.6404981e-07 -1.1739596e-06 
-4.2520778e-06 -2.0754764e-05 6.0297812e-06 
-1.2549879e-05 -6.2913590e-05 1.1393832e-05 
-4.3804473e-08 1.7083734e-07 -1.1377263e-07 
-7.1134227e-06 -1.0285039e-05 3.5880871e-06 
-1.9651658e-05 -5.3808151e-05 4.7768117e-06 
-1.2390655e-07 3.2169979e-08 -4.8820488e-07 
-1.0648065e-06 -1.7404491e-06 -2.2273271e-06 
-1.2245562e-05 -3.1301566e-05 9.3324898e-06 
-3.5919011e-06 -1.5715406e-05 -9.1010115e-06 
-1.0810574e-07 2.2952369e-07 -2.5961918e-07 
-2.5950566e-08 2.0048270e-07 -3.9647432e-08 
-1.7289342e-06 -1.6471389e-06 6.1822232e-07 
-3.9339448e-06 -4.6364357e-06 -1.6453168e-06 
-1.5858421e-05 -4.9984003e-05 1.0089680e-05 
-7.9243655e-08 1.7790452e-07 -2.0006372e-07 
-1.4990055e-06 -2.1863013e-06 -2.1303758e-06 
-4.6754371e-06 -5.5059181e-06 7.3182315e-07 
-5.0015742e-06 -6.6882330e-06 -6.4242533e-07 
-5.4173993e-06 -2.1630569e-05 5.8632486e-06 
-5.8664250e-06 -1.7509579e-05 -8.0658483e-06 
-4.6201897e-08 1.9479826e-07 -8.7091614e-08 
-1.1514638e-05 -1.2683173e-04 3.8558164e-06 
-6.1404735e-06 -8.8648892e-05 1.0383044e-05 
-7.9618694e-06 -1.2865580e-04 -3.0713244e-07 
-9.8142264e-06 -1.3226636e-04 -5.0611698e-06 
-3.8997523e-06 -5.4752058e-05 8.9193491e-06 
-2.0387158e-06 -8.6990949e-05 -6.0340817e-06 
-1.4185093e-06 -5.6016626e-05 -7.3671790e-06 
-8.8828091e-07 -3.0184567e-05 -5.3086801e-06 
-7.1298579e-08 -1.6093341e-05 -4.7724416e-06 
-4.6326070e-07 -7.2031676e-06 -3.8418139e-06 
-2.2586102e-07 -4.0423861e-06 -2.9700957e-06 
-2.2953078e-07 -1.7078218e-06 -2.1448245e-06 
-8.1486512e-08 -5.8717967e-07 -1.2179217e-06 
-8.9623057e-08 -2.0234262e-07 -6.9331128e-07 
-5.5695150e-08 -6.9752481e-08 -4.1301382e-07 
-2.6908266e-08 1.2237393e-08 -2.2045364e-07 
-2.3020560e-08 8.8542144e-08 -9.2340969e-08 
-1.0187758e-06 -2.6519640e-05 6.1658779e-06 
8.7817925e-06 -3.8850147e-05 -6.4749024e-06 
8.9918076e-06 -3.2293843e-05 5.0596041e-06 
1.9873469e-06 -7.1098848e-06 4.0814307e-06 
2.1433847e-07 -5.1160498e-07 1.0713517e-06 
6.5742185e-09 7.6615962e-08 2.5082221e-07 
5.7075308e-06 -8.7126473e-06 -2.0906188e-07 
3.3737178e-06 -4.4176459e-06 1.6779298e-06 
7.1779908e-07 -1.0769950e-06 1.4266827e-06 
3.3724325e-06 -2.8309896e-05 7.8478461e-06 
5.5365276e-06 -9.3038827e-05 -1.2256442e-06 
3.4123216e-06 -3.6336478e-05 -7.3122205e-06 
1.8906306e-07 1.6129100e-08 4.5113936e-07 
4.6610180e-06 -1.1128985e-05 -2.3185648e-06 
3.4428541e-07 -3.0291330e-06 1.5286740e-06 
-3.8213905e-08 -7.3992574e-08 1.4475644e-07 
6.1485110e-07 -7.0406721e-05 6.3967314e-06 
3.5595099e-06 -1.4039797e-05 2.9134756e-06 
8.9860951e-06 -3.0903015e-05 -5.9348355e-07 
5.0295444e-07 -1.3344843e-05 2.1236278e-06 
4.4293815e-06 -1.0714351e-05 4.9147038e-06 
6.5899608e-06 -7.7232282e-05 -5.4612046e-06 
1.2845951e-06 -1.0331388e-06 1.1281060e-06 
-1.5498889e-08 1.0249681e-07 7.7887385e-09 
2.8757095e-06 -2.5066927e-06 -9.2252645e-07 
4.5723468e-08 1.7587509e-07 9.5717027e-08 
6.9325488e-06 -3.3352262e-05 8.0199231e-07 
3.1177847e-06 -4.3234368e-06 3.1907744e-06 
7.7163386e-06 -1.2335515e-05 -2.1772653e-06 
7.0654078e-06 -1.2111256e-05 1.8979592e-06 
3.4377001e-06 -1.2638663e-05 -1.6261008e-07 
1.6240098e-07 9.4269694e-08 2.5296166e-07 
7.9857237e-08 -8.8245605e-07 4.1546804e-07 
-6.8155337e-08 -6.2674127e-07 3.7933994e-08 
5.7261207e-07 -4.7028020e-06 9.2703073e-07 
3.8793491e-08 7.4695329e-08 1.8425452e-07 
4.8845951e-08 4.1874593e-08 2.7459515e-07 
4.9560417e-06 -1.1240734e-05 -3.3096355e-06 
2.0557379e-06 -2.9333576e-06 1.8094094e-07 
2.8381235e-06 -1.9948906e-05 -4.2795155e-06 
3.2735559e-07 -2.1018848e-06 1.9744648e-06 
4.4557260e-06 -2.3649449e-05 5.0097633e-06 
-1.9467354e-08 1.7737175e-07 3.8937500e-08 
-1.3001134e-08 -1.5106103e-07 5.0398631e-07 
4.4791814e-06 -4.2366893e-05 2.7932772e-06 
3.8311828e-06 -2.5059377e-05 -3.7871280e-06 
7.2578723e-07 -3.3995443e-06 7.7249240e-07 
2.8278562e-06 -2.5445404e-06 1.0450455e-07 
7.4988407e-08 -4.0269299e-08 5.3941977e-07 
2.7665335e-06 -1.3509271e-05 -8.6369914e-07 
1.4528603e-06 -8.2041988e-06 4.0507989e-06 
1.4039794e-06 -3.0016786e-06 -3.1546074e-07 
1.8101044e-07 3.2768622e-08 3.0492203e-07 
-4.4921137e-08 1.6592013e-07 -4.8522345e-08 
-5.0942965e-08 -2.5999989e-06 1.4774901e-08 
2.0125370e-07 -6.1335777e-06 2.4199787e-06 
9.9704437e-07 -1.5640587e-06 2.1344174e-06 
-7.9855844e-11 3.9901359e-08 1.4063025e-07 
1.1212481e-06 -3.0428184e-06 -4.8976108e-07 
2.6994064e-07 -1.7020320e-06 1.1390809e-07 
1.7902119e-06 -1.4737717e-06 5.6570207e-07 
2.7278435e-07 -5.0726004e-07 2.5786190e-07 
4.9032116e-07 -9.2634487e-08 6.2652435e-07 
4.0714622e-06 -4.1909272e-05 -1.6924621e-06 