# vtk DataFile Version 4.0
vtk output
ASCII
DATASET UNSTRUCTURED_GRID
POINTS 460 float
0.0000000e+00 0.0000000e+00 0.0000000e+00 
5.0000000e+00 0.0000000e+00 0.0000000e+00 
5.0000000e+00 3.0000000e+00 0.0000000e+00 
0.0000000e+00 3.0000000e+00 0.0000000e+00 
0.0000000e+00 0.0000000e+00 1.0000000e+01 
5.0000000e+00 0.0000000e+00 1.0000000e+01 
5.0000000e+00 3.0000000e+00 1.0000000e+01 
0.0000000e+00 3.0000000e+00 1.0000000e+01 
1.0000000e+00 3.0000000e+00 -5.0000000e+00 
1.0000000e+00 3.0000000e+00 -4.5000000e+00 
1.0000000e+00 3.0000000e+00 -4.0000000e+00 
1.0000000e+00 3.0000000e+00 -3.5000000e+00 
1.0000000e+00 3.0000000e+00 -3.0000000e+00 
1.0000000e+00 3.0000000e+00 -2.5000000e+00 
1.0000000e+00 3.0000000e+00 -2.0000000e+00 
1.0000000e+00 3.0000000e+00 -1.5000000e+00 
1.0000000e+00 3.0000000e+00 -1.0000000e+00 
1.0000000e+00 3.0000000e+00 -5.0000000e-01 
1.0000000e+00 3.0000000e+00 0.0000000e+00 
1.0000000e+00 3.0000000e+00 5.0000000e-01 
1.0000000e+00 3.0000000e+00 1.0000000e+00 
1.0000000e+00 3.0000000e+00 1.5000000e+00 
1.0000000e+00 3.0000000e+00 2.0000000e+00 
1.0000000e+00 3.0000000e+00 2.5000000e+00 
1.0000000e+00 3.0000000e+00 3.0000000e+00 
1.0000000e+00 3.0000000e+00 3.5000000e+00 
1.0000000e+00 3.0000000e+00 4.0000000e+00 
1.0000000e+00 3.0000000e+00 4.5000000e+00 
1.0000000e+00 3.0000000e+00 5.0000000e+00 
1.0000000e+00 3.0000000e+00 5.5000000e+00 
1.0000000e+00 3.0000000e+00 6.0000000e+00 
1.0000000e+00 3.0000000e+00 6.5000000e+00 
1.0000000e+00 3.0000000e+00 7.0000000e+00 
1.0000000e+00 3.0000000e+00 7.5000000e+00 
1.0000000e+00 3.0000000e+00 8.0000000e+00 
1.0000000e+00 3.0000000e+00 8.5000000e+00 
1.0000000e+00 3.0000000e+00 9.0000000e+00 
1.0000000e+00 3.0000000e+00 9.5000000e+00 
1.0000000e+00 3.0000000e+00 1.0000000e+01 
1.0000000e+00 3.0000000e+00 1.0500000e+01 
1.0000000e+00 3.0000000e+00 1.1000000e+01 
1.0000000e+00 3.0000000e+00 1.1500000e+01 
1.0000000e+00 3.0000000e+00 1.2000000e+01 
1.0000000e+00 3.0000000e+00 1.2500000e+01 
1.0000000e+00 3.0000000e+00 1.3000000e+01 
1.0000000e+00 3.0000000e+00 1.3500000e+01 
1.0000000e+00 3.0000000e+00 1.4000000e+01 
1.0000000e+00 3.0000000e+00 1.4500000e+01 
1.0000000e+00 3.0250001e+00 -5.0000000e+00 
1.0000000e+00 3.0250001e+00 -4.5000000e+00 
1.0000000e+00 3.0250001e+00 -4.0000000e+00 
1.0000000e+00 3.0250001e+00 -3.5000000e+00 
1.0000000e+00 3.0250001e+00 -3.0000000e+00 
1.0000000e+00 3.0250001e+00 -2.5000000e+00 
1.0000000e+00 3.0250001e+00 -2.0000000e+00 
1.0000000e+00 3.0250001e+00 -1.5000000e+00 
1.0000000e+00 3.0250001e+00 -1.0000000e+00 
1.0000000e+00 3.0250001e+00 -5.0000000e-01 
1.0000000e+00 3.0250001e+00 0.0000000e+00 
1.0000000e+00 3.0250001e+00 5.0000000e-01 
1.0000000e+00 3.0250001e+00 1.0000000e+00 
1.0000000e+00 3.0250001e+00 1.5000000e+00 
1.0000000e+00 3.0250001e+00 2.0000000e+00 
1.0000000e+00 3.0250001e+00 2.5000000e+00 
1.0000000e+00 3.0250001e+00 3.0000000e+00 
1.0000000e+00 3.0250001e+00 3.5000000e+00 
1.0000000e+00 3.0250001e+00 4.0000000e+00 
1.0000000e+00 3.0250001e+00 4.5000000e+00 
1.0000000e+00 3.0250001e+00 5.0000000e+00 
1.0000000e+00 3.0250001e+00 5.5000000e+00 
1.0000000e+00 3.0250001e+00 6.0000000e+00 
1.0000000e+00 3.0250001e+00 6.5000000e+00 
1.0000000e+00 3.0250001e+00 7.0000000e+00 
1.0000000e+00 3.0250001e+00 7.5000000e+00 
1.0000000e+00 3.0250001e+00 8.0000000e+00 
1.0000000e+00 3.0250001e+00 8.5000000e+00 
1.0000000e+00 3.0250001e+00 9.0000000e+00 
1.0000000e+00 3.0250001e+00 9.5000000e+00 
1.0000000e+00 3.0250001e+00 1.0000000e+01 
1.0000000e+00 3.0250001e+00 1.0500000e+01 
1.0000000e+00 3.0250001e+00 1.1000000e+01 
1.0000000e+00 3.0250001e+00 1.1500000e+01 
1.0000000e+00 3.0250001e+00 1.2000000e+01 
1.0000000e+00 3.0250001e+00 1.2500000e+01 
1.0000000e+00 3.0250001e+00 1.3000000e+01 
1.0000000e+00 3.0250001e+00 1.3500000e+01 
1.0000000e+00 3.0250001e+00 1.4000000e+01 
1.0000000e+00 3.0250001e+00 1.4500000e+01 
1.0000000e+00 -2.0000000e+00 -5.0000000e+00 
1.0000000e+00 -2.0000000e+00 -4.5000000e+00 
1.0000000e+00 -2.0000000e+00 -4.0000000e+00 
1.0000000e+00 -2.0000000e+00 -3.5000000e+00 
1.0000000e+00 -2.0000000e+00 -3.0000000e+00 
1.0000000e+00 -2.0000000e+00 -2.5000000e+00 
1.0000000e+00 -2.0000000e+00 -2.0000000e+00 
1.0000000e+00 -2.0000000e+00 -1.5000000e+00 
1.0000000e+00 -2.0000000e+00 -1.0000000e+00 
1.0000000e+00 -2.0000000e+00 -5.0000000e-01 
1.0000000e+00 -2.0000000e+00 1.0500000e+01 
1.0000000e+00 -2.0000000e+00 1.1000000e+01 
1.0000000e+00 -2.0000000e+00 1.1500000e+01 
1.0000000e+00 -2.0000000e+00 1.2000000e+01 
1.0000000e+00 -2.0000000e+00 1.2500000e+01 
1.0000000e+00 -2.0000000e+00 1.3000000e+01 
1.0000000e+00 -2.0000000e+00 1.3500000e+01 
1.0000000e+00 -2.0000000e+00 1.4000000e+01 
1.0000000e+00 -2.0000000e+00 1.4500000e+01 
1.0000000e+00 0.0000000e+00 0.0000000e+00 
2.0000000e+00 0.0000000e+00 0.0000000e+00 
3.0000000e+00 0.0000000e+00 0.0000000e+00 
4.0000000e+00 0.0000000e+00 0.0000000e+00 
5.0000000e+00 1.0000000e+00 0.0000000e+00 
5.0000000e+00 2.0000000e+00 0.0000000e+00 
0.0000000e+00 2.0000000e+00 0.0000000e+00 
0.0000000e+00 1.0000000e+00 0.0000000e+00 
0.0000000e+00 0.0000000e+00 1.0000000e+00 
0.0000000e+00 0.0000000e+00 2.0000000e+00 
0.0000000e+00 0.0000000e+00 3.0000000e+00 
0.0000000e+00 0.0000000e+00 4.0000000e+00 
0.0000000e+00 0.0000000e+00 5.0000000e+00 
0.0000000e+00 0.0000000e+00 6.0000000e+00 
0.0000000e+00 0.0000000e+00 7.0000000e+00 
0.0000000e+00 0.0000000e+00 8.0000000e+00 
0.0000000e+00 0.0000000e+00 9.0000000e+00 
5.0000000e+00 0.0000000e+00 1.0000000e+00 
5.0000000e+00 0.0000000e+00 2.0000000e+00 
5.0000000e+00 0.0000000e+00 3.0000000e+00 
5.0000000e+00 0.0000000e+00 4.0000000e+00 
5.0000000e+00 0.0000000e+00 5.0000000e+00 
5.0000000e+00 0.0000000e+00 6.0000000e+00 
5.0000000e+00 0.0000000e+00 7.0000000e+00 
5.0000000e+00 0.0000000e+00 8.0000000e+00 
5.0000000e+00 0.0000000e+00 9.0000000e+00 
1.0000000e+00 0.0000000e+00 1.0000000e+01 
2.0000000e+00 0.0000000e+00 1.0000000e+01 
3.0000000e+00 0.0000000e+00 1.0000000e+01 
4.0000000e+00 0.0000000e+00 1.0000000e+01 
5.0000000e+00 3.0000000e+00 1.0000000e+00 
5.0000000e+00 3.0000000e+00 2.0000000e+00 
5.0000000e+00 3.0000000e+00 3.0000000e+00 
5.0000000e+00 3.0000000e+00 4.0000000e+00 
5.0000000e+00 3.0000000e+00 5.0000000e+00 
5.0000000e+00 3.0000000e+00 6.0000000e+00 
5.0000000e+00 3.0000000e+00 7.0000000e+00 
5.0000000e+00 3.0000000e+00 8.0000000e+00 
5.0000000e+00 3.0000000e+00 9.0000000e+00 
5.0000000e+00 1.0000000e+00 1.0000000e+01 
5.0000000e+00 2.0000000e+00 1.0000000e+01 
0.0000000e+00 3.0000000e+00 1.0000000e+00 
0.0000000e+00 3.0000000e+00 2.0000000e+00 
0.0000000e+00 3.0000000e+00 3.0000000e+00 
0.0000000e+00 3.0000000e+00 4.0000000e+00 
0.0000000e+00 3.0000000e+00 5.0000000e+00 
0.0000000e+00 3.0000000e+00 6.0000000e+00 
0.0000000e+00 3.0000000e+00 7.0000000e+00 
0.0000000e+00 3.0000000e+00 8.0000000e+00 
0.0000000e+00 3.0000000e+00 9.0000000e+00 
0.0000000e+00 2.0000000e+00 1.0000000e+01 
0.0000000e+00 1.0000000e+00 1.0000000e+01 
4.0000000e+00 3.0000000e+00 0.0000000e+00 
3.0000000e+00 3.0000000e+00 0.0000000e+00 
2.0000000e+00 3.0000000e+00 0.0000000e+00 
4.0000000e+00 3.0000000e+00 1.0000000e+01 
3.0000000e+00 3.0000000e+00 1.0000000e+01 
2.0000000e+00 3.0000000e+00 1.0000000e+01 
4.0618000e+00 1.5000000e+00 0.0000000e+00 
1.5046000e+00 7.6549745e-01 0.0000000e+00 
2.5000000e+00 2.1339746e+00 0.0000000e+00 
1.5046000e+00 2.2345026e+00 0.0000000e+00 
2.4957771e+00 8.1560516e-01 0.0000000e+00 
3.4707544e+00 2.2336540e+00 0.0000000e+00 
3.4700506e+00 7.5794268e-01 0.0000000e+00 
8.6322361e-01 1.5000000e+00 0.0000000e+00 
2.0000000e+00 1.5000000e+00 0.0000000e+00 
2.9960666e+00 1.4974480e+00 0.0000000e+00 
4.2679491e+00 7.3205084e-01 0.0000000e+00 
4.2679491e+00 2.2679491e+00 0.0000000e+00 
7.2695929e-01 2.2730408e+00 0.0000000e+00 
7.2695929e-01 7.2695929e-01 0.0000000e+00 
4.1822505e+00 0.0000000e+00 2.5515697e+00 
4.2017918e+00 0.0000000e+00 4.4725966e+00 
4.1114569e+00 0.0000000e+00 6.5092020e+00 
8.6602539e-01 0.0000000e+00 3.5000000e+00 
8.4778279e-01 0.0000000e+00 5.4684029e+00 
8.9629614e-01 0.0000000e+00 7.5867257e+00 
2.5566745e+00 0.0000000e+00 8.1853306e-01 
2.4918270e+00 0.0000000e+00 9.1386929e+00 
8.4677207e-01 0.0000000e+00 1.5042374e+00 
4.0943027e+00 0.0000000e+00 8.4081745e+00 
8.6281651e-01 0.0000000e+00 2.5007062e+00 
1.7315160e+00 0.0000000e+00 3.0001178e+00 
1.7319617e+00 0.0000000e+00 4.0000196e+00 
2.5980761e+00 0.0000000e+00 3.5000000e+00 
2.5536871e+00 0.0000000e+00 4.4963923e+00 
2.5928419e+00 0.0000000e+00 2.4239938e+00 
1.5037409e+00 0.0000000e+00 9.1535149e+00 
1.8433737e+00 0.0000000e+00 8.1858873e+00 
3.0000000e+00 0.0000000e+00 8.2679491e+00 
2.5000000e+00 0.0000000e+00 7.4019237e+00 
3.5042722e+00 0.0000000e+00 7.4271150e+00 
3.0310018e+00 0.0000000e+00 6.5282087e+00 
2.0373929e+00 0.0000000e+00 6.5307913e+00 
3.4767809e+00 0.0000000e+00 5.8031492e+00 
2.5452602e+00 0.0000000e+00 5.5720768e+00 
1.6456656e+00 0.0000000e+00 1.9697139e+00 
8.6297011e-01 0.0000000e+00 4.4947371e+00 
1.0111579e+00 0.0000000e+00 6.5282545e+00 
3.4994321e+00 0.0000000e+00 8.4691072e-01 
4.1860156e+00 0.0000000e+00 3.5040276e+00 
1.7320508e+00 0.0000000e+00 5.0000000e+00 
4.0544066e+00 0.0000000e+00 1.5781221e+00 
1.5817389e+00 0.0000000e+00 9.3943578e-01 
8.3166349e-01 0.0000000e+00 8.5090933e+00 
3.4686174e+00 0.0000000e+00 9.1752682e+00 
3.0709300e+00 0.0000000e+00 1.5799091e+00 
3.3927374e+00 0.0000000e+00 3.0399952e+00 
3.3826034e+00 0.0000000e+00 3.9747651e+00 
4.3420062e+00 0.0000000e+00 7.4688983e+00 
3.4023225e+00 0.0000000e+00 4.9314723e+00 
1.6740381e+00 0.0000000e+00 7.3014426e+00 
4.2715640e+00 0.0000000e+00 5.4758859e+00 
1.6225953e+00 0.0000000e+00 5.8104177e+00 
4.2679491e+00 0.0000000e+00 9.2679491e+00 
7.3205084e-01 0.0000000e+00 7.3205084e-01 
4.2679491e+00 0.0000000e+00 7.3205084e-01 
7.3205084e-01 0.0000000e+00 9.2679491e+00 
3.4586334e+00 0.0000000e+00 2.2347178e+00 
2.2895701e+00 0.0000000e+00 1.5463171e+00 
5.0000000e+00 2.2345026e+00 1.5046000e+00 
[...]
POINT_DATA 460
FIELD FieldData 5
DISPLACEMENT 3 460  float
0.0000000e+00 0.0000000e+00 0.0000000e+00 
0.0000000e+00 0.0000000e+00 0.0000000e+00 
0.0000000e+00 2.3197846e-07 0.0000000e+00 
0.0000000e+00 -4.1380721e-07 0.0000000e+00 
0.0000000e+00 0.0000000e+00 0.0000000e+00 
0.0000000e+00 0.0000000e+00 0.0000000e+00 
0.0000000e+00 2.3659666e-07 0.0000000e+00 
0.0000000e+00 -3.3292920e-06 0.0000000e+00 
0.0000000e+00 1.1406073e-06 0.0000000e+00 
0.0000000e+00 1.5575185e-06 0.0000000e+00 
0.0000000e+00 2.3742709e-06 0.0000000e+00 
0.0000000e+00 2.8186826e-06 0.0000000e+00 
0.0000000e+00 1.7579673e-06 0.0000000e+00 
0.0000000e+00 -7.3767063e-07 0.0000000e+00 
0.0000000e+00 -3.0223230e-06 0.0000000e+00 
0.0000000e+00 -4.5534280e-06 0.0000000e+00 
0.0000000e+00 -5.0774083e-06 0.0000000e+00 
0.0000000e+00 -4.4051299e-06 0.0000000e+00 
0.0000000e+00 -3.8539979e-06 0.0000000e+00 
-2.1185986e-07 -1.4654379e-06 4.6905836e-07 
-3.9232930e-07 1.1617649e-06 1.0294516e-06 
-5.8109424e-07 2.2613983e-06 1.8761632e-06 
-1.2896326e-06 2.6816831e-06 3.4298268e-06 
-1.6737390e-06 -5.0986432e-06 4.8981719e-06 
-2.1420590e-06 -1.5436530e-05 6.7826559e-06 
-2.6491705e-06 -2.6248254e-05 8.4062049e-06 
-6.1557789e-06 -4.8821392e-05 9.9694607e-06 
-8.7698600e-06 -9.3270850e-05 1.6964546e-05 
-8.4334706e-06 -1.6259552e-04 1.3819329e-05 
-4.7974510e-07 -2.3177666e-04 6.4600058e-06 
-2.0908824e-06 -2.3766975e-04 -3.3365004e-06 
-1.1119922e-07 -1.6985580e-04 -1.3072672e-05 
-2.3645475e-06 -9.3883631e-05 -2.2826152e-05 
-4.2505590e-06 -4.1384923e-05 -1.2799173e-05 
-3.8753801e-06 -1.6008195e-05 -9.5452879e-06 
-1.7166900e-06 -7.5372782e-06 -5.8056467e-06 
-1.1257523e-06 -4.0647365e-06 -3.8576136e-06 
-6.7220498e-07 -2.2621962e-06 -2.1095457e-06 
0.0000000e+00 -2.2172176e-06 0.0000000e+00 
0.0000000e+00 -3.2477597e-06 0.0000000e+00 
0.0000000e+00 -2.8014672e-06 0.0000000e+00 
0.0000000e+00 -1.5905039e-06 0.0000000e+00 
0.0000000e+00 -5.8693189e-07 0.0000000e+00 
0.0000000e+00 9.5540102e-08 0.0000000e+00 
0.0000000e+00 6.6050904e-07 0.0000000e+00 
0.0000000e+00 4.1988386e-07 0.0000000e+00 
0.0000000e+00 3.2998591e-07 0.0000000e+00 
0.0000000e+00 3.4299313e-07 0.0000000e+00 
0.0000000e+00 1.1448805e-06 0.0000000e+00 
0.0000000e+00 1.5632805e-06 0.0000000e+00 
0.0000000e+00 2.3830944e-06 0.0000000e+00 
0.0000000e+00 2.8290319e-06 0.0000000e+00 
0.0000000e+00 1.7639414e-06 0.0000000e+00 
0.0000000e+00 -7.4097932e-07 0.0000000e+00 
0.0000000e+00 -3.0345068e-06 0.0000000e+00 
0.0000000e+00 -4.5719689e-06 0.0000000e+00 
0.0000000e+00 -5.0983690e-06 0.0000000e+00 
0.0000000e+00 -4.4236122e-06 0.0000000e+00 
0.0000000e+00 -3.9245338e-06 0.0000000e+00 
0.0000000e+00 -1.4705091e-06 0.0000000e+00 
0.0000000e+00 1.1947119e-06 0.0000000e+00 
0.0000000e+00 2.3616428e-06 0.0000000e+00 
0.0000000e+00 2.8196055e-06 0.0000000e+00 
0.0000000e+00 -5.0625295e-06 0.0000000e+00 
0.0000000e+00 -1.5520827e-05 0.0000000e+00 
0.0000000e+00 -2.6286931e-05 0.0000000e+00 
0.0000000e+00 -4.8931201e-05 0.0000000e+00 
0.0000000e+00 -9.3812421e-05 0.0000000e+00 
0.0000000e+00 -1.6429721e-04 0.0000000e+00 
0.0000000e+00 -2.3450119e-04 0.0000000e+00 
0.0000000e+00 -2.4227957e-04 0.0000000e+00 
0.0000000e+00 -1.7282109e-04 0.0000000e+00 
0.0000000e+00 -9.4872135e-05 0.0000000e+00 
0.0000000e+00 -4.1578831e-05 0.0000000e+00 
0.0000000e+00 -1.5896823e-05 0.0000000e+00 
0.0000000e+00 -7.4606460e-06 0.0000000e+00 
0.0000000e+00 -4.0444365e-06 0.0000000e+00 
0.0000000e+00 -2.2403278e-06 0.0000000e+00 
0.0000000e+00 -2.2192478e-06 0.0000000e+00 
0.0000000e+00 -3.2630028e-06 0.0000000e+00 
0.0000000e+00 -2.8152456e-06 0.0000000e+00 
0.0000000e+00 -1.6001190e-06 0.0000000e+00 
0.0000000e+00 -5.9208008e-07 0.0000000e+00 
0.0000000e+00 9.4784994e-08 0.0000000e+00 
0.0000000e+00 6.6368034e-07 0.0000000e+00 
0.0000000e+00 4.2264276e-07 0.0000000e+00 
0.0000000e+00 3.3281464e-07 0.0000000e+00 
0.0000000e+00 3.4617270e-07 0.0000000e+00 
0.0000000e+00 0.0000000e+00 0.0000000e+00 
0.0000000e+00 0.0000000e+00 0.0000000e+00 
0.0000000e+00 0.0000000e+00 0.0000000e+00 
0.0000000e+00 0.0000000e+00 0.0000000e+00 
0.0000000e+00 0.0000000e+00 0.0000000e+00 
0.0000000e+00 0.0000000e+00 0.0000000e+00 
0.0000000e+00 0.0000000e+00 0.0000000e+00 
0.0000000e+00 0.0000000e+00 0.0000000e+00 
0.0000000e+00 0.0000000e+00 0.0000000e+00 
0.0000000e+00 0.0000000e+00 0.0000000e+00 
0.0000000e+00 0.0000000e+00 0.0000000e+00 
0.0000000e+00 0.0000000e+00 0.0000000e+00 
0.0000000e+00 0.0000000e+00 0.0000000e+00 
0.0000000e+00 0.0000000e+00 0.0000000e+00 
0.0000000e+00 0.0000000e+00 0.0000000e+00 
0.0000000e+00 0.0000000e+00 0.0000000e+00 
0.0000000e+00 0.0000000e+00 0.0000000e+00 
0.0000000e+00 0.0000000e+00 0.0000000e+00 
0.0000000e+00 0.0000000e+00 0.0000000e+00 
0.0000000e+00 0.0000000e+00 0.0000000e+00 
0.0000000e+00 0.0000000e+00 0.0000000e+00 
0.0000000e+00 0.0000000e+00 0.0000000e+00 
0.0000000e+00 0.0000000e+00 0.0000000e+00 
0.0000000e+00 6.8556105e-08 0.0000000e+00 
0.0000000e+00 1.9688474e-07 0.0000000e+00 
0.0000000e+00 -4.0394511e-07 0.0000000e+00 
0.0000000e+00 -2.2310530e-07 0.0000000e+00 
0.0000000e+00 0.0000000e+00 0.0000000e+00 
0.0000000e+00 0.0000000e+00 0.0000000e+00 
0.0000000e+00 0.0000000e+00 0.0000000e+00 
0.0000000e+00 0.0000000e+00 0.0000000e+00 
0.0000000e+00 0.0000000e+00 0.0000000e+00 
0.0000000e+00 0.0000000e+00 0.0000000e+00 
0.0000000e+00 0.0000000e+00 0.0000000e+00 
0.0000000e+00 0.0000000e+00 0.0000000e+00 
0.0000000e+00 0.0000000e+00 0.0000000e+00 
0.0000000e+00 0.0000000e+00 0.0000000e+00 
0.0000000e+00 0.0000000e+00 0.0000000e+00 
0.0000000e+00 0.0000000e+00 0.0000000e+00 
0.0000000e+00 0.0000000e+00 0.0000000e+00 
0.0000000e+00 0.0000000e+00 0.0000000e+00 
0.0000000e+00 0.0000000e+00 0.0000000e+00 
0.0000000e+00 0.0000000e+00 0.0000000e+00 
0.0000000e+00 0.0000000e+00 0.0000000e+00 
0.0000000e+00 0.0000000e+00 0.0000000e+00 
0.0000000e+00 0.0000000e+00 0.0000000e+00 
0.0000000e+00 0.0000000e+00 0.0000000e+00 
0.0000000e+00 0.0000000e+00 0.0000000e+00 
0.0000000e+00 0.0000000e+00 0.0000000e+00 
0.0000000e+00 2.3425211e-07 0.0000000e+00 
0.0000000e+00 2.8269497e-07 0.0000000e+00 
0.0000000e+00 -2.6997355e-07 0.0000000e+00 
0.0000000e+00 -4.3484243e-07 0.0000000e+00 
0.0000000e+00 -1.3107881e-06 0.0000000e+00 
0.0000000e+00 -4.6028529e-08 0.0000000e+00 
0.0000000e+00 -9.4965549e-07 0.0000000e+00 
0.0000000e+00 1.2414903e-07 0.0000000e+00 
0.0000000e+00 5.7674793e-08 0.0000000e+00 
0.0000000e+00 -4.8532293e-08 0.0000000e+00 
0.0000000e+00 1.4570028e-07 0.0000000e+00 
0.0000000e+00 -3.9978133e-07 0.0000000e+00 
0.0000000e+00 -3.0199219e-06 0.0000000e+00 
0.0000000e+00 -1.4828387e-05 0.0000000e+00 
0.0000000e+00 -4.1361312e-05 0.0000000e+00 
0.0000000e+00 -8.1845516e-05 0.0000000e+00 
0.0000000e+00 -9.8215423e-05 0.0000000e+00 
0.0000000e+00 -5.9846501e-05 0.0000000e+00 
0.0000000e+00 -2.0691232e-05 0.0000000e+00 
0.0000000e+00 -6.5342483e-06 0.0000000e+00 
0.0000000e+00 -3.1534189e-06 0.0000000e+00 
0.0000000e+00 -1.9617039e-06 0.0000000e+00 
0.0000000e+00 3.0774913e-07 0.0000000e+00 
0.0000000e+00 2.6691492e-07 0.0000000e+00 
0.0000000e+00 1.5442862e-07 0.0000000e+00 
0.0000000e+00 -1.6259358e-07 0.0000000e+00 
0.0000000e+00 -1.1387668e-06 0.0000000e+00 
0.0000000e+00 -1.9403599e-06 0.0000000e+00 
0.0000000e+00 2.1054721e-07 0.0000000e+00 
0.0000000e+00 -1.1553454e-07 0.0000000e+00 
0.0000000e+00 3.5354739e-07 0.0000000e+00 
0.0000000e+00 -2.0131519e-07 0.0000000e+00 
0.0000000e+00 3.9217184e-08 0.0000000e+00 
0.0000000e+00 3.8397908e-07 0.0000000e+00 
0.0000000e+00 -2.6587368e-09 0.0000000e+00 
0.0000000e+00 -2.2614563e-07 0.0000000e+00 
0.0000000e+00 1.2138079e-07 0.0000000e+00 
0.0000000e+00 2.2157955e-07 0.0000000e+00 
0.0000000e+00 2.5373597e-08 0.0000000e+00 
0.0000000e+00 2.7603983e-07 0.0000000e+00 
0.0000000e+00 -9.0470087e-07 0.0000000e+00 
0.0000000e+00 -1.8073598e-07 0.0000000e+00 
0.0000000e+00 0.0000000e+00 0.0000000e+00 
0.0000000e+00 0.0000000e+00 0.0000000e+00 
0.0000000e+00 0.0000000e+00 0.0000000e+00 
0.0000000e+00 0.0000000e+00 0.0000000e+00 
0.0000000e+00 0.0000000e+00 0.0000000e+00 
0.0000000e+00 0.0000000e+00 0.0000000e+00 
0.0000000e+00 0.0000000e+00 0.0000000e+00 
0.0000000e+00 0.0000000e+00 0.0000000e+00 
0.0000000e+00 0.0000000e+00 0.0000000e+00 
0.0000000e+00 0.0000000e+00 0.0000000e+00 
0.0000000e+00 0.0000000e+00 0.0000000e+00 
0.0000000e+00 0.0000000e+00 0.0000000e+00 
0.0000000e+00 0.0000000e+00 0.0000000e+00 
0.0000000e+00 0.0000000e+00 0.0000000e+00 
0.0000000e+00 0.0000000e+00 0.0000000e+00 
0.0000000e+00 0.0000000e+00 0.0000000e+00 
0.0000000e+00 0.0000000e+00 0.0000000e+00 
0.0000000e+00 0.0000000e+00 0.0000000e+00 
0.0000000e+00 0.0000000e+00 0.0000000e+00 
0.0000000e+00 0.0000000e+00 0.0000000e+00 
0.0000000e+00 0.0000000e+00 0.0000000e+00 
0.0000000e+00 0.0000000e+00 0.0000000e+00 
0.0000000e+00 0.0000000e+00 0.0000000e+00 
0.0000000e+00 0.0000000e+00 0.0000000e+00 
0.0000000e+00 0.0000000e+00 0.0000000e+00 
0.0000000e+00 0.0000000e+00 0.0000000e+00 
0.0000000e+00 0.0000000e+00 0.0000000e+00 
0.0000000e+00 0.0000000e+00 0.0000000e+00 
0.0000000e+00 0.0000000e+00 0.0000000e+00 
0.0000000e+00 0.0000000e+00 0.0000000e+00 
0.0000000e+00 0.0000000e+00 0.0000000e+00 
0.0000000e+00 0.0000000e+00 0.0000000e+00 
0.0000000e+00 0.0000000e+00 0.0000000e+00 
0.0000000e+00 0.0000000e+00 0.0000000e+00 
0.0000000e+00 0.0000000e+00 0.0000000e+00 
0.0000000e+00 0.0000000e+00 0.0000000e+00 
0.0000000e+00 0.0000000e+00 0.0000000e+00 
0.0000000e+00 0.0000000e+00 0.0000000e+00 
0.0000000e+00 0.0000000e+00 0.0000000e+00 
0.0000000e+00 0.0000000e+00 0.0000000e+00 
0.0000000e+00 0.0000000e+00 0.0000000e+00 
0.0000000e+00 0.0000000e+00 0.0000000e+00 
0.0000000e+00 0.0000000e+00 0.0000000e+00 
0.0000000e+00 0.0000000e+00 0.0000000e+00 
0.0000000e+00 0.0000000e+00 0.0000000e+00 
0.0000000e+00 0.0000000e+00 0.0000000e+00 
0.0000000e+00 0.0000000e+00 0.0000000e+00 
0.0000000e+00 0.0000000e+00 0.0000000e+00 
0.0000000e+00 0.0000000e+00 0.0000000e+00 
0.0000000e+00 2.4779715e-07 0.0000000e+00 
0.0000000e+00 -1.9211775e-08 0.0000000e+00 
0.0000000e+00 -9.0652875e-08 0.0000000e+00 
0.0000000e+00 -2.8235357e-07 0.0000000e+00 
0.0000000e+00 1.0577045e-07 0.0000000e+00 
0.0000000e+00 -7.7092920e-08 0.0000000e+00 
0.0000000e+00 -5.9583931e-07 0.0000000e+00 
0.0000000e+00 -9.4074858e-07 0.0000000e+00 
0.0000000e+00 -3.5672906e-07 0.0000000e+00 
0.0000000e+00 -6.4936438e-07 0.0000000e+00 
0.0000000e+00 2.1612557e-07 0.0000000e+00 
0.0000000e+00 -4.5169233e-07 0.0000000e+00 
0.0000000e+00 -1.0075580e-07 0.0000000e+00 
0.0000000e+00 -5.1825498e-07 0.0000000e+00 
0.0000000e+00 -3.5999445e-08 0.0000000e+00 
0.0000000e+00 -1.8062879e-07 0.0000000e+00 
0.0000000e+00 1.9257972e-07 0.0000000e+00 
0.0000000e+00 1.5769638e-07 0.0000000e+00 
0.0000000e+00 -6.5404254e-07 0.0000000e+00 
0.0000000e+00 -4.4231246e-07 0.0000000e+00 
0.0000000e+00 8.0711111e-08 0.0000000e+00 
0.0000000e+00 -6.2100884e-07 0.0000000e+00 
0.0000000e+00 -3.4461479e-07 0.0000000e+00 
0.0000000e+00 -1.7539229e-07 0.0000000e+00 
0.0000000e+00 -1.2085352e-08 0.0000000e+00 
0.0000000e+00 2.6358285e-07 0.0000000e+00 
0.0000000e+00 -1.0872748e-07 0.0000000e+00 
0.0000000e+00 2.2937873e-07 0.0000000e+00 
0.0000000e+00 1.1905935e-08 0.0000000e+00 
0.0000000e+00 -4.9915643e-06 0.0000000e+00 
0.0000000e+00 -5.4167492e-07 0.0000000e+00 
0.0000000e+00 -3.3371666e-06 0.0000000e+00 
0.0000000e+00 -1.8524244e-05 0.0000000e+00 
0.0000000e+00 -1.2862199e-05 0.0000000e+00 
0.0000000e+00 -2.2482527e-05 0.0000000e+00 
0.0000000e+00 -7.9539474e-05 0.0000000e+00 
0.0000000e+00 -3.4065346e-05 0.0000000e+00 
0.0000000e+00 -9.5952855e-06 0.0000000e+00 
0.0000000e+00 -7.4114178e-06 0.0000000e+00 
0.0000000e+00 -5.4241878e-05 0.0000000e+00 
0.0000000e+00 -7.1429153e-05 0.0000000e+00 
0.0000000e+00 -4.6139055e-05 0.0000000e+00 
0.0000000e+00 -1.1477405e-05 0.0000000e+00 
0.0000000e+00 -1.2888544e-06 0.0000000e+00 
0.0000000e+00 -1.0919388e-06 0.0000000e+00 
0.0000000e+00 -5.6156009e-06 0.0000000e+00 
0.0000000e+00 -4.4126511e-05 0.0000000e+00 
0.0000000e+00 -2.0114576e-05 0.0000000e+00 
0.0000000e+00 -2.5828151e-05 0.0000000e+00 
0.0000000e+00 -1.0891993e-05 0.0000000e+00 
0.0000000e+00 -3.5074387e-05 0.0000000e+00 
0.0000000e+00 -2.3882480e-05 0.0000000e+00 
0.0000000e+00 -1.4917697e-05 0.0000000e+00 
0.0000000e+00 -3.0436613e-06 0.0000000e+00 
0.0000000e+00 -2.6238408e-06 0.0000000e+00 
0.0000000e+00 -4.5239364e-07 0.0000000e+00 
0.0000000e+00 -3.4061111e-07 0.0000000e+00 
0.0000000e+00 -4.8856127e-06 0.0000000e+00 
0.0000000e+00 -1.3337933e-06 0.0000000e+00 
0.0000000e+00 -7.5418498e-08 0.0000000e+00 
0.0000000e+00 -1.0239340e-06 0.0000000e+00 
0.0000000e+00 -1.2917843e-06 0.0000000e+00 
0.0000000e+00 -9.4860508e-07 0.0000000e+00 
0.0000000e+00 -1.9728292e-08 0.0000000e+00 
0.0000000e+00 -2.5314634e-07 0.0000000e+00 
0.0000000e+00 -1.8587323e-06 0.0000000e+00 
0.0000000e+00 -1.2596449e-06 0.0000000e+00 
0.0000000e+00 -4.8148507e-07 0.0000000e+00 
0.0000000e+00 -1.5151289e-07 0.0000000e+00 
0.0000000e+00 2.8499778e-07 0.0000000e+00 
0.0000000e+00 -1.9964323e-06 0.0000000e+00 
0.0000000e+00 -1.2014667e-06 0.0000000e+00 
-1.0176545e-05 -6.3835905e-05 8.1484359e-06 
-1.3934996e-05 -8.8462584e-05 -6.4281026e-06 
-6.0578300e-06 -2.2654222e-05 -1.0462907e-05 
-1.5146060e-06 -3.8328872e-06 4.1770454e-06 
-3.4110312e-06 -1.6829508e-05 7.3624469e-06 
-3.7606333e-06 -1.8479745e-06 5.8250538e-07 
-8.0637108e-07 -2.5896969e-07 5.2897303e-07 
-2.6100579e-06 -1.4550080e-06 -1.0879000e-06 
-2.8668234e-07 3.1102402e-07 1.1347121e-06 
-1.7799791e-06 -6.8667732e-06 -4.8951133e-06 
-2.1051564e-07 1.9897996e-07 3.8124446e-07 
-1.2087801e-06 -7.3986826e-07 -1.1112745e-06 
-3.2133139e-06 -2.1792034e-06 -1.1727402e-06 
-6.2216372e-06 -7.2815624e-06 -2.5425516e-06 
-4.5133188e-06 -5.2092632e-06 -3.5243993e-06 
-5.8656237e-06 -1.3278497e-05 -3.1833442e-06 
-8.8384468e-06 -1.9848785e-05 -2.0982295e-06 
-3.6071278e-06 -6.8886884e-06 -3.1858415e-06 
-1.0249682e-05 -3.4626184e-05 -8.1425915e-06 
-8.7187473e-06 -9.8129503e-06 -9.8914461e-07 
-6.1327246e-06 -8.5751471e-06 1.8491592e-07 
-1.1112458e-05 -2.0696771e-05 7.5107101e-07 
-1.0082541e-05 -2.1251462e-05 2.6697164e-06 
-5.3400199e-06 -7.7890727e-06 2.1567548e-06 
-6.9947973e-06 -1.3959987e-05 4.2295428e-06 
-3.4915245e-06 -4.3150981e-06 1.9231738e-06 
-4.1160924e-06 -8.1270455e-06 4.4505446e-06 
-2.4662452e-06 -3.5079545e-06 2.5062159e-06 
-2.8819684e-06 -4.0478635e-06 3.6058539e-06 
-1.6838759e-06 -1.5247892e-06 1.8544409e-06 
-9.9030854e-07 -1.0210975e-06 2.0036514e-06 
-1.5195697e-05 -5.4500459e-05 8.2710915e-07 
-1.5374817e-05 -4.6143967e-05 -6.5892675e-07 
-6.7606161e-06 -1.8624218e-05 6.7448732e-06 
-1.7805627e-06 -1.2484810e-06 9.0719425e-07 
-1.6498014e-06 -2.0770715e-06 -1.6469340e-06 
-9.6952335e-06 -2.9241735e-05 5.9178788e-06 
-2.7256942e-06 -1.9573433e-06 4.5583576e-07 
-2.7501909e-07 2.6910979e-07 5.6232773e-07 
-1.5155426e-06 -4.5161323e-07 -1.0953368e-06 
-6.4048422e-06 -1.8868735e-05 -8.6978516e-06 
-4.9028945e-06 -1.0560876e-05 -6.9036291e-06 
-6.2611643e-06 -1.0293619e-04 5.2103536e-07 
-3.1847006e-07 2.1335791e-07 2.7510865e-07 
-2.5969555e-06 -8.0977552e-06 5.4891489e-06 
-3.4904429e-06 -9.4793986e-06 5.4065954e-06 
-5.8641367e-06 -2.9355964e-05 9.6493477e-06 
-8.9075638e-06 -4.4975794e-05 9.9363706e-06 
-7.7945288e-06 -7.1807961e-05 -9.9825756e-06 
-8.5867259e-06 -3.8181523e-05 -1.0932292e-05 
-2.7397715e-07 -2.8773667e-07 5.7730284e-07 
-6.5680422e-07 -8.4020820e-07 2.0563486e-06 
-1.3606486e-06 -2.4849521e-06 -2.6916578e-06 
-6.3168261e-07 -6.2005867e-08 8.9851096e-07 
-2.3131804e-06 -4.6535461e-06 4.3331147e-06 
-3.6328036e-06 -1.3576187e-05 -8.0824148e-06 
-1.2870968e-05 -4.0565628e-05 -6.3854918e-06 
-5.2307064e-07 -5.6427575e-07 1.5496469e-06 
-1.1157433e-05 -9.2289891e-05 7.3549877e-06 
-2.6235193e-06 -2.6849614e-06 -2.3220741e-06 
-7.0046639e-07 1.9685597e-08 -6.4964877e-07 
-7.6885591e-08 2.8688609e-07 1.1665672e-07 
-3.5951834e-06 -3.7264847e-06 1.6277570e-06 
-1.0864088e-06 -1.5973205e-06 2.6993209e-06 
-2.3568700e-06 -4.4006474e-06 -3.4754776e-06 
-1.1103791e-05 -2.6108932e-05 -2.2518741e-06 
-6.8966040e-07 -1.6990555e-07 8.2562667e-07 
-1.6364519e-06 -1.4555266e-06 1.3509569e-06 
-2.5205162e-07 1.1355205e-07 6.2504711e-07 
-1.4700090e-05 -4.6026056e-05 6.7976248e-06 
-1.2862906e-06 -2.2729882e-06 -1.7335168e-06 
-5.0590484e-07 -3.8080050e-06 3.1475402e-06 
-1.7090433e-07 -9.8387909e-07 2.3289690e-06 
-8.0663415e-07 -1.1505474e-05 4.7830290e-06 
-1.3927271e-06 -1.9754179e-05 5.0375420e-06 
-2.8305521e-07 -8.2959232e-08 1.3563988e-06 
-1.2033798e-06 -3.3842844e-05 4.8640595e-06 
-2.9089992e-06 -5.5260181e-05 8.3708001e-06 
-4.3692901e-07 -8.2913204e-05 5.8693786e-06 
-9.3768540e-06 -1.1647485e-04 3.1682546e-06 
-1.5828331e-05 -1.5150094e-04 -3.2256632e-06 
-1.0448539e-05 -1.2690561e-04 -3.1722402e-06 
-8.4975964e-06 -9.6207492e-05 -9.9920135e-06 
-3.8788139e-06 -5.6348486e-05 -7.6176298e-06 
-2.0486716e-06 -2.8372480e-05 -6.8576173e-06 
-1.0502034e-06 -1.6950338e-05 -6.1618325e-06 
-5.3782054e-07 -8.6064192e-06 -4.4648423e-06 
-4.2742397e-07 -3.9192155e-06 -2.4204380e-06 
-1.5554991e-07 -6.9212228e-07 4.4506913e-07 
5.0970766e-07 -1.9573170e-06 -2.1801718e-06 
3.1329305e-06 -1.2744782e-05 -5.3108533e-06 
1.0187220e-05 -3.7420254e-05 -2.5158104e-06 
6.5610784e-06 -2.5506923e-05 6.0347484e-06 
1.7958237e-06 -6.6723887e-06 3.4492141e-06 
1.2932923e-06 -1.4798470e-06 -1.7804537e-06 
3.2803423e-06 -4.1389239e-06 -1.9436006e-06 
6.4491242e-06 -1.1962885e-05 7.8536527e-07 
5.2602450e-06 -4.5818833e-05 -8.5349238e-06 
9.0715709e-08 -8.5321217e-06 -1.9322379e-06 
-1.3436579e-07 -7.5008018e-08 -1.6720809e-07 
3.4009815e-06 -4.6656151e-06 2.8796342e-06 
1.1787296e-07 -7.3624655e-08 -6.2772597e-07 
7.4851105e-06 -8.0460246e-05 3.9606425e-06 
1.1236424e-06 -2.2533839e-05 4.5464571e-06 
5.6563943e-07 -2.6999520e-05 -3.3980002e-06 
3.9375482e-06 -1.6756141e-05 -3.0008987e-06 
1.0976540e-06 -3.8047510e-06 -2.1508547e-06 
4.5630309e-06 -8.7156695e-05 -5.8170640e-06 
6.3726293e-06 -1.6017400e-05 -4.4392400e-06 
-1.6632816e-07 -1.6222124e-06 -2.3295576e-07 
3.2285470e-06 -3.1507006e-06 -5.1260679e-07 
-9.0547431e-08 -6.7350443e-06 1.4101012e-06 
4.0577632e-07 -5.3369845e-08 -6.4170058e-07 
8.6782472e-07 -5.5294896e-07 6.7610296e-07 
1.3661565e-06 -5.1445800e-06 -3.7786133e-06 
7.0073829e-06 -1.0216136e-05 -1.4945455e-06 
9.9813667e-07 -1.1578799e-06 -1.8879273e-06 
2.5434388e-06 -3.8644730e-06 -2.8840923e-06 
8.8093816e-07 -4.6255705e-06 -1.0111619e-06 
1.3911646e-06 -1.7763285e-06 4.9366871e-08 
4.2425604e-06 -2.3938963e-05 1.9743127e-06 
2.6069315e-06 -5.1395647e-05 3.9669071e-06 
4.9632245e-06 -2.9467010e-05 -5.3597836e-07 
1.4408037e-06 -1.7529831e-06 1.7705308e-06 
2.7340025e-06 -1.2523500e-05 2.7122419e-06 
1.6403155e-07 -3.3215210e-07 -9.3858847e-07 
8.7290772e-07 -8.0769445e-07 -7.4187636e-07 
-7.3568991e-08 -4.0151690e-07 -1.0301811e-06 
6.1435653e-06 -2.7398815e-05 3.3853523e-06 
2.1643075e-06 -1.8148014e-05 -5.2307951e-06 
5.9648436e-08 -2.8120937e-06 5.4088150e-07 
2.6738919e-06 -1.3470550e-05 5.8145024e-06 
6.3740947e-07 -2.1843707e-05 -1.6977181e-06 
-4.5365276e-08 -2.3148233e-07 -3.4198297e-07 
2.3645875e-06 -9.3291728e-06 -9.3146275e-07 
9.8334169e-07 -5.5014743e-07 -7.9558959e-07 
3.7082864e-06 -8.8127726e-06 3.6197791e-06 
1.6929938e-07 -7.3558948e-07 -5.5809841e-07 
4.9159398e-06 -2.3597640e-05 -3.0995491e-06 
2.3089687e-07 -2.4954385e-08 -3.8578551e-07 
1.7779682e-06 -1.5074520e-06 9.9162105e-07 
-1.3523990e-07 -8.0425998e-06 -7.5711313e-07 
3.8447242e-06 -5.3340733e-05 6.2821715e-07 
4.8643606e-06 -5.7411042e-05 -2.7897494e-07 
7.3767937e-06 -1.3536607e-05 1.3122147e-06 
6.4917219e-07 -3.2894313e-06 2.2102665e-06 
6.9511266e-08 2.4281334e-07 -2.0095310e-07 
1.6363042e-07 -1.7692565e-06 -2.2715470e-07 
1.5327641e-06 -1.1528419e-06 -4.9745813e-07 
9.0750530e-07 -3.8997309e-06 -4.0880826e-07 
2.7569588e-06 -2.6176785e-06 4.7454895e-07 
-2.7878994e-07 -2.1754506e-06 -1.5967844e-07 