# vtk DataFile Version 4.0
vtk output
ASCII
DATASET UNSTRUCTURED_GRID
POINTS 460 float
0.0000000e+00 0.0000000e+00 0.0000000e+00 
5.0000000e+00 0.0000000e+00 0.0000000e+00 
5.0000000e+00 3.0000000e+00 0.0000000e+00 
0.0000000e+00 3.0000000e+00 0.0000000e+00 
0.0000000e+00 0.0000000e+00 1.0000000e+01 
5.0000000e+00 0.0000000e+00 1.0000000e+01 
5.0000000e+00 3.0000000e+00 1.0000000e+01 
0.0000000e+00 3.0000000e+00 1.0000000e+01 
1.0000000e+00 3.0000000e+00 -5.0000000e+00 
1.0000000e+00 3.0000000e+00 -4.5000000e+00 
1.0000000e+00 3.0000000e+00 -4.0000000e+00 
1.0000000e+00 3.0000000e+00 -3.5000000e+00 
1.0000000e+00 3.0000000e+00 -3.0000000e+00 
1.0000000e+00 3.0000000e+00 -2.5000000e+00 
1.0000000e+00 3.0000000e+00 -2.0000000e+00 
1.0000000e+00 3.0000000e+00 -1.5000000e+00 
1.0000000e+00 3.0000000e+00 -1.0000000e+00 
1.0000000e+00 3.0000000e+00 -5.0000000e-01 
1.0000000e+00 3.0000000e+00 0.0000000e+00 
1.0000000e+00 3.0000000e+00 5.0000000e-01 
1.0000000e+00 3.0000000e+00 1.0000000e+00 
1.0000000e+00 3.0000000e+00 1.5000000e+00 
1.0000000e+00 3.0000000e+00 2.0000000e+00 
1.0000000e+00 3.0000000e+00 2.5000000e+00 
1.0000000e+00 3.0000000e+00 3.0000000e+00 
1.0000000e+00 3.0000000e+00 3.5000000e+00 
1.0000000e+00 3.0000000e+00 4.0000000e+00 
1.0000000e+00 3.0000000e+00 4.5000000e+00 
1.0000000e+00 3.0000000e+00 5.0000000e+00 
1.0000000e+00 3.0000000e+00 5.5000000e+00 
1.0000000e+00 3.0000000e+00 6.0000000e+00 
1.0000000e+00 3.0000000e+00 6.5000000e+00 
1.0000000e+00 3.0000000e+00 7.0000000e+00 
1.0000000e+00 3.0000000e+00 7.5000000e+00 
1.0000000e+00 3.0000000e+00 8.0000000e+00 
1.0000000e+00 3.0000000e+00 8.5000000e+00 
1.0000000e+00 3.0000000e+00 9.0000000e+00 
1.0000000e+00 3.0000000e+00 9.5000000e+00 
1.0000000e+00 3.0000000e+00 1.0000000e+01 
1.0000000e+00 3.0000000e+00 1.0500000e+01 
1.0000000e+00 3.0000000e+00 1.1000000e+01 
1.0000000e+00 3.0000000e+00 1.1500000e+01 
1.0000000e+00 3.0000000e+00 1.2000000e+01 
1.0000000e+00 3.0000000e+00 1.2500000e+01 
1.0000000e+00 3.0000000e+00 1.3000000e+01 
1.0000000e+00 3.0000000e+00 1.3500000e+01 
1.0000000e+00 3.0000000e+00 1.4000000e+01 
1.0000000e+00 3.0000000e+00 1.4500000e+01 
1.0000000e+00 3.0250001e+00 -5.0000000e+00 
1.0000000e+00 3.0250001e+00 -4.5000000e+00 
1.0000000e+00 3.0250001e+00 -4.0000000e+00 
1.0000000e+00 3.0250001e+00 -3.5000000e+00 
1.0000000e+00 3.0250001e+00 -3.0000000e+00 
1.0000000e+00 3.0250001e+00 -2.5000000e+00 
1.0000000e+00 3.0250001e+00 -2.0000000e+00 
1.0000000e+00 3.0250001e+00 -1.5000000e+00 
1.0000000e+00 3.0250001e+00 -1.0000000e+00 
1.0000000e+00 3.0250001e+00 -5.0000000e-01 
1.0000000e+00 3.0250001e+00 0.0000000e+00 
1.0000000e+00 3.0250001e+00 5.0000000e-01 
1.0000000e+00 3.0250001e+00 1.0000000e+00 
1.0000000e+00 3.0250001e+00 1.5000000e+00 
1.0000000e+00 3.0250001e+00 2.0000000e+00 
1.0000000e+00 3.0250001e+00 2.5000000e+00 
1.0000000e+00 3.0250001e+00 3.0000000e+00 
1.0000000e+00 3.0250001e+00 3.5000000e+00 
1.0000000e+00 3.0250001e+00 4.0000000e+00 
1.0000000e+00 3.0250001e+00 4.5000000e+00 
1.0000000e+00 3.0250001e+00 5.0000000e+00 
1.0000000e+00 3.0250001e+00 5.5000000e+00 
1.0000000e+00 3.0250001e+00 6.0000000e+00 
1.0000000e+00 3.0250001e+00 6.5000000e+00 
1.0000000e+00 3.0250001e+00 7.0000000e+00 
1.0000000e+00 3.0250001e+00 7.5000000e+00 
1.0000000e+00 3.0250001e+00 8.0000000e+00 
1.0000000e+00 3.0250001e+00 8.5000000e+00 
1.0000000e+00 3.0250001e+00 9.0000000e+00 
1.0000000e+00 3.0250001e+00 9.5000000e+00 
1.0000000e+00 3.0250001e+00 1.0000000e+01 
1.0000000e+00 3.0250001e+00 1.0500000e+01 
1.0000000e+00 3.0250001e+00 1.1000000e+01 
1.0000000e+00 3.0250001e+00 1.1500000e+01 
1.0000000e+00 3.0250001e+00 1.2000000e+01 
1.0000000e+00 3.0250001e+00 1.2500000e+01 
1.0000000e+00 3.0250001e+00 1.3000000e+01 
1.0000000e+00 3.0250001e+00 1.3500000e+01 
1.0000000e+00 3.0250001e+00 1.4000000e+01 
1.0000000e+00 3.0250001e+00 1.4500000e+01 
1.0000000e+00 -2.0000000e+00 -5.0000000e+00 
1.0000000e+00 -2.0000000e+00 -4.5000000e+00 
1.0000000e+00 -2.0000000e+00 -4.0000000e+00 
1.0000000e+00 -2.0000000e+00 -3.5000000e+00 
1.0000000e+00 -2.0000000e+00 -3.0000000e+00 
1.0000000e+00 -2.0000000e+00 -2.5000000e+00 
1.0000000e+00 -2.0000000e+00 -2.0000000e+00 
1.0000000e+00 -2.0000000e+00 -1.5000000e+00 
1.0000000e+00 -2.0000000e+00 -1.0000000e+00 
1.0000000e+00 -2.0000000e+00 -5.0000000e-01 
1.0000000e+00 -2.0000000e+00 1.0500000e+01 
1.0000000e+00 -2.0000000e+00 1.1000000e+01 
1.0000000e+00 -2.0000000e+00 1.1500000e+01 
1.0000000e+00 -2.0000000e+00 1.2000000e+01 
1.0000000e+00 -2.0000000e+00 1.2500000e+01 
1.0000000e+00 -2.0000000e+00 1.3000000e+01 
1.0000000e+00 -2.0000000e+00 1.3500000e+01 
1.0000000e+00 -2.0000000e+00 1.4000000e+01 
1.0000000e+00 -2.0000000e+00 1.4500000e+01 
1.0000000e+00 0.0000000e+00 0.0000000e+00 
2.0000000e+00 0.0000000e+00 0.0000000e+00 
3.0000000e+00 0.0000000e+00 0.0000000e+00 
4.0000000e+00 0.0000000e+00 0.0000000e+00 
5.0000000e+00 1.0000000e+00 0.0000000e+00 
5.0000000e+00 2.0000000e+00 0.0000000e+00 
0.0000000e+00 2.0000000e+00 0.0000000e+00 
0.0000000e+00 1.0000000e+00 0.0000000e+00 
0.0000000e+00 0.0000000e+00 1.0000000e+00 
0.0000000e+00 0.0000000e+00 2.0000000e+00 
0.0000000e+00 0.0000000e+00 3.0000000e+00 
0.0000000e+00 0.0000000e+00 4.0000000e+00 
0.0000000e+00 0.0000000e+00 5.0000000e+00 
0.0000000e+00 0.0000000e+00 6.0000000e+00 
0.0000000e+00 0.0000000e+00 7.0000000e+00 
0.0000000e+00 0.0000000e+00 8.0000000e+00 
0.0000000e+00 0.0000000e+00 9.0000000e+00 
5.0000000e+00 0.0000000e+00 1.0000000e+00 
5.0000000e+00 0.0000000e+00 2.0000000e+00 
5.0000000e+00 0.0000000e+00 3.0000000e+00 
5.0000000e+00 0.0000000e+00 4.0000000e+00 
5.0000000e+00 0.0000000e+00 5.0000000e+00 
5.0000000e+00 0.0000000e+00 6.0000000e+00 
5.0000000e+00 0.0000000e+00 7.0000000e+00 
5.0000000e+00 0.0000000e+00 8.0000000e+00 
5.0000000e+00 0.0000000e+00 9.0000000e+00 
1.0000000e+00 0.0000000e+00 1.0000000e+01 
2.0000000e+00 0.0000000e+00 1.0000000e+01 
3.0000000e+00 0.0000000e+00 1.0000000e+01 
4.0000000e+00 0.0000000e+00 1.0000000e+01 
5.0000000e+00 3.0000000e+00 1.0000000e+00 
5.0000000e+00 3.0000000e+00 2.0000000e+00 
5.0000000e+00 3.0000000e+00 3.0000000e+00 
5.0000000e+00 3.0000000e+00 4.0000000e+00 
5.0000000e+00 3.0000000e+00 5.0000000e+00 
5.0000000e+00 3.0000000e+00 6.0000000e+00 
5.0000000e+00 3.0000000e+00 7.0000000e+00 
5.0000000e+00 3.0000000e+00 8.0000000e+00 
5.0000000e+00 3.0000000e+00 9.0000000e+00 
5.0000000e+00 1.0000000e+00 1.0000000e+01 
5.0000000e+00 2.0000000e+00 1.0000000e+01 
0.0000000e+00 3.0000000e+00 1.0000000e+00 
0.0000000e+00 3.0000000e+00 2.0000000e+00 
0.0000000e+00 3.0000000e+00 3.0000000e+00 
0.0000000e+00 3.0000000e+00 4.0000000e+00 
0.0000000e+00 3.0000000e+00 5.0000000e+00 
0.0000000e+00 3.0000000e+00 6.0000000e+00 
0.0000000e+00 3.0000000e+00 7.0000000e+00 
0.0000000e+00 3.0000000e+00 8.0000000e+00 
0.0000000e+00 3.0000000e+00 9.0000000e+00 
0.0000000e+00 2.0000000e+00 1.0000000e+01 
0.0000000e+00 1.0000000e+00 1.0000000e+01 
4.0000000e+00 3.0000000e+00 0.0000000e+00 
3.0000000e+00 3.0000000e+00 0.0000000e+00 
2.0000000e+00 3.0000000e+00 0.0000000e+00 
4.0000000e+00 3.0000000e+00 1.0000000e+01 
3.0000000e+00 3.0000000e+00 1.0000000e+01 
2.0000000e+00 3.0000000e+00 1.0000000e+01 
4.0618000e+00 1.5000000e+00 0.0000000e+00 
1.5046000e+00 7.6549745e-01 0.0000000e+00 
2.5000000e+00 2.1339746e+00 0.0000000e+00 
1.5046000e+00 2.2345026e+00 0.0000000e+00 
2.4957771e+00 8.1560516e-01 0.0000000e+00 
3.4707544e+00 2.2336540e+00 0.0000000e+00 
3.4700506e+00 7.5794268e-01 0.0000000e+00 
8.6322361e-01 1.5000000e+00 0.0000000e+00 
2.0000000e+00 1.5000000e+00 0.0000000e+00 
2.9960666e+00 1.4974480e+00 0.0000000e+00 
4.2679491e+00 7.3205084e-01 0.0000000e+00 
4.2679491e+00 2.2679491e+00 0.0000000e+00 
7.2695929e-01 2.2730408e+00 0.0000000e+00 
7.2695929e-01 7.2695929e-01 0.0000000e+00 
4.1822505e+00 0.0000000e+00 2.5515697e+00 
4.2017918e+00 0.0000000e+00 4.4725966e+00 
4.1114569e+00 0.0000000e+00 6.5092020e+00 
8.6602539e-01 0.0000000e+00 3.5000000e+00 
8.4778279e-01 0.0000000e+00 5.4684029e+00 
8.9629614e-01 0.0000000e+00 7.5867257e+00 
2.5566745e+00 0.0000000e+00 8.1853306e-01 
2.4918270e+00 0.0000000e+00 9.1386929e+00 
8.4677207e-01 0.0000000e+00 1.5042374e+00 
4.0943027e+00 0.0000000e+00 8.4081745e+00 
8.6281651e-01 0.0000000e+00 2.5007062e+00 
1.7315160e+00 0.0000000e+00 3.0001178e+00 
1.7319617e+00 0.0000000e+00 4.0000196e+00 
2.5980761e+00 0.0000000e+00 3.5000000e+00 
2.5536871e+00 0.0000000e+00 4.4963923e+00 
2.5928419e+00 0.0000000e+00 2.4239938e+00 
1.5037409e+00 0.0000000e+00 9.1535149e+00 
1.8433737e+00 0.0000000e+00 8.1858873e+00 
3.0000000e+00 0.0000000e+00 8.2679491e+00 
2.5000000e+00 0.0000000e+00 7.4019237e+00 
3.5042722e+00 0.0000000e+00 7.4271150e+00 
3.0310018e+00 0.0000000e+00 6.5282087e+00 
2.0373929e+00 0.0000000e+00 6.5307913e+00 
3.4767809e+00 0.0000000e+00 5.8031492e+00 
2.5452602e+00 0.0000000e+00 5.5720768e+00 
1.6456656e+00 0.0000000e+00 1.9697139e+00 
8.6297011e-01 0.0000000e+00 4.4947371e+00 
1.0111579e+00 0.0000000e+00 6.5282545e+00 
3.4994321e+00 0.0000000e+00 8.4691072e-01 
4.1860156e+00 0.0000000e+00 3.5040276e+00 
1.7320508e+00 0.0000000e+00 5.0000000e+00 
4.0544066e+00 0.0000000e+00 1.5781221e+00 
1.5817389e+00 0.0000000e+00 9.3943578e-01 
8.3166349e-01 0.0000000e+00 8.5090933e+00 
3.4686174e+00 0.0000000e+00 9.1752682e+00 
3.0709300e+00 0.0000000e+00 1.5799091e+00 
3.3927374e+00 0.0000000e+00 3.0399952e+00 
3.3826034e+00 0.0000000e+00 3.9747651e+00 
4.3420062e+00 0.0000000e+00 7.4688983e+00 
3.4023225e+00 0.0000000e+00 4.9314723e+00 
1.6740381e+00 0.0000000e+00 7.3014426e+00 
4.2715640e+00 0.0000000e+00 5.4758859e+00 
1.6225953e+00 0.0000000e+00 5.8104177e+00 
4.2679491e+00 0.0000000e+00 9.2679491e+00 
7.3205084e-01 0.0000000e+00 7.3205084e-01 
4.2679491e+00 0.0000000e+00 7.3205084e-01 
7.3205084e-01 0.0000000e+00 9.2679491e+00 
3.4586334e+00 0.0000000e+00 2.2347178e+00 
2.2895701e+00 0.0000000e+00 1.5463171e+00 
5.0000000e+00 2.2345026e+00 1.5046000e+00 
[...]
POINT_DATA 460
FIELD FieldData 2
DISPLACEMENT 3 460  float
0.0000000e+00 0.0000000e+00 0.0000000e+00 
0.0000000e+00 0.0000000e+00 0.0000000e+00 
0.0000000e+00 -3.0480355e-06 0.0000000e+00 
0.0000000e+00 -6.3826214e-05 0.0000000e+00 
0.0000000e+00 0.0000000e+00 0.0000000e+00 
0.0000000e+00 0.0000000e+00 0.0000000e+00 
0.0000000e+00 8.2211123e-08 0.0000000e+00 
0.0000000e+00 5.1595251e-08 0.0000000e+00 
0.0000000e+00 3.6509825e-06 0.0000000e+00 
0.0000000e+00 3.8928670e-06 0.0000000e+00 
0.0000000e+00 4.6466694e-06 0.0000000e+00 
0.0000000e+00 5.9383392e-06 0.0000000e+00 
0.0000000e+00 7.6506167e-06 0.0000000e+00 
0.0000000e+00 9.2996170e-06 0.0000000e+00 
0.0000000e+00 9.7556658e-06 0.0000000e+00 
0.0000000e+00 6.9952434e-06 0.0000000e+00 
0.0000000e+00 -1.9374027e-06 0.0000000e+00 
0.0000000e+00 -2.0464289e-05 0.0000000e+00 
0.0000000e+00 -5.1865252e-05 0.0000000e+00 
-3.7925586e-06 -9.6522293e-05 -2.1787823e-06 
-7.6246210e-06 -1.6640272e-04 7.3050282e-06 
2.9150146e-07 -2.4016264e-04 -2.5664849e-06 
4.5485808e-06 -2.5198306e-04 -1.1373405e-05 
-1.2466637e-06 -1.7453473e-04 -1.0010597e-05 
-3.2546081e-06 -9.5327225e-05 -1.1939524e-05 
-6.0857701e-06 -4.5193905e-05 -1.6963146e-05 
-2.5934096e-06 -1.8560871e-05 -9.0877293e-06 
-1.4198777e-06 -6.6885523e-06 -7.4832697e-06 
-5.5361005e-07 -2.2027598e-06 -3.8695771e-06 
-4.5627280e-07 -7.8103727e-07 -2.2032100e-06 
-4.1622246e-07 -3.6231924e-07 -1.6102498e-06 
-1.7930050e-07 -2.0885309e-07 -8.8275249e-07 
-1.1192894e-07 -9.8359536e-08 -4.9586907e-07 
-6.0638911e-08 -3.3908534e-09 -2.7265759e-07 
-4.3302371e-08 5.5144231e-08 -1.7280304e-07 
-2.7329143e-08 7.9966462e-08 -7.0082912e-08 
-1.7835154e-08 8.2245201e-08 -3.0784392e-08 
-1.0146532e-08 7.4018523e-08 -1.4341538e-08 
0.0000000e+00 5.8869148e-08 0.0000000e+00 
0.0000000e+00 3.9623536e-08 0.0000000e+00 
0.0000000e+00 2.2612626e-08 0.0000000e+00 
0.0000000e+00 1.0258434e-08 0.0000000e+00 
0.0000000e+00 2.7280180e-09 0.0000000e+00 
0.0000000e+00 -1.0105662e-09 0.0000000e+00 
0.0000000e+00 -2.2951803e-09 0.0000000e+00 
0.0000000e+00 -2.3161748e-09 0.0000000e+00 
0.0000000e+00 -1.9520483e-09 0.0000000e+00 
0.0000000e+00 -1.7567676e-09 0.0000000e+00 
0.0000000e+00 3.6526121e-06 0.0000000e+00 
0.0000000e+00 3.8956273e-06 0.0000000e+00 
0.0000000e+00 4.6528708e-06 0.0000000e+00 
0.0000000e+00 5.9505942e-06 0.0000000e+00 
0.0000000e+00 7.6710739e-06 0.0000000e+00 
0.0000000e+00 9.3282924e-06 0.0000000e+00 
0.0000000e+00 9.7878110e-06 0.0000000e+00 
0.0000000e+00 7.0178585e-06 0.0000000e+00 
0.0000000e+00 -1.9493530e-06 0.0000000e+00 
0.0000000e+00 -2.0549538e-05 0.0000000e+00 
0.0000000e+00 -5.1307714e-05 0.0000000e+00 
0.0000000e+00 -9.7354525e-05 0.0000000e+00 
0.0000000e+00 -1.6769007e-04 0.0000000e+00 
0.0000000e+00 -2.4442651e-04 0.0000000e+00 
0.0000000e+00 -2.5566234e-04 0.0000000e+00 
0.0000000e+00 -1.7731535e-04 0.0000000e+00 
0.0000000e+00 -9.6663978e-05 0.0000000e+00 
0.0000000e+00 -4.5239674e-05 0.0000000e+00 
0.0000000e+00 -1.8494513e-05 0.0000000e+00 
0.0000000e+00 -6.5802992e-06 0.0000000e+00 
0.0000000e+00 -2.1206654e-06 0.0000000e+00 
0.0000000e+00 -7.3416243e-07 0.0000000e+00 
0.0000000e+00 -3.4505953e-07 0.0000000e+00 
0.0000000e+00 -2.0253647e-07 0.0000000e+00 
0.0000000e+00 -9.6942273e-08 0.0000000e+00 
0.0000000e+00 -4.5572177e-09 0.0000000e+00 
0.0000000e+00 5.4758363e-08 0.0000000e+00 
0.0000000e+00 7.9956919e-08 0.0000000e+00 
0.0000000e+00 8.2583746e-08 0.0000000e+00 
0.0000000e+00 7.4026332e-08 0.0000000e+00 
0.0000000e+00 5.8717184e-08 0.0000000e+00 
0.0000000e+00 3.9780943e-08 0.0000000e+00 
0.0000000e+00 2.2701618e-08 0.0000000e+00 
0.0000000e+00 1.0297771e-08 0.0000000e+00 
0.0000000e+00 2.7371179e-09 0.0000000e+00 
0.0000000e+00 -1.0164405e-09 0.0000000e+00 
0.0000000e+00 -2.3061557e-09 0.0000000e+00 
0.0000000e+00 -2.3271776e-09 0.0000000e+00 
0.0000000e+00 -1.9615474e-09 0.0000000e+00 
0.0000000e+00 -1.7654678e-09 0.0000000e+00 
0.0000000e+00 0.0000000e+00 0.0000000e+00 
0.0000000e+00 0.0000000e+00 0.0000000e+00 
0.0000000e+00 0.0000000e+00 0.0000000e+00 
0.0000000e+00 0.0000000e+00 0.0000000e+00 
0.0000000e+00 0.0000000e+00 0.0000000e+00 
0.0000000e+00 0.0000000e+00 0.0000000e+00 
0.0000000e+00 0.0000000e+00 0.0000000e+00 
0.0000000e+00 0.0000000e+00 0.0000000e+00 
0.0000000e+00 0.0000000e+00 0.0000000e+00 
0.0000000e+00 0.0000000e+00 0.0000000e+00 
0.0000000e+00 0.0000000e+00 0.0000000e+00 
0.0000000e+00 0.0000000e+00 0.0000000e+00 
0.0000000e+00 0.0000000e+00 0.0000000e+00 
0.0000000e+00 0.0000000e+00 0.0000000e+00 
0.0000000e+00 0.0000000e+00 0.0000000e+00 
0.0000000e+00 0.0000000e+00 0.0000000e+00 
0.0000000e+00 0.0000000e+00 0.0000000e+00 
0.0000000e+00 0.0000000e+00 0.0000000e+00 
0.0000000e+00 0.0000000e+00 0.0000000e+00 
0.0000000e+00 0.0000000e+00 0.0000000e+00 
0.0000000e+00 0.0000000e+00 0.0000000e+00 
0.0000000e+00 0.0000000e+00 0.0000000e+00 
0.0000000e+00 0.0000000e+00 0.0000000e+00 
0.0000000e+00 -1.6757987e-06 0.0000000e+00 
0.0000000e+00 -2.8268594e-06 0.0000000e+00 
0.0000000e+00 -5.3737804e-05 0.0000000e+00 
0.0000000e+00 -2.8094568e-05 0.0000000e+00 
0.0000000e+00 0.0000000e+00 0.0000000e+00 
0.0000000e+00 0.0000000e+00 0.0000000e+00 
0.0000000e+00 0.0000000e+00 0.0000000e+00 
0.0000000e+00 0.0000000e+00 0.0000000e+00 
0.0000000e+00 0.0000000e+00 0.0000000e+00 
0.0000000e+00 0.0000000e+00 0.0000000e+00 
0.0000000e+00 0.0000000e+00 0.0000000e+00 
0.0000000e+00 0.0000000e+00 0.0000000e+00 
0.0000000e+00 0.0000000e+00 0.0000000e+00 
0.0000000e+00 0.0000000e+00 0.0000000e+00 
0.0000000e+00 0.0000000e+00 0.0000000e+00 
0.0000000e+00 0.0000000e+00 0.0000000e+00 
0.0000000e+00 0.0000000e+00 0.0000000e+00 
0.0000000e+00 0.0000000e+00 0.0000000e+00 
0.0000000e+00 0.0000000e+00 0.0000000e+00 
0.0000000e+00 0.0000000e+00 0.0000000e+00 
0.0000000e+00 0.0000000e+00 0.0000000e+00 
0.0000000e+00 0.0000000e+00 0.0000000e+00 
0.0000000e+00 0.0000000e+00 0.0000000e+00 
0.0000000e+00 0.0000000e+00 0.0000000e+00 
0.0000000e+00 0.0000000e+00 0.0000000e+00 
0.0000000e+00 0.0000000e+00 0.0000000e+00 
0.0000000e+00 -2.9110713e-06 0.0000000e+00 
0.0000000e+00 -1.2884321e-06 0.0000000e+00 
0.0000000e+00 -1.7092324e-06 0.0000000e+00 
0.0000000e+00 -1.8504058e-07 0.0000000e+00 
0.0000000e+00 -8.0576768e-08 0.0000000e+00 
0.0000000e+00 4.0412439e-07 0.0000000e+00 
0.0000000e+00 2.0800967e-07 0.0000000e+00 
0.0000000e+00 1.6915637e-07 0.0000000e+00 
0.0000000e+00 9.9421875e-08 0.0000000e+00 
0.0000000e+00 3.7449691e-08 0.0000000e+00 
0.0000000e+00 7.2120798e-08 0.0000000e+00 
0.0000000e+00 -9.0576592e-05 0.0000000e+00 
0.0000000e+00 -1.0898884e-04 0.0000000e+00 
0.0000000e+00 -6.1888670e-05 0.0000000e+00 
0.0000000e+00 -2.2940259e-05 0.0000000e+00 
0.0000000e+00 -6.3194334e-06 0.0000000e+00 
0.0000000e+00 -1.3939110e-06 0.0000000e+00 
0.0000000e+00 -2.7545644e-07 0.0000000e+00 
0.0000000e+00 6.0388988e-10 0.0000000e+00 
0.0000000e+00 4.6809912e-08 0.0000000e+00 
0.0000000e+00 4.3761556e-08 0.0000000e+00 
0.0000000e+00 2.2337115e-08 0.0000000e+00 
0.0000000e+00 -5.5417522e-06 0.0000000e+00 
0.0000000e+00 -1.6957132e-05 0.0000000e+00 
0.0000000e+00 -4.0986266e-05 0.0000000e+00 
0.0000000e+00 8.5869793e-08 0.0000000e+00 
0.0000000e+00 8.6740904e-08 0.0000000e+00 
0.0000000e+00 8.5083791e-08 0.0000000e+00 
0.0000000e+00 -4.0318660e-06 0.0000000e+00 
0.0000000e+00 -1.6950220e-05 0.0000000e+00 
0.0000000e+00 -2.1890628e-05 0.0000000e+00 
0.0000000e+00 -4.8855632e-05 0.0000000e+00 
0.0000000e+00 -1.0159825e-05 0.0000000e+00 
0.0000000e+00 -8.6933551e-06 0.0000000e+00 
0.0000000e+00 -4.0571695e-06 0.0000000e+00 
0.0000000e+00 -4.0995688e-05 0.0000000e+00 
0.0000000e+00 -2.5081092e-05 0.0000000e+00 
0.0000000e+00 -1.1364194e-05 0.0000000e+00 
0.0000000e+00 -1.9994779e-06 0.0000000e+00 
0.0000000e+00 -4.2539336e-06 0.0000000e+00 
0.0000000e+00 -5.6031116e-05 0.0000000e+00 
0.0000000e+00 -1.9000869e-05 0.0000000e+00 
0.0000000e+00 0.0000000e+00 0.0000000e+00 
0.0000000e+00 0.0000000e+00 0.0000000e+00 
0.0000000e+00 0.0000000e+00 0.0000000e+00 
0.0000000e+00 0.0000000e+00 0.0000000e+00 
0.0000000e+00 0.0000000e+00 0.0000000e+00 
0.0000000e+00 0.0000000e+00 0.0000000e+00 
0.0000000e+00 0.0000000e+00 0.0000000e+00 
0.0000000e+00 0.0000000e+00 0.0000000e+00 
0.0000000e+00 0.0000000e+00 0.0000000e+00 
0.0000000e+00 0.0000000e+00 0.0000000e+00 
0.0000000e+00 0.0000000e+00 0.0000000e+00 
0.0000000e+00 0.0000000e+00 0.0000000e+00 
0.0000000e+00 0.0000000e+00 0.0000000e+00 
0.0000000e+00 0.0000000e+00 0.0000000e+00 
0.0000000e+00 0.0000000e+00 0.0000000e+00 
0.0000000e+00 0.0000000e+00 0.0000000e+00 
0.0000000e+00 0.0000000e+00 0.0000000e+00 
0.0000000e+00 0.0000000e+00 0.0000000e+00 
0.0000000e+00 0.0000000e+00 0.0000000e+00 
0.0000000e+00 0.0000000e+00 0.0000000e+00 
0.0000000e+00 0.0000000e+00 0.0000000e+00 
0.0000000e+00 0.0000000e+00 0.0000000e+00 
0.0000000e+00 0.0000000e+00 0.0000000e+00 
0.0000000e+00 0.0000000e+00 0.0000000e+00 
0.0000000e+00 0.0000000e+00 0.0000000e+00 
0.0000000e+00 0.0000000e+00 0.0000000e+00 
0.0000000e+00 0.0000000e+00 0.0000000e+00 
0.0000000e+00 0.0000000e+00 0.0000000e+00 
0.0000000e+00 0.0000000e+00 0.0000000e+00 
0.0000000e+00 0.0000000e+00 0.0000000e+00 
0.0000000e+00 0.0000000e+00 0.0000000e+00 
0.0000000e+00 0.0000000e+00 0.0000000e+00 
0.0000000e+00 0.0000000e+00 0.0000000e+00 
0.0000000e+00 0.0000000e+00 0.0000000e+00 
0.0000000e+00 0.0000000e+00 0.0000000e+00 
0.0000000e+00 0.0000000e+00 0.0000000e+00 
0.0000000e+00 0.0000000e+00 0.0000000e+00 
0.0000000e+00 0.0000000e+00 0.0000000e+00 
0.0000000e+00 0.0000000e+00 0.0000000e+00 
0.0000000e+00 0.0000000e+00 0.0000000e+00 
0.0000000e+00 0.0000000e+00 0.0000000e+00 
0.0000000e+00 0.0000000e+00 0.0000000e+00 
0.0000000e+00 0.0000000e+00 0.0000000e+00 
0.0000000e+00 0.0000000e+00 0.0000000e+00 
0.0000000e+00 0.0000000e+00 0.0000000e+00 
0.0000000e+00 0.0000000e+00 0.0000000e+00 
0.0000000e+00 0.0000000e+00 0.0000000e+00 
0.0000000e+00 0.0000000e+00 0.0000000e+00 
0.0000000e+00 0.0000000e+00 0.0000000e+00 
0.0000000e+00 -1.2795567e-06 0.0000000e+00 
0.0000000e+00 6.5653644e-08 0.0000000e+00 
0.0000000e+00 -1.7205167e-07 0.0000000e+00 
0.0000000e+00 4.1965203e-07 0.0000000e+00 
0.0000000e+00 1.9338130e-07 0.0000000e+00 
0.0000000e+00 -1.2447398e-06 0.0000000e+00 
0.0000000e+00 -1.7192102e-07 0.0000000e+00 
0.0000000e+00 6.9273959e-08 0.0000000e+00 
0.0000000e+00 -5.5057410e-07 0.0000000e+00 
0.0000000e+00 2.0298227e-08 0.0000000e+00 
0.0000000e+00 -1.2907655e-06 0.0000000e+00 
0.0000000e+00 4.6308145e-08 0.0000000e+00 
0.0000000e+00 2.6945557e-07 0.0000000e+00 
0.0000000e+00 7.0394336e-08 0.0000000e+00 
0.0000000e+00 -1.7840862e-06 0.0000000e+00 
0.0000000e+00 4.3949612e-08 0.0000000e+00 
0.0000000e+00 1.2040863e-07 0.0000000e+00 
0.0000000e+00 -1.7877697e-06 0.0000000e+00 
0.0000000e+00 1.9342865e-07 0.0000000e+00 
0.0000000e+00 1.6490291e-07 0.0000000e+00 
0.0000000e+00 -1.6456460e-06 0.0000000e+00 
0.0000000e+00 2.2407518e-07 0.0000000e+00 
0.0000000e+00 -1.2498769e-07 0.0000000e+00 
0.0000000e+00 -8.7462013e-07 0.0000000e+00 
0.0000000e+00 1.1956165e-07 0.0000000e+00 
0.0000000e+00 8.7733632e-08 0.0000000e+00 
0.0000000e+00 2.9267051e-08 0.0000000e+00 
0.0000000e+00 -1.9309230e-06 0.0000000e+00 
0.0000000e+00 -1.1066264e-06 0.0000000e+00 
0.0000000e+00 2.8968218e-08 0.0000000e+00 
0.0000000e+00 -5.0569775e-05 0.0000000e+00 
0.0000000e+00 -2.7364315e-05 0.0000000e+00 
0.0000000e+00 -4.6348559e-06 0.0000000e+00 
0.0000000e+00 -9.4125298e-08 0.0000000e+00 
0.0000000e+00 -3.3153763e-05 0.0000000e+00 
0.0000000e+00 -2.7634385e-06 0.0000000e+00 
0.0000000e+00 -8.7667807e-08 0.0000000e+00 
0.0000000e+00 -1.4498306e-05 0.0000000e+00 
0.0000000e+00 -7.1078321e-05 0.0000000e+00 
0.0000000e+00 -1.1157535e-05 0.0000000e+00 
0.0000000e+00 -6.6313191e-07 0.0000000e+00 
0.0000000e+00 -1.0567607e-06 0.0000000e+00 
0.0000000e+00 2.0066784e-08 0.0000000e+00 
0.0000000e+00 -9.2739960e-05 0.0000000e+00 
0.0000000e+00 -2.6075868e-05 0.0000000e+00 
0.0000000e+00 -7.1397719e-09 0.0000000e+00 
0.0000000e+00 -4.7631997e-06 0.0000000e+00 
0.0000000e+00 -2.5516138e-07 0.0000000e+00 
0.0000000e+00 -1.6185881e-05 0.0000000e+00 
0.0000000e+00 -3.6023961e-05 0.0000000e+00 
0.0000000e+00 -2.1898890e-07 0.0000000e+00 
0.0000000e+00 -1.3042765e-06 0.0000000e+00 
0.0000000e+00 -1.7289182e-08 0.0000000e+00 
0.0000000e+00 -5.6399458e-05 0.0000000e+00 
0.0000000e+00 1.0931628e-08 0.0000000e+00 
0.0000000e+00 -6.7986533e-05 0.0000000e+00 
0.0000000e+00 -2.3620854e-05 0.0000000e+00 
0.0000000e+00 4.5073488e-08 0.0000000e+00 
0.0000000e+00 2.0090129e-08 0.0000000e+00 
0.0000000e+00 5.9941350e-08 0.0000000e+00 
0.0000000e+00 8.6955460e-08 0.0000000e+00 
0.0000000e+00 7.5695034e-08 0.0000000e+00 
0.0000000e+00 2.4588390e-08 0.0000000e+00 
0.0000000e+00 8.6802252e-08 0.0000000e+00 
0.0000000e+00 2.6747458e-08 0.0000000e+00 
0.0000000e+00 4.4898851e-08 0.0000000e+00 
0.0000000e+00 5.8173960e-08 0.0000000e+00 
0.0000000e+00 6.2937289e-08 0.0000000e+00 
0.0000000e+00 2.5038020e-08 0.0000000e+00 
0.0000000e+00 8.1485602e-08 0.0000000e+00 
0.0000000e+00 5.6614567e-08 0.0000000e+00 
0.0000000e+00 1.6679094e-08 0.0000000e+00 
-1.7504601e-06 -6.5315830e-06 -5.8070636e-06 
-4.1487908e-07 -6.3415820e-07 -1.4595648e-06 
-6.3817552e-08 8.6789250e-08 -2.3036807e-07 
-1.9231575e-05 -9.4089322e-05 -9.4374127e-06 
-6.3840093e-06 -4.8238817e-05 -1.0993744e-05 
-6.7026343e-07 1.1834269e-07 -6.5566979e-07 
-2.5751149e-06 -2.6969362e-06 -1.1632650e-06 
-1.0215197e-07 2.0992357e-07 -1.0164590e-07 
-8.0124300e-06 -1.1348751e-04 3.0084977e-06 
-2.4928470e-08 9.7635173e-08 -5.0849454e-08 
-7.7551331e-06 -1.1047170e-05 4.9730165e-08 
-1.5506394e-08 1.0588402e-07 -1.6621193e-08 
-1.6557527e-07 2.8938280e-07 -1.9060670e-07 
-2.5603802e-07 2.5583023e-07 -4.5287322e-07 
-8.6931202e-08 1.5590712e-07 -1.7809771e-07 
-1.5149891e-07 1.8725298e-07 -2.5819168e-07 
-3.5484760e-07 -2.9534696e-08 -6.2424124e-07 
-3.8074198e-08 1.4460483e-07 -9.0622976e-08 
-2.0063045e-07 1.1208490e-07 -5.2577514e-07 
-5.9551303e-07 -4.3720867e-08 -8.9921076e-07 
-1.2158122e-06 -7.3517720e-07 -1.3254232e-06 
-1.1209435e-06 -1.2348115e-06 -1.7742317e-06 
-2.3046694e-06 -3.0025187e-06 -3.1964594e-06 
-2.7472356e-06 -2.1719782e-06 -2.5513773e-06 
-4.1835201e-06 -7.0711772e-06 -5.0468043e-06 
-3.6511412e-06 -4.8387392e-06 -2.7146871e-06 
-7.8506264e-06 -1.5595317e-05 -6.3907487e-06 
-7.4539907e-06 -1.2302280e-05 -4.1527742e-06 
-9.5531732e-06 -2.3734434e-05 -6.3038788e-06 
-9.0028961e-06 -1.4586224e-05 -3.2065464e-06 
-1.5769661e-05 -3.4939105e-05 -3.4780815e-06 
-1.1381197e-06 -1.8411733e-06 -2.5483646e-06 
-7.3087563e-07 -8.7469067e-07 -1.6030752e-06 
-7.2727762e-06 -1.7085336e-05 -9.0915019e-06 
-2.2179624e-06 -1.6104707e-06 -1.2897673e-06 
-1.9403497e-08 1.0829221e-07 -3.4499273e-08 
-3.2042906e-06 -7.4590912e-06 -5.2701016e-06 
-1.1194174e-06 -3.1093202e-07 -1.0562553e-06 
-9.8754335e-06 -2.8836184e-05 4.7552169e-07 
-2.1684814e-08 1.4228094e-07 -8.9186898e-09 
-7.2715935e-08 9.6722736e-08 -2.1158777e-07 
-6.2244439e-08 1.0871823e-07 -1.3108135e-07 
-8.3384811e-07 -1.1971866e-06 -2.4358612e-06 
-3.3871704e-06 -3.5299693e-06 -2.8941514e-07 
-9.1356678e-06 -7.6006269e-05 -1.2247813e-05 
-8.5279225e-06 -3.6618902e-05 -9.7645634e-06 
-5.5210230e-06 -2.5244175e-05 -1.1754354e-05 
-2.9849919e-06 -1.2353531e-05 -7.4349232e-06 
-2.4433146e-07 -7.5144122e-08 -7.7933515e-07 
-1.1165417e-07 4.8147299e-08 -3.4935192e-07 
-9.4314546e-06 -7.6755437e-05 4.0779577e-07 
-1.8785666e-05 -1.0737355e-04 -1.6738638e-06 
-1.5038072e-08 8.9953659e-08 -2.2098188e-08 
-1.0429802e-05 -1.6621350e-05 -1.5702992e-07 
-1.6697732e-05 -4.8182013e-05 -9.1268421e-06 
-4.4203645e-08 8.2071914e-08 -1.2190915e-07 
-3.6203292e-07 -1.6544347e-07 -8.0937963e-07 
-2.0050315e-05 -5.7466306e-05 -2.7561356e-07 
-1.1311238e-06 -3.2443479e-06 -4.0976538e-06 
-3.2628389e-08 1.4902460e-07 -7.3493446e-08 
-7.0073822e-09 1.0238425e-07 -4.2134194e-09 
-2.9145535e-06 -4.2323218e-06 7.9795207e-08 
-2.5324753e-06 -2.2251716e-06 -2.0590796e-06 
-1.9679179e-05 -6.7321693e-05 -4.3945020e-06 
-2.5428253e-08 1.0980213e-07 -4.2683681e-08 
-5.3369780e-07 -2.7963631e-07 -9.3825122e-07 
-6.1037426e-06 -7.0436577e-06 -1.5406468e-06 
-4.6968876e-06 -5.1431839e-06 -2.4069609e-06 
-8.4776739e-06 -5.9076014e-05 -2.1923134e-07 
-1.9125034e-06 -4.7449166e-06 -4.2720826e-06 
-1.4516347e-08 9.8991549e-08 -1.7082909e-08 
-1.1430664e-05 -1.3960325e-04 -4.0158534e-06 
-1.3643164e-05 -1.5343491e-04 -2.4544595e-06 
-4.5474321e-06 -9.0246453e-05 -1.0106669e-05 
-3.8844451e-06 -6.2180690e-05 -9.1559778e-06 
-9.2538330e-06 -1.3492713e-04 7.4570636e-07 
-1.5688648e-06 -3.3194268e-05 -5.7189659e-06 
-2.7258343e-07 -1.6351729e-05 -4.2747547e-06 
-3.2251765e-07 -7.5395587e-06 -2.6888004e-06 
1.6893065e-07 -3.5921457e-06 -1.7949502e-06 
-1.5589420e-07 -1.5410999e-06 -1.3322008e-06 
-6.2514424e-08 -8.2141020e-07 -9.9465956e-07 
-8.6286406e-08 -3.4617725e-07 -6.6439907e-07 
-3.4037274e-08 -6.4290091e-08 -3.5367819e-07 
-3.2944371e-08 2.0461060e-08 -1.8992728e-07 
-2.1668718e-08 4.4375561e-08 -1.0499711e-07 
-1.2441429e-08 5.0046559e-08 -5.2142731e-08 
-1.0042927e-08 6.1444808e-08 -1.9087953e-08 
4.7256316e-07 -8.4146610e-05 5.0930621e-06 
1.0170392e-05 -4.7804908e-05 3.0408000e-06 
5.0157523e-06 -1.7458458e-05 6.7962392e-06 
5.7353571e-07 -1.8528871e-06 1.9089573e-06 
5.1063090e-08 3.0709725e-08 3.8546045e-07 
2.4872204e-09 7.3996823e-08 7.7696647e-08 
5.0639974e-06 -7.5760736e-06 2.4284170e-06 
1.6519965e-06 -1.8885477e-06 1.7016288e-06 
2.0861000e-07 -6.3963050e-08 5.9753091e-07 
8.7579497e-07 -8.9849782e-06 3.8161861e-06 
4.8394850e-06 -6.2375890e-05 7.6541564e-06 
7.6282581e-06 -8.1327962e-05 -5.6889239e-06 
5.8243501e-08 9.8614343e-08 1.4776492e-07 
7.6602328e-06 -1.8587214e-05 5.8697882e-08 
8.5621828e-08 -5.0674419e-07 4.4334166e-07 
-1.5226366e-08 7.0278702e-08 5.7389478e-08 
4.5572614e-07 -2.7010588e-05 5.0822105e-06 
9.7760540e-07 -4.9231667e-06 1.6799539e-06 
6.6419843e-06 -2.5067962e-05 3.2126195e-06 
8.6823889e-08 -2.8570576e-06 3.8121632e-07 
1.8619658e-06 -4.3129039e-06 3.7024590e-06 
8.3264958e-06 -1.0246869e-04 2.0674559e-06 
5.3830473e-07 -1.1769474e-07 6.8498525e-07 
-4.9196762e-09 7.3521178e-08 7.5354452e-09 
3.6126589e-06 -3.9006459e-06 2.8245492e-07 
1.3776376e-08 9.9967920e-08 2.7808440e-08 
4.8980710e-06 -2.5183548e-05 6.1848991e-06 
1.2873603e-06 -1.4595370e-06 1.9219365e-06 
8.4227067e-06 -1.4281761e-05 2.6538544e-06 
4.8225616e-06 -8.1074568e-06 3.8763869e-06 
1.7899905e-06 -7.6497590e-06 8.0970983e-07 
4.8825246e-08 2.0714575e-07 9.1198999e-08 
-4.2544865e-09 2.6047617e-08 1.3045080e-07 
-2.4997634e-08 -5.9667773e-09 1.5375983e-08 
4.8459405e-08 -1.0073780e-06 2.6158989e-07 
1.2079247e-08 5.2534254e-08 5.4796196e-08 
1.5267327e-08 1.3727717e-07 9.6902696e-08 
8.0619711e-06 -1.9244262e-05 4.8934714e-07 
1.4007661e-06 -1.9065442e-06 6.1617743e-07 
5.1097277e-06 -3.7495080e-05 2.5060194e-07 
4.4339643e-08 -4.5490697e-07 7.8864400e-07 
2.0144516e-06 -9.5795649e-06 4.1647113e-06 
-5.1542646e-09 9.2752586e-08 1.5687391e-08 
-9.2355430e-09 7.9472393e-09 1.5998830e-07 
5.3550923e-07 -1.6095753e-05 1.4035400e-06 
7.2262555e-06 -4.4717402e-05 -5.6884460e-07 
1.1197296e-07 -7.8092648e-07 2.6169010e-07 
2.3326429e-06 -2.2113011e-06 9.0731044e-07 
2.3405999e-08 5.6455157e-08 1.8248289e-07 
3.0416250e-06 -1.5803742e-05 4.4557794e-07 
4.6164249e-07 -2.7121821e-06 2.2082716e-06 
1.3531042e-06 -3.4358657e-06 1.0376172e-07 
6.6404908e-08 7.8396418e-08 1.1058398e-07 
-1.5198536e-08 1.1457683e-07 -1.1503905e-10 
-6.1049292e-08 -3.1468977e-07 -6.2498010e-08 
1.8054296e-08 -1.3709661e-06 8.8461297e-07 
2.8986156e-07 -3.0693468e-07 9.4888753e-07 
5.1829763e-10 3.3870240e-08 4.2929148e-08 
1.8779015e-06 -6.4541150e-06 -7.6869831e-08 
9.5400736e-08 -4.0709119e-07 2.5121960e-08 
1.0297468e-06 -7.1752913e-07 6.8160620e-07 
4.7333316e-08 1.6412173e-07 9.3405454e-08 
1.9202470e-07 1.0552017e-07 2.8380862e-07 
4.6850987e-06 -4.7090205e-05 7.0303179e-07 
-2.0316165e-08 9.5065246e-08 -3.2527684e-08 