# vtk DataFile Version 4.0
vtk output
ASCII
DATASET UNSTRUCTURED_GRID
POINTS 460 float
0.0000000e+00 0.0000000e+00 0.0000000e+00 
5.0000000e+00 0.0000000e+00 0.0000000e+00 
5.0000000e+00 3.0000000e+00 0.0000000e+00 
0.0000000e+00 3.0000000e+00 0.0000000e+00 
0.0000000e+00 0.0000000e+00 1.0000000e+01 
5.0000000e+00 0.0000000e+00 1.0000000e+01 
5.0000000e+00 3.0000000e+00 1.0000000e+01 
0.0000000e+00 3.0000000e+00 1.0000000e+01 
1.0000000e+00 3.0000000e+00 -5.0000000e+00 
1.0000000e+00 3.0000000e+00 -4.5000000e+00 
1.0000000e+00 3.0000000e+00 -4.0000000e+00 
1.0000000e+00 3.0000000e+00 -3.5000000e+00 
1.0000000e+00 3.0000000e+00 -3.0000000e+00 
1.0000000e+00 3.0000000e+00 -2.5000000e+00 
1.0000000e+00 3.0000000e+00 -2.0000000e+00 
1.0000000e+00 3.0000000e+00 -1.5000000e+00 
1.0000000e+00 3.0000000e+00 -1.0000000e+00 
1.0000000e+00 3.0000000e+00 -5.0000000e-01 
1.0000000e+00 3.0000000e+00 0.0000000e+00 
1.0000000e+00 3.0000000e+00 5.0000000e-01 
1.0000000e+00 3.0000000e+00 1.0000000e+00 
1.0000000e+00 3.0000000e+00 1.5000000e+00 
1.0000000e+00 3.0000000e+00 2.0000000e+00 
1.0000000e+00 3.0000000e+00 2.5000000e+00 
1.0000000e+00 3.0000000e+00 3.0000000e+00 
1.0000000e+00 3.0000000e+00 3.5000000e+00 
1.0000000e+00 3.0000000e+00 4.0000000e+00 
1.0000000e+00 3.0000000e+00 4.5000000e+00 
1.0000000e+00 3.0000000e+00 5.0000000e+00 
1.0000000e+00 3.0000000e+00 5.5000000e+00 
1.0000000e+00 3.0000000e+00 6.0000000e+00 
1.0000000e+00 3.0000000e+00 6.5000000e+00 
1.0000000e+00 3.0000000e+00 7.0000000e+00 
1.0000000e+00 3.0000000e+00 7.5000000e+00 
1.0000000e+00 3.0000000e+00 8.0000000e+00 
1.0000000e+00 3.0000000e+00 8.5000000e+00 
1.0000000e+00 3.0000000e+00 9.0000000e+00 
1.0000000e+00 3.0000000e+00 9.5000000e+00 
1.0000000e+00 3.0000000e+00 1.0000000e+01 
1.0000000e+00 3.0000000e+00 1.0500000e+01 
1.0000000e+00 3.0000000e+00 1.1000000e+01 
1.0000000e+00 3.0000000e+00 1.1500000e+01 
1.0000000e+00 3.0000000e+00 1.2000000e+01 
1.0000000e+00 3.0000000e+00 1.2500000e+01 
1.0000000e+00 3.0000000e+00 1.3000000e+01 
1.0000000e+00 3.0000000e+00 1.3500000e+01 
1.0000000e+00 3.0000000e+00 1.4000000e+01 
1.0000000e+00 3.0000000e+00 1.4500000e+01 
1.0000000e+00 3.0250001e+00 -5.0000000e+00 
1.0000000e+00 3.0250001e+00 -4.5000000e+00 
1.0000000e+00 3.0250001e+00 -4.0000000e+00 
1.0000000e+00 3.0250001e+00 -3.5000000e+00 
1.0000000e+00 3.0250001e+00 -3.0000000e+00 
1.0000000e+00 3.0250001e+00 -2.5000000e+00 
1.0000000e+00 3.0250001e+00 -2.0000000e+00 
1.0000000e+00 3.0250001e+00 -1.5000000e+00 
1.0000000e+00 3.0250001e+00 -1.0000000e+00 
1.0000000e+00 3.0250001e+00 -5.0000000e-01 
1.0000000e+00 3.0250001e+00 0.0000000e+00 
1.0000000e+00 3.0250001e+00 5.0000000e-01 
1.0000000e+00 3.0250001e+00 1.0000000e+00 
1.0000000e+00 3.0250001e+00 1.5000000e+00 
1.0000000e+00 3.0250001e+00 2.0000000e+00 
1.0000000e+00 3.0250001e+00 2.5000000e+00 
1.0000000e+00 3.0250001e+00 3.0000000e+00 
1.0000000e+00 3.0250001e+00 3.5000000e+00 
1.0000000e+00 3.0250001e+00 4.0000000e+00 
1.0000000e+00 3.0250001e+00 4.5000000e+00 
1.0000000e+00 3.0250001e+00 5.0000000e+00 
1.0000000e+00 3.0250001e+00 5.5000000e+00 
1.0000000e+00 3.0250001e+00 6.0000000e+00 
1.0000000e+00 3.0250001e+00 6.5000000e+00 
1.0000000e+00 3.0250001e+00 7.0000000e+00 
1.0000000e+00 3.0250001e+00 7.5000000e+00 
1.0000000e+00 3.0250001e+00 8.0000000e+00 
1.0000000e+00 3.0250001e+00 8.5000000e+00 
1.0000000e+00 3.0250001e+00 9.0000000e+00 
1.0000000e+00 3.0250001e+00 9.5000000e+00 
1.0000000e+00 3.0250001e+00 1.0000000e+01 
1.0000000e+00 3.0250001e+00 1.0500000e+01 
1.0000000e+00 3.0250001e+00 1.1000000e+01 
1.0000000e+00 3.0250001e+00 1.1500000e+01 
1.0000000e+00 3.0250001e+00 1.2000000e+01 
1.0000000e+00 3.0250001e+00 1.2500000e+01 
1.0000000e+00 3.0250001e+00 1.3000000e+01 
1.0000000e+00 3.0250001e+00 1.3500000e+01 
1.0000000e+00 3.0250001e+00 1.4000000e+01 
1.0000000e+00 3.0250001e+00 1.4500000e+01 
1.0000000e+00 -2.0000000e+00 -5.0000000e+00 
1.0000000e+00 -2.0000000e+00 -4.5000000e+00 
1.0000000e+00 -2.0000000e+00 -4.0000000e+00 
1.0000000e+00 -2.0000000e+00 -3.5000000e+00 
1.0000000e+00 -2.0000000e+00 -3.0000000e+00 
1.0000000e+00 -2.0000000e+00 -2.5000000e+00 
1.0000000e+00 -2.0000000e+00 -2.0000000e+00 
1.0000000e+00 -2.0000000e+00 -1.5000000e+00 
1.0000000e+00 -2.0000000e+00 -1.0000000e+00 
1.0000000e+00 -2.0000000e+00 -5.0000000e-01 
1.0000000e+00 -2.0000000e+00 1.0500000e+01 
1.0000000e+00 -2.0000000e+00 1.1000000e+01 
1.0000000e+00 -2.0000000e+00 1.1500000e+01 
1.0000000e+00 -2.0000000e+00 1.2000000e+01 
1.0000000e+00 -2.0000000e+00 1.2500000e+01 
1.0000000e+00 -2.0000000e+00 1.3000000e+01 
1.0000000e+00 -2.0000000e+00 1.3500000e+01 
1.0000000e+00 -2.0000000e+00 1.4000000e+01 
1.0000000e+00 -2.0000000e+00 1.4500000e+01 
1.0000000e+00 0.0000000e+00 0.0000000e+00 
2.0000000e+00 0.0000000e+00 0.0000000e+00 
3.0000000e+00 0.0000000e+00 0.0000000e+00 
4.0000000e+00 0.0000000e+00 0.0000000e+00 
5.0000000e+00 1.0000000e+00 0.0000000e+00 
5.0000000e+00 2.0000000e+00 0.0000000e+00 
0.0000000e+00 2.0000000e+00 0.0000000e+00 
0.0000000e+00 1.0000000e+00 0.0000000e+00 
0.0000000e+00 0.0000000e+00 1.0000000e+00 
0.0000000e+00 0.0000000e+00 2.0000000e+00 
0.0000000e+00 0.0000000e+00 3.0000000e+00 
0.0000000e+00 0.0000000e+00 4.0000000e+00 
0.0000000e+00 0.0000000e+00 5.0000000e+00 
0.0000000e+00 0.0000000e+00 6.0000000e+00 
0.0000000e+00 0.0000000e+00 7.0000000e+00 
0.0000000e+00 0.0000000e+00 8.0000000e+00 
0.0000000e+00 0.0000000e+00 9.0000000e+00 
5.0000000e+00 0.0000000e+00 1.0000000e+00 
5.0000000e+00 0.0000000e+00 2.0000000e+00 
5.0000000e+00 0.0000000e+00 3.0000000e+00 
5.0000000e+00 0.0000000e+00 4.0000000e+00 
5.0000000e+00 0.0000000e+00 5.0000000e+00 
5.0000000e+00 0.0000000e+00 6.0000000e+00 
5.0000000e+00 0.0000000e+00 7.0000000e+00 
5.0000000e+00 0.0000000e+00 8.0000000e+00 
5.0000000e+00 0.0000000e+00 9.0000000e+00 
1.0000000e+00 0.0000000e+00 1.0000000e+01 
2.0000000e+00 0.0000000e+00 1.0000000e+01 
3.0000000e+00 0.0000000e+00 1.0000000e+01 
4.0000000e+00 0.0000000e+00 1.0000000e+01 
5.0000000e+00 3.0000000e+00 1.0000000e+00 
5.0000000e+00 3.0000000e+00 2.0000000e+00 
5.0000000e+00 3.0000000e+00 3.0000000e+00 
5.0000000e+00 3.0000000e+00 4.0000000e+00 
5.0000000e+00 3.0000000e+00 5.0000000e+00 
5.0000000e+00 3.0000000e+00 6.0000000e+00 
5.0000000e+00 3.0000000e+00 7.0000000e+00 
5.0000000e+00 3.0000000e+00 8.0000000e+00 
5.0000000e+00 3.0000000e+00 9.0000000e+00 
5.0000000e+00 1.0000000e+00 1.0000000e+01 
5.0000000e+00 2.0000000e+00 1.0000000e+01 
0.0000000e+00 3.0000000e+00 1.0000000e+00 
0.0000000e+00 3.0000000e+00 2.0000000e+00 
0.0000000e+00 3.0000000e+00 3.0000000e+00 
0.0000000e+00 3.0000000e+00 4.0000000e+00 
0.0000000e+00 3.0000000e+00 5.0000000e+00 
0.0000000e+00 3.0000000e+00 6.0000000e+00 
0.0000000e+00 3.0000000e+00 7.0000000e+00 
0.0000000e+00 3.0000000e+00 8.0000000e+00 
0.0000000e+00 3.0000000e+00 9.0000000e+00 
0.0000000e+00 2.0000000e+00 1.0000000e+01 
0.0000000e+00 1.0000000e+00 1.0000000e+01 
4.0000000e+00 3.0000000e+00 0.0000000e+00 
3.0000000e+00 3.0000000e+00 0.0000000e+00 
2.0000000e+00 3.0000000e+00 0.0000000e+00 
4.0000000e+00 3.0000000e+00 1.0000000e+01 
3.0000000e+00 3.0000000e+00 1.0000000e+01 
2.0000000e+00 3.0000000e+00 1.0000000e+01 
4.0618000e+00 1.5000000e+00 0.0000000e+00 
1.5046000e+00 7.6549745e-01 0.0000000e+00 
2.5000000e+00 2.1339746e+00 0.0000000e+00 
1.5046000e+00 2.2345026e+00 0.0000000e+00 
2.4957771e+00 8.1560516e-01 0.0000000e+00 
3.4707544e+00 2.2336540e+00 0.0000000e+00 
3.4700506e+00 7.5794268e-01 0.0000000e+00 
8.6322361e-01 1.5000000e+00 0.0000000e+00 
2.0000000e+00 1.5000000e+00 0.0000000e+00 
2.9960666e+00 1.4974480e+00 0.0000000e+00 
4.2679491e+00 7.3205084e-01 0.0000000e+00 
4.2679491e+00 2.2679491e+00 0.0000000e+00 
7.2695929e-01 2.2730408e+00 0.0000000e+00 
7.2695929e-01 7.2695929e-01 0.0000000e+00 
4.1822505e+00 0.0000000e+00 2.5515697e+00 
4.2017918e+00 0.0000000e+00 4.4725966e+00 
4.1114569e+00 0.0000000e+00 6.5092020e+00 
8.6602539e-01 0.0000000e+00 3.5000000e+00 
8.4778279e-01 0.0000000e+00 5.4684029e+00 
8.9629614e-01 0.0000000e+00 7.5867257e+00 
2.5566745e+00 0.0000000e+00 8.1853306e-01 
2.4918270e+00 0.0000000e+00 9.1386929e+00 
8.4677207e-01 0.0000000e+00 1.5042374e+00 
4.0943027e+00 0.0000000e+00 8.4081745e+00 
8.6281651e-01 0.0000000e+00 2.5007062e+00 
1.7315160e+00 0.0000000e+00 3.0001178e+00 
1.7319617e+00 0.0000000e+00 4.0000196e+00 
2.5980761e+00 0.0000000e+00 3.5000000e+00 
2.5536871e+00 0.0000000e+00 4.4963923e+00 
2.5928419e+00 0.0000000e+00 2.4239938e+00 
1.5037409e+00 0.0000000e+00 9.1535149e+00 
1.8433737e+00 0.0000000e+00 8.1858873e+00 
3.0000000e+00 0.0000000e+00 8.2679491e+00 
2.5000000e+00 0.0000000e+00 7.4019237e+00 
3.5042722e+00 0.0000000e+00 7.4271150e+00 
3.0310018e+00 0.0000000e+00 6.5282087e+00 
2.0373929e+00 0.0000000e+00 6.5307913e+00 
3.4767809e+00 0.0000000e+00 5.8031492e+00 
2.5452602e+00 0.0000000e+00 5.5720768e+00 
1.6456656e+00 0.0000000e+00 1.9697139e+00 
8.6297011e-01 0.0000000e+00 4.4947371e+00 
1.0111579e+00 0.0000000e+00 6.5282545e+00 
3.4994321e+00 0.0000000e+00 8.4691072e-01 
4.1860156e+00 0.0000000e+00 3.5040276e+00 
1.7320508e+00 0.0000000e+00 5.0000000e+00 
4.0544066e+00 0.0000000e+00 1.5781221e+00 
1.5817389e+00 0.0000000e+00 9.3943578e-01 
8.3166349e-01 0.0000000e+00 8.5090933e+00 
3.4686174e+00 0.0000000e+00 9.1752682e+00 
3.0709300e+00 0.0000000e+00 1.5799091e+00 
3.3927374e+00 0.0000000e+00 3.0399952e+00 
3.3826034e+00 0.0000000e+00 3.9747651e+00 
4.3420062e+00 0.0000000e+00 7.4688983e+00 
3.4023225e+00 0.0000000e+00 4.9314723e+00 
1.6740381e+00 0.0000000e+00 7.3014426e+00 
4.2715640e+00 0.0000000e+00 5.4758859e+00 
1.6225953e+00 0.0000000e+00 5.8104177e+00 
4.2679491e+00 0.0000000e+00 9.2679491e+00 
7.3205084e-01 0.0000000e+00 7.3205084e-01 
4.2679491e+00 0.0000000e+00 7.3205084e-01 
7.3205084e-01 0.0000000e+00 9.2679491e+00 
3.4586334e+00 0.0000000e+00 2.2347178e+00 
2.2895701e+00 0.0000000e+00 1.5463171e+00 
5.0000000e+00 2.2345026e+00 1.5046000e+00 
[...]
POINT_DATA 460
FIELD FieldData 2
DISPLACEMENT 3 460  float
0.0000000e+00 0.0000000e+00 0.0000000e+00 
0.0000000e+00 0.0000000e+00 0.0000000e+00 
0.0000000e+00 3.3899906e-07 0.0000000e+00 
0.0000000e+00 -1.1068540e-06 0.0000000e+00 
0.0000000e+00 0.0000000e+00 0.0000000e+00 
0.0000000e+00 0.0000000e+00 0.0000000e+00 
0.0000000e+00 4.4756922e-07 0.0000000e+00 
0.0000000e+00 -6.5156257e-07 0.0000000e+00 
0.0000000e+00 -5.1776482e-07 0.0000000e+00 
0.0000000e+00 -5.0979708e-07 0.0000000e+00 
0.0000000e+00 -4.8509162e-07 0.0000000e+00 
0.0000000e+00 -4.4414008e-07 0.0000000e+00 
0.0000000e+00 -3.8997945e-07 0.0000000e+00 
0.0000000e+00 -3.2865552e-07 0.0000000e+00 
0.0000000e+00 -2.6953524e-07 0.0000000e+00 
0.0000000e+00 -2.2494353e-07 0.0000000e+00 
0.0000000e+00 -2.0830878e-07 0.0000000e+00 
0.0000000e+00 -2.2980497e-07 0.0000000e+00 
0.0000000e+00 -2.9336687e-07 0.0000000e+00 
-3.0905852e-07 -4.0101006e-07 1.1017853e-06 
-8.1992238e-07 -7.2885678e-07 2.8842626e-06 
-1.1060858e-06 -1.8357764e-06 4.3449631e-06 
-2.0371997e-06 -5.3388117e-06 7.0082583e-06 
-3.3657034e-06 -1.5305559e-05 9.5559089e-06 
-3.8444600e-06 -3.8867540e-05 1.1543906e-05 
-5.5166865e-06 -8.5590473e-05 1.6493190e-05 
-6.5531608e-06 -1.6087542e-04 9.2377068e-06 
-1.8314249e-05 -2.4486828e-04 1.6165846e-05 
-1.2214784e-05 -2.5629764e-04 -3.5854644e-06 
-1.7321469e-06 -1.8060878e-04 -1.9747145e-05 
-5.7416773e-06 -1.0060598e-04 -1.0521274e-05 
-3.5318092e-06 -4.6947076e-05 -1.1958705e-05 
-3.6404881e-06 -1.8915083e-05 -1.1934721e-05 
-2.3297798e-06 -6.7089272e-06 -7.4191144e-06 
-1.6385040e-06 -2.2283621e-06 -5.0449630e-06 
-7.0675634e-07 -8.4792083e-07 -2.6641060e-06 
-3.7439335e-07 -4.4927529e-07 -1.6565054e-06 
-2.2921675e-07 -2.8971098e-07 -8.2999270e-07 
0.0000000e+00 -2.1166549e-07 0.0000000e+00 
0.0000000e+00 -1.3615011e-07 0.0000000e+00 
0.0000000e+00 -7.5545479e-08 0.0000000e+00 
0.0000000e+00 -3.2654569e-08 0.0000000e+00 
0.0000000e+00 -6.7732508e-09 0.0000000e+00 
0.0000000e+00 6.0736940e-09 0.0000000e+00 
0.0000000e+00 1.0544131e-08 0.0000000e+00 
0.0000000e+00 1.0687259e-08 0.0000000e+00 
0.0000000e+00 9.4861621e-09 0.0000000e+00 
0.0000000e+00 8.8323580e-09 0.0000000e+00 
0.0000000e+00 -5.1783451e-07 0.0000000e+00 
0.0000000e+00 -5.0990599e-07 0.0000000e+00 
0.0000000e+00 -4.8532934e-07 0.0000000e+00 
0.0000000e+00 -4.4444397e-07 0.0000000e+00 
0.0000000e+00 -3.9024104e-07 0.0000000e+00 
0.0000000e+00 -3.2884822e-07 0.0000000e+00 
0.0000000e+00 -2.6970707e-07 0.0000000e+00 
0.0000000e+00 -2.2517472e-07 0.0000000e+00 
0.0000000e+00 -2.0870509e-07 0.0000000e+00 
0.0000000e+00 -2.3048543e-07 0.0000000e+00 
0.0000000e+00 -2.8945607e-07 0.0000000e+00 
0.0000000e+00 -3.9392816e-07 0.0000000e+00 
0.0000000e+00 -7.0319265e-07 0.0000000e+00 
0.0000000e+00 -1.7635111e-06 0.0000000e+00 
0.0000000e+00 -5.2380583e-06 0.0000000e+00 
0.0000000e+00 -1.5180079e-05 0.0000000e+00 
0.0000000e+00 -3.8853894e-05 0.0000000e+00 
0.0000000e+00 -8.6134722e-05 0.0000000e+00 
0.0000000e+00 -1.6279779e-04 0.0000000e+00 
0.0000000e+00 -2.4807590e-04 0.0000000e+00 
0.0000000e+00 -2.6067978e-04 0.0000000e+00 
0.0000000e+00 -1.8319626e-04 0.0000000e+00 
0.0000000e+00 -1.0171346e-04 0.0000000e+00 
0.0000000e+00 -4.7256814e-05 0.0000000e+00 
0.0000000e+00 -1.8832443e-05 0.0000000e+00 
0.0000000e+00 -6.5740305e-06 0.0000000e+00 
0.0000000e+00 -2.1381115e-06 0.0000000e+00 
0.0000000e+00 -8.0005856e-07 0.0000000e+00 
0.0000000e+00 -4.2974582e-07 0.0000000e+00 
0.0000000e+00 -2.8814148e-07 0.0000000e+00 
0.0000000e+00 -2.0845206e-07 0.0000000e+00 
0.0000000e+00 -1.3669802e-07 0.0000000e+00 
0.0000000e+00 -7.5848384e-08 0.0000000e+00 
0.0000000e+00 -3.2784303e-08 0.0000000e+00 
0.0000000e+00 -6.7987598e-09 0.0000000e+00 
0.0000000e+00 6.0996257e-09 0.0000000e+00 
0.0000000e+00 1.0587645e-08 0.0000000e+00 
0.0000000e+00 1.0730944e-08 0.0000000e+00 
0.0000000e+00 9.5247250e-09 0.0000000e+00 
0.0000000e+00 8.8681853e-09 0.0000000e+00 
0.0000000e+00 0.0000000e+00 0.0000000e+00 
0.0000000e+00 0.0000000e+00 0.0000000e+00 
0.0000000e+00 0.0000000e+00 0.0000000e+00 
0.0000000e+00 0.0000000e+00 0.0000000e+00 
0.0000000e+00 0.0000000e+00 0.0000000e+00 
0.0000000e+00 0.0000000e+00 0.0000000e+00 
0.0000000e+00 0.0000000e+00 0.0000000e+00 
0.0000000e+00 0.0000000e+00 0.0000000e+00 
0.0000000e+00 0.0000000e+00 0.0000000e+00 
0.0000000e+00 0.0000000e+00 0.0000000e+00 
0.0000000e+00 0.0000000e+00 0.0000000e+00 
0.0000000e+00 0.0000000e+00 0.0000000e+00 
0.0000000e+00 0.0000000e+00 0.0000000e+00 
0.0000000e+00 0.0000000e+00 0.0000000e+00 
0.0000000e+00 0.0000000e+00 0.0000000e+00 
0.0000000e+00 0.0000000e+00 0.0000000e+00 
0.0000000e+00 0.0000000e+00 0.0000000e+00 
0.0000000e+00 0.0000000e+00 0.0000000e+00 
0.0000000e+00 0.0000000e+00 0.0000000e+00 
0.0000000e+00 0.0000000e+00 0.0000000e+00 
0.0000000e+00 0.0000000e+00 0.0000000e+00 
0.0000000e+00 0.0000000e+00 0.0000000e+00 
0.0000000e+00 0.0000000e+00 0.0000000e+00 
0.0000000e+00 1.1167423e-07 0.0000000e+00 
0.0000000e+00 2.8915494e-07 0.0000000e+00 
0.0000000e+00 -1.0472822e-06 0.0000000e+00 
0.0000000e+00 -7.3259253e-07 0.0000000e+00 
0.0000000e+00 0.0000000e+00 0.0000000e+00 
0.0000000e+00 0.0000000e+00 0.0000000e+00 
0.0000000e+00 0.0000000e+00 0.0000000e+00 
0.0000000e+00 0.0000000e+00 0.0000000e+00 
0.0000000e+00 0.0000000e+00 0.0000000e+00 
0.0000000e+00 0.0000000e+00 0.0000000e+00 
0.0000000e+00 0.0000000e+00 0.0000000e+00 
0.0000000e+00 0.0000000e+00 0.0000000e+00 
0.0000000e+00 0.0000000e+00 0.0000000e+00 
0.0000000e+00 0.0000000e+00 0.0000000e+00 
0.0000000e+00 0.0000000e+00 0.0000000e+00 
0.0000000e+00 0.0000000e+00 0.0000000e+00 
0.0000000e+00 0.0000000e+00 0.0000000e+00 
0.0000000e+00 0.0000000e+00 0.0000000e+00 
0.0000000e+00 0.0000000e+00 0.0000000e+00 
0.0000000e+00 0.0000000e+00 0.0000000e+00 
0.0000000e+00 0.0000000e+00 0.0000000e+00 
0.0000000e+00 0.0000000e+00 0.0000000e+00 
0.0000000e+00 0.0000000e+00 0.0000000e+00 
0.0000000e+00 0.0000000e+00 0.0000000e+00 
0.0000000e+00 0.0000000e+00 0.0000000e+00 
0.0000000e+00 0.0000000e+00 0.0000000e+00 
0.0000000e+00 1.9045780e-07 0.0000000e+00 
0.0000000e+00 1.1615326e-07 0.0000000e+00 
0.0000000e+00 -8.3305270e-07 0.0000000e+00 
0.0000000e+00 -8.9956188e-07 0.0000000e+00 
0.0000000e+00 -1.5704815e-06 0.0000000e+00 
0.0000000e+00 2.8559057e-07 0.0000000e+00 
0.0000000e+00 -2.9181410e-07 0.0000000e+00 
0.0000000e+00 4.3346847e-07 0.0000000e+00 
0.0000000e+00 3.7456772e-07 0.0000000e+00 
0.0000000e+00 1.3282995e-07 0.0000000e+00 
0.0000000e+00 3.6447221e-07 0.0000000e+00 
0.0000000e+00 -2.4731296e-06 0.0000000e+00 
0.0000000e+00 -9.9457120e-06 0.0000000e+00 
0.0000000e+00 -3.5723970e-05 0.0000000e+00 
0.0000000e+00 -8.1735321e-05 0.0000000e+00 
0.0000000e+00 -9.8988290e-05 0.0000000e+00 
0.0000000e+00 -5.8504036e-05 0.0000000e+00 
0.0000000e+00 -2.3208046e-05 0.0000000e+00 
0.0000000e+00 -6.3598554e-06 0.0000000e+00 
0.0000000e+00 -1.6475979e-06 0.0000000e+00 
0.0000000e+00 -6.3972772e-07 0.0000000e+00 
0.0000000e+00 -4.4601811e-07 0.0000000e+00 
0.0000000e+00 3.4737383e-07 0.0000000e+00 
0.0000000e+00 -5.5430068e-08 0.0000000e+00 
0.0000000e+00 -4.3278422e-07 0.0000000e+00 
0.0000000e+00 3.3031614e-07 0.0000000e+00 
0.0000000e+00 5.8147062e-08 0.0000000e+00 
0.0000000e+00 -7.2165086e-08 0.0000000e+00 
0.0000000e+00 2.8381274e-07 0.0000000e+00 
0.0000000e+00 -3.8804473e-07 0.0000000e+00 
0.0000000e+00 2.8623751e-07 0.0000000e+00 
0.0000000e+00 7.0357430e-08 0.0000000e+00 
0.0000000e+00 -6.6298774e-08 0.0000000e+00 
0.0000000e+00 4.4544927e-07 0.0000000e+00 
0.0000000e+00 -9.7027417e-08 0.0000000e+00 
0.0000000e+00 -3.4879574e-07 0.0000000e+00 
0.0000000e+00 1.2678680e-08 0.0000000e+00 
0.0000000e+00 1.6379887e-07 0.0000000e+00 
0.0000000e+00 8.9955982e-08 0.0000000e+00 
0.0000000e+00 4.0028030e-07 0.0000000e+00 
0.0000000e+00 -4.3796575e-07 0.0000000e+00 
0.0000000e+00 -3.3262518e-07 0.0000000e+00 
0.0000000e+00 0.0000000e+00 0.0000000e+00 
0.0000000e+00 0.0000000e+00 0.0000000e+00 
0.0000000e+00 0.0000000e+00 0.0000000e+00 
0.0000000e+00 0.0000000e+00 0.0000000e+00 
0.0000000e+00 0.0000000e+00 0.0000000e+00 
0.0000000e+00 0.0000000e+00 0.0000000e+00 
0.0000000e+00 0.0000000e+00 0.0000000e+00 
0.0000000e+00 0.0000000e+00 0.0000000e+00 
0.0000000e+00 0.0000000e+00 0.0000000e+00 
0.0000000e+00 0.0000000e+00 0.0000000e+00 
0.0000000e+00 0.0000000e+00 0.0000000e+00 
0.0000000e+00 0.0000000e+00 0.0000000e+00 
0.0000000e+00 0.0000000e+00 0.0000000e+00 
0.0000000e+00 0.0000000e+00 0.0000000e+00 
0.0000000e+00 0.0000000e+00 0.0000000e+00 
0.0000000e+00 0.0000000e+00 0.0000000e+00 
0.0000000e+00 0.0000000e+00 0.0000000e+00 
0.0000000e+00 0.0000000e+00 0.0000000e+00 
0.0000000e+00 0.0000000e+00 0.0000000e+00 
0.0000000e+00 0.0000000e+00 0.0000000e+00 
0.0000000e+00 0.0000000e+00 0.0000000e+00 
0.0000000e+00 0.0000000e+00 0.0000000e+00 
0.0000000e+00 0.0000000e+00 0.0000000e+00 
0.0000000e+00 0.0000000e+00 0.0000000e+00 
0.0000000e+00 0.0000000e+00 0.0000000e+00 
0.0000000e+00 0.0000000e+00 0.0000000e+00 
0.0000000e+00 0.0000000e+00 0.0000000e+00 
0.0000000e+00 0.0000000e+00 0.0000000e+00 
0.0000000e+00 0.0000000e+00 0.0000000e+00 
0.0000000e+00 0.0000000e+00 0.0000000e+00 
0.0000000e+00 0.0000000e+00 0.0000000e+00 
0.0000000e+00 0.0000000e+00 0.0000000e+00 
0.0000000e+00 0.0000000e+00 0.0000000e+00 
0.0000000e+00 0.0000000e+00 0.0000000e+00 
0.0000000e+00 0.0000000e+00 0.0000000e+00 
0.0000000e+00 0.0000000e+00 0.0000000e+00 
0.0000000e+00 0.0000000e+00 0.0000000e+00 
0.0000000e+00 0.0000000e+00 0.0000000e+00 
0.0000000e+00 0.0000000e+00 0.0000000e+00 
0.0000000e+00 0.0000000e+00 0.0000000e+00 
0.0000000e+00 0.0000000e+00 0.0000000e+00 
0.0000000e+00 0.0000000e+00 0.0000000e+00 
0.0000000e+00 0.0000000e+00 0.0000000e+00 
0.0000000e+00 0.0000000e+00 0.0000000e+00 
0.0000000e+00 0.0000000e+00 0.0000000e+00 
0.0000000e+00 0.0000000e+00 0.0000000e+00 
0.0000000e+00 0.0000000e+00 0.0000000e+00 
0.0000000e+00 0.0000000e+00 0.0000000e+00 
0.0000000e+00 0.0000000e+00 0.0000000e+00 
0.0000000e+00 1.9289348e-07 0.0000000e+00 
0.0000000e+00 2.2158541e-07 0.0000000e+00 
0.0000000e+00 -4.3932326e-07 0.0000000e+00 
0.0000000e+00 -9.0222500e-08 0.0000000e+00 
0.0000000e+00 3.9509797e-07 0.0000000e+00 
0.0000000e+00 -3.2840663e-07 0.0000000e+00 
0.0000000e+00 -7.9608026e-07 0.0000000e+00 
0.0000000e+00 -6.0857434e-07 0.0000000e+00 
0.0000000e+00 -7.0237405e-07 0.0000000e+00 
0.0000000e+00 -7.1279919e-07 0.0000000e+00 
0.0000000e+00 -5.3221115e-08 0.0000000e+00 
0.0000000e+00 -8.1341148e-07 0.0000000e+00 
0.0000000e+00 1.1720036e-07 0.0000000e+00 
0.0000000e+00 -1.8284510e-07 0.0000000e+00 
0.0000000e+00 -2.0072413e-07 0.0000000e+00 
0.0000000e+00 2.5219350e-08 0.0000000e+00 
0.0000000e+00 3.9940437e-07 0.0000000e+00 
0.0000000e+00 1.7391480e-07 0.0000000e+00 
0.0000000e+00 -7.3535790e-07 0.0000000e+00 
0.0000000e+00 -1.0931293e-07 0.0000000e+00 
0.0000000e+00 -1.4640418e-07 0.0000000e+00 
0.0000000e+00 -4.0012964e-07 0.0000000e+00 
0.0000000e+00 -6.7490515e-07 0.0000000e+00 
0.0000000e+00 -5.7833671e-07 0.0000000e+00 
0.0000000e+00 2.3124473e-07 0.0000000e+00 
0.0000000e+00 4.4445184e-07 0.0000000e+00 
0.0000000e+00 5.3701683e-08 0.0000000e+00 
0.0000000e+00 3.2297416e-07 0.0000000e+00 
0.0000000e+00 -5.5995417e-09 0.0000000e+00 
0.0000000e+00 -1.3217617e-06 0.0000000e+00 
0.0000000e+00 -2.1539729e-06 0.0000000e+00 
0.0000000e+00 -8.0026130e-06 0.0000000e+00 
0.0000000e+00 -2.5301319e-05 0.0000000e+00 
0.0000000e+00 -5.8915625e-06 0.0000000e+00 
0.0000000e+00 -4.9047623e-05 0.0000000e+00 
0.0000000e+00 -6.8239118e-05 0.0000000e+00 
0.0000000e+00 -1.2325503e-05 0.0000000e+00 
0.0000000e+00 -1.8432402e-05 0.0000000e+00 
0.0000000e+00 -1.8562954e-05 0.0000000e+00 
0.0000000e+00 -8.4697800e-05 0.0000000e+00 
0.0000000e+00 -3.5960995e-05 0.0000000e+00 
0.0000000e+00 -3.3072254e-05 0.0000000e+00 
0.0000000e+00 -3.4819645e-06 0.0000000e+00 
0.0000000e+00 -5.3336671e-06 0.0000000e+00 
0.0000000e+00 -3.0912101e-06 0.0000000e+00 
0.0000000e+00 -1.9478116e-06 0.0000000e+00 
0.0000000e+00 -5.1832933e-05 0.0000000e+00 
0.0000000e+00 -1.1401050e-05 0.0000000e+00 
0.0000000e+00 -4.4420656e-05 0.0000000e+00 
0.0000000e+00 -2.4269984e-05 0.0000000e+00 
0.0000000e+00 -1.5920436e-05 0.0000000e+00 
0.0000000e+00 -2.2062202e-05 0.0000000e+00 
0.0000000e+00 -5.0971425e-06 0.0000000e+00 
0.0000000e+00 -8.4549520e-06 0.0000000e+00 
0.0000000e+00 -7.4976788e-07 0.0000000e+00 
0.0000000e+00 -1.8473095e-06 0.0000000e+00 
0.0000000e+00 -1.2652957e-06 0.0000000e+00 
0.0000000e+00 -1.1619840e-06 0.0000000e+00 
0.0000000e+00 -2.8461560e-07 0.0000000e+00 
0.0000000e+00 2.3358999e-07 0.0000000e+00 
0.0000000e+00 2.1874280e-07 0.0000000e+00 
0.0000000e+00 1.5529902e-07 0.0000000e+00 
0.0000000e+00 -2.0274193e-07 0.0000000e+00 
0.0000000e+00 4.4193104e-07 0.0000000e+00 
0.0000000e+00 4.5460620e-08 0.0000000e+00 
0.0000000e+00 -2.0990058e-07 0.0000000e+00 
0.0000000e+00 -1.3100237e-08 0.0000000e+00 
0.0000000e+00 2.1621895e-07 0.0000000e+00 
0.0000000e+00 4.9177924e-08 0.0000000e+00 
0.0000000e+00 4.9631029e-07 0.0000000e+00 
0.0000000e+00 -2.0250795e-07 0.0000000e+00 
0.0000000e+00 -2.5716545e-07 0.0000000e+00 
-1.3800106e-05 -1.1020910e-04 -1.1271325e-06 
-8.6913997e-06 -4.6937352e-05 -1.1201313e-05 
-2.4077715e-06 -5.4490301e-06 -5.9826189e-06 
-3.3922852e-06 -1.2146255e-05 8.3056493e-06 
-6.0379712e-06 -4.5503686e-05 1.0785437e-05 
-3.5330352e-06 -1.5045908e-06 -2.5843065e-07 
-1.3304866e-06 -9.7991222e-07 6.8291882e-07 
-1.5272674e-06 -4.6742051e-07 -9.9237741e-07 
-1.0837692e-06 -1.8462024e-06 3.1883742e-06 
-6.1689963e-07 -1.3481927e-06 -2.2553345e-06 
-7.3174607e-07 -1.8331494e-07 9.4729080e-07 
-4.7074809e-07 2.0353298e-07 -5.9407967e-07 
-2.0234568e-06 -1.1336629e-06 -1.2284147e-06 
-3.7280456e-06 -3.3554229e-06 -2.9314449e-06 
-2.0638781e-06 -2.1001429e-06 -2.4160513e-06 
-3.0623569e-06 -5.5598121e-06 -2.5713709e-06 
-5.4126272e-06 -1.1292936e-05 -3.3293006e-06 
-1.4044618e-06 -2.0512186e-06 -1.8863801e-06 
-4.7734788e-06 -1.2615720e-05 -7.4038735e-06 
-6.3072325e-06 -6.7793740e-06 -2.7927936e-06 
-5.9036688e-06 -8.3829655e-06 -1.5279054e-06 
-9.5913383e-06 -1.8034700e-05 -2.7202962e-06 
-1.1873331e-05 -2.5731963e-05 -1.6309647e-06 
-6.7467745e-06 -1.0707892e-05 8.9039617e-07 
-1.0250387e-05 -2.3553130e-05 3.0662807e-06 
-4.7870394e-06 -7.0918377e-06 1.7450215e-06 
-7.2007879e-06 -1.6462513e-05 5.8754526e-06 
-4.2740330e-06 -7.4635595e-06 3.6106203e-06 
-5.3614121e-06 -9.8295232e-06 5.4854495e-06 
-3.2932244e-06 -3.9219453e-06 3.1051727e-06 
-2.4697922e-06 -3.8842918e-06 3.7880568e-06 
-1.4681529e-05 -4.9029688e-05 -7.3219385e-06 
-1.1987105e-05 -3.2771964e-05 -6.8073296e-06 
-1.2047190e-05 -3.9195231e-05 7.5903781e-06 
-2.4845519e-06 -2.2721433e-06 9.9418003e-07 
-6.3784273e-07 -1.4043404e-07 -9.3001836e-07 
-1.3854924e-05 -5.0715236e-05 2.3335083e-06 
-2.9875130e-06 -2.7808358e-06 -2.3435446e-07 
-9.0838626e-07 -4.8738497e-07 1.4297143e-06 
-6.4268590e-07 2.3070197e-07 -6.1183653e-07 
-2.2712074e-06 -6.1214109e-06 -5.0938033e-06 
-1.7811931e-06 -2.8743621e-06 -3.7938671e-06 
-8.1183471e-06 -7.7451135e-05 -6.9528533e-06 
-7.2520629e-07 -4.8337391e-08 5.8268114e-07 
-5.1257780e-06 -2.1425891e-05 9.9445397e-06 
-6.2036224e-06 -2.3325189e-05 8.1318749e-06 
-1.0188303e-05 -8.1952137e-05 1.3203617e-05 
-1.1569991e-05 -1.0641931e-04 3.5478029e-06 
-5.1392913e-06 -2.6138738e-05 -9.5574424e-06 
-3.3575695e-06 -1.1996232e-05 -6.9775097e-06 
-6.2683841e-07 -4.4860562e-07 1.7491528e-06 
-1.9060222e-06 -5.4861362e-06 4.9065397e-06 
-4.5467664e-07 -1.9816007e-07 -1.1687857e-06 
-1.5591471e-06 -1.2202707e-06 2.0241539e-06 
-5.0316198e-06 -1.2294062e-05 8.0074096e-06 
-1.2688524e-06 -3.1179836e-06 -3.9934271e-06 
-6.8859813e-06 -2.1324859e-05 -7.4023224e-06 
-1.7290827e-06 -3.1589800e-06 3.7544473e-06 
-1.1741170e-05 -1.1168436e-04 -5.8859159e-06 
-1.0518687e-06 -5.3519358e-07 -1.4119049e-06 
-2.7474678e-07 4.3170223e-07 -3.3321962e-07 
-3.3505339e-07 2.5381229e-07 3.5201867e-07 
-4.5721026e-06 -5.5012392e-06 1.3069317e-06 
-2.8332017e-06 -6.2930453e-06 5.8101714e-06 
-8.3756487e-07 -8.0740676e-07 -1.6960590e-06 
-7.4618856e-06 -1.7050352e-05 -4.3097839e-06 
-1.4498572e-06 -1.0435000e-06 1.4078892e-06 
-2.6403227e-06 -3.1506454e-06 1.6913058e-06 
-8.7961598e-07 -9.3538114e-07 2.0037121e-06 
-1.9573719e-05 -6.1524923e-05 -2.0516686e-06 
-4.6536596e-07 -1.2017755e-07 -7.9519492e-07 
-1.1191315e-06 -1.2845619e-05 6.6802700e-06 
-4.8930809e-07 -6.7268052e-06 5.0982135e-06 
-1.6154351e-06 -2.8780756e-05 9.4292654e-06 
-2.6400364e-06 -4.7761696e-05 8.9339455e-06 
-4.9831363e-07 -2.8882093e-06 3.2107869e-06 
-1.1931935e-06 -7.8437617e-05 6.1446303e-06 
-6.2964391e-06 -1.1199580e-04 7.4552322e-06 
-1.2458272e-06 -1.2648680e-04 1.9774352e-06 
-1.1921515e-05 -1.2523320e-04 -7.0496735e-06 
-8.6304053e-06 -9.4799667e-05 -9.4028956e-06 
-5.2805108e-06 -6.3837069e-05 -7.5460848e-06 
-2.8446586e-06 -3.4776316e-05 -9.4642455e-06 
-1.0944603e-06 -1.6746526e-05 -6.4783080e-06 
-7.6669284e-07 -7.6513543e-06 -4.5712450e-06 
-4.5419532e-07 -4.3603818e-06 -3.2671201e-06 
-2.0147529e-07 -2.1411868e-06 -2.0329162e-06 
-1.5850593e-07 -8.1155645e-07 -9.9375245e-07 
-2.3048268e-07 -1.3275404e-06 1.3957844e-06 
1.5001921e-06 -6.2759391e-06 -3.9675310e-06 
6.7716701e-06 -2.6072559e-05 -6.2085169e-06 
9.9039680e-06 -3.5503268e-05 4.4297499e-06 
3.1661859e-06 -1.1083812e-05 5.1348748e-06 
5.4023326e-07 -1.7940529e-06 1.7793711e-06 
2.6169428e-06 -3.4986945e-06 -2.3067703e-06 
4.7560388e-06 -6.0509824e-06 -1.0358923e-06 
4.4394910e-06 -8.0239151e-06 2.4951266e-06 
9.0378362e-06 -7.2719253e-05 -4.6462092e-06 
4.6408837e-07 -2.2363762e-05 -4.0548889e-06 
-1.7539797e-07 -2.2095014e-06 -6.6949445e-07 
1.6752446e-06 -1.8628248e-06 2.0552736e-06 
4.6261718e-07 -1.1283332e-06 -1.0729005e-06 
4.2153865e-06 -4.1080486e-05 7.8111734e-06 
2.6849989e-07 -6.3535731e-06 1.5781967e-06 
1.2621405e-07 -6.5834261e-05 -8.1500057e-06 
6.8766276e-06 -2.4826817e-05 -1.1617844e-06 
2.7863839e-06 -9.4186198e-06 -3.3786682e-06 
4.8338247e-06 -9.2606409e-05 5.5308196e-06 
8.8672477e-06 -2.1816610e-05 -1.4247954e-06 
-2.0836050e-07 -7.7551713e-06 -3.1391946e-07 
3.1907273e-06 -3.1305426e-06 5.3051576e-07 
-5.0663804e-08 -1.3612234e-06 2.1083144e-07 
8.4326939e-07 -4.0206615e-07 -9.4497790e-07 
4.2201029e-07 1.3433913e-07 4.7501214e-07 
3.2428077e-06 -1.1610918e-05 -5.6722361e-06 
7.5524149e-06 -1.0728188e-05 1.3839845e-06 
2.3115369e-06 -3.0740839e-06 -2.8990012e-06 
4.8582756e-06 -7.7301684e-06 -3.2609523e-06 
2.4759011e-06 -8.6920600e-06 -1.2411837e-06 
9.2565165e-07 -9.3843244e-07 3.4946882e-07 
2.1085816e-06 -1.2434858e-05 2.1125538e-06 
5.0134224e-07 -1.7400342e-05 1.6207748e-06 
4.5472379e-06 -2.3510458e-05 1.1696825e-06 
5.6449039e-07 -3.8708330e-07 1.0837555e-06 
9.4322058e-07 -4.2396755e-06 1.6025461e-06 
6.0425305e-07 -1.3731958e-06 -1.7175935e-06 
1.5658816e-06 -1.7898902e-06 -6.8857344e-07 
6.4516684e-08 -1.9784607e-06 -1.9775491e-06 
4.2333077e-06 -1.7775941e-05 5.7318007e-06 
4.0583063e-06 -3.2211796e-05 -3.8781436e-06 
-7.1878347e-08 -3.3821050e-07 2.3409407e-07 
8.6392578e-07 -4.6707751e-06 3.4954742e-06 
5.2044184e-06 -4.6223486e-05 -3.9520314e-06 
-1.1658273e-08 -2.3474247e-06 -6.5682832e-07 
2.5430281e-06 -9.6230760e-06 2.0868774e-07 
1.6686705e-06 -1.1353131e-06 -8.2561525e-07 
1.5581787e-06 -3.3341685e-06 2.6978410e-06 
4.9909011e-07 -2.7019878e-06 -7.3237061e-07 
5.3224703e-06 -2.5865498e-05 1.8646709e-06 
4.9276019e-07 -6.0926942e-07 -4.5346115e-07 
1.0201238e-06 -6.4002080e-07 9.2971476e-07 
-1.8667741e-07 -1.6499135e-06 -5.8937275e-07 
2.3366663e-06 -3.0635758e-05 1.5596464e-06 
3.5761495e-06 -4.6294103e-05 5.9845493e-06 
5.8394448e-06 -1.0106261e-05 3.7382049e-06 
1.7707417e-07 -7.7461937e-07 1.1008005e-06 
1.5150539e-07 4.2441137e-08 -2.5589424e-07 
3.9470464e-07 -2.7140875e-06 -3.0318734e-08 
2.2108516e-06 -1.7386315e-06 -1.7878877e-07 
9.3820927e-07 -3.1035395e-06 6.1529065e-08 
1.9962779e-06 -1.5626717e-06 9.7882150e-07 
-3.2149654e-07 -7.0633228e-06 -2.9695440e-07 