# vtk DataFile Version 4.0
vtk output
ASCII
DATASET UNSTRUCTURED_GRID
POINTS 460 float
0.0000000e+00 0.0000000e+00 0.0000000e+00 
5.0000000e+00 0.0000000e+00 0.0000000e+00 
5.0000000e+00 3.0000000e+00 0.0000000e+00 
0.0000000e+00 3.0000000e+00 0.0000000e+00 
0.0000000e+00 0.0000000e+00 1.0000000e+01 
5.0000000e+00 0.0000000e+00 1.0000000e+01 
5.0000000e+00 3.0000000e+00 1.0000000e+01 
0.0000000e+00 3.0000000e+00 1.0000000e+01 
1.0000000e+00 3.0000000e+00 -5.0000000e+00 
1.0000000e+00 3.0000000e+00 -4.5000000e+00 
1.0000000e+00 3.0000000e+00 -4.0000000e+00 
1.0000000e+00 3.0000000e+00 -3.5000000e+00 
1.0000000e+00 3.0000000e+00 -3.0000000e+00 
1.0000000e+00 3.0000000e+00 -2.5000000e+00 
1.0000000e+00 3.0000000e+00 -2.0000000e+00 
1.0000000e+00 3.0000000e+00 -1.5000000e+00 
1.0000000e+00 3.0000000e+00 -1.0000000e+00 
1.0000000e+00 3.0000000e+00 -5.0000000e-01 
1.0000000e+00 3.0000000e+00 0.0000000e+00 
1.0000000e+00 3.0000000e+00 5.0000000e-01 
1.0000000e+00 3.0000000e+00 1.0000000e+00 
1.0000000e+00 3.0000000e+00 1.5000000e+00 
1.0000000e+00 3.0000000e+00 2.0000000e+00 
1.0000000e+00 3.0000000e+00 2.5000000e+00 
1.0000000e+00 3.0000000e+00 3.0000000e+00 
1.0000000e+00 3.0000000e+00 3.5000000e+00 
1.0000000e+00 3.0000000e+00 4.0000000e+00 
1.0000000e+00 3.0000000e+00 4.5000000e+00 
1.0000000e+00 3.0000000e+00 5.0000000e+00 
1.0000000e+00 3.0000000e+00 5.5000000e+00 
1.0000000e+00 3.0000000e+00 6.0000000e+00 
1.0000000e+00 3.0000000e+00 6.5000000e+00 
1.0000000e+00 3.0000000e+00 7.0000000e+00 
1.0000000e+00 3.0000000e+00 7.5000000e+00 
1.0000000e+00 3.0000000e+00 8.0000000e+00 
1.0000000e+00 3.0000000e+00 8.5000000e+00 
1.0000000e+00 3.0000000e+00 9.0000000e+00 
1.0000000e+00 3.0000000e+00 9.5000000e+00 
1.0000000e+00 3.0000000e+00 1.0000000e+01 
1.0000000e+00 3.0000000e+00 1.0500000e+01 
1.0000000e+00 3.0000000e+00 1.1000000e+01 
1.0000000e+00 3.0000000e+00 1.1500000e+01 
1.0000000e+00 3.0000000e+00 1.2000000e+01 
1.0000000e+00 3.0000000e+00 1.2500000e+01 
1.0000000e+00 3.0000000e+00 1.3000000e+01 
1.0000000e+00 3.0000000e+00 1.3500000e+01 
1.0000000e+00 3.0000000e+00 1.4000000e+01 
1.0000000e+00 3.0000000e+00 1.4500000e+01 
1.0000000e+00 3.0250001e+00 -5.0000000e+00 
1.0000000e+00 3.0250001e+00 -4.5000000e+00 
1.0000000e+00 3.0250001e+00 -4.0000000e+00 
1.0000000e+00 3.0250001e+00 -3.5000000e+00 
1.0000000e+00 3.0250001e+00 -3.0000000e+00 
1.0000000e+00 3.0250001e+00 -2.5000000e+00 
1.0000000e+00 3.0250001e+00 -2.0000000e+00 
1.0000000e+00 3.0250001e+00 -1.5000000e+00 
1.0000000e+00 3.0250001e+00 -1.0000000e+00 
1.0000000e+00 3.0250001e+00 -5.0000000e-01 
1.0000000e+00 3.0250001e+00 0.0000000e+00 
1.0000000e+00 3.0250001e+00 5.0000000e-01 
1.0000000e+00 3.0250001e+00 1.0000000e+00 
1.0000000e+00 3.0250001e+00 1.5000000e+00 
1.0000000e+00 3.0250001e+00 2.0000000e+00 
1.0000000e+00 3.0250001e+00 2.5000000e+00 
1.0000000e+00 3.0250001e+00 3.0000000e+00 
1.0000000e+00 3.0250001e+00 3.5000000e+00 
1.0000000e+00 3.0250001e+00 4.0000000e+00 
1.0000000e+00 3.0250001e+00 4.5000000e+00 
1.0000000e+00 3.0250001e+00 5.0000000e+00 
1.0000000e+00 3.0250001e+00 5.5000000e+00 
1.0000000e+00 3.0250001e+00 6.0000000e+00 
1.0000000e+00 3.0250001e+00 6.5000000e+00 
1.0000000e+00 3.0250001e+00 7.0000000e+00 
1.0000000e+00 3.0250001e+00 7.5000000e+00 
1.0000000e+00 3.0250001e+00 8.0000000e+00 
1.0000000e+00 3.0250001e+00 8.5000000e+00 
1.0000000e+00 3.0250001e+00 9.0000000e+00 
1.0000000e+00 3.0250001e+00 9.5000000e+00 
1.0000000e+00 3.0250001e+00 1.0000000e+01 
1.0000000e+00 3.0250001e+00 1.0500000e+01 
1.0000000e+00 3.0250001e+00 1.1000000e+01 
1.0000000e+00 3.0250001e+00 1.1500000e+01 
1.0000000e+00 3.0250001e+00 1.2000000e+01 
1.0000000e+00 3.0250001e+00 1.2500000e+01 
1.0000000e+00 3.0250001e+00 1.3000000e+01 
1.0000000e+00 3.0250001e+00 1.3500000e+01 
1.0000000e+00 3.0250001e+00 1.4000000e+01 
1.0000000e+00 3.0250001e+00 1.4500000e+01 
1.0000000e+00 -2.0000000e+00 -5.0000000e+00 
1.0000000e+00 -2.0000000e+00 -4.5000000e+00 
1.0000000e+00 -2.0000000e+00 -4.0000000e+00 
1.0000000e+00 -2.0000000e+00 -3.5000000e+00 
1.0000000e+00 -2.0000000e+00 -3.0000000e+00 
1.0000000e+00 -2.0000000e+00 -2.5000000e+00 
1.0000000e+00 -2.0000000e+00 -2.0000000e+00 
1.0000000e+00 -2.0000000e+00 -1.5000000e+00 
1.0000000e+00 -2.0000000e+00 -1.0000000e+00 
1.0000000e+00 -2.0000000e+00 -5.0000000e-01 
1.0000000e+00 -2.0000000e+00 1.0500000e+01 
1.0000000e+00 -2.0000000e+00 1.1000000e+01 
1.0000000e+00 -2.0000000e+00 1.1500000e+01 
1.0000000e+00 -2.0000000e+00 1.2000000e+01 
1.0000000e+00 -2.0000000e+00 1.2500000e+01 
1.0000000e+00 -2.0000000e+00 1.3000000e+01 
1.0000000e+00 -2.0000000e+00 1.3500000e+01 
1.0000000e+00 -2.0000000e+00 1.4000000e+01 
1.0000000e+00 -2.0000000e+00 1.4500000e+01 
1.0000000e+00 0.0000000e+00 0.0000000e+00 
2.0000000e+00 0.0000000e+00 0.0000000e+00 
3.0000000e+00 0.0000000e+00 0.0000000e+00 
4.0000000e+00 0.0000000e+00 0.0000000e+00 
5.0000000e+00 1.0000000e+00 0.0000000e+00 
5.0000000e+00 2.0000000e+00 0.0000000e+00 
0.0000000e+00 2.0000000e+00 0.0000000e+00 
0.0000000e+00 1.0000000e+00 0.0000000e+00 
0.0000000e+00 0.0000000e+00 1.0000000e+00 
0.0000000e+00 0.0000000e+00 2.0000000e+00 
0.0000000e+00 0.0000000e+00 3.0000000e+00 
0.0000000e+00 0.0000000e+00 4.0000000e+00 
0.0000000e+00 0.0000000e+00 5.0000000e+00 
0.0000000e+00 0.0000000e+00 6.0000000e+00 
0.0000000e+00 0.0000000e+00 7.0000000e+00 
0.0000000e+00 0.0000000e+00 8.0000000e+00 
0.0000000e+00 0.0000000e+00 9.0000000e+00 
5.0000000e+00 0.0000000e+00 1.0000000e+00 
5.0000000e+00 0.0000000e+00 2.0000000e+00 
5.0000000e+00 0.0000000e+00 3.0000000e+00 
5.0000000e+00 0.0000000e+00 4.0000000e+00 
5.0000000e+00 0.0000000e+00 5.0000000e+00 
5.0000000e+00 0.0000000e+00 6.0000000e+00 
5.0000000e+00 0.0000000e+00 7.0000000e+00 
5.0000000e+00 0.0000000e+00 8.0000000e+00 
5.0000000e+00 0.0000000e+00 9.0000000e+00 
1.0000000e+00 0.0000000e+00 1.0000000e+01 
2.0000000e+00 0.0000000e+00 1.0000000e+01 
3.0000000e+00 0.0000000e+00 1.0000000e+01 
4.0000000e+00 0.0000000e+00 1.0000000e+01 
5.0000000e+00 3.0000000e+00 1.0000000e+00 
5.0000000e+00 3.0000000e+00 2.0000000e+00 
5.0000000e+00 3.0000000e+00 3.0000000e+00 
5.0000000e+00 3.0000000e+00 4.0000000e+00 
5.0000000e+00 3.0000000e+00 5.0000000e+00 
5.0000000e+00 3.0000000e+00 6.0000000e+00 
5.0000000e+00 3.0000000e+00 7.0000000e+00 
5.0000000e+00 3.0000000e+00 8.0000000e+00 
5.0000000e+00 3.0000000e+00 9.0000000e+00 
5.0000000e+00 1.0000000e+00 1.0000000e+01 
5.0000000e+00 2.0000000e+00 1.0000000e+01 
0.0000000e+00 3.0000000e+00 1.0000000e+00 
0.0000000e+00 3.0000000e+00 2.0000000e+00 
0.0000000e+00 3.0000000e+00 3.0000000e+00 
0.0000000e+00 3.0000000e+00 4.0000000e+00 
0.0000000e+00 3.0000000e+00 5.0000000e+00 
0.0000000e+00 3.0000000e+00 6.0000000e+00 
0.0000000e+00 3.0000000e+00 7.0000000e+00 
0.0000000e+00 3.0000000e+00 8.0000000e+00 
0.0000000e+00 3.0000000e+00 9.0000000e+00 
0.0000000e+00 2.0000000e+00 1.0000000e+01 
0.0000000e+00 1.0000000e+00 1.0000000e+01 
4.0000000e+00 3.0000000e+00 0.0000000e+00 
3.0000000e+00 3.0000000e+00 0.0000000e+00 
2.0000000e+00 3.0000000e+00 0.0000000e+00 
4.0000000e+00 3.0000000e+00 1.0000000e+01 
3.0000000e+00 3.0000000e+00 1.0000000e+01 
2.0000000e+00 3.0000000e+00 1.0000000e+01 
4.0618000e+00 1.5000000e+00 0.0000000e+00 
1.5046000e+00 7.6549745e-01 0.0000000e+00 
2.5000000e+00 2.1339746e+00 0.0000000e+00 
1.5046000e+00 2.2345026e+00 0.0000000e+00 
2.4957771e+00 8.1560516e-01 0.0000000e+00 
3.4707544e+00 2.2336540e+00 0.0000000e+00 
3.4700506e+00 7.5794268e-01 0.0000000e+00 
8.6322361e-01 1.5000000e+00 0.0000000e+00 
2.0000000e+00 1.5000000e+00 0.0000000e+00 
2.9960666e+00 1.4974480e+00 0.0000000e+00 
4.2679491e+00 7.3205084e-01 0.0000000e+00 
4.2679491e+00 2.2679491e+00 0.0000000e+00 
7.2695929e-01 2.2730408e+00 0.0000000e+00 
7.2695929e-01 7.2695929e-01 0.0000000e+00 
4.1822505e+00 0.0000000e+00 2.5515697e+00 
4.2017918e+00 0.0000000e+00 4.4725966e+00 
4.1114569e+00 0.0000000e+00 6.5092020e+00 
8.6602539e-01 0.0000000e+00 3.5000000e+00 
8.4778279e-01 0.0000000e+00 5.4684029e+00 
8.9629614e-01 0.0000000e+00 7.5867257e+00 
2.5566745e+00 0.0000000e+00 8.1853306e-01 
2.4918270e+00 0.0000000e+00 9.1386929e+00 
8.4677207e-01 0.0000000e+00 1.5042374e+00 
4.0943027e+00 0.0000000e+00 8.4081745e+00 
8.6281651e-01 0.0000000e+00 2.5007062e+00 
1.7315160e+00 0.0000000e+00 3.0001178e+00 
1.7319617e+00 0.0000000e+00 4.0000196e+00 
2.5980761e+00 0.0000000e+00 3.5000000e+00 
2.5536871e+00 0.0000000e+00 4.4963923e+00 
2.5928419e+00 0.0000000e+00 2.4239938e+00 
1.5037409e+00 0.0000000e+00 9.1535149e+00 
1.8433737e+00 0.0000000e+00 8.1858873e+00 
3.0000000e+00 0.0000000e+00 8.2679491e+00 
2.5000000e+00 0.0000000e+00 7.4019237e+00 
3.5042722e+00 0.0000000e+00 7.4271150e+00 
3.0310018e+00 0.0000000e+00 6.5282087e+00 
2.0373929e+00 0.0000000e+00 6.5307913e+00 
3.4767809e+00 0.0000000e+00 5.8031492e+00 
2.5452602e+00 0.0000000e+00 5.5720768e+00 
1.6456656e+00 0.0000000e+00 1.9697139e+00 
8.6297011e-01 0.0000000e+00 4.4947371e+00 
1.0111579e+00 0.0000000e+00 6.5282545e+00 
3.4994321e+00 0.0000000e+00 8.4691072e-01 
4.1860156e+00 0.0000000e+00 3.5040276e+00 
1.7320508e+00 0.0000000e+00 5.0000000e+00 
4.0544066e+00 0.0000000e+00 1.5781221e+00 
1.5817389e+00 0.0000000e+00 9.3943578e-01 
8.3166349e-01 0.0000000e+00 8.5090933e+00 
3.4686174e+00 0.0000000e+00 9.1752682e+00 
3.0709300e+00 0.0000000e+00 1.5799091e+00 
3.3927374e+00 0.0000000e+00 3.0399952e+00 
3.3826034e+00 0.0000000e+00 3.9747651e+00 
4.3420062e+00 0.0000000e+00 7.4688983e+00 
3.4023225e+00 0.0000000e+00 4.9314723e+00 
1.6740381e+00 0.0000000e+00 7.3014426e+00 
4.2715640e+00 0.0000000e+00 5.4758859e+00 
1.6225953e+00 0.0000000e+00 5.8104177e+00 
4.2679491e+00 0.0000000e+00 9.2679491e+00 
7.3205084e-01 0.0000000e+00 7.3205084e-01 
4.2679491e+00 0.0000000e+00 7.3205084e-01 
7.3205084e-01 0.0000000e+00 9.2679491e+00 
3.4586334e+00 0.0000000e+00 2.2347178e+00 
2.2895701e+00 0.0000000e+00 1.5463171e+00 
5.0000000e+00 2.2345026e+00 1.5046000e+00 
[...]
POINT_DATA 460
FIELD FieldData 2
DISPLACEMENT 3 460  float
0.0000000e+00 0.0000000e+00 0.0000000e+00 
0.0000000e+00 0.0000000e+00 0.0000000e+00 
0.0000000e+00 -3.0480367e-06 0.0000000e+00 
0.0000000e+00 -6.3826257e-05 0.0000000e+00 
0.0000000e+00 0.0000000e+00 0.0000000e+00 
0.0000000e+00 0.0000000e+00 0.0000000e+00 
0.0000000e+00 8.2212303e-08 0.0000000e+00 
0.0000000e+00 5.1595517e-08 0.0000000e+00 
0.0000000e+00 3.6543504e-06 0.0000000e+00 
0.0000000e+00 3.8963431e-06 0.0000000e+00 
0.0000000e+00 4.6503806e-06 0.0000000e+00 
0.0000000e+00 5.9422841e-06 0.0000000e+00 
0.0000000e+00 7.6546767e-06 0.0000000e+00 
0.0000000e+00 9.3035724e-06 0.0000000e+00 
0.0000000e+00 9.7592274e-06 0.0000000e+00 
0.0000000e+00 6.9981002e-06 0.0000000e+00 
0.0000000e+00 -1.9355030e-06 0.0000000e+00 
0.0000000e+00 -2.0463433e-05 0.0000000e+00 
0.0000000e+00 -5.1865230e-05 0.0000000e+00 
-3.7925652e-06 -9.6522599e-05 -2.1788478e-06 
-7.6246465e-06 -1.6640266e-04 7.3049705e-06 
2.9144971e-07 -2.4016183e-04 -2.5664724e-06 
4.5485181e-06 -2.5198236e-04 -1.1373313e-05 
-1.2466594e-06 -1.7453484e-04 -1.0010572e-05 
-3.2546038e-06 -9.5327727e-05 -1.1939518e-05 
-6.0857933e-06 -4.5194342e-05 -1.6963173e-05 
-2.5934091e-06 -1.8561073e-05 -9.0877502e-06 
-1.4198812e-06 -6.6885755e-06 -7.4833183e-06 
-5.5360999e-07 -2.2026979e-06 -3.8695957e-06 
-4.5627382e-07 -7.8096070e-07 -2.2032136e-06 
-4.1622215e-07 -3.6226126e-07 -1.6102513e-06 
-1.7930002e-07 -2.0881956e-07 -8.8274891e-07 
-1.1192817e-07 -9.8344287e-08 -4.9586316e-07 
-6.0638200e-08 -3.3861802e-09 -2.7265432e-07 
-4.3301839e-08 5.5144188e-08 -1.7280114e-07 
-2.7329079e-08 7.9965119e-08 -7.0082415e-08 
-1.7835216e-08 8.2244128e-08 -3.0784332e-08 
-1.0146540e-08 7.4018217e-08 -1.4341506e-08 
0.0000000e+00 5.8869652e-08 0.0000000e+00 
0.0000000e+00 3.9624943e-08 0.0000000e+00 
0.0000000e+00 2.2615041e-08 0.0000000e+00 
0.0000000e+00 1.0261922e-08 0.0000000e+00 
0.0000000e+00 2.7325799e-09 0.0000000e+00 
0.0000000e+00 -1.0050080e-09 0.0000000e+00 
0.0000000e+00 -2.2887772e-09 0.0000000e+00 
0.0000000e+00 -2.3091387e-09 0.0000000e+00 
0.0000000e+00 -1.9446280e-09 0.0000000e+00 
0.0000000e+00 -1.7492217e-09 0.0000000e+00 
0.0000000e+00 3.6559697e-06 0.0000000e+00 
0.0000000e+00 3.8991020e-06 0.0000000e+00 
0.0000000e+00 4.6565924e-06 0.0000000e+00 
0.0000000e+00 5.9545487e-06 0.0000000e+00 
0.0000000e+00 7.6751367e-06 0.0000000e+00 
0.0000000e+00 9.3322487e-06 0.0000000e+00 
0.0000000e+00 9.7913744e-06 0.0000000e+00 
0.0000000e+00 7.0207175e-06 0.0000000e+00 
0.0000000e+00 -1.9474526e-06 0.0000000e+00 
0.0000000e+00 -2.0548685e-05 0.0000000e+00 
0.0000000e+00 -5.1307707e-05 0.0000000e+00 
0.0000000e+00 -9.7354838e-05 0.0000000e+00 
0.0000000e+00 -1.6769001e-04 0.0000000e+00 
0.0000000e+00 -2.4442567e-04 0.0000000e+00 
0.0000000e+00 -2.5566164e-04 0.0000000e+00 
0.0000000e+00 -1.7731548e-04 0.0000000e+00 
0.0000000e+00 -9.6664495e-05 0.0000000e+00 
0.0000000e+00 -4.5240118e-05 0.0000000e+00 
0.0000000e+00 -1.8494720e-05 0.0000000e+00 
0.0000000e+00 -6.5803220e-06 0.0000000e+00 
0.0000000e+00 -2.1206019e-06 0.0000000e+00 
0.0000000e+00 -7.3408455e-07 0.0000000e+00 
0.0000000e+00 -3.4500061e-07 0.0000000e+00 
0.0000000e+00 -2.0250242e-07 0.0000000e+00 
0.0000000e+00 -9.6926875e-08 0.0000000e+00 
0.0000000e+00 -4.5525086e-09 0.0000000e+00 
0.0000000e+00 5.4758317e-08 0.0000000e+00 
0.0000000e+00 7.9955555e-08 0.0000000e+00 
0.0000000e+00 8.2582659e-08 0.0000000e+00 
0.0000000e+00 7.4026012e-08 0.0000000e+00 
0.0000000e+00 5.8717685e-08 0.0000000e+00 
0.0000000e+00 3.9782350e-08 0.0000000e+00 
0.0000000e+00 2.2704036e-08 0.0000000e+00 
0.0000000e+00 1.0301261e-08 0.0000000e+00 
0.0000000e+00 2.7416824e-09 0.0000000e+00 
0.0000000e+00 -1.0108789e-09 0.0000000e+00 
0.0000000e+00 -2.2997491e-09 0.0000000e+00 
0.0000000e+00 -2.3201372e-09 0.0000000e+00 
0.0000000e+00 -1.9541226e-09 0.0000000e+00 
0.0000000e+00 -1.7579171e-09 0.0000000e+00 
0.0000000e+00 0.0000000e+00 0.0000000e+00 
0.0000000e+00 0.0000000e+00 0.0000000e+00 
0.0000000e+00 0.0000000e+00 0.0000000e+00 
0.0000000e+00 0.0000000e+00 0.0000000e+00 
0.0000000e+00 0.0000000e+00 0.0000000e+00 
0.0000000e+00 0.0000000e+00 0.0000000e+00 
0.0000000e+00 0.0000000e+00 0.0000000e+00 
0.0000000e+00 0.0000000e+00 0.0000000e+00 
0.0000000e+00 0.0000000e+00 0.0000000e+00 
0.0000000e+00 0.0000000e+00 0.0000000e+00 
0.0000000e+00 0.0000000e+00 0.0000000e+00 
0.0000000e+00 0.0000000e+00 0.0000000e+00 
0.0000000e+00 0.0000000e+00 0.0000000e+00 
0.0000000e+00 0.0000000e+00 0.0000000e+00 
0.0000000e+00 0.0000000e+00 0.0000000e+00 
0.0000000e+00 0.0000000e+00 0.0000000e+00 
0.0000000e+00 0.0000000e+00 0.0000000e+00 
0.0000000e+00 0.0000000e+00 0.0000000e+00 
0.0000000e+00 0.0000000e+00 0.0000000e+00 
0.0000000e+00 0.0000000e+00 0.0000000e+00 
0.0000000e+00 0.0000000e+00 0.0000000e+00 
0.0000000e+00 0.0000000e+00 0.0000000e+00 
0.0000000e+00 0.0000000e+00 0.0000000e+00 
0.0000000e+00 -1.6757991e-06 0.0000000e+00 
0.0000000e+00 -2.8268607e-06 0.0000000e+00 
0.0000000e+00 -5.3737836e-05 0.0000000e+00 
0.0000000e+00 -2.8094588e-05 0.0000000e+00 
0.0000000e+00 0.0000000e+00 0.0000000e+00 
0.0000000e+00 0.0000000e+00 0.0000000e+00 
0.0000000e+00 0.0000000e+00 0.0000000e+00 
0.0000000e+00 0.0000000e+00 0.0000000e+00 
0.0000000e+00 0.0000000e+00 0.0000000e+00 
0.0000000e+00 0.0000000e+00 0.0000000e+00 
0.0000000e+00 0.0000000e+00 0.0000000e+00 
0.0000000e+00 0.0000000e+00 0.0000000e+00 
0.0000000e+00 0.0000000e+00 0.0000000e+00 
0.0000000e+00 0.0000000e+00 0.0000000e+00 
0.0000000e+00 0.0000000e+00 0.0000000e+00 
0.0000000e+00 0.0000000e+00 0.0000000e+00 
0.0000000e+00 0.0000000e+00 0.0000000e+00 
0.0000000e+00 0.0000000e+00 0.0000000e+00 
0.0000000e+00 0.0000000e+00 0.0000000e+00 
0.0000000e+00 0.0000000e+00 0.0000000e+00 
0.0000000e+00 0.0000000e+00 0.0000000e+00 
0.0000000e+00 0.0000000e+00 0.0000000e+00 
0.0000000e+00 0.0000000e+00 0.0000000e+00 
0.0000000e+00 0.0000000e+00 0.0000000e+00 
0.0000000e+00 0.0000000e+00 0.0000000e+00 
0.0000000e+00 0.0000000e+00 0.0000000e+00 
0.0000000e+00 -2.9110709e-06 0.0000000e+00 
0.0000000e+00 -1.2884262e-06 0.0000000e+00 
0.0000000e+00 -1.7092271e-06 0.0000000e+00 
0.0000000e+00 -1.8503593e-07 0.0000000e+00 
0.0000000e+00 -8.0576221e-08 0.0000000e+00 
0.0000000e+00 4.0412232e-07 0.0000000e+00 
0.0000000e+00 2.0800746e-07 0.0000000e+00 
0.0000000e+00 1.6915534e-07 0.0000000e+00 
0.0000000e+00 9.9422394e-08 0.0000000e+00 
0.0000000e+00 3.7450256e-08 0.0000000e+00 
0.0000000e+00 7.2121750e-08 0.0000000e+00 
0.0000000e+00 -9.0576556e-05 0.0000000e+00 
0.0000000e+00 -1.0898876e-04 0.0000000e+00 
0.0000000e+00 -6.1888815e-05 0.0000000e+00 
0.0000000e+00 -2.2940350e-05 0.0000000e+00 
0.0000000e+00 -6.3194266e-06 0.0000000e+00 
0.0000000e+00 -1.3938862e-06 0.0000000e+00 
0.0000000e+00 -2.7544556e-07 0.0000000e+00 
0.0000000e+00 6.0516353e-10 0.0000000e+00 
0.0000000e+00 4.6809753e-08 0.0000000e+00 
0.0000000e+00 4.3761798e-08 0.0000000e+00 
0.0000000e+00 2.2337318e-08 0.0000000e+00 
0.0000000e+00 -5.5417604e-06 0.0000000e+00 
0.0000000e+00 -1.6957150e-05 0.0000000e+00 
0.0000000e+00 -4.0986277e-05 0.0000000e+00 
0.0000000e+00 8.5870830e-08 0.0000000e+00 
0.0000000e+00 8.6741771e-08 0.0000000e+00 
0.0000000e+00 8.5084352e-08 0.0000000e+00 
0.0000000e+00 -4.0318714e-06 0.0000000e+00 
0.0000000e+00 -1.6950227e-05 0.0000000e+00 
0.0000000e+00 -2.1890650e-05 0.0000000e+00 
0.0000000e+00 -4.8855647e-05 0.0000000e+00 
0.0000000e+00 -1.0159834e-05 0.0000000e+00 
0.0000000e+00 -8.6933687e-06 0.0000000e+00 
0.0000000e+00 -4.0571740e-06 0.0000000e+00 
0.0000000e+00 -4.0995714e-05 0.0000000e+00 
0.0000000e+00 -2.5081106e-05 0.0000000e+00 
0.0000000e+00 -1.1364207e-05 0.0000000e+00 
0.0000000e+00 -1.9994804e-06 0.0000000e+00 
0.0000000e+00 -4.2539386e-06 0.0000000e+00 
0.0000000e+00 -5.6031142e-05 0.0000000e+00 
0.0000000e+00 -1.9000883e-05 0.0000000e+00 
0.0000000e+00 0.0000000e+00 0.0000000e+00 
0.0000000e+00 0.0000000e+00 0.0000000e+00 
0.0000000e+00 0.0000000e+00 0.0000000e+00 
0.0000000e+00 0.0000000e+00 0.0000000e+00 
0.0000000e+00 0.0000000e+00 0.0000000e+00 
0.0000000e+00 0.0000000e+00 0.0000000e+00 
0.0000000e+00 0.0000000e+00 0.0000000e+00 
0.0000000e+00 0.0000000e+00 0.0000000e+00 
0.0000000e+00 0.0000000e+00 0.0000000e+00 
0.0000000e+00 0.0000000e+00 0.0000000e+00 
0.0000000e+00 0.0000000e+00 0.0000000e+00 
0.0000000e+00 0.0000000e+00 0.0000000e+00 
0.0000000e+00 0.0000000e+00 0.0000000e+00 
0.0000000e+00 0.0000000e+00 0.0000000e+00 
0.0000000e+00 0.0000000e+00 0.0000000e+00 
0.0000000e+00 0.0000000e+00 0.0000000e+00 
0.0000000e+00 0.0000000e+00 0.0000000e+00 
0.0000000e+00 0.0000000e+00 0.0000000e+00 
0.0000000e+00 0.0000000e+00 0.0000000e+00 
0.0000000e+00 0.0000000e+00 0.0000000e+00 
0.0000000e+00 0.0000000e+00 0.0000000e+00 
0.0000000e+00 0.0000000e+00 0.0000000e+00 
0.0000000e+00 0.0000000e+00 0.0000000e+00 
0.0000000e+00 0.0000000e+00 0.0000000e+00 
0.0000000e+00 0.0000000e+00 0.0000000e+00 
0.0000000e+00 0.0000000e+00 0.0000000e+00 
0.0000000e+00 0.0000000e+00 0.0000000e+00 
0.0000000e+00 0.0000000e+00 0.0000000e+00 
0.0000000e+00 0.0000000e+00 0.0000000e+00 
0.0000000e+00 0.0000000e+00 0.0000000e+00 
0.0000000e+00 0.0000000e+00 0.0000000e+00 
0.0000000e+00 0.0000000e+00 0.0000000e+00 
0.0000000e+00 0.0000000e+00 0.0000000e+00 
0.0000000e+00 0.0000000e+00 0.0000000e+00 
0.0000000e+00 0.0000000e+00 0.0000000e+00 
0.0000000e+00 0.0000000e+00 0.0000000e+00 
0.0000000e+00 0.0000000e+00 0.0000000e+00 
0.0000000e+00 0.0000000e+00 0.0000000e+00 
0.0000000e+00 0.0000000e+00 0.0000000e+00 
0.0000000e+00 0.0000000e+00 0.0000000e+00 
0.0000000e+00 0.0000000e+00 0.0000000e+00 
0.0000000e+00 0.0000000e+00 0.0000000e+00 
0.0000000e+00 0.0000000e+00 0.0000000e+00 
0.0000000e+00 0.0000000e+00 0.0000000e+00 
0.0000000e+00 0.0000000e+00 0.0000000e+00 
0.0000000e+00 0.0000000e+00 0.0000000e+00 
0.0000000e+00 0.0000000e+00 0.0000000e+00 
0.0000000e+00 0.0000000e+00 0.0000000e+00 
0.0000000e+00 0.0000000e+00 0.0000000e+00 
0.0000000e+00 -1.2795525e-06 0.0000000e+00 
0.0000000e+00 6.5654078e-08 0.0000000e+00 
0.0000000e+00 -1.7204587e-07 0.0000000e+00 
0.0000000e+00 4.1965109e-07 0.0000000e+00 
0.0000000e+00 1.9337961e-07 0.0000000e+00 
0.0000000e+00 -1.2447377e-06 0.0000000e+00 
0.0000000e+00 -1.7192056e-07 0.0000000e+00 
0.0000000e+00 6.9272936e-08 0.0000000e+00 
0.0000000e+00 -5.5057200e-07 0.0000000e+00 
0.0000000e+00 2.0297534e-08 0.0000000e+00 
0.0000000e+00 -1.2907599e-06 0.0000000e+00 
0.0000000e+00 4.6310593e-08 0.0000000e+00 
0.0000000e+00 2.6945301e-07 0.0000000e+00 
0.0000000e+00 7.0393590e-08 0.0000000e+00 
0.0000000e+00 -1.7840857e-06 0.0000000e+00 
0.0000000e+00 4.3949502e-08 0.0000000e+00 
0.0000000e+00 1.2040840e-07 0.0000000e+00 
0.0000000e+00 -1.7877686e-06 0.0000000e+00 
0.0000000e+00 1.9342900e-07 0.0000000e+00 
0.0000000e+00 1.6490111e-07 0.0000000e+00 
0.0000000e+00 -1.6456429e-06 0.0000000e+00 
0.0000000e+00 2.2407350e-07 0.0000000e+00 
0.0000000e+00 -1.2498452e-07 0.0000000e+00 
0.0000000e+00 -8.7461581e-07 0.0000000e+00 
0.0000000e+00 1.1956088e-07 0.0000000e+00 
0.0000000e+00 8.7734385e-08 0.0000000e+00 
0.0000000e+00 2.9267333e-08 0.0000000e+00 
0.0000000e+00 -1.9309221e-06 0.0000000e+00 
0.0000000e+00 -1.1066260e-06 0.0000000e+00 
0.0000000e+00 2.8968222e-08 0.0000000e+00 
0.0000000e+00 -5.0569794e-05 0.0000000e+00 
0.0000000e+00 -2.7364331e-05 0.0000000e+00 
0.0000000e+00 -4.6348650e-06 0.0000000e+00 
0.0000000e+00 -9.4123600e-08 0.0000000e+00 
0.0000000e+00 -3.3153872e-05 0.0000000e+00 
0.0000000e+00 -2.7634194e-06 0.0000000e+00 
0.0000000e+00 -8.7663267e-08 0.0000000e+00 
0.0000000e+00 -1.4498335e-05 0.0000000e+00 
0.0000000e+00 -7.1078364e-05 0.0000000e+00 
0.0000000e+00 -1.1157561e-05 0.0000000e+00 
0.0000000e+00 -6.6311594e-07 0.0000000e+00 
0.0000000e+00 -1.0567496e-06 0.0000000e+00 
0.0000000e+00 2.0066855e-08 0.0000000e+00 
0.0000000e+00 -9.2739880e-05 0.0000000e+00 
0.0000000e+00 -2.6075873e-05 0.0000000e+00 
0.0000000e+00 -7.1395649e-09 0.0000000e+00 
0.0000000e+00 -4.7632006e-06 0.0000000e+00 
0.0000000e+00 -2.5515718e-07 0.0000000e+00 
0.0000000e+00 -1.6185926e-05 0.0000000e+00 
0.0000000e+00 -3.6024023e-05 0.0000000e+00 
0.0000000e+00 -2.1898249e-07 0.0000000e+00 
0.0000000e+00 -1.3042724e-06 0.0000000e+00 
0.0000000e+00 -1.7288237e-08 0.0000000e+00 
0.0000000e+00 -5.6399458e-05 0.0000000e+00 
0.0000000e+00 1.0931688e-08 0.0000000e+00 
0.0000000e+00 -6.7986570e-05 0.0000000e+00 
0.0000000e+00 -2.3620867e-05 0.0000000e+00 
0.0000000e+00 4.5073474e-08 0.0000000e+00 
0.0000000e+00 2.0090390e-08 0.0000000e+00 
0.0000000e+00 5.9942131e-08 0.0000000e+00 
0.0000000e+00 8.6956199e-08 0.0000000e+00 
0.0000000e+00 7.5695489e-08 0.0000000e+00 
0.0000000e+00 2.4588715e-08 0.0000000e+00 
0.0000000e+00 8.6803276e-08 0.0000000e+00 
0.0000000e+00 2.6747907e-08 0.0000000e+00 
0.0000000e+00 4.4899142e-08 0.0000000e+00 
0.0000000e+00 5.8174439e-08 0.0000000e+00 
0.0000000e+00 6.2937985e-08 0.0000000e+00 
0.0000000e+00 2.5038471e-08 0.0000000e+00 
0.0000000e+00 8.1486711e-08 0.0000000e+00 
0.0000000e+00 5.6614873e-08 0.0000000e+00 
0.0000000e+00 1.6679291e-08 0.0000000e+00 
-1.7504660e-06 -6.5315994e-06 -5.8070823e-06 
-4.1487621e-07 -6.3413768e-07 -1.4595641e-06 
-6.3816564e-08 8.6790848e-08 -2.3036566e-07 
-1.9231573e-05 -9.4089286e-05 -9.4373772e-06 
-6.3840039e-06 -4.8239028e-05 -1.0993743e-05 
-6.7026292e-07 1.1834243e-07 -6.5566871e-07 
-2.5751181e-06 -2.6969319e-06 -1.1632662e-06 
-1.0215119e-07 2.0992188e-07 -1.0164567e-07 
-8.0124491e-06 -1.1348735e-04 3.0084752e-06 
-2.4928458e-08 9.7634832e-08 -5.0849110e-08 
-7.7551404e-06 -1.1047182e-05 4.9727632e-08 
-1.5506403e-08 1.0588470e-07 -1.6621488e-08 
-1.6557411e-07 2.8938086e-07 -1.9060583e-07 
-2.5603640e-07 2.5582938e-07 -4.5287234e-07 
-8.6930307e-08 1.5590659e-07 -1.7809722e-07 
-1.5149756e-07 1.8725353e-07 -2.5819082e-07 
-3.5484544e-07 -2.9531897e-08 -6.2423999e-07 
-3.8073750e-08 1.4460467e-07 -9.0622812e-08 
-2.0062826e-07 1.1209010e-07 -5.2577258e-07 
-5.9551093e-07 -4.3720014e-08 -8.9920962e-07 
-1.2158118e-06 -7.3517538e-07 -1.3254222e-06 
-1.1209422e-06 -1.2348085e-06 -1.7742325e-06 
-2.3046723e-06 -3.0025194e-06 -3.1964637e-06 
-2.7472390e-06 -2.1719770e-06 -2.5513789e-06 
-4.1835278e-06 -7.0711903e-06 -5.0468079e-06 
-3.6511451e-06 -4.8387406e-06 -2.7146889e-06 
-7.8506337e-06 -1.5595348e-05 -6.3907482e-06 
-7.4539980e-06 -1.2302293e-05 -4.1527755e-06 
-9.5531823e-06 -2.3734463e-05 -6.3038783e-06 
-9.0029034e-06 -1.4586235e-05 -3.2065475e-06 
-1.5769660e-05 -3.4939108e-05 -3.4780799e-06 
-1.1381183e-06 -1.8411610e-06 -2.5483685e-06 
-7.3087278e-07 -8.7468027e-07 -1.6030762e-06 
-7.2727948e-06 -1.7085393e-05 -9.0915119e-06 
-2.2179652e-06 -1.6104665e-06 -1.2897676e-06 
-1.9403471e-08 1.0829267e-07 -3.4499504e-08 
-3.2042999e-06 -7.4591148e-06 -5.2701130e-06 
-1.1194179e-06 -3.1092932e-07 -1.0562546e-06 
-9.8754399e-06 -2.8836203e-05 4.7551720e-07 
-2.1684688e-08 1.4228065e-07 -8.9190610e-09 
-7.2714876e-08 9.6724200e-08 -2.1158580e-07 
-6.2243778e-08 1.0871845e-07 -1.3108027e-07 
-8.3384867e-07 -1.1971592e-06 -2.4358660e-06 
-3.3871750e-06 -3.5299693e-06 -2.8941679e-07 
-9.1356733e-06 -7.6006378e-05 -1.2247793e-05 
-8.5279235e-06 -3.6618992e-05 -9.7645616e-06 
-5.5210330e-06 -2.5244326e-05 -1.1754369e-05 
-2.9850019e-06 -1.2353606e-05 -7.4349450e-06 
-2.4432970e-07 -7.5130018e-08 -7.7933220e-07 
-1.1165255e-07 4.8152707e-08 -3.4934891e-07 
-9.4314883e-06 -7.6755518e-05 4.0778272e-07 
-1.8785646e-05 -1.0737341e-04 -1.6738659e-06 
-1.5038093e-08 8.9953623e-08 -2.2098213e-08 
-1.0429808e-05 -1.6621367e-05 -1.5703324e-07 
-1.6697742e-05 -4.8182043e-05 -9.1268184e-06 
-4.4203308e-08 8.2072184e-08 -1.2190782e-07 
-3.6203005e-07 -1.6543487e-07 -8.0937713e-07 
-2.0050302e-05 -5.7466281e-05 -2.7561970e-07 
-1.1311248e-06 -3.2443288e-06 -4.0976679e-06 
-3.2628115e-08 1.4902450e-07 -7.3493567e-08 
-7.0074084e-09 1.0238503e-07 -4.2137120e-09 
-2.9145574e-06 -4.2323254e-06 7.9794368e-08 
-2.5324780e-06 -2.2251697e-06 -2.0590803e-06 
-1.9679170e-05 -6.7321656e-05 -4.3944870e-06 
-2.5428163e-08 1.0980206e-07 -4.2683656e-08 
-5.3369524e-07 -2.7963088e-07 -9.3824980e-07 
-6.1037490e-06 -7.0436613e-06 -1.5406492e-06 
-4.6968930e-06 -5.1431844e-06 -2.4069629e-06 
-8.4776848e-06 -5.9076010e-05 -2.1923847e-07 
-1.9125066e-06 -4.7449203e-06 -4.2720949e-06 
-1.4516349e-08 9.8991869e-08 -1.7083021e-08 
-1.1430658e-05 -1.3960314e-04 -4.0158652e-06 
-1.3643127e-05 -1.5343462e-04 -2.4544554e-06 
-4.5474458e-06 -9.0246569e-05 -1.0106659e-05 
-3.8844660e-06 -6.2180916e-05 -9.1559832e-06 
-9.2538266e-06 -1.3492694e-04 7.4569243e-07 
-1.5688665e-06 -3.3194417e-05 -5.7189791e-06 
-2.7258321e-07 -1.6351809e-05 -4.2747733e-06 
-3.2251774e-07 -7.5395665e-06 -2.6888117e-06 
1.6893597e-07 -3.5921175e-06 -1.7949560e-06 
-1.5588982e-07 -1.5410603e-06 -1.3322021e-06 
-6.2511582e-08 -8.2137939e-07 -9.9465990e-07 
-8.6284778e-08 -3.4615783e-07 -6.6439668e-07 
-3.4036717e-08 -6.4281252e-08 -3.5367614e-07 
-3.2944190e-08 2.0463641e-08 -1.8992576e-07 
-2.1668734e-08 4.4376165e-08 -1.0499608e-07 
-1.2441524e-08 5.0046296e-08 -5.2142266e-08 
-1.0042921e-08 6.1444695e-08 -1.9087883e-08 
4.7257214e-07 -8.4146683e-05 5.0930325e-06 
1.0170386e-05 -4.7804897e-05 3.0407857e-06 
5.0157637e-06 -1.7458495e-05 6.7962424e-06 
5.7353526e-07 -1.8528804e-06 1.9089634e-06 
5.1061544e-08 3.0714048e-08 3.8545974e-07 
2.4869329e-09 7.3996858e-08 7.7696306e-08 
5.0640024e-06 -7.5760790e-06 2.4284175e-06 
1.6520005e-06 -1.8885470e-06 1.7016318e-06 
2.0860909e-07 -6.3961792e-08 5.9753245e-07 
8.7579963e-07 -8.9849991e-06 3.8162038e-06 
4.8394818e-06 -6.2375992e-05 7.6541173e-06 
7.6282477e-06 -8.1327889e-05 -5.6888925e-06 
5.8242964e-08 9.8613747e-08 1.4776492e-07 
7.6602282e-06 -1.8587223e-05 5.8698557e-08 
8.5620279e-08 -5.0672543e-07 4.4334246e-07 
-1.5226689e-08 7.0280620e-08 5.7388867e-08 
4.5572585e-07 -2.7010707e-05 5.0822141e-06 
9.7761119e-07 -4.9231749e-06 1.6799609e-06 
6.6419902e-06 -2.5067990e-05 3.2126118e-06 
8.6823647e-08 -2.8570380e-06 3.8122189e-07 
1.8619703e-06 -4.3129098e-06 3.7024668e-06 
8.3264777e-06 -1.0246857e-04 2.0674227e-06 
5.3830536e-07 -1.1769433e-07 6.8498656e-07 
-4.9197202e-09 7.3520788e-08 7.5353368e-09 
3.6126614e-06 -3.9006482e-06 2.8245631e-07 
1.3776287e-08 9.9968126e-08 2.7808566e-08 
4.8980778e-06 -2.5183577e-05 6.1848923e-06 
1.2873622e-06 -1.4595373e-06 1.9219410e-06 
8.4227095e-06 -1.4281769e-05 2.6538512e-06 
4.8225688e-06 -8.1074668e-06 3.8763892e-06 
1.7899955e-06 -7.6497663e-06 8.0970960e-07 
4.8825278e-08 2.0714396e-07 9.1199688e-08 
-4.2552504e-09 2.6051405e-08 1.3045131e-07 
-2.4998261e-08 -5.9579084e-09 1.5376040e-08 
4.8459384e-08 -1.0073719e-06 2.6159304e-07 
1.2079104e-08 5.2534332e-08 5.4796196e-08 
1.5266803e-08 1.3727761e-07 9.6902539e-08 
8.0619675e-06 -1.9244268e-05 4.8934396e-07 
1.4007686e-06 -1.9065411e-06 6.1617823e-07 
5.1097272e-06 -3.7495065e-05 2.5060331e-07 
4.4337824e-08 -4.5490094e-07 7.8864457e-07 
2.0144582e-06 -9.5795931e-06 4.1647204e-06 
-5.1542606e-09 9.2752806e-08 1.5687334e-08 
-9.2361256e-09 7.9485902e-09 1.5998729e-07 
5.3552071e-07 -1.6095815e-05 1.4035440e-06 
7.2262442e-06 -4.4717395e-05 -5.6884528e-07 
1.1197404e-07 -7.8092455e-07 2.6169292e-07 
2.3326461e-06 -2.2113006e-06 9.0731140e-07 
2.3405203e-08 5.6455907e-08 1.8248248e-07 
3.0416236e-06 -1.5803753e-05 4.4557586e-07 
4.6164271e-07 -2.7121828e-06 2.2082781e-06 
1.3531051e-06 -3.4358638e-06 1.0376191e-07 
6.6404645e-08 7.8395573e-08 1.1058425e-07 
-1.5198628e-08 1.1457655e-07 -1.1489723e-10 
-6.1049974e-08 -3.1467687e-07 -6.2496767e-08 
1.8052738e-08 -1.3709515e-06 8.8461587e-07 
2.8986025e-07 -3.0693212e-07 9.4888929e-07 
5.1823318e-10 3.3870169e-08 4.2928917e-08 
1.8779006e-06 -6.4541227e-06 -7.6869249e-08 
9.5401589e-08 -4.0708747e-07 2.5123159e-08 
1.0297488e-06 -7.1752794e-07 6.8160699e-07 
4.7333991e-08 1.6412098e-07 9.3406868e-08 
1.9202440e-07 1.0551959e-07 2.8380910e-07 
4.6850887e-06 -4.7090209e-05 7.0301979e-07 
-2.0316184e-08 9.5065197e-08 -3.2527389e-08 