# vtk DataFile Version 4.0
vtk output
ASCII
DATASET UNSTRUCTURED_GRID
POINTS 460 float
0.0000000e+00 0.0000000e+00 0.0000000e+00 
5.0000000e+00 0.0000000e+00 0.0000000e+00 
5.0000000e+00 3.0000000e+00 0.0000000e+00 
0.0000000e+00 3.0000000e+00 0.0000000e+00 
0.0000000e+00 0.0000000e+00 1.0000000e+01 
5.0000000e+00 0.0000000e+00 1.0000000e+01 
5.0000000e+00 3.0000000e+00 1.0000000e+01 
0.0000000e+00 3.0000000e+00 1.0000000e+01 
1.0000000e+00 3.0000000e+00 -5.0000000e+00 
1.0000000e+00 3.0000000e+00 -4.5000000e+00 
1.0000000e+00 3.0000000e+00 -4.0000000e+00 
1.0000000e+00 3.0000000e+00 -3.5000000e+00 
1.0000000e+00 3.0000000e+00 -3.0000000e+00 
1.0000000e+00 3.0000000e+00 -2.5000000e+00 
1.0000000e+00 3.0000000e+00 -2.0000000e+00 
1.0000000e+00 3.0000000e+00 -1.5000000e+00 
1.0000000e+00 3.0000000e+00 -1.0000000e+00 
1.0000000e+00 3.0000000e+00 -5.0000000e-01 
1.0000000e+00 3.0000000e+00 0.0000000e+00 
1.0000000e+00 3.0000000e+00 5.0000000e-01 
1.0000000e+00 3.0000000e+00 1.0000000e+00 
1.0000000e+00 3.0000000e+00 1.5000000e+00 
1.0000000e+00 3.0000000e+00 2.0000000e+00 
1.0000000e+00 3.0000000e+00 2.5000000e+00 
1.0000000e+00 3.0000000e+00 3.0000000e+00 
1.0000000e+00 3.0000000e+00 3.5000000e+00 
1.0000000e+00 3.0000000e+00 4.0000000e+00 
1.0000000e+00 3.0000000e+00 4.5000000e+00 
1.0000000e+00 3.0000000e+00 5.0000000e+00 
1.0000000e+00 3.0000000e+00 5.5000000e+00 
1.0000000e+00 3.0000000e+00 6.0000000e+00 
1.0000000e+00 3.0000000e+00 6.5000000e+00 
1.0000000e+00 3.0000000e+00 7.0000000e+00 
1.0000000e+00 3.0000000e+00 7.5000000e+00 
1.0000000e+00 3.0000000e+00 8.0000000e+00 
1.0000000e+00 3.0000000e+00 8.5000000e+00 
1.0000000e+00 3.0000000e+00 9.0000000e+00 
1.0000000e+00 3.0000000e+00 9.5000000e+00 
1.0000000e+00 3.0000000e+00 1.0000000e+01 
1.0000000e+00 3.0000000e+00 1.0500000e+01 
1.0000000e+00 3.0000000e+00 1.1000000e+01 
1.0000000e+00 3.0000000e+00 1.1500000e+01 
1.0000000e+00 3.0000000e+00 1.2000000e+01 
1.0000000e+00 3.0000000e+00 1.2500000e+01 
1.0000000e+00 3.0000000e+00 1.3000000e+01 
1.0000000e+00 3.0000000e+00 1.3500000e+01 
1.0000000e+00 3.0000000e+00 1.4000000e+01 
1.0000000e+00 3.0000000e+00 1.4500000e+01 
1.0000000e+00 3.0250001e+00 -5.0000000e+00 
1.0000000e+00 3.0250001e+00 -4.5000000e+00 
1.0000000e+00 3.0250001e+00 -4.0000000e+00 
1.0000000e+00 3.0250001e+00 -3.5000000e+00 
1.0000000e+00 3.0250001e+00 -3.0000000e+00 
1.0000000e+00 3.0250001e+00 -2.5000000e+00 
1.0000000e+00 3.0250001e+00 -2.0000000e+00 
1.0000000e+00 3.0250001e+00 -1.5000000e+00 
1.0000000e+00 3.0250001e+00 -1.0000000e+00 
1.0000000e+00 3.0250001e+00 -5.0000000e-01 
1.0000000e+00 3.0250001e+00 0.0000000e+00 
1.0000000e+00 3.0250001e+00 5.0000000e-01 
1.0000000e+00 3.0250001e+00 1.0000000e+00 
1.0000000e+00 3.0250001e+00 1.5000000e+00 
1.0000000e+00 3.0250001e+00 2.0000000e+00 
1.0000000e+00 3.0250001e+00 2.5000000e+00 
1.0000000e+00 3.0250001e+00 3.0000000e+00 
1.0000000e+00 3.0250001e+00 3.5000000e+00 
1.0000000e+00 3.0250001e+00 4.0000000e+00 
1.0000000e+00 3.0250001e+00 4.5000000e+00 
1.0000000e+00 3.0250001e+00 5.0000000e+00 
1.0000000e+00 3.0250001e+00 5.5000000e+00 
1.0000000e+00 3.0250001e+00 6.0000000e+00 
1.0000000e+00 3.0250001e+00 6.5000000e+00 
1.0000000e+00 3.0250001e+00 7.0000000e+00 
1.0000000e+00 3.0250001e+00 7.5000000e+00 
1.0000000e+00 3.0250001e+00 8.0000000e+00 
1.0000000e+00 3.0250001e+00 8.5000000e+00 
1.0000000e+00 3.0250001e+00 9.0000000e+00 
1.0000000e+00 3.0250001e+00 9.5000000e+00 
1.0000000e+00 3.0250001e+00 1.0000000e+01 
1.0000000e+00 3.0250001e+00 1.0500000e+01 
1.0000000e+00 3.0250001e+00 1.1000000e+01 
1.0000000e+00 3.0250001e+00 1.1500000e+01 
1.0000000e+00 3.0250001e+00 1.2000000e+01 
1.0000000e+00 3.0250001e+00 1.2500000e+01 
1.0000000e+00 3.0250001e+00 1.3000000e+01 
1.0000000e+00 3.0250001e+00 1.3500000e+01 
1.0000000e+00 3.0250001e+00 1.4000000e+01 
1.0000000e+00 3.0250001e+00 1.4500000e+01 
1.0000000e+00 -2.0000000e+00 -5.0000000e+00 
1.0000000e+00 -2.0000000e+00 -4.5000000e+00 
1.0000000e+00 -2.0000000e+00 -4.0000000e+00 
1.0000000e+00 -2.0000000e+00 -3.5000000e+00 
1.0000000e+00 -2.0000000e+00 -3.0000000e+00 
1.0000000e+00 -2.0000000e+00 -2.5000000e+00 
1.0000000e+00 -2.0000000e+00 -2.0000000e+00 
1.0000000e+00 -2.0000000e+00 -1.5000000e+00 
1.0000000e+00 -2.0000000e+00 -1.0000000e+00 
1.0000000e+00 -2.0000000e+00 -5.0000000e-01 
1.0000000e+00 -2.0000000e+00 1.0500000e+01 
1.0000000e+00 -2.0000000e+00 1.1000000e+01 
1.0000000e+00 -2.0000000e+00 1.1500000e+01 
1.0000000e+00 -2.0000000e+00 1.2000000e+01 
1.0000000e+00 -2.0000000e+00 1.2500000e+01 
1.0000000e+00 -2.0000000e+00 1.3000000e+01 
1.0000000e+00 -2.0000000e+00 1.3500000e+01 
1.0000000e+00 -2.0000000e+00 1.4000000e+01 
1.0000000e+00 -2.0000000e+00 1.4500000e+01 
1.0000000e+00 0.0000000e+00 0.0000000e+00 
2.0000000e+00 0.0000000e+00 0.0000000e+00 
3.0000000e+00 0.0000000e+00 0.0000000e+00 
4.0000000e+00 0.0000000e+00 0.0000000e+00 
5.0000000e+00 1.0000000e+00 0.0000000e+00 
5.0000000e+00 2.0000000e+00 0.0000000e+00 
0.0000000e+00 2.0000000e+00 0.0000000e+00 
0.0000000e+00 1.0000000e+00 0.0000000e+00 
0.0000000e+00 0.0000000e+00 1.0000000e+00 
0.0000000e+00 0.0000000e+00 2.0000000e+00 
0.0000000e+00 0.0000000e+00 3.0000000e+00 
0.0000000e+00 0.0000000e+00 4.0000000e+00 
0.0000000e+00 0.0000000e+00 5.0000000e+00 
0.0000000e+00 0.0000000e+00 6.0000000e+00 
0.0000000e+00 0.0000000e+00 7.0000000e+00 
0.0000000e+00 0.0000000e+00 8.0000000e+00 
0.0000000e+00 0.0000000e+00 9.0000000e+00 
5.0000000e+00 0.0000000e+00 1.0000000e+00 
5.0000000e+00 0.0000000e+00 2.0000000e+00 
5.0000000e+00 0.0000000e+00 3.0000000e+00 
5.0000000e+00 0.0000000e+00 4.0000000e+00 
5.0000000e+00 0.0000000e+00 5.0000000e+00 
5.0000000e+00 0.0000000e+00 6.0000000e+00 
5.0000000e+00 0.0000000e+00 7.0000000e+00 
5.0000000e+00 0.0000000e+00 8.0000000e+00 
5.0000000e+00 0.0000000e+00 9.0000000e+00 
1.0000000e+00 0.0000000e+00 1.0000000e+01 
2.0000000e+00 0.0000000e+00 1.0000000e+01 
3.0000000e+00 0.0000000e+00 1.0000000e+01 
4.0000000e+00 0.0000000e+00 1.0000000e+01 
5.0000000e+00 3.0000000e+00 1.0000000e+00 
5.0000000e+00 3.0000000e+00 2.0000000e+00 
5.0000000e+00 3.0000000e+00 3.0000000e+00 
5.0000000e+00 3.0000000e+00 4.0000000e+00 
5.0000000e+00 3.0000000e+00 5.0000000e+00 
5.0000000e+00 3.0000000e+00 6.0000000e+00 
5.0000000e+00 3.0000000e+00 7.0000000e+00 
5.0000000e+00 3.0000000e+00 8.0000000e+00 
5.0000000e+00 3.0000000e+00 9.0000000e+00 
5.0000000e+00 1.0000000e+00 1.0000000e+01 
5.0000000e+00 2.0000000e+00 1.0000000e+01 
0.0000000e+00 3.0000000e+00 1.0000000e+00 
0.0000000e+00 3.0000000e+00 2.0000000e+00 
0.0000000e+00 3.0000000e+00 3.0000000e+00 
0.0000000e+00 3.0000000e+00 4.0000000e+00 
0.0000000e+00 3.0000000e+00 5.0000000e+00 
0.0000000e+00 3.0000000e+00 6.0000000e+00 
0.0000000e+00 3.0000000e+00 7.0000000e+00 
0.0000000e+00 3.0000000e+00 8.0000000e+00 
0.0000000e+00 3.0000000e+00 9.0000000e+00 
0.0000000e+00 2.0000000e+00 1.0000000e+01 
0.0000000e+00 1.0000000e+00 1.0000000e+01 
4.0000000e+00 3.0000000e+00 0.0000000e+00 
3.0000000e+00 3.0000000e+00 0.0000000e+00 
2.0000000e+00 3.0000000e+00 0.0000000e+00 
4.0000000e+00 3.0000000e+00 1.0000000e+01 
3.0000000e+00 3.0000000e+00 1.0000000e+01 
2.0000000e+00 3.0000000e+00 1.0000000e+01 
4.0618000e+00 1.5000000e+00 0.0000000e+00 
1.5046000e+00 7.6549745e-01 0.0000000e+00 
2.5000000e+00 2.1339746e+00 0.0000000e+00 
1.5046000e+00 2.2345026e+00 0.0000000e+00 
2.4957771e+00 8.1560516e-01 0.0000000e+00 
3.4707544e+00 2.2336540e+00 0.0000000e+00 
3.4700506e+00 7.5794268e-01 0.0000000e+00 
8.6322361e-01 1.5000000e+00 0.0000000e+00 
2.0000000e+00 1.5000000e+00 0.0000000e+00 
2.9960666e+00 1.4974480e+00 0.0000000e+00 
4.2679491e+00 7.3205084e-01 0.0000000e+00 
4.2679491e+00 2.2679491e+00 0.0000000e+00 
7.2695929e-01 2.2730408e+00 0.0000000e+00 
7.2695929e-01 7.2695929e-01 0.0000000e+00 
4.1822505e+00 0.0000000e+00 2.5515697e+00 
4.2017918e+00 0.0000000e+00 4.4725966e+00 
4.1114569e+00 0.0000000e+00 6.5092020e+00 
8.6602539e-01 0.0000000e+00 3.5000000e+00 
8.4778279e-01 0.0000000e+00 5.4684029e+00 
8.9629614e-01 0.0000000e+00 7.5867257e+00 
2.5566745e+00 0.0000000e+00 8.1853306e-01 
2.4918270e+00 0.0000000e+00 9.1386929e+00 
8.4677207e-01 0.0000000e+00 1.5042374e+00 
4.0943027e+00 0.0000000e+00 8.4081745e+00 
8.6281651e-01 0.0000000e+00 2.5007062e+00 
1.7315160e+00 0.0000000e+00 3.0001178e+00 
1.7319617e+00 0.0000000e+00 4.0000196e+00 
2.5980761e+00 0.0000000e+00 3.5000000e+00 
2.5536871e+00 0.0000000e+00 4.4963923e+00 
2.5928419e+00 0.0000000e+00 2.4239938e+00 
1.5037409e+00 0.0000000e+00 9.1535149e+00 
1.8433737e+00 0.0000000e+00 8.1858873e+00 
3.0000000e+00 0.0000000e+00 8.2679491e+00 
2.5000000e+00 0.0000000e+00 7.4019237e+00 
3.5042722e+00 0.0000000e+00 7.4271150e+00 
3.0310018e+00 0.0000000e+00 6.5282087e+00 
2.0373929e+00 0.0000000e+00 6.5307913e+00 
3.4767809e+00 0.0000000e+00 5.8031492e+00 
2.5452602e+00 0.0000000e+00 5.5720768e+00 
1.6456656e+00 0.0000000e+00 1.9697139e+00 
8.6297011e-01 0.0000000e+00 4.4947371e+00 
1.0111579e+00 0.0000000e+00 6.5282545e+00 
3.4994321e+00 0.0000000e+00 8.4691072e-01 
4.1860156e+00 0.0000000e+00 3.5040276e+00 
1.7320508e+00 0.0000000e+00 5.0000000e+00 
4.0544066e+00 0.0000000e+00 1.5781221e+00 
1.5817389e+00 0.0000000e+00 9.3943578e-01 
8.3166349e-01 0.0000000e+00 8.5090933e+00 
3.4686174e+00 0.0000000e+00 9.1752682e+00 
3.0709300e+00 0.0000000e+00 1.5799091e+00 
3.3927374e+00 0.0000000e+00 3.0399952e+00 
3.3826034e+00 0.0000000e+00 3.9747651e+00 
4.3420062e+00 0.0000000e+00 7.4688983e+00 
3.4023225e+00 0.0000000e+00 4.9314723e+00 
1.6740381e+00 0.0000000e+00 7.3014426e+00 
4.2715640e+00 0.0000000e+00 5.4758859e+00 
1.6225953e+00 0.0000000e+00 5.8104177e+00 
4.2679491e+00 0.0000000e+00 9.2679491e+00 
7.3205084e-01 0.0000000e+00 7.3205084e-01 
4.2679491e+00 0.0000000e+00 7.3205084e-01 
7.3205084e-01 0.0000000e+00 9.2679491e+00 
3.4586334e+00 0.0000000e+00 2.2347178e+00 
2.2895701e+00 0.0000000e+00 1.5463171e+00 
5.0000000e+00 2.2345026e+00 1.5046000e+00 
[...]
POINT_DATA 460
FIELD FieldData 2
DISPLACEMENT 3 460  float
0.0000000e+00 0.0000000e+00 0.0000000e+00 
0.0000000e+00 0.0000000e+00 0.0000000e+00 
0.0000000e+00 1.9281245e-07 0.0000000e+00 
0.0000000e+00 6.1047182e-08 0.0000000e+00 
0.0000000e+00 0.0000000e+00 0.0000000e+00 
0.0000000e+00 0.0000000e+00 0.0000000e+00 
0.0000000e+00 -1.7751124e-07 0.0000000e+00 
0.0000000e+00 -1.2826809e-05 0.0000000e+00 
0.0000000e+00 -1.6490940e-08 0.0000000e+00 
0.0000000e+00 -1.6093177e-08 0.0000000e+00 
0.0000000e+00 -1.4986343e-08 0.0000000e+00 
0.0000000e+00 -1.2933155e-08 0.0000000e+00 
0.0000000e+00 -9.1184491e-09 0.0000000e+00 
0.0000000e+00 -2.1358086e-09 0.0000000e+00 
0.0000000e+00 9.7784554e-09 0.0000000e+00 
0.0000000e+00 2.8081649e-08 0.0000000e+00 
0.0000000e+00 5.2614443e-08 0.0000000e+00 
0.0000000e+00 7.9478710e-08 0.0000000e+00 
0.0000000e+00 9.8620966e-08 0.0000000e+00 
-3.7373457e-08 9.1107665e-08 1.1696077e-07 
-8.9674515e-08 3.6496743e-08 3.3765596e-07 
-1.0499119e-07 -5.9763778e-08 5.1313310e-07 
-1.7676071e-07 -1.9208724e-07 9.0791929e-07 
-3.7764286e-07 -3.7516028e-07 1.6291419e-06 
-5.5689725e-07 -7.9063392e-07 2.6881919e-06 
-5.2007425e-07 -2.0981918e-06 3.7371317e-06 
-2.3838379e-06 -5.9981608e-06 6.4813134e-06 
-2.3621599e-06 -1.6012251e-05 9.7281763e-06 
-4.1509256e-06 -3.8876649e-05 1.5208616e-05 
-4.6312102e-06 -8.3131745e-05 2.1032742e-05 
-2.2592189e-06 -1.5223715e-04 8.0665295e-06 
2.4959361e-06 -2.3207754e-04 4.9707984e-07 
9.9528752e-06 -2.4701818e-04 -9.2677019e-06 
8.7336036e-07 -1.7405946e-04 -8.0090949e-06 
-3.0626077e-06 -9.8330762e-05 -1.2646844e-05 
-2.4068911e-06 -4.7495669e-05 -1.3495323e-05 
-2.7681206e-06 -2.0401107e-05 -8.6838591e-06 
-1.6742052e-06 -8.4345502e-06 -4.0171217e-06 
0.0000000e+00 -3.3264853e-06 0.0000000e+00 
0.0000000e+00 -5.2677501e-07 0.0000000e+00 
0.0000000e+00 7.6459008e-07 0.0000000e+00 
0.0000000e+00 1.1683981e-06 0.0000000e+00 
0.0000000e+00 1.0837091e-06 0.0000000e+00 
0.0000000e+00 7.9573516e-07 0.0000000e+00 
0.0000000e+00 4.7827757e-07 0.0000000e+00 
0.0000000e+00 2.2054347e-07 0.0000000e+00 
0.0000000e+00 5.9103773e-08 0.0000000e+00 
0.0000000e+00 4.6887352e-09 0.0000000e+00 
0.0000000e+00 -1.6263416e-08 0.0000000e+00 
0.0000000e+00 -1.5912139e-08 0.0000000e+00 
0.0000000e+00 -1.4939856e-08 0.0000000e+00 
0.0000000e+00 -1.2971584e-08 0.0000000e+00 
0.0000000e+00 -9.1519947e-09 0.0000000e+00 
0.0000000e+00 -2.1290001e-09 0.0000000e+00 
0.0000000e+00 9.8320081e-09 0.0000000e+00 
0.0000000e+00 2.8198992e-08 0.0000000e+00 
0.0000000e+00 5.2822454e-08 0.0000000e+00 
0.0000000e+00 7.9791157e-08 0.0000000e+00 
0.0000000e+00 9.8576521e-08 0.0000000e+00 
0.0000000e+00 9.0237052e-08 0.0000000e+00 
0.0000000e+00 3.6416584e-08 0.0000000e+00 
0.0000000e+00 -5.9951162e-08 0.0000000e+00 
0.0000000e+00 -1.8871003e-07 0.0000000e+00 
0.0000000e+00 -3.6401966e-07 0.0000000e+00 
0.0000000e+00 -7.6474134e-07 0.0000000e+00 
0.0000000e+00 -2.0470311e-06 0.0000000e+00 
0.0000000e+00 -5.8878290e-06 0.0000000e+00 
0.0000000e+00 -1.5916768e-05 0.0000000e+00 
0.0000000e+00 -3.8907314e-05 0.0000000e+00 
0.0000000e+00 -8.3383165e-05 0.0000000e+00 
0.0000000e+00 -1.5418028e-04 0.0000000e+00 
0.0000000e+00 -2.3578474e-04 0.0000000e+00 
0.0000000e+00 -2.5097147e-04 0.0000000e+00 
0.0000000e+00 -1.7688757e-04 0.0000000e+00 
0.0000000e+00 -9.9341050e-05 0.0000000e+00 
0.0000000e+00 -4.7725975e-05 0.0000000e+00 
0.0000000e+00 -2.0383814e-05 0.0000000e+00 
0.0000000e+00 -8.2913230e-06 0.0000000e+00 
0.0000000e+00 -3.1790514e-06 0.0000000e+00 
0.0000000e+00 -5.2897241e-07 0.0000000e+00 
0.0000000e+00 7.6766287e-07 0.0000000e+00 
0.0000000e+00 1.1731280e-06 0.0000000e+00 
0.0000000e+00 1.0881060e-06 0.0000000e+00 
0.0000000e+00 7.9896898e-07 0.0000000e+00 
0.0000000e+00 4.8022559e-07 0.0000000e+00 
0.0000000e+00 2.2144634e-07 0.0000000e+00 
0.0000000e+00 5.9351564e-08 0.0000000e+00 
0.0000000e+00 4.7156354e-09 0.0000000e+00 
0.0000000e+00 0.0000000e+00 0.0000000e+00 
0.0000000e+00 0.0000000e+00 0.0000000e+00 
0.0000000e+00 0.0000000e+00 0.0000000e+00 
0.0000000e+00 0.0000000e+00 0.0000000e+00 
0.0000000e+00 0.0000000e+00 0.0000000e+00 
0.0000000e+00 0.0000000e+00 0.0000000e+00 
0.0000000e+00 0.0000000e+00 0.0000000e+00 
0.0000000e+00 0.0000000e+00 0.0000000e+00 
0.0000000e+00 0.0000000e+00 0.0000000e+00 
0.0000000e+00 0.0000000e+00 0.0000000e+00 
0.0000000e+00 0.0000000e+00 0.0000000e+00 
0.0000000e+00 0.0000000e+00 0.0000000e+00 
0.0000000e+00 0.0000000e+00 0.0000000e+00 
0.0000000e+00 0.0000000e+00 0.0000000e+00 
0.0000000e+00 0.0000000e+00 0.0000000e+00 
0.0000000e+00 0.0000000e+00 0.0000000e+00 
0.0000000e+00 0.0000000e+00 0.0000000e+00 
0.0000000e+00 0.0000000e+00 0.0000000e+00 
0.0000000e+00 0.0000000e+00 0.0000000e+00 
0.0000000e+00 0.0000000e+00 0.0000000e+00 
0.0000000e+00 0.0000000e+00 0.0000000e+00 
0.0000000e+00 0.0000000e+00 0.0000000e+00 
0.0000000e+00 0.0000000e+00 0.0000000e+00 
0.0000000e+00 8.6215522e-08 0.0000000e+00 
0.0000000e+00 1.6970004e-07 0.0000000e+00 
0.0000000e+00 4.9939892e-08 0.0000000e+00 
0.0000000e+00 1.4141311e-08 0.0000000e+00 
0.0000000e+00 0.0000000e+00 0.0000000e+00 
0.0000000e+00 0.0000000e+00 0.0000000e+00 
0.0000000e+00 0.0000000e+00 0.0000000e+00 
0.0000000e+00 0.0000000e+00 0.0000000e+00 
0.0000000e+00 0.0000000e+00 0.0000000e+00 
0.0000000e+00 0.0000000e+00 0.0000000e+00 
0.0000000e+00 0.0000000e+00 0.0000000e+00 
0.0000000e+00 0.0000000e+00 0.0000000e+00 
0.0000000e+00 0.0000000e+00 0.0000000e+00 
0.0000000e+00 0.0000000e+00 0.0000000e+00 
0.0000000e+00 0.0000000e+00 0.0000000e+00 
0.0000000e+00 0.0000000e+00 0.0000000e+00 
0.0000000e+00 0.0000000e+00 0.0000000e+00 
0.0000000e+00 0.0000000e+00 0.0000000e+00 
0.0000000e+00 0.0000000e+00 0.0000000e+00 
0.0000000e+00 0.0000000e+00 0.0000000e+00 
0.0000000e+00 0.0000000e+00 0.0000000e+00 
0.0000000e+00 0.0000000e+00 0.0000000e+00 
0.0000000e+00 0.0000000e+00 0.0000000e+00 
0.0000000e+00 0.0000000e+00 0.0000000e+00 
0.0000000e+00 0.0000000e+00 0.0000000e+00 
0.0000000e+00 0.0000000e+00 0.0000000e+00 
0.0000000e+00 2.0230755e-07 0.0000000e+00 
0.0000000e+00 2.8710568e-07 0.0000000e+00 
0.0000000e+00 1.2327853e-07 0.0000000e+00 
0.0000000e+00 9.9528883e-08 0.0000000e+00 
0.0000000e+00 -6.2929519e-07 0.0000000e+00 
0.0000000e+00 -2.0731970e-07 0.0000000e+00 
0.0000000e+00 -1.4434114e-06 0.0000000e+00 
0.0000000e+00 -2.4018965e-07 0.0000000e+00 
0.0000000e+00 -4.8253105e-07 0.0000000e+00 
0.0000000e+00 -3.9539370e-07 0.0000000e+00 
0.0000000e+00 -2.5757487e-07 0.0000000e+00 
0.0000000e+00 -4.2073356e-08 0.0000000e+00 
0.0000000e+00 -4.9841037e-07 0.0000000e+00 
0.0000000e+00 -2.5888596e-06 0.0000000e+00 
0.0000000e+00 -1.1576959e-05 0.0000000e+00 
0.0000000e+00 -3.6387737e-05 0.0000000e+00 
0.0000000e+00 -8.0003570e-05 0.0000000e+00 
0.0000000e+00 -1.0422841e-04 0.0000000e+00 
0.0000000e+00 -5.9064667e-05 0.0000000e+00 
0.0000000e+00 -2.3710891e-05 0.0000000e+00 
0.0000000e+00 -1.1616651e-05 0.0000000e+00 
0.0000000e+00 -6.7795222e-06 0.0000000e+00 
0.0000000e+00 2.1089529e-07 0.0000000e+00 
0.0000000e+00 1.9956184e-07 0.0000000e+00 
0.0000000e+00 1.6029792e-07 0.0000000e+00 
0.0000000e+00 -1.2780192e-06 0.0000000e+00 
0.0000000e+00 -4.5304205e-06 0.0000000e+00 
0.0000000e+00 -8.3692294e-06 0.0000000e+00 
0.0000000e+00 1.6094729e-07 0.0000000e+00 
0.0000000e+00 3.5164717e-08 0.0000000e+00 
0.0000000e+00 2.3252895e-07 0.0000000e+00 
0.0000000e+00 1.7609580e-07 0.0000000e+00 
0.0000000e+00 7.5285953e-08 0.0000000e+00 
0.0000000e+00 2.3119918e-07 0.0000000e+00 
0.0000000e+00 5.7603675e-08 0.0000000e+00 
0.0000000e+00 1.0288355e-07 0.0000000e+00 
0.0000000e+00 1.6352097e-07 0.0000000e+00 
0.0000000e+00 1.6042446e-07 0.0000000e+00 
0.0000000e+00 6.3542579e-08 0.0000000e+00 
0.0000000e+00 2.0420975e-07 0.0000000e+00 
0.0000000e+00 1.1308246e-07 0.0000000e+00 
0.0000000e+00 2.3757845e-08 0.0000000e+00 
0.0000000e+00 0.0000000e+00 0.0000000e+00 
0.0000000e+00 0.0000000e+00 0.0000000e+00 
0.0000000e+00 0.0000000e+00 0.0000000e+00 
0.0000000e+00 0.0000000e+00 0.0000000e+00 
0.0000000e+00 0.0000000e+00 0.0000000e+00 
0.0000000e+00 0.0000000e+00 0.0000000e+00 
0.0000000e+00 0.0000000e+00 0.0000000e+00 
0.0000000e+00 0.0000000e+00 0.0000000e+00 
0.0000000e+00 0.0000000e+00 0.0000000e+00 
0.0000000e+00 0.0000000e+00 0.0000000e+00 
0.0000000e+00 0.0000000e+00 0.0000000e+00 
0.0000000e+00 0.0000000e+00 0.0000000e+00 
0.0000000e+00 0.0000000e+00 0.0000000e+00 
0.0000000e+00 0.0000000e+00 0.0000000e+00 
0.0000000e+00 0.0000000e+00 0.0000000e+00 
0.0000000e+00 0.0000000e+00 0.0000000e+00 
0.0000000e+00 0.0000000e+00 0.0000000e+00 
0.0000000e+00 0.0000000e+00 0.0000000e+00 
0.0000000e+00 0.0000000e+00 0.0000000e+00 
0.0000000e+00 0.0000000e+00 0.0000000e+00 
0.0000000e+00 0.0000000e+00 0.0000000e+00 
0.0000000e+00 0.0000000e+00 0.0000000e+00 
0.0000000e+00 0.0000000e+00 0.0000000e+00 
0.0000000e+00 0.0000000e+00 0.0000000e+00 
0.0000000e+00 0.0000000e+00 0.0000000e+00 
0.0000000e+00 0.0000000e+00 0.0000000e+00 
0.0000000e+00 0.0000000e+00 0.0000000e+00 
0.0000000e+00 0.0000000e+00 0.0000000e+00 
0.0000000e+00 0.0000000e+00 0.0000000e+00 
0.0000000e+00 0.0000000e+00 0.0000000e+00 
0.0000000e+00 0.0000000e+00 0.0000000e+00 
0.0000000e+00 0.0000000e+00 0.0000000e+00 
0.0000000e+00 0.0000000e+00 0.0000000e+00 
0.0000000e+00 0.0000000e+00 0.0000000e+00 
0.0000000e+00 0.0000000e+00 0.0000000e+00 
0.0000000e+00 0.0000000e+00 0.0000000e+00 
0.0000000e+00 0.0000000e+00 0.0000000e+00 
0.0000000e+00 0.0000000e+00 0.0000000e+00 
0.0000000e+00 0.0000000e+00 0.0000000e+00 
0.0000000e+00 0.0000000e+00 0.0000000e+00 
0.0000000e+00 0.0000000e+00 0.0000000e+00 
0.0000000e+00 0.0000000e+00 0.0000000e+00 
0.0000000e+00 0.0000000e+00 0.0000000e+00 
0.0000000e+00 0.0000000e+00 0.0000000e+00 
0.0000000e+00 0.0000000e+00 0.0000000e+00 
0.0000000e+00 0.0000000e+00 0.0000000e+00 
0.0000000e+00 0.0000000e+00 0.0000000e+00 
0.0000000e+00 0.0000000e+00 0.0000000e+00 
0.0000000e+00 0.0000000e+00 0.0000000e+00 
0.0000000e+00 2.2881169e-07 0.0000000e+00 
0.0000000e+00 -4.4556199e-07 0.0000000e+00 
0.0000000e+00 1.8746840e-07 0.0000000e+00 
0.0000000e+00 -2.5575099e-07 0.0000000e+00 
0.0000000e+00 -2.6716120e-07 0.0000000e+00 
0.0000000e+00 6.1374465e-08 0.0000000e+00 
0.0000000e+00 -2.9946662e-07 0.0000000e+00 
0.0000000e+00 -1.0310048e-06 0.0000000e+00 
0.0000000e+00 -5.9899207e-08 0.0000000e+00 
0.0000000e+00 -3.6396912e-07 0.0000000e+00 
0.0000000e+00 2.7167425e-07 0.0000000e+00 
0.0000000e+00 1.9968374e-08 0.0000000e+00 
0.0000000e+00 -1.8811889e-07 0.0000000e+00 
0.0000000e+00 -9.3724094e-07 0.0000000e+00 
0.0000000e+00 5.4469886e-08 0.0000000e+00 
0.0000000e+00 -5.2973962e-07 0.0000000e+00 
0.0000000e+00 -3.5840468e-08 0.0000000e+00 
0.0000000e+00 1.4593132e-07 0.0000000e+00 
0.0000000e+00 -3.6274952e-07 0.0000000e+00 
0.0000000e+00 -7.2524887e-07 0.0000000e+00 
0.0000000e+00 1.5712831e-07 0.0000000e+00 
0.0000000e+00 -5.3182424e-07 0.0000000e+00 
0.0000000e+00 -1.6462703e-09 0.0000000e+00 
0.0000000e+00 8.9690758e-08 0.0000000e+00 
0.0000000e+00 -3.0863276e-07 0.0000000e+00 
0.0000000e+00 -1.0965842e-08 0.0000000e+00 
0.0000000e+00 -3.5793568e-07 0.0000000e+00 
0.0000000e+00 1.9484436e-07 0.0000000e+00 
0.0000000e+00 5.2575814e-08 0.0000000e+00 
0.0000000e+00 -1.6301758e-05 0.0000000e+00 
0.0000000e+00 -4.4908870e-08 0.0000000e+00 
0.0000000e+00 -6.3747973e-07 0.0000000e+00 
0.0000000e+00 -8.3198738e-06 0.0000000e+00 
0.0000000e+00 -2.1738710e-05 0.0000000e+00 
0.0000000e+00 -5.2477612e-06 0.0000000e+00 
0.0000000e+00 -4.9107413e-05 0.0000000e+00 
0.0000000e+00 -6.9833462e-05 0.0000000e+00 
0.0000000e+00 -2.6654261e-06 0.0000000e+00 
0.0000000e+00 -1.2169518e-06 0.0000000e+00 
0.0000000e+00 -1.9725032e-05 0.0000000e+00 
0.0000000e+00 -8.1961851e-05 0.0000000e+00 
0.0000000e+00 -4.2388383e-05 0.0000000e+00 
0.0000000e+00 -3.4480890e-05 0.0000000e+00 
0.0000000e+00 -2.3139192e-07 0.0000000e+00 
0.0000000e+00 -1.8394030e-07 0.0000000e+00 
0.0000000e+00 -1.3776549e-05 0.0000000e+00 
0.0000000e+00 -2.2962691e-05 0.0000000e+00 
0.0000000e+00 -2.4030222e-05 0.0000000e+00 
0.0000000e+00 -8.8843271e-06 0.0000000e+00 
0.0000000e+00 -2.3466987e-06 0.0000000e+00 
0.0000000e+00 -5.1388095e-05 0.0000000e+00 
0.0000000e+00 -1.6389729e-05 0.0000000e+00 
0.0000000e+00 -3.5492623e-05 0.0000000e+00 
0.0000000e+00 -4.9171058e-07 0.0000000e+00 
0.0000000e+00 -8.0343598e-06 0.0000000e+00 
0.0000000e+00 6.3688179e-09 0.0000000e+00 
0.0000000e+00 -4.9514334e-08 0.0000000e+00 
0.0000000e+00 -1.7459952e-05 0.0000000e+00 
0.0000000e+00 -4.5334650e-06 0.0000000e+00 
0.0000000e+00 -8.1826272e-07 0.0000000e+00 
0.0000000e+00 -5.4059237e-06 0.0000000e+00 
0.0000000e+00 -6.6886178e-06 0.0000000e+00 
0.0000000e+00 -3.0116471e-06 0.0000000e+00 
0.0000000e+00 -1.5119240e-06 0.0000000e+00 
0.0000000e+00 -1.1067377e-06 0.0000000e+00 
0.0000000e+00 -7.4427621e-06 0.0000000e+00 
0.0000000e+00 -5.5085247e-06 0.0000000e+00 
0.0000000e+00 -2.8757054e-06 0.0000000e+00 
0.0000000e+00 -5.7788185e-07 0.0000000e+00 
0.0000000e+00 -2.7010836e-07 0.0000000e+00 
0.0000000e+00 -7.8073717e-06 0.0000000e+00 
0.0000000e+00 -4.1903254e-06 0.0000000e+00 
-4.4091576e-06 -1.9345393e-05 9.7817538e-06 
-1.2667168e-05 -8.1610597e-05 7.2373114e-06 
-7.1713662e-06 -7.5914089e-05 -8.7242734e-06 
-3.6752340e-07 -5.0246814e-07 1.3850453e-06 
-1.0025573e-06 -2.0455211e-06 3.5682360e-06 
-2.7670665e-06 -1.4997596e-06 1.3203987e-06 
-3.0388287e-07 1.8902223e-07 3.2988214e-07 
-3.3098765e-06 -2.3257032e-06 -3.1860287e-07 
-1.0602147e-07 7.4853951e-08 4.1242359e-07 
-3.9097099e-06 -2.8306296e-05 -8.6746595e-06 
-7.7543127e-08 2.0769298e-07 1.4708340e-07 
-2.5789777e-06 -3.1413624e-06 -1.4783286e-06 
-3.7180012e-06 -2.7048948e-06 -1.7644322e-07 
-7.3797664e-06 -1.0545239e-05 -2.2443688e-08 
-7.5627390e-06 -8.6056716e-06 -2.8387469e-06 
-7.8516596e-06 -2.1631771e-05 -1.7484455e-06 
-9.6175972e-06 -2.2683425e-05 1.2991753e-06 
-7.0048377e-06 -1.6777272e-05 -3.2117030e-06 
-1.4776227e-05 -5.7469228e-05 -5.6247961e-07 
-8.1232665e-06 -9.6188460e-06 2.0487753e-06 
-4.4122444e-06 -5.9867671e-06 2.0597374e-06 
-8.2876031e-06 -1.5392463e-05 3.8423204e-06 
-5.6053741e-06 -1.0416388e-05 5.0553713e-06 
-2.7191884e-06 -3.2898281e-06 2.5310878e-06 
-2.8933105e-06 -4.4738422e-06 3.6403219e-06 
-1.5495079e-06 -1.3432694e-06 1.6225458e-06 
-1.2771033e-06 -1.8375621e-06 2.5179099e-06 
-8.0943255e-07 -6.2143840e-07 1.3192029e-06 
-8.8908314e-07 -5.4098825e-07 1.7093967e-06 
-5.2508580e-07 -1.1448339e-07 8.1712602e-07 
-2.9602697e-07 4.2214214e-08 7.8801622e-07 
-9.5643336e-06 -2.9837160e-05 8.3593031e-06 
-1.1679965e-05 -3.6525773e-05 6.5249701e-06 
-2.2465551e-06 -4.4451058e-06 4.1393964e-06 
-7.7989091e-07 -1.8296876e-07 6.5836502e-07 
-3.4218158e-06 -7.7420909e-06 -1.9958038e-06 
-4.0242894e-06 -9.6127887e-06 5.6301824e-06 
-1.6992050e-06 -6.3132040e-07 1.0475261e-06 
-1.0295775e-07 2.4789486e-07 2.2829583e-07 
-2.8762367e-06 -1.7072128e-06 -1.1608979e-06 
-1.2472828e-05 -4.4298475e-05 -7.5266616e-06 
-1.0359394e-05 -3.0662450e-05 -6.7907299e-06 
-6.3286884e-06 -6.0628234e-05 8.9743371e-06 
-1.1921334e-07 2.5543957e-07 1.2585507e-07 
-6.0166138e-07 -9.4163056e-07 2.1552455e-06 
-1.0472610e-06 -1.3684305e-06 2.5639777e-06 
-1.8397776e-06 -4.7940912e-06 5.4157931e-06 
-3.8416692e-06 -9.8070905e-06 8.5227757e-06 
-8.1567514e-06 -1.0554172e-04 6.6243581e-07 
-1.4439344e-05 -8.4581043e-05 -7.3593228e-06 
-7.6252306e-08 1.5576938e-07 1.9678906e-07 
-2.0062095e-07 -9.0948149e-08 7.0748018e-07 
-3.3917581e-06 -1.2146822e-05 -5.1190668e-06 
-2.1022689e-07 2.5165292e-07 3.5955949e-07 
-5.8902486e-07 -5.9568032e-07 1.5702843e-06 
-7.6374308e-06 -5.0120678e-05 -1.1751198e-05 
-1.5127665e-05 -4.6066143e-05 1.8922478e-06 
-1.8717868e-07 4.4734072e-08 5.4709659e-07 
-6.4003357e-06 -3.7329315e-05 1.1753414e-05 
-5.1212064e-06 -7.0037181e-06 -2.5239299e-06 
-1.4638325e-06 -8.8094112e-07 -7.3619952e-07 
-4.0746407e-08 2.2376898e-07 5.9970411e-08 
-1.7637842e-06 -1.3575482e-06 1.5491569e-06 
-3.2912919e-07 -6.9362130e-08 9.3042837e-07 
-5.4942375e-06 -1.5814268e-05 -5.2765449e-06 
-1.0627909e-05 -2.4274363e-05 2.1721144e-06 
-2.3713783e-07 2.0489038e-07 4.1938432e-07 
-6.0337800e-07 -1.4466143e-07 8.7251823e-07 
-1.0000181e-07 1.9637960e-07 2.6396918e-07 
-6.1596161e-06 -1.9118779e-05 8.7786502e-06 
-2.8143747e-06 -9.8098490e-06 -2.9315959e-06 
-1.0433583e-07 -5.6013516e-07 1.0144414e-06 
-6.8693453e-08 -2.9384816e-07 6.3959573e-07 
-9.4490041e-08 -1.7806112e-06 1.6128022e-06 
-2.0535064e-07 -3.3137387e-06 2.0263124e-06 
-6.4259027e-08 -5.8106782e-08 3.7633257e-07 
-3.2634188e-07 -7.5112539e-06 2.5714412e-06 
-9.6503959e-07 -1.5081132e-05 4.8709740e-06 
-4.4307214e-07 -2.8865064e-05 5.5618875e-06 
-2.9116175e-06 -5.2549651e-05 9.4146972e-06 
-8.2144288e-06 -9.7367854e-05 6.7605665e-06 
-7.7720824e-06 -1.1590072e-04 2.8406553e-06 
-1.2927725e-05 -1.4464433e-04 -1.3506822e-06 
-9.8134706e-06 -1.2843077e-04 -2.7995220e-06 
-5.1672901e-06 -8.6925378e-05 -5.0731001e-06 
-1.8626290e-06 -5.8630507e-05 -8.8546030e-06 
-1.3022590e-06 -3.2530374e-05 -8.7327144e-06 
-1.0636672e-06 -1.5673420e-05 -5.4361253e-06 
-2.4353449e-08 4.7172360e-08 1.5075643e-07 
8.3531887e-08 -1.8298142e-07 -5.7307790e-07 
8.0068457e-07 -2.9910186e-06 -2.4652345e-06 
6.5249296e-06 -2.3505987e-05 -6.6774114e-06 
9.8538621e-06 -3.8448186e-05 9.6326585e-07 
5.3379404e-06 -1.9014651e-05 5.2497080e-06 
3.6801518e-07 -1.3129043e-07 -7.5359577e-07 
1.6306976e-06 -1.6254643e-06 -1.7018015e-06 
6.7751484e-06 -1.2391721e-05 -1.9471165e-06 
1.5276997e-06 -1.4681113e-05 -4.1940075e-06 
-2.7768349e-08 -1.0345404e-06 -1.6925891e-07 
-3.5159911e-08 7.5593654e-08 -1.7780044e-08 
6.3364146e-06 -9.0203202e-06 2.6076914e-06 
5.9856613e-09 1.7009432e-07 -1.5219845e-07 
7.2016369e-06 -7.8903635e-05 -7.2852963e-06 
2.9951450e-06 -6.1684179e-05 7.6724227e-06 
1.7025114e-07 -5.4143497e-06 -4.1493959e-07 
1.4770620e-06 -6.3773896e-06 -2.0886421e-06 
2.1285329e-07 -4.3576983e-07 -6.4393623e-07 
2.2135450e-06 -3.9372324e-05 -5.9473164e-06 
2.7652745e-06 -6.8505910e-06 -4.3021505e-06 
-4.1610811e-08 -1.5569343e-07 1.5110501e-07 
2.5425634e-06 -2.2200311e-06 -1.1558006e-06 
3.1179115e-07 -2.6635409e-05 5.6051776e-06 
1.0938287e-07 1.0075408e-07 -2.1898254e-07 
1.9775284e-06 -2.1422995e-06 8.4234915e-07 
3.1639416e-07 -1.0177661e-06 -1.4350527e-06 
4.6845626e-06 -6.8979261e-06 -3.2067244e-06 
2.4660790e-07 -1.2709674e-07 -6.6600558e-07 
7.8013449e-07 -9.1633046e-07 -1.4998269e-06 
1.6435078e-07 -1.0700444e-06 -2.7877144e-07 
1.8397408e-06 -2.4560477e-06 -5.2771927e-08 
6.0087536e-06 -2.9971856e-05 -3.8114572e-07 
7.2013422e-06 -9.6498807e-05 1.6183463e-06 
3.0816957e-06 -2.2960492e-05 -1.8476136e-06 
3.7303575e-06 -5.3322351e-06 2.3558703e-06 
7.2695852e-06 -2.7433958e-05 2.9947805e-06 
2.1356863e-08 1.3885001e-08 -2.6250015e-07 
3.6380135e-07 1.6797152e-08 -4.1910056e-07 
-3.6140836e-08 -3.5308990e-08 -2.8353560e-07 
5.5776400e-06 -2.7162505e-05 -2.6617986e-06 
6.6819928e-07 -5.3392901e-06 -3.2087353e-06 
1.5831887e-06 -1.0657242e-05 1.6519401e-06 
5.6195227e-06 -2.7688975e-05 5.0249696e-06 
-4.1603977e-07 -4.9356745e-06 6.3668516e-08 
-4.1572157e-08 1.5101257e-07 1.3464696e-08 
1.7178641e-06 -6.0115485e-06 -1.0654692e-06 
3.7779876e-07 -7.5239583e-08 -4.3416037e-07 
6.8007212e-06 -1.5901333e-05 2.4580074e-06 
2.4216571e-09 1.6882244e-07 -1.1466722e-07 
2.6581311e-06 -1.3318653e-05 -5.0932558e-06 
4.7929142e-08 2.3285540e-07 -1.2032277e-07 
3.0211570e-06 -2.7229567e-06 6.2493842e-07 
1.4650475e-06 -2.9450988e-05 1.2858902e-06 
3.3276262e-06 -4.9592425e-05 -1.7373985e-06 
3.3735437e-06 -3.9127059e-05 -6.7183355e-06 
6.7072374e-06 -1.2587603e-05 -2.1878654e-06 
2.3033497e-06 -1.1261039e-05 3.5556341e-06 
4.3135122e-09 2.1398286e-07 -3.9951839e-08 
8.4802821e-08 -4.7531856e-07 -1.0538677e-07 
7.5597166e-07 -4.4792665e-07 -4.9993281e-07 
8.5811865e-07 -3.3127451e-06 -4.3637363e-07 
3.0554572e-06 -3.0079425e-06 -3.0374562e-07 
-1.1603134e-07 -7.0697318e-08 1.6786603e-07 
-4.3913037e-08 -5.3053729e-05 2.3589769e-06 