# vtk DataFile Version 4.0
vtk output
ASCII
DATASET UNSTRUCTURED_GRID
POINTS 460 float
0.0000000e+00 0.0000000e+00 0.0000000e+00 
5.0000000e+00 0.0000000e+00 0.0000000e+00 
5.0000000e+00 3.0000000e+00 0.0000000e+00 
0.0000000e+00 3.0000000e+00 0.0000000e+00 
0.0000000e+00 0.0000000e+00 1.0000000e+01 
5.0000000e+00 0.0000000e+00 1.0000000e+01 
5.0000000e+00 3.0000000e+00 1.0000000e+01 
0.0000000e+00 3.0000000e+00 1.0000000e+01 
1.0000000e+00 3.0000000e+00 -5.0000000e+00 
1.0000000e+00 3.0000000e+00 -4.5000000e+00 
1.0000000e+00 3.0000000e+00 -4.0000000e+00 
1.0000000e+00 3.0000000e+00 -3.5000000e+00 
1.0000000e+00 3.0000000e+00 -3.0000000e+00 
1.0000000e+00 3.0000000e+00 -2.5000000e+00 
1.0000000e+00 3.0000000e+00 -2.0000000e+00 
1.0000000e+00 3.0000000e+00 -1.5000000e+00 
1.0000000e+00 3.0000000e+00 -1.0000000e+00 
1.0000000e+00 3.0000000e+00 -5.0000000e-01 
1.0000000e+00 3.0000000e+00 0.0000000e+00 
1.0000000e+00 3.0000000e+00 5.0000000e-01 
1.0000000e+00 3.0000000e+00 1.0000000e+00 
1.0000000e+00 3.0000000e+00 1.5000000e+00 
1.0000000e+00 3.0000000e+00 2.0000000e+00 
1.0000000e+00 3.0000000e+00 2.5000000e+00 
1.0000000e+00 3.0000000e+00 3.0000000e+00 
1.0000000e+00 3.0000000e+00 3.5000000e+00 
1.0000000e+00 3.0000000e+00 4.0000000e+00 
1.0000000e+00 3.0000000e+00 4.5000000e+00 
1.0000000e+00 3.0000000e+00 5.0000000e+00 
1.0000000e+00 3.0000000e+00 5.5000000e+00 
1.0000000e+00 3.0000000e+00 6.0000000e+00 
1.0000000e+00 3.0000000e+00 6.5000000e+00 
1.0000000e+00 3.0000000e+00 7.0000000e+00 
1.0000000e+00 3.0000000e+00 7.5000000e+00 
1.0000000e+00 3.0000000e+00 8.0000000e+00 
1.0000000e+00 3.0000000e+00 8.5000000e+00 
1.0000000e+00 3.0000000e+00 9.0000000e+00 
1.0000000e+00 3.0000000e+00 9.5000000e+00 
1.0000000e+00 3.0000000e+00 1.0000000e+01 
1.0000000e+00 3.0000000e+00 1.0500000e+01 
1.0000000e+00 3.0000000e+00 1.1000000e+01 
1.0000000e+00 3.0000000e+00 1.1500000e+01 
1.0000000e+00 3.0000000e+00 1.2000000e+01 
1.0000000e+00 3.0000000e+00 1.2500000e+01 
1.0000000e+00 3.0000000e+00 1.3000000e+01 
1.0000000e+00 3.0000000e+00 1.3500000e+01 
1.0000000e+00 3.0000000e+00 1.4000000e+01 
1.0000000e+00 3.0000000e+00 1.4500000e+01 
1.0000000e+00 3.0250001e+00 -5.0000000e+00 
1.0000000e+00 3.0250001e+00 -4.5000000e+00 
1.0000000e+00 3.0250001e+00 -4.0000000e+00 
1.0000000e+00 3.0250001e+00 -3.5000000e+00 
1.0000000e+00 3.0250001e+00 -3.0000000e+00 
1.0000000e+00 3.0250001e+00 -2.5000000e+00 
1.0000000e+00 3.0250001e+00 -2.0000000e+00 
1.0000000e+00 3.0250001e+00 -1.5000000e+00 
1.0000000e+00 3.0250001e+00 -1.0000000e+00 
1.0000000e+00 3.0250001e+00 -5.0000000e-01 
1.0000000e+00 3.0250001e+00 0.0000000e+00 
1.0000000e+00 3.0250001e+00 5.0000000e-01 
1.0000000e+00 3.0250001e+00 1.0000000e+00 
1.0000000e+00 3.0250001e+00 1.5000000e+00 
1.0000000e+00 3.0250001e+00 2.0000000e+00 
1.0000000e+00 3.0250001e+00 2.5000000e+00 
1.0000000e+00 3.0250001e+00 3.0000000e+00 
1.0000000e+00 3.0250001e+00 3.5000000e+00 
1.0000000e+00 3.0250001e+00 4.0000000e+00 
1.0000000e+00 3.0250001e+00 4.5000000e+00 
1.0000000e+00 3.0250001e+00 5.0000000e+00 
1.0000000e+00 3.0250001e+00 5.5000000e+00 
1.0000000e+00 3.0250001e+00 6.0000000e+00 
1.0000000e+00 3.0250001e+00 6.5000000e+00 
1.0000000e+00 3.0250001e+00 7.0000000e+00 
1.0000000e+00 3.0250001e+00 7.5000000e+00 
1.0000000e+00 3.0250001e+00 8.0000000e+00 
1.0000000e+00 3.0250001e+00 8.5000000e+00 
1.0000000e+00 3.0250001e+00 9.0000000e+00 
1.0000000e+00 3.0250001e+00 9.5000000e+00 
1.0000000e+00 3.0250001e+00 1.0000000e+01 
1.0000000e+00 3.0250001e+00 1.0500000e+01 
1.0000000e+00 3.0250001e+00 1.1000000e+01 
1.0000000e+00 3.0250001e+00 1.1500000e+01 
1.0000000e+00 3.0250001e+00 1.2000000e+01 
1.0000000e+00 3.0250001e+00 1.2500000e+01 
1.0000000e+00 3.0250001e+00 1.3000000e+01 
1.0000000e+00 3.0250001e+00 1.3500000e+01 
1.0000000e+00 3.0250001e+00 1.4000000e+01 
1.0000000e+00 3.0250001e+00 1.4500000e+01 
1.0000000e+00 -2.0000000e+00 -5.0000000e+00 
1.0000000e+00 -2.0000000e+00 -4.5000000e+00 
1.0000000e+00 -2.0000000e+00 -4.0000000e+00 
1.0000000e+00 -2.0000000e+00 -3.5000000e+00 
1.0000000e+00 -2.0000000e+00 -3.0000000e+00 
1.0000000e+00 -2.0000000e+00 -2.5000000e+00 
1.0000000e+00 -2.0000000e+00 -2.0000000e+00 
1.0000000e+00 -2.0000000e+00 -1.5000000e+00 
1.0000000e+00 -2.0000000e+00 -1.0000000e+00 
1.0000000e+00 -2.0000000e+00 -5.0000000e-01 
1.0000000e+00 -2.0000000e+00 1.0500000e+01 
1.0000000e+00 -2.0000000e+00 1.1000000e+01 
1.0000000e+00 -2.0000000e+00 1.1500000e+01 
1.0000000e+00 -2.0000000e+00 1.2000000e+01 
1.0000000e+00 -2.0000000e+00 1.2500000e+01 
1.0000000e+00 -2.0000000e+00 1.3000000e+01 
1.0000000e+00 -2.0000000e+00 1.3500000e+01 
1.0000000e+00 -2.0000000e+00 1.4000000e+01 
1.0000000e+00 -2.0000000e+00 1.4500000e+01 
1.0000000e+00 0.0000000e+00 0.0000000e+00 
2.0000000e+00 0.0000000e+00 0.0000000e+00 
3.0000000e+00 0.0000000e+00 0.0000000e+00 
4.0000000e+00 0.0000000e+00 0.0000000e+00 
5.0000000e+00 1.0000000e+00 0.0000000e+00 
5.0000000e+00 2.0000000e+00 0.0000000e+00 
0.0000000e+00 2.0000000e+00 0.0000000e+00 
0.0000000e+00 1.0000000e+00 0.0000000e+00 
0.0000000e+00 0.0000000e+00 1.0000000e+00 
0.0000000e+00 0.0000000e+00 2.0000000e+00 
0.0000000e+00 0.0000000e+00 3.0000000e+00 
0.0000000e+00 0.0000000e+00 4.0000000e+00 
0.0000000e+00 0.0000000e+00 5.0000000e+00 
0.0000000e+00 0.0000000e+00 6.0000000e+00 
0.0000000e+00 0.0000000e+00 7.0000000e+00 
0.0000000e+00 0.0000000e+00 8.0000000e+00 
0.0000000e+00 0.0000000e+00 9.0000000e+00 
5.0000000e+00 0.0000000e+00 1.0000000e+00 
5.0000000e+00 0.0000000e+00 2.0000000e+00 
5.0000000e+00 0.0000000e+00 3.0000000e+00 
5.0000000e+00 0.0000000e+00 4.0000000e+00 
5.0000000e+00 0.0000000e+00 5.0000000e+00 
5.0000000e+00 0.0000000e+00 6.0000000e+00 
5.0000000e+00 0.0000000e+00 7.0000000e+00 
5.0000000e+00 0.0000000e+00 8.0000000e+00 
5.0000000e+00 0.0000000e+00 9.0000000e+00 
1.0000000e+00 0.0000000e+00 1.0000000e+01 
2.0000000e+00 0.0000000e+00 1.0000000e+01 
3.0000000e+00 0.0000000e+00 1.0000000e+01 
4.0000000e+00 0.0000000e+00 1.0000000e+01 
5.0000000e+00 3.0000000e+00 1.0000000e+00 
5.0000000e+00 3.0000000e+00 2.0000000e+00 
5.0000000e+00 3.0000000e+00 3.0000000e+00 
5.0000000e+00 3.0000000e+00 4.0000000e+00 
5.0000000e+00 3.0000000e+00 5.0000000e+00 
5.0000000e+00 3.0000000e+00 6.0000000e+00 
5.0000000e+00 3.0000000e+00 7.0000000e+00 
5.0000000e+00 3.0000000e+00 8.0000000e+00 
5.0000000e+00 3.0000000e+00 9.0000000e+00 
5.0000000e+00 1.0000000e+00 1.0000000e+01 
5.0000000e+00 2.0000000e+00 1.0000000e+01 
0.0000000e+00 3.0000000e+00 1.0000000e+00 
0.0000000e+00 3.0000000e+00 2.0000000e+00 
0.0000000e+00 3.0000000e+00 3.0000000e+00 
0.0000000e+00 3.0000000e+00 4.0000000e+00 
0.0000000e+00 3.0000000e+00 5.0000000e+00 
0.0000000e+00 3.0000000e+00 6.0000000e+00 
0.0000000e+00 3.0000000e+00 7.0000000e+00 
0.0000000e+00 3.0000000e+00 8.0000000e+00 
0.0000000e+00 3.0000000e+00 9.0000000e+00 
0.0000000e+00 2.0000000e+00 1.0000000e+01 
0.0000000e+00 1.0000000e+00 1.0000000e+01 
4.0000000e+00 3.0000000e+00 0.0000000e+00 
3.0000000e+00 3.0000000e+00 0.0000000e+00 
2.0000000e+00 3.0000000e+00 0.0000000e+00 
4.0000000e+00 3.0000000e+00 1.0000000e+01 
3.0000000e+00 3.0000000e+00 1.0000000e+01 
2.0000000e+00 3.0000000e+00 1.0000000e+01 
4.0618000e+00 1.5000000e+00 0.0000000e+00 
1.5046000e+00 7.6549745e-01 0.0000000e+00 
2.5000000e+00 2.1339746e+00 0.0000000e+00 
1.5046000e+00 2.2345026e+00 0.0000000e+00 
2.4957771e+00 8.1560516e-01 0.0000000e+00 
3.4707544e+00 2.2336540e+00 0.0000000e+00 
3.4700506e+00 7.5794268e-01 0.0000000e+00 
8.6322361e-01 1.5000000e+00 0.0000000e+00 
2.0000000e+00 1.5000000e+00 0.0000000e+00 
2.9960666e+00 1.4974480e+00 0.0000000e+00 
4.2679491e+00 7.3205084e-01 0.0000000e+00 
4.2679491e+00 2.2679491e+00 0.0000000e+00 
7.2695929e-01 2.2730408e+00 0.0000000e+00 
7.2695929e-01 7.2695929e-01 0.0000000e+00 
4.1822505e+00 0.0000000e+00 2.5515697e+00 
4.2017918e+00 0.0000000e+00 4.4725966e+00 
4.1114569e+00 0.0000000e+00 6.5092020e+00 
8.6602539e-01 0.0000000e+00 3.5000000e+00 
8.4778279e-01 0.0000000e+00 5.4684029e+00 
8.9629614e-01 0.0000000e+00 7.5867257e+00 
2.5566745e+00 0.0000000e+00 8.1853306e-01 
2.4918270e+00 0.0000000e+00 9.1386929e+00 
8.4677207e-01 0.0000000e+00 1.5042374e+00 
4.0943027e+00 0.0000000e+00 8.4081745e+00 
8.6281651e-01 0.0000000e+00 2.5007062e+00 
1.7315160e+00 0.0000000e+00 3.0001178e+00 
1.7319617e+00 0.0000000e+00 4.0000196e+00 
2.5980761e+00 0.0000000e+00 3.5000000e+00 
2.5536871e+00 0.0000000e+00 4.4963923e+00 
2.5928419e+00 0.0000000e+00 2.4239938e+00 
1.5037409e+00 0.0000000e+00 9.1535149e+00 
1.8433737e+00 0.0000000e+00 8.1858873e+00 
3.0000000e+00 0.0000000e+00 8.2679491e+00 
2.5000000e+00 0.0000000e+00 7.4019237e+00 
3.5042722e+00 0.0000000e+00 7.4271150e+00 
3.0310018e+00 0.0000000e+00 6.5282087e+00 
2.0373929e+00 0.0000000e+00 6.5307913e+00 
3.4767809e+00 0.0000000e+00 5.8031492e+00 
2.5452602e+00 0.0000000e+00 5.5720768e+00 
1.6456656e+00 0.0000000e+00 1.9697139e+00 
8.6297011e-01 0.0000000e+00 4.4947371e+00 
1.0111579e+00 0.0000000e+00 6.5282545e+00 
3.4994321e+00 0.0000000e+00 8.4691072e-01 
4.1860156e+00 0.0000000e+00 3.5040276e+00 
1.7320508e+00 0.0000000e+00 5.0000000e+00 
4.0544066e+00 0.0000000e+00 1.5781221e+00 
1.5817389e+00 0.0000000e+00 9.3943578e-01 
8.3166349e-01 0.0000000e+00 8.5090933e+00 
3.4686174e+00 0.0000000e+00 9.1752682e+00 
3.0709300e+00 0.0000000e+00 1.5799091e+00 
3.3927374e+00 0.0000000e+00 3.0399952e+00 
3.3826034e+00 0.0000000e+00 3.9747651e+00 
4.3420062e+00 0.0000000e+00 7.4688983e+00 
3.4023225e+00 0.0000000e+00 4.9314723e+00 
1.6740381e+00 0.0000000e+00 7.3014426e+00 
4.2715640e+00 0.0000000e+00 5.4758859e+00 
1.6225953e+00 0.0000000e+00 5.8104177e+00 
4.2679491e+00 0.0000000e+00 9.2679491e+00 
7.3205084e-01 0.0000000e+00 7.3205084e-01 
4.2679491e+00 0.0000000e+00 7.3205084e-01 
7.3205084e-01 0.0000000e+00 9.2679491e+00 
3.4586334e+00 0.0000000e+00 2.2347178e+00 
2.2895701e+00 0.0000000e+00 1.5463171e+00 
5.0000000e+00 2.2345026e+00 1.5046000e+00 
[...]
POINT_DATA 460
FIELD FieldData 2
DISPLACEMENT 3 460  float
0.0000000e+00 0.0000000e+00 0.0000000e+00 
0.0000000e+00 0.0000000e+00 0.0000000e+00 
0.0000000e+00 -5.3389432e-10 0.0000000e+00 
0.0000000e+00 2.1571018e-09 0.0000000e+00 
0.0000000e+00 0.0000000e+00 0.0000000e+00 
0.0000000e+00 0.0000000e+00 0.0000000e+00 
0.0000000e+00 3.2964738e-08 0.0000000e+00 
0.0000000e+00 -6.3186098e-06 0.0000000e+00 
0.0000000e+00 -5.6690586e-09 0.0000000e+00 
0.0000000e+00 -5.5450928e-09 0.0000000e+00 
0.0000000e+00 -5.1583462e-09 0.0000000e+00 
0.0000000e+00 -4.5085513e-09 0.0000000e+00 
0.0000000e+00 -3.6116596e-09 0.0000000e+00 
0.0000000e+00 -2.5039517e-09 0.0000000e+00 
0.0000000e+00 -1.2557486e-09 0.0000000e+00 
0.0000000e+00 2.3204366e-11 0.0000000e+00 
0.0000000e+00 1.1873696e-09 0.0000000e+00 
0.0000000e+00 2.0656044e-09 0.0000000e+00 
0.0000000e+00 2.4545630e-09 0.0000000e+00 
9.5390348e-11 2.2602935e-09 4.9332005e-10 
-5.3115966e-11 1.0145468e-09 1.2506698e-09 
-1.7170218e-10 -1.5836993e-09 1.4376397e-09 
-5.1795568e-10 -6.0133205e-09 1.5871116e-09 
-8.8880198e-10 -1.1323880e-08 -8.9187829e-10 
-1.4970121e-09 -1.4812595e-08 -5.8219998e-09 
-2.1464592e-09 -1.0464827e-08 -1.3468565e-08 
2.5272699e-09 1.0602897e-08 -2.7128495e-08 
3.1743739e-09 5.8268554e-08 -4.2346599e-08 
4.1546930e-09 1.3631589e-07 -4.2465402e-08 
-1.7910149e-09 2.3591839e-07 -2.1439659e-08 
-2.1682980e-09 3.1510282e-07 4.9259782e-08 
-4.6347118e-08 2.7163276e-07 1.9643785e-07 
-5.7428693e-08 -8.3468983e-08 4.2295477e-07 
-1.1997315e-07 -1.0081200e-06 6.2265912e-07 
-1.7474527e-07 -2.7551343e-06 7.8869181e-07 
-2.9594401e-07 -5.2115142e-06 1.3566699e-06 
-6.2475141e-07 -7.4819945e-06 1.0068276e-06 
-3.0460538e-07 -7.4635550e-06 1.1489726e-06 
0.0000000e+00 -1.3939659e-06 0.0000000e+00 
0.0000000e+00 1.7358816e-05 0.0000000e+00 
0.0000000e+00 4.8926890e-05 0.0000000e+00 
0.0000000e+00 9.2937305e-05 0.0000000e+00 
0.0000000e+00 1.4624858e-04 0.0000000e+00 
0.0000000e+00 2.0336812e-04 0.0000000e+00 
0.0000000e+00 2.5706852e-04 0.0000000e+00 
0.0000000e+00 2.9978741e-04 0.0000000e+00 
0.0000000e+00 3.2577961e-04 0.0000000e+00 
0.0000000e+00 3.3370793e-04 0.0000000e+00 
0.0000000e+00 -5.5628497e-09 0.0000000e+00 
0.0000000e+00 -5.4724905e-09 0.0000000e+00 
0.0000000e+00 -5.1532196e-09 0.0000000e+00 
0.0000000e+00 -4.5260489e-09 0.0000000e+00 
0.0000000e+00 -3.6172483e-09 0.0000000e+00 
0.0000000e+00 -2.5014586e-09 0.0000000e+00 
0.0000000e+00 -1.2544493e-09 0.0000000e+00 
0.0000000e+00 2.2611964e-11 0.0000000e+00 
0.0000000e+00 1.1868379e-09 0.0000000e+00 
0.0000000e+00 2.0650903e-09 0.0000000e+00 
0.0000000e+00 2.4791460e-09 0.0000000e+00 
0.0000000e+00 2.2343245e-09 0.0000000e+00 
0.0000000e+00 9.9509812e-10 0.0000000e+00 
0.0000000e+00 -1.6839815e-09 0.0000000e+00 
0.0000000e+00 -6.1213568e-09 0.0000000e+00 
0.0000000e+00 -1.1468154e-08 0.0000000e+00 
0.0000000e+00 -1.4860685e-08 0.0000000e+00 
0.0000000e+00 -1.0270520e-08 0.0000000e+00 
0.0000000e+00 1.1322586e-08 0.0000000e+00 
0.0000000e+00 5.9401490e-08 0.0000000e+00 
0.0000000e+00 1.3865454e-07 0.0000000e+00 
0.0000000e+00 2.3918955e-07 0.0000000e+00 
0.0000000e+00 3.1682396e-07 0.0000000e+00 
0.0000000e+00 2.6901265e-07 0.0000000e+00 
0.0000000e+00 -9.4220354e-08 0.0000000e+00 
0.0000000e+00 -1.0382458e-06 0.0000000e+00 
0.0000000e+00 -2.7964315e-06 0.0000000e+00 
0.0000000e+00 -5.2514733e-06 0.0000000e+00 
0.0000000e+00 -7.4847480e-06 0.0000000e+00 
0.0000000e+00 -7.3908063e-06 0.0000000e+00 
0.0000000e+00 -8.8204712e-07 0.0000000e+00 
0.0000000e+00 1.7325880e-05 0.0000000e+00 
0.0000000e+00 4.8839902e-05 0.0000000e+00 
0.0000000e+00 9.2801092e-05 0.0000000e+00 
0.0000000e+00 1.4611328e-04 0.0000000e+00 
0.0000000e+00 2.0333061e-04 0.0000000e+00 
0.0000000e+00 2.5723816e-04 0.0000000e+00 
0.0000000e+00 3.0021934e-04 0.0000000e+00 
0.0000000e+00 3.2641421e-04 0.0000000e+00 
0.0000000e+00 3.3440211e-04 0.0000000e+00 
0.0000000e+00 0.0000000e+00 0.0000000e+00 
0.0000000e+00 0.0000000e+00 0.0000000e+00 
0.0000000e+00 0.0000000e+00 0.0000000e+00 
0.0000000e+00 0.0000000e+00 0.0000000e+00 
0.0000000e+00 0.0000000e+00 0.0000000e+00 
0.0000000e+00 0.0000000e+00 0.0000000e+00 
0.0000000e+00 0.0000000e+00 0.0000000e+00 
0.0000000e+00 0.0000000e+00 0.0000000e+00 
0.0000000e+00 0.0000000e+00 0.0000000e+00 
0.0000000e+00 0.0000000e+00 0.0000000e+00 
0.0000000e+00 0.0000000e+00 0.0000000e+00 
0.0000000e+00 0.0000000e+00 0.0000000e+00 
0.0000000e+00 0.0000000e+00 0.0000000e+00 
0.0000000e+00 0.0000000e+00 0.0000000e+00 
0.0000000e+00 0.0000000e+00 0.0000000e+00 
0.0000000e+00 0.0000000e+00 0.0000000e+00 
0.0000000e+00 0.0000000e+00 0.0000000e+00 
0.0000000e+00 0.0000000e+00 0.0000000e+00 
0.0000000e+00 0.0000000e+00 0.0000000e+00 
0.0000000e+00 0.0000000e+00 0.0000000e+00 
0.0000000e+00 0.0000000e+00 0.0000000e+00 
0.0000000e+00 0.0000000e+00 0.0000000e+00 
0.0000000e+00 0.0000000e+00 0.0000000e+00 
0.0000000e+00 -1.8149912e-10 0.0000000e+00 
0.0000000e+00 -3.6067879e-10 0.0000000e+00 
0.0000000e+00 1.7861037e-09 0.0000000e+00 
0.0000000e+00 9.7825437e-10 0.0000000e+00 
0.0000000e+00 0.0000000e+00 0.0000000e+00 
0.0000000e+00 0.0000000e+00 0.0000000e+00 
0.0000000e+00 0.0000000e+00 0.0000000e+00 
0.0000000e+00 0.0000000e+00 0.0000000e+00 
0.0000000e+00 0.0000000e+00 0.0000000e+00 
0.0000000e+00 0.0000000e+00 0.0000000e+00 
0.0000000e+00 0.0000000e+00 0.0000000e+00 
0.0000000e+00 0.0000000e+00 0.0000000e+00 
0.0000000e+00 0.0000000e+00 0.0000000e+00 
0.0000000e+00 0.0000000e+00 0.0000000e+00 
0.0000000e+00 0.0000000e+00 0.0000000e+00 
0.0000000e+00 0.0000000e+00 0.0000000e+00 
0.0000000e+00 0.0000000e+00 0.0000000e+00 
0.0000000e+00 0.0000000e+00 0.0000000e+00 
0.0000000e+00 0.0000000e+00 0.0000000e+00 
0.0000000e+00 0.0000000e+00 0.0000000e+00 
0.0000000e+00 0.0000000e+00 0.0000000e+00 
0.0000000e+00 0.0000000e+00 0.0000000e+00 
0.0000000e+00 0.0000000e+00 0.0000000e+00 
0.0000000e+00 0.0000000e+00 0.0000000e+00 
0.0000000e+00 0.0000000e+00 0.0000000e+00 
0.0000000e+00 0.0000000e+00 0.0000000e+00 
0.0000000e+00 9.4995962e-11 0.0000000e+00 
0.0000000e+00 3.6752648e-10 0.0000000e+00 
0.0000000e+00 -2.0488775e-09 0.0000000e+00 
0.0000000e+00 -4.8847824e-09 0.0000000e+00 
0.0000000e+00 3.9093813e-09 0.0000000e+00 
0.0000000e+00 3.6890206e-08 0.0000000e+00 
0.0000000e+00 6.1984800e-08 0.0000000e+00 
0.0000000e+00 1.0095840e-07 0.0000000e+00 
0.0000000e+00 2.3606765e-08 0.0000000e+00 
0.0000000e+00 -1.2520570e-09 0.0000000e+00 
0.0000000e+00 1.7656808e-08 0.0000000e+00 
0.0000000e+00 1.0899680e-09 0.0000000e+00 
0.0000000e+00 -4.3277639e-09 0.0000000e+00 
0.0000000e+00 -9.6918606e-09 0.0000000e+00 
0.0000000e+00 1.1748567e-08 0.0000000e+00 
0.0000000e+00 9.6015370e-08 0.0000000e+00 
0.0000000e+00 1.9478087e-07 0.0000000e+00 
0.0000000e+00 -1.9932091e-07 0.0000000e+00 
0.0000000e+00 -1.8751781e-06 0.0000000e+00 
0.0000000e+00 -4.7972076e-06 0.0000000e+00 
0.0000000e+00 -4.7123963e-06 0.0000000e+00 
0.0000000e+00 -2.4204369e-06 0.0000000e+00 
0.0000000e+00 -1.8059954e-10 0.0000000e+00 
0.0000000e+00 3.2321848e-10 0.0000000e+00 
0.0000000e+00 1.1234350e-09 0.0000000e+00 
0.0000000e+00 -1.7526490e-07 0.0000000e+00 
0.0000000e+00 -1.0317304e-06 0.0000000e+00 
0.0000000e+00 -3.3187780e-06 0.0000000e+00 
0.0000000e+00 -7.7835467e-11 0.0000000e+00 
0.0000000e+00 5.7692939e-10 0.0000000e+00 
0.0000000e+00 9.2124380e-10 0.0000000e+00 
0.0000000e+00 1.7907954e-09 0.0000000e+00 
0.0000000e+00 4.4091902e-10 0.0000000e+00 
0.0000000e+00 1.4023889e-10 0.0000000e+00 
0.0000000e+00 5.1810431e-11 0.0000000e+00 
0.0000000e+00 1.5682917e-09 0.0000000e+00 
0.0000000e+00 1.0685500e-09 0.0000000e+00 
0.0000000e+00 4.3767601e-10 0.0000000e+00 
0.0000000e+00 -1.0076829e-10 0.0000000e+00 
0.0000000e+00 -3.0973638e-10 0.0000000e+00 
0.0000000e+00 2.1300544e-09 0.0000000e+00 
0.0000000e+00 7.7382517e-10 0.0000000e+00 
0.0000000e+00 0.0000000e+00 0.0000000e+00 
0.0000000e+00 0.0000000e+00 0.0000000e+00 
0.0000000e+00 0.0000000e+00 0.0000000e+00 
0.0000000e+00 0.0000000e+00 0.0000000e+00 
0.0000000e+00 0.0000000e+00 0.0000000e+00 
0.0000000e+00 0.0000000e+00 0.0000000e+00 
0.0000000e+00 0.0000000e+00 0.0000000e+00 
0.0000000e+00 0.0000000e+00 0.0000000e+00 
0.0000000e+00 0.0000000e+00 0.0000000e+00 
0.0000000e+00 0.0000000e+00 0.0000000e+00 
0.0000000e+00 0.0000000e+00 0.0000000e+00 
0.0000000e+00 0.0000000e+00 0.0000000e+00 
0.0000000e+00 0.0000000e+00 0.0000000e+00 
0.0000000e+00 0.0000000e+00 0.0000000e+00 
0.0000000e+00 0.0000000e+00 0.0000000e+00 
0.0000000e+00 0.0000000e+00 0.0000000e+00 
0.0000000e+00 0.0000000e+00 0.0000000e+00 
0.0000000e+00 0.0000000e+00 0.0000000e+00 
0.0000000e+00 0.0000000e+00 0.0000000e+00 
0.0000000e+00 0.0000000e+00 0.0000000e+00 
0.0000000e+00 0.0000000e+00 0.0000000e+00 
0.0000000e+00 0.0000000e+00 0.0000000e+00 
0.0000000e+00 0.0000000e+00 0.0000000e+00 
0.0000000e+00 0.0000000e+00 0.0000000e+00 
0.0000000e+00 0.0000000e+00 0.0000000e+00 
0.0000000e+00 0.0000000e+00 0.0000000e+00 
0.0000000e+00 0.0000000e+00 0.0000000e+00 
0.0000000e+00 0.0000000e+00 0.0000000e+00 
0.0000000e+00 0.0000000e+00 0.0000000e+00 
0.0000000e+00 0.0000000e+00 0.0000000e+00 
0.0000000e+00 0.0000000e+00 0.0000000e+00 
0.0000000e+00 0.0000000e+00 0.0000000e+00 
0.0000000e+00 0.0000000e+00 0.0000000e+00 
0.0000000e+00 0.0000000e+00 0.0000000e+00 
0.0000000e+00 0.0000000e+00 0.0000000e+00 
0.0000000e+00 0.0000000e+00 0.0000000e+00 
0.0000000e+00 0.0000000e+00 0.0000000e+00 
0.0000000e+00 0.0000000e+00 0.0000000e+00 
0.0000000e+00 0.0000000e+00 0.0000000e+00 
0.0000000e+00 0.0000000e+00 0.0000000e+00 
0.0000000e+00 0.0000000e+00 0.0000000e+00 
0.0000000e+00 0.0000000e+00 0.0000000e+00 
0.0000000e+00 0.0000000e+00 0.0000000e+00 
0.0000000e+00 0.0000000e+00 0.0000000e+00 
0.0000000e+00 0.0000000e+00 0.0000000e+00 
0.0000000e+00 0.0000000e+00 0.0000000e+00 
0.0000000e+00 0.0000000e+00 0.0000000e+00 
0.0000000e+00 0.0000000e+00 0.0000000e+00 
0.0000000e+00 0.0000000e+00 0.0000000e+00 
0.0000000e+00 4.1852824e-10 0.0000000e+00 
0.0000000e+00 3.5796567e-08 0.0000000e+00 
0.0000000e+00 -4.2655905e-09 0.0000000e+00 
0.0000000e+00 1.2756155e-08 0.0000000e+00 
0.0000000e+00 7.6964234e-08 0.0000000e+00 
0.0000000e+00 -2.7946651e-10 0.0000000e+00 
0.0000000e+00 -2.6020626e-09 0.0000000e+00 
0.0000000e+00 2.0395726e-08 0.0000000e+00 
0.0000000e+00 -2.1442799e-09 0.0000000e+00 
0.0000000e+00 4.0796020e-09 0.0000000e+00 
0.0000000e+00 -4.3635937e-10 0.0000000e+00 
0.0000000e+00 -3.8208268e-09 0.0000000e+00 
0.0000000e+00 5.8670874e-08 0.0000000e+00 
0.0000000e+00 2.7903486e-08 0.0000000e+00 
0.0000000e+00 7.4732179e-11 0.0000000e+00 
0.0000000e+00 1.4864338e-08 0.0000000e+00 
0.0000000e+00 1.1230679e-07 0.0000000e+00 
0.0000000e+00 1.7689634e-11 0.0000000e+00 
0.0000000e+00 1.8013663e-09 0.0000000e+00 
0.0000000e+00 5.9326659e-08 0.0000000e+00 
0.0000000e+00 2.0589570e-10 0.0000000e+00 
0.0000000e+00 2.2629107e-08 0.0000000e+00 
0.0000000e+00 -4.5962469e-09 0.0000000e+00 
0.0000000e+00 -1.8265327e-09 0.0000000e+00 
0.0000000e+00 7.7677022e-08 0.0000000e+00 
0.0000000e+00 6.6298853e-08 0.0000000e+00 
0.0000000e+00 2.2287622e-08 0.0000000e+00 
0.0000000e+00 -1.3508780e-10 0.0000000e+00 
0.0000000e+00 -2.9136766e-11 0.0000000e+00 
0.0000000e+00 -3.0222920e-06 0.0000000e+00 
0.0000000e+00 7.9229551e-10 0.0000000e+00 
0.0000000e+00 -2.9853673e-09 0.0000000e+00 
0.0000000e+00 1.7311590e-08 0.0000000e+00 
0.0000000e+00 -3.6827865e-07 0.0000000e+00 
0.0000000e+00 -5.8228879e-09 0.0000000e+00 
0.0000000e+00 1.4293744e-07 0.0000000e+00 
0.0000000e+00 -7.2959733e-07 0.0000000e+00 
0.0000000e+00 -2.2739721e-09 0.0000000e+00 
0.0000000e+00 -7.5342248e-09 0.0000000e+00 
0.0000000e+00 4.1962924e-08 0.0000000e+00 
0.0000000e+00 1.0988794e-07 0.0000000e+00 
0.0000000e+00 8.0666275e-08 0.0000000e+00 
0.0000000e+00 -3.0033857e-06 0.0000000e+00 
0.0000000e+00 -1.0912650e-09 0.0000000e+00 
0.0000000e+00 -6.6914313e-10 0.0000000e+00 
0.0000000e+00 -9.1050663e-07 0.0000000e+00 
0.0000000e+00 6.2523043e-08 0.0000000e+00 
0.0000000e+00 8.5250135e-10 0.0000000e+00 
0.0000000e+00 7.8877624e-09 0.0000000e+00 
0.0000000e+00 -7.2088029e-09 0.0000000e+00 
0.0000000e+00 -1.7023962e-07 0.0000000e+00 
0.0000000e+00 4.8576062e-08 0.0000000e+00 
0.0000000e+00 -1.2758551e-06 0.0000000e+00 
0.0000000e+00 -3.0806799e-09 0.0000000e+00 
0.0000000e+00 -1.5003164e-06 0.0000000e+00 
0.0000000e+00 1.5389453e-09 0.0000000e+00 
0.0000000e+00 4.0937162e-10 0.0000000e+00 
0.0000000e+00 -4.8589982e-06 0.0000000e+00 
0.0000000e+00 -1.2591285e-06 0.0000000e+00 
0.0000000e+00 -9.0220311e-08 0.0000000e+00 
0.0000000e+00 -1.8161637e-06 0.0000000e+00 
0.0000000e+00 -4.0321793e-06 0.0000000e+00 
0.0000000e+00 -6.6531078e-07 0.0000000e+00 
0.0000000e+00 -5.2259577e-07 0.0000000e+00 
0.0000000e+00 -2.4659786e-07 0.0000000e+00 
0.0000000e+00 -3.4865086e-06 0.0000000e+00 
0.0000000e+00 -1.9756812e-06 0.0000000e+00 
0.0000000e+00 -7.8366412e-07 0.0000000e+00 
0.0000000e+00 -5.0045013e-08 0.0000000e+00 
0.0000000e+00 -6.7085139e-08 0.0000000e+00 
0.0000000e+00 -5.0218487e-06 0.0000000e+00 
0.0000000e+00 -1.6768814e-06 0.0000000e+00 
9.1077519e-09 6.0505826e-08 -3.8470027e-08 
-1.1872684e-08 1.5909318e-07 9.3837308e-08 
-2.3680299e-07 -1.1514126e-06 6.3281954e-07 
-1.1703486e-09 -4.9274584e-09 -6.0506122e-10 
-5.2894622e-10 -9.8490860e-09 -1.1494001e-08 
9.6568344e-09 2.9181237e-08 -1.2287231e-08 
6.7130818e-10 -7.7716911e-10 -9.4868458e-10 
-5.1638910e-08 9.1313957e-08 4.9369650e-08 
-1.5662115e-10 2.2364562e-10 1.0823463e-09 
-5.9044783e-07 -3.9064389e-06 8.5986335e-07 
-3.7278555e-11 2.3647842e-10 1.0431873e-10 
-3.4586765e-07 -4.6870773e-07 9.1459576e-08 
-2.2167544e-08 6.1279017e-08 1.5514466e-08 
-6.4581144e-08 6.9136661e-08 1.0342166e-07 
-2.4484203e-07 -5.9765000e-08 2.5295202e-07 
-1.5096531e-07 -3.0959114e-08 1.6234509e-07 
-3.6311377e-08 8.9235449e-08 5.4634583e-08 
-4.0867019e-07 -6.9593176e-07 3.2262597e-07 
-1.1847320e-07 7.2378858e-09 2.8371770e-07 
4.4616031e-09 6.9115266e-08 2.1808299e-08 
1.1838099e-08 3.0007367e-08 -1.3226093e-08 
1.9437351e-08 7.1444994e-08 -1.4952839e-08 
1.5617115e-08 3.8228780e-08 -2.9200553e-08 
9.3858112e-09 7.5442887e-09 -1.9430766e-08 
7.8938358e-09 4.4560817e-09 -2.2058357e-08 
5.0848867e-09 -2.3465936e-09 -1.0112040e-08 
1.8500661e-09 -4.7919229e-09 -1.0872232e-08 
1.1957180e-09 -3.6162222e-09 -4.4348250e-09 
3.3718384e-10 -4.1836263e-09 -4.0544044e-09 
1.3252092e-10 -1.2769155e-09 -9.8820407e-10 
-5.0375226e-10 -1.0777121e-09 -7.2826495e-11 
1.7921897e-08 1.0939825e-07 -1.8047976e-08 
1.1751030e-08 1.3863422e-07 7.2876389e-09 
3.4854215e-09 -1.0555605e-09 -2.0566848e-08 
2.8845308e-09 -4.1936761e-09 -3.6070633e-09 
-4.5536598e-07 -1.4722149e-06 1.9346706e-07 
1.1165850e-08 2.5067715e-08 -3.3755420e-08 
7.2861059e-09 1.0501124e-09 -1.2020839e-08 
-5.4438610e-11 6.9360295e-10 4.3313311e-10 
-1.9541885e-07 -1.6239337e-08 8.4576477e-08 
-3.1792445e-07 -4.9022435e-07 5.0656018e-07 
-4.4584908e-07 -1.4069732e-06 5.7279732e-07 
1.7820800e-09 1.8879636e-07 2.6767788e-09 
-5.9544619e-11 4.3169199e-10 -1.2928340e-10 
-1.1093151e-09 -8.6526066e-09 -4.1453196e-09 
2.0399708e-10 -7.8013125e-09 -8.0881115e-09 
1.9040209e-09 1.4801915e-10 -2.2389331e-08 
6.3478764e-09 2.0975525e-08 -3.4229235e-08 
-6.9175172e-08 6.7112332e-08 2.2411717e-07 
-1.8866480e-07 -4.3963661e-07 4.9647474e-07 
6.9536710e-11 1.6994764e-09 7.2421780e-10 
-7.1966860e-10 -2.1258577e-09 8.6169949e-10 
-6.4593155e-07 -5.1785823e-06 6.1349795e-07 
-1.4773299e-10 1.4069266e-13 3.1431069e-10 
-8.9220364e-10 -4.4822430e-09 -2.0425497e-09 
-5.3900669e-07 -2.4422241e-06 8.6671753e-07 
-4.7668397e-08 9.4009266e-08 1.3793243e-07 
-4.3753901e-10 -3.0407613e-10 9.1691932e-10 
1.3205208e-08 1.2020719e-07 -3.6122763e-08 
-3.6950601e-07 -4.0358026e-07 2.3618148e-07 
-1.7007187e-07 -6.0970862e-08 4.8014286e-08 
3.0559372e-12 -9.7906870e-11 -6.8016870e-11 
6.8201147e-09 -1.3917966e-09 -1.1565808e-08 
-7.8677642e-10 -2.5101650e-09 3.9608219e-10 
-6.9769692e-07 -2.3620232e-06 5.7244904e-07 
-4.3964494e-09 1.1919256e-07 3.0463436e-08 
3.5734381e-11 -8.0931969e-11 -5.3090421e-10 
1.5479414e-09 -2.3286848e-09 -3.1957057e-09 
-3.0014186e-11 9.3109559e-10 7.4718604e-10 
1.6440891e-08 6.1158289e-08 -3.8283485e-08 
-4.9895448e-07 -3.1899149e-06 3.2373325e-07 
-9.7037922e-10 -6.5561467e-09 6.1245176e-11 
-3.5986752e-10 -2.7635589e-09 1.0748514e-09 
-1.5851465e-09 -9.0034877e-09 -2.3371747e-09 
-2.1302635e-09 -1.0191719e-08 -5.5662599e-09 
-1.3482265e-10 7.4458481e-11 1.0297793e-09 
-1.8571483e-09 1.7784475e-09 -1.1363295e-08 
-1.1051738e-09 2.9604367e-08 -2.1299289e-08 
-1.8534607e-09 7.9164380e-08 -2.1904832e-08 
8.3384046e-09 1.3918365e-07 1.9361808e-09 
4.1048254e-09 2.2215197e-07 6.2445793e-08 
1.2392419e-08 2.0195448e-07 1.1754666e-07 
-2.8986380e-09 8.9823073e-09 2.6874434e-07 
-4.1691592e-08 -4.7969888e-07 4.0611499e-07 
-1.5797498e-07 -1.7058943e-06 5.6582496e-07 
-1.9843603e-07 -2.8908753e-06 7.3863760e-07 
-2.4908539e-07 -4.7134959e-06 8.0254796e-07 
-1.8712515e-07 -6.2873519e-06 6.8896895e-07 
6.2771566e-11 1.8240799e-09 6.0233102e-10 
1.9181261e-10 -2.6094331e-09 -1.3501708e-09 
-5.1315840e-10 -4.3207660e-09 -8.4126961e-10 
-2.8067224e-09 8.9185576e-08 -3.4966273e-08 
8.6201389e-08 -7.2484042e-08 -2.5880286e-07 
3.0536293e-07 -1.5047760e-06 -4.7878564e-07 
4.8844101e-10 -2.7728446e-09 -1.3520831e-09 
7.9179407e-10 -9.3262831e-10 -3.1753609e-09 
2.5289376e-08 7.9451873e-08 -6.7354883e-08 
-3.8441361e-09 3.6104197e-08 -7.1700894e-09 
-5.5201171e-10 -8.9920027e-09 -2.8199181e-09 
-8.6175338e-11 2.6723515e-10 -6.0212402e-10 
1.8052329e-07 -5.4654837e-08 -2.0897970e-07 
2.1872140e-11 6.1005222e-11 -3.2139416e-10 
1.2930540e-08 1.6259065e-07 -8.9974179e-08 
2.5374584e-08 -1.1073382e-06 -2.9608623e-07 
-1.4559531e-09 -4.0405013e-09 -5.8144374e-09 
2.1856954e-09 1.3012472e-08 -9.1158041e-09 
4.3124401e-10 -5.7600684e-09 -1.7568450e-09 
-1.0015749e-09 1.3219491e-07 -2.6141008e-08 
-6.8004598e-09 1.6816033e-08 7.1314059e-11 
-2.5131899e-10 -3.8672776e-09 -1.0787130e-09 
4.3048547e-09 1.3080149e-08 -9.1752597e-09 
9.5084069e-08 -3.7707391e-06 -4.1989836e-07 
2.4907346e-10 4.3221531e-11 -3.3919098e-10 
1.4149710e-07 -1.2877148e-07 -6.7820551e-08 
1.3100304e-10 -4.2918455e-09 -1.9522731e-10 
3.7118282e-09 2.2797405e-08 -2.2345223e-08 
3.5313028e-10 -1.5412229e-09 -1.1250300e-09 
-3.2073255e-10 -3.8443999e-09 -6.4444305e-10 
1.7403072e-09 -4.7907118e-09 -5.0234723e-09 
2.8014822e-08 8.7224855e-08 -2.1729507e-08 
9.4412567e-09 6.7912829e-08 -7.5349348e-08 
1.2836972e-08 -1.0272218e-07 -6.8674652e-08 
4.0716710e-09 9.6248449e-08 -3.0952940e-08 
2.9338108e-07 -6.6802693e-07 -1.9173832e-07 
8.8333721e-08 -4.7815087e-07 -2.0678952e-07 
7.3048206e-11 5.4451540e-11 -6.1261624e-10 
9.8361952e-10 -3.9859485e-09 -2.0186932e-09 
-3.4703997e-11 2.9000238e-12 -7.9680273e-10 
4.8702180e-09 4.6472188e-08 -1.1366628e-07 
-1.8779056e-09 3.9537924e-09 1.2377789e-09 
2.4366364e-07 -1.8634883e-06 -1.6045270e-07 
1.1103562e-07 -4.6849522e-07 -4.5416675e-07 
9.9153163e-10 -1.8331817e-09 -1.0096822e-08 
-2.8000522e-11 -2.1292954e-10 -4.6141421e-10 
7.6438331e-09 3.2817361e-08 -1.7183007e-08 
3.1459546e-10 -1.8046179e-09 -8.1011109e-10 
1.5456223e-07 -1.7646256e-07 -2.6246730e-07 
1.7285312e-10 -1.5294824e-09 -7.3688089e-10 
-4.7808268e-09 3.8623167e-08 -9.4453201e-09 
3.0017658e-10 -4.0724332e-10 -7.2806156e-10 
7.1622658e-08 1.6480724e-08 -7.5232862e-08 
4.1690051e-08 -2.0402952e-06 -4.8769056e-08 
7.1981257e-09 1.6291973e-07 -4.0559247e-08 
-3.3934486e-09 1.2946903e-07 -3.7033121e-08 
1.8286411e-08 3.1508932e-08 -7.4155068e-08 
2.5499793e-07 -1.7247795e-06 -3.5256849e-07 
-2.5939572e-11 2.3222518e-10 1.9321609e-11 
3.1650267e-09 -6.0506640e-09 -5.0006155e-09 
-7.8096314e-11 -2.8520548e-09 -1.3081890e-09 
9.8143191e-09 4.8416837e-08 -1.2080632e-08 
2.2000057e-08 3.5067423e-08 -2.8102516e-08 
-6.3633397e-11 -3.7778309e-09 -1.2544369e-09 
-6.2631692e-08 -2.6364617e-06 -3.0515612e-09 
-9.1653712e-10 1.3117710e-09 -2.2720983e-09 