# vtk DataFile Version 4.0
vtk output
ASCII
DATASET UNSTRUCTURED_GRID
POINTS 460 float
0.0000000e+00 0.0000000e+00 0.0000000e+00 
5.0000000e+00 0.0000000e+00 0.0000000e+00 
5.0000000e+00 3.0000000e+00 0.0000000e+00 
0.0000000e+00 3.0000000e+00 0.0000000e+00 
0.0000000e+00 0.0000000e+00 1.0000000e+01 
5.0000000e+00 0.0000000e+00 1.0000000e+01 
5.0000000e+00 3.0000000e+00 1.0000000e+01 
0.0000000e+00 3.0000000e+00 1.0000000e+01 
1.0000000e+00 3.0000000e+00 -5.0000000e+00 
1.0000000e+00 3.0000000e+00 -4.5000000e+00 
1.0000000e+00 3.0000000e+00 -4.0000000e+00 
1.0000000e+00 3.0000000e+00 -3.5000000e+00 
1.0000000e+00 3.0000000e+00 -3.0000000e+00 
1.0000000e+00 3.0000000e+00 -2.5000000e+00 
1.0000000e+00 3.0000000e+00 -2.0000000e+00 
1.0000000e+00 3.0000000e+00 -1.5000000e+00 
1.0000000e+00 3.0000000e+00 -1.0000000e+00 
1.0000000e+00 3.0000000e+00 -5.0000000e-01 
1.0000000e+00 3.0000000e+00 0.0000000e+00 
1.0000000e+00 3.0000000e+00 5.0000000e-01 
1.0000000e+00 3.0000000e+00 1.0000000e+00 
1.0000000e+00 3.0000000e+00 1.5000000e+00 
1.0000000e+00 3.0000000e+00 2.0000000e+00 
1.0000000e+00 3.0000000e+00 2.5000000e+00 
1.0000000e+00 3.0000000e+00 3.0000000e+00 
1.0000000e+00 3.0000000e+00 3.5000000e+00 
1.0000000e+00 3.0000000e+00 4.0000000e+00 
1.0000000e+00 3.0000000e+00 4.5000000e+00 
1.0000000e+00 3.0000000e+00 5.0000000e+00 
1.0000000e+00 3.0000000e+00 5.5000000e+00 
1.0000000e+00 3.0000000e+00 6.0000000e+00 
1.0000000e+00 3.0000000e+00 6.5000000e+00 
1.0000000e+00 3.0000000e+00 7.0000000e+00 
1.0000000e+00 3.0000000e+00 7.5000000e+00 
1.0000000e+00 3.0000000e+00 8.0000000e+00 
1.0000000e+00 3.0000000e+00 8.5000000e+00 
1.0000000e+00 3.0000000e+00 9.0000000e+00 
1.0000000e+00 3.0000000e+00 9.5000000e+00 
1.0000000e+00 3.0000000e+00 1.0000000e+01 
1.0000000e+00 3.0000000e+00 1.0500000e+01 
1.0000000e+00 3.0000000e+00 1.1000000e+01 
1.0000000e+00 3.0000000e+00 1.1500000e+01 
1.0000000e+00 3.0000000e+00 1.2000000e+01 
1.0000000e+00 3.0000000e+00 1.2500000e+01 
1.0000000e+00 3.0000000e+00 1.3000000e+01 
1.0000000e+00 3.0000000e+00 1.3500000e+01 
1.0000000e+00 3.0000000e+00 1.4000000e+01 
1.0000000e+00 3.0000000e+00 1.4500000e+01 
1.0000000e+00 3.0250001e+00 -5.0000000e+00 
1.0000000e+00 3.0250001e+00 -4.5000000e+00 
1.0000000e+00 3.0250001e+00 -4.0000000e+00 
1.0000000e+00 3.0250001e+00 -3.5000000e+00 
1.0000000e+00 3.0250001e+00 -3.0000000e+00 
1.0000000e+00 3.0250001e+00 -2.5000000e+00 
1.0000000e+00 3.0250001e+00 -2.0000000e+00 
1.0000000e+00 3.0250001e+00 -1.5000000e+00 
1.0000000e+00 3.0250001e+00 -1.0000000e+00 
1.0000000e+00 3.0250001e+00 -5.0000000e-01 
1.0000000e+00 3.0250001e+00 0.0000000e+00 
1.0000000e+00 3.0250001e+00 5.0000000e-01 
1.0000000e+00 3.0250001e+00 1.0000000e+00 
1.0000000e+00 3.0250001e+00 1.5000000e+00 
1.0000000e+00 3.0250001e+00 2.0000000e+00 
1.0000000e+00 3.0250001e+00 2.5000000e+00 
1.0000000e+00 3.0250001e+00 3.0000000e+00 
1.0000000e+00 3.0250001e+00 3.5000000e+00 
1.0000000e+00 3.0250001e+00 4.0000000e+00 
1.0000000e+00 3.0250001e+00 4.5000000e+00 
1.0000000e+00 3.0250001e+00 5.0000000e+00 
1.0000000e+00 3.0250001e+00 5.5000000e+00 
1.0000000e+00 3.0250001e+00 6.0000000e+00 
1.0000000e+00 3.0250001e+00 6.5000000e+00 
1.0000000e+00 3.0250001e+00 7.0000000e+00 
1.0000000e+00 3.0250001e+00 7.5000000e+00 
1.0000000e+00 3.0250001e+00 8.0000000e+00 
1.0000000e+00 3.0250001e+00 8.5000000e+00 
1.0000000e+00 3.0250001e+00 9.0000000e+00 
1.0000000e+00 3.0250001e+00 9.5000000e+00 
1.0000000e+00 3.0250001e+00 1.0000000e+01 
1.0000000e+00 3.0250001e+00 1.0500000e+01 
1.0000000e+00 3.0250001e+00 1.1000000e+01 
1.0000000e+00 3.0250001e+00 1.1500000e+01 
1.0000000e+00 3.0250001e+00 1.2000000e+01 
1.0000000e+00 3.0250001e+00 1.2500000e+01 
1.0000000e+00 3.0250001e+00 1.3000000e+01 
1.0000000e+00 3.0250001e+00 1.3500000e+01 
1.0000000e+00 3.0250001e+00 1.4000000e+01 
1.0000000e+00 3.0250001e+00 1.4500000e+01 
1.0000000e+00 -2.0000000e+00 -5.0000000e+00 
1.0000000e+00 -2.0000000e+00 -4.5000000e+00 
1.0000000e+00 -2.0000000e+00 -4.0000000e+00 
1.0000000e+00 -2.0000000e+00 -3.5000000e+00 
1.0000000e+00 -2.0000000e+00 -3.0000000e+00 
1.0000000e+00 -2.0000000e+00 -2.5000000e+00 
1.0000000e+00 -2.0000000e+00 -2.0000000e+00 
1.0000000e+00 -2.0000000e+00 -1.5000000e+00 
1.0000000e+00 -2.0000000e+00 -1.0000000e+00 
1.0000000e+00 -2.0000000e+00 -5.0000000e-01 
1.0000000e+00 -2.0000000e+00 1.0500000e+01 
1.0000000e+00 -2.0000000e+00 1.1000000e+01 
1.0000000e+00 -2.0000000e+00 1.1500000e+01 
1.0000000e+00 -2.0000000e+00 1.2000000e+01 
1.0000000e+00 -2.0000000e+00 1.2500000e+01 
1.0000000e+00 -2.0000000e+00 1.3000000e+01 
1.0000000e+00 -2.0000000e+00 1.3500000e+01 
1.0000000e+00 -2.0000000e+00 1.4000000e+01 
1.0000000e+00 -2.0000000e+00 1.4500000e+01 
1.0000000e+00 0.0000000e+00 0.0000000e+00 
2.0000000e+00 0.0000000e+00 0.0000000e+00 
3.0000000e+00 0.0000000e+00 0.0000000e+00 
4.0000000e+00 0.0000000e+00 0.0000000e+00 
5.0000000e+00 1.0000000e+00 0.0000000e+00 
5.0000000e+00 2.0000000e+00 0.0000000e+00 
0.0000000e+00 2.0000000e+00 0.0000000e+00 
0.0000000e+00 1.0000000e+00 0.0000000e+00 
0.0000000e+00 0.0000000e+00 1.0000000e+00 
0.0000000e+00 0.0000000e+00 2.0000000e+00 
0.0000000e+00 0.0000000e+00 3.0000000e+00 
0.0000000e+00 0.0000000e+00 4.0000000e+00 
0.0000000e+00 0.0000000e+00 5.0000000e+00 
0.0000000e+00 0.0000000e+00 6.0000000e+00 
0.0000000e+00 0.0000000e+00 7.0000000e+00 
0.0000000e+00 0.0000000e+00 8.0000000e+00 
0.0000000e+00 0.0000000e+00 9.0000000e+00 
5.0000000e+00 0.0000000e+00 1.0000000e+00 
5.0000000e+00 0.0000000e+00 2.0000000e+00 
5.0000000e+00 0.0000000e+00 3.0000000e+00 
5.0000000e+00 0.0000000e+00 4.0000000e+00 
5.0000000e+00 0.0000000e+00 5.0000000e+00 
5.0000000e+00 0.0000000e+00 6.0000000e+00 
5.0000000e+00 0.0000000e+00 7.0000000e+00 
5.0000000e+00 0.0000000e+00 8.0000000e+00 
5.0000000e+00 0.0000000e+00 9.0000000e+00 
1.0000000e+00 0.0000000e+00 1.0000000e+01 
2.0000000e+00 0.0000000e+00 1.0000000e+01 
3.0000000e+00 0.0000000e+00 1.0000000e+01 
4.0000000e+00 0.0000000e+00 1.0000000e+01 
5.0000000e+00 3.0000000e+00 1.0000000e+00 
5.0000000e+00 3.0000000e+00 2.0000000e+00 
5.0000000e+00 3.0000000e+00 3.0000000e+00 
5.0000000e+00 3.0000000e+00 4.0000000e+00 
5.0000000e+00 3.0000000e+00 5.0000000e+00 
5.0000000e+00 3.0000000e+00 6.0000000e+00 
5.0000000e+00 3.0000000e+00 7.0000000e+00 
5.0000000e+00 3.0000000e+00 8.0000000e+00 
5.0000000e+00 3.0000000e+00 9.0000000e+00 
5.0000000e+00 1.0000000e+00 1.0000000e+01 
5.0000000e+00 2.0000000e+00 1.0000000e+01 
0.0000000e+00 3.0000000e+00 1.0000000e+00 
0.0000000e+00 3.0000000e+00 2.0000000e+00 
0.0000000e+00 3.0000000e+00 3.0000000e+00 
0.0000000e+00 3.0000000e+00 4.0000000e+00 
0.0000000e+00 3.0000000e+00 5.0000000e+00 
0.0000000e+00 3.0000000e+00 6.0000000e+00 
0.0000000e+00 3.0000000e+00 7.0000000e+00 
0.0000000e+00 3.0000000e+00 8.0000000e+00 
0.0000000e+00 3.0000000e+00 9.0000000e+00 
0.0000000e+00 2.0000000e+00 1.0000000e+01 
0.0000000e+00 1.0000000e+00 1.0000000e+01 
4.0000000e+00 3.0000000e+00 0.0000000e+00 
3.0000000e+00 3.0000000e+00 0.0000000e+00 
2.0000000e+00 3.0000000e+00 0.0000000e+00 
4.0000000e+00 3.0000000e+00 1.0000000e+01 
3.0000000e+00 3.0000000e+00 1.0000000e+01 
2.0000000e+00 3.0000000e+00 1.0000000e+01 
4.0618000e+00 1.5000000e+00 0.0000000e+00 
1.5046000e+00 7.6549745e-01 0.0000000e+00 
2.5000000e+00 2.1339746e+00 0.0000000e+00 
1.5046000e+00 2.2345026e+00 0.0000000e+00 
2.4957771e+00 8.1560516e-01 0.0000000e+00 
3.4707544e+00 2.2336540e+00 0.0000000e+00 
3.4700506e+00 7.5794268e-01 0.0000000e+00 
8.6322361e-01 1.5000000e+00 0.0000000e+00 
2.0000000e+00 1.5000000e+00 0.0000000e+00 
2.9960666e+00 1.4974480e+00 0.0000000e+00 
4.2679491e+00 7.3205084e-01 0.0000000e+00 
4.2679491e+00 2.2679491e+00 0.0000000e+00 
7.2695929e-01 2.2730408e+00 0.0000000e+00 
7.2695929e-01 7.2695929e-01 0.0000000e+00 
4.1822505e+00 0.0000000e+00 2.5515697e+00 
4.2017918e+00 0.0000000e+00 4.4725966e+00 
4.1114569e+00 0.0000000e+00 6.5092020e+00 
8.6602539e-01 0.0000000e+00 3.5000000e+00 
8.4778279e-01 0.0000000e+00 5.4684029e+00 
8.9629614e-01 0.0000000e+00 7.5867257e+00 
2.5566745e+00 0.0000000e+00 8.1853306e-01 
2.4918270e+00 0.0000000e+00 9.1386929e+00 
8.4677207e-01 0.0000000e+00 1.5042374e+00 
4.0943027e+00 0.0000000e+00 8.4081745e+00 
8.6281651e-01 0.0000000e+00 2.5007062e+00 
1.7315160e+00 0.0000000e+00 3.0001178e+00 
1.7319617e+00 0.0000000e+00 4.0000196e+00 
2.5980761e+00 0.0000000e+00 3.5000000e+00 
2.5536871e+00 0.0000000e+00 4.4963923e+00 
2.5928419e+00 0.0000000e+00 2.4239938e+00 
1.5037409e+00 0.0000000e+00 9.1535149e+00 
1.8433737e+00 0.0000000e+00 8.1858873e+00 
3.0000000e+00 0.0000000e+00 8.2679491e+00 
2.5000000e+00 0.0000000e+00 7.4019237e+00 
3.5042722e+00 0.0000000e+00 7.4271150e+00 
3.0310018e+00 0.0000000e+00 6.5282087e+00 
2.0373929e+00 0.0000000e+00 6.5307913e+00 
3.4767809e+00 0.0000000e+00 5.8031492e+00 
2.5452602e+00 0.0000000e+00 5.5720768e+00 
1.6456656e+00 0.0000000e+00 1.9697139e+00 
8.6297011e-01 0.0000000e+00 4.4947371e+00 
1.0111579e+00 0.0000000e+00 6.5282545e+00 
3.4994321e+00 0.0000000e+00 8.4691072e-01 
4.1860156e+00 0.0000000e+00 3.5040276e+00 
1.7320508e+00 0.0000000e+00 5.0000000e+00 
4.0544066e+00 0.0000000e+00 1.5781221e+00 
1.5817389e+00 0.0000000e+00 9.3943578e-01 
8.3166349e-01 0.0000000e+00 8.5090933e+00 
3.4686174e+00 0.0000000e+00 9.1752682e+00 
3.0709300e+00 0.0000000e+00 1.5799091e+00 
3.3927374e+00 0.0000000e+00 3.0399952e+00 
3.3826034e+00 0.0000000e+00 3.9747651e+00 
4.3420062e+00 0.0000000e+00 7.4688983e+00 
3.4023225e+00 0.0000000e+00 4.9314723e+00 
1.6740381e+00 0.0000000e+00 7.3014426e+00 
4.2715640e+00 0.0000000e+00 5.4758859e+00 
1.6225953e+00 0.0000000e+00 5.8104177e+00 
4.2679491e+00 0.0000000e+00 9.2679491e+00 
7.3205084e-01 0.0000000e+00 7.3205084e-01 
4.2679491e+00 0.0000000e+00 7.3205084e-01 
7.3205084e-01 0.0000000e+00 9.2679491e+00 
3.4586334e+00 0.0000000e+00 2.2347178e+00 
2.2895701e+00 0.0000000e+00 1.5463171e+00 
5.0000000e+00 2.2345026e+00 1.5046000e+00 
[...]
POINT_DATA 460
FIELD FieldData 5
DISPLACEMENT 3 460  float
0.0000000e+00 0.0000000e+00 0.0000000e+00 
0.0000000e+00 0.0000000e+00 0.0000000e+00 
0.0000000e+00 -6.8252447e-08 0.0000000e+00 
0.0000000e+00 -3.4371994e-06 0.0000000e+00 
0.0000000e+00 0.0000000e+00 0.0000000e+00 
0.0000000e+00 0.0000000e+00 0.0000000e+00 
0.0000000e+00 2.3115102e-07 0.0000000e+00 
0.0000000e+00 -3.3607191e-06 0.0000000e+00 
0.0000000e+00 1.7965029e-05 0.0000000e+00 
0.0000000e+00 1.8650748e-05 0.0000000e+00 
0.0000000e+00 1.7473083e-05 0.0000000e+00 
0.0000000e+00 1.2279279e-05 0.0000000e+00 
0.0000000e+00 3.7471045e-06 0.0000000e+00 
0.0000000e+00 -4.6230311e-06 0.0000000e+00 
0.0000000e+00 -7.1198001e-06 0.0000000e+00 
0.0000000e+00 -7.6856259e-06 0.0000000e+00 
0.0000000e+00 -9.1733409e-06 0.0000000e+00 
0.0000000e+00 -7.8498815e-06 0.0000000e+00 
0.0000000e+00 -1.0181222e-05 0.0000000e+00 
1.6005829e-07 -8.0570344e-06 5.1867164e-07 
3.6429708e-07 -4.1839971e-06 6.6494965e-07 
6.9666845e-07 -3.7890923e-06 1.0624308e-06 
6.0219662e-07 -5.3601188e-06 2.0218276e-06 
9.7127167e-07 -1.3113385e-05 1.8010055e-06 
1.0965367e-06 -1.9526360e-05 1.9747215e-06 
5.7729125e-07 -1.7851939e-05 1.5668703e-06 
8.9236249e-07 -1.9155994e-05 2.0691068e-06 
-6.9500942e-07 -2.7795182e-05 2.0385592e-06 
-4.7440932e-07 -3.7167138e-05 -9.2203031e-08 
5.8692660e-07 -3.2283559e-05 -3.2274106e-06 
-8.3330872e-07 -1.5497460e-05 -2.1205274e-06 
-1.6363047e-06 -8.2121437e-07 -3.4051445e-06 
-3.2945431e-06 1.0206018e-05 -4.4184530e-06 
-3.5246480e-06 1.7038297e-05 -2.5326715e-06 
-2.6026955e-06 7.2262560e-06 -1.5229808e-06 
-8.3864842e-07 -8.1123335e-06 -6.7528515e-07 
-8.0838345e-07 -1.1628842e-05 -1.0988024e-06 
1.4801195e-07 -6.7296942e-06 2.3155853e-07 
0.0000000e+00 3.6986992e-06 0.0000000e+00 
0.0000000e+00 1.8078055e-05 0.0000000e+00 
0.0000000e+00 1.9980131e-05 0.0000000e+00 
0.0000000e+00 -3.0161791e-06 0.0000000e+00 
0.0000000e+00 -4.3352666e-05 0.0000000e+00 
0.0000000e+00 -9.4332470e-05 0.0000000e+00 
0.0000000e+00 -1.5613326e-04 0.0000000e+00 
0.0000000e+00 -2.0764099e-04 0.0000000e+00 
0.0000000e+00 -2.3492900e-04 0.0000000e+00 
0.0000000e+00 -2.4334503e-04 0.0000000e+00 
0.0000000e+00 1.8036300e-05 0.0000000e+00 
0.0000000e+00 1.8725297e-05 0.0000000e+00 
0.0000000e+00 1.7543245e-05 0.0000000e+00 
0.0000000e+00 1.2328009e-05 0.0000000e+00 
0.0000000e+00 3.7616987e-06 0.0000000e+00 
0.0000000e+00 -4.6412861e-06 0.0000000e+00 
0.0000000e+00 -7.1476488e-06 0.0000000e+00 
0.0000000e+00 -7.7155773e-06 0.0000000e+00 
0.0000000e+00 -9.2094051e-06 0.0000000e+00 
0.0000000e+00 -7.8814892e-06 0.0000000e+00 
0.0000000e+00 -1.0281243e-05 0.0000000e+00 
0.0000000e+00 -8.1261114e-06 0.0000000e+00 
0.0000000e+00 -4.1846347e-06 0.0000000e+00 
0.0000000e+00 -3.7627026e-06 0.0000000e+00 
0.0000000e+00 -5.3481017e-06 0.0000000e+00 
0.0000000e+00 -1.3287690e-05 0.0000000e+00 
0.0000000e+00 -1.9857956e-05 0.0000000e+00 
0.0000000e+00 -1.7973234e-05 0.0000000e+00 
0.0000000e+00 -1.9325342e-05 0.0000000e+00 
0.0000000e+00 -2.8109331e-05 0.0000000e+00 
0.0000000e+00 -3.7807778e-05 0.0000000e+00 
0.0000000e+00 -3.2820291e-05 0.0000000e+00 
0.0000000e+00 -1.5665504e-05 0.0000000e+00 
0.0000000e+00 -7.4481244e-07 0.0000000e+00 
0.0000000e+00 1.0438257e-05 0.0000000e+00 
0.0000000e+00 1.7516617e-05 0.0000000e+00 
0.0000000e+00 7.4657087e-06 0.0000000e+00 
0.0000000e+00 -8.1619737e-06 0.0000000e+00 
0.0000000e+00 -1.1718093e-05 0.0000000e+00 
0.0000000e+00 -6.8005638e-06 0.0000000e+00 
0.0000000e+00 3.5430937e-06 0.0000000e+00 
0.0000000e+00 1.7990880e-05 0.0000000e+00 
0.0000000e+00 1.9898513e-05 0.0000000e+00 
0.0000000e+00 -3.0977460e-06 0.0000000e+00 
0.0000000e+00 -4.3413391e-05 0.0000000e+00 
0.0000000e+00 -9.4374984e-05 0.0000000e+00 
0.0000000e+00 -1.5623370e-04 0.0000000e+00 
0.0000000e+00 -2.0784090e-04 0.0000000e+00 
0.0000000e+00 -2.3520486e-04 0.0000000e+00 
0.0000000e+00 -2.4364817e-04 0.0000000e+00 
0.0000000e+00 0.0000000e+00 0.0000000e+00 
0.0000000e+00 0.0000000e+00 0.0000000e+00 
0.0000000e+00 0.0000000e+00 0.0000000e+00 
0.0000000e+00 0.0000000e+00 0.0000000e+00 
0.0000000e+00 0.0000000e+00 0.0000000e+00 
0.0000000e+00 0.0000000e+00 0.0000000e+00 
0.0000000e+00 0.0000000e+00 0.0000000e+00 
0.0000000e+00 0.0000000e+00 0.0000000e+00 
0.0000000e+00 0.0000000e+00 0.0000000e+00 
0.0000000e+00 0.0000000e+00 0.0000000e+00 
0.0000000e+00 0.0000000e+00 0.0000000e+00 
0.0000000e+00 0.0000000e+00 0.0000000e+00 
0.0000000e+00 0.0000000e+00 0.0000000e+00 
0.0000000e+00 0.0000000e+00 0.0000000e+00 
0.0000000e+00 0.0000000e+00 0.0000000e+00 
0.0000000e+00 0.0000000e+00 0.0000000e+00 
0.0000000e+00 0.0000000e+00 0.0000000e+00 
0.0000000e+00 0.0000000e+00 0.0000000e+00 
0.0000000e+00 0.0000000e+00 0.0000000e+00 
0.0000000e+00 0.0000000e+00 0.0000000e+00 
0.0000000e+00 0.0000000e+00 0.0000000e+00 
0.0000000e+00 0.0000000e+00 0.0000000e+00 
0.0000000e+00 0.0000000e+00 0.0000000e+00 
0.0000000e+00 -7.5011492e-08 0.0000000e+00 
0.0000000e+00 -8.3538204e-08 0.0000000e+00 
0.0000000e+00 -2.9426851e-06 0.0000000e+00 
0.0000000e+00 -1.4427222e-06 0.0000000e+00 
0.0000000e+00 0.0000000e+00 0.0000000e+00 
0.0000000e+00 0.0000000e+00 0.0000000e+00 
0.0000000e+00 0.0000000e+00 0.0000000e+00 
0.0000000e+00 0.0000000e+00 0.0000000e+00 
0.0000000e+00 0.0000000e+00 0.0000000e+00 
0.0000000e+00 0.0000000e+00 0.0000000e+00 
0.0000000e+00 0.0000000e+00 0.0000000e+00 
0.0000000e+00 0.0000000e+00 0.0000000e+00 
0.0000000e+00 0.0000000e+00 0.0000000e+00 
0.0000000e+00 0.0000000e+00 0.0000000e+00 
0.0000000e+00 0.0000000e+00 0.0000000e+00 
0.0000000e+00 0.0000000e+00 0.0000000e+00 
0.0000000e+00 0.0000000e+00 0.0000000e+00 
0.0000000e+00 0.0000000e+00 0.0000000e+00 
0.0000000e+00 0.0000000e+00 0.0000000e+00 
0.0000000e+00 0.0000000e+00 0.0000000e+00 
0.0000000e+00 0.0000000e+00 0.0000000e+00 
0.0000000e+00 0.0000000e+00 0.0000000e+00 
0.0000000e+00 0.0000000e+00 0.0000000e+00 
0.0000000e+00 0.0000000e+00 0.0000000e+00 
0.0000000e+00 0.0000000e+00 0.0000000e+00 
0.0000000e+00 0.0000000e+00 0.0000000e+00 
0.0000000e+00 -2.9869618e-08 0.0000000e+00 
0.0000000e+00 1.5426702e-08 0.0000000e+00 
0.0000000e+00 -2.0696626e-07 0.0000000e+00 
0.0000000e+00 -3.2727550e-07 0.0000000e+00 
0.0000000e+00 -4.3838833e-07 0.0000000e+00 
0.0000000e+00 -1.4362010e-07 0.0000000e+00 
0.0000000e+00 -2.3162212e-07 0.0000000e+00 
0.0000000e+00 -1.3588580e-07 0.0000000e+00 
0.0000000e+00 4.1485368e-08 0.0000000e+00 
0.0000000e+00 1.2934024e-07 0.0000000e+00 
0.0000000e+00 2.1836593e-07 0.0000000e+00 
0.0000000e+00 -3.6642680e-06 0.0000000e+00 
0.0000000e+00 -5.5145119e-06 0.0000000e+00 
0.0000000e+00 -1.0183481e-05 0.0000000e+00 
0.0000000e+00 -1.2816572e-05 0.0000000e+00 
0.0000000e+00 -1.3996209e-05 0.0000000e+00 
0.0000000e+00 -7.6528868e-06 0.0000000e+00 
0.0000000e+00 7.1562476e-07 0.0000000e+00 
0.0000000e+00 -6.1514676e-08 0.0000000e+00 
0.0000000e+00 -3.9159600e-06 0.0000000e+00 
0.0000000e+00 -2.0977848e-06 0.0000000e+00 
0.0000000e+00 -4.2121667e-07 0.0000000e+00 
0.0000000e+00 -1.2224298e-07 0.0000000e+00 
0.0000000e+00 -6.9106852e-07 0.0000000e+00 
0.0000000e+00 -1.9704244e-06 0.0000000e+00 
0.0000000e+00 -1.3831294e-07 0.0000000e+00 
0.0000000e+00 -1.0332369e-06 0.0000000e+00 
0.0000000e+00 -2.4133883e-06 0.0000000e+00 
0.0000000e+00 -1.3778178e-07 0.0000000e+00 
0.0000000e+00 -9.7449936e-07 0.0000000e+00 
0.0000000e+00 -1.1118215e-06 0.0000000e+00 
0.0000000e+00 -3.3778358e-06 0.0000000e+00 
0.0000000e+00 -5.8167439e-07 0.0000000e+00 
0.0000000e+00 -3.1893342e-07 0.0000000e+00 
0.0000000e+00 -2.0740441e-07 0.0000000e+00 
0.0000000e+00 -2.5027214e-06 0.0000000e+00 
0.0000000e+00 -1.5556894e-06 0.0000000e+00 
0.0000000e+00 -5.0167904e-07 0.0000000e+00 
0.0000000e+00 -4.6793449e-08 0.0000000e+00 
0.0000000e+00 -9.6904813e-08 0.0000000e+00 
0.0000000e+00 -4.5745455e-06 0.0000000e+00 
0.0000000e+00 -1.0606797e-06 0.0000000e+00 
0.0000000e+00 0.0000000e+00 0.0000000e+00 
0.0000000e+00 0.0000000e+00 0.0000000e+00 
0.0000000e+00 0.0000000e+00 0.0000000e+00 
0.0000000e+00 0.0000000e+00 0.0000000e+00 
0.0000000e+00 0.0000000e+00 0.0000000e+00 
0.0000000e+00 0.0000000e+00 0.0000000e+00 
0.0000000e+00 0.0000000e+00 0.0000000e+00 
0.0000000e+00 0.0000000e+00 0.0000000e+00 
0.0000000e+00 0.0000000e+00 0.0000000e+00 
0.0000000e+00 0.0000000e+00 0.0000000e+00 
0.0000000e+00 0.0000000e+00 0.0000000e+00 
0.0000000e+00 0.0000000e+00 0.0000000e+00 
0.0000000e+00 0.0000000e+00 0.0000000e+00 
0.0000000e+00 0.0000000e+00 0.0000000e+00 
0.0000000e+00 0.0000000e+00 0.0000000e+00 
0.0000000e+00 0.0000000e+00 0.0000000e+00 
0.0000000e+00 0.0000000e+00 0.0000000e+00 
0.0000000e+00 0.0000000e+00 0.0000000e+00 
0.0000000e+00 0.0000000e+00 0.0000000e+00 
0.0000000e+00 0.0000000e+00 0.0000000e+00 
0.0000000e+00 0.0000000e+00 0.0000000e+00 
0.0000000e+00 0.0000000e+00 0.0000000e+00 
0.0000000e+00 0.0000000e+00 0.0000000e+00 
0.0000000e+00 0.0000000e+00 0.0000000e+00 
0.0000000e+00 0.0000000e+00 0.0000000e+00 
0.0000000e+00 0.0000000e+00 0.0000000e+00 
0.0000000e+00 0.0000000e+00 0.0000000e+00 
0.0000000e+00 0.0000000e+00 0.0000000e+00 
0.0000000e+00 0.0000000e+00 0.0000000e+00 
0.0000000e+00 0.0000000e+00 0.0000000e+00 
0.0000000e+00 0.0000000e+00 0.0000000e+00 
0.0000000e+00 0.0000000e+00 0.0000000e+00 
0.0000000e+00 0.0000000e+00 0.0000000e+00 
0.0000000e+00 0.0000000e+00 0.0000000e+00 
0.0000000e+00 0.0000000e+00 0.0000000e+00 
0.0000000e+00 0.0000000e+00 0.0000000e+00 
0.0000000e+00 0.0000000e+00 0.0000000e+00 
0.0000000e+00 0.0000000e+00 0.0000000e+00 
0.0000000e+00 0.0000000e+00 0.0000000e+00 
0.0000000e+00 0.0000000e+00 0.0000000e+00 
0.0000000e+00 0.0000000e+00 0.0000000e+00 
0.0000000e+00 0.0000000e+00 0.0000000e+00 
0.0000000e+00 0.0000000e+00 0.0000000e+00 
0.0000000e+00 0.0000000e+00 0.0000000e+00 
0.0000000e+00 0.0000000e+00 0.0000000e+00 
0.0000000e+00 0.0000000e+00 0.0000000e+00 
0.0000000e+00 0.0000000e+00 0.0000000e+00 
0.0000000e+00 0.0000000e+00 0.0000000e+00 
0.0000000e+00 0.0000000e+00 0.0000000e+00 
0.0000000e+00 -8.1792699e-08 0.0000000e+00 
0.0000000e+00 1.1928890e-07 0.0000000e+00 
0.0000000e+00 -2.5989826e-07 0.0000000e+00 
0.0000000e+00 -2.7191257e-07 0.0000000e+00 
0.0000000e+00 -5.5240378e-08 0.0000000e+00 
0.0000000e+00 -2.4888155e-07 0.0000000e+00 
0.0000000e+00 -3.1018601e-07 0.0000000e+00 
0.0000000e+00 -1.3498465e-07 0.0000000e+00 
0.0000000e+00 -3.0460467e-07 0.0000000e+00 
0.0000000e+00 -2.8819613e-07 0.0000000e+00 
0.0000000e+00 -1.2835052e-07 0.0000000e+00 
0.0000000e+00 -4.2856695e-07 0.0000000e+00 
0.0000000e+00 -1.6872725e-07 0.0000000e+00 
0.0000000e+00 8.8143466e-08 0.0000000e+00 
0.0000000e+00 -2.1155302e-07 0.0000000e+00 
0.0000000e+00 1.0604158e-07 0.0000000e+00 
0.0000000e+00 1.1080897e-07 0.0000000e+00 
0.0000000e+00 -1.2982790e-07 0.0000000e+00 
0.0000000e+00 -3.7045518e-07 0.0000000e+00 
0.0000000e+00 1.9593147e-08 0.0000000e+00 
0.0000000e+00 -2.1764959e-07 0.0000000e+00 
0.0000000e+00 -2.5146028e-07 0.0000000e+00 
0.0000000e+00 -3.4787155e-07 0.0000000e+00 
0.0000000e+00 -3.0559343e-07 0.0000000e+00 
0.0000000e+00 1.3223637e-07 0.0000000e+00 
0.0000000e+00 2.1349092e-07 0.0000000e+00 
0.0000000e+00 8.1281279e-08 0.0000000e+00 
0.0000000e+00 -5.3353560e-08 0.0000000e+00 
0.0000000e+00 -1.5398425e-07 0.0000000e+00 
0.0000000e+00 -2.0197185e-06 0.0000000e+00 
0.0000000e+00 -2.1680949e-06 0.0000000e+00 
0.0000000e+00 -2.3048237e-06 0.0000000e+00 
0.0000000e+00 -3.6143472e-06 0.0000000e+00 
0.0000000e+00 -9.1105733e-07 0.0000000e+00 
0.0000000e+00 -9.2789223e-06 0.0000000e+00 
0.0000000e+00 -9.8262717e-06 0.0000000e+00 
0.0000000e+00 -2.0833461e-08 0.0000000e+00 
0.0000000e+00 -3.2681799e-06 0.0000000e+00 
0.0000000e+00 -6.2966128e-06 0.0000000e+00 
0.0000000e+00 -1.1999682e-05 0.0000000e+00 
0.0000000e+00 -3.5933692e-06 0.0000000e+00 
0.0000000e+00 -4.1514727e-06 0.0000000e+00 
0.0000000e+00 -2.8913867e-06 0.0000000e+00 
0.0000000e+00 -3.5715459e-06 0.0000000e+00 
0.0000000e+00 -1.2021829e-06 0.0000000e+00 
0.0000000e+00 -8.2610796e-07 0.0000000e+00 
0.0000000e+00 -7.2928729e-06 0.0000000e+00 
0.0000000e+00 -1.4139655e-06 0.0000000e+00 
0.0000000e+00 -6.8213858e-06 0.0000000e+00 
0.0000000e+00 -5.3961171e-06 0.0000000e+00 
0.0000000e+00 -1.2035835e-06 0.0000000e+00 
0.0000000e+00 -3.0181934e-06 0.0000000e+00 
0.0000000e+00 -1.2443580e-06 0.0000000e+00 
0.0000000e+00 -3.3829058e-06 0.0000000e+00 
0.0000000e+00 -4.8933714e-07 0.0000000e+00 
0.0000000e+00 -3.0652216e-06 0.0000000e+00 
0.0000000e+00 -9.1212655e-07 0.0000000e+00 
0.0000000e+00 -2.6729867e-06 0.0000000e+00 
0.0000000e+00 -3.7142323e-07 0.0000000e+00 
0.0000000e+00 1.2666646e-07 0.0000000e+00 
0.0000000e+00 -1.1302793e-06 0.0000000e+00 
0.0000000e+00 -1.3711899e-06 0.0000000e+00 
0.0000000e+00 -1.3019655e-07 0.0000000e+00 
0.0000000e+00 -1.9007933e-07 0.0000000e+00 
0.0000000e+00 7.0224360e-08 0.0000000e+00 
0.0000000e+00 -8.7858251e-07 0.0000000e+00 
0.0000000e+00 -3.8728891e-07 0.0000000e+00 
0.0000000e+00 -1.9462740e-07 0.0000000e+00 
0.0000000e+00 1.8791549e-07 0.0000000e+00 
0.0000000e+00 2.2348163e-07 0.0000000e+00 
0.0000000e+00 -8.2948753e-07 0.0000000e+00 
0.0000000e+00 9.3340724e-08 0.0000000e+00 
1.2988176e-07 -1.5036772e-05 1.1928623e-06 
-1.1821890e-06 -5.6561075e-06 -3.0333290e-06 
-3.0278738e-06 3.5328526e-06 -3.5355204e-06 
2.6788453e-07 -5.8963187e-06 1.4119615e-06 
1.1408497e-06 -1.2051616e-05 1.8311234e-06 
-1.0540306e-07 -4.3524997e-07 -3.2114568e-07 
1.4516642e-07 -2.3201386e-07 2.9621313e-08 
-3.8697874e-07 -2.4527344e-07 -6.0641037e-07 
7.2184019e-07 -3.6145066e-06 4.8811154e-07 
-1.0815288e-06 -3.8533540e-06 -2.5124014e-06 
1.8030633e-07 -3.6942174e-07 -1.1751748e-07 
-9.9169847e-07 -3.9927454e-07 -9.2004160e-07 
-1.0619221e-07 -3.6314231e-07 -6.5194666e-07 
-6.7840756e-07 -1.8766744e-07 -1.5988741e-06 
-1.2638510e-06 -1.0613386e-07 -1.8556054e-06 
-1.3192813e-06 3.0938455e-08 -2.3252203e-06 
-8.5990865e-07 -1.2677588e-06 -1.7972454e-06 
-2.0215020e-06 -4.8148246e-07 -2.3654700e-06 
-1.1469732e-06 2.3100807e-07 -3.2923322e-06 
-4.0267199e-07 -9.7251041e-07 -1.2868088e-06 
-4.6345008e-09 -1.5248841e-06 -6.0231116e-07 
-5.0094286e-07 -2.9988412e-06 -8.7061210e-07 
-4.0543651e-07 -4.3823261e-06 -2.1853744e-07 
-6.5028509e-08 -2.1346964e-06 7.6157178e-08 
-3.8385176e-07 -4.1603516e-06 5.3468881e-07 
5.6141904e-08 -1.5999381e-06 2.9485611e-07 
-2.0530660e-08 -3.6910044e-06 8.7486256e-07 
1.6028036e-07 -1.8855544e-06 4.0590317e-07 
2.6740329e-07 -2.7864985e-06 6.0477322e-07 
4.0532203e-07 -1.0844883e-06 1.6798035e-07 
4.4843534e-07 -1.7815261e-06 2.9298604e-07 
-6.7962242e-07 -7.9194579e-06 -7.3918426e-07 
-7.8881482e-07 -4.6757982e-06 -1.1928693e-06 
-5.4843980e-07 -6.8775853e-06 1.2880231e-06 
8.2227984e-08 -5.1683043e-07 1.2459300e-07 
-1.0419734e-06 -1.3074099e-06 -1.3250603e-06 
-3.1290602e-07 -7.8276080e-06 1.1088099e-06 
7.7553274e-08 -7.7476773e-07 -1.4890493e-07 
2.4728658e-07 -1.1491604e-06 -1.4416162e-08 
-9.8208739e-07 -1.2743277e-07 -9.8096450e-07 
-2.2486181e-06 6.1143419e-07 -3.3179215e-06 
-2.1978719e-06 -7.3545135e-07 -3.2419068e-06 
-2.2628848e-07 -1.1835681e-05 -1.2035572e-06 
1.4918034e-07 -9.0913211e-08 -9.2643305e-08 
5.8876839e-07 -8.4436851e-06 1.2805536e-06 
6.9042477e-07 -6.3408002e-06 9.6165661e-07 
6.1936356e-07 -1.3381099e-05 2.3655834e-06 
1.0734971e-06 -1.4015823e-05 2.7828341e-06 
-1.4937872e-06 -4.1026846e-07 -3.5774390e-06 
-1.7316835e-06 2.1551323e-06 -3.9274310e-06 
2.3140514e-07 -4.1053872e-06 2.1382169e-07 
6.8667640e-07 -4.1062663e-06 7.8096207e-07 
-4.2753376e-07 -3.8617918e-06 -1.6375850e-06 
4.7958531e-07 -7.6559081e-07 -1.8300153e-07 
2.3086791e-07 -4.1050093e-06 1.1770716e-06 
-2.3918608e-06 -2.2493374e-07 -3.3786189e-06 
-8.9525741e-07 -2.1280853e-06 -2.7592844e-06 
4.8071098e-07 -2.3419313e-06 3.1667028e-07 
-9.3626378e-09 -1.6304188e-05 1.0098040e-07 
-1.7575488e-06 7.3886326e-08 -1.9949316e-06 
-6.1793895e-07 3.3572448e-08 -8.5188748e-07 
2.3239708e-07 -8.0891411e-08 -1.6678487e-07 
-1.5649050e-08 -1.1940311e-06 3.2900047e-07 
5.4574878e-07 -3.3356637e-06 6.1469882e-07 
-1.5761273e-06 -1.8054311e-06 -1.7653211e-06 
-4.5502401e-07 -2.5229519e-06 -1.7188837e-06 
3.2419865e-07 -3.7017136e-07 -2.5960459e-08 
2.5926732e-07 -8.1845974e-07 1.4767662e-07 
4.9623912e-07 -2.6090283e-06 -2.4251914e-08 
-5.1399871e-07 -9.3865283e-06 1.4642120e-06 
-5.8673396e-07 -2.5410402e-06 -1.3022853e-06 
3.7317506e-07 -7.5298958e-06 1.0499396e-06 
6.4695195e-07 -5.2831983e-06 1.1213318e-06 
5.9563774e-07 -1.0525453e-05 1.4134905e-06 
4.3228422e-07 -1.3302392e-05 1.1655842e-06 
5.7860490e-07 -4.4532107e-06 8.1383064e-07 
1.2190188e-06 -1.3690630e-05 9.4667303e-07 
5.0777015e-07 -1.5865695e-05 9.8082160e-07 
8.0133344e-07 -1.7364448e-05 2.5719032e-07 
-1.3477822e-06 -1.8193245e-05 -1.3388553e-06 
-1.6516002e-06 -1.4241910e-05 -1.8669309e-06 
-1.4615524e-06 -7.8262401e-06 -2.0124842e-06 
-1.5757505e-06 -7.0644631e-07 -2.6741047e-06 
-1.2369995e-06 3.7313189e-06 -1.8493322e-06 
-1.5073765e-06 2.2976199e-06 -1.6637126e-06 
-1.1874837e-06 -9.0036622e-07 -9.9242845e-07 
-7.1843948e-07 -4.7179865e-06 -4.1799328e-07 
2.9003169e-07 -4.3820419e-06 -5.0559623e-07 
4.5887859e-07 -4.6820846e-06 4.9983902e-07 
1.3607581e-06 -2.7543699e-06 -3.6767568e-07 
2.0126586e-06 -4.8021097e-06 -1.4409054e-07 
1.6584517e-06 -5.3935159e-06 9.6483029e-07 
-7.5183175e-07 -6.1184727e-07 -1.3612359e-07 
-5.3468682e-07 -1.2118991e-06 -1.0600951e-06 
1.2784635e-06 -9.6208953e-07 -2.9523829e-07 
1.2376472e-06 -1.3646822e-06 -1.9039119e-08 
4.9200719e-07 -1.2043810e-06 4.3658019e-07 
1.8480862e-06 -1.0753641e-05 -9.3217828e-08 
1.3362535e-06 -7.6159085e-06 -1.7707036e-07 
8.7478134e-07 -3.0878707e-06 2.8181097e-07 
-6.1087394e-07 -8.3008700e-08 -4.0160640e-07 
9.3126295e-07 -9.0628129e-07 -1.4317338e-07 
8.5828509e-09 -4.7383605e-06 9.4289112e-07 
-8.6483124e-07 1.0294567e-06 -1.9056027e-06 
1.2820050e-06 -1.0932801e-05 2.1055151e-07 
2.0026885e-06 -4.3062114e-06 3.9977587e-07 
1.8858208e-06 -2.7934118e-06 -1.6041199e-07 
1.0288848e-06 -1.3991960e-05 5.7972028e-07 
1.8485362e-06 -3.7085169e-06 3.2725831e-07 
1.5869033e-06 -4.6508003e-06 4.2613624e-07 
7.3447319e-07 -7.4192860e-07 1.2761321e-07 
-2.3656288e-07 -3.3671433e-06 -1.5371529e-06 
5.5866394e-07 -2.9813208e-07 -2.5837809e-07 
-4.8360488e-07 4.4909432e-09 -5.3328336e-07 
1.0545066e-06 -2.9961518e-06 -3.9969396e-07 
1.4653660e-06 -2.0545333e-06 4.7325179e-07 
1.2663222e-06 -1.0583550e-06 -2.5907107e-07 
1.4429012e-06 -1.7145808e-06 -2.2936406e-07 
1.4024038e-06 -2.0310042e-06 -1.9494925e-08 
-1.4129530e-07 -1.2962435e-07 -1.9469778e-07 
-6.6074784e-07 -1.2232562e-06 -4.2163754e-07 
-1.5556362e-06 1.5026149e-06 -1.2257224e-06 
1.1995278e-06 -3.9161214e-06 3.2443057e-07 
-3.8948204e-07 -5.5873045e-07 -6.3934374e-07 
-1.4852824e-06 -1.6718140e-07 -1.3930556e-06 
7.2474762e-07 -9.3995641e-07 -1.2037647e-07 
7.7841662e-07 -5.5119403e-07 -1.1250933e-07 
5.5693420e-07 -1.5076486e-06 1.6560094e-08 
1.0009678e-08 -2.3569869e-06 5.9590099e-07 
1.1604511e-06 -4.8891093e-06 -1.3562883e-08 
-4.6356959e-07 -1.4018154e-06 -1.2072325e-06 
-6.3840235e-07 -1.5112197e-07 -5.6436483e-07 
2.0707439e-06 -7.7428886e-06 6.8003465e-07 
1.3499692e-06 -1.8420963e-06 2.6320215e-08 
1.1541779e-06 -1.9963632e-06 3.1431256e-07 
6.6729194e-07 -4.0871112e-07 -1.6199402e-07 
-8.7857399e-07 -1.6827750e-07 -5.8329937e-07 
1.2668237e-06 -9.8326689e-07 -2.2240553e-07 
1.0642572e-06 -3.8242520e-06 4.5497595e-07 
7.1128977e-07 -2.3335339e-07 -2.1091404e-07 
-4.9610833e-07 -2.3037050e-08 -2.0317790e-07 
-1.2783235e-06 -1.4244114e-06 -2.4218004e-06 
2.4586359e-07 -4.1879593e-06 1.5806039e-07 
5.4889762e-07 -6.7594992e-06 1.0279414e-06 
7.1743875e-07 -1.5283315e-06 7.5577168e-07 
-2.3851530e-07 -1.0459959e-06 -3.3338819e-07 
5.1283990e-07 -2.5603666e-07 -2.2148379e-07 
5.0893806e-07 -7.8350274e-07 -6.7999331e-09 
5.5992012e-07 -4.9757227e-07 -4.0716753e-08 
4.9535674e-07 -7.2258672e-07 -1.3157967e-07 
2.4603460e-07 -3.8527736e-07 6.1927854e-09 
1.6103739e-06 -2.8033705e-06 1.1719518e-07 