# vtk DataFile Version 4.0
vtk output
ASCII
DATASET UNSTRUCTURED_GRID
POINTS 460 float
0.0000000e+00 0.0000000e+00 0.0000000e+00 
5.0000000e+00 0.0000000e+00 0.0000000e+00 
5.0000000e+00 3.0000000e+00 0.0000000e+00 
0.0000000e+00 3.0000000e+00 0.0000000e+00 
0.0000000e+00 0.0000000e+00 1.0000000e+01 
5.0000000e+00 0.0000000e+00 1.0000000e+01 
5.0000000e+00 3.0000000e+00 1.0000000e+01 
0.0000000e+00 3.0000000e+00 1.0000000e+01 
1.0000000e+00 3.0000000e+00 -5.0000000e+00 
1.0000000e+00 3.0000000e+00 -4.5000000e+00 
1.0000000e+00 3.0000000e+00 -4.0000000e+00 
1.0000000e+00 3.0000000e+00 -3.5000000e+00 
1.0000000e+00 3.0000000e+00 -3.0000000e+00 
1.0000000e+00 3.0000000e+00 -2.5000000e+00 
1.0000000e+00 3.0000000e+00 -2.0000000e+00 
1.0000000e+00 3.0000000e+00 -1.5000000e+00 
1.0000000e+00 3.0000000e+00 -1.0000000e+00 
1.0000000e+00 3.0000000e+00 -5.0000000e-01 
1.0000000e+00 3.0000000e+00 0.0000000e+00 
1.0000000e+00 3.0000000e+00 5.0000000e-01 
1.0000000e+00 3.0000000e+00 1.0000000e+00 
1.0000000e+00 3.0000000e+00 1.5000000e+00 
1.0000000e+00 3.0000000e+00 2.0000000e+00 
1.0000000e+00 3.0000000e+00 2.5000000e+00 
1.0000000e+00 3.0000000e+00 3.0000000e+00 
1.0000000e+00 3.0000000e+00 3.5000000e+00 
1.0000000e+00 3.0000000e+00 4.0000000e+00 
1.0000000e+00 3.0000000e+00 4.5000000e+00 
1.0000000e+00 3.0000000e+00 5.0000000e+00 
1.0000000e+00 3.0000000e+00 5.5000000e+00 
1.0000000e+00 3.0000000e+00 6.0000000e+00 
1.0000000e+00 3.0000000e+00 6.5000000e+00 
1.0000000e+00 3.0000000e+00 7.0000000e+00 
1.0000000e+00 3.0000000e+00 7.5000000e+00 
1.0000000e+00 3.0000000e+00 8.0000000e+00 
1.0000000e+00 3.0000000e+00 8.5000000e+00 
1.0000000e+00 3.0000000e+00 9.0000000e+00 
1.0000000e+00 3.0000000e+00 9.5000000e+00 
1.0000000e+00 3.0000000e+00 1.0000000e+01 
1.0000000e+00 3.0000000e+00 1.0500000e+01 
1.0000000e+00 3.0000000e+00 1.1000000e+01 
1.0000000e+00 3.0000000e+00 1.1500000e+01 
1.0000000e+00 3.0000000e+00 1.2000000e+01 
1.0000000e+00 3.0000000e+00 1.2500000e+01 
1.0000000e+00 3.0000000e+00 1.3000000e+01 
1.0000000e+00 3.0000000e+00 1.3500000e+01 
1.0000000e+00 3.0000000e+00 1.4000000e+01 
1.0000000e+00 3.0000000e+00 1.4500000e+01 
1.0000000e+00 3.0250001e+00 -5.0000000e+00 
1.0000000e+00 3.0250001e+00 -4.5000000e+00 
1.0000000e+00 3.0250001e+00 -4.0000000e+00 
1.0000000e+00 3.0250001e+00 -3.5000000e+00 
1.0000000e+00 3.0250001e+00 -3.0000000e+00 
1.0000000e+00 3.0250001e+00 -2.5000000e+00 
1.0000000e+00 3.0250001e+00 -2.0000000e+00 
1.0000000e+00 3.0250001e+00 -1.5000000e+00 
1.0000000e+00 3.0250001e+00 -1.0000000e+00 
1.0000000e+00 3.0250001e+00 -5.0000000e-01 
1.0000000e+00 3.0250001e+00 0.0000000e+00 
1.0000000e+00 3.0250001e+00 5.0000000e-01 
1.0000000e+00 3.0250001e+00 1.0000000e+00 
1.0000000e+00 3.0250001e+00 1.5000000e+00 
1.0000000e+00 3.0250001e+00 2.0000000e+00 
1.0000000e+00 3.0250001e+00 2.5000000e+00 
1.0000000e+00 3.0250001e+00 3.0000000e+00 
1.0000000e+00 3.0250001e+00 3.5000000e+00 
1.0000000e+00 3.0250001e+00 4.0000000e+00 
1.0000000e+00 3.0250001e+00 4.5000000e+00 
1.0000000e+00 3.0250001e+00 5.0000000e+00 
1.0000000e+00 3.0250001e+00 5.5000000e+00 
1.0000000e+00 3.0250001e+00 6.0000000e+00 
1.0000000e+00 3.0250001e+00 6.5000000e+00 
1.0000000e+00 3.0250001e+00 7.0000000e+00 
1.0000000e+00 3.0250001e+00 7.5000000e+00 
1.0000000e+00 3.0250001e+00 8.0000000e+00 
1.0000000e+00 3.0250001e+00 8.5000000e+00 
1.0000000e+00 3.0250001e+00 9.0000000e+00 
1.0000000e+00 3.0250001e+00 9.5000000e+00 
1.0000000e+00 3.0250001e+00 1.0000000e+01 
1.0000000e+00 3.0250001e+00 1.0500000e+01 
1.0000000e+00 3.0250001e+00 1.1000000e+01 
1.0000000e+00 3.0250001e+00 1.1500000e+01 
1.0000000e+00 3.0250001e+00 1.2000000e+01 
1.0000000e+00 3.0250001e+00 1.2500000e+01 
1.0000000e+00 3.0250001e+00 1.3000000e+01 
1.0000000e+00 3.0250001e+00 1.3500000e+01 
1.0000000e+00 3.0250001e+00 1.4000000e+01 
1.0000000e+00 3.0250001e+00 1.4500000e+01 
1.0000000e+00 -2.0000000e+00 -5.0000000e+00 
1.0000000e+00 -2.0000000e+00 -4.5000000e+00 
1.0000000e+00 -2.0000000e+00 -4.0000000e+00 
1.0000000e+00 -2.0000000e+00 -3.5000000e+00 
1.0000000e+00 -2.0000000e+00 -3.0000000e+00 
1.0000000e+00 -2.0000000e+00 -2.5000000e+00 
1.0000000e+00 -2.0000000e+00 -2.0000000e+00 
1.0000000e+00 -2.0000000e+00 -1.5000000e+00 
1.0000000e+00 -2.0000000e+00 -1.0000000e+00 
1.0000000e+00 -2.0000000e+00 -5.0000000e-01 
1.0000000e+00 -2.0000000e+00 1.0500000e+01 
1.0000000e+00 -2.0000000e+00 1.1000000e+01 
1.0000000e+00 -2.0000000e+00 1.1500000e+01 
1.0000000e+00 -2.0000000e+00 1.2000000e+01 
1.0000000e+00 -2.0000000e+00 1.2500000e+01 
1.0000000e+00 -2.0000000e+00 1.3000000e+01 
1.0000000e+00 -2.0000000e+00 1.3500000e+01 
1.0000000e+00 -2.0000000e+00 1.4000000e+01 
1.0000000e+00 -2.0000000e+00 1.4500000e+01 
1.0000000e+00 0.0000000e+00 0.0000000e+00 
2.0000000e+00 0.0000000e+00 0.0000000e+00 
3.0000000e+00 0.0000000e+00 0.0000000e+00 
4.0000000e+00 0.0000000e+00 0.0000000e+00 
5.0000000e+00 1.0000000e+00 0.0000000e+00 
5.0000000e+00 2.0000000e+00 0.0000000e+00 
0.0000000e+00 2.0000000e+00 0.0000000e+00 
0.0000000e+00 1.0000000e+00 0.0000000e+00 
0.0000000e+00 0.0000000e+00 1.0000000e+00 
0.0000000e+00 0.0000000e+00 2.0000000e+00 
0.0000000e+00 0.0000000e+00 3.0000000e+00 
0.0000000e+00 0.0000000e+00 4.0000000e+00 
0.0000000e+00 0.0000000e+00 5.0000000e+00 
0.0000000e+00 0.0000000e+00 6.0000000e+00 
0.0000000e+00 0.0000000e+00 7.0000000e+00 
0.0000000e+00 0.0000000e+00 8.0000000e+00 
0.0000000e+00 0.0000000e+00 9.0000000e+00 
5.0000000e+00 0.0000000e+00 1.0000000e+00 
5.0000000e+00 0.0000000e+00 2.0000000e+00 
5.0000000e+00 0.0000000e+00 3.0000000e+00 
5.0000000e+00 0.0000000e+00 4.0000000e+00 
5.0000000e+00 0.0000000e+00 5.0000000e+00 
5.0000000e+00 0.0000000e+00 6.0000000e+00 
5.0000000e+00 0.0000000e+00 7.0000000e+00 
5.0000000e+00 0.0000000e+00 8.0000000e+00 
5.0000000e+00 0.0000000e+00 9.0000000e+00 
1.0000000e+00 0.0000000e+00 1.0000000e+01 
2.0000000e+00 0.0000000e+00 1.0000000e+01 
3.0000000e+00 0.0000000e+00 1.0000000e+01 
4.0000000e+00 0.0000000e+00 1.0000000e+01 
5.0000000e+00 3.0000000e+00 1.0000000e+00 
5.0000000e+00 3.0000000e+00 2.0000000e+00 
5.0000000e+00 3.0000000e+00 3.0000000e+00 
5.0000000e+00 3.0000000e+00 4.0000000e+00 
5.0000000e+00 3.0000000e+00 5.0000000e+00 
5.0000000e+00 3.0000000e+00 6.0000000e+00 
5.0000000e+00 3.0000000e+00 7.0000000e+00 
5.0000000e+00 3.0000000e+00 8.0000000e+00 
5.0000000e+00 3.0000000e+00 9.0000000e+00 
5.0000000e+00 1.0000000e+00 1.0000000e+01 
5.0000000e+00 2.0000000e+00 1.0000000e+01 
0.0000000e+00 3.0000000e+00 1.0000000e+00 
0.0000000e+00 3.0000000e+00 2.0000000e+00 
0.0000000e+00 3.0000000e+00 3.0000000e+00 
0.0000000e+00 3.0000000e+00 4.0000000e+00 
0.0000000e+00 3.0000000e+00 5.0000000e+00 
0.0000000e+00 3.0000000e+00 6.0000000e+00 
0.0000000e+00 3.0000000e+00 7.0000000e+00 
0.0000000e+00 3.0000000e+00 8.0000000e+00 
0.0000000e+00 3.0000000e+00 9.0000000e+00 
0.0000000e+00 2.0000000e+00 1.0000000e+01 
0.0000000e+00 1.0000000e+00 1.0000000e+01 
4.0000000e+00 3.0000000e+00 0.0000000e+00 
3.0000000e+00 3.0000000e+00 0.0000000e+00 
2.0000000e+00 3.0000000e+00 0.0000000e+00 
4.0000000e+00 3.0000000e+00 1.0000000e+01 
3.0000000e+00 3.0000000e+00 1.0000000e+01 
2.0000000e+00 3.0000000e+00 1.0000000e+01 
4.0618000e+00 1.5000000e+00 0.0000000e+00 
1.5046000e+00 7.6549745e-01 0.0000000e+00 
2.5000000e+00 2.1339746e+00 0.0000000e+00 
1.5046000e+00 2.2345026e+00 0.0000000e+00 
2.4957771e+00 8.1560516e-01 0.0000000e+00 
3.4707544e+00 2.2336540e+00 0.0000000e+00 
3.4700506e+00 7.5794268e-01 0.0000000e+00 
8.6322361e-01 1.5000000e+00 0.0000000e+00 
2.0000000e+00 1.5000000e+00 0.0000000e+00 
2.9960666e+00 1.4974480e+00 0.0000000e+00 
4.2679491e+00 7.3205084e-01 0.0000000e+00 
4.2679491e+00 2.2679491e+00 0.0000000e+00 
7.2695929e-01 2.2730408e+00 0.0000000e+00 
7.2695929e-01 7.2695929e-01 0.0000000e+00 
4.1822505e+00 0.0000000e+00 2.5515697e+00 
4.2017918e+00 0.0000000e+00 4.4725966e+00 
4.1114569e+00 0.0000000e+00 6.5092020e+00 
8.6602539e-01 0.0000000e+00 3.5000000e+00 
8.4778279e-01 0.0000000e+00 5.4684029e+00 
8.9629614e-01 0.0000000e+00 7.5867257e+00 
2.5566745e+00 0.0000000e+00 8.1853306e-01 
2.4918270e+00 0.0000000e+00 9.1386929e+00 
8.4677207e-01 0.0000000e+00 1.5042374e+00 
4.0943027e+00 0.0000000e+00 8.4081745e+00 
8.6281651e-01 0.0000000e+00 2.5007062e+00 
1.7315160e+00 0.0000000e+00 3.0001178e+00 
1.7319617e+00 0.0000000e+00 4.0000196e+00 
2.5980761e+00 0.0000000e+00 3.5000000e+00 
2.5536871e+00 0.0000000e+00 4.4963923e+00 
2.5928419e+00 0.0000000e+00 2.4239938e+00 
1.5037409e+00 0.0000000e+00 9.1535149e+00 
1.8433737e+00 0.0000000e+00 8.1858873e+00 
3.0000000e+00 0.0000000e+00 8.2679491e+00 
2.5000000e+00 0.0000000e+00 7.4019237e+00 
3.5042722e+00 0.0000000e+00 7.4271150e+00 
3.0310018e+00 0.0000000e+00 6.5282087e+00 
2.0373929e+00 0.0000000e+00 6.5307913e+00 
3.4767809e+00 0.0000000e+00 5.8031492e+00 
2.5452602e+00 0.0000000e+00 5.5720768e+00 
1.6456656e+00 0.0000000e+00 1.9697139e+00 
8.6297011e-01 0.0000000e+00 4.4947371e+00 
1.0111579e+00 0.0000000e+00 6.5282545e+00 
3.4994321e+00 0.0000000e+00 8.4691072e-01 
4.1860156e+00 0.0000000e+00 3.5040276e+00 
1.7320508e+00 0.0000000e+00 5.0000000e+00 
4.0544066e+00 0.0000000e+00 1.5781221e+00 
1.5817389e+00 0.0000000e+00 9.3943578e-01 
8.3166349e-01 0.0000000e+00 8.5090933e+00 
3.4686174e+00 0.0000000e+00 9.1752682e+00 
3.0709300e+00 0.0000000e+00 1.5799091e+00 
3.3927374e+00 0.0000000e+00 3.0399952e+00 
3.3826034e+00 0.0000000e+00 3.9747651e+00 
4.3420062e+00 0.0000000e+00 7.4688983e+00 
3.4023225e+00 0.0000000e+00 4.9314723e+00 
1.6740381e+00 0.0000000e+00 7.3014426e+00 
4.2715640e+00 0.0000000e+00 5.4758859e+00 
1.6225953e+00 0.0000000e+00 5.8104177e+00 
4.2679491e+00 0.0000000e+00 9.2679491e+00 
7.3205084e-01 0.0000000e+00 7.3205084e-01 
4.2679491e+00 0.0000000e+00 7.3205084e-01 
7.3205084e-01 0.0000000e+00 9.2679491e+00 
3.4586334e+00 0.0000000e+00 2.2347178e+00 
2.2895701e+00 0.0000000e+00 1.5463171e+00 
5.0000000e+00 2.2345026e+00 1.5046000e+00 
[...]
POINT_DATA 460
FIELD FieldData 2
DISPLACEMENT 3 460  float
0.0000000e+00 0.0000000e+00 0.0000000e+00 
0.0000000e+00 0.0000000e+00 0.0000000e+00 
0.0000000e+00 6.8802848e-08 0.0000000e+00 
0.0000000e+00 4.6801976e-08 0.0000000e+00 
0.0000000e+00 0.0000000e+00 0.0000000e+00 
0.0000000e+00 0.0000000e+00 0.0000000e+00 
0.0000000e+00 -1.9333847e-06 0.0000000e+00 
0.0000000e+00 -4.3867050e-05 0.0000000e+00 
0.0000000e+00 -4.4964288e-08 0.0000000e+00 
0.0000000e+00 -4.6384027e-08 0.0000000e+00 
0.0000000e+00 -5.0218318e-08 0.0000000e+00 
0.0000000e+00 -5.5519788e-08 0.0000000e+00 
0.0000000e+00 -6.0828043e-08 0.0000000e+00 
0.0000000e+00 -6.4044784e-08 0.0000000e+00 
0.0000000e+00 -6.2449480e-08 0.0000000e+00 
0.0000000e+00 -5.3017622e-08 0.0000000e+00 
0.0000000e+00 -3.3181990e-08 0.0000000e+00 
0.0000000e+00 -2.1694222e-09 0.0000000e+00 
0.0000000e+00 3.7414711e-08 0.0000000e+00 
-1.0321831e-08 7.7718916e-08 1.8586954e-08 
-2.1985972e-08 1.1748027e-07 6.6088958e-08 
-2.3058160e-08 1.4922807e-07 1.2412957e-07 
-3.2713800e-08 1.5535193e-07 2.8193273e-07 
-8.5392699e-08 1.1249813e-07 5.8173424e-07 
-1.3841149e-07 -2.2904564e-08 1.0375066e-06 
-1.5003053e-07 -3.2830505e-07 1.6237398e-06 
-7.6481763e-07 -9.7816360e-07 3.0866495e-06 
-7.6879741e-07 -2.5641154e-06 4.4309982e-06 
-1.9398854e-06 -6.7140263e-06 8.0383179e-06 
-3.5689202e-06 -1.7051341e-05 1.2104875e-05 
-3.0438543e-06 -4.0250678e-05 1.1380806e-05 
-4.3045925e-06 -8.5912427e-05 1.4010015e-05 
3.2525265e-06 -1.5712826e-04 2.1479944e-05 
4.3414648e-06 -2.3007394e-04 8.1155185e-06 
1.8131151e-06 -2.4770355e-04 -6.0652819e-06 
-8.6255625e-07 -1.8611651e-04 -1.8911680e-05 
-8.0811615e-06 -1.0999496e-04 -1.0438371e-05 
-3.7838834e-06 -5.7339505e-05 -9.1232971e-07 
0.0000000e+00 -2.7781451e-05 0.0000000e+00 
0.0000000e+00 -8.9078812e-06 0.0000000e+00 
0.0000000e+00 1.1902629e-06 0.0000000e+00 
0.0000000e+00 5.3889230e-06 0.0000000e+00 
0.0000000e+00 5.9928657e-06 0.0000000e+00 
0.0000000e+00 4.8206748e-06 0.0000000e+00 
0.0000000e+00 3.0943468e-06 0.0000000e+00 
0.0000000e+00 1.5275069e-06 0.0000000e+00 
0.0000000e+00 4.8219101e-07 0.0000000e+00 
0.0000000e+00 1.1741808e-07 0.0000000e+00 
0.0000000e+00 -4.4726558e-08 0.0000000e+00 
0.0000000e+00 -4.6210427e-08 0.0000000e+00 
0.0000000e+00 -5.0309428e-08 0.0000000e+00 
0.0000000e+00 -5.5962165e-08 0.0000000e+00 
0.0000000e+00 -6.1430079e-08 0.0000000e+00 
0.0000000e+00 -6.4466533e-08 0.0000000e+00 
0.0000000e+00 -6.2573768e-08 0.0000000e+00 
0.0000000e+00 -5.2974645e-08 0.0000000e+00 
0.0000000e+00 -3.3083424e-08 0.0000000e+00 
0.0000000e+00 -2.0126436e-09 0.0000000e+00 
0.0000000e+00 3.7208341e-08 0.0000000e+00 
0.0000000e+00 7.8107014e-08 0.0000000e+00 
0.0000000e+00 1.1802434e-07 0.0000000e+00 
0.0000000e+00 1.4921793e-07 0.0000000e+00 
0.0000000e+00 1.5552942e-07 0.0000000e+00 
0.0000000e+00 1.1208451e-07 0.0000000e+00 
0.0000000e+00 -2.2898790e-08 0.0000000e+00 
0.0000000e+00 -3.2014654e-07 0.0000000e+00 
0.0000000e+00 -9.5339146e-07 0.0000000e+00 
0.0000000e+00 -2.5092879e-06 0.0000000e+00 
0.0000000e+00 -6.6120592e-06 0.0000000e+00 
0.0000000e+00 -1.6901658e-05 0.0000000e+00 
0.0000000e+00 -4.0289833e-05 0.0000000e+00 
0.0000000e+00 -8.6444794e-05 0.0000000e+00 
0.0000000e+00 -1.5857782e-04 0.0000000e+00 
0.0000000e+00 -2.3356150e-04 0.0000000e+00 
0.0000000e+00 -2.5185867e-04 0.0000000e+00 
0.0000000e+00 -1.8876362e-04 0.0000000e+00 
0.0000000e+00 -1.1143447e-04 0.0000000e+00 
0.0000000e+00 -5.7782145e-05 0.0000000e+00 
0.0000000e+00 -2.7307347e-05 0.0000000e+00 
0.0000000e+00 -8.9471587e-06 0.0000000e+00 
0.0000000e+00 1.1914061e-06 0.0000000e+00 
0.0000000e+00 5.4075067e-06 0.0000000e+00 
0.0000000e+00 6.0149155e-06 0.0000000e+00 
0.0000000e+00 4.8392380e-06 0.0000000e+00 
0.0000000e+00 3.1071297e-06 0.0000000e+00 
0.0000000e+00 1.5349066e-06 0.0000000e+00 
0.0000000e+00 4.8596200e-07 0.0000000e+00 
0.0000000e+00 1.1991611e-07 0.0000000e+00 
0.0000000e+00 0.0000000e+00 0.0000000e+00 
0.0000000e+00 0.0000000e+00 0.0000000e+00 
0.0000000e+00 0.0000000e+00 0.0000000e+00 
0.0000000e+00 0.0000000e+00 0.0000000e+00 
0.0000000e+00 0.0000000e+00 0.0000000e+00 
0.0000000e+00 0.0000000e+00 0.0000000e+00 
0.0000000e+00 0.0000000e+00 0.0000000e+00 
0.0000000e+00 0.0000000e+00 0.0000000e+00 
0.0000000e+00 0.0000000e+00 0.0000000e+00 
0.0000000e+00 0.0000000e+00 0.0000000e+00 
0.0000000e+00 0.0000000e+00 0.0000000e+00 
0.0000000e+00 0.0000000e+00 0.0000000e+00 
0.0000000e+00 0.0000000e+00 0.0000000e+00 
0.0000000e+00 0.0000000e+00 0.0000000e+00 
0.0000000e+00 0.0000000e+00 0.0000000e+00 
0.0000000e+00 0.0000000e+00 0.0000000e+00 
0.0000000e+00 0.0000000e+00 0.0000000e+00 
0.0000000e+00 0.0000000e+00 0.0000000e+00 
0.0000000e+00 0.0000000e+00 0.0000000e+00 
0.0000000e+00 0.0000000e+00 0.0000000e+00 
0.0000000e+00 0.0000000e+00 0.0000000e+00 
0.0000000e+00 0.0000000e+00 0.0000000e+00 
0.0000000e+00 0.0000000e+00 0.0000000e+00 
0.0000000e+00 3.2620850e-08 0.0000000e+00 
0.0000000e+00 6.2350800e-08 0.0000000e+00 
0.0000000e+00 4.3578286e-08 0.0000000e+00 
0.0000000e+00 2.0056007e-08 0.0000000e+00 
0.0000000e+00 0.0000000e+00 0.0000000e+00 
0.0000000e+00 0.0000000e+00 0.0000000e+00 
0.0000000e+00 0.0000000e+00 0.0000000e+00 
0.0000000e+00 0.0000000e+00 0.0000000e+00 
0.0000000e+00 0.0000000e+00 0.0000000e+00 
0.0000000e+00 0.0000000e+00 0.0000000e+00 
0.0000000e+00 0.0000000e+00 0.0000000e+00 
0.0000000e+00 0.0000000e+00 0.0000000e+00 
0.0000000e+00 0.0000000e+00 0.0000000e+00 
0.0000000e+00 0.0000000e+00 0.0000000e+00 
0.0000000e+00 0.0000000e+00 0.0000000e+00 
0.0000000e+00 0.0000000e+00 0.0000000e+00 
0.0000000e+00 0.0000000e+00 0.0000000e+00 
0.0000000e+00 0.0000000e+00 0.0000000e+00 
0.0000000e+00 0.0000000e+00 0.0000000e+00 
0.0000000e+00 0.0000000e+00 0.0000000e+00 
0.0000000e+00 0.0000000e+00 0.0000000e+00 
0.0000000e+00 0.0000000e+00 0.0000000e+00 
0.0000000e+00 0.0000000e+00 0.0000000e+00 
0.0000000e+00 0.0000000e+00 0.0000000e+00 
0.0000000e+00 0.0000000e+00 0.0000000e+00 
0.0000000e+00 0.0000000e+00 0.0000000e+00 
0.0000000e+00 1.0101088e-07 0.0000000e+00 
0.0000000e+00 2.1732789e-07 0.0000000e+00 
0.0000000e+00 2.6681045e-07 0.0000000e+00 
0.0000000e+00 3.8374961e-07 0.0000000e+00 
0.0000000e+00 -6.2133537e-08 0.0000000e+00 
0.0000000e+00 -1.5297252e-07 0.0000000e+00 
0.0000000e+00 -1.6897881e-06 0.0000000e+00 
0.0000000e+00 -1.1435557e-06 0.0000000e+00 
0.0000000e+00 -2.1653407e-06 0.0000000e+00 
0.0000000e+00 -1.3654700e-06 0.0000000e+00 
0.0000000e+00 -1.8205056e-06 0.0000000e+00 
0.0000000e+00 8.1377451e-08 0.0000000e+00 
0.0000000e+00 9.2413565e-08 0.0000000e+00 
0.0000000e+00 -4.0649346e-07 0.0000000e+00 
0.0000000e+00 -3.1214784e-06 0.0000000e+00 
0.0000000e+00 -1.2237517e-05 0.0000000e+00 
0.0000000e+00 -3.5304092e-05 0.0000000e+00 
0.0000000e+00 -8.7403299e-05 0.0000000e+00 
0.0000000e+00 -9.9196252e-05 0.0000000e+00 
0.0000000e+00 -6.6141431e-05 0.0000000e+00 
0.0000000e+00 -3.6915451e-05 0.0000000e+00 
0.0000000e+00 -1.9373290e-05 0.0000000e+00 
0.0000000e+00 7.4787891e-08 0.0000000e+00 
0.0000000e+00 8.1990834e-08 0.0000000e+00 
0.0000000e+00 7.5858189e-08 0.0000000e+00 
0.0000000e+00 -4.2335619e-06 0.0000000e+00 
0.0000000e+00 -1.2277699e-05 0.0000000e+00 
0.0000000e+00 -2.6758011e-05 0.0000000e+00 
0.0000000e+00 5.4540504e-08 0.0000000e+00 
0.0000000e+00 2.1246766e-08 0.0000000e+00 
0.0000000e+00 8.0894416e-08 0.0000000e+00 
0.0000000e+00 6.4264462e-08 0.0000000e+00 
0.0000000e+00 2.8926404e-08 0.0000000e+00 
0.0000000e+00 7.4890458e-08 0.0000000e+00 
0.0000000e+00 2.7956894e-08 0.0000000e+00 
0.0000000e+00 4.5706432e-08 0.0000000e+00 
0.0000000e+00 6.1968528e-08 0.0000000e+00 
0.0000000e+00 5.5965351e-08 0.0000000e+00 
0.0000000e+00 1.8548173e-08 0.0000000e+00 
0.0000000e+00 6.8083963e-08 0.0000000e+00 
0.0000000e+00 5.1382962e-08 0.0000000e+00 
0.0000000e+00 1.2607248e-08 0.0000000e+00 
0.0000000e+00 0.0000000e+00 0.0000000e+00 
0.0000000e+00 0.0000000e+00 0.0000000e+00 
0.0000000e+00 0.0000000e+00 0.0000000e+00 
0.0000000e+00 0.0000000e+00 0.0000000e+00 
0.0000000e+00 0.0000000e+00 0.0000000e+00 
0.0000000e+00 0.0000000e+00 0.0000000e+00 
0.0000000e+00 0.0000000e+00 0.0000000e+00 
0.0000000e+00 0.0000000e+00 0.0000000e+00 
0.0000000e+00 0.0000000e+00 0.0000000e+00 
0.0000000e+00 0.0000000e+00 0.0000000e+00 
0.0000000e+00 0.0000000e+00 0.0000000e+00 
0.0000000e+00 0.0000000e+00 0.0000000e+00 
0.0000000e+00 0.0000000e+00 0.0000000e+00 
0.0000000e+00 0.0000000e+00 0.0000000e+00 
0.0000000e+00 0.0000000e+00 0.0000000e+00 
0.0000000e+00 0.0000000e+00 0.0000000e+00 
0.0000000e+00 0.0000000e+00 0.0000000e+00 
0.0000000e+00 0.0000000e+00 0.0000000e+00 
0.0000000e+00 0.0000000e+00 0.0000000e+00 
0.0000000e+00 0.0000000e+00 0.0000000e+00 
0.0000000e+00 0.0000000e+00 0.0000000e+00 
0.0000000e+00 0.0000000e+00 0.0000000e+00 
0.0000000e+00 0.0000000e+00 0.0000000e+00 
0.0000000e+00 0.0000000e+00 0.0000000e+00 
0.0000000e+00 0.0000000e+00 0.0000000e+00 
0.0000000e+00 0.0000000e+00 0.0000000e+00 
0.0000000e+00 0.0000000e+00 0.0000000e+00 
0.0000000e+00 0.0000000e+00 0.0000000e+00 
0.0000000e+00 0.0000000e+00 0.0000000e+00 
0.0000000e+00 0.0000000e+00 0.0000000e+00 
0.0000000e+00 0.0000000e+00 0.0000000e+00 
0.0000000e+00 0.0000000e+00 0.0000000e+00 
0.0000000e+00 0.0000000e+00 0.0000000e+00 
0.0000000e+00 0.0000000e+00 0.0000000e+00 
0.0000000e+00 0.0000000e+00 0.0000000e+00 
0.0000000e+00 0.0000000e+00 0.0000000e+00 
0.0000000e+00 0.0000000e+00 0.0000000e+00 
0.0000000e+00 0.0000000e+00 0.0000000e+00 
0.0000000e+00 0.0000000e+00 0.0000000e+00 
0.0000000e+00 0.0000000e+00 0.0000000e+00 
0.0000000e+00 0.0000000e+00 0.0000000e+00 
0.0000000e+00 0.0000000e+00 0.0000000e+00 
0.0000000e+00 0.0000000e+00 0.0000000e+00 
0.0000000e+00 0.0000000e+00 0.0000000e+00 
0.0000000e+00 0.0000000e+00 0.0000000e+00 
0.0000000e+00 0.0000000e+00 0.0000000e+00 
0.0000000e+00 0.0000000e+00 0.0000000e+00 
0.0000000e+00 0.0000000e+00 0.0000000e+00 
0.0000000e+00 0.0000000e+00 0.0000000e+00 
0.0000000e+00 1.4166005e-07 0.0000000e+00 
0.0000000e+00 -1.5824435e-06 0.0000000e+00 
0.0000000e+00 3.3505813e-07 0.0000000e+00 
0.0000000e+00 5.3399933e-09 0.0000000e+00 
0.0000000e+00 -9.0684324e-07 0.0000000e+00 
0.0000000e+00 9.1549573e-08 0.0000000e+00 
0.0000000e+00 -5.3131856e-08 0.0000000e+00 
0.0000000e+00 -8.0482391e-07 0.0000000e+00 
0.0000000e+00 9.4714615e-08 0.0000000e+00 
0.0000000e+00 -7.8070585e-08 0.0000000e+00 
0.0000000e+00 2.4643026e-07 0.0000000e+00 
0.0000000e+00 3.2954793e-07 0.0000000e+00 
0.0000000e+00 -1.8391131e-07 0.0000000e+00 
0.0000000e+00 -1.2377664e-06 0.0000000e+00 
0.0000000e+00 4.9798953e-08 0.0000000e+00 
0.0000000e+00 -1.1174918e-06 0.0000000e+00 
0.0000000e+00 -8.9987611e-07 0.0000000e+00 
0.0000000e+00 6.9821461e-08 0.0000000e+00 
0.0000000e+00 -1.0155949e-08 0.0000000e+00 
0.0000000e+00 -8.3762092e-07 0.0000000e+00 
0.0000000e+00 1.3266806e-07 0.0000000e+00 
0.0000000e+00 -2.1013197e-07 0.0000000e+00 
0.0000000e+00 2.2825627e-07 0.0000000e+00 
0.0000000e+00 1.9444764e-07 0.0000000e+00 
0.0000000e+00 -8.8100990e-07 0.0000000e+00 
0.0000000e+00 -1.3839817e-06 0.0000000e+00 
0.0000000e+00 -9.3701135e-07 0.0000000e+00 
0.0000000e+00 8.4039073e-08 0.0000000e+00 
0.0000000e+00 2.6813245e-08 0.0000000e+00 
0.0000000e+00 -3.9426282e-05 0.0000000e+00 
0.0000000e+00 5.2433812e-08 0.0000000e+00 
0.0000000e+00 -4.4630838e-08 0.0000000e+00 
0.0000000e+00 -2.9582504e-06 0.0000000e+00 
0.0000000e+00 -2.4383402e-05 0.0000000e+00 
0.0000000e+00 -1.2053206e-06 0.0000000e+00 
0.0000000e+00 -1.9820762e-05 0.0000000e+00 
0.0000000e+00 -7.5989286e-05 0.0000000e+00 
0.0000000e+00 -6.6327510e-07 0.0000000e+00 
0.0000000e+00 -5.2291096e-08 0.0000000e+00 
0.0000000e+00 -6.0956213e-06 0.0000000e+00 
0.0000000e+00 -4.8888574e-05 0.0000000e+00 
0.0000000e+00 -2.4663072e-05 0.0000000e+00 
0.0000000e+00 -7.2999530e-05 0.0000000e+00 
0.0000000e+00 9.3548636e-08 0.0000000e+00 
0.0000000e+00 1.9581350e-08 0.0000000e+00 
0.0000000e+00 -2.2856546e-05 0.0000000e+00 
0.0000000e+00 -8.7518129e-06 0.0000000e+00 
0.0000000e+00 -1.6977532e-05 0.0000000e+00 
0.0000000e+00 -2.7591545e-06 0.0000000e+00 
0.0000000e+00 -4.2398585e-07 0.0000000e+00 
0.0000000e+00 -4.2864107e-05 0.0000000e+00 
0.0000000e+00 -7.6791102e-06 0.0000000e+00 
0.0000000e+00 -5.2272953e-05 0.0000000e+00 
0.0000000e+00 4.8562345e-08 0.0000000e+00 
0.0000000e+00 -1.8518665e-05 0.0000000e+00 
0.0000000e+00 6.4249235e-08 0.0000000e+00 
0.0000000e+00 1.6807194e-08 0.0000000e+00 
0.0000000e+00 -5.0227642e-05 0.0000000e+00 
0.0000000e+00 -1.2051188e-05 0.0000000e+00 
0.0000000e+00 -2.7368940e-06 0.0000000e+00 
0.0000000e+00 -1.6665907e-05 0.0000000e+00 
0.0000000e+00 -2.8503528e-05 0.0000000e+00 
0.0000000e+00 -7.3233523e-06 0.0000000e+00 
0.0000000e+00 -5.8295745e-06 0.0000000e+00 
0.0000000e+00 -3.1252455e-06 0.0000000e+00 
0.0000000e+00 -2.5311047e-05 0.0000000e+00 
0.0000000e+00 -1.6905728e-05 0.0000000e+00 
0.0000000e+00 -8.6395348e-06 0.0000000e+00 
0.0000000e+00 -1.5754650e-06 0.0000000e+00 
0.0000000e+00 -2.4462349e-06 0.0000000e+00 
0.0000000e+00 -3.4441320e-05 0.0000000e+00 
0.0000000e+00 -1.2542873e-05 0.0000000e+00 
-1.6615351e-06 -4.9230935e-06 5.6873851e-06 
-7.5448970e-06 -3.7916270e-05 1.1858190e-05 
-5.8857081e-06 -1.1778204e-04 4.3112959e-06 
-1.0751786e-07 1.1146708e-07 4.9240242e-07 
-3.1664308e-07 -1.1019225e-07 1.5395391e-06 
-1.6322090e-06 -7.6741657e-07 1.2802002e-06 
-1.1803886e-07 2.8136293e-07 1.3980284e-07 
-3.2410755e-06 -2.7321805e-06 8.9011530e-07 
-2.5457357e-08 1.4845668e-07 9.7619690e-08 
-7.1731342e-06 -7.9051548e-05 -8.1953940e-06 
-1.5232056e-08 1.1098974e-07 1.7901762e-08 
-4.6815671e-06 -8.2060687e-06 -9.7292570e-07 
-3.1658692e-06 -2.3460354e-06 9.2026090e-07 
-6.3647417e-06 -9.5965524e-06 2.6914922e-06 
-9.3556546e-06 -9.6786562e-06 7.5859083e-07 
-7.9198207e-06 -2.1187732e-05 1.4886671e-06 
-7.2573584e-06 -1.6225758e-05 3.7361754e-06 
-1.0596649e-05 -2.6249372e-05 -1.9300120e-07 
-1.2894708e-05 -4.5455832e-05 8.3388513e-06 
-5.3059011e-06 -6.2568010e-06 3.4454174e-06 
-2.5699510e-06 -2.9255532e-06 2.2971835e-06 
-4.4612630e-06 -7.6336237e-06 3.9526985e-06 
-2.6464600e-06 -3.6463775e-06 3.8427747e-06 
-1.3140706e-06 -8.1058886e-07 1.7563794e-06 
-1.2025130e-06 -9.6323492e-07 2.1734224e-06 
-6.9095171e-07 -1.0780619e-07 9.4854011e-07 
-4.3553129e-07 -1.3311019e-07 1.2346748e-06 
-2.9402392e-07 1.6115096e-07 5.9738557e-07 
-3.0614154e-07 1.8959622e-07 7.2897842e-07 
-1.7638749e-07 1.9007521e-07 2.9933960e-07 
-8.5178868e-08 2.1784322e-07 2.6768933e-07 
-4.3982377e-06 -1.0233717e-05 7.4499708e-06 
-6.1325231e-06 -1.7280485e-05 7.1783134e-06 
-8.2841859e-07 -8.3584234e-07 2.0437080e-06 
-3.3943627e-07 2.7457725e-07 3.4492271e-07 
-6.0547227e-06 -1.9599775e-05 -8.4061190e-07 
-1.5582153e-06 -2.5840718e-06 3.3902834e-06 
-9.6183089e-07 1.6023846e-07 9.1719835e-07 
-2.3275328e-08 1.4505095e-07 4.9068511e-08 
-4.2767197e-06 -3.8758890e-06 -3.4582220e-07 
-1.5894748e-05 -5.6475881e-05 2.8486468e-06 
-1.5384288e-05 -5.4217999e-05 1.2443514e-06 
-4.4845947e-06 -2.0533293e-05 9.0168069e-06 
-3.5088156e-08 1.7150140e-07 2.3362672e-08 
-1.7215339e-07 7.3631050e-08 8.5097560e-07 
-3.3422009e-07 5.2221065e-08 1.1026566e-06 
-6.2636678e-07 -8.1293109e-07 2.5356567e-06 
-1.4686107e-06 -2.0364621e-06 4.4300759e-06 
-8.6166501e-06 -6.3865271e-05 1.0484749e-05 
-1.4959072e-05 -8.8122390e-05 7.0302640e-06 
-1.9266018e-08 1.0253747e-07 3.3255855e-08 
-4.8329731e-08 1.7480697e-07 2.1197599e-07 
-6.7964720e-06 -4.9012466e-05 -4.0712252e-06 
-6.1457456e-08 2.1809977e-07 9.4050662e-08 
-1.8827701e-07 1.3531502e-07 5.8955015e-07 
-1.5207179e-05 -1.0338340e-04 -5.6509748e-06 
-1.0496698e-05 -2.9173729e-05 8.2315892e-06 
-4.7516114e-08 1.6152639e-07 1.5031051e-07 
-2.7476046e-06 -1.1069343e-05 7.5554808e-06 
-7.9164129e-06 -1.2383849e-05 -6.3477222e-07 
-2.5299523e-06 -3.3483527e-06 -3.4649204e-07 
-8.8738883e-09 9.8322509e-08 4.8208144e-09 
-8.3569438e-07 -1.4496327e-07 9.6619908e-07 
-9.6547197e-08 2.1738707e-07 3.0468811e-07 
-1.0979595e-05 -3.8548169e-05 -3.3368565e-06 
-6.7941232e-06 -1.3641064e-05 4.4472981e-06 
-7.7263941e-08 2.2994473e-07 1.4786288e-07 
-2.3898360e-07 2.5135765e-07 4.2177783e-07 
-2.5205729e-08 1.4460188e-07 5.8024206e-08 
-2.2712115e-06 -6.0823600e-06 5.6285248e-06 
-5.4471402e-06 -3.1297866e-05 -2.2554000e-06 
-1.7250910e-08 9.7702063e-08 3.2248155e-07 
-1.0113190e-08 1.1144203e-07 1.7625716e-07 
-5.1350333e-09 -2.0899398e-07 5.6538750e-07 
-4.3573728e-08 -6.0199932e-07 7.7638333e-07 
-1.2520045e-08 1.0930155e-07 8.7718455e-08 
-7.6769879e-08 -1.7364428e-06 1.1242195e-06 
-3.8238727e-07 -3.9768770e-06 2.1809258e-06 
-3.5828111e-07 -8.3115328e-06 3.1253160e-06 
-9.4229000e-07 -1.6778698e-05 7.1384325e-06 
-2.5622344e-06 -3.3574586e-05 9.6399208e-06 
-2.7449350e-06 -5.1344185e-05 8.8860479e-06 
-5.7794600e-06 -8.7133078e-05 1.0623589e-05 
-9.0998701e-06 -1.2382869e-04 4.4581793e-06 
-1.0005945e-05 -1.4102948e-04 1.6809797e-06 
-4.9592741e-06 -1.2094031e-04 -5.8955538e-06 
-5.4453731e-06 -9.0619673e-05 -8.5464399e-06 
-2.8738077e-06 -5.8878300e-05 -5.9528716e-06 
-8.1151406e-09 7.1078432e-08 2.3436415e-08 
1.2081048e-08 1.4383764e-07 -1.5503127e-07 
1.9832157e-07 -4.5166698e-07 -9.1661423e-07 
2.8300349e-06 -9.8090004e-06 -4.7421399e-06 
8.4680723e-06 -3.1600659e-05 -5.5958089e-06 
9.4188481e-06 -3.5683090e-05 2.6499310e-06 
9.8803490e-08 1.8760267e-07 -2.8464612e-07 
7.3213488e-07 -3.3374863e-07 -1.0246508e-06 
4.5721567e-06 -8.4332451e-06 -2.9799460e-06 
2.6998535e-07 -3.6464367e-06 -1.1362962e-06 
-1.2123953e-08 5.5688570e-08 6.3574120e-08 
-1.0992409e-08 1.3873766e-07 1.8340190e-08 
7.7007026e-06 -1.1467427e-05 -3.2045170e-07 
-1.1073317e-08 1.4687615e-07 -2.4937162e-08 
3.6681815e-06 -3.8530234e-05 -7.3210035e-06 
3.2844403e-06 -9.0663401e-05 -3.0822889e-07 
5.3966303e-09 -1.0215234e-06 1.7460562e-07 
4.8016784e-07 -1.7726326e-06 -8.1060136e-07 
4.4043134e-08 2.2579388e-07 -1.6675030e-07 
6.0014150e-07 -1.2296618e-05 -1.7643963e-06 
8.5965638e-07 -2.1234182e-06 -2.3960256e-06 
-4.0499222e-09 1.9337442e-07 9.4149740e-08 
1.5493730e-06 -1.0443886e-06 -1.0937925e-06 
1.2279282e-06 -7.0205839e-05 6.8709141e-06 
2.3425033e-08 9.6148099e-08 -5.9543687e-08 
3.1325130e-06 -4.8575462e-06 2.1350759e-07 
8.4075552e-08 -9.4877429e-08 -5.0941298e-07 
2.4266576e-06 -3.4400791e-06 -2.8378797e-06 
5.3913368e-08 1.0021092e-07 -2.2577416e-07 
2.2132686e-07 -7.4419489e-08 -6.8001299e-07 
1.1586038e-08 5.9863510e-08 -1.2773353e-08 
1.5656592e-06 -2.4128983e-06 -1.9699182e-07 
3.8881226e-06 -2.2606422e-05 -1.9470040e-06 
5.8224409e-06 -7.6852986e-05 -4.6315331e-06 
1.0318952e-06 -1.1060385e-05 -1.1577637e-06 
6.5236150e-06 -1.1262145e-05 1.0764336e-06 
9.1702432e-06 -3.6068388e-05 -3.5444396e-07 
-6.0564536e-09 6.2705467e-08 -6.5957082e-08 
1.4670650e-07 3.0985305e-07 -1.9153740e-07 
-1.7133482e-08 6.2466128e-08 -6.5479789e-08 
3.0910098e-06 -1.6665026e-05 -5.5892051e-06 
1.5018476e-07 -1.2802760e-06 -1.4296940e-06 
4.7830908e-06 -2.6036170e-05 1.7726209e-06 
6.6189095e-06 -3.3707540e-05 -1.2776547e-06 
-2.3734331e-07 -7.9975626e-07 3.9058133e-07 
-1.8539474e-08 1.8819992e-07 3.5300292e-08 
7.9878026e-07 -2.5860725e-06 -6.2091891e-07 
1.4565974e-07 8.7374239e-08 -1.9961053e-07 
7.3859560e-06 -1.7207074e-05 -1.5247122e-06 
-1.6460174e-08 2.7385946e-07 -1.5704531e-08 
9.3445504e-07 -5.1958050e-06 -3.3401698e-06 
3.8605816e-09 2.3727362e-07 -3.2720045e-08 
3.4768514e-06 -3.4064847e-06 -5.5084161e-07 
3.4469117e-06 -6.3149288e-05 2.6540220e-06 
1.2023962e-06 -2.4766472e-05 -1.1760259e-06 
1.3897720e-06 -1.5896370e-05 -5.0821463e-06 
4.2347115e-06 -7.8862959e-06 -3.6129472e-06 
4.9102982e-06 -2.6959633e-05 2.5646862e-06 
-3.8232799e-09 1.0931845e-07 -4.6611093e-09 
-4.0650390e-09 2.4381526e-07 -1.2779662e-08 
3.4161661e-07 -4.8996728e-08 -3.4901899e-07 
4.9719029e-07 -1.8289254e-06 -2.2711974e-07 
2.3982768e-06 -2.2879537e-06 -9.3103489e-07 
-4.1110784e-08 2.7158728e-07 1.1449778e-07 
1.1066660e-06 -1.1865100e-04 4.5065754e-06 
7.6450607e-07 -7.6379803e-07 -1.3571192e-06 