# vtk DataFile Version 4.0
vtk output
ASCII
DATASET UNSTRUCTURED_GRID
POINTS 460 float
0.0000000e+00 0.0000000e+00 0.0000000e+00 
5.0000000e+00 0.0000000e+00 0.0000000e+00 
5.0000000e+00 3.0000000e+00 0.0000000e+00 
0.0000000e+00 3.0000000e+00 0.0000000e+00 
0.0000000e+00 0.0000000e+00 1.0000000e+01 
5.0000000e+00 0.0000000e+00 1.0000000e+01 
5.0000000e+00 3.0000000e+00 1.0000000e+01 
0.0000000e+00 3.0000000e+00 1.0000000e+01 
1.0000000e+00 3.0000000e+00 -5.0000000e+00 
1.0000000e+00 3.0000000e+00 -4.5000000e+00 
1.0000000e+00 3.0000000e+00 -4.0000000e+00 
1.0000000e+00 3.0000000e+00 -3.5000000e+00 
1.0000000e+00 3.0000000e+00 -3.0000000e+00 
1.0000000e+00 3.0000000e+00 -2.5000000e+00 
1.0000000e+00 3.0000000e+00 -2.0000000e+00 
1.0000000e+00 3.0000000e+00 -1.5000000e+00 
1.0000000e+00 3.0000000e+00 -1.0000000e+00 
1.0000000e+00 3.0000000e+00 -5.0000000e-01 
1.0000000e+00 3.0000000e+00 0.0000000e+00 
1.0000000e+00 3.0000000e+00 5.0000000e-01 
1.0000000e+00 3.0000000e+00 1.0000000e+00 
1.0000000e+00 3.0000000e+00 1.5000000e+00 
1.0000000e+00 3.0000000e+00 2.0000000e+00 
1.0000000e+00 3.0000000e+00 2.5000000e+00 
1.0000000e+00 3.0000000e+00 3.0000000e+00 
1.0000000e+00 3.0000000e+00 3.5000000e+00 
1.0000000e+00 3.0000000e+00 4.0000000e+00 
1.0000000e+00 3.0000000e+00 4.5000000e+00 
1.0000000e+00 3.0000000e+00 5.0000000e+00 
1.0000000e+00 3.0000000e+00 5.5000000e+00 
1.0000000e+00 3.0000000e+00 6.0000000e+00 
1.0000000e+00 3.0000000e+00 6.5000000e+00 
1.0000000e+00 3.0000000e+00 7.0000000e+00 
1.0000000e+00 3.0000000e+00 7.5000000e+00 
1.0000000e+00 3.0000000e+00 8.0000000e+00 
1.0000000e+00 3.0000000e+00 8.5000000e+00 
1.0000000e+00 3.0000000e+00 9.0000000e+00 
1.0000000e+00 3.0000000e+00 9.5000000e+00 
1.0000000e+00 3.0000000e+00 1.0000000e+01 
1.0000000e+00 3.0000000e+00 1.0500000e+01 
1.0000000e+00 3.0000000e+00 1.1000000e+01 
1.0000000e+00 3.0000000e+00 1.1500000e+01 
1.0000000e+00 3.0000000e+00 1.2000000e+01 
1.0000000e+00 3.0000000e+00 1.2500000e+01 
1.0000000e+00 3.0000000e+00 1.3000000e+01 
1.0000000e+00 3.0000000e+00 1.3500000e+01 
1.0000000e+00 3.0000000e+00 1.4000000e+01 
1.0000000e+00 3.0000000e+00 1.4500000e+01 
1.0000000e+00 3.0250001e+00 -5.0000000e+00 
1.0000000e+00 3.0250001e+00 -4.5000000e+00 
1.0000000e+00 3.0250001e+00 -4.0000000e+00 
1.0000000e+00 3.0250001e+00 -3.5000000e+00 
1.0000000e+00 3.0250001e+00 -3.0000000e+00 
1.0000000e+00 3.0250001e+00 -2.5000000e+00 
1.0000000e+00 3.0250001e+00 -2.0000000e+00 
1.0000000e+00 3.0250001e+00 -1.5000000e+00 
1.0000000e+00 3.0250001e+00 -1.0000000e+00 
1.0000000e+00 3.0250001e+00 -5.0000000e-01 
1.0000000e+00 3.0250001e+00 0.0000000e+00 
1.0000000e+00 3.0250001e+00 5.0000000e-01 
1.0000000e+00 3.0250001e+00 1.0000000e+00 
1.0000000e+00 3.0250001e+00 1.5000000e+00 
1.0000000e+00 3.0250001e+00 2.0000000e+00 
1.0000000e+00 3.0250001e+00 2.5000000e+00 
1.0000000e+00 3.0250001e+00 3.0000000e+00 
1.0000000e+00 3.0250001e+00 3.5000000e+00 
1.0000000e+00 3.0250001e+00 4.0000000e+00 
1.0000000e+00 3.0250001e+00 4.5000000e+00 
1.0000000e+00 3.0250001e+00 5.0000000e+00 
1.0000000e+00 3.0250001e+00 5.5000000e+00 
1.0000000e+00 3.0250001e+00 6.0000000e+00 
1.0000000e+00 3.0250001e+00 6.5000000e+00 
1.0000000e+00 3.0250001e+00 7.0000000e+00 
1.0000000e+00 3.0250001e+00 7.5000000e+00 
1.0000000e+00 3.0250001e+00 8.0000000e+00 
1.0000000e+00 3.0250001e+00 8.5000000e+00 
1.0000000e+00 3.0250001e+00 9.0000000e+00 
1.0000000e+00 3.0250001e+00 9.5000000e+00 
1.0000000e+00 3.0250001e+00 1.0000000e+01 
1.0000000e+00 3.0250001e+00 1.0500000e+01 
1.0000000e+00 3.0250001e+00 1.1000000e+01 
1.0000000e+00 3.0250001e+00 1.1500000e+01 
1.0000000e+00 3.0250001e+00 1.2000000e+01 
1.0000000e+00 3.0250001e+00 1.2500000e+01 
1.0000000e+00 3.0250001e+00 1.3000000e+01 
1.0000000e+00 3.0250001e+00 1.3500000e+01 
1.0000000e+00 3.0250001e+00 1.4000000e+01 
1.0000000e+00 3.0250001e+00 1.4500000e+01 
1.0000000e+00 -2.0000000e+00 -5.0000000e+00 
1.0000000e+00 -2.0000000e+00 -4.5000000e+00 
1.0000000e+00 -2.0000000e+00 -4.0000000e+00 
1.0000000e+00 -2.0000000e+00 -3.5000000e+00 
1.0000000e+00 -2.0000000e+00 -3.0000000e+00 
1.0000000e+00 -2.0000000e+00 -2.5000000e+00 
1.0000000e+00 -2.0000000e+00 -2.0000000e+00 
1.0000000e+00 -2.0000000e+00 -1.5000000e+00 
1.0000000e+00 -2.0000000e+00 -1.0000000e+00 
1.0000000e+00 -2.0000000e+00 -5.0000000e-01 
1.0000000e+00 -2.0000000e+00 1.0500000e+01 
1.0000000e+00 -2.0000000e+00 1.1000000e+01 
1.0000000e+00 -2.0000000e+00 1.1500000e+01 
1.0000000e+00 -2.0000000e+00 1.2000000e+01 
1.0000000e+00 -2.0000000e+00 1.2500000e+01 
1.0000000e+00 -2.0000000e+00 1.3000000e+01 
1.0000000e+00 -2.0000000e+00 1.3500000e+01 
1.0000000e+00 -2.0000000e+00 1.4000000e+01 
1.0000000e+00 -2.0000000e+00 1.4500000e+01 
1.0000000e+00 0.0000000e+00 0.0000000e+00 
2.0000000e+00 0.0000000e+00 0.0000000e+00 
3.0000000e+00 0.0000000e+00 0.0000000e+00 
4.0000000e+00 0.0000000e+00 0.0000000e+00 
5.0000000e+00 1.0000000e+00 0.0000000e+00 
5.0000000e+00 2.0000000e+00 0.0000000e+00 
0.0000000e+00 2.0000000e+00 0.0000000e+00 
0.0000000e+00 1.0000000e+00 0.0000000e+00 
0.0000000e+00 0.0000000e+00 1.0000000e+00 
0.0000000e+00 0.0000000e+00 2.0000000e+00 
0.0000000e+00 0.0000000e+00 3.0000000e+00 
0.0000000e+00 0.0000000e+00 4.0000000e+00 
0.0000000e+00 0.0000000e+00 5.0000000e+00 
0.0000000e+00 0.0000000e+00 6.0000000e+00 
0.0000000e+00 0.0000000e+00 7.0000000e+00 
0.0000000e+00 0.0000000e+00 8.0000000e+00 
0.0000000e+00 0.0000000e+00 9.0000000e+00 
5.0000000e+00 0.0000000e+00 1.0000000e+00 
5.0000000e+00 0.0000000e+00 2.0000000e+00 
5.0000000e+00 0.0000000e+00 3.0000000e+00 
5.0000000e+00 0.0000000e+00 4.0000000e+00 
5.0000000e+00 0.0000000e+00 5.0000000e+00 
5.0000000e+00 0.0000000e+00 6.0000000e+00 
5.0000000e+00 0.0000000e+00 7.0000000e+00 
5.0000000e+00 0.0000000e+00 8.0000000e+00 
5.0000000e+00 0.0000000e+00 9.0000000e+00 
1.0000000e+00 0.0000000e+00 1.0000000e+01 
2.0000000e+00 0.0000000e+00 1.0000000e+01 
3.0000000e+00 0.0000000e+00 1.0000000e+01 
4.0000000e+00 0.0000000e+00 1.0000000e+01 
5.0000000e+00 3.0000000e+00 1.0000000e+00 
5.0000000e+00 3.0000000e+00 2.0000000e+00 
5.0000000e+00 3.0000000e+00 3.0000000e+00 
5.0000000e+00 3.0000000e+00 4.0000000e+00 
5.0000000e+00 3.0000000e+00 5.0000000e+00 
5.0000000e+00 3.0000000e+00 6.0000000e+00 
5.0000000e+00 3.0000000e+00 7.0000000e+00 
5.0000000e+00 3.0000000e+00 8.0000000e+00 
5.0000000e+00 3.0000000e+00 9.0000000e+00 
5.0000000e+00 1.0000000e+00 1.0000000e+01 
5.0000000e+00 2.0000000e+00 1.0000000e+01 
0.0000000e+00 3.0000000e+00 1.0000000e+00 
0.0000000e+00 3.0000000e+00 2.0000000e+00 
0.0000000e+00 3.0000000e+00 3.0000000e+00 
0.0000000e+00 3.0000000e+00 4.0000000e+00 
0.0000000e+00 3.0000000e+00 5.0000000e+00 
0.0000000e+00 3.0000000e+00 6.0000000e+00 
0.0000000e+00 3.0000000e+00 7.0000000e+00 
0.0000000e+00 3.0000000e+00 8.0000000e+00 
0.0000000e+00 3.0000000e+00 9.0000000e+00 
0.0000000e+00 2.0000000e+00 1.0000000e+01 
0.0000000e+00 1.0000000e+00 1.0000000e+01 
4.0000000e+00 3.0000000e+00 0.0000000e+00 
3.0000000e+00 3.0000000e+00 0.0000000e+00 
2.0000000e+00 3.0000000e+00 0.0000000e+00 
4.0000000e+00 3.0000000e+00 1.0000000e+01 
3.0000000e+00 3.0000000e+00 1.0000000e+01 
2.0000000e+00 3.0000000e+00 1.0000000e+01 
4.0618000e+00 1.5000000e+00 0.0000000e+00 
1.5046000e+00 7.6549745e-01 0.0000000e+00 
2.5000000e+00 2.1339746e+00 0.0000000e+00 
1.5046000e+00 2.2345026e+00 0.0000000e+00 
2.4957771e+00 8.1560516e-01 0.0000000e+00 
3.4707544e+00 2.2336540e+00 0.0000000e+00 
3.4700506e+00 7.5794268e-01 0.0000000e+00 
8.6322361e-01 1.5000000e+00 0.0000000e+00 
2.0000000e+00 1.5000000e+00 0.0000000e+00 
2.9960666e+00 1.4974480e+00 0.0000000e+00 
4.2679491e+00 7.3205084e-01 0.0000000e+00 
4.2679491e+00 2.2679491e+00 0.0000000e+00 
7.2695929e-01 2.2730408e+00 0.0000000e+00 
7.2695929e-01 7.2695929e-01 0.0000000e+00 
4.1822505e+00 0.0000000e+00 2.5515697e+00 
4.2017918e+00 0.0000000e+00 4.4725966e+00 
4.1114569e+00 0.0000000e+00 6.5092020e+00 
8.6602539e-01 0.0000000e+00 3.5000000e+00 
8.4778279e-01 0.0000000e+00 5.4684029e+00 
8.9629614e-01 0.0000000e+00 7.5867257e+00 
2.5566745e+00 0.0000000e+00 8.1853306e-01 
2.4918270e+00 0.0000000e+00 9.1386929e+00 
8.4677207e-01 0.0000000e+00 1.5042374e+00 
4.0943027e+00 0.0000000e+00 8.4081745e+00 
8.6281651e-01 0.0000000e+00 2.5007062e+00 
1.7315160e+00 0.0000000e+00 3.0001178e+00 
1.7319617e+00 0.0000000e+00 4.0000196e+00 
2.5980761e+00 0.0000000e+00 3.5000000e+00 
2.5536871e+00 0.0000000e+00 4.4963923e+00 
2.5928419e+00 0.0000000e+00 2.4239938e+00 
1.5037409e+00 0.0000000e+00 9.1535149e+00 
1.8433737e+00 0.0000000e+00 8.1858873e+00 
3.0000000e+00 0.0000000e+00 8.2679491e+00 
2.5000000e+00 0.0000000e+00 7.4019237e+00 
3.5042722e+00 0.0000000e+00 7.4271150e+00 
3.0310018e+00 0.0000000e+00 6.5282087e+00 
2.0373929e+00 0.0000000e+00 6.5307913e+00 
3.4767809e+00 0.0000000e+00 5.8031492e+00 
2.5452602e+00 0.0000000e+00 5.5720768e+00 
1.6456656e+00 0.0000000e+00 1.9697139e+00 
8.6297011e-01 0.0000000e+00 4.4947371e+00 
1.0111579e+00 0.0000000e+00 6.5282545e+00 
3.4994321e+00 0.0000000e+00 8.4691072e-01 
4.1860156e+00 0.0000000e+00 3.5040276e+00 
1.7320508e+00 0.0000000e+00 5.0000000e+00 
4.0544066e+00 0.0000000e+00 1.5781221e+00 
1.5817389e+00 0.0000000e+00 9.3943578e-01 
8.3166349e-01 0.0000000e+00 8.5090933e+00 
3.4686174e+00 0.0000000e+00 9.1752682e+00 
3.0709300e+00 0.0000000e+00 1.5799091e+00 
3.3927374e+00 0.0000000e+00 3.0399952e+00 
3.3826034e+00 0.0000000e+00 3.9747651e+00 
4.3420062e+00 0.0000000e+00 7.4688983e+00 
3.4023225e+00 0.0000000e+00 4.9314723e+00 
1.6740381e+00 0.0000000e+00 7.3014426e+00 
4.2715640e+00 0.0000000e+00 5.4758859e+00 
1.6225953e+00 0.0000000e+00 5.8104177e+00 
4.2679491e+00 0.0000000e+00 9.2679491e+00 
7.3205084e-01 0.0000000e+00 7.3205084e-01 
4.2679491e+00 0.0000000e+00 7.3205084e-01 
7.3205084e-01 0.0000000e+00 9.2679491e+00 
3.4586334e+00 0.0000000e+00 2.2347178e+00 
2.2895701e+00 0.0000000e+00 1.5463171e+00 
5.0000000e+00 2.2345026e+00 1.5046000e+00 
[...]
POINT_DATA 460
FIELD FieldData 2
DISPLACEMENT 3 460  float
0.0000000e+00 0.0000000e+00 0.0000000e+00 
0.0000000e+00 0.0000000e+00 0.0000000e+00 
0.0000000e+00 2.9914270e-07 0.0000000e+00 
0.0000000e+00 -1.1102997e-07 0.0000000e+00 
0.0000000e+00 0.0000000e+00 0.0000000e+00 
0.0000000e+00 0.0000000e+00 0.0000000e+00 
0.0000000e+00 4.3958346e-07 0.0000000e+00 
0.0000000e+00 -3.2458183e-06 0.0000000e+00 
0.0000000e+00 -2.2094075e-07 0.0000000e+00 
0.0000000e+00 -2.1718100e-07 0.0000000e+00 
0.0000000e+00 -2.0580019e-07 0.0000000e+00 
0.0000000e+00 -1.8677227e-07 0.0000000e+00 
0.0000000e+00 -1.6026320e-07 0.0000000e+00 
0.0000000e+00 -1.2681187e-07 0.0000000e+00 
0.0000000e+00 -8.7751665e-08 0.0000000e+00 
0.0000000e+00 -4.5912596e-08 0.0000000e+00 
0.0000000e+00 -6.5860966e-09 0.0000000e+00 
0.0000000e+00 2.1394623e-08 0.0000000e+00 
0.0000000e+00 2.4845372e-08 0.0000000e+00 
-1.0684088e-07 -1.3662382e-08 3.6901673e-07 
-2.6757334e-07 -1.2300642e-07 1.0218416e-06 
-3.4598341e-07 -3.0348494e-07 1.5536660e-06 
-6.5571447e-07 -6.7102167e-07 2.5888369e-06 
-1.3089724e-06 -1.8618963e-06 4.3602204e-06 
-1.7307991e-06 -5.6586514e-06 6.5916370e-06 
-1.7031849e-06 -1.6186930e-05 8.7160888e-06 
-5.7626230e-06 -4.0956020e-05 1.0750361e-05 
-8.0300106e-06 -8.8509500e-05 1.8557179e-05 
-7.9742658e-06 -1.6253558e-04 1.5399854e-05 
2.2623476e-07 -2.4147246e-04 7.4910818e-06 
-1.6317045e-06 -2.4631229e-04 -2.7394046e-06 
-1.7496897e-07 -1.6971258e-04 -1.3050711e-05 
-2.4108278e-06 -9.4027549e-05 -2.2652895e-05 
-3.9253464e-06 -4.4392913e-05 -1.3071609e-05 
-3.5974915e-06 -1.8611319e-05 -9.9788103e-06 
-1.6581042e-06 -7.2132752e-06 -6.3783959e-06 
-9.9959027e-07 -2.8707402e-06 -4.2245779e-06 
-6.4152812e-07 -1.4203002e-06 -2.1813103e-06 
0.0000000e+00 -8.6465445e-07 0.0000000e+00 
0.0000000e+00 -4.6762432e-07 0.0000000e+00 
0.0000000e+00 -1.9902426e-07 0.0000000e+00 
0.0000000e+00 -3.5446668e-08 0.0000000e+00 
0.0000000e+00 4.4167237e-08 0.0000000e+00 
0.0000000e+00 6.8278219e-08 0.0000000e+00 
0.0000000e+00 6.2561483e-08 0.0000000e+00 
0.0000000e+00 4.6137064e-08 0.0000000e+00 
0.0000000e+00 3.1451947e-08 0.0000000e+00 
0.0000000e+00 2.5651380e-08 0.0000000e+00 
0.0000000e+00 -2.2082401e-07 0.0000000e+00 
0.0000000e+00 -2.1711462e-07 0.0000000e+00 
0.0000000e+00 -2.0587564e-07 0.0000000e+00 
0.0000000e+00 -1.8692390e-07 0.0000000e+00 
0.0000000e+00 -1.6038653e-07 0.0000000e+00 
0.0000000e+00 -1.2686876e-07 0.0000000e+00 
0.0000000e+00 -8.7743246e-08 0.0000000e+00 
0.0000000e+00 -4.5839425e-08 0.0000000e+00 
0.0000000e+00 -6.4522139e-09 0.0000000e+00 
0.0000000e+00 2.1561311e-08 0.0000000e+00 
0.0000000e+00 2.5021031e-08 0.0000000e+00 
0.0000000e+00 -1.5529404e-08 0.0000000e+00 
0.0000000e+00 -1.2142871e-07 0.0000000e+00 
0.0000000e+00 -2.9141574e-07 0.0000000e+00 
0.0000000e+00 -6.4223025e-07 0.0000000e+00 
0.0000000e+00 -1.7931636e-06 0.0000000e+00 
0.0000000e+00 -5.5444484e-06 0.0000000e+00 
0.0000000e+00 -1.6111158e-05 0.0000000e+00 
0.0000000e+00 -4.0964947e-05 0.0000000e+00 
0.0000000e+00 -8.9066525e-05 0.0000000e+00 
0.0000000e+00 -1.6432886e-04 0.0000000e+00 
0.0000000e+00 -2.4442936e-04 0.0000000e+00 
0.0000000e+00 -2.5102351e-04 0.0000000e+00 
0.0000000e+00 -1.7252189e-04 0.0000000e+00 
0.0000000e+00 -9.4944720e-05 0.0000000e+00 
0.0000000e+00 -4.4625071e-05 0.0000000e+00 
0.0000000e+00 -1.8522282e-05 0.0000000e+00 
0.0000000e+00 -7.0949313e-06 0.0000000e+00 
0.0000000e+00 -2.7949873e-06 0.0000000e+00 
0.0000000e+00 -1.3751363e-06 0.0000000e+00 
0.0000000e+00 -8.3881469e-07 0.0000000e+00 
0.0000000e+00 -4.6948313e-07 0.0000000e+00 
0.0000000e+00 -1.9979997e-07 0.0000000e+00 
0.0000000e+00 -3.5568235e-08 0.0000000e+00 
0.0000000e+00 4.4359933e-08 0.0000000e+00 
0.0000000e+00 6.8562152e-08 0.0000000e+00 
0.0000000e+00 6.2817911e-08 0.0000000e+00 
0.0000000e+00 4.6324402e-08 0.0000000e+00 
0.0000000e+00 3.1578544e-08 0.0000000e+00 
0.0000000e+00 2.5754126e-08 0.0000000e+00 
0.0000000e+00 0.0000000e+00 0.0000000e+00 
0.0000000e+00 0.0000000e+00 0.0000000e+00 
0.0000000e+00 0.0000000e+00 0.0000000e+00 
0.0000000e+00 0.0000000e+00 0.0000000e+00 
0.0000000e+00 0.0000000e+00 0.0000000e+00 
0.0000000e+00 0.0000000e+00 0.0000000e+00 
0.0000000e+00 0.0000000e+00 0.0000000e+00 
0.0000000e+00 0.0000000e+00 0.0000000e+00 
0.0000000e+00 0.0000000e+00 0.0000000e+00 
0.0000000e+00 0.0000000e+00 0.0000000e+00 
0.0000000e+00 0.0000000e+00 0.0000000e+00 
0.0000000e+00 0.0000000e+00 0.0000000e+00 
0.0000000e+00 0.0000000e+00 0.0000000e+00 
0.0000000e+00 0.0000000e+00 0.0000000e+00 
0.0000000e+00 0.0000000e+00 0.0000000e+00 
0.0000000e+00 0.0000000e+00 0.0000000e+00 
0.0000000e+00 0.0000000e+00 0.0000000e+00 
0.0000000e+00 0.0000000e+00 0.0000000e+00 
0.0000000e+00 0.0000000e+00 0.0000000e+00 
0.0000000e+00 0.0000000e+00 0.0000000e+00 
0.0000000e+00 0.0000000e+00 0.0000000e+00 
0.0000000e+00 0.0000000e+00 0.0000000e+00 
0.0000000e+00 0.0000000e+00 0.0000000e+00 
0.0000000e+00 1.2180794e-07 0.0000000e+00 
0.0000000e+00 2.6046956e-07 0.0000000e+00 
0.0000000e+00 -1.1621616e-07 0.0000000e+00 
0.0000000e+00 -1.1504505e-07 0.0000000e+00 
0.0000000e+00 0.0000000e+00 0.0000000e+00 
0.0000000e+00 0.0000000e+00 0.0000000e+00 
0.0000000e+00 0.0000000e+00 0.0000000e+00 
0.0000000e+00 0.0000000e+00 0.0000000e+00 
0.0000000e+00 0.0000000e+00 0.0000000e+00 
0.0000000e+00 0.0000000e+00 0.0000000e+00 
0.0000000e+00 0.0000000e+00 0.0000000e+00 
0.0000000e+00 0.0000000e+00 0.0000000e+00 
0.0000000e+00 0.0000000e+00 0.0000000e+00 
0.0000000e+00 0.0000000e+00 0.0000000e+00 
0.0000000e+00 0.0000000e+00 0.0000000e+00 
0.0000000e+00 0.0000000e+00 0.0000000e+00 
0.0000000e+00 0.0000000e+00 0.0000000e+00 
0.0000000e+00 0.0000000e+00 0.0000000e+00 
0.0000000e+00 0.0000000e+00 0.0000000e+00 
0.0000000e+00 0.0000000e+00 0.0000000e+00 
0.0000000e+00 0.0000000e+00 0.0000000e+00 
0.0000000e+00 0.0000000e+00 0.0000000e+00 
0.0000000e+00 0.0000000e+00 0.0000000e+00 
0.0000000e+00 0.0000000e+00 0.0000000e+00 
0.0000000e+00 0.0000000e+00 0.0000000e+00 
0.0000000e+00 0.0000000e+00 0.0000000e+00 
0.0000000e+00 2.6045038e-07 0.0000000e+00 
0.0000000e+00 2.8295088e-07 0.0000000e+00 
0.0000000e+00 -2.3718617e-07 0.0000000e+00 
0.0000000e+00 -3.9960742e-07 0.0000000e+00 
0.0000000e+00 -1.2480926e-06 0.0000000e+00 
0.0000000e+00 5.0941060e-09 0.0000000e+00 
0.0000000e+00 -8.8183117e-07 0.0000000e+00 
0.0000000e+00 2.8468449e-07 0.0000000e+00 
0.0000000e+00 2.4610890e-07 0.0000000e+00 
0.0000000e+00 3.2522703e-08 0.0000000e+00 
0.0000000e+00 3.2427957e-07 0.0000000e+00 
0.0000000e+00 -4.9205846e-07 0.0000000e+00 
0.0000000e+00 -2.3414921e-06 0.0000000e+00 
0.0000000e+00 -1.0646769e-05 0.0000000e+00 
0.0000000e+00 -3.7311416e-05 0.0000000e+00 
0.0000000e+00 -8.1397739e-05 0.0000000e+00 
0.0000000e+00 -1.0064836e-04 0.0000000e+00 
0.0000000e+00 -6.1598454e-05 0.0000000e+00 
0.0000000e+00 -2.2008084e-05 0.0000000e+00 
0.0000000e+00 -6.7886835e-06 0.0000000e+00 
0.0000000e+00 -3.0864060e-06 0.0000000e+00 
0.0000000e+00 -1.9629174e-06 0.0000000e+00 
0.0000000e+00 3.3076327e-07 0.0000000e+00 
0.0000000e+00 2.4978985e-07 0.0000000e+00 
0.0000000e+00 1.4613376e-07 0.0000000e+00 
0.0000000e+00 2.6090598e-08 0.0000000e+00 
0.0000000e+00 -1.0190614e-06 0.0000000e+00 
0.0000000e+00 -1.8113745e-06 0.0000000e+00 
0.0000000e+00 2.6147723e-07 0.0000000e+00 
0.0000000e+00 -2.5831753e-08 0.0000000e+00 
0.0000000e+00 3.7618184e-07 0.0000000e+00 
0.0000000e+00 2.6748884e-07 0.0000000e+00 
0.0000000e+00 8.5107672e-08 0.0000000e+00 
0.0000000e+00 3.9023044e-07 0.0000000e+00 
0.0000000e+00 4.5426461e-08 0.0000000e+00 
0.0000000e+00 8.9743523e-08 0.0000000e+00 
0.0000000e+00 2.3153481e-07 0.0000000e+00 
0.0000000e+00 2.4328185e-07 0.0000000e+00 
0.0000000e+00 9.7032995e-08 0.0000000e+00 
0.0000000e+00 3.3648854e-07 0.0000000e+00 
0.0000000e+00 7.4740335e-08 0.0000000e+00 
0.0000000e+00 -3.1368405e-08 0.0000000e+00 
0.0000000e+00 0.0000000e+00 0.0000000e+00 
0.0000000e+00 0.0000000e+00 0.0000000e+00 
0.0000000e+00 0.0000000e+00 0.0000000e+00 
0.0000000e+00 0.0000000e+00 0.0000000e+00 
0.0000000e+00 0.0000000e+00 0.0000000e+00 
0.0000000e+00 0.0000000e+00 0.0000000e+00 
0.0000000e+00 0.0000000e+00 0.0000000e+00 
0.0000000e+00 0.0000000e+00 0.0000000e+00 
0.0000000e+00 0.0000000e+00 0.0000000e+00 
0.0000000e+00 0.0000000e+00 0.0000000e+00 
0.0000000e+00 0.0000000e+00 0.0000000e+00 
0.0000000e+00 0.0000000e+00 0.0000000e+00 
0.0000000e+00 0.0000000e+00 0.0000000e+00 
0.0000000e+00 0.0000000e+00 0.0000000e+00 
0.0000000e+00 0.0000000e+00 0.0000000e+00 
0.0000000e+00 0.0000000e+00 0.0000000e+00 
0.0000000e+00 0.0000000e+00 0.0000000e+00 
0.0000000e+00 0.0000000e+00 0.0000000e+00 
0.0000000e+00 0.0000000e+00 0.0000000e+00 
0.0000000e+00 0.0000000e+00 0.0000000e+00 
0.0000000e+00 0.0000000e+00 0.0000000e+00 
0.0000000e+00 0.0000000e+00 0.0000000e+00 
0.0000000e+00 0.0000000e+00 0.0000000e+00 
0.0000000e+00 0.0000000e+00 0.0000000e+00 
0.0000000e+00 0.0000000e+00 0.0000000e+00 
0.0000000e+00 0.0000000e+00 0.0000000e+00 
0.0000000e+00 0.0000000e+00 0.0000000e+00 
0.0000000e+00 0.0000000e+00 0.0000000e+00 
0.0000000e+00 0.0000000e+00 0.0000000e+00 
0.0000000e+00 0.0000000e+00 0.0000000e+00 
0.0000000e+00 0.0000000e+00 0.0000000e+00 
0.0000000e+00 0.0000000e+00 0.0000000e+00 
0.0000000e+00 0.0000000e+00 0.0000000e+00 
0.0000000e+00 0.0000000e+00 0.0000000e+00 
0.0000000e+00 0.0000000e+00 0.0000000e+00 
0.0000000e+00 0.0000000e+00 0.0000000e+00 
0.0000000e+00 0.0000000e+00 0.0000000e+00 
0.0000000e+00 0.0000000e+00 0.0000000e+00 
0.0000000e+00 0.0000000e+00 0.0000000e+00 
0.0000000e+00 0.0000000e+00 0.0000000e+00 
0.0000000e+00 0.0000000e+00 0.0000000e+00 
0.0000000e+00 0.0000000e+00 0.0000000e+00 
0.0000000e+00 0.0000000e+00 0.0000000e+00 
0.0000000e+00 0.0000000e+00 0.0000000e+00 
0.0000000e+00 0.0000000e+00 0.0000000e+00 
0.0000000e+00 0.0000000e+00 0.0000000e+00 
0.0000000e+00 0.0000000e+00 0.0000000e+00 
0.0000000e+00 0.0000000e+00 0.0000000e+00 
0.0000000e+00 0.0000000e+00 0.0000000e+00 
0.0000000e+00 2.6783297e-07 0.0000000e+00 
0.0000000e+00 9.4874721e-08 0.0000000e+00 
0.0000000e+00 -1.0275840e-07 0.0000000e+00 
0.0000000e+00 -2.9421673e-07 0.0000000e+00 
0.0000000e+00 2.0534623e-07 0.0000000e+00 
0.0000000e+00 -6.2144217e-08 0.0000000e+00 
0.0000000e+00 -5.9432790e-07 0.0000000e+00 
0.0000000e+00 -9.6062797e-07 0.0000000e+00 
0.0000000e+00 -3.4911636e-07 0.0000000e+00 
0.0000000e+00 -6.4281846e-07 0.0000000e+00 
0.0000000e+00 2.0330187e-07 0.0000000e+00 
0.0000000e+00 -4.4229199e-07 0.0000000e+00 
0.0000000e+00 -4.9564164e-08 0.0000000e+00 
0.0000000e+00 -5.1790602e-07 0.0000000e+00 
0.0000000e+00 -6.7851031e-09 0.0000000e+00 
0.0000000e+00 -1.4872941e-07 0.0000000e+00 
0.0000000e+00 3.5230465e-07 0.0000000e+00 
0.0000000e+00 1.9505205e-07 0.0000000e+00 
0.0000000e+00 -6.7277512e-07 0.0000000e+00 
0.0000000e+00 -4.1391445e-07 0.0000000e+00 
0.0000000e+00 9.3758707e-08 0.0000000e+00 
0.0000000e+00 -6.2378552e-07 0.0000000e+00 
0.0000000e+00 -3.6076293e-07 0.0000000e+00 
0.0000000e+00 -1.7222199e-07 0.0000000e+00 
0.0000000e+00 7.2424797e-08 0.0000000e+00 
0.0000000e+00 4.6496569e-07 0.0000000e+00 
0.0000000e+00 -5.3242537e-08 0.0000000e+00 
0.0000000e+00 2.8755258e-07 0.0000000e+00 
0.0000000e+00 4.9973352e-08 0.0000000e+00 
0.0000000e+00 -5.1833240e-06 0.0000000e+00 
0.0000000e+00 -4.4800470e-07 0.0000000e+00 
0.0000000e+00 -2.5636375e-06 0.0000000e+00 
0.0000000e+00 -1.7765866e-05 0.0000000e+00 
0.0000000e+00 -1.3327746e-05 0.0000000e+00 
0.0000000e+00 -1.8552877e-05 0.0000000e+00 
0.0000000e+00 -8.0653073e-05 0.0000000e+00 
0.0000000e+00 -3.5457026e-05 0.0000000e+00 
0.0000000e+00 -8.2803899e-06 0.0000000e+00 
0.0000000e+00 -5.2433106e-06 0.0000000e+00 
0.0000000e+00 -5.2027466e-05 0.0000000e+00 
0.0000000e+00 -7.3202493e-05 0.0000000e+00 
0.0000000e+00 -4.7071324e-05 0.0000000e+00 
0.0000000e+00 -1.2116583e-05 0.0000000e+00 
0.0000000e+00 -1.2482516e-06 0.0000000e+00 
0.0000000e+00 -8.6604354e-07 0.0000000e+00 
0.0000000e+00 -5.8693149e-06 0.0000000e+00 
0.0000000e+00 -4.3489497e-05 0.0000000e+00 
0.0000000e+00 -2.0618427e-05 0.0000000e+00 
0.0000000e+00 -2.3478733e-05 0.0000000e+00 
0.0000000e+00 -8.5872089e-06 0.0000000e+00 
0.0000000e+00 -3.6215075e-05 0.0000000e+00 
0.0000000e+00 -2.3982100e-05 0.0000000e+00 
0.0000000e+00 -1.5624648e-05 0.0000000e+00 
0.0000000e+00 -2.3079863e-06 0.0000000e+00 
0.0000000e+00 -2.7189292e-06 0.0000000e+00 
0.0000000e+00 -3.1888234e-07 0.0000000e+00 
0.0000000e+00 -3.0777815e-07 0.0000000e+00 
0.0000000e+00 -4.9800074e-06 0.0000000e+00 
0.0000000e+00 -1.3365494e-06 0.0000000e+00 
0.0000000e+00 3.5194891e-08 0.0000000e+00 
0.0000000e+00 -9.1631483e-07 0.0000000e+00 
0.0000000e+00 -1.0004964e-06 0.0000000e+00 
0.0000000e+00 -9.5106907e-07 0.0000000e+00 
0.0000000e+00 1.4446346e-07 0.0000000e+00 
0.0000000e+00 -2.1179122e-07 0.0000000e+00 
0.0000000e+00 -1.7168566e-06 0.0000000e+00 
0.0000000e+00 -1.1870585e-06 0.0000000e+00 
0.0000000e+00 -3.9233106e-07 0.0000000e+00 
0.0000000e+00 -1.0186207e-07 0.0000000e+00 
0.0000000e+00 4.8662434e-07 0.0000000e+00 
0.0000000e+00 -1.6263519e-06 0.0000000e+00 
0.0000000e+00 -1.1853168e-06 0.0000000e+00 
-9.5139239e-06 -6.1957326e-05 9.3020071e-06 
-1.3982117e-05 -9.0549249e-05 -6.1950550e-06 
-5.7400380e-06 -2.4122301e-05 -1.0723670e-05 
-1.0835844e-06 -2.7500789e-06 3.6587521e-06 
-2.8136005e-06 -1.1616306e-05 7.4732347e-06 
-3.6485835e-06 -1.8153792e-06 7.5848254e-07 
-6.9555733e-07 -1.8362286e-07 5.7448057e-07 
-2.6067639e-06 -1.4073751e-06 -1.0176470e-06 
-3.1841742e-07 -2.0586660e-07 1.1923860e-06 
-1.6761304e-06 -7.1805493e-06 -5.1243323e-06 
-2.3640909e-07 2.1053299e-07 4.1454288e-07 
-1.1988384e-06 -6.0198613e-07 -1.1203421e-06 
-3.2157902e-06 -2.1673916e-06 -1.0714477e-06 
-6.2070026e-06 -7.5341345e-06 -2.3877012e-06 
-4.5180668e-06 -5.3433141e-06 -3.4902705e-06 
-5.7963198e-06 -1.3780858e-05 -3.0584813e-06 
-8.7283215e-06 -2.0425226e-05 -1.8241124e-06 
-3.5639773e-06 -7.1565255e-06 -3.1555992e-06 
-1.0181067e-05 -3.5573234e-05 -8.2124143e-06 
-8.6416549e-06 -9.9980816e-06 -7.1881323e-07 
-5.9081685e-06 -8.5337233e-06 5.1173680e-07 
-1.0912092e-05 -2.0807540e-05 1.2522289e-06 
-9.5736405e-06 -2.0826661e-05 3.2721118e-06 
-4.8518555e-06 -7.4357636e-06 2.5065017e-06 
-6.2971808e-06 -1.2886528e-05 4.6543064e-06 
-3.0814574e-06 -3.8720900e-06 2.1683943e-06 
-3.4588188e-06 -6.8171312e-06 4.5813958e-06 
-2.0422274e-06 -2.8785419e-06 2.5520458e-06 
-2.3956238e-06 -3.0912552e-06 3.5709720e-06 
-1.4152953e-06 -1.1742585e-06 1.8269108e-06 
-8.5594644e-07 -7.7857766e-07 1.9053864e-06 
-1.4984148e-05 -5.5257566e-05 1.5440551e-06 
-1.5284824e-05 -4.7065401e-05 -1.1822548e-07 
-5.8070423e-06 -1.6198775e-05 7.1839863e-06 
-1.5675455e-06 -1.1221988e-06 9.9225076e-07 
-1.6294780e-06 -2.0185214e-06 -1.6816789e-06 
-8.9064724e-06 -2.7596898e-05 6.6787197e-06 
-2.5158447e-06 -1.8579533e-06 6.6110834e-07 
-2.9935052e-07 2.2966417e-07 6.1423424e-07 
-1.5190861e-06 -3.1868086e-07 -1.0632284e-06 
-6.2492290e-06 -1.9683701e-05 -8.8459255e-06 
-4.8404731e-06 -1.1065752e-05 -7.0450269e-06 
-5.8416058e-06 -1.0547007e-04 1.1824810e-06 
-3.0878417e-07 2.4308920e-07 3.1007735e-07 
-1.8897892e-06 -5.0663693e-06 5.2150585e-06 
-2.9213973e-06 -6.9409866e-06 5.4806278e-06 
-5.0066774e-06 -2.4358527e-05 1.0174664e-05 
-8.1330663e-06 -4.1180047e-05 1.0977957e-05 
-7.7855248e-06 -7.2999814e-05 -1.0064306e-05 
-8.4393969e-06 -3.9442009e-05 -1.1206699e-05 
-2.1515886e-07 1.2151249e-07 6.0838551e-07 
-5.9843535e-07 -1.0315193e-06 1.9482693e-06 
-1.3288451e-06 -2.3467494e-06 -2.8432537e-06 
-5.7948051e-07 1.8664370e-08 9.3011278e-07 
-1.7421791e-06 -3.3376191e-06 3.9370311e-06 
-3.4157065e-06 -1.4454869e-05 -8.4033509e-06 
-1.2742388e-05 -4.1578151e-05 -6.2920094e-06 
-5.4386976e-07 -5.4142237e-07 1.5068232e-06 
-1.0757103e-05 -9.2880502e-05 8.5795691e-06 
-2.6013447e-06 -2.7002154e-06 -2.3379666e-06 
-6.9804008e-07 2.1906968e-07 -6.1028067e-07 
-1.1729912e-07 3.1513932e-07 1.6438739e-07 
-3.2106677e-06 -3.4737063e-06 1.8914249e-06 
-9.4399070e-07 -1.2501293e-06 2.4810604e-06 
-2.3129676e-06 -4.5232437e-06 -3.5966391e-06 
-1.0985527e-05 -2.6683083e-05 -1.8799404e-06 
-6.1443666e-07 -8.3982790e-08 8.7565820e-07 
-1.3806479e-06 -1.2077525e-06 1.4579234e-06 
-2.8596307e-07 9.4598782e-08 7.5499025e-07 
-1.4048328e-05 -4.5310317e-05 7.6892293e-06 
-1.2413814e-06 -2.1670533e-06 -1.7864538e-06 
-3.1286820e-07 -2.6795690e-06 2.9304099e-06 
-1.8509390e-07 -1.4272994e-06 1.9417485e-06 
-3.7864763e-07 -7.6515453e-06 4.4876192e-06 
-7.0654556e-07 -1.3882747e-05 5.0839590e-06 
-1.8400262e-07 -5.3184539e-07 1.1641789e-06 
-8.3650428e-07 -2.8712348e-05 5.2268865e-06 
-2.4982280e-06 -5.1229257e-05 9.0668927e-06 
-1.0207325e-07 -8.1351856e-05 6.5660720e-06 
-9.3218523e-06 -1.1771933e-04 3.8483240e-06 
-1.6102284e-05 -1.5570615e-04 -2.7998185e-06 
-1.0469657e-05 -1.3000604e-04 -2.7035660e-06 
-8.1879452e-06 -9.7686061e-05 -9.9543386e-06 
-3.7505038e-06 -5.8081467e-05 -7.8395115e-06 
-1.9335378e-06 -3.0049658e-05 -7.1173308e-06 
-9.2867606e-07 -1.8042803e-05 -6.4612477e-06 
-4.4385061e-07 -8.9927107e-06 -4.7670633e-06 
-3.9902679e-07 -3.8179010e-06 -2.6018770e-06 
-7.2985607e-08 -1.7723025e-07 4.7688354e-07 
3.8197729e-07 -1.4808604e-06 -1.6879358e-06 
2.7834044e-06 -1.1017924e-05 -5.1789098e-06 
1.0454975e-05 -3.7686164e-05 -2.7674059e-06 
6.9971279e-06 -2.6351636e-05 6.2461813e-06 
2.0157399e-06 -6.9955449e-06 3.6805968e-06 
1.1142872e-06 -1.1746262e-06 -1.5650160e-06 
3.2057696e-06 -3.9183969e-06 -1.9397903e-06 
6.7832184e-06 -1.2298026e-05 8.2409264e-07 
5.2151690e-06 -4.4127679e-05 -8.9079858e-06 
4.2144176e-08 -5.5745245e-06 -1.2995299e-06 
-1.0718494e-07 -2.5278911e-07 -1.5097288e-07 
3.7337420e-06 -4.8971374e-06 3.1119853e-06 
9.1546262e-08 -2.2781080e-08 -4.6399256e-07 
7.9000747e-06 -8.2364502e-05 4.2627839e-06 
1.3326890e-06 -2.3674533e-05 4.6362306e-06 
6.6851493e-07 -2.2577507e-05 -3.2028161e-06 
3.9365627e-06 -1.5931397e-05 -3.0255205e-06 
8.8913328e-07 -2.8008164e-06 -1.8156984e-06 
4.8135289e-06 -8.8189554e-05 -6.1259557e-06 
6.2280719e-06 -1.5429106e-05 -4.6422633e-06 
-1.5065498e-07 -1.4486550e-06 1.2644125e-07 
3.2978110e-06 -3.1639029e-06 -5.2636096e-07 
3.8876378e-09 -7.0692658e-06 1.5435637e-06 
3.3666626e-07 -1.4926588e-08 -5.2598159e-07 
1.0080191e-06 -4.8951915e-07 7.9684065e-07 
1.1187626e-06 -4.0259106e-06 -3.4418940e-06 
7.0560209e-06 -1.0107239e-05 -1.6363558e-06 
8.3949010e-07 -9.1145722e-07 -1.5854539e-06 
2.2620195e-06 -3.2810347e-06 -2.7379808e-06 
8.5460516e-07 -3.9756201e-06 -7.6934657e-07 
1.5603929e-06 -1.8279053e-06 1.5005918e-07 
4.6982000e-06 -2.4748859e-05 2.2048623e-06 
2.9471612e-06 -5.2670603e-05 3.9898277e-06 
5.3608251e-06 -2.9816527e-05 -3.5874109e-07 
1.6195811e-06 -1.8019316e-06 1.9556985e-06 
3.1190416e-06 -1.3109198e-05 2.9660723e-06 
1.3478798e-07 -2.6075531e-07 -7.4258190e-07 
8.3332799e-07 -6.9804855e-07 -6.6102399e-07 
-6.3610074e-08 -4.0310002e-07 -8.3948794e-07 
6.4446267e-06 -2.7989883e-05 3.3627205e-06 
1.9282434e-06 -1.6600079e-05 -5.4030297e-06 
1.6993913e-07 -2.8563832e-06 6.7450259e-07 
2.9152063e-06 -1.4072901e-05 6.0189191e-06 
5.4550657e-07 -1.9124285e-05 -1.4771209e-06 
-7.5667728e-08 -2.4489410e-07 -1.3360561e-07 
2.6081836e-06 -9.3004846e-06 -8.0774623e-07 
8.6946358e-07 -4.5515006e-07 -7.1538147e-07 
4.0671262e-06 -9.1792635e-06 3.8712833e-06 
1.2167989e-07 -4.6643740e-07 -3.6158025e-07 
4.9182026e-06 -2.3335489e-05 -3.4125060e-06 
1.8686437e-07 2.8426850e-08 -2.7862365e-07 
1.9694946e-06 -1.5707244e-06 1.1069139e-06 
4.9449042e-08 -8.5189631e-06 -6.5278124e-07 
4.2747392e-06 -5.4620788e-05 8.7666268e-07 
5.1422157e-06 -5.8293972e-05 -3.6475748e-07 
7.6524902e-06 -1.3819554e-05 1.2462924e-06 
7.5215144e-07 -3.4356231e-06 2.3510581e-06 
4.2550905e-08 2.6007274e-07 -1.2240474e-07 
2.5307111e-07 -1.7006620e-06 -1.4382162e-07 
1.4779257e-06 -1.1064398e-06 -4.7662451e-07 
1.0671441e-06 -3.9503975e-06 -3.0067963e-07 
2.9113291e-06 -2.7116557e-06 5.4432957e-07 
-2.5684395e-07 -1.5247537e-06 1.0348914e-07 