# vtk DataFile Version 4.0
vtk output
ASCII
DATASET UNSTRUCTURED_GRID
POINTS 460 float
0.0000000e+00 0.0000000e+00 0.0000000e+00 
5.0000000e+00 0.0000000e+00 0.0000000e+00 
5.0000000e+00 3.0000000e+00 0.0000000e+00 
0.0000000e+00 3.0000000e+00 0.0000000e+00 
0.0000000e+00 0.0000000e+00 1.0000000e+01 
5.0000000e+00 0.0000000e+00 1.0000000e+01 
5.0000000e+00 3.0000000e+00 1.0000000e+01 
0.0000000e+00 3.0000000e+00 1.0000000e+01 
1.0000000e+00 3.0000000e+00 -5.0000000e+00 
1.0000000e+00 3.0000000e+00 -4.5000000e+00 
1.0000000e+00 3.0000000e+00 -4.0000000e+00 
1.0000000e+00 3.0000000e+00 -3.5000000e+00 
1.0000000e+00 3.0000000e+00 -3.0000000e+00 
1.0000000e+00 3.0000000e+00 -2.5000000e+00 
1.0000000e+00 3.0000000e+00 -2.0000000e+00 
1.0000000e+00 3.0000000e+00 -1.5000000e+00 
1.0000000e+00 3.0000000e+00 -1.0000000e+00 
1.0000000e+00 3.0000000e+00 -5.0000000e-01 
1.0000000e+00 3.0000000e+00 0.0000000e+00 
1.0000000e+00 3.0000000e+00 5.0000000e-01 
1.0000000e+00 3.0000000e+00 1.0000000e+00 
1.0000000e+00 3.0000000e+00 1.5000000e+00 
1.0000000e+00 3.0000000e+00 2.0000000e+00 
1.0000000e+00 3.0000000e+00 2.5000000e+00 
1.0000000e+00 3.0000000e+00 3.0000000e+00 
1.0000000e+00 3.0000000e+00 3.5000000e+00 
1.0000000e+00 3.0000000e+00 4.0000000e+00 
1.0000000e+00 3.0000000e+00 4.5000000e+00 
1.0000000e+00 3.0000000e+00 5.0000000e+00 
1.0000000e+00 3.0000000e+00 5.5000000e+00 
1.0000000e+00 3.0000000e+00 6.0000000e+00 
1.0000000e+00 3.0000000e+00 6.5000000e+00 
1.0000000e+00 3.0000000e+00 7.0000000e+00 
1.0000000e+00 3.0000000e+00 7.5000000e+00 
1.0000000e+00 3.0000000e+00 8.0000000e+00 
1.0000000e+00 3.0000000e+00 8.5000000e+00 
1.0000000e+00 3.0000000e+00 9.0000000e+00 
1.0000000e+00 3.0000000e+00 9.5000000e+00 
1.0000000e+00 3.0000000e+00 1.0000000e+01 
1.0000000e+00 3.0000000e+00 1.0500000e+01 
1.0000000e+00 3.0000000e+00 1.1000000e+01 
1.0000000e+00 3.0000000e+00 1.1500000e+01 
1.0000000e+00 3.0000000e+00 1.2000000e+01 
1.0000000e+00 3.0000000e+00 1.2500000e+01 
1.0000000e+00 3.0000000e+00 1.3000000e+01 
1.0000000e+00 3.0000000e+00 1.3500000e+01 
1.0000000e+00 3.0000000e+00 1.4000000e+01 
1.0000000e+00 3.0000000e+00 1.4500000e+01 
1.0000000e+00 3.0250001e+00 -5.0000000e+00 
1.0000000e+00 3.0250001e+00 -4.5000000e+00 
1.0000000e+00 3.0250001e+00 -4.0000000e+00 
1.0000000e+00 3.0250001e+00 -3.5000000e+00 
1.0000000e+00 3.0250001e+00 -3.0000000e+00 
1.0000000e+00 3.0250001e+00 -2.5000000e+00 
1.0000000e+00 3.0250001e+00 -2.0000000e+00 
1.0000000e+00 3.0250001e+00 -1.5000000e+00 
1.0000000e+00 3.0250001e+00 -1.0000000e+00 
1.0000000e+00 3.0250001e+00 -5.0000000e-01 
1.0000000e+00 3.0250001e+00 0.0000000e+00 
1.0000000e+00 3.0250001e+00 5.0000000e-01 
1.0000000e+00 3.0250001e+00 1.0000000e+00 
1.0000000e+00 3.0250001e+00 1.5000000e+00 
1.0000000e+00 3.0250001e+00 2.0000000e+00 
1.0000000e+00 3.0250001e+00 2.5000000e+00 
1.0000000e+00 3.0250001e+00 3.0000000e+00 
1.0000000e+00 3.0250001e+00 3.5000000e+00 
1.0000000e+00 3.0250001e+00 4.0000000e+00 
1.0000000e+00 3.0250001e+00 4.5000000e+00 
1.0000000e+00 3.0250001e+00 5.0000000e+00 
1.0000000e+00 3.0250001e+00 5.5000000e+00 
1.0000000e+00 3.0250001e+00 6.0000000e+00 
1.0000000e+00 3.0250001e+00 6.5000000e+00 
1.0000000e+00 3.0250001e+00 7.0000000e+00 
1.0000000e+00 3.0250001e+00 7.5000000e+00 
1.0000000e+00 3.0250001e+00 8.0000000e+00 
1.0000000e+00 3.0250001e+00 8.5000000e+00 
1.0000000e+00 3.0250001e+00 9.0000000e+00 
1.0000000e+00 3.0250001e+00 9.5000000e+00 
1.0000000e+00 3.0250001e+00 1.0000000e+01 
1.0000000e+00 3.0250001e+00 1.0500000e+01 
1.0000000e+00 3.0250001e+00 1.1000000e+01 
1.0000000e+00 3.0250001e+00 1.1500000e+01 
1.0000000e+00 3.0250001e+00 1.2000000e+01 
1.0000000e+00 3.0250001e+00 1.2500000e+01 
1.0000000e+00 3.0250001e+00 1.3000000e+01 
1.0000000e+00 3.0250001e+00 1.3500000e+01 
1.0000000e+00 3.0250001e+00 1.4000000e+01 
1.0000000e+00 3.0250001e+00 1.4500000e+01 
1.0000000e+00 -2.0000000e+00 -5.0000000e+00 
1.0000000e+00 -2.0000000e+00 -4.5000000e+00 
1.0000000e+00 -2.0000000e+00 -4.0000000e+00 
1.0000000e+00 -2.0000000e+00 -3.5000000e+00 
1.0000000e+00 -2.0000000e+00 -3.0000000e+00 
1.0000000e+00 -2.0000000e+00 -2.5000000e+00 
1.0000000e+00 -2.0000000e+00 -2.0000000e+00 
1.0000000e+00 -2.0000000e+00 -1.5000000e+00 
1.0000000e+00 -2.0000000e+00 -1.0000000e+00 
1.0000000e+00 -2.0000000e+00 -5.0000000e-01 
1.0000000e+00 -2.0000000e+00 1.0500000e+01 
1.0000000e+00 -2.0000000e+00 1.1000000e+01 
1.0000000e+00 -2.0000000e+00 1.1500000e+01 
1.0000000e+00 -2.0000000e+00 1.2000000e+01 
1.0000000e+00 -2.0000000e+00 1.2500000e+01 
1.0000000e+00 -2.0000000e+00 1.3000000e+01 
1.0000000e+00 -2.0000000e+00 1.3500000e+01 
1.0000000e+00 -2.0000000e+00 1.4000000e+01 
1.0000000e+00 -2.0000000e+00 1.4500000e+01 
1.0000000e+00 0.0000000e+00 0.0000000e+00 
2.0000000e+00 0.0000000e+00 0.0000000e+00 
3.0000000e+00 0.0000000e+00 0.0000000e+00 
4.0000000e+00 0.0000000e+00 0.0000000e+00 
5.0000000e+00 1.0000000e+00 0.0000000e+00 
5.0000000e+00 2.0000000e+00 0.0000000e+00 
0.0000000e+00 2.0000000e+00 0.0000000e+00 
0.0000000e+00 1.0000000e+00 0.0000000e+00 
0.0000000e+00 0.0000000e+00 1.0000000e+00 
0.0000000e+00 0.0000000e+00 2.0000000e+00 
0.0000000e+00 0.0000000e+00 3.0000000e+00 
0.0000000e+00 0.0000000e+00 4.0000000e+00 
0.0000000e+00 0.0000000e+00 5.0000000e+00 
0.0000000e+00 0.0000000e+00 6.0000000e+00 
0.0000000e+00 0.0000000e+00 7.0000000e+00 
0.0000000e+00 0.0000000e+00 8.0000000e+00 
0.0000000e+00 0.0000000e+00 9.0000000e+00 
5.0000000e+00 0.0000000e+00 1.0000000e+00 
5.0000000e+00 0.0000000e+00 2.0000000e+00 
5.0000000e+00 0.0000000e+00 3.0000000e+00 
5.0000000e+00 0.0000000e+00 4.0000000e+00 
5.0000000e+00 0.0000000e+00 5.0000000e+00 
5.0000000e+00 0.0000000e+00 6.0000000e+00 
5.0000000e+00 0.0000000e+00 7.0000000e+00 
5.0000000e+00 0.0000000e+00 8.0000000e+00 
5.0000000e+00 0.0000000e+00 9.0000000e+00 
1.0000000e+00 0.0000000e+00 1.0000000e+01 
2.0000000e+00 0.0000000e+00 1.0000000e+01 
3.0000000e+00 0.0000000e+00 1.0000000e+01 
4.0000000e+00 0.0000000e+00 1.0000000e+01 
5.0000000e+00 3.0000000e+00 1.0000000e+00 
5.0000000e+00 3.0000000e+00 2.0000000e+00 
5.0000000e+00 3.0000000e+00 3.0000000e+00 
5.0000000e+00 3.0000000e+00 4.0000000e+00 
5.0000000e+00 3.0000000e+00 5.0000000e+00 
5.0000000e+00 3.0000000e+00 6.0000000e+00 
5.0000000e+00 3.0000000e+00 7.0000000e+00 
5.0000000e+00 3.0000000e+00 8.0000000e+00 
5.0000000e+00 3.0000000e+00 9.0000000e+00 
5.0000000e+00 1.0000000e+00 1.0000000e+01 
5.0000000e+00 2.0000000e+00 1.0000000e+01 
0.0000000e+00 3.0000000e+00 1.0000000e+00 
0.0000000e+00 3.0000000e+00 2.0000000e+00 
0.0000000e+00 3.0000000e+00 3.0000000e+00 
0.0000000e+00 3.0000000e+00 4.0000000e+00 
0.0000000e+00 3.0000000e+00 5.0000000e+00 
0.0000000e+00 3.0000000e+00 6.0000000e+00 
0.0000000e+00 3.0000000e+00 7.0000000e+00 
0.0000000e+00 3.0000000e+00 8.0000000e+00 
0.0000000e+00 3.0000000e+00 9.0000000e+00 
0.0000000e+00 2.0000000e+00 1.0000000e+01 
0.0000000e+00 1.0000000e+00 1.0000000e+01 
4.0000000e+00 3.0000000e+00 0.0000000e+00 
3.0000000e+00 3.0000000e+00 0.0000000e+00 
2.0000000e+00 3.0000000e+00 0.0000000e+00 
4.0000000e+00 3.0000000e+00 1.0000000e+01 
3.0000000e+00 3.0000000e+00 1.0000000e+01 
2.0000000e+00 3.0000000e+00 1.0000000e+01 
4.0618000e+00 1.5000000e+00 0.0000000e+00 
1.5046000e+00 7.6549745e-01 0.0000000e+00 
2.5000000e+00 2.1339746e+00 0.0000000e+00 
1.5046000e+00 2.2345026e+00 0.0000000e+00 
2.4957771e+00 8.1560516e-01 0.0000000e+00 
3.4707544e+00 2.2336540e+00 0.0000000e+00 
3.4700506e+00 7.5794268e-01 0.0000000e+00 
8.6322361e-01 1.5000000e+00 0.0000000e+00 
2.0000000e+00 1.5000000e+00 0.0000000e+00 
2.9960666e+00 1.4974480e+00 0.0000000e+00 
4.2679491e+00 7.3205084e-01 0.0000000e+00 
4.2679491e+00 2.2679491e+00 0.0000000e+00 
7.2695929e-01 2.2730408e+00 0.0000000e+00 
7.2695929e-01 7.2695929e-01 0.0000000e+00 
4.1822505e+00 0.0000000e+00 2.5515697e+00 
4.2017918e+00 0.0000000e+00 4.4725966e+00 
4.1114569e+00 0.0000000e+00 6.5092020e+00 
8.6602539e-01 0.0000000e+00 3.5000000e+00 
8.4778279e-01 0.0000000e+00 5.4684029e+00 
8.9629614e-01 0.0000000e+00 7.5867257e+00 
2.5566745e+00 0.0000000e+00 8.1853306e-01 
2.4918270e+00 0.0000000e+00 9.1386929e+00 
8.4677207e-01 0.0000000e+00 1.5042374e+00 
4.0943027e+00 0.0000000e+00 8.4081745e+00 
8.6281651e-01 0.0000000e+00 2.5007062e+00 
1.7315160e+00 0.0000000e+00 3.0001178e+00 
1.7319617e+00 0.0000000e+00 4.0000196e+00 
2.5980761e+00 0.0000000e+00 3.5000000e+00 
2.5536871e+00 0.0000000e+00 4.4963923e+00 
2.5928419e+00 0.0000000e+00 2.4239938e+00 
1.5037409e+00 0.0000000e+00 9.1535149e+00 
1.8433737e+00 0.0000000e+00 8.1858873e+00 
3.0000000e+00 0.0000000e+00 8.2679491e+00 
2.5000000e+00 0.0000000e+00 7.4019237e+00 
3.5042722e+00 0.0000000e+00 7.4271150e+00 
3.0310018e+00 0.0000000e+00 6.5282087e+00 
2.0373929e+00 0.0000000e+00 6.5307913e+00 
3.4767809e+00 0.0000000e+00 5.8031492e+00 
2.5452602e+00 0.0000000e+00 5.5720768e+00 
1.6456656e+00 0.0000000e+00 1.9697139e+00 
8.6297011e-01 0.0000000e+00 4.4947371e+00 
1.0111579e+00 0.0000000e+00 6.5282545e+00 
3.4994321e+00 0.0000000e+00 8.4691072e-01 
4.1860156e+00 0.0000000e+00 3.5040276e+00 
1.7320508e+00 0.0000000e+00 5.0000000e+00 
4.0544066e+00 0.0000000e+00 1.5781221e+00 
1.5817389e+00 0.0000000e+00 9.3943578e-01 
8.3166349e-01 0.0000000e+00 8.5090933e+00 
3.4686174e+00 0.0000000e+00 9.1752682e+00 
3.0709300e+00 0.0000000e+00 1.5799091e+00 
3.3927374e+00 0.0000000e+00 3.0399952e+00 
3.3826034e+00 0.0000000e+00 3.9747651e+00 
4.3420062e+00 0.0000000e+00 7.4688983e+00 
3.4023225e+00 0.0000000e+00 4.9314723e+00 
1.6740381e+00 0.0000000e+00 7.3014426e+00 
4.2715640e+00 0.0000000e+00 5.4758859e+00 
1.6225953e+00 0.0000000e+00 5.8104177e+00 
4.2679491e+00 0.0000000e+00 9.2679491e+00 
7.3205084e-01 0.0000000e+00 7.3205084e-01 
4.2679491e+00 0.0000000e+00 7.3205084e-01 
7.3205084e-01 0.0000000e+00 9.2679491e+00 
3.4586334e+00 0.0000000e+00 2.2347178e+00 
2.2895701e+00 0.0000000e+00 1.5463171e+00 
5.0000000e+00 2.2345026e+00 1.5046000e+00 
[...]
POINT_DATA 460
FIELD FieldData 2
DISPLACEMENT 3 460  float
0.0000000e+00 0.0000000e+00 0.0000000e+00 
0.0000000e+00 0.0000000e+00 0.0000000e+00 
0.0000000e+00 3.3899818e-07 0.0000000e+00 
0.0000000e+00 -1.1068382e-06 0.0000000e+00 
0.0000000e+00 0.0000000e+00 0.0000000e+00 
0.0000000e+00 0.0000000e+00 0.0000000e+00 
0.0000000e+00 4.4756868e-07 0.0000000e+00 
0.0000000e+00 -6.5157542e-07 0.0000000e+00 
0.0000000e+00 -5.1960620e-07 0.0000000e+00 
0.0000000e+00 -5.1158923e-07 0.0000000e+00 
0.0000000e+00 -4.8674684e-07 0.0000000e+00 
0.0000000e+00 -4.4559079e-07 0.0000000e+00 
0.0000000e+00 -3.9117981e-07 0.0000000e+00 
0.0000000e+00 -3.2958246e-07 0.0000000e+00 
0.0000000e+00 -2.7019055e-07 0.0000000e+00 
0.0000000e+00 -2.2535373e-07 0.0000000e+00 
0.0000000e+00 -2.0852164e-07 0.0000000e+00 
0.0000000e+00 -2.2988320e-07 0.0000000e+00 
0.0000000e+00 -2.9337389e-07 0.0000000e+00 
-3.0905693e-07 -4.0101634e-07 1.1017829e-06 
-8.1991885e-07 -7.2887889e-07 2.8842560e-06 
-1.1060810e-06 -1.8357898e-06 4.3449513e-06 
-2.0371967e-06 -5.3387434e-06 7.0082297e-06 
-3.3657107e-06 -1.5305319e-05 9.5559044e-06 
-3.8444682e-06 -3.8867111e-05 1.1543930e-05 
-5.5166661e-06 -8.5590080e-05 1.6493230e-05 
-6.5531785e-06 -1.6087561e-04 9.2377222e-06 
-1.8314311e-05 -2.4486936e-04 1.6165985e-05 
-1.2214815e-05 -2.5629855e-04 -3.5855060e-06 
-1.7321587e-06 -1.8060875e-04 -1.9747264e-05 
-5.7417014e-06 -1.0060554e-04 -1.0521308e-05 
-3.5318285e-06 -4.6946687e-05 -1.1958707e-05 
-3.6404949e-06 -1.8914889e-05 -1.1934681e-05 
-2.3297744e-06 -6.7088895e-06 -7.4190966e-06 
-1.6384979e-06 -2.2284005e-06 -5.0449512e-06 
-7.0675401e-07 -8.4797574e-07 -2.6641005e-06 
-3.7439511e-07 -4.4931892e-07 -1.6565010e-06 
-2.2921715e-07 -2.8973881e-07 -8.2998821e-07 
0.0000000e+00 -2.1168198e-07 0.0000000e+00 
0.0000000e+00 -1.3615841e-07 0.0000000e+00 
0.0000000e+00 -7.5548698e-08 0.0000000e+00 
0.0000000e+00 -3.2654949e-08 0.0000000e+00 
0.0000000e+00 -6.7721948e-09 0.0000000e+00 
0.0000000e+00 6.0754157e-09 0.0000000e+00 
0.0000000e+00 1.0546138e-08 0.0000000e+00 
0.0000000e+00 1.0689381e-08 0.0000000e+00 
0.0000000e+00 9.4883212e-09 0.0000000e+00 
0.0000000e+00 8.8345216e-09 0.0000000e+00 
0.0000000e+00 -5.1966941e-07 0.0000000e+00 
0.0000000e+00 -5.1169792e-07 0.0000000e+00 
0.0000000e+00 -4.8699178e-07 0.0000000e+00 
0.0000000e+00 -4.4589902e-07 0.0000000e+00 
0.0000000e+00 -3.9144095e-07 0.0000000e+00 
0.0000000e+00 -3.2977434e-07 0.0000000e+00 
0.0000000e+00 -2.7036290e-07 0.0000000e+00 
0.0000000e+00 -2.2558575e-07 0.0000000e+00 
0.0000000e+00 -2.0891832e-07 0.0000000e+00 
0.0000000e+00 -2.3056373e-07 0.0000000e+00 
0.0000000e+00 -2.8946826e-07 0.0000000e+00 
0.0000000e+00 -3.9393336e-07 0.0000000e+00 
0.0000000e+00 -7.0321471e-07 0.0000000e+00 
0.0000000e+00 -1.7635250e-06 0.0000000e+00 
0.0000000e+00 -5.2379896e-06 0.0000000e+00 
0.0000000e+00 -1.5179835e-05 0.0000000e+00 
0.0000000e+00 -3.8853457e-05 0.0000000e+00 
0.0000000e+00 -8.6134321e-05 0.0000000e+00 
0.0000000e+00 -1.6279798e-04 0.0000000e+00 
0.0000000e+00 -2.4807698e-04 0.0000000e+00 
0.0000000e+00 -2.6068068e-04 0.0000000e+00 
0.0000000e+00 -1.8319623e-04 0.0000000e+00 
0.0000000e+00 -1.0171301e-04 0.0000000e+00 
0.0000000e+00 -4.7256417e-05 0.0000000e+00 
0.0000000e+00 -1.8832243e-05 0.0000000e+00 
0.0000000e+00 -6.5739928e-06 0.0000000e+00 
0.0000000e+00 -2.1381516e-06 0.0000000e+00 
0.0000000e+00 -8.0011472e-07 0.0000000e+00 
0.0000000e+00 -4.2979030e-07 0.0000000e+00 
0.0000000e+00 -2.8816976e-07 0.0000000e+00 
0.0000000e+00 -2.0846848e-07 0.0000000e+00 
0.0000000e+00 -1.3670633e-07 0.0000000e+00 
0.0000000e+00 -7.5851609e-08 0.0000000e+00 
0.0000000e+00 -3.2784687e-08 0.0000000e+00 
0.0000000e+00 -6.7977006e-09 0.0000000e+00 
0.0000000e+00 6.1013510e-09 0.0000000e+00 
0.0000000e+00 1.0589655e-08 0.0000000e+00 
0.0000000e+00 1.0733069e-08 0.0000000e+00 
0.0000000e+00 9.5268868e-09 0.0000000e+00 
0.0000000e+00 8.8703516e-09 0.0000000e+00 
0.0000000e+00 0.0000000e+00 0.0000000e+00 
0.0000000e+00 0.0000000e+00 0.0000000e+00 
0.0000000e+00 0.0000000e+00 0.0000000e+00 
0.0000000e+00 0.0000000e+00 0.0000000e+00 
0.0000000e+00 0.0000000e+00 0.0000000e+00 
0.0000000e+00 0.0000000e+00 0.0000000e+00 
0.0000000e+00 0.0000000e+00 0.0000000e+00 
0.0000000e+00 0.0000000e+00 0.0000000e+00 
0.0000000e+00 0.0000000e+00 0.0000000e+00 
0.0000000e+00 0.0000000e+00 0.0000000e+00 
0.0000000e+00 0.0000000e+00 0.0000000e+00 
0.0000000e+00 0.0000000e+00 0.0000000e+00 
0.0000000e+00 0.0000000e+00 0.0000000e+00 
0.0000000e+00 0.0000000e+00 0.0000000e+00 
0.0000000e+00 0.0000000e+00 0.0000000e+00 
0.0000000e+00 0.0000000e+00 0.0000000e+00 
0.0000000e+00 0.0000000e+00 0.0000000e+00 
0.0000000e+00 0.0000000e+00 0.0000000e+00 
0.0000000e+00 0.0000000e+00 0.0000000e+00 
0.0000000e+00 0.0000000e+00 0.0000000e+00 
0.0000000e+00 0.0000000e+00 0.0000000e+00 
0.0000000e+00 0.0000000e+00 0.0000000e+00 
0.0000000e+00 0.0000000e+00 0.0000000e+00 
0.0000000e+00 1.1167387e-07 0.0000000e+00 
0.0000000e+00 2.8915423e-07 0.0000000e+00 
0.0000000e+00 -1.0472709e-06 0.0000000e+00 
0.0000000e+00 -7.3258576e-07 0.0000000e+00 
0.0000000e+00 0.0000000e+00 0.0000000e+00 
0.0000000e+00 0.0000000e+00 0.0000000e+00 
0.0000000e+00 0.0000000e+00 0.0000000e+00 
0.0000000e+00 0.0000000e+00 0.0000000e+00 
0.0000000e+00 0.0000000e+00 0.0000000e+00 
0.0000000e+00 0.0000000e+00 0.0000000e+00 
0.0000000e+00 0.0000000e+00 0.0000000e+00 
0.0000000e+00 0.0000000e+00 0.0000000e+00 
0.0000000e+00 0.0000000e+00 0.0000000e+00 
0.0000000e+00 0.0000000e+00 0.0000000e+00 
0.0000000e+00 0.0000000e+00 0.0000000e+00 
0.0000000e+00 0.0000000e+00 0.0000000e+00 
0.0000000e+00 0.0000000e+00 0.0000000e+00 
0.0000000e+00 0.0000000e+00 0.0000000e+00 
0.0000000e+00 0.0000000e+00 0.0000000e+00 
0.0000000e+00 0.0000000e+00 0.0000000e+00 
0.0000000e+00 0.0000000e+00 0.0000000e+00 
0.0000000e+00 0.0000000e+00 0.0000000e+00 
0.0000000e+00 0.0000000e+00 0.0000000e+00 
0.0000000e+00 0.0000000e+00 0.0000000e+00 
0.0000000e+00 0.0000000e+00 0.0000000e+00 
0.0000000e+00 0.0000000e+00 0.0000000e+00 
0.0000000e+00 1.9045726e-07 0.0000000e+00 
0.0000000e+00 1.1615349e-07 0.0000000e+00 
0.0000000e+00 -8.3305201e-07 0.0000000e+00 
0.0000000e+00 -8.9956183e-07 0.0000000e+00 
0.0000000e+00 -1.5704821e-06 0.0000000e+00 
0.0000000e+00 2.8559131e-07 0.0000000e+00 
0.0000000e+00 -2.9181342e-07 0.0000000e+00 
0.0000000e+00 4.3346841e-07 0.0000000e+00 
0.0000000e+00 3.7456732e-07 0.0000000e+00 
0.0000000e+00 1.3282977e-07 0.0000000e+00 
0.0000000e+00 3.6447176e-07 0.0000000e+00 
0.0000000e+00 -2.4731216e-06 0.0000000e+00 
0.0000000e+00 -9.9456574e-06 0.0000000e+00 
0.0000000e+00 -3.5723864e-05 0.0000000e+00 
0.0000000e+00 -8.1735423e-05 0.0000000e+00 
0.0000000e+00 -9.8988472e-05 0.0000000e+00 
0.0000000e+00 -5.8503956e-05 0.0000000e+00 
0.0000000e+00 -2.3207960e-05 0.0000000e+00 
0.0000000e+00 -6.3598441e-06 0.0000000e+00 
0.0000000e+00 -1.6476104e-06 0.0000000e+00 
0.0000000e+00 -6.3973749e-07 0.0000000e+00 
0.0000000e+00 -4.4602240e-07 0.0000000e+00 
0.0000000e+00 3.4737306e-07 0.0000000e+00 
0.0000000e+00 -5.5429300e-08 0.0000000e+00 
0.0000000e+00 -4.3277868e-07 0.0000000e+00 
0.0000000e+00 3.3031546e-07 0.0000000e+00 
0.0000000e+00 5.8145162e-08 0.0000000e+00 
0.0000000e+00 -7.2171858e-08 0.0000000e+00 
0.0000000e+00 2.8381214e-07 0.0000000e+00 
0.0000000e+00 -3.8804117e-07 0.0000000e+00 
0.0000000e+00 2.8623936e-07 0.0000000e+00 
0.0000000e+00 7.0362084e-08 0.0000000e+00 
0.0000000e+00 -6.6297282e-08 0.0000000e+00 
0.0000000e+00 4.4544885e-07 0.0000000e+00 
0.0000000e+00 -9.7027296e-08 0.0000000e+00 
0.0000000e+00 -3.4878826e-07 0.0000000e+00 
0.0000000e+00 1.2682602e-08 0.0000000e+00 
0.0000000e+00 1.6379957e-07 0.0000000e+00 
0.0000000e+00 8.9955670e-08 0.0000000e+00 
0.0000000e+00 4.0027945e-07 0.0000000e+00 
0.0000000e+00 -4.3795717e-07 0.0000000e+00 
0.0000000e+00 -3.3262100e-07 0.0000000e+00 
0.0000000e+00 0.0000000e+00 0.0000000e+00 
0.0000000e+00 0.0000000e+00 0.0000000e+00 
0.0000000e+00 0.0000000e+00 0.0000000e+00 
0.0000000e+00 0.0000000e+00 0.0000000e+00 
0.0000000e+00 0.0000000e+00 0.0000000e+00 
0.0000000e+00 0.0000000e+00 0.0000000e+00 
0.0000000e+00 0.0000000e+00 0.0000000e+00 
0.0000000e+00 0.0000000e+00 0.0000000e+00 
0.0000000e+00 0.0000000e+00 0.0000000e+00 
0.0000000e+00 0.0000000e+00 0.0000000e+00 
0.0000000e+00 0.0000000e+00 0.0000000e+00 
0.0000000e+00 0.0000000e+00 0.0000000e+00 
0.0000000e+00 0.0000000e+00 0.0000000e+00 
0.0000000e+00 0.0000000e+00 0.0000000e+00 
0.0000000e+00 0.0000000e+00 0.0000000e+00 
0.0000000e+00 0.0000000e+00 0.0000000e+00 
0.0000000e+00 0.0000000e+00 0.0000000e+00 
0.0000000e+00 0.0000000e+00 0.0000000e+00 
0.0000000e+00 0.0000000e+00 0.0000000e+00 
0.0000000e+00 0.0000000e+00 0.0000000e+00 
0.0000000e+00 0.0000000e+00 0.0000000e+00 
0.0000000e+00 0.0000000e+00 0.0000000e+00 
0.0000000e+00 0.0000000e+00 0.0000000e+00 
0.0000000e+00 0.0000000e+00 0.0000000e+00 
0.0000000e+00 0.0000000e+00 0.0000000e+00 
0.0000000e+00 0.0000000e+00 0.0000000e+00 
0.0000000e+00 0.0000000e+00 0.0000000e+00 
0.0000000e+00 0.0000000e+00 0.0000000e+00 
0.0000000e+00 0.0000000e+00 0.0000000e+00 
0.0000000e+00 0.0000000e+00 0.0000000e+00 
0.0000000e+00 0.0000000e+00 0.0000000e+00 
0.0000000e+00 0.0000000e+00 0.0000000e+00 
0.0000000e+00 0.0000000e+00 0.0000000e+00 
0.0000000e+00 0.0000000e+00 0.0000000e+00 
0.0000000e+00 0.0000000e+00 0.0000000e+00 
0.0000000e+00 0.0000000e+00 0.0000000e+00 
0.0000000e+00 0.0000000e+00 0.0000000e+00 
0.0000000e+00 0.0000000e+00 0.0000000e+00 
0.0000000e+00 0.0000000e+00 0.0000000e+00 
0.0000000e+00 0.0000000e+00 0.0000000e+00 
0.0000000e+00 0.0000000e+00 0.0000000e+00 
0.0000000e+00 0.0000000e+00 0.0000000e+00 
0.0000000e+00 0.0000000e+00 0.0000000e+00 
0.0000000e+00 0.0000000e+00 0.0000000e+00 
0.0000000e+00 0.0000000e+00 0.0000000e+00 
0.0000000e+00 0.0000000e+00 0.0000000e+00 
0.0000000e+00 0.0000000e+00 0.0000000e+00 
0.0000000e+00 0.0000000e+00 0.0000000e+00 
0.0000000e+00 0.0000000e+00 0.0000000e+00 
0.0000000e+00 1.9289327e-07 0.0000000e+00 
0.0000000e+00 2.2158522e-07 0.0000000e+00 
0.0000000e+00 -4.3932275e-07 0.0000000e+00 
0.0000000e+00 -9.0221931e-08 0.0000000e+00 
0.0000000e+00 3.9509806e-07 0.0000000e+00 
0.0000000e+00 -3.2840629e-07 0.0000000e+00 
0.0000000e+00 -7.9608054e-07 0.0000000e+00 
0.0000000e+00 -6.0857400e-07 0.0000000e+00 
0.0000000e+00 -7.0237405e-07 0.0000000e+00 
0.0000000e+00 -7.1279965e-07 0.0000000e+00 
0.0000000e+00 -5.3220443e-08 0.0000000e+00 
0.0000000e+00 -8.1341170e-07 0.0000000e+00 
0.0000000e+00 1.1720054e-07 0.0000000e+00 
0.0000000e+00 -1.8284474e-07 0.0000000e+00 
0.0000000e+00 -2.0072400e-07 0.0000000e+00 
0.0000000e+00 2.5219387e-08 0.0000000e+00 
0.0000000e+00 3.9940414e-07 0.0000000e+00 
0.0000000e+00 1.7391439e-07 0.0000000e+00 
0.0000000e+00 -7.3535801e-07 0.0000000e+00 
0.0000000e+00 -1.0931264e-07 0.0000000e+00 
0.0000000e+00 -1.4640392e-07 0.0000000e+00 
0.0000000e+00 -4.0012938e-07 0.0000000e+00 
0.0000000e+00 -6.7490510e-07 0.0000000e+00 
0.0000000e+00 -5.7833631e-07 0.0000000e+00 
0.0000000e+00 2.3124477e-07 0.0000000e+00 
0.0000000e+00 4.4445136e-07 0.0000000e+00 
0.0000000e+00 5.3701651e-08 0.0000000e+00 
0.0000000e+00 3.2297342e-07 0.0000000e+00 
0.0000000e+00 -5.5996958e-09 0.0000000e+00 
0.0000000e+00 -1.3217666e-06 0.0000000e+00 
0.0000000e+00 -2.1539631e-06 0.0000000e+00 
0.0000000e+00 -8.0025966e-06 0.0000000e+00 
0.0000000e+00 -2.5301353e-05 0.0000000e+00 
0.0000000e+00 -5.8915507e-06 0.0000000e+00 
0.0000000e+00 -4.9047605e-05 0.0000000e+00 
0.0000000e+00 -6.8239155e-05 0.0000000e+00 
0.0000000e+00 -1.2325460e-05 0.0000000e+00 
0.0000000e+00 -1.8432404e-05 0.0000000e+00 
0.0000000e+00 -1.8562889e-05 0.0000000e+00 
0.0000000e+00 -8.4697967e-05 0.0000000e+00 
0.0000000e+00 -3.5960915e-05 0.0000000e+00 
0.0000000e+00 -3.3072251e-05 0.0000000e+00 
0.0000000e+00 -3.4819670e-06 0.0000000e+00 
0.0000000e+00 -5.3336471e-06 0.0000000e+00 
0.0000000e+00 -3.0912020e-06 0.0000000e+00 
0.0000000e+00 -1.9478089e-06 0.0000000e+00 
0.0000000e+00 -5.1833009e-05 0.0000000e+00 
0.0000000e+00 -1.1401034e-05 0.0000000e+00 
0.0000000e+00 -4.4420696e-05 0.0000000e+00 
0.0000000e+00 -2.4269957e-05 0.0000000e+00 
0.0000000e+00 -1.5920394e-05 0.0000000e+00 
0.0000000e+00 -2.2062221e-05 0.0000000e+00 
0.0000000e+00 -5.0971303e-06 0.0000000e+00 
0.0000000e+00 -8.4549265e-06 0.0000000e+00 
0.0000000e+00 -7.4976975e-07 0.0000000e+00 
0.0000000e+00 -1.8472986e-06 0.0000000e+00 
0.0000000e+00 -1.2652904e-06 0.0000000e+00 
0.0000000e+00 -1.1619946e-06 0.0000000e+00 
0.0000000e+00 -2.8461776e-07 0.0000000e+00 
0.0000000e+00 2.3358956e-07 0.0000000e+00 
0.0000000e+00 2.1873900e-07 0.0000000e+00 
0.0000000e+00 1.5528839e-07 0.0000000e+00 
0.0000000e+00 -2.0274287e-07 0.0000000e+00 
0.0000000e+00 4.4192953e-07 0.0000000e+00 
0.0000000e+00 4.5460080e-08 0.0000000e+00 
0.0000000e+00 -2.0990812e-07 0.0000000e+00 
0.0000000e+00 -1.3104335e-08 0.0000000e+00 
0.0000000e+00 2.1621717e-07 0.0000000e+00 
0.0000000e+00 4.9177764e-08 0.0000000e+00 
0.0000000e+00 4.9630950e-07 0.0000000e+00 
0.0000000e+00 -2.0252142e-07 0.0000000e+00 
0.0000000e+00 -2.5716855e-07 0.0000000e+00 
-1.3800121e-05 -1.1020939e-04 -1.1271403e-06 
-8.6913915e-06 -4.6937254e-05 -1.1201333e-05 
-2.4077638e-06 -5.4490142e-06 -5.9826039e-06 
-3.3922702e-06 -1.2146184e-05 8.3056384e-06 
-6.0379843e-06 -4.5503552e-05 1.0785458e-05 
-3.5330365e-06 -1.5045905e-06 -2.5843192e-07 
-1.3304868e-06 -9.7991153e-07 6.8291939e-07 
-1.5272659e-06 -4.6741920e-07 -9.9237741e-07 
-1.0837633e-06 -1.8462034e-06 3.1883674e-06 
-6.1689951e-07 -1.3482073e-06 -2.2553284e-06 
-7.3174459e-07 -1.8331482e-07 9.4728995e-07 
-4.7074789e-07 2.0353212e-07 -5.9407853e-07 
-2.0234552e-06 -1.1336615e-06 -1.2284153e-06 
-3.7280420e-06 -3.3554152e-06 -2.9314469e-06 
-2.0638747e-06 -2.1001374e-06 -2.4160483e-06 
-3.0623526e-06 -5.5597961e-06 -2.5713698e-06 
-5.4126222e-06 -1.1292920e-05 -3.3293054e-06 
-1.4044597e-06 -2.0512132e-06 -1.8863766e-06 
-4.7734684e-06 -1.2615666e-05 -7.4038730e-06 
-6.3072307e-06 -6.7793703e-06 -2.7927990e-06 
-5.9036715e-06 -8.3829700e-06 -1.5279093e-06 
-9.5913419e-06 -1.8034705e-05 -2.7203048e-06 
-1.1873343e-05 -2.5731992e-05 -1.6309713e-06 
-6.7467799e-06 -1.0707902e-05 8.9039730e-07 
-1.0250396e-05 -2.3553157e-05 3.0662866e-06 
-4.7870426e-06 -7.0918404e-06 1.7450244e-06 
-7.2007906e-06 -1.6462507e-05 5.8754626e-06 
-4.2740321e-06 -7.4635550e-06 3.6106248e-06 
-5.3614108e-06 -9.8295077e-06 5.4854563e-06 
-3.2932226e-06 -3.9219408e-06 3.1051743e-06 
-2.4697861e-06 -3.8842809e-06 3.7880550e-06 
-1.4681543e-05 -4.9029724e-05 -7.3219653e-06 
-1.1987107e-05 -3.2771954e-05 -6.8073523e-06 
-1.2047193e-05 -3.9195253e-05 7.5904004e-06 
-2.4845535e-06 -2.2721438e-06 9.9418139e-07 
-6.3784233e-07 -1.4043651e-07 -9.3001648e-07 
-1.3854937e-05 -5.0715324e-05 2.3335160e-06 
-2.9875146e-06 -2.7808378e-06 -2.3435513e-07 
-9.0838370e-07 -4.8738315e-07 1.4297129e-06 
-6.4268505e-07 2.3070208e-07 -6.1183545e-07 
-2.2712013e-06 -6.1213900e-06 -5.0937920e-06 
-1.7811898e-06 -2.8743575e-06 -3.7938573e-06 
-8.1183643e-06 -7.7451135e-05 -6.9528737e-06 
-7.2520589e-07 -4.8337441e-08 5.8268097e-07 
-5.1257734e-06 -2.1425771e-05 9.9445442e-06 
-6.2036283e-06 -2.3325134e-05 8.1318913e-06 
-1.0188313e-05 -8.1952167e-05 1.3203648e-05 
-1.1569990e-05 -1.0641955e-04 3.5478090e-06 
-5.1392904e-06 -2.6138614e-05 -9.5574442e-06 
-3.3575600e-06 -1.1996178e-05 -6.9774965e-06 
-6.2683580e-07 -4.4860505e-07 1.7491484e-06 
-1.9060154e-06 -5.4861093e-06 4.9065284e-06 
-4.5467687e-07 -1.9817651e-07 -1.1687818e-06 
-1.5591444e-06 -1.2202681e-06 2.0241521e-06 
-5.0316048e-06 -1.2294020e-05 8.0074069e-06 
-1.2688520e-06 -3.1179875e-06 -3.9934157e-06 
-6.8859699e-06 -2.1324817e-05 -7.4023278e-06 
-1.7290768e-06 -3.1589695e-06 3.7544394e-06 
-1.1741181e-05 -1.1168460e-04 -5.8859496e-06 
-1.0518673e-06 -5.3519193e-07 -1.4119025e-06 
-2.7474658e-07 4.3170166e-07 -3.3321899e-07 
-3.3505293e-07 2.5381141e-07 3.5201845e-07 
-4.5721058e-06 -5.5012429e-06 1.3069339e-06 
-2.8331920e-06 -6.2930162e-06 5.8101609e-06 
-8.3756498e-07 -8.0741125e-07 -1.6960543e-06 
-7.4618820e-06 -1.7050337e-05 -4.3097921e-06 
-1.4498562e-06 -1.0434989e-06 1.4078894e-06 
-2.6403227e-06 -3.1506443e-06 1.6913077e-06 
-8.7961234e-07 -9.3537835e-07 2.0037076e-06 
-1.9573756e-05 -6.1525039e-05 -2.0516823e-06 
-4.6536601e-07 -1.2018525e-07 -7.9519253e-07 
-1.1191229e-06 -1.2845521e-05 6.6802718e-06 
-4.8930809e-07 -6.7267688e-06 5.0982039e-06 
-1.6154238e-06 -2.8780620e-05 9.4292764e-06 
-2.6400180e-06 -4.7761539e-05 8.9339692e-06 
-4.9831328e-07 -2.8882016e-06 3.2107798e-06 
-1.1931940e-06 -7.8437624e-05 6.1446540e-06 
-6.2964627e-06 -1.1199601e-04 7.4552709e-06 
-1.2458310e-06 -1.2648712e-04 1.9774423e-06 
-1.1921549e-05 -1.2523342e-04 -7.0497122e-06 
-8.6303862e-06 -9.4799558e-05 -9.4029238e-06 
-5.2804976e-06 -6.3836909e-05 -7.5461062e-06 
-2.8446436e-06 -3.4776149e-05 -9.4642492e-06 
-1.0944553e-06 -1.6746439e-05 -6.4783076e-06 
-7.6669329e-07 -7.6513352e-06 -4.5712386e-06 
-4.5419611e-07 -4.3603850e-06 -3.2671132e-06 
-2.0147694e-07 -2.1412034e-06 -2.0329107e-06 
-1.5850645e-07 -8.1157515e-07 -9.9374938e-07 
-2.3048074e-07 -1.3275328e-06 1.3957823e-06 
1.5001851e-06 -6.2759145e-06 -3.9675251e-06 
6.7716705e-06 -2.6072570e-05 -6.2085360e-06 
9.9039771e-06 -3.5503301e-05 4.4297722e-06 
3.1661787e-06 -1.1083779e-05 5.1348734e-06 
5.4023224e-07 -1.7940509e-06 1.7793665e-06 
2.6169412e-06 -3.4986926e-06 -2.3067723e-06 
4.7560434e-06 -6.0509874e-06 -1.0358937e-06 
4.4394883e-06 -8.0239097e-06 2.4951321e-06 
9.0378544e-06 -7.2719406e-05 -4.6462305e-06 
4.6408110e-07 -2.2363663e-05 -4.0548857e-06 
-1.7539944e-07 -2.2094919e-06 -6.6948968e-07 
1.6752417e-06 -1.8628203e-06 2.0552711e-06 
4.6261468e-07 -1.1283298e-06 -1.0728991e-06 
4.2153788e-06 -4.1080391e-05 7.8111925e-06 
2.6849747e-07 -6.3535522e-06 1.5781868e-06 
1.2621638e-07 -6.5834269e-05 -8.1500420e-06 
6.8766381e-06 -2.4826848e-05 -1.1617873e-06 
2.7863762e-06 -9.4185998e-06 -3.3786725e-06 
4.8338334e-06 -9.2606548e-05 5.5308719e-06 
8.8672605e-06 -2.1816641e-05 -1.4247981e-06 
-2.0836667e-07 -7.7551231e-06 -3.1391076e-07 
3.1907289e-06 -3.1305440e-06 5.3051741e-07 
-5.0663520e-08 -1.3612346e-06 2.1082900e-07 
8.4326848e-07 -4.0206606e-07 -9.4497778e-07 
4.2200986e-07 1.3433912e-07 4.7501143e-07 
3.2428038e-06 -1.1610897e-05 -5.6722442e-06 
7.5524208e-06 -1.0728196e-05 1.3839890e-06 
2.3115331e-06 -3.0740787e-06 -2.8990012e-06 
4.8582760e-06 -7.7301693e-06 -3.2609596e-06 
2.4759015e-06 -8.6920618e-06 -1.2411853e-06 
9.2565080e-07 -9.3843136e-07 3.4946945e-07 
2.1085759e-06 -1.2434834e-05 2.1125552e-06 
5.0133605e-07 -1.7400260e-05 1.6207658e-06 
4.5472411e-06 -2.3510460e-05 1.1696872e-06 
5.6448982e-07 -3.8708365e-07 1.0837535e-06 
9.4321717e-07 -4.2396618e-06 1.6025424e-06 
6.0425026e-07 -1.3731913e-06 -1.7175913e-06 
1.5658818e-06 -1.7898901e-06 -6.8857423e-07 
6.4514857e-08 -1.9784532e-06 -1.9775471e-06 
4.2333058e-06 -1.7775930e-05 5.7318116e-06 
4.0583068e-06 -3.2211832e-05 -3.8781595e-06 
-7.1877210e-08 -3.3821354e-07 2.3409329e-07 
8.6392174e-07 -4.6707582e-06 3.4954674e-06 
5.2044234e-06 -4.6223526e-05 -3.9520514e-06 
-1.1660584e-08 -2.3474161e-06 -6.5682445e-07 
2.5430300e-06 -9.6230815e-06 2.0868947e-07 
1.6686703e-06 -1.1353125e-06 -8.2561587e-07 
1.5581741e-06 -3.3341576e-06 2.6978382e-06 
4.9908783e-07 -2.7019821e-06 -7.3237032e-07 
5.3224767e-06 -2.5865527e-05 1.8646818e-06 
4.9275951e-07 -6.0926868e-07 -4.5346127e-07 
1.0201226e-06 -6.4001955e-07 9.2971436e-07 
-1.8667703e-07 -1.6499166e-06 -5.8937201e-07 
2.3366631e-06 -3.0635714e-05 1.5596518e-06 
3.5761495e-06 -4.6294121e-05 5.9845761e-06 
5.8394462e-06 -1.0106261e-05 3.7382133e-06 
1.7707433e-07 -7.7462232e-07 1.1007978e-06 
1.5150488e-07 4.2440661e-08 -2.5589389e-07 
3.9470504e-07 -2.7140895e-06 -3.0318745e-08 
2.2108534e-06 -1.7386325e-06 -1.7878878e-07 
9.3820967e-07 -3.1035393e-06 6.1529882e-08 
1.9962770e-06 -1.5626699e-06 9.7882264e-07 
-3.2150152e-07 -7.0632955e-06 -2.9695192e-07 