# vtk DataFile Version 4.0
vtk output
ASCII
DATASET UNSTRUCTURED_GRID
POINTS 460 float
0.0000000e+00 0.0000000e+00 0.0000000e+00 
5.0000000e+00 0.0000000e+00 0.0000000e+00 
5.0000000e+00 3.0000000e+00 0.0000000e+00 
0.0000000e+00 3.0000000e+00 0.0000000e+00 
0.0000000e+00 0.0000000e+00 1.0000000e+01 
5.0000000e+00 0.0000000e+00 1.0000000e+01 
5.0000000e+00 3.0000000e+00 1.0000000e+01 
0.0000000e+00 3.0000000e+00 1.0000000e+01 
1.0000000e+00 3.0000000e+00 -5.0000000e+00 
1.0000000e+00 3.0000000e+00 -4.5000000e+00 
1.0000000e+00 3.0000000e+00 -4.0000000e+00 
1.0000000e+00 3.0000000e+00 -3.5000000e+00 
1.0000000e+00 3.0000000e+00 -3.0000000e+00 
1.0000000e+00 3.0000000e+00 -2.5000000e+00 
1.0000000e+00 3.0000000e+00 -2.0000000e+00 
1.0000000e+00 3.0000000e+00 -1.5000000e+00 
1.0000000e+00 3.0000000e+00 -1.0000000e+00 
1.0000000e+00 3.0000000e+00 -5.0000000e-01 
1.0000000e+00 3.0000000e+00 0.0000000e+00 
1.0000000e+00 3.0000000e+00 5.0000000e-01 
1.0000000e+00 3.0000000e+00 1.0000000e+00 
1.0000000e+00 3.0000000e+00 1.5000000e+00 
1.0000000e+00 3.0000000e+00 2.0000000e+00 
1.0000000e+00 3.0000000e+00 2.5000000e+00 
1.0000000e+00 3.0000000e+00 3.0000000e+00 
1.0000000e+00 3.0000000e+00 3.5000000e+00 
1.0000000e+00 3.0000000e+00 4.0000000e+00 
1.0000000e+00 3.0000000e+00 4.5000000e+00 
1.0000000e+00 3.0000000e+00 5.0000000e+00 
1.0000000e+00 3.0000000e+00 5.5000000e+00 
1.0000000e+00 3.0000000e+00 6.0000000e+00 
1.0000000e+00 3.0000000e+00 6.5000000e+00 
1.0000000e+00 3.0000000e+00 7.0000000e+00 
1.0000000e+00 3.0000000e+00 7.5000000e+00 
1.0000000e+00 3.0000000e+00 8.0000000e+00 
1.0000000e+00 3.0000000e+00 8.5000000e+00 
1.0000000e+00 3.0000000e+00 9.0000000e+00 
1.0000000e+00 3.0000000e+00 9.5000000e+00 
1.0000000e+00 3.0000000e+00 1.0000000e+01 
1.0000000e+00 3.0000000e+00 1.0500000e+01 
1.0000000e+00 3.0000000e+00 1.1000000e+01 
1.0000000e+00 3.0000000e+00 1.1500000e+01 
1.0000000e+00 3.0000000e+00 1.2000000e+01 
1.0000000e+00 3.0000000e+00 1.2500000e+01 
1.0000000e+00 3.0000000e+00 1.3000000e+01 
1.0000000e+00 3.0000000e+00 1.3500000e+01 
1.0000000e+00 3.0000000e+00 1.4000000e+01 
1.0000000e+00 3.0000000e+00 1.4500000e+01 
1.0000000e+00 3.0250001e+00 -5.0000000e+00 
1.0000000e+00 3.0250001e+00 -4.5000000e+00 
1.0000000e+00 3.0250001e+00 -4.0000000e+00 
1.0000000e+00 3.0250001e+00 -3.5000000e+00 
1.0000000e+00 3.0250001e+00 -3.0000000e+00 
1.0000000e+00 3.0250001e+00 -2.5000000e+00 
1.0000000e+00 3.0250001e+00 -2.0000000e+00 
1.0000000e+00 3.0250001e+00 -1.5000000e+00 
1.0000000e+00 3.0250001e+00 -1.0000000e+00 
1.0000000e+00 3.0250001e+00 -5.0000000e-01 
1.0000000e+00 3.0250001e+00 0.0000000e+00 
1.0000000e+00 3.0250001e+00 5.0000000e-01 
1.0000000e+00 3.0250001e+00 1.0000000e+00 
1.0000000e+00 3.0250001e+00 1.5000000e+00 
1.0000000e+00 3.0250001e+00 2.0000000e+00 
1.0000000e+00 3.0250001e+00 2.5000000e+00 
1.0000000e+00 3.0250001e+00 3.0000000e+00 
1.0000000e+00 3.0250001e+00 3.5000000e+00 
1.0000000e+00 3.0250001e+00 4.0000000e+00 
1.0000000e+00 3.0250001e+00 4.5000000e+00 
1.0000000e+00 3.0250001e+00 5.0000000e+00 
1.0000000e+00 3.0250001e+00 5.5000000e+00 
1.0000000e+00 3.0250001e+00 6.0000000e+00 
1.0000000e+00 3.0250001e+00 6.5000000e+00 
1.0000000e+00 3.0250001e+00 7.0000000e+00 
1.0000000e+00 3.0250001e+00 7.5000000e+00 
1.0000000e+00 3.0250001e+00 8.0000000e+00 
1.0000000e+00 3.0250001e+00 8.5000000e+00 
1.0000000e+00 3.0250001e+00 9.0000000e+00 
1.0000000e+00 3.0250001e+00 9.5000000e+00 
1.0000000e+00 3.0250001e+00 1.0000000e+01 
1.0000000e+00 3.0250001e+00 1.0500000e+01 
1.0000000e+00 3.0250001e+00 1.1000000e+01 
1.0000000e+00 3.0250001e+00 1.1500000e+01 
1.0000000e+00 3.0250001e+00 1.2000000e+01 
1.0000000e+00 3.0250001e+00 1.2500000e+01 
1.0000000e+00 3.0250001e+00 1.3000000e+01 
1.0000000e+00 3.0250001e+00 1.3500000e+01 
1.0000000e+00 3.0250001e+00 1.4000000e+01 
1.0000000e+00 3.0250001e+00 1.4500000e+01 
1.0000000e+00 -2.0000000e+00 -5.0000000e+00 
1.0000000e+00 -2.0000000e+00 -4.5000000e+00 
1.0000000e+00 -2.0000000e+00 -4.0000000e+00 
1.0000000e+00 -2.0000000e+00 -3.5000000e+00 
1.0000000e+00 -2.0000000e+00 -3.0000000e+00 
1.0000000e+00 -2.0000000e+00 -2.5000000e+00 
1.0000000e+00 -2.0000000e+00 -2.0000000e+00 
1.0000000e+00 -2.0000000e+00 -1.5000000e+00 
1.0000000e+00 -2.0000000e+00 -1.0000000e+00 
1.0000000e+00 -2.0000000e+00 -5.0000000e-01 
1.0000000e+00 -2.0000000e+00 1.0500000e+01 
1.0000000e+00 -2.0000000e+00 1.1000000e+01 
1.0000000e+00 -2.0000000e+00 1.1500000e+01 
1.0000000e+00 -2.0000000e+00 1.2000000e+01 
1.0000000e+00 -2.0000000e+00 1.2500000e+01 
1.0000000e+00 -2.0000000e+00 1.3000000e+01 
1.0000000e+00 -2.0000000e+00 1.3500000e+01 
1.0000000e+00 -2.0000000e+00 1.4000000e+01 
1.0000000e+00 -2.0000000e+00 1.4500000e+01 
1.0000000e+00 0.0000000e+00 0.0000000e+00 
2.0000000e+00 0.0000000e+00 0.0000000e+00 
3.0000000e+00 0.0000000e+00 0.0000000e+00 
4.0000000e+00 0.0000000e+00 0.0000000e+00 
5.0000000e+00 1.0000000e+00 0.0000000e+00 
5.0000000e+00 2.0000000e+00 0.0000000e+00 
0.0000000e+00 2.0000000e+00 0.0000000e+00 
0.0000000e+00 1.0000000e+00 0.0000000e+00 
0.0000000e+00 0.0000000e+00 1.0000000e+00 
0.0000000e+00 0.0000000e+00 2.0000000e+00 
0.0000000e+00 0.0000000e+00 3.0000000e+00 
0.0000000e+00 0.0000000e+00 4.0000000e+00 
0.0000000e+00 0.0000000e+00 5.0000000e+00 
0.0000000e+00 0.0000000e+00 6.0000000e+00 
0.0000000e+00 0.0000000e+00 7.0000000e+00 
0.0000000e+00 0.0000000e+00 8.0000000e+00 
0.0000000e+00 0.0000000e+00 9.0000000e+00 
5.0000000e+00 0.0000000e+00 1.0000000e+00 
5.0000000e+00 0.0000000e+00 2.0000000e+00 
5.0000000e+00 0.0000000e+00 3.0000000e+00 
5.0000000e+00 0.0000000e+00 4.0000000e+00 
5.0000000e+00 0.0000000e+00 5.0000000e+00 
5.0000000e+00 0.0000000e+00 6.0000000e+00 
5.0000000e+00 0.0000000e+00 7.0000000e+00 
5.0000000e+00 0.0000000e+00 8.0000000e+00 
5.0000000e+00 0.0000000e+00 9.0000000e+00 
1.0000000e+00 0.0000000e+00 1.0000000e+01 
2.0000000e+00 0.0000000e+00 1.0000000e+01 
3.0000000e+00 0.0000000e+00 1.0000000e+01 
4.0000000e+00 0.0000000e+00 1.0000000e+01 
5.0000000e+00 3.0000000e+00 1.0000000e+00 
5.0000000e+00 3.0000000e+00 2.0000000e+00 
5.0000000e+00 3.0000000e+00 3.0000000e+00 
5.0000000e+00 3.0000000e+00 4.0000000e+00 
5.0000000e+00 3.0000000e+00 5.0000000e+00 
5.0000000e+00 3.0000000e+00 6.0000000e+00 
5.0000000e+00 3.0000000e+00 7.0000000e+00 
5.0000000e+00 3.0000000e+00 8.0000000e+00 
5.0000000e+00 3.0000000e+00 9.0000000e+00 
5.0000000e+00 1.0000000e+00 1.0000000e+01 
5.0000000e+00 2.0000000e+00 1.0000000e+01 
0.0000000e+00 3.0000000e+00 1.0000000e+00 
0.0000000e+00 3.0000000e+00 2.0000000e+00 
0.0000000e+00 3.0000000e+00 3.0000000e+00 
0.0000000e+00 3.0000000e+00 4.0000000e+00 
0.0000000e+00 3.0000000e+00 5.0000000e+00 
0.0000000e+00 3.0000000e+00 6.0000000e+00 
0.0000000e+00 3.0000000e+00 7.0000000e+00 
0.0000000e+00 3.0000000e+00 8.0000000e+00 
0.0000000e+00 3.0000000e+00 9.0000000e+00 
0.0000000e+00 2.0000000e+00 1.0000000e+01 
0.0000000e+00 1.0000000e+00 1.0000000e+01 
4.0000000e+00 3.0000000e+00 0.0000000e+00 
3.0000000e+00 3.0000000e+00 0.0000000e+00 
2.0000000e+00 3.0000000e+00 0.0000000e+00 
4.0000000e+00 3.0000000e+00 1.0000000e+01 
3.0000000e+00 3.0000000e+00 1.0000000e+01 
2.0000000e+00 3.0000000e+00 1.0000000e+01 
4.0618000e+00 1.5000000e+00 0.0000000e+00 
1.5046000e+00 7.6549745e-01 0.0000000e+00 
2.5000000e+00 2.1339746e+00 0.0000000e+00 
1.5046000e+00 2.2345026e+00 0.0000000e+00 
2.4957771e+00 8.1560516e-01 0.0000000e+00 
3.4707544e+00 2.2336540e+00 0.0000000e+00 
3.4700506e+00 7.5794268e-01 0.0000000e+00 
8.6322361e-01 1.5000000e+00 0.0000000e+00 
2.0000000e+00 1.5000000e+00 0.0000000e+00 
2.9960666e+00 1.4974480e+00 0.0000000e+00 
4.2679491e+00 7.3205084e-01 0.0000000e+00 
4.2679491e+00 2.2679491e+00 0.0000000e+00 
7.2695929e-01 2.2730408e+00 0.0000000e+00 
7.2695929e-01 7.2695929e-01 0.0000000e+00 
4.1822505e+00 0.0000000e+00 2.5515697e+00 
4.2017918e+00 0.0000000e+00 4.4725966e+00 
4.1114569e+00 0.0000000e+00 6.5092020e+00 
8.6602539e-01 0.0000000e+00 3.5000000e+00 
8.4778279e-01 0.0000000e+00 5.4684029e+00 
8.9629614e-01 0.0000000e+00 7.5867257e+00 
2.5566745e+00 0.0000000e+00 8.1853306e-01 
2.4918270e+00 0.0000000e+00 9.1386929e+00 
8.4677207e-01 0.0000000e+00 1.5042374e+00 
4.0943027e+00 0.0000000e+00 8.4081745e+00 
8.6281651e-01 0.0000000e+00 2.5007062e+00 
1.7315160e+00 0.0000000e+00 3.0001178e+00 
1.7319617e+00 0.0000000e+00 4.0000196e+00 
2.5980761e+00 0.0000000e+00 3.5000000e+00 
2.5536871e+00 0.0000000e+00 4.4963923e+00 
2.5928419e+00 0.0000000e+00 2.4239938e+00 
1.5037409e+00 0.0000000e+00 9.1535149e+00 
1.8433737e+00 0.0000000e+00 8.1858873e+00 
3.0000000e+00 0.0000000e+00 8.2679491e+00 
2.5000000e+00 0.0000000e+00 7.4019237e+00 
3.5042722e+00 0.0000000e+00 7.4271150e+00 
3.0310018e+00 0.0000000e+00 6.5282087e+00 
2.0373929e+00 0.0000000e+00 6.5307913e+00 
3.4767809e+00 0.0000000e+00 5.8031492e+00 
2.5452602e+00 0.0000000e+00 5.5720768e+00 
1.6456656e+00 0.0000000e+00 1.9697139e+00 
8.6297011e-01 0.0000000e+00 4.4947371e+00 
1.0111579e+00 0.0000000e+00 6.5282545e+00 
3.4994321e+00 0.0000000e+00 8.4691072e-01 
4.1860156e+00 0.0000000e+00 3.5040276e+00 
1.7320508e+00 0.0000000e+00 5.0000000e+00 
4.0544066e+00 0.0000000e+00 1.5781221e+00 
1.5817389e+00 0.0000000e+00 9.3943578e-01 
8.3166349e-01 0.0000000e+00 8.5090933e+00 
3.4686174e+00 0.0000000e+00 9.1752682e+00 
3.0709300e+00 0.0000000e+00 1.5799091e+00 
3.3927374e+00 0.0000000e+00 3.0399952e+00 
3.3826034e+00 0.0000000e+00 3.9747651e+00 
4.3420062e+00 0.0000000e+00 7.4688983e+00 
3.4023225e+00 0.0000000e+00 4.9314723e+00 
1.6740381e+00 0.0000000e+00 7.3014426e+00 
4.2715640e+00 0.0000000e+00 5.4758859e+00 
1.6225953e+00 0.0000000e+00 5.8104177e+00 
4.2679491e+00 0.0000000e+00 9.2679491e+00 
7.3205084e-01 0.0000000e+00 7.3205084e-01 
4.2679491e+00 0.0000000e+00 7.3205084e-01 
7.3205084e-01 0.0000000e+00 9.2679491e+00 
3.4586334e+00 0.0000000e+00 2.2347178e+00 
2.2895701e+00 0.0000000e+00 1.5463171e+00 
5.0000000e+00 2.2345026e+00 1.5046000e+00 
[...]
POINT_DATA 460
FIELD FieldData 2
DISPLACEMENT 3 460  float
0.0000000e+00 0.0000000e+00 0.0000000e+00 
0.0000000e+00 0.0000000e+00 0.0000000e+00 
0.0000000e+00 2.2419280e-07 0.0000000e+00 
0.0000000e+00 -6.0970970e-06 0.0000000e+00 
0.0000000e+00 0.0000000e+00 0.0000000e+00 
0.0000000e+00 0.0000000e+00 0.0000000e+00 
0.0000000e+00 3.1819462e-07 0.0000000e+00 
0.0000000e+00 -3.7688292e-08 0.0000000e+00 
0.0000000e+00 2.5794759e-06 0.0000000e+00 
0.0000000e+00 2.5554625e-06 0.0000000e+00 
0.0000000e+00 2.4754725e-06 0.0000000e+00 
0.0000000e+00 2.3335199e-06 0.0000000e+00 
0.0000000e+00 2.1289532e-06 0.0000000e+00 
0.0000000e+00 1.8610561e-06 0.0000000e+00 
0.0000000e+00 1.5210435e-06 0.0000000e+00 
0.0000000e+00 1.0824492e-06 0.0000000e+00 
0.0000000e+00 4.9335631e-07 0.0000000e+00 
0.0000000e+00 -3.2223247e-07 0.0000000e+00 
0.0000000e+00 -1.4833132e-06 0.0000000e+00 
-8.6359660e-07 -3.2350695e-06 2.6707796e-06 
-2.3707266e-06 -7.3156921e-06 6.9549064e-06 
-2.7772749e-06 -1.7312484e-05 9.5180467e-06 
-3.8404969e-06 -4.0276474e-05 1.5457659e-05 
-4.1676062e-06 -8.4706917e-05 1.3433867e-05 
-4.5149595e-06 -1.5427249e-04 8.7831795e-06 
-1.3220323e-05 -2.2644002e-04 1.3214069e-05 
-2.1948028e-06 -2.3851002e-04 1.1995156e-06 
-1.4643108e-05 -1.7950516e-04 -1.8081295e-05 
-8.6328837e-06 -1.0395575e-04 -1.5312178e-05 
-3.3105869e-06 -5.0734947e-05 -1.5197048e-05 
-3.9106553e-06 -2.1455982e-05 -9.7752772e-06 
-2.0142447e-06 -7.8586036e-06 -6.8402132e-06 
-1.5290412e-06 -2.4933497e-06 -4.7779140e-06 
-7.7553761e-07 -7.0543211e-07 -3.0075591e-06 
-5.0413666e-07 -2.0244804e-07 -1.9926370e-06 
-2.3867949e-07 -7.1793870e-08 -9.7749000e-07 
-1.3537563e-07 -1.0420744e-08 -5.5707176e-07 
-7.9438465e-08 3.9453848e-08 -2.6683620e-07 
0.0000000e+00 5.0695760e-08 0.0000000e+00 
0.0000000e+00 4.3457888e-08 0.0000000e+00 
0.0000000e+00 3.1150368e-08 0.0000000e+00 
0.0000000e+00 2.0503606e-08 0.0000000e+00 
0.0000000e+00 1.3403071e-08 0.0000000e+00 
0.0000000e+00 9.3550749e-09 0.0000000e+00 
0.0000000e+00 7.2417561e-09 0.0000000e+00 
0.0000000e+00 6.1627969e-09 0.0000000e+00 
0.0000000e+00 5.6379839e-09 0.0000000e+00 
0.0000000e+00 5.4822431e-09 0.0000000e+00 
0.0000000e+00 2.5815773e-06 0.0000000e+00 
0.0000000e+00 2.5574982e-06 0.0000000e+00 
0.0000000e+00 2.4773051e-06 0.0000000e+00 
0.0000000e+00 2.3352127e-06 0.0000000e+00 
0.0000000e+00 2.1306455e-06 0.0000000e+00 
0.0000000e+00 1.8628056e-06 0.0000000e+00 
0.0000000e+00 1.5227762e-06 0.0000000e+00 
0.0000000e+00 1.0839026e-06 0.0000000e+00 
0.0000000e+00 4.9393287e-07 0.0000000e+00 
0.0000000e+00 -3.2358327e-07 0.0000000e+00 
0.0000000e+00 -1.4459850e-06 0.0000000e+00 
0.0000000e+00 -3.1858231e-06 0.0000000e+00 
0.0000000e+00 -7.2005969e-06 0.0000000e+00 
0.0000000e+00 -1.7207654e-05 0.0000000e+00 
0.0000000e+00 -4.0267609e-05 0.0000000e+00 
0.0000000e+00 -8.5227315e-05 0.0000000e+00 
0.0000000e+00 -1.5593316e-04 0.0000000e+00 
0.0000000e+00 -2.2924173e-04 0.0000000e+00 
0.0000000e+00 -2.4358321e-04 0.0000000e+00 
0.0000000e+00 -1.8171746e-04 0.0000000e+00 
0.0000000e+00 -1.0531162e-04 0.0000000e+00 
0.0000000e+00 -5.1091258e-05 0.0000000e+00 
0.0000000e+00 -2.1401604e-05 0.0000000e+00 
0.0000000e+00 -7.7506002e-06 0.0000000e+00 
0.0000000e+00 -2.4067165e-06 0.0000000e+00 
0.0000000e+00 -6.5496505e-07 0.0000000e+00 
0.0000000e+00 -1.8080172e-07 0.0000000e+00 
0.0000000e+00 -6.3104054e-08 0.0000000e+00 
0.0000000e+00 -7.2368413e-09 0.0000000e+00 
0.0000000e+00 3.7497699e-08 0.0000000e+00 
0.0000000e+00 5.0790227e-08 0.0000000e+00 
0.0000000e+00 4.3725795e-08 0.0000000e+00 
0.0000000e+00 3.1306218e-08 0.0000000e+00 
0.0000000e+00 2.0567732e-08 0.0000000e+00 
0.0000000e+00 1.3409654e-08 0.0000000e+00 
0.0000000e+00 9.3356496e-09 0.0000000e+00 
0.0000000e+00 7.2180764e-09 0.0000000e+00 
0.0000000e+00 6.1456227e-09 0.0000000e+00 
0.0000000e+00 5.6289142e-09 0.0000000e+00 
0.0000000e+00 5.4767066e-09 0.0000000e+00 
0.0000000e+00 0.0000000e+00 0.0000000e+00 
0.0000000e+00 0.0000000e+00 0.0000000e+00 
0.0000000e+00 0.0000000e+00 0.0000000e+00 
0.0000000e+00 0.0000000e+00 0.0000000e+00 
0.0000000e+00 0.0000000e+00 0.0000000e+00 
0.0000000e+00 0.0000000e+00 0.0000000e+00 
0.0000000e+00 0.0000000e+00 0.0000000e+00 
0.0000000e+00 0.0000000e+00 0.0000000e+00 
0.0000000e+00 0.0000000e+00 0.0000000e+00 
0.0000000e+00 0.0000000e+00 0.0000000e+00 
0.0000000e+00 0.0000000e+00 0.0000000e+00 
0.0000000e+00 0.0000000e+00 0.0000000e+00 
0.0000000e+00 0.0000000e+00 0.0000000e+00 
0.0000000e+00 0.0000000e+00 0.0000000e+00 
0.0000000e+00 0.0000000e+00 0.0000000e+00 
0.0000000e+00 0.0000000e+00 0.0000000e+00 
0.0000000e+00 0.0000000e+00 0.0000000e+00 
0.0000000e+00 0.0000000e+00 0.0000000e+00 
0.0000000e+00 0.0000000e+00 0.0000000e+00 
0.0000000e+00 0.0000000e+00 0.0000000e+00 
0.0000000e+00 0.0000000e+00 0.0000000e+00 
0.0000000e+00 0.0000000e+00 0.0000000e+00 
0.0000000e+00 0.0000000e+00 0.0000000e+00 
0.0000000e+00 3.7103050e-09 0.0000000e+00 
0.0000000e+00 1.6410245e-07 0.0000000e+00 
0.0000000e+00 -5.5273081e-06 0.0000000e+00 
0.0000000e+00 -3.3648612e-06 0.0000000e+00 
0.0000000e+00 0.0000000e+00 0.0000000e+00 
0.0000000e+00 0.0000000e+00 0.0000000e+00 
0.0000000e+00 0.0000000e+00 0.0000000e+00 
0.0000000e+00 0.0000000e+00 0.0000000e+00 
0.0000000e+00 0.0000000e+00 0.0000000e+00 
0.0000000e+00 0.0000000e+00 0.0000000e+00 
0.0000000e+00 0.0000000e+00 0.0000000e+00 
0.0000000e+00 0.0000000e+00 0.0000000e+00 
0.0000000e+00 0.0000000e+00 0.0000000e+00 
0.0000000e+00 0.0000000e+00 0.0000000e+00 
0.0000000e+00 0.0000000e+00 0.0000000e+00 
0.0000000e+00 0.0000000e+00 0.0000000e+00 
0.0000000e+00 0.0000000e+00 0.0000000e+00 
0.0000000e+00 0.0000000e+00 0.0000000e+00 
0.0000000e+00 0.0000000e+00 0.0000000e+00 
0.0000000e+00 0.0000000e+00 0.0000000e+00 
0.0000000e+00 0.0000000e+00 0.0000000e+00 
0.0000000e+00 0.0000000e+00 0.0000000e+00 
0.0000000e+00 0.0000000e+00 0.0000000e+00 
0.0000000e+00 0.0000000e+00 0.0000000e+00 
0.0000000e+00 0.0000000e+00 0.0000000e+00 
0.0000000e+00 0.0000000e+00 0.0000000e+00 
0.0000000e+00 -1.2969882e-07 0.0000000e+00 
0.0000000e+00 -2.7759387e-07 0.0000000e+00 
0.0000000e+00 -1.5696220e-06 0.0000000e+00 
0.0000000e+00 -1.1077765e-06 0.0000000e+00 
0.0000000e+00 -1.3981573e-06 0.0000000e+00 
0.0000000e+00 3.9516303e-07 0.0000000e+00 
0.0000000e+00 4.4183338e-08 0.0000000e+00 
0.0000000e+00 3.7653660e-07 0.0000000e+00 
0.0000000e+00 3.0229299e-07 0.0000000e+00 
0.0000000e+00 1.2213025e-07 0.0000000e+00 
0.0000000e+00 2.6818870e-07 0.0000000e+00 
0.0000000e+00 -1.1374929e-05 0.0000000e+00 
0.0000000e+00 -3.6471767e-05 0.0000000e+00 
0.0000000e+00 -8.2959094e-05 0.0000000e+00 
0.0000000e+00 -9.8786099e-05 0.0000000e+00 
0.0000000e+00 -5.9386217e-05 0.0000000e+00 
0.0000000e+00 -2.1109312e-05 0.0000000e+00 
0.0000000e+00 -6.3619518e-06 0.0000000e+00 
0.0000000e+00 -1.4355104e-06 0.0000000e+00 
0.0000000e+00 -2.8660767e-07 0.0000000e+00 
0.0000000e+00 -4.7573202e-08 0.0000000e+00 
0.0000000e+00 -5.3283291e-08 0.0000000e+00 
0.0000000e+00 2.2632253e-08 0.0000000e+00 
0.0000000e+00 -1.6707636e-06 0.0000000e+00 
0.0000000e+00 -3.7377861e-06 0.0000000e+00 
0.0000000e+00 2.9348567e-07 0.0000000e+00 
0.0000000e+00 2.3303846e-07 0.0000000e+00 
0.0000000e+00 2.0868622e-07 0.0000000e+00 
0.0000000e+00 1.2847225e-08 0.0000000e+00 
0.0000000e+00 -2.0136383e-06 0.0000000e+00 
0.0000000e+00 -1.1792113e-06 0.0000000e+00 
0.0000000e+00 -2.4956998e-06 0.0000000e+00 
0.0000000e+00 -9.2687594e-07 0.0000000e+00 
0.0000000e+00 -3.1962927e-08 0.0000000e+00 
0.0000000e+00 -6.0214444e-07 0.0000000e+00 
0.0000000e+00 -3.2237967e-06 0.0000000e+00 
0.0000000e+00 -1.8355944e-06 0.0000000e+00 
0.0000000e+00 -6.7808736e-07 0.0000000e+00 
0.0000000e+00 -4.1946397e-08 0.0000000e+00 
0.0000000e+00 2.1494202e-07 0.0000000e+00 
0.0000000e+00 -3.6868225e-06 0.0000000e+00 
0.0000000e+00 -1.7884571e-06 0.0000000e+00 
0.0000000e+00 0.0000000e+00 0.0000000e+00 
0.0000000e+00 0.0000000e+00 0.0000000e+00 
0.0000000e+00 0.0000000e+00 0.0000000e+00 
0.0000000e+00 0.0000000e+00 0.0000000e+00 
0.0000000e+00 0.0000000e+00 0.0000000e+00 
0.0000000e+00 0.0000000e+00 0.0000000e+00 
0.0000000e+00 0.0000000e+00 0.0000000e+00 
0.0000000e+00 0.0000000e+00 0.0000000e+00 
0.0000000e+00 0.0000000e+00 0.0000000e+00 
0.0000000e+00 0.0000000e+00 0.0000000e+00 
0.0000000e+00 0.0000000e+00 0.0000000e+00 
0.0000000e+00 0.0000000e+00 0.0000000e+00 
0.0000000e+00 0.0000000e+00 0.0000000e+00 
0.0000000e+00 0.0000000e+00 0.0000000e+00 
0.0000000e+00 0.0000000e+00 0.0000000e+00 
0.0000000e+00 0.0000000e+00 0.0000000e+00 
0.0000000e+00 0.0000000e+00 0.0000000e+00 
0.0000000e+00 0.0000000e+00 0.0000000e+00 
0.0000000e+00 0.0000000e+00 0.0000000e+00 
0.0000000e+00 0.0000000e+00 0.0000000e+00 
0.0000000e+00 0.0000000e+00 0.0000000e+00 
0.0000000e+00 0.0000000e+00 0.0000000e+00 
0.0000000e+00 0.0000000e+00 0.0000000e+00 
0.0000000e+00 0.0000000e+00 0.0000000e+00 
0.0000000e+00 0.0000000e+00 0.0000000e+00 
0.0000000e+00 0.0000000e+00 0.0000000e+00 
0.0000000e+00 0.0000000e+00 0.0000000e+00 
0.0000000e+00 0.0000000e+00 0.0000000e+00 
0.0000000e+00 0.0000000e+00 0.0000000e+00 
0.0000000e+00 0.0000000e+00 0.0000000e+00 
0.0000000e+00 0.0000000e+00 0.0000000e+00 
0.0000000e+00 0.0000000e+00 0.0000000e+00 
0.0000000e+00 0.0000000e+00 0.0000000e+00 
0.0000000e+00 0.0000000e+00 0.0000000e+00 
0.0000000e+00 0.0000000e+00 0.0000000e+00 
0.0000000e+00 0.0000000e+00 0.0000000e+00 
0.0000000e+00 0.0000000e+00 0.0000000e+00 
0.0000000e+00 0.0000000e+00 0.0000000e+00 
0.0000000e+00 0.0000000e+00 0.0000000e+00 
0.0000000e+00 0.0000000e+00 0.0000000e+00 
0.0000000e+00 0.0000000e+00 0.0000000e+00 
0.0000000e+00 0.0000000e+00 0.0000000e+00 
0.0000000e+00 0.0000000e+00 0.0000000e+00 
0.0000000e+00 0.0000000e+00 0.0000000e+00 
0.0000000e+00 0.0000000e+00 0.0000000e+00 
0.0000000e+00 0.0000000e+00 0.0000000e+00 
0.0000000e+00 0.0000000e+00 0.0000000e+00 
0.0000000e+00 0.0000000e+00 0.0000000e+00 
0.0000000e+00 0.0000000e+00 0.0000000e+00 
0.0000000e+00 -4.4635581e-08 0.0000000e+00 
0.0000000e+00 1.9521079e-07 0.0000000e+00 
0.0000000e+00 -6.9007712e-07 0.0000000e+00 
0.0000000e+00 1.2129875e-07 0.0000000e+00 
0.0000000e+00 3.7089251e-07 0.0000000e+00 
0.0000000e+00 -7.4210146e-07 0.0000000e+00 
0.0000000e+00 -7.7739747e-07 0.0000000e+00 
0.0000000e+00 -2.6645961e-07 0.0000000e+00 
0.0000000e+00 -9.5478345e-07 0.0000000e+00 
0.0000000e+00 -5.3831781e-07 0.0000000e+00 
0.0000000e+00 -5.6944378e-07 0.0000000e+00 
0.0000000e+00 -8.4925807e-07 0.0000000e+00 
0.0000000e+00 2.1076968e-07 0.0000000e+00 
0.0000000e+00 -5.7851315e-09 0.0000000e+00 
0.0000000e+00 -5.9793342e-07 0.0000000e+00 
0.0000000e+00 7.4429138e-08 0.0000000e+00 
0.0000000e+00 3.1663890e-07 0.0000000e+00 
0.0000000e+00 1.6674834e-08 0.0000000e+00 
0.0000000e+00 -5.3755736e-07 0.0000000e+00 
0.0000000e+00 7.1342043e-08 0.0000000e+00 
0.0000000e+00 -6.2485930e-07 0.0000000e+00 
0.0000000e+00 -1.2323923e-07 0.0000000e+00 
0.0000000e+00 -7.7314371e-07 0.0000000e+00 
0.0000000e+00 -1.0044464e-06 0.0000000e+00 
0.0000000e+00 2.3724760e-07 0.0000000e+00 
0.0000000e+00 3.1300644e-07 0.0000000e+00 
0.0000000e+00 7.2490934e-08 0.0000000e+00 
0.0000000e+00 2.5346165e-07 0.0000000e+00 
0.0000000e+00 -1.4110714e-07 0.0000000e+00 
0.0000000e+00 -2.3880028e-07 0.0000000e+00 
0.0000000e+00 -8.6090186e-06 0.0000000e+00 
0.0000000e+00 -1.8548197e-05 0.0000000e+00 
0.0000000e+00 -2.2307919e-05 0.0000000e+00 
0.0000000e+00 -1.9109198e-06 0.0000000e+00 
0.0000000e+00 -8.0889753e-05 0.0000000e+00 
0.0000000e+00 -3.2219650e-05 0.0000000e+00 
0.0000000e+00 -3.1336601e-06 0.0000000e+00 
0.0000000e+00 -2.7158165e-05 0.0000000e+00 
0.0000000e+00 -4.9550548e-05 0.0000000e+00 
0.0000000e+00 -7.0432892e-05 0.0000000e+00 
0.0000000e+00 -1.1788221e-05 0.0000000e+00 
0.0000000e+00 -1.4290187e-05 0.0000000e+00 
0.0000000e+00 -7.6395077e-07 0.0000000e+00 
0.0000000e+00 -2.0246734e-05 0.0000000e+00 
0.0000000e+00 -8.8757306e-06 0.0000000e+00 
0.0000000e+00 -5.0670366e-07 0.0000000e+00 
0.0000000e+00 -3.5553781e-05 0.0000000e+00 
0.0000000e+00 -4.2275396e-06 0.0000000e+00 
0.0000000e+00 -5.3045133e-05 0.0000000e+00 
0.0000000e+00 -4.6380890e-05 0.0000000e+00 
0.0000000e+00 -4.8781671e-06 0.0000000e+00 
0.0000000e+00 -1.2280821e-05 0.0000000e+00 
0.0000000e+00 -1.2569601e-06 0.0000000e+00 
0.0000000e+00 -2.4181472e-05 0.0000000e+00 
0.0000000e+00 -1.5715972e-07 0.0000000e+00 
0.0000000e+00 -8.5074644e-06 0.0000000e+00 
0.0000000e+00 -4.4997091e-06 0.0000000e+00 
0.0000000e+00 -1.6714331e-07 0.0000000e+00 
0.0000000e+00 -1.5682136e-08 0.0000000e+00 
0.0000000e+00 2.0814258e-07 0.0000000e+00 
0.0000000e+00 3.0635763e-07 0.0000000e+00 
0.0000000e+00 2.4319968e-07 0.0000000e+00 
0.0000000e+00 5.7047580e-09 0.0000000e+00 
0.0000000e+00 3.4638197e-07 0.0000000e+00 
0.0000000e+00 8.0883865e-08 0.0000000e+00 
0.0000000e+00 7.0666637e-08 0.0000000e+00 
0.0000000e+00 1.6374130e-07 0.0000000e+00 
0.0000000e+00 2.3283096e-07 0.0000000e+00 
0.0000000e+00 7.3046181e-08 0.0000000e+00 
0.0000000e+00 3.4039752e-07 0.0000000e+00 
0.0000000e+00 8.2234209e-08 0.0000000e+00 
0.0000000e+00 -2.2219576e-08 0.0000000e+00 
-1.3074376e-05 -8.2214763e-05 -1.0175378e-05 
-4.0048999e-06 -1.5544516e-05 -8.3643972e-06 
-7.2837690e-07 -8.7194439e-07 -2.4754138e-06 
-9.6469403e-06 -4.1951072e-05 1.3195130e-05 
-6.8741183e-06 -1.0492520e-04 6.8924833e-06 
-2.6122480e-06 -9.4423075e-07 -9.4092712e-07 
-2.0696114e-06 -2.1489345e-06 4.1037038e-07 
-7.2782098e-07 4.6695025e-08 -6.4889622e-07 
-3.3988945e-06 -1.1163001e-05 6.9786056e-06 
-2.0967678e-07 -6.6187290e-08 -8.1487252e-07 
-2.0808604e-06 -1.6901901e-06 1.7288074e-06 
-1.7189394e-07 3.0410095e-07 -2.6139676e-07 
-1.0271772e-06 -3.1329404e-07 -8.9777586e-07 
-1.7955338e-06 -8.5263872e-07 -2.1823425e-06 
-7.9888866e-07 -4.4737945e-07 -1.3072128e-06 
-1.3034174e-06 -1.3985200e-06 -1.5972649e-06 
-2.6290566e-06 -4.2258662e-06 -2.7968886e-06 
-4.6701129e-07 -2.4864380e-07 -9.0107113e-07 
-1.8145350e-06 -3.0078788e-06 -4.1149137e-06 
-3.5233184e-06 -3.2803900e-06 -2.9364151e-06 
-4.5183551e-06 -5.9308404e-06 -2.4689468e-06 
-6.0686916e-06 -1.0998700e-05 -4.3527066e-06 
-9.8917280e-06 -2.0236366e-05 -5.2677065e-06 
-6.8217328e-06 -1.0148005e-05 -1.4691781e-06 
-1.1218509e-05 -2.5813973e-05 -1.0810962e-06 
-5.5554701e-06 -9.2086693e-06 1.6414917e-08 
-1.0232923e-05 -2.6577198e-05 3.3946928e-06 
-6.9180219e-06 -1.3501634e-05 2.6663292e-06 
-8.8935594e-06 -2.1391037e-05 4.4495191e-06 
-6.0677044e-06 -8.9993182e-06 3.3235042e-06 
-6.3153620e-06 -1.2464480e-05 5.3964009e-06 
-8.8878851e-06 -2.4704535e-05 -9.0139893e-06 
-6.2656395e-06 -1.4450487e-05 -7.0000342e-06 
-1.6814822e-05 -5.4258522e-05 9.8194494e-07 
-3.0265242e-06 -3.0307008e-06 3.6749623e-07 
-2.2181798e-07 2.3784405e-07 -4.1854884e-07 
-1.4300310e-05 -4.9555430e-05 -5.1882739e-06 
-2.7900219e-06 -2.6464431e-06 -1.0357004e-06 
-2.6161283e-06 -3.7776485e-06 2.7006497e-06 
-2.4124179e-07 3.1775039e-07 -2.7285131e-07 
-7.0743147e-07 -1.3364344e-06 -2.2170273e-06 
-5.8537813e-07 -4.3941128e-07 -1.5516423e-06 
-6.3532470e-06 -3.0131650e-05 -9.2805622e-06 
-1.5015200e-06 -8.3583274e-07 8.4072542e-07 
-9.6648209e-06 -6.4983149e-05 1.1055138e-05 
-8.4437561e-06 -5.1372976e-05 5.0406902e-06 
-1.2697658e-05 -1.2983181e-04 6.5279255e-06 
-1.3272260e-05 -1.1682745e-04 -7.3840361e-06 
-2.2948429e-06 -6.4119909e-06 -5.5752585e-06 
-1.0960380e-06 -2.6137304e-06 -3.1911211e-06 
-1.8391609e-06 -4.5900633e-06 4.1691733e-06 
-5.6734834e-06 -2.3087798e-05 9.7288112e-06 
-1.4676155e-07 1.6758027e-07 -4.0319739e-07 
-3.7948735e-06 -4.7993972e-06 3.4468073e-06 
-1.2037179e-05 -3.2618194e-05 1.0519209e-05 
-4.1190924e-07 -4.5842083e-07 -1.5234730e-06 
-3.0161223e-06 -7.3102992e-06 -4.8746197e-06 
-5.3045314e-06 -1.2349274e-05 7.5412954e-06 
-8.9148689e-06 -5.5491346e-05 -1.3050710e-05 
-3.7030986e-07 1.5582617e-07 -6.9560429e-07 
-9.8071148e-08 3.4829941e-07 -1.4530076e-07 
-8.7662738e-07 -1.7991064e-07 6.0879836e-07 
-4.8886100e-06 -6.0198299e-06 -2.4054924e-07 
-7.8099156e-06 -2.2420074e-05 1.0271298e-05 
-2.7479763e-07 7.6387145e-08 -6.5380095e-07 
-3.8412986e-06 -7.2853804e-06 -3.8099563e-06 
-2.9448918e-06 -3.1320894e-06 1.5923083e-06 
-4.0893442e-06 -5.6000868e-06 9.3896517e-07 
-2.5682150e-06 -6.2180025e-06 4.3973146e-06 
-1.4420656e-05 -4.3199809e-05 -9.7413140e-06 
-1.5785368e-07 2.2948139e-07 -2.9730629e-07 
-4.3225227e-06 -5.1792878e-05 9.0496887e-06 
-1.7487274e-06 -3.0113668e-05 9.7633447e-06 
-5.2939240e-06 -8.0534308e-05 1.0139163e-05 
-8.0449418e-06 -1.1141256e-04 5.9888898e-06 
-1.4410572e-06 -1.5513557e-05 6.8798468e-06 
-1.3366526e-06 -1.2053968e-04 5.3426987e-07 
-5.2356472e-06 -1.1863123e-04 -4.4038029e-06 
-2.0514642e-06 -8.5290703e-05 -4.8496318e-06 
-3.6783349e-06 -5.8503862e-05 -8.8521792e-06 
-2.3831367e-06 -3.1859134e-05 -8.1058488e-06 
-1.3958130e-06 -1.9074840e-05 -6.3679431e-06 
-8.0737595e-07 -8.5667889e-06 -5.4458492e-06 
-2.8118345e-07 -3.4797442e-06 -3.3146600e-06 
-2.7409379e-07 -1.4784735e-06 -2.0325160e-06 
-1.7436000e-07 -8.1382530e-07 -1.2860303e-06 
-7.8554095e-08 -3.8754496e-07 -7.2530128e-07 
-6.2211484e-08 -7.0533986e-08 -3.2729676e-07 
-6.4060350e-07 -7.2694738e-06 3.5174310e-06 
4.5484126e-06 -1.9509251e-05 -6.9732419e-06 
1.0261592e-05 -3.7452599e-05 -1.6710349e-06 
5.4406446e-06 -1.9447818e-05 6.1963333e-06 
9.6039946e-07 -3.0859280e-06 2.6408643e-06 
9.0980208e-08 -2.3564233e-07 7.0125435e-07 
4.5973238e-06 -6.8041863e-06 -1.9911215e-06 
4.8253105e-06 -6.2266740e-06 6.1673694e-07 
2.0191533e-06 -3.5902422e-06 2.3516343e-06 
7.7351160e-06 -5.9138718e-05 6.4412443e-06 
2.5259769e-06 -6.1243569e-05 -6.4759961e-06 
5.2759788e-07 -1.1544981e-05 -2.7954507e-06 
5.9260418e-07 -4.3884296e-07 1.0343916e-06 
1.8573630e-06 -4.7460780e-06 -1.9827178e-06 
1.3798301e-06 -1.3391606e-05 4.5500151e-06 
-3.6235388e-08 -1.1675696e-06 4.7179455e-07 
-1.2405347e-06 -1.0423725e-04 -5.1837119e-06 
6.6910893e-06 -2.3542781e-05 1.8925416e-06 
6.3185353e-06 -2.1706586e-05 -3.3875995e-06 
2.0056300e-06 -4.5794244e-05 6.3466737e-06 
7.7133736e-06 -1.8655566e-05 3.1915804e-06 
1.3570622e-06 -3.1202584e-05 -2.3616933e-06 
2.2928821e-06 -2.2085549e-06 1.1967563e-06 
-3.6786119e-08 -9.7328019e-08 1.0514823e-08 
1.7947704e-06 -1.2527228e-06 -1.2389933e-06 
1.4304658e-07 2.4466632e-07 2.2013887e-07 
6.2361355e-06 -2.4451781e-05 -4.8906886e-06 
5.6386757e-06 -8.0890541e-06 3.3772560e-06 
5.0233512e-06 -7.4943055e-06 -3.6713952e-06 
7.2101311e-06 -1.2038970e-05 -1.3589922e-06 
3.8839721e-06 -1.2775565e-05 -1.1433298e-06 
4.0683619e-07 -2.5352594e-07 3.6748733e-07 
5.5040124e-07 -4.1571975e-06 1.0551327e-06 
-7.8875452e-08 -4.0179089e-06 4.1070561e-07 
2.1257549e-06 -1.2573719e-05 1.5379288e-06 
1.5844357e-07 1.4591775e-08 4.7491150e-07 
2.1271103e-07 -8.2163172e-07 6.8299386e-07 
2.1546084e-06 -4.8812130e-06 -3.1225720e-06 
2.1509552e-06 -2.8210970e-06 -3.4124920e-07 
9.2759797e-07 -7.7719096e-06 -3.6763522e-06 
1.5401337e-06 -7.3123770e-06 4.0912778e-06 
5.7249795e-06 -3.6671649e-05 2.3831849e-06 
-5.2153073e-08 1.7718263e-07 8.1434223e-08 
1.1530992e-07 -1.0726172e-06 1.4566278e-06 
8.7321450e-06 -6.1134284e-05 -2.2175711e-06 
9.4506993e-07 -9.9563249e-06 -2.0969574e-06 
1.6541271e-06 -6.9169450e-06 9.2143847e-07 
2.5275699e-06 -2.0388068e-06 -5.3367540e-07 
3.9324166e-07 -7.4304677e-07 1.3258006e-06 
1.4704692e-06 -7.8256107e-06 -1.0437959e-06 
3.4372674e-06 -1.7763885e-05 4.9378637e-06 
9.9528017e-07 -1.8277838e-06 -5.0495805e-07 
4.4296658e-07 -1.5132662e-07 5.8471812e-07 
-1.1792829e-07 -5.2691277e-08 -2.3294105e-07 
4.8344589e-07 -1.0850727e-05 5.3977499e-07 
1.1736132e-06 -2.0885194e-05 5.1798916e-06 
2.8481752e-06 -4.7942372e-06 3.5481635e-06 
2.4779178e-08 -9.2399759e-08 4.1672516e-07 
4.8786245e-07 -8.8358604e-07 -4.2991971e-07 
3.8508702e-07 -2.7001222e-06 1.2190372e-07 
2.3392831e-06 -1.9058342e-06 2.5561408e-07 
5.8562637e-07 -1.6719388e-06 2.8947883e-07 
1.0608671e-06 -5.9362162e-07 9.3247507e-07 
8.2328188e-07 -2.1956299e-05 -1.2169789e-06 