# vtk DataFile Version 4.0
vtk output
ASCII
DATASET UNSTRUCTURED_GRID
POINTS 460 float
0.0000000e+00 0.0000000e+00 0.0000000e+00 
5.0000000e+00 0.0000000e+00 0.0000000e+00 
5.0000000e+00 3.0000000e+00 0.0000000e+00 
0.0000000e+00 3.0000000e+00 0.0000000e+00 
0.0000000e+00 0.0000000e+00 1.0000000e+01 
5.0000000e+00 0.0000000e+00 1.0000000e+01 
5.0000000e+00 3.0000000e+00 1.0000000e+01 
0.0000000e+00 3.0000000e+00 1.0000000e+01 
1.0000000e+00 3.0000000e+00 -5.0000000e+00 
1.0000000e+00 3.0000000e+00 -4.5000000e+00 
1.0000000e+00 3.0000000e+00 -4.0000000e+00 
1.0000000e+00 3.0000000e+00 -3.5000000e+00 
1.0000000e+00 3.0000000e+00 -3.0000000e+00 
1.0000000e+00 3.0000000e+00 -2.5000000e+00 
1.0000000e+00 3.0000000e+00 -2.0000000e+00 
1.0000000e+00 3.0000000e+00 -1.5000000e+00 
1.0000000e+00 3.0000000e+00 -1.0000000e+00 
1.0000000e+00 3.0000000e+00 -5.0000000e-01 
1.0000000e+00 3.0000000e+00 0.0000000e+00 
1.0000000e+00 3.0000000e+00 5.0000000e-01 
1.0000000e+00 3.0000000e+00 1.0000000e+00 
1.0000000e+00 3.0000000e+00 1.5000000e+00 
1.0000000e+00 3.0000000e+00 2.0000000e+00 
1.0000000e+00 3.0000000e+00 2.5000000e+00 
1.0000000e+00 3.0000000e+00 3.0000000e+00 
1.0000000e+00 3.0000000e+00 3.5000000e+00 
1.0000000e+00 3.0000000e+00 4.0000000e+00 
1.0000000e+00 3.0000000e+00 4.5000000e+00 
1.0000000e+00 3.0000000e+00 5.0000000e+00 
1.0000000e+00 3.0000000e+00 5.5000000e+00 
1.0000000e+00 3.0000000e+00 6.0000000e+00 
1.0000000e+00 3.0000000e+00 6.5000000e+00 
1.0000000e+00 3.0000000e+00 7.0000000e+00 
1.0000000e+00 3.0000000e+00 7.5000000e+00 
1.0000000e+00 3.0000000e+00 8.0000000e+00 
1.0000000e+00 3.0000000e+00 8.5000000e+00 
1.0000000e+00 3.0000000e+00 9.0000000e+00 
1.0000000e+00 3.0000000e+00 9.5000000e+00 
1.0000000e+00 3.0000000e+00 1.0000000e+01 
1.0000000e+00 3.0000000e+00 1.0500000e+01 
1.0000000e+00 3.0000000e+00 1.1000000e+01 
1.0000000e+00 3.0000000e+00 1.1500000e+01 
1.0000000e+00 3.0000000e+00 1.2000000e+01 
1.0000000e+00 3.0000000e+00 1.2500000e+01 
1.0000000e+00 3.0000000e+00 1.3000000e+01 
1.0000000e+00 3.0000000e+00 1.3500000e+01 
1.0000000e+00 3.0000000e+00 1.4000000e+01 
1.0000000e+00 3.0000000e+00 1.4500000e+01 
1.0000000e+00 3.0250001e+00 -5.0000000e+00 
1.0000000e+00 3.0250001e+00 -4.5000000e+00 
1.0000000e+00 3.0250001e+00 -4.0000000e+00 
1.0000000e+00 3.0250001e+00 -3.5000000e+00 
1.0000000e+00 3.0250001e+00 -3.0000000e+00 
1.0000000e+00 3.0250001e+00 -2.5000000e+00 
1.0000000e+00 3.0250001e+00 -2.0000000e+00 
1.0000000e+00 3.0250001e+00 -1.5000000e+00 
1.0000000e+00 3.0250001e+00 -1.0000000e+00 
1.0000000e+00 3.0250001e+00 -5.0000000e-01 
1.0000000e+00 3.0250001e+00 0.0000000e+00 
1.0000000e+00 3.0250001e+00 5.0000000e-01 
1.0000000e+00 3.0250001e+00 1.0000000e+00 
1.0000000e+00 3.0250001e+00 1.5000000e+00 
1.0000000e+00 3.0250001e+00 2.0000000e+00 
1.0000000e+00 3.0250001e+00 2.5000000e+00 
1.0000000e+00 3.0250001e+00 3.0000000e+00 
1.0000000e+00 3.0250001e+00 3.5000000e+00 
1.0000000e+00 3.0250001e+00 4.0000000e+00 
1.0000000e+00 3.0250001e+00 4.5000000e+00 
1.0000000e+00 3.0250001e+00 5.0000000e+00 
1.0000000e+00 3.0250001e+00 5.5000000e+00 
1.0000000e+00 3.0250001e+00 6.0000000e+00 
1.0000000e+00 3.0250001e+00 6.5000000e+00 
1.0000000e+00 3.0250001e+00 7.0000000e+00 
1.0000000e+00 3.0250001e+00 7.5000000e+00 
1.0000000e+00 3.0250001e+00 8.0000000e+00 
1.0000000e+00 3.0250001e+00 8.5000000e+00 
1.0000000e+00 3.0250001e+00 9.0000000e+00 
1.0000000e+00 3.0250001e+00 9.5000000e+00 
1.0000000e+00 3.0250001e+00 1.0000000e+01 
1.0000000e+00 3.0250001e+00 1.0500000e+01 
1.0000000e+00 3.0250001e+00 1.1000000e+01 
1.0000000e+00 3.0250001e+00 1.1500000e+01 
1.0000000e+00 3.0250001e+00 1.2000000e+01 
1.0000000e+00 3.0250001e+00 1.2500000e+01 
1.0000000e+00 3.0250001e+00 1.3000000e+01 
1.0000000e+00 3.0250001e+00 1.3500000e+01 
1.0000000e+00 3.0250001e+00 1.4000000e+01 
1.0000000e+00 3.0250001e+00 1.4500000e+01 
1.0000000e+00 -2.0000000e+00 -5.0000000e+00 
1.0000000e+00 -2.0000000e+00 -4.5000000e+00 
1.0000000e+00 -2.0000000e+00 -4.0000000e+00 
1.0000000e+00 -2.0000000e+00 -3.5000000e+00 
1.0000000e+00 -2.0000000e+00 -3.0000000e+00 
1.0000000e+00 -2.0000000e+00 -2.5000000e+00 
1.0000000e+00 -2.0000000e+00 -2.0000000e+00 
1.0000000e+00 -2.0000000e+00 -1.5000000e+00 
1.0000000e+00 -2.0000000e+00 -1.0000000e+00 
1.0000000e+00 -2.0000000e+00 -5.0000000e-01 
1.0000000e+00 -2.0000000e+00 1.0500000e+01 
1.0000000e+00 -2.0000000e+00 1.1000000e+01 
1.0000000e+00 -2.0000000e+00 1.1500000e+01 
1.0000000e+00 -2.0000000e+00 1.2000000e+01 
1.0000000e+00 -2.0000000e+00 1.2500000e+01 
1.0000000e+00 -2.0000000e+00 1.3000000e+01 
1.0000000e+00 -2.0000000e+00 1.3500000e+01 
1.0000000e+00 -2.0000000e+00 1.4000000e+01 
1.0000000e+00 -2.0000000e+00 1.4500000e+01 
1.0000000e+00 0.0000000e+00 0.0000000e+00 
2.0000000e+00 0.0000000e+00 0.0000000e+00 
3.0000000e+00 0.0000000e+00 0.0000000e+00 
4.0000000e+00 0.0000000e+00 0.0000000e+00 
5.0000000e+00 1.0000000e+00 0.0000000e+00 
5.0000000e+00 2.0000000e+00 0.0000000e+00 
0.0000000e+00 2.0000000e+00 0.0000000e+00 
0.0000000e+00 1.0000000e+00 0.0000000e+00 
0.0000000e+00 0.0000000e+00 1.0000000e+00 
0.0000000e+00 0.0000000e+00 2.0000000e+00 
0.0000000e+00 0.0000000e+00 3.0000000e+00 
0.0000000e+00 0.0000000e+00 4.0000000e+00 
0.0000000e+00 0.0000000e+00 5.0000000e+00 
0.0000000e+00 0.0000000e+00 6.0000000e+00 
0.0000000e+00 0.0000000e+00 7.0000000e+00 
0.0000000e+00 0.0000000e+00 8.0000000e+00 
0.0000000e+00 0.0000000e+00 9.0000000e+00 
5.0000000e+00 0.0000000e+00 1.0000000e+00 
5.0000000e+00 0.0000000e+00 2.0000000e+00 
5.0000000e+00 0.0000000e+00 3.0000000e+00 
5.0000000e+00 0.0000000e+00 4.0000000e+00 
5.0000000e+00 0.0000000e+00 5.0000000e+00 
5.0000000e+00 0.0000000e+00 6.0000000e+00 
5.0000000e+00 0.0000000e+00 7.0000000e+00 
5.0000000e+00 0.0000000e+00 8.0000000e+00 
5.0000000e+00 0.0000000e+00 9.0000000e+00 
1.0000000e+00 0.0000000e+00 1.0000000e+01 
2.0000000e+00 0.0000000e+00 1.0000000e+01 
3.0000000e+00 0.0000000e+00 1.0000000e+01 
4.0000000e+00 0.0000000e+00 1.0000000e+01 
5.0000000e+00 3.0000000e+00 1.0000000e+00 
5.0000000e+00 3.0000000e+00 2.0000000e+00 
5.0000000e+00 3.0000000e+00 3.0000000e+00 
5.0000000e+00 3.0000000e+00 4.0000000e+00 
5.0000000e+00 3.0000000e+00 5.0000000e+00 
5.0000000e+00 3.0000000e+00 6.0000000e+00 
5.0000000e+00 3.0000000e+00 7.0000000e+00 
5.0000000e+00 3.0000000e+00 8.0000000e+00 
5.0000000e+00 3.0000000e+00 9.0000000e+00 
5.0000000e+00 1.0000000e+00 1.0000000e+01 
5.0000000e+00 2.0000000e+00 1.0000000e+01 
0.0000000e+00 3.0000000e+00 1.0000000e+00 
0.0000000e+00 3.0000000e+00 2.0000000e+00 
0.0000000e+00 3.0000000e+00 3.0000000e+00 
0.0000000e+00 3.0000000e+00 4.0000000e+00 
0.0000000e+00 3.0000000e+00 5.0000000e+00 
0.0000000e+00 3.0000000e+00 6.0000000e+00 
0.0000000e+00 3.0000000e+00 7.0000000e+00 
0.0000000e+00 3.0000000e+00 8.0000000e+00 
0.0000000e+00 3.0000000e+00 9.0000000e+00 
0.0000000e+00 2.0000000e+00 1.0000000e+01 
0.0000000e+00 1.0000000e+00 1.0000000e+01 
4.0000000e+00 3.0000000e+00 0.0000000e+00 
3.0000000e+00 3.0000000e+00 0.0000000e+00 
2.0000000e+00 3.0000000e+00 0.0000000e+00 
4.0000000e+00 3.0000000e+00 1.0000000e+01 
3.0000000e+00 3.0000000e+00 1.0000000e+01 
2.0000000e+00 3.0000000e+00 1.0000000e+01 
4.0618000e+00 1.5000000e+00 0.0000000e+00 
1.5046000e+00 7.6549745e-01 0.0000000e+00 
2.5000000e+00 2.1339746e+00 0.0000000e+00 
1.5046000e+00 2.2345026e+00 0.0000000e+00 
2.4957771e+00 8.1560516e-01 0.0000000e+00 
3.4707544e+00 2.2336540e+00 0.0000000e+00 
3.4700506e+00 7.5794268e-01 0.0000000e+00 
8.6322361e-01 1.5000000e+00 0.0000000e+00 
2.0000000e+00 1.5000000e+00 0.0000000e+00 
2.9960666e+00 1.4974480e+00 0.0000000e+00 
4.2679491e+00 7.3205084e-01 0.0000000e+00 
4.2679491e+00 2.2679491e+00 0.0000000e+00 
7.2695929e-01 2.2730408e+00 0.0000000e+00 
7.2695929e-01 7.2695929e-01 0.0000000e+00 
4.1822505e+00 0.0000000e+00 2.5515697e+00 
4.2017918e+00 0.0000000e+00 4.4725966e+00 
4.1114569e+00 0.0000000e+00 6.5092020e+00 
8.6602539e-01 0.0000000e+00 3.5000000e+00 
8.4778279e-01 0.0000000e+00 5.4684029e+00 
8.9629614e-01 0.0000000e+00 7.5867257e+00 
2.5566745e+00 0.0000000e+00 8.1853306e-01 
2.4918270e+00 0.0000000e+00 9.1386929e+00 
8.4677207e-01 0.0000000e+00 1.5042374e+00 
4.0943027e+00 0.0000000e+00 8.4081745e+00 
8.6281651e-01 0.0000000e+00 2.5007062e+00 
1.7315160e+00 0.0000000e+00 3.0001178e+00 
1.7319617e+00 0.0000000e+00 4.0000196e+00 
2.5980761e+00 0.0000000e+00 3.5000000e+00 
2.5536871e+00 0.0000000e+00 4.4963923e+00 
2.5928419e+00 0.0000000e+00 2.4239938e+00 
1.5037409e+00 0.0000000e+00 9.1535149e+00 
1.8433737e+00 0.0000000e+00 8.1858873e+00 
3.0000000e+00 0.0000000e+00 8.2679491e+00 
2.5000000e+00 0.0000000e+00 7.4019237e+00 
3.5042722e+00 0.0000000e+00 7.4271150e+00 
3.0310018e+00 0.0000000e+00 6.5282087e+00 
2.0373929e+00 0.0000000e+00 6.5307913e+00 
3.4767809e+00 0.0000000e+00 5.8031492e+00 
2.5452602e+00 0.0000000e+00 5.5720768e+00 
1.6456656e+00 0.0000000e+00 1.9697139e+00 
8.6297011e-01 0.0000000e+00 4.4947371e+00 
1.0111579e+00 0.0000000e+00 6.5282545e+00 
3.4994321e+00 0.0000000e+00 8.4691072e-01 
4.1860156e+00 0.0000000e+00 3.5040276e+00 
1.7320508e+00 0.0000000e+00 5.0000000e+00 
4.0544066e+00 0.0000000e+00 1.5781221e+00 
1.5817389e+00 0.0000000e+00 9.3943578e-01 
8.3166349e-01 0.0000000e+00 8.5090933e+00 
3.4686174e+00 0.0000000e+00 9.1752682e+00 
3.0709300e+00 0.0000000e+00 1.5799091e+00 
3.3927374e+00 0.0000000e+00 3.0399952e+00 
3.3826034e+00 0.0000000e+00 3.9747651e+00 
4.3420062e+00 0.0000000e+00 7.4688983e+00 
3.4023225e+00 0.0000000e+00 4.9314723e+00 
1.6740381e+00 0.0000000e+00 7.3014426e+00 
4.2715640e+00 0.0000000e+00 5.4758859e+00 
1.6225953e+00 0.0000000e+00 5.8104177e+00 
4.2679491e+00 0.0000000e+00 9.2679491e+00 
7.3205084e-01 0.0000000e+00 7.3205084e-01 
4.2679491e+00 0.0000000e+00 7.3205084e-01 
7.3205084e-01 0.0000000e+00 9.2679491e+00 
3.4586334e+00 0.0000000e+00 2.2347178e+00 
2.2895701e+00 0.0000000e+00 1.5463171e+00 
5.0000000e+00 2.2345026e+00 1.5046000e+00 
[...]
POINT_DATA 460
FIELD FieldData 2
DISPLACEMENT 3 460  float
0.0000000e+00 0.0000000e+00 0.0000000e+00 
0.0000000e+00 0.0000000e+00 0.0000000e+00 
0.0000000e+00 -1.9798354e-09 0.0000000e+00 
0.0000000e+00 -1.5711473e-09 0.0000000e+00 
0.0000000e+00 0.0000000e+00 0.0000000e+00 
0.0000000e+00 0.0000000e+00 0.0000000e+00 
0.0000000e+00 2.2139839e-07 0.0000000e+00 
0.0000000e+00 5.0711787e-06 0.0000000e+00 
0.0000000e+00 -1.9673831e-09 0.0000000e+00 
0.0000000e+00 -1.9278945e-09 0.0000000e+00 
0.0000000e+00 -1.8094943e-09 0.0000000e+00 
0.0000000e+00 -1.6298510e-09 0.0000000e+00 
0.0000000e+00 -1.4114288e-09 0.0000000e+00 
0.0000000e+00 -1.1802667e-09 0.0000000e+00 
0.0000000e+00 -9.7602637e-10 0.0000000e+00 
0.0000000e+00 -8.5217944e-10 0.0000000e+00 
0.0000000e+00 -8.6391266e-10 0.0000000e+00 
0.0000000e+00 -1.0461665e-09 0.0000000e+00 
0.0000000e+00 -1.3885008e-09 0.0000000e+00 
1.1702872e-10 -1.8014118e-09 -2.4946148e-10 
2.6447552e-10 -2.3240869e-09 -6.8155936e-10 
3.0236649e-10 -2.9983414e-09 -1.2741860e-09 
4.8762272e-10 -3.8447516e-09 -2.6119253e-09 
9.3116992e-10 -4.6199533e-09 -5.3145706e-09 
1.2807604e-09 -4.6855098e-09 -9.5389590e-09 
1.6582936e-09 -2.9108418e-09 -1.7053486e-08 
5.8899849e-09 2.0758422e-09 -3.4361832e-08 
8.7482075e-09 1.2134213e-08 -5.3725699e-08 
2.3130932e-08 2.8682607e-08 -1.0544197e-07 
4.6700649e-08 5.7739499e-08 -1.6711900e-07 
5.5839106e-08 1.2511239e-07 -2.4859310e-07 
1.3056541e-07 3.0996733e-07 -4.0497028e-07 
1.5661765e-07 8.1208702e-07 -6.0597262e-07 
2.0403017e-07 2.0115372e-06 -6.9662076e-07 
2.3073652e-07 4.4084513e-06 -7.3534926e-07 
1.6450299e-07 8.2456536e-06 -1.5004190e-06 
7.4284577e-07 1.2318234e-05 -9.3762236e-07 
1.1470181e-07 1.2766888e-05 -1.5790253e-06 
0.0000000e+00 4.0396028e-08 0.0000000e+00 
0.0000000e+00 -4.5200326e-05 0.0000000e+00 
0.0000000e+00 -1.3671667e-04 0.0000000e+00 
0.0000000e+00 -2.7959037e-04 0.0000000e+00 
0.0000000e+00 -4.5760060e-04 0.0000000e+00 
0.0000000e+00 -6.1499863e-04 0.0000000e+00 
0.0000000e+00 -6.4415531e-04 0.0000000e+00 
0.0000000e+00 -5.3036335e-04 0.0000000e+00 
0.0000000e+00 -4.0316660e-04 0.0000000e+00 
0.0000000e+00 -3.4960642e-04 0.0000000e+00 
0.0000000e+00 -1.8355426e-09 0.0000000e+00 
0.0000000e+00 -1.8335153e-09 0.0000000e+00 
0.0000000e+00 -1.7958057e-09 0.0000000e+00 
0.0000000e+00 -1.6484344e-09 0.0000000e+00 
0.0000000e+00 -1.4188262e-09 0.0000000e+00 
0.0000000e+00 -1.1775032e-09 0.0000000e+00 
0.0000000e+00 -9.7422193e-10 0.0000000e+00 
0.0000000e+00 -8.5353258e-10 0.0000000e+00 
0.0000000e+00 -8.6651120e-10 0.0000000e+00 
0.0000000e+00 -1.0496360e-09 0.0000000e+00 
0.0000000e+00 -1.3842146e-09 0.0000000e+00 
0.0000000e+00 -1.8008968e-09 0.0000000e+00 
0.0000000e+00 -2.3237501e-09 0.0000000e+00 
0.0000000e+00 -3.0069187e-09 0.0000000e+00 
0.0000000e+00 -3.8582795e-09 0.0000000e+00 
0.0000000e+00 -4.6382240e-09 0.0000000e+00 
0.0000000e+00 -4.6978501e-09 0.0000000e+00 
0.0000000e+00 -2.9292577e-09 0.0000000e+00 
0.0000000e+00 2.1215194e-09 0.0000000e+00 
0.0000000e+00 1.2078833e-08 0.0000000e+00 
0.0000000e+00 2.8260015e-08 0.0000000e+00 
0.0000000e+00 5.6384700e-08 0.0000000e+00 
0.0000000e+00 1.2153588e-07 0.0000000e+00 
0.0000000e+00 3.0376435e-07 0.0000000e+00 
0.0000000e+00 8.0557146e-07 0.0000000e+00 
0.0000000e+00 2.0136754e-06 0.0000000e+00 
0.0000000e+00 4.4441958e-06 0.0000000e+00 
0.0000000e+00 8.3075820e-06 0.0000000e+00 
0.0000000e+00 1.2495408e-05 0.0000000e+00 
0.0000000e+00 1.3132480e-05 0.0000000e+00 
0.0000000e+00 -7.8264442e-08 0.0000000e+00 
0.0000000e+00 -4.5383902e-05 0.0000000e+00 
0.0000000e+00 -1.3726710e-04 0.0000000e+00 
0.0000000e+00 -2.8071136e-04 0.0000000e+00 
0.0000000e+00 -4.5942981e-04 0.0000000e+00 
0.0000000e+00 -6.1744882e-04 0.0000000e+00 
0.0000000e+00 -6.4672029e-04 0.0000000e+00 
0.0000000e+00 -5.3248357e-04 0.0000000e+00 
0.0000000e+00 -4.0478341e-04 0.0000000e+00 
0.0000000e+00 -3.5101056e-04 0.0000000e+00 
0.0000000e+00 0.0000000e+00 0.0000000e+00 
0.0000000e+00 0.0000000e+00 0.0000000e+00 
0.0000000e+00 0.0000000e+00 0.0000000e+00 
0.0000000e+00 0.0000000e+00 0.0000000e+00 
0.0000000e+00 0.0000000e+00 0.0000000e+00 
0.0000000e+00 0.0000000e+00 0.0000000e+00 
0.0000000e+00 0.0000000e+00 0.0000000e+00 
0.0000000e+00 0.0000000e+00 0.0000000e+00 
0.0000000e+00 0.0000000e+00 0.0000000e+00 
0.0000000e+00 0.0000000e+00 0.0000000e+00 
0.0000000e+00 0.0000000e+00 0.0000000e+00 
0.0000000e+00 0.0000000e+00 0.0000000e+00 
0.0000000e+00 0.0000000e+00 0.0000000e+00 
0.0000000e+00 0.0000000e+00 0.0000000e+00 
0.0000000e+00 0.0000000e+00 0.0000000e+00 
0.0000000e+00 0.0000000e+00 0.0000000e+00 
0.0000000e+00 0.0000000e+00 0.0000000e+00 
0.0000000e+00 0.0000000e+00 0.0000000e+00 
0.0000000e+00 0.0000000e+00 0.0000000e+00 
0.0000000e+00 0.0000000e+00 0.0000000e+00 
0.0000000e+00 0.0000000e+00 0.0000000e+00 
0.0000000e+00 0.0000000e+00 0.0000000e+00 
0.0000000e+00 0.0000000e+00 0.0000000e+00 
0.0000000e+00 -1.0222092e-09 0.0000000e+00 
0.0000000e+00 -1.7745309e-09 0.0000000e+00 
0.0000000e+00 -1.3920510e-09 0.0000000e+00 
0.0000000e+00 -7.9724044e-10 0.0000000e+00 
0.0000000e+00 0.0000000e+00 0.0000000e+00 
0.0000000e+00 0.0000000e+00 0.0000000e+00 
0.0000000e+00 0.0000000e+00 0.0000000e+00 
0.0000000e+00 0.0000000e+00 0.0000000e+00 
0.0000000e+00 0.0000000e+00 0.0000000e+00 
0.0000000e+00 0.0000000e+00 0.0000000e+00 
0.0000000e+00 0.0000000e+00 0.0000000e+00 
0.0000000e+00 0.0000000e+00 0.0000000e+00 
0.0000000e+00 0.0000000e+00 0.0000000e+00 
0.0000000e+00 0.0000000e+00 0.0000000e+00 
0.0000000e+00 0.0000000e+00 0.0000000e+00 
0.0000000e+00 0.0000000e+00 0.0000000e+00 
0.0000000e+00 0.0000000e+00 0.0000000e+00 
0.0000000e+00 0.0000000e+00 0.0000000e+00 
0.0000000e+00 0.0000000e+00 0.0000000e+00 
0.0000000e+00 0.0000000e+00 0.0000000e+00 
0.0000000e+00 0.0000000e+00 0.0000000e+00 
0.0000000e+00 0.0000000e+00 0.0000000e+00 
0.0000000e+00 0.0000000e+00 0.0000000e+00 
0.0000000e+00 0.0000000e+00 0.0000000e+00 
0.0000000e+00 0.0000000e+00 0.0000000e+00 
0.0000000e+00 0.0000000e+00 0.0000000e+00 
0.0000000e+00 -2.6036298e-09 0.0000000e+00 
0.0000000e+00 -5.1071480e-09 0.0000000e+00 
0.0000000e+00 -7.9601223e-09 0.0000000e+00 
0.0000000e+00 -1.3779810e-08 0.0000000e+00 
0.0000000e+00 -1.0308323e-08 0.0000000e+00 
0.0000000e+00 -5.0618301e-09 0.0000000e+00 
0.0000000e+00 6.0427830e-08 0.0000000e+00 
0.0000000e+00 9.4256990e-08 0.0000000e+00 
0.0000000e+00 2.1215025e-07 0.0000000e+00 
0.0000000e+00 1.2739373e-07 0.0000000e+00 
0.0000000e+00 1.9868482e-07 0.0000000e+00 
0.0000000e+00 -1.8768236e-09 0.0000000e+00 
0.0000000e+00 -2.7295419e-09 0.0000000e+00 
0.0000000e+00 -1.7792640e-09 0.0000000e+00 
0.0000000e+00 1.1834152e-08 0.0000000e+00 
0.0000000e+00 7.1655386e-08 0.0000000e+00 
0.0000000e+00 2.7899969e-07 0.0000000e+00 
0.0000000e+00 1.0774492e-06 0.0000000e+00 
0.0000000e+00 2.7988021e-06 0.0000000e+00 
0.0000000e+00 5.0622107e-06 0.0000000e+00 
0.0000000e+00 3.6629210e-06 0.0000000e+00 
0.0000000e+00 1.7606915e-06 0.0000000e+00 
0.0000000e+00 -1.9646764e-09 0.0000000e+00 
0.0000000e+00 -1.9672379e-09 0.0000000e+00 
0.0000000e+00 -1.8434489e-09 0.0000000e+00 
0.0000000e+00 4.0105169e-07 0.0000000e+00 
0.0000000e+00 1.0870351e-06 0.0000000e+00 
0.0000000e+00 2.8777565e-06 0.0000000e+00 
0.0000000e+00 -1.4185645e-09 0.0000000e+00 
0.0000000e+00 -7.4263623e-10 0.0000000e+00 
0.0000000e+00 -1.8418519e-09 0.0000000e+00 
0.0000000e+00 -1.6058000e-09 0.0000000e+00 
0.0000000e+00 -9.0245272e-10 0.0000000e+00 
0.0000000e+00 -1.8370333e-09 0.0000000e+00 
0.0000000e+00 -8.9293184e-10 0.0000000e+00 
0.0000000e+00 -1.2632361e-09 0.0000000e+00 
0.0000000e+00 -1.5209543e-09 0.0000000e+00 
0.0000000e+00 -1.4745604e-09 0.0000000e+00 
0.0000000e+00 -6.4915395e-10 0.0000000e+00 
0.0000000e+00 -1.8187024e-09 0.0000000e+00 
0.0000000e+00 -1.5025888e-09 0.0000000e+00 
0.0000000e+00 -5.9293354e-10 0.0000000e+00 
0.0000000e+00 0.0000000e+00 0.0000000e+00 
0.0000000e+00 0.0000000e+00 0.0000000e+00 
0.0000000e+00 0.0000000e+00 0.0000000e+00 
0.0000000e+00 0.0000000e+00 0.0000000e+00 
0.0000000e+00 0.0000000e+00 0.0000000e+00 
0.0000000e+00 0.0000000e+00 0.0000000e+00 
0.0000000e+00 0.0000000e+00 0.0000000e+00 
0.0000000e+00 0.0000000e+00 0.0000000e+00 
0.0000000e+00 0.0000000e+00 0.0000000e+00 
0.0000000e+00 0.0000000e+00 0.0000000e+00 
0.0000000e+00 0.0000000e+00 0.0000000e+00 
0.0000000e+00 0.0000000e+00 0.0000000e+00 
0.0000000e+00 0.0000000e+00 0.0000000e+00 
0.0000000e+00 0.0000000e+00 0.0000000e+00 
0.0000000e+00 0.0000000e+00 0.0000000e+00 
0.0000000e+00 0.0000000e+00 0.0000000e+00 
0.0000000e+00 0.0000000e+00 0.0000000e+00 
0.0000000e+00 0.0000000e+00 0.0000000e+00 
0.0000000e+00 0.0000000e+00 0.0000000e+00 
0.0000000e+00 0.0000000e+00 0.0000000e+00 
0.0000000e+00 0.0000000e+00 0.0000000e+00 
0.0000000e+00 0.0000000e+00 0.0000000e+00 
0.0000000e+00 0.0000000e+00 0.0000000e+00 
0.0000000e+00 0.0000000e+00 0.0000000e+00 
0.0000000e+00 0.0000000e+00 0.0000000e+00 
0.0000000e+00 0.0000000e+00 0.0000000e+00 
0.0000000e+00 0.0000000e+00 0.0000000e+00 
0.0000000e+00 0.0000000e+00 0.0000000e+00 
0.0000000e+00 0.0000000e+00 0.0000000e+00 
0.0000000e+00 0.0000000e+00 0.0000000e+00 
0.0000000e+00 0.0000000e+00 0.0000000e+00 
0.0000000e+00 0.0000000e+00 0.0000000e+00 
0.0000000e+00 0.0000000e+00 0.0000000e+00 
0.0000000e+00 0.0000000e+00 0.0000000e+00 
0.0000000e+00 0.0000000e+00 0.0000000e+00 
0.0000000e+00 0.0000000e+00 0.0000000e+00 
0.0000000e+00 0.0000000e+00 0.0000000e+00 
0.0000000e+00 0.0000000e+00 0.0000000e+00 
0.0000000e+00 0.0000000e+00 0.0000000e+00 
0.0000000e+00 0.0000000e+00 0.0000000e+00 
0.0000000e+00 0.0000000e+00 0.0000000e+00 
0.0000000e+00 0.0000000e+00 0.0000000e+00 
0.0000000e+00 0.0000000e+00 0.0000000e+00 
0.0000000e+00 0.0000000e+00 0.0000000e+00 
0.0000000e+00 0.0000000e+00 0.0000000e+00 
0.0000000e+00 0.0000000e+00 0.0000000e+00 
0.0000000e+00 0.0000000e+00 0.0000000e+00 
0.0000000e+00 0.0000000e+00 0.0000000e+00 
0.0000000e+00 0.0000000e+00 0.0000000e+00 
0.0000000e+00 -3.4657994e-09 0.0000000e+00 
0.0000000e+00 1.4040938e-07 0.0000000e+00 
0.0000000e+00 -1.0236631e-08 0.0000000e+00 
0.0000000e+00 -1.1345255e-08 0.0000000e+00 
0.0000000e+00 6.1358762e-08 0.0000000e+00 
0.0000000e+00 -2.6826754e-09 0.0000000e+00 
0.0000000e+00 -3.0259473e-09 0.0000000e+00 
0.0000000e+00 1.4198965e-08 0.0000000e+00 
0.0000000e+00 -4.3411537e-09 0.0000000e+00 
0.0000000e+00 -4.3933475e-09 0.0000000e+00 
0.0000000e+00 -5.9260068e-09 0.0000000e+00 
0.0000000e+00 -1.4281691e-08 0.0000000e+00 
0.0000000e+00 -3.3952696e-09 0.0000000e+00 
0.0000000e+00 4.6662059e-08 0.0000000e+00 
0.0000000e+00 -1.4497727e-09 0.0000000e+00 
0.0000000e+00 7.4666005e-08 0.0000000e+00 
0.0000000e+00 9.4556569e-08 0.0000000e+00 
0.0000000e+00 -1.8732482e-09 0.0000000e+00 
0.0000000e+00 -8.2287199e-09 0.0000000e+00 
0.0000000e+00 2.1446121e-08 0.0000000e+00 
0.0000000e+00 -3.3606229e-09 0.0000000e+00 
0.0000000e+00 -6.7456387e-09 0.0000000e+00 
0.0000000e+00 -9.3806678e-09 0.0000000e+00 
0.0000000e+00 -6.0530305e-09 0.0000000e+00 
0.0000000e+00 6.2378383e-08 0.0000000e+00 
0.0000000e+00 1.6524925e-07 0.0000000e+00 
0.0000000e+00 7.4413855e-08 0.0000000e+00 
0.0000000e+00 -2.2323203e-09 0.0000000e+00 
0.0000000e+00 -8.9460861e-10 0.0000000e+00 
0.0000000e+00 2.8038644e-06 0.0000000e+00 
0.0000000e+00 -1.3316601e-09 0.0000000e+00 
0.0000000e+00 -1.0597813e-09 0.0000000e+00 
0.0000000e+00 1.6672100e-08 0.0000000e+00 
0.0000000e+00 6.8746641e-07 0.0000000e+00 
0.0000000e+00 1.8525570e-09 0.0000000e+00 
0.0000000e+00 1.4226443e-07 0.0000000e+00 
0.0000000e+00 1.5658082e-06 0.0000000e+00 
0.0000000e+00 1.7154044e-09 0.0000000e+00 
0.0000000e+00 -2.4747415e-09 0.0000000e+00 
0.0000000e+00 2.9550385e-08 0.0000000e+00 
0.0000000e+00 5.2943568e-07 0.0000000e+00 
0.0000000e+00 2.7687946e-07 0.0000000e+00 
0.0000000e+00 3.6593322e-06 0.0000000e+00 
0.0000000e+00 -2.0971618e-09 0.0000000e+00 
0.0000000e+00 -9.1041397e-10 0.0000000e+00 
0.0000000e+00 1.0623420e-06 0.0000000e+00 
0.0000000e+00 5.4722499e-08 0.0000000e+00 
0.0000000e+00 2.5179207e-07 0.0000000e+00 
0.0000000e+00 1.3252445e-08 0.0000000e+00 
0.0000000e+00 -4.5482582e-10 0.0000000e+00 
0.0000000e+00 7.3513354e-07 0.0000000e+00 
0.0000000e+00 6.5042940e-08 0.0000000e+00 
0.0000000e+00 1.8445993e-06 0.0000000e+00 
0.0000000e+00 -1.8987927e-09 0.0000000e+00 
0.0000000e+00 1.3040249e-06 0.0000000e+00 
0.0000000e+00 -1.6381813e-09 0.0000000e+00 
0.0000000e+00 -6.5700778e-10 0.0000000e+00 
0.0000000e+00 4.4201392e-06 0.0000000e+00 
0.0000000e+00 9.9310626e-07 0.0000000e+00 
0.0000000e+00 2.5770137e-07 0.0000000e+00 
0.0000000e+00 1.5798715e-06 0.0000000e+00 
0.0000000e+00 3.1868076e-06 0.0000000e+00 
0.0000000e+00 5.9349173e-07 0.0000000e+00 
0.0000000e+00 6.1609018e-07 0.0000000e+00 
0.0000000e+00 2.7968764e-07 0.0000000e+00 
0.0000000e+00 2.5200575e-06 0.0000000e+00 
0.0000000e+00 1.5783711e-06 0.0000000e+00 
0.0000000e+00 7.7449675e-07 0.0000000e+00 
0.0000000e+00 1.3760294e-07 0.0000000e+00 
0.0000000e+00 2.8382641e-07 0.0000000e+00 
0.0000000e+00 4.0609107e-06 0.0000000e+00 
0.0000000e+00 1.1774547e-06 0.0000000e+00 
1.6037577e-08 1.1882159e-08 -7.7296747e-08 
1.0552336e-07 3.0218752e-07 -2.9435290e-07 
3.4938819e-07 2.1646922e-06 -6.5710088e-07 
1.2709636e-09 -4.0118957e-09 -4.7693614e-09 
3.3518635e-09 -6.8079187e-09 -1.6059406e-08 
2.8097661e-08 -2.9963056e-09 -3.5713260e-08 
1.6028436e-09 -7.3134592e-09 -1.8885344e-09 
1.0364396e-07 9.7800296e-08 -9.0421338e-08 
3.8686299e-10 -2.7850990e-09 -1.1093628e-09 
6.0472132e-07 5.4590414e-06 -6.6295149e-07 
3.6183503e-10 -2.5054323e-09 -2.3886998e-10 
3.2440406e-07 6.8426419e-07 -5.0785406e-08 
7.9860328e-08 4.5598895e-08 -6.9087307e-08 
1.6569285e-07 1.9608437e-07 -1.8395930e-07 
3.4057487e-07 3.6394499e-07 -2.5526589e-07 
2.5841635e-07 4.7450521e-07 -2.1523543e-07 
1.5196456e-07 2.4396590e-07 -1.7440152e-07 
4.9339155e-07 1.1113373e-06 -2.8410551e-07 
2.5599547e-07 6.0669493e-07 -4.2170038e-07 
9.0117119e-08 7.8032031e-08 -1.3095134e-07 
4.1602533e-08 1.8399097e-08 -6.5456689e-08 
6.0416276e-08 6.3425084e-08 -1.0659637e-07 
3.0129307e-08 8.1217433e-09 -7.1683495e-08 
1.7063273e-08 -1.2358004e-08 -3.2037526e-08 
1.3781018e-08 -1.0120475e-08 -3.2849986e-08 
8.6767367e-09 -9.9027480e-09 -1.4763282e-08 
4.7282951e-09 -8.8249310e-09 -1.5887997e-08 
3.6217023e-09 -8.6585397e-09 -7.6098914e-09 
3.5388408e-09 -7.0873964e-09 -8.3915870e-09 
2.2557294e-09 -5.5369145e-09 -3.3658110e-09 
1.2044632e-09 -4.4850776e-09 -3.0367764e-09 
4.7460091e-08 4.5559563e-08 -1.4168930e-07 
8.2656626e-08 1.4060261e-07 -1.7662907e-07 
8.9448653e-09 -5.8215677e-09 -2.4453168e-08 
4.1573469e-09 -1.1495401e-08 -5.2565237e-09 
4.2778393e-07 1.6069096e-06 -1.1372691e-07 
1.4825469e-08 -1.9481503e-09 -5.0050033e-08 
1.4975440e-08 -1.7135225e-08 -2.1572243e-08 
3.9977116e-10 -2.8121876e-09 -6.8914507e-10 
2.1550797e-07 2.6780046e-07 -7.5294984e-08 
4.7454446e-07 1.1670819e-06 -5.4726735e-07 
5.6923454e-07 2.0355064e-06 -5.1503338e-07 
6.4449971e-08 1.0635519e-07 -1.8400139e-07 
5.2909632e-10 -3.8656061e-09 -2.8269473e-10 
1.8848616e-09 -5.3775264e-09 -8.5280449e-09 
3.5049794e-09 -7.6541298e-09 -1.2071435e-08 
6.2040262e-09 -3.2083156e-09 -2.8831110e-08 
1.3991273e-08 -4.3641377e-10 -5.4057310e-08 
1.8450906e-07 5.9913458e-07 -3.9938521e-07 
3.2260525e-07 1.2876370e-06 -5.9464713e-07 
2.4974869e-10 -2.1172477e-09 -3.9547110e-10 
6.1705974e-10 -3.5850698e-09 -2.2540627e-09 
7.2118922e-07 6.4186238e-06 -3.8486050e-07 
9.4961006e-10 -4.2145709e-09 -1.2848368e-09 
2.2487563e-09 -5.3613847e-09 -6.0249765e-09 
7.0680375e-07 3.5694482e-06 -7.8652693e-07 
1.7154363e-07 3.4007931e-07 -3.0501329e-07 
6.8220152e-10 -3.2879428e-09 -1.7018598e-09 
2.8083225e-08 5.2392014e-08 -1.1724995e-07 
4.0088000e-07 7.0799092e-07 -1.8009045e-07 
1.6355581e-07 3.1515123e-07 -3.7518689e-08 
2.2371938e-10 -2.3986240e-09 -6.8867870e-11 
1.0586562e-08 -1.1404080e-08 -1.6194775e-08 
1.1873107e-09 -4.4613544e-09 -3.2143139e-09 
8.0337401e-07 2.7832243e-06 -4.4383142e-07 
1.1135636e-07 1.3767146e-07 -1.6442753e-07 
1.1861098e-09 -5.2856306e-09 -1.9112480e-09 
3.1938556e-09 -8.7059444e-09 -5.9426624e-09 
3.6710013e-10 -2.7295144e-09 -7.9972873e-10 
2.2110525e-08 2.2708715e-08 -8.7135305e-08 
4.7733243e-07 3.3517181e-06 -1.6574192e-07 
2.1025336e-10 -3.3781205e-09 -2.6957896e-09 
1.4899673e-10 -2.7464038e-09 -1.4433443e-09 
1.5313827e-10 -2.4937259e-09 -4.6444639e-09 
4.0509038e-10 -1.6689545e-09 -6.8751187e-09 
1.4376986e-10 -2.3230473e-09 -7.7199136e-10 
5.3924148e-10 2.8646381e-09 -1.1552835e-08 
3.8571590e-09 1.6003588e-08 -2.3862228e-08 
4.9682325e-09 3.9602565e-08 -4.1786340e-08 
1.2002260e-08 9.8595244e-08 -1.1695155e-07 
3.0431167e-08 1.8927497e-07 -2.1385131e-07 
2.5683125e-08 3.6030929e-07 -2.6577482e-07 
4.8123024e-08 7.6233323e-07 -4.0499674e-07 
8.9646640e-08 1.4698364e-06 -4.6323800e-07 
2.3342787e-07 2.9108764e-06 -5.0443413e-07 
2.1004298e-07 4.0603777e-06 -5.8743746e-07 
2.5920906e-07 5.9540307e-06 -6.1315785e-07 
-1.1578604e-07 7.3704605e-06 -5.1565269e-07 
6.6906800e-11 -1.7714835e-09 -2.3645422e-10 
-1.0149009e-10 -3.3523417e-09 1.0661526e-10 
-4.9695076e-10 -5.9118666e-09 5.9132681e-09 
-1.8987089e-08 5.5929668e-08 7.3390098e-08 
-1.4178997e-07 5.2118997e-07 2.6227153e-07 
-3.7350205e-07 1.8473670e-06 3.2794185e-07 
-3.1695382e-10 -5.7867076e-09 1.1756527e-09 
-7.1358977e-09 -7.8751743e-09 1.3423310e-08 
-6.1295083e-08 1.0461783e-07 9.2619665e-08 
3.0287592e-09 2.5103892e-09 2.7807567e-09 
1.5540833e-10 -4.7125996e-09 -2.5641615e-09 
2.9323651e-11 -2.5534492e-09 -8.2183077e-10 
-2.2751888e-07 3.4730010e-07 1.7852840e-07 
1.9373467e-10 -2.8898972e-09 -6.3696975e-10 
-2.2909255e-08 3.1209299e-07 8.6495000e-08 
-3.9244107e-08 2.0308737e-06 3.3966276e-07 
1.0813531e-09 -3.1588161e-09 -5.0356994e-09 
-1.9176047e-09 -5.8419971e-09 2.4044435e-09 
3.0635269e-11 -7.1381026e-09 -9.9773656e-10 
1.6522905e-09 5.0914050e-08 -3.2103546e-09 
-8.9233243e-10 1.8448644e-09 2.8540805e-08 
4.3188949e-11 -3.9186348e-09 -1.9730027e-09 
-2.1485242e-08 1.8113121e-09 2.5650534e-08 
-5.1558626e-08 4.6446312e-06 5.3612860e-07 
-5.2174320e-12 -2.5212035e-09 -2.1190082e-10 
-1.5482586e-07 3.4825783e-07 5.2035791e-08 
-5.8848959e-10 -2.1381512e-09 3.2934619e-09 
-2.6619357e-08 2.6583496e-08 6.0309681e-08 
-2.3249550e-10 -3.0181755e-09 1.0687753e-09 
-7.5755591e-10 -3.8184682e-09 6.4244072e-09 
9.8258224e-10 -1.0389053e-08 -3.5262444e-09 
-3.0118230e-08 5.0842058e-08 1.5526412e-08 
-1.2901428e-08 3.4044689e-07 4.7748056e-08 
-1.8611255e-09 8.5635259e-07 3.6563019e-08 
5.7490386e-09 7.9858879e-08 5.0090887e-10 
-3.1767459e-07 7.6302149e-07 1.2387787e-07 
-1.4437883e-07 1.0295531e-06 1.6742663e-07 
3.8288150e-11 -1.5120464e-09 7.0048467e-11 
-1.1758863e-09 -1.0357918e-08 5.9827998e-10 
1.2642613e-11 -1.3623249e-09 6.5625956e-11 
-3.0659958e-08 1.9756604e-07 1.6136619e-07 
1.1459240e-09 5.3274662e-11 1.4425883e-08 
-3.1696959e-07 1.9221361e-06 1.0693606e-07 
-1.7506862e-07 8.7664267e-07 3.7480402e-07 
2.9645062e-09 -8.5397138e-09 -9.5956434e-09 
2.3669117e-10 -3.4136260e-09 -1.3084411e-09 
-4.1330770e-09 4.0397086e-09 4.4404258e-09 
-1.2877767e-09 -3.6341570e-09 1.4549965e-09 
-2.0567632e-07 4.6038929e-07 2.2951505e-07 
5.5957922e-10 -5.5801874e-09 -1.3544821e-09 
-3.1408960e-09 2.9144431e-08 4.7725781e-08 
3.3327771e-10 -5.5723768e-09 -7.1325518e-10 
-1.0031623e-07 1.0837587e-07 8.1158426e-08 
-9.7421669e-08 2.7443150e-06 1.1672480e-07 
1.4096996e-08 2.0779206e-07 -1.7380017e-08 
-6.3340977e-09 9.5363440e-08 6.4547010e-08 
-5.5491601e-08 9.7348511e-08 1.1343204e-07 
-2.5408315e-07 1.7643562e-06 1.7061060e-07 
1.8840197e-10 -2.4599984e-09 -4.8014737e-10 
1.7751602e-09 -1.5862538e-08 -2.9526857e-09 
-3.5034913e-09 -4.0333368e-09 5.6019918e-09 
-1.1400508e-09 5.4137121e-09 -2.6727256e-09 
-4.7200604e-08 3.5002568e-08 4.6470912e-08 
5.8437033e-10 -5.6437441e-09 -2.6933751e-09 
9.9955365e-08 3.7575244e-06 1.7624502e-07 
-6.1029550e-09 3.7131848e-10 1.8372237e-08 
2.9408375e-11 1.2803170e-07 -1.3987180e-08 