# vtk DataFile Version 4.0
vtk output
ASCII
DATASET UNSTRUCTURED_GRID
POINTS 460 float
0.0000000e+00 0.0000000e+00 0.0000000e+00 
5.0000000e+00 0.0000000e+00 0.0000000e+00 
5.0000000e+00 3.0000000e+00 0.0000000e+00 
0.0000000e+00 3.0000000e+00 0.0000000e+00 
0.0000000e+00 0.0000000e+00 1.0000000e+01 
5.0000000e+00 0.0000000e+00 1.0000000e+01 
5.0000000e+00 3.0000000e+00 1.0000000e+01 
0.0000000e+00 3.0000000e+00 1.0000000e+01 
1.0000000e+00 3.0000000e+00 -5.0000000e+00 
1.0000000e+00 3.0000000e+00 -4.5000000e+00 
1.0000000e+00 3.0000000e+00 -4.0000000e+00 
1.0000000e+00 3.0000000e+00 -3.5000000e+00 
1.0000000e+00 3.0000000e+00 -3.0000000e+00 
1.0000000e+00 3.0000000e+00 -2.5000000e+00 
1.0000000e+00 3.0000000e+00 -2.0000000e+00 
1.0000000e+00 3.0000000e+00 -1.5000000e+00 
1.0000000e+00 3.0000000e+00 -1.0000000e+00 
1.0000000e+00 3.0000000e+00 -5.0000000e-01 
1.0000000e+00 3.0000000e+00 0.0000000e+00 
1.0000000e+00 3.0000000e+00 5.0000000e-01 
1.0000000e+00 3.0000000e+00 1.0000000e+00 
1.0000000e+00 3.0000000e+00 1.5000000e+00 
1.0000000e+00 3.0000000e+00 2.0000000e+00 
1.0000000e+00 3.0000000e+00 2.5000000e+00 
1.0000000e+00 3.0000000e+00 3.0000000e+00 
1.0000000e+00 3.0000000e+00 3.5000000e+00 
1.0000000e+00 3.0000000e+00 4.0000000e+00 
1.0000000e+00 3.0000000e+00 4.5000000e+00 
1.0000000e+00 3.0000000e+00 5.0000000e+00 
1.0000000e+00 3.0000000e+00 5.5000000e+00 
1.0000000e+00 3.0000000e+00 6.0000000e+00 
1.0000000e+00 3.0000000e+00 6.5000000e+00 
1.0000000e+00 3.0000000e+00 7.0000000e+00 
1.0000000e+00 3.0000000e+00 7.5000000e+00 
1.0000000e+00 3.0000000e+00 8.0000000e+00 
1.0000000e+00 3.0000000e+00 8.5000000e+00 
1.0000000e+00 3.0000000e+00 9.0000000e+00 
1.0000000e+00 3.0000000e+00 9.5000000e+00 
1.0000000e+00 3.0000000e+00 1.0000000e+01 
1.0000000e+00 3.0000000e+00 1.0500000e+01 
1.0000000e+00 3.0000000e+00 1.1000000e+01 
1.0000000e+00 3.0000000e+00 1.1500000e+01 
1.0000000e+00 3.0000000e+00 1.2000000e+01 
1.0000000e+00 3.0000000e+00 1.2500000e+01 
1.0000000e+00 3.0000000e+00 1.3000000e+01 
1.0000000e+00 3.0000000e+00 1.3500000e+01 
1.0000000e+00 3.0000000e+00 1.4000000e+01 
1.0000000e+00 3.0000000e+00 1.4500000e+01 
1.0000000e+00 3.0250001e+00 -5.0000000e+00 
1.0000000e+00 3.0250001e+00 -4.5000000e+00 
1.0000000e+00 3.0250001e+00 -4.0000000e+00 
1.0000000e+00 3.0250001e+00 -3.5000000e+00 
1.0000000e+00 3.0250001e+00 -3.0000000e+00 
1.0000000e+00 3.0250001e+00 -2.5000000e+00 
1.0000000e+00 3.0250001e+00 -2.0000000e+00 
1.0000000e+00 3.0250001e+00 -1.5000000e+00 
1.0000000e+00 3.0250001e+00 -1.0000000e+00 
1.0000000e+00 3.0250001e+00 -5.0000000e-01 
1.0000000e+00 3.0250001e+00 0.0000000e+00 
1.0000000e+00 3.0250001e+00 5.0000000e-01 
1.0000000e+00 3.0250001e+00 1.0000000e+00 
1.0000000e+00 3.0250001e+00 1.5000000e+00 
1.0000000e+00 3.0250001e+00 2.0000000e+00 
1.0000000e+00 3.0250001e+00 2.5000000e+00 
1.0000000e+00 3.0250001e+00 3.0000000e+00 
1.0000000e+00 3.0250001e+00 3.5000000e+00 
1.0000000e+00 3.0250001e+00 4.0000000e+00 
1.0000000e+00 3.0250001e+00 4.5000000e+00 
1.0000000e+00 3.0250001e+00 5.0000000e+00 
1.0000000e+00 3.0250001e+00 5.5000000e+00 
1.0000000e+00 3.0250001e+00 6.0000000e+00 
1.0000000e+00 3.0250001e+00 6.5000000e+00 
1.0000000e+00 3.0250001e+00 7.0000000e+00 
1.0000000e+00 3.0250001e+00 7.5000000e+00 
1.0000000e+00 3.0250001e+00 8.0000000e+00 
1.0000000e+00 3.0250001e+00 8.5000000e+00 
1.0000000e+00 3.0250001e+00 9.0000000e+00 
1.0000000e+00 3.0250001e+00 9.5000000e+00 
1.0000000e+00 3.0250001e+00 1.0000000e+01 
1.0000000e+00 3.0250001e+00 1.0500000e+01 
1.0000000e+00 3.0250001e+00 1.1000000e+01 
1.0000000e+00 3.0250001e+00 1.1500000e+01 
1.0000000e+00 3.0250001e+00 1.2000000e+01 
1.0000000e+00 3.0250001e+00 1.2500000e+01 
1.0000000e+00 3.0250001e+00 1.3000000e+01 
1.0000000e+00 3.0250001e+00 1.3500000e+01 
1.0000000e+00 3.0250001e+00 1.4000000e+01 
1.0000000e+00 3.0250001e+00 1.4500000e+01 
1.0000000e+00 -2.0000000e+00 -5.0000000e+00 
1.0000000e+00 -2.0000000e+00 -4.5000000e+00 
1.0000000e+00 -2.0000000e+00 -4.0000000e+00 
1.0000000e+00 -2.0000000e+00 -3.5000000e+00 
1.0000000e+00 -2.0000000e+00 -3.0000000e+00 
1.0000000e+00 -2.0000000e+00 -2.5000000e+00 
1.0000000e+00 -2.0000000e+00 -2.0000000e+00 
1.0000000e+00 -2.0000000e+00 -1.5000000e+00 
1.0000000e+00 -2.0000000e+00 -1.0000000e+00 
1.0000000e+00 -2.0000000e+00 -5.0000000e-01 
1.0000000e+00 -2.0000000e+00 1.0500000e+01 
1.0000000e+00 -2.0000000e+00 1.1000000e+01 
1.0000000e+00 -2.0000000e+00 1.1500000e+01 
1.0000000e+00 -2.0000000e+00 1.2000000e+01 
1.0000000e+00 -2.0000000e+00 1.2500000e+01 
1.0000000e+00 -2.0000000e+00 1.3000000e+01 
1.0000000e+00 -2.0000000e+00 1.3500000e+01 
1.0000000e+00 -2.0000000e+00 1.4000000e+01 
1.0000000e+00 -2.0000000e+00 1.4500000e+01 
1.0000000e+00 0.0000000e+00 0.0000000e+00 
2.0000000e+00 0.0000000e+00 0.0000000e+00 
3.0000000e+00 0.0000000e+00 0.0000000e+00 
4.0000000e+00 0.0000000e+00 0.0000000e+00 
5.0000000e+00 1.0000000e+00 0.0000000e+00 
5.0000000e+00 2.0000000e+00 0.0000000e+00 
0.0000000e+00 2.0000000e+00 0.0000000e+00 
0.0000000e+00 1.0000000e+00 0.0000000e+00 
0.0000000e+00 0.0000000e+00 1.0000000e+00 
0.0000000e+00 0.0000000e+00 2.0000000e+00 
0.0000000e+00 0.0000000e+00 3.0000000e+00 
0.0000000e+00 0.0000000e+00 4.0000000e+00 
0.0000000e+00 0.0000000e+00 5.0000000e+00 
0.0000000e+00 0.0000000e+00 6.0000000e+00 
0.0000000e+00 0.0000000e+00 7.0000000e+00 
0.0000000e+00 0.0000000e+00 8.0000000e+00 
0.0000000e+00 0.0000000e+00 9.0000000e+00 
5.0000000e+00 0.0000000e+00 1.0000000e+00 
5.0000000e+00 0.0000000e+00 2.0000000e+00 
5.0000000e+00 0.0000000e+00 3.0000000e+00 
5.0000000e+00 0.0000000e+00 4.0000000e+00 
5.0000000e+00 0.0000000e+00 5.0000000e+00 
5.0000000e+00 0.0000000e+00 6.0000000e+00 
5.0000000e+00 0.0000000e+00 7.0000000e+00 
5.0000000e+00 0.0000000e+00 8.0000000e+00 
5.0000000e+00 0.0000000e+00 9.0000000e+00 
1.0000000e+00 0.0000000e+00 1.0000000e+01 
2.0000000e+00 0.0000000e+00 1.0000000e+01 
3.0000000e+00 0.0000000e+00 1.0000000e+01 
4.0000000e+00 0.0000000e+00 1.0000000e+01 
5.0000000e+00 3.0000000e+00 1.0000000e+00 
5.0000000e+00 3.0000000e+00 2.0000000e+00 
5.0000000e+00 3.0000000e+00 3.0000000e+00 
5.0000000e+00 3.0000000e+00 4.0000000e+00 
5.0000000e+00 3.0000000e+00 5.0000000e+00 
5.0000000e+00 3.0000000e+00 6.0000000e+00 
5.0000000e+00 3.0000000e+00 7.0000000e+00 
5.0000000e+00 3.0000000e+00 8.0000000e+00 
5.0000000e+00 3.0000000e+00 9.0000000e+00 
5.0000000e+00 1.0000000e+00 1.0000000e+01 
5.0000000e+00 2.0000000e+00 1.0000000e+01 
0.0000000e+00 3.0000000e+00 1.0000000e+00 
0.0000000e+00 3.0000000e+00 2.0000000e+00 
0.0000000e+00 3.0000000e+00 3.0000000e+00 
0.0000000e+00 3.0000000e+00 4.0000000e+00 
0.0000000e+00 3.0000000e+00 5.0000000e+00 
0.0000000e+00 3.0000000e+00 6.0000000e+00 
0.0000000e+00 3.0000000e+00 7.0000000e+00 
0.0000000e+00 3.0000000e+00 8.0000000e+00 
0.0000000e+00 3.0000000e+00 9.0000000e+00 
0.0000000e+00 2.0000000e+00 1.0000000e+01 
0.0000000e+00 1.0000000e+00 1.0000000e+01 
4.0000000e+00 3.0000000e+00 0.0000000e+00 
3.0000000e+00 3.0000000e+00 0.0000000e+00 
2.0000000e+00 3.0000000e+00 0.0000000e+00 
4.0000000e+00 3.0000000e+00 1.0000000e+01 
3.0000000e+00 3.0000000e+00 1.0000000e+01 
2.0000000e+00 3.0000000e+00 1.0000000e+01 
4.0618000e+00 1.5000000e+00 0.0000000e+00 
1.5046000e+00 7.6549745e-01 0.0000000e+00 
2.5000000e+00 2.1339746e+00 0.0000000e+00 
1.5046000e+00 2.2345026e+00 0.0000000e+00 
2.4957771e+00 8.1560516e-01 0.0000000e+00 
3.4707544e+00 2.2336540e+00 0.0000000e+00 
3.4700506e+00 7.5794268e-01 0.0000000e+00 
8.6322361e-01 1.5000000e+00 0.0000000e+00 
2.0000000e+00 1.5000000e+00 0.0000000e+00 
2.9960666e+00 1.4974480e+00 0.0000000e+00 
4.2679491e+00 7.3205084e-01 0.0000000e+00 
4.2679491e+00 2.2679491e+00 0.0000000e+00 
7.2695929e-01 2.2730408e+00 0.0000000e+00 
7.2695929e-01 7.2695929e-01 0.0000000e+00 
4.1822505e+00 0.0000000e+00 2.5515697e+00 
4.2017918e+00 0.0000000e+00 4.4725966e+00 
4.1114569e+00 0.0000000e+00 6.5092020e+00 
8.6602539e-01 0.0000000e+00 3.5000000e+00 
8.4778279e-01 0.0000000e+00 5.4684029e+00 
8.9629614e-01 0.0000000e+00 7.5867257e+00 
2.5566745e+00 0.0000000e+00 8.1853306e-01 
2.4918270e+00 0.0000000e+00 9.1386929e+00 
8.4677207e-01 0.0000000e+00 1.5042374e+00 
4.0943027e+00 0.0000000e+00 8.4081745e+00 
8.6281651e-01 0.0000000e+00 2.5007062e+00 
1.7315160e+00 0.0000000e+00 3.0001178e+00 
1.7319617e+00 0.0000000e+00 4.0000196e+00 
2.5980761e+00 0.0000000e+00 3.5000000e+00 
2.5536871e+00 0.0000000e+00 4.4963923e+00 
2.5928419e+00 0.0000000e+00 2.4239938e+00 
1.5037409e+00 0.0000000e+00 9.1535149e+00 
1.8433737e+00 0.0000000e+00 8.1858873e+00 
3.0000000e+00 0.0000000e+00 8.2679491e+00 
2.5000000e+00 0.0000000e+00 7.4019237e+00 
3.5042722e+00 0.0000000e+00 7.4271150e+00 
3.0310018e+00 0.0000000e+00 6.5282087e+00 
2.0373929e+00 0.0000000e+00 6.5307913e+00 
3.4767809e+00 0.0000000e+00 5.8031492e+00 
2.5452602e+00 0.0000000e+00 5.5720768e+00 
1.6456656e+00 0.0000000e+00 1.9697139e+00 
8.6297011e-01 0.0000000e+00 4.4947371e+00 
1.0111579e+00 0.0000000e+00 6.5282545e+00 
3.4994321e+00 0.0000000e+00 8.4691072e-01 
4.1860156e+00 0.0000000e+00 3.5040276e+00 
1.7320508e+00 0.0000000e+00 5.0000000e+00 
4.0544066e+00 0.0000000e+00 1.5781221e+00 
1.5817389e+00 0.0000000e+00 9.3943578e-01 
8.3166349e-01 0.0000000e+00 8.5090933e+00 
3.4686174e+00 0.0000000e+00 9.1752682e+00 
3.0709300e+00 0.0000000e+00 1.5799091e+00 
3.3927374e+00 0.0000000e+00 3.0399952e+00 
3.3826034e+00 0.0000000e+00 3.9747651e+00 
4.3420062e+00 0.0000000e+00 7.4688983e+00 
3.4023225e+00 0.0000000e+00 4.9314723e+00 
1.6740381e+00 0.0000000e+00 7.3014426e+00 
4.2715640e+00 0.0000000e+00 5.4758859e+00 
1.6225953e+00 0.0000000e+00 5.8104177e+00 
4.2679491e+00 0.0000000e+00 9.2679491e+00 
7.3205084e-01 0.0000000e+00 7.3205084e-01 
4.2679491e+00 0.0000000e+00 7.3205084e-01 
7.3205084e-01 0.0000000e+00 9.2679491e+00 
3.4586334e+00 0.0000000e+00 2.2347178e+00 
2.2895701e+00 0.0000000e+00 1.5463171e+00 
5.0000000e+00 2.2345026e+00 1.5046000e+00 
[...]
POINT_DATA 460
FIELD FieldData 2
DISPLACEMENT 3 460  float
0.0000000e+00 0.0000000e+00 0.0000000e+00 
0.0000000e+00 0.0000000e+00 0.0000000e+00 
0.0000000e+00 9.4534860e-09 0.0000000e+00 
0.0000000e+00 7.8825053e-09 0.0000000e+00 
0.0000000e+00 0.0000000e+00 0.0000000e+00 
0.0000000e+00 0.0000000e+00 0.0000000e+00 
0.0000000e+00 -2.8507175e-06 0.0000000e+00 
0.0000000e+00 -7.1699964e-05 0.0000000e+00 
0.0000000e+00 -1.6135276e-09 0.0000000e+00 
0.0000000e+00 -1.6514804e-09 0.0000000e+00 
0.0000000e+00 -1.7317492e-09 0.0000000e+00 
0.0000000e+00 -1.8209487e-09 0.0000000e+00 
0.0000000e+00 -1.8731694e-09 0.0000000e+00 
0.0000000e+00 -1.8064229e-09 0.0000000e+00 
0.0000000e+00 -1.4949062e-09 0.0000000e+00 
0.0000000e+00 -7.6616780e-10 0.0000000e+00 
0.0000000e+00 5.7844318e-10 0.0000000e+00 
0.0000000e+00 2.6860421e-09 0.0000000e+00 
0.0000000e+00 5.5486700e-09 0.0000000e+00 
-7.0918033e-10 8.8821395e-09 -1.7635303e-09 
-1.3322187e-09 1.3770932e-08 -4.0669264e-09 
-1.6118896e-09 2.1365775e-08 -4.4313171e-09 
-2.8095131e-09 3.3363179e-08 -4.0742520e-09 
-4.6225170e-09 4.9463907e-08 2.5451592e-09 
-6.3695533e-09 6.6216849e-08 1.5103266e-08 
-8.3963663e-09 7.3895812e-08 4.1710706e-08 
-2.4712710e-08 5.4598331e-08 1.0886917e-07 
-4.7588614e-08 -1.3601783e-08 2.0060421e-07 
-1.1416688e-07 -1.3438847e-07 4.3488470e-07 
-2.0589719e-07 -2.6156408e-07 7.2492719e-07 
-2.7322071e-07 -2.6663724e-07 1.1909700e-06 
-6.9657142e-07 -5.6433627e-09 2.0971581e-06 
-1.2534942e-06 4.5401526e-07 3.0538372e-06 
-2.0672421e-06 3.7048210e-08 5.2351147e-06 
-2.6592802e-06 -4.7527469e-06 7.7952373e-06 
-4.1677199e-06 -2.2399061e-05 1.7925469e-05 
-6.6678381e-06 -6.7756024e-05 1.5836127e-05 
-5.6191707e-06 -1.6228114e-04 -7.6783917e-06 
0.0000000e+00 -3.1617409e-04 0.0000000e+00 
0.0000000e+00 -5.0541700e-04 0.0000000e+00 
0.0000000e+00 -5.7928136e-04 0.0000000e+00 
0.0000000e+00 -4.9012166e-04 0.0000000e+00 
0.0000000e+00 -3.4058091e-04 0.0000000e+00 
0.0000000e+00 -1.9689489e-04 0.0000000e+00 
0.0000000e+00 -8.6583779e-05 0.0000000e+00 
0.0000000e+00 -1.4688089e-05 0.0000000e+00 
0.0000000e+00 2.3725348e-05 0.0000000e+00 
0.0000000e+00 3.5389705e-05 0.0000000e+00 
0.0000000e+00 -1.4522565e-09 0.0000000e+00 
0.0000000e+00 -1.5319976e-09 0.0000000e+00 
0.0000000e+00 -1.7091416e-09 0.0000000e+00 
0.0000000e+00 -1.8435884e-09 0.0000000e+00 
0.0000000e+00 -1.8865927e-09 0.0000000e+00 
0.0000000e+00 -1.8068882e-09 0.0000000e+00 
0.0000000e+00 -1.4941599e-09 0.0000000e+00 
0.0000000e+00 -7.6627710e-10 0.0000000e+00 
0.0000000e+00 5.8219157e-10 0.0000000e+00 
0.0000000e+00 2.6980953e-09 0.0000000e+00 
0.0000000e+00 5.5091487e-09 0.0000000e+00 
0.0000000e+00 8.8815071e-09 0.0000000e+00 
0.0000000e+00 1.3744138e-08 0.0000000e+00 
0.0000000e+00 2.1421032e-08 0.0000000e+00 
0.0000000e+00 3.3444586e-08 0.0000000e+00 
0.0000000e+00 4.9649451e-08 0.0000000e+00 
0.0000000e+00 6.6493911e-08 0.0000000e+00 
0.0000000e+00 7.4096846e-08 0.0000000e+00 
0.0000000e+00 5.4133327e-08 0.0000000e+00 
0.0000000e+00 -1.5180438e-08 0.0000000e+00 
0.0000000e+00 -1.3749026e-07 0.0000000e+00 
0.0000000e+00 -2.6377819e-07 0.0000000e+00 
0.0000000e+00 -2.6463761e-07 0.0000000e+00 
0.0000000e+00 1.7835811e-08 0.0000000e+00 
0.0000000e+00 5.1993919e-07 0.0000000e+00 
0.0000000e+00 1.9222861e-07 0.0000000e+00 
0.0000000e+00 -4.5267316e-06 0.0000000e+00 
0.0000000e+00 -2.2101292e-05 0.0000000e+00 
0.0000000e+00 -6.7862493e-05 0.0000000e+00 
0.0000000e+00 -1.6303996e-04 0.0000000e+00 
0.0000000e+00 -3.2080311e-04 0.0000000e+00 
0.0000000e+00 -5.0742808e-04 0.0000000e+00 
0.0000000e+00 -5.8158580e-04 0.0000000e+00 
0.0000000e+00 -4.9207913e-04 0.0000000e+00 
0.0000000e+00 -3.4194504e-04 0.0000000e+00 
0.0000000e+00 -1.9768582e-04 0.0000000e+00 
0.0000000e+00 -8.6933316e-05 0.0000000e+00 
0.0000000e+00 -1.4749260e-05 0.0000000e+00 
0.0000000e+00 2.3818558e-05 0.0000000e+00 
0.0000000e+00 3.5529862e-05 0.0000000e+00 
0.0000000e+00 0.0000000e+00 0.0000000e+00 
0.0000000e+00 0.0000000e+00 0.0000000e+00 
0.0000000e+00 0.0000000e+00 0.0000000e+00 
0.0000000e+00 0.0000000e+00 0.0000000e+00 
0.0000000e+00 0.0000000e+00 0.0000000e+00 
0.0000000e+00 0.0000000e+00 0.0000000e+00 
0.0000000e+00 0.0000000e+00 0.0000000e+00 
0.0000000e+00 0.0000000e+00 0.0000000e+00 
0.0000000e+00 0.0000000e+00 0.0000000e+00 
0.0000000e+00 0.0000000e+00 0.0000000e+00 
0.0000000e+00 0.0000000e+00 0.0000000e+00 
0.0000000e+00 0.0000000e+00 0.0000000e+00 
0.0000000e+00 0.0000000e+00 0.0000000e+00 
0.0000000e+00 0.0000000e+00 0.0000000e+00 
0.0000000e+00 0.0000000e+00 0.0000000e+00 
0.0000000e+00 0.0000000e+00 0.0000000e+00 
0.0000000e+00 0.0000000e+00 0.0000000e+00 
0.0000000e+00 0.0000000e+00 0.0000000e+00 
0.0000000e+00 0.0000000e+00 0.0000000e+00 
0.0000000e+00 0.0000000e+00 0.0000000e+00 
0.0000000e+00 0.0000000e+00 0.0000000e+00 
0.0000000e+00 0.0000000e+00 0.0000000e+00 
0.0000000e+00 0.0000000e+00 0.0000000e+00 
0.0000000e+00 4.9870987e-09 0.0000000e+00 
0.0000000e+00 8.4949852e-09 0.0000000e+00 
0.0000000e+00 6.9437012e-09 0.0000000e+00 
0.0000000e+00 4.0459804e-09 0.0000000e+00 
0.0000000e+00 0.0000000e+00 0.0000000e+00 
0.0000000e+00 0.0000000e+00 0.0000000e+00 
0.0000000e+00 0.0000000e+00 0.0000000e+00 
0.0000000e+00 0.0000000e+00 0.0000000e+00 
0.0000000e+00 0.0000000e+00 0.0000000e+00 
0.0000000e+00 0.0000000e+00 0.0000000e+00 
0.0000000e+00 0.0000000e+00 0.0000000e+00 
0.0000000e+00 0.0000000e+00 0.0000000e+00 
0.0000000e+00 0.0000000e+00 0.0000000e+00 
0.0000000e+00 0.0000000e+00 0.0000000e+00 
0.0000000e+00 0.0000000e+00 0.0000000e+00 
0.0000000e+00 0.0000000e+00 0.0000000e+00 
0.0000000e+00 0.0000000e+00 0.0000000e+00 
0.0000000e+00 0.0000000e+00 0.0000000e+00 
0.0000000e+00 0.0000000e+00 0.0000000e+00 
0.0000000e+00 0.0000000e+00 0.0000000e+00 
0.0000000e+00 0.0000000e+00 0.0000000e+00 
0.0000000e+00 0.0000000e+00 0.0000000e+00 
0.0000000e+00 0.0000000e+00 0.0000000e+00 
0.0000000e+00 0.0000000e+00 0.0000000e+00 
0.0000000e+00 0.0000000e+00 0.0000000e+00 
0.0000000e+00 0.0000000e+00 0.0000000e+00 
0.0000000e+00 1.4352251e-08 0.0000000e+00 
0.0000000e+00 3.2577880e-08 0.0000000e+00 
0.0000000e+00 6.2807104e-08 0.0000000e+00 
0.0000000e+00 1.2321298e-07 0.0000000e+00 
0.0000000e+00 1.4623959e-07 0.0000000e+00 
0.0000000e+00 1.5044368e-07 0.0000000e+00 
0.0000000e+00 -4.1680937e-07 0.0000000e+00 
0.0000000e+00 -9.6720089e-07 0.0000000e+00 
0.0000000e+00 -2.5487013e-06 0.0000000e+00 
0.0000000e+00 -1.5933533e-06 0.0000000e+00 
0.0000000e+00 -2.5453335e-06 0.0000000e+00 
0.0000000e+00 1.1816319e-08 0.0000000e+00 
0.0000000e+00 2.5568701e-08 0.0000000e+00 
0.0000000e+00 4.4437243e-08 0.0000000e+00 
0.0000000e+00 2.3283114e-08 0.0000000e+00 
0.0000000e+00 -1.5451134e-07 0.0000000e+00 
0.0000000e+00 -7.6697194e-07 0.0000000e+00 
0.0000000e+00 -3.2501080e-06 0.0000000e+00 
0.0000000e+00 -1.4703443e-05 0.0000000e+00 
0.0000000e+00 -5.1549858e-05 0.0000000e+00 
0.0000000e+00 -6.4569853e-05 0.0000000e+00 
0.0000000e+00 -3.2325319e-05 0.0000000e+00 
0.0000000e+00 9.2109627e-09 0.0000000e+00 
0.0000000e+00 9.5833954e-09 0.0000000e+00 
0.0000000e+00 9.3655856e-09 0.0000000e+00 
0.0000000e+00 -5.0402323e-06 0.0000000e+00 
0.0000000e+00 -1.3723917e-05 0.0000000e+00 
0.0000000e+00 -3.6285386e-05 0.0000000e+00 
0.0000000e+00 5.8517928e-09 0.0000000e+00 
0.0000000e+00 3.3367675e-09 0.0000000e+00 
0.0000000e+00 7.2983735e-09 0.0000000e+00 
0.0000000e+00 6.5528454e-09 0.0000000e+00 
0.0000000e+00 3.7008265e-09 0.0000000e+00 
0.0000000e+00 7.3547941e-09 0.0000000e+00 
0.0000000e+00 4.2812625e-09 0.0000000e+00 
0.0000000e+00 5.3614242e-09 0.0000000e+00 
0.0000000e+00 5.9940883e-09 0.0000000e+00 
0.0000000e+00 6.0710312e-09 0.0000000e+00 
0.0000000e+00 2.6652152e-09 0.0000000e+00 
0.0000000e+00 7.8901818e-09 0.0000000e+00 
0.0000000e+00 6.5328876e-09 0.0000000e+00 
0.0000000e+00 2.6404665e-09 0.0000000e+00 
0.0000000e+00 0.0000000e+00 0.0000000e+00 
0.0000000e+00 0.0000000e+00 0.0000000e+00 
0.0000000e+00 0.0000000e+00 0.0000000e+00 
0.0000000e+00 0.0000000e+00 0.0000000e+00 
0.0000000e+00 0.0000000e+00 0.0000000e+00 
0.0000000e+00 0.0000000e+00 0.0000000e+00 
0.0000000e+00 0.0000000e+00 0.0000000e+00 
0.0000000e+00 0.0000000e+00 0.0000000e+00 
0.0000000e+00 0.0000000e+00 0.0000000e+00 
0.0000000e+00 0.0000000e+00 0.0000000e+00 
0.0000000e+00 0.0000000e+00 0.0000000e+00 
0.0000000e+00 0.0000000e+00 0.0000000e+00 
0.0000000e+00 0.0000000e+00 0.0000000e+00 
0.0000000e+00 0.0000000e+00 0.0000000e+00 
0.0000000e+00 0.0000000e+00 0.0000000e+00 
0.0000000e+00 0.0000000e+00 0.0000000e+00 
0.0000000e+00 0.0000000e+00 0.0000000e+00 
0.0000000e+00 0.0000000e+00 0.0000000e+00 
0.0000000e+00 0.0000000e+00 0.0000000e+00 
0.0000000e+00 0.0000000e+00 0.0000000e+00 
0.0000000e+00 0.0000000e+00 0.0000000e+00 
0.0000000e+00 0.0000000e+00 0.0000000e+00 
0.0000000e+00 0.0000000e+00 0.0000000e+00 
0.0000000e+00 0.0000000e+00 0.0000000e+00 
0.0000000e+00 0.0000000e+00 0.0000000e+00 
0.0000000e+00 0.0000000e+00 0.0000000e+00 
0.0000000e+00 0.0000000e+00 0.0000000e+00 
0.0000000e+00 0.0000000e+00 0.0000000e+00 
0.0000000e+00 0.0000000e+00 0.0000000e+00 
0.0000000e+00 0.0000000e+00 0.0000000e+00 
0.0000000e+00 0.0000000e+00 0.0000000e+00 
0.0000000e+00 0.0000000e+00 0.0000000e+00 
0.0000000e+00 0.0000000e+00 0.0000000e+00 
0.0000000e+00 0.0000000e+00 0.0000000e+00 
0.0000000e+00 0.0000000e+00 0.0000000e+00 
0.0000000e+00 0.0000000e+00 0.0000000e+00 
0.0000000e+00 0.0000000e+00 0.0000000e+00 
0.0000000e+00 0.0000000e+00 0.0000000e+00 
0.0000000e+00 0.0000000e+00 0.0000000e+00 
0.0000000e+00 0.0000000e+00 0.0000000e+00 
0.0000000e+00 0.0000000e+00 0.0000000e+00 
0.0000000e+00 0.0000000e+00 0.0000000e+00 
0.0000000e+00 0.0000000e+00 0.0000000e+00 
0.0000000e+00 0.0000000e+00 0.0000000e+00 
0.0000000e+00 0.0000000e+00 0.0000000e+00 
0.0000000e+00 0.0000000e+00 0.0000000e+00 
0.0000000e+00 0.0000000e+00 0.0000000e+00 
0.0000000e+00 0.0000000e+00 0.0000000e+00 
0.0000000e+00 0.0000000e+00 0.0000000e+00 
0.0000000e+00 2.0241725e-08 0.0000000e+00 
0.0000000e+00 -1.6193412e-06 0.0000000e+00 
0.0000000e+00 8.2412249e-08 0.0000000e+00 
0.0000000e+00 1.6637864e-07 0.0000000e+00 
0.0000000e+00 -5.5867105e-07 0.0000000e+00 
0.0000000e+00 1.8791669e-08 0.0000000e+00 
0.0000000e+00 4.3642373e-08 0.0000000e+00 
0.0000000e+00 -4.3055032e-08 0.0000000e+00 
0.0000000e+00 3.7465497e-08 0.0000000e+00 
0.0000000e+00 6.5837398e-08 0.0000000e+00 
0.0000000e+00 3.9966896e-08 0.0000000e+00 
0.0000000e+00 1.3709246e-07 0.0000000e+00 
0.0000000e+00 1.4421109e-07 0.0000000e+00 
0.0000000e+00 -3.4575527e-07 0.0000000e+00 
0.0000000e+00 8.7686161e-09 0.0000000e+00 
0.0000000e+00 -7.6203156e-07 0.0000000e+00 
0.0000000e+00 -1.0670028e-06 0.0000000e+00 
0.0000000e+00 9.9317914e-09 0.0000000e+00 
0.0000000e+00 1.0901774e-07 0.0000000e+00 
0.0000000e+00 -6.5250148e-08 0.0000000e+00 
0.0000000e+00 2.1156216e-08 0.0000000e+00 
0.0000000e+00 1.3325413e-07 0.0000000e+00 
0.0000000e+00 8.3510656e-08 0.0000000e+00 
0.0000000e+00 4.6168982e-08 0.0000000e+00 
0.0000000e+00 -6.0157464e-07 0.0000000e+00 
0.0000000e+00 -2.0741413e-06 0.0000000e+00 
0.0000000e+00 -8.4431412e-07 0.0000000e+00 
0.0000000e+00 1.1545285e-08 0.0000000e+00 
0.0000000e+00 4.8119655e-09 0.0000000e+00 
0.0000000e+00 -3.2155636e-05 0.0000000e+00 
0.0000000e+00 8.0693576e-09 0.0000000e+00 
0.0000000e+00 1.3406624e-08 0.0000000e+00 
0.0000000e+00 -2.0130530e-08 0.0000000e+00 
0.0000000e+00 -4.4006647e-06 0.0000000e+00 
0.0000000e+00 3.9667167e-08 0.0000000e+00 
0.0000000e+00 -3.8442712e-07 0.0000000e+00 
0.0000000e+00 -8.3263303e-06 0.0000000e+00 
0.0000000e+00 1.3883174e-08 0.0000000e+00 
0.0000000e+00 3.0171972e-08 0.0000000e+00 
0.0000000e+00 -2.4163407e-08 0.0000000e+00 
0.0000000e+00 -1.7697040e-06 0.0000000e+00 
0.0000000e+00 -9.7865359e-07 0.0000000e+00 
0.0000000e+00 -2.7983704e-05 0.0000000e+00 
0.0000000e+00 1.5697809e-08 0.0000000e+00 
0.0000000e+00 7.4216255e-09 0.0000000e+00 
0.0000000e+00 -9.5552487e-06 0.0000000e+00 
0.0000000e+00 -9.9131249e-08 0.0000000e+00 
0.0000000e+00 -1.1152176e-06 0.0000000e+00 
0.0000000e+00 -1.4140364e-09 0.0000000e+00 
0.0000000e+00 2.5481743e-08 0.0000000e+00 
0.0000000e+00 -3.4622337e-06 0.0000000e+00 
0.0000000e+00 -1.7103572e-07 0.0000000e+00 
0.0000000e+00 -1.2569042e-05 0.0000000e+00 
0.0000000e+00 1.6972459e-08 0.0000000e+00 
0.0000000e+00 -1.5461623e-05 0.0000000e+00 
0.0000000e+00 9.1142116e-09 0.0000000e+00 
0.0000000e+00 4.1753370e-09 0.0000000e+00 
0.0000000e+00 -5.7527406e-05 0.0000000e+00 
0.0000000e+00 -1.7763045e-05 0.0000000e+00 
0.0000000e+00 -3.3082047e-06 0.0000000e+00 
0.0000000e+00 -2.2472766e-05 0.0000000e+00 
0.0000000e+00 -8.1795741e-05 0.0000000e+00 
0.0000000e+00 -9.5705836e-06 0.0000000e+00 
0.0000000e+00 -8.6130804e-06 0.0000000e+00 
0.0000000e+00 -4.1007497e-06 0.0000000e+00 
0.0000000e+00 -6.0874700e-05 0.0000000e+00 
0.0000000e+00 -3.0819905e-05 0.0000000e+00 
0.0000000e+00 -1.0854844e-05 0.0000000e+00 
0.0000000e+00 -1.7931707e-06 0.0000000e+00 
0.0000000e+00 -3.7996956e-06 0.0000000e+00 
0.0000000e+00 -1.1550797e-04 0.0000000e+00 
0.0000000e+00 -2.6212290e-05 0.0000000e+00 
-6.6801356e-08 1.0068841e-07 2.9728756e-07 
-4.5600373e-07 -5.5185438e-07 1.5610511e-06 
-2.4925898e-06 -6.2442600e-06 6.0626089e-06 
-4.4233763e-09 3.7621380e-08 -6.2201094e-10 
-1.3897113e-08 7.9586492e-08 3.6151512e-08 
-1.4710430e-07 1.6703089e-07 2.4555038e-07 
-3.9269556e-09 5.2387932e-08 -1.3722445e-09 
-7.9640574e-07 -7.0560253e-07 1.0549495e-06 
-1.5610592e-09 1.7257911e-08 -4.5491833e-09 
-6.3363791e-06 -3.6935300e-05 1.2999762e-05 
-2.8696470e-10 1.3262439e-08 -4.9257980e-09 
-3.7014700e-06 -8.0199079e-06 1.3994500e-06 
-5.1127012e-07 -1.4878083e-07 6.9434429e-07 
-1.0728207e-06 -8.8048500e-07 1.8398678e-06 
-2.6271264e-06 -3.0982605e-06 3.3623855e-06 
-1.8441474e-06 -2.5138329e-06 2.4684725e-06 
-8.2827688e-07 -8.7291812e-07 1.4602239e-06 
-4.0927375e-06 -9.1942056e-06 4.2472852e-06 
-1.2737750e-06 -1.6259619e-06 3.1880518e-06 
-4.2217587e-07 -1.4910377e-07 1.0353724e-06 
-1.9546722e-07 8.9884821e-08 4.2935628e-07 
-2.3383456e-07 -2.2671550e-08 6.7978232e-07 
-9.7552615e-08 1.6618799e-07 3.4881310e-07 
-6.1851495e-08 1.9346578e-07 1.4651546e-07 
-4.7985086e-08 1.5730045e-07 1.2367391e-07 
-2.8260603e-08 1.1177082e-07 4.7909349e-08 
-1.3869728e-08 9.6105985e-08 4.2003343e-08 
-9.9183524e-09 7.6470542e-08 1.1045798e-08 
-1.1081735e-08 5.9200342e-08 1.2109315e-08 
-5.8005143e-09 4.2234316e-08 -3.7870458e-09 
-2.9347471e-09 3.0393437e-08 -2.9869867e-09 
-1.6980387e-07 1.0107896e-07 6.7834281e-07 
-3.3691333e-07 -1.7302072e-07 1.0087475e-06 
-3.4028471e-08 9.9800474e-08 6.6839632e-08 
-1.1376839e-08 9.9884709e-08 1.2075731e-08 
-5.2672835e-06 -1.8100816e-05 2.9556277e-06 
-4.3192824e-08 1.5951275e-07 1.9274542e-07 
-6.5835550e-08 1.8411083e-07 1.1987518e-07 
-5.9055211e-10 1.4393257e-08 -3.6695882e-09 
-2.1073870e-06 -2.7866795e-06 1.3515427e-06 
-2.6226332e-06 -5.0315207e-06 5.3247327e-06 
-3.7735851e-06 -1.2908977e-05 6.0701204e-06 
-2.6451815e-07 -4.8334240e-08 8.9259328e-07 
-2.9681896e-10 2.3048763e-08 -4.3143156e-09 
-7.2644486e-09 5.5435290e-08 1.0162823e-08 
-1.1655647e-08 7.5074887e-08 2.1955353e-08 
-2.5753055e-08 8.0764501e-08 8.6629363e-08 
-5.5101022e-08 1.0043811e-07 1.9148162e-07 
-8.9456393e-07 -1.0241222e-06 2.5375414e-06 
-1.5728421e-06 -3.3261274e-06 4.6751625e-06 
-9.2715230e-10 1.0770021e-08 -2.9790956e-09 
-1.8846411e-09 2.6684495e-08 -4.4659427e-09 
-4.9468413e-06 -6.7493063e-05 7.9885403e-06 
-1.8431492e-09 2.4807228e-08 -4.8785829e-09 
-7.2801734e-09 4.7449678e-08 1.5803401e-09 
-4.2472593e-06 -1.7942246e-05 1.0310704e-05 
-7.7582058e-07 -8.6698697e-07 2.0187649e-06 
-1.7034654e-09 2.1615001e-08 -4.9286375e-09 
-1.1165089e-07 -4.8527435e-09 5.0234655e-07 
-3.9431002e-06 -6.9096054e-06 3.2922881e-06 
-1.8040500e-06 -3.7931745e-06 7.7255726e-07 
-6.8403054e-11 1.2155317e-08 -2.6823046e-09 
-3.4677946e-08 1.3424931e-07 6.2378056e-08 
-3.2218030e-09 3.2413229e-08 -3.4515093e-09 
-7.1026989e-06 -2.6051692e-05 8.1459111e-06 
-5.0388843e-07 -2.2344933e-07 1.1939262e-06 
-2.3822393e-09 3.4880991e-08 -3.2864058e-09 
-8.4401357e-09 7.0635906e-08 1.0158019e-08 
-9.3076297e-10 1.4667164e-08 -3.3121561e-09 
-8.1685059e-08 1.0146092e-07 3.6657741e-07 
-6.9357379e-06 -3.6626665e-05 6.6594530e-06 
-1.4939973e-09 3.3611293e-08 -7.8873269e-10 
-1.3788158e-09 2.3649120e-08 -3.2687142e-09 
-1.9504307e-09 4.2829747e-08 3.3131322e-09 
-3.1861527e-09 5.4155297e-08 1.0380949e-08 
-9.6789865e-10 1.5752979e-08 -2.9972853e-09 
-4.3875961e-09 5.2960896e-08 2.8307413e-08 
-2.0429413e-08 1.8905494e-08 7.7667913e-08 
-2.6138702e-08 -4.3315143e-08 1.5742148e-07 
-8.8560107e-08 -2.4456685e-07 5.2056095e-07 
-2.2745522e-07 -4.1386920e-07 1.0629248e-06 
-1.9877409e-07 -7.2983943e-07 1.4870033e-06 
-3.6969027e-07 -1.6718361e-06 2.4977687e-06 
-5.3680498e-07 -3.5001044e-06 3.9455913e-06 
-1.1504147e-06 -9.2718801e-06 5.6296794e-06 
-1.6321927e-06 -2.0903968e-05 8.8575462e-06 
-1.6761662e-06 -4.4901077e-05 9.8085347e-06 
-3.0495416e-06 -9.3673545e-05 6.6742095e-06 
-7.6573298e-10 9.8340394e-09 -2.1434490e-09 
1.1447532e-09 2.3797936e-08 3.4965839e-10 
3.8058015e-09 7.1346690e-08 -2.6442009e-08 
5.9664082e-08 5.6001841e-08 -4.1286575e-07 
5.9756002e-07 -2.1978508e-06 -2.0657787e-06 
2.5810214e-06 -1.5645988e-05 -6.0902094e-06 
1.5386954e-09 4.2062268e-08 -1.3956354e-09 
3.2350428e-08 1.0567582e-07 -6.7151753e-08 
2.5748827e-07 -1.9149547e-07 -7.0008343e-07 
-1.7789974e-08 1.0628137e-07 -3.3185568e-08 
-2.0925944e-10 4.6449589e-08 3.4015601e-09 
8.2902227e-11 1.4898868e-08 1.5211555e-09 
1.5668570e-06 -2.0825141e-06 -2.1594285e-06 
-1.6580717e-10 1.5490006e-08 2.6717162e-09 
4.4487841e-08 -5.3930717e-07 -3.8083058e-07 
1.4428934e-07 -7.2986418e-06 -2.9411815e-06 
-5.5458798e-09 7.3973254e-08 5.2126286e-09 
1.3896064e-08 1.5906484e-07 -1.4058228e-08 
2.1720643e-09 5.5091771e-08 2.1816304e-09 
-9.2478061e-09 4.7118370e-08 -2.3247402e-09 
-9.0882155e-09 8.1404970e-08 -1.3427726e-07 
-1.5491089e-10 2.9769929e-08 1.7506243e-09 
1.0293017e-07 9.4395354e-08 -1.6932454e-07 
1.7237659e-06 -3.5885620e-05 -9.5888581e-06 
-1.8352948e-10 1.5033057e-08 3.3888488e-09 
1.3342897e-06 -3.7778968e-06 -7.2048232e-07 
3.3017977e-09 2.4687781e-08 -1.1130747e-08 
1.1149395e-07 1.4730914e-08 -3.7399835e-07 
9.8977748e-10 2.1421354e-08 -1.5536077e-09 
1.8080130e-09 3.7826474e-08 -2.7315060e-08 
-3.8155135e-10 9.8276985e-08 1.2158045e-08 
1.8306523e-07 -1.5002639e-07 -1.4651251e-07 
-1.5737113e-07 -1.1702807e-06 -2.8731327e-07 
-3.0416777e-07 -1.6002111e-06 -2.0199703e-08 
-6.1705208e-08 3.0500019e-08 1.4078387e-08 
2.7491692e-06 -8.3288924e-06 -2.1035908e-06 
1.8952332e-07 -5.9063495e-06 -1.8107412e-06 
9.2288267e-11 8.6843919e-09 1.1555646e-09 
6.9357746e-09 8.2278596e-08 5.2351035e-10 
2.3137896e-10 8.5003755e-09 1.3102313e-09 
1.4908137e-07 -6.1078924e-07 -1.0436968e-06 
-8.8278824e-09 4.7499462e-08 -6.6878016e-08 
2.5438269e-06 -2.1871232e-05 -1.8320245e-06 
7.6005733e-07 -5.0569165e-06 -4.5162519e-06 
-7.2995392e-09 1.1222525e-07 2.4422246e-08 
-2.0406742e-10 1.9574786e-08 2.2386630e-09 
1.4108354e-08 1.9133745e-07 -2.5164098e-08 
5.3398166e-09 2.9899212e-08 -2.4661890e-09 
1.3934628e-06 -2.8731663e-06 -2.5978331e-06 
-8.3410390e-10 3.5050306e-08 2.5853608e-09 
5.6535931e-09 -7.5896915e-09 -2.3714729e-07 
-7.2481882e-10 3.5976949e-08 3.2609171e-09 
6.8623058e-07 -6.8150456e-07 -9.1082075e-07 
3.1440015e-07 -1.7327751e-05 -1.3989097e-06 
-1.3646498e-07 -2.9506757e-07 1.6059074e-07 
1.8685437e-08 -6.7227347e-08 -3.0087020e-07 
2.2252233e-07 -2.8786400e-07 -8.2033097e-07 
2.2996276e-06 -1.8029787e-05 -6.2144800e-06 
-1.4699381e-10 1.2178596e-08 1.6187059e-09 
-6.7917019e-09 1.4759591e-07 1.8990958e-08 
1.5029293e-08 4.6408761e-08 -2.9248207e-08 
-1.4217489e-08 1.8353586e-07 4.6177565e-08 
2.7793669e-07 -8.9222254e-08 -4.1135820e-07 
-9.3955421e-10 3.9501703e-08 3.6825130e-09 
-7.1891827e-07 -1.6467866e-05 -1.6695561e-06 
2.3898345e-08 4.5296787e-08 -9.1923603e-08 
-9.6447295e-08 -1.1036766e-06 2.6324733e-07 