# vtk DataFile Version 4.0
vtk output
ASCII
DATASET UNSTRUCTURED_GRID
POINTS 460 float
0.0000000e+00 0.0000000e+00 0.0000000e+00 
5.0000000e+00 0.0000000e+00 0.0000000e+00 
5.0000000e+00 3.0000000e+00 0.0000000e+00 
0.0000000e+00 3.0000000e+00 0.0000000e+00 
0.0000000e+00 0.0000000e+00 1.0000000e+01 
5.0000000e+00 0.0000000e+00 1.0000000e+01 
5.0000000e+00 3.0000000e+00 1.0000000e+01 
0.0000000e+00 3.0000000e+00 1.0000000e+01 
1.0000000e+00 3.0000000e+00 -5.0000000e+00 
1.0000000e+00 3.0000000e+00 -4.5000000e+00 
1.0000000e+00 3.0000000e+00 -4.0000000e+00 
1.0000000e+00 3.0000000e+00 -3.5000000e+00 
1.0000000e+00 3.0000000e+00 -3.0000000e+00 
1.0000000e+00 3.0000000e+00 -2.5000000e+00 
1.0000000e+00 3.0000000e+00 -2.0000000e+00 
1.0000000e+00 3.0000000e+00 -1.5000000e+00 
1.0000000e+00 3.0000000e+00 -1.0000000e+00 
1.0000000e+00 3.0000000e+00 -5.0000000e-01 
1.0000000e+00 3.0000000e+00 0.0000000e+00 
1.0000000e+00 3.0000000e+00 5.0000000e-01 
1.0000000e+00 3.0000000e+00 1.0000000e+00 
1.0000000e+00 3.0000000e+00 1.5000000e+00 
1.0000000e+00 3.0000000e+00 2.0000000e+00 
1.0000000e+00 3.0000000e+00 2.5000000e+00 
1.0000000e+00 3.0000000e+00 3.0000000e+00 
1.0000000e+00 3.0000000e+00 3.5000000e+00 
1.0000000e+00 3.0000000e+00 4.0000000e+00 
1.0000000e+00 3.0000000e+00 4.5000000e+00 
1.0000000e+00 3.0000000e+00 5.0000000e+00 
1.0000000e+00 3.0000000e+00 5.5000000e+00 
1.0000000e+00 3.0000000e+00 6.0000000e+00 
1.0000000e+00 3.0000000e+00 6.5000000e+00 
1.0000000e+00 3.0000000e+00 7.0000000e+00 
1.0000000e+00 3.0000000e+00 7.5000000e+00 
1.0000000e+00 3.0000000e+00 8.0000000e+00 
1.0000000e+00 3.0000000e+00 8.5000000e+00 
1.0000000e+00 3.0000000e+00 9.0000000e+00 
1.0000000e+00 3.0000000e+00 9.5000000e+00 
1.0000000e+00 3.0000000e+00 1.0000000e+01 
1.0000000e+00 3.0000000e+00 1.0500000e+01 
1.0000000e+00 3.0000000e+00 1.1000000e+01 
1.0000000e+00 3.0000000e+00 1.1500000e+01 
1.0000000e+00 3.0000000e+00 1.2000000e+01 
1.0000000e+00 3.0000000e+00 1.2500000e+01 
1.0000000e+00 3.0000000e+00 1.3000000e+01 
1.0000000e+00 3.0000000e+00 1.3500000e+01 
1.0000000e+00 3.0000000e+00 1.4000000e+01 
1.0000000e+00 3.0000000e+00 1.4500000e+01 
1.0000000e+00 3.0250001e+00 -5.0000000e+00 
1.0000000e+00 3.0250001e+00 -4.5000000e+00 
1.0000000e+00 3.0250001e+00 -4.0000000e+00 
1.0000000e+00 3.0250001e+00 -3.5000000e+00 
1.0000000e+00 3.0250001e+00 -3.0000000e+00 
1.0000000e+00 3.0250001e+00 -2.5000000e+00 
1.0000000e+00 3.0250001e+00 -2.0000000e+00 
1.0000000e+00 3.0250001e+00 -1.5000000e+00 
1.0000000e+00 3.0250001e+00 -1.0000000e+00 
1.0000000e+00 3.0250001e+00 -5.0000000e-01 
1.0000000e+00 3.0250001e+00 0.0000000e+00 
1.0000000e+00 3.0250001e+00 5.0000000e-01 
1.0000000e+00 3.0250001e+00 1.0000000e+00 
1.0000000e+00 3.0250001e+00 1.5000000e+00 
1.0000000e+00 3.0250001e+00 2.0000000e+00 
1.0000000e+00 3.0250001e+00 2.5000000e+00 
1.0000000e+00 3.0250001e+00 3.0000000e+00 
1.0000000e+00 3.0250001e+00 3.5000000e+00 
1.0000000e+00 3.0250001e+00 4.0000000e+00 
1.0000000e+00 3.0250001e+00 4.5000000e+00 
1.0000000e+00 3.0250001e+00 5.0000000e+00 
1.0000000e+00 3.0250001e+00 5.5000000e+00 
1.0000000e+00 3.0250001e+00 6.0000000e+00 
1.0000000e+00 3.0250001e+00 6.5000000e+00 
1.0000000e+00 3.0250001e+00 7.0000000e+00 
1.0000000e+00 3.0250001e+00 7.5000000e+00 
1.0000000e+00 3.0250001e+00 8.0000000e+00 
1.0000000e+00 3.0250001e+00 8.5000000e+00 
1.0000000e+00 3.0250001e+00 9.0000000e+00 
1.0000000e+00 3.0250001e+00 9.5000000e+00 
1.0000000e+00 3.0250001e+00 1.0000000e+01 
1.0000000e+00 3.0250001e+00 1.0500000e+01 
1.0000000e+00 3.0250001e+00 1.1000000e+01 
1.0000000e+00 3.0250001e+00 1.1500000e+01 
1.0000000e+00 3.0250001e+00 1.2000000e+01 
1.0000000e+00 3.0250001e+00 1.2500000e+01 
1.0000000e+00 3.0250001e+00 1.3000000e+01 
1.0000000e+00 3.0250001e+00 1.3500000e+01 
1.0000000e+00 3.0250001e+00 1.4000000e+01 
1.0000000e+00 3.0250001e+00 1.4500000e+01 
1.0000000e+00 -2.0000000e+00 -5.0000000e+00 
1.0000000e+00 -2.0000000e+00 -4.5000000e+00 
1.0000000e+00 -2.0000000e+00 -4.0000000e+00 
1.0000000e+00 -2.0000000e+00 -3.5000000e+00 
1.0000000e+00 -2.0000000e+00 -3.0000000e+00 
1.0000000e+00 -2.0000000e+00 -2.5000000e+00 
1.0000000e+00 -2.0000000e+00 -2.0000000e+00 
1.0000000e+00 -2.0000000e+00 -1.5000000e+00 
1.0000000e+00 -2.0000000e+00 -1.0000000e+00 
1.0000000e+00 -2.0000000e+00 -5.0000000e-01 
1.0000000e+00 -2.0000000e+00 1.0500000e+01 
1.0000000e+00 -2.0000000e+00 1.1000000e+01 
1.0000000e+00 -2.0000000e+00 1.1500000e+01 
1.0000000e+00 -2.0000000e+00 1.2000000e+01 
1.0000000e+00 -2.0000000e+00 1.2500000e+01 
1.0000000e+00 -2.0000000e+00 1.3000000e+01 
1.0000000e+00 -2.0000000e+00 1.3500000e+01 
1.0000000e+00 -2.0000000e+00 1.4000000e+01 
1.0000000e+00 -2.0000000e+00 1.4500000e+01 
1.0000000e+00 0.0000000e+00 0.0000000e+00 
2.0000000e+00 0.0000000e+00 0.0000000e+00 
3.0000000e+00 0.0000000e+00 0.0000000e+00 
4.0000000e+00 0.0000000e+00 0.0000000e+00 
5.0000000e+00 1.0000000e+00 0.0000000e+00 
5.0000000e+00 2.0000000e+00 0.0000000e+00 
0.0000000e+00 2.0000000e+00 0.0000000e+00 
0.0000000e+00 1.0000000e+00 0.0000000e+00 
0.0000000e+00 0.0000000e+00 1.0000000e+00 
0.0000000e+00 0.0000000e+00 2.0000000e+00 
0.0000000e+00 0.0000000e+00 3.0000000e+00 
0.0000000e+00 0.0000000e+00 4.0000000e+00 
0.0000000e+00 0.0000000e+00 5.0000000e+00 
0.0000000e+00 0.0000000e+00 6.0000000e+00 
0.0000000e+00 0.0000000e+00 7.0000000e+00 
0.0000000e+00 0.0000000e+00 8.0000000e+00 
0.0000000e+00 0.0000000e+00 9.0000000e+00 
5.0000000e+00 0.0000000e+00 1.0000000e+00 
5.0000000e+00 0.0000000e+00 2.0000000e+00 
5.0000000e+00 0.0000000e+00 3.0000000e+00 
5.0000000e+00 0.0000000e+00 4.0000000e+00 
5.0000000e+00 0.0000000e+00 5.0000000e+00 
5.0000000e+00 0.0000000e+00 6.0000000e+00 
5.0000000e+00 0.0000000e+00 7.0000000e+00 
5.0000000e+00 0.0000000e+00 8.0000000e+00 
5.0000000e+00 0.0000000e+00 9.0000000e+00 
1.0000000e+00 0.0000000e+00 1.0000000e+01 
2.0000000e+00 0.0000000e+00 1.0000000e+01 
3.0000000e+00 0.0000000e+00 1.0000000e+01 
4.0000000e+00 0.0000000e+00 1.0000000e+01 
5.0000000e+00 3.0000000e+00 1.0000000e+00 
5.0000000e+00 3.0000000e+00 2.0000000e+00 
5.0000000e+00 3.0000000e+00 3.0000000e+00 
5.0000000e+00 3.0000000e+00 4.0000000e+00 
5.0000000e+00 3.0000000e+00 5.0000000e+00 
5.0000000e+00 3.0000000e+00 6.0000000e+00 
5.0000000e+00 3.0000000e+00 7.0000000e+00 
5.0000000e+00 3.0000000e+00 8.0000000e+00 
5.0000000e+00 3.0000000e+00 9.0000000e+00 
5.0000000e+00 1.0000000e+00 1.0000000e+01 
5.0000000e+00 2.0000000e+00 1.0000000e+01 
0.0000000e+00 3.0000000e+00 1.0000000e+00 
0.0000000e+00 3.0000000e+00 2.0000000e+00 
0.0000000e+00 3.0000000e+00 3.0000000e+00 
0.0000000e+00 3.0000000e+00 4.0000000e+00 
0.0000000e+00 3.0000000e+00 5.0000000e+00 
0.0000000e+00 3.0000000e+00 6.0000000e+00 
0.0000000e+00 3.0000000e+00 7.0000000e+00 
0.0000000e+00 3.0000000e+00 8.0000000e+00 
0.0000000e+00 3.0000000e+00 9.0000000e+00 
0.0000000e+00 2.0000000e+00 1.0000000e+01 
0.0000000e+00 1.0000000e+00 1.0000000e+01 
4.0000000e+00 3.0000000e+00 0.0000000e+00 
3.0000000e+00 3.0000000e+00 0.0000000e+00 
2.0000000e+00 3.0000000e+00 0.0000000e+00 
4.0000000e+00 3.0000000e+00 1.0000000e+01 
3.0000000e+00 3.0000000e+00 1.0000000e+01 
2.0000000e+00 3.0000000e+00 1.0000000e+01 
4.0618000e+00 1.5000000e+00 0.0000000e+00 
1.5046000e+00 7.6549745e-01 0.0000000e+00 
2.5000000e+00 2.1339746e+00 0.0000000e+00 
1.5046000e+00 2.2345026e+00 0.0000000e+00 
2.4957771e+00 8.1560516e-01 0.0000000e+00 
3.4707544e+00 2.2336540e+00 0.0000000e+00 
3.4700506e+00 7.5794268e-01 0.0000000e+00 
8.6322361e-01 1.5000000e+00 0.0000000e+00 
2.0000000e+00 1.5000000e+00 0.0000000e+00 
2.9960666e+00 1.4974480e+00 0.0000000e+00 
4.2679491e+00 7.3205084e-01 0.0000000e+00 
4.2679491e+00 2.2679491e+00 0.0000000e+00 
7.2695929e-01 2.2730408e+00 0.0000000e+00 
7.2695929e-01 7.2695929e-01 0.0000000e+00 
4.1822505e+00 0.0000000e+00 2.5515697e+00 
4.2017918e+00 0.0000000e+00 4.4725966e+00 
4.1114569e+00 0.0000000e+00 6.5092020e+00 
8.6602539e-01 0.0000000e+00 3.5000000e+00 
8.4778279e-01 0.0000000e+00 5.4684029e+00 
8.9629614e-01 0.0000000e+00 7.5867257e+00 
2.5566745e+00 0.0000000e+00 8.1853306e-01 
2.4918270e+00 0.0000000e+00 9.1386929e+00 
8.4677207e-01 0.0000000e+00 1.5042374e+00 
4.0943027e+00 0.0000000e+00 8.4081745e+00 
8.6281651e-01 0.0000000e+00 2.5007062e+00 
1.7315160e+00 0.0000000e+00 3.0001178e+00 
1.7319617e+00 0.0000000e+00 4.0000196e+00 
2.5980761e+00 0.0000000e+00 3.5000000e+00 
2.5536871e+00 0.0000000e+00 4.4963923e+00 
2.5928419e+00 0.0000000e+00 2.4239938e+00 
1.5037409e+00 0.0000000e+00 9.1535149e+00 
1.8433737e+00 0.0000000e+00 8.1858873e+00 
3.0000000e+00 0.0000000e+00 8.2679491e+00 
2.5000000e+00 0.0000000e+00 7.4019237e+00 
3.5042722e+00 0.0000000e+00 7.4271150e+00 
3.0310018e+00 0.0000000e+00 6.5282087e+00 
2.0373929e+00 0.0000000e+00 6.5307913e+00 
3.4767809e+00 0.0000000e+00 5.8031492e+00 
2.5452602e+00 0.0000000e+00 5.5720768e+00 
1.6456656e+00 0.0000000e+00 1.9697139e+00 
8.6297011e-01 0.0000000e+00 4.4947371e+00 
1.0111579e+00 0.0000000e+00 6.5282545e+00 
3.4994321e+00 0.0000000e+00 8.4691072e-01 
4.1860156e+00 0.0000000e+00 3.5040276e+00 
1.7320508e+00 0.0000000e+00 5.0000000e+00 
4.0544066e+00 0.0000000e+00 1.5781221e+00 
1.5817389e+00 0.0000000e+00 9.3943578e-01 
8.3166349e-01 0.0000000e+00 8.5090933e+00 
3.4686174e+00 0.0000000e+00 9.1752682e+00 
3.0709300e+00 0.0000000e+00 1.5799091e+00 
3.3927374e+00 0.0000000e+00 3.0399952e+00 
3.3826034e+00 0.0000000e+00 3.9747651e+00 
4.3420062e+00 0.0000000e+00 7.4688983e+00 
3.4023225e+00 0.0000000e+00 4.9314723e+00 
1.6740381e+00 0.0000000e+00 7.3014426e+00 
4.2715640e+00 0.0000000e+00 5.4758859e+00 
1.6225953e+00 0.0000000e+00 5.8104177e+00 
4.2679491e+00 0.0000000e+00 9.2679491e+00 
7.3205084e-01 0.0000000e+00 7.3205084e-01 
4.2679491e+00 0.0000000e+00 7.3205084e-01 
7.3205084e-01 0.0000000e+00 9.2679491e+00 
3.4586334e+00 0.0000000e+00 2.2347178e+00 
2.2895701e+00 0.0000000e+00 1.5463171e+00 
5.0000000e+00 2.2345026e+00 1.5046000e+00 
[...]
POINT_DATA 460
FIELD FieldData 2
DISPLACEMENT 3 460  float
0.0000000e+00 0.0000000e+00 0.0000000e+00 
0.0000000e+00 0.0000000e+00 0.0000000e+00 
0.0000000e+00 -5.1885313e-06 0.0000000e+00 
0.0000000e+00 -1.2373137e-04 0.0000000e+00 
0.0000000e+00 0.0000000e+00 0.0000000e+00 
0.0000000e+00 0.0000000e+00 0.0000000e+00 
0.0000000e+00 4.2952404e-08 0.0000000e+00 
0.0000000e+00 2.9864605e-08 0.0000000e+00 
0.0000000e+00 9.5901560e-06 0.0000000e+00 
0.0000000e+00 1.0654177e-05 0.0000000e+00 
0.0000000e+00 1.3491053e-05 0.0000000e+00 
0.0000000e+00 1.7126038e-05 0.0000000e+00 
0.0000000e+00 1.9657871e-05 0.0000000e+00 
0.0000000e+00 1.7790593e-05 0.0000000e+00 
0.0000000e+00 6.5815011e-06 0.0000000e+00 
0.0000000e+00 -2.0112691e-05 0.0000000e+00 
0.0000000e+00 -6.7818350e-05 0.0000000e+00 
0.0000000e+00 -1.3750083e-04 0.0000000e+00 
0.0000000e+00 -2.1961248e-04 0.0000000e+00 
-8.8303304e-06 -2.8122764e-04 -1.7507884e-05 
-1.4081096e-05 -2.7320735e-04 -1.3509882e-05 
-3.8283324e-06 -1.8859084e-04 -1.8222838e-05 
-4.7856834e-06 -1.0583817e-04 -2.6550690e-05 
-4.6516757e-06 -5.0424962e-05 -1.6119349e-05 
-2.7016549e-06 -2.0810192e-05 -1.1086954e-05 
-2.6590537e-06 -7.7786326e-06 -8.9256328e-06 
-1.3156128e-06 -2.8309657e-06 -5.0836370e-06 
-5.9009261e-07 -1.0128538e-06 -3.0596830e-06 
-2.1041930e-07 -4.0188118e-07 -1.5464722e-06 
-1.5931387e-07 -1.6438631e-07 -8.4034406e-07 
-1.5166060e-07 -3.7150773e-08 -5.5507792e-07 
-6.9669547e-08 3.4303593e-08 -2.8256525e-07 
-4.6950156e-08 6.9456391e-08 -1.4598419e-07 
-2.8182596e-08 8.2375379e-08 -6.5518783e-08 
-2.0176470e-08 7.8420975e-08 -3.4873569e-08 
-1.3123721e-08 6.6136330e-08 -5.2852216e-09 
-7.9222122e-09 5.1834878e-08 1.7215096e-09 
-4.4149164e-09 3.9610072e-08 8.0254070e-10 
0.0000000e+00 2.8879537e-08 0.0000000e+00 
0.0000000e+00 1.8139962e-08 0.0000000e+00 
0.0000000e+00 9.6812238e-09 0.0000000e+00 
0.0000000e+00 4.0564778e-09 0.0000000e+00 
0.0000000e+00 9.7300679e-10 0.0000000e+00 
0.0000000e+00 -2.8727251e-10 0.0000000e+00 
0.0000000e+00 -4.7321652e-10 0.0000000e+00 
0.0000000e+00 -1.8866791e-10 0.0000000e+00 
0.0000000e+00 1.5012540e-10 0.0000000e+00 
0.0000000e+00 2.9480823e-10 0.0000000e+00 
0.0000000e+00 9.6048416e-06 0.0000000e+00 
0.0000000e+00 1.0673369e-05 0.0000000e+00 
0.0000000e+00 1.3522236e-05 0.0000000e+00 
0.0000000e+00 1.7173070e-05 0.0000000e+00 
0.0000000e+00 1.9716967e-05 0.0000000e+00 
0.0000000e+00 1.7844504e-05 0.0000000e+00 
0.0000000e+00 6.5928702e-06 0.0000000e+00 
0.0000000e+00 -2.0205831e-05 0.0000000e+00 
0.0000000e+00 -6.8100097e-05 0.0000000e+00 
0.0000000e+00 -1.3805843e-04 0.0000000e+00 
0.0000000e+00 -2.1983185e-04 0.0000000e+00 
0.0000000e+00 -2.8534888e-04 0.0000000e+00 
0.0000000e+00 -2.7802103e-04 0.0000000e+00 
0.0000000e+00 -1.9120022e-04 0.0000000e+00 
0.0000000e+00 -1.0674932e-04 0.0000000e+00 
0.0000000e+00 -5.0681261e-05 0.0000000e+00 
0.0000000e+00 -2.0784726e-05 0.0000000e+00 
0.0000000e+00 -7.6427095e-06 0.0000000e+00 
0.0000000e+00 -2.7181277e-06 0.0000000e+00 
0.0000000e+00 -9.7783447e-07 0.0000000e+00 
0.0000000e+00 -3.8343876e-07 0.0000000e+00 
0.0000000e+00 -1.5718021e-07 0.0000000e+00 
0.0000000e+00 -3.6408547e-08 0.0000000e+00 
0.0000000e+00 3.4276848e-08 0.0000000e+00 
0.0000000e+00 6.9749994e-08 0.0000000e+00 
0.0000000e+00 8.2197928e-08 0.0000000e+00 
0.0000000e+00 7.8476695e-08 0.0000000e+00 
0.0000000e+00 6.6218469e-08 0.0000000e+00 
0.0000000e+00 5.2019587e-08 0.0000000e+00 
0.0000000e+00 3.9641208e-08 0.0000000e+00 
0.0000000e+00 2.8722987e-08 0.0000000e+00 
0.0000000e+00 1.8211567e-08 0.0000000e+00 
0.0000000e+00 9.7181374e-09 0.0000000e+00 
0.0000000e+00 4.0701549e-09 0.0000000e+00 
0.0000000e+00 9.7375141e-10 0.0000000e+00 
0.0000000e+00 -2.9202846e-10 0.0000000e+00 
0.0000000e+00 -4.7904536e-10 0.0000000e+00 
0.0000000e+00 -1.9357145e-10 0.0000000e+00 
0.0000000e+00 1.4646308e-10 0.0000000e+00 
0.0000000e+00 2.9169098e-10 0.0000000e+00 
0.0000000e+00 0.0000000e+00 0.0000000e+00 
0.0000000e+00 0.0000000e+00 0.0000000e+00 
0.0000000e+00 0.0000000e+00 0.0000000e+00 
0.0000000e+00 0.0000000e+00 0.0000000e+00 
0.0000000e+00 0.0000000e+00 0.0000000e+00 
0.0000000e+00 0.0000000e+00 0.0000000e+00 
0.0000000e+00 0.0000000e+00 0.0000000e+00 
0.0000000e+00 0.0000000e+00 0.0000000e+00 
0.0000000e+00 0.0000000e+00 0.0000000e+00 
0.0000000e+00 0.0000000e+00 0.0000000e+00 
0.0000000e+00 0.0000000e+00 0.0000000e+00 
0.0000000e+00 0.0000000e+00 0.0000000e+00 
0.0000000e+00 0.0000000e+00 0.0000000e+00 
0.0000000e+00 0.0000000e+00 0.0000000e+00 
0.0000000e+00 0.0000000e+00 0.0000000e+00 
0.0000000e+00 0.0000000e+00 0.0000000e+00 
0.0000000e+00 0.0000000e+00 0.0000000e+00 
0.0000000e+00 0.0000000e+00 0.0000000e+00 
0.0000000e+00 0.0000000e+00 0.0000000e+00 
0.0000000e+00 0.0000000e+00 0.0000000e+00 
0.0000000e+00 0.0000000e+00 0.0000000e+00 
0.0000000e+00 0.0000000e+00 0.0000000e+00 
0.0000000e+00 0.0000000e+00 0.0000000e+00 
0.0000000e+00 -2.6945886e-06 0.0000000e+00 
0.0000000e+00 -4.7900849e-06 0.0000000e+00 
0.0000000e+00 -1.0219594e-04 0.0000000e+00 
0.0000000e+00 -5.1076666e-05 0.0000000e+00 
0.0000000e+00 0.0000000e+00 0.0000000e+00 
0.0000000e+00 0.0000000e+00 0.0000000e+00 
0.0000000e+00 0.0000000e+00 0.0000000e+00 
0.0000000e+00 0.0000000e+00 0.0000000e+00 
0.0000000e+00 0.0000000e+00 0.0000000e+00 
0.0000000e+00 0.0000000e+00 0.0000000e+00 
0.0000000e+00 0.0000000e+00 0.0000000e+00 
0.0000000e+00 0.0000000e+00 0.0000000e+00 
0.0000000e+00 0.0000000e+00 0.0000000e+00 
0.0000000e+00 0.0000000e+00 0.0000000e+00 
0.0000000e+00 0.0000000e+00 0.0000000e+00 
0.0000000e+00 0.0000000e+00 0.0000000e+00 
0.0000000e+00 0.0000000e+00 0.0000000e+00 
0.0000000e+00 0.0000000e+00 0.0000000e+00 
0.0000000e+00 0.0000000e+00 0.0000000e+00 
0.0000000e+00 0.0000000e+00 0.0000000e+00 
0.0000000e+00 0.0000000e+00 0.0000000e+00 
0.0000000e+00 0.0000000e+00 0.0000000e+00 
0.0000000e+00 0.0000000e+00 0.0000000e+00 
0.0000000e+00 0.0000000e+00 0.0000000e+00 
0.0000000e+00 0.0000000e+00 0.0000000e+00 
0.0000000e+00 0.0000000e+00 0.0000000e+00 
0.0000000e+00 -4.2991205e-06 0.0000000e+00 
0.0000000e+00 -1.5450486e-06 0.0000000e+00 
0.0000000e+00 -1.2601785e-06 0.0000000e+00 
0.0000000e+00 1.6252206e-07 0.0000000e+00 
0.0000000e+00 2.2199866e-07 0.0000000e+00 
0.0000000e+00 3.3339452e-07 0.0000000e+00 
0.0000000e+00 1.7080770e-07 0.0000000e+00 
0.0000000e+00 1.0742502e-07 0.0000000e+00 
0.0000000e+00 5.6648847e-08 0.0000000e+00 
0.0000000e+00 2.1202251e-08 0.0000000e+00 
0.0000000e+00 3.8369222e-08 0.0000000e+00 
0.0000000e+00 -1.2407456e-04 0.0000000e+00 
0.0000000e+00 -6.9407710e-05 0.0000000e+00 
0.0000000e+00 -2.4954670e-05 0.0000000e+00 
0.0000000e+00 -7.0196897e-06 0.0000000e+00 
0.0000000e+00 -1.6647240e-06 0.0000000e+00 
0.0000000e+00 -2.7841460e-07 0.0000000e+00 
0.0000000e+00 5.6634799e-09 0.0000000e+00 
0.0000000e+00 4.6227960e-08 0.0000000e+00 
0.0000000e+00 3.6458527e-08 0.0000000e+00 
0.0000000e+00 2.5828093e-08 0.0000000e+00 
0.0000000e+00 1.4212151e-08 0.0000000e+00 
0.0000000e+00 -9.5588257e-06 0.0000000e+00 
0.0000000e+00 -2.6641183e-05 0.0000000e+00 
0.0000000e+00 -6.7468805e-05 0.0000000e+00 
0.0000000e+00 4.4546379e-08 0.0000000e+00 
0.0000000e+00 4.5076828e-08 0.0000000e+00 
0.0000000e+00 4.2739561e-08 0.0000000e+00 
0.0000000e+00 -6.5436848e-06 0.0000000e+00 
0.0000000e+00 -2.9614945e-05 0.0000000e+00 
0.0000000e+00 -3.9131501e-05 0.0000000e+00 
0.0000000e+00 -1.0247222e-04 0.0000000e+00 
0.0000000e+00 -1.8044981e-05 0.0000000e+00 
0.0000000e+00 -1.5520161e-05 0.0000000e+00 
0.0000000e+00 -5.8150054e-06 0.0000000e+00 
0.0000000e+00 -8.3042527e-05 0.0000000e+00 
0.0000000e+00 -4.7077501e-05 0.0000000e+00 
0.0000000e+00 -1.9665105e-05 0.0000000e+00 
0.0000000e+00 -3.2520450e-06 0.0000000e+00 
0.0000000e+00 -7.3585584e-06 0.0000000e+00 
0.0000000e+00 -1.3572126e-04 0.0000000e+00 
0.0000000e+00 -3.8067170e-05 0.0000000e+00 
0.0000000e+00 0.0000000e+00 0.0000000e+00 
0.0000000e+00 0.0000000e+00 0.0000000e+00 
0.0000000e+00 0.0000000e+00 0.0000000e+00 
0.0000000e+00 0.0000000e+00 0.0000000e+00 
0.0000000e+00 0.0000000e+00 0.0000000e+00 
0.0000000e+00 0.0000000e+00 0.0000000e+00 
0.0000000e+00 0.0000000e+00 0.0000000e+00 
0.0000000e+00 0.0000000e+00 0.0000000e+00 
0.0000000e+00 0.0000000e+00 0.0000000e+00 
0.0000000e+00 0.0000000e+00 0.0000000e+00 
0.0000000e+00 0.0000000e+00 0.0000000e+00 
0.0000000e+00 0.0000000e+00 0.0000000e+00 
0.0000000e+00 0.0000000e+00 0.0000000e+00 
0.0000000e+00 0.0000000e+00 0.0000000e+00 
0.0000000e+00 0.0000000e+00 0.0000000e+00 
0.0000000e+00 0.0000000e+00 0.0000000e+00 
0.0000000e+00 0.0000000e+00 0.0000000e+00 
0.0000000e+00 0.0000000e+00 0.0000000e+00 
0.0000000e+00 0.0000000e+00 0.0000000e+00 
0.0000000e+00 0.0000000e+00 0.0000000e+00 
0.0000000e+00 0.0000000e+00 0.0000000e+00 
0.0000000e+00 0.0000000e+00 0.0000000e+00 
0.0000000e+00 0.0000000e+00 0.0000000e+00 
0.0000000e+00 0.0000000e+00 0.0000000e+00 
0.0000000e+00 0.0000000e+00 0.0000000e+00 
0.0000000e+00 0.0000000e+00 0.0000000e+00 
0.0000000e+00 0.0000000e+00 0.0000000e+00 
0.0000000e+00 0.0000000e+00 0.0000000e+00 
0.0000000e+00 0.0000000e+00 0.0000000e+00 
0.0000000e+00 0.0000000e+00 0.0000000e+00 
0.0000000e+00 0.0000000e+00 0.0000000e+00 
0.0000000e+00 0.0000000e+00 0.0000000e+00 
0.0000000e+00 0.0000000e+00 0.0000000e+00 
0.0000000e+00 0.0000000e+00 0.0000000e+00 
0.0000000e+00 0.0000000e+00 0.0000000e+00 
0.0000000e+00 0.0000000e+00 0.0000000e+00 
0.0000000e+00 0.0000000e+00 0.0000000e+00 
0.0000000e+00 0.0000000e+00 0.0000000e+00 
0.0000000e+00 0.0000000e+00 0.0000000e+00 
0.0000000e+00 0.0000000e+00 0.0000000e+00 
0.0000000e+00 0.0000000e+00 0.0000000e+00 
0.0000000e+00 0.0000000e+00 0.0000000e+00 
0.0000000e+00 0.0000000e+00 0.0000000e+00 
0.0000000e+00 0.0000000e+00 0.0000000e+00 
0.0000000e+00 0.0000000e+00 0.0000000e+00 
0.0000000e+00 0.0000000e+00 0.0000000e+00 
0.0000000e+00 0.0000000e+00 0.0000000e+00 
0.0000000e+00 0.0000000e+00 0.0000000e+00 
0.0000000e+00 0.0000000e+00 0.0000000e+00 
0.0000000e+00 -1.8055316e-06 0.0000000e+00 
0.0000000e+00 3.8031292e-08 0.0000000e+00 
0.0000000e+00 9.7232160e-08 0.0000000e+00 
0.0000000e+00 3.9183493e-07 0.0000000e+00 
0.0000000e+00 1.3002702e-07 0.0000000e+00 
0.0000000e+00 -1.1415350e-06 0.0000000e+00 
0.0000000e+00 1.0694371e-08 0.0000000e+00 
0.0000000e+00 9.0382869e-08 0.0000000e+00 
0.0000000e+00 -2.7818126e-07 0.0000000e+00 
0.0000000e+00 1.1017524e-07 0.0000000e+00 
0.0000000e+00 -1.2523719e-06 0.0000000e+00 
0.0000000e+00 2.8292658e-07 0.0000000e+00 
0.0000000e+00 2.2235125e-07 0.0000000e+00 
0.0000000e+00 5.9499957e-08 0.0000000e+00 
0.0000000e+00 -1.9877132e-06 0.0000000e+00 
0.0000000e+00 2.9892437e-08 0.0000000e+00 
0.0000000e+00 7.3487371e-08 0.0000000e+00 
0.0000000e+00 -2.7209755e-06 0.0000000e+00 
0.0000000e+00 3.0203336e-07 0.0000000e+00 
0.0000000e+00 1.3666761e-07 0.0000000e+00 
0.0000000e+00 -1.7477965e-06 0.0000000e+00 
0.0000000e+00 2.2397045e-07 0.0000000e+00 
0.0000000e+00 1.0065686e-07 0.0000000e+00 
0.0000000e+00 -6.0319968e-07 0.0000000e+00 
0.0000000e+00 7.8909586e-08 0.0000000e+00 
0.0000000e+00 4.7771131e-08 0.0000000e+00 
0.0000000e+00 1.8430415e-08 0.0000000e+00 
0.0000000e+00 -3.3322694e-06 0.0000000e+00 
0.0000000e+00 -1.5583782e-06 0.0000000e+00 
0.0000000e+00 2.3436273e-08 0.0000000e+00 
0.0000000e+00 -7.1719784e-05 0.0000000e+00 
0.0000000e+00 -1.7763597e-05 0.0000000e+00 
0.0000000e+00 -1.4716242e-06 0.0000000e+00 
0.0000000e+00 -2.1178157e-09 0.0000000e+00 
0.0000000e+00 -1.2072926e-05 0.0000000e+00 
0.0000000e+00 -6.5304187e-07 0.0000000e+00 
0.0000000e+00 3.0942513e-08 0.0000000e+00 
0.0000000e+00 -6.4252758e-06 0.0000000e+00 
0.0000000e+00 -3.8144455e-05 0.0000000e+00 
0.0000000e+00 -3.2630080e-06 0.0000000e+00 
0.0000000e+00 -9.3634512e-08 0.0000000e+00 
0.0000000e+00 -2.0608931e-07 0.0000000e+00 
0.0000000e+00 3.3118106e-08 0.0000000e+00 
0.0000000e+00 -8.5519852e-05 0.0000000e+00 
0.0000000e+00 -2.6270665e-05 0.0000000e+00 
0.0000000e+00 1.0360499e-08 0.0000000e+00 
0.0000000e+00 -1.2498182e-06 0.0000000e+00 
0.0000000e+00 -3.2884884e-08 0.0000000e+00 
0.0000000e+00 -5.7624125e-06 0.0000000e+00 
0.0000000e+00 -1.7447644e-05 0.0000000e+00 
0.0000000e+00 -1.9174415e-09 0.0000000e+00 
0.0000000e+00 -3.0992140e-07 0.0000000e+00 
0.0000000e+00 2.4261892e-08 0.0000000e+00 
0.0000000e+00 -4.2703981e-05 0.0000000e+00 
0.0000000e+00 1.0970272e-08 0.0000000e+00 
0.0000000e+00 -1.1381270e-04 0.0000000e+00 
0.0000000e+00 -3.3505574e-05 0.0000000e+00 
0.0000000e+00 3.0214316e-08 0.0000000e+00 
0.0000000e+00 1.2613128e-08 0.0000000e+00 
0.0000000e+00 3.1780544e-08 0.0000000e+00 
0.0000000e+00 4.0645926e-08 0.0000000e+00 
0.0000000e+00 3.5172441e-08 0.0000000e+00 
0.0000000e+00 1.6449210e-08 0.0000000e+00 
0.0000000e+00 4.1423419e-08 0.0000000e+00 
0.0000000e+00 1.5065577e-08 0.0000000e+00 
0.0000000e+00 2.3186656e-08 0.0000000e+00 
0.0000000e+00 2.8666662e-08 0.0000000e+00 
0.0000000e+00 3.0723715e-08 0.0000000e+00 
0.0000000e+00 1.4744432e-08 0.0000000e+00 
0.0000000e+00 4.0119364e-08 0.0000000e+00 
0.0000000e+00 2.8477546e-08 0.0000000e+00 
0.0000000e+00 1.0305238e-08 0.0000000e+00 
-6.6549671e-07 -1.1156512e-06 -2.8457923e-06 
-1.6922883e-07 1.6210530e-08 -5.4430302e-07 
-2.9359910e-08 9.8502404e-08 -5.2054400e-08 
-1.1248904e-05 -5.0326249e-05 -1.7013070e-05 
-4.1763019e-06 -1.3266903e-05 -9.6074809e-06 
-2.9679603e-07 2.8155316e-07 -3.7885764e-07 
-2.0862931e-06 -2.0278853e-06 -1.6676382e-06 
-4.1180158e-08 1.6028409e-07 -2.8011190e-08 
-9.3424969e-06 -1.3300305e-04 -1.3199114e-05 
-1.1208002e-08 6.3761604e-08 -1.2392423e-09 
-9.5831110e-06 -1.5051307e-05 -2.8638153e-06 
-5.3106168e-09 5.5796605e-08 6.5203565e-10 
-6.9679302e-08 2.7495904e-07 -6.6872012e-08 
-1.0505903e-07 2.3599200e-07 -1.7172478e-07 
-3.5445584e-08 1.2970182e-07 -5.1723234e-08 
-6.0893207e-08 1.8358290e-07 -8.5794404e-08 
-1.4575741e-07 1.9232171e-07 -2.5238933e-07 
-1.4498255e-08 1.0063245e-07 -1.6519678e-08 
-8.7887379e-08 1.7873887e-07 -1.6373041e-07 
-2.5597194e-07 2.5399606e-07 -4.0461595e-07 
-5.7320460e-07 1.3210374e-07 -7.5051145e-07 
-4.9969822e-07 -2.6899299e-08 -9.0859243e-07 
-1.0103653e-06 -3.4069620e-07 -1.8713179e-06 
-1.3903845e-06 -1.7318929e-07 -1.8385686e-06 
-2.0977816e-06 -1.9843690e-06 -3.8843782e-06 
-2.2219281e-06 -2.0201985e-06 -2.5201132e-06 
-4.5655365e-06 -6.4469118e-06 -6.4285114e-06 
-4.8915290e-06 -6.9127118e-06 -5.2061655e-06 
-6.0967263e-06 -1.4068302e-05 -7.9051115e-06 
-7.1921722e-06 -1.1665505e-05 -5.8977271e-06 
-1.3516009e-05 -2.9994346e-05 -9.4794414e-06 
-4.6102039e-07 -9.3029271e-08 -1.1793256e-06 
-2.9506157e-07 4.8182315e-08 -6.6148851e-07 
-3.2648059e-06 -5.5623991e-06 -6.3371444e-06 
-1.4248858e-06 -6.9552738e-07 -1.4215997e-06 
-6.4420531e-09 5.7119301e-08 -3.0528313e-09 
-1.3069096e-06 -1.5739412e-06 -3.1732709e-06 
-5.8176283e-07 2.7462707e-07 -7.1981606e-07 
-1.2447646e-05 -4.1090680e-05 -4.7685562e-06 
-7.3800703e-09 8.4521574e-08 6.2352941e-09 
-3.2807588e-08 1.1180916e-07 -4.6845841e-08 
-2.4932858e-08 8.4305476e-08 -2.2307614e-08 
-3.0738565e-07 -1.9122767e-08 -9.9868896e-07 
-3.5597418e-06 -4.1630419e-06 -1.3760442e-06 
-6.2239951e-06 -2.7453312e-05 -1.4001824e-05 
-5.5904006e-06 -1.3692332e-05 -9.6896019e-06 
-2.6384569e-06 -6.3321049e-06 -7.3238725e-06 
-1.2906623e-06 -2.4504118e-06 -4.0208206e-06 
-9.8950750e-08 1.3209244e-07 -2.5963831e-07 
-4.9495284e-08 1.1902167e-07 -9.4010737e-08 
-2.0198324e-05 -1.5791184e-04 -1.0839027e-05 
-1.5733724e-05 -8.7383967e-05 -1.8139101e-05 
-5.6162661e-09 4.6842612e-08 1.4651811e-09 
-1.0759095e-05 -1.8753872e-05 -5.3821664e-06 
-9.0240665e-06 -2.7950966e-05 -1.3298340e-05 
-1.9240447e-08 7.4524394e-08 -1.8625178e-08 
-1.4870989e-07 1.7786697e-07 -2.9860379e-07 
-1.9486295e-05 -6.0687700e-05 -1.4663994e-05 
-4.4265610e-07 -5.1517367e-07 -1.8152510e-06 
-1.2025389e-08 8.9751680e-08 -1.4738965e-08 
-2.2504851e-09 5.4199518e-08 4.0123096e-09 
-3.5265584e-06 -6.2119648e-06 -7.7736655e-07 
-1.4029338e-06 -7.0399665e-07 -1.7252556e-06 
-1.4662342e-05 -5.0508515e-05 -1.6173748e-05 
-9.7257553e-09 6.4715884e-08 -6.2314676e-10 
-2.2087241e-07 2.0844429e-07 -4.1499896e-07 
-5.9877220e-06 -6.7391520e-06 -3.5658734e-06 
-3.4033815e-06 -3.0386373e-06 -3.1434145e-06 
-1.1522395e-05 -8.8504494e-05 -1.2035875e-05 
-7.5593050e-07 -8.9647688e-07 -2.1656188e-06 
-5.0108238e-09 5.0421885e-08 9.2074998e-10 
-4.5819284e-06 -6.9458954e-05 -1.1704951e-05 
-9.5288005e-06 -1.1127890e-04 -1.6235585e-05 
-1.6764337e-06 -3.7254682e-05 -1.1583169e-05 
-1.3221556e-06 -1.9130286e-05 -8.1338549e-06 
-1.1724844e-05 -1.5457897e-04 -1.3329491e-05 
-1.0707897e-06 -9.6863860e-06 -4.0929717e-06 
-1.1345298e-07 -4.1147732e-06 -2.2187751e-06 
-1.6876223e-07 -1.7107092e-06 -1.2506789e-06 
2.6945159e-08 -7.8856465e-07 -6.8737819e-07 
-9.2859544e-08 -3.0297664e-07 -4.6545361e-07 
-3.9217849e-08 -1.0841036e-07 -3.2589890e-07 
-4.0173987e-08 -5.4248903e-09 -2.0085892e-07 
-1.7039794e-08 6.4080183e-08 -9.5833705e-08 
-1.4787038e-08 6.6414060e-08 -4.5150582e-08 
-1.0798986e-08 5.8783154e-08 -1.8903833e-08 
-6.7641204e-09 4.3793950e-08 -5.8811289e-09 
-4.7857260e-09 3.7105345e-08 2.1959923e-10 
3.1145935e-06 -1.6757460e-04 -6.3827615e-06 
7.2746270e-06 -3.5721307e-05 1.0939112e-05 
2.0817795e-06 -7.1928266e-06 5.0878562e-06 
1.3685111e-07 -2.8320028e-07 8.2063769e-07 
1.4117625e-08 1.1091205e-07 1.3388764e-07 
2.1503808e-09 5.2183019e-08 1.7749091e-08 
3.5103419e-06 -5.0262570e-06 3.5431658e-06 
7.0586157e-07 -4.6807222e-07 1.2812702e-06 
4.7311321e-08 1.8577256e-07 2.1342690e-07 
7.8430581e-08 -2.1233539e-06 1.3576881e-06 
1.6611343e-06 -2.5859737e-05 5.9434165e-06 
8.4316198e-06 -9.5416697e-05 9.9730578e-06 
1.5848391e-08 9.0678718e-08 3.2394524e-08 
7.4389618e-06 -1.9808111e-05 3.3503495e-06 
1.4895844e-08 3.4988492e-08 1.3697250e-07 
-7.0499042e-09 8.0917239e-08 2.0625185e-08 
-1.2401840e-07 -8.1632243e-06 1.5894743e-06 
7.7141017e-08 -9.9496924e-07 7.3901469e-07 
3.2125638e-06 -1.4075955e-05 3.9811412e-06 
-2.8566207e-08 -4.1475352e-07 6.2335941e-09 
6.7674745e-07 -1.4120043e-06 2.1859469e-06 
3.9137271e-06 -6.2395578e-05 6.6688203e-06 
2.0715824e-07 2.1002965e-07 3.6554297e-07 
-1.3764593e-09 4.8123177e-08 2.1002879e-09 
3.2655116e-06 -4.3668279e-06 1.3450095e-06 
2.8696210e-09 5.7305201e-08 2.0983961e-09 
2.4527972e-06 -1.2893304e-05 6.9883095e-06 
4.6365113e-07 -2.7672309e-07 1.0267776e-06 
6.4232913e-06 -1.1780776e-05 5.8809287e-06 
2.6517928e-06 -4.2422498e-06 3.8190365e-06 
7.2949854e-07 -3.3478552e-06 1.0471040e-06 
7.4531128e-09 1.9207474e-07 1.6684279e-08 
-2.0550178e-08 1.9481716e-07 2.2599794e-08 
-1.3663327e-08 1.0923374e-07 7.8861069e-09 
-6.7165821e-08 1.0360892e-07 -6.5328494e-09 
4.2087818e-09 3.4164902e-08 9.1622772e-09 
2.8312641e-09 1.1477928e-07 2.5800988e-08 
8.1330754e-06 -2.1825865e-05 5.0230078e-06 
8.2264296e-07 -9.1577010e-07 6.9104647e-07 
5.7391881e-06 -4.1524712e-05 8.0590316e-06 
-7.3186857e-10 -4.2529578e-08 3.1453990e-07 
5.7915645e-07 -3.0998697e-06 2.7984843e-06 
-1.4698649e-09 4.8749275e-08 3.8946775e-09 
-3.3555272e-09 3.4062740e-08 4.7631207e-08 
-4.3298158e-07 -4.3005957e-06 -1.5618416e-07 
7.2308153e-06 -4.6371115e-05 5.3100280e-06 
-7.3516816e-08 2.1147181e-07 2.6971884e-08 
1.5446601e-06 -1.5005421e-06 1.2231518e-06 
1.1658498e-08 5.4434519e-08 5.2904113e-08 
2.1632163e-06 -1.3105258e-05 1.3532327e-06 
1.2569006e-07 -7.3292000e-07 1.1158596e-06 
9.3581616e-07 -3.0354213e-06 3.1132194e-07 
2.2560243e-08 7.2422651e-08 2.7951508e-08 
-6.2880012e-09 7.3401708e-08 4.0087400e-09 
-4.1479794e-08 1.7729610e-07 -6.6114907e-08 
-6.3439645e-09 -2.0283578e-07 3.2163143e-07 
7.5767680e-08 3.0330177e-08 3.9300889e-07 
9.0631241e-10 2.3409621e-08 1.0669011e-08 
1.9382203e-06 -8.4491830e-06 4.2370033e-07 
2.3004098e-08 2.2705936e-07 -1.7417262e-08 
5.3694947e-07 -2.4217590e-07 6.0737602e-07 
-2.7462946e-08 3.3101836e-07 1.4589531e-08 
7.2625269e-08 1.3530321e-07 1.0672441e-07 
1.8369986e-06 -3.1956242e-05 1.9278762e-06 
-8.9527505e-09 7.4538924e-08 -2.5042985e-09 