# vtk DataFile Version 4.0
vtk output
ASCII
DATASET UNSTRUCTURED_GRID
POINTS 460 float
0.0000000e+00 0.0000000e+00 0.0000000e+00 
5.0000000e+00 0.0000000e+00 0.0000000e+00 
5.0000000e+00 3.0000000e+00 0.0000000e+00 
0.0000000e+00 3.0000000e+00 0.0000000e+00 
0.0000000e+00 0.0000000e+00 1.0000000e+01 
5.0000000e+00 0.0000000e+00 1.0000000e+01 
5.0000000e+00 3.0000000e+00 1.0000000e+01 
0.0000000e+00 3.0000000e+00 1.0000000e+01 
1.0000000e+00 3.0000000e+00 -5.0000000e+00 
1.0000000e+00 3.0000000e+00 -4.5000000e+00 
1.0000000e+00 3.0000000e+00 -4.0000000e+00 
1.0000000e+00 3.0000000e+00 -3.5000000e+00 
1.0000000e+00 3.0000000e+00 -3.0000000e+00 
1.0000000e+00 3.0000000e+00 -2.5000000e+00 
1.0000000e+00 3.0000000e+00 -2.0000000e+00 
1.0000000e+00 3.0000000e+00 -1.5000000e+00 
1.0000000e+00 3.0000000e+00 -1.0000000e+00 
1.0000000e+00 3.0000000e+00 -5.0000000e-01 
1.0000000e+00 3.0000000e+00 0.0000000e+00 
1.0000000e+00 3.0000000e+00 5.0000000e-01 
1.0000000e+00 3.0000000e+00 1.0000000e+00 
1.0000000e+00 3.0000000e+00 1.5000000e+00 
1.0000000e+00 3.0000000e+00 2.0000000e+00 
1.0000000e+00 3.0000000e+00 2.5000000e+00 
1.0000000e+00 3.0000000e+00 3.0000000e+00 
1.0000000e+00 3.0000000e+00 3.5000000e+00 
1.0000000e+00 3.0000000e+00 4.0000000e+00 
1.0000000e+00 3.0000000e+00 4.5000000e+00 
1.0000000e+00 3.0000000e+00 5.0000000e+00 
1.0000000e+00 3.0000000e+00 5.5000000e+00 
1.0000000e+00 3.0000000e+00 6.0000000e+00 
1.0000000e+00 3.0000000e+00 6.5000000e+00 
1.0000000e+00 3.0000000e+00 7.0000000e+00 
1.0000000e+00 3.0000000e+00 7.5000000e+00 
1.0000000e+00 3.0000000e+00 8.0000000e+00 
1.0000000e+00 3.0000000e+00 8.5000000e+00 
1.0000000e+00 3.0000000e+00 9.0000000e+00 
1.0000000e+00 3.0000000e+00 9.5000000e+00 
1.0000000e+00 3.0000000e+00 1.0000000e+01 
1.0000000e+00 3.0000000e+00 1.0500000e+01 
1.0000000e+00 3.0000000e+00 1.1000000e+01 
1.0000000e+00 3.0000000e+00 1.1500000e+01 
1.0000000e+00 3.0000000e+00 1.2000000e+01 
1.0000000e+00 3.0000000e+00 1.2500000e+01 
1.0000000e+00 3.0000000e+00 1.3000000e+01 
1.0000000e+00 3.0000000e+00 1.3500000e+01 
1.0000000e+00 3.0000000e+00 1.4000000e+01 
1.0000000e+00 3.0000000e+00 1.4500000e+01 
1.0000000e+00 3.0250001e+00 -5.0000000e+00 
1.0000000e+00 3.0250001e+00 -4.5000000e+00 
1.0000000e+00 3.0250001e+00 -4.0000000e+00 
1.0000000e+00 3.0250001e+00 -3.5000000e+00 
1.0000000e+00 3.0250001e+00 -3.0000000e+00 
1.0000000e+00 3.0250001e+00 -2.5000000e+00 
1.0000000e+00 3.0250001e+00 -2.0000000e+00 
1.0000000e+00 3.0250001e+00 -1.5000000e+00 
1.0000000e+00 3.0250001e+00 -1.0000000e+00 
1.0000000e+00 3.0250001e+00 -5.0000000e-01 
1.0000000e+00 3.0250001e+00 0.0000000e+00 
1.0000000e+00 3.0250001e+00 5.0000000e-01 
1.0000000e+00 3.0250001e+00 1.0000000e+00 
1.0000000e+00 3.0250001e+00 1.5000000e+00 
1.0000000e+00 3.0250001e+00 2.0000000e+00 
1.0000000e+00 3.0250001e+00 2.5000000e+00 
1.0000000e+00 3.0250001e+00 3.0000000e+00 
1.0000000e+00 3.0250001e+00 3.5000000e+00 
1.0000000e+00 3.0250001e+00 4.0000000e+00 
1.0000000e+00 3.0250001e+00 4.5000000e+00 
1.0000000e+00 3.0250001e+00 5.0000000e+00 
1.0000000e+00 3.0250001e+00 5.5000000e+00 
1.0000000e+00 3.0250001e+00 6.0000000e+00 
1.0000000e+00 3.0250001e+00 6.5000000e+00 
1.0000000e+00 3.0250001e+00 7.0000000e+00 
1.0000000e+00 3.0250001e+00 7.5000000e+00 
1.0000000e+00 3.0250001e+00 8.0000000e+00 
1.0000000e+00 3.0250001e+00 8.5000000e+00 
1.0000000e+00 3.0250001e+00 9.0000000e+00 
1.0000000e+00 3.0250001e+00 9.5000000e+00 
1.0000000e+00 3.0250001e+00 1.0000000e+01 
1.0000000e+00 3.0250001e+00 1.0500000e+01 
1.0000000e+00 3.0250001e+00 1.1000000e+01 
1.0000000e+00 3.0250001e+00 1.1500000e+01 
1.0000000e+00 3.0250001e+00 1.2000000e+01 
1.0000000e+00 3.0250001e+00 1.2500000e+01 
1.0000000e+00 3.0250001e+00 1.3000000e+01 
1.0000000e+00 3.0250001e+00 1.3500000e+01 
1.0000000e+00 3.0250001e+00 1.4000000e+01 
1.0000000e+00 3.0250001e+00 1.4500000e+01 
1.0000000e+00 -2.0000000e+00 -5.0000000e+00 
1.0000000e+00 -2.0000000e+00 -4.5000000e+00 
1.0000000e+00 -2.0000000e+00 -4.0000000e+00 
1.0000000e+00 -2.0000000e+00 -3.5000000e+00 
1.0000000e+00 -2.0000000e+00 -3.0000000e+00 
1.0000000e+00 -2.0000000e+00 -2.5000000e+00 
1.0000000e+00 -2.0000000e+00 -2.0000000e+00 
1.0000000e+00 -2.0000000e+00 -1.5000000e+00 
1.0000000e+00 -2.0000000e+00 -1.0000000e+00 
1.0000000e+00 -2.0000000e+00 -5.0000000e-01 
1.0000000e+00 -2.0000000e+00 1.0500000e+01 
1.0000000e+00 -2.0000000e+00 1.1000000e+01 
1.0000000e+00 -2.0000000e+00 1.1500000e+01 
1.0000000e+00 -2.0000000e+00 1.2000000e+01 
1.0000000e+00 -2.0000000e+00 1.2500000e+01 
1.0000000e+00 -2.0000000e+00 1.3000000e+01 
1.0000000e+00 -2.0000000e+00 1.3500000e+01 
1.0000000e+00 -2.0000000e+00 1.4000000e+01 
1.0000000e+00 -2.0000000e+00 1.4500000e+01 
1.0000000e+00 0.0000000e+00 0.0000000e+00 
2.0000000e+00 0.0000000e+00 0.0000000e+00 
3.0000000e+00 0.0000000e+00 0.0000000e+00 
4.0000000e+00 0.0000000e+00 0.0000000e+00 
5.0000000e+00 1.0000000e+00 0.0000000e+00 
5.0000000e+00 2.0000000e+00 0.0000000e+00 
0.0000000e+00 2.0000000e+00 0.0000000e+00 
0.0000000e+00 1.0000000e+00 0.0000000e+00 
0.0000000e+00 0.0000000e+00 1.0000000e+00 
0.0000000e+00 0.0000000e+00 2.0000000e+00 
0.0000000e+00 0.0000000e+00 3.0000000e+00 
0.0000000e+00 0.0000000e+00 4.0000000e+00 
0.0000000e+00 0.0000000e+00 5.0000000e+00 
0.0000000e+00 0.0000000e+00 6.0000000e+00 
0.0000000e+00 0.0000000e+00 7.0000000e+00 
0.0000000e+00 0.0000000e+00 8.0000000e+00 
0.0000000e+00 0.0000000e+00 9.0000000e+00 
5.0000000e+00 0.0000000e+00 1.0000000e+00 
5.0000000e+00 0.0000000e+00 2.0000000e+00 
5.0000000e+00 0.0000000e+00 3.0000000e+00 
5.0000000e+00 0.0000000e+00 4.0000000e+00 
5.0000000e+00 0.0000000e+00 5.0000000e+00 
5.0000000e+00 0.0000000e+00 6.0000000e+00 
5.0000000e+00 0.0000000e+00 7.0000000e+00 
5.0000000e+00 0.0000000e+00 8.0000000e+00 
5.0000000e+00 0.0000000e+00 9.0000000e+00 
1.0000000e+00 0.0000000e+00 1.0000000e+01 
2.0000000e+00 0.0000000e+00 1.0000000e+01 
3.0000000e+00 0.0000000e+00 1.0000000e+01 
4.0000000e+00 0.0000000e+00 1.0000000e+01 
5.0000000e+00 3.0000000e+00 1.0000000e+00 
5.0000000e+00 3.0000000e+00 2.0000000e+00 
5.0000000e+00 3.0000000e+00 3.0000000e+00 
5.0000000e+00 3.0000000e+00 4.0000000e+00 
5.0000000e+00 3.0000000e+00 5.0000000e+00 
5.0000000e+00 3.0000000e+00 6.0000000e+00 
5.0000000e+00 3.0000000e+00 7.0000000e+00 
5.0000000e+00 3.0000000e+00 8.0000000e+00 
5.0000000e+00 3.0000000e+00 9.0000000e+00 
5.0000000e+00 1.0000000e+00 1.0000000e+01 
5.0000000e+00 2.0000000e+00 1.0000000e+01 
0.0000000e+00 3.0000000e+00 1.0000000e+00 
0.0000000e+00 3.0000000e+00 2.0000000e+00 
0.0000000e+00 3.0000000e+00 3.0000000e+00 
0.0000000e+00 3.0000000e+00 4.0000000e+00 
0.0000000e+00 3.0000000e+00 5.0000000e+00 
0.0000000e+00 3.0000000e+00 6.0000000e+00 
0.0000000e+00 3.0000000e+00 7.0000000e+00 
0.0000000e+00 3.0000000e+00 8.0000000e+00 
0.0000000e+00 3.0000000e+00 9.0000000e+00 
0.0000000e+00 2.0000000e+00 1.0000000e+01 
0.0000000e+00 1.0000000e+00 1.0000000e+01 
4.0000000e+00 3.0000000e+00 0.0000000e+00 
3.0000000e+00 3.0000000e+00 0.0000000e+00 
2.0000000e+00 3.0000000e+00 0.0000000e+00 
4.0000000e+00 3.0000000e+00 1.0000000e+01 
3.0000000e+00 3.0000000e+00 1.0000000e+01 
2.0000000e+00 3.0000000e+00 1.0000000e+01 
4.0618000e+00 1.5000000e+00 0.0000000e+00 
1.5046000e+00 7.6549745e-01 0.0000000e+00 
2.5000000e+00 2.1339746e+00 0.0000000e+00 
1.5046000e+00 2.2345026e+00 0.0000000e+00 
2.4957771e+00 8.1560516e-01 0.0000000e+00 
3.4707544e+00 2.2336540e+00 0.0000000e+00 
3.4700506e+00 7.5794268e-01 0.0000000e+00 
8.6322361e-01 1.5000000e+00 0.0000000e+00 
2.0000000e+00 1.5000000e+00 0.0000000e+00 
2.9960666e+00 1.4974480e+00 0.0000000e+00 
4.2679491e+00 7.3205084e-01 0.0000000e+00 
4.2679491e+00 2.2679491e+00 0.0000000e+00 
7.2695929e-01 2.2730408e+00 0.0000000e+00 
7.2695929e-01 7.2695929e-01 0.0000000e+00 
4.1822505e+00 0.0000000e+00 2.5515697e+00 
4.2017918e+00 0.0000000e+00 4.4725966e+00 
4.1114569e+00 0.0000000e+00 6.5092020e+00 
8.6602539e-01 0.0000000e+00 3.5000000e+00 
8.4778279e-01 0.0000000e+00 5.4684029e+00 
8.9629614e-01 0.0000000e+00 7.5867257e+00 
2.5566745e+00 0.0000000e+00 8.1853306e-01 
2.4918270e+00 0.0000000e+00 9.1386929e+00 
8.4677207e-01 0.0000000e+00 1.5042374e+00 
4.0943027e+00 0.0000000e+00 8.4081745e+00 
8.6281651e-01 0.0000000e+00 2.5007062e+00 
1.7315160e+00 0.0000000e+00 3.0001178e+00 
1.7319617e+00 0.0000000e+00 4.0000196e+00 
2.5980761e+00 0.0000000e+00 3.5000000e+00 
2.5536871e+00 0.0000000e+00 4.4963923e+00 
2.5928419e+00 0.0000000e+00 2.4239938e+00 
1.5037409e+00 0.0000000e+00 9.1535149e+00 
1.8433737e+00 0.0000000e+00 8.1858873e+00 
3.0000000e+00 0.0000000e+00 8.2679491e+00 
2.5000000e+00 0.0000000e+00 7.4019237e+00 
3.5042722e+00 0.0000000e+00 7.4271150e+00 
3.0310018e+00 0.0000000e+00 6.5282087e+00 
2.0373929e+00 0.0000000e+00 6.5307913e+00 
3.4767809e+00 0.0000000e+00 5.8031492e+00 
2.5452602e+00 0.0000000e+00 5.5720768e+00 
1.6456656e+00 0.0000000e+00 1.9697139e+00 
8.6297011e-01 0.0000000e+00 4.4947371e+00 
1.0111579e+00 0.0000000e+00 6.5282545e+00 
3.4994321e+00 0.0000000e+00 8.4691072e-01 
4.1860156e+00 0.0000000e+00 3.5040276e+00 
1.7320508e+00 0.0000000e+00 5.0000000e+00 
4.0544066e+00 0.0000000e+00 1.5781221e+00 
1.5817389e+00 0.0000000e+00 9.3943578e-01 
8.3166349e-01 0.0000000e+00 8.5090933e+00 
3.4686174e+00 0.0000000e+00 9.1752682e+00 
3.0709300e+00 0.0000000e+00 1.5799091e+00 
3.3927374e+00 0.0000000e+00 3.0399952e+00 
3.3826034e+00 0.0000000e+00 3.9747651e+00 
4.3420062e+00 0.0000000e+00 7.4688983e+00 
3.4023225e+00 0.0000000e+00 4.9314723e+00 
1.6740381e+00 0.0000000e+00 7.3014426e+00 
4.2715640e+00 0.0000000e+00 5.4758859e+00 
1.6225953e+00 0.0000000e+00 5.8104177e+00 
4.2679491e+00 0.0000000e+00 9.2679491e+00 
7.3205084e-01 0.0000000e+00 7.3205084e-01 
4.2679491e+00 0.0000000e+00 7.3205084e-01 
7.3205084e-01 0.0000000e+00 9.2679491e+00 
3.4586334e+00 0.0000000e+00 2.2347178e+00 
2.2895701e+00 0.0000000e+00 1.5463171e+00 
5.0000000e+00 2.2345026e+00 1.5046000e+00 
[...]
POINT_DATA 460
FIELD FieldData 2
DISPLACEMENT 3 460  float
0.0000000e+00 0.0000000e+00 0.0000000e+00 
0.0000000e+00 0.0000000e+00 0.0000000e+00 
0.0000000e+00 5.4504536e-08 0.0000000e+00 
0.0000000e+00 4.3716778e-08 0.0000000e+00 
0.0000000e+00 0.0000000e+00 0.0000000e+00 
0.0000000e+00 0.0000000e+00 0.0000000e+00 
0.0000000e+00 -4.4074977e-06 0.0000000e+00 
0.0000000e+00 -1.0423068e-04 0.0000000e+00 
0.0000000e+00 3.2798496e-08 0.0000000e+00 
0.0000000e+00 3.2153359e-08 0.0000000e+00 
0.0000000e+00 3.0239519e-08 0.0000000e+00 
0.0000000e+00 2.7216409e-08 0.0000000e+00 
0.0000000e+00 2.3487242e-08 0.0000000e+00 
0.0000000e+00 1.9773072e-08 0.0000000e+00 
0.0000000e+00 1.7133978e-08 0.0000000e+00 
0.0000000e+00 1.6888318e-08 0.0000000e+00 
0.0000000e+00 2.0329923e-08 0.0000000e+00 
0.0000000e+00 2.8110010e-08 0.0000000e+00 
0.0000000e+00 3.9463231e-08 0.0000000e+00 
-3.9524859e-09 5.1062720e-08 9.1243617e-09 
-8.8229513e-09 6.3262412e-08 2.5819242e-08 
-9.8234780e-09 7.6548432e-08 4.5482217e-08 
-1.4608857e-08 9.0439777e-08 9.2060908e-08 
-2.8287394e-08 9.9563664e-08 1.8182304e-07 
-3.9507501e-08 9.0718331e-08 3.2345736e-07 
-4.8122928e-08 4.3374506e-08 5.6372443e-07 
-1.9614370e-07 -6.4567615e-08 1.1426315e-06 
-2.5239524e-07 -2.9947088e-07 1.7394012e-06 
-7.2938820e-07 -8.2641947e-07 3.4493426e-06 
-1.5323054e-06 -2.2237014e-06 5.4707834e-06 
-1.6940251e-06 -6.1898472e-06 7.5991279e-06 
-3.7722641e-06 -1.6649790e-05 1.1977081e-05 
-3.1523798e-06 -4.1104853e-05 1.8310000e-05 
-3.2440896e-06 -8.9835841e-05 1.6826296e-05 
-3.0672595e-06 -1.6873823e-04 1.2430433e-05 
-1.5059823e-06 -2.5679331e-04 1.2557593e-05 
-1.6287129e-05 -2.7213170e-04 2.4048336e-06 
-6.1412625e-06 -2.0463728e-04 1.2841431e-05 
0.0000000e+00 -1.3627786e-04 0.0000000e+00 
0.0000000e+00 -7.5975782e-05 0.0000000e+00 
0.0000000e+00 -3.3220647e-05 0.0000000e+00 
0.0000000e+00 -7.3248416e-06 0.0000000e+00 
0.0000000e+00 5.4304401e-06 0.0000000e+00 
0.0000000e+00 9.6132580e-06 0.0000000e+00 
0.0000000e+00 9.1925540e-06 0.0000000e+00 
0.0000000e+00 7.0588353e-06 0.0000000e+00 
0.0000000e+00 5.0662538e-06 0.0000000e+00 
0.0000000e+00 4.2691145e-06 0.0000000e+00 
0.0000000e+00 3.3015429e-08 0.0000000e+00 
0.0000000e+00 3.2327559e-08 0.0000000e+00 
0.0000000e+00 3.0299294e-08 0.0000000e+00 
0.0000000e+00 2.7208115e-08 0.0000000e+00 
0.0000000e+00 2.3479464e-08 0.0000000e+00 
0.0000000e+00 1.9781336e-08 0.0000000e+00 
0.0000000e+00 1.7150178e-08 0.0000000e+00 
0.0000000e+00 1.6915392e-08 0.0000000e+00 
0.0000000e+00 2.0383439e-08 0.0000000e+00 
0.0000000e+00 2.8207458e-08 0.0000000e+00 
0.0000000e+00 3.9326622e-08 0.0000000e+00 
0.0000000e+00 5.1054499e-08 0.0000000e+00 
0.0000000e+00 6.3282137e-08 0.0000000e+00 
0.0000000e+00 7.6717313e-08 0.0000000e+00 
0.0000000e+00 9.0726076e-08 0.0000000e+00 
0.0000000e+00 9.9823261e-08 0.0000000e+00 
0.0000000e+00 9.0671911e-08 0.0000000e+00 
0.0000000e+00 4.4281087e-08 0.0000000e+00 
0.0000000e+00 -6.3594946e-08 0.0000000e+00 
0.0000000e+00 -2.9087929e-07 0.0000000e+00 
0.0000000e+00 -7.9867652e-07 0.0000000e+00 
0.0000000e+00 -2.1614860e-06 0.0000000e+00 
0.0000000e+00 -6.0697416e-06 0.0000000e+00 
0.0000000e+00 -1.6509803e-05 0.0000000e+00 
0.0000000e+00 -4.1094161e-05 0.0000000e+00 
0.0000000e+00 -9.0438698e-05 0.0000000e+00 
0.0000000e+00 -1.7067279e-04 0.0000000e+00 
0.0000000e+00 -2.5972773e-04 0.0000000e+00 
0.0000000e+00 -2.7675054e-04 0.0000000e+00 
0.0000000e+00 -2.0814021e-04 0.0000000e+00 
0.0000000e+00 -1.3607444e-04 0.0000000e+00 
0.0000000e+00 -7.6283148e-05 0.0000000e+00 
0.0000000e+00 -3.3356358e-05 0.0000000e+00 
0.0000000e+00 -7.3560773e-06 0.0000000e+00 
0.0000000e+00 5.4510347e-06 0.0000000e+00 
0.0000000e+00 9.6511840e-06 0.0000000e+00 
0.0000000e+00 9.2291803e-06 0.0000000e+00 
0.0000000e+00 7.0871401e-06 0.0000000e+00 
0.0000000e+00 5.0866861e-06 0.0000000e+00 
0.0000000e+00 4.2863844e-06 0.0000000e+00 
0.0000000e+00 0.0000000e+00 0.0000000e+00 
0.0000000e+00 0.0000000e+00 0.0000000e+00 
0.0000000e+00 0.0000000e+00 0.0000000e+00 
0.0000000e+00 0.0000000e+00 0.0000000e+00 
0.0000000e+00 0.0000000e+00 0.0000000e+00 
0.0000000e+00 0.0000000e+00 0.0000000e+00 
0.0000000e+00 0.0000000e+00 0.0000000e+00 
0.0000000e+00 0.0000000e+00 0.0000000e+00 
0.0000000e+00 0.0000000e+00 0.0000000e+00 
0.0000000e+00 0.0000000e+00 0.0000000e+00 
0.0000000e+00 0.0000000e+00 0.0000000e+00 
0.0000000e+00 0.0000000e+00 0.0000000e+00 
0.0000000e+00 0.0000000e+00 0.0000000e+00 
0.0000000e+00 0.0000000e+00 0.0000000e+00 
0.0000000e+00 0.0000000e+00 0.0000000e+00 
0.0000000e+00 0.0000000e+00 0.0000000e+00 
0.0000000e+00 0.0000000e+00 0.0000000e+00 
0.0000000e+00 0.0000000e+00 0.0000000e+00 
0.0000000e+00 0.0000000e+00 0.0000000e+00 
0.0000000e+00 0.0000000e+00 0.0000000e+00 
0.0000000e+00 0.0000000e+00 0.0000000e+00 
0.0000000e+00 0.0000000e+00 0.0000000e+00 
0.0000000e+00 0.0000000e+00 0.0000000e+00 
0.0000000e+00 2.7569991e-08 0.0000000e+00 
0.0000000e+00 4.8786184e-08 0.0000000e+00 
0.0000000e+00 3.8598220e-08 0.0000000e+00 
0.0000000e+00 2.1639380e-08 0.0000000e+00 
0.0000000e+00 0.0000000e+00 0.0000000e+00 
0.0000000e+00 0.0000000e+00 0.0000000e+00 
0.0000000e+00 0.0000000e+00 0.0000000e+00 
0.0000000e+00 0.0000000e+00 0.0000000e+00 
0.0000000e+00 0.0000000e+00 0.0000000e+00 
0.0000000e+00 0.0000000e+00 0.0000000e+00 
0.0000000e+00 0.0000000e+00 0.0000000e+00 
0.0000000e+00 0.0000000e+00 0.0000000e+00 
0.0000000e+00 0.0000000e+00 0.0000000e+00 
0.0000000e+00 0.0000000e+00 0.0000000e+00 
0.0000000e+00 0.0000000e+00 0.0000000e+00 
0.0000000e+00 0.0000000e+00 0.0000000e+00 
0.0000000e+00 0.0000000e+00 0.0000000e+00 
0.0000000e+00 0.0000000e+00 0.0000000e+00 
0.0000000e+00 0.0000000e+00 0.0000000e+00 
0.0000000e+00 0.0000000e+00 0.0000000e+00 
0.0000000e+00 0.0000000e+00 0.0000000e+00 
0.0000000e+00 0.0000000e+00 0.0000000e+00 
0.0000000e+00 0.0000000e+00 0.0000000e+00 
0.0000000e+00 0.0000000e+00 0.0000000e+00 
0.0000000e+00 0.0000000e+00 0.0000000e+00 
0.0000000e+00 0.0000000e+00 0.0000000e+00 
0.0000000e+00 7.0696650e-08 0.0000000e+00 
0.0000000e+00 1.3622585e-07 0.0000000e+00 
0.0000000e+00 2.0013796e-07 0.0000000e+00 
0.0000000e+00 3.3835690e-07 0.0000000e+00 
0.0000000e+00 1.9768753e-07 0.0000000e+00 
0.0000000e+00 7.9380897e-08 0.0000000e+00 
0.0000000e+00 -1.4671534e-06 0.0000000e+00 
0.0000000e+00 -1.9007391e-06 0.0000000e+00 
0.0000000e+00 -4.2946699e-06 0.0000000e+00 
0.0000000e+00 -2.6328264e-06 0.0000000e+00 
0.0000000e+00 -3.9939409e-06 0.0000000e+00 
0.0000000e+00 4.9815007e-08 0.0000000e+00 
0.0000000e+00 6.2460721e-08 0.0000000e+00 
0.0000000e+00 3.1880438e-09 0.0000000e+00 
0.0000000e+00 -5.1843068e-07 0.0000000e+00 
0.0000000e+00 -2.8095205e-06 0.0000000e+00 
0.0000000e+00 -1.0678281e-05 0.0000000e+00 
0.0000000e+00 -3.9287672e-05 0.0000000e+00 
0.0000000e+00 -8.4179133e-05 0.0000000e+00 
0.0000000e+00 -1.1603099e-04 0.0000000e+00 
0.0000000e+00 -8.3866500e-05 0.0000000e+00 
0.0000000e+00 -4.1585216e-05 0.0000000e+00 
0.0000000e+00 5.5453622e-08 0.0000000e+00 
0.0000000e+00 5.6525067e-08 0.0000000e+00 
0.0000000e+00 5.2930272e-08 0.0000000e+00 
0.0000000e+00 -8.3623654e-06 0.0000000e+00 
0.0000000e+00 -2.3455976e-05 0.0000000e+00 
0.0000000e+00 -5.8822963e-05 0.0000000e+00 
0.0000000e+00 4.0087105e-08 0.0000000e+00 
0.0000000e+00 2.0274316e-08 0.0000000e+00 
0.0000000e+00 5.4229488e-08 0.0000000e+00 
0.0000000e+00 4.6877595e-08 0.0000000e+00 
0.0000000e+00 2.4884875e-08 0.0000000e+00 
0.0000000e+00 5.3233634e-08 0.0000000e+00 
0.0000000e+00 2.3721180e-08 0.0000000e+00 
0.0000000e+00 3.6082113e-08 0.0000000e+00 
0.0000000e+00 4.4011049e-08 0.0000000e+00 
0.0000000e+00 4.1912152e-08 0.0000000e+00 
0.0000000e+00 1.7669141e-08 0.0000000e+00 
0.0000000e+00 5.1201500e-08 0.0000000e+00 
0.0000000e+00 4.2937504e-08 0.0000000e+00 
0.0000000e+00 1.6171985e-08 0.0000000e+00 
0.0000000e+00 0.0000000e+00 0.0000000e+00 
0.0000000e+00 0.0000000e+00 0.0000000e+00 
0.0000000e+00 0.0000000e+00 0.0000000e+00 
0.0000000e+00 0.0000000e+00 0.0000000e+00 
0.0000000e+00 0.0000000e+00 0.0000000e+00 
0.0000000e+00 0.0000000e+00 0.0000000e+00 
0.0000000e+00 0.0000000e+00 0.0000000e+00 
0.0000000e+00 0.0000000e+00 0.0000000e+00 
0.0000000e+00 0.0000000e+00 0.0000000e+00 
0.0000000e+00 0.0000000e+00 0.0000000e+00 
0.0000000e+00 0.0000000e+00 0.0000000e+00 
0.0000000e+00 0.0000000e+00 0.0000000e+00 
0.0000000e+00 0.0000000e+00 0.0000000e+00 
0.0000000e+00 0.0000000e+00 0.0000000e+00 
0.0000000e+00 0.0000000e+00 0.0000000e+00 
0.0000000e+00 0.0000000e+00 0.0000000e+00 
0.0000000e+00 0.0000000e+00 0.0000000e+00 
0.0000000e+00 0.0000000e+00 0.0000000e+00 
0.0000000e+00 0.0000000e+00 0.0000000e+00 
0.0000000e+00 0.0000000e+00 0.0000000e+00 
0.0000000e+00 0.0000000e+00 0.0000000e+00 
0.0000000e+00 0.0000000e+00 0.0000000e+00 
0.0000000e+00 0.0000000e+00 0.0000000e+00 
0.0000000e+00 0.0000000e+00 0.0000000e+00 
0.0000000e+00 0.0000000e+00 0.0000000e+00 
0.0000000e+00 0.0000000e+00 0.0000000e+00 
0.0000000e+00 0.0000000e+00 0.0000000e+00 
0.0000000e+00 0.0000000e+00 0.0000000e+00 
0.0000000e+00 0.0000000e+00 0.0000000e+00 
0.0000000e+00 0.0000000e+00 0.0000000e+00 
0.0000000e+00 0.0000000e+00 0.0000000e+00 
0.0000000e+00 0.0000000e+00 0.0000000e+00 
0.0000000e+00 0.0000000e+00 0.0000000e+00 
0.0000000e+00 0.0000000e+00 0.0000000e+00 
0.0000000e+00 0.0000000e+00 0.0000000e+00 
0.0000000e+00 0.0000000e+00 0.0000000e+00 
0.0000000e+00 0.0000000e+00 0.0000000e+00 
0.0000000e+00 0.0000000e+00 0.0000000e+00 
0.0000000e+00 0.0000000e+00 0.0000000e+00 
0.0000000e+00 0.0000000e+00 0.0000000e+00 
0.0000000e+00 0.0000000e+00 0.0000000e+00 
0.0000000e+00 0.0000000e+00 0.0000000e+00 
0.0000000e+00 0.0000000e+00 0.0000000e+00 
0.0000000e+00 0.0000000e+00 0.0000000e+00 
0.0000000e+00 0.0000000e+00 0.0000000e+00 
0.0000000e+00 0.0000000e+00 0.0000000e+00 
0.0000000e+00 0.0000000e+00 0.0000000e+00 
0.0000000e+00 0.0000000e+00 0.0000000e+00 
0.0000000e+00 0.0000000e+00 0.0000000e+00 
0.0000000e+00 9.2926456e-08 0.0000000e+00 
0.0000000e+00 -2.8914669e-06 0.0000000e+00 
0.0000000e+00 2.5606181e-07 0.0000000e+00 
0.0000000e+00 2.2493003e-07 0.0000000e+00 
0.0000000e+00 -1.2872518e-06 0.0000000e+00 
0.0000000e+00 6.7873330e-08 0.0000000e+00 
0.0000000e+00 4.7471847e-08 0.0000000e+00 
0.0000000e+00 -4.3341853e-07 0.0000000e+00 
0.0000000e+00 1.0091286e-07 0.0000000e+00 
0.0000000e+00 7.9587288e-08 0.0000000e+00 
0.0000000e+00 1.5582653e-07 0.0000000e+00 
0.0000000e+00 3.4074554e-07 0.0000000e+00 
0.0000000e+00 5.5646744e-08 0.0000000e+00 
0.0000000e+00 -1.1602162e-06 0.0000000e+00 
0.0000000e+00 3.7514258e-08 0.0000000e+00 
0.0000000e+00 -1.6299373e-06 0.0000000e+00 
0.0000000e+00 -1.8286555e-06 0.0000000e+00 
0.0000000e+00 5.0623370e-08 0.0000000e+00 
0.0000000e+00 1.6172086e-07 0.0000000e+00 
0.0000000e+00 -5.6890980e-07 0.0000000e+00 
0.0000000e+00 8.8255248e-08 0.0000000e+00 
0.0000000e+00 1.0445935e-07 0.0000000e+00 
0.0000000e+00 2.2287976e-07 0.0000000e+00 
0.0000000e+00 1.5063250e-07 0.0000000e+00 
0.0000000e+00 -1.2956564e-06 0.0000000e+00 
0.0000000e+00 -3.2432690e-06 0.0000000e+00 
0.0000000e+00 -1.5627585e-06 0.0000000e+00 
0.0000000e+00 6.0960609e-08 0.0000000e+00 
0.0000000e+00 2.3335684e-08 0.0000000e+00 
0.0000000e+00 -6.5375520e-05 0.0000000e+00 
0.0000000e+00 3.5177809e-08 0.0000000e+00 
0.0000000e+00 1.8032406e-08 0.0000000e+00 
0.0000000e+00 -6.7417903e-07 0.0000000e+00 
0.0000000e+00 -1.9363812e-05 0.0000000e+00 
0.0000000e+00 -1.3764242e-07 0.0000000e+00 
0.0000000e+00 -5.4387833e-06 0.0000000e+00 
0.0000000e+00 -4.8162434e-05 0.0000000e+00 
0.0000000e+00 -9.6653295e-08 0.0000000e+00 
0.0000000e+00 4.6673012e-08 0.0000000e+00 
0.0000000e+00 -1.2093226e-06 0.0000000e+00 
0.0000000e+00 -1.9031891e-05 0.0000000e+00 
0.0000000e+00 -9.7179782e-06 0.0000000e+00 
0.0000000e+00 -9.3328257e-05 0.0000000e+00 
0.0000000e+00 5.2260024e-08 0.0000000e+00 
0.0000000e+00 2.1149246e-08 0.0000000e+00 
0.0000000e+00 -2.6775149e-05 0.0000000e+00 
0.0000000e+00 -2.1654498e-06 0.0000000e+00 
0.0000000e+00 -8.2158904e-06 0.0000000e+00 
0.0000000e+00 -5.5451358e-07 0.0000000e+00 
0.0000000e+00 -2.6074668e-08 0.0000000e+00 
0.0000000e+00 -2.3513880e-05 0.0000000e+00 
0.0000000e+00 -2.4207836e-06 0.0000000e+00 
0.0000000e+00 -4.9730115e-05 0.0000000e+00 
0.0000000e+00 4.3885869e-08 0.0000000e+00 
0.0000000e+00 -3.0439935e-05 0.0000000e+00 
0.0000000e+00 4.4585175e-08 0.0000000e+00 
0.0000000e+00 1.6562860e-08 0.0000000e+00 
0.0000000e+00 -9.8703458e-05 0.0000000e+00 
0.0000000e+00 -2.3994693e-05 0.0000000e+00 
0.0000000e+00 -5.3916315e-06 0.0000000e+00 
0.0000000e+00 -3.4596065e-05 0.0000000e+00 
0.0000000e+00 -8.0028134e-05 0.0000000e+00 
0.0000000e+00 -1.3815508e-05 0.0000000e+00 
0.0000000e+00 -1.2945685e-05 0.0000000e+00 
0.0000000e+00 -6.1632545e-06 0.0000000e+00 
0.0000000e+00 -6.3165986e-05 0.0000000e+00 
0.0000000e+00 -3.7560287e-05 0.0000000e+00 
0.0000000e+00 -1.7083439e-05 0.0000000e+00 
0.0000000e+00 -2.9290056e-06 0.0000000e+00 
0.0000000e+00 -5.7440616e-06 0.0000000e+00 
0.0000000e+00 -1.0365249e-04 0.0000000e+00 
0.0000000e+00 -2.9074654e-05 0.0000000e+00 
-5.1622851e-07 -6.5161493e-07 2.5051229e-06 
-3.4202249e-06 -1.2028944e-05 8.6647406e-06 
-8.1639027e-06 -7.4991214e-05 1.4108098e-05 
-4.0719183e-08 9.5083443e-08 1.6206185e-07 
-1.0444825e-07 1.5540455e-07 5.3272868e-07 
-8.2538645e-07 -7.5659912e-08 9.3130450e-07 
-4.8622393e-08 1.9071548e-07 5.7056177e-08 
-2.6911036e-06 -2.3925127e-06 1.9073730e-06 
-1.2464401e-08 7.6068339e-08 3.8830791e-08 
-1.0692547e-05 -1.2820556e-04 5.6488711e-06 
-1.0418288e-08 7.0233519e-08 8.7023704e-09 
-7.0613055e-06 -1.4659596e-05 7.2766858e-07 
-2.2109525e-06 -1.3501488e-06 1.5274907e-06 
-4.5474217e-06 -5.9252461e-06 4.1904241e-06 
-8.7496346e-06 -9.0488929e-06 5.0502845e-06 
-6.7063052e-06 -1.4120737e-05 4.4809221e-06 
-4.4112876e-06 -8.0586678e-06 4.2572469e-06 
-1.1831008e-05 -2.8149585e-05 5.1100324e-06 
-7.7213181e-06 -2.1717740e-05 1.0576936e-05 
-2.7554611e-06 -2.7169488e-06 3.3083429e-06 
-1.2610434e-06 -8.4626015e-07 1.7410865e-06 
-1.9354659e-06 -2.4912451e-06 2.8972634e-06 
-1.0007471e-06 -6.1693629e-07 2.1289964e-06 
-5.3986713e-07 1.6370079e-07 9.3231233e-07 
-4.4048869e-07 1.3015506e-07 1.0059106e-06 
-2.7445071e-07 1.9768149e-07 4.4133969e-07 
-1.4787760e-07 1.8433477e-07 4.9793994e-07 
-1.1240172e-07 2.0701191e-07 2.3663584e-07 
-1.1185665e-07 1.7640527e-07 2.7061049e-07 
-7.0225845e-08 1.4119421e-07 1.0884748e-07 
-3.7618214e-08 1.2097421e-07 9.9935228e-08 
-1.5976212e-06 -2.1504936e-06 4.3239652e-06 
-2.6570256e-06 -5.5287924e-06 5.0413951e-06 
-2.8372779e-07 6.8231607e-08 7.8849064e-07 
-1.3153969e-07 2.7934033e-07 1.5345142e-07 
-9.0755002e-06 -3.4833825e-05 2.1077622e-06 
-4.9389649e-07 -1.9676094e-07 1.5601870e-06 
-4.5695208e-07 3.8514523e-07 5.8584374e-07 
-1.2613818e-08 8.0858392e-08 2.2776907e-08 
-5.0839326e-06 -5.8276273e-06 1.2839567e-06 
-1.3224841e-05 -3.7475740e-05 1.1650406e-05 
-1.4593630e-05 -5.5525299e-05 1.0070316e-05 
-2.0780988e-06 -4.6443979e-06 5.5763626e-06 
-1.6150032e-08 1.0557634e-07 9.3794368e-09 
-5.8725625e-08 1.2386160e-07 2.8440977e-07 
-1.1071771e-07 1.8111685e-07 3.9236048e-07 
-1.9531934e-07 3.2335738e-08 9.4550643e-07 
-4.6277898e-07 -1.0798303e-07 1.7783656e-06 
-5.5406063e-06 -2.3683835e-05 1.0783282e-05 
-9.6475978e-06 -4.6330500e-05 1.4175012e-05 
-8.3162064e-09 6.0609594e-08 1.4716372e-08 
-2.0420956e-08 9.3548621e-08 7.6958038e-08 
-1.0502118e-05 -1.2161947e-04 6.0607049e-06 
-2.9178928e-08 1.1777786e-07 4.0363467e-08 
-7.0704075e-08 1.3120540e-07 1.9956687e-07 
-1.7821347e-05 -1.0268089e-04 1.1474609e-05 
-5.4031530e-06 -1.2314266e-05 8.1579610e-06 
-2.1995326e-08 8.9098918e-08 5.7515209e-08 
-9.2556877e-07 -2.2411293e-06 3.7088755e-06 
-9.4698844e-06 -1.6318387e-05 3.2189441e-06 
-3.6314068e-06 -6.5149839e-06 6.0453868e-07 
-6.1726726e-09 6.6767626e-08 2.6581379e-09 
-3.3740614e-07 2.2338028e-07 4.7364367e-07 
-3.8467778e-08 1.1844499e-07 1.0750797e-07 
-1.6238482e-05 -6.1855048e-05 6.0735933e-06 
-3.4488655e-06 -5.1211528e-06 4.2528786e-06 
-3.5738669e-08 1.4123121e-07 5.9931132e-08 
-9.7730357e-08 2.1625448e-07 1.8035156e-07 
-1.2007209e-08 7.7923310e-08 2.6590351e-08 
-7.2007498e-07 -1.1383581e-06 2.7364790e-06 
-9.1663323e-06 -6.7188557e-05 3.3985384e-06 
-6.9323343e-09 7.5887179e-08 9.4847891e-08 
-4.9327542e-09 6.5751081e-08 5.2989783e-08 
-3.6157255e-09 3.2602951e-08 1.6174421e-07 
-1.1723174e-08 -1.1956595e-08 2.3516884e-07 
-5.0128435e-09 6.0651722e-08 2.8955817e-08 
-1.4610731e-08 -1.8838712e-07 3.8552963e-07 
-1.1936055e-07 -6.6519982e-07 7.9319756e-07 
-1.4771094e-07 -1.5985705e-06 1.3603564e-06 
-3.1824180e-07 -3.8568660e-06 3.7417442e-06 
-8.5756199e-07 -7.8812991e-06 6.5173881e-06 
-7.4456460e-07 -1.4764804e-05 7.6467568e-06 
-1.5183895e-06 -3.0375610e-05 1.1208387e-05 
-3.0980111e-06 -5.5849086e-05 1.0568549e-05 
-7.2830994e-06 -9.9286757e-05 9.4667776e-06 
-6.8317418e-06 -1.1983737e-04 6.6801354e-06 
-9.4116822e-06 -1.4404333e-04 5.4758652e-06 
-4.3676655e-06 -1.4496430e-04 4.1123785e-06 
-2.3796951e-09 4.8991961e-08 9.5561150e-09 
2.1497122e-09 8.7804430e-08 -2.1060675e-08 
2.3908113e-08 1.0709253e-07 -2.4286109e-07 
8.0211157e-07 -2.4907526e-06 -2.4005344e-06 
4.7785998e-06 -1.7056520e-05 -7.0069282e-06 
1.0181337e-05 -4.5547291e-05 -5.4179659e-06 
1.6954770e-08 1.4652015e-07 -6.8375400e-08 
2.5735901e-07 1.2257857e-07 -4.5894799e-07 
2.1665880e-06 -3.7180521e-06 -2.5604420e-06 
-5.7105126e-08 -3.2048393e-07 -1.7782402e-07 
-5.9415157e-09 1.1135943e-07 6.8661969e-08 
-2.1567093e-09 7.0276940e-08 1.9901757e-08 
6.4867563e-06 -9.5953919e-06 -3.6209094e-06 
-6.1408207e-09 8.0489961e-08 8.6120142e-09 
1.0701353e-06 -1.2454830e-05 -3.2932776e-06 
2.0334353e-06 -6.6251530e-05 -7.9581150e-06 
-2.7773861e-08 1.5607702e-08 1.4754598e-07 
1.0084963e-07 -5.9476488e-08 -1.7695596e-07 
1.6817733e-09 1.8202179e-07 5.7008620e-10 
2.9354958e-08 -2.3517380e-06 -1.4179368e-07 
9.8148320e-08 -2.5739439e-07 -9.8098542e-07 
-1.8903978e-09 1.0159414e-07 5.5609693e-08 
7.2051807e-07 -2.1358163e-07 -7.4819832e-07 
2.1899266e-06 -1.0903100e-04 -5.2720088e-06 
3.1490446e-09 6.6078577e-08 -6.0090293e-09 
3.8256567e-06 -7.6221572e-06 -9.3156410e-07 
1.9225734e-08 3.9784762e-08 -1.3078477e-07 
9.4866459e-07 -1.0979896e-06 -1.8071870e-06 
9.5844346e-09 7.5932121e-08 -5.5355130e-08 
3.5977031e-08 7.6534519e-08 -2.3596624e-07 
-2.1036190e-08 2.3475283e-07 6.6979048e-08 
9.8242856e-07 -1.4843311e-06 -3.7515201e-07 
1.1138769e-06 -1.1419636e-05 -1.5730561e-06 
1.2187201e-06 -3.2939992e-05 -2.0636719e-06 
4.3499856e-08 -3.3446581e-06 -2.5970604e-07 
8.0274485e-06 -1.7364420e-05 -2.0112652e-06 
5.5961673e-06 -2.9571678e-05 -3.5834501e-06 
-2.0723410e-09 4.0186404e-08 -1.1253544e-08 
4.6475609e-08 2.5923728e-07 -4.9008339e-08 
-2.3940674e-09 3.5428432e-08 -1.0056468e-08 
1.1361741e-06 -6.9941216e-06 -4.6808932e-06 
-2.1133129e-08 -9.4805422e-08 -5.0498448e-07 
7.5191856e-06 -4.3397220e-05 -1.1777258e-06 
5.1076681e-06 -2.5850417e-05 -8.0391419e-06 
-9.6124047e-08 1.5321392e-07 2.6707761e-07 
-8.2046601e-09 9.5402996e-08 3.2419241e-08 
2.2663892e-07 -4.7468285e-07 -2.3023048e-07 
4.7120778e-08 8.5235925e-08 -6.3948058e-08 
5.8781848e-06 -1.3109439e-05 -5.0239755e-06 
-1.5391690e-08 1.5206814e-07 2.4788735e-08 
1.6497513e-07 -1.2524251e-06 -1.5820568e-06 
-6.9213462e-09 1.4803308e-07 7.4607192e-09 
2.8538825e-06 -2.9013597e-06 -1.7244806e-06 
3.4704590e-06 -7.3215742e-05 -1.2664414e-06 
-8.1417156e-08 -8.1950366e-06 7.5284206e-08 
3.1671291e-07 -4.0581690e-06 -2.2923166e-06 
1.9364747e-06 -3.4065986e-06 -3.1543423e-06 
6.5580966e-06 -4.2192914e-05 -2.9948471e-06 
-4.8665960e-09 6.8591923e-08 8.5843856e-09 
-3.5844966e-08 3.6993032e-07 4.4848274e-08 
1.2300741e-07 7.3474062e-08 -1.8096209e-07 
1.4319077e-07 -4.2770353e-07 -2.4785521e-08 
1.4538643e-06 -1.1477198e-06 -1.1444429e-06 
-1.8445242e-08 1.5121965e-07 7.2883196e-08 
-4.8474215e-07 -1.1519979e-04 -2.1654516e-06 
2.2961477e-07 -1.0725694e-07 -6.1012850e-07 
1.8760744e-07 -2.8991633e-06 2.6161160e-07 