# vtk DataFile Version 4.0
vtk output
ASCII
DATASET UNSTRUCTURED_GRID
POINTS 460 float
0.0000000e+00 0.0000000e+00 0.0000000e+00 
5.0000000e+00 0.0000000e+00 0.0000000e+00 
5.0000000e+00 3.0000000e+00 0.0000000e+00 
0.0000000e+00 3.0000000e+00 0.0000000e+00 
0.0000000e+00 0.0000000e+00 1.0000000e+01 
5.0000000e+00 0.0000000e+00 1.0000000e+01 
5.0000000e+00 3.0000000e+00 1.0000000e+01 
0.0000000e+00 3.0000000e+00 1.0000000e+01 
1.0000000e+00 3.0000000e+00 -5.0000000e+00 
1.0000000e+00 3.0000000e+00 -4.5000000e+00 
1.0000000e+00 3.0000000e+00 -4.0000000e+00 
1.0000000e+00 3.0000000e+00 -3.5000000e+00 
1.0000000e+00 3.0000000e+00 -3.0000000e+00 
1.0000000e+00 3.0000000e+00 -2.5000000e+00 
1.0000000e+00 3.0000000e+00 -2.0000000e+00 
1.0000000e+00 3.0000000e+00 -1.5000000e+00 
1.0000000e+00 3.0000000e+00 -1.0000000e+00 
1.0000000e+00 3.0000000e+00 -5.0000000e-01 
1.0000000e+00 3.0000000e+00 0.0000000e+00 
1.0000000e+00 3.0000000e+00 5.0000000e-01 
1.0000000e+00 3.0000000e+00 1.0000000e+00 
1.0000000e+00 3.0000000e+00 1.5000000e+00 
1.0000000e+00 3.0000000e+00 2.0000000e+00 
1.0000000e+00 3.0000000e+00 2.5000000e+00 
1.0000000e+00 3.0000000e+00 3.0000000e+00 
1.0000000e+00 3.0000000e+00 3.5000000e+00 
1.0000000e+00 3.0000000e+00 4.0000000e+00 
1.0000000e+00 3.0000000e+00 4.5000000e+00 
1.0000000e+00 3.0000000e+00 5.0000000e+00 
1.0000000e+00 3.0000000e+00 5.5000000e+00 
1.0000000e+00 3.0000000e+00 6.0000000e+00 
1.0000000e+00 3.0000000e+00 6.5000000e+00 
1.0000000e+00 3.0000000e+00 7.0000000e+00 
1.0000000e+00 3.0000000e+00 7.5000000e+00 
1.0000000e+00 3.0000000e+00 8.0000000e+00 
1.0000000e+00 3.0000000e+00 8.5000000e+00 
1.0000000e+00 3.0000000e+00 9.0000000e+00 
1.0000000e+00 3.0000000e+00 9.5000000e+00 
1.0000000e+00 3.0000000e+00 1.0000000e+01 
1.0000000e+00 3.0000000e+00 1.0500000e+01 
1.0000000e+00 3.0000000e+00 1.1000000e+01 
1.0000000e+00 3.0000000e+00 1.1500000e+01 
1.0000000e+00 3.0000000e+00 1.2000000e+01 
1.0000000e+00 3.0000000e+00 1.2500000e+01 
1.0000000e+00 3.0000000e+00 1.3000000e+01 
1.0000000e+00 3.0000000e+00 1.3500000e+01 
1.0000000e+00 3.0000000e+00 1.4000000e+01 
1.0000000e+00 3.0000000e+00 1.4500000e+01 
1.0000000e+00 3.0250001e+00 -5.0000000e+00 
1.0000000e+00 3.0250001e+00 -4.5000000e+00 
1.0000000e+00 3.0250001e+00 -4.0000000e+00 
1.0000000e+00 3.0250001e+00 -3.5000000e+00 
1.0000000e+00 3.0250001e+00 -3.0000000e+00 
1.0000000e+00 3.0250001e+00 -2.5000000e+00 
1.0000000e+00 3.0250001e+00 -2.0000000e+00 
1.0000000e+00 3.0250001e+00 -1.5000000e+00 
1.0000000e+00 3.0250001e+00 -1.0000000e+00 
1.0000000e+00 3.0250001e+00 -5.0000000e-01 
1.0000000e+00 3.0250001e+00 0.0000000e+00 
1.0000000e+00 3.0250001e+00 5.0000000e-01 
1.0000000e+00 3.0250001e+00 1.0000000e+00 
1.0000000e+00 3.0250001e+00 1.5000000e+00 
1.0000000e+00 3.0250001e+00 2.0000000e+00 
1.0000000e+00 3.0250001e+00 2.5000000e+00 
1.0000000e+00 3.0250001e+00 3.0000000e+00 
1.0000000e+00 3.0250001e+00 3.5000000e+00 
1.0000000e+00 3.0250001e+00 4.0000000e+00 
1.0000000e+00 3.0250001e+00 4.5000000e+00 
1.0000000e+00 3.0250001e+00 5.0000000e+00 
1.0000000e+00 3.0250001e+00 5.5000000e+00 
1.0000000e+00 3.0250001e+00 6.0000000e+00 
1.0000000e+00 3.0250001e+00 6.5000000e+00 
1.0000000e+00 3.0250001e+00 7.0000000e+00 
1.0000000e+00 3.0250001e+00 7.5000000e+00 
1.0000000e+00 3.0250001e+00 8.0000000e+00 
1.0000000e+00 3.0250001e+00 8.5000000e+00 
1.0000000e+00 3.0250001e+00 9.0000000e+00 
1.0000000e+00 3.0250001e+00 9.5000000e+00 
1.0000000e+00 3.0250001e+00 1.0000000e+01 
1.0000000e+00 3.0250001e+00 1.0500000e+01 
1.0000000e+00 3.0250001e+00 1.1000000e+01 
1.0000000e+00 3.0250001e+00 1.1500000e+01 
1.0000000e+00 3.0250001e+00 1.2000000e+01 
1.0000000e+00 3.0250001e+00 1.2500000e+01 
1.0000000e+00 3.0250001e+00 1.3000000e+01 
1.0000000e+00 3.0250001e+00 1.3500000e+01 
1.0000000e+00 3.0250001e+00 1.4000000e+01 
1.0000000e+00 3.0250001e+00 1.4500000e+01 
1.0000000e+00 -2.0000000e+00 -5.0000000e+00 
1.0000000e+00 -2.0000000e+00 -4.5000000e+00 
1.0000000e+00 -2.0000000e+00 -4.0000000e+00 
1.0000000e+00 -2.0000000e+00 -3.5000000e+00 
1.0000000e+00 -2.0000000e+00 -3.0000000e+00 
1.0000000e+00 -2.0000000e+00 -2.5000000e+00 
1.0000000e+00 -2.0000000e+00 -2.0000000e+00 
1.0000000e+00 -2.0000000e+00 -1.5000000e+00 
1.0000000e+00 -2.0000000e+00 -1.0000000e+00 
1.0000000e+00 -2.0000000e+00 -5.0000000e-01 
1.0000000e+00 -2.0000000e+00 1.0500000e+01 
1.0000000e+00 -2.0000000e+00 1.1000000e+01 
1.0000000e+00 -2.0000000e+00 1.1500000e+01 
1.0000000e+00 -2.0000000e+00 1.2000000e+01 
1.0000000e+00 -2.0000000e+00 1.2500000e+01 
1.0000000e+00 -2.0000000e+00 1.3000000e+01 
1.0000000e+00 -2.0000000e+00 1.3500000e+01 
1.0000000e+00 -2.0000000e+00 1.4000000e+01 
1.0000000e+00 -2.0000000e+00 1.4500000e+01 
1.0000000e+00 0.0000000e+00 0.0000000e+00 
2.0000000e+00 0.0000000e+00 0.0000000e+00 
3.0000000e+00 0.0000000e+00 0.0000000e+00 
4.0000000e+00 0.0000000e+00 0.0000000e+00 
5.0000000e+00 1.0000000e+00 0.0000000e+00 
5.0000000e+00 2.0000000e+00 0.0000000e+00 
0.0000000e+00 2.0000000e+00 0.0000000e+00 
0.0000000e+00 1.0000000e+00 0.0000000e+00 
0.0000000e+00 0.0000000e+00 1.0000000e+00 
0.0000000e+00 0.0000000e+00 2.0000000e+00 
0.0000000e+00 0.0000000e+00 3.0000000e+00 
0.0000000e+00 0.0000000e+00 4.0000000e+00 
0.0000000e+00 0.0000000e+00 5.0000000e+00 
0.0000000e+00 0.0000000e+00 6.0000000e+00 
0.0000000e+00 0.0000000e+00 7.0000000e+00 
0.0000000e+00 0.0000000e+00 8.0000000e+00 
0.0000000e+00 0.0000000e+00 9.0000000e+00 
5.0000000e+00 0.0000000e+00 1.0000000e+00 
5.0000000e+00 0.0000000e+00 2.0000000e+00 
5.0000000e+00 0.0000000e+00 3.0000000e+00 
5.0000000e+00 0.0000000e+00 4.0000000e+00 
5.0000000e+00 0.0000000e+00 5.0000000e+00 
5.0000000e+00 0.0000000e+00 6.0000000e+00 
5.0000000e+00 0.0000000e+00 7.0000000e+00 
5.0000000e+00 0.0000000e+00 8.0000000e+00 
5.0000000e+00 0.0000000e+00 9.0000000e+00 
1.0000000e+00 0.0000000e+00 1.0000000e+01 
2.0000000e+00 0.0000000e+00 1.0000000e+01 
3.0000000e+00 0.0000000e+00 1.0000000e+01 
4.0000000e+00 0.0000000e+00 1.0000000e+01 
5.0000000e+00 3.0000000e+00 1.0000000e+00 
5.0000000e+00 3.0000000e+00 2.0000000e+00 
5.0000000e+00 3.0000000e+00 3.0000000e+00 
5.0000000e+00 3.0000000e+00 4.0000000e+00 
5.0000000e+00 3.0000000e+00 5.0000000e+00 
5.0000000e+00 3.0000000e+00 6.0000000e+00 
5.0000000e+00 3.0000000e+00 7.0000000e+00 
5.0000000e+00 3.0000000e+00 8.0000000e+00 
5.0000000e+00 3.0000000e+00 9.0000000e+00 
5.0000000e+00 1.0000000e+00 1.0000000e+01 
5.0000000e+00 2.0000000e+00 1.0000000e+01 
0.0000000e+00 3.0000000e+00 1.0000000e+00 
0.0000000e+00 3.0000000e+00 2.0000000e+00 
0.0000000e+00 3.0000000e+00 3.0000000e+00 
0.0000000e+00 3.0000000e+00 4.0000000e+00 
0.0000000e+00 3.0000000e+00 5.0000000e+00 
0.0000000e+00 3.0000000e+00 6.0000000e+00 
0.0000000e+00 3.0000000e+00 7.0000000e+00 
0.0000000e+00 3.0000000e+00 8.0000000e+00 
0.0000000e+00 3.0000000e+00 9.0000000e+00 
0.0000000e+00 2.0000000e+00 1.0000000e+01 
0.0000000e+00 1.0000000e+00 1.0000000e+01 
4.0000000e+00 3.0000000e+00 0.0000000e+00 
3.0000000e+00 3.0000000e+00 0.0000000e+00 
2.0000000e+00 3.0000000e+00 0.0000000e+00 
4.0000000e+00 3.0000000e+00 1.0000000e+01 
3.0000000e+00 3.0000000e+00 1.0000000e+01 
2.0000000e+00 3.0000000e+00 1.0000000e+01 
4.0618000e+00 1.5000000e+00 0.0000000e+00 
1.5046000e+00 7.6549745e-01 0.0000000e+00 
2.5000000e+00 2.1339746e+00 0.0000000e+00 
1.5046000e+00 2.2345026e+00 0.0000000e+00 
2.4957771e+00 8.1560516e-01 0.0000000e+00 
3.4707544e+00 2.2336540e+00 0.0000000e+00 
3.4700506e+00 7.5794268e-01 0.0000000e+00 
8.6322361e-01 1.5000000e+00 0.0000000e+00 
2.0000000e+00 1.5000000e+00 0.0000000e+00 
2.9960666e+00 1.4974480e+00 0.0000000e+00 
4.2679491e+00 7.3205084e-01 0.0000000e+00 
4.2679491e+00 2.2679491e+00 0.0000000e+00 
7.2695929e-01 2.2730408e+00 0.0000000e+00 
7.2695929e-01 7.2695929e-01 0.0000000e+00 
4.1822505e+00 0.0000000e+00 2.5515697e+00 
4.2017918e+00 0.0000000e+00 4.4725966e+00 
4.1114569e+00 0.0000000e+00 6.5092020e+00 
8.6602539e-01 0.0000000e+00 3.5000000e+00 
8.4778279e-01 0.0000000e+00 5.4684029e+00 
8.9629614e-01 0.0000000e+00 7.5867257e+00 
2.5566745e+00 0.0000000e+00 8.1853306e-01 
2.4918270e+00 0.0000000e+00 9.1386929e+00 
8.4677207e-01 0.0000000e+00 1.5042374e+00 
4.0943027e+00 0.0000000e+00 8.4081745e+00 
8.6281651e-01 0.0000000e+00 2.5007062e+00 
1.7315160e+00 0.0000000e+00 3.0001178e+00 
1.7319617e+00 0.0000000e+00 4.0000196e+00 
2.5980761e+00 0.0000000e+00 3.5000000e+00 
2.5536871e+00 0.0000000e+00 4.4963923e+00 
2.5928419e+00 0.0000000e+00 2.4239938e+00 
1.5037409e+00 0.0000000e+00 9.1535149e+00 
1.8433737e+00 0.0000000e+00 8.1858873e+00 
3.0000000e+00 0.0000000e+00 8.2679491e+00 
2.5000000e+00 0.0000000e+00 7.4019237e+00 
3.5042722e+00 0.0000000e+00 7.4271150e+00 
3.0310018e+00 0.0000000e+00 6.5282087e+00 
2.0373929e+00 0.0000000e+00 6.5307913e+00 
3.4767809e+00 0.0000000e+00 5.8031492e+00 
2.5452602e+00 0.0000000e+00 5.5720768e+00 
1.6456656e+00 0.0000000e+00 1.9697139e+00 
8.6297011e-01 0.0000000e+00 4.4947371e+00 
1.0111579e+00 0.0000000e+00 6.5282545e+00 
3.4994321e+00 0.0000000e+00 8.4691072e-01 
4.1860156e+00 0.0000000e+00 3.5040276e+00 
1.7320508e+00 0.0000000e+00 5.0000000e+00 
4.0544066e+00 0.0000000e+00 1.5781221e+00 
1.5817389e+00 0.0000000e+00 9.3943578e-01 
8.3166349e-01 0.0000000e+00 8.5090933e+00 
3.4686174e+00 0.0000000e+00 9.1752682e+00 
3.0709300e+00 0.0000000e+00 1.5799091e+00 
3.3927374e+00 0.0000000e+00 3.0399952e+00 
3.3826034e+00 0.0000000e+00 3.9747651e+00 
4.3420062e+00 0.0000000e+00 7.4688983e+00 
3.4023225e+00 0.0000000e+00 4.9314723e+00 
1.6740381e+00 0.0000000e+00 7.3014426e+00 
4.2715640e+00 0.0000000e+00 5.4758859e+00 
1.6225953e+00 0.0000000e+00 5.8104177e+00 
4.2679491e+00 0.0000000e+00 9.2679491e+00 
7.3205084e-01 0.0000000e+00 7.3205084e-01 
4.2679491e+00 0.0000000e+00 7.3205084e-01 
7.3205084e-01 0.0000000e+00 9.2679491e+00 
3.4586334e+00 0.0000000e+00 2.2347178e+00 
2.2895701e+00 0.0000000e+00 1.5463171e+00 
5.0000000e+00 2.2345026e+00 1.5046000e+00 
[...]
POINT_DATA 460
FIELD FieldData 2
DISPLACEMENT 3 460  float
0.0000000e+00 0.0000000e+00 0.0000000e+00 
0.0000000e+00 0.0000000e+00 0.0000000e+00 
0.0000000e+00 2.9607609e-08 0.0000000e+00 
0.0000000e+00 2.4241404e-08 0.0000000e+00 
0.0000000e+00 0.0000000e+00 0.0000000e+00 
0.0000000e+00 0.0000000e+00 0.0000000e+00 
0.0000000e+00 -5.3891863e-06 0.0000000e+00 
0.0000000e+00 -1.3291850e-04 0.0000000e+00 
0.0000000e+00 1.0094112e-08 0.0000000e+00 
0.0000000e+00 9.8069224e-09 0.0000000e+00 
0.0000000e+00 8.9987671e-09 0.0000000e+00 
0.0000000e+00 7.7778370e-09 0.0000000e+00 
0.0000000e+00 6.3435786e-09 0.0000000e+00 
0.0000000e+00 5.0345776e-09 0.0000000e+00 
0.0000000e+00 4.3490336e-09 0.0000000e+00 
0.0000000e+00 4.9270756e-09 0.0000000e+00 
0.0000000e+00 7.4428592e-09 0.0000000e+00 
0.0000000e+00 1.2328933e-08 0.0000000e+00 
0.0000000e+00 1.9435292e-08 0.0000000e+00 
-1.9438051e-09 2.7541621e-08 8.2043268e-11 
-4.0600212e-09 3.8463906e-08 1.1303098e-09 
-4.7598667e-09 5.4062195e-08 6.0839516e-09 
-7.9226030e-09 7.6671427e-08 1.8815905e-08 
-1.4205760e-08 1.0380910e-07 5.1870519e-08 
-1.9549990e-08 1.2570065e-07 1.0652166e-07 
-2.5646560e-08 1.2089342e-07 2.0972193e-07 
-8.4768132e-08 5.6738596e-08 4.5576070e-07 
-1.3908645e-07 -1.0839659e-07 7.5007364e-07 
-3.5779877e-07 -3.9043164e-07 1.5318203e-06 
-6.9835266e-07 -7.9542377e-07 2.4788792e-06 
-8.6703244e-07 -1.4395771e-06 3.8363310e-06 
-2.1036333e-06 -2.9685557e-06 6.4522587e-06 
-2.9988239e-06 -7.5117282e-06 9.5851965e-06 
-4.3994969e-06 -2.0199643e-05 1.2994652e-05 
-5.3366130e-06 -5.0151917e-05 1.6301505e-05 
-6.3725370e-06 -1.0951300e-04 3.5626839e-05 
-1.5154815e-05 -2.0279310e-04 2.7354850e-05 
-7.6524238e-06 -3.1476608e-04 6.6703101e-06 
0.0000000e+00 -3.6809489e-04 0.0000000e+00 
0.0000000e+00 -3.1550683e-04 0.0000000e+00 
0.0000000e+00 -2.2195705e-04 0.0000000e+00 
0.0000000e+00 -1.3225671e-04 0.0000000e+00 
0.0000000e+00 -6.3940752e-05 0.0000000e+00 
0.0000000e+00 -1.9809762e-05 0.0000000e+00 
0.0000000e+00 4.4537619e-06 0.0000000e+00 
0.0000000e+00 1.5370893e-05 0.0000000e+00 
0.0000000e+00 1.8966817e-05 0.0000000e+00 
0.0000000e+00 1.9555560e-05 0.0000000e+00 
0.0000000e+00 1.0280363e-08 0.0000000e+00 
0.0000000e+00 9.9488062e-09 0.0000000e+00 
0.0000000e+00 9.0337027e-09 0.0000000e+00 
0.0000000e+00 7.7585183e-09 0.0000000e+00 
0.0000000e+00 6.3308256e-09 0.0000000e+00 
0.0000000e+00 5.0358024e-09 0.0000000e+00 
0.0000000e+00 4.3537027e-09 0.0000000e+00 
0.0000000e+00 4.9355222e-09 0.0000000e+00 
0.0000000e+00 7.4646014e-09 0.0000000e+00 
0.0000000e+00 1.2374318e-08 0.0000000e+00 
0.0000000e+00 1.9337842e-08 0.0000000e+00 
0.0000000e+00 2.7538881e-08 0.0000000e+00 
0.0000000e+00 3.8429583e-08 0.0000000e+00 
0.0000000e+00 5.4209437e-08 0.0000000e+00 
0.0000000e+00 7.6894239e-08 0.0000000e+00 
0.0000000e+00 1.0419339e-07 0.0000000e+00 
0.0000000e+00 1.2612377e-07 0.0000000e+00 
0.0000000e+00 1.2129050e-07 0.0000000e+00 
0.0000000e+00 5.5731078e-08 0.0000000e+00 
0.0000000e+00 -1.0961544e-07 0.0000000e+00 
0.0000000e+00 -3.8957521e-07 0.0000000e+00 
0.0000000e+00 -7.8404969e-07 0.0000000e+00 
0.0000000e+00 -1.4004665e-06 0.0000000e+00 
0.0000000e+00 -2.8783445e-06 0.0000000e+00 
0.0000000e+00 -7.3706660e-06 0.0000000e+00 
0.0000000e+00 -2.0047342e-05 0.0000000e+00 
0.0000000e+00 -5.0266033e-05 0.0000000e+00 
0.0000000e+00 -1.0981614e-04 0.0000000e+00 
0.0000000e+00 -2.0473462e-04 0.0000000e+00 
0.0000000e+00 -3.1936369e-04 0.0000000e+00 
0.0000000e+00 -3.7209931e-04 0.0000000e+00 
0.0000000e+00 -3.1677051e-04 0.0000000e+00 
0.0000000e+00 -2.2285018e-04 0.0000000e+00 
0.0000000e+00 -1.3279145e-04 0.0000000e+00 
0.0000000e+00 -6.4201115e-05 0.0000000e+00 
0.0000000e+00 -1.9892077e-05 0.0000000e+00 
0.0000000e+00 4.4698800e-06 0.0000000e+00 
0.0000000e+00 1.5431684e-05 0.0000000e+00 
0.0000000e+00 1.9042574e-05 0.0000000e+00 
0.0000000e+00 1.9633862e-05 0.0000000e+00 
0.0000000e+00 0.0000000e+00 0.0000000e+00 
0.0000000e+00 0.0000000e+00 0.0000000e+00 
0.0000000e+00 0.0000000e+00 0.0000000e+00 
0.0000000e+00 0.0000000e+00 0.0000000e+00 
0.0000000e+00 0.0000000e+00 0.0000000e+00 
0.0000000e+00 0.0000000e+00 0.0000000e+00 
0.0000000e+00 0.0000000e+00 0.0000000e+00 
0.0000000e+00 0.0000000e+00 0.0000000e+00 
0.0000000e+00 0.0000000e+00 0.0000000e+00 
0.0000000e+00 0.0000000e+00 0.0000000e+00 
0.0000000e+00 0.0000000e+00 0.0000000e+00 
0.0000000e+00 0.0000000e+00 0.0000000e+00 
0.0000000e+00 0.0000000e+00 0.0000000e+00 
0.0000000e+00 0.0000000e+00 0.0000000e+00 
0.0000000e+00 0.0000000e+00 0.0000000e+00 
0.0000000e+00 0.0000000e+00 0.0000000e+00 
0.0000000e+00 0.0000000e+00 0.0000000e+00 
0.0000000e+00 0.0000000e+00 0.0000000e+00 
0.0000000e+00 0.0000000e+00 0.0000000e+00 
0.0000000e+00 0.0000000e+00 0.0000000e+00 
0.0000000e+00 0.0000000e+00 0.0000000e+00 
0.0000000e+00 0.0000000e+00 0.0000000e+00 
0.0000000e+00 0.0000000e+00 0.0000000e+00 
0.0000000e+00 1.5428665e-08 0.0000000e+00 
0.0000000e+00 2.6579890e-08 0.0000000e+00 
0.0000000e+00 2.1419337e-08 0.0000000e+00 
0.0000000e+00 1.2354003e-08 0.0000000e+00 
0.0000000e+00 0.0000000e+00 0.0000000e+00 
0.0000000e+00 0.0000000e+00 0.0000000e+00 
0.0000000e+00 0.0000000e+00 0.0000000e+00 
0.0000000e+00 0.0000000e+00 0.0000000e+00 
0.0000000e+00 0.0000000e+00 0.0000000e+00 
0.0000000e+00 0.0000000e+00 0.0000000e+00 
0.0000000e+00 0.0000000e+00 0.0000000e+00 
0.0000000e+00 0.0000000e+00 0.0000000e+00 
0.0000000e+00 0.0000000e+00 0.0000000e+00 
0.0000000e+00 0.0000000e+00 0.0000000e+00 
0.0000000e+00 0.0000000e+00 0.0000000e+00 
0.0000000e+00 0.0000000e+00 0.0000000e+00 
0.0000000e+00 0.0000000e+00 0.0000000e+00 
0.0000000e+00 0.0000000e+00 0.0000000e+00 
0.0000000e+00 0.0000000e+00 0.0000000e+00 
0.0000000e+00 0.0000000e+00 0.0000000e+00 
0.0000000e+00 0.0000000e+00 0.0000000e+00 
0.0000000e+00 0.0000000e+00 0.0000000e+00 
0.0000000e+00 0.0000000e+00 0.0000000e+00 
0.0000000e+00 0.0000000e+00 0.0000000e+00 
0.0000000e+00 0.0000000e+00 0.0000000e+00 
0.0000000e+00 0.0000000e+00 0.0000000e+00 
0.0000000e+00 4.1467285e-08 0.0000000e+00 
0.0000000e+00 8.7236351e-08 0.0000000e+00 
0.0000000e+00 1.5129962e-07 0.0000000e+00 
0.0000000e+00 2.8049936e-07 0.0000000e+00 
0.0000000e+00 2.7813769e-07 0.0000000e+00 
0.0000000e+00 2.4039582e-07 0.0000000e+00 
0.0000000e+00 -1.0460438e-06 0.0000000e+00 
0.0000000e+00 -1.9932518e-06 0.0000000e+00 
0.0000000e+00 -4.9618257e-06 0.0000000e+00 
0.0000000e+00 -3.0540725e-06 0.0000000e+00 
0.0000000e+00 -4.8244874e-06 0.0000000e+00 
0.0000000e+00 3.1972842e-08 0.0000000e+00 
0.0000000e+00 5.7120619e-08 0.0000000e+00 
0.0000000e+00 7.3289009e-08 0.0000000e+00 
0.0000000e+00 -7.4014970e-08 0.0000000e+00 
0.0000000e+00 -8.4787825e-07 0.0000000e+00 
0.0000000e+00 -3.5850087e-06 0.0000000e+00 
0.0000000e+00 -1.4439553e-05 0.0000000e+00 
0.0000000e+00 -4.4943183e-05 0.0000000e+00 
0.0000000e+00 -1.1001415e-04 0.0000000e+00 
0.0000000e+00 -1.1083934e-04 0.0000000e+00 
0.0000000e+00 -5.4702472e-05 0.0000000e+00 
0.0000000e+00 2.9192998e-08 0.0000000e+00 
0.0000000e+00 2.9754206e-08 0.0000000e+00 
0.0000000e+00 2.8443443e-08 0.0000000e+00 
0.0000000e+00 -9.6812810e-06 0.0000000e+00 
0.0000000e+00 -2.6479445e-05 0.0000000e+00 
0.0000000e+00 -7.0270828e-05 0.0000000e+00 
0.0000000e+00 2.0080961e-08 0.0000000e+00 
0.0000000e+00 1.0931982e-08 0.0000000e+00 
0.0000000e+00 2.5802285e-08 0.0000000e+00 
0.0000000e+00 2.2779217e-08 0.0000000e+00 
0.0000000e+00 1.2802116e-08 0.0000000e+00 
0.0000000e+00 2.5749117e-08 0.0000000e+00 
0.0000000e+00 1.3416266e-08 0.0000000e+00 
0.0000000e+00 1.8228958e-08 0.0000000e+00 
0.0000000e+00 2.1313360e-08 0.0000000e+00 
0.0000000e+00 2.0912168e-08 0.0000000e+00 
0.0000000e+00 9.1531476e-09 0.0000000e+00 
0.0000000e+00 2.6211485e-08 0.0000000e+00 
0.0000000e+00 2.1863482e-08 0.0000000e+00 
0.0000000e+00 8.7116447e-09 0.0000000e+00 
0.0000000e+00 0.0000000e+00 0.0000000e+00 
0.0000000e+00 0.0000000e+00 0.0000000e+00 
0.0000000e+00 0.0000000e+00 0.0000000e+00 
0.0000000e+00 0.0000000e+00 0.0000000e+00 
0.0000000e+00 0.0000000e+00 0.0000000e+00 
0.0000000e+00 0.0000000e+00 0.0000000e+00 
0.0000000e+00 0.0000000e+00 0.0000000e+00 
0.0000000e+00 0.0000000e+00 0.0000000e+00 
0.0000000e+00 0.0000000e+00 0.0000000e+00 
0.0000000e+00 0.0000000e+00 0.0000000e+00 
0.0000000e+00 0.0000000e+00 0.0000000e+00 
0.0000000e+00 0.0000000e+00 0.0000000e+00 
0.0000000e+00 0.0000000e+00 0.0000000e+00 
0.0000000e+00 0.0000000e+00 0.0000000e+00 
0.0000000e+00 0.0000000e+00 0.0000000e+00 
0.0000000e+00 0.0000000e+00 0.0000000e+00 
0.0000000e+00 0.0000000e+00 0.0000000e+00 
0.0000000e+00 0.0000000e+00 0.0000000e+00 
0.0000000e+00 0.0000000e+00 0.0000000e+00 
0.0000000e+00 0.0000000e+00 0.0000000e+00 
0.0000000e+00 0.0000000e+00 0.0000000e+00 
0.0000000e+00 0.0000000e+00 0.0000000e+00 
0.0000000e+00 0.0000000e+00 0.0000000e+00 
0.0000000e+00 0.0000000e+00 0.0000000e+00 
0.0000000e+00 0.0000000e+00 0.0000000e+00 
0.0000000e+00 0.0000000e+00 0.0000000e+00 
0.0000000e+00 0.0000000e+00 0.0000000e+00 
0.0000000e+00 0.0000000e+00 0.0000000e+00 
0.0000000e+00 0.0000000e+00 0.0000000e+00 
0.0000000e+00 0.0000000e+00 0.0000000e+00 
0.0000000e+00 0.0000000e+00 0.0000000e+00 
0.0000000e+00 0.0000000e+00 0.0000000e+00 
0.0000000e+00 0.0000000e+00 0.0000000e+00 
0.0000000e+00 0.0000000e+00 0.0000000e+00 
0.0000000e+00 0.0000000e+00 0.0000000e+00 
0.0000000e+00 0.0000000e+00 0.0000000e+00 
0.0000000e+00 0.0000000e+00 0.0000000e+00 
0.0000000e+00 0.0000000e+00 0.0000000e+00 
0.0000000e+00 0.0000000e+00 0.0000000e+00 
0.0000000e+00 0.0000000e+00 0.0000000e+00 
0.0000000e+00 0.0000000e+00 0.0000000e+00 
0.0000000e+00 0.0000000e+00 0.0000000e+00 
0.0000000e+00 0.0000000e+00 0.0000000e+00 
0.0000000e+00 0.0000000e+00 0.0000000e+00 
0.0000000e+00 0.0000000e+00 0.0000000e+00 
0.0000000e+00 0.0000000e+00 0.0000000e+00 
0.0000000e+00 0.0000000e+00 0.0000000e+00 
0.0000000e+00 0.0000000e+00 0.0000000e+00 
0.0000000e+00 0.0000000e+00 0.0000000e+00 
0.0000000e+00 5.6766012e-08 0.0000000e+00 
0.0000000e+00 -3.2032533e-06 0.0000000e+00 
0.0000000e+00 1.9683804e-07 0.0000000e+00 
0.0000000e+00 3.1388814e-07 0.0000000e+00 
0.0000000e+00 -1.2122226e-06 0.0000000e+00 
0.0000000e+00 4.7978478e-08 0.0000000e+00 
0.0000000e+00 8.2606320e-08 0.0000000e+00 
0.0000000e+00 -1.7997331e-07 0.0000000e+00 
0.0000000e+00 8.6566580e-08 0.0000000e+00 
0.0000000e+00 1.2422130e-07 0.0000000e+00 
0.0000000e+00 1.0410725e-07 0.0000000e+00 
0.0000000e+00 3.0294080e-07 0.0000000e+00 
0.0000000e+00 2.2064485e-07 0.0000000e+00 
0.0000000e+00 -8.4328479e-07 0.0000000e+00 
0.0000000e+00 2.4138489e-08 0.0000000e+00 
0.0000000e+00 -1.5942661e-06 0.0000000e+00 
0.0000000e+00 -2.1052631e-06 0.0000000e+00 
0.0000000e+00 2.9339716e-08 0.0000000e+00 
0.0000000e+00 2.1250681e-07 0.0000000e+00 
0.0000000e+00 -2.6557314e-07 0.0000000e+00 
0.0000000e+00 5.7059246e-08 0.0000000e+00 
0.0000000e+00 2.3135998e-07 0.0000000e+00 
0.0000000e+00 1.9051470e-07 0.0000000e+00 
0.0000000e+00 1.1305327e-07 0.0000000e+00 
0.0000000e+00 -1.2735005e-06 0.0000000e+00 
0.0000000e+00 -3.9511892e-06 0.0000000e+00 
0.0000000e+00 -1.6826042e-06 0.0000000e+00 
0.0000000e+00 3.4569695e-08 0.0000000e+00 
0.0000000e+00 1.4089894e-08 0.0000000e+00 
0.0000000e+00 -6.4943844e-05 0.0000000e+00 
0.0000000e+00 2.2309132e-08 0.0000000e+00 
0.0000000e+00 2.6790104e-08 0.0000000e+00 
0.0000000e+00 -1.7822379e-07 0.0000000e+00 
0.0000000e+00 -1.1898616e-05 0.0000000e+00 
0.0000000e+00 3.5391857e-08 0.0000000e+00 
0.0000000e+00 -1.8034714e-06 0.0000000e+00 
0.0000000e+00 -2.5161520e-05 0.0000000e+00 
0.0000000e+00 2.6462941e-09 0.0000000e+00 
0.0000000e+00 6.1076257e-08 0.0000000e+00 
0.0000000e+00 -2.9597089e-07 0.0000000e+00 
0.0000000e+00 -7.2373809e-06 0.0000000e+00 
0.0000000e+00 -3.8379453e-06 0.0000000e+00 
0.0000000e+00 -6.8844507e-05 0.0000000e+00 
0.0000000e+00 3.8924419e-08 0.0000000e+00 
0.0000000e+00 1.7690663e-08 0.0000000e+00 
0.0000000e+00 -2.1569269e-05 0.0000000e+00 
0.0000000e+00 -6.3020980e-07 0.0000000e+00 
0.0000000e+00 -3.7654756e-06 0.0000000e+00 
0.0000000e+00 -1.2136515e-07 0.0000000e+00 
0.0000000e+00 3.7272542e-08 0.0000000e+00 
0.0000000e+00 -1.1267577e-05 0.0000000e+00 
0.0000000e+00 -8.2434764e-07 0.0000000e+00 
0.0000000e+00 -3.2862394e-05 0.0000000e+00 
0.0000000e+00 3.8894505e-08 0.0000000e+00 
0.0000000e+00 -3.0741663e-05 0.0000000e+00 
0.0000000e+00 2.6410607e-08 0.0000000e+00 
0.0000000e+00 1.1251698e-08 0.0000000e+00 
0.0000000e+00 -1.1033209e-04 0.0000000e+00 
0.0000000e+00 -3.0310803e-05 0.0000000e+00 
0.0000000e+00 -6.2917270e-06 0.0000000e+00 
0.0000000e+00 -4.1463107e-05 0.0000000e+00 
0.0000000e+00 -1.2620918e-04 0.0000000e+00 
0.0000000e+00 -1.6872276e-05 0.0000000e+00 
0.0000000e+00 -1.5907635e-05 0.0000000e+00 
0.0000000e+00 -7.4487302e-06 0.0000000e+00 
0.0000000e+00 -9.5289462e-05 0.0000000e+00 
0.0000000e+00 -5.1162613e-05 0.0000000e+00 
0.0000000e+00 -2.0098571e-05 0.0000000e+00 
0.0000000e+00 -3.3918466e-06 0.0000000e+00 
0.0000000e+00 -7.0953074e-06 0.0000000e+00 
0.0000000e+00 -1.7399619e-04 0.0000000e+00 
0.0000000e+00 -4.1899417e-05 0.0000000e+00 
-2.3214702e-07 2.5327717e-08 1.0954303e-06 
-1.5699569e-06 -3.5797887e-06 4.7175140e-06 
-6.3507264e-06 -2.8915605e-05 1.3531967e-05 
-1.7228057e-08 8.3890043e-08 4.2987690e-08 
-4.8210186e-08 1.6372933e-07 1.9359089e-07 
-4.4440549e-07 2.3568380e-07 6.2879838e-07 
-1.9790868e-08 1.3226673e-07 1.5503309e-08 
-1.9434540e-06 -1.7365795e-06 2.0986868e-06 
-5.4872586e-09 4.6991566e-08 4.4557615e-09 
-1.3298319e-05 -9.7460550e-05 2.1496910e-05 
-3.6690411e-09 3.9255401e-08 -3.9963135e-09 
-7.4835361e-06 -1.5926404e-05 2.0962357e-06 
-1.3788255e-06 -5.9605571e-07 1.4735691e-06 
-2.8777824e-06 -2.9196453e-06 3.9286019e-06 
-6.4169403e-06 -7.1118552e-06 6.3893281e-06 
-4.6910145e-06 -7.5575258e-06 4.9599957e-06 
-2.4593990e-06 -3.3852775e-06 3.3955118e-06 
-9.6313024e-06 -2.1576399e-05 7.6900951e-06 
-4.0188379e-06 -7.8690409e-06 7.8661806e-06 
-1.3755216e-06 -9.1825831e-07 2.4767683e-06 
-6.3322580e-07 -6.4015921e-08 1.1322643e-06 
-8.6275224e-07 -6.2854929e-07 1.8250817e-06 
-4.0667206e-07 1.2840671e-07 1.0995816e-06 
-2.3733551e-07 3.5292058e-07 4.7747773e-07 
-1.8872917e-07 2.8947576e-07 4.5842262e-07 
-1.1639707e-07 2.2978850e-07 1.9556411e-07 
-6.1236150e-08 2.0136987e-07 1.9897213e-07 
-4.6080114e-08 1.7486164e-07 8.3679751e-08 
-4.6599126e-08 1.3912938e-07 9.2373391e-08 
-2.8130898e-08 1.0338966e-07 2.6122073e-08 
-1.4793826e-08 7.8995960e-08 2.4140643e-08 
-6.6068037e-07 -2.9926460e-07 2.1741305e-06 
-1.2022640e-06 -1.5512967e-06 2.9009771e-06 
-1.2546802e-07 1.8017876e-07 3.1001568e-07 
-5.2971576e-08 2.3000997e-07 6.2933033e-08 
-1.0316051e-05 -3.6727830e-05 4.5126540e-06 
-1.9295905e-07 2.1855631e-07 7.0581501e-07 
-2.2206083e-07 3.8724707e-07 3.4572042e-07 
-4.4013211e-09 4.3556284e-08 1.7041921e-09 
-4.5658503e-06 -5.7909983e-06 2.2860017e-06 
-7.7712466e-06 -1.7410157e-05 1.1580214e-05 
-1.0039551e-05 -3.5188124e-05 1.2105072e-05 
-9.4136897e-07 -1.0527015e-06 2.8431693e-06 
-5.2498357e-09 6.3934742e-08 -2.8361302e-09 
-2.6383853e-08 1.1903582e-07 9.1139967e-08 
-4.6934030e-08 1.6489571e-07 1.3864729e-07 
-8.9270522e-08 1.3436637e-07 3.7584525e-07 
-1.9889542e-07 1.3673107e-07 7.4398150e-07 
-2.8672748e-06 -7.0911778e-06 6.8936442e-06 
-5.0364170e-06 -1.6689202e-05 1.1315734e-05 
-3.4212315e-09 3.2765698e-08 -1.2072500e-10 
-8.0242746e-09 6.6171800e-08 1.5075297e-08 
-1.2806860e-05 -1.4191217e-04 1.3039797e-05 
-1.1075588e-08 6.9431728e-08 5.6328910e-09 
-2.9851588e-08 1.0868734e-07 5.7276523e-08 
-1.1990715e-05 -5.6546873e-05 1.9692896e-05 
-2.5976278e-06 -4.3352079e-06 5.3506242e-06 
-8.4043217e-09 5.7055438e-08 9.4165724e-09 
-4.0238251e-07 -4.8347181e-07 1.7269489e-06 
-8.5302518e-06 -1.4897862e-05 5.5557953e-06 
-3.6997096e-06 -7.4021350e-06 1.2514976e-06 
-2.1335791e-09 3.6834706e-08 -2.7376432e-09 
-1.4253584e-07 2.7150384e-07 2.2623212e-07 
-1.4975628e-08 8.1399889e-08 2.5147106e-08 
-1.6197120e-05 -5.7736110e-05 1.3771786e-05 
-1.6813960e-06 -1.5848644e-06 2.9921637e-06 
-1.3973914e-08 9.1780976e-08 1.3383096e-08 
-4.0283922e-08 1.6780911e-07 6.7221372e-08 
-4.5243111e-09 4.3210601e-08 3.1664642e-09 
-3.0804583e-07 -8.2964966e-08 1.2721457e-06 
-1.2731343e-05 -7.5508644e-05 9.3308781e-06 
-3.7851593e-09 7.3070602e-08 2.3586118e-08 
-3.0708041e-09 5.4732261e-08 9.0479224e-09 
-3.7947392e-09 7.7223426e-08 4.6588063e-08 
-7.6173965e-09 8.4897366e-08 7.6149234e-08 
-2.5064146e-09 4.0952106e-08 3.2720797e-09 
-1.0303038e-08 4.4588845e-08 1.4240781e-07 
-6.0886926e-08 -1.1536566e-07 3.1903215e-07 
-7.8931720e-08 -4.0758630e-07 5.8858302e-07 
-2.1761976e-07 -1.2074905e-06 1.7544313e-06 
-5.5852519e-07 -2.2787642e-06 3.3481015e-06 
-4.7705043e-07 -4.3444848e-06 4.3572709e-06 
-8.9535263e-07 -9.4529732e-06 6.9201142e-06 
-1.5068611e-06 -1.8694554e-05 9.1621841e-06 
-3.6730298e-06 -3.9939274e-05 1.1494639e-05 
-3.9924857e-06 -6.4904103e-05 1.6007856e-05 
-4.5702868e-06 -1.1155925e-04 1.7343589e-05 
-2.4267977e-06 -1.8167666e-04 1.2758215e-05 
-1.5591003e-09 2.8496961e-08 -5.3281485e-10 
2.1667863e-09 6.0617367e-08 -4.8986004e-10 
8.4051930e-09 1.4512226e-07 -8.7783327e-08 
2.5393842e-07 -4.6333460e-07 -1.2045524e-06 
2.1111321e-06 -7.6879405e-06 -5.0090671e-06 
6.7374708e-06 -3.6424608e-05 -1.0285314e-05 
4.5690109e-09 1.0557836e-07 -1.2829153e-08 
1.0665319e-07 2.0331724e-07 -2.0911875e-07 
9.0561969e-07 -1.2327265e-06 -1.7273619e-06 
-5.1830476e-08 1.1718881e-07 -6.6096696e-08 
-1.9126585e-09 1.0202533e-07 2.8256668e-08 
-2.1182163e-10 4.1974417e-08 9.4523562e-09 
4.0797095e-06 -5.8100136e-06 -4.2620186e-06 
-2.0892019e-09 4.5700133e-08 9.1582244e-09 
2.7970759e-07 -3.6676759e-06 -1.3149123e-06 
5.7202794e-07 -2.8763439e-05 -6.8331547e-06 
-1.7431883e-08 1.2565846e-07 5.4316029e-08 
3.4198166e-08 2.5121119e-07 -4.1508880e-08 
1.9752009e-09 1.3454401e-07 1.1891323e-08 
-2.8046509e-08 -4.0777820e-07 2.4421215e-08 
-4.2790829e-09 8.4382620e-08 -4.3481978e-07 
-6.6258421e-10 7.3167833e-08 2.0387997e-08 
3.3023161e-07 9.8414695e-08 -4.4772759e-07 
2.5188920e-06 -8.7908535e-05 -1.6412536e-05 
-2.4574773e-10 4.1724665e-08 6.1290204e-09 
3.0853116e-06 -7.7284667e-06 -1.3445731e-06 
9.2115462e-09 5.0980077e-08 -4.4213852e-08 
3.9053847e-07 -2.3597133e-07 -1.0272001e-06 
3.1399776e-09 5.4414215e-08 -1.1871336e-08 
8.8355110e-09 8.2381248e-08 -9.3827552e-08 
-1.0186817e-08 2.1795114e-07 4.7196952e-08 
5.1208144e-07 -6.4588841e-07 -3.2482623e-07 
-4.7179377e-08 -4.6903774e-06 -8.1961861e-07 
-3.2179676e-07 -1.0352103e-05 -4.2002492e-07 
-1.2783818e-07 -7.2739624e-07 4.0775312e-09 
6.3468810e-06 -1.7122411e-05 -3.6466759e-06 
1.6882133e-06 -1.7028484e-05 -3.7724933e-06 
-3.2477646e-10 2.4655655e-08 7.9997936e-10 
1.9421540e-08 1.9765429e-07 -5.5121880e-09 
1.2093208e-10 2.3088921e-08 1.0591097e-09 
4.7433215e-07 -2.6432297e-06 -2.8137974e-06 
-2.2389756e-08 6.1591827e-08 -2.1793521e-07 
6.1349956e-06 -4.4248820e-05 -3.1780867e-06 
2.6337434e-06 -1.4550012e-05 -8.9522173e-06 
-3.7569706e-08 2.2198907e-07 1.1983074e-07 
-2.5214055e-09 5.5672320e-08 1.4818988e-08 
5.7399443e-08 1.9354091e-07 -7.6358909e-08 
1.8525080e-08 7.0526902e-08 -1.6684167e-08 
3.6630388e-06 -7.8658222e-06 -5.2791402e-06 
-6.3851848e-09 9.4865889e-08 1.5574360e-08 
3.5564401e-08 -2.8296614e-07 -7.4517334e-07 
-4.0704045e-09 9.5824639e-08 1.0461052e-08 
1.7896895e-06 -1.8389102e-06 -1.8510322e-06 
1.3761447e-06 -4.7433394e-05 -2.8095112e-06 
-2.9430160e-07 -2.3542448e-06 3.4452700e-07 
8.2421430e-08 -9.8505177e-07 -9.9148860e-07 
8.0785264e-07 -1.2832920e-06 -2.0728044e-06 
5.2018245e-06 -3.8358579e-05 -8.8609968e-06 
-1.9525566e-09 3.7500655e-08 6.4022325e-09 
-2.5117563e-08 3.2954125e-07 4.9460233e-08 
5.1271691e-08 9.4633982e-08 -8.8318870e-08 
-3.8673460e-09 1.7491455e-07 7.6031732e-08 
7.8792999e-07 -4.3594892e-07 -9.3241857e-07 
-6.7263186e-09 1.0119037e-07 2.9396599e-08 
-1.8067219e-06 -5.6781133e-05 -3.7444722e-06 
8.6508912e-08 5.1814656e-08 -2.8598842e-07 
-1.0939483e-07 -2.4869676e-06 4.3740363e-07 