# vtk DataFile Version 4.0
vtk output
ASCII
DATASET UNSTRUCTURED_GRID
POINTS 460 float
0.0000000e+00 0.0000000e+00 0.0000000e+00 
5.0000000e+00 0.0000000e+00 0.0000000e+00 
5.0000000e+00 3.0000000e+00 0.0000000e+00 
0.0000000e+00 3.0000000e+00 0.0000000e+00 
0.0000000e+00 0.0000000e+00 1.0000000e+01 
5.0000000e+00 0.0000000e+00 1.0000000e+01 
5.0000000e+00 3.0000000e+00 1.0000000e+01 
0.0000000e+00 3.0000000e+00 1.0000000e+01 
1.0000000e+00 3.0000000e+00 -5.0000000e+00 
1.0000000e+00 3.0000000e+00 -4.5000000e+00 
1.0000000e+00 3.0000000e+00 -4.0000000e+00 
1.0000000e+00 3.0000000e+00 -3.5000000e+00 
1.0000000e+00 3.0000000e+00 -3.0000000e+00 
1.0000000e+00 3.0000000e+00 -2.5000000e+00 
1.0000000e+00 3.0000000e+00 -2.0000000e+00 
1.0000000e+00 3.0000000e+00 -1.5000000e+00 
1.0000000e+00 3.0000000e+00 -1.0000000e+00 
1.0000000e+00 3.0000000e+00 -5.0000000e-01 
1.0000000e+00 3.0000000e+00 0.0000000e+00 
1.0000000e+00 3.0000000e+00 5.0000000e-01 
1.0000000e+00 3.0000000e+00 1.0000000e+00 
1.0000000e+00 3.0000000e+00 1.5000000e+00 
1.0000000e+00 3.0000000e+00 2.0000000e+00 
1.0000000e+00 3.0000000e+00 2.5000000e+00 
1.0000000e+00 3.0000000e+00 3.0000000e+00 
1.0000000e+00 3.0000000e+00 3.5000000e+00 
1.0000000e+00 3.0000000e+00 4.0000000e+00 
1.0000000e+00 3.0000000e+00 4.5000000e+00 
1.0000000e+00 3.0000000e+00 5.0000000e+00 
1.0000000e+00 3.0000000e+00 5.5000000e+00 
1.0000000e+00 3.0000000e+00 6.0000000e+00 
1.0000000e+00 3.0000000e+00 6.5000000e+00 
1.0000000e+00 3.0000000e+00 7.0000000e+00 
1.0000000e+00 3.0000000e+00 7.5000000e+00 
1.0000000e+00 3.0000000e+00 8.0000000e+00 
1.0000000e+00 3.0000000e+00 8.5000000e+00 
1.0000000e+00 3.0000000e+00 9.0000000e+00 
1.0000000e+00 3.0000000e+00 9.5000000e+00 
1.0000000e+00 3.0000000e+00 1.0000000e+01 
1.0000000e+00 3.0000000e+00 1.0500000e+01 
1.0000000e+00 3.0000000e+00 1.1000000e+01 
1.0000000e+00 3.0000000e+00 1.1500000e+01 
1.0000000e+00 3.0000000e+00 1.2000000e+01 
1.0000000e+00 3.0000000e+00 1.2500000e+01 
1.0000000e+00 3.0000000e+00 1.3000000e+01 
1.0000000e+00 3.0000000e+00 1.3500000e+01 
1.0000000e+00 3.0000000e+00 1.4000000e+01 
1.0000000e+00 3.0000000e+00 1.4500000e+01 
1.0000000e+00 3.0250001e+00 -5.0000000e+00 
1.0000000e+00 3.0250001e+00 -4.5000000e+00 
1.0000000e+00 3.0250001e+00 -4.0000000e+00 
1.0000000e+00 3.0250001e+00 -3.5000000e+00 
1.0000000e+00 3.0250001e+00 -3.0000000e+00 
1.0000000e+00 3.0250001e+00 -2.5000000e+00 
1.0000000e+00 3.0250001e+00 -2.0000000e+00 
1.0000000e+00 3.0250001e+00 -1.5000000e+00 
1.0000000e+00 3.0250001e+00 -1.0000000e+00 
1.0000000e+00 3.0250001e+00 -5.0000000e-01 
1.0000000e+00 3.0250001e+00 0.0000000e+00 
1.0000000e+00 3.0250001e+00 5.0000000e-01 
1.0000000e+00 3.0250001e+00 1.0000000e+00 
1.0000000e+00 3.0250001e+00 1.5000000e+00 
1.0000000e+00 3.0250001e+00 2.0000000e+00 
1.0000000e+00 3.0250001e+00 2.5000000e+00 
1.0000000e+00 3.0250001e+00 3.0000000e+00 
1.0000000e+00 3.0250001e+00 3.5000000e+00 
1.0000000e+00 3.0250001e+00 4.0000000e+00 
1.0000000e+00 3.0250001e+00 4.5000000e+00 
1.0000000e+00 3.0250001e+00 5.0000000e+00 
1.0000000e+00 3.0250001e+00 5.5000000e+00 
1.0000000e+00 3.0250001e+00 6.0000000e+00 
1.0000000e+00 3.0250001e+00 6.5000000e+00 
1.0000000e+00 3.0250001e+00 7.0000000e+00 
1.0000000e+00 3.0250001e+00 7.5000000e+00 
1.0000000e+00 3.0250001e+00 8.0000000e+00 
1.0000000e+00 3.0250001e+00 8.5000000e+00 
1.0000000e+00 3.0250001e+00 9.0000000e+00 
1.0000000e+00 3.0250001e+00 9.5000000e+00 
1.0000000e+00 3.0250001e+00 1.0000000e+01 
1.0000000e+00 3.0250001e+00 1.0500000e+01 
1.0000000e+00 3.0250001e+00 1.1000000e+01 
1.0000000e+00 3.0250001e+00 1.1500000e+01 
1.0000000e+00 3.0250001e+00 1.2000000e+01 
1.0000000e+00 3.0250001e+00 1.2500000e+01 
1.0000000e+00 3.0250001e+00 1.3000000e+01 
1.0000000e+00 3.0250001e+00 1.3500000e+01 
1.0000000e+00 3.0250001e+00 1.4000000e+01 
1.0000000e+00 3.0250001e+00 1.4500000e+01 
1.0000000e+00 -2.0000000e+00 -5.0000000e+00 
1.0000000e+00 -2.0000000e+00 -4.5000000e+00 
1.0000000e+00 -2.0000000e+00 -4.0000000e+00 
1.0000000e+00 -2.0000000e+00 -3.5000000e+00 
1.0000000e+00 -2.0000000e+00 -3.0000000e+00 
1.0000000e+00 -2.0000000e+00 -2.5000000e+00 
1.0000000e+00 -2.0000000e+00 -2.0000000e+00 
1.0000000e+00 -2.0000000e+00 -1.5000000e+00 
1.0000000e+00 -2.0000000e+00 -1.0000000e+00 
1.0000000e+00 -2.0000000e+00 -5.0000000e-01 
1.0000000e+00 -2.0000000e+00 1.0500000e+01 
1.0000000e+00 -2.0000000e+00 1.1000000e+01 
1.0000000e+00 -2.0000000e+00 1.1500000e+01 
1.0000000e+00 -2.0000000e+00 1.2000000e+01 
1.0000000e+00 -2.0000000e+00 1.2500000e+01 
1.0000000e+00 -2.0000000e+00 1.3000000e+01 
1.0000000e+00 -2.0000000e+00 1.3500000e+01 
1.0000000e+00 -2.0000000e+00 1.4000000e+01 
1.0000000e+00 -2.0000000e+00 1.4500000e+01 
1.0000000e+00 0.0000000e+00 0.0000000e+00 
2.0000000e+00 0.0000000e+00 0.0000000e+00 
3.0000000e+00 0.0000000e+00 0.0000000e+00 
4.0000000e+00 0.0000000e+00 0.0000000e+00 
5.0000000e+00 1.0000000e+00 0.0000000e+00 
5.0000000e+00 2.0000000e+00 0.0000000e+00 
0.0000000e+00 2.0000000e+00 0.0000000e+00 
0.0000000e+00 1.0000000e+00 0.0000000e+00 
0.0000000e+00 0.0000000e+00 1.0000000e+00 
0.0000000e+00 0.0000000e+00 2.0000000e+00 
0.0000000e+00 0.0000000e+00 3.0000000e+00 
0.0000000e+00 0.0000000e+00 4.0000000e+00 
0.0000000e+00 0.0000000e+00 5.0000000e+00 
0.0000000e+00 0.0000000e+00 6.0000000e+00 
0.0000000e+00 0.0000000e+00 7.0000000e+00 
0.0000000e+00 0.0000000e+00 8.0000000e+00 
0.0000000e+00 0.0000000e+00 9.0000000e+00 
5.0000000e+00 0.0000000e+00 1.0000000e+00 
5.0000000e+00 0.0000000e+00 2.0000000e+00 
5.0000000e+00 0.0000000e+00 3.0000000e+00 
5.0000000e+00 0.0000000e+00 4.0000000e+00 
5.0000000e+00 0.0000000e+00 5.0000000e+00 
5.0000000e+00 0.0000000e+00 6.0000000e+00 
5.0000000e+00 0.0000000e+00 7.0000000e+00 
5.0000000e+00 0.0000000e+00 8.0000000e+00 
5.0000000e+00 0.0000000e+00 9.0000000e+00 
1.0000000e+00 0.0000000e+00 1.0000000e+01 
2.0000000e+00 0.0000000e+00 1.0000000e+01 
3.0000000e+00 0.0000000e+00 1.0000000e+01 
4.0000000e+00 0.0000000e+00 1.0000000e+01 
5.0000000e+00 3.0000000e+00 1.0000000e+00 
5.0000000e+00 3.0000000e+00 2.0000000e+00 
5.0000000e+00 3.0000000e+00 3.0000000e+00 
5.0000000e+00 3.0000000e+00 4.0000000e+00 
5.0000000e+00 3.0000000e+00 5.0000000e+00 
5.0000000e+00 3.0000000e+00 6.0000000e+00 
5.0000000e+00 3.0000000e+00 7.0000000e+00 
5.0000000e+00 3.0000000e+00 8.0000000e+00 
5.0000000e+00 3.0000000e+00 9.0000000e+00 
5.0000000e+00 1.0000000e+00 1.0000000e+01 
5.0000000e+00 2.0000000e+00 1.0000000e+01 
0.0000000e+00 3.0000000e+00 1.0000000e+00 
0.0000000e+00 3.0000000e+00 2.0000000e+00 
0.0000000e+00 3.0000000e+00 3.0000000e+00 
0.0000000e+00 3.0000000e+00 4.0000000e+00 
0.0000000e+00 3.0000000e+00 5.0000000e+00 
0.0000000e+00 3.0000000e+00 6.0000000e+00 
0.0000000e+00 3.0000000e+00 7.0000000e+00 
0.0000000e+00 3.0000000e+00 8.0000000e+00 
0.0000000e+00 3.0000000e+00 9.0000000e+00 
0.0000000e+00 2.0000000e+00 1.0000000e+01 
0.0000000e+00 1.0000000e+00 1.0000000e+01 
4.0000000e+00 3.0000000e+00 0.0000000e+00 
3.0000000e+00 3.0000000e+00 0.0000000e+00 
2.0000000e+00 3.0000000e+00 0.0000000e+00 
4.0000000e+00 3.0000000e+00 1.0000000e+01 
3.0000000e+00 3.0000000e+00 1.0000000e+01 
2.0000000e+00 3.0000000e+00 1.0000000e+01 
4.0618000e+00 1.5000000e+00 0.0000000e+00 
1.5046000e+00 7.6549745e-01 0.0000000e+00 
2.5000000e+00 2.1339746e+00 0.0000000e+00 
1.5046000e+00 2.2345026e+00 0.0000000e+00 
2.4957771e+00 8.1560516e-01 0.0000000e+00 
3.4707544e+00 2.2336540e+00 0.0000000e+00 
3.4700506e+00 7.5794268e-01 0.0000000e+00 
8.6322361e-01 1.5000000e+00 0.0000000e+00 
2.0000000e+00 1.5000000e+00 0.0000000e+00 
2.9960666e+00 1.4974480e+00 0.0000000e+00 
4.2679491e+00 7.3205084e-01 0.0000000e+00 
4.2679491e+00 2.2679491e+00 0.0000000e+00 
7.2695929e-01 2.2730408e+00 0.0000000e+00 
7.2695929e-01 7.2695929e-01 0.0000000e+00 
4.1822505e+00 0.0000000e+00 2.5515697e+00 
4.2017918e+00 0.0000000e+00 4.4725966e+00 
4.1114569e+00 0.0000000e+00 6.5092020e+00 
8.6602539e-01 0.0000000e+00 3.5000000e+00 
8.4778279e-01 0.0000000e+00 5.4684029e+00 
8.9629614e-01 0.0000000e+00 7.5867257e+00 
2.5566745e+00 0.0000000e+00 8.1853306e-01 
2.4918270e+00 0.0000000e+00 9.1386929e+00 
8.4677207e-01 0.0000000e+00 1.5042374e+00 
4.0943027e+00 0.0000000e+00 8.4081745e+00 
8.6281651e-01 0.0000000e+00 2.5007062e+00 
1.7315160e+00 0.0000000e+00 3.0001178e+00 
1.7319617e+00 0.0000000e+00 4.0000196e+00 
2.5980761e+00 0.0000000e+00 3.5000000e+00 
2.5536871e+00 0.0000000e+00 4.4963923e+00 
2.5928419e+00 0.0000000e+00 2.4239938e+00 
1.5037409e+00 0.0000000e+00 9.1535149e+00 
1.8433737e+00 0.0000000e+00 8.1858873e+00 
3.0000000e+00 0.0000000e+00 8.2679491e+00 
2.5000000e+00 0.0000000e+00 7.4019237e+00 
3.5042722e+00 0.0000000e+00 7.4271150e+00 
3.0310018e+00 0.0000000e+00 6.5282087e+00 
2.0373929e+00 0.0000000e+00 6.5307913e+00 
3.4767809e+00 0.0000000e+00 5.8031492e+00 
2.5452602e+00 0.0000000e+00 5.5720768e+00 
1.6456656e+00 0.0000000e+00 1.9697139e+00 
8.6297011e-01 0.0000000e+00 4.4947371e+00 
1.0111579e+00 0.0000000e+00 6.5282545e+00 
3.4994321e+00 0.0000000e+00 8.4691072e-01 
4.1860156e+00 0.0000000e+00 3.5040276e+00 
1.7320508e+00 0.0000000e+00 5.0000000e+00 
4.0544066e+00 0.0000000e+00 1.5781221e+00 
1.5817389e+00 0.0000000e+00 9.3943578e-01 
8.3166349e-01 0.0000000e+00 8.5090933e+00 
3.4686174e+00 0.0000000e+00 9.1752682e+00 
3.0709300e+00 0.0000000e+00 1.5799091e+00 
3.3927374e+00 0.0000000e+00 3.0399952e+00 
3.3826034e+00 0.0000000e+00 3.9747651e+00 
4.3420062e+00 0.0000000e+00 7.4688983e+00 
3.4023225e+00 0.0000000e+00 4.9314723e+00 
1.6740381e+00 0.0000000e+00 7.3014426e+00 
4.2715640e+00 0.0000000e+00 5.4758859e+00 
1.6225953e+00 0.0000000e+00 5.8104177e+00 
4.2679491e+00 0.0000000e+00 9.2679491e+00 
7.3205084e-01 0.0000000e+00 7.3205084e-01 
4.2679491e+00 0.0000000e+00 7.3205084e-01 
7.3205084e-01 0.0000000e+00 9.2679491e+00 
3.4586334e+00 0.0000000e+00 2.2347178e+00 
2.2895701e+00 0.0000000e+00 1.5463171e+00 
5.0000000e+00 2.2345026e+00 1.5046000e+00 
[...]
POINT_DATA 460
FIELD FieldData 2
DISPLACEMENT 3 460  float
0.0000000e+00 0.0000000e+00 0.0000000e+00 
0.0000000e+00 0.0000000e+00 0.0000000e+00 
0.0000000e+00 -1.8824305e-06 0.0000000e+00 
0.0000000e+00 -4.3362521e-05 0.0000000e+00 
0.0000000e+00 0.0000000e+00 0.0000000e+00 
0.0000000e+00 0.0000000e+00 0.0000000e+00 
0.0000000e+00 -6.6345174e-09 0.0000000e+00 
0.0000000e+00 -1.5260973e-08 0.0000000e+00 
0.0000000e+00 -2.4365198e-05 0.0000000e+00 
0.0000000e+00 -2.9663828e-05 0.0000000e+00 
0.0000000e+00 -5.0938193e-05 0.0000000e+00 
0.0000000e+00 -9.9513461e-05 0.0000000e+00 
0.0000000e+00 -1.8709054e-04 0.0000000e+00 
0.0000000e+00 -3.1719115e-04 0.0000000e+00 
0.0000000e+00 -4.7157050e-04 0.0000000e+00 
0.0000000e+00 -5.9190975e-04 0.0000000e+00 
0.0000000e+00 -5.8538577e-04 0.0000000e+00 
0.0000000e+00 -4.3026375e-04 0.0000000e+00 
0.0000000e+00 -2.3641772e-04 0.0000000e+00 
-5.2201835e-06 -1.0683862e-04 6.0301068e-06 
-4.0089762e-06 -3.4996639e-05 -5.8447672e-06 
-2.4034116e-06 -6.0554803e-06 -6.9457878e-06 
-1.8961839e-06 2.2785769e-06 -4.8933875e-06 
-9.3961296e-07 2.4976675e-06 -3.2418541e-06 
-3.9836661e-07 1.0550831e-06 -1.8229578e-06 
-2.6248986e-07 6.6704366e-08 -9.5378573e-07 
-1.5227492e-07 -3.0977083e-07 -6.7447564e-07 
-1.0447580e-07 -2.9412956e-07 -3.9863224e-07 
-4.7398185e-08 -1.4137193e-07 -2.2610453e-07 
-1.6030320e-08 1.8738433e-09 -1.3300898e-07 
-1.3791978e-08 8.6450001e-08 -6.2698511e-08 
-1.6452218e-09 1.1302311e-07 -1.1738958e-08 
8.0607254e-10 1.0091030e-07 1.6051574e-08 
1.3863257e-09 7.2208472e-08 2.7401690e-08 
1.0478999e-09 4.1101210e-08 2.8329733e-08 
-9.8750785e-10 1.5170091e-08 2.4683677e-08 
-8.8802715e-10 -3.2062804e-09 1.6753329e-08 
-7.2934841e-10 -1.3937195e-08 8.2428491e-09 
0.0000000e+00 -1.8442424e-08 0.0000000e+00 
0.0000000e+00 -1.9590235e-08 0.0000000e+00 
0.0000000e+00 -1.7926915e-08 0.0000000e+00 
0.0000000e+00 -1.4378310e-08 0.0000000e+00 
0.0000000e+00 -9.7779225e-09 0.0000000e+00 
0.0000000e+00 -4.8994755e-09 0.0000000e+00 
0.0000000e+00 -4.0649140e-10 0.0000000e+00 
0.0000000e+00 3.1751572e-09 0.0000000e+00 
0.0000000e+00 5.4700586e-09 0.0000000e+00 
0.0000000e+00 6.2579470e-09 0.0000000e+00 
0.0000000e+00 -2.4193250e-05 0.0000000e+00 
0.0000000e+00 -2.9526838e-05 0.0000000e+00 
0.0000000e+00 -5.0918719e-05 0.0000000e+00 
0.0000000e+00 -9.9719196e-05 0.0000000e+00 
0.0000000e+00 -1.8767467e-04 0.0000000e+00 
0.0000000e+00 -3.1834622e-04 0.0000000e+00 
0.0000000e+00 -4.7338312e-04 0.0000000e+00 
0.0000000e+00 -5.9422391e-04 0.0000000e+00 
0.0000000e+00 -5.8768387e-04 0.0000000e+00 
0.0000000e+00 -4.3195824e-04 0.0000000e+00 
0.0000000e+00 -2.4071909e-04 0.0000000e+00 
0.0000000e+00 -1.0708100e-04 0.0000000e+00 
0.0000000e+00 -3.5207842e-05 0.0000000e+00 
0.0000000e+00 -5.6832328e-06 0.0000000e+00 
0.0000000e+00 2.5082104e-06 0.0000000e+00 
0.0000000e+00 2.6511643e-06 0.0000000e+00 
0.0000000e+00 1.1249285e-06 0.0000000e+00 
0.0000000e+00 7.7404778e-08 0.0000000e+00 
0.0000000e+00 -3.0816494e-07 0.0000000e+00 
0.0000000e+00 -2.9767708e-07 0.0000000e+00 
0.0000000e+00 -1.4485036e-07 0.0000000e+00 
0.0000000e+00 -2.7887581e-11 0.0000000e+00 
0.0000000e+00 8.5505093e-08 0.0000000e+00 
0.0000000e+00 1.1257340e-07 0.0000000e+00 
0.0000000e+00 1.0099851e-07 0.0000000e+00 
0.0000000e+00 7.2323715e-08 0.0000000e+00 
0.0000000e+00 4.1259526e-08 0.0000000e+00 
0.0000000e+00 1.5291995e-08 0.0000000e+00 
0.0000000e+00 -3.0535809e-09 0.0000000e+00 
0.0000000e+00 -1.3778850e-08 0.0000000e+00 
0.0000000e+00 -1.8561897e-08 0.0000000e+00 
0.0000000e+00 -1.9599769e-08 0.0000000e+00 
0.0000000e+00 -1.7938435e-08 0.0000000e+00 
0.0000000e+00 -1.4389708e-08 0.0000000e+00 
0.0000000e+00 -9.7879100e-09 0.0000000e+00 
0.0000000e+00 -4.9074917e-09 0.0000000e+00 
0.0000000e+00 -4.1252518e-10 0.0000000e+00 
0.0000000e+00 3.1707506e-09 0.0000000e+00 
0.0000000e+00 5.4667049e-09 0.0000000e+00 
0.0000000e+00 6.2549570e-09 0.0000000e+00 
0.0000000e+00 0.0000000e+00 0.0000000e+00 
0.0000000e+00 0.0000000e+00 0.0000000e+00 
0.0000000e+00 0.0000000e+00 0.0000000e+00 
0.0000000e+00 0.0000000e+00 0.0000000e+00 
0.0000000e+00 0.0000000e+00 0.0000000e+00 
0.0000000e+00 0.0000000e+00 0.0000000e+00 
0.0000000e+00 0.0000000e+00 0.0000000e+00 
0.0000000e+00 0.0000000e+00 0.0000000e+00 
0.0000000e+00 0.0000000e+00 0.0000000e+00 
0.0000000e+00 0.0000000e+00 0.0000000e+00 
0.0000000e+00 0.0000000e+00 0.0000000e+00 
0.0000000e+00 0.0000000e+00 0.0000000e+00 
0.0000000e+00 0.0000000e+00 0.0000000e+00 
0.0000000e+00 0.0000000e+00 0.0000000e+00 
0.0000000e+00 0.0000000e+00 0.0000000e+00 
0.0000000e+00 0.0000000e+00 0.0000000e+00 
0.0000000e+00 0.0000000e+00 0.0000000e+00 
0.0000000e+00 0.0000000e+00 0.0000000e+00 
0.0000000e+00 0.0000000e+00 0.0000000e+00 
0.0000000e+00 0.0000000e+00 0.0000000e+00 
0.0000000e+00 0.0000000e+00 0.0000000e+00 
0.0000000e+00 0.0000000e+00 0.0000000e+00 
0.0000000e+00 0.0000000e+00 0.0000000e+00 
0.0000000e+00 -9.4623783e-07 0.0000000e+00 
0.0000000e+00 -1.7255833e-06 0.0000000e+00 
0.0000000e+00 -4.0143888e-05 0.0000000e+00 
0.0000000e+00 -1.9535948e-05 0.0000000e+00 
0.0000000e+00 0.0000000e+00 0.0000000e+00 
0.0000000e+00 0.0000000e+00 0.0000000e+00 
0.0000000e+00 0.0000000e+00 0.0000000e+00 
0.0000000e+00 0.0000000e+00 0.0000000e+00 
0.0000000e+00 0.0000000e+00 0.0000000e+00 
0.0000000e+00 0.0000000e+00 0.0000000e+00 
0.0000000e+00 0.0000000e+00 0.0000000e+00 
0.0000000e+00 0.0000000e+00 0.0000000e+00 
0.0000000e+00 0.0000000e+00 0.0000000e+00 
0.0000000e+00 0.0000000e+00 0.0000000e+00 
0.0000000e+00 0.0000000e+00 0.0000000e+00 
0.0000000e+00 0.0000000e+00 0.0000000e+00 
0.0000000e+00 0.0000000e+00 0.0000000e+00 
0.0000000e+00 0.0000000e+00 0.0000000e+00 
0.0000000e+00 0.0000000e+00 0.0000000e+00 
0.0000000e+00 0.0000000e+00 0.0000000e+00 
0.0000000e+00 0.0000000e+00 0.0000000e+00 
0.0000000e+00 0.0000000e+00 0.0000000e+00 
0.0000000e+00 0.0000000e+00 0.0000000e+00 
0.0000000e+00 0.0000000e+00 0.0000000e+00 
0.0000000e+00 0.0000000e+00 0.0000000e+00 
0.0000000e+00 0.0000000e+00 0.0000000e+00 
0.0000000e+00 -1.4122870e-06 0.0000000e+00 
0.0000000e+00 -5.2300874e-07 0.0000000e+00 
0.0000000e+00 -2.3015312e-07 0.0000000e+00 
0.0000000e+00 1.2753001e-07 0.0000000e+00 
0.0000000e+00 1.4161073e-07 0.0000000e+00 
0.0000000e+00 1.0976058e-07 0.0000000e+00 
0.0000000e+00 4.0256779e-08 0.0000000e+00 
0.0000000e+00 4.3302273e-09 0.0000000e+00 
0.0000000e+00 -5.4652713e-09 0.0000000e+00 
0.0000000e+00 -3.3261791e-09 0.0000000e+00 
0.0000000e+00 -5.8225718e-09 0.0000000e+00 
0.0000000e+00 -2.9961098e-05 0.0000000e+00 
0.0000000e+00 -6.4541641e-06 0.0000000e+00 
0.0000000e+00 -1.4011383e-06 0.0000000e+00 
0.0000000e+00 -4.2484339e-07 0.0000000e+00 
0.0000000e+00 -7.7948840e-08 0.0000000e+00 
0.0000000e+00 8.5655117e-08 0.0000000e+00 
0.0000000e+00 8.5129706e-08 0.0000000e+00 
0.0000000e+00 3.2390730e-08 0.0000000e+00 
0.0000000e+00 -3.6593093e-09 0.0000000e+00 
0.0000000e+00 -1.2503826e-08 0.0000000e+00 
0.0000000e+00 -7.0096506e-09 0.0000000e+00 
0.0000000e+00 -3.4138229e-06 0.0000000e+00 
0.0000000e+00 -8.4034946e-06 0.0000000e+00 
0.0000000e+00 -2.0388225e-05 0.0000000e+00 
0.0000000e+00 -6.3963554e-09 0.0000000e+00 
0.0000000e+00 -7.6300317e-09 0.0000000e+00 
0.0000000e+00 -1.1074898e-08 0.0000000e+00 
0.0000000e+00 -2.1851397e-06 0.0000000e+00 
0.0000000e+00 -1.1837219e-05 0.0000000e+00 
0.0000000e+00 -1.4216914e-05 0.0000000e+00 
0.0000000e+00 -4.9064143e-05 0.0000000e+00 
0.0000000e+00 -7.2332791e-06 0.0000000e+00 
0.0000000e+00 -5.6084400e-06 0.0000000e+00 
0.0000000e+00 -1.7708529e-06 0.0000000e+00 
0.0000000e+00 -3.5984220e-05 0.0000000e+00 
0.0000000e+00 -2.0148174e-05 0.0000000e+00 
0.0000000e+00 -7.0051001e-06 0.0000000e+00 
0.0000000e+00 -1.1101650e-06 0.0000000e+00 
0.0000000e+00 -2.6136231e-06 0.0000000e+00 
0.0000000e+00 -7.9081416e-05 0.0000000e+00 
0.0000000e+00 -1.6223459e-05 0.0000000e+00 
0.0000000e+00 0.0000000e+00 0.0000000e+00 
0.0000000e+00 0.0000000e+00 0.0000000e+00 
0.0000000e+00 0.0000000e+00 0.0000000e+00 
0.0000000e+00 0.0000000e+00 0.0000000e+00 
0.0000000e+00 0.0000000e+00 0.0000000e+00 
0.0000000e+00 0.0000000e+00 0.0000000e+00 
0.0000000e+00 0.0000000e+00 0.0000000e+00 
0.0000000e+00 0.0000000e+00 0.0000000e+00 
0.0000000e+00 0.0000000e+00 0.0000000e+00 
0.0000000e+00 0.0000000e+00 0.0000000e+00 
0.0000000e+00 0.0000000e+00 0.0000000e+00 
0.0000000e+00 0.0000000e+00 0.0000000e+00 
0.0000000e+00 0.0000000e+00 0.0000000e+00 
0.0000000e+00 0.0000000e+00 0.0000000e+00 
0.0000000e+00 0.0000000e+00 0.0000000e+00 
0.0000000e+00 0.0000000e+00 0.0000000e+00 
0.0000000e+00 0.0000000e+00 0.0000000e+00 
0.0000000e+00 0.0000000e+00 0.0000000e+00 
0.0000000e+00 0.0000000e+00 0.0000000e+00 
0.0000000e+00 0.0000000e+00 0.0000000e+00 
0.0000000e+00 0.0000000e+00 0.0000000e+00 
0.0000000e+00 0.0000000e+00 0.0000000e+00 
0.0000000e+00 0.0000000e+00 0.0000000e+00 
0.0000000e+00 0.0000000e+00 0.0000000e+00 
0.0000000e+00 0.0000000e+00 0.0000000e+00 
0.0000000e+00 0.0000000e+00 0.0000000e+00 
0.0000000e+00 0.0000000e+00 0.0000000e+00 
0.0000000e+00 0.0000000e+00 0.0000000e+00 
0.0000000e+00 0.0000000e+00 0.0000000e+00 
0.0000000e+00 0.0000000e+00 0.0000000e+00 
0.0000000e+00 0.0000000e+00 0.0000000e+00 
0.0000000e+00 0.0000000e+00 0.0000000e+00 
0.0000000e+00 0.0000000e+00 0.0000000e+00 
0.0000000e+00 0.0000000e+00 0.0000000e+00 
0.0000000e+00 0.0000000e+00 0.0000000e+00 
0.0000000e+00 0.0000000e+00 0.0000000e+00 
0.0000000e+00 0.0000000e+00 0.0000000e+00 
0.0000000e+00 0.0000000e+00 0.0000000e+00 
0.0000000e+00 0.0000000e+00 0.0000000e+00 
0.0000000e+00 0.0000000e+00 0.0000000e+00 
0.0000000e+00 0.0000000e+00 0.0000000e+00 
0.0000000e+00 0.0000000e+00 0.0000000e+00 
0.0000000e+00 0.0000000e+00 0.0000000e+00 
0.0000000e+00 0.0000000e+00 0.0000000e+00 
0.0000000e+00 0.0000000e+00 0.0000000e+00 
0.0000000e+00 0.0000000e+00 0.0000000e+00 
0.0000000e+00 0.0000000e+00 0.0000000e+00 
0.0000000e+00 0.0000000e+00 0.0000000e+00 
0.0000000e+00 0.0000000e+00 0.0000000e+00 
0.0000000e+00 -6.7175523e-07 0.0000000e+00 
0.0000000e+00 -4.2696171e-09 0.0000000e+00 
0.0000000e+00 7.7069480e-08 0.0000000e+00 
0.0000000e+00 1.4080571e-07 0.0000000e+00 
0.0000000e+00 1.5860579e-08 0.0000000e+00 
0.0000000e+00 -2.6108799e-07 0.0000000e+00 
0.0000000e+00 5.2312700e-08 0.0000000e+00 
0.0000000e+00 3.2355228e-08 0.0000000e+00 
0.0000000e+00 -1.5056230e-08 0.0000000e+00 
0.0000000e+00 5.6713258e-08 0.0000000e+00 
0.0000000e+00 -3.3071564e-07 0.0000000e+00 
0.0000000e+00 1.4754001e-07 0.0000000e+00 
0.0000000e+00 6.4393717e-08 0.0000000e+00 
0.0000000e+00 1.0445739e-08 0.0000000e+00 
0.0000000e+00 -5.1604786e-07 0.0000000e+00 
0.0000000e+00 -6.0261474e-10 0.0000000e+00 
0.0000000e+00 -2.5813891e-09 0.0000000e+00 
0.0000000e+00 -9.3834598e-07 0.0000000e+00 
0.0000000e+00 1.2739348e-07 0.0000000e+00 
0.0000000e+00 3.1668325e-08 0.0000000e+00 
0.0000000e+00 -4.8451824e-07 0.0000000e+00 
0.0000000e+00 7.9555718e-08 0.0000000e+00 
0.0000000e+00 8.8437112e-08 0.0000000e+00 
0.0000000e+00 -1.1255472e-07 0.0000000e+00 
0.0000000e+00 3.9967234e-09 0.0000000e+00 
0.0000000e+00 -6.1131988e-09 0.0000000e+00 
0.0000000e+00 -2.3023630e-09 0.0000000e+00 
0.0000000e+00 -1.2546741e-06 0.0000000e+00 
0.0000000e+00 -5.2109283e-07 0.0000000e+00 
0.0000000e+00 -3.7192993e-09 0.0000000e+00 
0.0000000e+00 -1.9689473e-05 0.0000000e+00 
0.0000000e+00 -2.2282491e-06 0.0000000e+00 
0.0000000e+00 -9.0247418e-08 0.0000000e+00 
0.0000000e+00 2.1626230e-08 0.0000000e+00 
0.0000000e+00 -7.7345061e-07 0.0000000e+00 
0.0000000e+00 3.6895845e-08 0.0000000e+00 
0.0000000e+00 5.3853945e-08 0.0000000e+00 
0.0000000e+00 -5.5182346e-07 0.0000000e+00 
0.0000000e+00 -3.3106560e-06 0.0000000e+00 
0.0000000e+00 -2.1301119e-07 0.0000000e+00 
0.0000000e+00 9.0382031e-08 0.0000000e+00 
0.0000000e+00 5.8047313e-08 0.0000000e+00 
0.0000000e+00 1.0022714e-08 0.0000000e+00 
0.0000000e+00 -1.3785446e-05 0.0000000e+00 
0.0000000e+00 -5.5129699e-06 0.0000000e+00 
0.0000000e+00 5.7053429e-09 0.0000000e+00 
0.0000000e+00 -3.2818765e-08 0.0000000e+00 
0.0000000e+00 3.4245822e-08 0.0000000e+00 
0.0000000e+00 -3.9690627e-07 0.0000000e+00 
0.0000000e+00 -1.5463213e-06 0.0000000e+00 
0.0000000e+00 5.7313827e-08 0.0000000e+00 
0.0000000e+00 1.6789443e-08 0.0000000e+00 
0.0000000e+00 2.1609839e-08 0.0000000e+00 
0.0000000e+00 -6.1258570e-06 0.0000000e+00 
0.0000000e+00 -2.2546038e-09 0.0000000e+00 
0.0000000e+00 -3.5256144e-05 0.0000000e+00 
0.0000000e+00 -9.4930165e-06 0.0000000e+00 
0.0000000e+00 -8.9808418e-09 0.0000000e+00 
0.0000000e+00 -5.1177587e-09 0.0000000e+00 
0.0000000e+00 -5.4077636e-09 0.0000000e+00 
0.0000000e+00 -1.1407761e-08 0.0000000e+00 
0.0000000e+00 -1.6085890e-08 0.0000000e+00 
0.0000000e+00 -4.2335242e-09 0.0000000e+00 
0.0000000e+00 -9.6511048e-09 0.0000000e+00 
0.0000000e+00 -4.2015396e-09 0.0000000e+00 
0.0000000e+00 -1.1907470e-08 0.0000000e+00 
0.0000000e+00 -1.0356803e-08 0.0000000e+00 
0.0000000e+00 -8.4804590e-09 0.0000000e+00 
0.0000000e+00 -2.9979761e-09 0.0000000e+00 
0.0000000e+00 -7.6679827e-09 0.0000000e+00 
0.0000000e+00 -1.6503590e-08 0.0000000e+00 
0.0000000e+00 -5.7550729e-09 0.0000000e+00 
-9.9666785e-08 -3.2683722e-08 -3.9068360e-07 
-1.7952301e-08 1.0612870e-07 -5.5948995e-08 
2.7028249e-09 4.6641908e-08 2.9886344e-08 
-9.5355995e-07 -3.2811872e-06 -3.8060882e-06 
-4.7950300e-07 -4.0899597e-08 -1.5557325e-06 
-4.0994550e-08 1.3183035e-07 -5.6318605e-08 
-3.7813524e-07 -4.1095998e-07 -4.8128749e-07 
1.5978058e-10 2.7894341e-08 1.4500077e-08 
-3.1283760e-06 -1.8065321e-05 -7.0599417e-06 
7.0939109e-11 4.9932760e-09 2.1366169e-08 
-2.2715255e-06 -4.0865593e-06 -1.4483218e-06 
2.3497624e-09 -6.6919497e-09 8.3259222e-09 
-4.0720076e-09 8.3769592e-08 1.0870149e-08 
-4.8837236e-09 6.9094320e-08 6.1091781e-09 
3.3640999e-09 2.4883072e-08 1.9767525e-08 
1.2477617e-09 5.7482737e-08 1.8026849e-08 
-1.0240882e-08 9.7878605e-08 -8.3789349e-09 
4.5334447e-09 1.5006421e-08 2.2857241e-08 
-2.4087339e-09 8.8067694e-08 1.2753074e-08 
-2.9163068e-08 1.2655499e-07 -3.4678813e-08 
-8.1589462e-08 1.5504553e-07 -1.1784884e-07 
-6.7113383e-08 1.3501287e-07 -1.2797275e-07 
-1.3141877e-07 1.4869103e-07 -3.0500195e-07 
-1.8111918e-07 1.6978122e-07 -3.4741311e-07 
-2.6600645e-07 -1.0931516e-08 -6.7822640e-07 
-3.1284253e-07 -1.2625979e-07 -5.6312803e-07 
-5.0455645e-07 -4.4724067e-07 -1.2265454e-06 
-6.4697093e-07 -7.5767548e-07 -1.2149723e-06 
-7.6592164e-07 -1.5554987e-06 -1.7423411e-06 
-1.1282582e-06 -1.9363197e-06 -1.6859260e-06 
-2.0878331e-06 -4.3033342e-06 -2.8232050e-06 
-6.5643583e-08 1.3017964e-07 -1.7523450e-07 
-3.7453084e-08 1.2585006e-07 -8.0009187e-08 
-3.1433345e-07 -2.8649148e-07 -9.4284059e-07 
-2.2029313e-07 -2.9397219e-08 -3.6414175e-07 
2.4808313e-09 -7.0954282e-09 1.2102455e-08 
-1.6035123e-07 1.6340916e-08 -4.9949620e-07 
-8.8689873e-08 1.7814136e-07 -1.3880728e-07 
-3.0462143e-06 -1.0923312e-05 -2.7160793e-06 
3.5833423e-09 -1.1141519e-09 1.1052408e-08 
3.7407459e-09 4.4215845e-08 2.9457095e-08 
3.8086769e-09 1.7866236e-08 2.7528218e-08 
-3.7581721e-08 1.0133286e-07 -1.2958994e-07 
-7.4592202e-07 -1.1586810e-06 -5.6530894e-07 
-7.1669103e-07 -4.2508131e-07 -2.5739957e-06 
-6.6006953e-07 -6.0349339e-07 -1.7129354e-06 
-2.7007823e-07 -2.2985996e-07 -9.5600649e-07 
-1.7061105e-07 -1.2798183e-07 -5.6316281e-07 
-4.5420214e-09 1.0738294e-07 -3.7532462e-09 
2.7742215e-09 7.4107028e-08 2.5157869e-08 
-3.1373984e-06 -4.7931608e-05 -2.7534718e-06 
-2.2145309e-06 -9.1549109e-06 -6.1128899e-06 
3.9182427e-10 -1.1096962e-08 1.2197829e-08 
-2.1350190e-06 -4.3325040e-06 -2.3809077e-06 
-8.2847492e-07 -2.6201240e-06 -2.7263111e-06 
2.0131588e-09 2.3175597e-08 2.8090129e-08 
-1.1076968e-08 1.1832842e-07 -1.4572998e-08 
-3.1553204e-06 -1.0288202e-05 -5.7911502e-06 
-6.4799352e-08 2.3076591e-08 -2.5465175e-07 
4.1534260e-09 2.3349402e-09 1.6939032e-08 
1.8249924e-09 -6.7998647e-09 5.3869953e-09 
-8.3223210e-07 -1.9180634e-06 -4.3375508e-07 
-1.9483939e-07 3.7423817e-08 -3.6655203e-07 
-1.9522256e-06 -5.5803821e-06 -4.6456576e-06 
2.0764390e-09 -5.5027932e-10 1.8903130e-08 
-2.2453866e-08 1.3455889e-07 -4.0327457e-08 
-1.1827522e-06 -1.4404828e-06 -1.2025741e-06 
-5.3525474e-07 -4.1553079e-07 -8.2982694e-07 
-3.2931628e-06 -2.2403055e-05 -5.7747184e-06 
-1.1180002e-07 4.5717169e-08 -3.2746067e-07 
1.0391066e-09 -9.7548192e-09 9.9002131e-09 
-2.4880036e-08 -2.7070766e-06 -3.6499932e-06 
-2.3549627e-07 -8.9724535e-06 -5.2865198e-06 
-8.0776921e-08 -1.4376337e-06 -2.3058283e-06 
-9.3740397e-08 -2.6860150e-07 -1.4159102e-06 
-1.6056441e-06 -2.6987684e-05 -4.3441669e-06 
-1.7534904e-07 -3.5580217e-07 -6.7874447e-07 
-3.3618782e-08 -2.5042189e-07 -3.1655333e-07 
-3.2421095e-08 -1.0638794e-07 -1.8083114e-07 
-9.0535925e-09 -2.1616938e-08 -1.0088178e-07 
-1.1460955e-08 6.3451857e-08 -5.6956289e-08 
-5.4714705e-10 9.8587059e-08 -2.9467760e-08 
1.9326616e-09 9.8306387e-08 -3.6795371e-09 
2.7317755e-09 8.1696605e-08 1.1977194e-08 
1.0377647e-09 4.7509968e-08 1.7290317e-08 
-5.4981264e-10 2.5536968e-08 1.8747421e-08 
-1.3195957e-09 3.5667114e-09 1.4644699e-08 
-1.4019931e-09 -1.0565765e-08 8.8344096e-09 
-2.9236826e-06 -5.6762332e-05 -4.0035843e-06 
1.1418546e-06 -4.9855712e-06 3.4825973e-06 
1.4107954e-07 -5.0257904e-07 7.5247863e-07 
2.3892877e-09 7.9479122e-08 8.1748894e-08 
-1.2923916e-09 6.5106811e-08 8.3003071e-09 
-9.8084085e-10 6.4187855e-09 -2.8091693e-09 
5.0157530e-07 -7.2167944e-07 8.0500627e-07 
6.2703684e-08 6.1978341e-08 1.9981563e-07 
-3.6054826e-09 9.3817803e-08 1.1060274e-08 
-3.8625135e-08 -2.0662970e-08 3.5292622e-08 
-1.9807244e-07 -1.1916634e-06 4.7344182e-07 
1.3323451e-06 -2.0600688e-05 6.2837103e-06 
-2.7039595e-09 2.0327516e-08 -4.8717248e-09 
1.1573223e-06 -3.8459193e-06 1.3551388e-06 
1.2122439e-09 1.0603979e-07 1.3155798e-08 
-1.3820906e-09 4.1962753e-08 5.5367608e-09 
-1.0936183e-07 -3.5301218e-07 -1.6553027e-07 
-3.9086018e-08 9.2143239e-08 4.4958526e-08 
2.1203158e-07 -1.3747198e-06 7.1358750e-07 
-1.3214866e-08 5.2867950e-08 -2.8895769e-08 
5.1078811e-08 -5.8115297e-08 2.8693228e-07 
-6.0288194e-08 -4.9292680e-06 1.1242576e-06 
1.6903435e-08 1.1060558e-07 4.1820186e-08 
-1.3034021e-10 1.4698748e-09 2.1918474e-09 
5.5907168e-07 -1.0420778e-06 4.6055345e-07 
-3.2766187e-10 -4.2601398e-09 3.8670497e-10 
2.4532301e-07 -1.1410247e-06 1.4914744e-06 
3.4186204e-08 6.5691211e-08 1.3069447e-07 
9.8012765e-07 -1.9426107e-06 1.6322518e-06 
3.0685902e-07 -4.4962454e-07 7.1549448e-07 
3.5812434e-08 -2.4646246e-07 1.6305009e-07 
-2.1575655e-09 5.1961873e-08 -7.7476020e-10 
-5.7337846e-09 9.6169920e-08 5.9013100e-10 
-1.6927373e-10 8.6916181e-08 9.7507558e-09 
-2.1541878e-08 1.5361708e-07 -2.8258956e-08 
-9.4361896e-10 -2.2830196e-09 -3.2042748e-09 
-1.5440031e-09 3.4591793e-08 5.1470623e-09 
1.6391427e-06 -5.2772225e-06 2.2937231e-06 
9.8571014e-08 -6.9692973e-08 1.2829584e-07 
1.3061260e-06 -8.9389323e-06 3.9324627e-06 
-3.4277960e-09 4.9550856e-08 3.0682273e-08 
-6.4629213e-09 -1.7503713e-07 4.3475922e-07 
7.3648992e-10 -6.9652972e-09 3.6804593e-09 
-2.6213383e-09 2.4169383e-08 -4.6729220e-09 
-1.3543655e-07 -9.8196836e-08 -2.3245212e-07 
1.1558707e-06 -7.4922932e-06 1.9842096e-06 
-3.1427959e-08 1.7567265e-07 -2.4555501e-08 
2.1540751e-07 -2.2367054e-07 2.8740610e-07 
-7.0644746e-10 2.0217316e-08 -2.4374196e-09 
2.1159019e-07 -2.1378908e-06 3.2217147e-07 
8.2882892e-09 -5.2994666e-09 1.4626809e-07 
1.0281615e-07 -6.5444715e-07 6.2928770e-08 
-8.3808710e-10 1.5406451e-08 -4.1352655e-09 
1.4320646e-11 1.0030748e-08 1.0800837e-08 
-5.5198313e-09 1.3314849e-07 -1.3462901e-08 
-3.4851577e-10 6.7101702e-08 3.1275597e-08 
-1.7074024e-10 5.6614251e-08 3.6761378e-08 
-4.4824217e-10 -1.2922777e-09 -2.5159994e-09 
3.5303412e-07 -2.2200538e-06 1.6538404e-07 
-1.2414133e-08 1.6340589e-07 -2.7370287e-08 
6.6560695e-08 1.9958222e-08 1.1651358e-07 
-1.2845502e-08 1.3146258e-07 -4.0320574e-09 
4.0638466e-09 4.9613146e-08 2.0423621e-09 
-1.8554124e-07 -3.4946922e-06 3.4106688e-07 
-1.9373296e-10 2.2467679e-08 1.2567155e-08 