# vtk DataFile Version 4.0
vtk output
ASCII
DATASET UNSTRUCTURED_GRID
POINTS 460 float
0.0000000e+00 0.0000000e+00 0.0000000e+00 
5.0000000e+00 0.0000000e+00 0.0000000e+00 
5.0000000e+00 3.0000000e+00 0.0000000e+00 
0.0000000e+00 3.0000000e+00 0.0000000e+00 
0.0000000e+00 0.0000000e+00 1.0000000e+01 
5.0000000e+00 0.0000000e+00 1.0000000e+01 
5.0000000e+00 3.0000000e+00 1.0000000e+01 
0.0000000e+00 3.0000000e+00 1.0000000e+01 
1.0000000e+00 3.0000000e+00 -5.0000000e+00 
1.0000000e+00 3.0000000e+00 -4.5000000e+00 
1.0000000e+00 3.0000000e+00 -4.0000000e+00 
1.0000000e+00 3.0000000e+00 -3.5000000e+00 
1.0000000e+00 3.0000000e+00 -3.0000000e+00 
1.0000000e+00 3.0000000e+00 -2.5000000e+00 
1.0000000e+00 3.0000000e+00 -2.0000000e+00 
1.0000000e+00 3.0000000e+00 -1.5000000e+00 
1.0000000e+00 3.0000000e+00 -1.0000000e+00 
1.0000000e+00 3.0000000e+00 -5.0000000e-01 
1.0000000e+00 3.0000000e+00 0.0000000e+00 
1.0000000e+00 3.0000000e+00 5.0000000e-01 
1.0000000e+00 3.0000000e+00 1.0000000e+00 
1.0000000e+00 3.0000000e+00 1.5000000e+00 
1.0000000e+00 3.0000000e+00 2.0000000e+00 
1.0000000e+00 3.0000000e+00 2.5000000e+00 
1.0000000e+00 3.0000000e+00 3.0000000e+00 
1.0000000e+00 3.0000000e+00 3.5000000e+00 
1.0000000e+00 3.0000000e+00 4.0000000e+00 
1.0000000e+00 3.0000000e+00 4.5000000e+00 
1.0000000e+00 3.0000000e+00 5.0000000e+00 
1.0000000e+00 3.0000000e+00 5.5000000e+00 
1.0000000e+00 3.0000000e+00 6.0000000e+00 
1.0000000e+00 3.0000000e+00 6.5000000e+00 
1.0000000e+00 3.0000000e+00 7.0000000e+00 
1.0000000e+00 3.0000000e+00 7.5000000e+00 
1.0000000e+00 3.0000000e+00 8.0000000e+00 
1.0000000e+00 3.0000000e+00 8.5000000e+00 
1.0000000e+00 3.0000000e+00 9.0000000e+00 
1.0000000e+00 3.0000000e+00 9.5000000e+00 
1.0000000e+00 3.0000000e+00 1.0000000e+01 
1.0000000e+00 3.0000000e+00 1.0500000e+01 
1.0000000e+00 3.0000000e+00 1.1000000e+01 
1.0000000e+00 3.0000000e+00 1.1500000e+01 
1.0000000e+00 3.0000000e+00 1.2000000e+01 
1.0000000e+00 3.0000000e+00 1.2500000e+01 
1.0000000e+00 3.0000000e+00 1.3000000e+01 
1.0000000e+00 3.0000000e+00 1.3500000e+01 
1.0000000e+00 3.0000000e+00 1.4000000e+01 
1.0000000e+00 3.0000000e+00 1.4500000e+01 
1.0000000e+00 3.0250001e+00 -5.0000000e+00 
1.0000000e+00 3.0250001e+00 -4.5000000e+00 
1.0000000e+00 3.0250001e+00 -4.0000000e+00 
1.0000000e+00 3.0250001e+00 -3.5000000e+00 
1.0000000e+00 3.0250001e+00 -3.0000000e+00 
1.0000000e+00 3.0250001e+00 -2.5000000e+00 
1.0000000e+00 3.0250001e+00 -2.0000000e+00 
1.0000000e+00 3.0250001e+00 -1.5000000e+00 
1.0000000e+00 3.0250001e+00 -1.0000000e+00 
1.0000000e+00 3.0250001e+00 -5.0000000e-01 
1.0000000e+00 3.0250001e+00 0.0000000e+00 
1.0000000e+00 3.0250001e+00 5.0000000e-01 
1.0000000e+00 3.0250001e+00 1.0000000e+00 
1.0000000e+00 3.0250001e+00 1.5000000e+00 
1.0000000e+00 3.0250001e+00 2.0000000e+00 
1.0000000e+00 3.0250001e+00 2.5000000e+00 
1.0000000e+00 3.0250001e+00 3.0000000e+00 
1.0000000e+00 3.0250001e+00 3.5000000e+00 
1.0000000e+00 3.0250001e+00 4.0000000e+00 
1.0000000e+00 3.0250001e+00 4.5000000e+00 
1.0000000e+00 3.0250001e+00 5.0000000e+00 
1.0000000e+00 3.0250001e+00 5.5000000e+00 
1.0000000e+00 3.0250001e+00 6.0000000e+00 
1.0000000e+00 3.0250001e+00 6.5000000e+00 
1.0000000e+00 3.0250001e+00 7.0000000e+00 
1.0000000e+00 3.0250001e+00 7.5000000e+00 
1.0000000e+00 3.0250001e+00 8.0000000e+00 
1.0000000e+00 3.0250001e+00 8.5000000e+00 
1.0000000e+00 3.0250001e+00 9.0000000e+00 
1.0000000e+00 3.0250001e+00 9.5000000e+00 
1.0000000e+00 3.0250001e+00 1.0000000e+01 
1.0000000e+00 3.0250001e+00 1.0500000e+01 
1.0000000e+00 3.0250001e+00 1.1000000e+01 
1.0000000e+00 3.0250001e+00 1.1500000e+01 
1.0000000e+00 3.0250001e+00 1.2000000e+01 
1.0000000e+00 3.0250001e+00 1.2500000e+01 
1.0000000e+00 3.0250001e+00 1.3000000e+01 
1.0000000e+00 3.0250001e+00 1.3500000e+01 
1.0000000e+00 3.0250001e+00 1.4000000e+01 
1.0000000e+00 3.0250001e+00 1.4500000e+01 
1.0000000e+00 -2.0000000e+00 -5.0000000e+00 
1.0000000e+00 -2.0000000e+00 -4.5000000e+00 
1.0000000e+00 -2.0000000e+00 -4.0000000e+00 
1.0000000e+00 -2.0000000e+00 -3.5000000e+00 
1.0000000e+00 -2.0000000e+00 -3.0000000e+00 
1.0000000e+00 -2.0000000e+00 -2.5000000e+00 
1.0000000e+00 -2.0000000e+00 -2.0000000e+00 
1.0000000e+00 -2.0000000e+00 -1.5000000e+00 
1.0000000e+00 -2.0000000e+00 -1.0000000e+00 
1.0000000e+00 -2.0000000e+00 -5.0000000e-01 
1.0000000e+00 -2.0000000e+00 1.0500000e+01 
1.0000000e+00 -2.0000000e+00 1.1000000e+01 
1.0000000e+00 -2.0000000e+00 1.1500000e+01 
1.0000000e+00 -2.0000000e+00 1.2000000e+01 
1.0000000e+00 -2.0000000e+00 1.2500000e+01 
1.0000000e+00 -2.0000000e+00 1.3000000e+01 
1.0000000e+00 -2.0000000e+00 1.3500000e+01 
1.0000000e+00 -2.0000000e+00 1.4000000e+01 
1.0000000e+00 -2.0000000e+00 1.4500000e+01 
1.0000000e+00 0.0000000e+00 0.0000000e+00 
2.0000000e+00 0.0000000e+00 0.0000000e+00 
3.0000000e+00 0.0000000e+00 0.0000000e+00 
4.0000000e+00 0.0000000e+00 0.0000000e+00 
5.0000000e+00 1.0000000e+00 0.0000000e+00 
5.0000000e+00 2.0000000e+00 0.0000000e+00 
0.0000000e+00 2.0000000e+00 0.0000000e+00 
0.0000000e+00 1.0000000e+00 0.0000000e+00 
0.0000000e+00 0.0000000e+00 1.0000000e+00 
0.0000000e+00 0.0000000e+00 2.0000000e+00 
0.0000000e+00 0.0000000e+00 3.0000000e+00 
0.0000000e+00 0.0000000e+00 4.0000000e+00 
0.0000000e+00 0.0000000e+00 5.0000000e+00 
0.0000000e+00 0.0000000e+00 6.0000000e+00 
0.0000000e+00 0.0000000e+00 7.0000000e+00 
0.0000000e+00 0.0000000e+00 8.0000000e+00 
0.0000000e+00 0.0000000e+00 9.0000000e+00 
5.0000000e+00 0.0000000e+00 1.0000000e+00 
5.0000000e+00 0.0000000e+00 2.0000000e+00 
5.0000000e+00 0.0000000e+00 3.0000000e+00 
5.0000000e+00 0.0000000e+00 4.0000000e+00 
5.0000000e+00 0.0000000e+00 5.0000000e+00 
5.0000000e+00 0.0000000e+00 6.0000000e+00 
5.0000000e+00 0.0000000e+00 7.0000000e+00 
5.0000000e+00 0.0000000e+00 8.0000000e+00 
5.0000000e+00 0.0000000e+00 9.0000000e+00 
1.0000000e+00 0.0000000e+00 1.0000000e+01 
2.0000000e+00 0.0000000e+00 1.0000000e+01 
3.0000000e+00 0.0000000e+00 1.0000000e+01 
4.0000000e+00 0.0000000e+00 1.0000000e+01 
5.0000000e+00 3.0000000e+00 1.0000000e+00 
5.0000000e+00 3.0000000e+00 2.0000000e+00 
5.0000000e+00 3.0000000e+00 3.0000000e+00 
5.0000000e+00 3.0000000e+00 4.0000000e+00 
5.0000000e+00 3.0000000e+00 5.0000000e+00 
5.0000000e+00 3.0000000e+00 6.0000000e+00 
5.0000000e+00 3.0000000e+00 7.0000000e+00 
5.0000000e+00 3.0000000e+00 8.0000000e+00 
5.0000000e+00 3.0000000e+00 9.0000000e+00 
5.0000000e+00 1.0000000e+00 1.0000000e+01 
5.0000000e+00 2.0000000e+00 1.0000000e+01 
0.0000000e+00 3.0000000e+00 1.0000000e+00 
0.0000000e+00 3.0000000e+00 2.0000000e+00 
0.0000000e+00 3.0000000e+00 3.0000000e+00 
0.0000000e+00 3.0000000e+00 4.0000000e+00 
0.0000000e+00 3.0000000e+00 5.0000000e+00 
0.0000000e+00 3.0000000e+00 6.0000000e+00 
0.0000000e+00 3.0000000e+00 7.0000000e+00 
0.0000000e+00 3.0000000e+00 8.0000000e+00 
0.0000000e+00 3.0000000e+00 9.0000000e+00 
0.0000000e+00 2.0000000e+00 1.0000000e+01 
0.0000000e+00 1.0000000e+00 1.0000000e+01 
4.0000000e+00 3.0000000e+00 0.0000000e+00 
3.0000000e+00 3.0000000e+00 0.0000000e+00 
2.0000000e+00 3.0000000e+00 0.0000000e+00 
4.0000000e+00 3.0000000e+00 1.0000000e+01 
3.0000000e+00 3.0000000e+00 1.0000000e+01 
2.0000000e+00 3.0000000e+00 1.0000000e+01 
4.0618000e+00 1.5000000e+00 0.0000000e+00 
1.5046000e+00 7.6549745e-01 0.0000000e+00 
2.5000000e+00 2.1339746e+00 0.0000000e+00 
1.5046000e+00 2.2345026e+00 0.0000000e+00 
2.4957771e+00 8.1560516e-01 0.0000000e+00 
3.4707544e+00 2.2336540e+00 0.0000000e+00 
3.4700506e+00 7.5794268e-01 0.0000000e+00 
8.6322361e-01 1.5000000e+00 0.0000000e+00 
2.0000000e+00 1.5000000e+00 0.0000000e+00 
2.9960666e+00 1.4974480e+00 0.0000000e+00 
4.2679491e+00 7.3205084e-01 0.0000000e+00 
4.2679491e+00 2.2679491e+00 0.0000000e+00 
7.2695929e-01 2.2730408e+00 0.0000000e+00 
7.2695929e-01 7.2695929e-01 0.0000000e+00 
4.1822505e+00 0.0000000e+00 2.5515697e+00 
4.2017918e+00 0.0000000e+00 4.4725966e+00 
4.1114569e+00 0.0000000e+00 6.5092020e+00 
8.6602539e-01 0.0000000e+00 3.5000000e+00 
8.4778279e-01 0.0000000e+00 5.4684029e+00 
8.9629614e-01 0.0000000e+00 7.5867257e+00 
2.5566745e+00 0.0000000e+00 8.1853306e-01 
2.4918270e+00 0.0000000e+00 9.1386929e+00 
8.4677207e-01 0.0000000e+00 1.5042374e+00 
4.0943027e+00 0.0000000e+00 8.4081745e+00 
8.6281651e-01 0.0000000e+00 2.5007062e+00 
1.7315160e+00 0.0000000e+00 3.0001178e+00 
1.7319617e+00 0.0000000e+00 4.0000196e+00 
2.5980761e+00 0.0000000e+00 3.5000000e+00 
2.5536871e+00 0.0000000e+00 4.4963923e+00 
2.5928419e+00 0.0000000e+00 2.4239938e+00 
1.5037409e+00 0.0000000e+00 9.1535149e+00 
1.8433737e+00 0.0000000e+00 8.1858873e+00 
3.0000000e+00 0.0000000e+00 8.2679491e+00 
2.5000000e+00 0.0000000e+00 7.4019237e+00 
3.5042722e+00 0.0000000e+00 7.4271150e+00 
3.0310018e+00 0.0000000e+00 6.5282087e+00 
2.0373929e+00 0.0000000e+00 6.5307913e+00 
3.4767809e+00 0.0000000e+00 5.8031492e+00 
2.5452602e+00 0.0000000e+00 5.5720768e+00 
1.6456656e+00 0.0000000e+00 1.9697139e+00 
8.6297011e-01 0.0000000e+00 4.4947371e+00 
1.0111579e+00 0.0000000e+00 6.5282545e+00 
3.4994321e+00 0.0000000e+00 8.4691072e-01 
4.1860156e+00 0.0000000e+00 3.5040276e+00 
1.7320508e+00 0.0000000e+00 5.0000000e+00 
4.0544066e+00 0.0000000e+00 1.5781221e+00 
1.5817389e+00 0.0000000e+00 9.3943578e-01 
8.3166349e-01 0.0000000e+00 8.5090933e+00 
3.4686174e+00 0.0000000e+00 9.1752682e+00 
3.0709300e+00 0.0000000e+00 1.5799091e+00 
3.3927374e+00 0.0000000e+00 3.0399952e+00 
3.3826034e+00 0.0000000e+00 3.9747651e+00 
4.3420062e+00 0.0000000e+00 7.4688983e+00 
3.4023225e+00 0.0000000e+00 4.9314723e+00 
1.6740381e+00 0.0000000e+00 7.3014426e+00 
4.2715640e+00 0.0000000e+00 5.4758859e+00 
1.6225953e+00 0.0000000e+00 5.8104177e+00 
4.2679491e+00 0.0000000e+00 9.2679491e+00 
7.3205084e-01 0.0000000e+00 7.3205084e-01 
4.2679491e+00 0.0000000e+00 7.3205084e-01 
7.3205084e-01 0.0000000e+00 9.2679491e+00 
3.4586334e+00 0.0000000e+00 2.2347178e+00 
2.2895701e+00 0.0000000e+00 1.5463171e+00 
5.0000000e+00 2.2345026e+00 1.5046000e+00 
[...]
POINT_DATA 460
FIELD FieldData 2
DISPLACEMENT 3 460  float
0.0000000e+00 0.0000000e+00 0.0000000e+00 
0.0000000e+00 0.0000000e+00 0.0000000e+00 
0.0000000e+00 -1.0494745e-09 0.0000000e+00 
0.0000000e+00 -8.5693319e-10 0.0000000e+00 
0.0000000e+00 0.0000000e+00 0.0000000e+00 
0.0000000e+00 0.0000000e+00 0.0000000e+00 
0.0000000e+00 2.5448114e-07 0.0000000e+00 
0.0000000e+00 6.3114858e-06 0.0000000e+00 
0.0000000e+00 -4.1030260e-10 0.0000000e+00 
0.0000000e+00 -3.9515594e-10 0.0000000e+00 
0.0000000e+00 -3.5135117e-10 0.0000000e+00 
0.0000000e+00 -2.9246192e-10 0.0000000e+00 
0.0000000e+00 -2.3072230e-10 0.0000000e+00 
0.0000000e+00 -1.7509796e-10 0.0000000e+00 
0.0000000e+00 -1.4043668e-10 0.0000000e+00 
0.0000000e+00 -1.5024691e-10 0.0000000e+00 
0.0000000e+00 -2.3102915e-10 0.0000000e+00 
0.0000000e+00 -4.0134757e-10 0.0000000e+00 
0.0000000e+00 -6.6006850e-10 0.0000000e+00 
7.4114617e-11 -9.7328989e-10 9.1119452e-11 
1.4724540e-10 -1.4257290e-09 1.9054888e-10 
1.7512515e-10 -2.1093571e-09 1.1791149e-10 
2.9840247e-10 -3.1546081e-09 -1.3423700e-10 
5.1169857e-10 -4.4970476e-09 -1.0875436e-09 
7.0416473e-10 -5.7672773e-09 -2.7434655e-09 
9.2272295e-10 -6.0371450e-09 -6.0128174e-09 
2.8667260e-09 -3.7179666e-09 -1.3983274e-08 
5.0872759e-09 3.1642995e-09 -2.4169292e-08 
1.2532655e-08 1.5107794e-08 -5.0543900e-08 
2.3406626e-08 2.9552666e-08 -8.2811958e-08 
3.0054160e-08 4.0893763e-08 -1.3180620e-07 
7.4666254e-08 5.1131593e-08 -2.2671917e-07 
1.2151276e-07 9.8260152e-08 -3.3281657e-07 
1.9145969e-07 3.2707214e-07 -5.1441600e-07 
2.4106959e-07 1.0869322e-06 -7.1644678e-07 
3.4536245e-07 3.0668923e-06 -1.6163552e-06 
6.3151333e-07 7.2023417e-06 -1.3642783e-06 
4.4810292e-07 1.4499426e-05 3.2697230e-07 
0.0000000e+00 2.4164256e-05 0.0000000e+00 
0.0000000e+00 3.1201056e-05 0.0000000e+00 
0.0000000e+00 2.1175203e-05 0.0000000e+00 
0.0000000e+00 -2.3678202e-05 0.0000000e+00 
0.0000000e+00 -1.2213938e-04 0.0000000e+00 
0.0000000e+00 -2.8690763e-04 0.0000000e+00 
0.0000000e+00 -5.1119138e-04 0.0000000e+00 
0.0000000e+00 -7.4796565e-04 0.0000000e+00 
0.0000000e+00 -8.9233526e-04 0.0000000e+00 
0.0000000e+00 -9.1706659e-04 0.0000000e+00 
0.0000000e+00 -2.9244226e-10 0.0000000e+00 
0.0000000e+00 -3.0992808e-10 0.0000000e+00 
0.0000000e+00 -3.3861916e-10 0.0000000e+00 
0.0000000e+00 -3.0979161e-10 0.0000000e+00 
0.0000000e+00 -2.3735056e-10 0.0000000e+00 
0.0000000e+00 -1.7158748e-10 0.0000000e+00 
0.0000000e+00 -1.3781730e-10 0.0000000e+00 
0.0000000e+00 -1.5075080e-10 0.0000000e+00 
0.0000000e+00 -2.3246960e-10 0.0000000e+00 
0.0000000e+00 -4.0299217e-10 0.0000000e+00 
0.0000000e+00 -6.5658606e-10 0.0000000e+00 
0.0000000e+00 -9.7295261e-10 0.0000000e+00 
0.0000000e+00 -1.4235604e-09 0.0000000e+00 
0.0000000e+00 -2.1151465e-09 0.0000000e+00 
0.0000000e+00 -3.1634195e-09 0.0000000e+00 
0.0000000e+00 -4.5148782e-09 0.0000000e+00 
0.0000000e+00 -5.7913101e-09 0.0000000e+00 
0.0000000e+00 -6.0559793e-09 0.0000000e+00 
0.0000000e+00 -3.6727681e-09 0.0000000e+00 
0.0000000e+00 3.2806979e-09 0.0000000e+00 
0.0000000e+00 1.5281548e-08 0.0000000e+00 
0.0000000e+00 2.9494915e-08 0.0000000e+00 
0.0000000e+00 4.0114120e-08 0.0000000e+00 
0.0000000e+00 4.8189463e-08 0.0000000e+00 
0.0000000e+00 9.1888630e-08 0.0000000e+00 
0.0000000e+00 3.1510709e-07 0.0000000e+00 
0.0000000e+00 1.0751573e-06 0.0000000e+00 
0.0000000e+00 3.0539818e-06 0.0000000e+00 
0.0000000e+00 7.2415023e-06 0.0000000e+00 
0.0000000e+00 1.4623081e-05 0.0000000e+00 
0.0000000e+00 2.4511412e-05 0.0000000e+00 
0.0000000e+00 3.1324533e-05 0.0000000e+00 
0.0000000e+00 2.1257149e-05 0.0000000e+00 
0.0000000e+00 -2.3777313e-05 0.0000000e+00 
0.0000000e+00 -1.2263375e-04 0.0000000e+00 
0.0000000e+00 -2.8806087e-04 0.0000000e+00 
0.0000000e+00 -5.1323854e-04 0.0000000e+00 
0.0000000e+00 -7.5095106e-04 0.0000000e+00 
0.0000000e+00 -8.9589437e-04 0.0000000e+00 
0.0000000e+00 -9.2072954e-04 0.0000000e+00 
0.0000000e+00 0.0000000e+00 0.0000000e+00 
0.0000000e+00 0.0000000e+00 0.0000000e+00 
0.0000000e+00 0.0000000e+00 0.0000000e+00 
0.0000000e+00 0.0000000e+00 0.0000000e+00 
0.0000000e+00 0.0000000e+00 0.0000000e+00 
0.0000000e+00 0.0000000e+00 0.0000000e+00 
0.0000000e+00 0.0000000e+00 0.0000000e+00 
0.0000000e+00 0.0000000e+00 0.0000000e+00 
0.0000000e+00 0.0000000e+00 0.0000000e+00 
0.0000000e+00 0.0000000e+00 0.0000000e+00 
0.0000000e+00 0.0000000e+00 0.0000000e+00 
0.0000000e+00 0.0000000e+00 0.0000000e+00 
0.0000000e+00 0.0000000e+00 0.0000000e+00 
0.0000000e+00 0.0000000e+00 0.0000000e+00 
0.0000000e+00 0.0000000e+00 0.0000000e+00 
0.0000000e+00 0.0000000e+00 0.0000000e+00 
0.0000000e+00 0.0000000e+00 0.0000000e+00 
0.0000000e+00 0.0000000e+00 0.0000000e+00 
0.0000000e+00 0.0000000e+00 0.0000000e+00 
0.0000000e+00 0.0000000e+00 0.0000000e+00 
0.0000000e+00 0.0000000e+00 0.0000000e+00 
0.0000000e+00 0.0000000e+00 0.0000000e+00 
0.0000000e+00 0.0000000e+00 0.0000000e+00 
0.0000000e+00 -5.4977828e-10 0.0000000e+00 
0.0000000e+00 -9.4226515e-10 0.0000000e+00 
0.0000000e+00 -7.5636253e-10 0.0000000e+00 
0.0000000e+00 -4.3828349e-10 0.0000000e+00 
0.0000000e+00 0.0000000e+00 0.0000000e+00 
0.0000000e+00 0.0000000e+00 0.0000000e+00 
0.0000000e+00 0.0000000e+00 0.0000000e+00 
0.0000000e+00 0.0000000e+00 0.0000000e+00 
0.0000000e+00 0.0000000e+00 0.0000000e+00 
0.0000000e+00 0.0000000e+00 0.0000000e+00 
0.0000000e+00 0.0000000e+00 0.0000000e+00 
0.0000000e+00 0.0000000e+00 0.0000000e+00 
0.0000000e+00 0.0000000e+00 0.0000000e+00 
0.0000000e+00 0.0000000e+00 0.0000000e+00 
0.0000000e+00 0.0000000e+00 0.0000000e+00 
0.0000000e+00 0.0000000e+00 0.0000000e+00 
0.0000000e+00 0.0000000e+00 0.0000000e+00 
0.0000000e+00 0.0000000e+00 0.0000000e+00 
0.0000000e+00 0.0000000e+00 0.0000000e+00 
0.0000000e+00 0.0000000e+00 0.0000000e+00 
0.0000000e+00 0.0000000e+00 0.0000000e+00 
0.0000000e+00 0.0000000e+00 0.0000000e+00 
0.0000000e+00 0.0000000e+00 0.0000000e+00 
0.0000000e+00 0.0000000e+00 0.0000000e+00 
0.0000000e+00 0.0000000e+00 0.0000000e+00 
0.0000000e+00 0.0000000e+00 0.0000000e+00 
0.0000000e+00 -1.5256091e-09 0.0000000e+00 
0.0000000e+00 -3.3282122e-09 0.0000000e+00 
0.0000000e+00 -6.0994894e-09 0.0000000e+00 
0.0000000e+00 -1.1658916e-08 0.0000000e+00 
0.0000000e+00 -1.2822730e-08 0.0000000e+00 
0.0000000e+00 -1.2241959e-08 0.0000000e+00 
0.0000000e+00 4.1910027e-08 0.0000000e+00 
0.0000000e+00 8.9599688e-08 0.0000000e+00 
0.0000000e+00 2.2985162e-07 0.0000000e+00 
0.0000000e+00 1.4281343e-07 0.0000000e+00 
0.0000000e+00 2.2737089e-07 0.0000000e+00 
0.0000000e+00 -1.2023789e-09 0.0000000e+00 
0.0000000e+00 -2.3746802e-09 0.0000000e+00 
0.0000000e+00 -3.6266847e-09 0.0000000e+00 
0.0000000e+00 2.6698890e-10 0.0000000e+00 
0.0000000e+00 2.3684262e-08 0.0000000e+00 
0.0000000e+00 1.0445329e-07 0.0000000e+00 
0.0000000e+00 4.2511894e-07 0.0000000e+00 
0.0000000e+00 1.5829248e-06 0.0000000e+00 
0.0000000e+00 4.7703979e-06 0.0000000e+00 
0.0000000e+00 5.5352666e-06 0.0000000e+00 
0.0000000e+00 2.7590620e-06 0.0000000e+00 
0.0000000e+00 -1.0285879e-09 0.0000000e+00 
0.0000000e+00 -1.0562163e-09 0.0000000e+00 
0.0000000e+00 -1.0173736e-09 0.0000000e+00 
0.0000000e+00 4.5125577e-07 0.0000000e+00 
0.0000000e+00 1.2273609e-06 0.0000000e+00 
0.0000000e+00 3.2453377e-06 0.0000000e+00 
0.0000000e+00 -6.8190509e-10 0.0000000e+00 
0.0000000e+00 -3.7640446e-10 0.0000000e+00 
0.0000000e+00 -8.6211260e-10 0.0000000e+00 
0.0000000e+00 -7.6540024e-10 0.0000000e+00 
0.0000000e+00 -4.3158227e-10 0.0000000e+00 
0.0000000e+00 -8.6639540e-10 0.0000000e+00 
0.0000000e+00 -4.7410614e-10 0.0000000e+00 
0.0000000e+00 -6.1660799e-10 0.0000000e+00 
0.0000000e+00 -7.0889533e-10 0.0000000e+00 
0.0000000e+00 -7.0763684e-10 0.0000000e+00 
0.0000000e+00 -3.1103362e-10 0.0000000e+00 
0.0000000e+00 -9.0389851e-10 0.0000000e+00 
0.0000000e+00 -7.4624129e-10 0.0000000e+00 
0.0000000e+00 -2.9861164e-10 0.0000000e+00 
0.0000000e+00 0.0000000e+00 0.0000000e+00 
0.0000000e+00 0.0000000e+00 0.0000000e+00 
0.0000000e+00 0.0000000e+00 0.0000000e+00 
0.0000000e+00 0.0000000e+00 0.0000000e+00 
0.0000000e+00 0.0000000e+00 0.0000000e+00 
0.0000000e+00 0.0000000e+00 0.0000000e+00 
0.0000000e+00 0.0000000e+00 0.0000000e+00 
0.0000000e+00 0.0000000e+00 0.0000000e+00 
0.0000000e+00 0.0000000e+00 0.0000000e+00 
0.0000000e+00 0.0000000e+00 0.0000000e+00 
0.0000000e+00 0.0000000e+00 0.0000000e+00 
0.0000000e+00 0.0000000e+00 0.0000000e+00 
0.0000000e+00 0.0000000e+00 0.0000000e+00 
0.0000000e+00 0.0000000e+00 0.0000000e+00 
0.0000000e+00 0.0000000e+00 0.0000000e+00 
0.0000000e+00 0.0000000e+00 0.0000000e+00 
0.0000000e+00 0.0000000e+00 0.0000000e+00 
0.0000000e+00 0.0000000e+00 0.0000000e+00 
0.0000000e+00 0.0000000e+00 0.0000000e+00 
0.0000000e+00 0.0000000e+00 0.0000000e+00 
0.0000000e+00 0.0000000e+00 0.0000000e+00 
0.0000000e+00 0.0000000e+00 0.0000000e+00 
0.0000000e+00 0.0000000e+00 0.0000000e+00 
0.0000000e+00 0.0000000e+00 0.0000000e+00 
0.0000000e+00 0.0000000e+00 0.0000000e+00 
0.0000000e+00 0.0000000e+00 0.0000000e+00 
0.0000000e+00 0.0000000e+00 0.0000000e+00 
0.0000000e+00 0.0000000e+00 0.0000000e+00 
0.0000000e+00 0.0000000e+00 0.0000000e+00 
0.0000000e+00 0.0000000e+00 0.0000000e+00 
0.0000000e+00 0.0000000e+00 0.0000000e+00 
0.0000000e+00 0.0000000e+00 0.0000000e+00 
0.0000000e+00 0.0000000e+00 0.0000000e+00 
0.0000000e+00 0.0000000e+00 0.0000000e+00 
0.0000000e+00 0.0000000e+00 0.0000000e+00 
0.0000000e+00 0.0000000e+00 0.0000000e+00 
0.0000000e+00 0.0000000e+00 0.0000000e+00 
0.0000000e+00 0.0000000e+00 0.0000000e+00 
0.0000000e+00 0.0000000e+00 0.0000000e+00 
0.0000000e+00 0.0000000e+00 0.0000000e+00 
0.0000000e+00 0.0000000e+00 0.0000000e+00 
0.0000000e+00 0.0000000e+00 0.0000000e+00 
0.0000000e+00 0.0000000e+00 0.0000000e+00 
0.0000000e+00 0.0000000e+00 0.0000000e+00 
0.0000000e+00 0.0000000e+00 0.0000000e+00 
0.0000000e+00 0.0000000e+00 0.0000000e+00 
0.0000000e+00 0.0000000e+00 0.0000000e+00 
0.0000000e+00 0.0000000e+00 0.0000000e+00 
0.0000000e+00 0.0000000e+00 0.0000000e+00 
0.0000000e+00 -2.1171229e-09 0.0000000e+00 
0.0000000e+00 1.4698129e-07 0.0000000e+00 
0.0000000e+00 -7.9698683e-09 0.0000000e+00 
0.0000000e+00 -1.4523746e-08 0.0000000e+00 
0.0000000e+00 5.2923447e-08 0.0000000e+00 
0.0000000e+00 -1.8755120e-09 0.0000000e+00 
0.0000000e+00 -3.8181418e-09 0.0000000e+00 
0.0000000e+00 5.6673284e-09 0.0000000e+00 
0.0000000e+00 -3.5711842e-09 0.0000000e+00 
0.0000000e+00 -5.7258442e-09 0.0000000e+00 
0.0000000e+00 -4.0260399e-09 0.0000000e+00 
0.0000000e+00 -1.2795776e-08 0.0000000e+00 
0.0000000e+00 -1.1478044e-08 0.0000000e+00 
0.0000000e+00 3.4154027e-08 0.0000000e+00 
0.0000000e+00 -9.0802565e-10 0.0000000e+00 
0.0000000e+00 7.0579055e-08 0.0000000e+00 
0.0000000e+00 9.7285543e-08 0.0000000e+00 
0.0000000e+00 -1.0677057e-09 0.0000000e+00 
0.0000000e+00 -9.6513393e-09 0.0000000e+00 
0.0000000e+00 8.6053484e-09 0.0000000e+00 
0.0000000e+00 -2.1685040e-09 0.0000000e+00 
0.0000000e+00 -1.1233356e-08 0.0000000e+00 
0.0000000e+00 -7.9101250e-09 0.0000000e+00 
0.0000000e+00 -4.5183626e-09 0.0000000e+00 
0.0000000e+00 5.6359490e-08 0.0000000e+00 
0.0000000e+00 1.8588788e-07 0.0000000e+00 
0.0000000e+00 7.6837409e-08 0.0000000e+00 
0.0000000e+00 -1.2505823e-09 0.0000000e+00 
0.0000000e+00 -5.1500521e-10 0.0000000e+00 
0.0000000e+00 2.9174134e-06 0.0000000e+00 
0.0000000e+00 -8.2897356e-10 0.0000000e+00 
0.0000000e+00 -1.1811199e-09 0.0000000e+00 
0.0000000e+00 4.3183430e-09 0.0000000e+00 
0.0000000e+00 4.4911312e-07 0.0000000e+00 
0.0000000e+00 -2.6519664e-09 0.0000000e+00 
0.0000000e+00 5.2816226e-08 0.0000000e+00 
0.0000000e+00 8.9316529e-07 0.0000000e+00 
0.0000000e+00 -7.4673967e-10 0.0000000e+00 
0.0000000e+00 -2.6728282e-09 0.0000000e+00 
0.0000000e+00 6.8043433e-09 0.0000000e+00 
0.0000000e+00 2.2212825e-07 0.0000000e+00 
0.0000000e+00 1.2026908e-07 0.0000000e+00 
0.0000000e+00 2.7391343e-06 0.0000000e+00 
0.0000000e+00 -1.5278027e-09 0.0000000e+00 
0.0000000e+00 -7.0905232e-10 0.0000000e+00 
0.0000000e+00 9.0452937e-07 0.0000000e+00 
0.0000000e+00 1.6639788e-08 0.0000000e+00 
0.0000000e+00 1.2655536e-07 0.0000000e+00 
0.0000000e+00 2.3538682e-09 0.0000000e+00 
0.0000000e+00 -1.9776711e-09 0.0000000e+00 
0.0000000e+00 3.8520844e-07 0.0000000e+00 
0.0000000e+00 2.3784965e-08 0.0000000e+00 
0.0000000e+00 1.2632158e-06 0.0000000e+00 
0.0000000e+00 -1.5884161e-09 0.0000000e+00 
0.0000000e+00 1.3955309e-06 0.0000000e+00 
0.0000000e+00 -9.5964947e-10 0.0000000e+00 
0.0000000e+00 -4.2354692e-10 0.0000000e+00 
0.0000000e+00 5.1215770e-06 0.0000000e+00 
0.0000000e+00 1.5203685e-06 0.0000000e+00 
0.0000000e+00 2.9529897e-07 0.0000000e+00 
0.0000000e+00 1.9767274e-06 0.0000000e+00 
0.0000000e+00 6.7733745e-06 0.0000000e+00 
0.0000000e+00 8.2881235e-07 0.0000000e+00 
0.0000000e+00 7.5952977e-07 0.0000000e+00 
0.0000000e+00 3.5936401e-07 0.0000000e+00 
0.0000000e+00 5.0652061e-06 0.0000000e+00 
0.0000000e+00 2.6142004e-06 0.0000000e+00 
0.0000000e+00 9.5675307e-07 0.0000000e+00 
0.0000000e+00 1.5971908e-07 0.0000000e+00 
0.0000000e+00 3.3721645e-07 0.0000000e+00 
0.0000000e+00 9.4928537e-06 0.0000000e+00 
0.0000000e+00 2.1962042e-06 0.0000000e+00 
7.7537381e-09 -5.6312532e-09 -3.5425479e-08 
5.2163060e-08 9.1806250e-08 -1.6760535e-07 
2.4781062e-07 8.3247221e-07 -5.7118166e-07 
5.5392063e-10 -3.5049423e-09 -7.5573775e-10 
1.6229414e-09 -7.1355664e-09 -5.4255622e-09 
1.5867254e-08 -1.3188646e-08 -2.4653174e-08 
5.6867128e-10 -5.1992912e-09 -2.1323206e-10 
7.7870929e-08 7.0145504e-08 -9.5491380e-08 
1.8569044e-10 -1.7673183e-09 1.5563829e-10 
5.8343790e-07 3.7192758e-06 -1.1022948e-06 
8.3924867e-11 -1.4252064e-09 3.3261788e-10 
3.3607805e-07 7.2541332e-07 -1.1529843e-07 
5.2180155e-08 1.8968722e-08 -6.4432662e-08 
1.0917773e-07 9.9595965e-08 -1.7083167e-07 
2.5664283e-07 2.9666248e-07 -2.9888392e-07 
1.8333317e-07 2.7009983e-07 -2.2400262e-07 
8.8240583e-08 1.0685253e-07 -1.4024970e-07 
3.9372424e-07 8.8512957e-07 -3.7123834e-07 
1.3934041e-07 2.2386820e-07 -3.1286260e-07 
4.7064130e-08 2.4298419e-08 -1.0065337e-07 
2.1783473e-08 -3.7819321e-09 -4.3588042e-08 
2.7801974e-08 1.2232408e-08 -6.9479455e-08 
1.2420301e-08 -1.1287383e-08 -3.8452903e-08 
7.5460012e-09 -1.6762455e-08 -1.6483913e-08 
5.9486780e-09 -1.3622278e-08 -1.4872587e-08 
3.5992367e-09 -1.0136921e-08 -6.1071650e-09 
1.8510832e-09 -8.7523198e-09 -5.8441101e-09 
1.3644023e-09 -7.2425697e-09 -2.1132183e-09 
1.4395488e-09 -5.6630007e-09 -2.3239897e-09 
8.2258989e-10 -4.1249693e-09 -2.7795358e-10 
4.2880643e-10 -3.0480458e-09 -2.8435354e-10 
2.0779792e-08 -1.5223457e-10 -7.5112993e-08 
3.9321463e-08 3.6387746e-08 -1.0609885e-07 
4.0856767e-09 -8.5168308e-09 -9.1513908e-09 
1.5617541e-09 -9.5047445e-09 -1.7997592e-09 
4.7269756e-07 1.6471606e-06 -2.4454235e-07 
5.7543774e-09 -1.2422961e-08 -2.2974566e-08 
7.5008275e-09 -1.6844652e-08 -1.2724173e-08 
1.1376914e-10 -1.5607877e-09 1.6144444e-10 
1.9639549e-07 2.5714016e-07 -1.1567059e-07 
2.7828904e-07 5.7609196e-07 -4.9677573e-07 
3.8178331e-07 1.3206802e-06 -5.4843929e-07 
3.0802408e-08 2.1235065e-08 -9.8420450e-08 
1.1247563e-10 -2.3962312e-09 2.7930577e-10 
8.7348628e-10 -5.0764317e-09 -2.2005506e-09 
1.4783331e-09 -6.9489721e-09 -3.6850536e-09 
3.0001730e-09 -6.6145889e-09 -1.1380288e-08 
6.5228365e-09 -7.6439788e-09 -2.3529820e-08 
9.8638168e-08 1.7657106e-07 -2.5947128e-07 
1.7312041e-07 4.6549380e-07 -4.5489688e-07 
1.1381063e-10 -1.1682791e-09 1.5753657e-10 
2.5025668e-10 -2.6106894e-09 -4.3090195e-11 
4.9647309e-07 6.2121035e-06 -6.7365352e-07 
3.0175620e-10 -2.5844162e-09 1.5298113e-10 
9.3556884e-10 -4.4786530e-09 -1.1318612e-09 
4.4060485e-07 1.9572410e-06 -9.1709580e-07 
8.7435332e-08 1.2213910e-07 -2.0435321e-07 
2.4713434e-10 -2.1823727e-09 8.5277334e-11 
1.3156177e-08 9.0755199e-09 -5.7646826e-08 
3.6709633e-07 6.4441821e-07 -2.8117648e-07 
1.6468960e-07 3.4187127e-07 -6.5212873e-08 
4.3304353e-11 -1.3244426e-09 1.9160808e-10 
4.4030100e-09 -1.2099975e-08 -7.4484534e-09 
4.4804763e-10 -3.1922343e-09 -2.8062308e-10 
6.7466203e-07 2.4478766e-06 -6.9539510e-07 
5.6790956e-08 3.9769290e-08 -1.1825956e-07 
3.8212297e-10 -3.5297310e-09 -7.1887336e-11 
1.1790733e-09 -6.8140276e-09 -1.7669207e-09 
1.3405879e-10 -1.5656539e-09 1.1503876e-10 
9.8911341e-09 -3.9305004e-09 -4.2338915e-08 
6.0834293e-07 3.3493957e-06 -5.3608414e-07 
1.5147456e-10 -3.0893867e-09 -3.9587628e-10 
1.3145826e-10 -2.2358826e-09 1.5341901e-12 
1.7752844e-10 -3.6297236e-09 -1.0321011e-09 
3.1450340e-10 -4.3394186e-09 -1.9380431e-09 
9.9009224e-11 -1.5732106e-09 9.4476468e-11 
4.2803547e-10 -3.4830210e-09 -4.0729899e-09 
2.2021736e-09 1.2960361e-09 -9.8643582e-09 
2.8199665e-09 9.9302531e-09 -1.8896072e-08 
8.7450571e-09 3.4977763e-08 -5.8970528e-08 
2.2376783e-08 6.2741044e-08 -1.1631601e-07 
1.9402744e-08 1.1490967e-07 -1.5724781e-07 
3.6130718e-08 2.5277743e-07 -2.5733874e-07 
5.5705161e-08 5.0856517e-07 -3.7754884e-07 
1.2621298e-07 1.1862996e-06 -5.1300901e-07 
1.5918080e-07 2.2640736e-06 -7.7332260e-07 
1.7062509e-07 4.4090680e-06 -8.5026477e-07 
2.1384737e-07 8.3688301e-06 -5.9475548e-07 
6.9756229e-11 -1.0377501e-09 1.2098608e-10 
-1.0597209e-10 -2.3543589e-09 -4.7455056e-12 
-3.7644787e-10 -6.3775718e-09 2.9947105e-09 
-7.6679392e-09 4.9709414e-09 4.3579689e-08 
-6.8906743e-08 2.5352622e-07 2.0089229e-07 
-2.5852580e-07 1.4989157e-06 5.1922081e-07 
-1.7253350e-10 -4.1552584e-09 3.0308742e-10 
-3.6453092e-09 -9.3419494e-09 7.3354185e-09 
-2.9718244e-08 3.1881768e-08 6.8690497e-08 
1.8577555e-09 -7.6173388e-09 2.9845688e-09 
4.1704119e-11 -4.2820090e-09 -6.8308914e-10 
-1.3489955e-12 -1.5500826e-09 -2.5134719e-10 
-1.5704370e-07 2.1625033e-07 1.9432352e-07 
4.3918019e-11 -1.6559483e-09 -3.0749456e-10 
-7.1409767e-09 9.2460567e-08 4.3273282e-08 
-1.7453328e-08 8.9110563e-07 2.8055823e-07 
6.0265987e-10 -6.0881655e-09 -1.2297287e-09 
-1.3733149e-09 -1.3053281e-08 1.4594361e-09 
-1.6204332e-10 -5.3592735e-09 -3.3082462e-10 
9.8633413e-10 4.8581716e-09 -3.6919645e-10 
5.4408000e-10 -5.8760476e-09 1.4945526e-08 
1.9494791e-11 -2.8969465e-09 -4.6198820e-10 
-1.1389559e-08 -6.8794850e-09 1.7150109e-08 
-1.4015605e-07 3.5050193e-06 8.2086649e-07 
1.1703640e-11 -1.5624148e-09 -2.9171893e-10 
-1.2735853e-07 3.4605841e-07 6.3600481e-08 
-3.5228517e-10 -2.2146383e-09 1.3977987e-09 
-1.2886612e-08 3.2807841e-09 3.8476401e-08 
-1.1718065e-10 -2.1251949e-09 2.9937450e-10 
-2.6735564e-10 -3.5008205e-09 3.1468228e-09 
1.9268885e-10 -9.1884482e-09 -1.5143158e-09 
-1.8918417e-08 1.9925491e-08 1.3735940e-08 
9.9308703e-09 1.4538595e-07 2.9770254e-08 
2.2959753e-08 2.6278892e-07 7.5401658e-09 
5.6730443e-09 1.0859437e-08 -1.0143706e-09 
-2.6219541e-07 7.6179964e-07 1.8108437e-07 
-3.8160376e-08 6.2040380e-07 1.6584909e-07 
-1.9373136e-12 -9.0885577e-10 -7.3585589e-11 
-7.2288742e-10 -7.9781746e-09 5.6708860e-11 
-1.6090169e-11 -8.6762381e-10 -8.5741352e-11 
-1.6412521e-08 7.9131688e-08 1.0622513e-07 
8.5942864e-10 -3.5709673e-09 7.4812752e-09 
-2.4644373e-07 1.9869453e-06 1.5755185e-07 
-8.6797662e-08 5.3031505e-07 4.0663539e-07 
1.0481914e-09 -9.9073798e-09 -3.4527143e-09 
5.5014601e-11 -2.0498676e-09 -3.8727299e-10 
-1.7462188e-09 -1.3898131e-08 2.6367759e-09 
-6.2187799e-10 -2.8770453e-09 4.2986767e-10 
-1.4021353e-07 2.9516960e-07 2.3618715e-07 
1.5649927e-10 -3.5874879e-09 -4.2224751e-10 
-9.4841512e-10 5.4103548e-09 2.5950238e-08 
1.1045313e-10 -3.6624683e-09 -3.6735501e-10 
-6.8889747e-08 6.9944626e-08 8.2930477e-08 
-4.0045641e-08 1.7747440e-06 1.2609911e-07 
1.2759184e-08 5.6722122e-08 -1.5147860e-08 
-2.4619751e-09 2.0858401e-08 3.3568028e-08 
-2.6099645e-08 3.8014413e-08 8.1297287e-08 
-2.1741799e-07 1.6674086e-06 5.0286121e-07 
4.2310429e-11 -1.3358840e-09 -2.0273780e-10 
8.1501889e-10 -1.3860681e-08 -1.9441078e-09 
-1.7259147e-09 -4.1991277e-09 3.1566461e-09 
9.0998531e-10 -1.3061289e-08 -3.9819668e-09 
-2.8977595e-08 1.2615173e-08 3.9065945e-08 
1.6987922e-10 -3.9270640e-09 -7.2920631e-10 
7.1355551e-08 1.8754118e-06 1.5660868e-07 
-2.8320617e-09 -3.3791439e-09 1.0043254e-08 
7.3843287e-09 1.0553327e-07 -2.2424775e-08 