# vtk DataFile Version 4.0
vtk output
ASCII
DATASET UNSTRUCTURED_GRID
POINTS 460 float
0.0000000e+00 0.0000000e+00 0.0000000e+00 
5.0000000e+00 0.0000000e+00 0.0000000e+00 
5.0000000e+00 3.0000000e+00 0.0000000e+00 
0.0000000e+00 3.0000000e+00 0.0000000e+00 
0.0000000e+00 0.0000000e+00 1.0000000e+01 
5.0000000e+00 0.0000000e+00 1.0000000e+01 
5.0000000e+00 3.0000000e+00 1.0000000e+01 
0.0000000e+00 3.0000000e+00 1.0000000e+01 
1.0000000e+00 3.0000000e+00 -5.0000000e+00 
1.0000000e+00 3.0000000e+00 -4.5000000e+00 
1.0000000e+00 3.0000000e+00 -4.0000000e+00 
1.0000000e+00 3.0000000e+00 -3.5000000e+00 
1.0000000e+00 3.0000000e+00 -3.0000000e+00 
1.0000000e+00 3.0000000e+00 -2.5000000e+00 
1.0000000e+00 3.0000000e+00 -2.0000000e+00 
1.0000000e+00 3.0000000e+00 -1.5000000e+00 
1.0000000e+00 3.0000000e+00 -1.0000000e+00 
1.0000000e+00 3.0000000e+00 -5.0000000e-01 
1.0000000e+00 3.0000000e+00 0.0000000e+00 
1.0000000e+00 3.0000000e+00 5.0000000e-01 
1.0000000e+00 3.0000000e+00 1.0000000e+00 
1.0000000e+00 3.0000000e+00 1.5000000e+00 
1.0000000e+00 3.0000000e+00 2.0000000e+00 
1.0000000e+00 3.0000000e+00 2.5000000e+00 
1.0000000e+00 3.0000000e+00 3.0000000e+00 
1.0000000e+00 3.0000000e+00 3.5000000e+00 
1.0000000e+00 3.0000000e+00 4.0000000e+00 
1.0000000e+00 3.0000000e+00 4.5000000e+00 
1.0000000e+00 3.0000000e+00 5.0000000e+00 
1.0000000e+00 3.0000000e+00 5.5000000e+00 
1.0000000e+00 3.0000000e+00 6.0000000e+00 
1.0000000e+00 3.0000000e+00 6.5000000e+00 
1.0000000e+00 3.0000000e+00 7.0000000e+00 
1.0000000e+00 3.0000000e+00 7.5000000e+00 
1.0000000e+00 3.0000000e+00 8.0000000e+00 
1.0000000e+00 3.0000000e+00 8.5000000e+00 
1.0000000e+00 3.0000000e+00 9.0000000e+00 
1.0000000e+00 3.0000000e+00 9.5000000e+00 
1.0000000e+00 3.0000000e+00 1.0000000e+01 
1.0000000e+00 3.0000000e+00 1.0500000e+01 
1.0000000e+00 3.0000000e+00 1.1000000e+01 
1.0000000e+00 3.0000000e+00 1.1500000e+01 
1.0000000e+00 3.0000000e+00 1.2000000e+01 
1.0000000e+00 3.0000000e+00 1.2500000e+01 
1.0000000e+00 3.0000000e+00 1.3000000e+01 
1.0000000e+00 3.0000000e+00 1.3500000e+01 
1.0000000e+00 3.0000000e+00 1.4000000e+01 
1.0000000e+00 3.0000000e+00 1.4500000e+01 
1.0000000e+00 3.0250001e+00 -5.0000000e+00 
1.0000000e+00 3.0250001e+00 -4.5000000e+00 
1.0000000e+00 3.0250001e+00 -4.0000000e+00 
1.0000000e+00 3.0250001e+00 -3.5000000e+00 
1.0000000e+00 3.0250001e+00 -3.0000000e+00 
1.0000000e+00 3.0250001e+00 -2.5000000e+00 
1.0000000e+00 3.0250001e+00 -2.0000000e+00 
1.0000000e+00 3.0250001e+00 -1.5000000e+00 
1.0000000e+00 3.0250001e+00 -1.0000000e+00 
1.0000000e+00 3.0250001e+00 -5.0000000e-01 
1.0000000e+00 3.0250001e+00 0.0000000e+00 
1.0000000e+00 3.0250001e+00 5.0000000e-01 
1.0000000e+00 3.0250001e+00 1.0000000e+00 
1.0000000e+00 3.0250001e+00 1.5000000e+00 
1.0000000e+00 3.0250001e+00 2.0000000e+00 
1.0000000e+00 3.0250001e+00 2.5000000e+00 
1.0000000e+00 3.0250001e+00 3.0000000e+00 
1.0000000e+00 3.0250001e+00 3.5000000e+00 
1.0000000e+00 3.0250001e+00 4.0000000e+00 
1.0000000e+00 3.0250001e+00 4.5000000e+00 
1.0000000e+00 3.0250001e+00 5.0000000e+00 
1.0000000e+00 3.0250001e+00 5.5000000e+00 
1.0000000e+00 3.0250001e+00 6.0000000e+00 
1.0000000e+00 3.0250001e+00 6.5000000e+00 
1.0000000e+00 3.0250001e+00 7.0000000e+00 
1.0000000e+00 3.0250001e+00 7.5000000e+00 
1.0000000e+00 3.0250001e+00 8.0000000e+00 
1.0000000e+00 3.0250001e+00 8.5000000e+00 
1.0000000e+00 3.0250001e+00 9.0000000e+00 
1.0000000e+00 3.0250001e+00 9.5000000e+00 
1.0000000e+00 3.0250001e+00 1.0000000e+01 
1.0000000e+00 3.0250001e+00 1.0500000e+01 
1.0000000e+00 3.0250001e+00 1.1000000e+01 
1.0000000e+00 3.0250001e+00 1.1500000e+01 
1.0000000e+00 3.0250001e+00 1.2000000e+01 
1.0000000e+00 3.0250001e+00 1.2500000e+01 
1.0000000e+00 3.0250001e+00 1.3000000e+01 
1.0000000e+00 3.0250001e+00 1.3500000e+01 
1.0000000e+00 3.0250001e+00 1.4000000e+01 
1.0000000e+00 3.0250001e+00 1.4500000e+01 
1.0000000e+00 -2.0000000e+00 -5.0000000e+00 
1.0000000e+00 -2.0000000e+00 -4.5000000e+00 
1.0000000e+00 -2.0000000e+00 -4.0000000e+00 
1.0000000e+00 -2.0000000e+00 -3.5000000e+00 
1.0000000e+00 -2.0000000e+00 -3.0000000e+00 
1.0000000e+00 -2.0000000e+00 -2.5000000e+00 
1.0000000e+00 -2.0000000e+00 -2.0000000e+00 
1.0000000e+00 -2.0000000e+00 -1.5000000e+00 
1.0000000e+00 -2.0000000e+00 -1.0000000e+00 
1.0000000e+00 -2.0000000e+00 -5.0000000e-01 
1.0000000e+00 -2.0000000e+00 1.0500000e+01 
1.0000000e+00 -2.0000000e+00 1.1000000e+01 
1.0000000e+00 -2.0000000e+00 1.1500000e+01 
1.0000000e+00 -2.0000000e+00 1.2000000e+01 
1.0000000e+00 -2.0000000e+00 1.2500000e+01 
1.0000000e+00 -2.0000000e+00 1.3000000e+01 
1.0000000e+00 -2.0000000e+00 1.3500000e+01 
1.0000000e+00 -2.0000000e+00 1.4000000e+01 
1.0000000e+00 -2.0000000e+00 1.4500000e+01 
1.0000000e+00 0.0000000e+00 0.0000000e+00 
2.0000000e+00 0.0000000e+00 0.0000000e+00 
3.0000000e+00 0.0000000e+00 0.0000000e+00 
4.0000000e+00 0.0000000e+00 0.0000000e+00 
5.0000000e+00 1.0000000e+00 0.0000000e+00 
5.0000000e+00 2.0000000e+00 0.0000000e+00 
0.0000000e+00 2.0000000e+00 0.0000000e+00 
0.0000000e+00 1.0000000e+00 0.0000000e+00 
0.0000000e+00 0.0000000e+00 1.0000000e+00 
0.0000000e+00 0.0000000e+00 2.0000000e+00 
0.0000000e+00 0.0000000e+00 3.0000000e+00 
0.0000000e+00 0.0000000e+00 4.0000000e+00 
0.0000000e+00 0.0000000e+00 5.0000000e+00 
0.0000000e+00 0.0000000e+00 6.0000000e+00 
0.0000000e+00 0.0000000e+00 7.0000000e+00 
0.0000000e+00 0.0000000e+00 8.0000000e+00 
0.0000000e+00 0.0000000e+00 9.0000000e+00 
5.0000000e+00 0.0000000e+00 1.0000000e+00 
5.0000000e+00 0.0000000e+00 2.0000000e+00 
5.0000000e+00 0.0000000e+00 3.0000000e+00 
5.0000000e+00 0.0000000e+00 4.0000000e+00 
5.0000000e+00 0.0000000e+00 5.0000000e+00 
5.0000000e+00 0.0000000e+00 6.0000000e+00 
5.0000000e+00 0.0000000e+00 7.0000000e+00 
5.0000000e+00 0.0000000e+00 8.0000000e+00 
5.0000000e+00 0.0000000e+00 9.0000000e+00 
1.0000000e+00 0.0000000e+00 1.0000000e+01 
2.0000000e+00 0.0000000e+00 1.0000000e+01 
3.0000000e+00 0.0000000e+00 1.0000000e+01 
4.0000000e+00 0.0000000e+00 1.0000000e+01 
5.0000000e+00 3.0000000e+00 1.0000000e+00 
5.0000000e+00 3.0000000e+00 2.0000000e+00 
5.0000000e+00 3.0000000e+00 3.0000000e+00 
5.0000000e+00 3.0000000e+00 4.0000000e+00 
5.0000000e+00 3.0000000e+00 5.0000000e+00 
5.0000000e+00 3.0000000e+00 6.0000000e+00 
5.0000000e+00 3.0000000e+00 7.0000000e+00 
5.0000000e+00 3.0000000e+00 8.0000000e+00 
5.0000000e+00 3.0000000e+00 9.0000000e+00 
5.0000000e+00 1.0000000e+00 1.0000000e+01 
5.0000000e+00 2.0000000e+00 1.0000000e+01 
0.0000000e+00 3.0000000e+00 1.0000000e+00 
0.0000000e+00 3.0000000e+00 2.0000000e+00 
0.0000000e+00 3.0000000e+00 3.0000000e+00 
0.0000000e+00 3.0000000e+00 4.0000000e+00 
0.0000000e+00 3.0000000e+00 5.0000000e+00 
0.0000000e+00 3.0000000e+00 6.0000000e+00 
0.0000000e+00 3.0000000e+00 7.0000000e+00 
0.0000000e+00 3.0000000e+00 8.0000000e+00 
0.0000000e+00 3.0000000e+00 9.0000000e+00 
0.0000000e+00 2.0000000e+00 1.0000000e+01 
0.0000000e+00 1.0000000e+00 1.0000000e+01 
4.0000000e+00 3.0000000e+00 0.0000000e+00 
3.0000000e+00 3.0000000e+00 0.0000000e+00 
2.0000000e+00 3.0000000e+00 0.0000000e+00 
4.0000000e+00 3.0000000e+00 1.0000000e+01 
3.0000000e+00 3.0000000e+00 1.0000000e+01 
2.0000000e+00 3.0000000e+00 1.0000000e+01 
4.0618000e+00 1.5000000e+00 0.0000000e+00 
1.5046000e+00 7.6549745e-01 0.0000000e+00 
2.5000000e+00 2.1339746e+00 0.0000000e+00 
1.5046000e+00 2.2345026e+00 0.0000000e+00 
2.4957771e+00 8.1560516e-01 0.0000000e+00 
3.4707544e+00 2.2336540e+00 0.0000000e+00 
3.4700506e+00 7.5794268e-01 0.0000000e+00 
8.6322361e-01 1.5000000e+00 0.0000000e+00 
2.0000000e+00 1.5000000e+00 0.0000000e+00 
2.9960666e+00 1.4974480e+00 0.0000000e+00 
4.2679491e+00 7.3205084e-01 0.0000000e+00 
4.2679491e+00 2.2679491e+00 0.0000000e+00 
7.2695929e-01 2.2730408e+00 0.0000000e+00 
7.2695929e-01 7.2695929e-01 0.0000000e+00 
4.1822505e+00 0.0000000e+00 2.5515697e+00 
4.2017918e+00 0.0000000e+00 4.4725966e+00 
4.1114569e+00 0.0000000e+00 6.5092020e+00 
8.6602539e-01 0.0000000e+00 3.5000000e+00 
8.4778279e-01 0.0000000e+00 5.4684029e+00 
8.9629614e-01 0.0000000e+00 7.5867257e+00 
2.5566745e+00 0.0000000e+00 8.1853306e-01 
2.4918270e+00 0.0000000e+00 9.1386929e+00 
8.4677207e-01 0.0000000e+00 1.5042374e+00 
4.0943027e+00 0.0000000e+00 8.4081745e+00 
8.6281651e-01 0.0000000e+00 2.5007062e+00 
1.7315160e+00 0.0000000e+00 3.0001178e+00 
1.7319617e+00 0.0000000e+00 4.0000196e+00 
2.5980761e+00 0.0000000e+00 3.5000000e+00 
2.5536871e+00 0.0000000e+00 4.4963923e+00 
2.5928419e+00 0.0000000e+00 2.4239938e+00 
1.5037409e+00 0.0000000e+00 9.1535149e+00 
1.8433737e+00 0.0000000e+00 8.1858873e+00 
3.0000000e+00 0.0000000e+00 8.2679491e+00 
2.5000000e+00 0.0000000e+00 7.4019237e+00 
3.5042722e+00 0.0000000e+00 7.4271150e+00 
3.0310018e+00 0.0000000e+00 6.5282087e+00 
2.0373929e+00 0.0000000e+00 6.5307913e+00 
3.4767809e+00 0.0000000e+00 5.8031492e+00 
2.5452602e+00 0.0000000e+00 5.5720768e+00 
1.6456656e+00 0.0000000e+00 1.9697139e+00 
8.6297011e-01 0.0000000e+00 4.4947371e+00 
1.0111579e+00 0.0000000e+00 6.5282545e+00 
3.4994321e+00 0.0000000e+00 8.4691072e-01 
4.1860156e+00 0.0000000e+00 3.5040276e+00 
1.7320508e+00 0.0000000e+00 5.0000000e+00 
4.0544066e+00 0.0000000e+00 1.5781221e+00 
1.5817389e+00 0.0000000e+00 9.3943578e-01 
8.3166349e-01 0.0000000e+00 8.5090933e+00 
3.4686174e+00 0.0000000e+00 9.1752682e+00 
3.0709300e+00 0.0000000e+00 1.5799091e+00 
3.3927374e+00 0.0000000e+00 3.0399952e+00 
3.3826034e+00 0.0000000e+00 3.9747651e+00 
4.3420062e+00 0.0000000e+00 7.4688983e+00 
3.4023225e+00 0.0000000e+00 4.9314723e+00 
1.6740381e+00 0.0000000e+00 7.3014426e+00 
4.2715640e+00 0.0000000e+00 5.4758859e+00 
1.6225953e+00 0.0000000e+00 5.8104177e+00 
4.2679491e+00 0.0000000e+00 9.2679491e+00 
7.3205084e-01 0.0000000e+00 7.3205084e-01 
4.2679491e+00 0.0000000e+00 7.3205084e-01 
7.3205084e-01 0.0000000e+00 9.2679491e+00 
3.4586334e+00 0.0000000e+00 2.2347178e+00 
2.2895701e+00 0.0000000e+00 1.5463171e+00 
5.0000000e+00 2.2345026e+00 1.5046000e+00 
[...]
POINT_DATA 460
FIELD FieldData 2
DISPLACEMENT 3 460  float
0.0000000e+00 0.0000000e+00 0.0000000e+00 
0.0000000e+00 0.0000000e+00 0.0000000e+00 
0.0000000e+00 -5.5032956e-10 0.0000000e+00 
0.0000000e+00 -3.1128453e-10 0.0000000e+00 
0.0000000e+00 0.0000000e+00 0.0000000e+00 
0.0000000e+00 0.0000000e+00 0.0000000e+00 
0.0000000e+00 -5.6177868e-07 0.0000000e+00 
0.0000000e+00 -1.4999387e-05 0.0000000e+00 
0.0000000e+00 -3.5597159e-09 0.0000000e+00 
0.0000000e+00 -3.5146941e-09 0.0000000e+00 
0.0000000e+00 -3.3682712e-09 0.0000000e+00 
0.0000000e+00 -3.1277190e-09 0.0000000e+00 
0.0000000e+00 -2.8113463e-09 0.0000000e+00 
0.0000000e+00 -2.4408777e-09 0.0000000e+00 
0.0000000e+00 -2.0459363e-09 0.0000000e+00 
0.0000000e+00 -1.6610989e-09 0.0000000e+00 
0.0000000e+00 -1.3140751e-09 0.0000000e+00 
0.0000000e+00 -1.0128489e-09 0.0000000e+00 
0.0000000e+00 -7.3483292e-10 0.0000000e+00 
-2.2660542e-11 -3.9948020e-10 -1.0719113e-09 
3.9848239e-11 2.7490146e-10 -2.6643536e-09 
1.5712945e-11 1.5953224e-09 -3.8992831e-09 
-4.7672036e-11 4.0956172e-09 -6.2831136e-09 
1.6090013e-10 8.1244398e-09 -9.0862828e-09 
2.1570899e-10 1.3691199e-08 -1.2714475e-08 
2.2834687e-10 1.9576893e-08 -1.7723227e-08 
2.5740927e-09 2.2206351e-08 -2.7281104e-08 
1.0734920e-10 1.7542810e-08 -3.2283349e-08 
4.3924522e-09 6.9663488e-09 -4.9493348e-08 
1.7413383e-08 1.7649146e-08 -6.6426239e-08 
1.1571664e-08 1.4242393e-07 -6.0583069e-08 
7.5734530e-09 5.8027865e-07 -4.5338474e-08 
-1.3416610e-07 1.6859490e-06 -9.7202893e-08 
-3.2359605e-07 3.8096464e-06 4.7910106e-07 
-4.7615072e-07 6.6991661e-06 1.2833832e-06 
-1.1187078e-06 7.9066876e-06 3.3082842e-06 
-8.8164830e-07 6.3124602e-08 3.6563990e-06 
-1.7097018e-06 -3.1484818e-05 -5.6154481e-06 
0.0000000e+00 -1.0828151e-04 0.0000000e+00 
0.0000000e+00 -2.5870636e-04 0.0000000e+00 
0.0000000e+00 -4.5424135e-04 0.0000000e+00 
0.0000000e+00 -6.2819675e-04 0.0000000e+00 
0.0000000e+00 -6.6180975e-04 0.0000000e+00 
0.0000000e+00 -5.2827928e-04 0.0000000e+00 
0.0000000e+00 -3.4338696e-04 0.0000000e+00 
0.0000000e+00 -1.8095932e-04 0.0000000e+00 
0.0000000e+00 -7.5037795e-05 0.0000000e+00 
0.0000000e+00 -3.8571932e-05 0.0000000e+00 
0.0000000e+00 -3.4182162e-09 0.0000000e+00 
0.0000000e+00 -3.4092671e-09 0.0000000e+00 
0.0000000e+00 -3.3488292e-09 0.0000000e+00 
0.0000000e+00 -3.1492533e-09 0.0000000e+00 
0.0000000e+00 -2.8234630e-09 0.0000000e+00 
0.0000000e+00 -2.4399991e-09 0.0000000e+00 
0.0000000e+00 -2.0444673e-09 0.0000000e+00 
0.0000000e+00 -1.6628914e-09 0.0000000e+00 
0.0000000e+00 -1.3169148e-09 0.0000000e+00 
0.0000000e+00 -1.0152443e-09 0.0000000e+00 
0.0000000e+00 -7.3887924e-10 0.0000000e+00 
0.0000000e+00 -3.9904866e-10 0.0000000e+00 
0.0000000e+00 2.6626873e-10 0.0000000e+00 
0.0000000e+00 1.5981464e-09 0.0000000e+00 
0.0000000e+00 4.0983279e-09 0.0000000e+00 
0.0000000e+00 8.1541707e-09 0.0000000e+00 
0.0000000e+00 1.3763751e-08 0.0000000e+00 
0.0000000e+00 1.9611406e-08 0.0000000e+00 
0.0000000e+00 2.2132042e-08 0.0000000e+00 
0.0000000e+00 1.6891132e-08 0.0000000e+00 
0.0000000e+00 5.0889062e-09 0.0000000e+00 
0.0000000e+00 1.4306733e-08 0.0000000e+00 
0.0000000e+00 1.3631096e-07 0.0000000e+00 
0.0000000e+00 5.7659810e-07 0.0000000e+00 
0.0000000e+00 1.6963505e-06 0.0000000e+00 
0.0000000e+00 3.8673606e-06 0.0000000e+00 
0.0000000e+00 6.8452814e-06 0.0000000e+00 
0.0000000e+00 8.1273911e-06 0.0000000e+00 
0.0000000e+00 3.6325139e-07 0.0000000e+00 
0.0000000e+00 -3.1052092e-05 0.0000000e+00 
0.0000000e+00 -1.1010702e-04 0.0000000e+00 
0.0000000e+00 -2.5974261e-04 0.0000000e+00 
0.0000000e+00 -4.5605598e-04 0.0000000e+00 
0.0000000e+00 -6.3069846e-04 0.0000000e+00 
0.0000000e+00 -6.6444377e-04 0.0000000e+00 
0.0000000e+00 -5.3038908e-04 0.0000000e+00 
0.0000000e+00 -3.4476232e-04 0.0000000e+00 
0.0000000e+00 -1.8168702e-04 0.0000000e+00 
0.0000000e+00 -7.5342301e-05 0.0000000e+00 
0.0000000e+00 -3.8730588e-05 0.0000000e+00 
0.0000000e+00 0.0000000e+00 0.0000000e+00 
0.0000000e+00 0.0000000e+00 0.0000000e+00 
0.0000000e+00 0.0000000e+00 0.0000000e+00 
0.0000000e+00 0.0000000e+00 0.0000000e+00 
0.0000000e+00 0.0000000e+00 0.0000000e+00 
0.0000000e+00 0.0000000e+00 0.0000000e+00 
0.0000000e+00 0.0000000e+00 0.0000000e+00 
0.0000000e+00 0.0000000e+00 0.0000000e+00 
0.0000000e+00 0.0000000e+00 0.0000000e+00 
0.0000000e+00 0.0000000e+00 0.0000000e+00 
0.0000000e+00 0.0000000e+00 0.0000000e+00 
0.0000000e+00 0.0000000e+00 0.0000000e+00 
0.0000000e+00 0.0000000e+00 0.0000000e+00 
0.0000000e+00 0.0000000e+00 0.0000000e+00 
0.0000000e+00 0.0000000e+00 0.0000000e+00 
0.0000000e+00 0.0000000e+00 0.0000000e+00 
0.0000000e+00 0.0000000e+00 0.0000000e+00 
0.0000000e+00 0.0000000e+00 0.0000000e+00 
0.0000000e+00 0.0000000e+00 0.0000000e+00 
0.0000000e+00 0.0000000e+00 0.0000000e+00 
0.0000000e+00 0.0000000e+00 0.0000000e+00 
0.0000000e+00 0.0000000e+00 0.0000000e+00 
0.0000000e+00 0.0000000e+00 0.0000000e+00 
0.0000000e+00 -2.4808633e-10 0.0000000e+00 
0.0000000e+00 -4.8427129e-10 0.0000000e+00 
0.0000000e+00 -2.8793598e-10 0.0000000e+00 
0.0000000e+00 -1.4229525e-10 0.0000000e+00 
0.0000000e+00 0.0000000e+00 0.0000000e+00 
0.0000000e+00 0.0000000e+00 0.0000000e+00 
0.0000000e+00 0.0000000e+00 0.0000000e+00 
0.0000000e+00 0.0000000e+00 0.0000000e+00 
0.0000000e+00 0.0000000e+00 0.0000000e+00 
0.0000000e+00 0.0000000e+00 0.0000000e+00 
0.0000000e+00 0.0000000e+00 0.0000000e+00 
0.0000000e+00 0.0000000e+00 0.0000000e+00 
0.0000000e+00 0.0000000e+00 0.0000000e+00 
0.0000000e+00 0.0000000e+00 0.0000000e+00 
0.0000000e+00 0.0000000e+00 0.0000000e+00 
0.0000000e+00 0.0000000e+00 0.0000000e+00 
0.0000000e+00 0.0000000e+00 0.0000000e+00 
0.0000000e+00 0.0000000e+00 0.0000000e+00 
0.0000000e+00 0.0000000e+00 0.0000000e+00 
0.0000000e+00 0.0000000e+00 0.0000000e+00 
0.0000000e+00 0.0000000e+00 0.0000000e+00 
0.0000000e+00 0.0000000e+00 0.0000000e+00 
0.0000000e+00 0.0000000e+00 0.0000000e+00 
0.0000000e+00 0.0000000e+00 0.0000000e+00 
0.0000000e+00 0.0000000e+00 0.0000000e+00 
0.0000000e+00 0.0000000e+00 0.0000000e+00 
0.0000000e+00 -4.9434363e-11 0.0000000e+00 
0.0000000e+00 1.4751246e-09 0.0000000e+00 
0.0000000e+00 6.4678036e-09 0.0000000e+00 
0.0000000e+00 1.6209988e-08 0.0000000e+00 
0.0000000e+00 3.0575194e-08 0.0000000e+00 
0.0000000e+00 4.1693841e-08 0.0000000e+00 
0.0000000e+00 -2.9678336e-08 0.0000000e+00 
0.0000000e+00 -1.5517163e-07 0.0000000e+00 
0.0000000e+00 -4.7537645e-07 0.0000000e+00 
0.0000000e+00 -3.0694284e-07 0.0000000e+00 
0.0000000e+00 -4.9961602e-07 0.0000000e+00 
0.0000000e+00 4.5141996e-10 0.0000000e+00 
0.0000000e+00 3.5218601e-09 0.0000000e+00 
0.0000000e+00 1.1682548e-08 0.0000000e+00 
0.0000000e+00 2.9837906e-08 0.0000000e+00 
0.0000000e+00 8.1231818e-08 0.0000000e+00 
0.0000000e+00 2.6190290e-07 0.0000000e+00 
0.0000000e+00 9.1800467e-07 0.0000000e+00 
0.0000000e+00 2.4419603e-07 0.0000000e+00 
0.0000000e+00 -8.1074240e-06 0.0000000e+00 
0.0000000e+00 -1.5215553e-05 0.0000000e+00 
0.0000000e+00 -7.7563745e-06 0.0000000e+00 
0.0000000e+00 -6.0075556e-10 0.0000000e+00 
0.0000000e+00 -4.7397752e-10 0.0000000e+00 
0.0000000e+00 -3.1356259e-10 0.0000000e+00 
0.0000000e+00 -9.7338807e-07 0.0000000e+00 
0.0000000e+00 -2.6550420e-06 0.0000000e+00 
0.0000000e+00 -7.0050614e-06 0.0000000e+00 
0.0000000e+00 -7.0850154e-10 0.0000000e+00 
0.0000000e+00 -2.7658512e-10 0.0000000e+00 
0.0000000e+00 -1.0127322e-09 0.0000000e+00 
0.0000000e+00 -8.2122525e-10 0.0000000e+00 
0.0000000e+00 -4.5494977e-10 0.0000000e+00 
0.0000000e+00 -9.8962338e-10 0.0000000e+00 
0.0000000e+00 -2.3945632e-10 0.0000000e+00 
0.0000000e+00 -5.7691102e-10 0.0000000e+00 
0.0000000e+00 -8.4590351e-10 0.0000000e+00 
0.0000000e+00 -7.3545764e-10 0.0000000e+00 
0.0000000e+00 -3.3234093e-10 0.0000000e+00 
0.0000000e+00 -7.7623141e-10 0.0000000e+00 
0.0000000e+00 -6.3232558e-10 0.0000000e+00 
0.0000000e+00 -2.3099588e-10 0.0000000e+00 
0.0000000e+00 0.0000000e+00 0.0000000e+00 
0.0000000e+00 0.0000000e+00 0.0000000e+00 
0.0000000e+00 0.0000000e+00 0.0000000e+00 
0.0000000e+00 0.0000000e+00 0.0000000e+00 
0.0000000e+00 0.0000000e+00 0.0000000e+00 
0.0000000e+00 0.0000000e+00 0.0000000e+00 
0.0000000e+00 0.0000000e+00 0.0000000e+00 
0.0000000e+00 0.0000000e+00 0.0000000e+00 
0.0000000e+00 0.0000000e+00 0.0000000e+00 
0.0000000e+00 0.0000000e+00 0.0000000e+00 
0.0000000e+00 0.0000000e+00 0.0000000e+00 
0.0000000e+00 0.0000000e+00 0.0000000e+00 
0.0000000e+00 0.0000000e+00 0.0000000e+00 
0.0000000e+00 0.0000000e+00 0.0000000e+00 
0.0000000e+00 0.0000000e+00 0.0000000e+00 
0.0000000e+00 0.0000000e+00 0.0000000e+00 
0.0000000e+00 0.0000000e+00 0.0000000e+00 
0.0000000e+00 0.0000000e+00 0.0000000e+00 
0.0000000e+00 0.0000000e+00 0.0000000e+00 
0.0000000e+00 0.0000000e+00 0.0000000e+00 
0.0000000e+00 0.0000000e+00 0.0000000e+00 
0.0000000e+00 0.0000000e+00 0.0000000e+00 
0.0000000e+00 0.0000000e+00 0.0000000e+00 
0.0000000e+00 0.0000000e+00 0.0000000e+00 
0.0000000e+00 0.0000000e+00 0.0000000e+00 
0.0000000e+00 0.0000000e+00 0.0000000e+00 
0.0000000e+00 0.0000000e+00 0.0000000e+00 
0.0000000e+00 0.0000000e+00 0.0000000e+00 
0.0000000e+00 0.0000000e+00 0.0000000e+00 
0.0000000e+00 0.0000000e+00 0.0000000e+00 
0.0000000e+00 0.0000000e+00 0.0000000e+00 
0.0000000e+00 0.0000000e+00 0.0000000e+00 
0.0000000e+00 0.0000000e+00 0.0000000e+00 
0.0000000e+00 0.0000000e+00 0.0000000e+00 
0.0000000e+00 0.0000000e+00 0.0000000e+00 
0.0000000e+00 0.0000000e+00 0.0000000e+00 
0.0000000e+00 0.0000000e+00 0.0000000e+00 
0.0000000e+00 0.0000000e+00 0.0000000e+00 
0.0000000e+00 0.0000000e+00 0.0000000e+00 
0.0000000e+00 0.0000000e+00 0.0000000e+00 
0.0000000e+00 0.0000000e+00 0.0000000e+00 
0.0000000e+00 0.0000000e+00 0.0000000e+00 
0.0000000e+00 0.0000000e+00 0.0000000e+00 
0.0000000e+00 0.0000000e+00 0.0000000e+00 
0.0000000e+00 0.0000000e+00 0.0000000e+00 
0.0000000e+00 0.0000000e+00 0.0000000e+00 
0.0000000e+00 0.0000000e+00 0.0000000e+00 
0.0000000e+00 0.0000000e+00 0.0000000e+00 
0.0000000e+00 0.0000000e+00 0.0000000e+00 
0.0000000e+00 3.4466907e-10 0.0000000e+00 
0.0000000e+00 -2.9159079e-07 0.0000000e+00 
0.0000000e+00 8.9161212e-09 0.0000000e+00 
0.0000000e+00 3.5491070e-08 0.0000000e+00 
0.0000000e+00 -7.6739092e-08 0.0000000e+00 
0.0000000e+00 1.3565375e-09 0.0000000e+00 
0.0000000e+00 9.2282093e-09 0.0000000e+00 
0.0000000e+00 1.1811948e-08 0.0000000e+00 
0.0000000e+00 4.6388595e-09 0.0000000e+00 
0.0000000e+00 1.4215327e-08 0.0000000e+00 
0.0000000e+00 2.4763807e-09 0.0000000e+00 
0.0000000e+00 2.0019916e-08 0.0000000e+00 
0.0000000e+00 4.2575667e-08 0.0000000e+00 
0.0000000e+00 -3.0927488e-08 0.0000000e+00 
0.0000000e+00 2.4591817e-10 0.0000000e+00 
0.0000000e+00 -1.2095553e-07 0.0000000e+00 
0.0000000e+00 -1.8899082e-07 0.0000000e+00 
0.0000000e+00 -1.7195841e-10 0.0000000e+00 
0.0000000e+00 2.1782888e-08 0.0000000e+00 
0.0000000e+00 1.7563904e-08 0.0000000e+00 
0.0000000e+00 8.7099133e-10 0.0000000e+00 
0.0000000e+00 3.2763783e-08 0.0000000e+00 
0.0000000e+00 1.0916754e-08 0.0000000e+00 
0.0000000e+00 4.3787294e-09 0.0000000e+00 
0.0000000e+00 -8.9517123e-08 0.0000000e+00 
0.0000000e+00 -4.0121213e-07 0.0000000e+00 
0.0000000e+00 -1.4975443e-07 0.0000000e+00 
0.0000000e+00 -3.0686179e-10 0.0000000e+00 
0.0000000e+00 -6.1290618e-11 0.0000000e+00 
0.0000000e+00 -5.7279613e-06 0.0000000e+00 
0.0000000e+00 2.1190352e-10 0.0000000e+00 
0.0000000e+00 2.5412246e-09 0.0000000e+00 
0.0000000e+00 2.4283130e-08 0.0000000e+00 
0.0000000e+00 -2.1127777e-07 0.0000000e+00 
0.0000000e+00 1.6823595e-08 0.0000000e+00 
0.0000000e+00 1.3542706e-07 0.0000000e+00 
0.0000000e+00 1.0045381e-07 0.0000000e+00 
0.0000000e+00 7.8739211e-09 0.0000000e+00 
0.0000000e+00 5.5549343e-09 0.0000000e+00 
0.0000000e+00 4.6821572e-08 0.0000000e+00 
0.0000000e+00 3.9082764e-07 0.0000000e+00 
0.0000000e+00 1.8597984e-07 0.0000000e+00 
0.0000000e+00 -2.6813193e-06 0.0000000e+00 
0.0000000e+00 1.3564841e-09 0.0000000e+00 
0.0000000e+00 7.9461415e-10 0.0000000e+00 
0.0000000e+00 -1.2700716e-06 0.0000000e+00 
0.0000000e+00 6.8588598e-08 0.0000000e+00 
0.0000000e+00 9.2307779e-08 0.0000000e+00 
0.0000000e+00 2.4183985e-08 0.0000000e+00 
0.0000000e+00 7.7340667e-09 0.0000000e+00 
0.0000000e+00 1.9961350e-07 0.0000000e+00 
0.0000000e+00 6.3634737e-08 0.0000000e+00 
0.0000000e+00 -8.2633335e-07 0.0000000e+00 
0.0000000e+00 2.1671749e-09 0.0000000e+00 
0.0000000e+00 -2.8383022e-06 0.0000000e+00 
0.0000000e+00 -1.6335008e-11 0.0000000e+00 
0.0000000e+00 1.6875128e-10 0.0000000e+00 
0.0000000e+00 -1.1370629e-05 0.0000000e+00 
0.0000000e+00 -4.2143261e-06 0.0000000e+00 
0.0000000e+00 -6.4954133e-07 0.0000000e+00 
0.0000000e+00 -4.7228455e-06 0.0000000e+00 
0.0000000e+00 -2.2017515e-05 0.0000000e+00 
0.0000000e+00 -2.1612404e-06 0.0000000e+00 
0.0000000e+00 -1.7924390e-06 0.0000000e+00 
0.0000000e+00 -8.7889327e-07 0.0000000e+00 
0.0000000e+00 -1.6107095e-05 0.0000000e+00 
0.0000000e+00 -7.5853513e-06 0.0000000e+00 
0.0000000e+00 -2.2608942e-06 0.0000000e+00 
0.0000000e+00 -3.5594744e-07 0.0000000e+00 
0.0000000e+00 -7.6929445e-07 0.0000000e+00 
0.0000000e+00 -3.1919004e-05 0.0000000e+00 
0.0000000e+00 -6.7619289e-06 0.0000000e+00 
7.2219821e-09 5.6258529e-08 -4.3592564e-08 
4.2592564e-08 3.7954891e-07 -2.0049056e-08 
-1.9486491e-07 1.9463271e-06 8.3751644e-07 
8.6792951e-10 5.2282720e-09 -9.1513126e-09 
1.5240219e-09 1.4245615e-08 -1.7764476e-08 
2.4266757e-09 5.1342063e-08 1.7000939e-08 
1.6609255e-09 4.1050368e-09 -4.0173886e-09 
-7.7551121e-08 -5.8528862e-08 1.9132885e-07 
1.9215007e-10 6.0149535e-10 -3.6342303e-09 
-1.0296583e-06 -2.3451919e-06 3.2036367e-06 
5.8527611e-10 -2.3350283e-10 -2.1351660e-09 
-6.5632463e-07 -1.4600513e-06 3.8420919e-07 
-2.4714497e-08 3.4388542e-08 1.0796163e-07 
-5.5302671e-08 6.7101219e-08 2.8395652e-07 
-2.5772073e-07 -3.7695537e-07 6.7111790e-07 
-1.4462319e-07 3.2263500e-08 4.4041693e-07 
2.5669067e-09 1.5998985e-07 1.7193561e-07 
-4.7138161e-07 -1.0556529e-06 9.1996299e-07 
4.6391751e-08 5.8619844e-07 2.9705663e-07 
2.5050074e-08 9.5452130e-08 1.0823926e-07 
1.1281676e-08 6.5190960e-08 2.3971365e-08 
3.3564920e-08 1.1124014e-07 3.2308463e-08 
2.3212092e-08 7.1864250e-08 -1.5352741e-08 
1.0858100e-08 4.2830013e-08 -1.0023547e-08 
9.4279429e-09 3.4608416e-08 -1.9376690e-08 
6.6004628e-09 1.9531880e-08 -1.1325679e-08 
4.1069073e-09 1.6159795e-08 -1.5453002e-08 
3.3922212e-09 9.7931183e-09 -1.0506917e-08 
2.8409659e-09 6.8301449e-09 -1.1610298e-08 
2.2453106e-09 3.9619774e-09 -7.6166060e-09 
1.2561793e-09 1.8909760e-09 -6.7237180e-09 
3.1104669e-08 1.1974987e-07 -3.4428329e-08 
4.0186872e-08 2.0489395e-07 1.2939249e-08 
5.1250737e-09 2.2990408e-08 -2.3032200e-08 
3.8966830e-09 1.2508539e-08 -5.7311262e-09 
-9.9768965e-07 -3.1730065e-06 7.9883557e-07 
1.3019910e-08 5.0598572e-08 -2.8069877e-08 
5.5850360e-09 3.0702580e-08 5.3431781e-10 
5.5089444e-10 -4.2135545e-10 -2.5516911e-09 
-3.1564821e-07 -4.5183381e-07 3.2154119e-07 
-2.9672294e-09 4.7705532e-07 7.9211554e-07 
-2.1851245e-07 -5.8257962e-07 1.1084775e-06 
3.0748211e-08 1.8274130e-07 -4.0841606e-08 
8.9408492e-10 5.4898014e-10 -2.0086230e-09 
1.0440420e-09 8.7287724e-09 -1.2515179e-08 
2.5761906e-09 1.1155893e-08 -1.5137719e-08 
2.8110005e-09 2.1332129e-08 -2.4490713e-08 
7.3954842e-09 3.3153604e-08 -3.6061000e-08 
4.1427050e-08 7.7800030e-07 1.1630220e-07 
6.9806553e-08 1.2895541e-06 4.8000982e-07 
1.5094616e-10 -3.5092465e-10 -1.7589319e-09 
5.1183524e-10 2.3100597e-09 -5.7516480e-09 
-3.3309948e-07 -1.1005329e-05 2.0113180e-06 
1.1545694e-09 4.9640458e-10 -4.0851753e-09 
1.7225747e-09 6.0518861e-09 -1.0757526e-08 
-1.2052060e-07 5.9197362e-07 2.0486300e-06 
5.7561241e-08 3.4332371e-07 1.1668948e-07 
6.9729184e-10 1.1450537e-09 -4.8784456e-09 
1.4535348e-08 9.6198200e-08 -4.8628724e-08 
-5.9480453e-07 -1.0344996e-06 7.8900990e-07 
-3.0966729e-07 -7.0791066e-07 1.9421658e-07 
3.9963674e-10 -4.1446024e-10 -1.0484636e-09 
7.9900371e-09 2.4415371e-08 -9.0510808e-09 
1.1239775e-09 2.6202451e-09 -7.2081305e-09 
-9.1677043e-07 -3.6744789e-06 1.9540396e-06 
3.7119470e-08 1.8218007e-07 9.9437003e-08 
1.4123825e-09 1.9250750e-09 -4.7170303e-09 
3.0975940e-09 7.7232887e-09 -7.6853732e-09 
3.7163680e-10 -1.7275839e-10 -2.6345801e-09 
1.3525264e-08 7.6996898e-08 -3.8380378e-08 
-1.4755771e-06 -6.2251847e-06 1.9697366e-06 
-1.1825031e-10 5.0415765e-09 -5.3144071e-09 
-1.9255689e-10 2.8407403e-09 -3.8145922e-09 
-3.8206857e-10 9.8130073e-09 -7.5610975e-09 
-3.3403419e-10 1.5181127e-08 -9.3318029e-09 
-6.2320225e-11 9.5178188e-10 -2.4665447e-09 
-4.9562016e-10 2.3190754e-08 -1.1992505e-08 
2.4143998e-10 3.6094725e-08 -1.8237541e-08 
3.8412720e-10 5.9008137e-08 -2.4701340e-08 
-7.8035445e-09 1.0096196e-07 -4.2041403e-08 
-2.0685357e-08 2.1351636e-07 -3.9062105e-08 
-1.9840293e-08 4.2784248e-07 8.2206562e-09 
-3.6104939e-08 8.6375394e-07 9.1665129e-08 
-1.4954360e-08 1.5734174e-06 4.7783715e-07 
4.6481354e-08 2.3183782e-06 9.7725717e-07 
-1.6298716e-07 5.0404668e-07 1.9266124e-06 
-8.4994866e-08 -4.1411099e-06 2.2037161e-06 
-1.2647774e-06 -1.8179260e-05 1.3135545e-06 
-1.3599431e-10 -2.2351636e-11 -1.1729619e-09 
2.0685477e-10 1.7770945e-09 2.9922492e-10 
3.8957698e-10 1.3152001e-08 2.0505957e-09 
-1.5333336e-08 1.2404927e-07 -3.0317204e-09 
-6.3047565e-08 2.2931383e-07 -2.1264272e-07 
1.7873535e-07 -1.8756825e-06 -1.4678600e-06 
-5.8193370e-11 3.4565910e-09 1.7176329e-09 
-2.3499234e-09 2.1290749e-08 2.2782372e-09 
-2.7456002e-08 1.3107886e-07 -6.5164095e-08 
-3.7104800e-10 4.0667718e-08 -6.1153034e-09 
2.2544623e-10 6.9123351e-09 -3.6651406e-09 
8.3852071e-11 2.3899233e-10 -1.0326405e-09 
1.0734259e-07 -5.9563007e-08 -4.0315192e-07 
3.1111141e-10 -1.8555613e-10 -2.9792138e-10 
-2.8050080e-08 4.0261233e-07 3.3017717e-08 
-2.4930271e-08 1.3323287e-06 -3.6559112e-07 
1.4183553e-10 1.9105467e-08 -7.6843598e-09 
1.1386765e-09 4.3249361e-08 -2.4818608e-10 
8.1014151e-10 5.3459246e-09 -1.1471281e-09 
-7.1471953e-11 1.1118908e-07 -6.7195489e-09 
-4.7431685e-09 3.1160944e-08 7.7502484e-09 
3.0550257e-11 2.7362086e-09 -3.1143963e-09 
-5.2337561e-09 3.5635416e-08 -9.6780983e-09 
4.9323376e-07 -3.5260730e-06 -2.2724068e-06 
-6.8389308e-11 3.6117531e-10 7.5141071e-10 
1.6485942e-07 -6.3974397e-07 -1.4878331e-07 
3.4645141e-11 4.3571626e-09 2.3600104e-09 
-1.1973449e-08 5.4947954e-08 -1.4454517e-08 
-8.9156509e-11 1.6119012e-09 1.4588771e-09 
-7.8547568e-10 5.7065717e-09 2.7178324e-09 
1.7141764e-09 1.4005196e-08 -2.4642361e-09 
5.7979266e-09 4.3723571e-08 -2.0862572e-08 
-7.8489307e-08 2.4013775e-07 -8.0321287e-09 
-1.0799754e-07 1.0664311e-06 6.2751155e-08 
-1.0391212e-08 1.6038361e-07 5.9611165e-09 
3.4221466e-07 -1.4158175e-06 -4.8723848e-07 
-2.0812953e-07 -8.2336285e-08 -3.0407477e-07 
1.0550152e-10 9.5139584e-11 5.1499982e-10 
1.6145606e-10 8.6349861e-09 1.3102878e-09 
1.0281691e-10 3.1110081e-10 5.6036986e-10 
-6.7418400e-09 1.6278678e-07 -5.3085369e-08 
-8.4294072e-10 1.6172089e-08 4.2385206e-09 
2.7250690e-07 -3.8694075e-06 -4.2574752e-07 
-7.0250820e-08 -7.9120817e-08 -8.3995621e-07 
3.0717648e-09 2.2111474e-08 -9.6666417e-09 
3.7751482e-10 2.1903469e-10 -1.7059809e-09 
-3.0191871e-09 7.2918958e-08 -1.5704268e-10 
-5.8782706e-10 3.3724687e-09 1.8886503e-09 
8.9150006e-08 -1.1664549e-07 -4.5707287e-07 
7.7136336e-10 1.4344254e-09 -1.6756153e-09 
-3.9478083e-09 5.2008190e-08 8.7157623e-09 
3.8127432e-10 1.7718427e-09 -2.3038821e-10 
4.5830404e-08 -2.9687468e-08 -1.5913190e-07 
-7.6939436e-08 -7.5755099e-07 -2.5811337e-07 
-2.0335555e-08 2.8968196e-07 2.2584411e-08 
-5.5293934e-09 1.5592838e-07 1.8739495e-08 
-2.8456769e-08 8.4615699e-08 -6.7117227e-08 
3.0808778e-07 -2.8486763e-06 -1.8076983e-06 
3.0735581e-10 -5.1377425e-10 -3.5687081e-10 
9.9276221e-10 2.0641703e-08 9.7884156e-10 
-1.4399526e-09 8.2786231e-09 5.2857180e-10 
-7.1125412e-09 7.2770611e-08 1.0890806e-08 
6.1999619e-09 3.5130167e-08 -5.3378663e-08 
7.7837148e-10 2.8239109e-09 -3.8113259e-09 
-5.7896070e-08 1.4525359e-06 -2.3793795e-07 
-3.2862242e-09 1.6141602e-08 3.1051113e-09 
-3.3100829e-08 -1.3814328e-07 6.3932816e-08 