# vtk DataFile Version 4.0
vtk output
ASCII
DATASET UNSTRUCTURED_GRID
POINTS 460 float
0.0000000e+00 0.0000000e+00 0.0000000e+00 
5.0000000e+00 0.0000000e+00 0.0000000e+00 
5.0000000e+00 3.0000000e+00 0.0000000e+00 
0.0000000e+00 3.0000000e+00 0.0000000e+00 
0.0000000e+00 0.0000000e+00 1.0000000e+01 
5.0000000e+00 0.0000000e+00 1.0000000e+01 
5.0000000e+00 3.0000000e+00 1.0000000e+01 
0.0000000e+00 3.0000000e+00 1.0000000e+01 
1.0000000e+00 3.0000000e+00 -5.0000000e+00 
1.0000000e+00 3.0000000e+00 -4.5000000e+00 
1.0000000e+00 3.0000000e+00 -4.0000000e+00 
1.0000000e+00 3.0000000e+00 -3.5000000e+00 
1.0000000e+00 3.0000000e+00 -3.0000000e+00 
1.0000000e+00 3.0000000e+00 -2.5000000e+00 
1.0000000e+00 3.0000000e+00 -2.0000000e+00 
1.0000000e+00 3.0000000e+00 -1.5000000e+00 
1.0000000e+00 3.0000000e+00 -1.0000000e+00 
1.0000000e+00 3.0000000e+00 -5.0000000e-01 
1.0000000e+00 3.0000000e+00 0.0000000e+00 
1.0000000e+00 3.0000000e+00 5.0000000e-01 
1.0000000e+00 3.0000000e+00 1.0000000e+00 
1.0000000e+00 3.0000000e+00 1.5000000e+00 
1.0000000e+00 3.0000000e+00 2.0000000e+00 
1.0000000e+00 3.0000000e+00 2.5000000e+00 
1.0000000e+00 3.0000000e+00 3.0000000e+00 
1.0000000e+00 3.0000000e+00 3.5000000e+00 
1.0000000e+00 3.0000000e+00 4.0000000e+00 
1.0000000e+00 3.0000000e+00 4.5000000e+00 
1.0000000e+00 3.0000000e+00 5.0000000e+00 
1.0000000e+00 3.0000000e+00 5.5000000e+00 
1.0000000e+00 3.0000000e+00 6.0000000e+00 
1.0000000e+00 3.0000000e+00 6.5000000e+00 
1.0000000e+00 3.0000000e+00 7.0000000e+00 
1.0000000e+00 3.0000000e+00 7.5000000e+00 
1.0000000e+00 3.0000000e+00 8.0000000e+00 
1.0000000e+00 3.0000000e+00 8.5000000e+00 
1.0000000e+00 3.0000000e+00 9.0000000e+00 
1.0000000e+00 3.0000000e+00 9.5000000e+00 
1.0000000e+00 3.0000000e+00 1.0000000e+01 
1.0000000e+00 3.0000000e+00 1.0500000e+01 
1.0000000e+00 3.0000000e+00 1.1000000e+01 
1.0000000e+00 3.0000000e+00 1.1500000e+01 
1.0000000e+00 3.0000000e+00 1.2000000e+01 
1.0000000e+00 3.0000000e+00 1.2500000e+01 
1.0000000e+00 3.0000000e+00 1.3000000e+01 
1.0000000e+00 3.0000000e+00 1.3500000e+01 
1.0000000e+00 3.0000000e+00 1.4000000e+01 
1.0000000e+00 3.0000000e+00 1.4500000e+01 
1.0000000e+00 3.0250001e+00 -5.0000000e+00 
1.0000000e+00 3.0250001e+00 -4.5000000e+00 
1.0000000e+00 3.0250001e+00 -4.0000000e+00 
1.0000000e+00 3.0250001e+00 -3.5000000e+00 
1.0000000e+00 3.0250001e+00 -3.0000000e+00 
1.0000000e+00 3.0250001e+00 -2.5000000e+00 
1.0000000e+00 3.0250001e+00 -2.0000000e+00 
1.0000000e+00 3.0250001e+00 -1.5000000e+00 
1.0000000e+00 3.0250001e+00 -1.0000000e+00 
1.0000000e+00 3.0250001e+00 -5.0000000e-01 
1.0000000e+00 3.0250001e+00 0.0000000e+00 
1.0000000e+00 3.0250001e+00 5.0000000e-01 
1.0000000e+00 3.0250001e+00 1.0000000e+00 
1.0000000e+00 3.0250001e+00 1.5000000e+00 
1.0000000e+00 3.0250001e+00 2.0000000e+00 
1.0000000e+00 3.0250001e+00 2.5000000e+00 
1.0000000e+00 3.0250001e+00 3.0000000e+00 
1.0000000e+00 3.0250001e+00 3.5000000e+00 
1.0000000e+00 3.0250001e+00 4.0000000e+00 
1.0000000e+00 3.0250001e+00 4.5000000e+00 
1.0000000e+00 3.0250001e+00 5.0000000e+00 
1.0000000e+00 3.0250001e+00 5.5000000e+00 
1.0000000e+00 3.0250001e+00 6.0000000e+00 
1.0000000e+00 3.0250001e+00 6.5000000e+00 
1.0000000e+00 3.0250001e+00 7.0000000e+00 
1.0000000e+00 3.0250001e+00 7.5000000e+00 
1.0000000e+00 3.0250001e+00 8.0000000e+00 
1.0000000e+00 3.0250001e+00 8.5000000e+00 
1.0000000e+00 3.0250001e+00 9.0000000e+00 
1.0000000e+00 3.0250001e+00 9.5000000e+00 
1.0000000e+00 3.0250001e+00 1.0000000e+01 
1.0000000e+00 3.0250001e+00 1.0500000e+01 
1.0000000e+00 3.0250001e+00 1.1000000e+01 
1.0000000e+00 3.0250001e+00 1.1500000e+01 
1.0000000e+00 3.0250001e+00 1.2000000e+01 
1.0000000e+00 3.0250001e+00 1.2500000e+01 
1.0000000e+00 3.0250001e+00 1.3000000e+01 
1.0000000e+00 3.0250001e+00 1.3500000e+01 
1.0000000e+00 3.0250001e+00 1.4000000e+01 
1.0000000e+00 3.0250001e+00 1.4500000e+01 
1.0000000e+00 -2.0000000e+00 -5.0000000e+00 
1.0000000e+00 -2.0000000e+00 -4.5000000e+00 
1.0000000e+00 -2.0000000e+00 -4.0000000e+00 
1.0000000e+00 -2.0000000e+00 -3.5000000e+00 
1.0000000e+00 -2.0000000e+00 -3.0000000e+00 
1.0000000e+00 -2.0000000e+00 -2.5000000e+00 
1.0000000e+00 -2.0000000e+00 -2.0000000e+00 
1.0000000e+00 -2.0000000e+00 -1.5000000e+00 
1.0000000e+00 -2.0000000e+00 -1.0000000e+00 
1.0000000e+00 -2.0000000e+00 -5.0000000e-01 
1.0000000e+00 -2.0000000e+00 1.0500000e+01 
1.0000000e+00 -2.0000000e+00 1.1000000e+01 
1.0000000e+00 -2.0000000e+00 1.1500000e+01 
1.0000000e+00 -2.0000000e+00 1.2000000e+01 
1.0000000e+00 -2.0000000e+00 1.2500000e+01 
1.0000000e+00 -2.0000000e+00 1.3000000e+01 
1.0000000e+00 -2.0000000e+00 1.3500000e+01 
1.0000000e+00 -2.0000000e+00 1.4000000e+01 
1.0000000e+00 -2.0000000e+00 1.4500000e+01 
1.0000000e+00 0.0000000e+00 0.0000000e+00 
2.0000000e+00 0.0000000e+00 0.0000000e+00 
3.0000000e+00 0.0000000e+00 0.0000000e+00 
4.0000000e+00 0.0000000e+00 0.0000000e+00 
5.0000000e+00 1.0000000e+00 0.0000000e+00 
5.0000000e+00 2.0000000e+00 0.0000000e+00 
0.0000000e+00 2.0000000e+00 0.0000000e+00 
0.0000000e+00 1.0000000e+00 0.0000000e+00 
0.0000000e+00 0.0000000e+00 1.0000000e+00 
0.0000000e+00 0.0000000e+00 2.0000000e+00 
0.0000000e+00 0.0000000e+00 3.0000000e+00 
0.0000000e+00 0.0000000e+00 4.0000000e+00 
0.0000000e+00 0.0000000e+00 5.0000000e+00 
0.0000000e+00 0.0000000e+00 6.0000000e+00 
0.0000000e+00 0.0000000e+00 7.0000000e+00 
0.0000000e+00 0.0000000e+00 8.0000000e+00 
0.0000000e+00 0.0000000e+00 9.0000000e+00 
5.0000000e+00 0.0000000e+00 1.0000000e+00 
5.0000000e+00 0.0000000e+00 2.0000000e+00 
5.0000000e+00 0.0000000e+00 3.0000000e+00 
5.0000000e+00 0.0000000e+00 4.0000000e+00 
5.0000000e+00 0.0000000e+00 5.0000000e+00 
5.0000000e+00 0.0000000e+00 6.0000000e+00 
5.0000000e+00 0.0000000e+00 7.0000000e+00 
5.0000000e+00 0.0000000e+00 8.0000000e+00 
5.0000000e+00 0.0000000e+00 9.0000000e+00 
1.0000000e+00 0.0000000e+00 1.0000000e+01 
2.0000000e+00 0.0000000e+00 1.0000000e+01 
3.0000000e+00 0.0000000e+00 1.0000000e+01 
4.0000000e+00 0.0000000e+00 1.0000000e+01 
5.0000000e+00 3.0000000e+00 1.0000000e+00 
5.0000000e+00 3.0000000e+00 2.0000000e+00 
5.0000000e+00 3.0000000e+00 3.0000000e+00 
5.0000000e+00 3.0000000e+00 4.0000000e+00 
5.0000000e+00 3.0000000e+00 5.0000000e+00 
5.0000000e+00 3.0000000e+00 6.0000000e+00 
5.0000000e+00 3.0000000e+00 7.0000000e+00 
5.0000000e+00 3.0000000e+00 8.0000000e+00 
5.0000000e+00 3.0000000e+00 9.0000000e+00 
5.0000000e+00 1.0000000e+00 1.0000000e+01 
5.0000000e+00 2.0000000e+00 1.0000000e+01 
0.0000000e+00 3.0000000e+00 1.0000000e+00 
0.0000000e+00 3.0000000e+00 2.0000000e+00 
0.0000000e+00 3.0000000e+00 3.0000000e+00 
0.0000000e+00 3.0000000e+00 4.0000000e+00 
0.0000000e+00 3.0000000e+00 5.0000000e+00 
0.0000000e+00 3.0000000e+00 6.0000000e+00 
0.0000000e+00 3.0000000e+00 7.0000000e+00 
0.0000000e+00 3.0000000e+00 8.0000000e+00 
0.0000000e+00 3.0000000e+00 9.0000000e+00 
0.0000000e+00 2.0000000e+00 1.0000000e+01 
0.0000000e+00 1.0000000e+00 1.0000000e+01 
4.0000000e+00 3.0000000e+00 0.0000000e+00 
3.0000000e+00 3.0000000e+00 0.0000000e+00 
2.0000000e+00 3.0000000e+00 0.0000000e+00 
4.0000000e+00 3.0000000e+00 1.0000000e+01 
3.0000000e+00 3.0000000e+00 1.0000000e+01 
2.0000000e+00 3.0000000e+00 1.0000000e+01 
4.0618000e+00 1.5000000e+00 0.0000000e+00 
1.5046000e+00 7.6549745e-01 0.0000000e+00 
2.5000000e+00 2.1339746e+00 0.0000000e+00 
1.5046000e+00 2.2345026e+00 0.0000000e+00 
2.4957771e+00 8.1560516e-01 0.0000000e+00 
3.4707544e+00 2.2336540e+00 0.0000000e+00 
3.4700506e+00 7.5794268e-01 0.0000000e+00 
8.6322361e-01 1.5000000e+00 0.0000000e+00 
2.0000000e+00 1.5000000e+00 0.0000000e+00 
2.9960666e+00 1.4974480e+00 0.0000000e+00 
4.2679491e+00 7.3205084e-01 0.0000000e+00 
4.2679491e+00 2.2679491e+00 0.0000000e+00 
7.2695929e-01 2.2730408e+00 0.0000000e+00 
7.2695929e-01 7.2695929e-01 0.0000000e+00 
4.1822505e+00 0.0000000e+00 2.5515697e+00 
4.2017918e+00 0.0000000e+00 4.4725966e+00 
4.1114569e+00 0.0000000e+00 6.5092020e+00 
8.6602539e-01 0.0000000e+00 3.5000000e+00 
8.4778279e-01 0.0000000e+00 5.4684029e+00 
8.9629614e-01 0.0000000e+00 7.5867257e+00 
2.5566745e+00 0.0000000e+00 8.1853306e-01 
2.4918270e+00 0.0000000e+00 9.1386929e+00 
8.4677207e-01 0.0000000e+00 1.5042374e+00 
4.0943027e+00 0.0000000e+00 8.4081745e+00 
8.6281651e-01 0.0000000e+00 2.5007062e+00 
1.7315160e+00 0.0000000e+00 3.0001178e+00 
1.7319617e+00 0.0000000e+00 4.0000196e+00 
2.5980761e+00 0.0000000e+00 3.5000000e+00 
2.5536871e+00 0.0000000e+00 4.4963923e+00 
2.5928419e+00 0.0000000e+00 2.4239938e+00 
1.5037409e+00 0.0000000e+00 9.1535149e+00 
1.8433737e+00 0.0000000e+00 8.1858873e+00 
3.0000000e+00 0.0000000e+00 8.2679491e+00 
2.5000000e+00 0.0000000e+00 7.4019237e+00 
3.5042722e+00 0.0000000e+00 7.4271150e+00 
3.0310018e+00 0.0000000e+00 6.5282087e+00 
2.0373929e+00 0.0000000e+00 6.5307913e+00 
3.4767809e+00 0.0000000e+00 5.8031492e+00 
2.5452602e+00 0.0000000e+00 5.5720768e+00 
1.6456656e+00 0.0000000e+00 1.9697139e+00 
8.6297011e-01 0.0000000e+00 4.4947371e+00 
1.0111579e+00 0.0000000e+00 6.5282545e+00 
3.4994321e+00 0.0000000e+00 8.4691072e-01 
4.1860156e+00 0.0000000e+00 3.5040276e+00 
1.7320508e+00 0.0000000e+00 5.0000000e+00 
4.0544066e+00 0.0000000e+00 1.5781221e+00 
1.5817389e+00 0.0000000e+00 9.3943578e-01 
8.3166349e-01 0.0000000e+00 8.5090933e+00 
3.4686174e+00 0.0000000e+00 9.1752682e+00 
3.0709300e+00 0.0000000e+00 1.5799091e+00 
3.3927374e+00 0.0000000e+00 3.0399952e+00 
3.3826034e+00 0.0000000e+00 3.9747651e+00 
4.3420062e+00 0.0000000e+00 7.4688983e+00 
3.4023225e+00 0.0000000e+00 4.9314723e+00 
1.6740381e+00 0.0000000e+00 7.3014426e+00 
4.2715640e+00 0.0000000e+00 5.4758859e+00 
1.6225953e+00 0.0000000e+00 5.8104177e+00 
4.2679491e+00 0.0000000e+00 9.2679491e+00 
7.3205084e-01 0.0000000e+00 7.3205084e-01 
4.2679491e+00 0.0000000e+00 7.3205084e-01 
7.3205084e-01 0.0000000e+00 9.2679491e+00 
3.4586334e+00 0.0000000e+00 2.2347178e+00 
2.2895701e+00 0.0000000e+00 1.5463171e+00 
5.0000000e+00 2.2345026e+00 1.5046000e+00 
[...]
POINT_DATA 460
FIELD FieldData 2
DISPLACEMENT 3 460  float
0.0000000e+00 0.0000000e+00 0.0000000e+00 
0.0000000e+00 0.0000000e+00 0.0000000e+00 
0.0000000e+00 4.3121355e-07 0.0000000e+00 
0.0000000e+00 -9.7482962e-07 0.0000000e+00 
0.0000000e+00 0.0000000e+00 0.0000000e+00 
0.0000000e+00 0.0000000e+00 0.0000000e+00 
0.0000000e+00 4.3389548e-07 0.0000000e+00 
0.0000000e+00 -7.2739965e-07 0.0000000e+00 
0.0000000e+00 1.5946385e-06 0.0000000e+00 
0.0000000e+00 1.5847023e-06 0.0000000e+00 
0.0000000e+00 1.5522127e-06 0.0000000e+00 
0.0000000e+00 1.4938822e-06 0.0000000e+00 
0.0000000e+00 1.4068920e-06 0.0000000e+00 
0.0000000e+00 1.2880621e-06 0.0000000e+00 
0.0000000e+00 1.1331317e-06 0.0000000e+00 
0.0000000e+00 9.3673572e-07 0.0000000e+00 
0.0000000e+00 6.9391217e-07 0.0000000e+00 
0.0000000e+00 4.0415321e-07 0.0000000e+00 
0.0000000e+00 7.0508825e-08 0.0000000e+00 
-3.1815995e-07 -3.0228486e-07 1.2110009e-06 
-8.7370876e-07 -9.8619648e-07 3.1606351e-06 
-1.1669524e-06 -2.5725587e-06 4.6582468e-06 
-2.1339611e-06 -6.6909633e-06 7.3358460e-06 
-3.4527704e-06 -1.7281587e-05 9.6360400e-06 
-3.9435645e-06 -4.1127278e-05 1.1320145e-05 
-5.6988602e-06 -8.6955428e-05 1.6028380e-05 
-6.4239816e-06 -1.5860776e-04 8.9101914e-06 
-1.7685550e-05 -2.3433086e-04 1.4606880e-05 
-1.1852756e-05 -2.4877430e-04 -3.3817125e-06 
-1.3658097e-06 -1.8355162e-04 -1.9042687e-05 
-5.4196662e-06 -1.0485496e-04 -1.0183864e-05 
-3.2968371e-06 -4.9682465e-05 -1.1881900e-05 
-3.5105725e-06 -2.0101985e-05 -1.2089673e-05 
-2.3114933e-06 -6.9827820e-06 -7.3882106e-06 
-1.6401846e-06 -2.1541557e-06 -4.9905116e-06 
-7.0935772e-07 -7.3049620e-07 -2.5996010e-06 
-3.7266202e-07 -3.9934073e-07 -1.6162844e-06 
-2.3168207e-07 -3.1397187e-07 -8.1556152e-07 
0.0000000e+00 -2.7783821e-07 0.0000000e+00 
0.0000000e+00 -2.2096940e-07 0.0000000e+00 
0.0000000e+00 -1.5832886e-07 0.0000000e+00 
0.0000000e+00 -9.9976440e-08 0.0000000e+00 
0.0000000e+00 -5.1514739e-08 0.0000000e+00 
0.0000000e+00 -1.4297414e-08 0.0000000e+00 
0.0000000e+00 1.2330692e-08 0.0000000e+00 
0.0000000e+00 2.9752579e-08 0.0000000e+00 
0.0000000e+00 3.9401893e-08 0.0000000e+00 
0.0000000e+00 4.2430983e-08 0.0000000e+00 
0.0000000e+00 1.5960765e-06 0.0000000e+00 
0.0000000e+00 1.5860861e-06 0.0000000e+00 
0.0000000e+00 1.5534288e-06 0.0000000e+00 
0.0000000e+00 1.4949733e-06 0.0000000e+00 
0.0000000e+00 1.4079338e-06 0.0000000e+00 
0.0000000e+00 1.2890439e-06 0.0000000e+00 
0.0000000e+00 1.1339805e-06 0.0000000e+00 
0.0000000e+00 9.3736224e-07 0.0000000e+00 
0.0000000e+00 6.9421151e-07 0.0000000e+00 
0.0000000e+00 4.0400417e-07 0.0000000e+00 
0.0000000e+00 7.8390563e-08 0.0000000e+00 
0.0000000e+00 -2.9935822e-07 0.0000000e+00 
0.0000000e+00 -9.6345298e-07 0.0000000e+00 
0.0000000e+00 -2.5057639e-06 0.0000000e+00 
0.0000000e+00 -6.5951199e-06 0.0000000e+00 
0.0000000e+00 -1.7160502e-05 0.0000000e+00 
0.0000000e+00 -4.1110619e-05 0.0000000e+00 
0.0000000e+00 -8.7463144e-05 0.0000000e+00 
0.0000000e+00 -1.6040877e-04 0.0000000e+00 
0.0000000e+00 -2.3731544e-04 0.0000000e+00 
0.0000000e+00 -2.5308170e-04 0.0000000e+00 
0.0000000e+00 -1.8630938e-04 0.0000000e+00 
0.0000000e+00 -1.0613316e-04 0.0000000e+00 
0.0000000e+00 -5.0078183e-05 0.0000000e+00 
0.0000000e+00 -2.0042657e-05 0.0000000e+00 
0.0000000e+00 -6.8512386e-06 0.0000000e+00 
0.0000000e+00 -2.0594991e-06 0.0000000e+00 
0.0000000e+00 -6.7818632e-07 0.0000000e+00 
0.0000000e+00 -3.7659885e-07 0.0000000e+00 
0.0000000e+00 -3.0996193e-07 0.0000000e+00 
0.0000000e+00 -2.7520815e-07 0.0000000e+00 
0.0000000e+00 -2.2143540e-07 0.0000000e+00 
0.0000000e+00 -1.5858632e-07 0.0000000e+00 
0.0000000e+00 -1.0009753e-07 0.0000000e+00 
0.0000000e+00 -5.1560818e-08 0.0000000e+00 
0.0000000e+00 -1.4309880e-08 0.0000000e+00 
0.0000000e+00 1.2328774e-08 0.0000000e+00 
0.0000000e+00 2.9751002e-08 0.0000000e+00 
0.0000000e+00 3.9397957e-08 0.0000000e+00 
0.0000000e+00 4.2425803e-08 0.0000000e+00 
0.0000000e+00 0.0000000e+00 0.0000000e+00 
0.0000000e+00 0.0000000e+00 0.0000000e+00 
0.0000000e+00 0.0000000e+00 0.0000000e+00 
0.0000000e+00 0.0000000e+00 0.0000000e+00 
0.0000000e+00 0.0000000e+00 0.0000000e+00 
0.0000000e+00 0.0000000e+00 0.0000000e+00 
0.0000000e+00 0.0000000e+00 0.0000000e+00 
0.0000000e+00 0.0000000e+00 0.0000000e+00 
0.0000000e+00 0.0000000e+00 0.0000000e+00 
0.0000000e+00 0.0000000e+00 0.0000000e+00 
0.0000000e+00 0.0000000e+00 0.0000000e+00 
0.0000000e+00 0.0000000e+00 0.0000000e+00 
0.0000000e+00 0.0000000e+00 0.0000000e+00 
0.0000000e+00 0.0000000e+00 0.0000000e+00 
0.0000000e+00 0.0000000e+00 0.0000000e+00 
0.0000000e+00 0.0000000e+00 0.0000000e+00 
0.0000000e+00 0.0000000e+00 0.0000000e+00 
0.0000000e+00 0.0000000e+00 0.0000000e+00 
0.0000000e+00 0.0000000e+00 0.0000000e+00 
0.0000000e+00 0.0000000e+00 0.0000000e+00 
0.0000000e+00 0.0000000e+00 0.0000000e+00 
0.0000000e+00 0.0000000e+00 0.0000000e+00 
0.0000000e+00 0.0000000e+00 0.0000000e+00 
0.0000000e+00 1.5473402e-07 0.0000000e+00 
0.0000000e+00 3.7021465e-07 0.0000000e+00 
0.0000000e+00 -9.5250806e-07 0.0000000e+00 
0.0000000e+00 -6.7520511e-07 0.0000000e+00 
0.0000000e+00 0.0000000e+00 0.0000000e+00 
0.0000000e+00 0.0000000e+00 0.0000000e+00 
0.0000000e+00 0.0000000e+00 0.0000000e+00 
0.0000000e+00 0.0000000e+00 0.0000000e+00 
0.0000000e+00 0.0000000e+00 0.0000000e+00 
0.0000000e+00 0.0000000e+00 0.0000000e+00 
0.0000000e+00 0.0000000e+00 0.0000000e+00 
0.0000000e+00 0.0000000e+00 0.0000000e+00 
0.0000000e+00 0.0000000e+00 0.0000000e+00 
0.0000000e+00 0.0000000e+00 0.0000000e+00 
0.0000000e+00 0.0000000e+00 0.0000000e+00 
0.0000000e+00 0.0000000e+00 0.0000000e+00 
0.0000000e+00 0.0000000e+00 0.0000000e+00 
0.0000000e+00 0.0000000e+00 0.0000000e+00 
0.0000000e+00 0.0000000e+00 0.0000000e+00 
0.0000000e+00 0.0000000e+00 0.0000000e+00 
0.0000000e+00 0.0000000e+00 0.0000000e+00 
0.0000000e+00 0.0000000e+00 0.0000000e+00 
0.0000000e+00 0.0000000e+00 0.0000000e+00 
0.0000000e+00 0.0000000e+00 0.0000000e+00 
0.0000000e+00 0.0000000e+00 0.0000000e+00 
0.0000000e+00 0.0000000e+00 0.0000000e+00 
0.0000000e+00 2.6019319e-07 0.0000000e+00 
0.0000000e+00 1.5465207e-07 0.0000000e+00 
0.0000000e+00 -8.4424431e-07 0.0000000e+00 
0.0000000e+00 -9.1072053e-07 0.0000000e+00 
0.0000000e+00 -1.5813395e-06 0.0000000e+00 
0.0000000e+00 2.6175175e-07 0.0000000e+00 
0.0000000e+00 -3.1244454e-07 0.0000000e+00 
0.0000000e+00 4.0311957e-07 0.0000000e+00 
0.0000000e+00 3.5395840e-07 0.0000000e+00 
0.0000000e+00 1.2695295e-07 0.0000000e+00 
0.0000000e+00 3.5200284e-07 0.0000000e+00 
0.0000000e+00 -2.7114695e-06 0.0000000e+00 
0.0000000e+00 -1.1082169e-05 0.0000000e+00 
0.0000000e+00 -3.7044156e-05 0.0000000e+00 
0.0000000e+00 -8.1036516e-05 0.0000000e+00 
0.0000000e+00 -9.7080825e-05 0.0000000e+00 
0.0000000e+00 -5.8674061e-05 0.0000000e+00 
0.0000000e+00 -2.3394916e-05 0.0000000e+00 
0.0000000e+00 -6.3407792e-06 0.0000000e+00 
0.0000000e+00 -1.6758829e-06 0.0000000e+00 
0.0000000e+00 -7.0391468e-07 0.0000000e+00 
0.0000000e+00 -4.8467598e-07 0.0000000e+00 
0.0000000e+00 4.6845136e-07 0.0000000e+00 
0.0000000e+00 6.6501386e-08 0.0000000e+00 
0.0000000e+00 -3.1933814e-07 0.0000000e+00 
0.0000000e+00 3.0836421e-07 0.0000000e+00 
0.0000000e+00 1.8716753e-08 0.0000000e+00 
0.0000000e+00 -1.3174160e-07 0.0000000e+00 
0.0000000e+00 3.6584728e-07 0.0000000e+00 
0.0000000e+00 -3.3532743e-07 0.0000000e+00 
0.0000000e+00 4.6139306e-07 0.0000000e+00 
0.0000000e+00 2.5909267e-07 0.0000000e+00 
0.0000000e+00 9.9784625e-09 0.0000000e+00 
0.0000000e+00 5.9634135e-07 0.0000000e+00 
0.0000000e+00 -6.1874701e-08 0.0000000e+00 
0.0000000e+00 -2.1728114e-07 0.0000000e+00 
0.0000000e+00 1.5474731e-07 0.0000000e+00 
0.0000000e+00 2.8525159e-07 0.0000000e+00 
0.0000000e+00 1.3181126e-07 0.0000000e+00 
0.0000000e+00 5.0724799e-07 0.0000000e+00 
0.0000000e+00 -2.4034537e-07 0.0000000e+00 
0.0000000e+00 -2.5818193e-07 0.0000000e+00 
0.0000000e+00 0.0000000e+00 0.0000000e+00 
0.0000000e+00 0.0000000e+00 0.0000000e+00 
0.0000000e+00 0.0000000e+00 0.0000000e+00 
0.0000000e+00 0.0000000e+00 0.0000000e+00 
0.0000000e+00 0.0000000e+00 0.0000000e+00 
0.0000000e+00 0.0000000e+00 0.0000000e+00 
0.0000000e+00 0.0000000e+00 0.0000000e+00 
0.0000000e+00 0.0000000e+00 0.0000000e+00 
0.0000000e+00 0.0000000e+00 0.0000000e+00 
0.0000000e+00 0.0000000e+00 0.0000000e+00 
0.0000000e+00 0.0000000e+00 0.0000000e+00 
0.0000000e+00 0.0000000e+00 0.0000000e+00 
0.0000000e+00 0.0000000e+00 0.0000000e+00 
0.0000000e+00 0.0000000e+00 0.0000000e+00 
0.0000000e+00 0.0000000e+00 0.0000000e+00 
0.0000000e+00 0.0000000e+00 0.0000000e+00 
0.0000000e+00 0.0000000e+00 0.0000000e+00 
0.0000000e+00 0.0000000e+00 0.0000000e+00 
0.0000000e+00 0.0000000e+00 0.0000000e+00 
0.0000000e+00 0.0000000e+00 0.0000000e+00 
0.0000000e+00 0.0000000e+00 0.0000000e+00 
0.0000000e+00 0.0000000e+00 0.0000000e+00 
0.0000000e+00 0.0000000e+00 0.0000000e+00 
0.0000000e+00 0.0000000e+00 0.0000000e+00 
0.0000000e+00 0.0000000e+00 0.0000000e+00 
0.0000000e+00 0.0000000e+00 0.0000000e+00 
0.0000000e+00 0.0000000e+00 0.0000000e+00 
0.0000000e+00 0.0000000e+00 0.0000000e+00 
0.0000000e+00 0.0000000e+00 0.0000000e+00 
0.0000000e+00 0.0000000e+00 0.0000000e+00 
0.0000000e+00 0.0000000e+00 0.0000000e+00 
0.0000000e+00 0.0000000e+00 0.0000000e+00 
0.0000000e+00 0.0000000e+00 0.0000000e+00 
0.0000000e+00 0.0000000e+00 0.0000000e+00 
0.0000000e+00 0.0000000e+00 0.0000000e+00 
0.0000000e+00 0.0000000e+00 0.0000000e+00 
0.0000000e+00 0.0000000e+00 0.0000000e+00 
0.0000000e+00 0.0000000e+00 0.0000000e+00 
0.0000000e+00 0.0000000e+00 0.0000000e+00 
0.0000000e+00 0.0000000e+00 0.0000000e+00 
0.0000000e+00 0.0000000e+00 0.0000000e+00 
0.0000000e+00 0.0000000e+00 0.0000000e+00 
0.0000000e+00 0.0000000e+00 0.0000000e+00 
0.0000000e+00 0.0000000e+00 0.0000000e+00 
0.0000000e+00 0.0000000e+00 0.0000000e+00 
0.0000000e+00 0.0000000e+00 0.0000000e+00 
0.0000000e+00 0.0000000e+00 0.0000000e+00 
0.0000000e+00 0.0000000e+00 0.0000000e+00 
0.0000000e+00 0.0000000e+00 0.0000000e+00 
0.0000000e+00 2.4495364e-07 0.0000000e+00 
0.0000000e+00 2.0980086e-07 0.0000000e+00 
0.0000000e+00 -4.4196585e-07 0.0000000e+00 
0.0000000e+00 -1.0176571e-07 0.0000000e+00 
0.0000000e+00 3.6590970e-07 0.0000000e+00 
0.0000000e+00 -3.2761474e-07 0.0000000e+00 
0.0000000e+00 -8.0072374e-07 0.0000000e+00 
0.0000000e+00 -6.0831445e-07 0.0000000e+00 
0.0000000e+00 -7.0793942e-07 0.0000000e+00 
0.0000000e+00 -7.1462154e-07 0.0000000e+00 
0.0000000e+00 -3.8540776e-08 0.0000000e+00 
0.0000000e+00 -8.2544688e-07 0.0000000e+00 
0.0000000e+00 9.6707474e-08 0.0000000e+00 
0.0000000e+00 -1.8963556e-07 0.0000000e+00 
0.0000000e+00 -1.9172161e-07 0.0000000e+00 
0.0000000e+00 1.7484027e-08 0.0000000e+00 
0.0000000e+00 3.7677020e-07 0.0000000e+00 
0.0000000e+00 2.2558977e-07 0.0000000e+00 
0.0000000e+00 -7.3869148e-07 0.0000000e+00 
0.0000000e+00 -1.2253471e-07 0.0000000e+00 
0.0000000e+00 -1.2818110e-07 0.0000000e+00 
0.0000000e+00 -4.0828482e-07 0.0000000e+00 
0.0000000e+00 -6.7976288e-07 0.0000000e+00 
0.0000000e+00 -5.7907715e-07 0.0000000e+00 
0.0000000e+00 2.1356104e-07 0.0000000e+00 
0.0000000e+00 4.2852440e-07 0.0000000e+00 
0.0000000e+00 4.9420358e-08 0.0000000e+00 
0.0000000e+00 3.9984039e-07 0.0000000e+00 
0.0000000e+00 1.8050072e-08 0.0000000e+00 
0.0000000e+00 -1.3537324e-06 0.0000000e+00 
0.0000000e+00 -2.2973331e-06 0.0000000e+00 
0.0000000e+00 -8.4745761e-06 0.0000000e+00 
0.0000000e+00 -2.4970055e-05 0.0000000e+00 
0.0000000e+00 -5.8422679e-06 0.0000000e+00 
0.0000000e+00 -4.9615690e-05 0.0000000e+00 
0.0000000e+00 -6.7412533e-05 0.0000000e+00 
0.0000000e+00 -1.2346903e-05 0.0000000e+00 
0.0000000e+00 -1.8671359e-05 0.0000000e+00 
0.0000000e+00 -1.9794341e-05 0.0000000e+00 
0.0000000e+00 -8.3093932e-05 0.0000000e+00 
0.0000000e+00 -3.6031066e-05 0.0000000e+00 
0.0000000e+00 -3.2640095e-05 0.0000000e+00 
0.0000000e+00 -3.4656364e-06 0.0000000e+00 
0.0000000e+00 -5.9705253e-06 0.0000000e+00 
0.0000000e+00 -3.3215704e-06 0.0000000e+00 
0.0000000e+00 -1.9430277e-06 0.0000000e+00 
0.0000000e+00 -5.0862964e-05 0.0000000e+00 
0.0000000e+00 -1.1285315e-05 0.0000000e+00 
0.0000000e+00 -4.4268330e-05 0.0000000e+00 
0.0000000e+00 -2.5040808e-05 0.0000000e+00 
0.0000000e+00 -1.5895443e-05 0.0000000e+00 
0.0000000e+00 -2.1674774e-05 0.0000000e+00 
0.0000000e+00 -5.0759172e-06 0.0000000e+00 
0.0000000e+00 -9.1728616e-06 0.0000000e+00 
0.0000000e+00 -7.6861710e-07 0.0000000e+00 
0.0000000e+00 -1.9108675e-06 0.0000000e+00 
0.0000000e+00 -1.3215764e-06 0.0000000e+00 
0.0000000e+00 -1.2113870e-06 0.0000000e+00 
0.0000000e+00 -3.0985677e-07 0.0000000e+00 
0.0000000e+00 2.1994558e-07 0.0000000e+00 
0.0000000e+00 1.6791898e-07 0.0000000e+00 
0.0000000e+00 8.5915410e-08 0.0000000e+00 
0.0000000e+00 -2.2078603e-07 0.0000000e+00 
0.0000000e+00 4.0854073e-07 0.0000000e+00 
0.0000000e+00 3.3666417e-08 0.0000000e+00 
0.0000000e+00 -2.6931764e-07 0.0000000e+00 
0.0000000e+00 -5.8923192e-08 0.0000000e+00 
0.0000000e+00 1.8426933e-07 0.0000000e+00 
0.0000000e+00 4.3797915e-08 0.0000000e+00 
0.0000000e+00 4.7782049e-07 0.0000000e+00 
0.0000000e+00 -2.7252472e-07 0.0000000e+00 
0.0000000e+00 -2.8686731e-07 0.0000000e+00 
-1.3633829e-05 -1.0735141e-04 -1.2752089e-06 
-8.6837827e-06 -4.7447367e-05 -1.1061207e-05 
-2.4174947e-06 -5.4961106e-06 -5.9439722e-06 
-3.5999831e-06 -1.3173017e-05 8.4642261e-06 
-6.1249311e-06 -4.6464440e-05 1.0520691e-05 
-3.5005708e-06 -1.4977126e-06 -2.7176645e-07 
-1.3682809e-06 -1.0073372e-06 6.9479529e-07 
-1.5105711e-06 -4.7753764e-07 -9.7808731e-07 
-1.1682229e-06 -2.1822955e-06 3.4521836e-06 
-6.1616510e-07 -1.3532883e-06 -2.2108727e-06 
-7.7708023e-07 -1.2508863e-07 1.0322437e-06 
-4.7391862e-07 1.7316157e-07 -5.8742933e-07 
-2.0002608e-06 -1.1271006e-06 -1.2116847e-06 
-3.6995452e-06 -3.3104091e-06 -2.8913987e-06 
-2.0554141e-06 -2.0914738e-06 -2.3885141e-06 
-3.0448996e-06 -5.5196879e-06 -2.5328959e-06 
-5.3778199e-06 -1.1173018e-05 -3.2766159e-06 
-1.4014946e-06 -2.0579398e-06 -1.8534065e-06 
-4.7957915e-06 -1.2741554e-05 -7.3266247e-06 
-6.2491931e-06 -6.6711277e-06 -2.7625556e-06 
-5.8525034e-06 -8.2925144e-06 -1.5418691e-06 
-9.4932584e-06 -1.7792812e-05 -2.7208091e-06 
-1.1744982e-05 -2.5429756e-05 -1.7039458e-06 
-6.7278124e-06 -1.0685055e-05 8.0950923e-07 
-1.0207181e-05 -2.3494786e-05 2.8977984e-06 
-4.8230413e-06 -7.2229327e-06 1.6890117e-06 
-7.2879220e-06 -1.6816353e-05 5.7402108e-06 
-4.3836776e-06 -7.7454388e-06 3.5957848e-06 
-5.4883326e-06 -1.0314652e-05 5.4640113e-06 
-3.4069246e-06 -4.1316180e-06 3.1691793e-06 
-2.6220810e-06 -4.2328397e-06 3.9347883e-06 
-1.4495997e-05 -4.8555055e-05 -7.2238390e-06 
-1.1901718e-05 -3.2542208e-05 -6.6776547e-06 
-1.2054435e-05 -3.9206192e-05 7.2594735e-06 
-2.5164736e-06 -2.3089792e-06 9.8371845e-07 
-6.3865713e-07 -1.8371919e-07 -9.1394645e-07 
-1.3738534e-05 -4.9950631e-05 2.0871280e-06 
-2.9776295e-06 -2.7877936e-06 -2.5453789e-07 
-9.7262773e-07 -4.5454064e-07 1.5564283e-06 
-6.4187259e-07 2.0549518e-07 -6.0660756e-07 
-2.2839195e-06 -6.1441137e-06 -5.0621793e-06 
-1.7856903e-06 -2.8919858e-06 -3.7579086e-06 
-7.8311568e-06 -7.7352524e-05 -6.8932131e-06 
-7.5743088e-07 -1.1158037e-08 6.2190298e-07 
-5.2839005e-06 -2.2701854e-05 9.9020936e-06 
-6.3125590e-06 -2.4114963e-05 7.9725669e-06 
-1.0176958e-05 -8.1485407e-05 1.2742806e-05 
-1.1580340e-05 -1.0413420e-04 3.2938622e-06 
-5.0784192e-06 -2.6738393e-05 -9.4790003e-06 
-3.3822655e-06 -1.2169323e-05 -6.9370903e-06 
-6.7062939e-07 -4.0903606e-07 1.9220108e-06 
-2.0557493e-06 -6.1842115e-06 5.1871930e-06 
-4.5624273e-07 -2.4030285e-07 -1.1452593e-06 
-1.6471216e-06 -1.3000341e-06 2.1565372e-06 
-5.2473742e-06 -1.3023566e-05 8.0719647e-06 
-1.2648286e-06 -3.1278978e-06 -3.9493934e-06 
-6.9050025e-06 -2.1307416e-05 -7.3289257e-06 
-1.8699917e-06 -3.4674338e-06 4.0000491e-06 
-1.1568315e-05 -1.0955311e-04 -5.7580014e-06 
-1.0505873e-06 -5.5688946e-07 -1.3931779e-06 
-2.7703408e-07 4.0943871e-07 -3.3152025e-07 
-3.5171001e-07 3.3760810e-07 3.8182350e-07 
-4.5864558e-06 -5.5404203e-06 1.2502379e-06 
-3.0111901e-06 -6.9369903e-06 6.0353500e-06 
-8.3625548e-07 -8.3814541e-07 -1.6656098e-06 
-7.4151126e-06 -1.6865966e-05 -4.2547813e-06 
-1.5158543e-06 -1.0959974e-06 1.4654373e-06 
-2.7118811e-06 -3.2762512e-06 1.6948859e-06 
-9.3859285e-07 -9.8828855e-07 2.1864453e-06 
-1.9219409e-05 -6.0392915e-05 -2.1011642e-06 
-4.6664448e-07 -1.7179016e-07 -7.7878042e-07 
-1.2444044e-06 -1.4286663e-05 6.7820815e-06 
-5.5961220e-07 -7.6873084e-06 5.3236490e-06 
-1.7584380e-06 -3.0269028e-05 9.3491562e-06 
-2.7806254e-06 -4.9086502e-05 8.7162161e-06 
-5.4504181e-07 -3.3405477e-06 3.4300776e-06 
-1.2376115e-06 -7.8309837e-05 5.8696050e-06 
-6.0530047e-06 -1.0997270e-04 6.9811222e-06 
-1.1747476e-06 -1.2338435e-04 1.7840126e-06 
-1.1599075e-05 -1.2325059e-04 -6.8265317e-06 
-8.8514862e-06 -9.5773947e-05 -9.1822849e-06 
-5.3787053e-06 -6.4843931e-05 -7.3083884e-06 
-2.9060072e-06 -3.5632242e-05 -9.3499903e-06 
-1.1053946e-06 -1.7086151e-05 -6.3714979e-06 
-7.5324891e-07 -7.7047152e-06 -4.5021784e-06 
-4.4442780e-07 -4.3600426e-06 -3.2164544e-06 
-1.9599997e-07 -2.1424410e-06 -1.9976496e-06 
-1.6150780e-07 -8.5237446e-07 -9.7233556e-07 
-2.2744469e-07 -1.3343573e-06 1.5474560e-06 
1.6084236e-06 -6.7939905e-06 -4.0256682e-06 
6.7998244e-06 -2.6267404e-05 -5.9771764e-06 
9.7801885e-06 -3.4980389e-05 4.2940096e-06 
3.1760392e-06 -1.1084542e-05 5.1184138e-06 
5.4191298e-07 -1.8163873e-06 1.7709939e-06 
2.6941009e-06 -3.6539332e-06 -2.2883130e-06 
4.7282738e-06 -6.0646203e-06 -9.6329904e-07 
4.3969958e-06 -7.8954672e-06 2.4639126e-06 
8.8555007e-06 -7.1354072e-05 -4.4976732e-06 
5.2845377e-07 -2.3542498e-05 -3.9844845e-06 
-1.3893607e-07 -2.5018039e-06 -7.1982430e-07 
1.6600236e-06 -1.8475340e-06 2.0332875e-06 
5.2010125e-07 -1.2063413e-06 -1.1186023e-06 
4.2788788e-06 -4.1470001e-05 7.6930792e-06 
2.7614362e-07 -6.3984412e-06 1.6542031e-06 
1.1551850e-07 -6.5912878e-05 -7.8662888e-06 
6.7613873e-06 -2.4620042e-05 -1.1033127e-06 
2.8719523e-06 -9.9541176e-06 -3.3013284e-06 
4.7647377e-06 -9.1313166e-05 4.9621740e-06 
8.7534181e-06 -2.1561025e-05 -1.2953824e-06 
-1.6765071e-07 -8.6777236e-06 -2.8394078e-07 
3.1499203e-06 -3.0982776e-06 5.5071968e-07 
-5.1566680e-08 -1.3802777e-06 2.3345670e-07 
8.8708265e-07 -3.9401621e-07 -9.7483257e-07 
4.1619882e-07 1.1388678e-07 4.6600684e-07 
3.3268693e-06 -1.2095020e-05 -5.5624723e-06 
7.4630361e-06 -1.0603336e-05 1.4219875e-06 
2.4235146e-06 -3.2596201e-06 -2.9359958e-06 
4.9192904e-06 -7.9019328e-06 -3.1560749e-06 
2.4778426e-06 -8.9029172e-06 -1.2144849e-06 
9.1216043e-07 -9.1945907e-07 3.4427993e-07 
2.1330056e-06 -1.2344762e-05 2.1047620e-06 
5.6090738e-07 -1.7701719e-05 1.7279210e-06 
4.5115080e-06 -2.3208469e-05 1.1371992e-06 
5.5983520e-07 -4.0775416e-07 1.0680426e-06 
9.5549467e-07 -4.2293914e-06 1.6168703e-06 
6.6974985e-07 -1.4553212e-06 -1.7927770e-06 
1.5829269e-06 -1.8409659e-06 -6.6835429e-07 
1.1200715e-07 -2.1767985e-06 -2.0681514e-06 
4.1839112e-06 -1.7624048e-05 5.6459230e-06 
4.0741606e-06 -3.2026976e-05 -3.6634760e-06 
-7.1197064e-08 -3.8154656e-07 2.3595385e-07 
8.6841590e-07 -4.6866953e-06 3.4869065e-06 
5.0884123e-06 -4.6074907e-05 -3.8075016e-06 
2.5790751e-08 -2.5971376e-06 -6.7449633e-07 
2.5056063e-06 -9.5114610e-06 2.1281892e-07 
1.7086634e-06 -1.1775718e-06 -8.1696481e-07 
1.5590383e-06 -3.3350823e-06 2.6751386e-06 
5.3468091e-07 -2.9179207e-06 -7.1431452e-07 
5.2382329e-06 -2.5470892e-05 1.8487468e-06 
5.1515377e-07 -6.3046633e-07 -4.5228299e-07 
1.0064641e-06 -6.3832920e-07 9.1671717e-07 
-1.8163247e-07 -1.6635913e-06 -5.6101510e-07 
2.3815962e-06 -3.0640716e-05 1.5256128e-06 
3.5485948e-06 -4.5804911e-05 5.7906909e-06 
5.7644224e-06 -9.9589324e-06 3.6881531e-06 
1.7681715e-07 -7.9662391e-07 1.0927860e-06 
1.6479618e-07 1.0279389e-07 -2.6283755e-07 
3.8990061e-07 -2.7256044e-06 -2.0960560e-08 
2.2088175e-06 -1.7487923e-06 -1.6042506e-07 
9.2268334e-07 -3.0559618e-06 6.4917302e-08 
1.9680460e-06 -1.5375239e-06 9.7399391e-07 
-2.9431678e-07 -7.7012937e-06 -2.5371807e-07 