# vtk DataFile Version 4.0
vtk output
ASCII
DATASET UNSTRUCTURED_GRID
POINTS 460 float
0.0000000e+00 0.0000000e+00 0.0000000e+00 
5.0000000e+00 0.0000000e+00 0.0000000e+00 
5.0000000e+00 3.0000000e+00 0.0000000e+00 
0.0000000e+00 3.0000000e+00 0.0000000e+00 
0.0000000e+00 0.0000000e+00 1.0000000e+01 
5.0000000e+00 0.0000000e+00 1.0000000e+01 
5.0000000e+00 3.0000000e+00 1.0000000e+01 
0.0000000e+00 3.0000000e+00 1.0000000e+01 
1.0000000e+00 3.0000000e+00 -5.0000000e+00 
1.0000000e+00 3.0000000e+00 -4.5000000e+00 
1.0000000e+00 3.0000000e+00 -4.0000000e+00 
1.0000000e+00 3.0000000e+00 -3.5000000e+00 
1.0000000e+00 3.0000000e+00 -3.0000000e+00 
1.0000000e+00 3.0000000e+00 -2.5000000e+00 
1.0000000e+00 3.0000000e+00 -2.0000000e+00 
1.0000000e+00 3.0000000e+00 -1.5000000e+00 
1.0000000e+00 3.0000000e+00 -1.0000000e+00 
1.0000000e+00 3.0000000e+00 -5.0000000e-01 
1.0000000e+00 3.0000000e+00 0.0000000e+00 
1.0000000e+00 3.0000000e+00 5.0000000e-01 
1.0000000e+00 3.0000000e+00 1.0000000e+00 
1.0000000e+00 3.0000000e+00 1.5000000e+00 
1.0000000e+00 3.0000000e+00 2.0000000e+00 
1.0000000e+00 3.0000000e+00 2.5000000e+00 
1.0000000e+00 3.0000000e+00 3.0000000e+00 
1.0000000e+00 3.0000000e+00 3.5000000e+00 
1.0000000e+00 3.0000000e+00 4.0000000e+00 
1.0000000e+00 3.0000000e+00 4.5000000e+00 
1.0000000e+00 3.0000000e+00 5.0000000e+00 
1.0000000e+00 3.0000000e+00 5.5000000e+00 
1.0000000e+00 3.0000000e+00 6.0000000e+00 
1.0000000e+00 3.0000000e+00 6.5000000e+00 
1.0000000e+00 3.0000000e+00 7.0000000e+00 
1.0000000e+00 3.0000000e+00 7.5000000e+00 
1.0000000e+00 3.0000000e+00 8.0000000e+00 
1.0000000e+00 3.0000000e+00 8.5000000e+00 
1.0000000e+00 3.0000000e+00 9.0000000e+00 
1.0000000e+00 3.0000000e+00 9.5000000e+00 
1.0000000e+00 3.0000000e+00 1.0000000e+01 
1.0000000e+00 3.0000000e+00 1.0500000e+01 
1.0000000e+00 3.0000000e+00 1.1000000e+01 
1.0000000e+00 3.0000000e+00 1.1500000e+01 
1.0000000e+00 3.0000000e+00 1.2000000e+01 
1.0000000e+00 3.0000000e+00 1.2500000e+01 
1.0000000e+00 3.0000000e+00 1.3000000e+01 
1.0000000e+00 3.0000000e+00 1.3500000e+01 
1.0000000e+00 3.0000000e+00 1.4000000e+01 
1.0000000e+00 3.0000000e+00 1.4500000e+01 
1.0000000e+00 3.0250001e+00 -5.0000000e+00 
1.0000000e+00 3.0250001e+00 -4.5000000e+00 
1.0000000e+00 3.0250001e+00 -4.0000000e+00 
1.0000000e+00 3.0250001e+00 -3.5000000e+00 
1.0000000e+00 3.0250001e+00 -3.0000000e+00 
1.0000000e+00 3.0250001e+00 -2.5000000e+00 
1.0000000e+00 3.0250001e+00 -2.0000000e+00 
1.0000000e+00 3.0250001e+00 -1.5000000e+00 
1.0000000e+00 3.0250001e+00 -1.0000000e+00 
1.0000000e+00 3.0250001e+00 -5.0000000e-01 
1.0000000e+00 3.0250001e+00 0.0000000e+00 
1.0000000e+00 3.0250001e+00 5.0000000e-01 
1.0000000e+00 3.0250001e+00 1.0000000e+00 
1.0000000e+00 3.0250001e+00 1.5000000e+00 
1.0000000e+00 3.0250001e+00 2.0000000e+00 
1.0000000e+00 3.0250001e+00 2.5000000e+00 
1.0000000e+00 3.0250001e+00 3.0000000e+00 
1.0000000e+00 3.0250001e+00 3.5000000e+00 
1.0000000e+00 3.0250001e+00 4.0000000e+00 
1.0000000e+00 3.0250001e+00 4.5000000e+00 
1.0000000e+00 3.0250001e+00 5.0000000e+00 
1.0000000e+00 3.0250001e+00 5.5000000e+00 
1.0000000e+00 3.0250001e+00 6.0000000e+00 
1.0000000e+00 3.0250001e+00 6.5000000e+00 
1.0000000e+00 3.0250001e+00 7.0000000e+00 
1.0000000e+00 3.0250001e+00 7.5000000e+00 
1.0000000e+00 3.0250001e+00 8.0000000e+00 
1.0000000e+00 3.0250001e+00 8.5000000e+00 
1.0000000e+00 3.0250001e+00 9.0000000e+00 
1.0000000e+00 3.0250001e+00 9.5000000e+00 
1.0000000e+00 3.0250001e+00 1.0000000e+01 
1.0000000e+00 3.0250001e+00 1.0500000e+01 
1.0000000e+00 3.0250001e+00 1.1000000e+01 
1.0000000e+00 3.0250001e+00 1.1500000e+01 
1.0000000e+00 3.0250001e+00 1.2000000e+01 
1.0000000e+00 3.0250001e+00 1.2500000e+01 
1.0000000e+00 3.0250001e+00 1.3000000e+01 
1.0000000e+00 3.0250001e+00 1.3500000e+01 
1.0000000e+00 3.0250001e+00 1.4000000e+01 
1.0000000e+00 3.0250001e+00 1.4500000e+01 
1.0000000e+00 -2.0000000e+00 -5.0000000e+00 
1.0000000e+00 -2.0000000e+00 -4.5000000e+00 
1.0000000e+00 -2.0000000e+00 -4.0000000e+00 
1.0000000e+00 -2.0000000e+00 -3.5000000e+00 
1.0000000e+00 -2.0000000e+00 -3.0000000e+00 
1.0000000e+00 -2.0000000e+00 -2.5000000e+00 
1.0000000e+00 -2.0000000e+00 -2.0000000e+00 
1.0000000e+00 -2.0000000e+00 -1.5000000e+00 
1.0000000e+00 -2.0000000e+00 -1.0000000e+00 
1.0000000e+00 -2.0000000e+00 -5.0000000e-01 
1.0000000e+00 -2.0000000e+00 1.0500000e+01 
1.0000000e+00 -2.0000000e+00 1.1000000e+01 
1.0000000e+00 -2.0000000e+00 1.1500000e+01 
1.0000000e+00 -2.0000000e+00 1.2000000e+01 
1.0000000e+00 -2.0000000e+00 1.2500000e+01 
1.0000000e+00 -2.0000000e+00 1.3000000e+01 
1.0000000e+00 -2.0000000e+00 1.3500000e+01 
1.0000000e+00 -2.0000000e+00 1.4000000e+01 
1.0000000e+00 -2.0000000e+00 1.4500000e+01 
1.0000000e+00 0.0000000e+00 0.0000000e+00 
2.0000000e+00 0.0000000e+00 0.0000000e+00 
3.0000000e+00 0.0000000e+00 0.0000000e+00 
4.0000000e+00 0.0000000e+00 0.0000000e+00 
5.0000000e+00 1.0000000e+00 0.0000000e+00 
5.0000000e+00 2.0000000e+00 0.0000000e+00 
0.0000000e+00 2.0000000e+00 0.0000000e+00 
0.0000000e+00 1.0000000e+00 0.0000000e+00 
0.0000000e+00 0.0000000e+00 1.0000000e+00 
0.0000000e+00 0.0000000e+00 2.0000000e+00 
0.0000000e+00 0.0000000e+00 3.0000000e+00 
0.0000000e+00 0.0000000e+00 4.0000000e+00 
0.0000000e+00 0.0000000e+00 5.0000000e+00 
0.0000000e+00 0.0000000e+00 6.0000000e+00 
0.0000000e+00 0.0000000e+00 7.0000000e+00 
0.0000000e+00 0.0000000e+00 8.0000000e+00 
0.0000000e+00 0.0000000e+00 9.0000000e+00 
5.0000000e+00 0.0000000e+00 1.0000000e+00 
5.0000000e+00 0.0000000e+00 2.0000000e+00 
5.0000000e+00 0.0000000e+00 3.0000000e+00 
5.0000000e+00 0.0000000e+00 4.0000000e+00 
5.0000000e+00 0.0000000e+00 5.0000000e+00 
5.0000000e+00 0.0000000e+00 6.0000000e+00 
5.0000000e+00 0.0000000e+00 7.0000000e+00 
5.0000000e+00 0.0000000e+00 8.0000000e+00 
5.0000000e+00 0.0000000e+00 9.0000000e+00 
1.0000000e+00 0.0000000e+00 1.0000000e+01 
2.0000000e+00 0.0000000e+00 1.0000000e+01 
3.0000000e+00 0.0000000e+00 1.0000000e+01 
4.0000000e+00 0.0000000e+00 1.0000000e+01 
5.0000000e+00 3.0000000e+00 1.0000000e+00 
5.0000000e+00 3.0000000e+00 2.0000000e+00 
5.0000000e+00 3.0000000e+00 3.0000000e+00 
5.0000000e+00 3.0000000e+00 4.0000000e+00 
5.0000000e+00 3.0000000e+00 5.0000000e+00 
5.0000000e+00 3.0000000e+00 6.0000000e+00 
5.0000000e+00 3.0000000e+00 7.0000000e+00 
5.0000000e+00 3.0000000e+00 8.0000000e+00 
5.0000000e+00 3.0000000e+00 9.0000000e+00 
5.0000000e+00 1.0000000e+00 1.0000000e+01 
5.0000000e+00 2.0000000e+00 1.0000000e+01 
0.0000000e+00 3.0000000e+00 1.0000000e+00 
0.0000000e+00 3.0000000e+00 2.0000000e+00 
0.0000000e+00 3.0000000e+00 3.0000000e+00 
0.0000000e+00 3.0000000e+00 4.0000000e+00 
0.0000000e+00 3.0000000e+00 5.0000000e+00 
0.0000000e+00 3.0000000e+00 6.0000000e+00 
0.0000000e+00 3.0000000e+00 7.0000000e+00 
0.0000000e+00 3.0000000e+00 8.0000000e+00 
0.0000000e+00 3.0000000e+00 9.0000000e+00 
0.0000000e+00 2.0000000e+00 1.0000000e+01 
0.0000000e+00 1.0000000e+00 1.0000000e+01 
4.0000000e+00 3.0000000e+00 0.0000000e+00 
3.0000000e+00 3.0000000e+00 0.0000000e+00 
2.0000000e+00 3.0000000e+00 0.0000000e+00 
4.0000000e+00 3.0000000e+00 1.0000000e+01 
3.0000000e+00 3.0000000e+00 1.0000000e+01 
2.0000000e+00 3.0000000e+00 1.0000000e+01 
4.0618000e+00 1.5000000e+00 0.0000000e+00 
1.5046000e+00 7.6549745e-01 0.0000000e+00 
2.5000000e+00 2.1339746e+00 0.0000000e+00 
1.5046000e+00 2.2345026e+00 0.0000000e+00 
2.4957771e+00 8.1560516e-01 0.0000000e+00 
3.4707544e+00 2.2336540e+00 0.0000000e+00 
3.4700506e+00 7.5794268e-01 0.0000000e+00 
8.6322361e-01 1.5000000e+00 0.0000000e+00 
2.0000000e+00 1.5000000e+00 0.0000000e+00 
2.9960666e+00 1.4974480e+00 0.0000000e+00 
4.2679491e+00 7.3205084e-01 0.0000000e+00 
4.2679491e+00 2.2679491e+00 0.0000000e+00 
7.2695929e-01 2.2730408e+00 0.0000000e+00 
7.2695929e-01 7.2695929e-01 0.0000000e+00 
4.1822505e+00 0.0000000e+00 2.5515697e+00 
4.2017918e+00 0.0000000e+00 4.4725966e+00 
4.1114569e+00 0.0000000e+00 6.5092020e+00 
8.6602539e-01 0.0000000e+00 3.5000000e+00 
8.4778279e-01 0.0000000e+00 5.4684029e+00 
8.9629614e-01 0.0000000e+00 7.5867257e+00 
2.5566745e+00 0.0000000e+00 8.1853306e-01 
2.4918270e+00 0.0000000e+00 9.1386929e+00 
8.4677207e-01 0.0000000e+00 1.5042374e+00 
4.0943027e+00 0.0000000e+00 8.4081745e+00 
8.6281651e-01 0.0000000e+00 2.5007062e+00 
1.7315160e+00 0.0000000e+00 3.0001178e+00 
1.7319617e+00 0.0000000e+00 4.0000196e+00 
2.5980761e+00 0.0000000e+00 3.5000000e+00 
2.5536871e+00 0.0000000e+00 4.4963923e+00 
2.5928419e+00 0.0000000e+00 2.4239938e+00 
1.5037409e+00 0.0000000e+00 9.1535149e+00 
1.8433737e+00 0.0000000e+00 8.1858873e+00 
3.0000000e+00 0.0000000e+00 8.2679491e+00 
2.5000000e+00 0.0000000e+00 7.4019237e+00 
3.5042722e+00 0.0000000e+00 7.4271150e+00 
3.0310018e+00 0.0000000e+00 6.5282087e+00 
2.0373929e+00 0.0000000e+00 6.5307913e+00 
3.4767809e+00 0.0000000e+00 5.8031492e+00 
2.5452602e+00 0.0000000e+00 5.5720768e+00 
1.6456656e+00 0.0000000e+00 1.9697139e+00 
8.6297011e-01 0.0000000e+00 4.4947371e+00 
1.0111579e+00 0.0000000e+00 6.5282545e+00 
3.4994321e+00 0.0000000e+00 8.4691072e-01 
4.1860156e+00 0.0000000e+00 3.5040276e+00 
1.7320508e+00 0.0000000e+00 5.0000000e+00 
4.0544066e+00 0.0000000e+00 1.5781221e+00 
1.5817389e+00 0.0000000e+00 9.3943578e-01 
8.3166349e-01 0.0000000e+00 8.5090933e+00 
3.4686174e+00 0.0000000e+00 9.1752682e+00 
3.0709300e+00 0.0000000e+00 1.5799091e+00 
3.3927374e+00 0.0000000e+00 3.0399952e+00 
3.3826034e+00 0.0000000e+00 3.9747651e+00 
4.3420062e+00 0.0000000e+00 7.4688983e+00 
3.4023225e+00 0.0000000e+00 4.9314723e+00 
1.6740381e+00 0.0000000e+00 7.3014426e+00 
4.2715640e+00 0.0000000e+00 5.4758859e+00 
1.6225953e+00 0.0000000e+00 5.8104177e+00 
4.2679491e+00 0.0000000e+00 9.2679491e+00 
7.3205084e-01 0.0000000e+00 7.3205084e-01 
4.2679491e+00 0.0000000e+00 7.3205084e-01 
7.3205084e-01 0.0000000e+00 9.2679491e+00 
3.4586334e+00 0.0000000e+00 2.2347178e+00 
2.2895701e+00 0.0000000e+00 1.5463171e+00 
5.0000000e+00 2.2345026e+00 1.5046000e+00 
[...]
POINT_DATA 460
FIELD FieldData 2
DISPLACEMENT 3 460  float
0.0000000e+00 0.0000000e+00 0.0000000e+00 
0.0000000e+00 0.0000000e+00 0.0000000e+00 
0.0000000e+00 -8.1998880e-10 0.0000000e+00 
0.0000000e+00 -7.3354711e-10 0.0000000e+00 
0.0000000e+00 0.0000000e+00 0.0000000e+00 
0.0000000e+00 0.0000000e+00 0.0000000e+00 
0.0000000e+00 1.7033790e-09 0.0000000e+00 
0.0000000e+00 -6.0872030e-06 0.0000000e+00 
0.0000000e+00 2.1403097e-10 0.0000000e+00 
0.0000000e+00 2.1616935e-10 0.0000000e+00 
0.0000000e+00 2.2226909e-10 0.0000000e+00 
0.0000000e+00 2.2397265e-10 0.0000000e+00 
0.0000000e+00 2.1727573e-10 0.0000000e+00 
0.0000000e+00 2.0360566e-10 0.0000000e+00 
0.0000000e+00 1.8022039e-10 0.0000000e+00 
0.0000000e+00 1.3548451e-10 0.0000000e+00 
0.0000000e+00 4.9940618e-11 0.0000000e+00 
0.0000000e+00 -9.9888611e-11 0.0000000e+00 
0.0000000e+00 -3.4275649e-10 0.0000000e+00 
-5.2658291e-11 -6.7944461e-10 -3.0862496e-10 
-1.0165572e-10 -1.2802033e-09 -7.1898903e-10 
-1.4151978e-10 -2.2645448e-09 -1.3737035e-09 
-1.6715816e-10 -3.7168149e-09 -2.6065197e-09 
3.4878454e-11 -4.9523470e-09 -5.4081402e-09 
-2.1075308e-11 -4.1688724e-09 -9.4771355e-09 
-3.3342498e-10 2.6461240e-09 -1.4720835e-08 
3.3109313e-09 2.1916048e-08 -2.2683759e-08 
3.4574406e-09 6.0982750e-08 -3.1636638e-08 
2.0795583e-09 1.2343772e-07 -2.4593325e-08 
-5.9074363e-09 2.0238595e-07 -6.1754207e-10 
-7.8005291e-09 2.6163971e-07 6.5849868e-08 
-5.2411096e-08 2.0974512e-07 2.0237769e-07 
-6.5201142e-08 -1.2828998e-07 4.1000391e-07 
-1.2343442e-07 -9.9684678e-07 5.9351322e-07 
-1.7384973e-07 -2.6435573e-06 7.4894427e-07 
-2.8471581e-07 -4.9824484e-06 1.3022859e-06 
-5.9901674e-07 -7.2026946e-06 9.6955273e-07 
-2.9499859e-07 -7.3692872e-06 1.0594810e-06 
0.0000000e+00 -1.9535880e-06 0.0000000e+00 
0.0000000e+00 1.5272150e-05 0.0000000e+00 
0.0000000e+00 4.4633689e-05 0.0000000e+00 
0.0000000e+00 8.5931628e-05 0.0000000e+00 
0.0000000e+00 1.3627455e-04 0.0000000e+00 
0.0000000e+00 1.9045280e-04 0.0000000e+00 
0.0000000e+00 2.4152831e-04 0.0000000e+00 
0.0000000e+00 2.8218937e-04 0.0000000e+00 
0.0000000e+00 3.0685100e-04 0.0000000e+00 
0.0000000e+00 3.1431278e-04 0.0000000e+00 
0.0000000e+00 3.2119438e-10 0.0000000e+00 
0.0000000e+00 2.9232938e-10 0.0000000e+00 
0.0000000e+00 2.3185195e-10 0.0000000e+00 
0.0000000e+00 2.0802586e-10 0.0000000e+00 
0.0000000e+00 2.1241700e-10 0.0000000e+00 
0.0000000e+00 2.0776182e-10 0.0000000e+00 
0.0000000e+00 1.8315091e-10 0.0000000e+00 
0.0000000e+00 1.3567035e-10 0.0000000e+00 
0.0000000e+00 4.9493055e-11 0.0000000e+00 
0.0000000e+00 -1.0066702e-10 0.0000000e+00 
0.0000000e+00 -3.3469169e-10 0.0000000e+00 
0.0000000e+00 -6.8444023e-10 0.0000000e+00 
0.0000000e+00 -1.2923322e-09 0.0000000e+00 
0.0000000e+00 -2.3223135e-09 0.0000000e+00 
0.0000000e+00 -3.7976040e-09 0.0000000e+00 
0.0000000e+00 -5.0794333e-09 0.0000000e+00 
0.0000000e+00 -4.2532888e-09 0.0000000e+00 
0.0000000e+00 2.7807394e-09 0.0000000e+00 
0.0000000e+00 2.2477973e-08 0.0000000e+00 
0.0000000e+00 6.2034466e-08 0.0000000e+00 
0.0000000e+00 1.2564979e-07 0.0000000e+00 
0.0000000e+00 2.0550574e-07 0.0000000e+00 
0.0000000e+00 2.6349025e-07 0.0000000e+00 
0.0000000e+00 2.0743121e-07 0.0000000e+00 
0.0000000e+00 -1.3841924e-07 0.0000000e+00 
0.0000000e+00 -1.0253747e-06 0.0000000e+00 
0.0000000e+00 -2.6822529e-06 0.0000000e+00 
0.0000000e+00 -5.0188173e-06 0.0000000e+00 
0.0000000e+00 -7.2019407e-06 0.0000000e+00 
0.0000000e+00 -7.2919652e-06 0.0000000e+00 
0.0000000e+00 -1.4771960e-06 0.0000000e+00 
0.0000000e+00 1.5239453e-05 0.0000000e+00 
0.0000000e+00 4.4546301e-05 0.0000000e+00 
0.0000000e+00 8.5793639e-05 0.0000000e+00 
0.0000000e+00 1.3613529e-04 0.0000000e+00 
0.0000000e+00 1.9040846e-04 0.0000000e+00 
0.0000000e+00 2.4168797e-04 0.0000000e+00 
0.0000000e+00 2.8260829e-04 0.0000000e+00 
0.0000000e+00 3.0747044e-04 0.0000000e+00 
0.0000000e+00 3.1499111e-04 0.0000000e+00 
0.0000000e+00 0.0000000e+00 0.0000000e+00 
0.0000000e+00 0.0000000e+00 0.0000000e+00 
0.0000000e+00 0.0000000e+00 0.0000000e+00 
0.0000000e+00 0.0000000e+00 0.0000000e+00 
0.0000000e+00 0.0000000e+00 0.0000000e+00 
0.0000000e+00 0.0000000e+00 0.0000000e+00 
0.0000000e+00 0.0000000e+00 0.0000000e+00 
0.0000000e+00 0.0000000e+00 0.0000000e+00 
0.0000000e+00 0.0000000e+00 0.0000000e+00 
0.0000000e+00 0.0000000e+00 0.0000000e+00 
0.0000000e+00 0.0000000e+00 0.0000000e+00 
0.0000000e+00 0.0000000e+00 0.0000000e+00 
0.0000000e+00 0.0000000e+00 0.0000000e+00 
0.0000000e+00 0.0000000e+00 0.0000000e+00 
0.0000000e+00 0.0000000e+00 0.0000000e+00 
0.0000000e+00 0.0000000e+00 0.0000000e+00 
0.0000000e+00 0.0000000e+00 0.0000000e+00 
0.0000000e+00 0.0000000e+00 0.0000000e+00 
0.0000000e+00 0.0000000e+00 0.0000000e+00 
0.0000000e+00 0.0000000e+00 0.0000000e+00 
0.0000000e+00 0.0000000e+00 0.0000000e+00 
0.0000000e+00 0.0000000e+00 0.0000000e+00 
0.0000000e+00 0.0000000e+00 0.0000000e+00 
0.0000000e+00 -4.5201592e-10 0.0000000e+00 
0.0000000e+00 -7.5016410e-10 0.0000000e+00 
0.0000000e+00 -6.8175637e-10 0.0000000e+00 
0.0000000e+00 -4.1439510e-10 0.0000000e+00 
0.0000000e+00 0.0000000e+00 0.0000000e+00 
0.0000000e+00 0.0000000e+00 0.0000000e+00 
0.0000000e+00 0.0000000e+00 0.0000000e+00 
0.0000000e+00 0.0000000e+00 0.0000000e+00 
0.0000000e+00 0.0000000e+00 0.0000000e+00 
0.0000000e+00 0.0000000e+00 0.0000000e+00 
0.0000000e+00 0.0000000e+00 0.0000000e+00 
0.0000000e+00 0.0000000e+00 0.0000000e+00 
0.0000000e+00 0.0000000e+00 0.0000000e+00 
0.0000000e+00 0.0000000e+00 0.0000000e+00 
0.0000000e+00 0.0000000e+00 0.0000000e+00 
0.0000000e+00 0.0000000e+00 0.0000000e+00 
0.0000000e+00 0.0000000e+00 0.0000000e+00 
0.0000000e+00 0.0000000e+00 0.0000000e+00 
0.0000000e+00 0.0000000e+00 0.0000000e+00 
0.0000000e+00 0.0000000e+00 0.0000000e+00 
0.0000000e+00 0.0000000e+00 0.0000000e+00 
0.0000000e+00 0.0000000e+00 0.0000000e+00 
0.0000000e+00 0.0000000e+00 0.0000000e+00 
0.0000000e+00 0.0000000e+00 0.0000000e+00 
0.0000000e+00 0.0000000e+00 0.0000000e+00 
0.0000000e+00 0.0000000e+00 0.0000000e+00 
0.0000000e+00 -1.0937039e-09 0.0000000e+00 
0.0000000e+00 -2.1242168e-09 0.0000000e+00 
0.0000000e+00 -2.0185278e-09 0.0000000e+00 
0.0000000e+00 1.2120441e-09 0.0000000e+00 
0.0000000e+00 1.4606222e-08 0.0000000e+00 
0.0000000e+00 4.5124171e-08 0.0000000e+00 
0.0000000e+00 5.6410091e-08 0.0000000e+00 
0.0000000e+00 8.0735596e-08 0.0000000e+00 
0.0000000e+00 -2.9122429e-09 0.0000000e+00 
0.0000000e+00 -1.5885062e-08 0.0000000e+00 
0.0000000e+00 -8.3027061e-09 0.0000000e+00 
0.0000000e+00 -1.0893941e-09 0.0000000e+00 
0.0000000e+00 -2.4379885e-09 0.0000000e+00 
0.0000000e+00 -1.7601542e-11 0.0000000e+00 
0.0000000e+00 2.2846526e-08 0.0000000e+00 
0.0000000e+00 8.5697252e-08 0.0000000e+00 
0.0000000e+00 1.4487949e-07 0.0000000e+00 
0.0000000e+00 -2.4969302e-07 0.0000000e+00 
0.0000000e+00 -1.8290866e-06 0.0000000e+00 
0.0000000e+00 -4.6222135e-06 0.0000000e+00 
0.0000000e+00 -4.5546267e-06 0.0000000e+00 
0.0000000e+00 -2.3323710e-06 0.0000000e+00 
0.0000000e+00 -7.5571238e-10 0.0000000e+00 
0.0000000e+00 -7.0307388e-10 0.0000000e+00 
0.0000000e+00 -6.5636224e-10 0.0000000e+00 
0.0000000e+00 -1.9472820e-07 0.0000000e+00 
0.0000000e+00 -1.0090243e-06 0.0000000e+00 
0.0000000e+00 -3.2081523e-06 0.0000000e+00 
0.0000000e+00 -6.3163264e-10 0.0000000e+00 
0.0000000e+00 -4.0852713e-10 0.0000000e+00 
0.0000000e+00 -7.6036361e-10 0.0000000e+00 
0.0000000e+00 -6.4411798e-10 0.0000000e+00 
0.0000000e+00 -4.8214355e-10 0.0000000e+00 
0.0000000e+00 -7.7058321e-10 0.0000000e+00 
0.0000000e+00 -4.7982007e-10 0.0000000e+00 
0.0000000e+00 -6.0821415e-10 0.0000000e+00 
0.0000000e+00 -7.0840289e-10 0.0000000e+00 
0.0000000e+00 -6.7273448e-10 0.0000000e+00 
0.0000000e+00 -3.0920078e-10 0.0000000e+00 
0.0000000e+00 -7.7312950e-10 0.0000000e+00 
0.0000000e+00 -6.3525252e-10 0.0000000e+00 
0.0000000e+00 -3.0611827e-10 0.0000000e+00 
0.0000000e+00 0.0000000e+00 0.0000000e+00 
0.0000000e+00 0.0000000e+00 0.0000000e+00 
0.0000000e+00 0.0000000e+00 0.0000000e+00 
0.0000000e+00 0.0000000e+00 0.0000000e+00 
0.0000000e+00 0.0000000e+00 0.0000000e+00 
0.0000000e+00 0.0000000e+00 0.0000000e+00 
0.0000000e+00 0.0000000e+00 0.0000000e+00 
0.0000000e+00 0.0000000e+00 0.0000000e+00 
0.0000000e+00 0.0000000e+00 0.0000000e+00 
0.0000000e+00 0.0000000e+00 0.0000000e+00 
0.0000000e+00 0.0000000e+00 0.0000000e+00 
0.0000000e+00 0.0000000e+00 0.0000000e+00 
0.0000000e+00 0.0000000e+00 0.0000000e+00 
0.0000000e+00 0.0000000e+00 0.0000000e+00 
0.0000000e+00 0.0000000e+00 0.0000000e+00 
0.0000000e+00 0.0000000e+00 0.0000000e+00 
0.0000000e+00 0.0000000e+00 0.0000000e+00 
0.0000000e+00 0.0000000e+00 0.0000000e+00 
0.0000000e+00 0.0000000e+00 0.0000000e+00 
0.0000000e+00 0.0000000e+00 0.0000000e+00 
0.0000000e+00 0.0000000e+00 0.0000000e+00 
0.0000000e+00 0.0000000e+00 0.0000000e+00 
0.0000000e+00 0.0000000e+00 0.0000000e+00 
0.0000000e+00 0.0000000e+00 0.0000000e+00 
0.0000000e+00 0.0000000e+00 0.0000000e+00 
0.0000000e+00 0.0000000e+00 0.0000000e+00 
0.0000000e+00 0.0000000e+00 0.0000000e+00 
0.0000000e+00 0.0000000e+00 0.0000000e+00 
0.0000000e+00 0.0000000e+00 0.0000000e+00 
0.0000000e+00 0.0000000e+00 0.0000000e+00 
0.0000000e+00 0.0000000e+00 0.0000000e+00 
0.0000000e+00 0.0000000e+00 0.0000000e+00 
0.0000000e+00 0.0000000e+00 0.0000000e+00 
0.0000000e+00 0.0000000e+00 0.0000000e+00 
0.0000000e+00 0.0000000e+00 0.0000000e+00 
0.0000000e+00 0.0000000e+00 0.0000000e+00 
0.0000000e+00 0.0000000e+00 0.0000000e+00 
0.0000000e+00 0.0000000e+00 0.0000000e+00 
0.0000000e+00 0.0000000e+00 0.0000000e+00 
0.0000000e+00 0.0000000e+00 0.0000000e+00 
0.0000000e+00 0.0000000e+00 0.0000000e+00 
0.0000000e+00 0.0000000e+00 0.0000000e+00 
0.0000000e+00 0.0000000e+00 0.0000000e+00 
0.0000000e+00 0.0000000e+00 0.0000000e+00 
0.0000000e+00 0.0000000e+00 0.0000000e+00 
0.0000000e+00 0.0000000e+00 0.0000000e+00 
0.0000000e+00 0.0000000e+00 0.0000000e+00 
0.0000000e+00 0.0000000e+00 0.0000000e+00 
0.0000000e+00 0.0000000e+00 0.0000000e+00 
0.0000000e+00 -1.5599627e-09 0.0000000e+00 
0.0000000e+00 1.5463149e-08 0.0000000e+00 
0.0000000e+00 -1.9901170e-09 0.0000000e+00 
0.0000000e+00 2.3425949e-08 0.0000000e+00 
0.0000000e+00 6.5926699e-08 0.0000000e+00 
0.0000000e+00 -1.1173363e-09 0.0000000e+00 
0.0000000e+00 1.7404687e-09 0.0000000e+00 
0.0000000e+00 2.1263249e-08 0.0000000e+00 
0.0000000e+00 -1.0063331e-09 0.0000000e+00 
0.0000000e+00 9.5590407e-09 0.0000000e+00 
0.0000000e+00 -2.3892286e-09 0.0000000e+00 
0.0000000e+00 4.7189075e-09 0.0000000e+00 
0.0000000e+00 6.1720108e-08 0.0000000e+00 
0.0000000e+00 2.2525949e-08 0.0000000e+00 
0.0000000e+00 -7.0646167e-10 0.0000000e+00 
0.0000000e+00 5.9904739e-09 0.0000000e+00 
0.0000000e+00 8.7833236e-08 0.0000000e+00 
0.0000000e+00 -8.2832691e-10 0.0000000e+00 
0.0000000e+00 9.8411386e-09 0.0000000e+00 
0.0000000e+00 5.5930730e-08 0.0000000e+00 
0.0000000e+00 -1.5292175e-09 0.0000000e+00 
0.0000000e+00 2.9613625e-08 0.0000000e+00 
0.0000000e+00 -2.4429883e-10 0.0000000e+00 
0.0000000e+00 -1.9876125e-09 0.0000000e+00 
0.0000000e+00 6.3093303e-08 0.0000000e+00 
0.0000000e+00 3.7749391e-08 0.0000000e+00 
0.0000000e+00 1.0916699e-08 0.0000000e+00 
0.0000000e+00 -9.4955499e-10 0.0000000e+00 
0.0000000e+00 -4.3144704e-10 0.0000000e+00 
0.0000000e+00 -2.9036476e-06 0.0000000e+00 
0.0000000e+00 -8.5020585e-10 0.0000000e+00 
0.0000000e+00 -8.3529539e-10 0.0000000e+00 
0.0000000e+00 1.8384096e-08 0.0000000e+00 
0.0000000e+00 -3.7421623e-07 0.0000000e+00 
0.0000000e+00 5.9075056e-09 0.0000000e+00 
0.0000000e+00 1.1424235e-07 0.0000000e+00 
0.0000000e+00 -7.4940755e-07 0.0000000e+00 
0.0000000e+00 2.7381521e-09 0.0000000e+00 
0.0000000e+00 -2.2455147e-09 0.0000000e+00 
0.0000000e+00 4.5501942e-08 0.0000000e+00 
0.0000000e+00 5.1032426e-08 0.0000000e+00 
0.0000000e+00 4.6715957e-08 0.0000000e+00 
0.0000000e+00 -2.9007856e-06 0.0000000e+00 
0.0000000e+00 -1.7018836e-09 0.0000000e+00 
0.0000000e+00 -7.0752509e-10 0.0000000e+00 
0.0000000e+00 -8.8301016e-07 0.0000000e+00 
0.0000000e+00 5.5871158e-08 0.0000000e+00 
0.0000000e+00 -2.0635134e-08 0.0000000e+00 
0.0000000e+00 1.5297267e-08 0.0000000e+00 
0.0000000e+00 -1.1229116e-12 0.0000000e+00 
0.0000000e+00 -2.0537979e-07 0.0000000e+00 
0.0000000e+00 3.7998770e-08 0.0000000e+00 
0.0000000e+00 -1.2508101e-06 0.0000000e+00 
0.0000000e+00 -1.6874033e-09 0.0000000e+00 
0.0000000e+00 -1.4367637e-06 0.0000000e+00 
0.0000000e+00 -9.1872765e-10 0.0000000e+00 
0.0000000e+00 -4.3434872e-10 0.0000000e+00 
0.0000000e+00 -4.6836676e-06 0.0000000e+00 
0.0000000e+00 -1.2204119e-06 0.0000000e+00 
0.0000000e+00 -1.0642459e-07 0.0000000e+00 
0.0000000e+00 -1.7610369e-06 0.0000000e+00 
0.0000000e+00 -3.9708575e-06 0.0000000e+00 
0.0000000e+00 -6.4903492e-07 0.0000000e+00 
0.0000000e+00 -5.2150938e-07 0.0000000e+00 
0.0000000e+00 -2.4586416e-07 0.0000000e+00 
0.0000000e+00 -3.4006796e-06 0.0000000e+00 
0.0000000e+00 -1.9258694e-06 0.0000000e+00 
0.0000000e+00 -7.6636996e-07 0.0000000e+00 
0.0000000e+00 -5.8744877e-08 0.0000000e+00 
0.0000000e+00 -9.0641485e-08 0.0000000e+00 
0.0000000e+00 -4.9644332e-06 0.0000000e+00 
0.0000000e+00 -1.6264509e-06 0.0000000e+00 
7.5331705e-09 6.3068846e-08 -2.6287001e-08 
-2.0328461e-08 1.1615915e-07 1.0733258e-07 
-2.3442938e-07 -1.1377441e-06 6.0442710e-07 
6.7924932e-12 -2.2223743e-09 -5.2223696e-09 
1.0809196e-09 8.1418594e-10 -1.4119441e-08 
4.6281685e-09 3.6636980e-08 -8.3215586e-09 
1.4437349e-09 -2.3063247e-09 -3.0779246e-09 
-5.5626888e-08 7.5329488e-08 5.3683053e-08 
-8.9435195e-11 -1.5267116e-09 -1.3595094e-09 
-5.6777174e-07 -3.7768418e-06 8.2735590e-07 
2.5241301e-10 -1.0116316e-09 -7.9328571e-10 
-3.3176408e-07 -4.7499904e-07 8.8384844e-08 
-2.8211604e-08 5.9184561e-08 2.1656556e-08 
-7.2735006e-08 4.8930261e-08 1.0924163e-07 
-2.4274473e-07 -8.3593413e-08 2.4791129e-07 
-1.5490497e-07 -6.3690429e-08 1.6405126e-07 
-4.6746553e-08 6.0818763e-08 6.5732920e-08 
-3.9730935e-07 -6.9967132e-07 3.1257372e-07 
-1.2448565e-07 -3.6689180e-08 2.8219537e-07 
-6.4869847e-09 6.1798708e-08 3.2458079e-08 
5.4090750e-09 3.4417042e-08 -6.5698353e-09 
1.0030373e-08 6.5064995e-08 -2.3493556e-09 
1.1310095e-08 4.3295785e-08 -2.0240236e-08 
7.5321687e-09 1.7011679e-08 -1.7707668e-08 
7.2816060e-09 1.4440134e-08 -2.0618000e-08 
5.2363207e-09 3.2306204e-09 -1.2564985e-08 
3.3156498e-09 2.0458915e-09 -1.3998590e-08 
2.6014169e-09 -8.1200863e-10 -8.6580192e-09 
1.9133812e-09 -1.6853313e-09 -8.5281258e-09 
1.4862003e-09 -1.6581996e-09 -4.8803086e-09 
4.8336651e-10 -1.9642663e-09 -3.7092900e-09 
1.0967245e-08 9.8775082e-08 -1.6392653e-09 
1.6257335e-09 1.1309196e-07 2.4223827e-08 
4.3008805e-09 9.2518073e-09 -2.0811942e-08 
3.3878813e-09 -6.2597755e-10 -6.2634520e-09 
-4.3885282e-07 -1.4349271e-06 1.8688043e-07 
9.8211075e-09 3.3682852e-08 -2.7127131e-08 
4.7393041e-09 1.1110109e-08 -1.1013318e-08 
1.4846394e-10 -1.2095746e-09 -1.0470969e-09 
-1.8934736e-07 -3.9308507e-08 8.3903799e-08 
-3.1207281e-07 -5.0808342e-07 4.8794379e-07 
-4.3170471e-07 -1.3774619e-06 5.4724040e-07 
-4.5993263e-09 1.5875884e-07 2.0669168e-08 
5.0609572e-10 -1.5581415e-09 -9.5081953e-10 
4.0219819e-10 -2.3379281e-09 -8.6891889e-09 
1.8662529e-09 -6.6499356e-10 -1.2130197e-08 
2.9845950e-09 1.1555617e-08 -2.0891006e-08 
5.7914642e-09 3.0943141e-08 -2.6546791e-08 
-7.6194652e-08 1.6161673e-08 2.2739439e-07 
-1.8936406e-07 -4.6604120e-07 4.7877074e-07 
-1.5279068e-11 -8.8260660e-10 -4.9979854e-10 
-1.2585714e-10 -2.1115281e-09 -2.6581235e-09 
-6.1686245e-07 -5.0306494e-06 5.8737487e-07 
5.5573529e-10 -1.8249698e-09 -2.0873989e-09 
7.1045303e-10 -1.6982910e-09 -7.0052431e-09 
-5.1906898e-07 -2.3657824e-06 8.2852313e-07 
-5.6780657e-08 5.7630057e-08 1.4686472e-07 
7.3099832e-11 -1.5418001e-09 -2.1711482e-09 
9.1459187e-09 1.0739954e-07 -1.9053703e-08 
-3.5804379e-07 -4.1515116e-07 2.2929949e-07 
-1.6296461e-07 -8.6793591e-08 4.7367113e-08 
2.1943707e-10 -9.9059561e-10 -3.8456249e-10 
6.0234924e-09 5.7781069e-09 -1.2951455e-08 
2.3303662e-10 -2.2678601e-09 -3.7996726e-09 
-6.7259310e-07 -2.2937263e-06 5.5081364e-07 
-1.5314072e-08 9.7137978e-08 4.3316060e-08 
9.1403679e-10 -2.0160267e-09 -2.8932534e-09 
2.6099822e-09 -1.6659794e-09 -6.5367241e-09 
3.8683338e-11 -1.2300216e-09 -1.0368925e-09 
1.2925025e-08 6.1365370e-08 -2.5239880e-08 
-4.8359561e-07 -3.0894355e-06 3.1529274e-07 
-4.8455340e-10 -3.0933895e-09 -2.9267706e-09 
-3.0183636e-10 -2.1954925e-09 -1.5166778e-09 
-7.5850731e-10 -1.2847176e-09 -5.2103060e-09 
-8.9547791e-10 1.5785917e-09 -7.4438424e-09 
-1.6214639e-10 -1.5238647e-09 -7.8699619e-10 
-6.7189315e-10 1.4030232e-08 -1.0746949e-08 
-5.3362977e-11 3.7434450e-08 -1.6745831e-08 
-1.1526178e-09 7.5650412e-08 -1.4580913e-08 
5.7763740e-09 1.1824739e-07 1.3422244e-08 
-9.0134226e-11 1.7785641e-07 7.3315860e-08 
6.8488188e-09 1.4565049e-07 1.2434114e-07 
-9.0167900e-09 -4.8699626e-08 2.6447560e-07 
-4.5090626e-08 -5.1440355e-07 3.9045338e-07 
-1.5423288e-07 -1.6683347e-06 5.3842501e-07 
-1.9025818e-07 -2.7934550e-06 7.0441814e-07 
-2.3622852e-07 -4.5433976e-06 7.6602532e-07 
-1.7754653e-07 -6.1189608e-06 6.5528826e-07 
-1.0354059e-10 -8.1244167e-10 -2.7650796e-10 
-1.6766496e-11 -1.9647290e-09 -1.2652819e-09 
-7.3043488e-10 3.6091834e-09 -1.3597816e-09 
-6.6155342e-10 7.7573574e-08 -3.7230329e-08 
8.4684508e-08 -1.0329960e-07 -2.4548427e-07 
2.9299497e-07 -1.4632371e-06 -4.5756681e-07 
1.5907797e-10 -2.3899969e-09 -1.6039761e-09 
8.9934771e-10 5.1820024e-09 -4.2613539e-09 
2.6766314e-08 6.4853701e-08 -6.6908711e-08 
-3.1872522e-09 4.2098890e-08 -7.0820465e-09 
-2.6216615e-10 -2.5145863e-09 -3.4719363e-09 
-8.2103935e-11 -1.5463819e-09 -1.2204763e-09 
1.7509987e-07 -7.3939518e-08 -1.9881602e-07 
1.4933935e-10 -1.5208235e-09 -1.1860264e-09 
1.2332222e-08 1.1668393e-07 -8.3624613e-08 
2.3797371e-08 -1.0960829e-06 -2.8323413e-07 
-8.9067442e-10 8.9107175e-09 -5.6200493e-09 
2.1361466e-09 2.1585015e-08 -9.3890762e-09 
3.9847239e-10 -2.6599642e-09 -2.8778178e-09 
-6.1627492e-10 1.1655083e-07 -2.1784215e-08 
-6.0019207e-09 2.0211084e-08 -2.9851115e-09 
-1.4937201e-10 -2.7015461e-09 -2.5889049e-09 
5.6578866e-09 1.8058275e-08 -1.0481929e-08 
9.2002132e-08 -3.6370043e-06 -4.1647681e-07 
1.9202494e-10 -1.2750243e-09 -7.3297407e-10 
1.3595148e-07 -1.4532651e-07 -6.4246684e-08 
-2.4597835e-10 -6.8857292e-10 3.3868930e-10 
5.4004308e-09 2.3462512e-08 -2.5378426e-08 
-5.7258417e-11 -1.5473737e-09 -1.0069942e-09 
-7.5021067e-10 -9.8558162e-10 -9.9967323e-10 
1.6791182e-09 4.4833728e-10 -6.2022254e-09 
2.6144647e-08 7.7399349e-08 -2.0397996e-08 
7.3512565e-09 3.3557445e-08 -6.7867617e-08 
8.9170520e-09 -1.4758285e-07 -6.1033440e-08 
2.5294808e-09 8.3565851e-08 -2.6544008e-08 
2.8184550e-07 -6.5390043e-07 -1.8144172e-07 
8.3964203e-08 -4.9334199e-07 -1.9457606e-07 
4.2375313e-12 -8.9574348e-10 -5.6117327e-10 
9.5175035e-10 -1.7647365e-09 -2.3910127e-09 
-6.1992765e-11 -9.7677877e-10 -4.2720649e-10 
7.2436794e-09 2.4890287e-08 -1.1182078e-07 
-1.9739388e-09 1.0799637e-08 -2.0572714e-10 
2.3507016e-07 -1.8089978e-06 -1.5298397e-07 
1.0792385e-07 -4.7360365e-07 -4.3141577e-07 
1.3191354e-09 1.0002316e-08 -1.0069519e-08 
9.4007649e-11 -1.8130893e-09 -1.7593669e-09 
6.6472001e-09 3.7671665e-08 -1.6244645e-08 
4.3550687e-11 -1.3459196e-09 -5.3122984e-10 
1.5077256e-07 -1.9031553e-07 -2.4950526e-07 
4.8709642e-10 -2.6761915e-09 -2.4447118e-09 
-3.7871883e-09 3.4958870e-08 -1.3050633e-08 
4.6472259e-10 -2.3746911e-09 -1.5436009e-09 
7.0435455e-08 7.4786275e-09 -7.3582264e-08 
3.9775031e-08 -1.9786244e-06 -5.0973163e-08 
3.9111518e-09 1.2658997e-07 -3.1880685e-08 
-2.1703772e-09 1.0613253e-07 -3.7375507e-08 
2.0453884e-08 2.1719552e-08 -7.4600727e-08 
2.4346426e-07 -1.6620368e-06 -3.4104607e-07 
2.0274039e-10 -1.1630503e-09 -7.1271244e-10 
2.5197304e-09 2.0617479e-09 -5.3661457e-09 
-9.5156077e-11 4.8382312e-11 -1.2912160e-09 
7.5747844e-09 5.2099374e-08 -1.0306443e-08 
2.3265539e-08 3.1691787e-08 -2.9228639e-08 
3.2808933e-10 -2.8441578e-09 -3.4005354e-09 
-6.1994463e-08 -2.5448344e-06 -1.0544174e-08 
-7.7664153e-10 4.7674300e-09 -3.4620924e-09 