# vtk DataFile Version 4.0
vtk output
ASCII
DATASET UNSTRUCTURED_GRID
POINTS 460 float
0.0000000e+00 0.0000000e+00 0.0000000e+00 
5.0000000e+00 0.0000000e+00 0.0000000e+00 
5.0000000e+00 3.0000000e+00 0.0000000e+00 
0.0000000e+00 3.0000000e+00 0.0000000e+00 
0.0000000e+00 0.0000000e+00 1.0000000e+01 
5.0000000e+00 0.0000000e+00 1.0000000e+01 
5.0000000e+00 3.0000000e+00 1.0000000e+01 
0.0000000e+00 3.0000000e+00 1.0000000e+01 
1.0000000e+00 3.0000000e+00 -5.0000000e+00 
1.0000000e+00 3.0000000e+00 -4.5000000e+00 
1.0000000e+00 3.0000000e+00 -4.0000000e+00 
1.0000000e+00 3.0000000e+00 -3.5000000e+00 
1.0000000e+00 3.0000000e+00 -3.0000000e+00 
1.0000000e+00 3.0000000e+00 -2.5000000e+00 
1.0000000e+00 3.0000000e+00 -2.0000000e+00 
1.0000000e+00 3.0000000e+00 -1.5000000e+00 
1.0000000e+00 3.0000000e+00 -1.0000000e+00 
1.0000000e+00 3.0000000e+00 -5.0000000e-01 
1.0000000e+00 3.0000000e+00 0.0000000e+00 
1.0000000e+00 3.0000000e+00 5.0000000e-01 
1.0000000e+00 3.0000000e+00 1.0000000e+00 
1.0000000e+00 3.0000000e+00 1.5000000e+00 
1.0000000e+00 3.0000000e+00 2.0000000e+00 
1.0000000e+00 3.0000000e+00 2.5000000e+00 
1.0000000e+00 3.0000000e+00 3.0000000e+00 
1.0000000e+00 3.0000000e+00 3.5000000e+00 
1.0000000e+00 3.0000000e+00 4.0000000e+00 
1.0000000e+00 3.0000000e+00 4.5000000e+00 
1.0000000e+00 3.0000000e+00 5.0000000e+00 
1.0000000e+00 3.0000000e+00 5.5000000e+00 
1.0000000e+00 3.0000000e+00 6.0000000e+00 
1.0000000e+00 3.0000000e+00 6.5000000e+00 
1.0000000e+00 3.0000000e+00 7.0000000e+00 
1.0000000e+00 3.0000000e+00 7.5000000e+00 
1.0000000e+00 3.0000000e+00 8.0000000e+00 
1.0000000e+00 3.0000000e+00 8.5000000e+00 
1.0000000e+00 3.0000000e+00 9.0000000e+00 
1.0000000e+00 3.0000000e+00 9.5000000e+00 
1.0000000e+00 3.0000000e+00 1.0000000e+01 
1.0000000e+00 3.0000000e+00 1.0500000e+01 
1.0000000e+00 3.0000000e+00 1.1000000e+01 
1.0000000e+00 3.0000000e+00 1.1500000e+01 
1.0000000e+00 3.0000000e+00 1.2000000e+01 
1.0000000e+00 3.0000000e+00 1.2500000e+01 
1.0000000e+00 3.0000000e+00 1.3000000e+01 
1.0000000e+00 3.0000000e+00 1.3500000e+01 
1.0000000e+00 3.0000000e+00 1.4000000e+01 
1.0000000e+00 3.0000000e+00 1.4500000e+01 
1.0000000e+00 3.0250001e+00 -5.0000000e+00 
1.0000000e+00 3.0250001e+00 -4.5000000e+00 
1.0000000e+00 3.0250001e+00 -4.0000000e+00 
1.0000000e+00 3.0250001e+00 -3.5000000e+00 
1.0000000e+00 3.0250001e+00 -3.0000000e+00 
1.0000000e+00 3.0250001e+00 -2.5000000e+00 
1.0000000e+00 3.0250001e+00 -2.0000000e+00 
1.0000000e+00 3.0250001e+00 -1.5000000e+00 
1.0000000e+00 3.0250001e+00 -1.0000000e+00 
1.0000000e+00 3.0250001e+00 -5.0000000e-01 
1.0000000e+00 3.0250001e+00 0.0000000e+00 
1.0000000e+00 3.0250001e+00 5.0000000e-01 
1.0000000e+00 3.0250001e+00 1.0000000e+00 
1.0000000e+00 3.0250001e+00 1.5000000e+00 
1.0000000e+00 3.0250001e+00 2.0000000e+00 
1.0000000e+00 3.0250001e+00 2.5000000e+00 
1.0000000e+00 3.0250001e+00 3.0000000e+00 
1.0000000e+00 3.0250001e+00 3.5000000e+00 
1.0000000e+00 3.0250001e+00 4.0000000e+00 
1.0000000e+00 3.0250001e+00 4.5000000e+00 
1.0000000e+00 3.0250001e+00 5.0000000e+00 
1.0000000e+00 3.0250001e+00 5.5000000e+00 
1.0000000e+00 3.0250001e+00 6.0000000e+00 
1.0000000e+00 3.0250001e+00 6.5000000e+00 
1.0000000e+00 3.0250001e+00 7.0000000e+00 
1.0000000e+00 3.0250001e+00 7.5000000e+00 
1.0000000e+00 3.0250001e+00 8.0000000e+00 
1.0000000e+00 3.0250001e+00 8.5000000e+00 
1.0000000e+00 3.0250001e+00 9.0000000e+00 
1.0000000e+00 3.0250001e+00 9.5000000e+00 
1.0000000e+00 3.0250001e+00 1.0000000e+01 
1.0000000e+00 3.0250001e+00 1.0500000e+01 
1.0000000e+00 3.0250001e+00 1.1000000e+01 
1.0000000e+00 3.0250001e+00 1.1500000e+01 
1.0000000e+00 3.0250001e+00 1.2000000e+01 
1.0000000e+00 3.0250001e+00 1.2500000e+01 
1.0000000e+00 3.0250001e+00 1.3000000e+01 
1.0000000e+00 3.0250001e+00 1.3500000e+01 
1.0000000e+00 3.0250001e+00 1.4000000e+01 
1.0000000e+00 3.0250001e+00 1.4500000e+01 
1.0000000e+00 -2.0000000e+00 -5.0000000e+00 
1.0000000e+00 -2.0000000e+00 -4.5000000e+00 
1.0000000e+00 -2.0000000e+00 -4.0000000e+00 
1.0000000e+00 -2.0000000e+00 -3.5000000e+00 
1.0000000e+00 -2.0000000e+00 -3.0000000e+00 
1.0000000e+00 -2.0000000e+00 -2.5000000e+00 
1.0000000e+00 -2.0000000e+00 -2.0000000e+00 
1.0000000e+00 -2.0000000e+00 -1.5000000e+00 
1.0000000e+00 -2.0000000e+00 -1.0000000e+00 
1.0000000e+00 -2.0000000e+00 -5.0000000e-01 
1.0000000e+00 -2.0000000e+00 1.0500000e+01 
1.0000000e+00 -2.0000000e+00 1.1000000e+01 
1.0000000e+00 -2.0000000e+00 1.1500000e+01 
1.0000000e+00 -2.0000000e+00 1.2000000e+01 
1.0000000e+00 -2.0000000e+00 1.2500000e+01 
1.0000000e+00 -2.0000000e+00 1.3000000e+01 
1.0000000e+00 -2.0000000e+00 1.3500000e+01 
1.0000000e+00 -2.0000000e+00 1.4000000e+01 
1.0000000e+00 -2.0000000e+00 1.4500000e+01 
1.0000000e+00 0.0000000e+00 0.0000000e+00 
2.0000000e+00 0.0000000e+00 0.0000000e+00 
3.0000000e+00 0.0000000e+00 0.0000000e+00 
4.0000000e+00 0.0000000e+00 0.0000000e+00 
5.0000000e+00 1.0000000e+00 0.0000000e+00 
5.0000000e+00 2.0000000e+00 0.0000000e+00 
0.0000000e+00 2.0000000e+00 0.0000000e+00 
0.0000000e+00 1.0000000e+00 0.0000000e+00 
0.0000000e+00 0.0000000e+00 1.0000000e+00 
0.0000000e+00 0.0000000e+00 2.0000000e+00 
0.0000000e+00 0.0000000e+00 3.0000000e+00 
0.0000000e+00 0.0000000e+00 4.0000000e+00 
0.0000000e+00 0.0000000e+00 5.0000000e+00 
0.0000000e+00 0.0000000e+00 6.0000000e+00 
0.0000000e+00 0.0000000e+00 7.0000000e+00 
0.0000000e+00 0.0000000e+00 8.0000000e+00 
0.0000000e+00 0.0000000e+00 9.0000000e+00 
5.0000000e+00 0.0000000e+00 1.0000000e+00 
5.0000000e+00 0.0000000e+00 2.0000000e+00 
5.0000000e+00 0.0000000e+00 3.0000000e+00 
5.0000000e+00 0.0000000e+00 4.0000000e+00 
5.0000000e+00 0.0000000e+00 5.0000000e+00 
5.0000000e+00 0.0000000e+00 6.0000000e+00 
5.0000000e+00 0.0000000e+00 7.0000000e+00 
5.0000000e+00 0.0000000e+00 8.0000000e+00 
5.0000000e+00 0.0000000e+00 9.0000000e+00 
1.0000000e+00 0.0000000e+00 1.0000000e+01 
2.0000000e+00 0.0000000e+00 1.0000000e+01 
3.0000000e+00 0.0000000e+00 1.0000000e+01 
4.0000000e+00 0.0000000e+00 1.0000000e+01 
5.0000000e+00 3.0000000e+00 1.0000000e+00 
5.0000000e+00 3.0000000e+00 2.0000000e+00 
5.0000000e+00 3.0000000e+00 3.0000000e+00 
5.0000000e+00 3.0000000e+00 4.0000000e+00 
5.0000000e+00 3.0000000e+00 5.0000000e+00 
5.0000000e+00 3.0000000e+00 6.0000000e+00 
5.0000000e+00 3.0000000e+00 7.0000000e+00 
5.0000000e+00 3.0000000e+00 8.0000000e+00 
5.0000000e+00 3.0000000e+00 9.0000000e+00 
5.0000000e+00 1.0000000e+00 1.0000000e+01 
5.0000000e+00 2.0000000e+00 1.0000000e+01 
0.0000000e+00 3.0000000e+00 1.0000000e+00 
0.0000000e+00 3.0000000e+00 2.0000000e+00 
0.0000000e+00 3.0000000e+00 3.0000000e+00 
0.0000000e+00 3.0000000e+00 4.0000000e+00 
0.0000000e+00 3.0000000e+00 5.0000000e+00 
0.0000000e+00 3.0000000e+00 6.0000000e+00 
0.0000000e+00 3.0000000e+00 7.0000000e+00 
0.0000000e+00 3.0000000e+00 8.0000000e+00 
0.0000000e+00 3.0000000e+00 9.0000000e+00 
0.0000000e+00 2.0000000e+00 1.0000000e+01 
0.0000000e+00 1.0000000e+00 1.0000000e+01 
4.0000000e+00 3.0000000e+00 0.0000000e+00 
3.0000000e+00 3.0000000e+00 0.0000000e+00 
2.0000000e+00 3.0000000e+00 0.0000000e+00 
4.0000000e+00 3.0000000e+00 1.0000000e+01 
3.0000000e+00 3.0000000e+00 1.0000000e+01 
2.0000000e+00 3.0000000e+00 1.0000000e+01 
4.0618000e+00 1.5000000e+00 0.0000000e+00 
1.5046000e+00 7.6549745e-01 0.0000000e+00 
2.5000000e+00 2.1339746e+00 0.0000000e+00 
1.5046000e+00 2.2345026e+00 0.0000000e+00 
2.4957771e+00 8.1560516e-01 0.0000000e+00 
3.4707544e+00 2.2336540e+00 0.0000000e+00 
3.4700506e+00 7.5794268e-01 0.0000000e+00 
8.6322361e-01 1.5000000e+00 0.0000000e+00 
2.0000000e+00 1.5000000e+00 0.0000000e+00 
2.9960666e+00 1.4974480e+00 0.0000000e+00 
4.2679491e+00 7.3205084e-01 0.0000000e+00 
4.2679491e+00 2.2679491e+00 0.0000000e+00 
7.2695929e-01 2.2730408e+00 0.0000000e+00 
7.2695929e-01 7.2695929e-01 0.0000000e+00 
4.1822505e+00 0.0000000e+00 2.5515697e+00 
4.2017918e+00 0.0000000e+00 4.4725966e+00 
4.1114569e+00 0.0000000e+00 6.5092020e+00 
8.6602539e-01 0.0000000e+00 3.5000000e+00 
8.4778279e-01 0.0000000e+00 5.4684029e+00 
8.9629614e-01 0.0000000e+00 7.5867257e+00 
2.5566745e+00 0.0000000e+00 8.1853306e-01 
2.4918270e+00 0.0000000e+00 9.1386929e+00 
8.4677207e-01 0.0000000e+00 1.5042374e+00 
4.0943027e+00 0.0000000e+00 8.4081745e+00 
8.6281651e-01 0.0000000e+00 2.5007062e+00 
1.7315160e+00 0.0000000e+00 3.0001178e+00 
1.7319617e+00 0.0000000e+00 4.0000196e+00 
2.5980761e+00 0.0000000e+00 3.5000000e+00 
2.5536871e+00 0.0000000e+00 4.4963923e+00 
2.5928419e+00 0.0000000e+00 2.4239938e+00 
1.5037409e+00 0.0000000e+00 9.1535149e+00 
1.8433737e+00 0.0000000e+00 8.1858873e+00 
3.0000000e+00 0.0000000e+00 8.2679491e+00 
2.5000000e+00 0.0000000e+00 7.4019237e+00 
3.5042722e+00 0.0000000e+00 7.4271150e+00 
3.0310018e+00 0.0000000e+00 6.5282087e+00 
2.0373929e+00 0.0000000e+00 6.5307913e+00 
3.4767809e+00 0.0000000e+00 5.8031492e+00 
2.5452602e+00 0.0000000e+00 5.5720768e+00 
1.6456656e+00 0.0000000e+00 1.9697139e+00 
8.6297011e-01 0.0000000e+00 4.4947371e+00 
1.0111579e+00 0.0000000e+00 6.5282545e+00 
3.4994321e+00 0.0000000e+00 8.4691072e-01 
4.1860156e+00 0.0000000e+00 3.5040276e+00 
1.7320508e+00 0.0000000e+00 5.0000000e+00 
4.0544066e+00 0.0000000e+00 1.5781221e+00 
1.5817389e+00 0.0000000e+00 9.3943578e-01 
8.3166349e-01 0.0000000e+00 8.5090933e+00 
3.4686174e+00 0.0000000e+00 9.1752682e+00 
3.0709300e+00 0.0000000e+00 1.5799091e+00 
3.3927374e+00 0.0000000e+00 3.0399952e+00 
3.3826034e+00 0.0000000e+00 3.9747651e+00 
4.3420062e+00 0.0000000e+00 7.4688983e+00 
3.4023225e+00 0.0000000e+00 4.9314723e+00 
1.6740381e+00 0.0000000e+00 7.3014426e+00 
4.2715640e+00 0.0000000e+00 5.4758859e+00 
1.6225953e+00 0.0000000e+00 5.8104177e+00 
4.2679491e+00 0.0000000e+00 9.2679491e+00 
7.3205084e-01 0.0000000e+00 7.3205084e-01 
4.2679491e+00 0.0000000e+00 7.3205084e-01 
7.3205084e-01 0.0000000e+00 9.2679491e+00 
3.4586334e+00 0.0000000e+00 2.2347178e+00 
2.2895701e+00 0.0000000e+00 1.5463171e+00 
5.0000000e+00 2.2345026e+00 1.5046000e+00 
[...]
POINT_DATA 460
FIELD FieldData 2
DISPLACEMENT 3 460  float
0.0000000e+00 0.0000000e+00 0.0000000e+00 
0.0000000e+00 0.0000000e+00 0.0000000e+00 
0.0000000e+00 -5.2097780e-06 0.0000000e+00 
0.0000000e+00 -1.2234416e-04 0.0000000e+00 
0.0000000e+00 0.0000000e+00 0.0000000e+00 
0.0000000e+00 0.0000000e+00 0.0000000e+00 
0.0000000e+00 4.4046004e-08 0.0000000e+00 
0.0000000e+00 3.3535954e-08 0.0000000e+00 
0.0000000e+00 -1.3804491e-05 0.0000000e+00 
0.0000000e+00 -1.2470936e-05 0.0000000e+00 
0.0000000e+00 -8.8014267e-06 0.0000000e+00 
0.0000000e+00 -3.7752989e-06 0.0000000e+00 
0.0000000e+00 6.4323666e-07 0.0000000e+00 
0.0000000e+00 1.0435862e-06 0.0000000e+00 
0.0000000e+00 -7.6470260e-06 0.0000000e+00 
0.0000000e+00 -3.1637555e-05 0.0000000e+00 
0.0000000e+00 -7.6331984e-05 0.0000000e+00 
0.0000000e+00 -1.4224458e-04 0.0000000e+00 
0.0000000e+00 -2.1904860e-04 0.0000000e+00 
-8.7479502e-06 -2.7225065e-04 -1.6201549e-05 
-1.3711835e-05 -2.6698573e-04 -1.2754893e-05 
-3.5272863e-06 -1.9202518e-04 -1.7963224e-05 
-4.4089825e-06 -1.1051623e-04 -2.6463738e-05 
-4.4970202e-06 -5.3406104e-05 -1.6041615e-05 
-2.6495093e-06 -2.2049357e-05 -1.1090633e-05 
-2.6692946e-06 -8.0285627e-06 -9.0604881e-06 
-1.3064561e-06 -2.6789555e-06 -5.0729905e-06 
-5.7014847e-07 -8.0175960e-07 -3.0313804e-06 
-2.0088552e-07 -2.6313626e-07 -1.5059975e-06 
-1.6117528e-07 -1.1262445e-07 -8.0626961e-07 
-1.5269558e-07 -4.3655586e-08 -5.4132255e-07 
-7.2189877e-08 3.1285530e-09 -2.8164075e-07 
-4.8685990e-08 3.7046647e-08 -1.5240528e-07 
-2.9349762e-08 5.9175129e-08 -7.4140026e-08 
-2.1051314e-08 6.6250898e-08 -4.2991015e-08 
-1.3131086e-08 6.2585102e-08 -1.1352940e-08 
-7.9262241e-09 5.3539239e-08 -1.8645594e-09 
-4.3930992e-09 4.3588454e-08 -8.6318225e-10 
0.0000000e+00 3.3137830e-08 0.0000000e+00 
0.0000000e+00 2.1713216e-08 0.0000000e+00 
0.0000000e+00 1.2111266e-08 0.0000000e+00 
0.0000000e+00 5.3646092e-09 0.0000000e+00 
0.0000000e+00 1.4352929e-09 0.0000000e+00 
0.0000000e+00 -3.1102446e-10 0.0000000e+00 
0.0000000e+00 -6.6712769e-10 0.0000000e+00 
0.0000000e+00 -3.5389830e-10 0.0000000e+00 
0.0000000e+00 7.6721129e-11 0.0000000e+00 
0.0000000e+00 2.6738656e-10 0.0000000e+00 
0.0000000e+00 -1.3800664e-05 0.0000000e+00 
0.0000000e+00 -1.2462549e-05 0.0000000e+00 
0.0000000e+00 -8.7811304e-06 0.0000000e+00 
0.0000000e+00 -3.7398797e-06 0.0000000e+00 
0.0000000e+00 6.8890012e-07 0.0000000e+00 
0.0000000e+00 1.0811196e-06 0.0000000e+00 
0.0000000e+00 -7.6554334e-06 0.0000000e+00 
0.0000000e+00 -3.1752857e-05 0.0000000e+00 
0.0000000e+00 -7.6635115e-05 0.0000000e+00 
0.0000000e+00 -1.4281693e-04 0.0000000e+00 
0.0000000e+00 -2.1917619e-04 0.0000000e+00 
0.0000000e+00 -2.7607626e-04 0.0000000e+00 
0.0000000e+00 -2.7164517e-04 0.0000000e+00 
0.0000000e+00 -1.9490182e-04 0.0000000e+00 
0.0000000e+00 -1.1155956e-04 0.0000000e+00 
0.0000000e+00 -5.3746673e-05 0.0000000e+00 
0.0000000e+00 -2.2062002e-05 0.0000000e+00 
0.0000000e+00 -7.8923449e-06 0.0000000e+00 
0.0000000e+00 -2.5634984e-06 0.0000000e+00 
0.0000000e+00 -7.6270044e-07 0.0000000e+00 
0.0000000e+00 -2.4140923e-07 0.0000000e+00 
0.0000000e+00 -1.0350957e-07 0.0000000e+00 
0.0000000e+00 -4.1953186e-08 0.0000000e+00 
0.0000000e+00 3.5190395e-09 0.0000000e+00 
0.0000000e+00 3.7286181e-08 0.0000000e+00 
0.0000000e+00 5.8843582e-08 0.0000000e+00 
0.0000000e+00 6.6142533e-08 0.0000000e+00 
0.0000000e+00 6.2563061e-08 0.0000000e+00 
0.0000000e+00 5.3642498e-08 0.0000000e+00 
0.0000000e+00 4.3580510e-08 0.0000000e+00 
0.0000000e+00 3.3014999e-08 0.0000000e+00 
0.0000000e+00 2.1787706e-08 0.0000000e+00 
0.0000000e+00 1.2153171e-08 0.0000000e+00 
0.0000000e+00 5.3838880e-09 0.0000000e+00 
0.0000000e+00 1.4410968e-09 0.0000000e+00 
0.0000000e+00 -3.1198108e-10 0.0000000e+00 
0.0000000e+00 -6.7069444e-10 0.0000000e+00 
0.0000000e+00 -3.5796074e-10 0.0000000e+00 
0.0000000e+00 7.2906743e-11 0.0000000e+00 
0.0000000e+00 2.6375918e-10 0.0000000e+00 
0.0000000e+00 0.0000000e+00 0.0000000e+00 
0.0000000e+00 0.0000000e+00 0.0000000e+00 
0.0000000e+00 0.0000000e+00 0.0000000e+00 
0.0000000e+00 0.0000000e+00 0.0000000e+00 
0.0000000e+00 0.0000000e+00 0.0000000e+00 
0.0000000e+00 0.0000000e+00 0.0000000e+00 
0.0000000e+00 0.0000000e+00 0.0000000e+00 
0.0000000e+00 0.0000000e+00 0.0000000e+00 
0.0000000e+00 0.0000000e+00 0.0000000e+00 
0.0000000e+00 0.0000000e+00 0.0000000e+00 
0.0000000e+00 0.0000000e+00 0.0000000e+00 
0.0000000e+00 0.0000000e+00 0.0000000e+00 
0.0000000e+00 0.0000000e+00 0.0000000e+00 
0.0000000e+00 0.0000000e+00 0.0000000e+00 
0.0000000e+00 0.0000000e+00 0.0000000e+00 
0.0000000e+00 0.0000000e+00 0.0000000e+00 
0.0000000e+00 0.0000000e+00 0.0000000e+00 
0.0000000e+00 0.0000000e+00 0.0000000e+00 
0.0000000e+00 0.0000000e+00 0.0000000e+00 
0.0000000e+00 0.0000000e+00 0.0000000e+00 
0.0000000e+00 0.0000000e+00 0.0000000e+00 
0.0000000e+00 0.0000000e+00 0.0000000e+00 
0.0000000e+00 0.0000000e+00 0.0000000e+00 
0.0000000e+00 -2.7023045e-06 0.0000000e+00 
0.0000000e+00 -4.8072798e-06 0.0000000e+00 
0.0000000e+00 -1.0124694e-04 0.0000000e+00 
0.0000000e+00 -5.0729919e-05 0.0000000e+00 
0.0000000e+00 0.0000000e+00 0.0000000e+00 
0.0000000e+00 0.0000000e+00 0.0000000e+00 
0.0000000e+00 0.0000000e+00 0.0000000e+00 
0.0000000e+00 0.0000000e+00 0.0000000e+00 
0.0000000e+00 0.0000000e+00 0.0000000e+00 
0.0000000e+00 0.0000000e+00 0.0000000e+00 
0.0000000e+00 0.0000000e+00 0.0000000e+00 
0.0000000e+00 0.0000000e+00 0.0000000e+00 
0.0000000e+00 0.0000000e+00 0.0000000e+00 
0.0000000e+00 0.0000000e+00 0.0000000e+00 
0.0000000e+00 0.0000000e+00 0.0000000e+00 
0.0000000e+00 0.0000000e+00 0.0000000e+00 
0.0000000e+00 0.0000000e+00 0.0000000e+00 
0.0000000e+00 0.0000000e+00 0.0000000e+00 
0.0000000e+00 0.0000000e+00 0.0000000e+00 
0.0000000e+00 0.0000000e+00 0.0000000e+00 
0.0000000e+00 0.0000000e+00 0.0000000e+00 
0.0000000e+00 0.0000000e+00 0.0000000e+00 
0.0000000e+00 0.0000000e+00 0.0000000e+00 
0.0000000e+00 0.0000000e+00 0.0000000e+00 
0.0000000e+00 0.0000000e+00 0.0000000e+00 
0.0000000e+00 0.0000000e+00 0.0000000e+00 
0.0000000e+00 -4.2940378e-06 0.0000000e+00 
0.0000000e+00 -1.5222543e-06 0.0000000e+00 
0.0000000e+00 -1.2384140e-06 0.0000000e+00 
0.0000000e+00 1.5398459e-07 0.0000000e+00 
0.0000000e+00 2.0656630e-07 0.0000000e+00 
0.0000000e+00 3.2014503e-07 0.0000000e+00 
0.0000000e+00 1.6697172e-07 0.0000000e+00 
0.0000000e+00 1.0843880e-07 0.0000000e+00 
0.0000000e+00 5.8036200e-08 0.0000000e+00 
0.0000000e+00 2.1694953e-08 0.0000000e+00 
0.0000000e+00 3.9350876e-08 0.0000000e+00 
0.0000000e+00 -1.2292848e-04 0.0000000e+00 
0.0000000e+00 -7.0220784e-05 0.0000000e+00 
0.0000000e+00 -2.5264577e-05 0.0000000e+00 
0.0000000e+00 -6.9379585e-06 0.0000000e+00 
0.0000000e+00 -1.6178824e-06 0.0000000e+00 
0.0000000e+00 -3.0325256e-07 0.0000000e+00 
0.0000000e+00 -2.1212633e-08 0.0000000e+00 
0.0000000e+00 3.7746446e-08 0.0000000e+00 
0.0000000e+00 3.7967954e-08 0.0000000e+00 
0.0000000e+00 2.8840169e-08 0.0000000e+00 
0.0000000e+00 1.5826499e-08 0.0000000e+00 
0.0000000e+00 -9.5883679e-06 0.0000000e+00 
0.0000000e+00 -2.6574831e-05 0.0000000e+00 
0.0000000e+00 -6.6970075e-05 0.0000000e+00 
0.0000000e+00 4.5841887e-08 0.0000000e+00 
0.0000000e+00 4.6934900e-08 0.0000000e+00 
0.0000000e+00 4.5611575e-08 0.0000000e+00 
0.0000000e+00 -6.5591735e-06 0.0000000e+00 
0.0000000e+00 -2.9485856e-05 0.0000000e+00 
0.0000000e+00 -3.8996659e-05 0.0000000e+00 
0.0000000e+00 -1.0153894e-04 0.0000000e+00 
0.0000000e+00 -1.8013234e-05 0.0000000e+00 
0.0000000e+00 -1.5544745e-05 0.0000000e+00 
0.0000000e+00 -5.8133778e-06 0.0000000e+00 
0.0000000e+00 -8.2285151e-05 0.0000000e+00 
0.0000000e+00 -4.6867524e-05 0.0000000e+00 
0.0000000e+00 -1.9648634e-05 0.0000000e+00 
0.0000000e+00 -3.2622902e-06 0.0000000e+00 
0.0000000e+00 -7.3840911e-06 0.0000000e+00 
0.0000000e+00 -1.3443906e-04 0.0000000e+00 
0.0000000e+00 -3.7786591e-05 0.0000000e+00 
0.0000000e+00 0.0000000e+00 0.0000000e+00 
0.0000000e+00 0.0000000e+00 0.0000000e+00 
0.0000000e+00 0.0000000e+00 0.0000000e+00 
0.0000000e+00 0.0000000e+00 0.0000000e+00 
0.0000000e+00 0.0000000e+00 0.0000000e+00 
0.0000000e+00 0.0000000e+00 0.0000000e+00 
0.0000000e+00 0.0000000e+00 0.0000000e+00 
0.0000000e+00 0.0000000e+00 0.0000000e+00 
0.0000000e+00 0.0000000e+00 0.0000000e+00 
0.0000000e+00 0.0000000e+00 0.0000000e+00 
0.0000000e+00 0.0000000e+00 0.0000000e+00 
0.0000000e+00 0.0000000e+00 0.0000000e+00 
0.0000000e+00 0.0000000e+00 0.0000000e+00 
0.0000000e+00 0.0000000e+00 0.0000000e+00 
0.0000000e+00 0.0000000e+00 0.0000000e+00 
0.0000000e+00 0.0000000e+00 0.0000000e+00 
0.0000000e+00 0.0000000e+00 0.0000000e+00 
0.0000000e+00 0.0000000e+00 0.0000000e+00 
0.0000000e+00 0.0000000e+00 0.0000000e+00 
0.0000000e+00 0.0000000e+00 0.0000000e+00 
0.0000000e+00 0.0000000e+00 0.0000000e+00 
0.0000000e+00 0.0000000e+00 0.0000000e+00 
0.0000000e+00 0.0000000e+00 0.0000000e+00 
0.0000000e+00 0.0000000e+00 0.0000000e+00 
0.0000000e+00 0.0000000e+00 0.0000000e+00 
0.0000000e+00 0.0000000e+00 0.0000000e+00 
0.0000000e+00 0.0000000e+00 0.0000000e+00 
0.0000000e+00 0.0000000e+00 0.0000000e+00 
0.0000000e+00 0.0000000e+00 0.0000000e+00 
0.0000000e+00 0.0000000e+00 0.0000000e+00 
0.0000000e+00 0.0000000e+00 0.0000000e+00 
0.0000000e+00 0.0000000e+00 0.0000000e+00 
0.0000000e+00 0.0000000e+00 0.0000000e+00 
0.0000000e+00 0.0000000e+00 0.0000000e+00 
0.0000000e+00 0.0000000e+00 0.0000000e+00 
0.0000000e+00 0.0000000e+00 0.0000000e+00 
0.0000000e+00 0.0000000e+00 0.0000000e+00 
0.0000000e+00 0.0000000e+00 0.0000000e+00 
0.0000000e+00 0.0000000e+00 0.0000000e+00 
0.0000000e+00 0.0000000e+00 0.0000000e+00 
0.0000000e+00 0.0000000e+00 0.0000000e+00 
0.0000000e+00 0.0000000e+00 0.0000000e+00 
0.0000000e+00 0.0000000e+00 0.0000000e+00 
0.0000000e+00 0.0000000e+00 0.0000000e+00 
0.0000000e+00 0.0000000e+00 0.0000000e+00 
0.0000000e+00 0.0000000e+00 0.0000000e+00 
0.0000000e+00 0.0000000e+00 0.0000000e+00 
0.0000000e+00 0.0000000e+00 0.0000000e+00 
0.0000000e+00 0.0000000e+00 0.0000000e+00 
0.0000000e+00 -1.7914858e-06 0.0000000e+00 
0.0000000e+00 3.8967460e-08 0.0000000e+00 
0.0000000e+00 9.8510640e-08 0.0000000e+00 
0.0000000e+00 3.7430294e-07 0.0000000e+00 
0.0000000e+00 1.2984587e-07 0.0000000e+00 
0.0000000e+00 -1.1243696e-06 0.0000000e+00 
0.0000000e+00 6.0391638e-09 0.0000000e+00 
0.0000000e+00 8.6821736e-08 0.0000000e+00 
0.0000000e+00 -2.7374097e-07 0.0000000e+00 
0.0000000e+00 1.0410729e-07 0.0000000e+00 
0.0000000e+00 -1.2268539e-06 0.0000000e+00 
0.0000000e+00 2.6972998e-07 0.0000000e+00 
0.0000000e+00 2.1547842e-07 0.0000000e+00 
0.0000000e+00 5.8881493e-08 0.0000000e+00 
0.0000000e+00 -1.9721617e-06 0.0000000e+00 
0.0000000e+00 3.0416057e-08 0.0000000e+00 
0.0000000e+00 7.4903738e-08 0.0000000e+00 
0.0000000e+00 -2.7191015e-06 0.0000000e+00 
0.0000000e+00 2.8845730e-07 0.0000000e+00 
0.0000000e+00 1.3394983e-07 0.0000000e+00 
0.0000000e+00 -1.7241756e-06 0.0000000e+00 
0.0000000e+00 2.1442672e-07 0.0000000e+00 
0.0000000e+00 9.4823704e-08 0.0000000e+00 
0.0000000e+00 -5.8868551e-07 0.0000000e+00 
0.0000000e+00 7.9554212e-08 0.0000000e+00 
0.0000000e+00 4.9022468e-08 0.0000000e+00 
0.0000000e+00 1.8839453e-08 0.0000000e+00 
0.0000000e+00 -3.3413098e-06 0.0000000e+00 
0.0000000e+00 -1.5573449e-06 0.0000000e+00 
0.0000000e+00 2.4676687e-08 0.0000000e+00 
0.0000000e+00 -7.1096263e-05 0.0000000e+00 
0.0000000e+00 -1.7774952e-05 0.0000000e+00 
0.0000000e+00 -1.4490153e-06 0.0000000e+00 
0.0000000e+00 -8.3298293e-09 0.0000000e+00 
0.0000000e+00 -1.2057045e-05 0.0000000e+00 
0.0000000e+00 -6.5786043e-07 0.0000000e+00 
0.0000000e+00 1.5057015e-08 0.0000000e+00 
0.0000000e+00 -6.3956572e-06 0.0000000e+00 
0.0000000e+00 -3.8485428e-05 0.0000000e+00 
0.0000000e+00 -3.1880309e-06 0.0000000e+00 
0.0000000e+00 -1.2283411e-07 0.0000000e+00 
0.0000000e+00 -2.2337679e-07 0.0000000e+00 
0.0000000e+00 3.1081125e-08 0.0000000e+00 
0.0000000e+00 -8.5646148e-05 0.0000000e+00 
0.0000000e+00 -2.6169782e-05 0.0000000e+00 
0.0000000e+00 9.0721368e-09 0.0000000e+00 
0.0000000e+00 -1.2292194e-06 0.0000000e+00 
0.0000000e+00 -4.3551822e-08 0.0000000e+00 
0.0000000e+00 -5.7102320e-06 0.0000000e+00 
0.0000000e+00 -1.7468528e-05 0.0000000e+00 
0.0000000e+00 -1.9477746e-08 0.0000000e+00 
0.0000000e+00 -3.1323592e-07 0.0000000e+00 
0.0000000e+00 1.8707432e-08 0.0000000e+00 
0.0000000e+00 -4.2767399e-05 0.0000000e+00 
0.0000000e+00 1.1613644e-08 0.0000000e+00 
0.0000000e+00 -1.1240892e-04 0.0000000e+00 
0.0000000e+00 -3.3286378e-05 0.0000000e+00 
0.0000000e+00 3.2763875e-08 0.0000000e+00 
0.0000000e+00 1.3680518e-08 0.0000000e+00 
0.0000000e+00 3.2712848e-08 0.0000000e+00 
0.0000000e+00 4.3263089e-08 0.0000000e+00 
0.0000000e+00 3.8998699e-08 0.0000000e+00 
0.0000000e+00 1.7272917e-08 0.0000000e+00 
0.0000000e+00 4.3352490e-08 0.0000000e+00 
0.0000000e+00 1.5730254e-08 0.0000000e+00 
0.0000000e+00 2.5984283e-08 0.0000000e+00 
0.0000000e+00 3.0975652e-08 0.0000000e+00 
0.0000000e+00 3.2446255e-08 0.0000000e+00 
0.0000000e+00 1.5153688e-08 0.0000000e+00 
0.0000000e+00 4.1450850e-08 0.0000000e+00 
0.0000000e+00 3.2392659e-08 0.0000000e+00 
0.0000000e+00 1.1570179e-08 0.0000000e+00 
-6.5186202e-07 -1.0394122e-06 -2.8129086e-06 
-1.6892800e-07 -4.3351545e-09 -5.3441198e-07 
-3.1248600e-08 8.6433786e-08 -6.0433770e-08 
-1.1446309e-05 -5.1190033e-05 -1.6922550e-05 
-4.1565963e-06 -1.3597713e-05 -9.5958467e-06 
-2.9339452e-07 2.6479918e-07 -3.7400650e-07 
-2.0747177e-06 -1.9819572e-06 -1.6626512e-06 
-4.2827502e-08 1.5767529e-07 -3.0849044e-08 
-9.2717246e-06 -1.3197372e-04 -1.2839268e-05 
-1.1536604e-08 6.3465457e-08 -6.0193006e-09 
-9.5176238e-06 -1.4984761e-05 -2.8849661e-06 
-5.7619678e-09 5.7522573e-08 -4.6288576e-10 
-7.1337638e-08 2.6408904e-07 -6.9963789e-08 
-1.0735695e-07 2.2486562e-07 -1.7447736e-07 
-3.7791086e-08 1.2618061e-07 -5.5945147e-08 
-6.3673291e-08 1.7258020e-07 -9.0373355e-08 
-1.4782788e-07 1.7321784e-07 -2.5318232e-07 
-1.6332153e-08 9.8590114e-08 -2.0966128e-08 
-9.0615721e-08 1.5800829e-07 -1.6831282e-07 
-2.5579232e-07 2.3354551e-07 -4.0221539e-07 
-5.6575925e-07 1.1625488e-07 -7.3901629e-07 
-4.9444031e-07 -4.4919855e-08 -8.9352079e-07 
-9.9579574e-07 -3.3700564e-07 -1.8410756e-06 
-1.3750538e-06 -1.6528898e-07 -1.8148696e-06 
-2.0801592e-06 -1.9330478e-06 -3.8477656e-06 
-2.2008132e-06 -1.9673887e-06 -2.4985604e-06 
-4.5621373e-06 -6.3814527e-06 -6.3967432e-06 
-4.8843767e-06 -6.8210406e-06 -5.1854317e-06 
-6.1107112e-06 -1.3966123e-05 -7.8848707e-06 
-7.1781601e-06 -1.1543633e-05 -5.8851037e-06 
-1.3530241e-05 -2.9853210e-05 -9.4296320e-06 
-4.5233864e-07 -9.7480815e-08 -1.1522311e-06 
-2.9152986e-07 2.7936387e-08 -6.4813014e-07 
-3.2747596e-06 -5.5154760e-06 -6.3200196e-06 
-1.4098308e-06 -6.7928460e-07 -1.4085174e-06 
-7.0941955e-09 5.9287128e-08 -4.9741780e-09 
-1.2905132e-06 -1.5227334e-06 -3.1320922e-06 
-5.7420885e-07 2.6203421e-07 -7.0986732e-07 
-1.2348352e-05 -4.0786588e-05 -4.7622329e-06 
-8.3267748e-09 8.5856620e-08 4.7465565e-09 
-3.5403104e-08 1.0183943e-07 -5.4388412e-08 
-2.6902351e-08 8.1043929e-08 -2.8677164e-08 
-3.0415563e-07 -2.0085542e-08 -9.7742873e-07 
-3.5408104e-06 -4.1322160e-06 -1.3903699e-06 
-6.2361673e-06 -2.8220384e-05 -1.3992470e-05 
-5.5855744e-06 -1.3808346e-05 -9.6759741e-06 
-2.6368286e-06 -6.3373127e-06 -7.3461179e-06 
-1.2788450e-06 -2.3514963e-06 -3.9890801e-06 
-1.0098589e-07 1.0479762e-07 -2.6128052e-07 
-5.2429023e-08 9.9498727e-08 -1.0193906e-07 
-1.9479088e-05 -1.5434461e-04 -1.0522816e-05 
-1.5852891e-05 -8.7704328e-05 -1.7768642e-05 
-5.8667813e-09 5.0143793e-08 -9.2498076e-10 
-1.0716960e-05 -1.8595261e-05 -5.3550252e-06 
-9.1661732e-06 -2.8080374e-05 -1.3260746e-05 
-2.0480163e-08 6.9214359e-08 -2.5872200e-08 
-1.5051691e-07 1.5269286e-07 -2.9807995e-07 
-1.9458603e-05 -6.0325667e-05 -1.4373328e-05 
-4.3458945e-07 -4.7410191e-07 -1.7817206e-06 
-1.3401726e-08 9.0346020e-08 -1.7573706e-08 
-2.5407412e-09 5.5722293e-08 3.3890302e-09 
-3.5068319e-06 -6.2122613e-06 -7.9220416e-07 
-1.3856981e-06 -6.8996775e-07 -1.7039437e-06 
-1.4787761e-05 -5.0627361e-05 -1.5966278e-05 
-1.0546601e-08 6.5839615e-08 -4.2669925e-09 
-2.2141724e-07 1.8387927e-07 -4.1082075e-07 
-5.9574031e-06 -6.6514172e-06 -3.5688624e-06 
-3.3881474e-06 -2.9639177e-06 -3.1329437e-06 
-1.1411574e-05 -8.7416011e-05 -1.1814351e-05 
-7.3943863e-07 -8.6686765e-07 -2.1266958e-06 
-5.3715765e-09 5.3260329e-08 -8.0585610e-10 
-4.7585040e-06 -7.1135721e-05 -1.1529236e-05 
-9.7193024e-06 -1.1266542e-04 -1.5901021e-05 
-1.7003237e-06 -3.8094498e-05 -1.1568705e-05 
-1.3405297e-06 -1.9575418e-05 -8.1374328e-06 
-1.1580097e-05 -1.5377186e-04 -1.2935845e-05 
-1.0524529e-06 -9.7366192e-06 -4.0832188e-06 
-1.0167533e-07 -4.0144196e-06 -2.1978435e-06 
-1.6385891e-07 -1.6293420e-06 -1.2271280e-06 
2.9518885e-08 -7.4432427e-07 -6.6318415e-07 
-9.3135029e-08 -3.0495491e-07 -4.5138393e-07 
-4.1240877e-08 -1.3238717e-07 -3.1941883e-07 
-4.2796263e-08 -3.5598365e-08 -2.0106326e-07 
-1.8776282e-08 3.9109725e-08 -1.0016746e-07 
-1.5655607e-08 5.3010240e-08 -5.0297430e-08 
-1.0918039e-08 5.2371256e-08 -2.4031728e-08 
-6.5770771e-09 4.3551559e-08 -9.5454737e-09 
-4.6242601e-09 4.0138922e-08 -1.7114472e-09 
2.6919911e-06 -1.6435994e-04 -6.0428820e-06 
7.3046540e-06 -3.5787423e-05 1.0756923e-05 
2.0984412e-06 -7.1566456e-06 5.1066208e-06 
1.3430865e-07 -2.9109205e-07 8.1299368e-07 
1.5114820e-08 9.4791865e-08 1.3290004e-07 
2.5606803e-09 5.1427474e-08 1.9163741e-08 
3.4880009e-06 -4.9438609e-06 3.5162950e-06 
6.9722262e-07 -4.5600385e-07 1.2629563e-06 
4.7874920e-08 1.6982871e-07 2.1066383e-07 
8.0008036e-08 -2.0755406e-06 1.3931668e-06 
1.7396775e-06 -2.6300177e-05 6.0343395e-06 
8.3255909e-06 -9.4911404e-05 9.3353747e-06 
1.6737195e-08 8.7883848e-08 3.3941724e-08 
7.3862934e-06 -1.9700745e-05 3.3035953e-06 
1.3091669e-08 1.0247263e-08 1.3204536e-07 
-6.6647710e-09 7.0162201e-08 1.9671866e-08 
-1.1334777e-07 -8.1376138e-06 1.6990010e-06 
8.0259582e-08 -9.7297902e-07 7.4203314e-07 
3.2544499e-06 -1.4021374e-05 3.9586698e-06 
-2.9853538e-08 -3.8932362e-07 1.3628605e-08 
6.7111807e-07 -1.3974000e-06 2.1766616e-06 
4.0702794e-06 -6.3324602e-05 6.5296435e-06 
2.0422365e-07 1.9912918e-07 3.5797427e-07 
-1.4105842e-09 4.8646836e-08 1.9338104e-09 
3.2371775e-06 -4.3312734e-06 1.3480359e-06 
3.0100595e-09 5.8652713e-08 2.4327491e-09 
2.4678570e-06 -1.2933393e-05 6.9749658e-06 
4.5928360e-07 -2.8236823e-07 1.0133953e-06 
6.4045130e-06 -1.1697531e-05 5.8408273e-06 
2.6429782e-06 -4.1858939e-06 3.8004380e-06 
7.3403231e-07 -3.2731789e-06 1.0392903e-06 
7.2736888e-09 1.8562035e-07 1.6107869e-08 
-2.0525802e-08 1.7497834e-07 2.1161505e-08 
-1.4088450e-08 8.5254193e-08 4.2949821e-09 
-6.7123452e-08 8.1633772e-08 -4.1132653e-09 
4.5130188e-09 3.5114134e-08 1.0330193e-08 
3.2557912e-09 1.0789462e-07 2.5118913e-08 
8.0949749e-06 -2.1737715e-05 4.9969362e-06 
8.1324873e-07 -8.8826476e-07 6.8009257e-07 
5.6926247e-06 -4.1351010e-05 7.9244865e-06 
3.0920999e-10 -5.4608346e-08 3.1061882e-07 
5.7939201e-07 -3.0568040e-06 2.7952099e-06 
-1.7156416e-09 5.0881763e-08 3.6579730e-09 
-2.2709050e-09 2.7775076e-08 4.9790177e-08 
-4.1195440e-07 -4.2470838e-06 -1.0034540e-07 
7.1653126e-06 -4.6106510e-05 5.0990197e-06 
-7.2004234e-08 1.9653204e-07 2.6548070e-08 
1.5287343e-06 -1.4731976e-06 1.2099134e-06 
1.2560141e-08 4.9810758e-08 5.4253317e-08 
2.1452970e-06 -1.2975225e-05 1.3172468e-06 
1.2229994e-07 -7.2890793e-07 1.1048184e-06 
9.2260905e-07 -2.9813616e-06 3.0490801e-07 
2.2948068e-08 7.0968191e-08 2.8709069e-08 
-6.4122059e-09 7.2051286e-08 1.9416984e-09 
-4.2804889e-08 1.5027973e-07 -6.6140259e-08 
-7.5957960e-09 -2.1308531e-07 3.1593623e-07 
7.6159736e-08 1.9619598e-08 3.8745478e-07 
1.0345553e-09 2.4129907e-08 1.1660882e-08 
1.9145123e-06 -8.4265521e-06 4.1830270e-07 
2.2433138e-08 2.2118431e-07 -1.8961376e-08 
5.2924958e-07 -2.3884201e-07 5.9691365e-07 
-2.7177038e-08 3.1318942e-07 1.3199597e-08 
7.2465625e-08 1.2832730e-07 1.0559271e-07 
1.9152085e-06 -3.1994965e-05 1.8701357e-06 
-9.0793657e-09 6.9400208e-08 -5.4442730e-09 