# vtk DataFile Version 4.0
vtk output
ASCII
DATASET UNSTRUCTURED_GRID
POINTS 460 float
0.0000000e+00 0.0000000e+00 0.0000000e+00 
5.0000000e+00 0.0000000e+00 0.0000000e+00 
5.0000000e+00 3.0000000e+00 0.0000000e+00 
0.0000000e+00 3.0000000e+00 0.0000000e+00 
0.0000000e+00 0.0000000e+00 1.0000000e+01 
5.0000000e+00 0.0000000e+00 1.0000000e+01 
5.0000000e+00 3.0000000e+00 1.0000000e+01 
0.0000000e+00 3.0000000e+00 1.0000000e+01 
1.0000000e+00 3.0000000e+00 -5.0000000e+00 
1.0000000e+00 3.0000000e+00 -4.5000000e+00 
1.0000000e+00 3.0000000e+00 -4.0000000e+00 
1.0000000e+00 3.0000000e+00 -3.5000000e+00 
1.0000000e+00 3.0000000e+00 -3.0000000e+00 
1.0000000e+00 3.0000000e+00 -2.5000000e+00 
1.0000000e+00 3.0000000e+00 -2.0000000e+00 
1.0000000e+00 3.0000000e+00 -1.5000000e+00 
1.0000000e+00 3.0000000e+00 -1.0000000e+00 
1.0000000e+00 3.0000000e+00 -5.0000000e-01 
1.0000000e+00 3.0000000e+00 0.0000000e+00 
1.0000000e+00 3.0000000e+00 5.0000000e-01 
1.0000000e+00 3.0000000e+00 1.0000000e+00 
1.0000000e+00 3.0000000e+00 1.5000000e+00 
1.0000000e+00 3.0000000e+00 2.0000000e+00 
1.0000000e+00 3.0000000e+00 2.5000000e+00 
1.0000000e+00 3.0000000e+00 3.0000000e+00 
1.0000000e+00 3.0000000e+00 3.5000000e+00 
1.0000000e+00 3.0000000e+00 4.0000000e+00 
1.0000000e+00 3.0000000e+00 4.5000000e+00 
1.0000000e+00 3.0000000e+00 5.0000000e+00 
1.0000000e+00 3.0000000e+00 5.5000000e+00 
1.0000000e+00 3.0000000e+00 6.0000000e+00 
1.0000000e+00 3.0000000e+00 6.5000000e+00 
1.0000000e+00 3.0000000e+00 7.0000000e+00 
1.0000000e+00 3.0000000e+00 7.5000000e+00 
1.0000000e+00 3.0000000e+00 8.0000000e+00 
1.0000000e+00 3.0000000e+00 8.5000000e+00 
1.0000000e+00 3.0000000e+00 9.0000000e+00 
1.0000000e+00 3.0000000e+00 9.5000000e+00 
1.0000000e+00 3.0000000e+00 1.0000000e+01 
1.0000000e+00 3.0000000e+00 1.0500000e+01 
1.0000000e+00 3.0000000e+00 1.1000000e+01 
1.0000000e+00 3.0000000e+00 1.1500000e+01 
1.0000000e+00 3.0000000e+00 1.2000000e+01 
1.0000000e+00 3.0000000e+00 1.2500000e+01 
1.0000000e+00 3.0000000e+00 1.3000000e+01 
1.0000000e+00 3.0000000e+00 1.3500000e+01 
1.0000000e+00 3.0000000e+00 1.4000000e+01 
1.0000000e+00 3.0000000e+00 1.4500000e+01 
1.0000000e+00 3.0250001e+00 -5.0000000e+00 
1.0000000e+00 3.0250001e+00 -4.5000000e+00 
1.0000000e+00 3.0250001e+00 -4.0000000e+00 
1.0000000e+00 3.0250001e+00 -3.5000000e+00 
1.0000000e+00 3.0250001e+00 -3.0000000e+00 
1.0000000e+00 3.0250001e+00 -2.5000000e+00 
1.0000000e+00 3.0250001e+00 -2.0000000e+00 
1.0000000e+00 3.0250001e+00 -1.5000000e+00 
1.0000000e+00 3.0250001e+00 -1.0000000e+00 
1.0000000e+00 3.0250001e+00 -5.0000000e-01 
1.0000000e+00 3.0250001e+00 0.0000000e+00 
1.0000000e+00 3.0250001e+00 5.0000000e-01 
1.0000000e+00 3.0250001e+00 1.0000000e+00 
1.0000000e+00 3.0250001e+00 1.5000000e+00 
1.0000000e+00 3.0250001e+00 2.0000000e+00 
1.0000000e+00 3.0250001e+00 2.5000000e+00 
1.0000000e+00 3.0250001e+00 3.0000000e+00 
1.0000000e+00 3.0250001e+00 3.5000000e+00 
1.0000000e+00 3.0250001e+00 4.0000000e+00 
1.0000000e+00 3.0250001e+00 4.5000000e+00 
1.0000000e+00 3.0250001e+00 5.0000000e+00 
1.0000000e+00 3.0250001e+00 5.5000000e+00 
1.0000000e+00 3.0250001e+00 6.0000000e+00 
1.0000000e+00 3.0250001e+00 6.5000000e+00 
1.0000000e+00 3.0250001e+00 7.0000000e+00 
1.0000000e+00 3.0250001e+00 7.5000000e+00 
1.0000000e+00 3.0250001e+00 8.0000000e+00 
1.0000000e+00 3.0250001e+00 8.5000000e+00 
1.0000000e+00 3.0250001e+00 9.0000000e+00 
1.0000000e+00 3.0250001e+00 9.5000000e+00 
1.0000000e+00 3.0250001e+00 1.0000000e+01 
1.0000000e+00 3.0250001e+00 1.0500000e+01 
1.0000000e+00 3.0250001e+00 1.1000000e+01 
1.0000000e+00 3.0250001e+00 1.1500000e+01 
1.0000000e+00 3.0250001e+00 1.2000000e+01 
1.0000000e+00 3.0250001e+00 1.2500000e+01 
1.0000000e+00 3.0250001e+00 1.3000000e+01 
1.0000000e+00 3.0250001e+00 1.3500000e+01 
1.0000000e+00 3.0250001e+00 1.4000000e+01 
1.0000000e+00 3.0250001e+00 1.4500000e+01 
1.0000000e+00 -2.0000000e+00 -5.0000000e+00 
1.0000000e+00 -2.0000000e+00 -4.5000000e+00 
1.0000000e+00 -2.0000000e+00 -4.0000000e+00 
1.0000000e+00 -2.0000000e+00 -3.5000000e+00 
1.0000000e+00 -2.0000000e+00 -3.0000000e+00 
1.0000000e+00 -2.0000000e+00 -2.5000000e+00 
1.0000000e+00 -2.0000000e+00 -2.0000000e+00 
1.0000000e+00 -2.0000000e+00 -1.5000000e+00 
1.0000000e+00 -2.0000000e+00 -1.0000000e+00 
1.0000000e+00 -2.0000000e+00 -5.0000000e-01 
1.0000000e+00 -2.0000000e+00 1.0500000e+01 
1.0000000e+00 -2.0000000e+00 1.1000000e+01 
1.0000000e+00 -2.0000000e+00 1.1500000e+01 
1.0000000e+00 -2.0000000e+00 1.2000000e+01 
1.0000000e+00 -2.0000000e+00 1.2500000e+01 
1.0000000e+00 -2.0000000e+00 1.3000000e+01 
1.0000000e+00 -2.0000000e+00 1.3500000e+01 
1.0000000e+00 -2.0000000e+00 1.4000000e+01 
1.0000000e+00 -2.0000000e+00 1.4500000e+01 
1.0000000e+00 0.0000000e+00 0.0000000e+00 
2.0000000e+00 0.0000000e+00 0.0000000e+00 
3.0000000e+00 0.0000000e+00 0.0000000e+00 
4.0000000e+00 0.0000000e+00 0.0000000e+00 
5.0000000e+00 1.0000000e+00 0.0000000e+00 
5.0000000e+00 2.0000000e+00 0.0000000e+00 
0.0000000e+00 2.0000000e+00 0.0000000e+00 
0.0000000e+00 1.0000000e+00 0.0000000e+00 
0.0000000e+00 0.0000000e+00 1.0000000e+00 
0.0000000e+00 0.0000000e+00 2.0000000e+00 
0.0000000e+00 0.0000000e+00 3.0000000e+00 
0.0000000e+00 0.0000000e+00 4.0000000e+00 
0.0000000e+00 0.0000000e+00 5.0000000e+00 
0.0000000e+00 0.0000000e+00 6.0000000e+00 
0.0000000e+00 0.0000000e+00 7.0000000e+00 
0.0000000e+00 0.0000000e+00 8.0000000e+00 
0.0000000e+00 0.0000000e+00 9.0000000e+00 
5.0000000e+00 0.0000000e+00 1.0000000e+00 
5.0000000e+00 0.0000000e+00 2.0000000e+00 
5.0000000e+00 0.0000000e+00 3.0000000e+00 
5.0000000e+00 0.0000000e+00 4.0000000e+00 
5.0000000e+00 0.0000000e+00 5.0000000e+00 
5.0000000e+00 0.0000000e+00 6.0000000e+00 
5.0000000e+00 0.0000000e+00 7.0000000e+00 
5.0000000e+00 0.0000000e+00 8.0000000e+00 
5.0000000e+00 0.0000000e+00 9.0000000e+00 
1.0000000e+00 0.0000000e+00 1.0000000e+01 
2.0000000e+00 0.0000000e+00 1.0000000e+01 
3.0000000e+00 0.0000000e+00 1.0000000e+01 
4.0000000e+00 0.0000000e+00 1.0000000e+01 
5.0000000e+00 3.0000000e+00 1.0000000e+00 
5.0000000e+00 3.0000000e+00 2.0000000e+00 
5.0000000e+00 3.0000000e+00 3.0000000e+00 
5.0000000e+00 3.0000000e+00 4.0000000e+00 
5.0000000e+00 3.0000000e+00 5.0000000e+00 
5.0000000e+00 3.0000000e+00 6.0000000e+00 
5.0000000e+00 3.0000000e+00 7.0000000e+00 
5.0000000e+00 3.0000000e+00 8.0000000e+00 
5.0000000e+00 3.0000000e+00 9.0000000e+00 
5.0000000e+00 1.0000000e+00 1.0000000e+01 
5.0000000e+00 2.0000000e+00 1.0000000e+01 
0.0000000e+00 3.0000000e+00 1.0000000e+00 
0.0000000e+00 3.0000000e+00 2.0000000e+00 
0.0000000e+00 3.0000000e+00 3.0000000e+00 
0.0000000e+00 3.0000000e+00 4.0000000e+00 
0.0000000e+00 3.0000000e+00 5.0000000e+00 
0.0000000e+00 3.0000000e+00 6.0000000e+00 
0.0000000e+00 3.0000000e+00 7.0000000e+00 
0.0000000e+00 3.0000000e+00 8.0000000e+00 
0.0000000e+00 3.0000000e+00 9.0000000e+00 
0.0000000e+00 2.0000000e+00 1.0000000e+01 
0.0000000e+00 1.0000000e+00 1.0000000e+01 
4.0000000e+00 3.0000000e+00 0.0000000e+00 
3.0000000e+00 3.0000000e+00 0.0000000e+00 
2.0000000e+00 3.0000000e+00 0.0000000e+00 
4.0000000e+00 3.0000000e+00 1.0000000e+01 
3.0000000e+00 3.0000000e+00 1.0000000e+01 
2.0000000e+00 3.0000000e+00 1.0000000e+01 
4.0618000e+00 1.5000000e+00 0.0000000e+00 
1.5046000e+00 7.6549745e-01 0.0000000e+00 
2.5000000e+00 2.1339746e+00 0.0000000e+00 
1.5046000e+00 2.2345026e+00 0.0000000e+00 
2.4957771e+00 8.1560516e-01 0.0000000e+00 
3.4707544e+00 2.2336540e+00 0.0000000e+00 
3.4700506e+00 7.5794268e-01 0.0000000e+00 
8.6322361e-01 1.5000000e+00 0.0000000e+00 
2.0000000e+00 1.5000000e+00 0.0000000e+00 
2.9960666e+00 1.4974480e+00 0.0000000e+00 
4.2679491e+00 7.3205084e-01 0.0000000e+00 
4.2679491e+00 2.2679491e+00 0.0000000e+00 
7.2695929e-01 2.2730408e+00 0.0000000e+00 
7.2695929e-01 7.2695929e-01 0.0000000e+00 
4.1822505e+00 0.0000000e+00 2.5515697e+00 
4.2017918e+00 0.0000000e+00 4.4725966e+00 
4.1114569e+00 0.0000000e+00 6.5092020e+00 
8.6602539e-01 0.0000000e+00 3.5000000e+00 
8.4778279e-01 0.0000000e+00 5.4684029e+00 
8.9629614e-01 0.0000000e+00 7.5867257e+00 
2.5566745e+00 0.0000000e+00 8.1853306e-01 
2.4918270e+00 0.0000000e+00 9.1386929e+00 
8.4677207e-01 0.0000000e+00 1.5042374e+00 
4.0943027e+00 0.0000000e+00 8.4081745e+00 
8.6281651e-01 0.0000000e+00 2.5007062e+00 
1.7315160e+00 0.0000000e+00 3.0001178e+00 
1.7319617e+00 0.0000000e+00 4.0000196e+00 
2.5980761e+00 0.0000000e+00 3.5000000e+00 
2.5536871e+00 0.0000000e+00 4.4963923e+00 
2.5928419e+00 0.0000000e+00 2.4239938e+00 
1.5037409e+00 0.0000000e+00 9.1535149e+00 
1.8433737e+00 0.0000000e+00 8.1858873e+00 
3.0000000e+00 0.0000000e+00 8.2679491e+00 
2.5000000e+00 0.0000000e+00 7.4019237e+00 
3.5042722e+00 0.0000000e+00 7.4271150e+00 
3.0310018e+00 0.0000000e+00 6.5282087e+00 
2.0373929e+00 0.0000000e+00 6.5307913e+00 
3.4767809e+00 0.0000000e+00 5.8031492e+00 
2.5452602e+00 0.0000000e+00 5.5720768e+00 
1.6456656e+00 0.0000000e+00 1.9697139e+00 
8.6297011e-01 0.0000000e+00 4.4947371e+00 
1.0111579e+00 0.0000000e+00 6.5282545e+00 
3.4994321e+00 0.0000000e+00 8.4691072e-01 
4.1860156e+00 0.0000000e+00 3.5040276e+00 
1.7320508e+00 0.0000000e+00 5.0000000e+00 
4.0544066e+00 0.0000000e+00 1.5781221e+00 
1.5817389e+00 0.0000000e+00 9.3943578e-01 
8.3166349e-01 0.0000000e+00 8.5090933e+00 
3.4686174e+00 0.0000000e+00 9.1752682e+00 
3.0709300e+00 0.0000000e+00 1.5799091e+00 
3.3927374e+00 0.0000000e+00 3.0399952e+00 
3.3826034e+00 0.0000000e+00 3.9747651e+00 
4.3420062e+00 0.0000000e+00 7.4688983e+00 
3.4023225e+00 0.0000000e+00 4.9314723e+00 
1.6740381e+00 0.0000000e+00 7.3014426e+00 
4.2715640e+00 0.0000000e+00 5.4758859e+00 
1.6225953e+00 0.0000000e+00 5.8104177e+00 
4.2679491e+00 0.0000000e+00 9.2679491e+00 
7.3205084e-01 0.0000000e+00 7.3205084e-01 
4.2679491e+00 0.0000000e+00 7.3205084e-01 
7.3205084e-01 0.0000000e+00 9.2679491e+00 
3.4586334e+00 0.0000000e+00 2.2347178e+00 
2.2895701e+00 0.0000000e+00 1.5463171e+00 
5.0000000e+00 2.2345026e+00 1.5046000e+00 
[...]
POINT_DATA 460
FIELD FieldData 2
DISPLACEMENT 3 460  float
0.0000000e+00 0.0000000e+00 0.0000000e+00 
0.0000000e+00 0.0000000e+00 0.0000000e+00 
0.0000000e+00 8.5711591e-08 0.0000000e+00 
0.0000000e+00 -5.4737707e-06 0.0000000e+00 
0.0000000e+00 0.0000000e+00 0.0000000e+00 
0.0000000e+00 0.0000000e+00 0.0000000e+00 
0.0000000e+00 3.1054404e-07 0.0000000e+00 
0.0000000e+00 6.8287180e-09 0.0000000e+00 
0.0000000e+00 -5.0169990e-07 0.0000000e+00 
0.0000000e+00 -4.9383175e-07 0.0000000e+00 
0.0000000e+00 -4.6546387e-07 0.0000000e+00 
0.0000000e+00 -4.1118281e-07 0.0000000e+00 
0.0000000e+00 -3.3002911e-07 0.0000000e+00 
0.0000000e+00 -2.2999410e-07 0.0000000e+00 
0.0000000e+00 -1.3463058e-07 0.0000000e+00 
0.0000000e+00 -9.0707061e-08 0.0000000e+00 
0.0000000e+00 -1.7356679e-07 0.0000000e+00 
0.0000000e+00 -4.8343412e-07 0.0000000e+00 
0.0000000e+00 -1.1647732e-06 0.0000000e+00 
-8.1507886e-07 -2.4574301e-06 2.6485513e-06 
-2.2740719e-06 -6.0133557e-06 6.8727331e-06 
-2.7165054e-06 -1.5461894e-05 9.5500718e-06 
-3.8363073e-06 -3.8164468e-05 1.5715388e-05 
-4.2412948e-06 -8.3448052e-05 1.3929500e-05 
-4.5835864e-06 -1.5647215e-04 9.1637421e-06 
-1.3650311e-05 -2.3662220e-04 1.4621550e-05 
-2.0308491e-06 -2.4544512e-04 1.5879125e-06 
-1.4627070e-05 -1.7617298e-04 -1.9913716e-05 
-8.7036733e-06 -9.9335048e-05 -1.5800049e-05 
-3.5181686e-06 -4.7695885e-05 -1.5139877e-05 
-3.9784882e-06 -2.0105781e-05 -9.9212020e-06 
-2.0440309e-06 -7.5259718e-06 -6.8894415e-06 
-1.5203477e-06 -2.5597524e-06 -4.7846197e-06 
-7.6251808e-07 -8.3389330e-07 -3.0360218e-06 
-4.9497112e-07 -2.7442078e-07 -2.0225489e-06 
-2.3082077e-07 -7.7728046e-08 -9.9753186e-07 
-1.3086076e-07 2.4004601e-08 -5.6255959e-07 
-7.6290064e-08 8.7690673e-08 -2.6763723e-07 
0.0000000e+00 9.6285838e-08 0.0000000e+00 
0.0000000e+00 7.8557228e-08 0.0000000e+00 
0.0000000e+00 5.2554238e-08 0.0000000e+00 
0.0000000e+00 2.9162560e-08 0.0000000e+00 
0.0000000e+00 1.2381777e-08 0.0000000e+00 
0.0000000e+00 2.3316242e-09 0.0000000e+00 
0.0000000e+00 -2.5749658e-09 0.0000000e+00 
0.0000000e+00 -4.3078279e-09 0.0000000e+00 
0.0000000e+00 -4.5558961e-09 0.0000000e+00 
0.0000000e+00 -4.4779074e-09 0.0000000e+00 
0.0000000e+00 -5.0179352e-07 0.0000000e+00 
0.0000000e+00 -4.9395970e-07 0.0000000e+00 
0.0000000e+00 -4.6569772e-07 0.0000000e+00 
0.0000000e+00 -4.1140228e-07 0.0000000e+00 
0.0000000e+00 -3.3005693e-07 0.0000000e+00 
0.0000000e+00 -2.2975708e-07 0.0000000e+00 
0.0000000e+00 -1.3419658e-07 0.0000000e+00 
0.0000000e+00 -9.0315538e-08 0.0000000e+00 
0.0000000e+00 -1.7374049e-07 0.0000000e+00 
0.0000000e+00 -4.8507115e-07 0.0000000e+00 
0.0000000e+00 -1.1256150e-06 0.0000000e+00 
0.0000000e+00 -2.4036540e-06 0.0000000e+00 
0.0000000e+00 -5.8903197e-06 0.0000000e+00 
0.0000000e+00 -1.5352563e-05 0.0000000e+00 
0.0000000e+00 -3.8158960e-05 0.0000000e+00 
0.0000000e+00 -8.4008505e-05 0.0000000e+00 
0.0000000e+00 -1.5824585e-04 0.0000000e+00 
0.0000000e+00 -2.3963787e-04 0.0000000e+00 
0.0000000e+00 -2.5062592e-04 0.0000000e+00 
0.0000000e+00 -1.7818536e-04 0.0000000e+00 
0.0000000e+00 -1.0052930e-04 0.0000000e+00 
0.0000000e+00 -4.7973266e-05 0.0000000e+00 
0.0000000e+00 -2.0023910e-05 0.0000000e+00 
0.0000000e+00 -7.4120394e-06 0.0000000e+00 
0.0000000e+00 -2.4773447e-06 0.0000000e+00 
0.0000000e+00 -7.8864269e-07 0.0000000e+00 
0.0000000e+00 -2.5612067e-07 0.0000000e+00 
0.0000000e+00 -7.0709703e-08 0.0000000e+00 
0.0000000e+00 2.6388181e-08 0.0000000e+00 
0.0000000e+00 8.5562711e-08 0.0000000e+00 
0.0000000e+00 9.6690670e-08 0.0000000e+00 
0.0000000e+00 7.8868275e-08 0.0000000e+00 
0.0000000e+00 5.2762896e-08 0.0000000e+00 
0.0000000e+00 2.9278837e-08 0.0000000e+00 
0.0000000e+00 1.2431634e-08 0.0000000e+00 
0.0000000e+00 2.3415954e-09 0.0000000e+00 
0.0000000e+00 -2.5845566e-09 0.0000000e+00 
0.0000000e+00 -4.3244075e-09 0.0000000e+00 
0.0000000e+00 -4.5735478e-09 0.0000000e+00 
0.0000000e+00 -4.4952828e-09 0.0000000e+00 
0.0000000e+00 0.0000000e+00 0.0000000e+00 
0.0000000e+00 0.0000000e+00 0.0000000e+00 
0.0000000e+00 0.0000000e+00 0.0000000e+00 
0.0000000e+00 0.0000000e+00 0.0000000e+00 
0.0000000e+00 0.0000000e+00 0.0000000e+00 
0.0000000e+00 0.0000000e+00 0.0000000e+00 
0.0000000e+00 0.0000000e+00 0.0000000e+00 
0.0000000e+00 0.0000000e+00 0.0000000e+00 
0.0000000e+00 0.0000000e+00 0.0000000e+00 
0.0000000e+00 0.0000000e+00 0.0000000e+00 
0.0000000e+00 0.0000000e+00 0.0000000e+00 
0.0000000e+00 0.0000000e+00 0.0000000e+00 
0.0000000e+00 0.0000000e+00 0.0000000e+00 
0.0000000e+00 0.0000000e+00 0.0000000e+00 
0.0000000e+00 0.0000000e+00 0.0000000e+00 
0.0000000e+00 0.0000000e+00 0.0000000e+00 
0.0000000e+00 0.0000000e+00 0.0000000e+00 
0.0000000e+00 0.0000000e+00 0.0000000e+00 
0.0000000e+00 0.0000000e+00 0.0000000e+00 
0.0000000e+00 0.0000000e+00 0.0000000e+00 
0.0000000e+00 0.0000000e+00 0.0000000e+00 
0.0000000e+00 0.0000000e+00 0.0000000e+00 
0.0000000e+00 0.0000000e+00 0.0000000e+00 
0.0000000e+00 -5.9965281e-08 0.0000000e+00 
0.0000000e+00 4.9905179e-08 0.0000000e+00 
0.0000000e+00 -4.9856890e-06 0.0000000e+00 
0.0000000e+00 -3.0825415e-06 0.0000000e+00 
0.0000000e+00 0.0000000e+00 0.0000000e+00 
0.0000000e+00 0.0000000e+00 0.0000000e+00 
0.0000000e+00 0.0000000e+00 0.0000000e+00 
0.0000000e+00 0.0000000e+00 0.0000000e+00 
0.0000000e+00 0.0000000e+00 0.0000000e+00 
0.0000000e+00 0.0000000e+00 0.0000000e+00 
0.0000000e+00 0.0000000e+00 0.0000000e+00 
0.0000000e+00 0.0000000e+00 0.0000000e+00 
0.0000000e+00 0.0000000e+00 0.0000000e+00 
0.0000000e+00 0.0000000e+00 0.0000000e+00 
0.0000000e+00 0.0000000e+00 0.0000000e+00 
0.0000000e+00 0.0000000e+00 0.0000000e+00 
0.0000000e+00 0.0000000e+00 0.0000000e+00 
0.0000000e+00 0.0000000e+00 0.0000000e+00 
0.0000000e+00 0.0000000e+00 0.0000000e+00 
0.0000000e+00 0.0000000e+00 0.0000000e+00 
0.0000000e+00 0.0000000e+00 0.0000000e+00 
0.0000000e+00 0.0000000e+00 0.0000000e+00 
0.0000000e+00 0.0000000e+00 0.0000000e+00 
0.0000000e+00 0.0000000e+00 0.0000000e+00 
0.0000000e+00 0.0000000e+00 0.0000000e+00 
0.0000000e+00 0.0000000e+00 0.0000000e+00 
0.0000000e+00 -2.1792177e-07 0.0000000e+00 
0.0000000e+00 -2.9707985e-07 0.0000000e+00 
0.0000000e+00 -1.5288682e-06 0.0000000e+00 
0.0000000e+00 -1.0709176e-06 0.0000000e+00 
0.0000000e+00 -1.3775052e-06 0.0000000e+00 
0.0000000e+00 4.4302385e-07 0.0000000e+00 
0.0000000e+00 7.4981244e-08 0.0000000e+00 
0.0000000e+00 3.9486665e-07 0.0000000e+00 
0.0000000e+00 3.0325992e-07 0.0000000e+00 
0.0000000e+00 1.1835730e-07 0.0000000e+00 
0.0000000e+00 2.6246641e-07 0.0000000e+00 
0.0000000e+00 -1.0355726e-05 0.0000000e+00 
0.0000000e+00 -3.5225854e-05 0.0000000e+00 
0.0000000e+00 -8.3907231e-05 0.0000000e+00 
0.0000000e+00 -1.0077438e-04 0.0000000e+00 
0.0000000e+00 -5.9347960e-05 0.0000000e+00 
0.0000000e+00 -2.0952002e-05 0.0000000e+00 
0.0000000e+00 -6.3615867e-06 0.0000000e+00 
0.0000000e+00 -1.4211126e-06 0.0000000e+00 
0.0000000e+00 -2.4389959e-07 0.0000000e+00 
0.0000000e+00 -9.6365760e-09 0.0000000e+00 
0.0000000e+00 -3.2466652e-08 0.0000000e+00 
0.0000000e+00 -8.7110315e-08 0.0000000e+00 
0.0000000e+00 -1.6233564e-06 0.0000000e+00 
0.0000000e+00 -3.4125528e-06 0.0000000e+00 
0.0000000e+00 2.9270134e-07 0.0000000e+00 
0.0000000e+00 2.4527631e-07 0.0000000e+00 
0.0000000e+00 2.3696795e-07 0.0000000e+00 
0.0000000e+00 -6.5318574e-08 0.0000000e+00 
0.0000000e+00 -1.8662708e-06 0.0000000e+00 
0.0000000e+00 -1.0689675e-06 0.0000000e+00 
0.0000000e+00 -2.1024571e-06 0.0000000e+00 
0.0000000e+00 -8.7821149e-07 0.0000000e+00 
0.0000000e+00 -1.0350006e-07 0.0000000e+00 
0.0000000e+00 -6.1309214e-07 0.0000000e+00 
0.0000000e+00 -2.8473630e-06 0.0000000e+00 
0.0000000e+00 -1.6516487e-06 0.0000000e+00 
0.0000000e+00 -6.6909973e-07 0.0000000e+00 
0.0000000e+00 -8.9501874e-08 0.0000000e+00 
0.0000000e+00 9.5013185e-08 0.0000000e+00 
0.0000000e+00 -3.1991990e-06 0.0000000e+00 
0.0000000e+00 -1.6213121e-06 0.0000000e+00 
0.0000000e+00 0.0000000e+00 0.0000000e+00 
0.0000000e+00 0.0000000e+00 0.0000000e+00 
0.0000000e+00 0.0000000e+00 0.0000000e+00 
0.0000000e+00 0.0000000e+00 0.0000000e+00 
0.0000000e+00 0.0000000e+00 0.0000000e+00 
0.0000000e+00 0.0000000e+00 0.0000000e+00 
0.0000000e+00 0.0000000e+00 0.0000000e+00 
0.0000000e+00 0.0000000e+00 0.0000000e+00 
0.0000000e+00 0.0000000e+00 0.0000000e+00 
0.0000000e+00 0.0000000e+00 0.0000000e+00 
0.0000000e+00 0.0000000e+00 0.0000000e+00 
0.0000000e+00 0.0000000e+00 0.0000000e+00 
0.0000000e+00 0.0000000e+00 0.0000000e+00 
0.0000000e+00 0.0000000e+00 0.0000000e+00 
0.0000000e+00 0.0000000e+00 0.0000000e+00 
0.0000000e+00 0.0000000e+00 0.0000000e+00 
0.0000000e+00 0.0000000e+00 0.0000000e+00 
0.0000000e+00 0.0000000e+00 0.0000000e+00 
0.0000000e+00 0.0000000e+00 0.0000000e+00 
0.0000000e+00 0.0000000e+00 0.0000000e+00 
0.0000000e+00 0.0000000e+00 0.0000000e+00 
0.0000000e+00 0.0000000e+00 0.0000000e+00 
0.0000000e+00 0.0000000e+00 0.0000000e+00 
0.0000000e+00 0.0000000e+00 0.0000000e+00 
0.0000000e+00 0.0000000e+00 0.0000000e+00 
0.0000000e+00 0.0000000e+00 0.0000000e+00 
0.0000000e+00 0.0000000e+00 0.0000000e+00 
0.0000000e+00 0.0000000e+00 0.0000000e+00 
0.0000000e+00 0.0000000e+00 0.0000000e+00 
0.0000000e+00 0.0000000e+00 0.0000000e+00 
0.0000000e+00 0.0000000e+00 0.0000000e+00 
0.0000000e+00 0.0000000e+00 0.0000000e+00 
0.0000000e+00 0.0000000e+00 0.0000000e+00 
0.0000000e+00 0.0000000e+00 0.0000000e+00 
0.0000000e+00 0.0000000e+00 0.0000000e+00 
0.0000000e+00 0.0000000e+00 0.0000000e+00 
0.0000000e+00 0.0000000e+00 0.0000000e+00 
0.0000000e+00 0.0000000e+00 0.0000000e+00 
0.0000000e+00 0.0000000e+00 0.0000000e+00 
0.0000000e+00 0.0000000e+00 0.0000000e+00 
0.0000000e+00 0.0000000e+00 0.0000000e+00 
0.0000000e+00 0.0000000e+00 0.0000000e+00 
0.0000000e+00 0.0000000e+00 0.0000000e+00 
0.0000000e+00 0.0000000e+00 0.0000000e+00 
0.0000000e+00 0.0000000e+00 0.0000000e+00 
0.0000000e+00 0.0000000e+00 0.0000000e+00 
0.0000000e+00 0.0000000e+00 0.0000000e+00 
0.0000000e+00 0.0000000e+00 0.0000000e+00 
0.0000000e+00 0.0000000e+00 0.0000000e+00 
0.0000000e+00 -1.0442808e-07 0.0000000e+00 
0.0000000e+00 1.9429459e-07 0.0000000e+00 
0.0000000e+00 -6.5160054e-07 0.0000000e+00 
0.0000000e+00 1.6221428e-07 0.0000000e+00 
0.0000000e+00 3.9699452e-07 0.0000000e+00 
0.0000000e+00 -7.3284190e-07 0.0000000e+00 
0.0000000e+00 -7.6543728e-07 0.0000000e+00 
0.0000000e+00 -2.5580508e-07 0.0000000e+00 
0.0000000e+00 -9.4021721e-07 0.0000000e+00 
0.0000000e+00 -5.2904932e-07 0.0000000e+00 
0.0000000e+00 -5.4866990e-07 0.0000000e+00 
0.0000000e+00 -8.1697658e-07 0.0000000e+00 
0.0000000e+00 2.4660255e-07 0.0000000e+00 
0.0000000e+00 3.6168151e-09 0.0000000e+00 
0.0000000e+00 -6.0636029e-07 0.0000000e+00 
0.0000000e+00 7.7321957e-08 0.0000000e+00 
0.0000000e+00 3.2410225e-07 0.0000000e+00 
0.0000000e+00 -5.6172542e-08 0.0000000e+00 
0.0000000e+00 -5.1506595e-07 0.0000000e+00 
0.0000000e+00 9.3496745e-08 0.0000000e+00 
0.0000000e+00 -6.3290025e-07 0.0000000e+00 
0.0000000e+00 -9.7143570e-08 0.0000000e+00 
0.0000000e+00 -7.4576337e-07 0.0000000e+00 
0.0000000e+00 -9.8269686e-07 0.0000000e+00 
0.0000000e+00 2.4932095e-07 0.0000000e+00 
0.0000000e+00 3.0960098e-07 0.0000000e+00 
0.0000000e+00 7.0507369e-08 0.0000000e+00 
0.0000000e+00 1.4146433e-07 0.0000000e+00 
0.0000000e+00 -1.7937232e-07 0.0000000e+00 
0.0000000e+00 -2.0595077e-07 0.0000000e+00 
0.0000000e+00 -7.9786460e-06 0.0000000e+00 
0.0000000e+00 -1.8328621e-05 0.0000000e+00 
0.0000000e+00 -2.2702907e-05 0.0000000e+00 
0.0000000e+00 -1.9070973e-06 0.0000000e+00 
0.0000000e+00 -8.2544517e-05 0.0000000e+00 
0.0000000e+00 -3.2167311e-05 0.0000000e+00 
0.0000000e+00 -3.1258280e-06 0.0000000e+00 
0.0000000e+00 -2.7534510e-05 0.0000000e+00 
0.0000000e+00 -4.9151626e-05 0.0000000e+00 
0.0000000e+00 -7.1196882e-05 0.0000000e+00 
0.0000000e+00 -1.1759246e-05 0.0000000e+00 
0.0000000e+00 -1.4327351e-05 0.0000000e+00 
0.0000000e+00 -7.2924428e-07 0.0000000e+00 
0.0000000e+00 -1.9092135e-05 0.0000000e+00 
0.0000000e+00 -8.5498277e-06 0.0000000e+00 
0.0000000e+00 -4.9185064e-07 0.0000000e+00 
0.0000000e+00 -3.5945366e-05 0.0000000e+00 
0.0000000e+00 -4.2423935e-06 0.0000000e+00 
0.0000000e+00 -5.4111235e-05 0.0000000e+00 
0.0000000e+00 -4.6776509e-05 0.0000000e+00 
0.0000000e+00 -4.8761854e-06 0.0000000e+00 
0.0000000e+00 -1.2395309e-05 0.0000000e+00 
0.0000000e+00 -1.2361810e-06 0.0000000e+00 
0.0000000e+00 -2.3498837e-05 0.0000000e+00 
0.0000000e+00 -1.4043634e-07 0.0000000e+00 
0.0000000e+00 -7.7337145e-06 0.0000000e+00 
0.0000000e+00 -4.2107595e-06 0.0000000e+00 
0.0000000e+00 -1.2342150e-07 0.0000000e+00 
0.0000000e+00 -4.3797388e-09 0.0000000e+00 
0.0000000e+00 2.0588443e-07 0.0000000e+00 
0.0000000e+00 3.2462734e-07 0.0000000e+00 
0.0000000e+00 2.7657674e-07 0.0000000e+00 
0.0000000e+00 1.1844441e-08 0.0000000e+00 
0.0000000e+00 3.4997905e-07 0.0000000e+00 
0.0000000e+00 8.0910944e-08 0.0000000e+00 
0.0000000e+00 9.9931363e-08 0.0000000e+00 
0.0000000e+00 1.8250751e-07 0.0000000e+00 
0.0000000e+00 2.3993303e-07 0.0000000e+00 
0.0000000e+00 7.0453879e-08 0.0000000e+00 
0.0000000e+00 3.3565874e-07 0.0000000e+00 
0.0000000e+00 1.2266486e-07 0.0000000e+00 
0.0000000e+00 -8.2147960e-09 0.0000000e+00 
-1.3384742e-05 -8.2363942e-05 -1.0424508e-05 
-4.0091359e-06 -1.5263015e-05 -8.4481026e-06 
-7.2087704e-07 -8.8462212e-07 -2.5029460e-06 
-9.5523001e-06 -4.1245628e-05 1.3609932e-05 
-6.8739541e-06 -1.0724834e-04 7.3128572e-06 
-2.6623841e-06 -9.2831232e-07 -9.5395012e-07 
-2.0598932e-06 -2.1065730e-06 4.0804423e-07 
-7.3639660e-07 7.1376512e-08 -6.5485682e-07 
-3.2780551e-06 -1.0105059e-05 6.9441780e-06 
-2.0398663e-07 -3.4599871e-08 -8.2397321e-07 
-1.9747474e-06 -1.6679088e-06 1.6697293e-06 
-1.6570984e-07 3.1361563e-07 -2.5728238e-07 
-1.0436651e-06 -2.8910824e-07 -9.1212996e-07 
-1.8148536e-06 -8.3479284e-07 -2.2173804e-06 
-8.0107975e-07 -4.2490265e-07 -1.3210363e-06 
-1.3131615e-06 -1.3771629e-06 -1.6255157e-06 
-2.6589857e-06 -4.2398592e-06 -2.8559455e-06 
-4.6260820e-07 -2.1641404e-07 -9.0912295e-07 
-1.8187508e-06 -2.9854557e-06 -4.1568032e-06 
-3.5739110e-06 -3.3254637e-06 -2.9950650e-06 
-4.6053055e-06 -6.0289603e-06 -2.5076613e-06 
-6.1509695e-06 -1.1177507e-05 -4.4421140e-06 
-1.0054441e-05 -2.0582274e-05 -5.3542581e-06 
-6.9359426e-06 -1.0312100e-05 -1.4645609e-06 
-1.1415924e-05 -2.6242278e-05 -1.0143016e-06 
-5.6095628e-06 -9.2408191e-06 5.5228437e-08 
-1.0321032e-05 -2.6827223e-05 3.6027486e-06 
-6.9216367e-06 -1.3446529e-05 2.7775516e-06 
-8.9090981e-06 -2.1267690e-05 4.6380233e-06 
-6.0225771e-06 -8.8260840e-06 3.3824269e-06 
-6.1826076e-06 -1.2006448e-05 5.4616958e-06 
-8.9365758e-06 -2.4655043e-05 -9.1502425e-06 
-6.2778859e-06 -1.4443563e-05 -7.1192626e-06 
-1.7127140e-05 -5.5337434e-05 1.2110112e-06 
-3.0484046e-06 -3.0054296e-06 3.8617318e-07 
-2.1534677e-07 2.6179862e-07 -4.1716069e-07 
-1.4613232e-05 -5.0399220e-05 -5.2822265e-06 
-2.8417969e-06 -2.6534974e-06 -1.0425340e-06 
-2.4880233e-06 -3.5092430e-06 2.6435678e-06 
-2.3711381e-07 3.3268418e-07 -2.6674314e-07 
-7.0855543e-07 -1.3183529e-06 -2.2404593e-06 
-5.8455259e-07 -4.1017248e-07 -1.5643609e-06 
-6.4814926e-06 -2.9499417e-05 -9.4863717e-06 
-1.4577895e-06 -8.6019924e-07 8.0499450e-07 
-9.7359562e-06 -6.5039043e-05 1.1588741e-05 
-8.4432677e-06 -5.1901876e-05 5.3435706e-06 
-1.2876718e-05 -1.3340369e-04 7.0734759e-06 
-1.3685994e-05 -1.1880502e-04 -7.4605236e-06 
-2.3080950e-06 -6.3170341e-06 -5.6321451e-06 
-1.0981927e-06 -2.6079572e-06 -3.2326238e-06 
-1.7304595e-06 -3.9060205e-06 4.1151620e-06 
-5.5203427e-06 -2.2027913e-05 9.8206947e-06 
-1.4178028e-07 2.0694452e-07 -4.0433224e-07 
-3.6805986e-06 -4.5955430e-06 3.4095508e-06 
-1.2033821e-05 -3.2359108e-05 1.0906383e-05 
-4.0940074e-07 -4.4621348e-07 -1.5449936e-06 
-3.0348697e-06 -7.2934804e-06 -4.9400255e-06 
-5.1237566e-06 -1.1710541e-05 7.5573362e-06 
-9.0648191e-06 -5.4561147e-05 -1.3347392e-05 
-3.6521880e-07 1.7981542e-07 -6.9699325e-07 
-9.3708181e-08 3.4930937e-07 -1.4096454e-07 
-8.3376625e-07 -2.7361273e-07 5.7645616e-07 
-4.9545401e-06 -6.0574921e-06 -2.0957620e-07 
-7.6812003e-06 -2.1688498e-05 1.0452624e-05 
-2.6874912e-07 1.1010867e-07 -6.5612335e-07 
-3.8829580e-06 -7.3428055e-06 -3.8809881e-06 
-2.8798622e-06 -3.0429974e-06 1.5739290e-06 
-4.0793489e-06 -5.5299261e-06 9.6568886e-07 
-2.4568524e-06 -5.6330327e-06 4.3523060e-06 
-1.4537835e-05 -4.3452110e-05 -9.9835934e-06 
-1.5272533e-07 2.6124331e-07 -2.9673009e-07 
-4.2308493e-06 -5.0547183e-05 9.3510953e-06 
-1.6180870e-06 -2.8616254e-05 9.9138433e-06 
-5.3356134e-06 -8.0838421e-05 1.0654261e-05 
-8.2554461e-06 -1.1343184e-04 6.3882285e-06 
-1.3501822e-06 -1.4210224e-05 6.8948111e-06 
-1.3475437e-06 -1.2353518e-04 6.4242028e-07 
-5.2682767e-06 -1.2067224e-04 -4.7807871e-06 
-2.1660924e-06 -8.5088192e-05 -5.0977251e-06 
-3.4855764e-06 -5.7408161e-05 -8.9469531e-06 
-2.3049408e-06 -3.0980584e-05 -8.1870330e-06 
-1.3570889e-06 -1.8634522e-05 -6.4685723e-06 
-8.1452077e-07 -8.4533431e-06 -5.4868556e-06 
-2.8786843e-07 -3.4884381e-06 -3.3511208e-06 
-2.7712866e-07 -1.4875609e-06 -2.0554221e-06 
-1.7146098e-07 -8.0079906e-07 -1.3043299e-06 
-7.5280809e-08 -3.5187929e-07 -7.3567674e-07 
-5.9911784e-08 -2.5166006e-08 -3.3056966e-07 
-6.2543177e-07 -6.4576525e-06 3.4475854e-06 
4.4741810e-06 -1.9012321e-05 -7.1517475e-06 
1.0435686e-05 -3.8023678e-05 -1.8030207e-06 
5.4212951e-06 -1.9519190e-05 6.2716363e-06 
9.5633652e-07 -3.0680537e-06 2.6401967e-06 
9.0917247e-08 -2.0521171e-07 7.0825035e-07 
4.5881561e-06 -6.7267142e-06 -2.0829150e-06 
4.8965831e-06 -6.2903496e-06 5.8502695e-07 
2.0255418e-06 -3.6231249e-06 2.3825453e-06 
7.7863506e-06 -5.9640894e-05 6.8400313e-06 
2.4954572e-06 -6.1490675e-05 -6.7324941e-06 
4.3299701e-07 -1.0653015e-05 -2.7657632e-06 
5.9632760e-07 -4.1961513e-07 1.0471675e-06 
1.7566032e-06 -4.5345901e-06 -1.9928150e-06 
1.3415500e-06 -1.3214051e-05 4.4661169e-06 
-3.4382815e-08 -1.1556976e-06 4.5835174e-07 
-1.3586273e-06 -1.0712133e-04 -5.3024846e-06 
6.7835408e-06 -2.3957702e-05 1.9338181e-06 
6.3491757e-06 -2.1577023e-05 -3.5310022e-06 
1.9018687e-06 -4.5221379e-05 6.3540724e-06 
7.8070625e-06 -1.8903382e-05 3.2403848e-06 
1.2822943e-06 -3.0178271e-05 -2.3861166e-06 
2.3298135e-06 -2.2333008e-06 1.2076054e-06 
-3.6095791e-08 -6.0310079e-08 1.2176386e-08 
1.7468083e-06 -1.2390734e-06 -1.2416548e-06 
1.4393244e-07 2.5356420e-07 2.2425570e-07 
6.3021425e-06 -2.4452225e-05 -5.1501274e-06 
5.7123011e-06 -8.2237420e-06 3.4215811e-06 
4.9604678e-06 -7.3265869e-06 -3.7707987e-06 
7.2876192e-06 -1.2110715e-05 -1.4730332e-06 
3.9414108e-06 -1.2823658e-05 -1.2029506e-06 
4.0975067e-07 -2.3718447e-07 3.7614049e-07 
5.3123620e-07 -4.1535768e-06 1.0380103e-06 
-8.5230496e-08 -3.9927963e-06 3.5306050e-07 
2.0773377e-06 -1.2738436e-05 1.5497176e-06 
1.5690634e-07 2.8946511e-08 4.8088253e-07 
2.1510844e-07 -7.9277265e-07 6.8242122e-07 
2.0512650e-06 -4.6540890e-06 -3.1490567e-06 
2.1666710e-06 -2.7848141e-06 -3.7099699e-07 
8.3715770e-07 -7.2954299e-06 -3.7066518e-06 
1.5355397e-06 -7.3090237e-06 4.1131766e-06 
5.8537375e-06 -3.7395912e-05 2.4903848e-06 
-5.1391734e-08 2.0546257e-07 8.4728867e-08 
1.1623210e-07 -1.0559843e-06 1.4620089e-06 
8.9625109e-06 -6.2382744e-05 -2.2072077e-06 
8.6684742e-07 -9.3977251e-06 -2.1194246e-06 
1.6621697e-06 -7.0443298e-06 9.3733780e-07 
2.5288421e-06 -2.0046059e-06 -5.6284352e-07 
3.9234732e-07 -7.2491582e-07 1.3377638e-06 
1.4401724e-06 -7.5971875e-06 -1.0924792e-06 
3.4713116e-06 -1.7968510e-05 5.0303906e-06 
9.8174769e-07 -1.7852569e-06 -5.2423906e-07 
4.4813532e-07 -1.3930826e-07 5.9339516e-07 
-1.1465722e-07 -2.1414627e-08 -2.3353900e-07 
4.2292618e-07 -1.0783094e-05 4.8275251e-07 
1.1545973e-06 -2.0804035e-05 5.1785287e-06 
2.8576962e-06 -4.8251236e-06 3.5924827e-06 
2.3909605e-08 -7.0275355e-08 4.2047103e-07 
4.6139971e-07 -9.0182300e-07 -4.3531873e-07 
3.8649927e-07 -2.7036256e-06 1.1740646e-07 
2.3717332e-06 -1.9079039e-06 2.4188853e-07 
5.9025064e-07 -1.6835002e-06 2.9291834e-07 
1.0754916e-06 -5.8940799e-07 9.4629974e-07 
7.7562129e-07 -2.1427617e-05 -1.2627902e-06 