# vtk DataFile Version 4.0
vtk output
ASCII
DATASET UNSTRUCTURED_GRID
POINTS 460 float
0.0000000e+00 0.0000000e+00 0.0000000e+00 
5.0000000e+00 0.0000000e+00 0.0000000e+00 
5.0000000e+00 3.0000000e+00 0.0000000e+00 
0.0000000e+00 3.0000000e+00 0.0000000e+00 
0.0000000e+00 0.0000000e+00 1.0000000e+01 
5.0000000e+00 0.0000000e+00 1.0000000e+01 
5.0000000e+00 3.0000000e+00 1.0000000e+01 
0.0000000e+00 3.0000000e+00 1.0000000e+01 
1.0000000e+00 3.0000000e+00 -5.0000000e+00 
1.0000000e+00 3.0000000e+00 -4.5000000e+00 
1.0000000e+00 3.0000000e+00 -4.0000000e+00 
1.0000000e+00 3.0000000e+00 -3.5000000e+00 
1.0000000e+00 3.0000000e+00 -3.0000000e+00 
1.0000000e+00 3.0000000e+00 -2.5000000e+00 
1.0000000e+00 3.0000000e+00 -2.0000000e+00 
1.0000000e+00 3.0000000e+00 -1.5000000e+00 
1.0000000e+00 3.0000000e+00 -1.0000000e+00 
1.0000000e+00 3.0000000e+00 -5.0000000e-01 
1.0000000e+00 3.0000000e+00 0.0000000e+00 
1.0000000e+00 3.0000000e+00 5.0000000e-01 
1.0000000e+00 3.0000000e+00 1.0000000e+00 
1.0000000e+00 3.0000000e+00 1.5000000e+00 
1.0000000e+00 3.0000000e+00 2.0000000e+00 
1.0000000e+00 3.0000000e+00 2.5000000e+00 
1.0000000e+00 3.0000000e+00 3.0000000e+00 
1.0000000e+00 3.0000000e+00 3.5000000e+00 
1.0000000e+00 3.0000000e+00 4.0000000e+00 
1.0000000e+00 3.0000000e+00 4.5000000e+00 
1.0000000e+00 3.0000000e+00 5.0000000e+00 
1.0000000e+00 3.0000000e+00 5.5000000e+00 
1.0000000e+00 3.0000000e+00 6.0000000e+00 
1.0000000e+00 3.0000000e+00 6.5000000e+00 
1.0000000e+00 3.0000000e+00 7.0000000e+00 
1.0000000e+00 3.0000000e+00 7.5000000e+00 
1.0000000e+00 3.0000000e+00 8.0000000e+00 
1.0000000e+00 3.0000000e+00 8.5000000e+00 
1.0000000e+00 3.0000000e+00 9.0000000e+00 
1.0000000e+00 3.0000000e+00 9.5000000e+00 
1.0000000e+00 3.0000000e+00 1.0000000e+01 
1.0000000e+00 3.0000000e+00 1.0500000e+01 
1.0000000e+00 3.0000000e+00 1.1000000e+01 
1.0000000e+00 3.0000000e+00 1.1500000e+01 
1.0000000e+00 3.0000000e+00 1.2000000e+01 
1.0000000e+00 3.0000000e+00 1.2500000e+01 
1.0000000e+00 3.0000000e+00 1.3000000e+01 
1.0000000e+00 3.0000000e+00 1.3500000e+01 
1.0000000e+00 3.0000000e+00 1.4000000e+01 
1.0000000e+00 3.0000000e+00 1.4500000e+01 
1.0000000e+00 3.0250001e+00 -5.0000000e+00 
1.0000000e+00 3.0250001e+00 -4.5000000e+00 
1.0000000e+00 3.0250001e+00 -4.0000000e+00 
1.0000000e+00 3.0250001e+00 -3.5000000e+00 
1.0000000e+00 3.0250001e+00 -3.0000000e+00 
1.0000000e+00 3.0250001e+00 -2.5000000e+00 
1.0000000e+00 3.0250001e+00 -2.0000000e+00 
1.0000000e+00 3.0250001e+00 -1.5000000e+00 
1.0000000e+00 3.0250001e+00 -1.0000000e+00 
1.0000000e+00 3.0250001e+00 -5.0000000e-01 
1.0000000e+00 3.0250001e+00 0.0000000e+00 
1.0000000e+00 3.0250001e+00 5.0000000e-01 
1.0000000e+00 3.0250001e+00 1.0000000e+00 
1.0000000e+00 3.0250001e+00 1.5000000e+00 
1.0000000e+00 3.0250001e+00 2.0000000e+00 
1.0000000e+00 3.0250001e+00 2.5000000e+00 
1.0000000e+00 3.0250001e+00 3.0000000e+00 
1.0000000e+00 3.0250001e+00 3.5000000e+00 
1.0000000e+00 3.0250001e+00 4.0000000e+00 
1.0000000e+00 3.0250001e+00 4.5000000e+00 
1.0000000e+00 3.0250001e+00 5.0000000e+00 
1.0000000e+00 3.0250001e+00 5.5000000e+00 
1.0000000e+00 3.0250001e+00 6.0000000e+00 
1.0000000e+00 3.0250001e+00 6.5000000e+00 
1.0000000e+00 3.0250001e+00 7.0000000e+00 
1.0000000e+00 3.0250001e+00 7.5000000e+00 
1.0000000e+00 3.0250001e+00 8.0000000e+00 
1.0000000e+00 3.0250001e+00 8.5000000e+00 
1.0000000e+00 3.0250001e+00 9.0000000e+00 
1.0000000e+00 3.0250001e+00 9.5000000e+00 
1.0000000e+00 3.0250001e+00 1.0000000e+01 
1.0000000e+00 3.0250001e+00 1.0500000e+01 
1.0000000e+00 3.0250001e+00 1.1000000e+01 
1.0000000e+00 3.0250001e+00 1.1500000e+01 
1.0000000e+00 3.0250001e+00 1.2000000e+01 
1.0000000e+00 3.0250001e+00 1.2500000e+01 
1.0000000e+00 3.0250001e+00 1.3000000e+01 
1.0000000e+00 3.0250001e+00 1.3500000e+01 
1.0000000e+00 3.0250001e+00 1.4000000e+01 
1.0000000e+00 3.0250001e+00 1.4500000e+01 
1.0000000e+00 -2.0000000e+00 -5.0000000e+00 
1.0000000e+00 -2.0000000e+00 -4.5000000e+00 
1.0000000e+00 -2.0000000e+00 -4.0000000e+00 
1.0000000e+00 -2.0000000e+00 -3.5000000e+00 
1.0000000e+00 -2.0000000e+00 -3.0000000e+00 
1.0000000e+00 -2.0000000e+00 -2.5000000e+00 
1.0000000e+00 -2.0000000e+00 -2.0000000e+00 
1.0000000e+00 -2.0000000e+00 -1.5000000e+00 
1.0000000e+00 -2.0000000e+00 -1.0000000e+00 
1.0000000e+00 -2.0000000e+00 -5.0000000e-01 
1.0000000e+00 -2.0000000e+00 1.0500000e+01 
1.0000000e+00 -2.0000000e+00 1.1000000e+01 
1.0000000e+00 -2.0000000e+00 1.1500000e+01 
1.0000000e+00 -2.0000000e+00 1.2000000e+01 
1.0000000e+00 -2.0000000e+00 1.2500000e+01 
1.0000000e+00 -2.0000000e+00 1.3000000e+01 
1.0000000e+00 -2.0000000e+00 1.3500000e+01 
1.0000000e+00 -2.0000000e+00 1.4000000e+01 
1.0000000e+00 -2.0000000e+00 1.4500000e+01 
1.0000000e+00 0.0000000e+00 0.0000000e+00 
2.0000000e+00 0.0000000e+00 0.0000000e+00 
3.0000000e+00 0.0000000e+00 0.0000000e+00 
4.0000000e+00 0.0000000e+00 0.0000000e+00 
5.0000000e+00 1.0000000e+00 0.0000000e+00 
5.0000000e+00 2.0000000e+00 0.0000000e+00 
0.0000000e+00 2.0000000e+00 0.0000000e+00 
0.0000000e+00 1.0000000e+00 0.0000000e+00 
0.0000000e+00 0.0000000e+00 1.0000000e+00 
0.0000000e+00 0.0000000e+00 2.0000000e+00 
0.0000000e+00 0.0000000e+00 3.0000000e+00 
0.0000000e+00 0.0000000e+00 4.0000000e+00 
0.0000000e+00 0.0000000e+00 5.0000000e+00 
0.0000000e+00 0.0000000e+00 6.0000000e+00 
0.0000000e+00 0.0000000e+00 7.0000000e+00 
0.0000000e+00 0.0000000e+00 8.0000000e+00 
0.0000000e+00 0.0000000e+00 9.0000000e+00 
5.0000000e+00 0.0000000e+00 1.0000000e+00 
5.0000000e+00 0.0000000e+00 2.0000000e+00 
5.0000000e+00 0.0000000e+00 3.0000000e+00 
5.0000000e+00 0.0000000e+00 4.0000000e+00 
5.0000000e+00 0.0000000e+00 5.0000000e+00 
5.0000000e+00 0.0000000e+00 6.0000000e+00 
5.0000000e+00 0.0000000e+00 7.0000000e+00 
5.0000000e+00 0.0000000e+00 8.0000000e+00 
5.0000000e+00 0.0000000e+00 9.0000000e+00 
1.0000000e+00 0.0000000e+00 1.0000000e+01 
2.0000000e+00 0.0000000e+00 1.0000000e+01 
3.0000000e+00 0.0000000e+00 1.0000000e+01 
4.0000000e+00 0.0000000e+00 1.0000000e+01 
5.0000000e+00 3.0000000e+00 1.0000000e+00 
5.0000000e+00 3.0000000e+00 2.0000000e+00 
5.0000000e+00 3.0000000e+00 3.0000000e+00 
5.0000000e+00 3.0000000e+00 4.0000000e+00 
5.0000000e+00 3.0000000e+00 5.0000000e+00 
5.0000000e+00 3.0000000e+00 6.0000000e+00 
5.0000000e+00 3.0000000e+00 7.0000000e+00 
5.0000000e+00 3.0000000e+00 8.0000000e+00 
5.0000000e+00 3.0000000e+00 9.0000000e+00 
5.0000000e+00 1.0000000e+00 1.0000000e+01 
5.0000000e+00 2.0000000e+00 1.0000000e+01 
0.0000000e+00 3.0000000e+00 1.0000000e+00 
0.0000000e+00 3.0000000e+00 2.0000000e+00 
0.0000000e+00 3.0000000e+00 3.0000000e+00 
0.0000000e+00 3.0000000e+00 4.0000000e+00 
0.0000000e+00 3.0000000e+00 5.0000000e+00 
0.0000000e+00 3.0000000e+00 6.0000000e+00 
0.0000000e+00 3.0000000e+00 7.0000000e+00 
0.0000000e+00 3.0000000e+00 8.0000000e+00 
0.0000000e+00 3.0000000e+00 9.0000000e+00 
0.0000000e+00 2.0000000e+00 1.0000000e+01 
0.0000000e+00 1.0000000e+00 1.0000000e+01 
4.0000000e+00 3.0000000e+00 0.0000000e+00 
3.0000000e+00 3.0000000e+00 0.0000000e+00 
2.0000000e+00 3.0000000e+00 0.0000000e+00 
4.0000000e+00 3.0000000e+00 1.0000000e+01 
3.0000000e+00 3.0000000e+00 1.0000000e+01 
2.0000000e+00 3.0000000e+00 1.0000000e+01 
4.0618000e+00 1.5000000e+00 0.0000000e+00 
1.5046000e+00 7.6549745e-01 0.0000000e+00 
2.5000000e+00 2.1339746e+00 0.0000000e+00 
1.5046000e+00 2.2345026e+00 0.0000000e+00 
2.4957771e+00 8.1560516e-01 0.0000000e+00 
3.4707544e+00 2.2336540e+00 0.0000000e+00 
3.4700506e+00 7.5794268e-01 0.0000000e+00 
8.6322361e-01 1.5000000e+00 0.0000000e+00 
2.0000000e+00 1.5000000e+00 0.0000000e+00 
2.9960666e+00 1.4974480e+00 0.0000000e+00 
4.2679491e+00 7.3205084e-01 0.0000000e+00 
4.2679491e+00 2.2679491e+00 0.0000000e+00 
7.2695929e-01 2.2730408e+00 0.0000000e+00 
7.2695929e-01 7.2695929e-01 0.0000000e+00 
4.1822505e+00 0.0000000e+00 2.5515697e+00 
4.2017918e+00 0.0000000e+00 4.4725966e+00 
4.1114569e+00 0.0000000e+00 6.5092020e+00 
8.6602539e-01 0.0000000e+00 3.5000000e+00 
8.4778279e-01 0.0000000e+00 5.4684029e+00 
8.9629614e-01 0.0000000e+00 7.5867257e+00 
2.5566745e+00 0.0000000e+00 8.1853306e-01 
2.4918270e+00 0.0000000e+00 9.1386929e+00 
8.4677207e-01 0.0000000e+00 1.5042374e+00 
4.0943027e+00 0.0000000e+00 8.4081745e+00 
8.6281651e-01 0.0000000e+00 2.5007062e+00 
1.7315160e+00 0.0000000e+00 3.0001178e+00 
1.7319617e+00 0.0000000e+00 4.0000196e+00 
2.5980761e+00 0.0000000e+00 3.5000000e+00 
2.5536871e+00 0.0000000e+00 4.4963923e+00 
2.5928419e+00 0.0000000e+00 2.4239938e+00 
1.5037409e+00 0.0000000e+00 9.1535149e+00 
1.8433737e+00 0.0000000e+00 8.1858873e+00 
3.0000000e+00 0.0000000e+00 8.2679491e+00 
2.5000000e+00 0.0000000e+00 7.4019237e+00 
3.5042722e+00 0.0000000e+00 7.4271150e+00 
3.0310018e+00 0.0000000e+00 6.5282087e+00 
2.0373929e+00 0.0000000e+00 6.5307913e+00 
3.4767809e+00 0.0000000e+00 5.8031492e+00 
2.5452602e+00 0.0000000e+00 5.5720768e+00 
1.6456656e+00 0.0000000e+00 1.9697139e+00 
8.6297011e-01 0.0000000e+00 4.4947371e+00 
1.0111579e+00 0.0000000e+00 6.5282545e+00 
3.4994321e+00 0.0000000e+00 8.4691072e-01 
4.1860156e+00 0.0000000e+00 3.5040276e+00 
1.7320508e+00 0.0000000e+00 5.0000000e+00 
4.0544066e+00 0.0000000e+00 1.5781221e+00 
1.5817389e+00 0.0000000e+00 9.3943578e-01 
8.3166349e-01 0.0000000e+00 8.5090933e+00 
3.4686174e+00 0.0000000e+00 9.1752682e+00 
3.0709300e+00 0.0000000e+00 1.5799091e+00 
3.3927374e+00 0.0000000e+00 3.0399952e+00 
3.3826034e+00 0.0000000e+00 3.9747651e+00 
4.3420062e+00 0.0000000e+00 7.4688983e+00 
3.4023225e+00 0.0000000e+00 4.9314723e+00 
1.6740381e+00 0.0000000e+00 7.3014426e+00 
4.2715640e+00 0.0000000e+00 5.4758859e+00 
1.6225953e+00 0.0000000e+00 5.8104177e+00 
4.2679491e+00 0.0000000e+00 9.2679491e+00 
7.3205084e-01 0.0000000e+00 7.3205084e-01 
4.2679491e+00 0.0000000e+00 7.3205084e-01 
7.3205084e-01 0.0000000e+00 9.2679491e+00 
3.4586334e+00 0.0000000e+00 2.2347178e+00 
2.2895701e+00 0.0000000e+00 1.5463171e+00 
5.0000000e+00 2.2345026e+00 1.5046000e+00 
[...]
POINT_DATA 460
FIELD FieldData 2
DISPLACEMENT 3 460  float
0.0000000e+00 0.0000000e+00 0.0000000e+00 
0.0000000e+00 0.0000000e+00 0.0000000e+00 
0.0000000e+00 -1.9798234e-09 0.0000000e+00 
0.0000000e+00 -1.5713885e-09 0.0000000e+00 
0.0000000e+00 0.0000000e+00 0.0000000e+00 
0.0000000e+00 0.0000000e+00 0.0000000e+00 
0.0000000e+00 2.2139274e-07 0.0000000e+00 
0.0000000e+00 5.0710423e-06 0.0000000e+00 
0.0000000e+00 -1.9714221e-09 0.0000000e+00 
0.0000000e+00 -1.9323632e-09 0.0000000e+00 
0.0000000e+00 -1.8146210e-09 0.0000000e+00 
0.0000000e+00 -1.6348970e-09 0.0000000e+00 
0.0000000e+00 -1.4160099e-09 0.0000000e+00 
0.0000000e+00 -1.1845248e-09 0.0000000e+00 
0.0000000e+00 -9.7992792e-10 0.0000000e+00 
0.0000000e+00 -8.5544244e-10 0.0000000e+00 
0.0000000e+00 -8.6633156e-10 0.0000000e+00 
0.0000000e+00 -1.0477385e-09 0.0000000e+00 
0.0000000e+00 -1.3893986e-09 0.0000000e+00 
1.1700477e-10 -1.8018113e-09 -2.4945662e-10 
2.6446517e-10 -2.3241880e-09 -6.8163192e-10 
3.0236580e-10 -2.9982656e-09 -1.2742759e-09 
4.8763116e-10 -3.8445682e-09 -2.6120270e-09 
9.3118657e-10 -4.6196864e-09 -5.3146842e-09 
1.2807824e-09 -4.6851669e-09 -9.5391011e-09 
1.6583221e-09 -2.9104485e-09 -1.7053672e-08 
5.8900431e-09 2.0761952e-09 -3.4362134e-08 
8.7482324e-09 1.2134399e-08 -5.3726037e-08 
2.3131033e-08 2.8682630e-08 -1.0544260e-07 
4.6700947e-08 5.7739996e-08 -1.6711995e-07 
5.5839266e-08 1.2511559e-07 -2.4859378e-07 
1.3056544e-07 3.0997816e-07 -4.0497073e-07 
1.5661556e-07 8.1211363e-07 -6.0597387e-07 
2.0402599e-07 2.0115879e-06 -6.9661513e-07 
2.3073096e-07 4.4085250e-06 -7.3533459e-07 
1.6449300e-07 8.2457163e-06 -1.5003792e-06 
7.4283639e-07 1.2318191e-05 -9.3758320e-07 
1.1468973e-07 1.2766570e-05 -1.5790540e-06 
0.0000000e+00 3.9614317e-08 0.0000000e+00 
0.0000000e+00 -4.5201636e-05 0.0000000e+00 
0.0000000e+00 -1.3671804e-04 0.0000000e+00 
0.0000000e+00 -2.7959081e-04 0.0000000e+00 
0.0000000e+00 -4.5759912e-04 0.0000000e+00 
0.0000000e+00 -6.1499531e-04 0.0000000e+00 
0.0000000e+00 -6.4415240e-04 0.0000000e+00 
0.0000000e+00 -5.3036289e-04 0.0000000e+00 
0.0000000e+00 -4.0316823e-04 0.0000000e+00 
0.0000000e+00 -3.4960880e-04 0.0000000e+00 
0.0000000e+00 -1.8423603e-09 0.0000000e+00 
0.0000000e+00 -1.8376056e-09 0.0000000e+00 
0.0000000e+00 -1.7987555e-09 0.0000000e+00 
0.0000000e+00 -1.6541265e-09 0.0000000e+00 
0.0000000e+00 -1.4249725e-09 0.0000000e+00 
0.0000000e+00 -1.1819307e-09 0.0000000e+00 
0.0000000e+00 -9.7761332e-10 0.0000000e+00 
0.0000000e+00 -8.5659496e-10 0.0000000e+00 
0.0000000e+00 -8.6903451e-10 0.0000000e+00 
0.0000000e+00 -1.0512868e-09 0.0000000e+00 
0.0000000e+00 -1.3850890e-09 0.0000000e+00 
0.0000000e+00 -1.8012764e-09 0.0000000e+00 
0.0000000e+00 -2.3238576e-09 0.0000000e+00 
0.0000000e+00 -3.0068474e-09 0.0000000e+00 
0.0000000e+00 -3.8581041e-09 0.0000000e+00 
0.0000000e+00 -4.6379527e-09 0.0000000e+00 
0.0000000e+00 -4.6975095e-09 0.0000000e+00 
0.0000000e+00 -2.9288594e-09 0.0000000e+00 
0.0000000e+00 2.1218662e-09 0.0000000e+00 
0.0000000e+00 1.2079013e-08 0.0000000e+00 
0.0000000e+00 2.8260002e-08 0.0000000e+00 
0.0000000e+00 5.6385151e-08 0.0000000e+00 
0.0000000e+00 1.2153900e-07 0.0000000e+00 
0.0000000e+00 3.0377521e-07 0.0000000e+00 
0.0000000e+00 8.0559829e-07 0.0000000e+00 
0.0000000e+00 2.0137270e-06 0.0000000e+00 
0.0000000e+00 4.4442709e-06 0.0000000e+00 
0.0000000e+00 8.3076475e-06 0.0000000e+00 
0.0000000e+00 1.2495367e-05 0.0000000e+00 
0.0000000e+00 1.3132163e-05 0.0000000e+00 
0.0000000e+00 -7.9059255e-08 0.0000000e+00 
0.0000000e+00 -4.5385219e-05 0.0000000e+00 
0.0000000e+00 -1.3726846e-04 0.0000000e+00 
0.0000000e+00 -2.8071180e-04 0.0000000e+00 
0.0000000e+00 -4.5942829e-04 0.0000000e+00 
0.0000000e+00 -6.1744545e-04 0.0000000e+00 
0.0000000e+00 -6.4671738e-04 0.0000000e+00 
0.0000000e+00 -5.3248304e-04 0.0000000e+00 
0.0000000e+00 -4.0478501e-04 0.0000000e+00 
0.0000000e+00 -3.5101295e-04 0.0000000e+00 
0.0000000e+00 0.0000000e+00 0.0000000e+00 
0.0000000e+00 0.0000000e+00 0.0000000e+00 
0.0000000e+00 0.0000000e+00 0.0000000e+00 
0.0000000e+00 0.0000000e+00 0.0000000e+00 
0.0000000e+00 0.0000000e+00 0.0000000e+00 
0.0000000e+00 0.0000000e+00 0.0000000e+00 
0.0000000e+00 0.0000000e+00 0.0000000e+00 
0.0000000e+00 0.0000000e+00 0.0000000e+00 
0.0000000e+00 0.0000000e+00 0.0000000e+00 
0.0000000e+00 0.0000000e+00 0.0000000e+00 
0.0000000e+00 0.0000000e+00 0.0000000e+00 
0.0000000e+00 0.0000000e+00 0.0000000e+00 
0.0000000e+00 0.0000000e+00 0.0000000e+00 
0.0000000e+00 0.0000000e+00 0.0000000e+00 
0.0000000e+00 0.0000000e+00 0.0000000e+00 
0.0000000e+00 0.0000000e+00 0.0000000e+00 
0.0000000e+00 0.0000000e+00 0.0000000e+00 
0.0000000e+00 0.0000000e+00 0.0000000e+00 
0.0000000e+00 0.0000000e+00 0.0000000e+00 
0.0000000e+00 0.0000000e+00 0.0000000e+00 
0.0000000e+00 0.0000000e+00 0.0000000e+00 
0.0000000e+00 0.0000000e+00 0.0000000e+00 
0.0000000e+00 0.0000000e+00 0.0000000e+00 
0.0000000e+00 -1.0222032e-09 0.0000000e+00 
0.0000000e+00 -1.7745214e-09 0.0000000e+00 
0.0000000e+00 -1.3922469e-09 0.0000000e+00 
0.0000000e+00 -7.9733431e-10 0.0000000e+00 
0.0000000e+00 0.0000000e+00 0.0000000e+00 
0.0000000e+00 0.0000000e+00 0.0000000e+00 
0.0000000e+00 0.0000000e+00 0.0000000e+00 
0.0000000e+00 0.0000000e+00 0.0000000e+00 
0.0000000e+00 0.0000000e+00 0.0000000e+00 
0.0000000e+00 0.0000000e+00 0.0000000e+00 
0.0000000e+00 0.0000000e+00 0.0000000e+00 
0.0000000e+00 0.0000000e+00 0.0000000e+00 
0.0000000e+00 0.0000000e+00 0.0000000e+00 
0.0000000e+00 0.0000000e+00 0.0000000e+00 
0.0000000e+00 0.0000000e+00 0.0000000e+00 
0.0000000e+00 0.0000000e+00 0.0000000e+00 
0.0000000e+00 0.0000000e+00 0.0000000e+00 
0.0000000e+00 0.0000000e+00 0.0000000e+00 
0.0000000e+00 0.0000000e+00 0.0000000e+00 
0.0000000e+00 0.0000000e+00 0.0000000e+00 
0.0000000e+00 0.0000000e+00 0.0000000e+00 
0.0000000e+00 0.0000000e+00 0.0000000e+00 
0.0000000e+00 0.0000000e+00 0.0000000e+00 
0.0000000e+00 0.0000000e+00 0.0000000e+00 
0.0000000e+00 0.0000000e+00 0.0000000e+00 
0.0000000e+00 0.0000000e+00 0.0000000e+00 
0.0000000e+00 -2.6036184e-09 0.0000000e+00 
0.0000000e+00 -5.1071378e-09 0.0000000e+00 
0.0000000e+00 -7.9600628e-09 0.0000000e+00 
0.0000000e+00 -1.3779643e-08 0.0000000e+00 
0.0000000e+00 -1.0307994e-08 0.0000000e+00 
0.0000000e+00 -5.0614495e-09 0.0000000e+00 
0.0000000e+00 6.0427404e-08 0.0000000e+00 
0.0000000e+00 9.4255206e-08 0.0000000e+00 
0.0000000e+00 2.1214541e-07 0.0000000e+00 
0.0000000e+00 1.2739069e-07 0.0000000e+00 
0.0000000e+00 1.9867981e-07 0.0000000e+00 
0.0000000e+00 -1.8769033e-09 0.0000000e+00 
0.0000000e+00 -2.7293947e-09 0.0000000e+00 
0.0000000e+00 -1.7789793e-09 0.0000000e+00 
0.0000000e+00 1.1834659e-08 0.0000000e+00 
0.0000000e+00 7.1656629e-08 0.0000000e+00 
0.0000000e+00 2.7900364e-07 0.0000000e+00 
0.0000000e+00 1.0774618e-06 0.0000000e+00 
0.0000000e+00 2.7988058e-06 0.0000000e+00 
0.0000000e+00 5.0621329e-06 0.0000000e+00 
0.0000000e+00 3.6627921e-06 0.0000000e+00 
0.0000000e+00 1.7606266e-06 0.0000000e+00 
0.0000000e+00 -1.9646695e-09 0.0000000e+00 
0.0000000e+00 -1.9672459e-09 0.0000000e+00 
0.0000000e+00 -1.8435340e-09 0.0000000e+00 
0.0000000e+00 4.0104226e-07 0.0000000e+00 
0.0000000e+00 1.0870103e-06 0.0000000e+00 
0.0000000e+00 2.8776903e-06 0.0000000e+00 
0.0000000e+00 -1.4185590e-09 0.0000000e+00 
0.0000000e+00 -7.4268763e-10 0.0000000e+00 
0.0000000e+00 -1.8419047e-09 0.0000000e+00 
0.0000000e+00 -1.6060229e-09 0.0000000e+00 
0.0000000e+00 -9.0248004e-10 0.0000000e+00 
0.0000000e+00 -1.8370401e-09 0.0000000e+00 
0.0000000e+00 -8.9292862e-10 0.0000000e+00 
0.0000000e+00 -1.2634108e-09 0.0000000e+00 
0.0000000e+00 -1.5210438e-09 0.0000000e+00 
0.0000000e+00 -1.4745789e-09 0.0000000e+00 
0.0000000e+00 -6.4915007e-10 0.0000000e+00 
0.0000000e+00 -1.8186948e-09 0.0000000e+00 
0.0000000e+00 -1.5029519e-09 0.0000000e+00 
0.0000000e+00 -5.9301392e-10 0.0000000e+00 
0.0000000e+00 0.0000000e+00 0.0000000e+00 
0.0000000e+00 0.0000000e+00 0.0000000e+00 
0.0000000e+00 0.0000000e+00 0.0000000e+00 
0.0000000e+00 0.0000000e+00 0.0000000e+00 
0.0000000e+00 0.0000000e+00 0.0000000e+00 
0.0000000e+00 0.0000000e+00 0.0000000e+00 
0.0000000e+00 0.0000000e+00 0.0000000e+00 
0.0000000e+00 0.0000000e+00 0.0000000e+00 
0.0000000e+00 0.0000000e+00 0.0000000e+00 
0.0000000e+00 0.0000000e+00 0.0000000e+00 
0.0000000e+00 0.0000000e+00 0.0000000e+00 
0.0000000e+00 0.0000000e+00 0.0000000e+00 
0.0000000e+00 0.0000000e+00 0.0000000e+00 
0.0000000e+00 0.0000000e+00 0.0000000e+00 
0.0000000e+00 0.0000000e+00 0.0000000e+00 
0.0000000e+00 0.0000000e+00 0.0000000e+00 
0.0000000e+00 0.0000000e+00 0.0000000e+00 
0.0000000e+00 0.0000000e+00 0.0000000e+00 
0.0000000e+00 0.0000000e+00 0.0000000e+00 
0.0000000e+00 0.0000000e+00 0.0000000e+00 
0.0000000e+00 0.0000000e+00 0.0000000e+00 
0.0000000e+00 0.0000000e+00 0.0000000e+00 
0.0000000e+00 0.0000000e+00 0.0000000e+00 
0.0000000e+00 0.0000000e+00 0.0000000e+00 
0.0000000e+00 0.0000000e+00 0.0000000e+00 
0.0000000e+00 0.0000000e+00 0.0000000e+00 
0.0000000e+00 0.0000000e+00 0.0000000e+00 
0.0000000e+00 0.0000000e+00 0.0000000e+00 
0.0000000e+00 0.0000000e+00 0.0000000e+00 
0.0000000e+00 0.0000000e+00 0.0000000e+00 
0.0000000e+00 0.0000000e+00 0.0000000e+00 
0.0000000e+00 0.0000000e+00 0.0000000e+00 
0.0000000e+00 0.0000000e+00 0.0000000e+00 
0.0000000e+00 0.0000000e+00 0.0000000e+00 
0.0000000e+00 0.0000000e+00 0.0000000e+00 
0.0000000e+00 0.0000000e+00 0.0000000e+00 
0.0000000e+00 0.0000000e+00 0.0000000e+00 
0.0000000e+00 0.0000000e+00 0.0000000e+00 
0.0000000e+00 0.0000000e+00 0.0000000e+00 
0.0000000e+00 0.0000000e+00 0.0000000e+00 
0.0000000e+00 0.0000000e+00 0.0000000e+00 
0.0000000e+00 0.0000000e+00 0.0000000e+00 
0.0000000e+00 0.0000000e+00 0.0000000e+00 
0.0000000e+00 0.0000000e+00 0.0000000e+00 
0.0000000e+00 0.0000000e+00 0.0000000e+00 
0.0000000e+00 0.0000000e+00 0.0000000e+00 
0.0000000e+00 0.0000000e+00 0.0000000e+00 
0.0000000e+00 0.0000000e+00 0.0000000e+00 
0.0000000e+00 0.0000000e+00 0.0000000e+00 
0.0000000e+00 -3.4657928e-09 0.0000000e+00 
0.0000000e+00 1.4040636e-07 0.0000000e+00 
0.0000000e+00 -1.0236545e-08 0.0000000e+00 
0.0000000e+00 -1.1344888e-08 0.0000000e+00 
0.0000000e+00 6.1357817e-08 0.0000000e+00 
0.0000000e+00 -2.6826628e-09 0.0000000e+00 
0.0000000e+00 -3.0258394e-09 0.0000000e+00 
0.0000000e+00 1.4199071e-08 0.0000000e+00 
0.0000000e+00 -4.3411044e-09 0.0000000e+00 
0.0000000e+00 -4.3931898e-09 0.0000000e+00 
0.0000000e+00 -5.9259904e-09 0.0000000e+00 
0.0000000e+00 -1.4281476e-08 0.0000000e+00 
0.0000000e+00 -3.3949201e-09 0.0000000e+00 
0.0000000e+00 4.6661679e-08 0.0000000e+00 
0.0000000e+00 -1.4497666e-09 0.0000000e+00 
0.0000000e+00 7.4664726e-08 0.0000000e+00 
0.0000000e+00 9.4554444e-08 0.0000000e+00 
0.0000000e+00 -1.8732411e-09 0.0000000e+00 
0.0000000e+00 -8.2284828e-09 0.0000000e+00 
0.0000000e+00 2.1446198e-08 0.0000000e+00 
0.0000000e+00 -3.3606145e-09 0.0000000e+00 
0.0000000e+00 -6.7453096e-09 0.0000000e+00 
0.0000000e+00 -9.3805497e-09 0.0000000e+00 
0.0000000e+00 -6.0529901e-09 0.0000000e+00 
0.0000000e+00 6.2377318e-08 0.0000000e+00 
0.0000000e+00 1.6524511e-07 0.0000000e+00 
0.0000000e+00 7.4412306e-08 0.0000000e+00 
0.0000000e+00 -2.2323108e-09 0.0000000e+00 
0.0000000e+00 -8.9460389e-10 0.0000000e+00 
0.0000000e+00 2.8038121e-06 0.0000000e+00 
0.0000000e+00 -1.3317147e-09 0.0000000e+00 
0.0000000e+00 -1.0597012e-09 0.0000000e+00 
0.0000000e+00 1.6672475e-08 0.0000000e+00 
0.0000000e+00 6.8746459e-07 0.0000000e+00 
0.0000000e+00 1.8528928e-09 0.0000000e+00 
0.0000000e+00 1.4226649e-07 0.0000000e+00 
0.0000000e+00 1.5658113e-06 0.0000000e+00 
0.0000000e+00 1.7155600e-09 0.0000000e+00 
0.0000000e+00 -2.4745532e-09 0.0000000e+00 
0.0000000e+00 2.9551114e-08 0.0000000e+00 
0.0000000e+00 5.2944137e-07 0.0000000e+00 
0.0000000e+00 2.7688210e-07 0.0000000e+00 
0.0000000e+00 3.6593046e-06 0.0000000e+00 
0.0000000e+00 -2.0971131e-09 0.0000000e+00 
0.0000000e+00 -9.1039254e-10 0.0000000e+00 
0.0000000e+00 1.0623302e-06 0.0000000e+00 
0.0000000e+00 5.4723518e-08 0.0000000e+00 
0.0000000e+00 2.5179344e-07 0.0000000e+00 
0.0000000e+00 1.3252860e-08 0.0000000e+00 
0.0000000e+00 -4.5463189e-10 0.0000000e+00 
0.0000000e+00 7.3513667e-07 0.0000000e+00 
0.0000000e+00 6.5043835e-08 0.0000000e+00 
0.0000000e+00 1.8445911e-06 0.0000000e+00 
0.0000000e+00 -1.8987012e-09 0.0000000e+00 
0.0000000e+00 1.3039993e-06 0.0000000e+00 
0.0000000e+00 -1.6383217e-09 0.0000000e+00 
0.0000000e+00 -6.5703454e-10 0.0000000e+00 
0.0000000e+00 4.4200369e-06 0.0000000e+00 
0.0000000e+00 9.9307113e-07 0.0000000e+00 
0.0000000e+00 2.5769509e-07 0.0000000e+00 
0.0000000e+00 1.5798292e-06 0.0000000e+00 
0.0000000e+00 3.1866302e-06 0.0000000e+00 
0.0000000e+00 5.9347320e-07 0.0000000e+00 
0.0000000e+00 6.1607358e-07 0.0000000e+00 
0.0000000e+00 2.7967977e-07 0.0000000e+00 
0.0000000e+00 2.5199274e-06 0.0000000e+00 
0.0000000e+00 1.5783080e-06 0.0000000e+00 
0.0000000e+00 7.7447635e-07 0.0000000e+00 
0.0000000e+00 1.3759954e-07 0.0000000e+00 
0.0000000e+00 2.8381893e-07 0.0000000e+00 
0.0000000e+00 4.0606556e-06 0.0000000e+00 
0.0000000e+00 1.1773997e-06 0.0000000e+00 
1.6037697e-08 1.1882885e-08 -7.7297244e-08 
1.0552397e-07 3.0219277e-07 -2.9435313e-07 
3.4938563e-07 2.1647145e-06 -6.5709179e-07 
1.2709962e-09 -4.0117336e-09 -4.7694781e-09 
3.3519063e-09 -6.8076305e-09 -1.6059600e-08 
2.8097693e-08 -2.9957874e-09 -3.5713065e-08 
1.6028693e-09 -7.3134219e-09 -1.8885722e-09 
1.0364320e-07 9.7799514e-08 -9.0419441e-08 
3.8686118e-10 -2.7851021e-09 -1.1094454e-09 
6.0471041e-07 5.4590078e-06 -6.6292051e-07 
3.6184103e-10 -2.5054194e-09 -2.3889585e-10 
3.2439789e-07 6.8425010e-07 -5.0782024e-08 
7.9860087e-08 4.5599169e-08 -6.9086177e-08 
1.6569231e-07 1.9608498e-07 -1.8395644e-07 
3.4057237e-07 3.6394118e-07 -2.5525944e-07 
2.5841487e-07 4.7450564e-07 -2.1523104e-07 
1.5196463e-07 2.4396772e-07 -1.7439970e-07 
4.9338672e-07 1.1113269e-06 -2.8409679e-07 
2.5599613e-07 6.0670209e-07 -4.2169717e-07 
9.0117418e-08 7.8033054e-08 -1.3095020e-07 
4.1602664e-08 1.8399835e-08 -6.5456405e-08 
6.0416674e-08 6.3426405e-08 -1.0659598e-07 
3.0129595e-08 8.1226075e-09 -7.1683637e-08 
1.7063407e-08 -1.2357506e-08 -3.2037612e-08 
1.3781146e-08 -1.0120036e-08 -3.2850174e-08 
8.6768246e-09 -9.9025144e-09 -1.4763391e-08 
4.7283653e-09 -8.8246983e-09 -1.5888155e-08 
3.6217602e-09 -8.6584038e-09 -7.6099962e-09 
3.5388983e-09 -7.0872685e-09 -8.3917104e-09 
2.2557727e-09 -5.5368456e-09 -3.3658907e-09 
1.2044915e-09 -4.4850124e-09 -3.0368577e-09 
4.7460510e-08 4.5561102e-08 -1.4168968e-07 
8.2657145e-08 1.4060518e-07 -1.7662890e-07 
8.9449568e-09 -5.8212279e-09 -2.4453401e-08 
4.1573984e-09 -1.1495268e-08 -5.2565792e-09 
4.2777469e-07 1.6068790e-06 -1.1372008e-07 
1.4825641e-08 -1.9475066e-09 -5.0050311e-08 
1.4975504e-08 -1.7134891e-08 -2.1572218e-08 
3.9977280e-10 -2.8121974e-09 -6.8918643e-10 
2.1550498e-07 2.6779577e-07 -7.5292000e-08 
4.7454429e-07 1.1670877e-06 -5.4725888e-07 
5.6923204e-07 2.0355001e-06 -5.1502229e-07 
6.4450383e-08 1.0635774e-07 -1.8400183e-07 
5.2911048e-10 -3.8655932e-09 -2.8271219e-10 
1.8848985e-09 -5.3773026e-09 -8.5281853e-09 
3.5050349e-09 -7.6539148e-09 -1.2071594e-08 
6.2040884e-09 -3.2079686e-09 -2.8831373e-08 
1.3991400e-08 -4.3595894e-10 -5.4057722e-08 
1.8450955e-07 5.9914493e-07 -3.9938385e-07 
3.2260613e-07 1.2876526e-06 -5.9464168e-07 
2.4973856e-10 -2.1174351e-09 -3.9551551e-10 
6.1707345e-10 -3.5849865e-09 -2.2541611e-09 
7.2118212e-07 6.4185083e-06 -3.8484239e-07 
9.4962926e-10 -4.2145456e-09 -1.2848884e-09 
2.2488040e-09 -5.3612399e-09 -6.0250991e-09 
7.0680147e-07 3.5694520e-06 -7.8650550e-07 
1.7154443e-07 3.4008355e-07 -3.0501198e-07 
6.8221273e-10 -3.2879079e-09 -1.7019458e-09 
2.8083443e-08 5.2393300e-08 -1.1725051e-07 
4.0087440e-07 7.0798058e-07 -1.8008329e-07 
1.6355288e-07 3.1514415e-07 -3.7516919e-08 
2.2372455e-10 -2.3986100e-09 -6.8877661e-11 
1.0586660e-08 -1.1403800e-08 -1.6194859e-08 
1.1873388e-09 -4.4612594e-09 -3.2144158e-09 
8.0336372e-07 2.7831866e-06 -4.4381306e-07 
1.1135682e-07 1.3767360e-07 -1.6442642e-07 
1.1861344e-09 -5.2856004e-09 -1.9112947e-09 
3.1939027e-09 -8.7058547e-09 -5.9427374e-09 
3.6709516e-10 -2.7295721e-09 -7.9979079e-10 
2.2110708e-08 2.2709703e-08 -8.7135717e-08 
4.7731891e-07 3.3516556e-06 -1.6572589e-07 
2.1026503e-10 -3.3779224e-09 -2.6958697e-09 
1.4900181e-10 -2.7462912e-09 -1.4434236e-09 
1.5314852e-10 -2.4934597e-09 -4.6445567e-09 
4.0510365e-10 -1.6686146e-09 -6.8752222e-09 
1.4376764e-10 -2.3230831e-09 -7.7205420e-10 
5.3924870e-10 2.8650546e-09 -1.1552959e-08 
3.8571826e-09 1.6004147e-08 -2.3862423e-08 
4.9682538e-09 3.9603432e-08 -4.1786613e-08 
1.2002189e-08 9.8596807e-08 -1.1695210e-07 
3.0431032e-08 1.8927847e-07 -2.1385181e-07 
2.5683029e-08 3.6031582e-07 -2.6577470e-07 
4.8122985e-08 7.6234596e-07 -4.0499569e-07 
8.9647060e-08 1.4698576e-06 -4.6323271e-07 
2.3342859e-07 2.9109026e-06 -5.0442407e-07 
2.1004188e-07 4.0603818e-06 -5.8741767e-07 
2.5920892e-07 5.9539839e-06 -6.1313500e-07 
-1.1579262e-07 7.3702872e-06 -5.1563757e-07 
6.6890715e-11 -1.7717192e-09 -2.3650096e-10 
-1.0149270e-10 -3.3522716e-09 1.0665553e-10 
-4.9696725e-10 -5.9116441e-09 5.9133352e-09 
-1.8987395e-08 5.5931253e-08 7.3390289e-08 
-1.4179092e-07 5.2119304e-07 2.6226957e-07 
-3.7350034e-07 1.8473484e-06 3.2792846e-07 
-3.1696876e-10 -5.7866534e-09 1.1756889e-09 
-7.1359589e-09 -7.8749185e-09 1.3423374e-08 
-6.1295559e-08 1.0461924e-07 9.2619111e-08 
3.0287339e-09 2.5109668e-09 2.7807840e-09 
1.5540816e-10 -4.7124020e-09 -2.5641806e-09 
2.9329657e-11 -2.5534777e-09 -8.2179824e-10 
-2.2751806e-07 3.4729928e-07 1.7852446e-07 
1.9373686e-10 -2.8898774e-09 -6.3695871e-10 
-2.2909779e-08 3.1209854e-07 8.6495859e-08 
-3.9244757e-08 2.0308880e-06 3.3965875e-07 
1.0813553e-09 -3.1584673e-09 -5.0357580e-09 
-1.9176318e-09 -5.8414491e-09 2.4045173e-09 
3.0633298e-11 -7.1379880e-09 -9.9772479e-10 
1.6522360e-09 5.0915570e-08 -3.2101981e-09 
-8.9243152e-10 1.8452907e-09 2.8540970e-08 
4.3190340e-11 -3.9185140e-09 -1.9730171e-09 
-2.1485352e-08 1.8117098e-09 2.5650465e-08 
-5.1555087e-08 4.6445912e-06 5.3610620e-07 
-5.2241731e-12 -2.5211919e-09 -2.1188865e-10 
-1.5482426e-07 3.4825143e-07 5.2034341e-08 
-5.8850153e-10 -2.1380420e-09 3.2935150e-09 
-2.6619583e-08 2.6584164e-08 6.0309610e-08 
-2.3250749e-10 -3.0181349e-09 1.0688115e-09 
-7.5758499e-10 -3.8183736e-09 6.4244623e-09 
9.8258979e-10 -1.0388869e-08 -3.5262437e-09 
-3.0118269e-08 5.0842345e-08 1.5526215e-08 
-1.2902513e-08 3.4044967e-07 4.7748145e-08 
-1.8627497e-09 8.5636623e-07 3.6564177e-08 
5.7488130e-09 7.9860833e-08 5.0114363e-10 
-3.1767138e-07 7.6300802e-07 1.2387331e-07 
-1.4438125e-07 1.0295523e-06 1.6742364e-07 
3.8290020e-11 -1.5120394e-09 7.0076292e-11 
-1.1758962e-09 -1.0357826e-08 5.9830907e-10 
1.2647137e-11 -1.3623221e-09 6.5666368e-11 
-3.0660196e-08 1.9756816e-07 1.6136580e-07 
1.1458999e-09 5.3535763e-11 1.4425977e-08 
-3.1696669e-07 1.9221000e-06 1.0693185e-07 
-1.7506925e-07 8.7664239e-07 3.7479603e-07 
2.9645406e-09 -8.5393754e-09 -9.5957109e-09 
2.3669947e-10 -3.4135945e-09 -1.3084380e-09 
-4.1331769e-09 4.0405350e-09 4.4404969e-09 
-1.2877946e-09 -3.6341168e-09 1.4550255e-09 
-2.0567566e-07 4.6038826e-07 2.2951066e-07 
5.5958593e-10 -5.5801452e-09 -1.3544872e-09 
-3.1409868e-09 2.9145157e-08 4.7725990e-08 
3.3327840e-10 -5.5723577e-09 -7.1325140e-10 
-1.0031587e-07 1.0837546e-07 8.1156848e-08 
-9.7422564e-08 2.7443054e-06 1.1672174e-07 
1.4096610e-08 2.0779578e-07 -1.7379516e-08 
-6.3342394e-09 9.5365593e-08 6.4547486e-08 
-5.5492052e-08 9.7349556e-08 1.1343147e-07 
-2.5408036e-07 1.7643296e-06 1.7059564e-07 
1.8840475e-10 -2.4599860e-09 -4.8014825e-10 
1.7751572e-09 -1.5862305e-08 -2.9526555e-09 
-3.5035228e-09 -4.0332386e-09 5.6020086e-09 
-1.1401824e-09 5.4144564e-09 -2.6725733e-09 
-4.7200622e-08 3.5002913e-08 4.6470380e-08 
5.8438071e-10 -5.6436469e-09 -2.6934004e-09 
9.9953802e-08 3.7575378e-06 1.7624160e-07 
-6.1030296e-09 3.7153045e-10 1.8372313e-08 
2.9048059e-11 1.2803007e-07 -1.3986608e-08 