# vtk DataFile Version 4.0
vtk output
ASCII
DATASET UNSTRUCTURED_GRID
POINTS 460 float
0.0000000e+00 0.0000000e+00 0.0000000e+00 
5.0000000e+00 0.0000000e+00 0.0000000e+00 
5.0000000e+00 3.0000000e+00 0.0000000e+00 
0.0000000e+00 3.0000000e+00 0.0000000e+00 
0.0000000e+00 0.0000000e+00 1.0000000e+01 
5.0000000e+00 0.0000000e+00 1.0000000e+01 
5.0000000e+00 3.0000000e+00 1.0000000e+01 
0.0000000e+00 3.0000000e+00 1.0000000e+01 
1.0000000e+00 3.0000000e+00 -5.0000000e+00 
1.0000000e+00 3.0000000e+00 -4.5000000e+00 
1.0000000e+00 3.0000000e+00 -4.0000000e+00 
1.0000000e+00 3.0000000e+00 -3.5000000e+00 
1.0000000e+00 3.0000000e+00 -3.0000000e+00 
1.0000000e+00 3.0000000e+00 -2.5000000e+00 
1.0000000e+00 3.0000000e+00 -2.0000000e+00 
1.0000000e+00 3.0000000e+00 -1.5000000e+00 
1.0000000e+00 3.0000000e+00 -1.0000000e+00 
1.0000000e+00 3.0000000e+00 -5.0000000e-01 
1.0000000e+00 3.0000000e+00 0.0000000e+00 
1.0000000e+00 3.0000000e+00 5.0000000e-01 
1.0000000e+00 3.0000000e+00 1.0000000e+00 
1.0000000e+00 3.0000000e+00 1.5000000e+00 
1.0000000e+00 3.0000000e+00 2.0000000e+00 
1.0000000e+00 3.0000000e+00 2.5000000e+00 
1.0000000e+00 3.0000000e+00 3.0000000e+00 
1.0000000e+00 3.0000000e+00 3.5000000e+00 
1.0000000e+00 3.0000000e+00 4.0000000e+00 
1.0000000e+00 3.0000000e+00 4.5000000e+00 
1.0000000e+00 3.0000000e+00 5.0000000e+00 
1.0000000e+00 3.0000000e+00 5.5000000e+00 
1.0000000e+00 3.0000000e+00 6.0000000e+00 
1.0000000e+00 3.0000000e+00 6.5000000e+00 
1.0000000e+00 3.0000000e+00 7.0000000e+00 
1.0000000e+00 3.0000000e+00 7.5000000e+00 
1.0000000e+00 3.0000000e+00 8.0000000e+00 
1.0000000e+00 3.0000000e+00 8.5000000e+00 
1.0000000e+00 3.0000000e+00 9.0000000e+00 
1.0000000e+00 3.0000000e+00 9.5000000e+00 
1.0000000e+00 3.0000000e+00 1.0000000e+01 
1.0000000e+00 3.0000000e+00 1.0500000e+01 
1.0000000e+00 3.0000000e+00 1.1000000e+01 
1.0000000e+00 3.0000000e+00 1.1500000e+01 
1.0000000e+00 3.0000000e+00 1.2000000e+01 
1.0000000e+00 3.0000000e+00 1.2500000e+01 
1.0000000e+00 3.0000000e+00 1.3000000e+01 
1.0000000e+00 3.0000000e+00 1.3500000e+01 
1.0000000e+00 3.0000000e+00 1.4000000e+01 
1.0000000e+00 3.0000000e+00 1.4500000e+01 
1.0000000e+00 3.0250001e+00 -5.0000000e+00 
1.0000000e+00 3.0250001e+00 -4.5000000e+00 
1.0000000e+00 3.0250001e+00 -4.0000000e+00 
1.0000000e+00 3.0250001e+00 -3.5000000e+00 
1.0000000e+00 3.0250001e+00 -3.0000000e+00 
1.0000000e+00 3.0250001e+00 -2.5000000e+00 
1.0000000e+00 3.0250001e+00 -2.0000000e+00 
1.0000000e+00 3.0250001e+00 -1.5000000e+00 
1.0000000e+00 3.0250001e+00 -1.0000000e+00 
1.0000000e+00 3.0250001e+00 -5.0000000e-01 
1.0000000e+00 3.0250001e+00 0.0000000e+00 
1.0000000e+00 3.0250001e+00 5.0000000e-01 
1.0000000e+00 3.0250001e+00 1.0000000e+00 
1.0000000e+00 3.0250001e+00 1.5000000e+00 
1.0000000e+00 3.0250001e+00 2.0000000e+00 
1.0000000e+00 3.0250001e+00 2.5000000e+00 
1.0000000e+00 3.0250001e+00 3.0000000e+00 
1.0000000e+00 3.0250001e+00 3.5000000e+00 
1.0000000e+00 3.0250001e+00 4.0000000e+00 
1.0000000e+00 3.0250001e+00 4.5000000e+00 
1.0000000e+00 3.0250001e+00 5.0000000e+00 
1.0000000e+00 3.0250001e+00 5.5000000e+00 
1.0000000e+00 3.0250001e+00 6.0000000e+00 
1.0000000e+00 3.0250001e+00 6.5000000e+00 
1.0000000e+00 3.0250001e+00 7.0000000e+00 
1.0000000e+00 3.0250001e+00 7.5000000e+00 
1.0000000e+00 3.0250001e+00 8.0000000e+00 
1.0000000e+00 3.0250001e+00 8.5000000e+00 
1.0000000e+00 3.0250001e+00 9.0000000e+00 
1.0000000e+00 3.0250001e+00 9.5000000e+00 
1.0000000e+00 3.0250001e+00 1.0000000e+01 
1.0000000e+00 3.0250001e+00 1.0500000e+01 
1.0000000e+00 3.0250001e+00 1.1000000e+01 
1.0000000e+00 3.0250001e+00 1.1500000e+01 
1.0000000e+00 3.0250001e+00 1.2000000e+01 
1.0000000e+00 3.0250001e+00 1.2500000e+01 
1.0000000e+00 3.0250001e+00 1.3000000e+01 
1.0000000e+00 3.0250001e+00 1.3500000e+01 
1.0000000e+00 3.0250001e+00 1.4000000e+01 
1.0000000e+00 3.0250001e+00 1.4500000e+01 
1.0000000e+00 -2.0000000e+00 -5.0000000e+00 
1.0000000e+00 -2.0000000e+00 -4.5000000e+00 
1.0000000e+00 -2.0000000e+00 -4.0000000e+00 
1.0000000e+00 -2.0000000e+00 -3.5000000e+00 
1.0000000e+00 -2.0000000e+00 -3.0000000e+00 
1.0000000e+00 -2.0000000e+00 -2.5000000e+00 
1.0000000e+00 -2.0000000e+00 -2.0000000e+00 
1.0000000e+00 -2.0000000e+00 -1.5000000e+00 
1.0000000e+00 -2.0000000e+00 -1.0000000e+00 
1.0000000e+00 -2.0000000e+00 -5.0000000e-01 
1.0000000e+00 -2.0000000e+00 1.0500000e+01 
1.0000000e+00 -2.0000000e+00 1.1000000e+01 
1.0000000e+00 -2.0000000e+00 1.1500000e+01 
1.0000000e+00 -2.0000000e+00 1.2000000e+01 
1.0000000e+00 -2.0000000e+00 1.2500000e+01 
1.0000000e+00 -2.0000000e+00 1.3000000e+01 
1.0000000e+00 -2.0000000e+00 1.3500000e+01 
1.0000000e+00 -2.0000000e+00 1.4000000e+01 
1.0000000e+00 -2.0000000e+00 1.4500000e+01 
1.0000000e+00 0.0000000e+00 0.0000000e+00 
2.0000000e+00 0.0000000e+00 0.0000000e+00 
3.0000000e+00 0.0000000e+00 0.0000000e+00 
4.0000000e+00 0.0000000e+00 0.0000000e+00 
5.0000000e+00 1.0000000e+00 0.0000000e+00 
5.0000000e+00 2.0000000e+00 0.0000000e+00 
0.0000000e+00 2.0000000e+00 0.0000000e+00 
0.0000000e+00 1.0000000e+00 0.0000000e+00 
0.0000000e+00 0.0000000e+00 1.0000000e+00 
0.0000000e+00 0.0000000e+00 2.0000000e+00 
0.0000000e+00 0.0000000e+00 3.0000000e+00 
0.0000000e+00 0.0000000e+00 4.0000000e+00 
0.0000000e+00 0.0000000e+00 5.0000000e+00 
0.0000000e+00 0.0000000e+00 6.0000000e+00 
0.0000000e+00 0.0000000e+00 7.0000000e+00 
0.0000000e+00 0.0000000e+00 8.0000000e+00 
0.0000000e+00 0.0000000e+00 9.0000000e+00 
5.0000000e+00 0.0000000e+00 1.0000000e+00 
5.0000000e+00 0.0000000e+00 2.0000000e+00 
5.0000000e+00 0.0000000e+00 3.0000000e+00 
5.0000000e+00 0.0000000e+00 4.0000000e+00 
5.0000000e+00 0.0000000e+00 5.0000000e+00 
5.0000000e+00 0.0000000e+00 6.0000000e+00 
5.0000000e+00 0.0000000e+00 7.0000000e+00 
5.0000000e+00 0.0000000e+00 8.0000000e+00 
5.0000000e+00 0.0000000e+00 9.0000000e+00 
1.0000000e+00 0.0000000e+00 1.0000000e+01 
2.0000000e+00 0.0000000e+00 1.0000000e+01 
3.0000000e+00 0.0000000e+00 1.0000000e+01 
4.0000000e+00 0.0000000e+00 1.0000000e+01 
5.0000000e+00 3.0000000e+00 1.0000000e+00 
5.0000000e+00 3.0000000e+00 2.0000000e+00 
5.0000000e+00 3.0000000e+00 3.0000000e+00 
5.0000000e+00 3.0000000e+00 4.0000000e+00 
5.0000000e+00 3.0000000e+00 5.0000000e+00 
5.0000000e+00 3.0000000e+00 6.0000000e+00 
5.0000000e+00 3.0000000e+00 7.0000000e+00 
5.0000000e+00 3.0000000e+00 8.0000000e+00 
5.0000000e+00 3.0000000e+00 9.0000000e+00 
5.0000000e+00 1.0000000e+00 1.0000000e+01 
5.0000000e+00 2.0000000e+00 1.0000000e+01 
0.0000000e+00 3.0000000e+00 1.0000000e+00 
0.0000000e+00 3.0000000e+00 2.0000000e+00 
0.0000000e+00 3.0000000e+00 3.0000000e+00 
0.0000000e+00 3.0000000e+00 4.0000000e+00 
0.0000000e+00 3.0000000e+00 5.0000000e+00 
0.0000000e+00 3.0000000e+00 6.0000000e+00 
0.0000000e+00 3.0000000e+00 7.0000000e+00 
0.0000000e+00 3.0000000e+00 8.0000000e+00 
0.0000000e+00 3.0000000e+00 9.0000000e+00 
0.0000000e+00 2.0000000e+00 1.0000000e+01 
0.0000000e+00 1.0000000e+00 1.0000000e+01 
4.0000000e+00 3.0000000e+00 0.0000000e+00 
3.0000000e+00 3.0000000e+00 0.0000000e+00 
2.0000000e+00 3.0000000e+00 0.0000000e+00 
4.0000000e+00 3.0000000e+00 1.0000000e+01 
3.0000000e+00 3.0000000e+00 1.0000000e+01 
2.0000000e+00 3.0000000e+00 1.0000000e+01 
4.0618000e+00 1.5000000e+00 0.0000000e+00 
1.5046000e+00 7.6549745e-01 0.0000000e+00 
2.5000000e+00 2.1339746e+00 0.0000000e+00 
1.5046000e+00 2.2345026e+00 0.0000000e+00 
2.4957771e+00 8.1560516e-01 0.0000000e+00 
3.4707544e+00 2.2336540e+00 0.0000000e+00 
3.4700506e+00 7.5794268e-01 0.0000000e+00 
8.6322361e-01 1.5000000e+00 0.0000000e+00 
2.0000000e+00 1.5000000e+00 0.0000000e+00 
2.9960666e+00 1.4974480e+00 0.0000000e+00 
4.2679491e+00 7.3205084e-01 0.0000000e+00 
4.2679491e+00 2.2679491e+00 0.0000000e+00 
7.2695929e-01 2.2730408e+00 0.0000000e+00 
7.2695929e-01 7.2695929e-01 0.0000000e+00 
4.1822505e+00 0.0000000e+00 2.5515697e+00 
4.2017918e+00 0.0000000e+00 4.4725966e+00 
4.1114569e+00 0.0000000e+00 6.5092020e+00 
8.6602539e-01 0.0000000e+00 3.5000000e+00 
8.4778279e-01 0.0000000e+00 5.4684029e+00 
8.9629614e-01 0.0000000e+00 7.5867257e+00 
2.5566745e+00 0.0000000e+00 8.1853306e-01 
2.4918270e+00 0.0000000e+00 9.1386929e+00 
8.4677207e-01 0.0000000e+00 1.5042374e+00 
4.0943027e+00 0.0000000e+00 8.4081745e+00 
8.6281651e-01 0.0000000e+00 2.5007062e+00 
1.7315160e+00 0.0000000e+00 3.0001178e+00 
1.7319617e+00 0.0000000e+00 4.0000196e+00 
2.5980761e+00 0.0000000e+00 3.5000000e+00 
2.5536871e+00 0.0000000e+00 4.4963923e+00 
2.5928419e+00 0.0000000e+00 2.4239938e+00 
1.5037409e+00 0.0000000e+00 9.1535149e+00 
1.8433737e+00 0.0000000e+00 8.1858873e+00 
3.0000000e+00 0.0000000e+00 8.2679491e+00 
2.5000000e+00 0.0000000e+00 7.4019237e+00 
3.5042722e+00 0.0000000e+00 7.4271150e+00 
3.0310018e+00 0.0000000e+00 6.5282087e+00 
2.0373929e+00 0.0000000e+00 6.5307913e+00 
3.4767809e+00 0.0000000e+00 5.8031492e+00 
2.5452602e+00 0.0000000e+00 5.5720768e+00 
1.6456656e+00 0.0000000e+00 1.9697139e+00 
8.6297011e-01 0.0000000e+00 4.4947371e+00 
1.0111579e+00 0.0000000e+00 6.5282545e+00 
3.4994321e+00 0.0000000e+00 8.4691072e-01 
4.1860156e+00 0.0000000e+00 3.5040276e+00 
1.7320508e+00 0.0000000e+00 5.0000000e+00 
4.0544066e+00 0.0000000e+00 1.5781221e+00 
1.5817389e+00 0.0000000e+00 9.3943578e-01 
8.3166349e-01 0.0000000e+00 8.5090933e+00 
3.4686174e+00 0.0000000e+00 9.1752682e+00 
3.0709300e+00 0.0000000e+00 1.5799091e+00 
3.3927374e+00 0.0000000e+00 3.0399952e+00 
3.3826034e+00 0.0000000e+00 3.9747651e+00 
4.3420062e+00 0.0000000e+00 7.4688983e+00 
3.4023225e+00 0.0000000e+00 4.9314723e+00 
1.6740381e+00 0.0000000e+00 7.3014426e+00 
4.2715640e+00 0.0000000e+00 5.4758859e+00 
1.6225953e+00 0.0000000e+00 5.8104177e+00 
4.2679491e+00 0.0000000e+00 9.2679491e+00 
7.3205084e-01 0.0000000e+00 7.3205084e-01 
4.2679491e+00 0.0000000e+00 7.3205084e-01 
7.3205084e-01 0.0000000e+00 9.2679491e+00 
3.4586334e+00 0.0000000e+00 2.2347178e+00 
2.2895701e+00 0.0000000e+00 1.5463171e+00 
5.0000000e+00 2.2345026e+00 1.5046000e+00 
[...]
POINT_DATA 460
FIELD FieldData 2
DISPLACEMENT 3 460  float
0.0000000e+00 0.0000000e+00 0.0000000e+00 
0.0000000e+00 0.0000000e+00 0.0000000e+00 
0.0000000e+00 -2.2804650e-07 0.0000000e+00 
0.0000000e+00 -6.4575697e-06 0.0000000e+00 
0.0000000e+00 0.0000000e+00 0.0000000e+00 
0.0000000e+00 0.0000000e+00 0.0000000e+00 
0.0000000e+00 -5.8813234e-09 0.0000000e+00 
0.0000000e+00 -3.8838048e-09 0.0000000e+00 
0.0000000e+00 -5.0409250e-05 0.0000000e+00 
0.0000000e+00 -8.2645376e-05 0.0000000e+00 
0.0000000e+00 -1.7903934e-04 0.0000000e+00 
0.0000000e+00 -3.3413441e-04 0.0000000e+00 
0.0000000e+00 -5.2421540e-04 0.0000000e+00 
0.0000000e+00 -6.8715552e-04 0.0000000e+00 
0.0000000e+00 -7.0786453e-04 0.0000000e+00 
0.0000000e+00 -5.6139176e-04 0.0000000e+00 
0.0000000e+00 -3.6406645e-04 0.0000000e+00 
0.0000000e+00 -1.8937142e-04 0.0000000e+00 
0.0000000e+00 -6.9132497e-05 0.0000000e+00 
-1.2597566e-06 -1.3596834e-05 4.2354159e-06 
-3.0532848e-07 6.3960124e-06 -7.7583934e-07 
-5.1012688e-07 9.1792745e-06 -9.9339150e-07 
-2.6459634e-07 6.6227949e-06 1.1340354e-07 
7.1437749e-09 3.5278038e-06 -3.0399172e-09 
4.8094442e-08 1.4696736e-06 1.3185333e-07 
8.0873967e-08 4.6198500e-07 2.5688064e-07 
3.2419205e-08 6.8742921e-08 1.1747328e-07 
3.0325105e-09 -4.3854850e-08 7.5348680e-08 
-4.3623438e-09 -4.5469847e-08 2.6277167e-08 
9.2887731e-10 -2.0503784e-08 5.1055578e-09 
1.7222755e-09 1.0808404e-09 5.2623661e-09 
1.4440185e-09 1.3323069e-08 2.6581011e-09 
1.7495541e-09 1.6909883e-08 3.2865424e-09 
1.5818304e-09 1.4950539e-08 5.0049556e-09 
1.3329189e-09 1.0271484e-08 5.7893175e-09 
8.6340290e-10 4.8811191e-09 5.7498024e-09 
6.7809580e-10 9.6774186e-11 4.2751496e-09 
3.2034356e-10 -3.3193090e-09 2.1944953e-09 
0.0000000e+00 -5.0971085e-09 0.0000000e+00 
0.0000000e+00 -5.8227547e-09 0.0000000e+00 
0.0000000e+00 -5.7560627e-09 0.0000000e+00 
0.0000000e+00 -5.1413913e-09 0.0000000e+00 
0.0000000e+00 -4.1890615e-09 0.0000000e+00 
0.0000000e+00 -3.0918759e-09 0.0000000e+00 
0.0000000e+00 -2.0256374e-09 0.0000000e+00 
0.0000000e+00 -1.1426869e-09 0.0000000e+00 
0.0000000e+00 -5.6208477e-10 0.0000000e+00 
0.0000000e+00 -3.5985512e-10 0.0000000e+00 
0.0000000e+00 -5.0387829e-05 0.0000000e+00 
0.0000000e+00 -8.2754814e-05 0.0000000e+00 
0.0000000e+00 -1.7954469e-04 0.0000000e+00 
0.0000000e+00 -3.3527624e-04 0.0000000e+00 
0.0000000e+00 -5.2613567e-04 0.0000000e+00 
0.0000000e+00 -6.8974524e-04 0.0000000e+00 
0.0000000e+00 -7.1056496e-04 0.0000000e+00 
0.0000000e+00 -5.6354742e-04 0.0000000e+00 
0.0000000e+00 -3.6546742e-04 0.0000000e+00 
0.0000000e+00 -1.9010060e-04 0.0000000e+00 
0.0000000e+00 -7.0705086e-05 0.0000000e+00 
0.0000000e+00 -1.3148045e-05 0.0000000e+00 
0.0000000e+00 6.6627194e-06 0.0000000e+00 
0.0000000e+00 9.4222551e-06 0.0000000e+00 
0.0000000e+00 6.7316937e-06 0.0000000e+00 
0.0000000e+00 3.5789849e-06 0.0000000e+00 
0.0000000e+00 1.4840754e-06 0.0000000e+00 
0.0000000e+00 4.5703868e-07 0.0000000e+00 
0.0000000e+00 6.2855548e-08 0.0000000e+00 
0.0000000e+00 -4.6370975e-08 0.0000000e+00 
0.0000000e+00 -4.7099167e-08 0.0000000e+00 
0.0000000e+00 -2.1259806e-08 0.0000000e+00 
0.0000000e+00 8.9304231e-10 0.0000000e+00 
0.0000000e+00 1.3200109e-08 0.0000000e+00 
0.0000000e+00 1.6862678e-08 0.0000000e+00 
0.0000000e+00 1.4930260e-08 0.0000000e+00 
0.0000000e+00 1.0267045e-08 0.0000000e+00 
0.0000000e+00 4.8955076e-09 0.0000000e+00 
0.0000000e+00 1.2405034e-10 0.0000000e+00 
0.0000000e+00 -3.2702054e-09 0.0000000e+00 
0.0000000e+00 -5.1100590e-09 0.0000000e+00 
0.0000000e+00 -5.8292056e-09 0.0000000e+00 
0.0000000e+00 -5.7615859e-09 0.0000000e+00 
0.0000000e+00 -5.1458486e-09 0.0000000e+00 
0.0000000e+00 -4.1925015e-09 0.0000000e+00 
0.0000000e+00 -3.0944367e-09 0.0000000e+00 
0.0000000e+00 -2.0274982e-09 0.0000000e+00 
0.0000000e+00 -1.1440429e-09 0.0000000e+00 
0.0000000e+00 -5.6313648e-10 0.0000000e+00 
0.0000000e+00 -3.6080530e-10 0.0000000e+00 
0.0000000e+00 0.0000000e+00 0.0000000e+00 
0.0000000e+00 0.0000000e+00 0.0000000e+00 
0.0000000e+00 0.0000000e+00 0.0000000e+00 
0.0000000e+00 0.0000000e+00 0.0000000e+00 
0.0000000e+00 0.0000000e+00 0.0000000e+00 
0.0000000e+00 0.0000000e+00 0.0000000e+00 
0.0000000e+00 0.0000000e+00 0.0000000e+00 
0.0000000e+00 0.0000000e+00 0.0000000e+00 
0.0000000e+00 0.0000000e+00 0.0000000e+00 
0.0000000e+00 0.0000000e+00 0.0000000e+00 
0.0000000e+00 0.0000000e+00 0.0000000e+00 
0.0000000e+00 0.0000000e+00 0.0000000e+00 
0.0000000e+00 0.0000000e+00 0.0000000e+00 
0.0000000e+00 0.0000000e+00 0.0000000e+00 
0.0000000e+00 0.0000000e+00 0.0000000e+00 
0.0000000e+00 0.0000000e+00 0.0000000e+00 
0.0000000e+00 0.0000000e+00 0.0000000e+00 
0.0000000e+00 0.0000000e+00 0.0000000e+00 
0.0000000e+00 0.0000000e+00 0.0000000e+00 
0.0000000e+00 0.0000000e+00 0.0000000e+00 
0.0000000e+00 0.0000000e+00 0.0000000e+00 
0.0000000e+00 0.0000000e+00 0.0000000e+00 
0.0000000e+00 0.0000000e+00 0.0000000e+00 
0.0000000e+00 -1.1097362e-07 0.0000000e+00 
0.0000000e+00 -2.1210937e-07 0.0000000e+00 
0.0000000e+00 -7.0079705e-06 0.0000000e+00 
0.0000000e+00 -3.3662775e-06 0.0000000e+00 
0.0000000e+00 0.0000000e+00 0.0000000e+00 
0.0000000e+00 0.0000000e+00 0.0000000e+00 
0.0000000e+00 0.0000000e+00 0.0000000e+00 
0.0000000e+00 0.0000000e+00 0.0000000e+00 
0.0000000e+00 0.0000000e+00 0.0000000e+00 
0.0000000e+00 0.0000000e+00 0.0000000e+00 
0.0000000e+00 0.0000000e+00 0.0000000e+00 
0.0000000e+00 0.0000000e+00 0.0000000e+00 
0.0000000e+00 0.0000000e+00 0.0000000e+00 
0.0000000e+00 0.0000000e+00 0.0000000e+00 
0.0000000e+00 0.0000000e+00 0.0000000e+00 
0.0000000e+00 0.0000000e+00 0.0000000e+00 
0.0000000e+00 0.0000000e+00 0.0000000e+00 
0.0000000e+00 0.0000000e+00 0.0000000e+00 
0.0000000e+00 0.0000000e+00 0.0000000e+00 
0.0000000e+00 0.0000000e+00 0.0000000e+00 
0.0000000e+00 0.0000000e+00 0.0000000e+00 
0.0000000e+00 0.0000000e+00 0.0000000e+00 
0.0000000e+00 0.0000000e+00 0.0000000e+00 
0.0000000e+00 0.0000000e+00 0.0000000e+00 
0.0000000e+00 0.0000000e+00 0.0000000e+00 
0.0000000e+00 0.0000000e+00 0.0000000e+00 
0.0000000e+00 -1.3803104e-07 0.0000000e+00 
0.0000000e+00 -5.2169131e-08 0.0000000e+00 
0.0000000e+00 -3.0607223e-09 0.0000000e+00 
0.0000000e+00 6.5725931e-09 0.0000000e+00 
0.0000000e+00 1.5361520e-08 0.0000000e+00 
0.0000000e+00 1.1413072e-08 0.0000000e+00 
0.0000000e+00 6.0551799e-09 0.0000000e+00 
0.0000000e+00 -1.0591070e-09 0.0000000e+00 
0.0000000e+00 -4.5682533e-09 0.0000000e+00 
0.0000000e+00 -2.7593647e-09 0.0000000e+00 
0.0000000e+00 -4.9505893e-09 0.0000000e+00 
0.0000000e+00 -1.9090253e-06 0.0000000e+00 
0.0000000e+00 2.0948644e-06 0.0000000e+00 
0.0000000e+00 1.0514922e-06 0.0000000e+00 
0.0000000e+00 2.7399130e-07 0.0000000e+00 
0.0000000e+00 3.9522231e-08 0.0000000e+00 
0.0000000e+00 1.4439323e-08 0.0000000e+00 
0.0000000e+00 1.6642970e-08 0.0000000e+00 
0.0000000e+00 9.4799351e-09 0.0000000e+00 
0.0000000e+00 1.9358798e-10 0.0000000e+00 
0.0000000e+00 -3.1106973e-09 0.0000000e+00 
0.0000000e+00 -1.7734941e-09 0.0000000e+00 
0.0000000e+00 -4.6460494e-07 0.0000000e+00 
0.0000000e+00 -1.0445835e-06 0.0000000e+00 
0.0000000e+00 -2.4193057e-06 0.0000000e+00 
0.0000000e+00 -5.4827556e-09 0.0000000e+00 
0.0000000e+00 -5.0624571e-09 0.0000000e+00 
0.0000000e+00 -4.7428173e-09 0.0000000e+00 
0.0000000e+00 -2.5805309e-07 0.0000000e+00 
0.0000000e+00 -2.1353401e-06 0.0000000e+00 
0.0000000e+00 -2.2478125e-06 0.0000000e+00 
0.0000000e+00 -1.0090514e-05 0.0000000e+00 
0.0000000e+00 -1.2882589e-06 0.0000000e+00 
0.0000000e+00 -8.3143101e-07 0.0000000e+00 
0.0000000e+00 -1.9403525e-07 0.0000000e+00 
0.0000000e+00 -6.9201633e-06 0.0000000e+00 
0.0000000e+00 -3.8303251e-06 0.0000000e+00 
0.0000000e+00 -1.0625671e-06 0.0000000e+00 
0.0000000e+00 -1.3518562e-07 0.0000000e+00 
0.0000000e+00 -3.3589203e-07 0.0000000e+00 
0.0000000e+00 -1.8451905e-05 0.0000000e+00 
0.0000000e+00 -3.0932956e-06 0.0000000e+00 
0.0000000e+00 0.0000000e+00 0.0000000e+00 
0.0000000e+00 0.0000000e+00 0.0000000e+00 
0.0000000e+00 0.0000000e+00 0.0000000e+00 
0.0000000e+00 0.0000000e+00 0.0000000e+00 
0.0000000e+00 0.0000000e+00 0.0000000e+00 
0.0000000e+00 0.0000000e+00 0.0000000e+00 
0.0000000e+00 0.0000000e+00 0.0000000e+00 
0.0000000e+00 0.0000000e+00 0.0000000e+00 
0.0000000e+00 0.0000000e+00 0.0000000e+00 
0.0000000e+00 0.0000000e+00 0.0000000e+00 
0.0000000e+00 0.0000000e+00 0.0000000e+00 
0.0000000e+00 0.0000000e+00 0.0000000e+00 
0.0000000e+00 0.0000000e+00 0.0000000e+00 
0.0000000e+00 0.0000000e+00 0.0000000e+00 
0.0000000e+00 0.0000000e+00 0.0000000e+00 
0.0000000e+00 0.0000000e+00 0.0000000e+00 
0.0000000e+00 0.0000000e+00 0.0000000e+00 
0.0000000e+00 0.0000000e+00 0.0000000e+00 
0.0000000e+00 0.0000000e+00 0.0000000e+00 
0.0000000e+00 0.0000000e+00 0.0000000e+00 
0.0000000e+00 0.0000000e+00 0.0000000e+00 
0.0000000e+00 0.0000000e+00 0.0000000e+00 
0.0000000e+00 0.0000000e+00 0.0000000e+00 
0.0000000e+00 0.0000000e+00 0.0000000e+00 
0.0000000e+00 0.0000000e+00 0.0000000e+00 
0.0000000e+00 0.0000000e+00 0.0000000e+00 
0.0000000e+00 0.0000000e+00 0.0000000e+00 
0.0000000e+00 0.0000000e+00 0.0000000e+00 
0.0000000e+00 0.0000000e+00 0.0000000e+00 
0.0000000e+00 0.0000000e+00 0.0000000e+00 
0.0000000e+00 0.0000000e+00 0.0000000e+00 
0.0000000e+00 0.0000000e+00 0.0000000e+00 
0.0000000e+00 0.0000000e+00 0.0000000e+00 
0.0000000e+00 0.0000000e+00 0.0000000e+00 
0.0000000e+00 0.0000000e+00 0.0000000e+00 
0.0000000e+00 0.0000000e+00 0.0000000e+00 
0.0000000e+00 0.0000000e+00 0.0000000e+00 
0.0000000e+00 0.0000000e+00 0.0000000e+00 
0.0000000e+00 0.0000000e+00 0.0000000e+00 
0.0000000e+00 0.0000000e+00 0.0000000e+00 
0.0000000e+00 0.0000000e+00 0.0000000e+00 
0.0000000e+00 0.0000000e+00 0.0000000e+00 
0.0000000e+00 0.0000000e+00 0.0000000e+00 
0.0000000e+00 0.0000000e+00 0.0000000e+00 
0.0000000e+00 0.0000000e+00 0.0000000e+00 
0.0000000e+00 0.0000000e+00 0.0000000e+00 
0.0000000e+00 0.0000000e+00 0.0000000e+00 
0.0000000e+00 0.0000000e+00 0.0000000e+00 
0.0000000e+00 0.0000000e+00 0.0000000e+00 
0.0000000e+00 -7.1615943e-08 0.0000000e+00 
0.0000000e+00 -3.3068901e-09 0.0000000e+00 
0.0000000e+00 -1.7527446e-09 0.0000000e+00 
0.0000000e+00 1.1405829e-08 0.0000000e+00 
0.0000000e+00 1.7447234e-09 0.0000000e+00 
0.0000000e+00 -1.0275033e-08 0.0000000e+00 
0.0000000e+00 7.0785751e-09 0.0000000e+00 
0.0000000e+00 4.7846149e-09 0.0000000e+00 
0.0000000e+00 2.6210545e-09 0.0000000e+00 
0.0000000e+00 6.8534560e-09 0.0000000e+00 
0.0000000e+00 -2.4519094e-08 0.0000000e+00 
0.0000000e+00 9.2407966e-09 0.0000000e+00 
0.0000000e+00 8.7128988e-09 0.0000000e+00 
0.0000000e+00 1.4990089e-09 0.0000000e+00 
0.0000000e+00 -2.8604514e-08 0.0000000e+00 
0.0000000e+00 -9.5195285e-10 0.0000000e+00 
0.0000000e+00 -2.9145160e-09 0.0000000e+00 
0.0000000e+00 -9.8290805e-08 0.0000000e+00 
0.0000000e+00 9.3189767e-09 0.0000000e+00 
0.0000000e+00 4.6721187e-09 0.0000000e+00 
0.0000000e+00 -3.1700264e-08 0.0000000e+00 
0.0000000e+00 9.1164170e-09 0.0000000e+00 
0.0000000e+00 3.8191117e-09 0.0000000e+00 
0.0000000e+00 -7.1196444e-09 0.0000000e+00 
0.0000000e+00 -5.3299254e-10 0.0000000e+00 
0.0000000e+00 -4.9496900e-09 0.0000000e+00 
0.0000000e+00 -1.7602428e-09 0.0000000e+00 
0.0000000e+00 -1.4980510e-07 0.0000000e+00 
0.0000000e+00 -5.3764122e-08 0.0000000e+00 
0.0000000e+00 -1.1424180e-11 0.0000000e+00 
0.0000000e+00 -1.9519259e-06 0.0000000e+00 
0.0000000e+00 3.7787009e-07 0.0000000e+00 
0.0000000e+00 4.8661434e-08 0.0000000e+00 
0.0000000e+00 5.6151062e-09 0.0000000e+00 
0.0000000e+00 4.8212689e-07 0.0000000e+00 
0.0000000e+00 1.7131933e-08 0.0000000e+00 
0.0000000e+00 1.2951322e-08 0.0000000e+00 
0.0000000e+00 2.1632933e-07 0.0000000e+00 
0.0000000e+00 1.2502774e-06 0.0000000e+00 
0.0000000e+00 1.0258353e-07 0.0000000e+00 
0.0000000e+00 1.5867657e-08 0.0000000e+00 
0.0000000e+00 1.2009775e-08 0.0000000e+00 
0.0000000e+00 4.5905146e-09 0.0000000e+00 
0.0000000e+00 7.7289315e-07 0.0000000e+00 
0.0000000e+00 -1.5968320e-07 0.0000000e+00 
0.0000000e+00 2.3260005e-09 0.0000000e+00 
0.0000000e+00 3.8541721e-08 0.0000000e+00 
0.0000000e+00 6.6447816e-09 0.0000000e+00 
0.0000000e+00 2.1171320e-07 0.0000000e+00 
0.0000000e+00 5.7583759e-07 0.0000000e+00 
0.0000000e+00 1.1547850e-08 0.0000000e+00 
0.0000000e+00 1.0548423e-08 0.0000000e+00 
0.0000000e+00 6.8959443e-09 0.0000000e+00 
0.0000000e+00 6.4868073e-07 0.0000000e+00 
0.0000000e+00 -1.2122381e-10 0.0000000e+00 
0.0000000e+00 -4.3348523e-06 0.0000000e+00 
0.0000000e+00 -1.0377971e-06 0.0000000e+00 
0.0000000e+00 -1.4472806e-09 0.0000000e+00 
0.0000000e+00 -1.6104280e-09 0.0000000e+00 
0.0000000e+00 -4.0790766e-09 0.0000000e+00 
0.0000000e+00 -5.2706919e-09 0.0000000e+00 
0.0000000e+00 -5.3060583e-09 0.0000000e+00 
0.0000000e+00 -1.8238114e-09 0.0000000e+00 
0.0000000e+00 -5.9277410e-09 0.0000000e+00 
0.0000000e+00 -2.3092097e-09 0.0000000e+00 
0.0000000e+00 -3.3720577e-09 0.0000000e+00 
0.0000000e+00 -3.8290802e-09 0.0000000e+00 
0.0000000e+00 -4.3094452e-09 0.0000000e+00 
0.0000000e+00 -2.1134414e-09 0.0000000e+00 
0.0000000e+00 -5.8008003e-09 0.0000000e+00 
0.0000000e+00 -4.5415232e-09 0.0000000e+00 
0.0000000e+00 -1.5803412e-09 0.0000000e+00 
8.4653378e-09 2.6718677e-08 6.1042776e-08 
1.2023721e-09 1.1401220e-08 5.9942487e-09 
1.8116755e-09 1.0119903e-08 5.6983191e-09 
3.6457593e-07 1.9651718e-06 -1.2441930e-07 
1.1181235e-07 7.6187058e-07 1.2934859e-07 
4.4269708e-09 1.3905597e-08 1.7653431e-09 
1.8315433e-08 1.4044973e-09 -3.6248533e-08 
8.0114454e-10 3.5234458e-09 3.0551588e-09 
-3.9968481e-07 2.5866545e-06 -1.3527326e-06 
1.0529340e-09 1.3538595e-09 4.8625366e-09 
-1.2525003e-07 -3.1861353e-07 -2.9173745e-07 
9.8691566e-10 -4.9076694e-09 2.3121489e-09 
6.7744882e-10 9.8158068e-09 2.5160904e-09 
1.7013608e-09 8.8893453e-09 5.0784785e-09 
1.6169369e-09 3.0428078e-09 4.9116879e-09 
1.6417431e-09 8.2727070e-09 4.5328252e-09 
1.9549586e-09 1.2666005e-08 3.9874237e-09 
1.7064186e-09 1.9964328e-09 4.9260320e-09 
1.8957986e-09 1.2746790e-08 4.1902197e-09 
2.8966596e-09 1.4740405e-08 5.2393938e-09 
8.9166106e-09 2.0110502e-08 5.1684652e-09 
6.6396932e-09 2.2260350e-08 1.0200640e-08 
2.0817980e-08 3.6426862e-08 2.2865997e-08 
3.2699759e-08 3.5748638e-08 1.2109186e-08 
5.1102500e-08 9.5567039e-08 4.3090189e-08 
4.9742280e-08 7.2679526e-08 -4.8100448e-09 
1.3153419e-07 2.5532199e-07 3.7141170e-08 
1.1115800e-07 2.0008447e-07 -3.6186485e-08 
1.4485050e-07 4.0818452e-07 -3.4284522e-08 
1.0208341e-07 1.4596529e-07 -1.4849816e-07 
1.8037667e-07 5.5101822e-07 -2.9103478e-07 
4.4662003e-09 1.5412860e-08 1.3644378e-08 
2.3476752e-09 1.4928411e-08 6.9422508e-09 
1.0549894e-07 2.3686930e-07 1.1855914e-07 
2.6508422e-08 1.6190713e-08 -1.4905233e-08 
1.1994181e-09 -4.0889399e-09 3.1286909e-09 
3.1509163e-08 7.2675157e-08 5.1967827e-08 
1.0377336e-08 1.5658642e-08 1.5667555e-09 
-1.9101989e-07 -9.0745453e-07 -6.0004135e-07 
1.1238758e-09 -2.7374314e-09 2.7052858e-09 
1.9903610e-09 8.3597831e-09 5.4067701e-09 
1.9940729e-09 3.5888490e-09 5.6803109e-09 
3.4901135e-09 2.9114393e-09 1.4557239e-08 
-1.0345326e-08 -6.9367182e-08 -8.6681609e-08 
1.5786497e-07 1.4773892e-06 7.6130000e-08 
1.4387906e-07 6.4558577e-07 8.6288566e-08 
7.9634013e-08 2.9667066e-07 1.6895436e-07 
2.6283256e-08 8.7458133e-08 8.6385370e-08 
1.8280772e-09 1.3728483e-08 4.0360728e-09 
2.0979674e-09 1.2858183e-08 4.9359152e-09 
6.3999539e-07 -4.5812903e-06 -1.3576889e-07 
2.4729789e-07 2.4428386e-06 -7.5088690e-07 
8.3449198e-10 -3.4527423e-09 3.1442655e-09 
-3.0179321e-09 -1.6305428e-07 -4.2389084e-07 
2.8404475e-07 9.0106028e-07 -1.2280863e-08 
1.6638491e-09 5.7104064e-09 5.7588396e-09 
1.6948931e-09 1.3226379e-08 3.1925171e-09 
2.0769862e-07 5.5409168e-07 -9.0881804e-07 
3.9512735e-09 6.7950441e-09 3.3024666e-08 
1.4946686e-09 -1.8126275e-09 4.1777213e-09 
6.5550915e-10 -5.3558664e-09 1.5708916e-09 
-4.4004395e-08 -1.6794188e-07 -8.9785878e-08 
3.1760308e-08 3.4368050e-08 2.2911979e-09 
2.7147027e-07 1.3609090e-06 -4.3183235e-07 
1.3981639e-09 -1.0964986e-09 4.4248600e-09 
2.2980449e-09 1.4691885e-08 3.8012695e-09 
7.7755580e-09 -1.3531071e-09 -1.4709595e-07 
5.4715571e-08 6.3359394e-08 -4.8492261e-08 
-3.2240064e-07 -1.5258743e-06 -1.1235950e-06 
1.0232210e-08 3.7482820e-08 3.5863014e-08 
8.4629764e-10 -4.1115951e-09 2.4839408e-09 
2.4676007e-07 3.2023295e-06 -4.0413235e-07 
4.7062318e-07 3.7822072e-06 -6.2422015e-07 
7.3132320e-08 1.7364167e-06 -1.8335203e-09 
4.8695899e-08 1.0338805e-06 6.6966265e-08 
2.2111297e-07 9.6788312e-07 -4.9147616e-07 
1.2082800e-08 4.5455357e-07 4.9867566e-08 
-4.9436730e-09 1.4929282e-07 4.6402949e-08 
-1.5313799e-09 3.8189256e-08 2.5000293e-08 
-6.7282984e-09 6.0753784e-09 9.3481134e-09 
-4.6840920e-10 6.0820691e-09 4.7263722e-09 
1.8992473e-10 1.1444972e-08 3.6722432e-09 
1.4924980e-09 1.5853782e-08 3.2122742e-09 
1.3834784e-09 1.6123304e-08 3.4249823e-09 
1.0959025e-09 1.1674770e-08 3.9039252e-09 
7.1754869e-10 7.3699384e-09 4.1492583e-09 
4.2278039e-10 2.2602689e-09 3.5717898e-09 
8.9852452e-11 -2.2530489e-09 2.3659974e-09 
-1.4756472e-06 -7.3130509e-06 -7.5347987e-07 
-6.0652717e-08 6.2219897e-07 4.3421335e-07 
-7.3879718e-08 2.7732150e-07 -7.1149138e-08 
-5.3747184e-09 1.9130898e-08 -2.3228282e-08 
-2.8016864e-10 9.3470609e-09 -4.2317443e-09 
-3.6012970e-10 1.6209736e-09 -2.1957802e-09 
-5.1200441e-08 9.7327558e-08 3.1336061e-08 
-2.0277199e-08 2.9466820e-08 -1.7787945e-08 
-2.4130711e-09 1.1312486e-08 -8.3053173e-09 
-1.4852320e-08 9.4857732e-08 -6.7098668e-08 
-1.4885174e-07 1.1726448e-06 -1.9141545e-07 
-1.1266199e-07 -6.9620921e-07 1.3100041e-06 
-1.3097470e-09 3.6028815e-09 -3.6480785e-09 
-8.5459639e-08 5.4269552e-08 2.3169930e-07 
-1.8949796e-10 1.1151774e-08 -4.7011306e-09 
1.4615072e-10 9.4716892e-09 -4.7515442e-10 
-2.3833977e-08 3.7276692e-07 -1.3142279e-07 
-1.2056985e-08 6.2872701e-08 -2.8635746e-08 
-1.1270075e-07 4.5476148e-07 -1.2982315e-08 
-2.8456730e-09 8.4602609e-09 -8.7328713e-09 
-2.2548477e-08 5.2313268e-08 -4.4819483e-08 
-2.3221379e-07 2.1608421e-06 -5.5680644e-08 
-5.4559748e-09 1.0599643e-08 -7.9721802e-09 
1.7875257e-10 1.4134833e-09 -1.8176989e-10 
-2.2075469e-08 -3.5474169e-08 5.8413516e-08 
-3.9727149e-10 -3.2922904e-09 -9.2079744e-10 
-6.3274555e-08 4.3362380e-07 4.8630483e-08 
-1.4410738e-08 2.2597165e-08 -2.1176991e-08 
-7.3632627e-08 1.3464198e-07 1.5732567e-07 
-6.0139051e-08 1.2283213e-07 -1.3079863e-08 
-2.3621402e-08 1.2446436e-07 -7.9583353e-09 
-1.1392870e-09 6.8417387e-09 -2.3513433e-09 
-4.9199544e-10 1.2089394e-08 -3.0250751e-09 
6.5615685e-10 1.3762877e-08 -5.1596521e-10 
-1.7815680e-09 1.7830327e-08 -9.1291685e-09 
-6.1425076e-10 -1.3165254e-09 -1.9618456e-09 
-4.1548284e-10 6.3741492e-09 -1.3827596e-09 
3.5943248e-08 -3.4668670e-07 4.5921763e-07 
-1.5422456e-08 2.2842642e-08 -2.7725238e-09 
7.5585483e-08 -3.1532733e-07 8.0064933e-07 
6.0104521e-10 8.0714937e-09 -6.8763417e-09 
-3.5429281e-08 1.2332970e-07 -3.5452437e-08 
1.6415894e-10 -2.8659342e-09 7.2015144e-11 
-3.4722278e-10 5.8174545e-09 -2.9050218e-09 
-9.1404360e-09 2.1511157e-07 -4.7943100e-08 
-6.6031149e-08 5.7957698e-07 2.8504127e-07 
-2.6574745e-09 1.9802522e-08 -8.7186827e-09 
-2.6309626e-08 2.0562783e-08 1.0134644e-08 
-5.6245419e-10 3.8955896e-09 -3.1974932e-09 
-5.5600839e-08 1.7932925e-07 2.4268306e-08 
-3.4272802e-09 2.7128985e-08 -2.2483597e-08 
-2.0546013e-08 -4.6459256e-10 3.9441769e-10 
-1.0815453e-09 2.5505316e-09 -2.8706113e-09 
4.7189896e-10 2.5105600e-09 1.4162307e-09 
5.5090554e-11 1.2042952e-08 -3.4191050e-09 
1.0658274e-09 8.8063858e-09 -9.0041565e-09 
-2.2760485e-09 7.7200024e-09 -1.0138253e-08 
-2.1335819e-10 9.9101526e-11 -1.3946440e-09 
-2.7311227e-09 -1.2994566e-07 2.6574014e-08 
-2.0821684e-09 1.2883723e-08 -5.5686020e-09 
-1.1295622e-08 1.0301468e-08 -2.3568345e-09 
-2.0151694e-09 1.3292693e-08 -3.6937555e-09 
-2.0568365e-09 5.9946728e-09 -4.4742978e-09 
-1.4760113e-07 8.9141412e-07 -1.3069941e-09 
6.0593947e-10 6.1329803e-09 1.9242890e-09 
-3.4431221e-08 3.3796788e-08 -2.5166047e-08 
-2.2882254e-10 8.4680452e-10 -1.4892260e-10 
-1.7767430e-09 3.3354251e-08 -1.9974918e-08 