# vtk DataFile Version 4.0
vtk output
ASCII
DATASET UNSTRUCTURED_GRID
POINTS 663 float
0.0000000e+00 0.0000000e+00 0.0000000e+00 
5.0000000e+00 0.0000000e+00 0.0000000e+00 
5.0000000e+00 1.0000000e+00 0.0000000e+00 
0.0000000e+00 1.0000000e+00 0.0000000e+00 
1.0000000e-01 0.0000000e+00 0.0000000e+00 
2.0000000e-01 0.0000000e+00 0.0000000e+00 
3.0000001e-01 0.0000000e+00 0.0000000e+00 
4.0000001e-01 0.0000000e+00 0.0000000e+00 
5.0000000e-01 0.0000000e+00 0.0000000e+00 
6.0000002e-01 0.0000000e+00 0.0000000e+00 
6.9999999e-01 0.0000000e+00 0.0000000e+00 
8.0000001e-01 0.0000000e+00 0.0000000e+00 
8.9999998e-01 0.0000000e+00 0.0000000e+00 
1.0000000e+00 0.0000000e+00 0.0000000e+00 
1.1000000e+00 0.0000000e+00 0.0000000e+00 
1.2000000e+00 0.0000000e+00 0.0000000e+00 
1.3000000e+00 0.0000000e+00 0.0000000e+00 
1.4000000e+00 0.0000000e+00 0.0000000e+00 
1.5000000e+00 0.0000000e+00 0.0000000e+00 
1.6000000e+00 0.0000000e+00 0.0000000e+00 
1.7000000e+00 0.0000000e+00 0.0000000e+00 
1.8000000e+00 0.0000000e+00 0.0000000e+00 
1.9000000e+00 0.0000000e+00 0.0000000e+00 
2.0000000e+00 0.0000000e+00 0.0000000e+00 
2.0999999e+00 0.0000000e+00 0.0000000e+00 
2.2000000e+00 0.0000000e+00 0.0000000e+00 
2.3000000e+00 0.0000000e+00 0.0000000e+00 
2.4000001e+00 0.0000000e+00 0.0000000e+00 
2.5000000e+00 0.0000000e+00 0.0000000e+00 
2.5999999e+00 0.0000000e+00 0.0000000e+00 
2.7000000e+00 0.0000000e+00 0.0000000e+00 
2.8000000e+00 0.0000000e+00 0.0000000e+00 
2.9000001e+00 0.0000000e+00 0.0000000e+00 
3.0000000e+00 0.0000000e+00 0.0000000e+00 
3.0999999e+00 0.0000000e+00 0.0000000e+00 
3.2000000e+00 0.0000000e+00 0.0000000e+00 
3.3000000e+00 0.0000000e+00 0.0000000e+00 
3.4000001e+00 0.0000000e+00 0.0000000e+00 
3.5000000e+00 0.0000000e+00 0.0000000e+00 
3.5999999e+00 0.0000000e+00 0.0000000e+00 
3.7000000e+00 0.0000000e+00 0.0000000e+00 
3.8000000e+00 0.0000000e+00 0.0000000e+00 
3.9000001e+00 0.0000000e+00 0.0000000e+00 
4.0000000e+00 0.0000000e+00 0.0000000e+00 
4.0999999e+00 0.0000000e+00 0.0000000e+00 
4.1999998e+00 0.0000000e+00 0.0000000e+00 
4.3000002e+00 0.0000000e+00 0.0000000e+00 
4.4000001e+00 0.0000000e+00 0.0000000e+00 
4.5000000e+00 0.0000000e+00 0.0000000e+00 
4.5999999e+00 0.0000000e+00 0.0000000e+00 
4.6999998e+00 0.0000000e+00 0.0000000e+00 
4.8000002e+00 0.0000000e+00 0.0000000e+00 
4.9000001e+00 0.0000000e+00 0.0000000e+00 
5.0000000e+00 1.0000000e-01 0.0000000e+00 
5.0000000e+00 2.0000000e-01 0.0000000e+00 
5.0000000e+00 3.0000001e-01 0.0000000e+00 
5.0000000e+00 4.0000001e-01 0.0000000e+00 
5.0000000e+00 5.0000000e-01 0.0000000e+00 
5.0000000e+00 6.0000002e-01 0.0000000e+00 
5.0000000e+00 6.9999999e-01 0.0000000e+00 
5.0000000e+00 8.0000001e-01 0.0000000e+00 
5.0000000e+00 8.9999998e-01 0.0000000e+00 
4.9000001e+00 1.0000000e+00 0.0000000e+00 
4.8000002e+00 1.0000000e+00 0.0000000e+00 
4.6999998e+00 1.0000000e+00 0.0000000e+00 
4.5999999e+00 1.0000000e+00 0.0000000e+00 
4.5000000e+00 1.0000000e+00 0.0000000e+00 
4.4000001e+00 1.0000000e+00 0.0000000e+00 
4.3000002e+00 1.0000000e+00 0.0000000e+00 
4.1999998e+00 1.0000000e+00 0.0000000e+00 
4.0999999e+00 1.0000000e+00 0.0000000e+00 
4.0000000e+00 1.0000000e+00 0.0000000e+00 
3.9000001e+00 1.0000000e+00 0.0000000e+00 
3.8000000e+00 1.0000000e+00 0.0000000e+00 
3.7000000e+00 1.0000000e+00 0.0000000e+00 
3.5999999e+00 1.0000000e+00 0.0000000e+00 
3.5000000e+00 1.0000000e+00 0.0000000e+00 
3.4000001e+00 1.0000000e+00 0.0000000e+00 
3.3000000e+00 1.0000000e+00 0.0000000e+00 
3.2000000e+00 1.0000000e+00 0.0000000e+00 
3.0999999e+00 1.0000000e+00 0.0000000e+00 
3.0000000e+00 1.0000000e+00 0.0000000e+00 
2.9000001e+00 1.0000000e+00 0.0000000e+00 
2.8000000e+00 1.0000000e+00 0.0000000e+00 
2.7000000e+00 1.0000000e+00 0.0000000e+00 
2.5999999e+00 1.0000000e+00 0.0000000e+00 
2.5000000e+00 1.0000000e+00 0.0000000e+00 
2.4000001e+00 1.0000000e+00 0.0000000e+00 
2.3000000e+00 1.0000000e+00 0.0000000e+00 
2.2000000e+00 1.0000000e+00 0.0000000e+00 
2.0999999e+00 1.0000000e+00 0.0000000e+00 
2.0000000e+00 1.0000000e+00 0.0000000e+00 
1.9000000e+00 1.0000000e+00 0.0000000e+00 
1.8000000e+00 1.0000000e+00 0.0000000e+00 
1.7000000e+00 1.0000000e+00 0.0000000e+00 
1.6000000e+00 1.0000000e+00 0.0000000e+00 
1.5000000e+00 1.0000000e+00 0.0000000e+00 
1.4000000e+00 1.0000000e+00 0.0000000e+00 
1.3000000e+00 1.0000000e+00 0.0000000e+00 
1.2000000e+00 1.0000000e+00 0.0000000e+00 
1.1000000e+00 1.0000000e+00 0.0000000e+00 
1.0000000e+00 1.0000000e+00 0.0000000e+00 
8.9999998e-01 1.0000000e+00 0.0000000e+00 
8.0000001e-01 1.0000000e+00 0.0000000e+00 
6.9999999e-01 1.0000000e+00 0.0000000e+00 
6.0000002e-01 1.0000000e+00 0.0000000e+00 
5.0000000e-01 1.0000000e+00 0.0000000e+00 
4.0000001e-01 1.0000000e+00 0.0000000e+00 
3.0000001e-01 1.0000000e+00 0.0000000e+00 
2.0000000e-01 1.0000000e+00 0.0000000e+00 
1.0000000e-01 1.0000000e+00 0.0000000e+00 
0.0000000e+00 8.9999998e-01 0.0000000e+00 
0.0000000e+00 8.0000001e-01 0.0000000e+00 
0.0000000e+00 6.9999999e-01 0.0000000e+00 
0.0000000e+00 6.0000002e-01 0.0000000e+00 
0.0000000e+00 5.0000000e-01 0.0000000e+00 
0.0000000e+00 4.0000001e-01 0.0000000e+00 
0.0000000e+00 3.0000001e-01 0.0000000e+00 
0.0000000e+00 2.0000000e-01 0.0000000e+00 
0.0000000e+00 1.0000000e-01 0.0000000e+00 
4.3499999e+00 8.6602539e-02 0.0000000e+00 
2.2500000e+00 9.1339743e-01 0.0000000e+00 
4.0500002e+00 9.1339743e-01 0.0000000e+00 
2.7500000e+00 8.3308272e-02 0.0000000e+00 
3.2500000e+00 8.6602539e-02 0.0000000e+00 
3.7500000e+00 8.6602539e-02 0.0000000e+00 
1.2500000e+00 9.1339743e-01 0.0000000e+00 
1.7500000e+00 9.1339743e-01 0.0000000e+00 
9.4999999e-01 9.1339743e-01 0.0000000e+00 
5.5000001e-01 9.1339743e-01 0.0000000e+00 
7.5000000e-01 8.3308272e-02 0.0000000e+00 
1.4524696e+00 8.1907488e-02 0.0000000e+00 
1.9500000e+00 8.6602539e-02 0.0000000e+00 
3.4500000e+00 9.1339743e-01 0.0000000e+00 
2.9500000e+00 9.1339743e-01 0.0000000e+00 
2.4500000e+00 8.6602539e-02 0.0000000e+00 
4.4499998e+00 9.1339743e-01 0.0000000e+00 
2.6500001e+00 9.1339743e-01 0.0000000e+00 
1.1500000e+00 8.6602539e-02 0.0000000e+00 
4.0517640e+00 7.8262508e-02 0.0000000e+00 
3.7500000e+00 9.1339743e-01 0.0000000e+00 
9.5000088e-02 4.6391028e-01 0.0000000e+00 
4.9059730e+00 4.6363035e-01 0.0000000e+00 
4.5246965e-01 8.1907488e-02 0.0000000e+00 
4.6500001e+00 8.6602539e-02 0.0000000e+00 
4.6500001e+00 9.1339743e-01 0.0000000e+00 
7.5000000e-01 9.1339743e-01 0.0000000e+00 
4.9111457e+00 6.5092021e-01 0.0000000e+00 
2.2500000e+00 8.6602539e-02 0.0000000e+00 
3.2500000e+00 9.1339743e-01 0.0000000e+00 
9.4999999e-01 8.6602539e-02 0.0000000e+00 
2.9500000e+00 8.6602539e-02 0.0000000e+00 
3.4500000e+00 8.6602539e-02 0.0000000e+00 
2.4500000e+00 9.1339743e-01 0.0000000e+00 
1.9500000e+00 9.1339743e-01 0.0000000e+00 
1.5500000e+00 9.1339743e-01 0.0000000e+00 
1.6500000e+00 8.6602539e-02 0.0000000e+00 
3.4999999e-01 9.1339743e-01 0.0000000e+00 
9.0659410e-02 6.5153849e-01 0.0000000e+00 
4.2500000e+00 9.1339743e-01 0.0000000e+00 
2.5402120e-01 7.9592258e-02 0.0000000e+00 
4.9112749e+00 2.5204152e-01 0.0000000e+00 
8.6602539e-02 2.5000000e-01 0.0000000e+00 
4.9094305e+00 8.4081745e-01 0.0000000e+00 
9.0569727e-02 8.4081745e-01 0.0000000e+00 
4.8445559e+00 9.5495284e-02 0.0000000e+00 
3.9500000e+00 9.1339743e-01 0.0000000e+00 
4.0000000e+00 8.2679492e-01 0.0000000e+00 
4.0999999e+00 8.2679492e-01 0.0000000e+00 
4.0500002e+00 7.4019235e-01 0.0000000e+00 
4.1500001e+00 7.4019235e-01 0.0000000e+00 
4.0999999e+00 6.5358984e-01 0.0000000e+00 
4.1999998e+00 6.5358984e-01 0.0000000e+00 
4.0000000e+00 6.5358984e-01 0.0000000e+00 
4.1500001e+00 5.6698728e-01 0.0000000e+00 
4.2500000e+00 5.6698728e-01 0.0000000e+00 
4.1999998e+00 4.8038477e-01 0.0000000e+00 
4.3000002e+00 4.8038477e-01 0.0000000e+00 
4.3499999e+00 5.6698728e-01 0.0000000e+00 
4.4000001e+00 4.8038477e-01 0.0000000e+00 
4.4499998e+00 5.6698728e-01 0.0000000e+00 
4.5000000e+00 4.8038477e-01 0.0000000e+00 
4.0999999e+00 4.8038477e-01 0.0000000e+00 
4.5500002e+00 5.6698728e-01 0.0000000e+00 
4.2500000e+00 3.9378223e-01 0.0000000e+00 
4.4499998e+00 3.9378223e-01 0.0000000e+00 
4.5500002e+00 3.9378223e-01 0.0000000e+00 
4.5024695e+00 3.0860552e-01 0.0000000e+00 
4.5000000e+00 6.5358984e-01 0.0000000e+00 
4.5999999e+00 6.5358984e-01 0.0000000e+00 
4.6500001e+00 5.6698728e-01 0.0000000e+00 
4.6004114e+00 3.0741730e-01 0.0000000e+00 
4.6999998e+00 6.5358984e-01 0.0000000e+00 
4.5500002e+00 7.4019235e-01 0.0000000e+00 
4.4499998e+00 7.4019235e-01 0.0000000e+00 
4.4028811e+00 3.1213742e-01 0.0000000e+00 
3.9000001e+00 8.2679492e-01 0.0000000e+00 
4.2500000e+00 7.4019235e-01 0.0000000e+00 
4.6500688e+00 3.9382184e-01 0.0000000e+00 
4.7000799e+00 3.0722588e-01 0.0000000e+00 
4.7507491e+00 5.6669539e-01 0.0000000e+00 
4.5510750e+00 2.2357146e-01 0.0000000e+00 
4.7483096e+00 3.9479813e-01 0.0000000e+00 
4.8143229e+00 3.0351433e-01 0.0000000e+00 
4.7489839e+00 2.2150035e-01 0.0000000e+00 
4.8026423e+00 6.5280432e-01 0.0000000e+00 
4.7504406e+00 7.4006146e-01 0.0000000e+00 
4.8507943e+00 7.4260241e-01 0.0000000e+00 
4.8009601e+00 8.2998371e-01 0.0000000e+00 
4.8518200e+00 5.6202388e-01 0.0000000e+00 
4.8002234e+00 4.7973469e-01 0.0000000e+00 
4.7002335e+00 8.2730454e-01 0.0000000e+00 
4.6500239e+00 2.2246142e-01 0.0000000e+00 
4.5000000e+00 8.2679492e-01 0.0000000e+00 
4.4000001e+00 8.2679492e-01 0.0000000e+00 
4.6000390e+00 8.2687986e-01 0.0000000e+00 
4.6501188e+00 7.4026966e-01 0.0000000e+00 
4.1999998e+00 8.2679492e-01 0.0000000e+00 
4.1500001e+00 9.1339743e-01 0.0000000e+00 
4.1500001e+00 3.9378223e-01 0.0000000e+00 
4.0500002e+00 3.9378223e-01 0.0000000e+00 
4.1999998e+00 3.0717969e-01 0.0000000e+00 
4.0000000e+00 4.8038477e-01 0.0000000e+00 
3.9500000e+00 3.9378223e-01 0.0000000e+00 
3.9000001e+00 4.8038477e-01 0.0000000e+00 
3.8499999e+00 3.9378223e-01 0.0000000e+00 
3.8000000e+00 4.8038477e-01 0.0000000e+00 
3.7500000e+00 3.9378223e-01 0.0000000e+00 
3.7000000e+00 4.8038477e-01 0.0000000e+00 
3.6500001e+00 3.9378223e-01 0.0000000e+00 
[...]
POINT_DATA 663
FIELD FieldData 2
DISPLACEMENT 3 663  float
0.0000000e+00 0.0000000e+00 0.0000000e+00 
0.0000000e+00 0.0000000e+00 0.0000000e+00 
0.0000000e+00 3.3275418e-09 0.0000000e+00 
0.0000000e+00 2.0250865e-10 0.0000000e+00 
0.0000000e+00 0.0000000e+00 0.0000000e+00 
0.0000000e+00 0.0000000e+00 0.0000000e+00 
0.0000000e+00 0.0000000e+00 0.0000000e+00 
0.0000000e+00 0.0000000e+00 0.0000000e+00 
0.0000000e+00 0.0000000e+00 0.0000000e+00 
0.0000000e+00 0.0000000e+00 0.0000000e+00 
0.0000000e+00 0.0000000e+00 0.0000000e+00 
0.0000000e+00 0.0000000e+00 0.0000000e+00 
0.0000000e+00 0.0000000e+00 0.0000000e+00 
0.0000000e+00 0.0000000e+00 0.0000000e+00 
0.0000000e+00 0.0000000e+00 0.0000000e+00 
0.0000000e+00 0.0000000e+00 0.0000000e+00 
0.0000000e+00 0.0000000e+00 0.0000000e+00 
0.0000000e+00 0.0000000e+00 0.0000000e+00 
0.0000000e+00 0.0000000e+00 0.0000000e+00 
0.0000000e+00 0.0000000e+00 0.0000000e+00 
0.0000000e+00 0.0000000e+00 0.0000000e+00 
0.0000000e+00 0.0000000e+00 0.0000000e+00 
0.0000000e+00 0.0000000e+00 0.0000000e+00 
0.0000000e+00 0.0000000e+00 0.0000000e+00 
0.0000000e+00 0.0000000e+00 0.0000000e+00 
0.0000000e+00 0.0000000e+00 0.0000000e+00 
0.0000000e+00 0.0000000e+00 0.0000000e+00 
0.0000000e+00 0.0000000e+00 0.0000000e+00 
0.0000000e+00 0.0000000e+00 0.0000000e+00 
0.0000000e+00 0.0000000e+00 0.0000000e+00 
0.0000000e+00 0.0000000e+00 0.0000000e+00 
0.0000000e+00 0.0000000e+00 0.0000000e+00 
0.0000000e+00 0.0000000e+00 0.0000000e+00 
0.0000000e+00 0.0000000e+00 0.0000000e+00 
0.0000000e+00 0.0000000e+00 0.0000000e+00 
0.0000000e+00 0.0000000e+00 0.0000000e+00 
0.0000000e+00 0.0000000e+00 0.0000000e+00 
0.0000000e+00 0.0000000e+00 0.0000000e+00 
0.0000000e+00 0.0000000e+00 0.0000000e+00 
0.0000000e+00 0.0000000e+00 0.0000000e+00 
0.0000000e+00 0.0000000e+00 0.0000000e+00 
0.0000000e+00 0.0000000e+00 0.0000000e+00 
0.0000000e+00 0.0000000e+00 0.0000000e+00 
0.0000000e+00 0.0000000e+00 0.0000000e+00 
0.0000000e+00 0.0000000e+00 0.0000000e+00 
0.0000000e+00 0.0000000e+00 0.0000000e+00 
0.0000000e+00 0.0000000e+00 0.0000000e+00 
0.0000000e+00 0.0000000e+00 0.0000000e+00 
0.0000000e+00 0.0000000e+00 0.0000000e+00 
0.0000000e+00 0.0000000e+00 0.0000000e+00 
0.0000000e+00 0.0000000e+00 0.0000000e+00 
0.0000000e+00 0.0000000e+00 0.0000000e+00 
0.0000000e+00 0.0000000e+00 0.0000000e+00 
0.0000000e+00 2.6589114e-10 0.0000000e+00 
0.0000000e+00 7.0522749e-10 0.0000000e+00 
0.0000000e+00 1.2849878e-09 0.0000000e+00 
0.0000000e+00 1.9151689e-09 0.0000000e+00 
0.0000000e+00 2.5039448e-09 0.0000000e+00 
0.0000000e+00 2.9901195e-09 0.0000000e+00 
0.0000000e+00 3.3181571e-09 0.0000000e+00 
0.0000000e+00 3.4675178e-09 0.0000000e+00 
0.0000000e+00 3.4538301e-09 0.0000000e+00 
-6.3732797e-10 3.3154128e-09 0.0000000e+00 
-1.3613628e-09 3.2668612e-09 0.0000000e+00 
-2.2467157e-09 3.1104710e-09 0.0000000e+00 
-3.3863070e-09 2.7941596e-09 0.0000000e+00 
-4.8795221e-09 2.2098507e-09 0.0000000e+00 
-6.8300725e-09 1.2003794e-09 0.0000000e+00 
-9.3492254e-09 -4.4741852e-10 0.0000000e+00 
-1.2553875e-08 -3.0189424e-09 0.0000000e+00 
-1.6563025e-08 -6.8910340e-09 0.0000000e+00 
-2.1492070e-08 -1.2557685e-08 0.0000000e+00 
-2.7444905e-08 -2.0666064e-08 0.0000000e+00 
-3.4503667e-08 -3.2071675e-08 0.0000000e+00 
-4.2714998e-08 -4.7931945e-08 0.0000000e+00 
-5.2066440e-08 -6.9883171e-08 0.0000000e+00 
-6.2423929e-08 -1.0041246e-07 0.0000000e+00 
-7.3303461e-08 -1.4372965e-07 0.0000000e+00 
-8.2922377e-08 -2.0810732e-07 0.0000000e+00 
-8.3947150e-08 -3.1394256e-07 0.0000000e+00 
-4.0477779e-08 -5.5787007e-07 0.0000000e+00 
4.0224631e-08 -5.5787126e-07 0.0000000e+00 
8.3689457e-08 -3.1394686e-07 0.0000000e+00 
8.2656250e-08 -2.0811649e-07 0.0000000e+00 
7.3025589e-08 -1.4374579e-07 0.0000000e+00 
6.2130688e-08 -1.0043758e-07 0.0000000e+00 
5.1753453e-08 -6.9919956e-08 0.0000000e+00 
4.2377316e-08 -4.7984525e-08 0.0000000e+00 
3.4136100e-08 -3.2146115e-08 0.0000000e+00 
2.7042443e-08 -2.0770745e-08 0.0000000e+00 
2.1050408e-08 -1.2703527e-08 0.0000000e+00 
1.6079140e-08 -7.0916637e-09 0.0000000e+00 
1.2026760e-08 -3.2908349e-09 0.0000000e+00 
8.7808685e-09 -8.1005097e-10 0.0000000e+00 
6.2267866e-09 7.2447770e-10 0.0000000e+00 
4.2538302e-09 1.5951711e-09 0.0000000e+00 
2.7596323e-09 2.0128854e-09 0.0000000e+00 
1.6526980e-09 2.1326765e-09 0.0000000e+00 
8.5352914e-10 2.0664885e-09 0.0000000e+00 
2.9471936e-10 1.8933497e-09 0.0000000e+00 
-7.9645159e-11 1.6675249e-09 0.0000000e+00 
-3.1500777e-10 1.4249691e-09 0.0000000e+00 
-4.4758536e-10 1.1883802e-09 0.0000000e+00 
-5.0568766e-10 9.7109687e-10 0.0000000e+00 
-5.1101368e-10 7.8006174e-10 0.0000000e+00 
-4.7985615e-10 6.1802657e-10 0.0000000e+00 
-4.2418025e-10 4.8516802e-10 0.0000000e+00 
-3.5257020e-10 3.8024139e-10 0.0000000e+00 
-2.7105063e-10 3.0137431e-10 0.0000000e+00 
-1.8358623e-10 2.4662816e-10 0.0000000e+00 
-9.2736020e-11 2.1470437e-10 0.0000000e+00 
0.0000000e+00 1.8305364e-10 0.0000000e+00 
0.0000000e+00 1.6528395e-10 0.0000000e+00 
0.0000000e+00 1.4778054e-10 0.0000000e+00 
0.0000000e+00 1.2905876e-10 0.0000000e+00 
0.0000000e+00 1.0852041e-10 0.0000000e+00 
0.0000000e+00 8.5607861e-11 0.0000000e+00 
0.0000000e+00 6.2287092e-11 0.0000000e+00 
0.0000000e+00 3.9653999e-11 0.0000000e+00 
0.0000000e+00 1.8933174e-11 0.0000000e+00 
3.0394216e-09 -7.0668571e-10 0.0000000e+00 
1.9671884e-08 -2.4814200e-08 0.0000000e+00 
-1.3192267e-08 -8.6186880e-09 0.0000000e+00 
-8.6012308e-09 -1.6967915e-08 0.0000000e+00 
6.6402013e-09 -1.9859135e-08 0.0000000e+00 
9.5904813e-09 -7.3553008e-09 0.0000000e+00 
5.2010085e-10 2.0887183e-09 0.0000000e+00 
5.5649854e-09 5.0612653e-10 0.0000000e+00 
-2.6158334e-10 1.3275668e-09 0.0000000e+00 
-3.5642550e-10 5.3641025e-10 0.0000000e+00 
-1.1770919e-10 7.2025240e-11 0.0000000e+00 
-1.3097142e-09 -6.4598112e-11 0.0000000e+00 
-4.9257785e-09 -1.8605736e-09 0.0000000e+00 
-3.0728799e-08 -1.1878381e-07 0.0000000e+00 
-1.0629311e-08 -3.8360395e-07 0.0000000e+00 
-1.0439159e-08 -9.6471702e-09 0.0000000e+00 
-4.4887543e-09 2.1147406e-09 0.0000000e+00 
3.0454867e-08 -1.1880124e-07 0.0000000e+00 
-5.3451171e-10 9.5374597e-11 0.0000000e+00 
5.5175309e-09 -2.4744689e-09 0.0000000e+00 
-2.3795355e-08 -3.8057880e-08 0.0000000e+00 
-2.6160534e-11 1.0681794e-10 0.0000000e+00 
6.0606792e-10 2.2916324e-09 0.0000000e+00 
-3.0278235e-11 3.7083621e-11 0.0000000e+00 
1.2439925e-09 1.2008776e-11 0.0000000e+00 
-2.2502042e-09 3.1800089e-09 0.0000000e+00 
-3.8582709e-10 8.7160740e-10 0.0000000e+00 
1.6833852e-10 3.1881766e-09 0.0000000e+00 
-8.5192200e-09 -5.4687126e-09 0.0000000e+00 
-1.4310052e-08 -2.5103421e-07 0.0000000e+00 
-2.6475283e-10 9.7655231e-11 0.0000000e+00 
-3.5699506e-09 -2.1359940e-08 0.0000000e+00 
1.0281122e-08 -1.4997687e-08 0.0000000e+00 
2.7077787e-08 -5.6662817e-08 0.0000000e+00 
9.9363033e-09 -4.2947770e-09 0.0000000e+00 
2.7295910e-09 2.1151765e-09 0.0000000e+00 
-2.4106532e-09 -4.3028328e-10 0.0000000e+00 
-2.5104388e-10 3.2128508e-10 0.0000000e+00 
-3.7214086e-11 1.4629058e-10 0.0000000e+00 
-8.0112628e-09 -1.0360581e-09 0.0000000e+00 
-1.0002307e-11 2.1640913e-11 0.0000000e+00 
6.0359368e-10 9.7462738e-10 0.0000000e+00 
-1.1636972e-11 5.3635339e-11 0.0000000e+00 
-3.4448830e-10 3.4887888e-09 0.0000000e+00 
-5.7316211e-11 1.7993099e-10 0.0000000e+00 
5.4546345e-10 1.9164315e-10 0.0000000e+00 
-1.6432525e-08 -1.5255536e-08 0.0000000e+00 
-7.3759394e-09 -1.1174035e-08 0.0000000e+00 
-6.1658869e-09 -5.7345004e-09 0.0000000e+00 
-4.4570100e-10 -8.1024885e-09 0.0000000e+00 
-6.6517225e-10 -3.6768861e-09 0.0000000e+00 
4.4443453e-09 -5.8041238e-09 0.0000000e+00 
3.2795000e-09 -2.2588360e-09 0.0000000e+00 
6.0004282e-09 -1.1064856e-08 0.0000000e+00 
7.4891053e-09 -4.1104222e-09 0.0000000e+00 
5.7591030e-09 -1.3325755e-09 0.0000000e+00 
8.9241556e-09 -2.8938236e-09 0.0000000e+00 
6.9309172e-09 -7.7682638e-10 0.0000000e+00 
4.3753405e-09 4.6335494e-10 0.0000000e+00 
5.2975100e-09 5.9022137e-10 0.0000000e+00 
3.2753318e-09 1.5742925e-09 0.0000000e+00 
3.9687200e-09 1.4296859e-09 0.0000000e+00 
1.1320997e-08 -6.0659384e-09 0.0000000e+00 
2.3998357e-09 2.2228637e-09 0.0000000e+00 
9.0024290e-09 -2.0454018e-09 0.0000000e+00 
5.3297624e-09 5.2785953e-10 0.0000000e+00 
3.9620849e-09 1.1491491e-09 0.0000000e+00 
4.6356652e-09 3.8324927e-10 0.0000000e+00 
1.2686054e-09 2.3535176e-09 0.0000000e+00 
8.9645619e-10 2.8234786e-09 0.0000000e+00 
1.6976609e-09 2.5751132e-09 0.0000000e+00 
3.4162859e-09 8.1020662e-10 0.0000000e+00 
6.0759603e-10 3.0570242e-09 0.0000000e+00 
-4.3966192e-10 2.8710054e-09 0.0000000e+00 
-5.5375698e-10 2.2343598e-09 0.0000000e+00 
6.1433241e-09 -3.0405956e-10 0.0000000e+00 
-8.5020639e-09 -1.9059371e-08 0.0000000e+00 
-7.0725820e-10 -7.5197415e-10 0.0000000e+00 
2.8356890e-09 1.5172457e-09 0.0000000e+00 
2.3831721e-09 1.0798464e-09 0.0000000e+00 
1.1220668e-09 2.7498233e-09 0.0000000e+00 
3.5431804e-09 1.8785211e-10 0.0000000e+00 
1.9109156e-09 1.7272512e-09 0.0000000e+00 
1.3870022e-09 1.2275889e-09 0.0000000e+00 
1.7060475e-09 6.6130279e-10 0.0000000e+00 
3.7514730e-10 3.1582792e-09 0.0000000e+00 
-2.2245197e-10 3.3477237e-09 0.0000000e+00 
-1.4184404e-10 3.4139385e-09 0.0000000e+00 
-7.1766176e-10 3.4579304e-09 0.0000000e+00 
6.5309802e-10 2.8107958e-09 0.0000000e+00 
1.2572714e-09 2.3211286e-09 0.0000000e+00 
-1.1340103e-09 3.3613095e-09 0.0000000e+00 
2.5427664e-09 4.8365228e-10 0.0000000e+00 
-2.2764335e-09 2.6548250e-09 0.0000000e+00 
-3.0402607e-09 1.7831779e-09 0.0000000e+00 
-1.6476053e-09 3.1293561e-09 0.0000000e+00 
-3.2835487e-10 3.1992162e-09 0.0000000e+00 
-5.0011559e-09 -2.0772111e-09 0.0000000e+00 
-1.0380568e-08 -4.0692179e-09 0.0000000e+00 
1.1385810e-08 -4.3746011e-09 0.0000000e+00 
1.4159086e-08 -7.7679116e-09 0.0000000e+00 
1.0134801e-08 -3.0821119e-09 0.0000000e+00 
1.4153189e-08 -1.0683205e-08 0.0000000e+00 
1.7295994e-08 -1.2574785e-08 0.0000000e+00 
1.7416376e-08 -1.7221289e-08 0.0000000e+00 
2.0691434e-08 -1.9189608e-08 0.0000000e+00 
2.1036662e-08 -2.6234808e-08 0.0000000e+00 
2.4134064e-08 -2.8032993e-08 0.0000000e+00 
2.4820595e-08 -3.8319406e-08 0.0000000e+00 
2.7250669e-08 -3.9454374e-08 0.0000000e+00 
2.8366236e-08 -5.3995240e-08 0.0000000e+00 
2.9459100e-08 -5.3573562e-08 0.0000000e+00 
3.0937311e-08 -7.3437910e-08 0.0000000e+00 
2.9903095e-08 -6.9931311e-08 0.0000000e+00 
3.1319850e-08 -9.5927533e-08 0.0000000e+00 
2.7595092e-08 -8.6988457e-08 0.0000000e+00 
2.7976979e-08 -1.1898218e-07 0.0000000e+00 
2.1742949e-08 -1.0365917e-07 0.0000000e+00 
1.9721821e-08 -1.3853526e-07 0.0000000e+00 
1.1876044e-08 -1.1487069e-07 0.0000000e+00 
7.0797261e-09 -1.4985594e-07 0.0000000e+00 
-7.9495723e-11 -1.1763450e-07 0.0000000e+00 
-7.2320376e-09 -1.4964245e-07 0.0000000e+00 
-1.1849816e-08 -1.1349641e-07 0.0000000e+00 
-1.9799046e-08 -1.3841556e-07 0.0000000e+00 
-2.1416049e-08 -1.0259323e-07 0.0000000e+00 
-2.8075579e-08 -1.1901072e-07 0.0000000e+00 
-2.7527468e-08 -8.7083485e-08 0.0000000e+00 
-3.1472272e-08 -9.5938667e-08 0.0000000e+00 
-2.9988570e-08 -6.9935112e-08 0.0000000e+00 
-3.1091574e-08 -7.3458395e-08 0.0000000e+00 
-2.9590252e-08 -5.3591929e-08 0.0000000e+00 
-2.8528595e-08 -5.4022891e-08 0.0000000e+00 
-2.7396778e-08 -3.9489255e-08 0.0000000e+00 
-2.4984720e-08 -3.8348677e-08 0.0000000e+00 
-2.4357560e-08 -2.8399141e-08 0.0000000e+00 
-2.1212159e-08 -2.6328676e-08 0.0000000e+00 
-2.0882709e-08 -1.9601634e-08 0.0000000e+00 
-1.7581057e-08 -1.7323885e-08 0.0000000e+00 
-1.7406999e-08 -1.2731758e-08 0.0000000e+00 
-1.4311962e-08 -1.0782500e-08 0.0000000e+00 
-1.4297197e-08 -7.8706615e-09 0.0000000e+00 
-1.1505390e-08 -6.1987242e-09 0.0000000e+00 
-1.1541593e-08 -4.5068127e-09 0.0000000e+00 
-9.1307895e-09 -3.0752692e-09 0.0000000e+00 
-9.1814751e-09 -2.2153746e-09 0.0000000e+00 
-7.1667454e-09 -1.0245914e-09 0.0000000e+00 
-7.2098625e-09 -7.2163203e-10 0.0000000e+00 
-5.5681197e-09 2.5622238e-10 0.0000000e+00 
-5.5917608e-09 2.1512145e-10 0.0000000e+00 
-4.2885504e-09 9.9629294e-10 0.0000000e+00 
-4.2890567e-09 7.4903700e-10 0.0000000e+00 
-3.2768885e-09 1.3656756e-09 0.0000000e+00 
-3.2574539e-09 1.0145847e-09 0.0000000e+00 
-2.4875821e-09 1.4910299e-09 0.0000000e+00 
-2.4506961e-09 1.0977558e-09 0.0000000e+00 
-1.8773834e-09 1.4631392e-09 0.0000000e+00 
-1.8280966e-09 1.0726705e-09 0.0000000e+00 
-1.4108654e-09 1.3473936e-09 0.0000000e+00 
-1.3531434e-09 9.8399400e-10 0.0000000e+00 
-1.0573038e-09 1.1869216e-09 0.0000000e+00 
-9.9471464e-10 8.6338059e-10 0.0000000e+00 
-7.9127549e-10 1.0104824e-09 0.0000000e+00 
-7.2699707e-10 7.3197209e-10 0.0000000e+00 
-5.9218036e-10 8.3630725e-10 0.0000000e+00 
-5.2888127e-10 6.0279171e-10 0.0000000e+00 
-4.4341716e-10 6.7541744e-10 0.0000000e+00 
-3.8295531e-10 4.8440119e-10 0.0000000e+00 
-3.3212363e-10 5.3355187e-10 0.0000000e+00 
-2.7601388e-10 3.8062287e-10 0.0000000e+00 
-2.4831520e-10 4.1287596e-10 0.0000000e+00 
-1.9767366e-10 2.9261624e-10 0.0000000e+00 
-1.8419789e-10 3.1374062e-10 0.0000000e+00 
-1.3981381e-10 2.2125354e-10 0.0000000e+00 
2.3209589e-08 -5.0449163e-08 0.0000000e+00 
3.1494739e-08 -1.2761861e-07 0.0000000e+00 
-9.2476735e-11 -1.8954169e-07 0.0000000e+00 
-3.1671991e-08 -1.2764023e-07 0.0000000e+00 
-2.7545584e-08 -7.1241423e-08 0.0000000e+00 
-1.9303689e-08 -3.4631107e-08 0.0000000e+00 
-9.8553246e-09 -8.3853653e-09 0.0000000e+00 
-6.0205512e-09 -1.5773800e-09 0.0000000e+00 
-3.5948187e-09 1.1353868e-09 0.0000000e+00 
-1.6270810e-09 1.8416634e-09 0.0000000e+00 
-7.4865719e-10 1.3038477e-09 0.0000000e+00 
-4.5877507e-10 8.8372432e-10 0.0000000e+00 
-2.8538324e-10 5.4819982e-10 0.0000000e+00 
-1.3404426e-10 2.3539601e-10 0.0000000e+00 
-1.7246184e-10 3.1657676e-10 0.0000000e+00 
-9.6383762e-11 1.6567882e-10 0.0000000e+00 
-2.0417823e-10 2.5095220e-10 0.0000000e+00 
-2.1045066e-09 7.2498108e-10 0.0000000e+00 
-8.2012219e-09 -1.6367120e-09 0.0000000e+00 
-1.5720858e-08 -9.0972758e-09 0.0000000e+00 
-2.7000143e-08 -4.8531380e-08 0.0000000e+00 
5.2833413e-09 -8.9527326e-08 0.0000000e+00 
2.6320192e-08 -3.7045027e-08 0.0000000e+00 
1.8458877e-08 -1.3369519e-08 0.0000000e+00 
-1.2824541e-10 2.3725119e-10 0.0000000e+00 
-1.6739404e-10 3.0594272e-10 0.0000000e+00 
-9.5021616e-11 1.4502591e-10 0.0000000e+00 
-5.8647565e-10 4.8748733e-10 0.0000000e+00 
-1.1330732e-09 6.5536748e-10 0.0000000e+00 
-4.9146909e-09 9.3910886e-11 0.0000000e+00 
-2.4430095e-08 -2.7627655e-08 0.0000000e+00 
-1.4176241e-08 -8.1520042e-08 0.0000000e+00 
2.5503182e-08 -6.1054777e-08 0.0000000e+00 
-1.2479985e-10 2.3093571e-10 0.0000000e+00 
-6.2141257e-11 1.0894090e-10 0.0000000e+00 
-2.1115448e-10 4.0628198e-10 0.0000000e+00 
1.5415358e-08 -2.2809164e-08 0.0000000e+00 
-2.1359065e-10 3.8017600e-10 0.0000000e+00 
-2.5300359e-10 5.0054783e-10 0.0000000e+00 
-8.8734915e-11 1.7985544e-10 0.0000000e+00 
-5.5225331e-11 8.5834298e-11 0.0000000e+00 
-6.3356334e-11 1.2622160e-10 0.0000000e+00 
-8.9569227e-11 1.1918412e-10 0.0000000e+00 
-3.4237189e-11 6.6098141e-11 0.0000000e+00 
-8.2168841e-11 1.7848595e-10 0.0000000e+00 
-1.2305496e-10 2.2113761e-10 0.0000000e+00 
-7.4884737e-11 1.7881115e-10 0.0000000e+00 
-1.2097152e-10 2.1300811e-10 0.0000000e+00 
-5.1714164e-11 1.4200770e-10 0.0000000e+00 
-3.3552106e-11 7.9677973e-11 0.0000000e+00 
-1.6987542e-10 2.8785896e-10 0.0000000e+00 
1.2621396e-08 -5.4386038e-09 0.0000000e+00 
9.8708064e-09 -3.5546519e-09 0.0000000e+00 
7.9957045e-09 -2.0606832e-09 0.0000000e+00 
1.2225051e-08 -5.7213279e-09 0.0000000e+00 
6.7548407e-09 -2.1365796e-09 0.0000000e+00 
-8.1896084e-10 5.7539934e-10 0.0000000e+00 
-8.1516938e-10 3.8408426e-10 0.0000000e+00 
-1.1338979e-09 4.1291087e-10 0.0000000e+00 
-5.7864752e-10 3.3954212e-10 0.0000000e+00 
-4.0893228e-10 2.9277455e-10 0.0000000e+00 
-3.2380569e-09 2.8088396e-09 0.0000000e+00 
1.7303095e-09 -1.3701955e-10 0.0000000e+00 
2.2428321e-09 -3.5513723e-10 0.0000000e+00 
4.3353796e-09 -6.4253225e-10 0.0000000e+00 
6.9807480e-09 -4.7016130e-10 0.0000000e+00 
-1.4766903e-09 3.3573233e-09 0.0000000e+00 
-1.2508289e-09 1.7126186e-09 0.0000000e+00 
-8.3639584e-10 2.0377733e-09 0.0000000e+00 
-1.0273644e-09 2.1553446e-09 0.0000000e+00 
-6.9183353e-10 1.8318382e-09 0.0000000e+00 
-1.6103743e-10 2.2753242e-09 0.0000000e+00 
-6.4735391e-11 2.3455120e-09 0.0000000e+00 
-1.2828395e-09 2.1115023e-09 0.0000000e+00 
4.9584212e-11 2.2034883e-09 0.0000000e+00 
7.3881506e-10 2.3768651e-09 0.0000000e+00 
-2.3537874e-10 2.0831186e-09 0.0000000e+00 
-2.8729605e-10 1.8306876e-09 0.0000000e+00 
-5.8039429e-10 1.5868966e-09 0.0000000e+00 
-3.1831726e-10 1.5588859e-09 0.0000000e+00 
-8.6981693e-11 1.7367306e-09 0.0000000e+00 
-4.9225685e-10 1.3348309e-09 0.0000000e+00 
-3.3092606e-10 1.2934065e-09 0.0000000e+00 
-4.2025292e-10 1.0952181e-09 0.0000000e+00 
-3.2797223e-10 1.0492903e-09 0.0000000e+00 
-3.5924855e-10 8.7906071e-10 0.0000000e+00 
-3.1230549e-10 8.3429047e-10 0.0000000e+00 
-3.0562308e-10 6.9155959e-10 0.0000000e+00 
8.9209751e-09 -1.7655511e-08 0.0000000e+00 
1.3728130e-08 -3.8156543e-08 0.0000000e+00 
9.1901695e-09 -4.3174929e-08 0.0000000e+00 
1.5628778e-08 -6.0075365e-08 0.0000000e+00 
1.6945361e-08 -3.3042276e-08 0.0000000e+00 
1.7605675e-08 -2.5355750e-08 0.0000000e+00 
-3.6173611e-10 7.0310269e-10 0.0000000e+00 
-3.4962933e-10 1.0859257e-09 0.0000000e+00 
-3.8444975e-10 6.8826256e-10 0.0000000e+00 
-5.8432065e-10 1.0866308e-09 0.0000000e+00 
-9.6211465e-09 -7.3582371e-09 0.0000000e+00 
-1.5542895e-08 -1.1859852e-08 0.0000000e+00 
-1.3700070e-08 -8.6153227e-09 0.0000000e+00 
-1.8422346e-08 -1.3981155e-08 0.0000000e+00 
6.3555522e-10 1.5849317e-09 0.0000000e+00 
-6.0617844e-09 9.1546359e-10 0.0000000e+00 
3.9781334e-09 1.5774494e-09 0.0000000e+00 
2.6100559e-09 1.3210923e-09 0.0000000e+00 
3.5328802e-09 -4.5368657e-11 0.0000000e+00 
2.8470803e-10 7.2130046e-10 0.0000000e+00 
3.5486133e-10 -1.0387501e-09 0.0000000e+00 
3.0685857e-08 -9.7275290e-08 0.0000000e+00 
2.8364445e-08 -1.2579389e-07 0.0000000e+00 
3.0413094e-08 -1.6685269e-07 0.0000000e+00 
2.3644425e-08 -9.1328559e-08 0.0000000e+00 
2.2918362e-08 -1.5999100e-07 0.0000000e+00 
2.7820528e-08 -2.1688800e-07 0.0000000e+00 
2.5026896e-08 -2.0662007e-07 0.0000000e+00 
2.1076120e-08 -2.6922518e-07 0.0000000e+00 
-2.8655156e-10 6.5137362e-10 0.0000000e+00 
-9.6515251e-10 1.5206379e-09 0.0000000e+00 
7.9934388e-09 -1.4220582e-09 0.0000000e+00 
-2.8219573e-09 6.6058764e-10 0.0000000e+00 
-2.1169555e-09 3.5737999e-10 0.0000000e+00 
-2.9083909e-09 2.5025157e-10 0.0000000e+00 
-2.6829561e-08 -1.7123739e-07 0.0000000e+00 
2.3466580e-08 -3.8114646e-08 0.0000000e+00 
9.0115897e-09 -3.0333307e-08 0.0000000e+00 
8.1718623e-09 -1.9150560e-08 0.0000000e+00 
-1.3642417e-09 -2.3999089e-08 0.0000000e+00 
-3.7427750e-10 -1.4705229e-08 0.0000000e+00 
-3.0991969e-09 -3.7115662e-08 0.0000000e+00 
7.0233228e-09 -1.1304853e-08 0.0000000e+00 
1.2913656e-10 -8.2498914e-09 0.0000000e+00 
-8.3190459e-09 -1.8743153e-08 0.0000000e+00 
9.1760981e-09 -4.6038302e-08 0.0000000e+00 
8.0901499e-09 -6.7916439e-08 0.0000000e+00 
-5.9173528e-09 -5.5354256e-08 0.0000000e+00 
-1.0192815e-08 -8.0429523e-08 0.0000000e+00 
4.9025721e-09 -9.8364268e-08 0.0000000e+00 
-1.6135445e-08 -1.1453113e-07 0.0000000e+00 
-1.4721198e-09 -1.4099645e-07 0.0000000e+00 
-2.3148541e-08 -1.6000038e-07 0.0000000e+00 
-1.1719901e-08 -2.0118183e-07 0.0000000e+00 
-2.8045106e-08 -2.1689070e-07 0.0000000e+00 
-2.2897378e-08 -2.8422116e-07 0.0000000e+00 
-2.1296762e-08 -2.6922271e-07 0.0000000e+00 
-2.5226806e-08 -2.0661605e-07 0.0000000e+00 
-1.4037056e-08 -3.5309358e-07 0.0000000e+00 
-1.0901746e-10 -2.9052418e-07 0.0000000e+00 
-1.2334891e-10 -4.6754633e-07 0.0000000e+00 
1.4055825e-08 -2.5103887e-07 0.0000000e+00 
2.9830947e-08 -8.2487894e-08 0.0000000e+00 
2.7157078e-08 -4.8978624e-08 0.0000000e+00 
-3.0868478e-08 -9.7291988e-08 0.0000000e+00 
-1.7973072e-09 -2.0362416e-10 0.0000000e+00 
-3.6426677e-09 -3.1670050e-10 0.0000000e+00 
-4.5497384e-09 -7.8079482e-10 0.0000000e+00 
-2.7384553e-08 -5.6623573e-08 0.0000000e+00 
-9.4670103e-09 -4.5995332e-08 0.0000000e+00 
-8.3653866e-09 -6.7887235e-08 0.0000000e+00 