# vtk DataFile Version 4.0
vtk output
ASCII
DATASET UNSTRUCTURED_GRID
POINTS 663 float
0.0000000e+00 0.0000000e+00 0.0000000e+00 
5.0000000e+00 0.0000000e+00 0.0000000e+00 
5.0000000e+00 1.0000000e+00 0.0000000e+00 
0.0000000e+00 1.0000000e+00 0.0000000e+00 
1.0000000e-01 0.0000000e+00 0.0000000e+00 
2.0000000e-01 0.0000000e+00 0.0000000e+00 
3.0000001e-01 0.0000000e+00 0.0000000e+00 
4.0000001e-01 0.0000000e+00 0.0000000e+00 
5.0000000e-01 0.0000000e+00 0.0000000e+00 
6.0000002e-01 0.0000000e+00 0.0000000e+00 
6.9999999e-01 0.0000000e+00 0.0000000e+00 
8.0000001e-01 0.0000000e+00 0.0000000e+00 
8.9999998e-01 0.0000000e+00 0.0000000e+00 
1.0000000e+00 0.0000000e+00 0.0000000e+00 
1.1000000e+00 0.0000000e+00 0.0000000e+00 
1.2000000e+00 0.0000000e+00 0.0000000e+00 
1.3000000e+00 0.0000000e+00 0.0000000e+00 
1.4000000e+00 0.0000000e+00 0.0000000e+00 
1.5000000e+00 0.0000000e+00 0.0000000e+00 
1.6000000e+00 0.0000000e+00 0.0000000e+00 
1.7000000e+00 0.0000000e+00 0.0000000e+00 
1.8000000e+00 0.0000000e+00 0.0000000e+00 
1.9000000e+00 0.0000000e+00 0.0000000e+00 
2.0000000e+00 0.0000000e+00 0.0000000e+00 
2.0999999e+00 0.0000000e+00 0.0000000e+00 
2.2000000e+00 0.0000000e+00 0.0000000e+00 
2.3000000e+00 0.0000000e+00 0.0000000e+00 
2.4000001e+00 0.0000000e+00 0.0000000e+00 
2.5000000e+00 0.0000000e+00 0.0000000e+00 
2.5999999e+00 0.0000000e+00 0.0000000e+00 
2.7000000e+00 0.0000000e+00 0.0000000e+00 
2.8000000e+00 0.0000000e+00 0.0000000e+00 
2.9000001e+00 0.0000000e+00 0.0000000e+00 
3.0000000e+00 0.0000000e+00 0.0000000e+00 
3.0999999e+00 0.0000000e+00 0.0000000e+00 
3.2000000e+00 0.0000000e+00 0.0000000e+00 
3.3000000e+00 0.0000000e+00 0.0000000e+00 
3.4000001e+00 0.0000000e+00 0.0000000e+00 
3.5000000e+00 0.0000000e+00 0.0000000e+00 
3.5999999e+00 0.0000000e+00 0.0000000e+00 
3.7000000e+00 0.0000000e+00 0.0000000e+00 
3.8000000e+00 0.0000000e+00 0.0000000e+00 
3.9000001e+00 0.0000000e+00 0.0000000e+00 
4.0000000e+00 0.0000000e+00 0.0000000e+00 
4.0999999e+00 0.0000000e+00 0.0000000e+00 
4.1999998e+00 0.0000000e+00 0.0000000e+00 
4.3000002e+00 0.0000000e+00 0.0000000e+00 
4.4000001e+00 0.0000000e+00 0.0000000e+00 
4.5000000e+00 0.0000000e+00 0.0000000e+00 
4.5999999e+00 0.0000000e+00 0.0000000e+00 
4.6999998e+00 0.0000000e+00 0.0000000e+00 
4.8000002e+00 0.0000000e+00 0.0000000e+00 
4.9000001e+00 0.0000000e+00 0.0000000e+00 
5.0000000e+00 1.0000000e-01 0.0000000e+00 
5.0000000e+00 2.0000000e-01 0.0000000e+00 
5.0000000e+00 3.0000001e-01 0.0000000e+00 
5.0000000e+00 4.0000001e-01 0.0000000e+00 
5.0000000e+00 5.0000000e-01 0.0000000e+00 
5.0000000e+00 6.0000002e-01 0.0000000e+00 
5.0000000e+00 6.9999999e-01 0.0000000e+00 
5.0000000e+00 8.0000001e-01 0.0000000e+00 
5.0000000e+00 8.9999998e-01 0.0000000e+00 
4.9000001e+00 1.0000000e+00 0.0000000e+00 
4.8000002e+00 1.0000000e+00 0.0000000e+00 
4.6999998e+00 1.0000000e+00 0.0000000e+00 
4.5999999e+00 1.0000000e+00 0.0000000e+00 
4.5000000e+00 1.0000000e+00 0.0000000e+00 
4.4000001e+00 1.0000000e+00 0.0000000e+00 
4.3000002e+00 1.0000000e+00 0.0000000e+00 
4.1999998e+00 1.0000000e+00 0.0000000e+00 
4.0999999e+00 1.0000000e+00 0.0000000e+00 
4.0000000e+00 1.0000000e+00 0.0000000e+00 
3.9000001e+00 1.0000000e+00 0.0000000e+00 
3.8000000e+00 1.0000000e+00 0.0000000e+00 
3.7000000e+00 1.0000000e+00 0.0000000e+00 
3.5999999e+00 1.0000000e+00 0.0000000e+00 
3.5000000e+00 1.0000000e+00 0.0000000e+00 
3.4000001e+00 1.0000000e+00 0.0000000e+00 
3.3000000e+00 1.0000000e+00 0.0000000e+00 
3.2000000e+00 1.0000000e+00 0.0000000e+00 
3.0999999e+00 1.0000000e+00 0.0000000e+00 
3.0000000e+00 1.0000000e+00 0.0000000e+00 
2.9000001e+00 1.0000000e+00 0.0000000e+00 
2.8000000e+00 1.0000000e+00 0.0000000e+00 
2.7000000e+00 1.0000000e+00 0.0000000e+00 
2.5999999e+00 1.0000000e+00 0.0000000e+00 
2.5000000e+00 1.0000000e+00 0.0000000e+00 
2.4000001e+00 1.0000000e+00 0.0000000e+00 
2.3000000e+00 1.0000000e+00 0.0000000e+00 
2.2000000e+00 1.0000000e+00 0.0000000e+00 
2.0999999e+00 1.0000000e+00 0.0000000e+00 
2.0000000e+00 1.0000000e+00 0.0000000e+00 
1.9000000e+00 1.0000000e+00 0.0000000e+00 
1.8000000e+00 1.0000000e+00 0.0000000e+00 
1.7000000e+00 1.0000000e+00 0.0000000e+00 
1.6000000e+00 1.0000000e+00 0.0000000e+00 
1.5000000e+00 1.0000000e+00 0.0000000e+00 
1.4000000e+00 1.0000000e+00 0.0000000e+00 
1.3000000e+00 1.0000000e+00 0.0000000e+00 
1.2000000e+00 1.0000000e+00 0.0000000e+00 
1.1000000e+00 1.0000000e+00 0.0000000e+00 
1.0000000e+00 1.0000000e+00 0.0000000e+00 
8.9999998e-01 1.0000000e+00 0.0000000e+00 
8.0000001e-01 1.0000000e+00 0.0000000e+00 
6.9999999e-01 1.0000000e+00 0.0000000e+00 
6.0000002e-01 1.0000000e+00 0.0000000e+00 
5.0000000e-01 1.0000000e+00 0.0000000e+00 
4.0000001e-01 1.0000000e+00 0.0000000e+00 
3.0000001e-01 1.0000000e+00 0.0000000e+00 
2.0000000e-01 1.0000000e+00 0.0000000e+00 
1.0000000e-01 1.0000000e+00 0.0000000e+00 
0.0000000e+00 8.9999998e-01 0.0000000e+00 
0.0000000e+00 8.0000001e-01 0.0000000e+00 
0.0000000e+00 6.9999999e-01 0.0000000e+00 
0.0000000e+00 6.0000002e-01 0.0000000e+00 
0.0000000e+00 5.0000000e-01 0.0000000e+00 
0.0000000e+00 4.0000001e-01 0.0000000e+00 
0.0000000e+00 3.0000001e-01 0.0000000e+00 
0.0000000e+00 2.0000000e-01 0.0000000e+00 
0.0000000e+00 1.0000000e-01 0.0000000e+00 
4.3499999e+00 8.6602539e-02 0.0000000e+00 
2.2500000e+00 9.1339743e-01 0.0000000e+00 
4.0500002e+00 9.1339743e-01 0.0000000e+00 
2.7500000e+00 8.3308272e-02 0.0000000e+00 
3.2500000e+00 8.6602539e-02 0.0000000e+00 
3.7500000e+00 8.6602539e-02 0.0000000e+00 
1.2500000e+00 9.1339743e-01 0.0000000e+00 
1.7500000e+00 9.1339743e-01 0.0000000e+00 
9.4999999e-01 9.1339743e-01 0.0000000e+00 
5.5000001e-01 9.1339743e-01 0.0000000e+00 
7.5000000e-01 8.3308272e-02 0.0000000e+00 
1.4524696e+00 8.1907488e-02 0.0000000e+00 
1.9500000e+00 8.6602539e-02 0.0000000e+00 
3.4500000e+00 9.1339743e-01 0.0000000e+00 
2.9500000e+00 9.1339743e-01 0.0000000e+00 
2.4500000e+00 8.6602539e-02 0.0000000e+00 
4.4499998e+00 9.1339743e-01 0.0000000e+00 
2.6500001e+00 9.1339743e-01 0.0000000e+00 
1.1500000e+00 8.6602539e-02 0.0000000e+00 
4.0517640e+00 7.8262508e-02 0.0000000e+00 
3.7500000e+00 9.1339743e-01 0.0000000e+00 
9.5000088e-02 4.6391028e-01 0.0000000e+00 
4.9059730e+00 4.6363035e-01 0.0000000e+00 
4.5246965e-01 8.1907488e-02 0.0000000e+00 
4.6500001e+00 8.6602539e-02 0.0000000e+00 
4.6500001e+00 9.1339743e-01 0.0000000e+00 
7.5000000e-01 9.1339743e-01 0.0000000e+00 
4.9111457e+00 6.5092021e-01 0.0000000e+00 
2.2500000e+00 8.6602539e-02 0.0000000e+00 
3.2500000e+00 9.1339743e-01 0.0000000e+00 
9.4999999e-01 8.6602539e-02 0.0000000e+00 
2.9500000e+00 8.6602539e-02 0.0000000e+00 
3.4500000e+00 8.6602539e-02 0.0000000e+00 
2.4500000e+00 9.1339743e-01 0.0000000e+00 
1.9500000e+00 9.1339743e-01 0.0000000e+00 
1.5500000e+00 9.1339743e-01 0.0000000e+00 
1.6500000e+00 8.6602539e-02 0.0000000e+00 
3.4999999e-01 9.1339743e-01 0.0000000e+00 
9.0659410e-02 6.5153849e-01 0.0000000e+00 
4.2500000e+00 9.1339743e-01 0.0000000e+00 
2.5402120e-01 7.9592258e-02 0.0000000e+00 
4.9112749e+00 2.5204152e-01 0.0000000e+00 
8.6602539e-02 2.5000000e-01 0.0000000e+00 
4.9094305e+00 8.4081745e-01 0.0000000e+00 
9.0569727e-02 8.4081745e-01 0.0000000e+00 
4.8445559e+00 9.5495284e-02 0.0000000e+00 
3.9500000e+00 9.1339743e-01 0.0000000e+00 
4.0000000e+00 8.2679492e-01 0.0000000e+00 
4.0999999e+00 8.2679492e-01 0.0000000e+00 
4.0500002e+00 7.4019235e-01 0.0000000e+00 
4.1500001e+00 7.4019235e-01 0.0000000e+00 
4.0999999e+00 6.5358984e-01 0.0000000e+00 
4.1999998e+00 6.5358984e-01 0.0000000e+00 
4.0000000e+00 6.5358984e-01 0.0000000e+00 
4.1500001e+00 5.6698728e-01 0.0000000e+00 
4.2500000e+00 5.6698728e-01 0.0000000e+00 
4.1999998e+00 4.8038477e-01 0.0000000e+00 
4.3000002e+00 4.8038477e-01 0.0000000e+00 
4.3499999e+00 5.6698728e-01 0.0000000e+00 
4.4000001e+00 4.8038477e-01 0.0000000e+00 
4.4499998e+00 5.6698728e-01 0.0000000e+00 
4.5000000e+00 4.8038477e-01 0.0000000e+00 
4.0999999e+00 4.8038477e-01 0.0000000e+00 
4.5500002e+00 5.6698728e-01 0.0000000e+00 
4.2500000e+00 3.9378223e-01 0.0000000e+00 
4.4499998e+00 3.9378223e-01 0.0000000e+00 
4.5500002e+00 3.9378223e-01 0.0000000e+00 
4.5024695e+00 3.0860552e-01 0.0000000e+00 
4.5000000e+00 6.5358984e-01 0.0000000e+00 
4.5999999e+00 6.5358984e-01 0.0000000e+00 
4.6500001e+00 5.6698728e-01 0.0000000e+00 
4.6004114e+00 3.0741730e-01 0.0000000e+00 
4.6999998e+00 6.5358984e-01 0.0000000e+00 
4.5500002e+00 7.4019235e-01 0.0000000e+00 
4.4499998e+00 7.4019235e-01 0.0000000e+00 
4.4028811e+00 3.1213742e-01 0.0000000e+00 
3.9000001e+00 8.2679492e-01 0.0000000e+00 
4.2500000e+00 7.4019235e-01 0.0000000e+00 
4.6500688e+00 3.9382184e-01 0.0000000e+00 
4.7000799e+00 3.0722588e-01 0.0000000e+00 
4.7507491e+00 5.6669539e-01 0.0000000e+00 
4.5510750e+00 2.2357146e-01 0.0000000e+00 
4.7483096e+00 3.9479813e-01 0.0000000e+00 
4.8143229e+00 3.0351433e-01 0.0000000e+00 
4.7489839e+00 2.2150035e-01 0.0000000e+00 
4.8026423e+00 6.5280432e-01 0.0000000e+00 
4.7504406e+00 7.4006146e-01 0.0000000e+00 
4.8507943e+00 7.4260241e-01 0.0000000e+00 
4.8009601e+00 8.2998371e-01 0.0000000e+00 
4.8518200e+00 5.6202388e-01 0.0000000e+00 
4.8002234e+00 4.7973469e-01 0.0000000e+00 
4.7002335e+00 8.2730454e-01 0.0000000e+00 
4.6500239e+00 2.2246142e-01 0.0000000e+00 
4.5000000e+00 8.2679492e-01 0.0000000e+00 
4.4000001e+00 8.2679492e-01 0.0000000e+00 
4.6000390e+00 8.2687986e-01 0.0000000e+00 
4.6501188e+00 7.4026966e-01 0.0000000e+00 
4.1999998e+00 8.2679492e-01 0.0000000e+00 
4.1500001e+00 9.1339743e-01 0.0000000e+00 
4.1500001e+00 3.9378223e-01 0.0000000e+00 
4.0500002e+00 3.9378223e-01 0.0000000e+00 
4.1999998e+00 3.0717969e-01 0.0000000e+00 
4.0000000e+00 4.8038477e-01 0.0000000e+00 
3.9500000e+00 3.9378223e-01 0.0000000e+00 
3.9000001e+00 4.8038477e-01 0.0000000e+00 
3.8499999e+00 3.9378223e-01 0.0000000e+00 
3.8000000e+00 4.8038477e-01 0.0000000e+00 
3.7500000e+00 3.9378223e-01 0.0000000e+00 
3.7000000e+00 4.8038477e-01 0.0000000e+00 
3.6500001e+00 3.9378223e-01 0.0000000e+00 
[...]
POINT_DATA 663
FIELD FieldData 2
DISPLACEMENT 3 663  float
0.0000000e+00 0.0000000e+00 0.0000000e+00 
0.0000000e+00 0.0000000e+00 0.0000000e+00 
0.0000000e+00 2.8640493e-10 0.0000000e+00 
0.0000000e+00 2.8429072e-09 0.0000000e+00 
0.0000000e+00 0.0000000e+00 0.0000000e+00 
0.0000000e+00 0.0000000e+00 0.0000000e+00 
0.0000000e+00 0.0000000e+00 0.0000000e+00 
0.0000000e+00 0.0000000e+00 0.0000000e+00 
0.0000000e+00 0.0000000e+00 0.0000000e+00 
0.0000000e+00 0.0000000e+00 0.0000000e+00 
0.0000000e+00 0.0000000e+00 0.0000000e+00 
0.0000000e+00 0.0000000e+00 0.0000000e+00 
0.0000000e+00 0.0000000e+00 0.0000000e+00 
0.0000000e+00 0.0000000e+00 0.0000000e+00 
0.0000000e+00 0.0000000e+00 0.0000000e+00 
0.0000000e+00 0.0000000e+00 0.0000000e+00 
0.0000000e+00 0.0000000e+00 0.0000000e+00 
0.0000000e+00 0.0000000e+00 0.0000000e+00 
0.0000000e+00 0.0000000e+00 0.0000000e+00 
0.0000000e+00 0.0000000e+00 0.0000000e+00 
0.0000000e+00 0.0000000e+00 0.0000000e+00 
0.0000000e+00 0.0000000e+00 0.0000000e+00 
0.0000000e+00 0.0000000e+00 0.0000000e+00 
0.0000000e+00 0.0000000e+00 0.0000000e+00 
0.0000000e+00 0.0000000e+00 0.0000000e+00 
0.0000000e+00 0.0000000e+00 0.0000000e+00 
0.0000000e+00 0.0000000e+00 0.0000000e+00 
0.0000000e+00 0.0000000e+00 0.0000000e+00 
0.0000000e+00 0.0000000e+00 0.0000000e+00 
0.0000000e+00 0.0000000e+00 0.0000000e+00 
0.0000000e+00 0.0000000e+00 0.0000000e+00 
0.0000000e+00 0.0000000e+00 0.0000000e+00 
0.0000000e+00 0.0000000e+00 0.0000000e+00 
0.0000000e+00 0.0000000e+00 0.0000000e+00 
0.0000000e+00 0.0000000e+00 0.0000000e+00 
0.0000000e+00 0.0000000e+00 0.0000000e+00 
0.0000000e+00 0.0000000e+00 0.0000000e+00 
0.0000000e+00 0.0000000e+00 0.0000000e+00 
0.0000000e+00 0.0000000e+00 0.0000000e+00 
0.0000000e+00 0.0000000e+00 0.0000000e+00 
0.0000000e+00 0.0000000e+00 0.0000000e+00 
0.0000000e+00 0.0000000e+00 0.0000000e+00 
0.0000000e+00 0.0000000e+00 0.0000000e+00 
0.0000000e+00 0.0000000e+00 0.0000000e+00 
0.0000000e+00 0.0000000e+00 0.0000000e+00 
0.0000000e+00 0.0000000e+00 0.0000000e+00 
0.0000000e+00 0.0000000e+00 0.0000000e+00 
0.0000000e+00 0.0000000e+00 0.0000000e+00 
0.0000000e+00 0.0000000e+00 0.0000000e+00 
0.0000000e+00 0.0000000e+00 0.0000000e+00 
0.0000000e+00 0.0000000e+00 0.0000000e+00 
0.0000000e+00 0.0000000e+00 0.0000000e+00 
0.0000000e+00 0.0000000e+00 0.0000000e+00 
0.0000000e+00 3.0405324e-11 0.0000000e+00 
0.0000000e+00 6.3742289e-11 0.0000000e+00 
0.0000000e+00 9.9763392e-11 0.0000000e+00 
0.0000000e+00 1.3601176e-10 0.0000000e+00 
0.0000000e+00 1.7036395e-10 0.0000000e+00 
0.0000000e+00 1.9996049e-10 0.0000000e+00 
0.0000000e+00 2.2506727e-10 0.0000000e+00 
0.0000000e+00 2.4632968e-10 0.0000000e+00 
0.0000000e+00 2.6596908e-10 0.0000000e+00 
9.9077871e-11 3.0169084e-10 0.0000000e+00 
1.9477048e-10 3.4150080e-10 0.0000000e+00 
2.8434055e-10 4.0897408e-10 0.0000000e+00 
3.6353240e-10 5.0523430e-10 0.0000000e+00 
4.2623710e-10 6.3164729e-10 0.0000000e+00 
4.6371498e-10 7.8898416e-10 0.0000000e+00 
4.6395851e-10 9.7666408e-10 0.0000000e+00 
4.1069667e-10 1.1915969e-09 0.0000000e+00 
2.8228789e-10 1.4265780e-09 0.0000000e+00 
5.0498140e-11 1.6680742e-09 0.0000000e+00 
-3.2081163e-10 1.8932589e-09 0.0000000e+00 
-8.7702445e-10 2.0660997e-09 0.0000000e+00 
-1.6740295e-09 2.1322846e-09 0.0000000e+00 
-2.7792570e-09 2.0127064e-09 0.0000000e+00 
-4.2722408e-09 1.5952503e-09 0.0000000e+00 
-6.2444196e-09 7.2463552e-10 0.0000000e+00 
-8.7979473e-09 -8.1008611e-10 0.0000000e+00 
-1.2043246e-08 -3.2911487e-09 0.0000000e+00 
-1.6094923e-08 -7.0919670e-09 0.0000000e+00 
-2.1065617e-08 -1.2703223e-08 0.0000000e+00 
-2.7057622e-08 -2.0769207e-08 0.0000000e+00 
-3.4152116e-08 -3.2143024e-08 0.0000000e+00 
-4.2395079e-08 -4.7980063e-08 0.0000000e+00 
-5.1773664e-08 -6.9914755e-08 0.0000000e+00 
-6.2153759e-08 -1.0043249e-07 0.0000000e+00 
-7.3051595e-08 -1.4374166e-07 0.0000000e+00 
-8.2684920e-08 -2.0811380e-07 0.0000000e+00 
-8.3720430e-08 -3.1394535e-07 0.0000000e+00 
-4.0258186e-08 -5.5787046e-07 0.0000000e+00 
4.0440646e-08 -5.5787001e-07 0.0000000e+00 
8.3905356e-08 -3.1394433e-07 0.0000000e+00 
8.2875438e-08 -2.0811245e-07 0.0000000e+00 
7.3251350e-08 -1.4373964e-07 0.0000000e+00 
6.2366482e-08 -1.0042844e-07 0.0000000e+00 
5.2003120e-08 -6.9906356e-08 0.0000000e+00 
4.2645105e-08 -4.7964068e-08 0.0000000e+00 
3.4426559e-08 -3.2115157e-08 0.0000000e+00 
2.7360260e-08 -2.0724134e-08 0.0000000e+00 
2.1400201e-08 -1.2634390e-08 0.0000000e+00 
1.6465192e-08 -6.9912036e-09 0.0000000e+00 
1.2452683e-08 -3.1480845e-09 0.0000000e+00 
9.2491348e-09 -6.1156979e-10 0.0000000e+00 
6.7380603e-09 9.9492037e-10 0.0000000e+00 
4.8059388e-09 1.9569093e-09 0.0000000e+00 
3.3460847e-09 2.4885312e-09 0.0000000e+00 
2.2606514e-09 2.7479630e-09 0.0000000e+00 
1.4610426e-09 2.8503593e-09 0.0000000e+00 
8.6504515e-10 2.8736069e-09 0.0000000e+00 
3.9785455e-10 2.8549210e-09 0.0000000e+00 
0.0000000e+00 2.9236755e-09 0.0000000e+00 
0.0000000e+00 2.9212135e-09 0.0000000e+00 
0.0000000e+00 2.7941205e-09 0.0000000e+00 
0.0000000e+00 2.5272748e-09 0.0000000e+00 
0.0000000e+00 2.1337752e-09 0.0000000e+00 
0.0000000e+00 1.6532244e-09 0.0000000e+00 
0.0000000e+00 1.1333018e-09 0.0000000e+00 
0.0000000e+00 6.4563777e-10 0.0000000e+00 
0.0000000e+00 2.6002298e-10 0.0000000e+00 
1.1785310e-10 7.5731581e-11 0.0000000e+00 
-1.4084675e-08 -2.5103645e-07 0.0000000e+00 
7.3941991e-11 1.5881885e-09 0.0000000e+00 
9.2787875e-09 -7.0840285e-09 0.0000000e+00 
3.9347352e-09 -1.2097900e-09 0.0000000e+00 
1.0176212e-09 2.2473160e-11 0.0000000e+00 
1.9957984e-08 -2.4781546e-08 0.0000000e+00 
2.6784331e-08 -1.7124383e-07 0.0000000e+00 
1.0302745e-08 -4.1824815e-09 0.0000000e+00 
3.2095355e-09 2.5240214e-09 0.0000000e+00 
-2.9848808e-09 -7.0474920e-10 0.0000000e+00 
-9.9063922e-09 -9.1848626e-09 0.0000000e+00 
-3.5651035e-09 -2.1362426e-08 0.0000000e+00 
-3.9959001e-09 1.5774645e-09 0.0000000e+00 
-1.6065211e-08 -1.5370780e-08 0.0000000e+00 
1.0294362e-08 -1.5003307e-08 0.0000000e+00 
3.3875988e-10 6.9810580e-10 0.0000000e+00 
-2.7096885e-08 -5.6657349e-08 0.0000000e+00 
-7.2519741e-09 -3.9241890e-09 0.0000000e+00 
3.4241324e-10 8.9451481e-11 0.0000000e+00 
-1.0693177e-09 2.2585982e-09 0.0000000e+00 
-4.5526882e-10 1.9739708e-09 0.0000000e+00 
3.1288496e-11 1.6615953e-10 0.0000000e+00 
-1.2565005e-09 -1.3743272e-11 0.0000000e+00 
3.0549428e-11 4.1861153e-11 0.0000000e+00 
2.5338812e-10 4.3737899e-10 0.0000000e+00 
5.9931695e-09 7.2998463e-10 0.0000000e+00 
3.8804269e-11 2.2241685e-10 0.0000000e+00 
6.6621650e-09 -1.9858025e-08 0.0000000e+00 
-7.5547222e-09 -1.3428947e-09 0.0000000e+00 
-4.9269260e-09 -1.8527933e-09 0.0000000e+00 
7.2855721e-09 -3.9328287e-09 0.0000000e+00 
2.3860192e-09 -4.2401954e-10 0.0000000e+00 
-3.0478667e-08 -1.1879587e-07 0.0000000e+00 
-1.0417812e-08 -3.8360204e-07 0.0000000e+00 
3.0065916e-08 -8.2479481e-08 0.0000000e+00 
-1.0265898e-08 -1.5016411e-08 0.0000000e+00 
1.5368341e-09 2.9545690e-09 0.0000000e+00 
-1.3101167e-10 2.7023765e-09 0.0000000e+00 
3.1302991e-10 1.0892578e-09 0.0000000e+00 
-5.7076471e-10 1.3804990e-10 0.0000000e+00 
1.7068996e-11 8.5917932e-11 0.0000000e+00 
-4.3548345e-10 8.7248581e-10 0.0000000e+00 
5.8722714e-11 2.6403787e-10 0.0000000e+00 
2.2905877e-10 2.9558704e-09 0.0000000e+00 
1.0719131e-11 3.2392165e-11 0.0000000e+00 
-1.7435990e-10 1.8502232e-09 0.0000000e+00 
6.0869053e-11 1.7360966e-09 0.0000000e+00 
1.8231859e-10 1.4620990e-09 0.0000000e+00 
2.9363803e-10 1.5582403e-09 0.0000000e+00 
3.0411315e-10 1.2937948e-09 0.0000000e+00 
4.6985821e-10 1.3343895e-09 0.0000000e+00 
3.9620171e-10 1.0959860e-09 0.0000000e+00 
5.5949295e-10 1.5857027e-09 0.0000000e+00 
5.6488014e-10 1.0865810e-09 0.0000000e+00 
4.3815440e-10 8.8505314e-10 0.0000000e+00 
5.7614702e-10 8.3675961e-10 0.0000000e+00 
4.2659615e-10 6.7738803e-10 0.0000000e+00 
3.3987180e-10 7.0650275e-10 0.0000000e+00 
3.1465022e-10 5.3778165e-10 0.0000000e+00 
2.6219310e-10 5.5468480e-10 0.0000000e+00 
2.2992207e-10 4.2029288e-10 0.0000000e+00 
7.7597018e-10 1.0099730e-09 0.0000000e+00 
1.9910855e-10 4.3052012e-10 0.0000000e+00 
5.1642257e-10 6.0372302e-10 0.0000000e+00 
2.6285635e-10 3.8535597e-10 0.0000000e+00 
1.8398021e-10 3.0063116e-10 0.0000000e+00 
1.9363394e-10 2.5580191e-10 0.0000000e+00 
2.2701432e-10 5.4362709e-10 0.0000000e+00 
1.7916769e-10 4.2134909e-10 0.0000000e+00 
1.4619313e-10 3.3351183e-10 0.0000000e+00 
1.3103248e-10 2.0020448e-10 0.0000000e+00 
1.3316685e-10 3.2875230e-10 0.0000000e+00 
2.1550281e-10 5.1359716e-10 0.0000000e+00 
2.5199667e-10 6.5937261e-10 0.0000000e+00 
2.8343489e-10 3.2788569e-10 0.0000000e+00 
-1.2557053e-10 2.0049209e-09 0.0000000e+00 
2.9879432e-10 1.0512952e-09 0.0000000e+00 
1.2529475e-10 2.3374530e-10 0.0000000e+00 
8.5121452e-11 1.5705533e-10 0.0000000e+00 
9.9792806e-11 2.6200037e-10 0.0000000e+00 
1.2501322e-10 1.5490105e-10 0.0000000e+00 
8.1385468e-11 1.8574180e-10 0.0000000e+00 
4.5888321e-11 1.2140160e-10 0.0000000e+00 
4.9332378e-11 9.7147852e-11 0.0000000e+00 
8.6968412e-11 2.6270899e-10 0.0000000e+00 
1.2606008e-10 3.1720671e-10 0.0000000e+00 
7.6724870e-11 2.6407626e-10 0.0000000e+00 
1.2297952e-10 3.0575065e-10 0.0000000e+00 
5.7309012e-11 2.1437721e-10 0.0000000e+00 
7.0884104e-11 2.0279940e-10 0.0000000e+00 
1.7848303e-10 3.7513209e-10 0.0000000e+00 
8.0542621e-11 1.2188352e-10 0.0000000e+00 
2.6367522e-10 6.0663508e-10 0.0000000e+00 
2.8466920e-10 7.7201678e-10 0.0000000e+00 
2.2669454e-10 4.7486731e-10 0.0000000e+00 
1.7301585e-10 4.0013254e-10 0.0000000e+00 
2.5265395e-10 1.2033953e-09 0.0000000e+00 
2.2878179e-10 1.3290771e-09 0.0000000e+00 
7.1506412e-10 7.3189071e-10 0.0000000e+00 
9.8302033e-10 8.6282848e-10 0.0000000e+00 
5.7818944e-10 4.8757487e-10 0.0000000e+00 
1.0426193e-09 1.1858398e-09 0.0000000e+00 
1.3418813e-09 9.8288244e-10 0.0000000e+00 
1.3967977e-09 1.3458670e-09 0.0000000e+00 
1.8173149e-09 1.0711840e-09 0.0000000e+00 
1.8638306e-09 1.4612369e-09 0.0000000e+00 
2.4401510e-09 1.0959310e-09 0.0000000e+00 
2.4743618e-09 1.4885484e-09 0.0000000e+00 
3.2468213e-09 1.0110999e-09 0.0000000e+00 
3.2643988e-09 1.3637543e-09 0.0000000e+00 
4.2785029e-09 7.4907941e-10 0.0000000e+00 
4.2754569e-09 9.9389663e-10 0.0000000e+00 
5.5806830e-09 2.0792250e-10 0.0000000e+00 
5.5571348e-09 2.5802369e-10 0.0000000e+00 
7.1454194e-09 -6.8034622e-10 0.0000000e+00 
7.1449211e-09 -1.0101245e-09 0.0000000e+00 
9.0736778e-09 -2.1463651e-09 0.0000000e+00 
9.1024868e-09 -3.0644201e-09 0.0000000e+00 
1.1490385e-08 -4.4932369e-09 0.0000000e+00 
1.1480151e-08 -6.1993695e-09 0.0000000e+00 
1.4294389e-08 -7.8757028e-09 0.0000000e+00 
1.4316662e-08 -1.0780399e-08 0.0000000e+00 
1.7418802e-08 -1.2639274e-08 0.0000000e+00 
1.7574154e-08 -1.7279488e-08 0.0000000e+00 
2.0794806e-08 -1.9213536e-08 0.0000000e+00 
2.1186322e-08 -2.6264575e-08 0.0000000e+00 
2.4248472e-08 -2.8055062e-08 0.0000000e+00 
2.4970767e-08 -3.8341689e-08 0.0000000e+00 
2.7398656e-08 -3.9490754e-08 0.0000000e+00 
2.8519937e-08 -5.4017146e-08 0.0000000e+00 
2.9589366e-08 -5.3582173e-08 0.0000000e+00 
3.1081306e-08 -7.3446493e-08 0.0000000e+00 
2.9997906e-08 -6.9922251e-08 0.0000000e+00 
3.1454107e-08 -9.5922893e-08 0.0000000e+00 
2.7700969e-08 -8.6985629e-08 0.0000000e+00 
2.8109708e-08 -1.1897843e-07 0.0000000e+00 
2.1851806e-08 -1.0365655e-07 0.0000000e+00 
1.9853884e-08 -1.3853321e-07 0.0000000e+00 
1.1984436e-08 -1.1486840e-07 0.0000000e+00 
7.2105069e-09 -1.4985245e-07 0.0000000e+00 
2.9412191e-11 -1.1763298e-07 0.0000000e+00 
-7.1012809e-09 -1.4964216e-07 0.0000000e+00 
-1.1736549e-08 -1.1350010e-07 0.0000000e+00 
-1.9668095e-08 -1.3841796e-07 0.0000000e+00 
-2.1319680e-08 -1.0258944e-07 0.0000000e+00 
-2.7945259e-08 -1.1900931e-07 0.0000000e+00 
-2.7417713e-08 -8.7088210e-08 0.0000000e+00 
-3.1337009e-08 -9.5939569e-08 0.0000000e+00 
-2.9875590e-08 -6.9936441e-08 0.0000000e+00 
-3.0951743e-08 -7.3456157e-08 0.0000000e+00 
-2.9473341e-08 -5.3588831e-08 0.0000000e+00 
-2.8383040e-08 -5.4012606e-08 0.0000000e+00 
-2.7263395e-08 -3.9470756e-08 0.0000000e+00 
-2.4839105e-08 -3.8341422e-08 0.0000000e+00 
-2.4147354e-08 -2.8054892e-08 0.0000000e+00 
-2.1056785e-08 -2.6264123e-08 0.0000000e+00 
-2.0705492e-08 -1.9217650e-08 0.0000000e+00 
-1.7439366e-08 -1.7261398e-08 0.0000000e+00 
-1.7314012e-08 -1.2613522e-08 0.0000000e+00 
-1.4180412e-08 -1.0738339e-08 0.0000000e+00 
-1.4183769e-08 -7.8225195e-09 0.0000000e+00 
-1.1353202e-08 -6.1383369e-09 0.0000000e+00 
-1.1416709e-08 -4.4429540e-09 0.0000000e+00 
-8.9643875e-09 -2.9866172e-09 0.0000000e+00 
-9.0451149e-09 -2.1296038e-09 0.0000000e+00 
-6.9843069e-09 -8.9621160e-10 0.0000000e+00 
-7.0563484e-09 -5.9397381e-10 0.0000000e+00 
-5.3674118e-09 4.3754236e-10 0.0000000e+00 
-5.4170286e-09 3.9155640e-10 0.0000000e+00 
-4.0634740e-09 1.2437157e-09 0.0000000e+00 
-4.0840766e-09 9.8439867e-10 0.0000000e+00 
-3.0172094e-09 1.6962811e-09 0.0000000e+00 
-3.0069121e-09 1.3249437e-09 0.0000000e+00 
2.1053939e-09 1.8479199e-09 0.0000000e+00 
4.6489279e-09 1.3593535e-10 0.0000000e+00 
9.8434700e-09 -8.3903435e-09 0.0000000e+00 
1.9288562e-08 -3.4612473e-08 0.0000000e+00 
2.7532241e-08 -7.1233046e-08 0.0000000e+00 
3.1654459e-08 -1.2761608e-07 0.0000000e+00 
6.0670073e-11 -1.8954063e-07 0.0000000e+00 
-2.7175711e-08 -1.5799759e-07 0.0000000e+00 
-3.0708534e-08 -9.7290147e-08 0.0000000e+00 
-1.9131255e-08 -3.4610608e-08 0.0000000e+00 
-9.6681294e-09 -8.3328153e-09 0.0000000e+00 
-5.8059832e-09 -1.4543337e-09 0.0000000e+00 
-3.3449170e-09 1.3790495e-09 0.0000000e+00 
-2.1790889e-09 1.9246265e-09 0.0000000e+00 
-1.8134430e-09 2.2881264e-09 0.0000000e+00 
-2.1350466e-09 1.4997168e-09 0.0000000e+00 
-4.7639324e-09 2.5229552e-10 0.0000000e+00 
-2.1513822e-08 -1.9505409e-08 0.0000000e+00 
-2.1072974e-08 -7.2952083e-08 0.0000000e+00 
5.3667564e-09 -8.9525685e-08 0.0000000e+00 
2.6364482e-08 -3.7154297e-08 0.0000000e+00 
1.2756300e-08 -5.5377285e-09 0.0000000e+00 
3.7171555e-09 4.8310339e-10 0.0000000e+00 
1.5445030e-09 7.1151157e-10 0.0000000e+00 
-1.2772633e-09 2.4121778e-09 0.0000000e+00 
-6.8367007e-10 2.7083438e-09 0.0000000e+00 
-2.5840559e-09 9.2942043e-10 0.0000000e+00 
-1.0165310e-08 -3.1387497e-09 0.0000000e+00 
-1.5445490e-08 -8.8181613e-09 0.0000000e+00 
-2.6905866e-08 -4.8535593e-08 0.0000000e+00 
2.5604031e-08 -6.1050763e-08 0.0000000e+00 
1.8539518e-08 -1.3400910e-08 0.0000000e+00 
6.3579515e-09 -5.5223415e-10 0.0000000e+00 
-4.6576160e-10 2.7518678e-09 0.0000000e+00 
-1.7876316e-09 1.0659360e-09 0.0000000e+00 
-9.6233055e-10 2.5316904e-09 0.0000000e+00 
1.2343311e-09 1.7107811e-09 0.0000000e+00 
3.0063296e-10 2.8589648e-09 0.0000000e+00 
4.0225015e-10 2.5902995e-09 0.0000000e+00 
-8.4278068e-10 2.4416906e-09 0.0000000e+00 
-1.9044433e-09 5.6166216e-10 0.0000000e+00 
-1.4296125e-09 1.5862186e-09 0.0000000e+00 
-2.7458336e-09 4.2060030e-10 0.0000000e+00 
-1.2786262e-09 6.6659989e-10 0.0000000e+00 
-2.8824637e-10 2.7360714e-09 0.0000000e+00 
1.3793540e-10 2.9392049e-09 0.0000000e+00 
9.0114173e-11 2.9160232e-09 0.0000000e+00 
4.8450760e-10 2.9921836e-09 0.0000000e+00 
-4.9314708e-10 2.4219269e-09 0.0000000e+00 
-1.0328771e-09 1.1225209e-09 0.0000000e+00 
2.1207269e-10 2.9442946e-09 0.0000000e+00 
8.1029222e-10 5.7561034e-10 0.0000000e+00 
5.7104499e-10 3.4134232e-10 0.0000000e+00 
4.0738393e-10 3.0239125e-10 0.0000000e+00 
8.1266044e-10 3.9582398e-10 0.0000000e+00 
3.4590417e-10 1.8721827e-10 0.0000000e+00 
-1.2646759e-08 -5.4916129e-09 0.0000000e+00 
-1.2164524e-08 -5.7461955e-09 0.0000000e+00 
-1.4628888e-08 -8.6519840e-09 0.0000000e+00 
-9.8985620e-09 -3.6226997e-09 0.0000000e+00 
-7.9497786e-09 -2.1212245e-09 0.0000000e+00 
3.0549357e-10 5.5162541e-10 0.0000000e+00 
4.9259673e-11 5.1858004e-11 0.0000000e+00 
7.4335392e-11 6.0949704e-11 0.0000000e+00 
1.6903129e-10 1.4257391e-10 0.0000000e+00 
3.6970302e-10 4.8778159e-10 0.0000000e+00 
1.8969760e-10 3.5439393e-10 0.0000000e+00 
-1.5444074e-08 -2.2848402e-08 0.0000000e+00 
-1.0827033e-08 -2.9435833e-08 0.0000000e+00 
-1.4335338e-08 -4.4293241e-08 0.0000000e+00 
-8.1072642e-09 -1.8714795e-08 0.0000000e+00 
-2.8752287e-09 -3.7101341e-08 0.0000000e+00 
-5.7037757e-09 -5.5345989e-08 0.0000000e+00 
-1.8688098e-08 -6.4491708e-08 0.0000000e+00 
-9.9874740e-09 -8.0424442e-08 0.0000000e+00 
9.4157748e-09 -4.6025047e-08 0.0000000e+00 
-1.1279537e-09 -2.3974469e-08 0.0000000e+00 
-1.2388070e-10 -1.4664381e-08 0.0000000e+00 
-6.0408651e-09 -1.1132586e-08 0.0000000e+00 
3.9555548e-10 -8.1851130e-09 0.0000000e+00 
7.3152941e-09 -1.1248019e-08 0.0000000e+00 
-4.4873101e-09 -5.8939946e-09 0.0000000e+00 
6.1403732e-10 -3.7857695e-09 0.0000000e+00 
-3.3254186e-09 -2.3764244e-09 0.0000000e+00 
6.5634120e-10 -8.9339575e-10 0.0000000e+00 
-2.4583040e-09 -9.8736096e-11 0.0000000e+00 
6.0418653e-10 9.2781960e-10 0.0000000e+00 
-1.8112476e-09 1.3060170e-09 0.0000000e+00 
3.0921350e-09 -7.4688533e-10 0.0000000e+00 
6.0135905e-09 -1.4607712e-09 0.0000000e+00 
7.6788487e-09 -2.5010218e-09 0.0000000e+00 
8.3516962e-09 -2.1881699e-09 0.0000000e+00 
4.7403925e-09 -7.8424450e-10 0.0000000e+00 
3.4744172e-09 -3.2607148e-10 0.0000000e+00 
-4.4319908e-09 3.0759922e-10 0.0000000e+00 
7.9354345e-09 -1.1820923e-09 0.0000000e+00 
4.4349386e-09 1.8829187e-09 0.0000000e+00 
-7.5288886e-09 -4.2043582e-09 0.0000000e+00 
8.9410550e-09 -1.7653299e-08 0.0000000e+00 
1.3773386e-08 -3.8153591e-08 0.0000000e+00 
9.2370858e-09 -4.3173099e-08 0.0000000e+00 
1.5694290e-08 -6.0072011e-08 0.0000000e+00 
2.3284772e-11 1.2364172e-10 0.0000000e+00 
3.4493072e-10 8.7761592e-10 0.0000000e+00 
3.0679537e-08 -1.1879570e-07 0.0000000e+00 
-1.2616383e-09 -1.4099321e-07 0.0000000e+00 
-1.1514367e-08 -2.0117965e-07 0.0000000e+00 
-2.2954737e-08 -1.5999858e-07 0.0000000e+00 
-2.7854504e-08 -2.1688939e-07 0.0000000e+00 
3.5817860e-09 1.1355982e-09 0.0000000e+00 
2.0787025e-09 1.0787019e-09 0.0000000e+00 
2.7089400e-09 -2.5961472e-10 0.0000000e+00 
1.6123053e-09 1.8006706e-09 0.0000000e+00 
-3.0025421e-10 7.2190870e-10 0.0000000e+00 
-3.7049566e-10 -1.0387435e-09 0.0000000e+00 
3.5606638e-09 -2.4888496e-09 0.0000000e+00 
-3.4577291e-10 -3.8860311e-09 0.0000000e+00 
5.0916099e-10 2.0070456e-09 0.0000000e+00 
-1.2289942e-08 -1.4339504e-08 0.0000000e+00 
4.0955464e-10 4.1057457e-10 0.0000000e+00 
-2.4276234e-08 -2.7395405e-08 0.0000000e+00 
-1.9520320e-08 -1.7529869e-08 0.0000000e+00 
-2.1859568e-08 -2.4688733e-08 0.0000000e+00 
-5.5820841e-09 5.0614629e-10 0.0000000e+00 
-2.6593337e-08 -1.7124351e-07 0.0000000e+00 
1.1693230e-08 -2.0117820e-07 0.0000000e+00 
2.2868633e-08 -2.8421954e-07 0.0000000e+00 
2.8018537e-08 -2.1688824e-07 0.0000000e+00 
2.1268900e-08 -2.6922316e-07 0.0000000e+00 
2.3124370e-08 -1.5999473e-07 0.0000000e+00 
1.4006878e-08 -3.5309219e-07 0.0000000e+00 
8.0219179e-11 -2.9052180e-07 0.0000000e+00 
2.5202924e-08 -2.0661844e-07 0.0000000e+00 
1.4479833e-09 -1.4099089e-07 0.0000000e+00 
-4.9242326e-09 -9.8357795e-08 0.0000000e+00 
1.6113836e-08 -1.1452388e-07 0.0000000e+00 
1.0173476e-08 -8.0422197e-08 0.0000000e+00 
-8.1096836e-09 -6.7910022e-08 0.0000000e+00 
5.8998415e-09 -5.5347439e-08 0.0000000e+00 
-9.1937977e-09 -4.6032799e-08 0.0000000e+00 
3.0832730e-09 -3.7110230e-08 0.0000000e+00 
-9.0277927e-09 -3.0329563e-08 0.0000000e+00 
1.3497415e-09 -2.3996122e-08 0.0000000e+00 
-8.1871576e-09 -1.9148967e-08 0.0000000e+00 
3.6035908e-10 -1.4705099e-08 0.0000000e+00 
8.3070812e-09 -1.8741590e-08 0.0000000e+00 
-7.0385044e-09 -1.1305003e-08 0.0000000e+00 
-1.4363644e-10 -8.2514910e-09 0.0000000e+00 
-1.2794571e-08 -8.7820444e-09 0.0000000e+00 
-1.9687963e-08 -2.4811717e-08 0.0000000e+00 
-2.9852252e-08 -8.2482018e-08 0.0000000e+00 
4.8828062e-09 1.3125449e-10 0.0000000e+00 
2.3387312e-08 -5.0470298e-08 0.0000000e+00 
-1.0474682e-08 -1.2015195e-08 0.0000000e+00 
-1.8405778e-08 -2.7115474e-08 0.0000000e+00 
-1.6166398e-08 -3.1158482e-08 0.0000000e+00 
-1.7891256e-09 2.2984219e-09 0.0000000e+00 
-7.5897905e-10 2.3756719e-09 0.0000000e+00 
-1.2420530e-09 2.3502345e-09 0.0000000e+00 
4.6594645e-11 2.3441042e-09 0.0000000e+00 
1.4150139e-10 2.2736923e-09 0.0000000e+00 