# vtk DataFile Version 4.0
vtk output
ASCII
DATASET UNSTRUCTURED_GRID
POINTS 663 float
0.0000000e+00 0.0000000e+00 0.0000000e+00 
5.0000000e+00 0.0000000e+00 0.0000000e+00 
5.0000000e+00 1.0000000e+00 0.0000000e+00 
0.0000000e+00 1.0000000e+00 0.0000000e+00 
1.0000000e-01 0.0000000e+00 0.0000000e+00 
2.0000000e-01 0.0000000e+00 0.0000000e+00 
3.0000001e-01 0.0000000e+00 0.0000000e+00 
4.0000001e-01 0.0000000e+00 0.0000000e+00 
5.0000000e-01 0.0000000e+00 0.0000000e+00 
6.0000002e-01 0.0000000e+00 0.0000000e+00 
6.9999999e-01 0.0000000e+00 0.0000000e+00 
8.0000001e-01 0.0000000e+00 0.0000000e+00 
8.9999998e-01 0.0000000e+00 0.0000000e+00 
1.0000000e+00 0.0000000e+00 0.0000000e+00 
1.1000000e+00 0.0000000e+00 0.0000000e+00 
1.2000000e+00 0.0000000e+00 0.0000000e+00 
1.3000000e+00 0.0000000e+00 0.0000000e+00 
1.4000000e+00 0.0000000e+00 0.0000000e+00 
1.5000000e+00 0.0000000e+00 0.0000000e+00 
1.6000000e+00 0.0000000e+00 0.0000000e+00 
1.7000000e+00 0.0000000e+00 0.0000000e+00 
1.8000000e+00 0.0000000e+00 0.0000000e+00 
1.9000000e+00 0.0000000e+00 0.0000000e+00 
2.0000000e+00 0.0000000e+00 0.0000000e+00 
2.0999999e+00 0.0000000e+00 0.0000000e+00 
2.2000000e+00 0.0000000e+00 0.0000000e+00 
2.3000000e+00 0.0000000e+00 0.0000000e+00 
2.4000001e+00 0.0000000e+00 0.0000000e+00 
2.5000000e+00 0.0000000e+00 0.0000000e+00 
2.5999999e+00 0.0000000e+00 0.0000000e+00 
2.7000000e+00 0.0000000e+00 0.0000000e+00 
2.8000000e+00 0.0000000e+00 0.0000000e+00 
2.9000001e+00 0.0000000e+00 0.0000000e+00 
3.0000000e+00 0.0000000e+00 0.0000000e+00 
3.0999999e+00 0.0000000e+00 0.0000000e+00 
3.2000000e+00 0.0000000e+00 0.0000000e+00 
3.3000000e+00 0.0000000e+00 0.0000000e+00 
3.4000001e+00 0.0000000e+00 0.0000000e+00 
3.5000000e+00 0.0000000e+00 0.0000000e+00 
3.5999999e+00 0.0000000e+00 0.0000000e+00 
3.7000000e+00 0.0000000e+00 0.0000000e+00 
3.8000000e+00 0.0000000e+00 0.0000000e+00 
3.9000001e+00 0.0000000e+00 0.0000000e+00 
4.0000000e+00 0.0000000e+00 0.0000000e+00 
4.0999999e+00 0.0000000e+00 0.0000000e+00 
4.1999998e+00 0.0000000e+00 0.0000000e+00 
4.3000002e+00 0.0000000e+00 0.0000000e+00 
4.4000001e+00 0.0000000e+00 0.0000000e+00 
4.5000000e+00 0.0000000e+00 0.0000000e+00 
4.5999999e+00 0.0000000e+00 0.0000000e+00 
4.6999998e+00 0.0000000e+00 0.0000000e+00 
4.8000002e+00 0.0000000e+00 0.0000000e+00 
4.9000001e+00 0.0000000e+00 0.0000000e+00 
5.0000000e+00 1.0000000e-01 0.0000000e+00 
5.0000000e+00 2.0000000e-01 0.0000000e+00 
5.0000000e+00 3.0000001e-01 0.0000000e+00 
5.0000000e+00 4.0000001e-01 0.0000000e+00 
5.0000000e+00 5.0000000e-01 0.0000000e+00 
5.0000000e+00 6.0000002e-01 0.0000000e+00 
5.0000000e+00 6.9999999e-01 0.0000000e+00 
5.0000000e+00 8.0000001e-01 0.0000000e+00 
5.0000000e+00 8.9999998e-01 0.0000000e+00 
4.9000001e+00 1.0000000e+00 0.0000000e+00 
4.8000002e+00 1.0000000e+00 0.0000000e+00 
4.6999998e+00 1.0000000e+00 0.0000000e+00 
4.5999999e+00 1.0000000e+00 0.0000000e+00 
4.5000000e+00 1.0000000e+00 0.0000000e+00 
4.4000001e+00 1.0000000e+00 0.0000000e+00 
4.3000002e+00 1.0000000e+00 0.0000000e+00 
4.1999998e+00 1.0000000e+00 0.0000000e+00 
4.0999999e+00 1.0000000e+00 0.0000000e+00 
4.0000000e+00 1.0000000e+00 0.0000000e+00 
3.9000001e+00 1.0000000e+00 0.0000000e+00 
3.8000000e+00 1.0000000e+00 0.0000000e+00 
3.7000000e+00 1.0000000e+00 0.0000000e+00 
3.5999999e+00 1.0000000e+00 0.0000000e+00 
3.5000000e+00 1.0000000e+00 0.0000000e+00 
3.4000001e+00 1.0000000e+00 0.0000000e+00 
3.3000000e+00 1.0000000e+00 0.0000000e+00 
3.2000000e+00 1.0000000e+00 0.0000000e+00 
3.0999999e+00 1.0000000e+00 0.0000000e+00 
3.0000000e+00 1.0000000e+00 0.0000000e+00 
2.9000001e+00 1.0000000e+00 0.0000000e+00 
2.8000000e+00 1.0000000e+00 0.0000000e+00 
2.7000000e+00 1.0000000e+00 0.0000000e+00 
2.5999999e+00 1.0000000e+00 0.0000000e+00 
2.5000000e+00 1.0000000e+00 0.0000000e+00 
2.4000001e+00 1.0000000e+00 0.0000000e+00 
2.3000000e+00 1.0000000e+00 0.0000000e+00 
2.2000000e+00 1.0000000e+00 0.0000000e+00 
2.0999999e+00 1.0000000e+00 0.0000000e+00 
2.0000000e+00 1.0000000e+00 0.0000000e+00 
1.9000000e+00 1.0000000e+00 0.0000000e+00 
1.8000000e+00 1.0000000e+00 0.0000000e+00 
1.7000000e+00 1.0000000e+00 0.0000000e+00 
1.6000000e+00 1.0000000e+00 0.0000000e+00 
1.5000000e+00 1.0000000e+00 0.0000000e+00 
1.4000000e+00 1.0000000e+00 0.0000000e+00 
1.3000000e+00 1.0000000e+00 0.0000000e+00 
1.2000000e+00 1.0000000e+00 0.0000000e+00 
1.1000000e+00 1.0000000e+00 0.0000000e+00 
1.0000000e+00 1.0000000e+00 0.0000000e+00 
8.9999998e-01 1.0000000e+00 0.0000000e+00 
8.0000001e-01 1.0000000e+00 0.0000000e+00 
6.9999999e-01 1.0000000e+00 0.0000000e+00 
6.0000002e-01 1.0000000e+00 0.0000000e+00 
5.0000000e-01 1.0000000e+00 0.0000000e+00 
4.0000001e-01 1.0000000e+00 0.0000000e+00 
3.0000001e-01 1.0000000e+00 0.0000000e+00 
2.0000000e-01 1.0000000e+00 0.0000000e+00 
1.0000000e-01 1.0000000e+00 0.0000000e+00 
0.0000000e+00 8.9999998e-01 0.0000000e+00 
0.0000000e+00 8.0000001e-01 0.0000000e+00 
0.0000000e+00 6.9999999e-01 0.0000000e+00 
0.0000000e+00 6.0000002e-01 0.0000000e+00 
0.0000000e+00 5.0000000e-01 0.0000000e+00 
0.0000000e+00 4.0000001e-01 0.0000000e+00 
0.0000000e+00 3.0000001e-01 0.0000000e+00 
0.0000000e+00 2.0000000e-01 0.0000000e+00 
0.0000000e+00 1.0000000e-01 0.0000000e+00 
4.3499999e+00 8.6602539e-02 0.0000000e+00 
2.2500000e+00 9.1339743e-01 0.0000000e+00 
4.0500002e+00 9.1339743e-01 0.0000000e+00 
2.7500000e+00 8.3308272e-02 0.0000000e+00 
3.2500000e+00 8.6602539e-02 0.0000000e+00 
3.7500000e+00 8.6602539e-02 0.0000000e+00 
1.2500000e+00 9.1339743e-01 0.0000000e+00 
1.7500000e+00 9.1339743e-01 0.0000000e+00 
9.4999999e-01 9.1339743e-01 0.0000000e+00 
5.5000001e-01 9.1339743e-01 0.0000000e+00 
7.5000000e-01 8.3308272e-02 0.0000000e+00 
1.4524696e+00 8.1907488e-02 0.0000000e+00 
1.9500000e+00 8.6602539e-02 0.0000000e+00 
3.4500000e+00 9.1339743e-01 0.0000000e+00 
2.9500000e+00 9.1339743e-01 0.0000000e+00 
2.4500000e+00 8.6602539e-02 0.0000000e+00 
4.4499998e+00 9.1339743e-01 0.0000000e+00 
2.6500001e+00 9.1339743e-01 0.0000000e+00 
1.1500000e+00 8.6602539e-02 0.0000000e+00 
4.0517640e+00 7.8262508e-02 0.0000000e+00 
3.7500000e+00 9.1339743e-01 0.0000000e+00 
9.5000088e-02 4.6391028e-01 0.0000000e+00 
4.9059730e+00 4.6363035e-01 0.0000000e+00 
4.5246965e-01 8.1907488e-02 0.0000000e+00 
4.6500001e+00 8.6602539e-02 0.0000000e+00 
4.6500001e+00 9.1339743e-01 0.0000000e+00 
7.5000000e-01 9.1339743e-01 0.0000000e+00 
4.9111457e+00 6.5092021e-01 0.0000000e+00 
2.2500000e+00 8.6602539e-02 0.0000000e+00 
3.2500000e+00 9.1339743e-01 0.0000000e+00 
9.4999999e-01 8.6602539e-02 0.0000000e+00 
2.9500000e+00 8.6602539e-02 0.0000000e+00 
3.4500000e+00 8.6602539e-02 0.0000000e+00 
2.4500000e+00 9.1339743e-01 0.0000000e+00 
1.9500000e+00 9.1339743e-01 0.0000000e+00 
1.5500000e+00 9.1339743e-01 0.0000000e+00 
1.6500000e+00 8.6602539e-02 0.0000000e+00 
3.4999999e-01 9.1339743e-01 0.0000000e+00 
9.0659410e-02 6.5153849e-01 0.0000000e+00 
4.2500000e+00 9.1339743e-01 0.0000000e+00 
2.5402120e-01 7.9592258e-02 0.0000000e+00 
4.9112749e+00 2.5204152e-01 0.0000000e+00 
8.6602539e-02 2.5000000e-01 0.0000000e+00 
4.9094305e+00 8.4081745e-01 0.0000000e+00 
9.0569727e-02 8.4081745e-01 0.0000000e+00 
4.8445559e+00 9.5495284e-02 0.0000000e+00 
3.9500000e+00 9.1339743e-01 0.0000000e+00 
4.0000000e+00 8.2679492e-01 0.0000000e+00 
4.0999999e+00 8.2679492e-01 0.0000000e+00 
4.0500002e+00 7.4019235e-01 0.0000000e+00 
4.1500001e+00 7.4019235e-01 0.0000000e+00 
4.0999999e+00 6.5358984e-01 0.0000000e+00 
4.1999998e+00 6.5358984e-01 0.0000000e+00 
4.0000000e+00 6.5358984e-01 0.0000000e+00 
4.1500001e+00 5.6698728e-01 0.0000000e+00 
4.2500000e+00 5.6698728e-01 0.0000000e+00 
4.1999998e+00 4.8038477e-01 0.0000000e+00 
4.3000002e+00 4.8038477e-01 0.0000000e+00 
4.3499999e+00 5.6698728e-01 0.0000000e+00 
4.4000001e+00 4.8038477e-01 0.0000000e+00 
4.4499998e+00 5.6698728e-01 0.0000000e+00 
4.5000000e+00 4.8038477e-01 0.0000000e+00 
4.0999999e+00 4.8038477e-01 0.0000000e+00 
4.5500002e+00 5.6698728e-01 0.0000000e+00 
4.2500000e+00 3.9378223e-01 0.0000000e+00 
4.4499998e+00 3.9378223e-01 0.0000000e+00 
4.5500002e+00 3.9378223e-01 0.0000000e+00 
4.5024695e+00 3.0860552e-01 0.0000000e+00 
4.5000000e+00 6.5358984e-01 0.0000000e+00 
4.5999999e+00 6.5358984e-01 0.0000000e+00 
4.6500001e+00 5.6698728e-01 0.0000000e+00 
4.6004114e+00 3.0741730e-01 0.0000000e+00 
4.6999998e+00 6.5358984e-01 0.0000000e+00 
4.5500002e+00 7.4019235e-01 0.0000000e+00 
4.4499998e+00 7.4019235e-01 0.0000000e+00 
4.4028811e+00 3.1213742e-01 0.0000000e+00 
3.9000001e+00 8.2679492e-01 0.0000000e+00 
4.2500000e+00 7.4019235e-01 0.0000000e+00 
4.6500688e+00 3.9382184e-01 0.0000000e+00 
4.7000799e+00 3.0722588e-01 0.0000000e+00 
4.7507491e+00 5.6669539e-01 0.0000000e+00 
4.5510750e+00 2.2357146e-01 0.0000000e+00 
4.7483096e+00 3.9479813e-01 0.0000000e+00 
4.8143229e+00 3.0351433e-01 0.0000000e+00 
4.7489839e+00 2.2150035e-01 0.0000000e+00 
4.8026423e+00 6.5280432e-01 0.0000000e+00 
4.7504406e+00 7.4006146e-01 0.0000000e+00 
4.8507943e+00 7.4260241e-01 0.0000000e+00 
4.8009601e+00 8.2998371e-01 0.0000000e+00 
4.8518200e+00 5.6202388e-01 0.0000000e+00 
4.8002234e+00 4.7973469e-01 0.0000000e+00 
4.7002335e+00 8.2730454e-01 0.0000000e+00 
4.6500239e+00 2.2246142e-01 0.0000000e+00 
4.5000000e+00 8.2679492e-01 0.0000000e+00 
4.4000001e+00 8.2679492e-01 0.0000000e+00 
4.6000390e+00 8.2687986e-01 0.0000000e+00 
4.6501188e+00 7.4026966e-01 0.0000000e+00 
4.1999998e+00 8.2679492e-01 0.0000000e+00 
4.1500001e+00 9.1339743e-01 0.0000000e+00 
4.1500001e+00 3.9378223e-01 0.0000000e+00 
4.0500002e+00 3.9378223e-01 0.0000000e+00 
4.1999998e+00 3.0717969e-01 0.0000000e+00 
4.0000000e+00 4.8038477e-01 0.0000000e+00 
3.9500000e+00 3.9378223e-01 0.0000000e+00 
3.9000001e+00 4.8038477e-01 0.0000000e+00 
3.8499999e+00 3.9378223e-01 0.0000000e+00 
3.8000000e+00 4.8038477e-01 0.0000000e+00 
3.7500000e+00 3.9378223e-01 0.0000000e+00 
3.7000000e+00 4.8038477e-01 0.0000000e+00 
3.6500001e+00 3.9378223e-01 0.0000000e+00 
[...]
POINT_DATA 663
FIELD FieldData 1
DISPLACEMENT 3 663  float
0.0000000e+00 0.0000000e+00 0.0000000e+00 
0.0000000e+00 0.0000000e+00 0.0000000e+00 
0.0000000e+00 -2.6687888e-12 0.0000000e+00 
0.0000000e+00 -1.3954237e-08 0.0000000e+00 
0.0000000e+00 0.0000000e+00 0.0000000e+00 
0.0000000e+00 0.0000000e+00 0.0000000e+00 
0.0000000e+00 0.0000000e+00 0.0000000e+00 
0.0000000e+00 0.0000000e+00 0.0000000e+00 
0.0000000e+00 0.0000000e+00 0.0000000e+00 
0.0000000e+00 0.0000000e+00 0.0000000e+00 
0.0000000e+00 0.0000000e+00 0.0000000e+00 
0.0000000e+00 0.0000000e+00 0.0000000e+00 
0.0000000e+00 0.0000000e+00 0.0000000e+00 
0.0000000e+00 0.0000000e+00 0.0000000e+00 
0.0000000e+00 0.0000000e+00 0.0000000e+00 
0.0000000e+00 0.0000000e+00 0.0000000e+00 
0.0000000e+00 0.0000000e+00 0.0000000e+00 
0.0000000e+00 0.0000000e+00 0.0000000e+00 
0.0000000e+00 0.0000000e+00 0.0000000e+00 
0.0000000e+00 0.0000000e+00 0.0000000e+00 
0.0000000e+00 0.0000000e+00 0.0000000e+00 
0.0000000e+00 0.0000000e+00 0.0000000e+00 
0.0000000e+00 0.0000000e+00 0.0000000e+00 
0.0000000e+00 0.0000000e+00 0.0000000e+00 
0.0000000e+00 0.0000000e+00 0.0000000e+00 
0.0000000e+00 0.0000000e+00 0.0000000e+00 
0.0000000e+00 0.0000000e+00 0.0000000e+00 
0.0000000e+00 0.0000000e+00 0.0000000e+00 
0.0000000e+00 0.0000000e+00 0.0000000e+00 
0.0000000e+00 0.0000000e+00 0.0000000e+00 
0.0000000e+00 0.0000000e+00 0.0000000e+00 
0.0000000e+00 0.0000000e+00 0.0000000e+00 
0.0000000e+00 0.0000000e+00 0.0000000e+00 
0.0000000e+00 0.0000000e+00 0.0000000e+00 
0.0000000e+00 0.0000000e+00 0.0000000e+00 
0.0000000e+00 0.0000000e+00 0.0000000e+00 
0.0000000e+00 0.0000000e+00 0.0000000e+00 
0.0000000e+00 0.0000000e+00 0.0000000e+00 
0.0000000e+00 0.0000000e+00 0.0000000e+00 
0.0000000e+00 0.0000000e+00 0.0000000e+00 
0.0000000e+00 0.0000000e+00 0.0000000e+00 
0.0000000e+00 0.0000000e+00 0.0000000e+00 
0.0000000e+00 0.0000000e+00 0.0000000e+00 
0.0000000e+00 0.0000000e+00 0.0000000e+00 
0.0000000e+00 0.0000000e+00 0.0000000e+00 
0.0000000e+00 0.0000000e+00 0.0000000e+00 
0.0000000e+00 0.0000000e+00 0.0000000e+00 
0.0000000e+00 0.0000000e+00 0.0000000e+00 
0.0000000e+00 0.0000000e+00 0.0000000e+00 
0.0000000e+00 0.0000000e+00 0.0000000e+00 
0.0000000e+00 0.0000000e+00 0.0000000e+00 
0.0000000e+00 0.0000000e+00 0.0000000e+00 
0.0000000e+00 0.0000000e+00 0.0000000e+00 
0.0000000e+00 -8.9436791e-12 0.0000000e+00 
0.0000000e+00 -1.6429195e-11 0.0000000e+00 
0.0000000e+00 -2.1979446e-11 0.0000000e+00 
0.0000000e+00 -2.5481410e-11 0.0000000e+00 
0.0000000e+00 -2.6552866e-11 0.0000000e+00 
0.0000000e+00 -2.5632290e-11 0.0000000e+00 
0.0000000e+00 -2.2489535e-11 0.0000000e+00 
0.0000000e+00 -1.7344910e-11 0.0000000e+00 
0.0000000e+00 -1.0556674e-11 0.0000000e+00 
3.3334991e-11 -2.0454539e-12 0.0000000e+00 
6.7333979e-11 -2.5645943e-13 0.0000000e+00 
1.0252695e-10 3.3489060e-12 0.0000000e+00 
1.3954954e-10 9.0422843e-12 0.0000000e+00 
1.7900464e-10 1.7493850e-11 0.0000000e+00 
2.2141208e-10 2.9646560e-11 0.0000000e+00 
2.6720512e-10 4.6706996e-11 0.0000000e+00 
3.1666644e-10 7.0194676e-11 0.0000000e+00 
3.6983808e-10 1.0197338e-10 0.0000000e+00 
4.2639406e-10 1.4427121e-10 0.0000000e+00 
4.8546644e-10 1.9967718e-10 0.0000000e+00 
5.4541172e-10 2.7109903e-10 0.0000000e+00 
6.0350314e-10 3.6165976e-10 0.0000000e+00 
6.5553368e-10 4.7450177e-10 0.0000000e+00 
6.9531425e-10 6.1245953e-10 0.0000000e+00 
7.1404999e-10 7.7755080e-10 0.0000000e+00 
6.9957468e-10 9.7021435e-10 0.0000000e+00 
6.3543021e-10 1.1881952e-09 0.0000000e+00 
4.9979787e-10 1.4249618e-09 0.0000000e+00 
2.6430577e-10 1.6675322e-09 0.0000000e+00 
-1.0725711e-10 1.8935573e-09 0.0000000e+00 
-6.6026928e-10 2.0674675e-09 0.0000000e+00 
-1.4505501e-09 2.1354427e-09 0.0000000e+00 
-2.5454143e-09 2.0189366e-09 0.0000000e+00 
-4.0242498e-09 1.6064943e-09 0.0000000e+00 
-5.9783360e-09 7.4362894e-10 0.0000000e+00 
-8.5096650e-09 -7.7965828e-10 0.0000000e+00 
-1.1728515e-08 -3.2444227e-09 0.0000000e+00 
-1.5749428e-08 -7.0225910e-09 0.0000000e+00 
-2.0685180e-08 -1.2603003e-08 0.0000000e+00 
-2.6638521e-08 -2.0627688e-08 0.0000000e+00 
-3.3691634e-08 -3.1947078e-08 0.0000000e+00 
-4.1892324e-08 -4.7713524e-08 0.0000000e+00 
-5.1230725e-08 -6.9558240e-08 0.0000000e+00 
-6.1577232e-08 -9.9963465e-08 0.0000000e+00 
-7.2454597e-08 -1.4313474e-07 0.0000000e+00 
-8.2089763e-08 -2.0734167e-07 0.0000000e+00 
-8.3162064e-08 -3.1298066e-07 0.0000000e+00 
-3.9788176e-08 -5.5668869e-07 0.0000000e+00 
4.0749068e-08 -5.5645359e-07 0.0000000e+00 
8.3950653e-08 -3.1228825e-07 0.0000000e+00 
8.2519449e-08 -2.0623365e-07 0.0000000e+00 
7.2310115e-08 -1.4169061e-07 0.0000000e+00 
6.0600442e-08 -9.8315887e-08 0.0000000e+00 
4.9106742e-08 -6.7916005e-08 0.0000000e+00 
3.8237356e-08 -4.6392358e-08 0.0000000e+00 
2.8044781e-08 -3.1403552e-08 0.0000000e+00 
1.8407331e-08 -2.1526770e-08 0.0000000e+00 
9.1299581e-09 -1.6029174e-08 0.0000000e+00 
0.0000000e+00 -1.2457929e-08 0.0000000e+00 
0.0000000e+00 -1.1776774e-08 0.0000000e+00 
0.0000000e+00 -1.1794445e-08 0.0000000e+00 
0.0000000e+00 -1.2140682e-08 0.0000000e+00 
0.0000000e+00 -1.2385518e-08 0.0000000e+00 
0.0000000e+00 -1.2065616e-08 0.0000000e+00 
0.0000000e+00 -1.0911582e-08 0.0000000e+00 
0.0000000e+00 -8.6525080e-09 0.0000000e+00 
0.0000000e+00 -5.0098485e-09 0.0000000e+00 
1.3177898e-11 -2.6646602e-12 0.0000000e+00 
-7.2714532e-09 -1.3101998e-09 0.0000000e+00 
3.5865064e-10 1.1028476e-10 0.0000000e+00 
1.0006241e-09 1.9630454e-11 0.0000000e+00 
2.0130840e-10 8.8596762e-11 0.0000000e+00 
3.9285613e-11 2.8618642e-11 0.0000000e+00 
-1.3633066e-08 -2.5016524e-07 0.0000000e+00 
-2.3062810e-08 -3.7889663e-08 0.0000000e+00 
-1.0333318e-08 -3.8201827e-07 0.0000000e+00 
2.8170179e-08 -8.0195676e-08 0.0000000e+00 
-7.8695983e-09 -1.6895397e-08 0.0000000e+00 
9.8448805e-09 -1.4065012e-08 0.0000000e+00 
7.3152222e-09 -3.9196735e-09 0.0000000e+00 
5.8779781e-10 6.8691386e-10 0.0000000e+00 
3.5263778e-11 1.8501578e-09 0.0000000e+00 
2.4166036e-09 -4.2353615e-10 0.0000000e+00 
1.8663467e-10 1.4369125e-11 0.0000000e+00 
-1.5667048e-09 2.3008604e-09 0.0000000e+00 
3.7070960e-09 -2.1259616e-08 0.0000000e+00 
1.8211682e-11 6.7644263e-12 0.0000000e+00 
4.9984317e-10 3.0205899e-10 0.0000000e+00 
-5.0918190e-09 -1.3536482e-08 0.0000000e+00 
1.4255021e-11 -2.6263630e-11 0.0000000e+00 
-8.2175582e-09 -9.3889909e-09 0.0000000e+00 
7.4823325e-12 -6.8158040e-12 0.0000000e+00 
1.1404719e-10 -1.7417305e-12 0.0000000e+00 
2.6191668e-08 -1.6916533e-07 0.0000000e+00 
2.0301316e-11 -2.4193729e-11 0.0000000e+00 
3.9562793e-09 -1.2065885e-09 0.0000000e+00 
5.3695098e-10 1.0866910e-09 0.0000000e+00 
-3.1221743e-09 -2.1247297e-08 0.0000000e+00 
5.5828681e-10 9.4561879e-11 0.0000000e+00 
1.0035081e-10 6.2918760e-11 0.0000000e+00 
-3.7494519e-09 1.5886080e-09 0.0000000e+00 
-1.5704300e-08 -1.5258909e-08 0.0000000e+00 
-2.9380473e-08 -8.2078969e-08 0.0000000e+00 
1.0469101e-08 -9.6056612e-09 0.0000000e+00 
1.9566894e-08 -3.6530324e-08 0.0000000e+00 
-2.5018068e-09 -1.3205760e-08 0.0000000e+00 
2.6804686e-10 4.7525602e-11 0.0000000e+00 
-4.9928124e-09 -5.7916720e-09 0.0000000e+00 
6.4483041e-12 -1.9437533e-11 0.0000000e+00 
-4.1861719e-09 -1.0540263e-08 0.0000000e+00 
2.6978237e-11 -1.4530307e-11 0.0000000e+00 
2.7164098e-09 -1.3169600e-08 0.0000000e+00 
3.7854355e-12 -8.5435617e-12 0.0000000e+00 
4.0632231e-10 1.5830355e-10 0.0000000e+00 
3.3747949e-10 1.2221710e-10 0.0000000e+00 
2.9802760e-10 8.1189604e-11 0.0000000e+00 
2.7674610e-10 9.0519293e-11 0.0000000e+00 
2.4367783e-10 5.6272643e-11 0.0000000e+00 
2.2266698e-10 6.3076495e-11 0.0000000e+00 
1.9503216e-10 3.5340744e-11 0.0000000e+00 
2.5143021e-10 1.0064838e-10 0.0000000e+00 
1.7449120e-10 4.0099393e-11 0.0000000e+00 
1.5183216e-10 1.8434644e-11 0.0000000e+00 
1.3200113e-10 2.1842802e-11 0.0000000e+00 
1.1405266e-10 5.6240854e-12 0.0000000e+00 
1.3015426e-10 2.8842534e-12 0.0000000e+00 
9.6927209e-11 -5.9479834e-12 0.0000000e+00 
1.0918579e-10 -8.0505307e-12 0.0000000e+00 
8.0336779e-11 -1.4008564e-11 0.0000000e+00 
1.5129878e-10 4.4154631e-11 0.0000000e+00 
8.8743152e-11 -1.5547284e-11 0.0000000e+00 
9.5293606e-11 8.4274775e-12 0.0000000e+00 
6.8781647e-11 -1.1347676e-11 0.0000000e+00 
5.6166263e-11 -1.7014537e-11 0.0000000e+00 
4.5752579e-11 -1.3661635e-11 0.0000000e+00 
1.1765264e-10 -8.9073471e-12 0.0000000e+00 
9.3321205e-11 -1.5595665e-11 0.0000000e+00 
6.8690442e-11 -2.0533457e-11 0.0000000e+00 
3.6677366e-11 -1.7288700e-11 0.0000000e+00 
6.9520112e-11 -1.9948229e-11 0.0000000e+00 
1.2159293e-10 -8.1667867e-12 0.0000000e+00 
1.5053025e-10 5.3243624e-13 0.0000000e+00 
5.5763876e-11 -8.2486483e-12 0.0000000e+00 
3.7713260e-10 1.7663292e-10 0.0000000e+00 
2.1155176e-10 3.1202547e-11 0.0000000e+00 
4.3665346e-11 -2.0823281e-11 0.0000000e+00 
2.7606957e-11 -1.9751045e-11 0.0000000e+00 
4.8729770e-11 -2.3725239e-11 0.0000000e+00 
2.7967038e-11 -1.2891522e-11 0.0000000e+00 
3.1492239e-11 -2.3329583e-11 0.0000000e+00 
1.6806860e-11 -2.1377438e-11 0.0000000e+00 
1.5660808e-11 -1.6620613e-11 0.0000000e+00 
4.5436981e-11 -2.2687066e-11 0.0000000e+00 
6.6143681e-11 -1.7676173e-11 0.0000000e+00 
3.9480468e-11 -1.9762032e-11 0.0000000e+00 
5.8810130e-11 -1.3537523e-11 0.0000000e+00 
2.8584189e-11 -2.5678659e-11 0.0000000e+00 
3.1919408e-11 -2.5239812e-11 0.0000000e+00 
8.9162434e-11 -1.0643209e-11 0.0000000e+00 
2.1816977e-11 -1.5131110e-11 0.0000000e+00 
1.5296635e-10 1.8021577e-12 0.0000000e+00 
1.8691911e-10 1.2848398e-11 0.0000000e+00 
1.2045777e-10 -5.7187393e-12 0.0000000e+00 
9.3541695e-11 -1.3963731e-11 0.0000000e+00 
2.5953972e-10 5.0784581e-11 0.0000000e+00 
3.1232095e-10 7.4195775e-11 0.0000000e+00 
1.0989760e-10 2.4388797e-11 0.0000000e+00 
1.2639000e-10 4.6030870e-11 0.0000000e+00 
7.4659355e-11 1.0419735e-11 0.0000000e+00 
1.7270291e-10 7.4244756e-11 0.0000000e+00 
1.4590357e-10 7.4786149e-11 0.0000000e+00 
1.9732239e-10 1.1405813e-10 0.0000000e+00 
1.7007538e-10 1.1226210e-10 0.0000000e+00 
2.2675833e-10 1.6578801e-10 0.0000000e+00 
2.0125235e-10 1.6022447e-10 0.0000000e+00 
2.6327121e-10 2.3178920e-10 0.0000000e+00 
2.4271340e-10 2.2044118e-10 0.0000000e+00 
3.1000474e-10 3.1441677e-10 0.0000000e+00 
2.9887504e-10 2.9456812e-10 0.0000000e+00 
3.7125142e-10 4.1572687e-10 0.0000000e+00 
3.7575898e-10 3.8346684e-10 0.0000000e+00 
4.5295309e-10 5.3725147e-10 0.0000000e+00 
4.7934529e-10 4.8721210e-10 0.0000000e+00 
5.6197047e-10 6.7892630e-10 0.0000000e+00 
6.2363403e-10 6.1130645e-10 0.0000000e+00 
7.0875772e-10 8.3941432e-10 0.0000000e+00 
8.2425838e-10 7.4247897e-10 0.0000000e+00 
9.0684160e-10 1.0125945e-09 0.0000000e+00 
1.0921405e-09 8.6505508e-10 0.0000000e+00 
1.1736312e-09 1.1868171e-09 0.0000000e+00 
1.4505827e-09 9.8361930e-10 0.0000000e+00 
1.5280224e-09 1.3461702e-09 0.0000000e+00 
1.9258306e-09 1.0721775e-09 0.0000000e+00 
1.9953832e-09 1.4609951e-09 0.0000000e+00 
2.5493003e-09 1.0962734e-09 0.0000000e+00 
2.6066420e-09 1.4865960e-09 0.0000000e+00 
3.3569827e-09 1.0071977e-09 0.0000000e+00 
3.3988854e-09 1.3608173e-09 0.0000000e+00 
4.3893138e-09 7.4544187e-10 0.0000000e+00 
4.4128758e-09 9.9420960e-10 0.0000000e+00 
5.6922360e-09 2.1211866e-10 0.0000000e+00 
5.6967573e-09 2.6353100e-10 0.0000000e+00 
7.2597848e-09 -6.7417488e-10 0.0000000e+00 
7.2884658e-09 -9.9819175e-10 0.0000000e+00 
9.1910213e-09 -2.1319075e-09 0.0000000e+00 
9.2505150e-09 -3.0413776e-09 0.0000000e+00 
1.1610584e-08 -4.4676383e-09 0.0000000e+00 
1.1633676e-08 -6.1611134e-09 0.0000000e+00 
1.4417400e-08 -7.8350615e-09 0.0000000e+00 
1.4477145e-08 -1.0719479e-08 0.0000000e+00 
1.7547299e-08 -1.2573784e-08 0.0000000e+00 
1.7742691e-08 -1.7190029e-08 0.0000000e+00 
2.0938183e-08 -1.9129356e-08 0.0000000e+00 
2.1367779e-08 -2.6137990e-08 0.0000000e+00 
2.4396549e-08 -2.7923740e-08 0.0000000e+00 
2.5165429e-08 -3.8161517e-08 0.0000000e+00 
2.7563077e-08 -3.9314319e-08 0.0000000e+00 
2.8735698e-08 -5.3773633e-08 0.0000000e+00 
2.9772304e-08 -5.3347005e-08 0.0000000e+00 
3.1330369e-08 -7.3123758e-08 0.0000000e+00 
3.0223511e-08 -6.9627319e-08 0.0000000e+00 
3.1761704e-08 -9.5503665e-08 0.0000000e+00 
2.7827792e-08 -8.6680004e-08 0.0000000e+00 
2.8434965e-08 -1.1843903e-07 0.0000000e+00 
2.1831173e-08 -1.0205024e-07 0.0000000e+00 
2.0242949e-08 -1.3768873e-07 0.0000000e+00 
1.2364535e-08 -1.1280834e-07 0.0000000e+00 
7.8013258e-09 -1.4868365e-07 0.0000000e+00 
7.7247808e-10 -1.1660481e-07 0.0000000e+00 
-6.3017427e-09 -1.4851058e-07 0.0000000e+00 
-1.0746023e-08 -1.1255013e-07 0.0000000e+00 
-1.8625485e-08 -1.3718301e-07 0.0000000e+00 
-1.9985947e-08 -1.0156614e-07 0.0000000e+00 
-2.6574371e-08 -1.1763717e-07 0.0000000e+00 
-2.5638364e-08 -8.5989399e-08 0.0000000e+00 
-2.9523669e-08 -9.4456844e-08 0.0000000e+00 
-2.7489948e-08 -6.8818345e-08 0.0000000e+00 
-2.8551296e-08 -7.1950993e-08 0.0000000e+00 
-2.6302224e-08 -5.2562736e-08 0.0000000e+00 
-2.5215002e-08 -5.2635819e-08 0.0000000e+00 
-2.3076138e-08 -3.8713651e-08 0.0000000e+00 
3.2420003e-10 3.1471017e-10 0.0000000e+00 
5.0106574e-10 7.0689254e-10 0.0000000e+00 
8.8302010e-10 1.3040719e-09 0.0000000e+00 
1.7650928e-09 1.8380137e-09 0.0000000e+00 
2.9087619e-09 1.6514091e-09 0.0000000e+00 
4.8182467e-09 1.4568591e-10 0.0000000e+00 
1.0034872e-08 -8.3349851e-09 0.0000000e+00 
1.5820786e-08 -2.2739867e-08 0.0000000e+00 
2.3630774e-08 -5.0230476e-08 0.0000000e+00 
3.1997953e-08 -1.2706671e-07 0.0000000e+00 
6.5286487e-10 -1.8838080e-07 0.0000000e+00 
-2.6243118e-08 -1.5645730e-07 0.0000000e+00 
-2.9165065e-08 -9.5436256e-08 0.0000000e+00 
-2.0681497e-08 -3.7337148e-08 0.0000000e+00 
-2.0604402e-08 -4.8807387e-08 0.0000000e+00 
-1.8672052e-08 -2.7832698e-08 0.0000000e+00 
-2.4144908e-08 -4.7855085e-08 0.0000000e+00 
2.1535119e-08 -7.1972622e-08 0.0000000e+00 
2.1663780e-08 -1.9329452e-08 0.0000000e+00 
1.2849731e-08 -5.5115570e-09 0.0000000e+00 
3.8240033e-09 4.6976706e-10 0.0000000e+00 
9.0008145e-10 5.9703537e-10 0.0000000e+00 
2.1840410e-10 1.9256721e-10 0.0000000e+00 
1.1800147e-10 6.9653727e-11 0.0000000e+00 
-1.5693690e-08 -3.3464378e-08 0.0000000e+00 
-1.2866295e-08 -4.2482405e-08 0.0000000e+00 
-1.9449741e-08 -2.7300123e-08 0.0000000e+00 
-1.3013335e-08 -8.0815383e-08 0.0000000e+00 
5.6009970e-09 -8.6080789e-08 0.0000000e+00 
2.6519507e-08 -3.6996497e-08 0.0000000e+00 
6.4459691e-09 -5.5119254e-10 0.0000000e+00 
1.6293346e-09 7.1235146e-10 0.0000000e+00 
3.7146905e-10 3.2526210e-10 0.0000000e+00 
-8.9164782e-09 -2.8337643e-08 0.0000000e+00 
-1.5231841e-08 -2.0032955e-08 0.0000000e+00 
-1.7536360e-08 -6.2373687e-08 0.0000000e+00 
2.5321598e-10 1.6155217e-10 0.0000000e+00 
-5.9078591e-09 -5.3139576e-08 0.0000000e+00 
-1.0047042e-08 -7.8078592e-08 0.0000000e+00 
-1.0956748e-08 -2.2704585e-08 0.0000000e+00 
-1.4715065e-08 -1.7999392e-08 0.0000000e+00 
-1.3738321e-08 -2.0122879e-08 0.0000000e+00 
-1.8122057e-08 -2.4670786e-08 0.0000000e+00 
-1.1050640e-08 -1.3850888e-08 0.0000000e+00 
-5.5560445e-09 -1.8832248e-08 0.0000000e+00 
-1.6359272e-09 -2.3204617e-08 0.0000000e+00 
-5.6487076e-10 -1.5635106e-08 0.0000000e+00 
4.8728470e-09 -1.9078465e-08 0.0000000e+00 
-6.5765224e-09 -1.5937887e-08 0.0000000e+00 
-9.6640473e-09 -1.4308276e-08 0.0000000e+00 
-3.2331788e-09 -3.5362181e-08 0.0000000e+00 
8.6236324e-11 2.4961916e-11 0.0000000e+00 
5.3190313e-11 1.0603675e-11 0.0000000e+00 
4.7861718e-11 1.8900352e-12 0.0000000e+00 
6.3068509e-11 2.2840533e-11 0.0000000e+00 
3.0603926e-11 2.7733794e-12 0.0000000e+00 
-4.1434314e-09 -8.5994088e-08 0.0000000e+00 
5.8999766e-10 -5.9521035e-08 0.0000000e+00 
8.0587563e-09 -5.7939115e-08 0.0000000e+00 
-6.8266086e-09 -5.7838857e-08 0.0000000e+00 
-1.3140434e-08 -5.3803809e-08 0.0000000e+00 
1.4936620e-10 4.7628954e-12 0.0000000e+00 
9.4323100e-12 -5.8523859e-12 0.0000000e+00 
1.0853944e-11 -4.3532331e-12 0.0000000e+00 
2.4487967e-11 -6.1248090e-12 0.0000000e+00 
8.1881640e-11 -3.1809102e-12 0.0000000e+00 
8.0593747e-11 -5.8573558e-12 0.0000000e+00 
2.7707294e-08 -1.5726616e-07 0.0000000e+00 
3.0958830e-08 -1.6615002e-07 0.0000000e+00 
2.8891641e-08 -1.2525557e-07 0.0000000e+00 
2.5594916e-08 -2.0572176e-07 0.0000000e+00 
2.3491040e-08 -1.5933493e-07 0.0000000e+00 
1.6472967e-08 -1.1401800e-07 0.0000000e+00 
2.4154414e-08 -9.0925234e-08 0.0000000e+00 
1.0519830e-08 -8.0041318e-08 0.0000000e+00 
1.8574120e-09 -1.4039344e-07 0.0000000e+00 
2.8385383e-08 -2.1604342e-07 0.0000000e+00 
2.1626441e-08 -2.6816195e-07 0.0000000e+00 
1.0412092e-08 -2.3034859e-07 0.0000000e+00 
4.1784337e-10 -2.8921937e-07 0.0000000e+00 
1.4311763e-08 -3.5188478e-07 0.0000000e+00 
-9.3429708e-09 -2.3011131e-07 0.0000000e+00 
-2.0805405e-08 -2.6765710e-07 0.0000000e+00 
-2.4497863e-08 -2.0502074e-07 0.0000000e+00 
-2.7608216e-08 -2.1505555e-07 0.0000000e+00 
-2.9801942e-08 -1.6501951e-07 0.0000000e+00 
-2.2787015e-08 -1.5791360e-07 0.0000000e+00 
-2.7636595e-08 -1.2376194e-07 0.0000000e+00 
1.4230420e-10 7.6154527e-11 0.0000000e+00 
3.1828529e-10 1.8944457e-10 0.0000000e+00 
4.4864779e-10 2.2856010e-10 0.0000000e+00 
4.9232390e-10 3.3140862e-10 0.0000000e+00 
2.3219128e-10 1.5690965e-10 0.0000000e+00 
1.5834864e-10 1.1543214e-10 0.0000000e+00 
-3.0323406e-08 -1.2591205e-07 0.0000000e+00 
1.4075336e-08 -2.4919296e-07 0.0000000e+00 
2.9532623e-08 -1.1654911e-07 0.0000000e+00 
-1.5290830e-08 -1.7959893e-07 0.0000000e+00 
3.1159002e-09 -7.4481254e-10 0.0000000e+00 
6.0543868e-09 -1.4558965e-09 0.0000000e+00 
7.7224653e-09 -2.4921725e-09 0.0000000e+00 
8.4172909e-09 -2.1785846e-09 0.0000000e+00 
9.3640113e-12 -2.3765285e-11 0.0000000e+00 
2.2614106e-10 2.8161154e-11 0.0000000e+00 
-2.6647768e-08 -5.6356356e-08 0.0000000e+00 
-8.8185885e-09 -4.5782386e-08 0.0000000e+00 
-8.6739798e-09 -3.0149273e-08 0.0000000e+00 
3.3971508e-09 -3.6906766e-08 0.0000000e+00 
1.6462147e-09 -2.3852181e-08 0.0000000e+00 
4.2799236e-10 5.5168542e-10 0.0000000e+00 
4.6503060e-10 6.9501538e-10 0.0000000e+00 
5.1458743e-10 8.8238739e-10 0.0000000e+00 
4.2156606e-10 5.3650351e-10 0.0000000e+00 
4.8506371e-10 8.3714186e-10 0.0000000e+00 
4.9621984e-10 1.0517567e-09 0.0000000e+00 
5.7275851e-10 1.0975622e-09 0.0000000e+00 
4.9640808e-10 1.2948282e-09 0.0000000e+00 
-1.5870977e-08 -1.1225209e-07 0.0000000e+00 
1.6635253e-08 -1.8001502e-07 0.0000000e+00 
6.5839771e-11 -2.6593617e-13 0.0000000e+00 
2.5703306e-08 -6.0454390e-08 0.0000000e+00 
1.9162893e-08 -4.6651273e-08 0.0000000e+00 
2.2295067e-08 -4.0154660e-08 0.0000000e+00 
5.7980171e-10 8.7188473e-10 0.0000000e+00 
-5.3188272e-09 5.2595683e-10 0.0000000e+00 
-3.2971235e-09 -2.3601532e-11 0.0000000e+00 
-4.3503281e-09 -2.2966926e-09 0.0000000e+00 
-1.3646607e-10 -1.0136897e-09 0.0000000e+00 
-9.8040860e-11 -3.8439945e-09 0.0000000e+00 
-7.8408842e-11 7.3534073e-10 0.0000000e+00 
-5.5175247e-09 -5.8622187e-09 0.0000000e+00 
1.1930565e-10 -8.1854754e-09 0.0000000e+00 
3.7711692e-09 -2.4593811e-09 0.0000000e+00 
-2.3893745e-09 1.3330136e-09 0.0000000e+00 
-1.6347655e-09 2.0552307e-09 0.0000000e+00 
2.3254884e-11 1.7273766e-09 0.0000000e+00 
1.3631436e-10 2.2043170e-09 0.0000000e+00 
-1.0267270e-09 2.3520708e-09 0.0000000e+00 
2.4262864e-10 2.3436302e-09 0.0000000e+00 
-5.5092503e-10 2.3757767e-09 0.0000000e+00 
3.3282757e-10 2.2726712e-09 0.0000000e+00 
-1.8964606e-10 2.2348465e-09 0.0000000e+00 
4.0296727e-10 2.0808681e-09 0.0000000e+00 
7.5532199e-11 2.0047211e-09 0.0000000e+00 
4.5247320e-10 1.8294767e-09 0.0000000e+00 
8.4387602e-10 1.8298684e-09 0.0000000e+00 
2.6222341e-10 1.7362778e-09 0.0000000e+00 
4.8279591e-10 1.5589793e-09 0.0000000e+00 
2.8530869e-10 1.5879066e-09 0.0000000e+00 
-3.3334524e-10 2.0880571e-09 0.0000000e+00 
-2.5155316e-09 2.1205229e-09 0.0000000e+00 
2.8335959e-10 2.5628288e-10 0.0000000e+00 
2.2614770e-09 1.8458534e-09 0.0000000e+00 
1.0544165e-08 -1.1822717e-08 0.0000000e+00 
1.8514736e-08 -2.1199149e-08 0.0000000e+00 
1.6666108e-08 -1.5158333e-08 0.0000000e+00 
5.4060711e-10 4.0446063e-10 0.0000000e+00 
4.5162296e-10 3.3857900e-10 0.0000000e+00 
4.8212390e-10 4.5319939e-10 0.0000000e+00 
4.1028089e-10 3.7542824e-10 0.0000000e+00 
3.7804149e-10 2.7550481e-10 0.0000000e+00 