# vtk DataFile Version 4.0
vtk output
ASCII
DATASET UNSTRUCTURED_GRID
POINTS 663 float
0.0000000e+00 0.0000000e+00 0.0000000e+00 
5.0000000e+00 0.0000000e+00 0.0000000e+00 
5.0000000e+00 1.0000000e+00 0.0000000e+00 
0.0000000e+00 1.0000000e+00 0.0000000e+00 
1.0000000e-01 0.0000000e+00 0.0000000e+00 
2.0000000e-01 0.0000000e+00 0.0000000e+00 
3.0000001e-01 0.0000000e+00 0.0000000e+00 
4.0000001e-01 0.0000000e+00 0.0000000e+00 
5.0000000e-01 0.0000000e+00 0.0000000e+00 
6.0000002e-01 0.0000000e+00 0.0000000e+00 
6.9999999e-01 0.0000000e+00 0.0000000e+00 
8.0000001e-01 0.0000000e+00 0.0000000e+00 
8.9999998e-01 0.0000000e+00 0.0000000e+00 
1.0000000e+00 0.0000000e+00 0.0000000e+00 
1.1000000e+00 0.0000000e+00 0.0000000e+00 
1.2000000e+00 0.0000000e+00 0.0000000e+00 
1.3000000e+00 0.0000000e+00 0.0000000e+00 
1.4000000e+00 0.0000000e+00 0.0000000e+00 
1.5000000e+00 0.0000000e+00 0.0000000e+00 
1.6000000e+00 0.0000000e+00 0.0000000e+00 
1.7000000e+00 0.0000000e+00 0.0000000e+00 
1.8000000e+00 0.0000000e+00 0.0000000e+00 
1.9000000e+00 0.0000000e+00 0.0000000e+00 
2.0000000e+00 0.0000000e+00 0.0000000e+00 
2.0999999e+00 0.0000000e+00 0.0000000e+00 
2.2000000e+00 0.0000000e+00 0.0000000e+00 
2.3000000e+00 0.0000000e+00 0.0000000e+00 
2.4000001e+00 0.0000000e+00 0.0000000e+00 
2.5000000e+00 0.0000000e+00 0.0000000e+00 
2.5999999e+00 0.0000000e+00 0.0000000e+00 
2.7000000e+00 0.0000000e+00 0.0000000e+00 
2.8000000e+00 0.0000000e+00 0.0000000e+00 
2.9000001e+00 0.0000000e+00 0.0000000e+00 
3.0000000e+00 0.0000000e+00 0.0000000e+00 
3.0999999e+00 0.0000000e+00 0.0000000e+00 
3.2000000e+00 0.0000000e+00 0.0000000e+00 
3.3000000e+00 0.0000000e+00 0.0000000e+00 
3.4000001e+00 0.0000000e+00 0.0000000e+00 
3.5000000e+00 0.0000000e+00 0.0000000e+00 
3.5999999e+00 0.0000000e+00 0.0000000e+00 
3.7000000e+00 0.0000000e+00 0.0000000e+00 
3.8000000e+00 0.0000000e+00 0.0000000e+00 
3.9000001e+00 0.0000000e+00 0.0000000e+00 
4.0000000e+00 0.0000000e+00 0.0000000e+00 
4.0999999e+00 0.0000000e+00 0.0000000e+00 
4.1999998e+00 0.0000000e+00 0.0000000e+00 
4.3000002e+00 0.0000000e+00 0.0000000e+00 
4.4000001e+00 0.0000000e+00 0.0000000e+00 
4.5000000e+00 0.0000000e+00 0.0000000e+00 
4.5999999e+00 0.0000000e+00 0.0000000e+00 
4.6999998e+00 0.0000000e+00 0.0000000e+00 
4.8000002e+00 0.0000000e+00 0.0000000e+00 
4.9000001e+00 0.0000000e+00 0.0000000e+00 
5.0000000e+00 1.0000000e-01 0.0000000e+00 
5.0000000e+00 2.0000000e-01 0.0000000e+00 
5.0000000e+00 3.0000001e-01 0.0000000e+00 
5.0000000e+00 4.0000001e-01 0.0000000e+00 
5.0000000e+00 5.0000000e-01 0.0000000e+00 
5.0000000e+00 6.0000002e-01 0.0000000e+00 
5.0000000e+00 6.9999999e-01 0.0000000e+00 
5.0000000e+00 8.0000001e-01 0.0000000e+00 
5.0000000e+00 8.9999998e-01 0.0000000e+00 
4.9000001e+00 1.0000000e+00 0.0000000e+00 
4.8000002e+00 1.0000000e+00 0.0000000e+00 
4.6999998e+00 1.0000000e+00 0.0000000e+00 
4.5999999e+00 1.0000000e+00 0.0000000e+00 
4.5000000e+00 1.0000000e+00 0.0000000e+00 
4.4000001e+00 1.0000000e+00 0.0000000e+00 
4.3000002e+00 1.0000000e+00 0.0000000e+00 
4.1999998e+00 1.0000000e+00 0.0000000e+00 
4.0999999e+00 1.0000000e+00 0.0000000e+00 
4.0000000e+00 1.0000000e+00 0.0000000e+00 
3.9000001e+00 1.0000000e+00 0.0000000e+00 
3.8000000e+00 1.0000000e+00 0.0000000e+00 
3.7000000e+00 1.0000000e+00 0.0000000e+00 
3.5999999e+00 1.0000000e+00 0.0000000e+00 
3.5000000e+00 1.0000000e+00 0.0000000e+00 
3.4000001e+00 1.0000000e+00 0.0000000e+00 
3.3000000e+00 1.0000000e+00 0.0000000e+00 
3.2000000e+00 1.0000000e+00 0.0000000e+00 
3.0999999e+00 1.0000000e+00 0.0000000e+00 
3.0000000e+00 1.0000000e+00 0.0000000e+00 
2.9000001e+00 1.0000000e+00 0.0000000e+00 
2.8000000e+00 1.0000000e+00 0.0000000e+00 
2.7000000e+00 1.0000000e+00 0.0000000e+00 
2.5999999e+00 1.0000000e+00 0.0000000e+00 
2.5000000e+00 1.0000000e+00 0.0000000e+00 
2.4000001e+00 1.0000000e+00 0.0000000e+00 
2.3000000e+00 1.0000000e+00 0.0000000e+00 
2.2000000e+00 1.0000000e+00 0.0000000e+00 
2.0999999e+00 1.0000000e+00 0.0000000e+00 
2.0000000e+00 1.0000000e+00 0.0000000e+00 
1.9000000e+00 1.0000000e+00 0.0000000e+00 
1.8000000e+00 1.0000000e+00 0.0000000e+00 
1.7000000e+00 1.0000000e+00 0.0000000e+00 
1.6000000e+00 1.0000000e+00 0.0000000e+00 
1.5000000e+00 1.0000000e+00 0.0000000e+00 
1.4000000e+00 1.0000000e+00 0.0000000e+00 
1.3000000e+00 1.0000000e+00 0.0000000e+00 
1.2000000e+00 1.0000000e+00 0.0000000e+00 
1.1000000e+00 1.0000000e+00 0.0000000e+00 
1.0000000e+00 1.0000000e+00 0.0000000e+00 
8.9999998e-01 1.0000000e+00 0.0000000e+00 
8.0000001e-01 1.0000000e+00 0.0000000e+00 
6.9999999e-01 1.0000000e+00 0.0000000e+00 
6.0000002e-01 1.0000000e+00 0.0000000e+00 
5.0000000e-01 1.0000000e+00 0.0000000e+00 
4.0000001e-01 1.0000000e+00 0.0000000e+00 
3.0000001e-01 1.0000000e+00 0.0000000e+00 
2.0000000e-01 1.0000000e+00 0.0000000e+00 
1.0000000e-01 1.0000000e+00 0.0000000e+00 
0.0000000e+00 8.9999998e-01 0.0000000e+00 
0.0000000e+00 8.0000001e-01 0.0000000e+00 
0.0000000e+00 6.9999999e-01 0.0000000e+00 
0.0000000e+00 6.0000002e-01 0.0000000e+00 
0.0000000e+00 5.0000000e-01 0.0000000e+00 
0.0000000e+00 4.0000001e-01 0.0000000e+00 
0.0000000e+00 3.0000001e-01 0.0000000e+00 
0.0000000e+00 2.0000000e-01 0.0000000e+00 
0.0000000e+00 1.0000000e-01 0.0000000e+00 
4.3499999e+00 8.6602539e-02 0.0000000e+00 
2.2500000e+00 9.1339743e-01 0.0000000e+00 
4.0500002e+00 9.1339743e-01 0.0000000e+00 
2.7500000e+00 8.3308272e-02 0.0000000e+00 
3.2500000e+00 8.6602539e-02 0.0000000e+00 
3.7500000e+00 8.6602539e-02 0.0000000e+00 
1.2500000e+00 9.1339743e-01 0.0000000e+00 
1.7500000e+00 9.1339743e-01 0.0000000e+00 
9.4999999e-01 9.1339743e-01 0.0000000e+00 
5.5000001e-01 9.1339743e-01 0.0000000e+00 
7.5000000e-01 8.3308272e-02 0.0000000e+00 
1.4524696e+00 8.1907488e-02 0.0000000e+00 
1.9500000e+00 8.6602539e-02 0.0000000e+00 
3.4500000e+00 9.1339743e-01 0.0000000e+00 
2.9500000e+00 9.1339743e-01 0.0000000e+00 
2.4500000e+00 8.6602539e-02 0.0000000e+00 
4.4499998e+00 9.1339743e-01 0.0000000e+00 
2.6500001e+00 9.1339743e-01 0.0000000e+00 
1.1500000e+00 8.6602539e-02 0.0000000e+00 
4.0517640e+00 7.8262508e-02 0.0000000e+00 
3.7500000e+00 9.1339743e-01 0.0000000e+00 
9.5000088e-02 4.6391028e-01 0.0000000e+00 
4.9059730e+00 4.6363035e-01 0.0000000e+00 
4.5246965e-01 8.1907488e-02 0.0000000e+00 
4.6500001e+00 8.6602539e-02 0.0000000e+00 
4.6500001e+00 9.1339743e-01 0.0000000e+00 
7.5000000e-01 9.1339743e-01 0.0000000e+00 
4.9111457e+00 6.5092021e-01 0.0000000e+00 
2.2500000e+00 8.6602539e-02 0.0000000e+00 
3.2500000e+00 9.1339743e-01 0.0000000e+00 
9.4999999e-01 8.6602539e-02 0.0000000e+00 
2.9500000e+00 8.6602539e-02 0.0000000e+00 
3.4500000e+00 8.6602539e-02 0.0000000e+00 
2.4500000e+00 9.1339743e-01 0.0000000e+00 
1.9500000e+00 9.1339743e-01 0.0000000e+00 
1.5500000e+00 9.1339743e-01 0.0000000e+00 
1.6500000e+00 8.6602539e-02 0.0000000e+00 
3.4999999e-01 9.1339743e-01 0.0000000e+00 
9.0659410e-02 6.5153849e-01 0.0000000e+00 
4.2500000e+00 9.1339743e-01 0.0000000e+00 
2.5402120e-01 7.9592258e-02 0.0000000e+00 
4.9112749e+00 2.5204152e-01 0.0000000e+00 
8.6602539e-02 2.5000000e-01 0.0000000e+00 
4.9094305e+00 8.4081745e-01 0.0000000e+00 
9.0569727e-02 8.4081745e-01 0.0000000e+00 
4.8445559e+00 9.5495284e-02 0.0000000e+00 
3.9500000e+00 9.1339743e-01 0.0000000e+00 
4.0000000e+00 8.2679492e-01 0.0000000e+00 
4.0999999e+00 8.2679492e-01 0.0000000e+00 
4.0500002e+00 7.4019235e-01 0.0000000e+00 
4.1500001e+00 7.4019235e-01 0.0000000e+00 
4.0999999e+00 6.5358984e-01 0.0000000e+00 
4.1999998e+00 6.5358984e-01 0.0000000e+00 
4.0000000e+00 6.5358984e-01 0.0000000e+00 
4.1500001e+00 5.6698728e-01 0.0000000e+00 
4.2500000e+00 5.6698728e-01 0.0000000e+00 
4.1999998e+00 4.8038477e-01 0.0000000e+00 
4.3000002e+00 4.8038477e-01 0.0000000e+00 
4.3499999e+00 5.6698728e-01 0.0000000e+00 
4.4000001e+00 4.8038477e-01 0.0000000e+00 
4.4499998e+00 5.6698728e-01 0.0000000e+00 
4.5000000e+00 4.8038477e-01 0.0000000e+00 
4.0999999e+00 4.8038477e-01 0.0000000e+00 
4.5500002e+00 5.6698728e-01 0.0000000e+00 
4.2500000e+00 3.9378223e-01 0.0000000e+00 
4.4499998e+00 3.9378223e-01 0.0000000e+00 
4.5500002e+00 3.9378223e-01 0.0000000e+00 
4.5024695e+00 3.0860552e-01 0.0000000e+00 
4.5000000e+00 6.5358984e-01 0.0000000e+00 
4.5999999e+00 6.5358984e-01 0.0000000e+00 
4.6500001e+00 5.6698728e-01 0.0000000e+00 
4.6004114e+00 3.0741730e-01 0.0000000e+00 
4.6999998e+00 6.5358984e-01 0.0000000e+00 
4.5500002e+00 7.4019235e-01 0.0000000e+00 
4.4499998e+00 7.4019235e-01 0.0000000e+00 
4.4028811e+00 3.1213742e-01 0.0000000e+00 
3.9000001e+00 8.2679492e-01 0.0000000e+00 
4.2500000e+00 7.4019235e-01 0.0000000e+00 
4.6500688e+00 3.9382184e-01 0.0000000e+00 
4.7000799e+00 3.0722588e-01 0.0000000e+00 
4.7507491e+00 5.6669539e-01 0.0000000e+00 
4.5510750e+00 2.2357146e-01 0.0000000e+00 
4.7483096e+00 3.9479813e-01 0.0000000e+00 
4.8143229e+00 3.0351433e-01 0.0000000e+00 
4.7489839e+00 2.2150035e-01 0.0000000e+00 
4.8026423e+00 6.5280432e-01 0.0000000e+00 
4.7504406e+00 7.4006146e-01 0.0000000e+00 
4.8507943e+00 7.4260241e-01 0.0000000e+00 
4.8009601e+00 8.2998371e-01 0.0000000e+00 
4.8518200e+00 5.6202388e-01 0.0000000e+00 
4.8002234e+00 4.7973469e-01 0.0000000e+00 
4.7002335e+00 8.2730454e-01 0.0000000e+00 
4.6500239e+00 2.2246142e-01 0.0000000e+00 
4.5000000e+00 8.2679492e-01 0.0000000e+00 
4.4000001e+00 8.2679492e-01 0.0000000e+00 
4.6000390e+00 8.2687986e-01 0.0000000e+00 
4.6501188e+00 7.4026966e-01 0.0000000e+00 
4.1999998e+00 8.2679492e-01 0.0000000e+00 
4.1500001e+00 9.1339743e-01 0.0000000e+00 
4.1500001e+00 3.9378223e-01 0.0000000e+00 
4.0500002e+00 3.9378223e-01 0.0000000e+00 
4.1999998e+00 3.0717969e-01 0.0000000e+00 
4.0000000e+00 4.8038477e-01 0.0000000e+00 
3.9500000e+00 3.9378223e-01 0.0000000e+00 
3.9000001e+00 4.8038477e-01 0.0000000e+00 
3.8499999e+00 3.9378223e-01 0.0000000e+00 
3.8000000e+00 4.8038477e-01 0.0000000e+00 
3.7500000e+00 3.9378223e-01 0.0000000e+00 
3.7000000e+00 4.8038477e-01 0.0000000e+00 
3.6500001e+00 3.9378223e-01 0.0000000e+00 
[...]
POINT_DATA 663
FIELD FieldData 1
DISPLACEMENT 3 663  float
0.0000000e+00 0.0000000e+00 0.0000000e+00 
0.0000000e+00 0.0000000e+00 0.0000000e+00 
0.0000000e+00 3.2213539e-09 0.0000000e+00 
0.0000000e+00 2.0832254e-11 0.0000000e+00 
0.0000000e+00 0.0000000e+00 0.0000000e+00 
0.0000000e+00 0.0000000e+00 0.0000000e+00 
0.0000000e+00 0.0000000e+00 0.0000000e+00 
0.0000000e+00 0.0000000e+00 0.0000000e+00 
0.0000000e+00 0.0000000e+00 0.0000000e+00 
0.0000000e+00 0.0000000e+00 0.0000000e+00 
0.0000000e+00 0.0000000e+00 0.0000000e+00 
0.0000000e+00 0.0000000e+00 0.0000000e+00 
0.0000000e+00 0.0000000e+00 0.0000000e+00 
0.0000000e+00 0.0000000e+00 0.0000000e+00 
0.0000000e+00 0.0000000e+00 0.0000000e+00 
0.0000000e+00 0.0000000e+00 0.0000000e+00 
0.0000000e+00 0.0000000e+00 0.0000000e+00 
0.0000000e+00 0.0000000e+00 0.0000000e+00 
0.0000000e+00 0.0000000e+00 0.0000000e+00 
0.0000000e+00 0.0000000e+00 0.0000000e+00 
0.0000000e+00 0.0000000e+00 0.0000000e+00 
0.0000000e+00 0.0000000e+00 0.0000000e+00 
0.0000000e+00 0.0000000e+00 0.0000000e+00 
0.0000000e+00 0.0000000e+00 0.0000000e+00 
0.0000000e+00 0.0000000e+00 0.0000000e+00 
0.0000000e+00 0.0000000e+00 0.0000000e+00 
0.0000000e+00 0.0000000e+00 0.0000000e+00 
0.0000000e+00 0.0000000e+00 0.0000000e+00 
0.0000000e+00 0.0000000e+00 0.0000000e+00 
0.0000000e+00 0.0000000e+00 0.0000000e+00 
0.0000000e+00 0.0000000e+00 0.0000000e+00 
0.0000000e+00 0.0000000e+00 0.0000000e+00 
0.0000000e+00 0.0000000e+00 0.0000000e+00 
0.0000000e+00 0.0000000e+00 0.0000000e+00 
0.0000000e+00 0.0000000e+00 0.0000000e+00 
0.0000000e+00 0.0000000e+00 0.0000000e+00 
0.0000000e+00 0.0000000e+00 0.0000000e+00 
0.0000000e+00 0.0000000e+00 0.0000000e+00 
0.0000000e+00 0.0000000e+00 0.0000000e+00 
0.0000000e+00 0.0000000e+00 0.0000000e+00 
0.0000000e+00 0.0000000e+00 0.0000000e+00 
0.0000000e+00 0.0000000e+00 0.0000000e+00 
0.0000000e+00 0.0000000e+00 0.0000000e+00 
0.0000000e+00 0.0000000e+00 0.0000000e+00 
0.0000000e+00 0.0000000e+00 0.0000000e+00 
0.0000000e+00 0.0000000e+00 0.0000000e+00 
0.0000000e+00 0.0000000e+00 0.0000000e+00 
0.0000000e+00 0.0000000e+00 0.0000000e+00 
0.0000000e+00 0.0000000e+00 0.0000000e+00 
0.0000000e+00 0.0000000e+00 0.0000000e+00 
0.0000000e+00 0.0000000e+00 0.0000000e+00 
0.0000000e+00 0.0000000e+00 0.0000000e+00 
0.0000000e+00 0.0000000e+00 0.0000000e+00 
0.0000000e+00 -5.8935806e-10 0.0000000e+00 
0.0000000e+00 -5.1469090e-10 0.0000000e+00 
0.0000000e+00 1.4386406e-10 0.0000000e+00 
0.0000000e+00 1.1368686e-09 0.0000000e+00 
0.0000000e+00 2.2112372e-09 0.0000000e+00 
0.0000000e+00 3.1906329e-09 0.0000000e+00 
0.0000000e+00 3.8607375e-09 0.0000000e+00 
0.0000000e+00 4.0968935e-09 0.0000000e+00 
0.0000000e+00 3.8570769e-09 0.0000000e+00 
-3.5077303e-09 2.7179525e-09 0.0000000e+00 
-7.2032806e-09 1.3537019e-09 0.0000000e+00 
-1.1261007e-08 -1.2093425e-09 0.0000000e+00 
-1.5879122e-08 -5.1945879e-09 0.0000000e+00 
-2.1238735e-08 -1.1036025e-08 0.0000000e+00 
-2.7484287e-08 -1.9347803e-08 0.0000000e+00 
-3.4732103e-08 -3.0960958e-08 0.0000000e+00 
-4.3056179e-08 -4.7017622e-08 0.0000000e+00 
-5.2465850e-08 -6.9145322e-08 0.0000000e+00 
-6.2844116e-08 -9.9827211e-08 0.0000000e+00 
-7.3719939e-08 -1.4327250e-07 0.0000000e+00 
-8.3320195e-08 -2.0775533e-07 0.0000000e+00 
-8.4318017e-08 -3.1367563e-07 0.0000000e+00 
-4.0817604e-08 -5.5767129e-07 0.0000000e+00 
3.9917428e-08 -5.5772625e-07 0.0000000e+00 
8.3414569e-08 -3.1384303e-07 0.0000000e+00 
8.2411439e-08 -2.0804268e-07 0.0000000e+00 
7.2807140e-08 -1.4369333e-07 0.0000000e+00 
6.1934600e-08 -1.0040065e-07 0.0000000e+00 
5.1576471e-08 -6.9894980e-08 0.0000000e+00 
4.2217049e-08 -4.7968928e-08 0.0000000e+00 
3.3990567e-08 -3.2137553e-08 0.0000000e+00 
2.6909753e-08 -2.0767049e-08 0.0000000e+00 
2.0928681e-08 -1.2702873e-08 0.0000000e+00 
1.5966537e-08 -7.0926447e-09 0.0000000e+00 
1.1921488e-08 -3.2924228e-09 0.0000000e+00 
8.6811980e-09 -8.1155171e-10 0.0000000e+00 
6.1311081e-09 7.2345246e-10 0.0000000e+00 
4.1606754e-09 1.5947866e-09 0.0000000e+00 
2.6676625e-09 2.0131701e-09 0.0000000e+00 
1.5606744e-09 2.1335818e-09 0.0000000e+00 
7.6024903e-10 2.0679405e-09 0.0000000e+00 
1.9891892e-10 1.8952693e-09 0.0000000e+00 
-1.7935041e-10 1.6697672e-09 0.0000000e+00 
-4.2013962e-10 1.4272487e-09 0.0000000e+00 
-5.5981081e-10 1.1902139e-09 0.0000000e+00 
-6.2684230e-10 9.7175612e-10 0.0000000e+00 
-6.4313321e-10 7.7849949e-10 0.0000000e+00 
-6.2520517e-10 6.1277322e-10 0.0000000e+00 
-5.8526395e-10 4.7418808e-10 0.0000000e+00 
-5.3211063e-10 3.6075920e-10 0.0000000e+00 
-4.7190507e-10 2.6968544e-10 0.0000000e+00 
-4.0879281e-10 1.9787413e-10 0.0000000e+00 
-3.4540987e-10 1.4227923e-10 0.0000000e+00 
-2.8328212e-10 1.0010723e-10 0.0000000e+00 
-2.2313687e-10 6.8930438e-11 0.0000000e+00 
-1.6514273e-10 4.6722584e-11 0.0000000e+00 
-1.0900279e-10 3.1948673e-11 0.0000000e+00 
-5.4151111e-11 2.3840700e-11 0.0000000e+00 
0.0000000e+00 8.6041634e-12 0.0000000e+00 
0.0000000e+00 -1.6827893e-12 0.0000000e+00 
0.0000000e+00 -9.5239892e-12 0.0000000e+00 
0.0000000e+00 -1.4780861e-11 0.0000000e+00 
0.0000000e+00 -1.7440114e-11 0.0000000e+00 
0.0000000e+00 -1.8062440e-11 0.0000000e+00 
0.0000000e+00 -1.6131258e-11 0.0000000e+00 
0.0000000e+00 -1.2209456e-11 0.0000000e+00 
0.0000000e+00 -6.6160931e-12 0.0000000e+00 
8.2192377e-09 -5.3495333e-09 0.0000000e+00 
5.4683853e-09 5.0402893e-10 0.0000000e+00 
-3.0426893e-08 -8.1799278e-08 0.0000000e+00 
-8.2345064e-09 -5.2562017e-09 0.0000000e+00 
-8.9356460e-09 -1.7647148e-08 0.0000000e+00 
6.5575234e-09 -1.9833251e-08 0.0000000e+00 
-5.0846793e-10 8.7350860e-10 0.0000000e+00 
4.2643503e-10 2.0909208e-09 0.0000000e+00 
-4.7021143e-10 4.0361633e-10 0.0000000e+00 
-2.7627478e-10 1.0717405e-10 0.0000000e+00 
-1.9824789e-11 1.8675688e-11 0.0000000e+00 
-2.6306782e-10 9.3076997e-11 0.0000000e+00 
-1.3798435e-09 -6.2630991e-11 0.0000000e+00 
-1.0883494e-08 -3.8348742e-07 0.0000000e+00 
2.6919375e-08 -5.6646115e-08 0.0000000e+00 
-4.9467666e-09 -1.8638675e-09 0.0000000e+00 
-1.6265341e-08 -1.3780590e-08 0.0000000e+00 
1.5926853e-08 -1.5371832e-08 0.0000000e+00 
-9.1594662e-11 6.3053819e-11 0.0000000e+00 
9.7181507e-09 -1.0969902e-08 0.0000000e+00 
-1.4626693e-08 -2.5073223e-07 0.0000000e+00 
-1.6752830e-11 -1.6501996e-11 0.0000000e+00 
2.2630677e-09 1.5399961e-09 0.0000000e+00 
-7.2718728e-12 2.0843006e-12 0.0000000e+00 
4.1927168e-09 -1.8112882e-09 0.0000000e+00 
-9.4907735e-09 -2.1952924e-09 0.0000000e+00 
-3.7969736e-10 2.1887610e-10 0.0000000e+00 
7.4331458e-10 3.3209566e-09 0.0000000e+00 
-3.1202596e-09 -7.5715650e-10 0.0000000e+00 
2.6357505e-08 -1.7119039e-07 0.0000000e+00 
-4.2915581e-11 3.8439703e-11 0.0000000e+00 
-1.0440143e-08 -9.6413224e-09 0.0000000e+00 
-3.5047196e-09 -2.1334001e-08 0.0000000e+00 
9.8295905e-09 -4.2976600e-09 0.0000000e+00 
1.6775646e-09 2.2997106e-09 0.0000000e+00 
-2.0433294e-10 1.5912872e-09 0.0000000e+00 
-5.4972854e-10 9.5197919e-11 0.0000000e+00 
-1.7295171e-10 4.5077095e-11 0.0000000e+00 
-2.7226593e-11 -1.0921553e-11 0.0000000e+00 
-2.3972984e-08 -3.7027142e-08 0.0000000e+00 
-3.4421695e-12 -3.2507554e-12 0.0000000e+00 
2.1749615e-09 -4.2244500e-10 0.0000000e+00 
-5.8502643e-12 -1.3645859e-11 0.0000000e+00 
-1.4652395e-09 3.7911172e-09 0.0000000e+00 
-3.9666270e-11 3.8453247e-12 0.0000000e+00 
1.9738839e-09 -9.1593111e-10 0.0000000e+00 
-3.1055155e-08 -1.1826665e-07 0.0000000e+00 
-5.4233857e-09 -9.7762822e-08 0.0000000e+00 
-8.5996845e-09 -6.7144747e-08 0.0000000e+00 
9.7215240e-09 -7.9766622e-08 0.0000000e+00 
5.4450711e-09 -5.4509229e-08 0.0000000e+00 
1.8416101e-08 -6.3791397e-08 0.0000000e+00 
1.4037584e-08 -4.3410122e-08 0.0000000e+00 
2.3423597e-08 -9.0796490e-08 0.0000000e+00 
2.2914737e-08 -4.9759464e-08 0.0000000e+00 
1.8737930e-08 -3.3723246e-08 0.0000000e+00 
2.4445795e-08 -3.7660378e-08 0.0000000e+00 
2.0531688e-08 -2.5426882e-08 0.0000000e+00 
1.4946822e-08 -2.1762649e-08 0.0000000e+00 
1.6727382e-08 -1.6249519e-08 0.0000000e+00 
1.1652906e-08 -1.3048854e-08 0.0000000e+00 
1.3222781e-08 -9.5675565e-09 0.0000000e+00 
2.8079503e-08 -5.3467900e-08 0.0000000e+00 
8.8393346e-09 -6.8466193e-09 0.0000000e+00 
2.3678362e-08 -2.7452616e-08 0.0000000e+00 
1.6385153e-08 -1.1751017e-08 0.0000000e+00 
1.2913683e-08 -6.8583281e-09 0.0000000e+00 
1.4308148e-08 -8.0961851e-09 0.0000000e+00 
5.6087885e-09 -9.5757349e-09 0.0000000e+00 
3.9733061e-09 -4.1170019e-09 0.0000000e+00 
6.4388197e-09 -2.5538403e-09 0.0000000e+00 
1.1162791e-08 -4.8017235e-09 0.0000000e+00 
2.6962861e-09 -4.2505821e-10 0.0000000e+00 
-4.9171450e-10 -6.4040555e-09 0.0000000e+00 
-3.8792556e-11 -1.3133768e-08 0.0000000e+00 
1.7672239e-08 -1.2794139e-08 0.0000000e+00 
9.5277952e-10 -1.4053539e-07 0.0000000e+00 
2.6339271e-09 -3.6055635e-08 0.0000000e+00 
9.6921715e-09 -3.4130090e-09 0.0000000e+00 
8.1477642e-09 -2.4517324e-09 0.0000000e+00 
4.3561958e-09 3.0567820e-10 0.0000000e+00 
1.1155296e-08 -5.3743552e-09 0.0000000e+00 
6.7728330e-09 -1.1353448e-09 0.0000000e+00 
4.9181264e-09 -7.7423790e-10 0.0000000e+00 
5.9179137e-09 -1.8334575e-09 0.0000000e+00 
1.6624502e-09 1.9729118e-09 0.0000000e+00 
-5.4979787e-10 1.2775752e-09 0.0000000e+00 
-4.1984188e-10 3.1399046e-09 0.0000000e+00 
-2.8947389e-09 2.3763467e-09 0.0000000e+00 
2.5675493e-09 2.0013795e-09 0.0000000e+00 
4.6651376e-09 4.9300680e-10 0.0000000e+00 
-4.2976138e-09 -6.9006474e-11 0.0000000e+00 
8.4612974e-09 -3.2628944e-09 0.0000000e+00 
-7.2032380e-09 -9.5590398e-09 0.0000000e+00 
-8.4975156e-09 -1.7681357e-08 0.0000000e+00 
-5.7637535e-09 -3.8982511e-09 0.0000000e+00 
-6.2696182e-10 -1.7762347e-09 0.0000000e+00 
-9.6552402e-09 -4.5064027e-08 0.0000000e+00 
-2.7646246e-08 -5.5790036e-08 0.0000000e+00 
2.6923367e-08 -3.8978460e-08 0.0000000e+00 
2.9206422e-08 -5.3187726e-08 0.0000000e+00 
2.3891143e-08 -2.6985944e-08 0.0000000e+00 
3.0707699e-08 -7.3025227e-08 0.0000000e+00 
2.9664450e-08 -6.9624079e-08 0.0000000e+00 
3.1137727e-08 -9.5603738e-08 0.0000000e+00 
2.7255783e-08 -8.6845134e-08 0.0000000e+00 
2.7780542e-08 -1.1874365e-07 0.0000000e+00 
2.1205048e-08 -1.0237973e-07 0.0000000e+00 
1.9521394e-08 -1.3820240e-07 0.0000000e+00 
1.1641953e-08 -1.1331409e-07 0.0000000e+00 
6.9704629e-09 -1.4940704e-07 0.0000000e+00 
-1.1205974e-10 -1.1725636e-07 0.0000000e+00 
-7.3075994e-09 -1.4944392e-07 0.0000000e+00 
-1.1955103e-08 -1.1332435e-07 0.0000000e+00 
-1.9877401e-08 -1.3832056e-07 0.0000000e+00 
-2.1378764e-08 -1.0326896e-07 0.0000000e+00 
-2.8161415e-08 -1.1909747e-07 0.0000000e+00 
-2.7668888e-08 -8.8738226e-08 0.0000000e+00 
-3.1580189e-08 -9.6116501e-08 0.0000000e+00 
-3.0174135e-08 -7.0736597e-08 0.0000000e+00 
-3.1168902e-08 -7.3568792e-08 0.0000000e+00 
-2.9669485e-08 -5.3699161e-08 0.0000000e+00 
-2.8601576e-08 -5.4038143e-08 0.0000000e+00 
-2.7456831e-08 -3.9491169e-08 0.0000000e+00 
-2.5061182e-08 -3.8348787e-08 0.0000000e+00 
-2.4334014e-08 -2.8060398e-08 0.0000000e+00 
-2.1282020e-08 -2.6278064e-08 0.0000000e+00 
-2.0891109e-08 -1.9239440e-08 0.0000000e+00 
-1.7663963e-08 -1.7287995e-08 0.0000000e+00 
-1.7493482e-08 -1.2643810e-08 0.0000000e+00 
-1.4406291e-08 -1.0781183e-08 0.0000000e+00 
-1.4364304e-08 -7.8676710e-09 0.0000000e+00 
-1.1582876e-08 -6.2034458e-09 0.0000000e+00 
-1.1601882e-08 -4.5102047e-09 0.0000000e+00 
-9.2000016e-09 -3.0814569e-09 0.0000000e+00 
-9.2834895e-09 -2.2694551e-09 0.0000000e+00 
-7.2335822e-09 -1.0354267e-09 0.0000000e+00 
-7.2836510e-09 -7.3179757e-10 0.0000000e+00 
-5.6298992e-09 2.5544622e-10 0.0000000e+00 
-5.6306280e-09 2.3301558e-10 0.0000000e+00 
-4.3458082e-09 1.0011526e-09 0.0000000e+00 
-4.3398929e-09 7.5388951e-10 0.0000000e+00 
-3.3381597e-09 1.3663687e-09 0.0000000e+00 
-3.3093528e-09 1.0120688e-09 0.0000000e+00 
-2.5492681e-09 1.4909274e-09 0.0000000e+00 
-2.5037392e-09 1.0990368e-09 0.0000000e+00 
-1.9401249e-09 1.4647397e-09 0.0000000e+00 
-1.8818405e-09 1.0740826e-09 0.0000000e+00 
-1.4742524e-09 1.3505884e-09 0.0000000e+00 
-1.4071996e-09 9.8797392e-10 0.0000000e+00 
-1.1219308e-09 1.1916371e-09 0.0000000e+00 
-1.0492410e-09 8.6791269e-10 0.0000000e+00 
-8.5728441e-10 1.0161146e-09 0.0000000e+00 
-7.8257906e-10 7.3759865e-10 0.0000000e+00 
-6.6003647e-10 8.4254814e-10 0.0000000e+00 
-5.8536187e-10 6.0836974e-10 0.0000000e+00 
-5.1335125e-10 6.8146644e-10 0.0000000e+00 
-4.4077689e-10 4.8952020e-10 0.0000000e+00 
-4.0443457e-10 5.3870924e-10 0.0000000e+00 
-3.3525790e-10 3.8443540e-10 0.0000000e+00 
-3.2319383e-10 4.1619747e-10 0.0000000e+00 
-2.5831520e-10 2.9445602e-10 0.0000000e+00 
-2.6192407e-10 3.1378564e-10 0.0000000e+00 
-2.0196168e-10 2.1942494e-10 0.0000000e+00 
-2.1483794e-10 2.3007364e-10 0.0000000e+00 
-1.6018997e-10 1.5821369e-10 0.0000000e+00 
-1.7761852e-10 1.6304832e-10 0.0000000e+00 
-1.2839639e-10 1.0938381e-10 0.0000000e+00 
-1.4715419e-10 1.1037472e-10 0.0000000e+00 
-1.0339279e-10 7.1112477e-11 0.0000000e+00 
-1.2121446e-10 6.9726377e-11 0.0000000e+00 
-8.2974051e-11 4.1711738e-11 0.0000000e+00 
-9.8225178e-11 3.9034907e-11 0.0000000e+00 
-6.5363166e-11 1.9655338e-11 0.0000000e+00 
1.5860619e-08 -1.8073757e-07 0.0000000e+00 
-2.7433483e-08 -1.5796336e-07 0.0000000e+00 
-2.7639230e-08 -7.1235384e-08 0.0000000e+00 
-1.5711134e-08 -2.2869626e-08 0.0000000e+00 
-9.9427497e-09 -8.3925107e-09 0.0000000e+00 
-6.0963741e-09 -1.5836619e-09 0.0000000e+00 
-2.8337024e-09 1.6546735e-09 0.0000000e+00 
-1.6982072e-09 1.8427075e-09 0.0000000e+00 
-1.0383875e-09 1.5248088e-09 0.0000000e+00 
-5.3931282e-10 8.9019841e-10 0.0000000e+00 
-3.1586134e-10 4.2132717e-10 0.0000000e+00 
-2.3027072e-10 2.2667399e-10 0.0000000e+00 
-1.6605195e-10 1.0500163e-10 0.0000000e+00 
-7.7110270e-11 1.6433398e-11 0.0000000e+00 
-1.1154268e-10 3.4499660e-11 0.0000000e+00 
-4.9578265e-11 3.6317121e-12 0.0000000e+00 
-6.6309201e-11 4.0987699e-11 0.0000000e+00 
-4.6084692e-10 4.0487036e-10 0.0000000e+00 
-2.1662472e-09 7.3185835e-10 0.0000000e+00 
-5.0184195e-09 1.2380515e-10 0.0000000e+00 
-1.5582330e-08 -8.8506651e-09 0.0000000e+00 
-2.7457094e-08 -5.0271957e-08 0.0000000e+00 
5.1249258e-09 -8.6880810e-08 0.0000000e+00 
2.5231735e-08 -6.0519362e-08 0.0000000e+00 
-8.6036150e-11 1.2795716e-11 0.0000000e+00 
-1.2195676e-10 2.9757960e-11 0.0000000e+00 
-3.9608081e-11 6.4577081e-12 0.0000000e+00 
-1.4111597e-10 1.4155786e-10 0.0000000e+00 
-2.4954341e-10 2.5342062e-10 0.0000000e+00 
-1.1765918e-09 6.5852801e-10 0.0000000e+00 
-1.0331566e-08 -3.2165561e-09 0.0000000e+00 
-2.4424546e-08 -2.7400350e-08 0.0000000e+00 
-1.4289545e-08 -8.2151828e-08 0.0000000e+00 
-9.1131928e-11 1.0034975e-11 0.0000000e+00 
-2.8920621e-11 -4.0749743e-12 0.0000000e+00 
-1.5318437e-10 5.7723000e-11 0.0000000e+00 
3.1313519e-08 -1.2730231e-07 0.0000000e+00 
-1.6528545e-10 5.1203722e-11 0.0000000e+00 
-2.0251593e-10 8.5792110e-11 0.0000000e+00 
-6.1136964e-11 -2.1009394e-12 0.0000000e+00 
-2.0886260e-11 -9.9806567e-13 0.0000000e+00 
-3.5207580e-11 -7.3194940e-12 0.0000000e+00 
-2.9894101e-11 8.5660879e-12 0.0000000e+00 
-1.4654573e-11 -7.1814330e-12 0.0000000e+00 
-6.0067548e-11 -3.1346943e-12 0.0000000e+00 
-9.1185073e-11 9.1749282e-12 0.0000000e+00 
-5.4844490e-11 -1.2481304e-12 0.0000000e+00 
-8.5621510e-11 1.1305052e-11 0.0000000e+00 
-3.6129516e-11 -1.1540077e-11 0.0000000e+00 
-1.7071939e-11 -1.1943931e-11 0.0000000e+00 
-1.2816123e-10 2.6285729e-11 0.0000000e+00 
2.6011389e-08 -3.6812722e-08 0.0000000e+00 
2.1107494e-08 -2.3438158e-08 0.0000000e+00 
1.9482929e-08 -1.7652878e-08 0.0000000e+00 
2.2275811e-08 -3.1237242e-08 0.0000000e+00 
1.5396047e-08 -1.3842793e-08 0.0000000e+00 
-1.8632823e-10 1.9243311e-10 0.0000000e+00 
-1.6063216e-10 1.4935603e-10 0.0000000e+00 
-2.2382907e-10 1.9223818e-10 0.0000000e+00 
-1.1633351e-10 1.1238836e-10 0.0000000e+00 
-8.6448619e-11 8.2484367e-11 0.0000000e+00 
-1.2724997e-08 -6.9254900e-09 0.0000000e+00 
5.5060312e-09 -2.6513189e-09 0.0000000e+00 
6.6339343e-09 -3.6757080e-09 0.0000000e+00 
1.2242876e-08 -7.6378068e-09 0.0000000e+00 
2.0016538e-08 -1.8470571e-08 0.0000000e+00 
-6.6054251e-09 9.1821917e-10 0.0000000e+00 
-4.4567766e-10 7.0905470e-10 0.0000000e+00 
-4.5280954e-10 8.8518964e-10 0.0000000e+00 
-5.0943866e-10 1.1015011e-09 0.0000000e+00 
-4.0426429e-10 6.9662770e-10 0.0000000e+00 
-4.2869472e-10 1.0549829e-09 0.0000000e+00 
-4.2652532e-10 1.2990203e-09 0.0000000e+00 
-5.7779798e-10 1.3406162e-09 0.0000000e+00 
-4.0977999e-10 1.5638626e-09 0.0000000e+00 
-3.8935460e-10 1.2065471e-09 0.0000000e+00 
-4.1915624e-10 8.3926954e-10 0.0000000e+00 
-4.0055873e-10 6.5451328e-10 0.0000000e+00 
-3.6128189e-10 5.3695748e-10 0.0000000e+00 
-3.7522102e-10 5.0026311e-10 0.0000000e+00 
-4.3576676e-10 5.9534677e-10 0.0000000e+00 
-3.2211245e-10 4.0493739e-10 0.0000000e+00 
-3.4507566e-10 3.7425016e-10 0.0000000e+00 
-2.8556391e-10 2.9802244e-10 0.0000000e+00 
-3.1167754e-10 2.7328026e-10 0.0000000e+00 
-2.5084226e-10 2.1305843e-10 0.0000000e+00 
-2.7623254e-10 1.9382411e-10 0.0000000e+00 
-2.1742201e-10 1.4673950e-10 0.0000000e+00 
-6.6370043e-09 -1.9878598e-08 0.0000000e+00 
-1.3786755e-08 -3.8149395e-08 0.0000000e+00 
-1.7195282e-08 -3.3406497e-08 0.0000000e+00 
-2.0315014e-08 -5.3046168e-08 0.0000000e+00 
-9.2162455e-09 -4.2683748e-08 0.0000000e+00 
-3.0176945e-09 -4.2117758e-08 0.0000000e+00 
-1.9640646e-10 1.5814564e-10 0.0000000e+00 
-4.2793669e-10 3.0045733e-10 0.0000000e+00 
-3.2849068e-10 1.5549571e-10 0.0000000e+00 
-2.6930999e-10 3.1346009e-10 0.0000000e+00 
-3.9585788e-09 -1.2148879e-09 0.0000000e+00 
-6.0559380e-09 -1.4741731e-09 0.0000000e+00 
-4.8056177e-09 -7.8644435e-10 0.0000000e+00 
-6.7791510e-09 -1.1864613e-09 0.0000000e+00 
2.2971431e-09 3.8302375e-10 0.0000000e+00 
-2.0066912e-08 -2.3484541e-08 0.0000000e+00 
5.1135825e-11 1.8535480e-09 0.0000000e+00 
9.6936643e-12 2.0091211e-09 0.0000000e+00 
2.8109307e-10 2.2386342e-09 0.0000000e+00 
-3.2153280e-10 2.0859146e-09 0.0000000e+00 
-2.4603453e-10 2.2769817e-09 0.0000000e+00 
-1.6293452e-08 -1.8083327e-07 0.0000000e+00 
-2.5366271e-08 -2.0654603e-07 0.0000000e+00 
-3.0753927e-08 -1.6681244e-07 0.0000000e+00 
-1.0155788e-08 -2.3134244e-07 0.0000000e+00 
-2.8213654e-08 -2.1682322e-07 0.0000000e+00 
-2.3306777e-08 -1.5995215e-07 0.0000000e+00 
-2.8706243e-08 -1.2576805e-07 0.0000000e+00 
-1.6284291e-08 -1.1449527e-07 0.0000000e+00 
-2.3963548e-10 1.3239758e-10 0.0000000e+00 
-3.7317524e-10 5.5269056e-10 0.0000000e+00 
2.1052349e-08 -1.9206391e-08 0.0000000e+00 
-6.3023781e-10 4.9165561e-10 0.0000000e+00 
-4.3933715e-10 2.9105487e-10 0.0000000e+00 
-6.3157507e-10 3.6036074e-10 0.0000000e+00 
1.3824855e-08 -2.5095727e-07 0.0000000e+00 
7.4371709e-09 -1.3453512e-09 0.0000000e+00 
3.4377157e-09 -4.8612482e-11 0.0000000e+00 
2.5180573e-09 1.3189040e-09 0.0000000e+00 
1.9643777e-10 7.1813949e-10 0.0000000e+00 
8.6056669e-11 1.7195084e-09 0.0000000e+00 
2.6344127e-10 -1.0431022e-09 0.0000000e+00 
1.7524185e-09 2.0490054e-09 0.0000000e+00 
-3.5541157e-11 2.2030870e-09 0.0000000e+00 
-2.1733437e-09 1.0750878e-09 0.0000000e+00 
4.5038440e-09 -2.3366840e-09 0.0000000e+00 
5.6850156e-09 -5.9231335e-09 0.0000000e+00 
2.3478736e-10 -3.8899186e-09 0.0000000e+00 
2.8130432e-11 -8.2551042e-09 0.0000000e+00 
6.9111814e-09 -1.1307965e-08 0.0000000e+00 
-4.8163856e-10 -1.4708837e-08 0.0000000e+00 
8.0516704e-09 -1.9151280e-08 0.0000000e+00 
-1.4784320e-09 -2.3999641e-08 0.0000000e+00 
8.8821919e-09 -3.0329847e-08 0.0000000e+00 
-3.2210496e-09 -3.7111271e-08 0.0000000e+00 
9.0362384e-09 -4.6028397e-08 0.0000000e+00 
-6.0478489e-09 -5.5342127e-08 0.0000000e+00 
-1.4640605e-08 -4.4296158e-08 0.0000000e+00 
7.9387128e-09 -6.7897489e-08 0.0000000e+00 
-1.0332469e-08 -8.0406487e-08 0.0000000e+00 
2.9657473e-08 -8.2460943e-08 0.0000000e+00 
2.3321633e-08 -3.8105807e-08 0.0000000e+00 
1.2664875e-08 -8.7839522e-09 0.0000000e+00 
-4.8531388e-09 -8.8305249e-08 0.0000000e+00 
-1.2559920e-08 -1.4377296e-08 0.0000000e+00 
-3.8438458e-10 1.0054481e-10 0.0000000e+00 
-8.3131596e-10 2.7574562e-10 0.0000000e+00 
-1.0988676e-09 2.4724212e-10 0.0000000e+00 
1.0081562e-08 -3.8337740e-07 0.0000000e+00 
2.2402393e-08 -2.8396434e-07 0.0000000e+00 