# vtk DataFile Version 4.0
vtk output
ASCII
DATASET UNSTRUCTURED_GRID
POINTS 663 float
0.0000000e+00 0.0000000e+00 0.0000000e+00 
5.0000000e+00 0.0000000e+00 0.0000000e+00 
5.0000000e+00 1.0000000e+00 0.0000000e+00 
0.0000000e+00 1.0000000e+00 0.0000000e+00 
1.0000000e-01 0.0000000e+00 0.0000000e+00 
2.0000000e-01 0.0000000e+00 0.0000000e+00 
3.0000001e-01 0.0000000e+00 0.0000000e+00 
4.0000001e-01 0.0000000e+00 0.0000000e+00 
5.0000000e-01 0.0000000e+00 0.0000000e+00 
6.0000002e-01 0.0000000e+00 0.0000000e+00 
6.9999999e-01 0.0000000e+00 0.0000000e+00 
8.0000001e-01 0.0000000e+00 0.0000000e+00 
8.9999998e-01 0.0000000e+00 0.0000000e+00 
1.0000000e+00 0.0000000e+00 0.0000000e+00 
1.1000000e+00 0.0000000e+00 0.0000000e+00 
1.2000000e+00 0.0000000e+00 0.0000000e+00 
1.3000000e+00 0.0000000e+00 0.0000000e+00 
1.4000000e+00 0.0000000e+00 0.0000000e+00 
1.5000000e+00 0.0000000e+00 0.0000000e+00 
1.6000000e+00 0.0000000e+00 0.0000000e+00 
1.7000000e+00 0.0000000e+00 0.0000000e+00 
1.8000000e+00 0.0000000e+00 0.0000000e+00 
1.9000000e+00 0.0000000e+00 0.0000000e+00 
2.0000000e+00 0.0000000e+00 0.0000000e+00 
2.0999999e+00 0.0000000e+00 0.0000000e+00 
2.2000000e+00 0.0000000e+00 0.0000000e+00 
2.3000000e+00 0.0000000e+00 0.0000000e+00 
2.4000001e+00 0.0000000e+00 0.0000000e+00 
2.5000000e+00 0.0000000e+00 0.0000000e+00 
2.5999999e+00 0.0000000e+00 0.0000000e+00 
2.7000000e+00 0.0000000e+00 0.0000000e+00 
2.8000000e+00 0.0000000e+00 0.0000000e+00 
2.9000001e+00 0.0000000e+00 0.0000000e+00 
3.0000000e+00 0.0000000e+00 0.0000000e+00 
3.0999999e+00 0.0000000e+00 0.0000000e+00 
3.2000000e+00 0.0000000e+00 0.0000000e+00 
3.3000000e+00 0.0000000e+00 0.0000000e+00 
3.4000001e+00 0.0000000e+00 0.0000000e+00 
3.5000000e+00 0.0000000e+00 0.0000000e+00 
3.5999999e+00 0.0000000e+00 0.0000000e+00 
3.7000000e+00 0.0000000e+00 0.0000000e+00 
3.8000000e+00 0.0000000e+00 0.0000000e+00 
3.9000001e+00 0.0000000e+00 0.0000000e+00 
4.0000000e+00 0.0000000e+00 0.0000000e+00 
4.0999999e+00 0.0000000e+00 0.0000000e+00 
4.1999998e+00 0.0000000e+00 0.0000000e+00 
4.3000002e+00 0.0000000e+00 0.0000000e+00 
4.4000001e+00 0.0000000e+00 0.0000000e+00 
4.5000000e+00 0.0000000e+00 0.0000000e+00 
4.5999999e+00 0.0000000e+00 0.0000000e+00 
4.6999998e+00 0.0000000e+00 0.0000000e+00 
4.8000002e+00 0.0000000e+00 0.0000000e+00 
4.9000001e+00 0.0000000e+00 0.0000000e+00 
5.0000000e+00 1.0000000e-01 0.0000000e+00 
5.0000000e+00 2.0000000e-01 0.0000000e+00 
5.0000000e+00 3.0000001e-01 0.0000000e+00 
5.0000000e+00 4.0000001e-01 0.0000000e+00 
5.0000000e+00 5.0000000e-01 0.0000000e+00 
5.0000000e+00 6.0000002e-01 0.0000000e+00 
5.0000000e+00 6.9999999e-01 0.0000000e+00 
5.0000000e+00 8.0000001e-01 0.0000000e+00 
5.0000000e+00 8.9999998e-01 0.0000000e+00 
4.9000001e+00 1.0000000e+00 0.0000000e+00 
4.8000002e+00 1.0000000e+00 0.0000000e+00 
4.6999998e+00 1.0000000e+00 0.0000000e+00 
4.5999999e+00 1.0000000e+00 0.0000000e+00 
4.5000000e+00 1.0000000e+00 0.0000000e+00 
4.4000001e+00 1.0000000e+00 0.0000000e+00 
4.3000002e+00 1.0000000e+00 0.0000000e+00 
4.1999998e+00 1.0000000e+00 0.0000000e+00 
4.0999999e+00 1.0000000e+00 0.0000000e+00 
4.0000000e+00 1.0000000e+00 0.0000000e+00 
3.9000001e+00 1.0000000e+00 0.0000000e+00 
3.8000000e+00 1.0000000e+00 0.0000000e+00 
3.7000000e+00 1.0000000e+00 0.0000000e+00 
3.5999999e+00 1.0000000e+00 0.0000000e+00 
3.5000000e+00 1.0000000e+00 0.0000000e+00 
3.4000001e+00 1.0000000e+00 0.0000000e+00 
3.3000000e+00 1.0000000e+00 0.0000000e+00 
3.2000000e+00 1.0000000e+00 0.0000000e+00 
3.0999999e+00 1.0000000e+00 0.0000000e+00 
3.0000000e+00 1.0000000e+00 0.0000000e+00 
2.9000001e+00 1.0000000e+00 0.0000000e+00 
2.8000000e+00 1.0000000e+00 0.0000000e+00 
2.7000000e+00 1.0000000e+00 0.0000000e+00 
2.5999999e+00 1.0000000e+00 0.0000000e+00 
2.5000000e+00 1.0000000e+00 0.0000000e+00 
2.4000001e+00 1.0000000e+00 0.0000000e+00 
2.3000000e+00 1.0000000e+00 0.0000000e+00 
2.2000000e+00 1.0000000e+00 0.0000000e+00 
2.0999999e+00 1.0000000e+00 0.0000000e+00 
2.0000000e+00 1.0000000e+00 0.0000000e+00 
1.9000000e+00 1.0000000e+00 0.0000000e+00 
1.8000000e+00 1.0000000e+00 0.0000000e+00 
1.7000000e+00 1.0000000e+00 0.0000000e+00 
1.6000000e+00 1.0000000e+00 0.0000000e+00 
1.5000000e+00 1.0000000e+00 0.0000000e+00 
1.4000000e+00 1.0000000e+00 0.0000000e+00 
1.3000000e+00 1.0000000e+00 0.0000000e+00 
1.2000000e+00 1.0000000e+00 0.0000000e+00 
1.1000000e+00 1.0000000e+00 0.0000000e+00 
1.0000000e+00 1.0000000e+00 0.0000000e+00 
8.9999998e-01 1.0000000e+00 0.0000000e+00 
8.0000001e-01 1.0000000e+00 0.0000000e+00 
6.9999999e-01 1.0000000e+00 0.0000000e+00 
6.0000002e-01 1.0000000e+00 0.0000000e+00 
5.0000000e-01 1.0000000e+00 0.0000000e+00 
4.0000001e-01 1.0000000e+00 0.0000000e+00 
3.0000001e-01 1.0000000e+00 0.0000000e+00 
2.0000000e-01 1.0000000e+00 0.0000000e+00 
1.0000000e-01 1.0000000e+00 0.0000000e+00 
0.0000000e+00 8.9999998e-01 0.0000000e+00 
0.0000000e+00 8.0000001e-01 0.0000000e+00 
0.0000000e+00 6.9999999e-01 0.0000000e+00 
0.0000000e+00 6.0000002e-01 0.0000000e+00 
0.0000000e+00 5.0000000e-01 0.0000000e+00 
0.0000000e+00 4.0000001e-01 0.0000000e+00 
0.0000000e+00 3.0000001e-01 0.0000000e+00 
0.0000000e+00 2.0000000e-01 0.0000000e+00 
0.0000000e+00 1.0000000e-01 0.0000000e+00 
4.3499999e+00 8.6602539e-02 0.0000000e+00 
2.2500000e+00 9.1339743e-01 0.0000000e+00 
4.0500002e+00 9.1339743e-01 0.0000000e+00 
2.7500000e+00 8.3308272e-02 0.0000000e+00 
3.2500000e+00 8.6602539e-02 0.0000000e+00 
3.7500000e+00 8.6602539e-02 0.0000000e+00 
1.2500000e+00 9.1339743e-01 0.0000000e+00 
1.7500000e+00 9.1339743e-01 0.0000000e+00 
9.4999999e-01 9.1339743e-01 0.0000000e+00 
5.5000001e-01 9.1339743e-01 0.0000000e+00 
7.5000000e-01 8.3308272e-02 0.0000000e+00 
1.4524696e+00 8.1907488e-02 0.0000000e+00 
1.9500000e+00 8.6602539e-02 0.0000000e+00 
3.4500000e+00 9.1339743e-01 0.0000000e+00 
2.9500000e+00 9.1339743e-01 0.0000000e+00 
2.4500000e+00 8.6602539e-02 0.0000000e+00 
4.4499998e+00 9.1339743e-01 0.0000000e+00 
2.6500001e+00 9.1339743e-01 0.0000000e+00 
1.1500000e+00 8.6602539e-02 0.0000000e+00 
4.0517640e+00 7.8262508e-02 0.0000000e+00 
3.7500000e+00 9.1339743e-01 0.0000000e+00 
9.5000088e-02 4.6391028e-01 0.0000000e+00 
4.9059730e+00 4.6363035e-01 0.0000000e+00 
4.5246965e-01 8.1907488e-02 0.0000000e+00 
4.6500001e+00 8.6602539e-02 0.0000000e+00 
4.6500001e+00 9.1339743e-01 0.0000000e+00 
7.5000000e-01 9.1339743e-01 0.0000000e+00 
4.9111457e+00 6.5092021e-01 0.0000000e+00 
2.2500000e+00 8.6602539e-02 0.0000000e+00 
3.2500000e+00 9.1339743e-01 0.0000000e+00 
9.4999999e-01 8.6602539e-02 0.0000000e+00 
2.9500000e+00 8.6602539e-02 0.0000000e+00 
3.4500000e+00 8.6602539e-02 0.0000000e+00 
2.4500000e+00 9.1339743e-01 0.0000000e+00 
1.9500000e+00 9.1339743e-01 0.0000000e+00 
1.5500000e+00 9.1339743e-01 0.0000000e+00 
1.6500000e+00 8.6602539e-02 0.0000000e+00 
3.4999999e-01 9.1339743e-01 0.0000000e+00 
9.0659410e-02 6.5153849e-01 0.0000000e+00 
4.2500000e+00 9.1339743e-01 0.0000000e+00 
2.5402120e-01 7.9592258e-02 0.0000000e+00 
4.9112749e+00 2.5204152e-01 0.0000000e+00 
8.6602539e-02 2.5000000e-01 0.0000000e+00 
4.9094305e+00 8.4081745e-01 0.0000000e+00 
9.0569727e-02 8.4081745e-01 0.0000000e+00 
4.8445559e+00 9.5495284e-02 0.0000000e+00 
3.9500000e+00 9.1339743e-01 0.0000000e+00 
4.0000000e+00 8.2679492e-01 0.0000000e+00 
4.0999999e+00 8.2679492e-01 0.0000000e+00 
4.0500002e+00 7.4019235e-01 0.0000000e+00 
4.1500001e+00 7.4019235e-01 0.0000000e+00 
4.0999999e+00 6.5358984e-01 0.0000000e+00 
4.1999998e+00 6.5358984e-01 0.0000000e+00 
4.0000000e+00 6.5358984e-01 0.0000000e+00 
4.1500001e+00 5.6698728e-01 0.0000000e+00 
4.2500000e+00 5.6698728e-01 0.0000000e+00 
4.1999998e+00 4.8038477e-01 0.0000000e+00 
4.3000002e+00 4.8038477e-01 0.0000000e+00 
4.3499999e+00 5.6698728e-01 0.0000000e+00 
4.4000001e+00 4.8038477e-01 0.0000000e+00 
4.4499998e+00 5.6698728e-01 0.0000000e+00 
4.5000000e+00 4.8038477e-01 0.0000000e+00 
4.0999999e+00 4.8038477e-01 0.0000000e+00 
4.5500002e+00 5.6698728e-01 0.0000000e+00 
4.2500000e+00 3.9378223e-01 0.0000000e+00 
4.4499998e+00 3.9378223e-01 0.0000000e+00 
4.5500002e+00 3.9378223e-01 0.0000000e+00 
4.5024695e+00 3.0860552e-01 0.0000000e+00 
4.5000000e+00 6.5358984e-01 0.0000000e+00 
4.5999999e+00 6.5358984e-01 0.0000000e+00 
4.6500001e+00 5.6698728e-01 0.0000000e+00 
4.6004114e+00 3.0741730e-01 0.0000000e+00 
4.6999998e+00 6.5358984e-01 0.0000000e+00 
4.5500002e+00 7.4019235e-01 0.0000000e+00 
4.4499998e+00 7.4019235e-01 0.0000000e+00 
4.4028811e+00 3.1213742e-01 0.0000000e+00 
3.9000001e+00 8.2679492e-01 0.0000000e+00 
4.2500000e+00 7.4019235e-01 0.0000000e+00 
4.6500688e+00 3.9382184e-01 0.0000000e+00 
4.7000799e+00 3.0722588e-01 0.0000000e+00 
4.7507491e+00 5.6669539e-01 0.0000000e+00 
4.5510750e+00 2.2357146e-01 0.0000000e+00 
4.7483096e+00 3.9479813e-01 0.0000000e+00 
4.8143229e+00 3.0351433e-01 0.0000000e+00 
4.7489839e+00 2.2150035e-01 0.0000000e+00 
4.8026423e+00 6.5280432e-01 0.0000000e+00 
4.7504406e+00 7.4006146e-01 0.0000000e+00 
4.8507943e+00 7.4260241e-01 0.0000000e+00 
4.8009601e+00 8.2998371e-01 0.0000000e+00 
4.8518200e+00 5.6202388e-01 0.0000000e+00 
4.8002234e+00 4.7973469e-01 0.0000000e+00 
4.7002335e+00 8.2730454e-01 0.0000000e+00 
4.6500239e+00 2.2246142e-01 0.0000000e+00 
4.5000000e+00 8.2679492e-01 0.0000000e+00 
4.4000001e+00 8.2679492e-01 0.0000000e+00 
4.6000390e+00 8.2687986e-01 0.0000000e+00 
4.6501188e+00 7.4026966e-01 0.0000000e+00 
4.1999998e+00 8.2679492e-01 0.0000000e+00 
4.1500001e+00 9.1339743e-01 0.0000000e+00 
4.1500001e+00 3.9378223e-01 0.0000000e+00 
4.0500002e+00 3.9378223e-01 0.0000000e+00 
4.1999998e+00 3.0717969e-01 0.0000000e+00 
4.0000000e+00 4.8038477e-01 0.0000000e+00 
3.9500000e+00 3.9378223e-01 0.0000000e+00 
3.9000001e+00 4.8038477e-01 0.0000000e+00 
3.8499999e+00 3.9378223e-01 0.0000000e+00 
3.8000000e+00 4.8038477e-01 0.0000000e+00 
3.7500000e+00 3.9378223e-01 0.0000000e+00 
3.7000000e+00 4.8038477e-01 0.0000000e+00 
3.6500001e+00 3.9378223e-01 0.0000000e+00 
[...]
POINT_DATA 663
FIELD FieldData 2
DISPLACEMENT 3 663  float
0.0000000e+00 0.0000000e+00 0.0000000e+00 
0.0000000e+00 0.0000000e+00 0.0000000e+00 
0.0000000e+00 3.8129860e-24 0.0000000e+00 
0.0000000e+00 1.3235153e-25 0.0000000e+00 
0.0000000e+00 0.0000000e+00 0.0000000e+00 
0.0000000e+00 0.0000000e+00 0.0000000e+00 
0.0000000e+00 0.0000000e+00 0.0000000e+00 
0.0000000e+00 0.0000000e+00 0.0000000e+00 
0.0000000e+00 0.0000000e+00 0.0000000e+00 
0.0000000e+00 0.0000000e+00 0.0000000e+00 
0.0000000e+00 0.0000000e+00 0.0000000e+00 
0.0000000e+00 0.0000000e+00 0.0000000e+00 
0.0000000e+00 0.0000000e+00 0.0000000e+00 
0.0000000e+00 0.0000000e+00 0.0000000e+00 
0.0000000e+00 0.0000000e+00 0.0000000e+00 
0.0000000e+00 0.0000000e+00 0.0000000e+00 
0.0000000e+00 0.0000000e+00 0.0000000e+00 
0.0000000e+00 0.0000000e+00 0.0000000e+00 
0.0000000e+00 0.0000000e+00 0.0000000e+00 
0.0000000e+00 0.0000000e+00 0.0000000e+00 
0.0000000e+00 0.0000000e+00 0.0000000e+00 
0.0000000e+00 0.0000000e+00 0.0000000e+00 
0.0000000e+00 0.0000000e+00 0.0000000e+00 
0.0000000e+00 0.0000000e+00 0.0000000e+00 
0.0000000e+00 0.0000000e+00 0.0000000e+00 
0.0000000e+00 0.0000000e+00 0.0000000e+00 
0.0000000e+00 0.0000000e+00 0.0000000e+00 
0.0000000e+00 0.0000000e+00 0.0000000e+00 
0.0000000e+00 0.0000000e+00 0.0000000e+00 
0.0000000e+00 0.0000000e+00 0.0000000e+00 
0.0000000e+00 0.0000000e+00 0.0000000e+00 
0.0000000e+00 0.0000000e+00 0.0000000e+00 
0.0000000e+00 0.0000000e+00 0.0000000e+00 
0.0000000e+00 0.0000000e+00 0.0000000e+00 
0.0000000e+00 0.0000000e+00 0.0000000e+00 
0.0000000e+00 0.0000000e+00 0.0000000e+00 
0.0000000e+00 0.0000000e+00 0.0000000e+00 
0.0000000e+00 0.0000000e+00 0.0000000e+00 
0.0000000e+00 0.0000000e+00 0.0000000e+00 
0.0000000e+00 0.0000000e+00 0.0000000e+00 
0.0000000e+00 0.0000000e+00 0.0000000e+00 
0.0000000e+00 0.0000000e+00 0.0000000e+00 
0.0000000e+00 0.0000000e+00 0.0000000e+00 
0.0000000e+00 0.0000000e+00 0.0000000e+00 
0.0000000e+00 0.0000000e+00 0.0000000e+00 
0.0000000e+00 0.0000000e+00 0.0000000e+00 
0.0000000e+00 0.0000000e+00 0.0000000e+00 
0.0000000e+00 0.0000000e+00 0.0000000e+00 
0.0000000e+00 0.0000000e+00 0.0000000e+00 
0.0000000e+00 0.0000000e+00 0.0000000e+00 
0.0000000e+00 0.0000000e+00 0.0000000e+00 
0.0000000e+00 0.0000000e+00 0.0000000e+00 
0.0000000e+00 0.0000000e+00 0.0000000e+00 
0.0000000e+00 -2.4862369e-27 0.0000000e+00 
0.0000000e+00 1.1039085e-25 0.0000000e+00 
0.0000000e+00 3.6122187e-25 0.0000000e+00 
0.0000000e+00 3.6649738e-25 0.0000000e+00 
0.0000000e+00 2.2389909e-25 0.0000000e+00 
0.0000000e+00 6.4126690e-25 0.0000000e+00 
0.0000000e+00 1.5627634e-24 0.0000000e+00 
0.0000000e+00 2.4815683e-24 0.0000000e+00 
0.0000000e+00 3.9652373e-24 0.0000000e+00 
-6.6309005e-25 2.9692239e-24 0.0000000e+00 
-5.9267406e-25 1.4273397e-24 0.0000000e+00 
3.4992055e-25 1.1171809e-25 0.0000000e+00 
1.1525084e-24 -4.7063121e-25 0.0000000e+00 
1.9834420e-24 -3.2337746e-25 0.0000000e+00 
2.5399694e-24 3.1310008e-25 0.0000000e+00 
2.9263805e-24 1.3250128e-24 0.0000000e+00 
3.0513444e-24 2.8059418e-24 0.0000000e+00 
2.3647537e-24 3.8847479e-24 0.0000000e+00 
1.2592671e-24 4.6676892e-24 0.0000000e+00 
4.7090066e-26 5.1672586e-24 0.0000000e+00 
-1.1862032e-24 4.7776781e-24 0.0000000e+00 
-2.1317597e-24 3.5809343e-24 0.0000000e+00 
-2.7667859e-24 1.9897445e-24 0.0000000e+00 
-2.8034243e-24 1.1796725e-25 0.0000000e+00 
-2.2129540e-24 -1.9289519e-24 0.0000000e+00 
-1.2031089e-24 -3.5518928e-24 0.0000000e+00 
-1.0255192e-26 -4.4697052e-24 0.0000000e+00 
1.2174987e-24 -4.3533652e-24 0.0000000e+00 
2.2627805e-24 -3.3912097e-24 0.0000000e+00 
2.7224769e-24 -1.7780996e-24 0.0000000e+00 
2.5768461e-24 2.9188849e-25 0.0000000e+00 
1.7043399e-24 2.3761435e-24 0.0000000e+00 
5.1900855e-25 3.7908435e-24 0.0000000e+00 
-9.5614478e-25 4.2105254e-24 0.0000000e+00 
-1.9584440e-24 3.5658004e-24 0.0000000e+00 
-2.2526645e-24 2.6199447e-24 0.0000000e+00 
-1.8559544e-24 1.2873278e-24 0.0000000e+00 
-9.0795701e-25 2.0386912e-25 0.0000000e+00 
2.8620012e-25 -6.0309866e-25 0.0000000e+00 
1.5017987e-24 -8.3188715e-25 0.0000000e+00 
2.6774128e-24 -4.2457840e-25 0.0000000e+00 
3.4370046e-24 5.6340752e-25 0.0000000e+00 
3.7388737e-24 1.7041563e-24 0.0000000e+00 
3.4908270e-24 3.2338110e-24 0.0000000e+00 
2.5689697e-24 4.7440931e-24 0.0000000e+00 
9.5047878e-25 5.7671092e-24 0.0000000e+00 
-9.3601423e-25 6.0143809e-24 0.0000000e+00 
-2.8249389e-24 5.3614083e-24 0.0000000e+00 
-4.2550108e-24 3.5185957e-24 0.0000000e+00 
-4.7678548e-24 9.1926119e-25 0.0000000e+00 
-4.1525003e-24 -1.5606832e-24 0.0000000e+00 
-2.6917417e-24 -3.6585255e-24 0.0000000e+00 
-8.6120300e-25 -4.8039172e-24 0.0000000e+00 
7.8221396e-25 -4.9433385e-24 0.0000000e+00 
2.0171816e-24 -4.1933041e-24 0.0000000e+00 
2.4596795e-24 -2.8707993e-24 0.0000000e+00 
2.2602214e-24 -1.5104428e-24 0.0000000e+00 
1.3556041e-24 -3.1043333e-25 0.0000000e+00 
0.0000000e+00 2.9953147e-25 0.0000000e+00 
0.0000000e+00 3.7162705e-25 0.0000000e+00 
0.0000000e+00 4.8742290e-25 0.0000000e+00 
0.0000000e+00 5.6241528e-25 0.0000000e+00 
0.0000000e+00 3.6083321e-25 0.0000000e+00 
0.0000000e+00 1.7018927e-25 0.0000000e+00 
0.0000000e+00 1.4975464e-26 0.0000000e+00 
0.0000000e+00 -5.0569633e-26 0.0000000e+00 
0.0000000e+00 -5.0624619e-26 0.0000000e+00 
9.7287060e-26 4.3221985e-26 0.0000000e+00 
-1.0761623e-24 1.8749644e-24 0.0000000e+00 
1.2834900e-24 4.4413094e-24 0.0000000e+00 
-7.2322580e-25 3.4000805e-25 0.0000000e+00 
7.4508080e-25 -3.8408365e-25 0.0000000e+00 
1.1091348e-24 5.1714960e-26 0.0000000e+00 
-4.1193922e-26 6.3364168e-24 0.0000000e+00 
2.4154513e-24 -9.5806269e-26 0.0000000e+00 
-2.5749544e-24 2.3981444e-24 0.0000000e+00 
2.0291475e-25 -5.2590958e-24 0.0000000e+00 
3.1782723e-25 -4.6926722e-26 0.0000000e+00 
-2.3018330e-25 4.1830178e-25 0.0000000e+00 
-7.6888054e-26 -2.1399072e-25 0.0000000e+00 
-9.5253929e-25 -1.0860932e-24 0.0000000e+00 
1.4071316e-24 -2.6909955e-24 0.0000000e+00 
-6.3466793e-25 5.2040942e-25 0.0000000e+00 
1.8627167e-24 -8.7228689e-26 0.0000000e+00 
1.7586786e-25 3.3296975e-24 0.0000000e+00 
2.9588289e-25 6.3660488e-25 0.0000000e+00 
4.5407130e-25 2.9747728e-25 0.0000000e+00 
-7.2962435e-25 4.3397798e-24 0.0000000e+00 
-3.7206923e-25 1.2594959e-25 0.0000000e+00 
4.4571689e-26 2.5476682e-25 0.0000000e+00 
-1.2359459e-25 -2.1875123e-25 0.0000000e+00 
7.5803419e-26 -2.0028010e-25 0.0000000e+00 
1.1856905e-24 -4.7936962e-25 0.0000000e+00 
-1.8306156e-24 -2.9869396e-24 0.0000000e+00 
3.9801097e-25 8.9592452e-25 0.0000000e+00 
-2.5574562e-25 2.7006458e-25 0.0000000e+00 
9.9873340e-26 -4.2950447e-24 0.0000000e+00 
4.8475335e-25 3.6131794e-25 0.0000000e+00 
-3.5011656e-25 -5.0471666e-26 0.0000000e+00 
1.2004939e-24 -2.8309373e-25 0.0000000e+00 
-9.7586551e-25 4.0810315e-24 0.0000000e+00 
1.0188951e-24 -9.7859181e-25 0.0000000e+00 
2.6419741e-24 2.4811796e-24 0.0000000e+00 
-3.3555431e-25 2.3584615e-26 0.0000000e+00 
1.4094132e-24 -3.5759187e-24 0.0000000e+00 
-5.8893150e-26 2.3960694e-25 0.0000000e+00 
2.0617316e-24 2.0277985e-24 0.0000000e+00 
-1.8523690e-25 -1.4708305e-25 0.0000000e+00 
1.2968839e-25 1.8419873e-25 0.0000000e+00 
-2.4666951e-25 -8.6681639e-26 0.0000000e+00 
4.3664526e-25 2.3865693e-24 0.0000000e+00 
3.7966579e-25 8.0176075e-26 0.0000000e+00 
1.0941501e-25 -1.0285631e-25 0.0000000e+00 
4.8674513e-25 5.2051867e-24 0.0000000e+00 
6.8107983e-25 4.8553407e-24 0.0000000e+00 
9.9526054e-25 3.9272671e-24 0.0000000e+00 
5.8243780e-25 4.1069621e-24 0.0000000e+00 
7.4653615e-25 3.0841566e-24 0.0000000e+00 
5.1509905e-25 3.1092915e-24 0.0000000e+00 
6.6776869e-25 2.2605030e-24 0.0000000e+00 
6.5005856e-25 3.9565327e-24 0.0000000e+00 
4.3565815e-25 2.2178371e-24 0.0000000e+00 
4.9430872e-25 1.5286311e-24 0.0000000e+00 
4.0627892e-25 1.4871980e-24 0.0000000e+00 
3.1667906e-25 9.1939106e-25 0.0000000e+00 
4.9186464e-25 7.4385748e-25 0.0000000e+00 
2.5410134e-25 4.4124629e-25 0.0000000e+00 
3.8391918e-25 -1.1587874e-26 0.0000000e+00 
3.1416386e-25 -3.1588949e-26 0.0000000e+00 
8.0596864e-25 2.1859728e-24 0.0000000e+00 
4.1432552e-25 -3.5025119e-25 0.0000000e+00 
5.4300392e-25 9.6263207e-25 0.0000000e+00 
4.2200454e-25 1.9489144e-25 0.0000000e+00 
3.8292043e-25 -2.1074128e-25 0.0000000e+00 
1.7164055e-25 -2.6854529e-25 0.0000000e+00 
7.5595239e-25 -3.5129288e-25 0.0000000e+00 
5.8331531e-25 -4.6365379e-25 0.0000000e+00 
4.9139102e-25 -2.3976416e-25 0.0000000e+00 
2.8611344e-25 -4.1461065e-25 0.0000000e+00 
7.0098811e-25 -2.3039974e-25 0.0000000e+00 
1.0082292e-24 -5.8277706e-25 0.0000000e+00 
1.1420255e-24 -5.0628698e-26 0.0000000e+00 
3.2037835e-25 1.7725833e-25 0.0000000e+00 
3.4871971e-25 5.2854765e-24 0.0000000e+00 
9.5627415e-25 2.0574893e-24 0.0000000e+00 
4.2409512e-25 -2.8627291e-25 0.0000000e+00 
2.8027084e-25 -4.1783300e-25 0.0000000e+00 
5.3794772e-25 7.1881400e-26 0.0000000e+00 
5.3462780e-26 -4.6311894e-25 0.0000000e+00 
3.3830985e-25 -5.5712241e-26 0.0000000e+00 
2.1549585e-25 -1.2805594e-25 0.0000000e+00 
9.8785205e-26 -4.3166119e-25 0.0000000e+00 
6.5916882e-25 3.8374523e-25 0.0000000e+00 
8.3183903e-25 2.9082728e-25 0.0000000e+00 
6.6267600e-25 1.1777934e-24 0.0000000e+00 
6.9757323e-25 1.1555197e-24 0.0000000e+00 
5.8894408e-25 4.8374519e-25 0.0000000e+00 
2.8201615e-25 2.8907305e-25 0.0000000e+00 
1.0527905e-24 -1.8737700e-25 0.0000000e+00 
6.8389803e-26 -5.4057946e-25 0.0000000e+00 
1.4000192e-24 -4.5661823e-25 0.0000000e+00 
1.5655394e-24 3.0372920e-25 0.0000000e+00 
1.2034741e-24 -7.3131602e-25 0.0000000e+00 
9.1249464e-25 -5.7177521e-25 0.0000000e+00 
1.0777960e-24 2.8337856e-24 0.0000000e+00 
1.9680522e-24 3.6173666e-24 0.0000000e+00 
8.7199245e-25 1.5001515e-24 0.0000000e+00 
1.3637585e-24 1.9267233e-24 0.0000000e+00 
7.1705159e-25 9.2552080e-25 0.0000000e+00 
1.4173031e-24 2.5575080e-24 0.0000000e+00 
1.9450847e-24 2.0801351e-24 0.0000000e+00 
2.0791632e-24 2.6296146e-24 0.0000000e+00 
2.5411746e-24 1.8456616e-24 0.0000000e+00 
2.7641550e-24 2.1034313e-24 0.0000000e+00 
3.1833454e-24 1.3720964e-24 0.0000000e+00 
3.3947233e-24 1.3119148e-24 0.0000000e+00 
3.6596287e-24 6.5209096e-25 0.0000000e+00 
3.7768349e-24 2.8925212e-25 0.0000000e+00 
3.8613818e-24 -1.2071268e-25 0.0000000e+00 
3.8223656e-24 -7.5667844e-25 0.0000000e+00 
3.7725005e-24 -1.0318300e-24 0.0000000e+00 
3.5655909e-24 -1.8320794e-24 0.0000000e+00 
3.4136362e-24 -1.9019724e-24 0.0000000e+00 
2.9774575e-24 -2.8449529e-24 0.0000000e+00 
2.6368392e-24 -2.6852703e-24 0.0000000e+00 
2.1076837e-24 -3.2985824e-24 0.0000000e+00 
1.7066256e-24 -2.8313243e-24 0.0000000e+00 
1.1981781e-24 -3.0576716e-24 0.0000000e+00 
7.2779637e-25 -2.4378600e-24 0.0000000e+00 
3.3741871e-25 -2.3140996e-24 0.0000000e+00 
-7.9478131e-26 -1.5366168e-24 0.0000000e+00 
-3.5613379e-25 -1.1803753e-24 0.0000000e+00 
-7.3916523e-25 -3.8713623e-25 0.0000000e+00 
-8.6570996e-25 1.5452163e-25 0.0000000e+00 
-1.2210191e-24 7.2092016e-25 0.0000000e+00 
-1.1504469e-24 1.4025326e-24 0.0000000e+00 
-1.4216409e-24 1.6279797e-24 0.0000000e+00 
-1.1816784e-24 2.2620713e-24 0.0000000e+00 
-1.4081722e-24 2.1731556e-24 0.0000000e+00 
-1.0235685e-24 2.6573563e-24 0.0000000e+00 
-1.2513089e-24 2.3238466e-24 0.0000000e+00 
-7.8368736e-25 2.5851800e-24 0.0000000e+00 
-9.9681706e-25 2.1450710e-24 0.0000000e+00 
-5.1152206e-25 2.1031754e-24 0.0000000e+00 
-7.1693710e-25 1.6390626e-24 0.0000000e+00 
-3.1119320e-25 1.2772284e-24 0.0000000e+00 
-5.1241900e-25 7.2967257e-25 0.0000000e+00 
-1.8859554e-25 3.6088138e-25 0.0000000e+00 
-3.4155429e-25 -1.7998217e-25 0.0000000e+00 
-2.2018686e-26 -4.4454984e-25 0.0000000e+00 
-1.5129859e-25 -7.2672514e-25 0.0000000e+00 
1.9748048e-25 -8.5096477e-25 0.0000000e+00 
5.6956546e-26 -9.2146290e-25 0.0000000e+00 
4.4531553e-25 -8.2120489e-25 0.0000000e+00 
2.0603075e-25 -6.3532609e-25 0.0000000e+00 
6.4789126e-25 -1.9129838e-25 0.0000000e+00 
3.9014181e-25 2.2027333e-25 0.0000000e+00 
8.5228651e-25 8.7589100e-25 0.0000000e+00 
5.6085170e-25 1.3462606e-24 0.0000000e+00 
9.9516637e-25 2.1948568e-24 0.0000000e+00 
7.1764195e-25 2.3767918e-24 0.0000000e+00 
1.1721826e-24 3.3192411e-24 0.0000000e+00 
9.8659422e-25 3.2184880e-24 0.0000000e+00 
1.4185042e-24 4.0529792e-24 0.0000000e+00 
1.2820562e-24 3.6368235e-24 0.0000000e+00 
1.6776374e-24 4.3954521e-24 0.0000000e+00 
1.6375090e-24 3.5499739e-24 0.0000000e+00 
2.0292476e-24 3.8917175e-24 0.0000000e+00 
1.9785909e-24 2.7537387e-24 0.0000000e+00 
2.2145530e-24 2.4605465e-24 0.0000000e+00 
2.0484324e-24 1.4075113e-24 0.0000000e+00 
2.1837747e-24 7.3880078e-25 0.0000000e+00 
1.8845416e-24 5.4119605e-26 0.0000000e+00 
1.9738994e-24 -9.5903122e-25 0.0000000e+00 
1.4645945e-24 -1.0213037e-24 0.0000000e+00 
1.3843156e-24 -2.1632183e-24 0.0000000e+00 
8.4125478e-25 -1.8509077e-24 0.0000000e+00 
6.7259607e-25 -2.7533951e-24 0.0000000e+00 
1.9779959e-25 -2.0797186e-24 0.0000000e+00 
-1.0667372e-27 -2.6848563e-24 0.0000000e+00 
-3.4374602e-25 -1.8439020e-24 0.0000000e+00 
3.2172355e-24 1.3022419e-24 0.0000000e+00 
2.9720299e-24 -2.6013954e-24 0.0000000e+00 
7.5449324e-25 -3.1134593e-24 0.0000000e+00 
-8.5797222e-25 9.5316209e-25 0.0000000e+00 
-7.8309729e-25 2.8952242e-24 0.0000000e+00 
-2.5969912e-25 2.5978501e-24 0.0000000e+00 
2.7608160e-25 -2.4522713e-25 0.0000000e+00 
6.5157899e-25 -8.7703721e-25 0.0000000e+00 
1.0696673e-24 5.1714684e-25 0.0000000e+00 
1.4595063e-24 4.3325953e-24 0.0000000e+00 
2.0772126e-24 3.8354512e-24 0.0000000e+00 
2.0477267e-24 -2.6418676e-25 0.0000000e+00 
1.1209088e-24 -3.4044476e-24 0.0000000e+00 
-4.5792912e-25 -2.0784298e-24 0.0000000e+00 
-4.0602474e-26 -3.0770764e-24 0.0000000e+00 
-6.6198949e-25 -1.3273299e-24 0.0000000e+00 
3.2728680e-25 -1.3150662e-24 0.0000000e+00 
7.0182292e-25 2.7184208e-24 0.0000000e+00 
-6.9137742e-26 -7.6232722e-25 0.0000000e+00 
-3.8366507e-25 1.5347338e-25 0.0000000e+00 
-1.7283337e-24 1.7061847e-24 0.0000000e+00 
1.3341509e-24 -2.1085392e-24 0.0000000e+00 
3.4489291e-24 4.3366445e-26 0.0000000e+00 
2.0698199e-24 1.3988770e-24 0.0000000e+00 
-3.2392295e-25 -2.2268254e-24 0.0000000e+00 
1.1821376e-25 -3.2657151e-24 0.0000000e+00 
-5.0342973e-25 -1.0986117e-24 0.0000000e+00 
1.6782258e-24 6.5715131e-25 0.0000000e+00 
1.4817297e-24 2.4452215e-24 0.0000000e+00 
2.4046847e-26 5.6991276e-25 0.0000000e+00 
-1.4277424e-24 1.8987673e-24 0.0000000e+00 
-5.3796764e-25 -5.3828466e-25 0.0000000e+00 
3.4233865e-24 -1.3254603e-24 0.0000000e+00 
-4.5181417e-26 -2.0783503e-24 0.0000000e+00 
-6.4711572e-25 -7.4258682e-25 0.0000000e+00 
4.2822446e-25 -4.1363436e-24 0.0000000e+00 
2.0419173e-24 3.0637792e-24 0.0000000e+00 
5.7073081e-25 -4.3793810e-24 0.0000000e+00 
6.7971924e-25 -5.0070781e-24 0.0000000e+00 
-4.3535656e-25 -1.1765918e-24 0.0000000e+00 
-4.9685250e-25 -5.7363421e-25 0.0000000e+00 
-7.3673100e-25 -7.5478724e-25 0.0000000e+00 
-3.0443759e-25 -8.1084813e-25 0.0000000e+00 
-5.0746791e-25 -3.8656783e-25 0.0000000e+00 
-1.0239523e-25 -8.1904484e-25 0.0000000e+00 
2.6278534e-25 -1.6842636e-24 0.0000000e+00 
2.3310455e-25 -3.9968900e-25 0.0000000e+00 
6.7918469e-25 -1.1676289e-24 0.0000000e+00 
-3.9375228e-25 -1.5427876e-25 0.0000000e+00 
-5.3888923e-25 -3.3364364e-25 0.0000000e+00 
4.0282965e-25 -3.1478816e-24 0.0000000e+00 
1.1071025e-24 1.3653200e-24 0.0000000e+00 
7.5006680e-25 7.9008596e-25 0.0000000e+00 
4.9658676e-25 4.6589583e-25 0.0000000e+00 
1.1602332e-24 9.5275248e-25 0.0000000e+00 
4.1666686e-25 3.7345750e-25 0.0000000e+00 
1.7457999e-24 1.6660445e-24 0.0000000e+00 
1.1598220e-24 1.4258701e-24 0.0000000e+00 
8.4530489e-25 1.8215567e-24 0.0000000e+00 
1.2814724e-24 8.5615626e-25 0.0000000e+00 
1.0911408e-24 2.4704244e-25 0.0000000e+00 
1.6300582e-24 -6.2515516e-25 0.0000000e+00 
1.0010778e-25 -1.7945448e-25 0.0000000e+00 
1.2618772e-25 -6.1173014e-26 0.0000000e+00 
1.8684876e-25 4.2488541e-27 0.0000000e+00 
4.6775675e-25 5.0869094e-25 0.0000000e+00 
6.9154318e-25 4.9823311e-25 0.0000000e+00 
1.7994580e-24 5.0130667e-24 0.0000000e+00 
1.4748865e-24 5.3103895e-24 0.0000000e+00 
1.3677942e-24 4.3854111e-24 0.0000000e+00 
1.6033044e-24 5.6258483e-24 0.0000000e+00 
1.2680883e-24 5.4037236e-24 0.0000000e+00 
1.4891736e-24 4.0365654e-24 0.0000000e+00 
1.4014320e-24 2.9835132e-24 0.0000000e+00 
1.7212801e-24 2.4819495e-24 0.0000000e+00 
1.4451220e-24 4.9575064e-24 0.0000000e+00 
1.1569378e-24 6.1651140e-24 0.0000000e+00 
8.8715357e-25 5.8349079e-24 0.0000000e+00 
1.5735875e-24 5.2381678e-24 0.0000000e+00 
6.4196731e-25 4.6827355e-24 0.0000000e+00 
-2.8441059e-25 5.5178028e-24 0.0000000e+00 
1.4951730e-24 3.4357937e-24 0.0000000e+00 
5.8607317e-25 2.3146670e-24 0.0000000e+00 
1.4421254e-24 8.1783951e-25 0.0000000e+00 
4.7563639e-25 -5.2543362e-25 0.0000000e+00 
1.2886345e-24 -1.6264553e-24 0.0000000e+00 
4.3831755e-25 -2.9829298e-24 0.0000000e+00 
1.0501936e-24 -3.6636653e-24 0.0000000e+00 
1.0477416e-24 -3.4798671e-25 0.0000000e+00 
1.7879974e-24 -8.5968089e-25 0.0000000e+00 
1.3208319e-24 -9.3843850e-25 0.0000000e+00 
2.2771882e-24 -1.5208489e-24 0.0000000e+00 
2.2075454e-24 -7.1361058e-25 0.0000000e+00 
2.2825558e-24 -4.7918473e-25 0.0000000e+00 
1.9198255e-24 -2.4715036e-24 0.0000000e+00 
-2.6928619e-24 -4.8900521e-25 0.0000000e+00 
-8.0883013e-25 -4.7319080e-24 0.0000000e+00 
2.2483238e-24 1.8331767e-24 0.0000000e+00 
-4.5456892e-25 4.0817833e-25 0.0000000e+00 
-7.2415636e-25 7.4633312e-25 0.0000000e+00 
-4.4608319e-25 4.7435602e-25 0.0000000e+00 
-8.5330847e-25 1.0116397e-24 0.0000000e+00 
1.3546507e-25 5.1062355e-25 0.0000000e+00 
2.0678016e-24 6.3804944e-25 0.0000000e+00 
2.8533190e-24 1.0333116e-24 0.0000000e+00 
2.0697014e-24 4.1056581e-25 0.0000000e+00 
1.8178613e-24 -5.9694318e-25 0.0000000e+00 
1.6174767e-24 -1.6912142e-25 0.0000000e+00 
1.3528609e-24 -8.6986371e-25 0.0000000e+00 
3.3496004e-24 -1.3506059e-24 0.0000000e+00 
2.6567317e-24 -2.0864466e-24 0.0000000e+00 
2.2273985e-24 -3.3834789e-24 0.0000000e+00 
2.9890214e-24 -5.9998660e-25 0.0000000e+00 
1.7029791e-24 -2.9517049e-24 0.0000000e+00 
1.4141724e-24 -4.0964442e-24 0.0000000e+00 
1.7032247e-24 -4.1666016e-24 0.0000000e+00 
1.0840394e-24 -4.6050221e-24 0.0000000e+00 
5.2141517e-25 -4.5996783e-24 0.0000000e+00 
1.9231967e-24 5.2237636e-24 0.0000000e+00 
4.7209292e-25 5.4932201e-25 0.0000000e+00 
3.9247605e-25 2.2384299e-24 0.0000000e+00 
2.0329360e-25 1.7029742e-24 0.0000000e+00 
1.3615345e-26 1.3416315e-24 0.0000000e+00 
-4.2420847e-25 -2.9859829e-24 0.0000000e+00 
-1.3870427e-24 3.2112687e-24 0.0000000e+00 
-3.9497694e-25 2.4108849e-24 0.0000000e+00 
-1.4702632e-25 1.1572339e-24 0.0000000e+00 
1.2045354e-25 1.7536816e-24 0.0000000e+00 
3.1034419e-25 4.5901864e-25 0.0000000e+00 
-3.4463755e-26 2.9445466e-24 0.0000000e+00 
2.6135258e-25 -1.4075724e-25 0.0000000e+00 
6.0242152e-25 -6.2872885e-25 0.0000000e+00 
3.6323337e-25 1.1027105e-24 0.0000000e+00 
-4.9133215e-25 3.7037552e-24 0.0000000e+00 
-4.5703110e-25 4.1785820e-24 0.0000000e+00 
-2.2309992e-25 3.7669410e-24 0.0000000e+00 
-4.8026207e-25 3.7877070e-24 0.0000000e+00 
-3.7961071e-25 3.8968948e-24 0.0000000e+00 
-5.7335121e-25 3.1220894e-24 0.0000000e+00 
-2.7631470e-25 2.6202545e-24 0.0000000e+00 
-4.3336232e-25 1.3627016e-24 0.0000000e+00 
8.7356682e-26 4.3487397e-25 0.0000000e+00 
-1.9458911e-25 -6.0171588e-25 0.0000000e+00 
5.0691216e-25 -1.6224283e-24 0.0000000e+00 
2.3893847e-25 -2.4496833e-24 0.0000000e+00 
-1.9418363e-25 -1.4762228e-24 0.0000000e+00 
7.1796992e-25 -3.4564232e-24 0.0000000e+00 
6.5477940e-25 -3.8959477e-24 0.0000000e+00 
1.1099549e-24 -4.1870871e-24 0.0000000e+00 
1.2776588e-24 -7.9177644e-25 0.0000000e+00 
-4.9491516e-25 4.4994323e-24 0.0000000e+00 
3.6712096e-24 -6.2251933e-25 0.0000000e+00 
-9.6515909e-25 2.2140770e-24 0.0000000e+00 
-3.5356795e-25 2.2598452e-25 0.0000000e+00 
-3.6561691e-25 2.7784066e-25 0.0000000e+00 
-3.7597318e-25 -1.7872280e-25 0.0000000e+00 
-1.2070840e-24 2.9999903e-24 0.0000000e+00 
2.9869074e-25 3.5909800e-24 0.0000000e+00 
1.9657083e-25 1.9162569e-24 0.0000000e+00 
1.4957082e-24 2.4553586e-24 0.0000000e+00 
1.3948085e-24 3.8431142e-24 0.0000000e+00 
-1.4600476e-24 1.0840463e-24 0.0000000e+00 
4.1249897e-25 -2.4210674e-25 0.0000000e+00 