# vtk DataFile Version 4.0
vtk output
ASCII
DATASET UNSTRUCTURED_GRID
POINTS 1659 float
0.0000000e+00 0.0000000e+00 0.0000000e+00 
0.0000000e+00 0.0000000e+00 5.0000000e+01 
5.0000000e+00 0.0000000e+00 0.0000000e+00 
5.0000000e+00 0.0000000e+00 5.0000000e+01 
5.0000000e+00 1.0000000e+00 0.0000000e+00 
5.0000000e+00 1.0000000e+00 5.0000000e+01 
0.0000000e+00 1.0000000e+00 0.0000000e+00 
0.0000000e+00 1.0000000e+00 5.0000000e+01 
5.0000000e+00 2.0000000e+00 0.0000000e+00 
5.0000000e+00 2.0000000e+00 5.0000000e+01 
3.0000000e+00 2.0000000e+00 0.0000000e+00 
3.0000000e+00 2.0000000e+00 5.0000000e+01 
0.0000000e+00 2.0000000e+00 0.0000000e+00 
0.0000000e+00 2.0000000e+00 5.0000000e+01 
1.5000000e+00 3.0000000e+00 0.0000000e+00 
1.5000000e+00 3.0000000e+00 5.0000000e+01 
7.5000000e-01 3.0000000e+00 0.0000000e+00 
7.5000000e-01 3.0000000e+00 5.0000000e+01 
0.0000000e+00 3.0000000e+00 0.0000000e+00 
0.0000000e+00 3.0000000e+00 5.0000000e+01 
0.0000000e+00 0.0000000e+00 1.0000000e+00 
0.0000000e+00 0.0000000e+00 2.0000000e+00 
0.0000000e+00 0.0000000e+00 3.0000000e+00 
0.0000000e+00 0.0000000e+00 4.0000000e+00 
0.0000000e+00 0.0000000e+00 5.0000000e+00 
0.0000000e+00 0.0000000e+00 6.0000000e+00 
0.0000000e+00 0.0000000e+00 7.0000000e+00 
0.0000000e+00 0.0000000e+00 8.0000000e+00 
0.0000000e+00 0.0000000e+00 9.0000000e+00 
0.0000000e+00 0.0000000e+00 1.0000000e+01 
0.0000000e+00 0.0000000e+00 1.1000000e+01 
0.0000000e+00 0.0000000e+00 1.2000000e+01 
0.0000000e+00 0.0000000e+00 1.3000000e+01 
0.0000000e+00 0.0000000e+00 1.4000000e+01 
0.0000000e+00 0.0000000e+00 1.5000000e+01 
0.0000000e+00 0.0000000e+00 1.6000000e+01 
0.0000000e+00 0.0000000e+00 1.7000000e+01 
0.0000000e+00 0.0000000e+00 1.8000000e+01 
0.0000000e+00 0.0000000e+00 1.9000000e+01 
0.0000000e+00 0.0000000e+00 2.0000000e+01 
0.0000000e+00 0.0000000e+00 2.1000000e+01 
0.0000000e+00 0.0000000e+00 2.2000000e+01 
0.0000000e+00 0.0000000e+00 2.3000000e+01 
0.0000000e+00 0.0000000e+00 2.4000000e+01 
0.0000000e+00 0.0000000e+00 2.5000000e+01 
0.0000000e+00 0.0000000e+00 2.6000000e+01 
0.0000000e+00 0.0000000e+00 2.7000000e+01 
0.0000000e+00 0.0000000e+00 2.8000000e+01 
0.0000000e+00 0.0000000e+00 2.9000000e+01 
0.0000000e+00 0.0000000e+00 3.0000000e+01 
0.0000000e+00 0.0000000e+00 3.1000000e+01 
0.0000000e+00 0.0000000e+00 3.2000000e+01 
0.0000000e+00 0.0000000e+00 3.3000000e+01 
0.0000000e+00 0.0000000e+00 3.4000000e+01 
0.0000000e+00 0.0000000e+00 3.5000000e+01 
0.0000000e+00 0.0000000e+00 3.6000000e+01 
0.0000000e+00 0.0000000e+00 3.7000000e+01 
0.0000000e+00 0.0000000e+00 3.8000000e+01 
0.0000000e+00 0.0000000e+00 3.9000000e+01 
0.0000000e+00 0.0000000e+00 4.0000000e+01 
0.0000000e+00 0.0000000e+00 4.1000000e+01 
0.0000000e+00 0.0000000e+00 4.2000000e+01 
0.0000000e+00 0.0000000e+00 4.3000000e+01 
0.0000000e+00 0.0000000e+00 4.4000000e+01 
0.0000000e+00 0.0000000e+00 4.5000000e+01 
0.0000000e+00 0.0000000e+00 4.6000000e+01 
0.0000000e+00 0.0000000e+00 4.7000000e+01 
0.0000000e+00 0.0000000e+00 4.8000000e+01 
0.0000000e+00 0.0000000e+00 4.9000000e+01 
5.0000000e+00 0.0000000e+00 1.0000000e+00 
5.0000000e+00 0.0000000e+00 2.0000000e+00 
5.0000000e+00 0.0000000e+00 3.0000000e+00 
5.0000000e+00 0.0000000e+00 4.0000000e+00 
5.0000000e+00 0.0000000e+00 5.0000000e+00 
5.0000000e+00 0.0000000e+00 6.0000000e+00 
5.0000000e+00 0.0000000e+00 7.0000000e+00 
5.0000000e+00 0.0000000e+00 8.0000000e+00 
5.0000000e+00 0.0000000e+00 9.0000000e+00 
5.0000000e+00 0.0000000e+00 1.0000000e+01 
5.0000000e+00 0.0000000e+00 1.1000000e+01 
5.0000000e+00 0.0000000e+00 1.2000000e+01 
5.0000000e+00 0.0000000e+00 1.3000000e+01 
5.0000000e+00 0.0000000e+00 1.4000000e+01 
5.0000000e+00 0.0000000e+00 1.5000000e+01 
5.0000000e+00 0.0000000e+00 1.6000000e+01 
5.0000000e+00 0.0000000e+00 1.7000000e+01 
5.0000000e+00 0.0000000e+00 1.8000000e+01 
5.0000000e+00 0.0000000e+00 1.9000000e+01 
5.0000000e+00 0.0000000e+00 2.0000000e+01 
5.0000000e+00 0.0000000e+00 2.1000000e+01 
5.0000000e+00 0.0000000e+00 2.2000000e+01 
5.0000000e+00 0.0000000e+00 2.3000000e+01 
5.0000000e+00 0.0000000e+00 2.4000000e+01 
5.0000000e+00 0.0000000e+00 2.5000000e+01 
5.0000000e+00 0.0000000e+00 2.6000000e+01 
5.0000000e+00 0.0000000e+00 2.7000000e+01 
5.0000000e+00 0.0000000e+00 2.8000000e+01 
5.0000000e+00 0.0000000e+00 2.9000000e+01 
5.0000000e+00 0.0000000e+00 3.0000000e+01 
5.0000000e+00 0.0000000e+00 3.1000000e+01 
5.0000000e+00 0.0000000e+00 3.2000000e+01 
5.0000000e+00 0.0000000e+00 3.3000000e+01 
5.0000000e+00 0.0000000e+00 3.4000000e+01 
5.0000000e+00 0.0000000e+00 3.5000000e+01 
5.0000000e+00 0.0000000e+00 3.6000000e+01 
5.0000000e+00 0.0000000e+00 3.7000000e+01 
5.0000000e+00 0.0000000e+00 3.8000000e+01 
5.0000000e+00 0.0000000e+00 3.9000000e+01 
5.0000000e+00 0.0000000e+00 4.0000000e+01 
5.0000000e+00 0.0000000e+00 4.1000000e+01 
5.0000000e+00 0.0000000e+00 4.2000000e+01 
5.0000000e+00 0.0000000e+00 4.3000000e+01 
5.0000000e+00 0.0000000e+00 4.4000000e+01 
5.0000000e+00 0.0000000e+00 4.5000000e+01 
5.0000000e+00 0.0000000e+00 4.6000000e+01 
5.0000000e+00 0.0000000e+00 4.7000000e+01 
5.0000000e+00 0.0000000e+00 4.8000000e+01 
5.0000000e+00 0.0000000e+00 4.9000000e+01 
1.0000000e+00 0.0000000e+00 0.0000000e+00 
2.0000000e+00 0.0000000e+00 0.0000000e+00 
3.0000000e+00 0.0000000e+00 0.0000000e+00 
4.0000000e+00 0.0000000e+00 0.0000000e+00 
1.0000000e+00 0.0000000e+00 5.0000000e+01 
2.0000000e+00 0.0000000e+00 5.0000000e+01 
3.0000000e+00 0.0000000e+00 5.0000000e+01 
4.0000000e+00 0.0000000e+00 5.0000000e+01 
5.0000000e+00 1.0000000e+00 1.0000000e+00 
5.0000000e+00 1.0000000e+00 2.0000000e+00 
5.0000000e+00 1.0000000e+00 3.0000000e+00 
5.0000000e+00 1.0000000e+00 4.0000000e+00 
5.0000000e+00 1.0000000e+00 5.0000000e+00 
5.0000000e+00 1.0000000e+00 6.0000000e+00 
5.0000000e+00 1.0000000e+00 7.0000000e+00 
5.0000000e+00 1.0000000e+00 8.0000000e+00 
5.0000000e+00 1.0000000e+00 9.0000000e+00 
5.0000000e+00 1.0000000e+00 1.0000000e+01 
5.0000000e+00 1.0000000e+00 1.1000000e+01 
5.0000000e+00 1.0000000e+00 1.2000000e+01 
5.0000000e+00 1.0000000e+00 1.3000000e+01 
5.0000000e+00 1.0000000e+00 1.4000000e+01 
5.0000000e+00 1.0000000e+00 1.5000000e+01 
5.0000000e+00 1.0000000e+00 1.6000000e+01 
5.0000000e+00 1.0000000e+00 1.7000000e+01 
5.0000000e+00 1.0000000e+00 1.8000000e+01 
5.0000000e+00 1.0000000e+00 1.9000000e+01 
5.0000000e+00 1.0000000e+00 2.0000000e+01 
5.0000000e+00 1.0000000e+00 2.1000000e+01 
5.0000000e+00 1.0000000e+00 2.2000000e+01 
5.0000000e+00 1.0000000e+00 2.3000000e+01 
5.0000000e+00 1.0000000e+00 2.4000000e+01 
5.0000000e+00 1.0000000e+00 2.5000000e+01 
5.0000000e+00 1.0000000e+00 2.6000000e+01 
5.0000000e+00 1.0000000e+00 2.7000000e+01 
5.0000000e+00 1.0000000e+00 2.8000000e+01 
5.0000000e+00 1.0000000e+00 2.9000000e+01 
5.0000000e+00 1.0000000e+00 3.0000000e+01 
5.0000000e+00 1.0000000e+00 3.1000000e+01 
5.0000000e+00 1.0000000e+00 3.2000000e+01 
5.0000000e+00 1.0000000e+00 3.3000000e+01 
5.0000000e+00 1.0000000e+00 3.4000000e+01 
5.0000000e+00 1.0000000e+00 3.5000000e+01 
5.0000000e+00 1.0000000e+00 3.6000000e+01 
5.0000000e+00 1.0000000e+00 3.7000000e+01 
5.0000000e+00 1.0000000e+00 3.8000000e+01 
5.0000000e+00 1.0000000e+00 3.9000000e+01 
5.0000000e+00 1.0000000e+00 4.0000000e+01 
5.0000000e+00 1.0000000e+00 4.1000000e+01 
5.0000000e+00 1.0000000e+00 4.2000000e+01 
5.0000000e+00 1.0000000e+00 4.3000000e+01 
5.0000000e+00 1.0000000e+00 4.4000000e+01 
5.0000000e+00 1.0000000e+00 4.5000000e+01 
5.0000000e+00 1.0000000e+00 4.6000000e+01 
5.0000000e+00 1.0000000e+00 4.7000000e+01 
5.0000000e+00 1.0000000e+00 4.8000000e+01 
5.0000000e+00 1.0000000e+00 4.9000000e+01 
0.0000000e+00 1.0000000e+00 1.0000000e+00 
0.0000000e+00 1.0000000e+00 2.0000000e+00 
0.0000000e+00 1.0000000e+00 3.0000000e+00 
0.0000000e+00 1.0000000e+00 4.0000000e+00 
0.0000000e+00 1.0000000e+00 5.0000000e+00 
0.0000000e+00 1.0000000e+00 6.0000000e+00 
0.0000000e+00 1.0000000e+00 7.0000000e+00 
0.0000000e+00 1.0000000e+00 8.0000000e+00 
0.0000000e+00 1.0000000e+00 9.0000000e+00 
0.0000000e+00 1.0000000e+00 1.0000000e+01 
0.0000000e+00 1.0000000e+00 1.1000000e+01 
0.0000000e+00 1.0000000e+00 1.2000000e+01 
0.0000000e+00 1.0000000e+00 1.3000000e+01 
0.0000000e+00 1.0000000e+00 1.4000000e+01 
0.0000000e+00 1.0000000e+00 1.5000000e+01 
0.0000000e+00 1.0000000e+00 1.6000000e+01 
0.0000000e+00 1.0000000e+00 1.7000000e+01 
0.0000000e+00 1.0000000e+00 1.8000000e+01 
0.0000000e+00 1.0000000e+00 1.9000000e+01 
0.0000000e+00 1.0000000e+00 2.0000000e+01 
0.0000000e+00 1.0000000e+00 2.1000000e+01 
0.0000000e+00 1.0000000e+00 2.2000000e+01 
0.0000000e+00 1.0000000e+00 2.3000000e+01 
0.0000000e+00 1.0000000e+00 2.4000000e+01 
0.0000000e+00 1.0000000e+00 2.5000000e+01 
0.0000000e+00 1.0000000e+00 2.6000000e+01 
0.0000000e+00 1.0000000e+00 2.7000000e+01 
0.0000000e+00 1.0000000e+00 2.8000000e+01 
0.0000000e+00 1.0000000e+00 2.9000000e+01 
0.0000000e+00 1.0000000e+00 3.0000000e+01 
0.0000000e+00 1.0000000e+00 3.1000000e+01 
0.0000000e+00 1.0000000e+00 3.2000000e+01 
0.0000000e+00 1.0000000e+00 3.3000000e+01 
0.0000000e+00 1.0000000e+00 3.4000000e+01 
0.0000000e+00 1.0000000e+00 3.5000000e+01 
0.0000000e+00 1.0000000e+00 3.6000000e+01 
0.0000000e+00 1.0000000e+00 3.7000000e+01 
0.0000000e+00 1.0000000e+00 3.8000000e+01 
0.0000000e+00 1.0000000e+00 3.9000000e+01 
0.0000000e+00 1.0000000e+00 4.0000000e+01 
0.0000000e+00 1.0000000e+00 4.1000000e+01 
0.0000000e+00 1.0000000e+00 4.2000000e+01 
0.0000000e+00 1.0000000e+00 4.3000000e+01 
0.0000000e+00 1.0000000e+00 4.4000000e+01 
0.0000000e+00 1.0000000e+00 4.5000000e+01 
0.0000000e+00 1.0000000e+00 4.6000000e+01 
0.0000000e+00 1.0000000e+00 4.7000000e+01 
0.0000000e+00 1.0000000e+00 4.8000000e+01 
0.0000000e+00 1.0000000e+00 4.9000000e+01 
4.0000000e+00 1.0000000e+00 0.0000000e+00 
3.0000000e+00 1.0000000e+00 0.0000000e+00 
2.0000000e+00 1.0000000e+00 0.0000000e+00 
1.0000000e+00 1.0000000e+00 0.0000000e+00 
4.0000000e+00 1.0000000e+00 5.0000000e+01 
3.0000000e+00 1.0000000e+00 5.0000000e+01 
[...]
POINT_DATA 1659
FIELD FieldData 2
DISPLACEMENT 3 1659  float
0.0000000e+00 0.0000000e+00 0.0000000e+00 
0.0000000e+00 0.0000000e+00 0.0000000e+00 
0.0000000e+00 0.0000000e+00 0.0000000e+00 
0.0000000e+00 0.0000000e+00 0.0000000e+00 
0.0000000e+00 9.9945101e-11 0.0000000e+00 
0.0000000e+00 3.5201412e-14 0.0000000e+00 
0.0000000e+00 -4.9663353e-09 0.0000000e+00 
0.0000000e+00 1.1421016e-13 0.0000000e+00 
0.0000000e+00 3.4234056e-09 0.0000000e+00 
0.0000000e+00 7.4065957e-14 0.0000000e+00 
0.0000000e+00 2.7346667e-08 0.0000000e+00 
0.0000000e+00 1.9751487e-13 0.0000000e+00 
0.0000000e+00 -2.9701866e-10 0.0000000e+00 
0.0000000e+00 -2.5641812e-13 0.0000000e+00 
0.0000000e+00 -5.5761944e-08 0.0000000e+00 
-4.5591148e-12 1.9145907e-12 2.6978398e-12 
0.0000000e+00 -3.7269768e-08 0.0000000e+00 
0.0000000e+00 1.4674932e-12 0.0000000e+00 
0.0000000e+00 1.1864644e-08 0.0000000e+00 
0.0000000e+00 6.5133294e-13 0.0000000e+00 
0.0000000e+00 0.0000000e+00 0.0000000e+00 
0.0000000e+00 0.0000000e+00 0.0000000e+00 
0.0000000e+00 0.0000000e+00 0.0000000e+00 
0.0000000e+00 0.0000000e+00 0.0000000e+00 
0.0000000e+00 0.0000000e+00 0.0000000e+00 
0.0000000e+00 0.0000000e+00 0.0000000e+00 
0.0000000e+00 0.0000000e+00 0.0000000e+00 
0.0000000e+00 0.0000000e+00 0.0000000e+00 
0.0000000e+00 0.0000000e+00 0.0000000e+00 
0.0000000e+00 0.0000000e+00 0.0000000e+00 
0.0000000e+00 0.0000000e+00 0.0000000e+00 
0.0000000e+00 0.0000000e+00 0.0000000e+00 
0.0000000e+00 0.0000000e+00 0.0000000e+00 
0.0000000e+00 0.0000000e+00 0.0000000e+00 
0.0000000e+00 0.0000000e+00 0.0000000e+00 
0.0000000e+00 0.0000000e+00 0.0000000e+00 
0.0000000e+00 0.0000000e+00 0.0000000e+00 
0.0000000e+00 0.0000000e+00 0.0000000e+00 
0.0000000e+00 0.0000000e+00 0.0000000e+00 
0.0000000e+00 0.0000000e+00 0.0000000e+00 
0.0000000e+00 0.0000000e+00 0.0000000e+00 
0.0000000e+00 0.0000000e+00 0.0000000e+00 
0.0000000e+00 0.0000000e+00 0.0000000e+00 
0.0000000e+00 0.0000000e+00 0.0000000e+00 
0.0000000e+00 0.0000000e+00 0.0000000e+00 
0.0000000e+00 0.0000000e+00 0.0000000e+00 
0.0000000e+00 0.0000000e+00 0.0000000e+00 
0.0000000e+00 0.0000000e+00 0.0000000e+00 
0.0000000e+00 0.0000000e+00 0.0000000e+00 
0.0000000e+00 0.0000000e+00 0.0000000e+00 
0.0000000e+00 0.0000000e+00 0.0000000e+00 
0.0000000e+00 0.0000000e+00 0.0000000e+00 
0.0000000e+00 0.0000000e+00 0.0000000e+00 
0.0000000e+00 0.0000000e+00 0.0000000e+00 
0.0000000e+00 0.0000000e+00 0.0000000e+00 
0.0000000e+00 0.0000000e+00 0.0000000e+00 
0.0000000e+00 0.0000000e+00 0.0000000e+00 
0.0000000e+00 0.0000000e+00 0.0000000e+00 
0.0000000e+00 0.0000000e+00 0.0000000e+00 
0.0000000e+00 0.0000000e+00 0.0000000e+00 
0.0000000e+00 0.0000000e+00 0.0000000e+00 
0.0000000e+00 0.0000000e+00 0.0000000e+00 
0.0000000e+00 0.0000000e+00 0.0000000e+00 
0.0000000e+00 0.0000000e+00 0.0000000e+00 
0.0000000e+00 0.0000000e+00 0.0000000e+00 
0.0000000e+00 0.0000000e+00 0.0000000e+00 
0.0000000e+00 0.0000000e+00 0.0000000e+00 
0.0000000e+00 0.0000000e+00 0.0000000e+00 
0.0000000e+00 0.0000000e+00 0.0000000e+00 
0.0000000e+00 0.0000000e+00 0.0000000e+00 
0.0000000e+00 0.0000000e+00 0.0000000e+00 
0.0000000e+00 0.0000000e+00 0.0000000e+00 
0.0000000e+00 0.0000000e+00 0.0000000e+00 
0.0000000e+00 0.0000000e+00 0.0000000e+00 
0.0000000e+00 0.0000000e+00 0.0000000e+00 
0.0000000e+00 0.0000000e+00 0.0000000e+00 
0.0000000e+00 0.0000000e+00 0.0000000e+00 
0.0000000e+00 0.0000000e+00 0.0000000e+00 
0.0000000e+00 0.0000000e+00 0.0000000e+00 
0.0000000e+00 0.0000000e+00 0.0000000e+00 
0.0000000e+00 0.0000000e+00 0.0000000e+00 
0.0000000e+00 0.0000000e+00 0.0000000e+00 
0.0000000e+00 0.0000000e+00 0.0000000e+00 
0.0000000e+00 0.0000000e+00 0.0000000e+00 
0.0000000e+00 0.0000000e+00 0.0000000e+00 
0.0000000e+00 0.0000000e+00 0.0000000e+00 
0.0000000e+00 0.0000000e+00 0.0000000e+00 
0.0000000e+00 0.0000000e+00 0.0000000e+00 
0.0000000e+00 0.0000000e+00 0.0000000e+00 
0.0000000e+00 0.0000000e+00 0.0000000e+00 
0.0000000e+00 0.0000000e+00 0.0000000e+00 
0.0000000e+00 0.0000000e+00 0.0000000e+00 
0.0000000e+00 0.0000000e+00 0.0000000e+00 
0.0000000e+00 0.0000000e+00 0.0000000e+00 
0.0000000e+00 0.0000000e+00 0.0000000e+00 
0.0000000e+00 0.0000000e+00 0.0000000e+00 
0.0000000e+00 0.0000000e+00 0.0000000e+00 
0.0000000e+00 0.0000000e+00 0.0000000e+00 
0.0000000e+00 0.0000000e+00 0.0000000e+00 
0.0000000e+00 0.0000000e+00 0.0000000e+00 
0.0000000e+00 0.0000000e+00 0.0000000e+00 
0.0000000e+00 0.0000000e+00 0.0000000e+00 
0.0000000e+00 0.0000000e+00 0.0000000e+00 
0.0000000e+00 0.0000000e+00 0.0000000e+00 
0.0000000e+00 0.0000000e+00 0.0000000e+00 
0.0000000e+00 0.0000000e+00 0.0000000e+00 
0.0000000e+00 0.0000000e+00 0.0000000e+00 
0.0000000e+00 0.0000000e+00 0.0000000e+00 
0.0000000e+00 0.0000000e+00 0.0000000e+00 
0.0000000e+00 0.0000000e+00 0.0000000e+00 
0.0000000e+00 0.0000000e+00 0.0000000e+00 
0.0000000e+00 0.0000000e+00 0.0000000e+00 
0.0000000e+00 0.0000000e+00 0.0000000e+00 
0.0000000e+00 0.0000000e+00 0.0000000e+00 
0.0000000e+00 0.0000000e+00 0.0000000e+00 
0.0000000e+00 0.0000000e+00 0.0000000e+00 
0.0000000e+00 0.0000000e+00 0.0000000e+00 
0.0000000e+00 0.0000000e+00 0.0000000e+00 
0.0000000e+00 0.0000000e+00 0.0000000e+00 
0.0000000e+00 0.0000000e+00 0.0000000e+00 
0.0000000e+00 0.0000000e+00 0.0000000e+00 
0.0000000e+00 0.0000000e+00 0.0000000e+00 
0.0000000e+00 0.0000000e+00 0.0000000e+00 
0.0000000e+00 0.0000000e+00 0.0000000e+00 
0.0000000e+00 0.0000000e+00 0.0000000e+00 
0.0000000e+00 0.0000000e+00 0.0000000e+00 
0.0000000e+00 5.8188290e-09 0.0000000e+00 
0.0000000e+00 -2.6641473e-08 0.0000000e+00 
0.0000000e+00 -9.0142152e-08 0.0000000e+00 
0.0000000e+00 -5.2591781e-07 0.0000000e+00 
0.0000000e+00 -6.4572100e-07 0.0000000e+00 
0.0000000e+00 -1.4410483e-06 0.0000000e+00 
0.0000000e+00 -1.6428620e-06 0.0000000e+00 
0.0000000e+00 -1.5660396e-06 0.0000000e+00 
0.0000000e+00 -1.8189060e-06 0.0000000e+00 
0.0000000e+00 -1.0913276e-06 0.0000000e+00 
0.0000000e+00 -1.4226393e-06 0.0000000e+00 
0.0000000e+00 -7.0163446e-07 0.0000000e+00 
0.0000000e+00 -4.2443767e-07 0.0000000e+00 
0.0000000e+00 -2.4987509e-07 0.0000000e+00 
0.0000000e+00 6.8077459e-09 0.0000000e+00 
0.0000000e+00 -2.9126335e-08 0.0000000e+00 
0.0000000e+00 -2.5194511e-08 0.0000000e+00 
0.0000000e+00 -6.3544254e-09 0.0000000e+00 
0.0000000e+00 -3.4498788e-09 0.0000000e+00 
0.0000000e+00 -4.0084047e-09 0.0000000e+00 
0.0000000e+00 -2.3914664e-08 0.0000000e+00 
0.0000000e+00 -1.1157307e-07 0.0000000e+00 
0.0000000e+00 -4.4432657e-08 0.0000000e+00 
0.0000000e+00 -6.5305301e-07 0.0000000e+00 
0.0000000e+00 -1.1443620e-06 0.0000000e+00 
0.0000000e+00 -1.7387297e-06 0.0000000e+00 
0.0000000e+00 -1.5729223e-06 0.0000000e+00 
0.0000000e+00 -1.6923490e-06 0.0000000e+00 
0.0000000e+00 -1.6460955e-06 0.0000000e+00 
0.0000000e+00 -1.6402198e-06 0.0000000e+00 
0.0000000e+00 -5.9199164e-07 0.0000000e+00 
0.0000000e+00 -9.5020488e-07 0.0000000e+00 
0.0000000e+00 -2.9864463e-08 0.0000000e+00 
0.0000000e+00 -1.6209172e-07 0.0000000e+00 
0.0000000e+00 -6.8119931e-08 0.0000000e+00 
0.0000000e+00 -2.8542569e-08 0.0000000e+00 
0.0000000e+00 -1.1113031e-08 0.0000000e+00 
0.0000000e+00 -8.9840526e-09 0.0000000e+00 
0.0000000e+00 -1.6769474e-09 0.0000000e+00 
0.0000000e+00 -5.2554050e-10 0.0000000e+00 
0.0000000e+00 -3.7677553e-10 0.0000000e+00 
0.0000000e+00 -1.7190556e-10 0.0000000e+00 
0.0000000e+00 -2.4905690e-11 0.0000000e+00 
0.0000000e+00 -5.0124904e-11 0.0000000e+00 
0.0000000e+00 8.0737630e-13 0.0000000e+00 
0.0000000e+00 -1.7631015e-11 0.0000000e+00 
0.0000000e+00 8.0338774e-13 0.0000000e+00 
0.0000000e+00 -3.7096914e-12 0.0000000e+00 
0.0000000e+00 9.3676497e-14 0.0000000e+00 
0.0000000e+00 6.6688179e-09 0.0000000e+00 
0.0000000e+00 -5.7784263e-08 0.0000000e+00 
0.0000000e+00 1.0192772e-07 0.0000000e+00 
0.0000000e+00 -2.0249754e-06 0.0000000e+00 
0.0000000e+00 -1.6213305e-06 0.0000000e+00 
0.0000000e+00 2.5145559e-07 0.0000000e+00 
0.0000000e+00 -1.0374389e-05 0.0000000e+00 
0.0000000e+00 -4.9562304e-06 0.0000000e+00 
0.0000000e+00 -1.1884988e-05 0.0000000e+00 
0.0000000e+00 -1.0337660e-05 0.0000000e+00 
0.0000000e+00 -3.0480126e-07 0.0000000e+00 
0.0000000e+00 1.2127158e-06 0.0000000e+00 
0.0000000e+00 -1.7342253e-07 0.0000000e+00 
0.0000000e+00 -2.0398774e-07 0.0000000e+00 
0.0000000e+00 -1.5190160e-07 0.0000000e+00 
0.0000000e+00 -5.7955784e-08 0.0000000e+00 
0.0000000e+00 -3.3445247e-08 0.0000000e+00 
0.0000000e+00 -1.0603771e-08 0.0000000e+00 
0.0000000e+00 -5.1375313e-09 0.0000000e+00 
0.0000000e+00 -6.2788517e-09 0.0000000e+00 
0.0000000e+00 1.9062437e-08 0.0000000e+00 
0.0000000e+00 -2.9358824e-07 0.0000000e+00 
0.0000000e+00 4.4588228e-07 0.0000000e+00 
0.0000000e+00 -1.9268859e-06 0.0000000e+00 
0.0000000e+00 -2.1706323e-06 0.0000000e+00 
0.0000000e+00 -4.8380148e-06 0.0000000e+00 
0.0000000e+00 -6.6537700e-06 0.0000000e+00 
0.0000000e+00 -3.9713741e-06 0.0000000e+00 
0.0000000e+00 -1.5284082e-05 0.0000000e+00 
0.0000000e+00 -8.2537863e-06 0.0000000e+00 
0.0000000e+00 -3.8246617e-06 0.0000000e+00 
0.0000000e+00 1.8179772e-06 0.0000000e+00 
0.0000000e+00 -5.1225595e-07 0.0000000e+00 
0.0000000e+00 -3.9705296e-07 0.0000000e+00 
0.0000000e+00 -1.7471115e-07 0.0000000e+00 
0.0000000e+00 -3.5759886e-08 0.0000000e+00 
0.0000000e+00 -1.8170992e-08 0.0000000e+00 
0.0000000e+00 4.2707229e-10 0.0000000e+00 
0.0000000e+00 -3.2734839e-09 0.0000000e+00 
0.0000000e+00 1.3724777e-10 0.0000000e+00 
0.0000000e+00 -9.1020380e-10 0.0000000e+00 
0.0000000e+00 -3.7649536e-10 0.0000000e+00 
0.0000000e+00 -1.6705698e-10 0.0000000e+00 
0.0000000e+00 -1.0699898e-11 0.0000000e+00 
0.0000000e+00 -1.3673393e-11 0.0000000e+00 
0.0000000e+00 -1.6665225e-11 0.0000000e+00 
0.0000000e+00 -4.4266331e-12 0.0000000e+00 
0.0000000e+00 -3.1725881e-12 0.0000000e+00 
0.0000000e+00 -5.0397452e-13 0.0000000e+00 
0.0000000e+00 -2.9280287e-10 0.0000000e+00 
0.0000000e+00 -3.2812084e-09 0.0000000e+00 
0.0000000e+00 2.2473143e-09 0.0000000e+00 
0.0000000e+00 -4.9472941e-09 0.0000000e+00 
0.0000000e+00 -5.4767128e-13 0.0000000e+00 
0.0000000e+00 -9.9968959e-13 0.0000000e+00 
0.0000000e+00 -1.3413631e-12 0.0000000e+00 
0.0000000e+00 -6.2380927e-13 0.0000000e+00 
0.0000000e+00 3.2340193e-08 0.0000000e+00 
0.0000000e+00 1.2467467e-07 0.0000000e+00 
0.0000000e+00 1.9635957e-07 0.0000000e+00 
0.0000000e+00 1.2027306e-07 0.0000000e+00 
0.0000000e+00 2.9066004e-07 0.0000000e+00 
0.0000000e+00 -5.1610937e-07 0.0000000e+00 
0.0000000e+00 -2.0702990e-07 0.0000000e+00 
0.0000000e+00 -4.7719453e-07 0.0000000e+00 
0.0000000e+00 -6.3746819e-07 0.0000000e+00 
0.0000000e+00 -9.0175327e-08 0.0000000e+00 
0.0000000e+00 -5.8558629e-07 0.0000000e+00 
0.0000000e+00 1.9162453e-08 0.0000000e+00 
0.0000000e+00 -2.4037337e-07 0.0000000e+00 
0.0000000e+00 -3.6274820e-08 0.0000000e+00 
0.0000000e+00 7.5214821e-09 0.0000000e+00 
0.0000000e+00 2.6717992e-09 0.0000000e+00 
0.0000000e+00 -8.9222345e-09 0.0000000e+00 
0.0000000e+00 1.8925923e-09 0.0000000e+00 
0.0000000e+00 7.2797328e-09 0.0000000e+00 
0.0000000e+00 1.9811425e-08 0.0000000e+00 
0.0000000e+00 5.6534134e-08 0.0000000e+00 
0.0000000e+00 8.6261899e-08 0.0000000e+00 
0.0000000e+00 2.7143534e-07 0.0000000e+00 
0.0000000e+00 -4.5326299e-08 0.0000000e+00 
0.0000000e+00 -2.8392475e-07 0.0000000e+00 
0.0000000e+00 -1.5067103e-07 0.0000000e+00 
0.0000000e+00 -4.8591977e-07 0.0000000e+00 
0.0000000e+00 -4.2142997e-07 0.0000000e+00 
0.0000000e+00 -6.1512611e-07 0.0000000e+00 
0.0000000e+00 -4.6366139e-07 0.0000000e+00 
0.0000000e+00 -1.3302969e-07 0.0000000e+00 
0.0000000e+00 -3.7367124e-07 0.0000000e+00 
0.0000000e+00 5.4204211e-08 0.0000000e+00 
0.0000000e+00 1.3381076e-08 0.0000000e+00 
0.0000000e+00 -2.1206166e-08 0.0000000e+00 
0.0000000e+00 -2.3229315e-08 0.0000000e+00 
0.0000000e+00 -3.0944722e-09 0.0000000e+00 
0.0000000e+00 -4.1312904e-09 0.0000000e+00 
0.0000000e+00 9.7244227e-11 0.0000000e+00 
0.0000000e+00 -4.2804246e-10 0.0000000e+00 
0.0000000e+00 -5.1973943e-11 0.0000000e+00 
0.0000000e+00 -2.9833080e-11 0.0000000e+00 
0.0000000e+00 -1.6993474e-11 0.0000000e+00 
0.0000000e+00 -4.0750001e-11 0.0000000e+00 
0.0000000e+00 -3.8101930e-12 0.0000000e+00 
0.0000000e+00 -1.2210334e-11 0.0000000e+00 
0.0000000e+00 1.4427357e-12 0.0000000e+00 
0.0000000e+00 -1.4846921e-12 0.0000000e+00 
0.0000000e+00 3.5436853e-13 0.0000000e+00 
0.0000000e+00 4.1265952e-08 0.0000000e+00 
8.7852683e-08 4.4297650e-08 -1.2375600e-07 
4.7824977e-07 -7.9609329e-08 -4.2307624e-07 
2.2595543e-06 -9.3327560e-07 -1.2021886e-06 
6.3507114e-06 -3.5913292e-06 -2.2789745e-06 
1.3107002e-05 -1.0177097e-05 -2.4599321e-06 
2.1923513e-05 -2.0609565e-05 -1.9046180e-07 
3.0202797e-05 -3.1562293e-05 3.9870106e-06 
3.4466600e-05 -3.9798044e-05 8.2568304e-06 
3.1042840e-05 -4.2748714e-05 1.3741221e-05 
2.6168957e-05 -3.9264600e-05 1.5874817e-05 
1.6788314e-05 -3.1523494e-05 1.5836367e-05 
8.8135839e-06 -2.0550879e-05 1.2305085e-05 
3.1995448e-06 -1.1242931e-05 7.8760531e-06 
6.0831553e-07 -4.9305177e-06 4.2650495e-06 
-1.4132497e-07 -1.8855687e-06 2.0220195e-06 
-2.0373086e-07 -8.0457130e-07 9.9621479e-07 
-1.2985353e-07 -3.2577239e-07 4.5425841e-07 
-7.4519797e-08 -1.2141072e-07 1.9334117e-07 
-3.0002855e-08 -2.7808323e-08 5.6674054e-08 
2.0118813e-08 3.4387188e-08 -6.0383208e-08 
1.5954862e-07 7.3344630e-08 -2.2836267e-07 
6.7577616e-07 -1.0324764e-07 -6.2571695e-07 
2.8598383e-06 -1.1755674e-06 -1.3308120e-06 
7.3946267e-06 -4.2749170e-06 -2.5956260e-06 
1.4736630e-05 -1.1800664e-05 -2.6807613e-06 
2.4900002e-05 -2.3463797e-05 5.3385509e-07 
3.0494097e-05 -3.2357286e-05 4.0088416e-06 
3.4330860e-05 -4.0282732e-05 9.1359989e-06 
3.1229501e-05 -4.3880198e-05 1.4477368e-05 
2.4275470e-05 -3.8371949e-05 1.6378972e-05 
1.5512151e-05 -2.9484399e-05 1.5151020e-05 
8.3847644e-06 -1.9124880e-05 1.1234280e-05 
2.8958161e-06 -1.0621635e-05 7.6007836e-06 
3.5426714e-07 -4.5988781e-06 4.1701778e-06 
-1.6497648e-07 -1.8785352e-06 2.0367222e-06 
-2.2754683e-07 -6.9005387e-07 9.1370839e-07 
-1.3912722e-07 -2.8337382e-07 4.2026488e-07 
-7.1966788e-08 -1.1715746e-07 1.8823292e-07 
-3.7073686e-08 -4.9457448e-08 8.6532516e-08 
-1.8270184e-08 -2.1816620e-08 4.0076682e-08 
-8.6698133e-09 -9.0729992e-09 1.7656063e-08 
-3.8754862e-09 -4.1259711e-09 7.9729423e-09 
-1.6315082e-09 -1.9560313e-09 3.5708965e-09 
-7.7241219e-10 -8.4667723e-10 1.6144648e-09 
-3.3375297e-10 -3.8305975e-10 7.1734435e-10 
-1.5938556e-10 -1.5995322e-10 3.2085976e-10 
-7.1572845e-11 -6.9072963e-11 1.4070382e-10 
-3.1274816e-11 -3.2769610e-11 6.3846289e-11 
-9.6922019e-12 -1.1421919e-11 2.1262908e-11 
0.0000000e+00 -1.7321714e-13 0.0000000e+00 
0.0000000e+00 -2.5891104e-08 0.0000000e+00 
0.0000000e+00 -1.9326885e-08 0.0000000e+00 
0.0000000e+00 -1.4446242e-08 0.0000000e+00 
0.0000000e+00 1.1308899e-07 0.0000000e+00 
0.0000000e+00 -2.0363402e-06 0.0000000e+00 
0.0000000e+00 1.2273887e-05 0.0000000e+00 
0.0000000e+00 1.6792144e-05 0.0000000e+00 
0.0000000e+00 1.8488585e-05 0.0000000e+00 
0.0000000e+00 5.9883205e-05 0.0000000e+00 
0.0000000e+00 3.9501396e-05 0.0000000e+00 
0.0000000e+00 5.7539368e-05 0.0000000e+00 
0.0000000e+00 2.5996089e-05 0.0000000e+00 
0.0000000e+00 2.5532863e-05 0.0000000e+00 
0.0000000e+00 4.8239253e-06 0.0000000e+00 
0.0000000e+00 -4.9949613e-06 0.0000000e+00 
0.0000000e+00 2.7949230e-07 0.0000000e+00 
0.0000000e+00 -7.5156436e-08 0.0000000e+00 
0.0000000e+00 1.5312702e-08 0.0000000e+00 
0.0000000e+00 -4.9382476e-09 0.0000000e+00 
0.0000000e+00 2.3053108e-09 0.0000000e+00 
0.0000000e+00 -9.7550157e-10 0.0000000e+00 
0.0000000e+00 -9.7447295e-09 0.0000000e+00 
0.0000000e+00 1.5012563e-09 0.0000000e+00 
0.0000000e+00 -1.0400719e-08 0.0000000e+00 
0.0000000e+00 -3.0557744e-06 0.0000000e+00 
0.0000000e+00 1.8935616e-05 0.0000000e+00 
0.0000000e+00 1.5449459e-05 0.0000000e+00 
0.0000000e+00 2.2839657e-05 0.0000000e+00 
0.0000000e+00 5.4386564e-05 0.0000000e+00 
0.0000000e+00 4.5340857e-05 0.0000000e+00 
0.0000000e+00 6.4729102e-05 0.0000000e+00 
0.0000000e+00 3.8529670e-05 0.0000000e+00 
0.0000000e+00 1.8558458e-05 0.0000000e+00 
0.0000000e+00 7.0146002e-06 0.0000000e+00 
0.0000000e+00 -3.6460569e-06 0.0000000e+00 
0.0000000e+00 2.2702248e-07 0.0000000e+00 
0.0000000e+00 -2.6884114e-08 0.0000000e+00 
0.0000000e+00 1.2182640e-08 0.0000000e+00 
0.0000000e+00 2.8198890e-09 0.0000000e+00 
0.0000000e+00 1.0129589e-09 0.0000000e+00 
0.0000000e+00 3.7619347e-10 0.0000000e+00 
0.0000000e+00 -1.7939134e-10 0.0000000e+00 
0.0000000e+00 4.9424589e-11 0.0000000e+00 
0.0000000e+00 8.5764529e-12 0.0000000e+00 
0.0000000e+00 -2.0268986e-11 0.0000000e+00 
0.0000000e+00 3.4267578e-11 0.0000000e+00 
0.0000000e+00 -2.9286018e-12 0.0000000e+00 
0.0000000e+00 3.0776501e-12 0.0000000e+00 
0.0000000e+00 5.2336445e-13 0.0000000e+00 
0.0000000e+00 7.6892128e-13 0.0000000e+00 
0.0000000e+00 3.4753057e-13 0.0000000e+00 
0.0000000e+00 -1.4677409e-12 0.0000000e+00 
0.0000000e+00 1.7203490e-14 0.0000000e+00 
1.7636442e-08 -1.5124580e-07 2.4794608e-07 
4.4574769e-08 -9.0049190e-07 8.1846616e-07 
5.2688000e-07 -1.8023567e-06 3.7399557e-06 
4.5912902e-06 -1.7381437e-05 2.2727489e-05 
7.6737606e-06 -7.1775110e-05 6.5472501e-05 
2.5698053e-05 -1.2160858e-04 1.1256231e-04 
5.1978972e-05 -1.5878916e-04 1.5537837e-04 
5.5463192e-05 -1.9947939e-04 1.8826051e-04 
7.0913862e-05 -1.9163253e-04 1.7365821e-04 
6.0962062e-05 -1.4627006e-04 1.3039605e-04 
4.3779644e-05 -9.3041410e-05 8.4815190e-05 
2.4159486e-05 -4.7446414e-05 3.7372716e-05 
7.2940820e-06 -1.6295331e-05 8.2713977e-06 
8.2803240e-07 -3.2646835e-06 2.1818605e-06 
1.3176535e-07 -1.1453956e-06 1.0573982e-06 
-4.5428621e-08 -4.2379546e-07 4.7271755e-07 
-5.3320761e-08 -1.5352360e-07 2.1196196e-07 
-3.5136100e-08 -5.8719689e-08 9.8017352e-08 
-2.3137622e-08 -2.7449168e-08 5.7630483e-08 
-1.3900245e-08 -4.5929301e-08 8.4455145e-08 
-9.3906207e-09 -1.4576275e-07 2.6696250e-07 
8.8489088e-08 -1.0294305e-06 9.0467177e-07 
6.8644488e-07 -1.9315441e-06 4.3895911e-06 
5.6169556e-06 -2.1340640e-05 2.6106805e-05 
8.9651239e-06 -7.8851233e-05 7.0957933e-05 
3.0110090e-05 -1.2462687e-04 1.1688637e-04 
5.2519426e-05 -1.6453516e-04 1.5944298e-04 
5.7139525e-05 -2.0358502e-04 1.8910192e-04 
7.1118528e-05 -1.8821882e-04 1.7097930e-04 
5.8497775e-05 -1.3849232e-04 1.2453466e-04 
4.0875420e-05 -8.6153974e-05 7.9451063e-05 
2.1829683e-05 -4.3682699e-05 3.3368884e-05 
6.2520021e-06 -1.4183011e-05 7.0283145e-06 
7.7998294e-07 -2.7817823e-06 1.7907645e-06 
1.0777656e-07 -9.8522366e-07 9.1613737e-07 
-7.0673941e-08 -3.4795249e-07 4.2138768e-07 
-6.4654863e-08 -1.3070316e-07 1.9949145e-07 
-3.7982005e-08 -5.2674434e-08 9.2668813e-08 
-1.9782167e-08 -2.1228963e-08 4.2172289e-08 
-9.4108499e-09 -9.4234123e-09 1.9281407e-08 
-4.5240292e-09 -4.2194332e-09 8.9553609e-09 
-1.9789750e-09 -2.0182045e-09 4.0831352e-09 
-8.6986945e-10 -9.0055063e-10 1.8220171e-09 
-4.0297440e-10 -4.1393844e-10 8.3249796e-10 
-1.9236351e-10 -1.6793759e-10 3.7118050e-10 
-8.8531786e-11 -8.0831092e-11 1.7396443e-10 
-4.1173013e-11 -3.5647593e-11 7.8827347e-11 
-1.9526158e-11 -1.5060496e-11 3.5389677e-11 
-4.6241019e-12 -2.0663666e-12 7.2053739e-12 
0.0000000e+00 -5.6773047e-08 0.0000000e+00 
-5.5934142e-12 -3.8454290e-13 6.9693444e-12 
0.0000000e+00 -1.1880856e-07 0.0000000e+00 
0.0000000e+00 -5.1774907e-07 0.0000000e+00 
0.0000000e+00 -2.0959956e-06 0.0000000e+00 
0.0000000e+00 -3.1541358e-06 0.0000000e+00 
0.0000000e+00 -2.6498878e-04 0.0000000e+00 
0.0000000e+00 -5.9713615e-04 0.0000000e+00 
0.0000000e+00 -6.4266479e-04 0.0000000e+00 
0.0000000e+00 -1.0127288e-03 0.0000000e+00 
0.0000000e+00 -9.1211579e-04 0.0000000e+00 
0.0000000e+00 -6.1138102e-04 0.0000000e+00 
0.0000000e+00 -4.1988329e-04 0.0000000e+00 
0.0000000e+00 -1.5632235e-04 0.0000000e+00 
0.0000000e+00 -1.2141138e-06 0.0000000e+00 
0.0000000e+00 -4.1526627e-07 0.0000000e+00 
0.0000000e+00 -4.6680459e-08 0.0000000e+00 
0.0000000e+00 -2.6578515e-08 0.0000000e+00 
0.0000000e+00 -3.8694341e-09 0.0000000e+00 
0.0000000e+00 -4.9334932e-09 0.0000000e+00 
0.0000000e+00 -9.0086019e-09 0.0000000e+00 
0.0000000e+00 -2.9721585e-08 0.0000000e+00 