# vtk DataFile Version 4.0
vtk output
ASCII
DATASET UNSTRUCTURED_GRID
POINTS 1659 float
0.0000000e+00 0.0000000e+00 0.0000000e+00 
0.0000000e+00 0.0000000e+00 5.0000000e+01 
5.0000000e+00 0.0000000e+00 0.0000000e+00 
5.0000000e+00 0.0000000e+00 5.0000000e+01 
5.0000000e+00 1.0000000e+00 0.0000000e+00 
5.0000000e+00 1.0000000e+00 5.0000000e+01 
0.0000000e+00 1.0000000e+00 0.0000000e+00 
0.0000000e+00 1.0000000e+00 5.0000000e+01 
5.0000000e+00 2.0000000e+00 0.0000000e+00 
5.0000000e+00 2.0000000e+00 5.0000000e+01 
3.0000000e+00 2.0000000e+00 0.0000000e+00 
3.0000000e+00 2.0000000e+00 5.0000000e+01 
0.0000000e+00 2.0000000e+00 0.0000000e+00 
0.0000000e+00 2.0000000e+00 5.0000000e+01 
1.5000000e+00 3.0000000e+00 0.0000000e+00 
1.5000000e+00 3.0000000e+00 5.0000000e+01 
7.5000000e-01 3.0000000e+00 0.0000000e+00 
7.5000000e-01 3.0000000e+00 5.0000000e+01 
0.0000000e+00 3.0000000e+00 0.0000000e+00 
0.0000000e+00 3.0000000e+00 5.0000000e+01 
0.0000000e+00 0.0000000e+00 1.0000000e+00 
0.0000000e+00 0.0000000e+00 2.0000000e+00 
0.0000000e+00 0.0000000e+00 3.0000000e+00 
0.0000000e+00 0.0000000e+00 4.0000000e+00 
0.0000000e+00 0.0000000e+00 5.0000000e+00 
0.0000000e+00 0.0000000e+00 6.0000000e+00 
0.0000000e+00 0.0000000e+00 7.0000000e+00 
0.0000000e+00 0.0000000e+00 8.0000000e+00 
0.0000000e+00 0.0000000e+00 9.0000000e+00 
0.0000000e+00 0.0000000e+00 1.0000000e+01 
0.0000000e+00 0.0000000e+00 1.1000000e+01 
0.0000000e+00 0.0000000e+00 1.2000000e+01 
0.0000000e+00 0.0000000e+00 1.3000000e+01 
0.0000000e+00 0.0000000e+00 1.4000000e+01 
0.0000000e+00 0.0000000e+00 1.5000000e+01 
0.0000000e+00 0.0000000e+00 1.6000000e+01 
0.0000000e+00 0.0000000e+00 1.7000000e+01 
0.0000000e+00 0.0000000e+00 1.8000000e+01 
0.0000000e+00 0.0000000e+00 1.9000000e+01 
0.0000000e+00 0.0000000e+00 2.0000000e+01 
0.0000000e+00 0.0000000e+00 2.1000000e+01 
0.0000000e+00 0.0000000e+00 2.2000000e+01 
0.0000000e+00 0.0000000e+00 2.3000000e+01 
0.0000000e+00 0.0000000e+00 2.4000000e+01 
0.0000000e+00 0.0000000e+00 2.5000000e+01 
0.0000000e+00 0.0000000e+00 2.6000000e+01 
0.0000000e+00 0.0000000e+00 2.7000000e+01 
0.0000000e+00 0.0000000e+00 2.8000000e+01 
0.0000000e+00 0.0000000e+00 2.9000000e+01 
0.0000000e+00 0.0000000e+00 3.0000000e+01 
0.0000000e+00 0.0000000e+00 3.1000000e+01 
0.0000000e+00 0.0000000e+00 3.2000000e+01 
0.0000000e+00 0.0000000e+00 3.3000000e+01 
0.0000000e+00 0.0000000e+00 3.4000000e+01 
0.0000000e+00 0.0000000e+00 3.5000000e+01 
0.0000000e+00 0.0000000e+00 3.6000000e+01 
0.0000000e+00 0.0000000e+00 3.7000000e+01 
0.0000000e+00 0.0000000e+00 3.8000000e+01 
0.0000000e+00 0.0000000e+00 3.9000000e+01 
0.0000000e+00 0.0000000e+00 4.0000000e+01 
0.0000000e+00 0.0000000e+00 4.1000000e+01 
0.0000000e+00 0.0000000e+00 4.2000000e+01 
0.0000000e+00 0.0000000e+00 4.3000000e+01 
0.0000000e+00 0.0000000e+00 4.4000000e+01 
0.0000000e+00 0.0000000e+00 4.5000000e+01 
0.0000000e+00 0.0000000e+00 4.6000000e+01 
0.0000000e+00 0.0000000e+00 4.7000000e+01 
0.0000000e+00 0.0000000e+00 4.8000000e+01 
0.0000000e+00 0.0000000e+00 4.9000000e+01 
5.0000000e+00 0.0000000e+00 1.0000000e+00 
5.0000000e+00 0.0000000e+00 2.0000000e+00 
5.0000000e+00 0.0000000e+00 3.0000000e+00 
5.0000000e+00 0.0000000e+00 4.0000000e+00 
5.0000000e+00 0.0000000e+00 5.0000000e+00 
5.0000000e+00 0.0000000e+00 6.0000000e+00 
5.0000000e+00 0.0000000e+00 7.0000000e+00 
5.0000000e+00 0.0000000e+00 8.0000000e+00 
5.0000000e+00 0.0000000e+00 9.0000000e+00 
5.0000000e+00 0.0000000e+00 1.0000000e+01 
5.0000000e+00 0.0000000e+00 1.1000000e+01 
5.0000000e+00 0.0000000e+00 1.2000000e+01 
5.0000000e+00 0.0000000e+00 1.3000000e+01 
5.0000000e+00 0.0000000e+00 1.4000000e+01 
5.0000000e+00 0.0000000e+00 1.5000000e+01 
5.0000000e+00 0.0000000e+00 1.6000000e+01 
5.0000000e+00 0.0000000e+00 1.7000000e+01 
5.0000000e+00 0.0000000e+00 1.8000000e+01 
5.0000000e+00 0.0000000e+00 1.9000000e+01 
5.0000000e+00 0.0000000e+00 2.0000000e+01 
5.0000000e+00 0.0000000e+00 2.1000000e+01 
5.0000000e+00 0.0000000e+00 2.2000000e+01 
5.0000000e+00 0.0000000e+00 2.3000000e+01 
5.0000000e+00 0.0000000e+00 2.4000000e+01 
5.0000000e+00 0.0000000e+00 2.5000000e+01 
5.0000000e+00 0.0000000e+00 2.6000000e+01 
5.0000000e+00 0.0000000e+00 2.7000000e+01 
5.0000000e+00 0.0000000e+00 2.8000000e+01 
5.0000000e+00 0.0000000e+00 2.9000000e+01 
5.0000000e+00 0.0000000e+00 3.0000000e+01 
5.0000000e+00 0.0000000e+00 3.1000000e+01 
5.0000000e+00 0.0000000e+00 3.2000000e+01 
5.0000000e+00 0.0000000e+00 3.3000000e+01 
5.0000000e+00 0.0000000e+00 3.4000000e+01 
5.0000000e+00 0.0000000e+00 3.5000000e+01 
5.0000000e+00 0.0000000e+00 3.6000000e+01 
5.0000000e+00 0.0000000e+00 3.7000000e+01 
5.0000000e+00 0.0000000e+00 3.8000000e+01 
5.0000000e+00 0.0000000e+00 3.9000000e+01 
5.0000000e+00 0.0000000e+00 4.0000000e+01 
5.0000000e+00 0.0000000e+00 4.1000000e+01 
5.0000000e+00 0.0000000e+00 4.2000000e+01 
5.0000000e+00 0.0000000e+00 4.3000000e+01 
5.0000000e+00 0.0000000e+00 4.4000000e+01 
5.0000000e+00 0.0000000e+00 4.5000000e+01 
5.0000000e+00 0.0000000e+00 4.6000000e+01 
5.0000000e+00 0.0000000e+00 4.7000000e+01 
5.0000000e+00 0.0000000e+00 4.8000000e+01 
5.0000000e+00 0.0000000e+00 4.9000000e+01 
1.0000000e+00 0.0000000e+00 0.0000000e+00 
2.0000000e+00 0.0000000e+00 0.0000000e+00 
3.0000000e+00 0.0000000e+00 0.0000000e+00 
4.0000000e+00 0.0000000e+00 0.0000000e+00 
1.0000000e+00 0.0000000e+00 5.0000000e+01 
2.0000000e+00 0.0000000e+00 5.0000000e+01 
3.0000000e+00 0.0000000e+00 5.0000000e+01 
4.0000000e+00 0.0000000e+00 5.0000000e+01 
5.0000000e+00 1.0000000e+00 1.0000000e+00 
5.0000000e+00 1.0000000e+00 2.0000000e+00 
5.0000000e+00 1.0000000e+00 3.0000000e+00 
5.0000000e+00 1.0000000e+00 4.0000000e+00 
5.0000000e+00 1.0000000e+00 5.0000000e+00 
5.0000000e+00 1.0000000e+00 6.0000000e+00 
5.0000000e+00 1.0000000e+00 7.0000000e+00 
5.0000000e+00 1.0000000e+00 8.0000000e+00 
5.0000000e+00 1.0000000e+00 9.0000000e+00 
5.0000000e+00 1.0000000e+00 1.0000000e+01 
5.0000000e+00 1.0000000e+00 1.1000000e+01 
5.0000000e+00 1.0000000e+00 1.2000000e+01 
5.0000000e+00 1.0000000e+00 1.3000000e+01 
5.0000000e+00 1.0000000e+00 1.4000000e+01 
5.0000000e+00 1.0000000e+00 1.5000000e+01 
5.0000000e+00 1.0000000e+00 1.6000000e+01 
5.0000000e+00 1.0000000e+00 1.7000000e+01 
5.0000000e+00 1.0000000e+00 1.8000000e+01 
5.0000000e+00 1.0000000e+00 1.9000000e+01 
5.0000000e+00 1.0000000e+00 2.0000000e+01 
5.0000000e+00 1.0000000e+00 2.1000000e+01 
5.0000000e+00 1.0000000e+00 2.2000000e+01 
5.0000000e+00 1.0000000e+00 2.3000000e+01 
5.0000000e+00 1.0000000e+00 2.4000000e+01 
5.0000000e+00 1.0000000e+00 2.5000000e+01 
5.0000000e+00 1.0000000e+00 2.6000000e+01 
5.0000000e+00 1.0000000e+00 2.7000000e+01 
5.0000000e+00 1.0000000e+00 2.8000000e+01 
5.0000000e+00 1.0000000e+00 2.9000000e+01 
5.0000000e+00 1.0000000e+00 3.0000000e+01 
5.0000000e+00 1.0000000e+00 3.1000000e+01 
5.0000000e+00 1.0000000e+00 3.2000000e+01 
5.0000000e+00 1.0000000e+00 3.3000000e+01 
5.0000000e+00 1.0000000e+00 3.4000000e+01 
5.0000000e+00 1.0000000e+00 3.5000000e+01 
5.0000000e+00 1.0000000e+00 3.6000000e+01 
5.0000000e+00 1.0000000e+00 3.7000000e+01 
5.0000000e+00 1.0000000e+00 3.8000000e+01 
5.0000000e+00 1.0000000e+00 3.9000000e+01 
5.0000000e+00 1.0000000e+00 4.0000000e+01 
5.0000000e+00 1.0000000e+00 4.1000000e+01 
5.0000000e+00 1.0000000e+00 4.2000000e+01 
5.0000000e+00 1.0000000e+00 4.3000000e+01 
5.0000000e+00 1.0000000e+00 4.4000000e+01 
5.0000000e+00 1.0000000e+00 4.5000000e+01 
5.0000000e+00 1.0000000e+00 4.6000000e+01 
5.0000000e+00 1.0000000e+00 4.7000000e+01 
5.0000000e+00 1.0000000e+00 4.8000000e+01 
5.0000000e+00 1.0000000e+00 4.9000000e+01 
0.0000000e+00 1.0000000e+00 1.0000000e+00 
0.0000000e+00 1.0000000e+00 2.0000000e+00 
0.0000000e+00 1.0000000e+00 3.0000000e+00 
0.0000000e+00 1.0000000e+00 4.0000000e+00 
0.0000000e+00 1.0000000e+00 5.0000000e+00 
0.0000000e+00 1.0000000e+00 6.0000000e+00 
0.0000000e+00 1.0000000e+00 7.0000000e+00 
0.0000000e+00 1.0000000e+00 8.0000000e+00 
0.0000000e+00 1.0000000e+00 9.0000000e+00 
0.0000000e+00 1.0000000e+00 1.0000000e+01 
0.0000000e+00 1.0000000e+00 1.1000000e+01 
0.0000000e+00 1.0000000e+00 1.2000000e+01 
0.0000000e+00 1.0000000e+00 1.3000000e+01 
0.0000000e+00 1.0000000e+00 1.4000000e+01 
0.0000000e+00 1.0000000e+00 1.5000000e+01 
0.0000000e+00 1.0000000e+00 1.6000000e+01 
0.0000000e+00 1.0000000e+00 1.7000000e+01 
0.0000000e+00 1.0000000e+00 1.8000000e+01 
0.0000000e+00 1.0000000e+00 1.9000000e+01 
0.0000000e+00 1.0000000e+00 2.0000000e+01 
0.0000000e+00 1.0000000e+00 2.1000000e+01 
0.0000000e+00 1.0000000e+00 2.2000000e+01 
0.0000000e+00 1.0000000e+00 2.3000000e+01 
0.0000000e+00 1.0000000e+00 2.4000000e+01 
0.0000000e+00 1.0000000e+00 2.5000000e+01 
0.0000000e+00 1.0000000e+00 2.6000000e+01 
0.0000000e+00 1.0000000e+00 2.7000000e+01 
0.0000000e+00 1.0000000e+00 2.8000000e+01 
0.0000000e+00 1.0000000e+00 2.9000000e+01 
0.0000000e+00 1.0000000e+00 3.0000000e+01 
0.0000000e+00 1.0000000e+00 3.1000000e+01 
0.0000000e+00 1.0000000e+00 3.2000000e+01 
0.0000000e+00 1.0000000e+00 3.3000000e+01 
0.0000000e+00 1.0000000e+00 3.4000000e+01 
0.0000000e+00 1.0000000e+00 3.5000000e+01 
0.0000000e+00 1.0000000e+00 3.6000000e+01 
0.0000000e+00 1.0000000e+00 3.7000000e+01 
0.0000000e+00 1.0000000e+00 3.8000000e+01 
0.0000000e+00 1.0000000e+00 3.9000000e+01 
0.0000000e+00 1.0000000e+00 4.0000000e+01 
0.0000000e+00 1.0000000e+00 4.1000000e+01 
0.0000000e+00 1.0000000e+00 4.2000000e+01 
0.0000000e+00 1.0000000e+00 4.3000000e+01 
0.0000000e+00 1.0000000e+00 4.4000000e+01 
0.0000000e+00 1.0000000e+00 4.5000000e+01 
0.0000000e+00 1.0000000e+00 4.6000000e+01 
0.0000000e+00 1.0000000e+00 4.7000000e+01 
0.0000000e+00 1.0000000e+00 4.8000000e+01 
0.0000000e+00 1.0000000e+00 4.9000000e+01 
4.0000000e+00 1.0000000e+00 0.0000000e+00 
3.0000000e+00 1.0000000e+00 0.0000000e+00 
2.0000000e+00 1.0000000e+00 0.0000000e+00 
1.0000000e+00 1.0000000e+00 0.0000000e+00 
4.0000000e+00 1.0000000e+00 5.0000000e+01 
3.0000000e+00 1.0000000e+00 5.0000000e+01 
[...]
POINT_DATA 1659
FIELD FieldData 2
DISPLACEMENT 3 1659  float
0.0000000e+00 0.0000000e+00 0.0000000e+00 
0.0000000e+00 0.0000000e+00 0.0000000e+00 
0.0000000e+00 0.0000000e+00 0.0000000e+00 
0.0000000e+00 0.0000000e+00 0.0000000e+00 
0.0000000e+00 -3.9573105e-09 0.0000000e+00 
0.0000000e+00 -5.3020048e-14 0.0000000e+00 
0.0000000e+00 5.3481983e-09 0.0000000e+00 
0.0000000e+00 3.8557109e-12 0.0000000e+00 
0.0000000e+00 5.0470309e-08 0.0000000e+00 
0.0000000e+00 2.3744071e-12 0.0000000e+00 
0.0000000e+00 1.4532031e-07 0.0000000e+00 
0.0000000e+00 7.2505443e-12 0.0000000e+00 
0.0000000e+00 -6.4756178e-09 0.0000000e+00 
0.0000000e+00 -1.4405939e-11 0.0000000e+00 
0.0000000e+00 -6.2760172e-08 0.0000000e+00 
-2.4565205e-10 1.0221818e-10 1.4862045e-10 
0.0000000e+00 -4.7986930e-08 0.0000000e+00 
0.0000000e+00 8.4491372e-11 0.0000000e+00 
0.0000000e+00 -4.5972797e-08 0.0000000e+00 
0.0000000e+00 4.3495395e-11 0.0000000e+00 
0.0000000e+00 0.0000000e+00 0.0000000e+00 
0.0000000e+00 0.0000000e+00 0.0000000e+00 
0.0000000e+00 0.0000000e+00 0.0000000e+00 
0.0000000e+00 0.0000000e+00 0.0000000e+00 
0.0000000e+00 0.0000000e+00 0.0000000e+00 
0.0000000e+00 0.0000000e+00 0.0000000e+00 
0.0000000e+00 0.0000000e+00 0.0000000e+00 
0.0000000e+00 0.0000000e+00 0.0000000e+00 
0.0000000e+00 0.0000000e+00 0.0000000e+00 
0.0000000e+00 0.0000000e+00 0.0000000e+00 
0.0000000e+00 0.0000000e+00 0.0000000e+00 
0.0000000e+00 0.0000000e+00 0.0000000e+00 
0.0000000e+00 0.0000000e+00 0.0000000e+00 
0.0000000e+00 0.0000000e+00 0.0000000e+00 
0.0000000e+00 0.0000000e+00 0.0000000e+00 
0.0000000e+00 0.0000000e+00 0.0000000e+00 
0.0000000e+00 0.0000000e+00 0.0000000e+00 
0.0000000e+00 0.0000000e+00 0.0000000e+00 
0.0000000e+00 0.0000000e+00 0.0000000e+00 
0.0000000e+00 0.0000000e+00 0.0000000e+00 
0.0000000e+00 0.0000000e+00 0.0000000e+00 
0.0000000e+00 0.0000000e+00 0.0000000e+00 
0.0000000e+00 0.0000000e+00 0.0000000e+00 
0.0000000e+00 0.0000000e+00 0.0000000e+00 
0.0000000e+00 0.0000000e+00 0.0000000e+00 
0.0000000e+00 0.0000000e+00 0.0000000e+00 
0.0000000e+00 0.0000000e+00 0.0000000e+00 
0.0000000e+00 0.0000000e+00 0.0000000e+00 
0.0000000e+00 0.0000000e+00 0.0000000e+00 
0.0000000e+00 0.0000000e+00 0.0000000e+00 
0.0000000e+00 0.0000000e+00 0.0000000e+00 
0.0000000e+00 0.0000000e+00 0.0000000e+00 
0.0000000e+00 0.0000000e+00 0.0000000e+00 
0.0000000e+00 0.0000000e+00 0.0000000e+00 
0.0000000e+00 0.0000000e+00 0.0000000e+00 
0.0000000e+00 0.0000000e+00 0.0000000e+00 
0.0000000e+00 0.0000000e+00 0.0000000e+00 
0.0000000e+00 0.0000000e+00 0.0000000e+00 
0.0000000e+00 0.0000000e+00 0.0000000e+00 
0.0000000e+00 0.0000000e+00 0.0000000e+00 
0.0000000e+00 0.0000000e+00 0.0000000e+00 
0.0000000e+00 0.0000000e+00 0.0000000e+00 
0.0000000e+00 0.0000000e+00 0.0000000e+00 
0.0000000e+00 0.0000000e+00 0.0000000e+00 
0.0000000e+00 0.0000000e+00 0.0000000e+00 
0.0000000e+00 0.0000000e+00 0.0000000e+00 
0.0000000e+00 0.0000000e+00 0.0000000e+00 
0.0000000e+00 0.0000000e+00 0.0000000e+00 
0.0000000e+00 0.0000000e+00 0.0000000e+00 
0.0000000e+00 0.0000000e+00 0.0000000e+00 
0.0000000e+00 0.0000000e+00 0.0000000e+00 
0.0000000e+00 0.0000000e+00 0.0000000e+00 
0.0000000e+00 0.0000000e+00 0.0000000e+00 
0.0000000e+00 0.0000000e+00 0.0000000e+00 
0.0000000e+00 0.0000000e+00 0.0000000e+00 
0.0000000e+00 0.0000000e+00 0.0000000e+00 
0.0000000e+00 0.0000000e+00 0.0000000e+00 
0.0000000e+00 0.0000000e+00 0.0000000e+00 
0.0000000e+00 0.0000000e+00 0.0000000e+00 
0.0000000e+00 0.0000000e+00 0.0000000e+00 
0.0000000e+00 0.0000000e+00 0.0000000e+00 
0.0000000e+00 0.0000000e+00 0.0000000e+00 
0.0000000e+00 0.0000000e+00 0.0000000e+00 
0.0000000e+00 0.0000000e+00 0.0000000e+00 
0.0000000e+00 0.0000000e+00 0.0000000e+00 
0.0000000e+00 0.0000000e+00 0.0000000e+00 
0.0000000e+00 0.0000000e+00 0.0000000e+00 
0.0000000e+00 0.0000000e+00 0.0000000e+00 
0.0000000e+00 0.0000000e+00 0.0000000e+00 
0.0000000e+00 0.0000000e+00 0.0000000e+00 
0.0000000e+00 0.0000000e+00 0.0000000e+00 
0.0000000e+00 0.0000000e+00 0.0000000e+00 
0.0000000e+00 0.0000000e+00 0.0000000e+00 
0.0000000e+00 0.0000000e+00 0.0000000e+00 
0.0000000e+00 0.0000000e+00 0.0000000e+00 
0.0000000e+00 0.0000000e+00 0.0000000e+00 
0.0000000e+00 0.0000000e+00 0.0000000e+00 
0.0000000e+00 0.0000000e+00 0.0000000e+00 
0.0000000e+00 0.0000000e+00 0.0000000e+00 
0.0000000e+00 0.0000000e+00 0.0000000e+00 
0.0000000e+00 0.0000000e+00 0.0000000e+00 
0.0000000e+00 0.0000000e+00 0.0000000e+00 
0.0000000e+00 0.0000000e+00 0.0000000e+00 
0.0000000e+00 0.0000000e+00 0.0000000e+00 
0.0000000e+00 0.0000000e+00 0.0000000e+00 
0.0000000e+00 0.0000000e+00 0.0000000e+00 
0.0000000e+00 0.0000000e+00 0.0000000e+00 
0.0000000e+00 0.0000000e+00 0.0000000e+00 
0.0000000e+00 0.0000000e+00 0.0000000e+00 
0.0000000e+00 0.0000000e+00 0.0000000e+00 
0.0000000e+00 0.0000000e+00 0.0000000e+00 
0.0000000e+00 0.0000000e+00 0.0000000e+00 
0.0000000e+00 0.0000000e+00 0.0000000e+00 
0.0000000e+00 0.0000000e+00 0.0000000e+00 
0.0000000e+00 0.0000000e+00 0.0000000e+00 
0.0000000e+00 0.0000000e+00 0.0000000e+00 
0.0000000e+00 0.0000000e+00 0.0000000e+00 
0.0000000e+00 0.0000000e+00 0.0000000e+00 
0.0000000e+00 0.0000000e+00 0.0000000e+00 
0.0000000e+00 0.0000000e+00 0.0000000e+00 
0.0000000e+00 0.0000000e+00 0.0000000e+00 
0.0000000e+00 0.0000000e+00 0.0000000e+00 
0.0000000e+00 0.0000000e+00 0.0000000e+00 
0.0000000e+00 0.0000000e+00 0.0000000e+00 
0.0000000e+00 0.0000000e+00 0.0000000e+00 
0.0000000e+00 0.0000000e+00 0.0000000e+00 
0.0000000e+00 1.6381039e-08 0.0000000e+00 
0.0000000e+00 -8.8537782e-08 0.0000000e+00 
0.0000000e+00 -4.5017228e-07 0.0000000e+00 
0.0000000e+00 -1.3250333e-06 0.0000000e+00 
0.0000000e+00 -2.1544597e-06 0.0000000e+00 
0.0000000e+00 -4.0869040e-06 0.0000000e+00 
0.0000000e+00 -5.2158271e-06 0.0000000e+00 
0.0000000e+00 -5.8110300e-06 0.0000000e+00 
0.0000000e+00 -6.6498055e-06 0.0000000e+00 
0.0000000e+00 -6.1705891e-06 0.0000000e+00 
0.0000000e+00 -7.8761041e-06 0.0000000e+00 
0.0000000e+00 -6.4020023e-06 0.0000000e+00 
0.0000000e+00 -4.5271022e-06 0.0000000e+00 
0.0000000e+00 -3.9589249e-06 0.0000000e+00 
0.0000000e+00 -1.4905668e-06 0.0000000e+00 
0.0000000e+00 -1.3359170e-06 0.0000000e+00 
0.0000000e+00 -1.0150326e-06 0.0000000e+00 
0.0000000e+00 -4.6057286e-07 0.0000000e+00 
0.0000000e+00 -3.1703604e-07 0.0000000e+00 
0.0000000e+00 -7.8538442e-08 0.0000000e+00 
0.0000000e+00 -9.6540461e-08 0.0000000e+00 
0.0000000e+00 -2.3146087e-07 0.0000000e+00 
0.0000000e+00 -3.8010171e-07 0.0000000e+00 
0.0000000e+00 -1.4970128e-06 0.0000000e+00 
0.0000000e+00 -2.7094234e-06 0.0000000e+00 
0.0000000e+00 -4.6878713e-06 0.0000000e+00 
0.0000000e+00 -4.1020880e-06 0.0000000e+00 
0.0000000e+00 -5.7795228e-06 0.0000000e+00 
0.0000000e+00 -7.3990504e-06 0.0000000e+00 
0.0000000e+00 -8.9207761e-06 0.0000000e+00 
0.0000000e+00 -4.9917739e-06 0.0000000e+00 
0.0000000e+00 -6.8585432e-06 0.0000000e+00 
0.0000000e+00 -3.6006184e-06 0.0000000e+00 
0.0000000e+00 -3.7197010e-06 0.0000000e+00 
0.0000000e+00 -2.3980106e-06 0.0000000e+00 
0.0000000e+00 -1.2506956e-06 0.0000000e+00 
0.0000000e+00 -7.0145097e-07 0.0000000e+00 
0.0000000e+00 -5.4429546e-07 0.0000000e+00 
0.0000000e+00 -1.1193163e-07 0.0000000e+00 
0.0000000e+00 -5.4627872e-08 0.0000000e+00 
0.0000000e+00 -2.8886086e-08 0.0000000e+00 
0.0000000e+00 -1.3117048e-08 0.0000000e+00 
0.0000000e+00 -2.0820465e-09 0.0000000e+00 
0.0000000e+00 -3.6825361e-09 0.0000000e+00 
0.0000000e+00 3.8501879e-11 0.0000000e+00 
0.0000000e+00 -1.1681743e-09 0.0000000e+00 
0.0000000e+00 3.2639242e-11 0.0000000e+00 
0.0000000e+00 -2.3056324e-10 0.0000000e+00 
0.0000000e+00 1.8380228e-12 0.0000000e+00 
0.0000000e+00 -5.6768073e-08 0.0000000e+00 
0.0000000e+00 3.6760049e-08 0.0000000e+00 
0.0000000e+00 -2.1874122e-07 0.0000000e+00 
0.0000000e+00 4.4039075e-06 0.0000000e+00 
0.0000000e+00 2.0703686e-05 0.0000000e+00 
0.0000000e+00 3.3931061e-05 0.0000000e+00 
0.0000000e+00 2.6404274e-05 0.0000000e+00 
0.0000000e+00 1.4159931e-05 0.0000000e+00 
0.0000000e+00 5.5743156e-05 0.0000000e+00 
0.0000000e+00 -5.8545647e-06 0.0000000e+00 
0.0000000e+00 -1.0900907e-05 0.0000000e+00 
0.0000000e+00 -1.0772887e-05 0.0000000e+00 
0.0000000e+00 -1.4831586e-05 0.0000000e+00 
0.0000000e+00 -1.6448037e-05 0.0000000e+00 
0.0000000e+00 -1.4382081e-05 0.0000000e+00 
0.0000000e+00 -7.4284667e-06 0.0000000e+00 
0.0000000e+00 -3.0114404e-07 0.0000000e+00 
0.0000000e+00 -6.6012763e-07 0.0000000e+00 
0.0000000e+00 -5.7212384e-07 0.0000000e+00 
0.0000000e+00 -5.6659211e-08 0.0000000e+00 
0.0000000e+00 -1.5681708e-07 0.0000000e+00 
0.0000000e+00 4.8596240e-07 0.0000000e+00 
0.0000000e+00 -1.2233622e-06 0.0000000e+00 
0.0000000e+00 7.4539062e-06 0.0000000e+00 
0.0000000e+00 3.9778160e-06 0.0000000e+00 
0.0000000e+00 2.1345060e-05 0.0000000e+00 
0.0000000e+00 1.3351604e-05 0.0000000e+00 
0.0000000e+00 4.2932552e-06 0.0000000e+00 
0.0000000e+00 6.6374560e-05 0.0000000e+00 
0.0000000e+00 4.0088566e-05 0.0000000e+00 
0.0000000e+00 -1.5389387e-05 0.0000000e+00 
0.0000000e+00 -8.6573682e-06 0.0000000e+00 
0.0000000e+00 -1.5674868e-05 0.0000000e+00 
0.0000000e+00 -1.1003884e-05 0.0000000e+00 
0.0000000e+00 -7.8435423e-06 0.0000000e+00 
0.0000000e+00 -7.7896593e-06 0.0000000e+00 
0.0000000e+00 -1.7494760e-06 0.0000000e+00 
0.0000000e+00 7.0621797e-07 0.0000000e+00 
0.0000000e+00 -4.1309889e-07 0.0000000e+00 
0.0000000e+00 3.8192535e-08 0.0000000e+00 
0.0000000e+00 -7.7867014e-08 0.0000000e+00 
0.0000000e+00 -2.7097675e-08 0.0000000e+00 
0.0000000e+00 -1.1132403e-08 0.0000000e+00 
0.0000000e+00 -8.7798030e-10 0.0000000e+00 
0.0000000e+00 -9.8210207e-10 0.0000000e+00 
0.0000000e+00 -1.0638943e-09 0.0000000e+00 
0.0000000e+00 -2.9678651e-10 0.0000000e+00 
0.0000000e+00 -2.0291517e-10 0.0000000e+00 
0.0000000e+00 -3.8789888e-11 0.0000000e+00 
0.0000000e+00 -1.8185442e-08 0.0000000e+00 
0.0000000e+00 -3.9234305e-08 0.0000000e+00 
0.0000000e+00 -2.6358217e-08 0.0000000e+00 
0.0000000e+00 -1.3324557e-08 0.0000000e+00 
0.0000000e+00 -3.7631238e-11 0.0000000e+00 
0.0000000e+00 -6.6288620e-11 0.0000000e+00 
0.0000000e+00 -9.0650737e-11 0.0000000e+00 
0.0000000e+00 -4.3490975e-11 0.0000000e+00 
0.0000000e+00 1.3143581e-07 0.0000000e+00 
0.0000000e+00 3.1185795e-07 0.0000000e+00 
0.0000000e+00 2.1680921e-07 0.0000000e+00 
0.0000000e+00 -2.1233951e-07 0.0000000e+00 
0.0000000e+00 -2.6987286e-07 0.0000000e+00 
0.0000000e+00 -2.4003189e-06 0.0000000e+00 
0.0000000e+00 -2.9191258e-06 0.0000000e+00 
0.0000000e+00 -3.9628103e-06 0.0000000e+00 
0.0000000e+00 -4.4075623e-06 0.0000000e+00 
0.0000000e+00 -4.5156380e-06 0.0000000e+00 
0.0000000e+00 -4.5164334e-06 0.0000000e+00 
0.0000000e+00 -3.4209852e-06 0.0000000e+00 
0.0000000e+00 -2.6546038e-06 0.0000000e+00 
0.0000000e+00 -1.6101520e-06 0.0000000e+00 
0.0000000e+00 -7.2457220e-07 0.0000000e+00 
0.0000000e+00 -3.1866261e-07 0.0000000e+00 
0.0000000e+00 -5.0824400e-07 0.0000000e+00 
0.0000000e+00 -5.5519532e-08 0.0000000e+00 
0.0000000e+00 -9.2751307e-08 0.0000000e+00 
0.0000000e+00 7.7902222e-08 0.0000000e+00 
0.0000000e+00 1.3298461e-07 0.0000000e+00 
0.0000000e+00 1.8082508e-07 0.0000000e+00 
0.0000000e+00 4.0136334e-07 0.0000000e+00 
0.0000000e+00 -4.2529095e-07 0.0000000e+00 
0.0000000e+00 -1.4127207e-06 0.0000000e+00 
0.0000000e+00 -2.1525507e-06 0.0000000e+00 
0.0000000e+00 -2.8551879e-06 0.0000000e+00 
0.0000000e+00 -3.9559532e-06 0.0000000e+00 
0.0000000e+00 -4.1274493e-06 0.0000000e+00 
0.0000000e+00 -5.0131002e-06 0.0000000e+00 
0.0000000e+00 -3.7934715e-06 0.0000000e+00 
0.0000000e+00 -3.5350745e-06 0.0000000e+00 
0.0000000e+00 -1.8336942e-06 0.0000000e+00 
0.0000000e+00 -1.2259637e-06 0.0000000e+00 
0.0000000e+00 -9.3355146e-07 0.0000000e+00 
0.0000000e+00 -7.2396841e-07 0.0000000e+00 
0.0000000e+00 -1.3684482e-07 0.0000000e+00 
0.0000000e+00 -2.6045095e-07 0.0000000e+00 
0.0000000e+00 3.5976417e-08 0.0000000e+00 
0.0000000e+00 -2.9085589e-08 0.0000000e+00 
0.0000000e+00 -1.4359334e-09 0.0000000e+00 
0.0000000e+00 -1.3936732e-09 0.0000000e+00 
0.0000000e+00 -1.1207597e-09 0.0000000e+00 
0.0000000e+00 -2.6820395e-09 0.0000000e+00 
0.0000000e+00 -2.1658070e-10 0.0000000e+00 
0.0000000e+00 -7.8829859e-10 0.0000000e+00 
0.0000000e+00 7.6701846e-11 0.0000000e+00 
0.0000000e+00 -1.0054522e-10 0.0000000e+00 
0.0000000e+00 1.8431590e-11 0.0000000e+00 
0.0000000e+00 8.8162565e-08 0.0000000e+00 
4.6948864e-07 1.7816548e-07 -6.5363344e-07 
1.3386564e-06 1.6437980e-07 -1.5687997e-06 
3.6536685e-06 -2.2976528e-07 -2.9679525e-06 
6.6425132e-06 -2.1223188e-06 -4.7582712e-06 
1.1043569e-05 -6.4228529e-06 -7.7539480e-06 
1.8590777e-05 -1.3064371e-05 -9.7799457e-06 
2.5644476e-05 -2.1028018e-05 -1.0832776e-05 
3.1945245e-05 -2.9284109e-05 -9.5815039e-06 
3.7103335e-05 -3.6119272e-05 -6.1728597e-06 
4.2677086e-05 -4.4384429e-05 -1.2132897e-06 
4.3906788e-05 -4.8973649e-05 4.6261957e-06 
4.4748729e-05 -5.3902597e-05 1.1149165e-05 
4.1411455e-05 -5.4416920e-05 1.6237187e-05 
3.4474037e-05 -5.0688519e-05 1.8721015e-05 
2.6984168e-05 -4.3090524e-05 1.8339477e-05 
1.6835820e-05 -3.2769243e-05 1.6912429e-05 
9.0643398e-06 -2.0924565e-05 1.2418874e-05 
3.0541394e-06 -1.1449091e-05 8.2471306e-06 
4.6100627e-07 -4.9529194e-06 4.3951104e-06 
1.7991265e-08 -1.7906905e-06 1.7419352e-06 
2.6746105e-07 -5.1622800e-07 1.8652941e-07 
1.3381302e-06 -2.2660683e-07 -1.1609205e-06 
3.9869851e-06 -6.3718079e-07 -2.5101176e-06 
7.2776834e-06 -2.4755009e-06 -4.5550396e-06 
1.1916797e-05 -7.4930208e-06 -7.4646923e-06 
1.9659223e-05 -1.3960995e-05 -9.5942778e-06 
2.4967003e-05 -1.9504190e-05 -1.0167863e-05 
3.0531555e-05 -2.8645571e-05 -9.4897796e-06 
3.6915499e-05 -3.6527104e-05 -5.9789763e-06 
4.2322867e-05 -4.4373464e-05 -7.6067164e-07 
4.5592580e-05 -5.0040017e-05 4.6636296e-06 
4.7047572e-05 -5.4517695e-05 1.0452085e-05 
4.3220276e-05 -5.5651100e-05 1.5434411e-05 
3.4230539e-05 -5.0800369e-05 1.9040655e-05 
2.4028936e-05 -4.1896787e-05 1.9249041e-05 
1.6206903e-05 -3.0466097e-05 1.5713422e-05 
7.7514323e-06 -1.9780355e-05 1.2303308e-05 
2.4893052e-06 -1.0674564e-05 8.0351629e-06 
3.8022628e-07 -4.5414158e-06 4.1123035e-06 
-1.6474780e-07 -1.8168996e-06 1.9815434e-06 
-2.3352908e-07 -7.0500681e-07 9.2912575e-07 
-1.4417222e-07 -2.9431516e-07 4.3550193e-07 
-6.8878137e-08 -1.2900765e-07 1.9652299e-07 
-3.5572221e-08 -5.3134777e-08 8.8279791e-08 
-1.6542597e-08 -2.2745583e-08 3.9305519e-08 
-8.2012681e-09 -9.2745198e-09 1.7572804e-08 
-3.8023291e-09 -3.8978927e-09 7.7057773e-09 
-1.6864719e-09 -1.8265136e-09 3.4993055e-09 
-5.2635013e-10 -6.2940397e-10 1.1673240e-09 
0.0000000e+00 -1.3551713e-11 0.0000000e+00 
0.0000000e+00 -5.9992466e-08 0.0000000e+00 
0.0000000e+00 1.3281071e-08 0.0000000e+00 
0.0000000e+00 4.5715338e-09 0.0000000e+00 
0.0000000e+00 -1.1380665e-06 0.0000000e+00 
0.0000000e+00 2.9245409e-06 0.0000000e+00 
0.0000000e+00 -1.3563438e-05 0.0000000e+00 
0.0000000e+00 -9.5448122e-05 0.0000000e+00 
0.0000000e+00 -2.0792954e-04 0.0000000e+00 
0.0000000e+00 -1.5313133e-04 0.0000000e+00 
0.0000000e+00 -2.3346335e-04 0.0000000e+00 
0.0000000e+00 -1.9245743e-04 0.0000000e+00 
0.0000000e+00 -4.7086305e-05 0.0000000e+00 
0.0000000e+00 2.4096924e-05 0.0000000e+00 
0.0000000e+00 5.4533644e-05 0.0000000e+00 
0.0000000e+00 4.9781724e-05 0.0000000e+00 
0.0000000e+00 5.3499309e-05 0.0000000e+00 
0.0000000e+00 2.5860818e-05 0.0000000e+00 
0.0000000e+00 2.9359990e-05 0.0000000e+00 
0.0000000e+00 4.0030636e-06 0.0000000e+00 
0.0000000e+00 -4.1676199e-06 0.0000000e+00 
0.0000000e+00 1.2285973e-07 0.0000000e+00 
0.0000000e+00 7.9395353e-09 0.0000000e+00 
0.0000000e+00 -1.6348833e-08 0.0000000e+00 
0.0000000e+00 -1.2516624e-06 0.0000000e+00 
0.0000000e+00 5.7208722e-06 0.0000000e+00 
0.0000000e+00 -1.3963709e-05 0.0000000e+00 
0.0000000e+00 -1.1332117e-04 0.0000000e+00 
0.0000000e+00 -1.7295315e-04 0.0000000e+00 
0.0000000e+00 -1.4988230e-04 0.0000000e+00 
0.0000000e+00 -1.9099971e-04 0.0000000e+00 
0.0000000e+00 -1.9197179e-04 0.0000000e+00 
0.0000000e+00 -1.0247531e-04 0.0000000e+00 
0.0000000e+00 2.0699250e-05 0.0000000e+00 
0.0000000e+00 3.6029287e-05 0.0000000e+00 
0.0000000e+00 7.2781462e-05 0.0000000e+00 
0.0000000e+00 4.7674257e-05 0.0000000e+00 
0.0000000e+00 2.1305757e-05 0.0000000e+00 
0.0000000e+00 3.4724781e-05 0.0000000e+00 
0.0000000e+00 8.5541678e-06 0.0000000e+00 
0.0000000e+00 -3.7182776e-06 0.0000000e+00 
0.0000000e+00 1.2218948e-07 0.0000000e+00 
0.0000000e+00 -4.7248385e-08 0.0000000e+00 
0.0000000e+00 -3.8142092e-10 0.0000000e+00 
0.0000000e+00 -4.9558296e-10 0.0000000e+00 
0.0000000e+00 -1.4216134e-09 0.0000000e+00 
0.0000000e+00 2.2018687e-09 0.0000000e+00 
0.0000000e+00 -2.1777606e-10 0.0000000e+00 
0.0000000e+00 1.6727009e-10 0.0000000e+00 
0.0000000e+00 2.8766670e-11 0.0000000e+00 
0.0000000e+00 4.1005456e-11 0.0000000e+00 
0.0000000e+00 2.0384904e-11 0.0000000e+00 
0.0000000e+00 -8.9298992e-11 0.0000000e+00 
0.0000000e+00 -1.4816094e-12 0.0000000e+00 
5.8958729e-08 4.6191250e-08 -3.8091358e-08 
2.8843183e-07 -1.3155521e-07 3.5365903e-07 
1.6657008e-06 -2.5959441e-06 2.9691885e-06 
2.7700344e-06 -1.3971295e-05 1.0993029e-05 
-2.8644103e-05 -6.4151289e-05 -1.1548199e-05 
-6.4443368e-05 -1.2005455e-04 -3.9415270e-05 
-6.3167296e-05 -1.5589618e-04 -2.5106474e-05 
-8.6943808e-05 -2.2673486e-04 -2.8528035e-05 
-7.8127159e-05 -2.5833322e-04 1.5284576e-06 
-3.2817708e-05 -2.6679583e-04 7.3234914e-05 
1.6068760e-05 -2.7111993e-04 1.3851456e-04 
5.0754181e-05 -2.6505571e-04 1.8576044e-04 
7.1099319e-05 -2.3942920e-04 2.0211977e-04 
7.4355237e-05 -1.9837715e-04 1.7826288e-04 
6.0947921e-05 -1.4730095e-04 1.3115112e-04 
4.3957392e-05 -9.4015944e-05 8.5648266e-05 
2.4069586e-05 -4.7345766e-05 3.6889360e-05 
7.0314677e-06 -1.6046253e-05 8.2696715e-06 
8.1204257e-07 -3.1718616e-06 2.1436265e-06 
1.1049886e-07 -1.0562690e-06 9.4990151e-07 
-3.2134757e-09 -3.3067747e-07 4.9307403e-07 
2.2517210e-07 -4.9058190e-07 7.7541159e-07 
1.6965319e-06 -3.3328015e-06 3.8248504e-06 
2.8072850e-06 -1.6371228e-05 1.2169374e-05 
-3.4194054e-05 -7.1010065e-05 -1.7236807e-05 
-6.7294000e-05 -1.2233599e-04 -3.9537317e-05 
-6.5968401e-05 -1.5997843e-04 -2.3765431e-05 
-9.2118462e-05 -2.2924096e-04 -2.6316840e-05 
-7.4461233e-05 -2.5883268e-04 8.9137084e-06 
-2.5927167e-05 -2.6607313e-04 7.9775557e-05 
2.0810376e-05 -2.7016978e-04 1.4538840e-04 
5.4890585e-05 -2.6462643e-04 1.9155153e-04 
7.5704607e-05 -2.3986890e-04 2.0102967e-04 
7.5863871e-05 -1.9537892e-04 1.7198888e-04 
5.9940259e-05 -1.4139745e-04 1.2569437e-04 
4.1421416e-05 -8.8255132e-05 8.0880898e-05 
2.1763963e-05 -4.3531363e-05 3.2852116e-05 
5.9568911e-06 -1.3966906e-05 7.1679619e-06 
7.0350944e-07 -3.0152753e-06 2.1416829e-06 
6.5329544e-08 -1.0876419e-06 1.0630043e-06 
-8.1073544e-08 -3.8606922e-07 4.7378751e-07 
-5.9214706e-08 -1.5195273e-07 2.1539599e-07 
-3.3378623e-08 -6.0348398e-08 9.6593823e-08 
-1.7413411e-08 -2.6035611e-08 4.4268791e-08 
-9.0947747e-09 -9.9400710e-09 1.9680767e-08 
-4.4458250e-09 -4.5927053e-09 9.3132630e-09 
-2.1395428e-09 -1.9787869e-09 4.2418229e-09 
-1.0390095e-09 -8.2565033e-10 1.9119117e-09 
-2.4823882e-10 -1.1137992e-10 3.9094167e-10 
0.0000000e+00 7.0279462e-08 0.0000000e+00 
-3.0001127e-10 -2.3397456e-11 3.8508946e-10 
0.0000000e+00 -2.5926150e-07 0.0000000e+00 
0.0000000e+00 -5.1377424e-07 0.0000000e+00 
0.0000000e+00 -2.6541113e-06 0.0000000e+00 
0.0000000e+00 -4.2893298e-05 0.0000000e+00 
0.0000000e+00 -7.8525627e-05 0.0000000e+00 
0.0000000e+00 -1.6952858e-04 0.0000000e+00 
0.0000000e+00 -3.1286327e-04 0.0000000e+00 
0.0000000e+00 -4.4948934e-04 0.0000000e+00 
0.0000000e+00 -6.5968349e-04 0.0000000e+00 
0.0000000e+00 -8.4439688e-04 0.0000000e+00 
0.0000000e+00 -1.0097201e-03 0.0000000e+00 
0.0000000e+00 -1.0979056e-03 0.0000000e+00 
0.0000000e+00 -1.0828504e-03 0.0000000e+00 
0.0000000e+00 -9.1048592e-04 0.0000000e+00 
0.0000000e+00 -6.0913066e-04 0.0000000e+00 
0.0000000e+00 -4.1910991e-04 0.0000000e+00 
0.0000000e+00 -1.5305875e-04 0.0000000e+00 
0.0000000e+00 -1.3872099e-06 0.0000000e+00 
0.0000000e+00 -3.7775018e-07 0.0000000e+00 