# vtk DataFile Version 4.0
vtk output
ASCII
DATASET UNSTRUCTURED_GRID
POINTS 1659 float
0.0000000e+00 0.0000000e+00 0.0000000e+00 
0.0000000e+00 0.0000000e+00 5.0000000e+01 
5.0000000e+00 0.0000000e+00 0.0000000e+00 
5.0000000e+00 0.0000000e+00 5.0000000e+01 
5.0000000e+00 1.0000000e+00 0.0000000e+00 
5.0000000e+00 1.0000000e+00 5.0000000e+01 
0.0000000e+00 1.0000000e+00 0.0000000e+00 
0.0000000e+00 1.0000000e+00 5.0000000e+01 
5.0000000e+00 2.0000000e+00 0.0000000e+00 
5.0000000e+00 2.0000000e+00 5.0000000e+01 
3.0000000e+00 2.0000000e+00 0.0000000e+00 
3.0000000e+00 2.0000000e+00 5.0000000e+01 
0.0000000e+00 2.0000000e+00 0.0000000e+00 
0.0000000e+00 2.0000000e+00 5.0000000e+01 
1.5000000e+00 3.0000000e+00 0.0000000e+00 
1.5000000e+00 3.0000000e+00 5.0000000e+01 
7.5000000e-01 3.0000000e+00 0.0000000e+00 
7.5000000e-01 3.0000000e+00 5.0000000e+01 
0.0000000e+00 3.0000000e+00 0.0000000e+00 
0.0000000e+00 3.0000000e+00 5.0000000e+01 
0.0000000e+00 0.0000000e+00 1.0000000e+00 
0.0000000e+00 0.0000000e+00 2.0000000e+00 
0.0000000e+00 0.0000000e+00 3.0000000e+00 
0.0000000e+00 0.0000000e+00 4.0000000e+00 
0.0000000e+00 0.0000000e+00 5.0000000e+00 
0.0000000e+00 0.0000000e+00 6.0000000e+00 
0.0000000e+00 0.0000000e+00 7.0000000e+00 
0.0000000e+00 0.0000000e+00 8.0000000e+00 
0.0000000e+00 0.0000000e+00 9.0000000e+00 
0.0000000e+00 0.0000000e+00 1.0000000e+01 
0.0000000e+00 0.0000000e+00 1.1000000e+01 
0.0000000e+00 0.0000000e+00 1.2000000e+01 
0.0000000e+00 0.0000000e+00 1.3000000e+01 
0.0000000e+00 0.0000000e+00 1.4000000e+01 
0.0000000e+00 0.0000000e+00 1.5000000e+01 
0.0000000e+00 0.0000000e+00 1.6000000e+01 
0.0000000e+00 0.0000000e+00 1.7000000e+01 
0.0000000e+00 0.0000000e+00 1.8000000e+01 
0.0000000e+00 0.0000000e+00 1.9000000e+01 
0.0000000e+00 0.0000000e+00 2.0000000e+01 
0.0000000e+00 0.0000000e+00 2.1000000e+01 
0.0000000e+00 0.0000000e+00 2.2000000e+01 
0.0000000e+00 0.0000000e+00 2.3000000e+01 
0.0000000e+00 0.0000000e+00 2.4000000e+01 
0.0000000e+00 0.0000000e+00 2.5000000e+01 
0.0000000e+00 0.0000000e+00 2.6000000e+01 
0.0000000e+00 0.0000000e+00 2.7000000e+01 
0.0000000e+00 0.0000000e+00 2.8000000e+01 
0.0000000e+00 0.0000000e+00 2.9000000e+01 
0.0000000e+00 0.0000000e+00 3.0000000e+01 
0.0000000e+00 0.0000000e+00 3.1000000e+01 
0.0000000e+00 0.0000000e+00 3.2000000e+01 
0.0000000e+00 0.0000000e+00 3.3000000e+01 
0.0000000e+00 0.0000000e+00 3.4000000e+01 
0.0000000e+00 0.0000000e+00 3.5000000e+01 
0.0000000e+00 0.0000000e+00 3.6000000e+01 
0.0000000e+00 0.0000000e+00 3.7000000e+01 
0.0000000e+00 0.0000000e+00 3.8000000e+01 
0.0000000e+00 0.0000000e+00 3.9000000e+01 
0.0000000e+00 0.0000000e+00 4.0000000e+01 
0.0000000e+00 0.0000000e+00 4.1000000e+01 
0.0000000e+00 0.0000000e+00 4.2000000e+01 
0.0000000e+00 0.0000000e+00 4.3000000e+01 
0.0000000e+00 0.0000000e+00 4.4000000e+01 
0.0000000e+00 0.0000000e+00 4.5000000e+01 
0.0000000e+00 0.0000000e+00 4.6000000e+01 
0.0000000e+00 0.0000000e+00 4.7000000e+01 
0.0000000e+00 0.0000000e+00 4.8000000e+01 
0.0000000e+00 0.0000000e+00 4.9000000e+01 
5.0000000e+00 0.0000000e+00 1.0000000e+00 
5.0000000e+00 0.0000000e+00 2.0000000e+00 
5.0000000e+00 0.0000000e+00 3.0000000e+00 
5.0000000e+00 0.0000000e+00 4.0000000e+00 
5.0000000e+00 0.0000000e+00 5.0000000e+00 
5.0000000e+00 0.0000000e+00 6.0000000e+00 
5.0000000e+00 0.0000000e+00 7.0000000e+00 
5.0000000e+00 0.0000000e+00 8.0000000e+00 
5.0000000e+00 0.0000000e+00 9.0000000e+00 
5.0000000e+00 0.0000000e+00 1.0000000e+01 
5.0000000e+00 0.0000000e+00 1.1000000e+01 
5.0000000e+00 0.0000000e+00 1.2000000e+01 
5.0000000e+00 0.0000000e+00 1.3000000e+01 
5.0000000e+00 0.0000000e+00 1.4000000e+01 
5.0000000e+00 0.0000000e+00 1.5000000e+01 
5.0000000e+00 0.0000000e+00 1.6000000e+01 
5.0000000e+00 0.0000000e+00 1.7000000e+01 
5.0000000e+00 0.0000000e+00 1.8000000e+01 
5.0000000e+00 0.0000000e+00 1.9000000e+01 
5.0000000e+00 0.0000000e+00 2.0000000e+01 
5.0000000e+00 0.0000000e+00 2.1000000e+01 
5.0000000e+00 0.0000000e+00 2.2000000e+01 
5.0000000e+00 0.0000000e+00 2.3000000e+01 
5.0000000e+00 0.0000000e+00 2.4000000e+01 
5.0000000e+00 0.0000000e+00 2.5000000e+01 
5.0000000e+00 0.0000000e+00 2.6000000e+01 
5.0000000e+00 0.0000000e+00 2.7000000e+01 
5.0000000e+00 0.0000000e+00 2.8000000e+01 
5.0000000e+00 0.0000000e+00 2.9000000e+01 
5.0000000e+00 0.0000000e+00 3.0000000e+01 
5.0000000e+00 0.0000000e+00 3.1000000e+01 
5.0000000e+00 0.0000000e+00 3.2000000e+01 
5.0000000e+00 0.0000000e+00 3.3000000e+01 
5.0000000e+00 0.0000000e+00 3.4000000e+01 
5.0000000e+00 0.0000000e+00 3.5000000e+01 
5.0000000e+00 0.0000000e+00 3.6000000e+01 
5.0000000e+00 0.0000000e+00 3.7000000e+01 
5.0000000e+00 0.0000000e+00 3.8000000e+01 
5.0000000e+00 0.0000000e+00 3.9000000e+01 
5.0000000e+00 0.0000000e+00 4.0000000e+01 
5.0000000e+00 0.0000000e+00 4.1000000e+01 
5.0000000e+00 0.0000000e+00 4.2000000e+01 
5.0000000e+00 0.0000000e+00 4.3000000e+01 
5.0000000e+00 0.0000000e+00 4.4000000e+01 
5.0000000e+00 0.0000000e+00 4.5000000e+01 
5.0000000e+00 0.0000000e+00 4.6000000e+01 
5.0000000e+00 0.0000000e+00 4.7000000e+01 
5.0000000e+00 0.0000000e+00 4.8000000e+01 
5.0000000e+00 0.0000000e+00 4.9000000e+01 
1.0000000e+00 0.0000000e+00 0.0000000e+00 
2.0000000e+00 0.0000000e+00 0.0000000e+00 
3.0000000e+00 0.0000000e+00 0.0000000e+00 
4.0000000e+00 0.0000000e+00 0.0000000e+00 
1.0000000e+00 0.0000000e+00 5.0000000e+01 
2.0000000e+00 0.0000000e+00 5.0000000e+01 
3.0000000e+00 0.0000000e+00 5.0000000e+01 
4.0000000e+00 0.0000000e+00 5.0000000e+01 
5.0000000e+00 1.0000000e+00 1.0000000e+00 
5.0000000e+00 1.0000000e+00 2.0000000e+00 
5.0000000e+00 1.0000000e+00 3.0000000e+00 
5.0000000e+00 1.0000000e+00 4.0000000e+00 
5.0000000e+00 1.0000000e+00 5.0000000e+00 
5.0000000e+00 1.0000000e+00 6.0000000e+00 
5.0000000e+00 1.0000000e+00 7.0000000e+00 
5.0000000e+00 1.0000000e+00 8.0000000e+00 
5.0000000e+00 1.0000000e+00 9.0000000e+00 
5.0000000e+00 1.0000000e+00 1.0000000e+01 
5.0000000e+00 1.0000000e+00 1.1000000e+01 
5.0000000e+00 1.0000000e+00 1.2000000e+01 
5.0000000e+00 1.0000000e+00 1.3000000e+01 
5.0000000e+00 1.0000000e+00 1.4000000e+01 
5.0000000e+00 1.0000000e+00 1.5000000e+01 
5.0000000e+00 1.0000000e+00 1.6000000e+01 
5.0000000e+00 1.0000000e+00 1.7000000e+01 
5.0000000e+00 1.0000000e+00 1.8000000e+01 
5.0000000e+00 1.0000000e+00 1.9000000e+01 
5.0000000e+00 1.0000000e+00 2.0000000e+01 
5.0000000e+00 1.0000000e+00 2.1000000e+01 
5.0000000e+00 1.0000000e+00 2.2000000e+01 
5.0000000e+00 1.0000000e+00 2.3000000e+01 
5.0000000e+00 1.0000000e+00 2.4000000e+01 
5.0000000e+00 1.0000000e+00 2.5000000e+01 
5.0000000e+00 1.0000000e+00 2.6000000e+01 
5.0000000e+00 1.0000000e+00 2.7000000e+01 
5.0000000e+00 1.0000000e+00 2.8000000e+01 
5.0000000e+00 1.0000000e+00 2.9000000e+01 
5.0000000e+00 1.0000000e+00 3.0000000e+01 
5.0000000e+00 1.0000000e+00 3.1000000e+01 
5.0000000e+00 1.0000000e+00 3.2000000e+01 
5.0000000e+00 1.0000000e+00 3.3000000e+01 
5.0000000e+00 1.0000000e+00 3.4000000e+01 
5.0000000e+00 1.0000000e+00 3.5000000e+01 
5.0000000e+00 1.0000000e+00 3.6000000e+01 
5.0000000e+00 1.0000000e+00 3.7000000e+01 
5.0000000e+00 1.0000000e+00 3.8000000e+01 
5.0000000e+00 1.0000000e+00 3.9000000e+01 
5.0000000e+00 1.0000000e+00 4.0000000e+01 
5.0000000e+00 1.0000000e+00 4.1000000e+01 
5.0000000e+00 1.0000000e+00 4.2000000e+01 
5.0000000e+00 1.0000000e+00 4.3000000e+01 
5.0000000e+00 1.0000000e+00 4.4000000e+01 
5.0000000e+00 1.0000000e+00 4.5000000e+01 
5.0000000e+00 1.0000000e+00 4.6000000e+01 
5.0000000e+00 1.0000000e+00 4.7000000e+01 
5.0000000e+00 1.0000000e+00 4.8000000e+01 
5.0000000e+00 1.0000000e+00 4.9000000e+01 
0.0000000e+00 1.0000000e+00 1.0000000e+00 
0.0000000e+00 1.0000000e+00 2.0000000e+00 
0.0000000e+00 1.0000000e+00 3.0000000e+00 
0.0000000e+00 1.0000000e+00 4.0000000e+00 
0.0000000e+00 1.0000000e+00 5.0000000e+00 
0.0000000e+00 1.0000000e+00 6.0000000e+00 
0.0000000e+00 1.0000000e+00 7.0000000e+00 
0.0000000e+00 1.0000000e+00 8.0000000e+00 
0.0000000e+00 1.0000000e+00 9.0000000e+00 
0.0000000e+00 1.0000000e+00 1.0000000e+01 
0.0000000e+00 1.0000000e+00 1.1000000e+01 
0.0000000e+00 1.0000000e+00 1.2000000e+01 
0.0000000e+00 1.0000000e+00 1.3000000e+01 
0.0000000e+00 1.0000000e+00 1.4000000e+01 
0.0000000e+00 1.0000000e+00 1.5000000e+01 
0.0000000e+00 1.0000000e+00 1.6000000e+01 
0.0000000e+00 1.0000000e+00 1.7000000e+01 
0.0000000e+00 1.0000000e+00 1.8000000e+01 
0.0000000e+00 1.0000000e+00 1.9000000e+01 
0.0000000e+00 1.0000000e+00 2.0000000e+01 
0.0000000e+00 1.0000000e+00 2.1000000e+01 
0.0000000e+00 1.0000000e+00 2.2000000e+01 
0.0000000e+00 1.0000000e+00 2.3000000e+01 
0.0000000e+00 1.0000000e+00 2.4000000e+01 
0.0000000e+00 1.0000000e+00 2.5000000e+01 
0.0000000e+00 1.0000000e+00 2.6000000e+01 
0.0000000e+00 1.0000000e+00 2.7000000e+01 
0.0000000e+00 1.0000000e+00 2.8000000e+01 
0.0000000e+00 1.0000000e+00 2.9000000e+01 
0.0000000e+00 1.0000000e+00 3.0000000e+01 
0.0000000e+00 1.0000000e+00 3.1000000e+01 
0.0000000e+00 1.0000000e+00 3.2000000e+01 
0.0000000e+00 1.0000000e+00 3.3000000e+01 
0.0000000e+00 1.0000000e+00 3.4000000e+01 
0.0000000e+00 1.0000000e+00 3.5000000e+01 
0.0000000e+00 1.0000000e+00 3.6000000e+01 
0.0000000e+00 1.0000000e+00 3.7000000e+01 
0.0000000e+00 1.0000000e+00 3.8000000e+01 
0.0000000e+00 1.0000000e+00 3.9000000e+01 
0.0000000e+00 1.0000000e+00 4.0000000e+01 
0.0000000e+00 1.0000000e+00 4.1000000e+01 
0.0000000e+00 1.0000000e+00 4.2000000e+01 
0.0000000e+00 1.0000000e+00 4.3000000e+01 
0.0000000e+00 1.0000000e+00 4.4000000e+01 
0.0000000e+00 1.0000000e+00 4.5000000e+01 
0.0000000e+00 1.0000000e+00 4.6000000e+01 
0.0000000e+00 1.0000000e+00 4.7000000e+01 
0.0000000e+00 1.0000000e+00 4.8000000e+01 
0.0000000e+00 1.0000000e+00 4.9000000e+01 
4.0000000e+00 1.0000000e+00 0.0000000e+00 
3.0000000e+00 1.0000000e+00 0.0000000e+00 
2.0000000e+00 1.0000000e+00 0.0000000e+00 
1.0000000e+00 1.0000000e+00 0.0000000e+00 
4.0000000e+00 1.0000000e+00 5.0000000e+01 
3.0000000e+00 1.0000000e+00 5.0000000e+01 
[...]
POINT_DATA 1659
FIELD FieldData 2
DISPLACEMENT 3 1659  float
0.0000000e+00 0.0000000e+00 0.0000000e+00 
0.0000000e+00 0.0000000e+00 0.0000000e+00 
0.0000000e+00 0.0000000e+00 0.0000000e+00 
0.0000000e+00 0.0000000e+00 0.0000000e+00 
0.0000000e+00 -4.6921422e-11 0.0000000e+00 
0.0000000e+00 9.1251312e-24 0.0000000e+00 
0.0000000e+00 -1.0553313e-10 0.0000000e+00 
0.0000000e+00 -9.7195207e-25 0.0000000e+00 
0.0000000e+00 -2.6014113e-11 0.0000000e+00 
0.0000000e+00 -1.1412706e-23 0.0000000e+00 
0.0000000e+00 -6.6199346e-10 0.0000000e+00 
0.0000000e+00 5.7631319e-23 0.0000000e+00 
0.0000000e+00 -5.9914967e-10 0.0000000e+00 
0.0000000e+00 -6.3871587e-24 0.0000000e+00 
0.0000000e+00 -6.3898770e-10 0.0000000e+00 
-1.0724931e-24 -2.6089705e-23 3.3416432e-24 
0.0000000e+00 9.6221142e-10 0.0000000e+00 
0.0000000e+00 -1.3185681e-23 0.0000000e+00 
0.0000000e+00 -3.7076622e-10 0.0000000e+00 
0.0000000e+00 2.1939703e-23 0.0000000e+00 
0.0000000e+00 0.0000000e+00 0.0000000e+00 
0.0000000e+00 0.0000000e+00 0.0000000e+00 
0.0000000e+00 0.0000000e+00 0.0000000e+00 
0.0000000e+00 0.0000000e+00 0.0000000e+00 
0.0000000e+00 0.0000000e+00 0.0000000e+00 
0.0000000e+00 0.0000000e+00 0.0000000e+00 
0.0000000e+00 0.0000000e+00 0.0000000e+00 
0.0000000e+00 0.0000000e+00 0.0000000e+00 
0.0000000e+00 0.0000000e+00 0.0000000e+00 
0.0000000e+00 0.0000000e+00 0.0000000e+00 
0.0000000e+00 0.0000000e+00 0.0000000e+00 
0.0000000e+00 0.0000000e+00 0.0000000e+00 
0.0000000e+00 0.0000000e+00 0.0000000e+00 
0.0000000e+00 0.0000000e+00 0.0000000e+00 
0.0000000e+00 0.0000000e+00 0.0000000e+00 
0.0000000e+00 0.0000000e+00 0.0000000e+00 
0.0000000e+00 0.0000000e+00 0.0000000e+00 
0.0000000e+00 0.0000000e+00 0.0000000e+00 
0.0000000e+00 0.0000000e+00 0.0000000e+00 
0.0000000e+00 0.0000000e+00 0.0000000e+00 
0.0000000e+00 0.0000000e+00 0.0000000e+00 
0.0000000e+00 0.0000000e+00 0.0000000e+00 
0.0000000e+00 0.0000000e+00 0.0000000e+00 
0.0000000e+00 0.0000000e+00 0.0000000e+00 
0.0000000e+00 0.0000000e+00 0.0000000e+00 
0.0000000e+00 0.0000000e+00 0.0000000e+00 
0.0000000e+00 0.0000000e+00 0.0000000e+00 
0.0000000e+00 0.0000000e+00 0.0000000e+00 
0.0000000e+00 0.0000000e+00 0.0000000e+00 
0.0000000e+00 0.0000000e+00 0.0000000e+00 
0.0000000e+00 0.0000000e+00 0.0000000e+00 
0.0000000e+00 0.0000000e+00 0.0000000e+00 
0.0000000e+00 0.0000000e+00 0.0000000e+00 
0.0000000e+00 0.0000000e+00 0.0000000e+00 
0.0000000e+00 0.0000000e+00 0.0000000e+00 
0.0000000e+00 0.0000000e+00 0.0000000e+00 
0.0000000e+00 0.0000000e+00 0.0000000e+00 
0.0000000e+00 0.0000000e+00 0.0000000e+00 
0.0000000e+00 0.0000000e+00 0.0000000e+00 
0.0000000e+00 0.0000000e+00 0.0000000e+00 
0.0000000e+00 0.0000000e+00 0.0000000e+00 
0.0000000e+00 0.0000000e+00 0.0000000e+00 
0.0000000e+00 0.0000000e+00 0.0000000e+00 
0.0000000e+00 0.0000000e+00 0.0000000e+00 
0.0000000e+00 0.0000000e+00 0.0000000e+00 
0.0000000e+00 0.0000000e+00 0.0000000e+00 
0.0000000e+00 0.0000000e+00 0.0000000e+00 
0.0000000e+00 0.0000000e+00 0.0000000e+00 
0.0000000e+00 0.0000000e+00 0.0000000e+00 
0.0000000e+00 0.0000000e+00 0.0000000e+00 
0.0000000e+00 0.0000000e+00 0.0000000e+00 
0.0000000e+00 0.0000000e+00 0.0000000e+00 
0.0000000e+00 0.0000000e+00 0.0000000e+00 
0.0000000e+00 0.0000000e+00 0.0000000e+00 
0.0000000e+00 0.0000000e+00 0.0000000e+00 
0.0000000e+00 0.0000000e+00 0.0000000e+00 
0.0000000e+00 0.0000000e+00 0.0000000e+00 
0.0000000e+00 0.0000000e+00 0.0000000e+00 
0.0000000e+00 0.0000000e+00 0.0000000e+00 
0.0000000e+00 0.0000000e+00 0.0000000e+00 
0.0000000e+00 0.0000000e+00 0.0000000e+00 
0.0000000e+00 0.0000000e+00 0.0000000e+00 
0.0000000e+00 0.0000000e+00 0.0000000e+00 
0.0000000e+00 0.0000000e+00 0.0000000e+00 
0.0000000e+00 0.0000000e+00 0.0000000e+00 
0.0000000e+00 0.0000000e+00 0.0000000e+00 
0.0000000e+00 0.0000000e+00 0.0000000e+00 
0.0000000e+00 0.0000000e+00 0.0000000e+00 
0.0000000e+00 0.0000000e+00 0.0000000e+00 
0.0000000e+00 0.0000000e+00 0.0000000e+00 
0.0000000e+00 0.0000000e+00 0.0000000e+00 
0.0000000e+00 0.0000000e+00 0.0000000e+00 
0.0000000e+00 0.0000000e+00 0.0000000e+00 
0.0000000e+00 0.0000000e+00 0.0000000e+00 
0.0000000e+00 0.0000000e+00 0.0000000e+00 
0.0000000e+00 0.0000000e+00 0.0000000e+00 
0.0000000e+00 0.0000000e+00 0.0000000e+00 
0.0000000e+00 0.0000000e+00 0.0000000e+00 
0.0000000e+00 0.0000000e+00 0.0000000e+00 
0.0000000e+00 0.0000000e+00 0.0000000e+00 
0.0000000e+00 0.0000000e+00 0.0000000e+00 
0.0000000e+00 0.0000000e+00 0.0000000e+00 
0.0000000e+00 0.0000000e+00 0.0000000e+00 
0.0000000e+00 0.0000000e+00 0.0000000e+00 
0.0000000e+00 0.0000000e+00 0.0000000e+00 
0.0000000e+00 0.0000000e+00 0.0000000e+00 
0.0000000e+00 0.0000000e+00 0.0000000e+00 
0.0000000e+00 0.0000000e+00 0.0000000e+00 
0.0000000e+00 0.0000000e+00 0.0000000e+00 
0.0000000e+00 0.0000000e+00 0.0000000e+00 
0.0000000e+00 0.0000000e+00 0.0000000e+00 
0.0000000e+00 0.0000000e+00 0.0000000e+00 
0.0000000e+00 0.0000000e+00 0.0000000e+00 
0.0000000e+00 0.0000000e+00 0.0000000e+00 
0.0000000e+00 0.0000000e+00 0.0000000e+00 
0.0000000e+00 0.0000000e+00 0.0000000e+00 
0.0000000e+00 0.0000000e+00 0.0000000e+00 
0.0000000e+00 0.0000000e+00 0.0000000e+00 
0.0000000e+00 0.0000000e+00 0.0000000e+00 
0.0000000e+00 0.0000000e+00 0.0000000e+00 
0.0000000e+00 0.0000000e+00 0.0000000e+00 
0.0000000e+00 0.0000000e+00 0.0000000e+00 
0.0000000e+00 0.0000000e+00 0.0000000e+00 
0.0000000e+00 0.0000000e+00 0.0000000e+00 
0.0000000e+00 0.0000000e+00 0.0000000e+00 
0.0000000e+00 0.0000000e+00 0.0000000e+00 
0.0000000e+00 7.6281093e-11 0.0000000e+00 
0.0000000e+00 7.0384969e-11 0.0000000e+00 
0.0000000e+00 -6.2730648e-10 0.0000000e+00 
0.0000000e+00 5.4493565e-10 0.0000000e+00 
0.0000000e+00 1.9374244e-09 0.0000000e+00 
0.0000000e+00 -2.3831344e-09 0.0000000e+00 
0.0000000e+00 -4.7531441e-09 0.0000000e+00 
0.0000000e+00 -4.1028372e-09 0.0000000e+00 
0.0000000e+00 -3.1894412e-09 0.0000000e+00 
0.0000000e+00 -5.1525397e-09 0.0000000e+00 
0.0000000e+00 7.8389274e-11 0.0000000e+00 
0.0000000e+00 5.3561605e-10 0.0000000e+00 
0.0000000e+00 -6.8607398e-11 0.0000000e+00 
0.0000000e+00 -4.7255932e-11 0.0000000e+00 
0.0000000e+00 2.8908768e-11 0.0000000e+00 
0.0000000e+00 -3.0676546e-12 0.0000000e+00 
0.0000000e+00 1.6511565e-12 0.0000000e+00 
0.0000000e+00 -2.3000512e-12 0.0000000e+00 
0.0000000e+00 1.5046835e-11 0.0000000e+00 
0.0000000e+00 -4.4670875e-11 0.0000000e+00 
0.0000000e+00 3.1052222e-10 0.0000000e+00 
0.0000000e+00 1.0167913e-10 0.0000000e+00 
0.0000000e+00 -1.5353387e-09 0.0000000e+00 
0.0000000e+00 1.3023337e-09 0.0000000e+00 
0.0000000e+00 3.4468335e-09 0.0000000e+00 
0.0000000e+00 -3.6260455e-09 0.0000000e+00 
0.0000000e+00 -4.0093617e-09 0.0000000e+00 
0.0000000e+00 -1.8827062e-09 0.0000000e+00 
0.0000000e+00 -4.5673278e-09 0.0000000e+00 
0.0000000e+00 -6.0380314e-09 0.0000000e+00 
0.0000000e+00 -1.4137355e-09 0.0000000e+00 
0.0000000e+00 6.7499628e-10 0.0000000e+00 
0.0000000e+00 -1.9317525e-10 0.0000000e+00 
0.0000000e+00 -1.3510464e-11 0.0000000e+00 
0.0000000e+00 3.3181564e-14 0.0000000e+00 
0.0000000e+00 -2.1577926e-12 0.0000000e+00 
0.0000000e+00 5.1565550e-13 0.0000000e+00 
0.0000000e+00 -5.0544584e-14 0.0000000e+00 
0.0000000e+00 8.0278395e-16 0.0000000e+00 
0.0000000e+00 2.6979649e-17 0.0000000e+00 
0.0000000e+00 -4.2541078e-17 0.0000000e+00 
0.0000000e+00 3.7314601e-17 0.0000000e+00 
0.0000000e+00 -6.4031489e-18 0.0000000e+00 
0.0000000e+00 -2.7060647e-20 0.0000000e+00 
0.0000000e+00 1.6043741e-19 0.0000000e+00 
0.0000000e+00 -3.6933391e-20 0.0000000e+00 
0.0000000e+00 4.1264099e-21 0.0000000e+00 
0.0000000e+00 -4.1114923e-22 0.0000000e+00 
0.0000000e+00 2.5752463e-24 0.0000000e+00 
0.0000000e+00 2.1337989e-09 0.0000000e+00 
0.0000000e+00 -1.4383053e-08 0.0000000e+00 
0.0000000e+00 4.7957585e-08 0.0000000e+00 
0.0000000e+00 -4.2897832e-07 0.0000000e+00 
0.0000000e+00 -1.0135867e-06 0.0000000e+00 
0.0000000e+00 -5.4892816e-06 0.0000000e+00 
0.0000000e+00 -2.0496311e-07 0.0000000e+00 
0.0000000e+00 -1.2328820e-06 0.0000000e+00 
0.0000000e+00 -4.7708272e-06 0.0000000e+00 
0.0000000e+00 1.4424299e-06 0.0000000e+00 
0.0000000e+00 4.0438135e-08 0.0000000e+00 
0.0000000e+00 8.1143807e-11 0.0000000e+00 
0.0000000e+00 9.6027941e-10 0.0000000e+00 
0.0000000e+00 4.9431398e-10 0.0000000e+00 
0.0000000e+00 -7.3165744e-11 0.0000000e+00 
0.0000000e+00 1.0093920e-11 0.0000000e+00 
0.0000000e+00 -3.0286899e-12 0.0000000e+00 
0.0000000e+00 9.9920749e-12 0.0000000e+00 
0.0000000e+00 -5.8202280e-11 0.0000000e+00 
0.0000000e+00 8.3437479e-11 0.0000000e+00 
0.0000000e+00 3.5755585e-09 0.0000000e+00 
0.0000000e+00 -2.6423912e-08 0.0000000e+00 
0.0000000e+00 2.1419469e-07 0.0000000e+00 
0.0000000e+00 -7.1767266e-07 0.0000000e+00 
0.0000000e+00 -4.0098541e-08 0.0000000e+00 
0.0000000e+00 -2.5103161e-06 0.0000000e+00 
0.0000000e+00 3.1352141e-07 0.0000000e+00 
0.0000000e+00 -3.3266937e-07 0.0000000e+00 
0.0000000e+00 -4.4523335e-06 0.0000000e+00 
0.0000000e+00 1.0035532e-06 0.0000000e+00 
0.0000000e+00 -2.9511313e-08 0.0000000e+00 
0.0000000e+00 7.5245143e-09 0.0000000e+00 
0.0000000e+00 -3.2422404e-10 0.0000000e+00 
0.0000000e+00 -6.6713662e-11 0.0000000e+00 
0.0000000e+00 1.2801708e-11 0.0000000e+00 
0.0000000e+00 -1.3927708e-12 0.0000000e+00 
0.0000000e+00 -2.6463689e-13 0.0000000e+00 
0.0000000e+00 1.4945900e-14 0.0000000e+00 
0.0000000e+00 -4.3856681e-15 0.0000000e+00 
0.0000000e+00 2.2089107e-16 0.0000000e+00 
0.0000000e+00 2.7563310e-16 0.0000000e+00 
0.0000000e+00 -1.2600035e-16 0.0000000e+00 
0.0000000e+00 1.5360072e-17 0.0000000e+00 
0.0000000e+00 -6.9155184e-19 0.0000000e+00 
0.0000000e+00 -9.6592142e-20 0.0000000e+00 
0.0000000e+00 3.3798674e-20 0.0000000e+00 
0.0000000e+00 -5.5889742e-21 0.0000000e+00 
0.0000000e+00 3.6017778e-22 0.0000000e+00 
0.0000000e+00 -1.6814275e-23 0.0000000e+00 
0.0000000e+00 1.2014834e-10 0.0000000e+00 
0.0000000e+00 2.8192551e-10 0.0000000e+00 
0.0000000e+00 -2.4639651e-10 0.0000000e+00 
0.0000000e+00 1.2108255e-10 0.0000000e+00 
0.0000000e+00 -1.1775481e-23 0.0000000e+00 
0.0000000e+00 8.3997568e-23 0.0000000e+00 
0.0000000e+00 1.9289828e-24 0.0000000e+00 
0.0000000e+00 -1.1082585e-23 0.0000000e+00 
0.0000000e+00 -4.7257455e-11 0.0000000e+00 
0.0000000e+00 2.4179977e-10 0.0000000e+00 
0.0000000e+00 -5.5314886e-10 0.0000000e+00 
0.0000000e+00 -2.2400415e-09 0.0000000e+00 
0.0000000e+00 -1.9128943e-10 0.0000000e+00 
0.0000000e+00 7.1581900e-09 0.0000000e+00 
0.0000000e+00 6.3912471e-09 0.0000000e+00 
0.0000000e+00 6.7510242e-09 0.0000000e+00 
0.0000000e+00 1.3799689e-08 0.0000000e+00 
0.0000000e+00 5.5863345e-09 0.0000000e+00 
0.0000000e+00 5.6459776e-10 0.0000000e+00 
0.0000000e+00 3.2795699e-10 0.0000000e+00 
0.0000000e+00 -1.1828849e-11 0.0000000e+00 
0.0000000e+00 1.9279918e-11 0.0000000e+00 
0.0000000e+00 -2.1701587e-11 0.0000000e+00 
0.0000000e+00 6.3480562e-12 0.0000000e+00 
0.0000000e+00 -2.2327854e-12 0.0000000e+00 
0.0000000e+00 6.6840149e-12 0.0000000e+00 
0.0000000e+00 -6.0600761e-11 0.0000000e+00 
0.0000000e+00 1.2486215e-10 0.0000000e+00 
0.0000000e+00 -2.1941644e-10 0.0000000e+00 
0.0000000e+00 4.6525939e-10 0.0000000e+00 
0.0000000e+00 -1.2252885e-09 0.0000000e+00 
0.0000000e+00 -3.1059795e-09 0.0000000e+00 
0.0000000e+00 -3.2305103e-09 0.0000000e+00 
0.0000000e+00 2.7639520e-09 0.0000000e+00 
0.0000000e+00 1.2501137e-08 0.0000000e+00 
0.0000000e+00 8.8462278e-09 0.0000000e+00 
0.0000000e+00 5.4111711e-09 0.0000000e+00 
0.0000000e+00 1.4382799e-09 0.0000000e+00 
0.0000000e+00 -2.0099640e-09 0.0000000e+00 
0.0000000e+00 3.0965588e-10 0.0000000e+00 
0.0000000e+00 2.1019562e-10 0.0000000e+00 
0.0000000e+00 -9.2550273e-11 0.0000000e+00 
0.0000000e+00 1.7364894e-11 0.0000000e+00 
0.0000000e+00 -1.7944298e-12 0.0000000e+00 
0.0000000e+00 1.4346469e-13 0.0000000e+00 
0.0000000e+00 2.8463065e-14 0.0000000e+00 
0.0000000e+00 -1.2214595e-15 0.0000000e+00 
0.0000000e+00 -2.0338453e-15 0.0000000e+00 
0.0000000e+00 4.9423091e-16 0.0000000e+00 
0.0000000e+00 -8.9924631e-17 0.0000000e+00 
0.0000000e+00 1.1194949e-17 0.0000000e+00 
0.0000000e+00 -7.2387795e-19 0.0000000e+00 
0.0000000e+00 -2.5520084e-20 0.0000000e+00 
0.0000000e+00 1.4974457e-20 0.0000000e+00 
0.0000000e+00 -4.0845746e-21 0.0000000e+00 
0.0000000e+00 5.7406809e-22 0.0000000e+00 
0.0000000e+00 -6.6992017e-24 0.0000000e+00 
0.0000000e+00 4.4026501e-11 0.0000000e+00 
8.6409796e-11 6.1540223e-10 5.4920440e-11 
4.4157308e-10 -5.0866609e-09 -1.3368554e-09 
-1.0225607e-08 8.7303142e-09 2.6150559e-09 
2.8146630e-08 3.8191434e-08 9.7863326e-09 
1.4290337e-07 3.4484768e-07 -1.0851623e-08 
1.7312483e-07 7.4041947e-07 -8.1523988e-09 
1.3903139e-07 6.6362617e-07 2.1963849e-08 
2.0008241e-07 7.0292845e-07 -1.8205071e-08 
1.2186133e-07 6.1644857e-07 -4.9001891e-09 
2.1848672e-08 2.5810243e-07 1.2248088e-08 
-5.0337308e-09 -3.0879129e-08 -1.0693957e-09 
1.6360000e-09 -1.4195798e-09 4.4902373e-10 
-2.3179353e-10 2.6747611e-09 -4.4119410e-11 
1.5045600e-11 -7.2581846e-10 -6.7871772e-12 
1.9392665e-12 1.2425885e-10 3.4044022e-12 
4.6355167e-13 -1.5693837e-11 1.7498204e-13 
-1.1144816e-13 -1.8450304e-12 -2.1016563e-13 
1.7032689e-12 1.1213238e-11 6.2150382e-13 
-1.4549102e-11 -2.2674676e-11 1.0873574e-12 
8.5828176e-12 -2.5876004e-10 8.2832415e-11 
-3.1283416e-12 2.6081095e-09 -4.0977691e-10 
-3.7206074e-10 -1.1394027e-08 -7.3035550e-10 
-5.0282782e-09 4.4222475e-08 1.6731991e-09 
3.7233530e-08 -1.5611535e-08 -7.6102608e-10 
1.2517751e-07 3.3070700e-07 4.5794304e-10 
2.1632022e-07 8.8465515e-07 1.2486919e-08 
1.1178286e-07 5.5767936e-07 -1.0892757e-08 
2.1443807e-07 6.8718003e-07 2.0815292e-09 
1.0343611e-07 6.0641293e-07 -6.6681061e-09 
7.9274090e-09 1.3538364e-07 1.0695769e-08 
-6.3456063e-09 -5.1283472e-08 -1.0547286e-09 
2.0305511e-09 8.6998915e-09 2.1583500e-10 
-3.2721290e-10 -8.0145635e-10 -2.1599467e-10 
3.5558140e-11 -1.6670822e-10 5.7010098e-11 
-2.7773376e-12 4.7964001e-11 -7.8991882e-12 
2.6336835e-13 -9.7490592e-12 2.1536334e-13 
-5.4689380e-14 3.0467051e-13 -1.4516859e-13 
7.7839474e-16 1.8546262e-13 2.0599111e-14 
5.6007396e-16 -3.3125629e-14 -2.1534654e-15 
-2.5353520e-16 3.3272960e-15 1.4763782e-16 
1.0723108e-16 -1.7971775e-16 -4.4153247e-18 
-1.6526093e-17 -1.2782024e-16 1.4998551e-19 
1.4594301e-18 3.7228690e-17 -2.2853783e-19 
-7.2114401e-20 -4.3441598e-18 5.9373131e-20 
-4.4745867e-21 4.8158694e-20 -2.6162315e-21 
1.5187315e-21 6.6018325e-20 1.1941092e-22 
-2.3710364e-22 -1.5905651e-20 2.4532717e-23 
6.8039392e-23 3.9809416e-21 -6.6394693e-23 
-5.6142075e-24 -3.6898814e-22 8.4820565e-24 
0.0000000e+00 -4.3829472e-23 0.0000000e+00 
0.0000000e+00 4.3922175e-11 0.0000000e+00 
0.0000000e+00 -4.8579807e-10 0.0000000e+00 
0.0000000e+00 4.0375521e-09 0.0000000e+00 
0.0000000e+00 -6.3066089e-08 0.0000000e+00 
0.0000000e+00 5.6525545e-07 0.0000000e+00 
0.0000000e+00 -2.4604233e-06 0.0000000e+00 
0.0000000e+00 1.7984030e-05 0.0000000e+00 
0.0000000e+00 4.5723773e-05 0.0000000e+00 
0.0000000e+00 6.8559284e-06 0.0000000e+00 
0.0000000e+00 3.5736703e-05 0.0000000e+00 
0.0000000e+00 3.2999240e-05 0.0000000e+00 
0.0000000e+00 -3.1238123e-06 0.0000000e+00 
0.0000000e+00 -7.7311836e-07 0.0000000e+00 
0.0000000e+00 7.3001743e-08 0.0000000e+00 
0.0000000e+00 -8.1444700e-09 0.0000000e+00 
0.0000000e+00 1.0016665e-09 0.0000000e+00 
0.0000000e+00 -5.8101333e-11 0.0000000e+00 
0.0000000e+00 3.2446771e-12 0.0000000e+00 
0.0000000e+00 -3.6182632e-13 0.0000000e+00 
0.0000000e+00 -2.0697591e-12 0.0000000e+00 
0.0000000e+00 -1.6275469e-11 0.0000000e+00 
0.0000000e+00 -3.5382974e-10 0.0000000e+00 
0.0000000e+00 7.9298070e-09 0.0000000e+00 
0.0000000e+00 -9.1834721e-08 0.0000000e+00 
0.0000000e+00 8.6741721e-07 0.0000000e+00 
0.0000000e+00 -4.4311091e-06 0.0000000e+00 
0.0000000e+00 2.2425607e-05 0.0000000e+00 
0.0000000e+00 3.8122504e-05 0.0000000e+00 
0.0000000e+00 6.9404473e-06 0.0000000e+00 
0.0000000e+00 3.2544263e-05 0.0000000e+00 
0.0000000e+00 2.7926448e-05 0.0000000e+00 
0.0000000e+00 -3.7113712e-06 0.0000000e+00 
0.0000000e+00 -4.0030761e-07 0.0000000e+00 
0.0000000e+00 2.5706520e-08 0.0000000e+00 
0.0000000e+00 -2.4019020e-09 0.0000000e+00 
0.0000000e+00 1.3448986e-10 0.0000000e+00 
0.0000000e+00 -1.6199096e-11 0.0000000e+00 
0.0000000e+00 -1.3346445e-12 0.0000000e+00 
0.0000000e+00 2.7062104e-13 0.0000000e+00 
0.0000000e+00 -6.4291503e-15 0.0000000e+00 
0.0000000e+00 -3.1059447e-15 0.0000000e+00 
0.0000000e+00 8.3151403e-16 0.0000000e+00 
0.0000000e+00 1.2261016e-16 0.0000000e+00 
0.0000000e+00 -7.3057578e-17 0.0000000e+00 
0.0000000e+00 9.5163812e-18 0.0000000e+00 
0.0000000e+00 -3.7992480e-19 0.0000000e+00 
0.0000000e+00 6.4750735e-20 0.0000000e+00 
0.0000000e+00 -1.1893447e-20 0.0000000e+00 
0.0000000e+00 -2.5789072e-22 0.0000000e+00 
0.0000000e+00 1.5877406e-22 0.0000000e+00 
0.0000000e+00 -2.2454252e-23 0.0000000e+00 
0.0000000e+00 -3.6077347e-24 0.0000000e+00 
0.0000000e+00 2.6166305e-23 0.0000000e+00 
1.1964818e-09 7.4331306e-09 -1.1502583e-09 
-3.5352017e-09 -6.6763931e-08 4.1837156e-09 
-1.2493695e-07 3.2688152e-07 3.0289499e-08 
1.0638158e-06 -3.6402636e-07 -4.5326016e-07 
-8.2567358e-06 1.3630767e-05 -9.5902851e-07 
-7.3821925e-06 2.7880078e-05 2.0621023e-07 
-2.9449509e-07 1.4432485e-05 -3.7692736e-08 
-1.1934590e-05 2.5954801e-05 -2.9855806e-07 
-2.2245533e-06 2.1807833e-05 9.1589828e-07 
4.7982235e-07 3.3936749e-06 5.7424489e-07 
3.5237719e-08 -4.2764557e-07 3.2364696e-08 
6.3099916e-09 -4.0364355e-08 -2.2012405e-09 
-5.8474042e-10 8.7962162e-09 -5.4162355e-11 
5.0724279e-11 -1.3233628e-09 3.9933314e-11 
-2.6758345e-13 1.1723077e-10 -7.8374876e-12 
-6.0150035e-13 -7.0398891e-12 1.2124945e-12 
-3.2713282e-13 -1.8133595e-12 -1.8482733e-13 
7.0767268e-12 1.9847434e-11 3.2004332e-12 
-5.0761687e-11 -1.3068412e-10 -2.9816840e-11 
1.5192474e-10 5.5427296e-10 1.9307322e-10 
4.9397031e-10 3.5195229e-09 -1.7276465e-09 
-5.4323093e-09 -6.1054550e-08 8.3345641e-09 
-1.2333615e-07 4.0361186e-07 1.4115973e-08 
1.2194348e-06 -5.3550025e-07 -5.3775466e-07 
-9.7900192e-06 1.6860684e-05 -9.5652410e-07 
-5.9598369e-06 2.7294916e-05 3.1617927e-07 
-1.3360628e-06 1.3815315e-05 -2.6901862e-08 
-1.1635063e-05 2.6581618e-05 -3.2172849e-07 
-1.5923403e-06 2.0441879e-05 9.6913448e-07 
5.1077245e-07 1.9808717e-06 5.1933330e-07 
2.0992539e-08 -3.1637137e-07 1.9792063e-08 
3.7932675e-09 -2.4784850e-08 -2.4526430e-09 
-2.5826893e-10 4.8570685e-09 2.4749239e-10 
1.7004722e-11 -4.6692161e-10 2.3241799e-11 
2.1816232e-12 1.6551276e-11 -9.0607478e-12 
-9.3542123e-13 2.1918669e-12 1.6192244e-12 
1.8294367e-13 2.6500996e-14 -1.6606703e-13 
-2.5735404e-14 -1.3821103e-13 6.6827812e-15 
2.2789235e-15 4.6498975e-14 4.5722674e-16 
-4.0923404e-16 -3.6943211e-15 -2.4924340e-17 
5.0956781e-17 7.5907354e-17 7.5653591e-18 
-4.2754488e-18 8.6661794e-18 -1.9726820e-18 
-4.3177685e-19 1.6447399e-18 1.1199101e-19 
1.1511376e-19 9.8192966e-19 -1.6859287e-20 
-1.8936948e-20 -1.4884801e-19 -1.5728869e-21 
7.9120224e-22 2.2267056e-21 1.4534930e-21 
1.5592125e-22 7.0952136e-21 -4.1466427e-22 
-6.4998144e-23 -7.3902625e-22 4.0265281e-23 
6.1395044e-24 -6.4535764e-23 -1.5824420e-24 
0.0000000e+00 -3.6084974e-10 0.0000000e+00 
-5.7603767e-25 -6.4903152e-23 2.3837083e-24 
0.0000000e+00 -2.7298594e-09 0.0000000e+00 
0.0000000e+00 7.2130746e-09 0.0000000e+00 
0.0000000e+00 -2.0033872e-07 0.0000000e+00 
0.0000000e+00 1.2342414e-05 0.0000000e+00 
0.0000000e+00 -2.6276792e-04 0.0000000e+00 
0.0000000e+00 -3.9858453e-04 0.0000000e+00 
0.0000000e+00 -1.8418851e-04 0.0000000e+00 
0.0000000e+00 -4.3956225e-04 0.0000000e+00 
0.0000000e+00 -2.8306522e-04 0.0000000e+00 
0.0000000e+00 -3.7284877e-05 0.0000000e+00 
0.0000000e+00 6.0572972e-07 0.0000000e+00 
0.0000000e+00 -4.3468674e-08 0.0000000e+00 
0.0000000e+00 1.5373379e-09 0.0000000e+00 
0.0000000e+00 -1.0473495e-10 0.0000000e+00 
0.0000000e+00 9.8381798e-12 0.0000000e+00 
0.0000000e+00 2.2183895e-12 0.0000000e+00 
0.0000000e+00 7.9319242e-14 0.0000000e+00 
0.0000000e+00 -8.9951111e-14 0.0000000e+00 
0.0000000e+00 -3.7084662e-11 0.0000000e+00 
0.0000000e+00 5.0136323e-10 0.0000000e+00 
0.0000000e+00 -4.0689461e-09 0.0000000e+00 