# vtk DataFile Version 4.0
vtk output
ASCII
DATASET UNSTRUCTURED_GRID
POINTS 1659 float
0.0000000e+00 0.0000000e+00 0.0000000e+00 
0.0000000e+00 0.0000000e+00 5.0000000e+01 
5.0000000e+00 0.0000000e+00 0.0000000e+00 
5.0000000e+00 0.0000000e+00 5.0000000e+01 
5.0000000e+00 1.0000000e+00 0.0000000e+00 
5.0000000e+00 1.0000000e+00 5.0000000e+01 
0.0000000e+00 1.0000000e+00 0.0000000e+00 
0.0000000e+00 1.0000000e+00 5.0000000e+01 
5.0000000e+00 2.0000000e+00 0.0000000e+00 
5.0000000e+00 2.0000000e+00 5.0000000e+01 
3.0000000e+00 2.0000000e+00 0.0000000e+00 
3.0000000e+00 2.0000000e+00 5.0000000e+01 
0.0000000e+00 2.0000000e+00 0.0000000e+00 
0.0000000e+00 2.0000000e+00 5.0000000e+01 
1.5000000e+00 3.0000000e+00 0.0000000e+00 
1.5000000e+00 3.0000000e+00 5.0000000e+01 
7.5000000e-01 3.0000000e+00 0.0000000e+00 
7.5000000e-01 3.0000000e+00 5.0000000e+01 
0.0000000e+00 3.0000000e+00 0.0000000e+00 
0.0000000e+00 3.0000000e+00 5.0000000e+01 
0.0000000e+00 0.0000000e+00 1.0000000e+00 
0.0000000e+00 0.0000000e+00 2.0000000e+00 
0.0000000e+00 0.0000000e+00 3.0000000e+00 
0.0000000e+00 0.0000000e+00 4.0000000e+00 
0.0000000e+00 0.0000000e+00 5.0000000e+00 
0.0000000e+00 0.0000000e+00 6.0000000e+00 
0.0000000e+00 0.0000000e+00 7.0000000e+00 
0.0000000e+00 0.0000000e+00 8.0000000e+00 
0.0000000e+00 0.0000000e+00 9.0000000e+00 
0.0000000e+00 0.0000000e+00 1.0000000e+01 
0.0000000e+00 0.0000000e+00 1.1000000e+01 
0.0000000e+00 0.0000000e+00 1.2000000e+01 
0.0000000e+00 0.0000000e+00 1.3000000e+01 
0.0000000e+00 0.0000000e+00 1.4000000e+01 
0.0000000e+00 0.0000000e+00 1.5000000e+01 
0.0000000e+00 0.0000000e+00 1.6000000e+01 
0.0000000e+00 0.0000000e+00 1.7000000e+01 
0.0000000e+00 0.0000000e+00 1.8000000e+01 
0.0000000e+00 0.0000000e+00 1.9000000e+01 
0.0000000e+00 0.0000000e+00 2.0000000e+01 
0.0000000e+00 0.0000000e+00 2.1000000e+01 
0.0000000e+00 0.0000000e+00 2.2000000e+01 
0.0000000e+00 0.0000000e+00 2.3000000e+01 
0.0000000e+00 0.0000000e+00 2.4000000e+01 
0.0000000e+00 0.0000000e+00 2.5000000e+01 
0.0000000e+00 0.0000000e+00 2.6000000e+01 
0.0000000e+00 0.0000000e+00 2.7000000e+01 
0.0000000e+00 0.0000000e+00 2.8000000e+01 
0.0000000e+00 0.0000000e+00 2.9000000e+01 
0.0000000e+00 0.0000000e+00 3.0000000e+01 
0.0000000e+00 0.0000000e+00 3.1000000e+01 
0.0000000e+00 0.0000000e+00 3.2000000e+01 
0.0000000e+00 0.0000000e+00 3.3000000e+01 
0.0000000e+00 0.0000000e+00 3.4000000e+01 
0.0000000e+00 0.0000000e+00 3.5000000e+01 
0.0000000e+00 0.0000000e+00 3.6000000e+01 
0.0000000e+00 0.0000000e+00 3.7000000e+01 
0.0000000e+00 0.0000000e+00 3.8000000e+01 
0.0000000e+00 0.0000000e+00 3.9000000e+01 
0.0000000e+00 0.0000000e+00 4.0000000e+01 
0.0000000e+00 0.0000000e+00 4.1000000e+01 
0.0000000e+00 0.0000000e+00 4.2000000e+01 
0.0000000e+00 0.0000000e+00 4.3000000e+01 
0.0000000e+00 0.0000000e+00 4.4000000e+01 
0.0000000e+00 0.0000000e+00 4.5000000e+01 
0.0000000e+00 0.0000000e+00 4.6000000e+01 
0.0000000e+00 0.0000000e+00 4.7000000e+01 
0.0000000e+00 0.0000000e+00 4.8000000e+01 
0.0000000e+00 0.0000000e+00 4.9000000e+01 
5.0000000e+00 0.0000000e+00 1.0000000e+00 
5.0000000e+00 0.0000000e+00 2.0000000e+00 
5.0000000e+00 0.0000000e+00 3.0000000e+00 
5.0000000e+00 0.0000000e+00 4.0000000e+00 
5.0000000e+00 0.0000000e+00 5.0000000e+00 
5.0000000e+00 0.0000000e+00 6.0000000e+00 
5.0000000e+00 0.0000000e+00 7.0000000e+00 
5.0000000e+00 0.0000000e+00 8.0000000e+00 
5.0000000e+00 0.0000000e+00 9.0000000e+00 
5.0000000e+00 0.0000000e+00 1.0000000e+01 
5.0000000e+00 0.0000000e+00 1.1000000e+01 
5.0000000e+00 0.0000000e+00 1.2000000e+01 
5.0000000e+00 0.0000000e+00 1.3000000e+01 
5.0000000e+00 0.0000000e+00 1.4000000e+01 
5.0000000e+00 0.0000000e+00 1.5000000e+01 
5.0000000e+00 0.0000000e+00 1.6000000e+01 
5.0000000e+00 0.0000000e+00 1.7000000e+01 
5.0000000e+00 0.0000000e+00 1.8000000e+01 
5.0000000e+00 0.0000000e+00 1.9000000e+01 
5.0000000e+00 0.0000000e+00 2.0000000e+01 
5.0000000e+00 0.0000000e+00 2.1000000e+01 
5.0000000e+00 0.0000000e+00 2.2000000e+01 
5.0000000e+00 0.0000000e+00 2.3000000e+01 
5.0000000e+00 0.0000000e+00 2.4000000e+01 
5.0000000e+00 0.0000000e+00 2.5000000e+01 
5.0000000e+00 0.0000000e+00 2.6000000e+01 
5.0000000e+00 0.0000000e+00 2.7000000e+01 
5.0000000e+00 0.0000000e+00 2.8000000e+01 
5.0000000e+00 0.0000000e+00 2.9000000e+01 
5.0000000e+00 0.0000000e+00 3.0000000e+01 
5.0000000e+00 0.0000000e+00 3.1000000e+01 
5.0000000e+00 0.0000000e+00 3.2000000e+01 
5.0000000e+00 0.0000000e+00 3.3000000e+01 
5.0000000e+00 0.0000000e+00 3.4000000e+01 
5.0000000e+00 0.0000000e+00 3.5000000e+01 
5.0000000e+00 0.0000000e+00 3.6000000e+01 
5.0000000e+00 0.0000000e+00 3.7000000e+01 
5.0000000e+00 0.0000000e+00 3.8000000e+01 
5.0000000e+00 0.0000000e+00 3.9000000e+01 
5.0000000e+00 0.0000000e+00 4.0000000e+01 
5.0000000e+00 0.0000000e+00 4.1000000e+01 
5.0000000e+00 0.0000000e+00 4.2000000e+01 
5.0000000e+00 0.0000000e+00 4.3000000e+01 
5.0000000e+00 0.0000000e+00 4.4000000e+01 
5.0000000e+00 0.0000000e+00 4.5000000e+01 
5.0000000e+00 0.0000000e+00 4.6000000e+01 
5.0000000e+00 0.0000000e+00 4.7000000e+01 
5.0000000e+00 0.0000000e+00 4.8000000e+01 
5.0000000e+00 0.0000000e+00 4.9000000e+01 
1.0000000e+00 0.0000000e+00 0.0000000e+00 
2.0000000e+00 0.0000000e+00 0.0000000e+00 
3.0000000e+00 0.0000000e+00 0.0000000e+00 
4.0000000e+00 0.0000000e+00 0.0000000e+00 
1.0000000e+00 0.0000000e+00 5.0000000e+01 
2.0000000e+00 0.0000000e+00 5.0000000e+01 
3.0000000e+00 0.0000000e+00 5.0000000e+01 
4.0000000e+00 0.0000000e+00 5.0000000e+01 
5.0000000e+00 1.0000000e+00 1.0000000e+00 
5.0000000e+00 1.0000000e+00 2.0000000e+00 
5.0000000e+00 1.0000000e+00 3.0000000e+00 
5.0000000e+00 1.0000000e+00 4.0000000e+00 
5.0000000e+00 1.0000000e+00 5.0000000e+00 
5.0000000e+00 1.0000000e+00 6.0000000e+00 
5.0000000e+00 1.0000000e+00 7.0000000e+00 
5.0000000e+00 1.0000000e+00 8.0000000e+00 
5.0000000e+00 1.0000000e+00 9.0000000e+00 
5.0000000e+00 1.0000000e+00 1.0000000e+01 
5.0000000e+00 1.0000000e+00 1.1000000e+01 
5.0000000e+00 1.0000000e+00 1.2000000e+01 
5.0000000e+00 1.0000000e+00 1.3000000e+01 
5.0000000e+00 1.0000000e+00 1.4000000e+01 
5.0000000e+00 1.0000000e+00 1.5000000e+01 
5.0000000e+00 1.0000000e+00 1.6000000e+01 
5.0000000e+00 1.0000000e+00 1.7000000e+01 
5.0000000e+00 1.0000000e+00 1.8000000e+01 
5.0000000e+00 1.0000000e+00 1.9000000e+01 
5.0000000e+00 1.0000000e+00 2.0000000e+01 
5.0000000e+00 1.0000000e+00 2.1000000e+01 
5.0000000e+00 1.0000000e+00 2.2000000e+01 
5.0000000e+00 1.0000000e+00 2.3000000e+01 
5.0000000e+00 1.0000000e+00 2.4000000e+01 
5.0000000e+00 1.0000000e+00 2.5000000e+01 
5.0000000e+00 1.0000000e+00 2.6000000e+01 
5.0000000e+00 1.0000000e+00 2.7000000e+01 
5.0000000e+00 1.0000000e+00 2.8000000e+01 
5.0000000e+00 1.0000000e+00 2.9000000e+01 
5.0000000e+00 1.0000000e+00 3.0000000e+01 
5.0000000e+00 1.0000000e+00 3.1000000e+01 
5.0000000e+00 1.0000000e+00 3.2000000e+01 
5.0000000e+00 1.0000000e+00 3.3000000e+01 
5.0000000e+00 1.0000000e+00 3.4000000e+01 
5.0000000e+00 1.0000000e+00 3.5000000e+01 
5.0000000e+00 1.0000000e+00 3.6000000e+01 
5.0000000e+00 1.0000000e+00 3.7000000e+01 
5.0000000e+00 1.0000000e+00 3.8000000e+01 
5.0000000e+00 1.0000000e+00 3.9000000e+01 
5.0000000e+00 1.0000000e+00 4.0000000e+01 
5.0000000e+00 1.0000000e+00 4.1000000e+01 
5.0000000e+00 1.0000000e+00 4.2000000e+01 
5.0000000e+00 1.0000000e+00 4.3000000e+01 
5.0000000e+00 1.0000000e+00 4.4000000e+01 
5.0000000e+00 1.0000000e+00 4.5000000e+01 
5.0000000e+00 1.0000000e+00 4.6000000e+01 
5.0000000e+00 1.0000000e+00 4.7000000e+01 
5.0000000e+00 1.0000000e+00 4.8000000e+01 
5.0000000e+00 1.0000000e+00 4.9000000e+01 
0.0000000e+00 1.0000000e+00 1.0000000e+00 
0.0000000e+00 1.0000000e+00 2.0000000e+00 
0.0000000e+00 1.0000000e+00 3.0000000e+00 
0.0000000e+00 1.0000000e+00 4.0000000e+00 
0.0000000e+00 1.0000000e+00 5.0000000e+00 
0.0000000e+00 1.0000000e+00 6.0000000e+00 
0.0000000e+00 1.0000000e+00 7.0000000e+00 
0.0000000e+00 1.0000000e+00 8.0000000e+00 
0.0000000e+00 1.0000000e+00 9.0000000e+00 
0.0000000e+00 1.0000000e+00 1.0000000e+01 
0.0000000e+00 1.0000000e+00 1.1000000e+01 
0.0000000e+00 1.0000000e+00 1.2000000e+01 
0.0000000e+00 1.0000000e+00 1.3000000e+01 
0.0000000e+00 1.0000000e+00 1.4000000e+01 
0.0000000e+00 1.0000000e+00 1.5000000e+01 
0.0000000e+00 1.0000000e+00 1.6000000e+01 
0.0000000e+00 1.0000000e+00 1.7000000e+01 
0.0000000e+00 1.0000000e+00 1.8000000e+01 
0.0000000e+00 1.0000000e+00 1.9000000e+01 
0.0000000e+00 1.0000000e+00 2.0000000e+01 
0.0000000e+00 1.0000000e+00 2.1000000e+01 
0.0000000e+00 1.0000000e+00 2.2000000e+01 
0.0000000e+00 1.0000000e+00 2.3000000e+01 
0.0000000e+00 1.0000000e+00 2.4000000e+01 
0.0000000e+00 1.0000000e+00 2.5000000e+01 
0.0000000e+00 1.0000000e+00 2.6000000e+01 
0.0000000e+00 1.0000000e+00 2.7000000e+01 
0.0000000e+00 1.0000000e+00 2.8000000e+01 
0.0000000e+00 1.0000000e+00 2.9000000e+01 
0.0000000e+00 1.0000000e+00 3.0000000e+01 
0.0000000e+00 1.0000000e+00 3.1000000e+01 
0.0000000e+00 1.0000000e+00 3.2000000e+01 
0.0000000e+00 1.0000000e+00 3.3000000e+01 
0.0000000e+00 1.0000000e+00 3.4000000e+01 
0.0000000e+00 1.0000000e+00 3.5000000e+01 
0.0000000e+00 1.0000000e+00 3.6000000e+01 
0.0000000e+00 1.0000000e+00 3.7000000e+01 
0.0000000e+00 1.0000000e+00 3.8000000e+01 
0.0000000e+00 1.0000000e+00 3.9000000e+01 
0.0000000e+00 1.0000000e+00 4.0000000e+01 
0.0000000e+00 1.0000000e+00 4.1000000e+01 
0.0000000e+00 1.0000000e+00 4.2000000e+01 
0.0000000e+00 1.0000000e+00 4.3000000e+01 
0.0000000e+00 1.0000000e+00 4.4000000e+01 
0.0000000e+00 1.0000000e+00 4.5000000e+01 
0.0000000e+00 1.0000000e+00 4.6000000e+01 
0.0000000e+00 1.0000000e+00 4.7000000e+01 
0.0000000e+00 1.0000000e+00 4.8000000e+01 
0.0000000e+00 1.0000000e+00 4.9000000e+01 
4.0000000e+00 1.0000000e+00 0.0000000e+00 
3.0000000e+00 1.0000000e+00 0.0000000e+00 
2.0000000e+00 1.0000000e+00 0.0000000e+00 
1.0000000e+00 1.0000000e+00 0.0000000e+00 
4.0000000e+00 1.0000000e+00 5.0000000e+01 
3.0000000e+00 1.0000000e+00 5.0000000e+01 
[...]
POINT_DATA 1659
FIELD FieldData 2
DISPLACEMENT 3 1659  float
0.0000000e+00 0.0000000e+00 0.0000000e+00 
0.0000000e+00 0.0000000e+00 0.0000000e+00 
0.0000000e+00 0.0000000e+00 0.0000000e+00 
0.0000000e+00 0.0000000e+00 0.0000000e+00 
0.0000000e+00 -2.1131615e-10 0.0000000e+00 
0.0000000e+00 1.4845167e-17 0.0000000e+00 
0.0000000e+00 1.4347422e-08 0.0000000e+00 
0.0000000e+00 -2.1554863e-18 0.0000000e+00 
0.0000000e+00 -1.8328418e-09 0.0000000e+00 
0.0000000e+00 -1.2809841e-17 0.0000000e+00 
0.0000000e+00 -2.9383991e-09 0.0000000e+00 
0.0000000e+00 5.0272348e-17 0.0000000e+00 
0.0000000e+00 1.9137133e-08 0.0000000e+00 
0.0000000e+00 -3.8271145e-18 0.0000000e+00 
0.0000000e+00 -4.3786969e-08 0.0000000e+00 
-8.6186380e-18 -1.6072453e-17 4.6610490e-18 
0.0000000e+00 4.4976943e-08 0.0000000e+00 
0.0000000e+00 -9.7518266e-18 0.0000000e+00 
0.0000000e+00 2.5484546e-08 0.0000000e+00 
0.0000000e+00 1.6799067e-17 0.0000000e+00 
0.0000000e+00 0.0000000e+00 0.0000000e+00 
0.0000000e+00 0.0000000e+00 0.0000000e+00 
0.0000000e+00 0.0000000e+00 0.0000000e+00 
0.0000000e+00 0.0000000e+00 0.0000000e+00 
0.0000000e+00 0.0000000e+00 0.0000000e+00 
0.0000000e+00 0.0000000e+00 0.0000000e+00 
0.0000000e+00 0.0000000e+00 0.0000000e+00 
0.0000000e+00 0.0000000e+00 0.0000000e+00 
0.0000000e+00 0.0000000e+00 0.0000000e+00 
0.0000000e+00 0.0000000e+00 0.0000000e+00 
0.0000000e+00 0.0000000e+00 0.0000000e+00 
0.0000000e+00 0.0000000e+00 0.0000000e+00 
0.0000000e+00 0.0000000e+00 0.0000000e+00 
0.0000000e+00 0.0000000e+00 0.0000000e+00 
0.0000000e+00 0.0000000e+00 0.0000000e+00 
0.0000000e+00 0.0000000e+00 0.0000000e+00 
0.0000000e+00 0.0000000e+00 0.0000000e+00 
0.0000000e+00 0.0000000e+00 0.0000000e+00 
0.0000000e+00 0.0000000e+00 0.0000000e+00 
0.0000000e+00 0.0000000e+00 0.0000000e+00 
0.0000000e+00 0.0000000e+00 0.0000000e+00 
0.0000000e+00 0.0000000e+00 0.0000000e+00 
0.0000000e+00 0.0000000e+00 0.0000000e+00 
0.0000000e+00 0.0000000e+00 0.0000000e+00 
0.0000000e+00 0.0000000e+00 0.0000000e+00 
0.0000000e+00 0.0000000e+00 0.0000000e+00 
0.0000000e+00 0.0000000e+00 0.0000000e+00 
0.0000000e+00 0.0000000e+00 0.0000000e+00 
0.0000000e+00 0.0000000e+00 0.0000000e+00 
0.0000000e+00 0.0000000e+00 0.0000000e+00 
0.0000000e+00 0.0000000e+00 0.0000000e+00 
0.0000000e+00 0.0000000e+00 0.0000000e+00 
0.0000000e+00 0.0000000e+00 0.0000000e+00 
0.0000000e+00 0.0000000e+00 0.0000000e+00 
0.0000000e+00 0.0000000e+00 0.0000000e+00 
0.0000000e+00 0.0000000e+00 0.0000000e+00 
0.0000000e+00 0.0000000e+00 0.0000000e+00 
0.0000000e+00 0.0000000e+00 0.0000000e+00 
0.0000000e+00 0.0000000e+00 0.0000000e+00 
0.0000000e+00 0.0000000e+00 0.0000000e+00 
0.0000000e+00 0.0000000e+00 0.0000000e+00 
0.0000000e+00 0.0000000e+00 0.0000000e+00 
0.0000000e+00 0.0000000e+00 0.0000000e+00 
0.0000000e+00 0.0000000e+00 0.0000000e+00 
0.0000000e+00 0.0000000e+00 0.0000000e+00 
0.0000000e+00 0.0000000e+00 0.0000000e+00 
0.0000000e+00 0.0000000e+00 0.0000000e+00 
0.0000000e+00 0.0000000e+00 0.0000000e+00 
0.0000000e+00 0.0000000e+00 0.0000000e+00 
0.0000000e+00 0.0000000e+00 0.0000000e+00 
0.0000000e+00 0.0000000e+00 0.0000000e+00 
0.0000000e+00 0.0000000e+00 0.0000000e+00 
0.0000000e+00 0.0000000e+00 0.0000000e+00 
0.0000000e+00 0.0000000e+00 0.0000000e+00 
0.0000000e+00 0.0000000e+00 0.0000000e+00 
0.0000000e+00 0.0000000e+00 0.0000000e+00 
0.0000000e+00 0.0000000e+00 0.0000000e+00 
0.0000000e+00 0.0000000e+00 0.0000000e+00 
0.0000000e+00 0.0000000e+00 0.0000000e+00 
0.0000000e+00 0.0000000e+00 0.0000000e+00 
0.0000000e+00 0.0000000e+00 0.0000000e+00 
0.0000000e+00 0.0000000e+00 0.0000000e+00 
0.0000000e+00 0.0000000e+00 0.0000000e+00 
0.0000000e+00 0.0000000e+00 0.0000000e+00 
0.0000000e+00 0.0000000e+00 0.0000000e+00 
0.0000000e+00 0.0000000e+00 0.0000000e+00 
0.0000000e+00 0.0000000e+00 0.0000000e+00 
0.0000000e+00 0.0000000e+00 0.0000000e+00 
0.0000000e+00 0.0000000e+00 0.0000000e+00 
0.0000000e+00 0.0000000e+00 0.0000000e+00 
0.0000000e+00 0.0000000e+00 0.0000000e+00 
0.0000000e+00 0.0000000e+00 0.0000000e+00 
0.0000000e+00 0.0000000e+00 0.0000000e+00 
0.0000000e+00 0.0000000e+00 0.0000000e+00 
0.0000000e+00 0.0000000e+00 0.0000000e+00 
0.0000000e+00 0.0000000e+00 0.0000000e+00 
0.0000000e+00 0.0000000e+00 0.0000000e+00 
0.0000000e+00 0.0000000e+00 0.0000000e+00 
0.0000000e+00 0.0000000e+00 0.0000000e+00 
0.0000000e+00 0.0000000e+00 0.0000000e+00 
0.0000000e+00 0.0000000e+00 0.0000000e+00 
0.0000000e+00 0.0000000e+00 0.0000000e+00 
0.0000000e+00 0.0000000e+00 0.0000000e+00 
0.0000000e+00 0.0000000e+00 0.0000000e+00 
0.0000000e+00 0.0000000e+00 0.0000000e+00 
0.0000000e+00 0.0000000e+00 0.0000000e+00 
0.0000000e+00 0.0000000e+00 0.0000000e+00 
0.0000000e+00 0.0000000e+00 0.0000000e+00 
0.0000000e+00 0.0000000e+00 0.0000000e+00 
0.0000000e+00 0.0000000e+00 0.0000000e+00 
0.0000000e+00 0.0000000e+00 0.0000000e+00 
0.0000000e+00 0.0000000e+00 0.0000000e+00 
0.0000000e+00 0.0000000e+00 0.0000000e+00 
0.0000000e+00 0.0000000e+00 0.0000000e+00 
0.0000000e+00 0.0000000e+00 0.0000000e+00 
0.0000000e+00 0.0000000e+00 0.0000000e+00 
0.0000000e+00 0.0000000e+00 0.0000000e+00 
0.0000000e+00 0.0000000e+00 0.0000000e+00 
0.0000000e+00 0.0000000e+00 0.0000000e+00 
0.0000000e+00 0.0000000e+00 0.0000000e+00 
0.0000000e+00 0.0000000e+00 0.0000000e+00 
0.0000000e+00 0.0000000e+00 0.0000000e+00 
0.0000000e+00 0.0000000e+00 0.0000000e+00 
0.0000000e+00 0.0000000e+00 0.0000000e+00 
0.0000000e+00 0.0000000e+00 0.0000000e+00 
0.0000000e+00 0.0000000e+00 0.0000000e+00 
0.0000000e+00 -2.5371216e-10 0.0000000e+00 
0.0000000e+00 1.0028055e-08 0.0000000e+00 
0.0000000e+00 -6.3858590e-09 0.0000000e+00 
0.0000000e+00 -5.6011199e-08 0.0000000e+00 
0.0000000e+00 -1.2353927e-07 0.0000000e+00 
0.0000000e+00 -1.8686967e-07 0.0000000e+00 
0.0000000e+00 -2.8934542e-07 0.0000000e+00 
0.0000000e+00 -4.3305539e-07 0.0000000e+00 
0.0000000e+00 -3.0158435e-07 0.0000000e+00 
0.0000000e+00 -1.9466506e-07 0.0000000e+00 
0.0000000e+00 -1.7224414e-08 0.0000000e+00 
0.0000000e+00 3.0152822e-08 0.0000000e+00 
0.0000000e+00 6.0302469e-08 0.0000000e+00 
0.0000000e+00 4.9568229e-08 0.0000000e+00 
0.0000000e+00 3.6391910e-08 0.0000000e+00 
0.0000000e+00 -4.9785114e-09 0.0000000e+00 
0.0000000e+00 -8.5346104e-09 0.0000000e+00 
0.0000000e+00 -4.2377173e-09 0.0000000e+00 
0.0000000e+00 9.7644060e-10 0.0000000e+00 
0.0000000e+00 -1.3843172e-09 0.0000000e+00 
0.0000000e+00 2.0368291e-09 0.0000000e+00 
0.0000000e+00 1.1749022e-08 0.0000000e+00 
0.0000000e+00 -1.5753097e-08 0.0000000e+00 
0.0000000e+00 -3.3667121e-08 0.0000000e+00 
0.0000000e+00 -1.0024543e-07 0.0000000e+00 
0.0000000e+00 -2.2733906e-07 0.0000000e+00 
0.0000000e+00 -3.8935949e-07 0.0000000e+00 
0.0000000e+00 -3.8717826e-07 0.0000000e+00 
0.0000000e+00 -2.5010442e-07 0.0000000e+00 
0.0000000e+00 -1.6821224e-07 0.0000000e+00 
0.0000000e+00 -8.6148518e-08 0.0000000e+00 
0.0000000e+00 5.8555976e-08 0.0000000e+00 
0.0000000e+00 9.4721443e-08 0.0000000e+00 
0.0000000e+00 3.6018843e-08 0.0000000e+00 
0.0000000e+00 8.6893124e-09 0.0000000e+00 
0.0000000e+00 -3.9581910e-10 0.0000000e+00 
0.0000000e+00 -9.0587688e-09 0.0000000e+00 
0.0000000e+00 -2.1997975e-09 0.0000000e+00 
0.0000000e+00 1.7047228e-09 0.0000000e+00 
0.0000000e+00 2.8146192e-11 0.0000000e+00 
0.0000000e+00 -4.3497424e-11 0.0000000e+00 
0.0000000e+00 2.3522774e-11 0.0000000e+00 
0.0000000e+00 -5.3277873e-12 0.0000000e+00 
0.0000000e+00 3.7046242e-13 0.0000000e+00 
0.0000000e+00 -8.1341235e-15 0.0000000e+00 
0.0000000e+00 -2.1064669e-14 0.0000000e+00 
0.0000000e+00 4.8749907e-16 0.0000000e+00 
0.0000000e+00 -1.1790566e-16 0.0000000e+00 
0.0000000e+00 -3.3552279e-17 0.0000000e+00 
0.0000000e+00 -1.5617371e-08 0.0000000e+00 
0.0000000e+00 1.8102766e-07 0.0000000e+00 
0.0000000e+00 -1.4618147e-06 0.0000000e+00 
0.0000000e+00 7.9056754e-06 0.0000000e+00 
0.0000000e+00 3.3959564e-05 0.0000000e+00 
0.0000000e+00 5.0390838e-05 0.0000000e+00 
0.0000000e+00 7.3077412e-05 0.0000000e+00 
0.0000000e+00 6.3838568e-05 0.0000000e+00 
0.0000000e+00 9.9233308e-05 0.0000000e+00 
0.0000000e+00 6.1493942e-05 0.0000000e+00 
0.0000000e+00 3.3665223e-05 0.0000000e+00 
0.0000000e+00 9.8133742e-06 0.0000000e+00 
0.0000000e+00 5.6411920e-07 0.0000000e+00 
0.0000000e+00 3.2641378e-07 0.0000000e+00 
0.0000000e+00 -1.1912955e-05 0.0000000e+00 
0.0000000e+00 -2.6879236e-06 0.0000000e+00 
0.0000000e+00 1.4721762e-06 0.0000000e+00 
0.0000000e+00 6.5894500e-07 0.0000000e+00 
0.0000000e+00 -1.5004393e-07 0.0000000e+00 
0.0000000e+00 4.2003993e-08 0.0000000e+00 
0.0000000e+00 -9.4154522e-08 0.0000000e+00 
0.0000000e+00 7.9645150e-07 0.0000000e+00 
0.0000000e+00 -2.3192813e-06 0.0000000e+00 
0.0000000e+00 1.1987282e-05 0.0000000e+00 
0.0000000e+00 2.0616531e-05 0.0000000e+00 
0.0000000e+00 5.2986565e-05 0.0000000e+00 
0.0000000e+00 6.9493137e-05 0.0000000e+00 
0.0000000e+00 7.4651231e-05 0.0000000e+00 
0.0000000e+00 1.1853687e-04 0.0000000e+00 
0.0000000e+00 8.7860397e-05 0.0000000e+00 
0.0000000e+00 2.9727089e-05 0.0000000e+00 
0.0000000e+00 1.2071146e-05 0.0000000e+00 
0.0000000e+00 -2.1600813e-06 0.0000000e+00 
0.0000000e+00 -6.9117000e-06 0.0000000e+00 
0.0000000e+00 -5.1778911e-06 0.0000000e+00 
0.0000000e+00 -6.1576698e-06 0.0000000e+00 
0.0000000e+00 -4.4603223e-07 0.0000000e+00 
0.0000000e+00 5.6990274e-07 0.0000000e+00 
0.0000000e+00 -7.7786368e-08 0.0000000e+00 
0.0000000e+00 1.0054992e-08 0.0000000e+00 
0.0000000e+00 -1.4078775e-09 0.0000000e+00 
0.0000000e+00 2.3973429e-10 0.0000000e+00 
0.0000000e+00 -1.5973908e-11 0.0000000e+00 
0.0000000e+00 1.3563992e-12 0.0000000e+00 
0.0000000e+00 -9.5966150e-14 0.0000000e+00 
0.0000000e+00 5.2638452e-15 0.0000000e+00 
0.0000000e+00 7.1314441e-16 0.0000000e+00 
0.0000000e+00 -4.1068829e-17 0.0000000e+00 
0.0000000e+00 9.9195789e-18 0.0000000e+00 
0.0000000e+00 -5.6330407e-10 0.0000000e+00 
0.0000000e+00 8.4721368e-09 0.0000000e+00 
0.0000000e+00 6.0216667e-09 0.0000000e+00 
0.0000000e+00 1.7356507e-08 0.0000000e+00 
0.0000000e+00 -7.3613599e-18 0.0000000e+00 
0.0000000e+00 7.8676417e-17 0.0000000e+00 
0.0000000e+00 -6.5291930e-18 0.0000000e+00 
0.0000000e+00 -3.5909920e-18 0.0000000e+00 
0.0000000e+00 3.3709509e-09 0.0000000e+00 
0.0000000e+00 1.4555190e-09 0.0000000e+00 
0.0000000e+00 -2.8448488e-08 0.0000000e+00 
0.0000000e+00 -2.6509444e-09 0.0000000e+00 
0.0000000e+00 2.9729804e-08 0.0000000e+00 
0.0000000e+00 -5.0351062e-08 0.0000000e+00 
0.0000000e+00 -2.5788759e-07 0.0000000e+00 
0.0000000e+00 -1.5936773e-07 0.0000000e+00 
0.0000000e+00 -7.6006394e-08 0.0000000e+00 
0.0000000e+00 -2.2253148e-07 0.0000000e+00 
0.0000000e+00 -1.7687478e-07 0.0000000e+00 
0.0000000e+00 -2.6847136e-08 0.0000000e+00 
0.0000000e+00 -3.1357839e-08 0.0000000e+00 
0.0000000e+00 5.2760076e-09 0.0000000e+00 
0.0000000e+00 -5.1580534e-10 0.0000000e+00 
0.0000000e+00 1.5524463e-08 0.0000000e+00 
0.0000000e+00 5.7802438e-09 0.0000000e+00 
0.0000000e+00 3.1515033e-09 0.0000000e+00 
0.0000000e+00 -2.7965244e-10 0.0000000e+00 
0.0000000e+00 -2.5938396e-09 0.0000000e+00 
0.0000000e+00 3.8368704e-09 0.0000000e+00 
0.0000000e+00 5.8743321e-09 0.0000000e+00 
0.0000000e+00 -3.9105178e-08 0.0000000e+00 
0.0000000e+00 5.2611253e-09 0.0000000e+00 
0.0000000e+00 -9.8895674e-09 0.0000000e+00 
0.0000000e+00 -1.4746500e-07 0.0000000e+00 
0.0000000e+00 -4.4864478e-08 0.0000000e+00 
0.0000000e+00 -1.3111161e-07 0.0000000e+00 
0.0000000e+00 -1.9038407e-07 0.0000000e+00 
0.0000000e+00 -1.8055772e-07 0.0000000e+00 
0.0000000e+00 -1.5694933e-07 0.0000000e+00 
0.0000000e+00 -7.1155547e-08 0.0000000e+00 
0.0000000e+00 -2.9129462e-08 0.0000000e+00 
0.0000000e+00 -1.3753713e-08 0.0000000e+00 
0.0000000e+00 -1.6258246e-08 0.0000000e+00 
0.0000000e+00 6.6961797e-11 0.0000000e+00 
0.0000000e+00 1.3296187e-08 0.0000000e+00 
0.0000000e+00 -1.2849488e-11 0.0000000e+00 
0.0000000e+00 -1.1462170e-10 0.0000000e+00 
0.0000000e+00 -2.6071489e-11 0.0000000e+00 
0.0000000e+00 1.3118644e-10 0.0000000e+00 
0.0000000e+00 -2.6378424e-11 0.0000000e+00 
0.0000000e+00 8.5353019e-13 0.0000000e+00 
0.0000000e+00 3.6051343e-13 0.0000000e+00 
0.0000000e+00 -2.5941808e-13 0.0000000e+00 
0.0000000e+00 2.8385126e-14 0.0000000e+00 
0.0000000e+00 -4.8805831e-15 0.0000000e+00 
0.0000000e+00 7.6964235e-16 0.0000000e+00 
0.0000000e+00 -1.2938571e-17 0.0000000e+00 
0.0000000e+00 -9.7428687e-10 0.0000000e+00 
3.0461447e-09 -1.3411038e-08 5.6786909e-10 
2.6341114e-08 1.1501000e-07 -2.7662889e-08 
-1.3502752e-07 -3.2377937e-07 1.2587047e-07 
-9.6062945e-07 -1.2978512e-06 1.7301183e-07 
-1.3532162e-06 6.3390007e-07 2.6834368e-07 
-2.6147918e-06 -1.7034967e-06 4.0520624e-07 
-4.1808348e-06 -5.6412528e-06 2.0884963e-07 
-5.1226370e-06 -5.9353433e-06 1.0468116e-07 
-6.7662486e-06 -9.5859350e-06 -1.5592301e-08 
-8.4297253e-06 -1.3731923e-05 -7.7881418e-07 
-3.8411954e-06 -8.3206005e-06 -3.9871559e-09 
-2.5980689e-06 -6.4831834e-06 -3.1858775e-07 
-1.0406659e-06 -3.1425623e-06 -2.6740241e-07 
1.4868521e-08 -6.2314058e-07 -7.0921459e-08 
3.3062540e-07 3.8348563e-07 -5.2284690e-08 
2.0932961e-07 9.1954416e-07 1.0764645e-08 
5.8097307e-08 5.9672021e-07 1.6496660e-08 
-7.2408799e-09 9.2255226e-09 -4.0221386e-09 
-7.9798151e-10 -2.9904360e-08 1.5266573e-10 
1.3044793e-09 1.4632085e-08 1.2090358e-09 
-1.1323882e-08 -3.2794969e-08 4.3352761e-09 
6.4787635e-08 2.0723390e-07 -3.1699024e-08 
-4.5645771e-07 -7.9062340e-07 2.2403775e-07 
-5.3899169e-07 -6.2391155e-07 8.9422997e-08 
-6.2647888e-07 2.2167352e-07 1.1947024e-07 
-1.9974727e-06 -1.3438263e-06 8.9300937e-07 
-4.5548668e-06 -5.6456424e-06 -8.0697525e-08 
-5.9883155e-06 -6.3010998e-06 3.6416907e-07 
-5.6507092e-06 -9.0086269e-06 -1.2782614e-07 
-6.4995393e-06 -1.2308800e-05 -4.9945027e-07 
-4.0518294e-06 -8.8959796e-06 -1.8588244e-07 
-2.9438847e-06 -7.1817999e-06 -5.6906123e-07 
-8.1237073e-07 -2.7458163e-06 -1.1479131e-07 
2.5100357e-07 -2.6624684e-07 -9.7601252e-09 
2.8337257e-07 4.8902211e-07 -4.1486512e-08 
2.6239050e-07 9.8538260e-07 2.9317336e-08 
4.9738848e-08 4.4117911e-07 -2.1622122e-09 
-5.6654019e-09 -3.4297063e-08 -2.1766715e-09 
-7.5890799e-10 -3.5542801e-08 -1.3937220e-09 
2.9756311e-10 9.5404662e-09 5.1259735e-10 
8.5371805e-12 -1.0880867e-09 -5.9602767e-11 
-1.1757902e-11 1.0493936e-11 2.3380555e-12 
2.3094113e-12 2.0801657e-11 8.6005497e-13 
-2.0567205e-13 -2.6280913e-12 -3.5856619e-14 
-1.0136616e-14 -1.6215887e-13 -2.7215523e-14 
5.5427837e-15 9.2697910e-14 7.7145923e-15 
-7.1757042e-16 -1.6031889e-14 -8.0762093e-16 
1.8562813e-16 3.7054591e-15 9.4509865e-17 
-1.4105082e-17 -3.3707917e-16 -2.3238926e-18 
0.0000000e+00 -4.0004122e-17 0.0000000e+00 
0.0000000e+00 2.4827660e-09 0.0000000e+00 
0.0000000e+00 -1.9519497e-09 0.0000000e+00 
0.0000000e+00 7.7768995e-08 0.0000000e+00 
0.0000000e+00 -8.9720237e-07 0.0000000e+00 
0.0000000e+00 4.2137608e-06 0.0000000e+00 
0.0000000e+00 -3.1194356e-06 0.0000000e+00 
0.0000000e+00 -8.2050792e-05 0.0000000e+00 
0.0000000e+00 -1.7604594e-04 0.0000000e+00 
0.0000000e+00 -1.0156287e-04 0.0000000e+00 
0.0000000e+00 -1.7400205e-04 0.0000000e+00 
0.0000000e+00 -1.2710616e-04 0.0000000e+00 
0.0000000e+00 3.0222684e-05 0.0000000e+00 
0.0000000e+00 8.3441962e-05 0.0000000e+00 
0.0000000e+00 1.1068025e-04 0.0000000e+00 
0.0000000e+00 1.0349521e-04 0.0000000e+00 
0.0000000e+00 1.0219273e-04 0.0000000e+00 
0.0000000e+00 5.9831757e-05 0.0000000e+00 
0.0000000e+00 3.5136163e-05 0.0000000e+00 
0.0000000e+00 8.3183304e-06 0.0000000e+00 
0.0000000e+00 -3.6951285e-06 0.0000000e+00 
0.0000000e+00 1.7429362e-07 0.0000000e+00 
0.0000000e+00 7.7326030e-09 0.0000000e+00 
0.0000000e+00 4.4471541e-08 0.0000000e+00 
0.0000000e+00 -8.7130098e-07 0.0000000e+00 
0.0000000e+00 6.4338519e-06 0.0000000e+00 
0.0000000e+00 -1.3158154e-07 0.0000000e+00 
0.0000000e+00 -1.0461925e-04 0.0000000e+00 
0.0000000e+00 -1.4987832e-04 0.0000000e+00 
0.0000000e+00 -1.0723381e-04 0.0000000e+00 
0.0000000e+00 -1.4703565e-04 0.0000000e+00 
0.0000000e+00 -9.8488032e-05 0.0000000e+00 
0.0000000e+00 2.2235038e-06 0.0000000e+00 
0.0000000e+00 8.5588093e-05 0.0000000e+00 
0.0000000e+00 1.0883929e-04 0.0000000e+00 
0.0000000e+00 1.1619879e-04 0.0000000e+00 
0.0000000e+00 8.2795465e-05 0.0000000e+00 
0.0000000e+00 5.1047995e-05 0.0000000e+00 
0.0000000e+00 3.8924481e-05 0.0000000e+00 
0.0000000e+00 9.3368244e-06 0.0000000e+00 
0.0000000e+00 -3.8533249e-06 0.0000000e+00 
0.0000000e+00 3.0040906e-07 0.0000000e+00 
0.0000000e+00 -1.9676461e-08 0.0000000e+00 
0.0000000e+00 5.9784377e-10 0.0000000e+00 
0.0000000e+00 9.0420678e-11 0.0000000e+00 
0.0000000e+00 -8.4807387e-12 0.0000000e+00 
0.0000000e+00 8.1639085e-13 0.0000000e+00 
0.0000000e+00 -1.0508654e-13 0.0000000e+00 
0.0000000e+00 1.0430854e-14 0.0000000e+00 
0.0000000e+00 -6.6047346e-16 0.0000000e+00 
0.0000000e+00 -5.2879658e-17 0.0000000e+00 
0.0000000e+00 3.1065603e-18 0.0000000e+00 
0.0000000e+00 -1.7185053e-17 0.0000000e+00 
0.0000000e+00 1.1079234e-17 0.0000000e+00 
2.4251255e-08 1.5029329e-07 -2.9963161e-09 
1.5495807e-08 -7.8437245e-07 -7.0283853e-08 
1.2297174e-07 2.5983343e-06 1.5280415e-06 
-8.2425840e-06 -6.5007966e-06 1.2345292e-05 
-3.1619609e-05 -8.9812987e-05 2.4681380e-05 
-5.9781043e-05 -1.6664565e-04 1.7357530e-05 
-8.8915316e-05 -2.1001480e-04 2.0281674e-05 
-1.2233727e-04 -3.0922799e-04 1.2771213e-05 
-1.4474940e-04 -3.0509772e-04 -6.6754433e-06 
-1.4453990e-04 -2.5509408e-04 -1.8547153e-05 
-1.2448779e-04 -1.7686150e-04 -2.2066823e-05 
-9.8762248e-05 -1.0069473e-04 -1.8410203e-05 
-6.9948612e-05 -3.2784134e-05 -1.3360171e-05 
-4.0955551e-05 1.0067058e-05 -7.9083393e-06 
-1.9876721e-05 2.1559992e-05 -2.9786327e-06 
-6.4579285e-06 2.6414647e-05 1.9980210e-07 
-6.2597380e-08 1.2572542e-05 9.2519690e-07 
2.3821147e-07 -3.6682044e-07 2.1779543e-07 
1.1107915e-08 -1.4109656e-07 1.4797209e-09 
-5.2258651e-09 5.0075699e-09 -1.6224450e-09 
3.0161001e-08 1.4013655e-07 -1.2048827e-08 
-1.5646783e-09 -8.5716709e-07 -1.2906311e-07 
-1.8515372e-07 3.9172360e-06 1.7020503e-06 
-1.0067542e-05 -1.0345692e-05 1.4549253e-05 
-3.4226556e-05 -1.0215284e-04 2.4494911e-05 
-6.5161439e-05 -1.7104841e-04 1.8053155e-05 
-9.4469382e-05 -2.1475939e-04 1.8249431e-05 
-1.2823992e-04 -3.0984136e-04 1.6270136e-05 
-1.4762126e-04 -3.0957969e-04 -1.1663297e-05 
-1.3993555e-04 -2.5013168e-04 -1.9896657e-05 
-1.2268680e-04 -1.6898090e-04 -2.1439640e-05 
-9.5680814e-05 -9.5372896e-05 -1.7647288e-05 
-6.6876499e-05 -2.5657147e-05 -1.3188939e-05 
-3.7986898e-05 1.1753123e-05 -7.5979419e-06 
-1.8071931e-05 2.1943444e-05 -2.7533581e-06 
-5.5272931e-06 2.6356201e-05 4.0330659e-07 
2.3866500e-07 1.0337139e-05 8.5852514e-07 
1.9115689e-07 -5.0663050e-07 1.9717311e-07 
7.4530444e-09 -1.1795270e-07 -8.5911576e-11 
1.0598860e-09 2.2930234e-08 2.2194212e-10 
-2.7825051e-10 -2.6238129e-09 -7.3112731e-11 
3.0982591e-11 2.0430720e-10 1.4530566e-11 
-2.6542143e-12 -4.0361993e-12 -1.5479263e-12 
1.4403795e-13 2.1544896e-13 -5.5412370e-14 
-3.1789374e-14 -8.1731097e-14 1.1646058e-14 
8.4314025e-16 2.5486974e-15 -8.1828677e-16 
8.1431418e-16 3.8632038e-15 -4.0081782e-16 
-2.3490860e-16 -3.7628097e-16 5.8774948e-17 
1.0914777e-17 -9.8065421e-18 3.0494797e-18 
0.0000000e+00 4.4728279e-09 0.0000000e+00 
-5.7544660e-18 -4.1750628e-17 3.1381572e-18 
0.0000000e+00 -9.2227921e-08 0.0000000e+00 
0.0000000e+00 2.7059508e-08 0.0000000e+00 
0.0000000e+00 4.4762241e-06 0.0000000e+00 
0.0000000e+00 -3.4949106e-05 0.0000000e+00 
0.0000000e+00 -9.2540045e-05 0.0000000e+00 
0.0000000e+00 -1.7169066e-04 0.0000000e+00 
0.0000000e+00 -2.8514367e-04 0.0000000e+00 
0.0000000e+00 -4.0456658e-04 0.0000000e+00 
0.0000000e+00 -5.5558293e-04 0.0000000e+00 
0.0000000e+00 -6.9298357e-04 0.0000000e+00 
0.0000000e+00 -8.0925389e-04 0.0000000e+00 
0.0000000e+00 -9.0969336e-04 0.0000000e+00 
0.0000000e+00 -9.2806155e-04 0.0000000e+00 
0.0000000e+00 -8.0013712e-04 0.0000000e+00 
0.0000000e+00 -5.4093223e-04 0.0000000e+00 
0.0000000e+00 -3.8666185e-04 0.0000000e+00 
0.0000000e+00 -1.4568055e-04 0.0000000e+00 
0.0000000e+00 1.7791042e-07 0.0000000e+00 
0.0000000e+00 -1.4140628e-07 0.0000000e+00 
0.0000000e+00 4.5030191e-08 0.0000000e+00 