# vtk DataFile Version 4.0
vtk output
ASCII
DATASET UNSTRUCTURED_GRID
POINTS 377 float
0.0000000e+00 0.0000000e+00 0.0000000e+00 
5.0000000e+00 0.0000000e+00 0.0000000e+00 
5.0000000e+00 3.0000000e+00 0.0000000e+00 
0.0000000e+00 3.0000000e+00 0.0000000e+00 
0.0000000e+00 0.0000000e+00 1.0000000e+01 
5.0000000e+00 0.0000000e+00 1.0000000e+01 
5.0000000e+00 3.0000000e+00 1.0000000e+01 
0.0000000e+00 3.0000000e+00 1.0000000e+01 
1.0000000e+00 3.0000000e+00 5.0000000e-01 
1.0000000e+00 3.0000000e+00 1.0000000e+00 
1.0000000e+00 3.0000000e+00 1.5000000e+00 
1.0000000e+00 3.0000000e+00 2.0000000e+00 
1.0000000e+00 3.0000000e+00 2.5000000e+00 
1.0000000e+00 3.0000000e+00 3.0000000e+00 
1.0000000e+00 3.0000000e+00 3.5000000e+00 
1.0000000e+00 3.0000000e+00 4.0000000e+00 
1.0000000e+00 3.0000000e+00 4.5000000e+00 
1.0000000e+00 3.0000000e+00 5.0000000e+00 
1.0000000e+00 3.0000000e+00 5.5000000e+00 
1.0000000e+00 3.0000000e+00 6.0000000e+00 
1.0000000e+00 3.0000000e+00 6.5000000e+00 
1.0000000e+00 3.0000000e+00 7.0000000e+00 
1.0000000e+00 3.0000000e+00 7.5000000e+00 
1.0000000e+00 3.0000000e+00 8.0000000e+00 
1.0000000e+00 3.0000000e+00 8.5000000e+00 
1.0000000e+00 3.0000000e+00 9.0000000e+00 
1.0000000e+00 3.0000000e+00 9.5000000e+00 
1.0000000e+00 3.0000000e+00 0.0000000e+00 
1.0000000e+00 3.0000000e+00 1.0000000e+01 
1.0000000e+00 0.0000000e+00 0.0000000e+00 
2.0000000e+00 0.0000000e+00 0.0000000e+00 
3.0000000e+00 0.0000000e+00 0.0000000e+00 
4.0000000e+00 0.0000000e+00 0.0000000e+00 
5.0000000e+00 1.0000000e+00 0.0000000e+00 
5.0000000e+00 2.0000000e+00 0.0000000e+00 
0.0000000e+00 2.0000000e+00 0.0000000e+00 
0.0000000e+00 1.0000000e+00 0.0000000e+00 
0.0000000e+00 0.0000000e+00 1.0000000e+00 
0.0000000e+00 0.0000000e+00 2.0000000e+00 
0.0000000e+00 0.0000000e+00 3.0000000e+00 
0.0000000e+00 0.0000000e+00 4.0000000e+00 
0.0000000e+00 0.0000000e+00 5.0000000e+00 
0.0000000e+00 0.0000000e+00 6.0000000e+00 
0.0000000e+00 0.0000000e+00 7.0000000e+00 
0.0000000e+00 0.0000000e+00 8.0000000e+00 
0.0000000e+00 0.0000000e+00 9.0000000e+00 
5.0000000e+00 0.0000000e+00 1.0000000e+00 
5.0000000e+00 0.0000000e+00 2.0000000e+00 
5.0000000e+00 0.0000000e+00 3.0000000e+00 
5.0000000e+00 0.0000000e+00 4.0000000e+00 
5.0000000e+00 0.0000000e+00 5.0000000e+00 
5.0000000e+00 0.0000000e+00 6.0000000e+00 
5.0000000e+00 0.0000000e+00 7.0000000e+00 
5.0000000e+00 0.0000000e+00 8.0000000e+00 
5.0000000e+00 0.0000000e+00 9.0000000e+00 
1.0000000e+00 0.0000000e+00 1.0000000e+01 
2.0000000e+00 0.0000000e+00 1.0000000e+01 
3.0000000e+00 0.0000000e+00 1.0000000e+01 
4.0000000e+00 0.0000000e+00 1.0000000e+01 
5.0000000e+00 3.0000000e+00 1.0000000e+00 
5.0000000e+00 3.0000000e+00 2.0000000e+00 
5.0000000e+00 3.0000000e+00 3.0000000e+00 
5.0000000e+00 3.0000000e+00 4.0000000e+00 
5.0000000e+00 3.0000000e+00 5.0000000e+00 
5.0000000e+00 3.0000000e+00 6.0000000e+00 
5.0000000e+00 3.0000000e+00 7.0000000e+00 
5.0000000e+00 3.0000000e+00 8.0000000e+00 
5.0000000e+00 3.0000000e+00 9.0000000e+00 
5.0000000e+00 1.0000000e+00 1.0000000e+01 
5.0000000e+00 2.0000000e+00 1.0000000e+01 
0.0000000e+00 3.0000000e+00 1.0000000e+00 
0.0000000e+00 3.0000000e+00 2.0000000e+00 
0.0000000e+00 3.0000000e+00 3.0000000e+00 
0.0000000e+00 3.0000000e+00 4.0000000e+00 
0.0000000e+00 3.0000000e+00 5.0000000e+00 
0.0000000e+00 3.0000000e+00 6.0000000e+00 
0.0000000e+00 3.0000000e+00 7.0000000e+00 
0.0000000e+00 3.0000000e+00 8.0000000e+00 
0.0000000e+00 3.0000000e+00 9.0000000e+00 
0.0000000e+00 2.0000000e+00 1.0000000e+01 
0.0000000e+00 1.0000000e+00 1.0000000e+01 
4.0000000e+00 3.0000000e+00 0.0000000e+00 
3.0000000e+00 3.0000000e+00 0.0000000e+00 
2.0000000e+00 3.0000000e+00 0.0000000e+00 
4.0000000e+00 3.0000000e+00 1.0000000e+01 
3.0000000e+00 3.0000000e+00 1.0000000e+01 
2.0000000e+00 3.0000000e+00 1.0000000e+01 
4.0618000e+00 1.5000000e+00 0.0000000e+00 
1.5046000e+00 7.6549745e-01 0.0000000e+00 
2.5000000e+00 2.1339746e+00 0.0000000e+00 
1.5046000e+00 2.2345026e+00 0.0000000e+00 
2.4957771e+00 8.1560516e-01 0.0000000e+00 
3.4707544e+00 2.2336540e+00 0.0000000e+00 
3.4700506e+00 7.5794268e-01 0.0000000e+00 
8.6322361e-01 1.5000000e+00 0.0000000e+00 
2.0000000e+00 1.5000000e+00 0.0000000e+00 
2.9960666e+00 1.4974480e+00 0.0000000e+00 
4.2679491e+00 7.3205084e-01 0.0000000e+00 
4.2679491e+00 2.2679491e+00 0.0000000e+00 
7.2695929e-01 2.2730408e+00 0.0000000e+00 
7.2695929e-01 7.2695929e-01 0.0000000e+00 
4.1822505e+00 0.0000000e+00 2.5515697e+00 
4.2017918e+00 0.0000000e+00 4.4725966e+00 
4.1114569e+00 0.0000000e+00 6.5092020e+00 
8.6602539e-01 0.0000000e+00 3.5000000e+00 
8.4778279e-01 0.0000000e+00 5.4684029e+00 
8.9629614e-01 0.0000000e+00 7.5867257e+00 
2.5566745e+00 0.0000000e+00 8.1853306e-01 
2.4918270e+00 0.0000000e+00 9.1386929e+00 
8.4677207e-01 0.0000000e+00 1.5042374e+00 
4.0943027e+00 0.0000000e+00 8.4081745e+00 
8.6281651e-01 0.0000000e+00 2.5007062e+00 
1.7315160e+00 0.0000000e+00 3.0001178e+00 
1.7319617e+00 0.0000000e+00 4.0000196e+00 
2.5980761e+00 0.0000000e+00 3.5000000e+00 
2.5536871e+00 0.0000000e+00 4.4963923e+00 
2.5928419e+00 0.0000000e+00 2.4239938e+00 
1.5037409e+00 0.0000000e+00 9.1535149e+00 
1.8433737e+00 0.0000000e+00 8.1858873e+00 
3.0000000e+00 0.0000000e+00 8.2679491e+00 
2.5000000e+00 0.0000000e+00 7.4019237e+00 
3.5042722e+00 0.0000000e+00 7.4271150e+00 
3.0310018e+00 0.0000000e+00 6.5282087e+00 
2.0373929e+00 0.0000000e+00 6.5307913e+00 
3.4767809e+00 0.0000000e+00 5.8031492e+00 
2.5452602e+00 0.0000000e+00 5.5720768e+00 
1.6456656e+00 0.0000000e+00 1.9697139e+00 
8.6297011e-01 0.0000000e+00 4.4947371e+00 
1.0111579e+00 0.0000000e+00 6.5282545e+00 
3.4994321e+00 0.0000000e+00 8.4691072e-01 
4.1860156e+00 0.0000000e+00 3.5040276e+00 
1.7320508e+00 0.0000000e+00 5.0000000e+00 
4.0544066e+00 0.0000000e+00 1.5781221e+00 
1.5817389e+00 0.0000000e+00 9.3943578e-01 
8.3166349e-01 0.0000000e+00 8.5090933e+00 
3.4686174e+00 0.0000000e+00 9.1752682e+00 
3.0709300e+00 0.0000000e+00 1.5799091e+00 
3.3927374e+00 0.0000000e+00 3.0399952e+00 
3.3826034e+00 0.0000000e+00 3.9747651e+00 
4.3420062e+00 0.0000000e+00 7.4688983e+00 
3.4023225e+00 0.0000000e+00 4.9314723e+00 
1.6740381e+00 0.0000000e+00 7.3014426e+00 
4.2715640e+00 0.0000000e+00 5.4758859e+00 
1.6225953e+00 0.0000000e+00 5.8104177e+00 
4.2679491e+00 0.0000000e+00 9.2679491e+00 
7.3205084e-01 0.0000000e+00 7.3205084e-01 
4.2679491e+00 0.0000000e+00 7.3205084e-01 
7.3205084e-01 0.0000000e+00 9.2679491e+00 
3.4586334e+00 0.0000000e+00 2.2347178e+00 
2.2895701e+00 0.0000000e+00 1.5463171e+00 
5.0000000e+00 1.5000000e+00 9.3820012e-01 
5.0000000e+00 1.5000000e+00 9.0618000e+00 
5.0000000e+00 2.1339746e+00 2.5000000e+00 
5.0000000e+00 2.1582527e+00 4.4926300e+00 
5.0000000e+00 2.2774773e+00 7.4626446e+00 
5.0000000e+00 8.6602539e-01 3.5000000e+00 
5.0000000e+00 8.2692069e-01 5.5000000e+00 
5.0000000e+00 8.0628556e-01 7.4626446e+00 
5.0000000e+00 8.4408212e-01 4.5000000e+00 
5.0000000e+00 8.3320528e-01 6.4654617e+00 
5.0000000e+00 1.5653628e+00 5.9376192e+00 
5.0000000e+00 2.1339746e+00 3.5000000e+00 
5.0000000e+00 8.6602539e-01 2.5000000e+00 
5.0000000e+00 7.5638938e-01 8.4645281e+00 
5.0000000e+00 2.2575710e+00 8.4645281e+00 
5.0000000e+00 2.2336540e+00 1.5292456e+00 
5.0000000e+00 7.6634604e-01 1.5292456e+00 
5.0000000e+00 2.2649403e+00 5.4883747e+00 
5.0000000e+00 1.5584890e+00 6.9705243e+00 
5.0000000e+00 1.5000000e+00 4.0000000e+00 
5.0000000e+00 1.5000000e+00 3.0000000e+00 
5.0000000e+00 1.4974226e+00 5.0000000e+00 
5.0000000e+00 2.2777116e+00 6.4765272e+00 
5.0000000e+00 1.5000000e+00 2.0022767e+00 
5.0000000e+00 1.5067772e+00 7.9912200e+00 
5.0000000e+00 2.2679491e+00 9.2679491e+00 
5.0000000e+00 7.3205084e-01 7.3205084e-01 
5.0000000e+00 2.2679491e+00 7.3205084e-01 
5.0000000e+00 7.3205084e-01 9.2679491e+00 
0.0000000e+00 1.5000000e+00 9.3820012e-01 
0.0000000e+00 1.5000000e+00 9.0618000e+00 
0.0000000e+00 8.6602539e-01 2.5000000e+00 
0.0000000e+00 8.6602539e-01 4.5000000e+00 
0.0000000e+00 8.6602539e-01 6.5000000e+00 
0.0000000e+00 2.1339746e+00 3.5000000e+00 
0.0000000e+00 2.1339746e+00 5.5000000e+00 
0.0000000e+00 2.1339746e+00 7.5000000e+00 
0.0000000e+00 8.6602539e-01 3.5000000e+00 
0.0000000e+00 2.1339746e+00 2.5000000e+00 
0.0000000e+00 2.1339746e+00 4.5000000e+00 
0.0000000e+00 2.1339746e+00 6.5000000e+00 
0.0000000e+00 8.6602539e-01 5.5000000e+00 
0.0000000e+00 8.6602539e-01 7.5000000e+00 
0.0000000e+00 2.2336540e+00 8.4707546e+00 
0.0000000e+00 2.2336540e+00 1.5292456e+00 
0.0000000e+00 7.6634604e-01 8.4707546e+00 
0.0000000e+00 7.6634604e-01 1.5292456e+00 
0.0000000e+00 1.5000000e+00 4.0000000e+00 
0.0000000e+00 1.5000000e+00 6.0000000e+00 
0.0000000e+00 1.5000000e+00 3.0000000e+00 
0.0000000e+00 1.5000000e+00 5.0000000e+00 
0.0000000e+00 1.5000000e+00 7.0000000e+00 
0.0000000e+00 1.5000000e+00 8.0005512e+00 
0.0000000e+00 1.5000000e+00 2.0022767e+00 
0.0000000e+00 7.3205084e-01 9.2679491e+00 
0.0000000e+00 2.2679491e+00 7.3205084e-01 
0.0000000e+00 7.3205084e-01 7.3205084e-01 
0.0000000e+00 2.2679491e+00 9.2679491e+00 
1.5046000e+00 7.6549745e-01 1.0000000e+01 
4.0618000e+00 1.5000000e+00 1.0000000e+01 
2.5000000e+00 2.1339746e+00 1.0000000e+01 
1.5046000e+00 2.2345026e+00 1.0000000e+01 
2.4957771e+00 8.1560516e-01 1.0000000e+01 
3.4707544e+00 2.2336540e+00 1.0000000e+01 
3.4700506e+00 7.5794268e-01 1.0000000e+01 
8.6322361e-01 1.5000000e+00 1.0000000e+01 
2.0000000e+00 1.5000000e+00 1.0000000e+01 
2.9960666e+00 1.4974480e+00 1.0000000e+01 
4.2679491e+00 7.3205084e-01 1.0000000e+01 
4.2679491e+00 2.2679491e+00 1.0000000e+01 
7.2695929e-01 2.2730408e+00 1.0000000e+01 
7.2695929e-01 7.2695929e-01 1.0000000e+01 
1.4891552e+00 3.0000000e+00 2.2590268e+00 
1.4171888e+00 3.0000000e+00 3.6986542e+00 
1.5172310e+00 3.0000000e+00 5.7397003e+00 
1.4330127e+00 3.0000000e+00 7.2500000e+00 
1.4330127e+00 3.0000000e+00 4.7500000e+00 
1.4554617e+00 3.0000000e+00 8.2442541e+00 
4.1714277e+00 3.0000000e+00 6.4487247e+00 
4.1339746e+00 3.0000000e+00 2.5000000e+00 
[...]
POINT_DATA 377
FIELD FieldData 2
DISPLACEMENT 3 377  float
0.0000000e+00 0.0000000e+00 0.0000000e+00 
0.0000000e+00 0.0000000e+00 0.0000000e+00 
0.0000000e+00 1.8495608e-06 1.5300066e-06 
0.0000000e+00 2.9085259e-06 2.6219252e-06 
0.0000000e+00 0.0000000e+00 0.0000000e+00 
0.0000000e+00 0.0000000e+00 0.0000000e+00 
0.0000000e+00 1.2509206e-06 1.9295425e-07 
0.0000000e+00 1.1179688e-06 -8.5010504e-07 
1.4054558e-07 2.0663656e-06 3.2818605e-06 
2.1256334e-07 1.3678005e-06 3.3091508e-06 
1.3513583e-07 6.6093276e-07 3.3550755e-06 
-1.8023745e-07 -2.9954805e-07 3.4202269e-06 
-8.5363075e-07 -2.2197564e-06 3.4994648e-06 
-1.9449824e-06 -6.9220214e-06 3.5436433e-06 
-3.3630977e-06 -1.8252013e-05 3.5590149e-06 
-4.8756583e-06 -4.2509826e-05 3.4245618e-06 
-6.0114835e-06 -8.8449415e-05 3.0676003e-06 
-4.4445501e-06 -1.5902695e-04 2.4791941e-06 
3.1389075e-06 -2.2783909e-04 1.3148803e-06 
1.4221137e-06 -2.4193003e-04 3.3765642e-07 
-6.7729720e-06 -1.7881682e-04 -5.7333472e-07 
-7.1125583e-06 -1.0298961e-04 -1.0260389e-06 
-5.6999388e-06 -5.0370720e-05 -1.3706042e-06 
-4.0744599e-06 -2.1911128e-05 -1.5033174e-06 
-2.4351186e-06 -8.3342748e-06 -1.5282628e-06 
-1.2744025e-06 -2.4277456e-06 -1.5122340e-06 
-5.5044984e-07 3.5528927e-07 -1.5016723e-06 
0.0000000e+00 2.7809890e-06 3.2757414e-06 
0.0000000e+00 2.4017074e-06 -1.4999652e-06 
0.0000000e+00 0.0000000e+00 0.0000000e+00 
0.0000000e+00 0.0000000e+00 0.0000000e+00 
0.0000000e+00 0.0000000e+00 0.0000000e+00 
0.0000000e+00 0.0000000e+00 0.0000000e+00 
0.0000000e+00 7.6578118e-07 1.2722208e-07 
0.0000000e+00 1.5406181e-06 6.9080357e-07 
0.0000000e+00 2.2342924e-06 3.1644097e-07 
0.0000000e+00 9.9136321e-07 -8.2728008e-07 
0.0000000e+00 0.0000000e+00 0.0000000e+00 
0.0000000e+00 0.0000000e+00 0.0000000e+00 
0.0000000e+00 0.0000000e+00 0.0000000e+00 
0.0000000e+00 0.0000000e+00 0.0000000e+00 
0.0000000e+00 0.0000000e+00 0.0000000e+00 
0.0000000e+00 0.0000000e+00 0.0000000e+00 
0.0000000e+00 0.0000000e+00 0.0000000e+00 
0.0000000e+00 0.0000000e+00 0.0000000e+00 
0.0000000e+00 0.0000000e+00 0.0000000e+00 
0.0000000e+00 0.0000000e+00 0.0000000e+00 
0.0000000e+00 0.0000000e+00 0.0000000e+00 
0.0000000e+00 0.0000000e+00 0.0000000e+00 
0.0000000e+00 0.0000000e+00 0.0000000e+00 
0.0000000e+00 0.0000000e+00 0.0000000e+00 
0.0000000e+00 0.0000000e+00 0.0000000e+00 
0.0000000e+00 0.0000000e+00 0.0000000e+00 
0.0000000e+00 0.0000000e+00 0.0000000e+00 
0.0000000e+00 0.0000000e+00 0.0000000e+00 
0.0000000e+00 0.0000000e+00 0.0000000e+00 
0.0000000e+00 0.0000000e+00 0.0000000e+00 
0.0000000e+00 0.0000000e+00 0.0000000e+00 
0.0000000e+00 0.0000000e+00 0.0000000e+00 
0.0000000e+00 1.1671500e-06 1.5094566e-06 
0.0000000e+00 6.4055303e-07 1.6192853e-06 
0.0000000e+00 -5.0912735e-08 2.0076200e-06 
0.0000000e+00 -4.9202305e-07 2.2228078e-06 
0.0000000e+00 -1.5502349e-06 1.9790966e-06 
0.0000000e+00 -1.7516768e-06 5.6255323e-07 
0.0000000e+00 -1.0625438e-06 1.3993981e-07 
0.0000000e+00 3.9611356e-07 -2.3191724e-07 
0.0000000e+00 2.5376849e-07 1.3247424e-07 
0.0000000e+00 -3.0121328e-08 1.5033487e-06 
0.0000000e+00 8.1932205e-07 1.3769645e-06 
0.0000000e+00 1.0643058e-06 2.6761238e-06 
0.0000000e+00 -1.7805826e-06 3.6396173e-06 
0.0000000e+00 -1.0910024e-05 5.5608029e-06 
0.0000000e+00 -3.5231533e-05 9.5087062e-06 
0.0000000e+00 -8.7320463e-05 1.0088835e-05 
0.0000000e+00 -1.0099619e-04 -1.8841771e-06 
0.0000000e+00 -6.9009300e-05 -7.7523910e-06 
0.0000000e+00 -2.3390938e-05 -6.4909500e-06 
0.0000000e+00 -5.1991769e-06 -2.3644120e-06 
0.0000000e+00 -6.6469818e-07 5.4869083e-06 
0.0000000e+00 -2.1947103e-06 6.6368752e-06 
0.0000000e+00 1.8645468e-06 1.5536725e-06 
0.0000000e+00 1.9203217e-06 1.7244571e-06 
0.0000000e+00 2.2820045e-06 2.2089964e-06 
0.0000000e+00 1.2084197e-06 1.7591049e-07 
0.0000000e+00 1.0625273e-06 -1.5599419e-07 
0.0000000e+00 3.3134387e-07 -6.7964481e-07 
0.0000000e+00 1.1361760e-06 1.4768450e-07 
0.0000000e+00 4.2429124e-07 -6.2711774e-07 
0.0000000e+00 1.8667948e-06 4.8589379e-07 
0.0000000e+00 2.2648164e-06 9.5861151e-07 
0.0000000e+00 5.7380453e-07 -4.5990092e-07 
0.0000000e+00 1.7145577e-06 7.0950335e-07 
0.0000000e+00 5.4379041e-07 -1.8675496e-07 
0.0000000e+00 1.5374397e-06 -3.8557829e-07 
0.0000000e+00 1.4338485e-06 -1.8849136e-07 
0.0000000e+00 1.1859377e-06 -4.2701178e-08 
0.0000000e+00 5.5100043e-07 -5.0414545e-08 
0.0000000e+00 1.6750596e-06 8.3357884e-07 
0.0000000e+00 2.4329536e-06 1.1033035e-06 
0.0000000e+00 6.7994893e-07 -4.9444537e-07 
0.0000000e+00 0.0000000e+00 0.0000000e+00 
0.0000000e+00 0.0000000e+00 0.0000000e+00 
0.0000000e+00 0.0000000e+00 0.0000000e+00 
0.0000000e+00 0.0000000e+00 0.0000000e+00 
0.0000000e+00 0.0000000e+00 0.0000000e+00 
0.0000000e+00 0.0000000e+00 0.0000000e+00 
0.0000000e+00 0.0000000e+00 0.0000000e+00 
0.0000000e+00 0.0000000e+00 0.0000000e+00 
0.0000000e+00 0.0000000e+00 0.0000000e+00 
0.0000000e+00 0.0000000e+00 0.0000000e+00 
0.0000000e+00 0.0000000e+00 0.0000000e+00 
0.0000000e+00 0.0000000e+00 0.0000000e+00 
0.0000000e+00 0.0000000e+00 0.0000000e+00 
0.0000000e+00 0.0000000e+00 0.0000000e+00 
0.0000000e+00 0.0000000e+00 0.0000000e+00 
0.0000000e+00 0.0000000e+00 0.0000000e+00 
0.0000000e+00 0.0000000e+00 0.0000000e+00 
0.0000000e+00 0.0000000e+00 0.0000000e+00 
0.0000000e+00 0.0000000e+00 0.0000000e+00 
0.0000000e+00 0.0000000e+00 0.0000000e+00 
0.0000000e+00 0.0000000e+00 0.0000000e+00 
0.0000000e+00 0.0000000e+00 0.0000000e+00 
0.0000000e+00 0.0000000e+00 0.0000000e+00 
0.0000000e+00 0.0000000e+00 0.0000000e+00 
0.0000000e+00 0.0000000e+00 0.0000000e+00 
0.0000000e+00 0.0000000e+00 0.0000000e+00 
0.0000000e+00 0.0000000e+00 0.0000000e+00 
0.0000000e+00 0.0000000e+00 0.0000000e+00 
0.0000000e+00 0.0000000e+00 0.0000000e+00 
0.0000000e+00 0.0000000e+00 0.0000000e+00 
0.0000000e+00 0.0000000e+00 0.0000000e+00 
0.0000000e+00 0.0000000e+00 0.0000000e+00 
0.0000000e+00 0.0000000e+00 0.0000000e+00 
0.0000000e+00 0.0000000e+00 0.0000000e+00 
0.0000000e+00 0.0000000e+00 0.0000000e+00 
0.0000000e+00 0.0000000e+00 0.0000000e+00 
0.0000000e+00 0.0000000e+00 0.0000000e+00 
0.0000000e+00 0.0000000e+00 0.0000000e+00 
0.0000000e+00 0.0000000e+00 0.0000000e+00 
0.0000000e+00 0.0000000e+00 0.0000000e+00 
0.0000000e+00 0.0000000e+00 0.0000000e+00 
0.0000000e+00 0.0000000e+00 0.0000000e+00 
0.0000000e+00 0.0000000e+00 0.0000000e+00 
0.0000000e+00 0.0000000e+00 0.0000000e+00 
0.0000000e+00 0.0000000e+00 0.0000000e+00 
0.0000000e+00 0.0000000e+00 0.0000000e+00 
0.0000000e+00 0.0000000e+00 0.0000000e+00 
0.0000000e+00 0.0000000e+00 0.0000000e+00 
0.0000000e+00 0.0000000e+00 0.0000000e+00 
0.0000000e+00 7.5245947e-07 1.4731793e-07 
0.0000000e+00 2.9605894e-07 1.6506154e-06 
0.0000000e+00 6.3016284e-07 7.4299822e-07 
0.0000000e+00 -3.8848273e-07 8.7192859e-07 
0.0000000e+00 3.8836407e-07 9.0637798e-07 
0.0000000e+00 -1.0739499e-07 -3.1462449e-07 
0.0000000e+00 -6.9597149e-07 4.3508106e-07 
0.0000000e+00 -5.3998718e-07 1.3167262e-06 
0.0000000e+00 -9.1220278e-07 -1.5210996e-07 
0.0000000e+00 -1.0316950e-06 1.2180404e-06 
0.0000000e+00 -1.0814637e-06 9.5417965e-07 
0.0000000e+00 8.1969468e-08 8.9327705e-07 
0.0000000e+00 3.9244892e-08 -2.2213831e-07 
0.0000000e+00 -1.4497427e-07 1.3671267e-06 
0.0000000e+00 4.2537548e-07 1.0200321e-06 
0.0000000e+00 9.0894349e-07 8.0290806e-07 
0.0000000e+00 2.3814249e-07 -1.6096459e-07 
0.0000000e+00 -9.5777682e-07 1.0455725e-06 
0.0000000e+00 -5.8691882e-07 1.5029639e-06 
0.0000000e+00 -4.3338349e-07 1.5169606e-07 
0.0000000e+00 3.0435913e-07 1.4185551e-07 
0.0000000e+00 -1.1361147e-06 2.0206394e-07 
0.0000000e+00 -5.0190414e-07 8.7227608e-07 
0.0000000e+00 4.5758497e-07 1.5038010e-07 
0.0000000e+00 2.9165676e-08 1.5719781e-06 
0.0000000e+00 7.1265339e-07 1.1437771e-06 
0.0000000e+00 3.6113983e-07 -5.1572442e-08 
0.0000000e+00 1.2662523e-06 8.3051083e-07 
0.0000000e+00 1.6090487e-08 1.2841796e-06 
0.0000000e+00 7.4021443e-07 -9.0009758e-07 
0.0000000e+00 -4.8625311e-06 7.7955356e-06 
0.0000000e+00 -3.8231042e-06 -5.1283178e-06 
0.0000000e+00 -1.8464778e-05 -7.1306977e-06 
0.0000000e+00 -2.4646328e-05 5.6217791e-06 
0.0000000e+00 -1.9832189e-05 -6.1206233e-06 
0.0000000e+00 -8.0115984e-05 -5.2976992e-07 
0.0000000e+00 -3.5404202e-05 1.1748220e-05 
0.0000000e+00 -1.0054231e-05 -7.0910437e-06 
0.0000000e+00 -5.4517182e-06 -2.9155835e-06 
0.0000000e+00 -4.9132559e-05 -9.3207955e-06 
0.0000000e+00 -7.1784154e-05 7.5825092e-06 
0.0000000e+00 -2.7745387e-05 -2.5118939e-06 
0.0000000e+00 -1.4264418e-05 8.9873320e-06 
0.0000000e+00 -1.2561727e-05 7.3024257e-06 
0.0000000e+00 -1.9884425e-07 -2.0835077e-07 
0.0000000e+00 -6.1616283e-06 7.7313107e-06 
0.0000000e+00 -6.0398480e-07 -2.3228947e-06 
0.0000000e+00 -2.5015737e-05 -1.0058649e-05 
0.0000000e+00 -5.4500506e-05 4.3128143e-06 
0.0000000e+00 -9.4999477e-06 -6.4900150e-06 
0.0000000e+00 -4.4424745e-05 -7.7276982e-06 
0.0000000e+00 -3.6695092e-05 1.1118120e-05 
0.0000000e+00 -1.6189430e-05 1.0831734e-05 
0.0000000e+00 -2.1285935e-06 -3.1072968e-06 
0.0000000e+00 -2.8431341e-06 5.9937470e-06 
0.0000000e+00 1.4215744e-06 6.0961713e-07 
0.0000000e+00 3.7781666e-07 -1.1532187e-06 
0.0000000e+00 -3.7194118e-06 4.9424034e-06 
0.0000000e+00 -2.0036960e-06 4.6290502e-06 
0.0000000e+00 2.1118628e-07 2.1910130e-06 
0.0000000e+00 4.5176884e-07 3.0172966e-06 
0.0000000e+00 5.3195354e-08 3.7526988e-06 
0.0000000e+00 -7.8436858e-07 2.7783003e-06 
0.0000000e+00 8.3169328e-07 1.8044262e-06 
0.0000000e+00 -5.5907168e-07 1.8387996e-06 
0.0000000e+00 -1.1156403e-06 6.3209814e-06 
0.0000000e+00 -8.0004509e-07 4.5148176e-06 
0.0000000e+00 -1.0403227e-07 3.1846650e-06 
0.0000000e+00 -2.5173259e-07 1.4209104e-06 
0.0000000e+00 9.6198085e-07 1.3430862e-06 
0.0000000e+00 6.1924999e-07 3.3780286e-06 
0.0000000e+00 -1.1846849e-06 4.7277686e-06 
-3.7441032e-07 -1.9301319e-06 3.3421081e-06 
-4.9105211e-06 -2.3949719e-05 5.9727240e-06 
-6.2384474e-06 -1.1308201e-04 1.0076326e-06 
-9.3047684e-06 -4.9725713e-05 -6.0024722e-06 
-1.5671330e-05 -6.6706561e-05 1.0041746e-05 
-2.9812620e-06 -1.2805825e-05 -2.6831485e-06 
-3.2915941e-06 -2.6964044e-06 2.1451245e-07 
-2.8403932e-07 2.7398085e-07 1.8675318e-06 
-2.5043992e-06 -2.3018126e-06 2.3674115e-06 
2.1835422e-07 8.4984674e-07 2.6759335e-06 
-1.2800689e-06 -2.6456914e-07 -2.4603801e-07 
-1.2481152e-06 -1.8737446e-06 -7.0246659e-07 
1.6921307e-07 1.2059385e-06 1.7572264e-06 
-6.7164797e-07 -1.4738781e-06 -1.1254161e-06 
-4.1146841e-06 -3.1274262e-06 1.4863223e-06 
-8.2907836e-06 -9.1794354e-06 7.0844072e-07 
-7.3956644e-06 -9.1169786e-06 -1.5753392e-06 
-9.6138247e-06 -1.9819438e-05 -6.8316393e-07 
-1.3717182e-05 -2.1875980e-05 1.6830741e-06 
-9.1159345e-06 -1.6009111e-05 -3.3141571e-06 
-5.5884520e-06 -5.8462224e-06 -1.1099935e-06 
-6.1482897e-06 -9.7286120e-06 -3.8470962e-06 
-1.3214863e-05 -4.1839623e-05 -3.2253463e-06 
-2.8532875e-06 -2.8343964e-06 -1.1602116e-06 
-1.7366125e-05 -4.5376928e-05 6.1188871e-07 
-1.5141331e-05 -4.6212706e-05 2.6418611e-06 
-1.0687780e-05 -1.9601688e-05 3.2819376e-06 
-6.9914463e-06 -8.8648239e-06 2.1808335e-06 
-4.9432738e-06 -8.1136423e-06 2.6091393e-06 
-6.9645175e-06 -1.4029636e-05 5.7922011e-06 
-4.6882114e-06 -5.9864592e-06 3.9954284e-06 
-4.3846303e-06 -8.7055150e-06 4.9472619e-06 
-1.4669010e-06 -2.8616191e-06 3.4820641e-06 
-1.5923465e-06 -3.5176170e-06 3.9511810e-06 
-8.8894586e-07 -7.3400486e-07 3.0219992e-06 
-2.7163065e-07 -1.1331048e-06 2.5722663e-06 
2.4486397e-07 3.2334930e-07 2.1868309e-06 
-1.1070695e-06 -5.5245425e-07 2.3367011e-06 
-3.2958442e-06 -1.0955001e-05 5.7901957e-06 
-3.3845433e-06 -1.6247837e-06 -3.3144650e-07 
-1.9147783e-05 -7.7226163e-05 -4.5634917e-07 
-6.4481490e-08 4.0049773e-07 1.9530696e-06 
-9.4942197e-07 -5.8784650e-07 -4.1939762e-07 
-8.8938277e-06 -2.0266769e-05 -3.5809687e-06 
-1.2356444e-05 -3.0927335e-05 5.9148115e-06 
-1.0911017e-06 -5.4837428e-06 4.7362100e-06 
-6.6387415e-06 -4.8968297e-05 7.5363437e-06 
-6.4209044e-06 -1.9098074e-05 6.5309496e-06 
-2.6731710e-05 -1.0063465e-04 9.6733011e-06 
3.5046907e-07 1.2695679e-06 1.8198740e-06 
3.7595171e-07 6.2162468e-07 2.2211466e-06 
-6.1287546e-06 -2.5698146e-05 -5.8231381e-06 
-1.6894098e-06 -6.4375158e-06 -1.8046943e-06 
-2.8024003e-06 -7.8793582e-06 -1.9638017e-06 
-3.3457393e-08 9.0497281e-07 1.6237499e-06 
3.1154076e-07 1.6015197e-06 2.5643708e-06 
1.2641115e-07 -1.0466758e-07 3.1128918e-06 
-1.5081295e-05 -7.5685741e-05 -5.0933777e-06 
-6.7972195e-07 -3.5804337e-06 3.1665020e-06 
-4.9822356e-06 -1.3866528e-05 -2.6904906e-06 
-1.1846314e-06 -9.4586375e-07 2.5161571e-06 
-2.4985432e-06 -1.3325648e-05 5.4621978e-06 
-3.3018343e-06 -3.3451188e-06 2.8159825e-06 
-2.5506190e-06 -4.4517974e-06 -1.4869923e-06 
-1.2679449e-06 -3.3635690e-06 -1.0668284e-06 
-4.7117967e-07 4.7180981e-07 8.4519179e-08 
4.6936410e-08 1.4457963e-06 1.5848782e-06 
-3.1658442e-06 -2.0399934e-06 -1.0827885e-06 
-1.6354326e-05 -5.4615088e-05 5.0875242e-06 
-7.6903689e-07 -3.5629344e-07 2.4039844e-06 
-3.6398429e-08 -2.6165808e-06 3.7420798e-06 
-4.7998871e-08 -6.3671496e-07 3.4244179e-06 
-7.0397351e-07 -6.9461285e-06 4.3175364e-06 
-1.8995919e-06 -1.6699991e-05 5.8237251e-06 
1.7875655e-07 7.4042333e-07 3.0776703e-06 
-3.7296772e-06 -3.3192664e-05 6.2837394e-06 
-4.8549482e-06 -5.1778916e-05 7.4754403e-06 
-1.9403026e-06 -8.3486979e-05 8.9700443e-06 
-2.1801218e-06 -1.2522323e-04 5.4217130e-06 
-4.4181252e-06 -1.3301900e-04 6.5540547e-07 
-1.0993036e-05 -1.3978337e-04 1.4858304e-06 
-8.0257296e-06 -9.7216616e-05 -2.5685172e-06 
-4.4475714e-06 -6.0761318e-05 -6.3337557e-06 
-1.6791744e-06 -3.4123172e-05 -6.7376441e-06 
-1.5952359e-06 -1.8628298e-05 -4.0154309e-06 
-1.2989188e-06 -7.6084461e-06 -2.4916633e-06 
-5.7778152e-07 -2.0259731e-06 -1.6278453e-06 
8.0639452e-08 1.7623096e-06 2.9495598e-06 
7.3640067e-06 -3.7591821e-05 -6.4275905e-06 
2.3063176e-06 -7.0685851e-06 -5.7916313e-06 
7.1113836e-06 -4.1213505e-05 8.2562337e-06 
3.2576647e-06 -1.2355908e-05 9.2695655e-06 
8.2544767e-07 -1.1984112e-07 -1.8036689e-06 
1.6264765e-06 -1.1676332e-06 -1.3407732e-06 
4.0375676e-06 -7.1783934e-06 -2.4086264e-06 
7.5806529e-06 -1.2449407e-05 1.4994363e-06 
2.4564681e-06 -2.6457735e-06 3.4726716e-06 
2.0054056e-06 -2.4776858e-05 -9.2191613e-06 
8.6066217e-07 -6.7891433e-06 6.9973121e-06 
8.6603285e-07 -2.3975213e-06 -1.9727042e-06 
6.2784864e-07 -1.2074017e-05 -4.8402344e-06 
3.2252760e-06 -4.4625049e-05 1.2896806e-05 
-1.5223620e-06 -6.4899112e-05 -1.0828517e-05 
2.4063388e-06 -9.0756686e-05 1.3090691e-06 
6.0523240e-07 5.1897632e-07 -2.2746242e-07 
5.2632486e-06 -1.3112791e-05 4.8826237e-06 
1.2880084e-06 -2.5316554e-06 -1.2760755e-06 
2.8595387e-06 -4.6987716e-06 2.2354373e-08 
4.4091712e-07 5.8764851e-07 -5.4846243e-08 
1.3094735e-06 -1.3259778e-06 -2.6050037e-07 
5.7077173e-06 -3.1889773e-05 -1.8056122e-06 
8.7346785e-07 -1.2173145e-07 -1.1845888e-06 
1.5992392e-06 -2.5677577e-06 4.8684824e-06 
9.1570007e-07 -2.1044474e-05 1.0007842e-05 
2.1016244e-06 -2.8774657e-06 1.6517431e-06 
6.7214255e-06 -1.1923708e-05 -1.6475456e-06 
1.5776819e-06 -1.1222091e-05 -3.2610872e-06 
8.8056635e-07 -2.3942407e-06 -3.9846846e-06 
4.5355300e-06 -1.1781922e-05 -6.9447715e-06 
1.4198260e-06 -3.5985431e-06 6.4590804e-06 
9.0524354e-06 -4.4614360e-05 2.7647666e-06 
7.4304312e-06 -8.0690923e-05 1.0382445e-05 
3.0223500e-06 -1.9462634e-05 1.0285782e-05 
2.8502641e-06 -3.0349329e-06 1.1583538e-06 
6.1438601e-07 6.1004857e-07 -1.6848492e-08 
6.7202950e-07 -1.3616383e-07 -5.2606561e-07 
5.4704824e-06 -3.3045420e-05 -2.9241960e-08 
7.9418760e-07 -4.6914684e-07 2.2127131e-06 
9.8611213e-07 -1.3227324e-05 -8.0881764e-06 
3.1769114e-06 -2.6351516e-05 -1.0090056e-05 
1.5523099e-06 -2.1259298e-06 -2.6974872e-06 
3.2047176e-06 -5.1247971e-06 4.6251407e-06 
6.9584557e-06 -1.5695610e-05 1.9355180e-06 
5.2442260e-07 -1.8964472e-07 1.5404452e-06 
1.2069779e-06 -3.6179263e-06 -4.7612917e-07 
7.8264026e-07 -7.2496000e-08 8.7879840e-08 
4.3277842e-06 -5.0868798e-06 2.8839343e-06 
2.0152015e-06 -2.0973862e-06 -1.4815505e-06 
5.7543679e-07 7.5271501e-08 3.6295967e-07 
3.1096529e-06 -5.4108618e-06 -4.1966005e-06 
7.2938872e-07 -1.8307610e-05 4.9370869e-06 
1.4649561e-06 -1.5716811e-06 -8.9261096e-07 
1.1894865e-06 -7.2437178e-06 9.1229849e-06 
1.4125051e-06 -4.4462026e-06 1.0374202e-06 
1.5863611e-06 -7.2911180e-06 3.6886092e-06 
4.2181836e-07 1.6896131e-07 -9.7920702e-07 
1.9115987e-06 -1.3227094e-05 5.3386515e-07 
6.9915109e-06 -6.7111476e-05 -6.0009793e-06 
1.7507749e-06 -2.8440809e-05 -3.6022022e-06 
6.6716035e-07 -5.8775925e-07 2.4121307e-06 
6.8177455e-06 -1.3875106e-05 5.9983799e-06 
1.6563611e-06 -1.1656215e-06 2.0384439e-06 
7.5735232e-07 -2.5850241e-07 -1.8175155e-07 
6.7559296e-07 -5.8308533e-06 -1.1118721e-06 
1.2059174e-06 -1.1382743e-05 -1.6971737e-07 
TOTAL_DISPLACEMENT 3 377  float
0.0000000e+00 0.0000000e+00 0.0000000e+00 
0.0000000e+00 0.0000000e+00 0.0000000e+00 
0.0000000e+00 0.0000000e+00 0.0000000e+00 
0.0000000e+00 0.0000000e+00 0.0000000e+00 
0.0000000e+00 0.0000000e+00 0.0000000e+00 
0.0000000e+00 0.0000000e+00 0.0000000e+00 
0.0000000e+00 0.0000000e+00 0.0000000e+00 
0.0000000e+00 0.0000000e+00 0.0000000e+00 
0.0000000e+00 0.0000000e+00 0.0000000e+00 
0.0000000e+00 0.0000000e+00 0.0000000e+00 
0.0000000e+00 0.0000000e+00 0.0000000e+00 
0.0000000e+00 0.0000000e+00 0.0000000e+00 
0.0000000e+00 0.0000000e+00 0.0000000e+00 
0.0000000e+00 0.0000000e+00 0.0000000e+00 
0.0000000e+00 0.0000000e+00 0.0000000e+00 
0.0000000e+00 0.0000000e+00 0.0000000e+00 
0.0000000e+00 0.0000000e+00 0.0000000e+00 
0.0000000e+00 0.0000000e+00 0.0000000e+00 
0.0000000e+00 0.0000000e+00 0.0000000e+00 
0.0000000e+00 0.0000000e+00 0.0000000e+00 
0.0000000e+00 0.0000000e+00 0.0000000e+00 
0.0000000e+00 0.0000000e+00 0.0000000e+00 
0.0000000e+00 0.0000000e+00 0.0000000e+00 
0.0000000e+00 0.0000000e+00 0.0000000e+00 
0.0000000e+00 0.0000000e+00 0.0000000e+00 
0.0000000e+00 0.0000000e+00 0.0000000e+00 
0.0000000e+00 0.0000000e+00 0.0000000e+00 
0.0000000e+00 0.0000000e+00 0.0000000e+00 
0.0000000e+00 0.0000000e+00 0.0000000e+00 
0.0000000e+00 0.0000000e+00 0.0000000e+00 
0.0000000e+00 0.0000000e+00 0.0000000e+00 
0.0000000e+00 0.0000000e+00 0.0000000e+00 
0.0000000e+00 0.0000000e+00 0.0000000e+00 
0.0000000e+00 0.0000000e+00 0.0000000e+00 
0.0000000e+00 0.0000000e+00 0.0000000e+00 
0.0000000e+00 0.0000000e+00 0.0000000e+00 
0.0000000e+00 0.0000000e+00 0.0000000e+00 
0.0000000e+00 0.0000000e+00 0.0000000e+00 
0.0000000e+00 0.0000000e+00 0.0000000e+00 
0.0000000e+00 0.0000000e+00 0.0000000e+00 
0.0000000e+00 0.0000000e+00 0.0000000e+00 
0.0000000e+00 0.0000000e+00 0.0000000e+00 
0.0000000e+00 0.0000000e+00 0.0000000e+00 
0.0000000e+00 0.0000000e+00 0.0000000e+00 
0.0000000e+00 0.0000000e+00 0.0000000e+00 
0.0000000e+00 0.0000000e+00 0.0000000e+00 
0.0000000e+00 0.0000000e+00 0.0000000e+00 
0.0000000e+00 0.0000000e+00 0.0000000e+00 
0.0000000e+00 0.0000000e+00 0.0000000e+00 
0.0000000e+00 0.0000000e+00 0.0000000e+00 
0.0000000e+00 0.0000000e+00 0.0000000e+00 
0.0000000e+00 0.0000000e+00 0.0000000e+00 
0.0000000e+00 0.0000000e+00 0.0000000e+00 
0.0000000e+00 0.0000000e+00 0.0000000e+00 
0.0000000e+00 0.0000000e+00 0.0000000e+00 
0.0000000e+00 0.0000000e+00 0.0000000e+00 
0.0000000e+00 0.0000000e+00 0.0000000e+00 
0.0000000e+00 0.0000000e+00 0.0000000e+00 
0.0000000e+00 0.0000000e+00 0.0000000e+00 
0.0000000e+00 0.0000000e+00 0.0000000e+00 
0.0000000e+00 0.0000000e+00 0.0000000e+00 
0.0000000e+00 0.0000000e+00 0.0000000e+00 
0.0000000e+00 0.0000000e+00 0.0000000e+00 
0.0000000e+00 0.0000000e+00 0.0000000e+00 
0.0000000e+00 0.0000000e+00 0.0000000e+00 
0.0000000e+00 0.0000000e+00 0.0000000e+00 
0.0000000e+00 0.0000000e+00 0.0000000e+00 
0.0000000e+00 0.0000000e+00 0.0000000e+00 
0.0000000e+00 0.0000000e+00 0.0000000e+00 
0.0000000e+00 0.0000000e+00 0.0000000e+00 
0.0000000e+00 0.0000000e+00 0.0000000e+00 
0.0000000e+00 0.0000000e+00 0.0000000e+00 
0.0000000e+00 0.0000000e+00 0.0000000e+00 
0.0000000e+00 0.0000000e+00 0.0000000e+00 
0.0000000e+00 0.0000000e+00 0.0000000e+00 
0.0000000e+00 0.0000000e+00 0.0000000e+00 