# vtk DataFile Version 4.0
vtk output
ASCII
DATASET UNSTRUCTURED_GRID
POINTS 377 float
0.0000000e+00 0.0000000e+00 0.0000000e+00 
5.0000000e+00 0.0000000e+00 0.0000000e+00 
5.0000000e+00 3.0000000e+00 0.0000000e+00 
0.0000000e+00 3.0000000e+00 0.0000000e+00 
0.0000000e+00 0.0000000e+00 1.0000000e+01 
5.0000000e+00 0.0000000e+00 1.0000000e+01 
5.0000000e+00 3.0000000e+00 1.0000000e+01 
0.0000000e+00 3.0000000e+00 1.0000000e+01 
1.0000000e+00 3.0000000e+00 5.0000000e-01 
1.0000000e+00 3.0000000e+00 1.0000000e+00 
1.0000000e+00 3.0000000e+00 1.5000000e+00 
1.0000000e+00 3.0000000e+00 2.0000000e+00 
1.0000000e+00 3.0000000e+00 2.5000000e+00 
1.0000000e+00 3.0000000e+00 3.0000000e+00 
1.0000000e+00 3.0000000e+00 3.5000000e+00 
1.0000000e+00 3.0000000e+00 4.0000000e+00 
1.0000000e+00 3.0000000e+00 4.5000000e+00 
1.0000000e+00 3.0000000e+00 5.0000000e+00 
1.0000000e+00 3.0000000e+00 5.5000000e+00 
1.0000000e+00 3.0000000e+00 6.0000000e+00 
1.0000000e+00 3.0000000e+00 6.5000000e+00 
1.0000000e+00 3.0000000e+00 7.0000000e+00 
1.0000000e+00 3.0000000e+00 7.5000000e+00 
1.0000000e+00 3.0000000e+00 8.0000000e+00 
1.0000000e+00 3.0000000e+00 8.5000000e+00 
1.0000000e+00 3.0000000e+00 9.0000000e+00 
1.0000000e+00 3.0000000e+00 9.5000000e+00 
1.0000000e+00 3.0000000e+00 0.0000000e+00 
1.0000000e+00 3.0000000e+00 1.0000000e+01 
1.0000000e+00 0.0000000e+00 0.0000000e+00 
2.0000000e+00 0.0000000e+00 0.0000000e+00 
3.0000000e+00 0.0000000e+00 0.0000000e+00 
4.0000000e+00 0.0000000e+00 0.0000000e+00 
5.0000000e+00 1.0000000e+00 0.0000000e+00 
5.0000000e+00 2.0000000e+00 0.0000000e+00 
0.0000000e+00 2.0000000e+00 0.0000000e+00 
0.0000000e+00 1.0000000e+00 0.0000000e+00 
0.0000000e+00 0.0000000e+00 1.0000000e+00 
0.0000000e+00 0.0000000e+00 2.0000000e+00 
0.0000000e+00 0.0000000e+00 3.0000000e+00 
0.0000000e+00 0.0000000e+00 4.0000000e+00 
0.0000000e+00 0.0000000e+00 5.0000000e+00 
0.0000000e+00 0.0000000e+00 6.0000000e+00 
0.0000000e+00 0.0000000e+00 7.0000000e+00 
0.0000000e+00 0.0000000e+00 8.0000000e+00 
0.0000000e+00 0.0000000e+00 9.0000000e+00 
5.0000000e+00 0.0000000e+00 1.0000000e+00 
5.0000000e+00 0.0000000e+00 2.0000000e+00 
5.0000000e+00 0.0000000e+00 3.0000000e+00 
5.0000000e+00 0.0000000e+00 4.0000000e+00 
5.0000000e+00 0.0000000e+00 5.0000000e+00 
5.0000000e+00 0.0000000e+00 6.0000000e+00 
5.0000000e+00 0.0000000e+00 7.0000000e+00 
5.0000000e+00 0.0000000e+00 8.0000000e+00 
5.0000000e+00 0.0000000e+00 9.0000000e+00 
1.0000000e+00 0.0000000e+00 1.0000000e+01 
2.0000000e+00 0.0000000e+00 1.0000000e+01 
3.0000000e+00 0.0000000e+00 1.0000000e+01 
4.0000000e+00 0.0000000e+00 1.0000000e+01 
5.0000000e+00 3.0000000e+00 1.0000000e+00 
5.0000000e+00 3.0000000e+00 2.0000000e+00 
5.0000000e+00 3.0000000e+00 3.0000000e+00 
5.0000000e+00 3.0000000e+00 4.0000000e+00 
5.0000000e+00 3.0000000e+00 5.0000000e+00 
5.0000000e+00 3.0000000e+00 6.0000000e+00 
5.0000000e+00 3.0000000e+00 7.0000000e+00 
5.0000000e+00 3.0000000e+00 8.0000000e+00 
5.0000000e+00 3.0000000e+00 9.0000000e+00 
5.0000000e+00 1.0000000e+00 1.0000000e+01 
5.0000000e+00 2.0000000e+00 1.0000000e+01 
0.0000000e+00 3.0000000e+00 1.0000000e+00 
0.0000000e+00 3.0000000e+00 2.0000000e+00 
0.0000000e+00 3.0000000e+00 3.0000000e+00 
0.0000000e+00 3.0000000e+00 4.0000000e+00 
0.0000000e+00 3.0000000e+00 5.0000000e+00 
0.0000000e+00 3.0000000e+00 6.0000000e+00 
0.0000000e+00 3.0000000e+00 7.0000000e+00 
0.0000000e+00 3.0000000e+00 8.0000000e+00 
0.0000000e+00 3.0000000e+00 9.0000000e+00 
0.0000000e+00 2.0000000e+00 1.0000000e+01 
0.0000000e+00 1.0000000e+00 1.0000000e+01 
4.0000000e+00 3.0000000e+00 0.0000000e+00 
3.0000000e+00 3.0000000e+00 0.0000000e+00 
2.0000000e+00 3.0000000e+00 0.0000000e+00 
4.0000000e+00 3.0000000e+00 1.0000000e+01 
3.0000000e+00 3.0000000e+00 1.0000000e+01 
2.0000000e+00 3.0000000e+00 1.0000000e+01 
4.0618000e+00 1.5000000e+00 0.0000000e+00 
1.5046000e+00 7.6549745e-01 0.0000000e+00 
2.5000000e+00 2.1339746e+00 0.0000000e+00 
1.5046000e+00 2.2345026e+00 0.0000000e+00 
2.4957771e+00 8.1560516e-01 0.0000000e+00 
3.4707544e+00 2.2336540e+00 0.0000000e+00 
3.4700506e+00 7.5794268e-01 0.0000000e+00 
8.6322361e-01 1.5000000e+00 0.0000000e+00 
2.0000000e+00 1.5000000e+00 0.0000000e+00 
2.9960666e+00 1.4974480e+00 0.0000000e+00 
4.2679491e+00 7.3205084e-01 0.0000000e+00 
4.2679491e+00 2.2679491e+00 0.0000000e+00 
7.2695929e-01 2.2730408e+00 0.0000000e+00 
7.2695929e-01 7.2695929e-01 0.0000000e+00 
4.1822505e+00 0.0000000e+00 2.5515697e+00 
4.2017918e+00 0.0000000e+00 4.4725966e+00 
4.1114569e+00 0.0000000e+00 6.5092020e+00 
8.6602539e-01 0.0000000e+00 3.5000000e+00 
8.4778279e-01 0.0000000e+00 5.4684029e+00 
8.9629614e-01 0.0000000e+00 7.5867257e+00 
2.5566745e+00 0.0000000e+00 8.1853306e-01 
2.4918270e+00 0.0000000e+00 9.1386929e+00 
8.4677207e-01 0.0000000e+00 1.5042374e+00 
4.0943027e+00 0.0000000e+00 8.4081745e+00 
8.6281651e-01 0.0000000e+00 2.5007062e+00 
1.7315160e+00 0.0000000e+00 3.0001178e+00 
1.7319617e+00 0.0000000e+00 4.0000196e+00 
2.5980761e+00 0.0000000e+00 3.5000000e+00 
2.5536871e+00 0.0000000e+00 4.4963923e+00 
2.5928419e+00 0.0000000e+00 2.4239938e+00 
1.5037409e+00 0.0000000e+00 9.1535149e+00 
1.8433737e+00 0.0000000e+00 8.1858873e+00 
3.0000000e+00 0.0000000e+00 8.2679491e+00 
2.5000000e+00 0.0000000e+00 7.4019237e+00 
3.5042722e+00 0.0000000e+00 7.4271150e+00 
3.0310018e+00 0.0000000e+00 6.5282087e+00 
2.0373929e+00 0.0000000e+00 6.5307913e+00 
3.4767809e+00 0.0000000e+00 5.8031492e+00 
2.5452602e+00 0.0000000e+00 5.5720768e+00 
1.6456656e+00 0.0000000e+00 1.9697139e+00 
8.6297011e-01 0.0000000e+00 4.4947371e+00 
1.0111579e+00 0.0000000e+00 6.5282545e+00 
3.4994321e+00 0.0000000e+00 8.4691072e-01 
4.1860156e+00 0.0000000e+00 3.5040276e+00 
1.7320508e+00 0.0000000e+00 5.0000000e+00 
4.0544066e+00 0.0000000e+00 1.5781221e+00 
1.5817389e+00 0.0000000e+00 9.3943578e-01 
8.3166349e-01 0.0000000e+00 8.5090933e+00 
3.4686174e+00 0.0000000e+00 9.1752682e+00 
3.0709300e+00 0.0000000e+00 1.5799091e+00 
3.3927374e+00 0.0000000e+00 3.0399952e+00 
3.3826034e+00 0.0000000e+00 3.9747651e+00 
4.3420062e+00 0.0000000e+00 7.4688983e+00 
3.4023225e+00 0.0000000e+00 4.9314723e+00 
1.6740381e+00 0.0000000e+00 7.3014426e+00 
4.2715640e+00 0.0000000e+00 5.4758859e+00 
1.6225953e+00 0.0000000e+00 5.8104177e+00 
4.2679491e+00 0.0000000e+00 9.2679491e+00 
7.3205084e-01 0.0000000e+00 7.3205084e-01 
4.2679491e+00 0.0000000e+00 7.3205084e-01 
7.3205084e-01 0.0000000e+00 9.2679491e+00 
3.4586334e+00 0.0000000e+00 2.2347178e+00 
2.2895701e+00 0.0000000e+00 1.5463171e+00 
5.0000000e+00 1.5000000e+00 9.3820012e-01 
5.0000000e+00 1.5000000e+00 9.0618000e+00 
5.0000000e+00 2.1339746e+00 2.5000000e+00 
5.0000000e+00 2.1582527e+00 4.4926300e+00 
5.0000000e+00 2.2774773e+00 7.4626446e+00 
5.0000000e+00 8.6602539e-01 3.5000000e+00 
5.0000000e+00 8.2692069e-01 5.5000000e+00 
5.0000000e+00 8.0628556e-01 7.4626446e+00 
5.0000000e+00 8.4408212e-01 4.5000000e+00 
5.0000000e+00 8.3320528e-01 6.4654617e+00 
5.0000000e+00 1.5653628e+00 5.9376192e+00 
5.0000000e+00 2.1339746e+00 3.5000000e+00 
5.0000000e+00 8.6602539e-01 2.5000000e+00 
5.0000000e+00 7.5638938e-01 8.4645281e+00 
5.0000000e+00 2.2575710e+00 8.4645281e+00 
5.0000000e+00 2.2336540e+00 1.5292456e+00 
5.0000000e+00 7.6634604e-01 1.5292456e+00 
5.0000000e+00 2.2649403e+00 5.4883747e+00 
5.0000000e+00 1.5584890e+00 6.9705243e+00 
5.0000000e+00 1.5000000e+00 4.0000000e+00 
5.0000000e+00 1.5000000e+00 3.0000000e+00 
5.0000000e+00 1.4974226e+00 5.0000000e+00 
5.0000000e+00 2.2777116e+00 6.4765272e+00 
5.0000000e+00 1.5000000e+00 2.0022767e+00 
5.0000000e+00 1.5067772e+00 7.9912200e+00 
5.0000000e+00 2.2679491e+00 9.2679491e+00 
5.0000000e+00 7.3205084e-01 7.3205084e-01 
5.0000000e+00 2.2679491e+00 7.3205084e-01 
5.0000000e+00 7.3205084e-01 9.2679491e+00 
0.0000000e+00 1.5000000e+00 9.3820012e-01 
0.0000000e+00 1.5000000e+00 9.0618000e+00 
0.0000000e+00 8.6602539e-01 2.5000000e+00 
0.0000000e+00 8.6602539e-01 4.5000000e+00 
0.0000000e+00 8.6602539e-01 6.5000000e+00 
0.0000000e+00 2.1339746e+00 3.5000000e+00 
0.0000000e+00 2.1339746e+00 5.5000000e+00 
0.0000000e+00 2.1339746e+00 7.5000000e+00 
0.0000000e+00 8.6602539e-01 3.5000000e+00 
0.0000000e+00 2.1339746e+00 2.5000000e+00 
0.0000000e+00 2.1339746e+00 4.5000000e+00 
0.0000000e+00 2.1339746e+00 6.5000000e+00 
0.0000000e+00 8.6602539e-01 5.5000000e+00 
0.0000000e+00 8.6602539e-01 7.5000000e+00 
0.0000000e+00 2.2336540e+00 8.4707546e+00 
0.0000000e+00 2.2336540e+00 1.5292456e+00 
0.0000000e+00 7.6634604e-01 8.4707546e+00 
0.0000000e+00 7.6634604e-01 1.5292456e+00 
0.0000000e+00 1.5000000e+00 4.0000000e+00 
0.0000000e+00 1.5000000e+00 6.0000000e+00 
0.0000000e+00 1.5000000e+00 3.0000000e+00 
0.0000000e+00 1.5000000e+00 5.0000000e+00 
0.0000000e+00 1.5000000e+00 7.0000000e+00 
0.0000000e+00 1.5000000e+00 8.0005512e+00 
0.0000000e+00 1.5000000e+00 2.0022767e+00 
0.0000000e+00 7.3205084e-01 9.2679491e+00 
0.0000000e+00 2.2679491e+00 7.3205084e-01 
0.0000000e+00 7.3205084e-01 7.3205084e-01 
0.0000000e+00 2.2679491e+00 9.2679491e+00 
1.5046000e+00 7.6549745e-01 1.0000000e+01 
4.0618000e+00 1.5000000e+00 1.0000000e+01 
2.5000000e+00 2.1339746e+00 1.0000000e+01 
1.5046000e+00 2.2345026e+00 1.0000000e+01 
2.4957771e+00 8.1560516e-01 1.0000000e+01 
3.4707544e+00 2.2336540e+00 1.0000000e+01 
3.4700506e+00 7.5794268e-01 1.0000000e+01 
8.6322361e-01 1.5000000e+00 1.0000000e+01 
2.0000000e+00 1.5000000e+00 1.0000000e+01 
2.9960666e+00 1.4974480e+00 1.0000000e+01 
4.2679491e+00 7.3205084e-01 1.0000000e+01 
4.2679491e+00 2.2679491e+00 1.0000000e+01 
7.2695929e-01 2.2730408e+00 1.0000000e+01 
7.2695929e-01 7.2695929e-01 1.0000000e+01 
1.4891552e+00 3.0000000e+00 2.2590268e+00 
1.4171888e+00 3.0000000e+00 3.6986542e+00 
1.5172310e+00 3.0000000e+00 5.7397003e+00 
1.4330127e+00 3.0000000e+00 7.2500000e+00 
1.4330127e+00 3.0000000e+00 4.7500000e+00 
1.4554617e+00 3.0000000e+00 8.2442541e+00 
4.1714277e+00 3.0000000e+00 6.4487247e+00 
4.1339746e+00 3.0000000e+00 2.5000000e+00 
[...]
POINT_DATA 377
FIELD FieldData 2
DISPLACEMENT 3 377  float
0.0000000e+00 0.0000000e+00 0.0000000e+00 
0.0000000e+00 0.0000000e+00 0.0000000e+00 
0.0000000e+00 -2.7195762e-05 -3.3738532e-05 
0.0000000e+00 -1.6823348e-04 -7.1202092e-05 
0.0000000e+00 0.0000000e+00 0.0000000e+00 
0.0000000e+00 0.0000000e+00 0.0000000e+00 
0.0000000e+00 6.0228022e-06 -1.3915776e-05 
0.0000000e+00 1.0930557e-05 -2.9544814e-05 
1.7343164e-06 -3.2090940e-04 -5.6333556e-05 
-5.1734710e-06 -2.9615615e-04 -5.5147710e-05 
-1.5324140e-05 -2.0605981e-04 -5.3737826e-05 
-1.5279045e-05 -1.1949769e-04 -5.2365438e-05 
-1.2177561e-05 -6.2410632e-05 -5.0428975e-05 
-9.2157043e-06 -3.2047763e-05 -4.8474685e-05 
-6.9111311e-06 -1.7841672e-05 -4.6413923e-05 
-5.2866139e-06 -1.1567223e-05 -4.4409349e-05 
-4.2224701e-06 -8.6085947e-06 -4.2557920e-05 
-3.3406100e-06 -6.8298186e-06 -4.0847106e-05 
-2.6491653e-06 -5.4749239e-06 -3.9256505e-05 
-2.1634194e-06 -4.3204368e-06 -3.7870497e-05 
-1.7220486e-06 -3.3036695e-06 -3.6688922e-05 
-1.3850008e-06 -2.4177500e-06 -3.5650824e-05 
-1.1977460e-06 -1.5829806e-06 -3.4809567e-05 
-1.0920404e-06 -5.1678234e-07 -3.4126428e-05 
-9.5666633e-07 1.2318646e-06 -3.3661039e-05 
-7.0573765e-07 3.7309371e-06 -3.3360790e-05 
-3.7557419e-07 6.9083785e-06 -3.3162185e-05 
0.0000000e+00 -3.0109941e-04 -5.6870005e-05 
0.0000000e+00 1.0527236e-05 -3.3115011e-05 
0.0000000e+00 0.0000000e+00 0.0000000e+00 
0.0000000e+00 0.0000000e+00 0.0000000e+00 
0.0000000e+00 0.0000000e+00 0.0000000e+00 
0.0000000e+00 0.0000000e+00 0.0000000e+00 
0.0000000e+00 -1.7219696e-05 -1.5175598e-05 
0.0000000e+00 -2.4982759e-05 -2.6307376e-05 
0.0000000e+00 -1.3922107e-04 -4.9239770e-05 
0.0000000e+00 -7.5661417e-05 -2.7489823e-05 
0.0000000e+00 0.0000000e+00 0.0000000e+00 
0.0000000e+00 0.0000000e+00 0.0000000e+00 
0.0000000e+00 0.0000000e+00 0.0000000e+00 
0.0000000e+00 0.0000000e+00 0.0000000e+00 
0.0000000e+00 0.0000000e+00 0.0000000e+00 
0.0000000e+00 0.0000000e+00 0.0000000e+00 
0.0000000e+00 0.0000000e+00 0.0000000e+00 
0.0000000e+00 0.0000000e+00 0.0000000e+00 
0.0000000e+00 0.0000000e+00 0.0000000e+00 
0.0000000e+00 0.0000000e+00 0.0000000e+00 
0.0000000e+00 0.0000000e+00 0.0000000e+00 
0.0000000e+00 0.0000000e+00 0.0000000e+00 
0.0000000e+00 0.0000000e+00 0.0000000e+00 
0.0000000e+00 0.0000000e+00 0.0000000e+00 
0.0000000e+00 0.0000000e+00 0.0000000e+00 
0.0000000e+00 0.0000000e+00 0.0000000e+00 
0.0000000e+00 0.0000000e+00 0.0000000e+00 
0.0000000e+00 0.0000000e+00 0.0000000e+00 
0.0000000e+00 0.0000000e+00 0.0000000e+00 
0.0000000e+00 0.0000000e+00 0.0000000e+00 
0.0000000e+00 0.0000000e+00 0.0000000e+00 
0.0000000e+00 0.0000000e+00 0.0000000e+00 
0.0000000e+00 -1.9450568e-05 -3.4552453e-05 
0.0000000e+00 -1.2466433e-05 -3.1792359e-05 
0.0000000e+00 -7.7896420e-06 -2.8231794e-05 
0.0000000e+00 -4.1954072e-06 -2.4385223e-05 
0.0000000e+00 -1.1118509e-06 -1.9850173e-05 
0.0000000e+00 1.0043632e-06 -1.5568638e-05 
0.0000000e+00 1.1862268e-06 -1.3356280e-05 
0.0000000e+00 1.7570180e-06 -1.2909898e-05 
0.0000000e+00 2.9746693e-06 -1.3379256e-05 
0.0000000e+00 4.5642987e-06 -5.5823107e-06 
0.0000000e+00 5.8683877e-06 -1.0235618e-05 
0.0000000e+00 -1.4549011e-04 -7.2062292e-05 
0.0000000e+00 -8.4071035e-05 -6.3510677e-05 
0.0000000e+00 -3.6660447e-05 -5.1334267e-05 
0.0000000e+00 -1.3656707e-05 -4.1667678e-05 
0.0000000e+00 -7.7246013e-06 -3.5880083e-05 
0.0000000e+00 -4.5095785e-06 -3.1265990e-05 
0.0000000e+00 -2.6655280e-06 -2.9869992e-05 
0.0000000e+00 -5.6071497e-07 -2.8885808e-05 
0.0000000e+00 3.2079038e-06 -2.9150766e-05 
0.0000000e+00 1.0068512e-05 -1.9467090e-05 
0.0000000e+00 7.3492779e-06 -9.1725069e-06 
0.0000000e+00 -3.3341628e-05 -3.8145889e-05 
0.0000000e+00 -5.5203709e-05 -4.6165718e-05 
0.0000000e+00 -1.1211541e-04 -5.8708349e-05 
0.0000000e+00 6.3670659e-06 -1.4865184e-05 
0.0000000e+00 7.1949730e-06 -1.7790908e-05 
0.0000000e+00 8.4838102e-06 -2.3041133e-05 
0.0000000e+00 -2.4540146e-05 -2.2198112e-05 
0.0000000e+00 -4.6637968e-05 -1.7784116e-05 
0.0000000e+00 -6.7785477e-05 -4.1261424e-05 
0.0000000e+00 -1.4450906e-04 -4.9993378e-05 
0.0000000e+00 -3.2242653e-05 -1.6213227e-05 
0.0000000e+00 -3.8786773e-05 -3.3659107e-05 
0.0000000e+00 -1.8678569e-05 -1.2730313e-05 
0.0000000e+00 -1.0991782e-04 -3.6734204e-05 
0.0000000e+00 -7.8151148e-05 -3.2350039e-05 
0.0000000e+00 -3.9959748e-05 -2.7483205e-05 
0.0000000e+00 -1.4951428e-05 -1.1649484e-05 
0.0000000e+00 -2.8832384e-05 -2.9966586e-05 
0.0000000e+00 -1.8078425e-04 -5.9296344e-05 
0.0000000e+00 -5.6374094e-05 -1.8912997e-05 
0.0000000e+00 0.0000000e+00 0.0000000e+00 
0.0000000e+00 0.0000000e+00 0.0000000e+00 
0.0000000e+00 0.0000000e+00 0.0000000e+00 
0.0000000e+00 0.0000000e+00 0.0000000e+00 
0.0000000e+00 0.0000000e+00 0.0000000e+00 
0.0000000e+00 0.0000000e+00 0.0000000e+00 
0.0000000e+00 0.0000000e+00 0.0000000e+00 
0.0000000e+00 0.0000000e+00 0.0000000e+00 
0.0000000e+00 0.0000000e+00 0.0000000e+00 
0.0000000e+00 0.0000000e+00 0.0000000e+00 
0.0000000e+00 0.0000000e+00 0.0000000e+00 
0.0000000e+00 0.0000000e+00 0.0000000e+00 
0.0000000e+00 0.0000000e+00 0.0000000e+00 
0.0000000e+00 0.0000000e+00 0.0000000e+00 
0.0000000e+00 0.0000000e+00 0.0000000e+00 
0.0000000e+00 0.0000000e+00 0.0000000e+00 
0.0000000e+00 0.0000000e+00 0.0000000e+00 
0.0000000e+00 0.0000000e+00 0.0000000e+00 
0.0000000e+00 0.0000000e+00 0.0000000e+00 
0.0000000e+00 0.0000000e+00 0.0000000e+00 
0.0000000e+00 0.0000000e+00 0.0000000e+00 
0.0000000e+00 0.0000000e+00 0.0000000e+00 
0.0000000e+00 0.0000000e+00 0.0000000e+00 
0.0000000e+00 0.0000000e+00 0.0000000e+00 
0.0000000e+00 0.0000000e+00 0.0000000e+00 
0.0000000e+00 0.0000000e+00 0.0000000e+00 
0.0000000e+00 0.0000000e+00 0.0000000e+00 
0.0000000e+00 0.0000000e+00 0.0000000e+00 
0.0000000e+00 0.0000000e+00 0.0000000e+00 
0.0000000e+00 0.0000000e+00 0.0000000e+00 
0.0000000e+00 0.0000000e+00 0.0000000e+00 
0.0000000e+00 0.0000000e+00 0.0000000e+00 
0.0000000e+00 0.0000000e+00 0.0000000e+00 
0.0000000e+00 0.0000000e+00 0.0000000e+00 
0.0000000e+00 0.0000000e+00 0.0000000e+00 
0.0000000e+00 0.0000000e+00 0.0000000e+00 
0.0000000e+00 0.0000000e+00 0.0000000e+00 
0.0000000e+00 0.0000000e+00 0.0000000e+00 
0.0000000e+00 0.0000000e+00 0.0000000e+00 
0.0000000e+00 0.0000000e+00 0.0000000e+00 
0.0000000e+00 0.0000000e+00 0.0000000e+00 
0.0000000e+00 0.0000000e+00 0.0000000e+00 
0.0000000e+00 0.0000000e+00 0.0000000e+00 
0.0000000e+00 0.0000000e+00 0.0000000e+00 
0.0000000e+00 0.0000000e+00 0.0000000e+00 
0.0000000e+00 0.0000000e+00 0.0000000e+00 
0.0000000e+00 0.0000000e+00 0.0000000e+00 
0.0000000e+00 0.0000000e+00 0.0000000e+00 
0.0000000e+00 0.0000000e+00 0.0000000e+00 
0.0000000e+00 -1.2908386e-05 -1.8709981e-05 
0.0000000e+00 2.2778363e-06 -7.6598517e-06 
0.0000000e+00 -7.2059597e-06 -2.2954162e-05 
0.0000000e+00 -2.9502473e-07 -1.7201546e-05 
0.0000000e+00 1.5979429e-06 -1.1252560e-05 
0.0000000e+00 -9.3907721e-07 -7.3840802e-06 
0.0000000e+00 9.5411008e-07 -5.4643738e-06 
0.0000000e+00 7.5312261e-07 -4.5448573e-06 
0.0000000e+00 1.5736553e-07 -6.3044699e-06 
0.0000000e+00 8.1642077e-07 -5.0616982e-06 
0.0000000e+00 1.3971932e-06 -9.8261726e-06 
0.0000000e+00 -3.0767696e-06 -2.0075355e-05 
0.0000000e+00 -3.2760786e-06 -8.3666910e-06 
0.0000000e+00 9.4085436e-07 -3.8921703e-06 
0.0000000e+00 2.0348634e-06 -1.0870114e-05 
0.0000000e+00 -1.2019401e-05 -2.6071100e-05 
0.0000000e+00 -5.2486093e-06 -8.1222006e-06 
0.0000000e+00 1.2858882e-06 -1.4634846e-05 
0.0000000e+00 1.3129792e-06 -8.6981190e-06 
0.0000000e+00 -7.9898723e-07 -1.2710045e-05 
0.0000000e+00 -3.3683141e-06 -1.4765624e-05 
0.0000000e+00 7.2563074e-07 -1.0891024e-05 
0.0000000e+00 1.5790445e-06 -1.2542752e-05 
0.0000000e+00 -6.8396212e-06 -1.6453270e-05 
0.0000000e+00 1.3334779e-06 -7.9154106e-06 
0.0000000e+00 3.4888074e-06 -1.1169482e-05 
0.0000000e+00 -7.3205347e-06 -9.1163038e-06 
0.0000000e+00 -1.8381093e-05 -2.7687456e-05 
0.0000000e+00 1.5277845e-06 -3.6306988e-06 
0.0000000e+00 -9.0191585e-05 -2.2678774e-05 
0.0000000e+00 2.5151235e-06 -1.3836791e-05 
0.0000000e+00 -2.1122281e-05 -1.6073377e-06 
0.0000000e+00 -5.4962143e-06 -6.8712202e-06 
0.0000000e+00 -1.5670050e-06 -8.2676715e-06 
0.0000000e+00 -2.0428915e-05 -2.4366180e-05 
0.0000000e+00 -5.3683020e-06 -2.3850109e-05 
0.0000000e+00 -1.6039464e-06 -2.1582360e-05 
0.0000000e+00 -9.4998486e-06 -5.2335786e-06 
0.0000000e+00 -5.0633855e-05 -2.4606446e-05 
0.0000000e+00 -9.4684992e-06 -2.4593259e-05 
0.0000000e+00 -3.3147915e-06 -2.2683431e-05 
0.0000000e+00 -2.8552429e-06 -7.9857837e-06 
0.0000000e+00 -5.8948257e-07 -7.8932253e-06 
0.0000000e+00 7.7418497e-07 -2.2076081e-05 
0.0000000e+00 -1.0329936e-04 -3.3538101e-05 
0.0000000e+00 3.3196645e-07 -6.4521223e-06 
0.0000000e+00 -3.6346170e-05 -4.3158848e-06 
0.0000000e+00 -1.1157565e-05 -1.3681219e-05 
0.0000000e+00 -3.3133185e-06 -1.5471691e-05 
0.0000000e+00 -2.4845625e-05 -1.1614016e-05 
0.0000000e+00 -6.1034725e-06 -1.5390775e-05 
0.0000000e+00 -1.7983635e-06 -1.5012738e-05 
0.0000000e+00 -4.2161497e-07 -1.4243189e-05 
0.0000000e+00 -5.0883496e-05 -1.2178034e-05 
0.0000000e+00 1.8278714e-06 -5.9023519e-06 
0.0000000e+00 -1.3829148e-04 -4.3824377e-05 
0.0000000e+00 -4.5116016e-05 -9.9537283e-06 
0.0000000e+00 4.6328582e-06 -2.2200429e-05 
0.0000000e+00 4.5671386e-06 -5.8995238e-06 
0.0000000e+00 5.4206566e-06 -8.5423235e-06 
0.0000000e+00 7.2834882e-06 -1.5122528e-05 
0.0000000e+00 8.7875496e-06 -1.9919697e-05 
0.0000000e+00 4.4219446e-06 -5.5712658e-06 
0.0000000e+00 6.5158533e-06 -1.2975766e-05 
0.0000000e+00 3.8993157e-06 -4.6262999e-06 
0.0000000e+00 8.1370963e-06 -1.3735361e-05 
0.0000000e+00 7.1009013e-06 -1.2118468e-05 
0.0000000e+00 5.9692297e-06 -9.9503231e-06 
0.0000000e+00 3.6440870e-06 -4.1789617e-06 
0.0000000e+00 5.9608105e-06 -1.1833926e-05 
0.0000000e+00 9.9337249e-06 -2.2458744e-05 
0.0000000e+00 5.3016315e-06 -6.3293273e-06 
-1.8795899e-05 -6.5795321e-05 -5.4419605e-05 
-7.5880812e-06 -1.6963173e-05 -4.2080010e-05 
-2.8785855e-06 -4.4398062e-06 -3.1005067e-05 
-1.7112663e-06 -1.6439132e-06 -2.8665654e-05 
-4.1650733e-06 -8.2987635e-06 -3.5377387e-05 
-1.1002543e-06 5.0288185e-07 -2.8942113e-05 
-7.1628449e-07 9.2343049e-07 -1.5429783e-05 
-6.7030874e-06 -1.1229104e-05 -3.1829812e-05 
-3.3442702e-06 -2.6748962e-06 -2.3335431e-05 
-1.5423970e-05 -1.4707040e-04 -5.3699219e-05 
-4.1779884e-07 2.0095474e-06 -1.3982497e-05 
-5.0915742e-07 3.6704891e-06 -2.0060565e-05 
-1.5492142e-05 -3.3326280e-05 -4.1917156e-05 
-4.2705946e-07 5.7081706e-06 -2.8598541e-05 
-1.6477097e-06 -1.9018378e-07 -1.8800136e-05 
-1.8824753e-06 -5.8067451e-07 -1.8823972e-05 
-1.3874838e-06 -3.4428123e-08 -1.7141430e-05 
-2.0343257e-06 -1.1686527e-06 -2.0390667e-05 
-3.2110343e-06 -2.7561537e-06 -2.2817538e-05 
-1.6831701e-06 -5.1259036e-07 -1.9186731e-05 
-1.1347154e-06 6.0659022e-07 -1.6592214e-05 
-1.2299679e-06 2.5961674e-07 -1.9315121e-05 
-1.9881866e-06 -1.7508984e-06 -2.3706199e-05 
-7.7832539e-07 1.3480843e-06 -1.6655873e-05 
-2.8370555e-06 -2.9433495e-06 -2.4477320e-05 
-3.6645461e-06 -4.9187365e-06 -2.7530177e-05 
-4.9839782e-06 -5.1986667e-06 -2.6394055e-05 
-3.4126190e-06 -2.3159180e-06 -2.1958060e-05 
-5.3807357e-06 -5.3724834e-06 -2.5918751e-05 
-7.5454977e-06 -9.1548045e-06 -3.1566524e-05 
-7.9440979e-06 -9.8595674e-06 -3.1149502e-05 
-1.0385440e-05 -1.5944070e-05 -3.6393300e-05 
-1.3473998e-05 -1.6413787e-05 -3.7850656e-05 
-1.4975089e-05 -2.5887450e-05 -4.1621250e-05 
-1.5342112e-05 -2.5464691e-05 -4.1473289e-05 
-1.9259831e-05 -4.3935765e-05 -4.7279860e-05 
-2.1517504e-05 -3.9294402e-05 -4.6795863e-05 
-4.8584975e-06 -6.3136654e-06 -2.7797967e-05 
-1.1277881e-05 -2.2710743e-05 -4.2449636e-05 
-5.3045068e-07 1.2076487e-06 -1.4087167e-05 
-2.5062238e-06 -3.3406122e-06 -2.8089216e-05 
-1.3199146e-05 -2.1218590e-05 -3.8383871e-05 
-4.4951022e-07 3.2807168e-06 -1.6543352e-05 
-1.6315622e-06 -8.3830173e-07 -2.2049462e-05 
-5.9456806e-06 -8.2083088e-06 -3.1070340e-05 
-1.3489273e-05 -4.1115454e-05 -4.9814531e-05 
-5.6978788e-06 -1.0925060e-05 -3.8995513e-05 
-7.8063522e-06 -1.3456807e-05 -3.6308556e-05 
-3.5231442e-06 -5.9102777e-06 -3.2780346e-05 
-2.0709662e-05 -6.6590008e-05 -5.0621664e-05 
-2.6769218e-05 -8.5533073e-05 -5.4421711e-05 
-1.3474555e-06 -4.0482871e-07 -2.8586699e-05 
-9.6864630e-07 2.1697681e-06 -2.7887601e-05 
-1.3154946e-06 1.2704562e-06 -2.3525921e-05 
-7.8525209e-06 -1.7319722e-05 -3.5209996e-05 
-1.1100103e-05 -1.5910047e-04 -5.9222129e-05 
-2.6061074e-05 -1.0776710e-04 -5.9210361e-05 
-1.9774900e-06 -2.3428292e-06 -2.9316367e-05 
-1.8077206e-05 -3.8744663e-05 -4.7458474e-05 
-1.3926684e-06 2.0655348e-07 -2.2930486e-05 
-8.6457758e-06 -1.0648098e-05 -3.1913114e-05 
-9.5479754e-06 -2.7337592e-05 -4.6157933e-05 
-5.5636638e-06 -5.7334046e-06 -2.7081676e-05 
-1.1125691e-06 1.4663364e-06 -1.9419071e-05 
-6.3638487e-07 3.6426420e-06 -2.4128620e-05 
-1.6106321e-07 3.7533832e-06 -1.4307288e-05 
-7.2097728e-06 -2.4377117e-05 -3.6220998e-05 
-6.8934497e-07 1.1943907e-06 -1.5180447e-05 
-4.5005836e-06 -6.9088514e-06 -3.0787294e-05 
-1.2294067e-05 -1.6100124e-05 -3.5932440e-05 
-9.5957221e-06 -8.3906918e-05 -5.5738128e-05 
-1.1017406e-05 -1.2313710e-04 -6.0707873e-05 
-7.2433941e-06 -4.9255195e-05 -5.1558582e-05 
-4.9998002e-06 -3.1053180e-05 -4.8515118e-05 
-4.0523264e-06 -1.6350354e-04 -6.3096159e-05 
-3.8049991e-06 -1.7058861e-05 -4.3720509e-05 
-3.6019862e-06 -1.2177250e-05 -4.1551542e-05 
-2.6717644e-06 -8.7152621e-06 -3.8176331e-05 
-1.9192125e-06 -6.6066441e-06 -3.5684086e-05 
-1.5543882e-06 -5.0614135e-06 -3.4127788e-05 
-1.2320603e-06 -4.2709339e-06 -3.3593245e-05 
-1.1740262e-06 -3.1998809e-06 -3.2083433e-05 
-1.1117436e-06 -2.1669728e-06 -3.1243366e-05 
-9.0012242e-07 -1.0276092e-06 -3.0371779e-05 
-6.0521205e-07 3.5361379e-07 -3.0167814e-05 
-4.4625315e-07 2.0319883e-06 -3.0365489e-05 
-4.9381390e-07 5.7874986e-06 -3.0804342e-05 
3.1880857e-06 -2.0977722e-04 -6.3275264e-05 
-1.1149548e-06 -4.8333809e-06 -1.4713215e-05 
2.5105118e-07 -2.0977905e-05 -1.1335478e-05 
-5.0177113e-07 -1.7322445e-06 -1.4025179e-05 
-5.6584742e-07 2.1019536e-08 -1.3233372e-05 
6.0435877e-06 -6.1594466e-05 -1.2944063e-05 
3.3958631e-07 -1.2511809e-05 -1.5509791e-05 
-1.1123155e-06 -5.6492859e-06 -1.3872178e-05 
-5.4787531e-08 -2.2727855e-07 -1.1426270e-05 
-1.5960445e-07 9.4444005e-07 -9.2893843e-06 
-3.0988137e-06 -1.2506929e-05 -2.1709398e-05 
-6.6051552e-07 1.8908185e-06 -1.9219375e-05 
-1.3563551e-06 -5.7088168e-05 -1.8709246e-05 
-3.3327879e-06 -2.5282710e-05 -2.6333582e-05 
-8.1729939e-07 -1.5592541e-06 -2.0473555e-05 
-2.0352095e-06 -7.6883616e-06 -2.5085645e-05 
-1.3338276e-06 -3.9482165e-06 -2.1796968e-05 
6.9832015e-07 -1.7054512e-05 -2.1250471e-05 
-5.6526477e-07 -1.5426521e-07 -1.3642173e-05 
-2.9636558e-06 -2.9637577e-05 -2.4641738e-05 
-4.8582058e-07 -4.3686433e-07 -1.3709538e-05 
-1.9557299e-06 -1.3018287e-04 -2.4941086e-05 
-1.8099048e-06 -4.6004475e-06 -1.7705124e-05 
-2.9127341e-06 -4.8634784e-06 -2.1969632e-05 
4.3465170e-06 -2.1655578e-05 -1.2300132e-05 
-5.5263683e-07 1.8451591e-06 -1.2568280e-05 
-6.4933727e-07 -3.3701701e-07 -2.2002811e-05 
-1.0182385e-08 1.0237021e-06 -1.0995040e-05 
-1.4986976e-07 -1.7520979e-06 -9.7989314e-06 
-4.2391375e-06 -1.5248472e-05 -2.4585283e-05 
9.1526681e-07 -2.6559612e-05 -1.6285595e-06 
1.1401234e-07 -6.8266932e-06 -8.0119953e-06 
-4.4654342e-07 1.7016481e-06 -8.8047382e-06 
-1.2538006e-06 -2.3220093e-06 -1.8972409e-05 
-1.2538762e-06 -2.6133814e-06 -2.3194436e-05 
-2.8271432e-07 -6.9840326e-07 -9.5384430e-06 
1.2007234e-07 7.5247658e-07 -6.8938944e-06 
1.3970130e-06 -5.4477332e-05 -3.0685042e-05 
7.2654632e-07 -6.4834967e-06 -1.0358642e-05 
-2.3363076e-07 -2.2546581e-06 -9.1857091e-06 
-1.5324990e-07 1.4519426e-06 -6.0322668e-06 
-6.9198410e-07 -1.4492939e-05 -1.0470187e-05 
-8.3496445e-07 -7.8406756e-06 -1.1467821e-05 
2.8234535e-06 -1.6530443e-05 -8.6512355e-06 
-9.5225531e-08 3.3870364e-07 -7.1409645e-06 
1.0968860e-08 -7.9928850e-07 -7.5066782e-06 
-1.4988049e-07 1.4333021e-06 -1.1013943e-05 
-4.3570317e-06 -1.0468772e-05 -2.3560528e-05 
-3.6313136e-06 -2.4891107e-05 -2.7480612e-05 
1.0351923e-07 3.9809242e-07 -6.8851837e-06 
2.0297914e-07 -4.1291528e-06 -8.5092315e-06 
-3.5054125e-06 -1.0780227e-05 -2.4190786e-05 
8.4878610e-07 -8.6203281e-06 -7.6228825e-06 
-1.1017795e-06 -6.3827713e-07 -1.9174044e-05 
-1.0902009e-07 -8.7190921e-07 -8.1274902e-06 
-2.6143431e-07 4.1153717e-07 -9.8561904e-06 
-4.0391072e-07 6.2045433e-07 -1.3700712e-05 
-7.0467200e-07 4.2150560e-07 -1.4481490e-05 
5.4112315e-06 -3.6525220e-05 -1.1441553e-05 
-1.7504528e-06 -1.6241084e-06 -1.7513310e-05 
-3.0331219e-06 -6.2153822e-06 -2.6272426e-05 
-4.5563806e-06 -9.8210903e-06 -2.6566900e-05 
-3.3525387e-07 2.0763216e-06 -1.1525838e-05 
1.7121673e-08 -2.5726808e-07 -7.7015238e-06 
-1.0005863e-08 6.8212307e-07 -5.7065272e-06 
-5.8552973e-07 -6.1832427e-05 -2.9088425e-05 
-6.7108108e-06 -2.8775961e-05 -3.0655530e-05 
-3.3102306e-06 -4.8825545e-06 -2.1272581e-05 
TOTAL_DISPLACEMENT 3 377  float
0.0000000e+00 0.0000000e+00 0.0000000e+00 
0.0000000e+00 0.0000000e+00 0.0000000e+00 
0.0000000e+00 0.0000000e+00 0.0000000e+00 
0.0000000e+00 0.0000000e+00 0.0000000e+00 
0.0000000e+00 0.0000000e+00 0.0000000e+00 
0.0000000e+00 0.0000000e+00 0.0000000e+00 
0.0000000e+00 0.0000000e+00 0.0000000e+00 
0.0000000e+00 0.0000000e+00 0.0000000e+00 
0.0000000e+00 0.0000000e+00 0.0000000e+00 
0.0000000e+00 0.0000000e+00 0.0000000e+00 
0.0000000e+00 0.0000000e+00 0.0000000e+00 
0.0000000e+00 0.0000000e+00 0.0000000e+00 
0.0000000e+00 0.0000000e+00 0.0000000e+00 
0.0000000e+00 0.0000000e+00 0.0000000e+00 
0.0000000e+00 0.0000000e+00 0.0000000e+00 
0.0000000e+00 0.0000000e+00 0.0000000e+00 
0.0000000e+00 0.0000000e+00 0.0000000e+00 
0.0000000e+00 0.0000000e+00 0.0000000e+00 
0.0000000e+00 0.0000000e+00 0.0000000e+00 
0.0000000e+00 0.0000000e+00 0.0000000e+00 
0.0000000e+00 0.0000000e+00 0.0000000e+00 
0.0000000e+00 0.0000000e+00 0.0000000e+00 
0.0000000e+00 0.0000000e+00 0.0000000e+00 
0.0000000e+00 0.0000000e+00 0.0000000e+00 
0.0000000e+00 0.0000000e+00 0.0000000e+00 
0.0000000e+00 0.0000000e+00 0.0000000e+00 
0.0000000e+00 0.0000000e+00 0.0000000e+00 
0.0000000e+00 0.0000000e+00 0.0000000e+00 
0.0000000e+00 0.0000000e+00 0.0000000e+00 
0.0000000e+00 0.0000000e+00 0.0000000e+00 
0.0000000e+00 0.0000000e+00 0.0000000e+00 
0.0000000e+00 0.0000000e+00 0.0000000e+00 
0.0000000e+00 0.0000000e+00 0.0000000e+00 
0.0000000e+00 0.0000000e+00 0.0000000e+00 
0.0000000e+00 0.0000000e+00 0.0000000e+00 
0.0000000e+00 0.0000000e+00 0.0000000e+00 
0.0000000e+00 0.0000000e+00 0.0000000e+00 
0.0000000e+00 0.0000000e+00 0.0000000e+00 
0.0000000e+00 0.0000000e+00 0.0000000e+00 
0.0000000e+00 0.0000000e+00 0.0000000e+00 
0.0000000e+00 0.0000000e+00 0.0000000e+00 
0.0000000e+00 0.0000000e+00 0.0000000e+00 
0.0000000e+00 0.0000000e+00 0.0000000e+00 
0.0000000e+00 0.0000000e+00 0.0000000e+00 
0.0000000e+00 0.0000000e+00 0.0000000e+00 
0.0000000e+00 0.0000000e+00 0.0000000e+00 
0.0000000e+00 0.0000000e+00 0.0000000e+00 
0.0000000e+00 0.0000000e+00 0.0000000e+00 
0.0000000e+00 0.0000000e+00 0.0000000e+00 
0.0000000e+00 0.0000000e+00 0.0000000e+00 
0.0000000e+00 0.0000000e+00 0.0000000e+00 
0.0000000e+00 0.0000000e+00 0.0000000e+00 
0.0000000e+00 0.0000000e+00 0.0000000e+00 
0.0000000e+00 0.0000000e+00 0.0000000e+00 
0.0000000e+00 0.0000000e+00 0.0000000e+00 
0.0000000e+00 0.0000000e+00 0.0000000e+00 
0.0000000e+00 0.0000000e+00 0.0000000e+00 
0.0000000e+00 0.0000000e+00 0.0000000e+00 
0.0000000e+00 0.0000000e+00 0.0000000e+00 
0.0000000e+00 0.0000000e+00 0.0000000e+00 
0.0000000e+00 0.0000000e+00 0.0000000e+00 
0.0000000e+00 0.0000000e+00 0.0000000e+00 
0.0000000e+00 0.0000000e+00 0.0000000e+00 
0.0000000e+00 0.0000000e+00 0.0000000e+00 
0.0000000e+00 0.0000000e+00 0.0000000e+00 
0.0000000e+00 0.0000000e+00 0.0000000e+00 
0.0000000e+00 0.0000000e+00 0.0000000e+00 
0.0000000e+00 0.0000000e+00 0.0000000e+00 
0.0000000e+00 0.0000000e+00 0.0000000e+00 
0.0000000e+00 0.0000000e+00 0.0000000e+00 