# vtk DataFile Version 4.0
vtk output
ASCII
DATASET UNSTRUCTURED_GRID
POINTS 395 float
0.0000000e+00 0.0000000e+00 0.0000000e+00 
5.0000000e+00 0.0000000e+00 0.0000000e+00 
5.0000000e+00 3.0000000e+00 0.0000000e+00 
0.0000000e+00 3.0000000e+00 0.0000000e+00 
0.0000000e+00 0.0000000e+00 1.0000000e+01 
5.0000000e+00 0.0000000e+00 1.0000000e+01 
5.0000000e+00 3.0000000e+00 1.0000000e+01 
0.0000000e+00 3.0000000e+00 1.0000000e+01 
1.0000000e+00 3.0000000e+00 5.0000000e-01 
1.0000000e+00 3.0000000e+00 1.0000000e+00 
1.0000000e+00 3.0000000e+00 1.5000000e+00 
1.0000000e+00 3.0000000e+00 2.0000000e+00 
1.0000000e+00 3.0000000e+00 2.5000000e+00 
1.0000000e+00 3.0000000e+00 3.0000000e+00 
1.0000000e+00 3.0000000e+00 3.5000000e+00 
1.0000000e+00 3.0000000e+00 4.0000000e+00 
1.0000000e+00 3.0000000e+00 4.5000000e+00 
1.0000000e+00 3.0000000e+00 5.0000000e+00 
1.0000000e+00 3.0000000e+00 5.5000000e+00 
1.0000000e+00 3.0000000e+00 6.0000000e+00 
1.0000000e+00 3.0000000e+00 6.5000000e+00 
1.0000000e+00 3.0000000e+00 7.0000000e+00 
1.0000000e+00 3.0000000e+00 7.5000000e+00 
1.0000000e+00 3.0000000e+00 8.0000000e+00 
1.0000000e+00 3.0000000e+00 8.5000000e+00 
1.0000000e+00 3.0000000e+00 9.0000000e+00 
1.0000000e+00 3.0000000e+00 9.5000000e+00 
1.0000000e+00 3.0000000e+00 0.0000000e+00 
1.0000000e+00 3.0000000e+00 1.0000000e+01 
1.0000000e+00 3.0250001e+00 0.0000000e+00 
1.0000000e+00 3.0250001e+00 5.0000000e-01 
1.0000000e+00 3.0250001e+00 1.0000000e+00 
1.0000000e+00 3.0250001e+00 1.5000000e+00 
1.0000000e+00 3.0250001e+00 2.0000000e+00 
1.0000000e+00 3.0250001e+00 2.5000000e+00 
1.0000000e+00 3.0250001e+00 3.0000000e+00 
1.0000000e+00 3.0250001e+00 3.5000000e+00 
1.0000000e+00 3.0250001e+00 4.0000000e+00 
1.0000000e+00 3.0250001e+00 4.5000000e+00 
1.0000000e+00 3.0250001e+00 5.0000000e+00 
1.0000000e+00 3.0250001e+00 5.5000000e+00 
1.0000000e+00 3.0250001e+00 6.0000000e+00 
1.0000000e+00 3.0250001e+00 6.5000000e+00 
1.0000000e+00 3.0250001e+00 7.0000000e+00 
1.0000000e+00 3.0250001e+00 7.5000000e+00 
1.0000000e+00 3.0250001e+00 8.0000000e+00 
1.0000000e+00 3.0250001e+00 8.5000000e+00 
1.0000000e+00 3.0250001e+00 9.0000000e+00 
1.0000000e+00 3.0250001e+00 9.5000000e+00 
1.0000000e+00 3.0250001e+00 1.0000000e+01 
1.0000000e+00 0.0000000e+00 0.0000000e+00 
2.0000000e+00 0.0000000e+00 0.0000000e+00 
3.0000000e+00 0.0000000e+00 0.0000000e+00 
4.0000000e+00 0.0000000e+00 0.0000000e+00 
5.0000000e+00 1.0000000e+00 0.0000000e+00 
5.0000000e+00 2.0000000e+00 0.0000000e+00 
0.0000000e+00 2.0000000e+00 0.0000000e+00 
0.0000000e+00 1.0000000e+00 0.0000000e+00 
0.0000000e+00 0.0000000e+00 1.0000000e+00 
0.0000000e+00 0.0000000e+00 2.0000000e+00 
0.0000000e+00 0.0000000e+00 3.0000000e+00 
0.0000000e+00 0.0000000e+00 4.0000000e+00 
0.0000000e+00 0.0000000e+00 5.0000000e+00 
0.0000000e+00 0.0000000e+00 6.0000000e+00 
0.0000000e+00 0.0000000e+00 7.0000000e+00 
0.0000000e+00 0.0000000e+00 8.0000000e+00 
0.0000000e+00 0.0000000e+00 9.0000000e+00 
5.0000000e+00 0.0000000e+00 1.0000000e+00 
5.0000000e+00 0.0000000e+00 2.0000000e+00 
5.0000000e+00 0.0000000e+00 3.0000000e+00 
5.0000000e+00 0.0000000e+00 4.0000000e+00 
5.0000000e+00 0.0000000e+00 5.0000000e+00 
5.0000000e+00 0.0000000e+00 6.0000000e+00 
5.0000000e+00 0.0000000e+00 7.0000000e+00 
5.0000000e+00 0.0000000e+00 8.0000000e+00 
5.0000000e+00 0.0000000e+00 9.0000000e+00 
1.0000000e+00 0.0000000e+00 1.0000000e+01 
2.0000000e+00 0.0000000e+00 1.0000000e+01 
3.0000000e+00 0.0000000e+00 1.0000000e+01 
4.0000000e+00 0.0000000e+00 1.0000000e+01 
5.0000000e+00 3.0000000e+00 1.0000000e+00 
5.0000000e+00 3.0000000e+00 2.0000000e+00 
5.0000000e+00 3.0000000e+00 3.0000000e+00 
5.0000000e+00 3.0000000e+00 4.0000000e+00 
5.0000000e+00 3.0000000e+00 5.0000000e+00 
5.0000000e+00 3.0000000e+00 6.0000000e+00 
5.0000000e+00 3.0000000e+00 7.0000000e+00 
5.0000000e+00 3.0000000e+00 8.0000000e+00 
5.0000000e+00 3.0000000e+00 9.0000000e+00 
5.0000000e+00 1.0000000e+00 1.0000000e+01 
5.0000000e+00 2.0000000e+00 1.0000000e+01 
0.0000000e+00 3.0000000e+00 1.0000000e+00 
0.0000000e+00 3.0000000e+00 2.0000000e+00 
0.0000000e+00 3.0000000e+00 3.0000000e+00 
0.0000000e+00 3.0000000e+00 4.0000000e+00 
0.0000000e+00 3.0000000e+00 5.0000000e+00 
0.0000000e+00 3.0000000e+00 6.0000000e+00 
0.0000000e+00 3.0000000e+00 7.0000000e+00 
0.0000000e+00 3.0000000e+00 8.0000000e+00 
0.0000000e+00 3.0000000e+00 9.0000000e+00 
0.0000000e+00 2.0000000e+00 1.0000000e+01 
0.0000000e+00 1.0000000e+00 1.0000000e+01 
4.0000000e+00 3.0000000e+00 0.0000000e+00 
3.0000000e+00 3.0000000e+00 0.0000000e+00 
2.0000000e+00 3.0000000e+00 0.0000000e+00 
4.0000000e+00 3.0000000e+00 1.0000000e+01 
3.0000000e+00 3.0000000e+00 1.0000000e+01 
2.0000000e+00 3.0000000e+00 1.0000000e+01 
1.5046000e+00 2.2345026e+00 0.0000000e+00 
4.0618000e+00 1.5000000e+00 0.0000000e+00 
2.5000000e+00 8.6602539e-01 0.0000000e+00 
2.4957771e+00 2.1843948e+00 0.0000000e+00 
1.5046000e+00 7.6549745e-01 0.0000000e+00 
3.4700506e+00 2.2420573e+00 0.0000000e+00 
3.4707544e+00 7.6634604e-01 0.0000000e+00 
8.6322361e-01 1.5000000e+00 0.0000000e+00 
2.0000000e+00 1.5000000e+00 0.0000000e+00 
2.9960666e+00 1.5025520e+00 0.0000000e+00 
4.2679491e+00 7.3205084e-01 0.0000000e+00 
4.2679491e+00 2.2679491e+00 0.0000000e+00 
7.2695929e-01 2.2730408e+00 0.0000000e+00 
7.2695929e-01 7.2695929e-01 0.0000000e+00 
4.1822505e+00 0.0000000e+00 2.5515697e+00 
4.2017918e+00 0.0000000e+00 4.4725966e+00 
4.1114569e+00 0.0000000e+00 6.5092020e+00 
8.6602539e-01 0.0000000e+00 3.5000000e+00 
8.4778279e-01 0.0000000e+00 5.4684029e+00 
8.9629614e-01 0.0000000e+00 7.5867257e+00 
2.5566745e+00 0.0000000e+00 8.1853306e-01 
2.4918270e+00 0.0000000e+00 9.1386929e+00 
8.4677207e-01 0.0000000e+00 1.5042374e+00 
4.0943027e+00 0.0000000e+00 8.4081745e+00 
8.6281651e-01 0.0000000e+00 2.5007062e+00 
1.7315160e+00 0.0000000e+00 3.0001178e+00 
1.7319617e+00 0.0000000e+00 4.0000196e+00 
2.5980761e+00 0.0000000e+00 3.5000000e+00 
2.5536871e+00 0.0000000e+00 4.4963923e+00 
2.5928419e+00 0.0000000e+00 2.4239938e+00 
1.5037409e+00 0.0000000e+00 9.1535149e+00 
1.8433737e+00 0.0000000e+00 8.1858873e+00 
3.0000000e+00 0.0000000e+00 8.2679491e+00 
2.5000000e+00 0.0000000e+00 7.4019237e+00 
3.5042722e+00 0.0000000e+00 7.4271150e+00 
3.0310018e+00 0.0000000e+00 6.5282087e+00 
2.0373929e+00 0.0000000e+00 6.5307913e+00 
3.4767809e+00 0.0000000e+00 5.8031492e+00 
2.5452602e+00 0.0000000e+00 5.5720768e+00 
1.6456656e+00 0.0000000e+00 1.9697139e+00 
8.6297011e-01 0.0000000e+00 4.4947371e+00 
1.0111579e+00 0.0000000e+00 6.5282545e+00 
3.4994321e+00 0.0000000e+00 8.4691072e-01 
4.1860156e+00 0.0000000e+00 3.5040276e+00 
1.7320508e+00 0.0000000e+00 5.0000000e+00 
4.0544066e+00 0.0000000e+00 1.5781221e+00 
1.5817389e+00 0.0000000e+00 9.3943578e-01 
8.3166349e-01 0.0000000e+00 8.5090933e+00 
3.4686174e+00 0.0000000e+00 9.1752682e+00 
3.0709300e+00 0.0000000e+00 1.5799091e+00 
3.3927374e+00 0.0000000e+00 3.0399952e+00 
3.3826034e+00 0.0000000e+00 3.9747651e+00 
4.3420062e+00 0.0000000e+00 7.4688983e+00 
3.4023225e+00 0.0000000e+00 4.9314723e+00 
1.6740381e+00 0.0000000e+00 7.3014426e+00 
4.2715640e+00 0.0000000e+00 5.4758859e+00 
1.6225953e+00 0.0000000e+00 5.8104177e+00 
4.2679491e+00 0.0000000e+00 9.2679491e+00 
7.3205084e-01 0.0000000e+00 7.3205084e-01 
4.2679491e+00 0.0000000e+00 7.3205084e-01 
7.3205084e-01 0.0000000e+00 9.2679491e+00 
3.4586334e+00 0.0000000e+00 2.2347178e+00 
2.2895701e+00 0.0000000e+00 1.5463171e+00 
5.0000000e+00 2.2345026e+00 1.5046000e+00 
5.0000000e+00 1.5000000e+00 9.0618000e+00 
5.0000000e+00 2.1339746e+00 3.5000000e+00 
5.0000000e+00 2.1339746e+00 5.5000000e+00 
5.0000000e+00 2.1339746e+00 7.5000000e+00 
5.0000000e+00 8.6602539e-01 2.5000000e+00 
5.0000000e+00 8.6602539e-01 4.5000000e+00 
5.0000000e+00 8.6602539e-01 6.5000000e+00 
5.0000000e+00 8.6602539e-01 3.5000000e+00 
5.0000000e+00 8.6602539e-01 5.5000000e+00 
5.0000000e+00 2.1584709e+00 2.5001996e+00 
5.0000000e+00 2.1339746e+00 4.5000000e+00 
5.0000000e+00 2.1339746e+00 6.5000000e+00 
5.0000000e+00 8.6602539e-01 7.5000000e+00 
5.0000000e+00 7.6549745e-01 1.5046000e+00 
5.0000000e+00 7.6634604e-01 8.4707546e+00 
5.0000000e+00 2.2336540e+00 8.4707546e+00 
5.0000000e+00 1.5000000e+00 8.6322361e-01 
5.0000000e+00 1.5000000e+00 5.0000000e+00 
5.0000000e+00 1.5000000e+00 7.0000000e+00 
5.0000000e+00 1.5000000e+00 2.0000000e+00 
5.0000000e+00 1.5000000e+00 6.0000000e+00 
5.0000000e+00 1.5000000e+00 4.0000000e+00 
5.0000000e+00 1.5000000e+00 3.0000000e+00 
5.0000000e+00 1.5000000e+00 7.9977231e+00 
5.0000000e+00 2.2679491e+00 9.2679491e+00 
5.0000000e+00 7.3205084e-01 9.2679491e+00 
5.0000000e+00 2.2730408e+00 7.2695929e-01 
5.0000000e+00 7.2695929e-01 7.2695929e-01 
0.0000000e+00 7.6549745e-01 1.5046000e+00 
0.0000000e+00 1.5000000e+00 9.0618000e+00 
0.0000000e+00 7.6689392e-01 3.5202229e+00 
0.0000000e+00 8.4174728e-01 6.5073700e+00 
0.0000000e+00 2.1339746e+00 2.5000000e+00 
0.0000000e+00 2.1503205e+00 4.5283122e+00 
0.0000000e+00 2.1339746e+00 7.5000000e+00 
0.0000000e+00 7.5539857e-01 2.5041373e+00 
0.0000000e+00 2.1917200e+00 3.5330307e+00 
0.0000000e+00 2.1758037e+00 5.5047188e+00 
0.0000000e+00 1.4323456e+00 5.0621295e+00 
0.0000000e+00 2.1560361e+00 6.5002046e+00 
0.0000000e+00 8.3464229e-01 7.4971519e+00 
0.0000000e+00 2.2345026e+00 1.5046000e+00 
0.0000000e+00 2.2336540e+00 8.4707546e+00 
0.0000000e+00 7.6111549e-01 8.4702797e+00 
0.0000000e+00 1.5000000e+00 8.6322361e-01 
0.0000000e+00 1.4454463e+00 4.0239491e+00 
0.0000000e+00 7.3467791e-01 5.5115833e+00 
0.0000000e+00 1.5000000e+00 2.0000000e+00 
0.0000000e+00 1.4948297e+00 6.9999175e+00 
0.0000000e+00 1.4754088e+00 3.0096834e+00 
0.0000000e+00 1.5025774e+00 6.0000000e+00 
0.0000000e+00 7.2989392e-01 4.5196476e+00 
0.0000000e+00 1.4981872e+00 7.9961324e+00 
0.0000000e+00 7.3205084e-01 9.2679491e+00 
0.0000000e+00 2.2679491e+00 9.2679491e+00 
0.0000000e+00 2.2730408e+00 7.2695929e-01 
0.0000000e+00 7.2695929e-01 7.2695929e-01 
1.5046000e+00 7.6549745e-01 1.0000000e+01 
[...]
POINT_DATA 395
FIELD FieldData 2
DISPLACEMENT 3 395  float
0.0000000e+00 0.0000000e+00 0.0000000e+00 
0.0000000e+00 0.0000000e+00 0.0000000e+00 
0.0000000e+00 3.4592084e-08 0.0000000e+00 
0.0000000e+00 3.6686835e-08 0.0000000e+00 
0.0000000e+00 0.0000000e+00 0.0000000e+00 
0.0000000e+00 0.0000000e+00 0.0000000e+00 
0.0000000e+00 -7.1128038e-06 0.0000000e+00 
0.0000000e+00 -1.6491502e-04 0.0000000e+00 
-1.7304919e-09 4.4006093e-08 -1.2812815e-09 
-4.4336188e-09 5.5710942e-08 -2.9365135e-09 
-7.7924893e-09 7.2711835e-08 1.1826666e-09 
-1.5548075e-08 9.6312299e-08 1.4150576e-08 
-2.1956062e-08 1.2449343e-07 4.6181967e-08 
-5.3068572e-08 1.4896052e-07 1.4601424e-07 
-7.5787987e-08 1.6325495e-07 2.9343263e-07 
-1.0170844e-07 1.4766786e-07 5.6875024e-07 
-8.5644160e-08 7.3382715e-08 1.0071130e-06 
-1.7353375e-07 -1.2614126e-07 1.6747782e-06 
-3.6623385e-07 -4.9065420e-07 2.3804143e-06 
-7.5087110e-07 -1.0414713e-06 3.7379839e-06 
-2.0074394e-06 -2.1461046e-06 6.9712546e-06 
-2.8586546e-06 -5.3158874e-06 1.1155090e-05 
-5.7773350e-06 -1.4905178e-05 1.4344696e-05 
-8.5851689e-06 -4.0779887e-05 2.3478684e-05 
-7.3790256e-06 -1.0182210e-04 1.6350292e-05 
-1.9427931e-05 -2.2216162e-04 3.2296652e-05 
-1.4966520e-05 -4.0697065e-04 4.7902490e-06 
0.0000000e+00 3.5638887e-08 0.0000000e+00 
0.0000000e+00 -6.1488326e-04 0.0000000e+00 
0.0000000e+00 3.5839886e-08 0.0000000e+00 
0.0000000e+00 4.4212253e-08 0.0000000e+00 
0.0000000e+00 5.5715248e-08 0.0000000e+00 
0.0000000e+00 7.2814260e-08 0.0000000e+00 
0.0000000e+00 9.6577644e-08 0.0000000e+00 
0.0000000e+00 1.2458300e-07 0.0000000e+00 
0.0000000e+00 1.4956690e-07 0.0000000e+00 
0.0000000e+00 1.6357119e-07 0.0000000e+00 
0.0000000e+00 1.4883200e-07 0.0000000e+00 
0.0000000e+00 7.0576093e-08 0.0000000e+00 
0.0000000e+00 -1.3160033e-07 0.0000000e+00 
0.0000000e+00 -4.8590516e-07 0.0000000e+00 
0.0000000e+00 -1.0141921e-06 0.0000000e+00 
0.0000000e+00 -2.0677367e-06 0.0000000e+00 
0.0000000e+00 -5.1336215e-06 0.0000000e+00 
0.0000000e+00 -1.4537933e-05 0.0000000e+00 
0.0000000e+00 -4.0376770e-05 0.0000000e+00 
0.0000000e+00 -1.0190313e-04 0.0000000e+00 
0.0000000e+00 -2.2389635e-04 0.0000000e+00 
0.0000000e+00 -4.1023165e-04 0.0000000e+00 
0.0000000e+00 -6.2419579e-04 0.0000000e+00 
0.0000000e+00 0.0000000e+00 0.0000000e+00 
0.0000000e+00 0.0000000e+00 0.0000000e+00 
0.0000000e+00 0.0000000e+00 0.0000000e+00 
0.0000000e+00 0.0000000e+00 0.0000000e+00 
0.0000000e+00 1.8810701e-08 0.0000000e+00 
0.0000000e+00 3.1587991e-08 0.0000000e+00 
0.0000000e+00 3.1740282e-08 0.0000000e+00 
0.0000000e+00 1.8273198e-08 0.0000000e+00 
0.0000000e+00 0.0000000e+00 0.0000000e+00 
0.0000000e+00 0.0000000e+00 0.0000000e+00 
0.0000000e+00 0.0000000e+00 0.0000000e+00 
0.0000000e+00 0.0000000e+00 0.0000000e+00 
0.0000000e+00 0.0000000e+00 0.0000000e+00 
0.0000000e+00 0.0000000e+00 0.0000000e+00 
0.0000000e+00 0.0000000e+00 0.0000000e+00 
0.0000000e+00 0.0000000e+00 0.0000000e+00 
0.0000000e+00 0.0000000e+00 0.0000000e+00 
0.0000000e+00 0.0000000e+00 0.0000000e+00 
0.0000000e+00 0.0000000e+00 0.0000000e+00 
0.0000000e+00 0.0000000e+00 0.0000000e+00 
0.0000000e+00 0.0000000e+00 0.0000000e+00 
0.0000000e+00 0.0000000e+00 0.0000000e+00 
0.0000000e+00 0.0000000e+00 0.0000000e+00 
0.0000000e+00 0.0000000e+00 0.0000000e+00 
0.0000000e+00 0.0000000e+00 0.0000000e+00 
0.0000000e+00 0.0000000e+00 0.0000000e+00 
0.0000000e+00 0.0000000e+00 0.0000000e+00 
0.0000000e+00 0.0000000e+00 0.0000000e+00 
0.0000000e+00 0.0000000e+00 0.0000000e+00 
0.0000000e+00 0.0000000e+00 0.0000000e+00 
0.0000000e+00 5.1408797e-08 0.0000000e+00 
0.0000000e+00 1.1145107e-07 0.0000000e+00 
0.0000000e+00 2.0712393e-07 0.0000000e+00 
0.0000000e+00 2.4486732e-07 0.0000000e+00 
0.0000000e+00 1.8091681e-07 0.0000000e+00 
0.0000000e+00 -4.4539284e-08 0.0000000e+00 
0.0000000e+00 -9.0582552e-07 0.0000000e+00 
0.0000000e+00 -2.3221921e-06 0.0000000e+00 
0.0000000e+00 -5.4883126e-06 0.0000000e+00 
0.0000000e+00 -3.9392598e-06 0.0000000e+00 
0.0000000e+00 -6.1767523e-06 0.0000000e+00 
0.0000000e+00 4.6174943e-08 0.0000000e+00 
0.0000000e+00 7.6684380e-08 0.0000000e+00 
0.0000000e+00 1.0852232e-07 0.0000000e+00 
0.0000000e+00 5.1453451e-08 0.0000000e+00 
0.0000000e+00 -5.0661470e-07 0.0000000e+00 
0.0000000e+00 -3.1628592e-06 0.0000000e+00 
0.0000000e+00 -1.4205029e-05 0.0000000e+00 
0.0000000e+00 -4.7201571e-05 0.0000000e+00 
0.0000000e+00 -1.2404172e-04 0.0000000e+00 
0.0000000e+00 -1.6034878e-04 0.0000000e+00 
0.0000000e+00 -7.3277697e-05 0.0000000e+00 
0.0000000e+00 3.7579678e-08 0.0000000e+00 
0.0000000e+00 4.0460378e-08 0.0000000e+00 
0.0000000e+00 4.2563691e-08 0.0000000e+00 
0.0000000e+00 -1.2275889e-05 0.0000000e+00 
0.0000000e+00 -3.4947978e-05 0.0000000e+00 
0.0000000e+00 -8.4057043e-05 0.0000000e+00 
0.0000000e+00 3.6531528e-08 0.0000000e+00 
0.0000000e+00 2.6046223e-08 0.0000000e+00 
0.0000000e+00 1.9382796e-08 0.0000000e+00 
0.0000000e+00 3.8420485e-08 0.0000000e+00 
0.0000000e+00 1.5409078e-08 0.0000000e+00 
0.0000000e+00 3.4116614e-08 0.0000000e+00 
0.0000000e+00 1.4562389e-08 0.0000000e+00 
0.0000000e+00 2.7752620e-08 0.0000000e+00 
0.0000000e+00 2.9676904e-08 0.0000000e+00 
0.0000000e+00 2.6460368e-08 0.0000000e+00 
0.0000000e+00 1.2784873e-08 0.0000000e+00 
0.0000000e+00 3.2367570e-08 0.0000000e+00 
0.0000000e+00 3.5074009e-08 0.0000000e+00 
0.0000000e+00 1.3918470e-08 0.0000000e+00 
0.0000000e+00 0.0000000e+00 0.0000000e+00 
0.0000000e+00 0.0000000e+00 0.0000000e+00 
0.0000000e+00 0.0000000e+00 0.0000000e+00 
0.0000000e+00 0.0000000e+00 0.0000000e+00 
0.0000000e+00 0.0000000e+00 0.0000000e+00 
0.0000000e+00 0.0000000e+00 0.0000000e+00 
0.0000000e+00 0.0000000e+00 0.0000000e+00 
0.0000000e+00 0.0000000e+00 0.0000000e+00 
0.0000000e+00 0.0000000e+00 0.0000000e+00 
0.0000000e+00 0.0000000e+00 0.0000000e+00 
0.0000000e+00 0.0000000e+00 0.0000000e+00 
0.0000000e+00 0.0000000e+00 0.0000000e+00 
0.0000000e+00 0.0000000e+00 0.0000000e+00 
0.0000000e+00 0.0000000e+00 0.0000000e+00 
0.0000000e+00 0.0000000e+00 0.0000000e+00 
0.0000000e+00 0.0000000e+00 0.0000000e+00 
0.0000000e+00 0.0000000e+00 0.0000000e+00 
0.0000000e+00 0.0000000e+00 0.0000000e+00 
0.0000000e+00 0.0000000e+00 0.0000000e+00 
0.0000000e+00 0.0000000e+00 0.0000000e+00 
0.0000000e+00 0.0000000e+00 0.0000000e+00 
0.0000000e+00 0.0000000e+00 0.0000000e+00 
0.0000000e+00 0.0000000e+00 0.0000000e+00 
0.0000000e+00 0.0000000e+00 0.0000000e+00 
0.0000000e+00 0.0000000e+00 0.0000000e+00 
0.0000000e+00 0.0000000e+00 0.0000000e+00 
0.0000000e+00 0.0000000e+00 0.0000000e+00 
0.0000000e+00 0.0000000e+00 0.0000000e+00 
0.0000000e+00 0.0000000e+00 0.0000000e+00 
0.0000000e+00 0.0000000e+00 0.0000000e+00 
0.0000000e+00 0.0000000e+00 0.0000000e+00 
0.0000000e+00 0.0000000e+00 0.0000000e+00 
0.0000000e+00 0.0000000e+00 0.0000000e+00 
0.0000000e+00 0.0000000e+00 0.0000000e+00 
0.0000000e+00 0.0000000e+00 0.0000000e+00 
0.0000000e+00 0.0000000e+00 0.0000000e+00 
0.0000000e+00 0.0000000e+00 0.0000000e+00 
0.0000000e+00 0.0000000e+00 0.0000000e+00 
0.0000000e+00 0.0000000e+00 0.0000000e+00 
0.0000000e+00 0.0000000e+00 0.0000000e+00 
0.0000000e+00 0.0000000e+00 0.0000000e+00 
0.0000000e+00 0.0000000e+00 0.0000000e+00 
0.0000000e+00 0.0000000e+00 0.0000000e+00 
0.0000000e+00 0.0000000e+00 0.0000000e+00 
0.0000000e+00 0.0000000e+00 0.0000000e+00 
0.0000000e+00 0.0000000e+00 0.0000000e+00 
0.0000000e+00 0.0000000e+00 0.0000000e+00 
0.0000000e+00 0.0000000e+00 0.0000000e+00 
0.0000000e+00 0.0000000e+00 0.0000000e+00 
0.0000000e+00 7.1398539e-08 0.0000000e+00 
0.0000000e+00 -3.4529960e-06 0.0000000e+00 
0.0000000e+00 2.3600940e-07 0.0000000e+00 
0.0000000e+00 2.6295504e-07 0.0000000e+00 
0.0000000e+00 -1.1855950e-06 0.0000000e+00 
0.0000000e+00 5.9543524e-08 0.0000000e+00 
0.0000000e+00 9.3897697e-08 0.0000000e+00 
0.0000000e+00 -4.1305066e-07 0.0000000e+00 
0.0000000e+00 8.6381078e-08 0.0000000e+00 
0.0000000e+00 -3.5334065e-08 0.0000000e+00 
0.0000000e+00 1.3639317e-07 0.0000000e+00 
0.0000000e+00 3.0133288e-07 0.0000000e+00 
0.0000000e+00 -9.7691014e-08 0.0000000e+00 
0.0000000e+00 -1.0996364e-06 0.0000000e+00 
0.0000000e+00 2.9174412e-08 0.0000000e+00 
0.0000000e+00 -2.0141397e-06 0.0000000e+00 
0.0000000e+00 -2.9085240e-06 0.0000000e+00 
0.0000000e+00 3.5286995e-08 0.0000000e+00 
0.0000000e+00 2.0615188e-07 0.0000000e+00 
0.0000000e+00 -7.1774764e-07 0.0000000e+00 
0.0000000e+00 7.9248707e-08 0.0000000e+00 
0.0000000e+00 -7.6827021e-08 0.0000000e+00 
0.0000000e+00 1.8426631e-07 0.0000000e+00 
0.0000000e+00 1.4323189e-07 0.0000000e+00 
0.0000000e+00 -1.7646591e-06 0.0000000e+00 
0.0000000e+00 -4.2303473e-06 0.0000000e+00 
0.0000000e+00 -1.9713061e-06 0.0000000e+00 
0.0000000e+00 4.1753385e-08 0.0000000e+00 
0.0000000e+00 1.7311249e-08 0.0000000e+00 
0.0000000e+00 1.9185176e-08 0.0000000e+00 
0.0000000e+00 -7.9963618e-05 0.0000000e+00 
0.0000000e+00 1.1933081e-08 0.0000000e+00 
0.0000000e+00 -3.0232468e-06 0.0000000e+00 
0.0000000e+00 8.4837424e-08 0.0000000e+00 
0.0000000e+00 -8.0324554e-08 0.0000000e+00 
0.0000000e+00 -2.5523203e-05 0.0000000e+00 
0.0000000e+00 3.0449410e-08 0.0000000e+00 
0.0000000e+00 1.0485637e-07 0.0000000e+00 
0.0000000e+00 -1.4767596e-06 0.0000000e+00 
0.0000000e+00 -6.9705726e-07 0.0000000e+00 
0.0000000e+00 -6.5213235e-06 0.0000000e+00 
0.0000000e+00 -1.2565973e-05 0.0000000e+00 
0.0000000e+00 5.4255082e-08 0.0000000e+00 
0.0000000e+00 -7.3425261e-05 0.0000000e+00 
0.0000000e+00 -2.7882124e-05 0.0000000e+00 
0.0000000e+00 2.8828650e-08 0.0000000e+00 
0.0000000e+00 2.6856020e-08 0.0000000e+00 
0.0000000e+00 -9.6948361e-07 0.0000000e+00 
0.0000000e+00 5.0616272e-08 0.0000000e+00 
0.0000000e+00 -1.1039580e-05 0.0000000e+00 
0.0000000e+00 6.0225410e-08 0.0000000e+00 
0.0000000e+00 -2.8696379e-06 0.0000000e+00 
0.0000000e+00 -1.2130971e-07 0.0000000e+00 
0.0000000e+00 -3.4537254e-05 0.0000000e+00 
0.0000000e+00 -3.9128772e-05 0.0000000e+00 
0.0000000e+00 -1.2508995e-04 0.0000000e+00 
0.0000000e+00 3.7393999e-08 0.0000000e+00 
0.0000000e+00 1.4883311e-08 0.0000000e+00 
0.0000000e+00 -4.0451439e-05 0.0000000e+00 
0.0000000e+00 -8.6267282e-06 0.0000000e+00 
0.0000000e+00 -5.1609099e-05 0.0000000e+00 
0.0000000e+00 -1.6552370e-04 0.0000000e+00 
0.0000000e+00 -2.3503726e-05 0.0000000e+00 
0.0000000e+00 -2.0220357e-05 0.0000000e+00 
0.0000000e+00 -7.9166803e-06 0.0000000e+00 
0.0000000e+00 -1.1987011e-04 0.0000000e+00 
0.0000000e+00 -6.8100220e-05 0.0000000e+00 
0.0000000e+00 -2.3388997e-05 0.0000000e+00 
0.0000000e+00 -4.3439773e-06 0.0000000e+00 
0.0000000e+00 -1.0221785e-05 0.0000000e+00 
0.0000000e+00 -2.4723334e-04 0.0000000e+00 
0.0000000e+00 -5.4994169e-05 0.0000000e+00 
-2.7360318e-06 -5.6349813e-06 8.1555527e-06 
-2.4561437e-08 1.1987228e-07 3.6117576e-08 
-1.4438214e-07 2.1355628e-07 4.1029222e-07 
-2.1415880e-07 -1.8348265e-07 2.2036568e-06 
-1.1421038e-05 -5.4773864e-05 2.1507896e-05 
-1.5141345e-07 3.3253568e-07 3.3621004e-07 
-3.1736533e-06 -2.9798027e-06 3.0701842e-06 
-1.3996232e-08 1.7268577e-07 1.3459836e-08 
-6.8516366e-09 6.8635259e-08 1.4541665e-09 
-1.3220015e-05 -4.4541397e-05 9.4354618e-06 
-4.6774944e-09 5.0080708e-08 -5.6672524e-09 
-1.8142722e-05 -1.9979235e-04 1.5606507e-05 
-6.5413190e-08 2.6060798e-07 1.4882679e-07 
-5.0679255e-08 2.2539925e-07 8.3404117e-08 
-2.2862876e-08 1.5417928e-07 3.5069561e-08 
-4.5732328e-08 1.8108334e-07 8.9181604e-08 
-1.1685945e-07 2.4984655e-07 2.3679682e-07 
-1.5024087e-08 1.0354017e-07 1.3496182e-08 
-8.3497483e-08 1.9384484e-07 1.5803346e-07 
-1.5720691e-07 2.9786480e-07 2.4809916e-07 
-2.3271572e-07 3.2321731e-07 5.4747943e-07 
-2.9446562e-07 3.4710030e-07 7.5418802e-07 
-3.5931185e-07 2.8441596e-07 1.3347590e-06 
-7.2726903e-07 -8.5962391e-08 1.8440087e-06 
-9.3829038e-07 -5.2539576e-07 2.8187312e-06 
-1.7920273e-06 -1.4277192e-06 3.7887248e-06 
-1.0680867e-06 -4.8497401e-07 2.3020630e-06 
-3.1873734e-07 1.9388759e-07 9.4573994e-07 
-1.9941815e-06 -2.4245544e-06 4.0632267e-06 
-2.6391185e-06 -4.4271183e-06 4.9985388e-06 
-1.0070744e-06 -8.4789559e-07 3.8548928e-06 
-3.6103822e-09 5.5823939e-08 9.8982567e-10 
-1.2394871e-07 2.6853994e-07 3.7497657e-07 
-5.8741495e-07 3.4533022e-07 8.9247061e-07 
-6.2021313e-06 -1.6224989e-05 2.4175283e-06 
-9.3367617e-06 -2.1040601e-05 8.4072508e-06 
-1.5166169e-05 -4.3817698e-05 1.5559926e-05 
-7.7278701e-06 -1.2523174e-05 8.6534492e-06 
-3.6720887e-06 -6.1976243e-06 1.9819522e-06 
-3.1312968e-09 8.5376193e-08 -1.3564642e-08 
-3.5916145e-08 1.4452874e-07 4.8199993e-08 
-1.6351477e-08 1.0050263e-07 1.5905462e-08 
-3.4141617e-06 -8.8099268e-06 8.5141173e-06 
-8.1733133e-06 -2.2070584e-05 1.2968881e-05 
-4.9648957e-06 -5.8811142e-06 6.9991752e-06 
-5.2317322e-08 1.6442658e-07 9.2379707e-08 
-1.7066706e-07 1.9395567e-07 6.8010894e-07 
-2.1244789e-07 -2.0690186e-08 1.3011256e-06 
-3.7344953e-06 -1.4375127e-05 1.3506104e-05 
-7.8365701e-08 1.9210168e-07 2.1166431e-07 
-1.3015959e-05 -1.0263355e-04 1.7617916e-05 
-1.1589716e-06 -4.9812098e-07 1.8965777e-06 
-3.1579171e-07 -4.5927382e-09 1.7877826e-06 
-2.4982840e-09 4.7907136e-08 -2.9533038e-09 
-1.4010435e-06 -2.6708290e-06 5.1922789e-06 
-8.5059510e-06 -2.9329700e-05 1.8176486e-05 
-1.4834258e-08 8.4950550e-08 9.6922319e-09 
-6.7961510e-06 -1.0176558e-05 5.7632215e-06 
-1.3692486e-05 -9.7368560e-05 1.8134730e-05 
-1.9735737e-06 -1.6907219e-06 3.6955641e-06 
-3.6553854e-06 -9.1786387e-06 1.7265554e-06 
-8.7264604e-09 8.8700091e-08 1.1724395e-08 
-1.7070385e-09 4.7174535e-08 -9.3165973e-09 
-7.0266224e-09 6.6541332e-08 1.5441902e-10 
-7.1490035e-07 -7.7903343e-07 3.2874618e-06 
-5.6698667e-07 9.4756160e-08 1.0941793e-06 
-1.8904854e-07 2.5662084e-07 5.1992674e-07 
-1.2686202e-07 2.3318115e-07 3.2200617e-07 
-2.0869929e-06 -2.9337336e-06 6.9594830e-06 
-2.5832123e-09 5.1227104e-08 -8.9179147e-10 
-1.1431368e-08 9.0352053e-08 1.8836556e-07 
-8.5290424e-09 1.2110345e-07 4.8014812e-08 
-4.8327113e-08 9.3083003e-08 4.1575831e-07 
-7.2264581e-09 4.2574321e-08 6.6630446e-07 
-1.0605878e-08 9.6351677e-08 2.1494960e-08 
-6.7312548e-08 -2.8997226e-07 1.2014970e-06 
-1.0625023e-07 -6.7680531e-07 1.6732802e-06 
-4.1024990e-07 -2.0460425e-06 3.1145617e-06 
-4.8782914e-07 -3.8228791e-06 4.4539838e-06 
-6.9426210e-07 -9.5266050e-06 7.8693738e-06 
-1.3269088e-06 -1.8531315e-05 9.6389122e-06 
-3.3108984e-06 -4.2155076e-05 1.2806581e-05 
-6.3978173e-06 -7.3247356e-05 1.7297762e-05 
-7.4488939e-06 -1.2632758e-04 1.7184555e-05 
-2.7657293e-06 -2.1472135e-04 1.6913380e-05 
-6.5567556e-09 7.1926635e-08 5.8861032e-09 
-4.2348560e-09 5.7834370e-08 -1.0282047e-10 
-2.2165858e-09 4.3530328e-08 -1.8973687e-09 
-1.1201921e-09 1.6637968e-07 -1.7252057e-07 
5.5352228e-07 -1.7043270e-06 -2.4548442e-06 
3.7212685e-06 -1.5288102e-05 -9.2018872e-06 
-1.3439632e-09 6.1014362e-08 -2.0579263e-09 
1.4713760e-07 2.0287814e-07 -4.9867322e-07 
-1.2395134e-07 2.2654046e-07 8.8426120e-09 
1.7052680e-06 -1.7591274e-06 -2.8253460e-06 
1.5606295e-08 1.7341073e-07 -7.6904684e-08 
6.9010575e-06 -8.7778099e-05 -2.0811069e-05 
5.7937463e-08 -6.7485203e-06 -2.4218036e-06 
3.2244867e-09 6.4137758e-08 -3.1636251e-09 
4.7950662e-06 -1.0671391e-05 -4.5615702e-06 
-1.4143323e-08 1.2247754e-07 8.1178113e-09 
2.5473513e-08 -8.5203772e-07 3.6307904e-07 
4.9044075e-08 3.0899614e-07 -2.1319920e-07 
1.3660930e-06 -2.9924713e-05 -6.8089257e-06 
-3.1642287e-08 2.1151340e-07 8.9194231e-08 
-6.1889160e-09 7.5046550e-08 4.1663708e-09 
3.8857715e-07 -6.5982910e-08 -9.3614528e-07 
7.5497111e-09 7.9000550e-08 -6.2999220e-08 
-5.6151336e-08 -2.6572786e-06 -5.3690849e-07 
-6.5655286e-08 2.8685139e-07 3.6048121e-08 
1.5565561e-07 -1.9776079e-08 -2.6684202e-07 
-1.1788234e-08 1.2198890e-07 7.6604127e-09 
1.1259109e-08 8.2802032e-08 -1.7616262e-08 
1.9657202e-06 -2.0698828e-06 -2.2960310e-06 
1.3062777e-06 -4.7203048e-06 -5.6921472e-06 
7.3469419e-06 -3.6121048e-05 -5.1739962e-06 
3.8738438e-07 -2.4186463e-07 -6.1774557e-07 
-3.5766687e-10 5.3186238e-08 4.1561319e-09 
5.1364953e-08 1.4748117e-07 -3.1523501e-07 
1.2378192e-06 -8.8416527e-06 -2.5108657e-06 
2.9741691e-06 -6.0233015e-06 -1.3528354e-06 
4.9176156e-09 2.1324961e-07 -2.9785712e-08 
-6.5247141e-09 5.2808311e-08 -4.6802217e-08 
-3.2118130e-08 8.0554173e-08 -4.9691249e-07 
-4.0450136e-08 2.2474944e-07 5.2127312e-08 
6.9969906e-07 -5.3152365e-07 -2.0726263e-06 
6.0099048e-08 1.1998456e-07 -9.5787691e-08 
1.3712429e-07 -1.0342145e-07 -2.1348318e-07 
-1.4474477e-09 5.1926392e-08 8.3340868e-10 
-2.3238414e-10 -6.9467410e-07 -1.3186592e-06 
-1.5719616e-08 1.5317984e-07 3.1667973e-08 
-1.1453136e-09 4.7138712e-08 2.8161127e-09 
9.2927794e-06 -2.4477911e-05 -1.1771404e-05 
7.2563927e-07 -4.6740543e-06 -6.0167821e-07 
4.2707838e-06 -6.2353106e-06 -6.1358378e-06 
1.5886195e-09 3.3561864e-08 -2.8345626e-10 
-6.5837177e-08 3.2652554e-07 3.4819926e-08 
2.1324102e-09 1.1610513e-07 -2.2478219e-09 
9.1156636e-07 -3.1963955e-05 -3.1768320e-06 
3.1355773e-06 -2.9737364e-05 -1.3762839e-05 
8.8446928e-10 3.1298203e-08 1.6545973e-09 
1.8832585e-06 -2.9168975e-06 -4.5355700e-06 
2.2870262e-07 4.5083294e-08 -6.6659328e-07 
8.0053206e-07 -2.7340946e-06 -8.1893802e-07 
-3.4222674e-07 -2.6573157e-06 1.6810437e-06 
-4.7927688e-07 -1.2424931e-05 -1.0311571e-06 
1.7450398e-09 2.8175435e-08 -1.8251046e-09 
-1.8909581e-06 -1.7419824e-04 -1.9039157e-05 
5.9176805e-06 -1.9208182e-05 -4.9530945e-06 
1.6201811e-06 -1.6657279e-05 -6.9797829e-07 
-1.9494891e-08 3.3819262e-07 -6.1258639e-08 
-1.4052104e-07 2.9036647e-07 3.3364992e-07 
TOTAL_DISPLACEMENT 3 395  float
0.0000000e+00 0.0000000e+00 0.0000000e+00 
0.0000000e+00 0.0000000e+00 0.0000000e+00 
0.0000000e+00 0.0000000e+00 0.0000000e+00 
0.0000000e+00 0.0000000e+00 0.0000000e+00 
0.0000000e+00 0.0000000e+00 0.0000000e+00 
0.0000000e+00 0.0000000e+00 0.0000000e+00 
0.0000000e+00 0.0000000e+00 0.0000000e+00 
0.0000000e+00 0.0000000e+00 0.0000000e+00 
0.0000000e+00 0.0000000e+00 0.0000000e+00 
0.0000000e+00 0.0000000e+00 0.0000000e+00 
0.0000000e+00 0.0000000e+00 0.0000000e+00 
0.0000000e+00 0.0000000e+00 0.0000000e+00 
0.0000000e+00 0.0000000e+00 0.0000000e+00 
0.0000000e+00 0.0000000e+00 0.0000000e+00 
0.0000000e+00 0.0000000e+00 0.0000000e+00 
0.0000000e+00 0.0000000e+00 0.0000000e+00 
0.0000000e+00 0.0000000e+00 0.0000000e+00 
0.0000000e+00 0.0000000e+00 0.0000000e+00 
0.0000000e+00 0.0000000e+00 0.0000000e+00 
0.0000000e+00 0.0000000e+00 0.0000000e+00 
0.0000000e+00 0.0000000e+00 0.0000000e+00 
0.0000000e+00 0.0000000e+00 0.0000000e+00 
0.0000000e+00 0.0000000e+00 0.0000000e+00 
0.0000000e+00 0.0000000e+00 0.0000000e+00 
0.0000000e+00 0.0000000e+00 0.0000000e+00 
0.0000000e+00 0.0000000e+00 0.0000000e+00 
0.0000000e+00 0.0000000e+00 0.0000000e+00 
0.0000000e+00 0.0000000e+00 0.0000000e+00 
0.0000000e+00 0.0000000e+00 0.0000000e+00 
0.0000000e+00 0.0000000e+00 0.0000000e+00 
0.0000000e+00 0.0000000e+00 0.0000000e+00 
0.0000000e+00 0.0000000e+00 0.0000000e+00 
0.0000000e+00 0.0000000e+00 0.0000000e+00 
0.0000000e+00 0.0000000e+00 0.0000000e+00 
0.0000000e+00 0.0000000e+00 0.0000000e+00 
0.0000000e+00 0.0000000e+00 0.0000000e+00 
0.0000000e+00 0.0000000e+00 0.0000000e+00 
0.0000000e+00 0.0000000e+00 0.0000000e+00 
0.0000000e+00 0.0000000e+00 0.0000000e+00 
0.0000000e+00 0.0000000e+00 0.0000000e+00 
0.0000000e+00 0.0000000e+00 0.0000000e+00 
0.0000000e+00 0.0000000e+00 0.0000000e+00 
0.0000000e+00 0.0000000e+00 0.0000000e+00 
0.0000000e+00 0.0000000e+00 0.0000000e+00 
0.0000000e+00 0.0000000e+00 0.0000000e+00 
0.0000000e+00 0.0000000e+00 0.0000000e+00 
0.0000000e+00 0.0000000e+00 0.0000000e+00 
0.0000000e+00 0.0000000e+00 0.0000000e+00 
0.0000000e+00 0.0000000e+00 0.0000000e+00 
0.0000000e+00 0.0000000e+00 0.0000000e+00 
0.0000000e+00 0.0000000e+00 0.0000000e+00 
0.0000000e+00 0.0000000e+00 0.0000000e+00 
0.0000000e+00 0.0000000e+00 0.0000000e+00 
0.0000000e+00 0.0000000e+00 0.0000000e+00 
0.0000000e+00 0.0000000e+00 0.0000000e+00 
0.0000000e+00 0.0000000e+00 0.0000000e+00 
0.0000000e+00 0.0000000e+00 0.0000000e+00 
0.0000000e+00 0.0000000e+00 0.0000000e+00 
0.0000000e+00 0.0000000e+00 0.0000000e+00 