# vtk DataFile Version 4.0
vtk output
ASCII
DATASET UNSTRUCTURED_GRID
POINTS 377 float
0.0000000e+00 0.0000000e+00 0.0000000e+00 
5.0000000e+00 0.0000000e+00 0.0000000e+00 
5.0000000e+00 3.0000000e+00 0.0000000e+00 
0.0000000e+00 3.0000000e+00 0.0000000e+00 
0.0000000e+00 0.0000000e+00 1.0000000e+01 
5.0000000e+00 0.0000000e+00 1.0000000e+01 
5.0000000e+00 3.0000000e+00 1.0000000e+01 
0.0000000e+00 3.0000000e+00 1.0000000e+01 
1.0000000e+00 3.0000000e+00 5.0000000e-01 
1.0000000e+00 3.0000000e+00 1.0000000e+00 
1.0000000e+00 3.0000000e+00 1.5000000e+00 
1.0000000e+00 3.0000000e+00 2.0000000e+00 
1.0000000e+00 3.0000000e+00 2.5000000e+00 
1.0000000e+00 3.0000000e+00 3.0000000e+00 
1.0000000e+00 3.0000000e+00 3.5000000e+00 
1.0000000e+00 3.0000000e+00 4.0000000e+00 
1.0000000e+00 3.0000000e+00 4.5000000e+00 
1.0000000e+00 3.0000000e+00 5.0000000e+00 
1.0000000e+00 3.0000000e+00 5.5000000e+00 
1.0000000e+00 3.0000000e+00 6.0000000e+00 
1.0000000e+00 3.0000000e+00 6.5000000e+00 
1.0000000e+00 3.0000000e+00 7.0000000e+00 
1.0000000e+00 3.0000000e+00 7.5000000e+00 
1.0000000e+00 3.0000000e+00 8.0000000e+00 
1.0000000e+00 3.0000000e+00 8.5000000e+00 
1.0000000e+00 3.0000000e+00 9.0000000e+00 
1.0000000e+00 3.0000000e+00 9.5000000e+00 
1.0000000e+00 3.0000000e+00 0.0000000e+00 
1.0000000e+00 3.0000000e+00 1.0000000e+01 
1.0000000e+00 0.0000000e+00 0.0000000e+00 
2.0000000e+00 0.0000000e+00 0.0000000e+00 
3.0000000e+00 0.0000000e+00 0.0000000e+00 
4.0000000e+00 0.0000000e+00 0.0000000e+00 
5.0000000e+00 1.0000000e+00 0.0000000e+00 
5.0000000e+00 2.0000000e+00 0.0000000e+00 
0.0000000e+00 2.0000000e+00 0.0000000e+00 
0.0000000e+00 1.0000000e+00 0.0000000e+00 
0.0000000e+00 0.0000000e+00 1.0000000e+00 
0.0000000e+00 0.0000000e+00 2.0000000e+00 
0.0000000e+00 0.0000000e+00 3.0000000e+00 
0.0000000e+00 0.0000000e+00 4.0000000e+00 
0.0000000e+00 0.0000000e+00 5.0000000e+00 
0.0000000e+00 0.0000000e+00 6.0000000e+00 
0.0000000e+00 0.0000000e+00 7.0000000e+00 
0.0000000e+00 0.0000000e+00 8.0000000e+00 
0.0000000e+00 0.0000000e+00 9.0000000e+00 
5.0000000e+00 0.0000000e+00 1.0000000e+00 
5.0000000e+00 0.0000000e+00 2.0000000e+00 
5.0000000e+00 0.0000000e+00 3.0000000e+00 
5.0000000e+00 0.0000000e+00 4.0000000e+00 
5.0000000e+00 0.0000000e+00 5.0000000e+00 
5.0000000e+00 0.0000000e+00 6.0000000e+00 
5.0000000e+00 0.0000000e+00 7.0000000e+00 
5.0000000e+00 0.0000000e+00 8.0000000e+00 
5.0000000e+00 0.0000000e+00 9.0000000e+00 
1.0000000e+00 0.0000000e+00 1.0000000e+01 
2.0000000e+00 0.0000000e+00 1.0000000e+01 
3.0000000e+00 0.0000000e+00 1.0000000e+01 
4.0000000e+00 0.0000000e+00 1.0000000e+01 
5.0000000e+00 3.0000000e+00 1.0000000e+00 
5.0000000e+00 3.0000000e+00 2.0000000e+00 
5.0000000e+00 3.0000000e+00 3.0000000e+00 
5.0000000e+00 3.0000000e+00 4.0000000e+00 
5.0000000e+00 3.0000000e+00 5.0000000e+00 
5.0000000e+00 3.0000000e+00 6.0000000e+00 
5.0000000e+00 3.0000000e+00 7.0000000e+00 
5.0000000e+00 3.0000000e+00 8.0000000e+00 
5.0000000e+00 3.0000000e+00 9.0000000e+00 
5.0000000e+00 1.0000000e+00 1.0000000e+01 
5.0000000e+00 2.0000000e+00 1.0000000e+01 
0.0000000e+00 3.0000000e+00 1.0000000e+00 
0.0000000e+00 3.0000000e+00 2.0000000e+00 
0.0000000e+00 3.0000000e+00 3.0000000e+00 
0.0000000e+00 3.0000000e+00 4.0000000e+00 
0.0000000e+00 3.0000000e+00 5.0000000e+00 
0.0000000e+00 3.0000000e+00 6.0000000e+00 
0.0000000e+00 3.0000000e+00 7.0000000e+00 
0.0000000e+00 3.0000000e+00 8.0000000e+00 
0.0000000e+00 3.0000000e+00 9.0000000e+00 
0.0000000e+00 2.0000000e+00 1.0000000e+01 
0.0000000e+00 1.0000000e+00 1.0000000e+01 
4.0000000e+00 3.0000000e+00 0.0000000e+00 
3.0000000e+00 3.0000000e+00 0.0000000e+00 
2.0000000e+00 3.0000000e+00 0.0000000e+00 
4.0000000e+00 3.0000000e+00 1.0000000e+01 
3.0000000e+00 3.0000000e+00 1.0000000e+01 
2.0000000e+00 3.0000000e+00 1.0000000e+01 
4.0618000e+00 1.5000000e+00 0.0000000e+00 
1.5046000e+00 7.6549745e-01 0.0000000e+00 
2.5000000e+00 2.1339746e+00 0.0000000e+00 
1.5046000e+00 2.2345026e+00 0.0000000e+00 
2.4957771e+00 8.1560516e-01 0.0000000e+00 
3.4707544e+00 2.2336540e+00 0.0000000e+00 
3.4700506e+00 7.5794268e-01 0.0000000e+00 
8.6322361e-01 1.5000000e+00 0.0000000e+00 
2.0000000e+00 1.5000000e+00 0.0000000e+00 
2.9960666e+00 1.4974480e+00 0.0000000e+00 
4.2679491e+00 7.3205084e-01 0.0000000e+00 
4.2679491e+00 2.2679491e+00 0.0000000e+00 
7.2695929e-01 2.2730408e+00 0.0000000e+00 
7.2695929e-01 7.2695929e-01 0.0000000e+00 
4.1822505e+00 0.0000000e+00 2.5515697e+00 
4.2017918e+00 0.0000000e+00 4.4725966e+00 
4.1114569e+00 0.0000000e+00 6.5092020e+00 
8.6602539e-01 0.0000000e+00 3.5000000e+00 
8.4778279e-01 0.0000000e+00 5.4684029e+00 
8.9629614e-01 0.0000000e+00 7.5867257e+00 
2.5566745e+00 0.0000000e+00 8.1853306e-01 
2.4918270e+00 0.0000000e+00 9.1386929e+00 
8.4677207e-01 0.0000000e+00 1.5042374e+00 
4.0943027e+00 0.0000000e+00 8.4081745e+00 
8.6281651e-01 0.0000000e+00 2.5007062e+00 
1.7315160e+00 0.0000000e+00 3.0001178e+00 
1.7319617e+00 0.0000000e+00 4.0000196e+00 
2.5980761e+00 0.0000000e+00 3.5000000e+00 
2.5536871e+00 0.0000000e+00 4.4963923e+00 
2.5928419e+00 0.0000000e+00 2.4239938e+00 
1.5037409e+00 0.0000000e+00 9.1535149e+00 
1.8433737e+00 0.0000000e+00 8.1858873e+00 
3.0000000e+00 0.0000000e+00 8.2679491e+00 
2.5000000e+00 0.0000000e+00 7.4019237e+00 
3.5042722e+00 0.0000000e+00 7.4271150e+00 
3.0310018e+00 0.0000000e+00 6.5282087e+00 
2.0373929e+00 0.0000000e+00 6.5307913e+00 
3.4767809e+00 0.0000000e+00 5.8031492e+00 
2.5452602e+00 0.0000000e+00 5.5720768e+00 
1.6456656e+00 0.0000000e+00 1.9697139e+00 
8.6297011e-01 0.0000000e+00 4.4947371e+00 
1.0111579e+00 0.0000000e+00 6.5282545e+00 
3.4994321e+00 0.0000000e+00 8.4691072e-01 
4.1860156e+00 0.0000000e+00 3.5040276e+00 
1.7320508e+00 0.0000000e+00 5.0000000e+00 
4.0544066e+00 0.0000000e+00 1.5781221e+00 
1.5817389e+00 0.0000000e+00 9.3943578e-01 
8.3166349e-01 0.0000000e+00 8.5090933e+00 
3.4686174e+00 0.0000000e+00 9.1752682e+00 
3.0709300e+00 0.0000000e+00 1.5799091e+00 
3.3927374e+00 0.0000000e+00 3.0399952e+00 
3.3826034e+00 0.0000000e+00 3.9747651e+00 
4.3420062e+00 0.0000000e+00 7.4688983e+00 
3.4023225e+00 0.0000000e+00 4.9314723e+00 
1.6740381e+00 0.0000000e+00 7.3014426e+00 
4.2715640e+00 0.0000000e+00 5.4758859e+00 
1.6225953e+00 0.0000000e+00 5.8104177e+00 
4.2679491e+00 0.0000000e+00 9.2679491e+00 
7.3205084e-01 0.0000000e+00 7.3205084e-01 
4.2679491e+00 0.0000000e+00 7.3205084e-01 
7.3205084e-01 0.0000000e+00 9.2679491e+00 
3.4586334e+00 0.0000000e+00 2.2347178e+00 
2.2895701e+00 0.0000000e+00 1.5463171e+00 
5.0000000e+00 1.5000000e+00 9.3820012e-01 
5.0000000e+00 1.5000000e+00 9.0618000e+00 
5.0000000e+00 2.1339746e+00 2.5000000e+00 
5.0000000e+00 2.1582527e+00 4.4926300e+00 
5.0000000e+00 2.2774773e+00 7.4626446e+00 
5.0000000e+00 8.6602539e-01 3.5000000e+00 
5.0000000e+00 8.2692069e-01 5.5000000e+00 
5.0000000e+00 8.0628556e-01 7.4626446e+00 
5.0000000e+00 8.4408212e-01 4.5000000e+00 
5.0000000e+00 8.3320528e-01 6.4654617e+00 
5.0000000e+00 1.5653628e+00 5.9376192e+00 
5.0000000e+00 2.1339746e+00 3.5000000e+00 
5.0000000e+00 8.6602539e-01 2.5000000e+00 
5.0000000e+00 7.5638938e-01 8.4645281e+00 
5.0000000e+00 2.2575710e+00 8.4645281e+00 
5.0000000e+00 2.2336540e+00 1.5292456e+00 
5.0000000e+00 7.6634604e-01 1.5292456e+00 
5.0000000e+00 2.2649403e+00 5.4883747e+00 
5.0000000e+00 1.5584890e+00 6.9705243e+00 
5.0000000e+00 1.5000000e+00 4.0000000e+00 
5.0000000e+00 1.5000000e+00 3.0000000e+00 
5.0000000e+00 1.4974226e+00 5.0000000e+00 
5.0000000e+00 2.2777116e+00 6.4765272e+00 
5.0000000e+00 1.5000000e+00 2.0022767e+00 
5.0000000e+00 1.5067772e+00 7.9912200e+00 
5.0000000e+00 2.2679491e+00 9.2679491e+00 
5.0000000e+00 7.3205084e-01 7.3205084e-01 
5.0000000e+00 2.2679491e+00 7.3205084e-01 
5.0000000e+00 7.3205084e-01 9.2679491e+00 
0.0000000e+00 1.5000000e+00 9.3820012e-01 
0.0000000e+00 1.5000000e+00 9.0618000e+00 
0.0000000e+00 8.6602539e-01 2.5000000e+00 
0.0000000e+00 8.6602539e-01 4.5000000e+00 
0.0000000e+00 8.6602539e-01 6.5000000e+00 
0.0000000e+00 2.1339746e+00 3.5000000e+00 
0.0000000e+00 2.1339746e+00 5.5000000e+00 
0.0000000e+00 2.1339746e+00 7.5000000e+00 
0.0000000e+00 8.6602539e-01 3.5000000e+00 
0.0000000e+00 2.1339746e+00 2.5000000e+00 
0.0000000e+00 2.1339746e+00 4.5000000e+00 
0.0000000e+00 2.1339746e+00 6.5000000e+00 
0.0000000e+00 8.6602539e-01 5.5000000e+00 
0.0000000e+00 8.6602539e-01 7.5000000e+00 
0.0000000e+00 2.2336540e+00 8.4707546e+00 
0.0000000e+00 2.2336540e+00 1.5292456e+00 
0.0000000e+00 7.6634604e-01 8.4707546e+00 
0.0000000e+00 7.6634604e-01 1.5292456e+00 
0.0000000e+00 1.5000000e+00 4.0000000e+00 
0.0000000e+00 1.5000000e+00 6.0000000e+00 
0.0000000e+00 1.5000000e+00 3.0000000e+00 
0.0000000e+00 1.5000000e+00 5.0000000e+00 
0.0000000e+00 1.5000000e+00 7.0000000e+00 
0.0000000e+00 1.5000000e+00 8.0005512e+00 
0.0000000e+00 1.5000000e+00 2.0022767e+00 
0.0000000e+00 7.3205084e-01 9.2679491e+00 
0.0000000e+00 2.2679491e+00 7.3205084e-01 
0.0000000e+00 7.3205084e-01 7.3205084e-01 
0.0000000e+00 2.2679491e+00 9.2679491e+00 
1.5046000e+00 7.6549745e-01 1.0000000e+01 
4.0618000e+00 1.5000000e+00 1.0000000e+01 
2.5000000e+00 2.1339746e+00 1.0000000e+01 
1.5046000e+00 2.2345026e+00 1.0000000e+01 
2.4957771e+00 8.1560516e-01 1.0000000e+01 
3.4707544e+00 2.2336540e+00 1.0000000e+01 
3.4700506e+00 7.5794268e-01 1.0000000e+01 
8.6322361e-01 1.5000000e+00 1.0000000e+01 
2.0000000e+00 1.5000000e+00 1.0000000e+01 
2.9960666e+00 1.4974480e+00 1.0000000e+01 
4.2679491e+00 7.3205084e-01 1.0000000e+01 
4.2679491e+00 2.2679491e+00 1.0000000e+01 
7.2695929e-01 2.2730408e+00 1.0000000e+01 
7.2695929e-01 7.2695929e-01 1.0000000e+01 
1.4891552e+00 3.0000000e+00 2.2590268e+00 
1.4171888e+00 3.0000000e+00 3.6986542e+00 
1.5172310e+00 3.0000000e+00 5.7397003e+00 
1.4330127e+00 3.0000000e+00 7.2500000e+00 
1.4330127e+00 3.0000000e+00 4.7500000e+00 
1.4554617e+00 3.0000000e+00 8.2442541e+00 
4.1714277e+00 3.0000000e+00 6.4487247e+00 
4.1339746e+00 3.0000000e+00 2.5000000e+00 
[...]
POINT_DATA 377
FIELD FieldData 2
DISPLACEMENT 3 377  float
0.0000000e+00 0.0000000e+00 0.0000000e+00 
0.0000000e+00 0.0000000e+00 0.0000000e+00 
0.0000000e+00 3.8085097e-06 8.4964549e-06 
0.0000000e+00 1.1046579e-05 2.2937427e-05 
0.0000000e+00 0.0000000e+00 0.0000000e+00 
0.0000000e+00 0.0000000e+00 0.0000000e+00 
0.0000000e+00 -1.7676359e-05 1.9069164e-05 
0.0000000e+00 -2.2010689e-04 9.7163364e-05 
1.0446229e-07 7.7479463e-06 2.7033857e-05 
2.0438469e-07 5.2285213e-06 2.7242681e-05 
2.5098976e-07 3.3882111e-06 2.7561302e-05 
1.9428592e-07 2.2720023e-06 2.8137403e-05 
9.4142379e-08 1.6768346e-06 2.8852088e-05 
-1.2503866e-08 1.3975732e-06 2.9833642e-05 
-8.4528530e-08 1.3175164e-06 3.0967949e-05 
-1.4291152e-07 1.3856034e-06 3.2260952e-05 
-1.9723653e-07 1.5569402e-06 3.3866716e-05 
-1.4601225e-07 1.7178597e-06 3.5829507e-05 
-1.5343845e-07 1.7004749e-06 3.7973750e-05 
-5.7218796e-07 1.1215967e-06 4.0475999e-05 
-1.7603327e-06 -5.2231593e-07 4.3302291e-05 
-3.6258036e-06 -4.7836229e-06 4.6353562e-05 
-5.9165327e-06 -1.6069907e-05 4.9650611e-05 
-8.0200925e-06 -4.4833560e-05 5.2991603e-05 
-7.8976946e-06 -1.1021155e-04 5.6562221e-05 
-3.4144946e-06 -2.3214307e-04 5.9950311e-05 
6.3294369e-06 -4.1489041e-04 6.2282365e-05 
0.0000000e+00 1.0665696e-05 2.6982918e-05 
0.0000000e+00 -6.3196383e-04 6.5889937e-05 
0.0000000e+00 0.0000000e+00 0.0000000e+00 
0.0000000e+00 0.0000000e+00 0.0000000e+00 
0.0000000e+00 0.0000000e+00 0.0000000e+00 
0.0000000e+00 0.0000000e+00 0.0000000e+00 
0.0000000e+00 2.8134318e-06 3.4216964e-06 
0.0000000e+00 3.6474471e-06 6.3073480e-06 
0.0000000e+00 9.8579503e-06 1.4918205e-05 
0.0000000e+00 6.7806482e-06 7.1418490e-06 
0.0000000e+00 0.0000000e+00 0.0000000e+00 
0.0000000e+00 0.0000000e+00 0.0000000e+00 
0.0000000e+00 0.0000000e+00 0.0000000e+00 
0.0000000e+00 0.0000000e+00 0.0000000e+00 
0.0000000e+00 0.0000000e+00 0.0000000e+00 
0.0000000e+00 0.0000000e+00 0.0000000e+00 
0.0000000e+00 0.0000000e+00 0.0000000e+00 
0.0000000e+00 0.0000000e+00 0.0000000e+00 
0.0000000e+00 0.0000000e+00 0.0000000e+00 
0.0000000e+00 0.0000000e+00 0.0000000e+00 
0.0000000e+00 0.0000000e+00 0.0000000e+00 
0.0000000e+00 0.0000000e+00 0.0000000e+00 
0.0000000e+00 0.0000000e+00 0.0000000e+00 
0.0000000e+00 0.0000000e+00 0.0000000e+00 
0.0000000e+00 0.0000000e+00 0.0000000e+00 
0.0000000e+00 0.0000000e+00 0.0000000e+00 
0.0000000e+00 0.0000000e+00 0.0000000e+00 
0.0000000e+00 0.0000000e+00 0.0000000e+00 
0.0000000e+00 0.0000000e+00 0.0000000e+00 
0.0000000e+00 0.0000000e+00 0.0000000e+00 
0.0000000e+00 0.0000000e+00 0.0000000e+00 
0.0000000e+00 0.0000000e+00 0.0000000e+00 
0.0000000e+00 1.8963283e-06 8.2444694e-06 
0.0000000e+00 9.0242099e-07 7.6727465e-06 
0.0000000e+00 6.2863273e-07 7.4629788e-06 
0.0000000e+00 7.8772996e-07 7.6487368e-06 
0.0000000e+00 1.2185078e-06 8.5571673e-06 
0.0000000e+00 8.7552570e-07 1.0936602e-05 
0.0000000e+00 -2.5370471e-07 1.3583061e-05 
0.0000000e+00 -2.6079467e-06 1.7357581e-05 
0.0000000e+00 -9.6009198e-06 1.9807949e-05 
0.0000000e+00 -1.0455687e-05 6.0991474e-06 
0.0000000e+00 -1.5809066e-05 1.2249682e-05 
0.0000000e+00 4.8775869e-06 2.2202996e-05 
0.0000000e+00 2.3815969e-06 2.1746455e-05 
0.0000000e+00 1.6165291e-06 2.2431195e-05 
0.0000000e+00 1.6203156e-06 2.4031504e-05 
0.0000000e+00 1.6990182e-06 2.7356811e-05 
0.0000000e+00 -7.2061488e-07 2.9719242e-05 
0.0000000e+00 -1.1022173e-05 3.9154689e-05 
0.0000000e+00 -5.2129155e-05 5.7831792e-05 
0.0000000e+00 -1.4164050e-04 7.8770805e-05 
0.0000000e+00 -1.7405167e-04 2.5395642e-05 
0.0000000e+00 -8.4558560e-05 5.4619363e-06 
0.0000000e+00 4.3562245e-06 9.2627524e-06 
0.0000000e+00 5.6448434e-06 1.2204491e-05 
0.0000000e+00 8.0610662e-06 1.7773682e-05 
0.0000000e+00 -2.5810876e-05 2.3129567e-05 
0.0000000e+00 -5.4131357e-05 3.4197543e-05 
0.0000000e+00 -1.1820821e-04 6.7203386e-05 
0.0000000e+00 3.4624145e-06 5.3548929e-06 
0.0000000e+00 4.3149762e-06 4.5613842e-06 
0.0000000e+00 6.5299178e-06 1.0325675e-05 
0.0000000e+00 8.6129385e-06 1.4846684e-05 
0.0000000e+00 3.4878728e-06 4.1076314e-06 
0.0000000e+00 4.6545920e-06 8.1150165e-06 
0.0000000e+00 2.5191796e-06 2.9395244e-06 
0.0000000e+00 7.8588737e-06 1.0415128e-05 
0.0000000e+00 6.4221854e-06 8.5874117e-06 
0.0000000e+00 4.4781091e-06 6.5219492e-06 
0.0000000e+00 2.3376585e-06 2.6067496e-06 
0.0000000e+00 3.8653757e-06 7.2574480e-06 
0.0000000e+00 9.9787430e-06 1.7429620e-05 
0.0000000e+00 4.8801930e-06 4.8673942e-06 
0.0000000e+00 0.0000000e+00 0.0000000e+00 
0.0000000e+00 0.0000000e+00 0.0000000e+00 
0.0000000e+00 0.0000000e+00 0.0000000e+00 
0.0000000e+00 0.0000000e+00 0.0000000e+00 
0.0000000e+00 0.0000000e+00 0.0000000e+00 
0.0000000e+00 0.0000000e+00 0.0000000e+00 
0.0000000e+00 0.0000000e+00 0.0000000e+00 
0.0000000e+00 0.0000000e+00 0.0000000e+00 
0.0000000e+00 0.0000000e+00 0.0000000e+00 
0.0000000e+00 0.0000000e+00 0.0000000e+00 
0.0000000e+00 0.0000000e+00 0.0000000e+00 
0.0000000e+00 0.0000000e+00 0.0000000e+00 
0.0000000e+00 0.0000000e+00 0.0000000e+00 
0.0000000e+00 0.0000000e+00 0.0000000e+00 
0.0000000e+00 0.0000000e+00 0.0000000e+00 
0.0000000e+00 0.0000000e+00 0.0000000e+00 
0.0000000e+00 0.0000000e+00 0.0000000e+00 
0.0000000e+00 0.0000000e+00 0.0000000e+00 
0.0000000e+00 0.0000000e+00 0.0000000e+00 
0.0000000e+00 0.0000000e+00 0.0000000e+00 
0.0000000e+00 0.0000000e+00 0.0000000e+00 
0.0000000e+00 0.0000000e+00 0.0000000e+00 
0.0000000e+00 0.0000000e+00 0.0000000e+00 
0.0000000e+00 0.0000000e+00 0.0000000e+00 
0.0000000e+00 0.0000000e+00 0.0000000e+00 
0.0000000e+00 0.0000000e+00 0.0000000e+00 
0.0000000e+00 0.0000000e+00 0.0000000e+00 
0.0000000e+00 0.0000000e+00 0.0000000e+00 
0.0000000e+00 0.0000000e+00 0.0000000e+00 
0.0000000e+00 0.0000000e+00 0.0000000e+00 
0.0000000e+00 0.0000000e+00 0.0000000e+00 
0.0000000e+00 0.0000000e+00 0.0000000e+00 
0.0000000e+00 0.0000000e+00 0.0000000e+00 
0.0000000e+00 0.0000000e+00 0.0000000e+00 
0.0000000e+00 0.0000000e+00 0.0000000e+00 
0.0000000e+00 0.0000000e+00 0.0000000e+00 
0.0000000e+00 0.0000000e+00 0.0000000e+00 
0.0000000e+00 0.0000000e+00 0.0000000e+00 
0.0000000e+00 0.0000000e+00 0.0000000e+00 
0.0000000e+00 0.0000000e+00 0.0000000e+00 
0.0000000e+00 0.0000000e+00 0.0000000e+00 
0.0000000e+00 0.0000000e+00 0.0000000e+00 
0.0000000e+00 0.0000000e+00 0.0000000e+00 
0.0000000e+00 0.0000000e+00 0.0000000e+00 
0.0000000e+00 0.0000000e+00 0.0000000e+00 
0.0000000e+00 0.0000000e+00 0.0000000e+00 
0.0000000e+00 0.0000000e+00 0.0000000e+00 
0.0000000e+00 0.0000000e+00 0.0000000e+00 
0.0000000e+00 0.0000000e+00 0.0000000e+00 
0.0000000e+00 1.3552992e-06 4.7387907e-06 
0.0000000e+00 -6.2461199e-06 7.7121222e-06 
0.0000000e+00 6.0886100e-07 6.4118040e-06 
0.0000000e+00 1.0330949e-06 6.9887833e-06 
0.0000000e+00 -5.8939628e-07 1.1092622e-05 
0.0000000e+00 3.2042902e-07 2.9105561e-06 
0.0000000e+00 5.2499121e-07 2.6387986e-06 
0.0000000e+00 -7.5571614e-07 2.5151908e-06 
0.0000000e+00 4.9838388e-07 2.9803848e-06 
0.0000000e+00 2.5994035e-07 2.5768445e-06 
0.0000000e+00 1.1616129e-06 5.7471552e-06 
0.0000000e+00 6.2975187e-07 6.5247500e-06 
0.0000000e+00 3.6466523e-07 2.8771467e-06 
0.0000000e+00 -2.5055838e-06 2.2825961e-06 
0.0000000e+00 -3.6299548e-06 1.2491064e-05 
0.0000000e+00 1.0741184e-06 6.6170560e-06 
0.0000000e+00 5.0659543e-07 2.3708917e-06 
0.0000000e+00 1.5927814e-06 8.0543250e-06 
0.0000000e+00 4.2094319e-07 6.0844040e-06 
0.0000000e+00 6.4498772e-07 5.0202812e-06 
0.0000000e+00 4.9561970e-07 4.8478892e-06 
0.0000000e+00 1.0864687e-06 5.2557234e-06 
0.0000000e+00 1.1351098e-06 9.5254227e-06 
0.0000000e+00 6.1807793e-07 4.7186627e-06 
0.0000000e+00 -1.7801007e-06 6.5742011e-06 
0.0000000e+00 -9.7233860e-06 1.3513924e-05 
0.0000000e+00 9.3495572e-07 2.2026361e-06 
0.0000000e+00 2.1412964e-06 6.8264799e-06 
0.0000000e+00 -3.8891044e-06 3.1627974e-06 
0.0000000e+00 3.4974630e-06 1.0497677e-05 
0.0000000e+00 -8.4849227e-05 -3.7379123e-06 
0.0000000e+00 7.8748269e-07 5.7162697e-06 
0.0000000e+00 5.7482640e-07 5.2748605e-06 
0.0000000e+00 -4.2817601e-06 -5.0833529e-07 
0.0000000e+00 1.6758313e-06 1.6509350e-05 
0.0000000e+00 1.0698200e-06 1.6988199e-05 
0.0000000e+00 -2.5209820e-05 1.0933003e-05 
0.0000000e+00 7.2084072e-07 5.8739101e-06 
0.0000000e+00 1.7931158e-06 1.5949074e-05 
0.0000000e+00 1.8059934e-06 1.7230266e-05 
0.0000000e+00 -4.1365938e-06 1.6080157e-05 
0.0000000e+00 3.1045883e-07 4.0680438e-06 
0.0000000e+00 -1.3761404e-05 -7.1886857e-06 
0.0000000e+00 -7.9660145e-05 1.2728694e-05 
0.0000000e+00 3.1199882e-06 1.6567152e-05 
0.0000000e+00 -2.6566358e-05 -1.1536025e-05 
0.0000000e+00 1.5613601e-06 4.9356750e-06 
0.0000000e+00 1.3514070e-06 1.0931643e-05 
0.0000000e+00 -9.6171095e-07 8.2254564e-06 
0.0000000e+00 1.2532449e-06 1.0754024e-05 
0.0000000e+00 1.0427086e-06 1.0267178e-05 
0.0000000e+00 -1.0944265e-05 2.5949562e-06 
0.0000000e+00 -3.5961042e-05 -4.5267298e-06 
0.0000000e+00 1.7643169e-06 1.0590471e-05 
0.0000000e+00 -4.0636685e-05 -8.5327647e-06 
0.0000000e+00 5.8579094e-06 1.6937565e-05 
0.0000000e+00 2.3483988e-06 4.5902898e-06 
0.0000000e+00 -1.5206017e-04 1.9441219e-05 
0.0000000e+00 -4.5657260e-05 1.0828534e-06 
0.0000000e+00 -1.7782548e-05 9.3143262e-06 
0.0000000e+00 -7.0759175e-05 2.3178265e-05 
0.0000000e+00 -1.8861028e-04 1.6483471e-05 
0.0000000e+00 -3.1077245e-05 4.3974555e-06 
0.0000000e+00 -3.4487417e-05 1.7770528e-05 
0.0000000e+00 -1.4974281e-05 5.1018114e-06 
0.0000000e+00 -1.4296513e-04 3.1558527e-06 
0.0000000e+00 -8.6775726e-05 1.5772177e-05 
0.0000000e+00 -3.7364964e-05 1.1271147e-05 
0.0000000e+00 -9.8827768e-06 4.8467791e-06 
0.0000000e+00 -2.0803138e-05 1.5180417e-05 
0.0000000e+00 -2.7115433e-04 2.3852190e-05 
0.0000000e+00 -6.8501904e-05 1.6759185e-06 
-1.9375616e-07 1.8148829e-06 2.1419206e-05 
-5.2356069e-07 1.4300725e-06 2.3567811e-05 
-2.5420084e-07 7.7317037e-07 2.7533775e-05 
-4.4058329e-06 -1.4524033e-05 3.9459523e-05 
-2.2623600e-07 1.6927835e-06 2.4716150e-05 
-1.0768794e-05 -6.1065257e-05 5.1396168e-05 
-1.1963670e-06 8.7909820e-07 1.3408733e-05 
1.1409387e-07 7.3669162e-07 8.1478875e-06 
3.7022940e-09 1.0686601e-06 8.8670249e-06 
-1.5437244e-07 3.6982112e-06 2.2257705e-05 
-4.8247571e-06 -7.7130780e-06 2.0425825e-05 
-1.9463949e-05 -5.9215028e-05 4.3152657e-05 
4.5129553e-07 2.6902135e-06 1.0343884e-05 
-1.8172177e-05 -2.2016001e-04 6.4513784e-05 
-1.9624621e-07 1.2844521e-06 1.0445839e-05 
-1.0431511e-06 1.4040496e-08 1.4109288e-05 
-2.5969732e-06 -7.5596000e-07 1.8446966e-05 
-1.8965108e-06 -6.7636449e-07 1.8758668e-05 
-3.2263057e-07 5.8592661e-07 1.5887905e-05 
-4.5157635e-06 -5.6076574e-06 2.4804925e-05 
-4.5585275e-06 -6.3618709e-06 2.1685775e-05 
-9.9872577e-06 -1.9040994e-05 3.3536729e-05 
-2.7172041e-06 -4.7801550e-06 2.6283076e-05 
-1.1202276e-05 -1.8136680e-05 2.8864277e-05 
-6.2688349e-07 -8.2899533e-07 2.0962212e-05 
-4.7537645e-07 1.0936395e-06 1.8948109e-05 
5.3427311e-09 1.1613346e-06 1.4439361e-05 
-1.5985187e-07 1.0768897e-06 1.1714784e-05 
-3.9448739e-08 1.0179776e-06 1.0907279e-05 
4.7724058e-08 1.1442609e-06 1.3290928e-05 
1.2852300e-09 9.3213288e-07 1.0620250e-05 
-6.1594136e-08 1.0241877e-06 1.3160983e-05 
2.0682180e-08 9.4538171e-07 1.1014516e-05 
6.7923949e-08 1.0845857e-06 1.3411475e-05 
1.5943641e-07 1.1742475e-06 1.1363702e-05 
1.8837254e-08 1.5923141e-06 1.4625311e-05 
3.7464457e-07 1.8650890e-06 1.2342457e-05 
7.0290409e-09 7.3293279e-07 8.1853286e-06 
-2.3453470e-07 9.4879965e-07 1.7584302e-05 
-2.8701349e-06 -2.5820877e-06 1.7239156e-05 
-9.8862370e-07 -1.8603295e-06 2.7896669e-05 
2.8440695e-07 1.2632808e-06 9.7559696e-06 
-1.3893497e-05 -2.7861077e-05 3.0025119e-05 
-6.9148778e-06 -1.7437080e-05 3.1479161e-05 
4.2143819e-07 1.4521753e-06 1.7074801e-05 
1.6651221e-07 1.8136184e-06 2.2983937e-05 
2.4742755e-07 1.6469195e-06 2.5447778e-05 
-1.9866995e-07 1.2996496e-06 1.6998789e-05 
1.5857408e-08 9.7891109e-07 2.5930749e-05 
5.6157450e-07 4.1380899e-06 1.4025758e-05 
2.4538684e-07 3.0527476e-06 1.7168391e-05 
-7.4166455e-06 -2.9753348e-05 4.5002180e-05 
-1.6355249e-05 -1.0900472e-04 6.0800459e-05 
-1.4881922e-05 -5.8173584e-05 4.8669743e-05 
1.9696712e-07 1.3527958e-06 8.5303918e-06 
4.0018668e-07 5.7842399e-06 2.0903481e-05 
1.9074795e-07 2.7784345e-06 2.1623269e-05 
-1.8413301e-06 -6.5960012e-06 3.5192119e-05 
9.3092048e-08 1.3650266e-06 1.7100114e-05 
-1.2022674e-05 -3.5454843e-05 4.1417508e-05 
6.4957433e-08 7.9669883e-07 9.0344420e-06 
-1.9250041e-07 1.4253959e-06 2.3793409e-05 
-2.2809150e-08 9.3392725e-07 9.3478484e-06 
-1.4848983e-05 -3.5296391e-05 3.8080667e-05 
-1.5470014e-05 -1.0773012e-04 5.5546821e-05 
-5.7923880e-06 -1.4239446e-05 2.1638867e-05 
2.2457411e-07 2.6798282e-06 8.7929593e-06 
-6.8334693e-06 -7.5137609e-06 2.2875736e-05 
-3.7352116e-08 1.2876064e-06 2.0353444e-05 
1.4061216e-07 9.2467434e-07 9.6308295e-06 
1.1724111e-07 2.2254312e-06 2.3898448e-05 
6.7814547e-08 2.9882940e-06 2.3854009e-05 
8.2280984e-08 1.7556056e-06 2.4197208e-05 
9.7158988e-08 1.4676361e-06 2.4727973e-05 
1.3971945e-07 4.4316630e-06 2.3894141e-05 
-1.0568249e-07 1.6693947e-06 2.6812126e-05 
1.9862044e-07 1.6475346e-06 2.7622506e-05 
1.8641157e-07 1.7006830e-06 2.8411774e-05 
-3.0703234e-07 1.6562723e-06 3.0652274e-05 
-3.5783749e-08 8.3774830e-07 3.3252527e-05 
-1.2736897e-06 -7.7027892e-07 3.6105368e-05 
-1.2426474e-06 -5.2935507e-06 4.0244817e-05 
-3.8287899e-06 -1.6870832e-05 4.4346918e-05 
-3.6683521e-06 -4.1641502e-05 5.0499024e-05 
-2.6027715e-06 -7.5862001e-05 6.0552247e-05 
-4.9218579e-06 -1.3157015e-04 6.5625383e-05 
-2.1617718e-06 -2.4583255e-04 7.0978764e-05 
1.3207340e-08 6.9191815e-06 2.4283871e-05 
3.4002193e-07 1.2950438e-06 9.4094257e-06 
-1.0025383e-07 1.0386334e-06 9.5197038e-06 
2.0019456e-06 -3.3479059e-06 4.2004494e-06 
7.3255310e-06 -2.8270053e-05 -5.4660973e-06 
-1.8441827e-07 1.9694676e-06 8.9558907e-06 
-1.1444951e-07 7.0172291e-07 6.1168494e-06 
8.4732775e-08 8.6325275e-07 6.7278402e-06 
1.5365484e-06 4.1373502e-07 5.5420855e-06 
3.7567625e-06 -6.9367866e-06 4.8820589e-06 
-1.7068501e-07 1.5313365e-06 1.4074814e-05 
7.2812436e-06 -9.8664619e-05 -6.4967171e-06 
-8.8959126e-08 1.7207493e-06 1.4721956e-05 
-1.0507632e-07 1.5452656e-06 1.6802922e-05 
1.1899987e-06 -1.5077954e-05 1.0243642e-05 
2.1348249e-07 1.8600642e-06 1.7995335e-05 
2.4467482e-07 1.0511880e-06 1.5334715e-05 
-5.3799365e-08 1.2799517e-06 6.0373022e-06 
2.5034026e-06 -6.1348946e-06 7.6982660e-06 
-8.9561816e-08 1.2041982e-06 1.1089664e-05 
3.9871531e-07 1.1637660e-06 6.7715141e-06 
-4.0231406e-08 3.5978762e-06 1.5647187e-05 
-1.6101744e-10 6.8452835e-07 6.4698779e-06 
3.4853423e-07 1.3293350e-06 1.2641653e-05 
-1.3846032e-07 1.0553885e-06 4.9316654e-06 
8.7417166e-06 -3.0820334e-05 5.7550892e-06 
2.1796784e-07 -4.6796595e-05 7.4137592e-06 
9.9919373e-07 2.4587908e-07 7.6264628e-06 
6.2905252e-07 7.0410437e-07 5.0769827e-06 
-1.7152473e-07 1.2381824e-06 1.2389414e-05 
-3.1319903e-08 8.5239606e-07 6.4248970e-06 
-5.6869581e-08 7.5905780e-07 6.0963857e-06 
9.2236551e-06 -4.3610515e-05 -9.7604088e-06 
7.5104100e-07 3.5316458e-07 1.2145100e-05 
2.2538381e-07 -2.2041168e-06 1.7972277e-05 
2.5270335e-06 -1.2185810e-05 -5.9223803e-06 
7.1301218e-07 5.3100240e-07 3.4171753e-06 
-3.7637538e-08 2.8274446e-06 1.0375736e-05 
-5.5789414e-08 4.9323290e-07 3.5117494e-06 
4.3819287e-07 6.1187717e-07 3.9101278e-06 
3.4886223e-06 -7.1039071e-06 4.4000972e-06 
-3.1604586e-08 1.0669650e-06 9.4986544e-06 
5.2524136e-08 1.1563496e-06 8.5623387e-06 
-1.1472033e-07 7.3550058e-07 5.5658511e-06 
6.0740249e-06 -9.5033638e-06 -9.4818853e-07 
1.1684724e-06 -6.3374455e-07 2.2935033e-06 
6.4497868e-07 -3.4776290e-06 1.0530259e-05 
-5.3010190e-08 8.7084152e-07 8.9685673e-06 
-2.6464036e-08 1.2012204e-06 8.9259693e-06 
2.7346714e-06 -1.8213091e-06 2.0170453e-06 
-2.1818971e-09 4.4616462e-07 3.8420812e-06 
-1.1432928e-10 7.0641460e-07 7.0395076e-06 
-6.1405117e-08 6.1949976e-07 5.3210642e-06 
1.1843506e-08 -2.0009627e-05 1.5609143e-05 
5.3145492e-08 5.7369215e-07 3.8046951e-06 
3.8719495e-06 -4.0597948e-05 -1.4613554e-05 
3.8190350e-07 1.4648098e-06 8.3540272e-06 
1.7163765e-06 -1.3346577e-05 1.1561605e-05 
-2.5628711e-07 2.2274903e-06 4.9097084e-06 
4.3855894e-07 1.2536659e-06 9.9743775e-06 
1.5766954e-08 1.6649004e-06 1.7907239e-05 
1.1291737e-07 1.4975074e-06 1.5236214e-05 
1.8787022e-06 -1.3095678e-05 1.1380182e-05 
3.5307510e-06 -3.6347310e-06 -1.3027098e-07 
1.7705819e-06 -1.7106847e-06 2.7690483e-06 
-1.6465715e-07 1.9111781e-06 1.3224473e-05 
6.0598005e-08 1.2620616e-06 1.4805556e-05 
1.7556368e-07 1.1966243e-06 1.0082867e-05 
TOTAL_DISPLACEMENT 3 377  float
0.0000000e+00 0.0000000e+00 0.0000000e+00 
0.0000000e+00 0.0000000e+00 0.0000000e+00 
0.0000000e+00 0.0000000e+00 0.0000000e+00 
0.0000000e+00 0.0000000e+00 0.0000000e+00 
0.0000000e+00 0.0000000e+00 0.0000000e+00 
0.0000000e+00 0.0000000e+00 0.0000000e+00 
0.0000000e+00 0.0000000e+00 0.0000000e+00 
0.0000000e+00 0.0000000e+00 0.0000000e+00 
0.0000000e+00 0.0000000e+00 0.0000000e+00 
0.0000000e+00 0.0000000e+00 0.0000000e+00 
0.0000000e+00 0.0000000e+00 0.0000000e+00 
0.0000000e+00 0.0000000e+00 0.0000000e+00 
0.0000000e+00 0.0000000e+00 0.0000000e+00 
0.0000000e+00 0.0000000e+00 0.0000000e+00 
0.0000000e+00 0.0000000e+00 0.0000000e+00 
0.0000000e+00 0.0000000e+00 0.0000000e+00 
0.0000000e+00 0.0000000e+00 0.0000000e+00 
0.0000000e+00 0.0000000e+00 0.0000000e+00 
0.0000000e+00 0.0000000e+00 0.0000000e+00 
0.0000000e+00 0.0000000e+00 0.0000000e+00 
0.0000000e+00 0.0000000e+00 0.0000000e+00 
0.0000000e+00 0.0000000e+00 0.0000000e+00 
0.0000000e+00 0.0000000e+00 0.0000000e+00 
0.0000000e+00 0.0000000e+00 0.0000000e+00 
0.0000000e+00 0.0000000e+00 0.0000000e+00 
0.0000000e+00 0.0000000e+00 0.0000000e+00 
0.0000000e+00 0.0000000e+00 0.0000000e+00 
0.0000000e+00 0.0000000e+00 0.0000000e+00 
0.0000000e+00 0.0000000e+00 0.0000000e+00 
0.0000000e+00 0.0000000e+00 0.0000000e+00 
0.0000000e+00 0.0000000e+00 0.0000000e+00 
0.0000000e+00 0.0000000e+00 0.0000000e+00 
0.0000000e+00 0.0000000e+00 0.0000000e+00 
0.0000000e+00 0.0000000e+00 0.0000000e+00 
0.0000000e+00 0.0000000e+00 0.0000000e+00 
0.0000000e+00 0.0000000e+00 0.0000000e+00 
0.0000000e+00 0.0000000e+00 0.0000000e+00 
0.0000000e+00 0.0000000e+00 0.0000000e+00 
0.0000000e+00 0.0000000e+00 0.0000000e+00 
0.0000000e+00 0.0000000e+00 0.0000000e+00 
0.0000000e+00 0.0000000e+00 0.0000000e+00 
0.0000000e+00 0.0000000e+00 0.0000000e+00 
0.0000000e+00 0.0000000e+00 0.0000000e+00 
0.0000000e+00 0.0000000e+00 0.0000000e+00 
0.0000000e+00 0.0000000e+00 0.0000000e+00 
0.0000000e+00 0.0000000e+00 0.0000000e+00 
0.0000000e+00 0.0000000e+00 0.0000000e+00 
0.0000000e+00 0.0000000e+00 0.0000000e+00 
0.0000000e+00 0.0000000e+00 0.0000000e+00 
0.0000000e+00 0.0000000e+00 0.0000000e+00 
0.0000000e+00 0.0000000e+00 0.0000000e+00 
0.0000000e+00 0.0000000e+00 0.0000000e+00 
0.0000000e+00 0.0000000e+00 0.0000000e+00 
0.0000000e+00 0.0000000e+00 0.0000000e+00 
0.0000000e+00 0.0000000e+00 0.0000000e+00 
0.0000000e+00 0.0000000e+00 0.0000000e+00 
0.0000000e+00 0.0000000e+00 0.0000000e+00 
0.0000000e+00 0.0000000e+00 0.0000000e+00 
0.0000000e+00 0.0000000e+00 0.0000000e+00 
0.0000000e+00 0.0000000e+00 0.0000000e+00 
0.0000000e+00 0.0000000e+00 0.0000000e+00 
0.0000000e+00 0.0000000e+00 0.0000000e+00 
0.0000000e+00 0.0000000e+00 0.0000000e+00 
0.0000000e+00 0.0000000e+00 0.0000000e+00 
0.0000000e+00 0.0000000e+00 0.0000000e+00 
0.0000000e+00 0.0000000e+00 0.0000000e+00 
0.0000000e+00 0.0000000e+00 0.0000000e+00 
0.0000000e+00 0.0000000e+00 0.0000000e+00 
0.0000000e+00 0.0000000e+00 0.0000000e+00 
0.0000000e+00 0.0000000e+00 0.0000000e+00 
0.0000000e+00 0.0000000e+00 0.0000000e+00 
0.0000000e+00 0.0000000e+00 0.0000000e+00 
0.0000000e+00 0.0000000e+00 0.0000000e+00 
0.0000000e+00 0.0000000e+00 0.0000000e+00 
0.0000000e+00 0.0000000e+00 0.0000000e+00 
0.0000000e+00 0.0000000e+00 0.0000000e+00 
0.0000000e+00 0.0000000e+00 0.0000000e+00 
0.0000000e+00 0.0000000e+00 0.0000000e+00 
0.0000000e+00 0.0000000e+00 0.0000000e+00 
0.0000000e+00 0.0000000e+00 0.0000000e+00 