# vtk DataFile Version 4.0
vtk output
ASCII
DATASET UNSTRUCTURED_GRID
POINTS 377 float
0.0000000e+00 0.0000000e+00 0.0000000e+00 
5.0000000e+00 0.0000000e+00 0.0000000e+00 
5.0000000e+00 3.0000000e+00 0.0000000e+00 
0.0000000e+00 3.0000000e+00 0.0000000e+00 
0.0000000e+00 0.0000000e+00 1.0000000e+01 
5.0000000e+00 0.0000000e+00 1.0000000e+01 
5.0000000e+00 3.0000000e+00 1.0000000e+01 
0.0000000e+00 3.0000000e+00 1.0000000e+01 
1.0000000e+00 3.0000000e+00 5.0000000e-01 
1.0000000e+00 3.0000000e+00 1.0000000e+00 
1.0000000e+00 3.0000000e+00 1.5000000e+00 
1.0000000e+00 3.0000000e+00 2.0000000e+00 
1.0000000e+00 3.0000000e+00 2.5000000e+00 
1.0000000e+00 3.0000000e+00 3.0000000e+00 
1.0000000e+00 3.0000000e+00 3.5000000e+00 
1.0000000e+00 3.0000000e+00 4.0000000e+00 
1.0000000e+00 3.0000000e+00 4.5000000e+00 
1.0000000e+00 3.0000000e+00 5.0000000e+00 
1.0000000e+00 3.0000000e+00 5.5000000e+00 
1.0000000e+00 3.0000000e+00 6.0000000e+00 
1.0000000e+00 3.0000000e+00 6.5000000e+00 
1.0000000e+00 3.0000000e+00 7.0000000e+00 
1.0000000e+00 3.0000000e+00 7.5000000e+00 
1.0000000e+00 3.0000000e+00 8.0000000e+00 
1.0000000e+00 3.0000000e+00 8.5000000e+00 
1.0000000e+00 3.0000000e+00 9.0000000e+00 
1.0000000e+00 3.0000000e+00 9.5000000e+00 
1.0000000e+00 3.0000000e+00 0.0000000e+00 
1.0000000e+00 3.0000000e+00 1.0000000e+01 
1.0000000e+00 0.0000000e+00 0.0000000e+00 
2.0000000e+00 0.0000000e+00 0.0000000e+00 
3.0000000e+00 0.0000000e+00 0.0000000e+00 
4.0000000e+00 0.0000000e+00 0.0000000e+00 
5.0000000e+00 1.0000000e+00 0.0000000e+00 
5.0000000e+00 2.0000000e+00 0.0000000e+00 
0.0000000e+00 2.0000000e+00 0.0000000e+00 
0.0000000e+00 1.0000000e+00 0.0000000e+00 
0.0000000e+00 0.0000000e+00 1.0000000e+00 
0.0000000e+00 0.0000000e+00 2.0000000e+00 
0.0000000e+00 0.0000000e+00 3.0000000e+00 
0.0000000e+00 0.0000000e+00 4.0000000e+00 
0.0000000e+00 0.0000000e+00 5.0000000e+00 
0.0000000e+00 0.0000000e+00 6.0000000e+00 
0.0000000e+00 0.0000000e+00 7.0000000e+00 
0.0000000e+00 0.0000000e+00 8.0000000e+00 
0.0000000e+00 0.0000000e+00 9.0000000e+00 
5.0000000e+00 0.0000000e+00 1.0000000e+00 
5.0000000e+00 0.0000000e+00 2.0000000e+00 
5.0000000e+00 0.0000000e+00 3.0000000e+00 
5.0000000e+00 0.0000000e+00 4.0000000e+00 
5.0000000e+00 0.0000000e+00 5.0000000e+00 
5.0000000e+00 0.0000000e+00 6.0000000e+00 
5.0000000e+00 0.0000000e+00 7.0000000e+00 
5.0000000e+00 0.0000000e+00 8.0000000e+00 
5.0000000e+00 0.0000000e+00 9.0000000e+00 
1.0000000e+00 0.0000000e+00 1.0000000e+01 
2.0000000e+00 0.0000000e+00 1.0000000e+01 
3.0000000e+00 0.0000000e+00 1.0000000e+01 
4.0000000e+00 0.0000000e+00 1.0000000e+01 
5.0000000e+00 3.0000000e+00 1.0000000e+00 
5.0000000e+00 3.0000000e+00 2.0000000e+00 
5.0000000e+00 3.0000000e+00 3.0000000e+00 
5.0000000e+00 3.0000000e+00 4.0000000e+00 
5.0000000e+00 3.0000000e+00 5.0000000e+00 
5.0000000e+00 3.0000000e+00 6.0000000e+00 
5.0000000e+00 3.0000000e+00 7.0000000e+00 
5.0000000e+00 3.0000000e+00 8.0000000e+00 
5.0000000e+00 3.0000000e+00 9.0000000e+00 
5.0000000e+00 1.0000000e+00 1.0000000e+01 
5.0000000e+00 2.0000000e+00 1.0000000e+01 
0.0000000e+00 3.0000000e+00 1.0000000e+00 
0.0000000e+00 3.0000000e+00 2.0000000e+00 
0.0000000e+00 3.0000000e+00 3.0000000e+00 
0.0000000e+00 3.0000000e+00 4.0000000e+00 
0.0000000e+00 3.0000000e+00 5.0000000e+00 
0.0000000e+00 3.0000000e+00 6.0000000e+00 
0.0000000e+00 3.0000000e+00 7.0000000e+00 
0.0000000e+00 3.0000000e+00 8.0000000e+00 
0.0000000e+00 3.0000000e+00 9.0000000e+00 
0.0000000e+00 2.0000000e+00 1.0000000e+01 
0.0000000e+00 1.0000000e+00 1.0000000e+01 
4.0000000e+00 3.0000000e+00 0.0000000e+00 
3.0000000e+00 3.0000000e+00 0.0000000e+00 
2.0000000e+00 3.0000000e+00 0.0000000e+00 
4.0000000e+00 3.0000000e+00 1.0000000e+01 
3.0000000e+00 3.0000000e+00 1.0000000e+01 
2.0000000e+00 3.0000000e+00 1.0000000e+01 
4.0618000e+00 1.5000000e+00 0.0000000e+00 
1.5046000e+00 7.6549745e-01 0.0000000e+00 
2.5000000e+00 2.1339746e+00 0.0000000e+00 
1.5046000e+00 2.2345026e+00 0.0000000e+00 
2.4957771e+00 8.1560516e-01 0.0000000e+00 
3.4707544e+00 2.2336540e+00 0.0000000e+00 
3.4700506e+00 7.5794268e-01 0.0000000e+00 
8.6322361e-01 1.5000000e+00 0.0000000e+00 
2.0000000e+00 1.5000000e+00 0.0000000e+00 
2.9960666e+00 1.4974480e+00 0.0000000e+00 
4.2679491e+00 7.3205084e-01 0.0000000e+00 
4.2679491e+00 2.2679491e+00 0.0000000e+00 
7.2695929e-01 2.2730408e+00 0.0000000e+00 
7.2695929e-01 7.2695929e-01 0.0000000e+00 
4.1822505e+00 0.0000000e+00 2.5515697e+00 
4.2017918e+00 0.0000000e+00 4.4725966e+00 
4.1114569e+00 0.0000000e+00 6.5092020e+00 
8.6602539e-01 0.0000000e+00 3.5000000e+00 
8.4778279e-01 0.0000000e+00 5.4684029e+00 
8.9629614e-01 0.0000000e+00 7.5867257e+00 
2.5566745e+00 0.0000000e+00 8.1853306e-01 
2.4918270e+00 0.0000000e+00 9.1386929e+00 
8.4677207e-01 0.0000000e+00 1.5042374e+00 
4.0943027e+00 0.0000000e+00 8.4081745e+00 
8.6281651e-01 0.0000000e+00 2.5007062e+00 
1.7315160e+00 0.0000000e+00 3.0001178e+00 
1.7319617e+00 0.0000000e+00 4.0000196e+00 
2.5980761e+00 0.0000000e+00 3.5000000e+00 
2.5536871e+00 0.0000000e+00 4.4963923e+00 
2.5928419e+00 0.0000000e+00 2.4239938e+00 
1.5037409e+00 0.0000000e+00 9.1535149e+00 
1.8433737e+00 0.0000000e+00 8.1858873e+00 
3.0000000e+00 0.0000000e+00 8.2679491e+00 
2.5000000e+00 0.0000000e+00 7.4019237e+00 
3.5042722e+00 0.0000000e+00 7.4271150e+00 
3.0310018e+00 0.0000000e+00 6.5282087e+00 
2.0373929e+00 0.0000000e+00 6.5307913e+00 
3.4767809e+00 0.0000000e+00 5.8031492e+00 
2.5452602e+00 0.0000000e+00 5.5720768e+00 
1.6456656e+00 0.0000000e+00 1.9697139e+00 
8.6297011e-01 0.0000000e+00 4.4947371e+00 
1.0111579e+00 0.0000000e+00 6.5282545e+00 
3.4994321e+00 0.0000000e+00 8.4691072e-01 
4.1860156e+00 0.0000000e+00 3.5040276e+00 
1.7320508e+00 0.0000000e+00 5.0000000e+00 
4.0544066e+00 0.0000000e+00 1.5781221e+00 
1.5817389e+00 0.0000000e+00 9.3943578e-01 
8.3166349e-01 0.0000000e+00 8.5090933e+00 
3.4686174e+00 0.0000000e+00 9.1752682e+00 
3.0709300e+00 0.0000000e+00 1.5799091e+00 
3.3927374e+00 0.0000000e+00 3.0399952e+00 
3.3826034e+00 0.0000000e+00 3.9747651e+00 
4.3420062e+00 0.0000000e+00 7.4688983e+00 
3.4023225e+00 0.0000000e+00 4.9314723e+00 
1.6740381e+00 0.0000000e+00 7.3014426e+00 
4.2715640e+00 0.0000000e+00 5.4758859e+00 
1.6225953e+00 0.0000000e+00 5.8104177e+00 
4.2679491e+00 0.0000000e+00 9.2679491e+00 
7.3205084e-01 0.0000000e+00 7.3205084e-01 
4.2679491e+00 0.0000000e+00 7.3205084e-01 
7.3205084e-01 0.0000000e+00 9.2679491e+00 
3.4586334e+00 0.0000000e+00 2.2347178e+00 
2.2895701e+00 0.0000000e+00 1.5463171e+00 
5.0000000e+00 1.5000000e+00 9.3820012e-01 
5.0000000e+00 1.5000000e+00 9.0618000e+00 
5.0000000e+00 2.1339746e+00 2.5000000e+00 
5.0000000e+00 2.1582527e+00 4.4926300e+00 
5.0000000e+00 2.2774773e+00 7.4626446e+00 
5.0000000e+00 8.6602539e-01 3.5000000e+00 
5.0000000e+00 8.2692069e-01 5.5000000e+00 
5.0000000e+00 8.0628556e-01 7.4626446e+00 
5.0000000e+00 8.4408212e-01 4.5000000e+00 
5.0000000e+00 8.3320528e-01 6.4654617e+00 
5.0000000e+00 1.5653628e+00 5.9376192e+00 
5.0000000e+00 2.1339746e+00 3.5000000e+00 
5.0000000e+00 8.6602539e-01 2.5000000e+00 
5.0000000e+00 7.5638938e-01 8.4645281e+00 
5.0000000e+00 2.2575710e+00 8.4645281e+00 
5.0000000e+00 2.2336540e+00 1.5292456e+00 
5.0000000e+00 7.6634604e-01 1.5292456e+00 
5.0000000e+00 2.2649403e+00 5.4883747e+00 
5.0000000e+00 1.5584890e+00 6.9705243e+00 
5.0000000e+00 1.5000000e+00 4.0000000e+00 
5.0000000e+00 1.5000000e+00 3.0000000e+00 
5.0000000e+00 1.4974226e+00 5.0000000e+00 
5.0000000e+00 2.2777116e+00 6.4765272e+00 
5.0000000e+00 1.5000000e+00 2.0022767e+00 
5.0000000e+00 1.5067772e+00 7.9912200e+00 
5.0000000e+00 2.2679491e+00 9.2679491e+00 
5.0000000e+00 7.3205084e-01 7.3205084e-01 
5.0000000e+00 2.2679491e+00 7.3205084e-01 
5.0000000e+00 7.3205084e-01 9.2679491e+00 
0.0000000e+00 1.5000000e+00 9.3820012e-01 
0.0000000e+00 1.5000000e+00 9.0618000e+00 
0.0000000e+00 8.6602539e-01 2.5000000e+00 
0.0000000e+00 8.6602539e-01 4.5000000e+00 
0.0000000e+00 8.6602539e-01 6.5000000e+00 
0.0000000e+00 2.1339746e+00 3.5000000e+00 
0.0000000e+00 2.1339746e+00 5.5000000e+00 
0.0000000e+00 2.1339746e+00 7.5000000e+00 
0.0000000e+00 8.6602539e-01 3.5000000e+00 
0.0000000e+00 2.1339746e+00 2.5000000e+00 
0.0000000e+00 2.1339746e+00 4.5000000e+00 
0.0000000e+00 2.1339746e+00 6.5000000e+00 
0.0000000e+00 8.6602539e-01 5.5000000e+00 
0.0000000e+00 8.6602539e-01 7.5000000e+00 
0.0000000e+00 2.2336540e+00 8.4707546e+00 
0.0000000e+00 2.2336540e+00 1.5292456e+00 
0.0000000e+00 7.6634604e-01 8.4707546e+00 
0.0000000e+00 7.6634604e-01 1.5292456e+00 
0.0000000e+00 1.5000000e+00 4.0000000e+00 
0.0000000e+00 1.5000000e+00 6.0000000e+00 
0.0000000e+00 1.5000000e+00 3.0000000e+00 
0.0000000e+00 1.5000000e+00 5.0000000e+00 
0.0000000e+00 1.5000000e+00 7.0000000e+00 
0.0000000e+00 1.5000000e+00 8.0005512e+00 
0.0000000e+00 1.5000000e+00 2.0022767e+00 
0.0000000e+00 7.3205084e-01 9.2679491e+00 
0.0000000e+00 2.2679491e+00 7.3205084e-01 
0.0000000e+00 7.3205084e-01 7.3205084e-01 
0.0000000e+00 2.2679491e+00 9.2679491e+00 
1.5046000e+00 7.6549745e-01 1.0000000e+01 
4.0618000e+00 1.5000000e+00 1.0000000e+01 
2.5000000e+00 2.1339746e+00 1.0000000e+01 
1.5046000e+00 2.2345026e+00 1.0000000e+01 
2.4957771e+00 8.1560516e-01 1.0000000e+01 
3.4707544e+00 2.2336540e+00 1.0000000e+01 
3.4700506e+00 7.5794268e-01 1.0000000e+01 
8.6322361e-01 1.5000000e+00 1.0000000e+01 
2.0000000e+00 1.5000000e+00 1.0000000e+01 
2.9960666e+00 1.4974480e+00 1.0000000e+01 
4.2679491e+00 7.3205084e-01 1.0000000e+01 
4.2679491e+00 2.2679491e+00 1.0000000e+01 
7.2695929e-01 2.2730408e+00 1.0000000e+01 
7.2695929e-01 7.2695929e-01 1.0000000e+01 
1.4891552e+00 3.0000000e+00 2.2590268e+00 
1.4171888e+00 3.0000000e+00 3.6986542e+00 
1.5172310e+00 3.0000000e+00 5.7397003e+00 
1.4330127e+00 3.0000000e+00 7.2500000e+00 
1.4330127e+00 3.0000000e+00 4.7500000e+00 
1.4554617e+00 3.0000000e+00 8.2442541e+00 
4.1714277e+00 3.0000000e+00 6.4487247e+00 
4.1339746e+00 3.0000000e+00 2.5000000e+00 
[...]
POINT_DATA 377
FIELD FieldData 2
DISPLACEMENT 3 377  float
0.0000000e+00 0.0000000e+00 0.0000000e+00 
0.0000000e+00 0.0000000e+00 0.0000000e+00 
0.0000000e+00 1.2308503e-07 -5.4632233e-07 
0.0000000e+00 1.0767518e-06 6.3933214e-07 
0.0000000e+00 0.0000000e+00 0.0000000e+00 
0.0000000e+00 0.0000000e+00 0.0000000e+00 
0.0000000e+00 7.8994481e-07 -1.7195256e-06 
0.0000000e+00 -6.0619136e-06 -4.2099036e-06 
7.6303301e-09 7.1010658e-07 1.6288586e-06 
2.9778350e-08 4.1034588e-07 1.6686869e-06 
4.6509779e-08 1.8312605e-07 1.7297075e-06 
1.6040001e-08 -1.7745482e-09 1.8319132e-06 
-1.1580682e-07 -2.3637631e-07 1.9575493e-06 
-4.0293881e-07 -7.9351736e-07 2.1005044e-06 
-8.4522884e-07 -2.3759094e-06 2.2580057e-06 
-1.4164197e-06 -6.7760275e-06 2.4012602e-06 
-2.1431820e-06 -1.7689576e-05 2.4205290e-06 
-2.9138612e-06 -4.1390922e-05 2.3951138e-06 
-3.7322684e-06 -8.6159547e-05 2.0216683e-06 
-5.6514477e-06 -1.5750089e-04 1.5446956e-06 
-1.1490797e-05 -2.3132804e-04 8.8732946e-07 
-8.3755094e-06 -2.4504255e-04 -3.9548222e-08 
-2.9241269e-07 -1.8057428e-04 -9.7276984e-07 
-1.7495627e-07 -1.0617267e-04 -1.5717333e-06 
-1.2888444e-06 -5.3196258e-05 -1.9173401e-06 
-1.6510176e-06 -2.3225353e-05 -2.1136650e-06 
-1.1167531e-06 -7.8135909e-06 -2.2010397e-06 
0.0000000e+00 1.0602154e-06 1.6194268e-06 
0.0000000e+00 2.0640764e-06 -2.2847250e-06 
0.0000000e+00 0.0000000e+00 0.0000000e+00 
0.0000000e+00 0.0000000e+00 0.0000000e+00 
0.0000000e+00 0.0000000e+00 0.0000000e+00 
0.0000000e+00 0.0000000e+00 0.0000000e+00 
0.0000000e+00 -1.4098266e-07 -4.8395253e-07 
0.0000000e+00 3.1706364e-08 -6.4893175e-07 
0.0000000e+00 7.2532265e-07 -4.3164744e-07 
0.0000000e+00 1.8109516e-07 -7.7470565e-07 
0.0000000e+00 0.0000000e+00 0.0000000e+00 
0.0000000e+00 0.0000000e+00 0.0000000e+00 
0.0000000e+00 0.0000000e+00 0.0000000e+00 
0.0000000e+00 0.0000000e+00 0.0000000e+00 
0.0000000e+00 0.0000000e+00 0.0000000e+00 
0.0000000e+00 0.0000000e+00 0.0000000e+00 
0.0000000e+00 0.0000000e+00 0.0000000e+00 
0.0000000e+00 0.0000000e+00 0.0000000e+00 
0.0000000e+00 0.0000000e+00 0.0000000e+00 
0.0000000e+00 0.0000000e+00 0.0000000e+00 
0.0000000e+00 0.0000000e+00 0.0000000e+00 
0.0000000e+00 0.0000000e+00 0.0000000e+00 
0.0000000e+00 0.0000000e+00 0.0000000e+00 
0.0000000e+00 0.0000000e+00 0.0000000e+00 
0.0000000e+00 0.0000000e+00 0.0000000e+00 
0.0000000e+00 0.0000000e+00 0.0000000e+00 
0.0000000e+00 0.0000000e+00 0.0000000e+00 
0.0000000e+00 0.0000000e+00 0.0000000e+00 
0.0000000e+00 0.0000000e+00 0.0000000e+00 
0.0000000e+00 0.0000000e+00 0.0000000e+00 
0.0000000e+00 0.0000000e+00 0.0000000e+00 
0.0000000e+00 0.0000000e+00 0.0000000e+00 
0.0000000e+00 7.6398663e-08 -5.0900530e-07 
0.0000000e+00 3.2865398e-08 -3.2069786e-07 
0.0000000e+00 -1.5643710e-07 9.6845937e-08 
0.0000000e+00 -2.7651032e-07 4.7572021e-07 
0.0000000e+00 -1.0259146e-06 9.7588179e-07 
0.0000000e+00 -2.1062970e-06 6.0511667e-07 
0.0000000e+00 -2.0069035e-06 1.6136934e-07 
0.0000000e+00 -9.8887904e-07 -9.8645148e-07 
0.0000000e+00 -1.2147008e-06 -1.2401501e-06 
0.0000000e+00 -3.7835434e-07 1.6414393e-06 
0.0000000e+00 3.6893925e-07 7.7060633e-07 
0.0000000e+00 3.3943903e-07 6.2916695e-07 
0.0000000e+00 -2.0846700e-07 9.2334869e-07 
0.0000000e+00 -2.3494706e-06 1.7902413e-06 
0.0000000e+00 -9.7624770e-06 4.4879134e-06 
0.0000000e+00 -3.9020033e-05 8.4498333e-06 
0.0000000e+00 -8.0122802e-05 1.0468500e-05 
0.0000000e+00 -1.1304011e-04 -1.2950757e-06 
0.0000000e+00 -6.1549566e-05 -1.0906715e-05 
0.0000000e+00 -2.4172194e-05 -7.4826835e-06 
0.0000000e+00 -8.5881711e-06 9.6830727e-06 
0.0000000e+00 -7.7699942e-06 1.1376961e-05 
0.0000000e+00 1.7032851e-07 -5.2245537e-07 
0.0000000e+00 2.8528967e-07 -3.4983753e-07 
0.0000000e+00 6.0514964e-07 2.3132857e-07 
0.0000000e+00 3.5641474e-07 -1.6546434e-06 
0.0000000e+00 -1.1994425e-06 -2.2350032e-06 
0.0000000e+00 -5.5958094e-06 -3.0865253e-06 
0.0000000e+00 -5.0926303e-08 -7.0977762e-07 
0.0000000e+00 -4.5331614e-08 -6.2226576e-07 
0.0000000e+00 3.4867776e-07 -6.9103953e-07 
0.0000000e+00 6.6223686e-07 -2.1585969e-07 
0.0000000e+00 -7.6026971e-08 -6.1459758e-07 
0.0000000e+00 1.6436606e-07 -7.0831311e-07 
0.0000000e+00 -9.4051856e-08 -4.7347993e-07 
0.0000000e+00 4.0728185e-07 -7.2432113e-07 
0.0000000e+00 2.4775812e-07 -7.2021300e-07 
0.0000000e+00 5.4957269e-08 -7.6045876e-07 
0.0000000e+00 -1.2300350e-07 -4.1025584e-07 
0.0000000e+00 9.6069570e-08 -6.5931653e-07 
0.0000000e+00 8.5280953e-07 5.0910041e-09 
0.0000000e+00 7.8330700e-08 -5.3705020e-07 
0.0000000e+00 0.0000000e+00 0.0000000e+00 
0.0000000e+00 0.0000000e+00 0.0000000e+00 
0.0000000e+00 0.0000000e+00 0.0000000e+00 
0.0000000e+00 0.0000000e+00 0.0000000e+00 
0.0000000e+00 0.0000000e+00 0.0000000e+00 
0.0000000e+00 0.0000000e+00 0.0000000e+00 
0.0000000e+00 0.0000000e+00 0.0000000e+00 
0.0000000e+00 0.0000000e+00 0.0000000e+00 
0.0000000e+00 0.0000000e+00 0.0000000e+00 
0.0000000e+00 0.0000000e+00 0.0000000e+00 
0.0000000e+00 0.0000000e+00 0.0000000e+00 
0.0000000e+00 0.0000000e+00 0.0000000e+00 
0.0000000e+00 0.0000000e+00 0.0000000e+00 
0.0000000e+00 0.0000000e+00 0.0000000e+00 
0.0000000e+00 0.0000000e+00 0.0000000e+00 
0.0000000e+00 0.0000000e+00 0.0000000e+00 
0.0000000e+00 0.0000000e+00 0.0000000e+00 
0.0000000e+00 0.0000000e+00 0.0000000e+00 
0.0000000e+00 0.0000000e+00 0.0000000e+00 
0.0000000e+00 0.0000000e+00 0.0000000e+00 
0.0000000e+00 0.0000000e+00 0.0000000e+00 
0.0000000e+00 0.0000000e+00 0.0000000e+00 
0.0000000e+00 0.0000000e+00 0.0000000e+00 
0.0000000e+00 0.0000000e+00 0.0000000e+00 
0.0000000e+00 0.0000000e+00 0.0000000e+00 
0.0000000e+00 0.0000000e+00 0.0000000e+00 
0.0000000e+00 0.0000000e+00 0.0000000e+00 
0.0000000e+00 0.0000000e+00 0.0000000e+00 
0.0000000e+00 0.0000000e+00 0.0000000e+00 
0.0000000e+00 0.0000000e+00 0.0000000e+00 
0.0000000e+00 0.0000000e+00 0.0000000e+00 
0.0000000e+00 0.0000000e+00 0.0000000e+00 
0.0000000e+00 0.0000000e+00 0.0000000e+00 
0.0000000e+00 0.0000000e+00 0.0000000e+00 
0.0000000e+00 0.0000000e+00 0.0000000e+00 
0.0000000e+00 0.0000000e+00 0.0000000e+00 
0.0000000e+00 0.0000000e+00 0.0000000e+00 
0.0000000e+00 0.0000000e+00 0.0000000e+00 
0.0000000e+00 0.0000000e+00 0.0000000e+00 
0.0000000e+00 0.0000000e+00 0.0000000e+00 
0.0000000e+00 0.0000000e+00 0.0000000e+00 
0.0000000e+00 0.0000000e+00 0.0000000e+00 
0.0000000e+00 0.0000000e+00 0.0000000e+00 
0.0000000e+00 0.0000000e+00 0.0000000e+00 
0.0000000e+00 0.0000000e+00 0.0000000e+00 
0.0000000e+00 0.0000000e+00 0.0000000e+00 
0.0000000e+00 0.0000000e+00 0.0000000e+00 
0.0000000e+00 0.0000000e+00 0.0000000e+00 
0.0000000e+00 0.0000000e+00 0.0000000e+00 
0.0000000e+00 3.1010860e-08 -6.5094258e-07 
0.0000000e+00 -5.4748028e-07 1.3223810e-06 
0.0000000e+00 1.8843718e-07 -5.6913996e-07 
0.0000000e+00 -1.2922328e-07 -3.4962866e-07 
0.0000000e+00 -7.8515802e-07 2.5268291e-08 
0.0000000e+00 -6.3116964e-08 -7.3357160e-07 
0.0000000e+00 -6.3058565e-07 -5.2662318e-07 
0.0000000e+00 -1.1090826e-06 6.1123313e-07 
0.0000000e+00 -5.3166320e-07 -7.8587021e-07 
0.0000000e+00 -1.1154441e-06 5.5853263e-08 
0.0000000e+00 -9.3686094e-07 -2.8725665e-07 
0.0000000e+00 4.7688374e-08 -4.0425806e-07 
0.0000000e+00 -3.0915572e-08 -6.0099893e-07 
0.0000000e+00 -7.1449159e-07 1.1122726e-06 
0.0000000e+00 -6.9237478e-07 1.4737685e-07 
0.0000000e+00 1.2224366e-07 -6.2112059e-07 
0.0000000e+00 1.1007557e-10 -4.5540651e-07 
0.0000000e+00 -7.6209807e-07 1.4303751e-07 
0.0000000e+00 -1.2908188e-06 3.4086011e-07 
0.0000000e+00 -1.8126036e-07 -7.2703580e-07 
0.0000000e+00 1.1561606e-07 -6.7808412e-07 
0.0000000e+00 -5.6761417e-07 -8.1451600e-07 
0.0000000e+00 -9.5782514e-07 1.1946068e-07 
0.0000000e+00 7.0593678e-08 -6.5546044e-07 
0.0000000e+00 -9.2316901e-07 8.0170923e-07 
0.0000000e+00 -2.0665696e-07 1.7698966e-07 
0.0000000e+00 -2.3431415e-08 -3.7165239e-07 
0.0000000e+00 9.4438768e-08 -6.4471595e-07 
0.0000000e+00 -4.0993433e-07 1.3660213e-06 
0.0000000e+00 2.2125744e-07 -8.6220547e-07 
0.0000000e+00 -1.6347560e-05 1.2163445e-05 
0.0000000e+00 -1.3366905e-06 -2.9373043e-06 
0.0000000e+00 -9.7537095e-06 -7.6843835e-06 
0.0000000e+00 -2.6633643e-05 -1.5639376e-06 
0.0000000e+00 -5.1341608e-06 -3.2391040e-06 
0.0000000e+00 -5.0131028e-05 -8.3402465e-06 
0.0000000e+00 -7.0627400e-05 1.0671455e-05 
0.0000000e+00 -3.6047670e-06 -4.9974401e-06 
0.0000000e+00 -1.1243108e-06 -1.8017023e-06 
0.0000000e+00 -1.8504415e-05 -6.6042758e-06 
0.0000000e+00 -8.6315755e-05 -4.6816799e-06 
0.0000000e+00 -1.9576251e-05 -7.6936658e-06 
0.0000000e+00 -2.4982537e-05 6.5941827e-06 
0.0000000e+00 -3.7776052e-05 1.0731528e-05 
0.0000000e+00 6.0038758e-08 -5.9726869e-07 
0.0000000e+00 -1.3984674e-05 9.4402758e-06 
0.0000000e+00 -2.2812149e-07 -1.3183520e-06 
0.0000000e+00 -9.1480206e-06 -7.3446959e-06 
0.0000000e+00 -4.7840589e-05 -8.6680848e-06 
0.0000000e+00 -2.5360255e-06 -3.8006569e-06 
0.0000000e+00 -2.4240238e-05 -1.1596952e-05 
0.0000000e+00 -5.3186439e-05 3.3295030e-06 
0.0000000e+00 -3.7434307e-05 1.1867676e-05 
0.0000000e+00 -5.2166001e-07 -1.8475779e-06 
0.0000000e+00 -8.2924907e-06 8.8867791e-06 
0.0000000e+00 4.3911140e-07 -2.8963331e-07 
0.0000000e+00 7.2329179e-08 -8.0709788e-07 
0.0000000e+00 -1.6833605e-05 8.0168029e-06 
0.0000000e+00 -5.9036188e-06 8.0054606e-06 
0.0000000e+00 -6.4057599e-07 2.3921239e-06 
0.0000000e+00 -3.0648855e-06 4.0653135e-06 
0.0000000e+00 -6.2938093e-06 7.0850597e-06 
0.0000000e+00 -2.6607477e-06 4.5601287e-06 
0.0000000e+00 -7.5705151e-07 1.3656909e-06 
0.0000000e+00 -1.5381547e-06 2.6158266e-06 
0.0000000e+00 -7.6908200e-06 1.1802981e-05 
0.0000000e+00 -5.2880496e-06 7.1342629e-06 
0.0000000e+00 -2.1271667e-06 4.3558589e-06 
0.0000000e+00 -7.0584247e-07 1.8186560e-06 
0.0000000e+00 2.2554876e-07 5.5373584e-07 
0.0000000e+00 -5.4156785e-06 6.2648683e-06 
0.0000000e+00 -4.3351047e-06 8.4193625e-06 
-7.7042429e-08 -3.7270050e-07 1.0580854e-06 
-1.2719635e-06 -5.0626404e-06 2.9284413e-06 
-9.5461346e-06 -6.6813744e-05 6.7926790e-06 
-1.4264369e-05 -1.0886130e-04 -3.7132950e-06 
-3.9960369e-06 -2.3072427e-05 6.7797464e-06 
-2.9342013e-06 -5.6610199e-05 -2.8289292e-06 
-4.0170762e-06 -3.1754389e-06 4.6576235e-07 
-2.1530865e-07 -5.0738791e-08 -1.2401465e-07 
-1.5414579e-06 -1.2753724e-06 1.0016694e-06 
-2.9772297e-08 2.1313016e-07 8.5381203e-07 
-2.6852344e-06 -2.5452212e-06 -1.3220540e-06 
-3.8664125e-06 -9.4391216e-06 -2.6543289e-06 
3.8182519e-09 8.5236778e-08 -4.0882657e-07 
-1.7043427e-06 -1.2534673e-05 -2.5999775e-06 
-3.2448843e-06 -2.3949065e-06 1.1172891e-06 
-8.2599227e-06 -9.1077809e-06 1.9840770e-06 
-9.4727629e-06 -1.0586989e-05 -2.2703407e-08 
-1.1220533e-05 -2.0781017e-05 1.1371112e-06 
-1.0885049e-05 -1.5973759e-05 3.8726516e-06 
-1.4146513e-05 -2.3035769e-05 -1.4626074e-06 
-8.6880618e-06 -1.1196455e-05 -4.6051352e-07 
-1.3129823e-05 -2.0946538e-05 -4.1323519e-06 
-1.8014985e-05 -5.5451383e-05 -1.8089395e-07 
-6.3323555e-06 -8.9394862e-06 -2.4768112e-06 
-1.7340535e-05 -3.8440005e-05 5.9965491e-06 
-1.0590523e-05 -2.6578868e-05 6.4009319e-06 
-6.3619368e-06 -1.0403031e-05 4.0750833e-06 
-4.9734458e-06 -5.8880100e-06 2.1247176e-06 
-2.9786754e-06 -4.3501941e-06 1.6578210e-06 
-2.6937098e-06 -5.7346069e-06 3.1059317e-06 
-2.0165785e-06 -2.3884586e-06 1.5431456e-06 
-1.3003404e-06 -3.0997689e-06 1.7816919e-06 
-4.8228173e-07 -1.0287310e-06 5.2476895e-07 
-4.3026810e-07 -9.9038846e-07 8.5440018e-07 
-3.5713549e-07 -2.6757192e-07 2.7145629e-07 
-1.0123361e-07 -3.2736142e-07 1.6242376e-07 
2.2849463e-08 -5.7558161e-08 -1.4649996e-07 
-7.1076573e-07 -2.7628178e-07 4.5910642e-07 
-6.4919482e-07 -2.7508086e-06 1.8054126e-06 
-5.1382276e-06 -3.8364287e-06 -2.7744423e-07 
-2.2058537e-05 -7.5773285e-05 7.3614838e-06 
-1.1043221e-07 -3.2263614e-08 -2.7434513e-07 
-3.0732824e-06 -4.4327371e-06 -2.6238954e-06 
-1.6225244e-05 -4.3662276e-05 -2.9042537e-06 
-5.0711219e-06 -1.3009259e-05 4.8025058e-06 
-1.3132308e-07 -1.0653935e-06 1.7617035e-06 
-2.1643627e-06 -1.1409550e-05 4.3460718e-06 
-1.7366782e-06 -5.8078435e-06 2.9183914e-06 
-1.0659769e-05 -4.4985652e-05 1.0544868e-05 
7.3251542e-08 1.8232964e-07 -2.1048305e-07 
5.5951915e-08 1.2141344e-07 1.9705683e-07 
-8.5522188e-06 -8.2469589e-05 -4.1441117e-06 
-3.7043633e-06 -2.8837292e-05 -4.6278342e-06 
-4.9914333e-06 -2.9631849e-05 -3.7504078e-06 
-6.8927534e-08 6.7764951e-08 -4.2193486e-07 
6.5611282e-08 4.1652879e-07 6.5641132e-07 
5.1277496e-08 3.1234379e-08 9.6022779e-07 
-3.0016448e-05 -1.1475416e-04 2.1500728e-06 
-1.0486971e-07 -8.7717996e-07 6.5615160e-07 
-1.0723239e-05 -3.9481303e-05 -4.1202852e-06 
-6.7860782e-07 -4.2779121e-07 4.2223400e-07 
-4.9676044e-07 -2.7982048e-06 2.1923906e-06 
-1.8829949e-06 -1.6106352e-06 1.2060331e-06 
-6.1535898e-06 -1.5006141e-05 -3.6359813e-06 
-3.4166687e-06 -1.6405271e-05 -2.7648550e-06 
-1.4815133e-06 -1.2005028e-06 -1.5456538e-06 
-1.8026745e-08 1.0488041e-07 -4.9826178e-07 
-5.8262726e-06 -5.6641525e-06 -1.4119387e-06 
-7.9991123e-06 -2.5180991e-05 5.9346776e-06 
-3.3082415e-07 -2.0515395e-07 5.0398331e-08 
4.1758351e-08 -3.1900925e-07 1.3808603e-06 
-3.5218651e-08 2.0802737e-08 1.1974379e-06 
-1.0533791e-07 -1.1683626e-06 1.7239533e-06 
-4.4109717e-07 -3.6575827e-06 2.4479211e-06 
2.5809994e-08 2.8070139e-07 1.0632693e-06 
-6.6958381e-07 -7.2008656e-06 3.6513170e-06 
-1.4495739e-06 -1.4545625e-05 4.1759267e-06 
-1.2832982e-06 -3.1125433e-05 6.7758710e-06 
-2.7666754e-06 -5.6988116e-05 7.0455808e-06 
-6.9667039e-06 -9.1712638e-05 3.9191232e-06 
-1.2627826e-05 -1.2804185e-04 2.7977194e-06 
-1.6511311e-05 -1.5036661e-04 -9.2440683e-07 
-6.1734322e-06 -1.2692581e-04 -3.8093858e-06 
2.8195789e-06 -8.9134279e-05 -8.1168428e-06 
5.8942220e-08 -5.8911635e-05 -8.1272819e-06 
-1.0800688e-06 -3.3928212e-05 -6.1514397e-06 
-7.9234667e-07 -1.5181898e-05 -4.1946942e-06 
-2.6986672e-08 5.7017212e-07 1.0433545e-06 
3.9976680e-06 -1.9875139e-05 -8.8451052e-06 
8.4193618e-07 -2.1331107e-06 -3.6291840e-06 
7.4928826e-06 -4.8614034e-05 -2.8347133e-06 
6.2133345e-06 -3.1903808e-05 9.8521059e-06 
1.6259521e-07 -7.9167556e-08 -1.3294766e-06 
5.7350417e-07 -4.7475240e-07 -1.5206078e-06 
1.8532169e-06 -3.3083393e-06 -2.8594527e-06 
6.2393106e-06 -1.0364214e-05 -1.8787562e-06 
3.7080119e-06 -6.7570736e-06 2.6681710e-06 
9.0029221e-07 -7.8042485e-06 -5.3006061e-06 
2.0726768e-06 -2.6465808e-05 1.1996812e-05 
2.0749614e-07 -3.9279377e-07 -1.1992130e-06 
2.6465668e-07 -2.8530883e-06 -2.1697747e-06 
4.4664125e-06 -8.4993604e-05 7.9484544e-06 
6.5004139e-07 -2.3256429e-05 -7.9326765e-06 
2.1415949e-06 -5.9241225e-05 -1.1329776e-05 
1.3137007e-07 -7.0784285e-09 -9.4638278e-07 
6.5090430e-06 -1.9374264e-05 1.4478309e-06 
3.4733199e-07 -6.9867730e-07 -1.3384490e-06 
1.7264350e-06 -2.7668898e-06 -1.4100171e-06 
5.5745609e-08 1.8747076e-07 -4.5094242e-07 
5.0677289e-07 -5.3611319e-07 -1.1561978e-06 
2.1855651e-06 -1.6134751e-05 -3.2892692e-06 
2.1860194e-07 -1.5241913e-07 -1.1475993e-06 
3.1500590e-06 -9.1340507e-06 6.0071297e-06 
-4.7669252e-07 -5.9886337e-05 1.3873602e-05 
2.0273199e-06 -3.8098003e-06 -1.7750118e-08 
4.4083140e-06 -7.3863780e-06 -3.7926366e-06 
5.0514996e-07 -3.3677809e-06 -2.2179365e-06 
2.8781852e-07 -7.5024201e-07 -2.1962751e-06 
2.3004986e-06 -5.0000490e-06 -5.6079994e-06 
3.3398678e-06 -1.1473889e-05 9.6022377e-06 
6.5245854e-06 -3.6056481e-05 -4.8995707e-06 
6.4271799e-06 -9.5257717e-05 -3.5408389e-06 
4.1857666e-06 -3.2683220e-05 5.8117844e-06 
2.3315617e-06 -2.7025726e-06 -3.9335399e-07 
9.2448964e-08 2.6322105e-08 -8.2382553e-07 
2.1914325e-07 -1.4244364e-07 -8.0789539e-07 
4.5222428e-06 -2.5419200e-05 -7.0244701e-06 
1.4620407e-06 -2.0403222e-06 2.3175141e-06 
4.6702232e-07 -4.0871737e-06 -5.2995533e-06 
1.4784271e-06 -1.1428175e-05 -9.0470385e-06 
5.0678608e-07 -7.7761717e-07 -1.9595584e-06 
5.3825897e-06 -1.0620635e-05 3.3179856e-06 
6.3070938e-06 -1.4166684e-05 -3.0509427e-06 
5.8956920e-07 -1.9568347e-06 6.0610404e-07 
3.4438926e-07 -1.3098944e-06 -1.2724703e-06 
1.6751345e-07 -9.8998477e-08 -8.8467561e-07 
4.9371847e-06 -6.6392636e-06 7.5356371e-07 
8.5665670e-07 -9.7315922e-07 -1.5480875e-06 
1.4485352e-07 -5.0714188e-08 -8.0199493e-07 
1.3565892e-06 -2.1661172e-06 -3.2429832e-06 
2.9925125e-06 -4.8650607e-05 3.7879267e-06 
7.7011367e-07 -8.1088604e-07 -1.3717378e-06 
2.6011667e-06 -1.9881882e-05 1.2128340e-05 
7.9531230e-07 -3.6588158e-06 -2.6650295e-07 
3.1459369e-06 -1.7081938e-05 2.4240821e-06 
6.5611140e-08 -7.2432911e-08 -8.4543603e-07 
1.0558554e-06 -8.8113165e-06 -1.0683074e-06 
9.6646329e-07 -2.8597002e-05 -4.1355793e-06 
2.7809128e-07 -9.8635028e-06 -2.1509138e-06 
8.8937452e-07 -3.6468894e-06 2.1046792e-06 
7.9524470e-06 -1.6896607e-05 7.8930356e-07 
2.1910334e-06 -2.4043075e-06 1.0824481e-06 
1.2487037e-07 -8.1365918e-08 -7.6964784e-07 
2.2431044e-07 -1.4415045e-06 -9.5662188e-07 
3.1691761e-07 -5.5203673e-06 -1.0685521e-06 
TOTAL_DISPLACEMENT 3 377  float
0.0000000e+00 0.0000000e+00 0.0000000e+00 
0.0000000e+00 0.0000000e+00 0.0000000e+00 
0.0000000e+00 0.0000000e+00 0.0000000e+00 
0.0000000e+00 0.0000000e+00 0.0000000e+00 
0.0000000e+00 0.0000000e+00 0.0000000e+00 
0.0000000e+00 0.0000000e+00 0.0000000e+00 
0.0000000e+00 0.0000000e+00 0.0000000e+00 
0.0000000e+00 0.0000000e+00 0.0000000e+00 
0.0000000e+00 0.0000000e+00 0.0000000e+00 
0.0000000e+00 0.0000000e+00 0.0000000e+00 
0.0000000e+00 0.0000000e+00 0.0000000e+00 
0.0000000e+00 0.0000000e+00 0.0000000e+00 
0.0000000e+00 0.0000000e+00 0.0000000e+00 
0.0000000e+00 0.0000000e+00 0.0000000e+00 
0.0000000e+00 0.0000000e+00 0.0000000e+00 
0.0000000e+00 0.0000000e+00 0.0000000e+00 
0.0000000e+00 0.0000000e+00 0.0000000e+00 
0.0000000e+00 0.0000000e+00 0.0000000e+00 
0.0000000e+00 0.0000000e+00 0.0000000e+00 
0.0000000e+00 0.0000000e+00 0.0000000e+00 
0.0000000e+00 0.0000000e+00 0.0000000e+00 
0.0000000e+00 0.0000000e+00 0.0000000e+00 
0.0000000e+00 0.0000000e+00 0.0000000e+00 
0.0000000e+00 0.0000000e+00 0.0000000e+00 
0.0000000e+00 0.0000000e+00 0.0000000e+00 
0.0000000e+00 0.0000000e+00 0.0000000e+00 
0.0000000e+00 0.0000000e+00 0.0000000e+00 
0.0000000e+00 0.0000000e+00 0.0000000e+00 
0.0000000e+00 0.0000000e+00 0.0000000e+00 
0.0000000e+00 0.0000000e+00 0.0000000e+00 
0.0000000e+00 0.0000000e+00 0.0000000e+00 
0.0000000e+00 0.0000000e+00 0.0000000e+00 
0.0000000e+00 0.0000000e+00 0.0000000e+00 
0.0000000e+00 0.0000000e+00 0.0000000e+00 
0.0000000e+00 0.0000000e+00 0.0000000e+00 
0.0000000e+00 0.0000000e+00 0.0000000e+00 
0.0000000e+00 0.0000000e+00 0.0000000e+00 
0.0000000e+00 0.0000000e+00 0.0000000e+00 
0.0000000e+00 0.0000000e+00 0.0000000e+00 
0.0000000e+00 0.0000000e+00 0.0000000e+00 
0.0000000e+00 0.0000000e+00 0.0000000e+00 
0.0000000e+00 0.0000000e+00 0.0000000e+00 
0.0000000e+00 0.0000000e+00 0.0000000e+00 
0.0000000e+00 0.0000000e+00 0.0000000e+00 
0.0000000e+00 0.0000000e+00 0.0000000e+00 
0.0000000e+00 0.0000000e+00 0.0000000e+00 
0.0000000e+00 0.0000000e+00 0.0000000e+00 
0.0000000e+00 0.0000000e+00 0.0000000e+00 
0.0000000e+00 0.0000000e+00 0.0000000e+00 
0.0000000e+00 0.0000000e+00 0.0000000e+00 
0.0000000e+00 0.0000000e+00 0.0000000e+00 
0.0000000e+00 0.0000000e+00 0.0000000e+00 
0.0000000e+00 0.0000000e+00 0.0000000e+00 
0.0000000e+00 0.0000000e+00 0.0000000e+00 
0.0000000e+00 0.0000000e+00 0.0000000e+00 
0.0000000e+00 0.0000000e+00 0.0000000e+00 
0.0000000e+00 0.0000000e+00 0.0000000e+00 
0.0000000e+00 0.0000000e+00 0.0000000e+00 
0.0000000e+00 0.0000000e+00 0.0000000e+00 
0.0000000e+00 0.0000000e+00 0.0000000e+00 
0.0000000e+00 0.0000000e+00 0.0000000e+00 
0.0000000e+00 0.0000000e+00 0.0000000e+00 
0.0000000e+00 0.0000000e+00 0.0000000e+00 
0.0000000e+00 0.0000000e+00 0.0000000e+00 
0.0000000e+00 0.0000000e+00 0.0000000e+00 
0.0000000e+00 0.0000000e+00 0.0000000e+00 
0.0000000e+00 0.0000000e+00 0.0000000e+00 
0.0000000e+00 0.0000000e+00 0.0000000e+00 
0.0000000e+00 0.0000000e+00 0.0000000e+00 
0.0000000e+00 0.0000000e+00 0.0000000e+00 
0.0000000e+00 0.0000000e+00 0.0000000e+00 
0.0000000e+00 0.0000000e+00 0.0000000e+00 
0.0000000e+00 0.0000000e+00 0.0000000e+00 
0.0000000e+00 0.0000000e+00 0.0000000e+00 