# vtk DataFile Version 4.0
vtk output
ASCII
DATASET UNSTRUCTURED_GRID
POINTS 377 float
0.0000000e+00 0.0000000e+00 0.0000000e+00 
5.0000000e+00 0.0000000e+00 0.0000000e+00 
5.0000000e+00 3.0000000e+00 0.0000000e+00 
0.0000000e+00 3.0000000e+00 0.0000000e+00 
0.0000000e+00 0.0000000e+00 1.0000000e+01 
5.0000000e+00 0.0000000e+00 1.0000000e+01 
5.0000000e+00 3.0000000e+00 1.0000000e+01 
0.0000000e+00 3.0000000e+00 1.0000000e+01 
1.0000000e+00 3.0000000e+00 5.0000000e-01 
1.0000000e+00 3.0000000e+00 1.0000000e+00 
1.0000000e+00 3.0000000e+00 1.5000000e+00 
1.0000000e+00 3.0000000e+00 2.0000000e+00 
1.0000000e+00 3.0000000e+00 2.5000000e+00 
1.0000000e+00 3.0000000e+00 3.0000000e+00 
1.0000000e+00 3.0000000e+00 3.5000000e+00 
1.0000000e+00 3.0000000e+00 4.0000000e+00 
1.0000000e+00 3.0000000e+00 4.5000000e+00 
1.0000000e+00 3.0000000e+00 5.0000000e+00 
1.0000000e+00 3.0000000e+00 5.5000000e+00 
1.0000000e+00 3.0000000e+00 6.0000000e+00 
1.0000000e+00 3.0000000e+00 6.5000000e+00 
1.0000000e+00 3.0000000e+00 7.0000000e+00 
1.0000000e+00 3.0000000e+00 7.5000000e+00 
1.0000000e+00 3.0000000e+00 8.0000000e+00 
1.0000000e+00 3.0000000e+00 8.5000000e+00 
1.0000000e+00 3.0000000e+00 9.0000000e+00 
1.0000000e+00 3.0000000e+00 9.5000000e+00 
1.0000000e+00 3.0000000e+00 0.0000000e+00 
1.0000000e+00 3.0000000e+00 1.0000000e+01 
1.0000000e+00 0.0000000e+00 0.0000000e+00 
2.0000000e+00 0.0000000e+00 0.0000000e+00 
3.0000000e+00 0.0000000e+00 0.0000000e+00 
4.0000000e+00 0.0000000e+00 0.0000000e+00 
5.0000000e+00 1.0000000e+00 0.0000000e+00 
5.0000000e+00 2.0000000e+00 0.0000000e+00 
0.0000000e+00 2.0000000e+00 0.0000000e+00 
0.0000000e+00 1.0000000e+00 0.0000000e+00 
0.0000000e+00 0.0000000e+00 1.0000000e+00 
0.0000000e+00 0.0000000e+00 2.0000000e+00 
0.0000000e+00 0.0000000e+00 3.0000000e+00 
0.0000000e+00 0.0000000e+00 4.0000000e+00 
0.0000000e+00 0.0000000e+00 5.0000000e+00 
0.0000000e+00 0.0000000e+00 6.0000000e+00 
0.0000000e+00 0.0000000e+00 7.0000000e+00 
0.0000000e+00 0.0000000e+00 8.0000000e+00 
0.0000000e+00 0.0000000e+00 9.0000000e+00 
5.0000000e+00 0.0000000e+00 1.0000000e+00 
5.0000000e+00 0.0000000e+00 2.0000000e+00 
5.0000000e+00 0.0000000e+00 3.0000000e+00 
5.0000000e+00 0.0000000e+00 4.0000000e+00 
5.0000000e+00 0.0000000e+00 5.0000000e+00 
5.0000000e+00 0.0000000e+00 6.0000000e+00 
5.0000000e+00 0.0000000e+00 7.0000000e+00 
5.0000000e+00 0.0000000e+00 8.0000000e+00 
5.0000000e+00 0.0000000e+00 9.0000000e+00 
1.0000000e+00 0.0000000e+00 1.0000000e+01 
2.0000000e+00 0.0000000e+00 1.0000000e+01 
3.0000000e+00 0.0000000e+00 1.0000000e+01 
4.0000000e+00 0.0000000e+00 1.0000000e+01 
5.0000000e+00 3.0000000e+00 1.0000000e+00 
5.0000000e+00 3.0000000e+00 2.0000000e+00 
5.0000000e+00 3.0000000e+00 3.0000000e+00 
5.0000000e+00 3.0000000e+00 4.0000000e+00 
5.0000000e+00 3.0000000e+00 5.0000000e+00 
5.0000000e+00 3.0000000e+00 6.0000000e+00 
5.0000000e+00 3.0000000e+00 7.0000000e+00 
5.0000000e+00 3.0000000e+00 8.0000000e+00 
5.0000000e+00 3.0000000e+00 9.0000000e+00 
5.0000000e+00 1.0000000e+00 1.0000000e+01 
5.0000000e+00 2.0000000e+00 1.0000000e+01 
0.0000000e+00 3.0000000e+00 1.0000000e+00 
0.0000000e+00 3.0000000e+00 2.0000000e+00 
0.0000000e+00 3.0000000e+00 3.0000000e+00 
0.0000000e+00 3.0000000e+00 4.0000000e+00 
0.0000000e+00 3.0000000e+00 5.0000000e+00 
0.0000000e+00 3.0000000e+00 6.0000000e+00 
0.0000000e+00 3.0000000e+00 7.0000000e+00 
0.0000000e+00 3.0000000e+00 8.0000000e+00 
0.0000000e+00 3.0000000e+00 9.0000000e+00 
0.0000000e+00 2.0000000e+00 1.0000000e+01 
0.0000000e+00 1.0000000e+00 1.0000000e+01 
4.0000000e+00 3.0000000e+00 0.0000000e+00 
3.0000000e+00 3.0000000e+00 0.0000000e+00 
2.0000000e+00 3.0000000e+00 0.0000000e+00 
4.0000000e+00 3.0000000e+00 1.0000000e+01 
3.0000000e+00 3.0000000e+00 1.0000000e+01 
2.0000000e+00 3.0000000e+00 1.0000000e+01 
4.0618000e+00 1.5000000e+00 0.0000000e+00 
1.5046000e+00 7.6549745e-01 0.0000000e+00 
2.5000000e+00 2.1339746e+00 0.0000000e+00 
1.5046000e+00 2.2345026e+00 0.0000000e+00 
2.4957771e+00 8.1560516e-01 0.0000000e+00 
3.4707544e+00 2.2336540e+00 0.0000000e+00 
3.4700506e+00 7.5794268e-01 0.0000000e+00 
8.6322361e-01 1.5000000e+00 0.0000000e+00 
2.0000000e+00 1.5000000e+00 0.0000000e+00 
2.9960666e+00 1.4974480e+00 0.0000000e+00 
4.2679491e+00 7.3205084e-01 0.0000000e+00 
4.2679491e+00 2.2679491e+00 0.0000000e+00 
7.2695929e-01 2.2730408e+00 0.0000000e+00 
7.2695929e-01 7.2695929e-01 0.0000000e+00 
4.1822505e+00 0.0000000e+00 2.5515697e+00 
4.2017918e+00 0.0000000e+00 4.4725966e+00 
4.1114569e+00 0.0000000e+00 6.5092020e+00 
8.6602539e-01 0.0000000e+00 3.5000000e+00 
8.4778279e-01 0.0000000e+00 5.4684029e+00 
8.9629614e-01 0.0000000e+00 7.5867257e+00 
2.5566745e+00 0.0000000e+00 8.1853306e-01 
2.4918270e+00 0.0000000e+00 9.1386929e+00 
8.4677207e-01 0.0000000e+00 1.5042374e+00 
4.0943027e+00 0.0000000e+00 8.4081745e+00 
8.6281651e-01 0.0000000e+00 2.5007062e+00 
1.7315160e+00 0.0000000e+00 3.0001178e+00 
1.7319617e+00 0.0000000e+00 4.0000196e+00 
2.5980761e+00 0.0000000e+00 3.5000000e+00 
2.5536871e+00 0.0000000e+00 4.4963923e+00 
2.5928419e+00 0.0000000e+00 2.4239938e+00 
1.5037409e+00 0.0000000e+00 9.1535149e+00 
1.8433737e+00 0.0000000e+00 8.1858873e+00 
3.0000000e+00 0.0000000e+00 8.2679491e+00 
2.5000000e+00 0.0000000e+00 7.4019237e+00 
3.5042722e+00 0.0000000e+00 7.4271150e+00 
3.0310018e+00 0.0000000e+00 6.5282087e+00 
2.0373929e+00 0.0000000e+00 6.5307913e+00 
3.4767809e+00 0.0000000e+00 5.8031492e+00 
2.5452602e+00 0.0000000e+00 5.5720768e+00 
1.6456656e+00 0.0000000e+00 1.9697139e+00 
8.6297011e-01 0.0000000e+00 4.4947371e+00 
1.0111579e+00 0.0000000e+00 6.5282545e+00 
3.4994321e+00 0.0000000e+00 8.4691072e-01 
4.1860156e+00 0.0000000e+00 3.5040276e+00 
1.7320508e+00 0.0000000e+00 5.0000000e+00 
4.0544066e+00 0.0000000e+00 1.5781221e+00 
1.5817389e+00 0.0000000e+00 9.3943578e-01 
8.3166349e-01 0.0000000e+00 8.5090933e+00 
3.4686174e+00 0.0000000e+00 9.1752682e+00 
3.0709300e+00 0.0000000e+00 1.5799091e+00 
3.3927374e+00 0.0000000e+00 3.0399952e+00 
3.3826034e+00 0.0000000e+00 3.9747651e+00 
4.3420062e+00 0.0000000e+00 7.4688983e+00 
3.4023225e+00 0.0000000e+00 4.9314723e+00 
1.6740381e+00 0.0000000e+00 7.3014426e+00 
4.2715640e+00 0.0000000e+00 5.4758859e+00 
1.6225953e+00 0.0000000e+00 5.8104177e+00 
4.2679491e+00 0.0000000e+00 9.2679491e+00 
7.3205084e-01 0.0000000e+00 7.3205084e-01 
4.2679491e+00 0.0000000e+00 7.3205084e-01 
7.3205084e-01 0.0000000e+00 9.2679491e+00 
3.4586334e+00 0.0000000e+00 2.2347178e+00 
2.2895701e+00 0.0000000e+00 1.5463171e+00 
5.0000000e+00 1.5000000e+00 9.3820012e-01 
5.0000000e+00 1.5000000e+00 9.0618000e+00 
5.0000000e+00 2.1339746e+00 2.5000000e+00 
5.0000000e+00 2.1582527e+00 4.4926300e+00 
5.0000000e+00 2.2774773e+00 7.4626446e+00 
5.0000000e+00 8.6602539e-01 3.5000000e+00 
5.0000000e+00 8.2692069e-01 5.5000000e+00 
5.0000000e+00 8.0628556e-01 7.4626446e+00 
5.0000000e+00 8.4408212e-01 4.5000000e+00 
5.0000000e+00 8.3320528e-01 6.4654617e+00 
5.0000000e+00 1.5653628e+00 5.9376192e+00 
5.0000000e+00 2.1339746e+00 3.5000000e+00 
5.0000000e+00 8.6602539e-01 2.5000000e+00 
5.0000000e+00 7.5638938e-01 8.4645281e+00 
5.0000000e+00 2.2575710e+00 8.4645281e+00 
5.0000000e+00 2.2336540e+00 1.5292456e+00 
5.0000000e+00 7.6634604e-01 1.5292456e+00 
5.0000000e+00 2.2649403e+00 5.4883747e+00 
5.0000000e+00 1.5584890e+00 6.9705243e+00 
5.0000000e+00 1.5000000e+00 4.0000000e+00 
5.0000000e+00 1.5000000e+00 3.0000000e+00 
5.0000000e+00 1.4974226e+00 5.0000000e+00 
5.0000000e+00 2.2777116e+00 6.4765272e+00 
5.0000000e+00 1.5000000e+00 2.0022767e+00 
5.0000000e+00 1.5067772e+00 7.9912200e+00 
5.0000000e+00 2.2679491e+00 9.2679491e+00 
5.0000000e+00 7.3205084e-01 7.3205084e-01 
5.0000000e+00 2.2679491e+00 7.3205084e-01 
5.0000000e+00 7.3205084e-01 9.2679491e+00 
0.0000000e+00 1.5000000e+00 9.3820012e-01 
0.0000000e+00 1.5000000e+00 9.0618000e+00 
0.0000000e+00 8.6602539e-01 2.5000000e+00 
0.0000000e+00 8.6602539e-01 4.5000000e+00 
0.0000000e+00 8.6602539e-01 6.5000000e+00 
0.0000000e+00 2.1339746e+00 3.5000000e+00 
0.0000000e+00 2.1339746e+00 5.5000000e+00 
0.0000000e+00 2.1339746e+00 7.5000000e+00 
0.0000000e+00 8.6602539e-01 3.5000000e+00 
0.0000000e+00 2.1339746e+00 2.5000000e+00 
0.0000000e+00 2.1339746e+00 4.5000000e+00 
0.0000000e+00 2.1339746e+00 6.5000000e+00 
0.0000000e+00 8.6602539e-01 5.5000000e+00 
0.0000000e+00 8.6602539e-01 7.5000000e+00 
0.0000000e+00 2.2336540e+00 8.4707546e+00 
0.0000000e+00 2.2336540e+00 1.5292456e+00 
0.0000000e+00 7.6634604e-01 8.4707546e+00 
0.0000000e+00 7.6634604e-01 1.5292456e+00 
0.0000000e+00 1.5000000e+00 4.0000000e+00 
0.0000000e+00 1.5000000e+00 6.0000000e+00 
0.0000000e+00 1.5000000e+00 3.0000000e+00 
0.0000000e+00 1.5000000e+00 5.0000000e+00 
0.0000000e+00 1.5000000e+00 7.0000000e+00 
0.0000000e+00 1.5000000e+00 8.0005512e+00 
0.0000000e+00 1.5000000e+00 2.0022767e+00 
0.0000000e+00 7.3205084e-01 9.2679491e+00 
0.0000000e+00 2.2679491e+00 7.3205084e-01 
0.0000000e+00 7.3205084e-01 7.3205084e-01 
0.0000000e+00 2.2679491e+00 9.2679491e+00 
1.5046000e+00 7.6549745e-01 1.0000000e+01 
4.0618000e+00 1.5000000e+00 1.0000000e+01 
2.5000000e+00 2.1339746e+00 1.0000000e+01 
1.5046000e+00 2.2345026e+00 1.0000000e+01 
2.4957771e+00 8.1560516e-01 1.0000000e+01 
3.4707544e+00 2.2336540e+00 1.0000000e+01 
3.4700506e+00 7.5794268e-01 1.0000000e+01 
8.6322361e-01 1.5000000e+00 1.0000000e+01 
2.0000000e+00 1.5000000e+00 1.0000000e+01 
2.9960666e+00 1.4974480e+00 1.0000000e+01 
4.2679491e+00 7.3205084e-01 1.0000000e+01 
4.2679491e+00 2.2679491e+00 1.0000000e+01 
7.2695929e-01 2.2730408e+00 1.0000000e+01 
7.2695929e-01 7.2695929e-01 1.0000000e+01 
1.4891552e+00 3.0000000e+00 2.2590268e+00 
1.4171888e+00 3.0000000e+00 3.6986542e+00 
1.5172310e+00 3.0000000e+00 5.7397003e+00 
1.4330127e+00 3.0000000e+00 7.2500000e+00 
1.4330127e+00 3.0000000e+00 4.7500000e+00 
1.4554617e+00 3.0000000e+00 8.2442541e+00 
4.1714277e+00 3.0000000e+00 6.4487247e+00 
4.1339746e+00 3.0000000e+00 2.5000000e+00 
[...]
POINT_DATA 377
FIELD FieldData 2
DISPLACEMENT 3 377  float
0.0000000e+00 0.0000000e+00 0.0000000e+00 
0.0000000e+00 0.0000000e+00 0.0000000e+00 
0.0000000e+00 9.1483037e-07 1.3468805e-06 
0.0000000e+00 2.1962812e-06 3.6764009e-06 
0.0000000e+00 0.0000000e+00 0.0000000e+00 
0.0000000e+00 0.0000000e+00 0.0000000e+00 
0.0000000e+00 -2.4416240e-06 1.6036419e-06 
0.0000000e+00 -3.9078001e-05 1.8869696e-06 
4.0680938e-08 1.6105380e-06 4.5878364e-06 
8.8704780e-08 1.1660784e-06 4.6303262e-06 
1.3884141e-07 8.5704886e-07 4.6960527e-06 
1.7601836e-07 6.8122534e-07 4.8147645e-06 
1.8653226e-07 5.8177926e-07 4.9630958e-06 
1.3805382e-07 4.8102368e-07 5.1600859e-06 
8.5047730e-10 2.8596347e-07 5.3868712e-06 
-2.6383748e-07 -3.0459020e-07 5.6378408e-06 
-7.2580843e-07 -2.0139100e-06 5.8853420e-06 
-1.3949020e-06 -6.4980268e-06 6.1753208e-06 
-2.0917880e-06 -1.7733641e-05 6.3978609e-06 
-2.7644203e-06 -4.2516396e-05 6.5415629e-06 
-4.0261489e-06 -8.8638153e-05 6.5255181e-06 
-8.1194512e-06 -1.5880447e-04 6.0849707e-06 
-1.7960094e-05 -2.3131544e-04 5.3875856e-06 
-1.6362381e-05 -2.4501907e-04 4.3763612e-06 
-5.5855721e-06 -1.8253074e-04 3.8806620e-06 
-2.2259712e-06 -1.0947033e-04 3.4906989e-06 
-1.1489640e-06 -5.6495086e-05 3.4431371e-06 
0.0000000e+00 2.1340832e-06 4.5776610e-06 
0.0000000e+00 -1.8832967e-05 3.1213935e-06 
0.0000000e+00 0.0000000e+00 0.0000000e+00 
0.0000000e+00 0.0000000e+00 0.0000000e+00 
0.0000000e+00 0.0000000e+00 0.0000000e+00 
0.0000000e+00 0.0000000e+00 0.0000000e+00 
0.0000000e+00 5.4801671e-07 4.8066693e-07 
0.0000000e+00 8.2934491e-07 9.4211418e-07 
0.0000000e+00 1.8860866e-06 2.1526259e-06 
0.0000000e+00 1.1836643e-06 8.7338867e-07 
0.0000000e+00 0.0000000e+00 0.0000000e+00 
0.0000000e+00 0.0000000e+00 0.0000000e+00 
0.0000000e+00 0.0000000e+00 0.0000000e+00 
0.0000000e+00 0.0000000e+00 0.0000000e+00 
0.0000000e+00 0.0000000e+00 0.0000000e+00 
0.0000000e+00 0.0000000e+00 0.0000000e+00 
0.0000000e+00 0.0000000e+00 0.0000000e+00 
0.0000000e+00 0.0000000e+00 0.0000000e+00 
0.0000000e+00 0.0000000e+00 0.0000000e+00 
0.0000000e+00 0.0000000e+00 0.0000000e+00 
0.0000000e+00 0.0000000e+00 0.0000000e+00 
0.0000000e+00 0.0000000e+00 0.0000000e+00 
0.0000000e+00 0.0000000e+00 0.0000000e+00 
0.0000000e+00 0.0000000e+00 0.0000000e+00 
0.0000000e+00 0.0000000e+00 0.0000000e+00 
0.0000000e+00 0.0000000e+00 0.0000000e+00 
0.0000000e+00 0.0000000e+00 0.0000000e+00 
0.0000000e+00 0.0000000e+00 0.0000000e+00 
0.0000000e+00 0.0000000e+00 0.0000000e+00 
0.0000000e+00 0.0000000e+00 0.0000000e+00 
0.0000000e+00 0.0000000e+00 0.0000000e+00 
0.0000000e+00 0.0000000e+00 0.0000000e+00 
0.0000000e+00 5.8218637e-07 1.3180581e-06 
0.0000000e+00 4.1406852e-07 1.3106290e-06 
0.0000000e+00 3.4782460e-07 1.5204207e-06 
0.0000000e+00 4.2805127e-07 1.8723736e-06 
0.0000000e+00 2.2889596e-07 2.7855829e-06 
0.0000000e+00 -9.8639475e-07 3.8426465e-06 
0.0000000e+00 -1.7014926e-06 4.2372671e-06 
0.0000000e+00 -1.9742206e-06 3.4421330e-06 
0.0000000e+00 -3.5135786e-06 2.8050488e-06 
0.0000000e+00 -2.4664630e-06 3.1423351e-06 
0.0000000e+00 -2.6384369e-06 3.4236355e-06 
0.0000000e+00 1.0714216e-06 3.5152948e-06 
0.0000000e+00 6.9461197e-07 3.4501718e-06 
0.0000000e+00 2.6295129e-07 3.7720213e-06 
0.0000000e+00 -1.5777582e-06 5.0409458e-06 
0.0000000e+00 -1.1182878e-05 8.2315573e-06 
0.0000000e+00 -3.5210160e-05 1.4487354e-05 
0.0000000e+00 -8.7106338e-05 1.2623965e-05 
0.0000000e+00 -1.0084479e-04 5.5414516e-06 
0.0000000e+00 -7.2825140e-05 -8.6180268e-07 
0.0000000e+00 -3.7941056e-05 2.1157652e-05 
0.0000000e+00 -2.3851080e-05 1.7704624e-05 
0.0000000e+00 1.0051277e-06 1.4565089e-06 
0.0000000e+00 1.2143515e-06 1.8939901e-06 
0.0000000e+00 1.6484601e-06 2.8445857e-06 
0.0000000e+00 -4.0068085e-06 1.9473853e-06 
0.0000000e+00 -9.6012745e-06 1.9136173e-06 
0.0000000e+00 -2.4419123e-05 1.2694015e-06 
0.0000000e+00 7.2319341e-07 7.2017463e-07 
0.0000000e+00 7.2355738e-07 5.3007869e-07 
0.0000000e+00 1.3306068e-06 1.4590277e-06 
0.0000000e+00 1.7145312e-06 2.2505976e-06 
0.0000000e+00 6.1668317e-07 4.8599816e-07 
0.0000000e+00 1.0185424e-06 1.1734671e-06 
0.0000000e+00 4.6505644e-07 3.6433619e-07 
0.0000000e+00 1.4599723e-06 1.3988391e-06 
0.0000000e+00 1.2142452e-06 1.1478961e-06 
0.0000000e+00 8.8974519e-07 8.5567063e-07 
0.0000000e+00 4.3564978e-07 3.4033300e-07 
0.0000000e+00 8.9286522e-07 1.0821783e-06 
0.0000000e+00 1.9533416e-06 2.6742891e-06 
0.0000000e+00 8.3497537e-07 6.0592959e-07 
0.0000000e+00 0.0000000e+00 0.0000000e+00 
0.0000000e+00 0.0000000e+00 0.0000000e+00 
0.0000000e+00 0.0000000e+00 0.0000000e+00 
0.0000000e+00 0.0000000e+00 0.0000000e+00 
0.0000000e+00 0.0000000e+00 0.0000000e+00 
0.0000000e+00 0.0000000e+00 0.0000000e+00 
0.0000000e+00 0.0000000e+00 0.0000000e+00 
0.0000000e+00 0.0000000e+00 0.0000000e+00 
0.0000000e+00 0.0000000e+00 0.0000000e+00 
0.0000000e+00 0.0000000e+00 0.0000000e+00 
0.0000000e+00 0.0000000e+00 0.0000000e+00 
0.0000000e+00 0.0000000e+00 0.0000000e+00 
0.0000000e+00 0.0000000e+00 0.0000000e+00 
0.0000000e+00 0.0000000e+00 0.0000000e+00 
0.0000000e+00 0.0000000e+00 0.0000000e+00 
0.0000000e+00 0.0000000e+00 0.0000000e+00 
0.0000000e+00 0.0000000e+00 0.0000000e+00 
0.0000000e+00 0.0000000e+00 0.0000000e+00 
0.0000000e+00 0.0000000e+00 0.0000000e+00 
0.0000000e+00 0.0000000e+00 0.0000000e+00 
0.0000000e+00 0.0000000e+00 0.0000000e+00 
0.0000000e+00 0.0000000e+00 0.0000000e+00 
0.0000000e+00 0.0000000e+00 0.0000000e+00 
0.0000000e+00 0.0000000e+00 0.0000000e+00 
0.0000000e+00 0.0000000e+00 0.0000000e+00 
0.0000000e+00 0.0000000e+00 0.0000000e+00 
0.0000000e+00 0.0000000e+00 0.0000000e+00 
0.0000000e+00 0.0000000e+00 0.0000000e+00 
0.0000000e+00 0.0000000e+00 0.0000000e+00 
0.0000000e+00 0.0000000e+00 0.0000000e+00 
0.0000000e+00 0.0000000e+00 0.0000000e+00 
0.0000000e+00 0.0000000e+00 0.0000000e+00 
0.0000000e+00 0.0000000e+00 0.0000000e+00 
0.0000000e+00 0.0000000e+00 0.0000000e+00 
0.0000000e+00 0.0000000e+00 0.0000000e+00 
0.0000000e+00 0.0000000e+00 0.0000000e+00 
0.0000000e+00 0.0000000e+00 0.0000000e+00 
0.0000000e+00 0.0000000e+00 0.0000000e+00 
0.0000000e+00 0.0000000e+00 0.0000000e+00 
0.0000000e+00 0.0000000e+00 0.0000000e+00 
0.0000000e+00 0.0000000e+00 0.0000000e+00 
0.0000000e+00 0.0000000e+00 0.0000000e+00 
0.0000000e+00 0.0000000e+00 0.0000000e+00 
0.0000000e+00 0.0000000e+00 0.0000000e+00 
0.0000000e+00 0.0000000e+00 0.0000000e+00 
0.0000000e+00 0.0000000e+00 0.0000000e+00 
0.0000000e+00 0.0000000e+00 0.0000000e+00 
0.0000000e+00 0.0000000e+00 0.0000000e+00 
0.0000000e+00 0.0000000e+00 0.0000000e+00 
0.0000000e+00 3.9082911e-07 6.3925523e-07 
0.0000000e+00 -2.0535656e-06 3.1352049e-06 
0.0000000e+00 4.1987417e-07 9.9674401e-07 
0.0000000e+00 5.9890783e-07 1.3757043e-06 
0.0000000e+00 -1.2918936e-06 2.7874676e-06 
0.0000000e+00 1.6269462e-07 2.1793808e-07 
0.0000000e+00 -1.4132902e-07 5.9994100e-08 
0.0000000e+00 -1.2556886e-06 9.3850991e-07 
0.0000000e+00 6.4582308e-09 1.2825723e-07 
0.0000000e+00 -6.6490509e-07 3.0014544e-07 
0.0000000e+00 -2.4847742e-08 1.0404443e-06 
0.0000000e+00 4.5342813e-07 1.1504907e-06 
0.0000000e+00 1.5270889e-07 2.8874413e-07 
0.0000000e+00 -1.3628631e-06 1.5711408e-06 
0.0000000e+00 -1.8013128e-06 3.0376423e-06 
0.0000000e+00 4.3574374e-07 9.9557053e-07 
0.0000000e+00 1.6194049e-07 2.6835943e-07 
0.0000000e+00 3.9532301e-07 2.1862809e-06 
0.0000000e+00 -1.0556197e-06 1.5460733e-06 
0.0000000e+00 3.3500274e-07 6.7899640e-07 
0.0000000e+00 3.3844830e-07 6.4717568e-07 
0.0000000e+00 3.5975822e-07 6.6086625e-07 
0.0000000e+00 -3.2587079e-07 2.6528312e-06 
0.0000000e+00 2.8970720e-07 6.3137168e-07 
0.0000000e+00 -1.5835072e-06 2.2089387e-06 
0.0000000e+00 -2.3793521e-06 2.9915393e-06 
0.0000000e+00 2.2219037e-07 2.8032983e-07 
0.0000000e+00 6.0311805e-07 1.0263931e-06 
0.0000000e+00 -1.2995998e-06 2.1966241e-06 
0.0000000e+00 7.5608705e-07 1.3286084e-06 
0.0000000e+00 -4.0314539e-05 1.6930415e-05 
0.0000000e+00 -1.0500913e-07 -3.2113024e-07 
0.0000000e+00 -3.5809428e-06 -3.8751141e-06 
0.0000000e+00 -1.9932568e-05 -5.6227595e-06 
0.0000000e+00 -3.8755789e-07 1.1273198e-06 
0.0000000e+00 -1.9345463e-05 -3.4251937e-06 
0.0000000e+00 -8.2899634e-05 2.4792596e-06 
0.0000000e+00 -7.0565545e-07 -1.5259343e-06 
0.0000000e+00 4.7229102e-07 1.6691125e-06 
0.0000000e+00 -4.6150080e-06 -3.3570578e-07 
0.0000000e+00 -5.3094547e-05 -5.7471316e-06 
0.0000000e+00 -8.9492542e-06 -5.7745497e-06 
0.0000000e+00 -2.8893786e-05 -6.0011594e-08 
0.0000000e+00 -7.9101257e-05 1.4686041e-05 
0.0000000e+00 7.7422300e-07 2.2725369e-06 
0.0000000e+00 -2.3300541e-05 7.2951980e-06 
0.0000000e+00 2.7364109e-07 3.0342011e-07 
0.0000000e+00 -2.0108778e-06 -1.9376989e-06 
0.0000000e+00 -2.5517820e-05 -8.2597535e-06 
0.0000000e+00 -1.2822653e-08 1.8545022e-08 
0.0000000e+00 -8.9904424e-06 -5.6619338e-06 
0.0000000e+00 -4.6824392e-05 -4.7008434e-06 
0.0000000e+00 -5.7918875e-05 7.1627605e-06 
0.0000000e+00 3.9364159e-07 9.2236269e-07 
0.0000000e+00 -1.9001778e-05 1.0151571e-05 
0.0000000e+00 1.2224559e-06 2.4821577e-06 
0.0000000e+00 4.5819777e-07 4.4984827e-07 
0.0000000e+00 -5.3094736e-05 1.7666771e-05 
0.0000000e+00 -1.4971214e-05 1.1587219e-05 
0.0000000e+00 -4.0242899e-06 4.6810110e-06 
0.0000000e+00 -1.4402282e-05 9.3615708e-06 
0.0000000e+00 -2.9779876e-05 1.7952410e-05 
0.0000000e+00 -7.8994290e-06 7.1405361e-06 
0.0000000e+00 -6.7163865e-06 4.7792619e-06 
0.0000000e+00 -4.3482055e-06 4.2425941e-06 
0.0000000e+00 -2.9535264e-05 2.2154540e-05 
0.0000000e+00 -1.8902227e-05 1.2293689e-05 
0.0000000e+00 -8.4531775e-06 7.4769923e-06 
0.0000000e+00 -2.6122486e-06 3.1112179e-06 
0.0000000e+00 -3.5263301e-06 3.5624478e-06 
0.0000000e+00 -3.4352590e-05 1.8822762e-05 
0.0000000e+00 -1.4778701e-05 1.3217294e-05 
1.2985647e-07 5.3778149e-07 3.5358491e-06 
-1.0418029e-07 -2.2907354e-07 4.6202390e-06 
-4.5352313e-06 -2.1889307e-05 9.7811553e-06 
-1.8699708e-05 -1.0165380e-04 1.3691051e-05 
-6.9379138e-07 -5.4309157e-06 6.4394662e-06 
-1.0919955e-05 -1.2991660e-04 5.1518350e-06 
-3.2831617e-06 -1.7799315e-06 4.5777374e-06 
1.7734239e-08 3.8031067e-07 1.4745715e-06 
-5.4913778e-07 1.7852180e-07 2.6511359e-06 
4.0746983e-08 8.8510518e-07 3.6346885e-06 
-3.9727520e-06 -4.9916007e-06 3.2482715e-06 
-9.5512069e-06 -2.4663790e-05 2.8266927e-06 
1.4442396e-07 6.9916302e-07 1.6148227e-06 
-5.2239211e-06 -5.1297298e-05 2.9545567e-06 
-1.7081646e-06 -5.2994267e-07 3.6979852e-06 
-5.3872836e-06 -5.4801831e-06 6.0321754e-06 
-8.0448690e-06 -7.4272639e-06 6.5257009e-06 
-8.1641092e-06 -1.3286466e-05 7.2532744e-06 
-5.1825195e-06 -7.4512541e-06 7.0225869e-06 
-1.3574954e-05 -2.0253743e-05 8.4048888e-06 
-9.0891335e-06 -1.2766384e-05 6.0996863e-06 
-1.8914403e-05 -2.8206588e-05 6.3771695e-06 
-1.3571689e-05 -3.8789476e-05 9.7699522e-06 
-1.0317060e-05 -1.5506881e-05 3.5884450e-06 
-8.6757564e-06 -1.9672587e-05 1.0227883e-05 
-4.2069864e-06 -9.3676554e-06 7.9440351e-06 
-2.3355303e-06 -3.3529582e-06 5.6957315e-06 
-2.2204058e-06 -2.0689749e-06 4.4783901e-06 
-1.0077769e-06 -1.0456911e-06 3.4206300e-06 
-4.3391947e-07 -1.0789418e-06 3.8041578e-06 
-4.3401153e-07 -1.2977708e-07 2.6421999e-06 
-2.3202764e-08 -3.1744503e-07 2.8724437e-06 
8.4955950e-08 2.1102838e-07 1.9712284e-06 
1.3012658e-07 2.9391308e-07 2.3841797e-06 
6.9496899e-08 4.0688744e-07 1.9001999e-06 
1.3890455e-07 4.6445973e-07 2.2674208e-06 
1.7615857e-07 5.2394375e-07 1.9019764e-06 
-2.2532164e-07 4.1480561e-07 1.9029276e-06 
1.2956002e-07 -4.5533643e-08 3.2663054e-06 
-5.3079775e-06 -4.5478214e-06 4.7653366e-06 
-1.0743091e-05 -3.9101073e-05 1.2168030e-05 
1.1571032e-07 4.5158259e-07 1.5505208e-06 
-6.9661351e-06 -1.1472413e-05 1.3501764e-06 
-1.9576151e-05 -5.1277049e-05 7.5321832e-06 
-1.1197181e-06 -3.3040662e-06 5.3441095e-06 
2.5893021e-07 4.5815426e-07 4.0043428e-06 
-3.6554087e-07 -1.4418812e-06 5.4911634e-06 
-8.7484104e-08 -7.6569142e-07 3.8280682e-06 
-2.3208011e-06 -1.2363376e-05 8.8011939e-06 
1.7169789e-07 9.3320045e-07 2.1659675e-06 
1.4668443e-07 7.5077980e-07 2.6811633e-06 
-2.6755286e-05 -1.3246370e-04 1.4709747e-05 
-1.2732683e-05 -7.9696998e-05 -8.8601280e-07 
-1.0717710e-05 -6.0298727e-05 3.7937289e-06 
6.7595963e-08 4.9513352e-07 1.3779833e-06 
1.2621528e-07 1.2418591e-06 3.4063762e-06 
1.7183497e-07 7.2655462e-07 3.5490059e-06 
-1.9072366e-05 -7.4102929e-05 1.5929360e-05 
2.2680260e-07 3.8079358e-07 2.7797428e-06 
-2.0568628e-05 -6.0535454e-05 4.3826244e-06 
-1.2395991e-07 3.5993648e-07 1.8972838e-06 
1.3351315e-07 9.5728069e-08 4.2765851e-06 
-6.0836521e-07 7.3017212e-08 2.6349135e-06 
-1.2267947e-05 -2.8860724e-05 2.5875338e-06 
-8.6885129e-06 -4.5049019e-05 3.3333326e-06 
-3.0483543e-06 -4.5491356e-06 2.3112743e-06 
6.9750719e-08 7.2561835e-07 1.4015254e-06 
-7.6111037e-06 -8.2818315e-06 4.6698083e-06 
-2.3517757e-06 -7.4653744e-06 6.7241922e-06 
6.7629358e-08 3.9687430e-07 1.6681668e-06 
1.4445530e-07 6.9112593e-07 3.9714419e-06 
6.8085910e-08 8.0271678e-07 3.9182560e-06 
1.2717595e-07 5.3217872e-07 4.1174553e-06 
4.5437108e-08 -5.7258053e-08 4.4337721e-06 
7.7679417e-08 1.0184458e-06 3.9132005e-06 
-4.2852580e-08 -6.6973547e-07 5.3094145e-06 
-4.1838635e-07 -2.8014940e-06 5.6310842e-06 
-5.3917432e-07 -7.9763004e-06 7.2396106e-06 
-1.4565707e-06 -1.5801672e-05 9.0011999e-06 
-2.4643946e-06 -3.3578573e-05 9.4081261e-06 
-3.5357693e-06 -5.5150325e-05 8.2574870e-06 
-9.7112088e-06 -9.5333045e-05 6.8995414e-06 
-1.1521635e-05 -1.2336699e-04 9.1848078e-06 
-3.6317526e-06 -1.2926594e-04 8.0953732e-06 
-1.4763760e-06 -1.2166250e-04 3.6867552e-06 
-4.5011784e-06 -9.9767742e-05 2.1640619e-06 
-1.6433652e-06 -6.3283107e-05 2.8569298e-06 
1.6578085e-08 1.4417070e-06 3.9905490e-06 
1.9862387e-06 -6.8500672e-06 -4.0591322e-06 
4.7410893e-07 -6.0944146e-08 -3.5050821e-08 
5.7176276e-06 -3.1796655e-05 -7.3926526e-06 
8.1099379e-06 -4.4152112e-05 5.7701841e-06 
7.8045559e-08 4.4974084e-07 9.2133399e-07 
3.1186136e-07 1.7477109e-07 3.9702732e-07 
1.0385061e-06 -6.7087939e-07 -3.5870528e-07 
4.2060110e-06 -5.4677148e-06 -1.3294469e-06 
4.3184273e-06 -9.4858469e-06 3.0643987e-06 
6.3284944e-07 -1.3403627e-06 1.7858694e-08 
4.1427375e-06 -6.8646863e-05 1.9258765e-05 
1.7405317e-07 5.3517090e-07 1.8002307e-06 
3.0885676e-07 7.5962419e-08 1.7187702e-06 
2.9392534e-06 -7.7349403e-05 -3.9153401e-06 
7.0073600e-07 -5.7341767e-06 -6.8636035e-07 
1.4883026e-06 -2.2649734e-05 -6.3261468e-06 
1.0637763e-07 3.7980121e-07 7.1175515e-07 
5.6704312e-06 -1.9369258e-05 5.2463895e-07 
2.5868357e-07 3.1487343e-07 1.2286398e-06 
1.1879976e-06 -5.5008519e-07 4.7027277e-07 
5.4209270e-08 8.2950572e-07 2.2329625e-06 
3.2532776e-07 2.5784476e-07 6.5735554e-07 
1.2421141e-06 -5.0968106e-06 2.6602955e-08 
1.1455089e-07 2.3801266e-07 3.8059267e-07 
5.1643788e-06 -1.9292222e-05 7.9391866e-06 
-6.4180813e-06 -1.0988957e-04 1.1743271e-05 
1.6856460e-06 -2.8920895e-06 1.4218292e-06 
2.5928130e-06 -2.8829645e-06 -1.8918151e-06 
4.5757264e-07 -1.9933367e-07 1.1344166e-06 
1.7492037e-07 1.0156086e-07 1.8767309e-07 
1.1392729e-06 -1.3360429e-06 -1.8172693e-06 
6.3053521e-06 -2.4988543e-05 1.1120929e-05 
3.5051744e-06 -1.7313992e-05 -3.0173323e-06 
2.8319441e-06 -5.1176983e-05 -5.2738369e-06 
4.4275002e-06 -3.2157346e-05 -2.2256422e-06 
1.6610120e-06 -1.3566760e-06 5.6873727e-08 
9.4532197e-08 6.4580632e-07 1.3695651e-06 
1.1803522e-07 1.4118929e-07 2.9804161e-07 
2.5385641e-06 -1.1689535e-05 -6.6510029e-06 
2.2911947e-06 -4.0965256e-06 3.4182326e-06 
3.5496632e-07 -4.9697042e-07 -9.8851012e-07 
7.0023623e-07 -3.2883506e-06 -3.6700142e-06 
2.5472971e-07 4.4656929e-08 8.8708575e-08 
6.4090068e-06 -1.3932353e-05 1.5631487e-06 
4.1492967e-06 -8.0278960e-06 -3.7509594e-06 
6.6493254e-07 -3.3468546e-06 2.9554201e-06 
3.2243389e-07 1.2929669e-07 9.7801239e-07 
1.6433279e-07 3.8879543e-07 1.1312321e-06 
4.5168636e-06 -5.9642271e-06 -6.3044212e-08 
4.3912937e-07 -1.1880054e-07 -5.7982483e-08 
1.5781274e-07 3.5336413e-07 9.3009891e-07 
6.7170168e-07 -4.0064941e-07 -6.3253765e-07 
3.7161797e-06 -6.2458923e-05 3.2171199e-06 
4.6312840e-07 -1.0568619e-08 1.2789440e-08 
4.5752136e-06 -3.7847385e-05 1.1421593e-05 
6.4809296e-07 -1.3385550e-06 1.7715159e-06 
4.0646610e-06 -2.2821398e-05 3.3343317e-06 
1.1005765e-08 4.2157896e-07 4.9676930e-07 
1.0372166e-06 -3.3605570e-06 1.3870400e-06 
1.8015852e-07 -7.6820897e-06 1.2553979e-06 
4.2597998e-07 -1.9118916e-06 1.6445962e-06 
1.0959906e-06 -7.8147432e-06 4.5647721e-06 
6.5714198e-06 -1.3086054e-05 -2.9957057e-06 
2.3334214e-06 -2.9094488e-06 1.1719320e-06 
1.1551171e-07 5.3144510e-07 1.7599392e-06 
3.2550113e-07 2.6689912e-07 1.9155182e-06 
5.3209942e-07 -1.2468182e-06 1.3745929e-06 
TOTAL_DISPLACEMENT 3 377  float
0.0000000e+00 0.0000000e+00 0.0000000e+00 
0.0000000e+00 0.0000000e+00 0.0000000e+00 
0.0000000e+00 0.0000000e+00 0.0000000e+00 
0.0000000e+00 0.0000000e+00 0.0000000e+00 
0.0000000e+00 0.0000000e+00 0.0000000e+00 
0.0000000e+00 0.0000000e+00 0.0000000e+00 
0.0000000e+00 0.0000000e+00 0.0000000e+00 
0.0000000e+00 0.0000000e+00 0.0000000e+00 
0.0000000e+00 0.0000000e+00 0.0000000e+00 
0.0000000e+00 0.0000000e+00 0.0000000e+00 
0.0000000e+00 0.0000000e+00 0.0000000e+00 
0.0000000e+00 0.0000000e+00 0.0000000e+00 
0.0000000e+00 0.0000000e+00 0.0000000e+00 
0.0000000e+00 0.0000000e+00 0.0000000e+00 
0.0000000e+00 0.0000000e+00 0.0000000e+00 
0.0000000e+00 0.0000000e+00 0.0000000e+00 
0.0000000e+00 0.0000000e+00 0.0000000e+00 
0.0000000e+00 0.0000000e+00 0.0000000e+00 
0.0000000e+00 0.0000000e+00 0.0000000e+00 
0.0000000e+00 0.0000000e+00 0.0000000e+00 
0.0000000e+00 0.0000000e+00 0.0000000e+00 
0.0000000e+00 0.0000000e+00 0.0000000e+00 
0.0000000e+00 0.0000000e+00 0.0000000e+00 
0.0000000e+00 0.0000000e+00 0.0000000e+00 
0.0000000e+00 0.0000000e+00 0.0000000e+00 
0.0000000e+00 0.0000000e+00 0.0000000e+00 
0.0000000e+00 0.0000000e+00 0.0000000e+00 
0.0000000e+00 0.0000000e+00 0.0000000e+00 
0.0000000e+00 0.0000000e+00 0.0000000e+00 
0.0000000e+00 0.0000000e+00 0.0000000e+00 
0.0000000e+00 0.0000000e+00 0.0000000e+00 
0.0000000e+00 0.0000000e+00 0.0000000e+00 
0.0000000e+00 0.0000000e+00 0.0000000e+00 
0.0000000e+00 0.0000000e+00 0.0000000e+00 
0.0000000e+00 0.0000000e+00 0.0000000e+00 
0.0000000e+00 0.0000000e+00 0.0000000e+00 
0.0000000e+00 0.0000000e+00 0.0000000e+00 
0.0000000e+00 0.0000000e+00 0.0000000e+00 
0.0000000e+00 0.0000000e+00 0.0000000e+00 
0.0000000e+00 0.0000000e+00 0.0000000e+00 
0.0000000e+00 0.0000000e+00 0.0000000e+00 
0.0000000e+00 0.0000000e+00 0.0000000e+00 
0.0000000e+00 0.0000000e+00 0.0000000e+00 
0.0000000e+00 0.0000000e+00 0.0000000e+00 
0.0000000e+00 0.0000000e+00 0.0000000e+00 
0.0000000e+00 0.0000000e+00 0.0000000e+00 
0.0000000e+00 0.0000000e+00 0.0000000e+00 
0.0000000e+00 0.0000000e+00 0.0000000e+00 
0.0000000e+00 0.0000000e+00 0.0000000e+00 
0.0000000e+00 0.0000000e+00 0.0000000e+00 
0.0000000e+00 0.0000000e+00 0.0000000e+00 
0.0000000e+00 0.0000000e+00 0.0000000e+00 
0.0000000e+00 0.0000000e+00 0.0000000e+00 
0.0000000e+00 0.0000000e+00 0.0000000e+00 
0.0000000e+00 0.0000000e+00 0.0000000e+00 
0.0000000e+00 0.0000000e+00 0.0000000e+00 
0.0000000e+00 0.0000000e+00 0.0000000e+00 
0.0000000e+00 0.0000000e+00 0.0000000e+00 
0.0000000e+00 0.0000000e+00 0.0000000e+00 
0.0000000e+00 0.0000000e+00 0.0000000e+00 
0.0000000e+00 0.0000000e+00 0.0000000e+00 
0.0000000e+00 0.0000000e+00 0.0000000e+00 
0.0000000e+00 0.0000000e+00 0.0000000e+00 
0.0000000e+00 0.0000000e+00 0.0000000e+00 
0.0000000e+00 0.0000000e+00 0.0000000e+00 
0.0000000e+00 0.0000000e+00 0.0000000e+00 
0.0000000e+00 0.0000000e+00 0.0000000e+00 
0.0000000e+00 0.0000000e+00 0.0000000e+00 
0.0000000e+00 0.0000000e+00 0.0000000e+00 
0.0000000e+00 0.0000000e+00 0.0000000e+00 
0.0000000e+00 0.0000000e+00 0.0000000e+00 
0.0000000e+00 0.0000000e+00 0.0000000e+00 
0.0000000e+00 0.0000000e+00 0.0000000e+00 
0.0000000e+00 0.0000000e+00 0.0000000e+00 
0.0000000e+00 0.0000000e+00 0.0000000e+00 
0.0000000e+00 0.0000000e+00 0.0000000e+00 
0.0000000e+00 0.0000000e+00 0.0000000e+00 
0.0000000e+00 0.0000000e+00 0.0000000e+00 
0.0000000e+00 0.0000000e+00 0.0000000e+00 