# vtk DataFile Version 4.0
vtk output
ASCII
DATASET UNSTRUCTURED_GRID
POINTS 395 float
0.0000000e+00 0.0000000e+00 0.0000000e+00 
5.0000000e+00 0.0000000e+00 0.0000000e+00 
5.0000000e+00 3.0000000e+00 0.0000000e+00 
0.0000000e+00 3.0000000e+00 0.0000000e+00 
0.0000000e+00 0.0000000e+00 1.0000000e+01 
5.0000000e+00 0.0000000e+00 1.0000000e+01 
5.0000000e+00 3.0000000e+00 1.0000000e+01 
0.0000000e+00 3.0000000e+00 1.0000000e+01 
1.0000000e+00 3.0000000e+00 5.0000000e-01 
1.0000000e+00 3.0000000e+00 1.0000000e+00 
1.0000000e+00 3.0000000e+00 1.5000000e+00 
1.0000000e+00 3.0000000e+00 2.0000000e+00 
1.0000000e+00 3.0000000e+00 2.5000000e+00 
1.0000000e+00 3.0000000e+00 3.0000000e+00 
1.0000000e+00 3.0000000e+00 3.5000000e+00 
1.0000000e+00 3.0000000e+00 4.0000000e+00 
1.0000000e+00 3.0000000e+00 4.5000000e+00 
1.0000000e+00 3.0000000e+00 5.0000000e+00 
1.0000000e+00 3.0000000e+00 5.5000000e+00 
1.0000000e+00 3.0000000e+00 6.0000000e+00 
1.0000000e+00 3.0000000e+00 6.5000000e+00 
1.0000000e+00 3.0000000e+00 7.0000000e+00 
1.0000000e+00 3.0000000e+00 7.5000000e+00 
1.0000000e+00 3.0000000e+00 8.0000000e+00 
1.0000000e+00 3.0000000e+00 8.5000000e+00 
1.0000000e+00 3.0000000e+00 9.0000000e+00 
1.0000000e+00 3.0000000e+00 9.5000000e+00 
1.0000000e+00 3.0000000e+00 0.0000000e+00 
1.0000000e+00 3.0000000e+00 1.0000000e+01 
1.0000000e+00 3.0250001e+00 0.0000000e+00 
1.0000000e+00 3.0250001e+00 5.0000000e-01 
1.0000000e+00 3.0250001e+00 1.0000000e+00 
1.0000000e+00 3.0250001e+00 1.5000000e+00 
1.0000000e+00 3.0250001e+00 2.0000000e+00 
1.0000000e+00 3.0250001e+00 2.5000000e+00 
1.0000000e+00 3.0250001e+00 3.0000000e+00 
1.0000000e+00 3.0250001e+00 3.5000000e+00 
1.0000000e+00 3.0250001e+00 4.0000000e+00 
1.0000000e+00 3.0250001e+00 4.5000000e+00 
1.0000000e+00 3.0250001e+00 5.0000000e+00 
1.0000000e+00 3.0250001e+00 5.5000000e+00 
1.0000000e+00 3.0250001e+00 6.0000000e+00 
1.0000000e+00 3.0250001e+00 6.5000000e+00 
1.0000000e+00 3.0250001e+00 7.0000000e+00 
1.0000000e+00 3.0250001e+00 7.5000000e+00 
1.0000000e+00 3.0250001e+00 8.0000000e+00 
1.0000000e+00 3.0250001e+00 8.5000000e+00 
1.0000000e+00 3.0250001e+00 9.0000000e+00 
1.0000000e+00 3.0250001e+00 9.5000000e+00 
1.0000000e+00 3.0250001e+00 1.0000000e+01 
1.0000000e+00 0.0000000e+00 0.0000000e+00 
2.0000000e+00 0.0000000e+00 0.0000000e+00 
3.0000000e+00 0.0000000e+00 0.0000000e+00 
4.0000000e+00 0.0000000e+00 0.0000000e+00 
5.0000000e+00 1.0000000e+00 0.0000000e+00 
5.0000000e+00 2.0000000e+00 0.0000000e+00 
0.0000000e+00 2.0000000e+00 0.0000000e+00 
0.0000000e+00 1.0000000e+00 0.0000000e+00 
0.0000000e+00 0.0000000e+00 1.0000000e+00 
0.0000000e+00 0.0000000e+00 2.0000000e+00 
0.0000000e+00 0.0000000e+00 3.0000000e+00 
0.0000000e+00 0.0000000e+00 4.0000000e+00 
0.0000000e+00 0.0000000e+00 5.0000000e+00 
0.0000000e+00 0.0000000e+00 6.0000000e+00 
0.0000000e+00 0.0000000e+00 7.0000000e+00 
0.0000000e+00 0.0000000e+00 8.0000000e+00 
0.0000000e+00 0.0000000e+00 9.0000000e+00 
5.0000000e+00 0.0000000e+00 1.0000000e+00 
5.0000000e+00 0.0000000e+00 2.0000000e+00 
5.0000000e+00 0.0000000e+00 3.0000000e+00 
5.0000000e+00 0.0000000e+00 4.0000000e+00 
5.0000000e+00 0.0000000e+00 5.0000000e+00 
5.0000000e+00 0.0000000e+00 6.0000000e+00 
5.0000000e+00 0.0000000e+00 7.0000000e+00 
5.0000000e+00 0.0000000e+00 8.0000000e+00 
5.0000000e+00 0.0000000e+00 9.0000000e+00 
1.0000000e+00 0.0000000e+00 1.0000000e+01 
2.0000000e+00 0.0000000e+00 1.0000000e+01 
3.0000000e+00 0.0000000e+00 1.0000000e+01 
4.0000000e+00 0.0000000e+00 1.0000000e+01 
5.0000000e+00 3.0000000e+00 1.0000000e+00 
5.0000000e+00 3.0000000e+00 2.0000000e+00 
5.0000000e+00 3.0000000e+00 3.0000000e+00 
5.0000000e+00 3.0000000e+00 4.0000000e+00 
5.0000000e+00 3.0000000e+00 5.0000000e+00 
5.0000000e+00 3.0000000e+00 6.0000000e+00 
5.0000000e+00 3.0000000e+00 7.0000000e+00 
5.0000000e+00 3.0000000e+00 8.0000000e+00 
5.0000000e+00 3.0000000e+00 9.0000000e+00 
5.0000000e+00 1.0000000e+00 1.0000000e+01 
5.0000000e+00 2.0000000e+00 1.0000000e+01 
0.0000000e+00 3.0000000e+00 1.0000000e+00 
0.0000000e+00 3.0000000e+00 2.0000000e+00 
0.0000000e+00 3.0000000e+00 3.0000000e+00 
0.0000000e+00 3.0000000e+00 4.0000000e+00 
0.0000000e+00 3.0000000e+00 5.0000000e+00 
0.0000000e+00 3.0000000e+00 6.0000000e+00 
0.0000000e+00 3.0000000e+00 7.0000000e+00 
0.0000000e+00 3.0000000e+00 8.0000000e+00 
0.0000000e+00 3.0000000e+00 9.0000000e+00 
0.0000000e+00 2.0000000e+00 1.0000000e+01 
0.0000000e+00 1.0000000e+00 1.0000000e+01 
4.0000000e+00 3.0000000e+00 0.0000000e+00 
3.0000000e+00 3.0000000e+00 0.0000000e+00 
2.0000000e+00 3.0000000e+00 0.0000000e+00 
4.0000000e+00 3.0000000e+00 1.0000000e+01 
3.0000000e+00 3.0000000e+00 1.0000000e+01 
2.0000000e+00 3.0000000e+00 1.0000000e+01 
1.5046000e+00 2.2345026e+00 0.0000000e+00 
4.0618000e+00 1.5000000e+00 0.0000000e+00 
2.5000000e+00 8.6602539e-01 0.0000000e+00 
2.4957771e+00 2.1843948e+00 0.0000000e+00 
1.5046000e+00 7.6549745e-01 0.0000000e+00 
3.4700506e+00 2.2420573e+00 0.0000000e+00 
3.4707544e+00 7.6634604e-01 0.0000000e+00 
8.6322361e-01 1.5000000e+00 0.0000000e+00 
2.0000000e+00 1.5000000e+00 0.0000000e+00 
2.9960666e+00 1.5025520e+00 0.0000000e+00 
4.2679491e+00 7.3205084e-01 0.0000000e+00 
4.2679491e+00 2.2679491e+00 0.0000000e+00 
7.2695929e-01 2.2730408e+00 0.0000000e+00 
7.2695929e-01 7.2695929e-01 0.0000000e+00 
4.1822505e+00 0.0000000e+00 2.5515697e+00 
4.2017918e+00 0.0000000e+00 4.4725966e+00 
4.1114569e+00 0.0000000e+00 6.5092020e+00 
8.6602539e-01 0.0000000e+00 3.5000000e+00 
8.4778279e-01 0.0000000e+00 5.4684029e+00 
8.9629614e-01 0.0000000e+00 7.5867257e+00 
2.5566745e+00 0.0000000e+00 8.1853306e-01 
2.4918270e+00 0.0000000e+00 9.1386929e+00 
8.4677207e-01 0.0000000e+00 1.5042374e+00 
4.0943027e+00 0.0000000e+00 8.4081745e+00 
8.6281651e-01 0.0000000e+00 2.5007062e+00 
1.7315160e+00 0.0000000e+00 3.0001178e+00 
1.7319617e+00 0.0000000e+00 4.0000196e+00 
2.5980761e+00 0.0000000e+00 3.5000000e+00 
2.5536871e+00 0.0000000e+00 4.4963923e+00 
2.5928419e+00 0.0000000e+00 2.4239938e+00 
1.5037409e+00 0.0000000e+00 9.1535149e+00 
1.8433737e+00 0.0000000e+00 8.1858873e+00 
3.0000000e+00 0.0000000e+00 8.2679491e+00 
2.5000000e+00 0.0000000e+00 7.4019237e+00 
3.5042722e+00 0.0000000e+00 7.4271150e+00 
3.0310018e+00 0.0000000e+00 6.5282087e+00 
2.0373929e+00 0.0000000e+00 6.5307913e+00 
3.4767809e+00 0.0000000e+00 5.8031492e+00 
2.5452602e+00 0.0000000e+00 5.5720768e+00 
1.6456656e+00 0.0000000e+00 1.9697139e+00 
8.6297011e-01 0.0000000e+00 4.4947371e+00 
1.0111579e+00 0.0000000e+00 6.5282545e+00 
3.4994321e+00 0.0000000e+00 8.4691072e-01 
4.1860156e+00 0.0000000e+00 3.5040276e+00 
1.7320508e+00 0.0000000e+00 5.0000000e+00 
4.0544066e+00 0.0000000e+00 1.5781221e+00 
1.5817389e+00 0.0000000e+00 9.3943578e-01 
8.3166349e-01 0.0000000e+00 8.5090933e+00 
3.4686174e+00 0.0000000e+00 9.1752682e+00 
3.0709300e+00 0.0000000e+00 1.5799091e+00 
3.3927374e+00 0.0000000e+00 3.0399952e+00 
3.3826034e+00 0.0000000e+00 3.9747651e+00 
4.3420062e+00 0.0000000e+00 7.4688983e+00 
3.4023225e+00 0.0000000e+00 4.9314723e+00 
1.6740381e+00 0.0000000e+00 7.3014426e+00 
4.2715640e+00 0.0000000e+00 5.4758859e+00 
1.6225953e+00 0.0000000e+00 5.8104177e+00 
4.2679491e+00 0.0000000e+00 9.2679491e+00 
7.3205084e-01 0.0000000e+00 7.3205084e-01 
4.2679491e+00 0.0000000e+00 7.3205084e-01 
7.3205084e-01 0.0000000e+00 9.2679491e+00 
3.4586334e+00 0.0000000e+00 2.2347178e+00 
2.2895701e+00 0.0000000e+00 1.5463171e+00 
5.0000000e+00 2.2345026e+00 1.5046000e+00 
5.0000000e+00 1.5000000e+00 9.0618000e+00 
5.0000000e+00 2.1339746e+00 3.5000000e+00 
5.0000000e+00 2.1339746e+00 5.5000000e+00 
5.0000000e+00 2.1339746e+00 7.5000000e+00 
5.0000000e+00 8.6602539e-01 2.5000000e+00 
5.0000000e+00 8.6602539e-01 4.5000000e+00 
5.0000000e+00 8.6602539e-01 6.5000000e+00 
5.0000000e+00 8.6602539e-01 3.5000000e+00 
5.0000000e+00 8.6602539e-01 5.5000000e+00 
5.0000000e+00 2.1584709e+00 2.5001996e+00 
5.0000000e+00 2.1339746e+00 4.5000000e+00 
5.0000000e+00 2.1339746e+00 6.5000000e+00 
5.0000000e+00 8.6602539e-01 7.5000000e+00 
5.0000000e+00 7.6549745e-01 1.5046000e+00 
5.0000000e+00 7.6634604e-01 8.4707546e+00 
5.0000000e+00 2.2336540e+00 8.4707546e+00 
5.0000000e+00 1.5000000e+00 8.6322361e-01 
5.0000000e+00 1.5000000e+00 5.0000000e+00 
5.0000000e+00 1.5000000e+00 7.0000000e+00 
5.0000000e+00 1.5000000e+00 2.0000000e+00 
5.0000000e+00 1.5000000e+00 6.0000000e+00 
5.0000000e+00 1.5000000e+00 4.0000000e+00 
5.0000000e+00 1.5000000e+00 3.0000000e+00 
5.0000000e+00 1.5000000e+00 7.9977231e+00 
5.0000000e+00 2.2679491e+00 9.2679491e+00 
5.0000000e+00 7.3205084e-01 9.2679491e+00 
5.0000000e+00 2.2730408e+00 7.2695929e-01 
5.0000000e+00 7.2695929e-01 7.2695929e-01 
0.0000000e+00 7.6549745e-01 1.5046000e+00 
0.0000000e+00 1.5000000e+00 9.0618000e+00 
0.0000000e+00 7.6689392e-01 3.5202229e+00 
0.0000000e+00 8.4174728e-01 6.5073700e+00 
0.0000000e+00 2.1339746e+00 2.5000000e+00 
0.0000000e+00 2.1503205e+00 4.5283122e+00 
0.0000000e+00 2.1339746e+00 7.5000000e+00 
0.0000000e+00 7.5539857e-01 2.5041373e+00 
0.0000000e+00 2.1917200e+00 3.5330307e+00 
0.0000000e+00 2.1758037e+00 5.5047188e+00 
0.0000000e+00 1.4323456e+00 5.0621295e+00 
0.0000000e+00 2.1560361e+00 6.5002046e+00 
0.0000000e+00 8.3464229e-01 7.4971519e+00 
0.0000000e+00 2.2345026e+00 1.5046000e+00 
0.0000000e+00 2.2336540e+00 8.4707546e+00 
0.0000000e+00 7.6111549e-01 8.4702797e+00 
0.0000000e+00 1.5000000e+00 8.6322361e-01 
0.0000000e+00 1.4454463e+00 4.0239491e+00 
0.0000000e+00 7.3467791e-01 5.5115833e+00 
0.0000000e+00 1.5000000e+00 2.0000000e+00 
0.0000000e+00 1.4948297e+00 6.9999175e+00 
0.0000000e+00 1.4754088e+00 3.0096834e+00 
0.0000000e+00 1.5025774e+00 6.0000000e+00 
0.0000000e+00 7.2989392e-01 4.5196476e+00 
0.0000000e+00 1.4981872e+00 7.9961324e+00 
0.0000000e+00 7.3205084e-01 9.2679491e+00 
0.0000000e+00 2.2679491e+00 9.2679491e+00 
0.0000000e+00 2.2730408e+00 7.2695929e-01 
0.0000000e+00 7.2695929e-01 7.2695929e-01 
1.5046000e+00 7.6549745e-01 1.0000000e+01 
[...]
POINT_DATA 395
FIELD FieldData 2
DISPLACEMENT 3 395  float
0.0000000e+00 0.0000000e+00 0.0000000e+00 
0.0000000e+00 0.0000000e+00 0.0000000e+00 
0.0000000e+00 7.6921125e-08 0.0000000e+00 
0.0000000e+00 5.2288698e-08 0.0000000e+00 
0.0000000e+00 0.0000000e+00 0.0000000e+00 
0.0000000e+00 0.0000000e+00 0.0000000e+00 
0.0000000e+00 -4.8978827e-06 0.0000000e+00 
0.0000000e+00 -1.0405728e-04 0.0000000e+00 
-5.7470260e-09 6.4484986e-08 1.2120318e-08 
-1.4575477e-08 7.2322763e-08 2.8462571e-08 
-2.5202738e-08 8.2453710e-08 5.4348970e-08 
-3.8768281e-08 9.3295910e-08 1.1637235e-07 
-4.2024137e-08 9.9547023e-08 2.2103953e-07 
-1.0132732e-07 8.2301447e-08 5.1140302e-07 
-1.4483142e-07 3.6392390e-08 8.8966164e-07 
-2.2920659e-07 -7.0044095e-08 1.5210222e-06 
-2.9465062e-07 -3.4356901e-07 2.4733531e-06 
-7.1505968e-07 -1.1187341e-06 3.8581538e-06 
-1.1993906e-06 -3.1727766e-06 5.0017497e-06 
-1.9369941e-06 -8.2240549e-06 7.1859913e-06 
-4.2756428e-06 -1.9603263e-05 1.3255813e-05 
-4.8906604e-06 -4.2562933e-05 1.3001332e-05 
-5.5358591e-06 -8.4320585e-05 1.7491555e-05 
-1.1585040e-05 -1.4914467e-04 2.2540442e-05 
-6.4487413e-06 -2.1623675e-04 1.0320928e-05 
-2.0431322e-05 -2.5208193e-04 9.4697198e-06 
-8.0533646e-06 -2.1272938e-04 1.1712231e-05 
0.0000000e+00 5.8321397e-08 0.0000000e+00 
0.0000000e+00 -1.5795835e-04 0.0000000e+00 
0.0000000e+00 5.8504892e-08 0.0000000e+00 
0.0000000e+00 6.4769274e-08 0.0000000e+00 
0.0000000e+00 7.2457723e-08 0.0000000e+00 
0.0000000e+00 8.2724434e-08 0.0000000e+00 
0.0000000e+00 9.4000470e-08 0.0000000e+00 
0.0000000e+00 9.9180092e-08 0.0000000e+00 
0.0000000e+00 8.2817067e-08 0.0000000e+00 
0.0000000e+00 3.7434774e-08 0.0000000e+00 
0.0000000e+00 -6.5519991e-08 0.0000000e+00 
0.0000000e+00 -3.3585607e-07 0.0000000e+00 
0.0000000e+00 -1.0972660e-06 0.0000000e+00 
0.0000000e+00 -3.1269904e-06 0.0000000e+00 
0.0000000e+00 -8.1568214e-06 0.0000000e+00 
0.0000000e+00 -1.9488394e-05 0.0000000e+00 
0.0000000e+00 -4.2509037e-05 0.0000000e+00 
0.0000000e+00 -8.4771746e-05 0.0000000e+00 
0.0000000e+00 -1.4980510e-04 0.0000000e+00 
0.0000000e+00 -2.2128661e-04 0.0000000e+00 
0.0000000e+00 -2.5567278e-04 0.0000000e+00 
0.0000000e+00 -2.1630317e-04 0.0000000e+00 
0.0000000e+00 -1.5828201e-04 0.0000000e+00 
0.0000000e+00 0.0000000e+00 0.0000000e+00 
0.0000000e+00 0.0000000e+00 0.0000000e+00 
0.0000000e+00 0.0000000e+00 0.0000000e+00 
0.0000000e+00 0.0000000e+00 0.0000000e+00 
0.0000000e+00 3.9758120e-08 0.0000000e+00 
0.0000000e+00 6.9111771e-08 0.0000000e+00 
0.0000000e+00 4.5299984e-08 0.0000000e+00 
0.0000000e+00 2.4851163e-08 0.0000000e+00 
0.0000000e+00 0.0000000e+00 0.0000000e+00 
0.0000000e+00 0.0000000e+00 0.0000000e+00 
0.0000000e+00 0.0000000e+00 0.0000000e+00 
0.0000000e+00 0.0000000e+00 0.0000000e+00 
0.0000000e+00 0.0000000e+00 0.0000000e+00 
0.0000000e+00 0.0000000e+00 0.0000000e+00 
0.0000000e+00 0.0000000e+00 0.0000000e+00 
0.0000000e+00 0.0000000e+00 0.0000000e+00 
0.0000000e+00 0.0000000e+00 0.0000000e+00 
0.0000000e+00 0.0000000e+00 0.0000000e+00 
0.0000000e+00 0.0000000e+00 0.0000000e+00 
0.0000000e+00 0.0000000e+00 0.0000000e+00 
0.0000000e+00 0.0000000e+00 0.0000000e+00 
0.0000000e+00 0.0000000e+00 0.0000000e+00 
0.0000000e+00 0.0000000e+00 0.0000000e+00 
0.0000000e+00 0.0000000e+00 0.0000000e+00 
0.0000000e+00 0.0000000e+00 0.0000000e+00 
0.0000000e+00 0.0000000e+00 0.0000000e+00 
0.0000000e+00 0.0000000e+00 0.0000000e+00 
0.0000000e+00 0.0000000e+00 0.0000000e+00 
0.0000000e+00 0.0000000e+00 0.0000000e+00 
0.0000000e+00 0.0000000e+00 0.0000000e+00 
0.0000000e+00 9.4272615e-08 0.0000000e+00 
0.0000000e+00 1.6346002e-07 0.0000000e+00 
0.0000000e+00 2.6443550e-07 0.0000000e+00 
0.0000000e+00 2.0591848e-07 0.0000000e+00 
0.0000000e+00 -5.0656594e-09 0.0000000e+00 
0.0000000e+00 -2.3829854e-07 0.0000000e+00 
0.0000000e+00 -9.3085788e-07 0.0000000e+00 
0.0000000e+00 -1.7384965e-06 0.0000000e+00 
0.0000000e+00 -4.1316589e-06 0.0000000e+00 
0.0000000e+00 -2.8376323e-06 0.0000000e+00 
0.0000000e+00 -4.2735437e-06 0.0000000e+00 
0.0000000e+00 5.6419918e-08 0.0000000e+00 
0.0000000e+00 6.0776230e-08 0.0000000e+00 
0.0000000e+00 -1.4472974e-08 0.0000000e+00 
0.0000000e+00 -5.0543548e-07 0.0000000e+00 
0.0000000e+00 -2.9994253e-06 0.0000000e+00 
0.0000000e+00 -1.2033215e-05 0.0000000e+00 
0.0000000e+00 -4.0633091e-05 0.0000000e+00 
0.0000000e+00 -8.4769992e-05 0.0000000e+00 
0.0000000e+00 -1.2346799e-04 0.0000000e+00 
0.0000000e+00 -8.2109589e-05 0.0000000e+00 
0.0000000e+00 -4.3710697e-05 0.0000000e+00 
0.0000000e+00 7.7569148e-08 0.0000000e+00 
0.0000000e+00 7.6745160e-08 0.0000000e+00 
0.0000000e+00 7.2117373e-08 0.0000000e+00 
0.0000000e+00 -9.0646890e-06 0.0000000e+00 
0.0000000e+00 -2.4123472e-05 0.0000000e+00 
0.0000000e+00 -6.0871211e-05 0.0000000e+00 
0.0000000e+00 6.5101595e-08 0.0000000e+00 
0.0000000e+00 6.0396907e-08 0.0000000e+00 
0.0000000e+00 3.7250121e-08 0.0000000e+00 
0.0000000e+00 7.9081403e-08 0.0000000e+00 
0.0000000e+00 2.6233780e-08 0.0000000e+00 
0.0000000e+00 7.8449766e-08 0.0000000e+00 
0.0000000e+00 3.1538871e-08 0.0000000e+00 
0.0000000e+00 4.5476224e-08 0.0000000e+00 
0.0000000e+00 5.8802627e-08 0.0000000e+00 
0.0000000e+00 6.0856223e-08 0.0000000e+00 
0.0000000e+00 2.8948003e-08 0.0000000e+00 
0.0000000e+00 7.5869650e-08 0.0000000e+00 
0.0000000e+00 5.6034022e-08 0.0000000e+00 
0.0000000e+00 2.1363388e-08 0.0000000e+00 
0.0000000e+00 0.0000000e+00 0.0000000e+00 
0.0000000e+00 0.0000000e+00 0.0000000e+00 
0.0000000e+00 0.0000000e+00 0.0000000e+00 
0.0000000e+00 0.0000000e+00 0.0000000e+00 
0.0000000e+00 0.0000000e+00 0.0000000e+00 
0.0000000e+00 0.0000000e+00 0.0000000e+00 
0.0000000e+00 0.0000000e+00 0.0000000e+00 
0.0000000e+00 0.0000000e+00 0.0000000e+00 
0.0000000e+00 0.0000000e+00 0.0000000e+00 
0.0000000e+00 0.0000000e+00 0.0000000e+00 
0.0000000e+00 0.0000000e+00 0.0000000e+00 
0.0000000e+00 0.0000000e+00 0.0000000e+00 
0.0000000e+00 0.0000000e+00 0.0000000e+00 
0.0000000e+00 0.0000000e+00 0.0000000e+00 
0.0000000e+00 0.0000000e+00 0.0000000e+00 
0.0000000e+00 0.0000000e+00 0.0000000e+00 
0.0000000e+00 0.0000000e+00 0.0000000e+00 
0.0000000e+00 0.0000000e+00 0.0000000e+00 
0.0000000e+00 0.0000000e+00 0.0000000e+00 
0.0000000e+00 0.0000000e+00 0.0000000e+00 
0.0000000e+00 0.0000000e+00 0.0000000e+00 
0.0000000e+00 0.0000000e+00 0.0000000e+00 
0.0000000e+00 0.0000000e+00 0.0000000e+00 
0.0000000e+00 0.0000000e+00 0.0000000e+00 
0.0000000e+00 0.0000000e+00 0.0000000e+00 
0.0000000e+00 0.0000000e+00 0.0000000e+00 
0.0000000e+00 0.0000000e+00 0.0000000e+00 
0.0000000e+00 0.0000000e+00 0.0000000e+00 
0.0000000e+00 0.0000000e+00 0.0000000e+00 
0.0000000e+00 0.0000000e+00 0.0000000e+00 
0.0000000e+00 0.0000000e+00 0.0000000e+00 
0.0000000e+00 0.0000000e+00 0.0000000e+00 
0.0000000e+00 0.0000000e+00 0.0000000e+00 
0.0000000e+00 0.0000000e+00 0.0000000e+00 
0.0000000e+00 0.0000000e+00 0.0000000e+00 
0.0000000e+00 0.0000000e+00 0.0000000e+00 
0.0000000e+00 0.0000000e+00 0.0000000e+00 
0.0000000e+00 0.0000000e+00 0.0000000e+00 
0.0000000e+00 0.0000000e+00 0.0000000e+00 
0.0000000e+00 0.0000000e+00 0.0000000e+00 
0.0000000e+00 0.0000000e+00 0.0000000e+00 
0.0000000e+00 0.0000000e+00 0.0000000e+00 
0.0000000e+00 0.0000000e+00 0.0000000e+00 
0.0000000e+00 0.0000000e+00 0.0000000e+00 
0.0000000e+00 0.0000000e+00 0.0000000e+00 
0.0000000e+00 0.0000000e+00 0.0000000e+00 
0.0000000e+00 0.0000000e+00 0.0000000e+00 
0.0000000e+00 0.0000000e+00 0.0000000e+00 
0.0000000e+00 0.0000000e+00 0.0000000e+00 
0.0000000e+00 1.1770985e-07 0.0000000e+00 
0.0000000e+00 -2.5126737e-06 0.0000000e+00 
0.0000000e+00 3.0229461e-07 0.0000000e+00 
0.0000000e+00 2.2587190e-07 0.0000000e+00 
0.0000000e+00 -8.1333928e-07 0.0000000e+00 
0.0000000e+00 7.8506226e-08 0.0000000e+00 
0.0000000e+00 6.3118485e-08 0.0000000e+00 
0.0000000e+00 -5.4308003e-07 0.0000000e+00 
0.0000000e+00 7.6086685e-08 0.0000000e+00 
0.0000000e+00 -1.6343039e-07 0.0000000e+00 
0.0000000e+00 1.8728855e-07 0.0000000e+00 
0.0000000e+00 3.1667474e-07 0.0000000e+00 
0.0000000e+00 -1.0809792e-07 0.0000000e+00 
0.0000000e+00 -1.1612311e-06 0.0000000e+00 
0.0000000e+00 4.7072941e-08 0.0000000e+00 
0.0000000e+00 -1.6892978e-06 0.0000000e+00 
0.0000000e+00 -2.1539470e-06 0.0000000e+00 
0.0000000e+00 6.8247772e-08 0.0000000e+00 
0.0000000e+00 1.4759689e-07 0.0000000e+00 
0.0000000e+00 -7.0542274e-07 0.0000000e+00 
0.0000000e+00 1.1754068e-07 0.0000000e+00 
0.0000000e+00 -2.1831109e-07 0.0000000e+00 
0.0000000e+00 1.7519729e-07 0.0000000e+00 
0.0000000e+00 1.7725137e-07 0.0000000e+00 
0.0000000e+00 -1.4993329e-06 0.0000000e+00 
0.0000000e+00 -2.7709123e-06 0.0000000e+00 
0.0000000e+00 -1.5100803e-06 0.0000000e+00 
0.0000000e+00 8.3034109e-08 0.0000000e+00 
0.0000000e+00 3.2840845e-08 0.0000000e+00 
0.0000000e+00 1.3051725e-08 0.0000000e+00 
0.0000000e+00 -6.7719397e-05 0.0000000e+00 
0.0000000e+00 -1.4488984e-07 0.0000000e+00 
0.0000000e+00 -8.0474138e-06 0.0000000e+00 
0.0000000e+00 4.5939100e-08 0.0000000e+00 
0.0000000e+00 -1.3051189e-06 0.0000000e+00 
0.0000000e+00 -5.2608415e-05 0.0000000e+00 
0.0000000e+00 1.1895285e-08 0.0000000e+00 
0.0000000e+00 -1.6295098e-07 0.0000000e+00 
0.0000000e+00 -6.2136833e-06 0.0000000e+00 
0.0000000e+00 -2.9827154e-06 0.0000000e+00 
0.0000000e+00 -2.0740295e-05 0.0000000e+00 
0.0000000e+00 -1.9457138e-05 0.0000000e+00 
0.0000000e+00 5.4665673e-08 0.0000000e+00 
0.0000000e+00 -8.9213834e-05 0.0000000e+00 
0.0000000e+00 -2.8200358e-05 0.0000000e+00 
0.0000000e+00 3.4631547e-08 0.0000000e+00 
0.0000000e+00 -4.8973726e-07 0.0000000e+00 
0.0000000e+00 -3.2054500e-06 0.0000000e+00 
0.0000000e+00 3.2991206e-08 0.0000000e+00 
0.0000000e+00 -2.5110287e-05 0.0000000e+00 
0.0000000e+00 -3.6218985e-08 0.0000000e+00 
0.0000000e+00 -9.5523137e-06 0.0000000e+00 
0.0000000e+00 -7.5446059e-07 0.0000000e+00 
0.0000000e+00 -4.7042598e-05 0.0000000e+00 
0.0000000e+00 -3.1413780e-05 0.0000000e+00 
0.0000000e+00 -9.9786899e-05 0.0000000e+00 
0.0000000e+00 4.8221377e-08 0.0000000e+00 
0.0000000e+00 1.7733511e-08 0.0000000e+00 
0.0000000e+00 -2.3467794e-05 0.0000000e+00 
0.0000000e+00 -6.2052691e-06 0.0000000e+00 
0.0000000e+00 -3.2101270e-05 0.0000000e+00 
0.0000000e+00 -8.4473795e-05 0.0000000e+00 
0.0000000e+00 -1.4873183e-05 0.0000000e+00 
0.0000000e+00 -1.4472326e-05 0.0000000e+00 
0.0000000e+00 -5.5956543e-06 0.0000000e+00 
0.0000000e+00 -7.1591036e-05 0.0000000e+00 
0.0000000e+00 -3.7031401e-05 0.0000000e+00 
0.0000000e+00 -1.6062928e-05 0.0000000e+00 
0.0000000e+00 -3.1477086e-06 0.0000000e+00 
0.0000000e+00 -7.1216741e-06 0.0000000e+00 
0.0000000e+00 -1.1190493e-04 0.0000000e+00 
0.0000000e+00 -3.3993183e-05 0.0000000e+00 
-5.8369833e-06 -2.4264060e-05 1.1422467e-05 
-6.5088102e-08 1.1850634e-07 1.8428203e-07 
-3.0254725e-07 2.2026498e-08 1.1646788e-06 
-9.6469284e-07 -2.8971933e-06 4.5068118e-06 
-2.0751799e-05 -1.0629144e-04 2.0330855e-05 
-3.5749801e-07 2.2051653e-07 5.3704173e-07 
-3.6873882e-06 -3.1572649e-06 2.2983236e-06 
-6.0098955e-08 2.1565926e-07 7.1437427e-08 
-2.5618222e-08 8.8253010e-08 5.3594437e-08 
-1.2296036e-05 -3.6779362e-05 3.7404016e-06 
-1.6145798e-08 9.3598203e-08 2.1694754e-08 
-1.7498582e-05 -1.2928963e-04 6.0107495e-06 
-2.0204529e-07 2.5086948e-07 2.8942270e-07 
-1.5503787e-07 2.2197970e-07 2.5601284e-07 
-8.5148230e-08 2.0208525e-07 1.4511279e-07 
-1.3710299e-07 1.9344877e-07 2.9495021e-07 
-2.7390757e-07 1.4462570e-07 6.3737934e-07 
-5.6939268e-08 1.3498389e-07 1.0179941e-07 
-1.9002266e-07 1.2936033e-07 5.0473636e-07 
-3.8275604e-07 1.6175409e-07 5.6929059e-07 
-5.5104630e-07 -1.1214031e-07 1.0657831e-06 
-6.8548570e-07 -2.7649950e-08 1.5892032e-06 
-1.0373922e-06 -8.1345087e-07 2.4451774e-06 
-1.7504462e-06 -1.2598165e-06 2.7458800e-06 
-2.7932747e-06 -3.5094445e-06 4.4043786e-06 
-3.8061366e-06 -4.5442935e-06 4.5086172e-06 
-2.2051354e-06 -1.7235376e-06 2.9351761e-06 
-8.1201040e-07 -6.4718330e-07 2.1510630e-06 
-4.5993206e-06 -8.5202864e-06 5.5521427e-06 
-5.5564601e-06 -9.4653406e-06 5.1152306e-06 
-2.8343375e-06 -6.0759926e-06 6.5122549e-06 
-1.5896259e-08 9.5730293e-08 4.1217405e-08 
-3.0206036e-07 9.4628007e-08 9.3785366e-07 
-1.1072331e-06 2.3086667e-08 1.1639075e-06 
-5.7774637e-06 -1.2865274e-05 7.7478438e-07 
-1.0334156e-05 -2.0910369e-05 4.5843490e-06 
-1.5687250e-05 -4.7418442e-05 6.3058701e-06 
-1.1627915e-05 -1.7952751e-05 6.2196573e-06 
-3.7399423e-06 -5.1063471e-06 8.3944997e-07 
-1.9426148e-08 1.3757261e-07 1.5465483e-08 
-1.0319742e-07 1.5388781e-07 2.1548509e-07 
-5.4945950e-08 1.2557705e-07 1.0604696e-07 
-7.8523581e-06 -2.0425303e-05 1.0254435e-05 
-1.5107019e-05 -4.1142710e-05 1.2800742e-05 
-7.8085113e-06 -8.0351247e-06 5.7753205e-06 
-1.1416444e-07 1.5073620e-07 3.6135617e-07 
-3.7017134e-07 -3.1614974e-07 1.7561283e-06 
-5.5608450e-07 -1.2875084e-06 3.0933588e-06 
-1.2557653e-05 -4.4241766e-05 1.8556797e-05 
-1.5714399e-07 1.1622548e-07 6.7746328e-07 
-9.4691113e-06 -1.2540078e-04 6.4758351e-06 
-1.8151198e-06 -8.1565383e-07 1.6727412e-06 
-1.1017552e-06 -1.9483455e-06 3.5330029e-06 
-1.0503552e-08 7.3154276e-08 1.9674150e-08 
-4.1295270e-06 -1.2477507e-05 9.0619897e-06 
-1.4454357e-05 -7.6110176e-05 1.9189698e-05 
-4.5173895e-08 9.0643795e-08 9.6186596e-08 
-7.6227138e-06 -9.8697756e-06 3.3781214e-06 
-1.2618193e-05 -8.4469757e-05 7.6797432e-06 
-3.4069246e-06 -3.5336066e-06 3.8460262e-06 
-3.4698469e-06 -6.7821761e-06 7.9969578e-07 
-3.7897994e-08 1.3626629e-07 8.2056253e-08 
-7.5266566e-09 9.3206246e-08 4.5622017e-09 
-2.7213668e-08 9.3025605e-08 4.9695235e-08 
-2.1486308e-06 -5.9565587e-06 6.0295256e-06 
-1.0397987e-06 -2.4912765e-07 1.1514326e-06 
-4.3659463e-07 -1.0654892e-07 1.3387619e-06 
-2.8102971e-07 9.5277372e-08 9.0493484e-07 
-5.9982403e-06 -1.4081807e-05 9.9229501e-06 
-1.1377224e-08 8.4809521e-08 2.6508543e-08 
-1.0453610e-08 -1.1989660e-07 5.8610931e-07 
4.4235606e-09 6.7273156e-08 2.0788423e-07 
-9.5274409e-08 -2.8602929e-07 1.1530567e-06 
-3.9870507e-08 -6.4841572e-07 1.7093113e-06 
-1.9314802e-08 7.5108971e-08 1.2593739e-07 
-2.3160966e-07 -2.0985037e-06 2.7914436e-06 
-3.5722374e-07 -3.9353022e-06 3.5718463e-06 
-1.0505722e-06 -9.4062880e-06 5.7430516e-06 
-1.3070313e-06 -1.6100375e-05 6.8832701e-06 
-2.5062302e-06 -3.3072134e-05 1.0605215e-05 
-3.5502537e-06 -5.5386314e-05 9.5428732e-06 
-5.9063177e-06 -9.8775119e-05 6.6581806e-06 
-6.6410121e-06 -1.5479801e-04 8.9204868e-06 
-6.0592956e-06 -1.6304167e-04 6.3602452e-06 
8.7566531e-07 -1.4194867e-04 2.3412470e-06 
-1.3241770e-08 5.9966062e-08 6.9658498e-08 
-1.3238718e-08 6.8281700e-08 3.2705945e-08 
-4.8468740e-09 5.9048638e-08 1.2929798e-08 
7.9118493e-08 6.9319391e-08 -3.4904011e-07 
1.6036448e-06 -7.0222650e-06 -4.2224838e-06 
7.2684406e-06 -2.9225534e-05 -8.1212165e-06 
-8.5169409e-09 8.1134196e-08 -1.4556340e-08 
5.0651568e-07 -5.7332744e-07 -9.0723756e-07 
-1.2313092e-07 -8.2927676e-07 -2.7826354e-07 
3.3556960e-06 -4.0040832e-06 -2.9517621e-06 
4.1418055e-08 1.7528252e-07 -1.6504538e-07 
8.1761582e-06 -8.6235988e-05 -4.4018730e-06 
1.4093469e-06 -2.3460880e-05 -4.9362784e-06 
6.6014265e-09 9.7570478e-08 -2.1157156e-08 
6.2759145e-06 -1.1370095e-05 -3.0563310e-06 
-2.7134481e-08 1.2576358e-07 4.7317432e-08 
1.0065944e-07 -6.5207496e-06 -1.9382749e-07 
1.7345560e-07 1.7946331e-07 -3.4468795e-07 
3.3730025e-06 -6.7535577e-05 -1.0934206e-05 
-1.5072001e-08 3.0839420e-08 2.5242025e-07 
-2.1180819e-08 8.6296758e-08 2.9458739e-08 
8.6485807e-07 -5.7368970e-07 -1.1715135e-06 
1.9377017e-08 7.4065696e-08 -1.4779005e-07 
5.5483252e-07 -9.9503413e-06 -1.5528619e-06 
-6.5791099e-08 8.5895820e-08 1.3818556e-07 
6.5514945e-07 -1.8975030e-06 -5.6461710e-07 
-3.8518241e-08 1.4850590e-07 3.1222562e-08 
2.5443468e-08 9.9219179e-08 -5.2400335e-08 
2.8453276e-06 -2.7230653e-06 -1.9057609e-06 
2.9105142e-06 -1.1631659e-05 -6.4691835e-06 
7.8245539e-06 -3.5186917e-05 -3.3091328e-06 
7.0761229e-07 -8.2005306e-07 -6.8195948e-07 
-5.5245617e-09 8.9106244e-08 1.7028547e-08 
1.9900337e-07 -1.2573034e-08 -5.9262709e-07 
3.0771432e-06 -1.5904820e-05 -2.8712723e-06 
3.1037532e-06 -5.1510337e-06 -6.6082566e-07 
3.7465333e-09 2.4887726e-07 -5.0884488e-08 
-2.4635389e-09 2.1232474e-08 -1.1235561e-07 
1.5138347e-07 -4.0016187e-07 -9.6100666e-07 
-6.5186946e-08 2.0444783e-07 1.6897863e-07 
1.7214455e-06 -1.9497734e-06 -2.8469706e-06 
1.2715726e-07 9.5474640e-08 -2.0520737e-07 
4.1748908e-07 -2.6055307e-06 -6.9512703e-07 
-1.8559694e-09 9.8448140e-08 9.2807282e-09 
3.8336992e-07 -2.8318752e-06 -2.4405945e-06 
-1.1175382e-08 1.1940514e-07 1.2932260e-07 
-6.1640941e-09 7.0690596e-08 1.4397415e-08 
1.0496033e-05 -2.7627540e-05 -5.5448686e-06 
9.6316103e-07 -4.2539491e-06 -4.3246573e-07 
6.5984987e-06 -9.8096971e-06 -5.0374538e-06 
2.7533700e-09 5.5099132e-08 -1.0928416e-08 
-1.2171742e-07 2.4332607e-07 1.2983536e-07 
-3.2185292e-09 1.6911936e-07 4.6767465e-09 
5.5252167e-06 -4.6138615e-05 -3.4327998e-06 
4.8186130e-06 -3.6012221e-05 -6.7825067e-06 
5.7165135e-09 5.3639980e-08 -6.1016756e-09 
3.9951656e-06 -6.3671955e-06 -5.1363063e-06 
5.8006668e-07 -2.4353551e-07 -1.0419027e-06 
1.6676158e-06 -4.5755332e-06 -7.3459779e-07 
-5.9939140e-07 -1.3475696e-05 1.4242723e-06 
1.9574834e-06 -2.8887811e-05 -2.7678011e-06 
-1.0314132e-10 3.5926838e-08 -1.3734978e-08 
1.6300775e-07 -1.2776650e-04 2.2516015e-07 
6.3211301e-06 -1.6011136e-05 -1.8556336e-06 
2.0029713e-06 -1.3300670e-05 -4.3628867e-07 
8.9590806e-08 -1.7025570e-07 -8.2592692e-08 
-3.1778774e-07 -4.5091053e-07 7.0128863e-07 
TOTAL_DISPLACEMENT 3 395  float
0.0000000e+00 0.0000000e+00 0.0000000e+00 
0.0000000e+00 0.0000000e+00 0.0000000e+00 
0.0000000e+00 0.0000000e+00 0.0000000e+00 
0.0000000e+00 0.0000000e+00 0.0000000e+00 
0.0000000e+00 0.0000000e+00 0.0000000e+00 
0.0000000e+00 0.0000000e+00 0.0000000e+00 
0.0000000e+00 0.0000000e+00 0.0000000e+00 
0.0000000e+00 0.0000000e+00 0.0000000e+00 
0.0000000e+00 0.0000000e+00 0.0000000e+00 
0.0000000e+00 0.0000000e+00 0.0000000e+00 
0.0000000e+00 0.0000000e+00 0.0000000e+00 
0.0000000e+00 0.0000000e+00 0.0000000e+00 
0.0000000e+00 0.0000000e+00 0.0000000e+00 
0.0000000e+00 0.0000000e+00 0.0000000e+00 
0.0000000e+00 0.0000000e+00 0.0000000e+00 
0.0000000e+00 0.0000000e+00 0.0000000e+00 
0.0000000e+00 0.0000000e+00 0.0000000e+00 
0.0000000e+00 0.0000000e+00 0.0000000e+00 
0.0000000e+00 0.0000000e+00 0.0000000e+00 
0.0000000e+00 0.0000000e+00 0.0000000e+00 
0.0000000e+00 0.0000000e+00 0.0000000e+00 
0.0000000e+00 0.0000000e+00 0.0000000e+00 
0.0000000e+00 0.0000000e+00 0.0000000e+00 
0.0000000e+00 0.0000000e+00 0.0000000e+00 
0.0000000e+00 0.0000000e+00 0.0000000e+00 
0.0000000e+00 0.0000000e+00 0.0000000e+00 
0.0000000e+00 0.0000000e+00 0.0000000e+00 
0.0000000e+00 0.0000000e+00 0.0000000e+00 
0.0000000e+00 0.0000000e+00 0.0000000e+00 
0.0000000e+00 0.0000000e+00 0.0000000e+00 
0.0000000e+00 0.0000000e+00 0.0000000e+00 
0.0000000e+00 0.0000000e+00 0.0000000e+00 
0.0000000e+00 0.0000000e+00 0.0000000e+00 
0.0000000e+00 0.0000000e+00 0.0000000e+00 
0.0000000e+00 0.0000000e+00 0.0000000e+00 
0.0000000e+00 0.0000000e+00 0.0000000e+00 
0.0000000e+00 0.0000000e+00 0.0000000e+00 
0.0000000e+00 0.0000000e+00 0.0000000e+00 
0.0000000e+00 0.0000000e+00 0.0000000e+00 
0.0000000e+00 0.0000000e+00 0.0000000e+00 
0.0000000e+00 0.0000000e+00 0.0000000e+00 
0.0000000e+00 0.0000000e+00 0.0000000e+00 
0.0000000e+00 0.0000000e+00 0.0000000e+00 
0.0000000e+00 0.0000000e+00 0.0000000e+00 
0.0000000e+00 0.0000000e+00 0.0000000e+00 
0.0000000e+00 0.0000000e+00 0.0000000e+00 
0.0000000e+00 0.0000000e+00 0.0000000e+00 
0.0000000e+00 0.0000000e+00 0.0000000e+00 
0.0000000e+00 0.0000000e+00 0.0000000e+00 
0.0000000e+00 0.0000000e+00 0.0000000e+00 
0.0000000e+00 0.0000000e+00 0.0000000e+00 
0.0000000e+00 0.0000000e+00 0.0000000e+00 
0.0000000e+00 0.0000000e+00 0.0000000e+00 
0.0000000e+00 0.0000000e+00 0.0000000e+00 
0.0000000e+00 0.0000000e+00 0.0000000e+00 
0.0000000e+00 0.0000000e+00 0.0000000e+00 
0.0000000e+00 0.0000000e+00 0.0000000e+00 
0.0000000e+00 0.0000000e+00 0.0000000e+00 
0.0000000e+00 0.0000000e+00 0.0000000e+00 