# vtk DataFile Version 4.0
vtk output
ASCII
DATASET UNSTRUCTURED_GRID
POINTS 377 float
0.0000000e+00 0.0000000e+00 0.0000000e+00 
5.0000000e+00 0.0000000e+00 0.0000000e+00 
5.0000000e+00 3.0000000e+00 0.0000000e+00 
0.0000000e+00 3.0000000e+00 0.0000000e+00 
0.0000000e+00 0.0000000e+00 1.0000000e+01 
5.0000000e+00 0.0000000e+00 1.0000000e+01 
5.0000000e+00 3.0000000e+00 1.0000000e+01 
0.0000000e+00 3.0000000e+00 1.0000000e+01 
1.0000000e+00 3.0000000e+00 5.0000000e-01 
1.0000000e+00 3.0000000e+00 1.0000000e+00 
1.0000000e+00 3.0000000e+00 1.5000000e+00 
1.0000000e+00 3.0000000e+00 2.0000000e+00 
1.0000000e+00 3.0000000e+00 2.5000000e+00 
1.0000000e+00 3.0000000e+00 3.0000000e+00 
1.0000000e+00 3.0000000e+00 3.5000000e+00 
1.0000000e+00 3.0000000e+00 4.0000000e+00 
1.0000000e+00 3.0000000e+00 4.5000000e+00 
1.0000000e+00 3.0000000e+00 5.0000000e+00 
1.0000000e+00 3.0000000e+00 5.5000000e+00 
1.0000000e+00 3.0000000e+00 6.0000000e+00 
1.0000000e+00 3.0000000e+00 6.5000000e+00 
1.0000000e+00 3.0000000e+00 7.0000000e+00 
1.0000000e+00 3.0000000e+00 7.5000000e+00 
1.0000000e+00 3.0000000e+00 8.0000000e+00 
1.0000000e+00 3.0000000e+00 8.5000000e+00 
1.0000000e+00 3.0000000e+00 9.0000000e+00 
1.0000000e+00 3.0000000e+00 9.5000000e+00 
1.0000000e+00 3.0000000e+00 0.0000000e+00 
1.0000000e+00 3.0000000e+00 1.0000000e+01 
1.0000000e+00 0.0000000e+00 0.0000000e+00 
2.0000000e+00 0.0000000e+00 0.0000000e+00 
3.0000000e+00 0.0000000e+00 0.0000000e+00 
4.0000000e+00 0.0000000e+00 0.0000000e+00 
5.0000000e+00 1.0000000e+00 0.0000000e+00 
5.0000000e+00 2.0000000e+00 0.0000000e+00 
0.0000000e+00 2.0000000e+00 0.0000000e+00 
0.0000000e+00 1.0000000e+00 0.0000000e+00 
0.0000000e+00 0.0000000e+00 1.0000000e+00 
0.0000000e+00 0.0000000e+00 2.0000000e+00 
0.0000000e+00 0.0000000e+00 3.0000000e+00 
0.0000000e+00 0.0000000e+00 4.0000000e+00 
0.0000000e+00 0.0000000e+00 5.0000000e+00 
0.0000000e+00 0.0000000e+00 6.0000000e+00 
0.0000000e+00 0.0000000e+00 7.0000000e+00 
0.0000000e+00 0.0000000e+00 8.0000000e+00 
0.0000000e+00 0.0000000e+00 9.0000000e+00 
5.0000000e+00 0.0000000e+00 1.0000000e+00 
5.0000000e+00 0.0000000e+00 2.0000000e+00 
5.0000000e+00 0.0000000e+00 3.0000000e+00 
5.0000000e+00 0.0000000e+00 4.0000000e+00 
5.0000000e+00 0.0000000e+00 5.0000000e+00 
5.0000000e+00 0.0000000e+00 6.0000000e+00 
5.0000000e+00 0.0000000e+00 7.0000000e+00 
5.0000000e+00 0.0000000e+00 8.0000000e+00 
5.0000000e+00 0.0000000e+00 9.0000000e+00 
1.0000000e+00 0.0000000e+00 1.0000000e+01 
2.0000000e+00 0.0000000e+00 1.0000000e+01 
3.0000000e+00 0.0000000e+00 1.0000000e+01 
4.0000000e+00 0.0000000e+00 1.0000000e+01 
5.0000000e+00 3.0000000e+00 1.0000000e+00 
5.0000000e+00 3.0000000e+00 2.0000000e+00 
5.0000000e+00 3.0000000e+00 3.0000000e+00 
5.0000000e+00 3.0000000e+00 4.0000000e+00 
5.0000000e+00 3.0000000e+00 5.0000000e+00 
5.0000000e+00 3.0000000e+00 6.0000000e+00 
5.0000000e+00 3.0000000e+00 7.0000000e+00 
5.0000000e+00 3.0000000e+00 8.0000000e+00 
5.0000000e+00 3.0000000e+00 9.0000000e+00 
5.0000000e+00 1.0000000e+00 1.0000000e+01 
5.0000000e+00 2.0000000e+00 1.0000000e+01 
0.0000000e+00 3.0000000e+00 1.0000000e+00 
0.0000000e+00 3.0000000e+00 2.0000000e+00 
0.0000000e+00 3.0000000e+00 3.0000000e+00 
0.0000000e+00 3.0000000e+00 4.0000000e+00 
0.0000000e+00 3.0000000e+00 5.0000000e+00 
0.0000000e+00 3.0000000e+00 6.0000000e+00 
0.0000000e+00 3.0000000e+00 7.0000000e+00 
0.0000000e+00 3.0000000e+00 8.0000000e+00 
0.0000000e+00 3.0000000e+00 9.0000000e+00 
0.0000000e+00 2.0000000e+00 1.0000000e+01 
0.0000000e+00 1.0000000e+00 1.0000000e+01 
4.0000000e+00 3.0000000e+00 0.0000000e+00 
3.0000000e+00 3.0000000e+00 0.0000000e+00 
2.0000000e+00 3.0000000e+00 0.0000000e+00 
4.0000000e+00 3.0000000e+00 1.0000000e+01 
3.0000000e+00 3.0000000e+00 1.0000000e+01 
2.0000000e+00 3.0000000e+00 1.0000000e+01 
4.0618000e+00 1.5000000e+00 0.0000000e+00 
1.5046000e+00 7.6549745e-01 0.0000000e+00 
2.5000000e+00 2.1339746e+00 0.0000000e+00 
1.5046000e+00 2.2345026e+00 0.0000000e+00 
2.4957771e+00 8.1560516e-01 0.0000000e+00 
3.4707544e+00 2.2336540e+00 0.0000000e+00 
3.4700506e+00 7.5794268e-01 0.0000000e+00 
8.6322361e-01 1.5000000e+00 0.0000000e+00 
2.0000000e+00 1.5000000e+00 0.0000000e+00 
2.9960666e+00 1.4974480e+00 0.0000000e+00 
4.2679491e+00 7.3205084e-01 0.0000000e+00 
4.2679491e+00 2.2679491e+00 0.0000000e+00 
7.2695929e-01 2.2730408e+00 0.0000000e+00 
7.2695929e-01 7.2695929e-01 0.0000000e+00 
4.1822505e+00 0.0000000e+00 2.5515697e+00 
4.2017918e+00 0.0000000e+00 4.4725966e+00 
4.1114569e+00 0.0000000e+00 6.5092020e+00 
8.6602539e-01 0.0000000e+00 3.5000000e+00 
8.4778279e-01 0.0000000e+00 5.4684029e+00 
8.9629614e-01 0.0000000e+00 7.5867257e+00 
2.5566745e+00 0.0000000e+00 8.1853306e-01 
2.4918270e+00 0.0000000e+00 9.1386929e+00 
8.4677207e-01 0.0000000e+00 1.5042374e+00 
4.0943027e+00 0.0000000e+00 8.4081745e+00 
8.6281651e-01 0.0000000e+00 2.5007062e+00 
1.7315160e+00 0.0000000e+00 3.0001178e+00 
1.7319617e+00 0.0000000e+00 4.0000196e+00 
2.5980761e+00 0.0000000e+00 3.5000000e+00 
2.5536871e+00 0.0000000e+00 4.4963923e+00 
2.5928419e+00 0.0000000e+00 2.4239938e+00 
1.5037409e+00 0.0000000e+00 9.1535149e+00 
1.8433737e+00 0.0000000e+00 8.1858873e+00 
3.0000000e+00 0.0000000e+00 8.2679491e+00 
2.5000000e+00 0.0000000e+00 7.4019237e+00 
3.5042722e+00 0.0000000e+00 7.4271150e+00 
3.0310018e+00 0.0000000e+00 6.5282087e+00 
2.0373929e+00 0.0000000e+00 6.5307913e+00 
3.4767809e+00 0.0000000e+00 5.8031492e+00 
2.5452602e+00 0.0000000e+00 5.5720768e+00 
1.6456656e+00 0.0000000e+00 1.9697139e+00 
8.6297011e-01 0.0000000e+00 4.4947371e+00 
1.0111579e+00 0.0000000e+00 6.5282545e+00 
3.4994321e+00 0.0000000e+00 8.4691072e-01 
4.1860156e+00 0.0000000e+00 3.5040276e+00 
1.7320508e+00 0.0000000e+00 5.0000000e+00 
4.0544066e+00 0.0000000e+00 1.5781221e+00 
1.5817389e+00 0.0000000e+00 9.3943578e-01 
8.3166349e-01 0.0000000e+00 8.5090933e+00 
3.4686174e+00 0.0000000e+00 9.1752682e+00 
3.0709300e+00 0.0000000e+00 1.5799091e+00 
3.3927374e+00 0.0000000e+00 3.0399952e+00 
3.3826034e+00 0.0000000e+00 3.9747651e+00 
4.3420062e+00 0.0000000e+00 7.4688983e+00 
3.4023225e+00 0.0000000e+00 4.9314723e+00 
1.6740381e+00 0.0000000e+00 7.3014426e+00 
4.2715640e+00 0.0000000e+00 5.4758859e+00 
1.6225953e+00 0.0000000e+00 5.8104177e+00 
4.2679491e+00 0.0000000e+00 9.2679491e+00 
7.3205084e-01 0.0000000e+00 7.3205084e-01 
4.2679491e+00 0.0000000e+00 7.3205084e-01 
7.3205084e-01 0.0000000e+00 9.2679491e+00 
3.4586334e+00 0.0000000e+00 2.2347178e+00 
2.2895701e+00 0.0000000e+00 1.5463171e+00 
5.0000000e+00 1.5000000e+00 9.3820012e-01 
5.0000000e+00 1.5000000e+00 9.0618000e+00 
5.0000000e+00 2.1339746e+00 2.5000000e+00 
5.0000000e+00 2.1582527e+00 4.4926300e+00 
5.0000000e+00 2.2774773e+00 7.4626446e+00 
5.0000000e+00 8.6602539e-01 3.5000000e+00 
5.0000000e+00 8.2692069e-01 5.5000000e+00 
5.0000000e+00 8.0628556e-01 7.4626446e+00 
5.0000000e+00 8.4408212e-01 4.5000000e+00 
5.0000000e+00 8.3320528e-01 6.4654617e+00 
5.0000000e+00 1.5653628e+00 5.9376192e+00 
5.0000000e+00 2.1339746e+00 3.5000000e+00 
5.0000000e+00 8.6602539e-01 2.5000000e+00 
5.0000000e+00 7.5638938e-01 8.4645281e+00 
5.0000000e+00 2.2575710e+00 8.4645281e+00 
5.0000000e+00 2.2336540e+00 1.5292456e+00 
5.0000000e+00 7.6634604e-01 1.5292456e+00 
5.0000000e+00 2.2649403e+00 5.4883747e+00 
5.0000000e+00 1.5584890e+00 6.9705243e+00 
5.0000000e+00 1.5000000e+00 4.0000000e+00 
5.0000000e+00 1.5000000e+00 3.0000000e+00 
5.0000000e+00 1.4974226e+00 5.0000000e+00 
5.0000000e+00 2.2777116e+00 6.4765272e+00 
5.0000000e+00 1.5000000e+00 2.0022767e+00 
5.0000000e+00 1.5067772e+00 7.9912200e+00 
5.0000000e+00 2.2679491e+00 9.2679491e+00 
5.0000000e+00 7.3205084e-01 7.3205084e-01 
5.0000000e+00 2.2679491e+00 7.3205084e-01 
5.0000000e+00 7.3205084e-01 9.2679491e+00 
0.0000000e+00 1.5000000e+00 9.3820012e-01 
0.0000000e+00 1.5000000e+00 9.0618000e+00 
0.0000000e+00 8.6602539e-01 2.5000000e+00 
0.0000000e+00 8.6602539e-01 4.5000000e+00 
0.0000000e+00 8.6602539e-01 6.5000000e+00 
0.0000000e+00 2.1339746e+00 3.5000000e+00 
0.0000000e+00 2.1339746e+00 5.5000000e+00 
0.0000000e+00 2.1339746e+00 7.5000000e+00 
0.0000000e+00 8.6602539e-01 3.5000000e+00 
0.0000000e+00 2.1339746e+00 2.5000000e+00 
0.0000000e+00 2.1339746e+00 4.5000000e+00 
0.0000000e+00 2.1339746e+00 6.5000000e+00 
0.0000000e+00 8.6602539e-01 5.5000000e+00 
0.0000000e+00 8.6602539e-01 7.5000000e+00 
0.0000000e+00 2.2336540e+00 8.4707546e+00 
0.0000000e+00 2.2336540e+00 1.5292456e+00 
0.0000000e+00 7.6634604e-01 8.4707546e+00 
0.0000000e+00 7.6634604e-01 1.5292456e+00 
0.0000000e+00 1.5000000e+00 4.0000000e+00 
0.0000000e+00 1.5000000e+00 6.0000000e+00 
0.0000000e+00 1.5000000e+00 3.0000000e+00 
0.0000000e+00 1.5000000e+00 5.0000000e+00 
0.0000000e+00 1.5000000e+00 7.0000000e+00 
0.0000000e+00 1.5000000e+00 8.0005512e+00 
0.0000000e+00 1.5000000e+00 2.0022767e+00 
0.0000000e+00 7.3205084e-01 9.2679491e+00 
0.0000000e+00 2.2679491e+00 7.3205084e-01 
0.0000000e+00 7.3205084e-01 7.3205084e-01 
0.0000000e+00 2.2679491e+00 9.2679491e+00 
1.5046000e+00 7.6549745e-01 1.0000000e+01 
4.0618000e+00 1.5000000e+00 1.0000000e+01 
2.5000000e+00 2.1339746e+00 1.0000000e+01 
1.5046000e+00 2.2345026e+00 1.0000000e+01 
2.4957771e+00 8.1560516e-01 1.0000000e+01 
3.4707544e+00 2.2336540e+00 1.0000000e+01 
3.4700506e+00 7.5794268e-01 1.0000000e+01 
8.6322361e-01 1.5000000e+00 1.0000000e+01 
2.0000000e+00 1.5000000e+00 1.0000000e+01 
2.9960666e+00 1.4974480e+00 1.0000000e+01 
4.2679491e+00 7.3205084e-01 1.0000000e+01 
4.2679491e+00 2.2679491e+00 1.0000000e+01 
7.2695929e-01 2.2730408e+00 1.0000000e+01 
7.2695929e-01 7.2695929e-01 1.0000000e+01 
1.4891552e+00 3.0000000e+00 2.2590268e+00 
1.4171888e+00 3.0000000e+00 3.6986542e+00 
1.5172310e+00 3.0000000e+00 5.7397003e+00 
1.4330127e+00 3.0000000e+00 7.2500000e+00 
1.4330127e+00 3.0000000e+00 4.7500000e+00 
1.4554617e+00 3.0000000e+00 8.2442541e+00 
4.1714277e+00 3.0000000e+00 6.4487247e+00 
4.1339746e+00 3.0000000e+00 2.5000000e+00 
[...]
POINT_DATA 377
FIELD FieldData 2
DISPLACEMENT 3 377  float
0.0000000e+00 0.0000000e+00 0.0000000e+00 
0.0000000e+00 0.0000000e+00 0.0000000e+00 
0.0000000e+00 5.4454899e-06 1.0536733e-05 
0.0000000e+00 -5.9046743e-05 1.2257963e-06 
0.0000000e+00 0.0000000e+00 0.0000000e+00 
0.0000000e+00 0.0000000e+00 0.0000000e+00 
0.0000000e+00 -1.0584732e-06 1.0384862e-05 
0.0000000e+00 1.5448528e-06 2.3626255e-06 
-4.0564751e-06 -9.6596006e-05 -6.2679243e-07 
-4.0094856e-06 -1.6161897e-04 -5.5224791e-07 
4.1838225e-06 -2.2791632e-04 -8.8454726e-07 
3.1242882e-06 -2.4109911e-04 -1.2732897e-06 
-5.8539736e-06 -1.7558066e-04 -1.6430309e-06 
-7.2558551e-06 -1.0196454e-04 -2.0344480e-06 
-5.5617061e-06 -4.9821621e-05 -1.9191928e-06 
-3.2911507e-06 -2.0246960e-05 -1.6019331e-06 
-1.7537833e-06 -6.4905248e-06 -1.2277152e-06 
-4.5811987e-07 -6.3216714e-07 -7.4181168e-07 
4.8581177e-07 1.6659882e-06 -2.7864917e-07 
9.8268333e-07 2.4455821e-06 1.4385208e-07 
1.2013994e-06 2.6727894e-06 5.0585618e-07 
1.2592749e-06 2.6921882e-06 8.2395502e-07 
1.2145485e-06 2.5734053e-06 1.0797758e-06 
1.0937608e-06 2.3721489e-06 1.2852690e-06 
9.2217022e-07 2.1352157e-06 1.4276510e-06 
6.9971310e-07 1.8771951e-06 1.5193528e-06 
3.9282392e-07 1.6398269e-06 1.5806355e-06 
0.0000000e+00 -4.6294947e-05 -2.1687170e-07 
0.0000000e+00 1.4186904e-06 1.5924945e-06 
0.0000000e+00 0.0000000e+00 0.0000000e+00 
0.0000000e+00 0.0000000e+00 0.0000000e+00 
0.0000000e+00 0.0000000e+00 0.0000000e+00 
0.0000000e+00 0.0000000e+00 0.0000000e+00 
0.0000000e+00 2.8021641e-06 2.6114697e-06 
0.0000000e+00 4.6577429e-06 6.4425253e-06 
0.0000000e+00 -5.2873249e-05 -1.6515782e-05 
0.0000000e+00 -3.1072101e-05 -1.5734076e-05 
0.0000000e+00 0.0000000e+00 0.0000000e+00 
0.0000000e+00 0.0000000e+00 0.0000000e+00 
0.0000000e+00 0.0000000e+00 0.0000000e+00 
0.0000000e+00 0.0000000e+00 0.0000000e+00 
0.0000000e+00 0.0000000e+00 0.0000000e+00 
0.0000000e+00 0.0000000e+00 0.0000000e+00 
0.0000000e+00 0.0000000e+00 0.0000000e+00 
0.0000000e+00 0.0000000e+00 0.0000000e+00 
0.0000000e+00 0.0000000e+00 0.0000000e+00 
0.0000000e+00 0.0000000e+00 0.0000000e+00 
0.0000000e+00 0.0000000e+00 0.0000000e+00 
0.0000000e+00 0.0000000e+00 0.0000000e+00 
0.0000000e+00 0.0000000e+00 0.0000000e+00 
0.0000000e+00 0.0000000e+00 0.0000000e+00 
0.0000000e+00 0.0000000e+00 0.0000000e+00 
0.0000000e+00 0.0000000e+00 0.0000000e+00 
0.0000000e+00 0.0000000e+00 0.0000000e+00 
0.0000000e+00 0.0000000e+00 0.0000000e+00 
0.0000000e+00 0.0000000e+00 0.0000000e+00 
0.0000000e+00 0.0000000e+00 0.0000000e+00 
0.0000000e+00 0.0000000e+00 0.0000000e+00 
0.0000000e+00 0.0000000e+00 0.0000000e+00 
0.0000000e+00 2.3997238e-06 8.4523790e-06 
0.0000000e+00 2.0138339e-06 6.8438767e-06 
0.0000000e+00 2.4413223e-06 6.1177748e-06 
0.0000000e+00 3.3123783e-06 6.2916074e-06 
0.0000000e+00 4.4137387e-06 6.9532066e-06 
0.0000000e+00 4.9798759e-06 8.1914159e-06 
0.0000000e+00 4.3143946e-06 8.9658524e-06 
0.0000000e+00 3.3269564e-06 9.6070607e-06 
0.0000000e+00 1.4759751e-06 9.9676554e-06 
0.0000000e+00 -1.6987698e-06 3.4650209e-06 
0.0000000e+00 -1.4884887e-06 7.1895447e-06 
0.0000000e+00 -8.6113483e-05 3.5304195e-06 
0.0000000e+00 -1.0193347e-04 -8.6255077e-06 
0.0000000e+00 -6.9196758e-05 -1.0072238e-05 
0.0000000e+00 -1.9590389e-05 -6.9595421e-06 
0.0000000e+00 -3.8533958e-06 -9.1219380e-07 
0.0000000e+00 1.3306410e-06 1.4847486e-06 
0.0000000e+00 2.5267125e-06 2.2789577e-06 
0.0000000e+00 2.3152443e-06 2.5746665e-06 
0.0000000e+00 1.7687805e-06 2.4673566e-06 
0.0000000e+00 9.7819316e-07 2.2701827e-06 
0.0000000e+00 1.5733744e-07 1.2913036e-06 
0.0000000e+00 2.4164187e-06 8.6990394e-06 
0.0000000e+00 -1.0276637e-05 7.4538002e-06 
0.0000000e+00 -3.7739788e-05 5.1584143e-06 
0.0000000e+00 -8.1164580e-07 9.5169671e-06 
0.0000000e+00 -3.0713866e-07 7.8648618e-06 
0.0000000e+00 3.8375768e-07 5.4159696e-06 
0.0000000e+00 1.8773388e-06 3.5923738e-06 
0.0000000e+00 -1.8026572e-05 -8.2005081e-06 
0.0000000e+00 -1.6312277e-05 -1.8950382e-06 
0.0000000e+00 -4.4753357e-05 -1.4127917e-05 
0.0000000e+00 -8.7063763e-06 -3.5844485e-06 
0.0000000e+00 -1.9840211e-06 4.3931641e-06 
0.0000000e+00 -1.2457874e-06 -2.0425028e-07 
0.0000000e+00 -4.0366631e-05 -1.8715000e-05 
0.0000000e+00 -2.2101203e-05 -7.7226096e-06 
0.0000000e+00 -7.5301800e-06 -1.3807135e-06 
0.0000000e+00 1.2216274e-06 1.0174136e-06 
0.0000000e+00 3.3360054e-06 6.5672457e-06 
0.0000000e+00 -5.3519816e-05 -1.7077940e-05 
0.0000000e+00 -1.9803210e-05 -1.1057825e-05 
0.0000000e+00 0.0000000e+00 0.0000000e+00 
0.0000000e+00 0.0000000e+00 0.0000000e+00 
0.0000000e+00 0.0000000e+00 0.0000000e+00 
0.0000000e+00 0.0000000e+00 0.0000000e+00 
0.0000000e+00 0.0000000e+00 0.0000000e+00 
0.0000000e+00 0.0000000e+00 0.0000000e+00 
0.0000000e+00 0.0000000e+00 0.0000000e+00 
0.0000000e+00 0.0000000e+00 0.0000000e+00 
0.0000000e+00 0.0000000e+00 0.0000000e+00 
0.0000000e+00 0.0000000e+00 0.0000000e+00 
0.0000000e+00 0.0000000e+00 0.0000000e+00 
0.0000000e+00 0.0000000e+00 0.0000000e+00 
0.0000000e+00 0.0000000e+00 0.0000000e+00 
0.0000000e+00 0.0000000e+00 0.0000000e+00 
0.0000000e+00 0.0000000e+00 0.0000000e+00 
0.0000000e+00 0.0000000e+00 0.0000000e+00 
0.0000000e+00 0.0000000e+00 0.0000000e+00 
0.0000000e+00 0.0000000e+00 0.0000000e+00 
0.0000000e+00 0.0000000e+00 0.0000000e+00 
0.0000000e+00 0.0000000e+00 0.0000000e+00 
0.0000000e+00 0.0000000e+00 0.0000000e+00 
0.0000000e+00 0.0000000e+00 0.0000000e+00 
0.0000000e+00 0.0000000e+00 0.0000000e+00 
0.0000000e+00 0.0000000e+00 0.0000000e+00 
0.0000000e+00 0.0000000e+00 0.0000000e+00 
0.0000000e+00 0.0000000e+00 0.0000000e+00 
0.0000000e+00 0.0000000e+00 0.0000000e+00 
0.0000000e+00 0.0000000e+00 0.0000000e+00 
0.0000000e+00 0.0000000e+00 0.0000000e+00 
0.0000000e+00 0.0000000e+00 0.0000000e+00 
0.0000000e+00 0.0000000e+00 0.0000000e+00 
0.0000000e+00 0.0000000e+00 0.0000000e+00 
0.0000000e+00 0.0000000e+00 0.0000000e+00 
0.0000000e+00 0.0000000e+00 0.0000000e+00 
0.0000000e+00 0.0000000e+00 0.0000000e+00 
0.0000000e+00 0.0000000e+00 0.0000000e+00 
0.0000000e+00 0.0000000e+00 0.0000000e+00 
0.0000000e+00 0.0000000e+00 0.0000000e+00 
0.0000000e+00 0.0000000e+00 0.0000000e+00 
0.0000000e+00 0.0000000e+00 0.0000000e+00 
0.0000000e+00 0.0000000e+00 0.0000000e+00 
0.0000000e+00 0.0000000e+00 0.0000000e+00 
0.0000000e+00 0.0000000e+00 0.0000000e+00 
0.0000000e+00 0.0000000e+00 0.0000000e+00 
0.0000000e+00 0.0000000e+00 0.0000000e+00 
0.0000000e+00 0.0000000e+00 0.0000000e+00 
0.0000000e+00 0.0000000e+00 0.0000000e+00 
0.0000000e+00 0.0000000e+00 0.0000000e+00 
0.0000000e+00 0.0000000e+00 0.0000000e+00 
0.0000000e+00 1.5488029e-06 4.1265698e-06 
0.0000000e+00 6.4902059e-07 5.5090159e-06 
0.0000000e+00 2.2039726e-06 6.5406939e-06 
0.0000000e+00 4.0658233e-06 7.1715472e-06 
0.0000000e+00 3.4706106e-06 8.1516609e-06 
0.0000000e+00 1.2635404e-06 3.9467941e-06 
0.0000000e+00 1.7010493e-06 3.7232626e-06 
0.0000000e+00 1.1580910e-06 3.1021223e-06 
0.0000000e+00 1.1976247e-06 4.0393734e-06 
0.0000000e+00 1.4533807e-06 3.5287312e-06 
0.0000000e+00 3.1892828e-06 6.2373952e-06 
0.0000000e+00 3.2115929e-06 6.6483299e-06 
0.0000000e+00 3.6331815e-07 3.5577934e-06 
0.0000000e+00 6.1710602e-07 2.6537577e-06 
0.0000000e+00 2.1674525e-06 8.1430298e-06 
0.0000000e+00 2.5870363e-06 6.8867894e-06 
0.0000000e+00 2.9807126e-07 2.4928772e-06 
0.0000000e+00 4.6970367e-06 7.5439307e-06 
0.0000000e+00 2.7741271e-06 6.1021278e-06 
0.0000000e+00 2.4213875e-06 5.9077934e-06 
0.0000000e+00 1.8860516e-06 5.5342466e-06 
0.0000000e+00 3.0140880e-06 6.0674306e-06 
0.0000000e+00 4.1984713e-06 7.8990424e-06 
0.0000000e+00 1.4409313e-06 5.1607103e-06 
0.0000000e+00 1.8821087e-06 5.6747663e-06 
0.0000000e+00 5.9745253e-07 8.2775687e-06 
0.0000000e+00 9.8427734e-07 1.5891096e-06 
0.0000000e+00 3.6264005e-06 7.1722266e-06 
0.0000000e+00 1.7824807e-08 2.4333137e-06 
0.0000000e+00 -5.6144301e-05 -1.1804746e-05 
0.0000000e+00 1.2618453e-06 2.0120590e-06 
0.0000000e+00 -2.3166194e-05 7.6183796e-06 
0.0000000e+00 -4.9065934e-06 8.1982280e-06 
0.0000000e+00 7.9105263e-07 3.3930710e-06 
0.0000000e+00 -3.2502969e-05 1.1863790e-05 
0.0000000e+00 -4.9509492e-07 5.2205232e-06 
0.0000000e+00 2.4568324e-06 3.4140005e-06 
0.0000000e+00 -1.1355471e-05 9.5803161e-06 
0.0000000e+00 -7.1324786e-05 5.0959611e-06 
0.0000000e+00 -9.0013309e-06 8.7285571e-06 
0.0000000e+00 2.1558085e-06 4.0904788e-06 
0.0000000e+00 -7.5111382e-07 5.6541703e-06 
0.0000000e+00 1.1320136e-06 2.0243424e-06 
0.0000000e+00 2.0508537e-06 2.7851506e-06 
0.0000000e+00 -8.8234949e-05 -7.7284249e-06 
0.0000000e+00 8.6876463e-07 1.3931872e-06 
0.0000000e+00 -2.5636580e-05 -1.1584000e-06 
0.0000000e+00 -1.4060983e-05 1.2367092e-05 
0.0000000e+00 8.2926084e-07 5.4450516e-06 
0.0000000e+00 -3.3411481e-05 1.1540765e-05 
0.0000000e+00 -3.8161729e-06 8.4278417e-06 
0.0000000e+00 1.8606764e-06 3.5340827e-06 
0.0000000e+00 1.7337194e-06 2.5895706e-06 
0.0000000e+00 -5.1132050e-05 1.5343554e-06 
0.0000000e+00 5.7172070e-07 1.0147718e-06 
0.0000000e+00 -7.0147122e-05 -1.1494755e-05 
0.0000000e+00 -2.5621252e-05 -6.9956309e-06 
0.0000000e+00 1.5997697e-06 2.4806106e-06 
0.0000000e+00 -1.1737924e-07 1.2895607e-06 
0.0000000e+00 -1.3963755e-06 5.1465654e-06 
0.0000000e+00 -1.4438643e-07 5.2354494e-06 
0.0000000e+00 6.3055097e-07 3.4918971e-06 
0.0000000e+00 -6.1356076e-07 1.8850933e-06 
0.0000000e+00 -7.8145234e-07 6.9604989e-06 
0.0000000e+00 -9.7624343e-07 2.0923687e-06 
0.0000000e+00 5.4427096e-07 2.0223440e-06 
0.0000000e+00 -1.4174458e-07 3.0096655e-06 
0.0000000e+00 -7.2626932e-07 4.2499760e-06 
0.0000000e+00 -1.2830187e-06 2.3366497e-06 
0.0000000e+00 -1.0396741e-06 7.8746289e-06 
0.0000000e+00 1.1623274e-06 2.3933526e-06 
0.0000000e+00 1.5975184e-08 9.1861665e-07 
-1.6279644e-05 -9.8761404e-05 -3.5141895e-06 
-5.6567737e-06 -2.7456214e-05 -3.9009205e-06 
1.3421615e-06 1.8329840e-06 2.4057770e-06 
1.5119653e-06 2.8761197e-06 3.1838786e-06 
-1.9187669e-07 -4.7355916e-06 -5.5652180e-07 
1.4176019e-06 2.4547790e-06 3.1081779e-06 
1.3666380e-06 4.7976482e-06 8.4975527e-06 
-2.0990235e-06 1.1013809e-06 6.1354390e-06 
-3.6607540e-07 3.9117572e-06 6.2860831e-06 
-5.4834300e-06 -1.1464446e-04 1.0982276e-07 
1.0439070e-06 2.5303239e-06 9.4456664e-06 
1.1586710e-06 1.4384725e-06 6.7306064e-06 
-7.7703071e-06 -5.9968197e-06 7.3012739e-06 
6.6520300e-07 1.5326150e-06 3.2311555e-06 
7.0786911e-07 4.6887117e-06 7.3806928e-06 
1.7550018e-06 3.9979900e-06 6.9502371e-06 
1.9912588e-06 3.9623733e-06 7.6814658e-06 
2.2354416e-06 3.8327457e-06 6.5583745e-06 
1.6499415e-06 2.6934692e-06 5.2869023e-06 
2.0629529e-06 3.3367453e-06 6.6826542e-06 
1.9615925e-06 3.5618884e-06 7.8689891e-06 
1.8877649e-06 2.7848866e-06 6.5439558e-06 
1.9609611e-06 3.3374529e-06 5.0722151e-06 
1.6450837e-06 2.6574789e-06 7.9402607e-06 
1.7839657e-06 2.3641276e-06 4.5824809e-06 
1.2943902e-06 6.7962276e-07 3.3231015e-06 
1.8522458e-07 4.9640096e-07 3.7091436e-06 
8.7609300e-07 3.2360922e-06 5.9713147e-06 
-4.4855364e-07 1.5984331e-06 4.7244089e-06 
-3.2576215e-06 -4.0204332e-06 7.6956530e-07 
-3.0741103e-06 -3.1725599e-06 2.1745473e-06 
-7.4872310e-06 -1.2501591e-05 -8.8189489e-07 
-9.7740894e-06 -9.1230813e-06 1.0292325e-06 
-1.1605833e-05 -2.4555286e-05 -1.6146626e-06 
-1.0295274e-05 -1.6024673e-05 7.0917889e-07 
-1.5785436e-05 -4.0918785e-05 -5.1646163e-07 
-1.3417587e-05 -2.0753481e-05 3.4745544e-06 
-1.1753390e-06 2.5117465e-06 5.8274932e-06 
-1.1727093e-05 -3.0211813e-05 -6.0978855e-06 
1.3655559e-06 3.8748231e-06 8.8870738e-06 
1.5982272e-06 2.4017384e-06 3.3093916e-06 
-5.8953337e-06 -5.4545339e-06 5.5345654e-06 
1.1401264e-06 1.3196670e-06 8.4719122e-06 
1.8603012e-06 2.9881014e-06 5.5213013e-06 
-9.1927683e-07 -3.6566646e-06 1.6668386e-06 
-1.7570723e-05 -8.9259440e-05 -1.0589923e-05 
-1.8449522e-06 -1.1089292e-05 -1.7224987e-06 
-5.1261459e-06 -1.4226142e-05 -2.2304666e-06 
9.5467055e-07 -4.5046801e-07 1.3851547e-06 
-1.0474807e-05 -2.6345584e-05 5.0133949e-06 
-1.7111459e-05 -6.1584753e-05 2.3731247e-06 
1.5253376e-06 2.7470624e-06 3.1435679e-06 
1.0536488e-06 1.9415916e-06 3.4420520e-06 
1.4442235e-06 2.3688526e-06 5.2143173e-06 
-3.1832506e-06 7.9083730e-07 7.4306590e-06 
-7.3472847e-06 -7.3672396e-05 -3.9122577e-07 
-1.5466190e-05 -1.2030079e-04 -5.0022609e-06 
1.4914897e-06 2.7366643e-06 2.9245857e-06 
-1.6180004e-05 -5.3349679e-05 -1.7009420e-06 
1.7147394e-06 2.6964249e-06 5.2533919e-06 
-3.2773817e-06 -7.3396171e-07 4.1619123e-06 
-1.0670573e-05 -5.5823559e-05 -7.8298126e-06 
-9.8654232e-07 2.0588461e-06 4.8267502e-06 
1.6144504e-06 2.3996333e-06 6.8586305e-06 
1.1610015e-06 1.8109355e-06 5.0238095e-06 
7.0156426e-07 8.9936100e-07 9.7806906e-06 
-3.3091055e-06 2.4175608e-06 8.9645609e-06 
1.6004449e-06 3.1490952e-06 8.6170830e-06 
2.6359686e-07 -1.7960493e-06 2.0564141e-06 
-7.0785854e-06 -4.8386087e-06 4.0279642e-06 
-7.5017419e-06 -1.2478097e-04 -3.0615529e-06 
-5.7387638e-06 -1.3948482e-04 -3.8623730e-06 
-8.1037015e-06 -9.9656158e-05 -4.5554934e-06 
-3.6314977e-06 -6.0003993e-05 -8.2442320e-06 
-6.8198705e-07 -1.1374564e-04 6.3903371e-07 
-2.6017563e-06 -2.9964480e-05 -3.8877492e-06 
-2.1403855e-06 -1.6855958e-05 -3.7425007e-06 
-3.6851358e-07 -6.3469292e-06 -2.0135683e-06 
2.2120055e-07 -1.2297737e-06 3.1082851e-07 
7.1974466e-07 1.0991376e-06 1.0085497e-06 
7.7766583e-07 2.0419654e-06 1.2095833e-06 
7.3045607e-07 2.6033711e-06 1.8274405e-06 
7.0532622e-07 2.5649169e-06 2.0229920e-06 
7.6869406e-07 2.3782657e-06 2.1910159e-06 
7.3282700e-07 2.2792049e-06 2.3265807e-06 
5.6709882e-07 1.9959430e-06 2.2488805e-06 
3.1521705e-07 1.6651817e-06 2.1054989e-06 
-2.2644631e-06 -8.6856402e-05 8.2112859e-07 
2.7552192e-06 -2.0912903e-06 8.2388060e-06 
7.1568666e-06 -2.7554839e-05 1.1588689e-05 
1.8893437e-06 1.8209697e-06 4.7999461e-06 
1.2253013e-06 1.9676102e-06 3.5584014e-06 
8.1091739e-06 -4.6080448e-05 -3.7478733e-06 
6.3882771e-06 -6.7805195e-06 5.3108274e-06 
4.6212908e-06 -2.4989085e-06 7.0564643e-06 
2.5594866e-06 2.2608253e-06 6.0668290e-06 
1.2920011e-06 1.9096819e-06 5.0208923e-06 
3.2211278e-06 -1.6813423e-05 1.1275867e-05 
7.8724105e-07 1.7822665e-06 3.0139038e-06 
4.7853878e-06 -8.2950173e-05 6.4983947e-06 
2.5910263e-06 -4.8075912e-05 1.2829183e-05 
1.4316186e-06 2.5027157e-06 3.8546664e-06 
2.0809382e-06 -4.7001090e-06 7.5061025e-06 
1.5738286e-06 1.1566297e-06 5.6279287e-06 
4.7866579e-06 -2.9862608e-06 4.1843277e-06 
2.1978406e-06 2.6802454e-06 5.5055816e-06 
5.7700854e-06 -2.8735074e-05 5.8656005e-06 
2.6569605e-06 2.7505755e-06 7.0559076e-06 
1.0700349e-07 -9.1930604e-05 -1.2033595e-05 
2.6110511e-06 6.4451257e-07 6.5809527e-06 
2.3296054e-06 -7.6310363e-07 6.3853972e-06 
7.7974455e-06 -1.1499892e-05 1.9127740e-06 
1.1405394e-06 1.5387908e-06 4.8870447e-06 
8.5630836e-07 2.3552927e-06 3.0409324e-06 
1.8730851e-06 3.3115016e-06 6.8438530e-06 
3.1283648e-06 5.5887500e-07 5.9463955e-06 
4.1113217e-06 -1.6512839e-05 8.1394737e-06 
4.1037406e-06 -3.1574364e-05 6.6756793e-06 
4.5663260e-06 -6.7522951e-06 9.2673890e-06 
5.4397520e-07 9.1297636e-07 2.2669283e-06 
2.5708741e-06 2.1509827e-06 6.1222786e-06 
1.7832907e-06 2.5702336e-06 4.3027790e-06 
8.2489765e-07 1.4574318e-06 2.7782078e-06 
1.3092686e-06 1.9408542e-06 4.2686420e-06 
5.3672952e-06 -2.8228256e-05 -6.1161218e-09 
3.2795162e-06 -1.0871022e-06 3.6875886e-06 
1.3572145e-06 3.8975114e-07 5.3106164e-06 
5.2592463e-07 6.9524725e-07 3.4975924e-06 
3.0903650e-06 -2.0867334e-05 1.3291613e-05 
1.9137276e-06 -7.8438043e-06 1.1276589e-05 
8.1374365e-06 -1.3743089e-05 5.3522135e-06 
9.9046713e-07 1.2692091e-06 2.9649846e-06 
1.8503105e-06 9.7896452e-07 3.9881334e-06 
1.1286431e-06 2.7436449e-06 7.4535565e-06 
2.8403983e-06 -5.1726465e-06 6.1333762e-06 
3.5278429e-06 -1.3616253e-05 4.0880186e-06 
1.4266092e-06 1.6089120e-06 3.7398354e-06 
3.9246565e-06 -1.4730937e-06 4.6092082e-06 
1.7748517e-06 -9.6767224e-07 5.7848538e-06 
5.9765689e-06 -7.8217199e-06 7.5476751e-06 
1.8044386e-06 2.6836988e-06 4.6496757e-06 
1.8461113e-06 9.3814646e-07 4.8434122e-06 
4.9091148e-07 1.2781871e-06 2.1479311e-06 
2.2047855e-06 3.8688941e-06 7.3647934e-06 
1.8904706e-06 2.5033587e-06 5.8974360e-06 
5.8316814e-06 -1.8822584e-05 -3.7577447e-06 
2.4869018e-06 2.5362310e-06 6.6321822e-06 
1.7325453e-06 -1.6197569e-06 5.3782628e-06 
1.8368912e-06 -8.4152171e-06 6.7975020e-06 
1.1442296e-06 1.5978869e-06 6.7072842e-06 
1.4507312e-06 1.3872966e-06 3.5379119e-06 
7.7256340e-07 1.4242053e-06 3.5418066e-06 
7.9249103e-06 -5.8155427e-05 2.4381552e-06 
2.3354255e-06 -4.3470456e-05 6.9127414e-06 
2.3778184e-06 3.0564840e-07 6.1835076e-06 
TOTAL_DISPLACEMENT 3 377  float
0.0000000e+00 0.0000000e+00 0.0000000e+00 
0.0000000e+00 0.0000000e+00 0.0000000e+00 
0.0000000e+00 0.0000000e+00 0.0000000e+00 
0.0000000e+00 0.0000000e+00 0.0000000e+00 
0.0000000e+00 0.0000000e+00 0.0000000e+00 
0.0000000e+00 0.0000000e+00 0.0000000e+00 
0.0000000e+00 0.0000000e+00 0.0000000e+00 
0.0000000e+00 0.0000000e+00 0.0000000e+00 
0.0000000e+00 0.0000000e+00 0.0000000e+00 
0.0000000e+00 0.0000000e+00 0.0000000e+00 
0.0000000e+00 0.0000000e+00 0.0000000e+00 
0.0000000e+00 0.0000000e+00 0.0000000e+00 
0.0000000e+00 0.0000000e+00 0.0000000e+00 
0.0000000e+00 0.0000000e+00 0.0000000e+00 
0.0000000e+00 0.0000000e+00 0.0000000e+00 
0.0000000e+00 0.0000000e+00 0.0000000e+00 
0.0000000e+00 0.0000000e+00 0.0000000e+00 
0.0000000e+00 0.0000000e+00 0.0000000e+00 
0.0000000e+00 0.0000000e+00 0.0000000e+00 
0.0000000e+00 0.0000000e+00 0.0000000e+00 
0.0000000e+00 0.0000000e+00 0.0000000e+00 
0.0000000e+00 0.0000000e+00 0.0000000e+00 
0.0000000e+00 0.0000000e+00 0.0000000e+00 
0.0000000e+00 0.0000000e+00 0.0000000e+00 
0.0000000e+00 0.0000000e+00 0.0000000e+00 
0.0000000e+00 0.0000000e+00 0.0000000e+00 
0.0000000e+00 0.0000000e+00 0.0000000e+00 
0.0000000e+00 0.0000000e+00 0.0000000e+00 
0.0000000e+00 0.0000000e+00 0.0000000e+00 
0.0000000e+00 0.0000000e+00 0.0000000e+00 
0.0000000e+00 0.0000000e+00 0.0000000e+00 
0.0000000e+00 0.0000000e+00 0.0000000e+00 
0.0000000e+00 0.0000000e+00 0.0000000e+00 
0.0000000e+00 0.0000000e+00 0.0000000e+00 
0.0000000e+00 0.0000000e+00 0.0000000e+00 
0.0000000e+00 0.0000000e+00 0.0000000e+00 
0.0000000e+00 0.0000000e+00 0.0000000e+00 
0.0000000e+00 0.0000000e+00 0.0000000e+00 
0.0000000e+00 0.0000000e+00 0.0000000e+00 
0.0000000e+00 0.0000000e+00 0.0000000e+00 
0.0000000e+00 0.0000000e+00 0.0000000e+00 
0.0000000e+00 0.0000000e+00 0.0000000e+00 
0.0000000e+00 0.0000000e+00 0.0000000e+00 
0.0000000e+00 0.0000000e+00 0.0000000e+00 
0.0000000e+00 0.0000000e+00 0.0000000e+00 
0.0000000e+00 0.0000000e+00 0.0000000e+00 
0.0000000e+00 0.0000000e+00 0.0000000e+00 
0.0000000e+00 0.0000000e+00 0.0000000e+00 
0.0000000e+00 0.0000000e+00 0.0000000e+00 
0.0000000e+00 0.0000000e+00 0.0000000e+00 
0.0000000e+00 0.0000000e+00 0.0000000e+00 
0.0000000e+00 0.0000000e+00 0.0000000e+00 
0.0000000e+00 0.0000000e+00 0.0000000e+00 
0.0000000e+00 0.0000000e+00 0.0000000e+00 
0.0000000e+00 0.0000000e+00 0.0000000e+00 
0.0000000e+00 0.0000000e+00 0.0000000e+00 
0.0000000e+00 0.0000000e+00 0.0000000e+00 
0.0000000e+00 0.0000000e+00 0.0000000e+00 
0.0000000e+00 0.0000000e+00 0.0000000e+00 
0.0000000e+00 0.0000000e+00 0.0000000e+00 
0.0000000e+00 0.0000000e+00 0.0000000e+00 
0.0000000e+00 0.0000000e+00 0.0000000e+00 
0.0000000e+00 0.0000000e+00 0.0000000e+00 
0.0000000e+00 0.0000000e+00 0.0000000e+00 
0.0000000e+00 0.0000000e+00 0.0000000e+00 
0.0000000e+00 0.0000000e+00 0.0000000e+00 
0.0000000e+00 0.0000000e+00 0.0000000e+00 
0.0000000e+00 0.0000000e+00 0.0000000e+00 
0.0000000e+00 0.0000000e+00 0.0000000e+00 
0.0000000e+00 0.0000000e+00 0.0000000e+00 
0.0000000e+00 0.0000000e+00 0.0000000e+00 
0.0000000e+00 0.0000000e+00 0.0000000e+00 
0.0000000e+00 0.0000000e+00 0.0000000e+00 
0.0000000e+00 0.0000000e+00 0.0000000e+00 
0.0000000e+00 0.0000000e+00 0.0000000e+00 
0.0000000e+00 0.0000000e+00 0.0000000e+00 
0.0000000e+00 0.0000000e+00 0.0000000e+00 
0.0000000e+00 0.0000000e+00 0.0000000e+00 
0.0000000e+00 0.0000000e+00 0.0000000e+00 
0.0000000e+00 0.0000000e+00 0.0000000e+00 