# vtk DataFile Version 4.0
vtk output
ASCII
DATASET UNSTRUCTURED_GRID
POINTS 628 float
0.0000000e+00 0.0000000e+00 0.0000000e+00 
1.0000000e+00 0.0000000e+00 0.0000000e+00 
1.0000000e+00 1.0000000e+01 0.0000000e+00 
0.0000000e+00 1.0000000e+01 0.0000000e+00 
0.0000000e+00 5.0000000e+00 0.0000000e+00 
1.0000000e+00 5.0000000e+00 0.0000000e+00 
1.4285715e-01 0.0000000e+00 0.0000000e+00 
2.8571430e-01 0.0000000e+00 0.0000000e+00 
4.2857143e-01 0.0000000e+00 0.0000000e+00 
5.7142860e-01 0.0000000e+00 0.0000000e+00 
7.1428573e-01 0.0000000e+00 0.0000000e+00 
8.5714287e-01 0.0000000e+00 0.0000000e+00 
8.5714287e-01 1.0000000e+01 0.0000000e+00 
7.1428573e-01 1.0000000e+01 0.0000000e+00 
5.7142860e-01 1.0000000e+01 0.0000000e+00 
4.2857143e-01 1.0000000e+01 0.0000000e+00 
2.8571430e-01 1.0000000e+01 0.0000000e+00 
1.4285715e-01 1.0000000e+01 0.0000000e+00 
1.4285715e-01 5.0000000e+00 0.0000000e+00 
2.8571430e-01 5.0000000e+00 0.0000000e+00 
4.2857143e-01 5.0000000e+00 0.0000000e+00 
5.7142860e-01 5.0000000e+00 0.0000000e+00 
7.1428573e-01 5.0000000e+00 0.0000000e+00 
8.5714287e-01 5.0000000e+00 0.0000000e+00 
0.0000000e+00 4.8529410e+00 0.0000000e+00 
0.0000000e+00 4.7058825e+00 0.0000000e+00 
0.0000000e+00 4.5588236e+00 0.0000000e+00 
0.0000000e+00 4.4117646e+00 0.0000000e+00 
0.0000000e+00 4.2647057e+00 0.0000000e+00 
0.0000000e+00 4.1176472e+00 0.0000000e+00 
0.0000000e+00 3.9705882e+00 0.0000000e+00 
0.0000000e+00 3.8235295e+00 0.0000000e+00 
0.0000000e+00 3.6764705e+00 0.0000000e+00 
0.0000000e+00 3.5294118e+00 0.0000000e+00 
0.0000000e+00 3.3823528e+00 0.0000000e+00 
0.0000000e+00 3.2352941e+00 0.0000000e+00 
0.0000000e+00 3.0882354e+00 0.0000000e+00 
0.0000000e+00 2.9411764e+00 0.0000000e+00 
0.0000000e+00 2.7941177e+00 0.0000000e+00 
0.0000000e+00 2.6470587e+00 0.0000000e+00 
0.0000000e+00 2.5000000e+00 0.0000000e+00 
0.0000000e+00 2.3529413e+00 0.0000000e+00 
0.0000000e+00 2.2058823e+00 0.0000000e+00 
0.0000000e+00 2.0588236e+00 0.0000000e+00 
0.0000000e+00 1.9117647e+00 0.0000000e+00 
0.0000000e+00 1.7647059e+00 0.0000000e+00 
0.0000000e+00 1.6176471e+00 0.0000000e+00 
0.0000000e+00 1.4705882e+00 0.0000000e+00 
0.0000000e+00 1.3235294e+00 0.0000000e+00 
0.0000000e+00 1.1764706e+00 0.0000000e+00 
0.0000000e+00 1.0294118e+00 0.0000000e+00 
0.0000000e+00 8.8235295e-01 0.0000000e+00 
0.0000000e+00 7.3529410e-01 0.0000000e+00 
0.0000000e+00 5.8823532e-01 0.0000000e+00 
0.0000000e+00 4.4117647e-01 0.0000000e+00 
0.0000000e+00 2.9411766e-01 0.0000000e+00 
0.0000000e+00 1.4705883e-01 0.0000000e+00 
1.0000000e+00 1.4705883e-01 0.0000000e+00 
1.0000000e+00 2.9411766e-01 0.0000000e+00 
1.0000000e+00 4.4117647e-01 0.0000000e+00 
1.0000000e+00 5.8823532e-01 0.0000000e+00 
1.0000000e+00 7.3529410e-01 0.0000000e+00 
1.0000000e+00 8.8235295e-01 0.0000000e+00 
1.0000000e+00 1.0294118e+00 0.0000000e+00 
1.0000000e+00 1.1764706e+00 0.0000000e+00 
1.0000000e+00 1.3235294e+00 0.0000000e+00 
1.0000000e+00 1.4705882e+00 0.0000000e+00 
1.0000000e+00 1.6176471e+00 0.0000000e+00 
1.0000000e+00 1.7647059e+00 0.0000000e+00 
1.0000000e+00 1.9117647e+00 0.0000000e+00 
1.0000000e+00 2.0588236e+00 0.0000000e+00 
1.0000000e+00 2.2058823e+00 0.0000000e+00 
1.0000000e+00 2.3529413e+00 0.0000000e+00 
1.0000000e+00 2.5000000e+00 0.0000000e+00 
1.0000000e+00 2.6470587e+00 0.0000000e+00 
1.0000000e+00 2.7941177e+00 0.0000000e+00 
1.0000000e+00 2.9411764e+00 0.0000000e+00 
1.0000000e+00 3.0882354e+00 0.0000000e+00 
1.0000000e+00 3.2352941e+00 0.0000000e+00 
1.0000000e+00 3.3823528e+00 0.0000000e+00 
1.0000000e+00 3.5294118e+00 0.0000000e+00 
1.0000000e+00 3.6764705e+00 0.0000000e+00 
1.0000000e+00 3.8235295e+00 0.0000000e+00 
1.0000000e+00 3.9705882e+00 0.0000000e+00 
1.0000000e+00 4.1176472e+00 0.0000000e+00 
1.0000000e+00 4.2647057e+00 0.0000000e+00 
1.0000000e+00 4.4117646e+00 0.0000000e+00 
1.0000000e+00 4.5588236e+00 0.0000000e+00 
1.0000000e+00 4.7058825e+00 0.0000000e+00 
1.0000000e+00 4.8529410e+00 0.0000000e+00 
0.0000000e+00 9.8529415e+00 0.0000000e+00 
0.0000000e+00 9.7058821e+00 0.0000000e+00 
0.0000000e+00 9.5588236e+00 0.0000000e+00 
0.0000000e+00 9.4117651e+00 0.0000000e+00 
0.0000000e+00 9.2647057e+00 0.0000000e+00 
0.0000000e+00 9.1176472e+00 0.0000000e+00 
0.0000000e+00 8.9705887e+00 0.0000000e+00 
0.0000000e+00 8.8235292e+00 0.0000000e+00 
0.0000000e+00 8.6764708e+00 0.0000000e+00 
0.0000000e+00 8.5294113e+00 0.0000000e+00 
0.0000000e+00 8.3823528e+00 0.0000000e+00 
0.0000000e+00 8.2352943e+00 0.0000000e+00 
0.0000000e+00 8.0882349e+00 0.0000000e+00 
0.0000000e+00 7.9411764e+00 0.0000000e+00 
0.0000000e+00 7.7941175e+00 0.0000000e+00 
0.0000000e+00 7.6470590e+00 0.0000000e+00 
0.0000000e+00 7.5000000e+00 0.0000000e+00 
0.0000000e+00 7.3529410e+00 0.0000000e+00 
0.0000000e+00 7.2058825e+00 0.0000000e+00 
0.0000000e+00 7.0588236e+00 0.0000000e+00 
0.0000000e+00 6.9117646e+00 0.0000000e+00 
0.0000000e+00 6.7647057e+00 0.0000000e+00 
0.0000000e+00 6.6176472e+00 0.0000000e+00 
0.0000000e+00 6.4705882e+00 0.0000000e+00 
0.0000000e+00 6.3235292e+00 0.0000000e+00 
0.0000000e+00 6.1764708e+00 0.0000000e+00 
0.0000000e+00 6.0294118e+00 0.0000000e+00 
0.0000000e+00 5.8823528e+00 0.0000000e+00 
0.0000000e+00 5.7352943e+00 0.0000000e+00 
0.0000000e+00 5.5882354e+00 0.0000000e+00 
0.0000000e+00 5.4411764e+00 0.0000000e+00 
0.0000000e+00 5.2941175e+00 0.0000000e+00 
0.0000000e+00 5.1470590e+00 0.0000000e+00 
1.0000000e+00 5.1470590e+00 0.0000000e+00 
1.0000000e+00 5.2941175e+00 0.0000000e+00 
1.0000000e+00 5.4411764e+00 0.0000000e+00 
1.0000000e+00 5.5882354e+00 0.0000000e+00 
1.0000000e+00 5.7352943e+00 0.0000000e+00 
1.0000000e+00 5.8823528e+00 0.0000000e+00 
1.0000000e+00 6.0294118e+00 0.0000000e+00 
1.0000000e+00 6.1764708e+00 0.0000000e+00 
1.0000000e+00 6.3235292e+00 0.0000000e+00 
1.0000000e+00 6.4705882e+00 0.0000000e+00 
1.0000000e+00 6.6176472e+00 0.0000000e+00 
1.0000000e+00 6.7647057e+00 0.0000000e+00 
1.0000000e+00 6.9117646e+00 0.0000000e+00 
1.0000000e+00 7.0588236e+00 0.0000000e+00 
1.0000000e+00 7.2058825e+00 0.0000000e+00 
1.0000000e+00 7.3529410e+00 0.0000000e+00 
1.0000000e+00 7.5000000e+00 0.0000000e+00 
1.0000000e+00 7.6470590e+00 0.0000000e+00 
1.0000000e+00 7.7941175e+00 0.0000000e+00 
1.0000000e+00 7.9411764e+00 0.0000000e+00 
1.0000000e+00 8.0882349e+00 0.0000000e+00 
1.0000000e+00 8.2352943e+00 0.0000000e+00 
1.0000000e+00 8.3823528e+00 0.0000000e+00 
1.0000000e+00 8.5294113e+00 0.0000000e+00 
1.0000000e+00 8.6764708e+00 0.0000000e+00 
1.0000000e+00 8.8235292e+00 0.0000000e+00 
1.0000000e+00 8.9705887e+00 0.0000000e+00 
1.0000000e+00 9.1176472e+00 0.0000000e+00 
1.0000000e+00 9.2647057e+00 0.0000000e+00 
1.0000000e+00 9.4117651e+00 0.0000000e+00 
1.0000000e+00 9.5588236e+00 0.0000000e+00 
1.0000000e+00 9.7058821e+00 0.0000000e+00 
1.0000000e+00 9.8529415e+00 0.0000000e+00 
5.0212586e-01 4.8703580e+00 0.0000000e+00 
5.1041055e-01 1.3732977e-01 0.0000000e+00 
1.3055173e-01 6.6499180e-01 0.0000000e+00 
8.7327349e-01 4.3372407e+00 0.0000000e+00 
8.7331611e-01 3.8958969e+00 0.0000000e+00 
8.7347627e-01 3.4562511e+00 0.0000000e+00 
8.7357801e-01 2.8680170e+00 0.0000000e+00 
1.2843554e-01 2.1327813e+00 0.0000000e+00 
1.2975387e-01 1.5449892e+00 0.0000000e+00 
1.3308091e-01 1.1039938e+00 0.0000000e+00 
1.2937543e-01 2.5737903e+00 0.0000000e+00 
1.2735668e-01 3.1617646e+00 0.0000000e+00 
8.7375563e-01 1.8386052e+00 0.0000000e+00 
8.7355548e-01 2.2778318e+00 0.0000000e+00 
1.2753446e-01 4.1915216e+00 0.0000000e+00 
8.7915283e-01 8.0759794e-01 0.0000000e+00 
8.8115031e-01 1.2498868e+00 0.0000000e+00 
1.2781374e-01 3.7501886e+00 0.0000000e+00 
8.7352717e-01 3.1621344e+00 0.0000000e+00 
1.2961270e-01 1.8389882e+00 0.0000000e+00 
1.2731366e-01 4.4857054e+00 0.0000000e+00 
1.2885660e-01 2.8684020e+00 0.0000000e+00 
8.7380636e-01 1.5444875e+00 0.0000000e+00 
8.7362880e-01 2.5738993e+00 0.0000000e+00 
1.2735668e-01 3.4558823e+00 0.0000000e+00 
8.7264335e-01 5.1470590e-01 0.0000000e+00 
8.7611687e-01 4.6317782e+00 0.0000000e+00 
1.3446054e-01 3.7013325e-01 0.0000000e+00 
1.2296320e-01 4.7760825e+00 0.0000000e+00 
8.8210768e-01 2.2118840e-01 0.0000000e+00 
2.1798968e-01 1.0548568e-01 0.0000000e+00 
7.7656764e-01 4.8704844e+00 0.0000000e+00 
1.2667844e-01 4.6331582e+00 0.0000000e+00 
2.5353336e-01 4.5619426e+00 0.0000000e+00 
2.5451174e-01 4.4132285e+00 0.0000000e+00 
3.8040194e-01 4.4881525e+00 0.0000000e+00 
3.8161713e-01 4.3403850e+00 0.0000000e+00 
5.0654775e-01 4.4141955e+00 0.0000000e+00 
5.0629890e-01 4.2659345e+00 0.0000000e+00 
5.0658631e-01 4.5616083e+00 0.0000000e+00 
3.8184282e-01 4.1932206e+00 0.0000000e+00 
5.0831819e-01 4.1188259e+00 0.0000000e+00 
3.8249290e-01 4.0462651e+00 0.0000000e+00 
5.0818664e-01 3.9732957e+00 0.0000000e+00 
3.8265404e-01 3.8991868e+00 0.0000000e+00 
5.0769192e-01 3.8249388e+00 0.0000000e+00 
3.8307732e-01 3.7517705e+00 0.0000000e+00 
5.0990808e-01 3.6776419e+00 0.0000000e+00 
3.8416636e-01 3.6049941e+00 0.0000000e+00 
5.1177651e-01 3.5322094e+00 0.0000000e+00 
3.8460994e-01 3.4584429e+00 0.0000000e+00 
5.1256055e-01 3.3855147e+00 0.0000000e+00 
3.8520575e-01 3.3115354e+00 0.0000000e+00 
5.1318693e-01 3.2385471e+00 0.0000000e+00 
3.8561273e-01 3.1645203e+00 0.0000000e+00 
5.1375473e-01 3.0915136e+00 0.0000000e+00 
3.8616878e-01 3.0174749e+00 0.0000000e+00 
5.1433694e-01 2.9444630e+00 0.0000000e+00 
3.8656160e-01 2.8704205e+00 0.0000000e+00 
5.1489413e-01 2.7974076e+00 0.0000000e+00 
3.8711417e-01 2.7233641e+00 0.0000000e+00 
5.1547360e-01 2.6503508e+00 0.0000000e+00 
3.8750717e-01 2.5763063e+00 0.0000000e+00 
5.1603019e-01 2.5032935e+00 0.0000000e+00 
3.8805979e-01 2.4292488e+00 0.0000000e+00 
5.1422137e-01 2.3562264e+00 0.0000000e+00 
3.8765049e-01 2.2821872e+00 0.0000000e+00 
5.1307547e-01 2.2071202e+00 0.0000000e+00 
3.8778570e-01 2.1347876e+00 0.0000000e+00 
5.1568961e-01 2.0596735e+00 0.0000000e+00 
3.9013749e-01 1.9876142e+00 0.0000000e+00 
5.1808232e-01 1.9145784e+00 0.0000000e+00 
3.8994926e-01 1.8408588e+00 0.0000000e+00 
5.1884413e-01 1.7678982e+00 0.0000000e+00 
[...]
POINT_DATA 628
FIELD FieldData 2
VELOCITY 3 628  float
0.0000000e+00 0.0000000e+00 0.0000000e+00 
0.0000000e+00 0.0000000e+00 0.0000000e+00 
0.0000000e+00 -3.5635473e-03 0.0000000e+00 
0.0000000e+00 -3.1290643e-03 0.0000000e+00 
0.0000000e+00 -2.4113099e-03 0.0000000e+00 
0.0000000e+00 -2.4158263e-03 0.0000000e+00 
0.0000000e+00 0.0000000e+00 0.0000000e+00 
0.0000000e+00 0.0000000e+00 0.0000000e+00 
0.0000000e+00 0.0000000e+00 0.0000000e+00 
0.0000000e+00 0.0000000e+00 0.0000000e+00 
0.0000000e+00 0.0000000e+00 0.0000000e+00 
0.0000000e+00 0.0000000e+00 0.0000000e+00 
1.9217790e-05 -3.7048601e-03 0.0000000e+00 
3.0257949e-04 -3.1521104e-03 0.0000000e+00 
-2.1883575e-04 -3.2850285e-03 0.0000000e+00 
2.2185019e-04 -2.8527535e-03 0.0000000e+00 
-6.8099405e-05 -3.2750873e-03 0.0000000e+00 
6.3802618e-05 -3.0032573e-03 0.0000000e+00 
-1.5143476e-06 -2.5299885e-03 0.0000000e+00 
-1.5310819e-05 -2.5018712e-03 0.0000000e+00 
-5.0720910e-06 -2.4940427e-03 0.0000000e+00 
-1.6983397e-05 -2.4692675e-03 0.0000000e+00 
1.9937741e-05 -2.5113786e-03 0.0000000e+00 
-6.1307032e-06 -2.5239936e-03 0.0000000e+00 
0.0000000e+00 -2.8941247e-03 0.0000000e+00 
0.0000000e+00 -3.3295765e-03 0.0000000e+00 
0.0000000e+00 -3.2442370e-03 0.0000000e+00 
0.0000000e+00 -3.3077712e-03 0.0000000e+00 
0.0000000e+00 -3.4661409e-03 0.0000000e+00 
0.0000000e+00 -3.3419507e-03 0.0000000e+00 
0.0000000e+00 -3.6208020e-03 0.0000000e+00 
0.0000000e+00 -3.7093323e-03 0.0000000e+00 
0.0000000e+00 -3.2417532e-03 0.0000000e+00 
0.0000000e+00 -2.9609243e-03 0.0000000e+00 
0.0000000e+00 -2.8040363e-03 0.0000000e+00 
0.0000000e+00 -2.4455106e-03 0.0000000e+00 
0.0000000e+00 -2.3631984e-03 0.0000000e+00 
0.0000000e+00 -2.3021509e-03 0.0000000e+00 
0.0000000e+00 -1.7172234e-03 0.0000000e+00 
0.0000000e+00 -1.2267170e-03 0.0000000e+00 
0.0000000e+00 -1.2628817e-03 0.0000000e+00 
0.0000000e+00 -1.2371115e-03 0.0000000e+00 
0.0000000e+00 -8.9348131e-04 0.0000000e+00 
0.0000000e+00 -6.6910090e-04 0.0000000e+00 
0.0000000e+00 -5.7638017e-04 0.0000000e+00 
0.0000000e+00 -3.7044327e-04 0.0000000e+00 
0.0000000e+00 -3.0473105e-04 0.0000000e+00 
0.0000000e+00 -4.5006504e-04 0.0000000e+00 
0.0000000e+00 -3.4772430e-04 0.0000000e+00 
0.0000000e+00 1.9628134e-05 0.0000000e+00 
0.0000000e+00 7.6932818e-05 0.0000000e+00 
0.0000000e+00 -2.4821144e-04 0.0000000e+00 
0.0000000e+00 -3.1872548e-04 0.0000000e+00 
0.0000000e+00 5.2494554e-05 0.0000000e+00 
0.0000000e+00 2.3341324e-04 0.0000000e+00 
0.0000000e+00 -7.8837766e-05 0.0000000e+00 
0.0000000e+00 -2.9439648e-04 0.0000000e+00 
0.0000000e+00 -2.8174982e-04 0.0000000e+00 
0.0000000e+00 -8.7959212e-05 0.0000000e+00 
0.0000000e+00 2.1867355e-04 0.0000000e+00 
0.0000000e+00 5.9642127e-05 0.0000000e+00 
0.0000000e+00 -2.9882093e-04 0.0000000e+00 
0.0000000e+00 -2.3965209e-04 0.0000000e+00 
0.0000000e+00 6.5697372e-05 0.0000000e+00 
0.0000000e+00 8.9252253e-06 0.0000000e+00 
0.0000000e+00 -3.3641935e-04 0.0000000e+00 
0.0000000e+00 -4.3139310e-04 0.0000000e+00 
0.0000000e+00 -3.0796000e-04 0.0000000e+00 
0.0000000e+00 -3.8773319e-04 0.0000000e+00 
0.0000000e+00 -5.8324158e-04 0.0000000e+00 
0.0000000e+00 -6.7332020e-04 0.0000000e+00 
0.0000000e+00 -9.0826128e-04 0.0000000e+00 
0.0000000e+00 -1.2423490e-03 0.0000000e+00 
0.0000000e+00 -1.2449007e-03 0.0000000e+00 
0.0000000e+00 -1.2240032e-03 0.0000000e+00 
0.0000000e+00 -1.7344173e-03 0.0000000e+00 
0.0000000e+00 -2.2868353e-03 0.0000000e+00 
0.0000000e+00 -2.3386874e-03 0.0000000e+00 
0.0000000e+00 -2.4587016e-03 0.0000000e+00 
0.0000000e+00 -2.8263531e-03 0.0000000e+00 
0.0000000e+00 -2.9517508e-03 0.0000000e+00 
0.0000000e+00 -3.2379399e-03 0.0000000e+00 
0.0000000e+00 -3.7222330e-03 0.0000000e+00 
0.0000000e+00 -3.5933766e-03 0.0000000e+00 
0.0000000e+00 -3.3401861e-03 0.0000000e+00 
0.0000000e+00 -3.4862733e-03 0.0000000e+00 
0.0000000e+00 -3.2908581e-03 0.0000000e+00 
0.0000000e+00 -3.2313876e-03 0.0000000e+00 
0.0000000e+00 -3.3755589e-03 0.0000000e+00 
0.0000000e+00 -2.8757665e-03 0.0000000e+00 
0.0000000e+00 -2.9344326e-03 0.0000000e+00 
0.0000000e+00 -2.9259610e-03 0.0000000e+00 
0.0000000e+00 -2.6747212e-03 0.0000000e+00 
0.0000000e+00 -2.4876706e-03 0.0000000e+00 
0.0000000e+00 -2.5765086e-03 0.0000000e+00 
0.0000000e+00 -2.5197300e-03 0.0000000e+00 
0.0000000e+00 -2.7395850e-03 0.0000000e+00 
0.0000000e+00 -2.9283292e-03 0.0000000e+00 
0.0000000e+00 -3.0501303e-03 0.0000000e+00 
0.0000000e+00 -2.7797008e-03 0.0000000e+00 
0.0000000e+00 -3.0601516e-03 0.0000000e+00 
0.0000000e+00 -2.7827870e-03 0.0000000e+00 
0.0000000e+00 -3.0166053e-03 0.0000000e+00 
0.0000000e+00 -2.6926454e-03 0.0000000e+00 
0.0000000e+00 -2.9684124e-03 0.0000000e+00 
0.0000000e+00 -2.6096932e-03 0.0000000e+00 
0.0000000e+00 -2.6982813e-03 0.0000000e+00 
0.0000000e+00 -2.2648675e-03 0.0000000e+00 
0.0000000e+00 -2.5058873e-03 0.0000000e+00 
0.0000000e+00 -2.4343687e-03 0.0000000e+00 
0.0000000e+00 -3.0336089e-03 0.0000000e+00 
0.0000000e+00 -3.2238069e-03 0.0000000e+00 
0.0000000e+00 -3.4643377e-03 0.0000000e+00 
0.0000000e+00 -3.2347429e-03 0.0000000e+00 
0.0000000e+00 -3.0416385e-03 0.0000000e+00 
0.0000000e+00 -2.9122925e-03 0.0000000e+00 
0.0000000e+00 -2.5155353e-03 0.0000000e+00 
0.0000000e+00 -2.7143140e-03 0.0000000e+00 
0.0000000e+00 -2.4891621e-03 0.0000000e+00 
0.0000000e+00 -2.4812415e-03 0.0000000e+00 
0.0000000e+00 -2.4474424e-03 0.0000000e+00 
0.0000000e+00 -2.1003361e-03 0.0000000e+00 
0.0000000e+00 -2.4308518e-03 0.0000000e+00 
0.0000000e+00 -2.4886657e-03 0.0000000e+00 
0.0000000e+00 -2.0750726e-03 0.0000000e+00 
0.0000000e+00 -2.4463963e-03 0.0000000e+00 
0.0000000e+00 -2.5093094e-03 0.0000000e+00 
0.0000000e+00 -2.4367468e-03 0.0000000e+00 
0.0000000e+00 -2.7717040e-03 0.0000000e+00 
0.0000000e+00 -2.4901745e-03 0.0000000e+00 
0.0000000e+00 -2.8961725e-03 0.0000000e+00 
0.0000000e+00 -3.0454826e-03 0.0000000e+00 
0.0000000e+00 -3.2281559e-03 0.0000000e+00 
0.0000000e+00 -3.5403892e-03 0.0000000e+00 
0.0000000e+00 -3.1253253e-03 0.0000000e+00 
0.0000000e+00 -3.1096921e-03 0.0000000e+00 
0.0000000e+00 -2.3834482e-03 0.0000000e+00 
0.0000000e+00 -2.5349606e-03 0.0000000e+00 
0.0000000e+00 -2.2546593e-03 0.0000000e+00 
0.0000000e+00 -2.7040027e-03 0.0000000e+00 
0.0000000e+00 -2.5637944e-03 0.0000000e+00 
0.0000000e+00 -2.9498376e-03 0.0000000e+00 
0.0000000e+00 -2.7384206e-03 0.0000000e+00 
0.0000000e+00 -3.0634501e-03 0.0000000e+00 
0.0000000e+00 -2.6892151e-03 0.0000000e+00 
0.0000000e+00 -3.0655514e-03 0.0000000e+00 
0.0000000e+00 -2.8804659e-03 0.0000000e+00 
0.0000000e+00 -2.9846325e-03 0.0000000e+00 
0.0000000e+00 -2.8704992e-03 0.0000000e+00 
0.0000000e+00 -2.8305415e-03 0.0000000e+00 
0.0000000e+00 -2.4898502e-03 0.0000000e+00 
0.0000000e+00 -2.5606421e-03 0.0000000e+00 
0.0000000e+00 -2.5265014e-03 0.0000000e+00 
0.0000000e+00 -2.6784725e-03 0.0000000e+00 
0.0000000e+00 -2.8323468e-03 0.0000000e+00 
0.0000000e+00 -3.1117194e-03 0.0000000e+00 
8.7934256e-07 -2.7585640e-03 0.0000000e+00 
4.5373392e-07 -2.9484238e-04 0.0000000e+00 
-9.7958646e-06 -1.5710211e-04 0.0000000e+00 
9.9244235e-06 -3.4671163e-03 0.0000000e+00 
-3.8823769e-06 -3.7410797e-03 0.0000000e+00 
6.3728027e-07 -2.9170380e-03 0.0000000e+00 
-3.2772246e-06 -2.0710381e-03 0.0000000e+00 
3.9773627e-06 -7.5347844e-04 0.0000000e+00 
9.1149724e-07 -3.7284382e-04 0.0000000e+00 
2.8611469e-06 1.0766971e-04 0.0000000e+00 
6.8184372e-06 -1.2019404e-03 0.0000000e+00 
-2.7544223e-07 -2.3530710e-03 0.0000000e+00 
-5.4083034e-06 -4.8727886e-04 0.0000000e+00 
-2.1369826e-06 -1.0920296e-03 0.0000000e+00 
1.1909829e-05 -3.3853771e-03 0.0000000e+00 
6.2536369e-06 -3.3881032e-04 0.0000000e+00 
-4.3294035e-06 -1.6915218e-04 0.0000000e+00 
-6.9528810e-06 -3.4884196e-03 0.0000000e+00 
2.5457502e-06 -2.3465098e-03 0.0000000e+00 
-1.0107691e-06 -4.8104883e-04 0.0000000e+00 
1.7121669e-05 -3.2318961e-03 0.0000000e+00 
4.0725236e-06 -2.0619165e-03 0.0000000e+00 
2.1196597e-06 -3.6623262e-04 0.0000000e+00 
-3.2367473e-06 -1.1885118e-03 0.0000000e+00 
-4.2057914e-06 -2.9185035e-03 0.0000000e+00 
2.3111411e-06 2.0693608e-04 0.0000000e+00 
1.0601420e-05 -3.3584936e-03 0.0000000e+00 
3.0454585e-06 1.2781615e-04 0.0000000e+00 
3.6137797e-05 -3.1601992e-03 0.0000000e+00 
-5.8090072e-06 -2.3733289e-04 0.0000000e+00 
1.7619838e-06 -2.5162479e-04 0.0000000e+00 
-2.1022597e-06 -2.7291127e-03 0.0000000e+00 
-3.6137131e-05 -3.3513680e-03 0.0000000e+00 
9.9335284e-06 -3.2230816e-03 0.0000000e+00 
-1.3225952e-05 -3.3149000e-03 0.0000000e+00 
6.3021521e-06 -3.2355005e-03 0.0000000e+00 
-2.1952124e-05 -3.4491159e-03 0.0000000e+00 
-1.9754966e-06 -3.3256125e-03 0.0000000e+00 
-2.3548573e-06 -3.4618834e-03 0.0000000e+00 
6.6361777e-06 -3.2332654e-03 0.0000000e+00 
1.3788963e-05 -3.3924484e-03 0.0000000e+00 
4.2692604e-06 -3.3292400e-03 0.0000000e+00 
-1.9385792e-05 -3.4166730e-03 0.0000000e+00 
-6.1595833e-06 -3.5735893e-03 0.0000000e+00 
1.3485486e-05 -3.7484348e-03 0.0000000e+00 
3.5501159e-06 -3.7153487e-03 0.0000000e+00 
-2.7944493e-06 -3.5023345e-03 0.0000000e+00 
-6.4699009e-07 -3.2327604e-03 0.0000000e+00 
5.0244321e-06 -3.0389167e-03 0.0000000e+00 
7.1401178e-06 -2.9633923e-03 0.0000000e+00 
-5.0278104e-06 -2.9149491e-03 0.0000000e+00 
-8.9107461e-06 -2.8269170e-03 0.0000000e+00 
-9.7203667e-07 -2.6381696e-03 0.0000000e+00 
4.2153988e-06 -2.4651000e-03 0.0000000e+00 
9.1466827e-06 -2.3507869e-03 0.0000000e+00 
1.0632961e-06 -2.3483895e-03 0.0000000e+00 
-4.4681101e-06 -2.3690364e-03 0.0000000e+00 
-3.5535295e-06 -2.2990659e-03 0.0000000e+00 
-9.4457295e-07 -2.0771301e-03 0.0000000e+00 
4.8001795e-07 -1.7443119e-03 0.0000000e+00 
-2.6735272e-06 -1.4188408e-03 0.0000000e+00 
-8.4987090e-07 -1.2285615e-03 0.0000000e+00 
9.5707401e-06 -1.1995640e-03 0.0000000e+00 
3.6541489e-06 -1.2597619e-03 0.0000000e+00 
-6.8825675e-06 -1.2990193e-03 0.0000000e+00 
-5.2517898e-06 -1.2366839e-03 0.0000000e+00 
-3.8753155e-06 -1.0881665e-03 0.0000000e+00 
-1.9640709e-06 -9.0160634e-04 0.0000000e+00 
1.0003710e-05 -7.6831819e-04 0.0000000e+00 
2.4145954e-06 -6.8514689e-04 0.0000000e+00 
-5.0672766e-06 -6.4140314e-04 0.0000000e+00 
-1.7822566e-06 -5.7968765e-04 0.0000000e+00 
-1.8888604e-06 -4.8618985e-04 0.0000000e+00 
2.3067037e-06 -3.8123221e-04 0.0000000e+00 
3.5845858e-06 -3.0290033e-04 0.0000000e+00 
4.0664245e-06 -3.0564805e-04 0.0000000e+00 
1.9184906e-06 -3.6526416e-04 0.0000000e+00 
-5.6491410e-07 -4.3752193e-04 0.0000000e+00 
3.8122141e-07 -4.4919757e-04 0.0000000e+00 
-3.5548308e-06 -3.5206962e-04 0.0000000e+00 
-8.1741482e-06 -1.7655402e-04 0.0000000e+00 
-2.3219313e-06 9.6156054e-06 0.0000000e+00 
-1.1039726e-06 1.0667708e-04 0.0000000e+00 
8.3437891e-07 7.7472134e-05 0.0000000e+00 
5.0199856e-06 -7.5633332e-05 0.0000000e+00 
-5.4415153e-07 -2.3844106e-04 0.0000000e+00 
3.7410723e-07 -3.4935900e-04 0.0000000e+00 
1.2667676e-06 -3.0973004e-04 0.0000000e+00 
2.9433529e-06 -1.5598813e-04 0.0000000e+00 
-3.2096179e-07 4.6081015e-05 0.0000000e+00 
-2.9294699e-07 2.1007040e-04 0.0000000e+00 
-5.0037502e-06 2.2193239e-04 0.0000000e+00 
-9.6864801e-07 1.2003909e-04 0.0000000e+00 
1.1071243e-05 -3.4123138e-03 0.0000000e+00 
7.8496787e-06 -3.2192317e-03 0.0000000e+00 
3.1534366e-06 -3.0352664e-03 0.0000000e+00 
5.8450059e-06 -6.2855711e-04 0.0000000e+00 
-1.3777540e-05 -3.3566726e-03 0.0000000e+00 
-6.4875139e-06 -2.6492602e-03 0.0000000e+00 
-2.7685467e-06 -2.3619160e-03 0.0000000e+00 
1.0946533e-07 -7.5635005e-05 0.0000000e+00 
-1.6169932e-06 -1.4322938e-03 0.0000000e+00 
7.3563365e-06 -1.2973478e-03 0.0000000e+00 
1.5549371e-06 -3.1029299e-04 0.0000000e+00 
-2.9096584e-06 -4.4384107e-04 0.0000000e+00 
-3.5140838e-06 -1.5437088e-04 0.0000000e+00 
1.4640751e-06 -2.5781433e-04 0.0000000e+00 
-3.1596781e-07 -3.5563641e-04 0.0000000e+00 
-9.0747235e-06 -1.2430575e-03 0.0000000e+00 
-6.1663977e-06 -3.6088584e-03 0.0000000e+00 
8.1594635e-06 -7.6794022e-05 0.0000000e+00 
1.3892177e-06 1.1897137e-04 0.0000000e+00 
1.9562067e-06 -2.3299559e-04 0.0000000e+00 
-4.1913618e-06 -3.3173871e-03 0.0000000e+00 
1.1546344e-05 -3.1824890e-03 0.0000000e+00 
-1.3413630e-05 -3.1541481e-03 0.0000000e+00 
1.1778103e-06 2.5281508e-04 0.0000000e+00 
1.1087371e-06 -4.4408589e-05 0.0000000e+00 
9.8404300e-08 -2.9986241e-04 0.0000000e+00 
-9.0587901e-06 -5.7733495e-04 0.0000000e+00 
3.3299268e-06 -1.2281931e-03 0.0000000e+00 
4.3958353e-06 -2.2994175e-03 0.0000000e+00 
9.6787935e-06 -2.4538217e-03 0.0000000e+00 
4.8823999e-06 -2.9652664e-03 0.0000000e+00 
1.2416254e-05 -3.3480362e-03 0.0000000e+00 
-4.7643923e-07 2.1797864e-04 0.0000000e+00 
-1.7771112e-06 6.4101674e-05 0.0000000e+00 
3.5862829e-06 1.0823793e-04 0.0000000e+00 
-5.1928000e-06 1.9903167e-04 0.0000000e+00 
-6.0966900e-06 -3.4563961e-03 0.0000000e+00 
-1.3797498e-05 -3.2179097e-03 0.0000000e+00 
-1.1465501e-06 -1.4223300e-04 0.0000000e+00 
-4.1599259e-07 -3.3877496e-04 0.0000000e+00 
1.0163877e-05 -2.1979591e-04 0.0000000e+00 
7.5244789e-06 6.2103485e-05 0.0000000e+00 
-5.2106293e-06 3.3594597e-06 0.0000000e+00 
-1.0023612e-06 -1.7075286e-04 0.0000000e+00 
1.5335651e-06 9.4484298e-05 0.0000000e+00 
2.2881638e-06 4.5999219e-05 0.0000000e+00 
6.3832243e-07 -1.7518472e-04 0.0000000e+00 
4.0446943e-07 -7.5691374e-04 0.0000000e+00 
-9.2721557e-06 -9.0225437e-04 0.0000000e+00 
8.8923507e-06 -6.2664133e-04 0.0000000e+00 
-5.1623815e-06 -1.4077440e-03 0.0000000e+00 
5.6797817e-06 -1.2616690e-03 0.0000000e+00 
-9.0926153e-07 -1.2996506e-03 0.0000000e+00 
8.7685885e-06 -3.0486777e-03 0.0000000e+00 
-9.8337014e-06 -2.8172194e-03 0.0000000e+00 
-1.6128022e-06 -2.6355302e-03 0.0000000e+00 
-8.3146705e-07 -2.3482095e-03 0.0000000e+00 
3.0632348e-06 -2.3792828e-03 0.0000000e+00 
-4.9370897e-06 -1.7340434e-03 0.0000000e+00 
-4.6948776e-06 -2.3589325e-03 0.0000000e+00 
2.1335554e-06 -3.4030445e-03 0.0000000e+00 
-1.2041329e-06 -3.4656371e-03 0.0000000e+00 
-5.0141176e-07 -3.4008813e-03 0.0000000e+00 
2.7620781e-06 -3.5111511e-03 0.0000000e+00 
-3.7764501e-06 -3.7147498e-03 0.0000000e+00 
-4.6578907e-07 -3.0376879e-03 0.0000000e+00 
-8.5038864e-06 -6.3161983e-04 0.0000000e+00 
2.4009116e-06 -3.7162265e-04 0.0000000e+00 
5.6824337e-07 -2.9781525e-04 0.0000000e+00 
4.6676132e-06 -4.4222147e-04 0.0000000e+00 
9.7466852e-07 -3.7370492e-03 0.0000000e+00 
1.9246900e-06 -3.7056373e-03 0.0000000e+00 
3.4568095e-06 -1.2917954e-03 0.0000000e+00 
-3.0652131e-06 -2.6509089e-03 0.0000000e+00 
-8.0957725e-06 -3.5381882e-04 0.0000000e+00 
4.9712116e-06 -7.8106117e-05 0.0000000e+00 
-4.6578584e-06 -3.1041744e-04 0.0000000e+00 
3.3741048e-06 -1.4238976e-03 0.0000000e+00 
-3.9689498e-06 -4.3498658e-04 0.0000000e+00 
1.9966669e-06 -3.6713676e-04 0.0000000e+00 
-5.8513518e-07 -6.8282132e-04 0.0000000e+00 
1.0736494e-05 -9.0957183e-04 0.0000000e+00 
-1.9824981e-06 -4.8216310e-04 0.0000000e+00 
-4.9956689e-06 -1.1977599e-03 0.0000000e+00 
5.3671846e-07 -2.0847269e-03 0.0000000e+00 
5.2925357e-06 -2.3511797e-03 0.0000000e+00 
1.3937107e-07 -2.9174867e-03 0.0000000e+00 
-8.7928411e-06 -3.4169964e-03 0.0000000e+00 
-1.2715594e-06 -3.3321073e-03 0.0000000e+00 
1.0161219e-05 -3.4596722e-03 0.0000000e+00 
5.3097046e-06 -4.5238037e-04 0.0000000e+00 
-4.8985871e-06 -3.2289689e-03 0.0000000e+00 
2.1444880e-06 -1.0850491e-03 0.0000000e+00 
-2.2551098e-05 -3.3394196e-03 0.0000000e+00 
1.6792417e-05 -2.7528771e-03 0.0000000e+00 
-6.9145349e-06 -3.1612415e-04 0.0000000e+00 
2.3548380e-06 -3.3704408e-03 0.0000000e+00 
4.0697495e-07 -3.3134127e-03 0.0000000e+00 
-3.1488242e-05 -3.1518689e-03 0.0000000e+00 
-3.2192299e-06 -2.5506355e-04 0.0000000e+00 
-2.5128395e-06 -3.5882448e-03 0.0000000e+00 
3.0117664e-07 -3.2245694e-03 0.0000000e+00 
-5.8173532e-06 -2.7481496e-04 0.0000000e+00 
-1.7724741e-06 -3.4572075e-03 0.0000000e+00 
4.5735960e-06 -3.4011286e-03 0.0000000e+00 
9.1527463e-06 -3.3200595e-03 0.0000000e+00 
-1.2597941e-05 -3.7446211e-03 0.0000000e+00 
4.9451119e-06 -1.2445529e-03 0.0000000e+00 
7.4846906e-07 -3.5012676e-03 0.0000000e+00 
3.6021420e-06 -3.2384908e-03 0.0000000e+00 
4.5169753e-07 -2.9521135e-03 0.0000000e+00 
-2.8908692e-06 -2.8230217e-03 0.0000000e+00 
-1.7624882e-06 -2.4601587e-03 0.0000000e+00 
2.7606070e-06 -2.3381615e-03 0.0000000e+00 
5.4015936e-06 -8.0344616e-05 0.0000000e+00 
-7.2326770e-06 -2.2995805e-03 0.0000000e+00 
3.3078179e-06 -1.7609916e-03 0.0000000e+00 
-4.8049646e-06 -1.2354479e-03 0.0000000e+00 
-5.0092221e-06 -7.6142652e-04 0.0000000e+00 
1.2077546e-06 -1.2521362e-03 0.0000000e+00 
-5.8657652e-06 -1.0859764e-03 0.0000000e+00 
6.4194237e-06 -6.7224429e-04 0.0000000e+00 
3.9568158e-06 -5.6719146e-04 0.0000000e+00 
-7.6327142e-06 -3.7980589e-04 0.0000000e+00 
1.8515858e-06 -3.0752653e-04 0.0000000e+00 
-3.1845363e-07 -8.4254152e-06 0.0000000e+00 
-7.0390286e-07 -4.3190990e-04 0.0000000e+00 
-4.3658151e-06 -3.4855262e-04 0.0000000e+00 
-1.7980315e-06 -7.0502552e-05 0.0000000e+00 
2.5446052e-06 2.3154497e-04 0.0000000e+00 
-4.1903986e-06 5.9129292e-05 0.0000000e+00 
5.6544304e-06 -2.5047711e-04 0.0000000e+00 
-5.0460665e-07 9.1852140e-05 0.0000000e+00 
1.4186416e-07 -3.0272754e-04 0.0000000e+00 
-2.8878112e-06 -2.3913381e-04 0.0000000e+00 
1.9276815e-06 -2.1743897e-04 0.0000000e+00 
-3.8461421e-05 -2.6555907e-03 0.0000000e+00 
2.8406854e-05 -2.6680746e-03 0.0000000e+00 
-4.8637685e-05 -2.7121054e-03 0.0000000e+00 
5.9878443e-05 -2.6514200e-03 0.0000000e+00 
1.1378724e-05 -2.3782173e-04 0.0000000e+00 
-6.0422208e-06 -2.2990105e-04 0.0000000e+00 
-1.4728620e-06 -2.6310515e-04 0.0000000e+00 
1.6920333e-04 -3.1096684e-03 0.0000000e+00 
4.2457932e-06 -2.4360232e-03 0.0000000e+00 
1.0179804e-05 -2.4181956e-03 0.0000000e+00 
2.6195014e-05 -2.4056474e-03 0.0000000e+00 
1.6010770e-05 -2.7901526e-03 0.0000000e+00 
1.1898359e-06 -2.6094415e-03 0.0000000e+00 
3.0604955e-05 -2.8392693e-03 0.0000000e+00 
5.2138548e-06 -3.1052832e-03 0.0000000e+00 
5.7799925e-06 -2.6182311e-03 0.0000000e+00 
5.5575829e-06 -2.9557247e-03 0.0000000e+00 
-1.1352648e-05 -2.4851561e-03 0.0000000e+00 
1.8332858e-05 -3.0787275e-03 0.0000000e+00 
-5.4390544e-05 -2.5807947e-03 0.0000000e+00 
-1.8797715e-05 -2.8803353e-03 0.0000000e+00 
1.3598343e-05 -2.6217371e-03 0.0000000e+00 
-3.8501366e-05 -2.8049904e-03 0.0000000e+00 
-9.5202240e-06 -2.6831776e-03 0.0000000e+00 
-1.7354962e-05 -2.3533227e-03 0.0000000e+00 
7.9766669e-06 -2.9028233e-03 0.0000000e+00 
1.7005808e-05 -2.9332065e-03 0.0000000e+00 
-2.3802490e-06 -3.1318152e-03 0.0000000e+00 
-9.2898017e-06 -3.2195828e-03 0.0000000e+00 
1.2721795e-05 -2.6027567e-03 0.0000000e+00 
8.3580733e-07 -2.5759186e-03 0.0000000e+00 
3.4583059e-05 -2.4055711e-03 0.0000000e+00 
-3.1786924e-05 -2.9727938e-03 0.0000000e+00 
5.4088683e-05 -2.6344147e-03 0.0000000e+00 
3.7458631e-05 -2.1909827e-03 0.0000000e+00 
3.7749123e-05 -2.1992240e-03 0.0000000e+00 
-3.4116106e-06 -2.9841184e-03 0.0000000e+00 
-2.6647744e-04 -3.0182018e-03 0.0000000e+00 
3.4726381e-06 -2.4109441e-03 0.0000000e+00 
-2.6096648e-05 -2.1519568e-03 0.0000000e+00 
-4.9869204e-06 -2.4317664e-03 0.0000000e+00 
-1.7267887e-06 -2.5402009e-03 0.0000000e+00 
6.2193626e-06 -2.5682910e-03 0.0000000e+00 
-9.9678994e-07 -2.3710502e-03 0.0000000e+00 
-1.5824136e-05 -2.5186029e-03 0.0000000e+00 
-1.3142167e-06 -2.4439369e-03 0.0000000e+00 
3.0400852e-05 -2.4377746e-03 0.0000000e+00 
2.9320624e-06 -2.6464588e-03 0.0000000e+00 
-2.9619639e-06 -2.7283912e-03 0.0000000e+00 
-1.7036609e-05 -2.6258859e-03 0.0000000e+00 
2.7952508e-06 -2.4695222e-03 0.0000000e+00 
2.1112930e-05 -2.5724072e-03 0.0000000e+00 
1.3008350e-05 -2.9152222e-03 0.0000000e+00 
-8.3450059e-06 -3.0936159e-03 0.0000000e+00 
-9.2693153e-06 -3.0528228e-03 0.0000000e+00 
-1.5274809e-05 -3.0469985e-03 0.0000000e+00 
1.3665763e-06 -3.2736347e-03 0.0000000e+00 
1.3364481e-05 -3.5324809e-03 0.0000000e+00 
-3.8858152e-06 -3.4825697e-03 0.0000000e+00 
1.8001190e-05 -3.2346731e-03 0.0000000e+00 
1.8076864e-05 -3.1271258e-03 0.0000000e+00 
-1.8054461e-05 -3.1287079e-03 0.0000000e+00 
-1.2643594e-05 -3.0879998e-03 0.0000000e+00 
-6.0537145e-06 -2.7037277e-03 0.0000000e+00 
1.3766255e-05 -2.4172254e-03 0.0000000e+00 