# vtk DataFile Version 4.0
vtk output
ASCII
DATASET UNSTRUCTURED_GRID
POINTS 628 float
0.0000000e+00 0.0000000e+00 0.0000000e+00 
1.0000000e+00 0.0000000e+00 0.0000000e+00 
1.0000000e+00 1.0000000e+01 0.0000000e+00 
0.0000000e+00 1.0000000e+01 0.0000000e+00 
0.0000000e+00 5.0000000e+00 0.0000000e+00 
1.0000000e+00 5.0000000e+00 0.0000000e+00 
1.4285715e-01 0.0000000e+00 0.0000000e+00 
2.8571430e-01 0.0000000e+00 0.0000000e+00 
4.2857143e-01 0.0000000e+00 0.0000000e+00 
5.7142860e-01 0.0000000e+00 0.0000000e+00 
7.1428573e-01 0.0000000e+00 0.0000000e+00 
8.5714287e-01 0.0000000e+00 0.0000000e+00 
8.5714287e-01 1.0000000e+01 0.0000000e+00 
7.1428573e-01 1.0000000e+01 0.0000000e+00 
5.7142860e-01 1.0000000e+01 0.0000000e+00 
4.2857143e-01 1.0000000e+01 0.0000000e+00 
2.8571430e-01 1.0000000e+01 0.0000000e+00 
1.4285715e-01 1.0000000e+01 0.0000000e+00 
1.4285715e-01 5.0000000e+00 0.0000000e+00 
2.8571430e-01 5.0000000e+00 0.0000000e+00 
4.2857143e-01 5.0000000e+00 0.0000000e+00 
5.7142860e-01 5.0000000e+00 0.0000000e+00 
7.1428573e-01 5.0000000e+00 0.0000000e+00 
8.5714287e-01 5.0000000e+00 0.0000000e+00 
0.0000000e+00 4.8529410e+00 0.0000000e+00 
0.0000000e+00 4.7058825e+00 0.0000000e+00 
0.0000000e+00 4.5588236e+00 0.0000000e+00 
0.0000000e+00 4.4117646e+00 0.0000000e+00 
0.0000000e+00 4.2647057e+00 0.0000000e+00 
0.0000000e+00 4.1176472e+00 0.0000000e+00 
0.0000000e+00 3.9705882e+00 0.0000000e+00 
0.0000000e+00 3.8235295e+00 0.0000000e+00 
0.0000000e+00 3.6764705e+00 0.0000000e+00 
0.0000000e+00 3.5294118e+00 0.0000000e+00 
0.0000000e+00 3.3823528e+00 0.0000000e+00 
0.0000000e+00 3.2352941e+00 0.0000000e+00 
0.0000000e+00 3.0882354e+00 0.0000000e+00 
0.0000000e+00 2.9411764e+00 0.0000000e+00 
0.0000000e+00 2.7941177e+00 0.0000000e+00 
0.0000000e+00 2.6470587e+00 0.0000000e+00 
0.0000000e+00 2.5000000e+00 0.0000000e+00 
0.0000000e+00 2.3529413e+00 0.0000000e+00 
0.0000000e+00 2.2058823e+00 0.0000000e+00 
0.0000000e+00 2.0588236e+00 0.0000000e+00 
0.0000000e+00 1.9117647e+00 0.0000000e+00 
0.0000000e+00 1.7647059e+00 0.0000000e+00 
0.0000000e+00 1.6176471e+00 0.0000000e+00 
0.0000000e+00 1.4705882e+00 0.0000000e+00 
0.0000000e+00 1.3235294e+00 0.0000000e+00 
0.0000000e+00 1.1764706e+00 0.0000000e+00 
0.0000000e+00 1.0294118e+00 0.0000000e+00 
0.0000000e+00 8.8235295e-01 0.0000000e+00 
0.0000000e+00 7.3529410e-01 0.0000000e+00 
0.0000000e+00 5.8823532e-01 0.0000000e+00 
0.0000000e+00 4.4117647e-01 0.0000000e+00 
0.0000000e+00 2.9411766e-01 0.0000000e+00 
0.0000000e+00 1.4705883e-01 0.0000000e+00 
1.0000000e+00 1.4705883e-01 0.0000000e+00 
1.0000000e+00 2.9411766e-01 0.0000000e+00 
1.0000000e+00 4.4117647e-01 0.0000000e+00 
1.0000000e+00 5.8823532e-01 0.0000000e+00 
1.0000000e+00 7.3529410e-01 0.0000000e+00 
1.0000000e+00 8.8235295e-01 0.0000000e+00 
1.0000000e+00 1.0294118e+00 0.0000000e+00 
1.0000000e+00 1.1764706e+00 0.0000000e+00 
1.0000000e+00 1.3235294e+00 0.0000000e+00 
1.0000000e+00 1.4705882e+00 0.0000000e+00 
1.0000000e+00 1.6176471e+00 0.0000000e+00 
1.0000000e+00 1.7647059e+00 0.0000000e+00 
1.0000000e+00 1.9117647e+00 0.0000000e+00 
1.0000000e+00 2.0588236e+00 0.0000000e+00 
1.0000000e+00 2.2058823e+00 0.0000000e+00 
1.0000000e+00 2.3529413e+00 0.0000000e+00 
1.0000000e+00 2.5000000e+00 0.0000000e+00 
1.0000000e+00 2.6470587e+00 0.0000000e+00 
1.0000000e+00 2.7941177e+00 0.0000000e+00 
1.0000000e+00 2.9411764e+00 0.0000000e+00 
1.0000000e+00 3.0882354e+00 0.0000000e+00 
1.0000000e+00 3.2352941e+00 0.0000000e+00 
1.0000000e+00 3.3823528e+00 0.0000000e+00 
1.0000000e+00 3.5294118e+00 0.0000000e+00 
1.0000000e+00 3.6764705e+00 0.0000000e+00 
1.0000000e+00 3.8235295e+00 0.0000000e+00 
1.0000000e+00 3.9705882e+00 0.0000000e+00 
1.0000000e+00 4.1176472e+00 0.0000000e+00 
1.0000000e+00 4.2647057e+00 0.0000000e+00 
1.0000000e+00 4.4117646e+00 0.0000000e+00 
1.0000000e+00 4.5588236e+00 0.0000000e+00 
1.0000000e+00 4.7058825e+00 0.0000000e+00 
1.0000000e+00 4.8529410e+00 0.0000000e+00 
0.0000000e+00 9.8529415e+00 0.0000000e+00 
0.0000000e+00 9.7058821e+00 0.0000000e+00 
0.0000000e+00 9.5588236e+00 0.0000000e+00 
0.0000000e+00 9.4117651e+00 0.0000000e+00 
0.0000000e+00 9.2647057e+00 0.0000000e+00 
0.0000000e+00 9.1176472e+00 0.0000000e+00 
0.0000000e+00 8.9705887e+00 0.0000000e+00 
0.0000000e+00 8.8235292e+00 0.0000000e+00 
0.0000000e+00 8.6764708e+00 0.0000000e+00 
0.0000000e+00 8.5294113e+00 0.0000000e+00 
0.0000000e+00 8.3823528e+00 0.0000000e+00 
0.0000000e+00 8.2352943e+00 0.0000000e+00 
0.0000000e+00 8.0882349e+00 0.0000000e+00 
0.0000000e+00 7.9411764e+00 0.0000000e+00 
0.0000000e+00 7.7941175e+00 0.0000000e+00 
0.0000000e+00 7.6470590e+00 0.0000000e+00 
0.0000000e+00 7.5000000e+00 0.0000000e+00 
0.0000000e+00 7.3529410e+00 0.0000000e+00 
0.0000000e+00 7.2058825e+00 0.0000000e+00 
0.0000000e+00 7.0588236e+00 0.0000000e+00 
0.0000000e+00 6.9117646e+00 0.0000000e+00 
0.0000000e+00 6.7647057e+00 0.0000000e+00 
0.0000000e+00 6.6176472e+00 0.0000000e+00 
0.0000000e+00 6.4705882e+00 0.0000000e+00 
0.0000000e+00 6.3235292e+00 0.0000000e+00 
0.0000000e+00 6.1764708e+00 0.0000000e+00 
0.0000000e+00 6.0294118e+00 0.0000000e+00 
0.0000000e+00 5.8823528e+00 0.0000000e+00 
0.0000000e+00 5.7352943e+00 0.0000000e+00 
0.0000000e+00 5.5882354e+00 0.0000000e+00 
0.0000000e+00 5.4411764e+00 0.0000000e+00 
0.0000000e+00 5.2941175e+00 0.0000000e+00 
0.0000000e+00 5.1470590e+00 0.0000000e+00 
1.0000000e+00 5.1470590e+00 0.0000000e+00 
1.0000000e+00 5.2941175e+00 0.0000000e+00 
1.0000000e+00 5.4411764e+00 0.0000000e+00 
1.0000000e+00 5.5882354e+00 0.0000000e+00 
1.0000000e+00 5.7352943e+00 0.0000000e+00 
1.0000000e+00 5.8823528e+00 0.0000000e+00 
1.0000000e+00 6.0294118e+00 0.0000000e+00 
1.0000000e+00 6.1764708e+00 0.0000000e+00 
1.0000000e+00 6.3235292e+00 0.0000000e+00 
1.0000000e+00 6.4705882e+00 0.0000000e+00 
1.0000000e+00 6.6176472e+00 0.0000000e+00 
1.0000000e+00 6.7647057e+00 0.0000000e+00 
1.0000000e+00 6.9117646e+00 0.0000000e+00 
1.0000000e+00 7.0588236e+00 0.0000000e+00 
1.0000000e+00 7.2058825e+00 0.0000000e+00 
1.0000000e+00 7.3529410e+00 0.0000000e+00 
1.0000000e+00 7.5000000e+00 0.0000000e+00 
1.0000000e+00 7.6470590e+00 0.0000000e+00 
1.0000000e+00 7.7941175e+00 0.0000000e+00 
1.0000000e+00 7.9411764e+00 0.0000000e+00 
1.0000000e+00 8.0882349e+00 0.0000000e+00 
1.0000000e+00 8.2352943e+00 0.0000000e+00 
1.0000000e+00 8.3823528e+00 0.0000000e+00 
1.0000000e+00 8.5294113e+00 0.0000000e+00 
1.0000000e+00 8.6764708e+00 0.0000000e+00 
1.0000000e+00 8.8235292e+00 0.0000000e+00 
1.0000000e+00 8.9705887e+00 0.0000000e+00 
1.0000000e+00 9.1176472e+00 0.0000000e+00 
1.0000000e+00 9.2647057e+00 0.0000000e+00 
1.0000000e+00 9.4117651e+00 0.0000000e+00 
1.0000000e+00 9.5588236e+00 0.0000000e+00 
1.0000000e+00 9.7058821e+00 0.0000000e+00 
1.0000000e+00 9.8529415e+00 0.0000000e+00 
5.0212586e-01 4.8703580e+00 0.0000000e+00 
5.1041055e-01 1.3732977e-01 0.0000000e+00 
1.3055173e-01 6.6499180e-01 0.0000000e+00 
8.7327349e-01 4.3372407e+00 0.0000000e+00 
8.7331611e-01 3.8958969e+00 0.0000000e+00 
8.7347627e-01 3.4562511e+00 0.0000000e+00 
8.7357801e-01 2.8680170e+00 0.0000000e+00 
1.2843554e-01 2.1327813e+00 0.0000000e+00 
1.2975387e-01 1.5449892e+00 0.0000000e+00 
1.3308091e-01 1.1039938e+00 0.0000000e+00 
1.2937543e-01 2.5737903e+00 0.0000000e+00 
1.2735668e-01 3.1617646e+00 0.0000000e+00 
8.7375563e-01 1.8386052e+00 0.0000000e+00 
8.7355548e-01 2.2778318e+00 0.0000000e+00 
1.2753446e-01 4.1915216e+00 0.0000000e+00 
8.7915283e-01 8.0759794e-01 0.0000000e+00 
8.8115031e-01 1.2498868e+00 0.0000000e+00 
1.2781374e-01 3.7501886e+00 0.0000000e+00 
8.7352717e-01 3.1621344e+00 0.0000000e+00 
1.2961270e-01 1.8389882e+00 0.0000000e+00 
1.2731366e-01 4.4857054e+00 0.0000000e+00 
1.2885660e-01 2.8684020e+00 0.0000000e+00 
8.7380636e-01 1.5444875e+00 0.0000000e+00 
8.7362880e-01 2.5738993e+00 0.0000000e+00 
1.2735668e-01 3.4558823e+00 0.0000000e+00 
8.7264335e-01 5.1470590e-01 0.0000000e+00 
8.7611687e-01 4.6317782e+00 0.0000000e+00 
1.3446054e-01 3.7013325e-01 0.0000000e+00 
1.2296320e-01 4.7760825e+00 0.0000000e+00 
8.8210768e-01 2.2118840e-01 0.0000000e+00 
2.1798968e-01 1.0548568e-01 0.0000000e+00 
7.7656764e-01 4.8704844e+00 0.0000000e+00 
1.2667844e-01 4.6331582e+00 0.0000000e+00 
2.5353336e-01 4.5619426e+00 0.0000000e+00 
2.5451174e-01 4.4132285e+00 0.0000000e+00 
3.8040194e-01 4.4881525e+00 0.0000000e+00 
3.8161713e-01 4.3403850e+00 0.0000000e+00 
5.0654775e-01 4.4141955e+00 0.0000000e+00 
5.0629890e-01 4.2659345e+00 0.0000000e+00 
5.0658631e-01 4.5616083e+00 0.0000000e+00 
3.8184282e-01 4.1932206e+00 0.0000000e+00 
5.0831819e-01 4.1188259e+00 0.0000000e+00 
3.8249290e-01 4.0462651e+00 0.0000000e+00 
5.0818664e-01 3.9732957e+00 0.0000000e+00 
3.8265404e-01 3.8991868e+00 0.0000000e+00 
5.0769192e-01 3.8249388e+00 0.0000000e+00 
3.8307732e-01 3.7517705e+00 0.0000000e+00 
5.0990808e-01 3.6776419e+00 0.0000000e+00 
3.8416636e-01 3.6049941e+00 0.0000000e+00 
5.1177651e-01 3.5322094e+00 0.0000000e+00 
3.8460994e-01 3.4584429e+00 0.0000000e+00 
5.1256055e-01 3.3855147e+00 0.0000000e+00 
3.8520575e-01 3.3115354e+00 0.0000000e+00 
5.1318693e-01 3.2385471e+00 0.0000000e+00 
3.8561273e-01 3.1645203e+00 0.0000000e+00 
5.1375473e-01 3.0915136e+00 0.0000000e+00 
3.8616878e-01 3.0174749e+00 0.0000000e+00 
5.1433694e-01 2.9444630e+00 0.0000000e+00 
3.8656160e-01 2.8704205e+00 0.0000000e+00 
5.1489413e-01 2.7974076e+00 0.0000000e+00 
3.8711417e-01 2.7233641e+00 0.0000000e+00 
5.1547360e-01 2.6503508e+00 0.0000000e+00 
3.8750717e-01 2.5763063e+00 0.0000000e+00 
5.1603019e-01 2.5032935e+00 0.0000000e+00 
3.8805979e-01 2.4292488e+00 0.0000000e+00 
5.1422137e-01 2.3562264e+00 0.0000000e+00 
3.8765049e-01 2.2821872e+00 0.0000000e+00 
5.1307547e-01 2.2071202e+00 0.0000000e+00 
3.8778570e-01 2.1347876e+00 0.0000000e+00 
5.1568961e-01 2.0596735e+00 0.0000000e+00 
3.9013749e-01 1.9876142e+00 0.0000000e+00 
5.1808232e-01 1.9145784e+00 0.0000000e+00 
3.8994926e-01 1.8408588e+00 0.0000000e+00 
5.1884413e-01 1.7678982e+00 0.0000000e+00 
[...]
POINT_DATA 628
FIELD FieldData 2
VELOCITY 3 628  float
0.0000000e+00 0.0000000e+00 0.0000000e+00 
0.0000000e+00 0.0000000e+00 0.0000000e+00 
0.0000000e+00 2.5918821e-03 0.0000000e+00 
0.0000000e+00 2.3502458e-03 0.0000000e+00 
0.0000000e+00 2.9369071e-03 0.0000000e+00 
0.0000000e+00 2.9359551e-03 0.0000000e+00 
0.0000000e+00 0.0000000e+00 0.0000000e+00 
0.0000000e+00 0.0000000e+00 0.0000000e+00 
0.0000000e+00 0.0000000e+00 0.0000000e+00 
0.0000000e+00 0.0000000e+00 0.0000000e+00 
0.0000000e+00 0.0000000e+00 0.0000000e+00 
0.0000000e+00 0.0000000e+00 0.0000000e+00 
8.7340908e-05 3.5253761e-03 0.0000000e+00 
5.7994235e-05 2.6436672e-03 0.0000000e+00 
-1.3539300e-04 2.9187046e-03 0.0000000e+00 
2.2383095e-04 2.6550582e-03 0.0000000e+00 
-6.3502905e-04 2.4726808e-03 0.0000000e+00 
6.6249951e-04 3.1642467e-03 0.0000000e+00 
-1.0947489e-06 2.9328472e-03 0.0000000e+00 
-2.4643634e-07 2.9334158e-03 0.0000000e+00 
6.2354536e-07 2.9368280e-03 0.0000000e+00 
-7.5204360e-07 2.9345911e-03 0.0000000e+00 
-6.2634791e-07 2.9344382e-03 0.0000000e+00 
1.4674914e-07 2.9331381e-03 0.0000000e+00 
0.0000000e+00 3.2325867e-03 0.0000000e+00 
0.0000000e+00 3.2761758e-03 0.0000000e+00 
0.0000000e+00 3.0472290e-03 0.0000000e+00 
0.0000000e+00 2.6760169e-03 0.0000000e+00 
0.0000000e+00 2.3495010e-03 0.0000000e+00 
0.0000000e+00 2.2120795e-03 0.0000000e+00 
0.0000000e+00 2.3126358e-03 0.0000000e+00 
0.0000000e+00 2.6050913e-03 0.0000000e+00 
0.0000000e+00 2.9841934e-03 0.0000000e+00 
0.0000000e+00 3.3324491e-03 0.0000000e+00 
0.0000000e+00 3.5569845e-03 0.0000000e+00 
0.0000000e+00 3.6083083e-03 0.0000000e+00 
0.0000000e+00 3.4815329e-03 0.0000000e+00 
0.0000000e+00 3.2051993e-03 0.0000000e+00 
0.0000000e+00 2.8265109e-03 0.0000000e+00 
0.0000000e+00 2.3966236e-03 0.0000000e+00 
0.0000000e+00 1.9607507e-03 0.0000000e+00 
0.0000000e+00 1.5526632e-03 0.0000000e+00 
0.0000000e+00 1.1932893e-03 0.0000000e+00 
0.0000000e+00 8.9224911e-04 0.0000000e+00 
0.0000000e+00 6.5041025e-04 0.0000000e+00 
0.0000000e+00 4.6311805e-04 0.0000000e+00 
0.0000000e+00 3.2262193e-04 0.0000000e+00 
0.0000000e+00 2.2019904e-04 0.0000000e+00 
0.0000000e+00 1.4745432e-04 0.0000000e+00 
0.0000000e+00 9.6969437e-05 0.0000000e+00 
0.0000000e+00 6.2692743e-05 0.0000000e+00 
0.0000000e+00 3.9871145e-05 0.0000000e+00 
0.0000000e+00 2.4931174e-05 0.0000000e+00 
0.0000000e+00 1.5268182e-05 0.0000000e+00 
0.0000000e+00 9.0623244e-06 0.0000000e+00 
0.0000000e+00 5.0184144e-06 0.0000000e+00 
0.0000000e+00 2.2277379e-06 0.0000000e+00 
0.0000000e+00 2.2292397e-06 0.0000000e+00 
0.0000000e+00 5.0234089e-06 0.0000000e+00 
0.0000000e+00 9.0636895e-06 0.0000000e+00 
0.0000000e+00 1.5265367e-05 0.0000000e+00 
0.0000000e+00 2.4921648e-05 0.0000000e+00 
0.0000000e+00 3.9864746e-05 0.0000000e+00 
0.0000000e+00 6.2696468e-05 0.0000000e+00 
0.0000000e+00 9.6975185e-05 0.0000000e+00 
0.0000000e+00 1.4743951e-04 0.0000000e+00 
0.0000000e+00 2.2018539e-04 0.0000000e+00 
0.0000000e+00 3.2259792e-04 0.0000000e+00 
0.0000000e+00 4.6310559e-04 0.0000000e+00 
0.0000000e+00 6.5041351e-04 0.0000000e+00 
0.0000000e+00 8.9230185e-04 0.0000000e+00 
0.0000000e+00 1.1934249e-03 0.0000000e+00 
0.0000000e+00 1.5527328e-03 0.0000000e+00 
0.0000000e+00 1.9608412e-03 0.0000000e+00 
0.0000000e+00 2.3967510e-03 0.0000000e+00 
0.0000000e+00 2.8266569e-03 0.0000000e+00 
0.0000000e+00 3.2053695e-03 0.0000000e+00 
0.0000000e+00 3.4816272e-03 0.0000000e+00 
0.0000000e+00 3.6083797e-03 0.0000000e+00 
0.0000000e+00 3.5569207e-03 0.0000000e+00 
0.0000000e+00 3.3323178e-03 0.0000000e+00 
0.0000000e+00 2.9840048e-03 0.0000000e+00 
0.0000000e+00 2.6050389e-03 0.0000000e+00 
0.0000000e+00 2.3126516e-03 0.0000000e+00 
0.0000000e+00 2.2120783e-03 0.0000000e+00 
0.0000000e+00 2.3496894e-03 0.0000000e+00 
0.0000000e+00 2.6763517e-03 0.0000000e+00 
0.0000000e+00 3.0481208e-03 0.0000000e+00 
0.0000000e+00 3.2778268e-03 0.0000000e+00 
0.0000000e+00 3.2342859e-03 0.0000000e+00 
0.0000000e+00 3.3530905e-03 0.0000000e+00 
0.0000000e+00 2.8397418e-03 0.0000000e+00 
0.0000000e+00 2.4718703e-03 0.0000000e+00 
0.0000000e+00 3.0441303e-03 0.0000000e+00 
0.0000000e+00 2.7224668e-03 0.0000000e+00 
0.0000000e+00 3.0417703e-03 0.0000000e+00 
0.0000000e+00 2.7009808e-03 0.0000000e+00 
0.0000000e+00 2.5194325e-03 0.0000000e+00 
0.0000000e+00 3.2278965e-03 0.0000000e+00 
0.0000000e+00 2.4205511e-03 0.0000000e+00 
0.0000000e+00 2.9628759e-03 0.0000000e+00 
0.0000000e+00 3.0576293e-03 0.0000000e+00 
0.0000000e+00 2.4034332e-03 0.0000000e+00 
0.0000000e+00 2.8414403e-03 0.0000000e+00 
0.0000000e+00 3.1599596e-03 0.0000000e+00 
0.0000000e+00 2.6045961e-03 0.0000000e+00 
0.0000000e+00 2.4976165e-03 0.0000000e+00 
0.0000000e+00 3.0323351e-03 0.0000000e+00 
0.0000000e+00 3.1097324e-03 0.0000000e+00 
0.0000000e+00 2.6218009e-03 0.0000000e+00 
0.0000000e+00 2.4485604e-03 0.0000000e+00 
0.0000000e+00 2.8486608e-03 0.0000000e+00 
0.0000000e+00 3.1837693e-03 0.0000000e+00 
0.0000000e+00 2.9819976e-03 0.0000000e+00 
0.0000000e+00 2.5414652e-03 0.0000000e+00 
0.0000000e+00 2.4208291e-03 0.0000000e+00 
0.0000000e+00 2.7421517e-03 0.0000000e+00 
0.0000000e+00 3.1324222e-03 0.0000000e+00 
0.0000000e+00 3.1935398e-03 0.0000000e+00 
0.0000000e+00 2.8857049e-03 0.0000000e+00 
0.0000000e+00 2.4985871e-03 0.0000000e+00 
0.0000000e+00 2.3558580e-03 0.0000000e+00 
0.0000000e+00 2.5535675e-03 0.0000000e+00 
0.0000000e+00 2.5524418e-03 0.0000000e+00 
0.0000000e+00 2.3552459e-03 0.0000000e+00 
0.0000000e+00 2.4991143e-03 0.0000000e+00 
0.0000000e+00 2.8871689e-03 0.0000000e+00 
0.0000000e+00 3.1950113e-03 0.0000000e+00 
0.0000000e+00 3.1308711e-03 0.0000000e+00 
0.0000000e+00 2.7369640e-03 0.0000000e+00 
0.0000000e+00 2.4155118e-03 0.0000000e+00 
0.0000000e+00 2.5406957e-03 0.0000000e+00 
0.0000000e+00 2.9893604e-03 0.0000000e+00 
0.0000000e+00 3.1949466e-03 0.0000000e+00 
0.0000000e+00 2.8506345e-03 0.0000000e+00 
0.0000000e+00 2.4331319e-03 0.0000000e+00 
0.0000000e+00 2.6087449e-03 0.0000000e+00 
0.0000000e+00 3.1217693e-03 0.0000000e+00 
0.0000000e+00 3.0522759e-03 0.0000000e+00 
0.0000000e+00 2.4873125e-03 0.0000000e+00 
0.0000000e+00 2.5762601e-03 0.0000000e+00 
0.0000000e+00 3.1761315e-03 0.0000000e+00 
0.0000000e+00 2.8807479e-03 0.0000000e+00 
0.0000000e+00 2.3727228e-03 0.0000000e+00 
0.0000000e+00 3.0402828e-03 0.0000000e+00 
0.0000000e+00 2.9991793e-03 0.0000000e+00 
0.0000000e+00 2.3521171e-03 0.0000000e+00 
0.0000000e+00 3.2202334e-03 0.0000000e+00 
0.0000000e+00 2.6422034e-03 0.0000000e+00 
0.0000000e+00 2.6078471e-03 0.0000000e+00 
0.0000000e+00 3.1403862e-03 0.0000000e+00 
0.0000000e+00 2.4858911e-03 0.0000000e+00 
0.0000000e+00 3.1246860e-03 0.0000000e+00 
0.0000000e+00 2.6770919e-03 0.0000000e+00 
0.0000000e+00 2.7325954e-03 0.0000000e+00 
0.0000000e+00 3.1602383e-03 0.0000000e+00 
-6.8959956e-08 3.2202187e-03 0.0000000e+00 
-3.0241638e-09 2.0584293e-06 0.0000000e+00 
-2.6503595e-09 1.9780480e-05 0.0000000e+00 
-1.1363673e-07 2.4945552e-03 0.0000000e+00 
6.6022913e-08 2.4429113e-03 0.0000000e+00 
-9.4506959e-08 3.4636566e-03 0.0000000e+00 
3.9450420e-08 3.0264573e-03 0.0000000e+00 
1.8746642e-08 1.0361153e-03 0.0000000e+00 
-1.1504085e-08 2.6781447e-04 0.0000000e+00 
5.3755472e-10 7.8392273e-05 0.0000000e+00 
-2.3737650e-08 2.1777833e-03 0.0000000e+00 
9.4793201e-08 3.5660441e-03 0.0000000e+00 
-3.4481445e-11 5.5087480e-04 0.0000000e+00 
-1.3490162e-08 1.3622531e-03 0.0000000e+00 
-1.7620430e-07 2.2521049e-03 0.0000000e+00 
6.4335026e-09 3.1467192e-05 0.0000000e+00 
-1.7640600e-08 1.1979791e-04 0.0000000e+00 
2.4187854e-09 2.7909596e-03 0.0000000e+00 
-2.3602430e-08 3.5663289e-03 0.0000000e+00 
1.2593348e-08 5.5136252e-04 0.0000000e+00 
1.0279159e-06 2.8697825e-03 0.0000000e+00 
-1.9725950e-09 3.0273348e-03 0.0000000e+00 
-1.4560123e-08 2.6744683e-04 0.0000000e+00 
4.8195012e-08 2.1782520e-03 0.0000000e+00 
9.4982987e-08 3.4643516e-03 0.0000000e+00 
-2.1276831e-09 1.1824623e-05 0.0000000e+00 
-1.8871838e-06 3.1924904e-03 0.0000000e+00 
-4.1532444e-09 6.9076336e-06 0.0000000e+00 
3.6559098e-07 3.2965115e-03 0.0000000e+00 
1.1855911e-10 3.5286307e-06 0.0000000e+00 
3.0386602e-10 1.5712677e-06 0.0000000e+00 
2.8362177e-07 3.2209579e-03 0.0000000e+00 
2.0877176e-06 3.1943265e-03 0.0000000e+00 
1.8054807e-06 3.0571523e-03 0.0000000e+00 
4.9826320e-07 2.6804993e-03 0.0000000e+00 
6.5466503e-07 2.8759842e-03 0.0000000e+00 
-5.9741893e-08 2.5009068e-03 0.0000000e+00 
-9.9985353e-09 2.6822437e-03 0.0000000e+00 
-1.6754511e-08 2.3513192e-03 0.0000000e+00 
-1.1543739e-07 3.0557644e-03 0.0000000e+00 
-1.5759812e-07 2.2535480e-03 0.0000000e+00 
-4.2297685e-08 2.2122383e-03 0.0000000e+00 
-2.2661837e-07 2.2324612e-03 0.0000000e+00 
-3.9002245e-08 2.3091515e-03 0.0000000e+00 
-1.1695935e-07 2.4368446e-03 0.0000000e+00 
-6.2819929e-08 2.6020717e-03 0.0000000e+00 
-2.0786262e-08 2.7872068e-03 0.0000000e+00 
-5.3574688e-08 2.9813829e-03 0.0000000e+00 
8.4330383e-09 3.1642250e-03 0.0000000e+00 
-1.2196791e-08 3.3268228e-03 0.0000000e+00 
3.4926071e-08 3.4604585e-03 0.0000000e+00 
3.6453123e-08 3.5537893e-03 0.0000000e+00 
4.3390436e-08 3.6044633e-03 0.0000000e+00 
6.4374078e-08 3.6089539e-03 0.0000000e+00 
1.3390785e-07 3.5681450e-03 0.0000000e+00 
4.4246743e-08 3.4857928e-03 0.0000000e+00 
-4.5947797e-08 3.3643048e-03 0.0000000e+00 
7.8889499e-09 3.2123863e-03 0.0000000e+00 
2.9449208e-08 3.0322974e-03 0.0000000e+00 
2.7574913e-08 2.8354500e-03 0.0000000e+00 
-7.2564921e-10 2.6228293e-03 0.0000000e+00 
2.8996144e-08 2.4062768e-03 0.0000000e+00 
-7.6468796e-09 2.1851477e-03 0.0000000e+00 
2.4185702e-08 1.9702399e-03 0.0000000e+00 
-1.8162090e-08 1.7593090e-03 0.0000000e+00 
6.1272840e-09 1.5613294e-03 0.0000000e+00 
-4.8853433e-08 1.3728497e-03 0.0000000e+00 
9.9064064e-09 1.1961939e-03 0.0000000e+00 
8.1384343e-08 1.0403012e-03 0.0000000e+00 
8.0820037e-08 8.9388643e-04 0.0000000e+00 
3.2398916e-08 7.6803268e-04 0.0000000e+00 
-3.6891642e-08 6.5454398e-04 0.0000000e+00 
-7.7623383e-09 5.5379636e-04 0.0000000e+00 
-2.3159064e-08 4.6668795e-04 0.0000000e+00 
-9.1228918e-09 3.9022189e-04 0.0000000e+00 
-1.6277452e-08 3.2533475e-04 0.0000000e+00 
-2.1173809e-08 2.6915918e-04 0.0000000e+00 
-2.2227125e-09 2.2217692e-04 0.0000000e+00 
3.9240455e-09 1.8201853e-04 0.0000000e+00 
-4.1872585e-09 1.4884223e-04 0.0000000e+00 
-3.9322590e-09 1.2082542e-04 0.0000000e+00 
8.0637923e-09 9.7946344e-05 0.0000000e+00 
-5.0347904e-09 7.8816556e-05 0.0000000e+00 
-8.9326191e-09 6.3357686e-05 0.0000000e+00 
-8.2536217e-10 5.0554201e-05 0.0000000e+00 
-6.7192873e-09 4.0304545e-05 0.0000000e+00 
-7.2077327e-10 3.1981202e-05 0.0000000e+00 
-1.9406454e-09 2.5220686e-05 0.0000000e+00 
-6.7008336e-11 1.9891226e-05 0.0000000e+00 
-1.6214217e-09 1.5460360e-05 0.0000000e+00 
-2.7376951e-10 1.2055004e-05 0.0000000e+00 
2.6871458e-09 9.2177397e-06 0.0000000e+00 
2.4934921e-09 6.9713428e-06 0.0000000e+00 
1.3795611e-08 2.2338752e-03 0.0000000e+00 
-6.8213711e-07 2.8727492e-03 0.0000000e+00 
-3.4477253e-08 3.1612173e-03 0.0000000e+00 
-6.4447889e-08 7.6934643e-04 0.0000000e+00 
-1.1021878e-06 3.1973559e-03 0.0000000e+00 
1.7361243e-08 3.6039527e-03 0.0000000e+00 
3.5980733e-08 3.3661381e-03 0.0000000e+00 
-5.8956093e-09 5.0692692e-05 0.0000000e+00 
4.8458638e-08 2.6258547e-03 0.0000000e+00 
4.8889436e-08 1.7576352e-03 0.0000000e+00 
-1.7711766e-08 3.9126331e-04 0.0000000e+00 
1.4937418e-08 1.8254343e-04 0.0000000e+00 
-3.0064331e-09 1.9829185e-05 0.0000000e+00 
-3.3999163e-09 4.0193350e-05 0.0000000e+00 
-2.3144311e-09 1.4833953e-04 0.0000000e+00 
-3.1550847e-08 1.5559422e-03 0.0000000e+00 
-1.6212073e-07 2.3115408e-03 0.0000000e+00 
3.1001743e-09 5.0858102e-06 0.0000000e+00 
7.6414253e-10 6.9608318e-06 0.0000000e+00 
-2.5337208e-09 3.5953583e-06 0.0000000e+00 
1.0908987e-07 3.2871491e-03 0.0000000e+00 
3.2672929e-07 3.2993865e-03 0.0000000e+00 
-2.5732638e-07 3.2995038e-03 0.0000000e+00 
-1.3845620e-09 9.2305891e-06 0.0000000e+00 
5.8164812e-10 5.3086560e-06 0.0000000e+00 
1.7224264e-09 3.2423678e-04 0.0000000e+00 
5.8759984e-09 6.5294706e-04 0.0000000e+00 
-1.7896562e-08 2.4020891e-03 0.0000000e+00 
3.3559736e-08 3.2095979e-03 0.0000000e+00 
1.4294677e-07 3.6088484e-03 0.0000000e+00 
1.0370177e-07 3.3298852e-03 0.0000000e+00 
1.2870904e-06 3.2061771e-03 0.0000000e+00 
1.2887913e-10 1.1988399e-05 0.0000000e+00 
-5.1806487e-10 1.5532471e-05 0.0000000e+00 
-3.9645114e-09 6.8521954e-06 0.0000000e+00 
1.2755831e-09 1.1958427e-05 0.0000000e+00 
1.2909574e-07 2.4980111e-03 0.0000000e+00 
-7.8791652e-07 2.8669008e-03 0.0000000e+00 
2.9920937e-09 1.9557221e-05 0.0000000e+00 
-9.2583097e-09 3.1953681e-05 0.0000000e+00 
4.0392703e-09 3.8029843e-06 0.0000000e+00 
3.2645406e-10 6.3076084e-05 0.0000000e+00 
-6.3340120e-09 9.7582059e-05 0.0000000e+00 
-9.6499209e-09 1.2026450e-04 0.0000000e+00 
-7.7657738e-09 7.8485689e-05 0.0000000e+00 
-6.3388521e-09 6.2479710e-05 0.0000000e+00 
1.0490337e-08 1.2023610e-04 0.0000000e+00 
4.5646352e-08 1.0362355e-03 0.0000000e+00 
1.4354074e-08 1.1891564e-03 0.0000000e+00 
4.3614630e-08 7.6543813e-04 0.0000000e+00 
-2.5489944e-08 2.6173771e-03 0.0000000e+00 
-3.1177454e-08 1.9662697e-03 0.0000000e+00 
3.1625134e-09 1.7523282e-03 0.0000000e+00 
2.9196165e-08 3.1678383e-03 0.0000000e+00 
3.9371479e-08 3.5555577e-03 0.0000000e+00 
6.7847954e-09 3.6055150e-03 0.0000000e+00 
-4.6616741e-08 3.4844894e-03 0.0000000e+00 
-1.6920632e-08 3.3597867e-03 0.0000000e+00 
-2.4620729e-08 2.8317978e-03 0.0000000e+00 
1.4074528e-08 3.3604763e-03 0.0000000e+00 
7.3977681e-08 2.2523007e-03 0.0000000e+00 
1.9756953e-07 2.3483657e-03 0.0000000e+00 
8.3378346e-08 2.2340924e-03 0.0000000e+00 
-1.8344515e-08 2.7899656e-03 0.0000000e+00 
2.2396431e-08 2.6075935e-03 0.0000000e+00 
-1.1621560e-07 3.1660912e-03 0.0000000e+00 
-8.8645029e-09 7.6553662e-04 0.0000000e+00 
5.5829114e-10 4.6495663e-04 0.0000000e+00 
5.9325553e-09 3.8839955e-04 0.0000000e+00 
-7.5772908e-09 2.2143079e-04 0.0000000e+00 
-2.5268184e-08 2.4403534e-03 0.0000000e+00 
-4.7029662e-08 2.6028024e-03 0.0000000e+00 
2.2562883e-08 1.7487690e-03 0.0000000e+00 
-4.6183594e-08 3.6052836e-03 0.0000000e+00 
8.4432988e-10 3.1596293e-05 0.0000000e+00 
9.9967625e-09 5.0250270e-05 0.0000000e+00 
-6.5550183e-09 3.8809315e-04 0.0000000e+00 
6.4483764e-08 2.6166753e-03 0.0000000e+00 
-3.4596354e-08 1.8111595e-04 0.0000000e+00 
-8.7874321e-09 2.6990304e-04 0.0000000e+00 
3.5460111e-08 8.9566450e-04 0.0000000e+00 
-1.0925039e-08 1.1970517e-03 0.0000000e+00 
-3.8427569e-08 5.5531139e-04 0.0000000e+00 
7.4026921e-08 2.1878087e-03 0.0000000e+00 
4.0597655e-08 3.0349242e-03 0.0000000e+00 
2.8254032e-08 3.5689361e-03 0.0000000e+00 
5.9598082e-09 3.4584641e-03 0.0000000e+00 
-1.2936904e-07 2.2333139e-03 0.0000000e+00 
-2.5115028e-07 2.2125663e-03 0.0000000e+00 
-2.0730424e-07 2.3521599e-03 0.0000000e+00 
3.9215586e-09 1.8108574e-04 0.0000000e+00 
1.7644950e-08 2.9814730e-03 0.0000000e+00 
-3.9316383e-08 1.3657387e-03 0.0000000e+00 
2.2672702e-06 3.2866676e-03 0.0000000e+00 
-8.3396981e-07 3.2271172e-03 0.0000000e+00 
4.4597366e-09 2.5195381e-05 0.0000000e+00 
-1.8614980e-06 3.2844751e-03 0.0000000e+00 
-4.8229242e-07 2.6786011e-03 0.0000000e+00 
-2.0843603e-07 3.2967504e-03 0.0000000e+00 
-5.4689400e-09 3.4478714e-06 0.0000000e+00 
-3.0706627e-08 2.3116700e-03 0.0000000e+00 
-1.7095421e-06 3.0526295e-03 0.0000000e+00 
-1.2985242e-09 1.8755951e-06 0.0000000e+00 
-7.6707583e-09 2.4961981e-03 0.0000000e+00 
3.2266894e-07 2.2525121e-03 0.0000000e+00 
2.0818358e-07 2.2120697e-03 0.0000000e+00 
-1.0996665e-07 2.4413655e-03 0.0000000e+00 
1.3136950e-09 1.5552024e-03 0.0000000e+00 
-3.1353196e-08 2.7931596e-03 0.0000000e+00 
-9.1966271e-08 2.9773624e-03 0.0000000e+00 
-4.7602150e-08 3.3262654e-03 0.0000000e+00 
-7.5129158e-08 3.5538212e-03 0.0000000e+00 
-1.5790560e-08 3.6089998e-03 0.0000000e+00 
-8.0007547e-09 3.4861029e-03 0.0000000e+00 
-1.6125393e-09 5.0265531e-05 0.0000000e+00 
5.1176752e-08 3.2128501e-03 0.0000000e+00 
5.5631361e-08 2.8360391e-03 0.0000000e+00 
8.2387047e-08 2.4059331e-03 0.0000000e+00 
1.4495357e-08 1.0392105e-03 0.0000000e+00 
7.8999065e-08 1.9652208e-03 0.0000000e+00 
1.9999256e-08 1.3691961e-03 0.0000000e+00 
5.3786223e-08 9.0004352e-04 0.0000000e+00 
-1.8542433e-08 6.5557763e-04 0.0000000e+00 
-8.2720115e-09 4.6728447e-04 0.0000000e+00 
-1.9243604e-08 3.2571834e-04 0.0000000e+00 
-5.3158549e-09 9.7472010e-05 0.0000000e+00 
-1.1755003e-09 2.2233393e-04 0.0000000e+00 
-2.5059730e-08 1.4851718e-04 0.0000000e+00 
-3.8475956e-09 4.9715932e-06 0.0000000e+00 
-6.0250838e-10 9.0494341e-06 0.0000000e+00 
-3.3758121e-09 1.5298783e-05 0.0000000e+00 
-2.2109099e-09 3.9984901e-05 0.0000000e+00 
-3.0486804e-09 7.8188197e-05 0.0000000e+00 
-5.9267224e-10 2.5028270e-05 0.0000000e+00 
-4.3750479e-09 1.6112458e-06 0.0000000e+00 
6.8089079e-10 1.4616521e-06 0.0000000e+00 
-5.9637472e-07 3.1493891e-03 0.0000000e+00 
1.5567758e-06 3.1530808e-03 0.0000000e+00 
-1.9658901e-06 3.1709319e-03 0.0000000e+00 
1.0750773e-06 3.1664229e-03 0.0000000e+00 
7.0495672e-09 1.4773195e-06 0.0000000e+00 
-2.6415203e-09 1.5614015e-06 0.0000000e+00 
-6.5718404e-09 3.0657234e-06 0.0000000e+00 
-1.8378766e-04 2.9341409e-03 0.0000000e+00 
9.5176759e-08 2.5933380e-03 0.0000000e+00 
2.6470281e-05 3.1291055e-03 0.0000000e+00 
7.8848871e-07 3.0744562e-03 0.0000000e+00 
1.2183999e-06 3.1487052e-03 0.0000000e+00 
5.9204518e-07 2.5434701e-03 0.0000000e+00 
-1.5646500e-06 3.2469830e-03 0.0000000e+00 
-2.2922099e-07 2.5995329e-03 0.0000000e+00 
2.8204129e-06 2.4268855e-03 0.0000000e+00 
4.1217563e-06 3.1750766e-03 0.0000000e+00 
-2.7623241e-07 2.8826101e-03 0.0000000e+00 
-9.9307454e-07 2.7546454e-03 0.0000000e+00 
6.3215148e-06 2.2190185e-03 0.0000000e+00 
6.6130218e-07 2.6633085e-03 0.0000000e+00 
-2.7548785e-07 3.2173553e-03 0.0000000e+00 
-1.2955715e-05 2.3644581e-03 0.0000000e+00 
-4.2190106e-05 2.5221575e-03 0.0000000e+00 
-1.8634922e-06 2.7600797e-03 0.0000000e+00 
4.3712259e-07 2.5027788e-03 0.0000000e+00 
-3.3050924e-06 3.1393743e-03 0.0000000e+00 
-1.2712190e-06 2.7564289e-03 0.0000000e+00 
4.1861108e-07 3.0794225e-03 0.0000000e+00 
3.9572529e-07 2.6788923e-03 0.0000000e+00 
5.7361666e-07 2.5372566e-03 0.0000000e+00 
-1.6087286e-06 3.1766011e-03 0.0000000e+00 
-1.4592197e-05 2.6795799e-03 0.0000000e+00 
8.1438455e-05 3.0996283e-03 0.0000000e+00 
3.9804249e-07 2.3840724e-03 0.0000000e+00 
1.6049393e-08 2.4131553e-03 0.0000000e+00 
-2.1237844e-05 2.4355478e-03 0.0000000e+00 
-7.9963921e-04 2.4301298e-03 0.0000000e+00 
1.0285205e-06 2.5901939e-03 0.0000000e+00 
2.3959942e-08 2.3830156e-03 0.0000000e+00 
6.3657217e-07 2.4937678e-03 0.0000000e+00 
2.9744942e-07 2.8836164e-03 0.0000000e+00 
3.5397053e-07 2.6724548e-03 0.0000000e+00 
9.2879112e-08 3.0688378e-03 0.0000000e+00 
1.8166807e-07 2.8784138e-03 0.0000000e+00 
6.1231259e-07 3.1918236e-03 0.0000000e+00 
8.9204818e-08 2.4931259e-03 0.0000000e+00 
-2.3278318e-07 3.2176115e-03 0.0000000e+00 
7.2731393e-07 3.1334129e-03 0.0000000e+00 
3.1278279e-07 2.9625238e-03 0.0000000e+00 
8.3882344e-07 2.7479688e-03 0.0000000e+00 
3.9139533e-07 2.5439993e-03 0.0000000e+00 
-7.7353866e-07 2.4217824e-03 0.0000000e+00 
-1.5026185e-06 2.4134568e-03 0.0000000e+00 
-2.1490453e-06 2.5347306e-03 0.0000000e+00 
-2.1252449e-06 2.7457515e-03 0.0000000e+00 
-1.2105750e-06 2.9815794e-03 0.0000000e+00 
-6.8140071e-07 3.1497392e-03 0.0000000e+00 
1.2242729e-06 3.1878781e-03 0.0000000e+00 
1.8862603e-06 3.0793282e-03 0.0000000e+00 
2.9553510e-06 2.8555014e-03 0.0000000e+00 
2.4281437e-06 2.6061016e-03 0.0000000e+00 
1.2636361e-06 2.4393366e-03 0.0000000e+00 
7.0779072e-07 2.4371429e-03 0.0000000e+00 
-2.8788900e-06 2.6121116e-03 0.0000000e+00 
-4.2444913e-06 2.8782592e-03 0.0000000e+00 
-5.8317137e-06 3.1107552e-03 0.0000000e+00 
-5.0049339e-06 3.1881058e-03 0.0000000e+00 
3.8075182e-06 3.0512095e-03 0.0000000e+00 
2.9521018e-06 2.7664783e-03 0.0000000e+00 
7.0599945e-06 2.5013287e-03 0.0000000e+00 
1.2749914e-06 2.4144456e-03 0.0000000e+00 
-6.8977652e-06 2.5840891e-03 0.0000000e+00 
1.2168226e-06 2.9084357e-03 0.0000000e+00 
-3.4030847e-06 3.1606557e-03 0.0000000e+00 