# vtk DataFile Version 4.0
vtk output
ASCII
DATASET UNSTRUCTURED_GRID
POINTS 628 float
0.0000000e+00 0.0000000e+00 0.0000000e+00 
1.0000000e+00 0.0000000e+00 0.0000000e+00 
1.0000000e+00 1.0000000e+01 0.0000000e+00 
0.0000000e+00 1.0000000e+01 0.0000000e+00 
0.0000000e+00 5.0000000e+00 0.0000000e+00 
1.0000000e+00 5.0000000e+00 0.0000000e+00 
1.4285715e-01 0.0000000e+00 0.0000000e+00 
2.8571430e-01 0.0000000e+00 0.0000000e+00 
4.2857143e-01 0.0000000e+00 0.0000000e+00 
5.7142860e-01 0.0000000e+00 0.0000000e+00 
7.1428573e-01 0.0000000e+00 0.0000000e+00 
8.5714287e-01 0.0000000e+00 0.0000000e+00 
8.5714287e-01 1.0000000e+01 0.0000000e+00 
7.1428573e-01 1.0000000e+01 0.0000000e+00 
5.7142860e-01 1.0000000e+01 0.0000000e+00 
4.2857143e-01 1.0000000e+01 0.0000000e+00 
2.8571430e-01 1.0000000e+01 0.0000000e+00 
1.4285715e-01 1.0000000e+01 0.0000000e+00 
1.4285715e-01 5.0000000e+00 0.0000000e+00 
2.8571430e-01 5.0000000e+00 0.0000000e+00 
4.2857143e-01 5.0000000e+00 0.0000000e+00 
5.7142860e-01 5.0000000e+00 0.0000000e+00 
7.1428573e-01 5.0000000e+00 0.0000000e+00 
8.5714287e-01 5.0000000e+00 0.0000000e+00 
0.0000000e+00 4.8529410e+00 0.0000000e+00 
0.0000000e+00 4.7058825e+00 0.0000000e+00 
0.0000000e+00 4.5588236e+00 0.0000000e+00 
0.0000000e+00 4.4117646e+00 0.0000000e+00 
0.0000000e+00 4.2647057e+00 0.0000000e+00 
0.0000000e+00 4.1176472e+00 0.0000000e+00 
0.0000000e+00 3.9705882e+00 0.0000000e+00 
0.0000000e+00 3.8235295e+00 0.0000000e+00 
0.0000000e+00 3.6764705e+00 0.0000000e+00 
0.0000000e+00 3.5294118e+00 0.0000000e+00 
0.0000000e+00 3.3823528e+00 0.0000000e+00 
0.0000000e+00 3.2352941e+00 0.0000000e+00 
0.0000000e+00 3.0882354e+00 0.0000000e+00 
0.0000000e+00 2.9411764e+00 0.0000000e+00 
0.0000000e+00 2.7941177e+00 0.0000000e+00 
0.0000000e+00 2.6470587e+00 0.0000000e+00 
0.0000000e+00 2.5000000e+00 0.0000000e+00 
0.0000000e+00 2.3529413e+00 0.0000000e+00 
0.0000000e+00 2.2058823e+00 0.0000000e+00 
0.0000000e+00 2.0588236e+00 0.0000000e+00 
0.0000000e+00 1.9117647e+00 0.0000000e+00 
0.0000000e+00 1.7647059e+00 0.0000000e+00 
0.0000000e+00 1.6176471e+00 0.0000000e+00 
0.0000000e+00 1.4705882e+00 0.0000000e+00 
0.0000000e+00 1.3235294e+00 0.0000000e+00 
0.0000000e+00 1.1764706e+00 0.0000000e+00 
0.0000000e+00 1.0294118e+00 0.0000000e+00 
0.0000000e+00 8.8235295e-01 0.0000000e+00 
0.0000000e+00 7.3529410e-01 0.0000000e+00 
0.0000000e+00 5.8823532e-01 0.0000000e+00 
0.0000000e+00 4.4117647e-01 0.0000000e+00 
0.0000000e+00 2.9411766e-01 0.0000000e+00 
0.0000000e+00 1.4705883e-01 0.0000000e+00 
1.0000000e+00 1.4705883e-01 0.0000000e+00 
1.0000000e+00 2.9411766e-01 0.0000000e+00 
1.0000000e+00 4.4117647e-01 0.0000000e+00 
1.0000000e+00 5.8823532e-01 0.0000000e+00 
1.0000000e+00 7.3529410e-01 0.0000000e+00 
1.0000000e+00 8.8235295e-01 0.0000000e+00 
1.0000000e+00 1.0294118e+00 0.0000000e+00 
1.0000000e+00 1.1764706e+00 0.0000000e+00 
1.0000000e+00 1.3235294e+00 0.0000000e+00 
1.0000000e+00 1.4705882e+00 0.0000000e+00 
1.0000000e+00 1.6176471e+00 0.0000000e+00 
1.0000000e+00 1.7647059e+00 0.0000000e+00 
1.0000000e+00 1.9117647e+00 0.0000000e+00 
1.0000000e+00 2.0588236e+00 0.0000000e+00 
1.0000000e+00 2.2058823e+00 0.0000000e+00 
1.0000000e+00 2.3529413e+00 0.0000000e+00 
1.0000000e+00 2.5000000e+00 0.0000000e+00 
1.0000000e+00 2.6470587e+00 0.0000000e+00 
1.0000000e+00 2.7941177e+00 0.0000000e+00 
1.0000000e+00 2.9411764e+00 0.0000000e+00 
1.0000000e+00 3.0882354e+00 0.0000000e+00 
1.0000000e+00 3.2352941e+00 0.0000000e+00 
1.0000000e+00 3.3823528e+00 0.0000000e+00 
1.0000000e+00 3.5294118e+00 0.0000000e+00 
1.0000000e+00 3.6764705e+00 0.0000000e+00 
1.0000000e+00 3.8235295e+00 0.0000000e+00 
1.0000000e+00 3.9705882e+00 0.0000000e+00 
1.0000000e+00 4.1176472e+00 0.0000000e+00 
1.0000000e+00 4.2647057e+00 0.0000000e+00 
1.0000000e+00 4.4117646e+00 0.0000000e+00 
1.0000000e+00 4.5588236e+00 0.0000000e+00 
1.0000000e+00 4.7058825e+00 0.0000000e+00 
1.0000000e+00 4.8529410e+00 0.0000000e+00 
0.0000000e+00 9.8529415e+00 0.0000000e+00 
0.0000000e+00 9.7058821e+00 0.0000000e+00 
0.0000000e+00 9.5588236e+00 0.0000000e+00 
0.0000000e+00 9.4117651e+00 0.0000000e+00 
0.0000000e+00 9.2647057e+00 0.0000000e+00 
0.0000000e+00 9.1176472e+00 0.0000000e+00 
0.0000000e+00 8.9705887e+00 0.0000000e+00 
0.0000000e+00 8.8235292e+00 0.0000000e+00 
0.0000000e+00 8.6764708e+00 0.0000000e+00 
0.0000000e+00 8.5294113e+00 0.0000000e+00 
0.0000000e+00 8.3823528e+00 0.0000000e+00 
0.0000000e+00 8.2352943e+00 0.0000000e+00 
0.0000000e+00 8.0882349e+00 0.0000000e+00 
0.0000000e+00 7.9411764e+00 0.0000000e+00 
0.0000000e+00 7.7941175e+00 0.0000000e+00 
0.0000000e+00 7.6470590e+00 0.0000000e+00 
0.0000000e+00 7.5000000e+00 0.0000000e+00 
0.0000000e+00 7.3529410e+00 0.0000000e+00 
0.0000000e+00 7.2058825e+00 0.0000000e+00 
0.0000000e+00 7.0588236e+00 0.0000000e+00 
0.0000000e+00 6.9117646e+00 0.0000000e+00 
0.0000000e+00 6.7647057e+00 0.0000000e+00 
0.0000000e+00 6.6176472e+00 0.0000000e+00 
0.0000000e+00 6.4705882e+00 0.0000000e+00 
0.0000000e+00 6.3235292e+00 0.0000000e+00 
0.0000000e+00 6.1764708e+00 0.0000000e+00 
0.0000000e+00 6.0294118e+00 0.0000000e+00 
0.0000000e+00 5.8823528e+00 0.0000000e+00 
0.0000000e+00 5.7352943e+00 0.0000000e+00 
0.0000000e+00 5.5882354e+00 0.0000000e+00 
0.0000000e+00 5.4411764e+00 0.0000000e+00 
0.0000000e+00 5.2941175e+00 0.0000000e+00 
0.0000000e+00 5.1470590e+00 0.0000000e+00 
1.0000000e+00 5.1470590e+00 0.0000000e+00 
1.0000000e+00 5.2941175e+00 0.0000000e+00 
1.0000000e+00 5.4411764e+00 0.0000000e+00 
1.0000000e+00 5.5882354e+00 0.0000000e+00 
1.0000000e+00 5.7352943e+00 0.0000000e+00 
1.0000000e+00 5.8823528e+00 0.0000000e+00 
1.0000000e+00 6.0294118e+00 0.0000000e+00 
1.0000000e+00 6.1764708e+00 0.0000000e+00 
1.0000000e+00 6.3235292e+00 0.0000000e+00 
1.0000000e+00 6.4705882e+00 0.0000000e+00 
1.0000000e+00 6.6176472e+00 0.0000000e+00 
1.0000000e+00 6.7647057e+00 0.0000000e+00 
1.0000000e+00 6.9117646e+00 0.0000000e+00 
1.0000000e+00 7.0588236e+00 0.0000000e+00 
1.0000000e+00 7.2058825e+00 0.0000000e+00 
1.0000000e+00 7.3529410e+00 0.0000000e+00 
1.0000000e+00 7.5000000e+00 0.0000000e+00 
1.0000000e+00 7.6470590e+00 0.0000000e+00 
1.0000000e+00 7.7941175e+00 0.0000000e+00 
1.0000000e+00 7.9411764e+00 0.0000000e+00 
1.0000000e+00 8.0882349e+00 0.0000000e+00 
1.0000000e+00 8.2352943e+00 0.0000000e+00 
1.0000000e+00 8.3823528e+00 0.0000000e+00 
1.0000000e+00 8.5294113e+00 0.0000000e+00 
1.0000000e+00 8.6764708e+00 0.0000000e+00 
1.0000000e+00 8.8235292e+00 0.0000000e+00 
1.0000000e+00 8.9705887e+00 0.0000000e+00 
1.0000000e+00 9.1176472e+00 0.0000000e+00 
1.0000000e+00 9.2647057e+00 0.0000000e+00 
1.0000000e+00 9.4117651e+00 0.0000000e+00 
1.0000000e+00 9.5588236e+00 0.0000000e+00 
1.0000000e+00 9.7058821e+00 0.0000000e+00 
1.0000000e+00 9.8529415e+00 0.0000000e+00 
5.0212586e-01 4.8703580e+00 0.0000000e+00 
5.1041055e-01 1.3732977e-01 0.0000000e+00 
1.3055173e-01 6.6499180e-01 0.0000000e+00 
8.7327349e-01 4.3372407e+00 0.0000000e+00 
8.7331611e-01 3.8958969e+00 0.0000000e+00 
8.7347627e-01 3.4562511e+00 0.0000000e+00 
8.7357801e-01 2.8680170e+00 0.0000000e+00 
1.2843554e-01 2.1327813e+00 0.0000000e+00 
1.2975387e-01 1.5449892e+00 0.0000000e+00 
1.3308091e-01 1.1039938e+00 0.0000000e+00 
1.2937543e-01 2.5737903e+00 0.0000000e+00 
1.2735668e-01 3.1617646e+00 0.0000000e+00 
8.7375563e-01 1.8386052e+00 0.0000000e+00 
8.7355548e-01 2.2778318e+00 0.0000000e+00 
1.2753446e-01 4.1915216e+00 0.0000000e+00 
8.7915283e-01 8.0759794e-01 0.0000000e+00 
8.8115031e-01 1.2498868e+00 0.0000000e+00 
1.2781374e-01 3.7501886e+00 0.0000000e+00 
8.7352717e-01 3.1621344e+00 0.0000000e+00 
1.2961270e-01 1.8389882e+00 0.0000000e+00 
1.2731366e-01 4.4857054e+00 0.0000000e+00 
1.2885660e-01 2.8684020e+00 0.0000000e+00 
8.7380636e-01 1.5444875e+00 0.0000000e+00 
8.7362880e-01 2.5738993e+00 0.0000000e+00 
1.2735668e-01 3.4558823e+00 0.0000000e+00 
8.7264335e-01 5.1470590e-01 0.0000000e+00 
8.7611687e-01 4.6317782e+00 0.0000000e+00 
1.3446054e-01 3.7013325e-01 0.0000000e+00 
1.2296320e-01 4.7760825e+00 0.0000000e+00 
8.8210768e-01 2.2118840e-01 0.0000000e+00 
2.1798968e-01 1.0548568e-01 0.0000000e+00 
7.7656764e-01 4.8704844e+00 0.0000000e+00 
1.2667844e-01 4.6331582e+00 0.0000000e+00 
2.5353336e-01 4.5619426e+00 0.0000000e+00 
2.5451174e-01 4.4132285e+00 0.0000000e+00 
3.8040194e-01 4.4881525e+00 0.0000000e+00 
3.8161713e-01 4.3403850e+00 0.0000000e+00 
5.0654775e-01 4.4141955e+00 0.0000000e+00 
5.0629890e-01 4.2659345e+00 0.0000000e+00 
5.0658631e-01 4.5616083e+00 0.0000000e+00 
3.8184282e-01 4.1932206e+00 0.0000000e+00 
5.0831819e-01 4.1188259e+00 0.0000000e+00 
3.8249290e-01 4.0462651e+00 0.0000000e+00 
5.0818664e-01 3.9732957e+00 0.0000000e+00 
3.8265404e-01 3.8991868e+00 0.0000000e+00 
5.0769192e-01 3.8249388e+00 0.0000000e+00 
3.8307732e-01 3.7517705e+00 0.0000000e+00 
5.0990808e-01 3.6776419e+00 0.0000000e+00 
3.8416636e-01 3.6049941e+00 0.0000000e+00 
5.1177651e-01 3.5322094e+00 0.0000000e+00 
3.8460994e-01 3.4584429e+00 0.0000000e+00 
5.1256055e-01 3.3855147e+00 0.0000000e+00 
3.8520575e-01 3.3115354e+00 0.0000000e+00 
5.1318693e-01 3.2385471e+00 0.0000000e+00 
3.8561273e-01 3.1645203e+00 0.0000000e+00 
5.1375473e-01 3.0915136e+00 0.0000000e+00 
3.8616878e-01 3.0174749e+00 0.0000000e+00 
5.1433694e-01 2.9444630e+00 0.0000000e+00 
3.8656160e-01 2.8704205e+00 0.0000000e+00 
5.1489413e-01 2.7974076e+00 0.0000000e+00 
3.8711417e-01 2.7233641e+00 0.0000000e+00 
5.1547360e-01 2.6503508e+00 0.0000000e+00 
3.8750717e-01 2.5763063e+00 0.0000000e+00 
5.1603019e-01 2.5032935e+00 0.0000000e+00 
3.8805979e-01 2.4292488e+00 0.0000000e+00 
5.1422137e-01 2.3562264e+00 0.0000000e+00 
3.8765049e-01 2.2821872e+00 0.0000000e+00 
5.1307547e-01 2.2071202e+00 0.0000000e+00 
3.8778570e-01 2.1347876e+00 0.0000000e+00 
5.1568961e-01 2.0596735e+00 0.0000000e+00 
3.9013749e-01 1.9876142e+00 0.0000000e+00 
5.1808232e-01 1.9145784e+00 0.0000000e+00 
3.8994926e-01 1.8408588e+00 0.0000000e+00 
5.1884413e-01 1.7678982e+00 0.0000000e+00 
[...]
POINT_DATA 628
FIELD FieldData 2
VELOCITY 3 628  float
0.0000000e+00 0.0000000e+00 0.0000000e+00 
0.0000000e+00 0.0000000e+00 0.0000000e+00 
0.0000000e+00 -2.6663521e-03 0.0000000e+00 
0.0000000e+00 -2.3921281e-03 0.0000000e+00 
0.0000000e+00 -1.5665997e-04 0.0000000e+00 
0.0000000e+00 -1.5388556e-04 0.0000000e+00 
0.0000000e+00 0.0000000e+00 0.0000000e+00 
0.0000000e+00 0.0000000e+00 0.0000000e+00 
0.0000000e+00 0.0000000e+00 0.0000000e+00 
0.0000000e+00 0.0000000e+00 0.0000000e+00 
0.0000000e+00 0.0000000e+00 0.0000000e+00 
0.0000000e+00 0.0000000e+00 0.0000000e+00 
1.1252276e-04 -2.9496539e-03 0.0000000e+00 
-9.6534648e-05 -2.7309489e-03 0.0000000e+00 
7.7946479e-06 -2.6673172e-03 0.0000000e+00 
-1.0986410e-05 -2.7446121e-03 0.0000000e+00 
1.4803474e-04 -2.8054866e-03 0.0000000e+00 
-1.0410474e-04 -2.5427639e-03 0.0000000e+00 
-2.1592463e-05 -1.3413158e-04 0.0000000e+00 
-1.3545076e-05 -1.6883870e-04 0.0000000e+00 
2.2512721e-07 -1.0978091e-04 0.0000000e+00 
2.3467632e-05 -1.2562619e-04 0.0000000e+00 
-1.2285672e-05 -1.6309592e-04 0.0000000e+00 
1.9235751e-05 -1.1227834e-04 0.0000000e+00 
0.0000000e+00 -9.1659007e-05 0.0000000e+00 
0.0000000e+00 4.2649594e-04 0.0000000e+00 
0.0000000e+00 6.2237511e-04 0.0000000e+00 
0.0000000e+00 9.3748770e-04 0.0000000e+00 
0.0000000e+00 8.8865805e-04 0.0000000e+00 
0.0000000e+00 7.3526136e-04 0.0000000e+00 
0.0000000e+00 8.1996649e-04 0.0000000e+00 
0.0000000e+00 4.7564725e-04 0.0000000e+00 
0.0000000e+00 1.8921004e-04 0.0000000e+00 
0.0000000e+00 -1.9670546e-05 0.0000000e+00 
0.0000000e+00 -2.1135235e-04 0.0000000e+00 
0.0000000e+00 9.4800071e-06 0.0000000e+00 
0.0000000e+00 -1.4769514e-04 0.0000000e+00 
0.0000000e+00 -3.9264822e-04 0.0000000e+00 
0.0000000e+00 -2.3990146e-04 0.0000000e+00 
0.0000000e+00 -2.9872142e-04 0.0000000e+00 
0.0000000e+00 -4.2171791e-04 0.0000000e+00 
0.0000000e+00 -4.1104323e-04 0.0000000e+00 
0.0000000e+00 -5.0264405e-04 0.0000000e+00 
0.0000000e+00 -2.2638477e-04 0.0000000e+00 
0.0000000e+00 2.0203659e-04 0.0000000e+00 
0.0000000e+00 1.7713146e-04 0.0000000e+00 
0.0000000e+00 3.3306138e-04 0.0000000e+00 
0.0000000e+00 7.8266038e-04 0.0000000e+00 
0.0000000e+00 6.7631417e-04 0.0000000e+00 
0.0000000e+00 2.5868960e-04 0.0000000e+00 
0.0000000e+00 2.0001821e-04 0.0000000e+00 
0.0000000e+00 3.4928285e-05 0.0000000e+00 
0.0000000e+00 -4.6738185e-04 0.0000000e+00 
0.0000000e+00 -6.8369915e-04 0.0000000e+00 
0.0000000e+00 -5.4464495e-04 0.0000000e+00 
0.0000000e+00 -4.9363973e-04 0.0000000e+00 
0.0000000e+00 -4.1249976e-04 0.0000000e+00 
0.0000000e+00 -4.0185655e-04 0.0000000e+00 
0.0000000e+00 -4.9078767e-04 0.0000000e+00 
0.0000000e+00 -5.4783566e-04 0.0000000e+00 
0.0000000e+00 -6.7565904e-04 0.0000000e+00 
0.0000000e+00 -4.6368729e-04 0.0000000e+00 
0.0000000e+00 1.0224947e-05 0.0000000e+00 
0.0000000e+00 1.9468086e-04 0.0000000e+00 
0.0000000e+00 2.8667779e-04 0.0000000e+00 
0.0000000e+00 6.7658763e-04 0.0000000e+00 
0.0000000e+00 7.5963407e-04 0.0000000e+00 
0.0000000e+00 3.4861409e-04 0.0000000e+00 
0.0000000e+00 2.0230265e-04 0.0000000e+00 
0.0000000e+00 1.8586498e-04 0.0000000e+00 
0.0000000e+00 -2.2960454e-04 0.0000000e+00 
0.0000000e+00 -4.7527390e-04 0.0000000e+00 
0.0000000e+00 -4.2073661e-04 0.0000000e+00 
0.0000000e+00 -4.4860164e-04 0.0000000e+00 
0.0000000e+00 -2.8577520e-04 0.0000000e+00 
0.0000000e+00 -2.4850960e-04 0.0000000e+00 
0.0000000e+00 -3.9251021e-04 0.0000000e+00 
0.0000000e+00 -1.2525110e-04 0.0000000e+00 
0.0000000e+00 -2.0487423e-05 0.0000000e+00 
0.0000000e+00 -2.4387245e-04 0.0000000e+00 
0.0000000e+00 -1.4589793e-06 0.0000000e+00 
0.0000000e+00 1.7628855e-04 0.0000000e+00 
0.0000000e+00 4.8877130e-04 0.0000000e+00 
0.0000000e+00 8.5412472e-04 0.0000000e+00 
0.0000000e+00 7.1719958e-04 0.0000000e+00 
0.0000000e+00 9.1632659e-04 0.0000000e+00 
0.0000000e+00 9.4156933e-04 0.0000000e+00 
0.0000000e+00 6.0141273e-04 0.0000000e+00 
0.0000000e+00 4.5534640e-04 0.0000000e+00 
0.0000000e+00 -1.2690514e-04 0.0000000e+00 
0.0000000e+00 -2.8627880e-03 0.0000000e+00 
0.0000000e+00 -2.8410414e-03 0.0000000e+00 
0.0000000e+00 -2.8366074e-03 0.0000000e+00 
0.0000000e+00 -2.9693348e-03 0.0000000e+00 
0.0000000e+00 -2.7566953e-03 0.0000000e+00 
0.0000000e+00 -2.7183080e-03 0.0000000e+00 
0.0000000e+00 -2.7396253e-03 0.0000000e+00 
0.0000000e+00 -2.7635854e-03 0.0000000e+00 
0.0000000e+00 -2.7391561e-03 0.0000000e+00 
0.0000000e+00 -2.9046899e-03 0.0000000e+00 
0.0000000e+00 -2.6873280e-03 0.0000000e+00 
0.0000000e+00 -2.8857696e-03 0.0000000e+00 
0.0000000e+00 -2.7976809e-03 0.0000000e+00 
0.0000000e+00 -2.7648348e-03 0.0000000e+00 
0.0000000e+00 -2.5050130e-03 0.0000000e+00 
0.0000000e+00 -2.6332177e-03 0.0000000e+00 
0.0000000e+00 -2.5133863e-03 0.0000000e+00 
0.0000000e+00 -2.7589605e-03 0.0000000e+00 
0.0000000e+00 -2.7790566e-03 0.0000000e+00 
0.0000000e+00 -2.7069503e-03 0.0000000e+00 
0.0000000e+00 -2.2679740e-03 0.0000000e+00 
0.0000000e+00 -2.1328663e-03 0.0000000e+00 
0.0000000e+00 -1.9604431e-03 0.0000000e+00 
0.0000000e+00 -2.1023699e-03 0.0000000e+00 
0.0000000e+00 -2.1513461e-03 0.0000000e+00 
0.0000000e+00 -2.0776475e-03 0.0000000e+00 
0.0000000e+00 -1.6288934e-03 0.0000000e+00 
0.0000000e+00 -1.4140230e-03 0.0000000e+00 
0.0000000e+00 -9.9786068e-04 0.0000000e+00 
0.0000000e+00 -9.6163136e-04 0.0000000e+00 
0.0000000e+00 -4.8900262e-04 0.0000000e+00 
0.0000000e+00 -3.1187886e-04 0.0000000e+00 
0.0000000e+00 -2.3109766e-04 0.0000000e+00 
0.0000000e+00 -2.1379578e-04 0.0000000e+00 
0.0000000e+00 -3.5247774e-04 0.0000000e+00 
0.0000000e+00 -4.5829889e-04 0.0000000e+00 
0.0000000e+00 -9.8985527e-04 0.0000000e+00 
0.0000000e+00 -9.9941820e-04 0.0000000e+00 
0.0000000e+00 -1.4328649e-03 0.0000000e+00 
0.0000000e+00 -1.5552050e-03 0.0000000e+00 
0.0000000e+00 -2.0844294e-03 0.0000000e+00 
0.0000000e+00 -2.1400864e-03 0.0000000e+00 
0.0000000e+00 -2.1089190e-03 0.0000000e+00 
0.0000000e+00 -1.9603744e-03 0.0000000e+00 
0.0000000e+00 -2.1128759e-03 0.0000000e+00 
0.0000000e+00 -2.3600562e-03 0.0000000e+00 
0.0000000e+00 -2.6143189e-03 0.0000000e+00 
0.0000000e+00 -2.8359140e-03 0.0000000e+00 
0.0000000e+00 -2.7413911e-03 0.0000000e+00 
0.0000000e+00 -2.5782825e-03 0.0000000e+00 
0.0000000e+00 -2.5139069e-03 0.0000000e+00 
0.0000000e+00 -2.5535550e-03 0.0000000e+00 
0.0000000e+00 -2.8327911e-03 0.0000000e+00 
0.0000000e+00 -2.7343447e-03 0.0000000e+00 
0.0000000e+00 -2.8706335e-03 0.0000000e+00 
0.0000000e+00 -2.7287987e-03 0.0000000e+00 
0.0000000e+00 -2.8468615e-03 0.0000000e+00 
0.0000000e+00 -2.7949263e-03 0.0000000e+00 
0.0000000e+00 -2.7319791e-03 0.0000000e+00 
0.0000000e+00 -2.6986229e-03 0.0000000e+00 
0.0000000e+00 -2.7778856e-03 0.0000000e+00 
0.0000000e+00 -2.7741380e-03 0.0000000e+00 
0.0000000e+00 -2.8346444e-03 0.0000000e+00 
0.0000000e+00 -2.9959648e-03 0.0000000e+00 
0.0000000e+00 -2.7005135e-03 0.0000000e+00 
0.0000000e+00 -2.8980053e-03 0.0000000e+00 
-8.9089053e-06 -1.8645801e-04 0.0000000e+00 
1.8536555e-06 -3.9161486e-04 0.0000000e+00 
2.1180203e-06 -6.3682778e-04 0.0000000e+00 
6.1617575e-06 9.9704484e-04 0.0000000e+00 
-6.6633520e-06 7.4807805e-04 0.0000000e+00 
-7.9169513e-06 -1.7129896e-04 0.0000000e+00 
7.2477187e-06 -3.5689987e-04 0.0000000e+00 
-3.4736213e-06 -4.2056912e-04 0.0000000e+00 
-4.4060121e-06 5.7837844e-04 0.0000000e+00 
3.0967385e-06 1.9431856e-04 0.0000000e+00 
-4.7911026e-06 -3.9110912e-04 0.0000000e+00 
2.2011852e-07 8.2803526e-06 0.0000000e+00 
3.4694608e-06 2.2523706e-04 0.0000000e+00 
-3.6590202e-06 -4.3688470e-04 0.0000000e+00 
1.1028388e-05 7.3561375e-04 0.0000000e+00 
-5.1854108e-06 -2.1434580e-04 0.0000000e+00 
-7.9625115e-06 4.6201193e-04 0.0000000e+00 
-2.6821181e-06 3.0014387e-04 0.0000000e+00 
1.0386573e-05 2.2619561e-05 0.0000000e+00 
1.8267970e-06 2.2214952e-04 0.0000000e+00 
6.7043160e-08 7.6884031e-04 0.0000000e+00 
-4.5539618e-06 -3.3995850e-04 0.0000000e+00 
7.9165175e-06 5.6677085e-04 0.0000000e+00 
9.5231189e-06 -3.9708448e-04 0.0000000e+00 
-1.0954032e-05 -1.8277734e-04 0.0000000e+00 
-3.3580363e-06 -6.3074788e-04 0.0000000e+00 
8.5117308e-06 6.0415792e-04 0.0000000e+00 
-7.2956477e-06 -4.9456581e-04 0.0000000e+00 
8.3473415e-06 1.5812168e-04 0.0000000e+00 
3.0981166e-06 -4.8216915e-04 0.0000000e+00 
-3.8760427e-06 -3.1231795e-04 0.0000000e+00 
-2.9204589e-06 -1.8971856e-04 0.0000000e+00 
-1.6430726e-05 5.8522017e-04 0.0000000e+00 
-7.5333619e-06 6.4960355e-04 0.0000000e+00 
-1.8607482e-06 9.2012295e-04 0.0000000e+00 
1.6617640e-05 7.5329607e-04 0.0000000e+00 
-6.1258734e-06 9.9167228e-04 0.0000000e+00 
1.9128433e-05 9.1613719e-04 0.0000000e+00 
-1.1131086e-05 8.8601076e-04 0.0000000e+00 
-1.2968939e-05 6.2843988e-04 0.0000000e+00 
-4.3570681e-06 7.4451056e-04 0.0000000e+00 
4.1124317e-06 7.2570262e-04 0.0000000e+00 
-8.7586413e-06 7.9917163e-04 0.0000000e+00 
-2.8785805e-06 8.8535808e-04 0.0000000e+00 
7.7108361e-06 7.1752694e-04 0.0000000e+00 
-2.1950877e-06 4.9763842e-04 0.0000000e+00 
-5.7671582e-06 3.0677085e-04 0.0000000e+00 
-1.4518082e-05 1.9665020e-04 0.0000000e+00 
1.3153503e-05 1.2336623e-04 0.0000000e+00 
1.5895068e-05 -3.9493836e-05 0.0000000e+00 
-1.8367848e-05 -1.7999946e-04 0.0000000e+00 
-6.5641584e-06 -2.3863773e-04 0.0000000e+00 
8.9366686e-06 -1.4267952e-04 0.0000000e+00 
1.3457771e-05 -7.6740853e-06 0.0000000e+00 
-7.0814558e-06 1.3678878e-05 0.0000000e+00 
-7.9446754e-06 -1.0944509e-04 0.0000000e+00 
3.9556503e-06 -3.1883098e-04 0.0000000e+00 
3.4746108e-07 -4.0608153e-04 0.0000000e+00 
-9.2054627e-08 -3.4772043e-04 0.0000000e+00 
-6.3692769e-06 -2.4926179e-04 0.0000000e+00 
2.6155153e-06 -2.2044385e-04 0.0000000e+00 
5.3246563e-06 -2.9719720e-04 0.0000000e+00 
-5.9457216e-06 -3.8626080e-04 0.0000000e+00 
-5.1253082e-06 -4.3381608e-04 0.0000000e+00 
4.5277420e-06 -4.1845365e-04 0.0000000e+00 
7.9798965e-06 -4.2527795e-04 0.0000000e+00 
8.8485449e-06 -4.5820145e-04 0.0000000e+00 
1.2415568e-06 -4.8207311e-04 0.0000000e+00 
-8.2730530e-06 -4.0816065e-04 0.0000000e+00 
-8.7752060e-06 -2.1524024e-04 0.0000000e+00 
-3.8786952e-06 2.0817373e-05 0.0000000e+00 
-1.3849047e-06 1.9347557e-04 0.0000000e+00 
-2.6787122e-06 2.1935189e-04 0.0000000e+00 
6.0600028e-06 1.9683043e-04 0.0000000e+00 
8.4518688e-06 1.8680445e-04 0.0000000e+00 
3.1250836e-06 3.2831699e-04 0.0000000e+00 
-3.3184272e-06 5.7500298e-04 0.0000000e+00 
-1.1899726e-05 7.6439645e-04 0.0000000e+00 
-2.7970616e-08 8.1803219e-04 0.0000000e+00 
5.8864939e-06 6.8193406e-04 0.0000000e+00 
1.8260203e-06 4.5745177e-04 0.0000000e+00 
2.9347227e-06 2.8497126e-04 0.0000000e+00 
4.8639708e-07 2.0332936e-04 0.0000000e+00 
-5.5221417e-06 1.9950600e-04 0.0000000e+00 
3.1179229e-06 1.7041099e-04 0.0000000e+00 
6.6248772e-06 3.4059714e-05 0.0000000e+00 
5.3891213e-06 -1.9377016e-04 0.0000000e+00 
5.6115009e-06 -4.5912396e-04 0.0000000e+00 
1.3854426e-06 -6.3027121e-04 0.0000000e+00 
4.1688427e-06 -6.8592606e-04 0.0000000e+00 
-1.3543396e-06 -6.3230412e-04 0.0000000e+00 
2.6598735e-07 -5.4298621e-04 0.0000000e+00 
6.8237928e-06 -4.9964973e-04 0.0000000e+00 
1.3409558e-05 7.8989431e-04 0.0000000e+00 
-1.0863799e-05 7.5950986e-04 0.0000000e+00 
-2.0311793e-06 1.4205060e-04 0.0000000e+00 
2.1243861e-06 5.2937630e-06 0.0000000e+00 
-8.5871343e-06 5.6577398e-04 0.0000000e+00 
-6.7420692e-06 -1.3852553e-04 0.0000000e+00 
-1.1801408e-05 -3.1918974e-04 0.0000000e+00 
-6.2472816e-07 1.6597932e-04 0.0000000e+00 
-4.5013844e-06 -2.0677944e-04 0.0000000e+00 
-1.0333158e-05 -4.1848733e-04 0.0000000e+00 
-4.4707294e-06 1.9683738e-04 0.0000000e+00 
-1.4478345e-06 8.1815082e-04 0.0000000e+00 
1.6200482e-06 -6.3671748e-04 0.0000000e+00 
-3.2657906e-06 4.0145340e-05 0.0000000e+00 
5.6854528e-06 6.8372575e-04 0.0000000e+00 
1.3422568e-05 -4.1785609e-04 0.0000000e+00 
-1.0590458e-05 8.6936861e-04 0.0000000e+00 
2.6040557e-06 -4.8554991e-04 0.0000000e+00 
-7.9000447e-06 -5.0006778e-04 0.0000000e+00 
-5.4402847e-07 -4.7621428e-04 0.0000000e+00 
7.6356837e-06 4.2428382e-04 0.0000000e+00 
2.4991274e-05 1.7577724e-04 0.0000000e+00 
-2.4626986e-05 1.3657720e-04 0.0000000e+00 
-7.0061145e-07 -5.5548851e-04 0.0000000e+00 
-7.6195050e-07 -4.9024844e-04 0.0000000e+00 
-5.6562681e-06 3.3115584e-04 0.0000000e+00 
2.9911862e-06 1.8803416e-04 0.0000000e+00 
2.0934345e-07 -2.9320313e-04 0.0000000e+00 
4.6631435e-06 -4.0546531e-04 0.0000000e+00 
9.4443558e-06 -3.7347975e-06 0.0000000e+00 
-4.5943234e-06 -3.3129858e-05 0.0000000e+00 
9.0922167e-06 5.6408043e-04 0.0000000e+00 
-3.0034992e-06 -6.3276535e-04 0.0000000e+00 
-9.3128909e-07 -6.9007318e-04 0.0000000e+00 
-1.0369807e-06 -5.0534809e-04 0.0000000e+00 
6.4581454e-06 -6.3695508e-04 0.0000000e+00 
-8.7381204e-06 9.7189227e-04 0.0000000e+00 
-4.9519535e-06 7.5111102e-04 0.0000000e+00 
-1.1476817e-05 -6.2564906e-04 0.0000000e+00 
-1.7584593e-07 -1.9813281e-04 0.0000000e+00 
6.7634214e-06 -4.8699763e-04 0.0000000e+00 
4.4461449e-06 1.9953470e-04 0.0000000e+00 
-1.4368472e-07 2.6984725e-04 0.0000000e+00 
1.9516553e-06 4.4925915e-04 0.0000000e+00 
-9.6481363e-06 1.9976019e-04 0.0000000e+00 
-9.5887913e-07 1.8817984e-04 0.0000000e+00 
9.6526073e-06 4.6412181e-04 0.0000000e+00 
-4.4243884e-06 -4.0936665e-04 0.0000000e+00 
4.8248216e-06 -4.6878718e-04 0.0000000e+00 
2.0477763e-07 6.4606120e-06 0.0000000e+00 
-8.2096420e-07 -2.3081101e-04 0.0000000e+00 
-4.0274458e-06 -4.2314961e-04 0.0000000e+00 
7.0480196e-06 -4.1203984e-04 0.0000000e+00 
4.1826620e-06 1.0628320e-04 0.0000000e+00 
-7.3154915e-06 -2.3752813e-04 0.0000000e+00 
3.8630760e-06 -1.2278961e-04 0.0000000e+00 
-6.8167983e-06 -1.4223417e-04 0.0000000e+00 
3.4635291e-06 -3.2998066e-04 0.0000000e+00 
-4.5269712e-06 -2.4380389e-04 0.0000000e+00 
-8.4154381e-06 -3.0496047e-04 0.0000000e+00 
-1.5337655e-05 7.1459136e-04 0.0000000e+00 
-3.9907004e-06 9.0874836e-04 0.0000000e+00 
1.3141373e-05 8.0459833e-04 0.0000000e+00 
1.8225361e-05 2.8658679e-04 0.0000000e+00 
6.9020912e-06 4.8619919e-04 0.0000000e+00 
-8.8967599e-06 1.2105107e-04 0.0000000e+00 
1.3728986e-05 3.2953867e-05 0.0000000e+00 
-1.8342779e-06 1.6498902e-04 0.0000000e+00 
-7.4272430e-06 1.8045555e-04 0.0000000e+00 
4.2973229e-06 7.8740524e-04 0.0000000e+00 
1.2775981e-05 7.3137903e-04 0.0000000e+00 
1.8092516e-06 4.9228786e-04 0.0000000e+00 
-6.6325688e-06 -4.2915132e-04 0.0000000e+00 
-3.2197920e-06 -1.4882669e-04 0.0000000e+00 
-4.7258527e-06 -2.0864635e-04 0.0000000e+00 
-2.5144650e-06 1.7490434e-04 0.0000000e+00 
-8.5535885e-06 2.0837256e-04 0.0000000e+00 
-1.2131809e-06 -2.2854401e-04 0.0000000e+00 
5.1468587e-06 8.0954877e-04 0.0000000e+00 
-4.9919768e-06 5.5303588e-04 0.0000000e+00 
5.2985133e-06 -2.1354595e-04 0.0000000e+00 
-1.0692044e-05 -4.8385601e-04 0.0000000e+00 
5.8173937e-06 2.3362726e-04 0.0000000e+00 
7.4103000e-06 -3.8048511e-04 0.0000000e+00 
1.4054883e-06 -3.5948085e-04 0.0000000e+00 
1.4502704e-05 9.3876688e-06 0.0000000e+00 
1.2098997e-05 -1.5614180e-04 0.0000000e+00 
-1.5640524e-05 8.3547499e-04 0.0000000e+00 
1.7957396e-05 7.4111280e-04 0.0000000e+00 
-8.0617092e-06 8.8340417e-04 0.0000000e+00 
8.3756104e-06 8.2568574e-04 0.0000000e+00 
1.3386298e-07 1.9495837e-04 0.0000000e+00 
-5.1077977e-06 -4.5895280e-04 0.0000000e+00 
1.1494532e-05 4.2224911e-04 0.0000000e+00 
4.7059953e-06 -1.6271406e-04 0.0000000e+00 
1.1889599e-06 -4.5486612e-04 0.0000000e+00 
-2.7205022e-06 4.4393327e-04 0.0000000e+00 
2.8143036e-06 9.3113299e-04 0.0000000e+00 
2.9565899e-06 1.6155571e-04 0.0000000e+00 
-1.1804993e-05 -4.7552385e-04 0.0000000e+00 
1.8772881e-06 8.9457323e-04 0.0000000e+00 
5.5200376e-06 6.1841018e-04 0.0000000e+00 
3.7919926e-06 -3.6699651e-04 0.0000000e+00 
3.6852066e-06 9.9530106e-04 0.0000000e+00 
8.3660808e-07 7.2379323e-04 0.0000000e+00 
-4.4215740e-06 7.3094707e-04 0.0000000e+00 
-9.1979855e-06 7.1333995e-04 0.0000000e+00 
-1.4407625e-05 -4.0397022e-04 0.0000000e+00 
-2.4820097e-06 2.7661576e-04 0.0000000e+00 
1.3450259e-05 1.8025338e-04 0.0000000e+00 
-5.3253170e-06 -1.7353694e-05 0.0000000e+00 
-1.0075396e-05 -2.4785919e-04 0.0000000e+00 
3.5847866e-06 -1.8660065e-05 0.0000000e+00 
4.3139630e-06 -1.2344497e-04 0.0000000e+00 
1.0067623e-05 1.5670680e-04 0.0000000e+00 
-2.4251981e-06 -4.1182523e-04 0.0000000e+00 
5.8607175e-06 -2.5401084e-04 0.0000000e+00 
9.4303601e-07 -2.8168189e-04 0.0000000e+00 
-1.9351262e-06 -4.1567630e-04 0.0000000e+00 
2.0218556e-06 -4.2815131e-04 0.0000000e+00 
5.4806492e-06 -4.5770803e-04 0.0000000e+00 
-4.6423133e-06 -2.4166315e-04 0.0000000e+00 
1.1796068e-05 1.6991445e-04 0.0000000e+00 
-6.8475429e-06 1.9029660e-04 0.0000000e+00 
-4.7365420e-06 3.2468140e-04 0.0000000e+00 
-6.8891536e-06 2.7469595e-04 0.0000000e+00 
5.5319188e-06 7.6061039e-04 0.0000000e+00 
2.8275206e-06 6.9098576e-04 0.0000000e+00 
-2.9226176e-06 -4.8981153e-04 0.0000000e+00 
-2.9522957e-06 -5.5752788e-04 0.0000000e+00 
-7.3803818e-08 -6.8269682e-04 0.0000000e+00 
3.9561796e-06 3.2190317e-05 0.0000000e+00 
-3.3824485e-06 2.0134696e-04 0.0000000e+00 
-1.2402757e-05 -4.4809392e-04 0.0000000e+00 
-7.1441796e-06 -3.1215421e-04 0.0000000e+00 
6.0993416e-06 -2.8311228e-04 0.0000000e+00 
-1.3234195e-05 -1.7179272e-04 0.0000000e+00 
1.6505070e-05 -1.6351865e-04 0.0000000e+00 
8.1254238e-06 -1.6177811e-04 0.0000000e+00 
-1.4379590e-05 -1.9750562e-04 0.0000000e+00 
7.4676122e-06 -2.9970406e-04 0.0000000e+00 
1.1762382e-06 -3.0978065e-04 0.0000000e+00 
-7.2864732e-06 -4.4969987e-04 0.0000000e+00 
-1.3730914e-05 -2.7482805e-03 0.0000000e+00 
-2.9817750e-06 -1.6224502e-04 0.0000000e+00 
-2.1678256e-05 -2.8846445e-03 0.0000000e+00 
1.0363967e-05 -1.0131642e-03 0.0000000e+00 
-7.0971146e-06 -2.8563661e-03 0.0000000e+00 
-2.9669076e-05 -1.7146737e-03 0.0000000e+00 
1.1336008e-05 -2.8547302e-03 0.0000000e+00 
2.5170318e-06 -2.2377218e-03 0.0000000e+00 
-5.6356230e-06 -2.4647145e-03 0.0000000e+00 
6.7881015e-06 -2.5632125e-03 0.0000000e+00 
3.3531710e-06 -2.8934740e-03 0.0000000e+00 
4.0090831e-06 -2.0682025e-03 0.0000000e+00 
-2.5061478e-05 -2.7763082e-03 0.0000000e+00 
-3.5417545e-06 -2.7558159e-03 0.0000000e+00 
8.8386396e-06 -1.2310070e-03 0.0000000e+00 
1.1161463e-05 -2.7767390e-03 0.0000000e+00 
4.4478860e-05 -2.8219647e-03 0.0000000e+00 
-1.7472013e-05 -2.7452628e-03 0.0000000e+00 
-1.1642943e-05 -2.8230825e-03 0.0000000e+00 
-1.3026111e-05 -2.6637698e-03 0.0000000e+00 
7.7792602e-06 -2.1173949e-03 0.0000000e+00 
1.1525627e-06 -1.8814530e-03 0.0000000e+00 
-9.2602404e-06 -7.7988586e-04 0.0000000e+00 
1.6492333e-05 -1.7095670e-03 0.0000000e+00 
2.0635607e-06 -2.7222242e-03 0.0000000e+00 
3.0238594e-05 -2.7487960e-03 0.0000000e+00 
-6.9114489e-05 -2.8815004e-03 0.0000000e+00 
-1.0964654e-05 -3.3692247e-04 0.0000000e+00 
2.6883568e-05 -3.2639384e-04 0.0000000e+00 
-6.4979307e-05 -2.5503007e-03 0.0000000e+00 
1.0365601e-04 -2.6169687e-03 0.0000000e+00 
3.0613715e-05 -1.3973031e-04 0.0000000e+00 
-2.8715979e-07 -3.2668392e-04 0.0000000e+00 
-1.1369852e-05 -4.6455619e-04 0.0000000e+00 
2.3773480e-05 -9.8190119e-04 0.0000000e+00 
1.2791577e-05 -7.5702072e-04 0.0000000e+00 
-2.8837949e-06 -1.0197128e-03 0.0000000e+00 
-1.3955640e-05 -9.8694034e-04 0.0000000e+00 
7.3760420e-06 -9.9736988e-04 0.0000000e+00 
7.6374517e-06 -4.8449589e-04 0.0000000e+00 
1.8141238e-05 -1.2025994e-03 0.0000000e+00 
9.1624628e-07 -1.4323806e-03 0.0000000e+00 
-1.7797327e-05 -1.5510891e-03 0.0000000e+00 
-4.1327457e-06 -1.5714171e-03 0.0000000e+00 
-2.7358383e-06 -1.7171288e-03 0.0000000e+00 
-2.2720230e-06 -2.0898737e-03 0.0000000e+00 
6.6803573e-06 -2.1820143e-03 0.0000000e+00 
-2.4742235e-06 -2.1122009e-03 0.0000000e+00 
-4.7688650e-06 -2.0798398e-03 0.0000000e+00 
1.0765663e-05 -2.1435807e-03 0.0000000e+00 
1.7963921e-05 -2.1818061e-03 0.0000000e+00 
-1.1480894e-05 -1.9710262e-03 0.0000000e+00 
2.3278192e-06 -1.8826339e-03 0.0000000e+00 
1.5495378e-05 -2.1074773e-03 0.0000000e+00 
-2.6717225e-05 -2.2600081e-03 0.0000000e+00 
-2.5273199e-05 -2.3137562e-03 0.0000000e+00 
1.6832466e-05 -2.3910915e-03 0.0000000e+00 
1.4651135e-05 -2.6156530e-03 0.0000000e+00 
-8.2296874e-06 -2.8789053e-03 0.0000000e+00 
-1.5935058e-05 -2.8138969e-03 0.0000000e+00 
3.2004582e-06 -2.6762737e-03 0.0000000e+00 