# vtk DataFile Version 4.0
vtk output
ASCII
DATASET UNSTRUCTURED_GRID
POINTS 628 float
0.0000000e+00 0.0000000e+00 0.0000000e+00 
1.0000000e+00 0.0000000e+00 0.0000000e+00 
1.0000000e+00 1.0000000e+01 0.0000000e+00 
0.0000000e+00 1.0000000e+01 0.0000000e+00 
0.0000000e+00 5.0000000e+00 0.0000000e+00 
1.0000000e+00 5.0000000e+00 0.0000000e+00 
1.4285715e-01 0.0000000e+00 0.0000000e+00 
2.8571430e-01 0.0000000e+00 0.0000000e+00 
4.2857143e-01 0.0000000e+00 0.0000000e+00 
5.7142860e-01 0.0000000e+00 0.0000000e+00 
7.1428573e-01 0.0000000e+00 0.0000000e+00 
8.5714287e-01 0.0000000e+00 0.0000000e+00 
8.5714287e-01 1.0000000e+01 0.0000000e+00 
7.1428573e-01 1.0000000e+01 0.0000000e+00 
5.7142860e-01 1.0000000e+01 0.0000000e+00 
4.2857143e-01 1.0000000e+01 0.0000000e+00 
2.8571430e-01 1.0000000e+01 0.0000000e+00 
1.4285715e-01 1.0000000e+01 0.0000000e+00 
1.4285715e-01 5.0000000e+00 0.0000000e+00 
2.8571430e-01 5.0000000e+00 0.0000000e+00 
4.2857143e-01 5.0000000e+00 0.0000000e+00 
5.7142860e-01 5.0000000e+00 0.0000000e+00 
7.1428573e-01 5.0000000e+00 0.0000000e+00 
8.5714287e-01 5.0000000e+00 0.0000000e+00 
0.0000000e+00 4.8529410e+00 0.0000000e+00 
0.0000000e+00 4.7058825e+00 0.0000000e+00 
0.0000000e+00 4.5588236e+00 0.0000000e+00 
0.0000000e+00 4.4117646e+00 0.0000000e+00 
0.0000000e+00 4.2647057e+00 0.0000000e+00 
0.0000000e+00 4.1176472e+00 0.0000000e+00 
0.0000000e+00 3.9705882e+00 0.0000000e+00 
0.0000000e+00 3.8235295e+00 0.0000000e+00 
0.0000000e+00 3.6764705e+00 0.0000000e+00 
0.0000000e+00 3.5294118e+00 0.0000000e+00 
0.0000000e+00 3.3823528e+00 0.0000000e+00 
0.0000000e+00 3.2352941e+00 0.0000000e+00 
0.0000000e+00 3.0882354e+00 0.0000000e+00 
0.0000000e+00 2.9411764e+00 0.0000000e+00 
0.0000000e+00 2.7941177e+00 0.0000000e+00 
0.0000000e+00 2.6470587e+00 0.0000000e+00 
0.0000000e+00 2.5000000e+00 0.0000000e+00 
0.0000000e+00 2.3529413e+00 0.0000000e+00 
0.0000000e+00 2.2058823e+00 0.0000000e+00 
0.0000000e+00 2.0588236e+00 0.0000000e+00 
0.0000000e+00 1.9117647e+00 0.0000000e+00 
0.0000000e+00 1.7647059e+00 0.0000000e+00 
0.0000000e+00 1.6176471e+00 0.0000000e+00 
0.0000000e+00 1.4705882e+00 0.0000000e+00 
0.0000000e+00 1.3235294e+00 0.0000000e+00 
0.0000000e+00 1.1764706e+00 0.0000000e+00 
0.0000000e+00 1.0294118e+00 0.0000000e+00 
0.0000000e+00 8.8235295e-01 0.0000000e+00 
0.0000000e+00 7.3529410e-01 0.0000000e+00 
0.0000000e+00 5.8823532e-01 0.0000000e+00 
0.0000000e+00 4.4117647e-01 0.0000000e+00 
0.0000000e+00 2.9411766e-01 0.0000000e+00 
0.0000000e+00 1.4705883e-01 0.0000000e+00 
1.0000000e+00 1.4705883e-01 0.0000000e+00 
1.0000000e+00 2.9411766e-01 0.0000000e+00 
1.0000000e+00 4.4117647e-01 0.0000000e+00 
1.0000000e+00 5.8823532e-01 0.0000000e+00 
1.0000000e+00 7.3529410e-01 0.0000000e+00 
1.0000000e+00 8.8235295e-01 0.0000000e+00 
1.0000000e+00 1.0294118e+00 0.0000000e+00 
1.0000000e+00 1.1764706e+00 0.0000000e+00 
1.0000000e+00 1.3235294e+00 0.0000000e+00 
1.0000000e+00 1.4705882e+00 0.0000000e+00 
1.0000000e+00 1.6176471e+00 0.0000000e+00 
1.0000000e+00 1.7647059e+00 0.0000000e+00 
1.0000000e+00 1.9117647e+00 0.0000000e+00 
1.0000000e+00 2.0588236e+00 0.0000000e+00 
1.0000000e+00 2.2058823e+00 0.0000000e+00 
1.0000000e+00 2.3529413e+00 0.0000000e+00 
1.0000000e+00 2.5000000e+00 0.0000000e+00 
1.0000000e+00 2.6470587e+00 0.0000000e+00 
1.0000000e+00 2.7941177e+00 0.0000000e+00 
1.0000000e+00 2.9411764e+00 0.0000000e+00 
1.0000000e+00 3.0882354e+00 0.0000000e+00 
1.0000000e+00 3.2352941e+00 0.0000000e+00 
1.0000000e+00 3.3823528e+00 0.0000000e+00 
1.0000000e+00 3.5294118e+00 0.0000000e+00 
1.0000000e+00 3.6764705e+00 0.0000000e+00 
1.0000000e+00 3.8235295e+00 0.0000000e+00 
1.0000000e+00 3.9705882e+00 0.0000000e+00 
1.0000000e+00 4.1176472e+00 0.0000000e+00 
1.0000000e+00 4.2647057e+00 0.0000000e+00 
1.0000000e+00 4.4117646e+00 0.0000000e+00 
1.0000000e+00 4.5588236e+00 0.0000000e+00 
1.0000000e+00 4.7058825e+00 0.0000000e+00 
1.0000000e+00 4.8529410e+00 0.0000000e+00 
0.0000000e+00 9.8529415e+00 0.0000000e+00 
0.0000000e+00 9.7058821e+00 0.0000000e+00 
0.0000000e+00 9.5588236e+00 0.0000000e+00 
0.0000000e+00 9.4117651e+00 0.0000000e+00 
0.0000000e+00 9.2647057e+00 0.0000000e+00 
0.0000000e+00 9.1176472e+00 0.0000000e+00 
0.0000000e+00 8.9705887e+00 0.0000000e+00 
0.0000000e+00 8.8235292e+00 0.0000000e+00 
0.0000000e+00 8.6764708e+00 0.0000000e+00 
0.0000000e+00 8.5294113e+00 0.0000000e+00 
0.0000000e+00 8.3823528e+00 0.0000000e+00 
0.0000000e+00 8.2352943e+00 0.0000000e+00 
0.0000000e+00 8.0882349e+00 0.0000000e+00 
0.0000000e+00 7.9411764e+00 0.0000000e+00 
0.0000000e+00 7.7941175e+00 0.0000000e+00 
0.0000000e+00 7.6470590e+00 0.0000000e+00 
0.0000000e+00 7.5000000e+00 0.0000000e+00 
0.0000000e+00 7.3529410e+00 0.0000000e+00 
0.0000000e+00 7.2058825e+00 0.0000000e+00 
0.0000000e+00 7.0588236e+00 0.0000000e+00 
0.0000000e+00 6.9117646e+00 0.0000000e+00 
0.0000000e+00 6.7647057e+00 0.0000000e+00 
0.0000000e+00 6.6176472e+00 0.0000000e+00 
0.0000000e+00 6.4705882e+00 0.0000000e+00 
0.0000000e+00 6.3235292e+00 0.0000000e+00 
0.0000000e+00 6.1764708e+00 0.0000000e+00 
0.0000000e+00 6.0294118e+00 0.0000000e+00 
0.0000000e+00 5.8823528e+00 0.0000000e+00 
0.0000000e+00 5.7352943e+00 0.0000000e+00 
0.0000000e+00 5.5882354e+00 0.0000000e+00 
0.0000000e+00 5.4411764e+00 0.0000000e+00 
0.0000000e+00 5.2941175e+00 0.0000000e+00 
0.0000000e+00 5.1470590e+00 0.0000000e+00 
1.0000000e+00 5.1470590e+00 0.0000000e+00 
1.0000000e+00 5.2941175e+00 0.0000000e+00 
1.0000000e+00 5.4411764e+00 0.0000000e+00 
1.0000000e+00 5.5882354e+00 0.0000000e+00 
1.0000000e+00 5.7352943e+00 0.0000000e+00 
1.0000000e+00 5.8823528e+00 0.0000000e+00 
1.0000000e+00 6.0294118e+00 0.0000000e+00 
1.0000000e+00 6.1764708e+00 0.0000000e+00 
1.0000000e+00 6.3235292e+00 0.0000000e+00 
1.0000000e+00 6.4705882e+00 0.0000000e+00 
1.0000000e+00 6.6176472e+00 0.0000000e+00 
1.0000000e+00 6.7647057e+00 0.0000000e+00 
1.0000000e+00 6.9117646e+00 0.0000000e+00 
1.0000000e+00 7.0588236e+00 0.0000000e+00 
1.0000000e+00 7.2058825e+00 0.0000000e+00 
1.0000000e+00 7.3529410e+00 0.0000000e+00 
1.0000000e+00 7.5000000e+00 0.0000000e+00 
1.0000000e+00 7.6470590e+00 0.0000000e+00 
1.0000000e+00 7.7941175e+00 0.0000000e+00 
1.0000000e+00 7.9411764e+00 0.0000000e+00 
1.0000000e+00 8.0882349e+00 0.0000000e+00 
1.0000000e+00 8.2352943e+00 0.0000000e+00 
1.0000000e+00 8.3823528e+00 0.0000000e+00 
1.0000000e+00 8.5294113e+00 0.0000000e+00 
1.0000000e+00 8.6764708e+00 0.0000000e+00 
1.0000000e+00 8.8235292e+00 0.0000000e+00 
1.0000000e+00 8.9705887e+00 0.0000000e+00 
1.0000000e+00 9.1176472e+00 0.0000000e+00 
1.0000000e+00 9.2647057e+00 0.0000000e+00 
1.0000000e+00 9.4117651e+00 0.0000000e+00 
1.0000000e+00 9.5588236e+00 0.0000000e+00 
1.0000000e+00 9.7058821e+00 0.0000000e+00 
1.0000000e+00 9.8529415e+00 0.0000000e+00 
5.0212586e-01 4.8703580e+00 0.0000000e+00 
5.1041055e-01 1.3732977e-01 0.0000000e+00 
1.3055173e-01 6.6499180e-01 0.0000000e+00 
8.7327349e-01 4.3372407e+00 0.0000000e+00 
8.7331611e-01 3.8958969e+00 0.0000000e+00 
8.7347627e-01 3.4562511e+00 0.0000000e+00 
8.7357801e-01 2.8680170e+00 0.0000000e+00 
1.2843554e-01 2.1327813e+00 0.0000000e+00 
1.2975387e-01 1.5449892e+00 0.0000000e+00 
1.3308091e-01 1.1039938e+00 0.0000000e+00 
1.2937543e-01 2.5737903e+00 0.0000000e+00 
1.2735668e-01 3.1617646e+00 0.0000000e+00 
8.7375563e-01 1.8386052e+00 0.0000000e+00 
8.7355548e-01 2.2778318e+00 0.0000000e+00 
1.2753446e-01 4.1915216e+00 0.0000000e+00 
8.7915283e-01 8.0759794e-01 0.0000000e+00 
8.8115031e-01 1.2498868e+00 0.0000000e+00 
1.2781374e-01 3.7501886e+00 0.0000000e+00 
8.7352717e-01 3.1621344e+00 0.0000000e+00 
1.2961270e-01 1.8389882e+00 0.0000000e+00 
1.2731366e-01 4.4857054e+00 0.0000000e+00 
1.2885660e-01 2.8684020e+00 0.0000000e+00 
8.7380636e-01 1.5444875e+00 0.0000000e+00 
8.7362880e-01 2.5738993e+00 0.0000000e+00 
1.2735668e-01 3.4558823e+00 0.0000000e+00 
8.7264335e-01 5.1470590e-01 0.0000000e+00 
8.7611687e-01 4.6317782e+00 0.0000000e+00 
1.3446054e-01 3.7013325e-01 0.0000000e+00 
1.2296320e-01 4.7760825e+00 0.0000000e+00 
8.8210768e-01 2.2118840e-01 0.0000000e+00 
2.1798968e-01 1.0548568e-01 0.0000000e+00 
7.7656764e-01 4.8704844e+00 0.0000000e+00 
1.2667844e-01 4.6331582e+00 0.0000000e+00 
2.5353336e-01 4.5619426e+00 0.0000000e+00 
2.5451174e-01 4.4132285e+00 0.0000000e+00 
3.8040194e-01 4.4881525e+00 0.0000000e+00 
3.8161713e-01 4.3403850e+00 0.0000000e+00 
5.0654775e-01 4.4141955e+00 0.0000000e+00 
5.0629890e-01 4.2659345e+00 0.0000000e+00 
5.0658631e-01 4.5616083e+00 0.0000000e+00 
3.8184282e-01 4.1932206e+00 0.0000000e+00 
5.0831819e-01 4.1188259e+00 0.0000000e+00 
3.8249290e-01 4.0462651e+00 0.0000000e+00 
5.0818664e-01 3.9732957e+00 0.0000000e+00 
3.8265404e-01 3.8991868e+00 0.0000000e+00 
5.0769192e-01 3.8249388e+00 0.0000000e+00 
3.8307732e-01 3.7517705e+00 0.0000000e+00 
5.0990808e-01 3.6776419e+00 0.0000000e+00 
3.8416636e-01 3.6049941e+00 0.0000000e+00 
5.1177651e-01 3.5322094e+00 0.0000000e+00 
3.8460994e-01 3.4584429e+00 0.0000000e+00 
5.1256055e-01 3.3855147e+00 0.0000000e+00 
3.8520575e-01 3.3115354e+00 0.0000000e+00 
5.1318693e-01 3.2385471e+00 0.0000000e+00 
3.8561273e-01 3.1645203e+00 0.0000000e+00 
5.1375473e-01 3.0915136e+00 0.0000000e+00 
3.8616878e-01 3.0174749e+00 0.0000000e+00 
5.1433694e-01 2.9444630e+00 0.0000000e+00 
3.8656160e-01 2.8704205e+00 0.0000000e+00 
5.1489413e-01 2.7974076e+00 0.0000000e+00 
3.8711417e-01 2.7233641e+00 0.0000000e+00 
5.1547360e-01 2.6503508e+00 0.0000000e+00 
3.8750717e-01 2.5763063e+00 0.0000000e+00 
5.1603019e-01 2.5032935e+00 0.0000000e+00 
3.8805979e-01 2.4292488e+00 0.0000000e+00 
5.1422137e-01 2.3562264e+00 0.0000000e+00 
3.8765049e-01 2.2821872e+00 0.0000000e+00 
5.1307547e-01 2.2071202e+00 0.0000000e+00 
3.8778570e-01 2.1347876e+00 0.0000000e+00 
5.1568961e-01 2.0596735e+00 0.0000000e+00 
3.9013749e-01 1.9876142e+00 0.0000000e+00 
5.1808232e-01 1.9145784e+00 0.0000000e+00 
3.8994926e-01 1.8408588e+00 0.0000000e+00 
5.1884413e-01 1.7678982e+00 0.0000000e+00 
[...]
POINT_DATA 628
FIELD FieldData 2
VELOCITY 3 628  float
0.0000000e+00 0.0000000e+00 0.0000000e+00 
0.0000000e+00 0.0000000e+00 0.0000000e+00 
0.0000000e+00 -3.0500954e-03 0.0000000e+00 
0.0000000e+00 -3.7451745e-03 0.0000000e+00 
0.0000000e+00 -1.7832825e-04 0.0000000e+00 
0.0000000e+00 -1.6715488e-04 0.0000000e+00 
0.0000000e+00 0.0000000e+00 0.0000000e+00 
0.0000000e+00 0.0000000e+00 0.0000000e+00 
0.0000000e+00 0.0000000e+00 0.0000000e+00 
0.0000000e+00 0.0000000e+00 0.0000000e+00 
0.0000000e+00 0.0000000e+00 0.0000000e+00 
0.0000000e+00 0.0000000e+00 0.0000000e+00 
1.9199122e-04 -3.9679799e-03 0.0000000e+00 
-4.1412804e-04 -4.0379511e-03 0.0000000e+00 
1.8369754e-04 -3.6969464e-03 0.0000000e+00 
-5.6047837e-05 -3.9111539e-03 0.0000000e+00 
-5.7326793e-05 -3.4092555e-03 0.0000000e+00 
-1.0495313e-04 -4.2528985e-03 0.0000000e+00 
-2.1326765e-05 -1.5099582e-04 0.0000000e+00 
5.2460969e-06 -1.5214441e-04 0.0000000e+00 
-5.2296523e-06 -1.5880988e-04 0.0000000e+00 
3.6525039e-06 -1.4494578e-04 0.0000000e+00 
-8.7127455e-06 -1.4428557e-04 0.0000000e+00 
2.0453239e-05 -1.3228063e-04 0.0000000e+00 
0.0000000e+00 -1.4551939e-04 0.0000000e+00 
0.0000000e+00 2.9269804e-04 0.0000000e+00 
0.0000000e+00 3.4220566e-04 0.0000000e+00 
0.0000000e+00 1.5660520e-05 0.0000000e+00 
0.0000000e+00 2.3027105e-05 0.0000000e+00 
0.0000000e+00 -2.1039934e-05 0.0000000e+00 
0.0000000e+00 -3.5213746e-04 0.0000000e+00 
0.0000000e+00 -2.6255863e-04 0.0000000e+00 
0.0000000e+00 1.7859749e-04 0.0000000e+00 
0.0000000e+00 2.6064675e-04 0.0000000e+00 
0.0000000e+00 5.5838354e-05 0.0000000e+00 
0.0000000e+00 5.5462551e-05 0.0000000e+00 
0.0000000e+00 6.5948261e-05 0.0000000e+00 
0.0000000e+00 -2.1378990e-04 0.0000000e+00 
0.0000000e+00 -3.3610369e-04 0.0000000e+00 
0.0000000e+00 3.0917465e-05 0.0000000e+00 
0.0000000e+00 3.7184422e-04 0.0000000e+00 
0.0000000e+00 2.0796226e-04 0.0000000e+00 
0.0000000e+00 -1.5106262e-04 0.0000000e+00 
0.0000000e+00 -2.1167223e-04 0.0000000e+00 
0.0000000e+00 -3.5418099e-05 0.0000000e+00 
0.0000000e+00 3.9211624e-05 0.0000000e+00 
0.0000000e+00 2.4139486e-06 0.0000000e+00 
0.0000000e+00 5.6330158e-05 0.0000000e+00 
0.0000000e+00 1.4240545e-04 0.0000000e+00 
0.0000000e+00 3.4705248e-05 0.0000000e+00 
0.0000000e+00 -1.9490771e-04 0.0000000e+00 
0.0000000e+00 -2.0715110e-04 0.0000000e+00 
0.0000000e+00 7.7242512e-05 0.0000000e+00 
0.0000000e+00 3.0148189e-04 0.0000000e+00 
0.0000000e+00 1.4690445e-04 0.0000000e+00 
0.0000000e+00 -2.0855434e-04 0.0000000e+00 
0.0000000e+00 -3.0001110e-04 0.0000000e+00 
0.0000000e+00 -2.8669796e-04 0.0000000e+00 
0.0000000e+00 -2.0159580e-04 0.0000000e+00 
0.0000000e+00 1.4200185e-04 0.0000000e+00 
0.0000000e+00 2.9882739e-04 0.0000000e+00 
0.0000000e+00 8.1861828e-05 0.0000000e+00 
0.0000000e+00 -2.0198674e-04 0.0000000e+00 
0.0000000e+00 -2.0054549e-04 0.0000000e+00 
0.0000000e+00 1.5861753e-05 0.0000000e+00 
0.0000000e+00 1.2736663e-04 0.0000000e+00 
0.0000000e+00 5.8999289e-05 0.0000000e+00 
0.0000000e+00 1.4006320e-05 0.0000000e+00 
0.0000000e+00 4.3459666e-05 0.0000000e+00 
0.0000000e+00 -3.8625443e-05 0.0000000e+00 
0.0000000e+00 -2.0856604e-04 0.0000000e+00 
0.0000000e+00 -1.3834670e-04 0.0000000e+00 
0.0000000e+00 2.1384950e-04 0.0000000e+00 
0.0000000e+00 3.6006898e-04 0.0000000e+00 
0.0000000e+00 1.6532655e-05 0.0000000e+00 
0.0000000e+00 -3.3211519e-04 0.0000000e+00 
0.0000000e+00 -2.0092182e-04 0.0000000e+00 
0.0000000e+00 6.5738779e-05 0.0000000e+00 
0.0000000e+00 4.4202643e-05 0.0000000e+00 
0.0000000e+00 5.6012621e-05 0.0000000e+00 
0.0000000e+00 2.7638688e-04 0.0000000e+00 
0.0000000e+00 1.7409046e-04 0.0000000e+00 
0.0000000e+00 -2.8178364e-04 0.0000000e+00 
0.0000000e+00 -3.4689353e-04 0.0000000e+00 
0.0000000e+00 -1.4246965e-05 0.0000000e+00 
0.0000000e+00 1.3748833e-05 0.0000000e+00 
0.0000000e+00 1.1799584e-05 0.0000000e+00 
0.0000000e+00 3.6811017e-04 0.0000000e+00 
0.0000000e+00 3.0054073e-04 0.0000000e+00 
0.0000000e+00 -1.7983389e-04 0.0000000e+00 
0.0000000e+00 -4.0705702e-03 0.0000000e+00 
0.0000000e+00 -3.4114460e-03 0.0000000e+00 
0.0000000e+00 -3.4721093e-03 0.0000000e+00 
0.0000000e+00 -3.1143115e-03 0.0000000e+00 
0.0000000e+00 -2.8673944e-03 0.0000000e+00 
0.0000000e+00 -2.4466203e-03 0.0000000e+00 
0.0000000e+00 -2.5032074e-03 0.0000000e+00 
0.0000000e+00 -2.2149775e-03 0.0000000e+00 
0.0000000e+00 -2.1924581e-03 0.0000000e+00 
0.0000000e+00 -2.0075270e-03 0.0000000e+00 
0.0000000e+00 -1.9595053e-03 0.0000000e+00 
0.0000000e+00 -1.8919954e-03 0.0000000e+00 
0.0000000e+00 -1.5954192e-03 0.0000000e+00 
0.0000000e+00 -1.2521070e-03 0.0000000e+00 
0.0000000e+00 -9.0449071e-04 0.0000000e+00 
0.0000000e+00 -5.4548279e-04 0.0000000e+00 
0.0000000e+00 -3.7958872e-04 0.0000000e+00 
0.0000000e+00 1.3510884e-04 0.0000000e+00 
0.0000000e+00 -1.0247154e-04 0.0000000e+00 
0.0000000e+00 1.6119290e-04 0.0000000e+00 
0.0000000e+00 -2.7123268e-04 0.0000000e+00 
0.0000000e+00 -2.1742622e-04 0.0000000e+00 
0.0000000e+00 -3.6317241e-04 0.0000000e+00 
0.0000000e+00 -4.8691165e-04 0.0000000e+00 
0.0000000e+00 -1.0917121e-04 0.0000000e+00 
0.0000000e+00 -2.2107409e-04 0.0000000e+00 
0.0000000e+00 1.8239040e-04 0.0000000e+00 
0.0000000e+00 3.5542424e-04 0.0000000e+00 
0.0000000e+00 1.0479803e-04 0.0000000e+00 
0.0000000e+00 2.6057233e-04 0.0000000e+00 
0.0000000e+00 -3.1397041e-05 0.0000000e+00 
0.0000000e+00 -3.9522926e-04 0.0000000e+00 
0.0000000e+00 -1.4049368e-04 0.0000000e+00 
0.0000000e+00 -1.4129786e-04 0.0000000e+00 
0.0000000e+00 -4.2121243e-04 0.0000000e+00 
0.0000000e+00 -6.6579032e-06 0.0000000e+00 
0.0000000e+00 3.0855663e-04 0.0000000e+00 
0.0000000e+00 5.1587853e-05 0.0000000e+00 
0.0000000e+00 3.5132127e-04 0.0000000e+00 
0.0000000e+00 2.0125041e-04 0.0000000e+00 
0.0000000e+00 -2.5431553e-04 0.0000000e+00 
0.0000000e+00 -4.8661797e-05 0.0000000e+00 
0.0000000e+00 -4.9386860e-04 0.0000000e+00 
0.0000000e+00 -4.0486694e-04 0.0000000e+00 
0.0000000e+00 -1.5589708e-04 0.0000000e+00 
0.0000000e+00 -3.7073161e-04 0.0000000e+00 
0.0000000e+00 2.1440009e-04 0.0000000e+00 
0.0000000e+00 -9.8886099e-05 0.0000000e+00 
0.0000000e+00 7.3752657e-05 0.0000000e+00 
0.0000000e+00 -3.1110496e-04 0.0000000e+00 
0.0000000e+00 -5.4647122e-04 0.0000000e+00 
0.0000000e+00 -8.6116977e-04 0.0000000e+00 
0.0000000e+00 -1.3189137e-03 0.0000000e+00 
0.0000000e+00 -1.5298214e-03 0.0000000e+00 
0.0000000e+00 -1.9289207e-03 0.0000000e+00 
0.0000000e+00 -1.8288408e-03 0.0000000e+00 
0.0000000e+00 -2.2416317e-03 0.0000000e+00 
0.0000000e+00 -2.0802552e-03 0.0000000e+00 
0.0000000e+00 -2.1987543e-03 0.0000000e+00 
0.0000000e+00 -2.5047772e-03 0.0000000e+00 
0.0000000e+00 -2.5344393e-03 0.0000000e+00 
0.0000000e+00 -2.7707168e-03 0.0000000e+00 
0.0000000e+00 -3.2029001e-03 0.0000000e+00 
0.0000000e+00 -3.3748061e-03 0.0000000e+00 
0.0000000e+00 -3.4853918e-03 0.0000000e+00 
0.0000000e+00 -4.1005057e-03 0.0000000e+00 
4.8282382e-06 -2.1612298e-04 0.0000000e+00 
-3.6630638e-06 -2.9443941e-04 0.0000000e+00 
-1.2177594e-07 2.2030016e-04 0.0000000e+00 
-4.2578090e-06 -3.7730730e-05 0.0000000e+00 
-6.1753435e-06 -3.9030792e-04 0.0000000e+00 
1.5810039e-07 1.6457848e-04 0.0000000e+00 
1.4044483e-06 -3.2169596e-04 0.0000000e+00 
5.5541040e-07 -2.2938011e-04 0.0000000e+00 
-1.6619382e-06 1.5679465e-05 0.0000000e+00 
-6.1786255e-07 -8.6978594e-05 0.0000000e+00 
-3.0564254e-06 2.4951051e-04 0.0000000e+00 
3.0470451e-06 8.8368928e-05 0.0000000e+00 
-2.7826161e-06 2.4215276e-05 0.0000000e+00 
-4.1358517e-06 2.1290838e-05 0.0000000e+00 
-2.4113301e-06 5.9592632e-05 0.0000000e+00 
-5.9397544e-06 -7.8210411e-05 0.0000000e+00 
4.0731170e-06 1.0310974e-04 0.0000000e+00 
-8.3958521e-06 -3.5943925e-05 0.0000000e+00 
-2.5950699e-06 8.0781756e-05 0.0000000e+00 
2.1578153e-06 2.6069842e-05 0.0000000e+00 
2.6513328e-06 1.7123199e-04 0.0000000e+00 
-3.2499322e-06 -3.3340446e-04 0.0000000e+00 
2.6941952e-06 2.2105671e-05 0.0000000e+00 
2.7259714e-06 2.3368128e-04 0.0000000e+00 
4.2514366e-06 1.5611060e-04 0.0000000e+00 
-2.4591563e-06 2.6207001e-04 0.0000000e+00 
7.8045032e-06 4.0904075e-04 0.0000000e+00 
-1.1449051e-06 -3.6063539e-05 0.0000000e+00 
-3.1939210e-06 3.2868171e-05 0.0000000e+00 
1.1144473e-07 -3.0557474e-04 0.0000000e+00 
-3.7465450e-06 -2.4547830e-04 0.0000000e+00 
-7.7364830e-06 -2.2211498e-04 0.0000000e+00 
-3.3381375e-06 3.9172161e-04 0.0000000e+00 
8.2473971e-06 3.6492493e-04 0.0000000e+00 
-1.1756067e-05 2.4206658e-05 0.0000000e+00 
-1.3745309e-05 1.7419465e-04 0.0000000e+00 
-2.2996965e-06 -2.2694772e-05 0.0000000e+00 
-5.6152485e-06 1.9574540e-05 0.0000000e+00 
6.8283043e-06 2.4540408e-05 0.0000000e+00 
1.5911718e-06 3.4688748e-04 0.0000000e+00 
7.6025922e-06 5.8404752e-05 0.0000000e+00 
6.7961309e-07 -7.0483752e-06 0.0000000e+00 
-9.4960205e-06 -1.6909913e-04 0.0000000e+00 
-5.0364561e-06 -3.3691368e-04 0.0000000e+00 
4.8472339e-06 -3.9604979e-04 0.0000000e+00 
1.5919284e-06 -2.8676787e-04 0.0000000e+00 
-7.5686730e-06 -5.0179744e-05 0.0000000e+00 
-1.6674185e-06 1.8254775e-04 0.0000000e+00 
2.5638972e-06 2.9666506e-04 0.0000000e+00 
2.5919928e-06 2.7820686e-04 0.0000000e+00 
4.5127667e-06 1.5925788e-04 0.0000000e+00 
-4.9364451e-07 6.0408318e-05 0.0000000e+00 
-9.5891282e-06 2.1868906e-05 0.0000000e+00 
-7.1662419e-07 5.6470137e-05 0.0000000e+00 
3.9688389e-06 8.8875764e-05 0.0000000e+00 
4.5016704e-06 6.5405664e-05 0.0000000e+00 
1.8394044e-06 -4.8687780e-05 0.0000000e+00 
-4.9405497e-07 -2.0032389e-04 0.0000000e+00 
-1.9881124e-06 -3.2407395e-04 0.0000000e+00 
-3.0292038e-06 -3.3246045e-04 0.0000000e+00 
1.1671707e-06 -2.0456135e-04 0.0000000e+00 
-1.2360613e-06 9.1763650e-06 0.0000000e+00 
-4.1020312e-06 2.3671538e-04 0.0000000e+00 
1.0152457e-06 3.6299281e-04 0.0000000e+00 
1.3075717e-06 3.5470625e-04 0.0000000e+00 
2.7423273e-06 2.1871318e-04 0.0000000e+00 
6.1886899e-06 2.1614071e-05 0.0000000e+00 
3.6717171e-07 -1.4981568e-04 0.0000000e+00 
-2.9583518e-07 -2.2981771e-04 0.0000000e+00 
-1.2887390e-06 -2.1324522e-04 0.0000000e+00 
-7.9002353e-07 -1.3080049e-04 0.0000000e+00 
2.6175326e-07 -3.8039263e-05 0.0000000e+00 
3.7849061e-06 2.5690191e-05 0.0000000e+00 
1.1627044e-06 3.9586939e-05 0.0000000e+00 
6.7393648e-07 2.4211511e-05 0.0000000e+00 
-5.7432402e-07 5.5766768e-06 0.0000000e+00 
-2.2748848e-06 1.7429300e-05 0.0000000e+00 
-9.6681515e-07 5.4991873e-05 0.0000000e+00 
-1.4583766e-06 1.0860556e-04 0.0000000e+00 
-2.4442732e-06 1.3420985e-04 0.0000000e+00 
-3.2138503e-06 1.0974790e-04 0.0000000e+00 
-2.8110533e-06 3.0667550e-05 0.0000000e+00 
-2.2063218e-06 -9.1086673e-05 0.0000000e+00 
1.4159199e-06 -1.8968272e-04 0.0000000e+00 
3.4984948e-06 -2.4718221e-04 0.0000000e+00 
3.9546412e-06 -2.0446861e-04 0.0000000e+00 
3.9811880e-06 -9.2093826e-05 0.0000000e+00 
1.0080073e-06 7.1813323e-05 0.0000000e+00 
-1.5725659e-06 2.1910685e-04 0.0000000e+00 
-2.2307329e-06 2.9746373e-04 0.0000000e+00 
-2.1968976e-06 2.7568665e-04 0.0000000e+00 
2.1979142e-06 1.5217048e-04 0.0000000e+00 
5.7755710e-06 -2.8554528e-05 0.0000000e+00 
-2.5212371e-06 -1.7374493e-04 0.0000000e+00 
5.6019235e-06 1.8305848e-04 0.0000000e+00 
4.4587352e-08 2.9876936e-04 0.0000000e+00 
-7.6936237e-07 -1.3401595e-04 0.0000000e+00 
-7.4917585e-07 4.2266690e-04 0.0000000e+00 
3.3323813e-06 2.2926117e-05 0.0000000e+00 
3.3819426e-06 -4.5739918e-05 0.0000000e+00 
5.4070097e-07 -2.3270336e-04 0.0000000e+00 
-5.1814263e-06 -2.0891536e-04 0.0000000e+00 
2.5133968e-06 3.5171764e-04 0.0000000e+00 
-1.1745840e-06 2.3748791e-05 0.0000000e+00 
1.7072017e-06 1.0680142e-04 0.0000000e+00 
-2.9079476e-06 2.1395420e-04 0.0000000e+00 
2.3119703e-06 -2.1202798e-04 0.0000000e+00 
1.1598130e-06 1.3952970e-04 0.0000000e+00 
5.7472330e-06 2.1252969e-04 0.0000000e+00 
2.9898702e-06 -3.4460236e-04 0.0000000e+00 
9.4502748e-06 -2.0327473e-04 0.0000000e+00 
2.3067171e-06 -3.9369097e-05 0.0000000e+00 
6.5938956e-08 -3.1760277e-04 0.0000000e+00 
-2.7839058e-06 2.7409001e-04 0.0000000e+00 
2.2920196e-06 2.3813391e-05 0.0000000e+00 
-7.8221965e-06 2.4827261e-05 0.0000000e+00 
8.3645790e-07 1.4624831e-04 0.0000000e+00 
5.9374577e-07 -1.9419235e-04 0.0000000e+00 
-2.6791402e-06 8.7489370e-06 0.0000000e+00 
2.9432847e-06 -3.6071673e-05 0.0000000e+00 
-6.4648009e-07 2.2898275e-05 0.0000000e+00 
-5.1069414e-06 -2.1055323e-04 0.0000000e+00 
-4.5592824e-06 4.9157505e-05 0.0000000e+00 
1.2086216e-05 2.6696187e-04 0.0000000e+00 
1.0951278e-05 4.1090630e-04 0.0000000e+00 
5.0998790e-07 2.7307245e-04 0.0000000e+00 
-1.9448430e-06 2.9655793e-04 0.0000000e+00 
-3.9255492e-06 -4.1949956e-05 0.0000000e+00 
-1.5252783e-06 2.6255485e-04 0.0000000e+00 
1.9093466e-06 -2.3943518e-05 0.0000000e+00 
-4.9369401e-06 1.6709091e-04 0.0000000e+00 
-4.9344158e-06 2.2274394e-04 0.0000000e+00 
-1.7929225e-06 -8.6074964e-05 0.0000000e+00 
7.4233481e-06 -2.9577382e-04 0.0000000e+00 
-3.9424833e-07 -1.9996089e-04 0.0000000e+00 
-1.4963646e-06 2.8386045e-05 0.0000000e+00 
1.7093045e-06 1.1771735e-04 0.0000000e+00 
1.1603270e-06 -8.0341517e-05 0.0000000e+00 
-5.1451181e-08 -1.8917676e-04 0.0000000e+00 
3.3271991e-07 1.1285761e-04 0.0000000e+00 
-5.3659386e-07 -2.2197710e-04 0.0000000e+00 
-3.6798674e-06 -1.4752471e-04 0.0000000e+00 
-1.6147962e-07 -1.3258807e-04 0.0000000e+00 
2.9708717e-06 -1.9812086e-04 0.0000000e+00 
-5.0429280e-06 3.6885749e-04 0.0000000e+00 
-8.3136456e-07 3.5116205e-04 0.0000000e+00 
3.3512338e-06 2.8931533e-04 0.0000000e+00 
-6.5777622e-06 5.3944110e-05 0.0000000e+00 
-6.0887246e-06 2.1098649e-05 0.0000000e+00 
4.3197720e-06 5.8443489e-05 0.0000000e+00 
-2.9132227e-06 -5.4042601e-05 0.0000000e+00 
2.1037406e-06 -3.3299200e-04 0.0000000e+00 
5.6198623e-06 -4.5398436e-05 0.0000000e+00 
5.7150769e-06 6.0738414e-05 0.0000000e+00 
-4.1703756e-06 2.0473157e-05 0.0000000e+00 
-2.7528949e-06 -1.6945657e-04 0.0000000e+00 
8.5291467e-06 -5.3438387e-05 0.0000000e+00 
6.1597621e-06 -2.7976406e-04 0.0000000e+00 
1.6116115e-07 2.9428632e-04 0.0000000e+00 
4.0720076e-07 -1.3009174e-04 0.0000000e+00 
2.2707361e-06 4.1461888e-05 0.0000000e+00 
-1.4607862e-06 2.2439572e-05 0.0000000e+00 
-3.9988740e-07 6.0640781e-05 0.0000000e+00 
7.3496262e-06 -3.8741695e-04 0.0000000e+00 
-2.4559833e-07 -2.7536575e-04 0.0000000e+00 
2.2075133e-06 3.4740157e-04 0.0000000e+00 
1.2352317e-06 1.3143873e-05 0.0000000e+00 
4.1772722e-07 -8.6514810e-05 0.0000000e+00 
3.4020584e-07 -2.4664827e-04 0.0000000e+00 
-4.9148849e-07 2.8813007e-05 0.0000000e+00 
-5.3176600e-06 -2.0277205e-04 0.0000000e+00 
4.2787747e-06 1.0623914e-04 0.0000000e+00 
1.4324363e-06 1.6250109e-05 0.0000000e+00 
-1.6222308e-06 -2.1251084e-04 0.0000000e+00 
4.1045000e-06 -1.4832549e-04 0.0000000e+00 
-1.9026573e-06 2.2913022e-05 0.0000000e+00 
2.8636798e-06 2.2736643e-04 0.0000000e+00 
-2.6274768e-06 -3.1863843e-04 0.0000000e+00 
-2.1256996e-07 8.5164109e-05 0.0000000e+00 
6.5101301e-07 1.6955186e-04 0.0000000e+00 
-5.2768955e-06 -1.8285174e-04 0.0000000e+00 
-1.0696386e-05 -9.0636277e-06 0.0000000e+00 
8.9992145e-06 2.4141951e-05 0.0000000e+00 
2.2991369e-06 1.1258153e-04 0.0000000e+00 
-8.4595167e-06 1.8001774e-04 0.0000000e+00 
4.3143318e-06 1.3956009e-05 0.0000000e+00 
-6.6759494e-06 2.7232833e-04 0.0000000e+00 
7.0745114e-06 -2.0065723e-04 0.0000000e+00 
4.2069507e-07 7.1011556e-05 0.0000000e+00 
8.0256887e-06 2.8124446e-04 0.0000000e+00 
-5.9117915e-06 1.3381061e-05 0.0000000e+00 
-5.6321460e-06 1.2618159e-05 0.0000000e+00 
-8.4979292e-06 -3.2139092e-04 0.0000000e+00 
-1.0795290e-05 -3.3498590e-04 0.0000000e+00 
1.4511899e-06 3.6947947e-04 0.0000000e+00 
2.4740107e-06 -2.8802600e-04 0.0000000e+00 
-4.4344151e-06 -2.6224005e-05 0.0000000e+00 
3.3707990e-06 5.5252338e-05 0.0000000e+00 
5.7309512e-06 1.0362444e-06 0.0000000e+00 
-4.8330267e-06 -4.0205126e-04 0.0000000e+00 
-2.2906377e-06 2.1607474e-04 0.0000000e+00 
1.0059481e-05 -5.1540839e-05 0.0000000e+00 
9.4646430e-06 1.6952834e-04 0.0000000e+00 
-3.1890620e-06 2.7660295e-04 0.0000000e+00 
4.4606832e-06 5.8139696e-05 0.0000000e+00 
-9.5389964e-07 4.1680909e-05 0.0000000e+00 
6.7454323e-07 5.8102582e-05 0.0000000e+00 
-2.7690055e-06 -2.4059166e-04 0.0000000e+00 
5.4241973e-06 -1.9826631e-04 0.0000000e+00 
-5.8599012e-06 -3.2935140e-04 0.0000000e+00 
-2.0672544e-06 9.0312906e-06 0.0000000e+00 
-9.1678152e-07 -2.2888156e-04 0.0000000e+00 
5.5817591e-06 3.6042920e-04 0.0000000e+00 
-2.6474231e-06 2.0674275e-05 0.0000000e+00 
7.7890587e-07 -2.1414354e-04 0.0000000e+00 
-2.2468109e-06 -4.1986867e-05 0.0000000e+00 
-3.2115495e-06 4.0229330e-05 0.0000000e+00 
1.0187379e-06 1.0883422e-05 0.0000000e+00 
3.3347324e-06 3.1662312e-05 0.0000000e+00 
4.2139718e-06 5.8224501e-05 0.0000000e+00 
4.6519967e-06 1.3535192e-04 0.0000000e+00 
-3.3124652e-06 -2.2450239e-04 0.0000000e+00 
-2.5130371e-06 1.2878307e-04 0.0000000e+00 
-3.3835593e-06 2.8823185e-04 0.0000000e+00 
-4.8733891e-06 -1.9773144e-04 0.0000000e+00 
1.4007338e-06 -9.3515329e-05 0.0000000e+00 
-6.3863349e-06 7.4916483e-05 0.0000000e+00 
-4.8814632e-06 -2.3506425e-04 0.0000000e+00 
7.2985989e-07 -2.2145077e-04 0.0000000e+00 
-8.6977144e-07 -2.1450492e-04 0.0000000e+00 
1.4348497e-06 -2.1100060e-04 0.0000000e+00 
1.8527075e-05 -2.1454511e-04 0.0000000e+00 
-1.5941605e-05 -2.3337657e-04 0.0000000e+00 
3.5726844e-06 -2.3216096e-04 0.0000000e+00 
1.0939709e-06 -2.2929396e-04 0.0000000e+00 
-5.2923933e-06 -3.1100298e-04 0.0000000e+00 
-2.2424688e-04 -3.7521608e-03 0.0000000e+00 
-6.1157011e-06 -1.1290942e-04 0.0000000e+00 
7.2772193e-05 -2.9880765e-03 0.0000000e+00 
-9.1967956e-07 1.4482834e-04 0.0000000e+00 
6.9382554e-06 -2.3304224e-03 0.0000000e+00 
-1.9062118e-05 -9.1361260e-05 0.0000000e+00 
-1.1812836e-06 -1.7443491e-03 0.0000000e+00 
-2.6176656e-06 -3.4327718e-04 0.0000000e+00 
2.7745820e-05 -5.3794181e-04 0.0000000e+00 
-2.9274473e-05 -1.3735847e-03 0.0000000e+00 
4.3860286e-06 1.3943706e-04 0.0000000e+00 
-1.7421341e-06 -2.1371531e-04 0.0000000e+00 
3.8189842e-06 -2.6989346e-03 0.0000000e+00 
-2.2306564e-05 -1.8909869e-03 0.0000000e+00 
-6.6555604e-06 1.5893308e-04 0.0000000e+00 
2.6386120e-05 -2.1701043e-03 0.0000000e+00 
-7.1361799e-05 -3.1407827e-03 0.0000000e+00 
-5.8452265e-06 8.1038786e-05 0.0000000e+00 
-2.3082694e-05 -2.2375293e-03 0.0000000e+00 
2.2082573e-05 -1.3518971e-03 0.0000000e+00 
1.1050753e-05 -2.5372303e-04 0.0000000e+00 
-3.9633078e-06 -1.4869143e-04 0.0000000e+00 
1.2514943e-05 2.4378211e-04 0.0000000e+00 
3.0563717e-06 -1.1807052e-04 0.0000000e+00 
-3.6701535e-06 -5.8083177e-05 0.0000000e+00 
-3.4526132e-05 -1.8926212e-03 0.0000000e+00 
-8.1156613e-05 -3.6769030e-03 0.0000000e+00 
-2.3965586e-06 -2.8302224e-04 0.0000000e+00 
-8.9222067e-06 -2.9858260e-04 0.0000000e+00 
1.0491546e-05 -3.7302738e-03 0.0000000e+00 
5.5421062e-04 -3.4064185e-03 0.0000000e+00 
-1.1021758e-06 -1.3112987e-04 0.0000000e+00 
-6.2889949e-06 -3.0525186e-04 0.0000000e+00 
-1.2393829e-07 -2.5334035e-05 0.0000000e+00 
-9.8418923e-07 2.6322069e-04 0.0000000e+00 
-2.2699494e-05 2.3599419e-04 0.0000000e+00 
1.2114283e-05 1.6388739e-04 0.0000000e+00 
6.5757295e-06 2.7691407e-04 0.0000000e+00 
-7.1088148e-06 7.3607378e-05 0.0000000e+00 
-7.4797977e-06 -5.0434333e-05 0.0000000e+00 
6.5735494e-06 1.7398686e-04 0.0000000e+00 
-2.4533330e-07 3.5373785e-04 0.0000000e+00 
-1.1019643e-05 4.2366795e-04 0.0000000e+00 
1.1062247e-05 2.0565421e-04 0.0000000e+00 
7.5170897e-06 -1.1300342e-04 0.0000000e+00 
8.5843831e-06 -2.1886401e-04 0.0000000e+00 
-1.4426421e-06 -1.6311763e-04 0.0000000e+00 
-2.3798028e-05 -7.3048519e-05 0.0000000e+00 
5.8438650e-06 -2.1974300e-04 0.0000000e+00 
1.8172472e-05 -5.1469967e-04 0.0000000e+00 
1.3270669e-05 -5.8914517e-04 0.0000000e+00 
-1.9581583e-05 -4.1937685e-04 0.0000000e+00 
-2.3908415e-05 -1.4196133e-04 0.0000000e+00 
1.1577504e-06 -1.7729489e-04 0.0000000e+00 
1.4124572e-05 -3.2538638e-04 0.0000000e+00 
9.6620470e-06 -3.0661488e-04 0.0000000e+00 
-9.7803777e-06 -5.3197156e-05 0.0000000e+00 
-3.3920905e-06 2.8127024e-04 0.0000000e+00 
3.4027980e-06 8.8532390e-05 0.0000000e+00 
-6.5291511e-06 -8.9980625e-05 0.0000000e+00 
-3.8304890e-07 -1.2342370e-04 0.0000000e+00 
-1.5566196e-05 6.3944070e-05 0.0000000e+00 