# vtk DataFile Version 4.0
vtk output
ASCII
DATASET UNSTRUCTURED_GRID
POINTS 628 float
0.0000000e+00 0.0000000e+00 0.0000000e+00 
1.0000000e+00 0.0000000e+00 0.0000000e+00 
1.0000000e+00 1.0000000e+01 0.0000000e+00 
0.0000000e+00 1.0000000e+01 0.0000000e+00 
0.0000000e+00 5.0000000e+00 0.0000000e+00 
1.0000000e+00 5.0000000e+00 0.0000000e+00 
1.4285715e-01 0.0000000e+00 0.0000000e+00 
2.8571430e-01 0.0000000e+00 0.0000000e+00 
4.2857143e-01 0.0000000e+00 0.0000000e+00 
5.7142860e-01 0.0000000e+00 0.0000000e+00 
7.1428573e-01 0.0000000e+00 0.0000000e+00 
8.5714287e-01 0.0000000e+00 0.0000000e+00 
8.5714287e-01 1.0000000e+01 0.0000000e+00 
7.1428573e-01 1.0000000e+01 0.0000000e+00 
5.7142860e-01 1.0000000e+01 0.0000000e+00 
4.2857143e-01 1.0000000e+01 0.0000000e+00 
2.8571430e-01 1.0000000e+01 0.0000000e+00 
1.4285715e-01 1.0000000e+01 0.0000000e+00 
1.4285715e-01 5.0000000e+00 0.0000000e+00 
2.8571430e-01 5.0000000e+00 0.0000000e+00 
4.2857143e-01 5.0000000e+00 0.0000000e+00 
5.7142860e-01 5.0000000e+00 0.0000000e+00 
7.1428573e-01 5.0000000e+00 0.0000000e+00 
8.5714287e-01 5.0000000e+00 0.0000000e+00 
0.0000000e+00 4.8529410e+00 0.0000000e+00 
0.0000000e+00 4.7058825e+00 0.0000000e+00 
0.0000000e+00 4.5588236e+00 0.0000000e+00 
0.0000000e+00 4.4117646e+00 0.0000000e+00 
0.0000000e+00 4.2647057e+00 0.0000000e+00 
0.0000000e+00 4.1176472e+00 0.0000000e+00 
0.0000000e+00 3.9705882e+00 0.0000000e+00 
0.0000000e+00 3.8235295e+00 0.0000000e+00 
0.0000000e+00 3.6764705e+00 0.0000000e+00 
0.0000000e+00 3.5294118e+00 0.0000000e+00 
0.0000000e+00 3.3823528e+00 0.0000000e+00 
0.0000000e+00 3.2352941e+00 0.0000000e+00 
0.0000000e+00 3.0882354e+00 0.0000000e+00 
0.0000000e+00 2.9411764e+00 0.0000000e+00 
0.0000000e+00 2.7941177e+00 0.0000000e+00 
0.0000000e+00 2.6470587e+00 0.0000000e+00 
0.0000000e+00 2.5000000e+00 0.0000000e+00 
0.0000000e+00 2.3529413e+00 0.0000000e+00 
0.0000000e+00 2.2058823e+00 0.0000000e+00 
0.0000000e+00 2.0588236e+00 0.0000000e+00 
0.0000000e+00 1.9117647e+00 0.0000000e+00 
0.0000000e+00 1.7647059e+00 0.0000000e+00 
0.0000000e+00 1.6176471e+00 0.0000000e+00 
0.0000000e+00 1.4705882e+00 0.0000000e+00 
0.0000000e+00 1.3235294e+00 0.0000000e+00 
0.0000000e+00 1.1764706e+00 0.0000000e+00 
0.0000000e+00 1.0294118e+00 0.0000000e+00 
0.0000000e+00 8.8235295e-01 0.0000000e+00 
0.0000000e+00 7.3529410e-01 0.0000000e+00 
0.0000000e+00 5.8823532e-01 0.0000000e+00 
0.0000000e+00 4.4117647e-01 0.0000000e+00 
0.0000000e+00 2.9411766e-01 0.0000000e+00 
0.0000000e+00 1.4705883e-01 0.0000000e+00 
1.0000000e+00 1.4705883e-01 0.0000000e+00 
1.0000000e+00 2.9411766e-01 0.0000000e+00 
1.0000000e+00 4.4117647e-01 0.0000000e+00 
1.0000000e+00 5.8823532e-01 0.0000000e+00 
1.0000000e+00 7.3529410e-01 0.0000000e+00 
1.0000000e+00 8.8235295e-01 0.0000000e+00 
1.0000000e+00 1.0294118e+00 0.0000000e+00 
1.0000000e+00 1.1764706e+00 0.0000000e+00 
1.0000000e+00 1.3235294e+00 0.0000000e+00 
1.0000000e+00 1.4705882e+00 0.0000000e+00 
1.0000000e+00 1.6176471e+00 0.0000000e+00 
1.0000000e+00 1.7647059e+00 0.0000000e+00 
1.0000000e+00 1.9117647e+00 0.0000000e+00 
1.0000000e+00 2.0588236e+00 0.0000000e+00 
1.0000000e+00 2.2058823e+00 0.0000000e+00 
1.0000000e+00 2.3529413e+00 0.0000000e+00 
1.0000000e+00 2.5000000e+00 0.0000000e+00 
1.0000000e+00 2.6470587e+00 0.0000000e+00 
1.0000000e+00 2.7941177e+00 0.0000000e+00 
1.0000000e+00 2.9411764e+00 0.0000000e+00 
1.0000000e+00 3.0882354e+00 0.0000000e+00 
1.0000000e+00 3.2352941e+00 0.0000000e+00 
1.0000000e+00 3.3823528e+00 0.0000000e+00 
1.0000000e+00 3.5294118e+00 0.0000000e+00 
1.0000000e+00 3.6764705e+00 0.0000000e+00 
1.0000000e+00 3.8235295e+00 0.0000000e+00 
1.0000000e+00 3.9705882e+00 0.0000000e+00 
1.0000000e+00 4.1176472e+00 0.0000000e+00 
1.0000000e+00 4.2647057e+00 0.0000000e+00 
1.0000000e+00 4.4117646e+00 0.0000000e+00 
1.0000000e+00 4.5588236e+00 0.0000000e+00 
1.0000000e+00 4.7058825e+00 0.0000000e+00 
1.0000000e+00 4.8529410e+00 0.0000000e+00 
0.0000000e+00 9.8529415e+00 0.0000000e+00 
0.0000000e+00 9.7058821e+00 0.0000000e+00 
0.0000000e+00 9.5588236e+00 0.0000000e+00 
0.0000000e+00 9.4117651e+00 0.0000000e+00 
0.0000000e+00 9.2647057e+00 0.0000000e+00 
0.0000000e+00 9.1176472e+00 0.0000000e+00 
0.0000000e+00 8.9705887e+00 0.0000000e+00 
0.0000000e+00 8.8235292e+00 0.0000000e+00 
0.0000000e+00 8.6764708e+00 0.0000000e+00 
0.0000000e+00 8.5294113e+00 0.0000000e+00 
0.0000000e+00 8.3823528e+00 0.0000000e+00 
0.0000000e+00 8.2352943e+00 0.0000000e+00 
0.0000000e+00 8.0882349e+00 0.0000000e+00 
0.0000000e+00 7.9411764e+00 0.0000000e+00 
0.0000000e+00 7.7941175e+00 0.0000000e+00 
0.0000000e+00 7.6470590e+00 0.0000000e+00 
0.0000000e+00 7.5000000e+00 0.0000000e+00 
0.0000000e+00 7.3529410e+00 0.0000000e+00 
0.0000000e+00 7.2058825e+00 0.0000000e+00 
0.0000000e+00 7.0588236e+00 0.0000000e+00 
0.0000000e+00 6.9117646e+00 0.0000000e+00 
0.0000000e+00 6.7647057e+00 0.0000000e+00 
0.0000000e+00 6.6176472e+00 0.0000000e+00 
0.0000000e+00 6.4705882e+00 0.0000000e+00 
0.0000000e+00 6.3235292e+00 0.0000000e+00 
0.0000000e+00 6.1764708e+00 0.0000000e+00 
0.0000000e+00 6.0294118e+00 0.0000000e+00 
0.0000000e+00 5.8823528e+00 0.0000000e+00 
0.0000000e+00 5.7352943e+00 0.0000000e+00 
0.0000000e+00 5.5882354e+00 0.0000000e+00 
0.0000000e+00 5.4411764e+00 0.0000000e+00 
0.0000000e+00 5.2941175e+00 0.0000000e+00 
0.0000000e+00 5.1470590e+00 0.0000000e+00 
1.0000000e+00 5.1470590e+00 0.0000000e+00 
1.0000000e+00 5.2941175e+00 0.0000000e+00 
1.0000000e+00 5.4411764e+00 0.0000000e+00 
1.0000000e+00 5.5882354e+00 0.0000000e+00 
1.0000000e+00 5.7352943e+00 0.0000000e+00 
1.0000000e+00 5.8823528e+00 0.0000000e+00 
1.0000000e+00 6.0294118e+00 0.0000000e+00 
1.0000000e+00 6.1764708e+00 0.0000000e+00 
1.0000000e+00 6.3235292e+00 0.0000000e+00 
1.0000000e+00 6.4705882e+00 0.0000000e+00 
1.0000000e+00 6.6176472e+00 0.0000000e+00 
1.0000000e+00 6.7647057e+00 0.0000000e+00 
1.0000000e+00 6.9117646e+00 0.0000000e+00 
1.0000000e+00 7.0588236e+00 0.0000000e+00 
1.0000000e+00 7.2058825e+00 0.0000000e+00 
1.0000000e+00 7.3529410e+00 0.0000000e+00 
1.0000000e+00 7.5000000e+00 0.0000000e+00 
1.0000000e+00 7.6470590e+00 0.0000000e+00 
1.0000000e+00 7.7941175e+00 0.0000000e+00 
1.0000000e+00 7.9411764e+00 0.0000000e+00 
1.0000000e+00 8.0882349e+00 0.0000000e+00 
1.0000000e+00 8.2352943e+00 0.0000000e+00 
1.0000000e+00 8.3823528e+00 0.0000000e+00 
1.0000000e+00 8.5294113e+00 0.0000000e+00 
1.0000000e+00 8.6764708e+00 0.0000000e+00 
1.0000000e+00 8.8235292e+00 0.0000000e+00 
1.0000000e+00 8.9705887e+00 0.0000000e+00 
1.0000000e+00 9.1176472e+00 0.0000000e+00 
1.0000000e+00 9.2647057e+00 0.0000000e+00 
1.0000000e+00 9.4117651e+00 0.0000000e+00 
1.0000000e+00 9.5588236e+00 0.0000000e+00 
1.0000000e+00 9.7058821e+00 0.0000000e+00 
1.0000000e+00 9.8529415e+00 0.0000000e+00 
5.0212586e-01 4.8703580e+00 0.0000000e+00 
5.1041055e-01 1.3732977e-01 0.0000000e+00 
1.3055173e-01 6.6499180e-01 0.0000000e+00 
8.7327349e-01 4.3372407e+00 0.0000000e+00 
8.7331611e-01 3.8958969e+00 0.0000000e+00 
8.7347627e-01 3.4562511e+00 0.0000000e+00 
8.7357801e-01 2.8680170e+00 0.0000000e+00 
1.2843554e-01 2.1327813e+00 0.0000000e+00 
1.2975387e-01 1.5449892e+00 0.0000000e+00 
1.3308091e-01 1.1039938e+00 0.0000000e+00 
1.2937543e-01 2.5737903e+00 0.0000000e+00 
1.2735668e-01 3.1617646e+00 0.0000000e+00 
8.7375563e-01 1.8386052e+00 0.0000000e+00 
8.7355548e-01 2.2778318e+00 0.0000000e+00 
1.2753446e-01 4.1915216e+00 0.0000000e+00 
8.7915283e-01 8.0759794e-01 0.0000000e+00 
8.8115031e-01 1.2498868e+00 0.0000000e+00 
1.2781374e-01 3.7501886e+00 0.0000000e+00 
8.7352717e-01 3.1621344e+00 0.0000000e+00 
1.2961270e-01 1.8389882e+00 0.0000000e+00 
1.2731366e-01 4.4857054e+00 0.0000000e+00 
1.2885660e-01 2.8684020e+00 0.0000000e+00 
8.7380636e-01 1.5444875e+00 0.0000000e+00 
8.7362880e-01 2.5738993e+00 0.0000000e+00 
1.2735668e-01 3.4558823e+00 0.0000000e+00 
8.7264335e-01 5.1470590e-01 0.0000000e+00 
8.7611687e-01 4.6317782e+00 0.0000000e+00 
1.3446054e-01 3.7013325e-01 0.0000000e+00 
1.2296320e-01 4.7760825e+00 0.0000000e+00 
8.8210768e-01 2.2118840e-01 0.0000000e+00 
2.1798968e-01 1.0548568e-01 0.0000000e+00 
7.7656764e-01 4.8704844e+00 0.0000000e+00 
1.2667844e-01 4.6331582e+00 0.0000000e+00 
2.5353336e-01 4.5619426e+00 0.0000000e+00 
2.5451174e-01 4.4132285e+00 0.0000000e+00 
3.8040194e-01 4.4881525e+00 0.0000000e+00 
3.8161713e-01 4.3403850e+00 0.0000000e+00 
5.0654775e-01 4.4141955e+00 0.0000000e+00 
5.0629890e-01 4.2659345e+00 0.0000000e+00 
5.0658631e-01 4.5616083e+00 0.0000000e+00 
3.8184282e-01 4.1932206e+00 0.0000000e+00 
5.0831819e-01 4.1188259e+00 0.0000000e+00 
3.8249290e-01 4.0462651e+00 0.0000000e+00 
5.0818664e-01 3.9732957e+00 0.0000000e+00 
3.8265404e-01 3.8991868e+00 0.0000000e+00 
5.0769192e-01 3.8249388e+00 0.0000000e+00 
3.8307732e-01 3.7517705e+00 0.0000000e+00 
5.0990808e-01 3.6776419e+00 0.0000000e+00 
3.8416636e-01 3.6049941e+00 0.0000000e+00 
5.1177651e-01 3.5322094e+00 0.0000000e+00 
3.8460994e-01 3.4584429e+00 0.0000000e+00 
5.1256055e-01 3.3855147e+00 0.0000000e+00 
3.8520575e-01 3.3115354e+00 0.0000000e+00 
5.1318693e-01 3.2385471e+00 0.0000000e+00 
3.8561273e-01 3.1645203e+00 0.0000000e+00 
5.1375473e-01 3.0915136e+00 0.0000000e+00 
3.8616878e-01 3.0174749e+00 0.0000000e+00 
5.1433694e-01 2.9444630e+00 0.0000000e+00 
3.8656160e-01 2.8704205e+00 0.0000000e+00 
5.1489413e-01 2.7974076e+00 0.0000000e+00 
3.8711417e-01 2.7233641e+00 0.0000000e+00 
5.1547360e-01 2.6503508e+00 0.0000000e+00 
3.8750717e-01 2.5763063e+00 0.0000000e+00 
5.1603019e-01 2.5032935e+00 0.0000000e+00 
3.8805979e-01 2.4292488e+00 0.0000000e+00 
5.1422137e-01 2.3562264e+00 0.0000000e+00 
3.8765049e-01 2.2821872e+00 0.0000000e+00 
5.1307547e-01 2.2071202e+00 0.0000000e+00 
3.8778570e-01 2.1347876e+00 0.0000000e+00 
5.1568961e-01 2.0596735e+00 0.0000000e+00 
3.9013749e-01 1.9876142e+00 0.0000000e+00 
5.1808232e-01 1.9145784e+00 0.0000000e+00 
3.8994926e-01 1.8408588e+00 0.0000000e+00 
5.1884413e-01 1.7678982e+00 0.0000000e+00 
[...]
POINT_DATA 628
FIELD FieldData 2
VELOCITY 3 628  float
0.0000000e+00 0.0000000e+00 0.0000000e+00 
0.0000000e+00 0.0000000e+00 0.0000000e+00 
0.0000000e+00 -3.5635431e-03 0.0000000e+00 
0.0000000e+00 -3.1290620e-03 0.0000000e+00 
0.0000000e+00 -2.4113117e-03 0.0000000e+00 
0.0000000e+00 -2.4158249e-03 0.0000000e+00 
0.0000000e+00 0.0000000e+00 0.0000000e+00 
0.0000000e+00 0.0000000e+00 0.0000000e+00 
0.0000000e+00 0.0000000e+00 0.0000000e+00 
0.0000000e+00 0.0000000e+00 0.0000000e+00 
0.0000000e+00 0.0000000e+00 0.0000000e+00 
0.0000000e+00 0.0000000e+00 0.0000000e+00 
1.9217441e-05 -3.7048561e-03 0.0000000e+00 
3.0257902e-04 -3.1521062e-03 0.0000000e+00 
-2.1883630e-04 -3.2850241e-03 0.0000000e+00 
2.2184986e-04 -2.8527495e-03 0.0000000e+00 
-6.8099718e-05 -3.2750841e-03 0.0000000e+00 
6.3803032e-05 -3.0032552e-03 0.0000000e+00 
-1.5149162e-06 -2.5299906e-03 0.0000000e+00 
-1.5312291e-05 -2.5018742e-03 0.0000000e+00 
-5.0731510e-06 -2.4940451e-03 0.0000000e+00 
-1.6984790e-05 -2.4692691e-03 0.0000000e+00 
1.9937310e-05 -2.5113784e-03 0.0000000e+00 
-6.1308360e-06 -2.5239922e-03 0.0000000e+00 
0.0000000e+00 -2.8941270e-03 0.0000000e+00 
0.0000000e+00 -3.3295790e-03 0.0000000e+00 
0.0000000e+00 -3.2442396e-03 0.0000000e+00 
0.0000000e+00 -3.3077749e-03 0.0000000e+00 
0.0000000e+00 -3.4661449e-03 0.0000000e+00 
0.0000000e+00 -3.3419558e-03 0.0000000e+00 
0.0000000e+00 -3.6208075e-03 0.0000000e+00 
0.0000000e+00 -3.7093374e-03 0.0000000e+00 
0.0000000e+00 -3.2417583e-03 0.0000000e+00 
0.0000000e+00 -2.9609299e-03 0.0000000e+00 
0.0000000e+00 -2.8040414e-03 0.0000000e+00 
0.0000000e+00 -2.4455145e-03 0.0000000e+00 
0.0000000e+00 -2.3632026e-03 0.0000000e+00 
0.0000000e+00 -2.3021554e-03 0.0000000e+00 
0.0000000e+00 -1.7172274e-03 0.0000000e+00 
0.0000000e+00 -1.2267206e-03 0.0000000e+00 
0.0000000e+00 -1.2628853e-03 0.0000000e+00 
0.0000000e+00 -1.2371150e-03 0.0000000e+00 
0.0000000e+00 -8.9348503e-04 0.0000000e+00 
0.0000000e+00 -6.6910457e-04 0.0000000e+00 
0.0000000e+00 -5.7638285e-04 0.0000000e+00 
0.0000000e+00 -3.7044531e-04 0.0000000e+00 
0.0000000e+00 -3.0473366e-04 0.0000000e+00 
0.0000000e+00 -4.5006804e-04 0.0000000e+00 
0.0000000e+00 -3.4772672e-04 0.0000000e+00 
0.0000000e+00 1.9625819e-05 0.0000000e+00 
0.0000000e+00 7.6929784e-05 0.0000000e+00 
0.0000000e+00 -2.4821403e-04 0.0000000e+00 
0.0000000e+00 -3.1872687e-04 0.0000000e+00 
0.0000000e+00 5.2493426e-05 0.0000000e+00 
0.0000000e+00 2.3341186e-04 0.0000000e+00 
0.0000000e+00 -7.8839024e-05 0.0000000e+00 
0.0000000e+00 -2.9439726e-04 0.0000000e+00 
0.0000000e+00 -2.8174912e-04 0.0000000e+00 
0.0000000e+00 -8.7958324e-05 0.0000000e+00 
0.0000000e+00 2.1867425e-04 0.0000000e+00 
0.0000000e+00 5.9642658e-05 0.0000000e+00 
0.0000000e+00 -2.9882020e-04 0.0000000e+00 
0.0000000e+00 -2.3965139e-04 0.0000000e+00 
0.0000000e+00 6.5698041e-05 0.0000000e+00 
0.0000000e+00 8.9259402e-06 0.0000000e+00 
0.0000000e+00 -3.3641921e-04 0.0000000e+00 
0.0000000e+00 -4.3139351e-04 0.0000000e+00 
0.0000000e+00 -3.0796009e-04 0.0000000e+00 
0.0000000e+00 -3.8773296e-04 0.0000000e+00 
0.0000000e+00 -5.8324187e-04 0.0000000e+00 
0.0000000e+00 -6.7332183e-04 0.0000000e+00 
0.0000000e+00 -9.0826396e-04 0.0000000e+00 
0.0000000e+00 -1.2423518e-03 0.0000000e+00 
0.0000000e+00 -1.2449040e-03 0.0000000e+00 
0.0000000e+00 -1.2240069e-03 0.0000000e+00 
0.0000000e+00 -1.7344212e-03 0.0000000e+00 
0.0000000e+00 -2.2868391e-03 0.0000000e+00 
0.0000000e+00 -2.3386902e-03 0.0000000e+00 
0.0000000e+00 -2.4587037e-03 0.0000000e+00 
0.0000000e+00 -2.8263554e-03 0.0000000e+00 
0.0000000e+00 -2.9517533e-03 0.0000000e+00 
0.0000000e+00 -3.2379420e-03 0.0000000e+00 
0.0000000e+00 -3.7222342e-03 0.0000000e+00 
0.0000000e+00 -3.5933782e-03 0.0000000e+00 
0.0000000e+00 -3.3401872e-03 0.0000000e+00 
0.0000000e+00 -3.4862738e-03 0.0000000e+00 
0.0000000e+00 -3.2908574e-03 0.0000000e+00 
0.0000000e+00 -3.2313862e-03 0.0000000e+00 
0.0000000e+00 -3.3755563e-03 0.0000000e+00 
0.0000000e+00 -2.8757646e-03 0.0000000e+00 
0.0000000e+00 -2.9344293e-03 0.0000000e+00 
0.0000000e+00 -2.9259583e-03 0.0000000e+00 
0.0000000e+00 -2.6747193e-03 0.0000000e+00 
0.0000000e+00 -2.4876695e-03 0.0000000e+00 
0.0000000e+00 -2.5765072e-03 0.0000000e+00 
0.0000000e+00 -2.5197275e-03 0.0000000e+00 
0.0000000e+00 -2.7395824e-03 0.0000000e+00 
0.0000000e+00 -2.9283273e-03 0.0000000e+00 
0.0000000e+00 -3.0501289e-03 0.0000000e+00 
0.0000000e+00 -2.7796989e-03 0.0000000e+00 
0.0000000e+00 -3.0601507e-03 0.0000000e+00 
0.0000000e+00 -2.7827872e-03 0.0000000e+00 
0.0000000e+00 -3.0166062e-03 0.0000000e+00 
0.0000000e+00 -2.6926461e-03 0.0000000e+00 
0.0000000e+00 -2.9684131e-03 0.0000000e+00 
0.0000000e+00 -2.6096932e-03 0.0000000e+00 
0.0000000e+00 -2.6982813e-03 0.0000000e+00 
0.0000000e+00 -2.2648692e-03 0.0000000e+00 
0.0000000e+00 -2.5058899e-03 0.0000000e+00 
0.0000000e+00 -2.4343706e-03 0.0000000e+00 
0.0000000e+00 -3.0336108e-03 0.0000000e+00 
0.0000000e+00 -3.2238094e-03 0.0000000e+00 
0.0000000e+00 -3.4643398e-03 0.0000000e+00 
0.0000000e+00 -3.2347459e-03 0.0000000e+00 
0.0000000e+00 -3.0416425e-03 0.0000000e+00 
0.0000000e+00 -2.9122974e-03 0.0000000e+00 
0.0000000e+00 -2.5155388e-03 0.0000000e+00 
0.0000000e+00 -2.7143180e-03 0.0000000e+00 
0.0000000e+00 -2.4891668e-03 0.0000000e+00 
0.0000000e+00 -2.4812445e-03 0.0000000e+00 
0.0000000e+00 -2.4474456e-03 0.0000000e+00 
0.0000000e+00 -2.1003385e-03 0.0000000e+00 
0.0000000e+00 -2.4308534e-03 0.0000000e+00 
0.0000000e+00 -2.4886641e-03 0.0000000e+00 
0.0000000e+00 -2.0750724e-03 0.0000000e+00 
0.0000000e+00 -2.4463977e-03 0.0000000e+00 
0.0000000e+00 -2.5093108e-03 0.0000000e+00 
0.0000000e+00 -2.4367503e-03 0.0000000e+00 
0.0000000e+00 -2.7717080e-03 0.0000000e+00 
0.0000000e+00 -2.4901780e-03 0.0000000e+00 
0.0000000e+00 -2.8961767e-03 0.0000000e+00 
0.0000000e+00 -3.0454863e-03 0.0000000e+00 
0.0000000e+00 -3.2281599e-03 0.0000000e+00 
0.0000000e+00 -3.5403927e-03 0.0000000e+00 
0.0000000e+00 -3.1253286e-03 0.0000000e+00 
0.0000000e+00 -3.1096942e-03 0.0000000e+00 
0.0000000e+00 -2.3834498e-03 0.0000000e+00 
0.0000000e+00 -2.5349625e-03 0.0000000e+00 
0.0000000e+00 -2.2546605e-03 0.0000000e+00 
0.0000000e+00 -2.7040041e-03 0.0000000e+00 
0.0000000e+00 -2.5637960e-03 0.0000000e+00 
0.0000000e+00 -2.9498390e-03 0.0000000e+00 
0.0000000e+00 -2.7384220e-03 0.0000000e+00 
0.0000000e+00 -3.0634517e-03 0.0000000e+00 
0.0000000e+00 -2.6892154e-03 0.0000000e+00 
0.0000000e+00 -3.0655502e-03 0.0000000e+00 
0.0000000e+00 -2.8804627e-03 0.0000000e+00 
0.0000000e+00 -2.9846299e-03 0.0000000e+00 
0.0000000e+00 -2.8704964e-03 0.0000000e+00 
0.0000000e+00 -2.8305380e-03 0.0000000e+00 
0.0000000e+00 -2.4898462e-03 0.0000000e+00 
0.0000000e+00 -2.5606391e-03 0.0000000e+00 
0.0000000e+00 -2.5264989e-03 0.0000000e+00 
0.0000000e+00 -2.6784688e-03 0.0000000e+00 
0.0000000e+00 -2.8323410e-03 0.0000000e+00 
0.0000000e+00 -3.1117143e-03 0.0000000e+00 
8.7765392e-07 -2.7585651e-03 0.0000000e+00 
4.5328619e-07 -2.9484226e-04 0.0000000e+00 
-9.7963357e-06 -1.5710320e-04 0.0000000e+00 
9.9250137e-06 -3.4671163e-03 0.0000000e+00 
-3.8826752e-06 -3.7410813e-03 0.0000000e+00 
6.3650043e-07 -2.9170411e-03 0.0000000e+00 
-3.2767487e-06 -2.0710421e-03 0.0000000e+00 
3.9775036e-06 -7.5348211e-04 0.0000000e+00 
9.1099605e-07 -3.7284655e-04 0.0000000e+00 
2.8608367e-06 1.0766725e-04 0.0000000e+00 
6.8183613e-06 -1.2019441e-03 0.0000000e+00 
-2.7545181e-07 -2.3530750e-03 0.0000000e+00 
-5.4085003e-06 -4.8727915e-04 0.0000000e+00 
-2.1369949e-06 -1.0920322e-03 0.0000000e+00 
1.1909619e-05 -3.3853808e-03 0.0000000e+00 
6.2534846e-06 -3.3880965e-04 0.0000000e+00 
-4.3297114e-06 -1.6915172e-04 0.0000000e+00 
-6.9527314e-06 -3.4884240e-03 0.0000000e+00 
2.5459831e-06 -2.3465126e-03 0.0000000e+00 
-1.0107534e-06 -4.8105099e-04 0.0000000e+00 
1.7120843e-05 -3.2318993e-03 0.0000000e+00 
4.0727423e-06 -2.0619207e-03 0.0000000e+00 
2.1199005e-06 -3.6623311e-04 0.0000000e+00 
-3.2369560e-06 -1.1885156e-03 0.0000000e+00 
-4.2050224e-06 -2.9185088e-03 0.0000000e+00 
2.3109390e-06 2.0693663e-04 0.0000000e+00 
1.0601714e-05 -3.3584917e-03 0.0000000e+00 
3.0453036e-06 1.2781480e-04 0.0000000e+00 
3.6137135e-05 -3.1602010e-03 0.0000000e+00 
-5.8091091e-06 -2.3733207e-04 0.0000000e+00 
1.7617866e-06 -2.5162526e-04 0.0000000e+00 
-2.1025319e-06 -2.7291114e-03 0.0000000e+00 
-3.6137695e-05 -3.3513706e-03 0.0000000e+00 
9.9325262e-06 -3.2230834e-03 0.0000000e+00 
-1.3226513e-05 -3.3149028e-03 0.0000000e+00 
6.3014368e-06 -3.2355024e-03 0.0000000e+00 
-2.1952506e-05 -3.4491178e-03 0.0000000e+00 
-1.9756108e-06 -3.3256139e-03 0.0000000e+00 
-2.3550665e-06 -3.4618848e-03 0.0000000e+00 
6.6356538e-06 -3.2332661e-03 0.0000000e+00 
1.3788900e-05 -3.3924505e-03 0.0000000e+00 
4.2695392e-06 -3.3292416e-03 0.0000000e+00 
-1.9385534e-05 -3.4166756e-03 0.0000000e+00 
-6.1593632e-06 -3.5735916e-03 0.0000000e+00 
1.3485506e-05 -3.7484376e-03 0.0000000e+00 
3.5503544e-06 -3.7153508e-03 0.0000000e+00 
-2.7940048e-06 -3.5023375e-03 0.0000000e+00 
-6.4680091e-07 -3.2327627e-03 0.0000000e+00 
5.0249264e-06 -3.0389205e-03 0.0000000e+00 
7.1402442e-06 -2.9633958e-03 0.0000000e+00 
-5.0269291e-06 -2.9149537e-03 0.0000000e+00 
-8.9105397e-06 -2.8269216e-03 0.0000000e+00 
-9.7160000e-07 -2.6381745e-03 0.0000000e+00 
4.2155943e-06 -2.4651045e-03 0.0000000e+00 
9.1471120e-06 -2.3507918e-03 0.0000000e+00 
1.0642840e-06 -2.3483939e-03 0.0000000e+00 
-4.4674111e-06 -2.3690413e-03 0.0000000e+00 
-3.5528426e-06 -2.2990701e-03 0.0000000e+00 
-9.4439832e-07 -2.0771343e-03 0.0000000e+00 
4.8038885e-07 -1.7443154e-03 0.0000000e+00 
-2.6731423e-06 -1.4188444e-03 0.0000000e+00 
-8.4985209e-07 -1.2285652e-03 0.0000000e+00 
9.5704236e-06 -1.1995677e-03 0.0000000e+00 
3.6534154e-06 -1.2597655e-03 0.0000000e+00 
-6.8833961e-06 -1.2990225e-03 0.0000000e+00 
-5.2521787e-06 -1.2366866e-03 0.0000000e+00 
-3.8759795e-06 -1.0881688e-03 0.0000000e+00 
-1.9647086e-06 -9.0160861e-04 0.0000000e+00 
1.0003396e-05 -7.6832110e-04 0.0000000e+00 
2.4143303e-06 -6.8514963e-04 0.0000000e+00 
-5.0668632e-06 -6.4140616e-04 0.0000000e+00 
-1.7819295e-06 -5.7968986e-04 0.0000000e+00 
-1.8887534e-06 -4.8619174e-04 0.0000000e+00 
2.3062767e-06 -3.8123355e-04 0.0000000e+00 
3.5838220e-06 -3.0290181e-04 0.0000000e+00 
4.0656892e-06 -3.0564936e-04 0.0000000e+00 
1.9175702e-06 -3.6526594e-04 0.0000000e+00 
-5.6538067e-07 -4.3752315e-04 0.0000000e+00 
3.8065201e-07 -4.4919917e-04 0.0000000e+00 
-3.5553444e-06 -3.5207049e-04 0.0000000e+00 
-8.1746257e-06 -1.7655538e-04 0.0000000e+00 
-2.3226553e-06 9.6147587e-06 0.0000000e+00 
-1.1046710e-06 1.0667563e-04 0.0000000e+00 
8.3364768e-07 7.7471261e-05 0.0000000e+00 
5.0196713e-06 -7.5634802e-05 0.0000000e+00 
-5.4449600e-07 -2.3844175e-04 0.0000000e+00 
3.7391328e-07 -3.4936008e-04 0.0000000e+00 
1.2662678e-06 -3.0973041e-04 0.0000000e+00 
2.9425062e-06 -1.5598878e-04 0.0000000e+00 
-3.2183362e-07 4.6080804e-05 0.0000000e+00 
-2.9372777e-07 2.1006966e-04 0.0000000e+00 
-5.0042750e-06 2.2193203e-04 0.0000000e+00 
-9.6905853e-07 1.2003826e-04 0.0000000e+00 
1.1071495e-05 -3.4123159e-03 0.0000000e+00 
7.8497878e-06 -3.2192322e-03 0.0000000e+00 
3.1529919e-06 -3.0352690e-03 0.0000000e+00 
5.8448200e-06 -6.2855921e-04 0.0000000e+00 
-1.3777826e-05 -3.3566728e-03 0.0000000e+00 
-6.4877627e-06 -2.6492642e-03 0.0000000e+00 
-2.7673925e-06 -2.3619197e-03 0.0000000e+00 
1.0885514e-07 -7.5635151e-05 0.0000000e+00 
-1.6168703e-06 -1.4322976e-03 0.0000000e+00 
7.3560209e-06 -1.2973509e-03 0.0000000e+00 
1.5543693e-06 -3.1029404e-04 0.0000000e+00 
-2.9098926e-06 -4.4384168e-04 0.0000000e+00 
-3.5145858e-06 -1.5437066e-04 0.0000000e+00 
1.4642268e-06 -2.5781628e-04 0.0000000e+00 
-3.1627715e-07 -3.5563833e-04 0.0000000e+00 
-9.0756048e-06 -1.2430606e-03 0.0000000e+00 
-6.1663063e-06 -3.6088626e-03 0.0000000e+00 
8.1590897e-06 -7.6794197e-05 0.0000000e+00 
1.3889133e-06 1.1897156e-04 0.0000000e+00 
1.9558579e-06 -2.3299515e-04 0.0000000e+00 
-4.1919152e-06 -3.3173880e-03 0.0000000e+00 
1.1545559e-05 -3.1824894e-03 0.0000000e+00 
-1.3414737e-05 -3.1541500e-03 0.0000000e+00 
1.1773647e-06 2.5281389e-04 0.0000000e+00 
1.1083993e-06 -4.4409691e-05 0.0000000e+00 
9.7579992e-08 -2.9986448e-04 0.0000000e+00 
-9.0583981e-06 -5.7733769e-04 0.0000000e+00 
3.3301858e-06 -1.2281967e-03 0.0000000e+00 
4.3961818e-06 -2.2994219e-03 0.0000000e+00 
9.6791155e-06 -2.4538264e-03 0.0000000e+00 
4.8833672e-06 -2.9652712e-03 0.0000000e+00 
1.2415896e-05 -3.3480381e-03 0.0000000e+00 
-4.7682295e-07 2.1797746e-04 0.0000000e+00 
-1.7779598e-06 6.4100750e-05 0.0000000e+00 
3.5861744e-06 1.0823870e-04 0.0000000e+00 
-5.1933830e-06 1.9903187e-04 0.0000000e+00 
-6.0969383e-06 -3.4563995e-03 0.0000000e+00 
-1.3797148e-05 -3.2179093e-03 0.0000000e+00 
-1.1466367e-06 -1.4223243e-04 0.0000000e+00 
-4.1637171e-07 -3.3877496e-04 0.0000000e+00 
1.0163405e-05 -2.1979639e-04 0.0000000e+00 
7.5241296e-06 6.2101346e-05 0.0000000e+00 
-5.2110954e-06 3.3576639e-06 0.0000000e+00 
-1.0025610e-06 -1.7075495e-04 0.0000000e+00 
1.5328434e-06 9.4484050e-05 0.0000000e+00 
2.2876577e-06 4.5999535e-05 0.0000000e+00 
6.3765481e-07 -1.7518502e-04 0.0000000e+00 
4.0381917e-07 -7.5691595e-04 0.0000000e+00 
-9.2726978e-06 -9.0225646e-04 0.0000000e+00 
8.8919423e-06 -6.2664243e-04 0.0000000e+00 
-5.1620541e-06 -1.4077475e-03 0.0000000e+00 
5.6791719e-06 -1.2616727e-03 0.0000000e+00 
-9.0989619e-07 -1.2996543e-03 0.0000000e+00 
8.7691560e-06 -3.0486828e-03 0.0000000e+00 
-9.8326736e-06 -2.8172242e-03 0.0000000e+00 
-1.6124029e-06 -2.6355349e-03 0.0000000e+00 
-8.3105203e-07 -2.3482139e-03 0.0000000e+00 
3.0634037e-06 -2.3792873e-03 0.0000000e+00 
-4.9367750e-06 -1.7340472e-03 0.0000000e+00 
-4.6941636e-06 -2.3589362e-03 0.0000000e+00 
2.1332728e-06 -3.4030452e-03 0.0000000e+00 
-1.2040914e-06 -3.4656373e-03 0.0000000e+00 
-5.0157297e-07 -3.4008827e-03 0.0000000e+00 
2.7618235e-06 -3.5111532e-03 0.0000000e+00 
-3.7766836e-06 -3.7147517e-03 0.0000000e+00 
-4.6600172e-07 -3.0376907e-03 0.0000000e+00 
-8.5035263e-06 -6.3162314e-04 0.0000000e+00 
2.4006235e-06 -3.7162442e-04 0.0000000e+00 
5.6789548e-07 -2.9781737e-04 0.0000000e+00 
4.6668924e-06 -4.4222386e-04 0.0000000e+00 
9.7455313e-07 -3.7370543e-03 0.0000000e+00 
1.9249730e-06 -3.7056410e-03 0.0000000e+00 
3.4569375e-06 -1.2917983e-03 0.0000000e+00 
-3.0655931e-06 -2.6509117e-03 0.0000000e+00 
-8.0957379e-06 -3.5382068e-04 0.0000000e+00 
4.9713140e-06 -7.8108875e-05 0.0000000e+00 
-4.6579989e-06 -3.1041758e-04 0.0000000e+00 
3.3740378e-06 -1.4239016e-03 0.0000000e+00 
-3.9689307e-06 -4.3498687e-04 0.0000000e+00 
1.9965373e-06 -3.6713778e-04 0.0000000e+00 
-5.8475251e-07 -6.8282482e-04 0.0000000e+00 
1.0736120e-05 -9.0957480e-04 0.0000000e+00 
-1.9826271e-06 -4.8216453e-04 0.0000000e+00 
-4.9962623e-06 -1.1977640e-03 0.0000000e+00 
5.3730651e-07 -2.0847307e-03 0.0000000e+00 
5.2930686e-06 -2.3511837e-03 0.0000000e+00 
1.3866190e-07 -2.9174902e-03 0.0000000e+00 
-8.7928420e-06 -3.4170018e-03 0.0000000e+00 
-1.2714714e-06 -3.3321111e-03 0.0000000e+00 
1.0160986e-05 -3.4596752e-03 0.0000000e+00 
5.3094204e-06 -4.5238298e-04 0.0000000e+00 
-4.8978636e-06 -3.2289729e-03 0.0000000e+00 
2.1439982e-06 -1.0850524e-03 0.0000000e+00 
-2.2552009e-05 -3.3394215e-03 0.0000000e+00 
1.6791304e-05 -2.7528792e-03 0.0000000e+00 
-6.9149405e-06 -3.1612534e-04 0.0000000e+00 
2.3548778e-06 -3.3704394e-03 0.0000000e+00 
4.0761148e-07 -3.3134124e-03 0.0000000e+00 
-3.1488238e-05 -3.1518671e-03 0.0000000e+00 
-3.2194685e-06 -2.5506460e-04 0.0000000e+00 
-2.5126114e-06 -3.5882469e-03 0.0000000e+00 
3.0168988e-07 -3.2245682e-03 0.0000000e+00 
-5.8176779e-06 -2.7481435e-04 0.0000000e+00 
-1.7722311e-06 -3.4572084e-03 0.0000000e+00 
4.5732359e-06 -3.4011297e-03 0.0000000e+00 
9.1523589e-06 -3.3200607e-03 0.0000000e+00 
-1.2597873e-05 -3.7446234e-03 0.0000000e+00 
4.9453442e-06 -1.2445552e-03 0.0000000e+00 
7.4834452e-07 -3.5012700e-03 0.0000000e+00 
3.6019767e-06 -3.2384936e-03 0.0000000e+00 
4.5098989e-07 -2.9521165e-03 0.0000000e+00 
-2.8918112e-06 -2.8230250e-03 0.0000000e+00 
-1.7623478e-06 -2.4601619e-03 0.0000000e+00 
2.7614283e-06 -2.3381650e-03 0.0000000e+00 
5.4013303e-06 -8.0343998e-05 0.0000000e+00 
-7.2315611e-06 -2.2995844e-03 0.0000000e+00 
3.3080437e-06 -1.7609955e-03 0.0000000e+00 
-4.8052316e-06 -1.2354521e-03 0.0000000e+00 
-5.0100375e-06 -7.6142879e-04 0.0000000e+00 
1.2073920e-06 -1.2521397e-03 0.0000000e+00 
-5.8659393e-06 -1.0859786e-03 0.0000000e+00 
6.4186174e-06 -6.7224615e-04 0.0000000e+00 
3.9566230e-06 -5.6719262e-04 0.0000000e+00 
-7.6330998e-06 -3.7980659e-04 0.0000000e+00 
1.8515525e-06 -3.0752723e-04 0.0000000e+00 
-3.1904722e-07 -8.4250942e-06 0.0000000e+00 
-7.0370709e-07 -4.3191054e-04 0.0000000e+00 
-4.3661926e-06 -3.4855268e-04 0.0000000e+00 
-1.7981902e-06 -7.0501905e-05 0.0000000e+00 
2.5442944e-06 2.3154545e-04 0.0000000e+00 
-4.1907483e-06 5.9129743e-05 0.0000000e+00 
5.6540325e-06 -2.5047670e-04 0.0000000e+00 
-5.0488944e-07 9.1852788e-05 0.0000000e+00 
1.4164472e-07 -3.0272704e-04 0.0000000e+00 
-2.8881243e-06 -2.3913404e-04 0.0000000e+00 
1.9273318e-06 -2.1743865e-04 0.0000000e+00 
-3.8462626e-05 -2.6555911e-03 0.0000000e+00 
2.8405471e-05 -2.6680767e-03 0.0000000e+00 
-4.8638543e-05 -2.7121070e-03 0.0000000e+00 
5.9878548e-05 -2.6514183e-03 0.0000000e+00 
1.1378625e-05 -2.3782226e-04 0.0000000e+00 
-6.0423922e-06 -2.2990050e-04 0.0000000e+00 
-1.4732315e-06 -2.6310585e-04 0.0000000e+00 
1.6920287e-04 -3.1096642e-03 0.0000000e+00 
4.2443194e-06 -2.4360255e-03 0.0000000e+00 
1.0180098e-05 -2.4181930e-03 0.0000000e+00 
2.6194954e-05 -2.4056511e-03 0.0000000e+00 
1.6010776e-05 -2.7901509e-03 0.0000000e+00 
1.1895156e-06 -2.6094455e-03 0.0000000e+00 
3.0605552e-05 -2.8392689e-03 0.0000000e+00 
5.2137025e-06 -3.1052860e-03 0.0000000e+00 
5.7797060e-06 -2.6182316e-03 0.0000000e+00 
5.5572245e-06 -2.9557261e-03 0.0000000e+00 
-1.1352760e-05 -2.4851589e-03 0.0000000e+00 
1.8332206e-05 -3.0787312e-03 0.0000000e+00 
-5.4390646e-05 -2.5807929e-03 0.0000000e+00 
-1.8797387e-05 -2.8803353e-03 0.0000000e+00 
1.3597865e-05 -2.6217410e-03 0.0000000e+00 
-3.8501177e-05 -2.8049871e-03 0.0000000e+00 
-9.5200485e-06 -2.6831762e-03 0.0000000e+00 
-1.7355249e-05 -2.3533243e-03 0.0000000e+00 
7.9766960e-06 -2.9028214e-03 0.0000000e+00 
1.7005787e-05 -2.9332072e-03 0.0000000e+00 
-2.3804630e-06 -3.1318183e-03 0.0000000e+00 
-9.2898654e-06 -3.2195859e-03 0.0000000e+00 
1.2721324e-05 -2.6027572e-03 0.0000000e+00 
8.3568597e-07 -2.5759228e-03 0.0000000e+00 
3.4582892e-05 -2.4055729e-03 0.0000000e+00 
-3.1786814e-05 -2.9727910e-03 0.0000000e+00 
5.4088916e-05 -2.6344100e-03 0.0000000e+00 
3.7458267e-05 -2.1909862e-03 0.0000000e+00 
3.7748963e-05 -2.1992233e-03 0.0000000e+00 
-3.4114071e-06 -2.9841159e-03 0.0000000e+00 
-2.6647814e-04 -3.0181964e-03 0.0000000e+00 
3.4718971e-06 -2.4109466e-03 0.0000000e+00 
-2.6096988e-05 -2.1519570e-03 0.0000000e+00 
-4.9879941e-06 -2.4317682e-03 0.0000000e+00 
-1.7277777e-06 -2.5402026e-03 0.0000000e+00 
6.2179520e-06 -2.5682936e-03 0.0000000e+00 
-9.9805266e-07 -2.3710532e-03 0.0000000e+00 
-1.5825293e-05 -2.5186050e-03 0.0000000e+00 
-1.3155765e-06 -2.4439406e-03 0.0000000e+00 
3.0399806e-05 -2.4377778e-03 0.0000000e+00 
2.9307223e-06 -2.6464630e-03 0.0000000e+00 
-2.9629743e-06 -2.7283949e-03 0.0000000e+00 
-1.7037590e-05 -2.6258891e-03 0.0000000e+00 
2.7940432e-06 -2.4695254e-03 0.0000000e+00 
2.1111900e-05 -2.5724107e-03 0.0000000e+00 
1.3007118e-05 -2.9152262e-03 0.0000000e+00 
-8.3460991e-06 -3.0936198e-03 0.0000000e+00 
-9.2703640e-06 -3.0528263e-03 0.0000000e+00 
-1.5275780e-05 -3.0470020e-03 0.0000000e+00 
1.3655948e-06 -3.2736377e-03 0.0000000e+00 
1.3363817e-05 -3.5324839e-03 0.0000000e+00 
-3.8860990e-06 -3.4825720e-03 0.0000000e+00 
1.8000641e-05 -3.2346759e-03 0.0000000e+00 
1.8076344e-05 -3.1271281e-03 0.0000000e+00 
-1.8055081e-05 -3.1287104e-03 0.0000000e+00 
-1.2643860e-05 -3.0880016e-03 0.0000000e+00 
-6.0540115e-06 -2.7037293e-03 0.0000000e+00 
1.3765745e-05 -2.4172270e-03 0.0000000e+00 