# vtk DataFile Version 4.0
vtk output
ASCII
DATASET UNSTRUCTURED_GRID
POINTS 628 float
0.0000000e+00 0.0000000e+00 0.0000000e+00 
1.0000000e+00 0.0000000e+00 0.0000000e+00 
1.0000000e+00 1.0000000e+01 0.0000000e+00 
0.0000000e+00 1.0000000e+01 0.0000000e+00 
0.0000000e+00 5.0000000e+00 0.0000000e+00 
1.0000000e+00 5.0000000e+00 0.0000000e+00 
1.4285715e-01 0.0000000e+00 0.0000000e+00 
2.8571430e-01 0.0000000e+00 0.0000000e+00 
4.2857143e-01 0.0000000e+00 0.0000000e+00 
5.7142860e-01 0.0000000e+00 0.0000000e+00 
7.1428573e-01 0.0000000e+00 0.0000000e+00 
8.5714287e-01 0.0000000e+00 0.0000000e+00 
8.5714287e-01 1.0000000e+01 0.0000000e+00 
7.1428573e-01 1.0000000e+01 0.0000000e+00 
5.7142860e-01 1.0000000e+01 0.0000000e+00 
4.2857143e-01 1.0000000e+01 0.0000000e+00 
2.8571430e-01 1.0000000e+01 0.0000000e+00 
1.4285715e-01 1.0000000e+01 0.0000000e+00 
1.4285715e-01 5.0000000e+00 0.0000000e+00 
2.8571430e-01 5.0000000e+00 0.0000000e+00 
4.2857143e-01 5.0000000e+00 0.0000000e+00 
5.7142860e-01 5.0000000e+00 0.0000000e+00 
7.1428573e-01 5.0000000e+00 0.0000000e+00 
8.5714287e-01 5.0000000e+00 0.0000000e+00 
0.0000000e+00 4.8529410e+00 0.0000000e+00 
0.0000000e+00 4.7058825e+00 0.0000000e+00 
0.0000000e+00 4.5588236e+00 0.0000000e+00 
0.0000000e+00 4.4117646e+00 0.0000000e+00 
0.0000000e+00 4.2647057e+00 0.0000000e+00 
0.0000000e+00 4.1176472e+00 0.0000000e+00 
0.0000000e+00 3.9705882e+00 0.0000000e+00 
0.0000000e+00 3.8235295e+00 0.0000000e+00 
0.0000000e+00 3.6764705e+00 0.0000000e+00 
0.0000000e+00 3.5294118e+00 0.0000000e+00 
0.0000000e+00 3.3823528e+00 0.0000000e+00 
0.0000000e+00 3.2352941e+00 0.0000000e+00 
0.0000000e+00 3.0882354e+00 0.0000000e+00 
0.0000000e+00 2.9411764e+00 0.0000000e+00 
0.0000000e+00 2.7941177e+00 0.0000000e+00 
0.0000000e+00 2.6470587e+00 0.0000000e+00 
0.0000000e+00 2.5000000e+00 0.0000000e+00 
0.0000000e+00 2.3529413e+00 0.0000000e+00 
0.0000000e+00 2.2058823e+00 0.0000000e+00 
0.0000000e+00 2.0588236e+00 0.0000000e+00 
0.0000000e+00 1.9117647e+00 0.0000000e+00 
0.0000000e+00 1.7647059e+00 0.0000000e+00 
0.0000000e+00 1.6176471e+00 0.0000000e+00 
0.0000000e+00 1.4705882e+00 0.0000000e+00 
0.0000000e+00 1.3235294e+00 0.0000000e+00 
0.0000000e+00 1.1764706e+00 0.0000000e+00 
0.0000000e+00 1.0294118e+00 0.0000000e+00 
0.0000000e+00 8.8235295e-01 0.0000000e+00 
0.0000000e+00 7.3529410e-01 0.0000000e+00 
0.0000000e+00 5.8823532e-01 0.0000000e+00 
0.0000000e+00 4.4117647e-01 0.0000000e+00 
0.0000000e+00 2.9411766e-01 0.0000000e+00 
0.0000000e+00 1.4705883e-01 0.0000000e+00 
1.0000000e+00 1.4705883e-01 0.0000000e+00 
1.0000000e+00 2.9411766e-01 0.0000000e+00 
1.0000000e+00 4.4117647e-01 0.0000000e+00 
1.0000000e+00 5.8823532e-01 0.0000000e+00 
1.0000000e+00 7.3529410e-01 0.0000000e+00 
1.0000000e+00 8.8235295e-01 0.0000000e+00 
1.0000000e+00 1.0294118e+00 0.0000000e+00 
1.0000000e+00 1.1764706e+00 0.0000000e+00 
1.0000000e+00 1.3235294e+00 0.0000000e+00 
1.0000000e+00 1.4705882e+00 0.0000000e+00 
1.0000000e+00 1.6176471e+00 0.0000000e+00 
1.0000000e+00 1.7647059e+00 0.0000000e+00 
1.0000000e+00 1.9117647e+00 0.0000000e+00 
1.0000000e+00 2.0588236e+00 0.0000000e+00 
1.0000000e+00 2.2058823e+00 0.0000000e+00 
1.0000000e+00 2.3529413e+00 0.0000000e+00 
1.0000000e+00 2.5000000e+00 0.0000000e+00 
1.0000000e+00 2.6470587e+00 0.0000000e+00 
1.0000000e+00 2.7941177e+00 0.0000000e+00 
1.0000000e+00 2.9411764e+00 0.0000000e+00 
1.0000000e+00 3.0882354e+00 0.0000000e+00 
1.0000000e+00 3.2352941e+00 0.0000000e+00 
1.0000000e+00 3.3823528e+00 0.0000000e+00 
1.0000000e+00 3.5294118e+00 0.0000000e+00 
1.0000000e+00 3.6764705e+00 0.0000000e+00 
1.0000000e+00 3.8235295e+00 0.0000000e+00 
1.0000000e+00 3.9705882e+00 0.0000000e+00 
1.0000000e+00 4.1176472e+00 0.0000000e+00 
1.0000000e+00 4.2647057e+00 0.0000000e+00 
1.0000000e+00 4.4117646e+00 0.0000000e+00 
1.0000000e+00 4.5588236e+00 0.0000000e+00 
1.0000000e+00 4.7058825e+00 0.0000000e+00 
1.0000000e+00 4.8529410e+00 0.0000000e+00 
0.0000000e+00 9.8529415e+00 0.0000000e+00 
0.0000000e+00 9.7058821e+00 0.0000000e+00 
0.0000000e+00 9.5588236e+00 0.0000000e+00 
0.0000000e+00 9.4117651e+00 0.0000000e+00 
0.0000000e+00 9.2647057e+00 0.0000000e+00 
0.0000000e+00 9.1176472e+00 0.0000000e+00 
0.0000000e+00 8.9705887e+00 0.0000000e+00 
0.0000000e+00 8.8235292e+00 0.0000000e+00 
0.0000000e+00 8.6764708e+00 0.0000000e+00 
0.0000000e+00 8.5294113e+00 0.0000000e+00 
0.0000000e+00 8.3823528e+00 0.0000000e+00 
0.0000000e+00 8.2352943e+00 0.0000000e+00 
0.0000000e+00 8.0882349e+00 0.0000000e+00 
0.0000000e+00 7.9411764e+00 0.0000000e+00 
0.0000000e+00 7.7941175e+00 0.0000000e+00 
0.0000000e+00 7.6470590e+00 0.0000000e+00 
0.0000000e+00 7.5000000e+00 0.0000000e+00 
0.0000000e+00 7.3529410e+00 0.0000000e+00 
0.0000000e+00 7.2058825e+00 0.0000000e+00 
0.0000000e+00 7.0588236e+00 0.0000000e+00 
0.0000000e+00 6.9117646e+00 0.0000000e+00 
0.0000000e+00 6.7647057e+00 0.0000000e+00 
0.0000000e+00 6.6176472e+00 0.0000000e+00 
0.0000000e+00 6.4705882e+00 0.0000000e+00 
0.0000000e+00 6.3235292e+00 0.0000000e+00 
0.0000000e+00 6.1764708e+00 0.0000000e+00 
0.0000000e+00 6.0294118e+00 0.0000000e+00 
0.0000000e+00 5.8823528e+00 0.0000000e+00 
0.0000000e+00 5.7352943e+00 0.0000000e+00 
0.0000000e+00 5.5882354e+00 0.0000000e+00 
0.0000000e+00 5.4411764e+00 0.0000000e+00 
0.0000000e+00 5.2941175e+00 0.0000000e+00 
0.0000000e+00 5.1470590e+00 0.0000000e+00 
1.0000000e+00 5.1470590e+00 0.0000000e+00 
1.0000000e+00 5.2941175e+00 0.0000000e+00 
1.0000000e+00 5.4411764e+00 0.0000000e+00 
1.0000000e+00 5.5882354e+00 0.0000000e+00 
1.0000000e+00 5.7352943e+00 0.0000000e+00 
1.0000000e+00 5.8823528e+00 0.0000000e+00 
1.0000000e+00 6.0294118e+00 0.0000000e+00 
1.0000000e+00 6.1764708e+00 0.0000000e+00 
1.0000000e+00 6.3235292e+00 0.0000000e+00 
1.0000000e+00 6.4705882e+00 0.0000000e+00 
1.0000000e+00 6.6176472e+00 0.0000000e+00 
1.0000000e+00 6.7647057e+00 0.0000000e+00 
1.0000000e+00 6.9117646e+00 0.0000000e+00 
1.0000000e+00 7.0588236e+00 0.0000000e+00 
1.0000000e+00 7.2058825e+00 0.0000000e+00 
1.0000000e+00 7.3529410e+00 0.0000000e+00 
1.0000000e+00 7.5000000e+00 0.0000000e+00 
1.0000000e+00 7.6470590e+00 0.0000000e+00 
1.0000000e+00 7.7941175e+00 0.0000000e+00 
1.0000000e+00 7.9411764e+00 0.0000000e+00 
1.0000000e+00 8.0882349e+00 0.0000000e+00 
1.0000000e+00 8.2352943e+00 0.0000000e+00 
1.0000000e+00 8.3823528e+00 0.0000000e+00 
1.0000000e+00 8.5294113e+00 0.0000000e+00 
1.0000000e+00 8.6764708e+00 0.0000000e+00 
1.0000000e+00 8.8235292e+00 0.0000000e+00 
1.0000000e+00 8.9705887e+00 0.0000000e+00 
1.0000000e+00 9.1176472e+00 0.0000000e+00 
1.0000000e+00 9.2647057e+00 0.0000000e+00 
1.0000000e+00 9.4117651e+00 0.0000000e+00 
1.0000000e+00 9.5588236e+00 0.0000000e+00 
1.0000000e+00 9.7058821e+00 0.0000000e+00 
1.0000000e+00 9.8529415e+00 0.0000000e+00 
5.0212586e-01 4.8703580e+00 0.0000000e+00 
5.1041055e-01 1.3732977e-01 0.0000000e+00 
1.3055173e-01 6.6499180e-01 0.0000000e+00 
8.7327349e-01 4.3372407e+00 0.0000000e+00 
8.7331611e-01 3.8958969e+00 0.0000000e+00 
8.7347627e-01 3.4562511e+00 0.0000000e+00 
8.7357801e-01 2.8680170e+00 0.0000000e+00 
1.2843554e-01 2.1327813e+00 0.0000000e+00 
1.2975387e-01 1.5449892e+00 0.0000000e+00 
1.3308091e-01 1.1039938e+00 0.0000000e+00 
1.2937543e-01 2.5737903e+00 0.0000000e+00 
1.2735668e-01 3.1617646e+00 0.0000000e+00 
8.7375563e-01 1.8386052e+00 0.0000000e+00 
8.7355548e-01 2.2778318e+00 0.0000000e+00 
1.2753446e-01 4.1915216e+00 0.0000000e+00 
8.7915283e-01 8.0759794e-01 0.0000000e+00 
8.8115031e-01 1.2498868e+00 0.0000000e+00 
1.2781374e-01 3.7501886e+00 0.0000000e+00 
8.7352717e-01 3.1621344e+00 0.0000000e+00 
1.2961270e-01 1.8389882e+00 0.0000000e+00 
1.2731366e-01 4.4857054e+00 0.0000000e+00 
1.2885660e-01 2.8684020e+00 0.0000000e+00 
8.7380636e-01 1.5444875e+00 0.0000000e+00 
8.7362880e-01 2.5738993e+00 0.0000000e+00 
1.2735668e-01 3.4558823e+00 0.0000000e+00 
8.7264335e-01 5.1470590e-01 0.0000000e+00 
8.7611687e-01 4.6317782e+00 0.0000000e+00 
1.3446054e-01 3.7013325e-01 0.0000000e+00 
1.2296320e-01 4.7760825e+00 0.0000000e+00 
8.8210768e-01 2.2118840e-01 0.0000000e+00 
2.1798968e-01 1.0548568e-01 0.0000000e+00 
7.7656764e-01 4.8704844e+00 0.0000000e+00 
1.2667844e-01 4.6331582e+00 0.0000000e+00 
2.5353336e-01 4.5619426e+00 0.0000000e+00 
2.5451174e-01 4.4132285e+00 0.0000000e+00 
3.8040194e-01 4.4881525e+00 0.0000000e+00 
3.8161713e-01 4.3403850e+00 0.0000000e+00 
5.0654775e-01 4.4141955e+00 0.0000000e+00 
5.0629890e-01 4.2659345e+00 0.0000000e+00 
5.0658631e-01 4.5616083e+00 0.0000000e+00 
3.8184282e-01 4.1932206e+00 0.0000000e+00 
5.0831819e-01 4.1188259e+00 0.0000000e+00 
3.8249290e-01 4.0462651e+00 0.0000000e+00 
5.0818664e-01 3.9732957e+00 0.0000000e+00 
3.8265404e-01 3.8991868e+00 0.0000000e+00 
5.0769192e-01 3.8249388e+00 0.0000000e+00 
3.8307732e-01 3.7517705e+00 0.0000000e+00 
5.0990808e-01 3.6776419e+00 0.0000000e+00 
3.8416636e-01 3.6049941e+00 0.0000000e+00 
5.1177651e-01 3.5322094e+00 0.0000000e+00 
3.8460994e-01 3.4584429e+00 0.0000000e+00 
5.1256055e-01 3.3855147e+00 0.0000000e+00 
3.8520575e-01 3.3115354e+00 0.0000000e+00 
5.1318693e-01 3.2385471e+00 0.0000000e+00 
3.8561273e-01 3.1645203e+00 0.0000000e+00 
5.1375473e-01 3.0915136e+00 0.0000000e+00 
3.8616878e-01 3.0174749e+00 0.0000000e+00 
5.1433694e-01 2.9444630e+00 0.0000000e+00 
3.8656160e-01 2.8704205e+00 0.0000000e+00 
5.1489413e-01 2.7974076e+00 0.0000000e+00 
3.8711417e-01 2.7233641e+00 0.0000000e+00 
5.1547360e-01 2.6503508e+00 0.0000000e+00 
3.8750717e-01 2.5763063e+00 0.0000000e+00 
5.1603019e-01 2.5032935e+00 0.0000000e+00 
3.8805979e-01 2.4292488e+00 0.0000000e+00 
5.1422137e-01 2.3562264e+00 0.0000000e+00 
3.8765049e-01 2.2821872e+00 0.0000000e+00 
5.1307547e-01 2.2071202e+00 0.0000000e+00 
3.8778570e-01 2.1347876e+00 0.0000000e+00 
5.1568961e-01 2.0596735e+00 0.0000000e+00 
3.9013749e-01 1.9876142e+00 0.0000000e+00 
5.1808232e-01 1.9145784e+00 0.0000000e+00 
3.8994926e-01 1.8408588e+00 0.0000000e+00 
5.1884413e-01 1.7678982e+00 0.0000000e+00 
[...]
POINT_DATA 628
FIELD FieldData 2
VELOCITY 3 628  float
0.0000000e+00 0.0000000e+00 0.0000000e+00 
0.0000000e+00 0.0000000e+00 0.0000000e+00 
0.0000000e+00 3.4219301e-03 0.0000000e+00 
0.0000000e+00 3.5046707e-03 0.0000000e+00 
0.0000000e+00 3.5458242e-03 0.0000000e+00 
0.0000000e+00 3.5488082e-03 0.0000000e+00 
0.0000000e+00 0.0000000e+00 0.0000000e+00 
0.0000000e+00 0.0000000e+00 0.0000000e+00 
0.0000000e+00 0.0000000e+00 0.0000000e+00 
0.0000000e+00 0.0000000e+00 0.0000000e+00 
0.0000000e+00 0.0000000e+00 0.0000000e+00 
0.0000000e+00 0.0000000e+00 0.0000000e+00 
-5.2578158e-05 3.3692827e-03 0.0000000e+00 
5.1514646e-05 3.1621228e-03 0.0000000e+00 
-4.5763222e-06 3.3688718e-03 0.0000000e+00 
7.3566451e-05 3.5478256e-03 0.0000000e+00 
-9.9456833e-05 3.6857799e-03 0.0000000e+00 
-4.9375423e-05 3.1764659e-03 0.0000000e+00 
1.0320339e-05 3.4995514e-03 0.0000000e+00 
6.3123052e-06 3.4999871e-03 0.0000000e+00 
-2.3959294e-05 3.5606076e-03 0.0000000e+00 
3.3544497e-05 3.5414111e-03 0.0000000e+00 
-1.8417992e-05 3.5319009e-03 0.0000000e+00 
-4.1387307e-06 3.5155339e-03 0.0000000e+00 
0.0000000e+00 3.4313323e-03 0.0000000e+00 
0.0000000e+00 3.4075889e-03 0.0000000e+00 
0.0000000e+00 3.2622225e-03 0.0000000e+00 
0.0000000e+00 3.4933905e-03 0.0000000e+00 
0.0000000e+00 3.3640165e-03 0.0000000e+00 
0.0000000e+00 3.2364775e-03 0.0000000e+00 
0.0000000e+00 2.9974186e-03 0.0000000e+00 
0.0000000e+00 2.9730040e-03 0.0000000e+00 
0.0000000e+00 2.8448477e-03 0.0000000e+00 
0.0000000e+00 2.4549596e-03 0.0000000e+00 
0.0000000e+00 2.2934929e-03 0.0000000e+00 
0.0000000e+00 1.8735541e-03 0.0000000e+00 
0.0000000e+00 1.5644553e-03 0.0000000e+00 
0.0000000e+00 1.3136215e-03 0.0000000e+00 
0.0000000e+00 1.3744871e-03 0.0000000e+00 
0.0000000e+00 1.4224193e-03 0.0000000e+00 
0.0000000e+00 1.0876054e-03 0.0000000e+00 
0.0000000e+00 1.0700116e-03 0.0000000e+00 
0.0000000e+00 7.7107269e-04 0.0000000e+00 
0.0000000e+00 3.4298268e-04 0.0000000e+00 
0.0000000e+00 2.8197657e-04 0.0000000e+00 
0.0000000e+00 2.7575775e-04 0.0000000e+00 
0.0000000e+00 3.9483060e-04 0.0000000e+00 
0.0000000e+00 4.4520912e-04 0.0000000e+00 
0.0000000e+00 4.1900572e-04 0.0000000e+00 
0.0000000e+00 3.6758132e-04 0.0000000e+00 
0.0000000e+00 -2.2292574e-05 0.0000000e+00 
0.0000000e+00 -1.2013564e-04 0.0000000e+00 
0.0000000e+00 1.9277104e-05 0.0000000e+00 
0.0000000e+00 -8.7066866e-05 0.0000000e+00 
0.0000000e+00 1.3636671e-04 0.0000000e+00 
0.0000000e+00 3.5485748e-04 0.0000000e+00 
0.0000000e+00 4.2668922e-05 0.0000000e+00 
0.0000000e+00 9.0288690e-05 0.0000000e+00 
0.0000000e+00 3.2470070e-04 0.0000000e+00 
0.0000000e+00 1.5452446e-04 0.0000000e+00 
0.0000000e+00 -7.0832903e-05 0.0000000e+00 
0.0000000e+00 -1.4705209e-05 0.0000000e+00 
0.0000000e+00 -1.1625333e-04 0.0000000e+00 
0.0000000e+00 1.6341710e-05 0.0000000e+00 
0.0000000e+00 3.2868946e-04 0.0000000e+00 
0.0000000e+00 4.1626464e-04 0.0000000e+00 
0.0000000e+00 4.7695913e-04 0.0000000e+00 
0.0000000e+00 3.7914678e-04 0.0000000e+00 
0.0000000e+00 2.8870790e-04 0.0000000e+00 
0.0000000e+00 2.7327487e-04 0.0000000e+00 
0.0000000e+00 3.3104562e-04 0.0000000e+00 
0.0000000e+00 7.7920005e-04 0.0000000e+00 
0.0000000e+00 1.0540256e-03 0.0000000e+00 
0.0000000e+00 1.1143675e-03 0.0000000e+00 
0.0000000e+00 1.4489345e-03 0.0000000e+00 
0.0000000e+00 1.3365429e-03 0.0000000e+00 
0.0000000e+00 1.3377180e-03 0.0000000e+00 
0.0000000e+00 1.5677051e-03 0.0000000e+00 
0.0000000e+00 1.8554269e-03 0.0000000e+00 
0.0000000e+00 2.2971237e-03 0.0000000e+00 
0.0000000e+00 2.4482755e-03 0.0000000e+00 
0.0000000e+00 2.8672044e-03 0.0000000e+00 
0.0000000e+00 2.9458548e-03 0.0000000e+00 
0.0000000e+00 3.0235362e-03 0.0000000e+00 
0.0000000e+00 3.2472040e-03 0.0000000e+00 
0.0000000e+00 3.3533068e-03 0.0000000e+00 
0.0000000e+00 3.5185870e-03 0.0000000e+00 
0.0000000e+00 3.2185267e-03 0.0000000e+00 
0.0000000e+00 3.4331584e-03 0.0000000e+00 
0.0000000e+00 3.4173713e-03 0.0000000e+00 
0.0000000e+00 3.0690702e-03 0.0000000e+00 
0.0000000e+00 3.0355146e-03 0.0000000e+00 
0.0000000e+00 2.7567104e-03 0.0000000e+00 
0.0000000e+00 2.7108602e-03 0.0000000e+00 
0.0000000e+00 2.6920191e-03 0.0000000e+00 
0.0000000e+00 2.3923758e-03 0.0000000e+00 
0.0000000e+00 2.2166418e-03 0.0000000e+00 
0.0000000e+00 2.3267998e-03 0.0000000e+00 
0.0000000e+00 2.6334939e-03 0.0000000e+00 
0.0000000e+00 2.8610090e-03 0.0000000e+00 
0.0000000e+00 2.8797882e-03 0.0000000e+00 
0.0000000e+00 2.8184513e-03 0.0000000e+00 
0.0000000e+00 3.0265548e-03 0.0000000e+00 
0.0000000e+00 3.2092971e-03 0.0000000e+00 
0.0000000e+00 3.1134842e-03 0.0000000e+00 
0.0000000e+00 3.0444572e-03 0.0000000e+00 
0.0000000e+00 2.8028619e-03 0.0000000e+00 
0.0000000e+00 2.9116687e-03 0.0000000e+00 
0.0000000e+00 2.9166839e-03 0.0000000e+00 
0.0000000e+00 2.9235312e-03 0.0000000e+00 
0.0000000e+00 2.7808330e-03 0.0000000e+00 
0.0000000e+00 2.8190778e-03 0.0000000e+00 
0.0000000e+00 2.5743386e-03 0.0000000e+00 
0.0000000e+00 2.3990714e-03 0.0000000e+00 
0.0000000e+00 2.2504844e-03 0.0000000e+00 
0.0000000e+00 2.3279972e-03 0.0000000e+00 
0.0000000e+00 2.3279274e-03 0.0000000e+00 
0.0000000e+00 2.2922757e-03 0.0000000e+00 
0.0000000e+00 2.3928520e-03 0.0000000e+00 
0.0000000e+00 2.7128495e-03 0.0000000e+00 
0.0000000e+00 3.0814069e-03 0.0000000e+00 
0.0000000e+00 3.3970829e-03 0.0000000e+00 
0.0000000e+00 3.5022208e-03 0.0000000e+00 
0.0000000e+00 3.4884366e-03 0.0000000e+00 
0.0000000e+00 3.4139508e-03 0.0000000e+00 
0.0000000e+00 3.1029256e-03 0.0000000e+00 
0.0000000e+00 2.7198887e-03 0.0000000e+00 
0.0000000e+00 2.3715505e-03 0.0000000e+00 
0.0000000e+00 2.3049295e-03 0.0000000e+00 
0.0000000e+00 2.3448896e-03 0.0000000e+00 
0.0000000e+00 2.2850246e-03 0.0000000e+00 
0.0000000e+00 2.2822409e-03 0.0000000e+00 
0.0000000e+00 2.3621744e-03 0.0000000e+00 
0.0000000e+00 2.6265667e-03 0.0000000e+00 
0.0000000e+00 2.7151385e-03 0.0000000e+00 
0.0000000e+00 2.8608185e-03 0.0000000e+00 
0.0000000e+00 2.9129763e-03 0.0000000e+00 
0.0000000e+00 2.9145656e-03 0.0000000e+00 
0.0000000e+00 2.9118331e-03 0.0000000e+00 
0.0000000e+00 2.8244804e-03 0.0000000e+00 
0.0000000e+00 3.0395652e-03 0.0000000e+00 
0.0000000e+00 3.0862973e-03 0.0000000e+00 
0.0000000e+00 3.2640225e-03 0.0000000e+00 
0.0000000e+00 2.9531135e-03 0.0000000e+00 
0.0000000e+00 2.9029299e-03 0.0000000e+00 
0.0000000e+00 2.7994020e-03 0.0000000e+00 
0.0000000e+00 2.9109230e-03 0.0000000e+00 
0.0000000e+00 2.6690671e-03 0.0000000e+00 
0.0000000e+00 2.2699169e-03 0.0000000e+00 
0.0000000e+00 2.2832660e-03 0.0000000e+00 
0.0000000e+00 2.3491159e-03 0.0000000e+00 
0.0000000e+00 2.6602801e-03 0.0000000e+00 
0.0000000e+00 2.7884897e-03 0.0000000e+00 
0.0000000e+00 2.7347452e-03 0.0000000e+00 
0.0000000e+00 2.9707160e-03 0.0000000e+00 
0.0000000e+00 3.2982065e-03 0.0000000e+00 
-9.3746676e-06 3.4180724e-03 0.0000000e+00 
-2.3878201e-06 3.7623406e-05 0.0000000e+00 
8.8540783e-06 -2.3838646e-05 0.0000000e+00 
-4.1628105e-06 3.4709855e-03 0.0000000e+00 
9.3246199e-06 2.9534318e-03 0.0000000e+00 
-1.7231745e-06 2.3636003e-03 0.0000000e+00 
-1.4440012e-06 1.2458250e-03 0.0000000e+00 
5.6622939e-06 4.9834239e-04 0.0000000e+00 
4.0158229e-06 4.5959352e-04 0.0000000e+00 
-2.4344665e-06 1.7901500e-04 0.0000000e+00 
-2.2690349e-06 1.2721587e-03 0.0000000e+00 
4.0035711e-06 1.7083895e-03 0.0000000e+00 
-1.4015469e-05 2.9351935e-04 0.0000000e+00 
7.5640078e-06 9.8699925e-04 0.0000000e+00 
6.1876476e-06 3.2687276e-03 0.0000000e+00 
-2.4871756e-06 -5.4479420e-05 0.0000000e+00 
-5.8762921e-06 3.8611796e-04 0.0000000e+00 
-7.3255233e-06 3.0151706e-03 0.0000000e+00 
3.7590935e-06 1.6854150e-03 0.0000000e+00 
-1.6334019e-08 2.7868015e-04 0.0000000e+00 
4.9692408e-06 3.3818474e-03 0.0000000e+00 
-9.1211732e-06 1.2584176e-03 0.0000000e+00 
-4.7366329e-06 4.5066254e-04 0.0000000e+00 
6.8082577e-06 1.2996267e-03 0.0000000e+00 
4.6648265e-06 2.3630592e-03 0.0000000e+00 
-1.4063395e-05 -2.8304239e-06 0.0000000e+00 
2.2853112e-05 3.2938712e-03 0.0000000e+00 
-3.0604310e-06 3.2010351e-04 0.0000000e+00 
1.1774385e-05 3.4323384e-03 0.0000000e+00 
-1.6445279e-06 2.0568915e-04 0.0000000e+00 
9.8099890e-06 -1.5883550e-05 0.0000000e+00 
-1.3821992e-05 3.4447978e-03 0.0000000e+00 
-2.1034964e-05 3.2952828e-03 0.0000000e+00 
-4.4476537e-06 3.2477013e-03 0.0000000e+00 
-1.8326643e-06 3.4910056e-03 0.0000000e+00 
8.8842935e-06 3.3724075e-03 0.0000000e+00 
-6.7020678e-06 3.4750800e-03 0.0000000e+00 
7.6536890e-06 3.4747026e-03 0.0000000e+00 
8.4004587e-06 3.3617732e-03 0.0000000e+00 
-5.3765948e-06 3.2506133e-03 0.0000000e+00 
1.3812115e-06 3.2719953e-03 0.0000000e+00 
-6.0741731e-06 3.2369385e-03 0.0000000e+00 
-3.5668534e-06 3.1451553e-03 0.0000000e+00 
-7.1185887e-06 3.0032981e-03 0.0000000e+00 
-7.6116526e-06 2.9696741e-03 0.0000000e+00 
3.5179708e-06 3.0092881e-03 0.0000000e+00 
1.6145548e-05 2.9964689e-03 0.0000000e+00 
6.3257289e-06 2.8544436e-03 0.0000000e+00 
2.6279633e-07 2.6124113e-03 0.0000000e+00 
-1.3731998e-05 2.4349510e-03 0.0000000e+00 
-3.8863941e-06 2.3917623e-03 0.0000000e+00 
6.6773869e-06 2.2962885e-03 0.0000000e+00 
-2.6475848e-06 2.1140771e-03 0.0000000e+00 
6.4864349e-07 1.8635787e-03 0.0000000e+00 
6.7809094e-07 1.6867581e-03 0.0000000e+00 
6.6269040e-06 1.5893519e-03 0.0000000e+00 
4.5847960e-06 1.4614821e-03 0.0000000e+00 
-9.9910412e-06 1.3323600e-03 0.0000000e+00 
9.1055608e-07 1.2613529e-03 0.0000000e+00 
5.9353797e-06 1.3381081e-03 0.0000000e+00 
-4.2030038e-06 1.4382375e-03 0.0000000e+00 
-4.4856697e-06 1.4495866e-03 0.0000000e+00 
-3.7045190e-06 1.2743926e-03 0.0000000e+00 
-5.4063598e-06 1.1409353e-03 0.0000000e+00 
2.7901137e-07 1.0557413e-03 0.0000000e+00 
1.2304947e-06 1.0703757e-03 0.0000000e+00 
1.7828467e-06 1.0079282e-03 0.0000000e+00 
2.3335845e-06 7.7745121e-04 0.0000000e+00 
8.0449018e-07 5.2590761e-04 0.0000000e+00 
-7.3163181e-07 3.0411076e-04 0.0000000e+00 
-3.2168957e-06 2.8015964e-04 0.0000000e+00 
8.9557943e-06 2.7870978e-04 0.0000000e+00 
-2.8639508e-07 2.8587313e-04 0.0000000e+00 
-6.7813176e-06 2.9100655e-04 0.0000000e+00 
-8.2521337e-06 3.1799672e-04 0.0000000e+00 
-3.3361227e-06 4.0714670e-04 0.0000000e+00 
5.5664291e-06 4.4881017e-04 0.0000000e+00 
5.5974288e-06 4.6128189e-04 0.0000000e+00 
7.0170477e-06 4.3154735e-04 0.0000000e+00 
5.1445468e-06 4.1361255e-04 0.0000000e+00 
-4.6529176e-06 4.1665815e-04 0.0000000e+00 
8.5456963e-07 3.3662509e-04 0.0000000e+00 
8.9139430e-06 1.8921607e-04 0.0000000e+00 
1.8780771e-06 -8.7763547e-06 0.0000000e+00 
-2.9676301e-06 -1.3398683e-04 0.0000000e+00 
-8.8163461e-06 -1.1991436e-04 0.0000000e+00 
-8.3825480e-06 -3.6104520e-05 0.0000000e+00 
9.7253842e-06 1.0219432e-05 0.0000000e+00 
1.4357321e-06 -2.6497049e-05 0.0000000e+00 
-2.6466191e-06 -6.6371576e-05 0.0000000e+00 
-7.6821834e-06 -2.9968927e-05 0.0000000e+00 
-7.9971744e-07 1.4484690e-04 0.0000000e+00 
6.7543142e-06 3.0754352e-04 0.0000000e+00 
-4.1259814e-06 3.1552732e-03 0.0000000e+00 
1.3643970e-06 3.3778297e-03 0.0000000e+00 
-6.3848170e-06 2.6080236e-03 0.0000000e+00 
1.2552034e-05 2.7990976e-04 0.0000000e+00 
-2.8438290e-05 3.3065018e-03 0.0000000e+00 
1.6968902e-06 2.1281051e-03 0.0000000e+00 
-1.4085303e-05 1.4514053e-03 0.0000000e+00 
-3.6175311e-06 -1.1163941e-04 0.0000000e+00 
8.0922273e-06 1.4308012e-03 0.0000000e+00 
-1.1083748e-05 1.0544056e-03 0.0000000e+00 
9.2517876e-06 3.1183820e-04 0.0000000e+00 
9.4267585e-07 4.3456341e-04 0.0000000e+00 
6.1406326e-06 -3.4424844e-05 0.0000000e+00 
-8.6478149e-06 -1.1685795e-04 0.0000000e+00 
-5.2358769e-06 4.2117981e-04 0.0000000e+00 
-1.1932218e-05 1.0773953e-03 0.0000000e+00 
1.1357364e-05 3.0282964e-03 0.0000000e+00 
9.4080278e-06 3.3918128e-04 0.0000000e+00 
-6.0384782e-06 2.8415438e-04 0.0000000e+00 
8.8785309e-06 2.2203072e-04 0.0000000e+00 
6.6811608e-06 3.4232643e-03 0.0000000e+00 
2.5880707e-05 3.4385026e-03 0.0000000e+00 
-1.6954407e-05 3.4310964e-03 0.0000000e+00 
-2.8082359e-06 1.2881140e-04 0.0000000e+00 
-8.1124826e-06 3.4895190e-04 0.0000000e+00 
1.5119052e-06 3.9951497e-04 0.0000000e+00 
2.2304728e-06 2.7831539e-04 0.0000000e+00 
8.4412039e-07 1.4514803e-03 0.0000000e+00 
-5.2364808e-06 1.2993534e-03 0.0000000e+00 
2.0812415e-06 1.8740582e-03 0.0000000e+00 
5.1609250e-06 2.4390044e-03 0.0000000e+00 
9.7659831e-06 3.3065004e-03 0.0000000e+00 
-3.9481397e-06 -3.6915178e-05 0.0000000e+00 
-1.2389702e-06 -9.0266927e-05 0.0000000e+00 
8.1268317e-06 2.8943250e-04 0.0000000e+00 
8.7962553e-07 -1.7777316e-05 0.0000000e+00 
3.9396252e-07 3.4633190e-03 0.0000000e+00 
1.0198951e-05 3.3726052e-03 0.0000000e+00 
1.1791806e-05 -3.2266504e-05 0.0000000e+00 
1.3690171e-06 -4.1634587e-05 0.0000000e+00 
5.4690286e-06 2.5246732e-04 0.0000000e+00 
1.0251978e-05 -1.5142677e-05 0.0000000e+00 
-1.3457884e-06 3.4813496e-04 0.0000000e+00 
8.3896975e-07 4.1564496e-04 0.0000000e+00 
5.9248232e-06 1.8849831e-04 0.0000000e+00 
5.9927988e-06 -3.8733792e-06 0.0000000e+00 
5.8629610e-07 4.0368063e-04 0.0000000e+00 
-4.1223434e-06 5.1630707e-04 0.0000000e+00 
-2.6455509e-06 7.6453073e-04 0.0000000e+00 
6.3891671e-06 2.6344179e-04 0.0000000e+00 
-1.1205345e-06 1.4569241e-03 0.0000000e+00 
7.8683961e-06 1.1380375e-03 0.0000000e+00 
8.3615350e-06 1.0777317e-03 0.0000000e+00 
7.5901253e-06 2.6057644e-03 0.0000000e+00 
-5.4062207e-07 2.2987868e-03 0.0000000e+00 
-5.5279866e-06 2.1082284e-03 0.0000000e+00 
-8.1600497e-08 1.5638835e-03 0.0000000e+00 
2.0311902e-06 1.4305391e-03 0.0000000e+00 
1.1602173e-06 1.3540874e-03 0.0000000e+00 
9.9253748e-06 1.4522746e-03 0.0000000e+00 
-9.1785250e-06 3.2526029e-03 0.0000000e+00 
-1.6329910e-05 3.3714287e-03 0.0000000e+00 
2.1627807e-06 3.1642101e-03 0.0000000e+00 
-1.0103790e-05 3.0203850e-03 0.0000000e+00 
-1.0262303e-05 2.9903424e-03 0.0000000e+00 
4.9041878e-06 2.6186598e-03 0.0000000e+00 
-6.9699522e-06 2.7096912e-04 0.0000000e+00 
-1.2829025e-06 2.7914607e-04 0.0000000e+00 
-2.6130990e-06 3.3101943e-04 0.0000000e+00 
-3.7867160e-06 4.5199101e-04 0.0000000e+00 
-5.7299758e-06 2.9776006e-03 0.0000000e+00 
-1.2358710e-07 2.9988333e-03 0.0000000e+00 
-1.1901179e-05 1.0644041e-03 0.0000000e+00 
-1.2939152e-05 2.1127658e-03 0.0000000e+00 
1.8718422e-08 -2.0909101e-05 0.0000000e+00 
4.6718355e-07 -1.4183157e-04 0.0000000e+00 
1.4020184e-05 3.1580185e-04 0.0000000e+00 
-9.1448680e-07 1.4331143e-03 0.0000000e+00 
-4.0995074e-06 4.4517862e-04 0.0000000e+00 
-9.2678101e-06 4.4647689e-04 0.0000000e+00 
-2.6897285e-06 3.2563176e-04 0.0000000e+00 
-5.1088608e-07 7.7578658e-04 0.0000000e+00 
-5.9831395e-06 2.8804026e-04 0.0000000e+00 
5.0304361e-06 1.2957590e-03 0.0000000e+00 
-1.4985733e-06 1.2566689e-03 0.0000000e+00 
6.0591501e-06 1.6891015e-03 0.0000000e+00 
4.1639009e-06 2.3706993e-03 0.0000000e+00 
9.6182694e-06 3.1364486e-03 0.0000000e+00 
-4.0376071e-07 3.2412414e-03 0.0000000e+00 
2.7627518e-06 3.3705386e-03 0.0000000e+00 
-7.4103787e-06 4.1866122e-04 0.0000000e+00 
-5.5119635e-06 2.8333189e-03 0.0000000e+00 
-3.6357283e-06 9.8938448e-04 0.0000000e+00 
1.8722865e-06 3.3942796e-03 0.0000000e+00 
1.7590311e-05 3.4569423e-03 0.0000000e+00 
1.1969809e-06 1.4658033e-05 0.0000000e+00 
-8.5793299e-06 3.4039582e-03 0.0000000e+00 
5.2075084e-06 3.4929551e-03 0.0000000e+00 
-1.3133309e-05 3.4437133e-03 0.0000000e+00 
-1.0620543e-05 2.1440543e-04 0.0000000e+00 
-4.5778256e-06 3.0138514e-03 0.0000000e+00 
4.6674072e-06 3.2336316e-03 0.0000000e+00 
4.0957713e-07 3.3082015e-05 0.0000000e+00 
-5.4737507e-06 3.4721894e-03 0.0000000e+00 
2.0659645e-05 3.2663401e-03 0.0000000e+00 
2.1073085e-05 3.2477444e-03 0.0000000e+00 
6.1457811e-08 2.9542530e-03 0.0000000e+00 
1.0390922e-05 1.0576360e-03 0.0000000e+00 
-4.4492722e-06 3.0084709e-03 0.0000000e+00 
6.6963603e-06 2.8624933e-03 0.0000000e+00 
1.1845430e-06 2.4243924e-03 0.0000000e+00 
-1.1977037e-06 2.3027991e-03 0.0000000e+00 
-1.2246126e-05 1.8810971e-03 0.0000000e+00 
8.2814804e-06 1.5624946e-03 0.0000000e+00 
2.8208981e-06 -1.1559827e-04 0.0000000e+00 
3.4927498e-07 1.3251978e-03 0.0000000e+00 
-4.6765235e-06 1.3387991e-03 0.0000000e+00 
1.2878990e-05 1.4639182e-03 0.0000000e+00 
-9.4360930e-06 5.2139233e-04 0.0000000e+00 
-1.1330581e-05 1.1400366e-03 0.0000000e+00 
9.0797212e-06 1.0047186e-03 0.0000000e+00 
8.5109441e-06 3.2593095e-04 0.0000000e+00 
-1.0645296e-05 2.8381843e-04 0.0000000e+00 
1.4501317e-06 2.8734599e-04 0.0000000e+00 
9.9922127e-06 3.8116335e-04 0.0000000e+00 
-2.3040282e-06 3.3389247e-04 0.0000000e+00 
-1.1332638e-05 4.6870502e-04 0.0000000e+00 
-2.7245773e-07 4.2243878e-04 0.0000000e+00 
9.4844627e-06 3.3363601e-04 0.0000000e+00 
-9.1583270e-06 1.4591288e-04 0.0000000e+00 
4.1283101e-06 -5.2290256e-05 0.0000000e+00 
-4.7397675e-06 -1.2119980e-04 0.0000000e+00 
3.8126248e-07 1.8130201e-04 0.0000000e+00 
3.3166748e-06 -1.0706607e-05 0.0000000e+00 
-5.4280476e-06 5.0784070e-06 0.0000000e+00 
4.5294023e-06 1.5367134e-05 0.0000000e+00 
-1.6693570e-05 3.4458477e-03 0.0000000e+00 
3.5239736e-05 3.4611048e-03 0.0000000e+00 
-2.8305505e-05 3.4503364e-03 0.0000000e+00 
1.4111700e-05 3.4208000e-03 0.0000000e+00 
2.5122908e-05 -4.5237894e-06 0.0000000e+00 
3.9199022e-06 2.1600057e-05 0.0000000e+00 
-5.7036254e-06 1.4739081e-04 0.0000000e+00 
-6.1390274e-05 3.2926663e-03 0.0000000e+00 
-2.5674171e-06 3.4624524e-03 0.0000000e+00 
-1.6824046e-05 2.6791894e-03 0.0000000e+00 
9.6771555e-06 2.5262798e-03 0.0000000e+00 
-1.0033443e-05 2.5017948e-03 0.0000000e+00 
3.2627024e-06 2.3012590e-03 0.0000000e+00 
3.4164061e-06 2.8626723e-03 0.0000000e+00 
-2.2462373e-05 2.8444098e-03 0.0000000e+00 
-7.0316878e-06 2.8906832e-03 0.0000000e+00 
-2.2966196e-05 3.1993927e-03 0.0000000e+00 
-4.6010118e-06 2.9862770e-03 0.0000000e+00 
-4.8040197e-06 2.1958535e-03 0.0000000e+00 
2.8898507e-05 2.5247692e-03 0.0000000e+00 
-3.8230566e-05 2.9443500e-03 0.0000000e+00 
1.3145892e-05 2.1972139e-03 0.0000000e+00 
-6.0508860e-06 2.2189510e-03 0.0000000e+00 
2.9121197e-06 2.7786817e-03 0.0000000e+00 
-1.3742877e-05 2.9192236e-03 0.0000000e+00 
1.1515216e-05 2.9025485e-03 0.0000000e+00 
7.6788973e-07 3.2294330e-03 0.0000000e+00 
-1.4250177e-05 2.2479205e-03 0.0000000e+00 
6.6327320e-06 2.6146742e-03 0.0000000e+00 
1.7995102e-05 2.9371991e-03 0.0000000e+00 
-2.1767275e-06 2.2818709e-03 0.0000000e+00 
-5.6343056e-06 2.8748396e-03 0.0000000e+00 
-3.8974185e-06 2.7171720e-03 0.0000000e+00 
-5.0026101e-06 2.8223628e-03 0.0000000e+00 
3.2015328e-06 3.4101303e-03 0.0000000e+00 
2.6718939e-05 3.3456467e-03 0.0000000e+00 
-4.9108337e-05 3.1341042e-03 0.0000000e+00 
-5.1903429e-05 3.4951875e-03 0.0000000e+00 
4.2340038e-05 3.5205565e-03 0.0000000e+00 
-1.5645959e-05 3.4056127e-03 0.0000000e+00 
-1.3276892e-05 3.1540238e-03 0.0000000e+00 
-3.1431944e-06 2.6972063e-03 0.0000000e+00 
2.9784836e-05 2.9427086e-03 0.0000000e+00 
-2.7372376e-05 2.5846758e-03 0.0000000e+00 
-1.7520642e-05 2.6799734e-03 0.0000000e+00 
1.6626325e-05 2.3860622e-03 0.0000000e+00 
1.9507757e-05 3.1313719e-03 0.0000000e+00 
-3.6708861e-06 2.1927936e-03 0.0000000e+00 
-2.7946571e-05 2.2893101e-03 0.0000000e+00 
4.7066183e-06 2.3443478e-03 0.0000000e+00 
2.4225095e-05 2.3466689e-03 0.0000000e+00 
-4.2715747e-06 2.2839466e-03 0.0000000e+00 
-6.2744684e-06 2.3119433e-03 0.0000000e+00 
2.0749969e-05 2.3541390e-03 0.0000000e+00 
-5.5874430e-06 2.2591788e-03 0.0000000e+00 
-4.0812438e-06 2.2189433e-03 0.0000000e+00 
-7.4978567e-07 2.3892676e-03 0.0000000e+00 
-1.0780191e-05 2.5542006e-03 0.0000000e+00 
7.6872129e-06 2.6143850e-03 0.0000000e+00 
-1.5750846e-06 2.6017495e-03 0.0000000e+00 
4.3344849e-06 2.7480284e-03 0.0000000e+00 
-1.0207697e-05 2.8890038e-03 0.0000000e+00 
-1.5946989e-05 2.8501370e-03 0.0000000e+00 
1.8142393e-05 2.8118088e-03 0.0000000e+00 
4.3138143e-06 2.8754419e-03 0.0000000e+00 
-6.7531682e-06 2.9810790e-03 0.0000000e+00 
2.3127597e-05 2.9293513e-03 0.0000000e+00 
1.9568275e-05 2.8701043e-03 0.0000000e+00 
-2.8812527e-05 2.9035760e-03 0.0000000e+00 
-1.1827243e-05 2.9264570e-03 0.0000000e+00 
1.7285367e-05 2.8074337e-03 0.0000000e+00 
-4.4121830e-06 2.8434636e-03 0.0000000e+00 
-6.1732812e-06 3.0601930e-03 0.0000000e+00 
5.5649193e-06 3.0901937e-03 0.0000000e+00 