# vtk DataFile Version 4.0
vtk output
ASCII
DATASET UNSTRUCTURED_GRID
POINTS 628 float
0.0000000e+00 0.0000000e+00 0.0000000e+00 
1.0000000e+00 0.0000000e+00 0.0000000e+00 
1.0000000e+00 1.0000000e+01 0.0000000e+00 
0.0000000e+00 1.0000000e+01 0.0000000e+00 
0.0000000e+00 5.0000000e+00 0.0000000e+00 
1.0000000e+00 5.0000000e+00 0.0000000e+00 
1.4285715e-01 0.0000000e+00 0.0000000e+00 
2.8571430e-01 0.0000000e+00 0.0000000e+00 
4.2857143e-01 0.0000000e+00 0.0000000e+00 
5.7142860e-01 0.0000000e+00 0.0000000e+00 
7.1428573e-01 0.0000000e+00 0.0000000e+00 
8.5714287e-01 0.0000000e+00 0.0000000e+00 
8.5714287e-01 1.0000000e+01 0.0000000e+00 
7.1428573e-01 1.0000000e+01 0.0000000e+00 
5.7142860e-01 1.0000000e+01 0.0000000e+00 
4.2857143e-01 1.0000000e+01 0.0000000e+00 
2.8571430e-01 1.0000000e+01 0.0000000e+00 
1.4285715e-01 1.0000000e+01 0.0000000e+00 
1.4285715e-01 5.0000000e+00 0.0000000e+00 
2.8571430e-01 5.0000000e+00 0.0000000e+00 
4.2857143e-01 5.0000000e+00 0.0000000e+00 
5.7142860e-01 5.0000000e+00 0.0000000e+00 
7.1428573e-01 5.0000000e+00 0.0000000e+00 
8.5714287e-01 5.0000000e+00 0.0000000e+00 
0.0000000e+00 4.8529410e+00 0.0000000e+00 
0.0000000e+00 4.7058825e+00 0.0000000e+00 
0.0000000e+00 4.5588236e+00 0.0000000e+00 
0.0000000e+00 4.4117646e+00 0.0000000e+00 
0.0000000e+00 4.2647057e+00 0.0000000e+00 
0.0000000e+00 4.1176472e+00 0.0000000e+00 
0.0000000e+00 3.9705882e+00 0.0000000e+00 
0.0000000e+00 3.8235295e+00 0.0000000e+00 
0.0000000e+00 3.6764705e+00 0.0000000e+00 
0.0000000e+00 3.5294118e+00 0.0000000e+00 
0.0000000e+00 3.3823528e+00 0.0000000e+00 
0.0000000e+00 3.2352941e+00 0.0000000e+00 
0.0000000e+00 3.0882354e+00 0.0000000e+00 
0.0000000e+00 2.9411764e+00 0.0000000e+00 
0.0000000e+00 2.7941177e+00 0.0000000e+00 
0.0000000e+00 2.6470587e+00 0.0000000e+00 
0.0000000e+00 2.5000000e+00 0.0000000e+00 
0.0000000e+00 2.3529413e+00 0.0000000e+00 
0.0000000e+00 2.2058823e+00 0.0000000e+00 
0.0000000e+00 2.0588236e+00 0.0000000e+00 
0.0000000e+00 1.9117647e+00 0.0000000e+00 
0.0000000e+00 1.7647059e+00 0.0000000e+00 
0.0000000e+00 1.6176471e+00 0.0000000e+00 
0.0000000e+00 1.4705882e+00 0.0000000e+00 
0.0000000e+00 1.3235294e+00 0.0000000e+00 
0.0000000e+00 1.1764706e+00 0.0000000e+00 
0.0000000e+00 1.0294118e+00 0.0000000e+00 
0.0000000e+00 8.8235295e-01 0.0000000e+00 
0.0000000e+00 7.3529410e-01 0.0000000e+00 
0.0000000e+00 5.8823532e-01 0.0000000e+00 
0.0000000e+00 4.4117647e-01 0.0000000e+00 
0.0000000e+00 2.9411766e-01 0.0000000e+00 
0.0000000e+00 1.4705883e-01 0.0000000e+00 
1.0000000e+00 1.4705883e-01 0.0000000e+00 
1.0000000e+00 2.9411766e-01 0.0000000e+00 
1.0000000e+00 4.4117647e-01 0.0000000e+00 
1.0000000e+00 5.8823532e-01 0.0000000e+00 
1.0000000e+00 7.3529410e-01 0.0000000e+00 
1.0000000e+00 8.8235295e-01 0.0000000e+00 
1.0000000e+00 1.0294118e+00 0.0000000e+00 
1.0000000e+00 1.1764706e+00 0.0000000e+00 
1.0000000e+00 1.3235294e+00 0.0000000e+00 
1.0000000e+00 1.4705882e+00 0.0000000e+00 
1.0000000e+00 1.6176471e+00 0.0000000e+00 
1.0000000e+00 1.7647059e+00 0.0000000e+00 
1.0000000e+00 1.9117647e+00 0.0000000e+00 
1.0000000e+00 2.0588236e+00 0.0000000e+00 
1.0000000e+00 2.2058823e+00 0.0000000e+00 
1.0000000e+00 2.3529413e+00 0.0000000e+00 
1.0000000e+00 2.5000000e+00 0.0000000e+00 
1.0000000e+00 2.6470587e+00 0.0000000e+00 
1.0000000e+00 2.7941177e+00 0.0000000e+00 
1.0000000e+00 2.9411764e+00 0.0000000e+00 
1.0000000e+00 3.0882354e+00 0.0000000e+00 
1.0000000e+00 3.2352941e+00 0.0000000e+00 
1.0000000e+00 3.3823528e+00 0.0000000e+00 
1.0000000e+00 3.5294118e+00 0.0000000e+00 
1.0000000e+00 3.6764705e+00 0.0000000e+00 
1.0000000e+00 3.8235295e+00 0.0000000e+00 
1.0000000e+00 3.9705882e+00 0.0000000e+00 
1.0000000e+00 4.1176472e+00 0.0000000e+00 
1.0000000e+00 4.2647057e+00 0.0000000e+00 
1.0000000e+00 4.4117646e+00 0.0000000e+00 
1.0000000e+00 4.5588236e+00 0.0000000e+00 
1.0000000e+00 4.7058825e+00 0.0000000e+00 
1.0000000e+00 4.8529410e+00 0.0000000e+00 
0.0000000e+00 9.8529415e+00 0.0000000e+00 
0.0000000e+00 9.7058821e+00 0.0000000e+00 
0.0000000e+00 9.5588236e+00 0.0000000e+00 
0.0000000e+00 9.4117651e+00 0.0000000e+00 
0.0000000e+00 9.2647057e+00 0.0000000e+00 
0.0000000e+00 9.1176472e+00 0.0000000e+00 
0.0000000e+00 8.9705887e+00 0.0000000e+00 
0.0000000e+00 8.8235292e+00 0.0000000e+00 
0.0000000e+00 8.6764708e+00 0.0000000e+00 
0.0000000e+00 8.5294113e+00 0.0000000e+00 
0.0000000e+00 8.3823528e+00 0.0000000e+00 
0.0000000e+00 8.2352943e+00 0.0000000e+00 
0.0000000e+00 8.0882349e+00 0.0000000e+00 
0.0000000e+00 7.9411764e+00 0.0000000e+00 
0.0000000e+00 7.7941175e+00 0.0000000e+00 
0.0000000e+00 7.6470590e+00 0.0000000e+00 
0.0000000e+00 7.5000000e+00 0.0000000e+00 
0.0000000e+00 7.3529410e+00 0.0000000e+00 
0.0000000e+00 7.2058825e+00 0.0000000e+00 
0.0000000e+00 7.0588236e+00 0.0000000e+00 
0.0000000e+00 6.9117646e+00 0.0000000e+00 
0.0000000e+00 6.7647057e+00 0.0000000e+00 
0.0000000e+00 6.6176472e+00 0.0000000e+00 
0.0000000e+00 6.4705882e+00 0.0000000e+00 
0.0000000e+00 6.3235292e+00 0.0000000e+00 
0.0000000e+00 6.1764708e+00 0.0000000e+00 
0.0000000e+00 6.0294118e+00 0.0000000e+00 
0.0000000e+00 5.8823528e+00 0.0000000e+00 
0.0000000e+00 5.7352943e+00 0.0000000e+00 
0.0000000e+00 5.5882354e+00 0.0000000e+00 
0.0000000e+00 5.4411764e+00 0.0000000e+00 
0.0000000e+00 5.2941175e+00 0.0000000e+00 
0.0000000e+00 5.1470590e+00 0.0000000e+00 
1.0000000e+00 5.1470590e+00 0.0000000e+00 
1.0000000e+00 5.2941175e+00 0.0000000e+00 
1.0000000e+00 5.4411764e+00 0.0000000e+00 
1.0000000e+00 5.5882354e+00 0.0000000e+00 
1.0000000e+00 5.7352943e+00 0.0000000e+00 
1.0000000e+00 5.8823528e+00 0.0000000e+00 
1.0000000e+00 6.0294118e+00 0.0000000e+00 
1.0000000e+00 6.1764708e+00 0.0000000e+00 
1.0000000e+00 6.3235292e+00 0.0000000e+00 
1.0000000e+00 6.4705882e+00 0.0000000e+00 
1.0000000e+00 6.6176472e+00 0.0000000e+00 
1.0000000e+00 6.7647057e+00 0.0000000e+00 
1.0000000e+00 6.9117646e+00 0.0000000e+00 
1.0000000e+00 7.0588236e+00 0.0000000e+00 
1.0000000e+00 7.2058825e+00 0.0000000e+00 
1.0000000e+00 7.3529410e+00 0.0000000e+00 
1.0000000e+00 7.5000000e+00 0.0000000e+00 
1.0000000e+00 7.6470590e+00 0.0000000e+00 
1.0000000e+00 7.7941175e+00 0.0000000e+00 
1.0000000e+00 7.9411764e+00 0.0000000e+00 
1.0000000e+00 8.0882349e+00 0.0000000e+00 
1.0000000e+00 8.2352943e+00 0.0000000e+00 
1.0000000e+00 8.3823528e+00 0.0000000e+00 
1.0000000e+00 8.5294113e+00 0.0000000e+00 
1.0000000e+00 8.6764708e+00 0.0000000e+00 
1.0000000e+00 8.8235292e+00 0.0000000e+00 
1.0000000e+00 8.9705887e+00 0.0000000e+00 
1.0000000e+00 9.1176472e+00 0.0000000e+00 
1.0000000e+00 9.2647057e+00 0.0000000e+00 
1.0000000e+00 9.4117651e+00 0.0000000e+00 
1.0000000e+00 9.5588236e+00 0.0000000e+00 
1.0000000e+00 9.7058821e+00 0.0000000e+00 
1.0000000e+00 9.8529415e+00 0.0000000e+00 
5.0212586e-01 4.8703580e+00 0.0000000e+00 
5.1041055e-01 1.3732977e-01 0.0000000e+00 
1.3055173e-01 6.6499180e-01 0.0000000e+00 
8.7327349e-01 4.3372407e+00 0.0000000e+00 
8.7331611e-01 3.8958969e+00 0.0000000e+00 
8.7347627e-01 3.4562511e+00 0.0000000e+00 
8.7357801e-01 2.8680170e+00 0.0000000e+00 
1.2843554e-01 2.1327813e+00 0.0000000e+00 
1.2975387e-01 1.5449892e+00 0.0000000e+00 
1.3308091e-01 1.1039938e+00 0.0000000e+00 
1.2937543e-01 2.5737903e+00 0.0000000e+00 
1.2735668e-01 3.1617646e+00 0.0000000e+00 
8.7375563e-01 1.8386052e+00 0.0000000e+00 
8.7355548e-01 2.2778318e+00 0.0000000e+00 
1.2753446e-01 4.1915216e+00 0.0000000e+00 
8.7915283e-01 8.0759794e-01 0.0000000e+00 
8.8115031e-01 1.2498868e+00 0.0000000e+00 
1.2781374e-01 3.7501886e+00 0.0000000e+00 
8.7352717e-01 3.1621344e+00 0.0000000e+00 
1.2961270e-01 1.8389882e+00 0.0000000e+00 
1.2731366e-01 4.4857054e+00 0.0000000e+00 
1.2885660e-01 2.8684020e+00 0.0000000e+00 
8.7380636e-01 1.5444875e+00 0.0000000e+00 
8.7362880e-01 2.5738993e+00 0.0000000e+00 
1.2735668e-01 3.4558823e+00 0.0000000e+00 
8.7264335e-01 5.1470590e-01 0.0000000e+00 
8.7611687e-01 4.6317782e+00 0.0000000e+00 
1.3446054e-01 3.7013325e-01 0.0000000e+00 
1.2296320e-01 4.7760825e+00 0.0000000e+00 
8.8210768e-01 2.2118840e-01 0.0000000e+00 
2.1798968e-01 1.0548568e-01 0.0000000e+00 
7.7656764e-01 4.8704844e+00 0.0000000e+00 
1.2667844e-01 4.6331582e+00 0.0000000e+00 
2.5353336e-01 4.5619426e+00 0.0000000e+00 
2.5451174e-01 4.4132285e+00 0.0000000e+00 
3.8040194e-01 4.4881525e+00 0.0000000e+00 
3.8161713e-01 4.3403850e+00 0.0000000e+00 
5.0654775e-01 4.4141955e+00 0.0000000e+00 
5.0629890e-01 4.2659345e+00 0.0000000e+00 
5.0658631e-01 4.5616083e+00 0.0000000e+00 
3.8184282e-01 4.1932206e+00 0.0000000e+00 
5.0831819e-01 4.1188259e+00 0.0000000e+00 
3.8249290e-01 4.0462651e+00 0.0000000e+00 
5.0818664e-01 3.9732957e+00 0.0000000e+00 
3.8265404e-01 3.8991868e+00 0.0000000e+00 
5.0769192e-01 3.8249388e+00 0.0000000e+00 
3.8307732e-01 3.7517705e+00 0.0000000e+00 
5.0990808e-01 3.6776419e+00 0.0000000e+00 
3.8416636e-01 3.6049941e+00 0.0000000e+00 
5.1177651e-01 3.5322094e+00 0.0000000e+00 
3.8460994e-01 3.4584429e+00 0.0000000e+00 
5.1256055e-01 3.3855147e+00 0.0000000e+00 
3.8520575e-01 3.3115354e+00 0.0000000e+00 
5.1318693e-01 3.2385471e+00 0.0000000e+00 
3.8561273e-01 3.1645203e+00 0.0000000e+00 
5.1375473e-01 3.0915136e+00 0.0000000e+00 
3.8616878e-01 3.0174749e+00 0.0000000e+00 
5.1433694e-01 2.9444630e+00 0.0000000e+00 
3.8656160e-01 2.8704205e+00 0.0000000e+00 
5.1489413e-01 2.7974076e+00 0.0000000e+00 
3.8711417e-01 2.7233641e+00 0.0000000e+00 
5.1547360e-01 2.6503508e+00 0.0000000e+00 
3.8750717e-01 2.5763063e+00 0.0000000e+00 
5.1603019e-01 2.5032935e+00 0.0000000e+00 
3.8805979e-01 2.4292488e+00 0.0000000e+00 
5.1422137e-01 2.3562264e+00 0.0000000e+00 
3.8765049e-01 2.2821872e+00 0.0000000e+00 
5.1307547e-01 2.2071202e+00 0.0000000e+00 
3.8778570e-01 2.1347876e+00 0.0000000e+00 
5.1568961e-01 2.0596735e+00 0.0000000e+00 
3.9013749e-01 1.9876142e+00 0.0000000e+00 
5.1808232e-01 1.9145784e+00 0.0000000e+00 
3.8994926e-01 1.8408588e+00 0.0000000e+00 
5.1884413e-01 1.7678982e+00 0.0000000e+00 
[...]
POINT_DATA 628
FIELD FieldData 2
VELOCITY 3 628  float
0.0000000e+00 0.0000000e+00 0.0000000e+00 
0.0000000e+00 0.0000000e+00 0.0000000e+00 
0.0000000e+00 3.9608809e-03 0.0000000e+00 
0.0000000e+00 3.8468384e-03 0.0000000e+00 
0.0000000e+00 2.4572443e-04 0.0000000e+00 
0.0000000e+00 2.4164069e-04 0.0000000e+00 
0.0000000e+00 0.0000000e+00 0.0000000e+00 
0.0000000e+00 0.0000000e+00 0.0000000e+00 
0.0000000e+00 0.0000000e+00 0.0000000e+00 
0.0000000e+00 0.0000000e+00 0.0000000e+00 
0.0000000e+00 0.0000000e+00 0.0000000e+00 
0.0000000e+00 0.0000000e+00 0.0000000e+00 
-6.6497458e-05 4.3841191e-03 0.0000000e+00 
5.5801331e-05 4.2753764e-03 0.0000000e+00 
-4.3936710e-05 4.0522036e-03 0.0000000e+00 
1.3321958e-05 3.9403406e-03 0.0000000e+00 
-3.7325291e-05 3.9011415e-03 0.0000000e+00 
1.0520816e-04 4.1460521e-03 0.0000000e+00 
3.7231530e-06 3.1198253e-04 0.0000000e+00 
1.9699723e-05 2.9170275e-04 0.0000000e+00 
-1.7519724e-05 2.9707723e-04 0.0000000e+00 
2.1385482e-05 2.9892544e-04 0.0000000e+00 
-2.3220739e-05 3.0846638e-04 0.0000000e+00 
9.2300643e-06 3.1849238e-04 0.0000000e+00 
0.0000000e+00 1.8353407e-04 0.0000000e+00 
0.0000000e+00 2.3902384e-04 0.0000000e+00 
0.0000000e+00 4.2466883e-05 0.0000000e+00 
0.0000000e+00 3.9694278e-05 0.0000000e+00 
0.0000000e+00 -1.8677315e-04 0.0000000e+00 
0.0000000e+00 -5.1783268e-06 0.0000000e+00 
0.0000000e+00 -5.2187617e-05 0.0000000e+00 
0.0000000e+00 -3.3257192e-04 0.0000000e+00 
0.0000000e+00 -2.7386539e-04 0.0000000e+00 
0.0000000e+00 -2.0185235e-04 0.0000000e+00 
0.0000000e+00 1.6279863e-04 0.0000000e+00 
0.0000000e+00 2.1009808e-04 0.0000000e+00 
0.0000000e+00 2.4859278e-04 0.0000000e+00 
0.0000000e+00 4.5291791e-04 0.0000000e+00 
0.0000000e+00 1.5658571e-04 0.0000000e+00 
0.0000000e+00 -1.2675182e-04 0.0000000e+00 
0.0000000e+00 -2.8398883e-04 0.0000000e+00 
0.0000000e+00 -3.6518823e-04 0.0000000e+00 
0.0000000e+00 -1.8012225e-04 0.0000000e+00 
0.0000000e+00 -1.7976797e-04 0.0000000e+00 
0.0000000e+00 5.2554657e-05 0.0000000e+00 
0.0000000e+00 4.4221818e-04 0.0000000e+00 
0.0000000e+00 2.2756075e-04 0.0000000e+00 
0.0000000e+00 4.8476308e-05 0.0000000e+00 
0.0000000e+00 1.5152013e-04 0.0000000e+00 
0.0000000e+00 -1.5533755e-04 0.0000000e+00 
0.0000000e+00 -3.5458611e-04 0.0000000e+00 
0.0000000e+00 -9.9539582e-05 0.0000000e+00 
0.0000000e+00 -2.4852086e-05 0.0000000e+00 
0.0000000e+00 -3.1762098e-05 0.0000000e+00 
0.0000000e+00 1.8907910e-04 0.0000000e+00 
0.0000000e+00 2.2998998e-04 0.0000000e+00 
0.0000000e+00 3.7360121e-05 0.0000000e+00 
0.0000000e+00 5.3807918e-05 0.0000000e+00 
0.0000000e+00 2.4961733e-04 0.0000000e+00 
0.0000000e+00 1.8131906e-04 0.0000000e+00 
0.0000000e+00 -4.1890846e-05 0.0000000e+00 
0.0000000e+00 -2.8828033e-05 0.0000000e+00 
0.0000000e+00 -1.1173588e-04 0.0000000e+00 
0.0000000e+00 -3.3227034e-04 0.0000000e+00 
0.0000000e+00 -1.3733126e-04 0.0000000e+00 
0.0000000e+00 1.2467592e-04 0.0000000e+00 
0.0000000e+00 4.4296263e-05 0.0000000e+00 
0.0000000e+00 2.4878894e-04 0.0000000e+00 
0.0000000e+00 4.1291773e-04 0.0000000e+00 
0.0000000e+00 5.3489024e-05 0.0000000e+00 
0.0000000e+00 -1.3633052e-04 0.0000000e+00 
0.0000000e+00 -1.8381742e-04 0.0000000e+00 
0.0000000e+00 -3.8250638e-04 0.0000000e+00 
0.0000000e+00 -2.6894835e-04 0.0000000e+00 
0.0000000e+00 -1.5372239e-04 0.0000000e+00 
0.0000000e+00 1.6995812e-04 0.0000000e+00 
0.0000000e+00 4.4568506e-04 0.0000000e+00 
0.0000000e+00 2.2756436e-04 0.0000000e+00 
0.0000000e+00 2.5060039e-04 0.0000000e+00 
0.0000000e+00 1.6883266e-04 0.0000000e+00 
0.0000000e+00 -2.2726713e-04 0.0000000e+00 
0.0000000e+00 -2.4539314e-04 0.0000000e+00 
0.0000000e+00 -3.3535977e-04 0.0000000e+00 
0.0000000e+00 -3.9935367e-05 0.0000000e+00 
0.0000000e+00 -3.3626842e-05 0.0000000e+00 
0.0000000e+00 -1.8181597e-04 0.0000000e+00 
0.0000000e+00 5.2276599e-05 0.0000000e+00 
0.0000000e+00 1.2125701e-06 0.0000000e+00 
0.0000000e+00 2.8028947e-04 0.0000000e+00 
0.0000000e+00 1.7810367e-04 0.0000000e+00 
0.0000000e+00 4.2122086e-03 0.0000000e+00 
0.0000000e+00 3.9894455e-03 0.0000000e+00 
0.0000000e+00 3.8269535e-03 0.0000000e+00 
0.0000000e+00 3.4764251e-03 0.0000000e+00 
0.0000000e+00 2.9273015e-03 0.0000000e+00 
0.0000000e+00 2.6018070e-03 0.0000000e+00 
0.0000000e+00 2.2660363e-03 0.0000000e+00 
0.0000000e+00 2.0231570e-03 0.0000000e+00 
0.0000000e+00 1.5278754e-03 0.0000000e+00 
0.0000000e+00 1.0769082e-03 0.0000000e+00 
0.0000000e+00 5.4719648e-04 0.0000000e+00 
0.0000000e+00 5.7813252e-04 0.0000000e+00 
0.0000000e+00 5.4443703e-04 0.0000000e+00 
0.0000000e+00 5.4652250e-04 0.0000000e+00 
0.0000000e+00 4.3264535e-04 0.0000000e+00 
0.0000000e+00 1.8547860e-04 0.0000000e+00 
0.0000000e+00 3.2393215e-04 0.0000000e+00 
0.0000000e+00 5.3946231e-04 0.0000000e+00 
0.0000000e+00 8.4494136e-04 0.0000000e+00 
0.0000000e+00 6.1666407e-04 0.0000000e+00 
0.0000000e+00 6.2921742e-04 0.0000000e+00 
0.0000000e+00 3.3922508e-04 0.0000000e+00 
0.0000000e+00 3.2234070e-04 0.0000000e+00 
0.0000000e+00 1.6403462e-04 0.0000000e+00 
0.0000000e+00 7.7844990e-05 0.0000000e+00 
0.0000000e+00 -1.4199168e-04 0.0000000e+00 
0.0000000e+00 -8.8398105e-05 0.0000000e+00 
0.0000000e+00 -2.8364264e-04 0.0000000e+00 
0.0000000e+00 -3.2787223e-04 0.0000000e+00 
0.0000000e+00 -5.0110219e-04 0.0000000e+00 
0.0000000e+00 -1.2967177e-04 0.0000000e+00 
0.0000000e+00 1.6818311e-04 0.0000000e+00 
0.0000000e+00 5.0369737e-04 0.0000000e+00 
0.0000000e+00 4.8054484e-04 0.0000000e+00 
0.0000000e+00 1.5401049e-04 0.0000000e+00 
0.0000000e+00 -1.2088611e-04 0.0000000e+00 
0.0000000e+00 -4.9839390e-04 0.0000000e+00 
0.0000000e+00 -2.9391845e-04 0.0000000e+00 
0.0000000e+00 -3.0309713e-04 0.0000000e+00 
0.0000000e+00 -6.3828251e-05 0.0000000e+00 
0.0000000e+00 -2.0778978e-04 0.0000000e+00 
0.0000000e+00 1.3526612e-04 0.0000000e+00 
0.0000000e+00 1.0477382e-04 0.0000000e+00 
0.0000000e+00 4.1731857e-04 0.0000000e+00 
0.0000000e+00 2.6452358e-04 0.0000000e+00 
0.0000000e+00 6.4096838e-04 0.0000000e+00 
0.0000000e+00 6.3482666e-04 0.0000000e+00 
0.0000000e+00 8.5341808e-04 0.0000000e+00 
0.0000000e+00 4.8046015e-04 0.0000000e+00 
0.0000000e+00 3.6465647e-04 0.0000000e+00 
0.0000000e+00 1.7398164e-04 0.0000000e+00 
0.0000000e+00 4.4047047e-04 0.0000000e+00 
0.0000000e+00 4.9247348e-04 0.0000000e+00 
0.0000000e+00 6.2920654e-04 0.0000000e+00 
0.0000000e+00 5.0314405e-04 0.0000000e+00 
0.0000000e+00 6.4016064e-04 0.0000000e+00 
0.0000000e+00 9.9378161e-04 0.0000000e+00 
0.0000000e+00 1.5721227e-03 0.0000000e+00 
0.0000000e+00 2.0569498e-03 0.0000000e+00 
0.0000000e+00 2.2277050e-03 0.0000000e+00 
0.0000000e+00 2.6229352e-03 0.0000000e+00 
0.0000000e+00 2.9549128e-03 0.0000000e+00 
0.0000000e+00 3.4043640e-03 0.0000000e+00 
0.0000000e+00 3.9323769e-03 0.0000000e+00 
0.0000000e+00 3.8947929e-03 0.0000000e+00 
0.0000000e+00 4.2183334e-03 0.0000000e+00 
-1.4623059e-05 1.5729734e-04 0.0000000e+00 
2.3325144e-06 4.0432522e-05 0.0000000e+00 
2.7173317e-07 -5.8754613e-05 0.0000000e+00 
5.2141536e-06 -4.5174995e-05 0.0000000e+00 
2.0616917e-06 -2.5915928e-04 0.0000000e+00 
-1.8722992e-06 -7.9038611e-05 0.0000000e+00 
-1.8637682e-05 4.0862183e-04 0.0000000e+00 
-2.8253398e-06 -1.4980830e-04 0.0000000e+00 
5.4165398e-06 6.6393062e-05 0.0000000e+00 
-7.4634556e-07 -3.1929350e-04 0.0000000e+00 
3.2895866e-06 -2.0583735e-04 0.0000000e+00 
1.1447156e-05 1.5546278e-04 0.0000000e+00 
1.0864839e-05 2.6487239e-04 0.0000000e+00 
-1.4237642e-05 -3.0503102e-04 0.0000000e+00 
7.4087702e-06 -1.3960376e-04 0.0000000e+00 
-4.0509726e-06 -3.3255157e-05 0.0000000e+00 
-2.3352925e-06 3.6756413e-05 0.0000000e+00 
3.1868169e-06 -3.0340187e-04 0.0000000e+00 
-1.6548474e-05 1.6332514e-04 0.0000000e+00 
-6.0028010e-06 3.0032010e-04 0.0000000e+00 
2.1836937e-05 2.8986298e-05 0.0000000e+00 
2.9993309e-06 3.8430450e-04 0.0000000e+00 
-1.4177290e-06 9.4980103e-05 0.0000000e+00 
-3.8735702e-06 -1.9420522e-04 0.0000000e+00 
3.5142311e-06 -3.9307786e-05 0.0000000e+00 
-2.8292905e-06 6.5900676e-05 0.0000000e+00 
-2.0856323e-05 1.3468901e-04 0.0000000e+00 
-4.2659799e-06 2.6877192e-04 0.0000000e+00 
-2.3227258e-05 2.2189278e-04 0.0000000e+00 
6.8221630e-06 1.4677996e-04 0.0000000e+00 
4.4815970e-06 2.4033936e-05 0.0000000e+00 
1.9714822e-05 1.3282607e-04 0.0000000e+00 
5.6071185e-06 1.4131769e-04 0.0000000e+00 
-1.3848431e-05 2.2545777e-05 0.0000000e+00 
7.4085528e-06 2.3263525e-05 0.0000000e+00 
-2.8931656e-06 4.2582233e-05 0.0000000e+00 
-1.7047481e-05 -5.1909185e-05 0.0000000e+00 
3.4135267e-06 7.1811141e-06 0.0000000e+00 
-5.9163217e-06 -1.7513435e-04 0.0000000e+00 
8.8118739e-08 2.7571354e-05 0.0000000e+00 
1.6114769e-05 -1.5859707e-04 0.0000000e+00 
1.1105887e-05 -7.2098801e-06 0.0000000e+00 
6.5650097e-06 3.4533663e-05 0.0000000e+00 
-6.6957587e-06 -5.5967514e-05 0.0000000e+00 
-8.1074422e-06 -2.4579294e-04 0.0000000e+00 
1.1325408e-06 -3.2947632e-04 0.0000000e+00 
2.0601331e-06 -2.9396240e-04 0.0000000e+00 
1.2204860e-05 -2.5288897e-04 0.0000000e+00 
-3.3677695e-06 -2.5497112e-04 0.0000000e+00 
-1.0158456e-05 -2.0245205e-04 0.0000000e+00 
1.0952352e-05 -6.2977269e-05 0.0000000e+00 
5.2658843e-06 1.4204075e-04 0.0000000e+00 
1.0561796e-05 2.5054676e-04 0.0000000e+00 
-1.2406426e-06 2.0505227e-04 0.0000000e+00 
-6.0984466e-06 1.6925824e-04 0.0000000e+00 
-4.8989218e-06 2.0332601e-04 0.0000000e+00 
-1.2177662e-05 3.9099756e-04 0.0000000e+00 
-1.1794332e-06 4.7598089e-04 0.0000000e+00 
4.2652896e-06 3.8152715e-04 0.0000000e+00 
6.8161216e-06 1.8086069e-04 0.0000000e+00 
-3.9608753e-06 -2.6274061e-05 0.0000000e+00 
5.4631878e-06 -1.1857472e-04 0.0000000e+00 
1.1425232e-05 -1.9421245e-04 0.0000000e+00 
-3.8274934e-06 -2.8068342e-04 0.0000000e+00 
-1.0763471e-05 -3.5605577e-04 0.0000000e+00 
-1.3238053e-05 -3.7923467e-04 0.0000000e+00 
8.0535409e-07 -2.8766584e-04 0.0000000e+00 
9.2604068e-06 -1.9185344e-04 0.0000000e+00 
-3.1986583e-06 -1.4287746e-04 0.0000000e+00 
-1.8418456e-06 -1.2852070e-04 0.0000000e+00 
-2.0577730e-07 -1.1874904e-04 0.0000000e+00 
-6.7952310e-06 5.4906792e-05 0.0000000e+00 
-2.9033274e-06 2.7068603e-04 0.0000000e+00 
7.4734203e-07 4.2670919e-04 0.0000000e+00 
5.6933418e-06 4.0202244e-04 0.0000000e+00 
1.5617532e-06 2.3393313e-04 0.0000000e+00 
-7.5607286e-06 8.0550490e-05 0.0000000e+00 
-1.1009352e-06 4.5934481e-05 0.0000000e+00 
6.9834215e-07 1.1017835e-04 0.0000000e+00 
5.3224726e-06 1.3853589e-04 0.0000000e+00 
6.6209504e-06 5.8736336e-05 0.0000000e+00 
5.7511493e-06 -1.3066224e-04 0.0000000e+00 
9.1598304e-06 -3.0418954e-04 0.0000000e+00 
-1.4755672e-06 -3.4966340e-04 0.0000000e+00 
-7.2866274e-06 -2.5655195e-04 0.0000000e+00 
4.3442105e-06 -1.1361750e-04 0.0000000e+00 
3.8428684e-06 -3.0245074e-05 0.0000000e+00 
4.4619892e-06 -3.3515727e-05 0.0000000e+00 
5.7569337e-06 -5.3816464e-05 0.0000000e+00 
-2.1516400e-06 -3.9259980e-05 0.0000000e+00 
-6.2680510e-06 6.8179237e-05 0.0000000e+00 
-1.2456002e-06 1.8607515e-04 0.0000000e+00 
1.5708024e-06 2.5534342e-04 0.0000000e+00 
-2.9382495e-06 5.0748895e-05 0.0000000e+00 
7.2803950e-06 6.2561252e-05 0.0000000e+00 
5.8709506e-06 -2.5963254e-04 0.0000000e+00 
-1.1100913e-05 -1.0465087e-04 0.0000000e+00 
-4.0846098e-06 1.4832476e-04 0.0000000e+00 
1.6741046e-06 2.6057463e-04 0.0000000e+00 
1.2137883e-05 3.8028459e-04 0.0000000e+00 
6.8857375e-06 -2.5168984e-04 0.0000000e+00 
6.9382018e-06 -2.3913322e-05 0.0000000e+00 
-1.5127530e-06 -3.5542017e-04 0.0000000e+00 
-4.3575433e-06 4.0459709e-04 0.0000000e+00 
-2.6738583e-06 9.9794059e-05 0.0000000e+00 
-7.2935536e-06 -6.0475788e-05 0.0000000e+00 
-9.6309786e-06 -1.1237173e-04 0.0000000e+00 
-1.1081345e-06 1.3963302e-04 0.0000000e+00 
1.7130151e-06 -3.7230080e-04 0.0000000e+00 
-1.5806996e-06 -9.0466681e-05 0.0000000e+00 
1.0337372e-06 2.3317996e-04 0.0000000e+00 
-5.8315243e-07 2.5251138e-04 0.0000000e+00 
1.1717464e-05 1.5288252e-04 0.0000000e+00 
-2.9563557e-06 2.5411908e-04 0.0000000e+00 
-6.4935616e-06 2.3368470e-04 0.0000000e+00 
1.0457435e-05 2.4567248e-04 0.0000000e+00 
2.0727755e-06 1.8630776e-04 0.0000000e+00 
-3.7880682e-06 2.4681413e-04 0.0000000e+00 
5.2830610e-06 2.3280794e-04 0.0000000e+00 
-2.5370416e-06 4.6267640e-05 0.0000000e+00 
-7.9670690e-06 -1.4128933e-04 0.0000000e+00 
7.0492028e-06 4.7863493e-04 0.0000000e+00 
1.4483644e-06 2.2619590e-04 0.0000000e+00 
-3.7289446e-06 -1.9141749e-04 0.0000000e+00 
-9.2284318e-07 1.4704358e-04 0.0000000e+00 
8.1045350e-08 6.3124899e-05 0.0000000e+00 
-1.4425480e-06 -3.5740581e-05 0.0000000e+00 
-7.4742743e-06 2.6689708e-04 0.0000000e+00 
5.2684386e-06 6.6527886e-05 0.0000000e+00 
-3.8786366e-06 -6.4035201e-05 0.0000000e+00 
5.3833770e-07 2.1432596e-05 0.0000000e+00 
3.1243765e-06 -4.7525093e-05 0.0000000e+00 
-2.5895022e-06 -2.8158918e-05 0.0000000e+00 
-3.2523624e-06 1.5397478e-04 0.0000000e+00 
2.8683569e-06 -3.4396478e-04 0.0000000e+00 
2.9303692e-06 -1.3998130e-04 0.0000000e+00 
-6.8099962e-06 4.6060493e-05 0.0000000e+00 
-6.2337731e-06 -3.0105136e-04 0.0000000e+00 
-4.3699342e-06 -3.4419933e-04 0.0000000e+00 
3.6484535e-06 4.3888864e-05 0.0000000e+00 
5.7646976e-06 -1.4190651e-04 0.0000000e+00 
-1.3805497e-06 -2.0117073e-04 0.0000000e+00 
-4.8702432e-06 -1.0075214e-04 0.0000000e+00 
-8.5947831e-06 -1.2182737e-05 0.0000000e+00 
1.2260656e-06 -2.9444363e-04 0.0000000e+00 
4.0841985e-07 -3.8060592e-04 0.0000000e+00 
-1.0421391e-05 -2.4405392e-04 0.0000000e+00 
2.9594207e-06 1.6125533e-04 0.0000000e+00 
-4.3176578e-06 2.3023384e-04 0.0000000e+00 
5.4045149e-06 2.4631899e-04 0.0000000e+00 
5.0719916e-07 3.9457020e-04 0.0000000e+00 
-7.2057624e-06 1.6749470e-04 0.0000000e+00 
1.3528535e-05 3.7279111e-04 0.0000000e+00 
-7.0200849e-06 -1.6297358e-04 0.0000000e+00 
-1.8953882e-05 -1.7029107e-04 0.0000000e+00 
2.2098850e-06 5.8818525e-05 0.0000000e+00 
-4.0868936e-06 -3.0846201e-04 0.0000000e+00 
-5.4260295e-06 -3.5722676e-04 0.0000000e+00 
1.3503038e-05 -2.4690625e-04 0.0000000e+00 
1.0155388e-06 -1.1971800e-04 0.0000000e+00 
-2.6082719e-06 4.4062527e-04 0.0000000e+00 
7.6334409e-06 4.0495410e-04 0.0000000e+00 
-3.4145719e-06 3.4455388e-05 0.0000000e+00 
4.2824086e-06 -2.4644088e-04 0.0000000e+00 
8.6532310e-08 -3.3757824e-04 0.0000000e+00 
1.5936965e-05 -3.6097132e-04 0.0000000e+00 
7.7239074e-06 2.4661777e-04 0.0000000e+00 
-1.6943051e-06 -2.6345569e-05 0.0000000e+00 
-1.0900947e-06 -2.4465568e-04 0.0000000e+00 
1.6795991e-06 4.0091624e-04 0.0000000e+00 
2.5475254e-07 -1.6978034e-05 0.0000000e+00 
-5.8251053e-06 8.8908586e-05 0.0000000e+00 
7.7223312e-06 9.1880684e-05 0.0000000e+00 
-3.4776241e-07 -1.6400868e-04 0.0000000e+00 
2.8034383e-06 -1.7895324e-04 0.0000000e+00 
1.3406537e-06 2.6293955e-04 0.0000000e+00 
-1.2073680e-05 -1.9336837e-04 0.0000000e+00 
-2.6709445e-06 3.8951414e-04 0.0000000e+00 
-7.4179229e-06 1.7233286e-04 0.0000000e+00 
-9.9329409e-06 -7.5120603e-05 0.0000000e+00 
-1.1762987e-05 3.8048835e-05 0.0000000e+00 
-7.0431092e-06 -3.1071042e-05 0.0000000e+00 
1.1463968e-05 -1.5493843e-04 0.0000000e+00 
-2.4624471e-06 1.0513743e-04 0.0000000e+00 
-3.4079258e-07 -2.5326794e-04 0.0000000e+00 
2.2146469e-06 -2.8174082e-04 0.0000000e+00 
2.3571150e-05 2.6520496e-04 0.0000000e+00 
-9.2489354e-06 1.5860132e-04 0.0000000e+00 
4.5057873e-06 -3.4900717e-05 0.0000000e+00 
-1.1205721e-05 2.6409837e-04 0.0000000e+00 
5.6819081e-06 5.0742899e-05 0.0000000e+00 
2.5955569e-05 2.4970016e-04 0.0000000e+00 
-8.0189293e-06 1.5144526e-04 0.0000000e+00 
1.1894809e-05 -7.6041273e-05 0.0000000e+00 
3.8431599e-06 1.6851365e-05 0.0000000e+00 
-9.5633459e-06 2.7573542e-05 0.0000000e+00 
3.4775176e-06 -6.2439758e-05 0.0000000e+00 
-6.9504404e-06 -1.7222991e-04 0.0000000e+00 
-3.4207581e-08 -2.8037579e-05 0.0000000e+00 
5.6304602e-06 -2.4422933e-04 0.0000000e+00 
-3.1555005e-06 -3.7620973e-04 0.0000000e+00 
-5.6393756e-06 -2.9670255e-04 0.0000000e+00 
-7.8473995e-06 -2.2874303e-04 0.0000000e+00 
7.1551153e-06 -1.8519943e-04 0.0000000e+00 
1.0330513e-05 1.5930097e-04 0.0000000e+00 
-1.2868103e-05 2.4583904e-04 0.0000000e+00 
1.2696416e-06 2.2188749e-04 0.0000000e+00 
2.7421572e-06 -2.5012821e-04 0.0000000e+00 
-6.3238554e-06 4.6983376e-04 0.0000000e+00 
-2.6025061e-06 1.7022504e-04 0.0000000e+00 
-5.7695738e-06 -1.4883220e-04 0.0000000e+00 
1.5569876e-05 -1.4976006e-04 0.0000000e+00 
7.5045473e-06 -2.7524171e-04 0.0000000e+00 
-4.1458561e-06 -3.0347815e-04 0.0000000e+00 
2.9305536e-06 -1.4710285e-04 0.0000000e+00 
-2.4019052e-06 3.8909417e-05 0.0000000e+00 
7.6197061e-06 4.1411340e-04 0.0000000e+00 
-1.8207387e-06 2.5814486e-04 0.0000000e+00 
-1.9681320e-06 -1.4326176e-04 0.0000000e+00 
2.3015320e-06 4.5943121e-05 0.0000000e+00 
-6.4235114e-06 1.2210273e-04 0.0000000e+00 
1.3406016e-05 2.3860745e-04 0.0000000e+00 
-1.0129625e-05 1.9586163e-04 0.0000000e+00 
7.6994902e-06 -1.7898763e-05 0.0000000e+00 
6.3180892e-06 -1.1794546e-04 0.0000000e+00 
-5.6632043e-06 -3.0329678e-04 0.0000000e+00 
-1.4910693e-05 -2.7811255e-05 0.0000000e+00 
-1.3597298e-06 1.6905149e-05 0.0000000e+00 
-5.0934382e-06 2.0808657e-05 0.0000000e+00 
1.4492104e-05 1.4495573e-04 0.0000000e+00 
-1.1312064e-05 1.5976123e-04 0.0000000e+00 
1.8740819e-05 1.6146302e-04 0.0000000e+00 
-1.2538270e-05 1.2851962e-04 0.0000000e+00 
1.4496696e-05 2.1441354e-05 0.0000000e+00 
-8.2414490e-06 2.2122515e-05 0.0000000e+00 
-5.7728616e-06 1.0941830e-04 0.0000000e+00 
4.5336259e-05 4.0688324e-03 0.0000000e+00 
8.1342214e-06 4.2181771e-04 0.0000000e+00 
-1.0172503e-05 3.2674279e-03 0.0000000e+00 
-1.4815242e-05 -3.9273960e-04 0.0000000e+00 
2.9766850e-06 1.7943600e-03 0.0000000e+00 
-3.4091986e-06 -1.3037396e-04 0.0000000e+00 
3.9217975e-06 5.9069262e-04 0.0000000e+00 
-1.1794472e-05 4.6229153e-04 0.0000000e+00 
2.1576674e-05 1.9931537e-04 0.0000000e+00 
-3.4414029e-06 4.2752703e-04 0.0000000e+00 
1.3162338e-05 7.5452868e-04 0.0000000e+00 
5.6808622e-06 1.2337833e-04 0.0000000e+00 
2.8939157e-06 2.7709897e-03 0.0000000e+00 
-3.3773804e-06 5.0764403e-04 0.0000000e+00 
-4.4461453e-07 -3.6741083e-04 0.0000000e+00 
4.3654403e-05 2.1969145e-03 0.0000000e+00 
1.3251393e-05 3.6376063e-03 0.0000000e+00 
-2.0254858e-05 4.5395913e-04 0.0000000e+00 
5.3882806e-05 8.1162667e-04 0.0000000e+00 
-8.6057853e-06 3.9889789e-04 0.0000000e+00 
-3.7285927e-06 1.0595442e-04 0.0000000e+00 
-6.8689724e-07 3.8196059e-04 0.0000000e+00 
5.5560214e-08 -3.2665860e-04 0.0000000e+00 
-2.7696856e-06 -1.1920762e-04 0.0000000e+00 
5.3546100e-06 6.5072667e-04 0.0000000e+00 
-3.4738652e-05 1.3111371e-03 0.0000000e+00 
2.5944391e-05 3.9874562e-03 0.0000000e+00 
-3.6542522e-05 1.0229631e-04 0.0000000e+00 
-2.6140147e-05 1.9804740e-04 0.0000000e+00 
7.1718016e-05 3.9728456e-03 0.0000000e+00 
-7.8763900e-05 3.7468211e-03 0.0000000e+00 
2.3080584e-05 4.4410754e-04 0.0000000e+00 
7.0874926e-06 1.0334858e-04 0.0000000e+00 
-5.5556357e-06 -8.2420178e-05 0.0000000e+00 
-1.0265012e-05 -5.0065393e-04 0.0000000e+00 
5.3922031e-06 -3.5214264e-04 0.0000000e+00 
-1.3660078e-05 -3.8747673e-04 0.0000000e+00 
-4.9789451e-06 -4.8967428e-04 0.0000000e+00 
1.6346828e-05 -3.0902526e-04 0.0000000e+00 
2.5267391e-07 -1.0788425e-04 0.0000000e+00 
3.3357103e-06 -3.4504232e-04 0.0000000e+00 
-9.8855362e-06 -3.1201643e-04 0.0000000e+00 
-3.2499142e-06 -1.9046594e-04 0.0000000e+00 
1.0682008e-05 -7.5191274e-05 0.0000000e+00 
2.2877709e-06 -1.1316509e-04 0.0000000e+00 
-6.1101077e-06 -1.7796233e-04 0.0000000e+00 
9.6761678e-06 -4.1025509e-05 0.0000000e+00 
-6.3856385e-07 8.9808280e-05 0.0000000e+00 
-1.5054420e-05 1.0652863e-04 0.0000000e+00 
-1.9782026e-06 1.3507644e-04 0.0000000e+00 
5.9050371e-06 2.6454515e-04 0.0000000e+00 
2.2735267e-06 3.9965770e-04 0.0000000e+00 
1.3532882e-06 3.6412093e-04 0.0000000e+00 
1.2441724e-05 2.6042995e-04 0.0000000e+00 
-4.6455721e-06 4.4504792e-04 0.0000000e+00 
-2.1058962e-05 6.0377503e-04 0.0000000e+00 
1.5225897e-06 6.2677701e-04 0.0000000e+00 
1.2248654e-05 6.4238801e-04 0.0000000e+00 
-2.0946898e-05 7.5300637e-04 0.0000000e+00 
1.1239566e-05 8.3641178e-04 0.0000000e+00 
1.2854655e-05 6.9005374e-04 0.0000000e+00 
-7.6343231e-06 5.5368245e-04 0.0000000e+00 
4.7266021e-06 4.6037245e-04 0.0000000e+00 
-9.8975333e-06 3.3628932e-04 0.0000000e+00 