# vtk DataFile Version 4.0
vtk output
ASCII
DATASET UNSTRUCTURED_GRID
POINTS 628 float
0.0000000e+00 0.0000000e+00 0.0000000e+00 
1.0000000e+00 0.0000000e+00 0.0000000e+00 
1.0000000e+00 1.0000000e+01 0.0000000e+00 
0.0000000e+00 1.0000000e+01 0.0000000e+00 
0.0000000e+00 5.0000000e+00 0.0000000e+00 
1.0000000e+00 5.0000000e+00 0.0000000e+00 
1.4285715e-01 0.0000000e+00 0.0000000e+00 
2.8571430e-01 0.0000000e+00 0.0000000e+00 
4.2857143e-01 0.0000000e+00 0.0000000e+00 
5.7142860e-01 0.0000000e+00 0.0000000e+00 
7.1428573e-01 0.0000000e+00 0.0000000e+00 
8.5714287e-01 0.0000000e+00 0.0000000e+00 
8.5714287e-01 1.0000000e+01 0.0000000e+00 
7.1428573e-01 1.0000000e+01 0.0000000e+00 
5.7142860e-01 1.0000000e+01 0.0000000e+00 
4.2857143e-01 1.0000000e+01 0.0000000e+00 
2.8571430e-01 1.0000000e+01 0.0000000e+00 
1.4285715e-01 1.0000000e+01 0.0000000e+00 
1.4285715e-01 5.0000000e+00 0.0000000e+00 
2.8571430e-01 5.0000000e+00 0.0000000e+00 
4.2857143e-01 5.0000000e+00 0.0000000e+00 
5.7142860e-01 5.0000000e+00 0.0000000e+00 
7.1428573e-01 5.0000000e+00 0.0000000e+00 
8.5714287e-01 5.0000000e+00 0.0000000e+00 
0.0000000e+00 4.8529410e+00 0.0000000e+00 
0.0000000e+00 4.7058825e+00 0.0000000e+00 
0.0000000e+00 4.5588236e+00 0.0000000e+00 
0.0000000e+00 4.4117646e+00 0.0000000e+00 
0.0000000e+00 4.2647057e+00 0.0000000e+00 
0.0000000e+00 4.1176472e+00 0.0000000e+00 
0.0000000e+00 3.9705882e+00 0.0000000e+00 
0.0000000e+00 3.8235295e+00 0.0000000e+00 
0.0000000e+00 3.6764705e+00 0.0000000e+00 
0.0000000e+00 3.5294118e+00 0.0000000e+00 
0.0000000e+00 3.3823528e+00 0.0000000e+00 
0.0000000e+00 3.2352941e+00 0.0000000e+00 
0.0000000e+00 3.0882354e+00 0.0000000e+00 
0.0000000e+00 2.9411764e+00 0.0000000e+00 
0.0000000e+00 2.7941177e+00 0.0000000e+00 
0.0000000e+00 2.6470587e+00 0.0000000e+00 
0.0000000e+00 2.5000000e+00 0.0000000e+00 
0.0000000e+00 2.3529413e+00 0.0000000e+00 
0.0000000e+00 2.2058823e+00 0.0000000e+00 
0.0000000e+00 2.0588236e+00 0.0000000e+00 
0.0000000e+00 1.9117647e+00 0.0000000e+00 
0.0000000e+00 1.7647059e+00 0.0000000e+00 
0.0000000e+00 1.6176471e+00 0.0000000e+00 
0.0000000e+00 1.4705882e+00 0.0000000e+00 
0.0000000e+00 1.3235294e+00 0.0000000e+00 
0.0000000e+00 1.1764706e+00 0.0000000e+00 
0.0000000e+00 1.0294118e+00 0.0000000e+00 
0.0000000e+00 8.8235295e-01 0.0000000e+00 
0.0000000e+00 7.3529410e-01 0.0000000e+00 
0.0000000e+00 5.8823532e-01 0.0000000e+00 
0.0000000e+00 4.4117647e-01 0.0000000e+00 
0.0000000e+00 2.9411766e-01 0.0000000e+00 
0.0000000e+00 1.4705883e-01 0.0000000e+00 
1.0000000e+00 1.4705883e-01 0.0000000e+00 
1.0000000e+00 2.9411766e-01 0.0000000e+00 
1.0000000e+00 4.4117647e-01 0.0000000e+00 
1.0000000e+00 5.8823532e-01 0.0000000e+00 
1.0000000e+00 7.3529410e-01 0.0000000e+00 
1.0000000e+00 8.8235295e-01 0.0000000e+00 
1.0000000e+00 1.0294118e+00 0.0000000e+00 
1.0000000e+00 1.1764706e+00 0.0000000e+00 
1.0000000e+00 1.3235294e+00 0.0000000e+00 
1.0000000e+00 1.4705882e+00 0.0000000e+00 
1.0000000e+00 1.6176471e+00 0.0000000e+00 
1.0000000e+00 1.7647059e+00 0.0000000e+00 
1.0000000e+00 1.9117647e+00 0.0000000e+00 
1.0000000e+00 2.0588236e+00 0.0000000e+00 
1.0000000e+00 2.2058823e+00 0.0000000e+00 
1.0000000e+00 2.3529413e+00 0.0000000e+00 
1.0000000e+00 2.5000000e+00 0.0000000e+00 
1.0000000e+00 2.6470587e+00 0.0000000e+00 
1.0000000e+00 2.7941177e+00 0.0000000e+00 
1.0000000e+00 2.9411764e+00 0.0000000e+00 
1.0000000e+00 3.0882354e+00 0.0000000e+00 
1.0000000e+00 3.2352941e+00 0.0000000e+00 
1.0000000e+00 3.3823528e+00 0.0000000e+00 
1.0000000e+00 3.5294118e+00 0.0000000e+00 
1.0000000e+00 3.6764705e+00 0.0000000e+00 
1.0000000e+00 3.8235295e+00 0.0000000e+00 
1.0000000e+00 3.9705882e+00 0.0000000e+00 
1.0000000e+00 4.1176472e+00 0.0000000e+00 
1.0000000e+00 4.2647057e+00 0.0000000e+00 
1.0000000e+00 4.4117646e+00 0.0000000e+00 
1.0000000e+00 4.5588236e+00 0.0000000e+00 
1.0000000e+00 4.7058825e+00 0.0000000e+00 
1.0000000e+00 4.8529410e+00 0.0000000e+00 
0.0000000e+00 9.8529415e+00 0.0000000e+00 
0.0000000e+00 9.7058821e+00 0.0000000e+00 
0.0000000e+00 9.5588236e+00 0.0000000e+00 
0.0000000e+00 9.4117651e+00 0.0000000e+00 
0.0000000e+00 9.2647057e+00 0.0000000e+00 
0.0000000e+00 9.1176472e+00 0.0000000e+00 
0.0000000e+00 8.9705887e+00 0.0000000e+00 
0.0000000e+00 8.8235292e+00 0.0000000e+00 
0.0000000e+00 8.6764708e+00 0.0000000e+00 
0.0000000e+00 8.5294113e+00 0.0000000e+00 
0.0000000e+00 8.3823528e+00 0.0000000e+00 
0.0000000e+00 8.2352943e+00 0.0000000e+00 
0.0000000e+00 8.0882349e+00 0.0000000e+00 
0.0000000e+00 7.9411764e+00 0.0000000e+00 
0.0000000e+00 7.7941175e+00 0.0000000e+00 
0.0000000e+00 7.6470590e+00 0.0000000e+00 
0.0000000e+00 7.5000000e+00 0.0000000e+00 
0.0000000e+00 7.3529410e+00 0.0000000e+00 
0.0000000e+00 7.2058825e+00 0.0000000e+00 
0.0000000e+00 7.0588236e+00 0.0000000e+00 
0.0000000e+00 6.9117646e+00 0.0000000e+00 
0.0000000e+00 6.7647057e+00 0.0000000e+00 
0.0000000e+00 6.6176472e+00 0.0000000e+00 
0.0000000e+00 6.4705882e+00 0.0000000e+00 
0.0000000e+00 6.3235292e+00 0.0000000e+00 
0.0000000e+00 6.1764708e+00 0.0000000e+00 
0.0000000e+00 6.0294118e+00 0.0000000e+00 
0.0000000e+00 5.8823528e+00 0.0000000e+00 
0.0000000e+00 5.7352943e+00 0.0000000e+00 
0.0000000e+00 5.5882354e+00 0.0000000e+00 
0.0000000e+00 5.4411764e+00 0.0000000e+00 
0.0000000e+00 5.2941175e+00 0.0000000e+00 
0.0000000e+00 5.1470590e+00 0.0000000e+00 
1.0000000e+00 5.1470590e+00 0.0000000e+00 
1.0000000e+00 5.2941175e+00 0.0000000e+00 
1.0000000e+00 5.4411764e+00 0.0000000e+00 
1.0000000e+00 5.5882354e+00 0.0000000e+00 
1.0000000e+00 5.7352943e+00 0.0000000e+00 
1.0000000e+00 5.8823528e+00 0.0000000e+00 
1.0000000e+00 6.0294118e+00 0.0000000e+00 
1.0000000e+00 6.1764708e+00 0.0000000e+00 
1.0000000e+00 6.3235292e+00 0.0000000e+00 
1.0000000e+00 6.4705882e+00 0.0000000e+00 
1.0000000e+00 6.6176472e+00 0.0000000e+00 
1.0000000e+00 6.7647057e+00 0.0000000e+00 
1.0000000e+00 6.9117646e+00 0.0000000e+00 
1.0000000e+00 7.0588236e+00 0.0000000e+00 
1.0000000e+00 7.2058825e+00 0.0000000e+00 
1.0000000e+00 7.3529410e+00 0.0000000e+00 
1.0000000e+00 7.5000000e+00 0.0000000e+00 
1.0000000e+00 7.6470590e+00 0.0000000e+00 
1.0000000e+00 7.7941175e+00 0.0000000e+00 
1.0000000e+00 7.9411764e+00 0.0000000e+00 
1.0000000e+00 8.0882349e+00 0.0000000e+00 
1.0000000e+00 8.2352943e+00 0.0000000e+00 
1.0000000e+00 8.3823528e+00 0.0000000e+00 
1.0000000e+00 8.5294113e+00 0.0000000e+00 
1.0000000e+00 8.6764708e+00 0.0000000e+00 
1.0000000e+00 8.8235292e+00 0.0000000e+00 
1.0000000e+00 8.9705887e+00 0.0000000e+00 
1.0000000e+00 9.1176472e+00 0.0000000e+00 
1.0000000e+00 9.2647057e+00 0.0000000e+00 
1.0000000e+00 9.4117651e+00 0.0000000e+00 
1.0000000e+00 9.5588236e+00 0.0000000e+00 
1.0000000e+00 9.7058821e+00 0.0000000e+00 
1.0000000e+00 9.8529415e+00 0.0000000e+00 
5.0212586e-01 4.8703580e+00 0.0000000e+00 
5.1041055e-01 1.3732977e-01 0.0000000e+00 
1.3055173e-01 6.6499180e-01 0.0000000e+00 
8.7327349e-01 4.3372407e+00 0.0000000e+00 
8.7331611e-01 3.8958969e+00 0.0000000e+00 
8.7347627e-01 3.4562511e+00 0.0000000e+00 
8.7357801e-01 2.8680170e+00 0.0000000e+00 
1.2843554e-01 2.1327813e+00 0.0000000e+00 
1.2975387e-01 1.5449892e+00 0.0000000e+00 
1.3308091e-01 1.1039938e+00 0.0000000e+00 
1.2937543e-01 2.5737903e+00 0.0000000e+00 
1.2735668e-01 3.1617646e+00 0.0000000e+00 
8.7375563e-01 1.8386052e+00 0.0000000e+00 
8.7355548e-01 2.2778318e+00 0.0000000e+00 
1.2753446e-01 4.1915216e+00 0.0000000e+00 
8.7915283e-01 8.0759794e-01 0.0000000e+00 
8.8115031e-01 1.2498868e+00 0.0000000e+00 
1.2781374e-01 3.7501886e+00 0.0000000e+00 
8.7352717e-01 3.1621344e+00 0.0000000e+00 
1.2961270e-01 1.8389882e+00 0.0000000e+00 
1.2731366e-01 4.4857054e+00 0.0000000e+00 
1.2885660e-01 2.8684020e+00 0.0000000e+00 
8.7380636e-01 1.5444875e+00 0.0000000e+00 
8.7362880e-01 2.5738993e+00 0.0000000e+00 
1.2735668e-01 3.4558823e+00 0.0000000e+00 
8.7264335e-01 5.1470590e-01 0.0000000e+00 
8.7611687e-01 4.6317782e+00 0.0000000e+00 
1.3446054e-01 3.7013325e-01 0.0000000e+00 
1.2296320e-01 4.7760825e+00 0.0000000e+00 
8.8210768e-01 2.2118840e-01 0.0000000e+00 
2.1798968e-01 1.0548568e-01 0.0000000e+00 
7.7656764e-01 4.8704844e+00 0.0000000e+00 
1.2667844e-01 4.6331582e+00 0.0000000e+00 
2.5353336e-01 4.5619426e+00 0.0000000e+00 
2.5451174e-01 4.4132285e+00 0.0000000e+00 
3.8040194e-01 4.4881525e+00 0.0000000e+00 
3.8161713e-01 4.3403850e+00 0.0000000e+00 
5.0654775e-01 4.4141955e+00 0.0000000e+00 
5.0629890e-01 4.2659345e+00 0.0000000e+00 
5.0658631e-01 4.5616083e+00 0.0000000e+00 
3.8184282e-01 4.1932206e+00 0.0000000e+00 
5.0831819e-01 4.1188259e+00 0.0000000e+00 
3.8249290e-01 4.0462651e+00 0.0000000e+00 
5.0818664e-01 3.9732957e+00 0.0000000e+00 
3.8265404e-01 3.8991868e+00 0.0000000e+00 
5.0769192e-01 3.8249388e+00 0.0000000e+00 
3.8307732e-01 3.7517705e+00 0.0000000e+00 
5.0990808e-01 3.6776419e+00 0.0000000e+00 
3.8416636e-01 3.6049941e+00 0.0000000e+00 
5.1177651e-01 3.5322094e+00 0.0000000e+00 
3.8460994e-01 3.4584429e+00 0.0000000e+00 
5.1256055e-01 3.3855147e+00 0.0000000e+00 
3.8520575e-01 3.3115354e+00 0.0000000e+00 
5.1318693e-01 3.2385471e+00 0.0000000e+00 
3.8561273e-01 3.1645203e+00 0.0000000e+00 
5.1375473e-01 3.0915136e+00 0.0000000e+00 
3.8616878e-01 3.0174749e+00 0.0000000e+00 
5.1433694e-01 2.9444630e+00 0.0000000e+00 
3.8656160e-01 2.8704205e+00 0.0000000e+00 
5.1489413e-01 2.7974076e+00 0.0000000e+00 
3.8711417e-01 2.7233641e+00 0.0000000e+00 
5.1547360e-01 2.6503508e+00 0.0000000e+00 
3.8750717e-01 2.5763063e+00 0.0000000e+00 
5.1603019e-01 2.5032935e+00 0.0000000e+00 
3.8805979e-01 2.4292488e+00 0.0000000e+00 
5.1422137e-01 2.3562264e+00 0.0000000e+00 
3.8765049e-01 2.2821872e+00 0.0000000e+00 
5.1307547e-01 2.2071202e+00 0.0000000e+00 
3.8778570e-01 2.1347876e+00 0.0000000e+00 
5.1568961e-01 2.0596735e+00 0.0000000e+00 
3.9013749e-01 1.9876142e+00 0.0000000e+00 
5.1808232e-01 1.9145784e+00 0.0000000e+00 
3.8994926e-01 1.8408588e+00 0.0000000e+00 
5.1884413e-01 1.7678982e+00 0.0000000e+00 
[...]
POINT_DATA 628
FIELD FieldData 2
VELOCITY 3 628  float
0.0000000e+00 0.0000000e+00 0.0000000e+00 
0.0000000e+00 0.0000000e+00 0.0000000e+00 
0.0000000e+00 -2.0097659e-03 0.0000000e+00 
0.0000000e+00 -1.6300947e-03 0.0000000e+00 
0.0000000e+00 -9.4402872e-04 0.0000000e+00 
0.0000000e+00 -9.6879515e-04 0.0000000e+00 
0.0000000e+00 0.0000000e+00 0.0000000e+00 
0.0000000e+00 0.0000000e+00 0.0000000e+00 
0.0000000e+00 0.0000000e+00 0.0000000e+00 
0.0000000e+00 0.0000000e+00 0.0000000e+00 
0.0000000e+00 0.0000000e+00 0.0000000e+00 
0.0000000e+00 0.0000000e+00 0.0000000e+00 
-5.4326840e-05 -1.4783822e-03 0.0000000e+00 
1.0042866e-04 -1.8808810e-03 0.0000000e+00 
-1.1116148e-04 -1.9426899e-03 0.0000000e+00 
-1.6395947e-04 -2.4395380e-03 0.0000000e+00 
3.4868179e-04 -2.5619951e-03 0.0000000e+00 
-1.9721562e-04 -1.8956006e-03 0.0000000e+00 
2.6180604e-05 -9.2784403e-04 0.0000000e+00 
1.3544158e-06 -9.3144714e-04 0.0000000e+00 
1.3339095e-05 -9.2814642e-04 0.0000000e+00 
6.3253665e-06 -9.5819973e-04 0.0000000e+00 
5.1765019e-06 -9.4094931e-04 0.0000000e+00 
-2.2291868e-05 -9.5811958e-04 0.0000000e+00 
0.0000000e+00 -3.6916486e-04 0.0000000e+00 
0.0000000e+00 -3.5214354e-04 0.0000000e+00 
0.0000000e+00 -4.9787818e-04 0.0000000e+00 
0.0000000e+00 -3.2910678e-04 0.0000000e+00 
0.0000000e+00 -4.2171261e-04 0.0000000e+00 
0.0000000e+00 -4.3967969e-04 0.0000000e+00 
0.0000000e+00 2.9509460e-05 0.0000000e+00 
0.0000000e+00 1.5616491e-04 0.0000000e+00 
0.0000000e+00 -8.0450314e-05 0.0000000e+00 
0.0000000e+00 -7.2272604e-05 0.0000000e+00 
0.0000000e+00 -7.4035757e-05 0.0000000e+00 
0.0000000e+00 -2.8132147e-04 0.0000000e+00 
0.0000000e+00 -1.1201752e-04 0.0000000e+00 
0.0000000e+00 2.9416586e-04 0.0000000e+00 
0.0000000e+00 1.8914641e-04 0.0000000e+00 
0.0000000e+00 -1.8740245e-04 0.0000000e+00 
0.0000000e+00 -1.9182416e-04 0.0000000e+00 
0.0000000e+00 1.3213869e-05 0.0000000e+00 
0.0000000e+00 3.1202148e-05 0.0000000e+00 
0.0000000e+00 1.2281133e-05 0.0000000e+00 
0.0000000e+00 1.2277726e-04 0.0000000e+00 
0.0000000e+00 7.6560078e-05 0.0000000e+00 
0.0000000e+00 -1.8597965e-04 0.0000000e+00 
0.0000000e+00 -2.0264009e-04 0.0000000e+00 
0.0000000e+00 1.4485288e-04 0.0000000e+00 
0.0000000e+00 3.0665001e-04 0.0000000e+00 
0.0000000e+00 -1.4089625e-05 0.0000000e+00 
0.0000000e+00 -3.2931109e-04 0.0000000e+00 
0.0000000e+00 -1.4608099e-04 0.0000000e+00 
0.0000000e+00 2.4922309e-04 0.0000000e+00 
0.0000000e+00 2.4665965e-04 0.0000000e+00 
0.0000000e+00 -1.4198992e-04 0.0000000e+00 
0.0000000e+00 -3.1012643e-04 0.0000000e+00 
0.0000000e+00 -2.9227705e-04 0.0000000e+00 
0.0000000e+00 -1.3734466e-04 0.0000000e+00 
0.0000000e+00 2.3322707e-04 0.0000000e+00 
0.0000000e+00 2.4196562e-04 0.0000000e+00 
0.0000000e+00 -1.3613216e-04 0.0000000e+00 
0.0000000e+00 -3.1183110e-04 0.0000000e+00 
0.0000000e+00 -8.4120229e-06 0.0000000e+00 
0.0000000e+00 2.9356513e-04 0.0000000e+00 
0.0000000e+00 1.3115513e-04 0.0000000e+00 
0.0000000e+00 -2.0233558e-04 0.0000000e+00 
0.0000000e+00 -1.8293320e-04 0.0000000e+00 
0.0000000e+00 6.8210924e-05 0.0000000e+00 
0.0000000e+00 1.1262258e-04 0.0000000e+00 
0.0000000e+00 1.7134524e-05 0.0000000e+00 
0.0000000e+00 4.2780932e-05 0.0000000e+00 
0.0000000e+00 1.1830891e-05 0.0000000e+00 
0.0000000e+00 -1.9763659e-04 0.0000000e+00 
0.0000000e+00 -1.7819036e-04 0.0000000e+00 
0.0000000e+00 1.9481590e-04 0.0000000e+00 
0.0000000e+00 2.7822476e-04 0.0000000e+00 
0.0000000e+00 -1.2130845e-04 0.0000000e+00 
0.0000000e+00 -2.6751633e-04 0.0000000e+00 
0.0000000e+00 -5.9532893e-05 0.0000000e+00 
0.0000000e+00 -8.3490340e-05 0.0000000e+00 
0.0000000e+00 -8.7500724e-05 0.0000000e+00 
0.0000000e+00 1.7092579e-04 0.0000000e+00 
0.0000000e+00 1.3162799e-05 0.0000000e+00 
0.0000000e+00 -4.5356009e-04 0.0000000e+00 
0.0000000e+00 -4.0432508e-04 0.0000000e+00 
0.0000000e+00 -3.2940498e-04 0.0000000e+00 
0.0000000e+00 -5.3451647e-04 0.0000000e+00 
0.0000000e+00 -3.4006816e-04 0.0000000e+00 
0.0000000e+00 -3.3584016e-04 0.0000000e+00 
0.0000000e+00 -2.4825989e-03 0.0000000e+00 
0.0000000e+00 -2.4590322e-03 0.0000000e+00 
0.0000000e+00 -2.8036837e-03 0.0000000e+00 
0.0000000e+00 -3.3010147e-03 0.0000000e+00 
0.0000000e+00 -3.4904450e-03 0.0000000e+00 
0.0000000e+00 -3.3626796e-03 0.0000000e+00 
0.0000000e+00 -3.5032490e-03 0.0000000e+00 
0.0000000e+00 -3.0280524e-03 0.0000000e+00 
0.0000000e+00 -2.8154170e-03 0.0000000e+00 
0.0000000e+00 -2.1354007e-03 0.0000000e+00 
0.0000000e+00 -2.2217524e-03 0.0000000e+00 
0.0000000e+00 -1.9797806e-03 0.0000000e+00 
0.0000000e+00 -2.2825059e-03 0.0000000e+00 
0.0000000e+00 -2.3291779e-03 0.0000000e+00 
0.0000000e+00 -2.8519656e-03 0.0000000e+00 
0.0000000e+00 -2.9182474e-03 0.0000000e+00 
0.0000000e+00 -3.3272782e-03 0.0000000e+00 
0.0000000e+00 -3.0677700e-03 0.0000000e+00 
0.0000000e+00 -3.3348585e-03 0.0000000e+00 
0.0000000e+00 -3.0384879e-03 0.0000000e+00 
0.0000000e+00 -3.4456234e-03 0.0000000e+00 
0.0000000e+00 -3.3753619e-03 0.0000000e+00 
0.0000000e+00 -3.6676631e-03 0.0000000e+00 
0.0000000e+00 -3.5439080e-03 0.0000000e+00 
0.0000000e+00 -3.2037755e-03 0.0000000e+00 
0.0000000e+00 -3.0248037e-03 0.0000000e+00 
0.0000000e+00 -2.3040085e-03 0.0000000e+00 
0.0000000e+00 -2.1574257e-03 0.0000000e+00 
0.0000000e+00 -1.8310263e-03 0.0000000e+00 
0.0000000e+00 -1.5827626e-03 0.0000000e+00 
0.0000000e+00 -1.7421079e-03 0.0000000e+00 
0.0000000e+00 -1.3430665e-03 0.0000000e+00 
0.0000000e+00 -1.0826557e-03 0.0000000e+00 
0.0000000e+00 -1.0428410e-03 0.0000000e+00 
0.0000000e+00 -1.3248418e-03 0.0000000e+00 
0.0000000e+00 -1.7993767e-03 0.0000000e+00 
0.0000000e+00 -1.5784102e-03 0.0000000e+00 
0.0000000e+00 -1.8026986e-03 0.0000000e+00 
0.0000000e+00 -2.1610500e-03 0.0000000e+00 
0.0000000e+00 -2.2628237e-03 0.0000000e+00 
0.0000000e+00 -3.0934562e-03 0.0000000e+00 
0.0000000e+00 -3.2138729e-03 0.0000000e+00 
0.0000000e+00 -3.5240771e-03 0.0000000e+00 
0.0000000e+00 -3.6810015e-03 0.0000000e+00 
0.0000000e+00 -3.2806715e-03 0.0000000e+00 
0.0000000e+00 -3.5324756e-03 0.0000000e+00 
0.0000000e+00 -3.0229266e-03 0.0000000e+00 
0.0000000e+00 -3.3257056e-03 0.0000000e+00 
0.0000000e+00 -3.0824749e-03 0.0000000e+00 
0.0000000e+00 -3.3099940e-03 0.0000000e+00 
0.0000000e+00 -2.9331595e-03 0.0000000e+00 
0.0000000e+00 -2.8162736e-03 0.0000000e+00 
0.0000000e+00 -2.3919025e-03 0.0000000e+00 
0.0000000e+00 -2.2687064e-03 0.0000000e+00 
0.0000000e+00 -1.9635474e-03 0.0000000e+00 
0.0000000e+00 -2.1062100e-03 0.0000000e+00 
0.0000000e+00 -2.3307186e-03 0.0000000e+00 
0.0000000e+00 -2.7015426e-03 0.0000000e+00 
0.0000000e+00 -2.9685074e-03 0.0000000e+00 
0.0000000e+00 -3.5933617e-03 0.0000000e+00 
0.0000000e+00 -3.3425104e-03 0.0000000e+00 
0.0000000e+00 -3.4888368e-03 0.0000000e+00 
0.0000000e+00 -3.2931904e-03 0.0000000e+00 
0.0000000e+00 -2.6979684e-03 0.0000000e+00 
0.0000000e+00 -2.7354925e-03 0.0000000e+00 
0.0000000e+00 -2.0198976e-03 0.0000000e+00 
-7.6168071e-06 -4.0637882e-04 0.0000000e+00 
-1.7252665e-06 -3.0681229e-04 0.0000000e+00 
-2.3494622e-06 6.9770867e-05 0.0000000e+00 
-7.3490814e-06 -3.0651837e-04 0.0000000e+00 
-7.2221434e-07 1.7457944e-04 0.0000000e+00 
-2.1580402e-06 -3.4229299e-05 0.0000000e+00 
1.0856618e-05 3.1559257e-04 0.0000000e+00 
-3.3752592e-06 5.5033170e-06 0.0000000e+00 
-1.4142454e-06 -2.5523276e-04 0.0000000e+00 
-2.5835927e-06 1.9326118e-04 0.0000000e+00 
1.1753166e-06 -2.4377667e-04 0.0000000e+00 
-8.8287305e-07 -2.6119451e-04 0.0000000e+00 
-2.0827397e-06 1.2572817e-04 0.0000000e+00 
-2.2527697e-06 5.4333501e-05 0.0000000e+00 
-1.4815083e-06 -5.1593111e-04 0.0000000e+00 
9.3227948e-07 -2.7966194e-04 0.0000000e+00 
-2.9256100e-06 2.6910726e-04 0.0000000e+00 
6.0347425e-06 2.3879320e-05 0.0000000e+00 
-4.7500507e-06 -2.6284243e-04 0.0000000e+00 
6.4187252e-06 1.3657942e-04 0.0000000e+00 
-1.2127094e-05 -4.1559481e-04 0.0000000e+00 
-8.0090740e-06 3.2036644e-04 0.0000000e+00 
3.1705017e-06 -2.4480725e-04 0.0000000e+00 
-3.9577544e-06 -2.4231334e-04 0.0000000e+00 
5.2559121e-06 -3.5337718e-05 0.0000000e+00 
-1.6068503e-07 3.1212889e-04 0.0000000e+00 
-9.0617650e-06 -4.5582888e-04 0.0000000e+00 
-2.2100216e-06 7.9105004e-05 0.0000000e+00 
-8.2462566e-06 -2.4785320e-04 0.0000000e+00 
-4.8122388e-06 -2.7486045e-04 0.0000000e+00 
1.1681914e-06 -2.5356965e-04 0.0000000e+00 
9.8797391e-06 -4.1598105e-04 0.0000000e+00 
1.3110879e-05 -4.4047806e-04 0.0000000e+00 
-1.6456521e-05 -5.1893742e-04 0.0000000e+00 
1.4541218e-05 -3.2616669e-04 0.0000000e+00 
1.0831871e-05 -4.1686074e-04 0.0000000e+00 
6.6247612e-06 -3.2407272e-04 0.0000000e+00 
6.9512025e-06 -3.2464077e-04 0.0000000e+00 
-4.8487277e-06 -4.2851266e-04 0.0000000e+00 
-6.3256189e-06 -5.0602114e-04 0.0000000e+00 
-1.2382446e-05 -5.0913508e-04 0.0000000e+00 
-7.1567558e-07 -4.5958135e-04 0.0000000e+00 
1.3618613e-05 -2.4723518e-04 0.0000000e+00 
3.3213648e-06 6.5337377e-07 0.0000000e+00 
-4.2401407e-06 1.7453847e-04 0.0000000e+00 
1.5542273e-06 1.6315123e-04 0.0000000e+00 
5.0070612e-06 3.3796267e-05 0.0000000e+00 
5.5317087e-06 -9.1086265e-05 0.0000000e+00 
-4.1002831e-06 -1.2099482e-04 0.0000000e+00 
-4.5102252e-06 -7.6582095e-05 0.0000000e+00 
8.3248178e-06 -3.5913319e-05 0.0000000e+00 
3.7447824e-06 -6.8838403e-05 0.0000000e+00 
1.2474122e-06 -1.7858525e-04 0.0000000e+00 
-4.8595639e-06 -2.6958477e-04 0.0000000e+00 
-8.8515699e-06 -2.6411426e-04 0.0000000e+00 
-4.6914442e-06 -1.2559524e-04 0.0000000e+00 
6.0283119e-06 9.2464368e-05 0.0000000e+00 
4.5915058e-06 2.6593232e-04 0.0000000e+00 
-3.4333168e-06 3.1274298e-04 0.0000000e+00 
2.1902824e-06 2.0379911e-04 0.0000000e+00 
2.7264177e-06 3.4349014e-06 0.0000000e+00 
1.3500244e-06 -1.7216514e-04 0.0000000e+00 
-1.3851715e-06 -2.3960603e-04 0.0000000e+00 
-3.6230470e-06 -1.9387719e-04 0.0000000e+00 
-6.7754445e-06 -7.7574892e-05 0.0000000e+00 
2.5176953e-07 1.8804227e-05 0.0000000e+00 
6.5735535e-06 5.3840453e-05 0.0000000e+00 
5.3329272e-06 3.5612309e-05 0.0000000e+00 
-6.6595879e-07 9.0216263e-06 0.0000000e+00 
-2.1801427e-06 1.6966405e-05 0.0000000e+00 
-5.9875256e-06 6.7230059e-05 0.0000000e+00 
-5.0133458e-06 1.2061686e-04 0.0000000e+00 
2.7652077e-06 1.3312804e-04 0.0000000e+00 
1.2450397e-06 7.1149181e-05 0.0000000e+00 
1.4383023e-06 -5.8415528e-05 0.0000000e+00 
1.0334022e-06 -1.8128462e-04 0.0000000e+00 
-1.9759148e-06 -2.5699838e-04 0.0000000e+00 
-1.8442802e-06 -2.0393495e-04 0.0000000e+00 
-5.6351274e-07 -6.4405293e-05 0.0000000e+00 
-1.1940804e-06 1.2753336e-04 0.0000000e+00 
-1.4049020e-06 2.7213377e-04 0.0000000e+00 
3.0110093e-06 2.9989891e-04 0.0000000e+00 
1.8473593e-06 1.9870902e-04 0.0000000e+00 
3.5405856e-06 2.6972275e-06 0.0000000e+00 
2.8014751e-06 -1.9691981e-04 0.0000000e+00 
-3.4978227e-06 -3.1196466e-04 0.0000000e+00 
1.8962771e-07 -2.9259879e-04 0.0000000e+00 
-3.7697826e-06 -1.4808841e-04 0.0000000e+00 
-5.8109032e-07 6.1929626e-05 0.0000000e+00 
-4.9638248e-07 2.3645596e-04 0.0000000e+00 
-1.9470372e-06 3.1756016e-04 0.0000000e+00 
2.6285745e-06 2.4409179e-04 0.0000000e+00 
3.6786789e-06 7.9152545e-05 0.0000000e+00 
-5.3826739e-06 -2.4517137e-04 0.0000000e+00 
-8.0445061e-06 -4.2009473e-04 0.0000000e+00 
2.1413232e-06 -1.3228483e-04 0.0000000e+00 
-3.1500147e-06 5.9532060e-05 0.0000000e+00 
-2.0346940e-07 -4.6767664e-04 0.0000000e+00 
3.1466211e-06 -1.6894897e-04 0.0000000e+00 
-2.3372627e-06 8.6991247e-05 0.0000000e+00 
4.9172127e-07 -1.9533696e-04 0.0000000e+00 
-1.1980466e-06 1.2350437e-05 0.0000000e+00 
1.4824199e-06 -8.2578852e-05 0.0000000e+00 
4.8869392e-06 -4.8620201e-05 0.0000000e+00 
-5.0063959e-06 -5.6863078e-05 0.0000000e+00 
-3.8300795e-06 6.7885601e-05 0.0000000e+00 
2.5847216e-06 -3.1354808e-04 0.0000000e+00 
-1.9247263e-06 1.2961145e-04 0.0000000e+00 
9.8313501e-07 1.6374719e-05 0.0000000e+00 
7.9178261e-07 1.6872074e-05 0.0000000e+00 
1.1366566e-05 -1.3500369e-04 0.0000000e+00 
3.6246738e-06 7.5283220e-05 0.0000000e+00 
1.6380847e-06 -2.8274741e-04 0.0000000e+00 
1.1600238e-06 -3.4088863e-04 0.0000000e+00 
-9.5656187e-06 -2.2460354e-04 0.0000000e+00 
1.1983285e-05 -2.4519552e-04 0.0000000e+00 
-2.7028136e-06 2.6517184e-04 0.0000000e+00 
1.2547534e-07 -1.0189883e-04 0.0000000e+00 
-1.6928615e-06 -1.9335066e-04 0.0000000e+00 
3.0709282e-06 1.2138064e-04 0.0000000e+00 
5.1631032e-06 -1.7402240e-04 0.0000000e+00 
7.0345081e-08 2.8151507e-04 0.0000000e+00 
-1.0681086e-05 -2.6852603e-04 0.0000000e+00 
-1.4410810e-07 -7.8419289e-05 0.0000000e+00 
-1.2942343e-05 -4.6368572e-04 0.0000000e+00 
-2.7210826e-06 3.2661116e-04 0.0000000e+00 
-3.0696417e-06 2.5650984e-04 0.0000000e+00 
-4.2773236e-06 6.6617089e-05 0.0000000e+00 
5.1905954e-07 3.1389287e-04 0.0000000e+00 
3.3406982e-06 -3.2293436e-04 0.0000000e+00 
9.7568354e-06 -4.1944839e-04 0.0000000e+00 
-1.4657716e-06 7.6582517e-05 0.0000000e+00 
-6.6200100e-06 -2.8413982e-04 0.0000000e+00 
9.6281583e-06 -2.6004770e-04 0.0000000e+00 
1.4650087e-06 -1.0270385e-06 0.0000000e+00 
-3.9358765e-06 3.0372574e-04 0.0000000e+00 
-3.4678515e-06 2.8220238e-04 0.0000000e+00 
6.2985964e-06 1.8685640e-04 0.0000000e+00 
6.6155167e-06 -1.4765316e-05 0.0000000e+00 
-3.0115854e-07 2.6966177e-04 0.0000000e+00 
2.3229736e-06 1.3567763e-05 0.0000000e+00 
1.9811299e-07 3.5491033e-05 0.0000000e+00 
-2.0844809e-07 5.7646514e-05 0.0000000e+00 
-4.2895718e-07 -1.1125381e-05 0.0000000e+00 
-6.2486174e-06 -1.8911246e-04 0.0000000e+00 
-2.9297180e-06 -8.0476624e-05 0.0000000e+00 
-6.2346257e-06 -1.2031029e-04 0.0000000e+00 
1.1019710e-05 -7.1110633e-05 0.0000000e+00 
-2.5594777e-06 -1.7730487e-04 0.0000000e+00 
7.0150218e-06 -1.1448537e-04 0.0000000e+00 
7.7662744e-06 1.1636350e-04 0.0000000e+00 
-7.9293077e-06 1.9951306e-04 0.0000000e+00 
-3.0911144e-06 9.7500480e-05 0.0000000e+00 
-4.5647753e-06 -5.1540561e-04 0.0000000e+00 
1.3193204e-06 -4.2485239e-04 0.0000000e+00 
3.3877457e-06 -2.5972613e-04 0.0000000e+00 
-4.9786759e-06 4.2584015e-05 0.0000000e+00 
-5.4310476e-06 1.6989926e-04 0.0000000e+00 
6.2799745e-07 -1.2888529e-04 0.0000000e+00 
-1.5969941e-06 6.2920175e-05 0.0000000e+00 
5.9349727e-06 6.7775291e-05 0.0000000e+00 
9.5906398e-07 -5.4736316e-05 0.0000000e+00 
-2.5337187e-07 -2.1373726e-04 0.0000000e+00 
-2.8297284e-06 1.6394535e-04 0.0000000e+00 
2.6028761e-06 1.5431787e-04 0.0000000e+00 
2.4020410e-06 -8.4805462e-05 0.0000000e+00 
5.5299370e-06 -1.6359602e-04 0.0000000e+00 
-1.1767366e-07 -2.9394036e-04 0.0000000e+00 
1.5760630e-06 -2.1022282e-04 0.0000000e+00 
6.8577801e-06 -5.3162166e-05 0.0000000e+00 
-2.6824046e-06 1.5249835e-06 0.0000000e+00 
-5.8308601e-06 -5.5906788e-05 0.0000000e+00 
1.8675086e-06 -2.3979148e-04 0.0000000e+00 
-7.4686900e-06 1.5470201e-05 0.0000000e+00 
3.1705897e-06 3.3077577e-05 0.0000000e+00 
-3.4020802e-06 1.2943620e-04 0.0000000e+00 
-8.3948026e-07 -2.4264987e-04 0.0000000e+00 
9.5633768e-06 3.1582042e-04 0.0000000e+00 
-6.5099134e-06 -2.6162123e-04 0.0000000e+00 
-5.5921660e-06 -3.9287432e-05 0.0000000e+00 
4.0434952e-06 -2.4161578e-04 0.0000000e+00 
7.3074239e-06 -4.5913225e-04 0.0000000e+00 
-1.2283906e-05 -4.2663960e-04 0.0000000e+00 
4.2958342e-07 -5.3812182e-05 0.0000000e+00 
1.1089043e-07 -9.5195930e-05 0.0000000e+00 
3.2411854e-06 4.8748396e-05 0.0000000e+00 
2.2641692e-05 -3.3006057e-04 0.0000000e+00 
-1.6015490e-05 -4.1261761e-04 0.0000000e+00 
2.2727319e-07 -1.3714505e-04 0.0000000e+00 
-1.5099935e-05 -3.2444007e-04 0.0000000e+00 
1.8911225e-06 -3.1399637e-04 0.0000000e+00 
1.9020355e-05 -2.2225383e-04 0.0000000e+00 
-4.7070689e-06 -2.9361327e-04 0.0000000e+00 
5.7325360e-07 8.2737251e-06 0.0000000e+00 
2.6210687e-06 -5.2413536e-04 0.0000000e+00 
-7.3410638e-07 -2.9074249e-04 0.0000000e+00 
5.0430085e-06 -3.1254609e-04 0.0000000e+00 
-1.9920633e-06 -5.0455163e-04 0.0000000e+00 
-6.1008227e-06 -4.7513176e-04 0.0000000e+00 
1.5644990e-06 1.8099361e-04 0.0000000e+00 
5.7976735e-07 1.4556471e-05 0.0000000e+00 
2.9102009e-06 3.3766104e-05 0.0000000e+00 
1.3309566e-06 -8.8741624e-05 0.0000000e+00 
-2.2885256e-06 -8.7847919e-05 0.0000000e+00 
7.0982296e-08 -6.3772037e-05 0.0000000e+00 
3.4678862e-06 -2.6217761e-04 0.0000000e+00 
-1.0669792e-05 -1.2648995e-04 0.0000000e+00 
5.1336242e-06 -2.0103007e-04 0.0000000e+00 
7.8780949e-06 2.6990907e-04 0.0000000e+00 
6.9747784e-06 2.1084510e-04 0.0000000e+00 
-7.5439079e-06 -1.6449358e-04 0.0000000e+00 
3.6583162e-06 7.1661962e-06 0.0000000e+00 
2.5803306e-06 -1.9501592e-04 0.0000000e+00 
1.1030820e-06 5.3774598e-05 0.0000000e+00 
3.4296736e-06 1.1850286e-05 0.0000000e+00 
-4.5510046e-06 1.1103247e-04 0.0000000e+00 
2.1726335e-06 6.9121794e-05 0.0000000e+00 
8.3961922e-06 -1.7492264e-04 0.0000000e+00 
2.4106341e-06 2.9082832e-04 0.0000000e+00 
-2.6514001e-06 -1.9837328e-04 0.0000000e+00 
-6.7678720e-06 1.2785556e-04 0.0000000e+00 
-5.5593805e-06 -1.3693119e-04 0.0000000e+00 
-7.5322731e-07 2.4747185e-04 0.0000000e+00 
-1.0719264e-06 2.5513064e-04 0.0000000e+00 
4.7737149e-07 -3.0645786e-04 0.0000000e+00 
3.8483513e-06 1.8381866e-04 0.0000000e+00 
-3.9913120e-06 -1.2701616e-04 0.0000000e+00 
-4.0738942e-06 -2.4245783e-04 0.0000000e+00 
2.2300287e-06 -2.2787433e-04 0.0000000e+00 
1.6844491e-05 -5.6604663e-04 0.0000000e+00 
-1.1079279e-05 -5.5557932e-04 0.0000000e+00 
1.5020076e-06 -5.0741161e-04 0.0000000e+00 
-1.0329643e-05 -5.2473991e-04 0.0000000e+00 
9.7448155e-06 -2.4232866e-04 0.0000000e+00 
-2.2206234e-06 -2.3608834e-04 0.0000000e+00 
-2.6787043e-06 -2.8850391e-04 0.0000000e+00 
1.4446500e-04 -2.2494365e-03 0.0000000e+00 
2.8736933e-06 -1.1064255e-03 0.0000000e+00 
4.7272380e-05 -3.2094941e-03 0.0000000e+00 
-1.2566775e-05 -1.5936920e-03 0.0000000e+00 
-7.1106824e-06 -2.8860394e-03 0.0000000e+00 
2.3401544e-06 -2.6859466e-03 0.0000000e+00 
2.4449118e-05 -1.8900303e-03 0.0000000e+00 
1.2918811e-05 -3.4845548e-03 0.0000000e+00 
-1.6971790e-05 -3.1782782e-03 0.0000000e+00 
-9.5050400e-06 -2.7915742e-03 0.0000000e+00 
-2.2010701e-05 -3.1812519e-03 0.0000000e+00 
-4.6030900e-06 -3.2289787e-03 0.0000000e+00 
-2.9574543e-05 -3.6094401e-03 0.0000000e+00 
-7.3266465e-06 -2.1899550e-03 0.0000000e+00 
4.2937736e-06 -2.1078042e-03 0.0000000e+00 
1.2799046e-05 -3.1365494e-03 0.0000000e+00 
1.5520365e-05 -2.9599424e-03 0.0000000e+00 
-1.4179418e-05 -3.0182134e-03 0.0000000e+00 
-1.3837577e-05 -2.2697875e-03 0.0000000e+00 
2.8676324e-05 -2.7689266e-03 0.0000000e+00 
3.1883446e-06 -3.2822713e-03 0.0000000e+00 
1.8485802e-06 -3.3844174e-03 0.0000000e+00 
-2.5242995e-05 -1.7127011e-03 0.0000000e+00 
1.7243718e-07 -2.6573269e-03 0.0000000e+00 
3.4319888e-05 -3.2696666e-03 0.0000000e+00 
-5.3578173e-05 -2.3491946e-03 0.0000000e+00 
2.9723593e-05 -2.6544714e-03 0.0000000e+00 
-6.0498842e-06 -1.6143795e-03 0.0000000e+00 
-8.8007209e-06 -1.1660578e-03 0.0000000e+00 
-1.4661232e-04 -2.0010748e-03 0.0000000e+00 
-1.0470633e-04 -2.5916174e-03 0.0000000e+00 
2.6708458e-06 -1.1017296e-03 0.0000000e+00 
2.0271984e-05 -1.6309156e-03 0.0000000e+00 
-7.3132346e-06 -1.7703737e-03 0.0000000e+00 
-6.4658670e-06 -1.5261271e-03 0.0000000e+00 
8.6635373e-06 -1.7220748e-03 0.0000000e+00 
-3.1188661e-06 -1.5884305e-03 0.0000000e+00 
1.2108900e-05 -1.5708262e-03 0.0000000e+00 
6.7856549e-06 -1.8146815e-03 0.0000000e+00 
-9.8888313e-06 -1.7364108e-03 0.0000000e+00 
-1.7714359e-06 -2.0833306e-03 0.0000000e+00 
-2.4573378e-06 -2.1618698e-03 0.0000000e+00 
1.2362055e-05 -2.1461803e-03 0.0000000e+00 
-4.4847661e-06 -2.3157103e-03 0.0000000e+00 
-4.8195407e-06 -2.6524053e-03 0.0000000e+00 
6.2313552e-06 -3.0726991e-03 0.0000000e+00 
-1.5946162e-05 -3.2476380e-03 0.0000000e+00 
-1.3897292e-05 -3.1710414e-03 0.0000000e+00 
-9.0772510e-06 -3.2671031e-03 0.0000000e+00 
1.2284099e-05 -3.4977919e-03 0.0000000e+00 
1.7647884e-05 -3.7448828e-03 0.0000000e+00 
-3.8461090e-07 -3.6393020e-03 0.0000000e+00 
7.9921847e-06 -3.3880754e-03 0.0000000e+00 
-4.8863112e-06 -3.3687686e-03 0.0000000e+00 
-1.6849770e-05 -3.4298871e-03 0.0000000e+00 
-2.0640098e-06 -3.5560310e-03 0.0000000e+00 
8.9950654e-06 -3.2965308e-03 0.0000000e+00 
1.1056835e-05 -3.0429922e-03 0.0000000e+00 
-1.7910214e-05 -3.2006945e-03 0.0000000e+00 
1.0834094e-05 -3.3055660e-03 0.0000000e+00 