# vtk DataFile Version 4.0
vtk output
ASCII
DATASET UNSTRUCTURED_GRID
POINTS 628 float
0.0000000e+00 0.0000000e+00 0.0000000e+00 
1.0000000e+00 0.0000000e+00 0.0000000e+00 
1.0000000e+00 1.0000000e+01 0.0000000e+00 
0.0000000e+00 1.0000000e+01 0.0000000e+00 
0.0000000e+00 5.0000000e+00 0.0000000e+00 
1.0000000e+00 5.0000000e+00 0.0000000e+00 
1.4285715e-01 0.0000000e+00 0.0000000e+00 
2.8571430e-01 0.0000000e+00 0.0000000e+00 
4.2857143e-01 0.0000000e+00 0.0000000e+00 
5.7142860e-01 0.0000000e+00 0.0000000e+00 
7.1428573e-01 0.0000000e+00 0.0000000e+00 
8.5714287e-01 0.0000000e+00 0.0000000e+00 
8.5714287e-01 1.0000000e+01 0.0000000e+00 
7.1428573e-01 1.0000000e+01 0.0000000e+00 
5.7142860e-01 1.0000000e+01 0.0000000e+00 
4.2857143e-01 1.0000000e+01 0.0000000e+00 
2.8571430e-01 1.0000000e+01 0.0000000e+00 
1.4285715e-01 1.0000000e+01 0.0000000e+00 
1.4285715e-01 5.0000000e+00 0.0000000e+00 
2.8571430e-01 5.0000000e+00 0.0000000e+00 
4.2857143e-01 5.0000000e+00 0.0000000e+00 
5.7142860e-01 5.0000000e+00 0.0000000e+00 
7.1428573e-01 5.0000000e+00 0.0000000e+00 
8.5714287e-01 5.0000000e+00 0.0000000e+00 
0.0000000e+00 4.8529410e+00 0.0000000e+00 
0.0000000e+00 4.7058825e+00 0.0000000e+00 
0.0000000e+00 4.5588236e+00 0.0000000e+00 
0.0000000e+00 4.4117646e+00 0.0000000e+00 
0.0000000e+00 4.2647057e+00 0.0000000e+00 
0.0000000e+00 4.1176472e+00 0.0000000e+00 
0.0000000e+00 3.9705882e+00 0.0000000e+00 
0.0000000e+00 3.8235295e+00 0.0000000e+00 
0.0000000e+00 3.6764705e+00 0.0000000e+00 
0.0000000e+00 3.5294118e+00 0.0000000e+00 
0.0000000e+00 3.3823528e+00 0.0000000e+00 
0.0000000e+00 3.2352941e+00 0.0000000e+00 
0.0000000e+00 3.0882354e+00 0.0000000e+00 
0.0000000e+00 2.9411764e+00 0.0000000e+00 
0.0000000e+00 2.7941177e+00 0.0000000e+00 
0.0000000e+00 2.6470587e+00 0.0000000e+00 
0.0000000e+00 2.5000000e+00 0.0000000e+00 
0.0000000e+00 2.3529413e+00 0.0000000e+00 
0.0000000e+00 2.2058823e+00 0.0000000e+00 
0.0000000e+00 2.0588236e+00 0.0000000e+00 
0.0000000e+00 1.9117647e+00 0.0000000e+00 
0.0000000e+00 1.7647059e+00 0.0000000e+00 
0.0000000e+00 1.6176471e+00 0.0000000e+00 
0.0000000e+00 1.4705882e+00 0.0000000e+00 
0.0000000e+00 1.3235294e+00 0.0000000e+00 
0.0000000e+00 1.1764706e+00 0.0000000e+00 
0.0000000e+00 1.0294118e+00 0.0000000e+00 
0.0000000e+00 8.8235295e-01 0.0000000e+00 
0.0000000e+00 7.3529410e-01 0.0000000e+00 
0.0000000e+00 5.8823532e-01 0.0000000e+00 
0.0000000e+00 4.4117647e-01 0.0000000e+00 
0.0000000e+00 2.9411766e-01 0.0000000e+00 
0.0000000e+00 1.4705883e-01 0.0000000e+00 
1.0000000e+00 1.4705883e-01 0.0000000e+00 
1.0000000e+00 2.9411766e-01 0.0000000e+00 
1.0000000e+00 4.4117647e-01 0.0000000e+00 
1.0000000e+00 5.8823532e-01 0.0000000e+00 
1.0000000e+00 7.3529410e-01 0.0000000e+00 
1.0000000e+00 8.8235295e-01 0.0000000e+00 
1.0000000e+00 1.0294118e+00 0.0000000e+00 
1.0000000e+00 1.1764706e+00 0.0000000e+00 
1.0000000e+00 1.3235294e+00 0.0000000e+00 
1.0000000e+00 1.4705882e+00 0.0000000e+00 
1.0000000e+00 1.6176471e+00 0.0000000e+00 
1.0000000e+00 1.7647059e+00 0.0000000e+00 
1.0000000e+00 1.9117647e+00 0.0000000e+00 
1.0000000e+00 2.0588236e+00 0.0000000e+00 
1.0000000e+00 2.2058823e+00 0.0000000e+00 
1.0000000e+00 2.3529413e+00 0.0000000e+00 
1.0000000e+00 2.5000000e+00 0.0000000e+00 
1.0000000e+00 2.6470587e+00 0.0000000e+00 
1.0000000e+00 2.7941177e+00 0.0000000e+00 
1.0000000e+00 2.9411764e+00 0.0000000e+00 
1.0000000e+00 3.0882354e+00 0.0000000e+00 
1.0000000e+00 3.2352941e+00 0.0000000e+00 
1.0000000e+00 3.3823528e+00 0.0000000e+00 
1.0000000e+00 3.5294118e+00 0.0000000e+00 
1.0000000e+00 3.6764705e+00 0.0000000e+00 
1.0000000e+00 3.8235295e+00 0.0000000e+00 
1.0000000e+00 3.9705882e+00 0.0000000e+00 
1.0000000e+00 4.1176472e+00 0.0000000e+00 
1.0000000e+00 4.2647057e+00 0.0000000e+00 
1.0000000e+00 4.4117646e+00 0.0000000e+00 
1.0000000e+00 4.5588236e+00 0.0000000e+00 
1.0000000e+00 4.7058825e+00 0.0000000e+00 
1.0000000e+00 4.8529410e+00 0.0000000e+00 
0.0000000e+00 9.8529415e+00 0.0000000e+00 
0.0000000e+00 9.7058821e+00 0.0000000e+00 
0.0000000e+00 9.5588236e+00 0.0000000e+00 
0.0000000e+00 9.4117651e+00 0.0000000e+00 
0.0000000e+00 9.2647057e+00 0.0000000e+00 
0.0000000e+00 9.1176472e+00 0.0000000e+00 
0.0000000e+00 8.9705887e+00 0.0000000e+00 
0.0000000e+00 8.8235292e+00 0.0000000e+00 
0.0000000e+00 8.6764708e+00 0.0000000e+00 
0.0000000e+00 8.5294113e+00 0.0000000e+00 
0.0000000e+00 8.3823528e+00 0.0000000e+00 
0.0000000e+00 8.2352943e+00 0.0000000e+00 
0.0000000e+00 8.0882349e+00 0.0000000e+00 
0.0000000e+00 7.9411764e+00 0.0000000e+00 
0.0000000e+00 7.7941175e+00 0.0000000e+00 
0.0000000e+00 7.6470590e+00 0.0000000e+00 
0.0000000e+00 7.5000000e+00 0.0000000e+00 
0.0000000e+00 7.3529410e+00 0.0000000e+00 
0.0000000e+00 7.2058825e+00 0.0000000e+00 
0.0000000e+00 7.0588236e+00 0.0000000e+00 
0.0000000e+00 6.9117646e+00 0.0000000e+00 
0.0000000e+00 6.7647057e+00 0.0000000e+00 
0.0000000e+00 6.6176472e+00 0.0000000e+00 
0.0000000e+00 6.4705882e+00 0.0000000e+00 
0.0000000e+00 6.3235292e+00 0.0000000e+00 
0.0000000e+00 6.1764708e+00 0.0000000e+00 
0.0000000e+00 6.0294118e+00 0.0000000e+00 
0.0000000e+00 5.8823528e+00 0.0000000e+00 
0.0000000e+00 5.7352943e+00 0.0000000e+00 
0.0000000e+00 5.5882354e+00 0.0000000e+00 
0.0000000e+00 5.4411764e+00 0.0000000e+00 
0.0000000e+00 5.2941175e+00 0.0000000e+00 
0.0000000e+00 5.1470590e+00 0.0000000e+00 
1.0000000e+00 5.1470590e+00 0.0000000e+00 
1.0000000e+00 5.2941175e+00 0.0000000e+00 
1.0000000e+00 5.4411764e+00 0.0000000e+00 
1.0000000e+00 5.5882354e+00 0.0000000e+00 
1.0000000e+00 5.7352943e+00 0.0000000e+00 
1.0000000e+00 5.8823528e+00 0.0000000e+00 
1.0000000e+00 6.0294118e+00 0.0000000e+00 
1.0000000e+00 6.1764708e+00 0.0000000e+00 
1.0000000e+00 6.3235292e+00 0.0000000e+00 
1.0000000e+00 6.4705882e+00 0.0000000e+00 
1.0000000e+00 6.6176472e+00 0.0000000e+00 
1.0000000e+00 6.7647057e+00 0.0000000e+00 
1.0000000e+00 6.9117646e+00 0.0000000e+00 
1.0000000e+00 7.0588236e+00 0.0000000e+00 
1.0000000e+00 7.2058825e+00 0.0000000e+00 
1.0000000e+00 7.3529410e+00 0.0000000e+00 
1.0000000e+00 7.5000000e+00 0.0000000e+00 
1.0000000e+00 7.6470590e+00 0.0000000e+00 
1.0000000e+00 7.7941175e+00 0.0000000e+00 
1.0000000e+00 7.9411764e+00 0.0000000e+00 
1.0000000e+00 8.0882349e+00 0.0000000e+00 
1.0000000e+00 8.2352943e+00 0.0000000e+00 
1.0000000e+00 8.3823528e+00 0.0000000e+00 
1.0000000e+00 8.5294113e+00 0.0000000e+00 
1.0000000e+00 8.6764708e+00 0.0000000e+00 
1.0000000e+00 8.8235292e+00 0.0000000e+00 
1.0000000e+00 8.9705887e+00 0.0000000e+00 
1.0000000e+00 9.1176472e+00 0.0000000e+00 
1.0000000e+00 9.2647057e+00 0.0000000e+00 
1.0000000e+00 9.4117651e+00 0.0000000e+00 
1.0000000e+00 9.5588236e+00 0.0000000e+00 
1.0000000e+00 9.7058821e+00 0.0000000e+00 
1.0000000e+00 9.8529415e+00 0.0000000e+00 
5.0212586e-01 4.8703580e+00 0.0000000e+00 
5.1041055e-01 1.3732977e-01 0.0000000e+00 
1.3055173e-01 6.6499180e-01 0.0000000e+00 
8.7327349e-01 4.3372407e+00 0.0000000e+00 
8.7331611e-01 3.8958969e+00 0.0000000e+00 
8.7347627e-01 3.4562511e+00 0.0000000e+00 
8.7357801e-01 2.8680170e+00 0.0000000e+00 
1.2843554e-01 2.1327813e+00 0.0000000e+00 
1.2975387e-01 1.5449892e+00 0.0000000e+00 
1.3308091e-01 1.1039938e+00 0.0000000e+00 
1.2937543e-01 2.5737903e+00 0.0000000e+00 
1.2735668e-01 3.1617646e+00 0.0000000e+00 
8.7375563e-01 1.8386052e+00 0.0000000e+00 
8.7355548e-01 2.2778318e+00 0.0000000e+00 
1.2753446e-01 4.1915216e+00 0.0000000e+00 
8.7915283e-01 8.0759794e-01 0.0000000e+00 
8.8115031e-01 1.2498868e+00 0.0000000e+00 
1.2781374e-01 3.7501886e+00 0.0000000e+00 
8.7352717e-01 3.1621344e+00 0.0000000e+00 
1.2961270e-01 1.8389882e+00 0.0000000e+00 
1.2731366e-01 4.4857054e+00 0.0000000e+00 
1.2885660e-01 2.8684020e+00 0.0000000e+00 
8.7380636e-01 1.5444875e+00 0.0000000e+00 
8.7362880e-01 2.5738993e+00 0.0000000e+00 
1.2735668e-01 3.4558823e+00 0.0000000e+00 
8.7264335e-01 5.1470590e-01 0.0000000e+00 
8.7611687e-01 4.6317782e+00 0.0000000e+00 
1.3446054e-01 3.7013325e-01 0.0000000e+00 
1.2296320e-01 4.7760825e+00 0.0000000e+00 
8.8210768e-01 2.2118840e-01 0.0000000e+00 
2.1798968e-01 1.0548568e-01 0.0000000e+00 
7.7656764e-01 4.8704844e+00 0.0000000e+00 
1.2667844e-01 4.6331582e+00 0.0000000e+00 
2.5353336e-01 4.5619426e+00 0.0000000e+00 
2.5451174e-01 4.4132285e+00 0.0000000e+00 
3.8040194e-01 4.4881525e+00 0.0000000e+00 
3.8161713e-01 4.3403850e+00 0.0000000e+00 
5.0654775e-01 4.4141955e+00 0.0000000e+00 
5.0629890e-01 4.2659345e+00 0.0000000e+00 
5.0658631e-01 4.5616083e+00 0.0000000e+00 
3.8184282e-01 4.1932206e+00 0.0000000e+00 
5.0831819e-01 4.1188259e+00 0.0000000e+00 
3.8249290e-01 4.0462651e+00 0.0000000e+00 
5.0818664e-01 3.9732957e+00 0.0000000e+00 
3.8265404e-01 3.8991868e+00 0.0000000e+00 
5.0769192e-01 3.8249388e+00 0.0000000e+00 
3.8307732e-01 3.7517705e+00 0.0000000e+00 
5.0990808e-01 3.6776419e+00 0.0000000e+00 
3.8416636e-01 3.6049941e+00 0.0000000e+00 
5.1177651e-01 3.5322094e+00 0.0000000e+00 
3.8460994e-01 3.4584429e+00 0.0000000e+00 
5.1256055e-01 3.3855147e+00 0.0000000e+00 
3.8520575e-01 3.3115354e+00 0.0000000e+00 
5.1318693e-01 3.2385471e+00 0.0000000e+00 
3.8561273e-01 3.1645203e+00 0.0000000e+00 
5.1375473e-01 3.0915136e+00 0.0000000e+00 
3.8616878e-01 3.0174749e+00 0.0000000e+00 
5.1433694e-01 2.9444630e+00 0.0000000e+00 
3.8656160e-01 2.8704205e+00 0.0000000e+00 
5.1489413e-01 2.7974076e+00 0.0000000e+00 
3.8711417e-01 2.7233641e+00 0.0000000e+00 
5.1547360e-01 2.6503508e+00 0.0000000e+00 
3.8750717e-01 2.5763063e+00 0.0000000e+00 
5.1603019e-01 2.5032935e+00 0.0000000e+00 
3.8805979e-01 2.4292488e+00 0.0000000e+00 
5.1422137e-01 2.3562264e+00 0.0000000e+00 
3.8765049e-01 2.2821872e+00 0.0000000e+00 
5.1307547e-01 2.2071202e+00 0.0000000e+00 
3.8778570e-01 2.1347876e+00 0.0000000e+00 
5.1568961e-01 2.0596735e+00 0.0000000e+00 
3.9013749e-01 1.9876142e+00 0.0000000e+00 
5.1808232e-01 1.9145784e+00 0.0000000e+00 
3.8994926e-01 1.8408588e+00 0.0000000e+00 
5.1884413e-01 1.7678982e+00 0.0000000e+00 
[...]
POINT_DATA 628
FIELD FieldData 2
VELOCITY 3 628  float
0.0000000e+00 0.0000000e+00 0.0000000e+00 
0.0000000e+00 0.0000000e+00 0.0000000e+00 
0.0000000e+00 3.3256726e-03 0.0000000e+00 
0.0000000e+00 3.0653025e-03 0.0000000e+00 
0.0000000e+00 5.5838824e-04 0.0000000e+00 
0.0000000e+00 5.8083353e-04 0.0000000e+00 
0.0000000e+00 0.0000000e+00 0.0000000e+00 
0.0000000e+00 0.0000000e+00 0.0000000e+00 
0.0000000e+00 0.0000000e+00 0.0000000e+00 
0.0000000e+00 0.0000000e+00 0.0000000e+00 
0.0000000e+00 0.0000000e+00 0.0000000e+00 
0.0000000e+00 0.0000000e+00 0.0000000e+00 
-2.0182637e-05 3.3365604e-03 0.0000000e+00 
-1.4251443e-04 3.1519185e-03 0.0000000e+00 
1.5031426e-04 3.1710074e-03 0.0000000e+00 
-1.2781851e-04 3.1011230e-03 0.0000000e+00 
-4.9354941e-05 3.3684250e-03 0.0000000e+00 
-1.0311961e-05 3.0048459e-03 0.0000000e+00 
1.2787984e-06 5.5552082e-04 0.0000000e+00 
3.6499721e-06 5.6103664e-04 0.0000000e+00 
-4.4182681e-07 5.6805747e-04 0.0000000e+00 
3.0634594e-05 5.5832916e-04 0.0000000e+00 
2.1759746e-07 5.7579525e-04 0.0000000e+00 
-4.2106299e-06 5.7603949e-04 0.0000000e+00 
0.0000000e+00 5.2963594e-05 0.0000000e+00 
0.0000000e+00 -2.6868816e-04 0.0000000e+00 
0.0000000e+00 -3.9582004e-04 0.0000000e+00 
0.0000000e+00 -3.3674543e-04 0.0000000e+00 
0.0000000e+00 -4.6333045e-04 0.0000000e+00 
0.0000000e+00 -4.6109859e-04 0.0000000e+00 
0.0000000e+00 -4.6176481e-04 0.0000000e+00 
0.0000000e+00 -5.1865168e-04 0.0000000e+00 
0.0000000e+00 -5.4633932e-04 0.0000000e+00 
0.0000000e+00 -5.5532536e-04 0.0000000e+00 
0.0000000e+00 -5.5594818e-04 0.0000000e+00 
0.0000000e+00 -6.7924726e-04 0.0000000e+00 
0.0000000e+00 -3.9827012e-04 0.0000000e+00 
0.0000000e+00 -3.4926849e-04 0.0000000e+00 
0.0000000e+00 -3.2025881e-04 0.0000000e+00 
0.0000000e+00 -2.3223119e-04 0.0000000e+00 
0.0000000e+00 -2.5267027e-05 0.0000000e+00 
0.0000000e+00 1.7159025e-04 0.0000000e+00 
0.0000000e+00 5.1107333e-04 0.0000000e+00 
0.0000000e+00 9.2010928e-04 0.0000000e+00 
0.0000000e+00 7.3514914e-04 0.0000000e+00 
0.0000000e+00 6.9350854e-04 0.0000000e+00 
0.0000000e+00 5.1010872e-04 0.0000000e+00 
0.0000000e+00 2.3040532e-04 0.0000000e+00 
0.0000000e+00 3.1484372e-04 0.0000000e+00 
0.0000000e+00 7.8521625e-05 0.0000000e+00 
0.0000000e+00 -2.4420899e-04 0.0000000e+00 
0.0000000e+00 -5.1435840e-04 0.0000000e+00 
0.0000000e+00 -8.5761503e-04 0.0000000e+00 
0.0000000e+00 -8.2285370e-04 0.0000000e+00 
0.0000000e+00 -6.2322023e-04 0.0000000e+00 
0.0000000e+00 -3.6713807e-04 0.0000000e+00 
0.0000000e+00 -1.1540731e-04 0.0000000e+00 
0.0000000e+00 -9.4912473e-05 0.0000000e+00 
0.0000000e+00 -3.7016830e-04 0.0000000e+00 
0.0000000e+00 -5.9324416e-04 0.0000000e+00 
0.0000000e+00 -8.3499571e-04 0.0000000e+00 
0.0000000e+00 -8.5241219e-04 0.0000000e+00 
0.0000000e+00 -5.1434577e-04 0.0000000e+00 
0.0000000e+00 -2.4478123e-04 0.0000000e+00 
0.0000000e+00 7.7328157e-05 0.0000000e+00 
0.0000000e+00 3.1644278e-04 0.0000000e+00 
0.0000000e+00 2.2643249e-04 0.0000000e+00 
0.0000000e+00 5.1786361e-04 0.0000000e+00 
0.0000000e+00 6.6986389e-04 0.0000000e+00 
0.0000000e+00 7.6284423e-04 0.0000000e+00 
0.0000000e+00 8.9675852e-04 0.0000000e+00 
0.0000000e+00 5.1750604e-04 0.0000000e+00 
0.0000000e+00 1.9092747e-04 0.0000000e+00 
0.0000000e+00 -6.5681576e-05 0.0000000e+00 
0.0000000e+00 -2.0118894e-04 0.0000000e+00 
0.0000000e+00 -2.9987982e-04 0.0000000e+00 
0.0000000e+00 -3.5696203e-04 0.0000000e+00 
0.0000000e+00 -4.2385908e-04 0.0000000e+00 
0.0000000e+00 -6.7969615e-04 0.0000000e+00 
0.0000000e+00 -5.4072600e-04 0.0000000e+00 
0.0000000e+00 -5.7253178e-04 0.0000000e+00 
0.0000000e+00 -5.1394082e-04 0.0000000e+00 
0.0000000e+00 -5.2567874e-04 0.0000000e+00 
0.0000000e+00 -4.5771574e-04 0.0000000e+00 
0.0000000e+00 -4.9091829e-04 0.0000000e+00 
0.0000000e+00 -4.4844009e-04 0.0000000e+00 
0.0000000e+00 -3.2664338e-04 0.0000000e+00 
0.0000000e+00 -4.3088658e-04 0.0000000e+00 
0.0000000e+00 -2.2081137e-04 0.0000000e+00 
0.0000000e+00 3.6391295e-05 0.0000000e+00 
0.0000000e+00 2.9638940e-03 0.0000000e+00 
0.0000000e+00 2.7261626e-03 0.0000000e+00 
0.0000000e+00 2.6269942e-03 0.0000000e+00 
0.0000000e+00 2.6474250e-03 0.0000000e+00 
0.0000000e+00 2.5657865e-03 0.0000000e+00 
0.0000000e+00 2.5297606e-03 0.0000000e+00 
0.0000000e+00 2.7516596e-03 0.0000000e+00 
0.0000000e+00 3.0391123e-03 0.0000000e+00 
0.0000000e+00 3.0842940e-03 0.0000000e+00 
0.0000000e+00 2.9298549e-03 0.0000000e+00 
0.0000000e+00 2.7394879e-03 0.0000000e+00 
0.0000000e+00 2.7450074e-03 0.0000000e+00 
0.0000000e+00 2.5843682e-03 0.0000000e+00 
0.0000000e+00 2.4688421e-03 0.0000000e+00 
0.0000000e+00 2.5063681e-03 0.0000000e+00 
0.0000000e+00 2.6089647e-03 0.0000000e+00 
0.0000000e+00 2.8089569e-03 0.0000000e+00 
0.0000000e+00 2.7896364e-03 0.0000000e+00 
0.0000000e+00 2.7308317e-03 0.0000000e+00 
0.0000000e+00 2.5982326e-03 0.0000000e+00 
0.0000000e+00 2.3719291e-03 0.0000000e+00 
0.0000000e+00 2.3084981e-03 0.0000000e+00 
0.0000000e+00 2.3406821e-03 0.0000000e+00 
0.0000000e+00 2.1925489e-03 0.0000000e+00 
0.0000000e+00 1.9187330e-03 0.0000000e+00 
0.0000000e+00 1.8247904e-03 0.0000000e+00 
0.0000000e+00 1.7980547e-03 0.0000000e+00 
0.0000000e+00 1.7333716e-03 0.0000000e+00 
0.0000000e+00 1.4367341e-03 0.0000000e+00 
0.0000000e+00 1.4241918e-03 0.0000000e+00 
0.0000000e+00 1.2938933e-03 0.0000000e+00 
0.0000000e+00 1.2257283e-03 0.0000000e+00 
0.0000000e+00 8.7104272e-04 0.0000000e+00 
0.0000000e+00 8.3650544e-04 0.0000000e+00 
0.0000000e+00 1.2792516e-03 0.0000000e+00 
0.0000000e+00 1.2629104e-03 0.0000000e+00 
0.0000000e+00 1.4338442e-03 0.0000000e+00 
0.0000000e+00 1.3841222e-03 0.0000000e+00 
0.0000000e+00 1.8099463e-03 0.0000000e+00 
0.0000000e+00 1.7450599e-03 0.0000000e+00 
0.0000000e+00 1.8409492e-03 0.0000000e+00 
0.0000000e+00 1.8833952e-03 0.0000000e+00 
0.0000000e+00 2.2700280e-03 0.0000000e+00 
0.0000000e+00 2.2614894e-03 0.0000000e+00 
0.0000000e+00 2.3473096e-03 0.0000000e+00 
0.0000000e+00 2.3781785e-03 0.0000000e+00 
0.0000000e+00 2.5991888e-03 0.0000000e+00 
0.0000000e+00 2.7428335e-03 0.0000000e+00 
0.0000000e+00 2.7720341e-03 0.0000000e+00 
0.0000000e+00 2.8241035e-03 0.0000000e+00 
0.0000000e+00 2.5877154e-03 0.0000000e+00 
0.0000000e+00 2.5343180e-03 0.0000000e+00 
0.0000000e+00 2.4247167e-03 0.0000000e+00 
0.0000000e+00 2.6302738e-03 0.0000000e+00 
0.0000000e+00 2.7054651e-03 0.0000000e+00 
0.0000000e+00 2.7791427e-03 0.0000000e+00 
0.0000000e+00 2.9046107e-03 0.0000000e+00 
0.0000000e+00 3.0859080e-03 0.0000000e+00 
0.0000000e+00 3.0820074e-03 0.0000000e+00 
0.0000000e+00 2.6867804e-03 0.0000000e+00 
0.0000000e+00 2.5642542e-03 0.0000000e+00 
0.0000000e+00 2.5814180e-03 0.0000000e+00 
0.0000000e+00 2.5854406e-03 0.0000000e+00 
0.0000000e+00 2.6914296e-03 0.0000000e+00 
0.0000000e+00 2.6617651e-03 0.0000000e+00 
0.0000000e+00 3.0709314e-03 0.0000000e+00 
-1.6735308e-05 8.8472341e-05 0.0000000e+00 
1.6644412e-07 -1.0722420e-04 0.0000000e+00 
1.5857895e-05 -8.8513974e-04 0.0000000e+00 
-1.2796046e-06 -3.3640550e-04 0.0000000e+00 
-7.4707827e-06 -5.0070591e-04 0.0000000e+00 
6.4432120e-06 -5.3353515e-04 0.0000000e+00 
6.7660835e-06 -3.6873567e-04 0.0000000e+00 
-9.1059383e-06 7.7841600e-04 0.0000000e+00 
2.5505329e-07 3.3250332e-04 0.0000000e+00 
-2.4938315e-06 -1.3087003e-04 0.0000000e+00 
4.1669617e-07 -1.7305947e-04 0.0000000e+00 
8.0949885e-06 -5.5293774e-04 0.0000000e+00 
9.2962609e-06 6.8057771e-04 0.0000000e+00 
-9.1138318e-06 3.4415867e-04 0.0000000e+00 
-6.4842116e-06 -5.5062264e-04 0.0000000e+00 
-4.8200959e-06 -7.0524489e-04 0.0000000e+00 
1.2225745e-05 2.3261788e-04 0.0000000e+00 
-1.1383802e-05 -4.9787882e-04 0.0000000e+00 
4.6392902e-06 -5.6850637e-04 0.0000000e+00 
1.0104260e-05 6.8220717e-04 0.0000000e+00 
-4.9873661e-06 -3.5754265e-04 0.0000000e+00 
-1.4974053e-06 -3.5737702e-04 0.0000000e+00 
1.0207050e-06 3.5006681e-04 0.0000000e+00 
-8.1895050e-06 -1.9125894e-04 0.0000000e+00 
1.6351472e-06 -5.1947281e-04 0.0000000e+00 
2.4306446e-06 -7.1408576e-04 0.0000000e+00 
1.6730808e-05 -3.3056005e-04 0.0000000e+00 
1.3762511e-06 -5.0332368e-04 0.0000000e+00 
-5.1559173e-06 -1.7323042e-04 0.0000000e+00 
-4.4112498e-06 -2.5093521e-04 0.0000000e+00 
9.8656592e-06 -8.1862374e-05 0.0000000e+00 
-1.4872031e-05 1.0026415e-04 0.0000000e+00 
-6.8798886e-07 -3.4799255e-04 0.0000000e+00 
-4.5014863e-06 -3.8730781e-04 0.0000000e+00 
1.1304555e-05 -3.1891133e-04 0.0000000e+00 
9.6232216e-06 -3.6850019e-04 0.0000000e+00 
7.1014069e-06 -3.4775888e-04 0.0000000e+00 
2.6189696e-06 -3.3529437e-04 0.0000000e+00 
2.2126833e-06 -4.5736515e-04 0.0000000e+00 
-4.6698910e-06 -4.0193967e-04 0.0000000e+00 
2.7937529e-07 -5.3757022e-04 0.0000000e+00 
-6.8674781e-06 -4.8685906e-04 0.0000000e+00 
-1.2100820e-05 -4.3878780e-04 0.0000000e+00 
9.3253639e-06 -4.5923403e-04 0.0000000e+00 
3.3569788e-06 -4.7896802e-04 0.0000000e+00 
-5.9187875e-07 -5.1238947e-04 0.0000000e+00 
3.8105641e-06 -4.9391977e-04 0.0000000e+00 
-3.4749844e-06 -5.3133245e-04 0.0000000e+00 
6.9274220e-06 -5.9296063e-04 0.0000000e+00 
-3.3879892e-06 -5.6489679e-04 0.0000000e+00 
-2.3428456e-06 -5.2793353e-04 0.0000000e+00 
1.1041031e-06 -5.4403889e-04 0.0000000e+00 
-1.0749625e-05 -6.5208145e-04 0.0000000e+00 
-4.6589880e-06 -6.8641081e-04 0.0000000e+00 
-1.5196728e-06 -5.4336409e-04 0.0000000e+00 
2.8362348e-07 -3.9827754e-04 0.0000000e+00 
3.6136967e-06 -3.4088831e-04 0.0000000e+00 
2.8822046e-06 -3.5194404e-04 0.0000000e+00 
7.2774246e-06 -3.7661925e-04 0.0000000e+00 
-9.0773492e-06 -3.0125972e-04 0.0000000e+00 
-1.3697922e-06 -2.5940750e-04 0.0000000e+00 
1.1731750e-05 -2.3377867e-04 0.0000000e+00 
8.8445637e-07 -1.8356841e-04 0.0000000e+00 
-5.1111715e-07 -8.2858896e-05 0.0000000e+00 
-8.5737238e-06 7.9416335e-05 0.0000000e+00 
3.0608580e-06 1.9959934e-04 0.0000000e+00 
3.8507337e-06 3.1197042e-04 0.0000000e+00 
-5.0490407e-06 5.2957761e-04 0.0000000e+00 
8.5475989e-07 7.5021718e-04 0.0000000e+00 
-2.5952165e-06 9.1881584e-04 0.0000000e+00 
1.5863203e-05 8.6844928e-04 0.0000000e+00 
1.1623773e-05 7.5420114e-04 0.0000000e+00 
-1.2003680e-05 6.9323875e-04 0.0000000e+00 
-1.1728489e-05 6.6843518e-04 0.0000000e+00 
-5.4752077e-06 6.7736144e-04 0.0000000e+00 
1.5825652e-05 5.2237010e-04 0.0000000e+00 
3.7912632e-06 3.4041394e-04 0.0000000e+00 
-1.1113245e-05 2.3461822e-04 0.0000000e+00 
-1.0581477e-05 2.4767857e-04 0.0000000e+00 
9.5409096e-06 2.9712057e-04 0.0000000e+00 
1.1137703e-05 2.4127751e-04 0.0000000e+00 
-1.7511251e-06 6.8130292e-05 0.0000000e+00 
-5.7318671e-06 -1.0914062e-04 0.0000000e+00 
4.4863641e-06 -2.5148611e-04 0.0000000e+00 
8.3883815e-06 -3.5639881e-04 0.0000000e+00 
-9.7680340e-06 -5.0064916e-04 0.0000000e+00 
-1.2412685e-05 -6.9934718e-04 0.0000000e+00 
7.4530872e-06 -8.3363458e-04 0.0000000e+00 
8.0855061e-06 -8.9357496e-04 0.0000000e+00 
-9.0560825e-06 -8.3031791e-04 0.0000000e+00 
-5.0845606e-06 -7.3850644e-04 0.0000000e+00 
3.6355525e-06 -6.1846123e-04 0.0000000e+00 
8.2765882e-06 -5.0058763e-04 0.0000000e+00 
6.5521608e-06 -4.3223894e-04 0.0000000e+00 
-5.2580858e-06 -3.6300637e-04 0.0000000e+00 
-1.3086750e-05 -5.9049221e-04 0.0000000e+00 
-7.6250643e-07 8.9820707e-04 0.0000000e+00 
-5.5304686e-06 -3.4109445e-04 0.0000000e+00 
-2.2310419e-06 -6.4031797e-04 0.0000000e+00 
-3.2012515e-06 -3.3463028e-04 0.0000000e+00 
6.6962421e-06 -3.7224806e-04 0.0000000e+00 
-7.7409641e-06 -2.5900162e-04 0.0000000e+00 
4.3800600e-07 8.3556202e-05 0.0000000e+00 
6.1567357e-06 6.6772255e-04 0.0000000e+00 
-5.3068684e-06 2.5889013e-04 0.0000000e+00 
7.0313563e-06 -9.0394047e-04 0.0000000e+00 
2.0665098e-07 -5.0712167e-04 0.0000000e+00 
-5.4505649e-06 2.9408882e-04 0.0000000e+00 
1.5432706e-05 1.9079246e-04 0.0000000e+00 
1.1773007e-07 -4.4156180e-04 0.0000000e+00 
2.1456260e-06 -3.8224270e-04 0.0000000e+00 
7.7522300e-06 -5.1152438e-04 0.0000000e+00 
-5.4971783e-06 -2.3860346e-04 0.0000000e+00 
1.2827545e-05 -2.5168015e-04 0.0000000e+00 
1.7505366e-05 -1.8577294e-04 0.0000000e+00 
-1.4843277e-05 -1.7567736e-04 0.0000000e+00 
-9.1580905e-06 -6.1586400e-04 0.0000000e+00 
-2.3153623e-07 -3.8594348e-04 0.0000000e+00 
2.9208611e-06 5.2451529e-04 0.0000000e+00 
-1.7409139e-06 7.4571162e-04 0.0000000e+00 
-4.7657750e-06 -2.4148636e-04 0.0000000e+00 
4.3813884e-06 -3.5281957e-04 0.0000000e+00 
-3.2292214e-06 -6.8072899e-04 0.0000000e+00 
5.7867812e-08 -5.5114605e-04 0.0000000e+00 
-5.2891420e-07 -3.3415452e-04 0.0000000e+00 
-4.1127259e-06 -7.2232331e-04 0.0000000e+00 
1.2327527e-05 -8.3458237e-04 0.0000000e+00 
-6.3691868e-07 -5.0587225e-04 0.0000000e+00 
-1.1426597e-05 -7.2443561e-04 0.0000000e+00 
5.3165991e-07 -3.6807291e-04 0.0000000e+00 
5.8084314e-08 -3.7426123e-04 0.0000000e+00 
1.4095224e-05 -8.9244900e-04 0.0000000e+00 
-7.8514195e-06 -6.9192110e-04 0.0000000e+00 
-1.0700129e-05 -2.6248000e-04 0.0000000e+00 
8.2307770e-06 -2.4782502e-04 0.0000000e+00 
-3.5940950e-06 7.1713832e-05 0.0000000e+00 
-4.0826183e-07 2.3067574e-04 0.0000000e+00 
-8.7072831e-06 -1.2252849e-04 0.0000000e+00 
-3.4992383e-06 -2.6426197e-04 0.0000000e+00 
5.9671756e-06 2.3364148e-04 0.0000000e+00 
-1.6092185e-06 7.4460084e-04 0.0000000e+00 
-7.0883010e-07 5.1573984e-04 0.0000000e+00 
-3.5295404e-06 8.7733666e-04 0.0000000e+00 
9.8641931e-07 -2.8129941e-04 0.0000000e+00 
-7.8508428e-06 -6.4582622e-05 0.0000000e+00 
2.1372102e-06 8.2953913e-05 0.0000000e+00 
-6.2452659e-06 -5.8694865e-04 0.0000000e+00 
3.8765438e-06 -5.4692168e-04 0.0000000e+00 
1.6064549e-05 -6.4826256e-04 0.0000000e+00 
6.3653797e-06 -4.0120573e-04 0.0000000e+00 
-8.4406020e-06 -3.2947402e-04 0.0000000e+00 
-2.5913887e-06 -3.0314224e-04 0.0000000e+00 
-1.5051362e-06 -3.2395171e-04 0.0000000e+00 
-2.9337070e-06 -5.6483946e-04 0.0000000e+00 
-4.6443406e-06 -4.7176366e-04 0.0000000e+00 
-9.7953216e-07 -4.1542537e-04 0.0000000e+00 
5.9192548e-06 -4.8779743e-04 0.0000000e+00 
-4.3686368e-06 -5.1578984e-04 0.0000000e+00 
1.2369934e-06 -5.9948838e-04 0.0000000e+00 
-2.7658430e-06 8.7326125e-04 0.0000000e+00 
-3.3499591e-06 6.9570431e-04 0.0000000e+00 
-2.3603529e-06 6.7920977e-04 0.0000000e+00 
-9.0440808e-06 2.2259103e-04 0.0000000e+00 
1.0824611e-05 -4.9307576e-04 0.0000000e+00 
2.8244749e-06 -5.1035301e-04 0.0000000e+00 
1.2332564e-05 8.0665086e-05 0.0000000e+00 
-1.3764804e-05 -6.2226859e-04 0.0000000e+00 
-9.6794583e-06 -7.0498866e-04 0.0000000e+00 
2.9151452e-06 -3.6719485e-04 0.0000000e+00 
-3.4242075e-06 6.6773081e-04 0.0000000e+00 
-1.3369053e-06 -2.6131055e-04 0.0000000e+00 
-9.4181105e-06 2.5696438e-04 0.0000000e+00 
6.7859910e-06 3.5036737e-04 0.0000000e+00 
5.5897704e-07 9.0394856e-04 0.0000000e+00 
-7.5080898e-06 5.2454788e-04 0.0000000e+00 
3.3021097e-06 6.9040811e-04 0.0000000e+00 
5.7080306e-06 -1.8577320e-04 0.0000000e+00 
1.2478647e-07 -3.7734892e-04 0.0000000e+00 
5.8289534e-06 -5.6952651e-04 0.0000000e+00 
9.9744384e-06 -5.2094541e-04 0.0000000e+00 
1.0576890e-05 -4.3385578e-04 0.0000000e+00 
4.9502796e-07 -4.8050264e-04 0.0000000e+00 
-3.0491346e-06 -4.7598244e-04 0.0000000e+00 
-6.4065457e-06 2.5677643e-04 0.0000000e+00 
-5.9114291e-07 -5.4906023e-04 0.0000000e+00 
-1.4506845e-06 3.1149772e-04 0.0000000e+00 
4.4243493e-06 -2.6221821e-04 0.0000000e+00 
2.1358532e-05 9.1677459e-05 0.0000000e+00 
-3.4034142e-06 -8.4401405e-04 0.0000000e+00 
-7.6864362e-06 -2.6483985e-04 0.0000000e+00 
8.0335267e-06 -3.3042612e-04 0.0000000e+00 
-3.4213947e-06 -1.9584059e-04 0.0000000e+00 
-4.8758529e-06 -2.2251450e-04 0.0000000e+00 
-1.9181108e-07 -4.3228941e-04 0.0000000e+00 
-7.0996093e-06 -4.0132142e-04 0.0000000e+00 
-4.5041293e-06 -7.8911013e-05 0.0000000e+00 
-6.4684846e-06 -3.4336478e-04 0.0000000e+00 
5.7188163e-06 -5.5615208e-04 0.0000000e+00 
1.3705076e-06 -4.7930641e-04 0.0000000e+00 
1.6818612e-06 -4.9646496e-04 0.0000000e+00 
-5.3652529e-06 2.1912425e-04 0.0000000e+00 
-8.3726518e-06 -4.8370153e-04 0.0000000e+00 
-4.0521873e-06 -5.3487625e-04 0.0000000e+00 
2.9304849e-06 -5.7855831e-04 0.0000000e+00 
-3.5651103e-06 -5.2897254e-04 0.0000000e+00 
3.6321089e-06 -6.8634393e-04 0.0000000e+00 
-3.7989653e-06 -4.1192307e-04 0.0000000e+00 
8.7763974e-06 -3.6716316e-04 0.0000000e+00 
3.9191664e-06 -3.3991993e-04 0.0000000e+00 
5.1821871e-06 -3.1381511e-04 0.0000000e+00 
-6.1772680e-06 -2.2913341e-04 0.0000000e+00 
-1.2437915e-05 7.4038608e-04 0.0000000e+00 
-1.6812090e-06 -7.0545582e-05 0.0000000e+00 
3.2920759e-06 3.0701974e-04 0.0000000e+00 
-6.8283048e-06 8.9139090e-04 0.0000000e+00 
5.5135047e-06 7.6277211e-04 0.0000000e+00 
1.0285282e-06 6.7849742e-04 0.0000000e+00 
2.8667068e-06 5.3214928e-04 0.0000000e+00 
1.1516086e-06 6.3166335e-05 0.0000000e+00 
-2.3118680e-06 2.3714066e-04 0.0000000e+00 
4.8145407e-06 2.8838354e-04 0.0000000e+00 
2.2111126e-06 -3.7638895e-04 0.0000000e+00 
-4.7552198e-06 -5.9034443e-04 0.0000000e+00 
1.3207034e-05 -8.1965921e-04 0.0000000e+00 
4.4225944e-06 -5.1429635e-04 0.0000000e+00 
-3.7155387e-06 -1.2881211e-04 0.0000000e+00 
-4.5155084e-06 -8.4455742e-04 0.0000000e+00 
2.9468929e-06 -8.1616708e-05 0.0000000e+00 
1.2290119e-06 -5.7370162e-05 0.0000000e+00 
8.9958694e-06 2.6015114e-04 0.0000000e+00 
-1.4181011e-05 2.5286630e-04 0.0000000e+00 
-2.4358646e-05 2.0722956e-04 0.0000000e+00 
1.9858555e-05 2.1590693e-04 0.0000000e+00 
9.6161539e-06 -6.1396495e-05 0.0000000e+00 
5.9356335e-06 -6.7672176e-05 0.0000000e+00 
-1.2447304e-05 -1.9631955e-04 0.0000000e+00 
-8.1487604e-05 3.0512945e-03 0.0000000e+00 
-7.4792652e-06 8.0198189e-04 0.0000000e+00 
1.0416277e-05 2.6505776e-03 0.0000000e+00 
5.2083019e-06 1.3603596e-03 0.0000000e+00 
8.1747794e-06 3.1177972e-03 0.0000000e+00 
1.2890577e-05 1.8510980e-03 0.0000000e+00 
-2.1616837e-05 2.7111720e-03 0.0000000e+00 
-1.4465390e-05 2.3456740e-03 0.0000000e+00 
-5.5931964e-06 2.7361671e-03 0.0000000e+00 
1.2283470e-05 2.4407424e-03 0.0000000e+00 
-1.8745242e-05 2.6497687e-03 0.0000000e+00 
1.0470394e-07 2.0406793e-03 0.0000000e+00 
1.7350840e-05 2.5662209e-03 0.0000000e+00 
2.3616743e-05 2.6429475e-03 0.0000000e+00 
-8.3716541e-06 1.5696053e-03 0.0000000e+00 
4.7710269e-06 2.9075290e-03 0.0000000e+00 
5.5142914e-06 2.6101761e-03 0.0000000e+00 
4.9718919e-06 2.7429059e-03 0.0000000e+00 
-1.4023317e-05 2.8087187e-03 0.0000000e+00 
3.9721017e-06 2.4404051e-03 0.0000000e+00 
-1.8832401e-05 2.0683983e-03 0.0000000e+00 
1.6618098e-06 2.3427687e-03 0.0000000e+00 
5.1700440e-06 1.4186872e-03 0.0000000e+00 
-2.5872712e-06 1.8651362e-03 0.0000000e+00 
-7.6796132e-06 2.7587260e-03 0.0000000e+00 
1.5780113e-05 3.0765396e-03 0.0000000e+00 
-3.2135101e-06 2.5899040e-03 0.0000000e+00 
-3.8188896e-06 1.3135881e-03 0.0000000e+00 
9.8144319e-06 1.0870885e-03 0.0000000e+00 
4.0084411e-05 2.7870182e-03 0.0000000e+00 
1.9178510e-04 3.1351808e-03 0.0000000e+00 
2.9108180e-05 8.2713336e-04 0.0000000e+00 
6.4779051e-06 1.2737283e-03 0.0000000e+00 
-1.6309237e-06 1.2627366e-03 0.0000000e+00 
7.5733587e-06 1.4409961e-03 0.0000000e+00 
-5.1941170e-06 1.4235588e-03 0.0000000e+00 
-1.1187831e-07 1.3521954e-03 0.0000000e+00 
-7.5525932e-06 1.4032936e-03 0.0000000e+00 
7.4535433e-07 1.4321578e-03 0.0000000e+00 
8.1444641e-06 1.2843872e-03 0.0000000e+00 
-2.4091926e-06 1.5786907e-03 0.0000000e+00 
-9.1054881e-06 1.7688385e-03 0.0000000e+00 
6.2437366e-06 1.7717640e-03 0.0000000e+00 
1.3338187e-05 1.7483605e-03 0.0000000e+00 
-2.1625092e-05 1.8643228e-03 0.0000000e+00 
2.6557864e-06 1.8528634e-03 0.0000000e+00 
2.0780928e-05 1.8282664e-03 0.0000000e+00 
-1.5309533e-05 1.8928481e-03 0.0000000e+00 
-1.0375961e-06 2.0565928e-03 0.0000000e+00 
1.9753717e-05 2.2276610e-03 0.0000000e+00 
-1.8923986e-06 2.2222900e-03 0.0000000e+00 
-1.3706092e-05 2.2773687e-03 0.0000000e+00 
-1.8664101e-06 2.3346227e-03 0.0000000e+00 
7.7073464e-06 2.3387498e-03 0.0000000e+00 
-9.7957090e-06 2.3390665e-03 0.0000000e+00 
-1.7736756e-05 2.3964250e-03 0.0000000e+00 
1.4436274e-05 2.5465062e-03 0.0000000e+00 
1.1297310e-05 2.5894227e-03 0.0000000e+00 
-3.4313368e-06 2.6401400e-03 0.0000000e+00 
-7.3724340e-07 2.7566934e-03 0.0000000e+00 
-7.6112751e-06 2.7928883e-03 0.0000000e+00 
6.4359538e-06 2.7542270e-03 0.0000000e+00 
7.4709528e-06 2.7342984e-03 0.0000000e+00 