# vtk DataFile Version 4.0
vtk output
ASCII
DATASET UNSTRUCTURED_GRID
POINTS 628 float
0.0000000e+00 0.0000000e+00 0.0000000e+00 
1.0000000e+00 0.0000000e+00 0.0000000e+00 
1.0000000e+00 1.0000000e+01 0.0000000e+00 
0.0000000e+00 1.0000000e+01 0.0000000e+00 
0.0000000e+00 5.0000000e+00 0.0000000e+00 
1.0000000e+00 5.0000000e+00 0.0000000e+00 
1.4285715e-01 0.0000000e+00 0.0000000e+00 
2.8571430e-01 0.0000000e+00 0.0000000e+00 
4.2857143e-01 0.0000000e+00 0.0000000e+00 
5.7142860e-01 0.0000000e+00 0.0000000e+00 
7.1428573e-01 0.0000000e+00 0.0000000e+00 
8.5714287e-01 0.0000000e+00 0.0000000e+00 
8.5714287e-01 1.0000000e+01 0.0000000e+00 
7.1428573e-01 1.0000000e+01 0.0000000e+00 
5.7142860e-01 1.0000000e+01 0.0000000e+00 
4.2857143e-01 1.0000000e+01 0.0000000e+00 
2.8571430e-01 1.0000000e+01 0.0000000e+00 
1.4285715e-01 1.0000000e+01 0.0000000e+00 
1.4285715e-01 5.0000000e+00 0.0000000e+00 
2.8571430e-01 5.0000000e+00 0.0000000e+00 
4.2857143e-01 5.0000000e+00 0.0000000e+00 
5.7142860e-01 5.0000000e+00 0.0000000e+00 
7.1428573e-01 5.0000000e+00 0.0000000e+00 
8.5714287e-01 5.0000000e+00 0.0000000e+00 
0.0000000e+00 4.8529410e+00 0.0000000e+00 
0.0000000e+00 4.7058825e+00 0.0000000e+00 
0.0000000e+00 4.5588236e+00 0.0000000e+00 
0.0000000e+00 4.4117646e+00 0.0000000e+00 
0.0000000e+00 4.2647057e+00 0.0000000e+00 
0.0000000e+00 4.1176472e+00 0.0000000e+00 
0.0000000e+00 3.9705882e+00 0.0000000e+00 
0.0000000e+00 3.8235295e+00 0.0000000e+00 
0.0000000e+00 3.6764705e+00 0.0000000e+00 
0.0000000e+00 3.5294118e+00 0.0000000e+00 
0.0000000e+00 3.3823528e+00 0.0000000e+00 
0.0000000e+00 3.2352941e+00 0.0000000e+00 
0.0000000e+00 3.0882354e+00 0.0000000e+00 
0.0000000e+00 2.9411764e+00 0.0000000e+00 
0.0000000e+00 2.7941177e+00 0.0000000e+00 
0.0000000e+00 2.6470587e+00 0.0000000e+00 
0.0000000e+00 2.5000000e+00 0.0000000e+00 
0.0000000e+00 2.3529413e+00 0.0000000e+00 
0.0000000e+00 2.2058823e+00 0.0000000e+00 
0.0000000e+00 2.0588236e+00 0.0000000e+00 
0.0000000e+00 1.9117647e+00 0.0000000e+00 
0.0000000e+00 1.7647059e+00 0.0000000e+00 
0.0000000e+00 1.6176471e+00 0.0000000e+00 
0.0000000e+00 1.4705882e+00 0.0000000e+00 
0.0000000e+00 1.3235294e+00 0.0000000e+00 
0.0000000e+00 1.1764706e+00 0.0000000e+00 
0.0000000e+00 1.0294118e+00 0.0000000e+00 
0.0000000e+00 8.8235295e-01 0.0000000e+00 
0.0000000e+00 7.3529410e-01 0.0000000e+00 
0.0000000e+00 5.8823532e-01 0.0000000e+00 
0.0000000e+00 4.4117647e-01 0.0000000e+00 
0.0000000e+00 2.9411766e-01 0.0000000e+00 
0.0000000e+00 1.4705883e-01 0.0000000e+00 
1.0000000e+00 1.4705883e-01 0.0000000e+00 
1.0000000e+00 2.9411766e-01 0.0000000e+00 
1.0000000e+00 4.4117647e-01 0.0000000e+00 
1.0000000e+00 5.8823532e-01 0.0000000e+00 
1.0000000e+00 7.3529410e-01 0.0000000e+00 
1.0000000e+00 8.8235295e-01 0.0000000e+00 
1.0000000e+00 1.0294118e+00 0.0000000e+00 
1.0000000e+00 1.1764706e+00 0.0000000e+00 
1.0000000e+00 1.3235294e+00 0.0000000e+00 
1.0000000e+00 1.4705882e+00 0.0000000e+00 
1.0000000e+00 1.6176471e+00 0.0000000e+00 
1.0000000e+00 1.7647059e+00 0.0000000e+00 
1.0000000e+00 1.9117647e+00 0.0000000e+00 
1.0000000e+00 2.0588236e+00 0.0000000e+00 
1.0000000e+00 2.2058823e+00 0.0000000e+00 
1.0000000e+00 2.3529413e+00 0.0000000e+00 
1.0000000e+00 2.5000000e+00 0.0000000e+00 
1.0000000e+00 2.6470587e+00 0.0000000e+00 
1.0000000e+00 2.7941177e+00 0.0000000e+00 
1.0000000e+00 2.9411764e+00 0.0000000e+00 
1.0000000e+00 3.0882354e+00 0.0000000e+00 
1.0000000e+00 3.2352941e+00 0.0000000e+00 
1.0000000e+00 3.3823528e+00 0.0000000e+00 
1.0000000e+00 3.5294118e+00 0.0000000e+00 
1.0000000e+00 3.6764705e+00 0.0000000e+00 
1.0000000e+00 3.8235295e+00 0.0000000e+00 
1.0000000e+00 3.9705882e+00 0.0000000e+00 
1.0000000e+00 4.1176472e+00 0.0000000e+00 
1.0000000e+00 4.2647057e+00 0.0000000e+00 
1.0000000e+00 4.4117646e+00 0.0000000e+00 
1.0000000e+00 4.5588236e+00 0.0000000e+00 
1.0000000e+00 4.7058825e+00 0.0000000e+00 
1.0000000e+00 4.8529410e+00 0.0000000e+00 
0.0000000e+00 9.8529415e+00 0.0000000e+00 
0.0000000e+00 9.7058821e+00 0.0000000e+00 
0.0000000e+00 9.5588236e+00 0.0000000e+00 
0.0000000e+00 9.4117651e+00 0.0000000e+00 
0.0000000e+00 9.2647057e+00 0.0000000e+00 
0.0000000e+00 9.1176472e+00 0.0000000e+00 
0.0000000e+00 8.9705887e+00 0.0000000e+00 
0.0000000e+00 8.8235292e+00 0.0000000e+00 
0.0000000e+00 8.6764708e+00 0.0000000e+00 
0.0000000e+00 8.5294113e+00 0.0000000e+00 
0.0000000e+00 8.3823528e+00 0.0000000e+00 
0.0000000e+00 8.2352943e+00 0.0000000e+00 
0.0000000e+00 8.0882349e+00 0.0000000e+00 
0.0000000e+00 7.9411764e+00 0.0000000e+00 
0.0000000e+00 7.7941175e+00 0.0000000e+00 
0.0000000e+00 7.6470590e+00 0.0000000e+00 
0.0000000e+00 7.5000000e+00 0.0000000e+00 
0.0000000e+00 7.3529410e+00 0.0000000e+00 
0.0000000e+00 7.2058825e+00 0.0000000e+00 
0.0000000e+00 7.0588236e+00 0.0000000e+00 
0.0000000e+00 6.9117646e+00 0.0000000e+00 
0.0000000e+00 6.7647057e+00 0.0000000e+00 
0.0000000e+00 6.6176472e+00 0.0000000e+00 
0.0000000e+00 6.4705882e+00 0.0000000e+00 
0.0000000e+00 6.3235292e+00 0.0000000e+00 
0.0000000e+00 6.1764708e+00 0.0000000e+00 
0.0000000e+00 6.0294118e+00 0.0000000e+00 
0.0000000e+00 5.8823528e+00 0.0000000e+00 
0.0000000e+00 5.7352943e+00 0.0000000e+00 
0.0000000e+00 5.5882354e+00 0.0000000e+00 
0.0000000e+00 5.4411764e+00 0.0000000e+00 
0.0000000e+00 5.2941175e+00 0.0000000e+00 
0.0000000e+00 5.1470590e+00 0.0000000e+00 
1.0000000e+00 5.1470590e+00 0.0000000e+00 
1.0000000e+00 5.2941175e+00 0.0000000e+00 
1.0000000e+00 5.4411764e+00 0.0000000e+00 
1.0000000e+00 5.5882354e+00 0.0000000e+00 
1.0000000e+00 5.7352943e+00 0.0000000e+00 
1.0000000e+00 5.8823528e+00 0.0000000e+00 
1.0000000e+00 6.0294118e+00 0.0000000e+00 
1.0000000e+00 6.1764708e+00 0.0000000e+00 
1.0000000e+00 6.3235292e+00 0.0000000e+00 
1.0000000e+00 6.4705882e+00 0.0000000e+00 
1.0000000e+00 6.6176472e+00 0.0000000e+00 
1.0000000e+00 6.7647057e+00 0.0000000e+00 
1.0000000e+00 6.9117646e+00 0.0000000e+00 
1.0000000e+00 7.0588236e+00 0.0000000e+00 
1.0000000e+00 7.2058825e+00 0.0000000e+00 
1.0000000e+00 7.3529410e+00 0.0000000e+00 
1.0000000e+00 7.5000000e+00 0.0000000e+00 
1.0000000e+00 7.6470590e+00 0.0000000e+00 
1.0000000e+00 7.7941175e+00 0.0000000e+00 
1.0000000e+00 7.9411764e+00 0.0000000e+00 
1.0000000e+00 8.0882349e+00 0.0000000e+00 
1.0000000e+00 8.2352943e+00 0.0000000e+00 
1.0000000e+00 8.3823528e+00 0.0000000e+00 
1.0000000e+00 8.5294113e+00 0.0000000e+00 
1.0000000e+00 8.6764708e+00 0.0000000e+00 
1.0000000e+00 8.8235292e+00 0.0000000e+00 
1.0000000e+00 8.9705887e+00 0.0000000e+00 
1.0000000e+00 9.1176472e+00 0.0000000e+00 
1.0000000e+00 9.2647057e+00 0.0000000e+00 
1.0000000e+00 9.4117651e+00 0.0000000e+00 
1.0000000e+00 9.5588236e+00 0.0000000e+00 
1.0000000e+00 9.7058821e+00 0.0000000e+00 
1.0000000e+00 9.8529415e+00 0.0000000e+00 
5.0212586e-01 4.8703580e+00 0.0000000e+00 
5.1041055e-01 1.3732977e-01 0.0000000e+00 
1.3055173e-01 6.6499180e-01 0.0000000e+00 
8.7327349e-01 4.3372407e+00 0.0000000e+00 
8.7331611e-01 3.8958969e+00 0.0000000e+00 
8.7347627e-01 3.4562511e+00 0.0000000e+00 
8.7357801e-01 2.8680170e+00 0.0000000e+00 
1.2843554e-01 2.1327813e+00 0.0000000e+00 
1.2975387e-01 1.5449892e+00 0.0000000e+00 
1.3308091e-01 1.1039938e+00 0.0000000e+00 
1.2937543e-01 2.5737903e+00 0.0000000e+00 
1.2735668e-01 3.1617646e+00 0.0000000e+00 
8.7375563e-01 1.8386052e+00 0.0000000e+00 
8.7355548e-01 2.2778318e+00 0.0000000e+00 
1.2753446e-01 4.1915216e+00 0.0000000e+00 
8.7915283e-01 8.0759794e-01 0.0000000e+00 
8.8115031e-01 1.2498868e+00 0.0000000e+00 
1.2781374e-01 3.7501886e+00 0.0000000e+00 
8.7352717e-01 3.1621344e+00 0.0000000e+00 
1.2961270e-01 1.8389882e+00 0.0000000e+00 
1.2731366e-01 4.4857054e+00 0.0000000e+00 
1.2885660e-01 2.8684020e+00 0.0000000e+00 
8.7380636e-01 1.5444875e+00 0.0000000e+00 
8.7362880e-01 2.5738993e+00 0.0000000e+00 
1.2735668e-01 3.4558823e+00 0.0000000e+00 
8.7264335e-01 5.1470590e-01 0.0000000e+00 
8.7611687e-01 4.6317782e+00 0.0000000e+00 
1.3446054e-01 3.7013325e-01 0.0000000e+00 
1.2296320e-01 4.7760825e+00 0.0000000e+00 
8.8210768e-01 2.2118840e-01 0.0000000e+00 
2.1798968e-01 1.0548568e-01 0.0000000e+00 
7.7656764e-01 4.8704844e+00 0.0000000e+00 
1.2667844e-01 4.6331582e+00 0.0000000e+00 
2.5353336e-01 4.5619426e+00 0.0000000e+00 
2.5451174e-01 4.4132285e+00 0.0000000e+00 
3.8040194e-01 4.4881525e+00 0.0000000e+00 
3.8161713e-01 4.3403850e+00 0.0000000e+00 
5.0654775e-01 4.4141955e+00 0.0000000e+00 
5.0629890e-01 4.2659345e+00 0.0000000e+00 
5.0658631e-01 4.5616083e+00 0.0000000e+00 
3.8184282e-01 4.1932206e+00 0.0000000e+00 
5.0831819e-01 4.1188259e+00 0.0000000e+00 
3.8249290e-01 4.0462651e+00 0.0000000e+00 
5.0818664e-01 3.9732957e+00 0.0000000e+00 
3.8265404e-01 3.8991868e+00 0.0000000e+00 
5.0769192e-01 3.8249388e+00 0.0000000e+00 
3.8307732e-01 3.7517705e+00 0.0000000e+00 
5.0990808e-01 3.6776419e+00 0.0000000e+00 
3.8416636e-01 3.6049941e+00 0.0000000e+00 
5.1177651e-01 3.5322094e+00 0.0000000e+00 
3.8460994e-01 3.4584429e+00 0.0000000e+00 
5.1256055e-01 3.3855147e+00 0.0000000e+00 
3.8520575e-01 3.3115354e+00 0.0000000e+00 
5.1318693e-01 3.2385471e+00 0.0000000e+00 
3.8561273e-01 3.1645203e+00 0.0000000e+00 
5.1375473e-01 3.0915136e+00 0.0000000e+00 
3.8616878e-01 3.0174749e+00 0.0000000e+00 
5.1433694e-01 2.9444630e+00 0.0000000e+00 
3.8656160e-01 2.8704205e+00 0.0000000e+00 
5.1489413e-01 2.7974076e+00 0.0000000e+00 
3.8711417e-01 2.7233641e+00 0.0000000e+00 
5.1547360e-01 2.6503508e+00 0.0000000e+00 
3.8750717e-01 2.5763063e+00 0.0000000e+00 
5.1603019e-01 2.5032935e+00 0.0000000e+00 
3.8805979e-01 2.4292488e+00 0.0000000e+00 
5.1422137e-01 2.3562264e+00 0.0000000e+00 
3.8765049e-01 2.2821872e+00 0.0000000e+00 
5.1307547e-01 2.2071202e+00 0.0000000e+00 
3.8778570e-01 2.1347876e+00 0.0000000e+00 
5.1568961e-01 2.0596735e+00 0.0000000e+00 
3.9013749e-01 1.9876142e+00 0.0000000e+00 
5.1808232e-01 1.9145784e+00 0.0000000e+00 
3.8994926e-01 1.8408588e+00 0.0000000e+00 
5.1884413e-01 1.7678982e+00 0.0000000e+00 
[...]
POINT_DATA 628
FIELD FieldData 2
VELOCITY 3 628  float
0.0000000e+00 0.0000000e+00 0.0000000e+00 
0.0000000e+00 0.0000000e+00 0.0000000e+00 
0.0000000e+00 2.8300283e-03 0.0000000e+00 
0.0000000e+00 3.3238640e-03 0.0000000e+00 
0.0000000e+00 2.5569389e-03 0.0000000e+00 
0.0000000e+00 2.5599389e-03 0.0000000e+00 
0.0000000e+00 0.0000000e+00 0.0000000e+00 
0.0000000e+00 0.0000000e+00 0.0000000e+00 
0.0000000e+00 0.0000000e+00 0.0000000e+00 
0.0000000e+00 0.0000000e+00 0.0000000e+00 
0.0000000e+00 0.0000000e+00 0.0000000e+00 
0.0000000e+00 0.0000000e+00 0.0000000e+00 
-2.0579105e-04 2.1785407e-03 0.0000000e+00 
-2.7398608e-05 2.8411751e-03 0.0000000e+00 
4.0281407e-04 2.6293271e-03 0.0000000e+00 
-4.4299662e-04 2.8121476e-03 0.0000000e+00 
6.0429203e-04 2.6502134e-03 0.0000000e+00 
-6.3780602e-04 2.2390424e-03 0.0000000e+00 
-4.3100094e-06 2.5877445e-03 0.0000000e+00 
7.5053543e-07 2.5943129e-03 0.0000000e+00 
-1.0454750e-06 2.5775679e-03 0.0000000e+00 
-3.3684626e-06 2.5825815e-03 0.0000000e+00 
-5.0791778e-06 2.5939911e-03 0.0000000e+00 
2.9449768e-06 2.5890577e-03 0.0000000e+00 
0.0000000e+00 2.5392782e-03 0.0000000e+00 
0.0000000e+00 2.8274688e-03 0.0000000e+00 
0.0000000e+00 2.9271236e-03 0.0000000e+00 
0.0000000e+00 2.6241881e-03 0.0000000e+00 
0.0000000e+00 2.2955763e-03 0.0000000e+00 
0.0000000e+00 2.3132795e-03 0.0000000e+00 
0.0000000e+00 2.5127339e-03 0.0000000e+00 
0.0000000e+00 2.4575677e-03 0.0000000e+00 
0.0000000e+00 2.0280711e-03 0.0000000e+00 
0.0000000e+00 1.5297227e-03 0.0000000e+00 
0.0000000e+00 1.2816790e-03 0.0000000e+00 
0.0000000e+00 1.2540107e-03 0.0000000e+00 
0.0000000e+00 1.1424791e-03 0.0000000e+00 
0.0000000e+00 7.2485977e-04 0.0000000e+00 
0.0000000e+00 9.1186550e-05 0.0000000e+00 
0.0000000e+00 -4.5891403e-04 0.0000000e+00 
0.0000000e+00 -6.9704285e-04 0.0000000e+00 
0.0000000e+00 -6.4310356e-04 0.0000000e+00 
0.0000000e+00 -5.0339528e-04 0.0000000e+00 
0.0000000e+00 -4.6573489e-04 0.0000000e+00 
0.0000000e+00 -5.4625189e-04 0.0000000e+00 
0.0000000e+00 -6.0039537e-04 0.0000000e+00 
0.0000000e+00 -4.6116632e-04 0.0000000e+00 
0.0000000e+00 -8.3453298e-05 0.0000000e+00 
0.0000000e+00 4.1016418e-04 0.0000000e+00 
0.0000000e+00 7.9909287e-04 0.0000000e+00 
0.0000000e+00 8.9300965e-04 0.0000000e+00 
0.0000000e+00 6.3597219e-04 0.0000000e+00 
0.0000000e+00 1.3315695e-04 0.0000000e+00 
0.0000000e+00 -4.0493777e-04 0.0000000e+00 
0.0000000e+00 -7.5884099e-04 0.0000000e+00 
0.0000000e+00 -7.9149700e-04 0.0000000e+00 
0.0000000e+00 -4.9621525e-04 0.0000000e+00 
0.0000000e+00 -4.9562322e-04 0.0000000e+00 
0.0000000e+00 -7.9170259e-04 0.0000000e+00 
0.0000000e+00 -7.6215708e-04 0.0000000e+00 
0.0000000e+00 -4.0921016e-04 0.0000000e+00 
0.0000000e+00 1.2945394e-04 0.0000000e+00 
0.0000000e+00 6.3338620e-04 0.0000000e+00 
0.0000000e+00 8.9128548e-04 0.0000000e+00 
0.0000000e+00 7.9860270e-04 0.0000000e+00 
0.0000000e+00 4.1074477e-04 0.0000000e+00 
0.0000000e+00 -8.2403989e-05 0.0000000e+00 
0.0000000e+00 -4.6026998e-04 0.0000000e+00 
0.0000000e+00 -5.9974304e-04 0.0000000e+00 
0.0000000e+00 -5.4599665e-04 0.0000000e+00 
0.0000000e+00 -4.6598265e-04 0.0000000e+00 
0.0000000e+00 -5.0376653e-04 0.0000000e+00 
0.0000000e+00 -6.4271060e-04 0.0000000e+00 
0.0000000e+00 -6.9642870e-04 0.0000000e+00 
0.0000000e+00 -4.5861627e-04 0.0000000e+00 
0.0000000e+00 9.0661422e-05 0.0000000e+00 
0.0000000e+00 7.2317367e-04 0.0000000e+00 
0.0000000e+00 1.1401923e-03 0.0000000e+00 
0.0000000e+00 1.2534842e-03 0.0000000e+00 
0.0000000e+00 1.2849462e-03 0.0000000e+00 
0.0000000e+00 1.5363425e-03 0.0000000e+00 
0.0000000e+00 2.0335296e-03 0.0000000e+00 
0.0000000e+00 2.4567801e-03 0.0000000e+00 
0.0000000e+00 2.5066761e-03 0.0000000e+00 
0.0000000e+00 2.3072588e-03 0.0000000e+00 
0.0000000e+00 2.2950866e-03 0.0000000e+00 
0.0000000e+00 2.6300361e-03 0.0000000e+00 
0.0000000e+00 2.9325252e-03 0.0000000e+00 
0.0000000e+00 2.8209442e-03 0.0000000e+00 
0.0000000e+00 2.5255191e-03 0.0000000e+00 
0.0000000e+00 2.1311662e-03 0.0000000e+00 
0.0000000e+00 2.9868037e-03 0.0000000e+00 
0.0000000e+00 2.9682284e-03 0.0000000e+00 
0.0000000e+00 2.4514613e-03 0.0000000e+00 
0.0000000e+00 3.1417825e-03 0.0000000e+00 
0.0000000e+00 2.5714308e-03 0.0000000e+00 
0.0000000e+00 2.9898153e-03 0.0000000e+00 
0.0000000e+00 2.4898709e-03 0.0000000e+00 
0.0000000e+00 3.0497611e-03 0.0000000e+00 
0.0000000e+00 2.6102781e-03 0.0000000e+00 
0.0000000e+00 3.1872895e-03 0.0000000e+00 
0.0000000e+00 2.5133325e-03 0.0000000e+00 
0.0000000e+00 3.0072329e-03 0.0000000e+00 
0.0000000e+00 2.6731547e-03 0.0000000e+00 
0.0000000e+00 2.6864747e-03 0.0000000e+00 
0.0000000e+00 3.0757680e-03 0.0000000e+00 
0.0000000e+00 2.5411702e-03 0.0000000e+00 
0.0000000e+00 2.9081893e-03 0.0000000e+00 
0.0000000e+00 2.9323953e-03 0.0000000e+00 
0.0000000e+00 2.5400349e-03 0.0000000e+00 
0.0000000e+00 2.9336882e-03 0.0000000e+00 
0.0000000e+00 2.9385991e-03 0.0000000e+00 
0.0000000e+00 2.5492026e-03 0.0000000e+00 
0.0000000e+00 2.8350367e-03 0.0000000e+00 
0.0000000e+00 3.0405344e-03 0.0000000e+00 
0.0000000e+00 2.6572742e-03 0.0000000e+00 
0.0000000e+00 2.6192213e-03 0.0000000e+00 
0.0000000e+00 2.9938649e-03 0.0000000e+00 
0.0000000e+00 2.9369514e-03 0.0000000e+00 
0.0000000e+00 2.5816455e-03 0.0000000e+00 
0.0000000e+00 2.6581038e-03 0.0000000e+00 
0.0000000e+00 3.0027339e-03 0.0000000e+00 
0.0000000e+00 2.9428289e-03 0.0000000e+00 
0.0000000e+00 2.9568386e-03 0.0000000e+00 
0.0000000e+00 3.0086294e-03 0.0000000e+00 
0.0000000e+00 2.6455657e-03 0.0000000e+00 
0.0000000e+00 2.5714918e-03 0.0000000e+00 
0.0000000e+00 2.9548481e-03 0.0000000e+00 
0.0000000e+00 3.0075863e-03 0.0000000e+00 
0.0000000e+00 2.5981669e-03 0.0000000e+00 
0.0000000e+00 2.6429782e-03 0.0000000e+00 
0.0000000e+00 3.0582228e-03 0.0000000e+00 
0.0000000e+00 2.8405269e-03 0.0000000e+00 
0.0000000e+00 2.5192187e-03 0.0000000e+00 
0.0000000e+00 2.9506809e-03 0.0000000e+00 
0.0000000e+00 2.9794278e-03 0.0000000e+00 
0.0000000e+00 2.4997089e-03 0.0000000e+00 
0.0000000e+00 2.9259215e-03 0.0000000e+00 
0.0000000e+00 2.9565613e-03 0.0000000e+00 
0.0000000e+00 2.4884471e-03 0.0000000e+00 
0.0000000e+00 3.0437026e-03 0.0000000e+00 
0.0000000e+00 2.7391985e-03 0.0000000e+00 
0.0000000e+00 2.6442457e-03 0.0000000e+00 
0.0000000e+00 3.0740919e-03 0.0000000e+00 
0.0000000e+00 2.4700316e-03 0.0000000e+00 
0.0000000e+00 3.2058330e-03 0.0000000e+00 
0.0000000e+00 2.5271235e-03 0.0000000e+00 
0.0000000e+00 3.0020389e-03 0.0000000e+00 
0.0000000e+00 2.5975420e-03 0.0000000e+00 
0.0000000e+00 2.9909674e-03 0.0000000e+00 
0.0000000e+00 2.6232458e-03 0.0000000e+00 
0.0000000e+00 2.9396343e-03 0.0000000e+00 
0.0000000e+00 2.8051215e-03 0.0000000e+00 
0.0000000e+00 2.8543824e-03 0.0000000e+00 
0.0000000e+00 2.6900608e-03 0.0000000e+00 
0.0000000e+00 2.7937512e-03 0.0000000e+00 
2.1591093e-06 2.4926292e-03 0.0000000e+00 
-1.7223883e-06 -4.7143799e-04 0.0000000e+00 
-4.3350354e-08 -1.3549469e-04 0.0000000e+00 
2.7160106e-06 2.4335999e-03 0.0000000e+00 
1.5525139e-07 2.5315813e-03 0.0000000e+00 
-1.7849479e-06 1.3717999e-03 0.0000000e+00 
4.6504661e-07 4.1859891e-04 0.0000000e+00 
-8.3115157e-07 -4.6624721e-04 0.0000000e+00 
2.6839831e-07 -2.9987950e-04 0.0000000e+00 
1.9184898e-07 8.8922639e-04 0.0000000e+00 
5.2587626e-07 -6.2184228e-04 0.0000000e+00 
-9.6582198e-07 1.2290759e-03 0.0000000e+00 
4.9336097e-07 -5.8753329e-04 0.0000000e+00 
4.1393130e-07 -5.6849763e-04 0.0000000e+00 
-3.8460425e-06 2.2590715e-03 0.0000000e+00 
8.1418563e-07 3.9639688e-04 0.0000000e+00 
-4.5369512e-07 6.3213363e-04 0.0000000e+00 
3.4836324e-07 2.2771151e-03 0.0000000e+00 
4.6679011e-07 1.2266811e-03 0.0000000e+00 
-1.9897259e-07 -5.8807473e-04 0.0000000e+00 
2.3314913e-06 2.8158762e-03 0.0000000e+00 
7.6114537e-07 4.2136188e-04 0.0000000e+00 
-9.0182840e-07 -2.9752724e-04 0.0000000e+00 
-8.5678028e-07 -6.2068796e-04 0.0000000e+00 
6.6089240e-07 1.3669283e-03 0.0000000e+00 
-2.1660538e-09 -6.1971071e-04 0.0000000e+00 
2.6711448e-06 2.9321366e-03 0.0000000e+00 
-1.5747961e-06 -8.1889995e-04 0.0000000e+00 
-4.2764154e-06 2.6694527e-03 0.0000000e+00 
-5.3207026e-07 -6.8042160e-04 0.0000000e+00 
-7.6222494e-07 -3.6737227e-04 0.0000000e+00 
-3.8831108e-06 2.5039390e-03 0.0000000e+00 
-3.1959751e-06 2.9298263e-03 0.0000000e+00 
2.0976563e-06 2.9416699e-03 0.0000000e+00 
-9.1229157e-07 2.6339309e-03 0.0000000e+00 
1.7410724e-06 2.8239754e-03 0.0000000e+00 
-5.5484807e-06 2.4343594e-03 0.0000000e+00 
7.0179219e-08 2.6291220e-03 0.0000000e+00 
-1.4736603e-06 2.2950531e-03 0.0000000e+00 
1.0632039e-06 2.9350959e-03 0.0000000e+00 
-5.9597273e-06 2.2582824e-03 0.0000000e+00 
-4.2595761e-07 2.3109121e-03 0.0000000e+00 
1.2291535e-07 2.4140850e-03 0.0000000e+00 
1.4802359e-06 2.5058547e-03 0.0000000e+00 
2.0936793e-06 2.5330170e-03 0.0000000e+00 
1.8842306e-06 2.4568005e-03 0.0000000e+00 
1.5179577e-06 2.2805983e-03 0.0000000e+00 
8.0427213e-07 2.0331931e-03 0.0000000e+00 
1.7774679e-06 1.7695947e-03 0.0000000e+00 
-5.1516366e-07 1.5382221e-03 0.0000000e+00 
5.0058753e-07 1.3709650e-03 0.0000000e+00 
-1.5288971e-06 1.2822410e-03 0.0000000e+00 
-1.6427301e-06 1.2565237e-03 0.0000000e+00 
-1.2059517e-06 1.2524774e-03 0.0000000e+00 
-1.9501849e-06 1.2311818e-03 0.0000000e+00 
-6.1003522e-07 1.1475007e-03 0.0000000e+00 
-1.0309393e-06 9.8312204e-04 0.0000000e+00 
-1.1131569e-07 7.3811214e-04 0.0000000e+00 
6.0114127e-07 4.3096207e-04 0.0000000e+00 
3.5642645e-07 1.0621647e-04 0.0000000e+00 
1.1969175e-06 -2.0309676e-04 0.0000000e+00 
2.1615968e-07 -4.4970767e-04 0.0000000e+00 
7.7826377e-07 -6.1853731e-04 0.0000000e+00 
1.7812974e-07 -6.9651322e-04 0.0000000e+00 
2.7797773e-07 -6.9858914e-04 0.0000000e+00 
1.5146323e-07 -6.4808584e-04 0.0000000e+00 
-3.6643971e-07 -5.7356962e-04 0.0000000e+00 
-1.4303761e-07 -5.0609157e-04 0.0000000e+00 
-1.2117542e-06 -4.6731060e-04 0.0000000e+00 
-2.9184028e-07 -4.6535520e-04 0.0000000e+00 
-7.7737417e-07 -4.9563590e-04 0.0000000e+00 
2.3842605e-07 -5.4210878e-04 0.0000000e+00 
-7.4311977e-08 -5.8534980e-04 0.0000000e+00 
-8.5508482e-08 -5.9752184e-04 0.0000000e+00 
1.0081414e-07 -5.6180218e-04 0.0000000e+00 
-5.4426158e-07 -4.6386456e-04 0.0000000e+00 
-2.1286327e-08 -3.0316084e-04 0.0000000e+00 
-6.0861004e-07 -9.1694754e-05 0.0000000e+00 
1.4746097e-07 1.5334389e-04 0.0000000e+00 
-3.6106741e-07 4.0002284e-04 0.0000000e+00 
1.0718330e-07 6.2388973e-04 0.0000000e+00 
-1.7381279e-07 7.9188205e-04 0.0000000e+00 
4.5545366e-07 8.8661461e-04 0.0000000e+00 
7.9416373e-07 8.9225388e-04 0.0000000e+00 
5.2707418e-07 8.0780126e-04 0.0000000e+00 
1.2200934e-06 6.4248050e-04 0.0000000e+00 
5.4258788e-07 4.1386302e-04 0.0000000e+00 
1.0467497e-06 1.4417093e-04 0.0000000e+00 
3.3180171e-07 -1.3072454e-04 0.0000000e+00 
7.6037213e-07 -3.9510109e-04 0.0000000e+00 
2.8679764e-07 -6.0521311e-04 0.0000000e+00 
9.7660666e-07 -7.5309048e-04 0.0000000e+00 
9.3560669e-07 -8.1835641e-04 0.0000000e+00 
9.3543179e-07 2.4151641e-03 0.0000000e+00 
6.1391273e-07 2.8252655e-03 0.0000000e+00 
-1.6774341e-06 1.7758234e-03 0.0000000e+00 
1.0633729e-06 -4.9521768e-04 0.0000000e+00 
4.1265089e-06 2.9373562e-03 0.0000000e+00 
-1.2044954e-06 1.2553793e-03 0.0000000e+00 
5.8373246e-07 9.8304218e-04 0.0000000e+00 
1.2162521e-06 8.0911705e-04 0.0000000e+00 
-1.7263245e-07 -1.9852378e-04 0.0000000e+00 
-1.4632442e-07 -6.9782563e-04 0.0000000e+00 
-6.5343175e-07 -5.6204281e-04 0.0000000e+00 
-1.1280740e-06 1.5029080e-04 0.0000000e+00 
1.3229202e-06 -1.3433082e-04 0.0000000e+00 
3.7560210e-07 6.4117083e-04 0.0000000e+00 
4.3835902e-07 4.0368098e-04 0.0000000e+00 
-2.8336657e-07 -6.4521265e-04 0.0000000e+00 
1.9677768e-06 2.5094240e-03 0.0000000e+00 
1.1447593e-06 -7.9341227e-04 0.0000000e+00 
2.4480124e-07 -8.1846089e-04 0.0000000e+00 
-1.4377025e-06 -6.8796863e-04 0.0000000e+00 
2.3965540e-06 2.8113720e-03 0.0000000e+00 
5.2842747e-06 2.6600612e-03 0.0000000e+00 
-2.9767684e-06 2.6566698e-03 0.0000000e+00 
-2.1845496e-07 -7.5423374e-04 0.0000000e+00 
-3.8352729e-07 -8.0089946e-04 0.0000000e+00 
3.9500875e-07 -4.6338589e-04 0.0000000e+00 
-6.3819982e-07 -5.4451055e-04 0.0000000e+00 
1.4002770e-06 -4.5450605e-04 0.0000000e+00 
3.4615437e-07 7.3315197e-04 0.0000000e+00 
-2.1432827e-06 1.2553985e-03 0.0000000e+00 
1.8109490e-06 1.5339797e-03 0.0000000e+00 
-1.0605953e-06 2.9345029e-03 0.0000000e+00 
-6.5769498e-08 -6.0834305e-04 0.0000000e+00 
-6.4339538e-08 -3.9145639e-04 0.0000000e+00 
-1.3977923e-06 -8.2088681e-04 0.0000000e+00 
8.9972252e-07 -6.1069208e-04 0.0000000e+00 
-3.2530886e-06 2.4333785e-03 0.0000000e+00 
-1.9704180e-07 2.8207123e-03 0.0000000e+00 
8.4537248e-07 -1.4993025e-04 0.0000000e+00 
1.7136477e-06 4.1252453e-04 0.0000000e+00 
1.2025124e-06 -7.0739887e-04 0.0000000e+00 
2.9481302e-07 8.9264999e-04 0.0000000e+00 
3.7949383e-07 7.9464912e-04 0.0000000e+00 
3.8791364e-07 6.2868366e-04 0.0000000e+00 
3.1868836e-07 8.8765804e-04 0.0000000e+00 
7.6391365e-07 8.9019194e-04 0.0000000e+00 
-5.9448183e-07 6.2844413e-04 0.0000000e+00 
6.6433353e-07 -4.6685082e-04 0.0000000e+00 
8.4795170e-07 -5.0335703e-04 0.0000000e+00 
7.6398334e-07 -4.9723283e-04 0.0000000e+00 
9.7753809e-07 -2.1048012e-04 0.0000000e+00 
5.6225764e-07 -6.9708127e-04 0.0000000e+00 
1.5017103e-07 -6.9639209e-04 0.0000000e+00 
1.1811069e-06 1.7636123e-03 0.0000000e+00 
-2.5759954e-07 1.2833513e-03 0.0000000e+00 
-1.0055679e-06 1.2568694e-03 0.0000000e+00 
-1.5876739e-06 1.1474807e-03 0.0000000e+00 
-2.3605909e-07 9.7494671e-04 0.0000000e+00 
1.3139752e-06 9.9377852e-05 0.0000000e+00 
6.8829371e-07 9.7307726e-04 0.0000000e+00 
2.1980516e-06 2.2561243e-03 0.0000000e+00 
5.6600779e-06 2.2993449e-03 0.0000000e+00 
-4.1310673e-07 2.4132598e-03 0.0000000e+00 
7.7434187e-08 2.2802299e-03 0.0000000e+00 
9.6333656e-07 2.4527137e-03 0.0000000e+00 
-1.3711725e-06 1.7715252e-03 0.0000000e+00 
-5.9487962e-07 -4.9722526e-04 0.0000000e+00 
7.0221112e-08 -5.9945724e-04 0.0000000e+00 
2.0839092e-07 -5.6227716e-04 0.0000000e+00 
5.2219923e-07 -8.8908462e-05 0.0000000e+00 
9.9326735e-07 2.5356708e-03 0.0000000e+00 
1.1387376e-06 2.4569547e-03 0.0000000e+00 
-6.9300876e-07 -6.9546333e-04 0.0000000e+00 
-6.4568326e-07 1.2572412e-03 0.0000000e+00 
4.0181561e-08 4.0277219e-04 0.0000000e+00 
-1.7051518e-07 8.0613658e-04 0.0000000e+00 
-2.4843084e-07 -5.6095060e-04 0.0000000e+00 
-6.6829244e-08 -2.1106517e-04 0.0000000e+00 
-8.4749030e-07 1.5924062e-04 0.0000000e+00 
-1.1844269e-06 -3.0498064e-04 0.0000000e+00 
-1.2547582e-06 -4.6531521e-04 0.0000000e+00 
-9.6658823e-07 -5.0515641e-04 0.0000000e+00 
3.8065954e-07 -5.8457308e-04 0.0000000e+00 
-2.1602057e-07 -6.1577151e-04 0.0000000e+00 
1.8878484e-07 4.3428552e-04 0.0000000e+00 
3.4273447e-07 1.2288796e-03 0.0000000e+00 
-2.8825525e-06 1.3738407e-03 0.0000000e+00 
6.6458574e-07 2.4178931e-03 0.0000000e+00 
-2.9477644e-06 2.3126390e-03 0.0000000e+00 
-8.2899078e-06 2.3001276e-03 0.0000000e+00 
4.7254210e-07 1.5899206e-04 0.0000000e+00 
1.4881599e-06 2.0318599e-03 0.0000000e+00 
-4.4602356e-07 -5.6952768e-04 0.0000000e+00 
-7.5464277e-06 2.8240846e-03 0.0000000e+00 
1.6286582e-06 2.5127986e-03 0.0000000e+00 
2.9843921e-08 1.4302829e-04 0.0000000e+00 
7.0522647e-06 2.8261461e-03 0.0000000e+00 
2.0866519e-06 2.6382343e-03 0.0000000e+00 
1.0998261e-06 2.6583744e-03 0.0000000e+00 
-2.9325718e-06 -6.7568506e-04 0.0000000e+00 
3.0808053e-07 2.5058778e-03 0.0000000e+00 
4.7864256e-07 2.9438662e-03 0.0000000e+00 
-1.0177863e-06 -4.3912564e-04 0.0000000e+00 
3.8501430e-06 2.4332853e-03 0.0000000e+00 
3.5183498e-06 2.2587525e-03 0.0000000e+00 
1.7668806e-06 2.3109578e-03 0.0000000e+00 
1.7978164e-06 2.5312509e-03 0.0000000e+00 
-1.2581862e-07 -6.4510666e-04 0.0000000e+00 
8.2572745e-07 2.2748171e-03 0.0000000e+00 
-8.4250371e-07 2.0401287e-03 0.0000000e+00 
-3.1320617e-06 1.5418765e-03 0.0000000e+00 
-2.1006349e-06 1.2852343e-03 0.0000000e+00 
5.0635691e-08 1.2528108e-03 0.0000000e+00 
9.2855157e-07 1.1453232e-03 0.0000000e+00 
6.6429675e-07 8.0482539e-04 0.0000000e+00 
7.5586689e-07 7.3573226e-04 0.0000000e+00 
1.3565106e-07 1.0568285e-04 0.0000000e+00 
-7.1374438e-07 -4.4934559e-04 0.0000000e+00 
6.9520439e-07 -4.6766066e-04 0.0000000e+00 
-7.3573960e-07 -6.9613807e-04 0.0000000e+00 
3.2589597e-07 -5.7255209e-04 0.0000000e+00 
1.0831964e-06 -4.6530171e-04 0.0000000e+00 
1.0147852e-06 -5.4344960e-04 0.0000000e+00 
6.4246557e-08 -5.9904013e-04 0.0000000e+00 
-1.0432225e-06 -4.6515014e-04 0.0000000e+00 
-2.7748291e-07 7.9507381e-04 0.0000000e+00 
-1.3272061e-06 -9.2356437e-05 0.0000000e+00 
-9.5908979e-07 4.0278779e-04 0.0000000e+00 
-1.8684526e-06 -7.9144438e-04 0.0000000e+00 
-2.4410426e-08 -7.6131633e-04 0.0000000e+00 
7.7186974e-07 -4.0563371e-04 0.0000000e+00 
1.3650201e-06 6.3641637e-04 0.0000000e+00 
1.3768884e-07 8.8906533e-04 0.0000000e+00 
1.4966121e-06 1.3516471e-04 0.0000000e+00 
-2.2107681e-06 -3.6917653e-04 0.0000000e+00 
-2.2303733e-07 -3.3696790e-04 0.0000000e+00 
-2.1201886e-07 2.5042116e-03 0.0000000e+00 
-2.3369107e-06 2.5041471e-03 0.0000000e+00 
1.0379401e-05 2.5028563e-03 0.0000000e+00 
-1.0068113e-05 2.4919922e-03 0.0000000e+00 
2.2825868e-06 -3.4685383e-04 0.0000000e+00 
-1.1837831e-06 -3.6050726e-04 0.0000000e+00 
-3.0241006e-06 -6.1282882e-04 0.0000000e+00 
1.6663606e-04 2.7905528e-03 0.0000000e+00 
-3.1362204e-06 2.9051993e-03 0.0000000e+00 
-2.7722506e-05 2.8365639e-03 0.0000000e+00 
2.0763678e-06 2.7448542e-03 0.0000000e+00 
-9.6023978e-06 3.0550517e-03 0.0000000e+00 
1.6320714e-06 2.5472238e-03 0.0000000e+00 
6.7882206e-06 2.7108358e-03 0.0000000e+00 
4.4075960e-06 3.0630748e-03 0.0000000e+00 
-3.1758102e-06 2.7619931e-03 0.0000000e+00 
-7.0177616e-06 2.4949159e-03 0.0000000e+00 
-2.8281813e-06 2.6118548e-03 0.0000000e+00 
1.0872953e-06 3.0460935e-03 0.0000000e+00 
-3.1739335e-05 2.6216917e-03 0.0000000e+00 
-3.3167951e-05 2.6824013e-03 0.0000000e+00 
-1.2978541e-06 3.0679442e-03 0.0000000e+00 
3.9781680e-05 2.5387290e-03 0.0000000e+00 
5.6664958e-05 2.9274903e-03 0.0000000e+00 
1.5550489e-05 2.6291111e-03 0.0000000e+00 
2.7071503e-05 2.8221388e-03 0.0000000e+00 
1.1096170e-05 2.5189980e-03 0.0000000e+00 
-2.1579392e-06 3.0245387e-03 0.0000000e+00 
-3.0206875e-06 2.6732995e-03 0.0000000e+00 
1.7986354e-06 2.5274178e-03 0.0000000e+00 
3.1617610e-06 2.5257594e-03 0.0000000e+00 
-3.6615286e-06 3.0679100e-03 0.0000000e+00 
-1.3116199e-05 2.5309990e-03 0.0000000e+00 
6.9447895e-05 2.8573514e-03 0.0000000e+00 
2.0185898e-06 2.8361860e-03 0.0000000e+00 
-7.6180379e-07 3.0419810e-03 0.0000000e+00 
-3.0196528e-04 2.9771719e-03 0.0000000e+00 
7.3649915e-04 3.2589885e-03 0.0000000e+00 
-6.8103736e-06 2.9000526e-03 0.0000000e+00 
-1.5968002e-06 2.8344360e-03 0.0000000e+00 
6.2157324e-06 2.6405440e-03 0.0000000e+00 
2.2933425e-06 2.5631485e-03 0.0000000e+00 
6.2055756e-06 2.5335043e-03 0.0000000e+00 
-1.0660935e-06 2.7349347e-03 0.0000000e+00 
-2.7759863e-06 2.5695215e-03 0.0000000e+00 
-2.8852617e-07 2.9429637e-03 0.0000000e+00 
1.5410969e-06 2.6641078e-03 0.0000000e+00 
-1.1283690e-06 3.0628263e-03 0.0000000e+00 
1.1586507e-06 3.0053938e-03 0.0000000e+00 
9.5882597e-06 2.8166324e-03 0.0000000e+00 
4.0889940e-06 2.6071051e-03 0.0000000e+00 
4.5776028e-06 2.5265482e-03 0.0000000e+00 
-4.7859276e-06 2.6361954e-03 0.0000000e+00 
-1.4399881e-05 2.8714931e-03 0.0000000e+00 
-2.1609249e-06 3.0482530e-03 0.0000000e+00 
3.2182097e-06 3.0473452e-03 0.0000000e+00 
1.0551960e-05 2.8379061e-03 0.0000000e+00 
2.8050001e-06 2.6036610e-03 0.0000000e+00 
-9.5829710e-06 2.5324970e-03 0.0000000e+00 
-8.7196413e-06 2.6793617e-03 0.0000000e+00 
-6.0964312e-06 2.9453486e-03 0.0000000e+00 
9.3222588e-06 3.0847804e-03 0.0000000e+00 
2.3810173e-06 2.9525280e-03 0.0000000e+00 
-9.3382096e-06 2.6833580e-03 0.0000000e+00 
1.1893695e-05 2.5184841e-03 0.0000000e+00 
1.2957492e-05 2.6295856e-03 0.0000000e+00 
1.0203343e-07 2.9197971e-03 0.0000000e+00 
-2.7123137e-06 3.1051727e-03 0.0000000e+00 
-6.2343388e-06 2.9424424e-03 0.0000000e+00 
5.5361320e-06 2.6318226e-03 0.0000000e+00 
6.1092101e-06 2.5008866e-03 0.0000000e+00 
-1.8337665e-05 2.7114106e-03 0.0000000e+00 