# vtk DataFile Version 4.0
vtk output
ASCII
DATASET UNSTRUCTURED_GRID
POINTS 628 float
0.0000000e+00 0.0000000e+00 0.0000000e+00 
1.0000000e+00 0.0000000e+00 0.0000000e+00 
1.0000000e+00 1.0000000e+01 0.0000000e+00 
0.0000000e+00 1.0000000e+01 0.0000000e+00 
0.0000000e+00 5.0000000e+00 0.0000000e+00 
1.0000000e+00 5.0000000e+00 0.0000000e+00 
1.4285715e-01 0.0000000e+00 0.0000000e+00 
2.8571430e-01 0.0000000e+00 0.0000000e+00 
4.2857143e-01 0.0000000e+00 0.0000000e+00 
5.7142860e-01 0.0000000e+00 0.0000000e+00 
7.1428573e-01 0.0000000e+00 0.0000000e+00 
8.5714287e-01 0.0000000e+00 0.0000000e+00 
8.5714287e-01 1.0000000e+01 0.0000000e+00 
7.1428573e-01 1.0000000e+01 0.0000000e+00 
5.7142860e-01 1.0000000e+01 0.0000000e+00 
4.2857143e-01 1.0000000e+01 0.0000000e+00 
2.8571430e-01 1.0000000e+01 0.0000000e+00 
1.4285715e-01 1.0000000e+01 0.0000000e+00 
1.4285715e-01 5.0000000e+00 0.0000000e+00 
2.8571430e-01 5.0000000e+00 0.0000000e+00 
4.2857143e-01 5.0000000e+00 0.0000000e+00 
5.7142860e-01 5.0000000e+00 0.0000000e+00 
7.1428573e-01 5.0000000e+00 0.0000000e+00 
8.5714287e-01 5.0000000e+00 0.0000000e+00 
0.0000000e+00 4.8529410e+00 0.0000000e+00 
0.0000000e+00 4.7058825e+00 0.0000000e+00 
0.0000000e+00 4.5588236e+00 0.0000000e+00 
0.0000000e+00 4.4117646e+00 0.0000000e+00 
0.0000000e+00 4.2647057e+00 0.0000000e+00 
0.0000000e+00 4.1176472e+00 0.0000000e+00 
0.0000000e+00 3.9705882e+00 0.0000000e+00 
0.0000000e+00 3.8235295e+00 0.0000000e+00 
0.0000000e+00 3.6764705e+00 0.0000000e+00 
0.0000000e+00 3.5294118e+00 0.0000000e+00 
0.0000000e+00 3.3823528e+00 0.0000000e+00 
0.0000000e+00 3.2352941e+00 0.0000000e+00 
0.0000000e+00 3.0882354e+00 0.0000000e+00 
0.0000000e+00 2.9411764e+00 0.0000000e+00 
0.0000000e+00 2.7941177e+00 0.0000000e+00 
0.0000000e+00 2.6470587e+00 0.0000000e+00 
0.0000000e+00 2.5000000e+00 0.0000000e+00 
0.0000000e+00 2.3529413e+00 0.0000000e+00 
0.0000000e+00 2.2058823e+00 0.0000000e+00 
0.0000000e+00 2.0588236e+00 0.0000000e+00 
0.0000000e+00 1.9117647e+00 0.0000000e+00 
0.0000000e+00 1.7647059e+00 0.0000000e+00 
0.0000000e+00 1.6176471e+00 0.0000000e+00 
0.0000000e+00 1.4705882e+00 0.0000000e+00 
0.0000000e+00 1.3235294e+00 0.0000000e+00 
0.0000000e+00 1.1764706e+00 0.0000000e+00 
0.0000000e+00 1.0294118e+00 0.0000000e+00 
0.0000000e+00 8.8235295e-01 0.0000000e+00 
0.0000000e+00 7.3529410e-01 0.0000000e+00 
0.0000000e+00 5.8823532e-01 0.0000000e+00 
0.0000000e+00 4.4117647e-01 0.0000000e+00 
0.0000000e+00 2.9411766e-01 0.0000000e+00 
0.0000000e+00 1.4705883e-01 0.0000000e+00 
1.0000000e+00 1.4705883e-01 0.0000000e+00 
1.0000000e+00 2.9411766e-01 0.0000000e+00 
1.0000000e+00 4.4117647e-01 0.0000000e+00 
1.0000000e+00 5.8823532e-01 0.0000000e+00 
1.0000000e+00 7.3529410e-01 0.0000000e+00 
1.0000000e+00 8.8235295e-01 0.0000000e+00 
1.0000000e+00 1.0294118e+00 0.0000000e+00 
1.0000000e+00 1.1764706e+00 0.0000000e+00 
1.0000000e+00 1.3235294e+00 0.0000000e+00 
1.0000000e+00 1.4705882e+00 0.0000000e+00 
1.0000000e+00 1.6176471e+00 0.0000000e+00 
1.0000000e+00 1.7647059e+00 0.0000000e+00 
1.0000000e+00 1.9117647e+00 0.0000000e+00 
1.0000000e+00 2.0588236e+00 0.0000000e+00 
1.0000000e+00 2.2058823e+00 0.0000000e+00 
1.0000000e+00 2.3529413e+00 0.0000000e+00 
1.0000000e+00 2.5000000e+00 0.0000000e+00 
1.0000000e+00 2.6470587e+00 0.0000000e+00 
1.0000000e+00 2.7941177e+00 0.0000000e+00 
1.0000000e+00 2.9411764e+00 0.0000000e+00 
1.0000000e+00 3.0882354e+00 0.0000000e+00 
1.0000000e+00 3.2352941e+00 0.0000000e+00 
1.0000000e+00 3.3823528e+00 0.0000000e+00 
1.0000000e+00 3.5294118e+00 0.0000000e+00 
1.0000000e+00 3.6764705e+00 0.0000000e+00 
1.0000000e+00 3.8235295e+00 0.0000000e+00 
1.0000000e+00 3.9705882e+00 0.0000000e+00 
1.0000000e+00 4.1176472e+00 0.0000000e+00 
1.0000000e+00 4.2647057e+00 0.0000000e+00 
1.0000000e+00 4.4117646e+00 0.0000000e+00 
1.0000000e+00 4.5588236e+00 0.0000000e+00 
1.0000000e+00 4.7058825e+00 0.0000000e+00 
1.0000000e+00 4.8529410e+00 0.0000000e+00 
0.0000000e+00 9.8529415e+00 0.0000000e+00 
0.0000000e+00 9.7058821e+00 0.0000000e+00 
0.0000000e+00 9.5588236e+00 0.0000000e+00 
0.0000000e+00 9.4117651e+00 0.0000000e+00 
0.0000000e+00 9.2647057e+00 0.0000000e+00 
0.0000000e+00 9.1176472e+00 0.0000000e+00 
0.0000000e+00 8.9705887e+00 0.0000000e+00 
0.0000000e+00 8.8235292e+00 0.0000000e+00 
0.0000000e+00 8.6764708e+00 0.0000000e+00 
0.0000000e+00 8.5294113e+00 0.0000000e+00 
0.0000000e+00 8.3823528e+00 0.0000000e+00 
0.0000000e+00 8.2352943e+00 0.0000000e+00 
0.0000000e+00 8.0882349e+00 0.0000000e+00 
0.0000000e+00 7.9411764e+00 0.0000000e+00 
0.0000000e+00 7.7941175e+00 0.0000000e+00 
0.0000000e+00 7.6470590e+00 0.0000000e+00 
0.0000000e+00 7.5000000e+00 0.0000000e+00 
0.0000000e+00 7.3529410e+00 0.0000000e+00 
0.0000000e+00 7.2058825e+00 0.0000000e+00 
0.0000000e+00 7.0588236e+00 0.0000000e+00 
0.0000000e+00 6.9117646e+00 0.0000000e+00 
0.0000000e+00 6.7647057e+00 0.0000000e+00 
0.0000000e+00 6.6176472e+00 0.0000000e+00 
0.0000000e+00 6.4705882e+00 0.0000000e+00 
0.0000000e+00 6.3235292e+00 0.0000000e+00 
0.0000000e+00 6.1764708e+00 0.0000000e+00 
0.0000000e+00 6.0294118e+00 0.0000000e+00 
0.0000000e+00 5.8823528e+00 0.0000000e+00 
0.0000000e+00 5.7352943e+00 0.0000000e+00 
0.0000000e+00 5.5882354e+00 0.0000000e+00 
0.0000000e+00 5.4411764e+00 0.0000000e+00 
0.0000000e+00 5.2941175e+00 0.0000000e+00 
0.0000000e+00 5.1470590e+00 0.0000000e+00 
1.0000000e+00 5.1470590e+00 0.0000000e+00 
1.0000000e+00 5.2941175e+00 0.0000000e+00 
1.0000000e+00 5.4411764e+00 0.0000000e+00 
1.0000000e+00 5.5882354e+00 0.0000000e+00 
1.0000000e+00 5.7352943e+00 0.0000000e+00 
1.0000000e+00 5.8823528e+00 0.0000000e+00 
1.0000000e+00 6.0294118e+00 0.0000000e+00 
1.0000000e+00 6.1764708e+00 0.0000000e+00 
1.0000000e+00 6.3235292e+00 0.0000000e+00 
1.0000000e+00 6.4705882e+00 0.0000000e+00 
1.0000000e+00 6.6176472e+00 0.0000000e+00 
1.0000000e+00 6.7647057e+00 0.0000000e+00 
1.0000000e+00 6.9117646e+00 0.0000000e+00 
1.0000000e+00 7.0588236e+00 0.0000000e+00 
1.0000000e+00 7.2058825e+00 0.0000000e+00 
1.0000000e+00 7.3529410e+00 0.0000000e+00 
1.0000000e+00 7.5000000e+00 0.0000000e+00 
1.0000000e+00 7.6470590e+00 0.0000000e+00 
1.0000000e+00 7.7941175e+00 0.0000000e+00 
1.0000000e+00 7.9411764e+00 0.0000000e+00 
1.0000000e+00 8.0882349e+00 0.0000000e+00 
1.0000000e+00 8.2352943e+00 0.0000000e+00 
1.0000000e+00 8.3823528e+00 0.0000000e+00 
1.0000000e+00 8.5294113e+00 0.0000000e+00 
1.0000000e+00 8.6764708e+00 0.0000000e+00 
1.0000000e+00 8.8235292e+00 0.0000000e+00 
1.0000000e+00 8.9705887e+00 0.0000000e+00 
1.0000000e+00 9.1176472e+00 0.0000000e+00 
1.0000000e+00 9.2647057e+00 0.0000000e+00 
1.0000000e+00 9.4117651e+00 0.0000000e+00 
1.0000000e+00 9.5588236e+00 0.0000000e+00 
1.0000000e+00 9.7058821e+00 0.0000000e+00 
1.0000000e+00 9.8529415e+00 0.0000000e+00 
5.0212586e-01 4.8703580e+00 0.0000000e+00 
5.1041055e-01 1.3732977e-01 0.0000000e+00 
1.3055173e-01 6.6499180e-01 0.0000000e+00 
8.7327349e-01 4.3372407e+00 0.0000000e+00 
8.7331611e-01 3.8958969e+00 0.0000000e+00 
8.7347627e-01 3.4562511e+00 0.0000000e+00 
8.7357801e-01 2.8680170e+00 0.0000000e+00 
1.2843554e-01 2.1327813e+00 0.0000000e+00 
1.2975387e-01 1.5449892e+00 0.0000000e+00 
1.3308091e-01 1.1039938e+00 0.0000000e+00 
1.2937543e-01 2.5737903e+00 0.0000000e+00 
1.2735668e-01 3.1617646e+00 0.0000000e+00 
8.7375563e-01 1.8386052e+00 0.0000000e+00 
8.7355548e-01 2.2778318e+00 0.0000000e+00 
1.2753446e-01 4.1915216e+00 0.0000000e+00 
8.7915283e-01 8.0759794e-01 0.0000000e+00 
8.8115031e-01 1.2498868e+00 0.0000000e+00 
1.2781374e-01 3.7501886e+00 0.0000000e+00 
8.7352717e-01 3.1621344e+00 0.0000000e+00 
1.2961270e-01 1.8389882e+00 0.0000000e+00 
1.2731366e-01 4.4857054e+00 0.0000000e+00 
1.2885660e-01 2.8684020e+00 0.0000000e+00 
8.7380636e-01 1.5444875e+00 0.0000000e+00 
8.7362880e-01 2.5738993e+00 0.0000000e+00 
1.2735668e-01 3.4558823e+00 0.0000000e+00 
8.7264335e-01 5.1470590e-01 0.0000000e+00 
8.7611687e-01 4.6317782e+00 0.0000000e+00 
1.3446054e-01 3.7013325e-01 0.0000000e+00 
1.2296320e-01 4.7760825e+00 0.0000000e+00 
8.8210768e-01 2.2118840e-01 0.0000000e+00 
2.1798968e-01 1.0548568e-01 0.0000000e+00 
7.7656764e-01 4.8704844e+00 0.0000000e+00 
1.2667844e-01 4.6331582e+00 0.0000000e+00 
2.5353336e-01 4.5619426e+00 0.0000000e+00 
2.5451174e-01 4.4132285e+00 0.0000000e+00 
3.8040194e-01 4.4881525e+00 0.0000000e+00 
3.8161713e-01 4.3403850e+00 0.0000000e+00 
5.0654775e-01 4.4141955e+00 0.0000000e+00 
5.0629890e-01 4.2659345e+00 0.0000000e+00 
5.0658631e-01 4.5616083e+00 0.0000000e+00 
3.8184282e-01 4.1932206e+00 0.0000000e+00 
5.0831819e-01 4.1188259e+00 0.0000000e+00 
3.8249290e-01 4.0462651e+00 0.0000000e+00 
5.0818664e-01 3.9732957e+00 0.0000000e+00 
3.8265404e-01 3.8991868e+00 0.0000000e+00 
5.0769192e-01 3.8249388e+00 0.0000000e+00 
3.8307732e-01 3.7517705e+00 0.0000000e+00 
5.0990808e-01 3.6776419e+00 0.0000000e+00 
3.8416636e-01 3.6049941e+00 0.0000000e+00 
5.1177651e-01 3.5322094e+00 0.0000000e+00 
3.8460994e-01 3.4584429e+00 0.0000000e+00 
5.1256055e-01 3.3855147e+00 0.0000000e+00 
3.8520575e-01 3.3115354e+00 0.0000000e+00 
5.1318693e-01 3.2385471e+00 0.0000000e+00 
3.8561273e-01 3.1645203e+00 0.0000000e+00 
5.1375473e-01 3.0915136e+00 0.0000000e+00 
3.8616878e-01 3.0174749e+00 0.0000000e+00 
5.1433694e-01 2.9444630e+00 0.0000000e+00 
3.8656160e-01 2.8704205e+00 0.0000000e+00 
5.1489413e-01 2.7974076e+00 0.0000000e+00 
3.8711417e-01 2.7233641e+00 0.0000000e+00 
5.1547360e-01 2.6503508e+00 0.0000000e+00 
3.8750717e-01 2.5763063e+00 0.0000000e+00 
5.1603019e-01 2.5032935e+00 0.0000000e+00 
3.8805979e-01 2.4292488e+00 0.0000000e+00 
5.1422137e-01 2.3562264e+00 0.0000000e+00 
3.8765049e-01 2.2821872e+00 0.0000000e+00 
5.1307547e-01 2.2071202e+00 0.0000000e+00 
3.8778570e-01 2.1347876e+00 0.0000000e+00 
5.1568961e-01 2.0596735e+00 0.0000000e+00 
3.9013749e-01 1.9876142e+00 0.0000000e+00 
5.1808232e-01 1.9145784e+00 0.0000000e+00 
3.8994926e-01 1.8408588e+00 0.0000000e+00 
5.1884413e-01 1.7678982e+00 0.0000000e+00 
[...]
POINT_DATA 628
FIELD FieldData 2
VELOCITY 3 628  float
0.0000000e+00 0.0000000e+00 0.0000000e+00 
0.0000000e+00 0.0000000e+00 0.0000000e+00 
0.0000000e+00 -2.0097645e-03 0.0000000e+00 
0.0000000e+00 -1.6300910e-03 0.0000000e+00 
0.0000000e+00 -9.4402890e-04 0.0000000e+00 
0.0000000e+00 -9.6879539e-04 0.0000000e+00 
0.0000000e+00 0.0000000e+00 0.0000000e+00 
0.0000000e+00 0.0000000e+00 0.0000000e+00 
0.0000000e+00 0.0000000e+00 0.0000000e+00 
0.0000000e+00 0.0000000e+00 0.0000000e+00 
0.0000000e+00 0.0000000e+00 0.0000000e+00 
0.0000000e+00 0.0000000e+00 0.0000000e+00 
-5.4326123e-05 -1.4783797e-03 0.0000000e+00 
1.0042974e-04 -1.8808779e-03 0.0000000e+00 
-1.1116111e-04 -1.9426867e-03 0.0000000e+00 
-1.6395909e-04 -2.4395348e-03 0.0000000e+00 
3.4868220e-04 -2.5619923e-03 0.0000000e+00 
-1.9721533e-04 -1.8955967e-03 0.0000000e+00 
2.6180967e-05 -9.2784490e-04 0.0000000e+00 
1.3540703e-06 -9.3144772e-04 0.0000000e+00 
1.3339401e-05 -9.2814659e-04 0.0000000e+00 
6.3247444e-06 -9.5820031e-04 0.0000000e+00 
5.1769639e-06 -9.4094966e-04 0.0000000e+00 
-2.2292172e-05 -9.5811958e-04 0.0000000e+00 
0.0000000e+00 -3.6916448e-04 0.0000000e+00 
0.0000000e+00 -3.5214383e-04 0.0000000e+00 
0.0000000e+00 -4.9787783e-04 0.0000000e+00 
0.0000000e+00 -3.2910609e-04 0.0000000e+00 
0.0000000e+00 -4.2171209e-04 0.0000000e+00 
0.0000000e+00 -4.3967870e-04 0.0000000e+00 
0.0000000e+00 2.9510027e-05 0.0000000e+00 
0.0000000e+00 1.5616429e-04 0.0000000e+00 
0.0000000e+00 -8.0451660e-05 0.0000000e+00 
0.0000000e+00 -7.2273120e-05 0.0000000e+00 
0.0000000e+00 -7.4036092e-05 0.0000000e+00 
0.0000000e+00 -2.8132222e-04 0.0000000e+00 
0.0000000e+00 -1.1201731e-04 0.0000000e+00 
0.0000000e+00 2.9416682e-04 0.0000000e+00 
0.0000000e+00 1.8914747e-04 0.0000000e+00 
0.0000000e+00 -1.8740060e-04 0.0000000e+00 
0.0000000e+00 -1.9182195e-04 0.0000000e+00 
0.0000000e+00 1.3215080e-05 0.0000000e+00 
0.0000000e+00 3.1202784e-05 0.0000000e+00 
0.0000000e+00 1.2282295e-05 0.0000000e+00 
0.0000000e+00 1.2277812e-04 0.0000000e+00 
0.0000000e+00 7.6559838e-05 0.0000000e+00 
0.0000000e+00 -1.8598007e-04 0.0000000e+00 
0.0000000e+00 -2.0263980e-04 0.0000000e+00 
0.0000000e+00 1.4485380e-04 0.0000000e+00 
0.0000000e+00 3.0665059e-04 0.0000000e+00 
0.0000000e+00 -1.4089960e-05 0.0000000e+00 
0.0000000e+00 -3.2931194e-04 0.0000000e+00 
0.0000000e+00 -1.4608228e-04 0.0000000e+00 
0.0000000e+00 2.4922108e-04 0.0000000e+00 
0.0000000e+00 2.4665738e-04 0.0000000e+00 
0.0000000e+00 -1.4199152e-04 0.0000000e+00 
0.0000000e+00 -3.1012710e-04 0.0000000e+00 
0.0000000e+00 -2.9227627e-04 0.0000000e+00 
0.0000000e+00 -1.3734339e-04 0.0000000e+00 
0.0000000e+00 2.3322875e-04 0.0000000e+00 
0.0000000e+00 2.4196783e-04 0.0000000e+00 
0.0000000e+00 -1.3612972e-04 0.0000000e+00 
0.0000000e+00 -3.1182915e-04 0.0000000e+00 
0.0000000e+00 -8.4108970e-06 0.0000000e+00 
0.0000000e+00 2.9356591e-04 0.0000000e+00 
0.0000000e+00 1.3115599e-04 0.0000000e+00 
0.0000000e+00 -2.0233452e-04 0.0000000e+00 
0.0000000e+00 -1.8293189e-04 0.0000000e+00 
0.0000000e+00 6.8212525e-05 0.0000000e+00 
0.0000000e+00 1.1262452e-04 0.0000000e+00 
0.0000000e+00 1.7136534e-05 0.0000000e+00 
0.0000000e+00 4.2782412e-05 0.0000000e+00 
0.0000000e+00 1.1832220e-05 0.0000000e+00 
0.0000000e+00 -1.9763499e-04 0.0000000e+00 
0.0000000e+00 -1.7818909e-04 0.0000000e+00 
0.0000000e+00 1.9481688e-04 0.0000000e+00 
0.0000000e+00 2.7822593e-04 0.0000000e+00 
0.0000000e+00 -1.2130760e-04 0.0000000e+00 
0.0000000e+00 -2.6751577e-04 0.0000000e+00 
0.0000000e+00 -5.9532074e-05 0.0000000e+00 
0.0000000e+00 -8.3489293e-05 0.0000000e+00 
0.0000000e+00 -8.7500142e-05 0.0000000e+00 
0.0000000e+00 1.7092656e-04 0.0000000e+00 
0.0000000e+00 1.3163968e-05 0.0000000e+00 
0.0000000e+00 -4.5355866e-04 0.0000000e+00 
0.0000000e+00 -4.0432398e-04 0.0000000e+00 
0.0000000e+00 -3.2940475e-04 0.0000000e+00 
0.0000000e+00 -5.3451658e-04 0.0000000e+00 
0.0000000e+00 -3.4006932e-04 0.0000000e+00 
0.0000000e+00 -3.3584071e-04 0.0000000e+00 
0.0000000e+00 -2.4825949e-03 0.0000000e+00 
0.0000000e+00 -2.4590287e-03 0.0000000e+00 
0.0000000e+00 -2.8036798e-03 0.0000000e+00 
0.0000000e+00 -3.3010114e-03 0.0000000e+00 
0.0000000e+00 -3.4904422e-03 0.0000000e+00 
0.0000000e+00 -3.3626773e-03 0.0000000e+00 
0.0000000e+00 -3.5032462e-03 0.0000000e+00 
0.0000000e+00 -3.0280501e-03 0.0000000e+00 
0.0000000e+00 -2.8154154e-03 0.0000000e+00 
0.0000000e+00 -2.1353981e-03 0.0000000e+00 
0.0000000e+00 -2.2217487e-03 0.0000000e+00 
0.0000000e+00 -1.9797769e-03 0.0000000e+00 
0.0000000e+00 -2.2825026e-03 0.0000000e+00 
0.0000000e+00 -2.3291740e-03 0.0000000e+00 
0.0000000e+00 -2.8519616e-03 0.0000000e+00 
0.0000000e+00 -2.9182432e-03 0.0000000e+00 
0.0000000e+00 -3.3272740e-03 0.0000000e+00 
0.0000000e+00 -3.0677656e-03 0.0000000e+00 
0.0000000e+00 -3.3348547e-03 0.0000000e+00 
0.0000000e+00 -3.0384848e-03 0.0000000e+00 
0.0000000e+00 -3.4456209e-03 0.0000000e+00 
0.0000000e+00 -3.3753591e-03 0.0000000e+00 
0.0000000e+00 -3.6676608e-03 0.0000000e+00 
0.0000000e+00 -3.5439068e-03 0.0000000e+00 
0.0000000e+00 -3.2037736e-03 0.0000000e+00 
0.0000000e+00 -3.0248028e-03 0.0000000e+00 
0.0000000e+00 -2.3040085e-03 0.0000000e+00 
0.0000000e+00 -2.1574257e-03 0.0000000e+00 
0.0000000e+00 -1.8310254e-03 0.0000000e+00 
0.0000000e+00 -1.5827621e-03 0.0000000e+00 
0.0000000e+00 -1.7421080e-03 0.0000000e+00 
0.0000000e+00 -1.3430655e-03 0.0000000e+00 
0.0000000e+00 -1.0826554e-03 0.0000000e+00 
0.0000000e+00 -1.0428416e-03 0.0000000e+00 
0.0000000e+00 -1.3248425e-03 0.0000000e+00 
0.0000000e+00 -1.7993775e-03 0.0000000e+00 
0.0000000e+00 -1.5784109e-03 0.0000000e+00 
0.0000000e+00 -1.8026989e-03 0.0000000e+00 
0.0000000e+00 -2.1610497e-03 0.0000000e+00 
0.0000000e+00 -2.2628237e-03 0.0000000e+00 
0.0000000e+00 -3.0934552e-03 0.0000000e+00 
0.0000000e+00 -3.2138710e-03 0.0000000e+00 
0.0000000e+00 -3.5240755e-03 0.0000000e+00 
0.0000000e+00 -3.6809989e-03 0.0000000e+00 
0.0000000e+00 -3.2806692e-03 0.0000000e+00 
0.0000000e+00 -3.5324732e-03 0.0000000e+00 
0.0000000e+00 -3.0229245e-03 0.0000000e+00 
0.0000000e+00 -3.3257024e-03 0.0000000e+00 
0.0000000e+00 -3.0824714e-03 0.0000000e+00 
0.0000000e+00 -3.3099910e-03 0.0000000e+00 
0.0000000e+00 -2.9331560e-03 0.0000000e+00 
0.0000000e+00 -2.8162706e-03 0.0000000e+00 
0.0000000e+00 -2.3919004e-03 0.0000000e+00 
0.0000000e+00 -2.2687055e-03 0.0000000e+00 
0.0000000e+00 -1.9635451e-03 0.0000000e+00 
0.0000000e+00 -2.1062077e-03 0.0000000e+00 
0.0000000e+00 -2.3307160e-03 0.0000000e+00 
0.0000000e+00 -2.7015409e-03 0.0000000e+00 
0.0000000e+00 -2.9685048e-03 0.0000000e+00 
0.0000000e+00 -3.5933587e-03 0.0000000e+00 
0.0000000e+00 -3.3425079e-03 0.0000000e+00 
0.0000000e+00 -3.4888349e-03 0.0000000e+00 
0.0000000e+00 -3.2931888e-03 0.0000000e+00 
0.0000000e+00 -2.6979661e-03 0.0000000e+00 
0.0000000e+00 -2.7354897e-03 0.0000000e+00 
0.0000000e+00 -2.0198955e-03 0.0000000e+00 
-7.6164447e-06 -4.0637882e-04 0.0000000e+00 
-1.7244689e-06 -3.0681174e-04 0.0000000e+00 
-2.3498733e-06 6.9769310e-05 0.0000000e+00 
-7.3497226e-06 -3.0651788e-04 0.0000000e+00 
-7.2193103e-07 1.7458023e-04 0.0000000e+00 
-2.1577209e-06 -3.4228455e-05 0.0000000e+00 
1.0856474e-05 3.1559353e-04 0.0000000e+00 
-3.3753702e-06 5.5042251e-06 0.0000000e+00 
-1.4141876e-06 -2.5523279e-04 0.0000000e+00 
-2.5839834e-06 1.9326122e-04 0.0000000e+00 
1.1749547e-06 -2.4377475e-04 0.0000000e+00 
-8.8277687e-07 -2.6119439e-04 0.0000000e+00 
-2.0831542e-06 1.2572997e-04 0.0000000e+00 
-2.2529173e-06 5.4334738e-05 0.0000000e+00 
-1.4816821e-06 -5.1593030e-04 0.0000000e+00 
9.3186878e-07 -2.7965978e-04 0.0000000e+00 
-2.9257315e-06 2.6910796e-04 0.0000000e+00 
6.0344191e-06 2.3878139e-05 0.0000000e+00 
-4.7495855e-06 -2.6284167e-04 0.0000000e+00 
6.4183910e-06 1.3657979e-04 0.0000000e+00 
-1.2126401e-05 -4.1559478e-04 0.0000000e+00 
-8.0085338e-06 3.2036725e-04 0.0000000e+00 
3.1708066e-06 -2.4480608e-04 0.0000000e+00 
-3.9578395e-06 -2.4231187e-04 0.0000000e+00 
5.2560235e-06 -3.5337722e-05 0.0000000e+00 
-1.6020977e-07 3.1213072e-04 0.0000000e+00 
-9.0623616e-06 -4.5582917e-04 0.0000000e+00 
-2.2095408e-06 7.9103193e-05 0.0000000e+00 
-8.2461147e-06 -2.4785360e-04 0.0000000e+00 
-4.8118554e-06 -2.7485940e-04 0.0000000e+00 
1.1687684e-06 -2.5356986e-04 0.0000000e+00 
9.8799837e-06 -4.1598134e-04 0.0000000e+00 
1.3111316e-05 -4.4047899e-04 0.0000000e+00 
-1.6455911e-05 -5.1893760e-04 0.0000000e+00 
1.4541977e-05 -3.2616657e-04 0.0000000e+00 
1.0832346e-05 -4.1686062e-04 0.0000000e+00 
6.6255079e-06 -3.2407301e-04 0.0000000e+00 
6.9513248e-06 -3.2464101e-04 0.0000000e+00 
-4.8485617e-06 -4.2851397e-04 0.0000000e+00 
-6.3249986e-06 -5.0602143e-04 0.0000000e+00 
-1.2382618e-05 -5.0913589e-04 0.0000000e+00 
-7.1609253e-07 -4.5958228e-04 0.0000000e+00 
1.3617738e-05 -2.4723541e-04 0.0000000e+00 
3.3213255e-06 6.5330323e-07 0.0000000e+00 
-4.2405727e-06 1.7453855e-04 0.0000000e+00 
1.5541749e-06 1.6315139e-04 0.0000000e+00 
5.0066997e-06 3.3795946e-05 0.0000000e+00 
5.5319906e-06 -9.1086062e-05 0.0000000e+00 
-4.0996265e-06 -1.2099520e-04 0.0000000e+00 
-4.5094439e-06 -7.6581746e-05 0.0000000e+00 
8.3252880e-06 -3.5913490e-05 0.0000000e+00 
3.7451603e-06 -6.8837937e-05 0.0000000e+00 
1.2475487e-06 -1.7858538e-04 0.0000000e+00 
-4.8587781e-06 -2.6958369e-04 0.0000000e+00 
-8.8511551e-06 -2.6411330e-04 0.0000000e+00 
-4.6911809e-06 -1.2559346e-04 0.0000000e+00 
6.0287448e-06 9.2465678e-05 0.0000000e+00 
4.5917054e-06 2.6593331e-04 0.0000000e+00 
-3.4326681e-06 3.1274339e-04 0.0000000e+00 
2.1906462e-06 2.0379943e-04 0.0000000e+00 
2.7263970e-06 3.4355655e-06 0.0000000e+00 
1.3496737e-06 -1.7216393e-04 0.0000000e+00 
-1.3856181e-06 -2.3960436e-04 0.0000000e+00 
-3.6233341e-06 -1.9387528e-04 0.0000000e+00 
-6.7758442e-06 -7.7573153e-05 0.0000000e+00 
2.5151894e-07 1.8805536e-05 0.0000000e+00 
6.5731092e-06 5.3841399e-05 0.0000000e+00 
5.3323242e-06 3.5612935e-05 0.0000000e+00 
-6.6652422e-07 9.0224166e-06 0.0000000e+00 
-2.1810267e-06 1.6967464e-05 0.0000000e+00 
-5.9885956e-06 6.7231398e-05 0.0000000e+00 
-5.0145377e-06 1.2061853e-04 0.0000000e+00 
2.7643123e-06 1.3312923e-04 0.0000000e+00 
1.2444815e-06 7.1150534e-05 0.0000000e+00 
1.4382696e-06 -5.8414927e-05 0.0000000e+00 
1.0337835e-06 -1.8128369e-04 0.0000000e+00 
-1.9755385e-06 -2.5699768e-04 0.0000000e+00 
-1.8437289e-06 -2.0393395e-04 0.0000000e+00 
-5.6297108e-07 -6.4404390e-05 0.0000000e+00 
-1.1938336e-06 1.2753408e-04 0.0000000e+00 
-1.4048225e-06 2.7213429e-04 0.0000000e+00 
3.0104063e-06 2.9989914e-04 0.0000000e+00 
1.8463310e-06 1.9870909e-04 0.0000000e+00 
3.5391674e-06 2.6975201e-06 0.0000000e+00 
2.8000768e-06 -1.9691986e-04 0.0000000e+00 
-3.4992288e-06 -3.1196410e-04 0.0000000e+00 
1.8846461e-07 -2.9259897e-04 0.0000000e+00 
-3.7707016e-06 -1.4808791e-04 0.0000000e+00 
-5.8175891e-07 6.1929175e-05 0.0000000e+00 
-4.9631558e-07 2.3645624e-04 0.0000000e+00 
-1.9466411e-06 3.1755952e-04 0.0000000e+00 
2.6297398e-06 2.4409208e-04 0.0000000e+00 
3.6798642e-06 7.9152262e-05 0.0000000e+00 
-5.3824410e-06 -2.4517119e-04 0.0000000e+00 
-8.0446298e-06 -4.2009528e-04 0.0000000e+00 
2.1418205e-06 -1.3228420e-04 0.0000000e+00 
-3.1508566e-06 5.9533715e-05 0.0000000e+00 
-2.0310441e-07 -4.6767751e-04 0.0000000e+00 
3.1475345e-06 -1.6894781e-04 0.0000000e+00 
-2.3375642e-06 8.6992812e-05 0.0000000e+00 
4.9037936e-07 -1.9533609e-04 0.0000000e+00 
-1.1980167e-06 1.2350879e-05 0.0000000e+00 
1.4823754e-06 -8.2577266e-05 0.0000000e+00 
4.8868455e-06 -4.8618858e-05 0.0000000e+00 
-5.0060344e-06 -5.6862202e-05 0.0000000e+00 
-3.8303619e-06 6.7886795e-05 0.0000000e+00 
2.5837730e-06 -3.1354866e-04 0.0000000e+00 
-1.9242229e-06 1.2961224e-04 0.0000000e+00 
9.8251996e-07 1.6376083e-05 0.0000000e+00 
7.9078131e-07 1.6872356e-05 0.0000000e+00 
1.1367898e-05 -1.3500307e-04 0.0000000e+00 
3.6260549e-06 7.5284195e-05 0.0000000e+00 
1.6390558e-06 -2.8274642e-04 0.0000000e+00 
1.1601952e-06 -3.4088932e-04 0.0000000e+00 
-9.5652194e-06 -2.2460407e-04 0.0000000e+00 
1.1983424e-05 -2.4519599e-04 0.0000000e+00 
-2.7022504e-06 2.6517044e-04 0.0000000e+00 
1.2647600e-07 -1.0189967e-04 0.0000000e+00 
-1.6927802e-06 -1.9335063e-04 0.0000000e+00 
3.0700787e-06 1.2138176e-04 0.0000000e+00 
5.1628290e-06 -1.7402128e-04 0.0000000e+00 
7.1179983e-08 2.8151597e-04 0.0000000e+00 
-1.0681139e-05 -2.6852597e-04 0.0000000e+00 
-1.4354100e-07 -7.8419645e-05 0.0000000e+00 
-1.2941718e-05 -4.6368697e-04 0.0000000e+00 
-2.7210715e-06 3.2660909e-04 0.0000000e+00 
-3.0699571e-06 2.5650850e-04 0.0000000e+00 
-4.2766669e-06 6.6618486e-05 0.0000000e+00 
5.1988349e-07 3.1389386e-04 0.0000000e+00 
3.3410299e-06 -3.2293404e-04 0.0000000e+00 
9.7564416e-06 -4.1944830e-04 0.0000000e+00 
-1.4657790e-06 7.6584744e-05 0.0000000e+00 
-6.6210869e-06 -2.8413860e-04 0.0000000e+00 
9.6293306e-06 -2.6004756e-04 0.0000000e+00 
1.4639992e-06 -1.0272996e-06 0.0000000e+00 
-3.9361639e-06 3.0372609e-04 0.0000000e+00 
-3.4676880e-06 2.8220314e-04 0.0000000e+00 
6.2976751e-06 1.8685681e-04 0.0000000e+00 
6.6146431e-06 -1.4764479e-05 0.0000000e+00 
-3.0135922e-07 2.6966221e-04 0.0000000e+00 
2.3226928e-06 1.3569424e-05 0.0000000e+00 
1.9760122e-07 3.5492136e-05 0.0000000e+00 
-2.0870662e-07 5.7648525e-05 0.0000000e+00 
-4.2893222e-07 -1.1124346e-05 0.0000000e+00 
-6.2491977e-06 -1.8911061e-04 0.0000000e+00 
-2.9302839e-06 -8.0474871e-05 0.0000000e+00 
-6.2344943e-06 -1.2031128e-04 0.0000000e+00 
1.1019650e-05 -7.1110851e-05 0.0000000e+00 
-2.5597312e-06 -1.7730522e-04 0.0000000e+00 
7.0155111e-06 -1.1448422e-04 0.0000000e+00 
7.7669320e-06 1.1636444e-04 0.0000000e+00 
-7.9289293e-06 1.9951345e-04 0.0000000e+00 
-3.0913634e-06 9.7501659e-05 0.0000000e+00 
-4.5648867e-06 -5.1540462e-04 0.0000000e+00 
1.3188989e-06 -4.2485239e-04 0.0000000e+00 
3.3879146e-06 -2.5972517e-04 0.0000000e+00 
-4.9784721e-06 4.2584561e-05 0.0000000e+00 
-5.4307193e-06 1.6989979e-04 0.0000000e+00 
6.2799921e-07 -1.2888451e-04 0.0000000e+00 
-1.5973868e-06 6.2921419e-05 0.0000000e+00 
5.9346557e-06 6.7775582e-05 0.0000000e+00 
9.5902601e-07 -5.4736716e-05 0.0000000e+00 
-2.5302879e-07 -2.1373671e-04 0.0000000e+00 
-2.8302741e-06 1.6394533e-04 0.0000000e+00 
2.6022262e-06 1.5431765e-04 0.0000000e+00 
2.4021142e-06 -8.4803949e-05 0.0000000e+00 
5.5305763e-06 -1.6359547e-04 0.0000000e+00 
-1.1814043e-07 -2.9394138e-04 0.0000000e+00 
1.5755423e-06 -2.1022347e-04 0.0000000e+00 
6.8576878e-06 -5.3160726e-05 0.0000000e+00 
-2.6824009e-06 1.5258530e-06 0.0000000e+00 
-5.8307073e-06 -5.5905861e-05 0.0000000e+00 
1.8681083e-06 -2.3979046e-04 0.0000000e+00 
-7.4692325e-06 1.5471367e-05 0.0000000e+00 
3.1702784e-06 3.3078410e-05 0.0000000e+00 
-3.4030193e-06 1.2943806e-04 0.0000000e+00 
-8.3983139e-07 -2.4264837e-04 0.0000000e+00 
9.5634823e-06 3.1582091e-04 0.0000000e+00 
-6.5092067e-06 -2.6161954e-04 0.0000000e+00 
-5.5914838e-06 -3.9286624e-05 0.0000000e+00 
4.0427913e-06 -2.4161491e-04 0.0000000e+00 
7.3066881e-06 -4.5913208e-04 0.0000000e+00 
-1.2283376e-05 -4.2663972e-04 0.0000000e+00 
4.2988967e-07 -5.3811484e-05 0.0000000e+00 
1.1087799e-07 -9.5196803e-05 0.0000000e+00 
3.2408630e-06 4.8749218e-05 0.0000000e+00 
2.2642016e-05 -3.3006165e-04 0.0000000e+00 
-1.6014896e-05 -4.1261801e-04 0.0000000e+00 
2.2644784e-07 -1.3714597e-04 0.0000000e+00 
-1.5099812e-05 -3.2444077e-04 0.0000000e+00 
1.8904288e-06 -3.1399651e-04 0.0000000e+00 
1.9020617e-05 -2.2225438e-04 0.0000000e+00 
-4.7064564e-06 -2.9361420e-04 0.0000000e+00 
5.7364667e-07 8.2742044e-06 0.0000000e+00 
2.6208620e-06 -5.2413589e-04 0.0000000e+00 
-7.3382336e-07 -2.9074177e-04 0.0000000e+00 
5.0426665e-06 -3.1254702e-04 0.0000000e+00 
-1.9921588e-06 -5.0455244e-04 0.0000000e+00 
-6.1005271e-06 -4.7513132e-04 0.0000000e+00 
1.5648545e-06 1.8099409e-04 0.0000000e+00 
5.7972107e-07 1.4557735e-05 0.0000000e+00 
2.9103307e-06 3.3766592e-05 0.0000000e+00 
1.3310519e-06 -8.8740861e-05 0.0000000e+00 
-2.2880872e-06 -8.7846987e-05 0.0000000e+00 
7.1748389e-08 -6.3771215e-05 0.0000000e+00 
3.4688994e-06 -2.6217665e-04 0.0000000e+00 
-1.0669734e-05 -1.2648859e-04 0.0000000e+00 
5.1331026e-06 -2.0102866e-04 0.0000000e+00 
7.8776920e-06 2.6991018e-04 0.0000000e+00 
6.9748589e-06 2.1084561e-04 0.0000000e+00 
-7.5440471e-06 -1.6449255e-04 0.0000000e+00 
3.6576130e-06 7.1671011e-06 0.0000000e+00 
2.5802610e-06 -1.9501426e-04 0.0000000e+00 
1.1026876e-06 5.3775479e-05 0.0000000e+00 
3.4291725e-06 1.1851931e-05 0.0000000e+00 
-4.5516822e-06 1.1103445e-04 0.0000000e+00 
2.1720930e-06 6.9123460e-05 0.0000000e+00 
8.3964796e-06 -1.7492141e-04 0.0000000e+00 
2.4102244e-06 2.9082882e-04 0.0000000e+00 
-2.6509247e-06 -1.9837232e-04 0.0000000e+00 
-6.7678720e-06 1.2785624e-04 0.0000000e+00 
-5.5584123e-06 -1.3693003e-04 0.0000000e+00 
-7.5215866e-07 2.4747319e-04 0.0000000e+00 
-1.0715718e-06 2.5513227e-04 0.0000000e+00 
4.7640751e-07 -3.0645635e-04 0.0000000e+00 
3.8480443e-06 1.8381943e-04 0.0000000e+00 
-3.9918013e-06 -1.2701430e-04 0.0000000e+00 
-4.0731757e-06 -2.4245773e-04 0.0000000e+00 
2.2304323e-06 -2.2787381e-04 0.0000000e+00 
1.6845024e-05 -5.6604622e-04 0.0000000e+00 
-1.1078602e-05 -5.5557856e-04 0.0000000e+00 
1.5022099e-06 -5.0741126e-04 0.0000000e+00 
-1.0329534e-05 -5.2473991e-04 0.0000000e+00 
9.7450893e-06 -2.4232898e-04 0.0000000e+00 
-2.2205197e-06 -2.3608777e-04 0.0000000e+00 
-2.6777786e-06 -2.8850423e-04 0.0000000e+00 
1.4446548e-04 -2.2494330e-03 0.0000000e+00 
2.8740790e-06 -1.1064260e-03 0.0000000e+00 
4.7271937e-05 -3.2094922e-03 0.0000000e+00 
-1.2566486e-05 -1.5936920e-03 0.0000000e+00 
-7.1104146e-06 -2.8860371e-03 0.0000000e+00 
2.3400789e-06 -2.6859462e-03 0.0000000e+00 
2.4449149e-05 -1.8900280e-03 0.0000000e+00 
1.2918770e-05 -3.4845523e-03 0.0000000e+00 
-1.6971580e-05 -3.1782745e-03 0.0000000e+00 
-9.5054666e-06 -2.7915719e-03 0.0000000e+00 
-2.2010787e-05 -3.1812484e-03 0.0000000e+00 
-4.6030545e-06 -3.2289771e-03 0.0000000e+00 
-2.9574678e-05 -3.6094375e-03 0.0000000e+00 
-7.3261867e-06 -2.1899513e-03 0.0000000e+00 
4.2944125e-06 -2.1078044e-03 0.0000000e+00 
1.2798677e-05 -3.1365466e-03 0.0000000e+00 
1.5520563e-05 -2.9599390e-03 0.0000000e+00 
-1.4179100e-05 -3.0182102e-03 0.0000000e+00 
-1.3837136e-05 -2.2697847e-03 0.0000000e+00 
2.8676326e-05 -2.7689228e-03 0.0000000e+00 
3.1881866e-06 -3.2822699e-03 0.0000000e+00 
1.8486570e-06 -3.3844151e-03 0.0000000e+00 
-2.5243000e-05 -1.7127014e-03 0.0000000e+00 
1.7299448e-07 -2.6573266e-03 0.0000000e+00 
3.4319997e-05 -3.2696621e-03 0.0000000e+00 
-5.3578056e-05 -2.3491927e-03 0.0000000e+00 
2.9723531e-05 -2.6544686e-03 0.0000000e+00 
-6.0494363e-06 -1.6143799e-03 0.0000000e+00 
-8.8004472e-06 -1.1660578e-03 0.0000000e+00 
-1.4661228e-04 -2.0010713e-03 0.0000000e+00 
-1.0470590e-04 -2.5916148e-03 0.0000000e+00 
2.6715099e-06 -1.1017303e-03 0.0000000e+00 
2.0272140e-05 -1.6309157e-03 0.0000000e+00 
-7.3129077e-06 -1.7703742e-03 0.0000000e+00 
-6.4656874e-06 -1.5261278e-03 0.0000000e+00 
8.6639493e-06 -1.7220755e-03 0.0000000e+00 
-3.1184761e-06 -1.5884308e-03 0.0000000e+00 
1.2109118e-05 -1.5708269e-03 0.0000000e+00 
6.7857504e-06 -1.8146815e-03 0.0000000e+00 
-9.8884766e-06 -1.7364116e-03 0.0000000e+00 
-1.7708322e-06 -2.0833306e-03 0.0000000e+00 
-2.4573658e-06 -2.1618698e-03 0.0000000e+00 
1.2362396e-05 -2.1461805e-03 0.0000000e+00 
-4.4847143e-06 -2.3157105e-03 0.0000000e+00 
-4.8192401e-06 -2.6524053e-03 0.0000000e+00 
6.2314948e-06 -3.0726981e-03 0.0000000e+00 
-1.5945809e-05 -3.2476368e-03 0.0000000e+00 
-1.3897096e-05 -3.1710397e-03 0.0000000e+00 
-9.0766980e-06 -3.2671019e-03 0.0000000e+00 
1.2284238e-05 -3.4977915e-03 0.0000000e+00 
1.7648059e-05 -3.7448816e-03 0.0000000e+00 
-3.8471683e-07 -3.6393008e-03 0.0000000e+00 
7.9920719e-06 -3.3880735e-03 0.0000000e+00 
-4.8861607e-06 -3.3687667e-03 0.0000000e+00 
-1.6849466e-05 -3.4298850e-03 0.0000000e+00 
-2.0638931e-06 -3.5560287e-03 0.0000000e+00 
8.9950490e-06 -3.2965282e-03 0.0000000e+00 
1.1056754e-05 -3.0429892e-03 0.0000000e+00 
-1.7910073e-05 -3.2006910e-03 0.0000000e+00 
1.0834040e-05 -3.3055623e-03 0.0000000e+00 