# vtk DataFile Version 4.0
vtk output
ASCII
DATASET UNSTRUCTURED_GRID
POINTS 628 float
0.0000000e+00 0.0000000e+00 0.0000000e+00 
1.0000000e+00 0.0000000e+00 0.0000000e+00 
1.0000000e+00 1.0000000e+01 0.0000000e+00 
0.0000000e+00 1.0000000e+01 0.0000000e+00 
0.0000000e+00 5.0000000e+00 0.0000000e+00 
1.0000000e+00 5.0000000e+00 0.0000000e+00 
1.4285715e-01 0.0000000e+00 0.0000000e+00 
2.8571430e-01 0.0000000e+00 0.0000000e+00 
4.2857143e-01 0.0000000e+00 0.0000000e+00 
5.7142860e-01 0.0000000e+00 0.0000000e+00 
7.1428573e-01 0.0000000e+00 0.0000000e+00 
8.5714287e-01 0.0000000e+00 0.0000000e+00 
8.5714287e-01 1.0000000e+01 0.0000000e+00 
7.1428573e-01 1.0000000e+01 0.0000000e+00 
5.7142860e-01 1.0000000e+01 0.0000000e+00 
4.2857143e-01 1.0000000e+01 0.0000000e+00 
2.8571430e-01 1.0000000e+01 0.0000000e+00 
1.4285715e-01 1.0000000e+01 0.0000000e+00 
1.4285715e-01 5.0000000e+00 0.0000000e+00 
2.8571430e-01 5.0000000e+00 0.0000000e+00 
4.2857143e-01 5.0000000e+00 0.0000000e+00 
5.7142860e-01 5.0000000e+00 0.0000000e+00 
7.1428573e-01 5.0000000e+00 0.0000000e+00 
8.5714287e-01 5.0000000e+00 0.0000000e+00 
0.0000000e+00 4.8529410e+00 0.0000000e+00 
0.0000000e+00 4.7058825e+00 0.0000000e+00 
0.0000000e+00 4.5588236e+00 0.0000000e+00 
0.0000000e+00 4.4117646e+00 0.0000000e+00 
0.0000000e+00 4.2647057e+00 0.0000000e+00 
0.0000000e+00 4.1176472e+00 0.0000000e+00 
0.0000000e+00 3.9705882e+00 0.0000000e+00 
0.0000000e+00 3.8235295e+00 0.0000000e+00 
0.0000000e+00 3.6764705e+00 0.0000000e+00 
0.0000000e+00 3.5294118e+00 0.0000000e+00 
0.0000000e+00 3.3823528e+00 0.0000000e+00 
0.0000000e+00 3.2352941e+00 0.0000000e+00 
0.0000000e+00 3.0882354e+00 0.0000000e+00 
0.0000000e+00 2.9411764e+00 0.0000000e+00 
0.0000000e+00 2.7941177e+00 0.0000000e+00 
0.0000000e+00 2.6470587e+00 0.0000000e+00 
0.0000000e+00 2.5000000e+00 0.0000000e+00 
0.0000000e+00 2.3529413e+00 0.0000000e+00 
0.0000000e+00 2.2058823e+00 0.0000000e+00 
0.0000000e+00 2.0588236e+00 0.0000000e+00 
0.0000000e+00 1.9117647e+00 0.0000000e+00 
0.0000000e+00 1.7647059e+00 0.0000000e+00 
0.0000000e+00 1.6176471e+00 0.0000000e+00 
0.0000000e+00 1.4705882e+00 0.0000000e+00 
0.0000000e+00 1.3235294e+00 0.0000000e+00 
0.0000000e+00 1.1764706e+00 0.0000000e+00 
0.0000000e+00 1.0294118e+00 0.0000000e+00 
0.0000000e+00 8.8235295e-01 0.0000000e+00 
0.0000000e+00 7.3529410e-01 0.0000000e+00 
0.0000000e+00 5.8823532e-01 0.0000000e+00 
0.0000000e+00 4.4117647e-01 0.0000000e+00 
0.0000000e+00 2.9411766e-01 0.0000000e+00 
0.0000000e+00 1.4705883e-01 0.0000000e+00 
1.0000000e+00 1.4705883e-01 0.0000000e+00 
1.0000000e+00 2.9411766e-01 0.0000000e+00 
1.0000000e+00 4.4117647e-01 0.0000000e+00 
1.0000000e+00 5.8823532e-01 0.0000000e+00 
1.0000000e+00 7.3529410e-01 0.0000000e+00 
1.0000000e+00 8.8235295e-01 0.0000000e+00 
1.0000000e+00 1.0294118e+00 0.0000000e+00 
1.0000000e+00 1.1764706e+00 0.0000000e+00 
1.0000000e+00 1.3235294e+00 0.0000000e+00 
1.0000000e+00 1.4705882e+00 0.0000000e+00 
1.0000000e+00 1.6176471e+00 0.0000000e+00 
1.0000000e+00 1.7647059e+00 0.0000000e+00 
1.0000000e+00 1.9117647e+00 0.0000000e+00 
1.0000000e+00 2.0588236e+00 0.0000000e+00 
1.0000000e+00 2.2058823e+00 0.0000000e+00 
1.0000000e+00 2.3529413e+00 0.0000000e+00 
1.0000000e+00 2.5000000e+00 0.0000000e+00 
1.0000000e+00 2.6470587e+00 0.0000000e+00 
1.0000000e+00 2.7941177e+00 0.0000000e+00 
1.0000000e+00 2.9411764e+00 0.0000000e+00 
1.0000000e+00 3.0882354e+00 0.0000000e+00 
1.0000000e+00 3.2352941e+00 0.0000000e+00 
1.0000000e+00 3.3823528e+00 0.0000000e+00 
1.0000000e+00 3.5294118e+00 0.0000000e+00 
1.0000000e+00 3.6764705e+00 0.0000000e+00 
1.0000000e+00 3.8235295e+00 0.0000000e+00 
1.0000000e+00 3.9705882e+00 0.0000000e+00 
1.0000000e+00 4.1176472e+00 0.0000000e+00 
1.0000000e+00 4.2647057e+00 0.0000000e+00 
1.0000000e+00 4.4117646e+00 0.0000000e+00 
1.0000000e+00 4.5588236e+00 0.0000000e+00 
1.0000000e+00 4.7058825e+00 0.0000000e+00 
1.0000000e+00 4.8529410e+00 0.0000000e+00 
0.0000000e+00 9.8529415e+00 0.0000000e+00 
0.0000000e+00 9.7058821e+00 0.0000000e+00 
0.0000000e+00 9.5588236e+00 0.0000000e+00 
0.0000000e+00 9.4117651e+00 0.0000000e+00 
0.0000000e+00 9.2647057e+00 0.0000000e+00 
0.0000000e+00 9.1176472e+00 0.0000000e+00 
0.0000000e+00 8.9705887e+00 0.0000000e+00 
0.0000000e+00 8.8235292e+00 0.0000000e+00 
0.0000000e+00 8.6764708e+00 0.0000000e+00 
0.0000000e+00 8.5294113e+00 0.0000000e+00 
0.0000000e+00 8.3823528e+00 0.0000000e+00 
0.0000000e+00 8.2352943e+00 0.0000000e+00 
0.0000000e+00 8.0882349e+00 0.0000000e+00 
0.0000000e+00 7.9411764e+00 0.0000000e+00 
0.0000000e+00 7.7941175e+00 0.0000000e+00 
0.0000000e+00 7.6470590e+00 0.0000000e+00 
0.0000000e+00 7.5000000e+00 0.0000000e+00 
0.0000000e+00 7.3529410e+00 0.0000000e+00 
0.0000000e+00 7.2058825e+00 0.0000000e+00 
0.0000000e+00 7.0588236e+00 0.0000000e+00 
0.0000000e+00 6.9117646e+00 0.0000000e+00 
0.0000000e+00 6.7647057e+00 0.0000000e+00 
0.0000000e+00 6.6176472e+00 0.0000000e+00 
0.0000000e+00 6.4705882e+00 0.0000000e+00 
0.0000000e+00 6.3235292e+00 0.0000000e+00 
0.0000000e+00 6.1764708e+00 0.0000000e+00 
0.0000000e+00 6.0294118e+00 0.0000000e+00 
0.0000000e+00 5.8823528e+00 0.0000000e+00 
0.0000000e+00 5.7352943e+00 0.0000000e+00 
0.0000000e+00 5.5882354e+00 0.0000000e+00 
0.0000000e+00 5.4411764e+00 0.0000000e+00 
0.0000000e+00 5.2941175e+00 0.0000000e+00 
0.0000000e+00 5.1470590e+00 0.0000000e+00 
1.0000000e+00 5.1470590e+00 0.0000000e+00 
1.0000000e+00 5.2941175e+00 0.0000000e+00 
1.0000000e+00 5.4411764e+00 0.0000000e+00 
1.0000000e+00 5.5882354e+00 0.0000000e+00 
1.0000000e+00 5.7352943e+00 0.0000000e+00 
1.0000000e+00 5.8823528e+00 0.0000000e+00 
1.0000000e+00 6.0294118e+00 0.0000000e+00 
1.0000000e+00 6.1764708e+00 0.0000000e+00 
1.0000000e+00 6.3235292e+00 0.0000000e+00 
1.0000000e+00 6.4705882e+00 0.0000000e+00 
1.0000000e+00 6.6176472e+00 0.0000000e+00 
1.0000000e+00 6.7647057e+00 0.0000000e+00 
1.0000000e+00 6.9117646e+00 0.0000000e+00 
1.0000000e+00 7.0588236e+00 0.0000000e+00 
1.0000000e+00 7.2058825e+00 0.0000000e+00 
1.0000000e+00 7.3529410e+00 0.0000000e+00 
1.0000000e+00 7.5000000e+00 0.0000000e+00 
1.0000000e+00 7.6470590e+00 0.0000000e+00 
1.0000000e+00 7.7941175e+00 0.0000000e+00 
1.0000000e+00 7.9411764e+00 0.0000000e+00 
1.0000000e+00 8.0882349e+00 0.0000000e+00 
1.0000000e+00 8.2352943e+00 0.0000000e+00 
1.0000000e+00 8.3823528e+00 0.0000000e+00 
1.0000000e+00 8.5294113e+00 0.0000000e+00 
1.0000000e+00 8.6764708e+00 0.0000000e+00 
1.0000000e+00 8.8235292e+00 0.0000000e+00 
1.0000000e+00 8.9705887e+00 0.0000000e+00 
1.0000000e+00 9.1176472e+00 0.0000000e+00 
1.0000000e+00 9.2647057e+00 0.0000000e+00 
1.0000000e+00 9.4117651e+00 0.0000000e+00 
1.0000000e+00 9.5588236e+00 0.0000000e+00 
1.0000000e+00 9.7058821e+00 0.0000000e+00 
1.0000000e+00 9.8529415e+00 0.0000000e+00 
5.0212586e-01 4.8703580e+00 0.0000000e+00 
5.1041055e-01 1.3732977e-01 0.0000000e+00 
1.3055173e-01 6.6499180e-01 0.0000000e+00 
8.7327349e-01 4.3372407e+00 0.0000000e+00 
8.7331611e-01 3.8958969e+00 0.0000000e+00 
8.7347627e-01 3.4562511e+00 0.0000000e+00 
8.7357801e-01 2.8680170e+00 0.0000000e+00 
1.2843554e-01 2.1327813e+00 0.0000000e+00 
1.2975387e-01 1.5449892e+00 0.0000000e+00 
1.3308091e-01 1.1039938e+00 0.0000000e+00 
1.2937543e-01 2.5737903e+00 0.0000000e+00 
1.2735668e-01 3.1617646e+00 0.0000000e+00 
8.7375563e-01 1.8386052e+00 0.0000000e+00 
8.7355548e-01 2.2778318e+00 0.0000000e+00 
1.2753446e-01 4.1915216e+00 0.0000000e+00 
8.7915283e-01 8.0759794e-01 0.0000000e+00 
8.8115031e-01 1.2498868e+00 0.0000000e+00 
1.2781374e-01 3.7501886e+00 0.0000000e+00 
8.7352717e-01 3.1621344e+00 0.0000000e+00 
1.2961270e-01 1.8389882e+00 0.0000000e+00 
1.2731366e-01 4.4857054e+00 0.0000000e+00 
1.2885660e-01 2.8684020e+00 0.0000000e+00 
8.7380636e-01 1.5444875e+00 0.0000000e+00 
8.7362880e-01 2.5738993e+00 0.0000000e+00 
1.2735668e-01 3.4558823e+00 0.0000000e+00 
8.7264335e-01 5.1470590e-01 0.0000000e+00 
8.7611687e-01 4.6317782e+00 0.0000000e+00 
1.3446054e-01 3.7013325e-01 0.0000000e+00 
1.2296320e-01 4.7760825e+00 0.0000000e+00 
8.8210768e-01 2.2118840e-01 0.0000000e+00 
2.1798968e-01 1.0548568e-01 0.0000000e+00 
7.7656764e-01 4.8704844e+00 0.0000000e+00 
1.2667844e-01 4.6331582e+00 0.0000000e+00 
2.5353336e-01 4.5619426e+00 0.0000000e+00 
2.5451174e-01 4.4132285e+00 0.0000000e+00 
3.8040194e-01 4.4881525e+00 0.0000000e+00 
3.8161713e-01 4.3403850e+00 0.0000000e+00 
5.0654775e-01 4.4141955e+00 0.0000000e+00 
5.0629890e-01 4.2659345e+00 0.0000000e+00 
5.0658631e-01 4.5616083e+00 0.0000000e+00 
3.8184282e-01 4.1932206e+00 0.0000000e+00 
5.0831819e-01 4.1188259e+00 0.0000000e+00 
3.8249290e-01 4.0462651e+00 0.0000000e+00 
5.0818664e-01 3.9732957e+00 0.0000000e+00 
3.8265404e-01 3.8991868e+00 0.0000000e+00 
5.0769192e-01 3.8249388e+00 0.0000000e+00 
3.8307732e-01 3.7517705e+00 0.0000000e+00 
5.0990808e-01 3.6776419e+00 0.0000000e+00 
3.8416636e-01 3.6049941e+00 0.0000000e+00 
5.1177651e-01 3.5322094e+00 0.0000000e+00 
3.8460994e-01 3.4584429e+00 0.0000000e+00 
5.1256055e-01 3.3855147e+00 0.0000000e+00 
3.8520575e-01 3.3115354e+00 0.0000000e+00 
5.1318693e-01 3.2385471e+00 0.0000000e+00 
3.8561273e-01 3.1645203e+00 0.0000000e+00 
5.1375473e-01 3.0915136e+00 0.0000000e+00 
3.8616878e-01 3.0174749e+00 0.0000000e+00 
5.1433694e-01 2.9444630e+00 0.0000000e+00 
3.8656160e-01 2.8704205e+00 0.0000000e+00 
5.1489413e-01 2.7974076e+00 0.0000000e+00 
3.8711417e-01 2.7233641e+00 0.0000000e+00 
5.1547360e-01 2.6503508e+00 0.0000000e+00 
3.8750717e-01 2.5763063e+00 0.0000000e+00 
5.1603019e-01 2.5032935e+00 0.0000000e+00 
3.8805979e-01 2.4292488e+00 0.0000000e+00 
5.1422137e-01 2.3562264e+00 0.0000000e+00 
3.8765049e-01 2.2821872e+00 0.0000000e+00 
5.1307547e-01 2.2071202e+00 0.0000000e+00 
3.8778570e-01 2.1347876e+00 0.0000000e+00 
5.1568961e-01 2.0596735e+00 0.0000000e+00 
3.9013749e-01 1.9876142e+00 0.0000000e+00 
5.1808232e-01 1.9145784e+00 0.0000000e+00 
3.8994926e-01 1.8408588e+00 0.0000000e+00 
5.1884413e-01 1.7678982e+00 0.0000000e+00 
[...]
POINT_DATA 628
FIELD FieldData 2
VELOCITY 3 628  float
0.0000000e+00 0.0000000e+00 0.0000000e+00 
0.0000000e+00 0.0000000e+00 0.0000000e+00 
0.0000000e+00 -2.3816375e-03 0.0000000e+00 
0.0000000e+00 -2.6298475e-03 0.0000000e+00 
0.0000000e+00 -2.9033665e-03 0.0000000e+00 
0.0000000e+00 -2.8633405e-03 0.0000000e+00 
0.0000000e+00 0.0000000e+00 0.0000000e+00 
0.0000000e+00 0.0000000e+00 0.0000000e+00 
0.0000000e+00 0.0000000e+00 0.0000000e+00 
0.0000000e+00 0.0000000e+00 0.0000000e+00 
0.0000000e+00 0.0000000e+00 0.0000000e+00 
0.0000000e+00 0.0000000e+00 0.0000000e+00 
-1.3283686e-05 -1.9780549e-03 0.0000000e+00 
-2.3773054e-04 -2.4046681e-03 0.0000000e+00 
1.4263547e-04 -2.4636488e-03 0.0000000e+00 
-2.6067617e-04 -3.1266906e-03 0.0000000e+00 
2.7348946e-05 -2.7381326e-03 0.0000000e+00 
8.6083492e-05 -2.5325790e-03 0.0000000e+00 
-4.8680749e-06 -2.7808493e-03 0.0000000e+00 
1.9034149e-05 -2.7948723e-03 0.0000000e+00 
-1.4531925e-05 -2.8370356e-03 0.0000000e+00 
1.4797676e-05 -2.8494122e-03 0.0000000e+00 
-3.2828662e-05 -2.7820682e-03 0.0000000e+00 
7.2357811e-06 -2.7584177e-03 0.0000000e+00 
0.0000000e+00 -2.9999784e-03 0.0000000e+00 
0.0000000e+00 -2.7730891e-03 0.0000000e+00 
0.0000000e+00 -2.7646404e-03 0.0000000e+00 
0.0000000e+00 -2.7498447e-03 0.0000000e+00 
0.0000000e+00 -2.4780598e-03 0.0000000e+00 
0.0000000e+00 -2.4151765e-03 0.0000000e+00 
0.0000000e+00 -1.9640292e-03 0.0000000e+00 
0.0000000e+00 -1.8592125e-03 0.0000000e+00 
0.0000000e+00 -2.1016160e-03 0.0000000e+00 
0.0000000e+00 -2.0192515e-03 0.0000000e+00 
0.0000000e+00 -2.0120316e-03 0.0000000e+00 
0.0000000e+00 -1.8757326e-03 0.0000000e+00 
0.0000000e+00 -1.5524599e-03 0.0000000e+00 
0.0000000e+00 -1.5974782e-03 0.0000000e+00 
0.0000000e+00 -1.3195801e-03 0.0000000e+00 
0.0000000e+00 -5.8793364e-04 0.0000000e+00 
0.0000000e+00 -2.1799460e-04 0.0000000e+00 
0.0000000e+00 -1.6378952e-05 0.0000000e+00 
0.0000000e+00 3.6386662e-04 0.0000000e+00 
0.0000000e+00 5.5756094e-04 0.0000000e+00 
0.0000000e+00 6.8913942e-04 0.0000000e+00 
0.0000000e+00 8.1468298e-04 0.0000000e+00 
0.0000000e+00 5.6021131e-04 0.0000000e+00 
0.0000000e+00 3.1388400e-04 0.0000000e+00 
0.0000000e+00 4.7139701e-04 0.0000000e+00 
0.0000000e+00 4.2493848e-04 0.0000000e+00 
0.0000000e+00 -1.9063360e-05 0.0000000e+00 
0.0000000e+00 -6.8644375e-05 0.0000000e+00 
0.0000000e+00 2.4111032e-04 0.0000000e+00 
0.0000000e+00 1.1845840e-04 0.0000000e+00 
0.0000000e+00 -1.9946546e-04 0.0000000e+00 
0.0000000e+00 -3.6441728e-05 0.0000000e+00 
0.0000000e+00 2.2475704e-04 0.0000000e+00 
0.0000000e+00 2.0910137e-04 0.0000000e+00 
0.0000000e+00 -3.7633468e-05 0.0000000e+00 
0.0000000e+00 -1.9031079e-04 0.0000000e+00 
0.0000000e+00 1.1204189e-04 0.0000000e+00 
0.0000000e+00 2.1650140e-04 0.0000000e+00 
0.0000000e+00 -5.4328462e-05 0.0000000e+00 
0.0000000e+00 2.4033336e-05 0.0000000e+00 
0.0000000e+00 4.1287759e-04 0.0000000e+00 
0.0000000e+00 4.4090490e-04 0.0000000e+00 
0.0000000e+00 3.3592075e-04 0.0000000e+00 
0.0000000e+00 5.8081769e-04 0.0000000e+00 
0.0000000e+00 7.9024461e-04 0.0000000e+00 
0.0000000e+00 6.8136089e-04 0.0000000e+00 
0.0000000e+00 5.7981582e-04 0.0000000e+00 
0.0000000e+00 3.6685902e-04 0.0000000e+00 
0.0000000e+00 -1.9613753e-05 0.0000000e+00 
0.0000000e+00 -2.0421877e-04 0.0000000e+00 
0.0000000e+00 -6.0928997e-04 0.0000000e+00 
0.0000000e+00 -1.3441556e-03 0.0000000e+00 
0.0000000e+00 -1.5823004e-03 0.0000000e+00 
0.0000000e+00 -1.5655851e-03 0.0000000e+00 
0.0000000e+00 -1.8978317e-03 0.0000000e+00 
0.0000000e+00 -1.9832640e-03 0.0000000e+00 
0.0000000e+00 -2.0041780e-03 0.0000000e+00 
0.0000000e+00 -2.1096366e-03 0.0000000e+00 
0.0000000e+00 -1.8207283e-03 0.0000000e+00 
0.0000000e+00 -1.9705768e-03 0.0000000e+00 
0.0000000e+00 -2.4353552e-03 0.0000000e+00 
0.0000000e+00 -2.4595812e-03 0.0000000e+00 
0.0000000e+00 -2.7923298e-03 0.0000000e+00 
0.0000000e+00 -2.7895016e-03 0.0000000e+00 
0.0000000e+00 -2.7403918e-03 0.0000000e+00 
0.0000000e+00 -3.0238139e-03 0.0000000e+00 
0.0000000e+00 -2.6452097e-03 0.0000000e+00 
0.0000000e+00 -2.9368482e-03 0.0000000e+00 
0.0000000e+00 -2.8607289e-03 0.0000000e+00 
0.0000000e+00 -2.9743996e-03 0.0000000e+00 
0.0000000e+00 -2.7822102e-03 0.0000000e+00 
0.0000000e+00 -2.7669703e-03 0.0000000e+00 
0.0000000e+00 -2.5086214e-03 0.0000000e+00 
0.0000000e+00 -2.7431664e-03 0.0000000e+00 
0.0000000e+00 -2.7996167e-03 0.0000000e+00 
0.0000000e+00 -3.0902731e-03 0.0000000e+00 
0.0000000e+00 -2.9359644e-03 0.0000000e+00 
0.0000000e+00 -2.9174050e-03 0.0000000e+00 
0.0000000e+00 -2.6321497e-03 0.0000000e+00 
0.0000000e+00 -2.4541374e-03 0.0000000e+00 
0.0000000e+00 -2.6008119e-03 0.0000000e+00 
0.0000000e+00 -2.8832101e-03 0.0000000e+00 
0.0000000e+00 -3.0971726e-03 0.0000000e+00 
0.0000000e+00 -3.0882957e-03 0.0000000e+00 
0.0000000e+00 -2.9019935e-03 0.0000000e+00 
0.0000000e+00 -2.6141587e-03 0.0000000e+00 
0.0000000e+00 -2.5638144e-03 0.0000000e+00 
0.0000000e+00 -2.6267213e-03 0.0000000e+00 
0.0000000e+00 -2.7157608e-03 0.0000000e+00 
0.0000000e+00 -2.8623617e-03 0.0000000e+00 
0.0000000e+00 -2.8762799e-03 0.0000000e+00 
0.0000000e+00 -2.9379714e-03 0.0000000e+00 
0.0000000e+00 -2.8488857e-03 0.0000000e+00 
0.0000000e+00 -3.0338140e-03 0.0000000e+00 
0.0000000e+00 -2.7345780e-03 0.0000000e+00 
0.0000000e+00 -2.7615139e-03 0.0000000e+00 
0.0000000e+00 -2.3791490e-03 0.0000000e+00 
0.0000000e+00 -2.4500755e-03 0.0000000e+00 
0.0000000e+00 -2.6931264e-03 0.0000000e+00 
0.0000000e+00 -2.6948785e-03 0.0000000e+00 
0.0000000e+00 -2.4676356e-03 0.0000000e+00 
0.0000000e+00 -2.3179711e-03 0.0000000e+00 
0.0000000e+00 -2.7996923e-03 0.0000000e+00 
0.0000000e+00 -2.7485397e-03 0.0000000e+00 
0.0000000e+00 -3.0770125e-03 0.0000000e+00 
0.0000000e+00 -2.8151870e-03 0.0000000e+00 
0.0000000e+00 -2.9536353e-03 0.0000000e+00 
0.0000000e+00 -2.8623766e-03 0.0000000e+00 
0.0000000e+00 -2.8622877e-03 0.0000000e+00 
0.0000000e+00 -2.7874922e-03 0.0000000e+00 
0.0000000e+00 -2.5548276e-03 0.0000000e+00 
0.0000000e+00 -2.6065349e-03 0.0000000e+00 
0.0000000e+00 -2.5072529e-03 0.0000000e+00 
0.0000000e+00 -2.9736483e-03 0.0000000e+00 
0.0000000e+00 -3.0459708e-03 0.0000000e+00 
0.0000000e+00 -3.1755802e-03 0.0000000e+00 
0.0000000e+00 -2.7776395e-03 0.0000000e+00 
0.0000000e+00 -2.6522770e-03 0.0000000e+00 
0.0000000e+00 -2.4657794e-03 0.0000000e+00 
0.0000000e+00 -2.6443864e-03 0.0000000e+00 
0.0000000e+00 -2.7994753e-03 0.0000000e+00 
0.0000000e+00 -3.0610696e-03 0.0000000e+00 
0.0000000e+00 -3.0042063e-03 0.0000000e+00 
0.0000000e+00 -2.8762121e-03 0.0000000e+00 
0.0000000e+00 -2.7269651e-03 0.0000000e+00 
0.0000000e+00 -2.4847656e-03 0.0000000e+00 
0.0000000e+00 -2.7970895e-03 0.0000000e+00 
0.0000000e+00 -2.7912853e-03 0.0000000e+00 
0.0000000e+00 -2.9359420e-03 0.0000000e+00 
0.0000000e+00 -2.8611741e-03 0.0000000e+00 
0.0000000e+00 -3.0055903e-03 0.0000000e+00 
0.0000000e+00 -2.5180320e-03 0.0000000e+00 
1.3408036e-06 -3.0695407e-03 0.0000000e+00 
1.2867761e-05 2.3245625e-04 0.0000000e+00 
-1.5888922e-05 2.5733412e-04 0.0000000e+00 
-1.2880929e-06 -2.5503393e-03 0.0000000e+00 
-2.0716338e-06 -1.8161233e-03 0.0000000e+00 
2.4130979e-06 -1.9635262e-03 0.0000000e+00 
-9.0094491e-06 -1.5338045e-03 0.0000000e+00 
2.3642112e-06 4.9251813e-04 0.0000000e+00 
6.1797896e-06 3.9337960e-04 0.0000000e+00 
-2.8484681e-06 2.1931429e-04 0.0000000e+00 
9.2647515e-06 -3.3561286e-04 0.0000000e+00 
8.7175677e-06 -1.6957298e-03 0.0000000e+00 
2.8984825e-06 7.4896257e-04 0.0000000e+00 
-3.3529218e-06 1.6559084e-04 0.0000000e+00 
1.8015890e-06 -2.4991627e-03 0.0000000e+00 
-1.5659562e-06 8.7843931e-05 0.0000000e+00 
-7.1224699e-06 4.9036217e-04 0.0000000e+00 
2.7761944e-06 -1.9895840e-03 0.0000000e+00 
1.2601515e-06 -1.7240931e-03 0.0000000e+00 
-6.1223004e-06 7.6623785e-04 0.0000000e+00 
-2.0334033e-05 -2.8004854e-03 0.0000000e+00 
-1.0870035e-06 -1.5430590e-03 0.0000000e+00 
-1.2114842e-06 4.1999461e-04 0.0000000e+00 
-5.4073321e-06 -3.2711885e-04 0.0000000e+00 
4.7467461e-06 -1.9844831e-03 0.0000000e+00 
1.2219920e-07 -5.8571412e-05 0.0000000e+00 
-1.0334709e-05 -2.6498982e-03 0.0000000e+00 
5.1760103e-06 -1.9607054e-04 0.0000000e+00 
-3.5902554e-05 -2.9496176e-03 0.0000000e+00 
-1.1398800e-05 1.2664129e-04 0.0000000e+00 
-4.5197394e-06 2.0481767e-04 0.0000000e+00 
-4.7752537e-06 -3.1458242e-03 0.0000000e+00 
2.8604270e-05 -2.6805636e-03 0.0000000e+00 
-1.4101389e-05 -2.7672006e-03 0.0000000e+00 
1.2936748e-05 -2.7489669e-03 0.0000000e+00 
-3.3669548e-06 -2.8126254e-03 0.0000000e+00 
2.0601674e-05 -2.5896477e-03 0.0000000e+00 
2.8398683e-06 -2.7329836e-03 0.0000000e+00 
-1.1939395e-05 -2.4896595e-03 0.0000000e+00 
-1.7379671e-06 -2.7499059e-03 0.0000000e+00 
-1.0480979e-05 -2.4658628e-03 0.0000000e+00 
-7.8369965e-07 -2.4438759e-03 0.0000000e+00 
1.9379747e-06 -2.2349355e-03 0.0000000e+00 
4.1246994e-06 -1.9881604e-03 0.0000000e+00 
-2.2780853e-06 -1.8133270e-03 0.0000000e+00 
7.7758141e-06 -1.8362285e-03 0.0000000e+00 
6.1880814e-06 -2.0148829e-03 0.0000000e+00 
2.1251096e-06 -2.0952539e-03 0.0000000e+00 
-5.1550128e-06 -2.0792210e-03 0.0000000e+00 
-1.0515874e-06 -1.9987074e-03 0.0000000e+00 
1.6645949e-05 -1.9653561e-03 0.0000000e+00 
-6.6633866e-06 -2.0160074e-03 0.0000000e+00 
-1.6559256e-05 -1.9990094e-03 0.0000000e+00 
-9.8168957e-06 -1.9119830e-03 0.0000000e+00 
1.1680485e-05 -1.7194104e-03 0.0000000e+00 
6.7086280e-06 -1.5697652e-03 0.0000000e+00 
-5.2851892e-06 -1.5434383e-03 0.0000000e+00 
-1.1056035e-07 -1.5683179e-03 0.0000000e+00 
8.9113328e-06 -1.5531038e-03 0.0000000e+00 
8.0748478e-06 -1.3420726e-03 0.0000000e+00 
-6.4289834e-06 -9.7023329e-04 0.0000000e+00 
-4.5202587e-06 -6.0103455e-04 0.0000000e+00 
4.6394694e-06 -3.3893768e-04 0.0000000e+00 
1.6196444e-06 -2.1686847e-04 0.0000000e+00 
-9.0100468e-07 -1.4389092e-04 0.0000000e+00 
-5.3930494e-06 -2.5426545e-05 0.0000000e+00 
-3.0205490e-06 1.6067980e-04 0.0000000e+00 
5.4249958e-06 3.5520169e-04 0.0000000e+00 
-2.3147850e-06 4.9174408e-04 0.0000000e+00 
-1.7485388e-06 5.6773715e-04 0.0000000e+00 
-5.8133774e-06 6.0485461e-04 0.0000000e+00 
-4.5829188e-06 6.8111561e-04 0.0000000e+00 
1.5861789e-06 7.5767573e-04 0.0000000e+00 
7.7688474e-06 8.0259837e-04 0.0000000e+00 
4.4556573e-06 7.3920138e-04 0.0000000e+00 
8.2785886e-07 5.7944970e-04 0.0000000e+00 
4.5387860e-06 4.0253607e-04 0.0000000e+00 
-7.8787189e-06 3.1557819e-04 0.0000000e+00 
-8.4061521e-06 3.5234739e-04 0.0000000e+00 
-6.1519431e-06 4.5610752e-04 0.0000000e+00 
6.3425500e-06 5.0799636e-04 0.0000000e+00 
1.2558707e-05 4.2304740e-04 0.0000000e+00 
5.5429718e-06 2.2889645e-04 0.0000000e+00 
1.9941035e-06 8.9223740e-06 0.0000000e+00 
-1.0440620e-05 -1.0756865e-04 0.0000000e+00 
-1.1698835e-05 -6.4593492e-05 0.0000000e+00 
1.0807202e-06 7.6973483e-05 0.0000000e+00 
8.9426667e-06 2.1439148e-04 0.0000000e+00 
8.1463133e-07 2.5397204e-04 0.0000000e+00 
7.9256324e-06 1.2323455e-04 0.0000000e+00 
-2.2821894e-06 -4.5235607e-05 0.0000000e+00 
5.5024856e-07 -1.8770059e-04 0.0000000e+00 
-1.9011139e-06 -1.8907413e-04 0.0000000e+00 
1.0459787e-05 -2.2531857e-03 0.0000000e+00 
-7.8694256e-06 -2.8196964e-03 0.0000000e+00 
-8.4046378e-06 -2.0993389e-03 0.0000000e+00 
-5.3562944e-06 6.0582568e-04 0.0000000e+00 
1.8209535e-05 -2.6740278e-03 0.0000000e+00 
-3.5537048e-06 -2.0073622e-03 0.0000000e+00 
1.7986769e-06 -1.5161367e-03 0.0000000e+00 
8.2901863e-07 -1.0191403e-04 0.0000000e+00 
2.8073910e-06 -9.9085842e-04 0.0000000e+00 
3.5347437e-06 -1.3749556e-04 0.0000000e+00 
3.6382021e-06 7.3011767e-04 0.0000000e+00 
-1.7655150e-06 3.6033610e-04 0.0000000e+00 
8.9531268e-06 2.3832594e-04 0.0000000e+00 
1.8719377e-06 -7.0861111e-05 0.0000000e+00 
-1.6913743e-06 4.6387877e-04 0.0000000e+00 
-5.7839411e-06 -1.4181545e-05 0.0000000e+00 
-8.3254827e-06 -1.9688960e-03 0.0000000e+00 
6.6060942e-08 -4.7892845e-05 0.0000000e+00 
1.3233645e-06 -1.8136190e-04 0.0000000e+00 
2.9802136e-06 1.1624255e-04 0.0000000e+00 
1.0063852e-05 -2.7711990e-03 0.0000000e+00 
-1.6763888e-05 -2.9477694e-03 0.0000000e+00 
1.7293285e-05 -2.9545205e-03 0.0000000e+00 
8.7555554e-06 -1.9881007e-04 0.0000000e+00 
-6.1091532e-06 -8.0528429e-05 0.0000000e+00 
3.8492203e-06 5.7154987e-04 0.0000000e+00 
2.5249180e-06 6.6009804e-04 0.0000000e+00 
-2.8042355e-06 -5.8779691e-04 0.0000000e+00 
-2.5530780e-06 -1.5888739e-03 0.0000000e+00 
1.2582208e-05 -1.8986337e-03 0.0000000e+00 
1.1767010e-05 -2.0049990e-03 0.0000000e+00 
-1.2418803e-05 -2.6866449e-03 0.0000000e+00 
9.0992562e-06 -6.5324632e-05 0.0000000e+00 
-8.9328651e-06 1.4540579e-04 0.0000000e+00 
-1.5507696e-05 -1.7137424e-04 0.0000000e+00 
6.4300662e-06 -5.6181751e-05 0.0000000e+00 
7.9443471e-06 -2.5723791e-03 0.0000000e+00 
-1.9238448e-06 -2.8051906e-03 0.0000000e+00 
3.0507683e-06 2.3676900e-04 0.0000000e+00 
-7.1209356e-06 8.5720618e-05 0.0000000e+00 
-7.1355889e-06 1.0062692e-04 0.0000000e+00 
-4.0543928e-06 7.1395589e-06 0.0000000e+00 
2.7185131e-06 4.3587637e-04 0.0000000e+00 
-1.5153589e-06 5.2041374e-04 0.0000000e+00 
1.1114714e-05 2.1926880e-04 0.0000000e+00 
1.0143974e-05 7.2075181e-07 0.0000000e+00 
-4.0239097e-06 5.0981739e-04 0.0000000e+00 
-9.2735411e-07 4.9997121e-04 0.0000000e+00 
-2.4764004e-06 3.5964578e-04 0.0000000e+00 
-2.9054893e-06 6.1002700e-04 0.0000000e+00 
-5.7555526e-06 -9.4927259e-04 0.0000000e+00 
1.0216148e-05 -2.1645169e-04 0.0000000e+00 
-3.0019734e-07 -1.3798651e-04 0.0000000e+00 
-2.7821613e-06 -2.0830974e-03 0.0000000e+00 
-3.1270883e-06 -2.0000767e-03 0.0000000e+00 
6.0408047e-06 -2.0071303e-03 0.0000000e+00 
1.0023653e-06 -1.5688894e-03 0.0000000e+00 
-9.3209874e-06 -1.5448077e-03 0.0000000e+00 
-3.5609369e-06 -1.3241736e-03 0.0000000e+00 
8.7682829e-06 -1.5333646e-03 0.0000000e+00 
1.6947231e-05 -2.4750296e-03 0.0000000e+00 
2.2272965e-05 -2.4918860e-03 0.0000000e+00 
-1.6291409e-05 -2.2782576e-03 0.0000000e+00 
-6.5888098e-06 -1.9912801e-03 0.0000000e+00 
-1.2775518e-05 -1.8195291e-03 0.0000000e+00 
3.1508910e-06 -2.1020845e-03 0.0000000e+00 
5.9392723e-06 5.9680344e-04 0.0000000e+00 
-1.0142452e-05 7.9329131e-04 0.0000000e+00 
-1.2195071e-05 7.3047413e-04 0.0000000e+00 
5.4906254e-06 3.1787605e-04 0.0000000e+00 
-1.5023366e-05 -1.8294799e-03 0.0000000e+00 
1.2791519e-05 -1.8397565e-03 0.0000000e+00 
4.7985459e-06 -1.2859298e-04 0.0000000e+00 
-2.3047389e-06 -2.0094505e-03 0.0000000e+00 
-3.6852757e-06 9.6955831e-05 0.0000000e+00 
5.7579819e-06 -1.2271258e-04 0.0000000e+00 
5.9172626e-06 7.2492793e-04 0.0000000e+00 
7.8432379e-07 -9.7131944e-04 0.0000000e+00 
6.5611471e-06 3.6048048e-04 0.0000000e+00 
-7.3786882e-06 4.0984701e-04 0.0000000e+00 
-2.2278439e-06 5.5101840e-04 0.0000000e+00 
-2.2304646e-07 3.6282249e-04 0.0000000e+00 
2.4074127e-06 7.4898009e-04 0.0000000e+00 
-3.3821734e-06 -3.4323477e-04 0.0000000e+00 
-5.8754854e-06 -1.5393508e-03 0.0000000e+00 
1.2644041e-06 -1.7143374e-03 0.0000000e+00 
-5.0312328e-06 -1.9800630e-03 0.0000000e+00 
9.7349130e-06 -2.2557133e-03 0.0000000e+00 
1.5213581e-05 -2.4263891e-03 0.0000000e+00 
-1.3161303e-05 -2.4980220e-03 0.0000000e+00 
3.2762994e-06 3.6404503e-04 0.0000000e+00 
-1.5572443e-05 -2.0959140e-03 0.0000000e+00 
-1.4424911e-06 1.7500710e-04 0.0000000e+00 
1.5100281e-05 -2.7608785e-03 0.0000000e+00 
-7.2591429e-06 -3.1084600e-03 0.0000000e+00 
-1.1967148e-05 2.3437166e-04 0.0000000e+00 
-4.5871643e-06 -2.7417697e-03 0.0000000e+00 
-2.8488516e-06 -2.7594438e-03 0.0000000e+00 
3.5526398e-05 -2.9736953e-03 0.0000000e+00 
-1.1204649e-05 1.3889595e-04 0.0000000e+00 
1.9850502e-06 -1.9884282e-03 0.0000000e+00 
-8.7624931e-06 -2.7609719e-03 0.0000000e+00 
-6.4501937e-06 2.0661176e-04 0.0000000e+00 
-2.2892361e-06 -2.5711521e-03 0.0000000e+00 
-1.6637563e-05 -2.4540564e-03 0.0000000e+00 
-1.2488474e-05 -2.4411806e-03 0.0000000e+00 
3.4051429e-06 -1.8047688e-03 0.0000000e+00 
4.1624380e-06 -2.0031481e-05 0.0000000e+00 
6.6868133e-06 -2.0056199e-03 0.0000000e+00 
3.9322308e-06 -2.1017694e-03 0.0000000e+00 
-5.8631399e-06 -2.0048670e-03 0.0000000e+00 
7.5368780e-06 -1.9940000e-03 0.0000000e+00 
-6.3265520e-06 -1.9112290e-03 0.0000000e+00 
9.1471575e-06 -1.5683485e-03 0.0000000e+00 
7.8204139e-06 -9.7443357e-05 0.0000000e+00 
-9.7334614e-06 -1.5575244e-03 0.0000000e+00 
-4.0707337e-06 -1.3343134e-03 0.0000000e+00 
-1.1840106e-06 -6.0104404e-04 0.0000000e+00 
7.1988161e-06 4.9096090e-04 0.0000000e+00 
2.1566768e-06 -2.0352396e-04 0.0000000e+00 
-9.7592567e-07 1.6536111e-04 0.0000000e+00 
1.3664023e-06 5.5711728e-04 0.0000000e+00 
-4.9769192e-06 6.6260580e-04 0.0000000e+00 
8.8181005e-06 7.7977427e-04 0.0000000e+00 
-3.0142653e-06 5.8051391e-04 0.0000000e+00 
-9.0496351e-06 4.2248028e-04 0.0000000e+00 
2.0291227e-06 3.3440086e-04 0.0000000e+00 
5.8069116e-07 4.5781748e-04 0.0000000e+00 
-9.4768520e-06 -4.7559428e-05 0.0000000e+00 
-4.1542271e-06 -1.8095948e-04 0.0000000e+00 
8.0050886e-06 1.2423794e-04 0.0000000e+00 
-1.3789408e-07 -6.2581348e-05 0.0000000e+00 
-5.0540625e-06 2.2478597e-04 0.0000000e+00 
-2.7791411e-06 2.1944981e-04 0.0000000e+00 
1.1644767e-05 1.9415606e-04 0.0000000e+00 
-3.2208225e-06 1.6816684e-04 0.0000000e+00 
6.5935652e-05 -3.0163284e-03 0.0000000e+00 
-6.5034488e-05 -3.0062629e-03 0.0000000e+00 
6.5521119e-05 -3.0094574e-03 0.0000000e+00 
-6.9992609e-05 -3.0350073e-03 0.0000000e+00 
-1.7553393e-05 1.9054706e-04 0.0000000e+00 
-2.7925398e-06 1.8418850e-04 0.0000000e+00 
-4.8456668e-06 1.6369193e-04 0.0000000e+00 
-1.2193131e-04 -2.6238917e-03 0.0000000e+00 
-2.2029874e-06 -2.7366378e-03 0.0000000e+00 
-2.3262508e-05 -2.9172595e-03 0.0000000e+00 
4.2269389e-06 -2.7408795e-03 0.0000000e+00 
4.2359011e-06 -2.7307034e-03 0.0000000e+00 
2.5375895e-05 -2.7847425e-03 0.0000000e+00 
2.4568904e-05 -3.0450297e-03 0.0000000e+00 
1.0471310e-05 -2.6370180e-03 0.0000000e+00 
-5.2755145e-06 -2.8757066e-03 0.0000000e+00 
1.8734912e-05 -2.3800326e-03 0.0000000e+00 
2.1324300e-05 -2.8863996e-03 0.0000000e+00 
-2.9026554e-05 -2.7406996e-03 0.0000000e+00 
-8.7424924e-06 -2.7164568e-03 0.0000000e+00 
-5.6298541e-06 -2.6049309e-03 0.0000000e+00 
-1.3674598e-05 -2.9022242e-03 0.0000000e+00 
-4.3679862e-05 -2.6862868e-03 0.0000000e+00 
5.2391977e-05 -2.8954446e-03 0.0000000e+00 
-6.3453231e-06 -3.1974239e-03 0.0000000e+00 
-2.1947289e-05 -3.0227939e-03 0.0000000e+00 
-1.0411157e-05 -2.4311440e-03 0.0000000e+00 
6.1275086e-06 -2.8086107e-03 0.0000000e+00 
1.3494937e-05 -2.5779270e-03 0.0000000e+00 
-2.7210893e-07 -2.5894288e-03 0.0000000e+00 
-9.0189824e-06 -2.7589917e-03 0.0000000e+00 
2.3028639e-05 -2.9405819e-03 0.0000000e+00 
2.6784415e-05 -3.0059707e-03 0.0000000e+00 
-7.4029493e-05 -2.9304386e-03 0.0000000e+00 
-1.9881278e-05 -2.3211252e-03 0.0000000e+00 
-4.8169932e-05 -2.6797368e-03 0.0000000e+00 
1.1782889e-04 -2.7019617e-03 0.0000000e+00 
1.8005914e-04 -3.0796430e-03 0.0000000e+00 
1.9518750e-06 -2.7722139e-03 0.0000000e+00 
2.3442171e-05 -2.3047174e-03 0.0000000e+00 
2.8073180e-05 -2.3377954e-03 0.0000000e+00 
-6.7227793e-06 -2.7377305e-03 0.0000000e+00 
-2.4309127e-05 -2.6140127e-03 0.0000000e+00 
3.0579824e-06 -2.7726754e-03 0.0000000e+00 
-7.2433504e-06 -2.6747731e-03 0.0000000e+00 
-4.7368808e-06 -2.7218079e-03 0.0000000e+00 
3.3958136e-06 -2.3366872e-03 0.0000000e+00 
1.5757629e-05 -2.9305960e-03 0.0000000e+00 
7.3615051e-06 -3.0600319e-03 0.0000000e+00 
1.0090034e-05 -3.0103913e-03 0.0000000e+00 
-1.4932365e-05 -2.8788873e-03 0.0000000e+00 
-2.2000837e-05 -2.7456689e-03 0.0000000e+00 
2.1570881e-05 -2.9856572e-03 0.0000000e+00 
1.0991276e-05 -2.9534716e-03 0.0000000e+00 
-9.2941964e-06 -2.8256255e-03 0.0000000e+00 
-9.8057135e-06 -2.7735175e-03 0.0000000e+00 
8.4422272e-06 -2.8169055e-03 0.0000000e+00 
2.2874921e-05 -2.9985018e-03 0.0000000e+00 
-1.4591309e-05 -2.7968783e-03 0.0000000e+00 
-3.0874129e-05 -2.5652922e-03 0.0000000e+00 
2.5094481e-05 -2.5893345e-03 0.0000000e+00 
1.9179013e-05 -2.6197887e-03 0.0000000e+00 
-3.1197484e-05 -2.6222027e-03 0.0000000e+00 
-5.3005688e-06 -2.4604734e-03 0.0000000e+00 
1.2752280e-05 -2.5391383e-03 0.0000000e+00 
5.4873299e-06 -2.8832380e-03 0.0000000e+00 
-1.3272357e-05 -2.9710054e-03 0.0000000e+00 