# vtk DataFile Version 4.0
vtk output
ASCII
DATASET UNSTRUCTURED_GRID
POINTS 628 float
0.0000000e+00 0.0000000e+00 0.0000000e+00 
1.0000000e+00 0.0000000e+00 0.0000000e+00 
1.0000000e+00 1.0000000e+01 0.0000000e+00 
0.0000000e+00 1.0000000e+01 0.0000000e+00 
0.0000000e+00 5.0000000e+00 0.0000000e+00 
1.0000000e+00 5.0000000e+00 0.0000000e+00 
1.4285715e-01 0.0000000e+00 0.0000000e+00 
2.8571430e-01 0.0000000e+00 0.0000000e+00 
4.2857143e-01 0.0000000e+00 0.0000000e+00 
5.7142860e-01 0.0000000e+00 0.0000000e+00 
7.1428573e-01 0.0000000e+00 0.0000000e+00 
8.5714287e-01 0.0000000e+00 0.0000000e+00 
8.5714287e-01 1.0000000e+01 0.0000000e+00 
7.1428573e-01 1.0000000e+01 0.0000000e+00 
5.7142860e-01 1.0000000e+01 0.0000000e+00 
4.2857143e-01 1.0000000e+01 0.0000000e+00 
2.8571430e-01 1.0000000e+01 0.0000000e+00 
1.4285715e-01 1.0000000e+01 0.0000000e+00 
1.4285715e-01 5.0000000e+00 0.0000000e+00 
2.8571430e-01 5.0000000e+00 0.0000000e+00 
4.2857143e-01 5.0000000e+00 0.0000000e+00 
5.7142860e-01 5.0000000e+00 0.0000000e+00 
7.1428573e-01 5.0000000e+00 0.0000000e+00 
8.5714287e-01 5.0000000e+00 0.0000000e+00 
0.0000000e+00 4.8529410e+00 0.0000000e+00 
0.0000000e+00 4.7058825e+00 0.0000000e+00 
0.0000000e+00 4.5588236e+00 0.0000000e+00 
0.0000000e+00 4.4117646e+00 0.0000000e+00 
0.0000000e+00 4.2647057e+00 0.0000000e+00 
0.0000000e+00 4.1176472e+00 0.0000000e+00 
0.0000000e+00 3.9705882e+00 0.0000000e+00 
0.0000000e+00 3.8235295e+00 0.0000000e+00 
0.0000000e+00 3.6764705e+00 0.0000000e+00 
0.0000000e+00 3.5294118e+00 0.0000000e+00 
0.0000000e+00 3.3823528e+00 0.0000000e+00 
0.0000000e+00 3.2352941e+00 0.0000000e+00 
0.0000000e+00 3.0882354e+00 0.0000000e+00 
0.0000000e+00 2.9411764e+00 0.0000000e+00 
0.0000000e+00 2.7941177e+00 0.0000000e+00 
0.0000000e+00 2.6470587e+00 0.0000000e+00 
0.0000000e+00 2.5000000e+00 0.0000000e+00 
0.0000000e+00 2.3529413e+00 0.0000000e+00 
0.0000000e+00 2.2058823e+00 0.0000000e+00 
0.0000000e+00 2.0588236e+00 0.0000000e+00 
0.0000000e+00 1.9117647e+00 0.0000000e+00 
0.0000000e+00 1.7647059e+00 0.0000000e+00 
0.0000000e+00 1.6176471e+00 0.0000000e+00 
0.0000000e+00 1.4705882e+00 0.0000000e+00 
0.0000000e+00 1.3235294e+00 0.0000000e+00 
0.0000000e+00 1.1764706e+00 0.0000000e+00 
0.0000000e+00 1.0294118e+00 0.0000000e+00 
0.0000000e+00 8.8235295e-01 0.0000000e+00 
0.0000000e+00 7.3529410e-01 0.0000000e+00 
0.0000000e+00 5.8823532e-01 0.0000000e+00 
0.0000000e+00 4.4117647e-01 0.0000000e+00 
0.0000000e+00 2.9411766e-01 0.0000000e+00 
0.0000000e+00 1.4705883e-01 0.0000000e+00 
1.0000000e+00 1.4705883e-01 0.0000000e+00 
1.0000000e+00 2.9411766e-01 0.0000000e+00 
1.0000000e+00 4.4117647e-01 0.0000000e+00 
1.0000000e+00 5.8823532e-01 0.0000000e+00 
1.0000000e+00 7.3529410e-01 0.0000000e+00 
1.0000000e+00 8.8235295e-01 0.0000000e+00 
1.0000000e+00 1.0294118e+00 0.0000000e+00 
1.0000000e+00 1.1764706e+00 0.0000000e+00 
1.0000000e+00 1.3235294e+00 0.0000000e+00 
1.0000000e+00 1.4705882e+00 0.0000000e+00 
1.0000000e+00 1.6176471e+00 0.0000000e+00 
1.0000000e+00 1.7647059e+00 0.0000000e+00 
1.0000000e+00 1.9117647e+00 0.0000000e+00 
1.0000000e+00 2.0588236e+00 0.0000000e+00 
1.0000000e+00 2.2058823e+00 0.0000000e+00 
1.0000000e+00 2.3529413e+00 0.0000000e+00 
1.0000000e+00 2.5000000e+00 0.0000000e+00 
1.0000000e+00 2.6470587e+00 0.0000000e+00 
1.0000000e+00 2.7941177e+00 0.0000000e+00 
1.0000000e+00 2.9411764e+00 0.0000000e+00 
1.0000000e+00 3.0882354e+00 0.0000000e+00 
1.0000000e+00 3.2352941e+00 0.0000000e+00 
1.0000000e+00 3.3823528e+00 0.0000000e+00 
1.0000000e+00 3.5294118e+00 0.0000000e+00 
1.0000000e+00 3.6764705e+00 0.0000000e+00 
1.0000000e+00 3.8235295e+00 0.0000000e+00 
1.0000000e+00 3.9705882e+00 0.0000000e+00 
1.0000000e+00 4.1176472e+00 0.0000000e+00 
1.0000000e+00 4.2647057e+00 0.0000000e+00 
1.0000000e+00 4.4117646e+00 0.0000000e+00 
1.0000000e+00 4.5588236e+00 0.0000000e+00 
1.0000000e+00 4.7058825e+00 0.0000000e+00 
1.0000000e+00 4.8529410e+00 0.0000000e+00 
0.0000000e+00 9.8529415e+00 0.0000000e+00 
0.0000000e+00 9.7058821e+00 0.0000000e+00 
0.0000000e+00 9.5588236e+00 0.0000000e+00 
0.0000000e+00 9.4117651e+00 0.0000000e+00 
0.0000000e+00 9.2647057e+00 0.0000000e+00 
0.0000000e+00 9.1176472e+00 0.0000000e+00 
0.0000000e+00 8.9705887e+00 0.0000000e+00 
0.0000000e+00 8.8235292e+00 0.0000000e+00 
0.0000000e+00 8.6764708e+00 0.0000000e+00 
0.0000000e+00 8.5294113e+00 0.0000000e+00 
0.0000000e+00 8.3823528e+00 0.0000000e+00 
0.0000000e+00 8.2352943e+00 0.0000000e+00 
0.0000000e+00 8.0882349e+00 0.0000000e+00 
0.0000000e+00 7.9411764e+00 0.0000000e+00 
0.0000000e+00 7.7941175e+00 0.0000000e+00 
0.0000000e+00 7.6470590e+00 0.0000000e+00 
0.0000000e+00 7.5000000e+00 0.0000000e+00 
0.0000000e+00 7.3529410e+00 0.0000000e+00 
0.0000000e+00 7.2058825e+00 0.0000000e+00 
0.0000000e+00 7.0588236e+00 0.0000000e+00 
0.0000000e+00 6.9117646e+00 0.0000000e+00 
0.0000000e+00 6.7647057e+00 0.0000000e+00 
0.0000000e+00 6.6176472e+00 0.0000000e+00 
0.0000000e+00 6.4705882e+00 0.0000000e+00 
0.0000000e+00 6.3235292e+00 0.0000000e+00 
0.0000000e+00 6.1764708e+00 0.0000000e+00 
0.0000000e+00 6.0294118e+00 0.0000000e+00 
0.0000000e+00 5.8823528e+00 0.0000000e+00 
0.0000000e+00 5.7352943e+00 0.0000000e+00 
0.0000000e+00 5.5882354e+00 0.0000000e+00 
0.0000000e+00 5.4411764e+00 0.0000000e+00 
0.0000000e+00 5.2941175e+00 0.0000000e+00 
0.0000000e+00 5.1470590e+00 0.0000000e+00 
1.0000000e+00 5.1470590e+00 0.0000000e+00 
1.0000000e+00 5.2941175e+00 0.0000000e+00 
1.0000000e+00 5.4411764e+00 0.0000000e+00 
1.0000000e+00 5.5882354e+00 0.0000000e+00 
1.0000000e+00 5.7352943e+00 0.0000000e+00 
1.0000000e+00 5.8823528e+00 0.0000000e+00 
1.0000000e+00 6.0294118e+00 0.0000000e+00 
1.0000000e+00 6.1764708e+00 0.0000000e+00 
1.0000000e+00 6.3235292e+00 0.0000000e+00 
1.0000000e+00 6.4705882e+00 0.0000000e+00 
1.0000000e+00 6.6176472e+00 0.0000000e+00 
1.0000000e+00 6.7647057e+00 0.0000000e+00 
1.0000000e+00 6.9117646e+00 0.0000000e+00 
1.0000000e+00 7.0588236e+00 0.0000000e+00 
1.0000000e+00 7.2058825e+00 0.0000000e+00 
1.0000000e+00 7.3529410e+00 0.0000000e+00 
1.0000000e+00 7.5000000e+00 0.0000000e+00 
1.0000000e+00 7.6470590e+00 0.0000000e+00 
1.0000000e+00 7.7941175e+00 0.0000000e+00 
1.0000000e+00 7.9411764e+00 0.0000000e+00 
1.0000000e+00 8.0882349e+00 0.0000000e+00 
1.0000000e+00 8.2352943e+00 0.0000000e+00 
1.0000000e+00 8.3823528e+00 0.0000000e+00 
1.0000000e+00 8.5294113e+00 0.0000000e+00 
1.0000000e+00 8.6764708e+00 0.0000000e+00 
1.0000000e+00 8.8235292e+00 0.0000000e+00 
1.0000000e+00 8.9705887e+00 0.0000000e+00 
1.0000000e+00 9.1176472e+00 0.0000000e+00 
1.0000000e+00 9.2647057e+00 0.0000000e+00 
1.0000000e+00 9.4117651e+00 0.0000000e+00 
1.0000000e+00 9.5588236e+00 0.0000000e+00 
1.0000000e+00 9.7058821e+00 0.0000000e+00 
1.0000000e+00 9.8529415e+00 0.0000000e+00 
5.0212586e-01 4.8703580e+00 0.0000000e+00 
5.1041055e-01 1.3732977e-01 0.0000000e+00 
1.3055173e-01 6.6499180e-01 0.0000000e+00 
8.7327349e-01 4.3372407e+00 0.0000000e+00 
8.7331611e-01 3.8958969e+00 0.0000000e+00 
8.7347627e-01 3.4562511e+00 0.0000000e+00 
8.7357801e-01 2.8680170e+00 0.0000000e+00 
1.2843554e-01 2.1327813e+00 0.0000000e+00 
1.2975387e-01 1.5449892e+00 0.0000000e+00 
1.3308091e-01 1.1039938e+00 0.0000000e+00 
1.2937543e-01 2.5737903e+00 0.0000000e+00 
1.2735668e-01 3.1617646e+00 0.0000000e+00 
8.7375563e-01 1.8386052e+00 0.0000000e+00 
8.7355548e-01 2.2778318e+00 0.0000000e+00 
1.2753446e-01 4.1915216e+00 0.0000000e+00 
8.7915283e-01 8.0759794e-01 0.0000000e+00 
8.8115031e-01 1.2498868e+00 0.0000000e+00 
1.2781374e-01 3.7501886e+00 0.0000000e+00 
8.7352717e-01 3.1621344e+00 0.0000000e+00 
1.2961270e-01 1.8389882e+00 0.0000000e+00 
1.2731366e-01 4.4857054e+00 0.0000000e+00 
1.2885660e-01 2.8684020e+00 0.0000000e+00 
8.7380636e-01 1.5444875e+00 0.0000000e+00 
8.7362880e-01 2.5738993e+00 0.0000000e+00 
1.2735668e-01 3.4558823e+00 0.0000000e+00 
8.7264335e-01 5.1470590e-01 0.0000000e+00 
8.7611687e-01 4.6317782e+00 0.0000000e+00 
1.3446054e-01 3.7013325e-01 0.0000000e+00 
1.2296320e-01 4.7760825e+00 0.0000000e+00 
8.8210768e-01 2.2118840e-01 0.0000000e+00 
2.1798968e-01 1.0548568e-01 0.0000000e+00 
7.7656764e-01 4.8704844e+00 0.0000000e+00 
1.2667844e-01 4.6331582e+00 0.0000000e+00 
2.5353336e-01 4.5619426e+00 0.0000000e+00 
2.5451174e-01 4.4132285e+00 0.0000000e+00 
3.8040194e-01 4.4881525e+00 0.0000000e+00 
3.8161713e-01 4.3403850e+00 0.0000000e+00 
5.0654775e-01 4.4141955e+00 0.0000000e+00 
5.0629890e-01 4.2659345e+00 0.0000000e+00 
5.0658631e-01 4.5616083e+00 0.0000000e+00 
3.8184282e-01 4.1932206e+00 0.0000000e+00 
5.0831819e-01 4.1188259e+00 0.0000000e+00 
3.8249290e-01 4.0462651e+00 0.0000000e+00 
5.0818664e-01 3.9732957e+00 0.0000000e+00 
3.8265404e-01 3.8991868e+00 0.0000000e+00 
5.0769192e-01 3.8249388e+00 0.0000000e+00 
3.8307732e-01 3.7517705e+00 0.0000000e+00 
5.0990808e-01 3.6776419e+00 0.0000000e+00 
3.8416636e-01 3.6049941e+00 0.0000000e+00 
5.1177651e-01 3.5322094e+00 0.0000000e+00 
3.8460994e-01 3.4584429e+00 0.0000000e+00 
5.1256055e-01 3.3855147e+00 0.0000000e+00 
3.8520575e-01 3.3115354e+00 0.0000000e+00 
5.1318693e-01 3.2385471e+00 0.0000000e+00 
3.8561273e-01 3.1645203e+00 0.0000000e+00 
5.1375473e-01 3.0915136e+00 0.0000000e+00 
3.8616878e-01 3.0174749e+00 0.0000000e+00 
5.1433694e-01 2.9444630e+00 0.0000000e+00 
3.8656160e-01 2.8704205e+00 0.0000000e+00 
5.1489413e-01 2.7974076e+00 0.0000000e+00 
3.8711417e-01 2.7233641e+00 0.0000000e+00 
5.1547360e-01 2.6503508e+00 0.0000000e+00 
3.8750717e-01 2.5763063e+00 0.0000000e+00 
5.1603019e-01 2.5032935e+00 0.0000000e+00 
3.8805979e-01 2.4292488e+00 0.0000000e+00 
5.1422137e-01 2.3562264e+00 0.0000000e+00 
3.8765049e-01 2.2821872e+00 0.0000000e+00 
5.1307547e-01 2.2071202e+00 0.0000000e+00 
3.8778570e-01 2.1347876e+00 0.0000000e+00 
5.1568961e-01 2.0596735e+00 0.0000000e+00 
3.9013749e-01 1.9876142e+00 0.0000000e+00 
5.1808232e-01 1.9145784e+00 0.0000000e+00 
3.8994926e-01 1.8408588e+00 0.0000000e+00 
5.1884413e-01 1.7678982e+00 0.0000000e+00 
[...]
POINT_DATA 628
FIELD FieldData 2
VELOCITY 3 628  float
0.0000000e+00 0.0000000e+00 0.0000000e+00 
0.0000000e+00 0.0000000e+00 0.0000000e+00 
0.0000000e+00 -3.1194948e-03 0.0000000e+00 
0.0000000e+00 -3.4889237e-03 0.0000000e+00 
0.0000000e+00 -2.4382207e-03 0.0000000e+00 
0.0000000e+00 -2.3897521e-03 0.0000000e+00 
0.0000000e+00 0.0000000e+00 0.0000000e+00 
0.0000000e+00 0.0000000e+00 0.0000000e+00 
0.0000000e+00 0.0000000e+00 0.0000000e+00 
0.0000000e+00 0.0000000e+00 0.0000000e+00 
0.0000000e+00 0.0000000e+00 0.0000000e+00 
0.0000000e+00 0.0000000e+00 0.0000000e+00 
-4.1355452e-05 -3.3873741e-03 0.0000000e+00 
-1.2531919e-05 -3.2632193e-03 0.0000000e+00 
3.9364277e-05 -3.2363778e-03 0.0000000e+00 
1.1918404e-04 -2.9220614e-03 0.0000000e+00 
-2.4663686e-04 -2.7266210e-03 0.0000000e+00 
9.3320530e-05 -3.4488682e-03 0.0000000e+00 
-2.3601075e-05 -2.3856680e-03 0.0000000e+00 
-2.3720063e-06 -2.4076637e-03 0.0000000e+00 
9.1419743e-06 -2.4119883e-03 0.0000000e+00 
-2.1378557e-06 -2.3991074e-03 0.0000000e+00 
-8.6970522e-06 -2.3977966e-03 0.0000000e+00 
7.5780458e-06 -2.3588215e-03 0.0000000e+00 
0.0000000e+00 -2.3831271e-03 0.0000000e+00 
0.0000000e+00 -2.3440202e-03 0.0000000e+00 
0.0000000e+00 -2.5065655e-03 0.0000000e+00 
0.0000000e+00 -3.0318187e-03 0.0000000e+00 
0.0000000e+00 -2.9475929e-03 0.0000000e+00 
0.0000000e+00 -2.9917578e-03 0.0000000e+00 
0.0000000e+00 -3.1410968e-03 0.0000000e+00 
0.0000000e+00 -3.0616554e-03 0.0000000e+00 
0.0000000e+00 -3.2687075e-03 0.0000000e+00 
0.0000000e+00 -3.2273433e-03 0.0000000e+00 
0.0000000e+00 -2.6972683e-03 0.0000000e+00 
0.0000000e+00 -2.5478965e-03 0.0000000e+00 
0.0000000e+00 -2.5380298e-03 0.0000000e+00 
0.0000000e+00 -2.3385468e-03 0.0000000e+00 
0.0000000e+00 -2.3749517e-03 0.0000000e+00 
0.0000000e+00 -2.3354655e-03 0.0000000e+00 
0.0000000e+00 -2.1167772e-03 0.0000000e+00 
0.0000000e+00 -2.3784488e-03 0.0000000e+00 
0.0000000e+00 -2.8838774e-03 0.0000000e+00 
0.0000000e+00 -2.8767567e-03 0.0000000e+00 
0.0000000e+00 -2.7818503e-03 0.0000000e+00 
0.0000000e+00 -3.1182694e-03 0.0000000e+00 
0.0000000e+00 -3.3873229e-03 0.0000000e+00 
0.0000000e+00 -3.2978589e-03 0.0000000e+00 
0.0000000e+00 -3.1800217e-03 0.0000000e+00 
0.0000000e+00 -3.1072516e-03 0.0000000e+00 
0.0000000e+00 -2.8937042e-03 0.0000000e+00 
0.0000000e+00 -2.6285823e-03 0.0000000e+00 
0.0000000e+00 -2.3728258e-03 0.0000000e+00 
0.0000000e+00 -1.9271538e-03 0.0000000e+00 
0.0000000e+00 -1.3721106e-03 0.0000000e+00 
0.0000000e+00 -9.9056796e-04 0.0000000e+00 
0.0000000e+00 -6.2191521e-04 0.0000000e+00 
0.0000000e+00 -6.1105908e-04 0.0000000e+00 
0.0000000e+00 -1.0066233e-03 0.0000000e+00 
0.0000000e+00 -1.3806812e-03 0.0000000e+00 
0.0000000e+00 -1.9078491e-03 0.0000000e+00 
0.0000000e+00 -2.3629593e-03 0.0000000e+00 
0.0000000e+00 -2.6344042e-03 0.0000000e+00 
0.0000000e+00 -2.8897598e-03 0.0000000e+00 
0.0000000e+00 -3.0953782e-03 0.0000000e+00 
0.0000000e+00 -3.1811693e-03 0.0000000e+00 
0.0000000e+00 -3.3035818e-03 0.0000000e+00 
0.0000000e+00 -3.3789640e-03 0.0000000e+00 
0.0000000e+00 -3.1122877e-03 0.0000000e+00 
0.0000000e+00 -2.7991410e-03 0.0000000e+00 
0.0000000e+00 -2.8891896e-03 0.0000000e+00 
0.0000000e+00 -2.8698377e-03 0.0000000e+00 
0.0000000e+00 -2.3730439e-03 0.0000000e+00 
0.0000000e+00 -2.1441050e-03 0.0000000e+00 
0.0000000e+00 -2.3415091e-03 0.0000000e+00 
0.0000000e+00 -2.3500281e-03 0.0000000e+00 
0.0000000e+00 -2.3462118e-03 0.0000000e+00 
0.0000000e+00 -2.5493009e-03 0.0000000e+00 
0.0000000e+00 -2.5306377e-03 0.0000000e+00 
0.0000000e+00 -2.7005232e-03 0.0000000e+00 
0.0000000e+00 -3.2519880e-03 0.0000000e+00 
0.0000000e+00 -3.2562427e-03 0.0000000e+00 
0.0000000e+00 -3.0590675e-03 0.0000000e+00 
0.0000000e+00 -3.1683848e-03 0.0000000e+00 
0.0000000e+00 -2.9748548e-03 0.0000000e+00 
0.0000000e+00 -2.9538432e-03 0.0000000e+00 
0.0000000e+00 -3.0305877e-03 0.0000000e+00 
0.0000000e+00 -2.4551728e-03 0.0000000e+00 
0.0000000e+00 -2.3395240e-03 0.0000000e+00 
0.0000000e+00 -2.4140172e-03 0.0000000e+00 
0.0000000e+00 -2.9038102e-03 0.0000000e+00 
0.0000000e+00 -2.7773427e-03 0.0000000e+00 
0.0000000e+00 -2.7006532e-03 0.0000000e+00 
0.0000000e+00 -2.4180447e-03 0.0000000e+00 
0.0000000e+00 -2.6550253e-03 0.0000000e+00 
0.0000000e+00 -2.8349464e-03 0.0000000e+00 
0.0000000e+00 -2.8497179e-03 0.0000000e+00 
0.0000000e+00 -3.1247151e-03 0.0000000e+00 
0.0000000e+00 -2.9592798e-03 0.0000000e+00 
0.0000000e+00 -2.7783851e-03 0.0000000e+00 
0.0000000e+00 -2.7665740e-03 0.0000000e+00 
0.0000000e+00 -2.6661982e-03 0.0000000e+00 
0.0000000e+00 -2.7940553e-03 0.0000000e+00 
0.0000000e+00 -2.6043507e-03 0.0000000e+00 
0.0000000e+00 -2.8172391e-03 0.0000000e+00 
0.0000000e+00 -2.6307923e-03 0.0000000e+00 
0.0000000e+00 -2.8921936e-03 0.0000000e+00 
0.0000000e+00 -2.7993959e-03 0.0000000e+00 
0.0000000e+00 -3.1082497e-03 0.0000000e+00 
0.0000000e+00 -3.0201839e-03 0.0000000e+00 
0.0000000e+00 -3.0668245e-03 0.0000000e+00 
0.0000000e+00 -2.6730453e-03 0.0000000e+00 
0.0000000e+00 -2.4468699e-03 0.0000000e+00 
0.0000000e+00 -2.3257332e-03 0.0000000e+00 
0.0000000e+00 -2.5117940e-03 0.0000000e+00 
0.0000000e+00 -2.8929058e-03 0.0000000e+00 
0.0000000e+00 -3.0034909e-03 0.0000000e+00 
0.0000000e+00 -3.2247570e-03 0.0000000e+00 
0.0000000e+00 -2.8450193e-03 0.0000000e+00 
0.0000000e+00 -2.9906447e-03 0.0000000e+00 
0.0000000e+00 -2.8969510e-03 0.0000000e+00 
0.0000000e+00 -2.9017790e-03 0.0000000e+00 
0.0000000e+00 -2.9265443e-03 0.0000000e+00 
0.0000000e+00 -2.9671299e-03 0.0000000e+00 
0.0000000e+00 -2.8650546e-03 0.0000000e+00 
0.0000000e+00 -2.8667550e-03 0.0000000e+00 
0.0000000e+00 -3.0566270e-03 0.0000000e+00 
0.0000000e+00 -2.8156959e-03 0.0000000e+00 
0.0000000e+00 -3.2269196e-03 0.0000000e+00 
0.0000000e+00 -2.9573916e-03 0.0000000e+00 
0.0000000e+00 -2.9276113e-03 0.0000000e+00 
0.0000000e+00 -2.5246351e-03 0.0000000e+00 
0.0000000e+00 -2.2985614e-03 0.0000000e+00 
0.0000000e+00 -2.4872241e-03 0.0000000e+00 
0.0000000e+00 -2.5828518e-03 0.0000000e+00 
0.0000000e+00 -3.1439234e-03 0.0000000e+00 
0.0000000e+00 -2.9577294e-03 0.0000000e+00 
0.0000000e+00 -3.1781371e-03 0.0000000e+00 
0.0000000e+00 -2.7759559e-03 0.0000000e+00 
0.0000000e+00 -2.9467810e-03 0.0000000e+00 
0.0000000e+00 -2.5489747e-03 0.0000000e+00 
0.0000000e+00 -2.8326383e-03 0.0000000e+00 
0.0000000e+00 -2.6087014e-03 0.0000000e+00 
0.0000000e+00 -2.8577263e-03 0.0000000e+00 
0.0000000e+00 -2.5249345e-03 0.0000000e+00 
0.0000000e+00 -2.8721124e-03 0.0000000e+00 
0.0000000e+00 -2.7615661e-03 0.0000000e+00 
0.0000000e+00 -2.9711600e-03 0.0000000e+00 
0.0000000e+00 -3.0881714e-03 0.0000000e+00 
0.0000000e+00 -2.8672935e-03 0.0000000e+00 
0.0000000e+00 -2.8217398e-03 0.0000000e+00 
0.0000000e+00 -2.5976934e-03 0.0000000e+00 
0.0000000e+00 -2.5302700e-03 0.0000000e+00 
0.0000000e+00 -2.5979930e-03 0.0000000e+00 
0.0000000e+00 -2.7920355e-03 0.0000000e+00 
0.0000000e+00 -2.9947346e-03 0.0000000e+00 
8.5074907e-06 -2.3948578e-03 0.0000000e+00 
1.9098723e-06 -5.8200635e-04 0.0000000e+00 
-1.1328891e-05 -2.1848723e-03 0.0000000e+00 
-6.1531314e-06 -3.0345977e-03 0.0000000e+00 
7.5736298e-06 -3.1132242e-03 0.0000000e+00 
-4.5283014e-06 -2.9801617e-03 0.0000000e+00 
4.6798941e-06 -2.3170332e-03 0.0000000e+00 
1.5167626e-06 -2.9491666e-03 0.0000000e+00 
-2.7864503e-06 -3.3642084e-03 0.0000000e+00 
1.7338641e-07 -3.0205105e-03 0.0000000e+00 
-2.8040859e-06 -2.2117058e-03 0.0000000e+00 
-6.5555969e-06 -2.5738275e-03 0.0000000e+00 
5.6627209e-06 -2.9084517e-03 0.0000000e+00 
4.4377575e-07 -2.6522540e-03 0.0000000e+00 
-1.3685998e-05 -2.8781553e-03 0.0000000e+00 
7.3962992e-06 -2.5144389e-03 0.0000000e+00 
-1.1149445e-05 -3.1431345e-03 0.0000000e+00 
4.3010705e-06 -3.1488126e-03 0.0000000e+00 
-4.8535105e-07 -2.5648775e-03 0.0000000e+00 
-5.6161998e-06 -2.9066871e-03 0.0000000e+00 
-1.0015620e-05 -2.7968849e-03 0.0000000e+00 
-1.3921879e-06 -2.3301672e-03 0.0000000e+00 
5.5395853e-06 -3.3649965e-03 0.0000000e+00 
3.9194056e-06 -2.2403134e-03 0.0000000e+00 
3.2516696e-06 -2.9590116e-03 0.0000000e+00 
-2.1588269e-06 -1.6340500e-03 0.0000000e+00 
5.9139217e-07 -2.3687857e-03 0.0000000e+00 
4.8145143e-06 -1.1664409e-03 0.0000000e+00 
-1.6480088e-05 -2.4251724e-03 0.0000000e+00 
-9.7233515e-06 -8.3432248e-04 0.0000000e+00 
-2.9944698e-07 -4.7351400e-04 0.0000000e+00 
-1.0419533e-05 -2.4034437e-03 0.0000000e+00 
2.6867250e-05 -2.3740409e-03 0.0000000e+00 
1.5202248e-05 -2.5137179e-03 0.0000000e+00 
-6.6049934e-06 -2.9998911e-03 0.0000000e+00 
-2.0696098e-05 -2.7760537e-03 0.0000000e+00 
1.6204893e-05 -3.0168907e-03 0.0000000e+00 
-8.0114423e-06 -3.0043020e-03 0.0000000e+00 
1.2637905e-05 -2.9411288e-03 0.0000000e+00 
6.8646650e-06 -2.5231198e-03 0.0000000e+00 
-7.8122457e-06 -2.9021171e-03 0.0000000e+00 
-7.7068062e-06 -2.9801193e-03 0.0000000e+00 
1.4386203e-05 -3.1101794e-03 0.0000000e+00 
8.4135336e-06 -3.1774943e-03 0.0000000e+00 
-1.0469678e-05 -3.0980995e-03 0.0000000e+00 
-6.0739130e-06 -3.0609479e-03 0.0000000e+00 
3.4915720e-06 -3.1247854e-03 0.0000000e+00 
1.8463503e-06 -3.2755909e-03 0.0000000e+00 
-3.7110376e-06 -3.3565420e-03 0.0000000e+00 
-8.4237472e-06 -3.2453150e-03 0.0000000e+00 
-3.4280006e-06 -2.9855613e-03 0.0000000e+00 
1.3182153e-05 -2.6954159e-03 0.0000000e+00 
7.5194921e-06 -2.5545123e-03 0.0000000e+00 
2.7333197e-06 -2.5256076e-03 0.0000000e+00 
-1.1800897e-05 -2.5620554e-03 0.0000000e+00 
-2.3876189e-06 -2.5403185e-03 0.0000000e+00 
6.8497211e-06 -2.4401741e-03 0.0000000e+00 
1.2335738e-06 -2.3504749e-03 0.0000000e+00 
-4.3834007e-06 -2.3170209e-03 0.0000000e+00 
-5.1361781e-06 -2.3575800e-03 0.0000000e+00 
-8.4579841e-07 -2.3971191e-03 0.0000000e+00 
-3.7132568e-06 -2.3457115e-03 0.0000000e+00 
-6.1351138e-06 -2.2289932e-03 0.0000000e+00 
-2.2518914e-06 -2.1343436e-03 0.0000000e+00 
9.6088716e-06 -2.1807337e-03 0.0000000e+00 
1.1728213e-05 -2.3745841e-03 0.0000000e+00 
7.0803412e-07 -2.6551981e-03 0.0000000e+00 
-3.6336780e-06 -2.8692021e-03 0.0000000e+00 
-3.3655342e-06 -2.9413642e-03 0.0000000e+00 
-5.1052680e-06 -2.8838706e-03 0.0000000e+00 
2.8872189e-06 -2.7931854e-03 0.0000000e+00 
3.2661353e-06 -2.7887959e-03 0.0000000e+00 
-1.3692838e-06 -2.8994842e-03 0.0000000e+00 
4.9539159e-07 -3.0993484e-03 0.0000000e+00 
3.4614102e-06 -3.2833125e-03 0.0000000e+00 
2.3478688e-06 -3.3836206e-03 0.0000000e+00 
-3.3775250e-06 -3.3621937e-03 0.0000000e+00 
-2.9819601e-06 -3.2953981e-03 0.0000000e+00 
5.1039433e-07 -3.2174687e-03 0.0000000e+00 
5.9965186e-07 -3.1786435e-03 0.0000000e+00 
3.4320992e-06 -3.1547295e-03 0.0000000e+00 
5.4269690e-06 -3.1120924e-03 0.0000000e+00 
-5.5203291e-06 -3.0228407e-03 0.0000000e+00 
-4.2557558e-06 -2.9003150e-03 0.0000000e+00 
-2.7427675e-06 -2.7697610e-03 0.0000000e+00 
-4.0946093e-06 -2.6374450e-03 0.0000000e+00 
2.7286119e-06 -2.5294328e-03 0.0000000e+00 
5.4265361e-06 -2.3698052e-03 0.0000000e+00 
6.9826792e-06 -2.1825926e-03 0.0000000e+00 
1.0776761e-06 -1.9290281e-03 0.0000000e+00 
1.4438609e-06 -1.6489043e-03 0.0000000e+00 
-3.7365967e-06 -1.3961635e-03 0.0000000e+00 
-2.7936001e-06 -1.1752453e-03 0.0000000e+00 
-1.6084838e-05 -3.1027328e-03 0.0000000e+00 
4.3902728e-06 -2.7984835e-03 0.0000000e+00 
-3.7959484e-07 -3.3505454e-03 0.0000000e+00 
7.5960827e-07 -2.8002379e-03 0.0000000e+00 
1.1005371e-05 -2.3265607e-03 0.0000000e+00 
1.0645268e-05 -2.5528015e-03 0.0000000e+00 
1.6578717e-06 -2.4589533e-03 0.0000000e+00 
-4.5779203e-07 -2.7777501e-03 0.0000000e+00 
3.1920447e-07 -2.3859127e-03 0.0000000e+00 
-7.7225923e-07 -2.1731472e-03 0.0000000e+00 
-4.3058217e-06 -3.2766699e-03 0.0000000e+00 
-2.7127201e-06 -3.2140755e-03 0.0000000e+00 
-4.9730825e-06 -2.1770392e-03 0.0000000e+00 
6.0072716e-06 -2.6529643e-03 0.0000000e+00 
6.6217644e-06 -3.1720940e-03 0.0000000e+00 
4.5596221e-06 -2.3842836e-03 0.0000000e+00 
1.0914235e-05 -3.1568198e-03 0.0000000e+00 
1.0905863e-05 -9.9874777e-04 0.0000000e+00 
5.5010182e-06 -1.1809546e-03 0.0000000e+00 
1.8252865e-06 -8.4282737e-04 0.0000000e+00 
-1.3942106e-05 -2.3775965e-03 0.0000000e+00 
-1.6522676e-05 -2.4447073e-03 0.0000000e+00 
2.7758140e-06 -2.4264934e-03 0.0000000e+00 
3.5003804e-06 -1.3796116e-03 0.0000000e+00 
-3.4632869e-06 -1.0284415e-03 0.0000000e+00 
-2.0781076e-07 -3.3710063e-03 0.0000000e+00 
-4.2642810e-06 -2.7795727e-03 0.0000000e+00 
-1.1786815e-06 -2.3454423e-03 0.0000000e+00 
9.0676605e-07 -2.3456141e-03 0.0000000e+00 
-1.7472057e-05 -2.5392487e-03 0.0000000e+00 
-1.2203296e-05 -3.2299142e-03 0.0000000e+00 
-5.7382465e-07 -2.3405026e-03 0.0000000e+00 
4.1904959e-06 -1.6454165e-03 0.0000000e+00 
3.1652971e-07 -1.9238079e-03 0.0000000e+00 
1.7685381e-06 -1.1742371e-03 0.0000000e+00 
-7.2375765e-06 -1.6545852e-03 0.0000000e+00 
6.6147663e-06 -3.0126593e-03 0.0000000e+00 
5.8915434e-06 -2.8003624e-03 0.0000000e+00 
-5.8535452e-06 -2.1638642e-03 0.0000000e+00 
1.3246299e-06 -2.5170904e-03 0.0000000e+00 
8.8332263e-06 -8.6203922e-04 0.0000000e+00 
1.8425999e-06 -2.9023504e-03 0.0000000e+00 
-4.0822438e-06 -3.1061943e-03 0.0000000e+00 
1.8306613e-06 -3.1491560e-03 0.0000000e+00 
4.7605308e-06 -3.0307302e-03 0.0000000e+00 
3.3971144e-06 -2.9121749e-03 0.0000000e+00 
-2.5965308e-08 -3.1470233e-03 0.0000000e+00 
-6.1247861e-06 -2.9449705e-03 0.0000000e+00 
-2.4682022e-06 -2.8734053e-03 0.0000000e+00 
6.0605589e-06 -2.8009210e-03 0.0000000e+00 
3.8263001e-06 -2.4020148e-03 0.0000000e+00 
8.0424707e-07 -2.1304770e-03 0.0000000e+00 
2.9991756e-06 -2.1700070e-03 0.0000000e+00 
-7.6931274e-06 -3.3368480e-03 0.0000000e+00 
9.2298897e-06 -2.6993263e-03 0.0000000e+00 
-3.0767462e-06 -2.5450452e-03 0.0000000e+00 
9.1907145e-07 -2.5429139e-03 0.0000000e+00 
3.5894543e-06 -2.4383354e-03 0.0000000e+00 
2.3179171e-06 -2.3702749e-03 0.0000000e+00 
3.4489625e-07 -2.4500107e-03 0.0000000e+00 
-4.7066760e-06 -2.8654200e-03 0.0000000e+00 
-3.8133562e-06 -2.9443074e-03 0.0000000e+00 
3.3525900e-08 -3.1045247e-03 0.0000000e+00 
2.6797345e-06 -3.1163462e-03 0.0000000e+00 
1.1636806e-05 -3.0725182e-03 0.0000000e+00 
-1.8396865e-07 -3.3395258e-03 0.0000000e+00 
-1.9593402e-07 -2.7852857e-03 0.0000000e+00 
-1.9272304e-07 -3.0987912e-03 0.0000000e+00 
1.5787433e-06 -3.2922898e-03 0.0000000e+00 
-1.7954567e-06 -3.2832555e-03 0.0000000e+00 
3.0639430e-06 -3.1043249e-03 0.0000000e+00 
-7.4292429e-06 -3.0715342e-03 0.0000000e+00 
-6.2492558e-07 -2.1829933e-03 0.0000000e+00 
3.2044818e-06 -2.5349692e-03 0.0000000e+00 
-4.1960270e-06 -2.5174816e-03 0.0000000e+00 
9.6119484e-06 -2.7628050e-03 0.0000000e+00 
-8.6776145e-06 -3.2802855e-03 0.0000000e+00 
-1.4252033e-06 -2.3901307e-03 0.0000000e+00 
1.8627810e-06 -3.2234536e-03 0.0000000e+00 
5.3167932e-06 -3.3676007e-03 0.0000000e+00 
5.2964374e-06 -2.8828222e-03 0.0000000e+00 
-6.4540213e-06 -2.8802350e-03 0.0000000e+00 
4.6301720e-06 -2.8940665e-03 0.0000000e+00 
-2.8258335e-06 -2.2284978e-03 0.0000000e+00 
2.7507197e-06 -2.3167005e-03 0.0000000e+00 
-2.5919826e-06 -2.5710822e-03 0.0000000e+00 
2.0268985e-07 -2.9881003e-03 0.0000000e+00 
2.4649091e-06 -3.1062555e-03 0.0000000e+00 
-1.9574634e-05 -2.9973807e-03 0.0000000e+00 
9.5783535e-06 -2.9386641e-03 0.0000000e+00 
3.5687995e-06 -3.2184818e-03 0.0000000e+00 
1.2914593e-05 -3.2773542e-03 0.0000000e+00 
-3.6339941e-06 -2.6658445e-03 0.0000000e+00 
-9.5752785e-06 -2.3659843e-03 0.0000000e+00 
2.1686633e-06 -2.4048216e-03 0.0000000e+00 
-5.8341261e-06 -2.3842724e-03 0.0000000e+00 
2.4728739e-05 -2.3485569e-03 0.0000000e+00 
-3.1401844e-06 -3.0216419e-03 0.0000000e+00 
5.2440460e-06 -2.4770566e-03 0.0000000e+00 
-7.4579225e-06 -8.3585543e-04 0.0000000e+00 
-1.5168530e-07 -3.1785432e-03 0.0000000e+00 
-1.0612169e-05 -2.4892716e-03 0.0000000e+00 
-9.7975499e-06 -5.4775568e-04 0.0000000e+00 
-3.7467785e-07 -3.0366373e-03 0.0000000e+00 
4.3852410e-06 -2.8889978e-03 0.0000000e+00 
-6.9972810e-07 -2.9896118e-03 0.0000000e+00 
1.4712656e-05 -3.1092814e-03 0.0000000e+00 
1.3234516e-06 -2.3709286e-03 0.0000000e+00 
-5.7516204e-06 -3.1192531e-03 0.0000000e+00 
-6.7936016e-06 -3.2575354e-03 0.0000000e+00 
1.2314726e-07 -3.2492920e-03 0.0000000e+00 
-1.8753872e-06 -2.7066504e-03 0.0000000e+00 
7.2038411e-06 -2.5307343e-03 0.0000000e+00 
-4.0450664e-06 -2.5486844e-03 0.0000000e+00 
6.4948413e-06 -2.7709526e-03 0.0000000e+00 
8.7455783e-06 -2.3523273e-03 0.0000000e+00 
1.5216948e-06 -2.3531998e-03 0.0000000e+00 
2.5529400e-06 -2.3531122e-03 0.0000000e+00 
-1.0184620e-05 -2.9423756e-03 0.0000000e+00 
-3.2760622e-06 -2.1435504e-03 0.0000000e+00 
6.8398690e-06 -2.6504225e-03 0.0000000e+00 
-6.8259583e-06 -2.8922630e-03 0.0000000e+00 
1.2090679e-05 -2.7850072e-03 0.0000000e+00 
-4.8795118e-06 -3.0844007e-03 0.0000000e+00 
-2.3824316e-06 -3.3685351e-03 0.0000000e+00 
-5.2963042e-06 -3.1074570e-03 0.0000000e+00 
8.5652573e-06 -3.2913403e-03 0.0000000e+00 
-7.8487965e-06 -3.1665114e-03 0.0000000e+00 
-2.6628268e-06 -9.9174457e-04 0.0000000e+00 
2.0979314e-06 -1.3770470e-03 0.0000000e+00 
-1.1381791e-05 -1.9161304e-03 0.0000000e+00 
8.3494597e-06 -2.6511396e-03 0.0000000e+00 
-4.2871438e-06 -3.0181485e-03 0.0000000e+00 
-1.1889629e-06 -2.3691813e-03 0.0000000e+00 
2.0201953e-06 -4.6399535e-04 0.0000000e+00 
-2.8905320e-06 -4.2554463e-04 0.0000000e+00 
2.6191060e-06 -2.3600229e-03 0.0000000e+00 
-7.1454256e-06 -2.3599146e-03 0.0000000e+00 
1.7772782e-05 -2.3639130e-03 0.0000000e+00 
-2.0468233e-05 -2.3639912e-03 0.0000000e+00 
2.8237041e-06 -4.4625852e-04 0.0000000e+00 
-6.3049920e-06 -4.5037433e-04 0.0000000e+00 
-1.3336336e-06 -7.6391146e-04 0.0000000e+00 
-6.5787484e-05 -2.9935727e-03 0.0000000e+00 
6.7032820e-06 -2.8370896e-03 0.0000000e+00 
-2.5862485e-06 -2.5689709e-03 0.0000000e+00 
-1.5433046e-05 -2.9215047e-03 0.0000000e+00 
6.7186811e-06 -2.8386584e-03 0.0000000e+00 
-2.1105539e-08 -2.8423048e-03 0.0000000e+00 
4.6807370e-05 -2.7640820e-03 0.0000000e+00 
2.0894106e-05 -2.8748333e-03 0.0000000e+00 
-1.1628296e-05 -2.6547548e-03 0.0000000e+00 
-5.9115114e-06 -2.6887020e-03 0.0000000e+00 
2.7274245e-05 -3.1710411e-03 0.0000000e+00 
-4.5320944e-06 -2.3056821e-03 0.0000000e+00 
-3.2609791e-05 -2.6204130e-03 0.0000000e+00 
7.4607442e-06 -2.6003877e-03 0.0000000e+00 
-1.0002550e-05 -3.0357272e-03 0.0000000e+00 
-6.4127780e-05 -3.0599432e-03 0.0000000e+00 
-6.8808276e-06 -2.6384701e-03 0.0000000e+00 
-2.6111969e-05 -2.8122002e-03 0.0000000e+00 
-2.1812433e-05 -2.7040388e-03 0.0000000e+00 
1.6264696e-05 -2.6827049e-03 0.0000000e+00 
4.6701084e-06 -2.3665382e-03 0.0000000e+00 
-2.4868885e-05 -2.4263547e-03 0.0000000e+00 
5.1305483e-06 -3.0716609e-03 0.0000000e+00 
-1.6922548e-05 -2.8226133e-03 0.0000000e+00 
1.2569649e-05 -2.9435800e-03 0.0000000e+00 
2.3430561e-05 -2.9819133e-03 0.0000000e+00 
3.8350726e-07 -2.6721649e-03 0.0000000e+00 
-1.0472910e-05 -2.8104854e-03 0.0000000e+00 
-6.8046179e-06 -2.9555527e-03 0.0000000e+00 
1.4473924e-04 -3.2400042e-03 0.0000000e+00 
9.1505397e-05 -2.7525055e-03 0.0000000e+00 
-1.1332323e-05 -2.8627783e-03 0.0000000e+00 
2.7003168e-07 -2.7756421e-03 0.0000000e+00 
2.4090235e-05 -2.9093320e-03 0.0000000e+00 
-5.2421778e-06 -3.0436753e-03 0.0000000e+00 
-8.7039443e-06 -3.0381996e-03 0.0000000e+00 
-9.8723622e-06 -2.8808673e-03 0.0000000e+00 
-8.4344092e-06 -3.0251704e-03 0.0000000e+00 
1.1417062e-05 -2.8940479e-03 0.0000000e+00 
2.1512124e-06 -2.9210080e-03 0.0000000e+00 
-2.3396806e-06 -3.0524847e-03 0.0000000e+00 
4.6671253e-06 -3.2234525e-03 0.0000000e+00 
2.1466971e-05 -3.1470843e-03 0.0000000e+00 
-2.1654412e-05 -2.9547147e-03 0.0000000e+00 
-3.3402473e-05 -2.8451141e-03 0.0000000e+00 
1.2758333e-05 -2.8929387e-03 0.0000000e+00 
3.8075381e-05 -2.8647569e-03 0.0000000e+00 
5.2536058e-07 -2.5250635e-03 0.0000000e+00 
-2.6640560e-05 -2.3259569e-03 0.0000000e+00 
7.7040013e-06 -2.3134109e-03 0.0000000e+00 
7.0349552e-06 -2.5085658e-03 0.0000000e+00 
-6.6173316e-06 -2.5038023e-03 0.0000000e+00 
-9.0055273e-06 -2.4179185e-03 0.0000000e+00 
7.6115580e-06 -2.5886493e-03 0.0000000e+00 
2.4578803e-05 -2.8947603e-03 0.0000000e+00 
-1.5936095e-05 -3.0983649e-03 0.0000000e+00 
6.0748489e-06 -2.9984820e-03 0.0000000e+00 
1.4946616e-05 -2.9671884e-03 0.0000000e+00 