# vtk DataFile Version 4.0
vtk output
ASCII
DATASET UNSTRUCTURED_GRID
POINTS 628 float
0.0000000e+00 0.0000000e+00 0.0000000e+00 
1.0000000e+00 0.0000000e+00 0.0000000e+00 
1.0000000e+00 1.0000000e+01 0.0000000e+00 
0.0000000e+00 1.0000000e+01 0.0000000e+00 
0.0000000e+00 5.0000000e+00 0.0000000e+00 
1.0000000e+00 5.0000000e+00 0.0000000e+00 
1.4285715e-01 0.0000000e+00 0.0000000e+00 
2.8571430e-01 0.0000000e+00 0.0000000e+00 
4.2857143e-01 0.0000000e+00 0.0000000e+00 
5.7142860e-01 0.0000000e+00 0.0000000e+00 
7.1428573e-01 0.0000000e+00 0.0000000e+00 
8.5714287e-01 0.0000000e+00 0.0000000e+00 
8.5714287e-01 1.0000000e+01 0.0000000e+00 
7.1428573e-01 1.0000000e+01 0.0000000e+00 
5.7142860e-01 1.0000000e+01 0.0000000e+00 
4.2857143e-01 1.0000000e+01 0.0000000e+00 
2.8571430e-01 1.0000000e+01 0.0000000e+00 
1.4285715e-01 1.0000000e+01 0.0000000e+00 
1.4285715e-01 5.0000000e+00 0.0000000e+00 
2.8571430e-01 5.0000000e+00 0.0000000e+00 
4.2857143e-01 5.0000000e+00 0.0000000e+00 
5.7142860e-01 5.0000000e+00 0.0000000e+00 
7.1428573e-01 5.0000000e+00 0.0000000e+00 
8.5714287e-01 5.0000000e+00 0.0000000e+00 
0.0000000e+00 4.8529410e+00 0.0000000e+00 
0.0000000e+00 4.7058825e+00 0.0000000e+00 
0.0000000e+00 4.5588236e+00 0.0000000e+00 
0.0000000e+00 4.4117646e+00 0.0000000e+00 
0.0000000e+00 4.2647057e+00 0.0000000e+00 
0.0000000e+00 4.1176472e+00 0.0000000e+00 
0.0000000e+00 3.9705882e+00 0.0000000e+00 
0.0000000e+00 3.8235295e+00 0.0000000e+00 
0.0000000e+00 3.6764705e+00 0.0000000e+00 
0.0000000e+00 3.5294118e+00 0.0000000e+00 
0.0000000e+00 3.3823528e+00 0.0000000e+00 
0.0000000e+00 3.2352941e+00 0.0000000e+00 
0.0000000e+00 3.0882354e+00 0.0000000e+00 
0.0000000e+00 2.9411764e+00 0.0000000e+00 
0.0000000e+00 2.7941177e+00 0.0000000e+00 
0.0000000e+00 2.6470587e+00 0.0000000e+00 
0.0000000e+00 2.5000000e+00 0.0000000e+00 
0.0000000e+00 2.3529413e+00 0.0000000e+00 
0.0000000e+00 2.2058823e+00 0.0000000e+00 
0.0000000e+00 2.0588236e+00 0.0000000e+00 
0.0000000e+00 1.9117647e+00 0.0000000e+00 
0.0000000e+00 1.7647059e+00 0.0000000e+00 
0.0000000e+00 1.6176471e+00 0.0000000e+00 
0.0000000e+00 1.4705882e+00 0.0000000e+00 
0.0000000e+00 1.3235294e+00 0.0000000e+00 
0.0000000e+00 1.1764706e+00 0.0000000e+00 
0.0000000e+00 1.0294118e+00 0.0000000e+00 
0.0000000e+00 8.8235295e-01 0.0000000e+00 
0.0000000e+00 7.3529410e-01 0.0000000e+00 
0.0000000e+00 5.8823532e-01 0.0000000e+00 
0.0000000e+00 4.4117647e-01 0.0000000e+00 
0.0000000e+00 2.9411766e-01 0.0000000e+00 
0.0000000e+00 1.4705883e-01 0.0000000e+00 
1.0000000e+00 1.4705883e-01 0.0000000e+00 
1.0000000e+00 2.9411766e-01 0.0000000e+00 
1.0000000e+00 4.4117647e-01 0.0000000e+00 
1.0000000e+00 5.8823532e-01 0.0000000e+00 
1.0000000e+00 7.3529410e-01 0.0000000e+00 
1.0000000e+00 8.8235295e-01 0.0000000e+00 
1.0000000e+00 1.0294118e+00 0.0000000e+00 
1.0000000e+00 1.1764706e+00 0.0000000e+00 
1.0000000e+00 1.3235294e+00 0.0000000e+00 
1.0000000e+00 1.4705882e+00 0.0000000e+00 
1.0000000e+00 1.6176471e+00 0.0000000e+00 
1.0000000e+00 1.7647059e+00 0.0000000e+00 
1.0000000e+00 1.9117647e+00 0.0000000e+00 
1.0000000e+00 2.0588236e+00 0.0000000e+00 
1.0000000e+00 2.2058823e+00 0.0000000e+00 
1.0000000e+00 2.3529413e+00 0.0000000e+00 
1.0000000e+00 2.5000000e+00 0.0000000e+00 
1.0000000e+00 2.6470587e+00 0.0000000e+00 
1.0000000e+00 2.7941177e+00 0.0000000e+00 
1.0000000e+00 2.9411764e+00 0.0000000e+00 
1.0000000e+00 3.0882354e+00 0.0000000e+00 
1.0000000e+00 3.2352941e+00 0.0000000e+00 
1.0000000e+00 3.3823528e+00 0.0000000e+00 
1.0000000e+00 3.5294118e+00 0.0000000e+00 
1.0000000e+00 3.6764705e+00 0.0000000e+00 
1.0000000e+00 3.8235295e+00 0.0000000e+00 
1.0000000e+00 3.9705882e+00 0.0000000e+00 
1.0000000e+00 4.1176472e+00 0.0000000e+00 
1.0000000e+00 4.2647057e+00 0.0000000e+00 
1.0000000e+00 4.4117646e+00 0.0000000e+00 
1.0000000e+00 4.5588236e+00 0.0000000e+00 
1.0000000e+00 4.7058825e+00 0.0000000e+00 
1.0000000e+00 4.8529410e+00 0.0000000e+00 
0.0000000e+00 9.8529415e+00 0.0000000e+00 
0.0000000e+00 9.7058821e+00 0.0000000e+00 
0.0000000e+00 9.5588236e+00 0.0000000e+00 
0.0000000e+00 9.4117651e+00 0.0000000e+00 
0.0000000e+00 9.2647057e+00 0.0000000e+00 
0.0000000e+00 9.1176472e+00 0.0000000e+00 
0.0000000e+00 8.9705887e+00 0.0000000e+00 
0.0000000e+00 8.8235292e+00 0.0000000e+00 
0.0000000e+00 8.6764708e+00 0.0000000e+00 
0.0000000e+00 8.5294113e+00 0.0000000e+00 
0.0000000e+00 8.3823528e+00 0.0000000e+00 
0.0000000e+00 8.2352943e+00 0.0000000e+00 
0.0000000e+00 8.0882349e+00 0.0000000e+00 
0.0000000e+00 7.9411764e+00 0.0000000e+00 
0.0000000e+00 7.7941175e+00 0.0000000e+00 
0.0000000e+00 7.6470590e+00 0.0000000e+00 
0.0000000e+00 7.5000000e+00 0.0000000e+00 
0.0000000e+00 7.3529410e+00 0.0000000e+00 
0.0000000e+00 7.2058825e+00 0.0000000e+00 
0.0000000e+00 7.0588236e+00 0.0000000e+00 
0.0000000e+00 6.9117646e+00 0.0000000e+00 
0.0000000e+00 6.7647057e+00 0.0000000e+00 
0.0000000e+00 6.6176472e+00 0.0000000e+00 
0.0000000e+00 6.4705882e+00 0.0000000e+00 
0.0000000e+00 6.3235292e+00 0.0000000e+00 
0.0000000e+00 6.1764708e+00 0.0000000e+00 
0.0000000e+00 6.0294118e+00 0.0000000e+00 
0.0000000e+00 5.8823528e+00 0.0000000e+00 
0.0000000e+00 5.7352943e+00 0.0000000e+00 
0.0000000e+00 5.5882354e+00 0.0000000e+00 
0.0000000e+00 5.4411764e+00 0.0000000e+00 
0.0000000e+00 5.2941175e+00 0.0000000e+00 
0.0000000e+00 5.1470590e+00 0.0000000e+00 
1.0000000e+00 5.1470590e+00 0.0000000e+00 
1.0000000e+00 5.2941175e+00 0.0000000e+00 
1.0000000e+00 5.4411764e+00 0.0000000e+00 
1.0000000e+00 5.5882354e+00 0.0000000e+00 
1.0000000e+00 5.7352943e+00 0.0000000e+00 
1.0000000e+00 5.8823528e+00 0.0000000e+00 
1.0000000e+00 6.0294118e+00 0.0000000e+00 
1.0000000e+00 6.1764708e+00 0.0000000e+00 
1.0000000e+00 6.3235292e+00 0.0000000e+00 
1.0000000e+00 6.4705882e+00 0.0000000e+00 
1.0000000e+00 6.6176472e+00 0.0000000e+00 
1.0000000e+00 6.7647057e+00 0.0000000e+00 
1.0000000e+00 6.9117646e+00 0.0000000e+00 
1.0000000e+00 7.0588236e+00 0.0000000e+00 
1.0000000e+00 7.2058825e+00 0.0000000e+00 
1.0000000e+00 7.3529410e+00 0.0000000e+00 
1.0000000e+00 7.5000000e+00 0.0000000e+00 
1.0000000e+00 7.6470590e+00 0.0000000e+00 
1.0000000e+00 7.7941175e+00 0.0000000e+00 
1.0000000e+00 7.9411764e+00 0.0000000e+00 
1.0000000e+00 8.0882349e+00 0.0000000e+00 
1.0000000e+00 8.2352943e+00 0.0000000e+00 
1.0000000e+00 8.3823528e+00 0.0000000e+00 
1.0000000e+00 8.5294113e+00 0.0000000e+00 
1.0000000e+00 8.6764708e+00 0.0000000e+00 
1.0000000e+00 8.8235292e+00 0.0000000e+00 
1.0000000e+00 8.9705887e+00 0.0000000e+00 
1.0000000e+00 9.1176472e+00 0.0000000e+00 
1.0000000e+00 9.2647057e+00 0.0000000e+00 
1.0000000e+00 9.4117651e+00 0.0000000e+00 
1.0000000e+00 9.5588236e+00 0.0000000e+00 
1.0000000e+00 9.7058821e+00 0.0000000e+00 
1.0000000e+00 9.8529415e+00 0.0000000e+00 
5.0212586e-01 4.8703580e+00 0.0000000e+00 
5.1041055e-01 1.3732977e-01 0.0000000e+00 
1.3055173e-01 6.6499180e-01 0.0000000e+00 
8.7327349e-01 4.3372407e+00 0.0000000e+00 
8.7331611e-01 3.8958969e+00 0.0000000e+00 
8.7347627e-01 3.4562511e+00 0.0000000e+00 
8.7357801e-01 2.8680170e+00 0.0000000e+00 
1.2843554e-01 2.1327813e+00 0.0000000e+00 
1.2975387e-01 1.5449892e+00 0.0000000e+00 
1.3308091e-01 1.1039938e+00 0.0000000e+00 
1.2937543e-01 2.5737903e+00 0.0000000e+00 
1.2735668e-01 3.1617646e+00 0.0000000e+00 
8.7375563e-01 1.8386052e+00 0.0000000e+00 
8.7355548e-01 2.2778318e+00 0.0000000e+00 
1.2753446e-01 4.1915216e+00 0.0000000e+00 
8.7915283e-01 8.0759794e-01 0.0000000e+00 
8.8115031e-01 1.2498868e+00 0.0000000e+00 
1.2781374e-01 3.7501886e+00 0.0000000e+00 
8.7352717e-01 3.1621344e+00 0.0000000e+00 
1.2961270e-01 1.8389882e+00 0.0000000e+00 
1.2731366e-01 4.4857054e+00 0.0000000e+00 
1.2885660e-01 2.8684020e+00 0.0000000e+00 
8.7380636e-01 1.5444875e+00 0.0000000e+00 
8.7362880e-01 2.5738993e+00 0.0000000e+00 
1.2735668e-01 3.4558823e+00 0.0000000e+00 
8.7264335e-01 5.1470590e-01 0.0000000e+00 
8.7611687e-01 4.6317782e+00 0.0000000e+00 
1.3446054e-01 3.7013325e-01 0.0000000e+00 
1.2296320e-01 4.7760825e+00 0.0000000e+00 
8.8210768e-01 2.2118840e-01 0.0000000e+00 
2.1798968e-01 1.0548568e-01 0.0000000e+00 
7.7656764e-01 4.8704844e+00 0.0000000e+00 
1.2667844e-01 4.6331582e+00 0.0000000e+00 
2.5353336e-01 4.5619426e+00 0.0000000e+00 
2.5451174e-01 4.4132285e+00 0.0000000e+00 
3.8040194e-01 4.4881525e+00 0.0000000e+00 
3.8161713e-01 4.3403850e+00 0.0000000e+00 
5.0654775e-01 4.4141955e+00 0.0000000e+00 
5.0629890e-01 4.2659345e+00 0.0000000e+00 
5.0658631e-01 4.5616083e+00 0.0000000e+00 
3.8184282e-01 4.1932206e+00 0.0000000e+00 
5.0831819e-01 4.1188259e+00 0.0000000e+00 
3.8249290e-01 4.0462651e+00 0.0000000e+00 
5.0818664e-01 3.9732957e+00 0.0000000e+00 
3.8265404e-01 3.8991868e+00 0.0000000e+00 
5.0769192e-01 3.8249388e+00 0.0000000e+00 
3.8307732e-01 3.7517705e+00 0.0000000e+00 
5.0990808e-01 3.6776419e+00 0.0000000e+00 
3.8416636e-01 3.6049941e+00 0.0000000e+00 
5.1177651e-01 3.5322094e+00 0.0000000e+00 
3.8460994e-01 3.4584429e+00 0.0000000e+00 
5.1256055e-01 3.3855147e+00 0.0000000e+00 
3.8520575e-01 3.3115354e+00 0.0000000e+00 
5.1318693e-01 3.2385471e+00 0.0000000e+00 
3.8561273e-01 3.1645203e+00 0.0000000e+00 
5.1375473e-01 3.0915136e+00 0.0000000e+00 
3.8616878e-01 3.0174749e+00 0.0000000e+00 
5.1433694e-01 2.9444630e+00 0.0000000e+00 
3.8656160e-01 2.8704205e+00 0.0000000e+00 
5.1489413e-01 2.7974076e+00 0.0000000e+00 
3.8711417e-01 2.7233641e+00 0.0000000e+00 
5.1547360e-01 2.6503508e+00 0.0000000e+00 
3.8750717e-01 2.5763063e+00 0.0000000e+00 
5.1603019e-01 2.5032935e+00 0.0000000e+00 
3.8805979e-01 2.4292488e+00 0.0000000e+00 
5.1422137e-01 2.3562264e+00 0.0000000e+00 
3.8765049e-01 2.2821872e+00 0.0000000e+00 
5.1307547e-01 2.2071202e+00 0.0000000e+00 
3.8778570e-01 2.1347876e+00 0.0000000e+00 
5.1568961e-01 2.0596735e+00 0.0000000e+00 
3.9013749e-01 1.9876142e+00 0.0000000e+00 
5.1808232e-01 1.9145784e+00 0.0000000e+00 
3.8994926e-01 1.8408588e+00 0.0000000e+00 
5.1884413e-01 1.7678982e+00 0.0000000e+00 
[...]
POINT_DATA 628
FIELD FieldData 2
VELOCITY 3 628  float
0.0000000e+00 0.0000000e+00 0.0000000e+00 
0.0000000e+00 0.0000000e+00 0.0000000e+00 
0.0000000e+00 2.8300318e-03 0.0000000e+00 
0.0000000e+00 3.3238649e-03 0.0000000e+00 
0.0000000e+00 2.5569373e-03 0.0000000e+00 
0.0000000e+00 2.5599378e-03 0.0000000e+00 
0.0000000e+00 0.0000000e+00 0.0000000e+00 
0.0000000e+00 0.0000000e+00 0.0000000e+00 
0.0000000e+00 0.0000000e+00 0.0000000e+00 
0.0000000e+00 0.0000000e+00 0.0000000e+00 
0.0000000e+00 0.0000000e+00 0.0000000e+00 
0.0000000e+00 0.0000000e+00 0.0000000e+00 
-2.0579170e-04 2.1785430e-03 0.0000000e+00 
-2.7399079e-05 2.8411769e-03 0.0000000e+00 
4.0281404e-04 2.6293281e-03 0.0000000e+00 
-4.4299633e-04 2.8121490e-03 0.0000000e+00 
6.0429197e-04 2.6502158e-03 0.0000000e+00 
-6.3780579e-04 2.2390424e-03 0.0000000e+00 
-4.3097434e-06 2.5877424e-03 0.0000000e+00 
7.5049456e-07 2.5943099e-03 0.0000000e+00 
-1.0452783e-06 2.5775651e-03 0.0000000e+00 
-3.3687911e-06 2.5825787e-03 0.0000000e+00 
-5.0788635e-06 2.5939886e-03 0.0000000e+00 
2.9452190e-06 2.5890560e-03 0.0000000e+00 
0.0000000e+00 2.5392764e-03 0.0000000e+00 
0.0000000e+00 2.8274655e-03 0.0000000e+00 
0.0000000e+00 2.9271205e-03 0.0000000e+00 
0.0000000e+00 2.6241851e-03 0.0000000e+00 
0.0000000e+00 2.2955725e-03 0.0000000e+00 
0.0000000e+00 2.3132756e-03 0.0000000e+00 
0.0000000e+00 2.5127309e-03 0.0000000e+00 
0.0000000e+00 2.4575663e-03 0.0000000e+00 
0.0000000e+00 2.0280706e-03 0.0000000e+00 
0.0000000e+00 1.5297226e-03 0.0000000e+00 
0.0000000e+00 1.2816791e-03 0.0000000e+00 
0.0000000e+00 1.2540108e-03 0.0000000e+00 
0.0000000e+00 1.1424794e-03 0.0000000e+00 
0.0000000e+00 7.2485971e-04 0.0000000e+00 
0.0000000e+00 9.1186332e-05 0.0000000e+00 
0.0000000e+00 -4.5891450e-04 0.0000000e+00 
0.0000000e+00 -6.9704361e-04 0.0000000e+00 
0.0000000e+00 -6.4310437e-04 0.0000000e+00 
0.0000000e+00 -5.0339627e-04 0.0000000e+00 
0.0000000e+00 -4.6573632e-04 0.0000000e+00 
0.0000000e+00 -5.4625398e-04 0.0000000e+00 
0.0000000e+00 -6.0039799e-04 0.0000000e+00 
0.0000000e+00 -4.6116905e-04 0.0000000e+00 
0.0000000e+00 -8.3455772e-05 0.0000000e+00 
0.0000000e+00 4.1016229e-04 0.0000000e+00 
0.0000000e+00 7.9909165e-04 0.0000000e+00 
0.0000000e+00 8.9300901e-04 0.0000000e+00 
0.0000000e+00 6.3597207e-04 0.0000000e+00 
0.0000000e+00 1.3315711e-04 0.0000000e+00 
0.0000000e+00 -4.0493745e-04 0.0000000e+00 
0.0000000e+00 -7.5884064e-04 0.0000000e+00 
0.0000000e+00 -7.9149671e-04 0.0000000e+00 
0.0000000e+00 -4.9621507e-04 0.0000000e+00 
0.0000000e+00 -4.9562322e-04 0.0000000e+00 
0.0000000e+00 -7.9170277e-04 0.0000000e+00 
0.0000000e+00 -7.6215737e-04 0.0000000e+00 
0.0000000e+00 -4.0921065e-04 0.0000000e+00 
0.0000000e+00 1.2945320e-04 0.0000000e+00 
0.0000000e+00 6.3338521e-04 0.0000000e+00 
0.0000000e+00 8.9128426e-04 0.0000000e+00 
0.0000000e+00 7.9860119e-04 0.0000000e+00 
0.0000000e+00 4.1074277e-04 0.0000000e+00 
0.0000000e+00 -8.2406405e-05 0.0000000e+00 
0.0000000e+00 -4.6027274e-04 0.0000000e+00 
0.0000000e+00 -5.9974595e-04 0.0000000e+00 
0.0000000e+00 -5.4599944e-04 0.0000000e+00 
0.0000000e+00 -4.6598504e-04 0.0000000e+00 
0.0000000e+00 -5.0376845e-04 0.0000000e+00 
0.0000000e+00 -6.4271229e-04 0.0000000e+00 
0.0000000e+00 -6.9643045e-04 0.0000000e+00 
0.0000000e+00 -4.5861787e-04 0.0000000e+00 
0.0000000e+00 9.0660185e-05 0.0000000e+00 
0.0000000e+00 7.2317297e-04 0.0000000e+00 
0.0000000e+00 1.1401919e-03 0.0000000e+00 
0.0000000e+00 1.2534836e-03 0.0000000e+00 
0.0000000e+00 1.2849451e-03 0.0000000e+00 
0.0000000e+00 1.5363412e-03 0.0000000e+00 
0.0000000e+00 2.0335284e-03 0.0000000e+00 
0.0000000e+00 2.4567791e-03 0.0000000e+00 
0.0000000e+00 2.5066757e-03 0.0000000e+00 
0.0000000e+00 2.3072578e-03 0.0000000e+00 
0.0000000e+00 2.2950855e-03 0.0000000e+00 
0.0000000e+00 2.6300354e-03 0.0000000e+00 
0.0000000e+00 2.9325248e-03 0.0000000e+00 
0.0000000e+00 2.8209430e-03 0.0000000e+00 
0.0000000e+00 2.5255175e-03 0.0000000e+00 
0.0000000e+00 2.1311662e-03 0.0000000e+00 
0.0000000e+00 2.9868037e-03 0.0000000e+00 
0.0000000e+00 2.9682289e-03 0.0000000e+00 
0.0000000e+00 2.4514620e-03 0.0000000e+00 
0.0000000e+00 3.1417822e-03 0.0000000e+00 
0.0000000e+00 2.5714303e-03 0.0000000e+00 
0.0000000e+00 2.9898151e-03 0.0000000e+00 
0.0000000e+00 2.4898706e-03 0.0000000e+00 
0.0000000e+00 3.0497604e-03 0.0000000e+00 
0.0000000e+00 2.6102776e-03 0.0000000e+00 
0.0000000e+00 3.1872885e-03 0.0000000e+00 
0.0000000e+00 2.5133311e-03 0.0000000e+00 
0.0000000e+00 3.0072310e-03 0.0000000e+00 
0.0000000e+00 2.6731524e-03 0.0000000e+00 
0.0000000e+00 2.6864721e-03 0.0000000e+00 
0.0000000e+00 3.0757647e-03 0.0000000e+00 
0.0000000e+00 2.5411660e-03 0.0000000e+00 
0.0000000e+00 2.9081842e-03 0.0000000e+00 
0.0000000e+00 2.9323897e-03 0.0000000e+00 
0.0000000e+00 2.5400303e-03 0.0000000e+00 
0.0000000e+00 2.9336845e-03 0.0000000e+00 
0.0000000e+00 2.9385963e-03 0.0000000e+00 
0.0000000e+00 2.5491989e-03 0.0000000e+00 
0.0000000e+00 2.8350328e-03 0.0000000e+00 
0.0000000e+00 3.0405314e-03 0.0000000e+00 
0.0000000e+00 2.6572719e-03 0.0000000e+00 
0.0000000e+00 2.6192188e-03 0.0000000e+00 
0.0000000e+00 2.9938617e-03 0.0000000e+00 
0.0000000e+00 2.9369469e-03 0.0000000e+00 
0.0000000e+00 2.5816408e-03 0.0000000e+00 
0.0000000e+00 2.6581006e-03 0.0000000e+00 
0.0000000e+00 3.0027318e-03 0.0000000e+00 
0.0000000e+00 2.9428271e-03 0.0000000e+00 
0.0000000e+00 2.9568379e-03 0.0000000e+00 
0.0000000e+00 3.0086287e-03 0.0000000e+00 
0.0000000e+00 2.6455643e-03 0.0000000e+00 
0.0000000e+00 2.5714897e-03 0.0000000e+00 
0.0000000e+00 2.9548465e-03 0.0000000e+00 
0.0000000e+00 3.0075852e-03 0.0000000e+00 
0.0000000e+00 2.5981655e-03 0.0000000e+00 
0.0000000e+00 2.6429761e-03 0.0000000e+00 
0.0000000e+00 3.0582210e-03 0.0000000e+00 
0.0000000e+00 2.8405252e-03 0.0000000e+00 
0.0000000e+00 2.5192173e-03 0.0000000e+00 
0.0000000e+00 2.9506802e-03 0.0000000e+00 
0.0000000e+00 2.9794271e-03 0.0000000e+00 
0.0000000e+00 2.4997073e-03 0.0000000e+00 
0.0000000e+00 2.9259191e-03 0.0000000e+00 
0.0000000e+00 2.9565601e-03 0.0000000e+00 
0.0000000e+00 2.4884469e-03 0.0000000e+00 
0.0000000e+00 3.0437030e-03 0.0000000e+00 
0.0000000e+00 2.7391987e-03 0.0000000e+00 
0.0000000e+00 2.6442453e-03 0.0000000e+00 
0.0000000e+00 3.0740919e-03 0.0000000e+00 
0.0000000e+00 2.4700323e-03 0.0000000e+00 
0.0000000e+00 3.2058340e-03 0.0000000e+00 
0.0000000e+00 2.5271242e-03 0.0000000e+00 
0.0000000e+00 3.0020394e-03 0.0000000e+00 
0.0000000e+00 2.5975432e-03 0.0000000e+00 
0.0000000e+00 2.9909683e-03 0.0000000e+00 
0.0000000e+00 2.6232474e-03 0.0000000e+00 
0.0000000e+00 2.9396361e-03 0.0000000e+00 
0.0000000e+00 2.8051240e-03 0.0000000e+00 
0.0000000e+00 2.8543849e-03 0.0000000e+00 
0.0000000e+00 2.6900640e-03 0.0000000e+00 
0.0000000e+00 2.7937549e-03 0.0000000e+00 
2.1583746e-06 2.4926267e-03 0.0000000e+00 
-1.7224789e-06 -4.7143796e-04 0.0000000e+00 
-4.3365088e-08 -1.3549443e-04 0.0000000e+00 
2.7158467e-06 2.4335990e-03 0.0000000e+00 
1.5561956e-07 2.5315804e-03 0.0000000e+00 
-1.7849258e-06 1.3717985e-03 0.0000000e+00 
4.6509930e-07 4.1859804e-04 0.0000000e+00 
-8.3123615e-07 -4.6624846e-04 0.0000000e+00 
2.6837805e-07 -2.9988214e-04 0.0000000e+00 
1.9193047e-07 8.8922540e-04 0.0000000e+00 
5.2593646e-07 -6.2184286e-04 0.0000000e+00 
-9.6586291e-07 1.2290761e-03 0.0000000e+00 
4.9334795e-07 -5.8753614e-04 0.0000000e+00 
4.1394574e-07 -5.6849938e-04 0.0000000e+00 
-3.8461394e-06 2.2590680e-03 0.0000000e+00 
8.1418688e-07 3.9639603e-04 0.0000000e+00 
-4.5364089e-07 6.3213188e-04 0.0000000e+00 
3.4856029e-07 2.2771142e-03 0.0000000e+00 
4.6706754e-07 1.2266806e-03 0.0000000e+00 
-1.9914593e-07 -5.8807712e-04 0.0000000e+00 
2.3310934e-06 2.8158736e-03 0.0000000e+00 
7.6126321e-07 4.2136191e-04 0.0000000e+00 
-9.0181533e-07 -2.9752974e-04 0.0000000e+00 
-8.5691818e-07 -6.2068959e-04 0.0000000e+00 
6.6124022e-07 1.3669282e-03 0.0000000e+00 
-2.2163618e-09 -6.1971112e-04 0.0000000e+00 
2.6707264e-06 2.9321357e-03 0.0000000e+00 
-1.5748845e-06 -8.1889966e-04 0.0000000e+00 
-4.2772804e-06 2.6694504e-03 0.0000000e+00 
-5.3210579e-07 -6.8042165e-04 0.0000000e+00 
-7.6228662e-07 -3.6737221e-04 0.0000000e+00 
-3.8833159e-06 2.5039366e-03 0.0000000e+00 
-3.1966688e-06 2.9298230e-03 0.0000000e+00 
2.0966500e-06 2.9416676e-03 0.0000000e+00 
-9.1326893e-07 2.6339286e-03 0.0000000e+00 
1.7397145e-06 2.8239731e-03 0.0000000e+00 
-5.5495811e-06 2.4343573e-03 0.0000000e+00 
6.9044567e-08 2.6291201e-03 0.0000000e+00 
-1.4744012e-06 2.2950515e-03 0.0000000e+00 
1.0619444e-06 2.9350936e-03 0.0000000e+00 
-5.9600534e-06 2.2582801e-03 0.0000000e+00 
-4.2572611e-07 2.3109105e-03 0.0000000e+00 
1.2344982e-07 2.4140829e-03 0.0000000e+00 
1.4809791e-06 2.5058533e-03 0.0000000e+00 
2.0941600e-06 2.5330156e-03 0.0000000e+00 
1.8846222e-06 2.4567996e-03 0.0000000e+00 
1.5181757e-06 2.2805973e-03 0.0000000e+00 
8.0439389e-07 2.0331922e-03 0.0000000e+00 
1.7778084e-06 1.7695940e-03 0.0000000e+00 
-5.1479338e-07 1.5382211e-03 0.0000000e+00 
5.0111578e-07 1.3709643e-03 0.0000000e+00 
-1.5284407e-06 1.2822399e-03 0.0000000e+00 
-1.6423363e-06 1.2565231e-03 0.0000000e+00 
-1.2055591e-06 1.2524768e-03 0.0000000e+00 
-1.9501517e-06 1.2311817e-03 0.0000000e+00 
-6.0977823e-07 1.1475007e-03 0.0000000e+00 
-1.0308619e-06 9.8312215e-04 0.0000000e+00 
-1.1109461e-07 7.3811220e-04 0.0000000e+00 
6.0131299e-07 4.3096210e-04 0.0000000e+00 
3.5654057e-07 1.0621609e-04 0.0000000e+00 
1.1970491e-06 -2.0309720e-04 0.0000000e+00 
2.1609220e-07 -4.4970866e-04 0.0000000e+00 
7.7823620e-07 -6.1853824e-04 0.0000000e+00 
1.7797727e-07 -6.9651462e-04 0.0000000e+00 
2.7793482e-07 -6.9859042e-04 0.0000000e+00 
1.5144209e-07 -6.4808753e-04 0.0000000e+00 
-3.6644082e-07 -5.7357113e-04 0.0000000e+00 
-1.4298503e-07 -5.0609343e-04 0.0000000e+00 
-1.2118619e-06 -4.6731232e-04 0.0000000e+00 
-2.9190895e-07 -4.6535730e-04 0.0000000e+00 
-7.7767635e-07 -4.9563794e-04 0.0000000e+00 
2.3819699e-07 -5.4211111e-04 0.0000000e+00 
-7.4640731e-08 -5.8535219e-04 0.0000000e+00 
-8.5730122e-08 -5.9752440e-04 0.0000000e+00 
1.0063382e-07 -5.6180469e-04 0.0000000e+00 
-5.4435634e-07 -4.6386704e-04 0.0000000e+00 
-2.1308690e-08 -3.0316325e-04 0.0000000e+00 
-6.0851534e-07 -9.1696973e-05 0.0000000e+00 
1.4764328e-07 1.5334177e-04 0.0000000e+00 
-3.6078836e-07 4.0002100e-04 0.0000000e+00 
1.0742662e-07 6.2388810e-04 0.0000000e+00 
-1.7354287e-07 7.9188065e-04 0.0000000e+00 
4.5567356e-07 8.8661350e-04 0.0000000e+00 
7.9437689e-07 8.9225284e-04 0.0000000e+00 
5.2722504e-07 8.0780056e-04 0.0000000e+00 
1.2202357e-06 6.4247980e-04 0.0000000e+00 
5.4269123e-07 4.1386264e-04 0.0000000e+00 
1.0467754e-06 1.4417048e-04 0.0000000e+00 
3.3178671e-07 -1.3072469e-04 0.0000000e+00 
7.6026987e-07 -3.9510135e-04 0.0000000e+00 
2.8663163e-07 -6.0521311e-04 0.0000000e+00 
9.7642510e-07 -7.5309054e-04 0.0000000e+00 
9.3546311e-07 -8.1835629e-04 0.0000000e+00 
9.3596253e-07 2.4151627e-03 0.0000000e+00 
6.1313312e-07 2.8252639e-03 0.0000000e+00 
-1.6774081e-06 1.7758224e-03 0.0000000e+00 
1.0633886e-06 -4.9522007e-04 0.0000000e+00 
4.1252811e-06 2.9373541e-03 0.0000000e+00 
-1.2041032e-06 1.2553785e-03 0.0000000e+00 
5.8405504e-07 9.8304218e-04 0.0000000e+00 
1.2163922e-06 8.0911611e-04 0.0000000e+00 
-1.7270897e-07 -1.9852466e-04 0.0000000e+00 
-1.4644829e-07 -6.9782726e-04 0.0000000e+00 
-6.5351287e-07 -5.6204537e-04 0.0000000e+00 
-1.1278723e-06 1.5028883e-04 0.0000000e+00 
1.3228414e-06 -1.3433133e-04 0.0000000e+00 
3.7571479e-07 6.4117042e-04 0.0000000e+00 
4.3848632e-07 4.0367903e-04 0.0000000e+00 
-2.8335143e-07 -6.4521370e-04 0.0000000e+00 
1.9682316e-06 2.5094217e-03 0.0000000e+00 
1.1445931e-06 -7.9341227e-04 0.0000000e+00 
2.4463966e-07 -8.1846106e-04 0.0000000e+00 
-1.4378122e-06 -6.8796874e-04 0.0000000e+00 
2.3949965e-06 2.8113693e-03 0.0000000e+00 
5.2831456e-06 2.6600587e-03 0.0000000e+00 
-2.9781852e-06 2.6566670e-03 0.0000000e+00 
-2.1859515e-07 -7.5423357e-04 0.0000000e+00 
-3.8364234e-07 -8.0089923e-04 0.0000000e+00 
3.9487338e-07 -4.6338857e-04 0.0000000e+00 
-6.3854168e-07 -5.4451270e-04 0.0000000e+00 
1.4003932e-06 -4.5450649e-04 0.0000000e+00 
3.4624824e-07 7.3315221e-04 0.0000000e+00 
-2.1431756e-06 1.2553985e-03 0.0000000e+00 
1.8114833e-06 1.5339793e-03 0.0000000e+00 
-1.0619312e-06 2.9344996e-03 0.0000000e+00 
-6.5848234e-08 -6.0834270e-04 0.0000000e+00 
-6.4425976e-08 -3.9145627e-04 0.0000000e+00 
-1.3978308e-06 -8.2088698e-04 0.0000000e+00 
8.9958797e-07 -6.1069237e-04 0.0000000e+00 
-3.2535818e-06 2.4333757e-03 0.0000000e+00 
-1.9707674e-07 2.8207118e-03 0.0000000e+00 
8.4533775e-07 -1.4993086e-04 0.0000000e+00 
1.7136864e-06 4.1252383e-04 0.0000000e+00 
1.2023644e-06 -7.0739881e-04 0.0000000e+00 
2.9497343e-07 8.9264911e-04 0.0000000e+00 
3.7965469e-07 7.9464779e-04 0.0000000e+00 
3.8798694e-07 6.2868203e-04 0.0000000e+00 
3.1888766e-07 8.8765682e-04 0.0000000e+00 
7.6401420e-07 8.9019077e-04 0.0000000e+00 
-5.9422297e-07 6.2844256e-04 0.0000000e+00 
6.6442857e-07 -4.6685286e-04 0.0000000e+00 
8.4807118e-07 -5.0335890e-04 0.0000000e+00 
7.6405587e-07 -4.9723533e-04 0.0000000e+00 
9.7767656e-07 -2.1048036e-04 0.0000000e+00 
5.6226361e-07 -6.9708202e-04 0.0000000e+00 
1.5020268e-07 -6.9639285e-04 0.0000000e+00 
1.1814153e-06 1.7636119e-03 0.0000000e+00 
-2.5708840e-07 1.2833510e-03 0.0000000e+00 
-1.0054093e-06 1.2568694e-03 0.0000000e+00 
-1.5877509e-06 1.1474808e-03 0.0000000e+00 
-2.3612159e-07 9.7494689e-04 0.0000000e+00 
1.3141921e-06 9.9377830e-05 0.0000000e+00 
6.8848084e-07 9.7307673e-04 0.0000000e+00 
2.1977301e-06 2.2561231e-03 0.0000000e+00 
5.6596537e-06 2.2993439e-03 0.0000000e+00 
-4.1298378e-07 2.4132589e-03 0.0000000e+00 
7.7518862e-08 2.2802288e-03 0.0000000e+00 
9.6370434e-07 2.4527127e-03 0.0000000e+00 
-1.3711702e-06 1.7715239e-03 0.0000000e+00 
-5.9508756e-07 -4.9722701e-04 0.0000000e+00 
6.9956620e-08 -5.9945980e-04 0.0000000e+00 
2.0827328e-07 -5.6227978e-04 0.0000000e+00 
5.2222856e-07 -8.8910885e-05 0.0000000e+00 
9.9336501e-07 2.5356687e-03 0.0000000e+00 
1.1390778e-06 2.4569535e-03 0.0000000e+00 
-6.9310181e-07 -6.9546496e-04 0.0000000e+00 
-6.4556241e-07 1.2572403e-03 0.0000000e+00 
4.0214861e-08 4.0277219e-04 0.0000000e+00 
-1.7046196e-07 8.0613617e-04 0.0000000e+00 
-2.4844474e-07 -5.6095334e-04 0.0000000e+00 
-6.6906978e-08 -2.1106651e-04 0.0000000e+00 
-8.4743061e-07 1.5923849e-04 0.0000000e+00 
-1.1843772e-06 -3.0498294e-04 0.0000000e+00 
-1.2550333e-06 -4.6531687e-04 0.0000000e+00 
-9.6662802e-07 -5.0515763e-04 0.0000000e+00 
3.8053167e-07 -5.8457558e-04 0.0000000e+00 
-2.1619653e-07 -6.1577279e-04 0.0000000e+00 
1.8892560e-07 4.3428523e-04 0.0000000e+00 
3.4316378e-07 1.2288792e-03 0.0000000e+00 
-2.8823313e-06 1.3738396e-03 0.0000000e+00 
6.6483199e-07 2.4178897e-03 0.0000000e+00 
-2.9474813e-06 2.3126358e-03 0.0000000e+00 
-8.2905090e-06 2.3001248e-03 0.0000000e+00 
4.7259047e-07 1.5898985e-04 0.0000000e+00 
1.4885796e-06 2.0318592e-03 0.0000000e+00 
-4.4598150e-07 -5.6952855e-04 0.0000000e+00 
-7.5478188e-06 2.8240818e-03 0.0000000e+00 
1.6279938e-06 2.5127963e-03 0.0000000e+00 
2.9900264e-08 1.4302823e-04 0.0000000e+00 
7.0515844e-06 2.8261445e-03 0.0000000e+00 
2.0864293e-06 2.6382334e-03 0.0000000e+00 
1.0995757e-06 2.6583727e-03 0.0000000e+00 
-2.9326204e-06 -6.7568489e-04 0.0000000e+00 
3.0873903e-07 2.5058764e-03 0.0000000e+00 
4.7811011e-07 2.9438650e-03 0.0000000e+00 
-1.0178095e-06 -4.3912567e-04 0.0000000e+00 
3.8494873e-06 2.4332840e-03 0.0000000e+00 
3.5180110e-06 2.2587511e-03 0.0000000e+00 
1.7668102e-06 2.3109566e-03 0.0000000e+00 
1.7984244e-06 2.5312498e-03 0.0000000e+00 
-1.2588234e-07 -6.4510835e-04 0.0000000e+00 
8.2580038e-07 2.2748159e-03 0.0000000e+00 
-8.4248836e-07 2.0401275e-03 0.0000000e+00 
-3.1319512e-06 1.5418752e-03 0.0000000e+00 
-2.1004851e-06 1.2852333e-03 0.0000000e+00 
5.1058013e-08 1.2528102e-03 0.0000000e+00 
9.2892316e-07 1.1453230e-03 0.0000000e+00 
6.6433523e-07 8.0482429e-04 0.0000000e+00 
7.5609341e-07 7.3573197e-04 0.0000000e+00 
1.3563577e-07 1.0568207e-04 0.0000000e+00 
-7.1392498e-07 -4.4934687e-04 0.0000000e+00 
6.9532985e-07 -4.6766270e-04 0.0000000e+00 
-7.3592008e-07 -6.9613958e-04 0.0000000e+00 
3.2595065e-07 -5.7255389e-04 0.0000000e+00 
1.0833379e-06 -4.6530392e-04 0.0000000e+00 
1.0147772e-06 -5.4345216e-04 0.0000000e+00 
6.4199043e-08 -5.9904280e-04 0.0000000e+00 
-1.0432487e-06 -4.6515264e-04 0.0000000e+00 
-2.7734757e-07 7.9507235e-04 0.0000000e+00 
-1.3271093e-06 -9.2358627e-05 0.0000000e+00 
-9.5895109e-07 4.0278598e-04 0.0000000e+00 
-1.8685538e-06 -7.9144456e-04 0.0000000e+00 
-2.4508497e-08 -7.6131668e-04 0.0000000e+00 
7.7178362e-07 -4.0563420e-04 0.0000000e+00 
1.3650788e-06 6.3641544e-04 0.0000000e+00 
1.3773214e-07 8.8906393e-04 0.0000000e+00 
1.4965706e-06 1.3516398e-04 0.0000000e+00 
-2.2108436e-06 -3.6917650e-04 0.0000000e+00 
-2.2307367e-07 -3.3696793e-04 0.0000000e+00 
-2.1261640e-07 2.5042093e-03 0.0000000e+00 
-2.3372306e-06 2.5041446e-03 0.0000000e+00 
1.0379025e-05 2.5028549e-03 0.0000000e+00 
-1.0067963e-05 2.4919906e-03 0.0000000e+00 
2.2825536e-06 -3.4685378e-04 0.0000000e+00 
-1.1837974e-06 -3.6050726e-04 0.0000000e+00 
-3.0241949e-06 -6.1282865e-04 0.0000000e+00 
1.6663590e-04 2.7905537e-03 0.0000000e+00 
-3.1358577e-06 2.9051963e-03 0.0000000e+00 
-2.7722706e-05 2.8365653e-03 0.0000000e+00 
2.0766693e-06 2.7448495e-03 0.0000000e+00 
-9.6031754e-06 3.0550512e-03 0.0000000e+00 
1.6316392e-06 2.5472210e-03 0.0000000e+00 
6.7881037e-06 2.7108360e-03 0.0000000e+00 
4.4079288e-06 3.0630711e-03 0.0000000e+00 
-3.1762206e-06 2.7619894e-03 0.0000000e+00 
-7.0181654e-06 2.4949156e-03 0.0000000e+00 
-2.8282234e-06 2.6118529e-03 0.0000000e+00 
1.0874054e-06 3.0460919e-03 0.0000000e+00 
-3.1739746e-05 2.6216917e-03 0.0000000e+00 
-3.3168468e-05 2.6823997e-03 0.0000000e+00 
-1.2978073e-06 3.0679433e-03 0.0000000e+00 
3.9781589e-05 2.5387309e-03 0.0000000e+00 
5.6664827e-05 2.9274900e-03 0.0000000e+00 
1.5551153e-05 2.6291099e-03 0.0000000e+00 
2.7071343e-05 2.8221374e-03 0.0000000e+00 
1.1096099e-05 2.5189952e-03 0.0000000e+00 
-2.1574381e-06 3.0245355e-03 0.0000000e+00 
-3.0196518e-06 2.6732986e-03 0.0000000e+00 
1.7986084e-06 2.5274160e-03 0.0000000e+00 
3.1621207e-06 2.5257575e-03 0.0000000e+00 
-3.6616757e-06 3.0679051e-03 0.0000000e+00 
-1.3116681e-05 2.5309999e-03 0.0000000e+00 
6.9448193e-05 2.8573538e-03 0.0000000e+00 
2.0190564e-06 2.8361834e-03 0.0000000e+00 
-7.6179521e-07 3.0419801e-03 0.0000000e+00 
-3.0196534e-04 2.9771726e-03 0.0000000e+00 
7.3649886e-04 3.2589904e-03 0.0000000e+00 
-6.8094678e-06 2.9000498e-03 0.0000000e+00 
-1.5966878e-06 2.8344349e-03 0.0000000e+00 
6.2162076e-06 2.6405414e-03 0.0000000e+00 
2.2931360e-06 2.5631464e-03 0.0000000e+00 
6.2061531e-06 2.5335017e-03 0.0000000e+00 
-1.0663239e-06 2.7349328e-03 0.0000000e+00 
-2.7753513e-06 2.5695190e-03 0.0000000e+00 
-2.8884938e-07 2.9429621e-03 0.0000000e+00 
1.5420853e-06 2.6641050e-03 0.0000000e+00 
-1.1287137e-06 3.0628252e-03 0.0000000e+00 
1.1583563e-06 3.0053922e-03 0.0000000e+00 
9.5886317e-06 2.8166305e-03 0.0000000e+00 
4.0888676e-06 2.6071025e-03 0.0000000e+00 
4.5778806e-06 2.5265457e-03 0.0000000e+00 
-4.7861649e-06 2.6361921e-03 0.0000000e+00 
-1.4400029e-05 2.8714901e-03 0.0000000e+00 
-2.1604114e-06 3.0482498e-03 0.0000000e+00 
3.2187377e-06 3.0473431e-03 0.0000000e+00 
1.0553122e-05 2.8379036e-03 0.0000000e+00 
2.8064328e-06 2.6036592e-03 0.0000000e+00 
-9.5823580e-06 2.5324940e-03 0.0000000e+00 
-8.7183880e-06 2.6793589e-03 0.0000000e+00 
-6.0957614e-06 2.9453454e-03 0.0000000e+00 
9.3229210e-06 3.0847779e-03 0.0000000e+00 
2.3819036e-06 2.9525254e-03 0.0000000e+00 
-9.3380531e-06 2.6833562e-03 0.0000000e+00 
1.1894103e-05 2.5184820e-03 0.0000000e+00 
1.2957420e-05 2.6295842e-03 0.0000000e+00 
1.0222333e-07 2.9197955e-03 0.0000000e+00 
-2.7119836e-06 3.1051722e-03 0.0000000e+00 
-6.2347076e-06 2.9424413e-03 0.0000000e+00 
5.5362239e-06 2.6318221e-03 0.0000000e+00 
6.1087076e-06 2.5008849e-03 0.0000000e+00 
-1.8337783e-05 2.7114095e-03 0.0000000e+00 