# vtk DataFile Version 4.0
vtk output
ASCII
DATASET UNSTRUCTURED_GRID
POINTS 628 float
0.0000000e+00 0.0000000e+00 0.0000000e+00 
1.0000000e+00 0.0000000e+00 0.0000000e+00 
1.0000000e+00 1.0000000e+01 0.0000000e+00 
0.0000000e+00 1.0000000e+01 0.0000000e+00 
0.0000000e+00 5.0000000e+00 0.0000000e+00 
1.0000000e+00 5.0000000e+00 0.0000000e+00 
1.4285715e-01 0.0000000e+00 0.0000000e+00 
2.8571430e-01 0.0000000e+00 0.0000000e+00 
4.2857143e-01 0.0000000e+00 0.0000000e+00 
5.7142860e-01 0.0000000e+00 0.0000000e+00 
7.1428573e-01 0.0000000e+00 0.0000000e+00 
8.5714287e-01 0.0000000e+00 0.0000000e+00 
8.5714287e-01 1.0000000e+01 0.0000000e+00 
7.1428573e-01 1.0000000e+01 0.0000000e+00 
5.7142860e-01 1.0000000e+01 0.0000000e+00 
4.2857143e-01 1.0000000e+01 0.0000000e+00 
2.8571430e-01 1.0000000e+01 0.0000000e+00 
1.4285715e-01 1.0000000e+01 0.0000000e+00 
1.4285715e-01 5.0000000e+00 0.0000000e+00 
2.8571430e-01 5.0000000e+00 0.0000000e+00 
4.2857143e-01 5.0000000e+00 0.0000000e+00 
5.7142860e-01 5.0000000e+00 0.0000000e+00 
7.1428573e-01 5.0000000e+00 0.0000000e+00 
8.5714287e-01 5.0000000e+00 0.0000000e+00 
0.0000000e+00 4.8529410e+00 0.0000000e+00 
0.0000000e+00 4.7058825e+00 0.0000000e+00 
0.0000000e+00 4.5588236e+00 0.0000000e+00 
0.0000000e+00 4.4117646e+00 0.0000000e+00 
0.0000000e+00 4.2647057e+00 0.0000000e+00 
0.0000000e+00 4.1176472e+00 0.0000000e+00 
0.0000000e+00 3.9705882e+00 0.0000000e+00 
0.0000000e+00 3.8235295e+00 0.0000000e+00 
0.0000000e+00 3.6764705e+00 0.0000000e+00 
0.0000000e+00 3.5294118e+00 0.0000000e+00 
0.0000000e+00 3.3823528e+00 0.0000000e+00 
0.0000000e+00 3.2352941e+00 0.0000000e+00 
0.0000000e+00 3.0882354e+00 0.0000000e+00 
0.0000000e+00 2.9411764e+00 0.0000000e+00 
0.0000000e+00 2.7941177e+00 0.0000000e+00 
0.0000000e+00 2.6470587e+00 0.0000000e+00 
0.0000000e+00 2.5000000e+00 0.0000000e+00 
0.0000000e+00 2.3529413e+00 0.0000000e+00 
0.0000000e+00 2.2058823e+00 0.0000000e+00 
0.0000000e+00 2.0588236e+00 0.0000000e+00 
0.0000000e+00 1.9117647e+00 0.0000000e+00 
0.0000000e+00 1.7647059e+00 0.0000000e+00 
0.0000000e+00 1.6176471e+00 0.0000000e+00 
0.0000000e+00 1.4705882e+00 0.0000000e+00 
0.0000000e+00 1.3235294e+00 0.0000000e+00 
0.0000000e+00 1.1764706e+00 0.0000000e+00 
0.0000000e+00 1.0294118e+00 0.0000000e+00 
0.0000000e+00 8.8235295e-01 0.0000000e+00 
0.0000000e+00 7.3529410e-01 0.0000000e+00 
0.0000000e+00 5.8823532e-01 0.0000000e+00 
0.0000000e+00 4.4117647e-01 0.0000000e+00 
0.0000000e+00 2.9411766e-01 0.0000000e+00 
0.0000000e+00 1.4705883e-01 0.0000000e+00 
1.0000000e+00 1.4705883e-01 0.0000000e+00 
1.0000000e+00 2.9411766e-01 0.0000000e+00 
1.0000000e+00 4.4117647e-01 0.0000000e+00 
1.0000000e+00 5.8823532e-01 0.0000000e+00 
1.0000000e+00 7.3529410e-01 0.0000000e+00 
1.0000000e+00 8.8235295e-01 0.0000000e+00 
1.0000000e+00 1.0294118e+00 0.0000000e+00 
1.0000000e+00 1.1764706e+00 0.0000000e+00 
1.0000000e+00 1.3235294e+00 0.0000000e+00 
1.0000000e+00 1.4705882e+00 0.0000000e+00 
1.0000000e+00 1.6176471e+00 0.0000000e+00 
1.0000000e+00 1.7647059e+00 0.0000000e+00 
1.0000000e+00 1.9117647e+00 0.0000000e+00 
1.0000000e+00 2.0588236e+00 0.0000000e+00 
1.0000000e+00 2.2058823e+00 0.0000000e+00 
1.0000000e+00 2.3529413e+00 0.0000000e+00 
1.0000000e+00 2.5000000e+00 0.0000000e+00 
1.0000000e+00 2.6470587e+00 0.0000000e+00 
1.0000000e+00 2.7941177e+00 0.0000000e+00 
1.0000000e+00 2.9411764e+00 0.0000000e+00 
1.0000000e+00 3.0882354e+00 0.0000000e+00 
1.0000000e+00 3.2352941e+00 0.0000000e+00 
1.0000000e+00 3.3823528e+00 0.0000000e+00 
1.0000000e+00 3.5294118e+00 0.0000000e+00 
1.0000000e+00 3.6764705e+00 0.0000000e+00 
1.0000000e+00 3.8235295e+00 0.0000000e+00 
1.0000000e+00 3.9705882e+00 0.0000000e+00 
1.0000000e+00 4.1176472e+00 0.0000000e+00 
1.0000000e+00 4.2647057e+00 0.0000000e+00 
1.0000000e+00 4.4117646e+00 0.0000000e+00 
1.0000000e+00 4.5588236e+00 0.0000000e+00 
1.0000000e+00 4.7058825e+00 0.0000000e+00 
1.0000000e+00 4.8529410e+00 0.0000000e+00 
0.0000000e+00 9.8529415e+00 0.0000000e+00 
0.0000000e+00 9.7058821e+00 0.0000000e+00 
0.0000000e+00 9.5588236e+00 0.0000000e+00 
0.0000000e+00 9.4117651e+00 0.0000000e+00 
0.0000000e+00 9.2647057e+00 0.0000000e+00 
0.0000000e+00 9.1176472e+00 0.0000000e+00 
0.0000000e+00 8.9705887e+00 0.0000000e+00 
0.0000000e+00 8.8235292e+00 0.0000000e+00 
0.0000000e+00 8.6764708e+00 0.0000000e+00 
0.0000000e+00 8.5294113e+00 0.0000000e+00 
0.0000000e+00 8.3823528e+00 0.0000000e+00 
0.0000000e+00 8.2352943e+00 0.0000000e+00 
0.0000000e+00 8.0882349e+00 0.0000000e+00 
0.0000000e+00 7.9411764e+00 0.0000000e+00 
0.0000000e+00 7.7941175e+00 0.0000000e+00 
0.0000000e+00 7.6470590e+00 0.0000000e+00 
0.0000000e+00 7.5000000e+00 0.0000000e+00 
0.0000000e+00 7.3529410e+00 0.0000000e+00 
0.0000000e+00 7.2058825e+00 0.0000000e+00 
0.0000000e+00 7.0588236e+00 0.0000000e+00 
0.0000000e+00 6.9117646e+00 0.0000000e+00 
0.0000000e+00 6.7647057e+00 0.0000000e+00 
0.0000000e+00 6.6176472e+00 0.0000000e+00 
0.0000000e+00 6.4705882e+00 0.0000000e+00 
0.0000000e+00 6.3235292e+00 0.0000000e+00 
0.0000000e+00 6.1764708e+00 0.0000000e+00 
0.0000000e+00 6.0294118e+00 0.0000000e+00 
0.0000000e+00 5.8823528e+00 0.0000000e+00 
0.0000000e+00 5.7352943e+00 0.0000000e+00 
0.0000000e+00 5.5882354e+00 0.0000000e+00 
0.0000000e+00 5.4411764e+00 0.0000000e+00 
0.0000000e+00 5.2941175e+00 0.0000000e+00 
0.0000000e+00 5.1470590e+00 0.0000000e+00 
1.0000000e+00 5.1470590e+00 0.0000000e+00 
1.0000000e+00 5.2941175e+00 0.0000000e+00 
1.0000000e+00 5.4411764e+00 0.0000000e+00 
1.0000000e+00 5.5882354e+00 0.0000000e+00 
1.0000000e+00 5.7352943e+00 0.0000000e+00 
1.0000000e+00 5.8823528e+00 0.0000000e+00 
1.0000000e+00 6.0294118e+00 0.0000000e+00 
1.0000000e+00 6.1764708e+00 0.0000000e+00 
1.0000000e+00 6.3235292e+00 0.0000000e+00 
1.0000000e+00 6.4705882e+00 0.0000000e+00 
1.0000000e+00 6.6176472e+00 0.0000000e+00 
1.0000000e+00 6.7647057e+00 0.0000000e+00 
1.0000000e+00 6.9117646e+00 0.0000000e+00 
1.0000000e+00 7.0588236e+00 0.0000000e+00 
1.0000000e+00 7.2058825e+00 0.0000000e+00 
1.0000000e+00 7.3529410e+00 0.0000000e+00 
1.0000000e+00 7.5000000e+00 0.0000000e+00 
1.0000000e+00 7.6470590e+00 0.0000000e+00 
1.0000000e+00 7.7941175e+00 0.0000000e+00 
1.0000000e+00 7.9411764e+00 0.0000000e+00 
1.0000000e+00 8.0882349e+00 0.0000000e+00 
1.0000000e+00 8.2352943e+00 0.0000000e+00 
1.0000000e+00 8.3823528e+00 0.0000000e+00 
1.0000000e+00 8.5294113e+00 0.0000000e+00 
1.0000000e+00 8.6764708e+00 0.0000000e+00 
1.0000000e+00 8.8235292e+00 0.0000000e+00 
1.0000000e+00 8.9705887e+00 0.0000000e+00 
1.0000000e+00 9.1176472e+00 0.0000000e+00 
1.0000000e+00 9.2647057e+00 0.0000000e+00 
1.0000000e+00 9.4117651e+00 0.0000000e+00 
1.0000000e+00 9.5588236e+00 0.0000000e+00 
1.0000000e+00 9.7058821e+00 0.0000000e+00 
1.0000000e+00 9.8529415e+00 0.0000000e+00 
5.0212586e-01 4.8703580e+00 0.0000000e+00 
5.1041055e-01 1.3732977e-01 0.0000000e+00 
1.3055173e-01 6.6499180e-01 0.0000000e+00 
8.7327349e-01 4.3372407e+00 0.0000000e+00 
8.7331611e-01 3.8958969e+00 0.0000000e+00 
8.7347627e-01 3.4562511e+00 0.0000000e+00 
8.7357801e-01 2.8680170e+00 0.0000000e+00 
1.2843554e-01 2.1327813e+00 0.0000000e+00 
1.2975387e-01 1.5449892e+00 0.0000000e+00 
1.3308091e-01 1.1039938e+00 0.0000000e+00 
1.2937543e-01 2.5737903e+00 0.0000000e+00 
1.2735668e-01 3.1617646e+00 0.0000000e+00 
8.7375563e-01 1.8386052e+00 0.0000000e+00 
8.7355548e-01 2.2778318e+00 0.0000000e+00 
1.2753446e-01 4.1915216e+00 0.0000000e+00 
8.7915283e-01 8.0759794e-01 0.0000000e+00 
8.8115031e-01 1.2498868e+00 0.0000000e+00 
1.2781374e-01 3.7501886e+00 0.0000000e+00 
8.7352717e-01 3.1621344e+00 0.0000000e+00 
1.2961270e-01 1.8389882e+00 0.0000000e+00 
1.2731366e-01 4.4857054e+00 0.0000000e+00 
1.2885660e-01 2.8684020e+00 0.0000000e+00 
8.7380636e-01 1.5444875e+00 0.0000000e+00 
8.7362880e-01 2.5738993e+00 0.0000000e+00 
1.2735668e-01 3.4558823e+00 0.0000000e+00 
8.7264335e-01 5.1470590e-01 0.0000000e+00 
8.7611687e-01 4.6317782e+00 0.0000000e+00 
1.3446054e-01 3.7013325e-01 0.0000000e+00 
1.2296320e-01 4.7760825e+00 0.0000000e+00 
8.8210768e-01 2.2118840e-01 0.0000000e+00 
2.1798968e-01 1.0548568e-01 0.0000000e+00 
7.7656764e-01 4.8704844e+00 0.0000000e+00 
1.2667844e-01 4.6331582e+00 0.0000000e+00 
2.5353336e-01 4.5619426e+00 0.0000000e+00 
2.5451174e-01 4.4132285e+00 0.0000000e+00 
3.8040194e-01 4.4881525e+00 0.0000000e+00 
3.8161713e-01 4.3403850e+00 0.0000000e+00 
5.0654775e-01 4.4141955e+00 0.0000000e+00 
5.0629890e-01 4.2659345e+00 0.0000000e+00 
5.0658631e-01 4.5616083e+00 0.0000000e+00 
3.8184282e-01 4.1932206e+00 0.0000000e+00 
5.0831819e-01 4.1188259e+00 0.0000000e+00 
3.8249290e-01 4.0462651e+00 0.0000000e+00 
5.0818664e-01 3.9732957e+00 0.0000000e+00 
3.8265404e-01 3.8991868e+00 0.0000000e+00 
5.0769192e-01 3.8249388e+00 0.0000000e+00 
3.8307732e-01 3.7517705e+00 0.0000000e+00 
5.0990808e-01 3.6776419e+00 0.0000000e+00 
3.8416636e-01 3.6049941e+00 0.0000000e+00 
5.1177651e-01 3.5322094e+00 0.0000000e+00 
3.8460994e-01 3.4584429e+00 0.0000000e+00 
5.1256055e-01 3.3855147e+00 0.0000000e+00 
3.8520575e-01 3.3115354e+00 0.0000000e+00 
5.1318693e-01 3.2385471e+00 0.0000000e+00 
3.8561273e-01 3.1645203e+00 0.0000000e+00 
5.1375473e-01 3.0915136e+00 0.0000000e+00 
3.8616878e-01 3.0174749e+00 0.0000000e+00 
5.1433694e-01 2.9444630e+00 0.0000000e+00 
3.8656160e-01 2.8704205e+00 0.0000000e+00 
5.1489413e-01 2.7974076e+00 0.0000000e+00 
3.8711417e-01 2.7233641e+00 0.0000000e+00 
5.1547360e-01 2.6503508e+00 0.0000000e+00 
3.8750717e-01 2.5763063e+00 0.0000000e+00 
5.1603019e-01 2.5032935e+00 0.0000000e+00 
3.8805979e-01 2.4292488e+00 0.0000000e+00 
5.1422137e-01 2.3562264e+00 0.0000000e+00 
3.8765049e-01 2.2821872e+00 0.0000000e+00 
5.1307547e-01 2.2071202e+00 0.0000000e+00 
3.8778570e-01 2.1347876e+00 0.0000000e+00 
5.1568961e-01 2.0596735e+00 0.0000000e+00 
3.9013749e-01 1.9876142e+00 0.0000000e+00 
5.1808232e-01 1.9145784e+00 0.0000000e+00 
3.8994926e-01 1.8408588e+00 0.0000000e+00 
5.1884413e-01 1.7678982e+00 0.0000000e+00 
[...]
POINT_DATA 628
FIELD FieldData 2
VELOCITY 3 628  float
0.0000000e+00 0.0000000e+00 0.0000000e+00 
0.0000000e+00 0.0000000e+00 0.0000000e+00 
0.0000000e+00 2.6880128e-03 0.0000000e+00 
0.0000000e+00 2.2508462e-03 0.0000000e+00 
0.0000000e+00 1.1346798e-03 0.0000000e+00 
0.0000000e+00 1.1346926e-03 0.0000000e+00 
0.0000000e+00 0.0000000e+00 0.0000000e+00 
0.0000000e+00 0.0000000e+00 0.0000000e+00 
0.0000000e+00 0.0000000e+00 0.0000000e+00 
0.0000000e+00 0.0000000e+00 0.0000000e+00 
0.0000000e+00 0.0000000e+00 0.0000000e+00 
0.0000000e+00 0.0000000e+00 0.0000000e+00 
2.9848315e-04 1.7850479e-03 0.0000000e+00 
9.7040327e-05 2.0396444e-03 0.0000000e+00 
1.7817179e-04 3.2690661e-03 0.0000000e+00 
-6.6397374e-04 2.4450237e-03 0.0000000e+00 
7.0155103e-04 2.6320724e-03 0.0000000e+00 
-4.5415550e-04 2.5386773e-03 0.0000000e+00 
1.3591432e-07 1.1380948e-03 0.0000000e+00 
2.0324718e-07 1.1377571e-03 0.0000000e+00 
-5.5522726e-08 1.1367695e-03 0.0000000e+00 
-7.6099070e-08 1.1367857e-03 0.0000000e+00 
2.3671544e-07 1.1377328e-03 0.0000000e+00 
1.1149844e-07 1.1380846e-03 0.0000000e+00 
0.0000000e+00 8.0467621e-04 0.0000000e+00 
0.0000000e+00 5.5029552e-04 0.0000000e+00 
0.0000000e+00 3.6534466e-04 0.0000000e+00 
0.0000000e+00 2.3630886e-04 0.0000000e+00 
0.0000000e+00 1.4920537e-04 0.0000000e+00 
0.0000000e+00 9.2141265e-05 0.0000000e+00 
0.0000000e+00 5.5739918e-05 0.0000000e+00 
0.0000000e+00 3.3083994e-05 0.0000000e+00 
0.0000000e+00 1.9290082e-05 0.0000000e+00 
0.0000000e+00 1.1062102e-05 0.0000000e+00 
0.0000000e+00 6.2464064e-06 0.0000000e+00 
0.0000000e+00 3.4761390e-06 0.0000000e+00 
0.0000000e+00 1.9079876e-06 0.0000000e+00 
0.0000000e+00 1.0339746e-06 0.0000000e+00 
0.0000000e+00 5.5345345e-07 0.0000000e+00 
0.0000000e+00 2.9289271e-07 0.0000000e+00 
0.0000000e+00 1.5333836e-07 0.0000000e+00 
0.0000000e+00 7.9467618e-08 0.0000000e+00 
0.0000000e+00 4.0776552e-08 0.0000000e+00 
0.0000000e+00 2.0730637e-08 0.0000000e+00 
0.0000000e+00 1.0442917e-08 0.0000000e+00 
0.0000000e+00 5.2178430e-09 0.0000000e+00 
0.0000000e+00 2.5858755e-09 0.0000000e+00 
0.0000000e+00 1.2714662e-09 0.0000000e+00 
0.0000000e+00 6.2073846e-10 0.0000000e+00 
0.0000000e+00 3.0076078e-10 0.0000000e+00 
0.0000000e+00 1.4476029e-10 0.0000000e+00 
0.0000000e+00 6.9245470e-11 0.0000000e+00 
0.0000000e+00 3.2914518e-11 0.0000000e+00 
0.0000000e+00 1.5502013e-11 0.0000000e+00 
0.0000000e+00 7.2189932e-12 0.0000000e+00 
0.0000000e+00 3.2470936e-12 0.0000000e+00 
0.0000000e+00 1.2475091e-12 0.0000000e+00 
0.0000000e+00 1.2506196e-12 0.0000000e+00 
0.0000000e+00 3.2583526e-12 0.0000000e+00 
0.0000000e+00 7.2301280e-12 0.0000000e+00 
0.0000000e+00 1.5507717e-11 0.0000000e+00 
0.0000000e+00 3.2889060e-11 0.0000000e+00 
0.0000000e+00 6.9206821e-11 0.0000000e+00 
0.0000000e+00 1.4474646e-10 0.0000000e+00 
0.0000000e+00 3.0070157e-10 0.0000000e+00 
0.0000000e+00 6.2020528e-10 0.0000000e+00 
0.0000000e+00 1.2706417e-09 0.0000000e+00 
0.0000000e+00 2.5838163e-09 0.0000000e+00 
0.0000000e+00 5.2141864e-09 0.0000000e+00 
0.0000000e+00 1.0436831e-08 0.0000000e+00 
0.0000000e+00 2.0724240e-08 0.0000000e+00 
0.0000000e+00 4.0782751e-08 0.0000000e+00 
0.0000000e+00 7.9440099e-08 0.0000000e+00 
0.0000000e+00 1.5325321e-07 0.0000000e+00 
0.0000000e+00 2.9274173e-07 0.0000000e+00 
0.0000000e+00 5.5320476e-07 0.0000000e+00 
0.0000000e+00 1.0333870e-06 0.0000000e+00 
0.0000000e+00 1.9071663e-06 0.0000000e+00 
0.0000000e+00 3.4745622e-06 0.0000000e+00 
0.0000000e+00 6.2443096e-06 0.0000000e+00 
0.0000000e+00 1.1059603e-05 0.0000000e+00 
0.0000000e+00 1.9291116e-05 0.0000000e+00 
0.0000000e+00 3.3090659e-05 0.0000000e+00 
0.0000000e+00 5.5741086e-05 0.0000000e+00 
0.0000000e+00 9.2132912e-05 0.0000000e+00 
0.0000000e+00 1.4920287e-04 0.0000000e+00 
0.0000000e+00 2.3626027e-04 0.0000000e+00 
0.0000000e+00 3.6522289e-04 0.0000000e+00 
0.0000000e+00 5.4999930e-04 0.0000000e+00 
0.0000000e+00 8.0419274e-04 0.0000000e+00 
0.0000000e+00 2.5747765e-03 0.0000000e+00 
0.0000000e+00 3.6060202e-03 0.0000000e+00 
0.0000000e+00 1.7124632e-03 0.0000000e+00 
0.0000000e+00 3.4424856e-03 0.0000000e+00 
0.0000000e+00 2.4869866e-03 0.0000000e+00 
0.0000000e+00 2.8673366e-03 0.0000000e+00 
0.0000000e+00 3.1994458e-03 0.0000000e+00 
0.0000000e+00 2.2773314e-03 0.0000000e+00 
0.0000000e+00 2.8766659e-03 0.0000000e+00 
0.0000000e+00 3.2800769e-03 0.0000000e+00 
0.0000000e+00 2.5715076e-03 0.0000000e+00 
0.0000000e+00 2.3569532e-03 0.0000000e+00 
0.0000000e+00 2.9831196e-03 0.0000000e+00 
0.0000000e+00 3.2975168e-03 0.0000000e+00 
0.0000000e+00 2.8537961e-03 0.0000000e+00 
0.0000000e+00 2.3422244e-03 0.0000000e+00 
0.0000000e+00 2.4068968e-03 0.0000000e+00 
0.0000000e+00 2.9208350e-03 0.0000000e+00 
0.0000000e+00 3.3220956e-03 0.0000000e+00 
0.0000000e+00 3.2531864e-03 0.0000000e+00 
0.0000000e+00 2.8092603e-03 0.0000000e+00 
0.0000000e+00 2.3454921e-03 0.0000000e+00 
0.0000000e+00 2.1677306e-03 0.0000000e+00 
0.0000000e+00 2.3598801e-03 0.0000000e+00 
0.0000000e+00 2.7969349e-03 0.0000000e+00 
0.0000000e+00 3.2648547e-03 0.0000000e+00 
0.0000000e+00 3.5764787e-03 0.0000000e+00 
0.0000000e+00 3.6352670e-03 0.0000000e+00 
0.0000000e+00 3.4396127e-03 0.0000000e+00 
0.0000000e+00 3.0513350e-03 0.0000000e+00 
0.0000000e+00 2.5566560e-03 0.0000000e+00 
0.0000000e+00 2.0373098e-03 0.0000000e+00 
0.0000000e+00 1.5530970e-03 0.0000000e+00 
0.0000000e+00 1.5535398e-03 0.0000000e+00 
0.0000000e+00 2.0374667e-03 0.0000000e+00 
0.0000000e+00 2.5565582e-03 0.0000000e+00 
0.0000000e+00 3.0511497e-03 0.0000000e+00 
0.0000000e+00 3.4396735e-03 0.0000000e+00 
0.0000000e+00 3.6353106e-03 0.0000000e+00 
0.0000000e+00 3.5763669e-03 0.0000000e+00 
0.0000000e+00 3.2648670e-03 0.0000000e+00 
0.0000000e+00 2.7971491e-03 0.0000000e+00 
0.0000000e+00 2.3598799e-03 0.0000000e+00 
0.0000000e+00 2.1676675e-03 0.0000000e+00 
0.0000000e+00 2.3456579e-03 0.0000000e+00 
0.0000000e+00 2.8112133e-03 0.0000000e+00 
0.0000000e+00 3.2576437e-03 0.0000000e+00 
0.0000000e+00 3.3264414e-03 0.0000000e+00 
0.0000000e+00 2.9210316e-03 0.0000000e+00 
0.0000000e+00 2.3991596e-03 0.0000000e+00 
0.0000000e+00 2.3299779e-03 0.0000000e+00 
0.0000000e+00 2.8482145e-03 0.0000000e+00 
0.0000000e+00 3.3080799e-03 0.0000000e+00 
0.0000000e+00 2.9987595e-03 0.0000000e+00 
0.0000000e+00 2.3531122e-03 0.0000000e+00 
0.0000000e+00 2.5513035e-03 0.0000000e+00 
0.0000000e+00 3.2942332e-03 0.0000000e+00 
0.0000000e+00 2.9122224e-03 0.0000000e+00 
0.0000000e+00 2.2141221e-03 0.0000000e+00 
0.0000000e+00 3.1619961e-03 0.0000000e+00 
0.0000000e+00 3.0426525e-03 0.0000000e+00 
0.0000000e+00 2.3362569e-03 0.0000000e+00 
0.0000000e+00 3.3617839e-03 0.0000000e+00 
0.0000000e+00 1.9671789e-03 0.0000000e+00 
0.0000000e+00 3.6156378e-03 0.0000000e+00 
0.0000000e+00 2.1147197e-03 0.0000000e+00 
1.4867210e-09 8.3620910e-04 0.0000000e+00 
-3.8877626e-15 1.1383608e-12 0.0000000e+00 
-3.4784202e-15 2.3014498e-11 0.0000000e+00 
4.5510046e-08 1.8763257e-04 0.0000000e+00 
1.4560320e-09 4.2856085e-05 0.0000000e+00 
1.4832149e-10 8.3389696e-06 0.0000000e+00 
-1.1528772e-10 7.5846003e-07 0.0000000e+00 
7.9637035e-12 2.9163665e-08 0.0000000e+00 
-4.9293926e-14 1.8238375e-09 0.0000000e+00 
1.9187261e-14 2.1016028e-10 0.0000000e+00 
5.7961524e-13 2.1251161e-07 0.0000000e+00 
-1.8116600e-10 2.5791921e-06 0.0000000e+00 
-2.0976563e-12 7.3977424e-09 0.0000000e+00 
-9.7418757e-12 5.6532087e-08 0.0000000e+00 
-1.7108974e-08 1.1768223e-04 0.0000000e+00 
1.7608548e-14 4.7451505e-11 0.0000000e+00 
-3.1611814e-13 4.3194409e-10 0.0000000e+00 
-6.7900630e-10 2.5334653e-05 0.0000000e+00 
-2.1399800e-10 2.5825602e-06 0.0000000e+00 
1.9361990e-12 7.4189521e-09 0.0000000e+00 
-1.3759703e-07 2.9491339e-04 0.0000000e+00 
1.5674410e-11 7.6000811e-07 0.0000000e+00 
-7.5633981e-13 1.8169546e-09 0.0000000e+00 
-8.2152084e-11 2.1246230e-07 0.0000000e+00 
1.5388721e-10 8.3286268e-06 0.0000000e+00 
-4.9353239e-15 1.0608799e-11 0.0000000e+00 
3.4164188e-07 4.4863048e-04 0.0000000e+00 
-4.5970041e-15 4.9604288e-12 0.0000000e+00 
-1.5961335e-07 6.6123478e-04 0.0000000e+00 
2.7289565e-16 2.1100964e-12 0.0000000e+00 
1.6829228e-15 8.6386941e-13 0.0000000e+00 
-1.4590576e-07 8.3636300e-04 0.0000000e+00 
-3.5012167e-07 4.5037703e-04 0.0000000e+00 
-2.2917320e-07 3.6806316e-04 0.0000000e+00 
-9.8443351e-08 2.3718260e-04 0.0000000e+00 
-1.1488059e-07 2.9696079e-04 0.0000000e+00 
-4.7520977e-08 1.8950214e-04 0.0000000e+00 
-7.5680404e-09 2.3786613e-04 0.0000000e+00 
-7.1773747e-09 1.4975239e-04 0.0000000e+00 
9.8294253e-09 3.6767803e-04 0.0000000e+00 
-4.9346971e-09 1.1834656e-04 0.0000000e+00 
-6.9267720e-09 9.2495306e-05 0.0000000e+00 
-8.6748067e-09 7.2383926e-05 0.0000000e+00 
-2.4788311e-09 5.6275920e-05 0.0000000e+00 
-4.0251877e-09 4.3379052e-05 0.0000000e+00 
-2.7313052e-09 3.3261407e-05 0.0000000e+00 
7.4345163e-10 2.5491303e-05 0.0000000e+00 
2.6280736e-11 1.9382689e-05 0.0000000e+00 
6.1950201e-10 1.4759338e-05 0.0000000e+00 
-3.2170726e-09 1.1184085e-05 0.0000000e+00 
-9.5489994e-10 8.4155909e-06 0.0000000e+00 
-1.4238744e-09 6.3260140e-06 0.0000000e+00 
-3.9622378e-10 4.7208919e-06 0.0000000e+00 
-6.0136524e-10 3.5230230e-06 0.0000000e+00 
-7.1650685e-10 2.6101791e-06 0.0000000e+00 
-3.1851474e-10 1.9349727e-06 0.0000000e+00 
1.6188004e-10 1.4238556e-06 0.0000000e+00 
-6.2927760e-11 1.0489222e-06 0.0000000e+00 
-1.3035414e-10 7.6714451e-07 0.0000000e+00 
-6.9049301e-11 5.6177305e-07 0.0000000e+00 
1.1366187e-12 4.0843580e-07 0.0000000e+00 
-6.5956511e-11 2.9740767e-07 0.0000000e+00 
-3.5711583e-11 2.1502753e-07 0.0000000e+00 
-2.4993037e-11 1.5575966e-07 0.0000000e+00 
-1.1664436e-11 1.1201793e-07 0.0000000e+00 
-6.0635247e-12 8.0741586e-08 0.0000000e+00 
-1.4533891e-11 5.7776180e-08 0.0000000e+00 
-5.2139911e-12 4.1055184e-08 0.0000000e+00 
1.5285835e-11 2.9473577e-08 0.0000000e+00 
7.1860937e-12 2.0828413e-08 0.0000000e+00 
9.6476234e-13 1.4915228e-08 0.0000000e+00 
-7.7194301e-12 1.0588919e-08 0.0000000e+00 
-1.9311848e-12 7.4930240e-09 0.0000000e+00 
-2.6487859e-12 5.3012008e-09 0.0000000e+00 
-9.3366699e-13 3.7306318e-09 0.0000000e+00 
-1.0145249e-12 2.6291385e-09 0.0000000e+00 
-7.4684654e-13 1.8420873e-09 0.0000000e+00 
-3.6004858e-13 1.2934875e-09 0.0000000e+00 
1.4506986e-14 9.0270397e-10 0.0000000e+00 
-2.0126454e-13 6.3155398e-10 0.0000000e+00 
-1.3853766e-13 4.3914475e-10 0.0000000e+00 
-1.9200740e-15 3.0633682e-10 0.0000000e+00 
-5.7413113e-14 2.1220696e-10 0.0000000e+00 
-1.0446903e-13 1.4754119e-10 0.0000000e+00 
-1.2334088e-14 1.0183573e-10 0.0000000e+00 
-4.6234609e-14 7.0561064e-11 0.0000000e+00 
-6.7865525e-15 4.8773371e-11 0.0000000e+00 
-1.3390663e-14 3.3553080e-11 0.0000000e+00 
-1.2004760e-15 2.3236165e-11 0.0000000e+00 
-9.1961029e-15 1.5826132e-11 0.0000000e+00 
-1.6188808e-15 1.0936771e-11 0.0000000e+00 
2.1540810e-15 7.4142350e-12 0.0000000e+00 
2.8446051e-15 5.0312835e-12 0.0000000e+00 
-5.6766813e-09 7.1803828e-05 0.0000000e+00 
9.0343725e-08 2.9566090e-04 0.0000000e+00 
-5.2739537e-09 1.4815446e-05 0.0000000e+00 
-1.5308064e-11 1.4958001e-08 0.0000000e+00 
1.5273037e-07 4.5081376e-04 0.0000000e+00 
-6.6942613e-10 4.7406224e-06 0.0000000e+00 
-2.3032048e-10 1.4301183e-06 0.0000000e+00 
-6.4665572e-14 1.0223258e-10 0.0000000e+00 
-3.7034462e-11 4.1026206e-07 0.0000000e+00 
-9.1650897e-12 1.1169080e-07 0.0000000e+00 
-1.5006955e-12 3.7481236e-09 0.0000000e+00 
-1.4788014e-14 9.0692909e-10 0.0000000e+00 
-1.7702181e-14 2.3110144e-11 0.0000000e+00 
-1.0839992e-14 7.0235588e-11 0.0000000e+00 
2.9412683e-15 6.2792477e-10 0.0000000e+00 
-2.8308909e-12 7.9972438e-08 0.0000000e+00 
-4.0556793e-09 5.5946093e-05 0.0000000e+00 
2.7446534e-15 3.3124384e-12 0.0000000e+00 
-7.0859277e-16 5.0156160e-12 0.0000000e+00 
-4.0732578e-15 2.1589896e-12 0.0000000e+00 
-3.1633359e-08 5.5739633e-04 0.0000000e+00 
-9.1769429e-08 6.6624640e-04 0.0000000e+00 
8.1336481e-08 6.7231915e-04 0.0000000e+00 
-1.3214994e-15 7.4327237e-12 0.0000000e+00 
1.9556428e-15 3.5119505e-12 0.0000000e+00 
1.3636629e-13 2.6130815e-09 0.0000000e+00 
1.4336649e-12 1.0540101e-08 0.0000000e+00 
4.0791953e-11 2.9555184e-07 0.0000000e+00 
-1.0072133e-10 1.0435125e-06 0.0000000e+00 
-6.9923933e-10 3.5091421e-06 0.0000000e+00 
-6.9390202e-11 1.1122116e-05 0.0000000e+00 
-1.9583935e-07 4.5776879e-04 0.0000000e+00 
3.6168574e-15 1.0835029e-11 0.0000000e+00 
2.4415418e-15 1.5944883e-11 0.0000000e+00 
-6.1023019e-15 4.9031473e-12 0.0000000e+00 
-1.0755243e-15 1.0799955e-11 0.0000000e+00 
-5.0472241e-08 1.8863037e-04 0.0000000e+00 
1.2786123e-07 2.9375619e-04 0.0000000e+00 
5.9023670e-15 2.2592386e-11 0.0000000e+00 
-5.3499638e-14 4.8681462e-11 0.0000000e+00 
4.9056587e-15 2.3134814e-12 0.0000000e+00 
1.2993438e-14 1.4640857e-10 0.0000000e+00 
-7.1540660e-14 3.0434213e-10 0.0000000e+00 
-8.7214314e-14 4.3540646e-10 0.0000000e+00 
-1.4267148e-13 2.1049701e-10 0.0000000e+00 
-8.7535183e-14 1.4397628e-10 0.0000000e+00 
2.4783388e-14 4.3511206e-10 0.0000000e+00 
2.2027330e-12 2.9152829e-08 0.0000000e+00 
-6.4978175e-12 4.0427796e-08 0.0000000e+00 
1.1251857e-12 1.4773247e-08 0.0000000e+00 
6.2080577e-11 4.0476900e-07 0.0000000e+00 
5.5026842e-12 1.5479483e-07 0.0000000e+00 
3.6478997e-11 1.1066442e-07 0.0000000e+00 
8.1193052e-10 1.4662807e-05 0.0000000e+00 
1.9954251e-10 6.2846875e-06 0.0000000e+00 
2.7574075e-11 4.6680502e-06 0.0000000e+00 
4.1900175e-10 1.9268477e-06 0.0000000e+00 
1.4818459e-10 1.4079468e-06 0.0000000e+00 
6.7838256e-11 5.5856896e-07 0.0000000e+00 
-1.9459918e-10 1.4094401e-06 0.0000000e+00 
7.4124484e-09 1.1772499e-04 0.0000000e+00 
3.1984595e-08 1.4874613e-04 0.0000000e+00 
3.3691436e-09 7.1681927e-05 0.0000000e+00 
1.7895958e-09 2.5363071e-05 0.0000000e+00 
-2.0156900e-10 3.2968779e-05 0.0000000e+00 
1.2781053e-09 1.4697531e-05 0.0000000e+00 
-3.8150830e-13 1.4791588e-08 0.0000000e+00 
3.5054576e-13 5.2643294e-09 0.0000000e+00 
5.6442541e-13 3.6941541e-09 0.0000000e+00 
8.1292266e-14 1.2858301e-09 0.0000000e+00 
-2.5870592e-10 4.3074557e-05 0.0000000e+00 
-1.2771406e-09 3.3216074e-05 0.0000000e+00 
-4.8915649e-11 1.0992121e-07 0.0000000e+00 
-4.4548093e-10 4.6770874e-06 0.0000000e+00 
1.2913498e-14 4.7799525e-11 0.0000000e+00 
6.8570224e-14 1.0077057e-10 0.0000000e+00 
-1.3208392e-12 3.6840768e-09 0.0000000e+00 
-8.5968239e-11 4.0399649e-07 0.0000000e+00 
-7.5032672e-13 8.9305907e-10 0.0000000e+00 
-6.5605518e-13 1.8506602e-09 0.0000000e+00 
5.8104650e-12 2.0925587e-08 0.0000000e+00 
7.2636927e-12 4.1116763e-08 0.0000000e+00 
-5.3548216e-12 7.5304074e-09 0.0000000e+00 
1.9797563e-11 2.1585134e-07 0.0000000e+00 
-1.1888292e-10 7.7050566e-07 0.0000000e+00 
-3.8392597e-10 2.6211178e-06 0.0000000e+00 
-2.3399827e-09 8.4524791e-06 0.0000000e+00 
-4.2739647e-09 7.1984839e-05 0.0000000e+00 
-7.0870469e-09 9.2592214e-05 0.0000000e+00 
-3.4538356e-08 1.4985794e-04 0.0000000e+00 
2.5803087e-13 8.9389846e-10 0.0000000e+00 
1.3615885e-09 1.9376956e-05 0.0000000e+00 
-4.9621305e-12 5.6960715e-08 0.0000000e+00 
-4.2621110e-07 5.5525120e-04 0.0000000e+00 
1.9515736e-07 8.2782796e-04 0.0000000e+00 
2.1530209e-14 3.3509754e-11 0.0000000e+00 
3.4962719e-07 5.5203203e-04 0.0000000e+00 
7.8215905e-08 2.3663297e-04 0.0000000e+00 
5.8978220e-08 6.6330918e-04 0.0000000e+00 
-5.3860276e-15 2.0468954e-12 0.0000000e+00 
-5.3878857e-09 5.5885135e-05 0.0000000e+00 
2.6661161e-07 3.6614254e-04 0.0000000e+00 
-1.7833629e-15 1.0249461e-12 0.0000000e+00 
2.9091506e-08 1.8815290e-04 0.0000000e+00 
1.9504716e-08 1.1787323e-04 0.0000000e+00 
7.0535178e-09 9.2134003e-05 0.0000000e+00 
-8.0571283e-09 4.2977088e-05 0.0000000e+00 
-4.0045352e-11 7.9815941e-08 0.0000000e+00 
-2.3150557e-09 2.5251991e-05 0.0000000e+00 
8.2601931e-10 1.9487066e-05 0.0000000e+00 
-2.0305804e-09 1.1195193e-05 0.0000000e+00 
-3.7834416e-10 6.3251064e-06 0.0000000e+00 
-4.7476412e-10 3.5258788e-06 0.0000000e+00 
-2.2664180e-10 1.9364732e-06 0.0000000e+00 
-3.0495287e-14 1.0074156e-10 0.0000000e+00 
-2.4951452e-10 1.0497682e-06 0.0000000e+00 
-8.7581567e-11 5.6219181e-07 0.0000000e+00 
-1.1981210e-10 2.9717003e-07 0.0000000e+00 
-5.3264355e-12 2.9389506e-08 0.0000000e+00 
-2.0251601e-11 1.5444597e-07 0.0000000e+00 
-1.2129872e-11 5.7346465e-08 0.0000000e+00 
-1.8230411e-12 2.1139309e-08 0.0000000e+00 
-6.5330788e-12 1.0624645e-08 0.0000000e+00 
-2.3331866e-12 5.3152052e-09 0.0000000e+00 
-1.3938689e-12 2.6349352e-09 0.0000000e+00 
-1.4218432e-13 3.0352829e-10 0.0000000e+00 
-4.0987876e-13 1.2948963e-09 0.0000000e+00 
-5.5442191e-13 6.2878142e-10 0.0000000e+00 
-5.8933715e-15 3.2085686e-12 0.0000000e+00 
-2.4085467e-15 7.2108730e-12 0.0000000e+00 
-1.2292733e-14 1.5559094e-11 0.0000000e+00 
-2.9773615e-14 6.9549914e-11 0.0000000e+00 
-5.8800594e-14 2.0900008e-10 0.0000000e+00 
-1.2506324e-14 3.3112593e-11 0.0000000e+00 
-5.4296925e-15 8.9469610e-13 0.0000000e+00 
7.2984753e-16 8.0868260e-13 0.0000000e+00 
2.3982543e-07 9.1185601e-04 0.0000000e+00 
-3.8391175e-07 9.0979680e-04 0.0000000e+00 
1.0523811e-06 8.8495086e-04 0.0000000e+00 
-8.9121806e-07 8.9164521e-04 0.0000000e+00 
9.5077983e-15 8.0883710e-13 0.0000000e+00 
-3.6294439e-15 8.6230616e-13 0.0000000e+00 
-8.0597336e-15 1.8138609e-12 0.0000000e+00 
9.1957896e-05 2.3871744e-03 0.0000000e+00 
-2.7675261e-08 1.4968242e-03 0.0000000e+00 
-1.5926807e-06 3.0705114e-03 0.0000000e+00 
1.6750114e-07 3.2670796e-03 0.0000000e+00 
3.4512502e-06 2.4183996e-03 0.0000000e+00 
-7.4342331e-08 3.4493054e-03 0.0000000e+00 
-2.8284580e-07 2.3020697e-03 0.0000000e+00 
3.8040096e-07 2.5610968e-03 0.0000000e+00 
-6.0383300e-08 2.2921339e-03 0.0000000e+00 
-1.2614100e-06 3.1429334e-03 0.0000000e+00 
-7.1736781e-07 3.3550044e-03 0.0000000e+00 
3.2890821e-07 2.5606414e-03 0.0000000e+00 
-2.6619202e-05 2.1264630e-03 0.0000000e+00 
7.8423597e-07 2.6303490e-03 0.0000000e+00 
-6.7326781e-08 3.5661040e-03 0.0000000e+00 
-1.6122120e-05 2.5596283e-03 0.0000000e+00 
5.0187235e-05 2.7543968e-03 0.0000000e+00 
1.0290547e-06 2.6390017e-03 0.0000000e+00 
3.4340262e-06 2.9746441e-03 0.0000000e+00 
-1.5832758e-06 3.1421063e-03 0.0000000e+00 
-1.6166609e-07 2.5570104e-03 0.0000000e+00 
-2.4584253e-07 2.2087281e-03 0.0000000e+00 
-2.6080443e-07 2.8101497e-03 0.0000000e+00 
1.9933603e-07 3.4491513e-03 0.0000000e+00 
7.0192914e-09 3.1689450e-03 0.0000000e+00 
7.9916726e-06 3.2917105e-03 0.0000000e+00 
9.9777753e-05 2.8804312e-03 0.0000000e+00 
3.3009817e-07 2.2972752e-03 0.0000000e+00 
-2.3570648e-07 1.7982235e-03 0.0000000e+00 
-1.4837463e-04 2.0521700e-03 0.0000000e+00 
-4.8993382e-04 3.6009548e-03 0.0000000e+00 
-1.8941098e-07 1.4964176e-03 0.0000000e+00 
-4.4134504e-07 2.2923222e-03 0.0000000e+00 
-3.9549840e-07 2.5452557e-03 0.0000000e+00 
-2.2869908e-07 3.0468311e-03 0.0000000e+00 
-1.8634481e-07 2.8021715e-03 0.0000000e+00 
-1.1358372e-07 3.2590963e-03 0.0000000e+00 
-5.0353137e-08 3.0440113e-03 0.0000000e+00 
-4.9823349e-08 3.4376970e-03 0.0000000e+00 
-4.5249912e-08 2.5465449e-03 0.0000000e+00 
-1.8036330e-07 3.5643303e-03 0.0000000e+00 
-1.6301234e-07 3.6352447e-03 0.0000000e+00 
-6.0565647e-08 3.6406892e-03 0.0000000e+00 
1.8374703e-07 3.5802845e-03 0.0000000e+00 
2.9558552e-07 3.4540836e-03 0.0000000e+00 
1.1517425e-07 3.2731851e-03 0.0000000e+00 
4.4332748e-07 3.0484025e-03 0.0000000e+00 
8.1709665e-08 2.8065520e-03 0.0000000e+00 
2.7500835e-07 2.5674787e-03 0.0000000e+00 
-6.6304835e-08 2.3620175e-03 0.0000000e+00 
1.3576403e-07 2.2232933e-03 0.0000000e+00 
-3.0290681e-07 2.1664049e-03 0.0000000e+00 
-4.7623669e-07 2.2058291e-03 0.0000000e+00 
-4.6495674e-07 2.3381300e-03 0.0000000e+00 
-7.5565032e-07 2.5487412e-03 0.0000000e+00 
-3.0770988e-07 2.8058551e-03 0.0000000e+00 
-7.9952139e-07 3.0540838e-03 0.0000000e+00 
-1.8779177e-07 3.2546630e-03 0.0000000e+00 
-7.4295929e-07 3.3540921e-03 0.0000000e+00 
1.1601111e-06 3.3301322e-03 0.0000000e+00 
1.2327173e-06 3.1795886e-03 0.0000000e+00 
2.3308103e-06 2.9345036e-03 0.0000000e+00 
2.5032630e-06 2.6502702e-03 0.0000000e+00 
1.2088740e-06 2.4117371e-03 0.0000000e+00 
1.8231397e-06 2.2870328e-03 0.0000000e+00 
-1.8545999e-06 2.3293647e-03 0.0000000e+00 
-1.1981192e-06 2.5328775e-03 0.0000000e+00 