# vtk DataFile Version 4.0
vtk output
ASCII
DATASET UNSTRUCTURED_GRID
POINTS 628 float
0.0000000e+00 0.0000000e+00 0.0000000e+00 
1.0000000e+00 0.0000000e+00 0.0000000e+00 
1.0000000e+00 1.0000000e+01 0.0000000e+00 
0.0000000e+00 1.0000000e+01 0.0000000e+00 
0.0000000e+00 5.0000000e+00 0.0000000e+00 
1.0000000e+00 5.0000000e+00 0.0000000e+00 
1.4285715e-01 0.0000000e+00 0.0000000e+00 
2.8571430e-01 0.0000000e+00 0.0000000e+00 
4.2857143e-01 0.0000000e+00 0.0000000e+00 
5.7142860e-01 0.0000000e+00 0.0000000e+00 
7.1428573e-01 0.0000000e+00 0.0000000e+00 
8.5714287e-01 0.0000000e+00 0.0000000e+00 
8.5714287e-01 1.0000000e+01 0.0000000e+00 
7.1428573e-01 1.0000000e+01 0.0000000e+00 
5.7142860e-01 1.0000000e+01 0.0000000e+00 
4.2857143e-01 1.0000000e+01 0.0000000e+00 
2.8571430e-01 1.0000000e+01 0.0000000e+00 
1.4285715e-01 1.0000000e+01 0.0000000e+00 
1.4285715e-01 5.0000000e+00 0.0000000e+00 
2.8571430e-01 5.0000000e+00 0.0000000e+00 
4.2857143e-01 5.0000000e+00 0.0000000e+00 
5.7142860e-01 5.0000000e+00 0.0000000e+00 
7.1428573e-01 5.0000000e+00 0.0000000e+00 
8.5714287e-01 5.0000000e+00 0.0000000e+00 
0.0000000e+00 4.8529410e+00 0.0000000e+00 
0.0000000e+00 4.7058825e+00 0.0000000e+00 
0.0000000e+00 4.5588236e+00 0.0000000e+00 
0.0000000e+00 4.4117646e+00 0.0000000e+00 
0.0000000e+00 4.2647057e+00 0.0000000e+00 
0.0000000e+00 4.1176472e+00 0.0000000e+00 
0.0000000e+00 3.9705882e+00 0.0000000e+00 
0.0000000e+00 3.8235295e+00 0.0000000e+00 
0.0000000e+00 3.6764705e+00 0.0000000e+00 
0.0000000e+00 3.5294118e+00 0.0000000e+00 
0.0000000e+00 3.3823528e+00 0.0000000e+00 
0.0000000e+00 3.2352941e+00 0.0000000e+00 
0.0000000e+00 3.0882354e+00 0.0000000e+00 
0.0000000e+00 2.9411764e+00 0.0000000e+00 
0.0000000e+00 2.7941177e+00 0.0000000e+00 
0.0000000e+00 2.6470587e+00 0.0000000e+00 
0.0000000e+00 2.5000000e+00 0.0000000e+00 
0.0000000e+00 2.3529413e+00 0.0000000e+00 
0.0000000e+00 2.2058823e+00 0.0000000e+00 
0.0000000e+00 2.0588236e+00 0.0000000e+00 
0.0000000e+00 1.9117647e+00 0.0000000e+00 
0.0000000e+00 1.7647059e+00 0.0000000e+00 
0.0000000e+00 1.6176471e+00 0.0000000e+00 
0.0000000e+00 1.4705882e+00 0.0000000e+00 
0.0000000e+00 1.3235294e+00 0.0000000e+00 
0.0000000e+00 1.1764706e+00 0.0000000e+00 
0.0000000e+00 1.0294118e+00 0.0000000e+00 
0.0000000e+00 8.8235295e-01 0.0000000e+00 
0.0000000e+00 7.3529410e-01 0.0000000e+00 
0.0000000e+00 5.8823532e-01 0.0000000e+00 
0.0000000e+00 4.4117647e-01 0.0000000e+00 
0.0000000e+00 2.9411766e-01 0.0000000e+00 
0.0000000e+00 1.4705883e-01 0.0000000e+00 
1.0000000e+00 1.4705883e-01 0.0000000e+00 
1.0000000e+00 2.9411766e-01 0.0000000e+00 
1.0000000e+00 4.4117647e-01 0.0000000e+00 
1.0000000e+00 5.8823532e-01 0.0000000e+00 
1.0000000e+00 7.3529410e-01 0.0000000e+00 
1.0000000e+00 8.8235295e-01 0.0000000e+00 
1.0000000e+00 1.0294118e+00 0.0000000e+00 
1.0000000e+00 1.1764706e+00 0.0000000e+00 
1.0000000e+00 1.3235294e+00 0.0000000e+00 
1.0000000e+00 1.4705882e+00 0.0000000e+00 
1.0000000e+00 1.6176471e+00 0.0000000e+00 
1.0000000e+00 1.7647059e+00 0.0000000e+00 
1.0000000e+00 1.9117647e+00 0.0000000e+00 
1.0000000e+00 2.0588236e+00 0.0000000e+00 
1.0000000e+00 2.2058823e+00 0.0000000e+00 
1.0000000e+00 2.3529413e+00 0.0000000e+00 
1.0000000e+00 2.5000000e+00 0.0000000e+00 
1.0000000e+00 2.6470587e+00 0.0000000e+00 
1.0000000e+00 2.7941177e+00 0.0000000e+00 
1.0000000e+00 2.9411764e+00 0.0000000e+00 
1.0000000e+00 3.0882354e+00 0.0000000e+00 
1.0000000e+00 3.2352941e+00 0.0000000e+00 
1.0000000e+00 3.3823528e+00 0.0000000e+00 
1.0000000e+00 3.5294118e+00 0.0000000e+00 
1.0000000e+00 3.6764705e+00 0.0000000e+00 
1.0000000e+00 3.8235295e+00 0.0000000e+00 
1.0000000e+00 3.9705882e+00 0.0000000e+00 
1.0000000e+00 4.1176472e+00 0.0000000e+00 
1.0000000e+00 4.2647057e+00 0.0000000e+00 
1.0000000e+00 4.4117646e+00 0.0000000e+00 
1.0000000e+00 4.5588236e+00 0.0000000e+00 
1.0000000e+00 4.7058825e+00 0.0000000e+00 
1.0000000e+00 4.8529410e+00 0.0000000e+00 
0.0000000e+00 9.8529415e+00 0.0000000e+00 
0.0000000e+00 9.7058821e+00 0.0000000e+00 
0.0000000e+00 9.5588236e+00 0.0000000e+00 
0.0000000e+00 9.4117651e+00 0.0000000e+00 
0.0000000e+00 9.2647057e+00 0.0000000e+00 
0.0000000e+00 9.1176472e+00 0.0000000e+00 
0.0000000e+00 8.9705887e+00 0.0000000e+00 
0.0000000e+00 8.8235292e+00 0.0000000e+00 
0.0000000e+00 8.6764708e+00 0.0000000e+00 
0.0000000e+00 8.5294113e+00 0.0000000e+00 
0.0000000e+00 8.3823528e+00 0.0000000e+00 
0.0000000e+00 8.2352943e+00 0.0000000e+00 
0.0000000e+00 8.0882349e+00 0.0000000e+00 
0.0000000e+00 7.9411764e+00 0.0000000e+00 
0.0000000e+00 7.7941175e+00 0.0000000e+00 
0.0000000e+00 7.6470590e+00 0.0000000e+00 
0.0000000e+00 7.5000000e+00 0.0000000e+00 
0.0000000e+00 7.3529410e+00 0.0000000e+00 
0.0000000e+00 7.2058825e+00 0.0000000e+00 
0.0000000e+00 7.0588236e+00 0.0000000e+00 
0.0000000e+00 6.9117646e+00 0.0000000e+00 
0.0000000e+00 6.7647057e+00 0.0000000e+00 
0.0000000e+00 6.6176472e+00 0.0000000e+00 
0.0000000e+00 6.4705882e+00 0.0000000e+00 
0.0000000e+00 6.3235292e+00 0.0000000e+00 
0.0000000e+00 6.1764708e+00 0.0000000e+00 
0.0000000e+00 6.0294118e+00 0.0000000e+00 
0.0000000e+00 5.8823528e+00 0.0000000e+00 
0.0000000e+00 5.7352943e+00 0.0000000e+00 
0.0000000e+00 5.5882354e+00 0.0000000e+00 
0.0000000e+00 5.4411764e+00 0.0000000e+00 
0.0000000e+00 5.2941175e+00 0.0000000e+00 
0.0000000e+00 5.1470590e+00 0.0000000e+00 
1.0000000e+00 5.1470590e+00 0.0000000e+00 
1.0000000e+00 5.2941175e+00 0.0000000e+00 
1.0000000e+00 5.4411764e+00 0.0000000e+00 
1.0000000e+00 5.5882354e+00 0.0000000e+00 
1.0000000e+00 5.7352943e+00 0.0000000e+00 
1.0000000e+00 5.8823528e+00 0.0000000e+00 
1.0000000e+00 6.0294118e+00 0.0000000e+00 
1.0000000e+00 6.1764708e+00 0.0000000e+00 
1.0000000e+00 6.3235292e+00 0.0000000e+00 
1.0000000e+00 6.4705882e+00 0.0000000e+00 
1.0000000e+00 6.6176472e+00 0.0000000e+00 
1.0000000e+00 6.7647057e+00 0.0000000e+00 
1.0000000e+00 6.9117646e+00 0.0000000e+00 
1.0000000e+00 7.0588236e+00 0.0000000e+00 
1.0000000e+00 7.2058825e+00 0.0000000e+00 
1.0000000e+00 7.3529410e+00 0.0000000e+00 
1.0000000e+00 7.5000000e+00 0.0000000e+00 
1.0000000e+00 7.6470590e+00 0.0000000e+00 
1.0000000e+00 7.7941175e+00 0.0000000e+00 
1.0000000e+00 7.9411764e+00 0.0000000e+00 
1.0000000e+00 8.0882349e+00 0.0000000e+00 
1.0000000e+00 8.2352943e+00 0.0000000e+00 
1.0000000e+00 8.3823528e+00 0.0000000e+00 
1.0000000e+00 8.5294113e+00 0.0000000e+00 
1.0000000e+00 8.6764708e+00 0.0000000e+00 
1.0000000e+00 8.8235292e+00 0.0000000e+00 
1.0000000e+00 8.9705887e+00 0.0000000e+00 
1.0000000e+00 9.1176472e+00 0.0000000e+00 
1.0000000e+00 9.2647057e+00 0.0000000e+00 
1.0000000e+00 9.4117651e+00 0.0000000e+00 
1.0000000e+00 9.5588236e+00 0.0000000e+00 
1.0000000e+00 9.7058821e+00 0.0000000e+00 
1.0000000e+00 9.8529415e+00 0.0000000e+00 
5.0212586e-01 4.8703580e+00 0.0000000e+00 
5.1041055e-01 1.3732977e-01 0.0000000e+00 
1.3055173e-01 6.6499180e-01 0.0000000e+00 
8.7327349e-01 4.3372407e+00 0.0000000e+00 
8.7331611e-01 3.8958969e+00 0.0000000e+00 
8.7347627e-01 3.4562511e+00 0.0000000e+00 
8.7357801e-01 2.8680170e+00 0.0000000e+00 
1.2843554e-01 2.1327813e+00 0.0000000e+00 
1.2975387e-01 1.5449892e+00 0.0000000e+00 
1.3308091e-01 1.1039938e+00 0.0000000e+00 
1.2937543e-01 2.5737903e+00 0.0000000e+00 
1.2735668e-01 3.1617646e+00 0.0000000e+00 
8.7375563e-01 1.8386052e+00 0.0000000e+00 
8.7355548e-01 2.2778318e+00 0.0000000e+00 
1.2753446e-01 4.1915216e+00 0.0000000e+00 
8.7915283e-01 8.0759794e-01 0.0000000e+00 
8.8115031e-01 1.2498868e+00 0.0000000e+00 
1.2781374e-01 3.7501886e+00 0.0000000e+00 
8.7352717e-01 3.1621344e+00 0.0000000e+00 
1.2961270e-01 1.8389882e+00 0.0000000e+00 
1.2731366e-01 4.4857054e+00 0.0000000e+00 
1.2885660e-01 2.8684020e+00 0.0000000e+00 
8.7380636e-01 1.5444875e+00 0.0000000e+00 
8.7362880e-01 2.5738993e+00 0.0000000e+00 
1.2735668e-01 3.4558823e+00 0.0000000e+00 
8.7264335e-01 5.1470590e-01 0.0000000e+00 
8.7611687e-01 4.6317782e+00 0.0000000e+00 
1.3446054e-01 3.7013325e-01 0.0000000e+00 
1.2296320e-01 4.7760825e+00 0.0000000e+00 
8.8210768e-01 2.2118840e-01 0.0000000e+00 
2.1798968e-01 1.0548568e-01 0.0000000e+00 
7.7656764e-01 4.8704844e+00 0.0000000e+00 
1.2667844e-01 4.6331582e+00 0.0000000e+00 
2.5353336e-01 4.5619426e+00 0.0000000e+00 
2.5451174e-01 4.4132285e+00 0.0000000e+00 
3.8040194e-01 4.4881525e+00 0.0000000e+00 
3.8161713e-01 4.3403850e+00 0.0000000e+00 
5.0654775e-01 4.4141955e+00 0.0000000e+00 
5.0629890e-01 4.2659345e+00 0.0000000e+00 
5.0658631e-01 4.5616083e+00 0.0000000e+00 
3.8184282e-01 4.1932206e+00 0.0000000e+00 
5.0831819e-01 4.1188259e+00 0.0000000e+00 
3.8249290e-01 4.0462651e+00 0.0000000e+00 
5.0818664e-01 3.9732957e+00 0.0000000e+00 
3.8265404e-01 3.8991868e+00 0.0000000e+00 
5.0769192e-01 3.8249388e+00 0.0000000e+00 
3.8307732e-01 3.7517705e+00 0.0000000e+00 
5.0990808e-01 3.6776419e+00 0.0000000e+00 
3.8416636e-01 3.6049941e+00 0.0000000e+00 
5.1177651e-01 3.5322094e+00 0.0000000e+00 
3.8460994e-01 3.4584429e+00 0.0000000e+00 
5.1256055e-01 3.3855147e+00 0.0000000e+00 
3.8520575e-01 3.3115354e+00 0.0000000e+00 
5.1318693e-01 3.2385471e+00 0.0000000e+00 
3.8561273e-01 3.1645203e+00 0.0000000e+00 
5.1375473e-01 3.0915136e+00 0.0000000e+00 
3.8616878e-01 3.0174749e+00 0.0000000e+00 
5.1433694e-01 2.9444630e+00 0.0000000e+00 
3.8656160e-01 2.8704205e+00 0.0000000e+00 
5.1489413e-01 2.7974076e+00 0.0000000e+00 
3.8711417e-01 2.7233641e+00 0.0000000e+00 
5.1547360e-01 2.6503508e+00 0.0000000e+00 
3.8750717e-01 2.5763063e+00 0.0000000e+00 
5.1603019e-01 2.5032935e+00 0.0000000e+00 
3.8805979e-01 2.4292488e+00 0.0000000e+00 
5.1422137e-01 2.3562264e+00 0.0000000e+00 
3.8765049e-01 2.2821872e+00 0.0000000e+00 
5.1307547e-01 2.2071202e+00 0.0000000e+00 
3.8778570e-01 2.1347876e+00 0.0000000e+00 
5.1568961e-01 2.0596735e+00 0.0000000e+00 
3.9013749e-01 1.9876142e+00 0.0000000e+00 
5.1808232e-01 1.9145784e+00 0.0000000e+00 
3.8994926e-01 1.8408588e+00 0.0000000e+00 
5.1884413e-01 1.7678982e+00 0.0000000e+00 
[...]
POINT_DATA 628
FIELD FieldData 2
VELOCITY 3 628  float
0.0000000e+00 0.0000000e+00 0.0000000e+00 
0.0000000e+00 0.0000000e+00 0.0000000e+00 
0.0000000e+00 -2.5539109e-03 0.0000000e+00 
0.0000000e+00 -2.3342927e-03 0.0000000e+00 
0.0000000e+00 -3.1609047e-04 0.0000000e+00 
0.0000000e+00 -3.0586921e-04 0.0000000e+00 
0.0000000e+00 0.0000000e+00 0.0000000e+00 
0.0000000e+00 0.0000000e+00 0.0000000e+00 
0.0000000e+00 0.0000000e+00 0.0000000e+00 
0.0000000e+00 0.0000000e+00 0.0000000e+00 
0.0000000e+00 0.0000000e+00 0.0000000e+00 
0.0000000e+00 0.0000000e+00 0.0000000e+00 
-1.0248090e-04 -2.6159433e-03 0.0000000e+00 
2.3259927e-04 -2.6835853e-03 0.0000000e+00 
-1.9892842e-04 -2.5501635e-03 0.0000000e+00 
3.3464815e-04 -1.8721831e-03 0.0000000e+00 
1.7547577e-06 -2.2256041e-03 0.0000000e+00 
-1.6539737e-04 -2.5726077e-03 0.0000000e+00 
-3.2414860e-06 -3.8532465e-04 0.0000000e+00 
2.3862831e-05 -3.6340172e-04 0.0000000e+00 
-2.2441864e-05 -3.2578045e-04 0.0000000e+00 
1.6833779e-05 -3.1842050e-04 0.0000000e+00 
-1.8889346e-05 -3.3333758e-04 0.0000000e+00 
1.3921529e-05 -3.9004968e-04 0.0000000e+00 
0.0000000e+00 -3.6267439e-04 0.0000000e+00 
0.0000000e+00 7.2191491e-05 0.0000000e+00 
0.0000000e+00 2.5888399e-04 0.0000000e+00 
0.0000000e+00 5.7964306e-04 0.0000000e+00 
0.0000000e+00 4.3788587e-04 0.0000000e+00 
0.0000000e+00 4.2219396e-04 0.0000000e+00 
0.0000000e+00 4.3550320e-04 0.0000000e+00 
0.0000000e+00 3.7097099e-05 0.0000000e+00 
0.0000000e+00 -1.5059716e-04 0.0000000e+00 
0.0000000e+00 -3.8468020e-04 0.0000000e+00 
0.0000000e+00 -2.7241991e-04 0.0000000e+00 
0.0000000e+00 -8.1272119e-05 0.0000000e+00 
0.0000000e+00 -2.8387379e-04 0.0000000e+00 
0.0000000e+00 -1.2374217e-04 0.0000000e+00 
0.0000000e+00 6.9260800e-06 0.0000000e+00 
0.0000000e+00 -6.6377143e-05 0.0000000e+00 
0.0000000e+00 8.1646513e-06 0.0000000e+00 
0.0000000e+00 -1.4737851e-05 0.0000000e+00 
0.0000000e+00 1.8698412e-04 0.0000000e+00 
0.0000000e+00 4.4620890e-04 0.0000000e+00 
0.0000000e+00 1.8777858e-04 0.0000000e+00 
0.0000000e+00 1.0560907e-04 0.0000000e+00 
0.0000000e+00 2.1543195e-04 0.0000000e+00 
0.0000000e+00 -1.6865137e-04 0.0000000e+00 
0.0000000e+00 -4.7974169e-04 0.0000000e+00 
0.0000000e+00 -3.0843180e-04 0.0000000e+00 
0.0000000e+00 -2.6690177e-04 0.0000000e+00 
0.0000000e+00 -2.6139931e-04 0.0000000e+00 
0.0000000e+00 8.2037863e-05 0.0000000e+00 
0.0000000e+00 3.7345191e-04 0.0000000e+00 
0.0000000e+00 3.8764381e-04 0.0000000e+00 
0.0000000e+00 3.7571311e-04 0.0000000e+00 
0.0000000e+00 2.9644737e-04 0.0000000e+00 
0.0000000e+00 2.9056851e-04 0.0000000e+00 
0.0000000e+00 3.5640152e-04 0.0000000e+00 
0.0000000e+00 3.8765674e-04 0.0000000e+00 
0.0000000e+00 3.8545587e-04 0.0000000e+00 
0.0000000e+00 8.2104620e-05 0.0000000e+00 
0.0000000e+00 -2.6125237e-04 0.0000000e+00 
0.0000000e+00 -2.7745630e-04 0.0000000e+00 
0.0000000e+00 -3.2572690e-04 0.0000000e+00 
0.0000000e+00 -4.7368888e-04 0.0000000e+00 
0.0000000e+00 -1.4080941e-04 0.0000000e+00 
0.0000000e+00 2.1734527e-04 0.0000000e+00 
0.0000000e+00 1.0819222e-04 0.0000000e+00 
0.0000000e+00 2.0755341e-04 0.0000000e+00 
0.0000000e+00 4.2920731e-04 0.0000000e+00 
0.0000000e+00 1.6020059e-04 0.0000000e+00 
0.0000000e+00 5.0877102e-06 0.0000000e+00 
0.0000000e+00 1.4259515e-05 0.0000000e+00 
0.0000000e+00 -6.5684137e-05 0.0000000e+00 
0.0000000e+00 1.7406941e-05 0.0000000e+00 
0.0000000e+00 -1.5265317e-04 0.0000000e+00 
0.0000000e+00 -2.6695619e-04 0.0000000e+00 
0.0000000e+00 -4.1761006e-05 0.0000000e+00 
0.0000000e+00 -2.9583951e-04 0.0000000e+00 
0.0000000e+00 -3.8729666e-04 0.0000000e+00 
0.0000000e+00 -1.4677046e-04 0.0000000e+00 
0.0000000e+00 -1.0738775e-05 0.0000000e+00 
0.0000000e+00 4.3313330e-04 0.0000000e+00 
0.0000000e+00 4.0374984e-04 0.0000000e+00 
0.0000000e+00 4.5319158e-04 0.0000000e+00 
0.0000000e+00 6.0179789e-04 0.0000000e+00 
0.0000000e+00 2.2918075e-04 0.0000000e+00 
0.0000000e+00 1.0128623e-04 0.0000000e+00 
0.0000000e+00 -3.8420301e-04 0.0000000e+00 
0.0000000e+00 -2.4528175e-03 0.0000000e+00 
0.0000000e+00 -2.0434428e-03 0.0000000e+00 
0.0000000e+00 -2.1682312e-03 0.0000000e+00 
0.0000000e+00 -2.0281826e-03 0.0000000e+00 
0.0000000e+00 -2.0567712e-03 0.0000000e+00 
0.0000000e+00 -1.8241554e-03 0.0000000e+00 
0.0000000e+00 -1.7764982e-03 0.0000000e+00 
0.0000000e+00 -1.4962935e-03 0.0000000e+00 
0.0000000e+00 -1.3332942e-03 0.0000000e+00 
0.0000000e+00 -1.1381250e-03 0.0000000e+00 
0.0000000e+00 -8.4909156e-04 0.0000000e+00 
0.0000000e+00 -5.8587705e-04 0.0000000e+00 
0.0000000e+00 -4.0981133e-04 0.0000000e+00 
0.0000000e+00 -3.1405268e-04 0.0000000e+00 
0.0000000e+00 4.2158877e-05 0.0000000e+00 
0.0000000e+00 1.3449982e-04 0.0000000e+00 
0.0000000e+00 6.4300839e-04 0.0000000e+00 
0.0000000e+00 6.9482723e-04 0.0000000e+00 
0.0000000e+00 7.8618043e-04 0.0000000e+00 
0.0000000e+00 4.4108581e-04 0.0000000e+00 
0.0000000e+00 6.0657243e-04 0.0000000e+00 
0.0000000e+00 5.8828626e-04 0.0000000e+00 
0.0000000e+00 7.9735112e-04 0.0000000e+00 
0.0000000e+00 6.2221970e-04 0.0000000e+00 
0.0000000e+00 3.4104663e-04 0.0000000e+00 
0.0000000e+00 -1.2744946e-04 0.0000000e+00 
0.0000000e+00 -1.6773044e-04 0.0000000e+00 
0.0000000e+00 -3.5767059e-04 0.0000000e+00 
0.0000000e+00 -3.3481396e-04 0.0000000e+00 
0.0000000e+00 -5.7978119e-04 0.0000000e+00 
0.0000000e+00 -3.7929963e-04 0.0000000e+00 
0.0000000e+00 -3.2171066e-04 0.0000000e+00 
0.0000000e+00 -2.3032773e-04 0.0000000e+00 
0.0000000e+00 -2.2419314e-04 0.0000000e+00 
0.0000000e+00 -3.4804331e-04 0.0000000e+00 
0.0000000e+00 -3.4837119e-04 0.0000000e+00 
0.0000000e+00 -5.7804736e-04 0.0000000e+00 
0.0000000e+00 -3.1730786e-04 0.0000000e+00 
0.0000000e+00 -4.0789807e-04 0.0000000e+00 
0.0000000e+00 -1.4896735e-04 0.0000000e+00 
0.0000000e+00 -1.5931601e-04 0.0000000e+00 
0.0000000e+00 3.7830079e-04 0.0000000e+00 
0.0000000e+00 5.6263985e-04 0.0000000e+00 
0.0000000e+00 8.4193464e-04 0.0000000e+00 
0.0000000e+00 5.8176595e-04 0.0000000e+00 
0.0000000e+00 5.7546876e-04 0.0000000e+00 
0.0000000e+00 5.0036918e-04 0.0000000e+00 
0.0000000e+00 7.6909782e-04 0.0000000e+00 
0.0000000e+00 6.9526519e-04 0.0000000e+00 
0.0000000e+00 6.4614567e-04 0.0000000e+00 
0.0000000e+00 1.8463390e-04 0.0000000e+00 
0.0000000e+00 3.4776895e-05 0.0000000e+00 
0.0000000e+00 -4.0296384e-04 0.0000000e+00 
0.0000000e+00 -3.1643067e-04 0.0000000e+00 
0.0000000e+00 -6.6682423e-04 0.0000000e+00 
0.0000000e+00 -7.7578583e-04 0.0000000e+00 
0.0000000e+00 -1.1799810e-03 0.0000000e+00 
0.0000000e+00 -1.3494608e-03 0.0000000e+00 
0.0000000e+00 -1.4393879e-03 0.0000000e+00 
0.0000000e+00 -1.7946410e-03 0.0000000e+00 
0.0000000e+00 -1.8548134e-03 0.0000000e+00 
0.0000000e+00 -2.0042099e-03 0.0000000e+00 
0.0000000e+00 -2.0424807e-03 0.0000000e+00 
0.0000000e+00 -2.1570185e-03 0.0000000e+00 
0.0000000e+00 -2.1136082e-03 0.0000000e+00 
0.0000000e+00 -2.2686471e-03 0.0000000e+00 
-9.8362102e-07 -4.3204977e-04 0.0000000e+00 
1.9057005e-06 2.7511155e-04 0.0000000e+00 
1.0039954e-06 2.6021182e-04 0.0000000e+00 
-1.9658182e-06 5.7963998e-04 0.0000000e+00 
4.7195340e-06 2.2588650e-04 0.0000000e+00 
1.7915009e-06 -4.0191555e-04 0.0000000e+00 
3.4303373e-06 -3.6529258e-05 0.0000000e+00 
2.8914901e-06 3.6058377e-04 0.0000000e+00 
1.1216331e-05 9.9339471e-05 0.0000000e+00 
-2.8573784e-06 -2.5969697e-04 0.0000000e+00 
-5.4862280e-06 -2.2929478e-05 0.0000000e+00 
-5.5560554e-06 -1.8009213e-04 0.0000000e+00 
-4.8708062e-06 9.6011892e-05 0.0000000e+00 
-2.2682866e-06 3.8136917e-05 0.0000000e+00 
7.4501463e-06 3.6940040e-04 0.0000000e+00 
-6.2224631e-06 -1.1443744e-04 0.0000000e+00 
-5.0116314e-06 -4.2830984e-04 0.0000000e+00 
4.5395527e-06 -9.9425946e-05 0.0000000e+00 
-5.0010467e-06 -1.6249971e-04 0.0000000e+00 
-2.5722143e-06 7.7838282e-05 0.0000000e+00 
-1.2107090e-06 4.2538447e-04 0.0000000e+00 
4.5280872e-06 -2.6968826e-05 0.0000000e+00 
3.6014237e-06 9.3144779e-05 0.0000000e+00 
4.5205070e-06 -3.3195498e-05 0.0000000e+00 
-6.3214229e-06 -3.7783076e-04 0.0000000e+00 
4.0576524e-06 4.0144462e-04 0.0000000e+00 
-1.5864139e-06 1.9873297e-04 0.0000000e+00 
7.4493948e-07 3.7008116e-04 0.0000000e+00 
7.5295566e-06 -1.3813915e-04 0.0000000e+00 
-7.7644727e-06 3.5333660e-04 0.0000000e+00 
-8.3100158e-06 2.1763175e-04 0.0000000e+00 
-7.8595826e-07 -3.9652956e-04 0.0000000e+00 
-2.3600771e-05 1.8578187e-04 0.0000000e+00 
-1.6764378e-05 2.5750420e-04 0.0000000e+00 
3.3555236e-06 5.7325687e-04 0.0000000e+00 
1.1580405e-05 4.3469353e-04 0.0000000e+00 
-2.5933607e-05 5.7452481e-04 0.0000000e+00 
-3.4114149e-07 5.7045009e-04 0.0000000e+00 
-9.9512299e-06 4.3280632e-04 0.0000000e+00 
2.3348566e-06 2.6567499e-04 0.0000000e+00 
6.2750593e-07 3.5728471e-04 0.0000000e+00 
3.6044273e-06 4.2169273e-04 0.0000000e+00 
-6.5285121e-08 4.8860797e-04 0.0000000e+00 
2.6938922e-06 4.3935038e-04 0.0000000e+00 
1.2405374e-05 2.2639023e-04 0.0000000e+00 
-2.7620017e-06 -6.0155216e-06 0.0000000e+00 
-3.7149998e-06 -6.6326247e-05 0.0000000e+00 
2.8985489e-06 -1.6558896e-04 0.0000000e+00 
-8.9493860e-06 -2.5663007e-04 0.0000000e+00 
-4.3343384e-06 -3.6930694e-04 0.0000000e+00 
-6.6682101e-06 -3.9767742e-04 0.0000000e+00 
5.8089527e-06 -2.5430106e-04 0.0000000e+00 
1.3767152e-05 -1.0645922e-04 0.0000000e+00 
1.9745889e-07 -4.4045944e-05 0.0000000e+00 
4.6112823e-06 -1.7787052e-04 0.0000000e+00 
3.0075887e-06 -2.8917324e-04 0.0000000e+00 
-8.0567042e-07 -2.8497702e-04 0.0000000e+00 
4.1841113e-07 -1.4904114e-04 0.0000000e+00 
-6.2901909e-06 -1.2271264e-05 0.0000000e+00 
1.6001600e-06 1.6064258e-05 0.0000000e+00 
-6.2420469e-08 -3.4407902e-05 0.0000000e+00 
-2.2726365e-06 -6.5472937e-05 0.0000000e+00 
-2.3857208e-06 -2.6621525e-05 0.0000000e+00 
-1.5309730e-06 1.6019154e-05 0.0000000e+00 
7.0743481e-06 1.2788573e-05 0.0000000e+00 
-1.3835590e-06 -8.8446603e-07 0.0000000e+00 
-7.6455935e-06 3.0643372e-05 0.0000000e+00 
1.6639255e-07 1.6693454e-04 0.0000000e+00 
6.7446022e-06 3.5124618e-04 0.0000000e+00 
3.7122625e-06 4.1743647e-04 0.0000000e+00 
-2.4672306e-06 3.6277753e-04 0.0000000e+00 
-5.2037894e-06 2.0224112e-04 0.0000000e+00 
1.6462099e-06 7.9722151e-05 0.0000000e+00 
2.6361006e-06 9.8462413e-05 0.0000000e+00 
-2.5208149e-06 1.9488107e-04 0.0000000e+00 
-4.5568190e-06 2.1913357e-04 0.0000000e+00 
6.6400612e-06 9.1165151e-05 0.0000000e+00 
1.0008763e-06 -1.5360420e-04 0.0000000e+00 
-4.7076046e-06 -3.8639750e-04 0.0000000e+00 
3.6952461e-06 -4.6950558e-04 0.0000000e+00 
-5.4449865e-06 -4.1857982e-04 0.0000000e+00 
2.0344512e-06 -3.1666463e-04 0.0000000e+00 
-7.3173993e-07 -2.4844456e-04 0.0000000e+00 
1.2329531e-06 -2.6692683e-04 0.0000000e+00 
4.1716175e-06 -2.9439179e-04 0.0000000e+00 
1.7013058e-07 -2.6594815e-04 0.0000000e+00 
-5.9891488e-07 -1.2849468e-04 0.0000000e+00 
2.5653958e-06 7.1108494e-05 0.0000000e+00 
1.9409417e-06 2.4672129e-04 0.0000000e+00 
2.0757650e-06 3.6641708e-04 0.0000000e+00 
3.6728793e-06 3.8872438e-04 0.0000000e+00 
1.8908540e-06 3.8769320e-04 0.0000000e+00 
-4.2513943e-07 3.7748157e-04 0.0000000e+00 
-1.8929968e-06 5.0720776e-04 0.0000000e+00 
3.7480750e-06 4.3097525e-04 0.0000000e+00 
1.3976586e-05 -2.3224133e-04 0.0000000e+00 
6.0281900e-06 3.6722171e-04 0.0000000e+00 
-2.5131911e-05 1.5184926e-04 0.0000000e+00 
6.8491950e-06 -1.3284593e-04 0.0000000e+00 
7.6070028e-06 -2.8448331e-04 0.0000000e+00 
-3.1368763e-06 -3.0129426e-04 0.0000000e+00 
6.2147169e-06 -4.9176564e-05 0.0000000e+00 
1.1476554e-06 2.1314931e-05 0.0000000e+00 
4.1870117e-06 1.8449094e-04 0.0000000e+00 
9.3030139e-06 -3.6815956e-04 0.0000000e+00 
8.9286237e-07 2.5540745e-04 0.0000000e+00 
-1.3571374e-06 -2.6377439e-04 0.0000000e+00 
-1.0919957e-05 -4.7619175e-04 0.0000000e+00 
-6.6416319e-06 -6.7813448e-06 0.0000000e+00 
-6.2465147e-06 4.0609200e-04 0.0000000e+00 
1.9333447e-06 3.7306736e-04 0.0000000e+00 
-1.1680650e-06 3.8285786e-04 0.0000000e+00 
-4.0221857e-06 3.5273092e-04 0.0000000e+00 
-7.6445176e-06 9.3128867e-05 0.0000000e+00 
2.7050781e-05 -1.3285517e-04 0.0000000e+00 
-3.2599874e-05 -1.3917273e-04 0.0000000e+00 
-6.2877693e-06 3.8854245e-04 0.0000000e+00 
1.0880746e-06 3.7248543e-04 0.0000000e+00 
3.1961831e-06 2.4145174e-04 0.0000000e+00 
7.0679785e-06 1.8797533e-04 0.0000000e+00 
-1.0090826e-05 -6.3373533e-05 0.0000000e+00 
-7.0629935e-06 -1.4924476e-04 0.0000000e+00 
-2.6505913e-06 -6.0699025e-05 0.0000000e+00 
-1.2527239e-05 -3.8008858e-04 0.0000000e+00 
2.6890539e-05 1.6724505e-04 0.0000000e+00 
-5.2549794e-06 3.9885650e-04 0.0000000e+00 
1.2400589e-06 3.6353909e-04 0.0000000e+00 
2.6351981e-06 3.6521902e-04 0.0000000e+00 
-3.6735321e-06 3.9940228e-04 0.0000000e+00 
1.0763994e-05 5.6236942e-04 0.0000000e+00 
-5.8925657e-06 4.2185743e-04 0.0000000e+00 
-1.0755754e-05 2.6099710e-04 0.0000000e+00 
4.5487204e-06 -1.2898247e-04 0.0000000e+00 
1.6882558e-06 3.6435350e-04 0.0000000e+00 
-2.6718606e-06 -2.7703494e-04 0.0000000e+00 
-5.5558994e-06 -3.1942371e-04 0.0000000e+00 
-3.7377004e-06 -4.2450224e-04 0.0000000e+00 
3.5186965e-06 -2.6944163e-04 0.0000000e+00 
5.2562227e-06 -2.6922132e-04 0.0000000e+00 
4.0706499e-07 -4.2802919e-04 0.0000000e+00 
-1.0049707e-05 3.3606094e-04 0.0000000e+00 
-1.7144159e-05 1.8384072e-04 0.0000000e+00 
8.8419438e-06 3.6247075e-04 0.0000000e+00 
-5.4886755e-06 -4.2455958e-05 0.0000000e+00 
9.2967066e-06 2.0594181e-05 0.0000000e+00 
4.3575660e-06 1.7701814e-05 0.0000000e+00 
4.7543431e-06 -2.5785639e-04 0.0000000e+00 
1.2733335e-05 -2.4776917e-04 0.0000000e+00 
6.3256562e-06 -8.5206884e-05 0.0000000e+00 
-1.2052109e-06 -2.9147559e-04 0.0000000e+00 
8.1561893e-07 -2.7110984e-04 0.0000000e+00 
6.9518715e-06 -4.1068365e-06 0.0000000e+00 
-4.4603157e-06 -2.9685113e-04 0.0000000e+00 
-6.8763766e-06 3.4647333e-04 0.0000000e+00 
-1.5019480e-05 4.4705695e-04 0.0000000e+00 
6.1056212e-06 5.0930778e-04 0.0000000e+00 
-5.8262517e-06 -1.0336327e-04 0.0000000e+00 
1.2928484e-05 -2.1874755e-05 0.0000000e+00 
4.7912017e-06 -2.2565623e-04 0.0000000e+00 
6.4933661e-06 3.5110055e-04 0.0000000e+00 
-8.5435768e-06 1.0696339e-04 0.0000000e+00 
-1.3209484e-05 2.0672644e-04 0.0000000e+00 
8.6354457e-06 -1.4514847e-04 0.0000000e+00 
-7.4750114e-06 2.1455226e-04 0.0000000e+00 
-1.0644286e-05 6.8424470e-06 0.0000000e+00 
3.2108703e-06 3.7025446e-05 0.0000000e+00 
-2.2915110e-06 -9.7776072e-05 0.0000000e+00 
-3.7750735e-06 -1.1812620e-04 0.0000000e+00 
-7.1043328e-06 -3.0607512e-04 0.0000000e+00 
3.7399627e-06 1.8296049e-04 0.0000000e+00 
4.2414626e-06 -2.6362308e-05 0.0000000e+00 
2.1383578e-06 -3.6891582e-04 0.0000000e+00 
-7.8170815e-06 9.6871663e-05 0.0000000e+00 
4.5922238e-06 4.4076887e-04 0.0000000e+00 
-2.1159281e-06 1.7957964e-04 0.0000000e+00 
-2.8424488e-06 9.8902477e-05 0.0000000e+00 
-2.5550132e-06 -5.0603750e-05 0.0000000e+00 
3.4442351e-07 -1.2244870e-05 0.0000000e+00 
-1.0783216e-05 -1.6325114e-04 0.0000000e+00 
-9.9199406e-06 -4.0004580e-04 0.0000000e+00 
-2.9931271e-06 4.9490749e-04 0.0000000e+00 
1.7215567e-06 4.2928450e-04 0.0000000e+00 
4.6874070e-06 4.5082087e-04 0.0000000e+00 
3.4895877e-06 -3.8394396e-04 0.0000000e+00 
1.9348261e-05 -1.5920485e-04 0.0000000e+00 
-4.4968856e-06 3.2367516e-05 0.0000000e+00 
2.2842432e-05 7.3667987e-05 0.0000000e+00 
-4.1972871e-06 -3.6863692e-04 0.0000000e+00 
-7.5552742e-07 7.5479642e-05 0.0000000e+00 
-6.5509289e-06 8.6628781e-05 0.0000000e+00 
1.3592840e-05 5.9080136e-04 0.0000000e+00 
6.0310922e-06 -1.1699513e-04 0.0000000e+00 
3.8591884e-06 3.4569160e-04 0.0000000e+00 
-4.1744388e-06 4.3303860e-04 0.0000000e+00 
4.5536481e-06 2.4015414e-04 0.0000000e+00 
1.1829065e-05 2.6720727e-04 0.0000000e+00 
6.0349398e-06 5.8419909e-04 0.0000000e+00 
5.1595393e-06 3.4180240e-04 0.0000000e+00 
5.9609752e-06 4.1388461e-04 0.0000000e+00 
-7.3117058e-06 2.2658546e-04 0.0000000e+00 
1.0567458e-05 1.4800307e-05 0.0000000e+00 
-1.8257034e-06 -7.0462047e-05 0.0000000e+00 
-1.3115907e-05 -1.5800746e-04 0.0000000e+00 
1.0119878e-05 -3.6894987e-04 0.0000000e+00 
-1.5532623e-05 -2.7273319e-04 0.0000000e+00 
1.5376678e-05 -5.2983207e-05 0.0000000e+00 
-1.4415957e-05 -2.7291264e-04 0.0000000e+00 
-2.2767198e-07 -2.9484858e-04 0.0000000e+00 
1.1406789e-05 -1.5915289e-04 0.0000000e+00 
-9.0513477e-06 1.1885668e-05 0.0000000e+00 
1.2684870e-05 -7.9520549e-05 0.0000000e+00 
-2.4854637e-06 3.3945192e-04 0.0000000e+00 
-3.9594015e-06 1.0910714e-05 0.0000000e+00 
-4.9520572e-06 5.1038536e-05 0.0000000e+00 
5.7777015e-06 4.2674883e-04 0.0000000e+00 
2.7406733e-07 2.1879263e-04 0.0000000e+00 
1.3245890e-06 1.0118871e-04 0.0000000e+00 
1.4760420e-06 2.0913765e-04 0.0000000e+00 
-1.9538577e-06 -3.2752447e-04 0.0000000e+00 
2.7737997e-06 -1.3468305e-04 0.0000000e+00 
5.3389027e-07 -4.7019630e-04 0.0000000e+00 
-1.2927127e-05 3.7209649e-04 0.0000000e+00 
6.5126355e-06 3.8673979e-04 0.0000000e+00 
-8.1014614e-06 3.6129061e-04 0.0000000e+00 
-4.0966593e-06 -2.5199229e-04 0.0000000e+00 
5.9430213e-06 -2.6172205e-04 0.0000000e+00 
-6.0345849e-07 7.3981646e-05 0.0000000e+00 
-2.2292859e-06 2.2480357e-04 0.0000000e+00 
8.9487903e-06 2.0289174e-04 0.0000000e+00 
-3.3751770e-05 -4.0151193e-04 0.0000000e+00 
4.4720276e-05 -4.2096886e-04 0.0000000e+00 
-4.1369345e-05 -4.1978521e-04 0.0000000e+00 
4.1639702e-05 -4.6744783e-04 0.0000000e+00 
-1.3696105e-05 2.0704755e-04 0.0000000e+00 
8.8510142e-06 2.1995345e-04 0.0000000e+00 
1.1513977e-06 3.2882360e-04 0.0000000e+00 
1.0255069e-04 -2.3522596e-03 0.0000000e+00 
7.0139922e-06 -2.7586301e-04 0.0000000e+00 
-2.8665268e-05 -2.0390020e-03 0.0000000e+00 
-7.8684516e-06 -4.3720676e-04 0.0000000e+00 
-5.8489704e-06 -1.5142066e-03 0.0000000e+00 
-1.2038776e-05 -1.2072134e-04 0.0000000e+00 
-1.7862161e-05 -7.0383295e-04 0.0000000e+00 
2.8314722e-05 5.9153989e-04 0.0000000e+00 
-1.0657360e-05 4.5581115e-04 0.0000000e+00 
7.9068559e-06 -1.6238965e-04 0.0000000e+00 
9.3772514e-06 4.8773622e-04 0.0000000e+00 
-8.2446213e-06 4.9467402e-04 0.0000000e+00 
-4.1608855e-05 -1.9906848e-03 0.0000000e+00 
3.6688409e-06 -5.1851140e-04 0.0000000e+00 
1.2202178e-05 -3.6956195e-04 0.0000000e+00 
4.0564828e-05 -1.5935258e-03 0.0000000e+00 
-1.5816135e-05 -2.0704984e-03 0.0000000e+00 
2.7091871e-06 6.5787812e-04 0.0000000e+00 
1.6276539e-05 -1.0111822e-03 0.0000000e+00 
-2.0220230e-05 -2.5915416e-04 0.0000000e+00 
1.1720957e-05 4.4700081e-04 0.0000000e+00 
2.3678616e-05 8.4861531e-04 0.0000000e+00 
1.2760313e-06 -4.8637061e-04 0.0000000e+00 
8.7165072e-06 -8.5497988e-05 0.0000000e+00 
1.7143386e-05 7.6189038e-04 0.0000000e+00 
-2.4713576e-05 -1.1391344e-03 0.0000000e+00 
1.4182908e-05 -2.1004956e-03 0.0000000e+00 
-2.1147364e-06 -2.5278633e-04 0.0000000e+00 
1.3771374e-05 -3.4761132e-04 0.0000000e+00 
-9.4303097e-05 -2.3284510e-03 0.0000000e+00 
-2.2472042e-04 -2.0712181e-03 0.0000000e+00 
1.3200307e-05 -2.0413243e-04 0.0000000e+00 
-1.0821193e-05 -2.6562679e-04 0.0000000e+00 
-9.7165375e-06 -3.4564856e-04 0.0000000e+00 
-9.3367032e-07 -6.1325921e-04 0.0000000e+00 
5.3686749e-06 -4.8938917e-04 0.0000000e+00 
-1.6948121e-05 -4.4483636e-04 0.0000000e+00 
-2.8093459e-07 -6.0895417e-04 0.0000000e+00 
1.7768290e-06 -3.2131068e-04 0.0000000e+00 
1.0694336e-06 -3.6200599e-04 0.0000000e+00 
6.9656899e-06 -3.6511864e-04 0.0000000e+00 
-2.6083057e-07 -3.8390647e-04 0.0000000e+00 
-7.6183560e-06 -3.1481261e-04 0.0000000e+00 
5.0829244e-06 -1.1365806e-04 0.0000000e+00 
2.3251687e-05 -1.0603720e-04 0.0000000e+00 
1.1388950e-06 -1.5664224e-04 0.0000000e+00 
-1.1064323e-05 4.0568360e-05 0.0000000e+00 
-8.5966276e-06 3.4316088e-04 0.0000000e+00 
7.9132442e-06 4.9091311e-04 0.0000000e+00 
-3.5768133e-07 5.5148447e-04 0.0000000e+00 
-1.3287332e-05 6.4641167e-04 0.0000000e+00 
6.2976433e-06 8.7654131e-04 0.0000000e+00 
-1.3723453e-05 8.1689365e-04 0.0000000e+00 
1.2735465e-05 6.0222676e-04 0.0000000e+00 
1.5680225e-05 5.3153938e-04 0.0000000e+00 
-2.9730127e-05 5.7346409e-04 0.0000000e+00 
1.7277136e-05 5.7883613e-04 0.0000000e+00 
1.1911704e-05 4.8068754e-04 0.0000000e+00 
-1.9722766e-05 5.3506216e-04 0.0000000e+00 
-4.0360042e-06 7.2576123e-04 0.0000000e+00 
2.6457024e-05 8.2110713e-04 0.0000000e+00 
2.6845144e-06 7.0401799e-04 0.0000000e+00 