# vtk DataFile Version 4.0
vtk output
ASCII
DATASET UNSTRUCTURED_GRID
POINTS 628 float
0.0000000e+00 0.0000000e+00 0.0000000e+00 
1.0000000e+00 0.0000000e+00 0.0000000e+00 
1.0000000e+00 1.0000000e+01 0.0000000e+00 
0.0000000e+00 1.0000000e+01 0.0000000e+00 
0.0000000e+00 5.0000000e+00 0.0000000e+00 
1.0000000e+00 5.0000000e+00 0.0000000e+00 
1.4285715e-01 0.0000000e+00 0.0000000e+00 
2.8571430e-01 0.0000000e+00 0.0000000e+00 
4.2857143e-01 0.0000000e+00 0.0000000e+00 
5.7142860e-01 0.0000000e+00 0.0000000e+00 
7.1428573e-01 0.0000000e+00 0.0000000e+00 
8.5714287e-01 0.0000000e+00 0.0000000e+00 
8.5714287e-01 1.0000000e+01 0.0000000e+00 
7.1428573e-01 1.0000000e+01 0.0000000e+00 
5.7142860e-01 1.0000000e+01 0.0000000e+00 
4.2857143e-01 1.0000000e+01 0.0000000e+00 
2.8571430e-01 1.0000000e+01 0.0000000e+00 
1.4285715e-01 1.0000000e+01 0.0000000e+00 
1.4285715e-01 5.0000000e+00 0.0000000e+00 
2.8571430e-01 5.0000000e+00 0.0000000e+00 
4.2857143e-01 5.0000000e+00 0.0000000e+00 
5.7142860e-01 5.0000000e+00 0.0000000e+00 
7.1428573e-01 5.0000000e+00 0.0000000e+00 
8.5714287e-01 5.0000000e+00 0.0000000e+00 
0.0000000e+00 4.8529410e+00 0.0000000e+00 
0.0000000e+00 4.7058825e+00 0.0000000e+00 
0.0000000e+00 4.5588236e+00 0.0000000e+00 
0.0000000e+00 4.4117646e+00 0.0000000e+00 
0.0000000e+00 4.2647057e+00 0.0000000e+00 
0.0000000e+00 4.1176472e+00 0.0000000e+00 
0.0000000e+00 3.9705882e+00 0.0000000e+00 
0.0000000e+00 3.8235295e+00 0.0000000e+00 
0.0000000e+00 3.6764705e+00 0.0000000e+00 
0.0000000e+00 3.5294118e+00 0.0000000e+00 
0.0000000e+00 3.3823528e+00 0.0000000e+00 
0.0000000e+00 3.2352941e+00 0.0000000e+00 
0.0000000e+00 3.0882354e+00 0.0000000e+00 
0.0000000e+00 2.9411764e+00 0.0000000e+00 
0.0000000e+00 2.7941177e+00 0.0000000e+00 
0.0000000e+00 2.6470587e+00 0.0000000e+00 
0.0000000e+00 2.5000000e+00 0.0000000e+00 
0.0000000e+00 2.3529413e+00 0.0000000e+00 
0.0000000e+00 2.2058823e+00 0.0000000e+00 
0.0000000e+00 2.0588236e+00 0.0000000e+00 
0.0000000e+00 1.9117647e+00 0.0000000e+00 
0.0000000e+00 1.7647059e+00 0.0000000e+00 
0.0000000e+00 1.6176471e+00 0.0000000e+00 
0.0000000e+00 1.4705882e+00 0.0000000e+00 
0.0000000e+00 1.3235294e+00 0.0000000e+00 
0.0000000e+00 1.1764706e+00 0.0000000e+00 
0.0000000e+00 1.0294118e+00 0.0000000e+00 
0.0000000e+00 8.8235295e-01 0.0000000e+00 
0.0000000e+00 7.3529410e-01 0.0000000e+00 
0.0000000e+00 5.8823532e-01 0.0000000e+00 
0.0000000e+00 4.4117647e-01 0.0000000e+00 
0.0000000e+00 2.9411766e-01 0.0000000e+00 
0.0000000e+00 1.4705883e-01 0.0000000e+00 
1.0000000e+00 1.4705883e-01 0.0000000e+00 
1.0000000e+00 2.9411766e-01 0.0000000e+00 
1.0000000e+00 4.4117647e-01 0.0000000e+00 
1.0000000e+00 5.8823532e-01 0.0000000e+00 
1.0000000e+00 7.3529410e-01 0.0000000e+00 
1.0000000e+00 8.8235295e-01 0.0000000e+00 
1.0000000e+00 1.0294118e+00 0.0000000e+00 
1.0000000e+00 1.1764706e+00 0.0000000e+00 
1.0000000e+00 1.3235294e+00 0.0000000e+00 
1.0000000e+00 1.4705882e+00 0.0000000e+00 
1.0000000e+00 1.6176471e+00 0.0000000e+00 
1.0000000e+00 1.7647059e+00 0.0000000e+00 
1.0000000e+00 1.9117647e+00 0.0000000e+00 
1.0000000e+00 2.0588236e+00 0.0000000e+00 
1.0000000e+00 2.2058823e+00 0.0000000e+00 
1.0000000e+00 2.3529413e+00 0.0000000e+00 
1.0000000e+00 2.5000000e+00 0.0000000e+00 
1.0000000e+00 2.6470587e+00 0.0000000e+00 
1.0000000e+00 2.7941177e+00 0.0000000e+00 
1.0000000e+00 2.9411764e+00 0.0000000e+00 
1.0000000e+00 3.0882354e+00 0.0000000e+00 
1.0000000e+00 3.2352941e+00 0.0000000e+00 
1.0000000e+00 3.3823528e+00 0.0000000e+00 
1.0000000e+00 3.5294118e+00 0.0000000e+00 
1.0000000e+00 3.6764705e+00 0.0000000e+00 
1.0000000e+00 3.8235295e+00 0.0000000e+00 
1.0000000e+00 3.9705882e+00 0.0000000e+00 
1.0000000e+00 4.1176472e+00 0.0000000e+00 
1.0000000e+00 4.2647057e+00 0.0000000e+00 
1.0000000e+00 4.4117646e+00 0.0000000e+00 
1.0000000e+00 4.5588236e+00 0.0000000e+00 
1.0000000e+00 4.7058825e+00 0.0000000e+00 
1.0000000e+00 4.8529410e+00 0.0000000e+00 
0.0000000e+00 9.8529415e+00 0.0000000e+00 
0.0000000e+00 9.7058821e+00 0.0000000e+00 
0.0000000e+00 9.5588236e+00 0.0000000e+00 
0.0000000e+00 9.4117651e+00 0.0000000e+00 
0.0000000e+00 9.2647057e+00 0.0000000e+00 
0.0000000e+00 9.1176472e+00 0.0000000e+00 
0.0000000e+00 8.9705887e+00 0.0000000e+00 
0.0000000e+00 8.8235292e+00 0.0000000e+00 
0.0000000e+00 8.6764708e+00 0.0000000e+00 
0.0000000e+00 8.5294113e+00 0.0000000e+00 
0.0000000e+00 8.3823528e+00 0.0000000e+00 
0.0000000e+00 8.2352943e+00 0.0000000e+00 
0.0000000e+00 8.0882349e+00 0.0000000e+00 
0.0000000e+00 7.9411764e+00 0.0000000e+00 
0.0000000e+00 7.7941175e+00 0.0000000e+00 
0.0000000e+00 7.6470590e+00 0.0000000e+00 
0.0000000e+00 7.5000000e+00 0.0000000e+00 
0.0000000e+00 7.3529410e+00 0.0000000e+00 
0.0000000e+00 7.2058825e+00 0.0000000e+00 
0.0000000e+00 7.0588236e+00 0.0000000e+00 
0.0000000e+00 6.9117646e+00 0.0000000e+00 
0.0000000e+00 6.7647057e+00 0.0000000e+00 
0.0000000e+00 6.6176472e+00 0.0000000e+00 
0.0000000e+00 6.4705882e+00 0.0000000e+00 
0.0000000e+00 6.3235292e+00 0.0000000e+00 
0.0000000e+00 6.1764708e+00 0.0000000e+00 
0.0000000e+00 6.0294118e+00 0.0000000e+00 
0.0000000e+00 5.8823528e+00 0.0000000e+00 
0.0000000e+00 5.7352943e+00 0.0000000e+00 
0.0000000e+00 5.5882354e+00 0.0000000e+00 
0.0000000e+00 5.4411764e+00 0.0000000e+00 
0.0000000e+00 5.2941175e+00 0.0000000e+00 
0.0000000e+00 5.1470590e+00 0.0000000e+00 
1.0000000e+00 5.1470590e+00 0.0000000e+00 
1.0000000e+00 5.2941175e+00 0.0000000e+00 
1.0000000e+00 5.4411764e+00 0.0000000e+00 
1.0000000e+00 5.5882354e+00 0.0000000e+00 
1.0000000e+00 5.7352943e+00 0.0000000e+00 
1.0000000e+00 5.8823528e+00 0.0000000e+00 
1.0000000e+00 6.0294118e+00 0.0000000e+00 
1.0000000e+00 6.1764708e+00 0.0000000e+00 
1.0000000e+00 6.3235292e+00 0.0000000e+00 
1.0000000e+00 6.4705882e+00 0.0000000e+00 
1.0000000e+00 6.6176472e+00 0.0000000e+00 
1.0000000e+00 6.7647057e+00 0.0000000e+00 
1.0000000e+00 6.9117646e+00 0.0000000e+00 
1.0000000e+00 7.0588236e+00 0.0000000e+00 
1.0000000e+00 7.2058825e+00 0.0000000e+00 
1.0000000e+00 7.3529410e+00 0.0000000e+00 
1.0000000e+00 7.5000000e+00 0.0000000e+00 
1.0000000e+00 7.6470590e+00 0.0000000e+00 
1.0000000e+00 7.7941175e+00 0.0000000e+00 
1.0000000e+00 7.9411764e+00 0.0000000e+00 
1.0000000e+00 8.0882349e+00 0.0000000e+00 
1.0000000e+00 8.2352943e+00 0.0000000e+00 
1.0000000e+00 8.3823528e+00 0.0000000e+00 
1.0000000e+00 8.5294113e+00 0.0000000e+00 
1.0000000e+00 8.6764708e+00 0.0000000e+00 
1.0000000e+00 8.8235292e+00 0.0000000e+00 
1.0000000e+00 8.9705887e+00 0.0000000e+00 
1.0000000e+00 9.1176472e+00 0.0000000e+00 
1.0000000e+00 9.2647057e+00 0.0000000e+00 
1.0000000e+00 9.4117651e+00 0.0000000e+00 
1.0000000e+00 9.5588236e+00 0.0000000e+00 
1.0000000e+00 9.7058821e+00 0.0000000e+00 
1.0000000e+00 9.8529415e+00 0.0000000e+00 
5.0212586e-01 4.8703580e+00 0.0000000e+00 
5.1041055e-01 1.3732977e-01 0.0000000e+00 
1.3055173e-01 6.6499180e-01 0.0000000e+00 
8.7327349e-01 4.3372407e+00 0.0000000e+00 
8.7331611e-01 3.8958969e+00 0.0000000e+00 
8.7347627e-01 3.4562511e+00 0.0000000e+00 
8.7357801e-01 2.8680170e+00 0.0000000e+00 
1.2843554e-01 2.1327813e+00 0.0000000e+00 
1.2975387e-01 1.5449892e+00 0.0000000e+00 
1.3308091e-01 1.1039938e+00 0.0000000e+00 
1.2937543e-01 2.5737903e+00 0.0000000e+00 
1.2735668e-01 3.1617646e+00 0.0000000e+00 
8.7375563e-01 1.8386052e+00 0.0000000e+00 
8.7355548e-01 2.2778318e+00 0.0000000e+00 
1.2753446e-01 4.1915216e+00 0.0000000e+00 
8.7915283e-01 8.0759794e-01 0.0000000e+00 
8.8115031e-01 1.2498868e+00 0.0000000e+00 
1.2781374e-01 3.7501886e+00 0.0000000e+00 
8.7352717e-01 3.1621344e+00 0.0000000e+00 
1.2961270e-01 1.8389882e+00 0.0000000e+00 
1.2731366e-01 4.4857054e+00 0.0000000e+00 
1.2885660e-01 2.8684020e+00 0.0000000e+00 
8.7380636e-01 1.5444875e+00 0.0000000e+00 
8.7362880e-01 2.5738993e+00 0.0000000e+00 
1.2735668e-01 3.4558823e+00 0.0000000e+00 
8.7264335e-01 5.1470590e-01 0.0000000e+00 
8.7611687e-01 4.6317782e+00 0.0000000e+00 
1.3446054e-01 3.7013325e-01 0.0000000e+00 
1.2296320e-01 4.7760825e+00 0.0000000e+00 
8.8210768e-01 2.2118840e-01 0.0000000e+00 
2.1798968e-01 1.0548568e-01 0.0000000e+00 
7.7656764e-01 4.8704844e+00 0.0000000e+00 
1.2667844e-01 4.6331582e+00 0.0000000e+00 
2.5353336e-01 4.5619426e+00 0.0000000e+00 
2.5451174e-01 4.4132285e+00 0.0000000e+00 
3.8040194e-01 4.4881525e+00 0.0000000e+00 
3.8161713e-01 4.3403850e+00 0.0000000e+00 
5.0654775e-01 4.4141955e+00 0.0000000e+00 
5.0629890e-01 4.2659345e+00 0.0000000e+00 
5.0658631e-01 4.5616083e+00 0.0000000e+00 
3.8184282e-01 4.1932206e+00 0.0000000e+00 
5.0831819e-01 4.1188259e+00 0.0000000e+00 
3.8249290e-01 4.0462651e+00 0.0000000e+00 
5.0818664e-01 3.9732957e+00 0.0000000e+00 
3.8265404e-01 3.8991868e+00 0.0000000e+00 
5.0769192e-01 3.8249388e+00 0.0000000e+00 
3.8307732e-01 3.7517705e+00 0.0000000e+00 
5.0990808e-01 3.6776419e+00 0.0000000e+00 
3.8416636e-01 3.6049941e+00 0.0000000e+00 
5.1177651e-01 3.5322094e+00 0.0000000e+00 
3.8460994e-01 3.4584429e+00 0.0000000e+00 
5.1256055e-01 3.3855147e+00 0.0000000e+00 
3.8520575e-01 3.3115354e+00 0.0000000e+00 
5.1318693e-01 3.2385471e+00 0.0000000e+00 
3.8561273e-01 3.1645203e+00 0.0000000e+00 
5.1375473e-01 3.0915136e+00 0.0000000e+00 
3.8616878e-01 3.0174749e+00 0.0000000e+00 
5.1433694e-01 2.9444630e+00 0.0000000e+00 
3.8656160e-01 2.8704205e+00 0.0000000e+00 
5.1489413e-01 2.7974076e+00 0.0000000e+00 
3.8711417e-01 2.7233641e+00 0.0000000e+00 
5.1547360e-01 2.6503508e+00 0.0000000e+00 
3.8750717e-01 2.5763063e+00 0.0000000e+00 
5.1603019e-01 2.5032935e+00 0.0000000e+00 
3.8805979e-01 2.4292488e+00 0.0000000e+00 
5.1422137e-01 2.3562264e+00 0.0000000e+00 
3.8765049e-01 2.2821872e+00 0.0000000e+00 
5.1307547e-01 2.2071202e+00 0.0000000e+00 
3.8778570e-01 2.1347876e+00 0.0000000e+00 
5.1568961e-01 2.0596735e+00 0.0000000e+00 
3.9013749e-01 1.9876142e+00 0.0000000e+00 
5.1808232e-01 1.9145784e+00 0.0000000e+00 
3.8994926e-01 1.8408588e+00 0.0000000e+00 
5.1884413e-01 1.7678982e+00 0.0000000e+00 
[...]
POINT_DATA 628
FIELD FieldData 2
VELOCITY 3 628  float
0.0000000e+00 0.0000000e+00 0.0000000e+00 
0.0000000e+00 0.0000000e+00 0.0000000e+00 
0.0000000e+00 3.4578266e-03 0.0000000e+00 
0.0000000e+00 3.2805882e-03 0.0000000e+00 
0.0000000e+00 1.5668647e-09 0.0000000e+00 
0.0000000e+00 1.5674959e-09 0.0000000e+00 
0.0000000e+00 0.0000000e+00 0.0000000e+00 
0.0000000e+00 0.0000000e+00 0.0000000e+00 
0.0000000e+00 0.0000000e+00 0.0000000e+00 
0.0000000e+00 0.0000000e+00 0.0000000e+00 
0.0000000e+00 0.0000000e+00 0.0000000e+00 
0.0000000e+00 0.0000000e+00 0.0000000e+00 
2.2218749e-04 3.6542681e-03 0.0000000e+00 
-2.2987877e-05 3.6454208e-03 0.0000000e+00 
1.9399505e-04 3.8890282e-03 0.0000000e+00 
-4.7280145e-04 3.7352978e-03 0.0000000e+00 
5.2554568e-04 3.9483230e-03 0.0000000e+00 
-4.7945004e-04 3.8828091e-03 0.0000000e+00 
-2.9703434e-12 1.6109286e-09 0.0000000e+00 
5.1795612e-12 1.6047698e-09 0.0000000e+00 
-1.1438552e-12 1.6016992e-09 0.0000000e+00 
-2.1569103e-13 1.5957172e-09 0.0000000e+00 
3.2336293e-12 1.6109055e-09 0.0000000e+00 
5.3297293e-12 1.6157021e-09 0.0000000e+00 
0.0000000e+00 6.9793138e-10 0.0000000e+00 
0.0000000e+00 2.9817879e-10 0.0000000e+00 
0.0000000e+00 1.2620666e-10 0.0000000e+00 
0.0000000e+00 5.3256236e-11 0.0000000e+00 
0.0000000e+00 2.2369646e-11 0.0000000e+00 
0.0000000e+00 9.3539577e-12 0.0000000e+00 
0.0000000e+00 3.8924276e-12 0.0000000e+00 
0.0000000e+00 1.6127544e-12 0.0000000e+00 
0.0000000e+00 6.6510350e-13 0.0000000e+00 
0.0000000e+00 2.7308741e-13 0.0000000e+00 
0.0000000e+00 1.1168311e-13 0.0000000e+00 
0.0000000e+00 4.5455413e-14 0.0000000e+00 
0.0000000e+00 1.8412072e-14 0.0000000e+00 
0.0000000e+00 7.4474838e-15 0.0000000e+00 
0.0000000e+00 2.9711292e-15 0.0000000e+00 
0.0000000e+00 1.2010237e-15 0.0000000e+00 
0.0000000e+00 4.6893396e-16 0.0000000e+00 
0.0000000e+00 1.5576573e-16 0.0000000e+00 
0.0000000e+00 7.0605378e-17 0.0000000e+00 
0.0000000e+00 2.2507298e-17 0.0000000e+00 
0.0000000e+00 6.2491812e-18 0.0000000e+00 
0.0000000e+00 -1.2851445e-17 0.0000000e+00 
0.0000000e+00 -9.9171742e-18 0.0000000e+00 
0.0000000e+00 5.2519658e-18 0.0000000e+00 
0.0000000e+00 1.2082965e-18 0.0000000e+00 
0.0000000e+00 8.5606055e-18 0.0000000e+00 
0.0000000e+00 1.2070542e-18 0.0000000e+00 
0.0000000e+00 2.4195395e-18 0.0000000e+00 
0.0000000e+00 2.0592972e-18 0.0000000e+00 
0.0000000e+00 -1.4062266e-18 0.0000000e+00 
0.0000000e+00 -2.3118722e-18 0.0000000e+00 
0.0000000e+00 4.0164007e-18 0.0000000e+00 
0.0000000e+00 5.0888164e-18 0.0000000e+00 
0.0000000e+00 -4.5990327e-19 0.0000000e+00 
0.0000000e+00 -8.8271442e-19 0.0000000e+00 
0.0000000e+00 2.3604736e-19 0.0000000e+00 
0.0000000e+00 3.5935336e-18 0.0000000e+00 
0.0000000e+00 1.2257579e-17 0.0000000e+00 
0.0000000e+00 1.1147582e-17 0.0000000e+00 
0.0000000e+00 1.5894906e-17 0.0000000e+00 
0.0000000e+00 5.7933716e-18 0.0000000e+00 
0.0000000e+00 5.5592030e-18 0.0000000e+00 
0.0000000e+00 2.9541800e-18 0.0000000e+00 
0.0000000e+00 2.3493501e-18 0.0000000e+00 
0.0000000e+00 -9.8457298e-18 0.0000000e+00 
0.0000000e+00 2.0033044e-17 0.0000000e+00 
0.0000000e+00 2.7303528e-17 0.0000000e+00 
0.0000000e+00 7.6979559e-17 0.0000000e+00 
0.0000000e+00 1.8507069e-16 0.0000000e+00 
0.0000000e+00 4.5317364e-16 0.0000000e+00 
0.0000000e+00 1.2126695e-15 0.0000000e+00 
0.0000000e+00 2.9625746e-15 0.0000000e+00 
0.0000000e+00 7.4098485e-15 0.0000000e+00 
0.0000000e+00 1.8410207e-14 0.0000000e+00 
0.0000000e+00 4.5420116e-14 0.0000000e+00 
0.0000000e+00 1.1165292e-13 0.0000000e+00 
0.0000000e+00 2.7307377e-13 0.0000000e+00 
0.0000000e+00 6.6565752e-13 0.0000000e+00 
0.0000000e+00 1.6150470e-12 0.0000000e+00 
0.0000000e+00 3.8960892e-12 0.0000000e+00 
0.0000000e+00 9.3583977e-12 0.0000000e+00 
0.0000000e+00 2.2385078e-11 0.0000000e+00 
0.0000000e+00 5.3233168e-11 0.0000000e+00 
0.0000000e+00 1.2601828e-10 0.0000000e+00 
0.0000000e+00 2.9731506e-10 0.0000000e+00 
0.0000000e+00 6.9584949e-10 0.0000000e+00 
0.0000000e+00 2.4022921e-03 0.0000000e+00 
0.0000000e+00 3.7927227e-03 0.0000000e+00 
0.0000000e+00 1.7802466e-03 0.0000000e+00 
0.0000000e+00 2.9542844e-03 0.0000000e+00 
0.0000000e+00 3.5794009e-03 0.0000000e+00 
0.0000000e+00 2.6071887e-03 0.0000000e+00 
0.0000000e+00 2.0036548e-03 0.0000000e+00 
0.0000000e+00 2.4445171e-03 0.0000000e+00 
0.0000000e+00 3.2619229e-03 0.0000000e+00 
0.0000000e+00 3.7242121e-03 0.0000000e+00 
0.0000000e+00 3.6003334e-03 0.0000000e+00 
0.0000000e+00 3.0436800e-03 0.0000000e+00 
0.0000000e+00 2.3169122e-03 0.0000000e+00 
0.0000000e+00 1.6230126e-03 0.0000000e+00 
0.0000000e+00 1.0630353e-03 0.0000000e+00 
0.0000000e+00 6.5877161e-04 0.0000000e+00 
0.0000000e+00 3.8971275e-04 0.0000000e+00 
0.0000000e+00 2.2162963e-04 0.0000000e+00 
0.0000000e+00 1.2182145e-04 0.0000000e+00 
0.0000000e+00 6.5029977e-05 0.0000000e+00 
0.0000000e+00 3.3818214e-05 0.0000000e+00 
0.0000000e+00 1.7170029e-05 0.0000000e+00 
0.0000000e+00 8.5449483e-06 0.0000000e+00 
0.0000000e+00 4.1768990e-06 0.0000000e+00 
0.0000000e+00 2.0065950e-06 0.0000000e+00 
0.0000000e+00 9.4988116e-07 0.0000000e+00 
0.0000000e+00 4.4368639e-07 0.0000000e+00 
0.0000000e+00 2.0473446e-07 0.0000000e+00 
0.0000000e+00 9.3352192e-08 0.0000000e+00 
0.0000000e+00 4.2062233e-08 0.0000000e+00 
0.0000000e+00 1.8777124e-08 0.0000000e+00 
0.0000000e+00 8.3201801e-09 0.0000000e+00 
0.0000000e+00 3.6628129e-09 0.0000000e+00 
0.0000000e+00 3.6779939e-09 0.0000000e+00 
0.0000000e+00 8.3510177e-09 0.0000000e+00 
0.0000000e+00 1.8837744e-08 0.0000000e+00 
0.0000000e+00 4.2181668e-08 0.0000000e+00 
0.0000000e+00 9.3523454e-08 0.0000000e+00 
0.0000000e+00 2.0517697e-07 0.0000000e+00 
0.0000000e+00 4.4491284e-07 0.0000000e+00 
0.0000000e+00 9.5270121e-07 0.0000000e+00 
0.0000000e+00 2.0120810e-06 0.0000000e+00 
0.0000000e+00 4.1862691e-06 0.0000000e+00 
0.0000000e+00 8.5648853e-06 0.0000000e+00 
0.0000000e+00 1.7201643e-05 0.0000000e+00 
0.0000000e+00 3.3848624e-05 0.0000000e+00 
0.0000000e+00 6.5072898e-05 0.0000000e+00 
0.0000000e+00 1.2191507e-04 0.0000000e+00 
0.0000000e+00 2.2170950e-04 0.0000000e+00 
0.0000000e+00 3.8977913e-04 0.0000000e+00 
0.0000000e+00 6.5877981e-04 0.0000000e+00 
0.0000000e+00 1.0628705e-03 0.0000000e+00 
0.0000000e+00 1.6224568e-03 0.0000000e+00 
0.0000000e+00 2.3158097e-03 0.0000000e+00 
0.0000000e+00 3.0420120e-03 0.0000000e+00 
0.0000000e+00 3.5996423e-03 0.0000000e+00 
0.0000000e+00 3.7271641e-03 0.0000000e+00 
0.0000000e+00 3.2699767e-03 0.0000000e+00 
0.0000000e+00 2.4535954e-03 0.0000000e+00 
0.0000000e+00 1.9994280e-03 0.0000000e+00 
0.0000000e+00 2.5771549e-03 0.0000000e+00 
0.0000000e+00 3.5384016e-03 0.0000000e+00 
0.0000000e+00 2.9889164e-03 0.0000000e+00 
0.0000000e+00 1.8954937e-03 0.0000000e+00 
0.0000000e+00 3.7802465e-03 0.0000000e+00 
0.0000000e+00 2.1652081e-03 0.0000000e+00 
1.4689775e-13 7.4760731e-10 0.0000000e+00 
8.9909745e-19 2.1048874e-18 0.0000000e+00 
-3.7183700e-18 -2.1771307e-18 0.0000000e+00 
4.9165651e-14 3.4165022e-11 0.0000000e+00 
1.5427862e-15 2.4861018e-12 0.0000000e+00 
3.0690419e-18 1.7502452e-13 0.0000000e+00 
-5.8876284e-18 4.7071370e-15 0.0000000e+00 
-3.1055377e-18 2.8319346e-17 0.0000000e+00 
-3.7666381e-18 1.6756876e-17 0.0000000e+00 
-9.0143238e-19 -2.3620374e-18 0.0000000e+00 
-1.0960119e-17 7.4172896e-16 0.0000000e+00 
1.3212357e-17 2.8972284e-14 0.0000000e+00 
-1.5267305e-18 -3.1364242e-18 0.0000000e+00 
-1.6807569e-17 1.0606829e-16 0.0000000e+00 
-1.3127975e-14 1.4461252e-11 0.0000000e+00 
2.2633589e-18 4.5055647e-18 0.0000000e+00 
-8.1450730e-18 8.5050752e-18 0.0000000e+00 
-2.2855336e-16 1.0367904e-12 0.0000000e+00 
4.8270753e-18 2.8991359e-14 0.0000000e+00 
3.8674441e-18 2.3103500e-17 0.0000000e+00 
-2.1880139e-13 8.1583393e-11 0.0000000e+00 
4.4567548e-18 4.7369068e-15 0.0000000e+00 
8.6573451e-18 -4.0250385e-18 0.0000000e+00 
-2.5811062e-19 7.4517094e-16 0.0000000e+00 
1.6094817e-17 1.7470223e-13 0.0000000e+00 
-6.0266973e-19 3.2809786e-18 0.0000000e+00 
1.0461688e-12 1.9123868e-10 0.0000000e+00 
-8.5935509e-19 1.2142214e-18 0.0000000e+00 
-1.5327197e-12 4.4098786e-10 0.0000000e+00 
1.8672948e-20 1.1555239e-18 0.0000000e+00 
8.5453641e-19 2.6089223e-18 0.0000000e+00 
-6.1875320e-13 7.4844053e-10 0.0000000e+00 
-1.0874568e-12 1.9259645e-10 0.0000000e+00 
-3.0560895e-13 1.2678616e-10 0.0000000e+00 
-5.4721896e-14 5.3271970e-11 0.0000000e+00 
-7.1970540e-14 8.2897078e-11 0.0000000e+00 
-1.1129349e-14 3.4854279e-11 0.0000000e+00 
6.0390061e-15 5.3658099e-11 0.0000000e+00 
-1.5381998e-16 2.2451964e-11 0.0000000e+00 
5.8494923e-14 1.2679498e-10 0.0000000e+00 
3.5669891e-15 1.4627327e-11 0.0000000e+00 
-1.5045262e-15 9.3992886e-12 0.0000000e+00 
-1.0615338e-15 6.1137965e-12 0.0000000e+00 
-2.1653204e-16 3.9537145e-12 0.0000000e+00 
-1.9820673e-16 2.5399693e-12 0.0000000e+00 
-3.3770748e-16 1.6266931e-12 0.0000000e+00 
1.8392776e-16 1.0483643e-12 0.0000000e+00 
-4.4873973e-17 6.7048293e-13 0.0000000e+00 
7.1462390e-17 4.3251299e-13 0.0000000e+00 
-2.3519310e-16 2.7797827e-13 0.0000000e+00 
-4.1802439e-17 1.7778454e-13 0.0000000e+00 
-7.4039302e-17 1.1396588e-13 0.0000000e+00 
-8.1459522e-18 7.2609480e-14 0.0000000e+00 
-1.2018910e-17 4.6458317e-14 0.0000000e+00 
-1.2027119e-17 2.9548084e-14 0.0000000e+00 
3.9762444e-18 1.8846966e-14 0.0000000e+00 
1.0087908e-17 1.1957542e-14 0.0000000e+00 
3.5607093e-19 7.6201117e-15 0.0000000e+00 
2.2054423e-17 4.8240940e-15 0.0000000e+00 
2.2727476e-18 3.0700540e-15 0.0000000e+00 
3.9347939e-18 1.9030876e-15 0.0000000e+00 
6.0821188e-18 1.2153506e-15 0.0000000e+00 
1.2135615e-17 7.5808316e-16 0.0000000e+00 
3.8910233e-18 4.8338730e-16 0.0000000e+00 
-5.5876348e-18 2.9688934e-16 0.0000000e+00 
1.1854852e-18 1.7906655e-16 0.0000000e+00 
-6.0870579e-18 9.8947874e-17 0.0000000e+00 
-1.3719802e-17 6.2583082e-17 0.0000000e+00 
3.9710782e-18 3.4131093e-17 0.0000000e+00 
-8.7311825e-18 1.3002825e-17 0.0000000e+00 
-7.6675212e-19 8.2523492e-18 0.0000000e+00 
3.1826074e-18 -1.7107512e-18 0.0000000e+00 
9.4146606e-19 -1.8593736e-18 0.0000000e+00 
2.9171480e-18 3.3991794e-18 0.0000000e+00 
3.8199891e-19 -6.1241533e-18 0.0000000e+00 
7.5925518e-19 -5.2689271e-18 0.0000000e+00 
-6.9762386e-18 1.2796397e-17 0.0000000e+00 
-2.0339159e-19 -2.1990759e-19 0.0000000e+00 
-3.6414604e-18 -2.5152749e-18 0.0000000e+00 
-2.7353728e-18 1.9824399e-18 0.0000000e+00 
1.6821959e-18 7.1231062e-18 0.0000000e+00 
-1.0568033e-17 5.9472921e-18 0.0000000e+00 
-4.0435822e-19 8.9161405e-19 0.0000000e+00 
8.0880159e-19 1.2260005e-17 0.0000000e+00 
4.4832941e-19 8.7249160e-19 0.0000000e+00 
-5.2594635e-19 7.5414635e-18 0.0000000e+00 
-2.7654172e-18 4.2779114e-18 0.0000000e+00 
-2.2338794e-18 7.7456349e-18 0.0000000e+00 
1.8728349e-18 4.5868127e-19 0.0000000e+00 
1.5399459e-18 7.1833117e-18 0.0000000e+00 
-1.7109288e-18 3.8740583e-19 0.0000000e+00 
-1.0145498e-19 3.5520893e-18 0.0000000e+00 
2.9701694e-18 2.5858268e-18 0.0000000e+00 
-6.6297549e-16 6.0208704e-12 0.0000000e+00 
1.1215460e-13 8.2101534e-11 0.0000000e+00 
-3.9629641e-16 4.3451898e-13 0.0000000e+00 
-9.6096434e-18 -6.3507284e-18 0.0000000e+00 
4.4957611e-13 1.9331303e-10 0.0000000e+00 
-1.9021223e-17 7.3030971e-14 0.0000000e+00 
1.4876072e-17 1.2052823e-14 0.0000000e+00 
-7.7011471e-19 9.9101052e-18 0.0000000e+00 
1.4024930e-17 1.9274457e-15 0.0000000e+00 
3.4781270e-18 2.9578774e-16 0.0000000e+00 
8.9539373e-18 -4.8009423e-19 0.0000000e+00 
4.7436529e-18 1.1238473e-18 0.0000000e+00 
-1.4490019e-18 3.9380377e-18 0.0000000e+00 
-2.0935956e-18 -9.3763249e-19 0.0000000e+00 
-1.3417860e-18 -4.5437052e-18 0.0000000e+00 
-3.1615343e-18 1.6846600e-16 0.0000000e+00 
-3.2103989e-16 3.9109770e-12 0.0000000e+00 
3.6010034e-18 1.6000175e-18 0.0000000e+00 
3.3858717e-18 1.6558393e-18 0.0000000e+00 
1.5303650e-19 -1.1317419e-19 0.0000000e+00 
8.1802180e-14 3.0236885e-10 0.0000000e+00 
-9.9811293e-14 4.4931969e-10 0.0000000e+00 
5.2239745e-13 4.5835719e-10 0.0000000e+00 
-6.8017588e-19 5.3618669e-19 0.0000000e+00 
2.4300767e-18 2.5072109e-18 0.0000000e+00 
-5.4018120e-18 -5.2517267e-18 0.0000000e+00 
-4.1752111e-18 6.4966066e-18 0.0000000e+00 
3.2799122e-18 1.2230149e-15 0.0000000e+00 
1.8629767e-17 7.5615021e-15 0.0000000e+00 
-2.1580937e-17 4.6172962e-14 0.0000000e+00 
2.5492292e-17 2.7547449e-13 0.0000000e+00 
-3.5519135e-13 1.9976168e-10 0.0000000e+00 
-4.5973230e-19 2.3816697e-18 0.0000000e+00 
-3.2243633e-18 6.8978467e-19 0.0000000e+00 
1.7814689e-18 1.9838721e-19 0.0000000e+00 
3.5435640e-18 2.9769918e-18 0.0000000e+00 
-5.2203000e-14 3.4499775e-11 0.0000000e+00 
1.8887566e-13 8.1003884e-11 0.0000000e+00 
1.2733236e-18 1.0423760e-17 0.0000000e+00 
-4.8012288e-18 4.5666028e-18 0.0000000e+00 
2.4362616e-18 1.0390787e-18 0.0000000e+00 
-2.4752708e-19 -3.3652285e-19 0.0000000e+00 
2.1961912e-18 -6.5073666e-18 0.0000000e+00 
2.8057220e-18 1.1933515e-17 0.0000000e+00 
-1.6681390e-18 3.8510539e-18 0.0000000e+00 
-1.8525496e-18 8.9576828e-18 0.0000000e+00 
9.8030229e-19 4.2434018e-18 0.0000000e+00 
1.2491001e-17 3.4025019e-17 0.0000000e+00 
-1.1997069e-17 5.5837100e-17 0.0000000e+00 
8.1682354e-19 3.8382119e-18 0.0000000e+00 
1.2824016e-17 1.8818671e-15 0.0000000e+00 
-4.2009550e-18 4.6395976e-16 0.0000000e+00 
5.9787064e-18 2.9489412e-16 0.0000000e+00 
2.8500134e-17 4.2748880e-13 0.0000000e+00 
1.8450182e-17 1.1280717e-13 0.0000000e+00 
-7.1014746e-18 7.1263497e-14 0.0000000e+00 
2.0902730e-17 1.8739926e-14 0.0000000e+00 
1.8553959e-17 1.1716463e-14 0.0000000e+00 
1.0832726e-17 3.0309253e-15 0.0000000e+00 
-1.0478659e-17 1.1726657e-14 0.0000000e+00 
1.0199250e-14 1.4478009e-11 0.0000000e+00 
2.0085647e-14 2.2173489e-11 0.0000000e+00 
3.3888350e-15 6.0060845e-12 0.0000000e+00 
5.6579932e-16 1.0390057e-12 0.0000000e+00 
6.7499706e-16 1.6024255e-12 0.0000000e+00 
1.6128831e-16 4.2919734e-13 0.0000000e+00 
-4.5403882e-18 1.6750814e-17 0.0000000e+00 
5.1252959e-18 1.0547732e-17 0.0000000e+00 
-8.0596575e-18 -2.1462473e-18 0.0000000e+00 
-1.3846389e-18 2.3521458e-18 0.0000000e+00 
-4.7869961e-16 2.5076000e-12 0.0000000e+00 
-4.2810336e-17 1.6219051e-12 0.0000000e+00 
3.9487625e-18 2.9188279e-16 0.0000000e+00 
-1.6369501e-17 7.1485501e-14 0.0000000e+00 
3.7777347e-18 3.7331931e-18 0.0000000e+00 
-5.5931393e-18 3.5434254e-18 0.0000000e+00 
-3.3233284e-18 1.9567294e-18 0.0000000e+00 
-6.8218971e-18 1.8698026e-15 0.0000000e+00 
3.9216596e-18 -7.1943968e-18 0.0000000e+00 
-2.2582033e-18 -2.4057818e-18 0.0000000e+00 
3.0270681e-18 9.7802783e-18 0.0000000e+00 
7.8435449e-18 5.3078198e-17 0.0000000e+00 
-3.6692797e-18 -1.0833886e-17 0.0000000e+00 
-1.8665450e-17 7.6853136e-16 0.0000000e+00 
-1.2850682e-18 4.8462368e-15 0.0000000e+00 
1.1431322e-18 2.9719144e-14 0.0000000e+00 
-1.0318860e-16 1.7885267e-13 0.0000000e+00 
-2.7906462e-15 6.0484135e-12 0.0000000e+00 
-5.9704420e-16 9.4106554e-12 0.0000000e+00 
-1.1140165e-14 2.2452609e-11 0.0000000e+00 
9.0906033e-18 -2.6449818e-18 0.0000000e+00 
1.6179397e-16 6.6970648e-13 0.0000000e+00 
-1.9043863e-18 9.0703670e-17 0.0000000e+00 
-1.4488765e-12 2.9904995e-10 0.0000000e+00 
8.7813562e-13 7.2790624e-10 0.0000000e+00 
-2.1210320e-19 3.8662604e-18 0.0000000e+00 
1.3817443e-12 2.9615524e-10 0.0000000e+00 
6.3228977e-14 5.3130424e-11 0.0000000e+00 
8.1542005e-13 4.4454795e-10 0.0000000e+00 
1.0522579e-18 4.2908112e-18 0.0000000e+00 
2.0235164e-16 3.9051535e-12 0.0000000e+00 
4.5217961e-13 1.2577767e-10 0.0000000e+00 
3.6643380e-19 -1.6525521e-18 0.0000000e+00 
2.1051135e-14 3.4344406e-11 0.0000000e+00 
9.6956939e-15 1.4506364e-11 0.0000000e+00 
4.3484037e-15 9.3309440e-12 0.0000000e+00 
-8.8637387e-16 2.4957887e-12 0.0000000e+00 
-3.6461712e-18 1.6919552e-16 0.0000000e+00 
-3.0357396e-17 1.0305445e-12 0.0000000e+00 
2.4882435e-16 6.7636879e-13 0.0000000e+00 
-1.0471369e-16 2.7848120e-13 0.0000000e+00 
1.1596595e-17 1.1399757e-13 0.0000000e+00 
-1.2946983e-17 4.6514635e-14 0.0000000e+00 
-2.3955980e-18 1.8867935e-14 0.0000000e+00 
-2.8951365e-18 3.5901268e-18 0.0000000e+00 
-9.8008846e-19 7.6187971e-15 0.0000000e+00 
3.4118872e-18 3.0401677e-15 0.0000000e+00 
2.7896162e-19 1.2183472e-15 0.0000000e+00 
-1.6077964e-17 3.6594368e-17 0.0000000e+00 
-1.0468672e-17 4.5248754e-16 0.0000000e+00 
2.2351456e-18 1.0079610e-16 0.0000000e+00 
2.3612543e-18 9.3886207e-18 0.0000000e+00 
-1.0693122e-17 7.9239146e-18 0.0000000e+00 
1.4066506e-18 -1.0252071e-19 0.0000000e+00 
3.8188269e-18 2.1740232e-18 0.0000000e+00 
-2.6668504e-18 8.3201729e-19 0.0000000e+00 
-6.9797390e-20 4.9261865e-18 0.0000000e+00 
-1.2181309e-18 1.1733243e-17 0.0000000e+00 
-6.7879796e-19 -2.2294278e-19 0.0000000e+00 
5.6445407e-18 3.8299385e-18 0.0000000e+00 
1.8323804e-18 1.0390049e-17 0.0000000e+00 
-7.1910897e-18 4.3712579e-18 0.0000000e+00 
8.4997290e-19 1.2703071e-18 0.0000000e+00 
-4.5927844e-19 8.7718757e-18 0.0000000e+00 
5.6026681e-20 2.9671657e-18 0.0000000e+00 
2.4279082e-19 1.0011198e-18 0.0000000e+00 
3.0967871e-12 9.3856600e-10 0.0000000e+00 
-1.3186034e-12 9.3121294e-10 0.0000000e+00 
1.0799344e-11 8.6921736e-10 0.0000000e+00 
-1.0177338e-11 8.8482843e-10 0.0000000e+00 
-4.7641974e-19 2.2437828e-18 0.0000000e+00 
-2.9168717e-19 -7.2931465e-19 0.0000000e+00 
8.3063373e-19 4.9256140e-18 0.0000000e+00 
1.2625425e-04 1.8892412e-03 0.0000000e+00 
1.0447252e-12 3.2603793e-09 0.0000000e+00 
-2.0804198e-05 3.5691743e-03 0.0000000e+00 
-2.9170673e-11 6.3061911e-08 0.0000000e+00 
1.2441386e-06 2.8612099e-03 0.0000000e+00 
5.0145148e-12 6.4952440e-07 0.0000000e+00 
-3.9641043e-07 3.3503573e-03 0.0000000e+00 
-1.1242956e-08 2.4305533e-05 0.0000000e+00 
-9.8760040e-09 5.0868699e-04 0.0000000e+00 
-6.7615908e-08 1.3215676e-03 0.0000000e+00 
2.4833474e-08 8.9078654e-05 0.0000000e+00 
1.0742559e-09 2.9073385e-06 0.0000000e+00 
-3.0572444e-06 3.1708700e-03 0.0000000e+00 
-2.3810045e-08 2.6848102e-03 0.0000000e+00 
6.7116354e-11 1.3843372e-07 0.0000000e+00 
3.3490273e-06 2.1266660e-03 0.0000000e+00 
-3.1416006e-05 2.2011593e-03 0.0000000e+00 
2.7722773e-08 2.9506616e-04 0.0000000e+00 
1.7267790e-07 3.7311735e-03 0.0000000e+00 
1.9434907e-08 1.3221168e-03 0.0000000e+00 
-2.3884639e-10 2.9193995e-06 0.0000000e+00 
3.7436614e-09 1.2124802e-05 0.0000000e+00 
1.3398413e-11 2.8139853e-08 0.0000000e+00 
2.9652572e-10 6.5119360e-07 0.0000000e+00 
-3.4802490e-09 1.6469827e-04 0.0000000e+00 
9.0910231e-07 3.5702400e-03 0.0000000e+00 
-2.7621725e-05 2.6203699e-03 0.0000000e+00 
1.1061593e-11 1.2556399e-08 0.0000000e+00 
3.2191966e-12 5.6497944e-09 0.0000000e+00 
-1.4152982e-04 3.1753259e-03 0.0000000e+00 
6.8339446e-05 2.1463169e-03 0.0000000e+00 
2.3866141e-12 3.2410434e-09 0.0000000e+00 
-1.4047933e-13 1.2484426e-08 0.0000000e+00 
1.1134421e-11 1.8462726e-08 0.0000000e+00 
2.4490406e-11 4.1755076e-08 0.0000000e+00 
6.7482304e-12 2.7684207e-08 0.0000000e+00 
2.4007289e-11 6.1973935e-08 0.0000000e+00 
1.3471898e-11 4.1479851e-08 0.0000000e+00 
2.4195148e-11 9.2643582e-08 0.0000000e+00 
7.9885135e-12 1.8471679e-08 0.0000000e+00 
1.0207430e-10 1.3684569e-07 0.0000000e+00 
1.4159239e-10 2.0336795e-07 0.0000000e+00 
2.3480967e-10 2.9850057e-07 0.0000000e+00 
1.2133786e-10 4.3732592e-07 0.0000000e+00 
4.1118278e-10 6.4189129e-07 0.0000000e+00 
3.8904663e-10 9.3489393e-07 0.0000000e+00 
5.7455879e-10 1.3650966e-06 0.0000000e+00 
7.5023959e-10 1.9747301e-06 0.0000000e+00 
1.0266683e-09 2.8623967e-06 0.0000000e+00 
1.3204089e-09 4.1455601e-06 0.0000000e+00 
3.7170791e-09 5.9178033e-06 0.0000000e+00 
3.0046610e-09 8.4963885e-06 0.0000000e+00 
4.1203991e-09 1.2012160e-05 0.0000000e+00 
7.9919413e-09 1.6947597e-05 0.0000000e+00 
6.4225425e-09 2.3869696e-05 0.0000000e+00 
7.3653600e-10 3.3600922e-05 0.0000000e+00 
1.6007851e-08 4.6513724e-05 0.0000000e+00 
3.2743156e-08 6.4702166e-05 0.0000000e+00 
4.8115179e-08 8.8420013e-05 0.0000000e+00 
3.2161228e-08 1.2034269e-04 0.0000000e+00 
4.0827452e-08 1.6319462e-04 0.0000000e+00 
1.2149691e-08 2.1876549e-04 0.0000000e+00 
3.3472055e-08 2.9210304e-04 0.0000000e+00 
2.5499977e-08 3.8490570e-04 0.0000000e+00 
6.1201952e-08 5.0429488e-04 0.0000000e+00 
-3.4001339e-08 6.5123971e-04 0.0000000e+00 
-7.9005630e-08 8.3443610e-04 0.0000000e+00 