# vtk DataFile Version 4.0
vtk output
ASCII
DATASET UNSTRUCTURED_GRID
POINTS 628 float
0.0000000e+00 0.0000000e+00 0.0000000e+00 
1.0000000e+00 0.0000000e+00 0.0000000e+00 
1.0000000e+00 1.0000000e+01 0.0000000e+00 
0.0000000e+00 1.0000000e+01 0.0000000e+00 
0.0000000e+00 5.0000000e+00 0.0000000e+00 
1.0000000e+00 5.0000000e+00 0.0000000e+00 
1.4285715e-01 0.0000000e+00 0.0000000e+00 
2.8571430e-01 0.0000000e+00 0.0000000e+00 
4.2857143e-01 0.0000000e+00 0.0000000e+00 
5.7142860e-01 0.0000000e+00 0.0000000e+00 
7.1428573e-01 0.0000000e+00 0.0000000e+00 
8.5714287e-01 0.0000000e+00 0.0000000e+00 
8.5714287e-01 1.0000000e+01 0.0000000e+00 
7.1428573e-01 1.0000000e+01 0.0000000e+00 
5.7142860e-01 1.0000000e+01 0.0000000e+00 
4.2857143e-01 1.0000000e+01 0.0000000e+00 
2.8571430e-01 1.0000000e+01 0.0000000e+00 
1.4285715e-01 1.0000000e+01 0.0000000e+00 
1.4285715e-01 5.0000000e+00 0.0000000e+00 
2.8571430e-01 5.0000000e+00 0.0000000e+00 
4.2857143e-01 5.0000000e+00 0.0000000e+00 
5.7142860e-01 5.0000000e+00 0.0000000e+00 
7.1428573e-01 5.0000000e+00 0.0000000e+00 
8.5714287e-01 5.0000000e+00 0.0000000e+00 
0.0000000e+00 4.8529410e+00 0.0000000e+00 
0.0000000e+00 4.7058825e+00 0.0000000e+00 
0.0000000e+00 4.5588236e+00 0.0000000e+00 
0.0000000e+00 4.4117646e+00 0.0000000e+00 
0.0000000e+00 4.2647057e+00 0.0000000e+00 
0.0000000e+00 4.1176472e+00 0.0000000e+00 
0.0000000e+00 3.9705882e+00 0.0000000e+00 
0.0000000e+00 3.8235295e+00 0.0000000e+00 
0.0000000e+00 3.6764705e+00 0.0000000e+00 
0.0000000e+00 3.5294118e+00 0.0000000e+00 
0.0000000e+00 3.3823528e+00 0.0000000e+00 
0.0000000e+00 3.2352941e+00 0.0000000e+00 
0.0000000e+00 3.0882354e+00 0.0000000e+00 
0.0000000e+00 2.9411764e+00 0.0000000e+00 
0.0000000e+00 2.7941177e+00 0.0000000e+00 
0.0000000e+00 2.6470587e+00 0.0000000e+00 
0.0000000e+00 2.5000000e+00 0.0000000e+00 
0.0000000e+00 2.3529413e+00 0.0000000e+00 
0.0000000e+00 2.2058823e+00 0.0000000e+00 
0.0000000e+00 2.0588236e+00 0.0000000e+00 
0.0000000e+00 1.9117647e+00 0.0000000e+00 
0.0000000e+00 1.7647059e+00 0.0000000e+00 
0.0000000e+00 1.6176471e+00 0.0000000e+00 
0.0000000e+00 1.4705882e+00 0.0000000e+00 
0.0000000e+00 1.3235294e+00 0.0000000e+00 
0.0000000e+00 1.1764706e+00 0.0000000e+00 
0.0000000e+00 1.0294118e+00 0.0000000e+00 
0.0000000e+00 8.8235295e-01 0.0000000e+00 
0.0000000e+00 7.3529410e-01 0.0000000e+00 
0.0000000e+00 5.8823532e-01 0.0000000e+00 
0.0000000e+00 4.4117647e-01 0.0000000e+00 
0.0000000e+00 2.9411766e-01 0.0000000e+00 
0.0000000e+00 1.4705883e-01 0.0000000e+00 
1.0000000e+00 1.4705883e-01 0.0000000e+00 
1.0000000e+00 2.9411766e-01 0.0000000e+00 
1.0000000e+00 4.4117647e-01 0.0000000e+00 
1.0000000e+00 5.8823532e-01 0.0000000e+00 
1.0000000e+00 7.3529410e-01 0.0000000e+00 
1.0000000e+00 8.8235295e-01 0.0000000e+00 
1.0000000e+00 1.0294118e+00 0.0000000e+00 
1.0000000e+00 1.1764706e+00 0.0000000e+00 
1.0000000e+00 1.3235294e+00 0.0000000e+00 
1.0000000e+00 1.4705882e+00 0.0000000e+00 
1.0000000e+00 1.6176471e+00 0.0000000e+00 
1.0000000e+00 1.7647059e+00 0.0000000e+00 
1.0000000e+00 1.9117647e+00 0.0000000e+00 
1.0000000e+00 2.0588236e+00 0.0000000e+00 
1.0000000e+00 2.2058823e+00 0.0000000e+00 
1.0000000e+00 2.3529413e+00 0.0000000e+00 
1.0000000e+00 2.5000000e+00 0.0000000e+00 
1.0000000e+00 2.6470587e+00 0.0000000e+00 
1.0000000e+00 2.7941177e+00 0.0000000e+00 
1.0000000e+00 2.9411764e+00 0.0000000e+00 
1.0000000e+00 3.0882354e+00 0.0000000e+00 
1.0000000e+00 3.2352941e+00 0.0000000e+00 
1.0000000e+00 3.3823528e+00 0.0000000e+00 
1.0000000e+00 3.5294118e+00 0.0000000e+00 
1.0000000e+00 3.6764705e+00 0.0000000e+00 
1.0000000e+00 3.8235295e+00 0.0000000e+00 
1.0000000e+00 3.9705882e+00 0.0000000e+00 
1.0000000e+00 4.1176472e+00 0.0000000e+00 
1.0000000e+00 4.2647057e+00 0.0000000e+00 
1.0000000e+00 4.4117646e+00 0.0000000e+00 
1.0000000e+00 4.5588236e+00 0.0000000e+00 
1.0000000e+00 4.7058825e+00 0.0000000e+00 
1.0000000e+00 4.8529410e+00 0.0000000e+00 
0.0000000e+00 9.8529415e+00 0.0000000e+00 
0.0000000e+00 9.7058821e+00 0.0000000e+00 
0.0000000e+00 9.5588236e+00 0.0000000e+00 
0.0000000e+00 9.4117651e+00 0.0000000e+00 
0.0000000e+00 9.2647057e+00 0.0000000e+00 
0.0000000e+00 9.1176472e+00 0.0000000e+00 
0.0000000e+00 8.9705887e+00 0.0000000e+00 
0.0000000e+00 8.8235292e+00 0.0000000e+00 
0.0000000e+00 8.6764708e+00 0.0000000e+00 
0.0000000e+00 8.5294113e+00 0.0000000e+00 
0.0000000e+00 8.3823528e+00 0.0000000e+00 
0.0000000e+00 8.2352943e+00 0.0000000e+00 
0.0000000e+00 8.0882349e+00 0.0000000e+00 
0.0000000e+00 7.9411764e+00 0.0000000e+00 
0.0000000e+00 7.7941175e+00 0.0000000e+00 
0.0000000e+00 7.6470590e+00 0.0000000e+00 
0.0000000e+00 7.5000000e+00 0.0000000e+00 
0.0000000e+00 7.3529410e+00 0.0000000e+00 
0.0000000e+00 7.2058825e+00 0.0000000e+00 
0.0000000e+00 7.0588236e+00 0.0000000e+00 
0.0000000e+00 6.9117646e+00 0.0000000e+00 
0.0000000e+00 6.7647057e+00 0.0000000e+00 
0.0000000e+00 6.6176472e+00 0.0000000e+00 
0.0000000e+00 6.4705882e+00 0.0000000e+00 
0.0000000e+00 6.3235292e+00 0.0000000e+00 
0.0000000e+00 6.1764708e+00 0.0000000e+00 
0.0000000e+00 6.0294118e+00 0.0000000e+00 
0.0000000e+00 5.8823528e+00 0.0000000e+00 
0.0000000e+00 5.7352943e+00 0.0000000e+00 
0.0000000e+00 5.5882354e+00 0.0000000e+00 
0.0000000e+00 5.4411764e+00 0.0000000e+00 
0.0000000e+00 5.2941175e+00 0.0000000e+00 
0.0000000e+00 5.1470590e+00 0.0000000e+00 
1.0000000e+00 5.1470590e+00 0.0000000e+00 
1.0000000e+00 5.2941175e+00 0.0000000e+00 
1.0000000e+00 5.4411764e+00 0.0000000e+00 
1.0000000e+00 5.5882354e+00 0.0000000e+00 
1.0000000e+00 5.7352943e+00 0.0000000e+00 
1.0000000e+00 5.8823528e+00 0.0000000e+00 
1.0000000e+00 6.0294118e+00 0.0000000e+00 
1.0000000e+00 6.1764708e+00 0.0000000e+00 
1.0000000e+00 6.3235292e+00 0.0000000e+00 
1.0000000e+00 6.4705882e+00 0.0000000e+00 
1.0000000e+00 6.6176472e+00 0.0000000e+00 
1.0000000e+00 6.7647057e+00 0.0000000e+00 
1.0000000e+00 6.9117646e+00 0.0000000e+00 
1.0000000e+00 7.0588236e+00 0.0000000e+00 
1.0000000e+00 7.2058825e+00 0.0000000e+00 
1.0000000e+00 7.3529410e+00 0.0000000e+00 
1.0000000e+00 7.5000000e+00 0.0000000e+00 
1.0000000e+00 7.6470590e+00 0.0000000e+00 
1.0000000e+00 7.7941175e+00 0.0000000e+00 
1.0000000e+00 7.9411764e+00 0.0000000e+00 
1.0000000e+00 8.0882349e+00 0.0000000e+00 
1.0000000e+00 8.2352943e+00 0.0000000e+00 
1.0000000e+00 8.3823528e+00 0.0000000e+00 
1.0000000e+00 8.5294113e+00 0.0000000e+00 
1.0000000e+00 8.6764708e+00 0.0000000e+00 
1.0000000e+00 8.8235292e+00 0.0000000e+00 
1.0000000e+00 8.9705887e+00 0.0000000e+00 
1.0000000e+00 9.1176472e+00 0.0000000e+00 
1.0000000e+00 9.2647057e+00 0.0000000e+00 
1.0000000e+00 9.4117651e+00 0.0000000e+00 
1.0000000e+00 9.5588236e+00 0.0000000e+00 
1.0000000e+00 9.7058821e+00 0.0000000e+00 
1.0000000e+00 9.8529415e+00 0.0000000e+00 
5.0212586e-01 4.8703580e+00 0.0000000e+00 
5.1041055e-01 1.3732977e-01 0.0000000e+00 
1.3055173e-01 6.6499180e-01 0.0000000e+00 
8.7327349e-01 4.3372407e+00 0.0000000e+00 
8.7331611e-01 3.8958969e+00 0.0000000e+00 
8.7347627e-01 3.4562511e+00 0.0000000e+00 
8.7357801e-01 2.8680170e+00 0.0000000e+00 
1.2843554e-01 2.1327813e+00 0.0000000e+00 
1.2975387e-01 1.5449892e+00 0.0000000e+00 
1.3308091e-01 1.1039938e+00 0.0000000e+00 
1.2937543e-01 2.5737903e+00 0.0000000e+00 
1.2735668e-01 3.1617646e+00 0.0000000e+00 
8.7375563e-01 1.8386052e+00 0.0000000e+00 
8.7355548e-01 2.2778318e+00 0.0000000e+00 
1.2753446e-01 4.1915216e+00 0.0000000e+00 
8.7915283e-01 8.0759794e-01 0.0000000e+00 
8.8115031e-01 1.2498868e+00 0.0000000e+00 
1.2781374e-01 3.7501886e+00 0.0000000e+00 
8.7352717e-01 3.1621344e+00 0.0000000e+00 
1.2961270e-01 1.8389882e+00 0.0000000e+00 
1.2731366e-01 4.4857054e+00 0.0000000e+00 
1.2885660e-01 2.8684020e+00 0.0000000e+00 
8.7380636e-01 1.5444875e+00 0.0000000e+00 
8.7362880e-01 2.5738993e+00 0.0000000e+00 
1.2735668e-01 3.4558823e+00 0.0000000e+00 
8.7264335e-01 5.1470590e-01 0.0000000e+00 
8.7611687e-01 4.6317782e+00 0.0000000e+00 
1.3446054e-01 3.7013325e-01 0.0000000e+00 
1.2296320e-01 4.7760825e+00 0.0000000e+00 
8.8210768e-01 2.2118840e-01 0.0000000e+00 
2.1798968e-01 1.0548568e-01 0.0000000e+00 
7.7656764e-01 4.8704844e+00 0.0000000e+00 
1.2667844e-01 4.6331582e+00 0.0000000e+00 
2.5353336e-01 4.5619426e+00 0.0000000e+00 
2.5451174e-01 4.4132285e+00 0.0000000e+00 
3.8040194e-01 4.4881525e+00 0.0000000e+00 
3.8161713e-01 4.3403850e+00 0.0000000e+00 
5.0654775e-01 4.4141955e+00 0.0000000e+00 
5.0629890e-01 4.2659345e+00 0.0000000e+00 
5.0658631e-01 4.5616083e+00 0.0000000e+00 
3.8184282e-01 4.1932206e+00 0.0000000e+00 
5.0831819e-01 4.1188259e+00 0.0000000e+00 
3.8249290e-01 4.0462651e+00 0.0000000e+00 
5.0818664e-01 3.9732957e+00 0.0000000e+00 
3.8265404e-01 3.8991868e+00 0.0000000e+00 
5.0769192e-01 3.8249388e+00 0.0000000e+00 
3.8307732e-01 3.7517705e+00 0.0000000e+00 
5.0990808e-01 3.6776419e+00 0.0000000e+00 
3.8416636e-01 3.6049941e+00 0.0000000e+00 
5.1177651e-01 3.5322094e+00 0.0000000e+00 
3.8460994e-01 3.4584429e+00 0.0000000e+00 
5.1256055e-01 3.3855147e+00 0.0000000e+00 
3.8520575e-01 3.3115354e+00 0.0000000e+00 
5.1318693e-01 3.2385471e+00 0.0000000e+00 
3.8561273e-01 3.1645203e+00 0.0000000e+00 
5.1375473e-01 3.0915136e+00 0.0000000e+00 
3.8616878e-01 3.0174749e+00 0.0000000e+00 
5.1433694e-01 2.9444630e+00 0.0000000e+00 
3.8656160e-01 2.8704205e+00 0.0000000e+00 
5.1489413e-01 2.7974076e+00 0.0000000e+00 
3.8711417e-01 2.7233641e+00 0.0000000e+00 
5.1547360e-01 2.6503508e+00 0.0000000e+00 
3.8750717e-01 2.5763063e+00 0.0000000e+00 
5.1603019e-01 2.5032935e+00 0.0000000e+00 
3.8805979e-01 2.4292488e+00 0.0000000e+00 
5.1422137e-01 2.3562264e+00 0.0000000e+00 
3.8765049e-01 2.2821872e+00 0.0000000e+00 
5.1307547e-01 2.2071202e+00 0.0000000e+00 
3.8778570e-01 2.1347876e+00 0.0000000e+00 
5.1568961e-01 2.0596735e+00 0.0000000e+00 
3.9013749e-01 1.9876142e+00 0.0000000e+00 
5.1808232e-01 1.9145784e+00 0.0000000e+00 
3.8994926e-01 1.8408588e+00 0.0000000e+00 
5.1884413e-01 1.7678982e+00 0.0000000e+00 
[...]
POINT_DATA 628
FIELD FieldData 2
VELOCITY 3 628  float
0.0000000e+00 0.0000000e+00 0.0000000e+00 
0.0000000e+00 0.0000000e+00 0.0000000e+00 
0.0000000e+00 3.1293766e-03 0.0000000e+00 
0.0000000e+00 3.2183006e-03 0.0000000e+00 
0.0000000e+00 2.6924978e-03 0.0000000e+00 
0.0000000e+00 2.7023146e-03 0.0000000e+00 
0.0000000e+00 0.0000000e+00 0.0000000e+00 
0.0000000e+00 0.0000000e+00 0.0000000e+00 
0.0000000e+00 0.0000000e+00 0.0000000e+00 
0.0000000e+00 0.0000000e+00 0.0000000e+00 
0.0000000e+00 0.0000000e+00 0.0000000e+00 
0.0000000e+00 0.0000000e+00 0.0000000e+00 
4.1616451e-05 2.9495992e-03 0.0000000e+00 
-4.2154579e-04 3.2166063e-03 0.0000000e+00 
2.5645393e-04 2.6493298e-03 0.0000000e+00 
2.6232915e-04 3.2353227e-03 0.0000000e+00 
-6.1341573e-04 3.1700779e-03 0.0000000e+00 
3.2219919e-04 2.7819509e-03 0.0000000e+00 
4.4184861e-07 2.7032683e-03 0.0000000e+00 
-1.2711407e-06 2.7076025e-03 0.0000000e+00 
-3.7722227e-06 2.7036730e-03 0.0000000e+00 
2.1273436e-07 2.7080027e-03 0.0000000e+00 
-8.3266002e-07 2.7065887e-03 0.0000000e+00 
-7.5341569e-07 2.7077727e-03 0.0000000e+00 
0.0000000e+00 2.4850247e-03 0.0000000e+00 
0.0000000e+00 2.6411742e-03 0.0000000e+00 
0.0000000e+00 2.9851981e-03 0.0000000e+00 
0.0000000e+00 3.1457811e-03 0.0000000e+00 
0.0000000e+00 2.9637073e-03 0.0000000e+00 
0.0000000e+00 2.6239527e-03 0.0000000e+00 
0.0000000e+00 2.4423383e-03 0.0000000e+00 
0.0000000e+00 2.5708249e-03 0.0000000e+00 
0.0000000e+00 2.8917005e-03 0.0000000e+00 
0.0000000e+00 3.1467567e-03 0.0000000e+00 
0.0000000e+00 3.1487753e-03 0.0000000e+00 
0.0000000e+00 2.9047374e-03 0.0000000e+00 
0.0000000e+00 2.5851182e-03 0.0000000e+00 
0.0000000e+00 2.3935940e-03 0.0000000e+00 
0.0000000e+00 2.4394763e-03 0.0000000e+00 
0.0000000e+00 2.6886796e-03 0.0000000e+00 
0.0000000e+00 3.0009479e-03 0.0000000e+00 
0.0000000e+00 3.2154466e-03 0.0000000e+00 
0.0000000e+00 3.2302481e-03 0.0000000e+00 
0.0000000e+00 3.0383668e-03 0.0000000e+00 
0.0000000e+00 2.7164621e-03 0.0000000e+00 
0.0000000e+00 2.3807061e-03 0.0000000e+00 
0.0000000e+00 2.1371087e-03 0.0000000e+00 
0.0000000e+00 2.0450950e-03 0.0000000e+00 
0.0000000e+00 2.1049308e-03 0.0000000e+00 
0.0000000e+00 2.2656315e-03 0.0000000e+00 
0.0000000e+00 2.4468184e-03 0.0000000e+00 
0.0000000e+00 2.5629550e-03 0.0000000e+00 
0.0000000e+00 2.5440711e-03 0.0000000e+00 
0.0000000e+00 2.3487455e-03 0.0000000e+00 
0.0000000e+00 1.9662853e-03 0.0000000e+00 
0.0000000e+00 1.4163172e-03 0.0000000e+00 
0.0000000e+00 7.4102363e-04 0.0000000e+00 
0.0000000e+00 7.4063096e-04 0.0000000e+00 
0.0000000e+00 1.4155867e-03 0.0000000e+00 
0.0000000e+00 1.9660711e-03 0.0000000e+00 
0.0000000e+00 2.3487918e-03 0.0000000e+00 
0.0000000e+00 2.5442292e-03 0.0000000e+00 
0.0000000e+00 2.5628246e-03 0.0000000e+00 
0.0000000e+00 2.4465283e-03 0.0000000e+00 
0.0000000e+00 2.2654221e-03 0.0000000e+00 
0.0000000e+00 2.1046819e-03 0.0000000e+00 
0.0000000e+00 2.0449269e-03 0.0000000e+00 
0.0000000e+00 2.1370417e-03 0.0000000e+00 
0.0000000e+00 2.3808873e-03 0.0000000e+00 
0.0000000e+00 2.7167760e-03 0.0000000e+00 
0.0000000e+00 3.0385647e-03 0.0000000e+00 
0.0000000e+00 3.2300833e-03 0.0000000e+00 
0.0000000e+00 3.2154571e-03 0.0000000e+00 
0.0000000e+00 3.0008818e-03 0.0000000e+00 
0.0000000e+00 2.6885741e-03 0.0000000e+00 
0.0000000e+00 2.4395590e-03 0.0000000e+00 
0.0000000e+00 2.3939356e-03 0.0000000e+00 
0.0000000e+00 2.5857966e-03 0.0000000e+00 
0.0000000e+00 2.9053933e-03 0.0000000e+00 
0.0000000e+00 3.1491867e-03 0.0000000e+00 
0.0000000e+00 3.1468959e-03 0.0000000e+00 
0.0000000e+00 2.8919096e-03 0.0000000e+00 
0.0000000e+00 2.5719679e-03 0.0000000e+00 
0.0000000e+00 2.4442689e-03 0.0000000e+00 
0.0000000e+00 2.6258845e-03 0.0000000e+00 
0.0000000e+00 2.9644093e-03 0.0000000e+00 
0.0000000e+00 3.1440211e-03 0.0000000e+00 
0.0000000e+00 2.9802602e-03 0.0000000e+00 
0.0000000e+00 2.6348645e-03 0.0000000e+00 
0.0000000e+00 2.4832617e-03 0.0000000e+00 
0.0000000e+00 2.7332357e-03 0.0000000e+00 
0.0000000e+00 2.6945276e-03 0.0000000e+00 
0.0000000e+00 3.0007975e-03 0.0000000e+00 
0.0000000e+00 2.5922833e-03 0.0000000e+00 
0.0000000e+00 3.0073507e-03 0.0000000e+00 
0.0000000e+00 2.7433273e-03 0.0000000e+00 
0.0000000e+00 2.8382379e-03 0.0000000e+00 
0.0000000e+00 2.5881769e-03 0.0000000e+00 
0.0000000e+00 3.0597206e-03 0.0000000e+00 
0.0000000e+00 2.4636209e-03 0.0000000e+00 
0.0000000e+00 3.1318243e-03 0.0000000e+00 
0.0000000e+00 2.5258842e-03 0.0000000e+00 
0.0000000e+00 2.8510394e-03 0.0000000e+00 
0.0000000e+00 3.0483883e-03 0.0000000e+00 
0.0000000e+00 2.4862066e-03 0.0000000e+00 
0.0000000e+00 2.9405900e-03 0.0000000e+00 
0.0000000e+00 2.9835149e-03 0.0000000e+00 
0.0000000e+00 2.4996428e-03 0.0000000e+00 
0.0000000e+00 2.8350998e-03 0.0000000e+00 
0.0000000e+00 3.0888258e-03 0.0000000e+00 
0.0000000e+00 2.6390329e-03 0.0000000e+00 
0.0000000e+00 2.5717802e-03 0.0000000e+00 
0.0000000e+00 3.0204365e-03 0.0000000e+00 
0.0000000e+00 3.0047882e-03 0.0000000e+00 
0.0000000e+00 2.5738908e-03 0.0000000e+00 
0.0000000e+00 2.5748075e-03 0.0000000e+00 
0.0000000e+00 2.9884600e-03 0.0000000e+00 
0.0000000e+00 3.0792400e-03 0.0000000e+00 
0.0000000e+00 2.7154719e-03 0.0000000e+00 
0.0000000e+00 2.4908807e-03 0.0000000e+00 
0.0000000e+00 2.7364006e-03 0.0000000e+00 
0.0000000e+00 3.0803294e-03 0.0000000e+00 
0.0000000e+00 3.0482495e-03 0.0000000e+00 
0.0000000e+00 3.0582345e-03 0.0000000e+00 
0.0000000e+00 3.0828037e-03 0.0000000e+00 
0.0000000e+00 2.7291060e-03 0.0000000e+00 
0.0000000e+00 2.4817006e-03 0.0000000e+00 
0.0000000e+00 2.7166686e-03 0.0000000e+00 
0.0000000e+00 3.0896177e-03 0.0000000e+00 
0.0000000e+00 2.9912456e-03 0.0000000e+00 
0.0000000e+00 2.5635189e-03 0.0000000e+00 
0.0000000e+00 2.5631629e-03 0.0000000e+00 
0.0000000e+00 3.0140989e-03 0.0000000e+00 
0.0000000e+00 3.0385447e-03 0.0000000e+00 
0.0000000e+00 2.5608153e-03 0.0000000e+00 
0.0000000e+00 2.6149163e-03 0.0000000e+00 
0.0000000e+00 3.1069070e-03 0.0000000e+00 
0.0000000e+00 2.8510885e-03 0.0000000e+00 
0.0000000e+00 2.4686889e-03 0.0000000e+00 
0.0000000e+00 2.9887739e-03 0.0000000e+00 
0.0000000e+00 2.9963893e-03 0.0000000e+00 
0.0000000e+00 2.4543693e-03 0.0000000e+00 
0.0000000e+00 3.0091954e-03 0.0000000e+00 
0.0000000e+00 2.8817693e-03 0.0000000e+00 
0.0000000e+00 2.4440342e-03 0.0000000e+00 
0.0000000e+00 3.2397246e-03 0.0000000e+00 
0.0000000e+00 2.4600220e-03 0.0000000e+00 
0.0000000e+00 2.9913785e-03 0.0000000e+00 
0.0000000e+00 2.7134868e-03 0.0000000e+00 
0.0000000e+00 2.8172939e-03 0.0000000e+00 
0.0000000e+00 2.8838124e-03 0.0000000e+00 
0.0000000e+00 2.7094025e-03 0.0000000e+00 
0.0000000e+00 2.7773981e-03 0.0000000e+00 
0.0000000e+00 2.9484606e-03 0.0000000e+00 
0.0000000e+00 2.5200150e-03 0.0000000e+00 
0.0000000e+00 2.9272675e-03 0.0000000e+00 
-1.2854770e-06 2.4804166e-03 0.0000000e+00 
3.2434738e-07 6.9458951e-04 0.0000000e+00 
1.7052177e-07 2.4744840e-03 0.0000000e+00 
-3.9722084e-07 3.0903516e-03 0.0000000e+00 
-5.7152869e-07 2.4724263e-03 0.0000000e+00 
1.8633456e-07 3.1836156e-03 0.0000000e+00 
-1.5484652e-07 2.3862259e-03 0.0000000e+00 
-1.0937642e-07 3.1572937e-03 0.0000000e+00 
-9.6891085e-08 2.0713375e-03 0.0000000e+00 
-5.2727984e-08 2.3580613e-03 0.0000000e+00 
2.3196307e-07 2.8470734e-03 0.0000000e+00 
-4.6010163e-07 2.7408605e-03 0.0000000e+00 
3.6544381e-07 2.5439467e-03 0.0000000e+00 
-8.7117130e-08 3.2504823e-03 0.0000000e+00 
-2.9855126e-08 2.7938092e-03 0.0000000e+00 
-3.5715183e-07 2.5735784e-03 0.0000000e+00 
-1.3894255e-07 2.1772962e-03 0.0000000e+00 
8.0476144e-07 2.7226328e-03 0.0000000e+00 
6.1919388e-07 2.7422218e-03 0.0000000e+00 
-8.9825129e-08 2.5444492e-03 0.0000000e+00 
5.8880568e-07 3.1036451e-03 0.0000000e+00 
-5.4754846e-08 2.3856745e-03 0.0000000e+00 
1.2033053e-07 2.0710123e-03 0.0000000e+00 
-6.9023844e-07 2.8465765e-03 0.0000000e+00 
-1.0170559e-07 3.1837539e-03 0.0000000e+00 
8.2644974e-08 2.1801936e-03 0.0000000e+00 
-3.7105917e-07 2.8040803e-03 0.0000000e+00 
4.8801030e-07 1.7191671e-03 0.0000000e+00 
3.1779082e-06 2.5128382e-03 0.0000000e+00 
-1.9289393e-08 1.0930693e-03 0.0000000e+00 
6.7112488e-08 5.3496897e-04 0.0000000e+00 
-6.3746702e-06 2.4726191e-03 0.0000000e+00 
-7.9699390e-07 2.8051243e-03 0.0000000e+00 
8.0163505e-07 2.9719814e-03 0.0000000e+00 
2.4051440e-06 3.1430856e-03 0.0000000e+00 
1.9745819e-06 3.1002588e-03 0.0000000e+00 
2.1916062e-06 3.0941423e-03 0.0000000e+00 
5.1671219e-07 3.1437459e-03 0.0000000e+00 
1.0615715e-06 2.9659558e-03 0.0000000e+00 
-4.2766723e-07 2.9745481e-03 0.0000000e+00 
8.3667072e-07 2.7989261e-03 0.0000000e+00 
8.6431066e-07 2.6292705e-03 0.0000000e+00 
2.8572521e-07 2.5040742e-03 0.0000000e+00 
2.8282156e-07 2.4474417e-03 0.0000000e+00 
5.4395593e-07 2.4716281e-03 0.0000000e+00 
-2.3825082e-07 2.5713583e-03 0.0000000e+00 
5.3673790e-07 2.7207274e-03 0.0000000e+00 
-3.3186191e-07 2.8894795e-03 0.0000000e+00 
6.5115813e-08 3.0394124e-03 0.0000000e+00 
-4.3568903e-08 3.1430393e-03 0.0000000e+00 
-2.3162953e-07 3.1831164e-03 0.0000000e+00 
2.0783624e-07 3.1509586e-03 0.0000000e+00 
-3.5668202e-07 3.0536868e-03 0.0000000e+00 
1.1877018e-07 2.9120108e-03 0.0000000e+00 
-3.4675614e-07 2.7473888e-03 0.0000000e+00 
-3.5021422e-08 2.5929378e-03 0.0000000e+00 
-1.8298810e-07 2.4682975e-03 0.0000000e+00 
-2.2996306e-07 2.3974557e-03 0.0000000e+00 
-2.1963790e-07 2.3865104e-03 0.0000000e+00 
-3.7426565e-07 2.4378835e-03 0.0000000e+00 
-3.7969553e-08 2.5424473e-03 0.0000000e+00 
-4.6615440e-07 2.6829960e-03 0.0000000e+00 
5.2670219e-09 2.8420840e-03 0.0000000e+00 
-3.9590716e-07 2.9944822e-03 0.0000000e+00 
6.5696440e-08 3.1243186e-03 0.0000000e+00 
-1.8657805e-07 3.2115807e-03 0.0000000e+00 
1.4487983e-07 3.2492017e-03 0.0000000e+00 
-1.0760299e-07 3.2294437e-03 0.0000000e+00 
-3.3920475e-07 3.1587551e-03 0.0000000e+00 
-1.1187164e-07 3.0387426e-03 0.0000000e+00 
-5.7118708e-08 2.8907086e-03 0.0000000e+00 
3.5662336e-07 2.7224305e-03 0.0000000e+00 
1.4126910e-07 2.5483619e-03 0.0000000e+00 
3.1321682e-07 2.3870857e-03 0.0000000e+00 
1.4148785e-07 2.2467591e-03 0.0000000e+00 
1.8719575e-07 2.1411162e-03 0.0000000e+00 
1.5801721e-10 2.0727254e-03 0.0000000e+00 
1.4026807e-07 2.0458701e-03 0.0000000e+00 
6.2279511e-08 2.0575910e-03 0.0000000e+00 
1.5681330e-08 2.1028521e-03 0.0000000e+00 
-6.4280357e-08 2.1748221e-03 0.0000000e+00 
-7.3938395e-08 2.2622028e-03 0.0000000e+00 
-6.0865091e-08 2.3562815e-03 0.0000000e+00 
-1.2922115e-07 2.4436708e-03 0.0000000e+00 
-7.0069852e-08 2.5161940e-03 0.0000000e+00 
-5.1398619e-08 2.5619362e-03 0.0000000e+00 
-2.3384295e-08 2.5746482e-03 0.0000000e+00 
-9.2191478e-08 2.5467933e-03 0.0000000e+00 
-2.6111019e-08 2.4764873e-03 0.0000000e+00 
-9.3907303e-08 2.3556300e-03 0.0000000e+00 
-7.9890633e-08 2.1937201e-03 0.0000000e+00 
-4.2144154e-07 1.9798789e-03 0.0000000e+00 
-3.9813233e-07 1.7270254e-03 0.0000000e+00 
5.6197518e-07 2.5013776e-03 0.0000000e+00 
-1.6886463e-06 3.0997493e-03 0.0000000e+00 
-3.6066311e-07 3.0364566e-03 0.0000000e+00 
5.2666570e-07 2.8927904e-03 0.0000000e+00 
-2.1730987e-06 2.7991056e-03 0.0000000e+00 
7.2902418e-07 3.0550619e-03 0.0000000e+00 
5.3878686e-08 2.4700628e-03 0.0000000e+00 
-1.8600323e-07 2.5152208e-03 0.0000000e+00 
-7.1094024e-07 2.5410298e-03 0.0000000e+00 
-6.2899909e-07 3.1250005e-03 0.0000000e+00 
3.4553833e-07 2.2487249e-03 0.0000000e+00 
1.9238334e-07 2.0572259e-03 0.0000000e+00 
-1.2413088e-07 2.4749753e-03 0.0000000e+00 
6.8031468e-08 2.5624717e-03 0.0000000e+00 
-3.8392173e-08 2.1036004e-03 0.0000000e+00 
2.0821061e-07 3.2140319e-03 0.0000000e+00 
4.5119867e-07 2.4454845e-03 0.0000000e+00 
-5.3203235e-07 1.4275704e-03 0.0000000e+00 
-2.5091600e-07 1.7260675e-03 0.0000000e+00 
1.9053836e-07 1.1097963e-03 0.0000000e+00 
-1.0361553e-06 2.6192286e-03 0.0000000e+00 
-5.2170626e-06 2.5052826e-03 0.0000000e+00 
3.0784627e-06 2.5021846e-03 0.0000000e+00 
8.5175152e-08 1.9813853e-03 0.0000000e+00 
-3.4806579e-08 1.4658563e-03 0.0000000e+00 
2.8606765e-08 2.1393499e-03 0.0000000e+00 
-1.1277587e-07 2.7198440e-03 0.0000000e+00 
2.2203085e-07 2.6854014e-03 0.0000000e+00 
-2.5718893e-07 2.3954974e-03 0.0000000e+00 
-4.7128370e-07 2.9093679e-03 0.0000000e+00 
8.1026421e-08 3.1452370e-03 0.0000000e+00 
7.5238910e-07 2.7881467e-03 0.0000000e+00 
3.2857052e-08 2.1900004e-03 0.0000000e+00 
7.1028211e-08 2.3584049e-03 0.0000000e+00 
3.7333677e-07 1.7119485e-03 0.0000000e+00 
-2.9700993e-07 2.1877915e-03 0.0000000e+00 
9.7484872e-07 3.0925856e-03 0.0000000e+00 
-1.0664439e-06 3.1022653e-03 0.0000000e+00 
-2.6069955e-07 2.4699294e-03 0.0000000e+00 
-4.2972637e-08 2.5743295e-03 0.0000000e+00 
-5.4984292e-07 1.1578294e-03 0.0000000e+00 
-5.4926517e-08 2.4451872e-03 0.0000000e+00 
-8.4351285e-08 2.2635194e-03 0.0000000e+00 
-7.9868570e-08 2.1761588e-03 0.0000000e+00 
-1.9611092e-07 2.3577351e-03 0.0000000e+00 
-2.0294426e-07 2.4480936e-03 0.0000000e+00 
2.1724704e-08 2.1765591e-03 0.0000000e+00 
-2.2962086e-08 3.1573165e-03 0.0000000e+00 
-8.5655429e-08 3.2282709e-03 0.0000000e+00 
2.0186511e-07 2.8886099e-03 0.0000000e+00 
1.8298577e-07 2.5446326e-03 0.0000000e+00 
2.7992007e-07 2.9972347e-03 0.0000000e+00 
9.7002378e-08 3.1283770e-03 0.0000000e+00 
3.0159248e-07 3.0422264e-03 0.0000000e+00 
-4.6815228e-07 3.1497050e-03 0.0000000e+00 
-3.2573814e-07 3.0494067e-03 0.0000000e+00 
-4.4230157e-07 2.5897922e-03 0.0000000e+00 
-1.8552960e-07 2.4637673e-03 0.0000000e+00 
9.3153474e-08 2.4382665e-03 0.0000000e+00 
3.2193023e-07 2.4648544e-03 0.0000000e+00 
7.4694054e-07 2.7956178e-03 0.0000000e+00 
3.5017595e-07 2.9614517e-03 0.0000000e+00 
3.9491587e-07 2.4992567e-03 0.0000000e+00 
-9.1847738e-07 2.7221909e-03 0.0000000e+00 
-1.2189812e-06 2.5746897e-03 0.0000000e+00 
-5.6228782e-07 3.0409012e-03 0.0000000e+00 
-6.9923395e-08 2.8883985e-03 0.0000000e+00 
-1.0205711e-08 2.3837558e-03 0.0000000e+00 
-1.8446677e-08 2.2436630e-03 0.0000000e+00 
-5.0226031e-08 2.0454987e-03 0.0000000e+00 
7.1688021e-07 2.4701692e-03 0.0000000e+00 
1.0930187e-06 2.5710552e-03 0.0000000e+00 
-4.4036628e-07 3.1300692e-03 0.0000000e+00 
6.6782769e-07 3.0505939e-03 0.0000000e+00 
5.0942841e-08 2.5741428e-03 0.0000000e+00 
-1.2512812e-07 2.5173754e-03 0.0000000e+00 
3.1286984e-07 2.2433666e-03 0.0000000e+00 
-6.0480704e-07 2.5451030e-03 0.0000000e+00 
-1.1666895e-07 2.0577109e-03 0.0000000e+00 
2.2620726e-07 2.0735443e-03 0.0000000e+00 
-1.8885301e-07 3.0410059e-03 0.0000000e+00 
-1.0961571e-08 3.2306798e-03 0.0000000e+00 
4.9486857e-07 2.5512746e-03 0.0000000e+00 
-8.9653230e-07 2.8402158e-03 0.0000000e+00 
-4.0070023e-07 2.3866810e-03 0.0000000e+00 
5.1888850e-07 2.7496901e-03 0.0000000e+00 
5.1748725e-07 3.1824156e-03 0.0000000e+00 
-6.3412941e-08 2.4990188e-03 0.0000000e+00 
-3.4955775e-08 2.6287863e-03 0.0000000e+00 
1.2235600e-06 2.9662675e-03 0.0000000e+00 
-7.2065487e-09 2.0579670e-03 0.0000000e+00 
7.1337956e-07 2.8898884e-03 0.0000000e+00 
1.8945914e-07 3.2504248e-03 0.0000000e+00 
9.8504177e-07 2.6185031e-03 0.0000000e+00 
5.9636518e-06 2.4707778e-03 0.0000000e+00 
-8.1059753e-08 2.5467796e-03 0.0000000e+00 
-2.6116661e-06 2.6214106e-03 0.0000000e+00 
-1.5422935e-06 3.1415685e-03 0.0000000e+00 
-3.5329927e-06 2.5087046e-03 0.0000000e+00 
7.6314001e-07 1.0768101e-03 0.0000000e+00 
-3.8324535e-07 2.4458030e-03 0.0000000e+00 
-1.9635363e-06 2.9734068e-03 0.0000000e+00 
1.1542654e-07 6.4000755e-04 0.0000000e+00 
-3.5190573e-07 3.0907441e-03 0.0000000e+00 
1.1296005e-06 2.7964639e-03 0.0000000e+00 
1.1596882e-06 2.6265483e-03 0.0000000e+00 
-8.7716177e-07 2.4730680e-03 0.0000000e+00 
-3.4350202e-07 3.2139500e-03 0.0000000e+00 
-9.8428052e-07 2.7251057e-03 0.0000000e+00 
-1.1001629e-06 2.8860401e-03 0.0000000e+00 
4.2418993e-08 3.1428828e-03 0.0000000e+00 
7.2290493e-07 3.1506137e-03 0.0000000e+00 
9.1117744e-07 2.9117968e-03 0.0000000e+00 
5.8690455e-07 2.5925676e-03 0.0000000e+00 
-1.7940349e-07 2.5168986e-03 0.0000000e+00 
-2.1987436e-08 2.3969507e-03 0.0000000e+00 
-5.5348835e-07 2.4372207e-03 0.0000000e+00 
-1.0052077e-06 2.6829534e-03 0.0000000e+00 
2.9623955e-08 3.1580355e-03 0.0000000e+00 
-9.4885689e-07 2.9978394e-03 0.0000000e+00 
-2.3206887e-07 3.2492839e-03 0.0000000e+00 
1.7789897e-07 3.0455699e-03 0.0000000e+00 
5.2093128e-07 2.7241844e-03 0.0000000e+00 
4.9458356e-07 2.3881772e-03 0.0000000e+00 
2.8835996e-07 2.1416435e-03 0.0000000e+00 
-1.3949453e-07 2.2636561e-03 0.0000000e+00 
1.8904814e-07 2.0457872e-03 0.0000000e+00 
-1.0034114e-07 2.1031064e-03 0.0000000e+00 
3.5960494e-07 1.4084177e-03 0.0000000e+00 
-6.9756858e-08 1.9648166e-03 0.0000000e+00 
-2.5705469e-09 2.3495590e-03 0.0000000e+00 
-2.4093390e-07 2.5626440e-03 0.0000000e+00 
-1.0907193e-07 2.3587246e-03 0.0000000e+00 
-2.5498625e-07 2.5450070e-03 0.0000000e+00 
5.4541141e-07 5.4304861e-04 0.0000000e+00 
-1.1580691e-07 4.9429445e-04 0.0000000e+00 
-2.7179676e-06 2.5294716e-03 0.0000000e+00 
-1.9707977e-06 2.5258448e-03 0.0000000e+00 
7.1098507e-06 2.5106182e-03 0.0000000e+00 
-5.8398232e-06 2.5141761e-03 0.0000000e+00 
-8.0424502e-07 5.0431822e-04 0.0000000e+00 
2.9210796e-07 5.2844197e-04 0.0000000e+00 
8.0485779e-07 9.6522149e-04 0.0000000e+00 
-2.5701008e-04 2.9739356e-03 0.0000000e+00 
-1.2582958e-06 3.0203785e-03 0.0000000e+00 
-6.1800192e-06 3.1487821e-03 0.0000000e+00 
-2.0083503e-06 2.5475267e-03 0.0000000e+00 
-1.3235634e-05 3.1608543e-03 0.0000000e+00 
4.4173298e-06 2.7777618e-03 0.0000000e+00 
7.4584991e-06 2.8826937e-03 0.0000000e+00 
-5.1221473e-06 2.4997406e-03 0.0000000e+00 
-7.1377440e-06 3.1208030e-03 0.0000000e+00 
-2.3993998e-06 2.6183252e-03 0.0000000e+00 
-3.9469855e-06 3.0996846e-03 0.0000000e+00 
-2.2862830e-06 2.7839814e-03 0.0000000e+00 
-7.1644554e-06 2.3156779e-03 0.0000000e+00 
-5.8119208e-06 2.4928227e-03 0.0000000e+00 
2.0625257e-07 2.9283771e-03 0.0000000e+00 
7.2367191e-05 2.3993603e-03 0.0000000e+00 
1.6349422e-05 2.6494621e-03 0.0000000e+00 
-5.9728727e-06 2.6567169e-03 0.0000000e+00 
-9.7058692e-06 2.8750778e-03 0.0000000e+00 
1.6821348e-05 2.6751736e-03 0.0000000e+00 
-2.2945264e-06 2.7894499e-03 0.0000000e+00 
4.3170244e-06 2.8020341e-03 0.0000000e+00 
-1.4938603e-06 2.5549890e-03 0.0000000e+00 
-6.3662151e-07 2.7732039e-03 0.0000000e+00 
-8.9755997e-07 2.5729749e-03 0.0000000e+00 
1.6267011e-06 2.4697678e-03 0.0000000e+00 
2.7125809e-06 2.9210895e-03 0.0000000e+00 
3.1315421e-06 2.9303436e-03 0.0000000e+00 
-4.1419420e-07 3.1269989e-03 0.0000000e+00 
-2.1505177e-04 3.0568992e-03 0.0000000e+00 
6.7087123e-04 2.7141299e-03 0.0000000e+00 
-6.3632410e-06 3.0244896e-03 0.0000000e+00 
-3.2714411e-06 2.9312861e-03 0.0000000e+00 
-3.7286904e-06 2.7337486e-03 0.0000000e+00 
7.3039411e-07 2.4813530e-03 0.0000000e+00 
-3.3965196e-07 2.5635012e-03 0.0000000e+00 
9.7088321e-07 2.5406317e-03 0.0000000e+00 
-2.7981517e-07 2.4899889e-03 0.0000000e+00 
-2.3377052e-06 2.7110386e-03 0.0000000e+00 
2.7191772e-06 2.7398430e-03 0.0000000e+00 
-5.8834803e-07 2.9189840e-03 0.0000000e+00 
-1.2826235e-06 3.0771072e-03 0.0000000e+00 
-8.3548997e-07 3.1099969e-03 0.0000000e+00 
3.5332193e-06 2.9938221e-03 0.0000000e+00 
2.8003922e-06 2.7820256e-03 0.0000000e+00 
3.4286895e-06 2.5796343e-03 0.0000000e+00 
3.4217402e-07 2.4879377e-03 0.0000000e+00 
-2.2651986e-06 2.5688370e-03 0.0000000e+00 
-4.1124517e-06 2.7818913e-03 0.0000000e+00 
-1.6562700e-06 3.0104080e-03 0.0000000e+00 
-1.8728433e-06 3.1222573e-03 0.0000000e+00 
2.0981383e-06 3.0340457e-03 0.0000000e+00 
2.3224684e-06 2.8070766e-03 0.0000000e+00 
6.0284935e-07 2.5744108e-03 0.0000000e+00 
8.1611770e-06 2.4802554e-03 0.0000000e+00 
1.1050005e-06 2.6182630e-03 0.0000000e+00 
1.7479501e-06 2.8848236e-03 0.0000000e+00 
-6.9465873e-06 3.0933376e-03 0.0000000e+00 
-1.4236735e-05 3.0945824e-03 0.0000000e+00 
1.3231639e-06 2.8577957e-03 0.0000000e+00 
9.9463432e-06 2.5686885e-03 0.0000000e+00 
8.2019042e-06 2.4726007e-03 0.0000000e+00 
-3.0726915e-06 2.6508952e-03 0.0000000e+00 
-1.2975425e-05 2.9759221e-03 0.0000000e+00 
-7.1322138e-06 3.1496095e-03 0.0000000e+00 
1.8091143e-05 2.9932586e-03 0.0000000e+00 
1.3030665e-05 2.6377284e-03 0.0000000e+00 