# vtk DataFile Version 4.0
vtk output
ASCII
DATASET UNSTRUCTURED_GRID
POINTS 628 float
0.0000000e+00 0.0000000e+00 0.0000000e+00 
1.0000000e+00 0.0000000e+00 0.0000000e+00 
1.0000000e+00 1.0000000e+01 0.0000000e+00 
0.0000000e+00 1.0000000e+01 0.0000000e+00 
0.0000000e+00 5.0000000e+00 0.0000000e+00 
1.0000000e+00 5.0000000e+00 0.0000000e+00 
1.4285715e-01 0.0000000e+00 0.0000000e+00 
2.8571430e-01 0.0000000e+00 0.0000000e+00 
4.2857143e-01 0.0000000e+00 0.0000000e+00 
5.7142860e-01 0.0000000e+00 0.0000000e+00 
7.1428573e-01 0.0000000e+00 0.0000000e+00 
8.5714287e-01 0.0000000e+00 0.0000000e+00 
8.5714287e-01 1.0000000e+01 0.0000000e+00 
7.1428573e-01 1.0000000e+01 0.0000000e+00 
5.7142860e-01 1.0000000e+01 0.0000000e+00 
4.2857143e-01 1.0000000e+01 0.0000000e+00 
2.8571430e-01 1.0000000e+01 0.0000000e+00 
1.4285715e-01 1.0000000e+01 0.0000000e+00 
1.4285715e-01 5.0000000e+00 0.0000000e+00 
2.8571430e-01 5.0000000e+00 0.0000000e+00 
4.2857143e-01 5.0000000e+00 0.0000000e+00 
5.7142860e-01 5.0000000e+00 0.0000000e+00 
7.1428573e-01 5.0000000e+00 0.0000000e+00 
8.5714287e-01 5.0000000e+00 0.0000000e+00 
0.0000000e+00 4.8529410e+00 0.0000000e+00 
0.0000000e+00 4.7058825e+00 0.0000000e+00 
0.0000000e+00 4.5588236e+00 0.0000000e+00 
0.0000000e+00 4.4117646e+00 0.0000000e+00 
0.0000000e+00 4.2647057e+00 0.0000000e+00 
0.0000000e+00 4.1176472e+00 0.0000000e+00 
0.0000000e+00 3.9705882e+00 0.0000000e+00 
0.0000000e+00 3.8235295e+00 0.0000000e+00 
0.0000000e+00 3.6764705e+00 0.0000000e+00 
0.0000000e+00 3.5294118e+00 0.0000000e+00 
0.0000000e+00 3.3823528e+00 0.0000000e+00 
0.0000000e+00 3.2352941e+00 0.0000000e+00 
0.0000000e+00 3.0882354e+00 0.0000000e+00 
0.0000000e+00 2.9411764e+00 0.0000000e+00 
0.0000000e+00 2.7941177e+00 0.0000000e+00 
0.0000000e+00 2.6470587e+00 0.0000000e+00 
0.0000000e+00 2.5000000e+00 0.0000000e+00 
0.0000000e+00 2.3529413e+00 0.0000000e+00 
0.0000000e+00 2.2058823e+00 0.0000000e+00 
0.0000000e+00 2.0588236e+00 0.0000000e+00 
0.0000000e+00 1.9117647e+00 0.0000000e+00 
0.0000000e+00 1.7647059e+00 0.0000000e+00 
0.0000000e+00 1.6176471e+00 0.0000000e+00 
0.0000000e+00 1.4705882e+00 0.0000000e+00 
0.0000000e+00 1.3235294e+00 0.0000000e+00 
0.0000000e+00 1.1764706e+00 0.0000000e+00 
0.0000000e+00 1.0294118e+00 0.0000000e+00 
0.0000000e+00 8.8235295e-01 0.0000000e+00 
0.0000000e+00 7.3529410e-01 0.0000000e+00 
0.0000000e+00 5.8823532e-01 0.0000000e+00 
0.0000000e+00 4.4117647e-01 0.0000000e+00 
0.0000000e+00 2.9411766e-01 0.0000000e+00 
0.0000000e+00 1.4705883e-01 0.0000000e+00 
1.0000000e+00 1.4705883e-01 0.0000000e+00 
1.0000000e+00 2.9411766e-01 0.0000000e+00 
1.0000000e+00 4.4117647e-01 0.0000000e+00 
1.0000000e+00 5.8823532e-01 0.0000000e+00 
1.0000000e+00 7.3529410e-01 0.0000000e+00 
1.0000000e+00 8.8235295e-01 0.0000000e+00 
1.0000000e+00 1.0294118e+00 0.0000000e+00 
1.0000000e+00 1.1764706e+00 0.0000000e+00 
1.0000000e+00 1.3235294e+00 0.0000000e+00 
1.0000000e+00 1.4705882e+00 0.0000000e+00 
1.0000000e+00 1.6176471e+00 0.0000000e+00 
1.0000000e+00 1.7647059e+00 0.0000000e+00 
1.0000000e+00 1.9117647e+00 0.0000000e+00 
1.0000000e+00 2.0588236e+00 0.0000000e+00 
1.0000000e+00 2.2058823e+00 0.0000000e+00 
1.0000000e+00 2.3529413e+00 0.0000000e+00 
1.0000000e+00 2.5000000e+00 0.0000000e+00 
1.0000000e+00 2.6470587e+00 0.0000000e+00 
1.0000000e+00 2.7941177e+00 0.0000000e+00 
1.0000000e+00 2.9411764e+00 0.0000000e+00 
1.0000000e+00 3.0882354e+00 0.0000000e+00 
1.0000000e+00 3.2352941e+00 0.0000000e+00 
1.0000000e+00 3.3823528e+00 0.0000000e+00 
1.0000000e+00 3.5294118e+00 0.0000000e+00 
1.0000000e+00 3.6764705e+00 0.0000000e+00 
1.0000000e+00 3.8235295e+00 0.0000000e+00 
1.0000000e+00 3.9705882e+00 0.0000000e+00 
1.0000000e+00 4.1176472e+00 0.0000000e+00 
1.0000000e+00 4.2647057e+00 0.0000000e+00 
1.0000000e+00 4.4117646e+00 0.0000000e+00 
1.0000000e+00 4.5588236e+00 0.0000000e+00 
1.0000000e+00 4.7058825e+00 0.0000000e+00 
1.0000000e+00 4.8529410e+00 0.0000000e+00 
0.0000000e+00 9.8529415e+00 0.0000000e+00 
0.0000000e+00 9.7058821e+00 0.0000000e+00 
0.0000000e+00 9.5588236e+00 0.0000000e+00 
0.0000000e+00 9.4117651e+00 0.0000000e+00 
0.0000000e+00 9.2647057e+00 0.0000000e+00 
0.0000000e+00 9.1176472e+00 0.0000000e+00 
0.0000000e+00 8.9705887e+00 0.0000000e+00 
0.0000000e+00 8.8235292e+00 0.0000000e+00 
0.0000000e+00 8.6764708e+00 0.0000000e+00 
0.0000000e+00 8.5294113e+00 0.0000000e+00 
0.0000000e+00 8.3823528e+00 0.0000000e+00 
0.0000000e+00 8.2352943e+00 0.0000000e+00 
0.0000000e+00 8.0882349e+00 0.0000000e+00 
0.0000000e+00 7.9411764e+00 0.0000000e+00 
0.0000000e+00 7.7941175e+00 0.0000000e+00 
0.0000000e+00 7.6470590e+00 0.0000000e+00 
0.0000000e+00 7.5000000e+00 0.0000000e+00 
0.0000000e+00 7.3529410e+00 0.0000000e+00 
0.0000000e+00 7.2058825e+00 0.0000000e+00 
0.0000000e+00 7.0588236e+00 0.0000000e+00 
0.0000000e+00 6.9117646e+00 0.0000000e+00 
0.0000000e+00 6.7647057e+00 0.0000000e+00 
0.0000000e+00 6.6176472e+00 0.0000000e+00 
0.0000000e+00 6.4705882e+00 0.0000000e+00 
0.0000000e+00 6.3235292e+00 0.0000000e+00 
0.0000000e+00 6.1764708e+00 0.0000000e+00 
0.0000000e+00 6.0294118e+00 0.0000000e+00 
0.0000000e+00 5.8823528e+00 0.0000000e+00 
0.0000000e+00 5.7352943e+00 0.0000000e+00 
0.0000000e+00 5.5882354e+00 0.0000000e+00 
0.0000000e+00 5.4411764e+00 0.0000000e+00 
0.0000000e+00 5.2941175e+00 0.0000000e+00 
0.0000000e+00 5.1470590e+00 0.0000000e+00 
1.0000000e+00 5.1470590e+00 0.0000000e+00 
1.0000000e+00 5.2941175e+00 0.0000000e+00 
1.0000000e+00 5.4411764e+00 0.0000000e+00 
1.0000000e+00 5.5882354e+00 0.0000000e+00 
1.0000000e+00 5.7352943e+00 0.0000000e+00 
1.0000000e+00 5.8823528e+00 0.0000000e+00 
1.0000000e+00 6.0294118e+00 0.0000000e+00 
1.0000000e+00 6.1764708e+00 0.0000000e+00 
1.0000000e+00 6.3235292e+00 0.0000000e+00 
1.0000000e+00 6.4705882e+00 0.0000000e+00 
1.0000000e+00 6.6176472e+00 0.0000000e+00 
1.0000000e+00 6.7647057e+00 0.0000000e+00 
1.0000000e+00 6.9117646e+00 0.0000000e+00 
1.0000000e+00 7.0588236e+00 0.0000000e+00 
1.0000000e+00 7.2058825e+00 0.0000000e+00 
1.0000000e+00 7.3529410e+00 0.0000000e+00 
1.0000000e+00 7.5000000e+00 0.0000000e+00 
1.0000000e+00 7.6470590e+00 0.0000000e+00 
1.0000000e+00 7.7941175e+00 0.0000000e+00 
1.0000000e+00 7.9411764e+00 0.0000000e+00 
1.0000000e+00 8.0882349e+00 0.0000000e+00 
1.0000000e+00 8.2352943e+00 0.0000000e+00 
1.0000000e+00 8.3823528e+00 0.0000000e+00 
1.0000000e+00 8.5294113e+00 0.0000000e+00 
1.0000000e+00 8.6764708e+00 0.0000000e+00 
1.0000000e+00 8.8235292e+00 0.0000000e+00 
1.0000000e+00 8.9705887e+00 0.0000000e+00 
1.0000000e+00 9.1176472e+00 0.0000000e+00 
1.0000000e+00 9.2647057e+00 0.0000000e+00 
1.0000000e+00 9.4117651e+00 0.0000000e+00 
1.0000000e+00 9.5588236e+00 0.0000000e+00 
1.0000000e+00 9.7058821e+00 0.0000000e+00 
1.0000000e+00 9.8529415e+00 0.0000000e+00 
5.0212586e-01 4.8703580e+00 0.0000000e+00 
5.1041055e-01 1.3732977e-01 0.0000000e+00 
1.3055173e-01 6.6499180e-01 0.0000000e+00 
8.7327349e-01 4.3372407e+00 0.0000000e+00 
8.7331611e-01 3.8958969e+00 0.0000000e+00 
8.7347627e-01 3.4562511e+00 0.0000000e+00 
8.7357801e-01 2.8680170e+00 0.0000000e+00 
1.2843554e-01 2.1327813e+00 0.0000000e+00 
1.2975387e-01 1.5449892e+00 0.0000000e+00 
1.3308091e-01 1.1039938e+00 0.0000000e+00 
1.2937543e-01 2.5737903e+00 0.0000000e+00 
1.2735668e-01 3.1617646e+00 0.0000000e+00 
8.7375563e-01 1.8386052e+00 0.0000000e+00 
8.7355548e-01 2.2778318e+00 0.0000000e+00 
1.2753446e-01 4.1915216e+00 0.0000000e+00 
8.7915283e-01 8.0759794e-01 0.0000000e+00 
8.8115031e-01 1.2498868e+00 0.0000000e+00 
1.2781374e-01 3.7501886e+00 0.0000000e+00 
8.7352717e-01 3.1621344e+00 0.0000000e+00 
1.2961270e-01 1.8389882e+00 0.0000000e+00 
1.2731366e-01 4.4857054e+00 0.0000000e+00 
1.2885660e-01 2.8684020e+00 0.0000000e+00 
8.7380636e-01 1.5444875e+00 0.0000000e+00 
8.7362880e-01 2.5738993e+00 0.0000000e+00 
1.2735668e-01 3.4558823e+00 0.0000000e+00 
8.7264335e-01 5.1470590e-01 0.0000000e+00 
8.7611687e-01 4.6317782e+00 0.0000000e+00 
1.3446054e-01 3.7013325e-01 0.0000000e+00 
1.2296320e-01 4.7760825e+00 0.0000000e+00 
8.8210768e-01 2.2118840e-01 0.0000000e+00 
2.1798968e-01 1.0548568e-01 0.0000000e+00 
7.7656764e-01 4.8704844e+00 0.0000000e+00 
1.2667844e-01 4.6331582e+00 0.0000000e+00 
2.5353336e-01 4.5619426e+00 0.0000000e+00 
2.5451174e-01 4.4132285e+00 0.0000000e+00 
3.8040194e-01 4.4881525e+00 0.0000000e+00 
3.8161713e-01 4.3403850e+00 0.0000000e+00 
5.0654775e-01 4.4141955e+00 0.0000000e+00 
5.0629890e-01 4.2659345e+00 0.0000000e+00 
5.0658631e-01 4.5616083e+00 0.0000000e+00 
3.8184282e-01 4.1932206e+00 0.0000000e+00 
5.0831819e-01 4.1188259e+00 0.0000000e+00 
3.8249290e-01 4.0462651e+00 0.0000000e+00 
5.0818664e-01 3.9732957e+00 0.0000000e+00 
3.8265404e-01 3.8991868e+00 0.0000000e+00 
5.0769192e-01 3.8249388e+00 0.0000000e+00 
3.8307732e-01 3.7517705e+00 0.0000000e+00 
5.0990808e-01 3.6776419e+00 0.0000000e+00 
3.8416636e-01 3.6049941e+00 0.0000000e+00 
5.1177651e-01 3.5322094e+00 0.0000000e+00 
3.8460994e-01 3.4584429e+00 0.0000000e+00 
5.1256055e-01 3.3855147e+00 0.0000000e+00 
3.8520575e-01 3.3115354e+00 0.0000000e+00 
5.1318693e-01 3.2385471e+00 0.0000000e+00 
3.8561273e-01 3.1645203e+00 0.0000000e+00 
5.1375473e-01 3.0915136e+00 0.0000000e+00 
3.8616878e-01 3.0174749e+00 0.0000000e+00 
5.1433694e-01 2.9444630e+00 0.0000000e+00 
3.8656160e-01 2.8704205e+00 0.0000000e+00 
5.1489413e-01 2.7974076e+00 0.0000000e+00 
3.8711417e-01 2.7233641e+00 0.0000000e+00 
5.1547360e-01 2.6503508e+00 0.0000000e+00 
3.8750717e-01 2.5763063e+00 0.0000000e+00 
5.1603019e-01 2.5032935e+00 0.0000000e+00 
3.8805979e-01 2.4292488e+00 0.0000000e+00 
5.1422137e-01 2.3562264e+00 0.0000000e+00 
3.8765049e-01 2.2821872e+00 0.0000000e+00 
5.1307547e-01 2.2071202e+00 0.0000000e+00 
3.8778570e-01 2.1347876e+00 0.0000000e+00 
5.1568961e-01 2.0596735e+00 0.0000000e+00 
3.9013749e-01 1.9876142e+00 0.0000000e+00 
5.1808232e-01 1.9145784e+00 0.0000000e+00 
3.8994926e-01 1.8408588e+00 0.0000000e+00 
5.1884413e-01 1.7678982e+00 0.0000000e+00 
[...]
POINT_DATA 628
FIELD FieldData 2
VELOCITY 3 628  float
0.0000000e+00 0.0000000e+00 0.0000000e+00 
0.0000000e+00 0.0000000e+00 0.0000000e+00 
0.0000000e+00 2.1828602e-03 0.0000000e+00 
0.0000000e+00 2.6122159e-03 0.0000000e+00 
0.0000000e+00 -6.3856720e-04 0.0000000e+00 
0.0000000e+00 -6.1521633e-04 0.0000000e+00 
0.0000000e+00 0.0000000e+00 0.0000000e+00 
0.0000000e+00 0.0000000e+00 0.0000000e+00 
0.0000000e+00 0.0000000e+00 0.0000000e+00 
0.0000000e+00 0.0000000e+00 0.0000000e+00 
0.0000000e+00 0.0000000e+00 0.0000000e+00 
0.0000000e+00 0.0000000e+00 0.0000000e+00 
-2.9016213e-04 3.2362416e-03 0.0000000e+00 
6.1559089e-04 2.8539530e-03 0.0000000e+00 
-2.3005546e-04 2.7149229e-03 0.0000000e+00 
-8.0776961e-05 2.6137107e-03 0.0000000e+00 
2.7539989e-04 2.2534835e-03 0.0000000e+00 
1.7129209e-05 3.1425063e-03 0.0000000e+00 
-7.7304940e-06 -6.2881404e-04 0.0000000e+00 
-2.5101126e-06 -6.1742641e-04 0.0000000e+00 
-7.4131062e-06 -6.3749257e-04 0.0000000e+00 
9.8707665e-07 -6.2276883e-04 0.0000000e+00 
-5.8938535e-06 -6.1879941e-04 0.0000000e+00 
1.0895283e-06 -6.1866356e-04 0.0000000e+00 
0.0000000e+00 -9.6493878e-04 0.0000000e+00 
0.0000000e+00 -7.7579112e-04 0.0000000e+00 
0.0000000e+00 -3.3221449e-04 0.0000000e+00 
0.0000000e+00 -2.1524647e-04 0.0000000e+00 
0.0000000e+00 -2.3948090e-04 0.0000000e+00 
0.0000000e+00 1.0729132e-04 0.0000000e+00 
0.0000000e+00 6.1306148e-04 0.0000000e+00 
0.0000000e+00 6.9690595e-04 0.0000000e+00 
0.0000000e+00 3.8547473e-04 0.0000000e+00 
0.0000000e+00 1.7424549e-04 0.0000000e+00 
0.0000000e+00 2.0736615e-04 0.0000000e+00 
0.0000000e+00 1.4227089e-04 0.0000000e+00 
0.0000000e+00 -2.3073147e-04 0.0000000e+00 
0.0000000e+00 -6.2070740e-04 0.0000000e+00 
0.0000000e+00 -6.1286462e-04 0.0000000e+00 
0.0000000e+00 -2.0609694e-04 0.0000000e+00 
0.0000000e+00 2.0691974e-04 0.0000000e+00 
0.0000000e+00 3.1977834e-04 0.0000000e+00 
0.0000000e+00 2.0659287e-04 0.0000000e+00 
0.0000000e+00 1.2771637e-04 0.0000000e+00 
0.0000000e+00 1.7384079e-04 0.0000000e+00 
0.0000000e+00 1.8732314e-04 0.0000000e+00 
0.0000000e+00 2.5768720e-06 0.0000000e+00 
0.0000000e+00 -3.1252587e-04 0.0000000e+00 
0.0000000e+00 -4.9054826e-04 0.0000000e+00 
0.0000000e+00 -3.2660287e-04 0.0000000e+00 
0.0000000e+00 1.0678870e-04 0.0000000e+00 
0.0000000e+00 4.9706665e-04 0.0000000e+00 
0.0000000e+00 5.4396736e-04 0.0000000e+00 
0.0000000e+00 2.0182032e-04 0.0000000e+00 
0.0000000e+00 -2.8665923e-04 0.0000000e+00 
0.0000000e+00 -5.7040941e-04 0.0000000e+00 
0.0000000e+00 -4.4364360e-04 0.0000000e+00 
0.0000000e+00 -4.4191285e-04 0.0000000e+00 
0.0000000e+00 -5.7167641e-04 0.0000000e+00 
0.0000000e+00 -2.9326064e-04 0.0000000e+00 
0.0000000e+00 1.9561974e-04 0.0000000e+00 
0.0000000e+00 5.4062007e-04 0.0000000e+00 
0.0000000e+00 4.9597031e-04 0.0000000e+00 
0.0000000e+00 1.0759734e-04 0.0000000e+00 
0.0000000e+00 -3.2464630e-04 0.0000000e+00 
0.0000000e+00 -4.8980326e-04 0.0000000e+00 
0.0000000e+00 -3.1324613e-04 0.0000000e+00 
0.0000000e+00 2.0952439e-06 0.0000000e+00 
0.0000000e+00 1.8879898e-04 0.0000000e+00 
0.0000000e+00 1.7759051e-04 0.0000000e+00 
0.0000000e+00 1.3213257e-04 0.0000000e+00 
0.0000000e+00 2.0822363e-04 0.0000000e+00 
0.0000000e+00 3.1638436e-04 0.0000000e+00 
0.0000000e+00 2.0145894e-04 0.0000000e+00 
0.0000000e+00 -2.0870961e-04 0.0000000e+00 
0.0000000e+00 -6.0993870e-04 0.0000000e+00 
0.0000000e+00 -6.1469892e-04 0.0000000e+00 
0.0000000e+00 -2.2749662e-04 0.0000000e+00 
0.0000000e+00 1.3855325e-04 0.0000000e+00 
0.0000000e+00 2.0018610e-04 0.0000000e+00 
0.0000000e+00 1.7371126e-04 0.0000000e+00 
0.0000000e+00 3.9383437e-04 0.0000000e+00 
0.0000000e+00 7.0130685e-04 0.0000000e+00 
0.0000000e+00 6.0653366e-04 0.0000000e+00 
0.0000000e+00 9.9082128e-05 0.0000000e+00 
0.0000000e+00 -2.3977170e-04 0.0000000e+00 
0.0000000e+00 -2.0804601e-04 0.0000000e+00 
0.0000000e+00 -3.3146038e-04 0.0000000e+00 
0.0000000e+00 -7.9340662e-04 0.0000000e+00 
0.0000000e+00 -9.7361283e-04 0.0000000e+00 
0.0000000e+00 3.1156389e-03 0.0000000e+00 
0.0000000e+00 2.6479652e-03 0.0000000e+00 
0.0000000e+00 2.8883428e-03 0.0000000e+00 
0.0000000e+00 2.6759764e-03 0.0000000e+00 
0.0000000e+00 3.0235483e-03 0.0000000e+00 
0.0000000e+00 2.6423084e-03 0.0000000e+00 
0.0000000e+00 2.9813573e-03 0.0000000e+00 
0.0000000e+00 2.5206269e-03 0.0000000e+00 
0.0000000e+00 3.0573725e-03 0.0000000e+00 
0.0000000e+00 2.6425503e-03 0.0000000e+00 
0.0000000e+00 3.0018501e-03 0.0000000e+00 
0.0000000e+00 2.4402828e-03 0.0000000e+00 
0.0000000e+00 2.9241042e-03 0.0000000e+00 
0.0000000e+00 2.6173543e-03 0.0000000e+00 
0.0000000e+00 2.8286101e-03 0.0000000e+00 
0.0000000e+00 2.8596229e-03 0.0000000e+00 
0.0000000e+00 2.4895302e-03 0.0000000e+00 
0.0000000e+00 2.8574835e-03 0.0000000e+00 
0.0000000e+00 2.3942783e-03 0.0000000e+00 
0.0000000e+00 2.5444748e-03 0.0000000e+00 
0.0000000e+00 2.5525996e-03 0.0000000e+00 
0.0000000e+00 2.0737071e-03 0.0000000e+00 
0.0000000e+00 2.2671942e-03 0.0000000e+00 
0.0000000e+00 2.0244310e-03 0.0000000e+00 
0.0000000e+00 1.4952414e-03 0.0000000e+00 
0.0000000e+00 1.5948575e-03 0.0000000e+00 
0.0000000e+00 1.2899252e-03 0.0000000e+00 
0.0000000e+00 6.2391005e-04 0.0000000e+00 
0.0000000e+00 5.4304296e-04 0.0000000e+00 
0.0000000e+00 4.0292286e-04 0.0000000e+00 
0.0000000e+00 -2.4325319e-04 0.0000000e+00 
0.0000000e+00 -5.3778070e-04 0.0000000e+00 
0.0000000e+00 -4.3531507e-04 0.0000000e+00 
0.0000000e+00 -4.2610033e-04 0.0000000e+00 
0.0000000e+00 -5.5519468e-04 0.0000000e+00 
0.0000000e+00 -2.5689352e-04 0.0000000e+00 
0.0000000e+00 4.2071682e-04 0.0000000e+00 
0.0000000e+00 5.4693111e-04 0.0000000e+00 
0.0000000e+00 5.9984194e-04 0.0000000e+00 
0.0000000e+00 1.3065562e-03 0.0000000e+00 
0.0000000e+00 1.6128520e-03 0.0000000e+00 
0.0000000e+00 1.4700266e-03 0.0000000e+00 
0.0000000e+00 2.0329421e-03 0.0000000e+00 
0.0000000e+00 2.3002019e-03 0.0000000e+00 
0.0000000e+00 2.0159238e-03 0.0000000e+00 
0.0000000e+00 2.5626218e-03 0.0000000e+00 
0.0000000e+00 2.6071961e-03 0.0000000e+00 
0.0000000e+00 2.3077552e-03 0.0000000e+00 
0.0000000e+00 2.8919210e-03 0.0000000e+00 
0.0000000e+00 2.4975084e-03 0.0000000e+00 
0.0000000e+00 2.7846901e-03 0.0000000e+00 
0.0000000e+00 2.9027970e-03 0.0000000e+00 
0.0000000e+00 2.5754899e-03 0.0000000e+00 
0.0000000e+00 2.9598011e-03 0.0000000e+00 
0.0000000e+00 2.4291393e-03 0.0000000e+00 
0.0000000e+00 3.1574036e-03 0.0000000e+00 
0.0000000e+00 2.5430799e-03 0.0000000e+00 
0.0000000e+00 3.0202894e-03 0.0000000e+00 
0.0000000e+00 2.5474080e-03 0.0000000e+00 
0.0000000e+00 3.0601122e-03 0.0000000e+00 
0.0000000e+00 2.5024067e-03 0.0000000e+00 
0.0000000e+00 2.8974665e-03 0.0000000e+00 
0.0000000e+00 2.9409020e-03 0.0000000e+00 
0.0000000e+00 2.6888514e-03 0.0000000e+00 
0.0000000e+00 2.6356978e-03 0.0000000e+00 
0.0000000e+00 3.2192161e-03 0.0000000e+00 
3.6724007e-06 -9.6838368e-04 0.0000000e+00 
-2.8778752e-06 -4.2518112e-04 0.0000000e+00 
-1.8087071e-07 4.1881617e-04 0.0000000e+00 
1.4457920e-07 -2.4856607e-04 0.0000000e+00 
3.0191002e-06 7.2176562e-04 0.0000000e+00 
1.8050912e-06 1.7133847e-04 0.0000000e+00 
-6.7287380e-07 -6.7446142e-04 0.0000000e+00 
-7.6464926e-07 1.5065190e-04 0.0000000e+00 
1.4439730e-06 -1.5235090e-04 0.0000000e+00 
-1.6422592e-06 -1.3063545e-04 0.0000000e+00 
1.9552817e-06 2.6563139e-05 0.0000000e+00 
1.0957003e-07 -1.3376328e-05 0.0000000e+00 
-1.1604546e-06 2.0106339e-04 0.0000000e+00 
1.3293698e-06 2.7374949e-04 0.0000000e+00 
4.1883729e-07 -1.2465091e-04 0.0000000e+00 
9.0041135e-07 5.7229894e-04 0.0000000e+00 
-2.4825806e-07 -4.5324620e-04 0.0000000e+00 
-2.2901706e-06 5.6108349e-04 0.0000000e+00 
1.7801495e-06 -1.2717218e-05 0.0000000e+00 
-1.0691502e-07 1.9924731e-04 0.0000000e+00 
5.8497185e-06 -2.2929357e-04 0.0000000e+00 
-1.5404370e-06 -6.7870028e-04 0.0000000e+00 
2.4151332e-08 -1.5395031e-04 0.0000000e+00 
-1.9307979e-07 2.0371714e-05 0.0000000e+00 
-2.0929854e-06 1.7633839e-04 0.0000000e+00 
1.1547029e-06 -5.2204661e-05 0.0000000e+00 
2.0988655e-06 -5.5210834e-04 0.0000000e+00 
-1.2553235e-06 -4.7010646e-04 0.0000000e+00 
4.2300107e-06 -9.4914628e-04 0.0000000e+00 
-1.7392795e-06 -5.5971782e-04 0.0000000e+00 
-1.4894234e-06 -3.3804149e-04 0.0000000e+00 
-1.0626200e-05 -9.6056919e-04 0.0000000e+00 
-3.1014172e-06 -5.5310968e-04 0.0000000e+00 
5.8015289e-06 -3.4174108e-04 0.0000000e+00 
3.2338899e-06 -2.2147151e-04 0.0000000e+00 
7.1509139e-06 -2.2585371e-04 0.0000000e+00 
-4.8782508e-06 -2.5371407e-04 0.0000000e+00 
8.5200821e-07 -2.1703259e-04 0.0000000e+00 
-2.6994569e-06 -2.3757719e-04 0.0000000e+00 
3.0266911e-08 -3.3503826e-04 0.0000000e+00 
-2.7837357e-06 -1.2349327e-04 0.0000000e+00 
-1.5931989e-06 1.0359180e-04 0.0000000e+00 
6.3126085e-06 3.6682197e-04 0.0000000e+00 
1.4650274e-06 5.9908960e-04 0.0000000e+00 
8.2174080e-07 7.1820553e-04 0.0000000e+00 
1.7294273e-06 7.0466765e-04 0.0000000e+00 
8.8641775e-07 5.7157048e-04 0.0000000e+00 
5.2934729e-07 3.9914725e-04 0.0000000e+00 
2.5504746e-06 2.5146554e-04 0.0000000e+00 
-1.4659311e-06 1.7456073e-04 0.0000000e+00 
-3.7667849e-06 1.7372312e-04 0.0000000e+00 
-1.1397848e-06 2.0195126e-04 0.0000000e+00 
-4.0099308e-06 2.1201682e-04 0.0000000e+00 
1.7823997e-06 1.4742836e-04 0.0000000e+00 
1.4041028e-06 -5.5503619e-06 0.0000000e+00 
2.2381853e-06 -2.1915154e-04 0.0000000e+00 
1.2505212e-06 -4.4620858e-04 0.0000000e+00 
-9.4135899e-10 -6.1341678e-04 0.0000000e+00 
-1.0923251e-06 -6.7687704e-04 0.0000000e+00 
-1.1621553e-06 -6.1602856e-04 0.0000000e+00 
-2.4693850e-07 -4.4389343e-04 0.0000000e+00 
-7.1386779e-07 -2.1787686e-04 0.0000000e+00 
1.0493568e-06 1.8266162e-05 0.0000000e+00 
1.6157172e-07 1.9607722e-04 0.0000000e+00 
8.8053605e-07 2.9989571e-04 0.0000000e+00 
9.9145313e-07 3.1790815e-04 0.0000000e+00 
5.0501677e-07 2.7563117e-04 0.0000000e+00 
1.3721333e-06 2.0985524e-04 0.0000000e+00 
5.4328706e-07 1.5352691e-04 0.0000000e+00 
7.3486513e-07 1.3246026e-04 0.0000000e+00 
-3.8575345e-07 1.4418276e-04 0.0000000e+00 
-8.8750556e-07 1.7651192e-04 0.0000000e+00 
-7.7476346e-07 2.0127608e-04 0.0000000e+00 
-6.5649436e-07 1.9004193e-04 0.0000000e+00 
4.5191973e-07 1.2561318e-04 0.0000000e+00 
2.4000363e-07 6.5274426e-06 0.0000000e+00 
1.4682311e-06 -1.5051395e-04 0.0000000e+00 
8.6031230e-07 -3.1053217e-04 0.0000000e+00 
1.3803907e-06 -4.3786361e-04 0.0000000e+00 
7.5117879e-07 -4.9472763e-04 0.0000000e+00 
2.1099095e-07 -4.6155974e-04 0.0000000e+00 
3.0984759e-07 -3.3688554e-04 0.0000000e+00 
-1.3880273e-06 -1.3760877e-04 0.0000000e+00 
-8.4330804e-07 9.5078656e-05 0.0000000e+00 
-2.4860324e-06 3.2249271e-04 0.0000000e+00 
-6.5079558e-07 4.9189670e-04 0.0000000e+00 
-2.2781696e-06 5.7456054e-04 0.0000000e+00 
2.6548200e-08 5.5042171e-04 0.0000000e+00 
-9.8507360e-07 4.2511086e-04 0.0000000e+00 
1.3996614e-06 2.1647481e-04 0.0000000e+00 
1.1224465e-06 -2.8192251e-05 0.0000000e+00 
2.6691862e-06 -2.6953447e-04 0.0000000e+00 
3.3605995e-06 -4.6294119e-04 0.0000000e+00 
-4.1176258e-06 3.7200892e-04 0.0000000e+00 
-3.3625181e-06 -2.1954114e-04 0.0000000e+00 
-3.8450412e-06 2.5383511e-04 0.0000000e+00 
-7.7049862e-07 1.4534345e-04 0.0000000e+00 
1.9012573e-06 -5.5334455e-04 0.0000000e+00 
4.7650051e-06 2.0931216e-04 0.0000000e+00 
6.2475624e-07 -4.4171634e-04 0.0000000e+00 
4.2618680e-07 3.1895365e-04 0.0000000e+00 
-1.8374458e-06 -4.4978003e-04 0.0000000e+00 
1.2147605e-06 2.9861645e-04 0.0000000e+00 
-5.2949031e-07 1.2556436e-04 0.0000000e+00 
6.2843549e-07 -4.3508582e-04 0.0000000e+00 
2.4325232e-06 4.2147347e-04 0.0000000e+00 
-2.7832557e-06 4.9383787e-04 0.0000000e+00 
6.3340229e-07 -4.9373013e-04 0.0000000e+00 
8.1403260e-07 3.1844899e-04 0.0000000e+00 
5.1096731e-06 5.9948320e-04 0.0000000e+00 
3.2961498e-06 -5.6384160e-04 0.0000000e+00 
1.1581815e-06 -4.6218143e-04 0.0000000e+00 
-2.6415298e-06 -5.6148658e-04 0.0000000e+00 
1.7611518e-06 -8.0899720e-04 0.0000000e+00 
1.3944236e-06 -9.6865895e-04 0.0000000e+00 
1.2786297e-06 -9.6581306e-04 0.0000000e+00 
1.3890648e-06 -2.7634806e-04 0.0000000e+00 
6.4394715e-07 -5.6221744e-04 0.0000000e+00 
1.7457439e-06 4.9807322e-06 0.0000000e+00 
-8.1039440e-07 1.7564082e-04 0.0000000e+00 
1.4169932e-06 -2.0940197e-04 0.0000000e+00 
-1.0705522e-06 -6.1655330e-04 0.0000000e+00 
-1.9619513e-06 1.4601344e-04 0.0000000e+00 
1.1069161e-07 1.7701134e-04 0.0000000e+00 
-1.6871110e-06 -5.6477194e-04 0.0000000e+00 
7.0378564e-07 -3.6442019e-05 0.0000000e+00 
-1.1614353e-07 2.1561084e-04 0.0000000e+00 
-2.0306163e-06 -4.7578805e-04 0.0000000e+00 
2.3648090e-06 -3.5501878e-05 0.0000000e+00 
-3.5708249e-06 -2.5495322e-04 0.0000000e+00 
-3.1747350e-06 -2.1752066e-04 0.0000000e+00 
1.7461416e-06 4.0791620e-04 0.0000000e+00 
1.6872799e-06 5.7266816e-04 0.0000000e+00 
3.3452213e-06 -5.6829758e-04 0.0000000e+00 
-2.7420920e-06 1.0053908e-04 0.0000000e+00 
-1.3105947e-06 -3.3319782e-04 0.0000000e+00 
-5.8397160e-07 -4.5656422e-04 0.0000000e+00 
9.4126300e-08 -1.3329484e-04 0.0000000e+00 
4.8023549e-07 1.0984163e-04 0.0000000e+00 
7.4451839e-07 -4.5803588e-04 0.0000000e+00 
4.3468216e-07 1.5482430e-04 0.0000000e+00 
1.4909378e-06 2.0839478e-04 0.0000000e+00 
-6.9531114e-07 1.4554868e-04 0.0000000e+00 
2.7137784e-07 -4.4005408e-04 0.0000000e+00 
2.2136448e-06 2.0289447e-04 0.0000000e+00 
1.1762104e-06 3.0457519e-04 0.0000000e+00 
1.6052086e-06 2.4510967e-04 0.0000000e+00 
-5.9806607e-06 2.0716892e-04 0.0000000e+00 
-3.2649934e-06 2.1135501e-04 0.0000000e+00 
1.0420807e-06 -2.2434646e-04 0.0000000e+00 
-2.0763078e-07 -4.5378032e-04 0.0000000e+00 
-1.0353539e-06 -6.1265804e-04 0.0000000e+00 
5.0328788e-07 -4.4776686e-04 0.0000000e+00 
-3.2259504e-06 -1.2967417e-04 0.0000000e+00 
1.2481269e-06 -2.4069728e-04 0.0000000e+00 
-3.5827952e-06 3.7078920e-04 0.0000000e+00 
6.4311348e-07 5.6901225e-04 0.0000000e+00 
3.4863785e-06 6.9750164e-04 0.0000000e+00 
-2.1776495e-06 2.4965350e-04 0.0000000e+00 
-9.1358021e-07 1.4147043e-04 0.0000000e+00 
3.0837455e-07 1.8933909e-04 0.0000000e+00 
9.9875672e-07 1.2317841e-04 0.0000000e+00 
1.6549967e-06 -3.1176046e-04 0.0000000e+00 
-1.9832989e-06 7.2184624e-04 0.0000000e+00 
-3.6202173e-06 6.9584919e-04 0.0000000e+00 
1.8545088e-06 3.0109243e-04 0.0000000e+00 
3.7252958e-06 2.0546920e-04 0.0000000e+00 
-1.4103273e-06 5.7448924e-04 0.0000000e+00 
-2.2894424e-06 3.2753180e-04 0.0000000e+00 
-5.1581827e-07 1.2258052e-04 0.0000000e+00 
-1.7410547e-06 -4.4087696e-04 0.0000000e+00 
-3.4469608e-07 -4.3576426e-04 0.0000000e+00 
2.9995000e-08 -1.4853764e-04 0.0000000e+00 
-7.9198753e-07 1.2943737e-04 0.0000000e+00 
-4.4936317e-07 2.0756145e-04 0.0000000e+00 
-1.1609382e-06 2.0060722e-04 0.0000000e+00 
-1.0320770e-06 1.1149284e-05 0.0000000e+00 
-1.1515858e-06 -6.7637902e-04 0.0000000e+00 
3.2845039e-06 -3.3686129e-06 0.0000000e+00 
6.1185744e-07 1.7041915e-04 0.0000000e+00 
6.9505809e-06 3.7524293e-04 0.0000000e+00 
7.2350381e-06 9.6162163e-05 0.0000000e+00 
-7.5221683e-06 -2.4450975e-04 0.0000000e+00 
7.3821286e-07 -4.3666066e-04 0.0000000e+00 
2.0933078e-06 3.9281102e-04 0.0000000e+00 
-1.1441792e-08 2.7443003e-04 0.0000000e+00 
-7.2248563e-06 -7.9921592e-04 0.0000000e+00 
8.1045446e-06 -9.5947890e-04 0.0000000e+00 
-2.3083194e-06 5.4815109e-04 0.0000000e+00 
4.8633897e-06 -8.0109690e-04 0.0000000e+00 
-1.6144027e-06 -2.0982782e-04 0.0000000e+00 
-6.0690027e-06 -9.6263975e-04 0.0000000e+00 
-4.7632661e-06 -5.6187081e-04 0.0000000e+00 
-3.0382722e-08 5.9720973e-04 0.0000000e+00 
-2.8753914e-06 -3.3237788e-04 0.0000000e+00 
-2.6217979e-06 -4.0136796e-04 0.0000000e+00 
2.4575174e-06 -2.4921729e-04 0.0000000e+00 
-2.3213988e-06 -1.2296825e-04 0.0000000e+00 
-6.9270550e-06 9.4351046e-05 0.0000000e+00 
3.3125787e-06 7.2272605e-04 0.0000000e+00 
2.5917709e-06 3.1810001e-04 0.0000000e+00 
-5.3500159e-08 5.7057425e-04 0.0000000e+00 
-3.2160449e-06 4.0039854e-04 0.0000000e+00 
-1.9202735e-06 1.7595921e-04 0.0000000e+00 
4.9659448e-06 2.0100923e-04 0.0000000e+00 
4.7271997e-06 1.4446318e-04 0.0000000e+00 
1.4818056e-06 -2.1874602e-04 0.0000000e+00 
4.8214326e-07 3.2663785e-04 0.0000000e+00 
-2.9407886e-07 -6.1064231e-04 0.0000000e+00 
-1.7937814e-06 -6.1540393e-04 0.0000000e+00 
-1.8973122e-06 -2.1912827e-04 0.0000000e+00 
1.1095063e-06 1.5638744e-04 0.0000000e+00 
6.5720820e-07 1.9818638e-04 0.0000000e+00 
2.1005358e-06 2.7670435e-04 0.0000000e+00 
2.2479694e-09 1.3383056e-04 0.0000000e+00 
-1.4160645e-06 1.7695354e-04 0.0000000e+00 
-1.1553275e-06 1.8965840e-04 0.0000000e+00 
-2.6079519e-07 6.8953705e-06 0.0000000e+00 
2.4056675e-07 -3.3080764e-04 0.0000000e+00 
1.1789586e-07 -3.0842310e-04 0.0000000e+00 
-1.5527635e-07 -4.9174816e-04 0.0000000e+00 
-3.4927732e-06 -5.7258306e-04 0.0000000e+00 
7.6431326e-07 -2.8924248e-04 0.0000000e+00 
2.8126765e-06 2.0151932e-04 0.0000000e+00 
1.3175771e-06 4.9426768e-04 0.0000000e+00 
2.3743846e-07 -1.2697188e-04 0.0000000e+00 
2.4172721e-06 5.4371404e-04 0.0000000e+00 
-3.4071688e-06 -3.3527217e-04 0.0000000e+00 
-9.5585028e-07 -3.0638295e-04 0.0000000e+00 
-4.8225243e-06 -8.7091193e-04 0.0000000e+00 
-2.2824870e-06 -8.7697839e-04 0.0000000e+00 
4.4274102e-06 -9.0138032e-04 0.0000000e+00 
-3.7153443e-06 -8.9482957e-04 0.0000000e+00 
3.5939984e-06 -3.1948503e-04 0.0000000e+00 
-2.3199293e-06 -3.2853888e-04 0.0000000e+00 
-4.1941539e-06 -5.1777804e-04 0.0000000e+00 
2.7240478e-04 2.7914045e-03 0.0000000e+00 
2.3174512e-06 -4.2483312e-04 0.0000000e+00 
-1.4471968e-05 2.6458725e-03 0.0000000e+00 
5.0709255e-06 5.5765390e-04 0.0000000e+00 
2.0555653e-05 2.8246031e-03 0.0000000e+00 
4.4283638e-06 1.5501529e-03 0.0000000e+00 
-1.9021723e-05 2.7939419e-03 0.0000000e+00 
-9.8732016e-06 2.2547180e-03 0.0000000e+00 
-8.2749521e-06 2.4784536e-03 0.0000000e+00 
-1.0675864e-05 2.4865812e-03 0.0000000e+00 
-4.6153486e-06 2.3449659e-03 0.0000000e+00 
1.0223365e-05 1.6697712e-03 0.0000000e+00 
-2.0066054e-06 2.8684828e-03 0.0000000e+00 
-1.7792228e-05 2.7557386e-03 0.0000000e+00 
-3.6240806e-06 5.0722196e-04 0.0000000e+00 
3.6988124e-05 2.7202084e-03 0.0000000e+00 
3.9886840e-05 2.9128387e-03 0.0000000e+00 
-1.3222527e-05 2.8371043e-03 0.0000000e+00 
-4.6816243e-05 2.7308287e-03 0.0000000e+00 
-1.1467078e-05 2.4625608e-03 0.0000000e+00 
-8.8181914e-06 1.6956009e-03 0.0000000e+00 
-1.2856993e-06 2.1140457e-03 0.0000000e+00 
-3.0212416e-06 1.0222624e-04 0.0000000e+00 
-7.4882387e-06 1.5782487e-03 0.0000000e+00 
9.0514541e-06 2.6991374e-03 0.0000000e+00 
-1.7068907e-05 2.6824875e-03 0.0000000e+00 
1.0393080e-04 3.0370192e-03 0.0000000e+00 
1.0434134e-05 -4.8783020e-04 0.0000000e+00 
7.3300607e-06 -4.8391518e-04 0.0000000e+00 
1.0110405e-04 2.7463508e-03 0.0000000e+00 
-7.6017500e-04 2.3838074e-03 0.0000000e+00 
-7.3938313e-06 -4.1016468e-04 0.0000000e+00 
-1.6106318e-05 -5.0487713e-04 0.0000000e+00 
-4.6112632e-06 -2.7730627e-04 0.0000000e+00 
8.5040183e-06 4.2000035e-04 0.0000000e+00 
1.3449201e-05 9.2687413e-05 0.0000000e+00 
2.9614532e-07 5.5935711e-04 0.0000000e+00 
9.5919802e-07 3.9353521e-04 0.0000000e+00 
1.9306982e-07 5.4334087e-04 0.0000000e+00 
-2.4255401e-06 -2.4944555e-04 0.0000000e+00 
-6.1251271e-06 5.1981647e-04 0.0000000e+00 
4.6147052e-06 6.2294351e-04 0.0000000e+00 
6.9847620e-06 9.1339287e-04 0.0000000e+00 
-4.6324258e-06 1.2770608e-03 0.0000000e+00 
-1.2886722e-05 1.5547496e-03 0.0000000e+00 
1.1296575e-07 1.5992577e-03 0.0000000e+00 
5.7931256e-06 1.5041555e-03 0.0000000e+00 
3.9244392e-06 1.4881183e-03 0.0000000e+00 
-2.7999349e-06 1.6624321e-03 0.0000000e+00 
-1.6393809e-05 2.0238096e-03 0.0000000e+00 
-5.2509799e-06 2.2853171e-03 0.0000000e+00 
1.9054592e-05 2.2864372e-03 0.0000000e+00 
1.4712611e-05 2.1266961e-03 0.0000000e+00 
6.1184687e-06 2.0349447e-03 0.0000000e+00 
-9.3330973e-06 2.2181817e-03 0.0000000e+00 
6.9011287e-07 2.5654400e-03 0.0000000e+00 
9.0990825e-06 2.7188684e-03 0.0000000e+00 
-1.2261773e-05 2.5720759e-03 0.0000000e+00 
-4.2185234e-06 2.3278445e-03 0.0000000e+00 
1.9806450e-06 2.3587646e-03 0.0000000e+00 
-4.4397598e-06 2.6521543e-03 0.0000000e+00 
-2.1180316e-05 2.9025478e-03 0.0000000e+00 
-1.2465667e-05 2.8094435e-03 0.0000000e+00 
3.4595276e-05 2.5155426e-03 0.0000000e+00 