# vtk DataFile Version 4.0
vtk output
ASCII
DATASET UNSTRUCTURED_GRID
POINTS 7662 float
0.0000000e+00 0.0000000e+00 0.0000000e+00 
5.0000000e+00 0.0000000e+00 0.0000000e+00 
5.0000000e+00 5.0000000e+00 0.0000000e+00 
0.0000000e+00 5.0000000e+00 0.0000000e+00 
0.0000000e+00 0.0000000e+00 5.0000000e+00 
5.0000000e+00 0.0000000e+00 5.0000000e+00 
5.0000000e+00 5.0000000e+00 5.0000000e+00 
0.0000000e+00 5.0000000e+00 5.0000000e+00 
1.0000000e+00 5.0000000e+00 0.0000000e+00 
2.0000000e+00 5.0000000e+00 0.0000000e+00 
3.0000000e+00 5.0000000e+00 0.0000000e+00 
5.0000000e-01 0.0000000e+00 0.0000000e+00 
1.0000000e+00 0.0000000e+00 0.0000000e+00 
1.5000000e+00 0.0000000e+00 0.0000000e+00 
2.0000000e+00 0.0000000e+00 0.0000000e+00 
2.5000000e+00 0.0000000e+00 0.0000000e+00 
3.0000000e+00 0.0000000e+00 0.0000000e+00 
3.5000000e+00 0.0000000e+00 0.0000000e+00 
4.0000000e+00 0.0000000e+00 0.0000000e+00 
4.5000000e+00 0.0000000e+00 0.0000000e+00 
2.5000000e-01 0.0000000e+00 0.0000000e+00 
7.5000000e-01 0.0000000e+00 0.0000000e+00 
1.2500000e+00 0.0000000e+00 0.0000000e+00 
1.7500000e+00 0.0000000e+00 0.0000000e+00 
2.2500000e+00 0.0000000e+00 0.0000000e+00 
2.7500000e+00 0.0000000e+00 0.0000000e+00 
3.2500000e+00 0.0000000e+00 0.0000000e+00 
3.7500000e+00 0.0000000e+00 0.0000000e+00 
4.2500000e+00 0.0000000e+00 0.0000000e+00 
4.7500000e+00 0.0000000e+00 0.0000000e+00 
5.0000000e+00 5.0000000e-01 0.0000000e+00 
5.0000000e+00 1.0000000e+00 0.0000000e+00 
5.0000000e+00 1.5000000e+00 0.0000000e+00 
5.0000000e+00 2.0000000e+00 0.0000000e+00 
5.0000000e+00 2.5000000e+00 0.0000000e+00 
5.0000000e+00 3.0000000e+00 0.0000000e+00 
5.0000000e+00 3.5000000e+00 0.0000000e+00 
5.0000000e+00 4.0000000e+00 0.0000000e+00 
5.0000000e+00 4.5000000e+00 0.0000000e+00 
5.0000000e+00 2.5000000e-01 0.0000000e+00 
5.0000000e+00 7.5000000e-01 0.0000000e+00 
5.0000000e+00 1.2500000e+00 0.0000000e+00 
5.0000000e+00 1.7500000e+00 0.0000000e+00 
5.0000000e+00 2.2500000e+00 0.0000000e+00 
5.0000000e+00 2.7500000e+00 0.0000000e+00 
5.0000000e+00 3.2500000e+00 0.0000000e+00 
5.0000000e+00 3.7500000e+00 0.0000000e+00 
5.0000000e+00 4.2500000e+00 0.0000000e+00 
5.0000000e+00 4.7500000e+00 0.0000000e+00 
0.0000000e+00 4.5000000e+00 0.0000000e+00 
0.0000000e+00 4.0000000e+00 0.0000000e+00 
0.0000000e+00 3.5000000e+00 0.0000000e+00 
0.0000000e+00 3.0000000e+00 0.0000000e+00 
0.0000000e+00 2.5000000e+00 0.0000000e+00 
0.0000000e+00 2.0000000e+00 0.0000000e+00 
0.0000000e+00 1.5000000e+00 0.0000000e+00 
0.0000000e+00 1.0000000e+00 0.0000000e+00 
0.0000000e+00 5.0000000e-01 0.0000000e+00 
0.0000000e+00 4.7500000e+00 0.0000000e+00 
0.0000000e+00 4.2500000e+00 0.0000000e+00 
0.0000000e+00 3.7500000e+00 0.0000000e+00 
0.0000000e+00 3.2500000e+00 0.0000000e+00 
0.0000000e+00 2.7500000e+00 0.0000000e+00 
0.0000000e+00 2.2500000e+00 0.0000000e+00 
0.0000000e+00 1.7500000e+00 0.0000000e+00 
0.0000000e+00 1.2500000e+00 0.0000000e+00 
0.0000000e+00 7.5000000e-01 0.0000000e+00 
0.0000000e+00 2.5000000e-01 0.0000000e+00 
0.0000000e+00 0.0000000e+00 5.0000000e-01 
0.0000000e+00 0.0000000e+00 1.0000000e+00 
0.0000000e+00 0.0000000e+00 1.5000000e+00 
0.0000000e+00 0.0000000e+00 2.0000000e+00 
0.0000000e+00 0.0000000e+00 2.5000000e+00 
0.0000000e+00 0.0000000e+00 3.0000000e+00 
0.0000000e+00 0.0000000e+00 3.5000000e+00 
0.0000000e+00 0.0000000e+00 4.0000000e+00 
0.0000000e+00 0.0000000e+00 4.5000000e+00 
0.0000000e+00 0.0000000e+00 2.5000000e-01 
0.0000000e+00 0.0000000e+00 7.5000000e-01 
0.0000000e+00 0.0000000e+00 1.2500000e+00 
0.0000000e+00 0.0000000e+00 1.7500000e+00 
0.0000000e+00 0.0000000e+00 2.2500000e+00 
0.0000000e+00 0.0000000e+00 2.7500000e+00 
0.0000000e+00 0.0000000e+00 3.2500000e+00 
0.0000000e+00 0.0000000e+00 3.7500000e+00 
0.0000000e+00 0.0000000e+00 4.2500000e+00 
0.0000000e+00 0.0000000e+00 4.7500000e+00 
5.0000000e+00 0.0000000e+00 5.0000000e-01 
5.0000000e+00 0.0000000e+00 1.0000000e+00 
5.0000000e+00 0.0000000e+00 1.5000000e+00 
5.0000000e+00 0.0000000e+00 2.0000000e+00 
5.0000000e+00 0.0000000e+00 2.5000000e+00 
5.0000000e+00 0.0000000e+00 3.0000000e+00 
5.0000000e+00 0.0000000e+00 3.5000000e+00 
5.0000000e+00 0.0000000e+00 4.0000000e+00 
5.0000000e+00 0.0000000e+00 4.5000000e+00 
5.0000000e+00 0.0000000e+00 2.5000000e-01 
5.0000000e+00 0.0000000e+00 7.5000000e-01 
5.0000000e+00 0.0000000e+00 1.2500000e+00 
5.0000000e+00 0.0000000e+00 1.7500000e+00 
5.0000000e+00 0.0000000e+00 2.2500000e+00 
5.0000000e+00 0.0000000e+00 2.7500000e+00 
5.0000000e+00 0.0000000e+00 3.2500000e+00 
5.0000000e+00 0.0000000e+00 3.7500000e+00 
5.0000000e+00 0.0000000e+00 4.2500000e+00 
5.0000000e+00 0.0000000e+00 4.7500000e+00 
5.0000000e-01 0.0000000e+00 5.0000000e+00 
1.0000000e+00 0.0000000e+00 5.0000000e+00 
1.5000000e+00 0.0000000e+00 5.0000000e+00 
2.0000000e+00 0.0000000e+00 5.0000000e+00 
2.5000000e+00 0.0000000e+00 5.0000000e+00 
3.0000000e+00 0.0000000e+00 5.0000000e+00 
3.5000000e+00 0.0000000e+00 5.0000000e+00 
4.0000000e+00 0.0000000e+00 5.0000000e+00 
4.5000000e+00 0.0000000e+00 5.0000000e+00 
2.5000000e-01 0.0000000e+00 5.0000000e+00 
7.5000000e-01 0.0000000e+00 5.0000000e+00 
1.2500000e+00 0.0000000e+00 5.0000000e+00 
1.7500000e+00 0.0000000e+00 5.0000000e+00 
2.2500000e+00 0.0000000e+00 5.0000000e+00 
2.7500000e+00 0.0000000e+00 5.0000000e+00 
3.2500000e+00 0.0000000e+00 5.0000000e+00 
3.7500000e+00 0.0000000e+00 5.0000000e+00 
4.2500000e+00 0.0000000e+00 5.0000000e+00 
4.7500000e+00 0.0000000e+00 5.0000000e+00 
5.0000000e+00 5.0000000e+00 5.0000000e-01 
5.0000000e+00 5.0000000e+00 1.0000000e+00 
5.0000000e+00 5.0000000e+00 1.5000000e+00 
5.0000000e+00 5.0000000e+00 2.0000000e+00 
5.0000000e+00 5.0000000e+00 2.5000000e+00 
5.0000000e+00 5.0000000e+00 3.0000000e+00 
5.0000000e+00 5.0000000e+00 3.5000000e+00 
5.0000000e+00 5.0000000e+00 4.0000000e+00 
5.0000000e+00 5.0000000e+00 4.5000000e+00 
5.0000000e+00 5.0000000e+00 2.5000000e-01 
5.0000000e+00 5.0000000e+00 7.5000000e-01 
5.0000000e+00 5.0000000e+00 1.2500000e+00 
5.0000000e+00 5.0000000e+00 1.7500000e+00 
5.0000000e+00 5.0000000e+00 2.2500000e+00 
5.0000000e+00 5.0000000e+00 2.7500000e+00 
5.0000000e+00 5.0000000e+00 3.2500000e+00 
5.0000000e+00 5.0000000e+00 3.7500000e+00 
5.0000000e+00 5.0000000e+00 4.2500000e+00 
5.0000000e+00 5.0000000e+00 4.7500000e+00 
5.0000000e+00 5.0000000e-01 5.0000000e+00 
5.0000000e+00 1.0000000e+00 5.0000000e+00 
5.0000000e+00 1.5000000e+00 5.0000000e+00 
5.0000000e+00 2.0000000e+00 5.0000000e+00 
5.0000000e+00 2.5000000e+00 5.0000000e+00 
5.0000000e+00 3.0000000e+00 5.0000000e+00 
5.0000000e+00 3.5000000e+00 5.0000000e+00 
5.0000000e+00 4.0000000e+00 5.0000000e+00 
5.0000000e+00 4.5000000e+00 5.0000000e+00 
5.0000000e+00 2.5000000e-01 5.0000000e+00 
5.0000000e+00 7.5000000e-01 5.0000000e+00 
5.0000000e+00 1.2500000e+00 5.0000000e+00 
5.0000000e+00 1.7500000e+00 5.0000000e+00 
5.0000000e+00 2.2500000e+00 5.0000000e+00 
5.0000000e+00 2.7500000e+00 5.0000000e+00 
5.0000000e+00 3.2500000e+00 5.0000000e+00 
5.0000000e+00 3.7500000e+00 5.0000000e+00 
5.0000000e+00 4.2500000e+00 5.0000000e+00 
5.0000000e+00 4.7500000e+00 5.0000000e+00 
0.0000000e+00 5.0000000e+00 5.0000000e-01 
0.0000000e+00 5.0000000e+00 1.0000000e+00 
0.0000000e+00 5.0000000e+00 1.5000000e+00 
0.0000000e+00 5.0000000e+00 2.0000000e+00 
0.0000000e+00 5.0000000e+00 2.5000000e+00 
0.0000000e+00 5.0000000e+00 3.0000000e+00 
0.0000000e+00 5.0000000e+00 3.5000000e+00 
0.0000000e+00 5.0000000e+00 4.0000000e+00 
0.0000000e+00 5.0000000e+00 4.5000000e+00 
0.0000000e+00 5.0000000e+00 2.5000000e-01 
0.0000000e+00 5.0000000e+00 7.5000000e-01 
0.0000000e+00 5.0000000e+00 1.2500000e+00 
0.0000000e+00 5.0000000e+00 1.7500000e+00 
0.0000000e+00 5.0000000e+00 2.2500000e+00 
0.0000000e+00 5.0000000e+00 2.7500000e+00 
0.0000000e+00 5.0000000e+00 3.2500000e+00 
0.0000000e+00 5.0000000e+00 3.7500000e+00 
0.0000000e+00 5.0000000e+00 4.2500000e+00 
0.0000000e+00 5.0000000e+00 4.7500000e+00 
4.5000000e+00 5.0000000e+00 5.0000000e+00 
4.0000000e+00 5.0000000e+00 5.0000000e+00 
3.5000000e+00 5.0000000e+00 5.0000000e+00 
3.0000000e+00 5.0000000e+00 5.0000000e+00 
2.5000000e+00 5.0000000e+00 5.0000000e+00 
2.0000000e+00 5.0000000e+00 5.0000000e+00 
1.5000000e+00 5.0000000e+00 5.0000000e+00 
1.0000000e+00 5.0000000e+00 5.0000000e+00 
5.0000000e-01 5.0000000e+00 5.0000000e+00 
4.7500000e+00 5.0000000e+00 5.0000000e+00 
4.2500000e+00 5.0000000e+00 5.0000000e+00 
3.7500000e+00 5.0000000e+00 5.0000000e+00 
3.2500000e+00 5.0000000e+00 5.0000000e+00 
2.7500000e+00 5.0000000e+00 5.0000000e+00 
2.2500000e+00 5.0000000e+00 5.0000000e+00 
1.7500000e+00 5.0000000e+00 5.0000000e+00 
1.2500000e+00 5.0000000e+00 5.0000000e+00 
7.5000000e-01 5.0000000e+00 5.0000000e+00 
2.5000000e-01 5.0000000e+00 5.0000000e+00 
0.0000000e+00 4.5000000e+00 5.0000000e+00 
0.0000000e+00 4.0000000e+00 5.0000000e+00 
0.0000000e+00 3.5000000e+00 5.0000000e+00 
0.0000000e+00 3.0000000e+00 5.0000000e+00 
0.0000000e+00 2.5000000e+00 5.0000000e+00 
0.0000000e+00 2.0000000e+00 5.0000000e+00 
0.0000000e+00 1.5000000e+00 5.0000000e+00 
0.0000000e+00 1.0000000e+00 5.0000000e+00 
0.0000000e+00 5.0000000e-01 5.0000000e+00 
0.0000000e+00 4.7500000e+00 5.0000000e+00 
0.0000000e+00 4.2500000e+00 5.0000000e+00 
0.0000000e+00 3.7500000e+00 5.0000000e+00 
0.0000000e+00 3.2500000e+00 5.0000000e+00 
0.0000000e+00 2.7500000e+00 5.0000000e+00 
0.0000000e+00 2.2500000e+00 5.0000000e+00 
0.0000000e+00 1.7500000e+00 5.0000000e+00 
0.0000000e+00 1.2500000e+00 5.0000000e+00 
0.0000000e+00 7.5000000e-01 5.0000000e+00 
0.0000000e+00 2.5000000e-01 5.0000000e+00 
5.0000000e-01 5.0000000e+00 0.0000000e+00 
2.5000000e-01 5.0000000e+00 0.0000000e+00 
7.5000000e-01 5.0000000e+00 0.0000000e+00 
1.5000000e+00 5.0000000e+00 0.0000000e+00 
1.2500000e+00 5.0000000e+00 0.0000000e+00 
1.7500000e+00 5.0000000e+00 0.0000000e+00 
2.5000000e+00 5.0000000e+00 0.0000000e+00 
2.2500000e+00 5.0000000e+00 0.0000000e+00 
2.7500000e+00 5.0000000e+00 0.0000000e+00 
4.5000000e+00 5.0000000e+00 0.0000000e+00 
[...]
POINT_DATA 7662
FIELD FieldData 1
VELOCITY 3 7662  float
0.0000000e+00 0.0000000e+00 0.0000000e+00 
0.0000000e+00 0.0000000e+00 0.0000000e+00 
-2.7530061e-02 -1.7369676e-02 0.0000000e+00 
0.0000000e+00 3.4002930e-01 0.0000000e+00 
0.0000000e+00 0.0000000e+00 0.0000000e+00 
0.0000000e+00 0.0000000e+00 0.0000000e+00 
-1.7020151e-02 -5.0570429e-03 -2.1629358e-02 
0.0000000e+00 3.8455673e-02 -1.1528563e-01 
4.2685930e-02 4.2915918e-02 0.0000000e+00 
9.2811652e-02 1.3924199e-01 0.0000000e+00 
1.5560205e-01 -2.7438367e-02 0.0000000e+00 
0.0000000e+00 0.0000000e+00 0.0000000e+00 
0.0000000e+00 0.0000000e+00 0.0000000e+00 
0.0000000e+00 0.0000000e+00 0.0000000e+00 
0.0000000e+00 0.0000000e+00 0.0000000e+00 
0.0000000e+00 0.0000000e+00 0.0000000e+00 
0.0000000e+00 0.0000000e+00 0.0000000e+00 
0.0000000e+00 0.0000000e+00 0.0000000e+00 
0.0000000e+00 0.0000000e+00 0.0000000e+00 
0.0000000e+00 0.0000000e+00 0.0000000e+00 
0.0000000e+00 0.0000000e+00 0.0000000e+00 
0.0000000e+00 0.0000000e+00 0.0000000e+00 
0.0000000e+00 0.0000000e+00 0.0000000e+00 
0.0000000e+00 0.0000000e+00 0.0000000e+00 
0.0000000e+00 0.0000000e+00 0.0000000e+00 
0.0000000e+00 0.0000000e+00 0.0000000e+00 
0.0000000e+00 0.0000000e+00 0.0000000e+00 
0.0000000e+00 0.0000000e+00 0.0000000e+00 
0.0000000e+00 0.0000000e+00 0.0000000e+00 
0.0000000e+00 0.0000000e+00 0.0000000e+00 
-2.4326168e-02 -1.4478303e-02 0.0000000e+00 
-8.1243925e-03 5.6383405e-02 0.0000000e+00 
-7.5650145e-03 5.0867669e-02 0.0000000e+00 
3.6112186e-03 -6.3297553e-03 0.0000000e+00 
5.4835449e-03 1.5774166e-02 0.0000000e+00 
1.0450580e-02 4.4708263e-02 0.0000000e+00 
9.0438947e-03 1.3166418e-02 0.0000000e+00 
-7.2523057e-03 -2.2281172e-02 0.0000000e+00 
3.6715824e-02 -5.3852789e-02 0.0000000e+00 
-1.3633312e-02 -1.1352041e-02 0.0000000e+00 
-1.6800905e-02 2.3419807e-02 0.0000000e+00 
-7.3331827e-03 6.3107982e-02 0.0000000e+00 
-5.3912210e-03 2.6985228e-02 0.0000000e+00 
8.4552786e-04 -1.2112752e-02 0.0000000e+00 
1.7611123e-06 4.1291408e-02 0.0000000e+00 
1.8969139e-02 3.4853924e-02 0.0000000e+00 
-3.5172267e-05 -4.8895869e-03 0.0000000e+00 
1.2876224e-02 -4.3249130e-02 0.0000000e+00 
2.4702452e-02 -3.1031156e-02 0.0000000e+00 
0.0000000e+00 2.6580524e-01 0.0000000e+00 
0.0000000e+00 2.3852773e-01 0.0000000e+00 
0.0000000e+00 2.5639939e-01 0.0000000e+00 
0.0000000e+00 -1.3623761e-01 0.0000000e+00 
0.0000000e+00 -1.8673672e-01 0.0000000e+00 
0.0000000e+00 5.0095662e-02 0.0000000e+00 
0.0000000e+00 -6.5869696e-02 0.0000000e+00 
0.0000000e+00 -1.9966584e-01 0.0000000e+00 
0.0000000e+00 -1.2220643e-01 0.0000000e+00 
0.0000000e+00 3.0869409e-01 0.0000000e+00 
0.0000000e+00 2.4335538e-01 0.0000000e+00 
0.0000000e+00 2.7781960e-01 0.0000000e+00 
0.0000000e+00 6.2580474e-02 0.0000000e+00 
0.0000000e+00 -2.0460661e-01 0.0000000e+00 
0.0000000e+00 -7.4388131e-02 0.0000000e+00 
0.0000000e+00 4.1486938e-02 0.0000000e+00 
0.0000000e+00 -1.5434438e-01 0.0000000e+00 
0.0000000e+00 -1.7878853e-01 0.0000000e+00 
0.0000000e+00 -6.1137784e-02 0.0000000e+00 
0.0000000e+00 0.0000000e+00 0.0000000e+00 
0.0000000e+00 0.0000000e+00 0.0000000e+00 
0.0000000e+00 0.0000000e+00 0.0000000e+00 
0.0000000e+00 0.0000000e+00 0.0000000e+00 
0.0000000e+00 0.0000000e+00 0.0000000e+00 
0.0000000e+00 0.0000000e+00 0.0000000e+00 
0.0000000e+00 0.0000000e+00 0.0000000e+00 
0.0000000e+00 0.0000000e+00 0.0000000e+00 
0.0000000e+00 0.0000000e+00 0.0000000e+00 
0.0000000e+00 0.0000000e+00 0.0000000e+00 
0.0000000e+00 0.0000000e+00 0.0000000e+00 
0.0000000e+00 0.0000000e+00 0.0000000e+00 
0.0000000e+00 0.0000000e+00 0.0000000e+00 
0.0000000e+00 0.0000000e+00 0.0000000e+00 
0.0000000e+00 0.0000000e+00 0.0000000e+00 
0.0000000e+00 0.0000000e+00 0.0000000e+00 
0.0000000e+00 0.0000000e+00 0.0000000e+00 
0.0000000e+00 0.0000000e+00 0.0000000e+00 
0.0000000e+00 0.0000000e+00 0.0000000e+00 
0.0000000e+00 0.0000000e+00 0.0000000e+00 
0.0000000e+00 0.0000000e+00 0.0000000e+00 
0.0000000e+00 0.0000000e+00 0.0000000e+00 
0.0000000e+00 0.0000000e+00 0.0000000e+00 
0.0000000e+00 0.0000000e+00 0.0000000e+00 
0.0000000e+00 0.0000000e+00 0.0000000e+00 
0.0000000e+00 0.0000000e+00 0.0000000e+00 
0.0000000e+00 0.0000000e+00 0.0000000e+00 
0.0000000e+00 0.0000000e+00 0.0000000e+00 
0.0000000e+00 0.0000000e+00 0.0000000e+00 
0.0000000e+00 0.0000000e+00 0.0000000e+00 
0.0000000e+00 0.0000000e+00 0.0000000e+00 
0.0000000e+00 0.0000000e+00 0.0000000e+00 
0.0000000e+00 0.0000000e+00 0.0000000e+00 
0.0000000e+00 0.0000000e+00 0.0000000e+00 
0.0000000e+00 0.0000000e+00 0.0000000e+00 
0.0000000e+00 0.0000000e+00 0.0000000e+00 
0.0000000e+00 0.0000000e+00 0.0000000e+00 
0.0000000e+00 0.0000000e+00 0.0000000e+00 
0.0000000e+00 0.0000000e+00 0.0000000e+00 
0.0000000e+00 0.0000000e+00 0.0000000e+00 
0.0000000e+00 0.0000000e+00 0.0000000e+00 
0.0000000e+00 0.0000000e+00 0.0000000e+00 
0.0000000e+00 0.0000000e+00 0.0000000e+00 
0.0000000e+00 0.0000000e+00 0.0000000e+00 
0.0000000e+00 0.0000000e+00 0.0000000e+00 
0.0000000e+00 0.0000000e+00 0.0000000e+00 
0.0000000e+00 0.0000000e+00 0.0000000e+00 
0.0000000e+00 0.0000000e+00 0.0000000e+00 
0.0000000e+00 0.0000000e+00 0.0000000e+00 
0.0000000e+00 0.0000000e+00 0.0000000e+00 
0.0000000e+00 0.0000000e+00 0.0000000e+00 
0.0000000e+00 0.0000000e+00 0.0000000e+00 
0.0000000e+00 0.0000000e+00 0.0000000e+00 
0.0000000e+00 0.0000000e+00 0.0000000e+00 
0.0000000e+00 0.0000000e+00 0.0000000e+00 
0.0000000e+00 0.0000000e+00 0.0000000e+00 
0.0000000e+00 0.0000000e+00 0.0000000e+00 
-4.9950150e-03 8.9242533e-02 -8.3176240e-02 
4.4118747e-02 1.3266495e-01 -3.8628712e-02 
-1.5545429e-03 1.1877258e-01 1.3424364e-02 
-4.1764587e-02 1.7331856e-01 -1.5786475e-02 
-3.5619471e-02 1.5135370e-01 4.0929399e-02 
-5.8407135e-02 1.2858069e-01 -4.0914472e-03 
-4.8949439e-02 7.8635037e-02 -1.1081831e-02 
-6.0071591e-02 4.1849002e-02 -3.8311068e-02 
-1.9117892e-02 -8.5867150e-03 -1.9575667e-02 
-2.6207084e-02 2.6794301e-02 -5.6636613e-02 
1.9744584e-02 1.2454332e-01 -6.5665968e-02 
3.2760110e-02 1.3082857e-01 -1.2591610e-03 
-3.6957372e-02 1.2833254e-01 -3.3009695e-03 
-3.4348194e-02 1.8283635e-01 1.2573012e-02 
-5.8490656e-02 1.2922516e-01 2.0142410e-02 
-4.9963530e-02 1.0650782e-01 -6.3849958e-03 
-5.9458159e-02 5.6559768e-02 -2.3562806e-02 
-4.0675782e-02 3.1651560e-02 -3.6369424e-02 
-1.6483966e-02 -2.7742166e-02 -1.9913644e-02 
1.4253732e-02 -2.2781377e-03 1.2796787e-02 
4.9692518e-03 -1.1496827e-03 1.0013999e-02 
-2.3881463e-02 7.6526068e-03 -1.3259729e-02 
-3.1933211e-02 4.1198451e-02 -3.6161803e-02 
-1.7569920e-02 5.7844765e-02 -1.9113205e-02 
-1.1316786e-02 5.4976545e-02 -1.6308479e-02 
4.3940516e-03 4.5146961e-02 -2.8737951e-03 
-8.8298162e-03 3.0299846e-02 -5.4390850e-03 
-1.2223267e-02 -8.3785871e-04 -3.9680498e-03 
6.7384942e-03 -4.9332459e-03 4.8181820e-03 
1.5451490e-02 -4.2102640e-03 1.5478437e-02 
-7.4885269e-03 3.5075815e-03 -2.7320955e-03 
-3.4150630e-02 2.5821641e-02 -2.8362399e-02 
-2.2676265e-02 5.0593443e-02 -2.9658753e-02 
-1.5628049e-02 5.7814617e-02 -1.3651804e-02 
-2.6727931e-03 4.8755325e-02 -7.3035802e-03 
-8.3734590e-04 4.3852098e-02 1.8742518e-04 
-1.1836776e-02 1.2203461e-02 -9.5238797e-03 
-1.0881802e-02 -2.0057284e-03 -1.0038752e-02 
0.0000000e+00 1.8882416e-01 1.0296746e-01 
0.0000000e+00 3.3475947e-02 9.2258915e-02 
0.0000000e+00 1.2633705e-01 -1.0563279e-02 
0.0000000e+00 7.4456625e-02 6.9132723e-02 
0.0000000e+00 -3.1825878e-02 1.7311109e-02 
0.0000000e+00 3.7938874e-02 1.3880914e-01 
0.0000000e+00 -1.6141833e-01 6.3029528e-02 
0.0000000e+00 -1.1387859e-01 9.8980159e-02 
0.0000000e+00 -1.8997034e-01 1.9180287e-02 
0.0000000e+00 2.7056503e-01 6.5718122e-02 
0.0000000e+00 9.7025581e-02 1.1914181e-01 
0.0000000e+00 5.7461761e-02 2.5396474e-02 
0.0000000e+00 1.5437879e-01 1.5176056e-02 
0.0000000e+00 -1.7332347e-03 7.0665821e-02 
0.0000000e+00 7.2817668e-02 3.4648214e-02 
0.0000000e+00 -1.2782553e-01 1.4637455e-01 
0.0000000e+00 -9.3162619e-02 5.0607655e-02 
0.0000000e+00 -2.0383254e-01 8.1997164e-02 
0.0000000e+00 -9.3831442e-02 -4.7334116e-02 
-2.0232629e-02 -8.6274219e-04 -1.5854951e-02 
-3.6270153e-02 3.9722189e-02 -6.2526353e-02 
-3.7120006e-03 6.1092265e-02 -4.3700710e-02 
-2.6795588e-02 9.2197418e-02 -3.5305738e-02 
1.9617682e-02 8.4053613e-02 -2.4129814e-02 
2.9409962e-02 1.4551628e-01 5.5981688e-03 
-1.6589659e-04 1.5625007e-01 -1.8247929e-03 
-3.5278037e-02 1.6253482e-01 2.6189661e-02 
-7.6302461e-02 1.1655001e-01 -4.1215818e-02 
-1.6715737e-02 -2.3020457e-02 -1.9134983e-02 
-3.7770446e-02 3.1928811e-02 -3.7039299e-02 
-1.5691040e-02 4.4230651e-02 -6.4059407e-02 
-2.1240728e-02 9.1795594e-02 -3.6622491e-02 
-9.4011687e-03 8.7710880e-02 -4.0183939e-02 
3.3955280e-02 1.1597720e-01 8.5160322e-04 
4.0840660e-03 1.6015966e-01 -7.7038291e-03 
-6.3326764e-03 1.5213647e-01 1.6014760e-02 
-6.3806020e-02 1.4954437e-01 2.5195451e-04 
-5.2390814e-02 6.8281196e-02 -8.6177692e-02 
0.0000000e+00 -1.5064782e-02 2.2970162e-02 
0.0000000e+00 -2.0546265e-02 5.3126425e-03 
0.0000000e+00 1.6842563e-02 5.8997665e-03 
0.0000000e+00 4.2280093e-02 9.3489336e-03 
0.0000000e+00 2.4554739e-02 1.5578558e-02 
0.0000000e+00 -2.0510679e-02 5.1313830e-03 
0.0000000e+00 4.3564811e-02 -2.6429500e-02 
0.0000000e+00 4.7304992e-02 -1.0068609e-02 
0.0000000e+00 3.0086251e-02 -2.1439781e-02 
0.0000000e+00 1.0897683e-02 -3.6466771e-03 
0.0000000e+00 -2.2957105e-02 1.7979376e-02 
0.0000000e+00 -3.9737774e-03 8.6858291e-03 
0.0000000e+00 3.6912847e-02 6.1247298e-03 
0.0000000e+00 3.8490202e-02 9.2695598e-03 
0.0000000e+00 -1.8247246e-03 1.7372927e-02 
0.0000000e+00 1.2685590e-03 -1.9669639e-02 
0.0000000e+00 6.2025305e-02 -1.5969729e-02 
0.0000000e+00 3.8475655e-02 -2.5901750e-02 
0.0000000e+00 1.5678514e-02 3.1001712e-03 
6.6256195e-02 2.0473497e-01 0.0000000e+00 
4.7642361e-02 2.7182037e-01 0.0000000e+00 
7.5207137e-02 1.4879049e-01 0.0000000e+00 
-7.1411170e-02 1.1599033e-01 0.0000000e+00 
-3.0802151e-02 7.6038428e-03 0.0000000e+00 
4.0186010e-03 1.9814639e-01 0.0000000e+00 
7.3822618e-02 5.2077893e-02 0.0000000e+00 
9.4741896e-02 4.9685154e-02 0.0000000e+00 
1.0227519e-01 5.5084400e-02 0.0000000e+00 
-3.8347527e-02 -8.4552363e-02 0.0000000e+00 
8.9328438e-02 -1.2116118e-01 0.0000000e+00 
5.6584280e-02 -1.5687411e-01 0.0000000e+00 
-1.6813142e-02 -4.5944314e-02 0.0000000e+00 
1.6868431e-02 -1.7032565e-01 0.0000000e+00 
5.9455268e-02 -8.5225865e-02 0.0000000e+00 
1.2817600e-01 -1.4560623e-01 0.0000000e+00 
4.1658249e-02 8.7144785e-02 0.0000000e+00 
8.2399435e-02 -2.6254201e-02 0.0000000e+00 
-1.8833121e-02 -4.1459613e-02 0.0000000e+00 
5.8107540e-02 -1.7905998e-01 0.0000000e+00 
3.3496547e-02 1.6669396e-01 0.0000000e+00 
2.5856214e-02 1.2851939e-02 0.0000000e+00 
9.2518039e-02 4.1274853e-02 0.0000000e+00 
-5.9823208e-02 -6.8967780e-03 0.0000000e+00 
2.2295514e-02 2.3399419e-01 0.0000000e+00 
4.9138151e-02 -1.2011124e-01 0.0000000e+00 
1.9005848e-02 -9.9380985e-02 0.0000000e+00 
4.3967783e-02 7.0393026e-02 0.0000000e+00 
5.6245890e-02 1.1868499e-01 0.0000000e+00 
8.1781268e-02 1.4270598e-01 0.0000000e+00 
7.3626943e-02 -8.9673109e-02 0.0000000e+00 
-6.2071089e-02 -1.8433081e-01 0.0000000e+00 
4.8782483e-02 3.1226058e-02 0.0000000e+00 
9.0672188e-02 1.5860893e-01 0.0000000e+00 
7.2727129e-02 8.8070340e-02 0.0000000e+00 
-2.2741601e-02 9.2922196e-02 0.0000000e+00 
-5.3395901e-02 2.7461244e-02 0.0000000e+00 
-1.0453333e-02 -4.6290766e-02 0.0000000e+00 
-3.5774041e-02 -8.1708290e-02 0.0000000e+00 
1.2595097e-02 -2.1121138e-01 0.0000000e+00 
2.3253933e-02 -9.5580183e-02 0.0000000e+00 
-8.1892572e-02 -7.7615090e-02 0.0000000e+00 
-1.8580940e-02 -1.1042938e-01 0.0000000e+00 
-9.4307110e-02 -8.4047735e-02 0.0000000e+00 
-5.2293193e-02 -5.3600099e-02 0.0000000e+00 
-6.4713493e-02 -3.3420548e-02 0.0000000e+00 
-3.7300527e-02 -5.9835695e-02 0.0000000e+00 
5.1599317e-03 -9.9907547e-02 0.0000000e+00 
-1.4053172e-01 -1.1271099e-01 0.0000000e+00 
5.6991566e-02 5.7434894e-02 0.0000000e+00 
7.8408182e-02 -4.4266727e-02 0.0000000e+00 
7.8759626e-02 5.2991286e-03 0.0000000e+00 
-4.5894988e-02 -5.2061439e-03 0.0000000e+00 
-7.0898496e-02 -6.3119337e-02 0.0000000e+00 
5.3042371e-02 -3.7715141e-02 0.0000000e+00 
-6.2019345e-03 -5.6925818e-02 0.0000000e+00 
1.4901004e-02 -7.0690498e-02 0.0000000e+00 
-8.4877235e-04 -6.7802906e-02 0.0000000e+00 
1.1744075e-02 -1.0631186e-01 0.0000000e+00 
-4.8433680e-02 -7.6989882e-02 0.0000000e+00 
6.4767867e-02 3.7433218e-02 0.0000000e+00 
7.0623532e-02 1.0932924e-01 0.0000000e+00 
3.0460835e-03 -2.5636459e-02 0.0000000e+00 
-4.0629371e-03 -2.5798085e-01 0.0000000e+00 
-1.2030882e-02 -5.5531275e-02 0.0000000e+00 
3.2926101e-02 7.3199570e-02 0.0000000e+00 
5.4531824e-02 4.2234898e-02 0.0000000e+00 
3.3924058e-02 -1.1752596e-01 0.0000000e+00 
-1.7484674e-02 -2.8573746e-02 0.0000000e+00 
1.9438317e-02 -4.0491745e-02 0.0000000e+00 
-7.3856607e-02 -6.3959487e-02 0.0000000e+00 
-3.0980788e-02 -7.2859940e-03 0.0000000e+00 
2.6463341e-02 2.7991360e-02 0.0000000e+00 
-4.2797923e-02 2.6801792e-03 0.0000000e+00 
-2.2585765e-02 -4.6193615e-02 0.0000000e+00 
2.2966629e-02 -4.8177574e-02 0.0000000e+00 
2.6248928e-02 -8.3071217e-02 0.0000000e+00 
3.5102636e-02 4.5570228e-03 0.0000000e+00 
2.1394383e-02 3.8329512e-02 0.0000000e+00 
-2.4229242e-02 9.2540674e-02 0.0000000e+00 
-4.1131929e-02 1.6223801e-02 0.0000000e+00 
8.3704725e-02 -2.5591776e-02 0.0000000e+00 
1.1572919e-01 6.0944449e-02 0.0000000e+00 
-2.0051870e-02 4.9879387e-02 0.0000000e+00 
-1.8179087e-02 -1.0229211e-01 0.0000000e+00 
2.4285313e-02 -2.0759501e-01 0.0000000e+00 
-3.4686137e-02 -6.1805531e-02 0.0000000e+00 
1.0449501e-02 -2.1353272e-01 0.0000000e+00 
-4.1730266e-02 -5.2814368e-02 0.0000000e+00 
2.8437877e-02 -1.9542472e-01 0.0000000e+00 
5.6856744e-02 -5.7816710e-02 0.0000000e+00 
-2.6935736e-02 6.8459198e-02 0.0000000e+00 
-1.3382912e-02 -3.7281934e-02 0.0000000e+00 
2.1930924e-02 9.7464226e-02 0.0000000e+00 
-2.0294217e-02 -6.9602259e-02 0.0000000e+00 
-6.9502033e-03 1.1735017e-01 0.0000000e+00 
-1.3917175e-02 -8.8101119e-02 0.0000000e+00 
-2.3125922e-02 3.1512401e-01 0.0000000e+00 
6.7714624e-02 -1.7476690e-01 0.0000000e+00 
7.2916530e-02 -1.1899111e-01 0.0000000e+00 
-6.3359469e-02 -9.3595035e-02 0.0000000e+00 
-5.4323446e-02 -1.1458174e-01 0.0000000e+00 
-6.0993314e-02 -9.1131940e-02 0.0000000e+00 
-1.7992975e-02 3.4856718e-02 0.0000000e+00 
-6.2627479e-02 5.8873799e-02 0.0000000e+00 
-4.1338276e-02 5.4248378e-02 0.0000000e+00 
2.0843619e-02 -6.8720825e-02 0.0000000e+00 
-1.3381245e-02 -8.4299140e-02 0.0000000e+00 
-5.8535702e-04 -5.6400515e-02 0.0000000e+00 
2.9711943e-02 4.6706796e-02 0.0000000e+00 
7.3205061e-02 1.1457439e-01 0.0000000e+00 
3.0351372e-03 -1.7082717e-01 0.0000000e+00 
2.9836230e-02 2.8447813e-01 0.0000000e+00 
3.3635620e-02 -1.3426483e-01 0.0000000e+00 
5.1179547e-02 -7.7990055e-02 0.0000000e+00 
1.7266527e-02 9.9519238e-02 0.0000000e+00 
1.9009734e-02 -1.1540659e-01 0.0000000e+00 
-8.1164271e-02 -8.2246408e-02 0.0000000e+00 
-2.8491255e-02 -1.6029846e-02 0.0000000e+00 
-3.7918109e-02 8.9323401e-02 0.0000000e+00 
1.0275669e-01 -8.3552949e-02 0.0000000e+00 
3.0176923e-02 -6.3291311e-02 0.0000000e+00 
1.5318195e-02 -5.2948851e-02 0.0000000e+00 
1.7622091e-02 -1.2492954e-01 0.0000000e+00 
-3.5049296e-03 2.3968866e-02 0.0000000e+00 
2.4523256e-02 4.9454037e-02 0.0000000e+00 
-9.3349116e-03 5.8242407e-02 0.0000000e+00 
1.7258123e-02 -5.3320460e-02 0.0000000e+00 
4.6648957e-02 -6.4083174e-02 0.0000000e+00 
1.1112086e-02 -7.9842515e-02 0.0000000e+00 
2.7310135e-04 2.9386011e-01 0.0000000e+00 
1.0641443e-02 3.0451593e-01 0.0000000e+00 
4.4982344e-02 2.4075250e-01 0.0000000e+00 
6.3986056e-02 1.9158395e-01 0.0000000e+00 
3.8252860e-02 1.0013853e-01 0.0000000e+00 
1.0358039e-02 1.4175638e-02 0.0000000e+00 
6.6398592e-03 5.4872364e-02 0.0000000e+00 
5.1128954e-02 5.4509565e-02 0.0000000e+00 
4.7013788e-03 1.7245801e-01 0.0000000e+00 
1.8406916e-02 1.8610026e-01 0.0000000e+00 
3.7265807e-02 9.7536825e-02 0.0000000e+00 
6.0879637e-02 5.3889461e-02 0.0000000e+00 
2.4626777e-02 1.2043335e-01 0.0000000e+00 
6.4866282e-02 7.5060867e-02 0.0000000e+00 
7.5107709e-02 4.1245505e-02 0.0000000e+00 
7.5935416e-02 -8.2198061e-02 0.0000000e+00 
6.3130632e-02 -1.7439522e-01 0.0000000e+00 
3.3006169e-02 1.2122921e-02 0.0000000e+00 
4.3107974e-03 -4.3902740e-02 0.0000000e+00 
2.2792263e-02 -5.9863057e-02 0.0000000e+00 
1.0205989e-02 -1.1896129e-01 0.0000000e+00 
2.0699354e-02 -4.9383581e-02 0.0000000e+00 
5.1530516e-03 -4.7365893e-02 0.0000000e+00 
1.0481514e-03 -8.9050665e-02 0.0000000e+00 
5.0243046e-02 -2.0421527e-02 0.0000000e+00 
3.9796777e-02 -4.0358409e-02 0.0000000e+00 
4.4295505e-02 -8.3568670e-02 0.0000000e+00 
3.2451913e-02 -1.3751086e-02 0.0000000e+00 
4.5972399e-02 -4.9390765e-03 0.0000000e+00 
6.9481328e-02 -3.5567425e-02 0.0000000e+00 
4.8163421e-02 -5.3584883e-03 0.0000000e+00 
3.4666244e-02 -2.0746874e-02 0.0000000e+00 
8.1662819e-02 -3.7832282e-02 0.0000000e+00 
7.3326580e-02 2.7499953e-02 0.0000000e+00 
5.7371002e-02 1.6294701e-02 0.0000000e+00 
8.7169595e-02 1.4239768e-02 0.0000000e+00 
9.1107860e-02 4.3934200e-02 0.0000000e+00 
8.8401645e-02 3.4535661e-02 0.0000000e+00 
1.0246458e-01 4.3353792e-02 0.0000000e+00 
4.9226932e-02 6.2420867e-02 0.0000000e+00 
7.8233235e-02 5.7837214e-02 0.0000000e+00 
9.2599735e-02 9.2033431e-02 0.0000000e+00 
3.7783094e-02 1.1089364e-01 0.0000000e+00 
-5.5376673e-03 9.2492446e-02 0.0000000e+00 
-1.1316042e-02 8.4126949e-02 0.0000000e+00 
2.3358834e-03 1.2064378e-01 0.0000000e+00 
2.7006429e-02 7.7303216e-02 0.0000000e+00 
1.3441293e-02 9.1292664e-02 0.0000000e+00 
7.5315442e-03 9.7792506e-02 0.0000000e+00 
-1.0677910e-02 -1.6818622e-02 0.0000000e+00 
1.0748230e-02 4.0208783e-02 0.0000000e+00 
2.4780950e-02 2.7808011e-02 0.0000000e+00 
-1.1169662e-02 -4.1496050e-02 0.0000000e+00 
-8.6840177e-03 -4.7050241e-02 0.0000000e+00 
-9.8073650e-03 -4.4522174e-02 0.0000000e+00 
-1.0041709e-03 5.1491112e-03 0.0000000e+00 
-1.7235149e-02 -1.5453989e-02 0.0000000e+00 
-3.1134242e-02 -2.6280411e-02 0.0000000e+00 
1.1502819e-02 7.8334725e-03 0.0000000e+00 
2.1295005e-02 1.4850202e-02 0.0000000e+00 
1.7017139e-02 7.6847267e-03 0.0000000e+00 
2.0020505e-02 -1.7913548e-02 0.0000000e+00 
7.6654041e-03 -2.3311942e-03 0.0000000e+00 
1.2235058e-02 1.6002826e-02 0.0000000e+00 
4.8150554e-02 -6.8161219e-02 0.0000000e+00 
3.2853547e-02 -4.6510167e-02 0.0000000e+00 
4.9056482e-02 -4.0877551e-02 0.0000000e+00 
7.1229681e-02 -9.1525674e-02 0.0000000e+00 
-7.7064750e-03 2.7098218e-01 0.0000000e+00 
-1.1297077e-02 2.8706512e-01 0.0000000e+00 
1.1112733e-02 3.0637157e-01 0.0000000e+00 
2.3533702e-02 2.6185030e-01 0.0000000e+00 
1.6063863e-02 2.7160540e-01 0.0000000e+00 
-1.1204850e-02 2.7581850e-01 0.0000000e+00 
-2.1361560e-02 -2.1063408e-02 0.0000000e+00 
-2.4804277e-02 1.5164779e-01 0.0000000e+00 
2.0227127e-02 1.6784854e-01 0.0000000e+00 
2.1787712e-02 -1.8260525e-01 0.0000000e+00 
1.9514723e-02 -1.7234525e-01 0.0000000e+00 
3.0349304e-03 -7.9363480e-02 0.0000000e+00 
-2.8962905e-03 -3.0072792e-02 0.0000000e+00 
3.7677118e-03 -1.3108175e-01 0.0000000e+00 
1.2903430e-02 -1.5800896e-01 0.0000000e+00 
-4.7850594e-02 -1.0536304e-02 0.0000000e+00 
-2.7388208e-02 4.2212363e-02 0.0000000e+00 
-3.3110432e-02 -4.3613747e-02 0.0000000e+00 
-2.3418900e-02 -1.4132690e-01 0.0000000e+00 
-3.3244021e-02 -8.8313460e-02 0.0000000e+00 
-4.4740122e-02 -3.3949710e-02 0.0000000e+00 
-1.0074939e-02 -1.7186165e-01 0.0000000e+00 
-2.6528174e-02 -1.8333629e-01 0.0000000e+00 
-5.1388856e-02 -1.1828275e-01 0.0000000e+00 
-1.3637575e-02 -1.7797837e-01 0.0000000e+00 
6.9243431e-02 2.2903137e-01 0.0000000e+00 
4.9118329e-02 1.0503130e-01 0.0000000e+00 
4.7141146e-02 6.7967862e-02 0.0000000e+00 
4.5503229e-02 -1.6800760e-01 0.0000000e+00 
3.2900408e-02 -1.6472015e-01 0.0000000e+00 
6.4060286e-02 -1.4474532e-01 0.0000000e+00 
5.2754063e-02 -1.3135587e-01 0.0000000e+00 
4.9509250e-02 -9.7434781e-02 0.0000000e+00 
5.5298775e-02 -1.2495179e-01 0.0000000e+00 
4.8278954e-02 -1.6442680e-01 0.0000000e+00 
7.3100209e-02 5.9384603e-02 0.0000000e+00 
6.1294083e-02 6.2787078e-02 0.0000000e+00 