# vtk DataFile Version 4.0
vtk output
ASCII
DATASET UNSTRUCTURED_GRID
POINTS 7662 float
0.0000000e+00 0.0000000e+00 0.0000000e+00 
5.0000000e+00 0.0000000e+00 0.0000000e+00 
5.0000000e+00 5.0000000e+00 0.0000000e+00 
0.0000000e+00 5.0000000e+00 0.0000000e+00 
0.0000000e+00 0.0000000e+00 5.0000000e+00 
5.0000000e+00 0.0000000e+00 5.0000000e+00 
5.0000000e+00 5.0000000e+00 5.0000000e+00 
0.0000000e+00 5.0000000e+00 5.0000000e+00 
1.0000000e+00 5.0000000e+00 0.0000000e+00 
2.0000000e+00 5.0000000e+00 0.0000000e+00 
3.0000000e+00 5.0000000e+00 0.0000000e+00 
5.0000000e-01 0.0000000e+00 0.0000000e+00 
1.0000000e+00 0.0000000e+00 0.0000000e+00 
1.5000000e+00 0.0000000e+00 0.0000000e+00 
2.0000000e+00 0.0000000e+00 0.0000000e+00 
2.5000000e+00 0.0000000e+00 0.0000000e+00 
3.0000000e+00 0.0000000e+00 0.0000000e+00 
3.5000000e+00 0.0000000e+00 0.0000000e+00 
4.0000000e+00 0.0000000e+00 0.0000000e+00 
4.5000000e+00 0.0000000e+00 0.0000000e+00 
2.5000000e-01 0.0000000e+00 0.0000000e+00 
7.5000000e-01 0.0000000e+00 0.0000000e+00 
1.2500000e+00 0.0000000e+00 0.0000000e+00 
1.7500000e+00 0.0000000e+00 0.0000000e+00 
2.2500000e+00 0.0000000e+00 0.0000000e+00 
2.7500000e+00 0.0000000e+00 0.0000000e+00 
3.2500000e+00 0.0000000e+00 0.0000000e+00 
3.7500000e+00 0.0000000e+00 0.0000000e+00 
4.2500000e+00 0.0000000e+00 0.0000000e+00 
4.7500000e+00 0.0000000e+00 0.0000000e+00 
5.0000000e+00 5.0000000e-01 0.0000000e+00 
5.0000000e+00 1.0000000e+00 0.0000000e+00 
5.0000000e+00 1.5000000e+00 0.0000000e+00 
5.0000000e+00 2.0000000e+00 0.0000000e+00 
5.0000000e+00 2.5000000e+00 0.0000000e+00 
5.0000000e+00 3.0000000e+00 0.0000000e+00 
5.0000000e+00 3.5000000e+00 0.0000000e+00 
5.0000000e+00 4.0000000e+00 0.0000000e+00 
5.0000000e+00 4.5000000e+00 0.0000000e+00 
5.0000000e+00 2.5000000e-01 0.0000000e+00 
5.0000000e+00 7.5000000e-01 0.0000000e+00 
5.0000000e+00 1.2500000e+00 0.0000000e+00 
5.0000000e+00 1.7500000e+00 0.0000000e+00 
5.0000000e+00 2.2500000e+00 0.0000000e+00 
5.0000000e+00 2.7500000e+00 0.0000000e+00 
5.0000000e+00 3.2500000e+00 0.0000000e+00 
5.0000000e+00 3.7500000e+00 0.0000000e+00 
5.0000000e+00 4.2500000e+00 0.0000000e+00 
5.0000000e+00 4.7500000e+00 0.0000000e+00 
0.0000000e+00 4.5000000e+00 0.0000000e+00 
0.0000000e+00 4.0000000e+00 0.0000000e+00 
0.0000000e+00 3.5000000e+00 0.0000000e+00 
0.0000000e+00 3.0000000e+00 0.0000000e+00 
0.0000000e+00 2.5000000e+00 0.0000000e+00 
0.0000000e+00 2.0000000e+00 0.0000000e+00 
0.0000000e+00 1.5000000e+00 0.0000000e+00 
0.0000000e+00 1.0000000e+00 0.0000000e+00 
0.0000000e+00 5.0000000e-01 0.0000000e+00 
0.0000000e+00 4.7500000e+00 0.0000000e+00 
0.0000000e+00 4.2500000e+00 0.0000000e+00 
0.0000000e+00 3.7500000e+00 0.0000000e+00 
0.0000000e+00 3.2500000e+00 0.0000000e+00 
0.0000000e+00 2.7500000e+00 0.0000000e+00 
0.0000000e+00 2.2500000e+00 0.0000000e+00 
0.0000000e+00 1.7500000e+00 0.0000000e+00 
0.0000000e+00 1.2500000e+00 0.0000000e+00 
0.0000000e+00 7.5000000e-01 0.0000000e+00 
0.0000000e+00 2.5000000e-01 0.0000000e+00 
0.0000000e+00 0.0000000e+00 5.0000000e-01 
0.0000000e+00 0.0000000e+00 1.0000000e+00 
0.0000000e+00 0.0000000e+00 1.5000000e+00 
0.0000000e+00 0.0000000e+00 2.0000000e+00 
0.0000000e+00 0.0000000e+00 2.5000000e+00 
0.0000000e+00 0.0000000e+00 3.0000000e+00 
0.0000000e+00 0.0000000e+00 3.5000000e+00 
0.0000000e+00 0.0000000e+00 4.0000000e+00 
0.0000000e+00 0.0000000e+00 4.5000000e+00 
0.0000000e+00 0.0000000e+00 2.5000000e-01 
0.0000000e+00 0.0000000e+00 7.5000000e-01 
0.0000000e+00 0.0000000e+00 1.2500000e+00 
0.0000000e+00 0.0000000e+00 1.7500000e+00 
0.0000000e+00 0.0000000e+00 2.2500000e+00 
0.0000000e+00 0.0000000e+00 2.7500000e+00 
0.0000000e+00 0.0000000e+00 3.2500000e+00 
0.0000000e+00 0.0000000e+00 3.7500000e+00 
0.0000000e+00 0.0000000e+00 4.2500000e+00 
0.0000000e+00 0.0000000e+00 4.7500000e+00 
5.0000000e+00 0.0000000e+00 5.0000000e-01 
5.0000000e+00 0.0000000e+00 1.0000000e+00 
5.0000000e+00 0.0000000e+00 1.5000000e+00 
5.0000000e+00 0.0000000e+00 2.0000000e+00 
5.0000000e+00 0.0000000e+00 2.5000000e+00 
5.0000000e+00 0.0000000e+00 3.0000000e+00 
5.0000000e+00 0.0000000e+00 3.5000000e+00 
5.0000000e+00 0.0000000e+00 4.0000000e+00 
5.0000000e+00 0.0000000e+00 4.5000000e+00 
5.0000000e+00 0.0000000e+00 2.5000000e-01 
5.0000000e+00 0.0000000e+00 7.5000000e-01 
5.0000000e+00 0.0000000e+00 1.2500000e+00 
5.0000000e+00 0.0000000e+00 1.7500000e+00 
5.0000000e+00 0.0000000e+00 2.2500000e+00 
5.0000000e+00 0.0000000e+00 2.7500000e+00 
5.0000000e+00 0.0000000e+00 3.2500000e+00 
5.0000000e+00 0.0000000e+00 3.7500000e+00 
5.0000000e+00 0.0000000e+00 4.2500000e+00 
5.0000000e+00 0.0000000e+00 4.7500000e+00 
5.0000000e-01 0.0000000e+00 5.0000000e+00 
1.0000000e+00 0.0000000e+00 5.0000000e+00 
1.5000000e+00 0.0000000e+00 5.0000000e+00 
2.0000000e+00 0.0000000e+00 5.0000000e+00 
2.5000000e+00 0.0000000e+00 5.0000000e+00 
3.0000000e+00 0.0000000e+00 5.0000000e+00 
3.5000000e+00 0.0000000e+00 5.0000000e+00 
4.0000000e+00 0.0000000e+00 5.0000000e+00 
4.5000000e+00 0.0000000e+00 5.0000000e+00 
2.5000000e-01 0.0000000e+00 5.0000000e+00 
7.5000000e-01 0.0000000e+00 5.0000000e+00 
1.2500000e+00 0.0000000e+00 5.0000000e+00 
1.7500000e+00 0.0000000e+00 5.0000000e+00 
2.2500000e+00 0.0000000e+00 5.0000000e+00 
2.7500000e+00 0.0000000e+00 5.0000000e+00 
3.2500000e+00 0.0000000e+00 5.0000000e+00 
3.7500000e+00 0.0000000e+00 5.0000000e+00 
4.2500000e+00 0.0000000e+00 5.0000000e+00 
4.7500000e+00 0.0000000e+00 5.0000000e+00 
5.0000000e+00 5.0000000e+00 5.0000000e-01 
5.0000000e+00 5.0000000e+00 1.0000000e+00 
5.0000000e+00 5.0000000e+00 1.5000000e+00 
5.0000000e+00 5.0000000e+00 2.0000000e+00 
5.0000000e+00 5.0000000e+00 2.5000000e+00 
5.0000000e+00 5.0000000e+00 3.0000000e+00 
5.0000000e+00 5.0000000e+00 3.5000000e+00 
5.0000000e+00 5.0000000e+00 4.0000000e+00 
5.0000000e+00 5.0000000e+00 4.5000000e+00 
5.0000000e+00 5.0000000e+00 2.5000000e-01 
5.0000000e+00 5.0000000e+00 7.5000000e-01 
5.0000000e+00 5.0000000e+00 1.2500000e+00 
5.0000000e+00 5.0000000e+00 1.7500000e+00 
5.0000000e+00 5.0000000e+00 2.2500000e+00 
5.0000000e+00 5.0000000e+00 2.7500000e+00 
5.0000000e+00 5.0000000e+00 3.2500000e+00 
5.0000000e+00 5.0000000e+00 3.7500000e+00 
5.0000000e+00 5.0000000e+00 4.2500000e+00 
5.0000000e+00 5.0000000e+00 4.7500000e+00 
5.0000000e+00 5.0000000e-01 5.0000000e+00 
5.0000000e+00 1.0000000e+00 5.0000000e+00 
5.0000000e+00 1.5000000e+00 5.0000000e+00 
5.0000000e+00 2.0000000e+00 5.0000000e+00 
5.0000000e+00 2.5000000e+00 5.0000000e+00 
5.0000000e+00 3.0000000e+00 5.0000000e+00 
5.0000000e+00 3.5000000e+00 5.0000000e+00 
5.0000000e+00 4.0000000e+00 5.0000000e+00 
5.0000000e+00 4.5000000e+00 5.0000000e+00 
5.0000000e+00 2.5000000e-01 5.0000000e+00 
5.0000000e+00 7.5000000e-01 5.0000000e+00 
5.0000000e+00 1.2500000e+00 5.0000000e+00 
5.0000000e+00 1.7500000e+00 5.0000000e+00 
5.0000000e+00 2.2500000e+00 5.0000000e+00 
5.0000000e+00 2.7500000e+00 5.0000000e+00 
5.0000000e+00 3.2500000e+00 5.0000000e+00 
5.0000000e+00 3.7500000e+00 5.0000000e+00 
5.0000000e+00 4.2500000e+00 5.0000000e+00 
5.0000000e+00 4.7500000e+00 5.0000000e+00 
0.0000000e+00 5.0000000e+00 5.0000000e-01 
0.0000000e+00 5.0000000e+00 1.0000000e+00 
0.0000000e+00 5.0000000e+00 1.5000000e+00 
0.0000000e+00 5.0000000e+00 2.0000000e+00 
0.0000000e+00 5.0000000e+00 2.5000000e+00 
0.0000000e+00 5.0000000e+00 3.0000000e+00 
0.0000000e+00 5.0000000e+00 3.5000000e+00 
0.0000000e+00 5.0000000e+00 4.0000000e+00 
0.0000000e+00 5.0000000e+00 4.5000000e+00 
0.0000000e+00 5.0000000e+00 2.5000000e-01 
0.0000000e+00 5.0000000e+00 7.5000000e-01 
0.0000000e+00 5.0000000e+00 1.2500000e+00 
0.0000000e+00 5.0000000e+00 1.7500000e+00 
0.0000000e+00 5.0000000e+00 2.2500000e+00 
0.0000000e+00 5.0000000e+00 2.7500000e+00 
0.0000000e+00 5.0000000e+00 3.2500000e+00 
0.0000000e+00 5.0000000e+00 3.7500000e+00 
0.0000000e+00 5.0000000e+00 4.2500000e+00 
0.0000000e+00 5.0000000e+00 4.7500000e+00 
4.5000000e+00 5.0000000e+00 5.0000000e+00 
4.0000000e+00 5.0000000e+00 5.0000000e+00 
3.5000000e+00 5.0000000e+00 5.0000000e+00 
3.0000000e+00 5.0000000e+00 5.0000000e+00 
2.5000000e+00 5.0000000e+00 5.0000000e+00 
2.0000000e+00 5.0000000e+00 5.0000000e+00 
1.5000000e+00 5.0000000e+00 5.0000000e+00 
1.0000000e+00 5.0000000e+00 5.0000000e+00 
5.0000000e-01 5.0000000e+00 5.0000000e+00 
4.7500000e+00 5.0000000e+00 5.0000000e+00 
4.2500000e+00 5.0000000e+00 5.0000000e+00 
3.7500000e+00 5.0000000e+00 5.0000000e+00 
3.2500000e+00 5.0000000e+00 5.0000000e+00 
2.7500000e+00 5.0000000e+00 5.0000000e+00 
2.2500000e+00 5.0000000e+00 5.0000000e+00 
1.7500000e+00 5.0000000e+00 5.0000000e+00 
1.2500000e+00 5.0000000e+00 5.0000000e+00 
7.5000000e-01 5.0000000e+00 5.0000000e+00 
2.5000000e-01 5.0000000e+00 5.0000000e+00 
0.0000000e+00 4.5000000e+00 5.0000000e+00 
0.0000000e+00 4.0000000e+00 5.0000000e+00 
0.0000000e+00 3.5000000e+00 5.0000000e+00 
0.0000000e+00 3.0000000e+00 5.0000000e+00 
0.0000000e+00 2.5000000e+00 5.0000000e+00 
0.0000000e+00 2.0000000e+00 5.0000000e+00 
0.0000000e+00 1.5000000e+00 5.0000000e+00 
0.0000000e+00 1.0000000e+00 5.0000000e+00 
0.0000000e+00 5.0000000e-01 5.0000000e+00 
0.0000000e+00 4.7500000e+00 5.0000000e+00 
0.0000000e+00 4.2500000e+00 5.0000000e+00 
0.0000000e+00 3.7500000e+00 5.0000000e+00 
0.0000000e+00 3.2500000e+00 5.0000000e+00 
0.0000000e+00 2.7500000e+00 5.0000000e+00 
0.0000000e+00 2.2500000e+00 5.0000000e+00 
0.0000000e+00 1.7500000e+00 5.0000000e+00 
0.0000000e+00 1.2500000e+00 5.0000000e+00 
0.0000000e+00 7.5000000e-01 5.0000000e+00 
0.0000000e+00 2.5000000e-01 5.0000000e+00 
5.0000000e-01 5.0000000e+00 0.0000000e+00 
2.5000000e-01 5.0000000e+00 0.0000000e+00 
7.5000000e-01 5.0000000e+00 0.0000000e+00 
1.5000000e+00 5.0000000e+00 0.0000000e+00 
1.2500000e+00 5.0000000e+00 0.0000000e+00 
1.7500000e+00 5.0000000e+00 0.0000000e+00 
2.5000000e+00 5.0000000e+00 0.0000000e+00 
2.2500000e+00 5.0000000e+00 0.0000000e+00 
2.7500000e+00 5.0000000e+00 0.0000000e+00 
4.5000000e+00 5.0000000e+00 0.0000000e+00 
[...]
POINT_DATA 7662
FIELD FieldData 1
VELOCITY 3 7662  float
0.0000000e+00 0.0000000e+00 0.0000000e+00 
0.0000000e+00 0.0000000e+00 0.0000000e+00 
6.4370133e-02 1.7113750e-01 0.0000000e+00 
0.0000000e+00 2.3235694e-01 0.0000000e+00 
0.0000000e+00 0.0000000e+00 0.0000000e+00 
0.0000000e+00 0.0000000e+00 0.0000000e+00 
1.6168867e-01 -2.9505536e-02 1.6358046e-01 
0.0000000e+00 1.3204579e-01 3.1916533e-02 
-2.9918069e-01 2.8815558e-02 0.0000000e+00 
-1.4124051e-01 2.4428274e-01 0.0000000e+00 
-1.9855063e-01 3.2697326e-01 0.0000000e+00 
0.0000000e+00 0.0000000e+00 0.0000000e+00 
0.0000000e+00 0.0000000e+00 0.0000000e+00 
0.0000000e+00 0.0000000e+00 0.0000000e+00 
0.0000000e+00 0.0000000e+00 0.0000000e+00 
0.0000000e+00 0.0000000e+00 0.0000000e+00 
0.0000000e+00 0.0000000e+00 0.0000000e+00 
0.0000000e+00 0.0000000e+00 0.0000000e+00 
0.0000000e+00 0.0000000e+00 0.0000000e+00 
0.0000000e+00 0.0000000e+00 0.0000000e+00 
0.0000000e+00 0.0000000e+00 0.0000000e+00 
0.0000000e+00 0.0000000e+00 0.0000000e+00 
0.0000000e+00 0.0000000e+00 0.0000000e+00 
0.0000000e+00 0.0000000e+00 0.0000000e+00 
0.0000000e+00 0.0000000e+00 0.0000000e+00 
0.0000000e+00 0.0000000e+00 0.0000000e+00 
0.0000000e+00 0.0000000e+00 0.0000000e+00 
0.0000000e+00 0.0000000e+00 0.0000000e+00 
0.0000000e+00 0.0000000e+00 0.0000000e+00 
0.0000000e+00 0.0000000e+00 0.0000000e+00 
-6.0047936e-02 6.2105995e-02 0.0000000e+00 
-2.5623387e-02 8.5795432e-02 0.0000000e+00 
-4.5614105e-02 7.4609116e-02 0.0000000e+00 
-2.4964463e-02 2.6187189e-02 0.0000000e+00 
6.5440297e-02 2.4149936e-02 0.0000000e+00 
2.6280812e-03 6.4991385e-02 0.0000000e+00 
-1.0465010e-01 1.1184555e-01 0.0000000e+00 
-1.3306627e-01 8.0410808e-02 0.0000000e+00 
-3.3088252e-02 7.9984806e-02 0.0000000e+00 
-5.1716350e-02 4.9510367e-02 0.0000000e+00 
-3.7108004e-02 6.5354913e-02 0.0000000e+00 
-3.1147508e-02 8.4866665e-02 0.0000000e+00 
-4.3645233e-02 6.0159218e-02 0.0000000e+00 
3.5928879e-02 1.6053675e-02 0.0000000e+00 
4.3581560e-02 4.0511355e-02 0.0000000e+00 
-5.0301138e-02 9.4966903e-02 0.0000000e+00 
-1.3795857e-01 1.0220294e-01 0.0000000e+00 
-9.9916399e-02 8.5816979e-02 0.0000000e+00 
7.6704867e-02 1.1378986e-01 0.0000000e+00 
0.0000000e+00 6.1618853e-02 0.0000000e+00 
0.0000000e+00 1.0894585e-01 0.0000000e+00 
0.0000000e+00 1.5778632e-01 0.0000000e+00 
0.0000000e+00 3.2312629e-01 0.0000000e+00 
0.0000000e+00 3.8986707e-01 0.0000000e+00 
0.0000000e+00 3.1223965e-01 0.0000000e+00 
0.0000000e+00 3.4719756e-01 0.0000000e+00 
0.0000000e+00 1.7456099e-01 0.0000000e+00 
0.0000000e+00 -6.0605366e-02 0.0000000e+00 
0.0000000e+00 1.5228824e-01 0.0000000e+00 
0.0000000e+00 4.0416073e-02 0.0000000e+00 
0.0000000e+00 1.3094546e-01 0.0000000e+00 
0.0000000e+00 2.3732723e-01 0.0000000e+00 
0.0000000e+00 3.5901582e-01 0.0000000e+00 
0.0000000e+00 3.7653235e-01 0.0000000e+00 
0.0000000e+00 2.9245627e-01 0.0000000e+00 
0.0000000e+00 3.1124437e-01 0.0000000e+00 
0.0000000e+00 4.6509478e-02 0.0000000e+00 
0.0000000e+00 -9.4479829e-02 0.0000000e+00 
0.0000000e+00 0.0000000e+00 0.0000000e+00 
0.0000000e+00 0.0000000e+00 0.0000000e+00 
0.0000000e+00 0.0000000e+00 0.0000000e+00 
0.0000000e+00 0.0000000e+00 0.0000000e+00 
0.0000000e+00 0.0000000e+00 0.0000000e+00 
0.0000000e+00 0.0000000e+00 0.0000000e+00 
0.0000000e+00 0.0000000e+00 0.0000000e+00 
0.0000000e+00 0.0000000e+00 0.0000000e+00 
0.0000000e+00 0.0000000e+00 0.0000000e+00 
0.0000000e+00 0.0000000e+00 0.0000000e+00 
0.0000000e+00 0.0000000e+00 0.0000000e+00 
0.0000000e+00 0.0000000e+00 0.0000000e+00 
0.0000000e+00 0.0000000e+00 0.0000000e+00 
0.0000000e+00 0.0000000e+00 0.0000000e+00 
0.0000000e+00 0.0000000e+00 0.0000000e+00 
0.0000000e+00 0.0000000e+00 0.0000000e+00 
0.0000000e+00 0.0000000e+00 0.0000000e+00 
0.0000000e+00 0.0000000e+00 0.0000000e+00 
0.0000000e+00 0.0000000e+00 0.0000000e+00 
0.0000000e+00 0.0000000e+00 0.0000000e+00 
0.0000000e+00 0.0000000e+00 0.0000000e+00 
0.0000000e+00 0.0000000e+00 0.0000000e+00 
0.0000000e+00 0.0000000e+00 0.0000000e+00 
0.0000000e+00 0.0000000e+00 0.0000000e+00 
0.0000000e+00 0.0000000e+00 0.0000000e+00 
0.0000000e+00 0.0000000e+00 0.0000000e+00 
0.0000000e+00 0.0000000e+00 0.0000000e+00 
0.0000000e+00 0.0000000e+00 0.0000000e+00 
0.0000000e+00 0.0000000e+00 0.0000000e+00 
0.0000000e+00 0.0000000e+00 0.0000000e+00 
0.0000000e+00 0.0000000e+00 0.0000000e+00 
0.0000000e+00 0.0000000e+00 0.0000000e+00 
0.0000000e+00 0.0000000e+00 0.0000000e+00 
0.0000000e+00 0.0000000e+00 0.0000000e+00 
0.0000000e+00 0.0000000e+00 0.0000000e+00 
0.0000000e+00 0.0000000e+00 0.0000000e+00 
0.0000000e+00 0.0000000e+00 0.0000000e+00 
0.0000000e+00 0.0000000e+00 0.0000000e+00 
0.0000000e+00 0.0000000e+00 0.0000000e+00 
0.0000000e+00 0.0000000e+00 0.0000000e+00 
0.0000000e+00 0.0000000e+00 0.0000000e+00 
0.0000000e+00 0.0000000e+00 0.0000000e+00 
0.0000000e+00 0.0000000e+00 0.0000000e+00 
0.0000000e+00 0.0000000e+00 0.0000000e+00 
0.0000000e+00 0.0000000e+00 0.0000000e+00 
0.0000000e+00 0.0000000e+00 0.0000000e+00 
0.0000000e+00 0.0000000e+00 0.0000000e+00 
0.0000000e+00 0.0000000e+00 0.0000000e+00 
0.0000000e+00 0.0000000e+00 0.0000000e+00 
0.0000000e+00 0.0000000e+00 0.0000000e+00 
0.0000000e+00 0.0000000e+00 0.0000000e+00 
0.0000000e+00 0.0000000e+00 0.0000000e+00 
0.0000000e+00 0.0000000e+00 0.0000000e+00 
0.0000000e+00 0.0000000e+00 0.0000000e+00 
0.0000000e+00 0.0000000e+00 0.0000000e+00 
0.0000000e+00 0.0000000e+00 0.0000000e+00 
0.0000000e+00 0.0000000e+00 0.0000000e+00 
1.4158589e-01 2.0055719e-01 -2.3333682e-02 
6.1596103e-02 1.8460625e-01 7.6357633e-02 
3.9169677e-02 1.5969530e-01 5.4098442e-02 
1.4426149e-01 1.1145714e-01 -4.4371211e-03 
1.9517455e-01 1.6221078e-01 -2.3290087e-02 
1.8886699e-01 1.4517812e-01 3.0318649e-02 
1.7784293e-01 1.8078969e-01 5.3285751e-02 
1.8766168e-01 1.5727912e-01 1.1163411e-01 
2.0784017e-01 8.0058940e-02 1.6195092e-01 
8.4881470e-02 1.8217905e-01 -3.7271865e-02 
1.2376301e-01 1.9589278e-01 4.2044923e-02 
3.3654232e-02 1.6756453e-01 6.1408103e-02 
9.8738298e-02 1.1646061e-01 3.2800015e-02 
1.8173271e-01 1.2690248e-01 -3.6079425e-02 
2.0149913e-01 1.6286935e-01 1.1189452e-02 
1.7022656e-01 1.6331615e-01 3.9077561e-02 
1.8498659e-01 1.8395624e-01 8.8278316e-02 
1.9538759e-01 1.2975757e-01 1.3147736e-01 
2.0014350e-01 2.6499255e-02 1.8012320e-01 
-2.7030859e-02 7.6695651e-02 -3.4083497e-02 
-7.2408512e-02 1.2263444e-01 -7.9284780e-02 
-9.6060731e-02 1.1989660e-01 -1.0799813e-01 
-1.1033181e-01 9.3716696e-02 -1.0486051e-01 
-4.2041838e-02 1.0077032e-02 -4.3483365e-02 
5.8715299e-02 3.7277926e-02 5.8091156e-02 
1.0850862e-01 8.1790745e-02 1.0944478e-01 
1.3146129e-01 4.3662991e-02 1.3321093e-01 
1.1736203e-01 2.8249368e-02 1.2579457e-01 
-1.7949142e-02 4.4066567e-02 -1.4207088e-02 
-4.7274116e-02 1.0557859e-01 -5.4438256e-02 
-8.7580465e-02 1.2168293e-01 -9.7284362e-02 
-1.1334328e-01 1.0897046e-01 -1.0539623e-01 
-8.4999472e-02 5.0761521e-02 -8.8016458e-02 
8.3603067e-03 1.3743476e-02 5.4241675e-03 
9.3618713e-02 6.3999444e-02 9.4935313e-02 
1.2002526e-01 6.2165938e-02 1.2380135e-01 
1.2646568e-01 4.3959368e-02 1.2896167e-01 
1.2155549e-01 -8.4815603e-03 1.2767692e-01 
0.0000000e+00 -9.1253035e-02 2.3543555e-02 
0.0000000e+00 -8.6955979e-02 -4.0014234e-01 
0.0000000e+00 8.7299898e-02 -1.1197129e-01 
0.0000000e+00 2.3476134e-01 -1.9886778e-01 
0.0000000e+00 3.9615494e-01 -1.2555927e-01 
0.0000000e+00 4.0572089e-01 -1.2356225e-01 
0.0000000e+00 2.6292977e-01 -1.6256118e-01 
0.0000000e+00 1.0394412e-01 1.1986514e-01 
0.0000000e+00 4.0513795e-02 1.0039072e-01 
0.0000000e+00 9.0936109e-02 5.8498260e-02 
0.0000000e+00 -2.1643879e-01 -1.9299528e-01 
0.0000000e+00 1.8955399e-01 -2.8192472e-01 
0.0000000e+00 1.5100116e-02 -1.4642468e-01 
0.0000000e+00 3.4802070e-01 -1.6867749e-01 
0.0000000e+00 3.5197949e-01 -1.1738849e-01 
0.0000000e+00 2.8309736e-01 -1.4519514e-01 
0.0000000e+00 2.4901082e-01 -2.6311545e-02 
0.0000000e+00 1.0023489e-02 1.2356266e-01 
0.0000000e+00 2.7241595e-02 6.4353213e-02 
1.4914605e-01 8.1658252e-02 1.8490651e-01 
1.1477160e-01 1.3842295e-01 1.6553381e-01 
6.7613147e-02 1.9844916e-01 1.2682846e-01 
5.3790095e-03 1.3073774e-01 1.8108563e-01 
-4.5598697e-02 1.4701101e-01 1.9511889e-01 
-1.7480979e-02 8.8234499e-02 1.4316562e-01 
5.0480481e-02 1.7667602e-01 3.9934531e-02 
6.0829703e-02 1.8219513e-01 1.1207844e-01 
-3.8260184e-02 1.2154590e-01 1.5841791e-01 
1.7367055e-01 3.4462959e-02 1.8424344e-01 
1.2079775e-01 1.0677062e-01 1.8326628e-01 
1.0019252e-01 1.9924666e-01 1.4315735e-01 
4.0162582e-02 1.5887161e-01 1.5167823e-01 
-1.2701234e-02 1.6201033e-01 1.8590569e-01 
-4.4296443e-02 1.1344270e-01 1.7820063e-01 
1.5120503e-02 1.1811216e-01 9.7515851e-02 
6.6054650e-02 2.1324483e-01 4.4617862e-02 
2.6196046e-02 1.5155815e-01 1.6818418e-01 
-6.2596798e-02 1.4743699e-01 8.1549756e-02 
0.0000000e+00 8.6737551e-02 1.1380293e-02 
0.0000000e+00 1.3123253e-01 -9.5697306e-02 
0.0000000e+00 1.2752807e-01 -1.0113810e-01 
0.0000000e+00 7.3106714e-02 -1.4467207e-03 
0.0000000e+00 2.1285076e-02 3.8688642e-03 
0.0000000e+00 3.8013559e-02 -1.8649336e-02 
0.0000000e+00 6.1913233e-02 -1.1741503e-02 
0.0000000e+00 7.1013682e-02 -7.8235209e-02 
0.0000000e+00 8.1846572e-02 -4.7758393e-02 
0.0000000e+00 1.0514668e-01 7.6532096e-02 
0.0000000e+00 1.1457988e-01 -6.4926587e-02 
0.0000000e+00 1.4668582e-01 -1.2069999e-01 
0.0000000e+00 9.6309900e-02 -5.2600872e-02 
0.0000000e+00 3.8601071e-02 8.8373888e-03 
0.0000000e+00 2.5279049e-02 -3.7174101e-03 
0.0000000e+00 4.8579466e-02 -9.8634465e-03 
0.0000000e+00 6.9967940e-02 -3.5487719e-02 
0.0000000e+00 8.7199077e-02 -7.2228901e-02 
0.0000000e+00 5.1070873e-02 -5.2448440e-02 
-8.3102509e-03 -1.3355248e-01 0.0000000e+00 
3.8577698e-02 5.7789277e-02 0.0000000e+00 
-1.6494219e-01 -1.7277311e-01 0.0000000e+00 
-2.1894012e-01 2.4657381e-01 0.0000000e+00 
-2.8395319e-01 2.3575921e-01 0.0000000e+00 
-1.8339011e-01 1.7239815e-01 0.0000000e+00 
-3.7782136e-02 2.5538436e-01 0.0000000e+00 
-5.7829726e-02 2.7039376e-01 0.0000000e+00 
-1.4091413e-01 2.8645852e-01 0.0000000e+00 
1.3470735e-01 -1.4859491e-02 0.0000000e+00 
7.2612837e-02 1.2044122e-01 0.0000000e+00 
-1.3952173e-01 2.8629622e-01 0.0000000e+00 
1.1324321e-01 3.1869873e-02 0.0000000e+00 
1.1403760e-01 1.8099368e-03 0.0000000e+00 
-3.8005944e-02 2.5418735e-01 0.0000000e+00 
-1.6887501e-01 2.9740170e-01 0.0000000e+00 
-7.9447903e-02 2.2232610e-01 0.0000000e+00 
-9.6128128e-02 4.7453467e-02 0.0000000e+00 
4.5416880e-02 1.2199897e-01 0.0000000e+00 
2.6413504e-02 2.8841573e-01 0.0000000e+00 
-3.8919065e-02 1.5676399e-01 0.0000000e+00 
-2.9093513e-02 9.3425252e-02 0.0000000e+00 
-6.5004513e-02 8.7800384e-02 0.0000000e+00 
7.9666838e-02 2.8490573e-01 0.0000000e+00 
2.5598010e-02 3.4491818e-02 0.0000000e+00 
-3.3242572e-02 2.8970265e-01 0.0000000e+00 
-2.8405104e-02 7.4919492e-02 0.0000000e+00 
1.1254552e-02 -3.5781011e-02 0.0000000e+00 
-3.7480000e-02 2.4941551e-02 0.0000000e+00 
-5.7687808e-02 -9.2947170e-02 0.0000000e+00 
-1.4653893e-01 1.4537928e-01 0.0000000e+00 
1.1053901e-02 1.5347789e-01 0.0000000e+00 
2.5759596e-02 9.2920654e-02 0.0000000e+00 
2.4686180e-02 1.7349648e-01 0.0000000e+00 
7.3603287e-02 1.6985506e-01 0.0000000e+00 
-5.5291399e-02 1.9903961e-01 0.0000000e+00 
-8.5110299e-02 2.2524454e-01 0.0000000e+00 
1.7292537e-01 2.7168995e-01 0.0000000e+00 
1.5612009e-01 2.7028978e-01 0.0000000e+00 
5.5726385e-04 4.2519960e-01 0.0000000e+00 
1.9076332e-02 3.5348672e-01 0.0000000e+00 
3.6639711e-03 3.1629136e-01 0.0000000e+00 
9.5838886e-03 3.3298069e-01 0.0000000e+00 
-7.9957731e-02 1.8107437e-01 0.0000000e+00 
-3.1256191e-02 1.6543958e-01 0.0000000e+00 
1.3197881e-01 2.3353197e-01 0.0000000e+00 
2.8667832e-02 8.5588329e-02 0.0000000e+00 
4.8189919e-02 2.6740810e-01 0.0000000e+00 
1.1412903e-02 1.4108330e-01 0.0000000e+00 
-1.1383531e-01 1.2106672e-01 0.0000000e+00 
-2.5038719e-02 1.3729307e-01 0.0000000e+00 
-1.7261893e-01 -1.7204694e-02 0.0000000e+00 
-5.2382115e-02 8.9136504e-02 0.0000000e+00 
-7.7792987e-02 1.7824681e-01 0.0000000e+00 
2.9148065e-02 2.3153973e-01 0.0000000e+00 
-2.7273646e-02 1.3181625e-01 0.0000000e+00 
1.3892542e-02 2.2465339e-01 0.0000000e+00 
1.0811648e-02 2.5769600e-01 0.0000000e+00 
-8.4352121e-02 1.5910202e-01 0.0000000e+00 
2.9600218e-02 2.7986172e-01 0.0000000e+00 
8.4172189e-02 3.8290322e-02 0.0000000e+00 
7.3046714e-02 1.6857734e-01 0.0000000e+00 
2.6112758e-02 1.1530107e-01 0.0000000e+00 
1.1829649e-01 2.7843451e-01 0.0000000e+00 
2.7360266e-02 2.8605515e-01 0.0000000e+00 
-9.7957999e-02 1.0231528e-01 0.0000000e+00 
1.4698833e-02 1.2778383e-01 0.0000000e+00 
1.7718911e-02 2.4843810e-01 0.0000000e+00 
-3.4233764e-02 7.5848445e-02 0.0000000e+00 
8.2184181e-02 7.1823925e-02 0.0000000e+00 
-8.5847676e-02 7.3172152e-02 0.0000000e+00 
-4.0155604e-02 8.0743572e-03 0.0000000e+00 
-5.5175349e-02 -3.1053105e-02 0.0000000e+00 
2.8599016e-02 9.1380544e-02 0.0000000e+00 
3.4486640e-03 2.0038795e-01 0.0000000e+00 
8.1187472e-02 2.0226657e-01 0.0000000e+00 
-5.7468049e-02 1.9906755e-01 0.0000000e+00 
-1.1525789e-01 1.6037680e-01 0.0000000e+00 
-9.7397171e-02 5.7115318e-04 0.0000000e+00 
-1.8430879e-02 -5.2786190e-02 0.0000000e+00 
2.9673200e-02 1.6942190e-01 0.0000000e+00 
-1.0011588e-01 3.3957977e-02 0.0000000e+00 
-6.6340402e-02 9.7412646e-02 0.0000000e+00 
1.8363129e-02 4.9644373e-02 0.0000000e+00 
-6.6934474e-02 3.5822350e-01 0.0000000e+00 
-1.1852897e-02 3.4159559e-01 0.0000000e+00 
-9.2866354e-02 2.0788376e-01 0.0000000e+00 
8.5328259e-03 3.7833220e-01 0.0000000e+00 
-3.8692538e-02 1.9434568e-01 0.0000000e+00 
1.3649721e-02 3.0258110e-01 0.0000000e+00 
-3.8908556e-02 -8.9559369e-02 0.0000000e+00 
3.6492249e-05 5.9917204e-02 0.0000000e+00 
-5.5027209e-02 2.0834024e-01 0.0000000e+00 
2.1658082e-02 -2.3906827e-03 0.0000000e+00 
1.2503383e-01 1.1495063e-01 0.0000000e+00 
-3.4955673e-02 4.1393465e-03 0.0000000e+00 
-4.2955533e-02 -5.4695509e-02 0.0000000e+00 
-4.8847388e-02 -5.0522842e-02 0.0000000e+00 
-1.1488295e-01 3.2874417e-02 0.0000000e+00 
-7.0849530e-02 6.2261067e-02 0.0000000e+00 
-7.0926420e-02 1.5132026e-01 0.0000000e+00 
-2.0497652e-02 1.8893729e-01 0.0000000e+00 
1.3770721e-02 2.5727117e-01 0.0000000e+00 
3.1394508e-02 7.0189177e-03 0.0000000e+00 
-6.7185469e-02 2.7698528e-02 0.0000000e+00 
-5.1509079e-02 4.7146175e-02 0.0000000e+00 
2.5008673e-02 1.4277399e-01 0.0000000e+00 
-3.2566097e-02 1.6788541e-01 0.0000000e+00 
-1.0399248e-02 1.0385097e-01 0.0000000e+00 
-3.6570534e-02 1.0503329e-01 0.0000000e+00 
4.7916729e-02 -9.3024727e-03 0.0000000e+00 
1.1383887e-01 2.0599580e-01 0.0000000e+00 
-1.7817704e-01 -4.6213634e-02 0.0000000e+00 
2.3670860e-02 -1.3060378e-01 0.0000000e+00 
1.2005577e-02 2.9169893e-02 0.0000000e+00 
-8.7494433e-02 3.8443536e-02 0.0000000e+00 
4.6209693e-02 2.3250172e-01 0.0000000e+00 
1.8342929e-02 9.4251499e-02 0.0000000e+00 
6.0600877e-02 1.6459627e-01 0.0000000e+00 
2.5910744e-02 8.3252192e-02 0.0000000e+00 
-1.5382414e-01 2.1832125e-01 0.0000000e+00 
1.4648836e-02 -9.5344469e-02 0.0000000e+00 
1.1733374e-02 -9.1710225e-02 0.0000000e+00 
2.5456641e-02 -8.0947347e-02 0.0000000e+00 
-5.7304367e-02 2.0776406e-02 0.0000000e+00 
-5.5048168e-02 3.2797199e-02 0.0000000e+00 
-7.6074384e-02 2.7677532e-02 0.0000000e+00 
1.1132929e-01 4.5787323e-02 0.0000000e+00 
-3.2867696e-03 6.7890249e-02 0.0000000e+00 
1.0281534e-01 -6.2152757e-03 0.0000000e+00 
-9.8227434e-02 3.7812613e-02 0.0000000e+00 
-6.2373072e-02 1.1772055e-01 0.0000000e+00 
-1.0255967e-01 -9.6081860e-02 0.0000000e+00 
-1.1808178e-01 -1.8054374e-01 0.0000000e+00 
-9.7576596e-02 -9.6623406e-02 0.0000000e+00 
-1.1796620e-01 1.0705019e-01 0.0000000e+00 
-1.6744326e-01 2.3440702e-01 0.0000000e+00 
1.2613119e-02 -6.4412961e-03 0.0000000e+00 
-1.6909857e-01 2.0435810e-01 0.0000000e+00 
-1.0805296e-01 2.0370260e-01 0.0000000e+00 
-7.8340933e-02 2.3138997e-01 0.0000000e+00 
-7.9039767e-02 2.0913339e-01 0.0000000e+00 
-5.1882640e-02 1.5476041e-01 0.0000000e+00 
-1.1097085e-01 2.2624776e-01 0.0000000e+00 
-1.4377530e-01 2.9513195e-01 0.0000000e+00 
-1.2730603e-01 3.0196068e-01 0.0000000e+00 
-8.5399650e-02 2.8616744e-01 0.0000000e+00 
-2.9465290e-02 2.6296738e-01 0.0000000e+00 
-2.1754503e-03 -4.2732514e-02 0.0000000e+00 
-3.6693281e-03 -8.6837195e-02 0.0000000e+00 
-1.5716698e-02 -9.0052344e-02 0.0000000e+00 
-3.9935280e-02 6.0047405e-03 0.0000000e+00 
-4.7856383e-03 5.0798254e-03 0.0000000e+00 
-2.1761660e-02 2.9628115e-02 0.0000000e+00 
-4.2065568e-02 -9.0055220e-02 0.0000000e+00 
-5.3666782e-02 -5.3842984e-02 0.0000000e+00 
-3.8974889e-02 8.2253395e-03 0.0000000e+00 
-4.7222886e-02 -8.7628393e-03 0.0000000e+00 
-4.1556161e-02 -3.3237826e-02 0.0000000e+00 
-6.2945761e-02 -1.4518046e-02 0.0000000e+00 
-3.3736445e-02 2.0301549e-02 0.0000000e+00 
-3.9333027e-02 -1.3930885e-02 0.0000000e+00 
-9.2618138e-02 2.7329503e-02 0.0000000e+00 
-5.2584164e-02 3.9556164e-02 0.0000000e+00 
-3.5294343e-02 3.9340850e-02 0.0000000e+00 
-8.2363695e-02 7.6405756e-02 0.0000000e+00 
-6.7130208e-02 5.6167562e-02 0.0000000e+00 
-6.0010262e-02 4.5811631e-02 0.0000000e+00 
-6.0358860e-02 8.0261499e-02 0.0000000e+00 
-5.0313320e-02 4.3559052e-02 0.0000000e+00 
-6.1045229e-02 3.9419293e-02 0.0000000e+00 
-5.5846136e-02 7.1165614e-02 0.0000000e+00 
-5.9838325e-02 4.4490185e-02 0.0000000e+00 
-3.3884032e-03 5.5161295e-03 0.0000000e+00 
-5.0016966e-02 2.0937994e-02 0.0000000e+00 
-6.7274816e-02 3.0903958e-02 0.0000000e+00 
-2.3758817e-02 3.8352847e-02 0.0000000e+00 
1.2824270e-02 8.6716916e-03 0.0000000e+00 
2.8728594e-03 -2.9441210e-02 0.0000000e+00 
-2.9925175e-02 6.2736616e-02 0.0000000e+00 
-4.8079912e-02 6.3551225e-02 0.0000000e+00 
-3.0970458e-02 1.9254345e-02 0.0000000e+00 
6.0414068e-02 5.8470458e-02 0.0000000e+00 
2.9900331e-02 7.3881254e-02 0.0000000e+00 
3.8583528e-02 1.1457372e-01 0.0000000e+00 
-7.4418867e-03 2.5220990e-02 0.0000000e+00 
3.7283234e-02 2.9154537e-02 0.0000000e+00 
9.0731736e-03 6.4762905e-02 0.0000000e+00 
-7.3459797e-02 1.1346681e-01 0.0000000e+00 
-3.4349054e-02 6.8397574e-02 0.0000000e+00 
-3.6710609e-02 2.6057528e-02 0.0000000e+00 
-1.5855134e-01 1.0427754e-01 0.0000000e+00 
-1.2369252e-01 1.2312640e-01 0.0000000e+00 
-6.3848995e-02 1.3798994e-01 0.0000000e+00 
-9.6290357e-02 8.3570011e-02 0.0000000e+00 
-1.4671157e-01 1.0002545e-01 0.0000000e+00 
-1.3369036e-01 1.7014934e-01 0.0000000e+00 
-9.4399877e-02 8.4388137e-02 0.0000000e+00 
-1.1475201e-02 3.6317486e-02 0.0000000e+00 
-6.5960899e-02 -4.0789610e-03 0.0000000e+00 
-1.2609456e-01 -6.3387923e-02 0.0000000e+00 
2.1728091e-02 8.4282368e-02 0.0000000e+00 
9.8559391e-03 7.8341790e-02 0.0000000e+00 
1.2906265e-02 8.6112516e-03 0.0000000e+00 
1.2931781e-02 2.2050640e-01 0.0000000e+00 
1.2188314e-02 1.2239403e-01 0.0000000e+00 
1.6615974e-02 1.0545709e-02 0.0000000e+00 
-1.0169836e-02 3.5056502e-01 0.0000000e+00 
1.7758103e-02 3.1817186e-01 0.0000000e+00 
3.5435356e-02 1.9362991e-01 0.0000000e+00 
-3.6623850e-02 3.5775080e-01 0.0000000e+00 
-4.1591235e-02 3.7571850e-01 0.0000000e+00 
-3.0382445e-02 3.2659730e-01 0.0000000e+00 
3.9838284e-02 3.1135294e-01 0.0000000e+00 
1.6655166e-02 3.0113989e-01 0.0000000e+00 
-1.3097361e-02 3.3560541e-01 0.0000000e+00 
-7.0766672e-02 2.3848727e-01 0.0000000e+00 
-2.1990461e-02 3.0712247e-01 0.0000000e+00 
3.2808431e-03 2.5045672e-01 0.0000000e+00 
2.4433736e-02 2.5075281e-02 0.0000000e+00 
-3.1639375e-02 1.3919547e-01 0.0000000e+00 
-7.9357527e-02 1.8806893e-01 0.0000000e+00 
2.6053302e-02 1.1159305e-02 0.0000000e+00 
-1.4172561e-01 -1.2367978e-01 0.0000000e+00 
-3.8827598e-02 1.6041012e-01 0.0000000e+00 
-1.0596215e-01 1.1971810e-01 0.0000000e+00 
2.3536081e-03 6.7674607e-02 0.0000000e+00 
4.6643008e-02 -1.0167924e-02 0.0000000e+00 
-5.3493273e-02 2.4058457e-02 0.0000000e+00 
-6.0656741e-02 2.9540330e-01 0.0000000e+00 
-2.6352387e-02 2.3182370e-01 0.0000000e+00 
-7.8435697e-02 1.8641138e-01 0.0000000e+00 
-4.4261143e-03 2.3594418e-01 0.0000000e+00 
-5.6347027e-03 4.0671412e-02 0.0000000e+00 
1.0763620e-03 1.0948507e-01 0.0000000e+00 
6.1220989e-02 1.0696049e-01 0.0000000e+00 
1.2777069e-02 1.8985318e-01 0.0000000e+00 