# vtk DataFile Version 4.0
vtk output
ASCII
DATASET UNSTRUCTURED_GRID
POINTS 766 float
0.0000000e+00 0.0000000e+00 0.0000000e+00 
0.0000000e+00 0.0000000e+00 5.0000000e+01 
5.0000000e+00 0.0000000e+00 0.0000000e+00 
5.0000000e+00 0.0000000e+00 5.0000000e+01 
5.0000000e+00 1.0000000e+00 0.0000000e+00 
5.0000000e+00 1.0000000e+00 5.0000000e+01 
0.0000000e+00 1.0000000e+00 0.0000000e+00 
0.0000000e+00 1.0000000e+00 5.0000000e+01 
5.0000000e+00 2.0000000e+00 0.0000000e+00 
5.0000000e+00 2.0000000e+00 5.0000000e+01 
3.0000000e+00 2.0000000e+00 0.0000000e+00 
3.0000000e+00 2.0000000e+00 5.0000000e+01 
0.0000000e+00 2.0000000e+00 0.0000000e+00 
0.0000000e+00 2.0000000e+00 5.0000000e+01 
1.5000000e+00 3.0000000e+00 0.0000000e+00 
1.5000000e+00 3.0000000e+00 5.0000000e+01 
7.5000000e-01 3.0000000e+00 0.0000000e+00 
7.5000000e-01 3.0000000e+00 5.0000000e+01 
0.0000000e+00 3.0000000e+00 0.0000000e+00 
0.0000000e+00 3.0000000e+00 5.0000000e+01 
7.5000000e-01 3.0000000e+00 5.0000000e-01 
7.5000000e-01 3.0000000e+00 1.0000000e+00 
7.5000000e-01 3.0000000e+00 1.5000000e+00 
7.5000000e-01 3.0000000e+00 2.0000000e+00 
7.5000000e-01 3.0000000e+00 2.5000000e+00 
7.5000000e-01 3.0000000e+00 3.0000000e+00 
7.5000000e-01 3.0000000e+00 3.5000000e+00 
7.5000000e-01 3.0000000e+00 4.0000000e+00 
7.5000000e-01 3.0000000e+00 4.5000000e+00 
7.5000000e-01 3.0000000e+00 5.0000000e+00 
7.5000000e-01 3.0000000e+00 5.5000000e+00 
7.5000000e-01 3.0000000e+00 6.0000000e+00 
7.5000000e-01 3.0000000e+00 6.5000000e+00 
7.5000000e-01 3.0000000e+00 7.0000000e+00 
7.5000000e-01 3.0000000e+00 7.5000000e+00 
7.5000000e-01 3.0000000e+00 8.0000000e+00 
7.5000000e-01 3.0000000e+00 8.5000000e+00 
7.5000000e-01 3.0000000e+00 9.0000000e+00 
7.5000000e-01 3.0000000e+00 9.5000000e+00 
7.5000000e-01 3.0000000e+00 1.0000000e+01 
7.5000000e-01 3.0000000e+00 1.0500000e+01 
7.5000000e-01 3.0000000e+00 1.1000000e+01 
7.5000000e-01 3.0000000e+00 1.1500000e+01 
7.5000000e-01 3.0000000e+00 1.2000000e+01 
7.5000000e-01 3.0000000e+00 1.2500000e+01 
7.5000000e-01 3.0000000e+00 1.3000000e+01 
7.5000000e-01 3.0000000e+00 1.3500000e+01 
7.5000000e-01 3.0000000e+00 1.4000000e+01 
7.5000000e-01 3.0000000e+00 1.4500000e+01 
7.5000000e-01 3.0000000e+00 1.5000000e+01 
7.5000000e-01 3.0000000e+00 1.5500000e+01 
7.5000000e-01 3.0000000e+00 1.6000000e+01 
7.5000000e-01 3.0000000e+00 1.6500000e+01 
7.5000000e-01 3.0000000e+00 1.7000000e+01 
7.5000000e-01 3.0000000e+00 1.7500000e+01 
7.5000000e-01 3.0000000e+00 1.8000000e+01 
7.5000000e-01 3.0000000e+00 1.8500000e+01 
7.5000000e-01 3.0000000e+00 1.9000000e+01 
7.5000000e-01 3.0000000e+00 1.9500000e+01 
7.5000000e-01 3.0000000e+00 2.0000000e+01 
7.5000000e-01 3.0000000e+00 2.0500000e+01 
7.5000000e-01 3.0000000e+00 2.1000000e+01 
7.5000000e-01 3.0000000e+00 2.1500000e+01 
7.5000000e-01 3.0000000e+00 2.2000000e+01 
7.5000000e-01 3.0000000e+00 2.2500000e+01 
7.5000000e-01 3.0000000e+00 2.3000000e+01 
7.5000000e-01 3.0000000e+00 2.3500000e+01 
7.5000000e-01 3.0000000e+00 2.4000000e+01 
7.5000000e-01 3.0000000e+00 2.4500000e+01 
7.5000000e-01 3.0000000e+00 2.5000000e+01 
7.5000000e-01 3.0000000e+00 2.5500000e+01 
7.5000000e-01 3.0000000e+00 2.6000000e+01 
7.5000000e-01 3.0000000e+00 2.6500000e+01 
7.5000000e-01 3.0000000e+00 2.7000000e+01 
7.5000000e-01 3.0000000e+00 2.7500000e+01 
7.5000000e-01 3.0000000e+00 2.8000000e+01 
7.5000000e-01 3.0000000e+00 2.8500000e+01 
7.5000000e-01 3.0000000e+00 2.9000000e+01 
7.5000000e-01 3.0000000e+00 2.9500000e+01 
7.5000000e-01 3.0000000e+00 3.0000000e+01 
7.5000000e-01 3.0000000e+00 3.0500000e+01 
7.5000000e-01 3.0000000e+00 3.1000000e+01 
7.5000000e-01 3.0000000e+00 3.1500000e+01 
7.5000000e-01 3.0000000e+00 3.2000000e+01 
7.5000000e-01 3.0000000e+00 3.2500000e+01 
7.5000000e-01 3.0000000e+00 3.3000000e+01 
7.5000000e-01 3.0000000e+00 3.3500000e+01 
7.5000000e-01 3.0000000e+00 3.4000000e+01 
7.5000000e-01 3.0000000e+00 3.4500000e+01 
7.5000000e-01 3.0000000e+00 3.5000000e+01 
7.5000000e-01 3.0000000e+00 3.5500000e+01 
7.5000000e-01 3.0000000e+00 3.6000000e+01 
7.5000000e-01 3.0000000e+00 3.6500000e+01 
7.5000000e-01 3.0000000e+00 3.7000000e+01 
7.5000000e-01 3.0000000e+00 3.7500000e+01 
7.5000000e-01 3.0000000e+00 3.8000000e+01 
7.5000000e-01 3.0000000e+00 3.8500000e+01 
7.5000000e-01 3.0000000e+00 3.9000000e+01 
7.5000000e-01 3.0000000e+00 3.9500000e+01 
7.5000000e-01 3.0000000e+00 4.0000000e+01 
7.5000000e-01 3.0000000e+00 4.0500000e+01 
7.5000000e-01 3.0000000e+00 4.1000000e+01 
7.5000000e-01 3.0000000e+00 4.1500000e+01 
7.5000000e-01 3.0000000e+00 4.2000000e+01 
7.5000000e-01 3.0000000e+00 4.2500000e+01 
7.5000000e-01 3.0000000e+00 4.3000000e+01 
7.5000000e-01 3.0000000e+00 4.3500000e+01 
7.5000000e-01 3.0000000e+00 4.4000000e+01 
7.5000000e-01 3.0000000e+00 4.4500000e+01 
7.5000000e-01 3.0000000e+00 4.5000000e+01 
7.5000000e-01 3.0000000e+00 4.5500000e+01 
7.5000000e-01 3.0000000e+00 4.6000000e+01 
7.5000000e-01 3.0000000e+00 4.6500000e+01 
7.5000000e-01 3.0000000e+00 4.7000000e+01 
7.5000000e-01 3.0000000e+00 4.7500000e+01 
7.5000000e-01 3.0000000e+00 4.8000000e+01 
7.5000000e-01 3.0000000e+00 4.8500000e+01 
7.5000000e-01 3.0000000e+00 4.9000000e+01 
7.5000000e-01 3.0000000e+00 4.9500000e+01 
7.5000000e-01 3.0250001e+00 0.0000000e+00 
7.5000000e-01 3.0250001e+00 5.0000000e-01 
7.5000000e-01 3.0250001e+00 1.0000000e+00 
7.5000000e-01 3.0250001e+00 1.5000000e+00 
7.5000000e-01 3.0250001e+00 2.0000000e+00 
7.5000000e-01 3.0250001e+00 2.5000000e+00 
7.5000000e-01 3.0250001e+00 3.0000000e+00 
7.5000000e-01 3.0250001e+00 3.5000000e+00 
7.5000000e-01 3.0250001e+00 4.0000000e+00 
7.5000000e-01 3.0250001e+00 4.5000000e+00 
7.5000000e-01 3.0250001e+00 5.0000000e+00 
7.5000000e-01 3.0250001e+00 5.5000000e+00 
7.5000000e-01 3.0250001e+00 6.0000000e+00 
7.5000000e-01 3.0250001e+00 6.5000000e+00 
7.5000000e-01 3.0250001e+00 7.0000000e+00 
7.5000000e-01 3.0250001e+00 7.5000000e+00 
7.5000000e-01 3.0250001e+00 8.0000000e+00 
7.5000000e-01 3.0250001e+00 8.5000000e+00 
7.5000000e-01 3.0250001e+00 9.0000000e+00 
7.5000000e-01 3.0250001e+00 9.5000000e+00 
7.5000000e-01 3.0250001e+00 1.0000000e+01 
7.5000000e-01 3.0250001e+00 1.0500000e+01 
7.5000000e-01 3.0250001e+00 1.1000000e+01 
7.5000000e-01 3.0250001e+00 1.1500000e+01 
7.5000000e-01 3.0250001e+00 1.2000000e+01 
7.5000000e-01 3.0250001e+00 1.2500000e+01 
7.5000000e-01 3.0250001e+00 1.3000000e+01 
7.5000000e-01 3.0250001e+00 1.3500000e+01 
7.5000000e-01 3.0250001e+00 1.4000000e+01 
7.5000000e-01 3.0250001e+00 1.4500000e+01 
7.5000000e-01 3.0250001e+00 1.5000000e+01 
7.5000000e-01 3.0250001e+00 1.5500000e+01 
7.5000000e-01 3.0250001e+00 1.6000000e+01 
7.5000000e-01 3.0250001e+00 1.6500000e+01 
7.5000000e-01 3.0250001e+00 1.7000000e+01 
7.5000000e-01 3.0250001e+00 1.7500000e+01 
7.5000000e-01 3.0250001e+00 1.8000000e+01 
7.5000000e-01 3.0250001e+00 1.8500000e+01 
7.5000000e-01 3.0250001e+00 1.9000000e+01 
7.5000000e-01 3.0250001e+00 1.9500000e+01 
7.5000000e-01 3.0250001e+00 2.0000000e+01 
7.5000000e-01 3.0250001e+00 2.0500000e+01 
7.5000000e-01 3.0250001e+00 2.1000000e+01 
7.5000000e-01 3.0250001e+00 2.1500000e+01 
7.5000000e-01 3.0250001e+00 2.2000000e+01 
7.5000000e-01 3.0250001e+00 2.2500000e+01 
7.5000000e-01 3.0250001e+00 2.3000000e+01 
7.5000000e-01 3.0250001e+00 2.3500000e+01 
7.5000000e-01 3.0250001e+00 2.4000000e+01 
7.5000000e-01 3.0250001e+00 2.4500000e+01 
7.5000000e-01 3.0250001e+00 2.5000000e+01 
7.5000000e-01 3.0250001e+00 2.5500000e+01 
7.5000000e-01 3.0250001e+00 2.6000000e+01 
7.5000000e-01 3.0250001e+00 2.6500000e+01 
7.5000000e-01 3.0250001e+00 2.7000000e+01 
7.5000000e-01 3.0250001e+00 2.7500000e+01 
7.5000000e-01 3.0250001e+00 2.8000000e+01 
7.5000000e-01 3.0250001e+00 2.8500000e+01 
7.5000000e-01 3.0250001e+00 2.9000000e+01 
7.5000000e-01 3.0250001e+00 2.9500000e+01 
7.5000000e-01 3.0250001e+00 3.0000000e+01 
7.5000000e-01 3.0250001e+00 3.0500000e+01 
7.5000000e-01 3.0250001e+00 3.1000000e+01 
7.5000000e-01 3.0250001e+00 3.1500000e+01 
7.5000000e-01 3.0250001e+00 3.2000000e+01 
7.5000000e-01 3.0250001e+00 3.2500000e+01 
7.5000000e-01 3.0250001e+00 3.3000000e+01 
7.5000000e-01 3.0250001e+00 3.3500000e+01 
7.5000000e-01 3.0250001e+00 3.4000000e+01 
7.5000000e-01 3.0250001e+00 3.4500000e+01 
7.5000000e-01 3.0250001e+00 3.5000000e+01 
7.5000000e-01 3.0250001e+00 3.5500000e+01 
7.5000000e-01 3.0250001e+00 3.6000000e+01 
7.5000000e-01 3.0250001e+00 3.6500000e+01 
7.5000000e-01 3.0250001e+00 3.7000000e+01 
7.5000000e-01 3.0250001e+00 3.7500000e+01 
7.5000000e-01 3.0250001e+00 3.8000000e+01 
7.5000000e-01 3.0250001e+00 3.8500000e+01 
7.5000000e-01 3.0250001e+00 3.9000000e+01 
7.5000000e-01 3.0250001e+00 3.9500000e+01 
7.5000000e-01 3.0250001e+00 4.0000000e+01 
7.5000000e-01 3.0250001e+00 4.0500000e+01 
7.5000000e-01 3.0250001e+00 4.1000000e+01 
7.5000000e-01 3.0250001e+00 4.1500000e+01 
7.5000000e-01 3.0250001e+00 4.2000000e+01 
7.5000000e-01 3.0250001e+00 4.2500000e+01 
7.5000000e-01 3.0250001e+00 4.3000000e+01 
7.5000000e-01 3.0250001e+00 4.3500000e+01 
7.5000000e-01 3.0250001e+00 4.4000000e+01 
7.5000000e-01 3.0250001e+00 4.4500000e+01 
7.5000000e-01 3.0250001e+00 4.5000000e+01 
7.5000000e-01 3.0250001e+00 4.5500000e+01 
7.5000000e-01 3.0250001e+00 4.6000000e+01 
7.5000000e-01 3.0250001e+00 4.6500000e+01 
7.5000000e-01 3.0250001e+00 4.7000000e+01 
7.5000000e-01 3.0250001e+00 4.7500000e+01 
7.5000000e-01 3.0250001e+00 4.8000000e+01 
7.5000000e-01 3.0250001e+00 4.8500000e+01 
7.5000000e-01 3.0250001e+00 4.9000000e+01 
7.5000000e-01 3.0250001e+00 4.9500000e+01 
7.5000000e-01 3.0250001e+00 5.0000000e+01 
3.0000000e+00 2.0000000e+00 3.6000000e+01 
8.0487806e-01 3.0000000e+00 3.6000000e+01 
0.0000000e+00 0.0000000e+00 2.0000000e+00 
0.0000000e+00 0.0000000e+00 4.0000000e+00 
0.0000000e+00 0.0000000e+00 6.0000000e+00 
0.0000000e+00 0.0000000e+00 8.0000000e+00 
0.0000000e+00 0.0000000e+00 1.0000000e+01 
0.0000000e+00 0.0000000e+00 1.2000000e+01 
0.0000000e+00 0.0000000e+00 1.4000000e+01 
0.0000000e+00 0.0000000e+00 1.6000000e+01 
[...]
POINT_DATA 766
FIELD FieldData 3
DISPLACEMENT 3 766  float
0.0000000e+00 0.0000000e+00 0.0000000e+00 
0.0000000e+00 0.0000000e+00 0.0000000e+00 
0.0000000e+00 0.0000000e+00 0.0000000e+00 
0.0000000e+00 0.0000000e+00 0.0000000e+00 
5.9304637e-07 5.6958862e-07 2.4949838e-06 
-2.5078882e-06 -4.0160981e-07 -1.7136745e-07 
0.0000000e+00 -1.0631030e-05 0.0000000e+00 
0.0000000e+00 -1.4999069e-05 0.0000000e+00 
1.0521760e-06 1.7119129e-07 3.3504371e-06 
-4.0656587e-06 1.9408616e-07 4.3601221e-06 
-1.8777337e-06 9.8758551e-07 5.0025410e-06 
2.8404704e-06 -4.5147162e-06 -7.4408249e-06 
0.0000000e+00 -2.1891956e-05 0.0000000e+00 
0.0000000e+00 -2.5900783e-05 0.0000000e+00 
-7.7823806e-06 -9.4993829e-06 1.2087360e-05 
-1.0457934e-05 -8.5953820e-07 3.9833372e-05 
-1.9894851e-05 -2.6714304e-05 2.1659166e-06 
-3.1501640e-05 1.9279529e-05 1.6021442e-05 
0.0000000e+00 -1.0552772e-05 0.0000000e+00 
0.0000000e+00 -4.6407669e-05 0.0000000e+00 
-1.6396963e-05 -2.5934492e-05 -1.1376187e-05 
-1.2199425e-05 -2.4627745e-05 -1.4044703e-05 
-1.7724886e-05 -2.3468925e-05 -1.7807861e-05 
-1.2860093e-05 -2.9772764e-05 -1.2688777e-05 
-1.6293276e-05 -4.3499396e-05 -4.8712031e-06 
-5.4429920e-06 -5.9267535e-05 -2.7976166e-06 
-1.1736051e-05 -7.2564311e-05 -2.1901408e-06 
-3.2419023e-06 -7.7442288e-05 3.3235681e-06 
-5.0384688e-06 -7.9138510e-05 -2.4308440e-06 
-8.2255901e-06 -8.9543340e-05 4.9560985e-08 
-8.3591908e-07 -1.1446080e-04 6.3129801e-07 
1.2097380e-06 -1.3780367e-04 -1.7657794e-06 
-6.3318957e-06 -1.4276523e-04 1.3124319e-05 
-1.6724804e-05 -1.2794053e-04 2.0333189e-06 
-1.7820752e-05 -1.0564799e-04 -9.6348012e-06 
-2.5557099e-05 -8.8216890e-05 -1.2093311e-05 
-2.1398346e-05 -7.9852951e-05 -3.0920797e-05 
-2.0394635e-05 -7.0826871e-05 -2.9017279e-05 
-1.7702529e-05 -4.4777193e-05 -1.1682872e-05 
-2.2132934e-05 -1.6398055e-05 -1.5387428e-05 
-1.8775434e-05 1.3745574e-06 -1.5210553e-05 
-2.1064216e-06 5.8563041e-06 1.3142222e-05 
-2.8177368e-05 3.2155499e-06 -3.3755098e-06 
-1.9136694e-06 8.5919288e-07 -1.0707620e-05 
-9.9149929e-06 8.2687609e-07 2.5901996e-05 
-2.3111083e-06 -5.5479450e-06 7.7357481e-06 
1.2336461e-05 -3.5877994e-05 -5.2768446e-06 
1.9134470e-05 -4.6724272e-05 4.4726294e-05 
3.6537022e-05 -2.2323202e-05 2.0986410e-05 
7.3214183e-06 4.1115181e-06 1.4735459e-05 
3.4692901e-05 1.2582773e-06 7.3994575e-05 
-2.1912821e-05 -8.5134234e-05 5.4622727e-05 
-8.0769409e-05 -2.6784925e-04 8.8912297e-05 
-4.8259655e-05 -5.3095142e-04 1.2625550e-04 
-1.1966241e-04 -9.0426777e-04 1.6615276e-04 
-1.3111380e-04 -1.4927703e-03 1.1896335e-04 
-2.8661723e-04 -2.3918089e-03 1.8777055e-04 
-3.0673694e-04 -3.4466323e-03 1.8592601e-04 
-2.1406171e-04 -4.3167882e-03 1.2305498e-04 
-1.7951059e-04 -4.3618591e-03 1.2931663e-04 
-2.7852881e-04 -4.1113282e-03 6.6998684e-05 
-3.7716349e-04 -4.0056957e-03 6.4919870e-05 
-2.6558060e-04 -4.2357948e-03 3.5463727e-05 
-1.2141171e-04 -4.3037161e-03 -1.5813999e-05 
-1.3920029e-04 -3.6898176e-03 -9.8008852e-05 
-2.2999532e-04 -2.7098877e-03 -1.4605158e-04 
-2.1051234e-04 -1.8113084e-03 -1.6280974e-04 
-8.0163605e-05 -1.0992571e-03 -1.0630315e-04 
-4.6475889e-05 -6.3490524e-04 -1.4708150e-04 
-4.4826640e-05 -3.5445418e-04 -1.2395647e-04 
-3.4700402e-05 -1.9371652e-04 -1.0097203e-04 
-2.6323833e-05 -1.1440867e-04 -7.8318822e-05 
-2.6611180e-05 -9.7896678e-05 -5.5095570e-05 
-2.5043499e-05 -1.0611070e-04 -4.6563455e-05 
-3.0543200e-05 -1.0314716e-04 -4.1097454e-05 
-4.1498253e-05 -9.1135698e-05 -5.0108192e-05 
-3.8314356e-05 -8.5539999e-05 -6.7183057e-05 
-4.1898755e-05 -9.2725866e-05 -4.9098693e-05 
-4.7116944e-05 -9.5530697e-05 -4.5106877e-05 
-3.7076286e-05 -8.3489918e-05 -6.8986592e-05 
-2.8311833e-05 -5.0643819e-05 -5.2443953e-05 
-1.4164521e-05 -1.3400024e-05 -5.3795222e-05 
-2.1980253e-05 3.9235365e-06 -9.6443116e-05 
1.4396542e-05 2.2330943e-05 -8.4737963e-05 
1.8137167e-05 5.6939174e-05 -6.4663480e-05 
2.3187207e-05 9.8096178e-05 -6.9182643e-05 
6.4162428e-05 1.2712661e-04 -4.9514478e-05 
2.3467208e-05 1.4903353e-04 -2.0414745e-06 
7.2587398e-05 1.7624030e-04 -1.2026686e-05 
5.0308354e-05 2.1469461e-04 2.6584734e-05 
3.3117143e-05 2.5684567e-04 1.1667006e-04 
5.8109337e-05 2.0485710e-04 9.9646022e-05 
-8.7200089e-05 3.3862564e-06 9.6315096e-05 
-1.4313495e-05 -3.4746068e-04 1.9443530e-04 
-8.0885555e-05 -8.6141867e-04 2.3709224e-04 
-1.3069520e-04 -1.5386060e-03 1.3452809e-04 
-2.3251267e-04 -2.4176503e-03 2.1638595e-04 
-3.2196380e-04 -3.3810777e-03 1.8470141e-04 
-1.8275761e-04 -4.1617146e-03 1.0019273e-04 
-1.8066556e-04 -4.1920873e-03 1.0918278e-04 
-2.9738600e-04 -4.0000887e-03 5.8862006e-05 
-3.4719138e-04 -3.9487961e-03 2.1051250e-05 
-2.2223021e-04 -4.1584051e-03 -2.8269806e-05 
-6.1676779e-05 -4.1311039e-03 -6.1403451e-05 
-7.4171134e-05 -3.3916642e-03 -1.5941777e-04 
-1.5615569e-04 -2.3274114e-03 -1.8320588e-04 
-1.5495700e-04 -1.4073992e-03 -1.5669456e-04 
-4.4872944e-05 -7.1801920e-04 -7.4482625e-05 
-2.0703344e-05 -2.7928693e-04 -1.0949122e-04 
-1.7455812e-05 -2.0647227e-05 -8.1633625e-05 
-1.9364226e-05 1.0922841e-04 -7.0788992e-05 
-1.0001904e-05 1.5288850e-04 -6.4622982e-05 
7.6287586e-07 1.4361755e-04 -4.2829892e-05 
9.0924013e-06 1.1714729e-04 -2.2417104e-05 
6.0742241e-06 9.6215619e-05 -7.5928037e-06 
2.5290631e-06 7.9403973e-05 1.8372235e-05 
-1.4573081e-06 6.2568070e-05 3.6506852e-05 
-5.4926140e-06 4.3863576e-05 4.2493441e-05 
-1.1731196e-05 2.6423520e-05 4.8058420e-05 
0.0000000e+00 -2.6837244e-05 0.0000000e+00 
0.0000000e+00 -2.5991703e-05 0.0000000e+00 
0.0000000e+00 -2.4149602e-05 0.0000000e+00 
0.0000000e+00 -2.3629396e-05 0.0000000e+00 
0.0000000e+00 -2.9931793e-05 0.0000000e+00 
0.0000000e+00 -4.3584383e-05 0.0000000e+00 
0.0000000e+00 -5.9671806e-05 0.0000000e+00 
0.0000000e+00 -7.2085808e-05 0.0000000e+00 
0.0000000e+00 -7.6867349e-05 0.0000000e+00 
0.0000000e+00 -7.9301979e-05 0.0000000e+00 
0.0000000e+00 -9.0689609e-05 0.0000000e+00 
0.0000000e+00 -1.1472352e-04 0.0000000e+00 
0.0000000e+00 -1.3729424e-04 0.0000000e+00 
0.0000000e+00 -1.4209794e-04 0.0000000e+00 
0.0000000e+00 -1.2762311e-04 0.0000000e+00 
0.0000000e+00 -1.0597956e-04 0.0000000e+00 
0.0000000e+00 -8.9163150e-05 0.0000000e+00 
0.0000000e+00 -8.0344093e-05 0.0000000e+00 
0.0000000e+00 -6.9251837e-05 0.0000000e+00 
0.0000000e+00 -4.4760582e-05 0.0000000e+00 
0.0000000e+00 -1.6790562e-05 0.0000000e+00 
0.0000000e+00 9.9607325e-07 0.0000000e+00 
0.0000000e+00 5.4175134e-06 0.0000000e+00 
0.0000000e+00 3.5923035e-06 0.0000000e+00 
0.0000000e+00 1.8806812e-06 0.0000000e+00 
0.0000000e+00 1.3284669e-06 0.0000000e+00 
0.0000000e+00 -8.7379431e-06 0.0000000e+00 
0.0000000e+00 -3.5015149e-05 0.0000000e+00 
0.0000000e+00 -4.4594733e-05 0.0000000e+00 
0.0000000e+00 -2.1878808e-05 0.0000000e+00 
0.0000000e+00 6.4610535e-06 0.0000000e+00 
0.0000000e+00 -8.5915553e-07 0.0000000e+00 
0.0000000e+00 -8.7642737e-05 0.0000000e+00 
0.0000000e+00 -2.6601710e-04 0.0000000e+00 
0.0000000e+00 -5.2714359e-04 0.0000000e+00 
0.0000000e+00 -9.0412603e-04 0.0000000e+00 
0.0000000e+00 -1.5033848e-03 0.0000000e+00 
0.0000000e+00 -2.4020707e-03 0.0000000e+00 
0.0000000e+00 -3.4833485e-03 0.0000000e+00 
0.0000000e+00 -4.3386603e-03 0.0000000e+00 
0.0000000e+00 -4.3876572e-03 0.0000000e+00 
0.0000000e+00 -4.1251951e-03 0.0000000e+00 
0.0000000e+00 -4.0401132e-03 0.0000000e+00 
0.0000000e+00 -4.2578471e-03 0.0000000e+00 
0.0000000e+00 -4.3372232e-03 0.0000000e+00 
0.0000000e+00 -3.7060410e-03 0.0000000e+00 
0.0000000e+00 -2.7283677e-03 0.0000000e+00 
0.0000000e+00 -1.8142739e-03 0.0000000e+00 
0.0000000e+00 -1.1045223e-03 0.0000000e+00 
0.0000000e+00 -6.3431059e-04 0.0000000e+00 
0.0000000e+00 -3.5252821e-04 0.0000000e+00 
0.0000000e+00 -1.9305131e-04 0.0000000e+00 
0.0000000e+00 -1.1599858e-04 0.0000000e+00 
0.0000000e+00 -9.7799355e-05 0.0000000e+00 
0.0000000e+00 -1.0373523e-04 0.0000000e+00 
0.0000000e+00 -1.0230335e-04 0.0000000e+00 
0.0000000e+00 -9.1844166e-05 0.0000000e+00 
0.0000000e+00 -8.6843691e-05 0.0000000e+00 
0.0000000e+00 -9.2479277e-05 0.0000000e+00 
0.0000000e+00 -9.5231066e-05 0.0000000e+00 
0.0000000e+00 -8.2302351e-05 0.0000000e+00 
0.0000000e+00 -5.0320654e-05 0.0000000e+00 
0.0000000e+00 -1.5812548e-05 0.0000000e+00 
0.0000000e+00 4.3237196e-06 0.0000000e+00 
0.0000000e+00 2.3761462e-05 0.0000000e+00 
0.0000000e+00 5.7365229e-05 0.0000000e+00 
0.0000000e+00 9.7279779e-05 0.0000000e+00 
0.0000000e+00 1.2645696e-04 0.0000000e+00 
0.0000000e+00 1.4866066e-04 0.0000000e+00 
0.0000000e+00 1.7705360e-04 0.0000000e+00 
0.0000000e+00 2.1987416e-04 0.0000000e+00 
0.0000000e+00 2.5558900e-04 0.0000000e+00 
0.0000000e+00 2.0239428e-04 0.0000000e+00 
0.0000000e+00 3.4903212e-06 0.0000000e+00 
0.0000000e+00 -3.4941736e-04 0.0000000e+00 
0.0000000e+00 -8.5970823e-04 0.0000000e+00 
0.0000000e+00 -1.5445021e-03 0.0000000e+00 
0.0000000e+00 -2.4264003e-03 0.0000000e+00 
0.0000000e+00 -3.4186016e-03 0.0000000e+00 
0.0000000e+00 -4.1853841e-03 0.0000000e+00 
0.0000000e+00 -4.2198058e-03 0.0000000e+00 
0.0000000e+00 -4.0132124e-03 0.0000000e+00 
0.0000000e+00 -3.9795982e-03 0.0000000e+00 
0.0000000e+00 -4.1796258e-03 0.0000000e+00 
0.0000000e+00 -4.1640210e-03 0.0000000e+00 
0.0000000e+00 -3.4086404e-03 0.0000000e+00 
0.0000000e+00 -2.3466956e-03 0.0000000e+00 
0.0000000e+00 -1.4103805e-03 0.0000000e+00 
0.0000000e+00 -7.2107761e-04 0.0000000e+00 
0.0000000e+00 -2.7825520e-04 0.0000000e+00 
0.0000000e+00 -2.0504536e-05 0.0000000e+00 
0.0000000e+00 1.0954407e-04 0.0000000e+00 
0.0000000e+00 1.5326835e-04 0.0000000e+00 
0.0000000e+00 1.4471027e-04 0.0000000e+00 
0.0000000e+00 1.1828486e-04 0.0000000e+00 
0.0000000e+00 9.5910327e-05 0.0000000e+00 
0.0000000e+00 7.9107733e-05 0.0000000e+00 
0.0000000e+00 6.2576779e-05 0.0000000e+00 
0.0000000e+00 4.3858930e-05 0.0000000e+00 
0.0000000e+00 2.6639562e-05 0.0000000e+00 
0.0000000e+00 1.9349147e-05 0.0000000e+00 
1.9122625e-05 4.2362313e-05 3.1221996e-05 
3.8044145e-05 2.1147811e-04 9.5510528e-05 
0.0000000e+00 0.0000000e+00 0.0000000e+00 
0.0000000e+00 0.0000000e+00 0.0000000e+00 
0.0000000e+00 0.0000000e+00 0.0000000e+00 
0.0000000e+00 0.0000000e+00 0.0000000e+00 
0.0000000e+00 0.0000000e+00 0.0000000e+00 
0.0000000e+00 0.0000000e+00 0.0000000e+00 
0.0000000e+00 0.0000000e+00 0.0000000e+00 
0.0000000e+00 0.0000000e+00 0.0000000e+00 
0.0000000e+00 0.0000000e+00 0.0000000e+00 
0.0000000e+00 0.0000000e+00 0.0000000e+00 
0.0000000e+00 0.0000000e+00 0.0000000e+00 
0.0000000e+00 0.0000000e+00 0.0000000e+00 
0.0000000e+00 0.0000000e+00 0.0000000e+00 
0.0000000e+00 0.0000000e+00 0.0000000e+00 
0.0000000e+00 0.0000000e+00 0.0000000e+00 
0.0000000e+00 0.0000000e+00 0.0000000e+00 
0.0000000e+00 0.0000000e+00 0.0000000e+00 
0.0000000e+00 0.0000000e+00 0.0000000e+00 
0.0000000e+00 0.0000000e+00 0.0000000e+00 
0.0000000e+00 0.0000000e+00 0.0000000e+00 
0.0000000e+00 0.0000000e+00 0.0000000e+00 
0.0000000e+00 0.0000000e+00 0.0000000e+00 
0.0000000e+00 0.0000000e+00 0.0000000e+00 
0.0000000e+00 0.0000000e+00 0.0000000e+00 
0.0000000e+00 0.0000000e+00 0.0000000e+00 
0.0000000e+00 0.0000000e+00 0.0000000e+00 
0.0000000e+00 0.0000000e+00 0.0000000e+00 
0.0000000e+00 0.0000000e+00 0.0000000e+00 
0.0000000e+00 0.0000000e+00 0.0000000e+00 
0.0000000e+00 0.0000000e+00 0.0000000e+00 
0.0000000e+00 0.0000000e+00 0.0000000e+00 
0.0000000e+00 0.0000000e+00 0.0000000e+00 
0.0000000e+00 0.0000000e+00 0.0000000e+00 
0.0000000e+00 0.0000000e+00 0.0000000e+00 
0.0000000e+00 0.0000000e+00 0.0000000e+00 
0.0000000e+00 0.0000000e+00 0.0000000e+00 
0.0000000e+00 0.0000000e+00 0.0000000e+00 
0.0000000e+00 0.0000000e+00 0.0000000e+00 
0.0000000e+00 0.0000000e+00 0.0000000e+00 
0.0000000e+00 0.0000000e+00 0.0000000e+00 
0.0000000e+00 0.0000000e+00 0.0000000e+00 
0.0000000e+00 0.0000000e+00 0.0000000e+00 
0.0000000e+00 0.0000000e+00 0.0000000e+00 
0.0000000e+00 0.0000000e+00 0.0000000e+00 
0.0000000e+00 0.0000000e+00 0.0000000e+00 
0.0000000e+00 0.0000000e+00 0.0000000e+00 
0.0000000e+00 0.0000000e+00 0.0000000e+00 
0.0000000e+00 0.0000000e+00 0.0000000e+00 
0.0000000e+00 0.0000000e+00 0.0000000e+00 
0.0000000e+00 0.0000000e+00 0.0000000e+00 
0.0000000e+00 0.0000000e+00 0.0000000e+00 
0.0000000e+00 0.0000000e+00 0.0000000e+00 
6.3130273e-07 9.6818769e-07 -1.2422893e-06 
3.3147503e-06 1.9766840e-06 -6.7096285e-06 
2.1625644e-06 -1.3613640e-06 -4.5483503e-06 
-8.5695717e-07 -1.6713800e-06 -3.9071904e-07 
-4.5843531e-06 -2.3449293e-06 2.1866354e-06 
-1.0378141e-05 2.3790714e-07 1.0766330e-06 
-2.7137930e-06 -3.4253922e-06 -1.0834161e-06 
1.4495324e-05 -2.2880045e-06 -4.2738943e-06 
3.7282134e-05 -1.5590465e-06 -8.3468240e-06 
5.6159992e-05 -1.8296621e-06 -3.2480320e-06 
5.1676252e-05 -2.8814670e-06 8.4733092e-06 
2.7980552e-05 -1.7309399e-06 5.1518296e-06 
9.0730355e-06 1.9689248e-06 6.1772732e-07 
2.2890617e-06 1.3947874e-06 -2.5883307e-06 
-1.9620984e-06 2.2877027e-06 -2.6603382e-07 
-8.2701326e-06 -1.7393265e-06 1.8144340e-06 
-3.9887468e-06 1.3209873e-06 2.8302511e-06 
1.0366979e-05 -2.2010315e-06 2.2601716e-06 
3.4433942e-05 -1.1770760e-05 -6.9380817e-06 
5.4207492e-05 -1.2084677e-05 -1.0351961e-06 
4.1139941e-05 -8.7601893e-06 1.5722087e-05 
2.0045478e-05 -1.2332931e-06 1.3663789e-05 
4.3056802e-06 2.3070627e-06 3.6459085e-06 
1.2452145e-06 3.3193085e-06 -4.8954134e-06 
0.0000000e+00 -1.3926822e-05 0.0000000e+00 
0.0000000e+00 5.7712367e-07 0.0000000e+00 
0.0000000e+00 -1.6596183e-05 0.0000000e+00 
0.0000000e+00 -2.6774807e-05 0.0000000e+00 
0.0000000e+00 -3.7883172e-05 0.0000000e+00 
0.0000000e+00 -2.5765585e-05 0.0000000e+00 
0.0000000e+00 1.6492784e-05 0.0000000e+00 
0.0000000e+00 -8.3861567e-05 0.0000000e+00 
0.0000000e+00 -2.3666197e-04 0.0000000e+00 
0.0000000e+00 -5.4192496e-04 0.0000000e+00 
0.0000000e+00 -5.4522854e-04 0.0000000e+00 
0.0000000e+00 -2.1908253e-04 0.0000000e+00 
0.0000000e+00 -4.9105391e-05 0.0000000e+00 
0.0000000e+00 -3.8275655e-05 0.0000000e+00 
0.0000000e+00 -5.4020235e-05 0.0000000e+00 
0.0000000e+00 2.0201080e-05 0.0000000e+00 
0.0000000e+00 5.2167539e-05 0.0000000e+00 
0.0000000e+00 6.4276323e-06 0.0000000e+00 
0.0000000e+00 -2.0206890e-04 0.0000000e+00 
0.0000000e+00 -5.5356324e-04 0.0000000e+00 
0.0000000e+00 -5.2873720e-04 0.0000000e+00 
0.0000000e+00 -1.1916640e-04 0.0000000e+00 
0.0000000e+00 2.8227763e-05 0.0000000e+00 
0.0000000e+00 2.7844580e-05 0.0000000e+00 
1.1904127e-06 -3.3492381e-07 1.2280926e-06 
3.3558770e-06 -7.7077402e-06 -2.4013493e-06 
8.3412367e-08 -2.1897314e-07 -9.6199301e-06 
4.1289445e-06 -6.7071178e-06 -1.3024964e-05 
1.3191983e-07 3.7715583e-06 -1.8104882e-06 
-7.9804016e-07 5.0864123e-06 -6.0436796e-06 
-4.4910564e-07 -2.9688306e-06 -4.0384334e-06 
-4.0571803e-07 -2.1468095e-06 -3.4288837e-06 
-5.6698896e-06 -2.1863659e-06 2.2812837e-06 
-1.0041970e-05 1.4794530e-06 6.5327180e-07 
-5.2820583e-06 -5.1921342e-07 -9.8403939e-07 
1.7598610e-05 -3.6135896e-06 -9.1021220e-06 
3.5669538e-05 -1.2193415e-06 -3.2066225e-06 
3.8752427e-05 -1.4895172e-06 1.3340657e-06 
2.6305137e-05 3.0046283e-07 9.5077021e-06 
8.9083169e-06 3.9317192e-06 6.8262926e-07 
4.6524078e-06 1.8672769e-06 -4.5501920e-06 
2.3774219e-07 -1.9985846e-06 -6.2112722e-06 
-5.8751452e-06 -6.4414621e-07 3.3183001e-06 
-2.0162870e-06 1.6069268e-06 -3.1494208e-06 
3.9680640e-06 4.3047421e-06 3.8521844e-06 
2.2575001e-05 -4.7135159e-06 2.3448231e-06 
2.8259907e-05 -9.6308195e-06 6.0393982e-06 
3.4697616e-05 -1.3535653e-05 -6.5461666e-07 
3.5682930e-05 3.6456845e-06 1.1751770e-05 
2.1208018e-05 1.9411686e-06 6.7264623e-06 
1.0020847e-05 4.6542259e-06 2.3447160e-06 
6.7403671e-06 3.0750234e-06 -3.8673957e-06 
-4.4500484e-06 -1.2588154e-05 -2.8775287e-07 
0.0000000e+00 -1.2537074e-05 0.0000000e+00 
0.0000000e+00 -8.2324832e-06 0.0000000e+00 
0.0000000e+00 -4.7586389e-05 0.0000000e+00 
0.0000000e+00 -6.0236842e-05 0.0000000e+00 
0.0000000e+00 -2.2315478e-06 0.0000000e+00 
0.0000000e+00 -4.4476765e-05 0.0000000e+00 
0.0000000e+00 -7.9886442e-05 0.0000000e+00 
0.0000000e+00 -1.3510805e-05 0.0000000e+00 
0.0000000e+00 -5.2092079e-04 0.0000000e+00 
0.0000000e+00 -1.2630140e-03 0.0000000e+00 
0.0000000e+00 -1.1932881e-03 0.0000000e+00 
0.0000000e+00 -4.4035091e-04 0.0000000e+00 
0.0000000e+00 -7.2878240e-05 0.0000000e+00 
0.0000000e+00 -6.0360078e-05 0.0000000e+00 
0.0000000e+00 -3.5950943e-05 0.0000000e+00 
0.0000000e+00 -4.4489891e-05 0.0000000e+00 
0.0000000e+00 1.1205926e-04 0.0000000e+00 
0.0000000e+00 1.3815926e-04 0.0000000e+00 
0.0000000e+00 -5.4013438e-04 0.0000000e+00 
0.0000000e+00 -1.2203519e-03 0.0000000e+00 
0.0000000e+00 -1.1530468e-03 0.0000000e+00 
0.0000000e+00 -2.3110842e-04 0.0000000e+00 
0.0000000e+00 5.2653315e-05 0.0000000e+00 
0.0000000e+00 5.2053922e-05 0.0000000e+00 
5.0485155e-06 -4.2620832e-06 -6.0343018e-06 
-2.6806594e-05 -1.9600850e-05 -5.6627541e-06 
-2.8856321e-06 -6.3529500e-05 1.4259568e-05 
2.7635092e-06 -9.4609015e-05 -4.0179189e-06 
-3.5088415e-05 -7.7649078e-05 -4.0355626e-05 
-2.8831973e-05 -8.5177107e-06 -3.8502887e-05 
-6.7536230e-06 8.7023091e-06 -2.6632051e-06 
3.6354260e-05 -2.1621609e-05 6.2266117e-05 
-1.6806804e-06 -5.6363500e-05 1.0584483e-04 
-3.1828866e-04 -5.5037986e-04 3.1325105e-04 
-7.3261431e-04 -1.4702004e-03 1.3396543e-04 
-6.5728510e-04 -1.5193936e-03 -9.8053191e-05 
-1.6927347e-04 -4.3151792e-04 -2.3634234e-04 
-1.6155487e-05 -1.0851319e-04 -1.0324820e-04 
-4.9679144e-05 -8.6619351e-05 -8.4781241e-05 
-3.9879116e-05 -4.6816054e-05 -1.0054261e-04 
4.4953849e-06 1.9512643e-05 -1.0988775e-04 
8.2910017e-05 1.4087878e-04 -3.2370681e-05 
5.8427988e-05 1.1093500e-04 1.3829881e-04 
-2.9330057e-04 -4.7877888e-04 3.4848589e-04 
-7.0794090e-04 -1.3547455e-03 9.2628004e-05 
-5.8832573e-04 -1.4432315e-03 -1.6265039e-04 
-1.1205912e-04 -1.9610276e-04 -1.8716128e-04 
8.1427534e-06 8.2059953e-05 -6.4506363e-05 
8.2036540e-06 6.0776481e-05 5.6354957e-06 
0.0000000e+00 -2.9468083e-05 0.0000000e+00 
0.0000000e+00 -3.9448991e-05 0.0000000e+00 
0.0000000e+00 -1.0252912e-04 0.0000000e+00 
0.0000000e+00 -5.3571381e-05 0.0000000e+00 
0.0000000e+00 -6.6242383e-06 0.0000000e+00 
0.0000000e+00 -1.2197133e-04 0.0000000e+00 
0.0000000e+00 -5.1513285e-05 0.0000000e+00 
0.0000000e+00 3.6122736e-05 0.0000000e+00 
0.0000000e+00 -9.1010268e-04 0.0000000e+00 
0.0000000e+00 -2.4330562e-03 0.0000000e+00 
0.0000000e+00 -2.3043910e-03 0.0000000e+00 
0.0000000e+00 -7.2721299e-04 0.0000000e+00 
0.0000000e+00 -5.8232297e-05 0.0000000e+00 
0.0000000e+00 -4.6564048e-05 0.0000000e+00 
0.0000000e+00 -1.0204117e-04 0.0000000e+00 
0.0000000e+00 -6.8182155e-05 0.0000000e+00 
0.0000000e+00 1.8238377e-04 0.0000000e+00 
0.0000000e+00 2.1567922e-04 0.0000000e+00 
0.0000000e+00 -1.0030264e-03 0.0000000e+00 
0.0000000e+00 -2.3978755e-03 0.0000000e+00 
0.0000000e+00 -2.2077195e-03 0.0000000e+00 
0.0000000e+00 -3.8994793e-04 0.0000000e+00 
0.0000000e+00 1.1634618e-04 0.0000000e+00 
0.0000000e+00 6.9396978e-05 0.0000000e+00 
-6.7351407e-06 -2.8920422e-07 -7.3312613e-06 
2.0694406e-06 -1.1058689e-05 -7.6377255e-06 
4.3553192e-07 -2.2702405e-05 -5.4743859e-06 
-7.2684179e-06 -1.0779368e-05 -5.2219893e-06 
-1.5715128e-05 1.3719113e-06 -5.4760899e-06 
-8.7253011e-06 8.1695689e-06 8.1516811e-07 
8.1488770e-06 1.1961292e-05 1.0558474e-05 
2.5079051e-05 1.2844579e-05 1.9551715e-05 
5.3228476e-05 -6.6816436e-05 1.3770940e-05 
4.2869797e-05 -1.1935190e-04 3.2697678e-06 
3.7653572e-05 -1.2312039e-04 1.1747807e-05 
4.0969797e-05 -8.2642204e-05 -9.2000397e-07 
1.0533111e-06 -1.2446256e-05 -1.8548923e-05 
-9.0698722e-06 -8.5960000e-06 -2.2087985e-05 
-1.1367609e-05 -1.0713893e-05 -2.3280834e-05 
-4.5211868e-06 1.0070581e-05 -2.2031460e-05 
7.8462972e-06 3.9900726e-05 8.5534037e-07 
4.1290299e-05 -6.9529233e-05 2.2484532e-05 
4.9508748e-05 -1.1829923e-04 -5.0907352e-06 
3.7685990e-05 -1.1240522e-04 1.3952334e-05 
3.4597775e-05 -2.6668120e-05 1.0011050e-05 
7.7774675e-06 1.8720773e-05 -6.3094772e-06 
3.2421513e-06 1.9546005e-05 -1.0730737e-05 
4.5390396e-05 1.0519352e-04 8.6358108e-05 
0.0000000e+00 0.0000000e+00 0.0000000e+00 
0.0000000e+00 0.0000000e+00 0.0000000e+00 
0.0000000e+00 0.0000000e+00 0.0000000e+00 