# vtk DataFile Version 4.0
vtk output
ASCII
DATASET UNSTRUCTURED_GRID
POINTS 1919 float
0.0000000e+00 0.0000000e+00 0.0000000e+00 
0.0000000e+00 0.0000000e+00 5.0000000e+01 
5.0000000e+00 0.0000000e+00 0.0000000e+00 
5.0000000e+00 0.0000000e+00 5.0000000e+01 
5.0000000e+00 1.0000000e+00 0.0000000e+00 
5.0000000e+00 1.0000000e+00 5.0000000e+01 
0.0000000e+00 1.0000000e+00 0.0000000e+00 
0.0000000e+00 1.0000000e+00 5.0000000e+01 
5.0000000e+00 2.0000000e+00 0.0000000e+00 
5.0000000e+00 2.0000000e+00 5.0000000e+01 
3.0000000e+00 2.0000000e+00 0.0000000e+00 
3.0000000e+00 2.0000000e+00 5.0000000e+01 
0.0000000e+00 2.0000000e+00 0.0000000e+00 
0.0000000e+00 2.0000000e+00 5.0000000e+01 
1.5000000e+00 3.0000000e+00 0.0000000e+00 
1.5000000e+00 3.0000000e+00 5.0000000e+01 
7.5000000e-01 3.0000000e+00 0.0000000e+00 
7.5000000e-01 3.0000000e+00 5.0000000e+01 
0.0000000e+00 3.0000000e+00 0.0000000e+00 
0.0000000e+00 3.0000000e+00 5.0000000e+01 
7.5000000e-01 3.0000000e+00 5.0000000e-01 
7.5000000e-01 3.0000000e+00 1.0000000e+00 
7.5000000e-01 3.0000000e+00 1.5000000e+00 
7.5000000e-01 3.0000000e+00 2.0000000e+00 
7.5000000e-01 3.0000000e+00 2.5000000e+00 
7.5000000e-01 3.0000000e+00 3.0000000e+00 
7.5000000e-01 3.0000000e+00 3.5000000e+00 
7.5000000e-01 3.0000000e+00 4.0000000e+00 
7.5000000e-01 3.0000000e+00 4.5000000e+00 
7.5000000e-01 3.0000000e+00 5.0000000e+00 
7.5000000e-01 3.0000000e+00 5.5000000e+00 
7.5000000e-01 3.0000000e+00 6.0000000e+00 
7.5000000e-01 3.0000000e+00 6.5000000e+00 
7.5000000e-01 3.0000000e+00 7.0000000e+00 
7.5000000e-01 3.0000000e+00 7.5000000e+00 
7.5000000e-01 3.0000000e+00 8.0000000e+00 
7.5000000e-01 3.0000000e+00 8.5000000e+00 
7.5000000e-01 3.0000000e+00 9.0000000e+00 
7.5000000e-01 3.0000000e+00 9.5000000e+00 
7.5000000e-01 3.0000000e+00 1.0000000e+01 
7.5000000e-01 3.0000000e+00 1.0500000e+01 
7.5000000e-01 3.0000000e+00 1.1000000e+01 
7.5000000e-01 3.0000000e+00 1.1500000e+01 
7.5000000e-01 3.0000000e+00 1.2000000e+01 
7.5000000e-01 3.0000000e+00 1.2500000e+01 
7.5000000e-01 3.0000000e+00 1.3000000e+01 
7.5000000e-01 3.0000000e+00 1.3500000e+01 
7.5000000e-01 3.0000000e+00 1.4000000e+01 
7.5000000e-01 3.0000000e+00 1.4500000e+01 
7.5000000e-01 3.0000000e+00 1.5000000e+01 
7.5000000e-01 3.0000000e+00 1.5500000e+01 
7.5000000e-01 3.0000000e+00 1.6000000e+01 
7.5000000e-01 3.0000000e+00 1.6500000e+01 
7.5000000e-01 3.0000000e+00 1.7000000e+01 
7.5000000e-01 3.0000000e+00 1.7500000e+01 
7.5000000e-01 3.0000000e+00 1.8000000e+01 
7.5000000e-01 3.0000000e+00 1.8500000e+01 
7.5000000e-01 3.0000000e+00 1.9000000e+01 
7.5000000e-01 3.0000000e+00 1.9500000e+01 
7.5000000e-01 3.0000000e+00 2.0000000e+01 
7.5000000e-01 3.0000000e+00 2.0500000e+01 
7.5000000e-01 3.0000000e+00 2.1000000e+01 
7.5000000e-01 3.0000000e+00 2.1500000e+01 
7.5000000e-01 3.0000000e+00 2.2000000e+01 
7.5000000e-01 3.0000000e+00 2.2500000e+01 
7.5000000e-01 3.0000000e+00 2.3000000e+01 
7.5000000e-01 3.0000000e+00 2.3500000e+01 
7.5000000e-01 3.0000000e+00 2.4000000e+01 
7.5000000e-01 3.0000000e+00 2.4500000e+01 
7.5000000e-01 3.0000000e+00 2.5000000e+01 
7.5000000e-01 3.0000000e+00 2.5500000e+01 
7.5000000e-01 3.0000000e+00 2.6000000e+01 
7.5000000e-01 3.0000000e+00 2.6500000e+01 
7.5000000e-01 3.0000000e+00 2.7000000e+01 
7.5000000e-01 3.0000000e+00 2.7500000e+01 
7.5000000e-01 3.0000000e+00 2.8000000e+01 
7.5000000e-01 3.0000000e+00 2.8500000e+01 
7.5000000e-01 3.0000000e+00 2.9000000e+01 
7.5000000e-01 3.0000000e+00 2.9500000e+01 
7.5000000e-01 3.0000000e+00 3.0000000e+01 
7.5000000e-01 3.0000000e+00 3.0500000e+01 
7.5000000e-01 3.0000000e+00 3.1000000e+01 
7.5000000e-01 3.0000000e+00 3.1500000e+01 
7.5000000e-01 3.0000000e+00 3.2000000e+01 
7.5000000e-01 3.0000000e+00 3.2500000e+01 
7.5000000e-01 3.0000000e+00 3.3000000e+01 
7.5000000e-01 3.0000000e+00 3.3500000e+01 
7.5000000e-01 3.0000000e+00 3.4000000e+01 
7.5000000e-01 3.0000000e+00 3.4500000e+01 
7.5000000e-01 3.0000000e+00 3.5000000e+01 
7.5000000e-01 3.0000000e+00 3.5500000e+01 
7.5000000e-01 3.0000000e+00 3.6000000e+01 
7.5000000e-01 3.0000000e+00 3.6500000e+01 
7.5000000e-01 3.0000000e+00 3.7000000e+01 
7.5000000e-01 3.0000000e+00 3.7500000e+01 
7.5000000e-01 3.0000000e+00 3.8000000e+01 
7.5000000e-01 3.0000000e+00 3.8500000e+01 
7.5000000e-01 3.0000000e+00 3.9000000e+01 
7.5000000e-01 3.0000000e+00 3.9500000e+01 
7.5000000e-01 3.0000000e+00 4.0000000e+01 
7.5000000e-01 3.0000000e+00 4.0500000e+01 
7.5000000e-01 3.0000000e+00 4.1000000e+01 
7.5000000e-01 3.0000000e+00 4.1500000e+01 
7.5000000e-01 3.0000000e+00 4.2000000e+01 
7.5000000e-01 3.0000000e+00 4.2500000e+01 
7.5000000e-01 3.0000000e+00 4.3000000e+01 
7.5000000e-01 3.0000000e+00 4.3500000e+01 
7.5000000e-01 3.0000000e+00 4.4000000e+01 
7.5000000e-01 3.0000000e+00 4.4500000e+01 
7.5000000e-01 3.0000000e+00 4.5000000e+01 
7.5000000e-01 3.0000000e+00 4.5500000e+01 
7.5000000e-01 3.0000000e+00 4.6000000e+01 
7.5000000e-01 3.0000000e+00 4.6500000e+01 
7.5000000e-01 3.0000000e+00 4.7000000e+01 
7.5000000e-01 3.0000000e+00 4.7500000e+01 
7.5000000e-01 3.0000000e+00 4.8000000e+01 
7.5000000e-01 3.0000000e+00 4.8500000e+01 
7.5000000e-01 3.0000000e+00 4.9000000e+01 
7.5000000e-01 3.0000000e+00 4.9500000e+01 
7.5000000e-01 3.0250001e+00 0.0000000e+00 
7.5000000e-01 3.0250001e+00 5.0000000e-01 
7.5000000e-01 3.0250001e+00 1.0000000e+00 
7.5000000e-01 3.0250001e+00 1.5000000e+00 
7.5000000e-01 3.0250001e+00 2.0000000e+00 
7.5000000e-01 3.0250001e+00 2.5000000e+00 
7.5000000e-01 3.0250001e+00 3.0000000e+00 
7.5000000e-01 3.0250001e+00 3.5000000e+00 
7.5000000e-01 3.0250001e+00 4.0000000e+00 
7.5000000e-01 3.0250001e+00 4.5000000e+00 
7.5000000e-01 3.0250001e+00 5.0000000e+00 
7.5000000e-01 3.0250001e+00 5.5000000e+00 
7.5000000e-01 3.0250001e+00 6.0000000e+00 
7.5000000e-01 3.0250001e+00 6.5000000e+00 
7.5000000e-01 3.0250001e+00 7.0000000e+00 
7.5000000e-01 3.0250001e+00 7.5000000e+00 
7.5000000e-01 3.0250001e+00 8.0000000e+00 
7.5000000e-01 3.0250001e+00 8.5000000e+00 
7.5000000e-01 3.0250001e+00 9.0000000e+00 
7.5000000e-01 3.0250001e+00 9.5000000e+00 
7.5000000e-01 3.0250001e+00 1.0000000e+01 
7.5000000e-01 3.0250001e+00 1.0500000e+01 
7.5000000e-01 3.0250001e+00 1.1000000e+01 
7.5000000e-01 3.0250001e+00 1.1500000e+01 
7.5000000e-01 3.0250001e+00 1.2000000e+01 
7.5000000e-01 3.0250001e+00 1.2500000e+01 
7.5000000e-01 3.0250001e+00 1.3000000e+01 
7.5000000e-01 3.0250001e+00 1.3500000e+01 
7.5000000e-01 3.0250001e+00 1.4000000e+01 
7.5000000e-01 3.0250001e+00 1.4500000e+01 
7.5000000e-01 3.0250001e+00 1.5000000e+01 
7.5000000e-01 3.0250001e+00 1.5500000e+01 
7.5000000e-01 3.0250001e+00 1.6000000e+01 
7.5000000e-01 3.0250001e+00 1.6500000e+01 
7.5000000e-01 3.0250001e+00 1.7000000e+01 
7.5000000e-01 3.0250001e+00 1.7500000e+01 
7.5000000e-01 3.0250001e+00 1.8000000e+01 
7.5000000e-01 3.0250001e+00 1.8500000e+01 
7.5000000e-01 3.0250001e+00 1.9000000e+01 
7.5000000e-01 3.0250001e+00 1.9500000e+01 
7.5000000e-01 3.0250001e+00 2.0000000e+01 
7.5000000e-01 3.0250001e+00 2.0500000e+01 
7.5000000e-01 3.0250001e+00 2.1000000e+01 
7.5000000e-01 3.0250001e+00 2.1500000e+01 
7.5000000e-01 3.0250001e+00 2.2000000e+01 
7.5000000e-01 3.0250001e+00 2.2500000e+01 
7.5000000e-01 3.0250001e+00 2.3000000e+01 
7.5000000e-01 3.0250001e+00 2.3500000e+01 
7.5000000e-01 3.0250001e+00 2.4000000e+01 
7.5000000e-01 3.0250001e+00 2.4500000e+01 
7.5000000e-01 3.0250001e+00 2.5000000e+01 
7.5000000e-01 3.0250001e+00 2.5500000e+01 
7.5000000e-01 3.0250001e+00 2.6000000e+01 
7.5000000e-01 3.0250001e+00 2.6500000e+01 
7.5000000e-01 3.0250001e+00 2.7000000e+01 
7.5000000e-01 3.0250001e+00 2.7500000e+01 
7.5000000e-01 3.0250001e+00 2.8000000e+01 
7.5000000e-01 3.0250001e+00 2.8500000e+01 
7.5000000e-01 3.0250001e+00 2.9000000e+01 
7.5000000e-01 3.0250001e+00 2.9500000e+01 
7.5000000e-01 3.0250001e+00 3.0000000e+01 
7.5000000e-01 3.0250001e+00 3.0500000e+01 
7.5000000e-01 3.0250001e+00 3.1000000e+01 
7.5000000e-01 3.0250001e+00 3.1500000e+01 
7.5000000e-01 3.0250001e+00 3.2000000e+01 
7.5000000e-01 3.0250001e+00 3.2500000e+01 
7.5000000e-01 3.0250001e+00 3.3000000e+01 
7.5000000e-01 3.0250001e+00 3.3500000e+01 
7.5000000e-01 3.0250001e+00 3.4000000e+01 
7.5000000e-01 3.0250001e+00 3.4500000e+01 
7.5000000e-01 3.0250001e+00 3.5000000e+01 
7.5000000e-01 3.0250001e+00 3.5500000e+01 
7.5000000e-01 3.0250001e+00 3.6000000e+01 
7.5000000e-01 3.0250001e+00 3.6500000e+01 
7.5000000e-01 3.0250001e+00 3.7000000e+01 
7.5000000e-01 3.0250001e+00 3.7500000e+01 
7.5000000e-01 3.0250001e+00 3.8000000e+01 
7.5000000e-01 3.0250001e+00 3.8500000e+01 
7.5000000e-01 3.0250001e+00 3.9000000e+01 
7.5000000e-01 3.0250001e+00 3.9500000e+01 
7.5000000e-01 3.0250001e+00 4.0000000e+01 
7.5000000e-01 3.0250001e+00 4.0500000e+01 
7.5000000e-01 3.0250001e+00 4.1000000e+01 
7.5000000e-01 3.0250001e+00 4.1500000e+01 
7.5000000e-01 3.0250001e+00 4.2000000e+01 
7.5000000e-01 3.0250001e+00 4.2500000e+01 
7.5000000e-01 3.0250001e+00 4.3000000e+01 
7.5000000e-01 3.0250001e+00 4.3500000e+01 
7.5000000e-01 3.0250001e+00 4.4000000e+01 
7.5000000e-01 3.0250001e+00 4.4500000e+01 
7.5000000e-01 3.0250001e+00 4.5000000e+01 
7.5000000e-01 3.0250001e+00 4.5500000e+01 
7.5000000e-01 3.0250001e+00 4.6000000e+01 
7.5000000e-01 3.0250001e+00 4.6500000e+01 
7.5000000e-01 3.0250001e+00 4.7000000e+01 
7.5000000e-01 3.0250001e+00 4.7500000e+01 
7.5000000e-01 3.0250001e+00 4.8000000e+01 
7.5000000e-01 3.0250001e+00 4.8500000e+01 
7.5000000e-01 3.0250001e+00 4.9000000e+01 
7.5000000e-01 3.0250001e+00 4.9500000e+01 
7.5000000e-01 3.0250001e+00 5.0000000e+01 
3.0000000e+00 2.0000000e+00 3.6000000e+01 
8.0487806e-01 3.0000000e+00 3.6000000e+01 
0.0000000e+00 0.0000000e+00 1.0000000e+00 
0.0000000e+00 0.0000000e+00 2.0000000e+00 
0.0000000e+00 0.0000000e+00 3.0000000e+00 
0.0000000e+00 0.0000000e+00 4.0000000e+00 
0.0000000e+00 0.0000000e+00 5.0000000e+00 
0.0000000e+00 0.0000000e+00 6.0000000e+00 
0.0000000e+00 0.0000000e+00 7.0000000e+00 
0.0000000e+00 0.0000000e+00 8.0000000e+00 
[...]
POINT_DATA 1919
FIELD FieldData 3
DISPLACEMENT 3 1919  float
0.0000000e+00 0.0000000e+00 0.0000000e+00 
0.0000000e+00 0.0000000e+00 0.0000000e+00 
0.0000000e+00 0.0000000e+00 0.0000000e+00 
0.0000000e+00 0.0000000e+00 0.0000000e+00 
-4.2014690e-06 -5.4449047e-06 -2.9489272e-06 
7.6001205e-09 9.1170811e-08 -1.7560978e-07 
0.0000000e+00 4.5704135e-05 0.0000000e+00 
0.0000000e+00 1.3553107e-07 0.0000000e+00 
5.0462727e-06 -7.4708205e-06 -6.1039241e-06 
-2.6372222e-08 4.3880057e-08 -1.9907084e-07 
2.2801112e-06 1.1449695e-05 -7.0145993e-06 
4.3978002e-08 2.1094399e-07 -6.3212752e-08 
0.0000000e+00 3.8246573e-05 0.0000000e+00 
0.0000000e+00 2.5192821e-07 0.0000000e+00 
1.9094619e-05 6.6170782e-05 -2.5681778e-05 
1.3662209e-07 -5.9793217e-07 -2.2368425e-07 
5.2139540e-06 1.2460286e-04 1.5685619e-06 
1.0556536e-08 -2.2041637e-07 -6.1452397e-08 
0.0000000e+00 3.8874343e-05 0.0000000e+00 
0.0000000e+00 -3.7737829e-07 0.0000000e+00 
2.0674066e-05 9.5179988e-05 -6.1840642e-06 
3.6052184e-05 4.1134641e-05 -2.5522419e-05 
1.6517846e-05 2.9421586e-05 -2.8285160e-05 
2.9633176e-05 9.6402990e-05 -3.9947699e-05 
6.2384745e-05 2.1814185e-04 -2.7138603e-05 
2.8411707e-05 3.2057884e-04 -1.2529554e-05 
4.6375382e-05 3.4283206e-04 2.1012394e-05 
7.8855192e-05 2.8785566e-04 2.6795855e-05 
4.9825729e-05 1.7262285e-04 7.7688965e-05 
2.9060542e-05 -4.1363939e-05 1.4193788e-04 
4.7421203e-05 -4.6132845e-04 2.7970289e-04 
-2.2600823e-06 -1.1967875e-03 2.5662524e-04 
-6.2469204e-05 -2.3063279e-03 3.7712624e-04 
-1.8958372e-04 -3.6155446e-03 2.0246059e-04 
-2.8541265e-04 -4.6538869e-03 2.4597941e-04 
-3.0429516e-04 -4.8159976e-03 1.4276720e-04 
-3.1335410e-04 -4.6553863e-03 7.1657705e-05 
-2.8297782e-04 -4.6396977e-03 1.4114462e-05 
-2.9902830e-04 -4.8962343e-03 -3.8694332e-05 
-3.2075474e-04 -4.9419105e-03 -1.6664839e-04 
-2.6742095e-04 -4.1852226e-03 -3.0381631e-04 
-2.0621004e-04 -2.9910200e-03 -2.6090190e-04 
-1.7182376e-04 -1.8205595e-03 -3.7869476e-04 
-1.0349616e-04 -8.6507958e-04 -2.2246242e-04 
-6.0737337e-05 -2.1174560e-04 -2.3841159e-04 
-1.5183586e-05 1.7163240e-04 -1.7710350e-04 
1.9093339e-05 3.5252713e-04 -2.1004603e-04 
5.4394481e-05 3.9880417e-04 -1.8192556e-04 
1.1420056e-04 3.6044366e-04 -9.8046963e-05 
1.0481691e-04 2.6860239e-04 -2.3512578e-06 
7.8316669e-05 1.4858483e-04 1.1513815e-04 
4.8068534e-05 3.6619305e-05 1.4834414e-04 
-2.8026312e-05 -4.6841113e-05 1.6021325e-04 
-4.8764006e-05 -1.0623416e-04 1.1695817e-04 
-7.1250644e-05 -1.4974170e-04 5.7181645e-05 
-5.7702007e-05 -1.8065814e-04 -1.2850239e-05 
-4.5167289e-05 -1.8958490e-04 -5.2062143e-05 
-5.4678891e-05 -1.6999242e-04 -7.7859215e-05 
-2.8954755e-05 -1.3431435e-04 -7.2924682e-05 
-3.7366975e-05 -1.0137317e-04 -7.2130570e-05 
-2.0209925e-05 -8.3218976e-05 -5.5790264e-05 
-1.5036325e-05 -7.3225463e-05 -6.0804636e-05 
1.9688783e-05 -4.5089280e-05 -6.8704736e-05 
2.1523406e-06 2.8315744e-05 -5.1460462e-05 
1.2445079e-05 1.5012115e-04 -5.0081326e-05 
3.5256013e-05 2.8926315e-04 -2.9020699e-05 
7.0929309e-05 3.8772632e-04 2.9237362e-06 
7.0708025e-05 3.8236345e-04 3.5757163e-05 
9.8278608e-05 2.3498264e-04 9.7163742e-05 
7.2685703e-05 -7.9468671e-05 1.5263257e-04 
5.0033359e-05 -6.1887241e-04 2.7896397e-04 
-2.5068028e-05 -1.4357722e-03 2.4604076e-04 
-6.9546804e-05 -2.5605652e-03 4.2197085e-04 
-1.8332902e-04 -3.8156735e-03 2.6218654e-04 
-2.6297659e-04 -4.7627813e-03 2.8525913e-04 
-3.0771835e-04 -4.8470604e-03 1.9594458e-04 
-3.5212480e-04 -4.6665389e-03 1.2621269e-04 
-3.8191938e-04 -4.6402179e-03 5.8807615e-05 
-3.9328911e-04 -4.8462986e-03 1.1392714e-05 
-3.8202328e-04 -4.7857035e-03 -1.1294196e-04 
-3.6364823e-04 -3.9385068e-03 -3.5510896e-04 
-2.5985381e-04 -2.7086455e-03 -3.3307407e-04 
-1.8393275e-04 -1.5903475e-03 -4.7624085e-04 
-1.0059702e-04 -7.5399654e-04 -3.3552895e-04 
-2.6545602e-05 -2.3474538e-04 -3.1257697e-04 
2.2438822e-05 4.8056088e-05 -1.8389500e-04 
3.7000074e-05 1.8302700e-04 -1.3143609e-04 
4.7595655e-05 2.2661401e-04 -7.9365418e-05 
4.0757681e-05 2.0639157e-04 -3.0867279e-05 
7.4604133e-05 1.4711852e-04 5.3359177e-05 
4.3612537e-05 7.8632795e-05 1.2281345e-04 
2.2370728e-05 2.3595348e-05 1.3926312e-04 
-1.7746121e-05 -1.3765061e-05 1.3044401e-04 
-2.9102806e-05 -3.4796594e-05 7.6574324e-05 
-4.0732983e-05 -4.0349154e-05 2.1945831e-05 
-3.1148385e-05 -3.3649576e-05 -2.3171695e-05 
-8.6064665e-06 -1.7233708e-05 -4.0446732e-05 
-1.0285941e-06 5.0320710e-07 -3.8707563e-05 
6.4355736e-06 1.1234781e-05 -3.0963758e-05 
5.1620432e-06 1.3162616e-05 -1.6543212e-05 
3.5599621e-06 9.5485502e-06 -3.1167506e-06 
2.6077139e-06 5.4405305e-06 4.9730188e-06 
5.0012727e-07 2.8916734e-06 7.6389624e-06 
3.4424744e-07 1.2166290e-06 6.2706986e-06 
2.6660658e-07 -5.5865098e-07 3.1806258e-06 
1.0822323e-07 -2.1944427e-06 8.9057488e-07 
-8.7837883e-08 -2.7239278e-06 -7.7515034e-07 
-2.9145434e-07 -2.0365294e-06 -2.0096104e-06 
-1.1715672e-07 -9.3145911e-07 -1.7515822e-06 
1.2275523e-08 -4.2531943e-07 -4.3231495e-07 
-5.8559760e-08 -5.5955815e-07 -6.4250389e-07 
-1.2255825e-07 -6.1684102e-07 4.6194373e-07 
-7.3052128e-08 -5.7939843e-08 3.9981481e-07 
-1.1168327e-08 7.1408562e-07 1.9137731e-07 
8.7556327e-09 9.9423926e-07 3.9869246e-07 
1.5834486e-08 6.7123614e-07 2.3729123e-07 
2.9271881e-08 1.0568230e-07 1.5903032e-07 
-6.2916193e-08 -2.4945226e-07 -6.0621304e-08 
1.2077749e-08 -2.7372090e-07 -7.9170093e-08 
0.0000000e+00 1.2272467e-04 0.0000000e+00 
0.0000000e+00 9.3896939e-05 0.0000000e+00 
0.0000000e+00 4.2308340e-05 0.0000000e+00 
0.0000000e+00 3.2153817e-05 0.0000000e+00 
0.0000000e+00 9.8968660e-05 0.0000000e+00 
0.0000000e+00 2.1787945e-04 0.0000000e+00 
0.0000000e+00 3.1768679e-04 0.0000000e+00 
0.0000000e+00 3.4192155e-04 0.0000000e+00 
0.0000000e+00 2.9037552e-04 0.0000000e+00 
0.0000000e+00 1.7572347e-04 0.0000000e+00 
0.0000000e+00 -4.1337666e-05 0.0000000e+00 
0.0000000e+00 -4.6334369e-04 0.0000000e+00 
0.0000000e+00 -1.2073553e-03 0.0000000e+00 
0.0000000e+00 -2.3219350e-03 0.0000000e+00 
0.0000000e+00 -3.6423197e-03 0.0000000e+00 
0.0000000e+00 -4.6725878e-03 0.0000000e+00 
0.0000000e+00 -4.8419675e-03 0.0000000e+00 
0.0000000e+00 -4.6739089e-03 0.0000000e+00 
0.0000000e+00 -4.6702726e-03 0.0000000e+00 
0.0000000e+00 -4.9223439e-03 0.0000000e+00 
0.0000000e+00 -4.9710544e-03 0.0000000e+00 
0.0000000e+00 -4.2029475e-03 0.0000000e+00 
0.0000000e+00 -3.0058213e-03 0.0000000e+00 
0.0000000e+00 -1.8264793e-03 0.0000000e+00 
0.0000000e+00 -8.7084062e-04 0.0000000e+00 
0.0000000e+00 -2.1298307e-04 0.0000000e+00 
0.0000000e+00 1.7249543e-04 0.0000000e+00 
0.0000000e+00 3.5378998e-04 0.0000000e+00 
0.0000000e+00 3.9963215e-04 0.0000000e+00 
0.0000000e+00 3.6055915e-04 0.0000000e+00 
0.0000000e+00 2.6814968e-04 0.0000000e+00 
0.0000000e+00 1.4962148e-04 0.0000000e+00 
0.0000000e+00 3.8075712e-05 0.0000000e+00 
0.0000000e+00 -4.6511388e-05 0.0000000e+00 
0.0000000e+00 -1.0644006e-04 0.0000000e+00 
0.0000000e+00 -1.5056858e-04 0.0000000e+00 
0.0000000e+00 -1.8089260e-04 0.0000000e+00 
0.0000000e+00 -1.8895684e-04 0.0000000e+00 
0.0000000e+00 -1.6981397e-04 0.0000000e+00 
0.0000000e+00 -1.3451443e-04 0.0000000e+00 
0.0000000e+00 -1.0208364e-04 0.0000000e+00 
0.0000000e+00 -8.4218038e-05 0.0000000e+00 
0.0000000e+00 -7.3622083e-05 0.0000000e+00 
0.0000000e+00 -4.4645392e-05 0.0000000e+00 
0.0000000e+00 2.9414687e-05 0.0000000e+00 
0.0000000e+00 1.5188419e-04 0.0000000e+00 
0.0000000e+00 2.9046694e-04 0.0000000e+00 
0.0000000e+00 3.8687926e-04 0.0000000e+00 
0.0000000e+00 3.8129525e-04 0.0000000e+00 
0.0000000e+00 2.3560433e-04 0.0000000e+00 
0.0000000e+00 -8.0138554e-05 0.0000000e+00 
0.0000000e+00 -6.1975309e-04 0.0000000e+00 
0.0000000e+00 -1.4454084e-03 0.0000000e+00 
0.0000000e+00 -2.5747772e-03 0.0000000e+00 
0.0000000e+00 -3.8437180e-03 0.0000000e+00 
0.0000000e+00 -4.7840402e-03 0.0000000e+00 
0.0000000e+00 -4.8765088e-03 0.0000000e+00 
0.0000000e+00 -4.6848464e-03 0.0000000e+00 
0.0000000e+00 -4.6691466e-03 0.0000000e+00 
0.0000000e+00 -4.8688706e-03 0.0000000e+00 
0.0000000e+00 -4.8144995e-03 0.0000000e+00 
0.0000000e+00 -3.9542671e-03 0.0000000e+00 
0.0000000e+00 -2.7254566e-03 0.0000000e+00 
0.0000000e+00 -1.5972626e-03 0.0000000e+00 
0.0000000e+00 -7.5862918e-04 0.0000000e+00 
0.0000000e+00 -2.3449650e-04 0.0000000e+00 
0.0000000e+00 4.9685783e-05 0.0000000e+00 
0.0000000e+00 1.8414436e-04 0.0000000e+00 
0.0000000e+00 2.2670696e-04 0.0000000e+00 
0.0000000e+00 2.0639846e-04 0.0000000e+00 
0.0000000e+00 1.4772166e-04 0.0000000e+00 
0.0000000e+00 7.9496633e-05 0.0000000e+00 
0.0000000e+00 2.3631061e-05 0.0000000e+00 
0.0000000e+00 -1.3887092e-05 0.0000000e+00 
0.0000000e+00 -3.4557823e-05 0.0000000e+00 
0.0000000e+00 -4.0292154e-05 0.0000000e+00 
0.0000000e+00 -3.3414828e-05 0.0000000e+00 
0.0000000e+00 -1.7341774e-05 0.0000000e+00 
0.0000000e+00 1.0985480e-07 0.0000000e+00 
0.0000000e+00 1.1022762e-05 0.0000000e+00 
0.0000000e+00 1.3158136e-05 0.0000000e+00 
0.0000000e+00 9.7181610e-06 0.0000000e+00 
0.0000000e+00 5.5334167e-06 0.0000000e+00 
0.0000000e+00 2.8666618e-06 0.0000000e+00 
0.0000000e+00 1.1712824e-06 0.0000000e+00 
0.0000000e+00 -5.5715680e-07 0.0000000e+00 
0.0000000e+00 -2.1400624e-06 0.0000000e+00 
0.0000000e+00 -2.6982520e-06 0.0000000e+00 
0.0000000e+00 -2.0501482e-06 0.0000000e+00 
0.0000000e+00 -9.8184637e-07 0.0000000e+00 
0.0000000e+00 -4.4269603e-07 0.0000000e+00 
0.0000000e+00 -5.3469557e-07 0.0000000e+00 
0.0000000e+00 -5.7349052e-07 0.0000000e+00 
0.0000000e+00 -5.5809700e-08 0.0000000e+00 
0.0000000e+00 6.7651723e-07 0.0000000e+00 
0.0000000e+00 9.7411964e-07 0.0000000e+00 
0.0000000e+00 6.7410315e-07 0.0000000e+00 
0.0000000e+00 1.2460185e-07 0.0000000e+00 
0.0000000e+00 -2.3242129e-07 0.0000000e+00 
0.0000000e+00 -2.7719349e-07 0.0000000e+00 
0.0000000e+00 -2.3259146e-07 0.0000000e+00 
-1.0132851e-06 -1.8480898e-06 8.8908937e-06 
2.1697884e-05 2.9411018e-05 1.3877203e-04 
0.0000000e+00 0.0000000e+00 0.0000000e+00 
0.0000000e+00 0.0000000e+00 0.0000000e+00 
0.0000000e+00 0.0000000e+00 0.0000000e+00 
0.0000000e+00 0.0000000e+00 0.0000000e+00 
0.0000000e+00 0.0000000e+00 0.0000000e+00 
0.0000000e+00 0.0000000e+00 0.0000000e+00 
0.0000000e+00 0.0000000e+00 0.0000000e+00 
0.0000000e+00 0.0000000e+00 0.0000000e+00 
0.0000000e+00 0.0000000e+00 0.0000000e+00 
0.0000000e+00 0.0000000e+00 0.0000000e+00 
0.0000000e+00 0.0000000e+00 0.0000000e+00 
0.0000000e+00 0.0000000e+00 0.0000000e+00 
0.0000000e+00 0.0000000e+00 0.0000000e+00 
0.0000000e+00 0.0000000e+00 0.0000000e+00 
0.0000000e+00 0.0000000e+00 0.0000000e+00 
0.0000000e+00 0.0000000e+00 0.0000000e+00 
0.0000000e+00 0.0000000e+00 0.0000000e+00 
0.0000000e+00 0.0000000e+00 0.0000000e+00 
0.0000000e+00 0.0000000e+00 0.0000000e+00 
0.0000000e+00 0.0000000e+00 0.0000000e+00 
0.0000000e+00 0.0000000e+00 0.0000000e+00 
0.0000000e+00 0.0000000e+00 0.0000000e+00 
0.0000000e+00 0.0000000e+00 0.0000000e+00 
0.0000000e+00 0.0000000e+00 0.0000000e+00 
0.0000000e+00 0.0000000e+00 0.0000000e+00 
0.0000000e+00 0.0000000e+00 0.0000000e+00 
0.0000000e+00 0.0000000e+00 0.0000000e+00 
0.0000000e+00 0.0000000e+00 0.0000000e+00 
0.0000000e+00 0.0000000e+00 0.0000000e+00 
0.0000000e+00 0.0000000e+00 0.0000000e+00 
0.0000000e+00 0.0000000e+00 0.0000000e+00 
0.0000000e+00 0.0000000e+00 0.0000000e+00 
0.0000000e+00 0.0000000e+00 0.0000000e+00 
0.0000000e+00 0.0000000e+00 0.0000000e+00 
0.0000000e+00 0.0000000e+00 0.0000000e+00 
0.0000000e+00 0.0000000e+00 0.0000000e+00 
0.0000000e+00 0.0000000e+00 0.0000000e+00 
0.0000000e+00 0.0000000e+00 0.0000000e+00 
0.0000000e+00 0.0000000e+00 0.0000000e+00 
0.0000000e+00 0.0000000e+00 0.0000000e+00 
0.0000000e+00 0.0000000e+00 0.0000000e+00 
0.0000000e+00 0.0000000e+00 0.0000000e+00 
0.0000000e+00 0.0000000e+00 0.0000000e+00 
0.0000000e+00 0.0000000e+00 0.0000000e+00 
0.0000000e+00 0.0000000e+00 0.0000000e+00 
0.0000000e+00 0.0000000e+00 0.0000000e+00 
0.0000000e+00 0.0000000e+00 0.0000000e+00 
0.0000000e+00 0.0000000e+00 0.0000000e+00 
0.0000000e+00 0.0000000e+00 0.0000000e+00 
0.0000000e+00 0.0000000e+00 0.0000000e+00 
0.0000000e+00 0.0000000e+00 0.0000000e+00 
0.0000000e+00 0.0000000e+00 0.0000000e+00 
0.0000000e+00 0.0000000e+00 0.0000000e+00 
0.0000000e+00 0.0000000e+00 0.0000000e+00 
0.0000000e+00 0.0000000e+00 0.0000000e+00 
0.0000000e+00 0.0000000e+00 0.0000000e+00 
0.0000000e+00 0.0000000e+00 0.0000000e+00 
0.0000000e+00 0.0000000e+00 0.0000000e+00 
0.0000000e+00 0.0000000e+00 0.0000000e+00 
0.0000000e+00 0.0000000e+00 0.0000000e+00 
0.0000000e+00 0.0000000e+00 0.0000000e+00 
0.0000000e+00 0.0000000e+00 0.0000000e+00 
0.0000000e+00 0.0000000e+00 0.0000000e+00 
0.0000000e+00 0.0000000e+00 0.0000000e+00 
0.0000000e+00 0.0000000e+00 0.0000000e+00 
0.0000000e+00 0.0000000e+00 0.0000000e+00 
0.0000000e+00 0.0000000e+00 0.0000000e+00 
0.0000000e+00 0.0000000e+00 0.0000000e+00 
0.0000000e+00 0.0000000e+00 0.0000000e+00 
0.0000000e+00 0.0000000e+00 0.0000000e+00 
0.0000000e+00 0.0000000e+00 0.0000000e+00 
0.0000000e+00 0.0000000e+00 0.0000000e+00 
0.0000000e+00 0.0000000e+00 0.0000000e+00 
0.0000000e+00 0.0000000e+00 0.0000000e+00 
0.0000000e+00 0.0000000e+00 0.0000000e+00 
0.0000000e+00 0.0000000e+00 0.0000000e+00 
0.0000000e+00 0.0000000e+00 0.0000000e+00 
0.0000000e+00 0.0000000e+00 0.0000000e+00 
0.0000000e+00 0.0000000e+00 0.0000000e+00 
0.0000000e+00 0.0000000e+00 0.0000000e+00 
0.0000000e+00 0.0000000e+00 0.0000000e+00 
0.0000000e+00 0.0000000e+00 0.0000000e+00 
0.0000000e+00 0.0000000e+00 0.0000000e+00 
0.0000000e+00 0.0000000e+00 0.0000000e+00 
0.0000000e+00 0.0000000e+00 0.0000000e+00 
0.0000000e+00 0.0000000e+00 0.0000000e+00 
0.0000000e+00 0.0000000e+00 0.0000000e+00 
0.0000000e+00 0.0000000e+00 0.0000000e+00 
0.0000000e+00 0.0000000e+00 0.0000000e+00 
0.0000000e+00 0.0000000e+00 0.0000000e+00 
0.0000000e+00 0.0000000e+00 0.0000000e+00 
0.0000000e+00 0.0000000e+00 0.0000000e+00 
0.0000000e+00 0.0000000e+00 0.0000000e+00 
0.0000000e+00 0.0000000e+00 0.0000000e+00 
0.0000000e+00 0.0000000e+00 0.0000000e+00 
0.0000000e+00 0.0000000e+00 0.0000000e+00 
0.0000000e+00 0.0000000e+00 0.0000000e+00 
0.0000000e+00 0.0000000e+00 0.0000000e+00 
0.0000000e+00 0.0000000e+00 0.0000000e+00 
0.0000000e+00 0.0000000e+00 0.0000000e+00 
0.0000000e+00 0.0000000e+00 0.0000000e+00 
0.0000000e+00 0.0000000e+00 0.0000000e+00 
0.0000000e+00 0.0000000e+00 0.0000000e+00 
0.0000000e+00 0.0000000e+00 0.0000000e+00 
0.0000000e+00 0.0000000e+00 0.0000000e+00 
0.0000000e+00 0.0000000e+00 0.0000000e+00 
-5.7445450e-06 2.9463399e-06 -3.8605981e-06 
-9.4063289e-06 3.7176976e-06 -5.5174669e-06 
-1.2544443e-05 -4.6832520e-06 -6.4157152e-06 
-6.5374297e-06 -4.7827298e-06 -1.2272590e-05 
4.2386596e-06 -3.0948361e-06 -2.1374830e-05 
2.0244324e-05 -1.9032390e-05 -2.2671549e-05 
3.8567603e-05 -1.7186732e-05 -1.9709621e-05 
5.4158903e-05 -1.7299888e-05 -7.1250038e-06 
5.2026880e-05 -1.4671262e-05 -2.0918746e-06 
4.4212251e-05 -1.7934884e-05 -2.2571865e-07 
3.4405235e-05 -6.2489898e-06 8.5554825e-07 
1.1774499e-05 3.0185836e-06 1.0886733e-05 
5.1593556e-06 -2.7510982e-06 1.5778945e-05 
2.0720190e-06 -3.0351193e-06 5.9478793e-06 
-1.0735337e-06 4.9547248e-07 2.5503214e-06 
-2.0486677e-06 5.3800813e-06 4.0169671e-06 
-8.5477641e-06 -3.9901456e-06 7.0049650e-06 
-1.8603605e-05 -5.1653287e-06 9.4945999e-06 
-2.6051091e-05 5.5006026e-06 8.3352261e-06 
-2.8092332e-05 5.2682585e-06 3.6385127e-06 
-2.5782942e-05 4.8935185e-06 2.7219116e-06 
-2.6236426e-05 1.0105494e-05 -1.7067727e-07 
-2.0533053e-05 -3.3158628e-07 -1.0080259e-05 
-1.8539398e-05 -3.8936528e-06 -1.3630307e-05 
6.1084220e-06 -7.3893143e-06 -2.0330923e-05 
2.6191390e-05 -1.6373593e-05 -2.1240241e-05 
4.2197316e-05 -1.6060179e-05 -1.7808174e-05 
5.6830122e-05 -2.0006162e-05 -1.1725648e-05 
5.6355817e-05 -1.8871324e-05 -5.8089734e-07 
4.4937980e-05 -1.3144375e-05 1.0591459e-05 
2.6860998e-05 -7.2770808e-06 1.3151804e-05 
1.0655011e-05 -3.9682059e-06 1.0633510e-05 
4.0393152e-06 2.4355761e-06 7.7647555e-06 
1.0326474e-06 6.4239902e-07 3.5545272e-06 
1.0032933e-06 -1.6407142e-06 1.0301123e-06 
2.2208617e-06 6.0037246e-07 1.0831168e-06 
2.1903008e-06 7.5224904e-07 1.6565710e-06 
-4.8855007e-08 -6.1278382e-07 2.5855413e-06 
-6.4166841e-07 -1.0674605e-06 3.3502984e-06 
-2.9561187e-07 1.4602786e-07 2.0509849e-06 
1.1884567e-06 4.7219959e-08 7.2527860e-07 
6.1680822e-07 5.9962968e-09 2.2210308e-07 
-1.6558572e-07 -1.6146378e-08 -6.2552715e-07 
-3.5535680e-07 -3.1389348e-08 -5.8617672e-07 
-2.7722172e-07 1.0928003e-08 -5.2843035e-07 
-1.2940700e-07 5.7807814e-08 -1.7880201e-07 
9.6145584e-08 1.6874094e-07 2.2076733e-07 
1.2413180e-07 -3.0462331e-08 2.7536512e-07 
-3.2868542e-08 -1.3845555e-07 7.5566952e-08 
0.0000000e+00 6.1606836e-05 0.0000000e+00 
0.0000000e+00 1.2101263e-04 0.0000000e+00 
0.0000000e+00 1.6009086e-04 0.0000000e+00 
0.0000000e+00 1.4051118e-04 0.0000000e+00 
0.0000000e+00 8.7642919e-05 0.0000000e+00 
0.0000000e+00 -1.0284747e-04 0.0000000e+00 
0.0000000e+00 -4.0709772e-04 0.0000000e+00 
0.0000000e+00 -5.5836706e-04 0.0000000e+00 
0.0000000e+00 -6.2227267e-04 0.0000000e+00 
0.0000000e+00 -5.5288646e-04 0.0000000e+00 
0.0000000e+00 -3.3460933e-04 0.0000000e+00 
0.0000000e+00 -1.3414581e-04 0.0000000e+00 
0.0000000e+00 -2.6978048e-06 0.0000000e+00 
0.0000000e+00 1.7691002e-05 0.0000000e+00 
0.0000000e+00 8.5764077e-06 0.0000000e+00 
0.0000000e+00 -9.1626964e-07 0.0000000e+00 
0.0000000e+00 -2.6634266e-06 0.0000000e+00 
0.0000000e+00 1.7463091e-05 0.0000000e+00 
0.0000000e+00 7.5908065e-05 0.0000000e+00 
0.0000000e+00 1.2472007e-04 0.0000000e+00 
0.0000000e+00 1.5516575e-04 0.0000000e+00 
0.0000000e+00 1.8806553e-04 0.0000000e+00 
0.0000000e+00 2.0864056e-04 0.0000000e+00 
0.0000000e+00 1.9654229e-04 0.0000000e+00 
0.0000000e+00 1.0047017e-04 0.0000000e+00 
0.0000000e+00 -1.0748526e-04 0.0000000e+00 
0.0000000e+00 -3.7898257e-04 0.0000000e+00 
0.0000000e+00 -5.3672184e-04 0.0000000e+00 
0.0000000e+00 -6.0328026e-04 0.0000000e+00 
0.0000000e+00 -5.5169332e-04 0.0000000e+00 
0.0000000e+00 -3.4282534e-04 0.0000000e+00 
0.0000000e+00 -1.5665675e-04 0.0000000e+00 
0.0000000e+00 -2.0424141e-05 0.0000000e+00 
0.0000000e+00 4.8437560e-05 0.0000000e+00 
0.0000000e+00 3.5182944e-05 0.0000000e+00 
0.0000000e+00 1.1479291e-06 0.0000000e+00 
0.0000000e+00 -2.4050583e-05 0.0000000e+00 
0.0000000e+00 -1.1051366e-05 0.0000000e+00 
0.0000000e+00 4.1493699e-06 0.0000000e+00 
0.0000000e+00 6.9291277e-06 0.0000000e+00 
0.0000000e+00 3.3113333e-06 0.0000000e+00 
0.0000000e+00 4.3702272e-07 0.0000000e+00 
0.0000000e+00 -2.3052578e-06 0.0000000e+00 
0.0000000e+00 -1.5491129e-06 0.0000000e+00 
0.0000000e+00 8.7163926e-07 0.0000000e+00 
0.0000000e+00 9.2029654e-07 0.0000000e+00 
0.0000000e+00 -3.2252797e-07 0.0000000e+00 
0.0000000e+00 -1.3135922e-07 0.0000000e+00 
0.0000000e+00 1.6335003e-08 0.0000000e+00 
-7.3259612e-06 6.5281019e-06 -3.5895987e-06 
-6.9677562e-06 2.1625776e-06 2.9201790e-06 
-8.9741961e-06 1.0525086e-07 7.8937478e-07 
-5.9731547e-06 1.9543182e-05 9.5502028e-06 
-9.3794895e-08 -3.6531461e-08 -2.0771836e-08 
-3.8022872e-08 -3.6162234e-08 -1.3445221e-08 
-1.1689054e-08 -2.2696822e-08 7.1993981e-08 
-8.5125954e-08 -5.4054002e-08 1.2766348e-07 
-4.1980252e-06 9.4575938e-07 -1.0579384e-05 
-4.1418216e-06 4.0258747e-06 -9.7065849e-06 
2.3667214e-06 2.5852606e-07 -9.0838612e-06 
6.4054584e-06 -1.2643824e-06 -1.2373825e-05 
1.2437505e-05 -6.1187079e-06 -1.7163391e-05 
3.1267147e-05 -2.3415392e-05 -2.2242213e-05 
5.7026842e-05 -2.1576523e-05 -1.2109104e-05 
4.9545029e-05 -1.6228738e-05 -3.3559754e-06 
4.4265304e-05 -1.3269982e-05 -2.2332226e-06 
3.7958620e-05 -1.1612321e-05 -3.0005069e-06 
3.2042270e-05 1.6025590e-06 -5.7348134e-06 
1.5297093e-05 4.7777439e-06 3.0107249e-06 
3.1944535e-06 -5.2462207e-07 1.0284812e-05 
-3.1546435e-06 -3.5311518e-06 8.0785358e-06 
-2.2885004e-06 -7.4433444e-07 1.8077476e-06 
-2.3536022e-07 2.0966036e-06 5.9630725e-07 
-4.9305186e-06 -3.0070814e-06 6.2801582e-06 
-1.7447750e-05 -5.4008647e-06 1.0913051e-05 
-1.9084997e-05 8.6381724e-06 4.7737917e-06 
-1.8566257e-05 2.4926187e-06 -3.6110339e-06 