# vtk DataFile Version 4.0
vtk output
ASCII
DATASET UNSTRUCTURED_GRID
POINTS 1919 float
0.0000000e+00 0.0000000e+00 0.0000000e+00 
0.0000000e+00 0.0000000e+00 5.0000000e+01 
5.0000000e+00 0.0000000e+00 0.0000000e+00 
5.0000000e+00 0.0000000e+00 5.0000000e+01 
5.0000000e+00 1.0000000e+00 0.0000000e+00 
5.0000000e+00 1.0000000e+00 5.0000000e+01 
0.0000000e+00 1.0000000e+00 0.0000000e+00 
0.0000000e+00 1.0000000e+00 5.0000000e+01 
5.0000000e+00 2.0000000e+00 0.0000000e+00 
5.0000000e+00 2.0000000e+00 5.0000000e+01 
3.0000000e+00 2.0000000e+00 0.0000000e+00 
3.0000000e+00 2.0000000e+00 5.0000000e+01 
0.0000000e+00 2.0000000e+00 0.0000000e+00 
0.0000000e+00 2.0000000e+00 5.0000000e+01 
1.5000000e+00 3.0000000e+00 0.0000000e+00 
1.5000000e+00 3.0000000e+00 5.0000000e+01 
7.5000000e-01 3.0000000e+00 0.0000000e+00 
7.5000000e-01 3.0000000e+00 5.0000000e+01 
0.0000000e+00 3.0000000e+00 0.0000000e+00 
0.0000000e+00 3.0000000e+00 5.0000000e+01 
7.5000000e-01 3.0000000e+00 5.0000000e-01 
7.5000000e-01 3.0000000e+00 1.0000000e+00 
7.5000000e-01 3.0000000e+00 1.5000000e+00 
7.5000000e-01 3.0000000e+00 2.0000000e+00 
7.5000000e-01 3.0000000e+00 2.5000000e+00 
7.5000000e-01 3.0000000e+00 3.0000000e+00 
7.5000000e-01 3.0000000e+00 3.5000000e+00 
7.5000000e-01 3.0000000e+00 4.0000000e+00 
7.5000000e-01 3.0000000e+00 4.5000000e+00 
7.5000000e-01 3.0000000e+00 5.0000000e+00 
7.5000000e-01 3.0000000e+00 5.5000000e+00 
7.5000000e-01 3.0000000e+00 6.0000000e+00 
7.5000000e-01 3.0000000e+00 6.5000000e+00 
7.5000000e-01 3.0000000e+00 7.0000000e+00 
7.5000000e-01 3.0000000e+00 7.5000000e+00 
7.5000000e-01 3.0000000e+00 8.0000000e+00 
7.5000000e-01 3.0000000e+00 8.5000000e+00 
7.5000000e-01 3.0000000e+00 9.0000000e+00 
7.5000000e-01 3.0000000e+00 9.5000000e+00 
7.5000000e-01 3.0000000e+00 1.0000000e+01 
7.5000000e-01 3.0000000e+00 1.0500000e+01 
7.5000000e-01 3.0000000e+00 1.1000000e+01 
7.5000000e-01 3.0000000e+00 1.1500000e+01 
7.5000000e-01 3.0000000e+00 1.2000000e+01 
7.5000000e-01 3.0000000e+00 1.2500000e+01 
7.5000000e-01 3.0000000e+00 1.3000000e+01 
7.5000000e-01 3.0000000e+00 1.3500000e+01 
7.5000000e-01 3.0000000e+00 1.4000000e+01 
7.5000000e-01 3.0000000e+00 1.4500000e+01 
7.5000000e-01 3.0000000e+00 1.5000000e+01 
7.5000000e-01 3.0000000e+00 1.5500000e+01 
7.5000000e-01 3.0000000e+00 1.6000000e+01 
7.5000000e-01 3.0000000e+00 1.6500000e+01 
7.5000000e-01 3.0000000e+00 1.7000000e+01 
7.5000000e-01 3.0000000e+00 1.7500000e+01 
7.5000000e-01 3.0000000e+00 1.8000000e+01 
7.5000000e-01 3.0000000e+00 1.8500000e+01 
7.5000000e-01 3.0000000e+00 1.9000000e+01 
7.5000000e-01 3.0000000e+00 1.9500000e+01 
7.5000000e-01 3.0000000e+00 2.0000000e+01 
7.5000000e-01 3.0000000e+00 2.0500000e+01 
7.5000000e-01 3.0000000e+00 2.1000000e+01 
7.5000000e-01 3.0000000e+00 2.1500000e+01 
7.5000000e-01 3.0000000e+00 2.2000000e+01 
7.5000000e-01 3.0000000e+00 2.2500000e+01 
7.5000000e-01 3.0000000e+00 2.3000000e+01 
7.5000000e-01 3.0000000e+00 2.3500000e+01 
7.5000000e-01 3.0000000e+00 2.4000000e+01 
7.5000000e-01 3.0000000e+00 2.4500000e+01 
7.5000000e-01 3.0000000e+00 2.5000000e+01 
7.5000000e-01 3.0000000e+00 2.5500000e+01 
7.5000000e-01 3.0000000e+00 2.6000000e+01 
7.5000000e-01 3.0000000e+00 2.6500000e+01 
7.5000000e-01 3.0000000e+00 2.7000000e+01 
7.5000000e-01 3.0000000e+00 2.7500000e+01 
7.5000000e-01 3.0000000e+00 2.8000000e+01 
7.5000000e-01 3.0000000e+00 2.8500000e+01 
7.5000000e-01 3.0000000e+00 2.9000000e+01 
7.5000000e-01 3.0000000e+00 2.9500000e+01 
7.5000000e-01 3.0000000e+00 3.0000000e+01 
7.5000000e-01 3.0000000e+00 3.0500000e+01 
7.5000000e-01 3.0000000e+00 3.1000000e+01 
7.5000000e-01 3.0000000e+00 3.1500000e+01 
7.5000000e-01 3.0000000e+00 3.2000000e+01 
7.5000000e-01 3.0000000e+00 3.2500000e+01 
7.5000000e-01 3.0000000e+00 3.3000000e+01 
7.5000000e-01 3.0000000e+00 3.3500000e+01 
7.5000000e-01 3.0000000e+00 3.4000000e+01 
7.5000000e-01 3.0000000e+00 3.4500000e+01 
7.5000000e-01 3.0000000e+00 3.5000000e+01 
7.5000000e-01 3.0000000e+00 3.5500000e+01 
7.5000000e-01 3.0000000e+00 3.6000000e+01 
7.5000000e-01 3.0000000e+00 3.6500000e+01 
7.5000000e-01 3.0000000e+00 3.7000000e+01 
7.5000000e-01 3.0000000e+00 3.7500000e+01 
7.5000000e-01 3.0000000e+00 3.8000000e+01 
7.5000000e-01 3.0000000e+00 3.8500000e+01 
7.5000000e-01 3.0000000e+00 3.9000000e+01 
7.5000000e-01 3.0000000e+00 3.9500000e+01 
7.5000000e-01 3.0000000e+00 4.0000000e+01 
7.5000000e-01 3.0000000e+00 4.0500000e+01 
7.5000000e-01 3.0000000e+00 4.1000000e+01 
7.5000000e-01 3.0000000e+00 4.1500000e+01 
7.5000000e-01 3.0000000e+00 4.2000000e+01 
7.5000000e-01 3.0000000e+00 4.2500000e+01 
7.5000000e-01 3.0000000e+00 4.3000000e+01 
7.5000000e-01 3.0000000e+00 4.3500000e+01 
7.5000000e-01 3.0000000e+00 4.4000000e+01 
7.5000000e-01 3.0000000e+00 4.4500000e+01 
7.5000000e-01 3.0000000e+00 4.5000000e+01 
7.5000000e-01 3.0000000e+00 4.5500000e+01 
7.5000000e-01 3.0000000e+00 4.6000000e+01 
7.5000000e-01 3.0000000e+00 4.6500000e+01 
7.5000000e-01 3.0000000e+00 4.7000000e+01 
7.5000000e-01 3.0000000e+00 4.7500000e+01 
7.5000000e-01 3.0000000e+00 4.8000000e+01 
7.5000000e-01 3.0000000e+00 4.8500000e+01 
7.5000000e-01 3.0000000e+00 4.9000000e+01 
7.5000000e-01 3.0000000e+00 4.9500000e+01 
7.5000000e-01 3.0250001e+00 0.0000000e+00 
7.5000000e-01 3.0250001e+00 5.0000000e-01 
7.5000000e-01 3.0250001e+00 1.0000000e+00 
7.5000000e-01 3.0250001e+00 1.5000000e+00 
7.5000000e-01 3.0250001e+00 2.0000000e+00 
7.5000000e-01 3.0250001e+00 2.5000000e+00 
7.5000000e-01 3.0250001e+00 3.0000000e+00 
7.5000000e-01 3.0250001e+00 3.5000000e+00 
7.5000000e-01 3.0250001e+00 4.0000000e+00 
7.5000000e-01 3.0250001e+00 4.5000000e+00 
7.5000000e-01 3.0250001e+00 5.0000000e+00 
7.5000000e-01 3.0250001e+00 5.5000000e+00 
7.5000000e-01 3.0250001e+00 6.0000000e+00 
7.5000000e-01 3.0250001e+00 6.5000000e+00 
7.5000000e-01 3.0250001e+00 7.0000000e+00 
7.5000000e-01 3.0250001e+00 7.5000000e+00 
7.5000000e-01 3.0250001e+00 8.0000000e+00 
7.5000000e-01 3.0250001e+00 8.5000000e+00 
7.5000000e-01 3.0250001e+00 9.0000000e+00 
7.5000000e-01 3.0250001e+00 9.5000000e+00 
7.5000000e-01 3.0250001e+00 1.0000000e+01 
7.5000000e-01 3.0250001e+00 1.0500000e+01 
7.5000000e-01 3.0250001e+00 1.1000000e+01 
7.5000000e-01 3.0250001e+00 1.1500000e+01 
7.5000000e-01 3.0250001e+00 1.2000000e+01 
7.5000000e-01 3.0250001e+00 1.2500000e+01 
7.5000000e-01 3.0250001e+00 1.3000000e+01 
7.5000000e-01 3.0250001e+00 1.3500000e+01 
7.5000000e-01 3.0250001e+00 1.4000000e+01 
7.5000000e-01 3.0250001e+00 1.4500000e+01 
7.5000000e-01 3.0250001e+00 1.5000000e+01 
7.5000000e-01 3.0250001e+00 1.5500000e+01 
7.5000000e-01 3.0250001e+00 1.6000000e+01 
7.5000000e-01 3.0250001e+00 1.6500000e+01 
7.5000000e-01 3.0250001e+00 1.7000000e+01 
7.5000000e-01 3.0250001e+00 1.7500000e+01 
7.5000000e-01 3.0250001e+00 1.8000000e+01 
7.5000000e-01 3.0250001e+00 1.8500000e+01 
7.5000000e-01 3.0250001e+00 1.9000000e+01 
7.5000000e-01 3.0250001e+00 1.9500000e+01 
7.5000000e-01 3.0250001e+00 2.0000000e+01 
7.5000000e-01 3.0250001e+00 2.0500000e+01 
7.5000000e-01 3.0250001e+00 2.1000000e+01 
7.5000000e-01 3.0250001e+00 2.1500000e+01 
7.5000000e-01 3.0250001e+00 2.2000000e+01 
7.5000000e-01 3.0250001e+00 2.2500000e+01 
7.5000000e-01 3.0250001e+00 2.3000000e+01 
7.5000000e-01 3.0250001e+00 2.3500000e+01 
7.5000000e-01 3.0250001e+00 2.4000000e+01 
7.5000000e-01 3.0250001e+00 2.4500000e+01 
7.5000000e-01 3.0250001e+00 2.5000000e+01 
7.5000000e-01 3.0250001e+00 2.5500000e+01 
7.5000000e-01 3.0250001e+00 2.6000000e+01 
7.5000000e-01 3.0250001e+00 2.6500000e+01 
7.5000000e-01 3.0250001e+00 2.7000000e+01 
7.5000000e-01 3.0250001e+00 2.7500000e+01 
7.5000000e-01 3.0250001e+00 2.8000000e+01 
7.5000000e-01 3.0250001e+00 2.8500000e+01 
7.5000000e-01 3.0250001e+00 2.9000000e+01 
7.5000000e-01 3.0250001e+00 2.9500000e+01 
7.5000000e-01 3.0250001e+00 3.0000000e+01 
7.5000000e-01 3.0250001e+00 3.0500000e+01 
7.5000000e-01 3.0250001e+00 3.1000000e+01 
7.5000000e-01 3.0250001e+00 3.1500000e+01 
7.5000000e-01 3.0250001e+00 3.2000000e+01 
7.5000000e-01 3.0250001e+00 3.2500000e+01 
7.5000000e-01 3.0250001e+00 3.3000000e+01 
7.5000000e-01 3.0250001e+00 3.3500000e+01 
7.5000000e-01 3.0250001e+00 3.4000000e+01 
7.5000000e-01 3.0250001e+00 3.4500000e+01 
7.5000000e-01 3.0250001e+00 3.5000000e+01 
7.5000000e-01 3.0250001e+00 3.5500000e+01 
7.5000000e-01 3.0250001e+00 3.6000000e+01 
7.5000000e-01 3.0250001e+00 3.6500000e+01 
7.5000000e-01 3.0250001e+00 3.7000000e+01 
7.5000000e-01 3.0250001e+00 3.7500000e+01 
7.5000000e-01 3.0250001e+00 3.8000000e+01 
7.5000000e-01 3.0250001e+00 3.8500000e+01 
7.5000000e-01 3.0250001e+00 3.9000000e+01 
7.5000000e-01 3.0250001e+00 3.9500000e+01 
7.5000000e-01 3.0250001e+00 4.0000000e+01 
7.5000000e-01 3.0250001e+00 4.0500000e+01 
7.5000000e-01 3.0250001e+00 4.1000000e+01 
7.5000000e-01 3.0250001e+00 4.1500000e+01 
7.5000000e-01 3.0250001e+00 4.2000000e+01 
7.5000000e-01 3.0250001e+00 4.2500000e+01 
7.5000000e-01 3.0250001e+00 4.3000000e+01 
7.5000000e-01 3.0250001e+00 4.3500000e+01 
7.5000000e-01 3.0250001e+00 4.4000000e+01 
7.5000000e-01 3.0250001e+00 4.4500000e+01 
7.5000000e-01 3.0250001e+00 4.5000000e+01 
7.5000000e-01 3.0250001e+00 4.5500000e+01 
7.5000000e-01 3.0250001e+00 4.6000000e+01 
7.5000000e-01 3.0250001e+00 4.6500000e+01 
7.5000000e-01 3.0250001e+00 4.7000000e+01 
7.5000000e-01 3.0250001e+00 4.7500000e+01 
7.5000000e-01 3.0250001e+00 4.8000000e+01 
7.5000000e-01 3.0250001e+00 4.8500000e+01 
7.5000000e-01 3.0250001e+00 4.9000000e+01 
7.5000000e-01 3.0250001e+00 4.9500000e+01 
7.5000000e-01 3.0250001e+00 5.0000000e+01 
3.0000000e+00 2.0000000e+00 3.6000000e+01 
8.0487806e-01 3.0000000e+00 3.6000000e+01 
0.0000000e+00 0.0000000e+00 1.0000000e+00 
0.0000000e+00 0.0000000e+00 2.0000000e+00 
0.0000000e+00 0.0000000e+00 3.0000000e+00 
0.0000000e+00 0.0000000e+00 4.0000000e+00 
0.0000000e+00 0.0000000e+00 5.0000000e+00 
0.0000000e+00 0.0000000e+00 6.0000000e+00 
0.0000000e+00 0.0000000e+00 7.0000000e+00 
0.0000000e+00 0.0000000e+00 8.0000000e+00 
[...]
POINT_DATA 1919
FIELD FieldData 3
DISPLACEMENT 3 1919  float
0.0000000e+00 0.0000000e+00 0.0000000e+00 
0.0000000e+00 0.0000000e+00 0.0000000e+00 
0.0000000e+00 0.0000000e+00 0.0000000e+00 
0.0000000e+00 0.0000000e+00 0.0000000e+00 
-3.1525406e-06 -4.3080577e-06 -2.1743331e-06 
2.3149978e-07 -3.4681682e-07 6.6871189e-07 
0.0000000e+00 2.5091065e-05 0.0000000e+00 
0.0000000e+00 9.2077732e-07 0.0000000e+00 
1.5971663e-06 -4.4378262e-06 -4.3452992e-06 
4.4215167e-07 -2.6650088e-08 9.8326382e-07 
2.9633791e-06 -4.0871096e-06 -4.1048365e-06 
-1.3862752e-08 -6.8086916e-07 2.3526316e-06 
0.0000000e+00 3.5669695e-05 0.0000000e+00 
0.0000000e+00 1.8935826e-06 0.0000000e+00 
2.0292049e-05 1.5311663e-05 -5.1154533e-05 
-8.8637830e-07 5.3194731e-07 2.1064568e-06 
1.8880426e-05 8.9510511e-05 -4.1442741e-05 
3.1494083e-06 1.2876999e-05 -1.0842278e-06 
0.0000000e+00 5.5228909e-05 0.0000000e+00 
0.0000000e+00 2.2533959e-06 0.0000000e+00 
2.4959019e-05 9.3930255e-05 -2.2135826e-05 
3.2892061e-05 1.0482769e-04 -1.3665245e-05 
3.5940287e-05 1.1890753e-04 -1.3625896e-05 
3.9539711e-05 1.3654190e-04 -7.4119016e-06 
3.9808943e-05 1.5747070e-04 -2.5315151e-07 
4.3681550e-05 1.7996968e-04 1.5136461e-05 
4.7421145e-05 1.9782827e-04 3.0913940e-05 
3.6222998e-05 2.0121473e-04 3.0037580e-05 
2.7501297e-05 1.9115413e-04 2.0820164e-05 
4.0462379e-05 1.8274673e-04 9.0612739e-06 
3.6165326e-05 1.9817823e-04 4.8351048e-06 
3.0783594e-05 2.5298554e-04 8.1896928e-07 
6.4444343e-05 3.3175931e-04 1.1078750e-05 
6.8212372e-05 3.9031645e-04 3.1820549e-05 
5.7967489e-05 3.9277429e-04 4.6107773e-05 
7.1385992e-05 3.1734689e-04 7.5697433e-05 
3.9498209e-05 1.4738605e-04 1.4767032e-04 
-1.5753255e-06 -1.5400226e-04 1.8070127e-04 
-4.3609201e-05 -6.7614554e-04 3.2465687e-04 
-1.1618095e-04 -1.5144959e-03 2.5878521e-04 
-1.7602314e-04 -2.7022911e-03 3.7161069e-04 
-2.9034892e-04 -4.0556658e-03 1.6539909e-04 
-3.5846539e-04 -5.0894753e-03 1.5855437e-04 
-3.9369040e-04 -5.1727486e-03 3.2715165e-05 
-3.4562504e-04 -4.8810891e-03 -5.6711277e-05 
-2.6907882e-04 -4.7096582e-03 -7.1023285e-05 
-2.5386974e-04 -4.8129219e-03 -7.1620263e-05 
-2.7029909e-04 -4.7382549e-03 -1.3681040e-04 
-2.4969756e-04 -3.9202790e-03 -2.7510326e-04 
-1.8919316e-04 -2.7201746e-03 -2.2439136e-04 
-1.2109924e-04 -1.5943383e-03 -3.1820012e-04 
-6.7498622e-05 -7.2961021e-04 -1.9673584e-04 
-1.3061079e-05 -1.8039015e-04 -1.9568558e-04 
-2.3184648e-06 1.0341350e-04 -1.1052159e-04 
2.0003179e-05 2.0623751e-04 -6.4181288e-05 
2.0719694e-05 2.0648839e-04 -3.1575477e-05 
9.4235947e-06 1.6019381e-04 -2.0873318e-05 
2.8199549e-05 9.6776479e-05 -4.1766754e-05 
3.5812194e-05 3.7668364e-05 -4.3351956e-05 
4.7869380e-05 1.2698132e-06 -2.2579925e-05 
4.6558253e-05 -4.9460941e-06 2.4979790e-05 
3.5581597e-05 8.8330416e-06 4.1911466e-05 
1.7165976e-05 2.9664689e-05 1.7695043e-05 
2.6571115e-05 5.3199194e-05 -1.2377028e-05 
1.1162643e-05 8.8575012e-05 -6.2371641e-05 
2.9118941e-05 1.4639576e-04 -8.0976635e-05 
3.0400455e-05 2.1834452e-04 -8.0913189e-05 
3.7802027e-05 2.7943845e-04 -5.8851787e-05 
4.0261089e-05 3.0848270e-04 -4.8673704e-05 
4.9755658e-05 3.0413838e-04 -2.2460039e-05 
6.2002102e-05 2.8974007e-04 -2.6826678e-05 
7.1244096e-05 3.0504179e-04 -7.6880897e-06 
6.5858680e-05 3.6560145e-04 2.1798129e-05 
6.2106228e-05 4.4177810e-04 4.5106637e-05 
5.4997654e-05 4.6905069e-04 9.0189169e-05 
4.8354512e-05 3.7765046e-04 1.3211761e-04 
3.3204302e-05 1.3513865e-04 2.0317512e-04 
3.7813431e-06 -2.7376282e-04 2.2938433e-04 
-4.3499113e-05 -8.9017954e-04 3.4948619e-04 
-1.3417432e-04 -1.7568188e-03 2.7232262e-04 
-1.8243553e-04 -2.9040498e-03 4.0550611e-04 
-2.7660164e-04 -4.1558323e-03 2.2029814e-04 
-3.1458703e-04 -5.0735096e-03 1.8955575e-04 
-3.4329234e-04 -5.1000752e-03 9.4706404e-05 
-3.5334591e-04 -4.8358855e-03 1.4957565e-05 
-3.6378601e-04 -4.7138971e-03 -3.8426559e-05 
-3.5723430e-04 -4.8340647e-03 -8.4974432e-05 
-3.3417947e-04 -4.7153053e-03 -1.5588701e-04 
-2.9905484e-04 -3.8474503e-03 -3.3311974e-04 
-2.0185847e-05 -2.6242207e-03 -4.9614348e-04 
-9.2865033e-05 -1.4777614e-03 -3.5614145e-04 
-6.1925450e-05 -6.3509151e-04 -2.6352785e-04 
-2.0495401e-05 -1.2091860e-04 -2.5934540e-04 
1.7234990e-05 1.3563075e-04 -1.6103266e-04 
4.3820601e-05 2.2369409e-04 -9.6153635e-05 
4.5816414e-05 2.1096927e-04 -2.8580098e-05 
4.3090229e-05 1.4371317e-04 2.0583682e-05 
2.2381337e-05 5.9709746e-05 3.2681164e-05 
9.2322553e-06 -9.6358399e-06 4.8037364e-05 
5.4440843e-06 -5.0585884e-05 5.4164313e-05 
-1.9749355e-06 -6.3937870e-05 6.5304019e-05 
-2.1683120e-06 -5.8498917e-05 5.8536145e-05 
-1.4305188e-05 -4.1037751e-05 2.9968644e-05 
-1.7769471e-05 -1.6171069e-05 5.2760493e-06 
-7.8517833e-06 1.2207123e-05 -2.1238806e-05 
-1.2942432e-06 3.5898756e-05 -3.0144478e-05 
2.1798196e-06 4.6788427e-05 -2.5725454e-05 
-4.1262166e-07 4.2736800e-05 -1.1159364e-05 
4.2543211e-06 2.8125125e-05 6.0091124e-06 
1.8177154e-06 1.0206098e-05 8.3609848e-06 
3.3746530e-06 -5.1525067e-06 9.8128457e-06 
2.7059777e-06 -1.5664224e-05 4.4990456e-06 
1.8967289e-06 -2.0649957e-05 8.2287210e-07 
3.7134626e-07 -2.0331991e-05 -1.4350228e-06 
-1.9562854e-06 -1.5104584e-05 -1.8595856e-06 
-2.1173389e-06 -6.8607978e-06 -1.4323682e-07 
-3.8398935e-06 1.6562290e-06 -5.5991745e-07 
-3.3989099e-06 8.1520047e-06 -7.1775850e-07 
-1.5105799e-06 1.1770801e-05 -7.2882665e-07 
0.0000000e+00 9.0031899e-05 0.0000000e+00 
0.0000000e+00 9.4148119e-05 0.0000000e+00 
0.0000000e+00 1.0444765e-04 0.0000000e+00 
0.0000000e+00 1.1852616e-04 0.0000000e+00 
0.0000000e+00 1.3634951e-04 0.0000000e+00 
0.0000000e+00 1.5790877e-04 0.0000000e+00 
0.0000000e+00 1.8071539e-04 0.0000000e+00 
0.0000000e+00 1.9771911e-04 0.0000000e+00 
0.0000000e+00 2.0051269e-04 0.0000000e+00 
0.0000000e+00 1.9041386e-04 0.0000000e+00 
0.0000000e+00 1.8260599e-04 0.0000000e+00 
0.0000000e+00 1.9967706e-04 0.0000000e+00 
0.0000000e+00 2.5499990e-04 0.0000000e+00 
0.0000000e+00 3.3223775e-04 0.0000000e+00 
0.0000000e+00 3.9001519e-04 0.0000000e+00 
0.0000000e+00 3.9209778e-04 0.0000000e+00 
0.0000000e+00 3.1777794e-04 0.0000000e+00 
0.0000000e+00 1.4981191e-04 0.0000000e+00 
0.0000000e+00 -1.5332838e-04 0.0000000e+00 
0.0000000e+00 -6.7849591e-04 0.0000000e+00 
0.0000000e+00 -1.5243707e-03 0.0000000e+00 
0.0000000e+00 -2.7184857e-03 0.0000000e+00 
0.0000000e+00 -4.0841750e-03 0.0000000e+00 
0.0000000e+00 -5.1087956e-03 0.0000000e+00 
0.0000000e+00 -5.1991772e-03 0.0000000e+00 
0.0000000e+00 -4.8996867e-03 0.0000000e+00 
0.0000000e+00 -4.7402619e-03 0.0000000e+00 
0.0000000e+00 -4.8390343e-03 0.0000000e+00 
0.0000000e+00 -4.7672573e-03 0.0000000e+00 
0.0000000e+00 -3.9374190e-03 0.0000000e+00 
0.0000000e+00 -2.7347845e-03 0.0000000e+00 
0.0000000e+00 -1.6015783e-03 0.0000000e+00 
0.0000000e+00 -7.3462754e-04 0.0000000e+00 
0.0000000e+00 -1.8148086e-04 0.0000000e+00 
0.0000000e+00 1.0452921e-04 0.0000000e+00 
0.0000000e+00 2.0771696e-04 0.0000000e+00 
0.0000000e+00 2.0770017e-04 0.0000000e+00 
0.0000000e+00 1.6038383e-04 0.0000000e+00 
0.0000000e+00 9.6908516e-05 0.0000000e+00 
0.0000000e+00 3.8383947e-05 0.0000000e+00 
0.0000000e+00 2.3337113e-06 0.0000000e+00 
0.0000000e+00 -4.5918850e-06 0.0000000e+00 
0.0000000e+00 8.5572392e-06 0.0000000e+00 
0.0000000e+00 2.8968498e-05 0.0000000e+00 
0.0000000e+00 5.3011758e-05 0.0000000e+00 
0.0000000e+00 8.9487985e-05 0.0000000e+00 
0.0000000e+00 1.4737043e-04 0.0000000e+00 
0.0000000e+00 2.1851023e-04 0.0000000e+00 
0.0000000e+00 2.7879636e-04 0.0000000e+00 
0.0000000e+00 3.0739600e-04 0.0000000e+00 
0.0000000e+00 3.0326378e-04 0.0000000e+00 
0.0000000e+00 2.9058009e-04 0.0000000e+00 
0.0000000e+00 3.0706215e-04 0.0000000e+00 
0.0000000e+00 3.6786866e-04 0.0000000e+00 
0.0000000e+00 4.4291260e-04 0.0000000e+00 
0.0000000e+00 4.6768988e-04 0.0000000e+00 
0.0000000e+00 3.7655653e-04 0.0000000e+00 
0.0000000e+00 1.3552319e-04 0.0000000e+00 
0.0000000e+00 -2.7410034e-04 0.0000000e+00 
0.0000000e+00 -8.9071598e-04 0.0000000e+00 
0.0000000e+00 -1.7665398e-03 0.0000000e+00 
0.0000000e+00 -2.9184229e-03 0.0000000e+00 
0.0000000e+00 -4.1842251e-03 0.0000000e+00 
0.0000000e+00 -5.0954372e-03 0.0000000e+00 
0.0000000e+00 -5.1292875e-03 0.0000000e+00 
0.0000000e+00 -4.8539438e-03 0.0000000e+00 
0.0000000e+00 -4.7430666e-03 0.0000000e+00 
0.0000000e+00 -4.8569995e-03 0.0000000e+00 
0.0000000e+00 -4.7455551e-03 0.0000000e+00 
0.0000000e+00 -3.8655358e-03 0.0000000e+00 
0.0000000e+00 -2.6347928e-03 0.0000000e+00 
0.0000000e+00 -1.4876787e-03 0.0000000e+00 
0.0000000e+00 -6.3915114e-04 0.0000000e+00 
0.0000000e+00 -1.2106844e-04 0.0000000e+00 
0.0000000e+00 1.3679449e-04 0.0000000e+00 
0.0000000e+00 2.2462299e-04 0.0000000e+00 
0.0000000e+00 2.1143942e-04 0.0000000e+00 
0.0000000e+00 1.4428212e-04 0.0000000e+00 
0.0000000e+00 6.0767772e-05 0.0000000e+00 
0.0000000e+00 -8.9862742e-06 0.0000000e+00 
0.0000000e+00 -5.0403662e-05 0.0000000e+00 
0.0000000e+00 -6.4127598e-05 0.0000000e+00 
0.0000000e+00 -5.8549314e-05 0.0000000e+00 
0.0000000e+00 -4.0988099e-05 0.0000000e+00 
0.0000000e+00 -1.5951615e-05 0.0000000e+00 
0.0000000e+00 1.2148830e-05 0.0000000e+00 
0.0000000e+00 3.5543002e-05 0.0000000e+00 
0.0000000e+00 4.6483845e-05 0.0000000e+00 
0.0000000e+00 4.2658394e-05 0.0000000e+00 
0.0000000e+00 2.8237151e-05 0.0000000e+00 
0.0000000e+00 1.0370885e-05 0.0000000e+00 
0.0000000e+00 -5.0992489e-06 0.0000000e+00 
0.0000000e+00 -1.5625368e-05 0.0000000e+00 
0.0000000e+00 -2.0626076e-05 0.0000000e+00 
0.0000000e+00 -2.0253930e-05 0.0000000e+00 
0.0000000e+00 -1.5080574e-05 0.0000000e+00 
0.0000000e+00 -6.9098660e-06 0.0000000e+00 
0.0000000e+00 1.5766017e-06 0.0000000e+00 
0.0000000e+00 8.1010785e-06 0.0000000e+00 
0.0000000e+00 1.1785664e-05 0.0000000e+00 
0.0000000e+00 1.2907959e-05 0.0000000e+00 
1.5863241e-05 -1.8754816e-05 -2.8392667e-05 
-6.5458822e-05 -5.8725273e-04 -2.7618514e-04 
0.0000000e+00 0.0000000e+00 0.0000000e+00 
0.0000000e+00 0.0000000e+00 0.0000000e+00 
0.0000000e+00 0.0000000e+00 0.0000000e+00 
0.0000000e+00 0.0000000e+00 0.0000000e+00 
0.0000000e+00 0.0000000e+00 0.0000000e+00 
0.0000000e+00 0.0000000e+00 0.0000000e+00 
0.0000000e+00 0.0000000e+00 0.0000000e+00 
0.0000000e+00 0.0000000e+00 0.0000000e+00 
0.0000000e+00 0.0000000e+00 0.0000000e+00 
0.0000000e+00 0.0000000e+00 0.0000000e+00 
0.0000000e+00 0.0000000e+00 0.0000000e+00 
0.0000000e+00 0.0000000e+00 0.0000000e+00 
0.0000000e+00 0.0000000e+00 0.0000000e+00 
0.0000000e+00 0.0000000e+00 0.0000000e+00 
0.0000000e+00 0.0000000e+00 0.0000000e+00 
0.0000000e+00 0.0000000e+00 0.0000000e+00 
0.0000000e+00 0.0000000e+00 0.0000000e+00 
0.0000000e+00 0.0000000e+00 0.0000000e+00 
0.0000000e+00 0.0000000e+00 0.0000000e+00 
0.0000000e+00 0.0000000e+00 0.0000000e+00 
0.0000000e+00 0.0000000e+00 0.0000000e+00 
0.0000000e+00 0.0000000e+00 0.0000000e+00 
0.0000000e+00 0.0000000e+00 0.0000000e+00 
0.0000000e+00 0.0000000e+00 0.0000000e+00 
0.0000000e+00 0.0000000e+00 0.0000000e+00 
0.0000000e+00 0.0000000e+00 0.0000000e+00 
0.0000000e+00 0.0000000e+00 0.0000000e+00 
0.0000000e+00 0.0000000e+00 0.0000000e+00 
0.0000000e+00 0.0000000e+00 0.0000000e+00 
0.0000000e+00 0.0000000e+00 0.0000000e+00 
0.0000000e+00 0.0000000e+00 0.0000000e+00 
0.0000000e+00 0.0000000e+00 0.0000000e+00 
0.0000000e+00 0.0000000e+00 0.0000000e+00 
0.0000000e+00 0.0000000e+00 0.0000000e+00 
0.0000000e+00 0.0000000e+00 0.0000000e+00 
0.0000000e+00 0.0000000e+00 0.0000000e+00 
0.0000000e+00 0.0000000e+00 0.0000000e+00 
0.0000000e+00 0.0000000e+00 0.0000000e+00 
0.0000000e+00 0.0000000e+00 0.0000000e+00 
0.0000000e+00 0.0000000e+00 0.0000000e+00 
0.0000000e+00 0.0000000e+00 0.0000000e+00 
0.0000000e+00 0.0000000e+00 0.0000000e+00 
0.0000000e+00 0.0000000e+00 0.0000000e+00 
0.0000000e+00 0.0000000e+00 0.0000000e+00 
0.0000000e+00 0.0000000e+00 0.0000000e+00 
0.0000000e+00 0.0000000e+00 0.0000000e+00 
0.0000000e+00 0.0000000e+00 0.0000000e+00 
0.0000000e+00 0.0000000e+00 0.0000000e+00 
0.0000000e+00 0.0000000e+00 0.0000000e+00 
0.0000000e+00 0.0000000e+00 0.0000000e+00 
0.0000000e+00 0.0000000e+00 0.0000000e+00 
0.0000000e+00 0.0000000e+00 0.0000000e+00 
0.0000000e+00 0.0000000e+00 0.0000000e+00 
0.0000000e+00 0.0000000e+00 0.0000000e+00 
0.0000000e+00 0.0000000e+00 0.0000000e+00 
0.0000000e+00 0.0000000e+00 0.0000000e+00 
0.0000000e+00 0.0000000e+00 0.0000000e+00 
0.0000000e+00 0.0000000e+00 0.0000000e+00 
0.0000000e+00 0.0000000e+00 0.0000000e+00 
0.0000000e+00 0.0000000e+00 0.0000000e+00 
0.0000000e+00 0.0000000e+00 0.0000000e+00 
0.0000000e+00 0.0000000e+00 0.0000000e+00 
0.0000000e+00 0.0000000e+00 0.0000000e+00 
0.0000000e+00 0.0000000e+00 0.0000000e+00 
0.0000000e+00 0.0000000e+00 0.0000000e+00 
0.0000000e+00 0.0000000e+00 0.0000000e+00 
0.0000000e+00 0.0000000e+00 0.0000000e+00 
0.0000000e+00 0.0000000e+00 0.0000000e+00 
0.0000000e+00 0.0000000e+00 0.0000000e+00 
0.0000000e+00 0.0000000e+00 0.0000000e+00 
0.0000000e+00 0.0000000e+00 0.0000000e+00 
0.0000000e+00 0.0000000e+00 0.0000000e+00 
0.0000000e+00 0.0000000e+00 0.0000000e+00 
0.0000000e+00 0.0000000e+00 0.0000000e+00 
0.0000000e+00 0.0000000e+00 0.0000000e+00 
0.0000000e+00 0.0000000e+00 0.0000000e+00 
0.0000000e+00 0.0000000e+00 0.0000000e+00 
0.0000000e+00 0.0000000e+00 0.0000000e+00 
0.0000000e+00 0.0000000e+00 0.0000000e+00 
0.0000000e+00 0.0000000e+00 0.0000000e+00 
0.0000000e+00 0.0000000e+00 0.0000000e+00 
0.0000000e+00 0.0000000e+00 0.0000000e+00 
0.0000000e+00 0.0000000e+00 0.0000000e+00 
0.0000000e+00 0.0000000e+00 0.0000000e+00 
0.0000000e+00 0.0000000e+00 0.0000000e+00 
0.0000000e+00 0.0000000e+00 0.0000000e+00 
0.0000000e+00 0.0000000e+00 0.0000000e+00 
0.0000000e+00 0.0000000e+00 0.0000000e+00 
0.0000000e+00 0.0000000e+00 0.0000000e+00 
0.0000000e+00 0.0000000e+00 0.0000000e+00 
0.0000000e+00 0.0000000e+00 0.0000000e+00 
0.0000000e+00 0.0000000e+00 0.0000000e+00 
0.0000000e+00 0.0000000e+00 0.0000000e+00 
0.0000000e+00 0.0000000e+00 0.0000000e+00 
0.0000000e+00 0.0000000e+00 0.0000000e+00 
0.0000000e+00 0.0000000e+00 0.0000000e+00 
0.0000000e+00 0.0000000e+00 0.0000000e+00 
0.0000000e+00 0.0000000e+00 0.0000000e+00 
0.0000000e+00 0.0000000e+00 0.0000000e+00 
0.0000000e+00 0.0000000e+00 0.0000000e+00 
0.0000000e+00 0.0000000e+00 0.0000000e+00 
0.0000000e+00 0.0000000e+00 0.0000000e+00 
0.0000000e+00 0.0000000e+00 0.0000000e+00 
0.0000000e+00 0.0000000e+00 0.0000000e+00 
0.0000000e+00 0.0000000e+00 0.0000000e+00 
0.0000000e+00 0.0000000e+00 0.0000000e+00 
1.6337360e-06 -7.6458588e-07 -5.8150357e-07 
-5.8587398e-07 2.2167899e-06 4.3518621e-06 
-3.4542234e-06 1.9248564e-06 -3.5024379e-07 
2.6543697e-07 2.3076420e-06 -8.1218207e-07 
5.9887699e-09 -1.4868151e-06 -1.3337838e-06 
7.5610888e-06 1.4585428e-06 -1.2277105e-05 
5.7775183e-06 -1.0435628e-05 -1.3219091e-05 
2.1840071e-05 -2.8212546e-06 -1.8929892e-05 
3.5157529e-05 -8.1611543e-06 -1.6679689e-05 
3.8883933e-05 -1.8854782e-05 -1.7108747e-05 
5.2911295e-05 -1.3011188e-05 -1.0761746e-05 
4.9217655e-05 -1.3582953e-05 1.1245371e-06 
4.2552278e-05 -1.3404512e-05 4.8311085e-06 
3.3670716e-05 -9.7975872e-06 8.3780005e-06 
2.1662187e-05 -7.4410186e-06 6.3080483e-06 
1.3414667e-05 -4.9526343e-06 4.9029559e-06 
9.6865524e-06 6.0686267e-07 4.9590617e-06 
9.6367903e-06 2.5341856e-06 5.9990221e-06 
2.9934506e-06 -7.3257399e-07 6.2647223e-06 
-3.4971363e-06 -5.2125911e-06 3.3985166e-06 
2.6521539e-07 -7.9972751e-06 -6.5810383e-07 
2.7873350e-06 -4.9714713e-06 2.7052301e-06 
3.9055976e-06 1.5115968e-06 6.1755277e-06 
2.5737022e-06 -2.9065680e-07 7.0849628e-06 
-3.3828826e-07 -7.4567069e-08 5.1466172e-06 
1.3447866e-06 1.6881418e-06 -2.9392847e-06 
9.9791378e-06 -3.6919721e-06 -8.2231900e-06 
2.2768738e-05 -8.0766285e-06 -1.3142158e-05 
3.0187910e-05 -1.1874166e-06 -5.2138271e-06 
3.8259612e-05 -1.5105788e-05 -8.1480812e-06 
4.8164926e-05 -2.0197904e-05 -7.2636590e-06 
5.2403451e-05 -1.7278495e-05 -1.8371002e-06 
4.8497564e-05 -2.2312284e-05 7.4862527e-07 
3.8520229e-05 -1.2912845e-05 4.3482742e-06 
2.6907759e-05 -5.9441663e-06 8.6007503e-06 
1.2676316e-05 1.6735011e-06 7.8389221e-06 
3.8767544e-06 4.1314843e-06 5.4657103e-06 
-1.4060191e-06 1.7492853e-06 3.0134649e-06 
-8.8567708e-07 -6.4806341e-07 2.9711039e-06 
3.1006373e-06 -3.9098618e-06 5.5677101e-06 
5.2312357e-06 -3.2553314e-06 6.2596455e-06 
3.7537213e-06 -1.1641001e-06 6.0617322e-06 
9.0365791e-07 1.1102512e-06 3.0542408e-06 
-3.2715533e-07 4.0604718e-07 -1.2617946e-07 
-1.5438513e-06 -3.4335756e-08 -2.1047749e-06 
-1.1515809e-06 9.2680509e-08 -2.2092811e-06 
-1.2650469e-07 3.6834638e-07 -1.5301799e-06 
3.8365653e-07 1.3223170e-07 4.4733145e-08 
1.1169080e-07 1.1913031e-07 1.1368879e-06 
0.0000000e+00 4.1282278e-06 0.0000000e+00 
0.0000000e+00 -6.1657538e-06 0.0000000e+00 
0.0000000e+00 1.4103706e-05 0.0000000e+00 
0.0000000e+00 1.4031623e-05 0.0000000e+00 
0.0000000e+00 -2.8686102e-06 0.0000000e+00 
0.0000000e+00 2.6082196e-05 0.0000000e+00 
0.0000000e+00 5.1199884e-05 0.0000000e+00 
0.0000000e+00 1.8851748e-05 0.0000000e+00 
0.0000000e+00 2.9611367e-06 0.0000000e+00 
0.0000000e+00 -1.5957808e-04 0.0000000e+00 
0.0000000e+00 -4.3553146e-04 0.0000000e+00 
0.0000000e+00 -5.2757323e-04 0.0000000e+00 
0.0000000e+00 -5.5388839e-04 0.0000000e+00 
0.0000000e+00 -4.9859937e-04 0.0000000e+00 
0.0000000e+00 -3.4296489e-04 0.0000000e+00 
0.0000000e+00 -1.5840362e-04 0.0000000e+00 
0.0000000e+00 -5.4447883e-05 0.0000000e+00 
0.0000000e+00 -3.9355611e-05 0.0000000e+00 
0.0000000e+00 -6.6976201e-05 0.0000000e+00 
0.0000000e+00 -8.8704168e-05 0.0000000e+00 
0.0000000e+00 -1.0099782e-04 0.0000000e+00 
0.0000000e+00 -1.1117862e-04 0.0000000e+00 
0.0000000e+00 -4.3215492e-05 0.0000000e+00 
0.0000000e+00 -1.0424695e-05 0.0000000e+00 
0.0000000e+00 1.8008633e-06 0.0000000e+00 
0.0000000e+00 3.5320361e-05 0.0000000e+00 
0.0000000e+00 1.0872826e-04 0.0000000e+00 
0.0000000e+00 2.9683646e-05 0.0000000e+00 
0.0000000e+00 -3.2738586e-05 0.0000000e+00 
0.0000000e+00 -2.0217393e-04 0.0000000e+00 
0.0000000e+00 -4.6199697e-04 0.0000000e+00 
0.0000000e+00 -5.5792753e-04 0.0000000e+00 
0.0000000e+00 -5.6738791e-04 0.0000000e+00 
0.0000000e+00 -5.0425605e-04 0.0000000e+00 
0.0000000e+00 -2.9662062e-04 0.0000000e+00 
0.0000000e+00 -1.2803312e-04 0.0000000e+00 
0.0000000e+00 8.6542468e-06 0.0000000e+00 
0.0000000e+00 3.2741558e-05 0.0000000e+00 
0.0000000e+00 8.7333319e-06 0.0000000e+00 
0.0000000e+00 -1.1612104e-05 0.0000000e+00 
0.0000000e+00 -1.9304925e-05 0.0000000e+00 
0.0000000e+00 -1.1287084e-05 0.0000000e+00 
0.0000000e+00 9.3112385e-06 0.0000000e+00 
0.0000000e+00 1.4747818e-05 0.0000000e+00 
0.0000000e+00 6.4227374e-06 0.0000000e+00 
0.0000000e+00 -4.3593582e-06 0.0000000e+00 
0.0000000e+00 -6.3376074e-06 0.0000000e+00 
0.0000000e+00 -3.8783864e-07 0.0000000e+00 
0.0000000e+00 1.6339779e-06 0.0000000e+00 
2.8473053e-06 -1.5963449e-06 -5.8742216e-07 
-2.7695276e-06 3.3919630e-06 1.4746010e-06 
-2.0161849e-06 1.1289045e-05 6.3949674e-06 
-2.3961663e-06 1.8183089e-05 2.0629359e-06 
-5.3905689e-09 -2.9434935e-07 1.2634350e-06 
-2.4191093e-07 -4.0329056e-07 1.0164218e-06 
-4.7043773e-07 -3.3159353e-07 3.1943421e-07 
-4.3300264e-07 3.8324634e-07 -3.5358909e-07 
2.0149648e-06 -2.6059311e-06 1.0339799e-06 
1.9041862e-06 5.3838545e-07 1.0462467e-06 
-2.8957420e-06 2.5667413e-07 -3.7875861e-06 
-4.9518476e-06 -4.1759508e-06 -3.8194742e-07 
7.2918078e-06 1.5824698e-06 -3.5707710e-06 
6.8696631e-06 -2.6463761e-06 -8.3535688e-06 
1.3819155e-05 -1.0975315e-05 -1.7761835e-05 
2.9991710e-05 -7.2410324e-07 -2.3754341e-05 
4.5537839e-05 -1.3214423e-05 -2.5100915e-05 
5.4699405e-05 -1.5273081e-05 -1.9962159e-05 
5.9349823e-05 -1.1160873e-05 -1.0048024e-05 
4.9002199e-05 -1.2544115e-05 3.4474187e-06 
3.9151058e-05 -8.4713747e-06 9.2970267e-06 
2.3020169e-05 -4.9270325e-06 3.6139299e-06 
8.5172487e-06 -4.8192455e-06 3.7169639e-06 
9.0459489e-06 -3.8809317e-06 2.2962740e-06 
5.9196127e-06 -7.9562165e-07 -3.1585782e-07 
4.5108300e-06 5.3794115e-06 5.7425045e-06 
3.3187941e-08 1.8455527e-06 1.4236908e-05 
-1.1448867e-05 -2.6565726e-06 1.2520820e-05 
-1.3161447e-05 -1.1435896e-05 1.4390839e-06 