# vtk DataFile Version 4.0
vtk output
ASCII
DATASET UNSTRUCTURED_GRID
POINTS 1664 float
0.0000000e+00 0.0000000e+00 0.0000000e+00 
0.0000000e+00 0.0000000e+00 5.0000000e+01 
5.0000000e+00 0.0000000e+00 0.0000000e+00 
5.0000000e+00 0.0000000e+00 5.0000000e+01 
5.0000000e+00 1.0000000e+00 0.0000000e+00 
5.0000000e+00 1.0000000e+00 5.0000000e+01 
0.0000000e+00 1.0000000e+00 0.0000000e+00 
0.0000000e+00 1.0000000e+00 5.0000000e+01 
5.0000000e+00 2.0000000e+00 0.0000000e+00 
5.0000000e+00 2.0000000e+00 5.0000000e+01 
3.0000000e+00 2.0000000e+00 0.0000000e+00 
3.0000000e+00 2.0000000e+00 5.0000000e+01 
0.0000000e+00 2.0000000e+00 0.0000000e+00 
0.0000000e+00 2.0000000e+00 5.0000000e+01 
1.5000000e+00 3.0000000e+00 0.0000000e+00 
1.5000000e+00 3.0000000e+00 5.0000000e+01 
7.5000000e-01 3.0000000e+00 0.0000000e+00 
7.5000000e-01 3.0000000e+00 5.0000000e+01 
0.0000000e+00 3.0000000e+00 0.0000000e+00 
0.0000000e+00 3.0000000e+00 5.0000000e+01 
0.0000000e+00 0.0000000e+00 1.0000000e+00 
0.0000000e+00 0.0000000e+00 2.0000000e+00 
0.0000000e+00 0.0000000e+00 3.0000000e+00 
0.0000000e+00 0.0000000e+00 4.0000000e+00 
0.0000000e+00 0.0000000e+00 5.0000000e+00 
0.0000000e+00 0.0000000e+00 6.0000000e+00 
0.0000000e+00 0.0000000e+00 7.0000000e+00 
0.0000000e+00 0.0000000e+00 8.0000000e+00 
0.0000000e+00 0.0000000e+00 9.0000000e+00 
0.0000000e+00 0.0000000e+00 1.0000000e+01 
0.0000000e+00 0.0000000e+00 1.1000000e+01 
0.0000000e+00 0.0000000e+00 1.2000000e+01 
0.0000000e+00 0.0000000e+00 1.3000000e+01 
0.0000000e+00 0.0000000e+00 1.4000000e+01 
0.0000000e+00 0.0000000e+00 1.5000000e+01 
0.0000000e+00 0.0000000e+00 1.6000000e+01 
0.0000000e+00 0.0000000e+00 1.7000000e+01 
0.0000000e+00 0.0000000e+00 1.8000000e+01 
0.0000000e+00 0.0000000e+00 1.9000000e+01 
0.0000000e+00 0.0000000e+00 2.0000000e+01 
0.0000000e+00 0.0000000e+00 2.1000000e+01 
0.0000000e+00 0.0000000e+00 2.2000000e+01 
0.0000000e+00 0.0000000e+00 2.3000000e+01 
0.0000000e+00 0.0000000e+00 2.4000000e+01 
0.0000000e+00 0.0000000e+00 2.5000000e+01 
0.0000000e+00 0.0000000e+00 2.6000000e+01 
0.0000000e+00 0.0000000e+00 2.7000000e+01 
0.0000000e+00 0.0000000e+00 2.8000000e+01 
0.0000000e+00 0.0000000e+00 2.9000000e+01 
0.0000000e+00 0.0000000e+00 3.0000000e+01 
0.0000000e+00 0.0000000e+00 3.1000000e+01 
0.0000000e+00 0.0000000e+00 3.2000000e+01 
0.0000000e+00 0.0000000e+00 3.3000000e+01 
0.0000000e+00 0.0000000e+00 3.4000000e+01 
0.0000000e+00 0.0000000e+00 3.5000000e+01 
0.0000000e+00 0.0000000e+00 3.6000000e+01 
0.0000000e+00 0.0000000e+00 3.7000000e+01 
0.0000000e+00 0.0000000e+00 3.8000000e+01 
0.0000000e+00 0.0000000e+00 3.9000000e+01 
0.0000000e+00 0.0000000e+00 4.0000000e+01 
0.0000000e+00 0.0000000e+00 4.1000000e+01 
0.0000000e+00 0.0000000e+00 4.2000000e+01 
0.0000000e+00 0.0000000e+00 4.3000000e+01 
0.0000000e+00 0.0000000e+00 4.4000000e+01 
0.0000000e+00 0.0000000e+00 4.5000000e+01 
0.0000000e+00 0.0000000e+00 4.6000000e+01 
0.0000000e+00 0.0000000e+00 4.7000000e+01 
0.0000000e+00 0.0000000e+00 4.8000000e+01 
0.0000000e+00 0.0000000e+00 4.9000000e+01 
5.0000000e+00 0.0000000e+00 1.0000000e+00 
5.0000000e+00 0.0000000e+00 2.0000000e+00 
5.0000000e+00 0.0000000e+00 3.0000000e+00 
5.0000000e+00 0.0000000e+00 4.0000000e+00 
5.0000000e+00 0.0000000e+00 5.0000000e+00 
5.0000000e+00 0.0000000e+00 6.0000000e+00 
5.0000000e+00 0.0000000e+00 7.0000000e+00 
5.0000000e+00 0.0000000e+00 8.0000000e+00 
5.0000000e+00 0.0000000e+00 9.0000000e+00 
5.0000000e+00 0.0000000e+00 1.0000000e+01 
5.0000000e+00 0.0000000e+00 1.1000000e+01 
5.0000000e+00 0.0000000e+00 1.2000000e+01 
5.0000000e+00 0.0000000e+00 1.3000000e+01 
5.0000000e+00 0.0000000e+00 1.4000000e+01 
5.0000000e+00 0.0000000e+00 1.5000000e+01 
5.0000000e+00 0.0000000e+00 1.6000000e+01 
5.0000000e+00 0.0000000e+00 1.7000000e+01 
5.0000000e+00 0.0000000e+00 1.8000000e+01 
5.0000000e+00 0.0000000e+00 1.9000000e+01 
5.0000000e+00 0.0000000e+00 2.0000000e+01 
5.0000000e+00 0.0000000e+00 2.1000000e+01 
5.0000000e+00 0.0000000e+00 2.2000000e+01 
5.0000000e+00 0.0000000e+00 2.3000000e+01 
5.0000000e+00 0.0000000e+00 2.4000000e+01 
5.0000000e+00 0.0000000e+00 2.5000000e+01 
5.0000000e+00 0.0000000e+00 2.6000000e+01 
5.0000000e+00 0.0000000e+00 2.7000000e+01 
5.0000000e+00 0.0000000e+00 2.8000000e+01 
5.0000000e+00 0.0000000e+00 2.9000000e+01 
5.0000000e+00 0.0000000e+00 3.0000000e+01 
5.0000000e+00 0.0000000e+00 3.1000000e+01 
5.0000000e+00 0.0000000e+00 3.2000000e+01 
5.0000000e+00 0.0000000e+00 3.3000000e+01 
5.0000000e+00 0.0000000e+00 3.4000000e+01 
5.0000000e+00 0.0000000e+00 3.5000000e+01 
5.0000000e+00 0.0000000e+00 3.6000000e+01 
5.0000000e+00 0.0000000e+00 3.7000000e+01 
5.0000000e+00 0.0000000e+00 3.8000000e+01 
5.0000000e+00 0.0000000e+00 3.9000000e+01 
5.0000000e+00 0.0000000e+00 4.0000000e+01 
5.0000000e+00 0.0000000e+00 4.1000000e+01 
5.0000000e+00 0.0000000e+00 4.2000000e+01 
5.0000000e+00 0.0000000e+00 4.3000000e+01 
5.0000000e+00 0.0000000e+00 4.4000000e+01 
5.0000000e+00 0.0000000e+00 4.5000000e+01 
5.0000000e+00 0.0000000e+00 4.6000000e+01 
5.0000000e+00 0.0000000e+00 4.7000000e+01 
5.0000000e+00 0.0000000e+00 4.8000000e+01 
5.0000000e+00 0.0000000e+00 4.9000000e+01 
1.0000000e+00 0.0000000e+00 0.0000000e+00 
2.0000000e+00 0.0000000e+00 0.0000000e+00 
3.0000000e+00 0.0000000e+00 0.0000000e+00 
4.0000000e+00 0.0000000e+00 0.0000000e+00 
1.0000000e+00 0.0000000e+00 5.0000000e+01 
2.0000000e+00 0.0000000e+00 5.0000000e+01 
3.0000000e+00 0.0000000e+00 5.0000000e+01 
4.0000000e+00 0.0000000e+00 5.0000000e+01 
5.0000000e+00 1.0000000e+00 1.0000000e+00 
5.0000000e+00 1.0000000e+00 2.0000000e+00 
5.0000000e+00 1.0000000e+00 3.0000000e+00 
5.0000000e+00 1.0000000e+00 4.0000000e+00 
5.0000000e+00 1.0000000e+00 5.0000000e+00 
5.0000000e+00 1.0000000e+00 6.0000000e+00 
5.0000000e+00 1.0000000e+00 7.0000000e+00 
5.0000000e+00 1.0000000e+00 8.0000000e+00 
5.0000000e+00 1.0000000e+00 9.0000000e+00 
5.0000000e+00 1.0000000e+00 1.0000000e+01 
5.0000000e+00 1.0000000e+00 1.1000000e+01 
5.0000000e+00 1.0000000e+00 1.2000000e+01 
5.0000000e+00 1.0000000e+00 1.3000000e+01 
5.0000000e+00 1.0000000e+00 1.4000000e+01 
5.0000000e+00 1.0000000e+00 1.5000000e+01 
5.0000000e+00 1.0000000e+00 1.6000000e+01 
5.0000000e+00 1.0000000e+00 1.7000000e+01 
5.0000000e+00 1.0000000e+00 1.8000000e+01 
5.0000000e+00 1.0000000e+00 1.9000000e+01 
5.0000000e+00 1.0000000e+00 2.0000000e+01 
5.0000000e+00 1.0000000e+00 2.1000000e+01 
5.0000000e+00 1.0000000e+00 2.2000000e+01 
5.0000000e+00 1.0000000e+00 2.3000000e+01 
5.0000000e+00 1.0000000e+00 2.4000000e+01 
5.0000000e+00 1.0000000e+00 2.5000000e+01 
5.0000000e+00 1.0000000e+00 2.6000000e+01 
5.0000000e+00 1.0000000e+00 2.7000000e+01 
5.0000000e+00 1.0000000e+00 2.8000000e+01 
5.0000000e+00 1.0000000e+00 2.9000000e+01 
5.0000000e+00 1.0000000e+00 3.0000000e+01 
5.0000000e+00 1.0000000e+00 3.1000000e+01 
5.0000000e+00 1.0000000e+00 3.2000000e+01 
5.0000000e+00 1.0000000e+00 3.3000000e+01 
5.0000000e+00 1.0000000e+00 3.4000000e+01 
5.0000000e+00 1.0000000e+00 3.5000000e+01 
5.0000000e+00 1.0000000e+00 3.6000000e+01 
5.0000000e+00 1.0000000e+00 3.7000000e+01 
5.0000000e+00 1.0000000e+00 3.8000000e+01 
5.0000000e+00 1.0000000e+00 3.9000000e+01 
5.0000000e+00 1.0000000e+00 4.0000000e+01 
5.0000000e+00 1.0000000e+00 4.1000000e+01 
5.0000000e+00 1.0000000e+00 4.2000000e+01 
5.0000000e+00 1.0000000e+00 4.3000000e+01 
5.0000000e+00 1.0000000e+00 4.4000000e+01 
5.0000000e+00 1.0000000e+00 4.5000000e+01 
5.0000000e+00 1.0000000e+00 4.6000000e+01 
5.0000000e+00 1.0000000e+00 4.7000000e+01 
5.0000000e+00 1.0000000e+00 4.8000000e+01 
5.0000000e+00 1.0000000e+00 4.9000000e+01 
0.0000000e+00 1.0000000e+00 1.0000000e+00 
0.0000000e+00 1.0000000e+00 2.0000000e+00 
0.0000000e+00 1.0000000e+00 3.0000000e+00 
0.0000000e+00 1.0000000e+00 4.0000000e+00 
0.0000000e+00 1.0000000e+00 5.0000000e+00 
0.0000000e+00 1.0000000e+00 6.0000000e+00 
0.0000000e+00 1.0000000e+00 7.0000000e+00 
0.0000000e+00 1.0000000e+00 8.0000000e+00 
0.0000000e+00 1.0000000e+00 9.0000000e+00 
0.0000000e+00 1.0000000e+00 1.0000000e+01 
0.0000000e+00 1.0000000e+00 1.1000000e+01 
0.0000000e+00 1.0000000e+00 1.2000000e+01 
0.0000000e+00 1.0000000e+00 1.3000000e+01 
0.0000000e+00 1.0000000e+00 1.4000000e+01 
0.0000000e+00 1.0000000e+00 1.5000000e+01 
0.0000000e+00 1.0000000e+00 1.6000000e+01 
0.0000000e+00 1.0000000e+00 1.7000000e+01 
0.0000000e+00 1.0000000e+00 1.8000000e+01 
0.0000000e+00 1.0000000e+00 1.9000000e+01 
0.0000000e+00 1.0000000e+00 2.0000000e+01 
0.0000000e+00 1.0000000e+00 2.1000000e+01 
0.0000000e+00 1.0000000e+00 2.2000000e+01 
0.0000000e+00 1.0000000e+00 2.3000000e+01 
0.0000000e+00 1.0000000e+00 2.4000000e+01 
0.0000000e+00 1.0000000e+00 2.5000000e+01 
0.0000000e+00 1.0000000e+00 2.6000000e+01 
0.0000000e+00 1.0000000e+00 2.7000000e+01 
0.0000000e+00 1.0000000e+00 2.8000000e+01 
0.0000000e+00 1.0000000e+00 2.9000000e+01 
0.0000000e+00 1.0000000e+00 3.0000000e+01 
0.0000000e+00 1.0000000e+00 3.1000000e+01 
0.0000000e+00 1.0000000e+00 3.2000000e+01 
0.0000000e+00 1.0000000e+00 3.3000000e+01 
0.0000000e+00 1.0000000e+00 3.4000000e+01 
0.0000000e+00 1.0000000e+00 3.5000000e+01 
0.0000000e+00 1.0000000e+00 3.6000000e+01 
0.0000000e+00 1.0000000e+00 3.7000000e+01 
0.0000000e+00 1.0000000e+00 3.8000000e+01 
0.0000000e+00 1.0000000e+00 3.9000000e+01 
0.0000000e+00 1.0000000e+00 4.0000000e+01 
0.0000000e+00 1.0000000e+00 4.1000000e+01 
0.0000000e+00 1.0000000e+00 4.2000000e+01 
0.0000000e+00 1.0000000e+00 4.3000000e+01 
0.0000000e+00 1.0000000e+00 4.4000000e+01 
0.0000000e+00 1.0000000e+00 4.5000000e+01 
0.0000000e+00 1.0000000e+00 4.6000000e+01 
0.0000000e+00 1.0000000e+00 4.7000000e+01 
0.0000000e+00 1.0000000e+00 4.8000000e+01 
0.0000000e+00 1.0000000e+00 4.9000000e+01 
4.0000000e+00 1.0000000e+00 0.0000000e+00 
3.0000000e+00 1.0000000e+00 0.0000000e+00 
2.0000000e+00 1.0000000e+00 0.0000000e+00 
1.0000000e+00 1.0000000e+00 0.0000000e+00 
4.0000000e+00 1.0000000e+00 5.0000000e+01 
3.0000000e+00 1.0000000e+00 5.0000000e+01 
[...]
POINT_DATA 1664
FIELD FieldData 2
DISPLACEMENT 3 1664  float
0.0000000e+00 0.0000000e+00 0.0000000e+00 
0.0000000e+00 0.0000000e+00 0.0000000e+00 
0.0000000e+00 0.0000000e+00 0.0000000e+00 
0.0000000e+00 0.0000000e+00 0.0000000e+00 
0.0000000e+00 4.5234180e-10 0.0000000e+00 
0.0000000e+00 7.8334234e-15 0.0000000e+00 
0.0000000e+00 4.0184259e-10 0.0000000e+00 
0.0000000e+00 1.3701124e-14 0.0000000e+00 
0.0000000e+00 -8.9710112e-10 0.0000000e+00 
0.0000000e+00 1.2629332e-14 0.0000000e+00 
0.0000000e+00 4.1327124e-09 0.0000000e+00 
0.0000000e+00 1.7444046e-14 0.0000000e+00 
0.0000000e+00 -9.3604491e-10 0.0000000e+00 
0.0000000e+00 -1.7178497e-14 0.0000000e+00 
0.0000000e+00 -1.2856475e-08 0.0000000e+00 
-4.8056286e-13 2.1768873e-13 2.6222045e-13 
0.0000000e+00 -9.0141690e-09 0.0000000e+00 
0.0000000e+00 1.0878351e-13 0.0000000e+00 
0.0000000e+00 1.7618884e-10 0.0000000e+00 
0.0000000e+00 3.3594712e-14 0.0000000e+00 
0.0000000e+00 0.0000000e+00 0.0000000e+00 
0.0000000e+00 0.0000000e+00 0.0000000e+00 
0.0000000e+00 0.0000000e+00 0.0000000e+00 
0.0000000e+00 0.0000000e+00 0.0000000e+00 
0.0000000e+00 0.0000000e+00 0.0000000e+00 
0.0000000e+00 0.0000000e+00 0.0000000e+00 
0.0000000e+00 0.0000000e+00 0.0000000e+00 
0.0000000e+00 0.0000000e+00 0.0000000e+00 
0.0000000e+00 0.0000000e+00 0.0000000e+00 
0.0000000e+00 0.0000000e+00 0.0000000e+00 
0.0000000e+00 0.0000000e+00 0.0000000e+00 
0.0000000e+00 0.0000000e+00 0.0000000e+00 
0.0000000e+00 0.0000000e+00 0.0000000e+00 
0.0000000e+00 0.0000000e+00 0.0000000e+00 
0.0000000e+00 0.0000000e+00 0.0000000e+00 
0.0000000e+00 0.0000000e+00 0.0000000e+00 
0.0000000e+00 0.0000000e+00 0.0000000e+00 
0.0000000e+00 0.0000000e+00 0.0000000e+00 
0.0000000e+00 0.0000000e+00 0.0000000e+00 
0.0000000e+00 0.0000000e+00 0.0000000e+00 
0.0000000e+00 0.0000000e+00 0.0000000e+00 
0.0000000e+00 0.0000000e+00 0.0000000e+00 
0.0000000e+00 0.0000000e+00 0.0000000e+00 
0.0000000e+00 0.0000000e+00 0.0000000e+00 
0.0000000e+00 0.0000000e+00 0.0000000e+00 
0.0000000e+00 0.0000000e+00 0.0000000e+00 
0.0000000e+00 0.0000000e+00 0.0000000e+00 
0.0000000e+00 0.0000000e+00 0.0000000e+00 
0.0000000e+00 0.0000000e+00 0.0000000e+00 
0.0000000e+00 0.0000000e+00 0.0000000e+00 
0.0000000e+00 0.0000000e+00 0.0000000e+00 
0.0000000e+00 0.0000000e+00 0.0000000e+00 
0.0000000e+00 0.0000000e+00 0.0000000e+00 
0.0000000e+00 0.0000000e+00 0.0000000e+00 
0.0000000e+00 0.0000000e+00 0.0000000e+00 
0.0000000e+00 0.0000000e+00 0.0000000e+00 
0.0000000e+00 0.0000000e+00 0.0000000e+00 
0.0000000e+00 0.0000000e+00 0.0000000e+00 
0.0000000e+00 0.0000000e+00 0.0000000e+00 
0.0000000e+00 0.0000000e+00 0.0000000e+00 
0.0000000e+00 0.0000000e+00 0.0000000e+00 
0.0000000e+00 0.0000000e+00 0.0000000e+00 
0.0000000e+00 0.0000000e+00 0.0000000e+00 
0.0000000e+00 0.0000000e+00 0.0000000e+00 
0.0000000e+00 0.0000000e+00 0.0000000e+00 
0.0000000e+00 0.0000000e+00 0.0000000e+00 
0.0000000e+00 0.0000000e+00 0.0000000e+00 
0.0000000e+00 0.0000000e+00 0.0000000e+00 
0.0000000e+00 0.0000000e+00 0.0000000e+00 
0.0000000e+00 0.0000000e+00 0.0000000e+00 
0.0000000e+00 0.0000000e+00 0.0000000e+00 
0.0000000e+00 0.0000000e+00 0.0000000e+00 
0.0000000e+00 0.0000000e+00 0.0000000e+00 
0.0000000e+00 0.0000000e+00 0.0000000e+00 
0.0000000e+00 0.0000000e+00 0.0000000e+00 
0.0000000e+00 0.0000000e+00 0.0000000e+00 
0.0000000e+00 0.0000000e+00 0.0000000e+00 
0.0000000e+00 0.0000000e+00 0.0000000e+00 
0.0000000e+00 0.0000000e+00 0.0000000e+00 
0.0000000e+00 0.0000000e+00 0.0000000e+00 
0.0000000e+00 0.0000000e+00 0.0000000e+00 
0.0000000e+00 0.0000000e+00 0.0000000e+00 
0.0000000e+00 0.0000000e+00 0.0000000e+00 
0.0000000e+00 0.0000000e+00 0.0000000e+00 
0.0000000e+00 0.0000000e+00 0.0000000e+00 
0.0000000e+00 0.0000000e+00 0.0000000e+00 
0.0000000e+00 0.0000000e+00 0.0000000e+00 
0.0000000e+00 0.0000000e+00 0.0000000e+00 
0.0000000e+00 0.0000000e+00 0.0000000e+00 
0.0000000e+00 0.0000000e+00 0.0000000e+00 
0.0000000e+00 0.0000000e+00 0.0000000e+00 
0.0000000e+00 0.0000000e+00 0.0000000e+00 
0.0000000e+00 0.0000000e+00 0.0000000e+00 
0.0000000e+00 0.0000000e+00 0.0000000e+00 
0.0000000e+00 0.0000000e+00 0.0000000e+00 
0.0000000e+00 0.0000000e+00 0.0000000e+00 
0.0000000e+00 0.0000000e+00 0.0000000e+00 
0.0000000e+00 0.0000000e+00 0.0000000e+00 
0.0000000e+00 0.0000000e+00 0.0000000e+00 
0.0000000e+00 0.0000000e+00 0.0000000e+00 
0.0000000e+00 0.0000000e+00 0.0000000e+00 
0.0000000e+00 0.0000000e+00 0.0000000e+00 
0.0000000e+00 0.0000000e+00 0.0000000e+00 
0.0000000e+00 0.0000000e+00 0.0000000e+00 
0.0000000e+00 0.0000000e+00 0.0000000e+00 
0.0000000e+00 0.0000000e+00 0.0000000e+00 
0.0000000e+00 0.0000000e+00 0.0000000e+00 
0.0000000e+00 0.0000000e+00 0.0000000e+00 
0.0000000e+00 0.0000000e+00 0.0000000e+00 
0.0000000e+00 0.0000000e+00 0.0000000e+00 
0.0000000e+00 0.0000000e+00 0.0000000e+00 
0.0000000e+00 0.0000000e+00 0.0000000e+00 
0.0000000e+00 0.0000000e+00 0.0000000e+00 
0.0000000e+00 0.0000000e+00 0.0000000e+00 
0.0000000e+00 0.0000000e+00 0.0000000e+00 
0.0000000e+00 0.0000000e+00 0.0000000e+00 
0.0000000e+00 0.0000000e+00 0.0000000e+00 
0.0000000e+00 0.0000000e+00 0.0000000e+00 
0.0000000e+00 0.0000000e+00 0.0000000e+00 
0.0000000e+00 0.0000000e+00 0.0000000e+00 
0.0000000e+00 0.0000000e+00 0.0000000e+00 
0.0000000e+00 0.0000000e+00 0.0000000e+00 
0.0000000e+00 0.0000000e+00 0.0000000e+00 
0.0000000e+00 0.0000000e+00 0.0000000e+00 
0.0000000e+00 0.0000000e+00 0.0000000e+00 
0.0000000e+00 0.0000000e+00 0.0000000e+00 
0.0000000e+00 1.2539560e-10 0.0000000e+00 
0.0000000e+00 7.2696577e-10 0.0000000e+00 
0.0000000e+00 -2.0738247e-09 0.0000000e+00 
0.0000000e+00 -5.4490162e-08 0.0000000e+00 
0.0000000e+00 -1.8821434e-07 0.0000000e+00 
0.0000000e+00 -2.1777021e-07 0.0000000e+00 
0.0000000e+00 -2.3772435e-07 0.0000000e+00 
0.0000000e+00 -3.5084256e-07 0.0000000e+00 
0.0000000e+00 -2.3660517e-07 0.0000000e+00 
0.0000000e+00 -1.4913431e-07 0.0000000e+00 
0.0000000e+00 -1.5220951e-07 0.0000000e+00 
0.0000000e+00 -1.9581908e-08 0.0000000e+00 
0.0000000e+00 -2.5830554e-08 0.0000000e+00 
0.0000000e+00 -7.8379117e-09 0.0000000e+00 
0.0000000e+00 -5.1519429e-09 0.0000000e+00 
0.0000000e+00 -1.5713696e-09 0.0000000e+00 
0.0000000e+00 -4.7081267e-10 0.0000000e+00 
0.0000000e+00 1.2167456e-12 0.0000000e+00 
0.0000000e+00 4.0651046e-10 0.0000000e+00 
0.0000000e+00 1.3279506e-09 0.0000000e+00 
0.0000000e+00 1.8531566e-09 0.0000000e+00 
0.0000000e+00 -1.0955672e-08 0.0000000e+00 
0.0000000e+00 -7.2691329e-08 0.0000000e+00 
0.0000000e+00 -8.1911985e-08 0.0000000e+00 
0.0000000e+00 -2.1472613e-07 0.0000000e+00 
0.0000000e+00 -2.3674173e-07 0.0000000e+00 
0.0000000e+00 -2.1443012e-07 0.0000000e+00 
0.0000000e+00 -2.2121165e-07 0.0000000e+00 
0.0000000e+00 -1.7288755e-07 0.0000000e+00 
0.0000000e+00 -1.2177010e-07 0.0000000e+00 
0.0000000e+00 -6.1301989e-08 0.0000000e+00 
0.0000000e+00 -6.1765377e-08 0.0000000e+00 
0.0000000e+00 -1.6845876e-08 0.0000000e+00 
0.0000000e+00 1.2331538e-09 0.0000000e+00 
0.0000000e+00 -3.8694026e-09 0.0000000e+00 
0.0000000e+00 -2.2219226e-09 0.0000000e+00 
0.0000000e+00 -8.2386942e-10 0.0000000e+00 
0.0000000e+00 -2.2359721e-10 0.0000000e+00 
0.0000000e+00 -5.5100824e-12 0.0000000e+00 
0.0000000e+00 -7.1502568e-11 0.0000000e+00 
0.0000000e+00 -2.2313068e-11 0.0000000e+00 
0.0000000e+00 -1.0049577e-11 0.0000000e+00 
0.0000000e+00 -4.8362638e-13 0.0000000e+00 
0.0000000e+00 -3.3158322e-12 0.0000000e+00 
0.0000000e+00 3.6808128e-14 0.0000000e+00 
0.0000000e+00 -1.1992891e-12 0.0000000e+00 
0.0000000e+00 9.3835848e-14 0.0000000e+00 
0.0000000e+00 -2.5236337e-13 0.0000000e+00 
0.0000000e+00 -5.2160130e-16 0.0000000e+00 
0.0000000e+00 2.4425302e-09 0.0000000e+00 
0.0000000e+00 -4.2850865e-09 0.0000000e+00 
0.0000000e+00 3.5526824e-08 0.0000000e+00 
0.0000000e+00 -3.6308302e-07 0.0000000e+00 
0.0000000e+00 -9.5814676e-07 0.0000000e+00 
0.0000000e+00 -5.4497264e-06 0.0000000e+00 
0.0000000e+00 2.5095098e-06 0.0000000e+00 
0.0000000e+00 -2.3830864e-06 0.0000000e+00 
0.0000000e+00 -4.0097548e-06 0.0000000e+00 
0.0000000e+00 1.7377055e-06 0.0000000e+00 
0.0000000e+00 -3.7961348e-07 0.0000000e+00 
0.0000000e+00 -1.8004596e-07 0.0000000e+00 
0.0000000e+00 -1.5864617e-09 0.0000000e+00 
0.0000000e+00 -1.6274095e-08 0.0000000e+00 
0.0000000e+00 -1.3315753e-09 0.0000000e+00 
0.0000000e+00 -1.7517691e-09 0.0000000e+00 
0.0000000e+00 -6.3313171e-10 0.0000000e+00 
0.0000000e+00 -2.4048621e-10 0.0000000e+00 
0.0000000e+00 -8.3289725e-10 0.0000000e+00 
0.0000000e+00 1.3126500e-10 0.0000000e+00 
0.0000000e+00 5.5953692e-10 0.0000000e+00 
0.0000000e+00 3.0840244e-09 0.0000000e+00 
0.0000000e+00 2.5679887e-07 0.0000000e+00 
0.0000000e+00 -9.8141015e-07 0.0000000e+00 
0.0000000e+00 4.9117017e-07 0.0000000e+00 
0.0000000e+00 -4.1194603e-06 0.0000000e+00 
0.0000000e+00 -1.0570907e-05 0.0000000e+00 
0.0000000e+00 2.7688975e-06 0.0000000e+00 
0.0000000e+00 3.4850902e-07 0.0000000e+00 
0.0000000e+00 -3.0527096e-06 0.0000000e+00 
0.0000000e+00 -1.9185164e-07 0.0000000e+00 
0.0000000e+00 -1.0901505e-08 0.0000000e+00 
0.0000000e+00 -3.9998373e-08 0.0000000e+00 
0.0000000e+00 -1.3001014e-08 0.0000000e+00 
0.0000000e+00 -6.4358407e-09 0.0000000e+00 
0.0000000e+00 -2.4063915e-09 0.0000000e+00 
0.0000000e+00 -8.8685526e-10 0.0000000e+00 
0.0000000e+00 -7.1361334e-11 0.0000000e+00 
0.0000000e+00 -3.0941127e-10 0.0000000e+00 
0.0000000e+00 3.1055901e-11 0.0000000e+00 
0.0000000e+00 -7.3496494e-11 0.0000000e+00 
0.0000000e+00 -2.9161784e-11 0.0000000e+00 
0.0000000e+00 -1.0555961e-11 0.0000000e+00 
0.0000000e+00 -9.0810667e-14 0.0000000e+00 
0.0000000e+00 -5.0747573e-13 0.0000000e+00 
0.0000000e+00 -1.0912655e-12 0.0000000e+00 
0.0000000e+00 -2.3703983e-13 0.0000000e+00 
0.0000000e+00 -1.8840504e-13 0.0000000e+00 
0.0000000e+00 -1.6497303e-14 0.0000000e+00 
0.0000000e+00 -6.3048358e-11 0.0000000e+00 
0.0000000e+00 7.0030842e-10 0.0000000e+00 
0.0000000e+00 2.2417395e-09 0.0000000e+00 
0.0000000e+00 -1.2489212e-09 0.0000000e+00 
0.0000000e+00 -1.3681289e-14 0.0000000e+00 
0.0000000e+00 -5.6216533e-14 0.0000000e+00 
0.0000000e+00 -6.9845232e-14 0.0000000e+00 
0.0000000e+00 -2.8944078e-14 0.0000000e+00 
0.0000000e+00 4.8166560e-09 0.0000000e+00 
0.0000000e+00 2.7528015e-08 0.0000000e+00 
0.0000000e+00 5.0683923e-08 0.0000000e+00 
0.0000000e+00 6.5313067e-08 0.0000000e+00 
0.0000000e+00 -2.4099997e-08 0.0000000e+00 
0.0000000e+00 2.0896769e-08 0.0000000e+00 
0.0000000e+00 -1.5729221e-09 0.0000000e+00 
0.0000000e+00 -2.5651206e-08 0.0000000e+00 
0.0000000e+00 2.3925439e-08 0.0000000e+00 
0.0000000e+00 3.1588543e-09 0.0000000e+00 
0.0000000e+00 -5.8270771e-08 0.0000000e+00 
0.0000000e+00 -1.1932601e-08 0.0000000e+00 
0.0000000e+00 -1.7762764e-08 0.0000000e+00 
0.0000000e+00 1.9537176e-09 0.0000000e+00 
0.0000000e+00 -2.7940961e-09 0.0000000e+00 
0.0000000e+00 5.3628613e-10 0.0000000e+00 
0.0000000e+00 2.9974456e-10 0.0000000e+00 
0.0000000e+00 4.9066706e-10 0.0000000e+00 
0.0000000e+00 1.2660263e-09 0.0000000e+00 
0.0000000e+00 3.5576988e-09 0.0000000e+00 
0.0000000e+00 1.2366966e-08 0.0000000e+00 
0.0000000e+00 1.0494643e-08 0.0000000e+00 
0.0000000e+00 3.2674141e-09 0.0000000e+00 
0.0000000e+00 8.0448785e-08 0.0000000e+00 
0.0000000e+00 8.2094601e-08 0.0000000e+00 
0.0000000e+00 -2.1029196e-08 0.0000000e+00 
0.0000000e+00 -7.7234024e-09 0.0000000e+00 
0.0000000e+00 -1.3024401e-08 0.0000000e+00 
0.0000000e+00 -1.8051905e-08 0.0000000e+00 
0.0000000e+00 -2.2658954e-08 0.0000000e+00 
0.0000000e+00 1.3857123e-08 0.0000000e+00 
0.0000000e+00 -3.1411336e-08 0.0000000e+00 
0.0000000e+00 -3.6860988e-09 0.0000000e+00 
0.0000000e+00 1.7968599e-09 0.0000000e+00 
0.0000000e+00 -8.3980245e-10 0.0000000e+00 
0.0000000e+00 -1.1364891e-09 0.0000000e+00 
0.0000000e+00 9.9040415e-11 0.0000000e+00 
0.0000000e+00 -2.2954527e-10 0.0000000e+00 
0.0000000e+00 5.7945094e-12 0.0000000e+00 
0.0000000e+00 -4.9145299e-11 0.0000000e+00 
0.0000000e+00 4.0038658e-12 0.0000000e+00 
0.0000000e+00 2.0701774e-12 0.0000000e+00 
0.0000000e+00 3.3107892e-14 0.0000000e+00 
0.0000000e+00 -2.3543886e-12 0.0000000e+00 
0.0000000e+00 -3.2561941e-13 0.0000000e+00 
0.0000000e+00 -7.4846455e-13 0.0000000e+00 
0.0000000e+00 9.3748495e-14 0.0000000e+00 
0.0000000e+00 -7.9477887e-14 0.0000000e+00 
0.0000000e+00 2.3556811e-14 0.0000000e+00 
0.0000000e+00 6.6790293e-09 0.0000000e+00 
-3.2176420e-08 1.7403151e-09 3.0201338e-08 
1.2311362e-07 -1.0130773e-07 -7.2358661e-09 
1.0501191e-06 -7.7884067e-07 -3.1093239e-07 
3.5415580e-06 -2.9671892e-06 -4.6643450e-07 
7.5355556e-06 -6.8189852e-06 1.3100912e-08 
1.1285384e-05 -1.2025727e-05 1.9038783e-06 
1.2707404e-05 -1.6140781e-05 4.3542177e-06 
1.2098430e-05 -1.6817181e-05 5.7709776e-06 
9.1574484e-06 -1.5249944e-05 6.9811144e-06 
4.6977007e-06 -1.0667133e-05 6.1101719e-06 
1.8104442e-06 -5.8801165e-06 4.0197910e-06 
2.6808578e-07 -2.4952442e-06 2.2160402e-06 
-9.0754085e-08 -9.5668645e-07 1.0466571e-06 
-1.1037928e-07 -3.8558278e-07 4.9331129e-07 
-7.2627749e-08 -1.5189723e-07 2.2445636e-07 
-4.0196959e-08 -6.4870413e-08 1.0456541e-07 
-2.2582393e-08 -2.8235272e-08 5.0781548e-08 
-1.8616459e-08 -1.1964342e-08 3.0598237e-08 
-2.4076156e-08 -3.9710053e-09 2.7822949e-08 
-3.1807105e-08 1.9604836e-09 3.0038382e-08 
-7.3010908e-09 -1.2612641e-08 1.8124711e-08 
1.8202893e-07 -1.1843321e-07 -4.9970385e-08 
1.1789895e-06 -8.6453736e-07 -3.4119492e-07 
4.2637225e-06 -3.4569159e-06 -6.5956920e-07 
8.0740474e-06 -7.4722730e-06 1.4591484e-07 
1.1717158e-05 -1.3259607e-05 2.9564396e-06 
1.2477703e-05 -1.6162525e-05 4.3804744e-06 
1.2251822e-05 -1.6454218e-05 5.5580813e-06 
9.1303491e-06 -1.4910771e-05 6.7191158e-06 
4.3178056e-06 -1.0411363e-05 6.1320097e-06 
1.4031992e-06 -5.1879592e-06 3.7352329e-06 
2.0396611e-07 -2.3268453e-06 2.1139974e-06 
-9.5971465e-08 -8.7769411e-07 9.7217367e-07 
-9.6853078e-08 -3.6114392e-07 4.5615838e-07 
-6.5415279e-08 -1.4597869e-07 2.1111761e-07 
-3.5395050e-08 -6.1984444e-08 9.7128719e-08 
-1.9045737e-08 -2.5719080e-08 4.4735003e-08 
-8.7308614e-09 -1.2019582e-08 2.0694200e-08 
-4.0279851e-09 -5.2360045e-09 9.2387902e-09 
-1.8950139e-09 -2.3470852e-09 4.2424717e-09 
-8.5642571e-10 -1.0361424e-09 1.8847728e-09 
-3.8727388e-10 -4.6579501e-10 8.5107876e-10 
-1.6544759e-10 -2.1786296e-10 3.8228201e-10 
-7.8672964e-11 -9.2550682e-11 1.7103775e-10 
-3.4734944e-11 -4.1294839e-11 7.6030217e-11 
-1.6593135e-11 -1.7085859e-11 3.3767412e-11 
-7.4619009e-12 -7.3025440e-12 1.4767444e-11 
-3.2625487e-12 -3.4408706e-12 6.6926625e-12 
-1.0166328e-12 -1.1956059e-12 2.2186482e-12 
0.0000000e+00 -9.8774282e-15 0.0000000e+00 
0.0000000e+00 -3.8170165e-09 0.0000000e+00 
0.0000000e+00 -1.5797659e-09 0.0000000e+00 
0.0000000e+00 6.0643539e-09 0.0000000e+00 
0.0000000e+00 -7.9401417e-08 0.0000000e+00 
0.0000000e+00 5.7054535e-07 0.0000000e+00 
0.0000000e+00 -3.2187772e-06 0.0000000e+00 
0.0000000e+00 1.4178127e-05 0.0000000e+00 
0.0000000e+00 3.7009078e-05 0.0000000e+00 
0.0000000e+00 -2.0713310e-06 0.0000000e+00 
0.0000000e+00 2.6216048e-05 0.0000000e+00 
0.0000000e+00 2.7093773e-05 0.0000000e+00 
0.0000000e+00 -5.3085828e-06 0.0000000e+00 
0.0000000e+00 -1.1643593e-06 0.0000000e+00 
0.0000000e+00 4.7166072e-08 0.0000000e+00 
0.0000000e+00 -4.1288140e-10 0.0000000e+00 
0.0000000e+00 -2.3412352e-09 0.0000000e+00 
0.0000000e+00 4.4947338e-10 0.0000000e+00 
0.0000000e+00 4.5944723e-10 0.0000000e+00 
0.0000000e+00 2.3496696e-10 0.0000000e+00 
0.0000000e+00 -1.6040654e-10 0.0000000e+00 
0.0000000e+00 -6.6458666e-10 0.0000000e+00 
0.0000000e+00 -2.6368805e-09 0.0000000e+00 
0.0000000e+00 2.9503173e-09 0.0000000e+00 
0.0000000e+00 -4.7823150e-08 0.0000000e+00 
0.0000000e+00 4.9536254e-07 0.0000000e+00 
0.0000000e+00 -5.0398162e-06 0.0000000e+00 
0.0000000e+00 1.2115281e-05 0.0000000e+00 
0.0000000e+00 3.7209858e-05 0.0000000e+00 
0.0000000e+00 1.8315268e-06 0.0000000e+00 
0.0000000e+00 2.6126181e-05 0.0000000e+00 
0.0000000e+00 1.6160640e-05 0.0000000e+00 
0.0000000e+00 -4.5622255e-06 0.0000000e+00 
0.0000000e+00 -6.4281454e-07 0.0000000e+00 
0.0000000e+00 7.2949248e-08 0.0000000e+00 
0.0000000e+00 -1.3516130e-08 0.0000000e+00 
0.0000000e+00 3.9986987e-09 0.0000000e+00 
0.0000000e+00 -7.1427708e-10 0.0000000e+00 
0.0000000e+00 3.2611336e-10 0.0000000e+00 
0.0000000e+00 2.4661612e-10 0.0000000e+00 
0.0000000e+00 9.7082696e-11 0.0000000e+00 
0.0000000e+00 2.0239223e-11 0.0000000e+00 
0.0000000e+00 -6.1207896e-12 0.0000000e+00 
0.0000000e+00 4.5986904e-12 0.0000000e+00 
0.0000000e+00 -1.0732865e-12 0.0000000e+00 
0.0000000e+00 -1.8129496e-12 0.0000000e+00 
0.0000000e+00 2.0502168e-12 0.0000000e+00 
0.0000000e+00 -1.1598924e-13 0.0000000e+00 
0.0000000e+00 1.3135243e-13 0.0000000e+00 
0.0000000e+00 2.0942141e-14 0.0000000e+00 
0.0000000e+00 5.9028493e-14 0.0000000e+00 
0.0000000e+00 2.4286451e-14 0.0000000e+00 
0.0000000e+00 -9.5452163e-14 0.0000000e+00 
0.0000000e+00 4.9301633e-15 0.0000000e+00 
-2.1950639e-08 -1.4736055e-07 1.8984878e-07 
5.0360367e-08 -6.2945054e-07 6.3964313e-07 
-2.1777458e-07 -1.1015279e-06 1.9596357e-06 
8.1781332e-07 -1.5307638e-05 1.4815222e-05 
9.2279115e-06 -4.6629189e-05 5.3524316e-05 
2.4622661e-05 -6.4690379e-05 7.3617273e-05 
2.6512242e-05 -7.3082054e-05 6.2761508e-05 
2.4029236e-05 -7.1439143e-05 7.7035773e-05 
2.7877142e-05 -5.7288318e-05 5.4789711e-05 
1.3972787e-05 -2.7390208e-05 1.6939848e-05 
2.5434447e-06 -6.3908428e-06 3.1338770e-06 
4.7167438e-07 -1.5974165e-06 1.1051045e-06 
4.6469321e-08 -5.5663389e-07 5.1747634e-07 
-3.7955740e-08 -2.0102270e-07 2.3955437e-07 
-3.1717200e-08 -7.4186971e-08 1.0740912e-07 
-1.7724213e-08 -3.2425184e-08 5.0850389e-08 
-9.4348778e-09 -1.5636061e-08 2.5695174e-08 
-6.3196866e-09 -1.2541705e-08 2.0027974e-08 
-7.5567677e-09 -2.2145885e-08 3.2105948e-08 
-1.4591213e-08 -5.7955933e-08 8.1104467e-08 
-4.1335920e-08 -1.7784411e-07 2.3937332e-07 
6.1789805e-08 -7.3702910e-07 7.4709806e-07 
-4.0299065e-07 -1.1795233e-06 2.3098498e-06 
1.1597524e-06 -1.8906023e-05 1.8005474e-05 
1.1875499e-05 -5.1352232e-05 5.8796566e-05 
2.5611367e-05 -6.4711741e-05 7.1431670e-05 
2.3769335e-05 -7.0881506e-05 6.1843741e-05 
2.5163314e-05 -7.0564580e-05 7.7238903e-05 
2.7934746e-05 -5.5670818e-05 5.0956129e-05 
1.2125648e-05 -2.4294186e-05 1.4205155e-05 
2.0436437e-06 -5.4866605e-06 2.8629665e-06 
3.9539927e-07 -1.4797367e-06 1.0782675e-06 
1.6841328e-08 -5.3088343e-07 5.1877760e-07 
-3.4630773e-08 -1.9604195e-07 2.3181292e-07 
-3.1765822e-08 -7.3460583e-08 1.0615366e-07 
-1.8056941e-08 -3.0209975e-08 4.8878686e-08 
-9.0429113e-09 -1.2696189e-08 2.2024921e-08 
-4.1940220e-09 -5.2978080e-09 9.6511235e-09 
-2.2720539e-09 -2.2724249e-09 4.6125441e-09 
-9.6682073e-10 -1.0692616e-09 2.0649424e-09 
-4.4238477e-10 -4.9771176e-10 9.5261177e-10 
-1.9470649e-10 -2.3044419e-10 4.2997239e-10 
-8.8575584e-11 -9.9093928e-11 1.9053795e-10 
-3.9583149e-11 -4.5378545e-11 8.5824556e-11 
-1.9904949e-11 -1.7850296e-11 3.8402170e-11 
-8.9232051e-12 -8.5658026e-12 1.7749973e-11 
-4.2380548e-12 -3.7369131e-12 8.0927747e-12 
-2.0261670e-12 -1.5702091e-12 3.6463874e-12 
-4.8370162e-13 -2.1582233e-13 7.3220282e-13 
0.0000000e+00 -2.1380396e-08 0.0000000e+00 
-5.9594674e-13 -2.7912616e-14 6.8529443e-13 
0.0000000e+00 -3.4378857e-08 0.0000000e+00 
0.0000000e+00 -9.0734183e-08 0.0000000e+00 
0.0000000e+00 -4.8733767e-07 0.0000000e+00 
0.0000000e+00 5.0597737e-06 0.0000000e+00 
0.0000000e+00 -2.5423063e-04 0.0000000e+00 
0.0000000e+00 -4.2499928e-04 0.0000000e+00 
0.0000000e+00 -1.9326965e-04 0.0000000e+00 
0.0000000e+00 -4.5067570e-04 0.0000000e+00 
0.0000000e+00 -2.9786403e-04 0.0000000e+00 
0.0000000e+00 -4.0725950e-05 0.0000000e+00 
0.0000000e+00 1.3017863e-07 0.0000000e+00 
0.0000000e+00 -1.3080222e-07 0.0000000e+00 
0.0000000e+00 -2.5102267e-08 0.0000000e+00 
0.0000000e+00 -5.5849458e-09 0.0000000e+00 
0.0000000e+00 -2.0729354e-09 0.0000000e+00 
0.0000000e+00 -9.1048102e-10 0.0000000e+00 
0.0000000e+00 -7.3816536e-10 0.0000000e+00 
0.0000000e+00 -1.1466061e-09 0.0000000e+00 
0.0000000e+00 -2.9710840e-09 0.0000000e+00 
0.0000000e+00 -9.2628509e-09 0.0000000e+00 