# vtk DataFile Version 4.0
vtk output
ASCII
DATASET UNSTRUCTURED_GRID
POINTS 1664 float
0.0000000e+00 0.0000000e+00 0.0000000e+00 
0.0000000e+00 0.0000000e+00 5.0000000e+01 
5.0000000e+00 0.0000000e+00 0.0000000e+00 
5.0000000e+00 0.0000000e+00 5.0000000e+01 
5.0000000e+00 1.0000000e+00 0.0000000e+00 
5.0000000e+00 1.0000000e+00 5.0000000e+01 
0.0000000e+00 1.0000000e+00 0.0000000e+00 
0.0000000e+00 1.0000000e+00 5.0000000e+01 
5.0000000e+00 2.0000000e+00 0.0000000e+00 
5.0000000e+00 2.0000000e+00 5.0000000e+01 
3.0000000e+00 2.0000000e+00 0.0000000e+00 
3.0000000e+00 2.0000000e+00 5.0000000e+01 
0.0000000e+00 2.0000000e+00 0.0000000e+00 
0.0000000e+00 2.0000000e+00 5.0000000e+01 
1.5000000e+00 3.0000000e+00 0.0000000e+00 
1.5000000e+00 3.0000000e+00 5.0000000e+01 
7.5000000e-01 3.0000000e+00 0.0000000e+00 
7.5000000e-01 3.0000000e+00 5.0000000e+01 
0.0000000e+00 3.0000000e+00 0.0000000e+00 
0.0000000e+00 3.0000000e+00 5.0000000e+01 
0.0000000e+00 0.0000000e+00 1.0000000e+00 
0.0000000e+00 0.0000000e+00 2.0000000e+00 
0.0000000e+00 0.0000000e+00 3.0000000e+00 
0.0000000e+00 0.0000000e+00 4.0000000e+00 
0.0000000e+00 0.0000000e+00 5.0000000e+00 
0.0000000e+00 0.0000000e+00 6.0000000e+00 
0.0000000e+00 0.0000000e+00 7.0000000e+00 
0.0000000e+00 0.0000000e+00 8.0000000e+00 
0.0000000e+00 0.0000000e+00 9.0000000e+00 
0.0000000e+00 0.0000000e+00 1.0000000e+01 
0.0000000e+00 0.0000000e+00 1.1000000e+01 
0.0000000e+00 0.0000000e+00 1.2000000e+01 
0.0000000e+00 0.0000000e+00 1.3000000e+01 
0.0000000e+00 0.0000000e+00 1.4000000e+01 
0.0000000e+00 0.0000000e+00 1.5000000e+01 
0.0000000e+00 0.0000000e+00 1.6000000e+01 
0.0000000e+00 0.0000000e+00 1.7000000e+01 
0.0000000e+00 0.0000000e+00 1.8000000e+01 
0.0000000e+00 0.0000000e+00 1.9000000e+01 
0.0000000e+00 0.0000000e+00 2.0000000e+01 
0.0000000e+00 0.0000000e+00 2.1000000e+01 
0.0000000e+00 0.0000000e+00 2.2000000e+01 
0.0000000e+00 0.0000000e+00 2.3000000e+01 
0.0000000e+00 0.0000000e+00 2.4000000e+01 
0.0000000e+00 0.0000000e+00 2.5000000e+01 
0.0000000e+00 0.0000000e+00 2.6000000e+01 
0.0000000e+00 0.0000000e+00 2.7000000e+01 
0.0000000e+00 0.0000000e+00 2.8000000e+01 
0.0000000e+00 0.0000000e+00 2.9000000e+01 
0.0000000e+00 0.0000000e+00 3.0000000e+01 
0.0000000e+00 0.0000000e+00 3.1000000e+01 
0.0000000e+00 0.0000000e+00 3.2000000e+01 
0.0000000e+00 0.0000000e+00 3.3000000e+01 
0.0000000e+00 0.0000000e+00 3.4000000e+01 
0.0000000e+00 0.0000000e+00 3.5000000e+01 
0.0000000e+00 0.0000000e+00 3.6000000e+01 
0.0000000e+00 0.0000000e+00 3.7000000e+01 
0.0000000e+00 0.0000000e+00 3.8000000e+01 
0.0000000e+00 0.0000000e+00 3.9000000e+01 
0.0000000e+00 0.0000000e+00 4.0000000e+01 
0.0000000e+00 0.0000000e+00 4.1000000e+01 
0.0000000e+00 0.0000000e+00 4.2000000e+01 
0.0000000e+00 0.0000000e+00 4.3000000e+01 
0.0000000e+00 0.0000000e+00 4.4000000e+01 
0.0000000e+00 0.0000000e+00 4.5000000e+01 
0.0000000e+00 0.0000000e+00 4.6000000e+01 
0.0000000e+00 0.0000000e+00 4.7000000e+01 
0.0000000e+00 0.0000000e+00 4.8000000e+01 
0.0000000e+00 0.0000000e+00 4.9000000e+01 
5.0000000e+00 0.0000000e+00 1.0000000e+00 
5.0000000e+00 0.0000000e+00 2.0000000e+00 
5.0000000e+00 0.0000000e+00 3.0000000e+00 
5.0000000e+00 0.0000000e+00 4.0000000e+00 
5.0000000e+00 0.0000000e+00 5.0000000e+00 
5.0000000e+00 0.0000000e+00 6.0000000e+00 
5.0000000e+00 0.0000000e+00 7.0000000e+00 
5.0000000e+00 0.0000000e+00 8.0000000e+00 
5.0000000e+00 0.0000000e+00 9.0000000e+00 
5.0000000e+00 0.0000000e+00 1.0000000e+01 
5.0000000e+00 0.0000000e+00 1.1000000e+01 
5.0000000e+00 0.0000000e+00 1.2000000e+01 
5.0000000e+00 0.0000000e+00 1.3000000e+01 
5.0000000e+00 0.0000000e+00 1.4000000e+01 
5.0000000e+00 0.0000000e+00 1.5000000e+01 
5.0000000e+00 0.0000000e+00 1.6000000e+01 
5.0000000e+00 0.0000000e+00 1.7000000e+01 
5.0000000e+00 0.0000000e+00 1.8000000e+01 
5.0000000e+00 0.0000000e+00 1.9000000e+01 
5.0000000e+00 0.0000000e+00 2.0000000e+01 
5.0000000e+00 0.0000000e+00 2.1000000e+01 
5.0000000e+00 0.0000000e+00 2.2000000e+01 
5.0000000e+00 0.0000000e+00 2.3000000e+01 
5.0000000e+00 0.0000000e+00 2.4000000e+01 
5.0000000e+00 0.0000000e+00 2.5000000e+01 
5.0000000e+00 0.0000000e+00 2.6000000e+01 
5.0000000e+00 0.0000000e+00 2.7000000e+01 
5.0000000e+00 0.0000000e+00 2.8000000e+01 
5.0000000e+00 0.0000000e+00 2.9000000e+01 
5.0000000e+00 0.0000000e+00 3.0000000e+01 
5.0000000e+00 0.0000000e+00 3.1000000e+01 
5.0000000e+00 0.0000000e+00 3.2000000e+01 
5.0000000e+00 0.0000000e+00 3.3000000e+01 
5.0000000e+00 0.0000000e+00 3.4000000e+01 
5.0000000e+00 0.0000000e+00 3.5000000e+01 
5.0000000e+00 0.0000000e+00 3.6000000e+01 
5.0000000e+00 0.0000000e+00 3.7000000e+01 
5.0000000e+00 0.0000000e+00 3.8000000e+01 
5.0000000e+00 0.0000000e+00 3.9000000e+01 
5.0000000e+00 0.0000000e+00 4.0000000e+01 
5.0000000e+00 0.0000000e+00 4.1000000e+01 
5.0000000e+00 0.0000000e+00 4.2000000e+01 
5.0000000e+00 0.0000000e+00 4.3000000e+01 
5.0000000e+00 0.0000000e+00 4.4000000e+01 
5.0000000e+00 0.0000000e+00 4.5000000e+01 
5.0000000e+00 0.0000000e+00 4.6000000e+01 
5.0000000e+00 0.0000000e+00 4.7000000e+01 
5.0000000e+00 0.0000000e+00 4.8000000e+01 
5.0000000e+00 0.0000000e+00 4.9000000e+01 
1.0000000e+00 0.0000000e+00 0.0000000e+00 
2.0000000e+00 0.0000000e+00 0.0000000e+00 
3.0000000e+00 0.0000000e+00 0.0000000e+00 
4.0000000e+00 0.0000000e+00 0.0000000e+00 
1.0000000e+00 0.0000000e+00 5.0000000e+01 
2.0000000e+00 0.0000000e+00 5.0000000e+01 
3.0000000e+00 0.0000000e+00 5.0000000e+01 
4.0000000e+00 0.0000000e+00 5.0000000e+01 
5.0000000e+00 1.0000000e+00 1.0000000e+00 
5.0000000e+00 1.0000000e+00 2.0000000e+00 
5.0000000e+00 1.0000000e+00 3.0000000e+00 
5.0000000e+00 1.0000000e+00 4.0000000e+00 
5.0000000e+00 1.0000000e+00 5.0000000e+00 
5.0000000e+00 1.0000000e+00 6.0000000e+00 
5.0000000e+00 1.0000000e+00 7.0000000e+00 
5.0000000e+00 1.0000000e+00 8.0000000e+00 
5.0000000e+00 1.0000000e+00 9.0000000e+00 
5.0000000e+00 1.0000000e+00 1.0000000e+01 
5.0000000e+00 1.0000000e+00 1.1000000e+01 
5.0000000e+00 1.0000000e+00 1.2000000e+01 
5.0000000e+00 1.0000000e+00 1.3000000e+01 
5.0000000e+00 1.0000000e+00 1.4000000e+01 
5.0000000e+00 1.0000000e+00 1.5000000e+01 
5.0000000e+00 1.0000000e+00 1.6000000e+01 
5.0000000e+00 1.0000000e+00 1.7000000e+01 
5.0000000e+00 1.0000000e+00 1.8000000e+01 
5.0000000e+00 1.0000000e+00 1.9000000e+01 
5.0000000e+00 1.0000000e+00 2.0000000e+01 
5.0000000e+00 1.0000000e+00 2.1000000e+01 
5.0000000e+00 1.0000000e+00 2.2000000e+01 
5.0000000e+00 1.0000000e+00 2.3000000e+01 
5.0000000e+00 1.0000000e+00 2.4000000e+01 
5.0000000e+00 1.0000000e+00 2.5000000e+01 
5.0000000e+00 1.0000000e+00 2.6000000e+01 
5.0000000e+00 1.0000000e+00 2.7000000e+01 
5.0000000e+00 1.0000000e+00 2.8000000e+01 
5.0000000e+00 1.0000000e+00 2.9000000e+01 
5.0000000e+00 1.0000000e+00 3.0000000e+01 
5.0000000e+00 1.0000000e+00 3.1000000e+01 
5.0000000e+00 1.0000000e+00 3.2000000e+01 
5.0000000e+00 1.0000000e+00 3.3000000e+01 
5.0000000e+00 1.0000000e+00 3.4000000e+01 
5.0000000e+00 1.0000000e+00 3.5000000e+01 
5.0000000e+00 1.0000000e+00 3.6000000e+01 
5.0000000e+00 1.0000000e+00 3.7000000e+01 
5.0000000e+00 1.0000000e+00 3.8000000e+01 
5.0000000e+00 1.0000000e+00 3.9000000e+01 
5.0000000e+00 1.0000000e+00 4.0000000e+01 
5.0000000e+00 1.0000000e+00 4.1000000e+01 
5.0000000e+00 1.0000000e+00 4.2000000e+01 
5.0000000e+00 1.0000000e+00 4.3000000e+01 
5.0000000e+00 1.0000000e+00 4.4000000e+01 
5.0000000e+00 1.0000000e+00 4.5000000e+01 
5.0000000e+00 1.0000000e+00 4.6000000e+01 
5.0000000e+00 1.0000000e+00 4.7000000e+01 
5.0000000e+00 1.0000000e+00 4.8000000e+01 
5.0000000e+00 1.0000000e+00 4.9000000e+01 
0.0000000e+00 1.0000000e+00 1.0000000e+00 
0.0000000e+00 1.0000000e+00 2.0000000e+00 
0.0000000e+00 1.0000000e+00 3.0000000e+00 
0.0000000e+00 1.0000000e+00 4.0000000e+00 
0.0000000e+00 1.0000000e+00 5.0000000e+00 
0.0000000e+00 1.0000000e+00 6.0000000e+00 
0.0000000e+00 1.0000000e+00 7.0000000e+00 
0.0000000e+00 1.0000000e+00 8.0000000e+00 
0.0000000e+00 1.0000000e+00 9.0000000e+00 
0.0000000e+00 1.0000000e+00 1.0000000e+01 
0.0000000e+00 1.0000000e+00 1.1000000e+01 
0.0000000e+00 1.0000000e+00 1.2000000e+01 
0.0000000e+00 1.0000000e+00 1.3000000e+01 
0.0000000e+00 1.0000000e+00 1.4000000e+01 
0.0000000e+00 1.0000000e+00 1.5000000e+01 
0.0000000e+00 1.0000000e+00 1.6000000e+01 
0.0000000e+00 1.0000000e+00 1.7000000e+01 
0.0000000e+00 1.0000000e+00 1.8000000e+01 
0.0000000e+00 1.0000000e+00 1.9000000e+01 
0.0000000e+00 1.0000000e+00 2.0000000e+01 
0.0000000e+00 1.0000000e+00 2.1000000e+01 
0.0000000e+00 1.0000000e+00 2.2000000e+01 
0.0000000e+00 1.0000000e+00 2.3000000e+01 
0.0000000e+00 1.0000000e+00 2.4000000e+01 
0.0000000e+00 1.0000000e+00 2.5000000e+01 
0.0000000e+00 1.0000000e+00 2.6000000e+01 
0.0000000e+00 1.0000000e+00 2.7000000e+01 
0.0000000e+00 1.0000000e+00 2.8000000e+01 
0.0000000e+00 1.0000000e+00 2.9000000e+01 
0.0000000e+00 1.0000000e+00 3.0000000e+01 
0.0000000e+00 1.0000000e+00 3.1000000e+01 
0.0000000e+00 1.0000000e+00 3.2000000e+01 
0.0000000e+00 1.0000000e+00 3.3000000e+01 
0.0000000e+00 1.0000000e+00 3.4000000e+01 
0.0000000e+00 1.0000000e+00 3.5000000e+01 
0.0000000e+00 1.0000000e+00 3.6000000e+01 
0.0000000e+00 1.0000000e+00 3.7000000e+01 
0.0000000e+00 1.0000000e+00 3.8000000e+01 
0.0000000e+00 1.0000000e+00 3.9000000e+01 
0.0000000e+00 1.0000000e+00 4.0000000e+01 
0.0000000e+00 1.0000000e+00 4.1000000e+01 
0.0000000e+00 1.0000000e+00 4.2000000e+01 
0.0000000e+00 1.0000000e+00 4.3000000e+01 
0.0000000e+00 1.0000000e+00 4.4000000e+01 
0.0000000e+00 1.0000000e+00 4.5000000e+01 
0.0000000e+00 1.0000000e+00 4.6000000e+01 
0.0000000e+00 1.0000000e+00 4.7000000e+01 
0.0000000e+00 1.0000000e+00 4.8000000e+01 
0.0000000e+00 1.0000000e+00 4.9000000e+01 
4.0000000e+00 1.0000000e+00 0.0000000e+00 
3.0000000e+00 1.0000000e+00 0.0000000e+00 
2.0000000e+00 1.0000000e+00 0.0000000e+00 
1.0000000e+00 1.0000000e+00 0.0000000e+00 
4.0000000e+00 1.0000000e+00 5.0000000e+01 
3.0000000e+00 1.0000000e+00 5.0000000e+01 
[...]
POINT_DATA 1664
FIELD FieldData 2
DISPLACEMENT 3 1664  float
0.0000000e+00 0.0000000e+00 0.0000000e+00 
0.0000000e+00 0.0000000e+00 0.0000000e+00 
0.0000000e+00 0.0000000e+00 0.0000000e+00 
0.0000000e+00 0.0000000e+00 0.0000000e+00 
0.0000000e+00 4.4141341e-10 0.0000000e+00 
0.0000000e+00 2.4407689e-13 0.0000000e+00 
0.0000000e+00 8.6083356e-11 0.0000000e+00 
0.0000000e+00 9.2900373e-13 0.0000000e+00 
0.0000000e+00 3.1609597e-09 0.0000000e+00 
0.0000000e+00 6.0033445e-13 0.0000000e+00 
0.0000000e+00 1.4551698e-08 0.0000000e+00 
0.0000000e+00 1.3976182e-12 0.0000000e+00 
0.0000000e+00 5.1314214e-10 0.0000000e+00 
0.0000000e+00 -1.8844013e-12 0.0000000e+00 
0.0000000e+00 -1.1540026e-08 0.0000000e+00 
-3.6532111e-11 8.7568607e-12 2.9377181e-11 
0.0000000e+00 -7.0965833e-09 0.0000000e+00 
0.0000000e+00 1.0424182e-11 0.0000000e+00 
0.0000000e+00 1.4183509e-09 0.0000000e+00 
0.0000000e+00 4.7871251e-12 0.0000000e+00 
0.0000000e+00 0.0000000e+00 0.0000000e+00 
0.0000000e+00 0.0000000e+00 0.0000000e+00 
0.0000000e+00 0.0000000e+00 0.0000000e+00 
0.0000000e+00 0.0000000e+00 0.0000000e+00 
0.0000000e+00 0.0000000e+00 0.0000000e+00 
0.0000000e+00 0.0000000e+00 0.0000000e+00 
0.0000000e+00 0.0000000e+00 0.0000000e+00 
0.0000000e+00 0.0000000e+00 0.0000000e+00 
0.0000000e+00 0.0000000e+00 0.0000000e+00 
0.0000000e+00 0.0000000e+00 0.0000000e+00 
0.0000000e+00 0.0000000e+00 0.0000000e+00 
0.0000000e+00 0.0000000e+00 0.0000000e+00 
0.0000000e+00 0.0000000e+00 0.0000000e+00 
0.0000000e+00 0.0000000e+00 0.0000000e+00 
0.0000000e+00 0.0000000e+00 0.0000000e+00 
0.0000000e+00 0.0000000e+00 0.0000000e+00 
0.0000000e+00 0.0000000e+00 0.0000000e+00 
0.0000000e+00 0.0000000e+00 0.0000000e+00 
0.0000000e+00 0.0000000e+00 0.0000000e+00 
0.0000000e+00 0.0000000e+00 0.0000000e+00 
0.0000000e+00 0.0000000e+00 0.0000000e+00 
0.0000000e+00 0.0000000e+00 0.0000000e+00 
0.0000000e+00 0.0000000e+00 0.0000000e+00 
0.0000000e+00 0.0000000e+00 0.0000000e+00 
0.0000000e+00 0.0000000e+00 0.0000000e+00 
0.0000000e+00 0.0000000e+00 0.0000000e+00 
0.0000000e+00 0.0000000e+00 0.0000000e+00 
0.0000000e+00 0.0000000e+00 0.0000000e+00 
0.0000000e+00 0.0000000e+00 0.0000000e+00 
0.0000000e+00 0.0000000e+00 0.0000000e+00 
0.0000000e+00 0.0000000e+00 0.0000000e+00 
0.0000000e+00 0.0000000e+00 0.0000000e+00 
0.0000000e+00 0.0000000e+00 0.0000000e+00 
0.0000000e+00 0.0000000e+00 0.0000000e+00 
0.0000000e+00 0.0000000e+00 0.0000000e+00 
0.0000000e+00 0.0000000e+00 0.0000000e+00 
0.0000000e+00 0.0000000e+00 0.0000000e+00 
0.0000000e+00 0.0000000e+00 0.0000000e+00 
0.0000000e+00 0.0000000e+00 0.0000000e+00 
0.0000000e+00 0.0000000e+00 0.0000000e+00 
0.0000000e+00 0.0000000e+00 0.0000000e+00 
0.0000000e+00 0.0000000e+00 0.0000000e+00 
0.0000000e+00 0.0000000e+00 0.0000000e+00 
0.0000000e+00 0.0000000e+00 0.0000000e+00 
0.0000000e+00 0.0000000e+00 0.0000000e+00 
0.0000000e+00 0.0000000e+00 0.0000000e+00 
0.0000000e+00 0.0000000e+00 0.0000000e+00 
0.0000000e+00 0.0000000e+00 0.0000000e+00 
0.0000000e+00 0.0000000e+00 0.0000000e+00 
0.0000000e+00 0.0000000e+00 0.0000000e+00 
0.0000000e+00 0.0000000e+00 0.0000000e+00 
0.0000000e+00 0.0000000e+00 0.0000000e+00 
0.0000000e+00 0.0000000e+00 0.0000000e+00 
0.0000000e+00 0.0000000e+00 0.0000000e+00 
0.0000000e+00 0.0000000e+00 0.0000000e+00 
0.0000000e+00 0.0000000e+00 0.0000000e+00 
0.0000000e+00 0.0000000e+00 0.0000000e+00 
0.0000000e+00 0.0000000e+00 0.0000000e+00 
0.0000000e+00 0.0000000e+00 0.0000000e+00 
0.0000000e+00 0.0000000e+00 0.0000000e+00 
0.0000000e+00 0.0000000e+00 0.0000000e+00 
0.0000000e+00 0.0000000e+00 0.0000000e+00 
0.0000000e+00 0.0000000e+00 0.0000000e+00 
0.0000000e+00 0.0000000e+00 0.0000000e+00 
0.0000000e+00 0.0000000e+00 0.0000000e+00 
0.0000000e+00 0.0000000e+00 0.0000000e+00 
0.0000000e+00 0.0000000e+00 0.0000000e+00 
0.0000000e+00 0.0000000e+00 0.0000000e+00 
0.0000000e+00 0.0000000e+00 0.0000000e+00 
0.0000000e+00 0.0000000e+00 0.0000000e+00 
0.0000000e+00 0.0000000e+00 0.0000000e+00 
0.0000000e+00 0.0000000e+00 0.0000000e+00 
0.0000000e+00 0.0000000e+00 0.0000000e+00 
0.0000000e+00 0.0000000e+00 0.0000000e+00 
0.0000000e+00 0.0000000e+00 0.0000000e+00 
0.0000000e+00 0.0000000e+00 0.0000000e+00 
0.0000000e+00 0.0000000e+00 0.0000000e+00 
0.0000000e+00 0.0000000e+00 0.0000000e+00 
0.0000000e+00 0.0000000e+00 0.0000000e+00 
0.0000000e+00 0.0000000e+00 0.0000000e+00 
0.0000000e+00 0.0000000e+00 0.0000000e+00 
0.0000000e+00 0.0000000e+00 0.0000000e+00 
0.0000000e+00 0.0000000e+00 0.0000000e+00 
0.0000000e+00 0.0000000e+00 0.0000000e+00 
0.0000000e+00 0.0000000e+00 0.0000000e+00 
0.0000000e+00 0.0000000e+00 0.0000000e+00 
0.0000000e+00 0.0000000e+00 0.0000000e+00 
0.0000000e+00 0.0000000e+00 0.0000000e+00 
0.0000000e+00 0.0000000e+00 0.0000000e+00 
0.0000000e+00 0.0000000e+00 0.0000000e+00 
0.0000000e+00 0.0000000e+00 0.0000000e+00 
0.0000000e+00 0.0000000e+00 0.0000000e+00 
0.0000000e+00 0.0000000e+00 0.0000000e+00 
0.0000000e+00 0.0000000e+00 0.0000000e+00 
0.0000000e+00 0.0000000e+00 0.0000000e+00 
0.0000000e+00 0.0000000e+00 0.0000000e+00 
0.0000000e+00 0.0000000e+00 0.0000000e+00 
0.0000000e+00 0.0000000e+00 0.0000000e+00 
0.0000000e+00 0.0000000e+00 0.0000000e+00 
0.0000000e+00 0.0000000e+00 0.0000000e+00 
0.0000000e+00 0.0000000e+00 0.0000000e+00 
0.0000000e+00 0.0000000e+00 0.0000000e+00 
0.0000000e+00 0.0000000e+00 0.0000000e+00 
0.0000000e+00 0.0000000e+00 0.0000000e+00 
0.0000000e+00 0.0000000e+00 0.0000000e+00 
0.0000000e+00 0.0000000e+00 0.0000000e+00 
0.0000000e+00 5.7138239e-11 0.0000000e+00 
0.0000000e+00 -4.9455080e-09 0.0000000e+00 
0.0000000e+00 -3.0891432e-08 0.0000000e+00 
0.0000000e+00 -1.0452148e-07 0.0000000e+00 
0.0000000e+00 -4.1697254e-07 0.0000000e+00 
0.0000000e+00 -6.5140523e-07 0.0000000e+00 
0.0000000e+00 -8.3184796e-07 0.0000000e+00 
0.0000000e+00 -1.7189467e-06 0.0000000e+00 
0.0000000e+00 -1.9072669e-06 0.0000000e+00 
0.0000000e+00 -2.4038341e-06 0.0000000e+00 
0.0000000e+00 -1.4478771e-06 0.0000000e+00 
0.0000000e+00 -1.4040618e-06 0.0000000e+00 
0.0000000e+00 -1.2258074e-06 0.0000000e+00 
0.0000000e+00 -5.4442171e-07 0.0000000e+00 
0.0000000e+00 -5.3331223e-07 0.0000000e+00 
0.0000000e+00 -1.4450372e-07 0.0000000e+00 
0.0000000e+00 -8.9553751e-08 0.0000000e+00 
0.0000000e+00 -1.3466235e-08 0.0000000e+00 
0.0000000e+00 -6.6085408e-09 0.0000000e+00 
0.0000000e+00 -5.3006617e-09 0.0000000e+00 
0.0000000e+00 -4.1515520e-09 0.0000000e+00 
0.0000000e+00 7.1143340e-09 0.0000000e+00 
0.0000000e+00 -8.0746211e-08 0.0000000e+00 
0.0000000e+00 -1.6883850e-07 0.0000000e+00 
0.0000000e+00 -3.1294061e-07 0.0000000e+00 
0.0000000e+00 -6.4896000e-07 0.0000000e+00 
0.0000000e+00 -9.9010106e-07 0.0000000e+00 
0.0000000e+00 -1.3887936e-06 0.0000000e+00 
0.0000000e+00 -1.7778225e-06 0.0000000e+00 
0.0000000e+00 -1.6327366e-06 0.0000000e+00 
0.0000000e+00 -1.7164372e-06 0.0000000e+00 
0.0000000e+00 -1.4883674e-06 0.0000000e+00 
0.0000000e+00 -9.0093027e-07 0.0000000e+00 
0.0000000e+00 -4.1223089e-07 0.0000000e+00 
0.0000000e+00 -4.1457966e-07 0.0000000e+00 
0.0000000e+00 -2.7448294e-07 0.0000000e+00 
0.0000000e+00 -1.0070389e-07 0.0000000e+00 
0.0000000e+00 -3.4643143e-08 0.0000000e+00 
0.0000000e+00 -1.4266663e-09 0.0000000e+00 
0.0000000e+00 -9.4928811e-09 0.0000000e+00 
0.0000000e+00 -2.3716118e-09 0.0000000e+00 
0.0000000e+00 -1.3252118e-09 0.0000000e+00 
0.0000000e+00 -1.6768742e-10 0.0000000e+00 
0.0000000e+00 -3.8418202e-10 0.0000000e+00 
0.0000000e+00 7.7812106e-12 0.0000000e+00 
0.0000000e+00 -1.2683797e-10 0.0000000e+00 
0.0000000e+00 6.0638209e-12 0.0000000e+00 
0.0000000e+00 -2.5672926e-11 0.0000000e+00 
0.0000000e+00 -4.2699752e-13 0.0000000e+00 
0.0000000e+00 -4.1731729e-09 0.0000000e+00 
0.0000000e+00 1.9218762e-09 0.0000000e+00 
0.0000000e+00 -6.8053453e-08 0.0000000e+00 
0.0000000e+00 3.5360458e-07 0.0000000e+00 
0.0000000e+00 -4.3710364e-07 0.0000000e+00 
0.0000000e+00 9.2512882e-06 0.0000000e+00 
0.0000000e+00 1.2857316e-05 0.0000000e+00 
0.0000000e+00 1.5883392e-05 0.0000000e+00 
0.0000000e+00 -7.2504572e-06 0.0000000e+00 
0.0000000e+00 -2.1347039e-06 0.0000000e+00 
0.0000000e+00 -7.9303245e-06 0.0000000e+00 
0.0000000e+00 -8.1728376e-06 0.0000000e+00 
0.0000000e+00 -5.4584252e-06 0.0000000e+00 
0.0000000e+00 4.0420343e-07 0.0000000e+00 
0.0000000e+00 -2.4495102e-06 0.0000000e+00 
0.0000000e+00 -2.2907486e-07 0.0000000e+00 
0.0000000e+00 -7.4144154e-08 0.0000000e+00 
0.0000000e+00 -4.5289728e-08 0.0000000e+00 
0.0000000e+00 -3.6745792e-08 0.0000000e+00 
0.0000000e+00 -1.2919479e-08 0.0000000e+00 
0.0000000e+00 -1.2838050e-08 0.0000000e+00 
0.0000000e+00 -1.4933236e-09 0.0000000e+00 
0.0000000e+00 -1.5312905e-07 0.0000000e+00 
0.0000000e+00 2.2872709e-07 0.0000000e+00 
0.0000000e+00 3.8658379e-07 0.0000000e+00 
0.0000000e+00 3.0415254e-06 0.0000000e+00 
0.0000000e+00 2.1142210e-05 0.0000000e+00 
0.0000000e+00 -3.2561168e-06 0.0000000e+00 
0.0000000e+00 -1.0554282e-05 0.0000000e+00 
0.0000000e+00 3.8067124e-06 0.0000000e+00 
0.0000000e+00 -1.3951581e-05 0.0000000e+00 
0.0000000e+00 -1.2280807e-05 0.0000000e+00 
0.0000000e+00 -3.8956486e-07 0.0000000e+00 
0.0000000e+00 -5.2853816e-06 0.0000000e+00 
0.0000000e+00 1.5927826e-07 0.0000000e+00 
0.0000000e+00 -6.8694578e-07 0.0000000e+00 
0.0000000e+00 -1.3346310e-07 0.0000000e+00 
0.0000000e+00 -3.1080795e-08 0.0000000e+00 
0.0000000e+00 -3.3116081e-08 0.0000000e+00 
0.0000000e+00 1.6844133e-09 0.0000000e+00 
0.0000000e+00 -8.5797405e-09 0.0000000e+00 
0.0000000e+00 -2.9562137e-09 0.0000000e+00 
0.0000000e+00 -1.1881345e-09 0.0000000e+00 
0.0000000e+00 -6.5208144e-11 0.0000000e+00 
0.0000000e+00 -9.1730429e-11 0.0000000e+00 
0.0000000e+00 -1.1968021e-10 0.0000000e+00 
0.0000000e+00 -2.8615828e-11 0.0000000e+00 
0.0000000e+00 -2.1309328e-11 0.0000000e+00 
0.0000000e+00 -3.3190891e-12 0.0000000e+00 
0.0000000e+00 8.4364288e-10 0.0000000e+00 
0.0000000e+00 -9.0061791e-11 0.0000000e+00 
0.0000000e+00 2.1203179e-09 0.0000000e+00 
0.0000000e+00 9.7541708e-10 0.0000000e+00 
0.0000000e+00 -2.3042336e-12 0.0000000e+00 
0.0000000e+00 -6.7862972e-12 0.0000000e+00 
0.0000000e+00 -8.9509771e-12 0.0000000e+00 
0.0000000e+00 -4.5149834e-12 0.0000000e+00 
0.0000000e+00 1.3134773e-08 0.0000000e+00 
0.0000000e+00 4.9426394e-08 0.0000000e+00 
0.0000000e+00 7.8901053e-08 0.0000000e+00 
0.0000000e+00 1.6988915e-07 0.0000000e+00 
0.0000000e+00 -1.8246270e-08 0.0000000e+00 
0.0000000e+00 -4.1799289e-08 0.0000000e+00 
0.0000000e+00 -1.3410701e-07 0.0000000e+00 
0.0000000e+00 -1.4278956e-07 0.0000000e+00 
0.0000000e+00 -7.6129243e-07 0.0000000e+00 
0.0000000e+00 -7.1253169e-07 0.0000000e+00 
0.0000000e+00 -5.0432294e-07 0.0000000e+00 
0.0000000e+00 -4.1130920e-07 0.0000000e+00 
0.0000000e+00 -6.3265549e-07 0.0000000e+00 
0.0000000e+00 2.6590930e-08 0.0000000e+00 
0.0000000e+00 -3.1204885e-07 0.0000000e+00 
0.0000000e+00 7.9263344e-08 0.0000000e+00 
0.0000000e+00 1.5915028e-08 0.0000000e+00 
0.0000000e+00 6.5346653e-09 0.0000000e+00 
0.0000000e+00 4.3733479e-09 0.0000000e+00 
0.0000000e+00 5.0461013e-10 0.0000000e+00 
0.0000000e+00 2.3204208e-08 0.0000000e+00 
0.0000000e+00 4.6234923e-08 0.0000000e+00 
0.0000000e+00 5.5857882e-08 0.0000000e+00 
0.0000000e+00 1.1731179e-07 0.0000000e+00 
0.0000000e+00 2.0838698e-07 0.0000000e+00 
0.0000000e+00 -2.3076083e-07 0.0000000e+00 
0.0000000e+00 -6.8871827e-08 0.0000000e+00 
0.0000000e+00 -5.7224838e-07 0.0000000e+00 
0.0000000e+00 -4.9697877e-07 0.0000000e+00 
0.0000000e+00 -6.1500066e-07 0.0000000e+00 
0.0000000e+00 -5.5850853e-07 0.0000000e+00 
0.0000000e+00 -5.5796090e-07 0.0000000e+00 
0.0000000e+00 -2.9015797e-07 0.0000000e+00 
0.0000000e+00 -4.1101817e-08 0.0000000e+00 
0.0000000e+00 -1.3524968e-07 0.0000000e+00 
0.0000000e+00 -1.5349019e-07 0.0000000e+00 
0.0000000e+00 2.6267671e-08 0.0000000e+00 
0.0000000e+00 -3.0480606e-08 0.0000000e+00 
0.0000000e+00 3.8166887e-09 0.0000000e+00 
0.0000000e+00 -6.4648567e-09 0.0000000e+00 
0.0000000e+00 6.5483885e-10 0.0000000e+00 
0.0000000e+00 2.0821497e-11 0.0000000e+00 
0.0000000e+00 -9.4072840e-11 0.0000000e+00 
0.0000000e+00 -2.7048860e-10 0.0000000e+00 
0.0000000e+00 -2.6470878e-11 0.0000000e+00 
0.0000000e+00 -8.3533541e-11 0.0000000e+00 
0.0000000e+00 9.9176995e-12 0.0000000e+00 
0.0000000e+00 -1.0230686e-11 0.0000000e+00 
0.0000000e+00 2.4087999e-12 0.0000000e+00 
0.0000000e+00 1.6354702e-08 0.0000000e+00 
4.1839421e-08 3.4265625e-08 -7.3919196e-08 
1.4287303e-07 5.1710199e-08 -1.9778862e-07 
4.9952877e-07 -3.3904630e-08 -4.7034783e-07 
1.3334849e-06 -3.4169034e-07 -8.0243785e-07 
2.9444470e-06 -1.3669286e-06 -1.4156436e-06 
6.1258283e-06 -4.0315249e-06 -2.0253644e-06 
1.1266423e-05 -9.0886961e-06 -2.1025321e-06 
1.8347602e-05 -1.6817272e-05 -8.1320240e-07 
2.4183462e-05 -2.4774436e-05 1.2693978e-06 
2.9354949e-05 -3.3640124e-05 6.5461199e-06 
3.0229776e-05 -3.8528389e-05 1.1056597e-05 
2.5712794e-05 -3.8036942e-05 1.3993195e-05 
1.9706891e-05 -3.2437638e-05 1.4490925e-05 
1.1963598e-05 -2.4003279e-05 1.2957134e-05 
5.2846303e-06 -1.4033480e-05 8.8911584e-06 
1.5216132e-06 -7.4061045e-06 5.7675143e-06 
1.1387248e-07 -3.2361306e-06 3.0971278e-06 
-2.1180618e-07 -1.2000362e-06 1.4111530e-06 
-1.5895965e-07 -4.8111588e-07 6.3387080e-07 
-8.2294001e-08 -1.7903929e-07 2.5937396e-07 
-4.7208548e-09 -4.5151516e-08 4.6644452e-08 
1.2289193e-07 1.2848861e-08 -1.2888458e-07 
4.4055994e-07 -6.9922528e-08 -3.7529338e-07 
1.4117044e-06 -4.1422126e-07 -7.6746608e-07 
3.1514312e-06 -1.6047466e-06 -1.5059333e-06 
6.8036088e-06 -4.8590869e-06 -1.7504649e-06 
1.1749220e-05 -9.7400361e-06 -1.9387835e-06 
1.8620702e-05 -1.6906803e-05 -7.0786530e-07 
2.5438798e-05 -2.6346104e-05 2.2874490e-06 
2.8987295e-05 -3.4066466e-05 6.6463040e-06 
3.0470097e-05 -3.8701291e-05 1.1068897e-05 
2.5200032e-05 -3.7692906e-05 1.4205317e-05 
1.8865701e-05 -3.1996657e-05 1.4703466e-05 
1.1708585e-05 -2.3572633e-05 1.2710329e-05 
5.2762957e-06 -1.4221988e-05 8.9146224e-06 
1.2346358e-06 -6.3264933e-06 5.0112717e-06 
2.0627702e-08 -2.5769700e-06 2.5439074e-06 
-1.8249841e-07 -1.1064343e-06 1.2793113e-06 
-1.6015154e-07 -4.4656898e-07 6.0165962e-07 
-9.0443073e-08 -1.8544038e-07 2.7559574e-07 
-4.8034057e-08 -7.6877640e-08 1.2378189e-07 
-2.3467972e-08 -3.3137930e-08 5.6312672e-08 
-1.0264579e-08 -1.5102183e-08 2.5234577e-08 
-5.0214277e-09 -6.3382237e-09 1.1329123e-08 
-2.2785978e-09 -2.8002998e-09 5.0777333e-09 
-1.1006877e-09 -1.1529325e-09 2.2641451e-09 
-4.9451193e-10 -4.9112298e-10 9.8628905e-10 
-2.1481304e-10 -2.3061301e-10 4.4408241e-10 
-6.7966202e-11 -7.9066004e-11 1.4793473e-10 
0.0000000e+00 -1.3385215e-12 0.0000000e+00 
0.0000000e+00 -2.3189586e-09 0.0000000e+00 
0.0000000e+00 -4.8992619e-09 0.0000000e+00 
0.0000000e+00 -4.2591569e-10 0.0000000e+00 
0.0000000e+00 7.7935862e-09 0.0000000e+00 
0.0000000e+00 -1.5776635e-07 0.0000000e+00 
0.0000000e+00 3.6757970e-07 0.0000000e+00 
0.0000000e+00 -7.7194080e-08 0.0000000e+00 
0.0000000e+00 -5.7032275e-06 0.0000000e+00 
0.0000000e+00 2.1897777e-06 0.0000000e+00 
0.0000000e+00 1.4783875e-05 0.0000000e+00 
0.0000000e+00 2.2844935e-05 0.0000000e+00 
0.0000000e+00 4.2328793e-05 0.0000000e+00 
0.0000000e+00 5.6053355e-05 0.0000000e+00 
0.0000000e+00 3.5501638e-05 0.0000000e+00 
0.0000000e+00 2.7662289e-05 0.0000000e+00 
0.0000000e+00 1.7977382e-05 0.0000000e+00 
0.0000000e+00 -4.3964155e-06 0.0000000e+00 
0.0000000e+00 -9.2256602e-07 0.0000000e+00 
0.0000000e+00 2.9255849e-08 0.0000000e+00 
0.0000000e+00 1.0260207e-08 0.0000000e+00 
0.0000000e+00 6.1683463e-09 0.0000000e+00 
0.0000000e+00 -3.6262613e-09 0.0000000e+00 
0.0000000e+00 -6.1390786e-09 0.0000000e+00 
0.0000000e+00 8.6195291e-09 0.0000000e+00 
0.0000000e+00 -1.6896084e-07 0.0000000e+00 
0.0000000e+00 5.5600606e-07 0.0000000e+00 
0.0000000e+00 3.5069792e-07 0.0000000e+00 
0.0000000e+00 -3.5403932e-06 0.0000000e+00 
0.0000000e+00 3.8214744e-06 0.0000000e+00 
0.0000000e+00 2.4214720e-05 0.0000000e+00 
0.0000000e+00 3.2073418e-05 0.0000000e+00 
0.0000000e+00 4.8367227e-05 0.0000000e+00 
0.0000000e+00 4.9756105e-05 0.0000000e+00 
0.0000000e+00 4.0074225e-05 0.0000000e+00 
0.0000000e+00 2.4001924e-05 0.0000000e+00 
0.0000000e+00 2.6665364e-05 0.0000000e+00 
0.0000000e+00 -4.2821453e-06 0.0000000e+00 
0.0000000e+00 -5.0642814e-07 0.0000000e+00 
0.0000000e+00 1.7727137e-08 0.0000000e+00 
0.0000000e+00 -1.8702657e-08 0.0000000e+00 
0.0000000e+00 9.8667883e-09 0.0000000e+00 
0.0000000e+00 -1.9049655e-09 0.0000000e+00 
0.0000000e+00 4.6675719e-10 0.0000000e+00 
0.0000000e+00 4.1413581e-11 0.0000000e+00 
0.0000000e+00 -1.4030208e-10 0.0000000e+00 
0.0000000e+00 2.4458391e-10 0.0000000e+00 
0.0000000e+00 -2.0044143e-11 0.0000000e+00 
0.0000000e+00 1.3268687e-11 0.0000000e+00 
0.0000000e+00 2.8748429e-12 0.0000000e+00 
0.0000000e+00 4.8631945e-12 0.0000000e+00 
0.0000000e+00 2.4447644e-12 0.0000000e+00 
0.0000000e+00 -1.0513699e-11 0.0000000e+00 
0.0000000e+00 -7.3381114e-14 0.0000000e+00 
3.2363172e-09 -3.2977714e-09 2.2484043e-08 
2.7513250e-08 -7.6068702e-08 1.1678827e-07 
1.0684079e-07 -4.7189647e-07 4.9259449e-07 
6.2042267e-07 -1.7132900e-06 2.3641819e-06 
1.4817801e-06 -8.3251452e-06 8.3292471e-06 
-7.7420577e-07 -2.8936074e-05 1.8933284e-05 
3.7868451e-06 -5.7896188e-05 4.2387710e-05 
1.4485741e-05 -9.6310905e-05 7.8808705e-05 
2.8371847e-05 -1.4243589e-04 1.2151659e-04 
4.6412079e-05 -1.7294596e-04 1.5426976e-04 
5.9346821e-05 -1.7414948e-04 1.6158231e-04 
5.7905425e-05 -1.5103708e-04 1.3968245e-04 
4.9343795e-05 -1.1370226e-04 1.0329187e-04 
3.3167416e-05 -6.6481909e-05 5.9872749e-05 
1.3954520e-05 -2.9196739e-05 1.8254173e-05 
2.7085023e-06 -7.5130470e-06 4.1617914e-06 
3.9244870e-07 -1.9081124e-06 1.4754045e-06 
-4.2283870e-09 -6.4505986e-07 6.7231321e-07 
-7.0023262e-08 -2.3259024e-07 3.0788118e-07 
-4.2581298e-08 -9.1164850e-08 1.4003416e-07 
-2.3592310e-08 -3.8175074e-08 8.3212306e-08 
1.4920831e-08 -9.3077624e-08 1.3165105e-07 
9.0002302e-08 -4.3627546e-07 5.1451730e-07 
6.7379858e-07 -1.7904609e-06 2.7124643e-06 
1.3452137e-06 -9.7006996e-06 8.7930139e-06 
-5.0097276e-07 -3.0321906e-05 2.0380581e-05 
4.1134822e-06 -6.0403872e-05 4.5073888e-05 
1.4126999e-05 -1.0151725e-04 8.2603910e-05 
2.9451812e-05 -1.4729159e-04 1.2505618e-04 
4.7873022e-05 -1.7278509e-04 1.5813590e-04 
6.0015809e-05 -1.7350528e-04 1.6222232e-04 
5.8161175e-05 -1.5079592e-04 1.3641242e-04 
4.7874357e-05 -1.0824548e-04 9.9735029e-05 
3.1441679e-05 -6.2580330e-05 5.5516037e-05 
1.2614982e-05 -2.5695061e-05 1.4989899e-05 
2.0408452e-06 -5.9524295e-06 3.3733111e-06 
3.5788173e-07 -1.7057301e-06 1.3348280e-06 
-1.6432722e-08 -5.8078626e-07 6.1182521e-07 
-6.3711582e-08 -2.1439079e-07 2.8256554e-07 
-4.0139138e-08 -8.8057654e-08 1.3091048e-07 
-2.3175904e-08 -3.7544240e-08 6.1937293e-08 
-1.1199002e-08 -1.6323812e-08 2.8004436e-08 
-5.2841540e-09 -6.9116664e-09 1.2518926e-08 
-2.5591527e-09 -3.1071266e-09 5.7630283e-09 
-1.2887005e-09 -1.2070644e-09 2.5654803e-09 
-5.8695498e-10 -5.7024635e-10 1.1858137e-09 
-2.7767635e-10 -2.5101854e-10 5.4136767e-10 
-1.2842198e-10 -9.8124148e-11 2.3286040e-10 
-6.0498224e-11 -2.8940647e-11 9.1216396e-11 
0.0000000e+00 -5.4198184e-09 0.0000000e+00 
-3.8604283e-11 -4.0681993e-12 4.9439473e-11 
0.0000000e+00 -2.6026393e-08 0.0000000e+00 
0.0000000e+00 -9.9398797e-08 0.0000000e+00 
0.0000000e+00 -4.7954615e-07 0.0000000e+00 
0.0000000e+00 -2.8748277e-06 0.0000000e+00 
0.0000000e+00 -1.4054775e-05 0.0000000e+00 
0.0000000e+00 -7.4987940e-05 0.0000000e+00 
0.0000000e+00 -1.9494310e-04 0.0000000e+00 
0.0000000e+00 -3.7198441e-04 0.0000000e+00 
0.0000000e+00 -6.0636428e-04 0.0000000e+00 
0.0000000e+00 -8.1095361e-04 0.0000000e+00 
0.0000000e+00 -8.2699797e-04 0.0000000e+00 
0.0000000e+00 -6.8704318e-04 0.0000000e+00 
0.0000000e+00 -5.0877366e-04 0.0000000e+00 
0.0000000e+00 -2.9805893e-04 0.0000000e+00 
0.0000000e+00 -4.0585845e-05 0.0000000e+00 
0.0000000e+00 -3.9286988e-08 0.0000000e+00 
0.0000000e+00 -1.7744571e-07 0.0000000e+00 
0.0000000e+00 -3.5227021e-08 0.0000000e+00 
0.0000000e+00 -1.2205844e-08 0.0000000e+00 
0.0000000e+00 -7.9696889e-09 0.0000000e+00 