# vtk DataFile Version 4.0
vtk output
ASCII
DATASET UNSTRUCTURED_GRID
POINTS 1664 float
0.0000000e+00 0.0000000e+00 0.0000000e+00 
0.0000000e+00 0.0000000e+00 5.0000000e+01 
5.0000000e+00 0.0000000e+00 0.0000000e+00 
5.0000000e+00 0.0000000e+00 5.0000000e+01 
5.0000000e+00 1.0000000e+00 0.0000000e+00 
5.0000000e+00 1.0000000e+00 5.0000000e+01 
0.0000000e+00 1.0000000e+00 0.0000000e+00 
0.0000000e+00 1.0000000e+00 5.0000000e+01 
5.0000000e+00 2.0000000e+00 0.0000000e+00 
5.0000000e+00 2.0000000e+00 5.0000000e+01 
3.0000000e+00 2.0000000e+00 0.0000000e+00 
3.0000000e+00 2.0000000e+00 5.0000000e+01 
0.0000000e+00 2.0000000e+00 0.0000000e+00 
0.0000000e+00 2.0000000e+00 5.0000000e+01 
1.5000000e+00 3.0000000e+00 0.0000000e+00 
1.5000000e+00 3.0000000e+00 5.0000000e+01 
7.5000000e-01 3.0000000e+00 0.0000000e+00 
7.5000000e-01 3.0000000e+00 5.0000000e+01 
0.0000000e+00 3.0000000e+00 0.0000000e+00 
0.0000000e+00 3.0000000e+00 5.0000000e+01 
0.0000000e+00 0.0000000e+00 1.0000000e+00 
0.0000000e+00 0.0000000e+00 2.0000000e+00 
0.0000000e+00 0.0000000e+00 3.0000000e+00 
0.0000000e+00 0.0000000e+00 4.0000000e+00 
0.0000000e+00 0.0000000e+00 5.0000000e+00 
0.0000000e+00 0.0000000e+00 6.0000000e+00 
0.0000000e+00 0.0000000e+00 7.0000000e+00 
0.0000000e+00 0.0000000e+00 8.0000000e+00 
0.0000000e+00 0.0000000e+00 9.0000000e+00 
0.0000000e+00 0.0000000e+00 1.0000000e+01 
0.0000000e+00 0.0000000e+00 1.1000000e+01 
0.0000000e+00 0.0000000e+00 1.2000000e+01 
0.0000000e+00 0.0000000e+00 1.3000000e+01 
0.0000000e+00 0.0000000e+00 1.4000000e+01 
0.0000000e+00 0.0000000e+00 1.5000000e+01 
0.0000000e+00 0.0000000e+00 1.6000000e+01 
0.0000000e+00 0.0000000e+00 1.7000000e+01 
0.0000000e+00 0.0000000e+00 1.8000000e+01 
0.0000000e+00 0.0000000e+00 1.9000000e+01 
0.0000000e+00 0.0000000e+00 2.0000000e+01 
0.0000000e+00 0.0000000e+00 2.1000000e+01 
0.0000000e+00 0.0000000e+00 2.2000000e+01 
0.0000000e+00 0.0000000e+00 2.3000000e+01 
0.0000000e+00 0.0000000e+00 2.4000000e+01 
0.0000000e+00 0.0000000e+00 2.5000000e+01 
0.0000000e+00 0.0000000e+00 2.6000000e+01 
0.0000000e+00 0.0000000e+00 2.7000000e+01 
0.0000000e+00 0.0000000e+00 2.8000000e+01 
0.0000000e+00 0.0000000e+00 2.9000000e+01 
0.0000000e+00 0.0000000e+00 3.0000000e+01 
0.0000000e+00 0.0000000e+00 3.1000000e+01 
0.0000000e+00 0.0000000e+00 3.2000000e+01 
0.0000000e+00 0.0000000e+00 3.3000000e+01 
0.0000000e+00 0.0000000e+00 3.4000000e+01 
0.0000000e+00 0.0000000e+00 3.5000000e+01 
0.0000000e+00 0.0000000e+00 3.6000000e+01 
0.0000000e+00 0.0000000e+00 3.7000000e+01 
0.0000000e+00 0.0000000e+00 3.8000000e+01 
0.0000000e+00 0.0000000e+00 3.9000000e+01 
0.0000000e+00 0.0000000e+00 4.0000000e+01 
0.0000000e+00 0.0000000e+00 4.1000000e+01 
0.0000000e+00 0.0000000e+00 4.2000000e+01 
0.0000000e+00 0.0000000e+00 4.3000000e+01 
0.0000000e+00 0.0000000e+00 4.4000000e+01 
0.0000000e+00 0.0000000e+00 4.5000000e+01 
0.0000000e+00 0.0000000e+00 4.6000000e+01 
0.0000000e+00 0.0000000e+00 4.7000000e+01 
0.0000000e+00 0.0000000e+00 4.8000000e+01 
0.0000000e+00 0.0000000e+00 4.9000000e+01 
5.0000000e+00 0.0000000e+00 1.0000000e+00 
5.0000000e+00 0.0000000e+00 2.0000000e+00 
5.0000000e+00 0.0000000e+00 3.0000000e+00 
5.0000000e+00 0.0000000e+00 4.0000000e+00 
5.0000000e+00 0.0000000e+00 5.0000000e+00 
5.0000000e+00 0.0000000e+00 6.0000000e+00 
5.0000000e+00 0.0000000e+00 7.0000000e+00 
5.0000000e+00 0.0000000e+00 8.0000000e+00 
5.0000000e+00 0.0000000e+00 9.0000000e+00 
5.0000000e+00 0.0000000e+00 1.0000000e+01 
5.0000000e+00 0.0000000e+00 1.1000000e+01 
5.0000000e+00 0.0000000e+00 1.2000000e+01 
5.0000000e+00 0.0000000e+00 1.3000000e+01 
5.0000000e+00 0.0000000e+00 1.4000000e+01 
5.0000000e+00 0.0000000e+00 1.5000000e+01 
5.0000000e+00 0.0000000e+00 1.6000000e+01 
5.0000000e+00 0.0000000e+00 1.7000000e+01 
5.0000000e+00 0.0000000e+00 1.8000000e+01 
5.0000000e+00 0.0000000e+00 1.9000000e+01 
5.0000000e+00 0.0000000e+00 2.0000000e+01 
5.0000000e+00 0.0000000e+00 2.1000000e+01 
5.0000000e+00 0.0000000e+00 2.2000000e+01 
5.0000000e+00 0.0000000e+00 2.3000000e+01 
5.0000000e+00 0.0000000e+00 2.4000000e+01 
5.0000000e+00 0.0000000e+00 2.5000000e+01 
5.0000000e+00 0.0000000e+00 2.6000000e+01 
5.0000000e+00 0.0000000e+00 2.7000000e+01 
5.0000000e+00 0.0000000e+00 2.8000000e+01 
5.0000000e+00 0.0000000e+00 2.9000000e+01 
5.0000000e+00 0.0000000e+00 3.0000000e+01 
5.0000000e+00 0.0000000e+00 3.1000000e+01 
5.0000000e+00 0.0000000e+00 3.2000000e+01 
5.0000000e+00 0.0000000e+00 3.3000000e+01 
5.0000000e+00 0.0000000e+00 3.4000000e+01 
5.0000000e+00 0.0000000e+00 3.5000000e+01 
5.0000000e+00 0.0000000e+00 3.6000000e+01 
5.0000000e+00 0.0000000e+00 3.7000000e+01 
5.0000000e+00 0.0000000e+00 3.8000000e+01 
5.0000000e+00 0.0000000e+00 3.9000000e+01 
5.0000000e+00 0.0000000e+00 4.0000000e+01 
5.0000000e+00 0.0000000e+00 4.1000000e+01 
5.0000000e+00 0.0000000e+00 4.2000000e+01 
5.0000000e+00 0.0000000e+00 4.3000000e+01 
5.0000000e+00 0.0000000e+00 4.4000000e+01 
5.0000000e+00 0.0000000e+00 4.5000000e+01 
5.0000000e+00 0.0000000e+00 4.6000000e+01 
5.0000000e+00 0.0000000e+00 4.7000000e+01 
5.0000000e+00 0.0000000e+00 4.8000000e+01 
5.0000000e+00 0.0000000e+00 4.9000000e+01 
1.0000000e+00 0.0000000e+00 0.0000000e+00 
2.0000000e+00 0.0000000e+00 0.0000000e+00 
3.0000000e+00 0.0000000e+00 0.0000000e+00 
4.0000000e+00 0.0000000e+00 0.0000000e+00 
1.0000000e+00 0.0000000e+00 5.0000000e+01 
2.0000000e+00 0.0000000e+00 5.0000000e+01 
3.0000000e+00 0.0000000e+00 5.0000000e+01 
4.0000000e+00 0.0000000e+00 5.0000000e+01 
5.0000000e+00 1.0000000e+00 1.0000000e+00 
5.0000000e+00 1.0000000e+00 2.0000000e+00 
5.0000000e+00 1.0000000e+00 3.0000000e+00 
5.0000000e+00 1.0000000e+00 4.0000000e+00 
5.0000000e+00 1.0000000e+00 5.0000000e+00 
5.0000000e+00 1.0000000e+00 6.0000000e+00 
5.0000000e+00 1.0000000e+00 7.0000000e+00 
5.0000000e+00 1.0000000e+00 8.0000000e+00 
5.0000000e+00 1.0000000e+00 9.0000000e+00 
5.0000000e+00 1.0000000e+00 1.0000000e+01 
5.0000000e+00 1.0000000e+00 1.1000000e+01 
5.0000000e+00 1.0000000e+00 1.2000000e+01 
5.0000000e+00 1.0000000e+00 1.3000000e+01 
5.0000000e+00 1.0000000e+00 1.4000000e+01 
5.0000000e+00 1.0000000e+00 1.5000000e+01 
5.0000000e+00 1.0000000e+00 1.6000000e+01 
5.0000000e+00 1.0000000e+00 1.7000000e+01 
5.0000000e+00 1.0000000e+00 1.8000000e+01 
5.0000000e+00 1.0000000e+00 1.9000000e+01 
5.0000000e+00 1.0000000e+00 2.0000000e+01 
5.0000000e+00 1.0000000e+00 2.1000000e+01 
5.0000000e+00 1.0000000e+00 2.2000000e+01 
5.0000000e+00 1.0000000e+00 2.3000000e+01 
5.0000000e+00 1.0000000e+00 2.4000000e+01 
5.0000000e+00 1.0000000e+00 2.5000000e+01 
5.0000000e+00 1.0000000e+00 2.6000000e+01 
5.0000000e+00 1.0000000e+00 2.7000000e+01 
5.0000000e+00 1.0000000e+00 2.8000000e+01 
5.0000000e+00 1.0000000e+00 2.9000000e+01 
5.0000000e+00 1.0000000e+00 3.0000000e+01 
5.0000000e+00 1.0000000e+00 3.1000000e+01 
5.0000000e+00 1.0000000e+00 3.2000000e+01 
5.0000000e+00 1.0000000e+00 3.3000000e+01 
5.0000000e+00 1.0000000e+00 3.4000000e+01 
5.0000000e+00 1.0000000e+00 3.5000000e+01 
5.0000000e+00 1.0000000e+00 3.6000000e+01 
5.0000000e+00 1.0000000e+00 3.7000000e+01 
5.0000000e+00 1.0000000e+00 3.8000000e+01 
5.0000000e+00 1.0000000e+00 3.9000000e+01 
5.0000000e+00 1.0000000e+00 4.0000000e+01 
5.0000000e+00 1.0000000e+00 4.1000000e+01 
5.0000000e+00 1.0000000e+00 4.2000000e+01 
5.0000000e+00 1.0000000e+00 4.3000000e+01 
5.0000000e+00 1.0000000e+00 4.4000000e+01 
5.0000000e+00 1.0000000e+00 4.5000000e+01 
5.0000000e+00 1.0000000e+00 4.6000000e+01 
5.0000000e+00 1.0000000e+00 4.7000000e+01 
5.0000000e+00 1.0000000e+00 4.8000000e+01 
5.0000000e+00 1.0000000e+00 4.9000000e+01 
0.0000000e+00 1.0000000e+00 1.0000000e+00 
0.0000000e+00 1.0000000e+00 2.0000000e+00 
0.0000000e+00 1.0000000e+00 3.0000000e+00 
0.0000000e+00 1.0000000e+00 4.0000000e+00 
0.0000000e+00 1.0000000e+00 5.0000000e+00 
0.0000000e+00 1.0000000e+00 6.0000000e+00 
0.0000000e+00 1.0000000e+00 7.0000000e+00 
0.0000000e+00 1.0000000e+00 8.0000000e+00 
0.0000000e+00 1.0000000e+00 9.0000000e+00 
0.0000000e+00 1.0000000e+00 1.0000000e+01 
0.0000000e+00 1.0000000e+00 1.1000000e+01 
0.0000000e+00 1.0000000e+00 1.2000000e+01 
0.0000000e+00 1.0000000e+00 1.3000000e+01 
0.0000000e+00 1.0000000e+00 1.4000000e+01 
0.0000000e+00 1.0000000e+00 1.5000000e+01 
0.0000000e+00 1.0000000e+00 1.6000000e+01 
0.0000000e+00 1.0000000e+00 1.7000000e+01 
0.0000000e+00 1.0000000e+00 1.8000000e+01 
0.0000000e+00 1.0000000e+00 1.9000000e+01 
0.0000000e+00 1.0000000e+00 2.0000000e+01 
0.0000000e+00 1.0000000e+00 2.1000000e+01 
0.0000000e+00 1.0000000e+00 2.2000000e+01 
0.0000000e+00 1.0000000e+00 2.3000000e+01 
0.0000000e+00 1.0000000e+00 2.4000000e+01 
0.0000000e+00 1.0000000e+00 2.5000000e+01 
0.0000000e+00 1.0000000e+00 2.6000000e+01 
0.0000000e+00 1.0000000e+00 2.7000000e+01 
0.0000000e+00 1.0000000e+00 2.8000000e+01 
0.0000000e+00 1.0000000e+00 2.9000000e+01 
0.0000000e+00 1.0000000e+00 3.0000000e+01 
0.0000000e+00 1.0000000e+00 3.1000000e+01 
0.0000000e+00 1.0000000e+00 3.2000000e+01 
0.0000000e+00 1.0000000e+00 3.3000000e+01 
0.0000000e+00 1.0000000e+00 3.4000000e+01 
0.0000000e+00 1.0000000e+00 3.5000000e+01 
0.0000000e+00 1.0000000e+00 3.6000000e+01 
0.0000000e+00 1.0000000e+00 3.7000000e+01 
0.0000000e+00 1.0000000e+00 3.8000000e+01 
0.0000000e+00 1.0000000e+00 3.9000000e+01 
0.0000000e+00 1.0000000e+00 4.0000000e+01 
0.0000000e+00 1.0000000e+00 4.1000000e+01 
0.0000000e+00 1.0000000e+00 4.2000000e+01 
0.0000000e+00 1.0000000e+00 4.3000000e+01 
0.0000000e+00 1.0000000e+00 4.4000000e+01 
0.0000000e+00 1.0000000e+00 4.5000000e+01 
0.0000000e+00 1.0000000e+00 4.6000000e+01 
0.0000000e+00 1.0000000e+00 4.7000000e+01 
0.0000000e+00 1.0000000e+00 4.8000000e+01 
0.0000000e+00 1.0000000e+00 4.9000000e+01 
4.0000000e+00 1.0000000e+00 0.0000000e+00 
3.0000000e+00 1.0000000e+00 0.0000000e+00 
2.0000000e+00 1.0000000e+00 0.0000000e+00 
1.0000000e+00 1.0000000e+00 0.0000000e+00 
4.0000000e+00 1.0000000e+00 5.0000000e+01 
3.0000000e+00 1.0000000e+00 5.0000000e+01 
[...]
POINT_DATA 1664
FIELD FieldData 2
DISPLACEMENT 3 1664  float
0.0000000e+00 0.0000000e+00 0.0000000e+00 
0.0000000e+00 0.0000000e+00 0.0000000e+00 
0.0000000e+00 0.0000000e+00 0.0000000e+00 
0.0000000e+00 0.0000000e+00 0.0000000e+00 
0.0000000e+00 1.2201470e-11 0.0000000e+00 
0.0000000e+00 1.5637615e-15 0.0000000e+00 
0.0000000e+00 1.3483746e-11 0.0000000e+00 
0.0000000e+00 3.0150538e-15 0.0000000e+00 
0.0000000e+00 -1.4193041e-10 0.0000000e+00 
0.0000000e+00 2.4325469e-15 0.0000000e+00 
0.0000000e+00 1.9256752e-10 0.0000000e+00 
0.0000000e+00 3.0598411e-15 0.0000000e+00 
0.0000000e+00 -6.7300124e-11 0.0000000e+00 
0.0000000e+00 -2.8059521e-15 0.0000000e+00 
0.0000000e+00 -1.1415564e-09 0.0000000e+00 
-1.2871233e-13 3.5222120e-14 9.5027237e-14 
0.0000000e+00 -8.5296409e-10 0.0000000e+00 
0.0000000e+00 1.9642972e-14 0.0000000e+00 
0.0000000e+00 1.3748442e-11 0.0000000e+00 
0.0000000e+00 5.4613847e-15 0.0000000e+00 
0.0000000e+00 0.0000000e+00 0.0000000e+00 
0.0000000e+00 0.0000000e+00 0.0000000e+00 
0.0000000e+00 0.0000000e+00 0.0000000e+00 
0.0000000e+00 0.0000000e+00 0.0000000e+00 
0.0000000e+00 0.0000000e+00 0.0000000e+00 
0.0000000e+00 0.0000000e+00 0.0000000e+00 
0.0000000e+00 0.0000000e+00 0.0000000e+00 
0.0000000e+00 0.0000000e+00 0.0000000e+00 
0.0000000e+00 0.0000000e+00 0.0000000e+00 
0.0000000e+00 0.0000000e+00 0.0000000e+00 
0.0000000e+00 0.0000000e+00 0.0000000e+00 
0.0000000e+00 0.0000000e+00 0.0000000e+00 
0.0000000e+00 0.0000000e+00 0.0000000e+00 
0.0000000e+00 0.0000000e+00 0.0000000e+00 
0.0000000e+00 0.0000000e+00 0.0000000e+00 
0.0000000e+00 0.0000000e+00 0.0000000e+00 
0.0000000e+00 0.0000000e+00 0.0000000e+00 
0.0000000e+00 0.0000000e+00 0.0000000e+00 
0.0000000e+00 0.0000000e+00 0.0000000e+00 
0.0000000e+00 0.0000000e+00 0.0000000e+00 
0.0000000e+00 0.0000000e+00 0.0000000e+00 
0.0000000e+00 0.0000000e+00 0.0000000e+00 
0.0000000e+00 0.0000000e+00 0.0000000e+00 
0.0000000e+00 0.0000000e+00 0.0000000e+00 
0.0000000e+00 0.0000000e+00 0.0000000e+00 
0.0000000e+00 0.0000000e+00 0.0000000e+00 
0.0000000e+00 0.0000000e+00 0.0000000e+00 
0.0000000e+00 0.0000000e+00 0.0000000e+00 
0.0000000e+00 0.0000000e+00 0.0000000e+00 
0.0000000e+00 0.0000000e+00 0.0000000e+00 
0.0000000e+00 0.0000000e+00 0.0000000e+00 
0.0000000e+00 0.0000000e+00 0.0000000e+00 
0.0000000e+00 0.0000000e+00 0.0000000e+00 
0.0000000e+00 0.0000000e+00 0.0000000e+00 
0.0000000e+00 0.0000000e+00 0.0000000e+00 
0.0000000e+00 0.0000000e+00 0.0000000e+00 
0.0000000e+00 0.0000000e+00 0.0000000e+00 
0.0000000e+00 0.0000000e+00 0.0000000e+00 
0.0000000e+00 0.0000000e+00 0.0000000e+00 
0.0000000e+00 0.0000000e+00 0.0000000e+00 
0.0000000e+00 0.0000000e+00 0.0000000e+00 
0.0000000e+00 0.0000000e+00 0.0000000e+00 
0.0000000e+00 0.0000000e+00 0.0000000e+00 
0.0000000e+00 0.0000000e+00 0.0000000e+00 
0.0000000e+00 0.0000000e+00 0.0000000e+00 
0.0000000e+00 0.0000000e+00 0.0000000e+00 
0.0000000e+00 0.0000000e+00 0.0000000e+00 
0.0000000e+00 0.0000000e+00 0.0000000e+00 
0.0000000e+00 0.0000000e+00 0.0000000e+00 
0.0000000e+00 0.0000000e+00 0.0000000e+00 
0.0000000e+00 0.0000000e+00 0.0000000e+00 
0.0000000e+00 0.0000000e+00 0.0000000e+00 
0.0000000e+00 0.0000000e+00 0.0000000e+00 
0.0000000e+00 0.0000000e+00 0.0000000e+00 
0.0000000e+00 0.0000000e+00 0.0000000e+00 
0.0000000e+00 0.0000000e+00 0.0000000e+00 
0.0000000e+00 0.0000000e+00 0.0000000e+00 
0.0000000e+00 0.0000000e+00 0.0000000e+00 
0.0000000e+00 0.0000000e+00 0.0000000e+00 
0.0000000e+00 0.0000000e+00 0.0000000e+00 
0.0000000e+00 0.0000000e+00 0.0000000e+00 
0.0000000e+00 0.0000000e+00 0.0000000e+00 
0.0000000e+00 0.0000000e+00 0.0000000e+00 
0.0000000e+00 0.0000000e+00 0.0000000e+00 
0.0000000e+00 0.0000000e+00 0.0000000e+00 
0.0000000e+00 0.0000000e+00 0.0000000e+00 
0.0000000e+00 0.0000000e+00 0.0000000e+00 
0.0000000e+00 0.0000000e+00 0.0000000e+00 
0.0000000e+00 0.0000000e+00 0.0000000e+00 
0.0000000e+00 0.0000000e+00 0.0000000e+00 
0.0000000e+00 0.0000000e+00 0.0000000e+00 
0.0000000e+00 0.0000000e+00 0.0000000e+00 
0.0000000e+00 0.0000000e+00 0.0000000e+00 
0.0000000e+00 0.0000000e+00 0.0000000e+00 
0.0000000e+00 0.0000000e+00 0.0000000e+00 
0.0000000e+00 0.0000000e+00 0.0000000e+00 
0.0000000e+00 0.0000000e+00 0.0000000e+00 
0.0000000e+00 0.0000000e+00 0.0000000e+00 
0.0000000e+00 0.0000000e+00 0.0000000e+00 
0.0000000e+00 0.0000000e+00 0.0000000e+00 
0.0000000e+00 0.0000000e+00 0.0000000e+00 
0.0000000e+00 0.0000000e+00 0.0000000e+00 
0.0000000e+00 0.0000000e+00 0.0000000e+00 
0.0000000e+00 0.0000000e+00 0.0000000e+00 
0.0000000e+00 0.0000000e+00 0.0000000e+00 
0.0000000e+00 0.0000000e+00 0.0000000e+00 
0.0000000e+00 0.0000000e+00 0.0000000e+00 
0.0000000e+00 0.0000000e+00 0.0000000e+00 
0.0000000e+00 0.0000000e+00 0.0000000e+00 
0.0000000e+00 0.0000000e+00 0.0000000e+00 
0.0000000e+00 0.0000000e+00 0.0000000e+00 
0.0000000e+00 0.0000000e+00 0.0000000e+00 
0.0000000e+00 0.0000000e+00 0.0000000e+00 
0.0000000e+00 0.0000000e+00 0.0000000e+00 
0.0000000e+00 0.0000000e+00 0.0000000e+00 
0.0000000e+00 0.0000000e+00 0.0000000e+00 
0.0000000e+00 0.0000000e+00 0.0000000e+00 
0.0000000e+00 0.0000000e+00 0.0000000e+00 
0.0000000e+00 0.0000000e+00 0.0000000e+00 
0.0000000e+00 0.0000000e+00 0.0000000e+00 
0.0000000e+00 0.0000000e+00 0.0000000e+00 
0.0000000e+00 0.0000000e+00 0.0000000e+00 
0.0000000e+00 0.0000000e+00 0.0000000e+00 
0.0000000e+00 0.0000000e+00 0.0000000e+00 
0.0000000e+00 0.0000000e+00 0.0000000e+00 
0.0000000e+00 0.0000000e+00 0.0000000e+00 
0.0000000e+00 5.7319326e-11 0.0000000e+00 
0.0000000e+00 1.6914244e-10 0.0000000e+00 
0.0000000e+00 3.0287534e-10 0.0000000e+00 
0.0000000e+00 -4.2441171e-09 0.0000000e+00 
0.0000000e+00 -1.8971418e-08 0.0000000e+00 
0.0000000e+00 -2.4014858e-08 0.0000000e+00 
0.0000000e+00 -2.6651593e-08 0.0000000e+00 
0.0000000e+00 -4.1469022e-08 0.0000000e+00 
0.0000000e+00 -3.1063298e-08 0.0000000e+00 
0.0000000e+00 -2.1340687e-08 0.0000000e+00 
0.0000000e+00 -2.1549303e-08 0.0000000e+00 
0.0000000e+00 -2.9918286e-09 0.0000000e+00 
0.0000000e+00 -4.0166146e-09 0.0000000e+00 
0.0000000e+00 -1.3607611e-09 0.0000000e+00 
0.0000000e+00 -8.6085683e-10 0.0000000e+00 
0.0000000e+00 -2.6856067e-10 0.0000000e+00 
0.0000000e+00 -7.8021513e-11 0.0000000e+00 
0.0000000e+00 5.1110457e-12 0.0000000e+00 
0.0000000e+00 4.9154673e-11 0.0000000e+00 
0.0000000e+00 1.1165481e-10 0.0000000e+00 
0.0000000e+00 1.1280541e-10 0.0000000e+00 
0.0000000e+00 -6.5490946e-10 0.0000000e+00 
0.0000000e+00 -5.5570051e-09 0.0000000e+00 
0.0000000e+00 -6.0165291e-09 0.0000000e+00 
0.0000000e+00 -2.0287384e-08 0.0000000e+00 
0.0000000e+00 -2.7456265e-08 0.0000000e+00 
0.0000000e+00 -2.5139393e-08 0.0000000e+00 
0.0000000e+00 -2.7531931e-08 0.0000000e+00 
0.0000000e+00 -2.3068937e-08 0.0000000e+00 
0.0000000e+00 -1.6546631e-08 0.0000000e+00 
0.0000000e+00 -8.4234957e-09 0.0000000e+00 
0.0000000e+00 -9.5552704e-09 0.0000000e+00 
0.0000000e+00 -2.7271960e-09 0.0000000e+00 
0.0000000e+00 3.2928030e-10 0.0000000e+00 
0.0000000e+00 -6.2072691e-10 0.0000000e+00 
0.0000000e+00 -3.7136719e-10 0.0000000e+00 
0.0000000e+00 -1.4067952e-10 0.0000000e+00 
0.0000000e+00 -3.6033249e-11 0.0000000e+00 
0.0000000e+00 -1.7758706e-13 0.0000000e+00 
0.0000000e+00 -1.1543210e-11 0.0000000e+00 
0.0000000e+00 -3.7424933e-12 0.0000000e+00 
0.0000000e+00 -1.5216261e-12 0.0000000e+00 
0.0000000e+00 -7.8945402e-15 0.0000000e+00 
0.0000000e+00 -5.2673203e-13 0.0000000e+00 
0.0000000e+00 -1.7030497e-17 0.0000000e+00 
0.0000000e+00 -1.9355596e-13 0.0000000e+00 
0.0000000e+00 1.6231467e-14 0.0000000e+00 
0.0000000e+00 -4.1123819e-14 0.0000000e+00 
0.0000000e+00 -4.2312244e-17 0.0000000e+00 
0.0000000e+00 2.0052469e-10 0.0000000e+00 
0.0000000e+00 -7.4758588e-10 0.0000000e+00 
0.0000000e+00 5.4656106e-09 0.0000000e+00 
0.0000000e+00 -6.4186749e-09 0.0000000e+00 
0.0000000e+00 3.0367949e-07 0.0000000e+00 
0.0000000e+00 -1.3486119e-06 0.0000000e+00 
0.0000000e+00 -1.9355834e-06 0.0000000e+00 
0.0000000e+00 -1.2402638e-06 0.0000000e+00 
0.0000000e+00 4.4911623e-08 0.0000000e+00 
0.0000000e+00 3.7484628e-07 0.0000000e+00 
0.0000000e+00 -4.1716457e-09 0.0000000e+00 
0.0000000e+00 -3.2303234e-08 0.0000000e+00 
0.0000000e+00 5.0633764e-10 0.0000000e+00 
0.0000000e+00 -3.1068030e-09 0.0000000e+00 
0.0000000e+00 -9.4920172e-10 0.0000000e+00 
0.0000000e+00 -1.8652957e-10 0.0000000e+00 
0.0000000e+00 -8.7365573e-11 0.0000000e+00 
0.0000000e+00 -2.6943087e-11 0.0000000e+00 
0.0000000e+00 -9.7673834e-11 0.0000000e+00 
0.0000000e+00 4.9496879e-11 0.0000000e+00 
0.0000000e+00 -2.4877866e-10 0.0000000e+00 
0.0000000e+00 -7.7870987e-10 0.0000000e+00 
0.0000000e+00 -3.4528835e-09 0.0000000e+00 
0.0000000e+00 -7.2386968e-08 0.0000000e+00 
0.0000000e+00 4.7614833e-08 0.0000000e+00 
0.0000000e+00 -4.2146070e-07 0.0000000e+00 
0.0000000e+00 -2.4328533e-06 0.0000000e+00 
0.0000000e+00 1.2344275e-06 0.0000000e+00 
0.0000000e+00 5.7768425e-08 0.0000000e+00 
0.0000000e+00 -9.6178337e-07 0.0000000e+00 
0.0000000e+00 -6.9459951e-08 0.0000000e+00 
0.0000000e+00 9.6279287e-09 0.0000000e+00 
0.0000000e+00 -8.9484118e-09 0.0000000e+00 
0.0000000e+00 -2.0463786e-09 0.0000000e+00 
0.0000000e+00 -1.7617334e-10 0.0000000e+00 
0.0000000e+00 -4.4844720e-10 0.0000000e+00 
0.0000000e+00 -1.2493211e-10 0.0000000e+00 
0.0000000e+00 -1.7664679e-11 0.0000000e+00 
0.0000000e+00 -4.3053866e-11 0.0000000e+00 
0.0000000e+00 6.7176820e-12 0.0000000e+00 
0.0000000e+00 -1.2445685e-11 0.0000000e+00 
0.0000000e+00 -4.9144933e-12 0.0000000e+00 
0.0000000e+00 -1.7027322e-12 0.0000000e+00 
0.0000000e+00 7.7934451e-15 0.0000000e+00 
0.0000000e+00 -6.2346124e-14 0.0000000e+00 
0.0000000e+00 -1.7526646e-13 0.0000000e+00 
0.0000000e+00 -3.7551047e-14 0.0000000e+00 
0.0000000e+00 -2.9772432e-14 0.0000000e+00 
0.0000000e+00 -1.8440856e-15 0.0000000e+00 
0.0000000e+00 2.1775089e-11 0.0000000e+00 
0.0000000e+00 1.4859171e-10 0.0000000e+00 
0.0000000e+00 2.0457840e-10 0.0000000e+00 
0.0000000e+00 5.8136888e-11 0.0000000e+00 
0.0000000e+00 -1.7956741e-15 0.0000000e+00 
0.0000000e+00 -8.5751727e-15 0.0000000e+00 
0.0000000e+00 -1.0534519e-14 0.0000000e+00 
0.0000000e+00 -4.3808337e-15 0.0000000e+00 
0.0000000e+00 2.7642863e-10 0.0000000e+00 
0.0000000e+00 2.4406126e-09 0.0000000e+00 
0.0000000e+00 4.8084656e-09 0.0000000e+00 
0.0000000e+00 7.0277388e-09 0.0000000e+00 
0.0000000e+00 -1.0957779e-09 0.0000000e+00 
0.0000000e+00 6.0838152e-09 0.0000000e+00 
0.0000000e+00 3.7872310e-09 0.0000000e+00 
0.0000000e+00 2.7734630e-09 0.0000000e+00 
0.0000000e+00 5.8883027e-09 0.0000000e+00 
0.0000000e+00 2.3147217e-09 0.0000000e+00 
0.0000000e+00 -8.0126883e-09 0.0000000e+00 
0.0000000e+00 -2.0331974e-09 0.0000000e+00 
0.0000000e+00 -2.7489089e-09 0.0000000e+00 
0.0000000e+00 2.9059161e-10 0.0000000e+00 
0.0000000e+00 -4.5351486e-10 0.0000000e+00 
0.0000000e+00 8.8564697e-11 0.0000000e+00 
0.0000000e+00 5.3075710e-11 0.0000000e+00 
0.0000000e+00 4.8706233e-11 0.0000000e+00 
0.0000000e+00 1.0017331e-10 0.0000000e+00 
0.0000000e+00 2.7212529e-10 0.0000000e+00 
0.0000000e+00 8.9416979e-10 0.0000000e+00 
0.0000000e+00 9.4928243e-10 0.0000000e+00 
0.0000000e+00 6.6234462e-10 0.0000000e+00 
0.0000000e+00 8.5285947e-09 0.0000000e+00 
0.0000000e+00 1.1491173e-08 0.0000000e+00 
0.0000000e+00 4.9227716e-10 0.0000000e+00 
0.0000000e+00 3.3742362e-09 0.0000000e+00 
0.0000000e+00 1.3185887e-09 0.0000000e+00 
0.0000000e+00 1.1498906e-09 0.0000000e+00 
0.0000000e+00 -6.8666117e-10 0.0000000e+00 
0.0000000e+00 2.2080409e-09 0.0000000e+00 
0.0000000e+00 -5.0580304e-09 0.0000000e+00 
0.0000000e+00 -5.7678884e-10 0.0000000e+00 
0.0000000e+00 3.7308828e-10 0.0000000e+00 
0.0000000e+00 -1.0183698e-10 0.0000000e+00 
0.0000000e+00 -1.8073859e-10 0.0000000e+00 
0.0000000e+00 1.3458645e-11 0.0000000e+00 
0.0000000e+00 -3.6329634e-11 0.0000000e+00 
0.0000000e+00 7.1106326e-13 0.0000000e+00 
0.0000000e+00 -7.7248234e-12 0.0000000e+00 
0.0000000e+00 6.2694961e-13 0.0000000e+00 
0.0000000e+00 4.8607272e-13 0.0000000e+00 
0.0000000e+00 7.0080104e-14 0.0000000e+00 
0.0000000e+00 -3.6809466e-13 0.0000000e+00 
0.0000000e+00 -5.8429227e-14 0.0000000e+00 
0.0000000e+00 -1.1951994e-13 0.0000000e+00 
0.0000000e+00 1.4153079e-14 0.0000000e+00 
0.0000000e+00 -1.2043099e-14 0.0000000e+00 
0.0000000e+00 3.6136242e-15 0.0000000e+00 
0.0000000e+00 5.3540739e-10 0.0000000e+00 
-1.0233355e-08 6.9313055e-10 9.6738111e-09 
-4.9931148e-09 -9.5338644e-09 1.4520594e-08 
7.8744279e-08 -7.3828005e-08 -2.4473621e-09 
3.1724306e-07 -3.0507681e-07 -2.2515019e-08 
9.0058415e-07 -8.2240086e-07 -5.9664753e-09 
1.6179941e-06 -1.6599073e-06 2.3956090e-07 
2.0510258e-06 -2.5197976e-06 6.4955407e-07 
2.0550003e-06 -2.8429727e-06 9.4482198e-07 
1.7838653e-06 -2.7184076e-06 1.1178882e-06 
1.1060484e-06 -2.1973408e-06 1.1615697e-06 
4.5234344e-07 -1.2937279e-06 8.2447991e-07 
9.8075382e-08 -5.9328141e-07 4.9359409e-07 
-6.0925536e-09 -2.2922163e-07 2.3545428e-07 
-1.9916717e-08 -9.4530193e-08 1.1400926e-07 
-1.4880755e-08 -3.7035115e-08 5.1876999e-08 
-8.5927860e-09 -1.5582225e-08 2.4099688e-08 
-4.6495670e-09 -6.7252128e-09 1.1356117e-08 
-3.3069438e-09 -2.7264777e-09 6.0389924e-09 
-3.3913503e-09 -1.1019361e-09 4.4812394e-09 
-4.5169908e-09 -1.2206638e-10 4.6868269e-09 
-7.1066322e-09 -4.9633037e-10 7.5720674e-09 
4.4808721e-09 -7.5660802e-09 3.2608045e-09 
7.8602440e-08 -7.7560671e-08 3.4911358e-09 
3.7241696e-07 -3.4397223e-07 -4.5454964e-08 
9.8364262e-07 -8.6282449e-07 -6.6075252e-08 
1.8059151e-06 -1.8864399e-06 3.3195428e-07 
2.0660864e-06 -2.6201280e-06 6.9095893e-07 
2.1836108e-06 -2.9111368e-06 9.1403223e-07 
1.8374287e-06 -2.7663048e-06 1.1417978e-06 
1.0401832e-06 -2.1936098e-06 1.1976107e-06 
3.9323342e-07 -1.2212873e-06 8.0883058e-07 
7.6500676e-08 -5.5549191e-07 4.7932843e-07 
-1.1778113e-08 -2.0905922e-07 2.2078709e-07 
-2.0373180e-08 -8.5864848e-08 1.0574413e-07 
-1.4864388e-08 -3.4154283e-08 4.9001798e-08 
-7.9147959e-09 -1.4275504e-08 2.2156483e-08 
-4.3052655e-09 -5.9357625e-09 1.0235663e-08 
-1.9016309e-09 -2.8045297e-09 4.6986619e-09 
-9.0760421e-10 -1.2105856e-09 2.1142459e-09 
-4.2915491e-10 -5.3965482e-10 9.6866437e-10 
-1.9577295e-10 -2.3721844e-10 4.3178161e-10 
-8.8814754e-11 -1.0705528e-10 1.9554865e-10 
-3.7613676e-11 -5.0012810e-11 8.7480322e-11 
-1.8010565e-11 -2.1348673e-11 3.9324148e-11 
-7.9630807e-12 -9.5339231e-12 1.7497647e-11 
-3.8190085e-12 -3.9570001e-12 7.7887080e-12 
-1.7021888e-12 -1.6874645e-12 3.3903533e-12 
-7.3600034e-13 -7.9104139e-13 1.5254135e-12 
-2.3307994e-13 -2.7198616e-13 5.0581094e-13 
0.0000000e+00 -1.4999887e-15 0.0000000e+00 
0.0000000e+00 -1.9821005e-10 0.0000000e+00 
0.0000000e+00 -1.6685497e-10 0.0000000e+00 
0.0000000e+00 3.1770589e-10 0.0000000e+00 
0.0000000e+00 -3.5282792e-09 0.0000000e+00 
0.0000000e+00 1.9251157e-08 0.0000000e+00 
0.0000000e+00 -8.4553342e-08 0.0000000e+00 
0.0000000e+00 -1.0997142e-06 0.0000000e+00 
0.0000000e+00 7.4287304e-06 0.0000000e+00 
0.0000000e+00 3.9939678e-06 0.0000000e+00 
0.0000000e+00 2.1798340e-07 0.0000000e+00 
0.0000000e+00 8.2121132e-06 0.0000000e+00 
0.0000000e+00 -8.0800601e-07 0.0000000e+00 
0.0000000e+00 -4.2252194e-07 0.0000000e+00 
0.0000000e+00 2.5786019e-08 0.0000000e+00 
0.0000000e+00 -1.1220473e-09 0.0000000e+00 
0.0000000e+00 -4.3926393e-10 0.0000000e+00 
0.0000000e+00 -1.2940175e-10 0.0000000e+00 
0.0000000e+00 -1.4508891e-11 0.0000000e+00 
0.0000000e+00 2.4344127e-11 0.0000000e+00 
0.0000000e+00 1.7645710e-11 0.0000000e+00 
0.0000000e+00 -5.2451911e-11 0.0000000e+00 
0.0000000e+00 -1.2908864e-10 0.0000000e+00 
0.0000000e+00 -1.4185784e-10 0.0000000e+00 
0.0000000e+00 -2.6031952e-09 0.0000000e+00 
0.0000000e+00 1.7490912e-08 0.0000000e+00 
0.0000000e+00 -1.8252862e-07 0.0000000e+00 
0.0000000e+00 -8.5863962e-07 0.0000000e+00 
0.0000000e+00 8.1071257e-06 0.0000000e+00 
0.0000000e+00 2.9823673e-06 0.0000000e+00 
0.0000000e+00 9.0304263e-07 0.0000000e+00 
0.0000000e+00 6.6599796e-06 0.0000000e+00 
0.0000000e+00 -9.8572252e-07 0.0000000e+00 
0.0000000e+00 -3.0830816e-07 0.0000000e+00 
0.0000000e+00 3.1851549e-08 0.0000000e+00 
0.0000000e+00 -4.0672745e-09 0.0000000e+00 
0.0000000e+00 9.0507624e-10 0.0000000e+00 
0.0000000e+00 3.5251549e-10 0.0000000e+00 
0.0000000e+00 1.8520965e-10 0.0000000e+00 
0.0000000e+00 1.8182503e-12 0.0000000e+00 
0.0000000e+00 5.0901852e-12 0.0000000e+00 
0.0000000e+00 1.4933089e-11 0.0000000e+00 
0.0000000e+00 -1.7152534e-12 0.0000000e+00 
0.0000000e+00 8.6062190e-13 0.0000000e+00 
0.0000000e+00 -2.5051540e-13 0.0000000e+00 
0.0000000e+00 -3.3249282e-13 0.0000000e+00 
0.0000000e+00 3.1561976e-13 0.0000000e+00 
0.0000000e+00 -1.3729471e-14 0.0000000e+00 
0.0000000e+00 2.0677247e-14 0.0000000e+00 
0.0000000e+00 2.8268867e-15 0.0000000e+00 
0.0000000e+00 9.1655987e-15 0.0000000e+00 
0.0000000e+00 4.0312560e-15 0.0000000e+00 
0.0000000e+00 -1.6800373e-14 0.0000000e+00 
0.0000000e+00 6.2556215e-16 0.0000000e+00 
-3.5087269e-09 -1.8289263e-08 2.3790962e-08 
-2.6882532e-09 -7.1288348e-08 7.9470858e-08 
4.5104858e-09 -2.0249240e-07 2.4170888e-07 
-5.9711233e-08 -1.0062230e-06 1.0840855e-06 
5.5438079e-07 -5.6129443e-06 5.5407468e-06 
3.0932440e-06 -1.0213717e-05 1.2647429e-05 
4.6420164e-06 -1.2026598e-05 1.1705144e-05 
3.6623492e-06 -1.2442702e-05 1.1195102e-05 
4.7103113e-06 -1.0855711e-05 1.2548339e-05 
3.6938711e-06 -7.2660723e-06 4.9191781e-06 
7.8637055e-07 -1.8826387e-06 8.4124639e-07 
1.3907173e-07 -4.1411298e-07 2.6224501e-07 
2.0548486e-08 -1.4505930e-07 1.2716394e-07 
-6.0199334e-09 -5.1067563e-08 5.6886947e-08 
-6.4841856e-09 -1.8203448e-08 2.4923807e-08 
-3.7260035e-09 -7.5577793e-09 1.1367596e-08 
-2.0296467e-09 -3.3327825e-09 5.4326654e-09 
-1.2241818e-09 -2.0386572e-09 3.3636849e-09 
-1.2128081e-09 -2.6145914e-09 4.0366079e-09 
-1.4808197e-09 -6.8487136e-09 8.9747827e-09 
-5.0038680e-09 -1.7244375e-08 2.3821258e-08 
4.5541371e-10 -6.8462398e-08 7.3756532e-08 
-6.3322547e-09 -1.6172284e-07 2.1490729e-07 
-8.5079222e-08 -1.1947200e-06 1.2750509e-06 
7.4702035e-07 -6.1664864e-06 6.2419540e-06 
3.3135514e-06 -1.0310486e-05 1.2894137e-05 
4.5911947e-06 -1.2251849e-05 1.1378874e-05 
3.9433448e-06 -1.2595471e-05 1.1765975e-05 
5.0011231e-06 -1.0882328e-05 1.2132846e-05 
3.2869254e-06 -6.6354251e-06 4.1037924e-06 
6.2326410e-07 -1.5256471e-06 6.9661672e-07 
1.1224308e-07 -3.5404415e-07 2.3100574e-07 
1.3521432e-08 -1.2862866e-07 1.1770147e-07 
-5.4263243e-09 -4.6890900e-08 5.2196309e-08 
-7.0102057e-09 -1.6986659e-08 2.4155847e-08 
-4.0702273e-09 -7.0004793e-09 1.1167448e-08 
-2.0316533e-09 -3.0711198e-09 5.1433915e-09 
-9.7406727e-10 -1.2368008e-09 2.2329181e-09 
-4.9642007e-10 -5.2427296e-10 1.0318897e-09 
-2.1731254e-10 -2.5169158e-10 4.7345622e-10 
-1.0534646e-10 -1.1513170e-10 2.2255797e-10 
-4.5462759e-11 -5.3327221e-11 9.9502809e-11 
-2.0181174e-11 -2.3340115e-11 4.3998184e-11 
-9.3755177e-12 -1.0590200e-11 2.0109504e-11 
-4.6303976e-12 -4.1859094e-12 8.9186722e-12 
-2.0678806e-12 -1.9846054e-12 4.0936703e-12 
-9.6904136e-13 -8.7570191e-13 1.8627211e-12 
-4.4642350e-13 -3.4254264e-13 7.9810903e-13 
-2.0782500e-13 -9.9918839e-14 3.1042522e-13 
0.0000000e+00 -2.1600661e-09 0.0000000e+00 
-1.3756567e-13 -1.0002510e-14 1.5751757e-13 
0.0000000e+00 -2.4652314e-09 0.0000000e+00 
0.0000000e+00 -8.6038225e-09 0.0000000e+00 
0.0000000e+00 -3.2960241e-08 0.0000000e+00 
0.0000000e+00 1.3222858e-07 0.0000000e+00 
0.0000000e+00 -1.1779146e-05 0.0000000e+00 
0.0000000e+00 -7.4957614e-05 0.0000000e+00 
0.0000000e+00 -5.3710479e-05 0.0000000e+00 
0.0000000e+00 -4.3777265e-05 0.0000000e+00 
0.0000000e+00 -8.0918384e-05 0.0000000e+00 
0.0000000e+00 -1.6678889e-05 0.0000000e+00 
0.0000000e+00 9.5340312e-08 0.0000000e+00 
0.0000000e+00 -3.5187185e-08 0.0000000e+00 
0.0000000e+00 -4.6322586e-09 0.0000000e+00 
0.0000000e+00 -1.1394323e-09 0.0000000e+00 
0.0000000e+00 -3.5260472e-10 0.0000000e+00 
0.0000000e+00 -1.4501941e-10 0.0000000e+00 
0.0000000e+00 -9.1636809e-11 0.0000000e+00 
0.0000000e+00 -1.0357666e-10 0.0000000e+00 
0.0000000e+00 -2.3386620e-10 0.0000000e+00 
0.0000000e+00 -6.8594336e-10 0.0000000e+00 