# vtk DataFile Version 4.0
vtk output
ASCII
DATASET UNSTRUCTURED_GRID
POINTS 235 float
0.0000000e+00 0.0000000e+00 0.0000000e+00 
1.0000000e+00 0.0000000e+00 0.0000000e+00 
1.0000000e+00 1.0000000e+01 0.0000000e+00 
0.0000000e+00 1.0000000e+01 0.0000000e+00 
0.0000000e+00 0.0000000e+00 1.0000000e+00 
1.0000000e+00 0.0000000e+00 1.0000000e+00 
1.0000000e+00 1.0000000e+01 1.0000000e+00 
0.0000000e+00 1.0000000e+01 1.0000000e+00 
5.0000000e-01 0.0000000e+00 0.0000000e+00 
1.0000000e+00 2.0000000e+00 0.0000000e+00 
1.0000000e+00 4.0000000e+00 0.0000000e+00 
1.0000000e+00 6.0000000e+00 0.0000000e+00 
1.0000000e+00 8.0000000e+00 0.0000000e+00 
1.0000000e+00 1.0000000e+00 0.0000000e+00 
1.0000000e+00 3.0000000e+00 0.0000000e+00 
1.0000000e+00 5.0000000e+00 0.0000000e+00 
1.0000000e+00 7.0000000e+00 0.0000000e+00 
1.0000000e+00 9.0000000e+00 0.0000000e+00 
5.0000000e-01 1.0000000e+01 0.0000000e+00 
0.0000000e+00 8.0000000e+00 0.0000000e+00 
0.0000000e+00 6.0000000e+00 0.0000000e+00 
0.0000000e+00 4.0000000e+00 0.0000000e+00 
0.0000000e+00 2.0000000e+00 0.0000000e+00 
0.0000000e+00 9.0000000e+00 0.0000000e+00 
0.0000000e+00 7.0000000e+00 0.0000000e+00 
0.0000000e+00 5.0000000e+00 0.0000000e+00 
0.0000000e+00 3.0000000e+00 0.0000000e+00 
0.0000000e+00 1.0000000e+00 0.0000000e+00 
0.0000000e+00 0.0000000e+00 5.0000000e-01 
1.0000000e+00 0.0000000e+00 5.0000000e-01 
5.0000000e-01 0.0000000e+00 1.0000000e+00 
1.0000000e+00 1.0000000e+01 5.0000000e-01 
1.0000000e+00 2.0000000e+00 1.0000000e+00 
1.0000000e+00 4.0000000e+00 1.0000000e+00 
1.0000000e+00 6.0000000e+00 1.0000000e+00 
1.0000000e+00 8.0000000e+00 1.0000000e+00 
1.0000000e+00 1.0000000e+00 1.0000000e+00 
1.0000000e+00 3.0000000e+00 1.0000000e+00 
1.0000000e+00 5.0000000e+00 1.0000000e+00 
1.0000000e+00 7.0000000e+00 1.0000000e+00 
1.0000000e+00 9.0000000e+00 1.0000000e+00 
0.0000000e+00 1.0000000e+01 5.0000000e-01 
5.0000000e-01 1.0000000e+01 1.0000000e+00 
0.0000000e+00 8.0000000e+00 1.0000000e+00 
0.0000000e+00 6.0000000e+00 1.0000000e+00 
0.0000000e+00 4.0000000e+00 1.0000000e+00 
0.0000000e+00 2.0000000e+00 1.0000000e+00 
0.0000000e+00 9.0000000e+00 1.0000000e+00 
0.0000000e+00 7.0000000e+00 1.0000000e+00 
0.0000000e+00 5.0000000e+00 1.0000000e+00 
0.0000000e+00 3.0000000e+00 1.0000000e+00 
0.0000000e+00 1.0000000e+00 1.0000000e+00 
5.0000000e-01 9.0000000e+00 0.0000000e+00 
5.0000000e-01 7.0000000e+00 0.0000000e+00 
5.0000000e-01 1.0000000e+00 0.0000000e+00 
5.0000000e-01 3.0000000e+00 0.0000000e+00 
5.0000000e-01 5.0000000e+00 0.0000000e+00 
7.5000000e-01 5.0000000e-01 0.0000000e+00 
2.5000000e-01 5.0000000e-01 0.0000000e+00 
2.5000000e-01 1.5000000e+00 0.0000000e+00 
7.5000000e-01 1.5000000e+00 0.0000000e+00 
2.5000000e-01 9.5000000e+00 0.0000000e+00 
7.5000000e-01 9.5000000e+00 0.0000000e+00 
7.5000000e-01 8.5000000e+00 0.0000000e+00 
2.5000000e-01 8.5000000e+00 0.0000000e+00 
7.5000000e-01 3.5000000e+00 0.0000000e+00 
7.5000000e-01 2.5000000e+00 0.0000000e+00 
5.0000000e-01 2.0000000e+00 0.0000000e+00 
2.5000000e-01 2.5000000e+00 0.0000000e+00 
7.5000000e-01 5.5000000e+00 0.0000000e+00 
7.5000000e-01 4.5000000e+00 0.0000000e+00 
2.5000000e-01 3.5000000e+00 0.0000000e+00 
5.0000000e-01 4.0000000e+00 0.0000000e+00 
2.5000000e-01 4.5000000e+00 0.0000000e+00 
7.5000000e-01 7.5000000e+00 0.0000000e+00 
7.5000000e-01 6.5000000e+00 0.0000000e+00 
2.5000000e-01 6.5000000e+00 0.0000000e+00 
5.0000000e-01 6.0000000e+00 0.0000000e+00 
2.5000000e-01 5.5000000e+00 0.0000000e+00 
5.0000000e-01 8.0000000e+00 0.0000000e+00 
2.5000000e-01 7.5000000e+00 0.0000000e+00 
5.0000000e-01 0.0000000e+00 5.0000000e-01 
2.5000000e-01 0.0000000e+00 2.5000000e-01 
7.5000000e-01 0.0000000e+00 2.5000000e-01 
2.5000000e-01 0.0000000e+00 7.5000000e-01 
7.5000000e-01 0.0000000e+00 7.5000000e-01 
1.0000000e+00 9.0000000e+00 5.0000000e-01 
1.0000000e+00 5.0000000e+00 5.0000000e-01 
1.0000000e+00 1.0000000e+00 5.0000000e-01 
1.0000000e+00 3.0000000e+00 5.0000000e-01 
1.0000000e+00 7.0000000e+00 5.0000000e-01 
1.0000000e+00 5.0000000e-01 7.5000000e-01 
1.0000000e+00 5.0000000e-01 2.5000000e-01 
1.0000000e+00 1.5000000e+00 2.5000000e-01 
1.0000000e+00 9.5000000e+00 2.5000000e-01 
1.0000000e+00 9.5000000e+00 7.5000000e-01 
1.0000000e+00 8.5000000e+00 2.5000000e-01 
1.0000000e+00 1.5000000e+00 7.5000000e-01 
1.0000000e+00 8.5000000e+00 7.5000000e-01 
1.0000000e+00 2.5000000e+00 2.5000000e-01 
1.0000000e+00 3.5000000e+00 2.5000000e-01 
1.0000000e+00 2.0000000e+00 5.0000000e-01 
1.0000000e+00 2.5000000e+00 7.5000000e-01 
1.0000000e+00 4.5000000e+00 2.5000000e-01 
1.0000000e+00 5.5000000e+00 2.5000000e-01 
1.0000000e+00 4.5000000e+00 7.5000000e-01 
1.0000000e+00 4.0000000e+00 5.0000000e-01 
1.0000000e+00 3.5000000e+00 7.5000000e-01 
1.0000000e+00 6.5000000e+00 2.5000000e-01 
1.0000000e+00 7.5000000e+00 2.5000000e-01 
1.0000000e+00 5.5000000e+00 7.5000000e-01 
1.0000000e+00 6.0000000e+00 5.0000000e-01 
1.0000000e+00 6.5000000e+00 7.5000000e-01 
1.0000000e+00 8.0000000e+00 5.0000000e-01 
1.0000000e+00 7.5000000e+00 7.5000000e-01 
5.0000000e-01 1.0000000e+01 5.0000000e-01 
7.5000000e-01 1.0000000e+01 2.5000000e-01 
2.5000000e-01 1.0000000e+01 2.5000000e-01 
7.5000000e-01 1.0000000e+01 7.5000000e-01 
2.5000000e-01 1.0000000e+01 7.5000000e-01 
0.0000000e+00 9.0000000e+00 5.0000000e-01 
0.0000000e+00 1.0000000e+00 5.0000000e-01 
0.0000000e+00 7.0000000e+00 5.0000000e-01 
0.0000000e+00 5.0000000e+00 5.0000000e-01 
0.0000000e+00 3.0000000e+00 5.0000000e-01 
0.0000000e+00 5.0000000e-01 2.5000000e-01 
0.0000000e+00 5.0000000e-01 7.5000000e-01 
0.0000000e+00 1.5000000e+00 2.5000000e-01 
0.0000000e+00 9.5000000e+00 7.5000000e-01 
0.0000000e+00 9.5000000e+00 2.5000000e-01 
0.0000000e+00 8.5000000e+00 2.5000000e-01 
0.0000000e+00 1.5000000e+00 7.5000000e-01 
0.0000000e+00 8.5000000e+00 7.5000000e-01 
0.0000000e+00 7.5000000e+00 2.5000000e-01 
0.0000000e+00 6.5000000e+00 2.5000000e-01 
0.0000000e+00 8.0000000e+00 5.0000000e-01 
0.0000000e+00 7.5000000e+00 7.5000000e-01 
0.0000000e+00 5.5000000e+00 2.5000000e-01 
0.0000000e+00 4.5000000e+00 2.5000000e-01 
0.0000000e+00 6.5000000e+00 7.5000000e-01 
0.0000000e+00 6.0000000e+00 5.0000000e-01 
0.0000000e+00 5.5000000e+00 7.5000000e-01 
0.0000000e+00 3.5000000e+00 2.5000000e-01 
0.0000000e+00 2.5000000e+00 2.5000000e-01 
0.0000000e+00 4.5000000e+00 7.5000000e-01 
0.0000000e+00 4.0000000e+00 5.0000000e-01 
0.0000000e+00 3.5000000e+00 7.5000000e-01 
0.0000000e+00 2.0000000e+00 5.0000000e-01 
0.0000000e+00 2.5000000e+00 7.5000000e-01 
5.0000000e-01 9.0000000e+00 1.0000000e+00 
5.0000000e-01 1.0000000e+00 1.0000000e+00 
5.0000000e-01 3.0000000e+00 1.0000000e+00 
5.0000000e-01 5.0000000e+00 1.0000000e+00 
5.0000000e-01 7.0000000e+00 1.0000000e+00 
7.5000000e-01 5.0000000e-01 1.0000000e+00 
2.5000000e-01 5.0000000e-01 1.0000000e+00 
2.5000000e-01 1.5000000e+00 1.0000000e+00 
7.5000000e-01 1.5000000e+00 1.0000000e+00 
2.5000000e-01 9.5000000e+00 1.0000000e+00 
7.5000000e-01 9.5000000e+00 1.0000000e+00 
7.5000000e-01 8.5000000e+00 1.0000000e+00 
2.5000000e-01 8.5000000e+00 1.0000000e+00 
7.5000000e-01 3.5000000e+00 1.0000000e+00 
7.5000000e-01 2.5000000e+00 1.0000000e+00 
5.0000000e-01 2.0000000e+00 1.0000000e+00 
2.5000000e-01 2.5000000e+00 1.0000000e+00 
7.5000000e-01 5.5000000e+00 1.0000000e+00 
7.5000000e-01 4.5000000e+00 1.0000000e+00 
2.5000000e-01 3.5000000e+00 1.0000000e+00 
5.0000000e-01 4.0000000e+00 1.0000000e+00 
2.5000000e-01 4.5000000e+00 1.0000000e+00 
7.5000000e-01 7.5000000e+00 1.0000000e+00 
7.5000000e-01 6.5000000e+00 1.0000000e+00 
2.5000000e-01 5.5000000e+00 1.0000000e+00 
5.0000000e-01 6.0000000e+00 1.0000000e+00 
2.5000000e-01 6.5000000e+00 1.0000000e+00 
5.0000000e-01 8.0000000e+00 1.0000000e+00 
2.5000000e-01 7.5000000e+00 1.0000000e+00 
2.5000000e-01 7.0000000e+00 2.5000000e-01 
7.5000000e-01 3.0000000e+00 2.5000000e-01 
2.5000000e-01 3.0000000e+00 2.5000000e-01 
2.5000000e-01 9.0000000e+00 7.5000000e-01 
2.5000000e-01 9.0000000e+00 2.5000000e-01 
2.5000000e-01 5.0000000e+00 7.5000000e-01 
2.5000000e-01 3.0000000e+00 7.5000000e-01 
2.5000000e-01 1.0000000e+00 7.5000000e-01 
2.5000000e-01 5.0000000e+00 2.5000000e-01 
7.5000000e-01 1.0000000e+00 7.5000000e-01 
7.5000000e-01 5.0000000e+00 7.5000000e-01 
2.5000000e-01 7.0000000e+00 7.5000000e-01 
7.5000000e-01 7.0000000e+00 7.5000000e-01 
7.5000000e-01 9.0000000e+00 7.5000000e-01 
7.5000000e-01 3.0000000e+00 7.5000000e-01 
7.5000000e-01 9.0000000e+00 2.5000000e-01 
7.5000000e-01 5.0000000e+00 2.5000000e-01 
7.5000000e-01 7.0000000e+00 2.5000000e-01 
2.5000000e-01 1.0000000e+00 2.5000000e-01 
7.5000000e-01 1.0000000e+00 2.5000000e-01 
5.0000000e-01 9.0000000e+00 5.0000000e-01 
5.0000000e-01 9.5000000e+00 7.5000000e-01 
2.5000000e-01 9.5000000e+00 5.0000000e-01 
5.0000000e-01 9.5000000e+00 2.5000000e-01 
7.5000000e-01 9.5000000e+00 5.0000000e-01 
5.0000000e-01 1.0000000e+00 5.0000000e-01 
7.5000000e-01 5.0000000e-01 5.0000000e-01 
2.5000000e-01 5.0000000e-01 5.0000000e-01 
5.0000000e-01 5.0000000e-01 2.5000000e-01 
5.0000000e-01 5.0000000e-01 7.5000000e-01 
5.0000000e-01 3.0000000e+00 5.0000000e-01 
7.5000000e-01 3.5000000e+00 5.0000000e-01 
5.0000000e-01 7.0000000e+00 5.0000000e-01 
5.0000000e-01 6.5000000e+00 2.5000000e-01 
2.5000000e-01 6.5000000e+00 5.0000000e-01 
2.5000000e-01 3.5000000e+00 5.0000000e-01 
2.5000000e-01 2.5000000e+00 5.0000000e-01 
5.0000000e-01 7.5000000e+00 7.5000000e-01 
7.5000000e-01 7.5000000e+00 5.0000000e-01 
5.0000000e-01 1.5000000e+00 7.5000000e-01 
2.5000000e-01 5.5000000e+00 5.0000000e-01 
5.0000000e-01 5.5000000e+00 2.5000000e-01 
5.0000000e-01 5.0000000e+00 5.0000000e-01 
5.0000000e-01 4.5000000e+00 2.5000000e-01 
7.5000000e-01 4.5000000e+00 5.0000000e-01 
7.5000000e-01 2.5000000e+00 5.0000000e-01 
7.5000000e-01 8.5000000e+00 5.0000000e-01 
5.0000000e-01 8.5000000e+00 7.5000000e-01 
2.5000000e-01 1.5000000e+00 5.0000000e-01 
2.5000000e-01 4.5000000e+00 5.0000000e-01 
5.0000000e-01 6.0000000e+00 5.0000000e-01 
7.5000000e-01 6.5000000e+00 5.0000000e-01 
5.0000000e-01 8.5000000e+00 2.5000000e-01 
5.0000000e-01 8.0000000e+00 5.0000000e-01 
5.0000000e-01 1.5000000e+00 2.5000000e-01 
5.0000000e-01 4.0000000e+00 5.0000000e-01 
5.0000000e-01 2.0000000e+00 5.0000000e-01 

CELLS 100 1100
10 122 20 19 53 134 24 133 178 76 80
10 55 10 89 9 65 100 179 66 14 99
10 124 55 22 21 180 68 143 142 71 26
10 120 7 43 149 128 47 132 181 158 161
10 3 19 52 120 23 64 61 129 130 182
10 44 45 123 152 49 144 141 173 170 183
10 124 45 46 151 146 50 148 184 168 165
10 121 46 4 150 131 51 126 185 156 155
10 21 20 123 56 25 137 138 73 78 186
10 5 88 150 32 91 187 154 36 97 157
10 33 87 152 34 105 188 167 38 110 166
10 122 43 44 153 136 48 139 189 177 175
10 34 153 35 90 172 171 39 112 190 114
10 149 6 35 86 159 40 160 191 95 98
10 33 32 151 89 37 163 162 107 102 192
10 52 86 12 2 193 96 63 62 94 17
10 87 11 10 56 104 15 103 194 69 70
10 53 12 90 11 74 109 195 75 16 108
10 0 22 121 54 27 127 125 58 59 196
10 9 88 54 1 93 197 60 13 92 57
10 149 52 120 115 198 182 181 199 201 200
10 86 52 149 115 193 198 191 202 201 199
10 121 88 81 54 203 204 205 196 197 206
10 88 121 81 150 203 205 204 187 185 207
10 151 55 33 89 208 209 162 192 179 107
10 90 122 20 153 210 134 211 190 189 212
10 45 124 55 151 146 180 213 168 184 208
10 46 55 124 151 214 180 148 165 208 184
10 122 35 90 53 215 114 210 178 216 195
10 150 121 46 88 185 131 156 187 203 217
10 87 152 20 56 188 218 219 194 220 78
10 10 123 152 56 221 183 222 70 186 220
10 55 151 32 89 208 163 223 179 192 102
10 35 153 122 90 171 189 215 114 190 210
10 122 90 20 53 210 211 134 178 195 76
10 152 87 10 56 188 103 222 220 194 70
10 52 149 35 86 198 160 224 193 191 98
10 149 52 35 120 198 224 160 181 182 225
10 152 123 20 56 183 137 218 220 186 78
10 88 121 46 54 203 131 217 197 196 226
10 151 46 55 32 165 214 208 163 164 223
10 124 22 55 46 143 68 180 148 147 214
10 11 87 20 56 104 219 77 69 194 78
10 89 32 55 9 102 223 179 99 101 66
10 152 87 33 10 188 105 167 222 103 106
10 21 124 55 45 142 180 71 145 146 213
10 152 21 123 10 227 138 183 222 72 221
10 149 43 120 35 161 132 181 160 176 225
10 20 44 123 152 140 141 137 218 173 183
10 123 45 21 152 144 145 138 183 170 227
10 122 43 153 35 136 177 189 215 176 171
10 12 90 35 53 109 114 113 74 195 216
10 87 20 152 34 219 218 188 110 228 166
10 55 45 151 33 213 168 208 209 169 162
10 88 46 150 32 217 156 187 97 164 157
10 10 21 123 56 72 138 221 70 73 186
10 34 153 90 11 172 190 112 111 229 108
10 44 20 122 153 140 134 139 175 212 189
10 90 20 11 153 211 77 108 190 212 229
10 35 120 52 12 225 182 224 113 230 63
10 19 52 120 12 64 182 130 79 63 230
10 86 35 52 12 98 224 193 96 113 63
10 35 122 19 53 215 133 231 216 178 80
10 90 20 53 11 211 76 195 108 77 75
10 10 33 55 89 106 209 65 100 107 179
10 54 22 88 9 59 232 197 60 67 93
10 121 22 46 54 127 147 131 196 59 226
10 88 46 22 54 217 147 232 197 226 59
10 52 3 120 115 61 129 182 201 117 200
10 150 4 121 81 155 126 185 207 84 205
10 149 6 86 115 159 95 191 199 118 202
10 54 88 81 1 197 204 206 57 92 83
10 150 81 88 5 207 204 187 154 85 91
10 115 86 52 2 202 193 201 116 94 62
10 120 7 149 115 128 158 181 200 119 199
10 81 0 121 54 82 125 205 206 58 196
10 45 55 21 33 213 71 145 169 209 233
10 12 35 19 53 113 231 79 74 216 80
10 43 19 120 35 135 130 132 176 231 225
10 20 44 152 34 140 173 218 228 174 166
10 153 34 20 11 172 228 212 229 111 77
10 34 87 20 11 110 219 228 111 104 77
10 46 22 55 32 147 68 214 164 234 223
10 21 33 152 45 233 167 227 145 169 170
10 33 21 152 10 233 227 167 106 72 222
10 33 55 21 10 209 71 233 106 65 72
10 20 44 34 153 140 174 228 212 175 172
10 43 122 19 35 136 133 135 176 215 231
10 35 19 120 12 231 130 225 113 79 230
10 22 32 88 9 234 97 232 67 101 93
10 32 22 88 46 234 232 97 164 147 217
10 32 22 55 9 234 68 223 101 67 66
10 0 121 4 81 125 126 28 82 205 84
10 6 149 7 115 159 158 42 118 199 119
10 81 150 4 5 207 155 84 85 154 30
10 81 88 5 1 204 91 85 83 92 29
10 52 3 115 2 61 117 201 62 18 116
10 7 120 3 115 128 129 41 119 200 117
10 6 86 115 2 95 202 118 31 94 116
10 54 81 0 1 206 82 58 57 83 8

CELL_TYPES 100
24
24
24
24
24
24
24
24
24
24
24
24
24
24
24
24
24
24
24
24
24
24
24
24
24
24
24
24
24
24
24
24
24
24
24
24
24
24
24
24
24
24
24
24
24
24
24
24
24
24
24
24
24
24
24
24
24
24
24
24
24
24
24
24
24
24
24
24
24
24
24
24
24
24
24
24
24
24
24
24
24
24
24
24
24
24
24
24
24
24
24
24
24
24
24
24
24
24
24
24
POINT_DATA 235
FIELD FieldData 2
DISPLACEMENT 3 235  float
0.0000000e+00 -2.2562731e-06 0.0000000e+00 
0.0000000e+00 -2.2562751e-06 0.0000000e+00 
0.0000000e+00 -3.1625027e-06 0.0000000e+00 
0.0000000e+00 -3.1624995e-06 0.0000000e+00 
0.0000000e+00 -2.2562722e-06 0.0000000e+00 
0.0000000e+00 -2.2562751e-06 0.0000000e+00 
0.0000000e+00 -3.1624882e-06 0.0000000e+00 
0.0000000e+00 -3.1624832e-06 0.0000000e+00 
0.0000000e+00 -2.2562319e-06 0.0000000e+00 
0.0000000e+00 -2.4386184e-06 0.0000000e+00 
0.0000000e+00 -2.6212879e-06 0.0000000e+00 
0.0000000e+00 -2.8019738e-06 0.0000000e+00 
0.0000000e+00 -2.9824050e-06 0.0000000e+00 
0.0000000e+00 -2.3479690e-06 0.0000000e+00 
0.0000000e+00 -2.5297834e-06 0.0000000e+00 
0.0000000e+00 -2.7117223e-06 0.0000000e+00 
0.0000000e+00 -2.8925492e-06 0.0000000e+00 
0.0000000e+00 -3.0725168e-06 0.0000000e+00 
0.0000000e+00 -3.1625702e-06 0.0000000e+00 
0.0000000e+00 -2.9823962e-06 0.0000000e+00 
0.0000000e+00 -2.8019322e-06 0.0000000e+00 
0.0000000e+00 -2.6212633e-06 0.0000000e+00 
0.0000000e+00 -2.4386254e-06 0.0000000e+00 
0.0000000e+00 -3.0724784e-06 0.0000000e+00 
0.0000000e+00 -2.8925274e-06 0.0000000e+00 
0.0000000e+00 -2.7117146e-06 0.0000000e+00 
0.0000000e+00 -2.5297813e-06 0.0000000e+00 
0.0000000e+00 -2.3479643e-06 0.0000000e+00 
0.0000000e+00 -2.2562303e-06 0.0000000e+00 
0.0000000e+00 -2.2562338e-06 0.0000000e+00 
0.0000000e+00 -2.2562313e-06 0.0000000e+00 
0.0000000e+00 -3.1625652e-06 0.0000000e+00 
0.0000000e+00 -2.4386254e-06 0.0000000e+00 
0.0000000e+00 -2.6212797e-06 0.0000000e+00 
0.0000000e+00 -2.8019974e-06 0.0000000e+00 
0.0000000e+00 -2.9823791e-06 0.0000000e+00 
0.0000000e+00 -2.3479652e-06 0.0000000e+00 
0.0000000e+00 -2.5297866e-06 0.0000000e+00 
0.0000000e+00 -2.7117355e-06 0.0000000e+00 
0.0000000e+00 -2.8925590e-06 0.0000000e+00 
0.0000000e+00 -3.0725321e-06 0.0000000e+00 
0.0000000e+00 -3.1625541e-06 0.0000000e+00 
0.0000000e+00 -3.1625648e-06 0.0000000e+00 
0.0000000e+00 -2.9824225e-06 0.0000000e+00 
0.0000000e+00 -2.8019874e-06 0.0000000e+00 
0.0000000e+00 -2.6212849e-06 0.0000000e+00 
0.0000000e+00 -2.4386077e-06 0.0000000e+00 
0.0000000e+00 -3.0724882e-06 0.0000000e+00 
0.0000000e+00 -2.8925413e-06 0.0000000e+00 
0.0000000e+00 -2.7117369e-06 0.0000000e+00 
0.0000000e+00 -2.5297825e-06 0.0000000e+00 
0.0000000e+00 -2.3479663e-06 0.0000000e+00 
0.0000000e+00 -3.0725423e-06 0.0000000e+00 
0.0000000e+00 -2.8926047e-06 0.0000000e+00 
0.0000000e+00 -2.3479702e-06 0.0000000e+00 
0.0000000e+00 -2.5297500e-06 0.0000000e+00 
0.0000000e+00 -2.7117162e-06 0.0000000e+00 
0.0000000e+00 -2.3023026e-06 0.0000000e+00 
0.0000000e+00 -2.3023026e-06 0.0000000e+00 
0.0000000e+00 -2.3933519e-06 0.0000000e+00 
0.0000000e+00 -2.3933651e-06 0.0000000e+00 
0.0000000e+00 -3.1174866e-06 0.0000000e+00 
0.0000000e+00 -3.1175025e-06 0.0000000e+00 
0.0000000e+00 -3.0275489e-06 0.0000000e+00 
0.0000000e+00 -3.0275139e-06 0.0000000e+00 
0.0000000e+00 -2.5755542e-06 0.0000000e+00 
0.0000000e+00 -2.4841052e-06 0.0000000e+00 
0.0000000e+00 -2.4386495e-06 0.0000000e+00 
0.0000000e+00 -2.4841004e-06 0.0000000e+00 
0.0000000e+00 -2.7567980e-06 0.0000000e+00 
0.0000000e+00 -2.6665984e-06 0.0000000e+00 
0.0000000e+00 -2.5755601e-06 0.0000000e+00 
0.0000000e+00 -2.6212424e-06 0.0000000e+00 
0.0000000e+00 -2.6665864e-06 0.0000000e+00 
0.0000000e+00 -2.9375085e-06 0.0000000e+00 
0.0000000e+00 -2.8473769e-06 0.0000000e+00 
0.0000000e+00 -2.8473678e-06 0.0000000e+00 
0.0000000e+00 -2.8019765e-06 0.0000000e+00 
0.0000000e+00 -2.7567798e-06 0.0000000e+00 
0.0000000e+00 -2.9824425e-06 0.0000000e+00 
0.0000000e+00 -2.9374935e-06 0.0000000e+00 
-9.1983452e-13 -2.2562372e-06 1.8169685e-13 
-1.4130285e-12 -2.2562392e-06 -5.1656433e-13 
-1.6810828e-13 -2.2562417e-06 -7.8488838e-13 
-1.1567958e-12 -2.2562385e-06 7.3465756e-13 
-1.7511704e-13 -2.2562413e-06 1.2220812e-12 
0.0000000e+00 -3.0725680e-06 0.0000000e+00 
0.0000000e+00 -2.7117362e-06 0.0000000e+00 
0.0000000e+00 -2.3479920e-06 0.0000000e+00 
0.0000000e+00 -2.5297802e-06 0.0000000e+00 
0.0000000e+00 -2.8925847e-06 0.0000000e+00 
0.0000000e+00 -2.3023099e-06 0.0000000e+00 
0.0000000e+00 -2.3023097e-06 0.0000000e+00 
0.0000000e+00 -2.3933549e-06 0.0000000e+00 
0.0000000e+00 -3.1175041e-06 0.0000000e+00 
0.0000000e+00 -3.1175034e-06 0.0000000e+00 
0.0000000e+00 -3.0275596e-06 0.0000000e+00 
0.0000000e+00 -2.3933435e-06 0.0000000e+00 
0.0000000e+00 -3.0275808e-06 0.0000000e+00 
0.0000000e+00 -2.4841186e-06 0.0000000e+00 
0.0000000e+00 -2.5755467e-06 0.0000000e+00 
0.0000000e+00 -2.4386541e-06 0.0000000e+00 
0.0000000e+00 -2.4841142e-06 0.0000000e+00 
0.0000000e+00 -2.6666046e-06 0.0000000e+00 
0.0000000e+00 -2.7567967e-06 0.0000000e+00 
0.0000000e+00 -2.6666041e-06 0.0000000e+00 
0.0000000e+00 -2.6212533e-06 0.0000000e+00 
0.0000000e+00 -2.5755487e-06 0.0000000e+00 
0.0000000e+00 -2.8473646e-06 0.0000000e+00 
0.0000000e+00 -2.9375258e-06 0.0000000e+00 
0.0000000e+00 -2.7568037e-06 0.0000000e+00 
0.0000000e+00 -2.8020127e-06 0.0000000e+00 
0.0000000e+00 -2.8473769e-06 0.0000000e+00 
0.0000000e+00 -2.9824234e-06 0.0000000e+00 
0.0000000e+00 -2.9375306e-06 0.0000000e+00 
8.3082473e-12 -3.1625411e-06 -7.5916703e-13 
6.6105394e-12 -3.1625536e-06 -3.7795201e-12 
1.6325372e-12 -3.1625475e-06 -1.7280300e-12 
6.8266300e-12 -3.1625468e-06 3.0870955e-12 
2.1129719e-12 -3.1625409e-06 9.8845921e-13 
0.0000000e+00 -3.0725723e-06 0.0000000e+00 
0.0000000e+00 -2.3479718e-06 0.0000000e+00 
0.0000000e+00 -2.8925917e-06 0.0000000e+00 
0.0000000e+00 -2.7117296e-06 0.0000000e+00 
0.0000000e+00 -2.5297761e-06 0.0000000e+00 
0.0000000e+00 -2.3022997e-06 0.0000000e+00 
0.0000000e+00 -2.3023013e-06 0.0000000e+00 
0.0000000e+00 -2.3933671e-06 0.0000000e+00 
0.0000000e+00 -3.1174861e-06 0.0000000e+00 
0.0000000e+00 -3.1174902e-06 0.0000000e+00 
0.0000000e+00 -3.0275057e-06 0.0000000e+00 
0.0000000e+00 -2.3933646e-06 0.0000000e+00 
0.0000000e+00 -3.0275319e-06 0.0000000e+00 
0.0000000e+00 -2.9374944e-06 0.0000000e+00 
0.0000000e+00 -2.8473623e-06 0.0000000e+00 
0.0000000e+00 -2.9824628e-06 0.0000000e+00 
0.0000000e+00 -2.9375142e-06 0.0000000e+00 
0.0000000e+00 -2.7567849e-06 0.0000000e+00 
0.0000000e+00 -2.6666053e-06 0.0000000e+00 
0.0000000e+00 -2.8473673e-06 0.0000000e+00 
0.0000000e+00 -2.8019886e-06 0.0000000e+00 
0.0000000e+00 -2.7568146e-06 0.0000000e+00 
0.0000000e+00 -2.5755396e-06 0.0000000e+00 
0.0000000e+00 -2.4841167e-06 0.0000000e+00 
0.0000000e+00 -2.6666005e-06 0.0000000e+00 
0.0000000e+00 -2.6212463e-06 0.0000000e+00 
0.0000000e+00 -2.5755451e-06 0.0000000e+00 
0.0000000e+00 -2.4386384e-06 0.0000000e+00 
0.0000000e+00 -2.4841081e-06 0.0000000e+00 
0.0000000e+00 -3.0725550e-06 0.0000000e+00 
0.0000000e+00 -2.3479693e-06 0.0000000e+00 
0.0000000e+00 -2.5297718e-06 0.0000000e+00 
0.0000000e+00 -2.7117412e-06 0.0000000e+00 
0.0000000e+00 -2.8926102e-06 0.0000000e+00 
0.0000000e+00 -2.3023006e-06 0.0000000e+00 
0.0000000e+00 -2.3023015e-06 0.0000000e+00 
0.0000000e+00 -2.3933612e-06 0.0000000e+00 
0.0000000e+00 -2.3933640e-06 0.0000000e+00 
0.0000000e+00 -3.1174859e-06 0.0000000e+00 
0.0000000e+00 -3.1175036e-06 0.0000000e+00 
0.0000000e+00 -3.0275751e-06 0.0000000e+00 
0.0000000e+00 -3.0275373e-06 0.0000000e+00 
0.0000000e+00 -2.5755430e-06 0.0000000e+00 
0.0000000e+00 -2.4841142e-06 0.0000000e+00 
0.0000000e+00 -2.4386425e-06 0.0000000e+00 
0.0000000e+00 -2.4841077e-06 0.0000000e+00 
0.0000000e+00 -2.7568058e-06 0.0000000e+00 
0.0000000e+00 -2.6666262e-06 0.0000000e+00 
0.0000000e+00 -2.5755437e-06 0.0000000e+00 
0.0000000e+00 -2.6212408e-06 0.0000000e+00 
0.0000000e+00 -2.6666144e-06 0.0000000e+00 
0.0000000e+00 -2.9375408e-06 0.0000000e+00 
0.0000000e+00 -2.8473585e-06 0.0000000e+00 
0.0000000e+00 -2.7568117e-06 0.0000000e+00 
0.0000000e+00 -2.8020286e-06 0.0000000e+00 
0.0000000e+00 -2.8473626e-06 0.0000000e+00 
0.0000000e+00 -2.9824348e-06 0.0000000e+00 
0.0000000e+00 -2.9375337e-06 0.0000000e+00 
-1.3716460e-12 -2.8925742e-06 -8.5885113e-13 
9.1589063e-13 -2.5297732e-06 1.8230444e-14 
-1.9324848e-13 -2.5297702e-06 8.9721064e-13 
7.4806036e-13 -3.0725521e-06 -3.3614988e-12 
5.1234066e-13 -3.0725507e-06 3.1876242e-12 
7.6698641e-13 -2.7117355e-06 -1.8533968e-12 
2.9078693e-13 -2.5297784e-06 -1.7658470e-13 
3.9257993e-13 -2.3479693e-06 -5.1159879e-14 
-7.9792173e-13 -2.7117198e-06 -8.4497670e-13 
8.1757143e-13 -2.3479740e-06 -1.7805866e-13 
-4.6215879e-13 -2.7117371e-06 -1.1248172e-13 
1.1152839e-12 -2.8925829e-06 1.8797084e-12 
-1.9741140e-13 -2.8925872e-06 4.5327408e-13 
-2.3848870e-12 -3.0725612e-06 -1.5825757e-12 
-3.3081857e-13 -2.5297818e-06 3.3472452e-13 
-3.2188946e-12 -3.0725614e-06 3.5494355e-12 
-5.7457939e-13 -2.7117230e-06 -4.1195414e-13 
3.2824213e-13 -2.8925836e-06 1.3180685e-12 
5.4839862e-13 -2.3479690e-06 -2.3196893e-13 
-3.0299686e-13 -2.3479763e-06 5.5096211e-13 
-6.0234554e-13 -3.0725730e-06 5.6684605e-13 
9.6751340e-13 -3.1174852e-06 -3.0066759e-12 
1.6261434e-12 -3.1174893e-06 5.1718238e-13 
9.5938145e-13 -3.1174852e-06 4.3389138e-12 
-6.8980406e-13 -3.1174986e-06 4.0134589e-13 
7.0157347e-14 -2.3479722e-06 -1.8541448e-13 
-1.8547355e-12 -2.3023065e-06 1.3390753e-13 
5.1976181e-13 -2.3023008e-06 3.1331437e-14 
-4.7802170e-13 -2.3023026e-06 3.2975204e-13 
-3.2213463e-13 -2.3023019e-06 -4.0452586e-13 
-6.2515596e-13 -2.5297697e-06 1.2601654e-12 
-2.1170234e-12 -2.5755612e-06 -2.7388198e-12 
1.3746126e-12 -2.8925760e-06 4.9438999e-14 
8.8866886e-13 -2.8473692e-06 2.8241422e-12 
2.4680286e-12 -2.8473580e-06 6.7619218e-12 
2.3894985e-12 -2.5755494e-06 -2.1636529e-12 
3.3505863e-12 -2.4841113e-06 -2.7762892e-12 
7.4529410e-12 -2.9375201e-06 5.1496186e-12 
7.2146239e-12 -2.9375115e-06 4.2315062e-12 
-1.8945284e-12 -2.3933555e-06 1.8217118e-12 
-3.9115525e-12 -2.7567896e-06 -4.8592697e-12 
-3.8190141e-12 -2.7567821e-06 -4.5066494e-12 
-5.0492428e-13 -2.7117262e-06 -1.9526353e-12 
1.4674509e-12 -2.6665998e-06 -3.6434388e-12 
2.8892006e-12 -2.6666089e-06 -3.8738943e-12 
-1.6841508e-12 -2.4841108e-06 -3.7037309e-12 
-1.9830008e-12 -3.0275939e-06 -8.7655800e-13 
-1.0708151e-11 -3.0275785e-06 -1.4958904e-12 
-1.5413317e-12 -2.3933571e-06 1.2806500e-12 
-6.1091816e-13 -2.6666105e-06 -5.9501987e-12 
4.0088779e-13 -2.8020127e-06 2.6412292e-12 
5.6194573e-13 -2.8473678e-06 4.4414849e-12 
-5.8667628e-12 -3.0275637e-06 -2.8034033e-12 
-4.4971015e-12 -2.9824516e-06 -8.2949744e-13 
-4.2277202e-12 -2.3933485e-06 3.2534712e-13 
1.8101658e-12 -2.6212197e-06 8.1661842e-13 
1.4611902e-12 -2.4386657e-06 9.9192117e-13 
VELOCITY 3 235  float
0.0000000e+00 -2.1474345e-05 0.0000000e+00 
0.0000000e+00 -2.1475005e-05 0.0000000e+00 
0.0000000e+00 -2.1425387e-05 0.0000000e+00 
0.0000000e+00 -2.1387485e-05 0.0000000e+00 
0.0000000e+00 -2.1474225e-05 0.0000000e+00 
0.0000000e+00 -2.1474845e-05 0.0000000e+00 
0.0000000e+00 -2.1429323e-05 0.0000000e+00 
0.0000000e+00 -2.1396521e-05 0.0000000e+00 
0.0000000e+00 -2.1461992e-05 0.0000000e+00 
0.0000000e+00 -2.1235619e-05 0.0000000e+00 
0.0000000e+00 -2.1274987e-05 0.0000000e+00 
0.0000000e+00 -2.1312975e-05 0.0000000e+00 
0.0000000e+00 -2.1368056e-05 0.0000000e+00 
0.0000000e+00 -2.1174081e-05 0.0000000e+00 
0.0000000e+00 -2.1447013e-05 0.0000000e+00 
0.0000000e+00 -2.1063666e-05 0.0000000e+00 
0.0000000e+00 -2.1164264e-05 0.0000000e+00 
0.0000000e+00 -2.1387877e-05 0.0000000e+00 
0.0000000e+00 -2.1110327e-05 0.0000000e+00 
0.0000000e+00 -2.1336738e-05 0.0000000e+00 
0.0000000e+00 -2.1318978e-05 0.0000000e+00 
0.0000000e+00 -2.1268199e-05 0.0000000e+00 
0.0000000e+00 -2.1234209e-05 0.0000000e+00 
0.0000000e+00 -2.1370701e-05 0.0000000e+00 
0.0000000e+00 -2.1165453e-05 0.0000000e+00 
0.0000000e+00 -2.1062981e-05 0.0000000e+00 
0.0000000e+00 -2.1443630e-05 0.0000000e+00 
0.0000000e+00 -2.1173724e-05 0.0000000e+00 
0.0000000e+00 -2.1460966e-05 0.0000000e+00 
0.0000000e+00 -2.1461574e-05 0.0000000e+00 
0.0000000e+00 -2.1461861e-05 0.0000000e+00 
0.0000000e+00 -2.1145554e-05 0.0000000e+00 
0.0000000e+00 -2.1233081e-05 0.0000000e+00 
0.0000000e+00 -2.1269370e-05 0.0000000e+00 
0.0000000e+00 -2.1307553e-05 0.0000000e+00 
0.0000000e+00 -2.1381351e-05 0.0000000e+00 
0.0000000e+00 -2.1173566e-05 0.0000000e+00 
0.0000000e+00 -2.1443568e-05 0.0000000e+00 
0.0000000e+00 -2.1067406e-05 0.0000000e+00 
0.0000000e+00 -2.1156846e-05 0.0000000e+00 
0.0000000e+00 -2.1395590e-05 0.0000000e+00 
0.0000000e+00 -2.1129990e-05 0.0000000e+00 
0.0000000e+00 -2.1115649e-05 0.0000000e+00 
0.0000000e+00 -2.1364240e-05 0.0000000e+00 
0.0000000e+00 -2.1308428e-05 0.0000000e+00 
0.0000000e+00 -2.1269441e-05 0.0000000e+00 
0.0000000e+00 -2.1230331e-05 0.0000000e+00 
0.0000000e+00 -2.1385145e-05 0.0000000e+00 
0.0000000e+00 -2.1181202e-05 0.0000000e+00 
0.0000000e+00 -2.1062846e-05 0.0000000e+00 
0.0000000e+00 -2.1442720e-05 0.0000000e+00 
0.0000000e+00 -2.1172835e-05 0.0000000e+00 
0.0000000e+00 -2.1232498e-05 0.0000000e+00 
0.0000000e+00 -2.1154798e-05 0.0000000e+00 
0.0000000e+00 -2.1168187e-05 0.0000000e+00 
0.0000000e+00 -2.1464964e-05 0.0000000e+00 
0.0000000e+00 -2.1053367e-05 0.0000000e+00 
0.0000000e+00 -2.1288799e-05 0.0000000e+00 
0.0000000e+00 -2.1288790e-05 0.0000000e+00 
0.0000000e+00 -2.1153393e-05 0.0000000e+00 
0.0000000e+00 -2.1156233e-05 0.0000000e+00 
0.0000000e+00 -2.1403068e-05 0.0000000e+00 
0.0000000e+00 -2.1418735e-05 0.0000000e+00 
0.0000000e+00 -2.1277201e-05 0.0000000e+00 
0.0000000e+00 -2.1263158e-05 0.0000000e+00 
0.0000000e+00 -2.1416288e-05 0.0000000e+00 
0.0000000e+00 -2.1374368e-05 0.0000000e+00 
0.0000000e+00 -2.1242007e-05 0.0000000e+00 
0.0000000e+00 -2.1369495e-05 0.0000000e+00 
0.0000000e+00 -2.1145250e-05 0.0000000e+00 
0.0000000e+00 -2.1101705e-05 0.0000000e+00 
0.0000000e+00 -2.1412492e-05 0.0000000e+00 
0.0000000e+00 -2.1270276e-05 0.0000000e+00 
0.0000000e+00 -2.1104299e-05 0.0000000e+00 
0.0000000e+00 -2.1171900e-05 0.0000000e+00 
0.0000000e+00 -2.1254447e-05 0.0000000e+00 
0.0000000e+00 -2.1254897e-05 0.0000000e+00 
0.0000000e+00 -2.1298649e-05 0.0000000e+00 
0.0000000e+00 -2.1143358e-05 0.0000000e+00 
0.0000000e+00 -2.1330528e-05 0.0000000e+00 
0.0000000e+00 -2.1186592e-05 0.0000000e+00 
-1.7451574e-10 -2.1467142e-05 5.0333678e-11 
-3.3355740e-10 -2.1465234e-05 -1.3797809e-10 
1.3790580e-10 -2.1465583e-05 -1.0269940e-10 
-3.2841210e-10 -2.1465146e-05 2.0455060e-10 
1.7585933e-10 -2.1465496e-05 1.4904152e-10 
0.0000000e+00 -2.1226373e-05 0.0000000e+00 
0.0000000e+00 -2.1044358e-05 0.0000000e+00 
0.0000000e+00 -2.1164957e-05 0.0000000e+00 
0.0000000e+00 -2.1448117e-05 0.0000000e+00 
0.0000000e+00 -2.1160975e-05 0.0000000e+00 
0.0000000e+00 -2.1288011e-05 0.0000000e+00 
0.0000000e+00 -2.1288253e-05 0.0000000e+00 
0.0000000e+00 -2.1155471e-05 0.0000000e+00 
0.0000000e+00 -2.1430245e-05 0.0000000e+00 
0.0000000e+00 -2.1439431e-05 0.0000000e+00 
0.0000000e+00 -2.1266356e-05 0.0000000e+00 
0.0000000e+00 -2.1154508e-05 0.0000000e+00 
0.0000000e+00 -2.1231634e-05 0.0000000e+00 
0.0000000e+00 -2.1374988e-05 0.0000000e+00 
0.0000000e+00 -2.1413873e-05 0.0000000e+00 
0.0000000e+00 -2.1239346e-05 0.0000000e+00 
0.0000000e+00 -2.1373813e-05 0.0000000e+00 
0.0000000e+00 -2.1101116e-05 0.0000000e+00 
0.0000000e+00 -2.1151529e-05 0.0000000e+00 
0.0000000e+00 -2.1105048e-05 0.0000000e+00 
0.0000000e+00 -2.1269427e-05 0.0000000e+00 
0.0000000e+00 -2.1413258e-05 0.0000000e+00 
0.0000000e+00 -2.1269570e-05 0.0000000e+00 
0.0000000e+00 -2.1163351e-05 0.0000000e+00 
0.0000000e+00 -2.1157135e-05 0.0000000e+00 
0.0000000e+00 -2.1281994e-05 0.0000000e+00 
0.0000000e+00 -2.1258174e-05 0.0000000e+00 
0.0000000e+00 -2.1368529e-05 0.0000000e+00 
0.0000000e+00 -2.1149301e-05 0.0000000e+00 
2.6392044e-09 -2.1358033e-05 1.3613103e-09 
-1.7475622e-09 -2.1253842e-05 8.8475733e-09 