# vtk DataFile Version 4.0
vtk output
ASCII
DATASET UNSTRUCTURED_GRID
POINTS 76 float
0.0000000e+00 0.0000000e+00 0.0000000e+00 
5.0000000e+00 0.0000000e+00 0.0000000e+00 
5.0000000e+00 1.0000000e+00 0.0000000e+00 
0.0000000e+00 1.0000000e+00 0.0000000e+00 
0.0000000e+00 0.0000000e+00 3.0000000e+00 
5.0000000e+00 0.0000000e+00 3.0000000e+00 
5.0000000e+00 1.0000000e+00 3.0000000e+00 
0.0000000e+00 1.0000000e+00 3.0000000e+00 
1.0000000e+00 0.0000000e+00 0.0000000e+00 
2.0000000e+00 0.0000000e+00 0.0000000e+00 
3.0000000e+00 0.0000000e+00 0.0000000e+00 
4.0000000e+00 0.0000000e+00 0.0000000e+00 
4.0000000e+00 1.0000000e+00 0.0000000e+00 
3.0000000e+00 1.0000000e+00 0.0000000e+00 
2.0000000e+00 1.0000000e+00 0.0000000e+00 
1.0000000e+00 1.0000000e+00 0.0000000e+00 
0.0000000e+00 0.0000000e+00 1.0000000e+00 
0.0000000e+00 0.0000000e+00 2.0000000e+00 
5.0000000e+00 0.0000000e+00 1.0000000e+00 
5.0000000e+00 0.0000000e+00 2.0000000e+00 
1.0000000e+00 0.0000000e+00 3.0000000e+00 
2.0000000e+00 0.0000000e+00 3.0000000e+00 
3.0000000e+00 0.0000000e+00 3.0000000e+00 
4.0000000e+00 0.0000000e+00 3.0000000e+00 
5.0000000e+00 1.0000000e+00 1.0000000e+00 
5.0000000e+00 1.0000000e+00 2.0000000e+00 
0.0000000e+00 1.0000000e+00 1.0000000e+00 
0.0000000e+00 1.0000000e+00 2.0000000e+00 
4.0000000e+00 1.0000000e+00 3.0000000e+00 
3.0000000e+00 1.0000000e+00 3.0000000e+00 
2.0000000e+00 1.0000000e+00 3.0000000e+00 
1.0000000e+00 1.0000000e+00 3.0000000e+00 
4.5000000e+00 5.0000000e-01 0.0000000e+00 
5.0000000e-01 5.0000000e-01 0.0000000e+00 
2.5000000e+00 5.0000000e-01 0.0000000e+00 
3.5000000e+00 5.0000000e-01 0.0000000e+00 
1.5000000e+00 5.0000000e-01 0.0000000e+00 
1.5046000e+00 0.0000000e+00 7.6549745e-01 
4.0618000e+00 0.0000000e+00 1.5000000e+00 
2.5000000e+00 0.0000000e+00 2.1339746e+00 
1.5046000e+00 0.0000000e+00 2.2345026e+00 
2.4957771e+00 0.0000000e+00 8.1560516e-01 
3.4700506e+00 0.0000000e+00 7.5794268e-01 
3.4707544e+00 0.0000000e+00 2.2336540e+00 
8.6322361e-01 0.0000000e+00 1.5000000e+00 
2.0000000e+00 0.0000000e+00 1.5000000e+00 
2.9960666e+00 0.0000000e+00 1.4974480e+00 
4.2679491e+00 0.0000000e+00 2.2679491e+00 
4.2679491e+00 0.0000000e+00 7.3205084e-01 
7.2695929e-01 0.0000000e+00 7.2695929e-01 
7.2695929e-01 0.0000000e+00 2.2730408e+00 
5.0000000e+00 5.0000000e-01 5.0000000e-01 
5.0000000e+00 5.0000000e-01 2.5000000e+00 
5.0000000e+00 5.0000000e-01 1.5000000e+00 
3.4954000e+00 1.0000000e+00 7.6549745e-01 
9.3820012e-01 1.0000000e+00 1.5000000e+00 
2.5000000e+00 1.0000000e+00 2.1339746e+00 
3.4954000e+00 1.0000000e+00 2.2345026e+00 
2.5042229e+00 1.0000000e+00 8.1560516e-01 
1.5299494e+00 1.0000000e+00 7.5794268e-01 
1.5292456e+00 1.0000000e+00 2.2336540e+00 
4.1367764e+00 1.0000000e+00 1.5000000e+00 
3.0000000e+00 1.0000000e+00 1.5000000e+00 
2.0039334e+00 1.0000000e+00 1.4974480e+00 
7.3205084e-01 1.0000000e+00 2.2679491e+00 
7.3205084e-01 1.0000000e+00 7.3205084e-01 
4.2730408e+00 1.0000000e+00 7.2695929e-01 
4.2730408e+00 1.0000000e+00 2.2730408e+00 
0.0000000e+00 5.0000000e-01 2.5000000e+00 
0.0000000e+00 5.0000000e-01 1.5000000e+00 
0.0000000e+00 5.0000000e-01 5.0000000e-01 
4.5000000e+00 5.0000000e-01 3.0000000e+00 
1.5000000e+00 5.0000000e-01 3.0000000e+00 
2.5000000e+00 5.0000000e-01 3.0000000e+00 
3.5000000e+00 5.0000000e-01 3.0000000e+00 
5.0000000e-01 5.0000000e-01 3.0000000e+00 

CELLS 184 920
4 39 60 40 73
4 73 43 56 57
4 43 56 39 73
4 56 60 39 73
4 34 9 41 59
4 13 58 34 42
4 43 73 29 57
4 21 40 60 73
4 41 34 58 42
4 41 34 59 58
4 29 73 56 57
4 40 21 39 73
4 21 30 60 72
4 30 21 60 73
4 22 29 43 73
4 29 22 43 74
4 74 43 29 57
4 60 72 40 21
4 14 9 34 59
4 10 35 13 42
4 10 13 34 42
4 14 9 59 36
4 37 9 36 59
4 54 13 35 42
4 34 41 10 42
4 59 34 14 58
4 43 39 22 73
4 60 56 30 73
4 9 37 41 59
4 13 54 58 42
4 42 38 54 46
4 45 60 55 40
4 57 38 43 62
4 42 58 41 46
4 59 63 41 58
4 65 37 36 59
4 42 35 54 48
4 43 74 47 57
4 72 64 60 40
4 39 63 60 56
4 62 38 43 46
4 55 63 60 45
4 35 66 54 48
4 36 49 37 65
4 38 62 54 46
4 67 47 74 57
4 64 72 50 40
4 59 37 41 45
4 58 63 41 46
4 43 39 56 62
4 40 45 60 39
4 57 43 56 62
4 12 11 32 66
4 12 11 66 35
4 28 71 23 67
4 23 74 28 67
4 36 8 49 15
4 33 49 8 15
4 31 20 50 72
4 20 31 50 75
4 41 63 59 45
4 55 44 37 45
4 62 61 38 54
4 72 31 64 50
4 48 35 66 11
4 74 23 47 67
4 49 36 15 65
4 15 33 49 65
4 48 66 32 11
4 71 47 23 67
4 75 64 31 50
4 67 47 61 53
4 66 53 61 48
4 45 55 44 40
4 57 61 38 62
4 63 39 60 45
4 62 43 39 46
4 16 49 70 26
4 19 67 25 53
4 24 18 66 51
4 18 24 66 53
4 67 52 19 25
4 16 49 26 69
4 27 17 50 68
4 17 27 50 69
4 42 54 38 48
4 55 37 65 59
4 55 60 64 40
4 47 38 43 57
4 39 62 63 56
4 38 61 53 48
4 61 47 38 53
4 53 66 18 48
4 26 49 65 69
4 64 27 69 50
4 67 19 47 53
4 58 62 63 46
4 45 41 63 46
4 65 70 49 26
4 27 64 68 50
4 18 66 51 48
4 52 19 47 67
4 65 49 37 55
4 50 55 64 40
4 62 39 63 46
4 39 45 63 46
4 49 44 37 55
4 50 44 55 40
4 12 66 54 35
4 37 8 49 36
4 65 36 15 59
4 48 42 35 11
4 31 64 60 72
4 23 43 74 47
4 74 28 67 57
4 20 50 72 40
4 70 49 33 65
4 32 51 66 48
4 64 75 68 50
4 47 71 52 67
4 19 38 47 53
4 18 38 53 48
4 65 55 26 69
4 27 69 55 64
4 49 16 44 69
4 61 25 67 53
4 50 69 44 17
4 24 53 61 66
4 56 30 73 29
4 21 22 39 73
4 19 38 53 18
4 55 26 69 27
4 7 64 75 68
4 70 33 3 65
4 5 47 71 52
4 1 51 32 48
4 68 75 4 50
4 66 2 51 32
4 33 0 49 70
4 52 71 6 67
4 34 14 58 13
4 41 9 34 10
4 53 61 25 24
4 16 44 69 17
4 30 31 60 72
4 74 22 43 23
4 36 14 15 59
4 42 10 35 11
4 9 8 37 36
4 13 12 54 35
4 72 20 40 21
4 28 74 29 57
4 47 23 5 71
4 15 3 33 65
4 31 7 64 75
4 48 32 1 11
4 28 6 71 67
4 16 49 0 70
4 8 0 49 33
4 50 75 4 20
4 4 68 50 17
4 2 66 12 32
4 6 52 67 25
4 2 24 66 51
4 51 2 1 32
4 6 5 71 52
4 33 3 0 70
4 4 7 75 68
4 64 7 27 68
4 51 1 18 48
4 3 70 65 26
4 47 5 19 52
4 54 46 58 42
4 58 46 54 62
4 45 59 55 63
4 45 55 59 37
4 49 55 69 44
4 69 55 49 65
4 48 61 54 38
4 48 54 61 66
4 50 55 69 64
4 50 69 55 44
4 47 61 57 67
4 57 61 47 38

CELL_TYPES 184
10
10
10
10
10
10
10
10
10
10
10
10
10
10
10
10
10
10
10
10
10
10
10
10
10
10
10
10
10
10
10
10
10
10
10
10
10
10
10
10
10
10
10
10
10
10
10
10
10
10
10
10
10
10
10
10
10
10
10
10
10
10
10
10
10
10
10
10
10
10
10
10
10
10
10
10
10
10
10
10
10
10
10
10
10
10
10
10
10
10
10
10
10
10
10
10
10
10
10
10
10
10
10
10
10
10
10
10
10
10
10
10
10
10
10
10
10
10
10
10
10
10
10
10
10
10
10
10
10
10
10
10
10
10
10
10
10
10
10
10
10
10
10
10
10
10
10
10
10
10
10
10
10
10
10
10
10
10
10
10
10
10
10
10
10
10
10
10
10
10
10
10
10
10
10
10
10
10
10
10
10
10
10
10
POINT_DATA 76
FIELD FieldData 2
DISPLACEMENT 3 76  float
0.0000000e+00 0.0000000e+00 0.0000000e+00 
0.0000000e+00 0.0000000e+00 0.0000000e+00 
0.0000000e+00 0.0000000e+00 0.0000000e+00 
0.0000000e+00 0.0000000e+00 0.0000000e+00 
0.0000000e+00 -3.7950263e-06 -7.4378096e-07 
0.0000000e+00 -4.3970872e-06 -9.4265931e-07 
0.0000000e+00 -4.4630051e-06 5.8192808e-07 
0.0000000e+00 -3.8738549e-06 6.6924451e-07 
0.0000000e+00 0.0000000e+00 0.0000000e+00 
0.0000000e+00 0.0000000e+00 0.0000000e+00 
0.0000000e+00 0.0000000e+00 0.0000000e+00 
0.0000000e+00 0.0000000e+00 0.0000000e+00 
0.0000000e+00 0.0000000e+00 0.0000000e+00 
0.0000000e+00 0.0000000e+00 0.0000000e+00 
0.0000000e+00 0.0000000e+00 0.0000000e+00 
0.0000000e+00 0.0000000e+00 0.0000000e+00 
0.0000000e+00 -9.1749405e-07 -5.6782801e-07 
0.0000000e+00 -2.3100672e-06 -7.9869261e-07 
0.0000000e+00 -1.2859550e-06 -7.9640643e-07 
0.0000000e+00 -2.9485225e-06 -1.1378693e-06 
0.0000000e+00 -4.1210046e-06 -9.2590699e-07 
0.0000000e+00 -4.6499140e-06 -1.0238715e-06 
0.0000000e+00 -4.9313944e-06 -1.0958260e-06 
0.0000000e+00 -4.6871123e-06 -1.1437835e-06 
0.0000000e+00 -1.2088884e-06 3.9167071e-07 
0.0000000e+00 -2.9202745e-06 5.7149833e-07 
0.0000000e+00 -9.5345752e-07 3.3375889e-07 
0.0000000e+00 -2.3775956e-06 6.1737768e-07 
0.0000000e+00 -4.6892651e-06 5.7714391e-07 
0.0000000e+00 -4.7478561e-06 7.0566676e-07 
0.0000000e+00 -4.4842805e-06 8.4794351e-07 
0.0000000e+00 -4.1135695e-06 6.7306917e-07 
0.0000000e+00 0.0000000e+00 0.0000000e+00 
0.0000000e+00 0.0000000e+00 0.0000000e+00 
0.0000000e+00 0.0000000e+00 0.0000000e+00 
0.0000000e+00 0.0000000e+00 0.0000000e+00 
0.0000000e+00 0.0000000e+00 0.0000000e+00 
0.0000000e+00 -5.6328605e-07 -4.3887340e-07 
0.0000000e+00 -2.0496745e-06 -1.0045742e-06 
0.0000000e+00 -2.7953411e-06 -8.7004514e-07 
0.0000000e+00 -2.8640220e-06 -9.0312767e-07 
0.0000000e+00 -7.0320112e-07 -5.4130021e-07 
0.0000000e+00 -7.4103616e-07 -5.8125465e-07 
0.0000000e+00 -3.3312017e-06 -1.0933616e-06 
0.0000000e+00 -1.5726902e-06 -6.6356398e-07 
0.0000000e+00 -1.5642626e-06 -7.0184228e-07 
0.0000000e+00 -1.8310649e-06 -8.1300982e-07 
0.0000000e+00 -3.4196441e-06 -1.1332928e-06 
0.0000000e+00 -7.9830852e-07 -6.6186976e-07 
0.0000000e+00 -5.4427528e-07 -4.4141225e-07 
0.0000000e+00 -2.7623466e-06 -8.2918478e-07 
0.0000000e+00 -5.1274338e-07 -1.4007161e-07 
0.0000000e+00 -3.7040743e-06 -2.4873000e-07 
0.0000000e+00 -2.0372247e-06 -2.8102437e-07 
0.0000000e+00 -7.3952236e-07 4.7962754e-07 
0.0000000e+00 -1.5306753e-06 5.2940345e-07 
0.0000000e+00 -2.8361312e-06 8.2330456e-07 
0.0000000e+00 -3.3146348e-06 6.1201331e-07 
0.0000000e+00 -6.7981887e-07 4.8247290e-07 
0.0000000e+00 -4.9673889e-07 4.1600171e-07 
0.0000000e+00 -2.8231505e-06 7.7708523e-07 
0.0000000e+00 -1.9737358e-06 5.0775014e-07 
0.0000000e+00 -1.8442314e-06 6.5246405e-07 
0.0000000e+00 -1.5506383e-06 6.9222364e-07 
0.0000000e+00 -2.8014824e-06 6.3355765e-07 
0.0000000e+00 -5.9213772e-07 3.0883899e-07 
0.0000000e+00 -7.2080860e-07 3.0572633e-07 
0.0000000e+00 -3.3861179e-06 5.6325058e-07 
0.0000000e+00 -3.0795566e-06 -6.4089136e-08 
0.0000000e+00 -1.5643969e-06 -1.1247934e-07 
0.0000000e+00 -3.7085732e-07 -4.9531021e-08 
1.3111254e-08 -4.5340576e-06 -2.3597194e-07 
3.0918226e-08 -4.2623487e-06 -9.0958451e-08 
-5.8074590e-09 -4.6665009e-06 -8.9913520e-08 
-1.5670073e-08 -4.7325848e-06 -2.5617055e-07 
-6.2888894e-09 -3.9566216e-06 -8.8940503e-08 
TOTAL_DISPLACEMENT 3 76  float
0.0000000e+00 0.0000000e+00 0.0000000e+00 
0.0000000e+00 0.0000000e+00 0.0000000e+00 
0.0000000e+00 0.0000000e+00 0.0000000e+00 
0.0000000e+00 0.0000000e+00 0.0000000e+00 
0.0000000e+00 0.0000000e+00 0.0000000e+00 
0.0000000e+00 0.0000000e+00 0.0000000e+00 
0.0000000e+00 0.0000000e+00 0.0000000e+00 
0.0000000e+00 0.0000000e+00 0.0000000e+00 
0.0000000e+00 0.0000000e+00 0.0000000e+00 
0.0000000e+00 0.0000000e+00 0.0000000e+00 
0.0000000e+00 0.0000000e+00 0.0000000e+00 
0.0000000e+00 0.0000000e+00 0.0000000e+00 
0.0000000e+00 0.0000000e+00 0.0000000e+00 
0.0000000e+00 0.0000000e+00 0.0000000e+00 
0.0000000e+00 0.0000000e+00 0.0000000e+00 
0.0000000e+00 0.0000000e+00 0.0000000e+00 
0.0000000e+00 0.0000000e+00 0.0000000e+00 
0.0000000e+00 0.0000000e+00 0.0000000e+00 
0.0000000e+00 0.0000000e+00 0.0000000e+00 
0.0000000e+00 0.0000000e+00 0.0000000e+00 
0.0000000e+00 0.0000000e+00 0.0000000e+00 
0.0000000e+00 0.0000000e+00 0.0000000e+00 
0.0000000e+00 0.0000000e+00 0.0000000e+00 
0.0000000e+00 0.0000000e+00 0.0000000e+00 
0.0000000e+00 0.0000000e+00 0.0000000e+00 
0.0000000e+00 0.0000000e+00 0.0000000e+00 
0.0000000e+00 0.0000000e+00 0.0000000e+00 
0.0000000e+00 0.0000000e+00 0.0000000e+00 
0.0000000e+00 0.0000000e+00 0.0000000e+00 
0.0000000e+00 0.0000000e+00 0.0000000e+00 
0.0000000e+00 0.0000000e+00 0.0000000e+00 
0.0000000e+00 0.0000000e+00 0.0000000e+00 
0.0000000e+00 0.0000000e+00 0.0000000e+00 
0.0000000e+00 0.0000000e+00 0.0000000e+00 
0.0000000e+00 0.0000000e+00 0.0000000e+00 
0.0000000e+00 0.0000000e+00 0.0000000e+00 
0.0000000e+00 0.0000000e+00 0.0000000e+00 
0.0000000e+00 0.0000000e+00 0.0000000e+00 
0.0000000e+00 0.0000000e+00 0.0000000e+00 
0.0000000e+00 0.0000000e+00 0.0000000e+00 
0.0000000e+00 0.0000000e+00 0.0000000e+00 
0.0000000e+00 0.0000000e+00 0.0000000e+00 
0.0000000e+00 0.0000000e+00 0.0000000e+00 
0.0000000e+00 0.0000000e+00 0.0000000e+00 
0.0000000e+00 0.0000000e+00 0.0000000e+00 
0.0000000e+00 0.0000000e+00 0.0000000e+00 
0.0000000e+00 0.0000000e+00 0.0000000e+00 
0.0000000e+00 0.0000000e+00 0.0000000e+00 
0.0000000e+00 0.0000000e+00 0.0000000e+00 
0.0000000e+00 0.0000000e+00 0.0000000e+00 
0.0000000e+00 0.0000000e+00 0.0000000e+00 
0.0000000e+00 0.0000000e+00 0.0000000e+00 
0.0000000e+00 0.0000000e+00 0.0000000e+00 
0.0000000e+00 0.0000000e+00 0.0000000e+00 
0.0000000e+00 0.0000000e+00 0.0000000e+00 
0.0000000e+00 0.0000000e+00 0.0000000e+00 
0.0000000e+00 0.0000000e+00 0.0000000e+00 
0.0000000e+00 0.0000000e+00 0.0000000e+00 
0.0000000e+00 0.0000000e+00 0.0000000e+00 
0.0000000e+00 0.0000000e+00 0.0000000e+00 
0.0000000e+00 0.0000000e+00 0.0000000e+00 
0.0000000e+00 0.0000000e+00 0.0000000e+00 
0.0000000e+00 0.0000000e+00 0.0000000e+00 
0.0000000e+00 0.0000000e+00 0.0000000e+00 
0.0000000e+00 0.0000000e+00 0.0000000e+00 
0.0000000e+00 0.0000000e+00 0.0000000e+00 
0.0000000e+00 0.0000000e+00 0.0000000e+00 
0.0000000e+00 0.0000000e+00 0.0000000e+00 
0.0000000e+00 0.0000000e+00 0.0000000e+00 
0.0000000e+00 0.0000000e+00 0.0000000e+00 
0.0000000e+00 0.0000000e+00 0.0000000e+00 
0.0000000e+00 0.0000000e+00 0.0000000e+00 
0.0000000e+00 0.0000000e+00 0.0000000e+00 
0.0000000e+00 0.0000000e+00 0.0000000e+00 
0.0000000e+00 0.0000000e+00 0.0000000e+00 
0.0000000e+00 0.0000000e+00 0.0000000e+00 
CELL_DATA 184
FIELD FieldData 0
