# vtk DataFile Version 4.0
vtk output
ASCII
DATASET UNSTRUCTURED_GRID
POINTS 76 float
0.0000000e+00 0.0000000e+00 0.0000000e+00 
5.0000000e+00 0.0000000e+00 0.0000000e+00 
5.0000000e+00 1.0000000e+00 0.0000000e+00 
0.0000000e+00 1.0000000e+00 0.0000000e+00 
0.0000000e+00 0.0000000e+00 3.0000000e+00 
5.0000000e+00 0.0000000e+00 3.0000000e+00 
5.0000000e+00 1.0000000e+00 3.0000000e+00 
0.0000000e+00 1.0000000e+00 3.0000000e+00 
1.0000000e+00 0.0000000e+00 0.0000000e+00 
2.0000000e+00 0.0000000e+00 0.0000000e+00 
3.0000000e+00 0.0000000e+00 0.0000000e+00 
4.0000000e+00 0.0000000e+00 0.0000000e+00 
4.0000000e+00 1.0000000e+00 0.0000000e+00 
3.0000000e+00 1.0000000e+00 0.0000000e+00 
2.0000000e+00 1.0000000e+00 0.0000000e+00 
1.0000000e+00 1.0000000e+00 0.0000000e+00 
0.0000000e+00 0.0000000e+00 1.0000000e+00 
0.0000000e+00 0.0000000e+00 2.0000000e+00 
5.0000000e+00 0.0000000e+00 1.0000000e+00 
5.0000000e+00 0.0000000e+00 2.0000000e+00 
1.0000000e+00 0.0000000e+00 3.0000000e+00 
2.0000000e+00 0.0000000e+00 3.0000000e+00 
3.0000000e+00 0.0000000e+00 3.0000000e+00 
4.0000000e+00 0.0000000e+00 3.0000000e+00 
5.0000000e+00 1.0000000e+00 1.0000000e+00 
5.0000000e+00 1.0000000e+00 2.0000000e+00 
0.0000000e+00 1.0000000e+00 1.0000000e+00 
0.0000000e+00 1.0000000e+00 2.0000000e+00 
4.0000000e+00 1.0000000e+00 3.0000000e+00 
3.0000000e+00 1.0000000e+00 3.0000000e+00 
2.0000000e+00 1.0000000e+00 3.0000000e+00 
1.0000000e+00 1.0000000e+00 3.0000000e+00 
4.5000000e+00 5.0000000e-01 0.0000000e+00 
5.0000000e-01 5.0000000e-01 0.0000000e+00 
2.5000000e+00 5.0000000e-01 0.0000000e+00 
3.5000000e+00 5.0000000e-01 0.0000000e+00 
1.5000000e+00 5.0000000e-01 0.0000000e+00 
1.5046000e+00 0.0000000e+00 7.6549745e-01 
4.0618000e+00 0.0000000e+00 1.5000000e+00 
2.5000000e+00 0.0000000e+00 2.1339746e+00 
1.5046000e+00 0.0000000e+00 2.2345026e+00 
2.4957771e+00 0.0000000e+00 8.1560516e-01 
3.4700506e+00 0.0000000e+00 7.5794268e-01 
3.4707544e+00 0.0000000e+00 2.2336540e+00 
8.6322361e-01 0.0000000e+00 1.5000000e+00 
2.0000000e+00 0.0000000e+00 1.5000000e+00 
2.9960666e+00 0.0000000e+00 1.4974480e+00 
4.2679491e+00 0.0000000e+00 2.2679491e+00 
4.2679491e+00 0.0000000e+00 7.3205084e-01 
7.2695929e-01 0.0000000e+00 7.2695929e-01 
7.2695929e-01 0.0000000e+00 2.2730408e+00 
5.0000000e+00 5.0000000e-01 5.0000000e-01 
5.0000000e+00 5.0000000e-01 2.5000000e+00 
5.0000000e+00 5.0000000e-01 1.5000000e+00 
3.4954000e+00 1.0000000e+00 7.6549745e-01 
9.3820012e-01 1.0000000e+00 1.5000000e+00 
2.5000000e+00 1.0000000e+00 2.1339746e+00 
3.4954000e+00 1.0000000e+00 2.2345026e+00 
2.5042229e+00 1.0000000e+00 8.1560516e-01 
1.5299494e+00 1.0000000e+00 7.5794268e-01 
1.5292456e+00 1.0000000e+00 2.2336540e+00 
4.1367764e+00 1.0000000e+00 1.5000000e+00 
3.0000000e+00 1.0000000e+00 1.5000000e+00 
2.0039334e+00 1.0000000e+00 1.4974480e+00 
7.3205084e-01 1.0000000e+00 2.2679491e+00 
7.3205084e-01 1.0000000e+00 7.3205084e-01 
4.2730408e+00 1.0000000e+00 7.2695929e-01 
4.2730408e+00 1.0000000e+00 2.2730408e+00 
0.0000000e+00 5.0000000e-01 2.5000000e+00 
0.0000000e+00 5.0000000e-01 1.5000000e+00 
0.0000000e+00 5.0000000e-01 5.0000000e-01 
4.5000000e+00 5.0000000e-01 3.0000000e+00 
1.5000000e+00 5.0000000e-01 3.0000000e+00 
2.5000000e+00 5.0000000e-01 3.0000000e+00 
3.5000000e+00 5.0000000e-01 3.0000000e+00 
5.0000000e-01 5.0000000e-01 3.0000000e+00 

CELLS 184 920
4 39 60 40 73
4 73 43 56 57
4 43 56 39 73
4 56 60 39 73
4 34 9 41 59
4 13 58 34 42
4 43 73 29 57
4 21 40 60 73
4 41 34 58 42
4 41 34 59 58
4 29 73 56 57
4 40 21 39 73
4 21 30 60 72
4 30 21 60 73
4 22 29 43 73
4 29 22 43 74
4 74 43 29 57
4 60 72 40 21
4 14 9 34 59
4 10 35 13 42
4 10 13 34 42
4 14 9 59 36
4 37 9 36 59
4 54 13 35 42
4 34 41 10 42
4 59 34 14 58
4 43 39 22 73
4 60 56 30 73
4 9 37 41 59
4 13 54 58 42
4 42 38 54 46
4 45 60 55 40
4 57 38 43 62
4 42 58 41 46
4 59 63 41 58
4 65 37 36 59
4 42 35 54 48
4 43 74 47 57
4 72 64 60 40
4 39 63 60 56
4 62 38 43 46
4 55 63 60 45
4 35 66 54 48
4 36 49 37 65
4 38 62 54 46
4 67 47 74 57
4 64 72 50 40
4 59 37 41 45
4 58 63 41 46
4 43 39 56 62
4 40 45 60 39
4 57 43 56 62
4 12 11 32 66
4 12 11 66 35
4 28 71 23 67
4 23 74 28 67
4 36 8 49 15
4 33 49 8 15
4 31 20 50 72
4 20 31 50 75
4 41 63 59 45
4 55 44 37 45
4 62 61 38 54
4 72 31 64 50
4 48 35 66 11
4 74 23 47 67
4 49 36 15 65
4 15 33 49 65
4 48 66 32 11
4 71 47 23 67
4 75 64 31 50
4 67 47 61 53
4 66 53 61 48
4 45 55 44 40
4 57 61 38 62
4 63 39 60 45
4 62 43 39 46
4 16 49 70 26
4 19 67 25 53
4 24 18 66 51
4 18 24 66 53
4 67 52 19 25
4 16 49 26 69
4 27 17 50 68
4 17 27 50 69
4 42 54 38 48
4 55 37 65 59
4 55 60 64 40
4 47 38 43 57
4 39 62 63 56
4 38 61 53 48
4 61 47 38 53
4 53 66 18 48
4 26 49 65 69
4 64 27 69 50
4 67 19 47 53
4 58 62 63 46
4 45 41 63 46
4 65 70 49 26
4 27 64 68 50
4 18 66 51 48
4 52 19 47 67
4 65 49 37 55
4 50 55 64 40
4 62 39 63 46
4 39 45 63 46
4 49 44 37 55
4 50 44 55 40
4 12 66 54 35
4 37 8 49 36
4 65 36 15 59
4 48 42 35 11
4 31 64 60 72
4 23 43 74 47
4 74 28 67 57
4 20 50 72 40
4 70 49 33 65
4 32 51 66 48
4 64 75 68 50
4 47 71 52 67
4 19 38 47 53
4 18 38 53 48
4 65 55 26 69
4 27 69 55 64
4 49 16 44 69
4 61 25 67 53
4 50 69 44 17
4 24 53 61 66
4 56 30 73 29
4 21 22 39 73
4 19 38 53 18
4 55 26 69 27
4 7 64 75 68
4 70 33 3 65
4 5 47 71 52
4 1 51 32 48
4 68 75 4 50
4 66 2 51 32
4 33 0 49 70
4 52 71 6 67
4 34 14 58 13
4 41 9 34 10
4 53 61 25 24
4 16 44 69 17
4 30 31 60 72
4 74 22 43 23
4 36 14 15 59
4 42 10 35 11
4 9 8 37 36
4 13 12 54 35
4 72 20 40 21
4 28 74 29 57
4 47 23 5 71
4 15 3 33 65
4 31 7 64 75
4 48 32 1 11
4 28 6 71 67
4 16 49 0 70
4 8 0 49 33
4 50 75 4 20
4 4 68 50 17
4 2 66 12 32
4 6 52 67 25
4 2 24 66 51
4 51 2 1 32
4 6 5 71 52
4 33 3 0 70
4 4 7 75 68
4 64 7 27 68
4 51 1 18 48
4 3 70 65 26
4 47 5 19 52
4 54 46 58 42
4 58 46 54 62
4 45 59 55 63
4 45 55 59 37
4 49 55 69 44
4 69 55 49 65
4 48 61 54 38
4 48 54 61 66
4 50 55 69 64
4 50 69 55 44
4 47 61 57 67
4 57 61 47 38

CELL_TYPES 184
10
10
10
10
10
10
10
10
10
10
10
10
10
10
10
10
10
10
10
10
10
10
10
10
10
10
10
10
10
10
10
10
10
10
10
10
10
10
10
10
10
10
10
10
10
10
10
10
10
10
10
10
10
10
10
10
10
10
10
10
10
10
10
10
10
10
10
10
10
10
10
10
10
10
10
10
10
10
10
10
10
10
10
10
10
10
10
10
10
10
10
10
10
10
10
10
10
10
10
10
10
10
10
10
10
10
10
10
10
10
10
10
10
10
10
10
10
10
10
10
10
10
10
10
10
10
10
10
10
10
10
10
10
10
10
10
10
10
10
10
10
10
10
10
10
10
10
10
10
10
10
10
10
10
10
10
10
10
10
10
10
10
10
10
10
10
10
10
10
10
10
10
10
10
10
10
10
10
10
10
10
10
10
10
POINT_DATA 76
FIELD FieldData 2
DISPLACEMENT 3 76  float
0.0000000e+00 0.0000000e+00 0.0000000e+00 
0.0000000e+00 0.0000000e+00 0.0000000e+00 
0.0000000e+00 0.0000000e+00 0.0000000e+00 
0.0000000e+00 0.0000000e+00 0.0000000e+00 
0.0000000e+00 -3.9820129e-06 -9.0700809e-07 
0.0000000e+00 -4.7254957e-06 -1.0382926e-06 
0.0000000e+00 -4.8003772e-06 7.3859275e-07 
0.0000000e+00 -3.9794977e-06 6.1061070e-07 
0.0000000e+00 0.0000000e+00 0.0000000e+00 
0.0000000e+00 0.0000000e+00 0.0000000e+00 
0.0000000e+00 0.0000000e+00 0.0000000e+00 
0.0000000e+00 0.0000000e+00 0.0000000e+00 
0.0000000e+00 0.0000000e+00 0.0000000e+00 
0.0000000e+00 0.0000000e+00 0.0000000e+00 
0.0000000e+00 0.0000000e+00 0.0000000e+00 
0.0000000e+00 0.0000000e+00 0.0000000e+00 
0.0000000e+00 -8.8214381e-07 -5.3318303e-07 
0.0000000e+00 -2.4471110e-06 -8.9599433e-07 
0.0000000e+00 -1.2723284e-06 -7.9999694e-07 
0.0000000e+00 -3.0125568e-06 -1.1621896e-06 
0.0000000e+00 -4.1304047e-06 -9.3706956e-07 
0.0000000e+00 -4.5244915e-06 -9.2692335e-07 
0.0000000e+00 -5.4791972e-06 -1.3778417e-06 
0.0000000e+00 -5.0890872e-06 -1.2854150e-06 
0.0000000e+00 -1.1580141e-06 4.7283902e-07 
0.0000000e+00 -3.0156361e-06 6.7345474e-07 
0.0000000e+00 -9.6137126e-07 3.3958833e-07 
0.0000000e+00 -2.4852206e-06 5.7072310e-07 
0.0000000e+00 -5.1080992e-06 6.3986931e-07 
0.0000000e+00 -5.0165759e-06 7.7505052e-07 
0.0000000e+00 -4.5631700e-06 7.8416861e-07 
0.0000000e+00 -4.1235307e-06 6.0900163e-07 
0.0000000e+00 0.0000000e+00 0.0000000e+00 
0.0000000e+00 0.0000000e+00 0.0000000e+00 
0.0000000e+00 0.0000000e+00 0.0000000e+00 
0.0000000e+00 0.0000000e+00 0.0000000e+00 
0.0000000e+00 0.0000000e+00 0.0000000e+00 
0.0000000e+00 -5.9039127e-07 -4.5561907e-07 
0.0000000e+00 -2.0451525e-06 -9.9993633e-07 
0.0000000e+00 -2.8393476e-06 -8.7810929e-07 
0.0000000e+00 -2.8607510e-06 -8.7744809e-07 
0.0000000e+00 -7.2027717e-07 -5.3665070e-07 
0.0000000e+00 -7.5919763e-07 -5.8677608e-07 
0.0000000e+00 -3.4699506e-06 -1.1564606e-06 
0.0000000e+00 -1.7444597e-06 -7.7194221e-07 
0.0000000e+00 -1.6204831e-06 -7.0364968e-07 
0.0000000e+00 -1.8323805e-06 -8.0164551e-07 
0.0000000e+00 -3.5213468e-06 -1.1644053e-06 
0.0000000e+00 -7.5383934e-07 -6.5008874e-07 
0.0000000e+00 -5.7250332e-07 -4.7136569e-07 
0.0000000e+00 -2.9388707e-06 -9.4357563e-07 
0.0000000e+00 -4.4490596e-07 -8.4613298e-08 
0.0000000e+00 -3.8735798e-06 -1.9624456e-07 
0.0000000e+00 -2.0668099e-06 -2.7124096e-07 
0.0000000e+00 -7.7381139e-07 4.7241656e-07 
0.0000000e+00 -1.7041820e-06 4.2539935e-07 
0.0000000e+00 -2.8971519e-06 8.4997401e-07 
0.0000000e+00 -3.4591642e-06 6.8463561e-07 
0.0000000e+00 -7.0943122e-07 4.7896896e-07 
0.0000000e+00 -5.4300000e-07 3.9312050e-07 
0.0000000e+00 -2.8902089e-06 7.0757204e-07 
0.0000000e+00 -2.0014261e-06 5.6784870e-07 
0.0000000e+00 -1.8700778e-06 6.7667992e-07 
0.0000000e+00 -1.6163734e-06 6.6651421e-07 
0.0000000e+00 -2.9650992e-06 5.2085369e-07 
0.0000000e+00 -6.5520311e-07 2.5812284e-07 
0.0000000e+00 -6.5683724e-07 3.7154624e-07 
0.0000000e+00 -3.5332428e-06 6.5182775e-07 
0.0000000e+00 -3.2024714e-06 -1.2752103e-07 
0.0000000e+00 -1.6513501e-06 -1.5514092e-07 
0.0000000e+00 -3.7889984e-07 -4.8435702e-08 
-2.6362834e-08 -4.9151186e-06 -2.6132116e-07 
6.4753742e-08 -4.1764151e-06 -2.3350465e-08 
-8.8711429e-09 -4.8375737e-06 -1.1841362e-07 
-5.3796619e-08 -5.1335137e-06 -2.9432721e-07 
9.2854409e-09 -4.0393161e-06 -1.5784649e-07 
TOTAL_DISPLACEMENT 3 76  float
0.0000000e+00 0.0000000e+00 0.0000000e+00 
0.0000000e+00 0.0000000e+00 0.0000000e+00 
0.0000000e+00 0.0000000e+00 0.0000000e+00 
0.0000000e+00 0.0000000e+00 0.0000000e+00 
0.0000000e+00 0.0000000e+00 0.0000000e+00 
0.0000000e+00 0.0000000e+00 0.0000000e+00 
0.0000000e+00 0.0000000e+00 0.0000000e+00 
0.0000000e+00 0.0000000e+00 0.0000000e+00 
0.0000000e+00 0.0000000e+00 0.0000000e+00 
0.0000000e+00 0.0000000e+00 0.0000000e+00 
0.0000000e+00 0.0000000e+00 0.0000000e+00 
0.0000000e+00 0.0000000e+00 0.0000000e+00 
0.0000000e+00 0.0000000e+00 0.0000000e+00 
0.0000000e+00 0.0000000e+00 0.0000000e+00 
0.0000000e+00 0.0000000e+00 0.0000000e+00 
0.0000000e+00 0.0000000e+00 0.0000000e+00 
0.0000000e+00 0.0000000e+00 0.0000000e+00 
0.0000000e+00 0.0000000e+00 0.0000000e+00 
0.0000000e+00 0.0000000e+00 0.0000000e+00 
0.0000000e+00 0.0000000e+00 0.0000000e+00 
0.0000000e+00 0.0000000e+00 0.0000000e+00 
0.0000000e+00 0.0000000e+00 0.0000000e+00 
0.0000000e+00 0.0000000e+00 0.0000000e+00 
0.0000000e+00 0.0000000e+00 0.0000000e+00 
0.0000000e+00 0.0000000e+00 0.0000000e+00 
0.0000000e+00 0.0000000e+00 0.0000000e+00 
0.0000000e+00 0.0000000e+00 0.0000000e+00 
0.0000000e+00 0.0000000e+00 0.0000000e+00 
0.0000000e+00 0.0000000e+00 0.0000000e+00 
0.0000000e+00 0.0000000e+00 0.0000000e+00 
0.0000000e+00 0.0000000e+00 0.0000000e+00 
0.0000000e+00 0.0000000e+00 0.0000000e+00 
0.0000000e+00 0.0000000e+00 0.0000000e+00 
0.0000000e+00 0.0000000e+00 0.0000000e+00 
0.0000000e+00 0.0000000e+00 0.0000000e+00 
0.0000000e+00 0.0000000e+00 0.0000000e+00 
0.0000000e+00 0.0000000e+00 0.0000000e+00 
0.0000000e+00 0.0000000e+00 0.0000000e+00 
0.0000000e+00 0.0000000e+00 0.0000000e+00 
0.0000000e+00 0.0000000e+00 0.0000000e+00 
0.0000000e+00 0.0000000e+00 0.0000000e+00 
0.0000000e+00 0.0000000e+00 0.0000000e+00 
0.0000000e+00 0.0000000e+00 0.0000000e+00 
0.0000000e+00 0.0000000e+00 0.0000000e+00 
0.0000000e+00 0.0000000e+00 0.0000000e+00 
0.0000000e+00 0.0000000e+00 0.0000000e+00 
0.0000000e+00 0.0000000e+00 0.0000000e+00 
0.0000000e+00 0.0000000e+00 0.0000000e+00 
0.0000000e+00 0.0000000e+00 0.0000000e+00 
0.0000000e+00 0.0000000e+00 0.0000000e+00 
0.0000000e+00 0.0000000e+00 0.0000000e+00 
0.0000000e+00 0.0000000e+00 0.0000000e+00 
0.0000000e+00 0.0000000e+00 0.0000000e+00 
0.0000000e+00 0.0000000e+00 0.0000000e+00 
0.0000000e+00 0.0000000e+00 0.0000000e+00 
0.0000000e+00 0.0000000e+00 0.0000000e+00 
0.0000000e+00 0.0000000e+00 0.0000000e+00 
0.0000000e+00 0.0000000e+00 0.0000000e+00 
0.0000000e+00 0.0000000e+00 0.0000000e+00 
0.0000000e+00 0.0000000e+00 0.0000000e+00 
0.0000000e+00 0.0000000e+00 0.0000000e+00 
0.0000000e+00 0.0000000e+00 0.0000000e+00 
0.0000000e+00 0.0000000e+00 0.0000000e+00 
0.0000000e+00 0.0000000e+00 0.0000000e+00 
0.0000000e+00 0.0000000e+00 0.0000000e+00 
0.0000000e+00 0.0000000e+00 0.0000000e+00 
0.0000000e+00 0.0000000e+00 0.0000000e+00 
0.0000000e+00 0.0000000e+00 0.0000000e+00 
0.0000000e+00 0.0000000e+00 0.0000000e+00 
0.0000000e+00 0.0000000e+00 0.0000000e+00 
0.0000000e+00 0.0000000e+00 0.0000000e+00 
0.0000000e+00 0.0000000e+00 0.0000000e+00 
0.0000000e+00 0.0000000e+00 0.0000000e+00 
0.0000000e+00 0.0000000e+00 0.0000000e+00 
0.0000000e+00 0.0000000e+00 0.0000000e+00 
0.0000000e+00 0.0000000e+00 0.0000000e+00 
CELL_DATA 184
FIELD FieldData 0
