# vtk DataFile Version 4.0
vtk output
ASCII
DATASET UNSTRUCTURED_GRID
POINTS 1827 float
0.0000000e+00 0.0000000e+00 0.0000000e+00 
0.0000000e+00 0.0000000e+00 2.0000000e+01 
3.4700000e+00 0.0000000e+00 0.0000000e+00 
3.4700000e+00 0.0000000e+00 2.0000000e+01 
3.4700000e+00 1.0000000e+00 0.0000000e+00 
3.4700000e+00 1.0000000e+00 2.0000000e+01 
0.0000000e+00 1.0000000e+00 0.0000000e+00 
0.0000000e+00 1.0000000e+00 2.0000000e+01 
1.2500000e+00 2.5000000e+00 0.0000000e+00 
1.2500000e+00 2.5000000e+00 1.1700000e-01 
7.5000000e-01 2.5000000e+00 1.1700000e-01 
7.5000000e-01 2.5000000e+00 0.0000000e+00 
0.0000000e+00 2.5000000e+00 0.0000000e+00 
0.0000000e+00 2.5000000e+00 1.1700000e-01 
1.2500000e+00 2.8000000e+00 1.1700000e-01 
1.2500000e+00 2.8000000e+00 0.0000000e+00 
0.0000000e+00 2.8000000e+00 0.0000000e+00 
0.0000000e+00 2.8000000e+00 1.1700000e-01 
7.5000000e-01 2.5000000e+00 3.8299999e-01 
1.2500000e+00 2.5000000e+00 3.8299999e-01 
1.2500000e+00 2.5000000e+00 6.1699998e-01 
7.5000000e-01 2.5000000e+00 6.1699998e-01 
7.5000000e-01 2.5000000e+00 5.0000000e-01 
0.0000000e+00 2.5000000e+00 3.8299999e-01 
0.0000000e+00 2.5000000e+00 6.1699998e-01 
1.2500000e+00 2.8000000e+00 6.1699998e-01 
1.2500000e+00 2.8000000e+00 3.8299999e-01 
0.0000000e+00 2.8000000e+00 3.8299999e-01 
0.0000000e+00 2.8000000e+00 6.1699998e-01 
7.5000000e-01 2.5000000e+00 8.8300002e-01 
1.2500000e+00 2.5000000e+00 8.8300002e-01 
1.2500000e+00 2.5000000e+00 1.1170000e+00 
7.5000000e-01 2.5000000e+00 1.1170000e+00 
7.5000000e-01 2.5000000e+00 1.0000000e+00 
0.0000000e+00 2.5000000e+00 8.8300002e-01 
0.0000000e+00 2.5000000e+00 1.1170000e+00 
1.2500000e+00 2.8000000e+00 1.1170000e+00 
1.2500000e+00 2.8000000e+00 8.8300002e-01 
0.0000000e+00 2.8000000e+00 8.8300002e-01 
0.0000000e+00 2.8000000e+00 1.1170000e+00 
7.5000000e-01 2.5000000e+00 1.3830000e+00 
1.2500000e+00 2.5000000e+00 1.3830000e+00 
1.2500000e+00 2.5000000e+00 1.6170000e+00 
7.5000000e-01 2.5000000e+00 1.6170000e+00 
7.5000000e-01 2.5000000e+00 1.5000000e+00 
0.0000000e+00 2.5000000e+00 1.3830000e+00 
0.0000000e+00 2.5000000e+00 1.6170000e+00 
1.2500000e+00 2.8000000e+00 1.6170000e+00 
1.2500000e+00 2.8000000e+00 1.3830000e+00 
0.0000000e+00 2.8000000e+00 1.3830000e+00 
0.0000000e+00 2.8000000e+00 1.6170000e+00 
7.5000000e-01 2.5000000e+00 1.8830000e+00 
1.2500000e+00 2.5000000e+00 1.8830000e+00 
1.2500000e+00 2.5000000e+00 2.1170001e+00 
7.5000000e-01 2.5000000e+00 2.1170001e+00 
7.5000000e-01 2.5000000e+00 2.0000000e+00 
0.0000000e+00 2.5000000e+00 1.8830000e+00 
0.0000000e+00 2.5000000e+00 2.1170001e+00 
1.2500000e+00 2.8000000e+00 2.1170001e+00 
1.2500000e+00 2.8000000e+00 1.8830000e+00 
0.0000000e+00 2.8000000e+00 1.8830000e+00 
0.0000000e+00 2.8000000e+00 2.1170001e+00 
7.5000000e-01 2.5000000e+00 2.3829999e+00 
1.2500000e+00 2.5000000e+00 2.3829999e+00 
1.2500000e+00 2.5000000e+00 2.6170001e+00 
7.5000000e-01 2.5000000e+00 2.6170001e+00 
7.5000000e-01 2.5000000e+00 2.5000000e+00 
0.0000000e+00 2.5000000e+00 2.3829999e+00 
0.0000000e+00 2.5000000e+00 2.6170001e+00 
1.2500000e+00 2.8000000e+00 2.6170001e+00 
1.2500000e+00 2.8000000e+00 2.3829999e+00 
0.0000000e+00 2.8000000e+00 2.3829999e+00 
0.0000000e+00 2.8000000e+00 2.6170001e+00 
7.5000000e-01 2.5000000e+00 2.8829999e+00 
1.2500000e+00 2.5000000e+00 2.8829999e+00 
1.2500000e+00 2.5000000e+00 3.1170001e+00 
7.5000000e-01 2.5000000e+00 3.1170001e+00 
7.5000000e-01 2.5000000e+00 3.0000000e+00 
0.0000000e+00 2.5000000e+00 2.8829999e+00 
0.0000000e+00 2.5000000e+00 3.1170001e+00 
1.2500000e+00 2.8000000e+00 3.1170001e+00 
1.2500000e+00 2.8000000e+00 2.8829999e+00 
0.0000000e+00 2.8000000e+00 2.8829999e+00 
0.0000000e+00 2.8000000e+00 3.1170001e+00 
7.5000000e-01 2.5000000e+00 3.3829999e+00 
1.2500000e+00 2.5000000e+00 3.3829999e+00 
1.2500000e+00 2.5000000e+00 3.6170001e+00 
7.5000000e-01 2.5000000e+00 3.6170001e+00 
7.5000000e-01 2.5000000e+00 3.5000000e+00 
0.0000000e+00 2.5000000e+00 3.3829999e+00 
0.0000000e+00 2.5000000e+00 3.6170001e+00 
1.2500000e+00 2.8000000e+00 3.6170001e+00 
1.2500000e+00 2.8000000e+00 3.3829999e+00 
0.0000000e+00 2.8000000e+00 3.3829999e+00 
0.0000000e+00 2.8000000e+00 3.6170001e+00 
7.5000000e-01 2.5000000e+00 3.8829999e+00 
1.2500000e+00 2.5000000e+00 3.8829999e+00 
1.2500000e+00 2.5000000e+00 4.1170001e+00 
7.5000000e-01 2.5000000e+00 4.1170001e+00 
7.5000000e-01 2.5000000e+00 4.0000000e+00 
0.0000000e+00 2.5000000e+00 3.8829999e+00 
0.0000000e+00 2.5000000e+00 4.1170001e+00 
1.2500000e+00 2.8000000e+00 4.1170001e+00 
1.2500000e+00 2.8000000e+00 3.8829999e+00 
0.0000000e+00 2.8000000e+00 3.8829999e+00 
0.0000000e+00 2.8000000e+00 4.1170001e+00 
7.5000000e-01 2.5000000e+00 4.3829999e+00 
1.2500000e+00 2.5000000e+00 4.3829999e+00 
1.2500000e+00 2.5000000e+00 4.6170001e+00 
7.5000000e-01 2.5000000e+00 4.6170001e+00 
7.5000000e-01 2.5000000e+00 4.5000000e+00 
0.0000000e+00 2.5000000e+00 4.3829999e+00 
0.0000000e+00 2.5000000e+00 4.6170001e+00 
1.2500000e+00 2.8000000e+00 4.6170001e+00 
1.2500000e+00 2.8000000e+00 4.3829999e+00 
0.0000000e+00 2.8000000e+00 4.3829999e+00 
0.0000000e+00 2.8000000e+00 4.6170001e+00 
7.5000000e-01 2.5000000e+00 4.8829999e+00 
1.2500000e+00 2.5000000e+00 4.8829999e+00 
1.2500000e+00 2.5000000e+00 5.1170001e+00 
7.5000000e-01 2.5000000e+00 5.1170001e+00 
7.5000000e-01 2.5000000e+00 5.0000000e+00 
0.0000000e+00 2.5000000e+00 4.8829999e+00 
0.0000000e+00 2.5000000e+00 5.1170001e+00 
1.2500000e+00 2.8000000e+00 5.1170001e+00 
1.2500000e+00 2.8000000e+00 4.8829999e+00 
0.0000000e+00 2.8000000e+00 4.8829999e+00 
0.0000000e+00 2.8000000e+00 5.1170001e+00 
7.5000000e-01 2.5000000e+00 5.3829999e+00 
1.2500000e+00 2.5000000e+00 5.3829999e+00 
1.2500000e+00 2.5000000e+00 5.6170001e+00 
7.5000000e-01 2.5000000e+00 5.6170001e+00 
7.5000000e-01 2.5000000e+00 5.5000000e+00 
0.0000000e+00 2.5000000e+00 5.3829999e+00 
0.0000000e+00 2.5000000e+00 5.6170001e+00 
1.2500000e+00 2.8000000e+00 5.6170001e+00 
1.2500000e+00 2.8000000e+00 5.3829999e+00 
0.0000000e+00 2.8000000e+00 5.3829999e+00 
0.0000000e+00 2.8000000e+00 5.6170001e+00 
7.5000000e-01 2.5000000e+00 5.8829999e+00 
1.2500000e+00 2.5000000e+00 5.8829999e+00 
1.2500000e+00 2.5000000e+00 6.1170001e+00 
7.5000000e-01 2.5000000e+00 6.1170001e+00 
7.5000000e-01 2.5000000e+00 6.0000000e+00 
0.0000000e+00 2.5000000e+00 5.8829999e+00 
0.0000000e+00 2.5000000e+00 6.1170001e+00 
1.2500000e+00 2.8000000e+00 6.1170001e+00 
1.2500000e+00 2.8000000e+00 5.8829999e+00 
0.0000000e+00 2.8000000e+00 5.8829999e+00 
0.0000000e+00 2.8000000e+00 6.1170001e+00 
7.5000000e-01 2.5000000e+00 6.3829999e+00 
1.2500000e+00 2.5000000e+00 6.3829999e+00 
1.2500000e+00 2.5000000e+00 6.6170001e+00 
7.5000000e-01 2.5000000e+00 6.6170001e+00 
7.5000000e-01 2.5000000e+00 6.5000000e+00 
0.0000000e+00 2.5000000e+00 6.3829999e+00 
0.0000000e+00 2.5000000e+00 6.6170001e+00 
1.2500000e+00 2.8000000e+00 6.6170001e+00 
1.2500000e+00 2.8000000e+00 6.3829999e+00 
0.0000000e+00 2.8000000e+00 6.3829999e+00 
0.0000000e+00 2.8000000e+00 6.6170001e+00 
7.5000000e-01 2.5000000e+00 6.8829999e+00 
1.2500000e+00 2.5000000e+00 6.8829999e+00 
1.2500000e+00 2.5000000e+00 7.1170001e+00 
7.5000000e-01 2.5000000e+00 7.1170001e+00 
7.5000000e-01 2.5000000e+00 7.0000000e+00 
0.0000000e+00 2.5000000e+00 6.8829999e+00 
0.0000000e+00 2.5000000e+00 7.1170001e+00 
1.2500000e+00 2.8000000e+00 7.1170001e+00 
1.2500000e+00 2.8000000e+00 6.8829999e+00 
0.0000000e+00 2.8000000e+00 6.8829999e+00 
0.0000000e+00 2.8000000e+00 7.1170001e+00 
7.5000000e-01 2.5000000e+00 7.3829999e+00 
1.2500000e+00 2.5000000e+00 7.3829999e+00 
1.2500000e+00 2.5000000e+00 7.6170001e+00 
7.5000000e-01 2.5000000e+00 7.6170001e+00 
7.5000000e-01 2.5000000e+00 7.5000000e+00 
0.0000000e+00 2.5000000e+00 7.3829999e+00 
0.0000000e+00 2.5000000e+00 7.6170001e+00 
1.2500000e+00 2.8000000e+00 7.6170001e+00 
1.2500000e+00 2.8000000e+00 7.3829999e+00 
0.0000000e+00 2.8000000e+00 7.3829999e+00 
0.0000000e+00 2.8000000e+00 7.6170001e+00 
7.5000000e-01 2.5000000e+00 7.8829999e+00 
1.2500000e+00 2.5000000e+00 7.8829999e+00 
1.2500000e+00 2.5000000e+00 8.1169996e+00 
7.5000000e-01 2.5000000e+00 8.1169996e+00 
7.5000000e-01 2.5000000e+00 8.0000000e+00 
0.0000000e+00 2.5000000e+00 7.8829999e+00 
0.0000000e+00 2.5000000e+00 8.1169996e+00 
1.2500000e+00 2.8000000e+00 8.1169996e+00 
1.2500000e+00 2.8000000e+00 7.8829999e+00 
0.0000000e+00 2.8000000e+00 7.8829999e+00 
0.0000000e+00 2.8000000e+00 8.1169996e+00 
7.5000000e-01 2.5000000e+00 8.3830004e+00 
1.2500000e+00 2.5000000e+00 8.3830004e+00 
1.2500000e+00 2.5000000e+00 8.6169996e+00 
7.5000000e-01 2.5000000e+00 8.6169996e+00 
7.5000000e-01 2.5000000e+00 8.5000000e+00 
0.0000000e+00 2.5000000e+00 8.3830004e+00 
0.0000000e+00 2.5000000e+00 8.6169996e+00 
1.2500000e+00 2.8000000e+00 8.6169996e+00 
1.2500000e+00 2.8000000e+00 8.3830004e+00 
0.0000000e+00 2.8000000e+00 8.3830004e+00 
0.0000000e+00 2.8000000e+00 8.6169996e+00 
7.5000000e-01 2.5000000e+00 8.8830004e+00 
1.2500000e+00 2.5000000e+00 8.8830004e+00 
1.2500000e+00 2.5000000e+00 9.1169996e+00 
7.5000000e-01 2.5000000e+00 9.1169996e+00 
7.5000000e-01 2.5000000e+00 9.0000000e+00 
0.0000000e+00 2.5000000e+00 8.8830004e+00 
0.0000000e+00 2.5000000e+00 9.1169996e+00 
1.2500000e+00 2.8000000e+00 9.1169996e+00 
1.2500000e+00 2.8000000e+00 8.8830004e+00 
0.0000000e+00 2.8000000e+00 8.8830004e+00 
0.0000000e+00 2.8000000e+00 9.1169996e+00 
7.5000000e-01 2.5000000e+00 9.3830004e+00 
1.2500000e+00 2.5000000e+00 9.3830004e+00 
1.2500000e+00 2.5000000e+00 9.6169996e+00 
7.5000000e-01 2.5000000e+00 9.6169996e+00 
7.5000000e-01 2.5000000e+00 9.5000000e+00 
0.0000000e+00 2.5000000e+00 9.3830004e+00 
0.0000000e+00 2.5000000e+00 9.6169996e+00 
1.2500000e+00 2.8000000e+00 9.6169996e+00 
1.2500000e+00 2.8000000e+00 9.3830004e+00 
0.0000000e+00 2.8000000e+00 9.3830004e+00 
0.0000000e+00 2.8000000e+00 9.6169996e+00 
7.5000000e-01 2.5000000e+00 9.8830004e+00 
1.2500000e+00 2.5000000e+00 9.8830004e+00 
1.2500000e+00 2.5000000e+00 1.0117000e+01 
[...]
POINT_DATA 1827
FIELD FieldData 2
DISPLACEMENT 3 1827  float
0.0000000e+00 0.0000000e+00 0.0000000e+00 
0.0000000e+00 0.0000000e+00 0.0000000e+00 
0.0000000e+00 0.0000000e+00 0.0000000e+00 
0.0000000e+00 0.0000000e+00 0.0000000e+00 
0.0000000e+00 -3.4725032e-05 0.0000000e+00 
0.0000000e+00 -8.4672376e-09 0.0000000e+00 
0.0000000e+00 -4.7456611e-05 0.0000000e+00 
0.0000000e+00 -2.2254184e-08 0.0000000e+00 
0.0000000e+00 -6.3918698e-05 0.0000000e+00 
-1.9704334e-08 -6.3942061e-05 -2.8238405e-09 
-8.3176693e-10 -6.3782296e-05 9.7006243e-11 
0.0000000e+00 -6.3763931e-05 0.0000000e+00 
0.0000000e+00 -6.3809202e-05 0.0000000e+00 
0.0000000e+00 -6.3819527e-05 0.0000000e+00 
1.5657481e-08 -6.3903281e-05 4.4943649e-09 
0.0000000e+00 -6.3903099e-05 0.0000000e+00 
0.0000000e+00 -6.3808213e-05 0.0000000e+00 
0.0000000e+00 -6.3812236e-05 0.0000000e+00 
1.9627045e-07 -1.1565035e-04 -1.0640615e-07 
3.1185971e-07 -1.1477403e-04 1.2371406e-07 
1.6330368e-07 -1.1535692e-04 1.4741236e-07 
1.1537349e-07 -1.1605669e-04 -8.1878134e-08 
1.4858364e-07 -1.1587113e-04 -8.8546670e-08 
0.0000000e+00 -1.1608457e-04 0.0000000e+00 
0.0000000e+00 -1.1626250e-04 0.0000000e+00 
-2.8861194e-07 -1.1535204e-04 7.3207246e-07 
-1.6234422e-07 -1.1487837e-04 7.3993755e-07 
0.0000000e+00 -1.1610454e-04 0.0000000e+00 
0.0000000e+00 -1.1621565e-04 0.0000000e+00 
8.3656204e-08 -2.1336511e-04 1.9392573e-07 
1.1657389e-07 -2.1275363e-04 5.7272297e-07 
-1.6726474e-07 -2.1379186e-04 5.7106973e-07 
-1.0123698e-07 -2.1396666e-04 2.1799183e-07 
-1.7198811e-08 -2.1368584e-04 2.2260977e-07 
0.0000000e+00 -2.1362268e-04 0.0000000e+00 
0.0000000e+00 -2.1389801e-04 0.0000000e+00 
-3.3236435e-07 -2.1368830e-04 1.5762787e-06 
-9.6628114e-08 -2.1292208e-04 1.5663747e-06 
0.0000000e+00 -2.1367428e-04 0.0000000e+00 
0.0000000e+00 -2.1386029e-04 0.0000000e+00 
5.1688602e-07 -3.3222284e-04 9.9799369e-09 
6.6337049e-07 -3.2968447e-04 1.7919821e-07 
5.4068602e-07 -3.3022312e-04 2.1017638e-07 
4.3891907e-07 -3.3266193e-04 3.1957313e-08 
4.5721217e-07 -3.3248265e-04 2.6047861e-08 
0.0000000e+00 -3.3377155e-04 0.0000000e+00 
0.0000000e+00 -3.3394707e-04 0.0000000e+00 
-8.5694694e-07 -3.3033497e-04 7.9549130e-07 
-7.4971092e-07 -3.2985784e-04 7.8480002e-07 
0.0000000e+00 -3.3371578e-04 0.0000000e+00 
0.0000000e+00 -3.3387844e-04 0.0000000e+00 
5.2664558e-07 -4.0664029e-04 -8.3543898e-07 
7.1344641e-07 -4.0376288e-04 -1.4276503e-06 
1.0043040e-06 -4.0378381e-04 -1.3995289e-06 
7.8593496e-07 -4.0662679e-04 -8.0166086e-07 
6.2042869e-07 -4.0669821e-04 -8.1038468e-07 
0.0000000e+00 -4.0811091e-04 0.0000000e+00 
0.0000000e+00 -4.0805407e-04 0.0000000e+00 
-6.4191227e-07 -4.0397581e-04 -1.3783909e-06 
-9.3888133e-07 -4.0395488e-04 -1.3810843e-06 
0.0000000e+00 -4.0800479e-04 0.0000000e+00 
0.0000000e+00 -4.0800366e-04 0.0000000e+00 
8.5161901e-07 -3.4172274e-04 -1.1217255e-06 
1.1545012e-06 -3.3733054e-04 -2.2821000e-06 
1.7645926e-06 -3.3643920e-04 -2.2309214e-06 
1.3487296e-06 -3.4110370e-04 -1.0946446e-06 
1.0599957e-06 -3.4146558e-04 -1.1064326e-06 
0.0000000e+00 -3.4415745e-04 0.0000000e+00 
0.0000000e+00 -3.4392258e-04 0.0000000e+00 
-8.9075394e-07 -3.3679701e-04 -3.1469981e-06 
-1.4852835e-06 -3.3749593e-04 -3.1570937e-06 
0.0000000e+00 -3.4393405e-04 0.0000000e+00 
0.0000000e+00 -3.4384421e-04 0.0000000e+00 
2.0327073e-07 -1.9627866e-04 -1.2301176e-08 
3.0959575e-07 -1.9513528e-04 -2.9920815e-07 
5.1170070e-07 -1.9386313e-04 -3.2049260e-07 
3.5645357e-07 -1.9554514e-04 2.3368925e-08 
2.5586775e-07 -1.9594368e-04 -5.9803837e-09 
0.0000000e+00 -1.9646161e-04 0.0000000e+00 
0.0000000e+00 -1.9614685e-04 0.0000000e+00 
-2.8576858e-07 -1.9413650e-04 -1.5260248e-06 
-5.1228329e-07 -1.9506991e-04 -1.5257582e-06 
0.0000000e+00 -1.9635339e-04 0.0000000e+00 
0.0000000e+00 -1.9612120e-04 0.0000000e+00 
2.3602459e-07 -7.8367644e-05 1.2199727e-06 
3.4819260e-07 -7.8548605e-05 2.4440558e-06 
-1.4712192e-07 -7.7534496e-05 2.4077267e-06 
-1.3520160e-07 -7.7773715e-05 1.2224756e-06 
5.1337160e-08 -7.8082165e-05 1.1983753e-06 
0.0000000e+00 -7.8038473e-05 0.0000000e+00 
0.0000000e+00 -7.7783312e-05 0.0000000e+00 
-1.8635369e-07 -7.7658216e-05 1.3660862e-06 
3.1211223e-07 -7.8436999e-05 1.3558847e-06 
0.0000000e+00 -7.8063727e-05 0.0000000e+00 
0.0000000e+00 -7.7842975e-05 0.0000000e+00 
5.6406694e-08 -1.2605557e-05 3.9812258e-07 
7.5046920e-08 -1.2811924e-05 6.1616129e-07 
-3.7563268e-09 -1.2441563e-05 6.0864181e-07 
-2.4917014e-08 -1.2366020e-05 3.9775105e-07 
1.3702928e-08 -1.2482692e-05 3.9026372e-07 
0.0000000e+00 -1.2385104e-05 0.0000000e+00 
0.0000000e+00 -1.2269749e-05 0.0000000e+00 
5.7489359e-08 -1.2471482e-05 2.2470083e-07 
1.4379337e-07 -1.2771218e-05 2.2935075e-07 
0.0000000e+00 -1.2370973e-05 0.0000000e+00 
0.0000000e+00 -1.2278083e-05 0.0000000e+00 
-2.4000395e-08 1.2931327e-05 -5.0040700e-08 
-6.9554972e-08 1.2757473e-05 -1.8320067e-07 
1.2204600e-09 1.2867715e-05 -1.7903103e-07 
2.0135701e-08 1.2991978e-05 -5.5795851e-08 
-3.3037389e-10 1.2967617e-05 -5.2932453e-08 
0.0000000e+00 1.2951395e-05 0.0000000e+00 
0.0000000e+00 1.2986044e-05 0.0000000e+00 
8.8669537e-08 1.2870123e-05 -2.7907092e-07 
2.4480750e-08 1.2790789e-05 -2.7803716e-07 
0.0000000e+00 1.2957398e-05 0.0000000e+00 
0.0000000e+00 1.2976745e-05 0.0000000e+00 
-8.2759755e-08 1.8832459e-05 1.6058416e-07 
-1.2652966e-07 1.8457480e-05 3.0518927e-07 
-2.2159877e-07 1.8486446e-05 3.0116200e-07 
-1.3931343e-07 1.8853265e-05 1.6016578e-07 
-1.0817706e-07 1.8848201e-05 1.5851565e-07 
0.0000000e+00 1.9064872e-05 0.0000000e+00 
0.0000000e+00 1.9073628e-05 0.0000000e+00 
3.0953007e-08 1.8506425e-05 2.6806794e-07 
9.6060745e-08 1.8480756e-05 2.6638909e-07 
0.0000000e+00 1.9052670e-05 0.0000000e+00 
0.0000000e+00 1.9067595e-05 0.0000000e+00 
2.2635604e-08 1.5941057e-05 1.0656827e-07 
-2.8184997e-09 1.6080556e-05 1.9428114e-07 
-3.0572590e-08 1.6112303e-05 2.0499120e-07 
-1.2403230e-08 1.5956271e-05 1.0951099e-07 
3.8516981e-09 1.5948028e-05 1.0676565e-07 
0.0000000e+00 1.5886679e-05 0.0000000e+00 
0.0000000e+00 1.5893896e-05 0.0000000e+00 
-1.0030013e-07 1.6097445e-05 1.6751406e-07 
-5.8212219e-08 1.6073755e-05 1.6630430e-07 
0.0000000e+00 1.5891610e-05 0.0000000e+00 
0.0000000e+00 1.5896610e-05 0.0000000e+00 
1.1394590e-07 7.8001322e-06 1.5491004e-07 
1.4667322e-07 8.1616372e-06 3.2284598e-07 
6.3130415e-08 8.1195158e-06 3.3845262e-07 
4.5812460e-08 7.7738350e-06 1.6010388e-07 
7.6947302e-08 7.7846626e-06 1.5774791e-07 
0.0000000e+00 7.6076185e-06 0.0000000e+00 
0.0000000e+00 7.5931503e-06 0.0000000e+00 
-1.3967990e-07 8.1011531e-06 3.6414806e-07 
-5.5992910e-08 8.1308772e-06 3.6653097e-07 
0.0000000e+00 7.6113970e-06 0.0000000e+00 
0.0000000e+00 7.6055326e-06 0.0000000e+00 
4.7396260e-09 -2.6436835e-06 2.1472165e-07 
-3.1582719e-09 -2.6853741e-06 3.9995601e-07 
-9.8712825e-08 -2.7163499e-06 3.9993165e-07 
-7.1757334e-08 -2.6480957e-06 2.1335464e-07 
-3.2329215e-08 -2.6438670e-06 2.1217315e-07 
0.0000000e+00 -2.6345476e-06 0.0000000e+00 
0.0000000e+00 -2.6403047e-06 0.0000000e+00 
-5.6916349e-08 -2.7034296e-06 4.1394679e-07 
3.4812686e-08 -2.6928135e-06 4.1338492e-07 
0.0000000e+00 -2.6392856e-06 0.0000000e+00 
0.0000000e+00 -2.6368830e-06 0.0000000e+00 
-1.3819401e-07 -6.4663222e-06 -7.0675561e-08 
-2.0768510e-07 -6.8046274e-06 -2.3464288e-07 
-1.4217183e-07 -6.8460131e-06 -2.3625526e-07 
-9.4505339e-08 -6.4835353e-06 -7.4572156e-08 
-1.1213087e-07 -6.4710580e-06 -7.1278841e-08 
0.0000000e+00 -6.3200396e-06 0.0000000e+00 
0.0000000e+00 -6.3254361e-06 0.0000000e+00 
8.0786343e-08 -6.8166464e-06 -1.8698319e-07 
1.2315723e-08 -6.7894644e-06 -1.8888917e-07 
0.0000000e+00 -6.3264329e-06 0.0000000e+00 
0.0000000e+00 -6.3309540e-06 0.0000000e+00 
-2.7869115e-08 -1.6987235e-06 -1.6275176e-07 
-5.0443354e-08 -1.6826428e-06 -3.7401873e-07 
7.8865483e-08 -1.6236992e-06 -3.6015373e-07 
4.5845098e-08 -1.6736603e-06 -1.6538975e-07 
8.9555945e-09 -1.6846498e-06 -1.6288648e-07 
0.0000000e+00 -1.7404631e-06 0.0000000e+00 
0.0000000e+00 -1.7279384e-06 0.0000000e+00 
4.2117776e-08 -1.6349691e-06 -4.0881233e-07 
-5.3928492e-08 -1.6707751e-06 -4.0739675e-07 
0.0000000e+00 -1.7316048e-06 0.0000000e+00 
0.0000000e+00 -1.7287592e-06 0.0000000e+00 
7.2651410e-08 5.2002615e-06 1.0393529e-07 
1.2016204e-07 5.3175581e-06 2.2608108e-07 
5.4516057e-08 5.4410052e-06 2.4096249e-07 
4.0536889e-08 5.2725018e-06 1.0504277e-07 
5.5333139e-08 5.2348032e-06 1.0174047e-07 
0.0000000e+00 5.1386678e-06 0.0000000e+00 
0.0000000e+00 5.1718130e-06 0.0000000e+00 
-3.3569844e-08 5.4167494e-06 1.0066083e-07 
1.6277632e-08 5.3233907e-06 1.0569071e-07 
0.0000000e+00 5.1513894e-06 0.0000000e+00 
0.0000000e+00 5.1765378e-06 0.0000000e+00 
9.0442633e-08 6.2596896e-06 4.3019330e-07 
1.2640081e-07 6.3211710e-06 8.7501525e-07 
-8.7454048e-08 6.3902648e-06 8.8591463e-07 
-6.6912229e-08 6.3049915e-06 4.3335555e-07 
1.0605661e-08 6.2789873e-06 4.2726774e-07 
0.0000000e+00 6.2251024e-06 0.0000000e+00 
0.0000000e+00 6.2479803e-06 0.0000000e+00 
-1.2676225e-07 6.3817374e-06 7.8380202e-07 
7.9701344e-08 6.3176594e-06 7.8496618e-07 
0.0000000e+00 6.2257982e-06 0.0000000e+00 
0.0000000e+00 6.2533786e-06 0.0000000e+00 
9.7958207e-08 6.7601360e-07 5.3843792e-07 
1.2144989e-07 7.2980481e-07 1.0840583e-06 
-1.3892459e-07 7.6741770e-07 1.0800849e-06 
-1.0173364e-07 7.0529188e-07 5.3873430e-07 
-6.2517436e-10 6.8978147e-07 5.3317183e-07 
0.0000000e+00 6.5411882e-07 0.0000000e+00 
0.0000000e+00 6.6937105e-07 0.0000000e+00 
-1.6334882e-07 7.6736728e-07 1.0140636e-06 
8.9346429e-08 7.2556116e-07 1.0141117e-06 
0.0000000e+00 6.5608521e-07 0.0000000e+00 
0.0000000e+00 6.7532056e-07 0.0000000e+00 
3.3218910e-08 -5.2208625e-06 3.8884824e-08 
4.4742215e-08 -5.1106990e-06 5.2135341e-08 
2.9166875e-08 -5.1331681e-06 4.4072650e-08 
2.4033445e-08 -5.2278183e-06 3.5137617e-08 
2.9257365e-08 -5.2224991e-06 3.6772889e-08 
0.0000000e+00 -5.3496465e-06 0.0000000e+00 
0.0000000e+00 -5.3507551e-06 0.0000000e+00 
-3.2130604e-08 -5.1283073e-06 6.6399856e-08 
-2.3340753e-08 -5.1166107e-06 6.4639693e-08 
0.0000000e+00 -5.3448694e-06 0.0000000e+00 
0.0000000e+00 -5.3480662e-06 0.0000000e+00 
-7.4418011e-08 -5.8025403e-06 -2.5838821e-07 
-8.9642143e-08 -5.8953342e-06 -5.7586766e-07 
5.4644094e-08 -5.9207223e-06 -5.8094332e-07 
3.3708456e-08 -5.8187134e-06 -2.5832304e-07 
-2.0247512e-08 -5.8101436e-06 -2.5611325e-07 
0.0000000e+00 -5.7433363e-06 0.0000000e+00 
0.0000000e+00 -5.7490724e-06 0.0000000e+00 
1.0663845e-07 -5.9168306e-06 -5.3448167e-07 
-3.9464432e-08 -5.8922474e-06 -5.3404699e-07 
0.0000000e+00 -5.7428852e-06 0.0000000e+00 
0.0000000e+00 -5.7561392e-06 0.0000000e+00 
-9.7932480e-09 -2.1840533e-06 -1.9613380e-07 
-1.1764900e-08 -2.1183293e-06 -4.0186126e-07 
8.1693607e-08 -2.1196740e-06 -3.9953429e-07 
6.4922673e-08 -2.1900275e-06 -1.9586653e-07 
2.7335442e-08 -2.1886419e-06 -1.9422804e-07 
0.0000000e+00 -2.2356824e-06 0.0000000e+00 
0.0000000e+00 -2.2381150e-06 0.0000000e+00 
4.0616033e-08 -2.1264727e-06 -3.8549723e-07 
-5.6026515e-08 -2.1180610e-06 -3.8516063e-07 
0.0000000e+00 -2.2323693e-06 0.0000000e+00 
0.0000000e+00 -2.2405450e-06 0.0000000e+00 
1.7498857e-08 1.5874529e-06 1.0152641e-07 
1.7469073e-08 1.5939909e-06 2.2234597e-07 
-4.0818566e-08 1.6280854e-06 2.3092906e-07 
-2.3852930e-08 1.6120807e-06 1.0238222e-07 
-4.0819681e-09 1.5994400e-06 1.0053557e-07 
0.0000000e+00 1.6134829e-06 0.0000000e+00 
0.0000000e+00 1.6230656e-06 0.0000000e+00 
-3.8351505e-08 1.6236188e-06 1.8274193e-07 
1.6765823e-08 1.5940871e-06 1.8381334e-07 
0.0000000e+00 1.6154731e-06 0.0000000e+00 
0.0000000e+00 1.6247819e-06 0.0000000e+00 
-1.2285367e-08 2.8817217e-06 5.1989073e-08 
-1.2213124e-08 2.8206873e-06 1.2224545e-07 
-4.3634635e-08 2.8304921e-06 1.2219800e-07 
-3.5259873e-08 2.8889142e-06 5.3529792e-08 
-2.3451234e-08 2.8854377e-06 5.2223484e-08 
0.0000000e+00 2.9398163e-06 0.0000000e+00 
0.0000000e+00 2.9425130e-06 0.0000000e+00 
-6.8985022e-09 2.8320862e-06 1.0770841e-07 
2.4148683e-08 2.8231225e-06 1.0803226e-07 
0.0000000e+00 2.9387140e-06 0.0000000e+00 
0.0000000e+00 2.9429136e-06 0.0000000e+00 
1.7133534e-08 1.6773051e-06 8.9933266e-08 
2.2688726e-08 1.6875879e-06 1.9161470e-07 
-2.2744958e-08 1.6929929e-06 1.8858806e-07 
-1.7849247e-08 1.6809629e-06 8.9916433e-08 
5.8754872e-12 1.6791756e-06 8.9077524e-08 
0.0000000e+00 1.6665410e-06 0.0000000e+00 
0.0000000e+00 1.6681402e-06 0.0000000e+00 
-3.0042060e-08 1.6939675e-06 1.7919069e-07 
1.6120770e-08 1.6879719e-06 1.7894763e-07 
0.0000000e+00 1.6674528e-06 0.0000000e+00 
0.0000000e+00 1.6700848e-06 0.0000000e+00 
8.0959994e-09 -1.7615831e-07 8.6835245e-10 
1.2307547e-08 -1.4185186e-07 -1.0916680e-08 
1.5519992e-08 -1.6313372e-07 -1.3446016e-08 
9.0732755e-09 -1.8645116e-07 2.3228378e-10 
8.7388781e-09 -1.8086021e-07 7.0694528e-10 
0.0000000e+00 -2.0855653e-07 0.0000000e+00 
0.0000000e+00 -2.1283951e-07 0.0000000e+00 
-3.7638661e-09 -1.6029007e-07 8.7571799e-09 
-7.3254589e-09 -1.4592511e-07 8.4284748e-09 
0.0000000e+00 -2.0842391e-07 0.0000000e+00 
0.0000000e+00 -2.1192464e-07 0.0000000e+00 
1.6109097e-09 -9.9971044e-07 -2.2815323e-08 
-1.9785054e-09 -9.8269925e-07 -5.2598764e-08 
1.0838583e-08 -9.8624810e-07 -5.2019839e-08 
1.1078277e-08 -1.0021027e-06 -2.3756725e-08 
6.2822254e-09 -1.0005243e-06 -2.3042638e-08 
0.0000000e+00 -1.0240282e-06 0.0000000e+00 
0.0000000e+00 -1.0246471e-06 0.0000000e+00 
2.1927415e-09 -9.8600515e-07 -4.6852161e-08 
-1.0878158e-08 -9.8267424e-07 -4.7059668e-08 
0.0000000e+00 -1.0230993e-06 0.0000000e+00 
0.0000000e+00 -1.0247599e-06 0.0000000e+00 
-4.1152934e-09 -5.2855080e-07 -1.3492273e-08 
-5.2070646e-09 -5.3829507e-07 -2.4571845e-08 
2.5270069e-10 -5.3265239e-07 -2.3475220e-08 
7.1543499e-10 -5.2555419e-07 -1.3204230e-08 
-1.7491023e-09 -5.2733247e-07 -1.3416974e-08 
0.0000000e+00 -5.1558544e-07 0.0000000e+00 
0.0000000e+00 -5.1440088e-07 0.0000000e+00 
5.8791132e-09 -5.3396752e-07 -2.9030463e-08 
3.0313105e-10 -5.3766979e-07 -2.8900734e-08 
0.0000000e+00 -5.1592389e-07 0.0000000e+00 
0.0000000e+00 -5.1513939e-07 0.0000000e+00 
1.3984792e-09 6.6937176e-08 2.6307283e-08 
2.8599867e-09 5.8590444e-08 5.7552977e-08 
-1.1731752e-08 6.4574863e-08 5.9120303e-08 
-9.2859933e-09 7.0864509e-08 2.6866745e-08 
-3.9427075e-09 6.8549305e-08 2.6294316e-08 
0.0000000e+00 8.2033957e-08 0.0000000e+00 
0.0000000e+00 8.3373486e-08 0.0000000e+00 
-6.5590959e-09 6.3614571e-08 5.0357396e-08 
7.6318516e-09 5.8526883e-08 5.0735721e-08 
0.0000000e+00 8.1587572e-08 0.0000000e+00 
0.0000000e+00 8.3449301e-08 0.0000000e+00 
5.3060156e-09 1.9446111e-07 2.6524303e-08 
6.7091026e-09 1.9718752e-07 5.3275542e-08 
-5.7412368e-09 2.0225794e-07 5.3339953e-08 
-4.3588155e-09 1.9826329e-07 2.6492835e-08 
5.0938054e-10 1.9637577e-07 2.6217306e-08 
0.0000000e+00 1.9447164e-07 0.0000000e+00 
0.0000000e+00 1.9616105e-07 0.0000000e+00 
-7.4501982e-09 2.0191018e-07 4.6504312e-08 
4.8124811e-09 1.9721790e-07 4.6545953e-08 
0.0000000e+00 1.9473218e-07 0.0000000e+00 
0.0000000e+00 1.9629900e-07 0.0000000e+00 
1.7253959e-09 9.0495632e-08 3.4561107e-11 
3.6194090e-09 9.4767692e-08 2.2294231e-09 
2.4453013e-09 9.2443308e-08 7.7492079e-10 
1.2597959e-09 8.9225608e-08 -7.7631512e-11 
1.5255234e-09 8.9876124e-08 -1.2455267e-12 
0.0000000e+00 8.6376374e-08 0.0000000e+00 
0.0000000e+00 8.5870681e-08 0.0000000e+00 
-4.4482085e-10 9.2725664e-08 3.6763887e-09 
3.2028741e-10 9.4406047e-08 3.5011876e-09 
0.0000000e+00 8.6442569e-08 0.0000000e+00 
0.0000000e+00 8.6095909e-08 0.0000000e+00 
-2.7417260e-09 -2.1970727e-08 -1.4187825e-08 
-3.6481758e-09 -2.2254904e-08 -2.8985232e-08 
3.1255298e-09 -2.4903164e-08 -2.9121088e-08 
2.5247751e-09 -2.4012783e-08 -1.4343139e-08 
-1.0124269e-10 -2.2851065e-08 -1.4114200e-08 
0.0000000e+00 -2.3950538e-08 0.0000000e+00 
0.0000000e+00 -2.4923068e-08 0.0000000e+00 
3.4858705e-09 -2.4652804e-08 -2.5417339e-08 
-3.2804934e-09 -2.2165011e-08 -2.5503839e-08 
0.0000000e+00 -2.4037828e-08 0.0000000e+00 
0.0000000e+00 -2.4946610e-08 0.0000000e+00 
-2.6176494e-10 -9.9584865e-09 -7.7332905e-09 
-1.7502227e-10 -7.4351543e-09 -1.3959214e-08 
2.7236369e-09 -8.1391986e-09 -1.3870530e-08 
2.3048810e-09 -1.0506323e-08 -7.6638225e-09 
1.0044391e-09 -1.0259896e-08 -7.6331421e-09 
0.0000000e+00 -1.1877979e-08 0.0000000e+00 
0.0000000e+00 -1.2022015e-08 0.0000000e+00 
1.2391468e-09 -8.1926226e-09 -1.2919674e-08 
-1.7281392e-09 -7.4513666e-09 -1.2910232e-08 
0.0000000e+00 -1.1736100e-08 0.0000000e+00 
0.0000000e+00 -1.2077430e-08 0.0000000e+00 
1.0588258e-09 1.5709084e-08 9.3991819e-09 
1.1426291e-09 1.4311683e-08 2.0371630e-08 
-3.9595673e-09 1.6285888e-08 2.0547146e-08 
-2.6838838e-09 1.7087183e-08 9.5127790e-09 
-8.4677698e-10 1.6368004e-08 9.3521226e-09 
0.0000000e+00 1.7152995e-08 0.0000000e+00 
0.0000000e+00 1.7744394e-08 0.0000000e+00 
-2.8731377e-09 1.6179769e-08 1.7831027e-08 
2.0846371e-09 1.4459124e-08 1.7810493e-08 
0.0000000e+00 1.7178422e-08 0.0000000e+00 
0.0000000e+00 1.7726331e-08 0.0000000e+00 
2.8428540e-09 -3.8843964e-09 1.6213916e-08 
3.5672991e-09 -4.0582098e-09 3.5087321e-08 
-4.6210391e-09 -1.8494104e-09 3.4896022e-08 
-3.5074470e-09 -2.4639955e-09 1.6230391e-08 
-3.1426992e-10 -3.1702116e-09 1.6058259e-08 
0.0000000e+00 -3.5254479e-09 0.0000000e+00 
0.0000000e+00 -2.7427278e-09 0.0000000e+00 
-4.8648374e-09 -1.9045638e-09 3.1674464e-08 
3.7662318e-09 -3.9773131e-09 3.1662847e-08 
0.0000000e+00 -3.5009962e-09 0.0000000e+00 
0.0000000e+00 -2.6038003e-09 0.0000000e+00 
1.2191320e-09 -1.7022096e-08 5.0684710e-09 
1.7540347e-09 -1.5647489e-08 1.0473427e-08 
-7.8897427e-10 -1.4496494e-08 1.0448383e-08 
-6.5374600e-10 -1.6186251e-08 5.0472551e-09 
2.7588751e-10 -1.6589036e-08 5.0020583e-09 
0.0000000e+00 -1.7739035e-08 0.0000000e+00 
0.0000000e+00 -1.7393020e-08 0.0000000e+00 
-1.6712686e-09 -1.4665204e-08 8.9496099e-09 
7.7549112e-10 -1.5695340e-08 8.9483532e-09 
0.0000000e+00 -1.7663961e-08 0.0000000e+00 
0.0000000e+00 -1.7342989e-08 0.0000000e+00 
1.0385495e-09 -3.4596164e-09 4.6269952e-09 
1.7581054e-09 -3.5644900e-09 9.7167128e-09 
-7.2436529e-10 -2.9307534e-09 9.5060315e-09 
-6.9850675e-10 -2.8920242e-09 4.6337734e-09 
1.5003265e-10 -3.1767100e-09 4.5876742e-09 
0.0000000e+00 -2.1971152e-09 0.0000000e+00 
0.0000000e+00 -1.9728483e-09 0.0000000e+00 
-7.2258610e-10 -2.9819511e-09 8.6271594e-09 
1.5484305e-09 -3.6394521e-09 8.6166336e-09 
0.0000000e+00 -2.2820925e-09 0.0000000e+00 
0.0000000e+00 -2.0027664e-09 0.0000000e+00 
-4.6878740e-10 1.0150027e-08 -1.0263258e-09 
-4.8951593e-10 8.9607122e-09 -2.2172375e-09 
7.3382501e-11 8.6592937e-09 -2.3123992e-09 
-6.9681004e-11 9.9651620e-09 -1.0262541e-09 
-2.7735442e-10 1.0059990e-08 -1.0148137e-09 
0.0000000e+00 1.1793023e-08 0.0000000e+00 
0.0000000e+00 1.1668916e-08 0.0000000e+00 
7.7695139e-10 8.6972998e-09 -1.8775239e-09 
2.2721788e-10 8.9440260e-09 -1.8904101e-09 
0.0000000e+00 1.1660171e-08 0.0000000e+00 
0.0000000e+00 1.1615928e-08 0.0000000e+00 
-1.3711161e-09 1.5297655e-09 -3.2622876e-09 
-1.6666295e-09 -2.0715505e-09 -6.7879555e-09 
-7.4566263e-11 -2.8765590e-09 -6.9275341e-09 
-1.3435952e-10 9.9807551e-10 -3.2625787e-09 
-7.4073125e-10 1.2916480e-09 -3.2242800e-09 
0.0000000e+00 4.2255657e-09 0.0000000e+00 
0.0000000e+00 3.9375250e-09 0.0000000e+00 
2.0659017e-09 -2.6559830e-09 -5.8397247e-09 
4.4647241e-10 -1.9737543e-09 -5.8528911e-09 
0.0000000e+00 3.9883594e-09 0.0000000e+00 
0.0000000e+00 3.8257606e-09 0.0000000e+00 
-8.3118390e-10 -1.1197297e-08 -1.1192026e-09 
-9.2857461e-10 -1.2706526e-08 -2.3324696e-09 
-3.6500236e-10 -1.2811446e-08 -2.3188440e-09 
-3.7345466e-10 -1.1266775e-08 -1.1209151e-09 
-5.8479321e-10 -1.1224468e-08 -1.1069254e-09 
0.0000000e+00 -1.0129352e-08 0.0000000e+00 
0.0000000e+00 -1.0175588e-08 0.0000000e+00 
5.2966886e-10 -1.2777078e-08 -2.1726971e-09 
-2.8543000e-11 -1.2684214e-08 -2.1714783e-09 
0.0000000e+00 -1.0188046e-08 0.0000000e+00 
0.0000000e+00 -1.0213117e-08 0.0000000e+00 
0.0000000e+00 -4.3246946e-05 0.0000000e+00 
0.0000000e+00 -7.6567658e-10 0.0000000e+00 
-1.3565512e-11 -1.6513122e-08 -8.5904521e-12 
1.2638630e-11 -1.6650484e-08 -3.3373597e-12 