# vtk DataFile Version 4.0
vtk output
ASCII
DATASET UNSTRUCTURED_GRID
POINTS 1827 float
0.0000000e+00 0.0000000e+00 0.0000000e+00 
0.0000000e+00 0.0000000e+00 2.0000000e+01 
3.4700000e+00 0.0000000e+00 0.0000000e+00 
3.4700000e+00 0.0000000e+00 2.0000000e+01 
3.4700000e+00 1.0000000e+00 0.0000000e+00 
3.4700000e+00 1.0000000e+00 2.0000000e+01 
0.0000000e+00 1.0000000e+00 0.0000000e+00 
0.0000000e+00 1.0000000e+00 2.0000000e+01 
1.2500000e+00 2.5000000e+00 0.0000000e+00 
1.2500000e+00 2.5000000e+00 1.1700000e-01 
7.5000000e-01 2.5000000e+00 1.1700000e-01 
7.5000000e-01 2.5000000e+00 0.0000000e+00 
0.0000000e+00 2.5000000e+00 0.0000000e+00 
0.0000000e+00 2.5000000e+00 1.1700000e-01 
1.2500000e+00 2.8000000e+00 1.1700000e-01 
1.2500000e+00 2.8000000e+00 0.0000000e+00 
0.0000000e+00 2.8000000e+00 0.0000000e+00 
0.0000000e+00 2.8000000e+00 1.1700000e-01 
7.5000000e-01 2.5000000e+00 3.8299999e-01 
1.2500000e+00 2.5000000e+00 3.8299999e-01 
1.2500000e+00 2.5000000e+00 6.1699998e-01 
7.5000000e-01 2.5000000e+00 6.1699998e-01 
7.5000000e-01 2.5000000e+00 5.0000000e-01 
0.0000000e+00 2.5000000e+00 3.8299999e-01 
0.0000000e+00 2.5000000e+00 6.1699998e-01 
1.2500000e+00 2.8000000e+00 6.1699998e-01 
1.2500000e+00 2.8000000e+00 3.8299999e-01 
0.0000000e+00 2.8000000e+00 3.8299999e-01 
0.0000000e+00 2.8000000e+00 6.1699998e-01 
7.5000000e-01 2.5000000e+00 8.8300002e-01 
1.2500000e+00 2.5000000e+00 8.8300002e-01 
1.2500000e+00 2.5000000e+00 1.1170000e+00 
7.5000000e-01 2.5000000e+00 1.1170000e+00 
7.5000000e-01 2.5000000e+00 1.0000000e+00 
0.0000000e+00 2.5000000e+00 8.8300002e-01 
0.0000000e+00 2.5000000e+00 1.1170000e+00 
1.2500000e+00 2.8000000e+00 1.1170000e+00 
1.2500000e+00 2.8000000e+00 8.8300002e-01 
0.0000000e+00 2.8000000e+00 8.8300002e-01 
0.0000000e+00 2.8000000e+00 1.1170000e+00 
7.5000000e-01 2.5000000e+00 1.3830000e+00 
1.2500000e+00 2.5000000e+00 1.3830000e+00 
1.2500000e+00 2.5000000e+00 1.6170000e+00 
7.5000000e-01 2.5000000e+00 1.6170000e+00 
7.5000000e-01 2.5000000e+00 1.5000000e+00 
0.0000000e+00 2.5000000e+00 1.3830000e+00 
0.0000000e+00 2.5000000e+00 1.6170000e+00 
1.2500000e+00 2.8000000e+00 1.6170000e+00 
1.2500000e+00 2.8000000e+00 1.3830000e+00 
0.0000000e+00 2.8000000e+00 1.3830000e+00 
0.0000000e+00 2.8000000e+00 1.6170000e+00 
7.5000000e-01 2.5000000e+00 1.8830000e+00 
1.2500000e+00 2.5000000e+00 1.8830000e+00 
1.2500000e+00 2.5000000e+00 2.1170001e+00 
7.5000000e-01 2.5000000e+00 2.1170001e+00 
7.5000000e-01 2.5000000e+00 2.0000000e+00 
0.0000000e+00 2.5000000e+00 1.8830000e+00 
0.0000000e+00 2.5000000e+00 2.1170001e+00 
1.2500000e+00 2.8000000e+00 2.1170001e+00 
1.2500000e+00 2.8000000e+00 1.8830000e+00 
0.0000000e+00 2.8000000e+00 1.8830000e+00 
0.0000000e+00 2.8000000e+00 2.1170001e+00 
7.5000000e-01 2.5000000e+00 2.3829999e+00 
1.2500000e+00 2.5000000e+00 2.3829999e+00 
1.2500000e+00 2.5000000e+00 2.6170001e+00 
7.5000000e-01 2.5000000e+00 2.6170001e+00 
7.5000000e-01 2.5000000e+00 2.5000000e+00 
0.0000000e+00 2.5000000e+00 2.3829999e+00 
0.0000000e+00 2.5000000e+00 2.6170001e+00 
1.2500000e+00 2.8000000e+00 2.6170001e+00 
1.2500000e+00 2.8000000e+00 2.3829999e+00 
0.0000000e+00 2.8000000e+00 2.3829999e+00 
0.0000000e+00 2.8000000e+00 2.6170001e+00 
7.5000000e-01 2.5000000e+00 2.8829999e+00 
1.2500000e+00 2.5000000e+00 2.8829999e+00 
1.2500000e+00 2.5000000e+00 3.1170001e+00 
7.5000000e-01 2.5000000e+00 3.1170001e+00 
7.5000000e-01 2.5000000e+00 3.0000000e+00 
0.0000000e+00 2.5000000e+00 2.8829999e+00 
0.0000000e+00 2.5000000e+00 3.1170001e+00 
1.2500000e+00 2.8000000e+00 3.1170001e+00 
1.2500000e+00 2.8000000e+00 2.8829999e+00 
0.0000000e+00 2.8000000e+00 2.8829999e+00 
0.0000000e+00 2.8000000e+00 3.1170001e+00 
7.5000000e-01 2.5000000e+00 3.3829999e+00 
1.2500000e+00 2.5000000e+00 3.3829999e+00 
1.2500000e+00 2.5000000e+00 3.6170001e+00 
7.5000000e-01 2.5000000e+00 3.6170001e+00 
7.5000000e-01 2.5000000e+00 3.5000000e+00 
0.0000000e+00 2.5000000e+00 3.3829999e+00 
0.0000000e+00 2.5000000e+00 3.6170001e+00 
1.2500000e+00 2.8000000e+00 3.6170001e+00 
1.2500000e+00 2.8000000e+00 3.3829999e+00 
0.0000000e+00 2.8000000e+00 3.3829999e+00 
0.0000000e+00 2.8000000e+00 3.6170001e+00 
7.5000000e-01 2.5000000e+00 3.8829999e+00 
1.2500000e+00 2.5000000e+00 3.8829999e+00 
1.2500000e+00 2.5000000e+00 4.1170001e+00 
7.5000000e-01 2.5000000e+00 4.1170001e+00 
7.5000000e-01 2.5000000e+00 4.0000000e+00 
0.0000000e+00 2.5000000e+00 3.8829999e+00 
0.0000000e+00 2.5000000e+00 4.1170001e+00 
1.2500000e+00 2.8000000e+00 4.1170001e+00 
1.2500000e+00 2.8000000e+00 3.8829999e+00 
0.0000000e+00 2.8000000e+00 3.8829999e+00 
0.0000000e+00 2.8000000e+00 4.1170001e+00 
7.5000000e-01 2.5000000e+00 4.3829999e+00 
1.2500000e+00 2.5000000e+00 4.3829999e+00 
1.2500000e+00 2.5000000e+00 4.6170001e+00 
7.5000000e-01 2.5000000e+00 4.6170001e+00 
7.5000000e-01 2.5000000e+00 4.5000000e+00 
0.0000000e+00 2.5000000e+00 4.3829999e+00 
0.0000000e+00 2.5000000e+00 4.6170001e+00 
1.2500000e+00 2.8000000e+00 4.6170001e+00 
1.2500000e+00 2.8000000e+00 4.3829999e+00 
0.0000000e+00 2.8000000e+00 4.3829999e+00 
0.0000000e+00 2.8000000e+00 4.6170001e+00 
7.5000000e-01 2.5000000e+00 4.8829999e+00 
1.2500000e+00 2.5000000e+00 4.8829999e+00 
1.2500000e+00 2.5000000e+00 5.1170001e+00 
7.5000000e-01 2.5000000e+00 5.1170001e+00 
7.5000000e-01 2.5000000e+00 5.0000000e+00 
0.0000000e+00 2.5000000e+00 4.8829999e+00 
0.0000000e+00 2.5000000e+00 5.1170001e+00 
1.2500000e+00 2.8000000e+00 5.1170001e+00 
1.2500000e+00 2.8000000e+00 4.8829999e+00 
0.0000000e+00 2.8000000e+00 4.8829999e+00 
0.0000000e+00 2.8000000e+00 5.1170001e+00 
7.5000000e-01 2.5000000e+00 5.3829999e+00 
1.2500000e+00 2.5000000e+00 5.3829999e+00 
1.2500000e+00 2.5000000e+00 5.6170001e+00 
7.5000000e-01 2.5000000e+00 5.6170001e+00 
7.5000000e-01 2.5000000e+00 5.5000000e+00 
0.0000000e+00 2.5000000e+00 5.3829999e+00 
0.0000000e+00 2.5000000e+00 5.6170001e+00 
1.2500000e+00 2.8000000e+00 5.6170001e+00 
1.2500000e+00 2.8000000e+00 5.3829999e+00 
0.0000000e+00 2.8000000e+00 5.3829999e+00 
0.0000000e+00 2.8000000e+00 5.6170001e+00 
7.5000000e-01 2.5000000e+00 5.8829999e+00 
1.2500000e+00 2.5000000e+00 5.8829999e+00 
1.2500000e+00 2.5000000e+00 6.1170001e+00 
7.5000000e-01 2.5000000e+00 6.1170001e+00 
7.5000000e-01 2.5000000e+00 6.0000000e+00 
0.0000000e+00 2.5000000e+00 5.8829999e+00 
0.0000000e+00 2.5000000e+00 6.1170001e+00 
1.2500000e+00 2.8000000e+00 6.1170001e+00 
1.2500000e+00 2.8000000e+00 5.8829999e+00 
0.0000000e+00 2.8000000e+00 5.8829999e+00 
0.0000000e+00 2.8000000e+00 6.1170001e+00 
7.5000000e-01 2.5000000e+00 6.3829999e+00 
1.2500000e+00 2.5000000e+00 6.3829999e+00 
1.2500000e+00 2.5000000e+00 6.6170001e+00 
7.5000000e-01 2.5000000e+00 6.6170001e+00 
7.5000000e-01 2.5000000e+00 6.5000000e+00 
0.0000000e+00 2.5000000e+00 6.3829999e+00 
0.0000000e+00 2.5000000e+00 6.6170001e+00 
1.2500000e+00 2.8000000e+00 6.6170001e+00 
1.2500000e+00 2.8000000e+00 6.3829999e+00 
0.0000000e+00 2.8000000e+00 6.3829999e+00 
0.0000000e+00 2.8000000e+00 6.6170001e+00 
7.5000000e-01 2.5000000e+00 6.8829999e+00 
1.2500000e+00 2.5000000e+00 6.8829999e+00 
1.2500000e+00 2.5000000e+00 7.1170001e+00 
7.5000000e-01 2.5000000e+00 7.1170001e+00 
7.5000000e-01 2.5000000e+00 7.0000000e+00 
0.0000000e+00 2.5000000e+00 6.8829999e+00 
0.0000000e+00 2.5000000e+00 7.1170001e+00 
1.2500000e+00 2.8000000e+00 7.1170001e+00 
1.2500000e+00 2.8000000e+00 6.8829999e+00 
0.0000000e+00 2.8000000e+00 6.8829999e+00 
0.0000000e+00 2.8000000e+00 7.1170001e+00 
7.5000000e-01 2.5000000e+00 7.3829999e+00 
1.2500000e+00 2.5000000e+00 7.3829999e+00 
1.2500000e+00 2.5000000e+00 7.6170001e+00 
7.5000000e-01 2.5000000e+00 7.6170001e+00 
7.5000000e-01 2.5000000e+00 7.5000000e+00 
0.0000000e+00 2.5000000e+00 7.3829999e+00 
0.0000000e+00 2.5000000e+00 7.6170001e+00 
1.2500000e+00 2.8000000e+00 7.6170001e+00 
1.2500000e+00 2.8000000e+00 7.3829999e+00 
0.0000000e+00 2.8000000e+00 7.3829999e+00 
0.0000000e+00 2.8000000e+00 7.6170001e+00 
7.5000000e-01 2.5000000e+00 7.8829999e+00 
1.2500000e+00 2.5000000e+00 7.8829999e+00 
1.2500000e+00 2.5000000e+00 8.1169996e+00 
7.5000000e-01 2.5000000e+00 8.1169996e+00 
7.5000000e-01 2.5000000e+00 8.0000000e+00 
0.0000000e+00 2.5000000e+00 7.8829999e+00 
0.0000000e+00 2.5000000e+00 8.1169996e+00 
1.2500000e+00 2.8000000e+00 8.1169996e+00 
1.2500000e+00 2.8000000e+00 7.8829999e+00 
0.0000000e+00 2.8000000e+00 7.8829999e+00 
0.0000000e+00 2.8000000e+00 8.1169996e+00 
7.5000000e-01 2.5000000e+00 8.3830004e+00 
1.2500000e+00 2.5000000e+00 8.3830004e+00 
1.2500000e+00 2.5000000e+00 8.6169996e+00 
7.5000000e-01 2.5000000e+00 8.6169996e+00 
7.5000000e-01 2.5000000e+00 8.5000000e+00 
0.0000000e+00 2.5000000e+00 8.3830004e+00 
0.0000000e+00 2.5000000e+00 8.6169996e+00 
1.2500000e+00 2.8000000e+00 8.6169996e+00 
1.2500000e+00 2.8000000e+00 8.3830004e+00 
0.0000000e+00 2.8000000e+00 8.3830004e+00 
0.0000000e+00 2.8000000e+00 8.6169996e+00 
7.5000000e-01 2.5000000e+00 8.8830004e+00 
1.2500000e+00 2.5000000e+00 8.8830004e+00 
1.2500000e+00 2.5000000e+00 9.1169996e+00 
7.5000000e-01 2.5000000e+00 9.1169996e+00 
7.5000000e-01 2.5000000e+00 9.0000000e+00 
0.0000000e+00 2.5000000e+00 8.8830004e+00 
0.0000000e+00 2.5000000e+00 9.1169996e+00 
1.2500000e+00 2.8000000e+00 9.1169996e+00 
1.2500000e+00 2.8000000e+00 8.8830004e+00 
0.0000000e+00 2.8000000e+00 8.8830004e+00 
0.0000000e+00 2.8000000e+00 9.1169996e+00 
7.5000000e-01 2.5000000e+00 9.3830004e+00 
1.2500000e+00 2.5000000e+00 9.3830004e+00 
1.2500000e+00 2.5000000e+00 9.6169996e+00 
7.5000000e-01 2.5000000e+00 9.6169996e+00 
7.5000000e-01 2.5000000e+00 9.5000000e+00 
0.0000000e+00 2.5000000e+00 9.3830004e+00 
0.0000000e+00 2.5000000e+00 9.6169996e+00 
1.2500000e+00 2.8000000e+00 9.6169996e+00 
1.2500000e+00 2.8000000e+00 9.3830004e+00 
0.0000000e+00 2.8000000e+00 9.3830004e+00 
0.0000000e+00 2.8000000e+00 9.6169996e+00 
7.5000000e-01 2.5000000e+00 9.8830004e+00 
1.2500000e+00 2.5000000e+00 9.8830004e+00 
1.2500000e+00 2.5000000e+00 1.0117000e+01 
[...]
POINT_DATA 1827
FIELD FieldData 2
DISPLACEMENT 3 1827  float
0.0000000e+00 0.0000000e+00 0.0000000e+00 
0.0000000e+00 0.0000000e+00 0.0000000e+00 
0.0000000e+00 0.0000000e+00 0.0000000e+00 
0.0000000e+00 0.0000000e+00 0.0000000e+00 
0.0000000e+00 1.3899456e-05 0.0000000e+00 
0.0000000e+00 -3.3595308e-07 0.0000000e+00 
0.0000000e+00 -3.9143259e-05 0.0000000e+00 
0.0000000e+00 -1.0091150e-06 0.0000000e+00 
0.0000000e+00 -1.3814579e-05 0.0000000e+00 
1.4603274e-08 -1.3809763e-05 1.9297832e-09 
2.7335771e-09 -1.3874907e-05 1.0422010e-09 
0.0000000e+00 -1.3878624e-05 0.0000000e+00 
0.0000000e+00 -1.3932925e-05 0.0000000e+00 
0.0000000e+00 -1.3931078e-05 0.0000000e+00 
-5.1990949e-09 -1.3823305e-05 -6.5410105e-10 
0.0000000e+00 -1.3823985e-05 0.0000000e+00 
0.0000000e+00 -1.3932134e-05 0.0000000e+00 
0.0000000e+00 -1.3930903e-05 0.0000000e+00 
4.7710884e-08 -9.9917870e-06 5.5577900e-08 
3.5065668e-08 -9.7927086e-06 1.6089369e-07 
-6.5979600e-09 -9.7612656e-06 1.6592308e-07 
1.8374639e-08 -9.9654571e-06 5.9879696e-08 
3.1113480e-08 -9.9829704e-06 5.6985247e-08 
0.0000000e+00 -1.0160836e-05 0.0000000e+00 
0.0000000e+00 -1.0149060e-05 0.0000000e+00 
-1.1243696e-07 -9.7706006e-06 1.2457117e-07 
-6.5476165e-08 -9.7971997e-06 1.2390720e-07 
0.0000000e+00 -1.0146188e-05 0.0000000e+00 
0.0000000e+00 -1.0140816e-05 0.0000000e+00 
-7.3077878e-08 -5.7484472e-06 4.2142707e-09 
-1.1242567e-07 -5.8582809e-06 -1.8433377e-09 
-1.1250468e-07 -5.9025801e-06 1.7504971e-09 
-7.8248071e-08 -5.7622278e-06 7.4820452e-09 
-7.4701660e-08 -5.7562488e-06 6.2008945e-09 
0.0000000e+00 -5.6857566e-06 0.0000000e+00 
0.0000000e+00 -5.6942299e-06 0.0000000e+00 
-2.2055978e-08 -5.8882129e-06 3.5261802e-08 
-2.0578256e-08 -5.8642936e-06 3.4475125e-08 
0.0000000e+00 -5.6865097e-06 0.0000000e+00 
0.0000000e+00 -5.6908411e-06 0.0000000e+00 
-1.8360285e-07 3.2182475e-06 -2.1204217e-07 
-2.6545979e-07 3.1166587e-06 -5.5004892e-07 
-1.4285860e-07 3.1770069e-06 -5.6577892e-07 
-7.2956936e-08 3.2515106e-06 -2.1122158e-07 
-1.2406441e-07 3.2406883e-06 -2.1007764e-07 
0.0000000e+00 3.1702980e-06 0.0000000e+00 
0.0000000e+00 3.1882184e-06 0.0000000e+00 
-3.1625806e-08 3.1778075e-06 -5.8717166e-07 
-1.9400953e-07 3.1411012e-06 -5.9516015e-07 
0.0000000e+00 3.1917800e-06 0.0000000e+00 
0.0000000e+00 3.1963596e-06 0.0000000e+00 
-1.8517666e-07 2.1775742e-05 -5.3072864e-07 
-2.6483676e-07 2.1714668e-05 -1.1304171e-06 
2.1701506e-08 2.1772261e-05 -1.1261803e-06 
3.0873846e-08 2.1817939e-05 -5.3265296e-07 
-7.8089791e-08 2.1796248e-05 -5.2695748e-07 
0.0000000e+00 2.1811116e-05 0.0000000e+00 
0.0000000e+00 2.1847818e-05 0.0000000e+00 
7.8737934e-08 2.1763301e-05 -1.1555935e-06 
-2.0240597e-07 2.1726259e-05 -1.1579688e-06 
0.0000000e+00 2.1833725e-05 0.0000000e+00 
0.0000000e+00 2.1834390e-05 0.0000000e+00 
-2.0973289e-07 4.4321569e-05 -9.0326256e-07 
-3.3595765e-07 4.4426673e-05 -2.0610594e-06 
2.1558701e-07 4.4379616e-05 -2.0560317e-06 
1.8104771e-07 4.4296012e-05 -9.0882259e-07 
-1.1929717e-08 4.4311306e-05 -8.9742281e-07 
0.0000000e+00 4.4117016e-05 0.0000000e+00 
0.0000000e+00 4.4108681e-05 0.0000000e+00 
1.7180889e-07 4.4385673e-05 -1.9475708e-06 
-3.5211752e-07 4.4432771e-05 -1.9537476e-06 
0.0000000e+00 4.4139608e-05 0.0000000e+00 
0.0000000e+00 4.4105942e-05 0.0000000e+00 
-1.0361458e-07 6.2945728e-05 -2.0572031e-07 
-1.7997945e-07 6.2669329e-05 -4.6550880e-07 
-4.9659882e-08 6.2722771e-05 -4.6405336e-07 
-1.2720975e-08 6.2963212e-05 -2.1363006e-07 
-5.6606787e-08 6.2961299e-05 -2.0804117e-07 
0.0000000e+00 6.3057676e-05 0.0000000e+00 
0.0000000e+00 6.3063198e-05 0.0000000e+00 
1.1579135e-07 6.2732150e-05 -4.9317731e-07 
-7.3687096e-09 6.2705127e-05 -4.9491240e-07 
0.0000000e+00 6.3055173e-05 0.0000000e+00 
0.0000000e+00 6.3057516e-05 0.0000000e+00 
-8.3893532e-08 6.4018001e-05 -4.0919372e-07 
-1.2489190e-07 6.4125037e-05 -8.2766229e-07 
5.3082115e-08 6.3875828e-05 -8.1297361e-07 
5.2968691e-08 6.3887739e-05 -4.0738874e-07 
-1.9782700e-08 6.3957159e-05 -4.0282762e-07 
0.0000000e+00 6.4056308e-05 0.0000000e+00 
0.0000000e+00 6.4002685e-05 0.0000000e+00 
4.7697181e-08 6.3902109e-05 -5.6651965e-07 
-1.2761051e-07 6.4084663e-05 -5.6447186e-07 
0.0000000e+00 6.4068328e-05 0.0000000e+00 
0.0000000e+00 6.4013118e-05 0.0000000e+00 
1.1703961e-07 2.5980709e-05 5.0695466e-08 
1.9983021e-07 2.6176385e-05 5.3854126e-07 
-5.2743577e-08 2.5650294e-05 5.1111078e-07 
-2.4977552e-08 2.5676271e-05 5.0894204e-08 
4.3225210e-08 2.5825251e-05 5.5871887e-08 
0.0000000e+00 2.6018008e-05 0.0000000e+00 
0.0000000e+00 2.5826281e-05 0.0000000e+00 
-9.7694397e-08 2.5711732e-05 1.0091319e-06 
1.3567498e-07 2.6104593e-05 1.0020029e-06 
0.0000000e+00 2.5958621e-05 0.0000000e+00 
0.0000000e+00 2.5852172e-05 0.0000000e+00 
3.2364312e-07 -6.2434337e-05 1.6514219e-06 
4.7909924e-07 -6.2303479e-05 3.3548858e-06 
-4.0392237e-07 -6.3012114e-05 3.3676813e-06 
-3.6293170e-07 -6.2829611e-05 1.6805357e-06 
-2.9559404e-08 -6.2628729e-05 1.6548662e-06 
0.0000000e+00 -6.1945102e-05 0.0000000e+00 
0.0000000e+00 -6.2156178e-05 0.0000000e+00 
-3.5986702e-07 -6.2936488e-05 3.9643101e-06 
4.8885710e-07 -6.2454696e-05 3.9651345e-06 
0.0000000e+00 -6.2059327e-05 0.0000000e+00 
0.0000000e+00 -6.2132793e-05 0.0000000e+00 
3.1383263e-07 -1.9010252e-04 2.8266090e-08 
4.2885063e-07 -1.8885112e-04 5.2841790e-07 
1.4359524e-07 -1.9007392e-04 5.5645972e-07 
1.1301599e-07 -1.9086279e-04 7.2656398e-08 
1.9922899e-07 -1.9052594e-04 6.0884446e-08 
0.0000000e+00 -1.9073377e-04 0.0000000e+00 
0.0000000e+00 -1.9104230e-04 0.0000000e+00 
-4.5059213e-07 -1.9000912e-04 1.7339102e-06 
-1.5375565e-07 -1.8907512e-04 1.7328836e-06 
0.0000000e+00 -1.9076724e-04 0.0000000e+00 
0.0000000e+00 -1.9101804e-04 0.0000000e+00 
5.6710536e-07 -3.1467518e-04 -9.4828167e-08 
7.8395624e-07 -3.1202839e-04 5.8594495e-08 
6.9641612e-07 -3.1264283e-04 1.3587750e-07 
4.9127493e-07 -3.1504958e-04 -2.9686698e-08 
4.9858187e-07 -3.1492661e-04 -5.1765074e-08 
0.0000000e+00 -3.1579140e-04 0.0000000e+00 
0.0000000e+00 -3.1593212e-04 0.0000000e+00 
-7.6167527e-07 -3.1277075e-04 7.0173076e-07 
-6.5816414e-07 -3.1230602e-04 7.1263383e-07 
0.0000000e+00 -3.1576390e-04 0.0000000e+00 
0.0000000e+00 -3.1588203e-04 0.0000000e+00 
5.5584439e-07 -3.2989922e-04 -1.1923801e-07 
7.4730605e-07 -3.2718107e-04 -3.2331599e-07 
8.8522665e-07 -3.2661841e-04 -2.7709333e-07 
6.6290113e-07 -3.2951124e-04 -4.6567290e-08 
5.7420954e-07 -3.2978042e-04 -9.2113233e-08 
0.0000000e+00 -3.3099565e-04 0.0000000e+00 
0.0000000e+00 -3.3086867e-04 0.0000000e+00 
-7.2649635e-07 -3.2687833e-04 -8.8053531e-07 
-8.5963399e-07 -3.2733096e-04 -8.8162705e-07 
0.0000000e+00 -3.3089059e-04 0.0000000e+00 
0.0000000e+00 -3.3081294e-04 0.0000000e+00 
1.6406487e-07 -2.4198543e-04 -1.1136542e-06 
2.6767850e-07 -2.4043670e-04 -2.0761890e-06 
7.5383520e-07 -2.3998054e-04 -2.0242555e-06 
5.8381727e-07 -2.4171750e-04 -1.0869987e-06 
3.5442855e-07 -2.4189010e-04 -1.0930793e-06 
0.0000000e+00 -2.4261339e-04 0.0000000e+00 
0.0000000e+00 -2.4250268e-04 0.0000000e+00 
-1.9115360e-07 -2.4017520e-04 -2.4631834e-06 
-6.8001879e-07 -2.4049164e-04 -2.4620476e-06 
0.0000000e+00 -2.4252934e-04 0.0000000e+00 
0.0000000e+00 -2.4249342e-04 0.0000000e+00 
4.7076977e-08 -1.4741610e-04 6.9975947e-08 
6.5976124e-08 -1.4676481e-04 -3.0194226e-07 
2.7741515e-07 -1.4595586e-04 -2.9184477e-07 
1.7952787e-07 -1.4679879e-04 7.2841431e-08 
1.0375449e-07 -1.4711283e-04 5.4448350e-08 
0.0000000e+00 -1.4743455e-04 0.0000000e+00 
0.0000000e+00 -1.4720971e-04 0.0000000e+00 
-1.3927030e-07 -1.4607912e-04 -1.1563328e-06 
-3.3848775e-07 -1.4677022e-04 -1.1645236e-06 
0.0000000e+00 -1.4735763e-04 0.0000000e+00 
0.0000000e+00 -1.4720832e-04 0.0000000e+00 
-1.8050328e-07 -7.4586096e-05 -6.3042415e-07 
-2.5801629e-07 -7.4818308e-05 -1.3906005e-06 
1.8552757e-07 -7.4248368e-05 -1.4035795e-06 
1.2692371e-07 -7.4306692e-05 -6.3381196e-07 
-2.8231785e-08 -7.4442716e-05 -6.3012249e-07 
0.0000000e+00 -7.4454263e-05 0.0000000e+00 
0.0000000e+00 -7.4334930e-05 0.0000000e+00 
2.1936034e-07 -7.4340569e-05 -1.8794244e-06 
-1.7504588e-07 -7.4716721e-05 -1.8878175e-06 
0.0000000e+00 -7.4423369e-05 0.0000000e+00 
0.0000000e+00 -7.4358388e-05 0.0000000e+00 
7.8938903e-08 -2.2460043e-05 -5.7732024e-08 
7.3053009e-08 -2.2148204e-05 -3.4361500e-07 
2.4964768e-07 -2.1723112e-05 -3.4372013e-07 
1.8411029e-07 -2.2200033e-05 -7.2027170e-08 
1.2904047e-07 -2.2321306e-05 -6.9931232e-08 
0.0000000e+00 -2.2664573e-05 0.0000000e+00 
0.0000000e+00 -2.2554796e-05 0.0000000e+00 
4.0178323e-09 -2.1792590e-05 -7.5084444e-07 
-1.4456369e-07 -2.2116137e-05 -7.5120465e-07 
0.0000000e+00 -2.2629494e-05 0.0000000e+00 
0.0000000e+00 -2.2551865e-05 0.0000000e+00 
1.0900532e-07 1.2362715e-05 -1.6415561e-07 
1.5426998e-07 1.2713153e-05 -3.7848514e-07 
2.8423156e-07 1.2877415e-05 -3.7950605e-07 
1.9017664e-07 1.2458302e-05 -1.6501392e-07 
1.4572231e-07 1.2407916e-05 -1.6422486e-07 
0.0000000e+00 1.2180692e-05 0.0000000e+00 
0.0000000e+00 1.2220142e-05 0.0000000e+00 
2.3618478e-08 1.2834164e-05 -5.2636386e-07 
-8.6385256e-08 1.2716114e-05 -5.2528446e-07 
0.0000000e+00 1.2185400e-05 0.0000000e+00 
0.0000000e+00 1.2215140e-05 0.0000000e+00 
7.6705824e-08 2.7264285e-05 2.2496954e-07 
1.0968188e-07 2.7341095e-05 3.8821966e-07 
2.9649925e-08 2.7391434e-05 3.8477543e-07 
7.1527086e-09 2.7307542e-05 2.2757079e-07 
3.9993186e-08 2.7282258e-05 2.2344727e-07 
0.0000000e+00 2.7289201e-05 0.0000000e+00 
0.0000000e+00 2.7308031e-05 0.0000000e+00 
-2.6844580e-08 2.7384758e-05 3.2311908e-07 
4.9106720e-08 2.7334960e-05 3.2460795e-07 
0.0000000e+00 2.7291549e-05 0.0000000e+00 
0.0000000e+00 2.7308844e-05 0.0000000e+00 
-2.2718284e-08 2.4164594e-05 4.4080113e-07 
-3.0376061e-08 2.3852830e-05 9.1294447e-07 
-2.7658288e-07 2.3789356e-05 9.0610371e-07 
-1.9840424e-07 2.4146841e-05 4.4111806e-07 
-1.0770782e-07 2.4156900e-05 4.3709576e-07 
0.0000000e+00 2.4381381e-05 0.0000000e+00 
0.0000000e+00 2.4375913e-05 0.0000000e+00 
-5.9923075e-08 2.3827224e-05 9.3473272e-07 
1.6493745e-07 2.3852881e-05 9.3423722e-07 
0.0000000e+00 2.4368470e-05 0.0000000e+00 
0.0000000e+00 2.4377809e-05 0.0000000e+00 
-5.9496806e-08 1.3664856e-05 2.4358926e-07 
-9.6078253e-08 1.3298698e-05 5.2890272e-07 
-2.3137027e-07 1.3249718e-05 5.2447047e-07 
-1.5995082e-07 1.3641627e-05 2.3448291e-07 
-1.0462571e-07 1.3660020e-05 2.3720253e-07 
0.0000000e+00 1.3804510e-05 0.0000000e+00 
0.0000000e+00 1.3792383e-05 0.0000000e+00 
-1.1972519e-09 1.3289412e-05 5.5332424e-07 
1.3682735e-07 1.3316338e-05 5.5195920e-07 
0.0000000e+00 1.3795976e-05 0.0000000e+00 
0.0000000e+00 1.3794211e-05 0.0000000e+00 
-2.6431938e-08 6.6081725e-06 -4.2758483e-08 
-3.7962494e-08 6.4457145e-06 -6.8307450e-08 
-2.6326152e-08 6.4146434e-06 -7.5990698e-08 
-1.6757747e-08 6.5804275e-06 -4.7788117e-08 
-1.9816158e-08 6.5977770e-06 -4.4605322e-08 
0.0000000e+00 6.6686603e-06 0.0000000e+00 
0.0000000e+00 6.6602347e-06 0.0000000e+00 
6.5400776e-08 6.4281189e-06 -3.3480099e-08 
5.3311538e-08 6.4584233e-06 -3.4545419e-08 
0.0000000e+00 6.6615030e-06 0.0000000e+00 
0.0000000e+00 6.6529597e-06 0.0000000e+00 
-1.0762434e-08 3.5412568e-06 -5.6537874e-07 
-5.3800198e-10 3.8379480e-06 -1.1224635e-06 
2.5149870e-07 3.7241487e-06 -1.1184295e-06 
1.9114614e-07 3.4548777e-06 -5.6364814e-07 
8.8385676e-08 3.4939892e-06 -5.5916189e-07 
0.0000000e+00 3.3463673e-06 0.0000000e+00 
0.0000000e+00 3.3125689e-06 0.0000000e+00 
7.9026393e-08 3.7115142e-06 -9.6822123e-07 
-1.7588238e-07 3.8181315e-06 -9.6837653e-07 
0.0000000e+00 3.3492622e-06 0.0000000e+00 
0.0000000e+00 3.3107904e-06 0.0000000e+00 
1.9613475e-08 -1.3180727e-06 -1.1273823e-07 
3.0868893e-08 -1.1992937e-06 -1.8575412e-07 
6.3485786e-08 -1.2649190e-06 -1.8028594e-07 
4.7879908e-08 -1.3695534e-06 -1.0603478e-07 
3.1594457e-08 -1.3490344e-06 -1.0792730e-07 
0.0000000e+00 -1.3522471e-06 0.0000000e+00 
0.0000000e+00 -1.3777803e-06 0.0000000e+00 
-2.7668563e-09 -1.2725724e-06 -1.0729926e-07 
-3.5771098e-08 -1.2137000e-06 -1.0571982e-07 
0.0000000e+00 -1.3585224e-06 0.0000000e+00 
0.0000000e+00 -1.3750478e-06 0.0000000e+00 
7.9327606e-08 -8.5983656e-06 9.9453580e-08 
1.0080890e-07 -8.3798641e-06 2.0033883e-07 
4.6415792e-08 -8.4249559e-06 2.0359553e-07 
3.7065817e-08 -8.6255541e-06 9.7123362e-08 
5.7107894e-08 -8.6127629e-06 9.7609792e-08 
0.0000000e+00 -8.7583176e-06 0.0000000e+00 
0.0000000e+00 -8.7740373e-06 0.0000000e+00 
-7.6418942e-08 -8.4286030e-06 2.4272498e-07 
-2.5155110e-08 -8.3956902e-06 2.4294843e-07 
0.0000000e+00 -8.7580611e-06 0.0000000e+00 
0.0000000e+00 -8.7677545e-06 0.0000000e+00 
5.1138993e-08 -1.1111117e-05 1.4245151e-07 
4.7826493e-08 -1.1015873e-05 2.8689669e-07 
-1.7794685e-08 -1.0947373e-05 2.8618354e-07 
2.5575018e-09 -1.1066410e-05 1.3872430e-07 
2.7605953e-08 -1.1085987e-05 1.3869510e-07 
0.0000000e+00 -1.1246437e-05 0.0000000e+00 
0.0000000e+00 -1.1225975e-05 0.0000000e+00 
-7.3745326e-08 -1.0952802e-05 2.0916858e-07 
-1.0194980e-08 -1.1008204e-05 2.0746839e-07 
0.0000000e+00 -1.1235964e-05 0.0000000e+00 
0.0000000e+00 -1.1224202e-05 0.0000000e+00 
8.8280707e-09 -4.9665996e-06 2.7504621e-09 
-3.7360154e-10 -4.8826910e-06 -4.6091699e-08 
2.9692140e-08 -4.8029224e-06 -4.4014513e-08 
2.4069802e-08 -4.9138957e-06 2.0037529e-09 
1.6627283e-08 -4.9393234e-06 1.6667344e-09 
0.0000000e+00 -5.0626036e-06 0.0000000e+00 
0.0000000e+00 -5.0370181e-06 0.0000000e+00 
-2.7426807e-08 -4.8128481e-06 -1.2396755e-07 
-5.1806087e-08 -4.8764491e-06 -1.2395792e-07 
0.0000000e+00 -5.0495341e-06 0.0000000e+00 
0.0000000e+00 -5.0338476e-06 0.0000000e+00 
4.1072973e-10 4.2257466e-06 4.2839162e-08 
7.7116242e-09 4.1839626e-06 6.1550729e-08 
1.1537198e-08 4.2713264e-06 5.6709073e-08 
-3.7678070e-09 4.2787724e-06 4.4726470e-08 
-2.1887532e-09 4.2504580e-06 4.2359030e-08 
0.0000000e+00 4.2903453e-06 0.0000000e+00 
0.0000000e+00 4.3145960e-06 0.0000000e+00 
1.6385002e-08 4.2598481e-06 -2.8184965e-08 
1.9360064e-08 4.1927556e-06 -2.8028825e-08 
0.0000000e+00 4.2952001e-06 0.0000000e+00 
0.0000000e+00 4.3122550e-06 0.0000000e+00 
-2.6688200e-08 7.6027832e-06 5.2416407e-08 
-2.2645514e-08 7.4696527e-06 1.0444248e-07 
-4.8100961e-08 7.4761060e-06 1.0676366e-07 
-4.6236156e-08 7.6085694e-06 5.7029858e-08 
-3.6454885e-08 7.6032693e-06 5.4076988e-08 
0.0000000e+00 7.7601926e-06 0.0000000e+00 
0.0000000e+00 7.7594686e-06 0.0000000e+00 
2.8733391e-08 7.4776285e-06 9.4984365e-08 
5.2258422e-08 7.4704003e-06 9.6917631e-08 
0.0000000e+00 7.7520126e-06 0.0000000e+00 
0.0000000e+00 7.7576533e-06 0.0000000e+00 
-2.4843166e-08 3.4930904e-06 4.8223249e-08 
-3.3720408e-08 3.3870983e-06 1.0371082e-07 
-6.2823474e-08 3.3561591e-06 1.0371362e-07 
-4.6821992e-08 3.4713398e-06 4.8248779e-08 
-3.4865160e-08 3.4834377e-06 4.8022088e-08 
0.0000000e+00 3.5724920e-06 0.0000000e+00 
0.0000000e+00 3.5609205e-06 0.0000000e+00 
6.5431314e-09 3.3646975e-06 1.3365297e-07 
3.4254015e-08 3.3889125e-06 1.3390192e-07 
0.0000000e+00 3.5647804e-06 0.0000000e+00 
0.0000000e+00 3.5612445e-06 0.0000000e+00 
-5.2121312e-08 -2.1847909e-06 -1.1724103e-07 
-8.2510169e-08 -2.2833799e-06 -2.4971143e-07 
-1.4048855e-08 -2.3252840e-06 -2.5209383e-07 
-7.7768787e-09 -2.2149418e-06 -1.1982107e-07 
-2.8977446e-08 -2.1957030e-06 -1.1700515e-07 
0.0000000e+00 -2.1504350e-06 0.0000000e+00 
0.0000000e+00 -2.1634860e-06 0.0000000e+00 
4.7380706e-08 -2.3145717e-06 -1.9855969e-07 
-1.1078066e-08 -2.2781144e-06 -1.9921507e-07 
0.0000000e+00 -2.1514063e-06 0.0000000e+00 
0.0000000e+00 -2.1645176e-06 0.0000000e+00 
4.6286065e-08 -3.9076840e-06 -7.2490902e-09 
5.9384465e-08 -3.7685243e-06 -2.0954865e-08 
6.8858299e-08 -3.7631983e-06 -2.1801025e-08 
5.0454382e-08 -3.9038032e-06 -8.1429121e-09 
4.7369376e-08 -3.9062229e-06 -7.6703133e-09 
0.0000000e+00 -4.0139371e-06 0.0000000e+00 
0.0000000e+00 -4.0100435e-06 0.0000000e+00 
-1.9836415e-08 -3.7697246e-06 -2.6086306e-08 
-2.6068525e-08 -3.7739871e-06 -2.6320132e-08 
0.0000000e+00 -4.0086284e-06 0.0000000e+00 
0.0000000e+00 -4.0095051e-06 0.0000000e+00 
2.7380228e-08 -2.3446748e-06 2.8103816e-08 
4.1750472e-08 -2.3008076e-06 4.4442633e-08 
3.0584847e-08 -2.2793154e-06 4.3745448e-08 
2.0236675e-08 -2.3267701e-06 2.8396915e-08 
2.3197934e-08 -2.3365410e-06 2.7773988e-08 
0.0000000e+00 -2.3588402e-06 0.0000000e+00 
0.0000000e+00 -2.3520547e-06 0.0000000e+00 
6.3378719e-10 -2.2837653e-06 1.9177786e-08 
7.3433828e-09 -2.3031382e-06 1.9521570e-08 
0.0000000e+00 -2.3580253e-06 0.0000000e+00 
0.0000000e+00 -2.3531111e-06 0.0000000e+00 
-1.4214837e-08 2.0942521e-07 -9.8988373e-09 
-1.3200273e-08 1.7643764e-07 -2.7959205e-08 
-6.2586736e-09 1.9022852e-07 -2.8921743e-08 
-7.1815012e-09 2.1881031e-07 -9.5682440e-09 
-1.0466739e-08 2.1382833e-07 -9.7500799e-09 
0.0000000e+00 2.4320829e-07 0.0000000e+00 
0.0000000e+00 2.4748743e-07 0.0000000e+00 
1.2130863e-08 1.8915316e-07 -4.1955282e-08 
2.6587941e-09 1.7839068e-07 -4.1732122e-08 
0.0000000e+00 2.4320750e-07 0.0000000e+00 
0.0000000e+00 2.4490296e-07 0.0000000e+00 
-8.5979170e-09 1.8270634e-06 -2.3790152e-08 
-1.3037525e-08 1.8400291e-06 -5.4784973e-08 
1.3157188e-09 1.8365487e-06 -5.3875855e-08 
2.2328921e-09 1.8255627e-06 -2.3756986e-08 
-3.2329890e-09 1.8262656e-06 -2.3667745e-08 
0.0000000e+00 1.8275445e-06 0.0000000e+00 
0.0000000e+00 1.8266800e-06 0.0000000e+00 
-2.7216991e-09 1.8358646e-06 -4.9443823e-08 
-1.6641991e-08 1.8384922e-06 -4.9683791e-08 
0.0000000e+00 1.8288702e-06 0.0000000e+00 
0.0000000e+00 1.8275991e-06 0.0000000e+00 
-4.7946793e-09 1.6110570e-06 -8.7858716e-09 
-5.7950320e-09 1.5904217e-06 -9.0068841e-09 
-5.4708789e-09 1.5811852e-06 -9.1071994e-09 
-4.1135633e-09 1.6040475e-06 -8.7211545e-09 
-4.3728847e-09 1.6077513e-06 -8.6184988e-09 
0.0000000e+00 1.6273870e-06 0.0000000e+00 
0.0000000e+00 1.6242823e-06 0.0000000e+00 
7.0863746e-09 1.5829647e-06 9.0139374e-10 
7.0362511e-09 1.5910161e-06 1.0240437e-09 
0.0000000e+00 1.6257409e-06 0.0000000e+00 
0.0000000e+00 1.6239934e-06 0.0000000e+00 
-6.3120892e-10 4.3856906e-07 1.1005108e-08 
-1.0484986e-09 4.1981539e-07 3.6257934e-08 
-1.2437024e-08 4.1554026e-07 3.5769716e-08 
-8.0697875e-09 4.3344278e-07 1.1103718e-08 
-4.1610182e-09 4.3606778e-07 1.1096584e-08 
0.0000000e+00 4.4639637e-07 0.0000000e+00 
0.0000000e+00 4.4459489e-07 0.0000000e+00 
-1.2526681e-09 4.1668767e-07 4.0284625e-08 
9.8491650e-09 4.2138049e-07 4.0289919e-08 
0.0000000e+00 4.4522920e-07 0.0000000e+00 
0.0000000e+00 4.4441430e-07 0.0000000e+00 
7.8576932e-09 -4.6945200e-07 2.4713584e-08 
9.0024921e-09 -4.5783918e-07 5.5945495e-08 
-6.2241545e-09 -4.5770099e-07 5.6453143e-08 
-2.7543456e-09 -4.6879839e-07 2.4329207e-08 
2.7090086e-09 -4.6892953e-07 2.4290294e-08 
0.0000000e+00 -4.8449385e-07 0.0000000e+00 
0.0000000e+00 -4.8387534e-07 0.0000000e+00 
-1.1946639e-08 -4.5728402e-07 5.3820006e-08 
2.5640714e-09 -4.5809844e-07 5.3837532e-08 
0.0000000e+00 -4.8375404e-07 0.0000000e+00 
0.0000000e+00 -4.8335460e-07 0.0000000e+00 
2.6514291e-09 -5.0633798e-07 -7.5321447e-09 
3.0244893e-09 -4.9276969e-07 -1.9654102e-08 
1.0284735e-08 -4.8993456e-07 -2.0451257e-08 
6.7608372e-09 -5.0415065e-07 -7.6112778e-09 
4.6959912e-09 -5.0521743e-07 -7.5246422e-09 
0.0000000e+00 -5.1988405e-07 0.0000000e+00 
0.0000000e+00 -5.1879493e-07 0.0000000e+00 
4.2014425e-10 -4.9052545e-07 -2.2419643e-08 
-5.2805693e-09 -4.9291333e-07 -2.2583071e-08 
0.0000000e+00 -5.1889094e-07 0.0000000e+00 
0.0000000e+00 -5.1874639e-07 0.0000000e+00 
1.9892514e-09 -2.3765278e-08 3.3638394e-09 
3.0402414e-09 -2.4254463e-08 2.4505640e-09 
3.8605723e-09 -2.0342604e-08 2.6948956e-09 
1.8435270e-09 -2.0926034e-08 3.5338539e-09 
1.7847795e-09 -2.2602732e-08 3.3840577e-09 
0.0000000e+00 -1.8578909e-08 0.0000000e+00 
0.0000000e+00 -1.7251462e-08 0.0000000e+00 
2.8889100e-09 -2.1012152e-08 -1.5134607e-09 
2.4849458e-09 -2.4362885e-08 -1.3628251e-09 
0.0000000e+00 -1.8675347e-08 0.0000000e+00 
0.0000000e+00 -1.7672056e-08 0.0000000e+00 
0.0000000e+00 4.9854712e-06 0.0000000e+00 
0.0000000e+00 6.0367188e-07 0.0000000e+00 
-1.8675558e-10 2.1819788e-07 -1.1857375e-10 
-2.2992658e-10 2.1752822e-07 -1.1340274e-10 