# vtk DataFile Version 4.0
vtk output
ASCII
DATASET UNSTRUCTURED_GRID
POINTS 1827 float
0.0000000e+00 0.0000000e+00 0.0000000e+00 
0.0000000e+00 0.0000000e+00 2.0000000e+01 
3.4700000e+00 0.0000000e+00 0.0000000e+00 
3.4700000e+00 0.0000000e+00 2.0000000e+01 
3.4700000e+00 1.0000000e+00 0.0000000e+00 
3.4700000e+00 1.0000000e+00 2.0000000e+01 
0.0000000e+00 1.0000000e+00 0.0000000e+00 
0.0000000e+00 1.0000000e+00 2.0000000e+01 
1.2500000e+00 2.5000000e+00 0.0000000e+00 
1.2500000e+00 2.5000000e+00 1.1700000e-01 
7.5000000e-01 2.5000000e+00 1.1700000e-01 
7.5000000e-01 2.5000000e+00 0.0000000e+00 
0.0000000e+00 2.5000000e+00 0.0000000e+00 
0.0000000e+00 2.5000000e+00 1.1700000e-01 
1.2500000e+00 2.8000000e+00 1.1700000e-01 
1.2500000e+00 2.8000000e+00 0.0000000e+00 
0.0000000e+00 2.8000000e+00 0.0000000e+00 
0.0000000e+00 2.8000000e+00 1.1700000e-01 
7.5000000e-01 2.5000000e+00 3.8299999e-01 
1.2500000e+00 2.5000000e+00 3.8299999e-01 
1.2500000e+00 2.5000000e+00 6.1699998e-01 
7.5000000e-01 2.5000000e+00 6.1699998e-01 
7.5000000e-01 2.5000000e+00 5.0000000e-01 
0.0000000e+00 2.5000000e+00 3.8299999e-01 
0.0000000e+00 2.5000000e+00 6.1699998e-01 
1.2500000e+00 2.8000000e+00 6.1699998e-01 
1.2500000e+00 2.8000000e+00 3.8299999e-01 
0.0000000e+00 2.8000000e+00 3.8299999e-01 
0.0000000e+00 2.8000000e+00 6.1699998e-01 
7.5000000e-01 2.5000000e+00 8.8300002e-01 
1.2500000e+00 2.5000000e+00 8.8300002e-01 
1.2500000e+00 2.5000000e+00 1.1170000e+00 
7.5000000e-01 2.5000000e+00 1.1170000e+00 
7.5000000e-01 2.5000000e+00 1.0000000e+00 
0.0000000e+00 2.5000000e+00 8.8300002e-01 
0.0000000e+00 2.5000000e+00 1.1170000e+00 
1.2500000e+00 2.8000000e+00 1.1170000e+00 
1.2500000e+00 2.8000000e+00 8.8300002e-01 
0.0000000e+00 2.8000000e+00 8.8300002e-01 
0.0000000e+00 2.8000000e+00 1.1170000e+00 
7.5000000e-01 2.5000000e+00 1.3830000e+00 
1.2500000e+00 2.5000000e+00 1.3830000e+00 
1.2500000e+00 2.5000000e+00 1.6170000e+00 
7.5000000e-01 2.5000000e+00 1.6170000e+00 
7.5000000e-01 2.5000000e+00 1.5000000e+00 
0.0000000e+00 2.5000000e+00 1.3830000e+00 
0.0000000e+00 2.5000000e+00 1.6170000e+00 
1.2500000e+00 2.8000000e+00 1.6170000e+00 
1.2500000e+00 2.8000000e+00 1.3830000e+00 
0.0000000e+00 2.8000000e+00 1.3830000e+00 
0.0000000e+00 2.8000000e+00 1.6170000e+00 
7.5000000e-01 2.5000000e+00 1.8830000e+00 
1.2500000e+00 2.5000000e+00 1.8830000e+00 
1.2500000e+00 2.5000000e+00 2.1170001e+00 
7.5000000e-01 2.5000000e+00 2.1170001e+00 
7.5000000e-01 2.5000000e+00 2.0000000e+00 
0.0000000e+00 2.5000000e+00 1.8830000e+00 
0.0000000e+00 2.5000000e+00 2.1170001e+00 
1.2500000e+00 2.8000000e+00 2.1170001e+00 
1.2500000e+00 2.8000000e+00 1.8830000e+00 
0.0000000e+00 2.8000000e+00 1.8830000e+00 
0.0000000e+00 2.8000000e+00 2.1170001e+00 
7.5000000e-01 2.5000000e+00 2.3829999e+00 
1.2500000e+00 2.5000000e+00 2.3829999e+00 
1.2500000e+00 2.5000000e+00 2.6170001e+00 
7.5000000e-01 2.5000000e+00 2.6170001e+00 
7.5000000e-01 2.5000000e+00 2.5000000e+00 
0.0000000e+00 2.5000000e+00 2.3829999e+00 
0.0000000e+00 2.5000000e+00 2.6170001e+00 
1.2500000e+00 2.8000000e+00 2.6170001e+00 
1.2500000e+00 2.8000000e+00 2.3829999e+00 
0.0000000e+00 2.8000000e+00 2.3829999e+00 
0.0000000e+00 2.8000000e+00 2.6170001e+00 
7.5000000e-01 2.5000000e+00 2.8829999e+00 
1.2500000e+00 2.5000000e+00 2.8829999e+00 
1.2500000e+00 2.5000000e+00 3.1170001e+00 
7.5000000e-01 2.5000000e+00 3.1170001e+00 
7.5000000e-01 2.5000000e+00 3.0000000e+00 
0.0000000e+00 2.5000000e+00 2.8829999e+00 
0.0000000e+00 2.5000000e+00 3.1170001e+00 
1.2500000e+00 2.8000000e+00 3.1170001e+00 
1.2500000e+00 2.8000000e+00 2.8829999e+00 
0.0000000e+00 2.8000000e+00 2.8829999e+00 
0.0000000e+00 2.8000000e+00 3.1170001e+00 
7.5000000e-01 2.5000000e+00 3.3829999e+00 
1.2500000e+00 2.5000000e+00 3.3829999e+00 
1.2500000e+00 2.5000000e+00 3.6170001e+00 
7.5000000e-01 2.5000000e+00 3.6170001e+00 
7.5000000e-01 2.5000000e+00 3.5000000e+00 
0.0000000e+00 2.5000000e+00 3.3829999e+00 
0.0000000e+00 2.5000000e+00 3.6170001e+00 
1.2500000e+00 2.8000000e+00 3.6170001e+00 
1.2500000e+00 2.8000000e+00 3.3829999e+00 
0.0000000e+00 2.8000000e+00 3.3829999e+00 
0.0000000e+00 2.8000000e+00 3.6170001e+00 
7.5000000e-01 2.5000000e+00 3.8829999e+00 
1.2500000e+00 2.5000000e+00 3.8829999e+00 
1.2500000e+00 2.5000000e+00 4.1170001e+00 
7.5000000e-01 2.5000000e+00 4.1170001e+00 
7.5000000e-01 2.5000000e+00 4.0000000e+00 
0.0000000e+00 2.5000000e+00 3.8829999e+00 
0.0000000e+00 2.5000000e+00 4.1170001e+00 
1.2500000e+00 2.8000000e+00 4.1170001e+00 
1.2500000e+00 2.8000000e+00 3.8829999e+00 
0.0000000e+00 2.8000000e+00 3.8829999e+00 
0.0000000e+00 2.8000000e+00 4.1170001e+00 
7.5000000e-01 2.5000000e+00 4.3829999e+00 
1.2500000e+00 2.5000000e+00 4.3829999e+00 
1.2500000e+00 2.5000000e+00 4.6170001e+00 
7.5000000e-01 2.5000000e+00 4.6170001e+00 
7.5000000e-01 2.5000000e+00 4.5000000e+00 
0.0000000e+00 2.5000000e+00 4.3829999e+00 
0.0000000e+00 2.5000000e+00 4.6170001e+00 
1.2500000e+00 2.8000000e+00 4.6170001e+00 
1.2500000e+00 2.8000000e+00 4.3829999e+00 
0.0000000e+00 2.8000000e+00 4.3829999e+00 
0.0000000e+00 2.8000000e+00 4.6170001e+00 
7.5000000e-01 2.5000000e+00 4.8829999e+00 
1.2500000e+00 2.5000000e+00 4.8829999e+00 
1.2500000e+00 2.5000000e+00 5.1170001e+00 
7.5000000e-01 2.5000000e+00 5.1170001e+00 
7.5000000e-01 2.5000000e+00 5.0000000e+00 
0.0000000e+00 2.5000000e+00 4.8829999e+00 
0.0000000e+00 2.5000000e+00 5.1170001e+00 
1.2500000e+00 2.8000000e+00 5.1170001e+00 
1.2500000e+00 2.8000000e+00 4.8829999e+00 
0.0000000e+00 2.8000000e+00 4.8829999e+00 
0.0000000e+00 2.8000000e+00 5.1170001e+00 
7.5000000e-01 2.5000000e+00 5.3829999e+00 
1.2500000e+00 2.5000000e+00 5.3829999e+00 
1.2500000e+00 2.5000000e+00 5.6170001e+00 
7.5000000e-01 2.5000000e+00 5.6170001e+00 
7.5000000e-01 2.5000000e+00 5.5000000e+00 
0.0000000e+00 2.5000000e+00 5.3829999e+00 
0.0000000e+00 2.5000000e+00 5.6170001e+00 
1.2500000e+00 2.8000000e+00 5.6170001e+00 
1.2500000e+00 2.8000000e+00 5.3829999e+00 
0.0000000e+00 2.8000000e+00 5.3829999e+00 
0.0000000e+00 2.8000000e+00 5.6170001e+00 
7.5000000e-01 2.5000000e+00 5.8829999e+00 
1.2500000e+00 2.5000000e+00 5.8829999e+00 
1.2500000e+00 2.5000000e+00 6.1170001e+00 
7.5000000e-01 2.5000000e+00 6.1170001e+00 
7.5000000e-01 2.5000000e+00 6.0000000e+00 
0.0000000e+00 2.5000000e+00 5.8829999e+00 
0.0000000e+00 2.5000000e+00 6.1170001e+00 
1.2500000e+00 2.8000000e+00 6.1170001e+00 
1.2500000e+00 2.8000000e+00 5.8829999e+00 
0.0000000e+00 2.8000000e+00 5.8829999e+00 
0.0000000e+00 2.8000000e+00 6.1170001e+00 
7.5000000e-01 2.5000000e+00 6.3829999e+00 
1.2500000e+00 2.5000000e+00 6.3829999e+00 
1.2500000e+00 2.5000000e+00 6.6170001e+00 
7.5000000e-01 2.5000000e+00 6.6170001e+00 
7.5000000e-01 2.5000000e+00 6.5000000e+00 
0.0000000e+00 2.5000000e+00 6.3829999e+00 
0.0000000e+00 2.5000000e+00 6.6170001e+00 
1.2500000e+00 2.8000000e+00 6.6170001e+00 
1.2500000e+00 2.8000000e+00 6.3829999e+00 
0.0000000e+00 2.8000000e+00 6.3829999e+00 
0.0000000e+00 2.8000000e+00 6.6170001e+00 
7.5000000e-01 2.5000000e+00 6.8829999e+00 
1.2500000e+00 2.5000000e+00 6.8829999e+00 
1.2500000e+00 2.5000000e+00 7.1170001e+00 
7.5000000e-01 2.5000000e+00 7.1170001e+00 
7.5000000e-01 2.5000000e+00 7.0000000e+00 
0.0000000e+00 2.5000000e+00 6.8829999e+00 
0.0000000e+00 2.5000000e+00 7.1170001e+00 
1.2500000e+00 2.8000000e+00 7.1170001e+00 
1.2500000e+00 2.8000000e+00 6.8829999e+00 
0.0000000e+00 2.8000000e+00 6.8829999e+00 
0.0000000e+00 2.8000000e+00 7.1170001e+00 
7.5000000e-01 2.5000000e+00 7.3829999e+00 
1.2500000e+00 2.5000000e+00 7.3829999e+00 
1.2500000e+00 2.5000000e+00 7.6170001e+00 
7.5000000e-01 2.5000000e+00 7.6170001e+00 
7.5000000e-01 2.5000000e+00 7.5000000e+00 
0.0000000e+00 2.5000000e+00 7.3829999e+00 
0.0000000e+00 2.5000000e+00 7.6170001e+00 
1.2500000e+00 2.8000000e+00 7.6170001e+00 
1.2500000e+00 2.8000000e+00 7.3829999e+00 
0.0000000e+00 2.8000000e+00 7.3829999e+00 
0.0000000e+00 2.8000000e+00 7.6170001e+00 
7.5000000e-01 2.5000000e+00 7.8829999e+00 
1.2500000e+00 2.5000000e+00 7.8829999e+00 
1.2500000e+00 2.5000000e+00 8.1169996e+00 
7.5000000e-01 2.5000000e+00 8.1169996e+00 
7.5000000e-01 2.5000000e+00 8.0000000e+00 
0.0000000e+00 2.5000000e+00 7.8829999e+00 
0.0000000e+00 2.5000000e+00 8.1169996e+00 
1.2500000e+00 2.8000000e+00 8.1169996e+00 
1.2500000e+00 2.8000000e+00 7.8829999e+00 
0.0000000e+00 2.8000000e+00 7.8829999e+00 
0.0000000e+00 2.8000000e+00 8.1169996e+00 
7.5000000e-01 2.5000000e+00 8.3830004e+00 
1.2500000e+00 2.5000000e+00 8.3830004e+00 
1.2500000e+00 2.5000000e+00 8.6169996e+00 
7.5000000e-01 2.5000000e+00 8.6169996e+00 
7.5000000e-01 2.5000000e+00 8.5000000e+00 
0.0000000e+00 2.5000000e+00 8.3830004e+00 
0.0000000e+00 2.5000000e+00 8.6169996e+00 
1.2500000e+00 2.8000000e+00 8.6169996e+00 
1.2500000e+00 2.8000000e+00 8.3830004e+00 
0.0000000e+00 2.8000000e+00 8.3830004e+00 
0.0000000e+00 2.8000000e+00 8.6169996e+00 
7.5000000e-01 2.5000000e+00 8.8830004e+00 
1.2500000e+00 2.5000000e+00 8.8830004e+00 
1.2500000e+00 2.5000000e+00 9.1169996e+00 
7.5000000e-01 2.5000000e+00 9.1169996e+00 
7.5000000e-01 2.5000000e+00 9.0000000e+00 
0.0000000e+00 2.5000000e+00 8.8830004e+00 
0.0000000e+00 2.5000000e+00 9.1169996e+00 
1.2500000e+00 2.8000000e+00 9.1169996e+00 
1.2500000e+00 2.8000000e+00 8.8830004e+00 
0.0000000e+00 2.8000000e+00 8.8830004e+00 
0.0000000e+00 2.8000000e+00 9.1169996e+00 
7.5000000e-01 2.5000000e+00 9.3830004e+00 
1.2500000e+00 2.5000000e+00 9.3830004e+00 
1.2500000e+00 2.5000000e+00 9.6169996e+00 
7.5000000e-01 2.5000000e+00 9.6169996e+00 
7.5000000e-01 2.5000000e+00 9.5000000e+00 
0.0000000e+00 2.5000000e+00 9.3830004e+00 
0.0000000e+00 2.5000000e+00 9.6169996e+00 
1.2500000e+00 2.8000000e+00 9.6169996e+00 
1.2500000e+00 2.8000000e+00 9.3830004e+00 
0.0000000e+00 2.8000000e+00 9.3830004e+00 
0.0000000e+00 2.8000000e+00 9.6169996e+00 
7.5000000e-01 2.5000000e+00 9.8830004e+00 
1.2500000e+00 2.5000000e+00 9.8830004e+00 
1.2500000e+00 2.5000000e+00 1.0117000e+01 
[...]
POINT_DATA 1827
FIELD FieldData 2
DISPLACEMENT 3 1827  float
0.0000000e+00 0.0000000e+00 0.0000000e+00 
0.0000000e+00 0.0000000e+00 0.0000000e+00 
0.0000000e+00 0.0000000e+00 0.0000000e+00 
0.0000000e+00 0.0000000e+00 0.0000000e+00 
0.0000000e+00 2.2053291e-05 0.0000000e+00 
0.0000000e+00 6.5112982e-07 0.0000000e+00 
0.0000000e+00 1.4165618e-06 0.0000000e+00 
0.0000000e+00 -4.0092918e-06 0.0000000e+00 
0.0000000e+00 3.6111745e-05 0.0000000e+00 
8.0700335e-09 3.6117039e-05 8.1219538e-09 
-3.2633002e-10 3.6081208e-05 1.0798253e-09 
0.0000000e+00 3.6074984e-05 0.0000000e+00 
0.0000000e+00 3.6118869e-05 0.0000000e+00 
0.0000000e+00 3.6120018e-05 0.0000000e+00 
-4.0900194e-09 3.6108522e-05 -1.6278668e-09 
0.0000000e+00 3.6108908e-05 0.0000000e+00 
0.0000000e+00 3.6118658e-05 0.0000000e+00 
0.0000000e+00 3.6119600e-05 0.0000000e+00 
-1.4934707e-07 4.6466681e-05 2.8292312e-08 
-1.5630842e-07 4.5823570e-05 1.8669165e-07 
-2.2402362e-07 4.5872905e-05 1.8223569e-07 
-1.8493054e-07 4.6480487e-05 2.6456632e-08 
-1.6460339e-07 4.6473735e-05 2.6969685e-08 
0.0000000e+00 4.6995385e-05 0.0000000e+00 
0.0000000e+00 4.7007845e-05 0.0000000e+00 
1.4372215e-07 4.5885259e-05 1.3061586e-07 
2.0489574e-07 4.5856319e-05 1.3285384e-07 
0.0000000e+00 4.6973553e-05 0.0000000e+00 
0.0000000e+00 4.6989691e-05 0.0000000e+00 
-1.0299578e-07 4.7292397e-05 -1.3781515e-08 
-9.8434192e-08 4.6863246e-05 1.8890857e-07 
-2.0809864e-07 4.6826546e-05 1.7854494e-07 
-1.4401824e-07 4.7265177e-05 -1.0523619e-08 
-1.2149108e-07 4.7280719e-05 -1.2837872e-08 
0.0000000e+00 4.7639114e-05 0.0000000e+00 
0.0000000e+00 4.7628262e-05 0.0000000e+00 
6.4370873e-08 4.6847461e-05 2.0718771e-07 
1.4450860e-07 4.6881025e-05 2.0673632e-07 
0.0000000e+00 4.7621936e-05 0.0000000e+00 
0.0000000e+00 4.7617516e-05 0.0000000e+00 
-1.4014599e-07 3.9362425e-05 -7.0916661e-07 
-2.0415671e-07 3.9224175e-05 -1.4901246e-06 
1.7424310e-07 3.9020833e-05 -1.5258414e-06 
1.2408886e-07 3.9214785e-05 -7.1357539e-07 
-6.9797395e-09 3.9289622e-05 -7.0328929e-07 
0.0000000e+00 3.9368708e-05 0.0000000e+00 
0.0000000e+00 3.9292601e-05 0.0000000e+00 
2.5021268e-07 3.9049137e-05 -1.2401391e-06 
-1.0844565e-07 3.9232578e-05 -1.2474748e-06 
0.0000000e+00 3.9352261e-05 0.0000000e+00 
0.0000000e+00 3.9285598e-05 0.0000000e+00 
-5.1944159e-08 3.1155781e-05 -4.4958844e-07 
-8.6584571e-08 3.1220941e-05 -9.4009556e-07 
1.3578607e-07 3.1089159e-05 -9.4312730e-07 
1.1255425e-07 3.1068339e-05 -4.5386227e-07 
3.0280844e-08 3.1117492e-05 -4.4673865e-07 
0.0000000e+00 3.1004132e-05 0.0000000e+00 
0.0000000e+00 3.0969994e-05 0.0000000e+00 
1.0604261e-07 3.1106338e-05 -7.7830595e-07 
-1.1507498e-07 3.1219533e-05 -7.7766668e-07 
0.0000000e+00 3.1015858e-05 0.0000000e+00 
0.0000000e+00 3.0977684e-05 0.0000000e+00 
-2.4498405e-07 2.8552251e-05 -7.8344658e-07 
-3.3950317e-07 2.8139415e-05 -1.6833949e-06 
8.0729919e-08 2.7951375e-05 -1.6922479e-06 
5.8410645e-08 2.8428647e-05 -7.8204738e-07 
-8.9201187e-08 2.8490846e-05 -7.7391411e-07 
0.0000000e+00 2.8743338e-05 0.0000000e+00 
0.0000000e+00 2.8698760e-05 0.0000000e+00 
3.2999273e-07 2.7992772e-05 -1.4436528e-06 
-7.5509256e-08 2.8152825e-05 -1.4449037e-06 
0.0000000e+00 2.8725604e-05 0.0000000e+00 
0.0000000e+00 2.8678784e-05 0.0000000e+00 
-7.1397807e-08 2.7636626e-05 -2.1664559e-07 
-9.1315400e-08 2.7492139e-05 -4.2637313e-07 
2.2760875e-09 2.7392009e-05 -4.2038306e-07 
-2.1223334e-09 2.7564596e-05 -2.1156633e-07 
-3.6980474e-08 2.7596023e-05 -2.1120007e-07 
0.0000000e+00 2.7761851e-05 0.0000000e+00 
0.0000000e+00 2.7727159e-05 0.0000000e+00 
9.4091185e-08 2.7401600e-05 -3.0297664e-07 
1.0438083e-09 2.7490332e-05 -3.0141996e-07 
0.0000000e+00 2.7749882e-05 0.0000000e+00 
0.0000000e+00 2.7723021e-05 0.0000000e+00 
7.4181830e-09 2.3065233e-05 -5.6358491e-08 
1.2726689e-08 2.3132636e-05 -7.8760003e-08 
3.1987401e-08 2.3087519e-05 -7.3271046e-08 
1.6317784e-08 2.3033304e-05 -5.6804495e-08 
1.1515579e-08 2.3048879e-05 -5.5642371e-08 
0.0000000e+00 2.2987926e-05 0.0000000e+00 
0.0000000e+00 2.2971828e-05 0.0000000e+00 
-1.4744873e-08 2.3088984e-05 -2.7974636e-08 
-2.3020242e-08 2.3127472e-05 -2.6309465e-08 
0.0000000e+00 2.2991720e-05 0.0000000e+00 
0.0000000e+00 2.2980212e-05 0.0000000e+00 
7.8341763e-08 1.8044457e-05 2.1244979e-07 
1.3121161e-07 1.8037308e-05 4.8565863e-07 
2.5944453e-09 1.8038998e-05 4.8798137e-07 
-1.0230812e-08 1.8049333e-05 2.1239417e-07 
3.3114969e-08 1.8047189e-05 2.1055924e-07 
0.0000000e+00 1.8057448e-05 0.0000000e+00 
0.0000000e+00 1.8057392e-05 0.0000000e+00 
-1.2224453e-08 1.8041728e-05 4.6170626e-07 
1.1327549e-07 1.8032442e-05 4.6505642e-07 
0.0000000e+00 1.8050434e-05 0.0000000e+00 
0.0000000e+00 1.8058072e-05 0.0000000e+00 
7.0102580e-08 1.3936643e-05 4.7311619e-07 
1.1429403e-07 1.3720604e-05 9.9806425e-07 
-1.2656876e-07 1.3802130e-05 9.8486919e-07 
-1.0928406e-07 1.3988070e-05 4.7217964e-07 
-1.9900742e-08 1.3965899e-05 4.6778854e-07 
0.0000000e+00 1.4117858e-05 0.0000000e+00 
0.0000000e+00 1.4137786e-05 0.0000000e+00 
-2.2662960e-08 1.3806177e-05 8.7988673e-07 
2.1321735e-07 1.3733616e-05 8.8099017e-07 
0.0000000e+00 1.4104347e-05 0.0000000e+00 
0.0000000e+00 1.4136539e-05 0.0000000e+00 
8.0480312e-08 1.1223262e-05 5.0040796e-07 
9.0083653e-08 1.1263295e-05 1.0207522e-06 
-1.4705860e-07 1.1361840e-05 1.0113504e-06 
-1.0144051e-07 1.1280579e-05 5.0342140e-07 
-1.0629347e-08 1.1250019e-05 4.9650725e-07 
0.0000000e+00 1.1193946e-05 0.0000000e+00 
0.0000000e+00 1.1225610e-05 0.0000000e+00 
-1.7047601e-07 1.1354587e-05 8.9245140e-07 
6.5571868e-08 1.1270557e-05 8.9091009e-07 
0.0000000e+00 1.1202769e-05 0.0000000e+00 
0.0000000e+00 1.1234927e-05 0.0000000e+00 
2.6636579e-08 6.6598159e-06 8.0756379e-08 
3.1405293e-08 6.7426031e-06 1.1980968e-07 
1.4427649e-08 6.6685670e-06 1.1788462e-07 
-2.5406194e-10 6.6253847e-06 8.1871860e-08 
1.2224852e-08 6.6425023e-06 8.2020044e-08 
0.0000000e+00 6.6447269e-06 0.0000000e+00 
0.0000000e+00 6.6308289e-06 0.0000000e+00 
-2.7328500e-08 6.6769067e-06 1.8631887e-07 
-1.1190845e-09 6.7238338e-06 1.8651249e-07 
0.0000000e+00 6.6423340e-06 0.0000000e+00 
0.0000000e+00 6.6346133e-06 0.0000000e+00 
7.8940012e-08 -6.4002074e-07 -1.5741125e-07 
9.0682157e-08 -3.9004567e-07 -2.6885698e-07 
1.5243758e-07 -4.8997208e-07 -2.6087892e-07 
1.1830968e-07 -7.1380555e-07 -1.6476127e-07 
9.8756978e-08 -6.7422445e-07 -1.5850127e-07 
0.0000000e+00 -8.8523933e-07 0.0000000e+00 
0.0000000e+00 -9.1517353e-07 0.0000000e+00 
-4.2236623e-09 -4.8773586e-07 -1.5633671e-07 
-4.8422958e-08 -4.0297036e-07 -1.5497555e-07 
0.0000000e+00 -8.8419591e-07 0.0000000e+00 
0.0000000e+00 -9.1105602e-07 0.0000000e+00 
4.4909470e-08 -9.3736862e-06 2.0095327e-07 
5.0398175e-08 -9.3225935e-06 4.5382814e-07 
-7.2001910e-08 -9.3677136e-06 4.5714398e-07 
-4.5005262e-08 -9.3991621e-06 1.9945678e-07 
1.3219383e-09 -9.3831877e-06 1.9847376e-07 
0.0000000e+00 -9.4803199e-06 0.0000000e+00 
0.0000000e+00 -9.4921579e-06 0.0000000e+00 
-9.0479197e-08 -9.3562667e-06 4.8418076e-07 
3.0128842e-08 -9.3268554e-06 4.8477358e-07 
0.0000000e+00 -9.4796587e-06 0.0000000e+00 
0.0000000e+00 -9.4840343e-06 0.0000000e+00 
-5.2674871e-08 -2.3573417e-05 -1.0631598e-07 
-6.6816128e-08 -2.3797371e-05 -1.1238441e-07 
-8.0807709e-08 -2.4040542e-05 -1.1777480e-07 
-4.9639656e-08 -2.3746170e-05 -1.1175141e-07 
-4.7992422e-08 -2.3654329e-05 -1.0430034e-07 
0.0000000e+00 -2.3497141e-05 0.0000000e+00 
0.0000000e+00 -2.3561663e-05 0.0000000e+00 
7.4028776e-08 -2.4001200e-05 1.4176941e-07 
8.0636461e-08 -2.3800289e-05 1.4222647e-07 
0.0000000e+00 -2.3523124e-05 0.0000000e+00 
0.0000000e+00 -2.3567127e-05 0.0000000e+00 
1.3604992e-07 -5.4523440e-05 -5.1508202e-08 
1.5424196e-07 -5.3972832e-05 -1.6742865e-07 
1.8737610e-07 -5.4377961e-05 -1.6917696e-07 
1.3427859e-07 -5.4752949e-05 -4.2049830e-08 
1.2967607e-07 -5.4643631e-05 -4.3632941e-08 
0.0000000e+00 -5.4804354e-05 0.0000000e+00 
0.0000000e+00 -5.4906122e-05 0.0000000e+00 
-8.7434636e-08 -5.4349988e-05 2.3898340e-07 
-1.0970610e-07 -5.4055417e-05 2.3932159e-07 
0.0000000e+00 -5.4820808e-05 0.0000000e+00 
0.0000000e+00 -5.4889580e-05 0.0000000e+00 
1.8347787e-07 -1.2023126e-04 -5.4286778e-07 
2.9399055e-07 -1.1922535e-04 -8.1872611e-07 
3.9739538e-07 -1.2001453e-04 -8.1772026e-07 
2.7076058e-07 -1.2073004e-04 -5.1450058e-07 
2.1253285e-07 -1.2050631e-04 -5.1460461e-07 
0.0000000e+00 -1.2056791e-04 0.0000000e+00 
0.0000000e+00 -1.2078604e-04 0.0000000e+00 
-1.2135604e-07 -1.2000251e-04 -4.6566186e-09 
-2.1696310e-07 -1.1938099e-04 -8.9407965e-09 
0.0000000e+00 -1.2060635e-04 0.0000000e+00 
0.0000000e+00 -1.2078601e-04 0.0000000e+00 
3.6879229e-07 -2.2560112e-04 9.6594397e-07 
4.5207636e-07 -2.2463697e-04 1.8080713e-06 
2.2289267e-08 -2.2521851e-04 1.8271592e-06 
-1.1637592e-08 -2.2593398e-04 9.9503166e-07 
1.6330880e-07 -2.2578845e-04 9.7521331e-07 
0.0000000e+00 -2.2590850e-04 0.0000000e+00 
0.0000000e+00 -2.2606623e-04 0.0000000e+00 
-4.5189009e-07 -2.2520454e-04 2.3455079e-06 
-1.9559918e-09 -2.2480244e-04 2.3465000e-06 
0.0000000e+00 -2.2592267e-04 0.0000000e+00 
0.0000000e+00 -2.2600306e-04 0.0000000e+00 
6.2236660e-07 -3.3015193e-04 -6.0626587e-07 
8.4826331e-07 -3.2713893e-04 -9.4178262e-07 
9.8746148e-07 -3.2776795e-04 -8.9083727e-07 
7.3723209e-07 -3.3056259e-04 -5.4586508e-07 
6.4463541e-07 -3.3041829e-04 -5.6522850e-07 
0.0000000e+00 -3.3163652e-04 0.0000000e+00 
0.0000000e+00 -3.3178274e-04 0.0000000e+00 
-7.0129732e-07 -3.2791114e-04 -2.5359108e-07 
-8.3313932e-07 -3.2740796e-04 -2.4832195e-07 
0.0000000e+00 -3.3158588e-04 0.0000000e+00 
0.0000000e+00 -3.3173017e-04 0.0000000e+00 
5.6852792e-07 -3.4538208e-04 -5.1393516e-07 
7.2351804e-07 -3.4232237e-04 -1.1281909e-06 
1.0658970e-06 -3.4195601e-04 -1.0212236e-06 
7.9573732e-07 -3.4519841e-04 -4.6335515e-07 
6.4583656e-07 -3.4534981e-04 -4.8688929e-07 
0.0000000e+00 -3.4684539e-04 0.0000000e+00 
0.0000000e+00 -3.4675491e-04 0.0000000e+00 
-7.4790785e-07 -3.4224795e-04 -1.3879280e-06 
-1.0452004e-06 -3.4249187e-04 -1.3800150e-06 
0.0000000e+00 -3.4672942e-04 0.0000000e+00 
0.0000000e+00 -3.4670785e-04 0.0000000e+00 
1.9931231e-07 -2.3461453e-04 2.4437699e-07 
2.4264318e-07 -2.3355191e-04 1.6639808e-07 
3.5518264e-07 -2.3249933e-04 1.9567339e-07 
2.5763924e-07 -2.3391677e-04 3.0588180e-07 
2.0776537e-07 -2.3433114e-04 2.5723131e-07 
0.0000000e+00 -2.3472778e-04 0.0000000e+00 
0.0000000e+00 -2.3442713e-04 0.0000000e+00 
-3.3780935e-07 -2.3271551e-04 -8.8951975e-07 
-4.3510045e-07 -2.3355632e-04 -8.9595119e-07 
0.0000000e+00 -2.3470886e-04 0.0000000e+00 
0.0000000e+00 -2.3448262e-04 0.0000000e+00 
-9.5604051e-08 -1.0789464e-04 -1.3884159e-06 
-9.6191812e-08 -1.0723298e-04 -2.7219844e-06 
5.5719011e-07 -1.0680522e-04 -2.7111641e-06 
4.4693877e-07 -1.0763521e-04 -1.3733123e-06 
1.7024621e-07 -1.0777978e-04 -1.3708143e-06 
0.0000000e+00 -1.0820096e-04 0.0000000e+00 
0.0000000e+00 -1.0807084e-04 0.0000000e+00 
1.3133381e-07 -1.0691913e-04 -3.0796409e-06 
-5.3373861e-07 -1.0721276e-04 -3.0780402e-06 
0.0000000e+00 -1.0812352e-04 0.0000000e+00 
0.0000000e+00 -1.0808378e-04 0.0000000e+00 
1.1922543e-07 -1.9957122e-05 3.7188138e-07 
1.9228783e-07 -1.9624445e-05 4.6402786e-07 
1.7978071e-07 -1.8950648e-05 4.6762068e-07 
9.3052151e-08 -1.9468353e-05 3.6978773e-07 
9.9444264e-08 -1.9711089e-05 3.5495705e-07 
0.0000000e+00 -1.9882566e-05 0.0000000e+00 
0.0000000e+00 -1.9696996e-05 0.0000000e+00 
-8.2199271e-08 -1.9040397e-05 -2.5845216e-07 
-6.5509454e-08 -1.9605684e-05 -2.5983712e-07 
0.0000000e+00 -1.9826701e-05 0.0000000e+00 
0.0000000e+00 -1.9695548e-05 0.0000000e+00 
-9.6994199e-08 1.6612203e-05 -2.5175817e-08 
-8.6814254e-08 1.6282685e-05 -4.1907281e-08 
-7.7914059e-08 1.6336151e-05 -3.8596085e-08 
-8.4867075e-08 1.6652737e-05 -1.8935287e-08 
-8.9646136e-08 1.6629818e-05 -2.2122785e-08 
0.0000000e+00 1.6941411e-05 0.0000000e+00 
0.0000000e+00 1.6959335e-05 0.0000000e+00 
1.0347618e-07 1.6337437e-05 -9.9115908e-08 
9.0489053e-08 1.6292664e-05 -9.5575579e-08 
0.0000000e+00 1.6933267e-05 0.0000000e+00 
0.0000000e+00 1.6949918e-05 0.0000000e+00 
-5.5857747e-08 1.4250842e-05 3.4325265e-07 
-7.3009758e-08 1.3796377e-05 7.3934063e-07 
-2.4982481e-07 1.3776932e-05 7.2885371e-07 
-1.9506651e-07 1.4227104e-05 3.3843233e-07 
-1.2054032e-07 1.4243415e-05 3.3787549e-07 
0.0000000e+00 1.4550255e-05 0.0000000e+00 
0.0000000e+00 1.4520372e-05 0.0000000e+00 
1.4321992e-08 1.3803288e-05 7.4027707e-07 
1.9676517e-07 1.3819216e-05 7.4050854e-07 
0.0000000e+00 1.4518803e-05 0.0000000e+00 
0.0000000e+00 1.4521661e-05 0.0000000e+00 
-9.7547597e-09 5.5890411e-07 2.3765298e-07 
-2.8795206e-08 2.4687668e-07 4.9584332e-07 
-1.4091158e-07 1.9927636e-07 4.9357180e-07 
-1.0564996e-07 5.3409178e-07 2.2840247e-07 
-5.3006453e-08 5.5570558e-07 2.3131071e-07 
0.0000000e+00 6.8232663e-07 0.0000000e+00 
0.0000000e+00 6.6646584e-07 0.0000000e+00 
3.7025725e-08 2.3307034e-07 5.2382524e-07 
1.6332174e-07 2.6128285e-07 5.2494232e-07 
0.0000000e+00 6.6257167e-07 0.0000000e+00 
0.0000000e+00 6.6193894e-07 0.0000000e+00 
1.4477796e-08 -4.6218274e-06 1.9425416e-07 
2.4363740e-09 -4.6404152e-06 3.7296579e-07 
-7.5844170e-08 -4.5813176e-06 3.6959028e-07 
-4.8158778e-08 -4.5908423e-06 1.8976723e-07 
-1.4488955e-08 -4.6022592e-06 1.8986877e-07 
0.0000000e+00 -4.6972236e-06 0.0000000e+00 
0.0000000e+00 -4.6793180e-06 0.0000000e+00 
-6.8219009e-08 -4.5806546e-06 3.0555788e-07 
1.3517265e-08 -4.6274445e-06 3.0404479e-07 
0.0000000e+00 -4.6903133e-06 0.0000000e+00 
0.0000000e+00 -4.6756486e-06 0.0000000e+00 
4.1876159e-08 4.0157153e-07 -3.9079481e-08 
5.0471851e-08 6.4288446e-07 -8.7452463e-08 
7.9119800e-08 7.7433953e-07 -8.9904546e-08 
6.7611140e-08 4.7135421e-07 -3.7812576e-08 
5.3073720e-08 4.3399862e-07 -4.0215820e-08 
0.0000000e+00 2.3402519e-07 0.0000000e+00 
0.0000000e+00 2.6855989e-07 0.0000000e+00 
-7.1883434e-08 7.4048864e-07 -2.0922938e-07 
-1.0484053e-07 6.4942600e-07 -2.1215305e-07 
0.0000000e+00 2.5582159e-07 0.0000000e+00 
0.0000000e+00 2.7104545e-07 0.0000000e+00 
7.3338619e-08 6.1548244e-06 1.5811781e-07 
1.0148953e-07 6.3452399e-06 3.0943454e-07 
4.0001563e-08 6.4062547e-06 3.2165605e-07 
1.8247565e-08 6.1972905e-06 1.6579320e-07 
4.3014420e-08 6.1694604e-06 1.5966467e-07 
0.0000000e+00 6.1219598e-06 0.0000000e+00 
0.0000000e+00 6.1429200e-06 0.0000000e+00 
-8.1404004e-08 6.3831303e-06 2.4308028e-07 
-1.2615363e-08 6.3305415e-06 2.4595289e-07 
0.0000000e+00 6.1301948e-06 0.0000000e+00 
0.0000000e+00 6.1450742e-06 0.0000000e+00 
3.0982463e-08 4.4064805e-06 2.2272262e-07 
4.5893696e-08 4.2977390e-06 4.6063221e-07 
-6.5605661e-08 4.3005998e-06 4.6134767e-07 
-5.6265570e-08 4.4117742e-06 2.2441793e-07 
-1.2582989e-08 4.4074718e-06 2.2135347e-07 
0.0000000e+00 4.5382399e-06 0.0000000e+00 
0.0000000e+00 4.5372012e-06 0.0000000e+00 
-5.3985958e-09 4.3043433e-06 4.4326151e-07 
1.0544078e-07 4.2959455e-06 4.4543035e-07 
0.0000000e+00 4.5257598e-06 0.0000000e+00 
0.0000000e+00 4.5342731e-06 0.0000000e+00 
-2.8952410e-08 -8.4691527e-07 1.7550965e-07 
-2.2175600e-08 -1.1545230e-06 4.8241020e-07 
-1.7618484e-07 -1.1823745e-06 4.7443129e-07 
-1.2147734e-07 -8.5950245e-07 1.6836458e-07 
-7.1403456e-08 -8.4872869e-07 1.7055181e-07 
0.0000000e+00 -6.8370372e-07 0.0000000e+00 
0.0000000e+00 -6.9245408e-07 0.0000000e+00 
1.4086988e-08 -1.1572140e-06 4.8102828e-07 
1.5368374e-07 -1.1419824e-06 4.8020360e-07 
0.0000000e+00 -6.9639395e-07 0.0000000e+00 
0.0000000e+00 -6.9780896e-07 0.0000000e+00 
-9.1941722e-08 -2.0829989e-06 -9.9214894e-08 
-1.2164600e-07 -2.3068158e-06 -1.7385264e-07 
-8.9061317e-08 -2.3129553e-06 -1.7887706e-07 
-5.8276559e-08 -2.0907257e-06 -1.0148700e-07 
-7.2444756e-08 -2.0832636e-06 -9.9282360e-08 
0.0000000e+00 -1.9772792e-06 0.0000000e+00 
0.0000000e+00 -1.9831643e-06 0.0000000e+00 
5.1361539e-08 -2.3008272e-06 -1.6486858e-07 
1.4257542e-08 -2.2917850e-06 -1.6659443e-07 
0.0000000e+00 -1.9829808e-06 0.0000000e+00 
0.0000000e+00 -1.9858153e-06 0.0000000e+00 
-7.5257063e-08 1.0803942e-06 -2.1452760e-07 
-1.0018203e-07 1.0488280e-06 -4.0721156e-07 
-6.1256600e-09 1.0576522e-06 -4.0493453e-07 
2.9476774e-09 1.0773055e-06 -2.1118565e-07 
-3.5617834e-08 1.0775816e-06 -2.1126078e-07 
0.0000000e+00 1.0877874e-06 0.0000000e+00 
0.0000000e+00 1.0876399e-06 0.0000000e+00 
1.8658039e-08 1.0529512e-06 -4.0083759e-07 
-7.4528060e-08 1.0552266e-06 -4.0196772e-07 
0.0000000e+00 1.0928162e-06 0.0000000e+00 
0.0000000e+00 1.0870957e-06 0.0000000e+00 
2.4571725e-09 3.1981144e-06 -8.3173411e-08 
-8.5357046e-09 3.3787207e-06 -1.7625362e-07 
3.6270393e-08 3.3444517e-06 -1.6462569e-07 
3.1796521e-08 3.1802019e-06 -7.7473480e-08 
1.5125622e-08 3.1852592e-06 -7.9327243e-08 
0.0000000e+00 3.1294892e-06 0.0000000e+00 
0.0000000e+00 3.1178406e-06 0.0000000e+00 
-5.4414663e-08 3.3360457e-06 -1.3399220e-07 
-9.3040704e-08 3.3613110e-06 -1.3324981e-07 
0.0000000e+00 3.1342615e-06 0.0000000e+00 
0.0000000e+00 3.1281149e-06 0.0000000e+00 
5.0123898e-08 2.1062245e-07 8.8729237e-08 
5.2051174e-08 3.6587085e-07 1.7851363e-07 
5.0688316e-09 3.0405465e-07 1.9274012e-07 
1.1450224e-08 1.7598097e-07 8.9306347e-08 
2.9464463e-08 1.9236758e-07 8.9415160e-08 
0.0000000e+00 1.2439222e-07 0.0000000e+00 
0.0000000e+00 1.1045867e-07 0.0000000e+00 
-7.0475672e-08 3.0526678e-07 2.3917798e-07 
-2.0346999e-08 3.4790668e-07 2.4018004e-07 
0.0000000e+00 1.2472691e-07 0.0000000e+00 
0.0000000e+00 1.1457804e-07 0.0000000e+00 
3.0318567e-08 -4.2326783e-06 1.2846769e-07 
3.4368878e-08 -4.2513775e-06 2.7461238e-07 
-3.3121019e-08 -4.2490146e-06 2.7043257e-07 
-2.0769303e-08 -4.2285405e-06 1.2537966e-07 
5.3882605e-09 -4.2282450e-06 1.2567067e-07 
0.0000000e+00 -4.2545034e-06 0.0000000e+00 
0.0000000e+00 -4.2529346e-06 0.0000000e+00 
-2.3382574e-08 -4.2425836e-06 2.6052601e-07 
4.4158657e-08 -4.2482457e-06 2.6004057e-07 
0.0000000e+00 -4.2555735e-06 0.0000000e+00 
0.0000000e+00 -4.2522765e-06 0.0000000e+00 
-8.7148679e-09 -4.6424730e-06 1.2067575e-07 
-8.8698622e-09 -4.7842973e-06 3.0687735e-07 
-8.9287077e-08 -4.7026138e-06 2.9780372e-07 
-6.0752690e-08 -4.6028431e-06 1.1919610e-07 
-3.3527431e-08 -4.6204045e-06 1.1796008e-07 
0.0000000e+00 -4.5864749e-06 0.0000000e+00 
0.0000000e+00 -4.5686324e-06 0.0000000e+00 
-1.5811032e-08 -4.7057165e-06 2.1609358e-07 
6.0147670e-08 -4.7624685e-06 2.1475680e-07 
0.0000000e+00 -4.5849602e-06 0.0000000e+00 
0.0000000e+00 -4.5707557e-06 0.0000000e+00 
-1.3703412e-09 -9.9828480e-07 -9.7963948e-08 
-2.7546918e-10 -9.1727981e-07 -2.0679798e-07 
6.3056078e-08 -8.6995749e-07 -2.1422672e-07 
4.1296286e-08 -9.8082091e-07 -9.6843792e-08 
1.8697095e-08 -9.9064869e-07 -9.6974063e-08 
0.0000000e+00 -1.0481009e-06 0.0000000e+00 
0.0000000e+00 -1.0392098e-06 0.0000000e+00 
1.5193070e-09 -8.8589917e-07 -2.4327321e-07 
-5.4391258e-08 -9.1281117e-07 -2.4524164e-07 
0.0000000e+00 -1.0413379e-06 0.0000000e+00 
0.0000000e+00 -1.0392665e-06 0.0000000e+00 
-5.4026983e-09 2.3174389e-06 -1.0481369e-07 
-2.9261904e-09 2.3576913e-06 -2.1744930e-07 
5.4861733e-08 2.3482162e-06 -2.1840283e-07 
3.5058314e-08 2.3099467e-06 -1.0263776e-07 
1.3586628e-08 2.3115665e-06 -1.0268577e-07 
0.0000000e+00 2.3164068e-06 0.0000000e+00 
0.0000000e+00 2.3131811e-06 0.0000000e+00 
2.5762183e-08 2.3436598e-06 -2.0123871e-07 
-2.6620789e-08 2.3534344e-06 -2.0115276e-07 
0.0000000e+00 2.3165628e-06 0.0000000e+00 
0.0000000e+00 2.3125490e-06 0.0000000e+00 
-1.6088622e-08 2.8718409e-06 -2.8608484e-08 
-2.5579824e-08 2.8008219e-06 -8.6151871e-08 
-3.8239051e-10 2.7830572e-06 -8.8702294e-08 
-8.2646939e-10 2.8620348e-06 -2.8758947e-08 
-8.4162606e-09 2.8678696e-06 -2.8363683e-08 
0.0000000e+00 2.9235143e-06 0.0000000e+00 
0.0000000e+00 2.9176454e-06 0.0000000e+00 
4.2075705e-08 2.7899962e-06 -6.6048528e-08 
1.7569066e-08 2.8031150e-06 -6.6157462e-08 
0.0000000e+00 2.9182333e-06 0.0000000e+00 
0.0000000e+00 2.9158505e-06 0.0000000e+00 
0.0000000e+00 3.5415018e-05 0.0000000e+00 
0.0000000e+00 4.0869882e-06 0.0000000e+00 
-1.7429749e-09 2.5363663e-06 1.1602855e-09 
-3.0573719e-09 2.4896156e-06 1.1515698e-09 
0.0000000e+00 2.4927745e-06 0.0000000e+00 