# vtk DataFile Version 4.0
vtk output
ASCII
DATASET UNSTRUCTURED_GRID
POINTS 1827 float
0.0000000e+00 0.0000000e+00 0.0000000e+00 
0.0000000e+00 0.0000000e+00 2.0000000e+01 
3.4700000e+00 0.0000000e+00 0.0000000e+00 
3.4700000e+00 0.0000000e+00 2.0000000e+01 
3.4700000e+00 1.0000000e+00 0.0000000e+00 
3.4700000e+00 1.0000000e+00 2.0000000e+01 
0.0000000e+00 1.0000000e+00 0.0000000e+00 
0.0000000e+00 1.0000000e+00 2.0000000e+01 
1.2500000e+00 2.5000000e+00 0.0000000e+00 
1.2500000e+00 2.5000000e+00 1.1700000e-01 
7.5000000e-01 2.5000000e+00 1.1700000e-01 
7.5000000e-01 2.5000000e+00 0.0000000e+00 
0.0000000e+00 2.5000000e+00 0.0000000e+00 
0.0000000e+00 2.5000000e+00 1.1700000e-01 
1.2500000e+00 2.8000000e+00 1.1700000e-01 
1.2500000e+00 2.8000000e+00 0.0000000e+00 
0.0000000e+00 2.8000000e+00 0.0000000e+00 
0.0000000e+00 2.8000000e+00 1.1700000e-01 
7.5000000e-01 2.5000000e+00 3.8299999e-01 
1.2500000e+00 2.5000000e+00 3.8299999e-01 
1.2500000e+00 2.5000000e+00 6.1699998e-01 
7.5000000e-01 2.5000000e+00 6.1699998e-01 
7.5000000e-01 2.5000000e+00 5.0000000e-01 
0.0000000e+00 2.5000000e+00 3.8299999e-01 
0.0000000e+00 2.5000000e+00 6.1699998e-01 
1.2500000e+00 2.8000000e+00 6.1699998e-01 
1.2500000e+00 2.8000000e+00 3.8299999e-01 
0.0000000e+00 2.8000000e+00 3.8299999e-01 
0.0000000e+00 2.8000000e+00 6.1699998e-01 
7.5000000e-01 2.5000000e+00 8.8300002e-01 
1.2500000e+00 2.5000000e+00 8.8300002e-01 
1.2500000e+00 2.5000000e+00 1.1170000e+00 
7.5000000e-01 2.5000000e+00 1.1170000e+00 
7.5000000e-01 2.5000000e+00 1.0000000e+00 
0.0000000e+00 2.5000000e+00 8.8300002e-01 
0.0000000e+00 2.5000000e+00 1.1170000e+00 
1.2500000e+00 2.8000000e+00 1.1170000e+00 
1.2500000e+00 2.8000000e+00 8.8300002e-01 
0.0000000e+00 2.8000000e+00 8.8300002e-01 
0.0000000e+00 2.8000000e+00 1.1170000e+00 
7.5000000e-01 2.5000000e+00 1.3830000e+00 
1.2500000e+00 2.5000000e+00 1.3830000e+00 
1.2500000e+00 2.5000000e+00 1.6170000e+00 
7.5000000e-01 2.5000000e+00 1.6170000e+00 
7.5000000e-01 2.5000000e+00 1.5000000e+00 
0.0000000e+00 2.5000000e+00 1.3830000e+00 
0.0000000e+00 2.5000000e+00 1.6170000e+00 
1.2500000e+00 2.8000000e+00 1.6170000e+00 
1.2500000e+00 2.8000000e+00 1.3830000e+00 
0.0000000e+00 2.8000000e+00 1.3830000e+00 
0.0000000e+00 2.8000000e+00 1.6170000e+00 
7.5000000e-01 2.5000000e+00 1.8830000e+00 
1.2500000e+00 2.5000000e+00 1.8830000e+00 
1.2500000e+00 2.5000000e+00 2.1170001e+00 
7.5000000e-01 2.5000000e+00 2.1170001e+00 
7.5000000e-01 2.5000000e+00 2.0000000e+00 
0.0000000e+00 2.5000000e+00 1.8830000e+00 
0.0000000e+00 2.5000000e+00 2.1170001e+00 
1.2500000e+00 2.8000000e+00 2.1170001e+00 
1.2500000e+00 2.8000000e+00 1.8830000e+00 
0.0000000e+00 2.8000000e+00 1.8830000e+00 
0.0000000e+00 2.8000000e+00 2.1170001e+00 
7.5000000e-01 2.5000000e+00 2.3829999e+00 
1.2500000e+00 2.5000000e+00 2.3829999e+00 
1.2500000e+00 2.5000000e+00 2.6170001e+00 
7.5000000e-01 2.5000000e+00 2.6170001e+00 
7.5000000e-01 2.5000000e+00 2.5000000e+00 
0.0000000e+00 2.5000000e+00 2.3829999e+00 
0.0000000e+00 2.5000000e+00 2.6170001e+00 
1.2500000e+00 2.8000000e+00 2.6170001e+00 
1.2500000e+00 2.8000000e+00 2.3829999e+00 
0.0000000e+00 2.8000000e+00 2.3829999e+00 
0.0000000e+00 2.8000000e+00 2.6170001e+00 
7.5000000e-01 2.5000000e+00 2.8829999e+00 
1.2500000e+00 2.5000000e+00 2.8829999e+00 
1.2500000e+00 2.5000000e+00 3.1170001e+00 
7.5000000e-01 2.5000000e+00 3.1170001e+00 
7.5000000e-01 2.5000000e+00 3.0000000e+00 
0.0000000e+00 2.5000000e+00 2.8829999e+00 
0.0000000e+00 2.5000000e+00 3.1170001e+00 
1.2500000e+00 2.8000000e+00 3.1170001e+00 
1.2500000e+00 2.8000000e+00 2.8829999e+00 
0.0000000e+00 2.8000000e+00 2.8829999e+00 
0.0000000e+00 2.8000000e+00 3.1170001e+00 
7.5000000e-01 2.5000000e+00 3.3829999e+00 
1.2500000e+00 2.5000000e+00 3.3829999e+00 
1.2500000e+00 2.5000000e+00 3.6170001e+00 
7.5000000e-01 2.5000000e+00 3.6170001e+00 
7.5000000e-01 2.5000000e+00 3.5000000e+00 
0.0000000e+00 2.5000000e+00 3.3829999e+00 
0.0000000e+00 2.5000000e+00 3.6170001e+00 
1.2500000e+00 2.8000000e+00 3.6170001e+00 
1.2500000e+00 2.8000000e+00 3.3829999e+00 
0.0000000e+00 2.8000000e+00 3.3829999e+00 
0.0000000e+00 2.8000000e+00 3.6170001e+00 
7.5000000e-01 2.5000000e+00 3.8829999e+00 
1.2500000e+00 2.5000000e+00 3.8829999e+00 
1.2500000e+00 2.5000000e+00 4.1170001e+00 
7.5000000e-01 2.5000000e+00 4.1170001e+00 
7.5000000e-01 2.5000000e+00 4.0000000e+00 
0.0000000e+00 2.5000000e+00 3.8829999e+00 
0.0000000e+00 2.5000000e+00 4.1170001e+00 
1.2500000e+00 2.8000000e+00 4.1170001e+00 
1.2500000e+00 2.8000000e+00 3.8829999e+00 
0.0000000e+00 2.8000000e+00 3.8829999e+00 
0.0000000e+00 2.8000000e+00 4.1170001e+00 
7.5000000e-01 2.5000000e+00 4.3829999e+00 
1.2500000e+00 2.5000000e+00 4.3829999e+00 
1.2500000e+00 2.5000000e+00 4.6170001e+00 
7.5000000e-01 2.5000000e+00 4.6170001e+00 
7.5000000e-01 2.5000000e+00 4.5000000e+00 
0.0000000e+00 2.5000000e+00 4.3829999e+00 
0.0000000e+00 2.5000000e+00 4.6170001e+00 
1.2500000e+00 2.8000000e+00 4.6170001e+00 
1.2500000e+00 2.8000000e+00 4.3829999e+00 
0.0000000e+00 2.8000000e+00 4.3829999e+00 
0.0000000e+00 2.8000000e+00 4.6170001e+00 
7.5000000e-01 2.5000000e+00 4.8829999e+00 
1.2500000e+00 2.5000000e+00 4.8829999e+00 
1.2500000e+00 2.5000000e+00 5.1170001e+00 
7.5000000e-01 2.5000000e+00 5.1170001e+00 
7.5000000e-01 2.5000000e+00 5.0000000e+00 
0.0000000e+00 2.5000000e+00 4.8829999e+00 
0.0000000e+00 2.5000000e+00 5.1170001e+00 
1.2500000e+00 2.8000000e+00 5.1170001e+00 
1.2500000e+00 2.8000000e+00 4.8829999e+00 
0.0000000e+00 2.8000000e+00 4.8829999e+00 
0.0000000e+00 2.8000000e+00 5.1170001e+00 
7.5000000e-01 2.5000000e+00 5.3829999e+00 
1.2500000e+00 2.5000000e+00 5.3829999e+00 
1.2500000e+00 2.5000000e+00 5.6170001e+00 
7.5000000e-01 2.5000000e+00 5.6170001e+00 
7.5000000e-01 2.5000000e+00 5.5000000e+00 
0.0000000e+00 2.5000000e+00 5.3829999e+00 
0.0000000e+00 2.5000000e+00 5.6170001e+00 
1.2500000e+00 2.8000000e+00 5.6170001e+00 
1.2500000e+00 2.8000000e+00 5.3829999e+00 
0.0000000e+00 2.8000000e+00 5.3829999e+00 
0.0000000e+00 2.8000000e+00 5.6170001e+00 
7.5000000e-01 2.5000000e+00 5.8829999e+00 
1.2500000e+00 2.5000000e+00 5.8829999e+00 
1.2500000e+00 2.5000000e+00 6.1170001e+00 
7.5000000e-01 2.5000000e+00 6.1170001e+00 
7.5000000e-01 2.5000000e+00 6.0000000e+00 
0.0000000e+00 2.5000000e+00 5.8829999e+00 
0.0000000e+00 2.5000000e+00 6.1170001e+00 
1.2500000e+00 2.8000000e+00 6.1170001e+00 
1.2500000e+00 2.8000000e+00 5.8829999e+00 
0.0000000e+00 2.8000000e+00 5.8829999e+00 
0.0000000e+00 2.8000000e+00 6.1170001e+00 
7.5000000e-01 2.5000000e+00 6.3829999e+00 
1.2500000e+00 2.5000000e+00 6.3829999e+00 
1.2500000e+00 2.5000000e+00 6.6170001e+00 
7.5000000e-01 2.5000000e+00 6.6170001e+00 
7.5000000e-01 2.5000000e+00 6.5000000e+00 
0.0000000e+00 2.5000000e+00 6.3829999e+00 
0.0000000e+00 2.5000000e+00 6.6170001e+00 
1.2500000e+00 2.8000000e+00 6.6170001e+00 
1.2500000e+00 2.8000000e+00 6.3829999e+00 
0.0000000e+00 2.8000000e+00 6.3829999e+00 
0.0000000e+00 2.8000000e+00 6.6170001e+00 
7.5000000e-01 2.5000000e+00 6.8829999e+00 
1.2500000e+00 2.5000000e+00 6.8829999e+00 
1.2500000e+00 2.5000000e+00 7.1170001e+00 
7.5000000e-01 2.5000000e+00 7.1170001e+00 
7.5000000e-01 2.5000000e+00 7.0000000e+00 
0.0000000e+00 2.5000000e+00 6.8829999e+00 
0.0000000e+00 2.5000000e+00 7.1170001e+00 
1.2500000e+00 2.8000000e+00 7.1170001e+00 
1.2500000e+00 2.8000000e+00 6.8829999e+00 
0.0000000e+00 2.8000000e+00 6.8829999e+00 
0.0000000e+00 2.8000000e+00 7.1170001e+00 
7.5000000e-01 2.5000000e+00 7.3829999e+00 
1.2500000e+00 2.5000000e+00 7.3829999e+00 
1.2500000e+00 2.5000000e+00 7.6170001e+00 
7.5000000e-01 2.5000000e+00 7.6170001e+00 
7.5000000e-01 2.5000000e+00 7.5000000e+00 
0.0000000e+00 2.5000000e+00 7.3829999e+00 
0.0000000e+00 2.5000000e+00 7.6170001e+00 
1.2500000e+00 2.8000000e+00 7.6170001e+00 
1.2500000e+00 2.8000000e+00 7.3829999e+00 
0.0000000e+00 2.8000000e+00 7.3829999e+00 
0.0000000e+00 2.8000000e+00 7.6170001e+00 
7.5000000e-01 2.5000000e+00 7.8829999e+00 
1.2500000e+00 2.5000000e+00 7.8829999e+00 
1.2500000e+00 2.5000000e+00 8.1169996e+00 
7.5000000e-01 2.5000000e+00 8.1169996e+00 
7.5000000e-01 2.5000000e+00 8.0000000e+00 
0.0000000e+00 2.5000000e+00 7.8829999e+00 
0.0000000e+00 2.5000000e+00 8.1169996e+00 
1.2500000e+00 2.8000000e+00 8.1169996e+00 
1.2500000e+00 2.8000000e+00 7.8829999e+00 
0.0000000e+00 2.8000000e+00 7.8829999e+00 
0.0000000e+00 2.8000000e+00 8.1169996e+00 
7.5000000e-01 2.5000000e+00 8.3830004e+00 
1.2500000e+00 2.5000000e+00 8.3830004e+00 
1.2500000e+00 2.5000000e+00 8.6169996e+00 
7.5000000e-01 2.5000000e+00 8.6169996e+00 
7.5000000e-01 2.5000000e+00 8.5000000e+00 
0.0000000e+00 2.5000000e+00 8.3830004e+00 
0.0000000e+00 2.5000000e+00 8.6169996e+00 
1.2500000e+00 2.8000000e+00 8.6169996e+00 
1.2500000e+00 2.8000000e+00 8.3830004e+00 
0.0000000e+00 2.8000000e+00 8.3830004e+00 
0.0000000e+00 2.8000000e+00 8.6169996e+00 
7.5000000e-01 2.5000000e+00 8.8830004e+00 
1.2500000e+00 2.5000000e+00 8.8830004e+00 
1.2500000e+00 2.5000000e+00 9.1169996e+00 
7.5000000e-01 2.5000000e+00 9.1169996e+00 
7.5000000e-01 2.5000000e+00 9.0000000e+00 
0.0000000e+00 2.5000000e+00 8.8830004e+00 
0.0000000e+00 2.5000000e+00 9.1169996e+00 
1.2500000e+00 2.8000000e+00 9.1169996e+00 
1.2500000e+00 2.8000000e+00 8.8830004e+00 
0.0000000e+00 2.8000000e+00 8.8830004e+00 
0.0000000e+00 2.8000000e+00 9.1169996e+00 
7.5000000e-01 2.5000000e+00 9.3830004e+00 
1.2500000e+00 2.5000000e+00 9.3830004e+00 
1.2500000e+00 2.5000000e+00 9.6169996e+00 
7.5000000e-01 2.5000000e+00 9.6169996e+00 
7.5000000e-01 2.5000000e+00 9.5000000e+00 
0.0000000e+00 2.5000000e+00 9.3830004e+00 
0.0000000e+00 2.5000000e+00 9.6169996e+00 
1.2500000e+00 2.8000000e+00 9.6169996e+00 
1.2500000e+00 2.8000000e+00 9.3830004e+00 
0.0000000e+00 2.8000000e+00 9.3830004e+00 
0.0000000e+00 2.8000000e+00 9.6169996e+00 
7.5000000e-01 2.5000000e+00 9.8830004e+00 
1.2500000e+00 2.5000000e+00 9.8830004e+00 
1.2500000e+00 2.5000000e+00 1.0117000e+01 
[...]
POINT_DATA 1827
FIELD FieldData 2
DISPLACEMENT 3 1827  float
0.0000000e+00 0.0000000e+00 0.0000000e+00 
0.0000000e+00 0.0000000e+00 0.0000000e+00 
0.0000000e+00 0.0000000e+00 0.0000000e+00 
0.0000000e+00 0.0000000e+00 0.0000000e+00 
0.0000000e+00 -3.2079439e-05 0.0000000e+00 
0.0000000e+00 -6.0828094e-09 0.0000000e+00 
0.0000000e+00 -2.2677583e-05 0.0000000e+00 
0.0000000e+00 -4.3245183e-08 0.0000000e+00 
0.0000000e+00 -1.1600094e-04 0.0000000e+00 
-4.5962945e-09 -1.1601109e-04 1.4063551e-09 
3.2028145e-09 -1.1597508e-04 -1.3001889e-11 
0.0000000e+00 -1.1596498e-04 0.0000000e+00 
0.0000000e+00 -1.1609404e-04 0.0000000e+00 
0.0000000e+00 -1.1609551e-04 0.0000000e+00 
5.1305880e-09 -1.1600541e-04 3.8970986e-09 
0.0000000e+00 -1.1600662e-04 0.0000000e+00 
0.0000000e+00 -1.1609487e-04 0.0000000e+00 
0.0000000e+00 -1.1609631e-04 0.0000000e+00 
1.9883117e-07 -1.4576483e-04 1.0370987e-07 
2.9854024e-07 -1.4494878e-04 3.5488924e-07 
1.5507591e-07 -1.4525843e-04 3.8106404e-07 
9.9452294e-08 -1.4597308e-04 1.2682254e-07 
1.4177634e-07 -1.4588513e-04 1.1657691e-07 
0.0000000e+00 -1.4612956e-04 0.0000000e+00 
0.0000000e+00 -1.4622512e-04 0.0000000e+00 
-2.8542550e-07 -1.4528127e-04 6.7481051e-07 
-1.5457151e-07 -1.4503751e-04 6.8127440e-07 
0.0000000e+00 -1.4613422e-04 0.0000000e+00 
0.0000000e+00 -1.4618937e-04 0.0000000e+00 
1.5615187e-07 -2.1952036e-04 4.1711468e-07 
2.5345079e-07 -2.1880693e-04 9.9929525e-07 
-1.2151303e-07 -2.1961903e-04 9.9357760e-07 
-8.9845827e-08 -2.1998638e-04 4.4567622e-07 
2.0811433e-08 -2.1977682e-04 4.4311378e-07 
0.0000000e+00 -2.1969984e-04 0.0000000e+00 
0.0000000e+00 -2.1992289e-04 0.0000000e+00 
-3.7984736e-07 -2.1956170e-04 1.7663392e-06 
-6.5871149e-08 -2.1896895e-04 1.7590820e-06 
0.0000000e+00 -2.1974435e-04 0.0000000e+00 
0.0000000e+00 -2.1988072e-04 0.0000000e+00 
5.0711043e-07 -3.2671980e-04 1.7553377e-08 
6.5783667e-07 -3.2418131e-04 1.0373743e-07 
5.7579052e-07 -3.2470832e-04 1.3417738e-07 
4.4516025e-07 -3.2714440e-04 4.3905899e-08 
4.5392076e-07 -3.2697766e-04 3.5421671e-08 
0.0000000e+00 -3.2819129e-04 0.0000000e+00 
0.0000000e+00 -3.2836301e-04 0.0000000e+00 
-8.2917785e-07 -3.2482331e-04 7.0976978e-07 
-7.5776404e-07 -3.2436129e-04 7.0060270e-07 
0.0000000e+00 -3.2813661e-04 0.0000000e+00 
0.0000000e+00 -3.2829324e-04 0.0000000e+00 
3.5699421e-07 -4.0266846e-04 -1.0049138e-06 
4.9185587e-07 -4.0027633e-04 -1.8143126e-06 
8.7900236e-07 -4.0033949e-04 -1.7888070e-06 
6.8805127e-07 -4.0268348e-04 -9.7097688e-07 
4.8978364e-07 -4.0273639e-04 -9.7808493e-07 
0.0000000e+00 -4.0379545e-04 0.0000000e+00 
0.0000000e+00 -4.0375860e-04 0.0000000e+00 
-4.7359578e-07 -4.0050579e-04 -1.7127874e-06 
-8.6728392e-07 -4.0044889e-04 -1.7143257e-06 
0.0000000e+00 -4.0370226e-04 0.0000000e+00 
0.0000000e+00 -4.0372080e-04 0.0000000e+00 
7.5133875e-07 -3.4155496e-04 -1.3046075e-06 
9.7713644e-07 -3.3726642e-04 -2.7328672e-06 
1.7154549e-06 -3.3641252e-04 -2.6821010e-06 
1.3305062e-06 -3.4096575e-04 -1.2864418e-06 
1.0041382e-06 -3.4130574e-04 -1.2917737e-06 
0.0000000e+00 -3.4405867e-04 0.0000000e+00 
0.0000000e+00 -3.4383405e-04 0.0000000e+00 
-8.6205841e-07 -3.3675125e-04 -3.5370142e-06 
-1.5726197e-06 -3.3741383e-04 -3.5509254e-06 
0.0000000e+00 -3.4382832e-04 0.0000000e+00 
0.0000000e+00 -3.4375288e-04 0.0000000e+00 
1.2273675e-07 -1.9338849e-04 -4.9680364e-07 
1.8900546e-07 -1.9220079e-04 -1.3190592e-06 
6.5111573e-07 -1.9091170e-04 -1.3368063e-06 
4.6951993e-07 -1.9264572e-04 -4.6533665e-07 
2.7272108e-07 -1.9304485e-04 -4.8809744e-07 
0.0000000e+00 -1.9368650e-04 0.0000000e+00 
0.0000000e+00 -1.9336694e-04 0.0000000e+00 
-1.7746429e-07 -1.9118571e-04 -2.5334934e-06 
-6.5397455e-07 -1.9212220e-04 -2.5341155e-06 
0.0000000e+00 -1.9356275e-04 0.0000000e+00 
0.0000000e+00 -1.9334191e-04 0.0000000e+00 
1.5367391e-07 -7.0189642e-05 9.0707823e-07 
2.5629009e-07 -7.0481939e-05 1.8154706e-06 
-9.8153301e-08 -6.9457848e-05 1.7898197e-06 
-9.8670988e-08 -6.9597125e-05 9.1430439e-07 
2.6437434e-08 -6.9906928e-05 8.8923292e-07 
0.0000000e+00 -6.9675792e-05 0.0000000e+00 
0.0000000e+00 -6.9419162e-05 0.0000000e+00 
-6.9315661e-08 -6.9591035e-05 7.4950083e-07 
2.8067385e-07 -7.0366805e-05 7.4260782e-07 
0.0000000e+00 -6.9699359e-05 0.0000000e+00 
0.0000000e+00 -6.9491187e-05 0.0000000e+00 
2.9023829e-08 -5.4801631e-06 6.1157101e-07 
5.1987669e-08 -5.9249660e-06 1.0779601e-06 
-1.4810793e-07 -5.5879473e-06 1.0678390e-06 
-1.4449571e-07 -5.2529881e-06 6.1560087e-07 
-5.9459392e-08 -5.3641675e-06 6.0470342e-07 
0.0000000e+00 -4.9996052e-06 0.0000000e+00 
0.0000000e+00 -4.8967959e-06 0.0000000e+00 
6.4891651e-08 -5.6051513e-06 7.0306868e-07 
2.6648624e-07 -5.8872633e-06 7.0826445e-07 
0.0000000e+00 -5.0049862e-06 0.0000000e+00 
0.0000000e+00 -4.9076157e-06 0.0000000e+00 
-8.9003080e-08 1.4508000e-05 1.2730371e-07 
-1.6039928e-07 1.4016085e-05 1.6072259e-07 
-1.7396266e-07 1.4111854e-05 1.6519984e-07 
-1.1161989e-07 1.4565123e-05 1.2111290e-07 
-9.6277226e-08 1.4545779e-05 1.2276959e-07 
0.0000000e+00 1.4738925e-05 0.0000000e+00 
0.0000000e+00 1.4770728e-05 0.0000000e+00 
1.1362987e-07 1.4133533e-05 6.9684432e-08 
1.2919197e-07 1.4058993e-05 7.0902594e-08 
0.0000000e+00 1.4731198e-05 0.0000000e+00 
0.0000000e+00 1.4756725e-05 0.0000000e+00 
-7.3249787e-08 1.7063308e-05 1.5682159e-07 
-1.2391426e-07 1.6690845e-05 2.4684113e-07 
-2.0216277e-07 1.6717777e-05 2.3966530e-07 
-1.1816101e-07 1.7085840e-05 1.5044874e-07 
-9.2475354e-08 1.7082466e-05 1.5171429e-07 
0.0000000e+00 1.7247427e-05 0.0000000e+00 
0.0000000e+00 1.7257231e-05 0.0000000e+00 
5.1148497e-08 1.6743554e-05 2.1255769e-07 
9.4045788e-08 1.6717418e-05 2.0996355e-07 
0.0000000e+00 1.7235428e-05 0.0000000e+00 
0.0000000e+00 1.7250333e-05 0.0000000e+00 
2.0286646e-09 1.5642243e-05 3.6261710e-08 
-3.5091379e-08 1.5745038e-05 4.2272863e-08 
-2.0883020e-08 1.5769738e-05 5.1510455e-08 
-4.8787760e-09 1.5651827e-05 3.8605211e-08 
-2.7424711e-09 1.5646987e-05 3.6799285e-08 
0.0000000e+00 1.5610705e-05 0.0000000e+00 
0.0000000e+00 1.5615438e-05 0.0000000e+00 
-7.0048252e-08 1.5757792e-05 2.7947824e-08 
-6.5083704e-08 1.5741627e-05 2.6318190e-08 
0.0000000e+00 1.5615182e-05 0.0000000e+00 
0.0000000e+00 1.5617685e-05 0.0000000e+00 
1.4170689e-07 1.0007186e-05 -1.7336152e-08 
1.8327034e-07 1.0537882e-05 -1.2668430e-08 
1.8833342e-07 1.0492651e-05 1.2505232e-09 
1.3600231e-07 9.9749141e-06 -1.2316354e-08 
1.3464353e-07 9.9869594e-06 -1.3381420e-08 
0.0000000e+00 9.7056927e-06 0.0000000e+00 
0.0000000e+00 9.6889007e-06 0.0000000e+00 
-1.2682264e-07 1.0465015e-05 4.0869516e-08 
-1.1994949e-07 1.0502151e-05 4.2750589e-08 
0.0000000e+00 9.7154780e-06 0.0000000e+00 
0.0000000e+00 9.7022094e-06 0.0000000e+00 
3.2261468e-08 -1.1072235e-07 1.9929189e-07 
3.6801286e-08 -5.2630377e-08 3.7059604e-07 
-4.9696052e-08 -9.1789147e-08 3.7320029e-07 
-3.9711828e-08 -1.2188282e-07 2.0001681e-07 
-3.7365675e-09 -1.1621678e-07 1.9796516e-07 
0.0000000e+00 -1.4403390e-07 0.0000000e+00 
0.0000000e+00 -1.5248222e-07 0.0000000e+00 
-7.0697915e-08 -8.5884558e-08 3.9570952e-07 
1.5272322e-08 -6.7885857e-08 3.9592175e-07 
0.0000000e+00 -1.4777447e-07 0.0000000e+00 
0.0000000e+00 -1.4774268e-07 0.0000000e+00 
-1.4201308e-07 -6.4648502e-06 4.3813340e-09 
-2.0696568e-07 -6.8506542e-06 -6.5111735e-08 
-1.9151648e-07 -6.9135676e-06 -6.7144661e-08 
-1.3336103e-07 -6.4990904e-06 1.7449274e-09 
-1.3357442e-07 -6.4782744e-06 4.6272781e-09 
0.0000000e+00 -6.2590689e-06 0.0000000e+00 
0.0000000e+00 -6.2721615e-06 0.0000000e+00 
6.6423915e-08 -6.8835866e-06 2.5242042e-09 
4.1838952e-08 -6.8382428e-06 7.3030254e-10 
0.0000000e+00 -6.2724384e-06 0.0000000e+00 
0.0000000e+00 -6.2784325e-06 0.0000000e+00 
-5.6606758e-08 -4.3903037e-06 -1.8811451e-07 
-8.7128512e-08 -4.3934156e-06 -4.3359998e-07 
5.1578272e-08 -4.3639147e-06 -4.2177351e-07 
2.7398984e-08 -4.3795440e-06 -1.9177529e-07 
-1.3700925e-08 -4.3820651e-06 -1.8831602e-07 
0.0000000e+00 -4.4311105e-06 0.0000000e+00 
0.0000000e+00 -4.4267958e-06 0.0000000e+00 
3.7347540e-08 -4.3694558e-06 -4.3980265e-07 
-7.2667291e-08 -4.3847749e-06 -4.3951360e-07 
0.0000000e+00 -4.4238664e-06 0.0000000e+00 
0.0000000e+00 -4.4262547e-06 0.0000000e+00 
4.6393424e-08 2.4702729e-06 -4.1396472e-08 
7.7902762e-08 2.6079360e-06 -7.7968579e-08 
9.3860734e-08 2.7255478e-06 -6.4302363e-08 
7.1074901e-08 2.5317042e-06 -4.2496961e-08 
5.7576877e-08 2.5004238e-06 -4.3201343e-08 
0.0000000e+00 2.3640680e-06 0.0000000e+00 
0.0000000e+00 2.3924154e-06 0.0000000e+00 
-9.6922417e-09 2.6989517e-06 -1.8441607e-07 
-3.3628940e-08 2.6174293e-06 -1.8047407e-07 
0.0000000e+00 2.3797770e-06 0.0000000e+00 
0.0000000e+00 2.3970226e-06 0.0000000e+00 
8.7203695e-08 5.9512399e-06 3.0899508e-07 
1.2558228e-07 6.0536904e-06 6.2664810e-07 
-2.3190770e-08 6.1217270e-06 6.3527011e-07 
-2.4030625e-08 5.9940335e-06 3.1247100e-07 
3.0027614e-08 5.9689155e-06 3.0737348e-07 
0.0000000e+00 5.9007707e-06 0.0000000e+00 
0.0000000e+00 5.9218833e-06 0.0000000e+00 
-9.4727426e-08 6.1092987e-06 5.4340569e-07 
5.1486225e-08 6.0497064e-06 5.4492483e-07 
0.0000000e+00 5.9025292e-06 0.0000000e+00 
0.0000000e+00 5.9262138e-06 0.0000000e+00 
1.0519889e-07 2.5494758e-06 6.2144107e-07 
1.2756738e-07 2.5778522e-06 1.2721189e-06 
-1.7717940e-07 2.6462824e-06 1.2716260e-06 
-1.2904150e-07 2.5982997e-06 6.2360664e-07 
-1.0844830e-08 2.5720828e-06 6.1607221e-07 
0.0000000e+00 2.5669108e-06 0.0000000e+00 
0.0000000e+00 2.5907821e-06 0.0000000e+00 
-1.8730186e-07 2.6431242e-06 1.1664453e-06 
1.1200984e-07 2.5762342e-06 1.1672175e-06 
0.0000000e+00 2.5696563e-06 0.0000000e+00 
0.0000000e+00 2.5967940e-06 0.0000000e+00 
5.0398768e-08 -3.3720182e-06 1.4926289e-07 
6.6720801e-08 -3.2688699e-06 2.7848486e-07 
-9.8336594e-10 -3.2808696e-06 2.7128968e-07 
-1.5904465e-10 -3.3728029e-06 1.4610237e-07 
2.5581532e-08 -3.3710339e-06 1.4633673e-07 
0.0000000e+00 -3.4757093e-06 0.0000000e+00 
0.0000000e+00 -3.4739307e-06 0.0000000e+00 
-5.8863936e-08 -3.2769888e-06 2.7643560e-07 
3.8509613e-09 -3.2757021e-06 2.7499087e-07 
0.0000000e+00 -3.4724965e-06 0.0000000e+00 
0.0000000e+00 -3.4703507e-06 0.0000000e+00 
-6.2714342e-08 -5.5682312e-06 -2.4037860e-07 
-7.4163232e-08 -5.6438312e-06 -5.3995160e-07 
6.0957348e-08 -5.6757472e-06 -5.4716526e-07 
3.8154891e-08 -5.5875016e-06 -2.4156625e-07 
-1.2006422e-08 -5.5766964e-06 -2.3881097e-07 
0.0000000e+00 -5.5348783e-06 0.0000000e+00 
0.0000000e+00 -5.5418964e-06 0.0000000e+00 
1.0189456e-07 -5.6699050e-06 -4.9424199e-07 
-3.5551722e-08 -5.6412487e-06 -4.9411148e-07 
0.0000000e+00 -5.5344121e-06 0.0000000e+00 
0.0000000e+00 -5.5477149e-06 0.0000000e+00 
-5.7705090e-09 -3.0079441e-06 -1.8706577e-07 
-7.3675284e-09 -2.9427476e-06 -3.8954178e-07 
8.3949054e-08 -2.9445282e-06 -3.8785012e-07 
6.6846376e-08 -3.0137442e-06 -1.8740992e-07 
3.0437885e-08 -3.0121996e-06 -1.8553008e-07 
0.0000000e+00 -3.0691820e-06 0.0000000e+00 
0.0000000e+00 -3.0709721e-06 0.0000000e+00 
4.2294076e-08 -2.9504531e-06 -3.7330685e-07 
-5.2362903e-08 -2.9421974e-06 -3.7300154e-07 
0.0000000e+00 -3.0658618e-06 0.0000000e+00 
0.0000000e+00 -3.0737660e-06 0.0000000e+00 
4.2165582e-09 8.0933631e-07 5.7500632e-08 
-6.1091099e-10 7.9133957e-07 1.2878408e-07 
-3.8130391e-08 8.1974258e-07 1.3979850e-07 
-2.0030210e-08 8.2938396e-07 5.8077067e-08 
-8.5346379e-09 8.1897161e-07 5.6718356e-08 
0.0000000e+00 8.4908044e-07 0.0000000e+00 
0.0000000e+00 8.5687674e-07 0.0000000e+00 
-1.9569480e-08 8.1596977e-07 9.9221488e-08 
1.3333357e-08 7.9226345e-07 1.0062625e-07 
0.0000000e+00 8.4986976e-07 0.0000000e+00 
0.0000000e+00 8.5713987e-07 0.0000000e+00 
-9.5688160e-09 2.6599050e-06 2.9245484e-08 
-1.0525236e-08 2.6083042e-06 8.7116021e-08 
-3.5893525e-08 2.6169841e-06 8.7499885e-08 
-2.6461308e-08 2.6654732e-06 3.1051162e-08 
-1.7954990e-08 2.6625921e-06 2.9789360e-08 
0.0000000e+00 2.7111075e-06 0.0000000e+00 
0.0000000e+00 2.7126778e-06 0.0000000e+00 
-4.1651083e-09 2.6180401e-06 7.4788247e-08 
2.0514928e-08 2.6110288e-06 7.5120099e-08 
0.0000000e+00 2.7100016e-06 0.0000000e+00 
0.0000000e+00 2.7130254e-06 0.0000000e+00 
2.1309139e-08 1.9009002e-06 1.2569939e-07 
2.7856638e-08 1.9040286e-06 2.7034514e-07 
-3.5861571e-08 1.9185434e-06 2.6609004e-07 
-2.7791449e-08 1.9108177e-06 1.2598433e-07 
-2.7761844e-09 1.9058989e-06 1.2459927e-07 
0.0000000e+00 1.8980007e-06 0.0000000e+00 
0.0000000e+00 1.9028249e-06 0.0000000e+00 
-3.9741014e-08 1.9194058e-06 2.4555317e-07 
2.5397679e-08 1.9054944e-06 2.4518826e-07 
0.0000000e+00 1.8994660e-06 0.0000000e+00 
0.0000000e+00 1.9047951e-06 0.0000000e+00 
9.4322683e-09 1.2688974e-07 2.9408010e-08 
1.5394892e-08 1.5527530e-07 5.0528673e-08 
3.9515951e-09 1.3959126e-07 4.7544624e-08 
-7.3808465e-10 1.2023858e-07 2.9084253e-08 
4.6490056e-09 1.2393272e-07 2.9100027e-08 
0.0000000e+00 1.0334740e-07 0.0000000e+00 
0.0000000e+00 1.0072797e-07 0.0000000e+00 
-1.2209465e-08 1.4197072e-07 6.2542576e-08 
-1.0626496e-09 1.5148287e-07 6.2220799e-08 
0.0000000e+00 1.0356925e-07 0.0000000e+00 
0.0000000e+00 1.0184241e-07 0.0000000e+00 
4.2553085e-09 -9.5034375e-07 -1.0729686e-08 
2.2322053e-09 -9.2702004e-07 -2.9402024e-08 
9.5346033e-09 -9.3338184e-07 -2.9214329e-08 
9.3672226e-09 -9.5375833e-07 -1.1647580e-08 
6.8031860e-09 -9.5171811e-07 -1.1038739e-08 
0.0000000e+00 -9.7922828e-07 0.0000000e+00 
0.0000000e+00 -9.8017506e-07 0.0000000e+00 
-2.6125311e-09 -9.3273303e-07 -2.2020826e-08 
-1.0199659e-08 -9.2799661e-07 -2.2273163e-08 
0.0000000e+00 -9.7820862e-07 0.0000000e+00 
0.0000000e+00 -9.7996781e-07 0.0000000e+00 
-4.7788493e-09 -7.0273052e-07 -1.8309663e-08 
-6.9445880e-09 -7.1007270e-07 -3.9414502e-08 
3.8639154e-09 -7.0677277e-07 -3.8875239e-08 
2.8578184e-09 -7.0102993e-07 -1.8304107e-08 
-9.7201280e-10 -7.0196819e-07 -1.8252287e-08 
0.0000000e+00 -6.9652975e-07 0.0000000e+00 
0.0000000e+00 -6.9583660e-07 0.0000000e+00 
7.4622903e-09 -7.0749206e-07 -4.1163506e-08 
-2.3723818e-09 -7.0949136e-07 -4.1158323e-08 
0.0000000e+00 -6.9670557e-07 0.0000000e+00 
0.0000000e+00 -6.9651821e-07 0.0000000e+00 
1.4013110e-09 -3.2797292e-08 2.0156824e-08 
2.8868588e-09 -3.8195950e-08 4.5601602e-08 
-8.9229619e-09 -3.1696757e-08 4.7367759e-08 
-6.9879817e-09 -2.8680271e-08 2.0710699e-08 
-2.8329685e-09 -3.1123289e-08 2.0177986e-08 
0.0000000e+00 -2.0317316e-08 0.0000000e+00 
0.0000000e+00 -1.8725515e-08 0.0000000e+00 
-5.6555738e-09 -3.2973777e-08 3.8275850e-08 
5.7908287e-09 -3.8280426e-08 3.8666620e-08 
0.0000000e+00 -2.0512692e-08 0.0000000e+00 
0.0000000e+00 -1.8744522e-08 0.0000000e+00 
3.9257131e-09 2.4863687e-07 2.6607804e-08 
5.6298695e-09 2.4737278e-07 5.4537590e-08 
-7.3650810e-09 2.5289995e-07 5.4716164e-08 
-5.9505822e-09 2.5265518e-07 2.6766198e-08 
-9.8013775e-10 2.5056175e-07 2.6392266e-08 
0.0000000e+00 2.5417924e-07 0.0000000e+00 
0.0000000e+00 2.5586385e-07 0.0000000e+00 
-6.7538237e-09 2.5241232e-07 4.7296844e-08 
5.9376921e-09 2.4741175e-07 4.7398597e-08 
0.0000000e+00 2.5421824e-07 0.0000000e+00 
0.0000000e+00 2.5595173e-07 0.0000000e+00 
3.2827274e-09 1.5186139e-07 7.1350348e-09 
5.6880776e-09 1.5699801e-07 1.6537573e-08 
1.4293645e-09 1.5599424e-07 1.4911521e-08 
2.7960731e-10 1.5159262e-07 6.9965016e-09 
1.8254335e-09 1.5169914e-07 7.0099668e-09 
0.0000000e+00 1.4761984e-07 0.0000000e+00 
0.0000000e+00 1.4744258e-07 0.0000000e+00 
-2.2537556e-09 1.5622179e-07 1.6086210e-08 
1.8050714e-09 1.5661553e-07 1.5868789e-08 
0.0000000e+00 1.4756539e-07 0.0000000e+00 
0.0000000e+00 1.4772404e-07 0.0000000e+00 
-1.5018530e-09 -4.3804555e-08 -1.3746404e-08 
-2.1406241e-09 -3.9251461e-08 -2.8145660e-08 
4.3558805e-09 -4.2162185e-08 -2.8366664e-08 
3.6004915e-09 -4.6035041e-08 -1.3953388e-08 
1.0541719e-09 -4.4763500e-08 -1.3701444e-08 
0.0000000e+00 -5.0570954e-08 0.0000000e+00 
0.0000000e+00 -5.1550675e-08 0.0000000e+00 
1.9161464e-09 -4.2012708e-08 -2.4345734e-08 
-4.6550204e-09 -3.9310493e-08 -2.4469063e-08 
0.0000000e+00 -5.0412332e-08 0.0000000e+00 
0.0000000e+00 -5.1454208e-08 0.0000000e+00 
-7.4649714e-10 -5.9927800e-08 -1.0279532e-08 
-9.6223474e-10 -5.6491260e-08 -1.9093150e-08 
3.1025786e-09 -5.7379506e-08 -1.8998602e-08 
2.8085418e-09 -6.0561192e-08 -1.0265636e-08 
1.0330633e-09 -6.0255353e-08 -1.0193063e-08 
0.0000000e+00 -6.3603480e-08 0.0000000e+00 
0.0000000e+00 -6.3735655e-08 0.0000000e+00 
1.2305869e-09 -5.7411043e-08 -1.7778756e-08 
-2.9242839e-09 -5.6511347e-08 -1.7803940e-08 
0.0000000e+00 -6.3361725e-08 0.0000000e+00 
0.0000000e+00 -6.3828168e-08 0.0000000e+00 
5.5749072e-10 1.7168185e-08 6.7329724e-09 
4.8365117e-10 1.5897907e-08 1.4884488e-08 
-3.2852259e-09 1.7714195e-08 1.5156253e-08 
-2.1689923e-09 1.8436147e-08 6.9133947e-09 
-8.5620505e-10 1.7720991e-08 6.7444468e-09 
0.0000000e+00 1.9485674e-08 0.0000000e+00 
0.0000000e+00 2.0001012e-08 0.0000000e+00 
-2.2277487e-09 1.7524727e-08 1.2672784e-08 
1.4319926e-09 1.5977569e-08 1.2682976e-08 
0.0000000e+00 1.9518360e-08 0.0000000e+00 
0.0000000e+00 1.9949871e-08 0.0000000e+00 
3.4146717e-09 1.5428078e-08 1.7794429e-08 
4.1547001e-09 1.6601454e-08 3.8085687e-08 
-4.6852695e-09 1.8529423e-08 3.7966135e-08 
-3.5467000e-09 1.6687286e-08 1.7857369e-08 
-7.3814496e-11 1.6028093e-08 1.7657850e-08 
0.0000000e+00 1.5253111e-08 0.0000000e+00 
0.0000000e+00 1.5978454e-08 0.0000000e+00 
-5.6507150e-09 1.8455685e-08 3.4934274e-08 
3.6968157e-09 1.6564666e-08 3.4932754e-08 
0.0000000e+00 1.5310999e-08 0.0000000e+00 
0.0000000e+00 1.6190937e-08 0.0000000e+00 
1.7618303e-09 -2.2988793e-08 6.7244472e-09 
2.3223139e-09 -2.0611747e-08 1.3541988e-08 
-8.9345786e-10 -1.9215955e-08 1.3502729e-08 
-6.5727457e-10 -2.1939254e-08 6.6723085e-09 
5.4758825e-10 -2.2423986e-08 6.6264745e-09 
0.0000000e+00 -2.4908823e-08 0.0000000e+00 
0.0000000e+00 -2.4461855e-08 0.0000000e+00 
-2.3503186e-09 -1.9377683e-08 1.1668024e-08 
7.6816764e-10 -2.0658662e-08 1.1656648e-08 
0.0000000e+00 -2.4760936e-08 0.0000000e+00 
0.0000000e+00 -2.4368340e-08 0.0000000e+00 
1.3493772e-09 -1.3352795e-08 5.7428049e-09 
2.1612949e-09 -1.3392071e-08 1.2159065e-08 
-9.4727348e-10 -1.2361625e-08 1.1875328e-08 
-8.1014107e-10 -1.2487539e-08 5.7305223e-09 
2.5739419e-10 -1.2901182e-08 5.6787623e-09 
0.0000000e+00 -1.2432541e-08 0.0000000e+00 
0.0000000e+00 -1.2082857e-08 0.0000000e+00 
-1.0089168e-09 -1.2414309e-08 1.0533586e-08 
1.8379017e-09 -1.3418328e-08 1.0510337e-08 
0.0000000e+00 -1.2489182e-08 0.0000000e+00 
0.0000000e+00 -1.2117488e-08 0.0000000e+00 
-7.4824402e-10 2.2561172e-08 -2.2849607e-09 
-8.1650220e-10 2.1386890e-08 -4.7337685e-09 
3.2940342e-10 2.0908503e-08 -4.8688871e-09 
1.1546619e-10 2.2241323e-08 -2.2777242e-09 
-3.2998584e-10 2.2400320e-08 -2.2570015e-09 
0.0000000e+00 2.4279235e-08 0.0000000e+00 
0.0000000e+00 2.4112348e-08 0.0000000e+00 
1.0458695e-09 2.0955262e-08 -4.1566151e-09 
-9.4517047e-11 2.1370600e-08 -4.1794523e-09 
0.0000000e+00 2.4159290e-08 0.0000000e+00 
0.0000000e+00 2.4058933e-08 0.0000000e+00 
-1.9033251e-09 2.1958751e-08 -5.2779892e-09 
-2.2777547e-09 1.7906935e-08 -1.1063077e-08 
3.8066450e-10 1.6805778e-08 -1.1261480e-08 
1.2537338e-10 2.1162499e-08 -5.2462332e-09 
-8.8774066e-10 2.1574920e-08 -5.2018843e-09 
0.0000000e+00 2.5402379e-08 0.0000000e+00 
0.0000000e+00 2.4988918e-08 0.0000000e+00 
2.7725504e-09 1.7016804e-08 -9.6670085e-09 
1.0064503e-10 1.8003089e-08 -9.6888044e-09 
0.0000000e+00 2.5122104e-08 0.0000000e+00 
0.0000000e+00 2.4865138e-08 0.0000000e+00 
-8.3679508e-10 -1.4877924e-08 -2.0198372e-09 
-9.4644304e-10 -1.5859785e-08 -3.9767301e-09 
-5.2044608e-11 -1.6353676e-08 -3.9680725e-09 
-1.0093795e-10 -1.5219948e-08 -2.0334943e-09 
-4.5374918e-10 -1.5032645e-08 -2.0010458e-09 
0.0000000e+00 -1.4395168e-08 0.0000000e+00 
0.0000000e+00 -1.4552921e-08 0.0000000e+00 
5.6849270e-10 -1.6296640e-08 -3.3768734e-09 
-3.2137046e-10 -1.5871928e-08 -3.3808636e-09 
0.0000000e+00 -1.4450032e-08 0.0000000e+00 
0.0000000e+00 -1.4578388e-08 0.0000000e+00 
0.0000000e+00 -5.0120911e-05 0.0000000e+00 
0.0000000e+00 -6.9749353e-09 0.0000000e+00 
-1.1287221e-11 -3.5106268e-08 -1.1651622e-12 
1.5019050e-11 -3.5380904e-08 -4.4770312e-12 