# vtk DataFile Version 4.0
vtk output
ASCII
DATASET UNSTRUCTURED_GRID
POINTS 1827 float
0.0000000e+00 0.0000000e+00 0.0000000e+00 
0.0000000e+00 0.0000000e+00 2.0000000e+01 
3.4700000e+00 0.0000000e+00 0.0000000e+00 
3.4700000e+00 0.0000000e+00 2.0000000e+01 
3.4700000e+00 1.0000000e+00 0.0000000e+00 
3.4700000e+00 1.0000000e+00 2.0000000e+01 
0.0000000e+00 1.0000000e+00 0.0000000e+00 
0.0000000e+00 1.0000000e+00 2.0000000e+01 
1.2500000e+00 2.5000000e+00 0.0000000e+00 
1.2500000e+00 2.5000000e+00 1.1700000e-01 
7.5000000e-01 2.5000000e+00 1.1700000e-01 
7.5000000e-01 2.5000000e+00 0.0000000e+00 
0.0000000e+00 2.5000000e+00 0.0000000e+00 
0.0000000e+00 2.5000000e+00 1.1700000e-01 
1.2500000e+00 2.8000000e+00 1.1700000e-01 
1.2500000e+00 2.8000000e+00 0.0000000e+00 
0.0000000e+00 2.8000000e+00 0.0000000e+00 
0.0000000e+00 2.8000000e+00 1.1700000e-01 
7.5000000e-01 2.5000000e+00 3.8299999e-01 
1.2500000e+00 2.5000000e+00 3.8299999e-01 
1.2500000e+00 2.5000000e+00 6.1699998e-01 
7.5000000e-01 2.5000000e+00 6.1699998e-01 
7.5000000e-01 2.5000000e+00 5.0000000e-01 
0.0000000e+00 2.5000000e+00 3.8299999e-01 
0.0000000e+00 2.5000000e+00 6.1699998e-01 
1.2500000e+00 2.8000000e+00 6.1699998e-01 
1.2500000e+00 2.8000000e+00 3.8299999e-01 
0.0000000e+00 2.8000000e+00 3.8299999e-01 
0.0000000e+00 2.8000000e+00 6.1699998e-01 
7.5000000e-01 2.5000000e+00 8.8300002e-01 
1.2500000e+00 2.5000000e+00 8.8300002e-01 
1.2500000e+00 2.5000000e+00 1.1170000e+00 
7.5000000e-01 2.5000000e+00 1.1170000e+00 
7.5000000e-01 2.5000000e+00 1.0000000e+00 
0.0000000e+00 2.5000000e+00 8.8300002e-01 
0.0000000e+00 2.5000000e+00 1.1170000e+00 
1.2500000e+00 2.8000000e+00 1.1170000e+00 
1.2500000e+00 2.8000000e+00 8.8300002e-01 
0.0000000e+00 2.8000000e+00 8.8300002e-01 
0.0000000e+00 2.8000000e+00 1.1170000e+00 
7.5000000e-01 2.5000000e+00 1.3830000e+00 
1.2500000e+00 2.5000000e+00 1.3830000e+00 
1.2500000e+00 2.5000000e+00 1.6170000e+00 
7.5000000e-01 2.5000000e+00 1.6170000e+00 
7.5000000e-01 2.5000000e+00 1.5000000e+00 
0.0000000e+00 2.5000000e+00 1.3830000e+00 
0.0000000e+00 2.5000000e+00 1.6170000e+00 
1.2500000e+00 2.8000000e+00 1.6170000e+00 
1.2500000e+00 2.8000000e+00 1.3830000e+00 
0.0000000e+00 2.8000000e+00 1.3830000e+00 
0.0000000e+00 2.8000000e+00 1.6170000e+00 
7.5000000e-01 2.5000000e+00 1.8830000e+00 
1.2500000e+00 2.5000000e+00 1.8830000e+00 
1.2500000e+00 2.5000000e+00 2.1170001e+00 
7.5000000e-01 2.5000000e+00 2.1170001e+00 
7.5000000e-01 2.5000000e+00 2.0000000e+00 
0.0000000e+00 2.5000000e+00 1.8830000e+00 
0.0000000e+00 2.5000000e+00 2.1170001e+00 
1.2500000e+00 2.8000000e+00 2.1170001e+00 
1.2500000e+00 2.8000000e+00 1.8830000e+00 
0.0000000e+00 2.8000000e+00 1.8830000e+00 
0.0000000e+00 2.8000000e+00 2.1170001e+00 
7.5000000e-01 2.5000000e+00 2.3829999e+00 
1.2500000e+00 2.5000000e+00 2.3829999e+00 
1.2500000e+00 2.5000000e+00 2.6170001e+00 
7.5000000e-01 2.5000000e+00 2.6170001e+00 
7.5000000e-01 2.5000000e+00 2.5000000e+00 
0.0000000e+00 2.5000000e+00 2.3829999e+00 
0.0000000e+00 2.5000000e+00 2.6170001e+00 
1.2500000e+00 2.8000000e+00 2.6170001e+00 
1.2500000e+00 2.8000000e+00 2.3829999e+00 
0.0000000e+00 2.8000000e+00 2.3829999e+00 
0.0000000e+00 2.8000000e+00 2.6170001e+00 
7.5000000e-01 2.5000000e+00 2.8829999e+00 
1.2500000e+00 2.5000000e+00 2.8829999e+00 
1.2500000e+00 2.5000000e+00 3.1170001e+00 
7.5000000e-01 2.5000000e+00 3.1170001e+00 
7.5000000e-01 2.5000000e+00 3.0000000e+00 
0.0000000e+00 2.5000000e+00 2.8829999e+00 
0.0000000e+00 2.5000000e+00 3.1170001e+00 
1.2500000e+00 2.8000000e+00 3.1170001e+00 
1.2500000e+00 2.8000000e+00 2.8829999e+00 
0.0000000e+00 2.8000000e+00 2.8829999e+00 
0.0000000e+00 2.8000000e+00 3.1170001e+00 
7.5000000e-01 2.5000000e+00 3.3829999e+00 
1.2500000e+00 2.5000000e+00 3.3829999e+00 
1.2500000e+00 2.5000000e+00 3.6170001e+00 
7.5000000e-01 2.5000000e+00 3.6170001e+00 
7.5000000e-01 2.5000000e+00 3.5000000e+00 
0.0000000e+00 2.5000000e+00 3.3829999e+00 
0.0000000e+00 2.5000000e+00 3.6170001e+00 
1.2500000e+00 2.8000000e+00 3.6170001e+00 
1.2500000e+00 2.8000000e+00 3.3829999e+00 
0.0000000e+00 2.8000000e+00 3.3829999e+00 
0.0000000e+00 2.8000000e+00 3.6170001e+00 
7.5000000e-01 2.5000000e+00 3.8829999e+00 
1.2500000e+00 2.5000000e+00 3.8829999e+00 
1.2500000e+00 2.5000000e+00 4.1170001e+00 
7.5000000e-01 2.5000000e+00 4.1170001e+00 
7.5000000e-01 2.5000000e+00 4.0000000e+00 
0.0000000e+00 2.5000000e+00 3.8829999e+00 
0.0000000e+00 2.5000000e+00 4.1170001e+00 
1.2500000e+00 2.8000000e+00 4.1170001e+00 
1.2500000e+00 2.8000000e+00 3.8829999e+00 
0.0000000e+00 2.8000000e+00 3.8829999e+00 
0.0000000e+00 2.8000000e+00 4.1170001e+00 
7.5000000e-01 2.5000000e+00 4.3829999e+00 
1.2500000e+00 2.5000000e+00 4.3829999e+00 
1.2500000e+00 2.5000000e+00 4.6170001e+00 
7.5000000e-01 2.5000000e+00 4.6170001e+00 
7.5000000e-01 2.5000000e+00 4.5000000e+00 
0.0000000e+00 2.5000000e+00 4.3829999e+00 
0.0000000e+00 2.5000000e+00 4.6170001e+00 
1.2500000e+00 2.8000000e+00 4.6170001e+00 
1.2500000e+00 2.8000000e+00 4.3829999e+00 
0.0000000e+00 2.8000000e+00 4.3829999e+00 
0.0000000e+00 2.8000000e+00 4.6170001e+00 
7.5000000e-01 2.5000000e+00 4.8829999e+00 
1.2500000e+00 2.5000000e+00 4.8829999e+00 
1.2500000e+00 2.5000000e+00 5.1170001e+00 
7.5000000e-01 2.5000000e+00 5.1170001e+00 
7.5000000e-01 2.5000000e+00 5.0000000e+00 
0.0000000e+00 2.5000000e+00 4.8829999e+00 
0.0000000e+00 2.5000000e+00 5.1170001e+00 
1.2500000e+00 2.8000000e+00 5.1170001e+00 
1.2500000e+00 2.8000000e+00 4.8829999e+00 
0.0000000e+00 2.8000000e+00 4.8829999e+00 
0.0000000e+00 2.8000000e+00 5.1170001e+00 
7.5000000e-01 2.5000000e+00 5.3829999e+00 
1.2500000e+00 2.5000000e+00 5.3829999e+00 
1.2500000e+00 2.5000000e+00 5.6170001e+00 
7.5000000e-01 2.5000000e+00 5.6170001e+00 
7.5000000e-01 2.5000000e+00 5.5000000e+00 
0.0000000e+00 2.5000000e+00 5.3829999e+00 
0.0000000e+00 2.5000000e+00 5.6170001e+00 
1.2500000e+00 2.8000000e+00 5.6170001e+00 
1.2500000e+00 2.8000000e+00 5.3829999e+00 
0.0000000e+00 2.8000000e+00 5.3829999e+00 
0.0000000e+00 2.8000000e+00 5.6170001e+00 
7.5000000e-01 2.5000000e+00 5.8829999e+00 
1.2500000e+00 2.5000000e+00 5.8829999e+00 
1.2500000e+00 2.5000000e+00 6.1170001e+00 
7.5000000e-01 2.5000000e+00 6.1170001e+00 
7.5000000e-01 2.5000000e+00 6.0000000e+00 
0.0000000e+00 2.5000000e+00 5.8829999e+00 
0.0000000e+00 2.5000000e+00 6.1170001e+00 
1.2500000e+00 2.8000000e+00 6.1170001e+00 
1.2500000e+00 2.8000000e+00 5.8829999e+00 
0.0000000e+00 2.8000000e+00 5.8829999e+00 
0.0000000e+00 2.8000000e+00 6.1170001e+00 
7.5000000e-01 2.5000000e+00 6.3829999e+00 
1.2500000e+00 2.5000000e+00 6.3829999e+00 
1.2500000e+00 2.5000000e+00 6.6170001e+00 
7.5000000e-01 2.5000000e+00 6.6170001e+00 
7.5000000e-01 2.5000000e+00 6.5000000e+00 
0.0000000e+00 2.5000000e+00 6.3829999e+00 
0.0000000e+00 2.5000000e+00 6.6170001e+00 
1.2500000e+00 2.8000000e+00 6.6170001e+00 
1.2500000e+00 2.8000000e+00 6.3829999e+00 
0.0000000e+00 2.8000000e+00 6.3829999e+00 
0.0000000e+00 2.8000000e+00 6.6170001e+00 
7.5000000e-01 2.5000000e+00 6.8829999e+00 
1.2500000e+00 2.5000000e+00 6.8829999e+00 
1.2500000e+00 2.5000000e+00 7.1170001e+00 
7.5000000e-01 2.5000000e+00 7.1170001e+00 
7.5000000e-01 2.5000000e+00 7.0000000e+00 
0.0000000e+00 2.5000000e+00 6.8829999e+00 
0.0000000e+00 2.5000000e+00 7.1170001e+00 
1.2500000e+00 2.8000000e+00 7.1170001e+00 
1.2500000e+00 2.8000000e+00 6.8829999e+00 
0.0000000e+00 2.8000000e+00 6.8829999e+00 
0.0000000e+00 2.8000000e+00 7.1170001e+00 
7.5000000e-01 2.5000000e+00 7.3829999e+00 
1.2500000e+00 2.5000000e+00 7.3829999e+00 
1.2500000e+00 2.5000000e+00 7.6170001e+00 
7.5000000e-01 2.5000000e+00 7.6170001e+00 
7.5000000e-01 2.5000000e+00 7.5000000e+00 
0.0000000e+00 2.5000000e+00 7.3829999e+00 
0.0000000e+00 2.5000000e+00 7.6170001e+00 
1.2500000e+00 2.8000000e+00 7.6170001e+00 
1.2500000e+00 2.8000000e+00 7.3829999e+00 
0.0000000e+00 2.8000000e+00 7.3829999e+00 
0.0000000e+00 2.8000000e+00 7.6170001e+00 
7.5000000e-01 2.5000000e+00 7.8829999e+00 
1.2500000e+00 2.5000000e+00 7.8829999e+00 
1.2500000e+00 2.5000000e+00 8.1169996e+00 
7.5000000e-01 2.5000000e+00 8.1169996e+00 
7.5000000e-01 2.5000000e+00 8.0000000e+00 
0.0000000e+00 2.5000000e+00 7.8829999e+00 
0.0000000e+00 2.5000000e+00 8.1169996e+00 
1.2500000e+00 2.8000000e+00 8.1169996e+00 
1.2500000e+00 2.8000000e+00 7.8829999e+00 
0.0000000e+00 2.8000000e+00 7.8829999e+00 
0.0000000e+00 2.8000000e+00 8.1169996e+00 
7.5000000e-01 2.5000000e+00 8.3830004e+00 
1.2500000e+00 2.5000000e+00 8.3830004e+00 
1.2500000e+00 2.5000000e+00 8.6169996e+00 
7.5000000e-01 2.5000000e+00 8.6169996e+00 
7.5000000e-01 2.5000000e+00 8.5000000e+00 
0.0000000e+00 2.5000000e+00 8.3830004e+00 
0.0000000e+00 2.5000000e+00 8.6169996e+00 
1.2500000e+00 2.8000000e+00 8.6169996e+00 
1.2500000e+00 2.8000000e+00 8.3830004e+00 
0.0000000e+00 2.8000000e+00 8.3830004e+00 
0.0000000e+00 2.8000000e+00 8.6169996e+00 
7.5000000e-01 2.5000000e+00 8.8830004e+00 
1.2500000e+00 2.5000000e+00 8.8830004e+00 
1.2500000e+00 2.5000000e+00 9.1169996e+00 
7.5000000e-01 2.5000000e+00 9.1169996e+00 
7.5000000e-01 2.5000000e+00 9.0000000e+00 
0.0000000e+00 2.5000000e+00 8.8830004e+00 
0.0000000e+00 2.5000000e+00 9.1169996e+00 
1.2500000e+00 2.8000000e+00 9.1169996e+00 
1.2500000e+00 2.8000000e+00 8.8830004e+00 
0.0000000e+00 2.8000000e+00 8.8830004e+00 
0.0000000e+00 2.8000000e+00 9.1169996e+00 
7.5000000e-01 2.5000000e+00 9.3830004e+00 
1.2500000e+00 2.5000000e+00 9.3830004e+00 
1.2500000e+00 2.5000000e+00 9.6169996e+00 
7.5000000e-01 2.5000000e+00 9.6169996e+00 
7.5000000e-01 2.5000000e+00 9.5000000e+00 
0.0000000e+00 2.5000000e+00 9.3830004e+00 
0.0000000e+00 2.5000000e+00 9.6169996e+00 
1.2500000e+00 2.8000000e+00 9.6169996e+00 
1.2500000e+00 2.8000000e+00 9.3830004e+00 
0.0000000e+00 2.8000000e+00 9.3830004e+00 
0.0000000e+00 2.8000000e+00 9.6169996e+00 
7.5000000e-01 2.5000000e+00 9.8830004e+00 
1.2500000e+00 2.5000000e+00 9.8830004e+00 
1.2500000e+00 2.5000000e+00 1.0117000e+01 
[...]
POINT_DATA 1827
FIELD FieldData 2
DISPLACEMENT 3 1827  float
0.0000000e+00 0.0000000e+00 0.0000000e+00 
0.0000000e+00 0.0000000e+00 0.0000000e+00 
0.0000000e+00 0.0000000e+00 0.0000000e+00 
0.0000000e+00 0.0000000e+00 0.0000000e+00 
0.0000000e+00 -1.9831867e-05 0.0000000e+00 
0.0000000e+00 -8.8700699e-07 0.0000000e+00 
0.0000000e+00 -2.1788075e-05 0.0000000e+00 
0.0000000e+00 -3.0480062e-06 0.0000000e+00 
0.0000000e+00 -1.9429480e-07 0.0000000e+00 
-2.8029856e-08 -2.1284664e-07 -1.5659973e-08 
-2.3479485e-09 2.4228601e-08 -7.1859896e-09 
0.0000000e+00 3.8542346e-08 0.0000000e+00 
0.0000000e+00 -2.8093629e-08 0.0000000e+00 
0.0000000e+00 -3.1028279e-08 0.0000000e+00 
2.3430413e-08 -1.6363431e-07 4.0048032e-09 
0.0000000e+00 -1.6430720e-07 0.0000000e+00 
0.0000000e+00 -2.7359995e-08 0.0000000e+00 
0.0000000e+00 -3.0586492e-08 0.0000000e+00 
-1.2936232e-07 -1.9044984e-06 2.6791295e-07 
-2.0322736e-07 -2.4423787e-06 4.5502347e-07 
-2.8162398e-07 -2.3328168e-06 4.5119768e-07 
-2.0292070e-07 -1.8119362e-06 2.6754208e-07 
-1.6125963e-07 -1.8529061e-06 2.6486973e-07 
0.0000000e+00 -1.6129757e-06 0.0000000e+00 
0.0000000e+00 -1.5622186e-06 0.0000000e+00 
4.2582897e-08 -2.3061102e-06 3.2061683e-07 
1.2905862e-07 -2.4103845e-06 3.1929829e-07 
0.0000000e+00 -1.6107460e-06 0.0000000e+00 
0.0000000e+00 -1.5740353e-06 0.0000000e+00 
-1.2109091e-07 9.5051037e-06 1.5313373e-07 
-1.5426407e-07 9.0193289e-06 2.9536349e-07 
-2.2186603e-07 9.2002092e-06 2.9098214e-07 
-1.6508882e-07 9.6076083e-06 1.5820441e-07 
-1.4100615e-07 9.5578653e-06 1.5163549e-07 
0.0000000e+00 9.8694627e-06 0.0000000e+00 
0.0000000e+00 9.9118042e-06 0.0000000e+00 
5.8702540e-08 9.1938819e-06 1.1617104e-07 
1.0952102e-07 9.0624835e-06 1.1789523e-07 
0.0000000e+00 9.8673218e-06 0.0000000e+00 
0.0000000e+00 9.9082745e-06 0.0000000e+00 
-5.1008481e-08 1.8864193e-05 3.7122942e-07 
-4.5619515e-08 1.8596074e-05 7.4942409e-07 
-2.3568704e-07 1.8649351e-05 7.5899254e-07 
-1.8786307e-07 1.8907022e-05 3.7960726e-07 
-1.1761404e-07 1.8880562e-05 3.7171972e-07 
0.0000000e+00 1.9122614e-05 0.0000000e+00 
0.0000000e+00 1.9144203e-05 0.0000000e+00 
-6.5775538e-08 1.8654364e-05 6.7624194e-07 
1.0898716e-07 1.8601626e-05 6.8007409e-07 
0.0000000e+00 1.9120675e-05 0.0000000e+00 
0.0000000e+00 1.9148354e-05 0.0000000e+00 
-9.8001692e-08 1.8808259e-05 -6.8011468e-09 
-1.1674869e-07 1.8504215e-05 -3.9408818e-08 
-1.0293360e-07 1.8496285e-05 -4.6877119e-08 
-8.9073481e-08 1.8800805e-05 -4.9553255e-09 
-9.1318199e-08 1.8805924e-05 -5.7185763e-09 
0.0000000e+00 1.9044715e-05 0.0000000e+00 
0.0000000e+00 1.9036841e-05 0.0000000e+00 
7.6055400e-08 1.8509296e-05 -3.1836436e-08 
6.1494198e-08 1.8516725e-05 -3.1869426e-08 
0.0000000e+00 1.9035919e-05 0.0000000e+00 
0.0000000e+00 1.9029712e-05 0.0000000e+00 
-1.1813955e-07 1.5397405e-05 -2.4062334e-07 
-1.8207696e-07 1.5223903e-05 -5.8288924e-07 
-1.9838854e-08 1.5172595e-05 -5.8712601e-07 
-1.0132845e-08 1.5355297e-05 -2.4700810e-07 
-6.0850304e-08 1.5380865e-05 -2.4127831e-07 
0.0000000e+00 1.5413443e-05 0.0000000e+00 
0.0000000e+00 1.5395612e-05 0.0000000e+00 
8.9380102e-08 1.5191046e-05 -5.0731842e-07 
-6.2356115e-08 1.5238596e-05 -5.1004855e-07 
0.0000000e+00 1.5411191e-05 0.0000000e+00 
0.0000000e+00 1.5393787e-05 0.0000000e+00 
-1.1716833e-07 1.6380109e-05 -9.9805284e-08 
-1.7346058e-07 1.6147120e-05 -2.1059118e-07 
-1.1701149e-07 1.6190486e-05 -2.0411494e-07 
-7.6536807e-08 1.6402893e-05 -9.9042460e-08 
-9.4126641e-08 1.6394602e-05 -9.8736933e-08 
0.0000000e+00 1.6490189e-05 0.0000000e+00 
0.0000000e+00 1.6502197e-05 0.0000000e+00 
3.0971989e-08 1.6195769e-05 -2.4112779e-07 
-2.2901553e-08 1.6168036e-05 -2.4135406e-07 
0.0000000e+00 1.6494334e-05 0.0000000e+00 
0.0000000e+00 1.6501081e-05 0.0000000e+00 
-3.2352805e-08 2.1884503e-05 2.7801659e-07 
-6.3619147e-08 2.1583184e-05 5.3126132e-07 
-1.3234259e-07 2.1724778e-05 5.3396201e-07 
-1.2034924e-07 2.1962971e-05 2.7885903e-07 
-7.3770536e-08 2.1923710e-05 2.7450227e-07 
0.0000000e+00 2.2108145e-05 0.0000000e+00 
0.0000000e+00 2.2137563e-05 0.0000000e+00 
6.3778618e-09 2.1720252e-05 3.8512954e-07 
1.2135047e-07 2.1611586e-05 3.8532724e-07 
0.0000000e+00 2.2095503e-05 0.0000000e+00 
0.0000000e+00 2.2125001e-05 0.0000000e+00 
3.9820794e-08 2.7616928e-05 -3.3581131e-08 
7.3445896e-08 2.7657054e-05 -7.0453261e-08 
9.6728108e-08 2.7698958e-05 -8.5315705e-08 
5.9359461e-08 2.7645210e-05 -3.7415063e-08 
4.9632373e-08 2.7632237e-05 -3.5648242e-08 
0.0000000e+00 2.7545448e-05 0.0000000e+00 
0.0000000e+00 2.7565458e-05 0.0000000e+00 
4.3324516e-08 2.7699230e-05 -1.2278119e-07 
2.1526974e-08 2.7664517e-05 -1.2228939e-07 
0.0000000e+00 2.7554721e-05 0.0000000e+00 
0.0000000e+00 2.7563725e-05 0.0000000e+00 
5.3711142e-09 3.1435848e-05 -3.5061873e-07 
2.0168567e-09 3.1674354e-05 -7.4072960e-07 
1.8208355e-07 3.1630883e-05 -7.3353721e-07 
1.4043557e-07 3.1402273e-05 -3.5116250e-07 
7.1517270e-08 3.1416912e-05 -3.4756977e-07 
0.0000000e+00 3.1280149e-05 0.0000000e+00 
0.0000000e+00 3.1265477e-05 0.0000000e+00 
4.2461235e-08 3.1619711e-05 -6.6964714e-07 
-1.3491004e-07 3.1663236e-05 -6.6955772e-07 
0.0000000e+00 3.1287087e-05 0.0000000e+00 
0.0000000e+00 3.1264575e-05 0.0000000e+00 
2.2832800e-09 3.1954347e-05 4.2044533e-08 
-2.1901986e-08 3.2099757e-05 9.3477141e-08 
-3.3189519e-08 3.2108859e-05 9.5594288e-08 
-1.3615024e-08 3.1960160e-05 4.3631360e-08 
-6.3355556e-09 3.1959662e-05 4.2478057e-08 
0.0000000e+00 3.1878964e-05 0.0000000e+00 
0.0000000e+00 3.1883646e-05 0.0000000e+00 
-1.0184571e-07 3.2100856e-05 8.3573852e-08 
-7.7324046e-08 3.2092375e-05 8.0478749e-08 
0.0000000e+00 3.1887412e-05 0.0000000e+00 
0.0000000e+00 3.1889052e-05 0.0000000e+00 
7.9217344e-08 3.0044925e-05 8.6226869e-08 
9.1678572e-08 3.0327881e-05 1.5595758e-07 
5.9620646e-08 3.0307336e-05 1.6685928e-07 
4.8208669e-08 3.0040246e-05 8.7407393e-08 
6.0965370e-08 3.0042262e-05 8.6408576e-08 
0.0000000e+00 2.9940822e-05 0.0000000e+00 
0.0000000e+00 2.9942930e-05 0.0000000e+00 
-9.2423420e-08 3.0294450e-05 1.7433585e-07 
-5.4865886e-08 3.0303350e-05 1.7427023e-07 
0.0000000e+00 2.9946241e-05 0.0000000e+00 
0.0000000e+00 2.9945302e-05 0.0000000e+00 
8.5526260e-08 2.5820316e-05 3.5709178e-07 
1.1809083e-07 2.5837853e-05 8.2748198e-07 
-8.7184361e-08 2.5822572e-05 8.3186569e-07 
-7.6255773e-08 2.5825520e-05 3.5466957e-07 
3.5627490e-09 2.5826283e-05 3.5279916e-07 
0.0000000e+00 2.5893311e-05 0.0000000e+00 
0.0000000e+00 2.5894764e-05 0.0000000e+00 
-9.7733235e-08 2.5826490e-05 8.0796855e-07 
1.2146153e-07 2.5823048e-05 8.0974672e-07 
0.0000000e+00 2.5884945e-05 0.0000000e+00 
0.0000000e+00 2.5895723e-05 0.0000000e+00 
8.6630408e-08 2.1901216e-05 2.5972466e-07 
1.3110461e-07 2.1987018e-05 5.6269880e-07 
-4.1005062e-09 2.2021188e-05 5.6105142e-07 
-1.7351306e-08 2.1921684e-05 2.5851858e-07 
3.3641555e-08 2.1912449e-05 2.5646213e-07 
0.0000000e+00 2.1881313e-05 0.0000000e+00 
0.0000000e+00 2.1887956e-05 0.0000000e+00 
-7.0543713e-08 2.2012633e-05 5.1163062e-07 
6.7227028e-08 2.1983053e-05 5.1283916e-07 
0.0000000e+00 2.1880929e-05 0.0000000e+00 
0.0000000e+00 2.1892023e-05 0.0000000e+00 
4.3142624e-08 1.9346206e-05 2.3513994e-07 
6.4738217e-08 1.9319894e-05 5.6742687e-07 
-9.8151432e-08 1.9342357e-05 5.6859670e-07 
-6.1535758e-08 1.9364223e-05 2.3360327e-07 
-8.4923730e-09 1.9357822e-05 2.3200602e-07 
0.0000000e+00 1.9344830e-05 0.0000000e+00 
0.0000000e+00 1.9352572e-05 0.0000000e+00 
-7.5738186e-08 1.9345998e-05 5.2261504e-07 
7.3457485e-08 1.9323548e-05 5.2319194e-07 
0.0000000e+00 1.9345862e-05 0.0000000e+00 
0.0000000e+00 1.9355848e-05 0.0000000e+00 
-2.4551747e-08 1.8484548e-05 -9.0846967e-08 
-2.7098189e-08 1.8314962e-05 -1.5732333e-07 
1.4240483e-08 1.8286079e-05 -1.6637574e-07 
3.9235166e-09 1.8461524e-05 -9.4151325e-08 
-8.5438350e-09 1.8475461e-05 -9.1370964e-08 
0.0000000e+00 1.8532510e-05 0.0000000e+00 
0.0000000e+00 1.8522502e-05 0.0000000e+00 
9.4772716e-08 1.8302810e-05 -1.2860430e-07 
6.3374749e-08 1.8328998e-05 -1.2808421e-07 
0.0000000e+00 1.8525128e-05 0.0000000e+00 
0.0000000e+00 1.8518283e-05 0.0000000e+00 
-9.2140418e-08 1.5208264e-05 -3.5094502e-07 
-9.3500240e-08 1.4954016e-05 -7.0366872e-07 
4.9821917e-08 1.4834167e-05 -7.1256829e-07 
2.9617043e-08 1.5138056e-05 -3.5199270e-07 
-3.0004419e-08 1.5172779e-05 -3.4741305e-07 
0.0000000e+00 1.5384232e-05 0.0000000e+00 
0.0000000e+00 1.5347850e-05 0.0000000e+00 
2.0344892e-07 1.4859153e-05 -5.6921755e-07 
4.2256982e-08 1.4957334e-05 -5.6858715e-07 
0.0000000e+00 1.5366224e-05 0.0000000e+00 
0.0000000e+00 1.5336984e-05 0.0000000e+00 
-1.0512973e-07 1.1261494e-06 6.8039661e-08 
-1.3701688e-07 7.3968084e-07 6.4878407e-08 
-1.5487522e-07 5.5608677e-07 6.1257978e-08 
-1.2799080e-07 1.0253775e-06 7.0637562e-08 
-1.1349648e-07 1.0800835e-06 6.9890135e-08 
0.0000000e+00 1.4068954e-06 0.0000000e+00 
0.0000000e+00 1.3642277e-06 0.0000000e+00 
9.9254528e-08 6.0188825e-07 2.4105472e-07 
1.1505109e-07 7.3165791e-07 2.4213540e-07 
0.0000000e+00 1.3941468e-06 0.0000000e+00 
0.0000000e+00 1.3580614e-06 0.0000000e+00 
6.6888774e-08 -2.8890823e-05 -1.1254949e-07 
8.7212868e-08 -2.8655522e-05 -1.9297832e-07 
1.1523350e-07 -2.9009041e-05 -1.8768239e-07 
7.6597502e-08 -2.9111028e-05 -1.0881426e-07 
6.9642567e-08 -2.9003704e-05 -1.0654497e-07 
0.0000000e+00 -2.9048932e-05 0.0000000e+00 
0.0000000e+00 -2.9140043e-05 0.0000000e+00 
-2.8887739e-09 -2.8977322e-05 1.6799625e-07 
-1.6262238e-08 -2.8707640e-05 1.7164821e-07 
0.0000000e+00 -2.9068851e-05 0.0000000e+00 
0.0000000e+00 -2.9131930e-05 0.0000000e+00 
1.7719776e-07 -8.3290375e-05 1.4246619e-07 
2.2681299e-07 -8.2778373e-05 1.8890161e-07 
1.7495726e-07 -8.3254308e-05 1.8927645e-07 
1.1032008e-07 -8.3546976e-05 1.4237622e-07 
1.3914001e-07 -8.3424144e-05 1.4470450e-07 
0.0000000e+00 -8.3523664e-05 0.0000000e+00 
0.0000000e+00 -8.3637773e-05 0.0000000e+00 
-7.8390002e-08 -8.3212166e-05 6.4617791e-07 
-1.4543982e-08 -8.2878309e-05 6.4411392e-07 
0.0000000e+00 -8.3551044e-05 0.0000000e+00 
0.0000000e+00 -8.3634521e-05 0.0000000e+00 
3.8769952e-07 -1.6545613e-04 -5.0721360e-07 
5.3127167e-07 -1.6355734e-04 -8.3757664e-07 
6.3929917e-07 -1.6430931e-04 -8.2278694e-07 
4.6371309e-07 -1.6599600e-04 -5.0622384e-07 
4.1004861e-07 -1.6572361e-04 -4.8963693e-07 
0.0000000e+00 -1.6660841e-04 0.0000000e+00 
0.0000000e+00 -1.6682899e-04 0.0000000e+00 
-4.0539433e-07 -1.6435927e-04 -1.1867234e-09 
-5.2324367e-07 -1.6372051e-04 2.1628475e-09 
0.0000000e+00 -1.6655144e-04 0.0000000e+00 
0.0000000e+00 -1.6672065e-04 0.0000000e+00 
4.0771215e-07 -2.6972927e-04 8.9786641e-07 
5.3326005e-07 -2.6827218e-04 1.7163909e-06 
1.2205747e-07 -2.6866476e-04 1.7655365e-06 
5.5690688e-08 -2.6995325e-04 9.3864020e-07 
2.0957023e-07 -2.6988133e-04 9.1188662e-07 
0.0000000e+00 -2.7015863e-04 0.0000000e+00 
0.0000000e+00 -2.7030078e-04 0.0000000e+00 
-6.4560464e-07 -2.6872355e-04 2.0829698e-06 
-2.2047919e-07 -2.6845702e-04 2.0850568e-06 
0.0000000e+00 -2.7018090e-04 0.0000000e+00 
0.0000000e+00 -2.7023419e-04 0.0000000e+00 
5.6514364e-07 -3.5056638e-04 -9.0747722e-07 
7.6565993e-07 -3.4727095e-04 -1.6545098e-06 
1.1026485e-06 -3.4778021e-04 -1.5915114e-06 
8.2700916e-07 -3.5086877e-04 -8.3015141e-07 
6.6151131e-07 -3.5080340e-04 -8.5540404e-07 
0.0000000e+00 -3.5211010e-04 0.0000000e+00 
0.0000000e+00 -3.5225431e-04 0.0000000e+00 
-7.3986246e-07 -3.4795568e-04 -1.0831458e-06 
-1.0643172e-06 -3.4756167e-04 -1.0789649e-06 
0.0000000e+00 -3.5206007e-04 0.0000000e+00 
0.0000000e+00 -3.5218048e-04 0.0000000e+00 
1.2519659e-07 -3.1299863e-04 -1.0703901e-06 
1.8389528e-07 -3.1126410e-04 -2.3176256e-06 
8.0009943e-07 -3.1093080e-04 -2.2978872e-06 
5.9081430e-07 -3.1273541e-04 -1.0339853e-06 
3.3641115e-07 -3.1291554e-04 -1.0456571e-06 
0.0000000e+00 -3.1367317e-04 0.0000000e+00 
0.0000000e+00 -3.1357468e-04 0.0000000e+00 
-2.1941612e-07 -3.1109469e-04 -2.6109851e-06 
-8.1867904e-07 -3.1136582e-04 -2.6169375e-06 
0.0000000e+00 -3.1358670e-04 0.0000000e+00 
0.0000000e+00 -3.1355509e-04 0.0000000e+00 
9.6511805e-08 -1.9453496e-04 -4.7054314e-07 
1.5422287e-07 -1.9330031e-04 -1.3217239e-06 
5.7808217e-07 -1.9255116e-04 -1.3001594e-06 
4.0561989e-07 -1.9396016e-04 -4.4007120e-07 
2.3362692e-07 -1.9426778e-04 -4.5827935e-07 
0.0000000e+00 -1.9480448e-04 0.0000000e+00 
0.0000000e+00 -1.9449185e-04 0.0000000e+00 
-1.6192887e-07 -1.9272194e-04 -2.0801926e-06 
-5.8853141e-07 -1.9335400e-04 -2.0880004e-06 
0.0000000e+00 -1.9467580e-04 0.0000000e+00 
0.0000000e+00 -1.9452572e-04 0.0000000e+00 
2.8538096e-07 -8.6171094e-05 5.1677927e-07 
4.2796114e-07 -8.5366228e-05 1.1299746e-06 
1.9654809e-07 -8.4443876e-05 1.1445790e-06 
1.3965015e-07 -8.5605905e-05 5.2755195e-07 
2.0499451e-07 -8.5909291e-05 5.0966003e-07 
0.0000000e+00 -8.6552791e-05 0.0000000e+00 
0.0000000e+00 -8.6283260e-05 0.0000000e+00 
-3.7979964e-07 -8.4615960e-05 1.7609672e-07 
-1.6320725e-07 -8.5320098e-05 1.7554352e-07 
0.0000000e+00 -8.6444903e-05 0.0000000e+00 
0.0000000e+00 -8.6284796e-05 0.0000000e+00 
-1.0833683e-07 -1.6695110e-05 -3.0065576e-07 
-1.7848862e-07 -1.7000142e-05 -7.5851256e-07 
8.5690722e-08 -1.6541007e-05 -7.3920228e-07 
5.5949485e-08 -1.6409002e-05 -3.0281660e-07 
-2.7711259e-08 -1.6541679e-05 -3.0323423e-07 
0.0000000e+00 -1.6390135e-05 0.0000000e+00 
0.0000000e+00 -1.6281538e-05 0.0000000e+00 
2.0935285e-07 -1.6591011e-05 -1.1806607e-06 
-2.5179716e-08 -1.6934157e-05 -1.1760520e-06 
0.0000000e+00 -1.6381946e-05 0.0000000e+00 
0.0000000e+00 -1.6295828e-05 0.0000000e+00 
4.6912891e-08 2.0347792e-05 2.1612243e-07 
7.7389551e-08 2.0246080e-05 4.0383205e-07 
1.3090142e-08 2.0527061e-05 3.8568351e-07 
-4.8514730e-09 2.0510670e-05 2.1471027e-07 
2.1506752e-08 2.0429999e-05 2.0947296e-07 
0.0000000e+00 2.0469233e-05 0.0000000e+00 
0.0000000e+00 2.0538902e-05 0.0000000e+00 
2.2286049e-08 2.0493055e-05 1.1079420e-07 
8.8274284e-08 2.0282296e-05 1.0888689e-07 
0.0000000e+00 2.0478199e-05 0.0000000e+00 
0.0000000e+00 2.0529260e-05 0.0000000e+00 
1.1611594e-07 2.9430610e-05 4.6256881e-07 
1.5618129e-07 2.9478140e-05 9.5170304e-07 
-6.5847892e-08 2.9582687e-05 9.6933570e-07 
-5.6641831e-08 2.9500035e-05 4.6578646e-07 
2.9357144e-08 2.9463750e-05 4.5893540e-07 
0.0000000e+00 2.9466004e-05 0.0000000e+00 
0.0000000e+00 2.9495559e-05 0.0000000e+00 
-1.0911168e-07 2.9568022e-05 8.2431251e-07 
1.1526286e-07 2.9477289e-05 8.2937993e-07 
0.0000000e+00 2.9466633e-05 0.0000000e+00 
0.0000000e+00 2.9495899e-05 0.0000000e+00 
7.7145117e-08 1.9865016e-05 4.7409543e-07 
1.0613670e-07 1.9823472e-05 9.8531928e-07 
-1.3753710e-07 1.9827963e-05 9.8652845e-07 
-1.0761030e-07 1.9871752e-05 4.7559749e-07 
-1.3631542e-08 1.9868898e-05 4.7029229e-07 
0.0000000e+00 1.9924864e-05 0.0000000e+00 
0.0000000e+00 1.9928269e-05 0.0000000e+00 
-1.1040785e-07 1.9834228e-05 9.5138847e-07 
1.2762354e-07 1.9819661e-05 9.5362168e-07 
0.0000000e+00 1.9917989e-05 0.0000000e+00 
0.0000000e+00 1.9931331e-05 0.0000000e+00 
-1.8833447e-08 4.2881625e-06 9.8586639e-08 
-8.1864933e-09 4.1041149e-06 3.6104197e-07 
-1.4752041e-07 3.9600845e-06 3.3965591e-07 
-9.5232856e-08 4.2081192e-06 9.2192970e-08 
-5.3781839e-08 4.2531246e-06 9.5772528e-08 
0.0000000e+00 4.3456848e-06 0.0000000e+00 
0.0000000e+00 4.3103541e-06 0.0000000e+00 
-1.3667450e-08 3.9987303e-06 4.6997991e-07 
1.0798144e-07 4.1015123e-06 4.6718290e-07 
0.0000000e+00 4.3408118e-06 0.0000000e+00 
0.0000000e+00 4.3171972e-06 0.0000000e+00 
-6.6546455e-08 -5.5830574e-06 -1.8991814e-07 
-9.2324640e-08 -5.7077227e-06 -3.7746821e-07 
-9.2752570e-09 -5.7883121e-06 -3.9067098e-07 
1.6111180e-10 -5.6330146e-06 -1.9385813e-07 
-3.1528220e-08 -5.6040271e-06 -1.8944057e-07 
0.0000000e+00 -5.5645705e-06 0.0000000e+00 
0.0000000e+00 -5.5867490e-06 0.0000000e+00 
7.3894441e-08 -5.7675074e-06 -2.9277177e-07 
-1.0554039e-08 -5.7029229e-06 -2.9561372e-07 
0.0000000e+00 -5.5712021e-06 0.0000000e+00 
0.0000000e+00 -5.5886094e-06 0.0000000e+00 
-7.4056231e-08 -6.1055134e-06 -4.4575816e-07 
-9.3853174e-08 -6.1148917e-06 -8.8812936e-07 
1.1288734e-07 -6.1377182e-06 -8.8740154e-07 
9.1463093e-08 -6.1340852e-06 -4.4505219e-07 
9.6101198e-09 -6.1213145e-06 -4.4173350e-07 
0.0000000e+00 -6.1488895e-06 0.0000000e+00 
0.0000000e+00 -6.1583150e-06 0.0000000e+00 
1.1336157e-07 -6.1411929e-06 -8.3394031e-07 
-9.4100550e-08 -6.1066999e-06 -8.3467688e-07 
0.0000000e+00 -6.1473029e-06 0.0000000e+00 
0.0000000e+00 -6.1662186e-06 0.0000000e+00 
6.3973107e-09 -1.4169301e-06 -1.7733007e-07 
7.0085759e-09 -1.2182725e-06 -3.6339478e-07 
9.7245952e-08 -1.2243434e-06 -3.5440553e-07 
7.3644586e-08 -1.4216115e-06 -1.7262548e-07 
3.8140833e-08 -1.4230984e-06 -1.7322567e-07 
0.0000000e+00 -1.5002688e-06 0.0000000e+00 
0.0000000e+00 -1.5057773e-06 0.0000000e+00 
-1.7112750e-08 -1.2399191e-06 -3.4407503e-07 
-1.0231995e-07 -1.2316490e-06 -3.4249186e-07 
0.0000000e+00 -1.4957193e-06 0.0000000e+00 
0.0000000e+00 -1.4998180e-06 0.0000000e+00 
7.2078514e-08 1.5857473e-06 2.8300181e-07 
9.3393716e-08 1.7553234e-06 5.3112643e-07 
-2.8036164e-08 1.7936412e-06 5.4555443e-07 
-2.4289131e-08 1.6218635e-06 2.8750256e-07 
2.1174577e-08 1.6016912e-06 2.8262363e-07 
0.0000000e+00 1.5254203e-06 0.0000000e+00 
0.0000000e+00 1.5434110e-06 0.0000000e+00 
-1.2115989e-07 1.7830957e-06 4.7783237e-07 
-1.4609728e-09 1.7394682e-06 4.8030415e-07 
0.0000000e+00 1.5320655e-06 0.0000000e+00 
0.0000000e+00 1.5500469e-06 0.0000000e+00 
2.4627008e-08 1.9757276e-06 2.1771760e-07 
3.2181738e-08 1.9103948e-06 4.1937207e-07 
-5.9776347e-08 1.9489967e-06 4.1554381e-07 
-5.0182443e-08 2.0099715e-06 2.1641743e-07 
-1.2446697e-08 1.9947504e-06 2.1484709e-07 
0.0000000e+00 2.0296568e-06 0.0000000e+00 
0.0000000e+00 2.0445286e-06 0.0000000e+00 
-2.5447115e-08 1.9536712e-06 3.6226439e-07 
6.7701080e-08 1.9136885e-06 3.6227624e-07 
0.0000000e+00 2.0291957e-06 0.0000000e+00 
0.0000000e+00 2.0441887e-06 0.0000000e+00 
4.2571660e-08 2.2990539e-06 1.4315762e-07 
6.2410308e-08 2.2092174e-06 3.0678365e-07 
-9.2505044e-09 2.2529987e-06 2.9213629e-07 
-8.1710700e-09 2.3222797e-06 1.3874752e-07 
1.7713209e-08 2.3136506e-06 1.3975435e-07 
0.0000000e+00 2.3390619e-06 0.0000000e+00 
0.0000000e+00 2.3497960e-06 0.0000000e+00 
2.5223791e-08 2.2570555e-06 2.4889309e-07 
9.5042637e-08 2.2233828e-06 2.4804606e-07 
0.0000000e+00 2.3357150e-06 0.0000000e+00 
0.0000000e+00 2.3462082e-06 0.0000000e+00 
-9.5834727e-09 3.1356410e-06 -2.3756090e-07 
-6.0351213e-09 3.1821187e-06 -4.8429791e-07 
1.1026025e-07 3.1826012e-06 -4.9681569e-07 
8.1549935e-08 3.1220704e-06 -2.3825012e-07 
3.4622040e-08 3.1289580e-06 -2.3620065e-07 
0.0000000e+00 3.0908600e-06 0.0000000e+00 
0.0000000e+00 3.0850415e-06 0.0000000e+00 
7.1481239e-08 3.1754469e-06 -4.6777703e-07 
-4.7270564e-08 3.1883483e-06 -4.7001038e-07 
0.0000000e+00 3.0922479e-06 0.0000000e+00 
0.0000000e+00 3.0831513e-06 0.0000000e+00 
-3.0515242e-08 1.7587449e-06 -1.5252054e-07 
-3.5072738e-08 1.7740741e-06 -2.8934949e-07 
2.0262583e-08 1.7315247e-06 -2.8581104e-07 
1.9273219e-08 1.7271134e-06 -1.4769370e-07 
-7.1390809e-09 1.7400064e-06 -1.4832447e-07 
0.0000000e+00 1.7921698e-06 0.0000000e+00 
0.0000000e+00 1.7786108e-06 0.0000000e+00 
2.3616026e-08 1.7279089e-06 -2.3453156e-07 
-3.9545448e-08 1.7665627e-06 -2.3423863e-07 
0.0000000e+00 1.7887046e-06 0.0000000e+00 
0.0000000e+00 1.7781016e-06 0.0000000e+00 
-1.5004284e-08 -3.1440190e-06 1.6262791e-07 
-2.8130083e-08 -3.1996824e-06 3.1415163e-07 
-1.0718303e-07 -3.2055798e-06 3.1903963e-07 
-7.4791622e-08 -3.1488328e-06 1.6571708e-07 
-4.3871378e-08 -3.1458003e-06 1.6257125e-07 
0.0000000e+00 -3.0812139e-06 0.0000000e+00 
0.0000000e+00 -3.0866258e-06 0.0000000e+00 
-5.6209622e-08 -3.2042083e-06 3.1690544e-07 
1.5948297e-08 -3.2016974e-06 3.1690968e-07 
0.0000000e+00 -3.0864981e-06 0.0000000e+00 
0.0000000e+00 -3.0839751e-06 0.0000000e+00 
0.0000000e+00 -2.6823289e-05 0.0000000e+00 
0.0000000e+00 4.0867963e-06 0.0000000e+00 
-6.2739791e-10 -6.1936335e-06 2.8837399e-09 
-4.8289790e-09 -6.2385152e-06 5.3776441e-09 
0.0000000e+00 -6.2362583e-06 0.0000000e+00 
0.0000000e+00 -6.1900905e-06 0.0000000e+00 