# vtk DataFile Version 4.0
vtk output
ASCII
DATASET UNSTRUCTURED_GRID
POINTS 1827 float
0.0000000e+00 0.0000000e+00 0.0000000e+00 
0.0000000e+00 0.0000000e+00 2.0000000e+01 
3.4700000e+00 0.0000000e+00 0.0000000e+00 
3.4700000e+00 0.0000000e+00 2.0000000e+01 
3.4700000e+00 1.0000000e+00 0.0000000e+00 
3.4700000e+00 1.0000000e+00 2.0000000e+01 
0.0000000e+00 1.0000000e+00 0.0000000e+00 
0.0000000e+00 1.0000000e+00 2.0000000e+01 
1.2500000e+00 2.5000000e+00 0.0000000e+00 
1.2500000e+00 2.5000000e+00 1.1700000e-01 
7.5000000e-01 2.5000000e+00 1.1700000e-01 
7.5000000e-01 2.5000000e+00 0.0000000e+00 
0.0000000e+00 2.5000000e+00 0.0000000e+00 
0.0000000e+00 2.5000000e+00 1.1700000e-01 
1.2500000e+00 2.8000000e+00 1.1700000e-01 
1.2500000e+00 2.8000000e+00 0.0000000e+00 
0.0000000e+00 2.8000000e+00 0.0000000e+00 
0.0000000e+00 2.8000000e+00 1.1700000e-01 
7.5000000e-01 2.5000000e+00 3.8299999e-01 
1.2500000e+00 2.5000000e+00 3.8299999e-01 
1.2500000e+00 2.5000000e+00 6.1699998e-01 
7.5000000e-01 2.5000000e+00 6.1699998e-01 
7.5000000e-01 2.5000000e+00 5.0000000e-01 
0.0000000e+00 2.5000000e+00 3.8299999e-01 
0.0000000e+00 2.5000000e+00 6.1699998e-01 
1.2500000e+00 2.8000000e+00 6.1699998e-01 
1.2500000e+00 2.8000000e+00 3.8299999e-01 
0.0000000e+00 2.8000000e+00 3.8299999e-01 
0.0000000e+00 2.8000000e+00 6.1699998e-01 
7.5000000e-01 2.5000000e+00 8.8300002e-01 
1.2500000e+00 2.5000000e+00 8.8300002e-01 
1.2500000e+00 2.5000000e+00 1.1170000e+00 
7.5000000e-01 2.5000000e+00 1.1170000e+00 
7.5000000e-01 2.5000000e+00 1.0000000e+00 
0.0000000e+00 2.5000000e+00 8.8300002e-01 
0.0000000e+00 2.5000000e+00 1.1170000e+00 
1.2500000e+00 2.8000000e+00 1.1170000e+00 
1.2500000e+00 2.8000000e+00 8.8300002e-01 
0.0000000e+00 2.8000000e+00 8.8300002e-01 
0.0000000e+00 2.8000000e+00 1.1170000e+00 
7.5000000e-01 2.5000000e+00 1.3830000e+00 
1.2500000e+00 2.5000000e+00 1.3830000e+00 
1.2500000e+00 2.5000000e+00 1.6170000e+00 
7.5000000e-01 2.5000000e+00 1.6170000e+00 
7.5000000e-01 2.5000000e+00 1.5000000e+00 
0.0000000e+00 2.5000000e+00 1.3830000e+00 
0.0000000e+00 2.5000000e+00 1.6170000e+00 
1.2500000e+00 2.8000000e+00 1.6170000e+00 
1.2500000e+00 2.8000000e+00 1.3830000e+00 
0.0000000e+00 2.8000000e+00 1.3830000e+00 
0.0000000e+00 2.8000000e+00 1.6170000e+00 
7.5000000e-01 2.5000000e+00 1.8830000e+00 
1.2500000e+00 2.5000000e+00 1.8830000e+00 
1.2500000e+00 2.5000000e+00 2.1170001e+00 
7.5000000e-01 2.5000000e+00 2.1170001e+00 
7.5000000e-01 2.5000000e+00 2.0000000e+00 
0.0000000e+00 2.5000000e+00 1.8830000e+00 
0.0000000e+00 2.5000000e+00 2.1170001e+00 
1.2500000e+00 2.8000000e+00 2.1170001e+00 
1.2500000e+00 2.8000000e+00 1.8830000e+00 
0.0000000e+00 2.8000000e+00 1.8830000e+00 
0.0000000e+00 2.8000000e+00 2.1170001e+00 
7.5000000e-01 2.5000000e+00 2.3829999e+00 
1.2500000e+00 2.5000000e+00 2.3829999e+00 
1.2500000e+00 2.5000000e+00 2.6170001e+00 
7.5000000e-01 2.5000000e+00 2.6170001e+00 
7.5000000e-01 2.5000000e+00 2.5000000e+00 
0.0000000e+00 2.5000000e+00 2.3829999e+00 
0.0000000e+00 2.5000000e+00 2.6170001e+00 
1.2500000e+00 2.8000000e+00 2.6170001e+00 
1.2500000e+00 2.8000000e+00 2.3829999e+00 
0.0000000e+00 2.8000000e+00 2.3829999e+00 
0.0000000e+00 2.8000000e+00 2.6170001e+00 
7.5000000e-01 2.5000000e+00 2.8829999e+00 
1.2500000e+00 2.5000000e+00 2.8829999e+00 
1.2500000e+00 2.5000000e+00 3.1170001e+00 
7.5000000e-01 2.5000000e+00 3.1170001e+00 
7.5000000e-01 2.5000000e+00 3.0000000e+00 
0.0000000e+00 2.5000000e+00 2.8829999e+00 
0.0000000e+00 2.5000000e+00 3.1170001e+00 
1.2500000e+00 2.8000000e+00 3.1170001e+00 
1.2500000e+00 2.8000000e+00 2.8829999e+00 
0.0000000e+00 2.8000000e+00 2.8829999e+00 
0.0000000e+00 2.8000000e+00 3.1170001e+00 
7.5000000e-01 2.5000000e+00 3.3829999e+00 
1.2500000e+00 2.5000000e+00 3.3829999e+00 
1.2500000e+00 2.5000000e+00 3.6170001e+00 
7.5000000e-01 2.5000000e+00 3.6170001e+00 
7.5000000e-01 2.5000000e+00 3.5000000e+00 
0.0000000e+00 2.5000000e+00 3.3829999e+00 
0.0000000e+00 2.5000000e+00 3.6170001e+00 
1.2500000e+00 2.8000000e+00 3.6170001e+00 
1.2500000e+00 2.8000000e+00 3.3829999e+00 
0.0000000e+00 2.8000000e+00 3.3829999e+00 
0.0000000e+00 2.8000000e+00 3.6170001e+00 
7.5000000e-01 2.5000000e+00 3.8829999e+00 
1.2500000e+00 2.5000000e+00 3.8829999e+00 
1.2500000e+00 2.5000000e+00 4.1170001e+00 
7.5000000e-01 2.5000000e+00 4.1170001e+00 
7.5000000e-01 2.5000000e+00 4.0000000e+00 
0.0000000e+00 2.5000000e+00 3.8829999e+00 
0.0000000e+00 2.5000000e+00 4.1170001e+00 
1.2500000e+00 2.8000000e+00 4.1170001e+00 
1.2500000e+00 2.8000000e+00 3.8829999e+00 
0.0000000e+00 2.8000000e+00 3.8829999e+00 
0.0000000e+00 2.8000000e+00 4.1170001e+00 
7.5000000e-01 2.5000000e+00 4.3829999e+00 
1.2500000e+00 2.5000000e+00 4.3829999e+00 
1.2500000e+00 2.5000000e+00 4.6170001e+00 
7.5000000e-01 2.5000000e+00 4.6170001e+00 
7.5000000e-01 2.5000000e+00 4.5000000e+00 
0.0000000e+00 2.5000000e+00 4.3829999e+00 
0.0000000e+00 2.5000000e+00 4.6170001e+00 
1.2500000e+00 2.8000000e+00 4.6170001e+00 
1.2500000e+00 2.8000000e+00 4.3829999e+00 
0.0000000e+00 2.8000000e+00 4.3829999e+00 
0.0000000e+00 2.8000000e+00 4.6170001e+00 
7.5000000e-01 2.5000000e+00 4.8829999e+00 
1.2500000e+00 2.5000000e+00 4.8829999e+00 
1.2500000e+00 2.5000000e+00 5.1170001e+00 
7.5000000e-01 2.5000000e+00 5.1170001e+00 
7.5000000e-01 2.5000000e+00 5.0000000e+00 
0.0000000e+00 2.5000000e+00 4.8829999e+00 
0.0000000e+00 2.5000000e+00 5.1170001e+00 
1.2500000e+00 2.8000000e+00 5.1170001e+00 
1.2500000e+00 2.8000000e+00 4.8829999e+00 
0.0000000e+00 2.8000000e+00 4.8829999e+00 
0.0000000e+00 2.8000000e+00 5.1170001e+00 
7.5000000e-01 2.5000000e+00 5.3829999e+00 
1.2500000e+00 2.5000000e+00 5.3829999e+00 
1.2500000e+00 2.5000000e+00 5.6170001e+00 
7.5000000e-01 2.5000000e+00 5.6170001e+00 
7.5000000e-01 2.5000000e+00 5.5000000e+00 
0.0000000e+00 2.5000000e+00 5.3829999e+00 
0.0000000e+00 2.5000000e+00 5.6170001e+00 
1.2500000e+00 2.8000000e+00 5.6170001e+00 
1.2500000e+00 2.8000000e+00 5.3829999e+00 
0.0000000e+00 2.8000000e+00 5.3829999e+00 
0.0000000e+00 2.8000000e+00 5.6170001e+00 
7.5000000e-01 2.5000000e+00 5.8829999e+00 
1.2500000e+00 2.5000000e+00 5.8829999e+00 
1.2500000e+00 2.5000000e+00 6.1170001e+00 
7.5000000e-01 2.5000000e+00 6.1170001e+00 
7.5000000e-01 2.5000000e+00 6.0000000e+00 
0.0000000e+00 2.5000000e+00 5.8829999e+00 
0.0000000e+00 2.5000000e+00 6.1170001e+00 
1.2500000e+00 2.8000000e+00 6.1170001e+00 
1.2500000e+00 2.8000000e+00 5.8829999e+00 
0.0000000e+00 2.8000000e+00 5.8829999e+00 
0.0000000e+00 2.8000000e+00 6.1170001e+00 
7.5000000e-01 2.5000000e+00 6.3829999e+00 
1.2500000e+00 2.5000000e+00 6.3829999e+00 
1.2500000e+00 2.5000000e+00 6.6170001e+00 
7.5000000e-01 2.5000000e+00 6.6170001e+00 
7.5000000e-01 2.5000000e+00 6.5000000e+00 
0.0000000e+00 2.5000000e+00 6.3829999e+00 
0.0000000e+00 2.5000000e+00 6.6170001e+00 
1.2500000e+00 2.8000000e+00 6.6170001e+00 
1.2500000e+00 2.8000000e+00 6.3829999e+00 
0.0000000e+00 2.8000000e+00 6.3829999e+00 
0.0000000e+00 2.8000000e+00 6.6170001e+00 
7.5000000e-01 2.5000000e+00 6.8829999e+00 
1.2500000e+00 2.5000000e+00 6.8829999e+00 
1.2500000e+00 2.5000000e+00 7.1170001e+00 
7.5000000e-01 2.5000000e+00 7.1170001e+00 
7.5000000e-01 2.5000000e+00 7.0000000e+00 
0.0000000e+00 2.5000000e+00 6.8829999e+00 
0.0000000e+00 2.5000000e+00 7.1170001e+00 
1.2500000e+00 2.8000000e+00 7.1170001e+00 
1.2500000e+00 2.8000000e+00 6.8829999e+00 
0.0000000e+00 2.8000000e+00 6.8829999e+00 
0.0000000e+00 2.8000000e+00 7.1170001e+00 
7.5000000e-01 2.5000000e+00 7.3829999e+00 
1.2500000e+00 2.5000000e+00 7.3829999e+00 
1.2500000e+00 2.5000000e+00 7.6170001e+00 
7.5000000e-01 2.5000000e+00 7.6170001e+00 
7.5000000e-01 2.5000000e+00 7.5000000e+00 
0.0000000e+00 2.5000000e+00 7.3829999e+00 
0.0000000e+00 2.5000000e+00 7.6170001e+00 
1.2500000e+00 2.8000000e+00 7.6170001e+00 
1.2500000e+00 2.8000000e+00 7.3829999e+00 
0.0000000e+00 2.8000000e+00 7.3829999e+00 
0.0000000e+00 2.8000000e+00 7.6170001e+00 
7.5000000e-01 2.5000000e+00 7.8829999e+00 
1.2500000e+00 2.5000000e+00 7.8829999e+00 
1.2500000e+00 2.5000000e+00 8.1169996e+00 
7.5000000e-01 2.5000000e+00 8.1169996e+00 
7.5000000e-01 2.5000000e+00 8.0000000e+00 
0.0000000e+00 2.5000000e+00 7.8829999e+00 
0.0000000e+00 2.5000000e+00 8.1169996e+00 
1.2500000e+00 2.8000000e+00 8.1169996e+00 
1.2500000e+00 2.8000000e+00 7.8829999e+00 
0.0000000e+00 2.8000000e+00 7.8829999e+00 
0.0000000e+00 2.8000000e+00 8.1169996e+00 
7.5000000e-01 2.5000000e+00 8.3830004e+00 
1.2500000e+00 2.5000000e+00 8.3830004e+00 
1.2500000e+00 2.5000000e+00 8.6169996e+00 
7.5000000e-01 2.5000000e+00 8.6169996e+00 
7.5000000e-01 2.5000000e+00 8.5000000e+00 
0.0000000e+00 2.5000000e+00 8.3830004e+00 
0.0000000e+00 2.5000000e+00 8.6169996e+00 
1.2500000e+00 2.8000000e+00 8.6169996e+00 
1.2500000e+00 2.8000000e+00 8.3830004e+00 
0.0000000e+00 2.8000000e+00 8.3830004e+00 
0.0000000e+00 2.8000000e+00 8.6169996e+00 
7.5000000e-01 2.5000000e+00 8.8830004e+00 
1.2500000e+00 2.5000000e+00 8.8830004e+00 
1.2500000e+00 2.5000000e+00 9.1169996e+00 
7.5000000e-01 2.5000000e+00 9.1169996e+00 
7.5000000e-01 2.5000000e+00 9.0000000e+00 
0.0000000e+00 2.5000000e+00 8.8830004e+00 
0.0000000e+00 2.5000000e+00 9.1169996e+00 
1.2500000e+00 2.8000000e+00 9.1169996e+00 
1.2500000e+00 2.8000000e+00 8.8830004e+00 
0.0000000e+00 2.8000000e+00 8.8830004e+00 
0.0000000e+00 2.8000000e+00 9.1169996e+00 
7.5000000e-01 2.5000000e+00 9.3830004e+00 
1.2500000e+00 2.5000000e+00 9.3830004e+00 
1.2500000e+00 2.5000000e+00 9.6169996e+00 
7.5000000e-01 2.5000000e+00 9.6169996e+00 
7.5000000e-01 2.5000000e+00 9.5000000e+00 
0.0000000e+00 2.5000000e+00 9.3830004e+00 
0.0000000e+00 2.5000000e+00 9.6169996e+00 
1.2500000e+00 2.8000000e+00 9.6169996e+00 
1.2500000e+00 2.8000000e+00 9.3830004e+00 
0.0000000e+00 2.8000000e+00 9.3830004e+00 
0.0000000e+00 2.8000000e+00 9.6169996e+00 
7.5000000e-01 2.5000000e+00 9.8830004e+00 
1.2500000e+00 2.5000000e+00 9.8830004e+00 
1.2500000e+00 2.5000000e+00 1.0117000e+01 
[...]
POINT_DATA 1827
FIELD FieldData 2
DISPLACEMENT 3 1827  float
0.0000000e+00 0.0000000e+00 0.0000000e+00 
0.0000000e+00 0.0000000e+00 0.0000000e+00 
0.0000000e+00 0.0000000e+00 0.0000000e+00 
0.0000000e+00 0.0000000e+00 0.0000000e+00 
0.0000000e+00 1.2167672e-07 0.0000000e+00 
0.0000000e+00 -9.0888348e-18 0.0000000e+00 
0.0000000e+00 -1.9743542e-05 0.0000000e+00 
0.0000000e+00 8.0256335e-16 0.0000000e+00 
0.0000000e+00 4.2825053e-05 0.0000000e+00 
1.8503647e-08 4.2836571e-05 5.9563683e-09 
-5.0953304e-09 4.2771855e-05 8.9090380e-09 
0.0000000e+00 4.2754902e-05 0.0000000e+00 
0.0000000e+00 4.2999720e-05 0.0000000e+00 
0.0000000e+00 4.2997639e-05 0.0000000e+00 
-8.5830019e-09 4.2822354e-05 -6.3522725e-09 
0.0000000e+00 4.2825424e-05 0.0000000e+00 
0.0000000e+00 4.2993583e-05 0.0000000e+00 
0.0000000e+00 4.2996176e-05 0.0000000e+00 
-8.3939121e-08 4.1766150e-05 5.9280671e-07 
-7.2674972e-08 4.1028583e-05 1.1907050e-06 
-3.6198873e-07 4.0918869e-05 1.1878824e-06 
-3.2029638e-07 4.1688349e-05 5.9965265e-07 
-2.0295010e-07 4.1723655e-05 5.9183014e-07 
0.0000000e+00 4.2555228e-05 0.0000000e+00 
0.0000000e+00 4.2511114e-05 0.0000000e+00 
8.1484117e-08 4.0953149e-05 1.2853591e-06 
3.6538523e-07 4.1033938e-05 1.2912884e-06 
0.0000000e+00 4.2497591e-05 0.0000000e+00 
0.0000000e+00 4.2505279e-05 0.0000000e+00 
-2.1874389e-08 1.5020973e-05 1.7435012e-07 
-1.0646582e-07 1.4807627e-05 3.4008747e-07 
-1.7074916e-07 1.4493329e-05 3.3860971e-07 
-1.1083832e-07 1.4839489e-05 1.6386998e-07 
-6.2246500e-08 1.4939674e-05 1.7277208e-07 
0.0000000e+00 1.5057073e-05 0.0000000e+00 
0.0000000e+00 1.4976681e-05 0.0000000e+00 
-3.2745275e-09 1.4566145e-05 6.4544861e-07 
1.0251715e-07 1.4794889e-05 6.4047879e-07 
0.0000000e+00 1.5030690e-05 0.0000000e+00 
0.0000000e+00 1.4978143e-05 0.0000000e+00 
5.7404350e-08 -8.5179227e-06 4.6363379e-08 
4.9289454e-08 -8.2983079e-06 7.8016697e-08 
2.0993895e-08 -8.3031018e-06 6.6739609e-08 
4.4550305e-08 -8.5023503e-06 4.0776836e-08 
5.1757521e-08 -8.5018864e-06 4.3502343e-08 
0.0000000e+00 -8.7924909e-06 0.0000000e+00 
0.0000000e+00 -8.7802518e-06 0.0000000e+00 
-8.7731920e-08 -8.2901634e-06 6.5760851e-08 
-7.1075924e-08 -8.2980459e-06 6.1386984e-08 
0.0000000e+00 -8.7732897e-06 0.0000000e+00 
0.0000000e+00 -8.7715744e-06 0.0000000e+00 
9.5876921e-08 -1.5499143e-05 1.6748092e-07 
1.0214023e-07 -1.5182956e-05 3.0348173e-07 
4.0430475e-08 -1.5152793e-05 3.0783914e-07 
4.0369883e-08 -1.5470941e-05 1.6497989e-07 
6.7457279e-08 -1.5486921e-05 1.6487979e-07 
0.0000000e+00 -1.5781550e-05 0.0000000e+00 
0.0000000e+00 -1.5763777e-05 0.0000000e+00 
-1.4036311e-07 -1.5164641e-05 2.6639370e-07 
-7.5295389e-08 -1.5196602e-05 2.6427278e-07 
0.0000000e+00 -1.5773036e-05 0.0000000e+00 
0.0000000e+00 -1.5753947e-05 0.0000000e+00 
7.5751679e-08 -8.7911949e-06 2.4419251e-08 
1.0548449e-07 -8.5036600e-06 2.2480762e-08 
1.0551446e-07 -8.3736750e-06 3.0750368e-08 
8.3677982e-08 -8.6946711e-06 2.0975399e-08 
7.7894846e-08 -8.7439175e-06 2.1085691e-08 
0.0000000e+00 -8.9679161e-06 0.0000000e+00 
0.0000000e+00 -8.9292826e-06 0.0000000e+00 
-7.0852820e-08 -8.4038165e-06 -1.1859841e-07 
-7.6723964e-08 -8.5142328e-06 -1.1914840e-07 
0.0000000e+00 -8.9511377e-06 0.0000000e+00 
0.0000000e+00 -8.9298810e-06 0.0000000e+00 
-1.3955060e-08 2.9220230e-06 1.4632182e-07 
-3.3201866e-09 2.7791982e-06 2.3705348e-07 
-4.4896733e-08 2.8404656e-06 2.3442941e-07 
-5.1946280e-08 2.9595037e-06 1.4702503e-07 
-3.3783877e-08 2.9369085e-06 1.4462390e-07 
0.0000000e+00 3.1238210e-06 0.0000000e+00 
0.0000000e+00 3.1364573e-06 0.0000000e+00 
2.8913369e-08 2.8328623e-06 1.7207613e-07 
6.8998638e-08 2.7828801e-06 1.7346291e-07 
0.0000000e+00 3.1151060e-06 0.0000000e+00 
0.0000000e+00 3.1341417e-06 0.0000000e+00 
9.6556185e-09 6.8969262e-06 9.3725951e-08 
2.4298846e-08 6.8746290e-06 2.0549847e-07 
-3.0997036e-08 6.8442446e-06 1.9813230e-07 
-3.0168025e-08 6.8837717e-06 9.7660433e-08 
-1.1218512e-08 6.8880299e-06 9.5250201e-08 
0.0000000e+00 6.9743542e-06 0.0000000e+00 
0.0000000e+00 6.9657722e-06 0.0000000e+00 
-1.4011031e-08 6.8518220e-06 2.2400677e-07 
3.8322359e-08 6.8704139e-06 2.2395865e-07 
0.0000000e+00 6.9747443e-06 0.0000000e+00 
0.0000000e+00 6.9708390e-06 0.0000000e+00 
-2.5741299e-08 1.7775429e-06 -1.4044038e-07 
-4.4285837e-08 1.7915760e-06 -2.9024267e-07 
2.5072616e-08 1.7523320e-06 -2.9028578e-07 
2.5505042e-08 1.7489609e-06 -1.4362600e-07 
1.3499768e-09 1.7650881e-06 -1.4048062e-07 
0.0000000e+00 1.6926110e-06 0.0000000e+00 
0.0000000e+00 1.6833475e-06 0.0000000e+00 
1.9718406e-08 1.7611570e-06 -2.4128613e-07 
-4.6865175e-08 1.7958862e-06 -2.4221822e-07 
0.0000000e+00 1.6974109e-06 0.0000000e+00 
0.0000000e+00 1.6836553e-06 0.0000000e+00 
1.5456168e-08 -2.6070893e-06 7.8700042e-09 
1.2483066e-08 -2.5655004e-06 4.7611612e-09 
1.2360600e-08 -2.5637255e-06 5.0830606e-09 
1.5710544e-08 -2.6045857e-06 3.9012118e-09 
1.6453138e-08 -2.6031596e-06 5.8071086e-09 
0.0000000e+00 -2.6923658e-06 0.0000000e+00 
0.0000000e+00 -2.6903913e-06 0.0000000e+00 
-1.1788279e-08 -2.5627608e-06 1.7101335e-09 
-1.1497091e-08 -2.5656441e-06 9.7720443e-10 
0.0000000e+00 -2.6912016e-06 0.0000000e+00 
0.0000000e+00 -2.6917194e-06 0.0000000e+00 
5.1795976e-09 -1.6560645e-06 4.7159222e-08 
8.8868415e-09 -1.6724525e-06 8.9621338e-08 
-9.1365582e-09 -1.6428194e-06 9.0258368e-08 
-9.1248600e-09 -1.6374820e-06 4.6720736e-08 
-2.0022730e-09 -1.6468380e-06 4.6270884e-08 
0.0000000e+00 -1.6308815e-06 0.0000000e+00 
0.0000000e+00 -1.6232389e-06 0.0000000e+00 
-3.3497249e-09 -1.6476467e-06 5.8431727e-08 
1.5143613e-08 -1.6710708e-06 5.8759209e-08 
0.0000000e+00 -1.6321250e-06 0.0000000e+00 
0.0000000e+00 -1.6246427e-06 0.0000000e+00 
1.4913560e-08 8.5753726e-07 2.6994327e-08 
2.5630444e-08 9.0084228e-07 5.5950682e-08 
1.2807736e-08 9.0428074e-07 5.5954423e-08 
4.2387969e-09 8.5973136e-07 2.9641830e-08 
8.4111953e-09 8.5642625e-07 2.8032282e-08 
0.0000000e+00 8.7203443e-07 0.0000000e+00 
0.0000000e+00 8.7330261e-07 0.0000000e+00 
-1.4284830e-08 8.9988049e-07 5.1537803e-08 
-1.5847766e-09 8.9678861e-07 5.2165589e-08 
0.0000000e+00 8.7354505e-07 0.0000000e+00 
0.0000000e+00 8.7534869e-07 0.0000000e+00 
-3.5939562e-09 7.7727515e-07 -1.3746698e-08 
-4.3986592e-09 7.7534696e-07 -2.3608443e-08 
-8.0261284e-11 7.6243299e-07 -2.3953199e-08 
-1.2261446e-10 7.6959680e-07 -1.4178291e-08 
-1.7344240e-09 7.7380975e-07 -1.3742405e-08 
0.0000000e+00 7.7509992e-07 0.0000000e+00 
0.0000000e+00 7.7196188e-07 0.0000000e+00 
2.3054227e-09 7.6498389e-07 -1.0754238e-08 
-1.6069110e-09 7.7475363e-07 -1.0792226e-08 
0.0000000e+00 7.7485049e-07 0.0000000e+00 
0.0000000e+00 7.7249183e-07 0.0000000e+00 
5.6002225e-09 -2.1468888e-07 3.1409384e-09 
3.4945058e-09 -1.9933921e-07 4.0491379e-09 
2.6541920e-09 -1.9909923e-07 3.9312060e-09 
5.0471969e-09 -2.1423459e-07 1.8948996e-09 
5.6505800e-09 -2.1358379e-07 2.4763858e-09 
0.0000000e+00 -2.4822933e-07 0.0000000e+00 
0.0000000e+00 -2.4767041e-07 0.0000000e+00 
-5.9368324e-09 -1.9826165e-07 3.3746932e-09 
-5.0897935e-09 -1.9870426e-07 3.0527851e-09 
0.0000000e+00 -2.4711613e-07 0.0000000e+00 
0.0000000e+00 -2.4770961e-07 0.0000000e+00 
2.7719280e-09 -2.7456400e-07 8.8019725e-09 
3.5814822e-09 -2.7094325e-07 1.7174676e-08 
-7.5191962e-12 -2.6708190e-07 1.7219351e-08 
-1.5679716e-10 -2.7180431e-07 8.8745740e-09 
1.2706822e-09 -2.7329511e-07 8.7222336e-09 
0.0000000e+00 -2.7569172e-07 0.0000000e+00 
0.0000000e+00 -2.7449690e-07 0.0000000e+00 
-2.5929650e-09 -2.6782723e-07 1.2768176e-08 
1.1442709e-09 -2.7108840e-07 1.2775097e-08 
0.0000000e+00 -2.7551951e-07 0.0000000e+00 
0.0000000e+00 -2.7461809e-07 0.0000000e+00 
1.9519890e-09 5.8914022e-08 2.1146154e-09 
3.8093435e-09 6.6230655e-08 5.5465641e-09 
2.2229678e-09 6.5642759e-08 5.5939311e-09 
7.8575507e-10 5.8631898e-08 2.6187128e-09 
1.1532791e-09 5.8323636e-08 2.3457518e-09 
0.0000000e+00 6.2751667e-08 0.0000000e+00 
0.0000000e+00 6.2659844e-08 0.0000000e+00 
-2.0568103e-09 6.4935136e-08 5.9768785e-09 
-5.7667637e-10 6.5296241e-08 6.0768111e-09 
0.0000000e+00 6.2822636e-08 0.0000000e+00 
0.0000000e+00 6.2925331e-08 0.0000000e+00 
-1.3229110e-09 7.0471984e-08 -1.5472165e-09 
-1.8668018e-09 6.6743233e-08 -3.0204246e-09 
-1.2128339e-09 6.5742405e-08 -3.0789962e-09 
-8.5446927e-10 6.9748417e-08 -1.6356050e-09 
-1.0458271e-09 7.0188726e-08 -1.5641943e-09 
0.0000000e+00 7.2145333e-08 0.0000000e+00 
0.0000000e+00 7.1784676e-08 0.0000000e+00 
1.1225810e-09 6.6077980e-08 -1.8836948e-09 
4.8983406e-10 6.6945333e-08 -1.9103124e-09 
0.0000000e+00 7.1979464e-08 0.0000000e+00 
0.0000000e+00 7.1732615e-08 0.0000000e+00 
1.9469394e-10 -1.7190963e-08 2.6347818e-10 
-6.5587424e-11 -1.7040426e-08 4.7146825e-10 
-1.9625386e-10 -1.7084959e-08 4.5310133e-10 
9.4675122e-11 -1.7202959e-08 1.2626956e-10 
1.8502408e-10 -1.7079673e-08 1.9311368e-10 
0.0000000e+00 -1.9229891e-08 0.0000000e+00 
0.0000000e+00 -1.9191541e-08 0.0000000e+00 
-2.1068799e-10 -1.6972024e-08 5.0665905e-10 
-9.2062157e-11 -1.6953512e-08 4.7257187e-10 
0.0000000e+00 -1.9263537e-08 0.0000000e+00 
0.0000000e+00 -1.9218973e-08 0.0000000e+00 
2.1653607e-10 -1.6576488e-08 3.9693973e-10 
3.3754380e-10 -1.6087217e-08 8.4647478e-10 
1.5057423e-10 -1.6003870e-08 8.5572760e-10 
5.6063310e-11 -1.6546636e-08 4.2631712e-10 
1.2407343e-10 -1.6596641e-08 4.0754747e-10 
0.0000000e+00 -1.6509306e-08 0.0000000e+00 
0.0000000e+00 -1.6481637e-08 0.0000000e+00 
-1.8020491e-10 -1.6080238e-08 7.6703383e-10 
1.9037797e-11 -1.6133855e-08 7.7575874e-10 
0.0000000e+00 -1.6499010e-08 0.0000000e+00 
0.0000000e+00 -1.6474615e-08 0.0000000e+00 
6.0547491e-11 4.5484638e-09 4.8685375e-11 
1.4564315e-10 4.8576885e-09 1.2087702e-10 
1.1604202e-10 4.8215756e-09 1.2482292e-10 
3.1380221e-11 4.5159969e-09 8.0113541e-11 
3.4251359e-11 4.5019815e-09 6.3991305e-11 
0.0000000e+00 4.7755089e-09 0.0000000e+00 
0.0000000e+00 4.7650355e-09 0.0000000e+00 
-7.5411344e-11 4.7847246e-09 1.6367492e-10 
-4.6874955e-11 4.8180273e-09 1.6991381e-10 
0.0000000e+00 4.7885096e-09 0.0000000e+00 
0.0000000e+00 4.7846749e-09 0.0000000e+00 
-4.0893913e-11 3.2944549e-09 -1.6736786e-11 
-7.1288246e-11 3.1332259e-09 -2.2519681e-11 
-6.9310370e-11 3.0972094e-09 -2.6129241e-11 
-3.9769705e-11 3.2731775e-09 -2.8283301e-11 
-3.6118126e-11 3.2949052e-09 -2.1976651e-11 
0.0000000e+00 3.2715652e-09 0.0000000e+00 
0.0000000e+00 3.2602934e-09 0.0000000e+00 
3.2273708e-11 3.1192109e-09 1.2030490e-11 
3.2841049e-11 3.1465393e-09 1.0046931e-11 
0.0000000e+00 3.2648872e-09 0.0000000e+00 
0.0000000e+00 3.2586793e-09 0.0000000e+00 
2.0129461e-11 -1.1246623e-09 7.2542822e-12 
8.7298363e-12 -1.0637875e-09 8.4951447e-13 
1.0606170e-11 -1.0518133e-09 6.6488877e-13 
2.2388967e-11 -1.1179367e-09 9.9426511e-13 
2.2880243e-11 -1.1168017e-09 3.9642035e-12 
0.0000000e+00 -1.2763003e-09 0.0000000e+00 
0.0000000e+00 -1.2704502e-09 0.0000000e+00 
-2.4470872e-11 -1.0502481e-09 -1.1653160e-11 
-2.5642665e-11 -1.0598981e-09 -1.3124959e-11 
0.0000000e+00 -1.2711516e-09 0.0000000e+00 
0.0000000e+00 -1.2710771e-09 0.0000000e+00 
1.8599745e-11 -5.7116140e-10 2.4255533e-11 
2.9184016e-11 -5.0875093e-10 5.1835557e-11 
1.7294291e-11 -5.0668619e-10 5.2366035e-11 
8.7275126e-12 -5.6822480e-10 2.7133001e-11 
1.2410933e-11 -5.7221700e-10 2.5420896e-11 
0.0000000e+00 -5.7431143e-10 0.0000000e+00 
0.0000000e+00 -5.7344907e-10 0.0000000e+00 
-2.0270008e-11 -5.1172871e-10 4.7665861e-11 
-7.9241830e-12 -5.1487048e-10 4.8245578e-11 
0.0000000e+00 -5.7240829e-10 0.0000000e+00 
0.0000000e+00 -5.7048005e-10 0.0000000e+00 
-3.1956625e-12 2.3683047e-10 3.2689698e-13 
-2.0068658e-12 2.2387249e-10 9.8787374e-13 
-2.1494267e-12 2.2279606e-10 1.0066032e-12 
-3.6004819e-12 2.3603081e-10 1.1835170e-12 
-3.6239573e-12 2.3574284e-10 7.5836912e-13 
0.0000000e+00 2.5932084e-10 0.0000000e+00 
0.0000000e+00 2.5859637e-10 0.0000000e+00 
4.9030380e-12 2.2293477e-10 2.1865073e-12 
5.0471294e-12 2.2379025e-10 2.4895509e-12 
0.0000000e+00 2.5853117e-10 0.0000000e+00 
0.0000000e+00 2.5886904e-10 0.0000000e+00 
-2.0046248e-13 8.5536654e-11 -1.1896074e-12 
-1.9337656e-12 8.3339689e-11 -3.4721154e-12 
-7.9872301e-13 8.5290122e-11 -3.5696756e-12 
6.7115589e-13 8.6637669e-11 -1.8351154e-12 
4.3893689e-13 8.6676749e-11 -1.5142437e-12 
0.0000000e+00 7.6851775e-11 0.0000000e+00 
0.0000000e+00 7.7251705e-11 0.0000000e+00 
4.2508615e-13 8.5809478e-11 -5.3518561e-12 
-6.1899926e-13 8.4421269e-11 -5.5159007e-12 
0.0000000e+00 7.7048062e-11 0.0000000e+00 
0.0000000e+00 7.7055667e-11 0.0000000e+00 
4.9420315e-13 -3.9671984e-11 5.0263456e-13 
4.1209037e-13 -3.8861619e-11 7.8514007e-13 
2.5063732e-13 -3.8512374e-11 8.0416256e-13 
3.8164640e-13 -3.9397739e-11 4.0393334e-13 
4.6275234e-13 -3.9467499e-11 4.4698387e-13 
0.0000000e+00 -4.1783015e-11 0.0000000e+00 
0.0000000e+00 -4.1626896e-11 0.0000000e+00 
-2.5619640e-13 -3.8489496e-11 3.9944789e-13 
-1.0533394e-13 -3.8786512e-11 3.8311070e-13 
0.0000000e+00 -4.1724627e-11 0.0000000e+00 
0.0000000e+00 -4.1688784e-11 0.0000000e+00 
1.5934800e-13 -8.6548546e-12 -8.9118445e-15 
4.5808588e-13 -7.8294602e-12 8.2090056e-14 
4.2279765e-13 -7.9621656e-12 1.1183091e-13 
1.1684333e-13 -8.7524033e-12 1.0472574e-13 
9.8058517e-14 -8.8148343e-12 4.8284707e-14 
0.0000000e+00 -7.6870931e-12 0.0000000e+00 
0.0000000e+00 -7.7156398e-12 0.0000000e+00 
-1.0581519e-13 -8.0899801e-12 2.4230322e-13 
-7.9247962e-14 -7.9743946e-12 2.7011981e-13 
0.0000000e+00 -7.6564172e-12 0.0000000e+00 
0.0000000e+00 -7.6667743e-12 0.0000000e+00 
-1.2325397e-13 6.7280899e-12 -5.7121639e-14 
-1.4618184e-13 6.3549335e-12 -1.1208504e-13 
-1.2065232e-13 6.2832144e-12 -1.1886313e-13 
-1.0659326e-13 6.6861941e-12 -5.5496958e-14 
-1.1304176e-13 6.7070958e-12 -5.5163024e-14 
0.0000000e+00 7.0170913e-12 0.0000000e+00 
0.0000000e+00 6.9903267e-12 0.0000000e+00 
1.0358820e-13 6.3101330e-12 -4.4000881e-14 
8.0973809e-14 6.3623052e-12 -4.2933373e-14 
0.0000000e+00 7.0002038e-12 0.0000000e+00 
0.0000000e+00 6.9924440e-12 0.0000000e+00 
-6.3330562e-16 6.1168795e-13 1.6150209e-14 
-3.7027486e-14 5.5351980e-13 2.2997748e-14 
-4.8965067e-14 5.1721122e-13 1.8744002e-14 
-5.7887811e-15 5.9448063e-13 -1.5168828e-15 
2.2888711e-15 6.1802202e-13 7.6112348e-15 
0.0000000e+00 4.1782875e-13 0.0000000e+00 
0.0000000e+00 4.1025503e-13 0.0000000e+00 
-8.9134982e-16 5.4005503e-13 5.3505929e-14 
8.5342144e-15 5.6514049e-13 4.9106796e-14 
0.0000000e+00 4.1253147e-13 0.0000000e+00 
0.0000000e+00 4.0220887e-13 0.0000000e+00 
-1.4856738e-15 -1.1089681e-12 -2.9559042e-15 
1.3644917e-15 -1.1140847e-12 -1.3480098e-15 
1.2051874e-15 -1.1111275e-12 -1.4467601e-15 
-1.1835005e-15 -1.1079718e-12 -1.5379997e-15 
-1.6857966e-15 -1.1099413e-12 -2.2247337e-15 
0.0000000e+00 -1.0909383e-12 0.0000000e+00 
0.0000000e+00 -1.0893064e-12 0.0000000e+00 
2.8610494e-15 -1.1133228e-12 -3.9791617e-15 
2.8736135e-15 -1.1150279e-12 -3.6509280e-15 
0.0000000e+00 -1.0905945e-12 0.0000000e+00 
0.0000000e+00 -1.0895746e-12 0.0000000e+00 
5.6147447e-15 -6.6015719e-15 7.7666585e-15 
1.2051099e-14 2.1728955e-14 1.2881034e-14 
1.0417718e-14 2.7741237e-14 1.3326256e-14 
3.8396876e-15 -2.1004367e-15 1.0165375e-14 
3.8445352e-15 -6.9739005e-15 8.7878254e-15 
0.0000000e+00 6.2489127e-15 0.0000000e+00 
0.0000000e+00 8.0154779e-15 0.0000000e+00 
-7.6387278e-15 2.3940414e-14 6.0053751e-15 
-5.7485420e-15 1.8550901e-14 6.4270463e-15 
0.0000000e+00 7.8799704e-15 0.0000000e+00 
0.0000000e+00 9.0095938e-15 0.0000000e+00 
-5.9833762e-16 1.4259289e-13 9.2022051e-16 
-1.9398791e-15 1.3902188e-13 1.2492585e-15 
-2.2653509e-15 1.3821506e-13 1.2539652e-15 
-8.6069490e-16 1.4234599e-13 4.3388267e-16 
-5.5851357e-16 1.4294146e-13 6.7493798e-16 
0.0000000e+00 1.3879406e-13 0.0000000e+00 
0.0000000e+00 1.3846910e-13 0.0000000e+00 
2.7218025e-16 1.3899716e-13 1.8853469e-15 
6.3025943e-16 1.3946781e-13 1.7792725e-15 
0.0000000e+00 1.3853671e-13 0.0000000e+00 
0.0000000e+00 1.3830053e-13 0.0000000e+00 
3.7350910e-17 -1.1026616e-14 -9.0063372e-16 
-5.0268494e-16 -1.1036921e-14 -1.7609172e-15 
-1.5641316e-16 -1.0570742e-14 -1.7657191e-15 
4.2677514e-16 -1.0723089e-14 -1.1482284e-15 
3.1694141e-16 -1.0653898e-14 -1.0173317e-15 
0.0000000e+00 -1.4775057e-14 0.0000000e+00 
0.0000000e+00 -1.4583922e-14 0.0000000e+00 
-5.2106334e-17 -1.0451124e-14 -2.1945482e-15 
-4.3623391e-16 -1.0764672e-14 -2.2643878e-15 
0.0000000e+00 -1.4706255e-14 0.0000000e+00 
0.0000000e+00 -1.4775358e-14 0.0000000e+00 
-9.5144809e-17 -1.6688272e-14 -1.7856287e-16 
8.2151290e-17 -1.6555435e-14 -3.1528390e-16 
1.6670172e-16 -1.6542696e-14 -2.9789029e-16 
-3.0226238e-17 -1.6632176e-14 -8.7249449e-17 
-9.0748946e-17 -1.6743090e-14 -1.3202677e-16 
0.0000000e+00 -1.5406494e-14 0.0000000e+00 
0.0000000e+00 -1.5401737e-14 0.0000000e+00 
7.0629200e-17 -1.6628039e-14 -3.5633874e-16 
-3.8367780e-18 -1.6656596e-14 -3.3350744e-16 
0.0000000e+00 -1.5376709e-14 0.0000000e+00 
0.0000000e+00 -1.5405629e-14 0.0000000e+00 
-2.2771627e-17 2.7549257e-15 6.0729245e-17 
1.4554577e-17 2.8089732e-15 8.2532151e-17 
1.3305130e-17 2.8239085e-15 8.6387633e-17 
-3.9072253e-17 2.7689486e-15 8.3576476e-17 
-3.9321179e-17 2.7447450e-15 7.1261484e-17 
0.0000000e+00 3.0740568e-15 0.0000000e+00 
0.0000000e+00 3.0739508e-15 0.0000000e+00 
-2.1322746e-17 2.7990416e-15 6.7275684e-17 
-1.4805820e-17 2.7815740e-15 7.1260922e-17 
0.0000000e+00 3.0794457e-15 0.0000000e+00 
0.0000000e+00 3.0903114e-15 0.0000000e+00 
2.2634598e-17 2.3022713e-15 1.1855895e-17 
-3.9892162e-18 2.3474468e-15 5.1448761e-18 
-3.8195367e-18 2.3523971e-15 3.8795664e-18 
2.3478188e-17 2.3061895e-15 -1.4991270e-18 
2.7061217e-17 2.3156240e-15 5.0199246e-18 
0.0000000e+00 2.0674285e-15 0.0000000e+00 
0.0000000e+00 2.0694756e-15 0.0000000e+00 
-2.5468913e-17 2.3619984e-15 -7.8589318e-19 
-2.5105064e-17 2.3581488e-15 -4.0978784e-18 
0.0000000e+00 2.0717249e-15 0.0000000e+00 
0.0000000e+00 2.0656116e-15 0.0000000e+00 
8.5684075e-18 4.8390092e-16 3.1871902e-20 
9.5922254e-18 4.9831880e-16 4.4703537e-18 
7.4095390e-18 5.0481591e-16 4.4111954e-18 
8.6337109e-18 4.8755783e-16 -1.2216417e-18 
8.8949593e-18 4.8660910e-16 -1.2882754e-18 
0.0000000e+00 4.5169387e-16 0.0000000e+00 
0.0000000e+00 4.5406842e-16 0.0000000e+00 
-2.4072323e-18 5.0458102e-16 -2.8046667e-18 
-1.0187473e-18 5.0045745e-16 -3.3222586e-18 
0.0000000e+00 4.5295791e-16 0.0000000e+00 
0.0000000e+00 4.5269041e-16 0.0000000e+00 
2.9514505e-18 8.4375768e-16 1.7239667e-18 
9.0568154e-18 8.5659118e-16 6.2074462e-18 
7.2293923e-18 8.5919719e-16 7.0562634e-18 
1.7271167e-18 8.4459741e-16 3.4120882e-18 
1.8983590e-18 8.4274643e-16 2.4403288e-18 
0.0000000e+00 8.6075282e-16 0.0000000e+00 
0.0000000e+00 8.6128899e-16 0.0000000e+00 
-1.9256556e-18 8.5668425e-16 4.6215065e-18 
-4.3950179e-19 8.5506568e-16 5.0430704e-18 
0.0000000e+00 8.6106209e-16 0.0000000e+00 
0.0000000e+00 8.6191860e-16 0.0000000e+00 
-1.5954014e-18 1.0497974e-15 4.5892774e-18 
-1.3650394e-18 1.0389772e-15 9.7439337e-18 
-4.5300612e-18 1.0394962e-15 9.9954917e-18 
-3.4704602e-18 1.0504471e-15 4.5105869e-18 
-2.1060018e-18 1.0504075e-15 4.7036893e-18 
0.0000000e+00 1.0563988e-15 0.0000000e+00 
0.0000000e+00 1.0560692e-15 0.0000000e+00 
2.1090349e-18 1.0404768e-15 9.1680232e-18 
4.5424404e-18 1.0397676e-15 9.0735667e-18 
0.0000000e+00 1.0557562e-15 0.0000000e+00 
0.0000000e+00 1.0560110e-15 0.0000000e+00 
-1.7203534e-18 1.0396860e-15 1.7023293e-18 
-3.5035909e-18 1.0303101e-15 4.2619273e-18 
-4.6856006e-18 1.0302316e-15 2.8430646e-18 
-2.5654912e-18 1.0396379e-15 1.5955883e-18 
-2.3249880e-18 1.0402324e-15 1.9079614e-18 
0.0000000e+00 1.0454830e-15 0.0000000e+00 
0.0000000e+00 1.0449737e-15 0.0000000e+00 
2.0018675e-18 1.0302119e-15 3.4801503e-18 
3.0860843e-18 1.0302943e-15 3.6218231e-18 
0.0000000e+00 1.0448521e-15 0.0000000e+00 
0.0000000e+00 1.0447711e-15 0.0000000e+00 
0.0000000e+00 1.6417947e-07 0.0000000e+00 
0.0000000e+00 1.0183221e-15 0.0000000e+00 
-2.2027993e-19 1.0225349e-15 -1.0098704e-19 
1.8168451e-19 1.0224383e-15 -2.3292090e-19 
0.0000000e+00 1.0214453e-15 0.0000000e+00 
0.0000000e+00 1.0243640e-15 0.0000000e+00 
0.0000000e+00 1.0256433e-15 0.0000000e+00 