# vtk DataFile Version 4.0
vtk output
ASCII
DATASET UNSTRUCTURED_GRID
POINTS 1827 float
0.0000000e+00 0.0000000e+00 0.0000000e+00 
0.0000000e+00 0.0000000e+00 2.0000000e+01 
3.4700000e+00 0.0000000e+00 0.0000000e+00 
3.4700000e+00 0.0000000e+00 2.0000000e+01 
3.4700000e+00 1.0000000e+00 0.0000000e+00 
3.4700000e+00 1.0000000e+00 2.0000000e+01 
0.0000000e+00 1.0000000e+00 0.0000000e+00 
0.0000000e+00 1.0000000e+00 2.0000000e+01 
1.2500000e+00 2.5000000e+00 0.0000000e+00 
1.2500000e+00 2.5000000e+00 1.1700000e-01 
7.5000000e-01 2.5000000e+00 1.1700000e-01 
7.5000000e-01 2.5000000e+00 0.0000000e+00 
0.0000000e+00 2.5000000e+00 0.0000000e+00 
0.0000000e+00 2.5000000e+00 1.1700000e-01 
1.2500000e+00 2.8000000e+00 1.1700000e-01 
1.2500000e+00 2.8000000e+00 0.0000000e+00 
0.0000000e+00 2.8000000e+00 0.0000000e+00 
0.0000000e+00 2.8000000e+00 1.1700000e-01 
7.5000000e-01 2.5000000e+00 3.8299999e-01 
1.2500000e+00 2.5000000e+00 3.8299999e-01 
1.2500000e+00 2.5000000e+00 6.1699998e-01 
7.5000000e-01 2.5000000e+00 6.1699998e-01 
7.5000000e-01 2.5000000e+00 5.0000000e-01 
0.0000000e+00 2.5000000e+00 3.8299999e-01 
0.0000000e+00 2.5000000e+00 6.1699998e-01 
1.2500000e+00 2.8000000e+00 6.1699998e-01 
1.2500000e+00 2.8000000e+00 3.8299999e-01 
0.0000000e+00 2.8000000e+00 3.8299999e-01 
0.0000000e+00 2.8000000e+00 6.1699998e-01 
7.5000000e-01 2.5000000e+00 8.8300002e-01 
1.2500000e+00 2.5000000e+00 8.8300002e-01 
1.2500000e+00 2.5000000e+00 1.1170000e+00 
7.5000000e-01 2.5000000e+00 1.1170000e+00 
7.5000000e-01 2.5000000e+00 1.0000000e+00 
0.0000000e+00 2.5000000e+00 8.8300002e-01 
0.0000000e+00 2.5000000e+00 1.1170000e+00 
1.2500000e+00 2.8000000e+00 1.1170000e+00 
1.2500000e+00 2.8000000e+00 8.8300002e-01 
0.0000000e+00 2.8000000e+00 8.8300002e-01 
0.0000000e+00 2.8000000e+00 1.1170000e+00 
7.5000000e-01 2.5000000e+00 1.3830000e+00 
1.2500000e+00 2.5000000e+00 1.3830000e+00 
1.2500000e+00 2.5000000e+00 1.6170000e+00 
7.5000000e-01 2.5000000e+00 1.6170000e+00 
7.5000000e-01 2.5000000e+00 1.5000000e+00 
0.0000000e+00 2.5000000e+00 1.3830000e+00 
0.0000000e+00 2.5000000e+00 1.6170000e+00 
1.2500000e+00 2.8000000e+00 1.6170000e+00 
1.2500000e+00 2.8000000e+00 1.3830000e+00 
0.0000000e+00 2.8000000e+00 1.3830000e+00 
0.0000000e+00 2.8000000e+00 1.6170000e+00 
7.5000000e-01 2.5000000e+00 1.8830000e+00 
1.2500000e+00 2.5000000e+00 1.8830000e+00 
1.2500000e+00 2.5000000e+00 2.1170001e+00 
7.5000000e-01 2.5000000e+00 2.1170001e+00 
7.5000000e-01 2.5000000e+00 2.0000000e+00 
0.0000000e+00 2.5000000e+00 1.8830000e+00 
0.0000000e+00 2.5000000e+00 2.1170001e+00 
1.2500000e+00 2.8000000e+00 2.1170001e+00 
1.2500000e+00 2.8000000e+00 1.8830000e+00 
0.0000000e+00 2.8000000e+00 1.8830000e+00 
0.0000000e+00 2.8000000e+00 2.1170001e+00 
7.5000000e-01 2.5000000e+00 2.3829999e+00 
1.2500000e+00 2.5000000e+00 2.3829999e+00 
1.2500000e+00 2.5000000e+00 2.6170001e+00 
7.5000000e-01 2.5000000e+00 2.6170001e+00 
7.5000000e-01 2.5000000e+00 2.5000000e+00 
0.0000000e+00 2.5000000e+00 2.3829999e+00 
0.0000000e+00 2.5000000e+00 2.6170001e+00 
1.2500000e+00 2.8000000e+00 2.6170001e+00 
1.2500000e+00 2.8000000e+00 2.3829999e+00 
0.0000000e+00 2.8000000e+00 2.3829999e+00 
0.0000000e+00 2.8000000e+00 2.6170001e+00 
7.5000000e-01 2.5000000e+00 2.8829999e+00 
1.2500000e+00 2.5000000e+00 2.8829999e+00 
1.2500000e+00 2.5000000e+00 3.1170001e+00 
7.5000000e-01 2.5000000e+00 3.1170001e+00 
7.5000000e-01 2.5000000e+00 3.0000000e+00 
0.0000000e+00 2.5000000e+00 2.8829999e+00 
0.0000000e+00 2.5000000e+00 3.1170001e+00 
1.2500000e+00 2.8000000e+00 3.1170001e+00 
1.2500000e+00 2.8000000e+00 2.8829999e+00 
0.0000000e+00 2.8000000e+00 2.8829999e+00 
0.0000000e+00 2.8000000e+00 3.1170001e+00 
7.5000000e-01 2.5000000e+00 3.3829999e+00 
1.2500000e+00 2.5000000e+00 3.3829999e+00 
1.2500000e+00 2.5000000e+00 3.6170001e+00 
7.5000000e-01 2.5000000e+00 3.6170001e+00 
7.5000000e-01 2.5000000e+00 3.5000000e+00 
0.0000000e+00 2.5000000e+00 3.3829999e+00 
0.0000000e+00 2.5000000e+00 3.6170001e+00 
1.2500000e+00 2.8000000e+00 3.6170001e+00 
1.2500000e+00 2.8000000e+00 3.3829999e+00 
0.0000000e+00 2.8000000e+00 3.3829999e+00 
0.0000000e+00 2.8000000e+00 3.6170001e+00 
7.5000000e-01 2.5000000e+00 3.8829999e+00 
1.2500000e+00 2.5000000e+00 3.8829999e+00 
1.2500000e+00 2.5000000e+00 4.1170001e+00 
7.5000000e-01 2.5000000e+00 4.1170001e+00 
7.5000000e-01 2.5000000e+00 4.0000000e+00 
0.0000000e+00 2.5000000e+00 3.8829999e+00 
0.0000000e+00 2.5000000e+00 4.1170001e+00 
1.2500000e+00 2.8000000e+00 4.1170001e+00 
1.2500000e+00 2.8000000e+00 3.8829999e+00 
0.0000000e+00 2.8000000e+00 3.8829999e+00 
0.0000000e+00 2.8000000e+00 4.1170001e+00 
7.5000000e-01 2.5000000e+00 4.3829999e+00 
1.2500000e+00 2.5000000e+00 4.3829999e+00 
1.2500000e+00 2.5000000e+00 4.6170001e+00 
7.5000000e-01 2.5000000e+00 4.6170001e+00 
7.5000000e-01 2.5000000e+00 4.5000000e+00 
0.0000000e+00 2.5000000e+00 4.3829999e+00 
0.0000000e+00 2.5000000e+00 4.6170001e+00 
1.2500000e+00 2.8000000e+00 4.6170001e+00 
1.2500000e+00 2.8000000e+00 4.3829999e+00 
0.0000000e+00 2.8000000e+00 4.3829999e+00 
0.0000000e+00 2.8000000e+00 4.6170001e+00 
7.5000000e-01 2.5000000e+00 4.8829999e+00 
1.2500000e+00 2.5000000e+00 4.8829999e+00 
1.2500000e+00 2.5000000e+00 5.1170001e+00 
7.5000000e-01 2.5000000e+00 5.1170001e+00 
7.5000000e-01 2.5000000e+00 5.0000000e+00 
0.0000000e+00 2.5000000e+00 4.8829999e+00 
0.0000000e+00 2.5000000e+00 5.1170001e+00 
1.2500000e+00 2.8000000e+00 5.1170001e+00 
1.2500000e+00 2.8000000e+00 4.8829999e+00 
0.0000000e+00 2.8000000e+00 4.8829999e+00 
0.0000000e+00 2.8000000e+00 5.1170001e+00 
7.5000000e-01 2.5000000e+00 5.3829999e+00 
1.2500000e+00 2.5000000e+00 5.3829999e+00 
1.2500000e+00 2.5000000e+00 5.6170001e+00 
7.5000000e-01 2.5000000e+00 5.6170001e+00 
7.5000000e-01 2.5000000e+00 5.5000000e+00 
0.0000000e+00 2.5000000e+00 5.3829999e+00 
0.0000000e+00 2.5000000e+00 5.6170001e+00 
1.2500000e+00 2.8000000e+00 5.6170001e+00 
1.2500000e+00 2.8000000e+00 5.3829999e+00 
0.0000000e+00 2.8000000e+00 5.3829999e+00 
0.0000000e+00 2.8000000e+00 5.6170001e+00 
7.5000000e-01 2.5000000e+00 5.8829999e+00 
1.2500000e+00 2.5000000e+00 5.8829999e+00 
1.2500000e+00 2.5000000e+00 6.1170001e+00 
7.5000000e-01 2.5000000e+00 6.1170001e+00 
7.5000000e-01 2.5000000e+00 6.0000000e+00 
0.0000000e+00 2.5000000e+00 5.8829999e+00 
0.0000000e+00 2.5000000e+00 6.1170001e+00 
1.2500000e+00 2.8000000e+00 6.1170001e+00 
1.2500000e+00 2.8000000e+00 5.8829999e+00 
0.0000000e+00 2.8000000e+00 5.8829999e+00 
0.0000000e+00 2.8000000e+00 6.1170001e+00 
7.5000000e-01 2.5000000e+00 6.3829999e+00 
1.2500000e+00 2.5000000e+00 6.3829999e+00 
1.2500000e+00 2.5000000e+00 6.6170001e+00 
7.5000000e-01 2.5000000e+00 6.6170001e+00 
7.5000000e-01 2.5000000e+00 6.5000000e+00 
0.0000000e+00 2.5000000e+00 6.3829999e+00 
0.0000000e+00 2.5000000e+00 6.6170001e+00 
1.2500000e+00 2.8000000e+00 6.6170001e+00 
1.2500000e+00 2.8000000e+00 6.3829999e+00 
0.0000000e+00 2.8000000e+00 6.3829999e+00 
0.0000000e+00 2.8000000e+00 6.6170001e+00 
7.5000000e-01 2.5000000e+00 6.8829999e+00 
1.2500000e+00 2.5000000e+00 6.8829999e+00 
1.2500000e+00 2.5000000e+00 7.1170001e+00 
7.5000000e-01 2.5000000e+00 7.1170001e+00 
7.5000000e-01 2.5000000e+00 7.0000000e+00 
0.0000000e+00 2.5000000e+00 6.8829999e+00 
0.0000000e+00 2.5000000e+00 7.1170001e+00 
1.2500000e+00 2.8000000e+00 7.1170001e+00 
1.2500000e+00 2.8000000e+00 6.8829999e+00 
0.0000000e+00 2.8000000e+00 6.8829999e+00 
0.0000000e+00 2.8000000e+00 7.1170001e+00 
7.5000000e-01 2.5000000e+00 7.3829999e+00 
1.2500000e+00 2.5000000e+00 7.3829999e+00 
1.2500000e+00 2.5000000e+00 7.6170001e+00 
7.5000000e-01 2.5000000e+00 7.6170001e+00 
7.5000000e-01 2.5000000e+00 7.5000000e+00 
0.0000000e+00 2.5000000e+00 7.3829999e+00 
0.0000000e+00 2.5000000e+00 7.6170001e+00 
1.2500000e+00 2.8000000e+00 7.6170001e+00 
1.2500000e+00 2.8000000e+00 7.3829999e+00 
0.0000000e+00 2.8000000e+00 7.3829999e+00 
0.0000000e+00 2.8000000e+00 7.6170001e+00 
7.5000000e-01 2.5000000e+00 7.8829999e+00 
1.2500000e+00 2.5000000e+00 7.8829999e+00 
1.2500000e+00 2.5000000e+00 8.1169996e+00 
7.5000000e-01 2.5000000e+00 8.1169996e+00 
7.5000000e-01 2.5000000e+00 8.0000000e+00 
0.0000000e+00 2.5000000e+00 7.8829999e+00 
0.0000000e+00 2.5000000e+00 8.1169996e+00 
1.2500000e+00 2.8000000e+00 8.1169996e+00 
1.2500000e+00 2.8000000e+00 7.8829999e+00 
0.0000000e+00 2.8000000e+00 7.8829999e+00 
0.0000000e+00 2.8000000e+00 8.1169996e+00 
7.5000000e-01 2.5000000e+00 8.3830004e+00 
1.2500000e+00 2.5000000e+00 8.3830004e+00 
1.2500000e+00 2.5000000e+00 8.6169996e+00 
7.5000000e-01 2.5000000e+00 8.6169996e+00 
7.5000000e-01 2.5000000e+00 8.5000000e+00 
0.0000000e+00 2.5000000e+00 8.3830004e+00 
0.0000000e+00 2.5000000e+00 8.6169996e+00 
1.2500000e+00 2.8000000e+00 8.6169996e+00 
1.2500000e+00 2.8000000e+00 8.3830004e+00 
0.0000000e+00 2.8000000e+00 8.3830004e+00 
0.0000000e+00 2.8000000e+00 8.6169996e+00 
7.5000000e-01 2.5000000e+00 8.8830004e+00 
1.2500000e+00 2.5000000e+00 8.8830004e+00 
1.2500000e+00 2.5000000e+00 9.1169996e+00 
7.5000000e-01 2.5000000e+00 9.1169996e+00 
7.5000000e-01 2.5000000e+00 9.0000000e+00 
0.0000000e+00 2.5000000e+00 8.8830004e+00 
0.0000000e+00 2.5000000e+00 9.1169996e+00 
1.2500000e+00 2.8000000e+00 9.1169996e+00 
1.2500000e+00 2.8000000e+00 8.8830004e+00 
0.0000000e+00 2.8000000e+00 8.8830004e+00 
0.0000000e+00 2.8000000e+00 9.1169996e+00 
7.5000000e-01 2.5000000e+00 9.3830004e+00 
1.2500000e+00 2.5000000e+00 9.3830004e+00 
1.2500000e+00 2.5000000e+00 9.6169996e+00 
7.5000000e-01 2.5000000e+00 9.6169996e+00 
7.5000000e-01 2.5000000e+00 9.5000000e+00 
0.0000000e+00 2.5000000e+00 9.3830004e+00 
0.0000000e+00 2.5000000e+00 9.6169996e+00 
1.2500000e+00 2.8000000e+00 9.6169996e+00 
1.2500000e+00 2.8000000e+00 9.3830004e+00 
0.0000000e+00 2.8000000e+00 9.3830004e+00 
0.0000000e+00 2.8000000e+00 9.6169996e+00 
7.5000000e-01 2.5000000e+00 9.8830004e+00 
1.2500000e+00 2.5000000e+00 9.8830004e+00 
1.2500000e+00 2.5000000e+00 1.0117000e+01 
[...]
POINT_DATA 1827
FIELD FieldData 2
DISPLACEMENT 3 1827  float
0.0000000e+00 0.0000000e+00 0.0000000e+00 
0.0000000e+00 0.0000000e+00 0.0000000e+00 
0.0000000e+00 0.0000000e+00 0.0000000e+00 
0.0000000e+00 0.0000000e+00 0.0000000e+00 
0.0000000e+00 -1.9683115e-05 0.0000000e+00 
0.0000000e+00 -6.6850919e-07 0.0000000e+00 
0.0000000e+00 -2.1354776e-05 0.0000000e+00 
0.0000000e+00 -3.2997102e-06 0.0000000e+00 
0.0000000e+00 -1.0175843e-08 0.0000000e+00 
-2.6965171e-08 -2.7934030e-08 -1.5174848e-08 
-2.8548373e-09 1.9582443e-07 -6.9254882e-09 
0.0000000e+00 2.0993367e-07 0.0000000e+00 
0.0000000e+00 1.5879611e-07 0.0000000e+00 
0.0000000e+00 1.5552554e-07 0.0000000e+00 
2.2203855e-08 1.8344505e-08 3.7992263e-09 
0.0000000e+00 1.7830754e-08 0.0000000e+00 
0.0000000e+00 1.5900287e-07 0.0000000e+00 
0.0000000e+00 1.5574605e-07 0.0000000e+00 
-1.3766150e-07 -1.2844384e-06 2.6233786e-07 
-2.1408836e-07 -1.8589092e-06 4.3953330e-07 
-2.8654583e-07 -1.7456822e-06 4.3535687e-07 
-2.0775524e-07 -1.1912688e-06 2.6167109e-07 
-1.6752747e-07 -1.2321661e-06 2.5923438e-07 
0.0000000e+00 -9.6591532e-07 0.0000000e+00 
0.0000000e+00 -9.1420401e-07 0.0000000e+00 
5.7676893e-08 -1.7185605e-06 3.0263988e-07 
1.3891326e-07 -1.8245704e-06 3.0128811e-07 
0.0000000e+00 -9.6556414e-07 0.0000000e+00 
0.0000000e+00 -9.2811189e-07 0.0000000e+00 
-1.3109498e-07 9.9973840e-06 1.6868171e-07 
-1.6281599e-07 9.4700281e-06 3.2919846e-07 
-2.4382280e-07 9.6447502e-06 3.2475842e-07 
-1.8169938e-07 1.0098121e-05 1.7383313e-07 
-1.5411608e-07 1.0049542e-05 1.6725990e-07 
0.0000000e+00 1.0396915e-05 0.0000000e+00 
0.0000000e+00 1.0438315e-05 0.0000000e+00 
6.4330678e-08 9.6414506e-06 1.5419764e-07 
1.2360216e-07 9.5135292e-06 1.5598066e-07 
0.0000000e+00 1.0392277e-05 0.0000000e+00 
0.0000000e+00 1.0433561e-05 0.0000000e+00 
-4.6482867e-08 1.9016017e-05 4.0008092e-07 
-4.1329436e-08 1.8756189e-05 8.0588927e-07 
-2.4372034e-07 1.8816580e-05 8.1601934e-07 
-1.9380347e-07 1.9061665e-05 4.0874079e-07 
-1.1823554e-07 1.9033698e-05 4.0042084e-07 
0.0000000e+00 1.9264824e-05 0.0000000e+00 
0.0000000e+00 1.9287614e-05 0.0000000e+00 
-7.9167364e-08 1.8820027e-05 7.2548227e-07 
1.0810335e-07 1.8762217e-05 7.2924257e-07 
0.0000000e+00 1.9263689e-05 0.0000000e+00 
0.0000000e+00 1.9292749e-05 0.0000000e+00 
-8.9989335e-08 1.8722771e-05 2.5219256e-09 
-1.0726192e-07 1.8443747e-05 -1.9905013e-08 
-9.7146277e-08 1.8432991e-05 -2.8622813e-08 
-8.4851180e-08 1.8714554e-05 4.6925650e-09 
-8.5313552e-08 1.8719806e-05 3.6959871e-09 
0.0000000e+00 1.8939603e-05 0.0000000e+00 
0.0000000e+00 1.8931622e-05 0.0000000e+00 
6.6428662e-08 1.8446335e-05 -1.0700729e-08 
5.6614542e-08 1.8455155e-05 -1.1074894e-08 
0.0000000e+00 1.8931762e-05 0.0000000e+00 
0.0000000e+00 1.8925790e-05 0.0000000e+00 
-1.2665205e-07 1.5330665e-05 -2.7586211e-07 
-1.9130121e-07 1.5142451e-05 -6.5317852e-07 
-1.2145458e-08 1.5086457e-05 -6.5881079e-07 
-5.3001847e-09 1.5283898e-05 -2.8097233e-07 
-6.2452415e-08 1.5311187e-05 -2.7541927e-07 
0.0000000e+00 1.5350552e-05 0.0000000e+00 
0.0000000e+00 1.5330590e-05 0.0000000e+00 
1.0419187e-07 1.5105152e-05 -5.7016564e-07 
-6.4415282e-08 1.5158215e-05 -5.7297552e-07 
0.0000000e+00 1.5347789e-05 0.0000000e+00 
0.0000000e+00 1.5328345e-05 0.0000000e+00 
-1.2179454e-07 1.6341522e-05 -1.0028361e-07 
-1.7374144e-07 1.6107479e-05 -2.1390508e-07 
-1.1709264e-07 1.6150145e-05 -2.0727875e-07 
-7.9912489e-08 1.6363900e-05 -9.8375267e-08 
-9.7924158e-08 1.6355360e-05 -9.8563952e-08 
0.0000000e+00 1.6452965e-05 0.0000000e+00 
0.0000000e+00 1.6464825e-05 0.0000000e+00 
3.1264673e-08 1.6154612e-05 -2.4371897e-07 
-2.4302265e-08 1.6127293e-05 -2.4375672e-07 
0.0000000e+00 1.6457812e-05 0.0000000e+00 
0.0000000e+00 1.6464266e-05 0.0000000e+00 
-2.5175954e-08 2.1894641e-05 3.1197399e-07 
-6.1468967e-08 2.1590729e-05 6.0249641e-07 
-1.4158496e-07 2.1745362e-05 6.0425486e-07 
-1.2534655e-07 2.1976897e-05 3.1301283e-07 
-7.2576150e-08 2.1935628e-05 3.0823642e-07 
0.0000000e+00 2.2111308e-05 0.0000000e+00 
0.0000000e+00 2.2141907e-05 0.0000000e+00 
-4.0269619e-09 2.1738515e-05 4.4455751e-07 
1.2704548e-07 2.1622245e-05 4.4414304e-07 
0.0000000e+00 2.2098413e-05 0.0000000e+00 
0.0000000e+00 2.2130132e-05 0.0000000e+00 
4.7936140e-08 2.7807813e-05 -1.5110263e-08 
8.4464830e-08 2.7882219e-05 -3.6937056e-08 
9.9124009e-08 2.7926199e-05 -5.2544411e-08 
6.1596701e-08 2.7839858e-05 -1.8570152e-08 
5.4438594e-08 2.7824988e-05 -1.7149121e-08 
0.0000000e+00 2.7721400e-05 0.0000000e+00 
0.0000000e+00 2.7743174e-05 0.0000000e+00 
2.8112055e-08 2.7924809e-05 -9.3705708e-08 
1.3526589e-08 2.7886572e-05 -9.3655729e-08 
0.0000000e+00 2.7732476e-05 0.0000000e+00 
0.0000000e+00 2.7743001e-05 0.0000000e+00 
3.3457199e-09 3.1735708e-05 -3.4148675e-07 
-3.9052659e-09 3.1945532e-05 -7.2513393e-07 
1.7414936e-07 3.1902411e-05 -7.1874541e-07 
1.3567514e-07 3.1702682e-05 -3.4225397e-07 
6.8360542e-08 3.1717285e-05 -3.3860852e-07 
0.0000000e+00 3.1587089e-05 0.0000000e+00 
0.0000000e+00 3.1573338e-05 0.0000000e+00 
5.1233915e-08 3.1893866e-05 -6.5501962e-07 
-1.2292593e-07 3.1936819e-05 -6.5491207e-07 
0.0000000e+00 3.1593805e-05 0.0000000e+00 
0.0000000e+00 3.1571930e-05 0.0000000e+00 
-6.1032170e-09 3.2238280e-05 4.4363496e-08 
-2.9846728e-08 3.2355958e-05 1.0261559e-07 
-4.6941963e-08 3.2361826e-05 1.0461955e-07 
-2.4119212e-08 3.2242566e-05 4.6399030e-08 
-1.5622847e-08 3.2242886e-05 4.5026155e-08 
0.0000000e+00 3.2187883e-05 0.0000000e+00 
0.0000000e+00 3.2191896e-05 0.0000000e+00 
-9.7035752e-08 3.2354583e-05 9.5318264e-08 
-6.9452206e-08 3.2348398e-05 9.2230110e-08 
0.0000000e+00 3.2195177e-05 0.0000000e+00 
0.0000000e+00 3.2196869e-05 0.0000000e+00 
7.2662836e-08 3.0113773e-05 8.7490150e-08 
8.1393608e-08 3.0379168e-05 1.5794188e-07 
5.0929170e-08 3.0357978e-05 1.6795700e-07 
4.1442558e-08 3.0107527e-05 8.8559233e-08 
5.4446346e-08 3.0110466e-05 8.7633623e-08 
0.0000000e+00 3.0014557e-05 0.0000000e+00 
0.0000000e+00 3.0015713e-05 0.0000000e+00 
-9.1090463e-08 3.0345935e-05 1.7759083e-07 
-5.3222394e-08 3.0356088e-05 1.7740508e-07 
0.0000000e+00 3.0019990e-05 0.0000000e+00 
0.0000000e+00 3.0018638e-05 0.0000000e+00 
8.4788304e-08 2.5753874e-05 3.4974155e-07 
1.1353576e-07 2.5767333e-05 8.1093350e-07 
-8.6115300e-08 2.5752530e-05 8.1519727e-07 
-7.3727108e-08 2.5757894e-05 3.4692565e-07 
4.3836965e-09 2.5759340e-05 3.4528986e-07 
0.0000000e+00 2.5829053e-05 0.0000000e+00 
0.0000000e+00 2.5830404e-05 0.0000000e+00 
-9.4227893e-08 2.5756612e-05 7.9137362e-07 
1.2043341e-07 2.5753194e-05 7.9289600e-07 
0.0000000e+00 2.5820525e-05 0.0000000e+00 
0.0000000e+00 2.5830910e-05 0.0000000e+00 
8.4882949e-08 2.1818283e-05 2.4792632e-07 
1.3088548e-07 2.1908354e-05 5.3779581e-07 
1.5972991e-09 2.1940079e-05 5.3662512e-07 
-1.4816208e-08 2.1836669e-05 2.4670513e-07 
3.3806266e-08 2.1828491e-05 2.4478376e-07 
0.0000000e+00 2.1809294e-05 0.0000000e+00 
0.0000000e+00 2.1815342e-05 0.0000000e+00 
-6.7694330e-08 2.1930397e-05 4.9064505e-07 
6.4258955e-08 2.1903325e-05 4.9191732e-07 
0.0000000e+00 2.1808357e-05 0.0000000e+00 
0.0000000e+00 2.1818943e-05 0.0000000e+00 
3.8337038e-08 1.9277002e-05 2.2644336e-07 
5.9398175e-08 1.9242714e-05 5.4976738e-07 
-1.0003136e-07 1.9261694e-05 5.5132136e-07 
-6.3548974e-08 1.9293271e-05 2.2446329e-07 
-1.1962241e-08 1.9287985e-05 2.2314423e-07 
0.0000000e+00 1.9290255e-05 0.0000000e+00 
0.0000000e+00 1.9297515e-05 0.0000000e+00 
-7.2019155e-08 1.9265486e-05 5.0949910e-07 
7.3604284e-08 1.9246028e-05 5.1007885e-07 
0.0000000e+00 1.9290315e-05 0.0000000e+00 
0.0000000e+00 1.9299887e-05 0.0000000e+00 
-2.2796058e-08 1.8452047e-05 -9.1436895e-08 
-3.3638727e-08 1.8269391e-05 -1.6185460e-07 
8.6168495e-09 1.8240913e-05 -1.6951952e-07 
6.2012200e-09 1.8430932e-05 -9.5122211e-08 
-6.4929955e-09 1.8443929e-05 -9.2193908e-08 
0.0000000e+00 1.8498837e-05 0.0000000e+00 
0.0000000e+00 1.8489189e-05 0.0000000e+00 
1.0050346e-07 1.8260345e-05 -1.3359947e-07 
6.8027745e-08 1.8285225e-05 -1.3306568e-07 
0.0000000e+00 1.8490860e-05 0.0000000e+00 
0.0000000e+00 1.8484498e-05 0.0000000e+00 
-8.5137216e-08 1.5168839e-05 -3.3487586e-07 
-8.6264940e-08 1.4924832e-05 -6.7308929e-07 
5.2501576e-08 1.4809548e-05 -6.8173819e-07 
3.1413201e-08 1.5098698e-05 -3.3614671e-07 
-2.5843667e-08 1.5133663e-05 -3.3154583e-07 
0.0000000e+00 1.5344285e-05 0.0000000e+00 
0.0000000e+00 1.5308342e-05 0.0000000e+00 
1.9802822e-07 1.4832655e-05 -5.4215002e-07 
4.3540162e-08 1.4928428e-05 -5.4159352e-07 
0.0000000e+00 1.5325708e-05 0.0000000e+00 
0.0000000e+00 1.5297288e-05 0.0000000e+00 
-1.0091096e-07 1.0211536e-06 7.2515050e-08 
-1.2963741e-07 6.5236623e-07 7.2504072e-08 
-1.4901880e-07 4.6890639e-07 6.8715465e-08 
-1.2522619e-07 9.2007684e-07 7.4574466e-08 
-1.1021481e-07 9.7517955e-07 7.4057944e-08 
0.0000000e+00 1.2992843e-06 0.0000000e+00 
0.0000000e+00 1.2566735e-06 0.0000000e+00 
9.4062308e-08 5.1339271e-07 2.4876508e-07 
1.1145080e-07 6.4333852e-07 2.4974025e-07 
0.0000000e+00 1.2866760e-06 0.0000000e+00 
0.0000000e+00 1.2505537e-06 0.0000000e+00 
6.5805160e-08 -2.8953165e-05 -1.1483463e-07 
8.6410054e-08 -2.8718137e-05 -2.0099299e-07 
1.1358240e-07 -2.9075100e-05 -1.9525488e-07 
7.6467025e-08 -2.9170742e-05 -1.1182460e-07 
6.9054160e-08 -2.9064449e-05 -1.0924488e-07 
0.0000000e+00 -2.9108876e-05 0.0000000e+00 
0.0000000e+00 -2.9198996e-05 0.0000000e+00 
-1.3037402e-09 -2.9041237e-05 1.6157347e-07 
-1.6189549e-08 -2.8771366e-05 1.6526413e-07 
0.0000000e+00 -2.9128705e-05 0.0000000e+00 
0.0000000e+00 -2.9191138e-05 0.0000000e+00 
1.7475358e-07 -8.3170533e-05 1.4470606e-07 
2.2893528e-07 -8.2657869e-05 1.9375571e-07 
1.7595912e-07 -8.3131330e-05 1.9358082e-07 
1.0748693e-07 -8.3426086e-05 1.4466789e-07 
1.3657345e-07 -8.3303756e-05 1.4694922e-07 
0.0000000e+00 -8.3398292e-05 0.0000000e+00 
0.0000000e+00 -8.3512168e-05 0.0000000e+00 
-7.9617827e-08 -8.3090439e-05 6.4847211e-07 
-1.5094692e-08 -8.2758117e-05 6.4650203e-07 
0.0000000e+00 -8.3425584e-05 0.0000000e+00 
0.0000000e+00 -8.3508698e-05 0.0000000e+00 
3.8742718e-07 -1.6516680e-04 -5.0636891e-07 
5.2568151e-07 -1.6328138e-04 -8.3632585e-07 
6.3461653e-07 -1.6403283e-04 -8.2194191e-07 
4.6325206e-07 -1.6570749e-04 -5.0552853e-07 
4.0987251e-07 -1.6543469e-04 -4.8886955e-07 
0.0000000e+00 -1.6632365e-04 0.0000000e+00 
0.0000000e+00 -1.6654460e-04 0.0000000e+00 
-4.0214169e-07 -1.6408117e-04 1.5293351e-10 
-5.2000865e-07 -1.6344208e-04 3.4456960e-09 
0.0000000e+00 -1.6626684e-04 0.0000000e+00 
0.0000000e+00 -1.6643626e-04 0.0000000e+00 
4.0631269e-07 -2.6941640e-04 8.9702831e-07 
5.3489941e-07 -2.6795125e-04 1.7159842e-06 
1.2344168e-07 -2.6834381e-04 1.7652552e-06 
5.4166289e-08 -2.6964038e-04 9.3825122e-07 
2.0771861e-07 -2.6956867e-04 9.1128248e-07 
0.0000000e+00 -2.6982659e-04 0.0000000e+00 
0.0000000e+00 -2.6996888e-04 0.0000000e+00 
-6.4914661e-07 -2.6840405e-04 2.0826426e-06 
-2.2407387e-07 -2.6813755e-04 2.0846421e-06 
0.0000000e+00 -2.6984926e-04 0.0000000e+00 
0.0000000e+00 -2.6990226e-04 0.0000000e+00 
5.6552483e-07 -3.5032711e-04 -9.0350460e-07 
7.6256930e-07 -3.4704799e-04 -1.6413119e-06 
1.0952772e-06 -3.4755803e-04 -1.5785150e-06 
8.2489225e-07 -3.5063043e-04 -8.2538480e-07 
6.6081554e-07 -3.5056507e-04 -8.5106876e-07 
0.0000000e+00 -3.5187587e-04 0.0000000e+00 
0.0000000e+00 -3.5202014e-04 0.0000000e+00 
-7.3698817e-07 -3.4773131e-04 -1.0698819e-06 
-1.0574979e-06 -3.4733670e-04 -1.0653957e-06 
0.0000000e+00 -3.5182529e-04 0.0000000e+00 
0.0000000e+00 -3.5194561e-04 0.0000000e+00 
1.2498610e-07 -3.1296432e-04 -1.0701173e-06 
1.8532431e-07 -3.1122754e-04 -2.3154882e-06 
8.0068730e-07 -3.1089538e-04 -2.2956706e-06 
5.8987553e-07 -3.1270253e-04 -1.0341273e-06 
3.3557293e-07 -3.1288140e-04 -1.0455825e-06 
0.0000000e+00 -3.1362005e-04 0.0000000e+00 
0.0000000e+00 -3.1352218e-04 0.0000000e+00 
-2.1982459e-07 -3.1106037e-04 -2.6073303e-06 
-8.1824055e-07 -3.1133028e-04 -2.6135313e-06 
0.0000000e+00 -3.1353507e-04 0.0000000e+00 
0.0000000e+00 -3.1350358e-04 0.0000000e+00 
9.8454151e-08 -1.9475997e-04 -4.6286203e-07 
1.5562505e-07 -1.9353000e-04 -1.3065803e-06 
5.7589966e-07 -1.9278062e-04 -1.2850647e-06 
4.0470974e-07 -1.9418501e-04 -4.3253348e-07 
2.3428339e-07 -1.9449272e-04 -4.5074484e-07 
0.0000000e+00 -1.9503491e-04 0.0000000e+00 
0.0000000e+00 -1.9472225e-04 0.0000000e+00 
-1.6158201e-07 -1.9295067e-04 -2.0655968e-06 
-5.8457573e-07 -1.9358298e-04 -2.0733034e-06 
0.0000000e+00 -1.9490620e-04 0.0000000e+00 
0.0000000e+00 -1.9475599e-04 0.0000000e+00 
2.8738512e-07 -8.6521955e-05 5.2259088e-07 
4.3074181e-07 -8.5712745e-05 1.1423458e-06 
1.9603249e-07 -8.4789011e-05 1.1569444e-06 
1.3942872e-07 -8.5955602e-05 5.3346872e-07 
2.0590129e-07 -8.6259686e-05 5.1545339e-07 
0.0000000e+00 -8.6907530e-05 0.0000000e+00 
0.0000000e+00 -8.6637396e-05 0.0000000e+00 
-3.8277540e-07 -8.4961292e-05 1.8650461e-07 
-1.6323740e-07 -8.5666783e-05 1.8596452e-07 
0.0000000e+00 -8.6799264e-05 0.0000000e+00 
0.0000000e+00 -8.6638771e-05 0.0000000e+00 
-1.0810763e-07 -1.6882668e-05 -3.0205658e-07 
-1.7834425e-07 -1.7181677e-05 -7.6449646e-07 
8.7863626e-08 -1.6720956e-05 -7.4498053e-07 
5.7446840e-08 -1.6595235e-05 -3.0439728e-07 
-2.6833021e-08 -1.6728405e-05 -3.0472916e-07 
0.0000000e+00 -1.6582160e-05 0.0000000e+00 
0.0000000e+00 -1.6473001e-05 0.0000000e+00 
2.0805800e-07 -1.6771401e-05 -1.1879753e-06 
-2.8461550e-08 -1.7115917e-05 -1.1834053e-06 
0.0000000e+00 -1.6573649e-05 0.0000000e+00 
0.0000000e+00 -1.6487244e-05 0.0000000e+00 
4.8097874e-08 2.0447795e-05 2.1916416e-07 
7.8889961e-08 2.0349527e-05 4.0884450e-07 
1.4047076e-08 2.0633250e-05 3.9074556e-07 
-4.3817985e-09 2.0612422e-05 2.1786740e-07 
2.2286510e-08 2.0530768e-05 2.1252313e-07 
0.0000000e+00 2.0566982e-05 0.0000000e+00 
0.0000000e+00 2.0637533e-05 0.0000000e+00 
2.0718463e-08 2.0598787e-05 1.1297702e-07 
8.7507829e-08 2.0385844e-05 1.1110598e-07 
0.0000000e+00 2.0576463e-05 0.0000000e+00 
0.0000000e+00 2.0628047e-05 0.0000000e+00 
1.1687096e-07 2.9667850e-05 4.7083671e-07 
1.5753707e-07 2.9711675e-05 9.7014515e-07 
-6.9350868e-08 2.9818002e-05 9.8821988e-07 
-5.9256809e-08 2.9738605e-05 4.7419525e-07 
2.8426250e-08 2.9701579e-05 4.6717165e-07 
0.0000000e+00 2.9708444e-05 0.0000000e+00 
0.0000000e+00 2.9738583e-05 0.0000000e+00 
-1.1038253e-07 2.9803243e-05 8.4038300e-07 
1.1860840e-07 2.9710869e-05 8.4557922e-07 
0.0000000e+00 2.9708934e-05 0.0000000e+00 
0.0000000e+00 2.9738849e-05 0.0000000e+00 
7.5338569e-08 2.0011292e-05 4.7807833e-07 
1.0411041e-07 1.9960215e-05 9.9512408e-07 
-1.4232833e-07 1.9964307e-05 9.9623071e-07 
-1.1128370e-07 2.0017735e-05 4.7957951e-07 
-1.6291416e-08 2.0015106e-05 4.7424166e-07 
0.0000000e+00 2.0078625e-05 0.0000000e+00 
0.0000000e+00 2.0081743e-05 0.0000000e+00 
-1.0942906e-07 1.9971048e-05 9.6122881e-07 
1.3123700e-07 1.9956757e-05 9.6348572e-07 
0.0000000e+00 2.0071229e-05 0.0000000e+00 
0.0000000e+00 2.0084701e-05 0.0000000e+00 
-2.4242274e-08 4.2887455e-06 8.9042793e-08 
-1.5157040e-08 4.0927384e-06 3.4331018e-07 
-1.5061971e-07 3.9465435e-06 3.2130242e-07 
-9.7377736e-08 4.2069805e-06 8.2539550e-08 
-5.7458212e-08 4.2530537e-06 8.6284714e-08 
0.0000000e+00 4.3531386e-06 0.0000000e+00 
0.0000000e+00 4.3170253e-06 0.0000000e+00 
-9.3893835e-09 3.9859674e-06 4.5475596e-07 
1.0835024e-07 4.0908358e-06 4.5187755e-07 
0.0000000e+00 4.3481878e-06 0.0000000e+00 
0.0000000e+00 4.3236605e-06 0.0000000e+00 
-6.6284031e-08 -5.6075555e-06 -1.9476259e-07 
-9.2102070e-08 -5.7276716e-06 -3.8770509e-07 
-6.3369674e-09 -5.8082319e-06 -4.0090578e-07 
2.3536380e-09 -5.6577314e-06 -1.9870458e-07 
-3.0331822e-08 -5.6286349e-06 -1.9423841e-07 
0.0000000e+00 -5.5930473e-06 0.0000000e+00 
0.0000000e+00 -5.6152307e-06 0.0000000e+00 
7.3945237e-08 -5.7877278e-06 -3.0259159e-07 
-1.3012595e-08 -5.7229390e-06 -3.0546488e-07 
0.0000000e+00 -5.5994128e-06 0.0000000e+00 
0.0000000e+00 -5.6170429e-06 0.0000000e+00 
-7.1712577e-08 -6.0887487e-06 -4.4340973e-07 
-9.0669189e-08 -6.0901202e-06 -8.8353596e-07 
1.1487855e-07 -6.1118990e-06 -8.8259242e-07 
9.3002001e-08 -6.1164433e-06 -4.4262859e-07 
1.1479903e-08 -6.1041578e-06 -4.3937260e-07 
0.0000000e+00 -6.1364694e-06 0.0000000e+00 
0.0000000e+00 -6.1456153e-06 0.0000000e+00 
1.1071769e-07 -6.1158835e-06 -8.3055335e-07 
-9.5718974e-08 -6.0823522e-06 -8.3127395e-07 
0.0000000e+00 -6.1345863e-06 0.0000000e+00 
0.0000000e+00 -6.1533069e-06 0.0000000e+00 
8.8673602e-09 -1.3859491e-06 -1.7042365e-07 
1.0205594e-08 -1.1815491e-06 -3.4993914e-07 
9.7236814e-08 -1.1868481e-06 -3.4089413e-07 
7.3674840e-08 -1.3897879e-06 -1.6567473e-07 
3.9329354e-08 -1.3917507e-06 -1.6636812e-07 
0.0000000e+00 -1.4728079e-06 0.0000000e+00 
0.0000000e+00 -1.4779837e-06 0.0000000e+00 
-2.0329381e-08 -1.2026306e-06 -3.3190616e-07 
-1.0247000e-07 -1.1953017e-06 -3.3035303e-07 
0.0000000e+00 -1.4681339e-06 0.0000000e+00 
0.0000000e+00 -1.4717880e-06 0.0000000e+00 
7.2894643e-08 1.5713217e-06 2.8624908e-07 
9.4304596e-08 1.7427292e-06 5.3760130e-07 
-2.8743425e-08 1.7800498e-06 5.5179737e-07 
-2.4707058e-08 1.6070003e-06 2.9071018e-07 
2.1389040e-08 1.5870626e-06 2.8584162e-07 
0.0000000e+00 1.5097000e-06 0.0000000e+00 
0.0000000e+00 1.5275573e-06 0.0000000e+00 
-1.2264474e-07 1.7697047e-06 4.8493234e-07 
-1.3752646e-09 1.7266484e-06 4.8734233e-07 
0.0000000e+00 1.5163769e-06 0.0000000e+00 
0.0000000e+00 1.5342868e-06 0.0000000e+00 
2.4409914e-08 1.9195354e-06 2.1707395e-07 
3.1800869e-08 1.8540231e-06 4.1797441e-07 
-5.9817502e-08 1.8923528e-06 4.1409888e-07 
-5.0148291e-08 1.9535980e-06 2.1571087e-07 
-1.2518613e-08 1.9385116e-06 2.1418039e-07 
0.0000000e+00 1.9727549e-06 0.0000000e+00 
0.0000000e+00 1.9875883e-06 0.0000000e+00 
-2.5346470e-08 1.8971336e-06 3.6117095e-07 
6.7478567e-08 1.8573784e-06 3.6116342e-07 
0.0000000e+00 1.9723270e-06 0.0000000e+00 
0.0000000e+00 1.9872434e-06 0.0000000e+00 
4.1035477e-08 2.2728802e-06 1.4238873e-07 
6.0210041e-08 2.1783155e-06 3.0522045e-07 
-1.0804727e-08 2.2232839e-06 2.9057645e-07 
-9.3339754e-09 2.2966360e-06 1.3793368e-07 
1.6406727e-08 2.2878053e-06 1.3895281e-07 
0.0000000e+00 2.3153548e-06 0.0000000e+00 
0.0000000e+00 2.3263551e-06 0.0000000e+00 
2.6258652e-08 2.2273703e-06 2.4630717e-07 
9.5634476e-08 2.1929338e-06 2.4545020e-07 
0.0000000e+00 2.3119819e-06 0.0000000e+00 
0.0000000e+00 2.3226353e-06 0.0000000e+00 
-1.0252738e-08 3.1859333e-06 -2.4082368e-07 
-6.8012866e-09 3.2321261e-06 -4.9233665e-07 
1.1215294e-07 3.2333767e-06 -5.0511380e-07 
8.2487269e-08 3.1725995e-06 -2.4148147e-07 
3.4729634e-08 3.1793425e-06 -2.3942056e-07 
0.0000000e+00 3.1420113e-06 0.0000000e+00 
0.0000000e+00 3.1362715e-06 0.0000000e+00 
7.2995121e-08 3.2259588e-06 -4.7623632e-07 
-4.8027058e-08 3.2384619e-06 -4.7850807e-07 
0.0000000e+00 3.1433751e-06 0.0000000e+00 
0.0000000e+00 3.1342963e-06 0.0000000e+00 
-3.0713291e-08 1.8213058e-06 -1.5500551e-07 
-3.5241570e-08 1.8375973e-06 -2.9519970e-07 
2.1700004e-08 1.7942371e-06 -2.9167973e-07 
2.0096277e-08 1.7891317e-06 -1.5010622e-07 
-6.8651929e-09 1.8022383e-06 -1.5074571e-07 
0.0000000e+00 1.8553089e-06 0.0000000e+00 
0.0000000e+00 1.8414747e-06 0.0000000e+00 
2.4442862e-08 1.7905343e-06 -2.3932878e-07 
-4.0209574e-08 1.8298656e-06 -2.3903172e-07 
0.0000000e+00 1.8517344e-06 0.0000000e+00 
0.0000000e+00 1.8409447e-06 0.0000000e+00 
-1.5794910e-08 -3.1536549e-06 1.6184035e-07 
-2.9390895e-08 -3.2124274e-06 3.1203973e-07 
-1.0790340e-07 -3.2193361e-06 3.1687014e-07 
-7.5239548e-08 -3.1590523e-06 1.6491433e-07 
-4.4481581e-08 -3.1556833e-06 1.6179125e-07 
0.0000000e+00 -3.0887236e-06 0.0000000e+00 
0.0000000e+00 -3.0944495e-06 0.0000000e+00 
-5.4928524e-08 -3.2176488e-06 3.1584480e-07 
1.6703224e-08 -3.2143885e-06 3.1584227e-07 
0.0000000e+00 -3.0942520e-06 0.0000000e+00 
0.0000000e+00 -3.0918695e-06 0.0000000e+00 
0.0000000e+00 -2.6477037e-05 0.0000000e+00 
0.0000000e+00 4.6111154e-06 0.0000000e+00 
-7.0506634e-10 -6.2479612e-06 2.9173739e-09 
-4.9944004e-09 -6.2947047e-06 5.4449747e-09 
0.0000000e+00 -6.2923659e-06 0.0000000e+00 
0.0000000e+00 -6.2443837e-06 0.0000000e+00 