# vtk DataFile Version 4.0
vtk output
ASCII
DATASET UNSTRUCTURED_GRID
POINTS 1827 float
0.0000000e+00 0.0000000e+00 0.0000000e+00 
0.0000000e+00 0.0000000e+00 2.0000000e+01 
3.4700000e+00 0.0000000e+00 0.0000000e+00 
3.4700000e+00 0.0000000e+00 2.0000000e+01 
3.4700000e+00 1.0000000e+00 0.0000000e+00 
3.4700000e+00 1.0000000e+00 2.0000000e+01 
0.0000000e+00 1.0000000e+00 0.0000000e+00 
0.0000000e+00 1.0000000e+00 2.0000000e+01 
1.2500000e+00 2.5000000e+00 0.0000000e+00 
1.2500000e+00 2.5000000e+00 1.1700000e-01 
7.5000000e-01 2.5000000e+00 1.1700000e-01 
7.5000000e-01 2.5000000e+00 0.0000000e+00 
0.0000000e+00 2.5000000e+00 0.0000000e+00 
0.0000000e+00 2.5000000e+00 1.1700000e-01 
1.2500000e+00 2.8000000e+00 1.1700000e-01 
1.2500000e+00 2.8000000e+00 0.0000000e+00 
0.0000000e+00 2.8000000e+00 0.0000000e+00 
0.0000000e+00 2.8000000e+00 1.1700000e-01 
7.5000000e-01 2.5000000e+00 3.8299999e-01 
1.2500000e+00 2.5000000e+00 3.8299999e-01 
1.2500000e+00 2.5000000e+00 6.1699998e-01 
7.5000000e-01 2.5000000e+00 6.1699998e-01 
7.5000000e-01 2.5000000e+00 5.0000000e-01 
0.0000000e+00 2.5000000e+00 3.8299999e-01 
0.0000000e+00 2.5000000e+00 6.1699998e-01 
1.2500000e+00 2.8000000e+00 6.1699998e-01 
1.2500000e+00 2.8000000e+00 3.8299999e-01 
0.0000000e+00 2.8000000e+00 3.8299999e-01 
0.0000000e+00 2.8000000e+00 6.1699998e-01 
7.5000000e-01 2.5000000e+00 8.8300002e-01 
1.2500000e+00 2.5000000e+00 8.8300002e-01 
1.2500000e+00 2.5000000e+00 1.1170000e+00 
7.5000000e-01 2.5000000e+00 1.1170000e+00 
7.5000000e-01 2.5000000e+00 1.0000000e+00 
0.0000000e+00 2.5000000e+00 8.8300002e-01 
0.0000000e+00 2.5000000e+00 1.1170000e+00 
1.2500000e+00 2.8000000e+00 1.1170000e+00 
1.2500000e+00 2.8000000e+00 8.8300002e-01 
0.0000000e+00 2.8000000e+00 8.8300002e-01 
0.0000000e+00 2.8000000e+00 1.1170000e+00 
7.5000000e-01 2.5000000e+00 1.3830000e+00 
1.2500000e+00 2.5000000e+00 1.3830000e+00 
1.2500000e+00 2.5000000e+00 1.6170000e+00 
7.5000000e-01 2.5000000e+00 1.6170000e+00 
7.5000000e-01 2.5000000e+00 1.5000000e+00 
0.0000000e+00 2.5000000e+00 1.3830000e+00 
0.0000000e+00 2.5000000e+00 1.6170000e+00 
1.2500000e+00 2.8000000e+00 1.6170000e+00 
1.2500000e+00 2.8000000e+00 1.3830000e+00 
0.0000000e+00 2.8000000e+00 1.3830000e+00 
0.0000000e+00 2.8000000e+00 1.6170000e+00 
7.5000000e-01 2.5000000e+00 1.8830000e+00 
1.2500000e+00 2.5000000e+00 1.8830000e+00 
1.2500000e+00 2.5000000e+00 2.1170001e+00 
7.5000000e-01 2.5000000e+00 2.1170001e+00 
7.5000000e-01 2.5000000e+00 2.0000000e+00 
0.0000000e+00 2.5000000e+00 1.8830000e+00 
0.0000000e+00 2.5000000e+00 2.1170001e+00 
1.2500000e+00 2.8000000e+00 2.1170001e+00 
1.2500000e+00 2.8000000e+00 1.8830000e+00 
0.0000000e+00 2.8000000e+00 1.8830000e+00 
0.0000000e+00 2.8000000e+00 2.1170001e+00 
7.5000000e-01 2.5000000e+00 2.3829999e+00 
1.2500000e+00 2.5000000e+00 2.3829999e+00 
1.2500000e+00 2.5000000e+00 2.6170001e+00 
7.5000000e-01 2.5000000e+00 2.6170001e+00 
7.5000000e-01 2.5000000e+00 2.5000000e+00 
0.0000000e+00 2.5000000e+00 2.3829999e+00 
0.0000000e+00 2.5000000e+00 2.6170001e+00 
1.2500000e+00 2.8000000e+00 2.6170001e+00 
1.2500000e+00 2.8000000e+00 2.3829999e+00 
0.0000000e+00 2.8000000e+00 2.3829999e+00 
0.0000000e+00 2.8000000e+00 2.6170001e+00 
7.5000000e-01 2.5000000e+00 2.8829999e+00 
1.2500000e+00 2.5000000e+00 2.8829999e+00 
1.2500000e+00 2.5000000e+00 3.1170001e+00 
7.5000000e-01 2.5000000e+00 3.1170001e+00 
7.5000000e-01 2.5000000e+00 3.0000000e+00 
0.0000000e+00 2.5000000e+00 2.8829999e+00 
0.0000000e+00 2.5000000e+00 3.1170001e+00 
1.2500000e+00 2.8000000e+00 3.1170001e+00 
1.2500000e+00 2.8000000e+00 2.8829999e+00 
0.0000000e+00 2.8000000e+00 2.8829999e+00 
0.0000000e+00 2.8000000e+00 3.1170001e+00 
7.5000000e-01 2.5000000e+00 3.3829999e+00 
1.2500000e+00 2.5000000e+00 3.3829999e+00 
1.2500000e+00 2.5000000e+00 3.6170001e+00 
7.5000000e-01 2.5000000e+00 3.6170001e+00 
7.5000000e-01 2.5000000e+00 3.5000000e+00 
0.0000000e+00 2.5000000e+00 3.3829999e+00 
0.0000000e+00 2.5000000e+00 3.6170001e+00 
1.2500000e+00 2.8000000e+00 3.6170001e+00 
1.2500000e+00 2.8000000e+00 3.3829999e+00 
0.0000000e+00 2.8000000e+00 3.3829999e+00 
0.0000000e+00 2.8000000e+00 3.6170001e+00 
7.5000000e-01 2.5000000e+00 3.8829999e+00 
1.2500000e+00 2.5000000e+00 3.8829999e+00 
1.2500000e+00 2.5000000e+00 4.1170001e+00 
7.5000000e-01 2.5000000e+00 4.1170001e+00 
7.5000000e-01 2.5000000e+00 4.0000000e+00 
0.0000000e+00 2.5000000e+00 3.8829999e+00 
0.0000000e+00 2.5000000e+00 4.1170001e+00 
1.2500000e+00 2.8000000e+00 4.1170001e+00 
1.2500000e+00 2.8000000e+00 3.8829999e+00 
0.0000000e+00 2.8000000e+00 3.8829999e+00 
0.0000000e+00 2.8000000e+00 4.1170001e+00 
7.5000000e-01 2.5000000e+00 4.3829999e+00 
1.2500000e+00 2.5000000e+00 4.3829999e+00 
1.2500000e+00 2.5000000e+00 4.6170001e+00 
7.5000000e-01 2.5000000e+00 4.6170001e+00 
7.5000000e-01 2.5000000e+00 4.5000000e+00 
0.0000000e+00 2.5000000e+00 4.3829999e+00 
0.0000000e+00 2.5000000e+00 4.6170001e+00 
1.2500000e+00 2.8000000e+00 4.6170001e+00 
1.2500000e+00 2.8000000e+00 4.3829999e+00 
0.0000000e+00 2.8000000e+00 4.3829999e+00 
0.0000000e+00 2.8000000e+00 4.6170001e+00 
7.5000000e-01 2.5000000e+00 4.8829999e+00 
1.2500000e+00 2.5000000e+00 4.8829999e+00 
1.2500000e+00 2.5000000e+00 5.1170001e+00 
7.5000000e-01 2.5000000e+00 5.1170001e+00 
7.5000000e-01 2.5000000e+00 5.0000000e+00 
0.0000000e+00 2.5000000e+00 4.8829999e+00 
0.0000000e+00 2.5000000e+00 5.1170001e+00 
1.2500000e+00 2.8000000e+00 5.1170001e+00 
1.2500000e+00 2.8000000e+00 4.8829999e+00 
0.0000000e+00 2.8000000e+00 4.8829999e+00 
0.0000000e+00 2.8000000e+00 5.1170001e+00 
7.5000000e-01 2.5000000e+00 5.3829999e+00 
1.2500000e+00 2.5000000e+00 5.3829999e+00 
1.2500000e+00 2.5000000e+00 5.6170001e+00 
7.5000000e-01 2.5000000e+00 5.6170001e+00 
7.5000000e-01 2.5000000e+00 5.5000000e+00 
0.0000000e+00 2.5000000e+00 5.3829999e+00 
0.0000000e+00 2.5000000e+00 5.6170001e+00 
1.2500000e+00 2.8000000e+00 5.6170001e+00 
1.2500000e+00 2.8000000e+00 5.3829999e+00 
0.0000000e+00 2.8000000e+00 5.3829999e+00 
0.0000000e+00 2.8000000e+00 5.6170001e+00 
7.5000000e-01 2.5000000e+00 5.8829999e+00 
1.2500000e+00 2.5000000e+00 5.8829999e+00 
1.2500000e+00 2.5000000e+00 6.1170001e+00 
7.5000000e-01 2.5000000e+00 6.1170001e+00 
7.5000000e-01 2.5000000e+00 6.0000000e+00 
0.0000000e+00 2.5000000e+00 5.8829999e+00 
0.0000000e+00 2.5000000e+00 6.1170001e+00 
1.2500000e+00 2.8000000e+00 6.1170001e+00 
1.2500000e+00 2.8000000e+00 5.8829999e+00 
0.0000000e+00 2.8000000e+00 5.8829999e+00 
0.0000000e+00 2.8000000e+00 6.1170001e+00 
7.5000000e-01 2.5000000e+00 6.3829999e+00 
1.2500000e+00 2.5000000e+00 6.3829999e+00 
1.2500000e+00 2.5000000e+00 6.6170001e+00 
7.5000000e-01 2.5000000e+00 6.6170001e+00 
7.5000000e-01 2.5000000e+00 6.5000000e+00 
0.0000000e+00 2.5000000e+00 6.3829999e+00 
0.0000000e+00 2.5000000e+00 6.6170001e+00 
1.2500000e+00 2.8000000e+00 6.6170001e+00 
1.2500000e+00 2.8000000e+00 6.3829999e+00 
0.0000000e+00 2.8000000e+00 6.3829999e+00 
0.0000000e+00 2.8000000e+00 6.6170001e+00 
7.5000000e-01 2.5000000e+00 6.8829999e+00 
1.2500000e+00 2.5000000e+00 6.8829999e+00 
1.2500000e+00 2.5000000e+00 7.1170001e+00 
7.5000000e-01 2.5000000e+00 7.1170001e+00 
7.5000000e-01 2.5000000e+00 7.0000000e+00 
0.0000000e+00 2.5000000e+00 6.8829999e+00 
0.0000000e+00 2.5000000e+00 7.1170001e+00 
1.2500000e+00 2.8000000e+00 7.1170001e+00 
1.2500000e+00 2.8000000e+00 6.8829999e+00 
0.0000000e+00 2.8000000e+00 6.8829999e+00 
0.0000000e+00 2.8000000e+00 7.1170001e+00 
7.5000000e-01 2.5000000e+00 7.3829999e+00 
1.2500000e+00 2.5000000e+00 7.3829999e+00 
1.2500000e+00 2.5000000e+00 7.6170001e+00 
7.5000000e-01 2.5000000e+00 7.6170001e+00 
7.5000000e-01 2.5000000e+00 7.5000000e+00 
0.0000000e+00 2.5000000e+00 7.3829999e+00 
0.0000000e+00 2.5000000e+00 7.6170001e+00 
1.2500000e+00 2.8000000e+00 7.6170001e+00 
1.2500000e+00 2.8000000e+00 7.3829999e+00 
0.0000000e+00 2.8000000e+00 7.3829999e+00 
0.0000000e+00 2.8000000e+00 7.6170001e+00 
7.5000000e-01 2.5000000e+00 7.8829999e+00 
1.2500000e+00 2.5000000e+00 7.8829999e+00 
1.2500000e+00 2.5000000e+00 8.1169996e+00 
7.5000000e-01 2.5000000e+00 8.1169996e+00 
7.5000000e-01 2.5000000e+00 8.0000000e+00 
0.0000000e+00 2.5000000e+00 7.8829999e+00 
0.0000000e+00 2.5000000e+00 8.1169996e+00 
1.2500000e+00 2.8000000e+00 8.1169996e+00 
1.2500000e+00 2.8000000e+00 7.8829999e+00 
0.0000000e+00 2.8000000e+00 7.8829999e+00 
0.0000000e+00 2.8000000e+00 8.1169996e+00 
7.5000000e-01 2.5000000e+00 8.3830004e+00 
1.2500000e+00 2.5000000e+00 8.3830004e+00 
1.2500000e+00 2.5000000e+00 8.6169996e+00 
7.5000000e-01 2.5000000e+00 8.6169996e+00 
7.5000000e-01 2.5000000e+00 8.5000000e+00 
0.0000000e+00 2.5000000e+00 8.3830004e+00 
0.0000000e+00 2.5000000e+00 8.6169996e+00 
1.2500000e+00 2.8000000e+00 8.6169996e+00 
1.2500000e+00 2.8000000e+00 8.3830004e+00 
0.0000000e+00 2.8000000e+00 8.3830004e+00 
0.0000000e+00 2.8000000e+00 8.6169996e+00 
7.5000000e-01 2.5000000e+00 8.8830004e+00 
1.2500000e+00 2.5000000e+00 8.8830004e+00 
1.2500000e+00 2.5000000e+00 9.1169996e+00 
7.5000000e-01 2.5000000e+00 9.1169996e+00 
7.5000000e-01 2.5000000e+00 9.0000000e+00 
0.0000000e+00 2.5000000e+00 8.8830004e+00 
0.0000000e+00 2.5000000e+00 9.1169996e+00 
1.2500000e+00 2.8000000e+00 9.1169996e+00 
1.2500000e+00 2.8000000e+00 8.8830004e+00 
0.0000000e+00 2.8000000e+00 8.8830004e+00 
0.0000000e+00 2.8000000e+00 9.1169996e+00 
7.5000000e-01 2.5000000e+00 9.3830004e+00 
1.2500000e+00 2.5000000e+00 9.3830004e+00 
1.2500000e+00 2.5000000e+00 9.6169996e+00 
7.5000000e-01 2.5000000e+00 9.6169996e+00 
7.5000000e-01 2.5000000e+00 9.5000000e+00 
0.0000000e+00 2.5000000e+00 9.3830004e+00 
0.0000000e+00 2.5000000e+00 9.6169996e+00 
1.2500000e+00 2.8000000e+00 9.6169996e+00 
1.2500000e+00 2.8000000e+00 9.3830004e+00 
0.0000000e+00 2.8000000e+00 9.3830004e+00 
0.0000000e+00 2.8000000e+00 9.6169996e+00 
7.5000000e-01 2.5000000e+00 9.8830004e+00 
1.2500000e+00 2.5000000e+00 9.8830004e+00 
1.2500000e+00 2.5000000e+00 1.0117000e+01 
[...]
POINT_DATA 1827
FIELD FieldData 2
DISPLACEMENT 3 1827  float
0.0000000e+00 0.0000000e+00 0.0000000e+00 
0.0000000e+00 0.0000000e+00 0.0000000e+00 
0.0000000e+00 0.0000000e+00 0.0000000e+00 
0.0000000e+00 0.0000000e+00 0.0000000e+00 
0.0000000e+00 1.1072985e-05 0.0000000e+00 
0.0000000e+00 -2.8074919e-12 0.0000000e+00 
0.0000000e+00 1.8236071e-05 0.0000000e+00 
0.0000000e+00 1.3591848e-10 0.0000000e+00 
0.0000000e+00 -4.5325738e-05 0.0000000e+00 
1.0067361e-07 -4.5246947e-05 3.4116098e-08 
5.7574110e-09 -4.6018686e-05 1.5463867e-08 
0.0000000e+00 -4.6074216e-05 0.0000000e+00 
0.0000000e+00 -4.5936788e-05 0.0000000e+00 
0.0000000e+00 -4.5924364e-05 0.0000000e+00 
-7.5618608e-08 -4.5401714e-05 -1.6556909e-08 
0.0000000e+00 -4.5401928e-05 0.0000000e+00 
0.0000000e+00 -4.5927689e-05 0.0000000e+00 
0.0000000e+00 -4.5915418e-05 0.0000000e+00 
-1.4615034e-07 2.6168102e-05 7.5985227e-08 
-1.6807397e-07 2.5629526e-05 -1.9659473e-07 
-2.3369257e-08 2.6135349e-05 -2.0991524e-07 
-6.2515923e-08 2.6508218e-05 6.4417208e-08 
-1.0122545e-07 2.6346586e-05 6.4592562e-08 
0.0000000e+00 2.6587664e-05 0.0000000e+00 
0.0000000e+00 2.6734064e-05 0.0000000e+00 
2.2354230e-07 2.6110516e-05 -7.1247757e-07 
8.0397434e-08 2.5704210e-05 -7.1435556e-07 
0.0000000e+00 2.6612424e-05 0.0000000e+00 
0.0000000e+00 2.6709620e-05 0.0000000e+00 
-2.0255449e-08 4.5475459e-05 2.8454244e-07 
-6.5532406e-09 4.5272376e-05 5.9121032e-07 
-1.6566628e-07 4.5200068e-05 5.9456187e-07 
-1.3628815e-07 4.5461395e-05 2.8352278e-07 
-7.8816129e-08 4.5473564e-05 2.8285086e-07 
0.0000000e+00 4.5718913e-05 0.0000000e+00 
0.0000000e+00 4.5708694e-05 0.0000000e+00 
-2.0227631e-08 4.5227658e-05 6.2996611e-07 
1.2924630e-07 4.5258490e-05 6.3105944e-07 
0.0000000e+00 4.5703480e-05 0.0000000e+00 
0.0000000e+00 4.5709268e-05 0.0000000e+00 
-3.1005744e-08 3.2644170e-05 1.1779375e-07 
-5.0730080e-08 3.2436539e-05 2.6752519e-07 
-1.3588341e-07 3.2281758e-05 2.6013274e-07 
-9.4806026e-08 3.2534841e-05 1.0929585e-07 
-5.9067645e-08 3.2594675e-05 1.1377773e-07 
0.0000000e+00 3.2677199e-05 0.0000000e+00 
0.0000000e+00 3.2629367e-05 0.0000000e+00 
3.2547902e-09 3.2320477e-05 4.2333929e-07 
8.3025078e-08 3.2446169e-05 4.2120902e-07 
0.0000000e+00 3.2663938e-05 0.0000000e+00 
0.0000000e+00 3.2632921e-05 0.0000000e+00 
1.4909025e-07 1.1611643e-05 2.3154821e-07 
1.7544554e-07 1.1935361e-05 4.9174736e-07 
5.7017818e-08 1.1825156e-05 4.8210359e-07 
4.5135334e-08 1.1536092e-05 2.2446925e-07 
9.8406431e-08 1.1582176e-05 2.2684161e-07 
0.0000000e+00 1.1249004e-05 0.0000000e+00 
0.0000000e+00 1.1214876e-05 0.0000000e+00 
-1.3543891e-07 1.1838544e-05 5.9460638e-07 
-7.7551023e-09 1.1924236e-05 5.9228233e-07 
0.0000000e+00 1.1255197e-05 0.0000000e+00 
0.0000000e+00 1.1243103e-05 0.0000000e+00 
5.1869939e-08 -2.3632278e-06 -4.5863538e-07 
1.1060293e-07 -2.1519309e-06 -8.5683149e-07 
2.9183798e-07 -2.3102505e-06 -8.6217409e-07 
1.9845643e-07 -2.4896672e-06 -4.5213193e-07 
1.2375511e-07 -2.4327517e-06 -4.4965807e-07 
0.0000000e+00 -2.5277789e-06 0.0000000e+00 
0.0000000e+00 -2.5804136e-06 0.0000000e+00 
1.3703195e-07 -2.3175892e-06 -6.6436695e-07 
-4.6712461e-08 -2.1711596e-06 -6.6111505e-07 
0.0000000e+00 -2.5422542e-06 0.0000000e+00 
0.0000000e+00 -2.5877860e-06 0.0000000e+00 
7.8096342e-08 -9.6167832e-06 4.5176841e-07 
9.1784507e-08 -9.6175472e-06 1.0177682e-06 
-1.7061679e-07 -9.5855548e-06 1.0241656e-06 
-1.1652048e-07 -9.6063577e-06 4.6221729e-07 
-1.9661705e-08 -9.6150216e-06 4.5260322e-07 
0.0000000e+00 -9.5865071e-06 0.0000000e+00 
0.0000000e+00 -9.5797359e-06 0.0000000e+00 
-1.6194996e-07 -9.5972919e-06 9.6372173e-07 
9.6866721e-08 -9.6239519e-06 9.6468341e-07 
0.0000000e+00 -9.5948690e-06 0.0000000e+00 
0.0000000e+00 -9.5791320e-06 0.0000000e+00 
2.0252439e-07 -9.3767458e-06 6.5756728e-07 
2.2437374e-07 -8.9610503e-06 1.3143008e-06 
-6.4822657e-08 -8.8923653e-06 1.3000060e-06 
-3.8977177e-08 -9.3183025e-06 6.5377981e-07 
8.2909558e-08 -9.3487197e-06 6.5125272e-07 
0.0000000e+00 -9.7991369e-06 0.0000000e+00 
0.0000000e+00 -9.7745369e-06 0.0000000e+00 
-3.0997171e-07 -8.8980305e-06 1.2023233e-06 
-6.7495876e-09 -8.9733485e-06 1.1948974e-06 
0.0000000e+00 -9.7949933e-06 0.0000000e+00 
0.0000000e+00 -9.7503398e-06 0.0000000e+00 
2.9925417e-08 -1.8893767e-06 -2.1455669e-07 
4.8799738e-08 -1.6527403e-06 -4.4151241e-07 
1.6023101e-07 -1.6367477e-06 -4.5060494e-07 
1.1554684e-07 -1.8844786e-06 -2.1512825e-07 
7.1555952e-08 -1.8889389e-06 -2.1353912e-07 
0.0000000e+00 -2.0720374e-06 0.0000000e+00 
0.0000000e+00 -2.0689311e-06 0.0000000e+00 
5.0635975e-09 -1.6501048e-06 -4.4691419e-07 
-1.0374977e-07 -1.6551223e-06 -4.4770931e-07 
0.0000000e+00 -2.0555312e-06 0.0000000e+00 
0.0000000e+00 -2.0620644e-06 0.0000000e+00 
-4.7667388e-08 2.5905183e-06 -4.3501606e-07 
-5.5387567e-08 2.6879072e-06 -8.4455451e-07 
1.3867168e-07 2.5977395e-06 -8.4838490e-07 
1.0201600e-07 2.5239547e-06 -4.3488424e-07 
2.7511147e-08 2.5548309e-06 -4.3051054e-07 
0.0000000e+00 2.5132572e-06 0.0000000e+00 
0.0000000e+00 2.4877716e-06 0.0000000e+00 
8.0301099e-08 2.5997740e-06 -7.2720735e-07 
-1.0916960e-07 2.6847797e-06 -7.2837338e-07 
0.0000000e+00 2.5186760e-06 0.0000000e+00 
0.0000000e+00 2.4849246e-06 0.0000000e+00 
-7.9555150e-08 1.4802333e-06 -3.1455681e-07 
-8.9813405e-08 1.3806645e-06 -5.1305614e-07 
3.3491847e-09 1.2875189e-06 -5.0097293e-07 
6.7119350e-09 1.4156128e-06 -3.0961530e-07 
-3.5333823e-08 1.4475025e-06 -3.0810389e-07 
0.0000000e+00 1.5351842e-06 0.0000000e+00 
0.0000000e+00 1.5036677e-06 0.0000000e+00 
7.0792858e-08 1.2961735e-06 -4.0355715e-07 
-2.2659631e-08 1.3791957e-06 -4.0177784e-07 
0.0000000e+00 1.5293409e-06 0.0000000e+00 
0.0000000e+00 1.5003180e-06 0.0000000e+00 
7.4415785e-09 -1.6766830e-06 9.6618869e-08 
8.6266466e-10 -1.7133003e-06 2.3627051e-07 
-6.2754040e-08 -1.6819055e-06 2.3756814e-07 
-3.5281200e-08 -1.6601323e-06 9.5260425e-08 
-1.2201588e-08 -1.6670908e-06 9.4828010e-08 
0.0000000e+00 -1.7111266e-06 0.0000000e+00 
0.0000000e+00 -1.7032064e-06 0.0000000e+00 
-3.9826631e-08 -1.6809524e-06 1.9756853e-07 
2.1509122e-08 -1.7047928e-06 1.9718948e-07 
0.0000000e+00 -1.7089960e-06 0.0000000e+00 
0.0000000e+00 -1.7033155e-06 0.0000000e+00 
1.0024045e-08 -1.4986558e-06 9.6882161e-08 
1.1073433e-08 -1.4987623e-06 1.7385290e-07 
-2.2705329e-08 -1.4506821e-06 1.6733979e-07 
-1.7911734e-08 -1.4690914e-06 9.6179342e-08 
-3.7473447e-09 -1.4835331e-06 9.5317908e-08 
0.0000000e+00 -1.5000709e-06 0.0000000e+00 
0.0000000e+00 -1.4886995e-06 0.0000000e+00 
-2.6061795e-08 -1.4559728e-06 1.1998482e-07 
6.5442811e-09 -1.4941987e-06 1.1845822e-07 
0.0000000e+00 -1.4975135e-06 0.0000000e+00 
0.0000000e+00 -1.4878477e-06 0.0000000e+00 
1.7238508e-09 4.8381378e-07 -1.4119662e-07 
3.0201832e-09 6.0159800e-07 -2.8690087e-07 
7.4162749e-08 5.8956061e-07 -2.8728149e-07 
5.4677535e-08 4.7182201e-07 -1.4002417e-07 
2.7244523e-08 4.7616444e-07 -1.3931034e-07 
0.0000000e+00 4.1185911e-07 0.0000000e+00 
0.0000000e+00 4.0585655e-07 0.0000000e+00 
2.8955365e-09 5.8300219e-07 -2.6491639e-07 
-6.4968390e-08 5.9703666e-07 -2.6547005e-07 
0.0000000e+00 4.1634945e-07 0.0000000e+00 
0.0000000e+00 4.0872533e-07 0.0000000e+00 
1.9983797e-09 1.0738195e-06 -8.6964562e-08 
6.5068551e-09 1.1505543e-06 -1.5874363e-07 
3.8287769e-08 1.1245650e-06 -1.5868204e-07 
3.0079889e-08 1.0567477e-06 -8.6230450e-08 
1.5571453e-08 1.0644787e-06 -8.5820936e-08 
0.0000000e+00 1.0128449e-06 0.0000000e+00 
0.0000000e+00 1.0065991e-06 0.0000000e+00 
-4.8840865e-09 1.1245367e-06 -1.2933897e-07 
-3.7813894e-08 1.1462766e-06 -1.2937564e-07 
0.0000000e+00 1.0163740e-06 0.0000000e+00 
0.0000000e+00 1.0091704e-06 0.0000000e+00 
-7.4964230e-09 2.0263703e-07 7.9605122e-10 
-8.8916217e-09 1.6015687e-07 -6.3240599e-09 
-6.2329484e-09 1.5171786e-07 -4.4262380e-09 
-6.8612178e-09 1.9897392e-07 1.7516118e-10 
-6.8342589e-09 2.0126262e-07 5.8283722e-10 
0.0000000e+00 2.3265007e-07 0.0000000e+00 
0.0000000e+00 2.3138202e-07 0.0000000e+00 
1.8157145e-08 1.5465483e-07 2.4398574e-09 
1.6600065e-08 1.6001948e-07 3.0451275e-09 
0.0000000e+00 2.2975290e-07 0.0000000e+00 
0.0000000e+00 2.2949831e-07 0.0000000e+00 
-7.9777038e-09 -5.8126784e-07 2.2148232e-08 
-6.9033077e-09 -6.5419994e-07 5.6769309e-08 
-2.5448772e-08 -6.5419965e-07 5.7568787e-08 
-1.8962950e-08 -5.8184713e-07 2.1482935e-08 
-1.2922660e-08 -5.8101267e-07 2.1651555e-08 
0.0000000e+00 -5.2474581e-07 0.0000000e+00 
0.0000000e+00 -5.2615832e-07 0.0000000e+00 
1.7793864e-08 -6.5226766e-07 5.5537988e-08 
3.3449993e-08 -6.5198554e-07 5.5919688e-08 
0.0000000e+00 -5.3030431e-07 0.0000000e+00 
0.0000000e+00 -5.2910502e-07 0.0000000e+00 
-8.0793361e-10 -4.0150184e-07 3.9091130e-10 
-8.1852181e-10 -4.0939230e-07 3.5576742e-09 
-1.6942966e-09 -4.0308296e-07 3.9684322e-09 
-1.1235755e-09 -3.9890904e-07 2.1689987e-10 
-1.0572886e-09 -4.0017179e-07 2.3738725e-10 
0.0000000e+00 -3.9003484e-07 0.0000000e+00 
0.0000000e+00 -3.8942969e-07 0.0000000e+00 
2.2945894e-09 -4.0467489e-07 -2.1219195e-09 
3.2174134e-09 -4.0867900e-07 -2.1396107e-09 
0.0000000e+00 -3.9103145e-07 0.0000000e+00 
0.0000000e+00 -3.9045460e-07 0.0000000e+00 
4.7336086e-09 1.1011725e-07 2.5602267e-08 
4.7969957e-09 1.0571755e-07 4.9777327e-08 
-5.2670295e-09 1.1490000e-07 4.9856620e-08 
-4.2279553e-09 1.1670876e-07 2.5810563e-08 
1.0379755e-10 1.1332199e-07 2.5377018e-08 
0.0000000e+00 1.2191401e-07 0.0000000e+00 
0.0000000e+00 1.2461686e-07 0.0000000e+00 
-3.3855641e-09 1.1420843e-07 3.8980119e-08 
7.5110229e-09 1.0623200e-07 3.9033981e-08 
0.0000000e+00 1.2178367e-07 0.0000000e+00 
0.0000000e+00 1.2431411e-07 0.0000000e+00 
9.0517044e-10 2.7762889e-07 1.0735173e-08 
2.4346656e-09 2.7464083e-07 2.3152404e-08 
-3.9297481e-09 2.7397502e-07 2.2801796e-08 
-3.5556924e-09 2.7732008e-07 1.1078003e-08 
-1.4341265e-09 2.7718815e-07 1.0800773e-08 
0.0000000e+00 2.8628421e-07 0.0000000e+00 
0.0000000e+00 2.8615466e-07 0.0000000e+00 
-1.8442269e-09 2.7403669e-07 2.3012966e-08 
3.8126760e-09 2.7432537e-07 2.3052923e-08 
0.0000000e+00 2.8599146e-07 0.0000000e+00 
0.0000000e+00 2.8632240e-07 0.0000000e+00 
1.6127594e-09 -8.2474244e-08 -2.9937428e-09 
1.7180402e-09 -7.2824484e-08 -5.2960236e-09 
2.7064211e-09 -7.5207772e-08 -5.2947282e-09 
2.3807354e-09 -8.3770018e-08 -3.2613088e-09 
2.0257060e-09 -8.2956539e-08 -3.0908229e-09 
0.0000000e+00 -9.4496187e-08 0.0000000e+00 
0.0000000e+00 -9.5097754e-08 0.0000000e+00 
-2.7246136e-09 -7.4891162e-08 -2.8074436e-09 
-3.6886629e-09 -7.3085104e-08 -2.8520284e-09 
0.0000000e+00 -9.4048325e-08 0.0000000e+00 
0.0000000e+00 -9.4392263e-08 0.0000000e+00 
4.5682302e-09 -2.4423974e-07 -3.9118389e-09 
5.2364171e-09 -2.2591092e-07 -8.3977749e-09 
7.3401916e-09 -2.2475851e-07 -8.2698888e-09 
6.3769612e-09 -2.4373028e-07 -4.1012362e-09 
5.4507381e-09 -2.4399370e-07 -3.9817283e-09 
0.0000000e+00 -2.6355451e-07 0.0000000e+00 
0.0000000e+00 -2.6316610e-07 0.0000000e+00 
-3.8872487e-09 -2.2545115e-07 -9.3544674e-09 
-5.9164567e-09 -2.2622653e-07 -9.3900825e-09 
0.0000000e+00 -2.6256893e-07 0.0000000e+00 
0.0000000e+00 -2.6275654e-07 0.0000000e+00 
6.9121651e-09 -5.4410290e-08 8.7951619e-09 
1.0386360e-08 -3.7378381e-08 2.0879060e-08 
4.2040953e-09 -3.5197107e-08 2.0391402e-08 
3.1675864e-09 -5.2448396e-08 8.7409147e-09 
4.9234088e-09 -5.3508025e-08 8.6479552e-09 
0.0000000e+00 -6.5457144e-08 0.0000000e+00 
0.0000000e+00 -6.4721718e-08 0.0000000e+00 
-6.0774838e-09 -3.6036219e-08 1.7354022e-08 
-8.1370988e-10 -3.8160856e-08 1.7302773e-08 
0.0000000e+00 -6.4833820e-08 0.0000000e+00 
0.0000000e+00 -6.4328347e-08 0.0000000e+00 
-2.0879893e-09 1.7214330e-07 -4.9234150e-09 
-2.0475655e-09 1.6843424e-07 -9.4338226e-09 
1.2110202e-10 1.6790132e-07 -9.4464427e-09 
-3.4086869e-10 1.7174131e-07 -4.8028332e-09 
-1.2460136e-09 1.7182730e-07 -4.8171245e-09 
0.0000000e+00 1.7776578e-07 0.0000000e+00 
0.0000000e+00 1.7771831e-07 0.0000000e+00 
2.2577205e-09 1.6792679e-07 -8.6798835e-09 
1.1048432e-10 1.6843055e-07 -8.6450953e-09 
0.0000000e+00 1.7765620e-07 0.0000000e+00 
0.0000000e+00 1.7759963e-07 0.0000000e+00 
-2.7979206e-09 1.2995839e-07 2.9254554e-09 
-3.4782517e-09 1.1915311e-07 6.1405507e-09 
-4.4779864e-09 1.1819060e-07 6.1725882e-09 
-4.0084767e-09 1.2916792e-07 3.0986833e-09 
-3.3640801e-09 1.2951283e-07 3.0023073e-09 
0.0000000e+00 1.4054896e-07 0.0000000e+00 
0.0000000e+00 1.3987085e-07 0.0000000e+00 
1.7768386e-09 1.1863415e-07 7.1048958e-09 
3.3191414e-09 1.1940722e-07 7.1747914e-09 
0.0000000e+00 1.3987251e-07 0.0000000e+00 
0.0000000e+00 1.3988983e-07 0.0000000e+00 
-1.8714217e-09 -8.8104933e-08 -1.1570592e-09 
-2.9289646e-09 -9.2527792e-08 -3.3885643e-09 
-1.9292006e-09 -9.3856301e-08 -3.4528260e-09 
-1.2853429e-09 -8.9020311e-08 -1.3326545e-09 
-1.4710294e-09 -8.8360181e-08 -1.2165804e-09 
0.0000000e+00 -8.8134577e-08 0.0000000e+00 
0.0000000e+00 -8.8634273e-08 0.0000000e+00 
9.0772945e-10 -9.3334897e-08 -1.8826243e-09 
3.6146204e-11 -9.2254915e-08 -1.9352788e-09 
0.0000000e+00 -8.8341942e-08 0.0000000e+00 
0.0000000e+00 -8.8654915e-08 0.0000000e+00 
-1.3563698e-11 -1.0269689e-07 -1.6572205e-10 
-5.1599863e-10 -1.0274985e-07 -9.2487140e-10 
-6.9685186e-12 -1.0108963e-07 -9.1940744e-10 
3.1042083e-10 -1.0162614e-07 -2.8827093e-10 
1.8679273e-10 -1.0207273e-07 -2.3846433e-10 
0.0000000e+00 -1.0499713e-07 0.0000000e+00 
0.0000000e+00 -1.0445766e-07 0.0000000e+00 
-1.0964738e-10 -1.0115648e-07 -2.5970861e-09 
-5.0901011e-10 -1.0246521e-07 -2.6190343e-09 
0.0000000e+00 -1.0482562e-07 0.0000000e+00 
0.0000000e+00 -1.0451404e-07 0.0000000e+00 
-1.9939157e-10 5.5213697e-08 9.5174124e-10 
5.7522591e-11 5.4401117e-08 1.5780501e-09 
-1.4950616e-10 5.4805600e-08 1.5113356e-09 
-4.6388104e-10 5.5403390e-08 1.1049575e-09 
-3.7931480e-10 5.5210059e-08 1.0196154e-09 
0.0000000e+00 5.8422433e-08 0.0000000e+00 
0.0000000e+00 5.8437770e-08 0.0000000e+00 
2.1932535e-10 5.4622934e-08 1.1915681e-09 
4.4945492e-10 5.4329305e-08 1.2149082e-09 
0.0000000e+00 5.8332095e-08 0.0000000e+00 
0.0000000e+00 5.8471944e-08 0.0000000e+00 
-4.9469051e-10 7.9489375e-08 -5.0556320e-10 
-5.1048282e-10 7.8256328e-08 -6.1240268e-10 
-5.2474719e-10 7.7632230e-08 -6.2309607e-10 
-4.3493831e-10 7.9036695e-08 -4.7284771e-10 
-4.7252868e-10 7.9251180e-08 -4.7595933e-10 
0.0000000e+00 8.0918994e-08 0.0000000e+00 
0.0000000e+00 8.0721428e-08 0.0000000e+00 
2.9087413e-10 7.7773961e-08 5.2413317e-11 
2.4775501e-10 7.8299763e-08 6.7823504e-11 
0.0000000e+00 8.0896690e-08 0.0000000e+00 
0.0000000e+00 8.0803666e-08 0.0000000e+00 
9.1379337e-10 -3.5436276e-09 1.7589207e-09 
8.9963698e-10 -1.5211590e-09 3.4880374e-09 
5.9586933e-11 -1.5637276e-09 3.4791867e-09 
2.5559657e-10 -3.5237293e-09 1.6883921e-09 
5.9864574e-10 -3.4846777e-09 1.7083415e-09 
0.0000000e+00 -6.4170709e-09 0.0000000e+00 
0.0000000e+00 -6.3337495e-09 0.0000000e+00 
-1.0840039e-09 -1.4820352e-09 3.4152516e-09 
-2.4594390e-10 -1.5031727e-09 3.4004668e-09 
0.0000000e+00 -6.2540377e-09 0.0000000e+00 
0.0000000e+00 -6.2625971e-09 0.0000000e+00 
-2.6940503e-10 -3.8981806e-08 1.4314934e-10 
-3.5566192e-10 -4.0657500e-08 5.8343447e-10 
-5.8072536e-10 -4.0447173e-08 5.4940991e-10 
-3.5701264e-10 -3.8874319e-08 9.8208955e-11 
-2.8347899e-10 -3.8875044e-08 1.1900199e-10 
0.0000000e+00 -3.8582819e-08 0.0000000e+00 
0.0000000e+00 -3.8523329e-08 0.0000000e+00 
3.7890616e-10 -4.0378104e-08 3.3849387e-10 
5.5510863e-10 -4.0523236e-08 3.2999797e-10 
0.0000000e+00 -3.8658911e-08 0.0000000e+00 
0.0000000e+00 -3.8614743e-08 0.0000000e+00 
-3.0544528e-10 -2.5437041e-11 -6.0774141e-10 
-3.1550124e-10 -7.7045753e-10 -1.2861054e-09 
4.3681683e-11 -5.1889737e-10 -1.2814898e-09 
-4.7985695e-11 8.4547223e-11 -5.7565896e-10 
-1.8599670e-10 1.7208356e-12 -5.8806687e-10 
0.0000000e+00 1.0628042e-09 0.0000000e+00 
0.0000000e+00 1.0856461e-09 0.0000000e+00 
4.1868536e-10 -5.8230337e-10 -1.4714813e-09 
7.6796611e-11 -7.3750367e-10 -1.4646229e-09 
0.0000000e+00 1.0263468e-09 0.0000000e+00 
0.0000000e+00 1.0652713e-09 0.0000000e+00 
2.0477561e-11 2.3751161e-08 2.8390679e-10 
9.1072691e-11 2.3634186e-08 5.8526073e-10 
-3.8231567e-11 2.3386820e-08 5.7725452e-10 
-1.1487073e-10 2.3598314e-08 3.0956690e-10 
-5.7863631e-11 2.3651648e-08 2.9639710e-10 
0.0000000e+00 2.4298854e-08 0.0000000e+00 
0.0000000e+00 2.4229031e-08 0.0000000e+00 
2.0478501e-11 2.3412811e-08 8.2192075e-10 
1.7309756e-10 2.3594616e-08 8.3266449e-10 
0.0000000e+00 2.4277535e-08 0.0000000e+00 
0.0000000e+00 2.4263189e-08 0.0000000e+00 
4.0347142e-11 4.9444786e-09 3.5684344e-10 
3.0061131e-11 4.6828594e-09 6.8855832e-10 
-1.3975822e-10 4.6724251e-09 6.8360939e-10 
-9.1293556e-11 4.9237934e-09 3.3844019e-10 
-1.9050010e-11 4.9520943e-09 3.4476391e-10 
0.0000000e+00 4.8320175e-09 0.0000000e+00 
0.0000000e+00 4.8341913e-09 0.0000000e+00 
6.1322076e-12 4.7066080e-09 6.9463407e-10 
1.6509195e-10 4.7168323e-09 6.9165962e-10 
0.0000000e+00 4.8237694e-09 0.0000000e+00 
0.0000000e+00 4.8318944e-09 0.0000000e+00 
-1.1840277e-10 -9.5051060e-09 4.7110843e-11 
-1.6672118e-10 -1.0108338e-08 1.3492005e-10 
-2.1475378e-10 -1.0021618e-08 1.2501167e-10 
-1.3442832e-10 -9.4565920e-09 3.0205661e-11 
-1.1647869e-10 -9.4651629e-09 3.7520886e-11 
0.0000000e+00 -9.3141708e-09 0.0000000e+00 
0.0000000e+00 -9.2960306e-09 0.0000000e+00 
1.3707238e-10 -9.9974127e-09 4.2503584e-11 
1.7044423e-10 -1.0059201e-08 3.9453631e-11 
0.0000000e+00 -9.3413446e-09 0.0000000e+00 
0.0000000e+00 -9.3216377e-09 0.0000000e+00 
-6.1639568e-11 -2.1222997e-09 -1.4401158e-10 
-5.7497500e-11 -2.2177056e-09 -2.7657390e-10 
1.1089647e-11 -2.1868976e-09 -2.7223887e-10 
-8.5762291e-12 -2.1055993e-09 -1.3462409e-10 
-3.7479710e-11 -2.1218081e-09 -1.3821982e-10 
0.0000000e+00 -1.9021846e-09 0.0000000e+00 
0.0000000e+00 -1.8975783e-09 0.0000000e+00 
6.2404713e-11 -2.2012889e-09 -2.9796027e-10 
-4.3771666e-12 -2.2212303e-09 -2.9600417e-10 
0.0000000e+00 -1.9070181e-09 0.0000000e+00 
0.0000000e+00 -1.9011497e-09 0.0000000e+00 
2.3750689e-11 4.1015116e-09 -6.0467936e-11 
4.1515028e-11 4.3098414e-09 -1.2996321e-10 
7.3280340e-11 4.2475943e-09 -1.2724512e-10 
4.2885147e-11 4.0707291e-09 -5.2581418e-11 
2.9297842e-11 4.0793711e-09 -5.5554335e-11 
0.0000000e+00 4.0820352e-09 0.0000000e+00 
0.0000000e+00 4.0655186e-09 0.0000000e+00 
-4.0322506e-11 4.2442645e-09 -6.7978741e-11 
-6.8814711e-11 4.2862842e-09 -6.6541210e-11 
0.0000000e+00 4.0872350e-09 0.0000000e+00 
0.0000000e+00 4.0789776e-09 0.0000000e+00 
-8.1377205e-12 7.0249995e-10 -1.9679444e-11 
-2.3413670e-11 6.8532124e-10 -4.8929038e-11 
-1.2055541e-11 6.5966033e-10 -4.9397517e-11 
-4.0283017e-13 6.8806266e-10 -2.4228780e-11 
-2.5945788e-12 6.9918632e-10 -2.1550779e-11 
0.0000000e+00 6.3344996e-10 0.0000000e+00 
0.0000000e+00 6.2761230e-10 0.0000000e+00 
2.7323853e-12 6.6969646e-10 -2.3340484e-11 
-7.5985026e-12 6.8846745e-10 -2.4321326e-11 
0.0000000e+00 6.3381494e-10 0.0000000e+00 
0.0000000e+00 6.2772521e-10 0.0000000e+00 
1.3306257e-11 -1.7355360e-09 1.4582649e-11 
1.0696196e-11 -1.7032254e-09 3.2477465e-11 
2.9640370e-12 -1.6913821e-09 3.3622716e-11 
8.3505650e-12 -1.7273806e-09 1.1467457e-11 
1.1597185e-11 -1.7287144e-09 1.2816449e-11 
0.0000000e+00 -1.7953957e-09 0.0000000e+00 
0.0000000e+00 -1.7918074e-09 0.0000000e+00 
-1.5322103e-11 -1.6930511e-09 1.9130374e-11 
-7.0526488e-12 -1.7026660e-09 1.8292109e-11 
0.0000000e+00 -1.7949188e-09 0.0000000e+00 
0.0000000e+00 -1.7941342e-09 0.0000000e+00 
7.9153897e-12 -1.8627520e-10 3.3006441e-11 
1.0989150e-11 -1.7239818e-10 5.5939992e-11 
6.2767391e-13 -1.5504649e-10 5.6421243e-11 
-1.2209731e-12 -1.7384118e-10 3.4376921e-11 
2.9760231e-12 -1.8128000e-10 3.3184816e-11 
0.0000000e+00 -1.7971204e-10 0.0000000e+00 
0.0000000e+00 -1.7387727e-10 0.0000000e+00 
-8.9169887e-12 -1.5806079e-10 3.7020571e-11 
1.1170653e-12 -1.7289643e-10 3.7282743e-11 
0.0000000e+00 -1.7792254e-10 0.0000000e+00 
0.0000000e+00 -1.7358714e-10 0.0000000e+00 
0.0000000e+00 7.6013652e-07 0.0000000e+00 
0.0000000e+00 -6.2512361e-12 0.0000000e+00 
-4.9405803e-13 1.1342783e-09 -1.0096041e-12 
5.3272355e-13 1.1435931e-09 -4.4433068e-14 
0.0000000e+00 1.1432091e-09 0.0000000e+00 