# vtk DataFile Version 4.0
vtk output
ASCII
DATASET UNSTRUCTURED_GRID
POINTS 1827 float
0.0000000e+00 0.0000000e+00 0.0000000e+00 
0.0000000e+00 0.0000000e+00 2.0000000e+01 
3.4700000e+00 0.0000000e+00 0.0000000e+00 
3.4700000e+00 0.0000000e+00 2.0000000e+01 
3.4700000e+00 1.0000000e+00 0.0000000e+00 
3.4700000e+00 1.0000000e+00 2.0000000e+01 
0.0000000e+00 1.0000000e+00 0.0000000e+00 
0.0000000e+00 1.0000000e+00 2.0000000e+01 
1.2500000e+00 2.5000000e+00 0.0000000e+00 
1.2500000e+00 2.5000000e+00 1.1700000e-01 
7.5000000e-01 2.5000000e+00 1.1700000e-01 
7.5000000e-01 2.5000000e+00 0.0000000e+00 
0.0000000e+00 2.5000000e+00 0.0000000e+00 
0.0000000e+00 2.5000000e+00 1.1700000e-01 
1.2500000e+00 2.8000000e+00 1.1700000e-01 
1.2500000e+00 2.8000000e+00 0.0000000e+00 
0.0000000e+00 2.8000000e+00 0.0000000e+00 
0.0000000e+00 2.8000000e+00 1.1700000e-01 
7.5000000e-01 2.5000000e+00 3.8299999e-01 
1.2500000e+00 2.5000000e+00 3.8299999e-01 
1.2500000e+00 2.5000000e+00 6.1699998e-01 
7.5000000e-01 2.5000000e+00 6.1699998e-01 
7.5000000e-01 2.5000000e+00 5.0000000e-01 
0.0000000e+00 2.5000000e+00 3.8299999e-01 
0.0000000e+00 2.5000000e+00 6.1699998e-01 
1.2500000e+00 2.8000000e+00 6.1699998e-01 
1.2500000e+00 2.8000000e+00 3.8299999e-01 
0.0000000e+00 2.8000000e+00 3.8299999e-01 
0.0000000e+00 2.8000000e+00 6.1699998e-01 
7.5000000e-01 2.5000000e+00 8.8300002e-01 
1.2500000e+00 2.5000000e+00 8.8300002e-01 
1.2500000e+00 2.5000000e+00 1.1170000e+00 
7.5000000e-01 2.5000000e+00 1.1170000e+00 
7.5000000e-01 2.5000000e+00 1.0000000e+00 
0.0000000e+00 2.5000000e+00 8.8300002e-01 
0.0000000e+00 2.5000000e+00 1.1170000e+00 
1.2500000e+00 2.8000000e+00 1.1170000e+00 
1.2500000e+00 2.8000000e+00 8.8300002e-01 
0.0000000e+00 2.8000000e+00 8.8300002e-01 
0.0000000e+00 2.8000000e+00 1.1170000e+00 
7.5000000e-01 2.5000000e+00 1.3830000e+00 
1.2500000e+00 2.5000000e+00 1.3830000e+00 
1.2500000e+00 2.5000000e+00 1.6170000e+00 
7.5000000e-01 2.5000000e+00 1.6170000e+00 
7.5000000e-01 2.5000000e+00 1.5000000e+00 
0.0000000e+00 2.5000000e+00 1.3830000e+00 
0.0000000e+00 2.5000000e+00 1.6170000e+00 
1.2500000e+00 2.8000000e+00 1.6170000e+00 
1.2500000e+00 2.8000000e+00 1.3830000e+00 
0.0000000e+00 2.8000000e+00 1.3830000e+00 
0.0000000e+00 2.8000000e+00 1.6170000e+00 
7.5000000e-01 2.5000000e+00 1.8830000e+00 
1.2500000e+00 2.5000000e+00 1.8830000e+00 
1.2500000e+00 2.5000000e+00 2.1170001e+00 
7.5000000e-01 2.5000000e+00 2.1170001e+00 
7.5000000e-01 2.5000000e+00 2.0000000e+00 
0.0000000e+00 2.5000000e+00 1.8830000e+00 
0.0000000e+00 2.5000000e+00 2.1170001e+00 
1.2500000e+00 2.8000000e+00 2.1170001e+00 
1.2500000e+00 2.8000000e+00 1.8830000e+00 
0.0000000e+00 2.8000000e+00 1.8830000e+00 
0.0000000e+00 2.8000000e+00 2.1170001e+00 
7.5000000e-01 2.5000000e+00 2.3829999e+00 
1.2500000e+00 2.5000000e+00 2.3829999e+00 
1.2500000e+00 2.5000000e+00 2.6170001e+00 
7.5000000e-01 2.5000000e+00 2.6170001e+00 
7.5000000e-01 2.5000000e+00 2.5000000e+00 
0.0000000e+00 2.5000000e+00 2.3829999e+00 
0.0000000e+00 2.5000000e+00 2.6170001e+00 
1.2500000e+00 2.8000000e+00 2.6170001e+00 
1.2500000e+00 2.8000000e+00 2.3829999e+00 
0.0000000e+00 2.8000000e+00 2.3829999e+00 
0.0000000e+00 2.8000000e+00 2.6170001e+00 
7.5000000e-01 2.5000000e+00 2.8829999e+00 
1.2500000e+00 2.5000000e+00 2.8829999e+00 
1.2500000e+00 2.5000000e+00 3.1170001e+00 
7.5000000e-01 2.5000000e+00 3.1170001e+00 
7.5000000e-01 2.5000000e+00 3.0000000e+00 
0.0000000e+00 2.5000000e+00 2.8829999e+00 
0.0000000e+00 2.5000000e+00 3.1170001e+00 
1.2500000e+00 2.8000000e+00 3.1170001e+00 
1.2500000e+00 2.8000000e+00 2.8829999e+00 
0.0000000e+00 2.8000000e+00 2.8829999e+00 
0.0000000e+00 2.8000000e+00 3.1170001e+00 
7.5000000e-01 2.5000000e+00 3.3829999e+00 
1.2500000e+00 2.5000000e+00 3.3829999e+00 
1.2500000e+00 2.5000000e+00 3.6170001e+00 
7.5000000e-01 2.5000000e+00 3.6170001e+00 
7.5000000e-01 2.5000000e+00 3.5000000e+00 
0.0000000e+00 2.5000000e+00 3.3829999e+00 
0.0000000e+00 2.5000000e+00 3.6170001e+00 
1.2500000e+00 2.8000000e+00 3.6170001e+00 
1.2500000e+00 2.8000000e+00 3.3829999e+00 
0.0000000e+00 2.8000000e+00 3.3829999e+00 
0.0000000e+00 2.8000000e+00 3.6170001e+00 
7.5000000e-01 2.5000000e+00 3.8829999e+00 
1.2500000e+00 2.5000000e+00 3.8829999e+00 
1.2500000e+00 2.5000000e+00 4.1170001e+00 
7.5000000e-01 2.5000000e+00 4.1170001e+00 
7.5000000e-01 2.5000000e+00 4.0000000e+00 
0.0000000e+00 2.5000000e+00 3.8829999e+00 
0.0000000e+00 2.5000000e+00 4.1170001e+00 
1.2500000e+00 2.8000000e+00 4.1170001e+00 
1.2500000e+00 2.8000000e+00 3.8829999e+00 
0.0000000e+00 2.8000000e+00 3.8829999e+00 
0.0000000e+00 2.8000000e+00 4.1170001e+00 
7.5000000e-01 2.5000000e+00 4.3829999e+00 
1.2500000e+00 2.5000000e+00 4.3829999e+00 
1.2500000e+00 2.5000000e+00 4.6170001e+00 
7.5000000e-01 2.5000000e+00 4.6170001e+00 
7.5000000e-01 2.5000000e+00 4.5000000e+00 
0.0000000e+00 2.5000000e+00 4.3829999e+00 
0.0000000e+00 2.5000000e+00 4.6170001e+00 
1.2500000e+00 2.8000000e+00 4.6170001e+00 
1.2500000e+00 2.8000000e+00 4.3829999e+00 
0.0000000e+00 2.8000000e+00 4.3829999e+00 
0.0000000e+00 2.8000000e+00 4.6170001e+00 
7.5000000e-01 2.5000000e+00 4.8829999e+00 
1.2500000e+00 2.5000000e+00 4.8829999e+00 
1.2500000e+00 2.5000000e+00 5.1170001e+00 
7.5000000e-01 2.5000000e+00 5.1170001e+00 
7.5000000e-01 2.5000000e+00 5.0000000e+00 
0.0000000e+00 2.5000000e+00 4.8829999e+00 
0.0000000e+00 2.5000000e+00 5.1170001e+00 
1.2500000e+00 2.8000000e+00 5.1170001e+00 
1.2500000e+00 2.8000000e+00 4.8829999e+00 
0.0000000e+00 2.8000000e+00 4.8829999e+00 
0.0000000e+00 2.8000000e+00 5.1170001e+00 
7.5000000e-01 2.5000000e+00 5.3829999e+00 
1.2500000e+00 2.5000000e+00 5.3829999e+00 
1.2500000e+00 2.5000000e+00 5.6170001e+00 
7.5000000e-01 2.5000000e+00 5.6170001e+00 
7.5000000e-01 2.5000000e+00 5.5000000e+00 
0.0000000e+00 2.5000000e+00 5.3829999e+00 
0.0000000e+00 2.5000000e+00 5.6170001e+00 
1.2500000e+00 2.8000000e+00 5.6170001e+00 
1.2500000e+00 2.8000000e+00 5.3829999e+00 
0.0000000e+00 2.8000000e+00 5.3829999e+00 
0.0000000e+00 2.8000000e+00 5.6170001e+00 
7.5000000e-01 2.5000000e+00 5.8829999e+00 
1.2500000e+00 2.5000000e+00 5.8829999e+00 
1.2500000e+00 2.5000000e+00 6.1170001e+00 
7.5000000e-01 2.5000000e+00 6.1170001e+00 
7.5000000e-01 2.5000000e+00 6.0000000e+00 
0.0000000e+00 2.5000000e+00 5.8829999e+00 
0.0000000e+00 2.5000000e+00 6.1170001e+00 
1.2500000e+00 2.8000000e+00 6.1170001e+00 
1.2500000e+00 2.8000000e+00 5.8829999e+00 
0.0000000e+00 2.8000000e+00 5.8829999e+00 
0.0000000e+00 2.8000000e+00 6.1170001e+00 
7.5000000e-01 2.5000000e+00 6.3829999e+00 
1.2500000e+00 2.5000000e+00 6.3829999e+00 
1.2500000e+00 2.5000000e+00 6.6170001e+00 
7.5000000e-01 2.5000000e+00 6.6170001e+00 
7.5000000e-01 2.5000000e+00 6.5000000e+00 
0.0000000e+00 2.5000000e+00 6.3829999e+00 
0.0000000e+00 2.5000000e+00 6.6170001e+00 
1.2500000e+00 2.8000000e+00 6.6170001e+00 
1.2500000e+00 2.8000000e+00 6.3829999e+00 
0.0000000e+00 2.8000000e+00 6.3829999e+00 
0.0000000e+00 2.8000000e+00 6.6170001e+00 
7.5000000e-01 2.5000000e+00 6.8829999e+00 
1.2500000e+00 2.5000000e+00 6.8829999e+00 
1.2500000e+00 2.5000000e+00 7.1170001e+00 
7.5000000e-01 2.5000000e+00 7.1170001e+00 
7.5000000e-01 2.5000000e+00 7.0000000e+00 
0.0000000e+00 2.5000000e+00 6.8829999e+00 
0.0000000e+00 2.5000000e+00 7.1170001e+00 
1.2500000e+00 2.8000000e+00 7.1170001e+00 
1.2500000e+00 2.8000000e+00 6.8829999e+00 
0.0000000e+00 2.8000000e+00 6.8829999e+00 
0.0000000e+00 2.8000000e+00 7.1170001e+00 
7.5000000e-01 2.5000000e+00 7.3829999e+00 
1.2500000e+00 2.5000000e+00 7.3829999e+00 
1.2500000e+00 2.5000000e+00 7.6170001e+00 
7.5000000e-01 2.5000000e+00 7.6170001e+00 
7.5000000e-01 2.5000000e+00 7.5000000e+00 
0.0000000e+00 2.5000000e+00 7.3829999e+00 
0.0000000e+00 2.5000000e+00 7.6170001e+00 
1.2500000e+00 2.8000000e+00 7.6170001e+00 
1.2500000e+00 2.8000000e+00 7.3829999e+00 
0.0000000e+00 2.8000000e+00 7.3829999e+00 
0.0000000e+00 2.8000000e+00 7.6170001e+00 
7.5000000e-01 2.5000000e+00 7.8829999e+00 
1.2500000e+00 2.5000000e+00 7.8829999e+00 
1.2500000e+00 2.5000000e+00 8.1169996e+00 
7.5000000e-01 2.5000000e+00 8.1169996e+00 
7.5000000e-01 2.5000000e+00 8.0000000e+00 
0.0000000e+00 2.5000000e+00 7.8829999e+00 
0.0000000e+00 2.5000000e+00 8.1169996e+00 
1.2500000e+00 2.8000000e+00 8.1169996e+00 
1.2500000e+00 2.8000000e+00 7.8829999e+00 
0.0000000e+00 2.8000000e+00 7.8829999e+00 
0.0000000e+00 2.8000000e+00 8.1169996e+00 
7.5000000e-01 2.5000000e+00 8.3830004e+00 
1.2500000e+00 2.5000000e+00 8.3830004e+00 
1.2500000e+00 2.5000000e+00 8.6169996e+00 
7.5000000e-01 2.5000000e+00 8.6169996e+00 
7.5000000e-01 2.5000000e+00 8.5000000e+00 
0.0000000e+00 2.5000000e+00 8.3830004e+00 
0.0000000e+00 2.5000000e+00 8.6169996e+00 
1.2500000e+00 2.8000000e+00 8.6169996e+00 
1.2500000e+00 2.8000000e+00 8.3830004e+00 
0.0000000e+00 2.8000000e+00 8.3830004e+00 
0.0000000e+00 2.8000000e+00 8.6169996e+00 
7.5000000e-01 2.5000000e+00 8.8830004e+00 
1.2500000e+00 2.5000000e+00 8.8830004e+00 
1.2500000e+00 2.5000000e+00 9.1169996e+00 
7.5000000e-01 2.5000000e+00 9.1169996e+00 
7.5000000e-01 2.5000000e+00 9.0000000e+00 
0.0000000e+00 2.5000000e+00 8.8830004e+00 
0.0000000e+00 2.5000000e+00 9.1169996e+00 
1.2500000e+00 2.8000000e+00 9.1169996e+00 
1.2500000e+00 2.8000000e+00 8.8830004e+00 
0.0000000e+00 2.8000000e+00 8.8830004e+00 
0.0000000e+00 2.8000000e+00 9.1169996e+00 
7.5000000e-01 2.5000000e+00 9.3830004e+00 
1.2500000e+00 2.5000000e+00 9.3830004e+00 
1.2500000e+00 2.5000000e+00 9.6169996e+00 
7.5000000e-01 2.5000000e+00 9.6169996e+00 
7.5000000e-01 2.5000000e+00 9.5000000e+00 
0.0000000e+00 2.5000000e+00 9.3830004e+00 
0.0000000e+00 2.5000000e+00 9.6169996e+00 
1.2500000e+00 2.8000000e+00 9.6169996e+00 
1.2500000e+00 2.8000000e+00 9.3830004e+00 
0.0000000e+00 2.8000000e+00 9.3830004e+00 
0.0000000e+00 2.8000000e+00 9.6169996e+00 
7.5000000e-01 2.5000000e+00 9.8830004e+00 
1.2500000e+00 2.5000000e+00 9.8830004e+00 
1.2500000e+00 2.5000000e+00 1.0117000e+01 
[...]
POINT_DATA 1827
FIELD FieldData 2
DISPLACEMENT 3 1827  float
0.0000000e+00 0.0000000e+00 0.0000000e+00 
0.0000000e+00 0.0000000e+00 0.0000000e+00 
0.0000000e+00 0.0000000e+00 0.0000000e+00 
0.0000000e+00 0.0000000e+00 0.0000000e+00 
0.0000000e+00 -2.5138379e-05 0.0000000e+00 
0.0000000e+00 -4.0536556e-06 0.0000000e+00 
0.0000000e+00 -4.8042057e-06 0.0000000e+00 
0.0000000e+00 -3.3750268e-06 0.0000000e+00 
0.0000000e+00 -6.6673961e-06 0.0000000e+00 
3.2844971e-09 -6.6700013e-06 1.8295597e-09 
-1.6278004e-09 -6.6126272e-06 -1.3490493e-09 
0.0000000e+00 -6.6120047e-06 0.0000000e+00 
0.0000000e+00 -6.5737690e-06 0.0000000e+00 
0.0000000e+00 -6.5720888e-06 0.0000000e+00 
6.3178831e-09 -6.6606462e-06 -3.4110206e-10 
0.0000000e+00 -6.6603252e-06 0.0000000e+00 
0.0000000e+00 -6.5752665e-06 0.0000000e+00 
0.0000000e+00 -6.5756121e-06 0.0000000e+00 
-2.3639627e-07 -2.5659258e-06 9.4687707e-08 
-2.9832262e-07 -3.5438206e-06 1.7049807e-07 
-3.2730438e-07 -3.5111395e-06 1.6053910e-07 
-2.6375105e-07 -2.5361626e-06 9.7622952e-08 
-2.4448613e-07 -2.5469569e-06 9.5199425e-08 
0.0000000e+00 -1.8523839e-06 0.0000000e+00 
0.0000000e+00 -1.8353805e-06 0.0000000e+00 
2.4271591e-07 -3.4705663e-06 1.2291440e-07 
2.7498317e-07 -3.5036319e-06 1.2448930e-07 
0.0000000e+00 -1.8868712e-06 0.0000000e+00 
0.0000000e+00 -1.8640183e-06 0.0000000e+00 
-1.4466288e-07 -6.8510981e-06 2.7706139e-07 
-1.9561696e-07 -7.7203958e-06 5.2409678e-07 
-2.7785921e-07 -7.7468294e-06 5.3186290e-07 
-2.4929690e-07 -6.8707695e-06 2.7680429e-07 
-1.9155334e-07 -6.8564582e-06 2.7603772e-07 
0.0000000e+00 -6.2272293e-06 0.0000000e+00 
0.0000000e+00 -6.2354002e-06 0.0000000e+00 
2.0361497e-07 -7.7064005e-06 5.4628953e-07 
3.2458468e-07 -7.6902852e-06 5.5257595e-07 
0.0000000e+00 -6.2659828e-06 0.0000000e+00 
0.0000000e+00 -6.2552267e-06 0.0000000e+00 
5.3839297e-08 -1.7728989e-05 4.6061831e-07 
1.0826972e-07 -1.8060722e-05 1.0400429e-06 
-1.5585107e-07 -1.8114353e-05 1.0498932e-06 
-1.4576439e-07 -1.7756400e-05 4.5772143e-07 
-4.3660190e-08 -1.7743958e-05 4.5524450e-07 
0.0000000e+00 -1.7457962e-05 0.0000000e+00 
0.0000000e+00 -1.7469521e-05 0.0000000e+00 
1.3784867e-08 -1.8087590e-05 1.0563956e-06 
2.8853032e-07 -1.8061197e-05 1.0632494e-06 
0.0000000e+00 -1.7483953e-05 0.0000000e+00 
0.0000000e+00 -1.7475673e-05 0.0000000e+00 
-5.2654379e-08 -3.0647563e-05 1.4384371e-07 
-4.9848079e-08 -3.1083786e-05 3.3937889e-07 
-1.4455674e-07 -3.1128158e-05 3.2581485e-07 
-1.1655766e-07 -3.0676219e-05 1.4045618e-07 
-8.0563005e-08 -3.0656440e-05 1.4093052e-07 
0.0000000e+00 -3.0368297e-05 0.0000000e+00 
0.0000000e+00 -3.0388697e-05 0.0000000e+00 
1.0513148e-07 -3.1096864e-05 3.6347626e-07 
1.9626326e-07 -3.1065862e-05 3.6415398e-07 
0.0000000e+00 -3.0387617e-05 0.0000000e+00 
0.0000000e+00 -3.0397494e-05 0.0000000e+00 
-1.7021293e-07 -3.8821065e-05 1.5802459e-09 
-1.9526634e-07 -3.9584080e-05 6.3655001e-08 
-2.3203040e-07 -3.9623621e-05 5.9397419e-08 
-1.8774487e-07 -3.8860235e-05 4.7917683e-09 
-1.7439237e-07 -3.8838796e-05 4.0368966e-09 
0.0000000e+00 -3.8273694e-05 0.0000000e+00 
0.0000000e+00 -3.8289149e-05 0.0000000e+00 
2.1262412e-07 -3.9594150e-05 1.0891316e-07 
2.3822203e-07 -3.9552844e-05 1.1231947e-07 
0.0000000e+00 -3.8310911e-05 0.0000000e+00 
0.0000000e+00 -3.8311075e-05 0.0000000e+00 
5.0110714e-08 -4.0763065e-05 1.6004645e-07 
5.2287110e-08 -4.0608084e-05 2.2567728e-07 
3.1801683e-08 -4.0521096e-05 2.4115988e-07 
1.6582582e-08 -4.0710001e-05 1.5827230e-07 
3.2758532e-08 -4.0734412e-05 1.5700651e-07 
0.0000000e+00 -4.0834660e-05 0.0000000e+00 
0.0000000e+00 -4.0814459e-05 0.0000000e+00 
-6.7134074e-08 -4.0542454e-05 1.4440801e-07 
-3.2796006e-08 -4.0613060e-05 1.4590174e-07 
0.0000000e+00 -4.0830186e-05 0.0000000e+00 
0.0000000e+00 -4.0810624e-05 0.0000000e+00 
2.5953668e-07 -3.5194389e-05 5.9331080e-07 
3.3743910e-07 -3.4756176e-05 1.2863842e-06 
1.7452068e-08 -3.4637476e-05 1.2933573e-06 
2.7030740e-08 -3.5104691e-05 5.8861707e-07 
1.4233423e-07 -3.5151676e-05 5.8492327e-07 
0.0000000e+00 -3.5506499e-05 0.0000000e+00 
0.0000000e+00 -3.5460860e-05 0.0000000e+00 
-2.4923136e-07 -3.4660097e-05 1.1203813e-06 
6.6574984e-08 -3.4773235e-05 1.1184891e-06 
0.0000000e+00 -3.5505098e-05 0.0000000e+00 
0.0000000e+00 -3.5453719e-05 0.0000000e+00 
-6.2396377e-09 -2.5528594e-05 4.0013028e-08 
2.4758133e-08 -2.5888301e-05 1.6142900e-07 
-2.1486569e-08 -2.5816575e-05 1.4395675e-07 
-2.9832325e-08 -2.5487725e-05 3.7511761e-08 
-1.6830235e-08 -2.5507588e-05 3.6302012e-08 
0.0000000e+00 -2.5211508e-05 0.0000000e+00 
0.0000000e+00 -2.5189598e-05 0.0000000e+00 
1.5767327e-07 -2.5813632e-05 7.5266499e-08 
2.0065190e-07 -2.5866031e-05 7.6836379e-08 
0.0000000e+00 -2.5229983e-05 0.0000000e+00 
0.0000000e+00 -2.5211015e-05 0.0000000e+00 
-2.1651985e-08 -1.7204497e-05 -2.5785178e-07 
-2.0388669e-08 -1.7309909e-05 -5.2726278e-07 
1.2022356e-07 -1.7301214e-05 -5.3561030e-07 
7.7351693e-08 -1.7212562e-05 -2.5932928e-07 
2.8001425e-08 -1.7210574e-05 -2.5641788e-07 
0.0000000e+00 -1.7129782e-05 0.0000000e+00 
0.0000000e+00 -1.7136283e-05 0.0000000e+00 
1.5057884e-07 -1.7302218e-05 -5.1635578e-07 
2.0432795e-08 -1.7294940e-05 -5.1497966e-07 
0.0000000e+00 -1.7135000e-05 0.0000000e+00 
0.0000000e+00 -1.7144266e-05 0.0000000e+00 
6.7040041e-08 -1.2329324e-05 -9.6442578e-09 
8.0906432e-08 -1.2105297e-05 7.7335178e-09 
6.8258117e-08 -1.2071118e-05 9.7317967e-09 
6.7114151e-08 -1.2307581e-05 -1.1697407e-08 
6.5516730e-08 -1.2317330e-05 -1.0957959e-08 
0.0000000e+00 -1.2519166e-05 0.0000000e+00 
0.0000000e+00 -1.2506825e-05 0.0000000e+00 
-6.2420888e-08 -1.2078982e-05 -2.9272103e-08 
-5.6639408e-08 -1.2105231e-05 -2.9733110e-08 
0.0000000e+00 -1.2504100e-05 0.0000000e+00 
0.0000000e+00 -1.2499901e-05 0.0000000e+00 
1.0365438e-07 -7.8537014e-06 1.7182512e-07 
1.2386990e-07 -7.6120464e-06 3.8039602e-07 
4.0178453e-08 -7.5275652e-06 3.8539287e-07 
3.7145135e-08 -7.8013418e-06 1.6929482e-07 
6.9834719e-08 -7.8271732e-06 1.6780787e-07 
0.0000000e+00 -8.0731706e-06 0.0000000e+00 
0.0000000e+00 -8.0453046e-06 0.0000000e+00 
-1.1683662e-07 -7.5409234e-06 2.8618891e-07 
-2.4376304e-08 -7.6073493e-06 2.8670459e-07 
0.0000000e+00 -8.0516356e-06 0.0000000e+00 
0.0000000e+00 -8.0377622e-06 0.0000000e+00 
6.3961991e-08 -2.2132019e-06 -2.6622617e-08 
7.1474837e-08 -1.9033623e-06 -8.3328167e-08 
9.6926463e-08 -1.8328471e-06 -9.4257189e-08 
8.7121315e-08 -2.1662722e-06 -2.8461997e-08 
7.4245357e-08 -2.1907495e-06 -2.8573247e-08 
0.0000000e+00 -2.5062734e-06 0.0000000e+00 
0.0000000e+00 -2.4866949e-06 0.0000000e+00 
-8.8417565e-08 -1.8445306e-06 -1.5791809e-07 
-1.1987957e-07 -1.8999461e-06 -1.6173908e-07 
0.0000000e+00 -2.4808351e-06 0.0000000e+00 
0.0000000e+00 -2.4747005e-06 0.0000000e+00 
4.4240998e-08 4.4599465e-06 -1.3235909e-07 
4.1176499e-08 4.7682356e-06 -3.1338976e-07 
1.2918790e-07 4.7872832e-06 -3.1337854e-07 
1.0676484e-07 4.4774479e-06 -1.3145159e-07 
7.4293247e-08 4.4663802e-06 -1.3077634e-07 
0.0000000e+00 4.1869766e-06 0.0000000e+00 
0.0000000e+00 4.1987864e-06 0.0000000e+00 
-5.3121827e-08 4.7782232e-06 -3.2715053e-07 
-1.3588007e-07 4.7612093e-06 -3.2866120e-07 
0.0000000e+00 4.2093670e-06 0.0000000e+00 
0.0000000e+00 4.2074521e-06 0.0000000e+00 
-4.2051539e-08 8.9536561e-06 -8.8309100e-08 
-6.3883633e-08 8.9617033e-06 -2.2228456e-07 
-1.9825524e-08 8.9879304e-06 -2.2031642e-07 
2.3896165e-09 8.9754039e-06 -8.7187317e-08 
-1.9734706e-08 8.9640680e-06 -8.7686232e-08 
0.0000000e+00 8.9035730e-06 0.0000000e+00 
0.0000000e+00 8.9127370e-06 0.0000000e+00 
-6.7510117e-09 8.9888390e-06 -2.4280979e-07 
-6.9484230e-08 8.9675505e-06 -2.4385128e-07 
0.0000000e+00 8.9142559e-06 0.0000000e+00 
0.0000000e+00 8.9168034e-06 0.0000000e+00 
-9.9747631e-08 1.0243974e-05 -3.9734243e-07 
-1.3686866e-07 1.0243904e-05 -9.0086451e-07 
1.0315107e-07 1.0249873e-05 -9.1907231e-07 
7.4167957e-08 1.0217579e-05 -3.9495754e-07 
-1.3449013e-08 1.0229566e-05 -3.9224585e-07 
0.0000000e+00 1.0205868e-05 0.0000000e+00 
0.0000000e+00 1.0193972e-05 0.0000000e+00 
9.5185328e-08 1.0236624e-05 -8.6398524e-07 
-1.4237102e-07 1.0257481e-05 -8.6930186e-07 
0.0000000e+00 1.0209272e-05 0.0000000e+00 
0.0000000e+00 1.0193388e-05 0.0000000e+00 
-4.9424862e-08 9.5777232e-06 -3.1011410e-07 
-9.5181413e-08 9.7268703e-06 -7.7316895e-07 
1.2922341e-07 9.6765198e-06 -7.6697529e-07 
9.1599901e-08 9.5482974e-06 -3.0541173e-07 
1.9451626e-08 9.5604100e-06 -3.0473626e-07 
0.0000000e+00 9.5036248e-06 0.0000000e+00 
0.0000000e+00 9.4885509e-06 0.0000000e+00 
4.9154380e-08 9.6684253e-06 -6.8969456e-07 
-1.5572037e-07 9.7111852e-06 -6.9098797e-07 
0.0000000e+00 9.5057512e-06 0.0000000e+00 
0.0000000e+00 9.4870247e-06 0.0000000e+00 
4.9449255e-08 9.6711183e-06 -7.5664310e-08 
5.1831680e-08 9.8997534e-06 -2.0801269e-07 
1.2272187e-07 9.9059262e-06 -2.0731402e-07 
8.7325269e-08 9.6752046e-06 -7.7373926e-08 
6.6355391e-08 9.6725144e-06 -7.5949551e-08 
0.0000000e+00 9.5385967e-06 0.0000000e+00 
0.0000000e+00 9.5348423e-06 0.0000000e+00 
-1.7555752e-08 9.8905020e-06 -2.0419685e-07 
-7.6866115e-08 9.8866349e-06 -2.0510893e-07 
0.0000000e+00 9.5372652e-06 0.0000000e+00 
0.0000000e+00 9.5379710e-06 0.0000000e+00 
2.5740858e-09 1.4568084e-05 -1.0335287e-07 
-5.3474665e-09 1.4644947e-05 -3.3922200e-07 
8.9076948e-08 1.4697938e-05 -3.5331203e-07 
7.3155846e-08 1.4602256e-05 -1.1084541e-07 
3.6652665e-08 1.4590581e-05 -1.0669398e-07 
0.0000000e+00 1.4530628e-05 0.0000000e+00 
0.0000000e+00 1.4542601e-05 0.0000000e+00 
4.9305704e-08 1.4686720e-05 -3.7853852e-07 
-6.0381204e-08 1.4649621e-05 -3.8389888e-07 
0.0000000e+00 1.4530378e-05 0.0000000e+00 
0.0000000e+00 1.4535301e-05 0.0000000e+00 
-6.1096145e-08 2.5100255e-05 -3.8320050e-07 
-1.0567598e-07 2.5275100e-05 -8.2703502e-07 
9.7227215e-08 2.5279585e-05 -8.2306207e-07 
9.2865761e-08 2.5095807e-05 -3.8278972e-07 
1.3984188e-08 2.5100118e-05 -3.7944520e-07 
0.0000000e+00 2.4984769e-05 0.0000000e+00 
0.0000000e+00 2.4980984e-05 0.0000000e+00 
1.6884409e-08 2.5263271e-05 -7.9650215e-07 
-1.8995624e-07 2.5274179e-05 -8.0002832e-07 
0.0000000e+00 2.4996005e-05 0.0000000e+00 
0.0000000e+00 2.4981946e-05 0.0000000e+00 
-2.0115513e-07 3.2274267e-05 -4.4488729e-07 
-2.6504614e-07 3.1953430e-05 -9.2978553e-07 
-5.1704475e-08 3.1837211e-05 -9.2620650e-07 
-3.4650640e-08 3.2210497e-05 -4.4238450e-07 
-1.1685733e-07 3.2246215e-05 -4.3873948e-07 
0.0000000e+00 3.2532815e-05 0.0000000e+00 
0.0000000e+00 3.2505195e-05 0.0000000e+00 
1.6811052e-07 3.1862801e-05 -7.9183610e-07 
-4.8904756e-08 3.1955296e-05 -7.9030411e-07 
0.0000000e+00 3.2533830e-05 0.0000000e+00 
0.0000000e+00 3.2496730e-05 0.0000000e+00 
-8.3262449e-08 2.4088677e-05 1.2306853e-07 
-1.0925312e-07 2.3629069e-05 2.0657906e-07 
-1.5009871e-07 2.3486082e-05 2.0762293e-07 
-1.3555551e-07 2.4006147e-05 1.2596662e-07 
-1.0666175e-07 2.4049907e-05 1.2433355e-07 
0.0000000e+00 2.4434270e-05 0.0000000e+00 
0.0000000e+00 2.4394536e-05 0.0000000e+00 
1.2599497e-07 2.3527557e-05 3.4739793e-07 
1.7704413e-07 2.3631343e-05 3.4982722e-07 
0.0000000e+00 2.4402949e-05 0.0000000e+00 
0.0000000e+00 2.4384562e-05 0.0000000e+00 
-1.1351429e-07 -1.1020623e-05 -7.6089236e-07 
-1.4767251e-07 -1.1027181e-05 -1.5099450e-06 
1.8645586e-07 -1.1694704e-05 -1.5215502e-06 
1.1219301e-07 -1.1503496e-05 -7.6110786e-07 
6.6768302e-10 -1.1261303e-05 -7.4268803e-07 
0.0000000e+00 -1.1078112e-05 0.0000000e+00 
0.0000000e+00 -1.1271969e-05 0.0000000e+00 
2.1741089e-07 -1.1637046e-05 -7.5451572e-07 
-9.3995290e-08 -1.1073005e-05 -7.5304013e-07 
0.0000000e+00 -1.1129103e-05 0.0000000e+00 
0.0000000e+00 -1.1267857e-05 0.0000000e+00 
1.9577720e-07 -8.2663923e-05 5.8013870e-07 
2.9095227e-07 -8.2383485e-05 1.3550095e-06 
-9.9983851e-08 -8.2832703e-05 1.3689439e-06 
-1.0106228e-07 -8.3004306e-05 5.9547625e-07 
4.3034422e-08 -8.2841485e-05 5.8565627e-07 
0.0000000e+00 -8.2713923e-05 0.0000000e+00 
0.0000000e+00 -8.2873768e-05 0.0000000e+00 
-2.3383454e-07 -8.2818216e-05 1.8115293e-06 
1.4638515e-07 -8.2448300e-05 1.8200125e-06 
0.0000000e+00 -8.2766994e-05 0.0000000e+00 
0.0000000e+00 -8.2840852e-05 0.0000000e+00 
5.5936067e-07 -1.8943108e-04 1.6367517e-07 
7.7174076e-07 -1.8738245e-04 7.5375391e-07 
3.8519892e-07 -1.8838717e-04 8.2633557e-07 
3.2472633e-07 -1.9009929e-04 1.8648704e-07 
4.2214694e-07 -1.8980101e-04 1.8136255e-07 
0.0000000e+00 -1.9063489e-04 0.0000000e+00 
0.0000000e+00 -1.9095904e-04 0.0000000e+00 
-6.7933951e-07 -1.8839462e-04 1.7890840e-06 
-3.5409286e-07 -1.8759984e-04 1.8046940e-06 
0.0000000e+00 -1.9066129e-04 0.0000000e+00 
0.0000000e+00 -1.9086796e-04 0.0000000e+00 
4.3758493e-07 -3.0746750e-04 -7.0763882e-08 
6.0979471e-07 -3.0550046e-04 1.0159284e-07 
4.5750406e-07 -3.0647434e-04 1.2684900e-07 
3.3789553e-07 -3.0802048e-04 -2.2991193e-08 
3.6121986e-07 -3.0778546e-04 -3.9182929e-08 
0.0000000e+00 -3.0811797e-04 0.0000000e+00 
0.0000000e+00 -3.0835977e-04 0.0000000e+00 
-5.3153593e-07 -3.0648845e-04 1.0556178e-06 
-3.9972025e-07 -3.0577721e-04 1.0606321e-06 
0.0000000e+00 -3.0815238e-04 0.0000000e+00 
0.0000000e+00 -3.0831576e-04 0.0000000e+00 
7.5626360e-07 -3.6009392e-04 7.0434714e-07 
1.1110654e-06 -3.5718767e-04 1.4578723e-06 
7.0325495e-07 -3.5718296e-04 1.4976208e-06 
4.9722394e-07 -3.6006508e-04 7.6206652e-07 
5.9415055e-07 -3.6015120e-04 7.2627762e-07 
0.0000000e+00 -3.6132676e-04 0.0000000e+00 
0.0000000e+00 -3.6128328e-04 0.0000000e+00 
-9.6005692e-07 -3.5738907e-04 1.4086269e-06 
-6.1042596e-07 -3.5742635e-04 1.4128107e-06 
0.0000000e+00 -3.6124478e-04 0.0000000e+00 
0.0000000e+00 -3.6123427e-04 0.0000000e+00 
5.0566257e-07 -2.8092388e-04 9.2554274e-07 
6.6713716e-07 -2.7932582e-04 1.7682078e-06 
3.0959450e-07 -2.7830058e-04 1.7943180e-06 
2.4634954e-07 -2.8029698e-04 9.6838448e-07 
3.5658968e-07 -2.8065740e-04 9.2315969e-07 
0.0000000e+00 -2.8142182e-04 0.0000000e+00 
0.0000000e+00 -2.8113791e-04 0.0000000e+00 
-6.8070210e-07 -2.7856024e-04 7.2061346e-07 
-3.5872188e-07 -2.7934753e-04 7.1635679e-07 
0.0000000e+00 -2.8131259e-04 0.0000000e+00 
0.0000000e+00 -2.8113194e-04 0.0000000e+00 
2.2688572e-07 -1.6217738e-04 7.4756294e-08 
2.7949719e-07 -1.6113238e-04 2.2505573e-08 
3.6489476e-07 -1.6038059e-04 8.4152333e-08 
2.7389012e-07 -1.6169582e-04 9.9746806e-08 
2.3595670e-07 -1.6196337e-04 7.7662584e-08 
0.0000000e+00 -1.6257312e-04 0.0000000e+00 
0.0000000e+00 -1.6235722e-04 0.0000000e+00 
-3.0984469e-07 -1.6055522e-04 -7.0952393e-07 
-3.7245280e-07 -1.6113772e-04 -7.0634110e-07 
0.0000000e+00 -1.6247894e-04 0.0000000e+00 
0.0000000e+00 -1.6235585e-04 0.0000000e+00 
-1.0970102e-07 -6.7266985e-05 -4.7616649e-07 
-1.1834524e-07 -6.7247827e-05 -9.9814019e-07 
1.4588063e-07 -6.6871238e-05 -9.8760813e-07 
1.1096908e-07 -6.7001165e-05 -4.7638599e-07 
-2.7012503e-09 -6.7135581e-05 -4.7492887e-07 
0.0000000e+00 -6.7118926e-05 0.0000000e+00 
0.0000000e+00 -6.7015899e-05 0.0000000e+00 
1.1494637e-07 -6.6927329e-05 -1.3662628e-06 
-1.5326617e-07 -6.7223751e-05 -1.3695692e-06 
0.0000000e+00 -6.7091452e-05 0.0000000e+00 
0.0000000e+00 -6.7031797e-05 0.0000000e+00 
8.2766519e-08 -6.6311618e-06 4.8895919e-07 
1.3194055e-07 -6.7101296e-06 9.9131807e-07 
-7.7725495e-08 -6.2688678e-06 9.5908251e-07 
-6.3662533e-08 -6.3555599e-06 4.7973668e-07 
1.0995529e-08 -6.4947662e-06 4.7610635e-07 
0.0000000e+00 -6.5263748e-06 0.0000000e+00 
0.0000000e+00 -6.4135547e-06 0.0000000e+00 
-8.3081751e-08 -6.3132179e-06 5.0635725e-07 
1.1634906e-07 -6.6616067e-06 4.9738338e-07 
0.0000000e+00 -6.5384152e-06 0.0000000e+00 
0.0000000e+00 -6.4386268e-06 0.0000000e+00 
-1.8057696e-07 2.4415072e-05 -5.6057087e-07 
-2.3665989e-07 2.4151110e-05 -1.1421996e-06 
5.2346486e-08 2.4226923e-05 -1.1468692e-06 
4.1309040e-08 2.4440351e-05 -5.6149082e-07 
-6.8072481e-08 2.4433630e-05 -5.5607717e-07 
0.0000000e+00 2.4543679e-05 0.0000000e+00 
0.0000000e+00 2.4548712e-05 0.0000000e+00 
1.9213958e-07 2.4220826e-05 -1.1766464e-06 
-8.7459426e-08 2.4186893e-05 -1.1799212e-06 
0.0000000e+00 2.4543611e-05 0.0000000e+00 
0.0000000e+00 2.4539839e-05 0.0000000e+00 
-8.3753385e-08 3.3194581e-05 -3.3805208e-07 
-9.8211196e-08 3.3168406e-05 -6.2352314e-07 
3.2083349e-08 3.3082277e-05 -6.1609569e-07 
2.5559723e-08 3.3121851e-05 -3.3246801e-07 
-2.8685330e-08 3.3156983e-05 -3.3087795e-07 
0.0000000e+00 3.3216951e-05 0.0000000e+00 
0.0000000e+00 3.3189968e-05 0.0000000e+00 
5.6526559e-08 3.3081658e-05 -5.0856670e-07 
-7.5473395e-08 3.3165255e-05 -5.0738720e-07 
0.0000000e+00 3.3213953e-05 0.0000000e+00 
0.0000000e+00 3.3189102e-05 0.0000000e+00 
1.2731610e-09 2.3116967e-05 1.4844012e-07 
-8.8765573e-09 2.3121183e-05 2.6672495e-07 
-6.6818785e-08 2.3029468e-05 2.7996958e-07 
-5.7855353e-08 2.3068544e-05 1.5469466e-07 
-2.9248369e-08 2.3090246e-05 1.5062645e-07 
0.0000000e+00 2.3162336e-05 0.0000000e+00 
0.0000000e+00 2.3134373e-05 0.0000000e+00 
-5.0517770e-08 2.3039138e-05 3.5580570e-07 
1.5939094e-08 2.3100816e-05 3.5685105e-07 
0.0000000e+00 2.3157101e-05 0.0000000e+00 
0.0000000e+00 2.3144157e-05 0.0000000e+00 
1.7543329e-08 4.5177321e-06 3.0414606e-07 
-4.2220094e-09 4.4462913e-06 5.9572892e-07 
-1.5863627e-07 4.2632078e-06 6.0464708e-07 
-1.0991806e-07 4.4010508e-06 3.0346959e-07 
-4.4376286e-08 4.4619692e-06 3.0584340e-07 
0.0000000e+00 4.5080565e-06 0.0000000e+00 
0.0000000e+00 4.4587982e-06 0.0000000e+00 
-8.3228706e-08 4.2960755e-06 7.7269789e-07 
7.0584910e-08 4.4316416e-06 7.7224507e-07 
0.0000000e+00 4.4914987e-06 0.0000000e+00 
0.0000000e+00 4.4630306e-06 0.0000000e+00 
5.6923838e-08 -6.8393842e-06 2.3367946e-07 
5.2936990e-08 -6.7728047e-06 4.5720597e-07 
-5.1085376e-08 -6.7531359e-06 4.4837239e-07 
-2.5473900e-08 -6.8192826e-06 2.2407998e-07 
1.7534752e-08 -6.8224508e-06 2.2658705e-07 
0.0000000e+00 -7.0006431e-06 0.0000000e+00 
0.0000000e+00 -6.9894722e-06 0.0000000e+00 
-8.7196682e-08 -6.7420387e-06 4.1703629e-07 
1.8210176e-08 -6.7662368e-06 4.1403464e-07 
0.0000000e+00 -6.9913963e-06 0.0000000e+00 
0.0000000e+00 -6.9841672e-06 0.0000000e+00 
5.8022578e-09 -3.5399516e-06 -1.7500934e-08 
1.5153786e-08 -3.6209819e-06 6.3817001e-09 
1.3748729e-08 -3.4584814e-06 1.1749822e-10 
1.9856344e-08 -3.4539426e-06 -2.3368358e-08 
1.3851026e-08 -3.4924212e-06 -2.2775728e-08 
0.0000000e+00 -3.5584703e-06 0.0000000e+00 
0.0000000e+00 -3.5193655e-06 0.0000000e+00 
3.2001420e-08 -3.4732263e-06 -1.5589796e-07 
2.8516597e-08 -3.5871319e-06 -1.5664347e-07 
0.0000000e+00 -3.5457147e-06 0.0000000e+00 
0.0000000e+00 -3.5237983e-06 0.0000000e+00 
-2.3442006e-08 5.1537463e-06 -1.9200746e-07 
-2.6881242e-09 5.1290849e-06 -3.5402752e-07 
8.2565947e-08 5.1943512e-06 -3.6428267e-07 
4.7004324e-08 5.1743891e-06 -1.8651446e-07 
9.0157632e-09 5.1598608e-06 -1.8864867e-07 
0.0000000e+00 5.2589808e-06 0.0000000e+00 
0.0000000e+00 5.2677810e-06 0.0000000e+00 
7.4090536e-08 5.1703591e-06 -4.0349917e-07 
-1.2666479e-08 5.1368224e-06 -4.0403546e-07 
0.0000000e+00 5.2574228e-06 0.0000000e+00 
0.0000000e+00 5.2620794e-06 0.0000000e+00 
-5.4578727e-08 5.7185448e-06 -1.2078216e-08 
-5.3854670e-08 5.5418991e-06 3.7692143e-08 
-9.2116345e-08 5.4892625e-06 4.6141128e-08 
-6.8183688e-08 5.6817830e-06 -4.6301230e-09 
-6.2360364e-08 5.6952013e-06 -7.8960172e-09 
0.0000000e+00 5.9502208e-06 0.0000000e+00 
0.0000000e+00 5.9312665e-06 0.0000000e+00 
3.1049634e-08 5.4918519e-06 9.2686548e-08 
5.3953595e-08 5.5351338e-06 9.5458525e-08 
0.0000000e+00 5.9334511e-06 0.0000000e+00 
0.0000000e+00 5.9282406e-06 0.0000000e+00 
-2.1597449e-08 -2.7528738e-06 1.5759063e-07 
-4.6251024e-08 -2.8199302e-06 3.1153471e-07 
-1.3146901e-07 -2.8545669e-06 3.1295224e-07 
-8.3698865e-08 -2.7774490e-06 1.5890535e-07 
-5.0963276e-08 -2.7616111e-06 1.5677512e-07 
0.0000000e+00 -2.7113988e-06 0.0000000e+00 
0.0000000e+00 -2.7277886e-06 0.0000000e+00 
-6.3684929e-08 -2.8460095e-06 3.4338683e-07 
1.0572869e-08 -2.8198767e-06 3.4201193e-07 
0.0000000e+00 -2.7188180e-06 0.0000000e+00 
0.0000000e+00 -2.7229250e-06 0.0000000e+00 
0.0000000e+00 -4.0718598e-05 0.0000000e+00 
0.0000000e+00 -1.7153774e-05 0.0000000e+00 
1.0660791e-09 -7.9031242e-06 4.6407798e-09 
-4.5713180e-09 -7.9458769e-06 5.0074349e-09 