# vtk DataFile Version 4.0
vtk output
ASCII
DATASET UNSTRUCTURED_GRID
POINTS 1827 float
0.0000000e+00 0.0000000e+00 0.0000000e+00 
0.0000000e+00 0.0000000e+00 2.0000000e+01 
3.4700000e+00 0.0000000e+00 0.0000000e+00 
3.4700000e+00 0.0000000e+00 2.0000000e+01 
3.4700000e+00 1.0000000e+00 0.0000000e+00 
3.4700000e+00 1.0000000e+00 2.0000000e+01 
0.0000000e+00 1.0000000e+00 0.0000000e+00 
0.0000000e+00 1.0000000e+00 2.0000000e+01 
1.2500000e+00 2.5000000e+00 0.0000000e+00 
1.2500000e+00 2.5000000e+00 1.1700000e-01 
7.5000000e-01 2.5000000e+00 1.1700000e-01 
7.5000000e-01 2.5000000e+00 0.0000000e+00 
0.0000000e+00 2.5000000e+00 0.0000000e+00 
0.0000000e+00 2.5000000e+00 1.1700000e-01 
1.2500000e+00 2.8000000e+00 1.1700000e-01 
1.2500000e+00 2.8000000e+00 0.0000000e+00 
0.0000000e+00 2.8000000e+00 0.0000000e+00 
0.0000000e+00 2.8000000e+00 1.1700000e-01 
7.5000000e-01 2.5000000e+00 3.8299999e-01 
1.2500000e+00 2.5000000e+00 3.8299999e-01 
1.2500000e+00 2.5000000e+00 6.1699998e-01 
7.5000000e-01 2.5000000e+00 6.1699998e-01 
7.5000000e-01 2.5000000e+00 5.0000000e-01 
0.0000000e+00 2.5000000e+00 3.8299999e-01 
0.0000000e+00 2.5000000e+00 6.1699998e-01 
1.2500000e+00 2.8000000e+00 6.1699998e-01 
1.2500000e+00 2.8000000e+00 3.8299999e-01 
0.0000000e+00 2.8000000e+00 3.8299999e-01 
0.0000000e+00 2.8000000e+00 6.1699998e-01 
7.5000000e-01 2.5000000e+00 8.8300002e-01 
1.2500000e+00 2.5000000e+00 8.8300002e-01 
1.2500000e+00 2.5000000e+00 1.1170000e+00 
7.5000000e-01 2.5000000e+00 1.1170000e+00 
7.5000000e-01 2.5000000e+00 1.0000000e+00 
0.0000000e+00 2.5000000e+00 8.8300002e-01 
0.0000000e+00 2.5000000e+00 1.1170000e+00 
1.2500000e+00 2.8000000e+00 1.1170000e+00 
1.2500000e+00 2.8000000e+00 8.8300002e-01 
0.0000000e+00 2.8000000e+00 8.8300002e-01 
0.0000000e+00 2.8000000e+00 1.1170000e+00 
7.5000000e-01 2.5000000e+00 1.3830000e+00 
1.2500000e+00 2.5000000e+00 1.3830000e+00 
1.2500000e+00 2.5000000e+00 1.6170000e+00 
7.5000000e-01 2.5000000e+00 1.6170000e+00 
7.5000000e-01 2.5000000e+00 1.5000000e+00 
0.0000000e+00 2.5000000e+00 1.3830000e+00 
0.0000000e+00 2.5000000e+00 1.6170000e+00 
1.2500000e+00 2.8000000e+00 1.6170000e+00 
1.2500000e+00 2.8000000e+00 1.3830000e+00 
0.0000000e+00 2.8000000e+00 1.3830000e+00 
0.0000000e+00 2.8000000e+00 1.6170000e+00 
7.5000000e-01 2.5000000e+00 1.8830000e+00 
1.2500000e+00 2.5000000e+00 1.8830000e+00 
1.2500000e+00 2.5000000e+00 2.1170001e+00 
7.5000000e-01 2.5000000e+00 2.1170001e+00 
7.5000000e-01 2.5000000e+00 2.0000000e+00 
0.0000000e+00 2.5000000e+00 1.8830000e+00 
0.0000000e+00 2.5000000e+00 2.1170001e+00 
1.2500000e+00 2.8000000e+00 2.1170001e+00 
1.2500000e+00 2.8000000e+00 1.8830000e+00 
0.0000000e+00 2.8000000e+00 1.8830000e+00 
0.0000000e+00 2.8000000e+00 2.1170001e+00 
7.5000000e-01 2.5000000e+00 2.3829999e+00 
1.2500000e+00 2.5000000e+00 2.3829999e+00 
1.2500000e+00 2.5000000e+00 2.6170001e+00 
7.5000000e-01 2.5000000e+00 2.6170001e+00 
7.5000000e-01 2.5000000e+00 2.5000000e+00 
0.0000000e+00 2.5000000e+00 2.3829999e+00 
0.0000000e+00 2.5000000e+00 2.6170001e+00 
1.2500000e+00 2.8000000e+00 2.6170001e+00 
1.2500000e+00 2.8000000e+00 2.3829999e+00 
0.0000000e+00 2.8000000e+00 2.3829999e+00 
0.0000000e+00 2.8000000e+00 2.6170001e+00 
7.5000000e-01 2.5000000e+00 2.8829999e+00 
1.2500000e+00 2.5000000e+00 2.8829999e+00 
1.2500000e+00 2.5000000e+00 3.1170001e+00 
7.5000000e-01 2.5000000e+00 3.1170001e+00 
7.5000000e-01 2.5000000e+00 3.0000000e+00 
0.0000000e+00 2.5000000e+00 2.8829999e+00 
0.0000000e+00 2.5000000e+00 3.1170001e+00 
1.2500000e+00 2.8000000e+00 3.1170001e+00 
1.2500000e+00 2.8000000e+00 2.8829999e+00 
0.0000000e+00 2.8000000e+00 2.8829999e+00 
0.0000000e+00 2.8000000e+00 3.1170001e+00 
7.5000000e-01 2.5000000e+00 3.3829999e+00 
1.2500000e+00 2.5000000e+00 3.3829999e+00 
1.2500000e+00 2.5000000e+00 3.6170001e+00 
7.5000000e-01 2.5000000e+00 3.6170001e+00 
7.5000000e-01 2.5000000e+00 3.5000000e+00 
0.0000000e+00 2.5000000e+00 3.3829999e+00 
0.0000000e+00 2.5000000e+00 3.6170001e+00 
1.2500000e+00 2.8000000e+00 3.6170001e+00 
1.2500000e+00 2.8000000e+00 3.3829999e+00 
0.0000000e+00 2.8000000e+00 3.3829999e+00 
0.0000000e+00 2.8000000e+00 3.6170001e+00 
7.5000000e-01 2.5000000e+00 3.8829999e+00 
1.2500000e+00 2.5000000e+00 3.8829999e+00 
1.2500000e+00 2.5000000e+00 4.1170001e+00 
7.5000000e-01 2.5000000e+00 4.1170001e+00 
7.5000000e-01 2.5000000e+00 4.0000000e+00 
0.0000000e+00 2.5000000e+00 3.8829999e+00 
0.0000000e+00 2.5000000e+00 4.1170001e+00 
1.2500000e+00 2.8000000e+00 4.1170001e+00 
1.2500000e+00 2.8000000e+00 3.8829999e+00 
0.0000000e+00 2.8000000e+00 3.8829999e+00 
0.0000000e+00 2.8000000e+00 4.1170001e+00 
7.5000000e-01 2.5000000e+00 4.3829999e+00 
1.2500000e+00 2.5000000e+00 4.3829999e+00 
1.2500000e+00 2.5000000e+00 4.6170001e+00 
7.5000000e-01 2.5000000e+00 4.6170001e+00 
7.5000000e-01 2.5000000e+00 4.5000000e+00 
0.0000000e+00 2.5000000e+00 4.3829999e+00 
0.0000000e+00 2.5000000e+00 4.6170001e+00 
1.2500000e+00 2.8000000e+00 4.6170001e+00 
1.2500000e+00 2.8000000e+00 4.3829999e+00 
0.0000000e+00 2.8000000e+00 4.3829999e+00 
0.0000000e+00 2.8000000e+00 4.6170001e+00 
7.5000000e-01 2.5000000e+00 4.8829999e+00 
1.2500000e+00 2.5000000e+00 4.8829999e+00 
1.2500000e+00 2.5000000e+00 5.1170001e+00 
7.5000000e-01 2.5000000e+00 5.1170001e+00 
7.5000000e-01 2.5000000e+00 5.0000000e+00 
0.0000000e+00 2.5000000e+00 4.8829999e+00 
0.0000000e+00 2.5000000e+00 5.1170001e+00 
1.2500000e+00 2.8000000e+00 5.1170001e+00 
1.2500000e+00 2.8000000e+00 4.8829999e+00 
0.0000000e+00 2.8000000e+00 4.8829999e+00 
0.0000000e+00 2.8000000e+00 5.1170001e+00 
7.5000000e-01 2.5000000e+00 5.3829999e+00 
1.2500000e+00 2.5000000e+00 5.3829999e+00 
1.2500000e+00 2.5000000e+00 5.6170001e+00 
7.5000000e-01 2.5000000e+00 5.6170001e+00 
7.5000000e-01 2.5000000e+00 5.5000000e+00 
0.0000000e+00 2.5000000e+00 5.3829999e+00 
0.0000000e+00 2.5000000e+00 5.6170001e+00 
1.2500000e+00 2.8000000e+00 5.6170001e+00 
1.2500000e+00 2.8000000e+00 5.3829999e+00 
0.0000000e+00 2.8000000e+00 5.3829999e+00 
0.0000000e+00 2.8000000e+00 5.6170001e+00 
7.5000000e-01 2.5000000e+00 5.8829999e+00 
1.2500000e+00 2.5000000e+00 5.8829999e+00 
1.2500000e+00 2.5000000e+00 6.1170001e+00 
7.5000000e-01 2.5000000e+00 6.1170001e+00 
7.5000000e-01 2.5000000e+00 6.0000000e+00 
0.0000000e+00 2.5000000e+00 5.8829999e+00 
0.0000000e+00 2.5000000e+00 6.1170001e+00 
1.2500000e+00 2.8000000e+00 6.1170001e+00 
1.2500000e+00 2.8000000e+00 5.8829999e+00 
0.0000000e+00 2.8000000e+00 5.8829999e+00 
0.0000000e+00 2.8000000e+00 6.1170001e+00 
7.5000000e-01 2.5000000e+00 6.3829999e+00 
1.2500000e+00 2.5000000e+00 6.3829999e+00 
1.2500000e+00 2.5000000e+00 6.6170001e+00 
7.5000000e-01 2.5000000e+00 6.6170001e+00 
7.5000000e-01 2.5000000e+00 6.5000000e+00 
0.0000000e+00 2.5000000e+00 6.3829999e+00 
0.0000000e+00 2.5000000e+00 6.6170001e+00 
1.2500000e+00 2.8000000e+00 6.6170001e+00 
1.2500000e+00 2.8000000e+00 6.3829999e+00 
0.0000000e+00 2.8000000e+00 6.3829999e+00 
0.0000000e+00 2.8000000e+00 6.6170001e+00 
7.5000000e-01 2.5000000e+00 6.8829999e+00 
1.2500000e+00 2.5000000e+00 6.8829999e+00 
1.2500000e+00 2.5000000e+00 7.1170001e+00 
7.5000000e-01 2.5000000e+00 7.1170001e+00 
7.5000000e-01 2.5000000e+00 7.0000000e+00 
0.0000000e+00 2.5000000e+00 6.8829999e+00 
0.0000000e+00 2.5000000e+00 7.1170001e+00 
1.2500000e+00 2.8000000e+00 7.1170001e+00 
1.2500000e+00 2.8000000e+00 6.8829999e+00 
0.0000000e+00 2.8000000e+00 6.8829999e+00 
0.0000000e+00 2.8000000e+00 7.1170001e+00 
7.5000000e-01 2.5000000e+00 7.3829999e+00 
1.2500000e+00 2.5000000e+00 7.3829999e+00 
1.2500000e+00 2.5000000e+00 7.6170001e+00 
7.5000000e-01 2.5000000e+00 7.6170001e+00 
7.5000000e-01 2.5000000e+00 7.5000000e+00 
0.0000000e+00 2.5000000e+00 7.3829999e+00 
0.0000000e+00 2.5000000e+00 7.6170001e+00 
1.2500000e+00 2.8000000e+00 7.6170001e+00 
1.2500000e+00 2.8000000e+00 7.3829999e+00 
0.0000000e+00 2.8000000e+00 7.3829999e+00 
0.0000000e+00 2.8000000e+00 7.6170001e+00 
7.5000000e-01 2.5000000e+00 7.8829999e+00 
1.2500000e+00 2.5000000e+00 7.8829999e+00 
1.2500000e+00 2.5000000e+00 8.1169996e+00 
7.5000000e-01 2.5000000e+00 8.1169996e+00 
7.5000000e-01 2.5000000e+00 8.0000000e+00 
0.0000000e+00 2.5000000e+00 7.8829999e+00 
0.0000000e+00 2.5000000e+00 8.1169996e+00 
1.2500000e+00 2.8000000e+00 8.1169996e+00 
1.2500000e+00 2.8000000e+00 7.8829999e+00 
0.0000000e+00 2.8000000e+00 7.8829999e+00 
0.0000000e+00 2.8000000e+00 8.1169996e+00 
7.5000000e-01 2.5000000e+00 8.3830004e+00 
1.2500000e+00 2.5000000e+00 8.3830004e+00 
1.2500000e+00 2.5000000e+00 8.6169996e+00 
7.5000000e-01 2.5000000e+00 8.6169996e+00 
7.5000000e-01 2.5000000e+00 8.5000000e+00 
0.0000000e+00 2.5000000e+00 8.3830004e+00 
0.0000000e+00 2.5000000e+00 8.6169996e+00 
1.2500000e+00 2.8000000e+00 8.6169996e+00 
1.2500000e+00 2.8000000e+00 8.3830004e+00 
0.0000000e+00 2.8000000e+00 8.3830004e+00 
0.0000000e+00 2.8000000e+00 8.6169996e+00 
7.5000000e-01 2.5000000e+00 8.8830004e+00 
1.2500000e+00 2.5000000e+00 8.8830004e+00 
1.2500000e+00 2.5000000e+00 9.1169996e+00 
7.5000000e-01 2.5000000e+00 9.1169996e+00 
7.5000000e-01 2.5000000e+00 9.0000000e+00 
0.0000000e+00 2.5000000e+00 8.8830004e+00 
0.0000000e+00 2.5000000e+00 9.1169996e+00 
1.2500000e+00 2.8000000e+00 9.1169996e+00 
1.2500000e+00 2.8000000e+00 8.8830004e+00 
0.0000000e+00 2.8000000e+00 8.8830004e+00 
0.0000000e+00 2.8000000e+00 9.1169996e+00 
7.5000000e-01 2.5000000e+00 9.3830004e+00 
1.2500000e+00 2.5000000e+00 9.3830004e+00 
1.2500000e+00 2.5000000e+00 9.6169996e+00 
7.5000000e-01 2.5000000e+00 9.6169996e+00 
7.5000000e-01 2.5000000e+00 9.5000000e+00 
0.0000000e+00 2.5000000e+00 9.3830004e+00 
0.0000000e+00 2.5000000e+00 9.6169996e+00 
1.2500000e+00 2.8000000e+00 9.6169996e+00 
1.2500000e+00 2.8000000e+00 9.3830004e+00 
0.0000000e+00 2.8000000e+00 9.3830004e+00 
0.0000000e+00 2.8000000e+00 9.6169996e+00 
7.5000000e-01 2.5000000e+00 9.8830004e+00 
1.2500000e+00 2.5000000e+00 9.8830004e+00 
1.2500000e+00 2.5000000e+00 1.0117000e+01 
[...]
POINT_DATA 1827
FIELD FieldData 2
DISPLACEMENT 3 1827  float
0.0000000e+00 0.0000000e+00 0.0000000e+00 
0.0000000e+00 0.0000000e+00 0.0000000e+00 
0.0000000e+00 0.0000000e+00 0.0000000e+00 
0.0000000e+00 0.0000000e+00 0.0000000e+00 
0.0000000e+00 2.1710337e-05 0.0000000e+00 
0.0000000e+00 7.3448001e-07 0.0000000e+00 
0.0000000e+00 2.8674106e-06 0.0000000e+00 
0.0000000e+00 -4.0074788e-06 0.0000000e+00 
0.0000000e+00 3.5672125e-05 0.0000000e+00 
8.7166372e-09 3.5677509e-05 8.1862561e-09 
-5.0580445e-10 3.5635145e-05 1.1117078e-09 
0.0000000e+00 3.5629277e-05 0.0000000e+00 
0.0000000e+00 3.5680914e-05 0.0000000e+00 
0.0000000e+00 3.5681725e-05 0.0000000e+00 
-4.4721653e-09 3.5667075e-05 -1.6084457e-09 
0.0000000e+00 3.5667555e-05 0.0000000e+00 
0.0000000e+00 3.5680474e-05 0.0000000e+00 
0.0000000e+00 3.5681303e-05 0.0000000e+00 
-1.5589011e-07 4.6208774e-05 1.9536612e-08 
-1.6593421e-07 4.5550147e-05 1.7312712e-07 
-2.2926938e-07 4.5606666e-05 1.6786120e-07 
-1.8856025e-07 4.6225330e-05 1.8711022e-08 
-1.6934533e-07 4.6217305e-05 1.8784093e-08 
0.0000000e+00 4.6738271e-05 0.0000000e+00 
0.0000000e+00 4.6751764e-05 0.0000000e+00 
1.4546052e-07 4.5618453e-05 1.1113011e-07 
2.0320400e-07 4.5585592e-05 1.1318809e-07 
0.0000000e+00 4.6716592e-05 0.0000000e+00 
0.0000000e+00 4.6732988e-05 0.0000000e+00 
-1.1516755e-07 4.7588572e-05 -2.1983462e-08 
-1.0998382e-07 4.7134312e-05 1.7764856e-07 
-2.1891387e-07 4.7099329e-05 1.6642358e-07 
-1.5394208e-07 4.7560377e-05 -1.8066892e-08 
-1.3253242e-07 4.7576144e-05 -2.0682684e-08 
0.0000000e+00 4.7960933e-05 0.0000000e+00 
0.0000000e+00 4.7949328e-05 0.0000000e+00 
6.9002795e-08 4.7118199e-05 1.9480926e-07 
1.4636424e-07 4.7151752e-05 1.9416373e-07 
0.0000000e+00 4.7943111e-05 0.0000000e+00 
0.0000000e+00 4.7938422e-05 0.0000000e+00 
-1.4568111e-07 3.9788752e-05 -7.1616023e-07 
-2.1101820e-07 3.9643022e-05 -1.5048200e-06 
1.7307502e-07 3.9439768e-05 -1.5408328e-06 
1.2266274e-07 3.9639239e-05 -7.2013307e-07 
-1.0413299e-08 3.9714643e-05 -7.0996634e-07 
0.0000000e+00 3.9799786e-05 0.0000000e+00 
0.0000000e+00 3.9723207e-05 0.0000000e+00 
2.5235050e-07 3.9468207e-05 -1.2543950e-06 
-1.1014138e-07 3.9652059e-05 -1.2618226e-06 
0.0000000e+00 3.9783874e-05 0.0000000e+00 
0.0000000e+00 3.9716699e-05 0.0000000e+00 
-4.3057586e-08 3.1342235e-05 -4.3197048e-07 
-7.5489901e-08 3.1434403e-05 -9.0286733e-07 
1.3709584e-07 3.1302661e-05 -9.0473515e-07 
1.1408112e-07 3.1254673e-05 -4.3638781e-07 
3.5256480e-08 3.1303989e-05 -4.2935682e-07 
0.0000000e+00 3.1175572e-05 0.0000000e+00 
0.0000000e+00 3.1141510e-05 0.0000000e+00 
9.2853234e-08 3.1318650e-05 -7.4128462e-07 
-1.1891560e-07 3.1431649e-05 -7.4072386e-07 
0.0000000e+00 3.1188203e-05 0.0000000e+00 
0.0000000e+00 3.1150736e-05 0.0000000e+00 
-2.4369481e-07 2.8623252e-05 -7.6866542e-07 
-3.3905485e-07 2.8205812e-05 -1.6512817e-06 
7.2852373e-08 2.8021634e-05 -1.6608287e-06 
5.4011387e-08 2.8502212e-05 -7.6715475e-07 
-9.0553904e-08 2.8563267e-05 -7.5918297e-07 
0.0000000e+00 2.8805856e-05 0.0000000e+00 
0.0000000e+00 2.8763039e-05 0.0000000e+00 
3.2547823e-07 2.8063518e-05 -1.4171310e-06 
-7.2406536e-08 2.8220065e-05 -1.4185875e-06 
0.0000000e+00 2.8789222e-05 0.0000000e+00 
0.0000000e+00 2.8743430e-05 0.0000000e+00 
-7.7042898e-08 2.7863871e-05 -2.4452436e-07 
-1.0009904e-07 2.7728158e-05 -4.8608393e-07 
1.0176655e-08 2.7625252e-05 -4.7981621e-07 
3.3722318e-09 2.7787533e-05 -2.3920751e-07 
-3.7180399e-08 2.7821352e-05 -2.3863547e-07 
0.0000000e+00 2.7986609e-05 0.0000000e+00 
0.0000000e+00 2.7949967e-05 0.0000000e+00 
9.6964719e-08 2.7633074e-05 -3.5656598e-07 
-1.0898780e-08 2.7725840e-05 -3.5536254e-07 
0.0000000e+00 2.7974822e-05 0.0000000e+00 
0.0000000e+00 2.7945773e-05 0.0000000e+00 
-2.4654789e-09 2.3382039e-05 -6.1472825e-08 
-2.2988778e-09 2.3419316e-05 -8.6552696e-08 
1.9589381e-08 2.3378996e-05 -8.1114628e-08 
8.0789180e-09 2.3351262e-05 -6.1879049e-08 
2.6859426e-09 2.3366409e-05 -6.0778902e-08 
0.0000000e+00 2.3316286e-05 0.0000000e+00 
0.0000000e+00 2.3300523e-05 0.0000000e+00 
-9.5119059e-09 2.3381297e-05 -3.9501280e-08 
-1.9563766e-08 2.3417377e-05 -3.7773148e-08 
0.0000000e+00 2.3320245e-05 0.0000000e+00 
0.0000000e+00 2.3308832e-05 0.0000000e+00 
7.7474176e-08 1.8242239e-05 2.2413960e-07 
1.2953677e-07 1.8237715e-05 5.0696769e-07 
-4.4654285e-09 1.8237051e-05 5.0983363e-07 
-1.5121293e-08 1.8246890e-05 2.2381181e-07 
3.0161669e-08 1.8245113e-05 2.2211186e-07 
0.0000000e+00 1.8256851e-05 0.0000000e+00 
0.0000000e+00 1.8257584e-05 0.0000000e+00 
-1.8536582e-08 1.8240617e-05 4.8388756e-07 
1.1203433e-07 1.8231744e-05 4.8711070e-07 
0.0000000e+00 1.8250343e-05 0.0000000e+00 
0.0000000e+00 1.8258559e-05 0.0000000e+00 
6.9515487e-08 1.3930778e-05 4.6727911e-07 
1.1084652e-07 1.3702987e-05 9.8398391e-07 
-1.2503008e-07 1.3782278e-05 9.7020154e-07 
-1.0737371e-07 1.3980507e-05 4.6592868e-07 
-1.8936785e-08 1.3959440e-05 4.6182160e-07 
0.0000000e+00 1.4106863e-05 0.0000000e+00 
0.0000000e+00 1.4126535e-05 0.0000000e+00 
-1.5094567e-08 1.3787990e-05 8.6862866e-07 
2.1719350e-07 1.3717565e-05 8.6965849e-07 
0.0000000e+00 1.4093082e-05 0.0000000e+00 
0.0000000e+00 1.4124561e-05 0.0000000e+00 
7.5214565e-08 1.1127554e-05 4.8717021e-07 
8.3864464e-08 1.1169303e-05 9.9008651e-07 
-1.4753975e-07 1.1264112e-05 9.8074952e-07 
-1.0114118e-07 1.1184329e-05 4.9001238e-07 
-1.3114271e-08 1.1154310e-05 4.8329508e-07 
0.0000000e+00 1.1103159e-05 0.0000000e+00 
0.0000000e+00 1.1134267e-05 0.0000000e+00 
-1.6903736e-07 1.1257362e-05 8.6538842e-07 
5.9372997e-08 1.1175252e-05 8.6361831e-07 
0.0000000e+00 1.1111774e-05 0.0000000e+00 
0.0000000e+00 1.1143485e-05 0.0000000e+00 
3.2779315e-08 6.6441798e-06 7.9527545e-08 
3.0185575e-08 6.7499182e-06 1.1201137e-07 
1.9370098e-08 6.6782272e-06 1.1151159e-07 
7.3657702e-09 6.6105481e-06 8.0428492e-08 
1.9031894e-08 6.6272200e-06 8.0696346e-08 
0.0000000e+00 6.6057387e-06 0.0000000e+00 
0.0000000e+00 6.5924692e-06 0.0000000e+00 
-3.5025582e-08 6.6863918e-06 1.7789603e-07 
-1.1162308e-08 6.7318274e-06 1.7788732e-07 
0.0000000e+00 6.6045591e-06 0.0000000e+00 
0.0000000e+00 6.5967124e-06 0.0000000e+00 
8.3176971e-08 -5.1333677e-07 -1.5045021e-07 
1.0212447e-07 -2.4446450e-07 -2.5432104e-07 
1.6003165e-07 -3.4068998e-07 -2.4620826e-07 
1.2004716e-07 -5.8546908e-07 -1.5830754e-07 
1.0156744e-07 -5.4653430e-07 -1.5189003e-07 
0.0000000e+00 -7.6109467e-07 0.0000000e+00 
0.0000000e+00 -7.9048414e-07 0.0000000e+00 
-1.0082088e-08 -3.4104539e-07 -1.4494535e-07 
-5.1166751e-08 -2.5831477e-07 -1.4348279e-07 
0.0000000e+00 -7.5962254e-07 0.0000000e+00 
0.0000000e+00 -7.8610549e-07 0.0000000e+00 
4.7398853e-08 -9.2052587e-06 1.9912599e-07 
5.6321245e-08 -9.1366583e-06 4.5299419e-07 
-6.6278311e-08 -9.1831853e-06 4.5629724e-07 
-4.2515271e-08 -9.2316877e-06 1.9815823e-07 
3.5273531e-09 -9.2155669e-06 1.9694048e-07 
0.0000000e+00 -9.3098552e-06 0.0000000e+00 
0.0000000e+00 -9.3219687e-06 0.0000000e+00 
-9.5657185e-08 -9.1730908e-06 4.8477682e-07 
2.5242361e-08 -9.1425154e-06 4.8538294e-07 
0.0000000e+00 -9.3090212e-06 0.0000000e+00 
0.0000000e+00 -9.3134713e-06 0.0000000e+00 
-5.7565103e-08 -2.3424755e-05 -1.0492852e-07 
-7.1840141e-08 -2.3661172e-05 -1.0906375e-07 
-8.8033708e-08 -2.3905386e-05 -1.1459310e-07 
-5.5374127e-08 -2.3596886e-05 -1.1057214e-07 
-5.3234039e-08 -2.3505156e-05 -1.0303008e-07 
0.0000000e+00 -2.3334873e-05 0.0000000e+00 
0.0000000e+00 -2.3399019e-05 0.0000000e+00 
7.5323939e-08 -2.3864985e-05 1.4541415e-07 
8.2946563e-08 -2.3663888e-05 1.4581009e-07 
0.0000000e+00 -2.3361443e-05 0.0000000e+00 
0.0000000e+00 -2.3405046e-05 0.0000000e+00 
1.3027154e-07 -5.4374748e-05 -4.6495654e-08 
1.5202419e-07 -5.3840340e-05 -1.5840655e-07 
1.8459713e-07 -5.4241096e-05 -1.6118821e-07 
1.2762735e-07 -5.4604428e-05 -3.6733137e-08 
1.2374488e-07 -5.4495165e-05 -3.8486462e-08 
0.0000000e+00 -5.4648779e-05 0.0000000e+00 
0.0000000e+00 -5.4750981e-05 0.0000000e+00 
-8.5256090e-08 -5.4213986e-05 2.4482310e-07 
-1.0660649e-07 -5.3920929e-05 2.4543431e-07 
0.0000000e+00 -5.4665252e-05 0.0000000e+00 
0.0000000e+00 -5.4733970e-05 0.0000000e+00 
1.8255179e-07 -1.2014942e-04 -5.3866705e-07 
2.9531216e-07 -1.1914275e-04 -8.1426487e-07 
3.9381467e-07 -1.1993455e-04 -8.1379147e-07 
2.6895776e-07 -1.2064512e-04 -5.0959926e-07 
2.1123041e-07 -1.2042336e-04 -5.1014399e-07 
0.0000000e+00 -1.2048588e-04 0.0000000e+00 
0.0000000e+00 -1.2070232e-04 0.0000000e+00 
-1.2194133e-07 -1.1992030e-04 -1.1455247e-09 
-2.1698445e-07 -1.1930002e-04 -5.3304219e-09 
0.0000000e+00 -1.2052351e-04 0.0000000e+00 
0.0000000e+00 -1.2070192e-04 0.0000000e+00 
3.7160527e-07 -2.2564997e-04 9.7207123e-07 
4.5969395e-07 -2.2466482e-04 1.8219412e-06 
2.6937792e-08 -2.2524594e-04 1.8416029e-06 
-1.1376748e-08 -2.2598321e-04 1.0013333e-06 
1.6443457e-07 -2.2583752e-04 9.8136809e-07 
0.0000000e+00 -2.2594782e-04 0.0000000e+00 
0.0000000e+00 -2.2610607e-04 0.0000000e+00 
-4.6032227e-07 -2.2523491e-04 2.3596576e-06 
-6.6638473e-09 -2.2483255e-04 2.3605489e-06 
0.0000000e+00 -2.2596210e-04 0.0000000e+00 
0.0000000e+00 -2.2604268e-04 0.0000000e+00 
6.2180601e-07 -3.3033724e-04 -5.9360639e-07 
8.4664765e-07 -3.2734219e-04 -9.1306936e-07 
9.7715315e-07 -3.2796894e-04 -8.6213026e-07 
7.3143798e-07 -3.3074734e-04 -5.3213921e-07 
6.4156825e-07 -3.3060429e-04 -5.5215514e-07 
0.0000000e+00 -3.3182028e-04 0.0000000e+00 
0.0000000e+00 -3.3196539e-04 0.0000000e+00 
-7.0081512e-07 -3.2811085e-04 -2.2851277e-07 
-8.2574940e-07 -3.2760974e-04 -2.2287264e-07 
0.0000000e+00 -3.3176897e-04 0.0000000e+00 
0.0000000e+00 -3.3191236e-04 0.0000000e+00 
5.6791009e-07 -3.4568037e-04 -5.1318329e-07 
7.2330386e-07 -3.4261678e-04 -1.1298098e-06 
1.0677709e-06 -3.4224914e-04 -1.0224948e-06 
7.9536704e-07 -3.4549678e-04 -4.6296304e-07 
6.4520452e-07 -3.4564763e-04 -4.8632472e-07 
0.0000000e+00 -3.4713131e-04 0.0000000e+00 
0.0000000e+00 -3.4704144e-04 0.0000000e+00 
-7.4872258e-07 -3.4254300e-04 -1.3894024e-06 
-1.0470191e-06 -3.4278716e-04 -1.3817124e-06 
0.0000000e+00 -3.4701652e-04 0.0000000e+00 
0.0000000e+00 -3.4699499e-04 0.0000000e+00 
1.9987618e-07 -2.3494291e-04 2.3867048e-07 
2.4323640e-07 -2.3387617e-04 1.5316986e-07 
3.5865435e-07 -2.3282507e-04 1.8233850e-07 
2.6054977e-07 -2.3424535e-04 2.9992100e-07 
2.0955507e-07 -2.3465944e-04 2.5145127e-07 
0.0000000e+00 -2.3506326e-04 0.0000000e+00 
0.0000000e+00 -2.3476270e-04 0.0000000e+00 
-3.3639475e-07 -2.3304092e-04 -9.0116964e-07 
-4.3699848e-07 -2.3388084e-04 -9.0761216e-07 
0.0000000e+00 -2.3504432e-04 0.0000000e+00 
0.0000000e+00 -2.3481822e-04 0.0000000e+00 
-9.5100653e-08 -1.0812153e-04 -1.3921446e-06 
-9.5110444e-08 -1.0745109e-04 -2.7294764e-06 
5.6006638e-07 -1.0702201e-04 -2.7184317e-06 
4.4895353e-07 -1.0786133e-04 -1.3767099e-06 
1.7139142e-07 -1.0800658e-04 -1.3743537e-06 
0.0000000e+00 -1.0843129e-04 0.0000000e+00 
0.0000000e+00 -1.0830085e-04 0.0000000e+00 
1.2900367e-07 -1.0713669e-04 -3.0882054e-06 
-5.3794975e-07 -1.0743126e-04 -3.0865533e-06 
0.0000000e+00 -1.0835328e-04 0.0000000e+00 
0.0000000e+00 -1.0831342e-04 0.0000000e+00 
1.2079046e-07 -1.9940519e-05 3.9082315e-07 
1.9482475e-07 -1.9614930e-05 5.0263867e-07 
1.7311201e-07 -1.8935736e-05 5.0646082e-07 
8.7742322e-08 -1.9447798e-05 3.8849171e-07 
9.7582671e-08 -1.9692292e-05 3.7355076e-07 
0.0000000e+00 -1.9856514e-05 0.0000000e+00 
0.0000000e+00 -1.9669384e-05 0.0000000e+00 
-8.4797669e-08 -1.9025860e-05 -2.2648362e-07 
-5.9182195e-08 -1.9595866e-05 -2.2786045e-07 
0.0000000e+00 -1.9801017e-05 0.0000000e+00 
0.0000000e+00 -1.9668316e-05 0.0000000e+00 
-9.7896489e-08 1.6869824e-05 -1.8942876e-08 
-8.7581398e-08 1.6533675e-05 -2.9189138e-08 
-8.1607674e-08 1.6589462e-05 -2.5903246e-08 
-8.8006416e-08 1.6912210e-05 -1.2532485e-08 
-9.1656005e-08 1.6888296e-05 -1.5878067e-08 
0.0000000e+00 1.7205399e-05 0.0000000e+00 
0.0000000e+00 1.7224040e-05 0.0000000e+00 
1.0356229e-07 1.6590844e-05 -8.9304706e-08 
9.3426422e-08 1.6543967e-05 -8.5701991e-08 
0.0000000e+00 1.7197235e-05 0.0000000e+00 
0.0000000e+00 1.7214637e-05 0.0000000e+00 
-5.3947804e-08 1.4548713e-05 3.5099873e-07 
-6.9832716e-08 1.4095839e-05 7.5707607e-07 
-2.5141020e-07 1.4076092e-05 7.4635494e-07 
-1.9649796e-07 1.4524995e-05 3.4626578e-07 
-1.2032066e-07 1.4541230e-05 3.4559469e-07 
0.0000000e+00 1.4849581e-05 0.0000000e+00 
0.0000000e+00 1.4819678e-05 0.0000000e+00 
1.1860449e-08 1.4102437e-05 7.5754804e-07 
1.9882160e-07 1.4118355e-05 7.5779229e-07 
0.0000000e+00 1.4818017e-05 0.0000000e+00 
0.0000000e+00 1.4821065e-05 0.0000000e+00 
-9.2504617e-09 6.8265877e-07 2.3467439e-07 
-2.7583383e-08 3.7468757e-07 4.8987192e-07 
-1.3897420e-07 3.2315151e-07 4.8758704e-07 
-1.0433841e-07 6.5549591e-07 2.2540944e-07 
-5.2101182e-08 6.7829899e-07 2.2837878e-07 
0.0000000e+00 8.0304477e-07 0.0000000e+00 
0.0000000e+00 7.8607474e-07 0.0000000e+00 
3.7012047e-08 3.5722752e-07 5.2194338e-07 
1.6215972e-07 3.8846787e-07 5.2307792e-07 
0.0000000e+00 7.8311905e-07 0.0000000e+00 
0.0000000e+00 7.8170262e-07 0.0000000e+00 
1.4367584e-08 -4.7093909e-06 1.9715652e-07 
2.4554518e-09 -4.7312246e-06 3.7981619e-07 
-7.7771581e-08 -4.6727969e-06 3.7609277e-07 
-4.9537444e-08 -4.6786613e-06 1.9251792e-07 
-1.5149416e-08 -4.6898426e-06 1.9267429e-07 
0.0000000e+00 -4.7849826e-06 0.0000000e+00 
0.0000000e+00 -4.7671347e-06 0.0000000e+00 
-6.8265464e-08 -4.6715841e-06 3.1256369e-07 
1.5295081e-08 -4.7180251e-06 3.1100853e-07 
0.0000000e+00 -4.7781286e-06 0.0000000e+00 
0.0000000e+00 -4.7634694e-06 0.0000000e+00 
4.0948674e-08 2.6891507e-07 -3.7879133e-08 
4.9188820e-08 5.0523755e-07 -8.5436213e-08 
7.7621301e-08 6.3788008e-07 -8.7765855e-08 
6.6411516e-08 3.3919738e-07 -3.6613802e-08 
5.2052417e-08 3.0161218e-07 -3.9041435e-08 
0.0000000e+00 1.0390590e-07 0.0000000e+00 
0.0000000e+00 1.3860335e-07 0.0000000e+00 
-7.0791096e-08 6.0410594e-07 -2.0823664e-07 
-1.0340133e-07 5.1226942e-07 -2.1111271e-07 
0.0000000e+00 1.2561435e-07 0.0000000e+00 
0.0000000e+00 1.4104695e-07 0.0000000e+00 
7.6282163e-08 6.0988582e-06 1.6494430e-07 
1.0523660e-07 6.2940594e-06 3.2435631e-07 
4.0032337e-08 6.3575485e-06 3.3685623e-07 
1.8550674e-08 6.1428609e-06 1.7258805e-07 
4.4605478e-08 6.1142282e-06 1.6639336e-07 
0.0000000e+00 6.0626621e-06 0.0000000e+00 
0.0000000e+00 6.0844386e-06 0.0000000e+00 
-8.4407681e-08 6.3339785e-06 2.5518258e-07 
-1.1998539e-08 6.2794115e-06 2.5810573e-07 
0.0000000e+00 6.0712846e-06 0.0000000e+00 
0.0000000e+00 6.0866837e-06 0.0000000e+00 
3.1184474e-08 4.4424983e-06 2.2579793e-07 
4.6225036e-08 4.3331097e-06 4.6753510e-07 
-6.7110548e-08 4.3369905e-06 4.6835001e-07 
-5.7285270e-08 4.4484445e-06 2.2759737e-07 
-1.2996500e-08 4.4437484e-06 2.2444465e-07 
0.0000000e+00 4.5756160e-06 0.0000000e+00 
0.0000000e+00 4.5748866e-06 0.0000000e+00 
-6.4100503e-09 4.3405712e-06 4.4895268e-07 
1.0610592e-07 4.3313353e-06 4.5114550e-07 
0.0000000e+00 4.5631650e-06 0.0000000e+00 
0.0000000e+00 4.5719567e-06 0.0000000e+00 
-2.6717911e-08 -8.0113688e-07 1.8012636e-07 
-1.9494676e-08 -1.1029654e-06 4.9247615e-07 
-1.7591685e-07 -1.1311249e-06 4.8446117e-07 
-1.2116256e-07 -8.1397002e-07 1.7301058e-07 
-7.0156567e-08 -8.0311423e-07 1.7514553e-07 
0.0000000e+00 -6.4203141e-07 0.0000000e+00 
0.0000000e+00 -6.5090296e-07 0.0000000e+00 
1.1037735e-08 -1.1061588e-06 4.9117057e-07 
1.5316063e-07 -1.0907415e-06 4.9030427e-07 
0.0000000e+00 -6.5464036e-07 0.0000000e+00 
0.0000000e+00 -6.5594554e-07 0.0000000e+00 
-9.1641013e-08 -2.0852808e-06 -1.0016272e-07 
-1.2139209e-07 -2.3071964e-06 -1.7601705e-07 
-8.8286122e-08 -2.3138598e-06 -1.8115141e-07 
-5.7591016e-08 -2.0932728e-06 -1.0248097e-07 
-7.1952329e-08 -2.0856430e-06 -1.0024157e-07 
0.0000000e+00 -1.9817535e-06 0.0000000e+00 
0.0000000e+00 -1.9876975e-06 0.0000000e+00 
5.1096059e-08 -2.3016371e-06 -1.6652636e-07 
1.3463309e-08 -2.2922222e-06 -1.6828564e-07 
0.0000000e+00 -1.9873298e-06 0.0000000e+00 
0.0000000e+00 -1.9902936e-06 0.0000000e+00 
-7.5615787e-08 1.0544187e-06 -2.1585788e-07 
-1.0069462e-07 1.0221421e-06 -4.1003378e-07 
-5.9545235e-09 1.0308519e-06 -4.0778357e-07 
3.1299092e-09 1.0512280e-06 -2.1254100e-07 
-3.5695479e-08 1.0515697e-06 -2.1259255e-07 
0.0000000e+00 1.0616033e-06 0.0000000e+00 
0.0000000e+00 1.0614318e-06 0.0000000e+00 
1.9212500e-08 1.0262545e-06 -4.0346794e-07 
-7.4661607e-08 1.0286547e-06 -4.0460108e-07 
0.0000000e+00 1.0666625e-06 0.0000000e+00 
0.0000000e+00 1.0608812e-06 0.0000000e+00 
2.5157265e-09 3.1934130e-06 -8.5940599e-08 
-8.8502592e-09 3.3757035e-06 -1.8211988e-07 
3.7358003e-08 3.3413489e-06 -1.7046324e-07 
3.2942026e-08 3.1752829e-06 -8.0257728e-08 
1.5717399e-08 3.1804518e-06 -8.2074706e-08 
0.0000000e+00 3.1230136e-06 0.0000000e+00 
0.0000000e+00 3.1112750e-06 0.0000000e+00 
-5.4224039e-08 3.3328895e-06 -1.3948451e-07 
-9.4282768e-08 3.3583701e-06 -1.3874673e-07 
0.0000000e+00 3.1278657e-06 0.0000000e+00 
0.0000000e+00 3.1216437e-06 0.0000000e+00 
5.0178063e-08 2.4540711e-07 8.5668056e-08 
5.1565021e-08 4.0486429e-07 1.7171600e-07 
6.4128933e-09 3.4316218e-07 1.8614872e-07 
1.2703931e-08 2.1076843e-07 8.6309775e-08 
3.0064257e-08 2.2711352e-07 8.6407567e-08 
0.0000000e+00 1.5615676e-07 0.0000000e+00 
0.0000000e+00 1.4227173e-07 0.0000000e+00 
-7.1384804e-08 3.4409925e-07 2.3264920e-07 
-2.2943462e-08 3.8676615e-07 2.3363776e-07 
0.0000000e+00 1.5676818e-07 0.0000000e+00 
0.0000000e+00 1.4649321e-07 0.0000000e+00 
3.0924323e-08 -4.1998433e-06 1.3047735e-07 
3.5116567e-08 -4.2161037e-06 2.7829364e-07 
-3.3138555e-08 -4.2136148e-06 2.7425830e-07 
-2.0852719e-08 -4.1954968e-06 1.2746216e-07 
5.6221334e-09 -4.1953535e-06 1.2769661e-07 
0.0000000e+00 -4.2224724e-06 0.0000000e+00 
0.0000000e+00 -4.2208403e-06 0.0000000e+00 
-2.4723469e-08 -4.2073425e-06 2.6399454e-07 
4.3642498e-08 -4.2132224e-06 2.6352544e-07 
0.0000000e+00 -4.2234669e-06 0.0000000e+00 
0.0000000e+00 -4.2200786e-06 0.0000000e+00 
-7.8037976e-09 -4.6692762e-06 1.2637358e-07 
-7.4020123e-09 -4.8125703e-06 3.1914527e-07 
-9.0982333e-08 -4.7315543e-06 3.0987999e-07 
-6.2178479e-08 -4.6298233e-06 1.2489743e-07 
-3.3782889e-08 -4.6472960e-06 1.2363395e-07 
0.0000000e+00 -4.6115051e-06 0.0000000e+00 
0.0000000e+00 -4.5937104e-06 0.0000000e+00 
-1.6565197e-08 -4.7344251e-06 2.2845482e-07 
6.2440726e-08 -4.7909134e-06 2.2711944e-07 
0.0000000e+00 -4.6102095e-06 0.0000000e+00 
0.0000000e+00 -4.5958768e-06 0.0000000e+00 
-2.0015347e-09 -1.0640622e-06 -9.6349027e-08 
-1.1020760e-09 -9.8745090e-07 -2.0368604e-07 
6.1568656e-08 -9.4002957e-07 -2.1123505e-07 
4.0116586e-08 -1.0464565e-06 -9.5282601e-08 
1.7831116e-08 -1.0563073e-06 -9.5398384e-08 
0.0000000e+00 -1.1110940e-06 0.0000000e+00 
0.0000000e+00 -1.1021889e-06 0.0000000e+00 
2.5338875e-09 -9.5570647e-07 -2.4044579e-07 
-5.2679919e-08 -9.8277815e-07 -2.4241467e-07 
0.0000000e+00 -1.1045469e-06 0.0000000e+00 
0.0000000e+00 -1.1023561e-06 0.0000000e+00 
-5.8974505e-09 2.2760785e-06 -1.0700644e-07 
-3.6734180e-09 2.3159942e-06 -2.2256417e-07 
5.5536429e-08 2.3068844e-06 -2.2362040e-07 
3.5545284e-08 2.2687332e-06 -1.0483051e-07 
1.3571508e-08 2.2702859e-06 -1.0486062e-07 
0.0000000e+00 2.2755855e-06 0.0000000e+00 
0.0000000e+00 2.2723916e-06 0.0000000e+00 
2.6590005e-08 2.3022208e-06 -2.0651997e-07 
-2.7176281e-08 2.3118084e-06 -2.0646928e-07 
0.0000000e+00 2.2757108e-06 0.0000000e+00 
0.0000000e+00 2.2716963e-06 0.0000000e+00 
-1.6577726e-08 2.8769473e-06 -2.9521242e-08 
-2.6229314e-08 2.8054178e-06 -8.8550273e-08 
-3.3036718e-10 2.7877152e-06 -9.1056165e-08 
-8.4877122e-10 2.8672548e-06 -2.9630707e-08 
-8.6784482e-09 2.8730049e-06 -2.9247653e-08 
0.0000000e+00 2.9293810e-06 0.0000000e+00 
0.0000000e+00 2.9235584e-06 0.0000000e+00 
4.2462730e-08 2.7946401e-06 -6.8445438e-08 
1.7291514e-08 2.8076743e-06 -6.8549902e-08 
0.0000000e+00 2.9240923e-06 0.0000000e+00 
0.0000000e+00 2.9217358e-06 0.0000000e+00 
0.0000000e+00 3.4805184e-05 0.0000000e+00 
0.0000000e+00 4.0498380e-06 0.0000000e+00 
-1.7808303e-09 2.5585086e-06 1.1541862e-09 
-3.1016290e-09 2.5112217e-06 1.1712351e-09 
0.0000000e+00 2.5143970e-06 0.0000000e+00 