# vtk DataFile Version 4.0
vtk output
ASCII
DATASET UNSTRUCTURED_GRID
POINTS 1827 float
0.0000000e+00 0.0000000e+00 0.0000000e+00 
0.0000000e+00 0.0000000e+00 2.0000000e+01 
3.4700000e+00 0.0000000e+00 0.0000000e+00 
3.4700000e+00 0.0000000e+00 2.0000000e+01 
3.4700000e+00 1.0000000e+00 0.0000000e+00 
3.4700000e+00 1.0000000e+00 2.0000000e+01 
0.0000000e+00 1.0000000e+00 0.0000000e+00 
0.0000000e+00 1.0000000e+00 2.0000000e+01 
1.2500000e+00 2.5000000e+00 0.0000000e+00 
1.2500000e+00 2.5000000e+00 1.1700000e-01 
7.5000000e-01 2.5000000e+00 1.1700000e-01 
7.5000000e-01 2.5000000e+00 0.0000000e+00 
0.0000000e+00 2.5000000e+00 0.0000000e+00 
0.0000000e+00 2.5000000e+00 1.1700000e-01 
1.2500000e+00 2.8000000e+00 1.1700000e-01 
1.2500000e+00 2.8000000e+00 0.0000000e+00 
0.0000000e+00 2.8000000e+00 0.0000000e+00 
0.0000000e+00 2.8000000e+00 1.1700000e-01 
7.5000000e-01 2.5000000e+00 3.8299999e-01 
1.2500000e+00 2.5000000e+00 3.8299999e-01 
1.2500000e+00 2.5000000e+00 6.1699998e-01 
7.5000000e-01 2.5000000e+00 6.1699998e-01 
7.5000000e-01 2.5000000e+00 5.0000000e-01 
0.0000000e+00 2.5000000e+00 3.8299999e-01 
0.0000000e+00 2.5000000e+00 6.1699998e-01 
1.2500000e+00 2.8000000e+00 6.1699998e-01 
1.2500000e+00 2.8000000e+00 3.8299999e-01 
0.0000000e+00 2.8000000e+00 3.8299999e-01 
0.0000000e+00 2.8000000e+00 6.1699998e-01 
7.5000000e-01 2.5000000e+00 8.8300002e-01 
1.2500000e+00 2.5000000e+00 8.8300002e-01 
1.2500000e+00 2.5000000e+00 1.1170000e+00 
7.5000000e-01 2.5000000e+00 1.1170000e+00 
7.5000000e-01 2.5000000e+00 1.0000000e+00 
0.0000000e+00 2.5000000e+00 8.8300002e-01 
0.0000000e+00 2.5000000e+00 1.1170000e+00 
1.2500000e+00 2.8000000e+00 1.1170000e+00 
1.2500000e+00 2.8000000e+00 8.8300002e-01 
0.0000000e+00 2.8000000e+00 8.8300002e-01 
0.0000000e+00 2.8000000e+00 1.1170000e+00 
7.5000000e-01 2.5000000e+00 1.3830000e+00 
1.2500000e+00 2.5000000e+00 1.3830000e+00 
1.2500000e+00 2.5000000e+00 1.6170000e+00 
7.5000000e-01 2.5000000e+00 1.6170000e+00 
7.5000000e-01 2.5000000e+00 1.5000000e+00 
0.0000000e+00 2.5000000e+00 1.3830000e+00 
0.0000000e+00 2.5000000e+00 1.6170000e+00 
1.2500000e+00 2.8000000e+00 1.6170000e+00 
1.2500000e+00 2.8000000e+00 1.3830000e+00 
0.0000000e+00 2.8000000e+00 1.3830000e+00 
0.0000000e+00 2.8000000e+00 1.6170000e+00 
7.5000000e-01 2.5000000e+00 1.8830000e+00 
1.2500000e+00 2.5000000e+00 1.8830000e+00 
1.2500000e+00 2.5000000e+00 2.1170001e+00 
7.5000000e-01 2.5000000e+00 2.1170001e+00 
7.5000000e-01 2.5000000e+00 2.0000000e+00 
0.0000000e+00 2.5000000e+00 1.8830000e+00 
0.0000000e+00 2.5000000e+00 2.1170001e+00 
1.2500000e+00 2.8000000e+00 2.1170001e+00 
1.2500000e+00 2.8000000e+00 1.8830000e+00 
0.0000000e+00 2.8000000e+00 1.8830000e+00 
0.0000000e+00 2.8000000e+00 2.1170001e+00 
7.5000000e-01 2.5000000e+00 2.3829999e+00 
1.2500000e+00 2.5000000e+00 2.3829999e+00 
1.2500000e+00 2.5000000e+00 2.6170001e+00 
7.5000000e-01 2.5000000e+00 2.6170001e+00 
7.5000000e-01 2.5000000e+00 2.5000000e+00 
0.0000000e+00 2.5000000e+00 2.3829999e+00 
0.0000000e+00 2.5000000e+00 2.6170001e+00 
1.2500000e+00 2.8000000e+00 2.6170001e+00 
1.2500000e+00 2.8000000e+00 2.3829999e+00 
0.0000000e+00 2.8000000e+00 2.3829999e+00 
0.0000000e+00 2.8000000e+00 2.6170001e+00 
7.5000000e-01 2.5000000e+00 2.8829999e+00 
1.2500000e+00 2.5000000e+00 2.8829999e+00 
1.2500000e+00 2.5000000e+00 3.1170001e+00 
7.5000000e-01 2.5000000e+00 3.1170001e+00 
7.5000000e-01 2.5000000e+00 3.0000000e+00 
0.0000000e+00 2.5000000e+00 2.8829999e+00 
0.0000000e+00 2.5000000e+00 3.1170001e+00 
1.2500000e+00 2.8000000e+00 3.1170001e+00 
1.2500000e+00 2.8000000e+00 2.8829999e+00 
0.0000000e+00 2.8000000e+00 2.8829999e+00 
0.0000000e+00 2.8000000e+00 3.1170001e+00 
7.5000000e-01 2.5000000e+00 3.3829999e+00 
1.2500000e+00 2.5000000e+00 3.3829999e+00 
1.2500000e+00 2.5000000e+00 3.6170001e+00 
7.5000000e-01 2.5000000e+00 3.6170001e+00 
7.5000000e-01 2.5000000e+00 3.5000000e+00 
0.0000000e+00 2.5000000e+00 3.3829999e+00 
0.0000000e+00 2.5000000e+00 3.6170001e+00 
1.2500000e+00 2.8000000e+00 3.6170001e+00 
1.2500000e+00 2.8000000e+00 3.3829999e+00 
0.0000000e+00 2.8000000e+00 3.3829999e+00 
0.0000000e+00 2.8000000e+00 3.6170001e+00 
7.5000000e-01 2.5000000e+00 3.8829999e+00 
1.2500000e+00 2.5000000e+00 3.8829999e+00 
1.2500000e+00 2.5000000e+00 4.1170001e+00 
7.5000000e-01 2.5000000e+00 4.1170001e+00 
7.5000000e-01 2.5000000e+00 4.0000000e+00 
0.0000000e+00 2.5000000e+00 3.8829999e+00 
0.0000000e+00 2.5000000e+00 4.1170001e+00 
1.2500000e+00 2.8000000e+00 4.1170001e+00 
1.2500000e+00 2.8000000e+00 3.8829999e+00 
0.0000000e+00 2.8000000e+00 3.8829999e+00 
0.0000000e+00 2.8000000e+00 4.1170001e+00 
7.5000000e-01 2.5000000e+00 4.3829999e+00 
1.2500000e+00 2.5000000e+00 4.3829999e+00 
1.2500000e+00 2.5000000e+00 4.6170001e+00 
7.5000000e-01 2.5000000e+00 4.6170001e+00 
7.5000000e-01 2.5000000e+00 4.5000000e+00 
0.0000000e+00 2.5000000e+00 4.3829999e+00 
0.0000000e+00 2.5000000e+00 4.6170001e+00 
1.2500000e+00 2.8000000e+00 4.6170001e+00 
1.2500000e+00 2.8000000e+00 4.3829999e+00 
0.0000000e+00 2.8000000e+00 4.3829999e+00 
0.0000000e+00 2.8000000e+00 4.6170001e+00 
7.5000000e-01 2.5000000e+00 4.8829999e+00 
1.2500000e+00 2.5000000e+00 4.8829999e+00 
1.2500000e+00 2.5000000e+00 5.1170001e+00 
7.5000000e-01 2.5000000e+00 5.1170001e+00 
7.5000000e-01 2.5000000e+00 5.0000000e+00 
0.0000000e+00 2.5000000e+00 4.8829999e+00 
0.0000000e+00 2.5000000e+00 5.1170001e+00 
1.2500000e+00 2.8000000e+00 5.1170001e+00 
1.2500000e+00 2.8000000e+00 4.8829999e+00 
0.0000000e+00 2.8000000e+00 4.8829999e+00 
0.0000000e+00 2.8000000e+00 5.1170001e+00 
7.5000000e-01 2.5000000e+00 5.3829999e+00 
1.2500000e+00 2.5000000e+00 5.3829999e+00 
1.2500000e+00 2.5000000e+00 5.6170001e+00 
7.5000000e-01 2.5000000e+00 5.6170001e+00 
7.5000000e-01 2.5000000e+00 5.5000000e+00 
0.0000000e+00 2.5000000e+00 5.3829999e+00 
0.0000000e+00 2.5000000e+00 5.6170001e+00 
1.2500000e+00 2.8000000e+00 5.6170001e+00 
1.2500000e+00 2.8000000e+00 5.3829999e+00 
0.0000000e+00 2.8000000e+00 5.3829999e+00 
0.0000000e+00 2.8000000e+00 5.6170001e+00 
7.5000000e-01 2.5000000e+00 5.8829999e+00 
1.2500000e+00 2.5000000e+00 5.8829999e+00 
1.2500000e+00 2.5000000e+00 6.1170001e+00 
7.5000000e-01 2.5000000e+00 6.1170001e+00 
7.5000000e-01 2.5000000e+00 6.0000000e+00 
0.0000000e+00 2.5000000e+00 5.8829999e+00 
0.0000000e+00 2.5000000e+00 6.1170001e+00 
1.2500000e+00 2.8000000e+00 6.1170001e+00 
1.2500000e+00 2.8000000e+00 5.8829999e+00 
0.0000000e+00 2.8000000e+00 5.8829999e+00 
0.0000000e+00 2.8000000e+00 6.1170001e+00 
7.5000000e-01 2.5000000e+00 6.3829999e+00 
1.2500000e+00 2.5000000e+00 6.3829999e+00 
1.2500000e+00 2.5000000e+00 6.6170001e+00 
7.5000000e-01 2.5000000e+00 6.6170001e+00 
7.5000000e-01 2.5000000e+00 6.5000000e+00 
0.0000000e+00 2.5000000e+00 6.3829999e+00 
0.0000000e+00 2.5000000e+00 6.6170001e+00 
1.2500000e+00 2.8000000e+00 6.6170001e+00 
1.2500000e+00 2.8000000e+00 6.3829999e+00 
0.0000000e+00 2.8000000e+00 6.3829999e+00 
0.0000000e+00 2.8000000e+00 6.6170001e+00 
7.5000000e-01 2.5000000e+00 6.8829999e+00 
1.2500000e+00 2.5000000e+00 6.8829999e+00 
1.2500000e+00 2.5000000e+00 7.1170001e+00 
7.5000000e-01 2.5000000e+00 7.1170001e+00 
7.5000000e-01 2.5000000e+00 7.0000000e+00 
0.0000000e+00 2.5000000e+00 6.8829999e+00 
0.0000000e+00 2.5000000e+00 7.1170001e+00 
1.2500000e+00 2.8000000e+00 7.1170001e+00 
1.2500000e+00 2.8000000e+00 6.8829999e+00 
0.0000000e+00 2.8000000e+00 6.8829999e+00 
0.0000000e+00 2.8000000e+00 7.1170001e+00 
7.5000000e-01 2.5000000e+00 7.3829999e+00 
1.2500000e+00 2.5000000e+00 7.3829999e+00 
1.2500000e+00 2.5000000e+00 7.6170001e+00 
7.5000000e-01 2.5000000e+00 7.6170001e+00 
7.5000000e-01 2.5000000e+00 7.5000000e+00 
0.0000000e+00 2.5000000e+00 7.3829999e+00 
0.0000000e+00 2.5000000e+00 7.6170001e+00 
1.2500000e+00 2.8000000e+00 7.6170001e+00 
1.2500000e+00 2.8000000e+00 7.3829999e+00 
0.0000000e+00 2.8000000e+00 7.3829999e+00 
0.0000000e+00 2.8000000e+00 7.6170001e+00 
7.5000000e-01 2.5000000e+00 7.8829999e+00 
1.2500000e+00 2.5000000e+00 7.8829999e+00 
1.2500000e+00 2.5000000e+00 8.1169996e+00 
7.5000000e-01 2.5000000e+00 8.1169996e+00 
7.5000000e-01 2.5000000e+00 8.0000000e+00 
0.0000000e+00 2.5000000e+00 7.8829999e+00 
0.0000000e+00 2.5000000e+00 8.1169996e+00 
1.2500000e+00 2.8000000e+00 8.1169996e+00 
1.2500000e+00 2.8000000e+00 7.8829999e+00 
0.0000000e+00 2.8000000e+00 7.8829999e+00 
0.0000000e+00 2.8000000e+00 8.1169996e+00 
7.5000000e-01 2.5000000e+00 8.3830004e+00 
1.2500000e+00 2.5000000e+00 8.3830004e+00 
1.2500000e+00 2.5000000e+00 8.6169996e+00 
7.5000000e-01 2.5000000e+00 8.6169996e+00 
7.5000000e-01 2.5000000e+00 8.5000000e+00 
0.0000000e+00 2.5000000e+00 8.3830004e+00 
0.0000000e+00 2.5000000e+00 8.6169996e+00 
1.2500000e+00 2.8000000e+00 8.6169996e+00 
1.2500000e+00 2.8000000e+00 8.3830004e+00 
0.0000000e+00 2.8000000e+00 8.3830004e+00 
0.0000000e+00 2.8000000e+00 8.6169996e+00 
7.5000000e-01 2.5000000e+00 8.8830004e+00 
1.2500000e+00 2.5000000e+00 8.8830004e+00 
1.2500000e+00 2.5000000e+00 9.1169996e+00 
7.5000000e-01 2.5000000e+00 9.1169996e+00 
7.5000000e-01 2.5000000e+00 9.0000000e+00 
0.0000000e+00 2.5000000e+00 8.8830004e+00 
0.0000000e+00 2.5000000e+00 9.1169996e+00 
1.2500000e+00 2.8000000e+00 9.1169996e+00 
1.2500000e+00 2.8000000e+00 8.8830004e+00 
0.0000000e+00 2.8000000e+00 8.8830004e+00 
0.0000000e+00 2.8000000e+00 9.1169996e+00 
7.5000000e-01 2.5000000e+00 9.3830004e+00 
1.2500000e+00 2.5000000e+00 9.3830004e+00 
1.2500000e+00 2.5000000e+00 9.6169996e+00 
7.5000000e-01 2.5000000e+00 9.6169996e+00 
7.5000000e-01 2.5000000e+00 9.5000000e+00 
0.0000000e+00 2.5000000e+00 9.3830004e+00 
0.0000000e+00 2.5000000e+00 9.6169996e+00 
1.2500000e+00 2.8000000e+00 9.6169996e+00 
1.2500000e+00 2.8000000e+00 9.3830004e+00 
0.0000000e+00 2.8000000e+00 9.3830004e+00 
0.0000000e+00 2.8000000e+00 9.6169996e+00 
7.5000000e-01 2.5000000e+00 9.8830004e+00 
1.2500000e+00 2.5000000e+00 9.8830004e+00 
1.2500000e+00 2.5000000e+00 1.0117000e+01 
[...]
POINT_DATA 1827
FIELD FieldData 2
DISPLACEMENT 3 1827  float
0.0000000e+00 0.0000000e+00 0.0000000e+00 
0.0000000e+00 0.0000000e+00 0.0000000e+00 
0.0000000e+00 0.0000000e+00 0.0000000e+00 
0.0000000e+00 0.0000000e+00 0.0000000e+00 
0.0000000e+00 5.1829361e-06 0.0000000e+00 
0.0000000e+00 -4.1872462e-07 0.0000000e+00 
0.0000000e+00 -5.5389264e-05 0.0000000e+00 
0.0000000e+00 -1.1429155e-06 0.0000000e+00 
0.0000000e+00 1.3290406e-05 0.0000000e+00 
-1.2309858e-08 1.3275231e-05 -1.0865248e-08 
2.3350544e-09 1.3373373e-05 -4.8949889e-09 
0.0000000e+00 1.3388097e-05 0.0000000e+00 
0.0000000e+00 1.3252984e-05 0.0000000e+00 
0.0000000e+00 1.3246753e-05 0.0000000e+00 
1.0931802e-08 1.3303532e-05 3.8672878e-09 
0.0000000e+00 1.3302180e-05 0.0000000e+00 
0.0000000e+00 1.3258814e-05 0.0000000e+00 
0.0000000e+00 1.3255852e-05 0.0000000e+00 
4.8370730e-08 -9.3633112e-08 -3.6960893e-07 
3.4745302e-08 4.6994970e-07 -5.5484747e-07 
1.2594059e-07 3.2175487e-07 -5.4790621e-07 
1.3735828e-07 -2.0168038e-07 -3.6722761e-07 
9.1057530e-08 -1.5080742e-07 -3.6353089e-07 
0.0000000e+00 -5.9713182e-07 0.0000000e+00 
0.0000000e+00 -6.2830901e-07 0.0000000e+00 
-1.7255759e-07 3.1541001e-07 -3.8736709e-07 
-2.5680148e-07 4.4582671e-07 -3.9027114e-07 
0.0000000e+00 -5.6844908e-07 0.0000000e+00 
0.0000000e+00 -6.1037372e-07 0.0000000e+00 
-1.0930572e-07 -1.4323506e-06 -2.8260172e-07 
-1.4830736e-07 -1.3896413e-06 -5.4539214e-07 
-3.6166540e-08 -1.4719902e-06 -5.4626662e-07 
-1.6232105e-08 -1.4786872e-06 -2.7922334e-07 
-6.2014294e-08 -1.4568228e-06 -2.7862566e-07 
0.0000000e+00 -1.5000752e-06 0.0000000e+00 
0.0000000e+00 -1.5226084e-06 0.0000000e+00 
-2.6403583e-08 -1.4645835e-06 -4.5180278e-07 
-1.4648471e-07 -1.3985988e-06 -4.5513184e-07 
0.0000000e+00 -1.4912747e-06 0.0000000e+00 
0.0000000e+00 -1.5164129e-06 0.0000000e+00 
-9.2157428e-08 1.0777811e-05 -3.2667785e-07 
-1.5289240e-07 1.1074590e-05 -8.0558823e-07 
6.5725800e-08 1.1193610e-05 -8.1942477e-07 
7.3773371e-08 1.0829325e-05 -3.2643112e-07 
-7.1823738e-09 1.0809546e-05 -3.2418424e-07 
0.0000000e+00 1.0421860e-05 0.0000000e+00 
0.0000000e+00 1.0452884e-05 0.0000000e+00 
-9.1348113e-08 1.1165135e-05 -8.8392801e-07 
-3.2164533e-07 1.1095217e-05 -8.9210391e-07 
0.0000000e+00 1.0464979e-05 0.0000000e+00 
0.0000000e+00 1.0468717e-05 0.0000000e+00 
-9.7664106e-08 3.6181169e-05 -5.1520061e-07 
-1.3927118e-07 3.6318899e-05 -1.0810530e-06 
1.3154433e-07 3.6415735e-05 -1.0812693e-06 
1.1174942e-07 3.6247602e-05 -5.2078855e-07 
4.7237241e-09 3.6214180e-05 -5.1357938e-07 
0.0000000e+00 3.6057416e-05 0.0000000e+00 
0.0000000e+00 3.6110912e-05 0.0000000e+00 
5.4963778e-08 3.6398142e-05 -1.1500681e-06 
-2.1507560e-07 3.6330948e-05 -1.1525973e-06 
0.0000000e+00 3.6088499e-05 0.0000000e+00 
0.0000000e+00 3.6100315e-05 0.0000000e+00 
-3.0659066e-08 6.3035179e-05 -5.3667230e-07 
-6.5852198e-08 6.3448555e-05 -1.2694198e-06 
2.8022572e-07 6.3480278e-05 -1.2688171e-06 
2.1743602e-07 6.3065338e-05 -5.4190173e-07 
9.3004878e-08 6.3051484e-05 -5.3471621e-07 
0.0000000e+00 6.2651758e-05 0.0000000e+00 
0.0000000e+00 6.2668485e-05 0.0000000e+00 
3.3345088e-08 6.3470121e-05 -1.2661282e-06 
-3.0028266e-07 6.3447209e-05 -1.2700765e-06 
0.0000000e+00 6.2690880e-05 0.0000000e+00 
0.0000000e+00 6.2679290e-05 0.0000000e+00 
-3.6562387e-08 7.6961252e-05 -1.3383291e-07 
-6.3170987e-08 7.6801509e-05 -2.8089505e-07 
1.1208335e-09 7.6728793e-05 -2.7943506e-07 
1.3312835e-08 7.6908567e-05 -1.3878248e-07 
-1.1538787e-08 7.6937198e-05 -1.3428435e-07 
0.0000000e+00 7.7034012e-05 0.0000000e+00 
0.0000000e+00 7.7014090e-05 0.0000000e+00 
9.9885732e-08 7.6753597e-05 -1.9694316e-07 
3.6042049e-08 7.6815253e-05 -1.9643103e-07 
0.0000000e+00 7.7030440e-05 0.0000000e+00 
0.0000000e+00 7.7012643e-05 0.0000000e+00 
-5.7358843e-08 6.3990665e-05 -1.3873706e-07 
-1.1413159e-07 6.3963642e-05 -2.7547568e-07 
-6.3083164e-08 6.3693049e-05 -2.6161561e-07 
-2.4512710e-08 6.3853156e-05 -1.3597322e-07 
-4.2535873e-08 6.3926571e-05 -1.3338243e-07 
0.0000000e+00 6.4084321e-05 0.0000000e+00 
0.0000000e+00 6.4026892e-05 0.0000000e+00 
1.5984927e-08 6.3739280e-05 -1.3280551e-08 
-2.4625830e-08 6.3927240e-05 -1.1858933e-08 
0.0000000e+00 6.4087733e-05 0.0000000e+00 
0.0000000e+00 6.4037864e-05 0.0000000e+00 
1.2526034e-07 1.4264101e-05 3.6883546e-07 
1.9321411e-07 1.4357480e-05 1.1097814e-06 
-1.7986829e-07 1.3833893e-05 1.0756893e-06 
-1.2360991e-07 1.3968382e-05 3.6740244e-07 
-6.8850636e-10 1.4116875e-05 3.7182534e-07 
0.0000000e+00 1.4339890e-05 0.0000000e+00 
0.0000000e+00 1.4149672e-05 0.0000000e+00 
-1.5632091e-07 1.3907262e-05 1.5623173e-06 
1.9964594e-07 1.4287511e-05 1.5532696e-06 
0.0000000e+00 1.4273725e-05 0.0000000e+00 
0.0000000e+00 1.4179264e-05 0.0000000e+00 
3.4465438e-07 -7.5411728e-05 1.6058358e-06 
4.9908635e-07 -7.5166092e-05 3.2069311e-06 
-3.2948526e-07 -7.5838834e-05 3.2175913e-06 
-3.0883592e-07 -7.5780314e-05 1.6297080e-06 
8.3018552e-09 -7.5590942e-05 1.6069679e-06 
0.0000000e+00 -7.5049153e-05 0.0000000e+00 
0.0000000e+00 -7.5243071e-05 0.0000000e+00 
-3.6336726e-07 -7.5769829e-05 3.7815937e-06 
4.3953372e-07 -7.5318909e-05 3.7814757e-06 
0.0000000e+00 -7.5155083e-05 0.0000000e+00 
0.0000000e+00 -7.5222575e-05 0.0000000e+00 
3.8298344e-07 -1.9594861e-04 -1.7880505e-07 
5.4609666e-07 -1.9441382e-04 6.1966219e-08 
3.8400083e-07 -1.9558100e-04 8.5490448e-08 
2.7420072e-07 -1.9668615e-04 -1.3147975e-07 
3.1048381e-07 -1.9636530e-04 -1.4318449e-07 
0.0000000e+00 -1.9670439e-04 0.0000000e+00 
0.0000000e+00 -1.9700422e-04 0.0000000e+00 
-4.0611471e-07 -1.9555107e-04 1.2327126e-06 
-2.3551982e-07 -1.9464751e-04 1.2325660e-06 
0.0000000e+00 -1.9673257e-04 0.0000000e+00 
0.0000000e+00 -1.9698292e-04 0.0000000e+00 
6.0580072e-07 -3.1604950e-04 -8.3694722e-08 
8.4494803e-07 -3.1324301e-04 8.5369898e-08 
7.4125006e-07 -3.1386322e-04 1.7153188e-07 
5.2304910e-07 -3.1642162e-04 -1.2884745e-08 
5.3089798e-07 -3.1630479e-04 -3.8201570e-08 
0.0000000e+00 -3.1717645e-04 0.0000000e+00 
0.0000000e+00 -3.1731682e-04 0.0000000e+00 
-8.0151023e-07 -3.1400545e-04 7.3436280e-07 
-6.9011639e-07 -3.1353961e-04 7.4692747e-07 
0.0000000e+00 -3.1714817e-04 0.0000000e+00 
0.0000000e+00 -3.1726572e-04 0.0000000e+00 
4.6861092e-07 -3.3390438e-04 3.2579275e-10 
6.3095013e-07 -3.3151926e-04 -8.6687670e-08 
6.9950642e-07 -3.3103875e-04 -4.0646448e-08 
5.2399599e-07 -3.3356412e-04 7.4026694e-08 
4.6291035e-07 -3.3380766e-04 2.8082036e-08 
0.0000000e+00 -3.3476128e-04 0.0000000e+00 
0.0000000e+00 -3.3465453e-04 0.0000000e+00 
-6.9194857e-07 -3.3127298e-04 -5.6731614e-07 
-7.6494331e-07 -3.3166670e-04 -5.6763025e-07 
0.0000000e+00 -3.3467423e-04 0.0000000e+00 
0.0000000e+00 -3.3460185e-04 0.0000000e+00 
9.4663427e-08 -2.4939893e-04 -1.1351700e-06 
1.7136526e-07 -2.4809287e-04 -2.1293333e-06 
6.6700761e-07 -2.4766457e-04 -2.0842240e-06 
5.2336657e-07 -2.4914491e-04 -1.1137340e-06 
2.9271521e-07 -2.4930583e-04 -1.1167514e-06 
0.0000000e+00 -2.4993418e-04 0.0000000e+00 
0.0000000e+00 -2.4982844e-04 0.0000000e+00 
-1.2897283e-07 -2.4783710e-04 -2.4914518e-06 
-6.3068182e-07 -2.4813382e-04 -2.4915282e-06 
0.0000000e+00 -2.4985679e-04 0.0000000e+00 
0.0000000e+00 -2.4982440e-04 0.0000000e+00 
2.3395938e-08 -1.5183144e-04 -2.9546552e-08 
2.5034065e-08 -1.5119082e-04 -5.8768723e-07 
3.3058797e-07 -1.5030535e-04 -5.7635862e-07 
2.1672533e-07 -1.5115966e-04 -2.9609879e-08 
1.1132291e-07 -1.5149949e-04 -4.7150259e-08 
0.0000000e+00 -1.5189174e-04 0.0000000e+00 
0.0000000e+00 -1.5164397e-04 0.0000000e+00 
-9.3588696e-08 -1.5043208e-04 -1.5117306e-06 
-3.7898795e-07 -1.5118455e-04 -1.5205633e-06 
0.0000000e+00 -1.5180514e-04 0.0000000e+00 
0.0000000e+00 -1.5164589e-04 0.0000000e+00 
-1.6837569e-07 -7.1459232e-05 -5.8001569e-07 
-2.3215492e-07 -7.1647330e-05 -1.3253160e-06 
2.0353775e-07 -7.0981208e-05 -1.3361982e-06 
1.3497781e-07 -7.1122835e-05 -5.8178989e-07 
-1.8674516e-08 -7.1288850e-05 -5.8005048e-07 
0.0000000e+00 -7.1340357e-05 0.0000000e+00 
0.0000000e+00 -7.1192408e-05 0.0000000e+00 
2.0037085e-07 -7.1090108e-05 -1.9083338e-06 
-1.9222924e-07 -7.1538656e-05 -1.9163617e-06 
0.0000000e+00 -7.1299190e-05 0.0000000e+00 
0.0000000e+00 -7.1217037e-05 0.0000000e+00 
1.3652320e-07 -1.4714215e-05 2.4815009e-07 
1.6091218e-07 -1.4340135e-05 2.3770373e-07 
2.0534748e-07 -1.3832711e-05 2.4383277e-07 
1.3858549e-07 -1.4391328e-05 2.3962576e-07 
1.3474396e-07 -1.4546829e-05 2.3482809e-07 
0.0000000e+00 -1.4903383e-05 0.0000000e+00 
0.0000000e+00 -1.4766055e-05 0.0000000e+00 
-8.2859245e-08 -1.3912927e-05 -2.7126958e-07 
-1.0439682e-07 -1.4313464e-05 -2.6863418e-07 
0.0000000e+00 -1.4861964e-05 0.0000000e+00 
0.0000000e+00 -1.4756360e-05 0.0000000e+00 
1.4516483e-07 1.7536187e-05 1.1278564e-07 
1.9986028e-07 1.7914681e-05 1.8926563e-07 
1.8562622e-07 1.8095314e-05 1.9653665e-07 
1.2198291e-07 1.7642962e-05 1.1333563e-07 
1.2982940e-07 1.7586011e-05 1.1070717e-07 
0.0000000e+00 1.7311399e-05 0.0000000e+00 
0.0000000e+00 1.7357228e-05 0.0000000e+00 
-8.1396891e-08 1.8052764e-05 1.1650521e-08 
-5.4541790e-08 1.7915216e-05 1.2866863e-08 
0.0000000e+00 1.7319104e-05 0.0000000e+00 
0.0000000e+00 1.7361192e-05 0.0000000e+00 
7.6281196e-08 2.6413783e-05 3.9578617e-07 
1.0973807e-07 2.6448570e-05 7.4369098e-07 
-7.0204585e-08 2.6464530e-05 7.3951793e-07 
-6.0430303e-08 2.6441088e-05 3.9564586e-07 
8.2787723e-09 2.6425487e-05 3.9157757e-07 
0.0000000e+00 2.6427169e-05 0.0000000e+00 
0.0000000e+00 2.6441501e-05 0.0000000e+00 
-8.5661924e-08 2.6470916e-05 6.9900932e-07 
7.8923875e-08 2.6440823e-05 7.0031547e-07 
0.0000000e+00 2.6430034e-05 0.0000000e+00 
0.0000000e+00 2.6446627e-05 0.0000000e+00 
-4.7694559e-08 2.0186624e-05 3.4414632e-07 
-6.9951888e-08 1.9845853e-05 7.0212150e-07 
-2.6238607e-07 1.9774587e-05 6.9359936e-07 
-1.8350620e-07 2.0163456e-05 3.4156233e-07 
-1.1160236e-07 2.0178944e-05 3.4002849e-07 
0.0000000e+00 2.0374971e-05 0.0000000e+00 
0.0000000e+00 2.0367024e-05 0.0000000e+00 
-2.8155563e-08 1.9817373e-05 7.3791352e-07 
1.4449189e-07 1.9851359e-05 7.3652558e-07 
0.0000000e+00 2.0362992e-05 0.0000000e+00 
0.0000000e+00 2.0367597e-05 0.0000000e+00 
-7.4342395e-08 1.1594986e-05 1.0605713e-07 
-1.1041244e-07 1.1240717e-05 2.3337114e-07 
-1.6478856e-07 1.1210851e-05 2.2851385e-07 
-1.1767563e-07 1.1582071e-05 9.8129085e-08 
-9.1743679e-08 1.1594226e-05 1.0106663e-07 
0.0000000e+00 1.1742370e-05 0.0000000e+00 
0.0000000e+00 1.1735717e-05 0.0000000e+00 
4.6850992e-08 1.1243995e-05 2.4804228e-07 
1.0987888e-07 1.1259883e-05 2.4733626e-07 
0.0000000e+00 1.1734860e-05 0.0000000e+00 
0.0000000e+00 1.1732195e-05 0.0000000e+00 
-4.6445710e-09 7.7107188e-06 -6.2107404e-08 
-6.0014510e-10 7.6053111e-06 -1.0886360e-07 
2.1486739e-08 7.5843095e-06 -1.1509058e-07 
1.3440542e-08 7.6898586e-06 -6.4899041e-08 
5.1068656e-09 7.7014201e-06 -6.2741421e-08 
0.0000000e+00 7.7618415e-06 0.0000000e+00 
0.0000000e+00 7.7558361e-06 0.0000000e+00 
7.2577009e-08 7.5911184e-06 -8.3168750e-08 
4.9735252e-08 7.6137326e-06 -8.3036610e-08 
0.0000000e+00 7.7553323e-06 0.0000000e+00 
0.0000000e+00 7.7484519e-06 0.0000000e+00 
3.8700080e-08 5.1303341e-06 -4.0029391e-07 
8.1222964e-08 5.4407456e-06 -7.5284561e-07 
2.2678928e-07 5.3140311e-06 -7.4695390e-07 
1.6883634e-07 5.0424524e-06 -3.9817246e-07 
1.0107676e-07 5.0815852e-06 -3.9502262e-07 
0.0000000e+00 4.9687087e-06 0.0000000e+00 
0.0000000e+00 4.9337250e-06 0.0000000e+00 
4.8858915e-08 5.3025683e-06 -6.0057812e-07 
-1.1113806e-07 5.4128304e-06 -5.9884428e-07 
0.0000000e+00 4.9667760e-06 0.0000000e+00 
0.0000000e+00 4.9327887e-06 0.0000000e+00 
1.8151491e-08 -1.6438595e-06 -2.4596240e-08 
2.8737322e-08 -1.6058818e-06 1.3092978e-09 
1.4758368e-08 -1.6681157e-06 5.6472329e-09 
1.0870917e-08 -1.6932476e-06 -1.8175747e-08 
1.2826810e-08 -1.6725369e-06 -2.0800355e-08 
0.0000000e+00 -1.6201434e-06 0.0000000e+00 
0.0000000e+00 -1.6457102e-06 0.0000000e+00 
-3.4563861e-09 -1.6715702e-06 7.0831646e-08 
8.9262215e-09 -1.6166503e-06 7.2618057e-08 
0.0000000e+00 -1.6307459e-06 0.0000000e+00 
0.0000000e+00 -1.6438944e-06 0.0000000e+00 
9.0962615e-08 -1.0165456e-05 1.8228634e-07 
1.1208004e-07 -9.9552853e-06 3.6736603e-07 
2.1804833e-08 -9.9785293e-06 3.6673319e-07 
1.9222368e-08 -1.0180383e-05 1.7850267e-07 
5.4786504e-08 -1.0172628e-05 1.7879879e-07 
0.0000000e+00 -1.0344595e-05 0.0000000e+00 
0.0000000e+00 -1.0354103e-05 0.0000000e+00 
-9.9769458e-08 -9.9815770e-06 3.8275994e-07 
-1.0913575e-08 -9.9659719e-06 3.8226196e-07 
0.0000000e+00 -1.0341927e-05 0.0000000e+00 
0.0000000e+00 -1.0346865e-05 0.0000000e+00 
5.7916587e-08 -1.1588428e-05 1.1224576e-07 
5.6970023e-08 -1.1410411e-05 2.1618753e-07 
1.0790144e-08 -1.1321307e-05 2.1388146e-07 
2.4713867e-08 -1.1532362e-05 1.0695572e-07 
4.1996017e-08 -1.1556886e-05 1.0787261e-07 
0.0000000e+00 -1.1798211e-05 0.0000000e+00 
0.0000000e+00 -1.1770437e-05 0.0000000e+00 
-9.5104781e-08 -1.1332659e-05 1.2053788e-07 
-5.1632092e-08 -1.1402196e-05 1.1764786e-07 
0.0000000e+00 -1.1780120e-05 0.0000000e+00 
0.0000000e+00 -1.1767161e-05 0.0000000e+00 
7.1181958e-09 -3.1366862e-06 -6.8483871e-08 
-2.1542870e-09 -3.0147623e-06 -1.8075026e-07 
5.7862000e-08 -2.9321350e-06 -1.7549824e-07 
4.7082111e-08 -3.0826220e-06 -6.7763608e-08 
2.6582645e-08 -3.1099112e-06 -6.8178934e-08 
0.0000000e+00 -3.2523037e-06 0.0000000e+00 
0.0000000e+00 -3.2254759e-06 0.0000000e+00 
-2.1424226e-08 -2.9458997e-06 -2.5688888e-07 
-7.6124024e-08 -3.0097456e-06 -2.5637198e-07 
0.0000000e+00 -3.2361709e-06 0.0000000e+00 
0.0000000e+00 -3.2221633e-06 0.0000000e+00 
4.2019006e-09 6.5674931e-06 7.8030901e-08 
1.5348160e-08 6.5117224e-06 1.4648576e-07 
-5.2939826e-09 6.5894765e-06 1.4261627e-07 
-1.6863488e-08 6.6162797e-06 8.1542360e-08 
-7.1856006e-09 6.5892646e-06 7.8149021e-08 
0.0000000e+00 6.6716029e-06 0.0000000e+00 
0.0000000e+00 6.6937764e-06 0.0000000e+00 
1.0951783e-08 6.5788395e-06 6.2802229e-08 
3.7029892e-08 6.5173085e-06 6.3550893e-08 
0.0000000e+00 6.6737080e-06 0.0000000e+00 
0.0000000e+00 6.6912503e-06 0.0000000e+00 
-2.9223676e-08 8.0577856e-06 9.6531451e-08 
-2.6160105e-08 7.8818066e-06 2.0204244e-07 
-7.7340225e-08 7.8747271e-06 2.0440203e-07 
-6.8451392e-08 8.0556183e-06 1.0062763e-07 
-4.8375412e-08 8.0550144e-06 9.7751041e-08 
0.0000000e+00 8.2503593e-06 0.0000000e+00 
0.0000000e+00 8.2447596e-06 0.0000000e+00 
2.7221365e-08 7.8803723e-06 2.0310577e-07 
7.6471629e-08 7.8825051e-06 2.0523862e-07 
0.0000000e+00 8.2378556e-06 0.0000000e+00 
0.0000000e+00 8.2427014e-06 0.0000000e+00 
-1.2696980e-08 2.1510023e-06 7.1876563e-08 
-1.9992758e-08 2.0568243e-06 1.4685257e-07 
-5.8023041e-08 2.0253779e-06 1.4535316e-07 
-4.2817341e-08 2.1294873e-06 7.0452579e-08 
-2.6608619e-08 2.1423205e-06 7.0738835e-08 
0.0000000e+00 2.2083791e-06 0.0000000e+00 
0.0000000e+00 2.1971907e-06 0.0000000e+00 
2.8071985e-09 2.0351806e-06 1.7555874e-07 
4.0060701e-08 2.0591058e-06 1.7555966e-07 
0.0000000e+00 2.2008492e-06 0.0000000e+00 
0.0000000e+00 2.1974131e-06 0.0000000e+00 
-3.0760734e-08 -3.6529245e-06 -1.1734306e-07 
-5.3267453e-08 -3.6992171e-06 -2.5250003e-07 
1.6734488e-08 -3.7327309e-06 -2.5281113e-07 
1.4123005e-08 -3.6785284e-06 -1.2003039e-07 
-7.7645037e-09 -3.6619267e-06 -1.1719450e-07 
0.0000000e+00 -3.6578060e-06 0.0000000e+00 
0.0000000e+00 -3.6681831e-06 0.0000000e+00 
4.3007432e-08 -3.7259824e-06 -2.0805750e-07 
-1.6879307e-08 -3.6953738e-06 -2.0818895e-07 
0.0000000e+00 -3.6579388e-06 0.0000000e+00 
0.0000000e+00 -3.6689776e-06 0.0000000e+00 
4.2216847e-08 -4.4529706e-06 -1.4066894e-08 
5.5512135e-08 -4.3229602e-06 -3.3172014e-08 
6.7361555e-08 -4.3113273e-06 -3.3676436e-08 
4.9184532e-08 -4.4455155e-06 -1.4739956e-08 
4.4707914e-08 -4.4499725e-06 -1.4363555e-08 
0.0000000e+00 -4.5505453e-06 0.0000000e+00 
0.0000000e+00 -4.5454035e-06 0.0000000e+00 
-1.6452598e-08 -4.3188802e-06 -4.4154195e-08 
-2.5821739e-08 -4.3275895e-06 -4.4312220e-08 
0.0000000e+00 -4.5452748e-06 0.0000000e+00 
0.0000000e+00 -4.5452075e-06 0.0000000e+00 
1.6853869e-08 -1.9220965e-06 3.5951604e-08 
2.7866093e-08 -1.9090601e-06 5.9481319e-08 
1.4073273e-08 -1.8842782e-06 5.8544057e-08 
7.1971251e-09 -1.9022913e-06 3.6613162e-08 
1.1556169e-08 -1.9131278e-06 3.5698317e-08 
0.0000000e+00 -1.9114329e-06 0.0000000e+00 
0.0000000e+00 -1.9038059e-06 0.0000000e+00 
2.7970561e-09 -1.8880061e-06 3.0617702e-08 
1.2565409e-08 -1.9099953e-06 3.0940193e-08 
0.0000000e+00 -1.9111030e-06 0.0000000e+00 
0.0000000e+00 -1.9050100e-06 0.0000000e+00 
-2.4035115e-08 9.5096721e-07 -1.6591434e-08 
-2.6108381e-08 8.9579288e-07 -3.7918927e-08 
-1.6979355e-08 9.0784476e-07 -3.8569528e-08 
-1.5378083e-08 9.5875532e-07 -1.6007878e-08 
-1.9303553e-08 9.5462951e-07 -1.6251230e-08 
0.0000000e+00 1.0027903e-06 0.0000000e+00 
0.0000000e+00 1.0063620e-06 0.0000000e+00 
1.5360934e-08 9.0755469e-07 -4.9618389e-08 
4.2970050e-09 8.9860168e-07 -4.9371284e-08 
0.0000000e+00 1.0026226e-06 0.0000000e+00 
0.0000000e+00 1.0033572e-06 0.0000000e+00 
-1.2547828e-08 2.2794375e-06 -1.8401709e-08 
-1.8100204e-08 2.2758159e-06 -3.8618811e-08 
-8.5036156e-09 2.2684078e-06 -3.6634376e-08 
-5.0199436e-09 2.2753327e-06 -1.8242938e-08 
-8.7212237e-09 2.2774318e-06 -1.8216106e-08 
0.0000000e+00 2.2918555e-06 0.0000000e+00 
0.0000000e+00 2.2897948e-06 0.0000000e+00 
-2.0998032e-09 2.2688948e-06 -2.9590693e-08 
-1.0777650e-08 2.2744855e-06 -2.9652558e-08 
0.0000000e+00 2.2922827e-06 0.0000000e+00 
0.0000000e+00 2.2904903e-06 0.0000000e+00 
-2.5081217e-09 1.5778204e-06 1.3499349e-08 
-2.7052320e-09 1.5476254e-06 3.5309288e-08 
-1.2738402e-08 1.5401770e-06 3.4859347e-08 
-9.9734239e-09 1.5723342e-06 1.3474672e-08 
-6.1120629e-09 1.5754071e-06 1.3406687e-08 
0.0000000e+00 1.6011220e-06 0.0000000e+00 
0.0000000e+00 1.5985466e-06 0.0000000e+00 
5.1608113e-09 1.5425242e-06 4.1930523e-08 
1.5312992e-08 1.5485698e-06 4.2095856e-08 
0.0000000e+00 1.5989423e-06 0.0000000e+00 
0.0000000e+00 1.5982175e-06 0.0000000e+00 
2.8423963e-09 9.9407458e-08 2.4545844e-08 
3.6297352e-09 8.0551452e-08 6.5343421e-08 
-1.4778812e-08 7.9046281e-08 6.4157653e-08 
-9.8022888e-09 9.5771227e-08 2.4621119e-08 
-3.2896099e-09 9.7672576e-08 2.4524075e-08 
0.0000000e+00 1.0622327e-07 0.0000000e+00 
0.0000000e+00 1.0505910e-07 0.0000000e+00 
-4.1559569e-09 7.9987437e-08 6.5615453e-08 
1.3787420e-08 8.2501039e-08 6.5550680e-08 
0.0000000e+00 1.0501051e-07 0.0000000e+00 
0.0000000e+00 1.0489917e-07 0.0000000e+00 
8.5519840e-09 -7.8104745e-07 1.9024290e-08 
9.8267847e-09 -7.6233238e-07 4.1854349e-08 
-1.0887811e-09 -7.6110450e-07 4.1800185e-08 
7.4389489e-10 -7.7994696e-07 1.8618802e-08 
4.7249378e-09 -7.8034276e-07 1.8634985e-08 
0.0000000e+00 -8.0162340e-07 0.0000000e+00 
0.0000000e+00 -8.0076387e-07 0.0000000e+00 
-1.1580067e-08 -7.6129032e-07 3.9106226e-08 
-1.0609066e-09 -7.6270493e-07 3.8987238e-08 
0.0000000e+00 -8.0053496e-07 0.0000000e+00 
0.0000000e+00 -8.0024284e-07 0.0000000e+00 
1.3734801e-09 -5.8350321e-07 -1.5786885e-08 
1.2949245e-09 -5.6871733e-07 -3.6312027e-08 
1.2171096e-08 -5.6613635e-07 -3.7178481e-08 
8.5490486e-09 -5.8158895e-07 -1.5933992e-08 
4.9130318e-09 -5.8253897e-07 -1.5738058e-08 
0.0000000e+00 -5.9847423e-07 0.0000000e+00 
0.0000000e+00 -5.9748572e-07 0.0000000e+00 
1.8965733e-09 -5.6687105e-07 -3.8320447e-08 
-7.7513880e-09 -5.6881521e-07 -3.8550681e-08 
0.0000000e+00 -5.9736271e-07 0.0000000e+00 
0.0000000e+00 -5.9749493e-07 0.0000000e+00 
-7.6357143e-10 1.6438635e-07 -3.8024544e-09 
-7.4722928e-10 1.6108393e-07 -1.2819013e-08 
3.7224339e-09 1.6514804e-07 -1.2567403e-08 
2.0148772e-09 1.6725832e-07 -3.5756809e-09 
4.9307025e-10 1.6557685e-07 -3.6924455e-09 
0.0000000e+00 1.7136006e-07 0.0000000e+00 
0.0000000e+00 1.7272174e-07 0.0000000e+00 
4.7602362e-09 1.6454639e-07 -1.6453900e-08 
5.6498645e-10 1.6123956e-07 -1.6350905e-08 
0.0000000e+00 1.7136925e-07 0.0000000e+00 
0.0000000e+00 1.7227062e-07 0.0000000e+00 
0.0000000e+00 3.1758776e-05 0.0000000e+00 
0.0000000e+00 4.0310996e-07 0.0000000e+00 
-2.5210234e-10 5.2419546e-07 -1.5262795e-10 
-2.9850852e-10 5.2294268e-07 -1.0209768e-10 
0.0000000e+00 5.2307763e-07 0.0000000e+00 