# vtk DataFile Version 4.0
vtk output
ASCII
DATASET UNSTRUCTURED_GRID
POINTS 1827 float
0.0000000e+00 0.0000000e+00 0.0000000e+00 
0.0000000e+00 0.0000000e+00 2.0000000e+01 
3.4700000e+00 0.0000000e+00 0.0000000e+00 
3.4700000e+00 0.0000000e+00 2.0000000e+01 
3.4700000e+00 1.0000000e+00 0.0000000e+00 
3.4700000e+00 1.0000000e+00 2.0000000e+01 
0.0000000e+00 1.0000000e+00 0.0000000e+00 
0.0000000e+00 1.0000000e+00 2.0000000e+01 
1.2500000e+00 2.5000000e+00 0.0000000e+00 
1.2500000e+00 2.5000000e+00 1.1700000e-01 
7.5000000e-01 2.5000000e+00 1.1700000e-01 
7.5000000e-01 2.5000000e+00 0.0000000e+00 
0.0000000e+00 2.5000000e+00 0.0000000e+00 
0.0000000e+00 2.5000000e+00 1.1700000e-01 
1.2500000e+00 2.8000000e+00 1.1700000e-01 
1.2500000e+00 2.8000000e+00 0.0000000e+00 
0.0000000e+00 2.8000000e+00 0.0000000e+00 
0.0000000e+00 2.8000000e+00 1.1700000e-01 
7.5000000e-01 2.5000000e+00 3.8299999e-01 
1.2500000e+00 2.5000000e+00 3.8299999e-01 
1.2500000e+00 2.5000000e+00 6.1699998e-01 
7.5000000e-01 2.5000000e+00 6.1699998e-01 
7.5000000e-01 2.5000000e+00 5.0000000e-01 
0.0000000e+00 2.5000000e+00 3.8299999e-01 
0.0000000e+00 2.5000000e+00 6.1699998e-01 
1.2500000e+00 2.8000000e+00 6.1699998e-01 
1.2500000e+00 2.8000000e+00 3.8299999e-01 
0.0000000e+00 2.8000000e+00 3.8299999e-01 
0.0000000e+00 2.8000000e+00 6.1699998e-01 
7.5000000e-01 2.5000000e+00 8.8300002e-01 
1.2500000e+00 2.5000000e+00 8.8300002e-01 
1.2500000e+00 2.5000000e+00 1.1170000e+00 
7.5000000e-01 2.5000000e+00 1.1170000e+00 
7.5000000e-01 2.5000000e+00 1.0000000e+00 
0.0000000e+00 2.5000000e+00 8.8300002e-01 
0.0000000e+00 2.5000000e+00 1.1170000e+00 
1.2500000e+00 2.8000000e+00 1.1170000e+00 
1.2500000e+00 2.8000000e+00 8.8300002e-01 
0.0000000e+00 2.8000000e+00 8.8300002e-01 
0.0000000e+00 2.8000000e+00 1.1170000e+00 
7.5000000e-01 2.5000000e+00 1.3830000e+00 
1.2500000e+00 2.5000000e+00 1.3830000e+00 
1.2500000e+00 2.5000000e+00 1.6170000e+00 
7.5000000e-01 2.5000000e+00 1.6170000e+00 
7.5000000e-01 2.5000000e+00 1.5000000e+00 
0.0000000e+00 2.5000000e+00 1.3830000e+00 
0.0000000e+00 2.5000000e+00 1.6170000e+00 
1.2500000e+00 2.8000000e+00 1.6170000e+00 
1.2500000e+00 2.8000000e+00 1.3830000e+00 
0.0000000e+00 2.8000000e+00 1.3830000e+00 
0.0000000e+00 2.8000000e+00 1.6170000e+00 
7.5000000e-01 2.5000000e+00 1.8830000e+00 
1.2500000e+00 2.5000000e+00 1.8830000e+00 
1.2500000e+00 2.5000000e+00 2.1170001e+00 
7.5000000e-01 2.5000000e+00 2.1170001e+00 
7.5000000e-01 2.5000000e+00 2.0000000e+00 
0.0000000e+00 2.5000000e+00 1.8830000e+00 
0.0000000e+00 2.5000000e+00 2.1170001e+00 
1.2500000e+00 2.8000000e+00 2.1170001e+00 
1.2500000e+00 2.8000000e+00 1.8830000e+00 
0.0000000e+00 2.8000000e+00 1.8830000e+00 
0.0000000e+00 2.8000000e+00 2.1170001e+00 
7.5000000e-01 2.5000000e+00 2.3829999e+00 
1.2500000e+00 2.5000000e+00 2.3829999e+00 
1.2500000e+00 2.5000000e+00 2.6170001e+00 
7.5000000e-01 2.5000000e+00 2.6170001e+00 
7.5000000e-01 2.5000000e+00 2.5000000e+00 
0.0000000e+00 2.5000000e+00 2.3829999e+00 
0.0000000e+00 2.5000000e+00 2.6170001e+00 
1.2500000e+00 2.8000000e+00 2.6170001e+00 
1.2500000e+00 2.8000000e+00 2.3829999e+00 
0.0000000e+00 2.8000000e+00 2.3829999e+00 
0.0000000e+00 2.8000000e+00 2.6170001e+00 
7.5000000e-01 2.5000000e+00 2.8829999e+00 
1.2500000e+00 2.5000000e+00 2.8829999e+00 
1.2500000e+00 2.5000000e+00 3.1170001e+00 
7.5000000e-01 2.5000000e+00 3.1170001e+00 
7.5000000e-01 2.5000000e+00 3.0000000e+00 
0.0000000e+00 2.5000000e+00 2.8829999e+00 
0.0000000e+00 2.5000000e+00 3.1170001e+00 
1.2500000e+00 2.8000000e+00 3.1170001e+00 
1.2500000e+00 2.8000000e+00 2.8829999e+00 
0.0000000e+00 2.8000000e+00 2.8829999e+00 
0.0000000e+00 2.8000000e+00 3.1170001e+00 
7.5000000e-01 2.5000000e+00 3.3829999e+00 
1.2500000e+00 2.5000000e+00 3.3829999e+00 
1.2500000e+00 2.5000000e+00 3.6170001e+00 
7.5000000e-01 2.5000000e+00 3.6170001e+00 
7.5000000e-01 2.5000000e+00 3.5000000e+00 
0.0000000e+00 2.5000000e+00 3.3829999e+00 
0.0000000e+00 2.5000000e+00 3.6170001e+00 
1.2500000e+00 2.8000000e+00 3.6170001e+00 
1.2500000e+00 2.8000000e+00 3.3829999e+00 
0.0000000e+00 2.8000000e+00 3.3829999e+00 
0.0000000e+00 2.8000000e+00 3.6170001e+00 
7.5000000e-01 2.5000000e+00 3.8829999e+00 
1.2500000e+00 2.5000000e+00 3.8829999e+00 
1.2500000e+00 2.5000000e+00 4.1170001e+00 
7.5000000e-01 2.5000000e+00 4.1170001e+00 
7.5000000e-01 2.5000000e+00 4.0000000e+00 
0.0000000e+00 2.5000000e+00 3.8829999e+00 
0.0000000e+00 2.5000000e+00 4.1170001e+00 
1.2500000e+00 2.8000000e+00 4.1170001e+00 
1.2500000e+00 2.8000000e+00 3.8829999e+00 
0.0000000e+00 2.8000000e+00 3.8829999e+00 
0.0000000e+00 2.8000000e+00 4.1170001e+00 
7.5000000e-01 2.5000000e+00 4.3829999e+00 
1.2500000e+00 2.5000000e+00 4.3829999e+00 
1.2500000e+00 2.5000000e+00 4.6170001e+00 
7.5000000e-01 2.5000000e+00 4.6170001e+00 
7.5000000e-01 2.5000000e+00 4.5000000e+00 
0.0000000e+00 2.5000000e+00 4.3829999e+00 
0.0000000e+00 2.5000000e+00 4.6170001e+00 
1.2500000e+00 2.8000000e+00 4.6170001e+00 
1.2500000e+00 2.8000000e+00 4.3829999e+00 
0.0000000e+00 2.8000000e+00 4.3829999e+00 
0.0000000e+00 2.8000000e+00 4.6170001e+00 
7.5000000e-01 2.5000000e+00 4.8829999e+00 
1.2500000e+00 2.5000000e+00 4.8829999e+00 
1.2500000e+00 2.5000000e+00 5.1170001e+00 
7.5000000e-01 2.5000000e+00 5.1170001e+00 
7.5000000e-01 2.5000000e+00 5.0000000e+00 
0.0000000e+00 2.5000000e+00 4.8829999e+00 
0.0000000e+00 2.5000000e+00 5.1170001e+00 
1.2500000e+00 2.8000000e+00 5.1170001e+00 
1.2500000e+00 2.8000000e+00 4.8829999e+00 
0.0000000e+00 2.8000000e+00 4.8829999e+00 
0.0000000e+00 2.8000000e+00 5.1170001e+00 
7.5000000e-01 2.5000000e+00 5.3829999e+00 
1.2500000e+00 2.5000000e+00 5.3829999e+00 
1.2500000e+00 2.5000000e+00 5.6170001e+00 
7.5000000e-01 2.5000000e+00 5.6170001e+00 
7.5000000e-01 2.5000000e+00 5.5000000e+00 
0.0000000e+00 2.5000000e+00 5.3829999e+00 
0.0000000e+00 2.5000000e+00 5.6170001e+00 
1.2500000e+00 2.8000000e+00 5.6170001e+00 
1.2500000e+00 2.8000000e+00 5.3829999e+00 
0.0000000e+00 2.8000000e+00 5.3829999e+00 
0.0000000e+00 2.8000000e+00 5.6170001e+00 
7.5000000e-01 2.5000000e+00 5.8829999e+00 
1.2500000e+00 2.5000000e+00 5.8829999e+00 
1.2500000e+00 2.5000000e+00 6.1170001e+00 
7.5000000e-01 2.5000000e+00 6.1170001e+00 
7.5000000e-01 2.5000000e+00 6.0000000e+00 
0.0000000e+00 2.5000000e+00 5.8829999e+00 
0.0000000e+00 2.5000000e+00 6.1170001e+00 
1.2500000e+00 2.8000000e+00 6.1170001e+00 
1.2500000e+00 2.8000000e+00 5.8829999e+00 
0.0000000e+00 2.8000000e+00 5.8829999e+00 
0.0000000e+00 2.8000000e+00 6.1170001e+00 
7.5000000e-01 2.5000000e+00 6.3829999e+00 
1.2500000e+00 2.5000000e+00 6.3829999e+00 
1.2500000e+00 2.5000000e+00 6.6170001e+00 
7.5000000e-01 2.5000000e+00 6.6170001e+00 
7.5000000e-01 2.5000000e+00 6.5000000e+00 
0.0000000e+00 2.5000000e+00 6.3829999e+00 
0.0000000e+00 2.5000000e+00 6.6170001e+00 
1.2500000e+00 2.8000000e+00 6.6170001e+00 
1.2500000e+00 2.8000000e+00 6.3829999e+00 
0.0000000e+00 2.8000000e+00 6.3829999e+00 
0.0000000e+00 2.8000000e+00 6.6170001e+00 
7.5000000e-01 2.5000000e+00 6.8829999e+00 
1.2500000e+00 2.5000000e+00 6.8829999e+00 
1.2500000e+00 2.5000000e+00 7.1170001e+00 
7.5000000e-01 2.5000000e+00 7.1170001e+00 
7.5000000e-01 2.5000000e+00 7.0000000e+00 
0.0000000e+00 2.5000000e+00 6.8829999e+00 
0.0000000e+00 2.5000000e+00 7.1170001e+00 
1.2500000e+00 2.8000000e+00 7.1170001e+00 
1.2500000e+00 2.8000000e+00 6.8829999e+00 
0.0000000e+00 2.8000000e+00 6.8829999e+00 
0.0000000e+00 2.8000000e+00 7.1170001e+00 
7.5000000e-01 2.5000000e+00 7.3829999e+00 
1.2500000e+00 2.5000000e+00 7.3829999e+00 
1.2500000e+00 2.5000000e+00 7.6170001e+00 
7.5000000e-01 2.5000000e+00 7.6170001e+00 
7.5000000e-01 2.5000000e+00 7.5000000e+00 
0.0000000e+00 2.5000000e+00 7.3829999e+00 
0.0000000e+00 2.5000000e+00 7.6170001e+00 
1.2500000e+00 2.8000000e+00 7.6170001e+00 
1.2500000e+00 2.8000000e+00 7.3829999e+00 
0.0000000e+00 2.8000000e+00 7.3829999e+00 
0.0000000e+00 2.8000000e+00 7.6170001e+00 
7.5000000e-01 2.5000000e+00 7.8829999e+00 
1.2500000e+00 2.5000000e+00 7.8829999e+00 
1.2500000e+00 2.5000000e+00 8.1169996e+00 
7.5000000e-01 2.5000000e+00 8.1169996e+00 
7.5000000e-01 2.5000000e+00 8.0000000e+00 
0.0000000e+00 2.5000000e+00 7.8829999e+00 
0.0000000e+00 2.5000000e+00 8.1169996e+00 
1.2500000e+00 2.8000000e+00 8.1169996e+00 
1.2500000e+00 2.8000000e+00 7.8829999e+00 
0.0000000e+00 2.8000000e+00 7.8829999e+00 
0.0000000e+00 2.8000000e+00 8.1169996e+00 
7.5000000e-01 2.5000000e+00 8.3830004e+00 
1.2500000e+00 2.5000000e+00 8.3830004e+00 
1.2500000e+00 2.5000000e+00 8.6169996e+00 
7.5000000e-01 2.5000000e+00 8.6169996e+00 
7.5000000e-01 2.5000000e+00 8.5000000e+00 
0.0000000e+00 2.5000000e+00 8.3830004e+00 
0.0000000e+00 2.5000000e+00 8.6169996e+00 
1.2500000e+00 2.8000000e+00 8.6169996e+00 
1.2500000e+00 2.8000000e+00 8.3830004e+00 
0.0000000e+00 2.8000000e+00 8.3830004e+00 
0.0000000e+00 2.8000000e+00 8.6169996e+00 
7.5000000e-01 2.5000000e+00 8.8830004e+00 
1.2500000e+00 2.5000000e+00 8.8830004e+00 
1.2500000e+00 2.5000000e+00 9.1169996e+00 
7.5000000e-01 2.5000000e+00 9.1169996e+00 
7.5000000e-01 2.5000000e+00 9.0000000e+00 
0.0000000e+00 2.5000000e+00 8.8830004e+00 
0.0000000e+00 2.5000000e+00 9.1169996e+00 
1.2500000e+00 2.8000000e+00 9.1169996e+00 
1.2500000e+00 2.8000000e+00 8.8830004e+00 
0.0000000e+00 2.8000000e+00 8.8830004e+00 
0.0000000e+00 2.8000000e+00 9.1169996e+00 
7.5000000e-01 2.5000000e+00 9.3830004e+00 
1.2500000e+00 2.5000000e+00 9.3830004e+00 
1.2500000e+00 2.5000000e+00 9.6169996e+00 
7.5000000e-01 2.5000000e+00 9.6169996e+00 
7.5000000e-01 2.5000000e+00 9.5000000e+00 
0.0000000e+00 2.5000000e+00 9.3830004e+00 
0.0000000e+00 2.5000000e+00 9.6169996e+00 
1.2500000e+00 2.8000000e+00 9.6169996e+00 
1.2500000e+00 2.8000000e+00 9.3830004e+00 
0.0000000e+00 2.8000000e+00 9.3830004e+00 
0.0000000e+00 2.8000000e+00 9.6169996e+00 
7.5000000e-01 2.5000000e+00 9.8830004e+00 
1.2500000e+00 2.5000000e+00 9.8830004e+00 
1.2500000e+00 2.5000000e+00 1.0117000e+01 
[...]
POINT_DATA 1827
FIELD FieldData 2
DISPLACEMENT 3 1827  float
0.0000000e+00 0.0000000e+00 0.0000000e+00 
0.0000000e+00 0.0000000e+00 0.0000000e+00 
0.0000000e+00 0.0000000e+00 0.0000000e+00 
0.0000000e+00 0.0000000e+00 0.0000000e+00 
0.0000000e+00 1.3439269e-05 0.0000000e+00 
0.0000000e+00 2.2516812e-08 0.0000000e+00 
0.0000000e+00 3.2285949e-05 0.0000000e+00 
0.0000000e+00 3.4131585e-07 0.0000000e+00 
0.0000000e+00 6.4123888e-05 0.0000000e+00 
3.9562277e-08 6.4149841e-05 8.7742356e-09 
2.4228557e-09 6.3862681e-05 5.9344853e-09 
0.0000000e+00 6.3845560e-05 0.0000000e+00 
0.0000000e+00 6.3881118e-05 0.0000000e+00 
0.0000000e+00 6.3883766e-05 0.0000000e+00 
-2.7613330e-08 6.4096530e-05 -5.8113656e-09 
0.0000000e+00 6.4096384e-05 0.0000000e+00 
0.0000000e+00 6.3886269e-05 0.0000000e+00 
0.0000000e+00 6.3890191e-05 0.0000000e+00 
-1.0609027e-07 8.2419341e-05 4.9555322e-08 
-1.3166675e-07 8.2211671e-05 6.3022227e-09 
-1.0936058e-07 8.2294580e-05 2.6960796e-09 
-1.0031200e-07 8.2478567e-05 4.0361488e-08 
-9.8103236e-08 8.2458566e-05 4.3601940e-08 
0.0000000e+00 8.2503771e-05 0.0000000e+00 
0.0000000e+00 8.2531580e-05 0.0000000e+00 
1.0011072e-08 8.2301085e-05 -8.0343277e-08 
-9.2953227e-09 8.2231083e-05 -8.2952475e-08 
0.0000000e+00 8.2511731e-05 0.0000000e+00 
0.0000000e+00 8.2528481e-05 0.0000000e+00 
-1.2706532e-07 8.9437242e-05 -5.0900439e-07 
-1.2449712e-07 8.9350491e-05 -9.7382303e-07 
9.3506152e-08 8.9289737e-05 -1.0019435e-06 
5.3811537e-08 8.9387482e-05 -5.1464127e-07 
-3.3262292e-08 8.9418631e-05 -5.0865236e-07 
0.0000000e+00 8.9439825e-05 0.0000000e+00 
0.0000000e+00 8.9419183e-05 0.0000000e+00 
1.3375877e-07 8.9296656e-05 -8.9240905e-07 
-9.0032572e-08 8.9362722e-05 -8.9698085e-07 
0.0000000e+00 8.9442496e-05 0.0000000e+00 
0.0000000e+00 8.9410889e-05 0.0000000e+00 
-1.1436425e-07 7.8190758e-05 -4.2036257e-07 
-1.2852581e-07 7.7999000e-05 -9.3097213e-07 
1.1951317e-07 7.7748031e-05 -9.4796366e-07 
4.1594109e-08 7.8035235e-05 -4.1710211e-07 
-3.4354482e-08 7.8107631e-05 -4.1275035e-07 
0.0000000e+00 7.8287943e-05 0.0000000e+00 
0.0000000e+00 7.8214478e-05 0.0000000e+00 
2.1365352e-07 7.7787576e-05 -6.5441111e-07 
-8.1841112e-09 7.7987126e-05 -6.5374826e-07 
0.0000000e+00 7.8272016e-05 0.0000000e+00 
0.0000000e+00 7.8212586e-05 0.0000000e+00 
1.3929227e-07 3.5059529e-05 5.4650661e-07 
1.5890259e-07 3.5181343e-05 9.5590167e-07 
-5.5715535e-08 3.4786201e-05 9.5612438e-07 
-7.6681580e-08 3.4781151e-05 5.5463363e-07 
3.5800269e-08 3.4936573e-05 5.4787978e-07 
0.0000000e+00 3.4910732e-05 0.0000000e+00 
0.0000000e+00 3.4745724e-05 0.0000000e+00 
-1.0843292e-07 3.4834735e-05 1.3635319e-06 
1.1712178e-07 3.5146608e-05 1.3667334e-06 
0.0000000e+00 3.4881850e-05 0.0000000e+00 
0.0000000e+00 3.4805256e-05 0.0000000e+00 
-1.8221129e-07 -4.1515948e-05 -3.5921545e-07 
-2.1944875e-07 -4.2080221e-05 -6.7836754e-07 
-1.3634974e-07 -4.3132510e-05 -6.6161539e-07 
-1.4859485e-07 -4.2236788e-05 -3.3319714e-07 
-1.6516793e-07 -4.1890606e-05 -3.3460719e-07 
0.0000000e+00 -4.0987510e-05 0.0000000e+00 
0.0000000e+00 -4.1285501e-05 0.0000000e+00 
2.8234382e-07 -4.3019034e-05 4.5760564e-07 
1.9909126e-07 -4.2170424e-05 4.7067789e-07 
0.0000000e+00 -4.1110357e-05 0.0000000e+00 
0.0000000e+00 -4.1289761e-05 0.0000000e+00 
1.3578237e-07 -1.6077246e-04 -6.7534603e-07 
2.3554850e-07 -1.5999429e-04 -8.8471802e-07 
2.6642536e-07 -1.6141064e-04 -7.9118769e-07 
1.8347886e-07 -1.6158554e-04 -6.4204266e-07 
1.4960891e-07 -1.6121232e-04 -6.4017649e-07 
0.0000000e+00 -1.6103096e-04 0.0000000e+00 
0.0000000e+00 -1.6137882e-04 0.0000000e+00 
-4.1135255e-08 -1.6129378e-04 5.3303472e-07 
-4.9182287e-08 -1.6023943e-04 5.4633466e-07 
0.0000000e+00 -1.6109570e-04 0.0000000e+00 
0.0000000e+00 -1.6138059e-04 0.0000000e+00 
6.0659806e-07 -3.0012996e-04 -7.5032330e-07 
7.9912388e-07 -2.9671617e-04 -1.5184685e-06 
1.0347768e-06 -2.9795818e-04 -1.4194544e-06 
7.7807084e-07 -3.0081888e-04 -6.8559712e-07 
6.5286019e-07 -3.0053288e-04 -6.9541062e-07 
0.0000000e+00 -3.0173318e-04 0.0000000e+00 
0.0000000e+00 -3.0202753e-04 0.0000000e+00 
-7.3752926e-07 -2.9802814e-04 -2.1776886e-07 
-1.0076632e-06 -2.9710718e-04 -2.0358534e-07 
0.0000000e+00 -3.0165646e-04 0.0000000e+00 
0.0000000e+00 -3.0188405e-04 0.0000000e+00 
4.7387189e-07 -3.7714292e-04 8.5212442e-08 
6.3090846e-07 -3.7478772e-04 2.3632320e-07 
5.7549835e-07 -3.7487864e-04 2.9282489e-07 
4.2565696e-07 -3.7713724e-04 1.4933259e-07 
4.1881498e-07 -3.7720473e-04 1.1615542e-07 
0.0000000e+00 -3.7797005e-04 0.0000000e+00 
0.0000000e+00 -3.7796955e-04 0.0000000e+00 
-7.3247008e-07 -3.7503825e-04 2.9391393e-07 
-6.4963245e-07 -3.7501796e-04 2.9431203e-07 
0.0000000e+00 -3.7792744e-04 0.0000000e+00 
0.0000000e+00 -3.7793053e-04 0.0000000e+00 
1.5186812e-07 -3.0931234e-04 -1.3253530e-06 
1.9503406e-07 -3.0743430e-04 -2.6012542e-06 
8.6413786e-07 -3.0674628e-04 -2.5426498e-06 
6.9439807e-07 -3.0890806e-04 -1.2980033e-06 
4.0236174e-07 -3.0916827e-04 -1.3043898e-06 
0.0000000e+00 -3.1035035e-04 0.0000000e+00 
0.0000000e+00 -3.1017934e-04 0.0000000e+00 
-3.0136465e-07 -3.0698054e-04 -3.2008084e-06 
-9.4690557e-07 -3.0746820e-04 -3.1937777e-06 
0.0000000e+00 -3.1021392e-04 0.0000000e+00 
0.0000000e+00 -3.1013851e-04 0.0000000e+00 
2.1876974e-07 -1.9070000e-04 4.2325701e-07 
2.8061385e-07 -1.8984008e-04 4.1187019e-07 
4.0812930e-07 -1.8851159e-04 4.1134302e-07 
2.5286226e-07 -1.8989554e-04 4.2293587e-07 
2.2352509e-07 -1.9029909e-04 4.0752340e-07 
0.0000000e+00 -1.9085690e-04 0.0000000e+00 
0.0000000e+00 -1.9052267e-04 0.0000000e+00 
-2.5631135e-07 -1.8875321e-04 -8.9823402e-07 
-3.3190631e-07 -1.8976739e-04 -8.9756247e-07 
0.0000000e+00 -1.9077222e-04 0.0000000e+00 
0.0000000e+00 -1.9050918e-04 0.0000000e+00 
1.8455152e-07 -7.7673161e-05 -1.2856754e-07 
2.6907415e-07 -7.6905832e-05 -3.6590154e-07 
4.3098063e-07 -7.6079756e-05 -3.6502806e-07 
3.1614488e-07 -7.7200646e-05 -1.3864357e-07 
2.4076004e-07 -7.7441866e-05 -1.4534839e-07 
0.0000000e+00 -7.8096018e-05 0.0000000e+00 
0.0000000e+00 -7.7884608e-05 0.0000000e+00 
-1.3189064e-07 -7.6244563e-05 -1.1576308e-06 
-2.9639799e-07 -7.6843622e-05 -1.1634877e-06 
0.0000000e+00 -7.8005854e-05 0.0000000e+00 
0.0000000e+00 -7.7889927e-05 0.0000000e+00 
5.6474601e-08 -4.0657692e-06 5.1798821e-07 
9.7536883e-08 -4.1170242e-06 9.6431188e-07 
-8.3533351e-08 -3.6471836e-06 9.8210603e-07 
-9.0824557e-08 -3.7524160e-06 5.3174602e-07 
-2.0977305e-08 -3.9168317e-06 5.1555065e-07 
0.0000000e+00 -3.7829357e-06 0.0000000e+00 
0.0000000e+00 -3.6624035e-06 0.0000000e+00 
-9.7225040e-08 -3.7129794e-06 4.6320662e-07 
8.5621572e-08 -4.0934251e-06 4.6696206e-07 
0.0000000e+00 -3.7617053e-06 0.0000000e+00 
0.0000000e+00 -3.6642641e-06 0.0000000e+00 
1.0406991e-09 2.3708495e-05 2.2015897e-07 
2.5363988e-08 2.3662540e-05 5.3500088e-07 
-1.2082064e-07 2.3777129e-05 5.4975499e-07 
-9.3067456e-08 2.3782002e-05 2.2531151e-07 
-4.6382848e-08 2.3746354e-05 2.1985920e-07 
0.0000000e+00 2.3837318e-05 0.0000000e+00 
0.0000000e+00 2.3863302e-05 0.0000000e+00 
-9.0418439e-08 2.3759745e-05 4.0431416e-07 
4.5419050e-08 2.3667935e-05 4.0661288e-07 
0.0000000e+00 2.3841152e-05 0.0000000e+00 
0.0000000e+00 2.3866934e-05 0.0000000e+00 
-2.6971131e-08 2.1269727e-05 1.8855025e-07 
-2.2115259e-08 2.1088366e-05 4.4074346e-07 
-1.5234562e-07 2.1012278e-05 4.3236724e-07 
-1.1367128e-07 2.1218628e-05 1.8411852e-07 
-6.7113824e-08 2.1250058e-05 1.8642822e-07 
0.0000000e+00 2.1339325e-05 0.0000000e+00 
0.0000000e+00 2.1319927e-05 0.0000000e+00 
-3.1589138e-08 2.1035969e-05 5.0109816e-07 
8.6693824e-08 2.1093199e-05 5.0046202e-07 
0.0000000e+00 2.1330101e-05 0.0000000e+00 
0.0000000e+00 2.1322863e-05 0.0000000e+00 
-4.3409649e-08 1.0553236e-05 -4.3084373e-08 
-5.0230515e-08 1.0432078e-05 -9.6814098e-08 
-3.9505935e-08 1.0358996e-05 -9.6314274e-08 
-2.8779688e-08 1.0511898e-05 -4.9898802e-08 
-3.2437022e-08 1.0538688e-05 -4.5452232e-08 
0.0000000e+00 1.0537654e-05 0.0000000e+00 
0.0000000e+00 1.0517127e-05 0.0000000e+00 
3.9624918e-08 1.0380949e-05 -2.3715064e-08 
2.1336852e-08 1.0435022e-05 -2.3469934e-08 
0.0000000e+00 1.0531448e-05 0.0000000e+00 
0.0000000e+00 1.0517941e-05 0.0000000e+00 
-4.5056673e-08 5.6210401e-06 -2.3995710e-07 
-6.3416465e-08 5.6485283e-06 -4.7934634e-07 
4.0754891e-08 5.6231006e-06 -4.7696511e-07 
4.1330598e-08 5.5937148e-06 -2.4321798e-07 
-4.5250187e-10 5.6092504e-06 -2.3902663e-07 
0.0000000e+00 5.5092432e-06 0.0000000e+00 
0.0000000e+00 5.4988809e-06 0.0000000e+00 
3.0020875e-08 5.6227782e-06 -4.3224054e-07 
-8.0963467e-08 5.6555209e-06 -4.3328339e-07 
0.0000000e+00 5.5163337e-06 0.0000000e+00 
0.0000000e+00 5.4998841e-06 0.0000000e+00 
3.2318262e-08 6.6030202e-06 -1.7906753e-08 
3.8723705e-08 6.7911137e-06 -5.1460766e-08 
6.1073145e-08 6.8067525e-06 -4.5645493e-08 
4.2597403e-08 6.6095122e-06 -1.4587739e-08 
3.5861440e-08 6.6031221e-06 -1.6148796e-08 
0.0000000e+00 6.4947876e-06 0.0000000e+00 
0.0000000e+00 6.4964270e-06 0.0000000e+00 
-5.2896425e-08 6.7919973e-06 -5.9906640e-08 
-6.8364905e-08 6.7820847e-06 -5.9475322e-08 
0.0000000e+00 6.5002596e-06 0.0000000e+00 
0.0000000e+00 6.5040417e-06 0.0000000e+00 
6.8106928e-08 6.7341557e-06 2.2484241e-07 
9.3287909e-08 6.8208965e-06 4.4760171e-07 
-5.9840484e-09 6.8297886e-06 4.5301132e-07 
-1.6518554e-08 6.7466699e-06 2.2688600e-07 
2.5144391e-08 6.7374858e-06 2.2354034e-07 
0.0000000e+00 6.7160777e-06 0.0000000e+00 
0.0000000e+00 6.7234146e-06 0.0000000e+00 
-6.4811637e-08 6.8260697e-06 4.2479147e-07 
4.1049205e-08 6.8103200e-06 4.2729297e-07 
0.0000000e+00 6.7179521e-06 0.0000000e+00 
0.0000000e+00 6.7262963e-06 0.0000000e+00 
4.9555176e-08 3.5249734e-06 3.5034705e-07 
6.8738558e-08 3.4733077e-06 7.5035223e-07 
-1.2374203e-07 3.4806342e-06 7.4889806e-07 
-8.9012644e-08 3.5330947e-06 3.4940146e-07 
-1.8980385e-08 3.5289233e-06 3.4653860e-07 
0.0000000e+00 3.5674257e-06 0.0000000e+00 
0.0000000e+00 3.5734311e-06 0.0000000e+00 
-8.7740624e-08 3.4883515e-06 7.1639994e-07 
9.7977740e-08 3.4725845e-06 7.1670462e-07 
0.0000000e+00 3.5643432e-06 0.0000000e+00 
0.0000000e+00 3.5771043e-06 0.0000000e+00 
2.6863145e-08 -6.6994812e-07 -9.3012016e-09 
2.8139016e-08 -5.6065738e-07 1.6252763e-08 
1.7272225e-08 -5.8166177e-07 6.6878738e-09 
2.1646724e-08 -6.8881712e-07 -1.2427717e-08 
2.3980176e-08 -6.7808980e-07 -1.0781157e-08 
0.0000000e+00 -7.8757091e-07 0.0000000e+00 
0.0000000e+00 -7.9369471e-07 0.0000000e+00 
-4.3198952e-08 -5.8092212e-07 3.6522181e-08 
-3.3746492e-08 -5.6038590e-07 3.4023842e-08 
0.0000000e+00 -7.8132763e-07 0.0000000e+00 
0.0000000e+00 -7.8557031e-07 0.0000000e+00 
9.6139381e-09 -2.7992694e-06 -1.6363556e-07 
7.3138988e-09 -2.6913419e-06 -3.1547879e-07 
7.9042337e-08 -2.7351543e-06 -3.1773084e-07 
6.5269333e-08 -2.8295246e-06 -1.6506512e-07 
3.7285961e-08 -2.8149716e-06 -1.6257430e-07 
0.0000000e+00 -2.9039120e-06 0.0000000e+00 
0.0000000e+00 -2.9152636e-06 0.0000000e+00 
1.6149732e-08 -2.7346273e-06 -2.6309689e-07 
-5.2916700e-08 -2.6959819e-06 -2.6419312e-07 
0.0000000e+00 -2.9008745e-06 0.0000000e+00 
0.0000000e+00 -2.9162750e-06 0.0000000e+00 
-1.5215900e-08 -2.9789730e-06 -2.8417284e-07 
-1.3599109e-08 -2.8616967e-06 -5.8557009e-07 
1.2422413e-07 -2.9250493e-06 -5.7042638e-07 
8.7906912e-08 -3.0184442e-06 -2.8268644e-07 
3.5310688e-08 -3.0012206e-06 -2.8077835e-07 
0.0000000e+00 -3.0552744e-06 0.0000000e+00 
0.0000000e+00 -3.0709705e-06 0.0000000e+00 
5.4390107e-08 -2.9288590e-06 -4.9983441e-07 
-7.8630045e-08 -2.8753893e-06 -4.9722718e-07 
0.0000000e+00 -3.0553144e-06 0.0000000e+00 
0.0000000e+00 -3.0737156e-06 0.0000000e+00 
-1.0130283e-09 -2.4756935e-06 6.2656120e-08 
3.1203817e-09 -2.5565221e-06 1.0335589e-07 
-1.5963687e-08 -2.5440220e-06 1.0214563e-07 
-1.9326983e-08 -2.4648634e-06 6.2780039e-08 
-1.0024312e-08 -2.4702031e-06 6.2011985e-08 
0.0000000e+00 -2.4010264e-06 0.0000000e+00 
0.0000000e+00 -2.3970617e-06 0.0000000e+00 
2.6160579e-08 -2.5427953e-06 8.7201379e-08 
4.5466166e-08 -2.5553018e-06 8.7844917e-08 
0.0000000e+00 -2.4066444e-06 0.0000000e+00 
0.0000000e+00 -2.4012484e-06 0.0000000e+00 
-1.0717090e-08 -1.0413663e-06 6.8832726e-08 
-1.3295184e-08 -1.1167050e-06 1.0852239e-07 
-3.4252988e-08 -1.0875629e-06 1.0884890e-07 
-2.8496661e-08 -1.0218162e-06 6.7715412e-08 
-1.8938216e-08 -1.0309793e-06 6.7363182e-08 
0.0000000e+00 -9.7607676e-07 0.0000000e+00 
0.0000000e+00 -9.7054851e-07 0.0000000e+00 
9.2808135e-09 -1.0880608e-06 7.7466595e-08 
2.7585685e-08 -1.1123453e-06 7.7518436e-08 
0.0000000e+00 -9.7993416e-07 0.0000000e+00 
0.0000000e+00 -9.7257589e-07 0.0000000e+00 
1.2288198e-08 1.1124306e-06 1.0058616e-07 
3.4177119e-09 1.0920267e-06 2.0463220e-07 
-3.7368917e-08 1.1332196e-06 2.0099463e-07 
-2.2142995e-08 1.1393130e-06 9.8723632e-08 
-4.9567901e-09 1.1264932e-06 9.8453384e-08 
0.0000000e+00 1.1269416e-06 0.0000000e+00 
0.0000000e+00 1.1401424e-06 0.0000000e+00 
-2.6372923e-08 1.1322701e-06 1.5558570e-07 
1.9436156e-08 1.0981165e-06 1.5432886e-07 
0.0000000e+00 1.1295896e-06 0.0000000e+00 
0.0000000e+00 1.1394662e-06 0.0000000e+00 
-1.7683890e-08 2.5680356e-06 -4.9922832e-08 
-1.9976575e-08 2.5387599e-06 -7.3413560e-08 
-6.2545631e-09 2.5304184e-06 -7.2578786e-08 
-5.1557243e-09 2.5595434e-06 -4.8207244e-08 
-1.1576257e-08 2.5622601e-06 -4.8487156e-08 
0.0000000e+00 2.5968811e-06 0.0000000e+00 
0.0000000e+00 2.5931627e-06 0.0000000e+00 
1.0640580e-08 2.5301763e-06 -6.2014713e-08 
-1.7978078e-09 2.5398876e-06 -6.1682506e-08 
0.0000000e+00 2.5967690e-06 0.0000000e+00 
0.0000000e+00 2.5931931e-06 0.0000000e+00 
-4.6908459e-09 1.3248169e-06 -5.2250066e-08 
-5.9891523e-09 1.3613104e-06 -9.3507587e-08 
1.0321425e-08 1.3302024e-06 -9.2821061e-08 
1.0140927e-08 1.3035173e-06 -5.1356871e-08 
2.2747881e-09 1.3138307e-06 -5.1090755e-08 
0.0000000e+00 1.3003839e-06 0.0000000e+00 
0.0000000e+00 1.2907947e-06 0.0000000e+00 
-5.2050284e-09 1.3312604e-06 -5.8614994e-08 
-2.3310440e-08 1.3572137e-06 -5.8751695e-08 
0.0000000e+00 1.3003086e-06 0.0000000e+00 
0.0000000e+00 1.2929142e-06 0.0000000e+00 
2.8777940e-09 -9.2899785e-07 -5.2712036e-08 
6.2223487e-10 -8.8609983e-07 -1.1031241e-07 
2.7652330e-08 -9.1074202e-07 -1.1354408e-07 
2.1986283e-08 -9.4522420e-07 -5.4583591e-08 
1.2490843e-08 -9.3598499e-07 -5.2846353e-08 
0.0000000e+00 -9.8722433e-07 0.0000000e+00 
0.0000000e+00 -9.9371243e-07 0.0000000e+00 
2.8487885e-09 -9.0787211e-07 -8.2969265e-08 
-2.2441593e-08 -8.8753723e-07 -8.3869622e-08 
0.0000000e+00 -9.8580676e-07 0.0000000e+00 
0.0000000e+00 -9.9247882e-07 0.0000000e+00 
9.4288044e-09 -1.6184272e-06 -2.8305955e-08 
1.0807030e-08 -1.5849328e-06 -6.1344060e-08 
2.6470595e-08 -1.5877733e-06 -6.2045800e-08 
2.0725686e-08 -1.6203679e-06 -2.8941477e-08 
1.4845966e-08 -1.6194563e-06 -2.8327399e-08 
0.0000000e+00 -1.6566913e-06 0.0000000e+00 
0.0000000e+00 -1.6564965e-06 0.0000000e+00 
4.5235744e-09 -1.5883834e-06 -5.6919067e-08 
-1.0478908e-08 -1.5855920e-06 -5.7052528e-08 
0.0000000e+00 -1.6550142e-06 0.0000000e+00 
0.0000000e+00 -1.6566958e-06 0.0000000e+00 
3.6204377e-09 -8.3680089e-07 1.4431495e-08 
5.4395661e-09 -8.3769578e-07 3.1932167e-08 
-5.4228968e-09 -8.2758601e-07 3.5000962e-08 
-2.0877879e-09 -8.3045381e-07 1.4608848e-08 
7.0084238e-10 -8.3397640e-07 1.4283656e-08 
0.0000000e+00 -8.3366399e-07 0.0000000e+00 
0.0000000e+00 -8.3098735e-07 0.0000000e+00 
-3.7905576e-09 -8.2947810e-07 2.1919469e-08 
4.0752846e-09 -8.3737086e-07 2.2331463e-08 
0.0000000e+00 -8.3426323e-07 0.0000000e+00 
0.0000000e+00 -8.3185722e-07 0.0000000e+00 
-1.0082212e-08 3.2359995e-07 5.2322489e-09 
-1.3218507e-08 2.9366839e-07 1.3149101e-08 
-1.6579017e-08 3.0250030e-07 1.3888211e-08 
-1.1919278e-08 3.2848331e-07 5.7224181e-09 
-1.0866363e-08 3.2588954e-07 5.3648437e-09 
0.0000000e+00 3.5037843e-07 0.0000000e+00 
0.0000000e+00 3.5193557e-07 0.0000000e+00 
1.8308879e-09 3.0202628e-07 4.4966826e-09 
4.7480038e-09 2.9560576e-07 4.5601323e-09 
0.0000000e+00 3.4973661e-07 0.0000000e+00 
0.0000000e+00 3.5160463e-07 0.0000000e+00 
-6.1299770e-09 8.2872299e-07 1.6160884e-08 
-9.3259747e-09 8.1104588e-07 3.3269295e-08 
-1.5799111e-08 8.0961229e-07 3.3324490e-08 
-1.2514665e-08 8.2756992e-07 1.6628039e-08 
-9.3132906e-09 8.2806667e-07 1.6306226e-08 
0.0000000e+00 8.4656835e-07 0.0000000e+00 
0.0000000e+00 8.4603619e-07 0.0000000e+00 
-4.3547117e-09 8.1035728e-07 3.4178253e-08 
3.7161485e-09 8.1123642e-07 3.4172789e-08 
0.0000000e+00 8.4611145e-07 0.0000000e+00 
0.0000000e+00 8.4661548e-07 0.0000000e+00 
2.7774540e-09 4.0496988e-07 -1.9826871e-09 
3.0195799e-09 4.1493595e-07 -6.4315642e-09 
5.3167106e-09 4.0975456e-07 -6.6268981e-09 
3.5785936e-09 4.0162905e-07 -2.1389281e-09 
3.1125191e-09 4.0341385e-07 -2.0033479e-09 
0.0000000e+00 3.9788833e-07 0.0000000e+00 
0.0000000e+00 3.9620625e-07 0.0000000e+00 
-6.1221045e-10 4.1016671e-07 -8.5047941e-10 
-2.1685613e-09 4.1416891e-07 -9.1489283e-10 
0.0000000e+00 3.9785786e-07 0.0000000e+00 
0.0000000e+00 3.9698600e-07 0.0000000e+00 
-1.7226032e-09 -2.4356470e-07 -3.2287819e-08 
-2.0739688e-09 -2.3338080e-07 -6.8069298e-08 
1.3377435e-08 -2.4265199e-07 -6.8147990e-08 
1.0109091e-08 -2.4950717e-07 -3.2542168e-08 
4.1614729e-09 -2.4642520e-07 -3.1998866e-08 
0.0000000e+00 -2.5631431e-07 0.0000000e+00 
0.0000000e+00 -2.5898242e-07 0.0000000e+00 
7.7967020e-09 -2.4202546e-07 -5.6621364e-08 
-8.2702778e-09 -2.3409225e-07 -5.6699871e-08 
0.0000000e+00 -2.5627966e-07 0.0000000e+00 
0.0000000e+00 -2.5920835e-07 0.0000000e+00 
3.8496012e-11 -4.7622709e-07 -1.1586732e-08 
-7.8146745e-10 -4.6869451e-07 -2.5316005e-08 
5.4634710e-09 -4.7032285e-07 -2.5326534e-08 
4.7421991e-09 -4.7735483e-07 -1.1811546e-08 
2.4211102e-09 -4.7673953e-07 -1.1581709e-08 
0.0000000e+00 -4.8626174e-07 0.0000000e+00 
0.0000000e+00 -4.8663475e-07 0.0000000e+00 
1.1385466e-09 -4.7032574e-07 -2.2911939e-08 
-5.0348423e-09 -4.6883821e-07 -2.3000478e-08 
0.0000000e+00 -4.8588430e-07 0.0000000e+00 
0.0000000e+00 -4.8665174e-07 0.0000000e+00 
-9.3703678e-10 -2.3198896e-07 -1.2806598e-08 
-1.7406396e-09 -2.2347469e-07 -2.8567968e-08 
5.4669198e-09 -2.2325963e-07 -2.7947836e-08 
4.4290429e-09 -2.3140446e-07 -1.2855645e-08 
1.7188503e-09 -2.3172872e-07 -1.2772378e-08 
0.0000000e+00 -2.3838548e-07 0.0000000e+00 
0.0000000e+00 -2.3815350e-07 0.0000000e+00 
8.0396112e-10 -2.2371397e-07 -2.8006891e-08 
-6.2709136e-09 -2.2396382e-07 -2.8006626e-08 
0.0000000e+00 -2.3785110e-07 0.0000000e+00 
0.0000000e+00 -2.3815812e-07 0.0000000e+00 
-1.6188059e-09 1.0937254e-07 -3.8215258e-09 
-1.7044851e-09 1.0688669e-07 -9.2549772e-09 
1.2224820e-09 1.0876338e-07 -9.1722487e-09 
2.7061095e-10 1.1030363e-07 -3.6054815e-09 
-7.3045658e-10 1.0969483e-07 -3.6938435e-09 
0.0000000e+00 1.1394623e-07 0.0000000e+00 
0.0000000e+00 1.1429658e-07 0.0000000e+00 
2.1375377e-09 1.0824562e-07 -1.0637198e-08 
-4.8977095e-10 1.0699770e-07 -1.0594488e-08 
0.0000000e+00 1.1388216e-07 0.0000000e+00 
0.0000000e+00 1.1415764e-07 0.0000000e+00 
2.4493529e-09 1.7629699e-07 9.7207504e-09 
3.3367424e-09 1.7952233e-07 1.9651978e-08 
-1.2156304e-09 1.8008888e-07 2.0005443e-08 
-1.2782679e-09 1.7659541e-07 9.8307416e-09 
5.3986787e-10 1.7631379e-07 9.6779127e-09 
0.0000000e+00 1.7662975e-07 0.0000000e+00 
0.0000000e+00 1.7679241e-07 0.0000000e+00 
-3.2343725e-09 1.7975320e-07 1.8801217e-08 
1.4448740e-09 1.7918940e-07 1.8906334e-08 
0.0000000e+00 1.7664573e-07 0.0000000e+00 
0.0000000e+00 1.7695993e-07 0.0000000e+00 
3.6823550e-10 -5.8418248e-09 2.3858957e-09 
2.9531924e-10 -5.3544600e-09 5.3607203e-09 
-1.1855062e-09 -6.4692736e-09 5.2316036e-09 
-7.4543638e-10 -6.5759398e-09 2.3104381e-09 
-1.4227913e-10 -6.1159748e-09 2.3336588e-09 
0.0000000e+00 -7.6212423e-09 0.0000000e+00 
0.0000000e+00 -8.0012352e-09 0.0000000e+00 
-1.2575611e-09 -6.1963736e-09 6.3144232e-09 
1.7370738e-10 -5.3474465e-09 6.2831713e-09 
0.0000000e+00 -7.6334050e-09 0.0000000e+00 
0.0000000e+00 -7.8413427e-09 0.0000000e+00 
0.0000000e+00 5.4348886e-05 0.0000000e+00 
0.0000000e+00 -8.9264105e-08 0.0000000e+00 
9.2571374e-11 -1.1206897e-07 8.8388789e-11 
-4.1983524e-11 -1.1192575e-07 5.0592083e-12 