# vtk DataFile Version 4.0
vtk output
ASCII
DATASET UNSTRUCTURED_GRID
POINTS 1827 float
0.0000000e+00 0.0000000e+00 0.0000000e+00 
0.0000000e+00 0.0000000e+00 2.0000000e+01 
3.4700000e+00 0.0000000e+00 0.0000000e+00 
3.4700000e+00 0.0000000e+00 2.0000000e+01 
3.4700000e+00 1.0000000e+00 0.0000000e+00 
3.4700000e+00 1.0000000e+00 2.0000000e+01 
0.0000000e+00 1.0000000e+00 0.0000000e+00 
0.0000000e+00 1.0000000e+00 2.0000000e+01 
1.2500000e+00 2.5000000e+00 0.0000000e+00 
1.2500000e+00 2.5000000e+00 1.1700000e-01 
7.5000000e-01 2.5000000e+00 1.1700000e-01 
7.5000000e-01 2.5000000e+00 0.0000000e+00 
0.0000000e+00 2.5000000e+00 0.0000000e+00 
0.0000000e+00 2.5000000e+00 1.1700000e-01 
1.2500000e+00 2.8000000e+00 1.1700000e-01 
1.2500000e+00 2.8000000e+00 0.0000000e+00 
0.0000000e+00 2.8000000e+00 0.0000000e+00 
0.0000000e+00 2.8000000e+00 1.1700000e-01 
7.5000000e-01 2.5000000e+00 3.8299999e-01 
1.2500000e+00 2.5000000e+00 3.8299999e-01 
1.2500000e+00 2.5000000e+00 6.1699998e-01 
7.5000000e-01 2.5000000e+00 6.1699998e-01 
7.5000000e-01 2.5000000e+00 5.0000000e-01 
0.0000000e+00 2.5000000e+00 3.8299999e-01 
0.0000000e+00 2.5000000e+00 6.1699998e-01 
1.2500000e+00 2.8000000e+00 6.1699998e-01 
1.2500000e+00 2.8000000e+00 3.8299999e-01 
0.0000000e+00 2.8000000e+00 3.8299999e-01 
0.0000000e+00 2.8000000e+00 6.1699998e-01 
7.5000000e-01 2.5000000e+00 8.8300002e-01 
1.2500000e+00 2.5000000e+00 8.8300002e-01 
1.2500000e+00 2.5000000e+00 1.1170000e+00 
7.5000000e-01 2.5000000e+00 1.1170000e+00 
7.5000000e-01 2.5000000e+00 1.0000000e+00 
0.0000000e+00 2.5000000e+00 8.8300002e-01 
0.0000000e+00 2.5000000e+00 1.1170000e+00 
1.2500000e+00 2.8000000e+00 1.1170000e+00 
1.2500000e+00 2.8000000e+00 8.8300002e-01 
0.0000000e+00 2.8000000e+00 8.8300002e-01 
0.0000000e+00 2.8000000e+00 1.1170000e+00 
7.5000000e-01 2.5000000e+00 1.3830000e+00 
1.2500000e+00 2.5000000e+00 1.3830000e+00 
1.2500000e+00 2.5000000e+00 1.6170000e+00 
7.5000000e-01 2.5000000e+00 1.6170000e+00 
7.5000000e-01 2.5000000e+00 1.5000000e+00 
0.0000000e+00 2.5000000e+00 1.3830000e+00 
0.0000000e+00 2.5000000e+00 1.6170000e+00 
1.2500000e+00 2.8000000e+00 1.6170000e+00 
1.2500000e+00 2.8000000e+00 1.3830000e+00 
0.0000000e+00 2.8000000e+00 1.3830000e+00 
0.0000000e+00 2.8000000e+00 1.6170000e+00 
7.5000000e-01 2.5000000e+00 1.8830000e+00 
1.2500000e+00 2.5000000e+00 1.8830000e+00 
1.2500000e+00 2.5000000e+00 2.1170001e+00 
7.5000000e-01 2.5000000e+00 2.1170001e+00 
7.5000000e-01 2.5000000e+00 2.0000000e+00 
0.0000000e+00 2.5000000e+00 1.8830000e+00 
0.0000000e+00 2.5000000e+00 2.1170001e+00 
1.2500000e+00 2.8000000e+00 2.1170001e+00 
1.2500000e+00 2.8000000e+00 1.8830000e+00 
0.0000000e+00 2.8000000e+00 1.8830000e+00 
0.0000000e+00 2.8000000e+00 2.1170001e+00 
7.5000000e-01 2.5000000e+00 2.3829999e+00 
1.2500000e+00 2.5000000e+00 2.3829999e+00 
1.2500000e+00 2.5000000e+00 2.6170001e+00 
7.5000000e-01 2.5000000e+00 2.6170001e+00 
7.5000000e-01 2.5000000e+00 2.5000000e+00 
0.0000000e+00 2.5000000e+00 2.3829999e+00 
0.0000000e+00 2.5000000e+00 2.6170001e+00 
1.2500000e+00 2.8000000e+00 2.6170001e+00 
1.2500000e+00 2.8000000e+00 2.3829999e+00 
0.0000000e+00 2.8000000e+00 2.3829999e+00 
0.0000000e+00 2.8000000e+00 2.6170001e+00 
7.5000000e-01 2.5000000e+00 2.8829999e+00 
1.2500000e+00 2.5000000e+00 2.8829999e+00 
1.2500000e+00 2.5000000e+00 3.1170001e+00 
7.5000000e-01 2.5000000e+00 3.1170001e+00 
7.5000000e-01 2.5000000e+00 3.0000000e+00 
0.0000000e+00 2.5000000e+00 2.8829999e+00 
0.0000000e+00 2.5000000e+00 3.1170001e+00 
1.2500000e+00 2.8000000e+00 3.1170001e+00 
1.2500000e+00 2.8000000e+00 2.8829999e+00 
0.0000000e+00 2.8000000e+00 2.8829999e+00 
0.0000000e+00 2.8000000e+00 3.1170001e+00 
7.5000000e-01 2.5000000e+00 3.3829999e+00 
1.2500000e+00 2.5000000e+00 3.3829999e+00 
1.2500000e+00 2.5000000e+00 3.6170001e+00 
7.5000000e-01 2.5000000e+00 3.6170001e+00 
7.5000000e-01 2.5000000e+00 3.5000000e+00 
0.0000000e+00 2.5000000e+00 3.3829999e+00 
0.0000000e+00 2.5000000e+00 3.6170001e+00 
1.2500000e+00 2.8000000e+00 3.6170001e+00 
1.2500000e+00 2.8000000e+00 3.3829999e+00 
0.0000000e+00 2.8000000e+00 3.3829999e+00 
0.0000000e+00 2.8000000e+00 3.6170001e+00 
7.5000000e-01 2.5000000e+00 3.8829999e+00 
1.2500000e+00 2.5000000e+00 3.8829999e+00 
1.2500000e+00 2.5000000e+00 4.1170001e+00 
7.5000000e-01 2.5000000e+00 4.1170001e+00 
7.5000000e-01 2.5000000e+00 4.0000000e+00 
0.0000000e+00 2.5000000e+00 3.8829999e+00 
0.0000000e+00 2.5000000e+00 4.1170001e+00 
1.2500000e+00 2.8000000e+00 4.1170001e+00 
1.2500000e+00 2.8000000e+00 3.8829999e+00 
0.0000000e+00 2.8000000e+00 3.8829999e+00 
0.0000000e+00 2.8000000e+00 4.1170001e+00 
7.5000000e-01 2.5000000e+00 4.3829999e+00 
1.2500000e+00 2.5000000e+00 4.3829999e+00 
1.2500000e+00 2.5000000e+00 4.6170001e+00 
7.5000000e-01 2.5000000e+00 4.6170001e+00 
7.5000000e-01 2.5000000e+00 4.5000000e+00 
0.0000000e+00 2.5000000e+00 4.3829999e+00 
0.0000000e+00 2.5000000e+00 4.6170001e+00 
1.2500000e+00 2.8000000e+00 4.6170001e+00 
1.2500000e+00 2.8000000e+00 4.3829999e+00 
0.0000000e+00 2.8000000e+00 4.3829999e+00 
0.0000000e+00 2.8000000e+00 4.6170001e+00 
7.5000000e-01 2.5000000e+00 4.8829999e+00 
1.2500000e+00 2.5000000e+00 4.8829999e+00 
1.2500000e+00 2.5000000e+00 5.1170001e+00 
7.5000000e-01 2.5000000e+00 5.1170001e+00 
7.5000000e-01 2.5000000e+00 5.0000000e+00 
0.0000000e+00 2.5000000e+00 4.8829999e+00 
0.0000000e+00 2.5000000e+00 5.1170001e+00 
1.2500000e+00 2.8000000e+00 5.1170001e+00 
1.2500000e+00 2.8000000e+00 4.8829999e+00 
0.0000000e+00 2.8000000e+00 4.8829999e+00 
0.0000000e+00 2.8000000e+00 5.1170001e+00 
7.5000000e-01 2.5000000e+00 5.3829999e+00 
1.2500000e+00 2.5000000e+00 5.3829999e+00 
1.2500000e+00 2.5000000e+00 5.6170001e+00 
7.5000000e-01 2.5000000e+00 5.6170001e+00 
7.5000000e-01 2.5000000e+00 5.5000000e+00 
0.0000000e+00 2.5000000e+00 5.3829999e+00 
0.0000000e+00 2.5000000e+00 5.6170001e+00 
1.2500000e+00 2.8000000e+00 5.6170001e+00 
1.2500000e+00 2.8000000e+00 5.3829999e+00 
0.0000000e+00 2.8000000e+00 5.3829999e+00 
0.0000000e+00 2.8000000e+00 5.6170001e+00 
7.5000000e-01 2.5000000e+00 5.8829999e+00 
1.2500000e+00 2.5000000e+00 5.8829999e+00 
1.2500000e+00 2.5000000e+00 6.1170001e+00 
7.5000000e-01 2.5000000e+00 6.1170001e+00 
7.5000000e-01 2.5000000e+00 6.0000000e+00 
0.0000000e+00 2.5000000e+00 5.8829999e+00 
0.0000000e+00 2.5000000e+00 6.1170001e+00 
1.2500000e+00 2.8000000e+00 6.1170001e+00 
1.2500000e+00 2.8000000e+00 5.8829999e+00 
0.0000000e+00 2.8000000e+00 5.8829999e+00 
0.0000000e+00 2.8000000e+00 6.1170001e+00 
7.5000000e-01 2.5000000e+00 6.3829999e+00 
1.2500000e+00 2.5000000e+00 6.3829999e+00 
1.2500000e+00 2.5000000e+00 6.6170001e+00 
7.5000000e-01 2.5000000e+00 6.6170001e+00 
7.5000000e-01 2.5000000e+00 6.5000000e+00 
0.0000000e+00 2.5000000e+00 6.3829999e+00 
0.0000000e+00 2.5000000e+00 6.6170001e+00 
1.2500000e+00 2.8000000e+00 6.6170001e+00 
1.2500000e+00 2.8000000e+00 6.3829999e+00 
0.0000000e+00 2.8000000e+00 6.3829999e+00 
0.0000000e+00 2.8000000e+00 6.6170001e+00 
7.5000000e-01 2.5000000e+00 6.8829999e+00 
1.2500000e+00 2.5000000e+00 6.8829999e+00 
1.2500000e+00 2.5000000e+00 7.1170001e+00 
7.5000000e-01 2.5000000e+00 7.1170001e+00 
7.5000000e-01 2.5000000e+00 7.0000000e+00 
0.0000000e+00 2.5000000e+00 6.8829999e+00 
0.0000000e+00 2.5000000e+00 7.1170001e+00 
1.2500000e+00 2.8000000e+00 7.1170001e+00 
1.2500000e+00 2.8000000e+00 6.8829999e+00 
0.0000000e+00 2.8000000e+00 6.8829999e+00 
0.0000000e+00 2.8000000e+00 7.1170001e+00 
7.5000000e-01 2.5000000e+00 7.3829999e+00 
1.2500000e+00 2.5000000e+00 7.3829999e+00 
1.2500000e+00 2.5000000e+00 7.6170001e+00 
7.5000000e-01 2.5000000e+00 7.6170001e+00 
7.5000000e-01 2.5000000e+00 7.5000000e+00 
0.0000000e+00 2.5000000e+00 7.3829999e+00 
0.0000000e+00 2.5000000e+00 7.6170001e+00 
1.2500000e+00 2.8000000e+00 7.6170001e+00 
1.2500000e+00 2.8000000e+00 7.3829999e+00 
0.0000000e+00 2.8000000e+00 7.3829999e+00 
0.0000000e+00 2.8000000e+00 7.6170001e+00 
7.5000000e-01 2.5000000e+00 7.8829999e+00 
1.2500000e+00 2.5000000e+00 7.8829999e+00 
1.2500000e+00 2.5000000e+00 8.1169996e+00 
7.5000000e-01 2.5000000e+00 8.1169996e+00 
7.5000000e-01 2.5000000e+00 8.0000000e+00 
0.0000000e+00 2.5000000e+00 7.8829999e+00 
0.0000000e+00 2.5000000e+00 8.1169996e+00 
1.2500000e+00 2.8000000e+00 8.1169996e+00 
1.2500000e+00 2.8000000e+00 7.8829999e+00 
0.0000000e+00 2.8000000e+00 7.8829999e+00 
0.0000000e+00 2.8000000e+00 8.1169996e+00 
7.5000000e-01 2.5000000e+00 8.3830004e+00 
1.2500000e+00 2.5000000e+00 8.3830004e+00 
1.2500000e+00 2.5000000e+00 8.6169996e+00 
7.5000000e-01 2.5000000e+00 8.6169996e+00 
7.5000000e-01 2.5000000e+00 8.5000000e+00 
0.0000000e+00 2.5000000e+00 8.3830004e+00 
0.0000000e+00 2.5000000e+00 8.6169996e+00 
1.2500000e+00 2.8000000e+00 8.6169996e+00 
1.2500000e+00 2.8000000e+00 8.3830004e+00 
0.0000000e+00 2.8000000e+00 8.3830004e+00 
0.0000000e+00 2.8000000e+00 8.6169996e+00 
7.5000000e-01 2.5000000e+00 8.8830004e+00 
1.2500000e+00 2.5000000e+00 8.8830004e+00 
1.2500000e+00 2.5000000e+00 9.1169996e+00 
7.5000000e-01 2.5000000e+00 9.1169996e+00 
7.5000000e-01 2.5000000e+00 9.0000000e+00 
0.0000000e+00 2.5000000e+00 8.8830004e+00 
0.0000000e+00 2.5000000e+00 9.1169996e+00 
1.2500000e+00 2.8000000e+00 9.1169996e+00 
1.2500000e+00 2.8000000e+00 8.8830004e+00 
0.0000000e+00 2.8000000e+00 8.8830004e+00 
0.0000000e+00 2.8000000e+00 9.1169996e+00 
7.5000000e-01 2.5000000e+00 9.3830004e+00 
1.2500000e+00 2.5000000e+00 9.3830004e+00 
1.2500000e+00 2.5000000e+00 9.6169996e+00 
7.5000000e-01 2.5000000e+00 9.6169996e+00 
7.5000000e-01 2.5000000e+00 9.5000000e+00 
0.0000000e+00 2.5000000e+00 9.3830004e+00 
0.0000000e+00 2.5000000e+00 9.6169996e+00 
1.2500000e+00 2.8000000e+00 9.6169996e+00 
1.2500000e+00 2.8000000e+00 9.3830004e+00 
0.0000000e+00 2.8000000e+00 9.3830004e+00 
0.0000000e+00 2.8000000e+00 9.6169996e+00 
7.5000000e-01 2.5000000e+00 9.8830004e+00 
1.2500000e+00 2.5000000e+00 9.8830004e+00 
1.2500000e+00 2.5000000e+00 1.0117000e+01 
[...]
POINT_DATA 1827
FIELD FieldData 2
DISPLACEMENT 3 1827  float
0.0000000e+00 0.0000000e+00 0.0000000e+00 
0.0000000e+00 0.0000000e+00 0.0000000e+00 
0.0000000e+00 0.0000000e+00 0.0000000e+00 
0.0000000e+00 0.0000000e+00 0.0000000e+00 
0.0000000e+00 1.4467562e-05 0.0000000e+00 
0.0000000e+00 -3.3260736e-07 0.0000000e+00 
0.0000000e+00 -3.8469992e-05 0.0000000e+00 
0.0000000e+00 -9.7710790e-07 0.0000000e+00 
0.0000000e+00 -1.3928821e-05 0.0000000e+00 
1.7442225e-08 -1.3923323e-05 2.9443177e-09 
2.3994182e-09 -1.4001467e-05 7.6700990e-10 
0.0000000e+00 -1.4004440e-05 0.0000000e+00 
0.0000000e+00 -1.4045326e-05 0.0000000e+00 
0.0000000e+00 -1.4043775e-05 0.0000000e+00 
-6.0066441e-09 -1.3939617e-05 -8.1661727e-10 
0.0000000e+00 -1.3940271e-05 0.0000000e+00 
0.0000000e+00 -1.4044726e-05 0.0000000e+00 
0.0000000e+00 -1.4043727e-05 0.0000000e+00 
5.5201827e-08 -1.0046282e-05 5.5198726e-08 
4.3758163e-08 -9.8287064e-06 1.6179504e-07 
2.3587146e-09 -9.7958255e-06 1.6603931e-07 
2.5553559e-08 -1.0020784e-05 5.8165018e-08 
3.8409638e-08 -1.0037242e-05 5.5952661e-08 
0.0000000e+00 -1.0234594e-05 0.0000000e+00 
0.0000000e+00 -1.0223412e-05 0.0000000e+00 
-1.1635571e-07 -9.8056789e-06 1.2474430e-07 
-6.9309095e-08 -9.8320661e-06 1.2384305e-07 
0.0000000e+00 -1.0219268e-05 0.0000000e+00 
0.0000000e+00 -1.0214630e-05 0.0000000e+00 
-6.7762478e-08 -5.7658976e-06 1.5331311e-08 
-1.0280385e-07 -5.8613714e-06 2.3974286e-08 
-1.0924308e-07 -5.8967539e-06 2.8142715e-08 
-7.6848529e-08 -5.7746247e-06 1.8535896e-08 
-7.1265930e-08 -5.7710681e-06 1.7143224e-08 
0.0000000e+00 -5.7225138e-06 0.0000000e+00 
0.0000000e+00 -5.7284260e-06 0.0000000e+00 
-3.0676173e-08 -5.8835340e-06 5.1882235e-08 
-2.2958222e-08 -5.8660517e-06 5.1316359e-08 
0.0000000e+00 -5.7216607e-06 0.0000000e+00 
0.0000000e+00 -5.7243446e-06 0.0000000e+00 
-1.8369460e-07 3.2375624e-06 -2.0750115e-07 
-2.6438394e-07 3.1277650e-06 -5.3332343e-07 
-1.4807448e-07 3.1872642e-06 -5.4913045e-07 
-7.5959704e-08 3.2700179e-06 -2.0599110e-07 
-1.2544162e-07 3.2589626e-06 -2.0521186e-07 
0.0000000e+00 3.1874470e-06 0.0000000e+00 
0.0000000e+00 3.2048076e-06 0.0000000e+00 
-3.1853475e-08 3.1889194e-06 -5.7100834e-07 
-1.8947853e-07 3.1525904e-06 -5.7886245e-07 
0.0000000e+00 3.2090154e-06 0.0000000e+00 
0.0000000e+00 3.2132014e-06 0.0000000e+00 
-1.8372450e-07 2.1591215e-05 -5.3800926e-07 
-2.6153623e-07 2.1542899e-05 -1.1410253e-06 
2.6640622e-08 2.1596376e-05 -1.1369279e-06 
3.3967510e-08 2.1630291e-05 -5.3934087e-07 
-7.6085961e-08 2.1609862e-05 -5.3387032e-07 
0.0000000e+00 2.1627751e-05 0.0000000e+00 
0.0000000e+00 2.1663116e-05 0.0000000e+00 
7.6034539e-08 2.1586633e-05 -1.1617450e-06 
-2.0673562e-07 2.1553213e-05 -1.1641712e-06 
0.0000000e+00 2.1650629e-05 0.0000000e+00 
0.0000000e+00 2.1650107e-05 0.0000000e+00 
-2.2136211e-07 4.3765111e-05 -9.2583883e-07 
-3.4975199e-07 4.3837197e-05 -2.1009068e-06 
2.0862281e-07 4.3778033e-05 -2.0965892e-06 
1.7569205e-07 4.3732594e-05 -9.3105672e-07 
-2.0242053e-08 4.3751152e-05 -9.1954837e-07 
0.0000000e+00 4.3584554e-05 0.0000000e+00 
0.0000000e+00 4.3573677e-05 0.0000000e+00 
1.8574950e-07 4.3786818e-05 -1.9746440e-06 
-3.4575788e-07 4.3843520e-05 -1.9807910e-06 
0.0000000e+00 4.3605371e-05 0.0000000e+00 
0.0000000e+00 4.3569860e-05 0.0000000e+00 
-1.0499039e-07 6.2041901e-05 -1.8809870e-07 
-1.8190542e-07 6.1750128e-05 -4.2755897e-07 
-6.2704459e-08 6.1805971e-05 -4.2527475e-07 
-2.1360000e-08 6.2064326e-05 -1.9566018e-07 
-6.1502448e-08 6.2059749e-05 -1.9047066e-07 
0.0000000e+00 6.2163977e-05 0.0000000e+00 
0.0000000e+00 6.2171610e-05 0.0000000e+00 
1.1379920e-07 6.1816623e-05 -4.5978726e-07 
6.0978878e-10 6.1785766e-05 -4.6131902e-07 
0.0000000e+00 6.2161307e-05 0.0000000e+00 
0.0000000e+00 6.2165760e-05 0.0000000e+00 
-6.9806902e-08 6.3246480e-05 -3.6898035e-07 
-1.0793136e-07 6.3361884e-05 -7.3705479e-07 
4.7322519e-08 6.3117906e-05 -7.2367993e-07 
5.0286737e-08 6.3120307e-05 -3.6734818e-07 
-1.3990697e-08 6.3187494e-05 -3.6310195e-07 
0.0000000e+00 6.3277956e-05 0.0000000e+00 
0.0000000e+00 6.3225794e-05 0.0000000e+00 
3.6510922e-08 6.3143896e-05 -4.8427955e-07 
-1.1586824e-07 6.3321524e-05 -4.8269277e-07 
0.0000000e+00 6.3288848e-05 0.0000000e+00 
0.0000000e+00 6.3236177e-05 0.0000000e+00 
1.1564525e-07 2.5786891e-05 3.4360028e-08 
1.9719945e-07 2.5992016e-05 5.0418464e-07 
-4.5074444e-08 2.5469961e-05 4.7709659e-07 
-1.9484650e-08 2.5483880e-05 3.5094867e-08 
4.5084963e-08 2.5631716e-05 3.9866812e-08 
0.0000000e+00 2.5820476e-05 0.0000000e+00 
0.0000000e+00 2.5629479e-05 0.0000000e+00 
-9.6826362e-08 2.5529745e-05 9.7216923e-07 
1.2771110e-07 2.5920308e-05 9.6506722e-07 
0.0000000e+00 2.5762201e-05 0.0000000e+00 
0.0000000e+00 2.5655683e-05 0.0000000e+00 
3.2884341e-07 -6.2065024e-05 1.6516980e-06 
4.8909561e-07 -6.1908111e-05 3.3594279e-06 
-3.9539131e-07 -6.2612497e-05 3.3725580e-06 
-3.5841572e-07 -6.2458406e-05 1.6811885e-06 
-2.4977391e-08 -6.2258725e-05 1.6552821e-06 
0.0000000e+00 -6.1586034e-05 0.0000000e+00 
0.0000000e+00 -6.1796760e-05 0.0000000e+00 
-3.6786594e-07 -6.2539701e-05 3.9648558e-06 
4.8237689e-07 -6.2060644e-05 3.9657612e-06 
0.0000000e+00 -6.1699124e-05 0.0000000e+00 
0.0000000e+00 -6.1772203e-05 0.0000000e+00 
3.1426157e-07 -1.8961616e-04 3.3138559e-08 
4.3448458e-07 -1.8835314e-04 5.4182181e-07 
1.4090556e-07 -1.8958133e-04 5.7017695e-07 
1.1090611e-07 -1.9037537e-04 7.7985511e-08 
1.9838839e-07 -1.9003940e-04 6.5937400e-08 
0.0000000e+00 -1.9025226e-04 0.0000000e+00 
0.0000000e+00 -1.9055970e-04 0.0000000e+00 
-4.5688282e-07 -1.8951509e-04 1.7488750e-06 
-1.5558449e-07 -1.8858010e-04 1.7480531e-06 
0.0000000e+00 -1.9028434e-04 0.0000000e+00 
0.0000000e+00 -1.9053461e-04 0.0000000e+00 
5.6646400e-07 -3.1438842e-04 -1.0866418e-07 
7.7775377e-07 -3.1174504e-04 3.2193178e-08 
6.9729589e-07 -3.1236297e-04 1.0974026e-07 
4.9527301e-07 -3.1476645e-04 -4.3678707e-08 
5.0035527e-07 -3.1464151e-04 -6.5535090e-08 
0.0000000e+00 -3.1551125e-04 0.0000000e+00 
0.0000000e+00 -3.1565345e-04 0.0000000e+00 
-7.5795526e-07 -3.1248984e-04 6.8048718e-07 
-6.6010170e-07 -3.1202132e-04 6.9123274e-07 
0.0000000e+00 -3.1548389e-04 0.0000000e+00 
0.0000000e+00 -3.1560339e-04 0.0000000e+00 
5.5725610e-07 -3.2978918e-04 -1.1560676e-07 
7.5169783e-07 -3.2706413e-04 -3.1342009e-07 
8.8541555e-07 -3.2650257e-04 -2.6653504e-07 
6.6224851e-07 -3.2940018e-04 -4.3895156e-08 
5.7463217e-07 -3.2966895e-04 -8.9011017e-08 
0.0000000e+00 -3.3088317e-04 0.0000000e+00 
0.0000000e+00 -3.3075581e-04 0.0000000e+00 
-7.2941708e-07 -3.2676291e-04 -8.7033959e-07 
-8.5924307e-07 -3.2721538e-04 -8.7156315e-07 
0.0000000e+00 -3.3077862e-04 0.0000000e+00 
0.0000000e+00 -3.3070089e-04 0.0000000e+00 
1.6769617e-07 -2.4187029e-04 -1.1016417e-06 
2.7100808e-07 -2.4032003e-04 -2.0496288e-06 
7.5013264e-07 -2.3985977e-04 -1.9974566e-06 
5.8283575e-07 -2.4159935e-04 -1.0744076e-06 
3.5572646e-07 -2.4177397e-04 -1.0809208e-06 
0.0000000e+00 -2.4250633e-04 0.0000000e+00 
0.0000000e+00 -2.4239435e-04 0.0000000e+00 
-1.9519979e-07 -2.4005419e-04 -2.4419244e-06 
-6.7767542e-07 -2.4037431e-04 -2.4405767e-06 
0.0000000e+00 -2.4242133e-04 0.0000000e+00 
0.0000000e+00 -2.4238433e-04 0.0000000e+00 
5.1131039e-08 -1.4728031e-04 7.5279800e-08 
7.2215570e-08 -1.4661619e-04 -2.8735462e-07 
2.7963276e-07 -1.4580677e-04 -2.7704067e-07 
1.8079038e-07 -1.4666317e-04 7.7995630e-08 
1.0625764e-07 -1.4697711e-04 5.9605846e-08 
0.0000000e+00 -1.4730060e-04 0.0000000e+00 
0.0000000e+00 -1.4707593e-04 0.0000000e+00 
-1.4472172e-07 -1.4593138e-04 -1.1422987e-06 
-3.3981090e-07 -1.4662254e-04 -1.1505668e-06 
0.0000000e+00 -1.4722379e-04 0.0000000e+00 
0.0000000e+00 -1.4707450e-04 0.0000000e+00 
-1.7653022e-07 -7.4550619e-05 -6.2655920e-07 
-2.5293906e-07 -7.4778640e-05 -1.3791815e-06 
1.8726804e-07 -7.4211988e-05 -1.3925728e-06 
1.2840340e-07 -7.4272983e-05 -6.2990063e-07 
-2.5536066e-08 -7.4408221e-05 -6.2625134e-07 
0.0000000e+00 -7.4423595e-05 0.0000000e+00 
0.0000000e+00 -7.4305106e-05 0.0000000e+00 
2.1840198e-07 -7.4303578e-05 -1.8654264e-06 
-1.7245058e-07 -7.4677380e-05 -1.8737570e-06 
0.0000000e+00 -7.4392839e-05 0.0000000e+00 
0.0000000e+00 -7.4328338e-05 0.0000000e+00 
7.9969972e-08 -2.2624950e-05 -6.7878560e-08 
7.4699081e-08 -2.2306114e-05 -3.6189331e-07 
2.5424251e-07 -2.1885284e-05 -3.6222204e-07 
1.8825685e-07 -2.2367034e-05 -8.2297703e-08 
1.3155943e-07 -2.2487386e-05 -7.9994948e-08 
0.0000000e+00 -2.2836861e-05 0.0000000e+00 
0.0000000e+00 -2.2727756e-05 0.0000000e+00 
5.1054290e-09 -2.1954163e-05 -7.6490733e-07 
-1.4709660e-07 -2.2274526e-05 -7.6531933e-07 
0.0000000e+00 -2.2801434e-05 0.0000000e+00 
0.0000000e+00 -2.2724809e-05 0.0000000e+00 
1.0528092e-07 1.2130473e-05 -1.7206968e-07 
1.4950777e-07 1.2471020e-05 -3.9365318e-07 
2.8269037e-07 1.2633288e-05 -3.9487708e-07 
1.8911732e-07 1.2224699e-05 -1.7302951e-07 
1.4338833e-07 1.2175135e-05 -1.7210151e-07 
0.0000000e+00 1.1956558e-05 0.0000000e+00 
0.0000000e+00 1.1995331e-05 0.0000000e+00 
2.8256098e-08 1.2590476e-05 -5.3912987e-07 
-8.5103942e-08 1.2474254e-05 -5.3806951e-07 
0.0000000e+00 1.1960852e-05 0.0000000e+00 
0.0000000e+00 1.1989760e-05 0.0000000e+00 
7.7593356e-08 2.7144612e-05 2.1901481e-07 
1.1023990e-07 2.7225813e-05 3.7509631e-07 
3.4355260e-08 2.7278013e-05 3.7166834e-07 
1.0550706e-08 2.7188855e-05 2.2165513e-07 
4.2059327e-08 2.7163102e-05 2.1755352e-07 
0.0000000e+00 2.7166481e-05 0.0000000e+00 
0.0000000e+00 2.7185622e-05 0.0000000e+00 
-2.5461985e-08 2.7270793e-05 3.0870297e-07 
4.7087227e-08 2.7219801e-05 3.1016032e-07 
0.0000000e+00 2.7168973e-05 0.0000000e+00 
0.0000000e+00 2.7186319e-05 0.0000000e+00 
-2.0394880e-08 2.4225654e-05 4.4304295e-07 
-2.6920075e-08 2.3921490e-05 9.1926773e-07 
-2.7508756e-07 2.3859449e-05 9.1242180e-07 
-1.9718290e-07 2.4208641e-05 4.4347823e-07 
-1.0600927e-07 2.4218176e-05 4.3936353e-07 
0.0000000e+00 2.4437508e-05 0.0000000e+00 
0.0000000e+00 2.4432538e-05 0.0000000e+00 
-6.3068185e-08 2.3896739e-05 9.3940935e-07 
1.6349034e-07 2.3921364e-05 9.3893038e-07 
0.0000000e+00 2.4425115e-05 0.0000000e+00 
0.0000000e+00 2.4434692e-05 0.0000000e+00 
-6.0089398e-08 1.3772152e-05 2.4440968e-07 
-9.6741161e-08 1.3404853e-05 5.3139826e-07 
-2.3311738e-07 1.3354927e-05 5.2683879e-07 
-1.6107701e-07 1.3748248e-05 2.3533138e-07 
-1.0547561e-07 1.3766980e-05 2.3804711e-07 
0.0000000e+00 1.3913448e-05 0.0000000e+00 
0.0000000e+00 1.3901028e-05 0.0000000e+00 
-1.8044412e-09 1.3394714e-05 5.5668403e-07 
1.3698805e-07 1.3422426e-05 5.5528426e-07 
0.0000000e+00 1.3904929e-05 0.0000000e+00 
0.0000000e+00 1.3902951e-05 0.0000000e+00 
-2.8664870e-08 6.6299385e-06 -5.0286530e-08 
-4.1298488e-08 6.4661181e-06 -8.2883183e-08 
-2.6483169e-08 6.4330393e-06 -9.0598860e-08 
-1.6456706e-08 6.6007369e-06 -5.5391723e-08 
-2.0724904e-08 6.6188709e-06 -5.2091711e-08 
0.0000000e+00 6.6900006e-06 0.0000000e+00 
0.0000000e+00 6.6809325e-06 0.0000000e+00 
6.6596073e-08 6.4467799e-06 -4.5537423e-08 
5.1277297e-08 6.4789115e-06 -4.6680732e-08 
0.0000000e+00 6.6827947e-06 0.0000000e+00 
0.0000000e+00 6.6735497e-06 0.0000000e+00 
-1.4498719e-08 3.5117755e-06 -5.7944669e-07 
-6.6622667e-09 3.8098215e-06 -1.1537084e-06 
2.5387845e-07 3.6943702e-06 -1.1493562e-06 
1.9314074e-07 3.4239970e-06 -5.7766914e-07 
8.7535582e-08 3.4638078e-06 -5.7306386e-07 
0.0000000e+00 3.3140711e-06 0.0000000e+00 
0.0000000e+00 3.2796952e-06 0.0000000e+00 
8.0924984e-08 3.6817366e-06 -9.9646240e-07 
-1.8169395e-07 3.7900325e-06 -9.9668853e-07 
0.0000000e+00 3.3171568e-06 0.0000000e+00 
0.0000000e+00 3.2779130e-06 0.0000000e+00 
1.9023020e-08 -1.3095738e-06 -1.1339637e-07 
3.0132256e-08 -1.1892300e-06 -1.8906259e-07 
6.4024199e-08 -1.2544990e-06 -1.8358703e-07 
4.7986088e-08 -1.3606577e-06 -1.0672537e-07 
3.1375130e-08 -1.3403286e-06 -1.0859284e-07 
0.0000000e+00 -1.3450676e-06 0.0000000e+00 
0.0000000e+00 -1.3703665e-06 0.0000000e+00 
-3.1717902e-09 -1.2622276e-06 -1.1087832e-07 
-3.7303437e-08 -1.2037417e-06 -1.0932244e-07 
0.0000000e+00 -1.3511257e-06 0.0000000e+00 
0.0000000e+00 -1.3675775e-06 0.0000000e+00 
7.7328735e-08 -8.5391366e-06 9.1173789e-08 
9.8270704e-08 -8.3219338e-06 1.8289022e-07 
4.8021221e-08 -8.3685563e-06 1.8640625e-07 
3.8240440e-08 -8.5672800e-06 8.8904983e-08 
5.6662842e-08 -8.5540441e-06 8.9449145e-08 
0.0000000e+00 -8.6971659e-06 0.0000000e+00 
0.0000000e+00 -8.7133594e-06 0.0000000e+00 
-7.3809630e-08 -8.3721507e-06 2.2738021e-07 
-2.6667626e-08 -8.3379500e-06 2.2763217e-07 
0.0000000e+00 -8.6970786e-06 0.0000000e+00 
0.0000000e+00 -8.7071694e-06 0.0000000e+00 
4.9900898e-08 -1.1095627e-05 1.4167713e-07 
4.6031328e-08 -1.1007082e-05 2.8537559e-07 
-1.9181673e-08 -1.0939841e-05 2.8482231e-07 
1.4913460e-09 -1.1051658e-05 1.3802102e-07 
2.6461292e-08 -1.1070891e-05 1.3797329e-07 
0.0000000e+00 -1.1225622e-05 0.0000000e+00 
0.0000000e+00 -1.1205625e-05 0.0000000e+00 
-7.1183315e-08 -1.0944840e-05 2.0895803e-07 
-7.8661087e-09 -1.0999320e-05 2.0733310e-07 
0.0000000e+00 -1.1215658e-05 0.0000000e+00 
0.0000000e+00 -1.1204018e-05 0.0000000e+00 
8.2829770e-09 -5.0609910e-06 4.6406678e-09 
-1.3606009e-09 -4.9805553e-06 -4.3009535e-08 
2.8216142e-08 -4.9010114e-06 -4.1012044e-08 
2.2927576e-08 -5.0085373e-06 3.8291113e-09 
1.5806567e-08 -5.0337776e-06 3.5086682e-09 
0.0000000e+00 -5.1544453e-06 0.0000000e+00 
0.0000000e+00 -5.1290444e-06 0.0000000e+00 
-2.6825017e-08 -4.9107684e-06 -1.2063347e-07 
-5.0592529e-08 -4.9741730e-06 -1.2064787e-07 
0.0000000e+00 -5.1416537e-06 0.0000000e+00 
0.0000000e+00 -5.1259599e-06 0.0000000e+00 
1.3016049e-11 4.0947707e-06 3.9678142e-08 
7.0895689e-09 4.0540849e-06 5.4736468e-08 
1.2541514e-08 4.1416251e-06 4.9887920e-08 
-2.8832630e-09 4.1478397e-06 4.1504542e-08 
-1.9364157e-09 4.1195281e-06 3.9186247e-08 
0.0000000e+00 4.1575868e-06 0.0000000e+00 
0.0000000e+00 4.1818466e-06 0.0000000e+00 
1.6783112e-08 4.1300677e-06 -3.4933560e-08 
1.8061773e-08 4.0629493e-06 -3.4813787e-08 
0.0000000e+00 4.1625458e-06 0.0000000e+00 
0.0000000e+00 4.1794992e-06 0.0000000e+00 
-2.7268721e-08 7.5647322e-06 4.9187818e-08 
-2.3406878e-08 7.4322365e-06 9.7124612e-08 
-4.7020677e-08 7.4390682e-06 9.9355326e-08 
-4.5380855e-08 7.5707817e-06 5.3820212e-08 
-3.6326174e-08 7.5653256e-06 5.0880008e-08 
0.0000000e+00 7.7211798e-06 0.0000000e+00 
0.0000000e+00 7.7205959e-06 0.0000000e+00 
2.9430709e-08 7.4405102e-06 8.7465807e-08 
5.1027421e-08 7.4330319e-06 8.9369045e-08 
0.0000000e+00 7.7131426e-06 0.0000000e+00 
0.0000000e+00 7.7187688e-06 0.0000000e+00 
-2.5808722e-08 3.5705932e-06 4.5205898e-08 
-3.4974047e-08 3.4642906e-06 9.7885945e-08 
-6.2787436e-08 3.4332513e-06 9.7994530e-08 
-4.6702258e-08 3.5487303e-06 4.5316554e-08 
-3.5304950e-08 3.5608298e-06 4.5075353e-08 
0.0000000e+00 3.6506917e-06 0.0000000e+00 
0.0000000e+00 3.6390700e-06 0.0000000e+00 
6.9290036e-09 3.4417144e-06 1.2812862e-07 
3.3310521e-08 3.4660814e-06 1.2838186e-07 
0.0000000e+00 3.6430181e-06 0.0000000e+00 
0.0000000e+00 3.6394053e-06 0.0000000e+00 
-5.4956011e-08 -2.0819439e-06 -1.1885593e-07 
-8.6403773e-08 -2.1871776e-06 -2.5298991e-07 
-1.7280611e-08 -2.2299096e-06 -2.5547368e-07 
-1.0000389e-08 -2.1125422e-06 -1.2139668e-07 
-3.1465706e-08 -2.0930468e-06 -1.1858360e-07 
0.0000000e+00 -2.0425964e-06 0.0000000e+00 
0.0000000e+00 -2.0558994e-06 0.0000000e+00 
4.8588298e-08 -2.2187737e-06 -2.0104366e-07 
-1.0607923e-08 -2.1817123e-06 -2.0173022e-07 
0.0000000e+00 -2.0436626e-06 0.0000000e+00 
0.0000000e+00 -2.0570374e-06 0.0000000e+00 
4.6369383e-08 -3.8599392e-06 -6.1800485e-09 
5.9330830e-08 -3.7212030e-06 -1.9030679e-08 
6.8476815e-08 -3.7162129e-06 -1.9870534e-08 
5.0141210e-08 -3.8562694e-06 -7.0887523e-09 
4.7258137e-08 -3.8585617e-06 -6.6156272e-09 
0.0000000e+00 -3.9658426e-06 0.0000000e+00 
0.0000000e+00 -3.9620459e-06 0.0000000e+00 
-1.9952818e-08 -3.7226441e-06 -2.3843988e-08 
-2.5733131e-08 -3.7266716e-06 -2.4076186e-08 
0.0000000e+00 -3.9605866e-06 0.0000000e+00 
0.0000000e+00 -3.9614906e-06 0.0000000e+00 
2.8469161e-08 -2.3734297e-06 2.7850012e-08 
4.3212825e-08 -2.3264158e-06 4.3959435e-08 
3.2096075e-08 -2.3051753e-06 4.3260904e-08 
2.1395106e-08 -2.3556190e-06 2.8107156e-08 
2.4306807e-08 -2.3653301e-06 2.7506884e-08 
0.0000000e+00 -2.3900275e-06 0.0000000e+00 
0.0000000e+00 -2.3832886e-06 0.0000000e+00 
2.3679478e-10 -2.3096841e-06 1.8916786e-08 
6.8665940e-09 -2.3288922e-06 1.9259852e-08 
0.0000000e+00 -2.3891414e-06 0.0000000e+00 
0.0000000e+00 -2.3843068e-06 0.0000000e+00 
-1.3203714e-08 1.4799528e-07 -9.5002886e-09 
-1.1794143e-08 1.1769344e-07 -2.7692893e-08 
-4.8619198e-09 1.3154117e-07 -2.8681399e-08 
-6.1963390e-09 1.5747516e-07 -9.1921430e-09 
-9.4854471e-09 1.5243529e-07 -9.3651717e-09 
0.0000000e+00 1.7970505e-07 0.0000000e+00 
0.0000000e+00 1.8403108e-07 0.0000000e+00 
1.1821172e-08 1.3037385e-07 -4.1776964e-08 
2.3132982e-09 1.1951744e-07 -4.1550425e-08 
0.0000000e+00 1.7973495e-07 0.0000000e+00 
0.0000000e+00 1.8150915e-07 0.0000000e+00 
-8.0591818e-09 1.7842782e-06 -2.4270994e-08 
-1.2234334e-08 1.7992875e-06 -5.6192921e-08 
2.4578577e-09 1.7961039e-06 -5.5360857e-08 
3.0638478e-09 1.7829861e-06 -2.4259888e-08 
-2.5594524e-09 1.7835770e-06 -2.4159073e-08 
0.0000000e+00 1.7833821e-06 0.0000000e+00 
0.0000000e+00 1.7826125e-06 0.0000000e+00 
-2.8399911e-09 1.7952813e-06 -5.1131938e-08 
-1.7207890e-08 1.7976814e-06 -5.1383399e-08 
0.0000000e+00 1.7847863e-06 0.0000000e+00 
0.0000000e+00 1.7835484e-06 0.0000000e+00 
-4.9329727e-09 1.6125394e-06 -1.1210310e-08 
-6.0013470e-09 1.5933985e-06 -1.3713017e-08 
-4.6077751e-09 1.5839582e-06 -1.3768494e-08 
-3.3899903e-09 1.6053530e-06 -1.1136758e-08 
-4.0879624e-09 1.6091294e-06 -1.1015731e-08 
0.0000000e+00 1.6277671e-06 0.0000000e+00 
0.0000000e+00 1.6245912e-06 0.0000000e+00 
7.1205073e-09 1.5856551e-06 -3.4429859e-09 
6.0093406e-09 1.5939352e-06 -3.3271119e-09 
0.0000000e+00 1.6261918e-06 0.0000000e+00 
0.0000000e+00 1.6243216e-06 0.0000000e+00 
-1.1232509e-09 4.7321592e-07 9.3035659e-09 
-1.7310062e-09 4.5425065e-07 3.2625138e-08 
-1.2218453e-08 4.4963579e-07 3.2209844e-08 
-7.9105007e-09 4.6788921e-07 9.4037640e-09 
-4.3260591e-09 4.7061150e-07 9.4093213e-09 
0.0000000e+00 4.8126083e-07 0.0000000e+00 
0.0000000e+00 4.7937931e-07 0.0000000e+00 
-8.4732155e-10 4.5081993e-07 3.7116259e-08 
9.4005088e-09 4.5578844e-07 3.7127641e-08 
0.0000000e+00 4.8009355e-07 0.0000000e+00 
0.0000000e+00 4.7918962e-07 0.0000000e+00 
7.7549362e-09 -4.3484957e-07 2.5282141e-08 
8.8798666e-09 -4.2408234e-07 5.7361429e-08 
-6.7768595e-09 -4.2400737e-07 5.7928926e-08 
-3.1354355e-09 -4.3422429e-07 2.4901626e-08 
2.4754097e-09 -4.3433704e-07 2.4855909e-08 
0.0000000e+00 -4.4922970e-07 0.0000000e+00 
0.0000000e+00 -4.4862929e-07 0.0000000e+00 
-1.1951209e-08 -4.2353520e-07 5.5259708e-08 
2.9580818e-09 -4.2431745e-07 5.5292105e-08 
0.0000000e+00 -4.4852732e-07 0.0000000e+00 
0.0000000e+00 -4.4811014e-07 0.0000000e+00 
2.9706619e-09 -4.9757938e-07 -6.2819412e-09 
3.4241265e-09 -4.8382503e-07 -1.7091180e-08 
1.0133541e-08 -4.8088913e-07 -1.7867974e-08 
6.6077623e-09 -4.9531957e-07 -6.3537042e-09 
4.7803059e-09 -4.9642358e-07 -6.2827299e-09 
0.0000000e+00 -5.1116569e-07 0.0000000e+00 
0.0000000e+00 -5.1004349e-07 0.0000000e+00 
1.0309315e-10 -4.8148723e-07 -2.0025530e-08 
-4.9843876e-09 -4.8398306e-07 -2.0179082e-08 
0.0000000e+00 -5.1017417e-07 0.0000000e+00 
0.0000000e+00 -5.0998375e-07 0.0000000e+00 
2.2295865e-09 -4.7246051e-08 4.0916426e-09 
3.4149006e-09 -4.7606871e-08 4.0820223e-09 
3.8283536e-09 -4.3784109e-08 4.3154667e-09 
1.7675486e-09 -4.4458524e-08 4.2512416e-09 
1.8698336e-09 -4.6107701e-08 4.1011790e-09 
0.0000000e+00 -4.2128576e-08 0.0000000e+00 
0.0000000e+00 -4.0826752e-08 0.0000000e+00 
2.7360498e-09 -4.4447614e-08 1.4794191e-10 
2.7545513e-09 -4.7745210e-08 3.0387648e-10 
0.0000000e+00 -4.2249770e-08 0.0000000e+00 
0.0000000e+00 -4.1247077e-08 0.0000000e+00 
0.0000000e+00 4.0088412e-06 0.0000000e+00 
0.0000000e+00 6.4167949e-07 0.0000000e+00 
-1.8413128e-10 1.8043161e-07 -1.1551192e-10 
-2.2776751e-10 1.7975172e-07 -1.1452706e-10 