# vtk DataFile Version 4.0
vtk output
ASCII
DATASET UNSTRUCTURED_GRID
POINTS 1827 float
0.0000000e+00 0.0000000e+00 0.0000000e+00 
0.0000000e+00 0.0000000e+00 2.0000000e+01 
3.4700000e+00 0.0000000e+00 0.0000000e+00 
3.4700000e+00 0.0000000e+00 2.0000000e+01 
3.4700000e+00 1.0000000e+00 0.0000000e+00 
3.4700000e+00 1.0000000e+00 2.0000000e+01 
0.0000000e+00 1.0000000e+00 0.0000000e+00 
0.0000000e+00 1.0000000e+00 2.0000000e+01 
1.2500000e+00 2.5000000e+00 0.0000000e+00 
1.2500000e+00 2.5000000e+00 1.1700000e-01 
7.5000000e-01 2.5000000e+00 1.1700000e-01 
7.5000000e-01 2.5000000e+00 0.0000000e+00 
0.0000000e+00 2.5000000e+00 0.0000000e+00 
0.0000000e+00 2.5000000e+00 1.1700000e-01 
1.2500000e+00 2.8000000e+00 1.1700000e-01 
1.2500000e+00 2.8000000e+00 0.0000000e+00 
0.0000000e+00 2.8000000e+00 0.0000000e+00 
0.0000000e+00 2.8000000e+00 1.1700000e-01 
7.5000000e-01 2.5000000e+00 3.8299999e-01 
1.2500000e+00 2.5000000e+00 3.8299999e-01 
1.2500000e+00 2.5000000e+00 6.1699998e-01 
7.5000000e-01 2.5000000e+00 6.1699998e-01 
7.5000000e-01 2.5000000e+00 5.0000000e-01 
0.0000000e+00 2.5000000e+00 3.8299999e-01 
0.0000000e+00 2.5000000e+00 6.1699998e-01 
1.2500000e+00 2.8000000e+00 6.1699998e-01 
1.2500000e+00 2.8000000e+00 3.8299999e-01 
0.0000000e+00 2.8000000e+00 3.8299999e-01 
0.0000000e+00 2.8000000e+00 6.1699998e-01 
7.5000000e-01 2.5000000e+00 8.8300002e-01 
1.2500000e+00 2.5000000e+00 8.8300002e-01 
1.2500000e+00 2.5000000e+00 1.1170000e+00 
7.5000000e-01 2.5000000e+00 1.1170000e+00 
7.5000000e-01 2.5000000e+00 1.0000000e+00 
0.0000000e+00 2.5000000e+00 8.8300002e-01 
0.0000000e+00 2.5000000e+00 1.1170000e+00 
1.2500000e+00 2.8000000e+00 1.1170000e+00 
1.2500000e+00 2.8000000e+00 8.8300002e-01 
0.0000000e+00 2.8000000e+00 8.8300002e-01 
0.0000000e+00 2.8000000e+00 1.1170000e+00 
7.5000000e-01 2.5000000e+00 1.3830000e+00 
1.2500000e+00 2.5000000e+00 1.3830000e+00 
1.2500000e+00 2.5000000e+00 1.6170000e+00 
7.5000000e-01 2.5000000e+00 1.6170000e+00 
7.5000000e-01 2.5000000e+00 1.5000000e+00 
0.0000000e+00 2.5000000e+00 1.3830000e+00 
0.0000000e+00 2.5000000e+00 1.6170000e+00 
1.2500000e+00 2.8000000e+00 1.6170000e+00 
1.2500000e+00 2.8000000e+00 1.3830000e+00 
0.0000000e+00 2.8000000e+00 1.3830000e+00 
0.0000000e+00 2.8000000e+00 1.6170000e+00 
7.5000000e-01 2.5000000e+00 1.8830000e+00 
1.2500000e+00 2.5000000e+00 1.8830000e+00 
1.2500000e+00 2.5000000e+00 2.1170001e+00 
7.5000000e-01 2.5000000e+00 2.1170001e+00 
7.5000000e-01 2.5000000e+00 2.0000000e+00 
0.0000000e+00 2.5000000e+00 1.8830000e+00 
0.0000000e+00 2.5000000e+00 2.1170001e+00 
1.2500000e+00 2.8000000e+00 2.1170001e+00 
1.2500000e+00 2.8000000e+00 1.8830000e+00 
0.0000000e+00 2.8000000e+00 1.8830000e+00 
0.0000000e+00 2.8000000e+00 2.1170001e+00 
7.5000000e-01 2.5000000e+00 2.3829999e+00 
1.2500000e+00 2.5000000e+00 2.3829999e+00 
1.2500000e+00 2.5000000e+00 2.6170001e+00 
7.5000000e-01 2.5000000e+00 2.6170001e+00 
7.5000000e-01 2.5000000e+00 2.5000000e+00 
0.0000000e+00 2.5000000e+00 2.3829999e+00 
0.0000000e+00 2.5000000e+00 2.6170001e+00 
1.2500000e+00 2.8000000e+00 2.6170001e+00 
1.2500000e+00 2.8000000e+00 2.3829999e+00 
0.0000000e+00 2.8000000e+00 2.3829999e+00 
0.0000000e+00 2.8000000e+00 2.6170001e+00 
7.5000000e-01 2.5000000e+00 2.8829999e+00 
1.2500000e+00 2.5000000e+00 2.8829999e+00 
1.2500000e+00 2.5000000e+00 3.1170001e+00 
7.5000000e-01 2.5000000e+00 3.1170001e+00 
7.5000000e-01 2.5000000e+00 3.0000000e+00 
0.0000000e+00 2.5000000e+00 2.8829999e+00 
0.0000000e+00 2.5000000e+00 3.1170001e+00 
1.2500000e+00 2.8000000e+00 3.1170001e+00 
1.2500000e+00 2.8000000e+00 2.8829999e+00 
0.0000000e+00 2.8000000e+00 2.8829999e+00 
0.0000000e+00 2.8000000e+00 3.1170001e+00 
7.5000000e-01 2.5000000e+00 3.3829999e+00 
1.2500000e+00 2.5000000e+00 3.3829999e+00 
1.2500000e+00 2.5000000e+00 3.6170001e+00 
7.5000000e-01 2.5000000e+00 3.6170001e+00 
7.5000000e-01 2.5000000e+00 3.5000000e+00 
0.0000000e+00 2.5000000e+00 3.3829999e+00 
0.0000000e+00 2.5000000e+00 3.6170001e+00 
1.2500000e+00 2.8000000e+00 3.6170001e+00 
1.2500000e+00 2.8000000e+00 3.3829999e+00 
0.0000000e+00 2.8000000e+00 3.3829999e+00 
0.0000000e+00 2.8000000e+00 3.6170001e+00 
7.5000000e-01 2.5000000e+00 3.8829999e+00 
1.2500000e+00 2.5000000e+00 3.8829999e+00 
1.2500000e+00 2.5000000e+00 4.1170001e+00 
7.5000000e-01 2.5000000e+00 4.1170001e+00 
7.5000000e-01 2.5000000e+00 4.0000000e+00 
0.0000000e+00 2.5000000e+00 3.8829999e+00 
0.0000000e+00 2.5000000e+00 4.1170001e+00 
1.2500000e+00 2.8000000e+00 4.1170001e+00 
1.2500000e+00 2.8000000e+00 3.8829999e+00 
0.0000000e+00 2.8000000e+00 3.8829999e+00 
0.0000000e+00 2.8000000e+00 4.1170001e+00 
7.5000000e-01 2.5000000e+00 4.3829999e+00 
1.2500000e+00 2.5000000e+00 4.3829999e+00 
1.2500000e+00 2.5000000e+00 4.6170001e+00 
7.5000000e-01 2.5000000e+00 4.6170001e+00 
7.5000000e-01 2.5000000e+00 4.5000000e+00 
0.0000000e+00 2.5000000e+00 4.3829999e+00 
0.0000000e+00 2.5000000e+00 4.6170001e+00 
1.2500000e+00 2.8000000e+00 4.6170001e+00 
1.2500000e+00 2.8000000e+00 4.3829999e+00 
0.0000000e+00 2.8000000e+00 4.3829999e+00 
0.0000000e+00 2.8000000e+00 4.6170001e+00 
7.5000000e-01 2.5000000e+00 4.8829999e+00 
1.2500000e+00 2.5000000e+00 4.8829999e+00 
1.2500000e+00 2.5000000e+00 5.1170001e+00 
7.5000000e-01 2.5000000e+00 5.1170001e+00 
7.5000000e-01 2.5000000e+00 5.0000000e+00 
0.0000000e+00 2.5000000e+00 4.8829999e+00 
0.0000000e+00 2.5000000e+00 5.1170001e+00 
1.2500000e+00 2.8000000e+00 5.1170001e+00 
1.2500000e+00 2.8000000e+00 4.8829999e+00 
0.0000000e+00 2.8000000e+00 4.8829999e+00 
0.0000000e+00 2.8000000e+00 5.1170001e+00 
7.5000000e-01 2.5000000e+00 5.3829999e+00 
1.2500000e+00 2.5000000e+00 5.3829999e+00 
1.2500000e+00 2.5000000e+00 5.6170001e+00 
7.5000000e-01 2.5000000e+00 5.6170001e+00 
7.5000000e-01 2.5000000e+00 5.5000000e+00 
0.0000000e+00 2.5000000e+00 5.3829999e+00 
0.0000000e+00 2.5000000e+00 5.6170001e+00 
1.2500000e+00 2.8000000e+00 5.6170001e+00 
1.2500000e+00 2.8000000e+00 5.3829999e+00 
0.0000000e+00 2.8000000e+00 5.3829999e+00 
0.0000000e+00 2.8000000e+00 5.6170001e+00 
7.5000000e-01 2.5000000e+00 5.8829999e+00 
1.2500000e+00 2.5000000e+00 5.8829999e+00 
1.2500000e+00 2.5000000e+00 6.1170001e+00 
7.5000000e-01 2.5000000e+00 6.1170001e+00 
7.5000000e-01 2.5000000e+00 6.0000000e+00 
0.0000000e+00 2.5000000e+00 5.8829999e+00 
0.0000000e+00 2.5000000e+00 6.1170001e+00 
1.2500000e+00 2.8000000e+00 6.1170001e+00 
1.2500000e+00 2.8000000e+00 5.8829999e+00 
0.0000000e+00 2.8000000e+00 5.8829999e+00 
0.0000000e+00 2.8000000e+00 6.1170001e+00 
7.5000000e-01 2.5000000e+00 6.3829999e+00 
1.2500000e+00 2.5000000e+00 6.3829999e+00 
1.2500000e+00 2.5000000e+00 6.6170001e+00 
7.5000000e-01 2.5000000e+00 6.6170001e+00 
7.5000000e-01 2.5000000e+00 6.5000000e+00 
0.0000000e+00 2.5000000e+00 6.3829999e+00 
0.0000000e+00 2.5000000e+00 6.6170001e+00 
1.2500000e+00 2.8000000e+00 6.6170001e+00 
1.2500000e+00 2.8000000e+00 6.3829999e+00 
0.0000000e+00 2.8000000e+00 6.3829999e+00 
0.0000000e+00 2.8000000e+00 6.6170001e+00 
7.5000000e-01 2.5000000e+00 6.8829999e+00 
1.2500000e+00 2.5000000e+00 6.8829999e+00 
1.2500000e+00 2.5000000e+00 7.1170001e+00 
7.5000000e-01 2.5000000e+00 7.1170001e+00 
7.5000000e-01 2.5000000e+00 7.0000000e+00 
0.0000000e+00 2.5000000e+00 6.8829999e+00 
0.0000000e+00 2.5000000e+00 7.1170001e+00 
1.2500000e+00 2.8000000e+00 7.1170001e+00 
1.2500000e+00 2.8000000e+00 6.8829999e+00 
0.0000000e+00 2.8000000e+00 6.8829999e+00 
0.0000000e+00 2.8000000e+00 7.1170001e+00 
7.5000000e-01 2.5000000e+00 7.3829999e+00 
1.2500000e+00 2.5000000e+00 7.3829999e+00 
1.2500000e+00 2.5000000e+00 7.6170001e+00 
7.5000000e-01 2.5000000e+00 7.6170001e+00 
7.5000000e-01 2.5000000e+00 7.5000000e+00 
0.0000000e+00 2.5000000e+00 7.3829999e+00 
0.0000000e+00 2.5000000e+00 7.6170001e+00 
1.2500000e+00 2.8000000e+00 7.6170001e+00 
1.2500000e+00 2.8000000e+00 7.3829999e+00 
0.0000000e+00 2.8000000e+00 7.3829999e+00 
0.0000000e+00 2.8000000e+00 7.6170001e+00 
7.5000000e-01 2.5000000e+00 7.8829999e+00 
1.2500000e+00 2.5000000e+00 7.8829999e+00 
1.2500000e+00 2.5000000e+00 8.1169996e+00 
7.5000000e-01 2.5000000e+00 8.1169996e+00 
7.5000000e-01 2.5000000e+00 8.0000000e+00 
0.0000000e+00 2.5000000e+00 7.8829999e+00 
0.0000000e+00 2.5000000e+00 8.1169996e+00 
1.2500000e+00 2.8000000e+00 8.1169996e+00 
1.2500000e+00 2.8000000e+00 7.8829999e+00 
0.0000000e+00 2.8000000e+00 7.8829999e+00 
0.0000000e+00 2.8000000e+00 8.1169996e+00 
7.5000000e-01 2.5000000e+00 8.3830004e+00 
1.2500000e+00 2.5000000e+00 8.3830004e+00 
1.2500000e+00 2.5000000e+00 8.6169996e+00 
7.5000000e-01 2.5000000e+00 8.6169996e+00 
7.5000000e-01 2.5000000e+00 8.5000000e+00 
0.0000000e+00 2.5000000e+00 8.3830004e+00 
0.0000000e+00 2.5000000e+00 8.6169996e+00 
1.2500000e+00 2.8000000e+00 8.6169996e+00 
1.2500000e+00 2.8000000e+00 8.3830004e+00 
0.0000000e+00 2.8000000e+00 8.3830004e+00 
0.0000000e+00 2.8000000e+00 8.6169996e+00 
7.5000000e-01 2.5000000e+00 8.8830004e+00 
1.2500000e+00 2.5000000e+00 8.8830004e+00 
1.2500000e+00 2.5000000e+00 9.1169996e+00 
7.5000000e-01 2.5000000e+00 9.1169996e+00 
7.5000000e-01 2.5000000e+00 9.0000000e+00 
0.0000000e+00 2.5000000e+00 8.8830004e+00 
0.0000000e+00 2.5000000e+00 9.1169996e+00 
1.2500000e+00 2.8000000e+00 9.1169996e+00 
1.2500000e+00 2.8000000e+00 8.8830004e+00 
0.0000000e+00 2.8000000e+00 8.8830004e+00 
0.0000000e+00 2.8000000e+00 9.1169996e+00 
7.5000000e-01 2.5000000e+00 9.3830004e+00 
1.2500000e+00 2.5000000e+00 9.3830004e+00 
1.2500000e+00 2.5000000e+00 9.6169996e+00 
7.5000000e-01 2.5000000e+00 9.6169996e+00 
7.5000000e-01 2.5000000e+00 9.5000000e+00 
0.0000000e+00 2.5000000e+00 9.3830004e+00 
0.0000000e+00 2.5000000e+00 9.6169996e+00 
1.2500000e+00 2.8000000e+00 9.6169996e+00 
1.2500000e+00 2.8000000e+00 9.3830004e+00 
0.0000000e+00 2.8000000e+00 9.3830004e+00 
0.0000000e+00 2.8000000e+00 9.6169996e+00 
7.5000000e-01 2.5000000e+00 9.8830004e+00 
1.2500000e+00 2.5000000e+00 9.8830004e+00 
1.2500000e+00 2.5000000e+00 1.0117000e+01 
[...]
POINT_DATA 1827
FIELD FieldData 2
DISPLACEMENT 3 1827  float
0.0000000e+00 0.0000000e+00 0.0000000e+00 
0.0000000e+00 0.0000000e+00 0.0000000e+00 
0.0000000e+00 0.0000000e+00 0.0000000e+00 
0.0000000e+00 0.0000000e+00 0.0000000e+00 
0.0000000e+00 1.4174468e-05 0.0000000e+00 
0.0000000e+00 8.9495478e-09 0.0000000e+00 
0.0000000e+00 1.8486775e-05 0.0000000e+00 
0.0000000e+00 3.0112659e-07 0.0000000e+00 
0.0000000e+00 7.8121986e-05 0.0000000e+00 
3.7100797e-08 7.8148354e-05 1.0134855e-08 
1.5802017e-09 7.7870296e-05 6.2761352e-09 
0.0000000e+00 7.7853889e-05 0.0000000e+00 
0.0000000e+00 7.7925222e-05 0.0000000e+00 
0.0000000e+00 7.7929391e-05 0.0000000e+00 
-2.6540819e-08 7.8092526e-05 -5.7099112e-09 
0.0000000e+00 7.8092686e-05 0.0000000e+00 
0.0000000e+00 7.7926008e-05 0.0000000e+00 
0.0000000e+00 7.7929828e-05 0.0000000e+00 
-1.7292881e-07 9.3252114e-05 1.9247454e-07 
-2.0542498e-07 9.2740745e-05 1.5733094e-07 
-1.9178452e-07 9.2805909e-05 1.5273837e-07 
-1.9497871e-07 9.3316565e-05 1.9205483e-07 
-1.7853154e-07 9.3289687e-05 1.8952937e-07 
0.0000000e+00 9.3656963e-05 0.0000000e+00 
0.0000000e+00 9.3679882e-05 0.0000000e+00 
1.0367538e-07 9.2825292e-05 8.2987214e-08 
9.5527703e-08 9.2755567e-05 8.3081929e-08 
0.0000000e+00 9.3644041e-05 0.0000000e+00 
0.0000000e+00 9.3670125e-05 0.0000000e+00 
-1.3811386e-07 9.8287928e-05 -6.5234752e-07 
-1.6339463e-07 9.8293742e-05 -1.3928192e-06 
1.9002064e-07 9.8182929e-05 -1.4190608e-06 
1.1763374e-07 9.8200668e-05 -6.6085562e-07 
-5.8314877e-09 9.8252545e-05 -6.5050091e-07 
0.0000000e+00 9.8149503e-05 0.0000000e+00 
0.0000000e+00 9.8108452e-05 0.0000000e+00 
1.6740228e-07 9.8193887e-05 -1.2367224e-06 
-1.7376223e-07 9.8304416e-05 -1.2413840e-06 
0.0000000e+00 9.8156794e-05 0.0000000e+00 
0.0000000e+00 9.8107084e-05 0.0000000e+00 
-3.6781866e-08 8.6061315e-05 -6.5371870e-07 
-4.1457579e-08 8.6292748e-05 -1.4110948e-06 
3.4065255e-07 8.6034393e-05 -1.4299289e-06 
2.1115173e-07 8.5883585e-05 -6.5138062e-07 
8.7243365e-08 8.5965679e-05 -6.4414536e-07 
0.0000000e+00 8.5767846e-05 0.0000000e+00 
0.0000000e+00 8.5691572e-05 0.0000000e+00 
1.6470436e-07 8.6056185e-05 -1.1048907e-06 
-1.7202899e-07 8.6276057e-05 -1.1055345e-06 
0.0000000e+00 8.5777654e-05 0.0000000e+00 
0.0000000e+00 8.5700063e-05 0.0000000e+00 
2.0436224e-07 4.1746745e-05 4.9033162e-07 
2.4384329e-07 4.2115731e-05 8.5707330e-07 
4.4078579e-08 4.1681491e-05 8.5688754e-07 
1.7768028e-09 4.1437397e-05 4.9792669e-07 
1.0597036e-07 4.1609048e-05 4.9229362e-07 
0.0000000e+00 4.1402505e-05 0.0000000e+00 
0.0000000e+00 4.1227613e-05 0.0000000e+00 
-1.5318817e-07 4.1724001e-05 1.3118967e-06 
5.3006712e-08 4.2072043e-05 1.3150559e-06 
0.0000000e+00 4.1383752e-05 0.0000000e+00 
0.0000000e+00 4.1298797e-05 0.0000000e+00 
-8.5249468e-08 -3.7997754e-05 -1.5849797e-07 
-9.6590647e-08 -3.8336733e-05 -1.7038596e-07 
-1.5002612e-07 -3.9378334e-05 -1.3631080e-07 
-1.5126622e-07 -3.8721028e-05 -1.2334260e-07 
-1.2130982e-07 -3.8378588e-05 -1.3111482e-07 
0.0000000e+00 -3.7555681e-05 0.0000000e+00 
0.0000000e+00 -3.7857466e-05 0.0000000e+00 
1.4076259e-07 -3.9285485e-05 9.4941430e-07 
1.9696128e-07 -3.8442555e-05 9.6545921e-07 
0.0000000e+00 -3.7676687e-05 0.0000000e+00 
0.0000000e+00 -3.7852693e-05 0.0000000e+00 
2.3026516e-07 -1.6438983e-04 -1.6424598e-07 
3.4997728e-07 -1.6357760e-04 1.6258097e-07 
1.3337916e-07 -1.6495804e-04 2.5994507e-07 
8.4006849e-08 -1.6516462e-04 -1.2714462e-07 
1.4713784e-07 -1.6481116e-04 -1.3235370e-07 
0.0000000e+00 -1.6463558e-04 0.0000000e+00 
0.0000000e+00 -1.6496310e-04 0.0000000e+00 
-1.8923049e-07 -1.6483972e-04 1.5055975e-06 
5.4296127e-08 -1.6383495e-04 1.5199605e-06 
0.0000000e+00 -1.6470338e-04 0.0000000e+00 
0.0000000e+00 -1.6496233e-04 0.0000000e+00 
6.8857167e-07 -3.0943859e-04 -2.7472956e-07 
8.8437702e-07 -3.0602718e-04 -5.9393921e-07 
9.1323295e-07 -3.0725292e-04 -5.0658758e-07 
6.9239292e-07 -3.1010646e-04 -2.1045823e-07 
6.5247673e-07 -3.0983106e-04 -2.2231228e-07 
0.0000000e+00 -3.1105417e-04 0.0000000e+00 
0.0000000e+00 -3.1134416e-04 0.0000000e+00 
-8.5049254e-07 -3.0731392e-04 6.5628956e-07 
-9.1033314e-07 -3.0642358e-04 6.6639944e-07 
0.0000000e+00 -3.1098962e-04 0.0000000e+00 
0.0000000e+00 -3.1119620e-04 0.0000000e+00 
5.5414813e-07 -3.8672992e-04 1.3527928e-07 
7.1542723e-07 -3.8411649e-04 3.0014610e-07 
6.6333962e-07 -3.8415293e-04 3.4874594e-07 
5.0054081e-07 -3.8668964e-04 1.9598453e-07 
4.9586737e-07 -3.8677247e-04 1.6377417e-07 
0.0000000e+00 -3.8781343e-04 0.0000000e+00 
0.0000000e+00 -3.8779242e-04 0.0000000e+00 
-8.0755274e-07 -3.8432161e-04 2.9862963e-07 
-7.1861086e-07 -3.8434536e-04 2.9672182e-07 
0.0000000e+00 -3.8775289e-04 0.0000000e+00 
0.0000000e+00 -3.8774605e-04 0.0000000e+00 
2.2965020e-07 -3.1246425e-04 -1.5905719e-06 
2.9775600e-07 -3.1017960e-04 -3.1732131e-06 
1.1202711e-06 -3.0947014e-04 -3.1211021e-06 
8.8424451e-07 -3.1205072e-04 -1.5672038e-06 
5.3456620e-07 -3.1231699e-04 -1.5692477e-06 
0.0000000e+00 -3.1383525e-04 0.0000000e+00 
0.0000000e+00 -3.1365611e-04 0.0000000e+00 
-3.0820374e-07 -3.0972390e-04 -3.7798425e-06 
-1.0967412e-06 -3.1022140e-04 -3.7740911e-06 
0.0000000e+00 -3.1367823e-04 0.0000000e+00 
0.0000000e+00 -3.1361112e-04 0.0000000e+00 
2.1072699e-07 -1.8680349e-04 7.1648934e-08 
2.9230031e-07 -1.8582086e-04 -2.8393339e-07 
5.8341999e-07 -1.8452262e-04 -2.8174512e-07 
3.7115763e-07 -1.8602019e-04 7.4516329e-08 
2.7631111e-07 -1.8641766e-04 6.1044815e-08 
0.0000000e+00 -1.8700764e-04 0.0000000e+00 
0.0000000e+00 -1.8668284e-04 0.0000000e+00 
-1.6754893e-07 -1.8477548e-04 -1.5435030e-06 
-4.0460122e-07 -1.8575718e-04 -1.5409971e-06 
0.0000000e+00 -1.8691910e-04 0.0000000e+00 
0.0000000e+00 -1.8667264e-04 0.0000000e+00 
1.4455534e-07 -7.3972253e-05 -6.4954143e-08 
2.4100396e-07 -7.3415285e-05 -1.8353711e-07 
3.4050231e-07 -7.2644310e-05 -1.8087785e-07 
2.3626434e-07 -7.3529380e-05 -6.9894739e-08 
1.8108359e-07 -7.3758063e-05 -7.9330917e-08 
0.0000000e+00 -7.4159718e-05 0.0000000e+00 
0.0000000e+00 -7.3965399e-05 0.0000000e+00 
-9.2129355e-08 -7.2798415e-05 -9.2962574e-07 
-2.0067985e-07 -7.3359282e-05 -9.3261531e-07 
0.0000000e+00 -7.4087759e-05 0.0000000e+00 
0.0000000e+00 -7.3974079e-05 0.0000000e+00 
6.6633663e-09 -6.8401714e-06 5.9670322e-07 
2.7675426e-08 -7.0707815e-06 1.1206399e-06 
-2.0270380e-07 -6.6336725e-06 1.1365271e-06 
-1.7185985e-07 -6.5448457e-06 6.0752433e-07 
-8.4465363e-08 -6.6963721e-06 5.9250658e-07 
0.0000000e+00 -6.4572437e-06 0.0000000e+00 
0.0000000e+00 -6.3460693e-06 0.0000000e+00 
-9.1641141e-08 -6.6834282e-06 6.4743790e-07 
1.2944837e-07 -7.0410561e-06 6.5017912e-07 
0.0000000e+00 -6.4442602e-06 0.0000000e+00 
0.0000000e+00 -6.3490079e-06 0.0000000e+00 
-3.5438259e-08 1.7104414e-05 2.8265373e-07 
-3.4833853e-08 1.6931077e-05 6.5116137e-07 
-2.0931701e-07 1.7042759e-05 6.6546062e-07 
-1.5092888e-07 1.7181910e-05 2.8526301e-07 
-9.1728573e-08 1.7146782e-05 2.8061180e-07 
0.0000000e+00 1.7273693e-05 0.0000000e+00 
0.0000000e+00 1.7303802e-05 0.0000000e+00 
-9.3114267e-08 1.7036982e-05 5.1722714e-07 
6.9448127e-08 1.6942735e-05 5.1862571e-07 
0.0000000e+00 1.7276489e-05 0.0000000e+00 
0.0000000e+00 1.7305267e-05 0.0000000e+00 
-4.8479421e-08 1.7006352e-05 1.3008054e-07 
-5.3463470e-08 1.6774989e-05 2.8351349e-07 
-1.3088717e-07 1.6743734e-05 2.7284307e-07 
-1.0050030e-07 1.6986643e-05 1.2413143e-07 
-7.0579944e-08 1.7003076e-05 1.2675679e-07 
0.0000000e+00 1.7100123e-05 0.0000000e+00 
0.0000000e+00 1.7093094e-05 0.0000000e+00 
1.0056438e-08 1.6765383e-05 3.0129286e-07 
8.1239371e-08 1.6786920e-05 2.9997301e-07 
0.0000000e+00 1.7092709e-05 0.0000000e+00 
0.0000000e+00 1.7091807e-05 0.0000000e+00 
-4.0751626e-08 1.1980431e-05 -1.4684520e-07 
-4.4082196e-08 1.1896564e-05 -3.2350948e-07 
3.4566472e-08 1.1874135e-05 -3.2891629e-07 
2.0325071e-08 1.1958939e-05 -1.5331338e-07 
-7.7181230e-09 1.1975079e-05 -1.4840151e-07 
0.0000000e+00 1.1946520e-05 0.0000000e+00 
0.0000000e+00 1.1935215e-05 0.0000000e+00 
7.3821610e-08 1.1883229e-05 -2.8919749e-07 
-6.3865317e-09 1.1907825e-05 -2.8998682e-07 
0.0000000e+00 1.1944152e-05 0.0000000e+00 
0.0000000e+00 1.1933991e-05 0.0000000e+00 
-1.0050699e-08 1.0887890e-05 -2.4492377e-07 
-9.1974890e-09 1.1032733e-05 -5.2143889e-07 
1.0926824e-07 1.1041257e-05 -5.1372552e-07 
8.7146994e-08 1.0885569e-05 -2.4669046e-07 
3.8418957e-08 1.0886457e-05 -2.4378414e-07 
0.0000000e+00 1.0733313e-05 0.0000000e+00 
0.0000000e+00 1.0733519e-05 0.0000000e+00 
2.3143945e-08 1.1029575e-05 -5.0668683e-07 
-1.0515762e-07 1.1033861e-05 -5.0598555e-07 
0.0000000e+00 1.0745887e-05 0.0000000e+00 
0.0000000e+00 1.0736555e-05 0.0000000e+00 
2.8884331e-08 1.0886194e-05 1.0286075e-07 
3.4478216e-08 1.1016297e-05 1.8690341e-07 
-3.8914592e-09 1.1026385e-05 1.9601922e-07 
-5.2698765e-09 1.0891385e-05 1.0704015e-07 
1.0644524e-08 1.0885421e-05 1.0392935e-07 
0.0000000e+00 1.0814711e-05 0.0000000e+00 
0.0000000e+00 1.0815926e-05 0.0000000e+00 
-7.7137315e-08 1.1016786e-05 1.7767492e-07 
-3.5822833e-08 1.1007025e-05 1.7842333e-07 
0.0000000e+00 1.0819150e-05 0.0000000e+00 
0.0000000e+00 1.0825155e-05 0.0000000e+00 
4.5863327e-08 7.4096638e-06 3.5435707e-07 
5.5726549e-08 7.3972192e-06 7.1538307e-07 
-1.1370840e-07 7.3902715e-06 7.2283956e-07 
-8.9324367e-08 7.4159507e-06 3.5516985e-07 
-2.0435870e-08 7.4112831e-06 3.5135881e-07 
0.0000000e+00 7.4325417e-06 0.0000000e+00 
0.0000000e+00 7.4377740e-06 0.0000000e+00 
-1.0026465e-07 7.3980982e-06 6.9945338e-07 
7.2017144e-08 7.3896504e-06 7.0194318e-07 
0.0000000e+00 7.4329778e-06 0.0000000e+00 
0.0000000e+00 7.4431000e-06 0.0000000e+00 
5.7588611e-08 1.5930987e-06 3.0877496e-07 
7.2386307e-08 1.6169212e-06 6.6010227e-07 
-9.3620926e-08 1.6219246e-06 6.5820882e-07 
-6.3321373e-08 1.5959448e-06 3.0657321e-07 
-2.1979389e-09 1.5951022e-06 3.0482494e-07 
0.0000000e+00 1.5597209e-06 0.0000000e+00 
0.0000000e+00 1.5643263e-06 0.0000000e+00 
-1.0269719e-07 1.6270260e-06 6.3340593e-07 
6.0807629e-08 1.6160164e-06 6.3283215e-07 
0.0000000e+00 1.5612784e-06 0.0000000e+00 
0.0000000e+00 1.5701810e-06 0.0000000e+00 
2.6625136e-08 -2.9269502e-06 -1.5978119e-07 
3.1186797e-08 -2.7385895e-06 -2.9486586e-07 
9.6292680e-08 -2.7824553e-06 -3.0661835e-07 
7.7814505e-08 -2.9595119e-06 -1.6251819e-07 
5.0830376e-08 -2.9423084e-06 -1.5968578e-07 
0.0000000e+00 -3.0899780e-06 0.0000000e+00 
0.0000000e+00 -3.1002171e-06 0.0000000e+00 
-1.3264051e-08 -2.7844126e-06 -2.4373446e-07 
-7.8146726e-08 -2.7434623e-06 -2.4604574e-07 
0.0000000e+00 -3.0799524e-06 0.0000000e+00 
0.0000000e+00 -3.0923670e-06 0.0000000e+00 
1.6389177e-09 -3.9740548e-06 -2.5840023e-07 
-2.4836049e-09 -3.8542880e-06 -5.0685622e-07 
1.1329306e-07 -3.9094575e-06 -5.0902031e-07 
9.2036196e-08 -4.0127675e-06 -2.5971812e-07 
4.6749921e-08 -3.9947940e-06 -2.5635322e-07 
0.0000000e+00 -4.0917021e-06 0.0000000e+00 
0.0000000e+00 -4.1063249e-06 0.0000000e+00 
4.2609898e-08 -3.9096749e-06 -4.3696681e-07 
-7.1366053e-08 -3.8594003e-06 -4.3797647e-07 
0.0000000e+00 -4.0886061e-06 0.0000000e+00 
0.0000000e+00 -4.1095418e-06 0.0000000e+00 
-2.4704066e-08 -2.9454809e-06 -2.7019783e-07 
-3.2131140e-08 -2.8548716e-06 -5.6380395e-07 
1.0206166e-07 -2.9017899e-06 -5.4106698e-07 
7.4006699e-08 -2.9758351e-06 -2.6785867e-07 
2.3308063e-08 -2.9635073e-06 -2.6658719e-07 
0.0000000e+00 -2.9958371e-06 0.0000000e+00 
0.0000000e+00 -3.0085282e-06 0.0000000e+00 
5.0574151e-08 -2.9081605e-06 -4.9093148e-07 
-7.8207130e-08 -2.8667480e-06 -4.8739827e-07 
0.0000000e+00 -2.9960279e-06 0.0000000e+00 
0.0000000e+00 -3.0114002e-06 0.0000000e+00 
1.1663539e-08 -1.7266646e-06 1.3295900e-07 
1.6414841e-08 -1.8086710e-06 2.3968582e-07 
-3.3527122e-08 -1.7817089e-06 2.3861651e-07 
-3.1550787e-08 -1.7039717e-06 1.3295073e-07 
-9.9927959e-09 -1.7149811e-06 1.3145323e-07 
0.0000000e+00 -1.6471461e-06 0.0000000e+00 
0.0000000e+00 -1.6386502e-06 0.0000000e+00 
9.9216457e-09 -1.7803881e-06 2.0417296e-07 
5.9778273e-08 -1.8068763e-06 2.0483233e-07 
0.0000000e+00 -1.6521452e-06 0.0000000e+00 
0.0000000e+00 -1.6420079e-06 0.0000000e+00 
-6.1992425e-09 -3.1144928e-08 1.4316099e-07 
-1.1392763e-08 -1.5132213e-07 2.7288624e-07 
-6.9818427e-08 -1.0442812e-07 2.6922450e-07 
-5.3561688e-08 -6.1553179e-10 1.4202980e-07 
-2.8810646e-08 -1.4938314e-08 1.4086508e-07 
0.0000000e+00 6.1524247e-08 0.0000000e+00 
0.0000000e+00 7.2574394e-08 0.0000000e+00 
-1.9952757e-09 -1.0303924e-07 2.1736585e-07 
5.5973750e-08 -1.4215792e-07 2.1694454e-07 
0.0000000e+00 5.7417726e-08 0.0000000e+00 
0.0000000e+00 7.0052330e-08 0.0000000e+00 
6.9312409e-09 1.9165934e-06 1.2264992e-07 
-3.0533862e-09 1.8677616e-06 2.5903066e-07 
-5.7347286e-08 1.9076667e-06 2.5528200e-07 
-3.7973496e-08 1.9419874e-06 1.2168034e-07 
-1.5387549e-08 1.9296092e-06 1.2079256e-07 
0.0000000e+00 1.9583517e-06 0.0000000e+00 
0.0000000e+00 1.9708546e-06 0.0000000e+00 
-2.9334275e-08 1.9076651e-06 2.0976088e-07 
3.1063106e-08 1.8744754e-06 2.0868974e-07 
0.0000000e+00 1.9596584e-06 0.0000000e+00 
0.0000000e+00 1.9702188e-06 0.0000000e+00 
-2.2255364e-08 2.4862406e-06 -3.9489148e-08 
-2.3845475e-08 2.4483120e-06 -5.5327682e-08 
-1.4096083e-08 2.4293849e-06 -5.5305314e-08 
-1.3586209e-08 2.4717062e-06 -3.7640181e-08 
-1.7786864e-08 2.4773676e-06 -3.7995651e-08 
0.0000000e+00 2.5217967e-06 0.0000000e+00 
0.0000000e+00 2.5153220e-06 0.0000000e+00 
8.5655438e-09 2.4308868e-06 -3.4167385e-08 
4.8527399e-10 2.4480817e-06 -3.3931133e-08 
0.0000000e+00 2.5209122e-06 0.0000000e+00 
0.0000000e+00 2.5157303e-06 0.0000000e+00 
-9.2165688e-09 4.9021708e-07 -8.0498793e-08 
-1.2695062e-08 5.3164837e-07 -1.6446131e-07 
2.5185036e-08 4.9321949e-07 -1.6447414e-07 
1.8783419e-08 4.6413030e-07 -8.0357474e-08 
4.4259050e-09 4.7728707e-07 -7.9317076e-08 
0.0000000e+00 4.4945256e-07 0.0000000e+00 
0.0000000e+00 4.3776478e-07 0.0000000e+00 
4.3049879e-09 4.9546776e-07 -1.1977954e-07 
-3.2415773e-08 5.2747447e-07 -1.2007402e-07 
0.0000000e+00 4.4959822e-07 0.0000000e+00 
0.0000000e+00 4.3993956e-07 0.0000000e+00 
4.9523332e-09 -1.5221790e-06 -6.5388122e-08 
3.6981846e-09 -1.4704858e-06 -1.3757068e-07 
3.7204799e-08 -1.4909472e-06 -1.4071280e-07 
2.9723061e-08 -1.5357931e-06 -6.7459084e-08 
1.7311994e-08 -1.5278873e-06 -6.5580089e-08 
0.0000000e+00 -1.5904495e-06 0.0000000e+00 
0.0000000e+00 -1.5952244e-06 0.0000000e+00 
6.2328804e-09 -1.4889597e-06 -1.1379463e-07 
-2.6076108e-08 -1.4716244e-06 -1.1470077e-07 
0.0000000e+00 -1.5881192e-06 0.0000000e+00 
0.0000000e+00 -1.5944373e-06 0.0000000e+00 
3.4121568e-09 -1.5090245e-06 -3.1107987e-08 
3.7260657e-09 -1.4874753e-06 -6.3314346e-08 
1.8789169e-08 -1.4869169e-06 -6.3194818e-08 
1.5337896e-08 -1.5089053e-06 -3.1204518e-08 
9.1551948e-09 -1.5092915e-06 -3.0862136e-08 
0.0000000e+00 -1.5332362e-06 0.0000000e+00 
0.0000000e+00 -1.5324260e-06 0.0000000e+00 
4.8955702e-09 -1.4881192e-06 -6.2148068e-08 
-1.0175261e-08 -1.4878391e-06 -6.2182743e-08 
0.0000000e+00 -1.5318271e-06 0.0000000e+00 
0.0000000e+00 -1.5327810e-06 0.0000000e+00 
1.9945521e-09 -3.6369073e-07 3.7583057e-08 
2.5557669e-09 -3.7765869e-07 7.9671892e-08 
-1.8707702e-08 -3.6274244e-07 8.1768000e-08 
-1.1997100e-08 -3.5389959e-07 3.7862964e-08 
-4.9216440e-09 -3.5926607e-07 3.7222804e-08 
0.0000000e+00 -3.4932182e-07 0.0000000e+00 
0.0000000e+00 -3.4553850e-07 0.0000000e+00 
-9.1035295e-09 -3.6416523e-07 6.2769068e-08 
9.8426094e-09 -3.7657662e-07 6.2878762e-08 
0.0000000e+00 -3.5045491e-07 0.0000000e+00 
0.0000000e+00 -3.4648684e-07 0.0000000e+00 
-9.0090113e-09 6.6495437e-07 9.5892805e-09 
-1.1972149e-08 6.3616397e-07 2.1245558e-08 
-1.6998101e-08 6.4362484e-07 2.1692431e-08 
-1.2452138e-08 6.6905363e-07 1.0082210e-08 
-1.0591102e-08 6.6687613e-07 9.6934549e-09 
0.0000000e+00 6.9088566e-07 0.0000000e+00 
0.0000000e+00 6.9218203e-07 0.0000000e+00 
7.1567730e-10 6.4347967e-07 1.3683788e-08 
5.4883014e-09 6.3797597e-07 1.3728615e-08 
0.0000000e+00 6.9026152e-07 0.0000000e+00 
0.0000000e+00 6.9201644e-07 0.0000000e+00 
-4.4584416e-09 8.2610126e-07 1.0282082e-08 
-6.9915114e-09 8.1505601e-07 2.1341828e-08 
-1.0991551e-08 8.1113376e-07 2.1344325e-08 
-8.7422807e-09 8.2327631e-07 1.0511840e-08 
-6.5818178e-09 8.2469739e-07 1.0377618e-08 
0.0000000e+00 8.3673223e-07 0.0000000e+00 
0.0000000e+00 8.3556154e-07 0.0000000e+00 
-3.5649637e-09 8.1201540e-07 2.5083240e-08 
1.8682984e-09 8.1497569e-07 2.5065017e-08 
0.0000000e+00 8.3636274e-07 0.0000000e+00 
0.0000000e+00 8.3615532e-07 0.0000000e+00 
3.7119878e-09 2.1029837e-07 -8.2006117e-09 
4.1028358e-09 2.2583814e-07 -2.0024235e-08 
9.4420640e-09 2.1882062e-07 -2.0080931e-08 
6.9276278e-09 2.0577234e-07 -8.4115044e-09 
5.2340847e-09 2.0813471e-07 -8.1739788e-09 
0.0000000e+00 1.9843901e-07 0.0000000e+00 
0.0000000e+00 1.9622824e-07 0.0000000e+00 
3.4428221e-10 2.1918869e-07 -1.2123007e-08 
-4.4594142e-09 2.2471457e-07 -1.2148918e-08 
0.0000000e+00 1.9843706e-07 0.0000000e+00 
0.0000000e+00 1.9720243e-07 0.0000000e+00 
-1.3772551e-09 -4.2137901e-07 -3.4413137e-08 
-2.1692357e-09 -4.0827018e-07 -7.3403470e-08 
1.4715940e-08 -4.1668508e-07 -7.3225593e-08 
1.1443180e-08 -4.2684329e-07 -3.4654761e-08 
4.9720867e-09 -4.2403593e-07 -3.4109622e-08 
0.0000000e+00 -4.3710239e-07 0.0000000e+00 
0.0000000e+00 -4.3955671e-07 0.0000000e+00 
7.4942150e-09 -4.1632123e-07 -6.2447043e-08 
-1.0028194e-08 -4.0894864e-07 -6.2509770e-08 
0.0000000e+00 -4.3685878e-07 0.0000000e+00 
0.0000000e+00 -4.3973697e-07 0.0000000e+00 
-6.6823720e-11 -5.0346642e-07 -1.3539180e-08 
-9.8254183e-10 -4.9427734e-07 -2.9183624e-08 
6.2135816e-09 -4.9521304e-07 -2.9104980e-08 
5.4166511e-09 -5.0413911e-07 -1.3727443e-08 
2.6927809e-09 -5.0378748e-07 -1.3501498e-08 
0.0000000e+00 -5.1460802e-07 0.0000000e+00 
0.0000000e+00 -5.1473660e-07 0.0000000e+00 
9.2259922e-10 -4.9541080e-07 -2.7369786e-08 
-6.1840586e-09 -4.9443287e-07 -2.7461784e-08 
0.0000000e+00 -5.1405323e-07 0.0000000e+00 
0.0000000e+00 -5.1475484e-07 0.0000000e+00 
-7.6694151e-10 -1.2738734e-07 -1.0419790e-08 
-1.3755723e-09 -1.1942539e-07 -2.3738346e-08 
4.7028941e-09 -1.1855442e-07 -2.3206027e-08 
3.7466759e-09 -1.2617518e-07 -1.0426386e-08 
1.4507879e-09 -1.2681843e-07 -1.0401251e-08 
0.0000000e+00 -1.3239325e-07 0.0000000e+00 
0.0000000e+00 -1.3196593e-07 0.0000000e+00 
3.7448544e-10 -1.1900178e-07 -2.4133801e-08 
-5.6176583e-09 -1.1992637e-07 -2.4133458e-08 
0.0000000e+00 -1.3183684e-07 0.0000000e+00 
0.0000000e+00 -1.3190760e-07 0.0000000e+00 
-1.7007995e-09 2.2623695e-07 -4.3183070e-09 
-1.7792585e-09 2.2390316e-07 -9.7653725e-09 
1.1089097e-09 2.2498764e-07 -9.6977333e-09 
2.2095574e-10 2.2668532e-07 -4.1043005e-09 
-7.9391321e-10 2.2633316e-07 -4.1794639e-09 
0.0000000e+00 2.3068189e-07 0.0000000e+00 
0.0000000e+00 2.3084564e-07 0.0000000e+00 
2.0507287e-09 2.2463142e-07 -1.0382182e-08 
-5.5608596e-10 2.2398754e-07 -1.0338606e-08 
0.0000000e+00 2.3063167e-07 0.0000000e+00 
0.0000000e+00 2.3077118e-07 0.0000000e+00 
1.7736663e-09 2.1796976e-07 6.8656236e-09 
2.5429074e-09 2.2052781e-07 1.3706856e-08 
-5.5572252e-10 2.2025016e-07 1.3916563e-08 
-8.7086011e-10 2.1765651e-07 6.9911299e-09 
4.0801590e-10 2.1770538e-07 6.8664350e-09 
0.0000000e+00 2.1864383e-07 0.0000000e+00 
0.0000000e+00 2.1853354e-07 0.0000000e+00 
-2.2045763e-09 2.2004177e-07 1.3858515e-08 
1.0562897e-09 2.2021354e-07 1.3943665e-08 
0.0000000e+00 2.1860372e-07 0.0000000e+00 
0.0000000e+00 2.1870410e-07 0.0000000e+00 
4.6378287e-10 -5.8449352e-08 1.0973685e-09 
4.3496537e-10 -5.7174852e-08 3.3157403e-09 
-7.0226147e-10 -5.9024558e-08 3.1861302e-09 
-3.2261291e-10 -5.9698024e-08 9.8752917e-10 
1.1442880e-10 -5.8964012e-08 1.0491932e-09 
0.0000000e+00 -6.1173850e-08 0.0000000e+00 
0.0000000e+00 -6.1760957e-08 0.0000000e+00 
-1.2000263e-09 -5.8711528e-08 5.0565530e-09 
-9.9091325e-11 -5.7244765e-08 5.0207136e-09 
0.0000000e+00 -6.1213349e-08 0.0000000e+00 
0.0000000e+00 -6.1603416e-08 0.0000000e+00 
0.0000000e+00 6.7563647e-05 0.0000000e+00 
0.0000000e+00 -4.7921411e-08 0.0000000e+00 
9.6689906e-11 -2.0278728e-07 8.5456094e-11 
-1.3404233e-11 -2.0264606e-07 -1.0815371e-11 
0.0000000e+00 -2.0263151e-07 0.0000000e+00 