# vtk DataFile Version 4.0
vtk output
ASCII
DATASET UNSTRUCTURED_GRID
POINTS 1827 float
0.0000000e+00 0.0000000e+00 0.0000000e+00 
0.0000000e+00 0.0000000e+00 2.0000000e+01 
3.4700000e+00 0.0000000e+00 0.0000000e+00 
3.4700000e+00 0.0000000e+00 2.0000000e+01 
3.4700000e+00 1.0000000e+00 0.0000000e+00 
3.4700000e+00 1.0000000e+00 2.0000000e+01 
0.0000000e+00 1.0000000e+00 0.0000000e+00 
0.0000000e+00 1.0000000e+00 2.0000000e+01 
1.2500000e+00 2.5000000e+00 0.0000000e+00 
1.2500000e+00 2.5000000e+00 1.1700000e-01 
7.5000000e-01 2.5000000e+00 1.1700000e-01 
7.5000000e-01 2.5000000e+00 0.0000000e+00 
0.0000000e+00 2.5000000e+00 0.0000000e+00 
0.0000000e+00 2.5000000e+00 1.1700000e-01 
1.2500000e+00 2.8000000e+00 1.1700000e-01 
1.2500000e+00 2.8000000e+00 0.0000000e+00 
0.0000000e+00 2.8000000e+00 0.0000000e+00 
0.0000000e+00 2.8000000e+00 1.1700000e-01 
7.5000000e-01 2.5000000e+00 3.8299999e-01 
1.2500000e+00 2.5000000e+00 3.8299999e-01 
1.2500000e+00 2.5000000e+00 6.1699998e-01 
7.5000000e-01 2.5000000e+00 6.1699998e-01 
7.5000000e-01 2.5000000e+00 5.0000000e-01 
0.0000000e+00 2.5000000e+00 3.8299999e-01 
0.0000000e+00 2.5000000e+00 6.1699998e-01 
1.2500000e+00 2.8000000e+00 6.1699998e-01 
1.2500000e+00 2.8000000e+00 3.8299999e-01 
0.0000000e+00 2.8000000e+00 3.8299999e-01 
0.0000000e+00 2.8000000e+00 6.1699998e-01 
7.5000000e-01 2.5000000e+00 8.8300002e-01 
1.2500000e+00 2.5000000e+00 8.8300002e-01 
1.2500000e+00 2.5000000e+00 1.1170000e+00 
7.5000000e-01 2.5000000e+00 1.1170000e+00 
7.5000000e-01 2.5000000e+00 1.0000000e+00 
0.0000000e+00 2.5000000e+00 8.8300002e-01 
0.0000000e+00 2.5000000e+00 1.1170000e+00 
1.2500000e+00 2.8000000e+00 1.1170000e+00 
1.2500000e+00 2.8000000e+00 8.8300002e-01 
0.0000000e+00 2.8000000e+00 8.8300002e-01 
0.0000000e+00 2.8000000e+00 1.1170000e+00 
7.5000000e-01 2.5000000e+00 1.3830000e+00 
1.2500000e+00 2.5000000e+00 1.3830000e+00 
1.2500000e+00 2.5000000e+00 1.6170000e+00 
7.5000000e-01 2.5000000e+00 1.6170000e+00 
7.5000000e-01 2.5000000e+00 1.5000000e+00 
0.0000000e+00 2.5000000e+00 1.3830000e+00 
0.0000000e+00 2.5000000e+00 1.6170000e+00 
1.2500000e+00 2.8000000e+00 1.6170000e+00 
1.2500000e+00 2.8000000e+00 1.3830000e+00 
0.0000000e+00 2.8000000e+00 1.3830000e+00 
0.0000000e+00 2.8000000e+00 1.6170000e+00 
7.5000000e-01 2.5000000e+00 1.8830000e+00 
1.2500000e+00 2.5000000e+00 1.8830000e+00 
1.2500000e+00 2.5000000e+00 2.1170001e+00 
7.5000000e-01 2.5000000e+00 2.1170001e+00 
7.5000000e-01 2.5000000e+00 2.0000000e+00 
0.0000000e+00 2.5000000e+00 1.8830000e+00 
0.0000000e+00 2.5000000e+00 2.1170001e+00 
1.2500000e+00 2.8000000e+00 2.1170001e+00 
1.2500000e+00 2.8000000e+00 1.8830000e+00 
0.0000000e+00 2.8000000e+00 1.8830000e+00 
0.0000000e+00 2.8000000e+00 2.1170001e+00 
7.5000000e-01 2.5000000e+00 2.3829999e+00 
1.2500000e+00 2.5000000e+00 2.3829999e+00 
1.2500000e+00 2.5000000e+00 2.6170001e+00 
7.5000000e-01 2.5000000e+00 2.6170001e+00 
7.5000000e-01 2.5000000e+00 2.5000000e+00 
0.0000000e+00 2.5000000e+00 2.3829999e+00 
0.0000000e+00 2.5000000e+00 2.6170001e+00 
1.2500000e+00 2.8000000e+00 2.6170001e+00 
1.2500000e+00 2.8000000e+00 2.3829999e+00 
0.0000000e+00 2.8000000e+00 2.3829999e+00 
0.0000000e+00 2.8000000e+00 2.6170001e+00 
7.5000000e-01 2.5000000e+00 2.8829999e+00 
1.2500000e+00 2.5000000e+00 2.8829999e+00 
1.2500000e+00 2.5000000e+00 3.1170001e+00 
7.5000000e-01 2.5000000e+00 3.1170001e+00 
7.5000000e-01 2.5000000e+00 3.0000000e+00 
0.0000000e+00 2.5000000e+00 2.8829999e+00 
0.0000000e+00 2.5000000e+00 3.1170001e+00 
1.2500000e+00 2.8000000e+00 3.1170001e+00 
1.2500000e+00 2.8000000e+00 2.8829999e+00 
0.0000000e+00 2.8000000e+00 2.8829999e+00 
0.0000000e+00 2.8000000e+00 3.1170001e+00 
7.5000000e-01 2.5000000e+00 3.3829999e+00 
1.2500000e+00 2.5000000e+00 3.3829999e+00 
1.2500000e+00 2.5000000e+00 3.6170001e+00 
7.5000000e-01 2.5000000e+00 3.6170001e+00 
7.5000000e-01 2.5000000e+00 3.5000000e+00 
0.0000000e+00 2.5000000e+00 3.3829999e+00 
0.0000000e+00 2.5000000e+00 3.6170001e+00 
1.2500000e+00 2.8000000e+00 3.6170001e+00 
1.2500000e+00 2.8000000e+00 3.3829999e+00 
0.0000000e+00 2.8000000e+00 3.3829999e+00 
0.0000000e+00 2.8000000e+00 3.6170001e+00 
7.5000000e-01 2.5000000e+00 3.8829999e+00 
1.2500000e+00 2.5000000e+00 3.8829999e+00 
1.2500000e+00 2.5000000e+00 4.1170001e+00 
7.5000000e-01 2.5000000e+00 4.1170001e+00 
7.5000000e-01 2.5000000e+00 4.0000000e+00 
0.0000000e+00 2.5000000e+00 3.8829999e+00 
0.0000000e+00 2.5000000e+00 4.1170001e+00 
1.2500000e+00 2.8000000e+00 4.1170001e+00 
1.2500000e+00 2.8000000e+00 3.8829999e+00 
0.0000000e+00 2.8000000e+00 3.8829999e+00 
0.0000000e+00 2.8000000e+00 4.1170001e+00 
7.5000000e-01 2.5000000e+00 4.3829999e+00 
1.2500000e+00 2.5000000e+00 4.3829999e+00 
1.2500000e+00 2.5000000e+00 4.6170001e+00 
7.5000000e-01 2.5000000e+00 4.6170001e+00 
7.5000000e-01 2.5000000e+00 4.5000000e+00 
0.0000000e+00 2.5000000e+00 4.3829999e+00 
0.0000000e+00 2.5000000e+00 4.6170001e+00 
1.2500000e+00 2.8000000e+00 4.6170001e+00 
1.2500000e+00 2.8000000e+00 4.3829999e+00 
0.0000000e+00 2.8000000e+00 4.3829999e+00 
0.0000000e+00 2.8000000e+00 4.6170001e+00 
7.5000000e-01 2.5000000e+00 4.8829999e+00 
1.2500000e+00 2.5000000e+00 4.8829999e+00 
1.2500000e+00 2.5000000e+00 5.1170001e+00 
7.5000000e-01 2.5000000e+00 5.1170001e+00 
7.5000000e-01 2.5000000e+00 5.0000000e+00 
0.0000000e+00 2.5000000e+00 4.8829999e+00 
0.0000000e+00 2.5000000e+00 5.1170001e+00 
1.2500000e+00 2.8000000e+00 5.1170001e+00 
1.2500000e+00 2.8000000e+00 4.8829999e+00 
0.0000000e+00 2.8000000e+00 4.8829999e+00 
0.0000000e+00 2.8000000e+00 5.1170001e+00 
7.5000000e-01 2.5000000e+00 5.3829999e+00 
1.2500000e+00 2.5000000e+00 5.3829999e+00 
1.2500000e+00 2.5000000e+00 5.6170001e+00 
7.5000000e-01 2.5000000e+00 5.6170001e+00 
7.5000000e-01 2.5000000e+00 5.5000000e+00 
0.0000000e+00 2.5000000e+00 5.3829999e+00 
0.0000000e+00 2.5000000e+00 5.6170001e+00 
1.2500000e+00 2.8000000e+00 5.6170001e+00 
1.2500000e+00 2.8000000e+00 5.3829999e+00 
0.0000000e+00 2.8000000e+00 5.3829999e+00 
0.0000000e+00 2.8000000e+00 5.6170001e+00 
7.5000000e-01 2.5000000e+00 5.8829999e+00 
1.2500000e+00 2.5000000e+00 5.8829999e+00 
1.2500000e+00 2.5000000e+00 6.1170001e+00 
7.5000000e-01 2.5000000e+00 6.1170001e+00 
7.5000000e-01 2.5000000e+00 6.0000000e+00 
0.0000000e+00 2.5000000e+00 5.8829999e+00 
0.0000000e+00 2.5000000e+00 6.1170001e+00 
1.2500000e+00 2.8000000e+00 6.1170001e+00 
1.2500000e+00 2.8000000e+00 5.8829999e+00 
0.0000000e+00 2.8000000e+00 5.8829999e+00 
0.0000000e+00 2.8000000e+00 6.1170001e+00 
7.5000000e-01 2.5000000e+00 6.3829999e+00 
1.2500000e+00 2.5000000e+00 6.3829999e+00 
1.2500000e+00 2.5000000e+00 6.6170001e+00 
7.5000000e-01 2.5000000e+00 6.6170001e+00 
7.5000000e-01 2.5000000e+00 6.5000000e+00 
0.0000000e+00 2.5000000e+00 6.3829999e+00 
0.0000000e+00 2.5000000e+00 6.6170001e+00 
1.2500000e+00 2.8000000e+00 6.6170001e+00 
1.2500000e+00 2.8000000e+00 6.3829999e+00 
0.0000000e+00 2.8000000e+00 6.3829999e+00 
0.0000000e+00 2.8000000e+00 6.6170001e+00 
7.5000000e-01 2.5000000e+00 6.8829999e+00 
1.2500000e+00 2.5000000e+00 6.8829999e+00 
1.2500000e+00 2.5000000e+00 7.1170001e+00 
7.5000000e-01 2.5000000e+00 7.1170001e+00 
7.5000000e-01 2.5000000e+00 7.0000000e+00 
0.0000000e+00 2.5000000e+00 6.8829999e+00 
0.0000000e+00 2.5000000e+00 7.1170001e+00 
1.2500000e+00 2.8000000e+00 7.1170001e+00 
1.2500000e+00 2.8000000e+00 6.8829999e+00 
0.0000000e+00 2.8000000e+00 6.8829999e+00 
0.0000000e+00 2.8000000e+00 7.1170001e+00 
7.5000000e-01 2.5000000e+00 7.3829999e+00 
1.2500000e+00 2.5000000e+00 7.3829999e+00 
1.2500000e+00 2.5000000e+00 7.6170001e+00 
7.5000000e-01 2.5000000e+00 7.6170001e+00 
7.5000000e-01 2.5000000e+00 7.5000000e+00 
0.0000000e+00 2.5000000e+00 7.3829999e+00 
0.0000000e+00 2.5000000e+00 7.6170001e+00 
1.2500000e+00 2.8000000e+00 7.6170001e+00 
1.2500000e+00 2.8000000e+00 7.3829999e+00 
0.0000000e+00 2.8000000e+00 7.3829999e+00 
0.0000000e+00 2.8000000e+00 7.6170001e+00 
7.5000000e-01 2.5000000e+00 7.8829999e+00 
1.2500000e+00 2.5000000e+00 7.8829999e+00 
1.2500000e+00 2.5000000e+00 8.1169996e+00 
7.5000000e-01 2.5000000e+00 8.1169996e+00 
7.5000000e-01 2.5000000e+00 8.0000000e+00 
0.0000000e+00 2.5000000e+00 7.8829999e+00 
0.0000000e+00 2.5000000e+00 8.1169996e+00 
1.2500000e+00 2.8000000e+00 8.1169996e+00 
1.2500000e+00 2.8000000e+00 7.8829999e+00 
0.0000000e+00 2.8000000e+00 7.8829999e+00 
0.0000000e+00 2.8000000e+00 8.1169996e+00 
7.5000000e-01 2.5000000e+00 8.3830004e+00 
1.2500000e+00 2.5000000e+00 8.3830004e+00 
1.2500000e+00 2.5000000e+00 8.6169996e+00 
7.5000000e-01 2.5000000e+00 8.6169996e+00 
7.5000000e-01 2.5000000e+00 8.5000000e+00 
0.0000000e+00 2.5000000e+00 8.3830004e+00 
0.0000000e+00 2.5000000e+00 8.6169996e+00 
1.2500000e+00 2.8000000e+00 8.6169996e+00 
1.2500000e+00 2.8000000e+00 8.3830004e+00 
0.0000000e+00 2.8000000e+00 8.3830004e+00 
0.0000000e+00 2.8000000e+00 8.6169996e+00 
7.5000000e-01 2.5000000e+00 8.8830004e+00 
1.2500000e+00 2.5000000e+00 8.8830004e+00 
1.2500000e+00 2.5000000e+00 9.1169996e+00 
7.5000000e-01 2.5000000e+00 9.1169996e+00 
7.5000000e-01 2.5000000e+00 9.0000000e+00 
0.0000000e+00 2.5000000e+00 8.8830004e+00 
0.0000000e+00 2.5000000e+00 9.1169996e+00 
1.2500000e+00 2.8000000e+00 9.1169996e+00 
1.2500000e+00 2.8000000e+00 8.8830004e+00 
0.0000000e+00 2.8000000e+00 8.8830004e+00 
0.0000000e+00 2.8000000e+00 9.1169996e+00 
7.5000000e-01 2.5000000e+00 9.3830004e+00 
1.2500000e+00 2.5000000e+00 9.3830004e+00 
1.2500000e+00 2.5000000e+00 9.6169996e+00 
7.5000000e-01 2.5000000e+00 9.6169996e+00 
7.5000000e-01 2.5000000e+00 9.5000000e+00 
0.0000000e+00 2.5000000e+00 9.3830004e+00 
0.0000000e+00 2.5000000e+00 9.6169996e+00 
1.2500000e+00 2.8000000e+00 9.6169996e+00 
1.2500000e+00 2.8000000e+00 9.3830004e+00 
0.0000000e+00 2.8000000e+00 9.3830004e+00 
0.0000000e+00 2.8000000e+00 9.6169996e+00 
7.5000000e-01 2.5000000e+00 9.8830004e+00 
1.2500000e+00 2.5000000e+00 9.8830004e+00 
1.2500000e+00 2.5000000e+00 1.0117000e+01 
[...]
POINT_DATA 1827
FIELD FieldData 2
DISPLACEMENT 3 1827  float
0.0000000e+00 0.0000000e+00 0.0000000e+00 
0.0000000e+00 0.0000000e+00 0.0000000e+00 
0.0000000e+00 0.0000000e+00 0.0000000e+00 
0.0000000e+00 0.0000000e+00 0.0000000e+00 
0.0000000e+00 -1.1297588e-05 0.0000000e+00 
0.0000000e+00 -3.9545956e-08 0.0000000e+00 
0.0000000e+00 -2.3550774e-05 0.0000000e+00 
0.0000000e+00 1.9198844e-06 0.0000000e+00 
0.0000000e+00 4.0554869e-06 0.0000000e+00 
-2.1947708e-09 4.0452765e-06 -8.2715994e-09 
-3.6164076e-09 4.1597145e-06 -1.7880345e-11 
0.0000000e+00 4.1625703e-06 0.0000000e+00 
0.0000000e+00 4.2597790e-06 0.0000000e+00 
0.0000000e+00 4.2551947e-06 0.0000000e+00 
1.1135074e-08 4.0723562e-06 -7.7666129e-10 
0.0000000e+00 4.0738551e-06 0.0000000e+00 
0.0000000e+00 4.2587271e-06 0.0000000e+00 
0.0000000e+00 4.2572965e-06 0.0000000e+00 
-3.4701031e-08 -2.4130147e-06 1.8404548e-07 
-8.0274710e-08 -2.4007602e-06 3.9908048e-07 
-1.7105396e-07 -2.4677911e-06 3.9425265e-07 
-1.1758837e-07 -2.4597950e-06 1.8728652e-07 
-7.6106431e-08 -2.4354456e-06 1.8454016e-07 
0.0000000e+00 -2.4299986e-06 0.0000000e+00 
0.0000000e+00 -2.4606550e-06 0.0000000e+00 
-1.4744511e-07 -2.4516003e-06 4.6046716e-07 
-4.5168765e-08 -2.4004128e-06 4.5756431e-07 
0.0000000e+00 -2.4267508e-06 0.0000000e+00 
0.0000000e+00 -2.4369876e-06 0.0000000e+00 
-3.6529929e-08 -1.2978746e-05 -4.4409867e-07 
-1.5117976e-07 -1.2583833e-05 -1.0533447e-06 
1.9360050e-07 -1.2770746e-05 -1.0540916e-06 
1.5107325e-07 -1.3084254e-05 -4.4864370e-07 
5.9435756e-08 -1.3030198e-05 -4.4057469e-07 
0.0000000e+00 -1.3431590e-05 0.0000000e+00 
0.0000000e+00 -1.3468292e-05 0.0000000e+00 
-3.3555995e-08 -1.2742115e-05 -8.4007735e-07 
-2.9120091e-07 -1.2604510e-05 -8.4610014e-07 
0.0000000e+00 -1.3404611e-05 0.0000000e+00 
0.0000000e+00 -1.3455629e-05 0.0000000e+00 
8.0224316e-09 -2.2072181e-05 -6.7687530e-08 
4.3153058e-08 -2.2232232e-05 -7.4838582e-08 
7.8808185e-08 -2.2309187e-05 -7.7033064e-08 
1.3040930e-08 -2.2127240e-05 -7.1939816e-08 
1.1907971e-08 -2.2098900e-05 -6.8483949e-08 
0.0000000e+00 -2.1951149e-05 0.0000000e+00 
0.0000000e+00 -2.1971246e-05 0.0000000e+00 
1.2393367e-07 -2.2296810e-05 5.4124625e-09 
1.2514802e-07 -2.2231552e-05 9.2956878e-09 
0.0000000e+00 -2.1965225e-05 0.0000000e+00 
0.0000000e+00 -2.1981341e-05 0.0000000e+00 
-1.7721723e-07 -3.0351006e-05 -1.8117196e-07 
-1.9823224e-07 -3.0878768e-05 -3.2991070e-07 
-1.4094472e-07 -3.0965301e-05 -3.4020016e-07 
-1.1972823e-07 -3.0410834e-05 -1.8100350e-07 
-1.4513599e-07 -3.0375770e-05 -1.7909710e-07 
0.0000000e+00 -2.9931718e-05 0.0000000e+00 
0.0000000e+00 -2.9965267e-05 0.0000000e+00 
1.7673398e-07 -3.0936884e-05 -2.3811880e-07 
1.0943386e-07 -3.0862142e-05 -2.3693184e-07 
0.0000000e+00 -2.9946617e-05 0.0000000e+00 
0.0000000e+00 -2.9978200e-05 0.0000000e+00 
-2.9772571e-07 -3.7167796e-05 -7.2642149e-07 
-4.0147737e-07 -3.7683883e-05 -1.4633907e-06 
-6.3300966e-08 -3.7867703e-05 -1.4524982e-06 
-3.7855973e-08 -3.7310107e-05 -7.1958664e-07 
-1.6349763e-07 -3.7240236e-05 -7.1446294e-07 
0.0000000e+00 -3.6843463e-05 0.0000000e+00 
0.0000000e+00 -3.6900143e-05 0.0000000e+00 
2.6739914e-07 -3.7837479e-05 -1.2163514e-06 
-6.7010170e-08 -3.7667185e-05 -1.2153824e-06 
0.0000000e+00 -3.6867419e-05 0.0000000e+00 
0.0000000e+00 -3.6915295e-05 0.0000000e+00 
-1.0070610e-07 -4.1794920e-05 -4.3396437e-07 
-1.5531539e-07 -4.1799402e-05 -8.9790592e-07 
6.1127949e-08 -4.1851821e-05 -8.7959853e-07 
5.9147837e-08 -4.1826737e-05 -4.3610251e-07 
-2.0147317e-08 -4.1808205e-05 -4.3070389e-07 
0.0000000e+00 -4.1838030e-05 0.0000000e+00 
0.0000000e+00 -4.1857216e-05 0.0000000e+00 
8.1262357e-08 -4.1847939e-05 -8.1336395e-07 
-1.2843670e-07 -4.1799591e-05 -8.1320314e-07 
0.0000000e+00 -4.1835774e-05 0.0000000e+00 
0.0000000e+00 -4.1859159e-05 0.0000000e+00 
-1.6357372e-07 -3.8606326e-05 1.1383968e-07 
-2.3913267e-07 -3.9137369e-05 3.2122762e-07 
-3.3530398e-07 -3.9015467e-05 3.3707485e-07 
-2.1414363e-07 -3.8541890e-05 1.1662735e-07 
-1.8423030e-07 -3.8572838e-05 1.1230077e-07 
0.0000000e+00 -3.8279184e-05 0.0000000e+00 
0.0000000e+00 -3.8252783e-05 0.0000000e+00 
1.5363606e-09 -3.9007246e-05 1.9239586e-07 
8.8608232e-08 -3.9098359e-05 1.9183985e-07 
0.0000000e+00 -3.8288534e-05 0.0000000e+00 
0.0000000e+00 -3.8267790e-05 0.0000000e+00 
-8.0709604e-08 -2.7398406e-05 4.6789580e-07 
-1.4319947e-07 -2.7764348e-05 8.3845589e-07 
-2.8169205e-07 -2.7600359e-05 8.3303388e-07 
-2.2779534e-07 -2.7297679e-05 4.7124604e-07 
-1.5236739e-07 -2.7342967e-05 4.6521805e-07 
0.0000000e+00 -2.7171047e-05 0.0000000e+00 
0.0000000e+00 -2.7118074e-05 0.0000000e+00 
-7.8301582e-08 -2.7597851e-05 6.6135840e-07 
9.1518821e-08 -2.7731541e-05 6.6017390e-07 
0.0000000e+00 -2.7165395e-05 0.0000000e+00 
0.0000000e+00 -2.7115146e-05 0.0000000e+00 
-1.1365260e-07 -1.0484013e-05 -1.9398956e-07 
-1.8508797e-07 -1.0594103e-05 -4.7790655e-07 
-4.4204395e-08 -1.0503903e-05 -4.7414562e-07 
-1.6504428e-08 -1.0430671e-05 -1.9883954e-07 
-6.1801572e-08 -1.0453037e-05 -1.9482111e-07 
0.0000000e+00 -1.0531559e-05 0.0000000e+00 
0.0000000e+00 -1.0496326e-05 0.0000000e+00 
2.4846871e-08 -1.0500866e-05 -5.4653896e-07 
-1.0778900e-07 -1.0564204e-05 -5.4797516e-07 
0.0000000e+00 -1.0508087e-05 0.0000000e+00 
0.0000000e+00 -1.0495854e-05 0.0000000e+00 
-7.6822229e-09 2.2765421e-06 -2.7551954e-07 
-1.4956051e-08 2.4381441e-06 -6.0412287e-07 
1.2254166e-07 2.4224146e-06 -6.0282082e-07 
1.0595066e-07 2.2635622e-06 -2.7844163e-07 
4.7631669e-08 2.2712798e-06 -2.7427947e-07 
0.0000000e+00 2.1277738e-06 0.0000000e+00 
0.0000000e+00 2.1232872e-06 0.0000000e+00 
3.6480262e-08 2.4191070e-06 -5.6525755e-07 
-1.1492131e-07 2.4403685e-06 -5.6618950e-07 
0.0000000e+00 2.1416249e-06 0.0000000e+00 
0.0000000e+00 2.1280468e-06 0.0000000e+00 
1.1646787e-07 -6.6780458e-06 1.2411803e-07 
1.1865006e-07 -6.1929404e-06 2.6898957e-07 
4.4859398e-08 -6.3909870e-06 2.7991206e-07 
4.8118128e-08 -6.7817205e-06 1.3296489e-07 
7.8751349e-08 -6.7306414e-06 1.2896797e-07 
0.0000000e+00 -6.9736216e-06 0.0000000e+00 
0.0000000e+00 -7.0110236e-06 0.0000000e+00 
-1.9616888e-07 -6.3783668e-06 4.5557957e-07 
-1.1263128e-07 -6.2421154e-06 4.5594979e-07 
0.0000000e+00 -6.9618263e-06 0.0000000e+00 
0.0000000e+00 -6.9921566e-06 0.0000000e+00 
3.4577937e-07 -5.2736352e-05 -6.5184345e-08 
4.7249139e-07 -5.1474697e-05 1.9886474e-07 
3.3374170e-07 -5.2007992e-05 2.1872536e-07 
2.5762006e-07 -5.3129661e-05 -6.8282844e-08 
2.9358210e-07 -5.2930922e-05 -5.7141417e-08 
0.0000000e+00 -5.3550029e-05 0.0000000e+00 
0.0000000e+00 -5.3711799e-05 0.0000000e+00 
-3.6923959e-07 -5.2027917e-05 7.6387283e-07 
-2.2379376e-07 -5.1580686e-05 7.6756953e-07 
0.0000000e+00 -5.3552612e-05 0.0000000e+00 
0.0000000e+00 -5.3663902e-05 0.0000000e+00 
6.1033910e-07 -1.4187500e-04 1.1579041e-06 
7.6692015e-07 -1.4022391e-04 2.2384452e-06 
2.5837397e-07 -1.4055512e-04 2.2566671e-06 
1.5783354e-07 -1.4209280e-04 1.1882504e-06 
3.6492497e-07 -1.4200382e-04 1.1633371e-06 
0.0000000e+00 -1.4260500e-04 0.0000000e+00 
0.0000000e+00 -1.4272831e-04 0.0000000e+00 
-6.7620977e-07 -1.4061113e-04 2.5452846e-06 
-1.4124643e-07 -1.4037426e-04 2.5492827e-06 
0.0000000e+00 -1.4261610e-04 0.0000000e+00 
0.0000000e+00 -1.4265766e-04 0.0000000e+00 
5.2538746e-07 -2.5605055e-04 -2.7074793e-07 
7.7711343e-07 -2.5408252e-04 2.3809082e-07 
4.9396027e-07 -2.5503463e-04 2.5915321e-07 
3.8503040e-07 -2.5677163e-04 -2.0818354e-07 
4.3264626e-07 -2.5646988e-04 -2.1927877e-07 
0.0000000e+00 -2.5705984e-04 0.0000000e+00 
0.0000000e+00 -2.5735388e-04 0.0000000e+00 
-5.8453702e-07 -2.5510008e-04 1.2467568e-06 
-3.3869941e-07 -2.5428648e-04 1.2585440e-06 
0.0000000e+00 -2.5709555e-04 0.0000000e+00 
0.0000000e+00 -2.5728889e-04 0.0000000e+00 
5.0131598e-07 -3.3505168e-04 -4.4739119e-07 
6.9767111e-07 -3.3242046e-04 -8.3704157e-07 
8.5055387e-07 -3.3277390e-04 -7.6192947e-07 
6.1850244e-07 -3.3523588e-04 -3.9694569e-07 
5.2740745e-07 -3.3520971e-04 -4.1608516e-07 
0.0000000e+00 -3.3619642e-04 0.0000000e+00 
0.0000000e+00 -3.3626059e-04 0.0000000e+00 
-6.1726757e-07 -3.3293094e-04 -4.4364032e-07 
-7.7439478e-07 -3.3267541e-04 -4.3560544e-07 
0.0000000e+00 -3.3614197e-04 0.0000000e+00 
0.0000000e+00 -3.3622078e-04 0.0000000e+00 
4.7000043e-07 -2.8200567e-04 -1.8569953e-07 
6.3366485e-07 -2.7979142e-04 -6.4971863e-07 
8.9564224e-07 -2.7912844e-04 -6.0267183e-07 
6.4890224e-07 -2.8160127e-04 -1.5490666e-07 
5.3105941e-07 -2.8184790e-04 -1.7644778e-07 
0.0000000e+00 -2.8295917e-04 0.0000000e+00 
0.0000000e+00 -2.8277616e-04 0.0000000e+00 
-4.7260059e-07 -2.7938196e-04 -1.2643352e-06 
-7.1935710e-07 -2.7988304e-04 -1.2582872e-06 
0.0000000e+00 -2.8285195e-04 0.0000000e+00 
0.0000000e+00 -2.8274296e-04 0.0000000e+00 
1.5704950e-07 -1.7151941e-04 -1.1814606e-06 
2.5704239e-07 -1.7000479e-04 -2.3673367e-06 
8.9721726e-07 -1.6942772e-04 -2.3291880e-06 
6.3263229e-07 -1.7119404e-04 -1.1560178e-06 
3.7560983e-07 -1.7139144e-04 -1.1620223e-06 
0.0000000e+00 -1.7202750e-04 0.0000000e+00 
0.0000000e+00 -1.7191870e-04 0.0000000e+00 
-9.2092208e-08 -1.6964434e-04 -2.8451234e-06 
-6.9298778e-07 -1.7003702e-04 -2.8403276e-06 
0.0000000e+00 -1.7199713e-04 0.0000000e+00 
0.0000000e+00 -1.7191666e-04 0.0000000e+00 
1.0130663e-07 -8.3094863e-05 5.7348655e-07 
1.2946224e-07 -8.3023500e-05 7.5792673e-07 
9.6964136e-08 -8.2308186e-05 7.6164486e-07 
1.4085287e-08 -8.2628241e-05 5.7256437e-07 
5.2582006e-08 -8.2863829e-05 5.6064266e-07 
0.0000000e+00 -8.2797385e-05 0.0000000e+00 
0.0000000e+00 -8.2615843e-05 0.0000000e+00 
-3.1146278e-08 -8.2413884e-05 3.2548058e-08 
2.8413758e-08 -8.2982544e-05 3.0038457e-08 
0.0000000e+00 -8.2774444e-05 0.0000000e+00 
0.0000000e+00 -8.2636485e-05 0.0000000e+00 
5.5601220e-08 -2.9036528e-05 5.1740955e-07 
7.2379251e-08 -2.9026185e-05 1.0311843e-06 
-1.5953722e-07 -2.8697892e-05 1.0297085e-06 
-1.1146253e-07 -2.8841803e-05 5.1977986e-07 
-2.8460617e-08 -2.8938930e-05 5.1094776e-07 
0.0000000e+00 -2.8998795e-05 0.0000000e+00 
0.0000000e+00 -2.8908642e-05 0.0000000e+00 
-1.8205780e-07 -2.8737892e-05 6.7770139e-07 
3.6515708e-08 -2.8993962e-05 6.7814619e-07 
0.0000000e+00 -2.8976145e-05 0.0000000e+00 
0.0000000e+00 -2.8898663e-05 0.0000000e+00 
-4.6674710e-08 -2.6027433e-06 1.2658532e-07 
-7.7151398e-08 -2.7567316e-06 2.0286794e-07 
-1.0609807e-07 -2.6005468e-06 1.8724067e-07 
-6.9249793e-08 -2.5053810e-06 1.2298391e-07 
-5.4921777e-08 -2.5521817e-06 1.2175401e-07 
0.0000000e+00 -2.5594052e-06 0.0000000e+00 
0.0000000e+00 -2.5153479e-06 0.0000000e+00 
-2.0261623e-08 -2.6024009e-06 3.7415571e-08 
4.8368318e-09 -2.7254321e-06 3.2066016e-08 
0.0000000e+00 -2.5576162e-06 0.0000000e+00 
0.0000000e+00 -2.5222978e-06 0.0000000e+00 
-5.3494706e-08 9.8345026e-06 -3.6998853e-07 
-8.3709232e-08 9.8941582e-06 -7.2696662e-07 
8.5436177e-08 9.8730743e-06 -7.3043896e-07 
8.0675306e-08 9.8155879e-06 -3.7493086e-07 
1.5734624e-08 9.8287019e-06 -3.6887204e-07 
0.0000000e+00 9.6992580e-06 0.0000000e+00 
0.0000000e+00 9.6971153e-06 0.0000000e+00 
5.4216972e-08 9.8767632e-06 -6.8550997e-07 
-1.1316084e-07 9.9042327e-06 -6.8801694e-07 
0.0000000e+00 9.7114653e-06 0.0000000e+00 
0.0000000e+00 9.6933272e-06 0.0000000e+00 
-1.7250169e-07 1.5844631e-05 -8.0638256e-07 
-2.3611105e-07 1.5758384e-05 -1.6965555e-06 
1.8014158e-07 1.5670465e-05 -1.6855122e-06 
1.4215941e-07 1.5773323e-05 -8.1030851e-07 
-1.2560214e-08 1.5810465e-05 -8.0210424e-07 
0.0000000e+00 1.5814965e-05 0.0000000e+00 
0.0000000e+00 1.5789463e-05 0.0000000e+00 
2.3022875e-07 1.5678019e-05 -1.5468767e-06 
-1.7498192e-07 1.5768357e-05 -1.5469399e-06 
0.0000000e+00 1.5816780e-05 0.0000000e+00 
0.0000000e+00 1.5778314e-05 0.0000000e+00 
2.3627340e-09 1.5846013e-05 -2.2752430e-07 
5.2211369e-09 1.5821322e-05 -3.9644979e-07 
8.4492214e-08 1.5751710e-05 -3.9423730e-07 
6.9467532e-08 1.5788763e-05 -2.2427784e-07 
3.4243765e-08 1.5814056e-05 -2.2331278e-07 
0.0000000e+00 1.5876520e-05 0.0000000e+00 
0.0000000e+00 1.5852209e-05 0.0000000e+00 
9.2996991e-08 1.5754447e-05 -3.1007758e-07 
1.3975050e-08 1.5820493e-05 -3.0791401e-07 
0.0000000e+00 1.5865942e-05 0.0000000e+00 
0.0000000e+00 1.5846965e-05 0.0000000e+00 
1.2176167e-08 8.5982138e-06 9.5346216e-08 
3.9966789e-08 8.4981893e-06 2.3741705e-07 
-3.6831448e-08 8.4244748e-06 2.3868628e-07 
-3.9510130e-08 8.5486390e-06 9.5270629e-08 
-1.3663099e-08 8.5722413e-06 9.4994739e-08 
0.0000000e+00 8.7259259e-06 0.0000000e+00 
0.0000000e+00 8.6931423e-06 0.0000000e+00 
2.2781123e-08 8.4333733e-06 3.0593850e-07 
9.1306248e-08 8.4908097e-06 3.0864211e-07 
0.0000000e+00 8.7045964e-06 0.0000000e+00 
0.0000000e+00 8.6939572e-06 0.0000000e+00 
-1.9428105e-08 -9.1291224e-07 1.3681782e-07 
-2.0207498e-08 -1.1833757e-06 2.9518438e-07 
-9.0044153e-08 -1.2304924e-06 2.8343757e-07 
-7.7616370e-08 -9.3574045e-07 1.3371975e-07 
-4.6058396e-08 -9.2113572e-07 1.3440534e-07 
0.0000000e+00 -7.3258605e-07 0.0000000e+00 
0.0000000e+00 -7.4853517e-07 0.0000000e+00 
6.2344512e-08 -1.2058422e-06 3.2397736e-07 
1.3790917e-07 -1.1768664e-06 3.2444976e-07 
0.0000000e+00 -7.5263409e-07 0.0000000e+00 
0.0000000e+00 -7.5339614e-07 0.0000000e+00 
2.8192391e-09 -5.4944603e-06 -1.1692008e-07 
-7.7170155e-09 -5.3977801e-06 -2.5871321e-07 
5.3322982e-08 -5.4203729e-06 -2.5778937e-07 
5.0061555e-08 -5.5153887e-06 -1.2202680e-07 
2.6563200e-08 -5.5026017e-06 -1.1812909e-07 
0.0000000e+00 -5.6196968e-06 0.0000000e+00 
0.0000000e+00 -5.6285735e-06 0.0000000e+00 
1.3210828e-09 -5.4215698e-06 -2.2290934e-07 
-6.1919536e-08 -5.3974745e-06 -2.2438468e-07 
0.0000000e+00 -5.6154663e-06 0.0000000e+00 
0.0000000e+00 -5.6270778e-06 0.0000000e+00 
-8.9000025e-09 -2.8948984e-06 -2.8658201e-07 
-2.2110420e-08 -2.6788477e-06 -5.7463262e-07 
1.0776326e-07 -2.6456448e-06 -5.6975085e-07 
1.0044694e-07 -2.8878530e-06 -2.8762571e-07 
4.4177760e-08 -2.8920181e-06 -2.8591228e-07 
0.0000000e+00 -3.0810022e-06 0.0000000e+00 
0.0000000e+00 -3.0749113e-06 0.0000000e+00 
-1.1440387e-08 -2.6666903e-06 -5.8197105e-07 
-1.4893254e-07 -2.6774023e-06 -5.8467054e-07 
0.0000000e+00 -3.0652689e-06 0.0000000e+00 
0.0000000e+00 -3.0729236e-06 0.0000000e+00 
3.7371819e-08 2.2994880e-06 4.9710223e-08 
4.8653259e-08 2.4532831e-06 1.1713099e-07 
2.2099544e-08 2.4990322e-06 1.3004585e-07 
1.6717424e-08 2.3258624e-06 5.4629300e-08 
2.5080007e-08 2.3089267e-06 5.1037894e-08 
0.0000000e+00 2.2493098e-06 0.0000000e+00 
0.0000000e+00 2.2632855e-06 0.0000000e+00 
-6.8620160e-08 2.4796295e-06 7.3903152e-08 
-3.9454630e-08 2.4451008e-06 7.5546609e-08 
0.0000000e+00 2.2581705e-06 0.0000000e+00 
0.0000000e+00 2.2659071e-06 0.0000000e+00 
2.4887377e-08 3.4904458e-06 1.4273222e-07 
3.7331422e-08 3.4779753e-06 3.0681105e-07 
-3.8149285e-08 3.4940699e-06 3.0817822e-07 
-3.2354006e-08 3.5045812e-06 1.4446607e-07 
-3.9596184e-09 3.4964894e-06 1.4204421e-07 
0.0000000e+00 3.5422731e-06 0.0000000e+00 
0.0000000e+00 3.5472119e-06 0.0000000e+00 
-3.1395807e-08 3.4931134e-06 2.7949827e-07 
4.3544620e-08 3.4757477e-06 2.8054359e-07 
0.0000000e+00 3.5400235e-06 0.0000000e+00 
0.0000000e+00 3.5477169e-06 0.0000000e+00 
-6.4846041e-08 1.2960626e-06 2.9970952e-08 
-7.5949629e-08 1.0129331e-06 1.2420958e-07 
-1.2972713e-07 9.7455325e-07 1.0921454e-07 
-8.8486750e-08 1.2796195e-06 2.6055993e-08 
-7.3965005e-08 1.2908704e-06 2.7983781e-08 
0.0000000e+00 1.4596978e-06 0.0000000e+00 
0.0000000e+00 1.4504857e-06 0.0000000e+00 
4.9264180e-08 1.0004825e-06 1.4273898e-07 
9.0858556e-08 1.0245985e-06 1.4089181e-07 
0.0000000e+00 1.4529572e-06 0.0000000e+00 
0.0000000e+00 1.4459860e-06 0.0000000e+00 
-5.2763671e-08 -2.3040842e-07 -1.4080332e-07 
-7.3888920e-08 -3.0967581e-07 -2.9299702e-07 
-4.5388751e-09 -3.3547616e-07 -2.9857674e-07 
1.3082915e-09 -2.5112283e-07 -1.4189408e-07 
-2.4885651e-08 -2.3901265e-07 -1.3976438e-07 
0.0000000e+00 -2.1566034e-07 0.0000000e+00 
0.0000000e+00 -2.2490508e-07 0.0000000e+00 
4.6493064e-08 -3.2762370e-07 -2.5817886e-07 
-2.3795218e-08 -3.0262370e-07 -2.5976260e-07 
0.0000000e+00 -2.1684382e-07 0.0000000e+00 
0.0000000e+00 -2.2513012e-07 0.0000000e+00 
-1.1426686e-08 -9.3634426e-08 -1.5833974e-07 
-2.1483144e-08 -3.0309739e-09 -3.1548848e-07 
5.4669620e-08 -6.9589685e-09 -3.0997552e-07 
4.7427534e-08 -1.0046101e-07 -1.5709185e-07 
1.7591759e-08 -9.8228284e-08 -1.5647839e-07 
0.0000000e+00 -1.7499173e-07 0.0000000e+00 
0.0000000e+00 -1.7712802e-07 0.0000000e+00 
2.8365013e-09 -1.2541943e-08 -2.9889802e-07 
-6.9921263e-08 -4.1920978e-09 -2.9904768e-07 
0.0000000e+00 -1.6919839e-07 0.0000000e+00 
0.0000000e+00 -1.7616375e-07 0.0000000e+00 
4.3909377e-08 3.6889992e-07 1.0364280e-07 
5.9081330e-08 4.5929229e-07 2.1024076e-07 
1.0708004e-08 4.7206049e-07 2.1346222e-07 
5.2050737e-09 3.8334196e-07 1.0574705e-07 
2.3185375e-08 3.7420151e-07 1.0361992e-07 
0.0000000e+00 3.2943782e-07 0.0000000e+00 
0.0000000e+00 3.3532046e-07 0.0000000e+00 
-4.3735827e-08 4.6690832e-07 1.8896276e-07 
6.2363017e-09 4.5117665e-07 1.8935317e-07 
0.0000000e+00 3.3038052e-07 0.0000000e+00 
0.0000000e+00 3.3713070e-07 0.0000000e+00 
1.0097335e-08 -3.4598438e-07 1.7863449e-07 
2.6134982e-08 -4.5363646e-07 3.5935579e-07 
-6.0517934e-08 -4.4373033e-07 3.4729672e-07 
-5.6040545e-08 -3.3634822e-07 1.7811928e-07 
-2.1848011e-08 -3.4061387e-07 1.7721216e-07 
0.0000000e+00 -2.5690110e-07 0.0000000e+00 
0.0000000e+00 -2.5330786e-07 0.0000000e+00 
-2.9114486e-09 -4.3727675e-07 3.3304713e-07 
7.9315910e-08 -4.5060332e-07 3.3239237e-07 
0.0000000e+00 -2.6428791e-07 0.0000000e+00 
0.0000000e+00 -2.5490738e-07 0.0000000e+00 
-1.4028165e-08 -7.9848911e-07 -3.1315881e-08 
-2.0362705e-08 -8.0291136e-07 -7.9933358e-08 
1.8429893e-09 -8.0758872e-07 -8.1073047e-08 
1.1038610e-09 -8.0116689e-07 -3.2453521e-08 
-6.0057612e-09 -7.9903714e-07 -3.1547408e-08 
0.0000000e+00 -8.0860116e-07 0.0000000e+00 
0.0000000e+00 -8.0970403e-07 0.0000000e+00 
5.9091341e-09 -8.0603377e-07 -7.2766191e-08 
-1.5630848e-08 -8.0216256e-07 -7.3405872e-08 
0.0000000e+00 -8.0785657e-07 0.0000000e+00 
0.0000000e+00 -8.0972444e-07 0.0000000e+00 
-3.2232652e-08 -3.2578765e-07 -2.2339212e-07 
-4.6913513e-08 -2.7620979e-07 -5.0121099e-07 
8.1960380e-08 -3.0249865e-07 -4.9437858e-07 
6.0450759e-08 -3.4431014e-07 -2.2439131e-07 
1.4229779e-08 -3.3521655e-07 -2.2196657e-07 
0.0000000e+00 -3.8289843e-07 0.0000000e+00 
0.0000000e+00 -3.9049445e-07 0.0000000e+00 
5.1738123e-08 -3.0337173e-07 -4.5528154e-07 
-7.2247765e-08 -2.7854989e-07 -4.5472257e-07 
0.0000000e+00 -3.7979461e-07 0.0000000e+00 
0.0000000e+00 -3.9105871e-07 0.0000000e+00 
-2.1999034e-08 7.1110946e-08 -7.3082361e-08 
-2.6334858e-08 4.4439929e-08 -1.5383721e-07 
6.6086940e-09 2.1225643e-08 -1.5161935e-07 
5.0565054e-09 5.7638534e-08 -7.2461951e-08 
-8.5609013e-09 6.4088276e-08 -7.1921150e-08 
0.0000000e+00 9.3610637e-08 0.0000000e+00 
0.0000000e+00 8.7271722e-08 0.0000000e+00 
2.6644642e-08 2.4163045e-08 -1.2585905e-07 
-9.0277528e-09 4.2571159e-08 -1.2542876e-07 
0.0000000e+00 9.1395002e-08 0.0000000e+00 
0.0000000e+00 8.6633605e-08 0.0000000e+00 
-9.1906465e-09 1.8178277e-09 2.6933961e-08 
-1.2593881e-08 -3.7563336e-08 6.6111063e-08 
-3.6029263e-08 -3.7574313e-08 6.8359242e-08 
-2.1745169e-08 2.0192206e-09 2.6594238e-08 
-1.5037024e-08 2.4720832e-09 2.6518965e-08 
0.0000000e+00 2.5910841e-08 0.0000000e+00 
0.0000000e+00 2.5567600e-08 0.0000000e+00 
-6.4246031e-09 -3.5306385e-08 6.4517259e-08 
1.1554078e-08 -3.5620655e-08 6.4700174e-08 
0.0000000e+00 2.4641309e-08 0.0000000e+00 
0.0000000e+00 2.5603946e-08 0.0000000e+00 
5.6213096e-09 7.3006298e-08 2.4452724e-08 
6.4704362e-09 9.6076228e-08 5.7258525e-08 
-9.0649870e-09 1.0627376e-07 5.8248695e-08 
-4.5474464e-09 7.9395129e-08 2.4332602e-08 
6.0196098e-10 7.6253166e-08 2.4084420e-08 
0.0000000e+00 5.4441639e-08 0.0000000e+00 
0.0000000e+00 5.7715109e-08 0.0000000e+00 
-2.0865331e-08 1.0423369e-07 4.5528314e-08 
-6.4708230e-09 9.6135473e-08 4.5371731e-08 
0.0000000e+00 5.6853896e-08 0.0000000e+00 
0.0000000e+00 5.8702724e-08 0.0000000e+00 
0.0000000e+00 -7.2551273e-05 0.0000000e+00 
0.0000000e+00 -1.6272402e-06 0.0000000e+00 