# vtk DataFile Version 4.0
vtk output
ASCII
DATASET UNSTRUCTURED_GRID
POINTS 1827 float
0.0000000e+00 0.0000000e+00 0.0000000e+00 
0.0000000e+00 0.0000000e+00 2.0000000e+01 
3.4700000e+00 0.0000000e+00 0.0000000e+00 
3.4700000e+00 0.0000000e+00 2.0000000e+01 
3.4700000e+00 1.0000000e+00 0.0000000e+00 
3.4700000e+00 1.0000000e+00 2.0000000e+01 
0.0000000e+00 1.0000000e+00 0.0000000e+00 
0.0000000e+00 1.0000000e+00 2.0000000e+01 
1.2500000e+00 2.5000000e+00 0.0000000e+00 
1.2500000e+00 2.5000000e+00 1.1700000e-01 
7.5000000e-01 2.5000000e+00 1.1700000e-01 
7.5000000e-01 2.5000000e+00 0.0000000e+00 
0.0000000e+00 2.5000000e+00 0.0000000e+00 
0.0000000e+00 2.5000000e+00 1.1700000e-01 
1.2500000e+00 2.8000000e+00 1.1700000e-01 
1.2500000e+00 2.8000000e+00 0.0000000e+00 
0.0000000e+00 2.8000000e+00 0.0000000e+00 
0.0000000e+00 2.8000000e+00 1.1700000e-01 
7.5000000e-01 2.5000000e+00 3.8299999e-01 
1.2500000e+00 2.5000000e+00 3.8299999e-01 
1.2500000e+00 2.5000000e+00 6.1699998e-01 
7.5000000e-01 2.5000000e+00 6.1699998e-01 
7.5000000e-01 2.5000000e+00 5.0000000e-01 
0.0000000e+00 2.5000000e+00 3.8299999e-01 
0.0000000e+00 2.5000000e+00 6.1699998e-01 
1.2500000e+00 2.8000000e+00 6.1699998e-01 
1.2500000e+00 2.8000000e+00 3.8299999e-01 
0.0000000e+00 2.8000000e+00 3.8299999e-01 
0.0000000e+00 2.8000000e+00 6.1699998e-01 
7.5000000e-01 2.5000000e+00 8.8300002e-01 
1.2500000e+00 2.5000000e+00 8.8300002e-01 
1.2500000e+00 2.5000000e+00 1.1170000e+00 
7.5000000e-01 2.5000000e+00 1.1170000e+00 
7.5000000e-01 2.5000000e+00 1.0000000e+00 
0.0000000e+00 2.5000000e+00 8.8300002e-01 
0.0000000e+00 2.5000000e+00 1.1170000e+00 
1.2500000e+00 2.8000000e+00 1.1170000e+00 
1.2500000e+00 2.8000000e+00 8.8300002e-01 
0.0000000e+00 2.8000000e+00 8.8300002e-01 
0.0000000e+00 2.8000000e+00 1.1170000e+00 
7.5000000e-01 2.5000000e+00 1.3830000e+00 
1.2500000e+00 2.5000000e+00 1.3830000e+00 
1.2500000e+00 2.5000000e+00 1.6170000e+00 
7.5000000e-01 2.5000000e+00 1.6170000e+00 
7.5000000e-01 2.5000000e+00 1.5000000e+00 
0.0000000e+00 2.5000000e+00 1.3830000e+00 
0.0000000e+00 2.5000000e+00 1.6170000e+00 
1.2500000e+00 2.8000000e+00 1.6170000e+00 
1.2500000e+00 2.8000000e+00 1.3830000e+00 
0.0000000e+00 2.8000000e+00 1.3830000e+00 
0.0000000e+00 2.8000000e+00 1.6170000e+00 
7.5000000e-01 2.5000000e+00 1.8830000e+00 
1.2500000e+00 2.5000000e+00 1.8830000e+00 
1.2500000e+00 2.5000000e+00 2.1170001e+00 
7.5000000e-01 2.5000000e+00 2.1170001e+00 
7.5000000e-01 2.5000000e+00 2.0000000e+00 
0.0000000e+00 2.5000000e+00 1.8830000e+00 
0.0000000e+00 2.5000000e+00 2.1170001e+00 
1.2500000e+00 2.8000000e+00 2.1170001e+00 
1.2500000e+00 2.8000000e+00 1.8830000e+00 
0.0000000e+00 2.8000000e+00 1.8830000e+00 
0.0000000e+00 2.8000000e+00 2.1170001e+00 
7.5000000e-01 2.5000000e+00 2.3829999e+00 
1.2500000e+00 2.5000000e+00 2.3829999e+00 
1.2500000e+00 2.5000000e+00 2.6170001e+00 
7.5000000e-01 2.5000000e+00 2.6170001e+00 
7.5000000e-01 2.5000000e+00 2.5000000e+00 
0.0000000e+00 2.5000000e+00 2.3829999e+00 
0.0000000e+00 2.5000000e+00 2.6170001e+00 
1.2500000e+00 2.8000000e+00 2.6170001e+00 
1.2500000e+00 2.8000000e+00 2.3829999e+00 
0.0000000e+00 2.8000000e+00 2.3829999e+00 
0.0000000e+00 2.8000000e+00 2.6170001e+00 
7.5000000e-01 2.5000000e+00 2.8829999e+00 
1.2500000e+00 2.5000000e+00 2.8829999e+00 
1.2500000e+00 2.5000000e+00 3.1170001e+00 
7.5000000e-01 2.5000000e+00 3.1170001e+00 
7.5000000e-01 2.5000000e+00 3.0000000e+00 
0.0000000e+00 2.5000000e+00 2.8829999e+00 
0.0000000e+00 2.5000000e+00 3.1170001e+00 
1.2500000e+00 2.8000000e+00 3.1170001e+00 
1.2500000e+00 2.8000000e+00 2.8829999e+00 
0.0000000e+00 2.8000000e+00 2.8829999e+00 
0.0000000e+00 2.8000000e+00 3.1170001e+00 
7.5000000e-01 2.5000000e+00 3.3829999e+00 
1.2500000e+00 2.5000000e+00 3.3829999e+00 
1.2500000e+00 2.5000000e+00 3.6170001e+00 
7.5000000e-01 2.5000000e+00 3.6170001e+00 
7.5000000e-01 2.5000000e+00 3.5000000e+00 
0.0000000e+00 2.5000000e+00 3.3829999e+00 
0.0000000e+00 2.5000000e+00 3.6170001e+00 
1.2500000e+00 2.8000000e+00 3.6170001e+00 
1.2500000e+00 2.8000000e+00 3.3829999e+00 
0.0000000e+00 2.8000000e+00 3.3829999e+00 
0.0000000e+00 2.8000000e+00 3.6170001e+00 
7.5000000e-01 2.5000000e+00 3.8829999e+00 
1.2500000e+00 2.5000000e+00 3.8829999e+00 
1.2500000e+00 2.5000000e+00 4.1170001e+00 
7.5000000e-01 2.5000000e+00 4.1170001e+00 
7.5000000e-01 2.5000000e+00 4.0000000e+00 
0.0000000e+00 2.5000000e+00 3.8829999e+00 
0.0000000e+00 2.5000000e+00 4.1170001e+00 
1.2500000e+00 2.8000000e+00 4.1170001e+00 
1.2500000e+00 2.8000000e+00 3.8829999e+00 
0.0000000e+00 2.8000000e+00 3.8829999e+00 
0.0000000e+00 2.8000000e+00 4.1170001e+00 
7.5000000e-01 2.5000000e+00 4.3829999e+00 
1.2500000e+00 2.5000000e+00 4.3829999e+00 
1.2500000e+00 2.5000000e+00 4.6170001e+00 
7.5000000e-01 2.5000000e+00 4.6170001e+00 
7.5000000e-01 2.5000000e+00 4.5000000e+00 
0.0000000e+00 2.5000000e+00 4.3829999e+00 
0.0000000e+00 2.5000000e+00 4.6170001e+00 
1.2500000e+00 2.8000000e+00 4.6170001e+00 
1.2500000e+00 2.8000000e+00 4.3829999e+00 
0.0000000e+00 2.8000000e+00 4.3829999e+00 
0.0000000e+00 2.8000000e+00 4.6170001e+00 
7.5000000e-01 2.5000000e+00 4.8829999e+00 
1.2500000e+00 2.5000000e+00 4.8829999e+00 
1.2500000e+00 2.5000000e+00 5.1170001e+00 
7.5000000e-01 2.5000000e+00 5.1170001e+00 
7.5000000e-01 2.5000000e+00 5.0000000e+00 
0.0000000e+00 2.5000000e+00 4.8829999e+00 
0.0000000e+00 2.5000000e+00 5.1170001e+00 
1.2500000e+00 2.8000000e+00 5.1170001e+00 
1.2500000e+00 2.8000000e+00 4.8829999e+00 
0.0000000e+00 2.8000000e+00 4.8829999e+00 
0.0000000e+00 2.8000000e+00 5.1170001e+00 
7.5000000e-01 2.5000000e+00 5.3829999e+00 
1.2500000e+00 2.5000000e+00 5.3829999e+00 
1.2500000e+00 2.5000000e+00 5.6170001e+00 
7.5000000e-01 2.5000000e+00 5.6170001e+00 
7.5000000e-01 2.5000000e+00 5.5000000e+00 
0.0000000e+00 2.5000000e+00 5.3829999e+00 
0.0000000e+00 2.5000000e+00 5.6170001e+00 
1.2500000e+00 2.8000000e+00 5.6170001e+00 
1.2500000e+00 2.8000000e+00 5.3829999e+00 
0.0000000e+00 2.8000000e+00 5.3829999e+00 
0.0000000e+00 2.8000000e+00 5.6170001e+00 
7.5000000e-01 2.5000000e+00 5.8829999e+00 
1.2500000e+00 2.5000000e+00 5.8829999e+00 
1.2500000e+00 2.5000000e+00 6.1170001e+00 
7.5000000e-01 2.5000000e+00 6.1170001e+00 
7.5000000e-01 2.5000000e+00 6.0000000e+00 
0.0000000e+00 2.5000000e+00 5.8829999e+00 
0.0000000e+00 2.5000000e+00 6.1170001e+00 
1.2500000e+00 2.8000000e+00 6.1170001e+00 
1.2500000e+00 2.8000000e+00 5.8829999e+00 
0.0000000e+00 2.8000000e+00 5.8829999e+00 
0.0000000e+00 2.8000000e+00 6.1170001e+00 
7.5000000e-01 2.5000000e+00 6.3829999e+00 
1.2500000e+00 2.5000000e+00 6.3829999e+00 
1.2500000e+00 2.5000000e+00 6.6170001e+00 
7.5000000e-01 2.5000000e+00 6.6170001e+00 
7.5000000e-01 2.5000000e+00 6.5000000e+00 
0.0000000e+00 2.5000000e+00 6.3829999e+00 
0.0000000e+00 2.5000000e+00 6.6170001e+00 
1.2500000e+00 2.8000000e+00 6.6170001e+00 
1.2500000e+00 2.8000000e+00 6.3829999e+00 
0.0000000e+00 2.8000000e+00 6.3829999e+00 
0.0000000e+00 2.8000000e+00 6.6170001e+00 
7.5000000e-01 2.5000000e+00 6.8829999e+00 
1.2500000e+00 2.5000000e+00 6.8829999e+00 
1.2500000e+00 2.5000000e+00 7.1170001e+00 
7.5000000e-01 2.5000000e+00 7.1170001e+00 
7.5000000e-01 2.5000000e+00 7.0000000e+00 
0.0000000e+00 2.5000000e+00 6.8829999e+00 
0.0000000e+00 2.5000000e+00 7.1170001e+00 
1.2500000e+00 2.8000000e+00 7.1170001e+00 
1.2500000e+00 2.8000000e+00 6.8829999e+00 
0.0000000e+00 2.8000000e+00 6.8829999e+00 
0.0000000e+00 2.8000000e+00 7.1170001e+00 
7.5000000e-01 2.5000000e+00 7.3829999e+00 
1.2500000e+00 2.5000000e+00 7.3829999e+00 
1.2500000e+00 2.5000000e+00 7.6170001e+00 
7.5000000e-01 2.5000000e+00 7.6170001e+00 
7.5000000e-01 2.5000000e+00 7.5000000e+00 
0.0000000e+00 2.5000000e+00 7.3829999e+00 
0.0000000e+00 2.5000000e+00 7.6170001e+00 
1.2500000e+00 2.8000000e+00 7.6170001e+00 
1.2500000e+00 2.8000000e+00 7.3829999e+00 
0.0000000e+00 2.8000000e+00 7.3829999e+00 
0.0000000e+00 2.8000000e+00 7.6170001e+00 
7.5000000e-01 2.5000000e+00 7.8829999e+00 
1.2500000e+00 2.5000000e+00 7.8829999e+00 
1.2500000e+00 2.5000000e+00 8.1169996e+00 
7.5000000e-01 2.5000000e+00 8.1169996e+00 
7.5000000e-01 2.5000000e+00 8.0000000e+00 
0.0000000e+00 2.5000000e+00 7.8829999e+00 
0.0000000e+00 2.5000000e+00 8.1169996e+00 
1.2500000e+00 2.8000000e+00 8.1169996e+00 
1.2500000e+00 2.8000000e+00 7.8829999e+00 
0.0000000e+00 2.8000000e+00 7.8829999e+00 
0.0000000e+00 2.8000000e+00 8.1169996e+00 
7.5000000e-01 2.5000000e+00 8.3830004e+00 
1.2500000e+00 2.5000000e+00 8.3830004e+00 
1.2500000e+00 2.5000000e+00 8.6169996e+00 
7.5000000e-01 2.5000000e+00 8.6169996e+00 
7.5000000e-01 2.5000000e+00 8.5000000e+00 
0.0000000e+00 2.5000000e+00 8.3830004e+00 
0.0000000e+00 2.5000000e+00 8.6169996e+00 
1.2500000e+00 2.8000000e+00 8.6169996e+00 
1.2500000e+00 2.8000000e+00 8.3830004e+00 
0.0000000e+00 2.8000000e+00 8.3830004e+00 
0.0000000e+00 2.8000000e+00 8.6169996e+00 
7.5000000e-01 2.5000000e+00 8.8830004e+00 
1.2500000e+00 2.5000000e+00 8.8830004e+00 
1.2500000e+00 2.5000000e+00 9.1169996e+00 
7.5000000e-01 2.5000000e+00 9.1169996e+00 
7.5000000e-01 2.5000000e+00 9.0000000e+00 
0.0000000e+00 2.5000000e+00 8.8830004e+00 
0.0000000e+00 2.5000000e+00 9.1169996e+00 
1.2500000e+00 2.8000000e+00 9.1169996e+00 
1.2500000e+00 2.8000000e+00 8.8830004e+00 
0.0000000e+00 2.8000000e+00 8.8830004e+00 
0.0000000e+00 2.8000000e+00 9.1169996e+00 
7.5000000e-01 2.5000000e+00 9.3830004e+00 
1.2500000e+00 2.5000000e+00 9.3830004e+00 
1.2500000e+00 2.5000000e+00 9.6169996e+00 
7.5000000e-01 2.5000000e+00 9.6169996e+00 
7.5000000e-01 2.5000000e+00 9.5000000e+00 
0.0000000e+00 2.5000000e+00 9.3830004e+00 
0.0000000e+00 2.5000000e+00 9.6169996e+00 
1.2500000e+00 2.8000000e+00 9.6169996e+00 
1.2500000e+00 2.8000000e+00 9.3830004e+00 
0.0000000e+00 2.8000000e+00 9.3830004e+00 
0.0000000e+00 2.8000000e+00 9.6169996e+00 
7.5000000e-01 2.5000000e+00 9.8830004e+00 
1.2500000e+00 2.5000000e+00 9.8830004e+00 
1.2500000e+00 2.5000000e+00 1.0117000e+01 
[...]
POINT_DATA 1827
FIELD FieldData 2
DISPLACEMENT 3 1827  float
0.0000000e+00 0.0000000e+00 0.0000000e+00 
0.0000000e+00 0.0000000e+00 0.0000000e+00 
0.0000000e+00 0.0000000e+00 0.0000000e+00 
0.0000000e+00 0.0000000e+00 0.0000000e+00 
0.0000000e+00 -7.7709165e-06 0.0000000e+00 
0.0000000e+00 4.0240334e-06 0.0000000e+00 
0.0000000e+00 -2.1408778e-05 0.0000000e+00 
0.0000000e+00 -8.2631714e-06 0.0000000e+00 
0.0000000e+00 9.0836184e-06 0.0000000e+00 
-1.0700806e-08 9.0746107e-06 -1.0943908e-08 
-3.6869203e-09 9.2134260e-06 -3.0611145e-09 
0.0000000e+00 9.2186119e-06 0.0000000e+00 
0.0000000e+00 9.2658674e-06 0.0000000e+00 
0.0000000e+00 9.2623968e-06 0.0000000e+00 
1.3401785e-08 9.1056245e-06 2.7121974e-10 
0.0000000e+00 9.1062002e-06 0.0000000e+00 
0.0000000e+00 9.2659875e-06 0.0000000e+00 
0.0000000e+00 9.2642495e-06 0.0000000e+00 
-1.2987473e-07 1.1971997e-05 2.0979202e-07 
-1.8386667e-07 1.1337097e-05 3.8784700e-07 
-2.5726902e-07 1.1412343e-05 3.7986860e-07 
-1.9461643e-07 1.2027019e-05 2.0660683e-07 
-1.5804073e-07 1.2005567e-05 2.0620286e-07 
0.0000000e+00 1.2383436e-05 0.0000000e+00 
0.0000000e+00 1.2416010e-05 0.0000000e+00 
1.1309135e-07 1.1441803e-05 2.9496647e-07 
1.9246035e-07 1.1374816e-05 2.9468714e-07 
0.0000000e+00 1.2371865e-05 0.0000000e+00 
0.0000000e+00 1.2399763e-05 0.0000000e+00 
-1.1068003e-07 1.3421235e-05 3.6511034e-07 
-1.5254011e-07 1.2822112e-05 7.5403369e-07 
-3.5018255e-07 1.2912268e-05 7.5520143e-07 
-2.4746524e-07 1.3478352e-05 3.6746218e-07 
-1.7597570e-07 1.3454324e-05 3.6251581e-07 
0.0000000e+00 1.3847874e-05 0.0000000e+00 
0.0000000e+00 1.3871912e-05 0.0000000e+00 
2.3783837e-08 1.2931744e-05 6.4753789e-07 
1.9686482e-07 1.2858220e-05 6.4864952e-07 
0.0000000e+00 1.3832881e-05 0.0000000e+00 
0.0000000e+00 1.3866730e-05 0.0000000e+00 
3.0430844e-08 1.3525954e-05 5.7607093e-07 
3.4212142e-08 1.3435884e-05 1.1310374e-06 
-2.3302994e-07 1.3532063e-05 1.1417325e-06 
-1.7395972e-07 1.3591974e-05 5.7949643e-07 
-7.0316439e-08 1.3557603e-05 5.7196536e-07 
0.0000000e+00 1.3617049e-05 0.0000000e+00 
0.0000000e+00 1.3649323e-05 0.0000000e+00 
-1.6822496e-07 1.3530091e-05 1.0082956e-06 
9.0435528e-08 1.3441371e-05 1.0104033e-06 
0.0000000e+00 1.3622081e-05 0.0000000e+00 
0.0000000e+00 1.3659784e-05 0.0000000e+00 
-3.0363216e-09 1.1956290e-05 1.3410313e-07 
-1.2711412e-08 1.1935756e-05 2.3669715e-07 
-5.8828782e-08 1.1949848e-05 2.2959580e-07 
-4.4872003e-08 1.1970077e-05 1.3386605e-07 
-2.2710614e-08 1.1963933e-05 1.3286993e-07 
0.0000000e+00 1.1946578e-05 0.0000000e+00 
0.0000000e+00 1.1953603e-05 0.0000000e+00 
-4.3733973e-08 1.1956298e-05 2.1373616e-07 
4.7251945e-09 1.1939665e-05 2.1152700e-07 
0.0000000e+00 1.1948147e-05 0.0000000e+00 
0.0000000e+00 1.1957128e-05 0.0000000e+00 
-1.4428817e-07 1.2126039e-05 -2.6241082e-07 
-2.1463198e-07 1.1973202e-05 -6.1274454e-07 
-5.4243802e-08 1.1927026e-05 -6.1086490e-07 
-2.9171600e-08 1.2092995e-05 -2.6259923e-07 
-8.3627363e-08 1.2110215e-05 -2.5969587e-07 
0.0000000e+00 1.2145636e-05 0.0000000e+00 
0.0000000e+00 1.2131836e-05 0.0000000e+00 
5.6758132e-08 1.1942749e-05 -5.4340080e-07 
-1.0001572e-07 1.1983266e-05 -5.4558762e-07 
0.0000000e+00 1.2149516e-05 0.0000000e+00 
0.0000000e+00 1.2134527e-05 0.0000000e+00 
-9.9696784e-08 1.5720583e-05 2.0962705e-08 
-1.6604366e-07 1.5558577e-05 -6.1750079e-08 
-1.1745250e-07 1.5617454e-05 -4.8343036e-08 
-8.1786148e-08 1.5759675e-05 2.0654465e-08 
-8.8028223e-08 1.5743073e-05 2.0236868e-08 
0.0000000e+00 1.5792986e-05 0.0000000e+00 
0.0000000e+00 1.5812355e-05 0.0000000e+00 
-9.1593604e-09 1.5621559e-05 -1.0934254e-07 
-4.3490481e-08 1.5572936e-05 -1.0922988e-07 
0.0000000e+00 1.5801592e-05 0.0000000e+00 
0.0000000e+00 1.5816000e-05 0.0000000e+00 
7.1889200e-10 2.3009696e-05 4.1064658e-07 
-2.4758821e-08 2.2680195e-05 8.2953238e-07 
-1.7053307e-07 2.2888993e-05 8.1625979e-07 
-1.3688793e-07 2.3118540e-05 4.0926261e-07 
-6.4383059e-08 2.3065677e-05 4.0467097e-07 
0.0000000e+00 2.3192988e-05 0.0000000e+00 
0.0000000e+00 2.3236009e-05 0.0000000e+00 
-2.2343510e-08 2.2882412e-05 6.0751620e-07 
1.5976364e-07 2.2727327e-05 6.0432342e-07 
0.0000000e+00 2.3180877e-05 0.0000000e+00 
0.0000000e+00 2.3225128e-05 0.0000000e+00 
8.3817547e-08 2.9862942e-05 4.1842821e-08 
1.1393324e-07 3.0204648e-05 5.1766186e-08 
1.1155171e-07 3.0260910e-05 4.6130218e-08 
8.1183032e-08 2.9907998e-05 4.1257884e-08 
7.9905462e-08 2.9885643e-05 4.0810097e-08 
0.0000000e+00 2.9604063e-05 0.0000000e+00 
0.0000000e+00 2.9631941e-05 0.0000000e+00 
-9.8936489e-08 3.0247842e-05 -1.6637840e-08 
-9.4655583e-08 3.0195839e-05 -1.7433203e-08 
0.0000000e+00 2.9630723e-05 0.0000000e+00 
0.0000000e+00 2.9644922e-05 0.0000000e+00 
6.7066630e-08 3.2278906e-05 -1.9626148e-08 
9.5830849e-08 3.2525306e-05 -4.7459334e-08 
1.1088687e-07 3.2517444e-05 -4.5443667e-08 
7.5915565e-08 3.2272805e-05 -1.9152425e-08 
6.9167719e-08 3.2275235e-05 -1.9172758e-08 
0.0000000e+00 3.2151016e-05 0.0000000e+00 
0.0000000e+00 3.2148568e-05 0.0000000e+00 
-3.9563947e-08 3.2504322e-05 -3.6607886e-08 
-5.0343637e-08 3.2511201e-05 -3.6457614e-08 
0.0000000e+00 3.2156509e-05 0.0000000e+00 
0.0000000e+00 3.2152850e-05 0.0000000e+00 
1.0604150e-08 2.9529003e-05 9.0422084e-08 
9.9350066e-09 2.9709499e-05 2.3241579e-07 
-5.4822127e-08 2.9687228e-05 2.3050981e-07 
-3.2172061e-08 2.9516626e-05 9.4304063e-08 
-1.1226128e-08 2.9523273e-05 9.1836633e-08 
0.0000000e+00 2.9442721e-05 0.0000000e+00 
0.0000000e+00 2.9440796e-05 0.0000000e+00 
-1.3700503e-07 2.9679613e-05 2.4547177e-07 
-7.1660722e-08 2.9693780e-05 2.4200529e-07 
0.0000000e+00 2.9451752e-05 0.0000000e+00 
0.0000000e+00 2.9448684e-05 0.0000000e+00 
1.9572274e-08 2.3381132e-05 7.5278699e-08 
8.1537976e-09 2.3524533e-05 1.4864160e-07 
-2.5511897e-08 2.3451770e-05 1.5772771e-07 
-1.4340181e-08 2.3346211e-05 7.7189526e-08 
1.3597887e-09 2.3363957e-05 7.6626421e-08 
0.0000000e+00 2.3335731e-05 0.0000000e+00 
0.0000000e+00 2.3323571e-05 0.0000000e+00 
-8.4670710e-08 2.3454351e-05 2.1713052e-07 
-4.2547473e-08 2.3501732e-05 2.1684767e-07 
0.0000000e+00 2.3336805e-05 0.0000000e+00 
0.0000000e+00 2.3328192e-05 0.0000000e+00 
4.3145221e-08 1.7733029e-05 2.1206213e-07 
6.7160272e-08 1.7635584e-05 5.0404765e-07 
-5.5708316e-08 1.7621602e-05 5.0376667e-07 
-5.2022834e-08 1.7740997e-05 2.0570533e-07 
-4.3674890e-09 1.7741015e-05 2.0630802e-07 
0.0000000e+00 1.7837250e-05 0.0000000e+00 
0.0000000e+00 1.7841054e-05 0.0000000e+00 
-6.9537580e-09 1.7634789e-05 4.8705948e-07 
1.2912615e-07 1.7630369e-05 4.8829736e-07 
0.0000000e+00 1.7826602e-05 0.0000000e+00 
0.0000000e+00 1.7834316e-05 0.0000000e+00 
7.8031547e-08 1.7193004e-05 4.9522217e-08 
1.1891028e-07 1.7258262e-05 1.3539135e-07 
8.2500158e-08 1.7285864e-05 1.2997410e-07 
5.4077574e-08 1.7202712e-05 4.7112611e-08 
6.4526361e-08 1.7197999e-05 4.7700599e-08 
0.0000000e+00 1.7174363e-05 0.0000000e+00 
0.0000000e+00 1.7179529e-05 0.0000000e+00 
2.0385206e-08 1.7276094e-05 1.0478512e-07 
5.5823161e-08 1.7259803e-05 1.0580239e-07 
0.0000000e+00 1.7171540e-05 0.0000000e+00 
0.0000000e+00 1.7175573e-05 0.0000000e+00 
8.3667153e-09 1.8590690e-05 -1.7566220e-08 
1.2893160e-08 1.8547029e-05 6.1940946e-09 
-1.2222404e-10 1.8554529e-05 8.7894385e-09 
4.7234625e-09 1.8592575e-05 -1.7346879e-08 
5.8932499e-09 1.8591532e-05 -1.7654058e-08 
0.0000000e+00 1.8626901e-05 0.0000000e+00 
0.0000000e+00 1.8627701e-05 0.0000000e+00 
2.2559425e-08 1.8553153e-05 6.0509930e-10 
3.1377194e-08 1.8551222e-05 1.6361318e-09 
0.0000000e+00 1.8623263e-05 0.0000000e+00 
0.0000000e+00 1.8623838e-05 0.0000000e+00 
-1.0707578e-08 1.8085424e-05 -4.2377909e-08 
-3.2906868e-08 1.7952034e-05 -1.0471700e-07 
9.6437498e-09 1.7916485e-05 -1.0611778e-07 
5.3570597e-09 1.8062374e-05 -4.2532612e-08 
-2.2122149e-09 1.8073366e-05 -4.1850502e-08 
0.0000000e+00 1.8140639e-05 0.0000000e+00 
0.0000000e+00 1.8127927e-05 0.0000000e+00 
7.7106705e-08 1.7931128e-05 -6.6010017e-08 
5.2218731e-08 1.7958424e-05 -6.4780387e-08 
0.0000000e+00 1.8130870e-05 0.0000000e+00 
0.0000000e+00 1.8124772e-05 0.0000000e+00 
5.1414153e-09 1.1750109e-05 -8.0105330e-08 
1.9085288e-08 1.1751363e-05 -2.1082698e-07 
6.7499428e-08 1.1618160e-05 -2.2178332e-07 
3.4642483e-08 1.1674028e-05 -7.7367027e-08 
1.9335314e-08 1.1710683e-05 -7.6535990e-08 
0.0000000e+00 1.1775232e-05 0.0000000e+00 
0.0000000e+00 1.1739449e-05 0.0000000e+00 
6.9537762e-08 1.1636825e-05 -7.4521552e-08 
1.7577646e-08 1.1736543e-05 -7.5095848e-08 
0.0000000e+00 1.1761959e-05 0.0000000e+00 
0.0000000e+00 1.1736227e-05 0.0000000e+00 
-3.0733986e-08 -3.4290965e-06 6.8243679e-08 
-5.1276530e-08 -3.5529154e-06 5.3613384e-08 
-6.0526695e-08 -3.7289910e-06 4.6296481e-08 
-5.2579047e-08 -3.5270014e-06 6.5219254e-08 
-3.9641368e-08 -3.4716197e-06 6.7294387e-08 
0.0000000e+00 -3.3783006e-06 0.0000000e+00 
0.0000000e+00 -3.4190216e-06 0.0000000e+00 
3.4563701e-08 -3.6913018e-06 2.2518553e-07 
4.5058268e-08 -3.5656471e-06 2.2429995e-07 
0.0000000e+00 -3.3836370e-06 0.0000000e+00 
0.0000000e+00 -3.4147622e-06 0.0000000e+00 
2.3521528e-08 -2.8357117e-05 -3.3864413e-07 
3.9505590e-08 -2.8142333e-05 -6.7804353e-07 
1.7292619e-07 -2.8485827e-05 -6.7786578e-07 
1.2712341e-07 -2.8563207e-05 -3.3968811e-07 
7.3841676e-08 -2.8459774e-05 -3.3310386e-07 
0.0000000e+00 -2.8557099e-05 0.0000000e+00 
0.0000000e+00 -2.8641563e-05 0.0000000e+00 
7.0539173e-08 -2.8448745e-05 -3.2056460e-07 
-6.3800087e-08 -2.8186634e-05 -3.1859341e-07 
0.0000000e+00 -2.8570928e-05 0.0000000e+00 
0.0000000e+00 -2.8636081e-05 0.0000000e+00 
8.8895135e-08 -7.3781499e-05 5.2425055e-08 
1.2493305e-07 -7.3494397e-05 5.3921234e-08 
8.7941942e-08 -7.3933188e-05 5.1325177e-08 
4.8364239e-08 -7.4017895e-05 5.5537541e-08 
6.5372127e-08 -7.3905299e-05 5.6810173e-08 
0.0000000e+00 -7.3861243e-05 0.0000000e+00 
0.0000000e+00 -7.3966527e-05 0.0000000e+00 
-2.8953416e-08 -7.3887291e-05 4.7607844e-07 
6.0066929e-09 -7.3576506e-05 4.7438198e-07 
0.0000000e+00 -7.3888674e-05 0.0000000e+00 
0.0000000e+00 -7.3965624e-05 0.0000000e+00 
2.9203341e-07 -1.5066894e-04 -5.2729303e-07 
4.0886783e-07 -1.4911126e-04 -8.7494402e-07 
5.3370201e-07 -1.4986923e-04 -8.6223582e-07 
3.7784537e-07 -1.5121444e-04 -5.2511234e-07 
3.2080516e-07 -1.5093917e-04 -5.0896870e-07 
0.0000000e+00 -1.5155591e-04 0.0000000e+00 
0.0000000e+00 -1.5178147e-04 0.0000000e+00 
-3.1406108e-07 -1.4990407e-04 -3.4801158e-08 
-4.3922108e-07 -1.4926046e-04 -3.0240077e-08 
0.0000000e+00 -1.5150705e-04 0.0000000e+00 
0.0000000e+00 -1.5168286e-04 0.0000000e+00 
3.7576220e-07 -2.5766686e-04 9.2485743e-07 
5.1044043e-07 -2.5643443e-04 1.7962975e-06 
7.2839946e-08 -2.5686988e-04 1.8419878e-06 
3.3118281e-09 -2.5792079e-04 9.6641486e-07 
1.6768747e-07 -2.5783334e-04 9.3928469e-07 
0.0000000e+00 -2.5787242e-04 0.0000000e+00 
0.0000000e+00 -2.5802926e-04 0.0000000e+00 
-5.6790037e-07 -2.5691709e-04 2.2047807e-06 
-1.1839407e-07 -2.5661528e-04 2.2079539e-06 
0.0000000e+00 -2.5791174e-04 0.0000000e+00 
0.0000000e+00 -2.5797062e-04 0.0000000e+00 
5.7296324e-07 -3.4720238e-04 -9.6149756e-07 
7.8955520e-07 -3.4399657e-04 -1.6675281e-06 
1.0947097e-06 -3.4462885e-04 -1.6012858e-06 
8.2510826e-07 -3.4759307e-04 -8.8349168e-07 
6.6477583e-07 -3.4748449e-04 -9.0691395e-07 
0.0000000e+00 -3.4868805e-04 0.0000000e+00 
0.0000000e+00 -3.4886590e-04 0.0000000e+00 
-6.8851028e-07 -3.4478953e-04 -9.6836209e-07 
-9.9106228e-07 -3.4429264e-04 -9.6116560e-07 
0.0000000e+00 -3.4865396e-04 0.0000000e+00 
0.0000000e+00 -3.4879590e-04 0.0000000e+00 
1.5676008e-07 -3.1960229e-04 -1.0123837e-06 
2.2329056e-07 -3.1789075e-04 -2.1512601e-06 
7.8822660e-07 -3.1759546e-04 -2.1323913e-06 
5.8606400e-07 -3.1937141e-04 -9.7655482e-07 
3.4901709e-07 -3.1953407e-04 -9.8821113e-07 
0.0000000e+00 -3.2024120e-04 0.0000000e+00 
0.0000000e+00 -3.2015870e-04 0.0000000e+00 
-2.1708505e-07 -3.1775681e-04 -2.4074611e-06 
-7.6634819e-07 -3.1799407e-04 -2.4131118e-06 
0.0000000e+00 -3.2016626e-04 0.0000000e+00 
0.0000000e+00 -3.2014161e-04 0.0000000e+00 
1.5805418e-07 -2.0619748e-04 -3.5393916e-07 
2.3712593e-07 -2.0485019e-04 -1.0926824e-06 
6.0560274e-07 -2.0406982e-04 -1.0754014e-06 
4.2674193e-07 -2.0560100e-04 -3.2699882e-07 
2.7552542e-07 -2.0591801e-04 -3.4477804e-07 
0.0000000e+00 -2.0659390e-04 0.0000000e+00 
0.0000000e+00 -2.0626918e-04 0.0000000e+00 
-2.0811802e-07 -2.0424515e-04 -1.8915046e-06 
-5.8394647e-07 -2.0490400e-04 -1.8999286e-06 
0.0000000e+00 -2.0645846e-04 0.0000000e+00 
0.0000000e+00 -2.0630237e-04 0.0000000e+00 
3.3560377e-07 -9.4344177e-05 5.2910588e-07 
5.0219103e-07 -9.3317474e-05 1.1368569e-06 
2.7253091e-07 -9.2298913e-05 1.1529094e-06 
1.9633211e-07 -9.3721843e-05 5.3781622e-07 
2.5815908e-07 -9.4053619e-05 5.2011194e-07 
0.0000000e+00 -9.4912037e-05 0.0000000e+00 
0.0000000e+00 -9.4613824e-05 0.0000000e+00 
-4.4525777e-07 -9.2494221e-05 8.9054836e-08 
-2.3702118e-07 -9.3269649e-05 8.7346798e-08 
0.0000000e+00 -9.4785719e-05 0.0000000e+00 
0.0000000e+00 -9.4613402e-05 0.0000000e+00 
-9.7316331e-08 -1.6049482e-05 -4.0076560e-07 
-1.7609965e-07 -1.6166308e-05 -1.0194284e-06 
1.6473984e-07 -1.5651745e-05 -9.8681630e-07 
1.1860435e-07 -1.5724896e-05 -4.0015925e-07 
7.2983060e-09 -1.5878504e-05 -4.0158844e-07 
0.0000000e+00 -1.5856092e-05 0.0000000e+00 
0.0000000e+00 -1.5729587e-05 0.0000000e+00 
1.7973527e-07 -1.5720032e-05 -1.4838290e-06 
-1.2850255e-07 -1.6106052e-05 -1.4780229e-06 
0.0000000e+00 -1.5834157e-05 0.0000000e+00 
0.0000000e+00 -1.5740246e-05 0.0000000e+00 
9.6597667e-08 2.7074202e-05 4.5410033e-07 
1.4255504e-07 2.7025422e-05 9.0206066e-07 
-3.6912340e-08 2.7351090e-05 8.8650626e-07 
-4.5860055e-08 2.7272861e-05 4.5664092e-07 
2.4675975e-08 2.7171693e-05 4.4717319e-07 
0.0000000e+00 2.7224671e-05 0.0000000e+00 
0.0000000e+00 2.7311928e-05 0.0000000e+00 
-5.9407526e-08 2.7310234e-05 5.4624621e-07 
1.2480005e-07 2.7055823e-05 5.4560570e-07 
0.0000000e+00 2.7238213e-05 0.0000000e+00 
0.0000000e+00 2.7305030e-05 0.0000000e+00 
1.0059426e-07 3.4694618e-05 6.3630506e-07 
1.4285611e-07 3.4535828e-05 1.3303580e-06 
-1.7932041e-07 3.4630004e-05 1.3498607e-06 
-1.4411496e-07 3.4765588e-05 6.4146082e-07 
-2.0841478e-08 3.4728382e-05 6.3210274e-07 
0.0000000e+00 3.4912122e-05 0.0000000e+00 
0.0000000e+00 3.4938628e-05 0.0000000e+00 
-9.6235141e-08 3.4628963e-05 1.1969079e-06 
2.2370024e-07 3.4537970e-05 1.2041303e-06 
0.0000000e+00 3.4900277e-05 0.0000000e+00 
0.0000000e+00 3.4936758e-05 0.0000000e+00 
3.0144257e-08 2.0072350e-05 4.5325953e-07 
4.5919197e-08 1.9843679e-05 9.6214740e-07 
-1.9778325e-07 1.9814701e-05 9.5720952e-07 
-1.5193757e-07 2.0054851e-05 4.5112171e-07 
-5.7187556e-08 2.0067788e-05 4.4815280e-07 
0.0000000e+00 2.0225585e-05 0.0000000e+00 
0.0000000e+00 2.0215915e-05 0.0000000e+00 
-5.9321184e-08 1.9836472e-05 9.6053452e-07 
1.7827519e-07 1.9849896e-05 9.6216900e-07 
0.0000000e+00 2.0209121e-05 0.0000000e+00 
0.0000000e+00 2.0216901e-05 0.0000000e+00 
-1.6430648e-07 2.4377673e-06 -2.8525125e-07 
-1.9912339e-07 1.9821891e-06 -4.0220334e-07 
-1.5764203e-07 1.8073816e-06 -4.3088821e-07 
-9.9104000e-08 2.3225546e-06 -2.9423185e-07 
-1.2686188e-07 2.3900639e-06 -2.8538395e-07 
0.0000000e+00 2.6441048e-06 0.0000000e+00 
0.0000000e+00 2.5944958e-06 0.0000000e+00 
1.3630913e-07 1.8564523e-06 -2.3645073e-07 
7.8974033e-08 2.0006391e-06 -2.3953370e-07 
0.0000000e+00 2.6398379e-06 0.0000000e+00 
0.0000000e+00 2.5924035e-06 0.0000000e+00 
-5.8654610e-08 -5.2004516e-06 -3.0962303e-07 
-8.0355328e-08 -5.1958286e-06 -6.3195324e-07 
7.0807388e-08 -5.2587147e-06 -6.4270034e-07 
5.6994420e-08 -5.2471469e-06 -3.1135508e-07 
-5.5660121e-10 -5.2217515e-06 -3.0699229e-07 
0.0000000e+00 -5.2653081e-06 0.0000000e+00 
0.0000000e+00 -5.2844211e-06 0.0000000e+00 
7.0749060e-08 -5.2519786e-06 -5.5135814e-07 
-7.7756866e-08 -5.1939842e-06 -5.5438005e-07 
0.0000000e+00 -5.2647906e-06 0.0000000e+00 
0.0000000e+00 -5.2850341e-06 0.0000000e+00 
-2.0916408e-08 -4.1831377e-06 -3.4874608e-07 
-2.3068626e-08 -4.0106852e-06 -6.9603368e-07 
1.3693703e-07 -4.0249674e-06 -6.8940221e-07 
1.0816591e-07 -4.2020806e-06 -3.4510236e-07 
4.2632589e-08 -4.1958510e-06 -3.4388742e-07 
0.0000000e+00 -4.3089540e-06 0.0000000e+00 
0.0000000e+00 -4.3166674e-06 0.0000000e+00 
3.5281349e-08 -4.0396189e-06 -6.5498540e-07 
-1.2708448e-07 -4.0159230e-06 -6.5506066e-07 
0.0000000e+00 -4.3020541e-06 0.0000000e+00 
0.0000000e+00 -4.3174928e-06 0.0000000e+00 
5.7733804e-08 -1.0299669e-06 1.3273152e-08 
7.4346161e-08 -7.3835503e-07 1.2130139e-08 
7.5204035e-08 -7.3363844e-07 2.1449138e-08 
5.5739722e-08 -1.0193298e-06 1.8173127e-08 
5.3853352e-08 -1.0288678e-06 1.5559779e-08 
0.0000000e+00 -1.1722061e-06 0.0000000e+00 
0.0000000e+00 -1.1719843e-06 0.0000000e+00 
-8.9755041e-08 -7.5058409e-07 6.6301000e-09 
-8.7984731e-08 -7.5946605e-07 7.2286639e-09 
0.0000000e+00 -1.1662897e-06 0.0000000e+00 
0.0000000e+00 -1.1610747e-06 0.0000000e+00 
7.8694370e-08 -4.8923414e-07 3.5675436e-07 
9.9131576e-08 -3.4532164e-07 6.8565345e-07 
-6.2580483e-08 -3.2705998e-07 6.9265798e-07 
-4.6439212e-08 -4.6319735e-07 3.5891233e-07 
1.4756296e-08 -4.7681556e-07 3.5500653e-07 
0.0000000e+00 -5.5039641e-07 0.0000000e+00 
0.0000000e+00 -5.3602201e-07 0.0000000e+00 
-1.3557215e-07 -3.2920181e-07 6.4335080e-07 
2.2284693e-08 -3.6073010e-07 6.4423216e-07 
0.0000000e+00 -5.4564129e-07 0.0000000e+00 
0.0000000e+00 -5.2882257e-07 0.0000000e+00 
1.8022128e-08 -3.7433594e-07 1.5790010e-07 
1.8977206e-08 -4.2640588e-07 3.0411917e-07 
-4.6906163e-08 -3.9196726e-07 2.9891405e-07 
-3.5240827e-08 -3.4482008e-07 1.5430382e-07 
-7.7214670e-09 -3.5630254e-07 1.5447471e-07 
0.0000000e+00 -3.6506859e-07 0.0000000e+00 
0.0000000e+00 -3.5066151e-07 0.0000000e+00 
-1.9714372e-08 -3.8553625e-07 2.5444308e-07 
4.7593229e-08 -4.1988173e-07 2.5361848e-07 
0.0000000e+00 -3.6283734e-07 0.0000000e+00 
0.0000000e+00 -3.5130418e-07 0.0000000e+00 
8.1773806e-09 2.4937474e-06 6.8699400e-08 
1.6547601e-08 2.3408420e-06 1.5813995e-07 
-1.6111862e-08 2.4261549e-06 1.4530767e-07 
-1.1818210e-08 2.5385823e-06 6.3449917e-08 
-6.8952266e-10 2.5203906e-06 6.4529395e-08 
0.0000000e+00 2.5617107e-06 0.0000000e+00 
0.0000000e+00 2.5820495e-06 0.0000000e+00 
5.0423704e-08 2.4263807e-06 6.5083228e-08 
8.3033896e-08 2.3650796e-06 6.4145311e-08 
0.0000000e+00 2.5614959e-06 0.0000000e+00 
0.0000000e+00 2.5761451e-06 0.0000000e+00 
-2.1709168e-08 5.8614264e-06 -2.9248034e-07 
-1.7644965e-08 5.9129452e-06 -6.1287193e-07 
1.3914863e-07 5.9289528e-06 -6.2843287e-07 
9.5070121e-08 5.8522719e-06 -2.9112925e-07 
3.4463373e-08 5.8555775e-06 -2.8966284e-07 
0.0000000e+00 5.8434348e-06 0.0000000e+00 
0.0000000e+00 5.8389987e-06 0.0000000e+00 
9.0061249e-08 5.9144072e-06 -6.0504385e-07 
-6.4546271e-08 5.9194558e-06 -6.0768724e-07 
0.0000000e+00 5.8444334e-06 0.0000000e+00 
0.0000000e+00 5.8360624e-06 0.0000000e+00 
-3.0343585e-08 3.8890039e-06 -1.5814224e-07 
-3.3579923e-08 3.9157635e-06 -3.1237772e-07 
3.1152442e-08 3.8520252e-06 -3.0820141e-07 
2.1813864e-08 3.8441667e-06 -1.5153847e-07 
-6.3696284e-09 3.8624430e-06 -1.5289017e-07 
0.0000000e+00 3.9425527e-06 0.0000000e+00 
0.0000000e+00 3.9222427e-06 0.0000000e+00 
2.7871847e-08 3.8481603e-06 -2.3423827e-07 
-4.1362963e-08 3.9028637e-06 -2.3350704e-07 
0.0000000e+00 3.9359707e-06 0.0000000e+00 
0.0000000e+00 3.9220427e-06 0.0000000e+00 
-2.4470625e-08 -3.9467218e-06 1.6532007e-07 
-4.5453099e-08 -4.0505611e-06 3.0698368e-07 
-1.2237086e-07 -4.0818459e-06 3.0988073e-07 
-8.4461462e-08 -3.9664619e-06 1.6792536e-07 
-5.3117919e-08 -3.9546871e-06 1.6516546e-07 
0.0000000e+00 -3.8555759e-06 0.0000000e+00 
0.0000000e+00 -3.8689609e-06 0.0000000e+00 
-3.8937273e-08 -4.0734894e-06 3.3504628e-07 
3.0827085e-08 -4.0522896e-06 3.3476715e-07 
0.0000000e+00 -3.8657104e-06 0.0000000e+00 
0.0000000e+00 -3.8668809e-06 0.0000000e+00 
0.0000000e+00 -1.4934734e-05 0.0000000e+00 
0.0000000e+00 1.4605540e-05 0.0000000e+00 
-1.8006692e-09 -8.5972461e-06 4.0809218e-09 
-7.7608941e-09 -8.6798354e-06 6.9338562e-09 
0.0000000e+00 -8.6756145e-06 0.0000000e+00 
0.0000000e+00 -8.5924494e-06 0.0000000e+00 