# vtk DataFile Version 4.0
vtk output
ASCII
DATASET UNSTRUCTURED_GRID
POINTS 1827 float
0.0000000e+00 0.0000000e+00 0.0000000e+00 
0.0000000e+00 0.0000000e+00 2.0000000e+01 
3.4700000e+00 0.0000000e+00 0.0000000e+00 
3.4700000e+00 0.0000000e+00 2.0000000e+01 
3.4700000e+00 1.0000000e+00 0.0000000e+00 
3.4700000e+00 1.0000000e+00 2.0000000e+01 
0.0000000e+00 1.0000000e+00 0.0000000e+00 
0.0000000e+00 1.0000000e+00 2.0000000e+01 
1.2500000e+00 2.5000000e+00 0.0000000e+00 
1.2500000e+00 2.5000000e+00 1.1700000e-01 
7.5000000e-01 2.5000000e+00 1.1700000e-01 
7.5000000e-01 2.5000000e+00 0.0000000e+00 
0.0000000e+00 2.5000000e+00 0.0000000e+00 
0.0000000e+00 2.5000000e+00 1.1700000e-01 
1.2500000e+00 2.8000000e+00 1.1700000e-01 
1.2500000e+00 2.8000000e+00 0.0000000e+00 
0.0000000e+00 2.8000000e+00 0.0000000e+00 
0.0000000e+00 2.8000000e+00 1.1700000e-01 
7.5000000e-01 2.5000000e+00 3.8299999e-01 
1.2500000e+00 2.5000000e+00 3.8299999e-01 
1.2500000e+00 2.5000000e+00 6.1699998e-01 
7.5000000e-01 2.5000000e+00 6.1699998e-01 
7.5000000e-01 2.5000000e+00 5.0000000e-01 
0.0000000e+00 2.5000000e+00 3.8299999e-01 
0.0000000e+00 2.5000000e+00 6.1699998e-01 
1.2500000e+00 2.8000000e+00 6.1699998e-01 
1.2500000e+00 2.8000000e+00 3.8299999e-01 
0.0000000e+00 2.8000000e+00 3.8299999e-01 
0.0000000e+00 2.8000000e+00 6.1699998e-01 
7.5000000e-01 2.5000000e+00 8.8300002e-01 
1.2500000e+00 2.5000000e+00 8.8300002e-01 
1.2500000e+00 2.5000000e+00 1.1170000e+00 
7.5000000e-01 2.5000000e+00 1.1170000e+00 
7.5000000e-01 2.5000000e+00 1.0000000e+00 
0.0000000e+00 2.5000000e+00 8.8300002e-01 
0.0000000e+00 2.5000000e+00 1.1170000e+00 
1.2500000e+00 2.8000000e+00 1.1170000e+00 
1.2500000e+00 2.8000000e+00 8.8300002e-01 
0.0000000e+00 2.8000000e+00 8.8300002e-01 
0.0000000e+00 2.8000000e+00 1.1170000e+00 
7.5000000e-01 2.5000000e+00 1.3830000e+00 
1.2500000e+00 2.5000000e+00 1.3830000e+00 
1.2500000e+00 2.5000000e+00 1.6170000e+00 
7.5000000e-01 2.5000000e+00 1.6170000e+00 
7.5000000e-01 2.5000000e+00 1.5000000e+00 
0.0000000e+00 2.5000000e+00 1.3830000e+00 
0.0000000e+00 2.5000000e+00 1.6170000e+00 
1.2500000e+00 2.8000000e+00 1.6170000e+00 
1.2500000e+00 2.8000000e+00 1.3830000e+00 
0.0000000e+00 2.8000000e+00 1.3830000e+00 
0.0000000e+00 2.8000000e+00 1.6170000e+00 
7.5000000e-01 2.5000000e+00 1.8830000e+00 
1.2500000e+00 2.5000000e+00 1.8830000e+00 
1.2500000e+00 2.5000000e+00 2.1170001e+00 
7.5000000e-01 2.5000000e+00 2.1170001e+00 
7.5000000e-01 2.5000000e+00 2.0000000e+00 
0.0000000e+00 2.5000000e+00 1.8830000e+00 
0.0000000e+00 2.5000000e+00 2.1170001e+00 
1.2500000e+00 2.8000000e+00 2.1170001e+00 
1.2500000e+00 2.8000000e+00 1.8830000e+00 
0.0000000e+00 2.8000000e+00 1.8830000e+00 
0.0000000e+00 2.8000000e+00 2.1170001e+00 
7.5000000e-01 2.5000000e+00 2.3829999e+00 
1.2500000e+00 2.5000000e+00 2.3829999e+00 
1.2500000e+00 2.5000000e+00 2.6170001e+00 
7.5000000e-01 2.5000000e+00 2.6170001e+00 
7.5000000e-01 2.5000000e+00 2.5000000e+00 
0.0000000e+00 2.5000000e+00 2.3829999e+00 
0.0000000e+00 2.5000000e+00 2.6170001e+00 
1.2500000e+00 2.8000000e+00 2.6170001e+00 
1.2500000e+00 2.8000000e+00 2.3829999e+00 
0.0000000e+00 2.8000000e+00 2.3829999e+00 
0.0000000e+00 2.8000000e+00 2.6170001e+00 
7.5000000e-01 2.5000000e+00 2.8829999e+00 
1.2500000e+00 2.5000000e+00 2.8829999e+00 
1.2500000e+00 2.5000000e+00 3.1170001e+00 
7.5000000e-01 2.5000000e+00 3.1170001e+00 
7.5000000e-01 2.5000000e+00 3.0000000e+00 
0.0000000e+00 2.5000000e+00 2.8829999e+00 
0.0000000e+00 2.5000000e+00 3.1170001e+00 
1.2500000e+00 2.8000000e+00 3.1170001e+00 
1.2500000e+00 2.8000000e+00 2.8829999e+00 
0.0000000e+00 2.8000000e+00 2.8829999e+00 
0.0000000e+00 2.8000000e+00 3.1170001e+00 
7.5000000e-01 2.5000000e+00 3.3829999e+00 
1.2500000e+00 2.5000000e+00 3.3829999e+00 
1.2500000e+00 2.5000000e+00 3.6170001e+00 
7.5000000e-01 2.5000000e+00 3.6170001e+00 
7.5000000e-01 2.5000000e+00 3.5000000e+00 
0.0000000e+00 2.5000000e+00 3.3829999e+00 
0.0000000e+00 2.5000000e+00 3.6170001e+00 
1.2500000e+00 2.8000000e+00 3.6170001e+00 
1.2500000e+00 2.8000000e+00 3.3829999e+00 
0.0000000e+00 2.8000000e+00 3.3829999e+00 
0.0000000e+00 2.8000000e+00 3.6170001e+00 
7.5000000e-01 2.5000000e+00 3.8829999e+00 
1.2500000e+00 2.5000000e+00 3.8829999e+00 
1.2500000e+00 2.5000000e+00 4.1170001e+00 
7.5000000e-01 2.5000000e+00 4.1170001e+00 
7.5000000e-01 2.5000000e+00 4.0000000e+00 
0.0000000e+00 2.5000000e+00 3.8829999e+00 
0.0000000e+00 2.5000000e+00 4.1170001e+00 
1.2500000e+00 2.8000000e+00 4.1170001e+00 
1.2500000e+00 2.8000000e+00 3.8829999e+00 
0.0000000e+00 2.8000000e+00 3.8829999e+00 
0.0000000e+00 2.8000000e+00 4.1170001e+00 
7.5000000e-01 2.5000000e+00 4.3829999e+00 
1.2500000e+00 2.5000000e+00 4.3829999e+00 
1.2500000e+00 2.5000000e+00 4.6170001e+00 
7.5000000e-01 2.5000000e+00 4.6170001e+00 
7.5000000e-01 2.5000000e+00 4.5000000e+00 
0.0000000e+00 2.5000000e+00 4.3829999e+00 
0.0000000e+00 2.5000000e+00 4.6170001e+00 
1.2500000e+00 2.8000000e+00 4.6170001e+00 
1.2500000e+00 2.8000000e+00 4.3829999e+00 
0.0000000e+00 2.8000000e+00 4.3829999e+00 
0.0000000e+00 2.8000000e+00 4.6170001e+00 
7.5000000e-01 2.5000000e+00 4.8829999e+00 
1.2500000e+00 2.5000000e+00 4.8829999e+00 
1.2500000e+00 2.5000000e+00 5.1170001e+00 
7.5000000e-01 2.5000000e+00 5.1170001e+00 
7.5000000e-01 2.5000000e+00 5.0000000e+00 
0.0000000e+00 2.5000000e+00 4.8829999e+00 
0.0000000e+00 2.5000000e+00 5.1170001e+00 
1.2500000e+00 2.8000000e+00 5.1170001e+00 
1.2500000e+00 2.8000000e+00 4.8829999e+00 
0.0000000e+00 2.8000000e+00 4.8829999e+00 
0.0000000e+00 2.8000000e+00 5.1170001e+00 
7.5000000e-01 2.5000000e+00 5.3829999e+00 
1.2500000e+00 2.5000000e+00 5.3829999e+00 
1.2500000e+00 2.5000000e+00 5.6170001e+00 
7.5000000e-01 2.5000000e+00 5.6170001e+00 
7.5000000e-01 2.5000000e+00 5.5000000e+00 
0.0000000e+00 2.5000000e+00 5.3829999e+00 
0.0000000e+00 2.5000000e+00 5.6170001e+00 
1.2500000e+00 2.8000000e+00 5.6170001e+00 
1.2500000e+00 2.8000000e+00 5.3829999e+00 
0.0000000e+00 2.8000000e+00 5.3829999e+00 
0.0000000e+00 2.8000000e+00 5.6170001e+00 
7.5000000e-01 2.5000000e+00 5.8829999e+00 
1.2500000e+00 2.5000000e+00 5.8829999e+00 
1.2500000e+00 2.5000000e+00 6.1170001e+00 
7.5000000e-01 2.5000000e+00 6.1170001e+00 
7.5000000e-01 2.5000000e+00 6.0000000e+00 
0.0000000e+00 2.5000000e+00 5.8829999e+00 
0.0000000e+00 2.5000000e+00 6.1170001e+00 
1.2500000e+00 2.8000000e+00 6.1170001e+00 
1.2500000e+00 2.8000000e+00 5.8829999e+00 
0.0000000e+00 2.8000000e+00 5.8829999e+00 
0.0000000e+00 2.8000000e+00 6.1170001e+00 
7.5000000e-01 2.5000000e+00 6.3829999e+00 
1.2500000e+00 2.5000000e+00 6.3829999e+00 
1.2500000e+00 2.5000000e+00 6.6170001e+00 
7.5000000e-01 2.5000000e+00 6.6170001e+00 
7.5000000e-01 2.5000000e+00 6.5000000e+00 
0.0000000e+00 2.5000000e+00 6.3829999e+00 
0.0000000e+00 2.5000000e+00 6.6170001e+00 
1.2500000e+00 2.8000000e+00 6.6170001e+00 
1.2500000e+00 2.8000000e+00 6.3829999e+00 
0.0000000e+00 2.8000000e+00 6.3829999e+00 
0.0000000e+00 2.8000000e+00 6.6170001e+00 
7.5000000e-01 2.5000000e+00 6.8829999e+00 
1.2500000e+00 2.5000000e+00 6.8829999e+00 
1.2500000e+00 2.5000000e+00 7.1170001e+00 
7.5000000e-01 2.5000000e+00 7.1170001e+00 
7.5000000e-01 2.5000000e+00 7.0000000e+00 
0.0000000e+00 2.5000000e+00 6.8829999e+00 
0.0000000e+00 2.5000000e+00 7.1170001e+00 
1.2500000e+00 2.8000000e+00 7.1170001e+00 
1.2500000e+00 2.8000000e+00 6.8829999e+00 
0.0000000e+00 2.8000000e+00 6.8829999e+00 
0.0000000e+00 2.8000000e+00 7.1170001e+00 
7.5000000e-01 2.5000000e+00 7.3829999e+00 
1.2500000e+00 2.5000000e+00 7.3829999e+00 
1.2500000e+00 2.5000000e+00 7.6170001e+00 
7.5000000e-01 2.5000000e+00 7.6170001e+00 
7.5000000e-01 2.5000000e+00 7.5000000e+00 
0.0000000e+00 2.5000000e+00 7.3829999e+00 
0.0000000e+00 2.5000000e+00 7.6170001e+00 
1.2500000e+00 2.8000000e+00 7.6170001e+00 
1.2500000e+00 2.8000000e+00 7.3829999e+00 
0.0000000e+00 2.8000000e+00 7.3829999e+00 
0.0000000e+00 2.8000000e+00 7.6170001e+00 
7.5000000e-01 2.5000000e+00 7.8829999e+00 
1.2500000e+00 2.5000000e+00 7.8829999e+00 
1.2500000e+00 2.5000000e+00 8.1169996e+00 
7.5000000e-01 2.5000000e+00 8.1169996e+00 
7.5000000e-01 2.5000000e+00 8.0000000e+00 
0.0000000e+00 2.5000000e+00 7.8829999e+00 
0.0000000e+00 2.5000000e+00 8.1169996e+00 
1.2500000e+00 2.8000000e+00 8.1169996e+00 
1.2500000e+00 2.8000000e+00 7.8829999e+00 
0.0000000e+00 2.8000000e+00 7.8829999e+00 
0.0000000e+00 2.8000000e+00 8.1169996e+00 
7.5000000e-01 2.5000000e+00 8.3830004e+00 
1.2500000e+00 2.5000000e+00 8.3830004e+00 
1.2500000e+00 2.5000000e+00 8.6169996e+00 
7.5000000e-01 2.5000000e+00 8.6169996e+00 
7.5000000e-01 2.5000000e+00 8.5000000e+00 
0.0000000e+00 2.5000000e+00 8.3830004e+00 
0.0000000e+00 2.5000000e+00 8.6169996e+00 
1.2500000e+00 2.8000000e+00 8.6169996e+00 
1.2500000e+00 2.8000000e+00 8.3830004e+00 
0.0000000e+00 2.8000000e+00 8.3830004e+00 
0.0000000e+00 2.8000000e+00 8.6169996e+00 
7.5000000e-01 2.5000000e+00 8.8830004e+00 
1.2500000e+00 2.5000000e+00 8.8830004e+00 
1.2500000e+00 2.5000000e+00 9.1169996e+00 
7.5000000e-01 2.5000000e+00 9.1169996e+00 
7.5000000e-01 2.5000000e+00 9.0000000e+00 
0.0000000e+00 2.5000000e+00 8.8830004e+00 
0.0000000e+00 2.5000000e+00 9.1169996e+00 
1.2500000e+00 2.8000000e+00 9.1169996e+00 
1.2500000e+00 2.8000000e+00 8.8830004e+00 
0.0000000e+00 2.8000000e+00 8.8830004e+00 
0.0000000e+00 2.8000000e+00 9.1169996e+00 
7.5000000e-01 2.5000000e+00 9.3830004e+00 
1.2500000e+00 2.5000000e+00 9.3830004e+00 
1.2500000e+00 2.5000000e+00 9.6169996e+00 
7.5000000e-01 2.5000000e+00 9.6169996e+00 
7.5000000e-01 2.5000000e+00 9.5000000e+00 
0.0000000e+00 2.5000000e+00 9.3830004e+00 
0.0000000e+00 2.5000000e+00 9.6169996e+00 
1.2500000e+00 2.8000000e+00 9.6169996e+00 
1.2500000e+00 2.8000000e+00 9.3830004e+00 
0.0000000e+00 2.8000000e+00 9.3830004e+00 
0.0000000e+00 2.8000000e+00 9.6169996e+00 
7.5000000e-01 2.5000000e+00 9.8830004e+00 
1.2500000e+00 2.5000000e+00 9.8830004e+00 
1.2500000e+00 2.5000000e+00 1.0117000e+01 
[...]
POINT_DATA 1827
FIELD FieldData 2
DISPLACEMENT 3 1827  float
0.0000000e+00 0.0000000e+00 0.0000000e+00 
0.0000000e+00 0.0000000e+00 0.0000000e+00 
0.0000000e+00 0.0000000e+00 0.0000000e+00 
0.0000000e+00 0.0000000e+00 0.0000000e+00 
0.0000000e+00 2.7997790e-05 0.0000000e+00 
0.0000000e+00 -1.9719556e-07 0.0000000e+00 
0.0000000e+00 -1.0835944e-05 0.0000000e+00 
0.0000000e+00 -4.5525749e-06 0.0000000e+00 
0.0000000e+00 3.4931811e-05 0.0000000e+00 
5.4420295e-09 3.4933899e-05 4.2150794e-09 
-5.4843252e-10 3.4923403e-05 1.1943979e-09 
0.0000000e+00 3.4919271e-05 0.0000000e+00 
0.0000000e+00 3.4965586e-05 0.0000000e+00 
0.0000000e+00 3.4964884e-05 0.0000000e+00 
-1.4863183e-09 3.4931196e-05 -1.2581800e-09 
0.0000000e+00 3.4931752e-05 0.0000000e+00 
0.0000000e+00 3.4964269e-05 0.0000000e+00 
0.0000000e+00 3.4964731e-05 0.0000000e+00 
-5.3671727e-08 3.9193234e-05 -7.4651851e-08 
-5.8986888e-08 3.8963317e-05 -4.1289006e-08 
-7.0667184e-08 3.8957511e-05 -4.3003649e-08 
-4.8873307e-08 3.9173512e-05 -7.9860605e-08 
-5.0534396e-08 3.9184670e-05 -7.6421081e-08 
0.0000000e+00 3.9360715e-05 0.0000000e+00 
0.0000000e+00 3.9354833e-05 0.0000000e+00 
6.2974578e-08 3.8963277e-05 -3.3747728e-08 
7.2238720e-08 3.8978156e-05 -3.3521939e-08 
0.0000000e+00 3.9350125e-05 0.0000000e+00 
0.0000000e+00 3.9347040e-05 0.0000000e+00 
-1.5177774e-08 4.1037714e-05 -2.3128570e-07 
-1.2214430e-08 4.0992974e-05 -3.7742922e-07 
7.7082056e-08 4.1010284e-05 -3.8833977e-07 
5.5938990e-08 4.1037270e-05 -2.3345774e-07 
2.2198568e-08 4.1039446e-05 -2.3208183e-07 
0.0000000e+00 4.1025422e-05 0.0000000e+00 
0.0000000e+00 4.1028634e-05 0.0000000e+00 
7.7697351e-08 4.1008978e-05 -3.8877602e-07 
1.3961959e-09 4.1007446e-05 -3.8935022e-07 
0.0000000e+00 4.1026877e-05 0.0000000e+00 
0.0000000e+00 4.1020005e-05 0.0000000e+00 
-7.3135411e-08 4.0167321e-05 -7.0752958e-07 
-9.3380983e-08 4.0247905e-05 -1.5202850e-06 
3.1126916e-07 4.0132629e-05 -1.5526257e-06 
2.0266170e-07 4.0071707e-05 -7.0778725e-07 
6.3257794e-08 4.0116709e-05 -7.0022378e-07 
0.0000000e+00 4.0090858e-05 0.0000000e+00 
0.0000000e+00 4.0040886e-05 0.0000000e+00 
2.2915070e-07 4.0129402e-05 -1.3534325e-06 
-1.4837032e-07 4.0247003e-05 -1.3582948e-06 
0.0000000e+00 4.0083934e-05 0.0000000e+00 
0.0000000e+00 4.0033494e-05 0.0000000e+00 
-5.5601131e-08 3.5201345e-05 -3.1068694e-07 
-7.0516073e-08 3.5189900e-05 -6.6529685e-07 
8.5645453e-08 3.5075027e-05 -6.6135232e-07 
5.9269130e-08 3.5128163e-05 -3.0880156e-07 
1.2583244e-09 3.5166151e-05 -3.0635505e-07 
0.0000000e+00 3.5213649e-05 0.0000000e+00 
0.0000000e+00 3.5178498e-05 0.0000000e+00 
9.9966144e-08 3.5085301e-05 -5.2861850e-07 
-5.7045945e-08 3.5180019e-05 -5.2600575e-07 
0.0000000e+00 3.5214798e-05 0.0000000e+00 
0.0000000e+00 3.5181361e-05 0.0000000e+00 
-1.0834423e-07 2.8307366e-05 -2.6694798e-07 
-1.4835699e-07 2.7994065e-05 -6.0922821e-07 
9.4085122e-09 2.7860813e-05 -6.1553470e-07 
-3.5264445e-09 2.8223012e-05 -2.6753870e-07 
-5.3723717e-08 2.8266028e-05 -2.6372749e-07 
0.0000000e+00 2.8488135e-05 0.0000000e+00 
0.0000000e+00 2.8456096e-05 0.0000000e+00 
1.9262784e-07 2.7893680e-05 -4.5712781e-07 
4.4084231e-08 2.7999671e-05 -4.5632186e-07 
0.0000000e+00 2.8468345e-05 0.0000000e+00 
0.0000000e+00 2.8443670e-05 0.0000000e+00 
-1.8867526e-08 2.2210115e-05 1.4105568e-07 
-4.7983066e-09 2.1973974e-05 3.6627046e-07 
-1.2544048e-07 2.1940576e-05 3.5975231e-07 
-9.2899249e-08 2.2179014e-05 1.4452952e-07 
-5.3826810e-08 2.2193646e-05 1.4186938e-07 
0.0000000e+00 2.2348935e-05 0.0000000e+00 
0.0000000e+00 2.2335036e-05 0.0000000e+00 
1.5467164e-08 2.1954138e-05 3.9181646e-07 
1.1633606e-07 2.1985557e-05 3.9275230e-07 
0.0000000e+00 2.2336295e-05 0.0000000e+00 
0.0000000e+00 2.2332573e-05 0.0000000e+00 
5.3793869e-08 1.8195318e-05 2.8572673e-08 
4.3219437e-08 1.8487393e-05 5.3609313e-08 
4.4311317e-08 1.8472621e-05 6.2022941e-08 
4.0301842e-08 1.8180768e-05 2.6517810e-08 
4.6040238e-08 1.8188473e-05 2.7903175e-08 
0.0000000e+00 1.7914408e-05 0.0000000e+00 
0.0000000e+00 1.7910443e-05 0.0000000e+00 
-1.2449577e-07 1.8463987e-05 7.7659500e-08 
-1.1013046e-07 1.8478413e-05 7.6508734e-08 
0.0000000e+00 1.7927367e-05 0.0000000e+00 
0.0000000e+00 1.7928143e-05 0.0000000e+00 
9.9345328e-08 1.7943634e-05 1.3056673e-07 
1.5321409e-07 1.8084384e-05 3.2167193e-07 
6.8883672e-08 1.8127517e-05 3.1831826e-07 
4.5347228e-08 1.7978686e-05 1.3179528e-07 
7.0586708e-08 1.7959668e-05 1.2896420e-07 
0.0000000e+00 1.7857226e-05 0.0000000e+00 
0.0000000e+00 1.7874847e-05 0.0000000e+00 
-3.5572789e-08 1.8119799e-05 2.5409463e-07 
4.8087788e-08 1.8077093e-05 2.5603165e-07 
0.0000000e+00 1.7862123e-05 0.0000000e+00 
0.0000000e+00 1.7876282e-05 0.0000000e+00 
6.0093882e-08 1.6800668e-05 4.4878166e-07 
1.1111374e-07 1.6539327e-05 9.7747284e-07 
-1.3580747e-07 1.6602738e-05 9.6875215e-07 
-1.1857946e-07 1.6839607e-05 4.5147888e-07 
-3.0436560e-08 1.6821095e-05 4.4560790e-07 
0.0000000e+00 1.7072123e-05 0.0000000e+00 
0.0000000e+00 1.7086328e-05 0.0000000e+00 
-1.2647581e-09 1.6605170e-05 8.7950519e-07 
2.3556551e-07 1.6548303e-05 8.8191968e-07 
0.0000000e+00 1.7052629e-05 0.0000000e+00 
0.0000000e+00 1.7081711e-05 0.0000000e+00 
7.1400635e-08 1.1272627e-05 4.8480302e-07 
1.0316272e-07 1.1070663e-05 1.0786230e-06 
-1.7449320e-07 1.1069405e-05 1.0794842e-06 
-1.3228215e-07 1.1277285e-05 4.8589760e-07 
-3.0342793e-08 1.1272378e-05 4.8085752e-07 
0.0000000e+00 1.1452679e-05 0.0000000e+00 
0.0000000e+00 1.1458196e-05 0.0000000e+00 
-5.9630317e-08 1.1084428e-05 1.0411874e-06 
2.1578444e-07 1.1072040e-05 1.0442209e-06 
0.0000000e+00 1.1438257e-05 0.0000000e+00 
0.0000000e+00 1.1456072e-05 0.0000000e+00 
-3.7693518e-08 8.5000482e-07 1.8989499e-07 
-1.3816081e-08 4.5700730e-07 4.5142588e-07 
-1.5207948e-07 3.5459280e-07 4.3779048e-07 
-1.2885070e-07 7.9691461e-07 1.9029720e-07 
-8.0584499e-08 8.2503669e-07 1.9009632e-07 
0.0000000e+00 1.1756146e-06 0.0000000e+00 
0.0000000e+00 1.1475610e-06 0.0000000e+00 
8.4683734e-08 3.8756809e-07 5.2608340e-07 
2.0774013e-07 4.5610577e-07 5.2831149e-07 
0.0000000e+00 1.1442164e-06 0.0000000e+00 
0.0000000e+00 1.1401221e-06 0.0000000e+00 
-5.7148629e-08 -9.9077251e-06 -2.4392668e-07 
-8.5528505e-08 -1.0116951e-05 -4.3586030e-07 
1.6099515e-08 -1.0243778e-05 -4.4212351e-07 
1.3232351e-08 -9.9980052e-06 -2.5219788e-07 
-1.8556982e-08 -9.9471717e-06 -2.4457216e-07 
0.0000000e+00 -9.8528644e-06 0.0000000e+00 
0.0000000e+00 -9.8890814e-06 0.0000000e+00 
1.3294206e-07 -1.0216147e-05 -2.9805324e-07 
4.9122168e-08 -1.0109541e-05 -2.9833927e-07 
0.0000000e+00 -9.8703194e-06 0.0000000e+00 
0.0000000e+00 -9.8991895e-06 0.0000000e+00 
-1.7497067e-08 -1.7619013e-05 -8.1952244e-08 
-3.1244454e-08 -1.7643606e-05 -1.5532414e-07 
1.9381197e-09 -1.7717130e-05 -1.6094889e-07 
5.9102985e-09 -1.7671096e-05 -8.4559133e-08 
-3.5623209e-09 -1.7642211e-05 -8.2134740e-08 
0.0000000e+00 -1.7701370e-05 0.0000000e+00 
0.0000000e+00 -1.7724567e-05 0.0000000e+00 
1.9565492e-08 -1.7702832e-05 -7.6012448e-08 
-1.0952258e-08 -1.7641383e-05 -7.6922248e-08 
0.0000000e+00 -1.7704948e-05 0.0000000e+00 
0.0000000e+00 -1.7722892e-05 0.0000000e+00 
-3.8903540e-08 -2.8499739e-05 -3.7527403e-07 
-4.6568388e-08 -2.8473927e-05 -6.9393201e-07 
9.4182063e-08 -2.8721810e-05 -6.9943320e-07 
7.2844841e-08 -2.8681758e-05 -3.7929874e-07 
1.8333290e-08 -2.8588500e-05 -3.7062350e-07 
0.0000000e+00 -2.8589477e-05 0.0000000e+00 
0.0000000e+00 -2.8659761e-05 0.0000000e+00 
8.9459874e-08 -2.8700129e-05 -4.1320558e-07 
-4.7969134e-08 -2.8487098e-05 -4.1357407e-07 
0.0000000e+00 -2.8606752e-05 0.0000000e+00 
0.0000000e+00 -2.8662829e-05 0.0000000e+00 
1.2156785e-07 -5.6725050e-05 -3.7105602e-07 
1.4822633e-07 -5.6004923e-05 -8.5743596e-07 
3.4135999e-07 -5.6472054e-05 -8.5621946e-07 
2.4514250e-07 -5.6993598e-05 -3.6203485e-07 
1.7612315e-07 -5.6865771e-05 -3.6001475e-07 
0.0000000e+00 -5.7129088e-05 0.0000000e+00 
0.0000000e+00 -5.7247813e-05 0.0000000e+00 
-3.0266076e-08 -5.6449840e-05 -3.6643721e-07 
-2.1948863e-07 -5.6101770e-05 -3.6623345e-07 
0.0000000e+00 -5.7142046e-05 0.0000000e+00 
0.0000000e+00 -5.7230642e-05 0.0000000e+00 
1.8386963e-07 -1.2026143e-04 -7.0601743e-07 
3.0384965e-07 -1.1913529e-04 -1.1501868e-06 
4.7028826e-07 -1.1993734e-04 -1.1365564e-06 
3.3002854e-07 -1.2077499e-04 -6.7989140e-07 
2.4178118e-07 -1.2054362e-04 -6.7729701e-07 
0.0000000e+00 -1.2069624e-04 0.0000000e+00 
0.0000000e+00 -1.2092199e-04 0.0000000e+00 
-1.1344435e-07 -1.1993558e-04 -3.0473888e-07 
-2.8546256e-07 -1.1929552e-04 -3.0769795e-07 
0.0000000e+00 -1.2073009e-04 0.0000000e+00 
0.0000000e+00 -1.2092051e-04 0.0000000e+00 
3.7555679e-07 -2.2291137e-04 9.7735256e-07 
4.5902442e-07 -2.2185787e-04 1.8341401e-06 
2.3144102e-08 -2.2241776e-04 1.8564110e-06 
-8.4790424e-09 -2.2323371e-04 1.0066028e-06 
1.6868854e-07 -2.2309399e-04 9.8648047e-07 
0.0000000e+00 -2.2331954e-04 0.0000000e+00 
0.0000000e+00 -2.2347286e-04 0.0000000e+00 
-5.0341498e-07 -2.2240916e-04 2.3526211e-06 
-4.8109460e-08 -2.2202200e-04 2.3534647e-06 
0.0000000e+00 -2.2332664e-04 0.0000000e+00 
0.0000000e+00 -2.2340112e-04 0.0000000e+00 
6.3232181e-07 -3.2469191e-04 -4.3136203e-07 
8.5327582e-07 -3.2164410e-04 -6.1015794e-07 
9.1833647e-07 -3.2223234e-04 -5.5797562e-07 
6.8963618e-07 -3.2507081e-04 -3.7336216e-07 
6.2727622e-07 -3.2494147e-04 -3.9359520e-07 
0.0000000e+00 -3.2623688e-04 0.0000000e+00 
0.0000000e+00 -3.2636715e-04 0.0000000e+00 
-7.8488546e-07 -3.2237385e-04 2.5730630e-08 
-8.4392946e-07 -3.2190912e-04 3.0320621e-08 
0.0000000e+00 -3.2617399e-04 0.0000000e+00 
0.0000000e+00 -3.2630734e-04 0.0000000e+00 
5.6607644e-07 -3.3742897e-04 -4.8063066e-07 
7.1397329e-07 -3.3436669e-04 -1.0295558e-06 
1.0267446e-06 -3.3399000e-04 -9.2437631e-07 
7.7688082e-07 -3.3724189e-04 -4.3105129e-07 
6.3591108e-07 -3.3739436e-04 -4.5437082e-07 
0.0000000e+00 -3.3894426e-04 0.0000000e+00 
0.0000000e+00 -3.3884728e-04 0.0000000e+00 
-7.8504945e-07 -3.3427725e-04 -1.3040764e-06 
-1.0541302e-06 -3.3452819e-04 -1.2968948e-06 
0.0000000e+00 -3.3881876e-04 0.0000000e+00 
0.0000000e+00 -3.3879530e-04 0.0000000e+00 
1.6069460e-07 -2.2624961e-04 1.2462325e-09 
2.0434891e-07 -2.2522391e-04 -3.0703430e-07 
4.3050360e-07 -2.2420596e-04 -2.8446303e-07 
3.0531206e-07 -2.2557985e-04 6.2550491e-08 
2.1165609e-07 -2.2597978e-04 1.6327185e-08 
0.0000000e+00 -2.2632765e-04 0.0000000e+00 
0.0000000e+00 -2.2603647e-04 0.0000000e+00 
-2.5153295e-07 -2.2442000e-04 -1.3160303e-06 
-4.5721606e-07 -2.2522535e-04 -1.3216483e-06 
0.0000000e+00 -2.2630472e-04 0.0000000e+00 
0.0000000e+00 -2.2609498e-04 0.0000000e+00 
-9.5402825e-08 -1.0285133e-04 -1.4645797e-06 
-8.7252040e-08 -1.0220716e-04 -2.8658228e-06 
5.9610130e-07 -1.0183865e-04 -2.8555407e-06 
4.6843584e-07 -1.0263020e-04 -1.4475630e-06 
1.8068118e-07 -1.0275797e-04 -1.4449618e-06 
0.0000000e+00 -1.0311895e-04 0.0000000e+00 
0.0000000e+00 -1.0300713e-04 0.0000000e+00 
1.7782514e-07 -1.0194819e-04 -3.1590191e-06 
-5.1626182e-07 -1.0219352e-04 -3.1565673e-06 
0.0000000e+00 -1.0304943e-04 0.0000000e+00 
0.0000000e+00 -1.0302346e-04 0.0000000e+00 
8.3923759e-08 -2.1822030e-05 1.3637238e-07 
1.5050335e-07 -2.1477959e-05 3.2771512e-09 
2.3007377e-07 -2.0944859e-05 1.6886334e-08 
1.3031112e-07 -2.1430104e-05 1.3567274e-07 
1.0024112e-07 -2.1626618e-05 1.2426163e-07 
0.0000000e+00 -2.1770629e-05 0.0000000e+00 
0.0000000e+00 -2.1624610e-05 0.0000000e+00 
-2.6283026e-08 -2.1024918e-05 -5.5562924e-07 
-1.0515563e-07 -2.1472593e-05 -5.5479347e-07 
0.0000000e+00 -2.1725102e-05 0.0000000e+00 
0.0000000e+00 -2.1624515e-05 0.0000000e+00 
-7.3784577e-08 8.7861863e-06 2.9035613e-08 
-7.0413591e-08 8.4695257e-06 5.3761948e-08 
-8.1785458e-08 8.5130341e-06 5.6603621e-08 
-8.0778769e-08 8.8191073e-06 3.3223778e-08 
-7.5959065e-08 8.8019760e-06 3.0513821e-08 
0.0000000e+00 9.0759822e-06 0.0000000e+00 
0.0000000e+00 9.0895528e-06 0.0000000e+00 
9.4152320e-08 8.5175307e-06 5.8134608e-09 
1.0243344e-07 8.4802614e-06 8.8289376e-09 
0.0000000e+00 9.0653639e-06 0.0000000e+00 
0.0000000e+00 9.0799795e-06 0.0000000e+00 
-3.2412519e-08 6.7196947e-06 4.1921501e-07 
-5.3781797e-08 6.2549866e-06 8.8371411e-07 
-2.5465394e-07 6.3034295e-06 8.6813270e-07 
-1.9386360e-07 6.7375604e-06 4.1162647e-07 
-1.0763950e-07 6.7351948e-06 4.1121015e-07 
0.0000000e+00 6.9859989e-06 0.0000000e+00 
0.0000000e+00 6.9780031e-06 0.0000000e+00 
5.0973763e-09 6.3263419e-06 8.1092492e-07 
2.1535769e-07 6.2894746e-06 8.0988582e-07 
0.0000000e+00 6.9605912e-06 0.0000000e+00 
0.0000000e+00 6.9762896e-06 0.0000000e+00 
2.3786566e-08 -8.9221425e-07 2.9808749e-07 
9.6131441e-09 -1.1022213e-06 6.4184150e-07 
-1.3381192e-07 -1.0447814e-06 6.3846079e-07 
-9.1359333e-08 -8.5787769e-07 2.8835541e-07 
-2.9905703e-08 -8.6635396e-07 2.9023550e-07 
0.0000000e+00 -8.4417997e-07 0.0000000e+00 
0.0000000e+00 -8.3020086e-07 0.0000000e+00 
-2.3277867e-08 -1.0296064e-06 5.6233148e-07 
1.3379152e-07 -1.0784174e-06 5.6187002e-07 
0.0000000e+00 -8.5006764e-07 0.0000000e+00 
0.0000000e+00 -8.3424521e-07 0.0000000e+00 
1.5130079e-08 1.0504753e-07 6.5720506e-08 
2.0901114e-09 2.2613717e-07 9.7877219e-08 
-6.4175789e-09 2.8728846e-07 1.0380552e-07 
2.9610785e-09 1.3932308e-07 6.5412024e-08 
9.5150678e-09 1.2320373e-07 6.4564169e-08 
0.0000000e+00 -2.6316819e-08 0.0000000e+00 
0.0000000e+00 -6.7418662e-09 0.0000000e+00 
-7.7545572e-08 2.7619024e-07 3.9611180e-08 
-6.2939264e-08 2.2936442e-07 3.9131013e-08 
0.0000000e+00 -1.2133763e-08 0.0000000e+00 
0.0000000e+00 -8.9549312e-10 0.0000000e+00 
6.3808699e-08 5.6661688e-06 -4.1519335e-09 
8.4738630e-08 5.9800473e-06 -6.5200356e-09 
8.9854751e-08 6.0727120e-06 -9.0938093e-09 
7.0987156e-08 5.7178099e-06 -7.9494522e-10 
6.4603377e-08 5.6882382e-06 -3.9380836e-09 
0.0000000e+00 5.4902180e-06 0.0000000e+00 
0.0000000e+00 5.5173359e-06 0.0000000e+00 
-9.8373278e-08 6.0400007e-06 -9.5493796e-08 
-1.0784014e-07 5.9739214e-06 -9.7900951e-08 
0.0000000e+00 5.5108962e-06 0.0000000e+00 
0.0000000e+00 5.5219361e-06 0.0000000e+00 
3.7093592e-08 7.1364993e-06 1.4451884e-07 
5.7306284e-08 7.1961026e-06 2.8537085e-07 
-2.5597786e-09 7.2068610e-06 2.9359836e-07 
-1.7130880e-08 7.1501386e-06 1.5113827e-07 
8.5572811e-09 7.1385157e-06 1.4618193e-07 
0.0000000e+00 7.1863460e-06 0.0000000e+00 
0.0000000e+00 7.1919549e-06 0.0000000e+00 
-4.2367958e-08 7.1979230e-06 2.6653404e-07 
2.4446576e-08 7.1821864e-06 2.6934592e-07 
0.0000000e+00 7.1847007e-06 0.0000000e+00 
0.0000000e+00 7.1926202e-06 0.0000000e+00 
2.6110778e-08 1.9280717e-06 2.0203792e-07 
3.7778779e-08 1.7799269e-06 4.1294172e-07 
-6.0968731e-08 1.7712358e-06 4.0981865e-07 
-5.2739129e-08 1.9259178e-06 2.0041513e-07 
-1.2501499e-08 1.9275974e-06 1.9931058e-07 
0.0000000e+00 2.0548246e-06 0.0000000e+00 
0.0000000e+00 2.0501200e-06 0.0000000e+00 
1.9410683e-08 1.7811600e-06 4.0701772e-07 
1.1873210e-07 1.7820934e-06 4.0861872e-07 
0.0000000e+00 2.0401617e-06 0.0000000e+00 
0.0000000e+00 2.0459624e-06 0.0000000e+00 
-7.6289112e-08 -2.8542038e-06 5.6732663e-08 
-8.2169038e-08 -3.2770065e-06 2.3178764e-07 
-1.7330349e-07 -3.2882701e-06 2.2169564e-07 
-1.2035446e-07 -2.8603004e-06 4.8202402e-08 
-9.3934126e-08 -2.8513093e-06 5.2078651e-08 
0.0000000e+00 -2.6205139e-06 0.0000000e+00 
0.0000000e+00 -2.6262155e-06 0.0000000e+00 
7.9697692e-08 -3.2615073e-06 2.2203029e-07 
1.5632159e-07 -3.2541716e-06 2.2137091e-07 
0.0000000e+00 -2.6345074e-06 0.0000000e+00 
0.0000000e+00 -2.6381015e-06 0.0000000e+00 
-1.0526133e-07 -1.2402819e-06 -1.6866409e-07 
-1.3600794e-07 -1.4608579e-06 -3.1903679e-07 
-6.5999274e-08 -1.4542039e-06 -3.2314742e-07 
-4.3387651e-08 -1.2438134e-06 -1.6925067e-07 
-7.2197160e-08 -1.2396830e-06 -1.6730122e-07 
0.0000000e+00 -1.1230361e-06 0.0000000e+00 
0.0000000e+00 -1.1273393e-06 0.0000000e+00 
6.9076769e-08 -1.4475044e-06 -3.1597679e-07 
-4.5929638e-09 -1.4446674e-06 -3.1758555e-07 
0.0000000e+00 -1.1278402e-06 0.0000000e+00 
0.0000000e+00 -1.1306460e-06 0.0000000e+00 
-6.7010440e-08 3.3192423e-06 -1.9130262e-07 
-8.8930548e-08 3.3234683e-06 -3.6358907e-07 
-4.2003792e-09 3.3285580e-06 -3.5885071e-07 
2.0589774e-09 3.3135982e-06 -1.8635710e-07 
-3.2565755e-08 3.3142371e-06 -1.8724043e-07 
0.0000000e+00 3.3250064e-06 0.0000000e+00 
0.0000000e+00 3.3230260e-06 0.0000000e+00 
1.0805745e-09 3.3206475e-06 -3.5286496e-07 
-8.1862673e-08 3.3254551e-06 -3.5353204e-07 
0.0000000e+00 3.3301756e-06 0.0000000e+00 
0.0000000e+00 3.3245522e-06 0.0000000e+00 
1.7999676e-08 4.1897424e-06 6.6576407e-09 
1.5214571e-08 4.3732384e-06 6.1817098e-09 
1.6768048e-08 4.3378145e-06 1.7948402e-08 
1.3019768e-08 4.1751914e-06 1.2441647e-08 
1.3370848e-08 4.1786188e-06 9.6702042e-09 
0.0000000e+00 4.1242970e-06 0.0000000e+00 
0.0000000e+00 4.1137132e-06 0.0000000e+00 
-7.5735933e-08 4.3308878e-06 4.2477186e-08 
-7.0609076e-08 4.3528344e-06 4.3061153e-08 
0.0000000e+00 4.1282151e-06 0.0000000e+00 
0.0000000e+00 4.1246731e-06 0.0000000e+00 
4.8322789e-08 -7.2157599e-07 1.5652326e-07 
5.8069563e-08 -6.5909359e-07 3.3197512e-07 
-3.0645282e-08 -7.3003895e-07 3.4016483e-07 
-1.8650709e-08 -7.6061411e-07 1.5539489e-07 
1.4849849e-08 -7.4082931e-07 1.5601432e-07 
0.0000000e+00 -7.5297385e-07 0.0000000e+00 
0.0000000e+00 -7.6914603e-07 0.0000000e+00 
-5.4739676e-08 -7.2087488e-07 3.9303245e-07 
3.4407670e-08 -6.7348338e-07 3.9381146e-07 
0.0000000e+00 -7.5834242e-07 0.0000000e+00 
0.0000000e+00 -7.6714690e-07 0.0000000e+00 
1.9029846e-08 -5.5234609e-06 9.6265389e-08 
1.9960794e-08 -5.5806190e-06 2.1241570e-07 
-3.3950510e-08 -5.5795649e-06 2.0594814e-07 
-2.0277788e-08 -5.5222022e-06 9.1698340e-08 
5.2842486e-10 -5.5195269e-06 9.3059498e-08 
0.0000000e+00 -5.5361279e-06 0.0000000e+00 
0.0000000e+00 -5.5350524e-06 0.0000000e+00 
-3.1141707e-09 -5.5706773e-06 2.0134777e-07 
4.9931732e-08 -5.5733867e-06 2.0049464e-07 
0.0000000e+00 -5.5380797e-06 0.0000000e+00 
0.0000000e+00 -5.5361784e-06 0.0000000e+00 
-2.3212380e-08 -4.6920268e-06 7.7946751e-09 
-3.0441971e-08 -4.7971121e-06 6.2866469e-08 
-4.9151865e-08 -4.7057206e-06 5.7491526e-08 
-2.8784770e-08 -4.6491737e-06 6.1813310e-09 
-2.4917879e-08 -4.6684204e-06 5.5268825e-09 
0.0000000e+00 -4.6699788e-06 0.0000000e+00 
0.0000000e+00 -4.6513014e-06 0.0000000e+00 
1.3597496e-09 -4.7134458e-06 -2.7431323e-08 
1.6801751e-08 -4.7738781e-06 -2.8679137e-08 
0.0000000e+00 -4.6646696e-06 0.0000000e+00 
0.0000000e+00 -4.6530899e-06 0.0000000e+00 
1.7814237e-09 -1.0560456e-07 -1.3599971e-07 
4.1451269e-09 2.5845297e-08 -2.8354646e-07 
8.4483233e-08 6.7488941e-08 -2.8915184e-07 
5.8081824e-08 -9.2527770e-08 -1.3387439e-07 
2.8064868e-08 -1.0097353e-07 -1.3414892e-07 
0.0000000e+00 -1.8199843e-07 0.0000000e+00 
0.0000000e+00 -1.7473494e-07 0.0000000e+00 
-4.7492330e-09 4.8331191e-08 -3.1077542e-07 
-7.8371571e-08 2.7036744e-08 -3.1269843e-07 
0.0000000e+00 -1.7331870e-07 0.0000000e+00 
0.0000000e+00 -1.7369977e-07 0.0000000e+00 
-2.5013263e-09 2.9858052e-06 -8.5259678e-08 
1.6460358e-09 3.0233205e-06 -1.7241850e-07 
4.6392735e-08 3.0068088e-06 -1.7255570e-07 
2.9032170e-08 2.9750001e-06 -8.3132903e-08 
1.2172416e-08 2.9782734e-06 -8.3295525e-08 
0.0000000e+00 2.9828798e-06 0.0000000e+00 
0.0000000e+00 2.9783157e-06 0.0000000e+00 
1.9999009e-08 3.0042399e-06 -1.5113818e-07 
-2.0027489e-08 3.0183485e-06 -1.5071976e-07 
0.0000000e+00 2.9828495e-06 0.0000000e+00 
0.0000000e+00 2.9783207e-06 0.0000000e+00 
-1.3532507e-08 2.9290732e-06 -1.7846832e-08 
-2.2001348e-08 2.8603697e-06 -5.9791091e-08 
-4.5084301e-09 2.8424461e-06 -6.2731608e-08 
-3.2463108e-09 2.9185228e-06 -1.8498350e-08 
-8.1868965e-09 2.9251530e-06 -1.7954580e-08 
0.0000000e+00 2.9744299e-06 0.0000000e+00 
0.0000000e+00 2.9682690e-06 0.0000000e+00 
3.6857877e-08 2.8496554e-06 -4.0229768e-08 
1.9372596e-08 2.8631650e-06 -4.0443798e-08 
0.0000000e+00 2.9693394e-06 0.0000000e+00 
0.0000000e+00 2.9668342e-06 0.0000000e+00 
0.0000000e+00 5.4868353e-05 0.0000000e+00 
0.0000000e+00 4.8621146e-06 0.0000000e+00 
-1.3812915e-09 2.3587477e-06 1.2492062e-09 
-2.8489162e-09 2.3169730e-06 1.0424279e-09 
0.0000000e+00 2.3199686e-06 0.0000000e+00 