# vtk DataFile Version 4.0
vtk output
ASCII
DATASET UNSTRUCTURED_GRID
POINTS 1029 float
0.0000000e+00 0.0000000e+00 0.0000000e+00 
2.0000000e+01 0.0000000e+00 0.0000000e+00 
2.0000000e+01 1.0000000e+01 0.0000000e+00 
0.0000000e+00 1.0000000e+01 0.0000000e+00 
1.0000000e+00 1.0000000e+01 0.0000000e+00 
5.0000000e+00 1.0000000e+01 0.0000000e+00 
1.0000000e+01 1.0000000e+01 0.0000000e+00 
1.5000000e+01 1.0000000e+01 0.0000000e+00 
1.0000000e+00 0.0000000e+00 0.0000000e+00 
2.0000000e+00 0.0000000e+00 0.0000000e+00 
3.0000000e+00 0.0000000e+00 0.0000000e+00 
4.0000000e+00 0.0000000e+00 0.0000000e+00 
5.0000000e+00 0.0000000e+00 0.0000000e+00 
6.0000000e+00 0.0000000e+00 0.0000000e+00 
7.0000000e+00 0.0000000e+00 0.0000000e+00 
8.0000000e+00 0.0000000e+00 0.0000000e+00 
9.0000000e+00 0.0000000e+00 0.0000000e+00 
1.0000000e+01 0.0000000e+00 0.0000000e+00 
1.1000000e+01 0.0000000e+00 0.0000000e+00 
1.2000000e+01 0.0000000e+00 0.0000000e+00 
1.3000000e+01 0.0000000e+00 0.0000000e+00 
1.4000000e+01 0.0000000e+00 0.0000000e+00 
1.5000000e+01 0.0000000e+00 0.0000000e+00 
1.6000000e+01 0.0000000e+00 0.0000000e+00 
1.7000000e+01 0.0000000e+00 0.0000000e+00 
1.8000000e+01 0.0000000e+00 0.0000000e+00 
1.9000000e+01 0.0000000e+00 0.0000000e+00 
5.0000000e-01 0.0000000e+00 0.0000000e+00 
1.5000000e+00 0.0000000e+00 0.0000000e+00 
2.5000000e+00 0.0000000e+00 0.0000000e+00 
3.5000000e+00 0.0000000e+00 0.0000000e+00 
4.5000000e+00 0.0000000e+00 0.0000000e+00 
5.5000000e+00 0.0000000e+00 0.0000000e+00 
6.5000000e+00 0.0000000e+00 0.0000000e+00 
7.5000000e+00 0.0000000e+00 0.0000000e+00 
8.5000000e+00 0.0000000e+00 0.0000000e+00 
9.5000000e+00 0.0000000e+00 0.0000000e+00 
1.0500000e+01 0.0000000e+00 0.0000000e+00 
1.1500000e+01 0.0000000e+00 0.0000000e+00 
1.2500000e+01 0.0000000e+00 0.0000000e+00 
1.3500000e+01 0.0000000e+00 0.0000000e+00 
1.4500000e+01 0.0000000e+00 0.0000000e+00 
1.5500000e+01 0.0000000e+00 0.0000000e+00 
1.6500000e+01 0.0000000e+00 0.0000000e+00 
1.7500000e+01 0.0000000e+00 0.0000000e+00 
1.8500000e+01 0.0000000e+00 0.0000000e+00 
1.9500000e+01 0.0000000e+00 0.0000000e+00 
2.0000000e+01 1.0000000e+00 0.0000000e+00 
2.0000000e+01 2.0000000e+00 0.0000000e+00 
2.0000000e+01 3.0000000e+00 0.0000000e+00 
2.0000000e+01 4.0000000e+00 0.0000000e+00 
2.0000000e+01 5.0000000e+00 0.0000000e+00 
2.0000000e+01 6.0000000e+00 0.0000000e+00 
2.0000000e+01 7.0000000e+00 0.0000000e+00 
2.0000000e+01 8.0000000e+00 0.0000000e+00 
2.0000000e+01 9.0000000e+00 0.0000000e+00 
2.0000000e+01 5.0000000e-01 0.0000000e+00 
2.0000000e+01 1.5000000e+00 0.0000000e+00 
2.0000000e+01 2.5000000e+00 0.0000000e+00 
2.0000000e+01 3.5000000e+00 0.0000000e+00 
2.0000000e+01 4.5000000e+00 0.0000000e+00 
2.0000000e+01 5.5000000e+00 0.0000000e+00 
2.0000000e+01 6.5000000e+00 0.0000000e+00 
2.0000000e+01 7.5000000e+00 0.0000000e+00 
2.0000000e+01 8.5000000e+00 0.0000000e+00 
2.0000000e+01 9.5000000e+00 0.0000000e+00 
0.0000000e+00 9.0000000e+00 0.0000000e+00 
0.0000000e+00 8.0000000e+00 0.0000000e+00 
0.0000000e+00 7.0000000e+00 0.0000000e+00 
0.0000000e+00 6.0000000e+00 0.0000000e+00 
0.0000000e+00 5.0000000e+00 0.0000000e+00 
0.0000000e+00 4.0000000e+00 0.0000000e+00 
0.0000000e+00 3.0000000e+00 0.0000000e+00 
0.0000000e+00 2.0000000e+00 0.0000000e+00 
0.0000000e+00 1.0000000e+00 0.0000000e+00 
0.0000000e+00 9.5000000e+00 0.0000000e+00 
0.0000000e+00 8.5000000e+00 0.0000000e+00 
0.0000000e+00 7.5000000e+00 0.0000000e+00 
0.0000000e+00 6.5000000e+00 0.0000000e+00 
0.0000000e+00 5.5000000e+00 0.0000000e+00 
0.0000000e+00 4.5000000e+00 0.0000000e+00 
0.0000000e+00 3.5000000e+00 0.0000000e+00 
0.0000000e+00 2.5000000e+00 0.0000000e+00 
0.0000000e+00 1.5000000e+00 0.0000000e+00 
0.0000000e+00 5.0000000e-01 0.0000000e+00 
5.0000000e-01 1.0000000e+01 0.0000000e+00 
6.0000000e+00 1.0000000e+01 0.0000000e+00 
7.0000000e+00 1.0000000e+01 0.0000000e+00 
8.0000000e+00 1.0000000e+01 0.0000000e+00 
9.0000000e+00 1.0000000e+01 0.0000000e+00 
5.5000000e+00 1.0000000e+01 0.0000000e+00 
6.5000000e+00 1.0000000e+01 0.0000000e+00 
7.5000000e+00 1.0000000e+01 0.0000000e+00 
8.5000000e+00 1.0000000e+01 0.0000000e+00 
9.5000000e+00 1.0000000e+01 0.0000000e+00 
1.1000000e+01 1.0000000e+01 0.0000000e+00 
1.2000000e+01 1.0000000e+01 0.0000000e+00 
1.3000000e+01 1.0000000e+01 0.0000000e+00 
1.4000000e+01 1.0000000e+01 0.0000000e+00 
1.0500000e+01 1.0000000e+01 0.0000000e+00 
1.1500000e+01 1.0000000e+01 0.0000000e+00 
1.2500000e+01 1.0000000e+01 0.0000000e+00 
1.3500000e+01 1.0000000e+01 0.0000000e+00 
1.4500000e+01 1.0000000e+01 0.0000000e+00 
1.9000000e+01 1.0000000e+01 0.0000000e+00 
1.8000000e+01 1.0000000e+01 0.0000000e+00 
1.7000000e+01 1.0000000e+01 0.0000000e+00 
1.6000000e+01 1.0000000e+01 0.0000000e+00 
1.9500000e+01 1.0000000e+01 0.0000000e+00 
1.8500000e+01 1.0000000e+01 0.0000000e+00 
1.7500000e+01 1.0000000e+01 0.0000000e+00 
1.6500000e+01 1.0000000e+01 0.0000000e+00 
1.5500000e+01 1.0000000e+01 0.0000000e+00 
4.0000000e+00 1.0000000e+01 0.0000000e+00 
3.0000000e+00 1.0000000e+01 0.0000000e+00 
2.0000000e+00 1.0000000e+01 0.0000000e+00 
4.5000000e+00 1.0000000e+01 0.0000000e+00 
3.5000000e+00 1.0000000e+01 0.0000000e+00 
2.5000000e+00 1.0000000e+01 0.0000000e+00 
1.5000000e+00 1.0000000e+01 0.0000000e+00 
9.5000000e+00 9.1339750e+00 0.0000000e+00 
1.4500000e+01 9.1339750e+00 0.0000000e+00 
5.5000000e+00 9.1339750e+00 0.0000000e+00 
7.5000000e+00 8.6602539e-01 0.0000000e+00 
1.1500000e+01 8.6602539e-01 0.0000000e+00 
1.4500000e+01 8.6602539e-01 0.0000000e+00 
4.5246964e+00 8.5176694e-01 0.0000000e+00 
1.9059727e+01 4.6363034e+00 0.0000000e+00 
8.4778279e-01 5.4684029e+00 0.0000000e+00 
7.5000000e+00 9.1339750e+00 0.0000000e+00 
1.1500000e+01 9.1339750e+00 0.0000000e+00 
1.6500000e+01 9.1339750e+00 0.0000000e+00 
3.5000000e+00 9.1339750e+00 0.0000000e+00 
9.5000000e+00 8.6602539e-01 0.0000000e+00 
1.6500000e+01 8.6602539e-01 0.0000000e+00 
8.6602539e-01 3.5000000e+00 0.0000000e+00 
1.9111458e+01 6.5092020e+00 0.0000000e+00 
8.9629614e-01 7.5867257e+00 0.0000000e+00 
1.9112749e+01 2.5204153e+00 0.0000000e+00 
2.5402119e+00 7.9592258e-01 0.0000000e+00 
1.9094303e+01 8.4081745e+00 0.0000000e+00 
1.5042374e+00 9.1532278e+00 0.0000000e+00 
8.2949740e-01 1.5059323e+00 0.0000000e+00 
1.8445559e+01 9.5495284e-01 0.0000000e+00 
4.5000000e+00 9.1339750e+00 0.0000000e+00 
5.0000000e+00 8.2679491e+00 0.0000000e+00 
6.0000000e+00 8.2679491e+00 0.0000000e+00 
5.5000000e+00 7.4019237e+00 0.0000000e+00 
6.5000000e+00 7.4019237e+00 0.0000000e+00 
6.0000000e+00 6.5358982e+00 0.0000000e+00 
7.0000000e+00 6.5358982e+00 0.0000000e+00 
6.5000000e+00 5.6698728e+00 0.0000000e+00 
7.5000000e+00 5.6698728e+00 0.0000000e+00 
5.5000000e+00 5.6698728e+00 0.0000000e+00 
6.0000000e+00 4.8038478e+00 0.0000000e+00 
5.0000000e+00 4.8038478e+00 0.0000000e+00 
4.5000000e+00 5.6698728e+00 0.0000000e+00 
4.0000000e+00 4.8038478e+00 0.0000000e+00 
5.5000000e+00 3.9378221e+00 0.0000000e+00 
6.5000000e+00 3.9378221e+00 0.0000000e+00 
8.0000000e+00 6.5358982e+00 0.0000000e+00 
8.5000000e+00 5.6698728e+00 0.0000000e+00 
9.0000000e+00 6.5358982e+00 0.0000000e+00 
9.5000000e+00 5.6698728e+00 0.0000000e+00 
9.0000000e+00 4.8038478e+00 0.0000000e+00 
1.0000000e+01 4.8038478e+00 0.0000000e+00 
1.0500000e+01 5.6698728e+00 0.0000000e+00 
1.1000000e+01 4.8038478e+00 0.0000000e+00 
1.1500000e+01 5.6698728e+00 0.0000000e+00 
1.2000000e+01 4.8038478e+00 0.0000000e+00 
1.2500000e+01 5.6698728e+00 0.0000000e+00 
1.3000000e+01 4.8038478e+00 0.0000000e+00 
1.3500000e+01 5.6698728e+00 0.0000000e+00 
1.4000000e+01 4.8038478e+00 0.0000000e+00 
1.4500000e+01 5.6698728e+00 0.0000000e+00 
1.5000000e+01 4.8038478e+00 0.0000000e+00 
1.5500000e+01 5.6698728e+00 0.0000000e+00 
1.3500000e+01 3.9378221e+00 0.0000000e+00 
1.0500000e+01 3.9378221e+00 0.0000000e+00 
1.6000000e+01 4.8038478e+00 0.0000000e+00 
1.5500000e+01 3.9378221e+00 0.0000000e+00 
1.3000000e+01 6.5358982e+00 0.0000000e+00 
1.6500000e+01 3.9378221e+00 0.0000000e+00 
6.0246964e+00 3.0860553e+00 0.0000000e+00 
3.5000000e+00 5.6698728e+00 0.0000000e+00 
1.6500000e+01 5.6698728e+00 0.0000000e+00 
1.6000000e+01 6.5358982e+00 0.0000000e+00 
1.1000000e+01 6.5358982e+00 0.0000000e+00 
5.0288124e+00 3.1213744e+00 0.0000000e+00 
7.0041161e+00 3.0741732e+00 0.0000000e+00 
2.9553418e+00 4.8365397e+00 0.0000000e+00 
1.6000000e+01 3.0717967e+00 0.0000000e+00 
1.7000000e+01 6.5358982e+00 0.0000000e+00 
1.7000000e+01 3.0717967e+00 0.0000000e+00 
8.5000000e+00 7.4019237e+00 0.0000000e+00 
3.4925570e+00 3.9432709e+00 0.0000000e+00 
9.5000000e+00 7.4019237e+00 0.0000000e+00 
4.5000000e+00 7.4019237e+00 0.0000000e+00 
1.5000000e+01 3.0717967e+00 0.0000000e+00 
1.7507488e+01 5.6669536e+00 0.0000000e+00 
6.5107503e+00 2.2357147e+00 0.0000000e+00 
1.5500000e+01 2.2057714e+00 0.0000000e+00 
1.7482849e+01 3.9478383e+00 0.0000000e+00 
2.4838426e+00 5.7012835e+00 0.0000000e+00 
2.9973071e+00 6.5411334e+00 0.0000000e+00 
1.6500000e+01 7.4019237e+00 0.0000000e+00 
1.5500000e+01 7.4019237e+00 0.0000000e+00 
1.7500000e+01 7.4019237e+00 0.0000000e+00 
7.5006862e+00 3.9382184e+00 0.0000000e+00 
8.0008001e+00 3.0722589e+00 0.0000000e+00 
2.4646075e+00 3.9872341e+00 0.0000000e+00 
3.0000000e+00 3.0717967e+00 0.0000000e+00 
2.0000000e+00 6.5358982e+00 0.0000000e+00 
2.5285575e+00 7.3860493e+00 0.0000000e+00 
1.4500000e+01 2.2057714e+00 0.0000000e+00 
1.8143080e+01 3.0350568e+00 0.0000000e+00 
1.7489780e+01 2.2149704e+00 0.0000000e+00 
1.8901860e+00 3.0475340e+00 0.0000000e+00 
2.5122623e+00 2.2156274e+00 0.0000000e+00 
3.5267401e+00 2.3241744e+00 0.0000000e+00 
1.6000000e+01 8.2679491e+00 0.0000000e+00 
1.5000000e+01 8.2679491e+00 0.0000000e+00 
1.4500000e+01 7.4019237e+00 0.0000000e+00 
1.4000000e+01 8.2679491e+00 0.0000000e+00 
1.3500000e+01 9.1339750e+00 0.0000000e+00 
1.3000000e+01 8.2679491e+00 0.0000000e+00 
9.0000000e+00 8.2679491e+00 0.0000000e+00 
1.0000000e+01 8.2679491e+00 0.0000000e+00 
1.8026423e+01 6.5280433e+00 0.0000000e+00 
1.8507418e+01 7.4261799e+00 0.0000000e+00 
[...]
POINT_DATA 1029
FIELD FieldData 1
VELOCITY 3 1029  float
0.0000000e+00 0.0000000e+00 0.0000000e+00 
0.0000000e+00 0.0000000e+00 0.0000000e+00 
0.0000000e+00 -2.0855896e-02 0.0000000e+00 
0.0000000e+00 5.7592100e-01 0.0000000e+00 
9.0561301e-02 6.1531276e-01 0.0000000e+00 
2.8669262e-01 3.9798328e-01 0.0000000e+00 
3.9944434e-01 1.1938684e-01 0.0000000e+00 
4.4517882e-02 2.2030596e-01 0.0000000e+00 
0.0000000e+00 0.0000000e+00 0.0000000e+00 
0.0000000e+00 0.0000000e+00 0.0000000e+00 
0.0000000e+00 0.0000000e+00 0.0000000e+00 
0.0000000e+00 0.0000000e+00 0.0000000e+00 
0.0000000e+00 0.0000000e+00 0.0000000e+00 
0.0000000e+00 0.0000000e+00 0.0000000e+00 
0.0000000e+00 0.0000000e+00 0.0000000e+00 
0.0000000e+00 0.0000000e+00 0.0000000e+00 
0.0000000e+00 0.0000000e+00 0.0000000e+00 
0.0000000e+00 0.0000000e+00 0.0000000e+00 
0.0000000e+00 0.0000000e+00 0.0000000e+00 
0.0000000e+00 0.0000000e+00 0.0000000e+00 
0.0000000e+00 0.0000000e+00 0.0000000e+00 
0.0000000e+00 0.0000000e+00 0.0000000e+00 
0.0000000e+00 0.0000000e+00 0.0000000e+00 
0.0000000e+00 0.0000000e+00 0.0000000e+00 
0.0000000e+00 0.0000000e+00 0.0000000e+00 
0.0000000e+00 0.0000000e+00 0.0000000e+00 
0.0000000e+00 0.0000000e+00 0.0000000e+00 
0.0000000e+00 0.0000000e+00 0.0000000e+00 
0.0000000e+00 0.0000000e+00 0.0000000e+00 
0.0000000e+00 0.0000000e+00 0.0000000e+00 
0.0000000e+00 0.0000000e+00 0.0000000e+00 
0.0000000e+00 0.0000000e+00 0.0000000e+00 
0.0000000e+00 0.0000000e+00 0.0000000e+00 
0.0000000e+00 0.0000000e+00 0.0000000e+00 
0.0000000e+00 0.0000000e+00 0.0000000e+00 
0.0000000e+00 0.0000000e+00 0.0000000e+00 
0.0000000e+00 0.0000000e+00 0.0000000e+00 
0.0000000e+00 0.0000000e+00 0.0000000e+00 
0.0000000e+00 0.0000000e+00 0.0000000e+00 
0.0000000e+00 0.0000000e+00 0.0000000e+00 
0.0000000e+00 0.0000000e+00 0.0000000e+00 
0.0000000e+00 0.0000000e+00 0.0000000e+00 
0.0000000e+00 0.0000000e+00 0.0000000e+00 
0.0000000e+00 0.0000000e+00 0.0000000e+00 
0.0000000e+00 0.0000000e+00 0.0000000e+00 
0.0000000e+00 0.0000000e+00 0.0000000e+00 
0.0000000e+00 0.0000000e+00 0.0000000e+00 
0.0000000e+00 3.2258026e-02 0.0000000e+00 
0.0000000e+00 -7.8808539e-02 0.0000000e+00 
0.0000000e+00 1.5606235e-02 0.0000000e+00 
0.0000000e+00 1.8801641e-02 0.0000000e+00 
0.0000000e+00 1.0804276e-02 0.0000000e+00 
0.0000000e+00 3.7248787e-02 0.0000000e+00 
0.0000000e+00 3.6260296e-02 0.0000000e+00 
0.0000000e+00 7.4109733e-02 0.0000000e+00 
0.0000000e+00 7.2414572e-03 0.0000000e+00 
0.0000000e+00 6.8846121e-02 0.0000000e+00 
0.0000000e+00 -6.4548396e-02 0.0000000e+00 
0.0000000e+00 -1.4133825e-02 0.0000000e+00 
0.0000000e+00 8.8103181e-03 0.0000000e+00 
0.0000000e+00 1.9278269e-02 0.0000000e+00 
0.0000000e+00 2.5323855e-02 0.0000000e+00 
0.0000000e+00 3.6882691e-02 0.0000000e+00 
0.0000000e+00 6.4215109e-02 0.0000000e+00 
0.0000000e+00 4.5796469e-02 0.0000000e+00 
0.0000000e+00 -1.0029185e-02 0.0000000e+00 
0.0000000e+00 7.1021831e-01 0.0000000e+00 
0.0000000e+00 8.1237227e-01 0.0000000e+00 
0.0000000e+00 7.7116424e-01 0.0000000e+00 
0.0000000e+00 2.8333259e-01 0.0000000e+00 
0.0000000e+00 4.2031482e-02 0.0000000e+00 
0.0000000e+00 7.1253978e-02 0.0000000e+00 
0.0000000e+00 -5.6007546e-03 0.0000000e+00 
0.0000000e+00 2.4221791e-02 0.0000000e+00 
0.0000000e+00 -9.2529505e-03 0.0000000e+00 
0.0000000e+00 6.4566100e-01 0.0000000e+00 
0.0000000e+00 7.4780232e-01 0.0000000e+00 
0.0000000e+00 8.5590816e-01 0.0000000e+00 
0.0000000e+00 5.4507565e-01 0.0000000e+00 
0.0000000e+00 9.9085309e-02 0.0000000e+00 
0.0000000e+00 7.6365024e-02 0.0000000e+00 
0.0000000e+00 1.1447441e-02 0.0000000e+00 
0.0000000e+00 2.5500925e-02 0.0000000e+00 
0.0000000e+00 -5.8601960e-03 0.0000000e+00 
0.0000000e+00 1.8335558e-02 0.0000000e+00 
4.0003307e-02 6.2288707e-01 0.0000000e+00 
3.4454432e-01 3.5033911e-01 0.0000000e+00 
4.2352819e-01 2.2406578e-01 0.0000000e+00 
4.9342820e-01 8.9650169e-02 0.0000000e+00 
4.4037035e-01 6.7440234e-02 0.0000000e+00 
3.0219662e-01 3.6916396e-01 0.0000000e+00 
3.7923381e-01 2.5719184e-01 0.0000000e+00 
4.8094079e-01 1.5141052e-01 0.0000000e+00 
4.6246594e-01 1.1696389e-01 0.0000000e+00 
4.2481649e-01 9.7243883e-02 0.0000000e+00 
3.2729846e-01 -1.6768344e-01 0.0000000e+00 
-1.2103422e-01 -5.8795214e-01 0.0000000e+00 
-6.9643486e-01 -1.9237281e-01 0.0000000e+00 
-5.2770692e-01 6.4943188e-01 0.0000000e+00 
3.7725934e-01 -1.3050201e-02 0.0000000e+00 
1.4506516e-01 -3.9153752e-01 0.0000000e+00 
-4.4706950e-01 -5.3053892e-01 0.0000000e+00 
-7.2593641e-01 2.7664354e-01 0.0000000e+00 
-1.5452227e-01 5.7799035e-01 0.0000000e+00 
-9.2401266e-02 3.1156434e-02 0.0000000e+00 
-9.5832683e-02 -1.7484808e-02 0.0000000e+00 
-1.9955474e-01 1.3161308e-01 0.0000000e+00 
-8.3380215e-02 -4.2733639e-02 0.0000000e+00 
-2.9350879e-02 9.9998591e-03 0.0000000e+00 
-1.0859684e-01 -8.9497529e-03 0.0000000e+00 
-1.4030544e-01 7.1766853e-02 0.0000000e+00 
-1.7224281e-01 2.8363686e-02 0.0000000e+00 
-3.0259171e-03 2.6213512e-02 0.0000000e+00 
2.6019478e-01 4.3755460e-01 0.0000000e+00 
2.4456169e-01 5.5729967e-01 0.0000000e+00 
1.8203941e-01 6.0307711e-01 0.0000000e+00 
2.8006622e-01 4.7153607e-01 0.0000000e+00 
2.7355215e-01 5.0639838e-01 0.0000000e+00 
2.2450921e-01 5.3401774e-01 0.0000000e+00 
1.2309261e-01 5.9712893e-01 0.0000000e+00 
1.8439914e-01 2.1693634e-02 0.0000000e+00 
-1.9884914e-01 6.0261172e-01 0.0000000e+00 
4.4086707e-01 3.6801121e-01 0.0000000e+00 
1.7990079e-02 8.3002239e-02 0.0000000e+00 
-6.2897660e-02 -3.1046987e-01 0.0000000e+00 
-3.5307831e-03 -3.0975020e-02 0.0000000e+00 
-1.7207108e-02 1.9537421e-02 0.0000000e+00 
-4.1375473e-02 6.4058892e-02 0.0000000e+00 
-5.8550369e-02 8.9835614e-02 0.0000000e+00 
3.0184820e-01 2.5738832e-01 0.0000000e+00 
-8.5147761e-02 -5.8598000e-01 0.0000000e+00 
-1.3179040e-01 8.4431786e-03 0.0000000e+00 
3.1104216e-01 5.4395407e-01 0.0000000e+00 
-2.7858512e-02 1.3043609e-03 0.0000000e+00 
-1.0677535e-02 5.7205454e-02 0.0000000e+00 
2.6112597e-02 1.1164430e-02 0.0000000e+00 
-2.2075895e-02 6.1809640e-02 0.0000000e+00 
-4.9603157e-02 8.3515209e-01 0.0000000e+00 
-3.7955608e-02 -1.8782936e-02 0.0000000e+00 
-5.1802844e-03 2.2589243e-03 0.0000000e+00 
-5.6773115e-02 3.8094636e-02 0.0000000e+00 
1.4953633e-01 6.3819140e-01 0.0000000e+00 
2.4765742e-03 2.2611232e-02 0.0000000e+00 
-1.7761961e-01 3.4400549e-02 0.0000000e+00 
3.9997053e-01 4.8183477e-01 0.0000000e+00 
1.9237782e-01 4.5117453e-01 0.0000000e+00 
1.9191718e-01 3.8342276e-01 0.0000000e+00 
-2.2498924e-01 4.2870551e-01 0.0000000e+00 
-1.5174335e-01 1.8157209e-01 0.0000000e+00 
-1.2204487e-01 8.9988269e-02 0.0000000e+00 
-1.8801622e-01 -4.1709971e-02 0.0000000e+00 
-5.4186814e-02 7.3076695e-02 0.0000000e+00 
-1.6552863e-01 -2.3193782e-02 0.0000000e+00 
-2.7137605e-02 1.3898973e-01 0.0000000e+00 
-1.0758596e-01 1.9781502e-01 0.0000000e+00 
-1.8697345e-01 2.5004381e-01 0.0000000e+00 
-7.1373373e-02 1.6025841e-01 0.0000000e+00 
-2.1020998e-01 2.5827384e-01 0.0000000e+00 
-1.9101036e-01 2.1183456e-01 0.0000000e+00 
-1.6187590e-01 1.9932231e-01 0.0000000e+00 
-2.3490098e-01 -1.8995926e-01 0.0000000e+00 
-2.5463891e-01 -1.4647701e-01 0.0000000e+00 
-2.5396490e-01 -2.5554284e-01 0.0000000e+00 
-3.0945379e-01 -3.4410366e-01 0.0000000e+00 
-2.2490855e-01 -2.8096679e-01 0.0000000e+00 
-3.1054929e-01 -3.8927835e-01 0.0000000e+00 
-3.2631990e-01 -4.2012644e-01 0.0000000e+00 
-3.2665059e-01 -4.3752694e-01 0.0000000e+00 
-1.8792915e-01 -4.5485544e-01 0.0000000e+00 
-2.7816170e-01 -3.8011533e-01 0.0000000e+00 
-1.6889796e-02 -4.2251998e-01 0.0000000e+00 
-2.3397344e-01 -1.5827537e-01 0.0000000e+00 
5.9533313e-02 -7.0381552e-02 0.0000000e+00 
-6.9496512e-02 1.5014243e-01 0.0000000e+00 
6.8564378e-02 2.3257901e-01 0.0000000e+00 
8.8085331e-02 1.5434034e-01 0.0000000e+00 
-2.4196414e-02 1.8538281e-01 0.0000000e+00 
-2.0211992e-01 1.4028618e-01 0.0000000e+00 
-2.9496080e-01 -4.9467257e-01 0.0000000e+00 
5.6656525e-02 9.4380066e-02 0.0000000e+00 
-9.1943750e-03 1.2285621e-01 0.0000000e+00 
5.2119870e-02 -2.5904182e-01 0.0000000e+00 
4.0986650e-02 5.7990082e-02 0.0000000e+00 
-5.6850966e-02 1.6129807e-01 0.0000000e+00 
-1.1276301e-01 1.3525860e-01 0.0000000e+00 
-9.6317856e-03 1.4008369e-01 0.0000000e+00 
-2.4887392e-02 1.5359512e-01 0.0000000e+00 
5.4754224e-02 -5.4783070e-01 0.0000000e+00 
-3.6072861e-02 1.0021164e-01 0.0000000e+00 
-8.0411106e-02 2.2413188e-01 0.0000000e+00 
-1.8121043e-01 2.0712087e-01 0.0000000e+00 
-1.7573909e-01 1.4728883e-01 0.0000000e+00 
-8.9371853e-02 9.8031819e-02 0.0000000e+00 
-4.6507817e-02 4.8862111e-02 0.0000000e+00 
1.1709700e-01 -1.9307305e-01 0.0000000e+00 
-6.6056654e-02 5.9614230e-02 0.0000000e+00 
2.0023181e-01 -3.5263395e-01 0.0000000e+00 
-2.4193560e-01 6.2011975e-01 0.0000000e+00 
-1.6106179e-01 1.8844250e-01 0.0000000e+00 
-5.3770721e-02 1.0331808e-01 0.0000000e+00 
-1.9642461e-02 1.1870534e-01 0.0000000e+00 
-1.3424341e-01 7.4137636e-02 0.0000000e+00 
-2.5587527e-02 3.8498171e-02 0.0000000e+00 
-9.8110728e-02 1.2415989e-01 0.0000000e+00 
-3.3540569e-02 4.7370312e-01 0.0000000e+00 
-1.1042012e-01 7.7811338e-02 0.0000000e+00 
-1.0383181e-01 2.3113365e-01 0.0000000e+00 
-1.4982423e-01 4.9067494e-02 0.0000000e+00 
-7.0604272e-02 1.1010852e-01 0.0000000e+00 
-5.2336559e-02 1.2663659e-01 0.0000000e+00 
-2.0683415e-02 5.5527847e-02 0.0000000e+00 
2.3391299e-02 4.0768996e-02 0.0000000e+00 
-4.4400342e-02 5.5554080e-01 0.0000000e+00 
-1.4094494e-01 7.4752921e-01 0.0000000e+00 
-8.2568422e-02 1.3609993e-01 0.0000000e+00 
-5.7661474e-02 -2.9236818e-02 0.0000000e+00 
-1.8915445e-01 8.2980193e-02 0.0000000e+00 
2.8228423e-02 3.6477678e-02 0.0000000e+00 
7.2689494e-03 2.4384826e-02 0.0000000e+00 
1.7393224e-02 2.4515133e-02 0.0000000e+00 
-1.3213953e-01 4.1745055e-02 0.0000000e+00 
-1.7136016e-01 3.5573015e-01 0.0000000e+00 
-7.7371839e-03 4.4734976e-01 0.0000000e+00 
-7.4805148e-02 5.4053926e-01 0.0000000e+00 
-2.1577090e-01 3.1048754e-01 0.0000000e+00 
5.3460136e-02 -1.1937652e-01 0.0000000e+00 
3.5025068e-02 -1.1311994e-01 0.0000000e+00 
-6.3223094e-02 -3.1570268e-01 0.0000000e+00 
-1.0032680e-01 7.3499605e-02 0.0000000e+00 
-7.5725213e-02 4.0825162e-02 0.0000000e+00 
-1.5138142e-01 2.5977323e-02 0.0000000e+00 
-7.7805750e-02 3.9694630e-02 0.0000000e+00 
-5.4568175e-02 4.5635507e-02 0.0000000e+00 
2.0240399e-01 2.9560173e-01 0.0000000e+00 
-1.5929538e-01 8.2190402e-02 0.0000000e+00 
-1.5913332e-01 8.2307994e-02 0.0000000e+00 
1.1744246e-01 -6.0267705e-01 0.0000000e+00 
-2.5514059e-02 -6.2052304e-01 0.0000000e+00 
-1.5835086e-02 3.0731818e-01 0.0000000e+00 
-1.3437926e-02 -4.2464262e-01 0.0000000e+00 
-1.9282393e-02 1.6455632e-01 0.0000000e+00 
3.7126884e-02 1.1932553e-01 0.0000000e+00 
-3.1876077e-03 -8.1463404e-02 0.0000000e+00 
4.1653231e-02 -1.3936529e-01 0.0000000e+00 
7.9665311e-02 -2.6981211e-01 0.0000000e+00 
-1.7638588e-01 6.8273783e-02 0.0000000e+00 
3.9150661e-01 2.6232851e-01 0.0000000e+00 
2.3855020e-01 2.0158677e-01 0.0000000e+00 
2.3316604e-01 5.6875056e-01 0.0000000e+00 
1.3997495e-01 1.1066595e-01 0.0000000e+00 
-8.3731398e-02 -5.7351363e-01 0.0000000e+00 
2.2184055e-02 -6.3600099e-01 0.0000000e+00 
-1.8880115e-01 2.6227552e-01 0.0000000e+00 
-3.2159694e-02 1.0419527e-01 0.0000000e+00 
-1.3919729e-02 9.3448721e-02 0.0000000e+00 
-6.6492870e-02 5.0141696e-02 0.0000000e+00 
-8.1143782e-02 1.8360848e-02 0.0000000e+00 
-3.4600702e-01 -5.0231779e-01 0.0000000e+00 
-3.1317633e-01 -5.2964836e-01 0.0000000e+00 
-3.3503792e-01 -4.6255910e-01 0.0000000e+00 
-3.9159092e-01 -4.5595586e-01 0.0000000e+00 
-1.6203852e-01 -1.5831968e-01 0.0000000e+00 
1.6307512e-02 1.2908806e-02 0.0000000e+00 
9.2902454e-03 2.5480347e-02 0.0000000e+00 
6.3314387e-03 1.4856053e-02 0.0000000e+00 
-6.4949272e-05 1.6830178e-02 0.0000000e+00 
-7.2141536e-02 -2.9951841e-01 0.0000000e+00 
-3.6873359e-02 1.3492909e-01 0.0000000e+00 
-7.1350212e-04 7.8726687e-02 0.0000000e+00 
-3.8009193e-02 2.1635795e-02 0.0000000e+00 
-5.3227777e-03 5.6248063e-01 0.0000000e+00 
-3.2192171e-02 1.1603460e-01 0.0000000e+00 
-1.1818915e-01 1.4983772e-01 0.0000000e+00 
-1.7532950e-02 5.8307935e-02 0.0000000e+00 
-6.6465572e-02 2.2557506e-01 0.0000000e+00 
-5.9513282e-02 -3.8379926e-02 0.0000000e+00 
-1.1005026e-01 1.3932312e-01 0.0000000e+00 
-2.5377530e-01 -2.6850739e-01 0.0000000e+00 
-6.8416104e-02 2.3940183e-01 0.0000000e+00 
-1.2498770e-01 1.3331221e-01 0.0000000e+00 
9.3787253e-02 -5.2714574e-01 0.0000000e+00 
-1.1330504e-01 -3.5713744e-01 0.0000000e+00 
5.6645989e-02 2.0209374e-01 0.0000000e+00 
-6.7742646e-02 -1.0831135e-01 0.0000000e+00 
-1.8065050e-02 1.1213539e-01 0.0000000e+00 
-1.3962935e-01 1.4041767e-02 0.0000000e+00 
1.6383609e-01 5.6548780e-01 0.0000000e+00 
1.2037759e-02 8.1843689e-02 0.0000000e+00 
-1.1323082e-02 -3.2137897e-02 0.0000000e+00 
-1.2304650e-02 2.5437602e-01 0.0000000e+00 
5.0434783e-02 1.2632275e-01 0.0000000e+00 
-2.0244002e-01 7.1172053e-01 0.0000000e+00 
-3.6285136e-02 3.4875232e-01 0.0000000e+00 
5.7019759e-02 7.7783912e-01 0.0000000e+00 
1.2528211e-01 6.9770014e-01 0.0000000e+00 
-1.5744993e-01 -2.9429254e-01 0.0000000e+00 
-1.4066501e-01 -3.2827368e-01 0.0000000e+00 
-1.7302233e-01 -4.9029151e-01 0.0000000e+00 
-1.6999768e-01 -4.2728931e-01 0.0000000e+00 
-1.3907871e-01 -1.9836947e-02 0.0000000e+00 
5.1373739e-02 7.5143230e-01 0.0000000e+00 
5.5424822e-03 8.3990498e-03 0.0000000e+00 
-1.2080192e-01 1.0093405e-02 0.0000000e+00 
1.2442628e-02 1.5934505e-02 0.0000000e+00 
-1.6508140e-01 2.3776221e-03 0.0000000e+00 
-1.7210206e-02 4.8467007e-02 0.0000000e+00 
-7.1402341e-02 2.2714909e-02 0.0000000e+00 
1.1077292e-04 2.4939271e-02 0.0000000e+00 
9.2169819e-03 7.2409622e-02 0.0000000e+00 
-3.4574885e-02 6.9333509e-02 0.0000000e+00 
4.4748359e-03 2.5969198e-02 0.0000000e+00 
-1.4224713e-02 1.6549970e-01 0.0000000e+00 
-1.6568300e-03 8.9771487e-02 0.0000000e+00 
2.6266514e-03 6.4518325e-02 0.0000000e+00 
1.3479484e-02 -2.5873175e-01 0.0000000e+00 
-1.6830005e-01 -4.8434931e-01 0.0000000e+00 
-2.4485597e-01 -1.5755080e-01 0.0000000e+00 
-4.6475576e-03 1.1412168e-01 0.0000000e+00 
2.4826728e-02 6.0465477e-02 0.0000000e+00 
-7.8001209e-02 9.6509688e-02 0.0000000e+00 
-7.3257998e-02 7.7296384e-02 0.0000000e+00 
-1.0840417e-01 5.7037506e-02 0.0000000e+00 
1.5864480e-02 5.0664499e-02 0.0000000e+00 
3.1017838e-02 3.3136912e-02 0.0000000e+00 
-1.0751569e-01 7.9185295e-01 0.0000000e+00 
-5.1662639e-02 4.7670953e-02 0.0000000e+00 
-7.9781808e-02 1.7927402e-01 0.0000000e+00 
-1.4631571e-01 -3.8848579e-02 0.0000000e+00 
7.8223877e-02 6.8973589e-01 0.0000000e+00 
-7.4529747e-04 1.4961011e-02 0.0000000e+00 
-5.3401213e-02 5.6247439e-02 0.0000000e+00 
-1.8181251e-01 7.3717095e-02 0.0000000e+00 
-8.7542655e-03 1.8573664e-02 0.0000000e+00 
-1.5012190e-01 1.4671627e-01 0.0000000e+00 
-7.4050158e-02 1.3753694e-01 0.0000000e+00 
-9.7440697e-02 1.5278029e-01 0.0000000e+00 
7.4026227e-02 7.6243848e-01 0.0000000e+00 
7.3613641e-03 8.1227350e-01 0.0000000e+00 
-2.5900202e-02 8.1523407e-01 0.0000000e+00 
-8.1665792e-02 8.1924647e-01 0.0000000e+00 
-6.9614120e-02 8.0712575e-01 0.0000000e+00 
-4.0470678e-02 -5.7065161e-04 0.0000000e+00 
-5.1823169e-02 1.8893736e-03 0.0000000e+00 
-4.4442054e-02 -1.9595567e-02 0.0000000e+00 
1.5502830e-02 2.2034751e-02 0.0000000e+00 
1.9492550e-03 2.2946609e-02 0.0000000e+00 
3.1511672e-02 1.7517374e-04 0.0000000e+00 
-5.8895942e-02 4.1784883e-02 0.0000000e+00 
-6.5938875e-02 2.8944468e-02 0.0000000e+00 
-6.3781917e-02 3.7730861e-02 0.0000000e+00 
-9.5157333e-02 3.3458654e-02 0.0000000e+00 
-1.0347912e-01 4.2635340e-02 0.0000000e+00 
-7.1816690e-02 4.4352975e-02 0.0000000e+00 
-5.0056409e-02 1.2017828e-01 0.0000000e+00 
-1.6868474e-02 6.3353516e-02 0.0000000e+00 
-2.7213905e-03 3.3664063e-02 0.0000000e+00 
-3.4830677e-03 4.3274041e-02 0.0000000e+00 
-8.6303249e-02 -1.5181912e-02 0.0000000e+00 
-8.7414868e-02 -2.1190999e-02 0.0000000e+00 
-1.4192201e-01 1.0616837e-01 0.0000000e+00 
-1.7135848e-01 1.2595506e-01 0.0000000e+00 
-4.0101372e-02 4.8859667e-02 0.0000000e+00 
-7.3859841e-02 4.5634639e-02 0.0000000e+00 
-5.4199748e-02 5.1018946e-02 0.0000000e+00 
-5.3186163e-02 5.7019845e-02 0.0000000e+00 
-4.5781225e-02 4.3234374e-02 0.0000000e+00 
-9.1107734e-02 4.4709392e-02 0.0000000e+00 
-5.6299344e-02 4.3255121e-02 0.0000000e+00 
-7.0955940e-02 6.3969143e-02 0.0000000e+00 
-5.9868295e-02 4.6714693e-02 0.0000000e+00 
1.9254768e-02 1.2028949e-02 0.0000000e+00 
-1.4798180e-03 2.7166672e-02 0.0000000e+00 
-5.2236747e-02 3.5373360e-02 0.0000000e+00 
-6.2344003e-02 -2.5992722e-03 0.0000000e+00 
1.0676588e-01 6.8928456e-01 0.0000000e+00 
1.4867578e-01 7.1211815e-01 0.0000000e+00 
-7.4170470e-02 7.0790184e-01 0.0000000e+00 
-4.8117492e-02 7.1123576e-01 0.0000000e+00 
-2.5531754e-02 5.4671347e-01 0.0000000e+00 
-8.5161269e-02 3.5465889e-02 0.0000000e+00 
-1.3867851e-01 1.4293080e-02 0.0000000e+00 
-2.1811784e-03 -5.2400581e-03 0.0000000e+00 
1.2531459e-02 1.0766714e-02 0.0000000e+00 
-8.8265827e-03 -4.3792027e-04 0.0000000e+00 
5.2827694e-03 3.9379828e-02 0.0000000e+00 
8.8792145e-03 5.6011908e-02 0.0000000e+00 
-1.7680351e-01 4.2455614e-02 0.0000000e+00 
-1.0576367e-01 1.1838215e-02 0.0000000e+00 
3.5140761e-03 2.2173012e-02 0.0000000e+00 
6.1339489e-03 2.7938038e-02 0.0000000e+00 
2.6425911e-05 2.8549911e-02 0.0000000e+00 
8.8890065e-03 6.2299661e-02 0.0000000e+00 
2.5808821e-02 6.0437765e-02 0.0000000e+00 
5.9927679e-03 9.7445257e-02 0.0000000e+00 
-6.1337981e-02 8.0948099e-02 0.0000000e+00 
-8.0940478e-02 9.4806552e-02 0.0000000e+00 
-7.4081101e-02 2.5298150e-02 0.0000000e+00 
-6.1592650e-02 4.6157911e-02 0.0000000e+00 
-1.5999752e-01 -3.0729445e-03 0.0000000e+00 
-2.0217712e-01 2.9045401e-02 0.0000000e+00 
-1.8968080e-01 2.5291354e-03 0.0000000e+00 
-3.7652217e-02 3.6062825e-01 0.0000000e+00 
-4.6965834e-02 3.5410672e-01 0.0000000e+00 
-4.3481693e-02 8.9324579e-02 0.0000000e+00 
-4.0008470e-02 7.6171434e-01 0.0000000e+00 
-3.4173280e-03 1.5185525e-02 0.0000000e+00 
4.9935514e-04 2.1113135e-02 0.0000000e+00 
-2.0145122e-02 6.0895313e-02 0.0000000e+00 
-4.8206255e-02 9.8604545e-02 0.0000000e+00 
-2.4830468e-02 7.2819166e-02 0.0000000e+00 
-5.9055801e-02 5.7844229e-02 0.0000000e+00 
-4.4796631e-02 1.1729497e-01 0.0000000e+00 
1.7869605e-02 2.6180267e-02 0.0000000e+00 
-4.1455827e-05 4.4828530e-02 0.0000000e+00 
1.4378792e-02 1.4751278e-02 0.0000000e+00 
1.2992268e-02 1.3214020e-02 0.0000000e+00 
-1.4323811e-01 2.9299982e-02 0.0000000e+00 
-1.4053711e-01 5.5752050e-02 0.0000000e+00 
-1.4274658e-01 -2.6816099e-03 0.0000000e+00 
-1.4365025e-01 -1.7423606e-02 0.0000000e+00 
-1.5351145e-01 5.5284362e-02 0.0000000e+00 
-1.8338542e-01 2.0049185e-01 0.0000000e+00 
-1.9474670e-01 2.7788794e-01 0.0000000e+00 
-2.0412764e-01 4.4944465e-01 0.0000000e+00 
-1.4406402e-01 1.7356840e-01 0.0000000e+00 
-1.7372073e-01 1.1722374e-01 0.0000000e+00 
-1.5224601e-01 3.8719807e-02 0.0000000e+00 
-1.6541913e-01 6.3363820e-01 0.0000000e+00 
-1.5705067e-01 5.4403251e-01 0.0000000e+00 
-2.2085689e-02 -5.5643058e-01 0.0000000e+00 
-5.6696068e-02 -6.2483996e-01 0.0000000e+00 
-4.4156063e-02 -5.9492373e-01 0.0000000e+00 
-4.3068580e-02 -6.4189422e-01 0.0000000e+00 
-5.1147994e-02 -6.0383093e-01 0.0000000e+00 
-4.2701253e-01 5.6634016e-02 0.0000000e+00 
-4.0409341e-01 5.1146400e-01 0.0000000e+00 
-1.4485498e-01 9.8728620e-02 0.0000000e+00 
-1.5509562e-01 7.5713404e-02 0.0000000e+00 
-5.8031037e-02 -3.1465802e-01 0.0000000e+00 
1.3190134e-01 -1.1234089e-01 0.0000000e+00 
-4.3229807e-02 -1.6079982e-01 0.0000000e+00 
-1.5031914e-01 8.6690448e-02 0.0000000e+00 
-6.3041234e-03 -5.3778493e-01 0.0000000e+00 
3.2049626e-02 -5.9239203e-01 0.0000000e+00 
-2.3843195e-02 -2.0160699e-01 0.0000000e+00 
4.4399807e-03 -1.7586250e-02 0.0000000e+00 
2.0830229e-01 1.1372567e-01 0.0000000e+00 
7.9420514e-02 1.0010269e-01 0.0000000e+00 
-2.1000041e-01 6.4485621e-01 0.0000000e+00 
-1.0430752e-01 4.8886898e-01 0.0000000e+00 
-2.8931373e-01 7.0380944e-01 0.0000000e+00 
4.4527281e-02 -4.6436259e-01 0.0000000e+00 
4.2824425e-02 -3.1208804e-01 0.0000000e+00 
-3.2401867e-02 -2.9708636e-01 0.0000000e+00 
-2.3989324e-02 -5.7778627e-01 0.0000000e+00 