# vtk DataFile Version 4.0
vtk output
ASCII
DATASET UNSTRUCTURED_GRID
POINTS 63 float
0.0000000e+00 0.0000000e+00 0.0000000e+00 
1.0000000e+00 0.0000000e+00 0.0000000e+00 
1.0000000e+00 1.0000000e+01 0.0000000e+00 
0.0000000e+00 1.0000000e+01 0.0000000e+00 
5.0000000e-01 0.0000000e+00 0.0000000e+00 
1.0000000e+00 1.0000000e+00 0.0000000e+00 
1.0000000e+00 2.0000000e+00 0.0000000e+00 
1.0000000e+00 3.0000000e+00 0.0000000e+00 
1.0000000e+00 4.0000000e+00 0.0000000e+00 
1.0000000e+00 5.0000000e+00 0.0000000e+00 
1.0000000e+00 6.0000000e+00 0.0000000e+00 
1.0000000e+00 7.0000000e+00 0.0000000e+00 
1.0000000e+00 8.0000000e+00 0.0000000e+00 
1.0000000e+00 9.0000000e+00 0.0000000e+00 
1.0000000e+00 5.0000000e-01 0.0000000e+00 
1.0000000e+00 1.5000000e+00 0.0000000e+00 
1.0000000e+00 2.5000000e+00 0.0000000e+00 
1.0000000e+00 3.5000000e+00 0.0000000e+00 
1.0000000e+00 4.5000000e+00 0.0000000e+00 
1.0000000e+00 5.5000000e+00 0.0000000e+00 
1.0000000e+00 6.5000000e+00 0.0000000e+00 
1.0000000e+00 7.5000000e+00 0.0000000e+00 
1.0000000e+00 8.5000000e+00 0.0000000e+00 
1.0000000e+00 9.5000000e+00 0.0000000e+00 
5.0000000e-01 1.0000000e+01 0.0000000e+00 
0.0000000e+00 9.0000000e+00 0.0000000e+00 
0.0000000e+00 8.0000000e+00 0.0000000e+00 
0.0000000e+00 7.0000000e+00 0.0000000e+00 
0.0000000e+00 6.0000000e+00 0.0000000e+00 
0.0000000e+00 5.0000000e+00 0.0000000e+00 
0.0000000e+00 4.0000000e+00 0.0000000e+00 
0.0000000e+00 3.0000000e+00 0.0000000e+00 
0.0000000e+00 2.0000000e+00 0.0000000e+00 
0.0000000e+00 1.0000000e+00 0.0000000e+00 
0.0000000e+00 9.5000000e+00 0.0000000e+00 
0.0000000e+00 8.5000000e+00 0.0000000e+00 
0.0000000e+00 7.5000000e+00 0.0000000e+00 
0.0000000e+00 6.5000000e+00 0.0000000e+00 
0.0000000e+00 5.5000000e+00 0.0000000e+00 
0.0000000e+00 4.5000000e+00 0.0000000e+00 
0.0000000e+00 3.5000000e+00 0.0000000e+00 
0.0000000e+00 2.5000000e+00 0.0000000e+00 
0.0000000e+00 1.5000000e+00 0.0000000e+00 
0.0000000e+00 5.0000000e-01 0.0000000e+00 
5.0000000e-01 1.0000000e+00 0.0000000e+00 
5.0000000e-01 5.0000000e-01 0.0000000e+00 
5.0000000e-01 2.0000000e+00 0.0000000e+00 
5.0000000e-01 1.5000000e+00 0.0000000e+00 
5.0000000e-01 3.0000000e+00 0.0000000e+00 
5.0000000e-01 2.5000000e+00 0.0000000e+00 
5.0000000e-01 4.0000000e+00 0.0000000e+00 
5.0000000e-01 3.5000000e+00 0.0000000e+00 
5.0000000e-01 5.0000000e+00 0.0000000e+00 
5.0000000e-01 4.5000000e+00 0.0000000e+00 
5.0000000e-01 6.0000000e+00 0.0000000e+00 
5.0000000e-01 5.5000000e+00 0.0000000e+00 
5.0000000e-01 7.0000000e+00 0.0000000e+00 
5.0000000e-01 6.5000000e+00 0.0000000e+00 
5.0000000e-01 8.0000000e+00 0.0000000e+00 
5.0000000e-01 7.5000000e+00 0.0000000e+00 
5.0000000e-01 9.0000000e+00 0.0000000e+00 
5.0000000e-01 8.5000000e+00 0.0000000e+00 
5.0000000e-01 9.5000000e+00 0.0000000e+00 

CELLS 10 90
8 0 1 5 33 4 14 44 43
8 33 5 6 32 44 15 46 42
8 32 6 7 31 46 16 48 41
8 31 7 8 30 48 17 50 40
8 30 8 9 29 50 18 52 39
8 29 9 10 28 52 19 54 38
8 28 10 11 27 54 20 56 37
8 27 11 12 26 56 21 58 36
8 26 12 13 25 58 22 60 35
8 25 13 2 3 60 23 24 34

CELL_TYPES 10
23
23
23
23
23
23
23
23
23
23
POINT_DATA 63
FIELD FieldData 2
DISPLACEMENT 3 63  float
0.0000000e+00 -2.2562328e-06 0.0000000e+00 
0.0000000e+00 -2.2562328e-06 0.0000000e+00 
0.0000000e+00 -3.1625450e-06 0.0000000e+00 
0.0000000e+00 -3.1625450e-06 0.0000000e+00 
-3.9355513e-22 -2.2562328e-06 0.0000000e+00 
0.0000000e+00 -2.3479993e-06 0.0000000e+00 
0.0000000e+00 -2.4386691e-06 0.0000000e+00 
0.0000000e+00 -2.5297497e-06 0.0000000e+00 
0.0000000e+00 -2.6212215e-06 0.0000000e+00 
0.0000000e+00 -2.7117551e-06 0.0000000e+00 
0.0000000e+00 -2.8019867e-06 0.0000000e+00 
0.0000000e+00 -2.8925913e-06 0.0000000e+00 
0.0000000e+00 -2.9824516e-06 0.0000000e+00 
0.0000000e+00 -3.0725375e-06 0.0000000e+00 
0.0000000e+00 -2.3023197e-06 0.0000000e+00 
0.0000000e+00 -2.3933737e-06 0.0000000e+00 
0.0000000e+00 -2.4841054e-06 0.0000000e+00 
0.0000000e+00 -2.5755289e-06 0.0000000e+00 
0.0000000e+00 -2.6666246e-06 0.0000000e+00 
0.0000000e+00 -2.7568019e-06 0.0000000e+00 
0.0000000e+00 -2.8473401e-06 0.0000000e+00 
0.0000000e+00 -2.9375267e-06 0.0000000e+00 
0.0000000e+00 -3.0275610e-06 0.0000000e+00 
0.0000000e+00 -3.1175011e-06 0.0000000e+00 
1.8694258e-22 -3.1625450e-06 0.0000000e+00 
0.0000000e+00 -3.0725375e-06 0.0000000e+00 
0.0000000e+00 -2.9824516e-06 0.0000000e+00 
0.0000000e+00 -2.8925913e-06 0.0000000e+00 
0.0000000e+00 -2.8019867e-06 0.0000000e+00 
0.0000000e+00 -2.7117551e-06 0.0000000e+00 
0.0000000e+00 -2.6212215e-06 0.0000000e+00 
0.0000000e+00 -2.5297497e-06 0.0000000e+00 
0.0000000e+00 -2.4386691e-06 0.0000000e+00 
0.0000000e+00 -2.3479993e-06 0.0000000e+00 
0.0000000e+00 -3.1175011e-06 0.0000000e+00 
0.0000000e+00 -3.0275610e-06 0.0000000e+00 
0.0000000e+00 -2.9375267e-06 0.0000000e+00 
0.0000000e+00 -2.8473401e-06 0.0000000e+00 
0.0000000e+00 -2.7568019e-06 0.0000000e+00 
0.0000000e+00 -2.6666246e-06 0.0000000e+00 
0.0000000e+00 -2.5755289e-06 0.0000000e+00 
0.0000000e+00 -2.4841054e-06 0.0000000e+00 
0.0000000e+00 -2.3933737e-06 0.0000000e+00 
0.0000000e+00 -2.3023197e-06 0.0000000e+00 
2.1769898e-22 -2.3479993e-06 0.0000000e+00 
0.0000000e+00 0.0000000e+00 0.0000000e+00 
-9.5887949e-23 -2.4386691e-06 0.0000000e+00 
0.0000000e+00 0.0000000e+00 0.0000000e+00 
1.9823238e-23 -2.5297497e-06 0.0000000e+00 
0.0000000e+00 0.0000000e+00 0.0000000e+00 
4.1711562e-22 -2.6212215e-06 0.0000000e+00 
0.0000000e+00 0.0000000e+00 0.0000000e+00 
-5.3295569e-22 -2.7117551e-06 0.0000000e+00 
0.0000000e+00 0.0000000e+00 0.0000000e+00 
1.9837353e-22 -2.8019867e-06 0.0000000e+00 
0.0000000e+00 0.0000000e+00 0.0000000e+00 
8.1362533e-23 -2.8925913e-06 0.0000000e+00 
0.0000000e+00 0.0000000e+00 0.0000000e+00 
4.3346304e-23 -2.9824516e-06 0.0000000e+00 
0.0000000e+00 0.0000000e+00 0.0000000e+00 
-5.7076179e-22 -3.0725375e-06 0.0000000e+00 
0.0000000e+00 0.0000000e+00 0.0000000e+00 
0.0000000e+00 0.0000000e+00 0.0000000e+00 
VELOCITY 3 63  float
0.0000000e+00 -2.1473972e-05 0.0000000e+00 
0.0000000e+00 -2.1473972e-05 0.0000000e+00 
0.0000000e+00 -2.1234206e-05 0.0000000e+00 
0.0000000e+00 -2.1234206e-05 0.0000000e+00 
-6.3978256e-21 -2.1473972e-05 0.0000000e+00 
0.0000000e+00 -2.1172733e-05 0.0000000e+00 
0.0000000e+00 -2.1227197e-05 0.0000000e+00 
0.0000000e+00 -2.1445640e-05 0.0000000e+00 
0.0000000e+00 -2.1288090e-05 0.0000000e+00 
0.0000000e+00 -2.1047546e-05 0.0000000e+00 
0.0000000e+00 -2.1257079e-05 0.0000000e+00 
0.0000000e+00 -2.1174708e-05 0.0000000e+00 
0.0000000e+00 -2.1382855e-05 0.0000000e+00 
0.0000000e+00 -2.1276386e-05 0.0000000e+00 
0.0000000e+00 -2.1299064e-05 0.0000000e+00 
0.0000000e+00 -2.1150350e-05 0.0000000e+00 
0.0000000e+00 -2.1355152e-05 0.0000000e+00 
0.0000000e+00 -2.1420818e-05 0.0000000e+00 
0.0000000e+00 -2.1124464e-05 0.0000000e+00 
0.0000000e+00 -2.1123855e-05 0.0000000e+00 
0.0000000e+00 -2.1278413e-05 0.0000000e+00 
0.0000000e+00 -2.1149204e-05 0.0000000e+00 
0.0000000e+00 -2.1285337e-05 0.0000000e+00 
0.0000000e+00 -2.1388789e-05 0.0000000e+00 
3.3087088e-22 -2.1234206e-05 0.0000000e+00 
0.0000000e+00 -2.1276386e-05 0.0000000e+00 
0.0000000e+00 -2.1382855e-05 0.0000000e+00 
0.0000000e+00 -2.1174708e-05 0.0000000e+00 
0.0000000e+00 -2.1257079e-05 0.0000000e+00 
0.0000000e+00 -2.1047546e-05 0.0000000e+00 
0.0000000e+00 -2.1288090e-05 0.0000000e+00 
0.0000000e+00 -2.1445640e-05 0.0000000e+00 
0.0000000e+00 -2.1227197e-05 0.0000000e+00 
0.0000000e+00 -2.1172733e-05 0.0000000e+00 
0.0000000e+00 -2.1388789e-05 0.0000000e+00 
0.0000000e+00 -2.1285337e-05 0.0000000e+00 
0.0000000e+00 -2.1149204e-05 0.0000000e+00 
0.0000000e+00 -2.1278413e-05 0.0000000e+00 
0.0000000e+00 -2.1123855e-05 0.0000000e+00 
0.0000000e+00 -2.1124464e-05 0.0000000e+00 
0.0000000e+00 -2.1420818e-05 0.0000000e+00 
0.0000000e+00 -2.1355152e-05 0.0000000e+00 
0.0000000e+00 -2.1150350e-05 0.0000000e+00 
0.0000000e+00 -2.1299064e-05 0.0000000e+00 
5.6095605e-21 -2.1172733e-05 0.0000000e+00 
0.0000000e+00 0.0000000e+00 0.0000000e+00 
-1.5878133e-21 -2.1227197e-05 0.0000000e+00 
0.0000000e+00 0.0000000e+00 0.0000000e+00 
2.2041815e-21 -2.1445640e-05 0.0000000e+00 
0.0000000e+00 0.0000000e+00 0.0000000e+00 
2.4318438e-21 -2.1288090e-05 0.0000000e+00 
0.0000000e+00 0.0000000e+00 0.0000000e+00 
-4.9565426e-21 -2.1047546e-05 0.0000000e+00 
0.0000000e+00 0.0000000e+00 0.0000000e+00 
7.5778837e-22 -2.1257079e-05 0.0000000e+00 
0.0000000e+00 0.0000000e+00 0.0000000e+00 
-8.5260775e-23 -2.1174708e-05 0.0000000e+00 
0.0000000e+00 0.0000000e+00 0.0000000e+00 
7.7931768e-22 -2.1382855e-05 0.0000000e+00 
0.0000000e+00 0.0000000e+00 0.0000000e+00 
-3.3818964e-21 -2.1276386e-05 0.0000000e+00 
0.0000000e+00 0.0000000e+00 0.0000000e+00 
0.0000000e+00 0.0000000e+00 0.0000000e+00 
CELL_DATA 10
FIELD FieldData 0
