# vtk DataFile Version 4.0
vtk output
ASCII
DATASET UNSTRUCTURED_GRID
POINTS 63 float
0.0000000e+00 0.0000000e+00 0.0000000e+00 
1.0000000e+00 0.0000000e+00 0.0000000e+00 
1.0000000e+00 1.0000000e+01 0.0000000e+00 
0.0000000e+00 1.0000000e+01 0.0000000e+00 
5.0000000e-01 0.0000000e+00 0.0000000e+00 
1.0000000e+00 1.0000000e+00 0.0000000e+00 
1.0000000e+00 2.0000000e+00 0.0000000e+00 
1.0000000e+00 3.0000000e+00 0.0000000e+00 
1.0000000e+00 4.0000000e+00 0.0000000e+00 
1.0000000e+00 5.0000000e+00 0.0000000e+00 
1.0000000e+00 6.0000000e+00 0.0000000e+00 
1.0000000e+00 7.0000000e+00 0.0000000e+00 
1.0000000e+00 8.0000000e+00 0.0000000e+00 
1.0000000e+00 9.0000000e+00 0.0000000e+00 
1.0000000e+00 5.0000000e-01 0.0000000e+00 
1.0000000e+00 1.5000000e+00 0.0000000e+00 
1.0000000e+00 2.5000000e+00 0.0000000e+00 
1.0000000e+00 3.5000000e+00 0.0000000e+00 
1.0000000e+00 4.5000000e+00 0.0000000e+00 
1.0000000e+00 5.5000000e+00 0.0000000e+00 
1.0000000e+00 6.5000000e+00 0.0000000e+00 
1.0000000e+00 7.5000000e+00 0.0000000e+00 
1.0000000e+00 8.5000000e+00 0.0000000e+00 
1.0000000e+00 9.5000000e+00 0.0000000e+00 
5.0000000e-01 1.0000000e+01 0.0000000e+00 
0.0000000e+00 9.0000000e+00 0.0000000e+00 
0.0000000e+00 8.0000000e+00 0.0000000e+00 
0.0000000e+00 7.0000000e+00 0.0000000e+00 
0.0000000e+00 6.0000000e+00 0.0000000e+00 
0.0000000e+00 5.0000000e+00 0.0000000e+00 
0.0000000e+00 4.0000000e+00 0.0000000e+00 
0.0000000e+00 3.0000000e+00 0.0000000e+00 
0.0000000e+00 2.0000000e+00 0.0000000e+00 
0.0000000e+00 1.0000000e+00 0.0000000e+00 
0.0000000e+00 9.5000000e+00 0.0000000e+00 
0.0000000e+00 8.5000000e+00 0.0000000e+00 
0.0000000e+00 7.5000000e+00 0.0000000e+00 
0.0000000e+00 6.5000000e+00 0.0000000e+00 
0.0000000e+00 5.5000000e+00 0.0000000e+00 
0.0000000e+00 4.5000000e+00 0.0000000e+00 
0.0000000e+00 3.5000000e+00 0.0000000e+00 
0.0000000e+00 2.5000000e+00 0.0000000e+00 
0.0000000e+00 1.5000000e+00 0.0000000e+00 
0.0000000e+00 5.0000000e-01 0.0000000e+00 
5.0000000e-01 1.0000000e+00 0.0000000e+00 
5.0000000e-01 5.0000000e-01 0.0000000e+00 
5.0000000e-01 2.0000000e+00 0.0000000e+00 
5.0000000e-01 1.5000000e+00 0.0000000e+00 
5.0000000e-01 3.0000000e+00 0.0000000e+00 
5.0000000e-01 2.5000000e+00 0.0000000e+00 
5.0000000e-01 4.0000000e+00 0.0000000e+00 
5.0000000e-01 3.5000000e+00 0.0000000e+00 
5.0000000e-01 5.0000000e+00 0.0000000e+00 
5.0000000e-01 4.5000000e+00 0.0000000e+00 
5.0000000e-01 6.0000000e+00 0.0000000e+00 
5.0000000e-01 5.5000000e+00 0.0000000e+00 
5.0000000e-01 7.0000000e+00 0.0000000e+00 
5.0000000e-01 6.5000000e+00 0.0000000e+00 
5.0000000e-01 8.0000000e+00 0.0000000e+00 
5.0000000e-01 7.5000000e+00 0.0000000e+00 
5.0000000e-01 9.0000000e+00 0.0000000e+00 
5.0000000e-01 8.5000000e+00 0.0000000e+00 
5.0000000e-01 9.5000000e+00 0.0000000e+00 

CELLS 10 90
8 0 1 5 33 4 14 44 43
8 33 5 6 32 44 15 46 42
8 32 6 7 31 46 16 48 41
8 31 7 8 30 48 17 50 40
8 30 8 9 29 50 18 52 39
8 29 9 10 28 52 19 54 38
8 28 10 11 27 54 20 56 37
8 27 11 12 26 56 21 58 36
8 26 12 13 25 58 22 60 35
8 25 13 2 3 60 23 24 34

CELL_TYPES 10
23
23
23
23
23
23
23
23
23
23
POINT_DATA 63
FIELD FieldData 2
DISPLACEMENT 3 63  float
0.0000000e+00 -1.1728786e-06 0.0000000e+00 
0.0000000e+00 -1.1728786e-06 0.0000000e+00 
0.0000000e+00 -2.0835303e-06 0.0000000e+00 
0.0000000e+00 -2.0835303e-06 0.0000000e+00 
-2.1520519e-22 -1.1728786e-06 0.0000000e+00 
0.0000000e+00 -1.2628933e-06 0.0000000e+00 
0.0000000e+00 -1.3566333e-06 0.0000000e+00 
0.0000000e+00 -1.4505927e-06 0.0000000e+00 
0.0000000e+00 -1.5415341e-06 0.0000000e+00 
0.0000000e+00 -1.6305426e-06 0.0000000e+00 
0.0000000e+00 -1.7214112e-06 0.0000000e+00 
0.0000000e+00 -1.8135075e-06 0.0000000e+00 
0.0000000e+00 -1.9031282e-06 0.0000000e+00 
0.0000000e+00 -1.9936836e-06 0.0000000e+00 
0.0000000e+00 -1.2173231e-06 0.0000000e+00 
0.0000000e+00 -1.3094715e-06 0.0000000e+00 
0.0000000e+00 -1.4038466e-06 0.0000000e+00 
0.0000000e+00 -1.4964829e-06 0.0000000e+00 
0.0000000e+00 -1.5860302e-06 0.0000000e+00 
0.0000000e+00 -1.6756279e-06 0.0000000e+00 
0.0000000e+00 -1.7676042e-06 0.0000000e+00 
0.0000000e+00 -1.8585661e-06 0.0000000e+00 
0.0000000e+00 -1.9481729e-06 0.0000000e+00 
0.0000000e+00 -2.0386756e-06 0.0000000e+00 
1.3069441e-22 -2.0835303e-06 0.0000000e+00 
0.0000000e+00 -1.9936836e-06 0.0000000e+00 
0.0000000e+00 -1.9031282e-06 0.0000000e+00 
0.0000000e+00 -1.8135075e-06 0.0000000e+00 
0.0000000e+00 -1.7214112e-06 0.0000000e+00 
0.0000000e+00 -1.6305426e-06 0.0000000e+00 
0.0000000e+00 -1.5415341e-06 0.0000000e+00 
0.0000000e+00 -1.4505927e-06 0.0000000e+00 
0.0000000e+00 -1.3566333e-06 0.0000000e+00 
0.0000000e+00 -1.2628933e-06 0.0000000e+00 
0.0000000e+00 -2.0386756e-06 0.0000000e+00 
0.0000000e+00 -1.9481729e-06 0.0000000e+00 
0.0000000e+00 -1.8585661e-06 0.0000000e+00 
0.0000000e+00 -1.7676042e-06 0.0000000e+00 
0.0000000e+00 -1.6756279e-06 0.0000000e+00 
0.0000000e+00 -1.5860302e-06 0.0000000e+00 
0.0000000e+00 -1.4964829e-06 0.0000000e+00 
0.0000000e+00 -1.4038466e-06 0.0000000e+00 
0.0000000e+00 -1.3094715e-06 0.0000000e+00 
0.0000000e+00 -1.2173231e-06 0.0000000e+00 
1.2305017e-22 -1.2628933e-06 0.0000000e+00 
0.0000000e+00 0.0000000e+00 0.0000000e+00 
-6.5459091e-23 -1.3566333e-06 0.0000000e+00 
0.0000000e+00 0.0000000e+00 0.0000000e+00 
3.0626950e-23 -1.4505927e-06 0.0000000e+00 
0.0000000e+00 0.0000000e+00 0.0000000e+00 
2.4005042e-22 -1.5415341e-06 0.0000000e+00 
0.0000000e+00 0.0000000e+00 0.0000000e+00 
-3.2487370e-22 -1.6305426e-06 0.0000000e+00 
0.0000000e+00 0.0000000e+00 0.0000000e+00 
1.3976583e-22 -1.7214112e-06 0.0000000e+00 
0.0000000e+00 0.0000000e+00 0.0000000e+00 
3.5570533e-23 -1.8135075e-06 0.0000000e+00 
0.0000000e+00 0.0000000e+00 0.0000000e+00 
3.1975896e-23 -1.9031282e-06 0.0000000e+00 
0.0000000e+00 0.0000000e+00 0.0000000e+00 
-3.6528670e-22 -1.9936836e-06 0.0000000e+00 
0.0000000e+00 0.0000000e+00 0.0000000e+00 
0.0000000e+00 0.0000000e+00 0.0000000e+00 
VELOCITY 3 63  float
0.0000000e+00 -2.1163212e-05 0.0000000e+00 
0.0000000e+00 -2.1163212e-05 0.0000000e+00 
0.0000000e+00 -2.2388458e-05 0.0000000e+00 
0.0000000e+00 -2.2388458e-05 0.0000000e+00 
-2.0389731e-21 -2.1163212e-05 0.0000000e+00 
0.0000000e+00 -2.2189524e-05 0.0000000e+00 
0.0000000e+00 -2.2547671e-05 0.0000000e+00 
0.0000000e+00 -2.1939404e-05 0.0000000e+00 
0.0000000e+00 -2.1204078e-05 0.0000000e+00 
0.0000000e+00 -2.1476671e-05 0.0000000e+00 
0.0000000e+00 -2.2290584e-05 0.0000000e+00 
0.0000000e+00 -2.2015380e-05 0.0000000e+00 
0.0000000e+00 -2.1855018e-05 0.0000000e+00 
0.0000000e+00 -2.2138291e-05 0.0000000e+00 
0.0000000e+00 -2.1706923e-05 0.0000000e+00 
0.0000000e+00 -2.2492517e-05 0.0000000e+00 
0.0000000e+00 -2.2334738e-05 0.0000000e+00 
0.0000000e+00 -2.1503114e-05 0.0000000e+00 
0.0000000e+00 -2.1194337e-05 0.0000000e+00 
0.0000000e+00 -2.1929874e-05 0.0000000e+00 
0.0000000e+00 -2.2307417e-05 0.0000000e+00 
0.0000000e+00 -2.1736481e-05 0.0000000e+00 
0.0000000e+00 -2.2372951e-05 0.0000000e+00 
0.0000000e+00 -2.2036365e-05 0.0000000e+00 
-9.9262108e-22 -2.2388458e-05 0.0000000e+00 
0.0000000e+00 -2.2138291e-05 0.0000000e+00 
0.0000000e+00 -2.1855018e-05 0.0000000e+00 
0.0000000e+00 -2.2015380e-05 0.0000000e+00 
0.0000000e+00 -2.2290584e-05 0.0000000e+00 
0.0000000e+00 -2.1476671e-05 0.0000000e+00 
0.0000000e+00 -2.1204078e-05 0.0000000e+00 
0.0000000e+00 -2.1939404e-05 0.0000000e+00 
0.0000000e+00 -2.2547671e-05 0.0000000e+00 
0.0000000e+00 -2.2189524e-05 0.0000000e+00 
0.0000000e+00 -2.2036365e-05 0.0000000e+00 
0.0000000e+00 -2.2372951e-05 0.0000000e+00 
0.0000000e+00 -2.1736481e-05 0.0000000e+00 
0.0000000e+00 -2.2307417e-05 0.0000000e+00 
0.0000000e+00 -2.1929874e-05 0.0000000e+00 
0.0000000e+00 -2.1194337e-05 0.0000000e+00 
0.0000000e+00 -2.1503114e-05 0.0000000e+00 
0.0000000e+00 -2.2334738e-05 0.0000000e+00 
0.0000000e+00 -2.2492517e-05 0.0000000e+00 
0.0000000e+00 -2.1706923e-05 0.0000000e+00 
3.8660855e-21 -2.2189524e-05 0.0000000e+00 
0.0000000e+00 0.0000000e+00 0.0000000e+00 
-4.1875639e-21 -2.2547671e-05 0.0000000e+00 
0.0000000e+00 0.0000000e+00 0.0000000e+00 
3.2514765e-21 -2.1939404e-05 0.0000000e+00 
0.0000000e+00 0.0000000e+00 0.0000000e+00 
2.5278076e-21 -2.1204078e-05 0.0000000e+00 
0.0000000e+00 0.0000000e+00 0.0000000e+00 
-3.1291096e-21 -2.1476671e-05 0.0000000e+00 
0.0000000e+00 0.0000000e+00 0.0000000e+00 
1.0520981e-21 -2.2290584e-05 0.0000000e+00 
0.0000000e+00 0.0000000e+00 0.0000000e+00 
-6.7050766e-23 -2.2015380e-05 0.0000000e+00 
0.0000000e+00 0.0000000e+00 0.0000000e+00 
1.7329135e-21 -2.1855018e-05 0.0000000e+00 
0.0000000e+00 0.0000000e+00 0.0000000e+00 
-3.5938538e-21 -2.2138291e-05 0.0000000e+00 
0.0000000e+00 0.0000000e+00 0.0000000e+00 
0.0000000e+00 0.0000000e+00 0.0000000e+00 
CELL_DATA 10
FIELD FieldData 0
