# vtk DataFile Version 4.0
vtk output
ASCII
DATASET UNSTRUCTURED_GRID
POINTS 63 float
0.0000000e+00 0.0000000e+00 0.0000000e+00 
1.0000000e+00 0.0000000e+00 0.0000000e+00 
1.0000000e+00 1.0000000e+01 0.0000000e+00 
0.0000000e+00 1.0000000e+01 0.0000000e+00 
5.0000000e-01 0.0000000e+00 0.0000000e+00 
1.0000000e+00 1.0000000e+00 0.0000000e+00 
1.0000000e+00 2.0000000e+00 0.0000000e+00 
1.0000000e+00 3.0000000e+00 0.0000000e+00 
1.0000000e+00 4.0000000e+00 0.0000000e+00 
1.0000000e+00 5.0000000e+00 0.0000000e+00 
1.0000000e+00 6.0000000e+00 0.0000000e+00 
1.0000000e+00 7.0000000e+00 0.0000000e+00 
1.0000000e+00 8.0000000e+00 0.0000000e+00 
1.0000000e+00 9.0000000e+00 0.0000000e+00 
1.0000000e+00 5.0000000e-01 0.0000000e+00 
1.0000000e+00 1.5000000e+00 0.0000000e+00 
1.0000000e+00 2.5000000e+00 0.0000000e+00 
1.0000000e+00 3.5000000e+00 0.0000000e+00 
1.0000000e+00 4.5000000e+00 0.0000000e+00 
1.0000000e+00 5.5000000e+00 0.0000000e+00 
1.0000000e+00 6.5000000e+00 0.0000000e+00 
1.0000000e+00 7.5000000e+00 0.0000000e+00 
1.0000000e+00 8.5000000e+00 0.0000000e+00 
1.0000000e+00 9.5000000e+00 0.0000000e+00 
5.0000000e-01 1.0000000e+01 0.0000000e+00 
0.0000000e+00 9.0000000e+00 0.0000000e+00 
0.0000000e+00 8.0000000e+00 0.0000000e+00 
0.0000000e+00 7.0000000e+00 0.0000000e+00 
0.0000000e+00 6.0000000e+00 0.0000000e+00 
0.0000000e+00 5.0000000e+00 0.0000000e+00 
0.0000000e+00 4.0000000e+00 0.0000000e+00 
0.0000000e+00 3.0000000e+00 0.0000000e+00 
0.0000000e+00 2.0000000e+00 0.0000000e+00 
0.0000000e+00 1.0000000e+00 0.0000000e+00 
0.0000000e+00 9.5000000e+00 0.0000000e+00 
0.0000000e+00 8.5000000e+00 0.0000000e+00 
0.0000000e+00 7.5000000e+00 0.0000000e+00 
0.0000000e+00 6.5000000e+00 0.0000000e+00 
0.0000000e+00 5.5000000e+00 0.0000000e+00 
0.0000000e+00 4.5000000e+00 0.0000000e+00 
0.0000000e+00 3.5000000e+00 0.0000000e+00 
0.0000000e+00 2.5000000e+00 0.0000000e+00 
0.0000000e+00 1.5000000e+00 0.0000000e+00 
0.0000000e+00 5.0000000e-01 0.0000000e+00 
5.0000000e-01 1.0000000e+00 0.0000000e+00 
5.0000000e-01 5.0000000e-01 0.0000000e+00 
5.0000000e-01 2.0000000e+00 0.0000000e+00 
5.0000000e-01 1.5000000e+00 0.0000000e+00 
5.0000000e-01 3.0000000e+00 0.0000000e+00 
5.0000000e-01 2.5000000e+00 0.0000000e+00 
5.0000000e-01 4.0000000e+00 0.0000000e+00 
5.0000000e-01 3.5000000e+00 0.0000000e+00 
5.0000000e-01 5.0000000e+00 0.0000000e+00 
5.0000000e-01 4.5000000e+00 0.0000000e+00 
5.0000000e-01 6.0000000e+00 0.0000000e+00 
5.0000000e-01 5.5000000e+00 0.0000000e+00 
5.0000000e-01 7.0000000e+00 0.0000000e+00 
5.0000000e-01 6.5000000e+00 0.0000000e+00 
5.0000000e-01 8.0000000e+00 0.0000000e+00 
5.0000000e-01 7.5000000e+00 0.0000000e+00 
5.0000000e-01 9.0000000e+00 0.0000000e+00 
5.0000000e-01 8.5000000e+00 0.0000000e+00 
5.0000000e-01 9.5000000e+00 0.0000000e+00 

CELLS 10 90
8 0 1 5 33 4 14 44 43
8 33 5 6 32 44 15 46 42
8 32 6 7 31 46 16 48 41
8 31 7 8 30 48 17 50 40
8 30 8 9 29 50 18 52 39
8 29 9 10 28 52 19 54 38
8 28 10 11 27 54 20 56 37
8 27 11 12 26 56 21 58 36
8 26 12 13 25 58 22 60 35
8 25 13 2 3 60 23 24 34

CELL_TYPES 10
23
23
23
23
23
23
23
23
23
23
POINT_DATA 63
FIELD FieldData 2
DISPLACEMENT 3 63  float
0.0000000e+00 -1.1870772e-07 0.0000000e+00 
0.0000000e+00 -1.1870772e-07 0.0000000e+00 
0.0000000e+00 -9.7953512e-07 0.0000000e+00 
0.0000000e+00 -9.7953512e-07 0.0000000e+00 
-2.6199904e-23 -1.1870772e-07 0.0000000e+00 
0.0000000e+00 -1.7115157e-07 0.0000000e+00 
0.0000000e+00 -2.4015401e-07 0.0000000e+00 
0.0000000e+00 -3.2553800e-07 0.0000000e+00 
0.0000000e+00 -4.2366125e-07 0.0000000e+00 
0.0000000e+00 -5.2694503e-07 0.0000000e+00 
0.0000000e+00 -6.2583649e-07 0.0000000e+00 
0.0000000e+00 -7.1449506e-07 0.0000000e+00 
0.0000000e+00 -7.9776629e-07 0.0000000e+00 
0.0000000e+00 -8.8791739e-07 0.0000000e+00 
0.0000000e+00 -1.4295291e-07 0.0000000e+00 
0.0000000e+00 -2.0353453e-07 0.0000000e+00 
0.0000000e+00 -2.8094226e-07 0.0000000e+00 
0.0000000e+00 -3.7340473e-07 0.0000000e+00 
0.0000000e+00 -4.7525640e-07 0.0000000e+00 
0.0000000e+00 -5.7746337e-07 0.0000000e+00 
0.0000000e+00 -6.7141417e-07 0.0000000e+00 
0.0000000e+00 -7.5602009e-07 0.0000000e+00 
0.0000000e+00 -8.4160160e-07 0.0000000e+00 
0.0000000e+00 -9.3470572e-07 0.0000000e+00 
3.8050296e-23 -9.7953512e-07 0.0000000e+00 
0.0000000e+00 -8.8791739e-07 0.0000000e+00 
0.0000000e+00 -7.9776629e-07 0.0000000e+00 
0.0000000e+00 -7.1449506e-07 0.0000000e+00 
0.0000000e+00 -6.2583649e-07 0.0000000e+00 
0.0000000e+00 -5.2694503e-07 0.0000000e+00 
0.0000000e+00 -4.2366125e-07 0.0000000e+00 
0.0000000e+00 -3.2553800e-07 0.0000000e+00 
0.0000000e+00 -2.4015401e-07 0.0000000e+00 
0.0000000e+00 -1.7115157e-07 0.0000000e+00 
0.0000000e+00 -9.3470572e-07 0.0000000e+00 
0.0000000e+00 -8.4160160e-07 0.0000000e+00 
0.0000000e+00 -7.5602009e-07 0.0000000e+00 
0.0000000e+00 -6.7141417e-07 0.0000000e+00 
0.0000000e+00 -5.7746337e-07 0.0000000e+00 
0.0000000e+00 -4.7525640e-07 0.0000000e+00 
0.0000000e+00 -3.7340473e-07 0.0000000e+00 
0.0000000e+00 -2.8094226e-07 0.0000000e+00 
0.0000000e+00 -2.0353453e-07 0.0000000e+00 
0.0000000e+00 -1.4295291e-07 0.0000000e+00 
1.2885832e-23 -1.7115157e-07 0.0000000e+00 
0.0000000e+00 0.0000000e+00 0.0000000e+00 
-1.8233775e-23 -2.4015401e-07 0.0000000e+00 
0.0000000e+00 0.0000000e+00 0.0000000e+00 
-3.9104106e-25 -3.2553800e-07 0.0000000e+00 
0.0000000e+00 0.0000000e+00 0.0000000e+00 
6.5169396e-23 -4.2366125e-07 0.0000000e+00 
0.0000000e+00 0.0000000e+00 0.0000000e+00 
-1.1144695e-22 -5.2694503e-07 0.0000000e+00 
0.0000000e+00 0.0000000e+00 0.0000000e+00 
5.6573867e-23 -6.2583649e-07 0.0000000e+00 
0.0000000e+00 0.0000000e+00 0.0000000e+00 
2.9185903e-24 -7.1449506e-07 0.0000000e+00 
0.0000000e+00 0.0000000e+00 0.0000000e+00 
-3.3107889e-24 -7.9776629e-07 0.0000000e+00 
0.0000000e+00 0.0000000e+00 0.0000000e+00 
-1.3933371e-22 -8.8791739e-07 0.0000000e+00 
0.0000000e+00 0.0000000e+00 0.0000000e+00 
0.0000000e+00 0.0000000e+00 0.0000000e+00 
VELOCITY 3 63  float
0.0000000e+00 -1.1766117e-05 0.0000000e+00 
0.0000000e+00 -1.1766117e-05 0.0000000e+00 
0.0000000e+00 -2.1344598e-05 0.0000000e+00 
0.0000000e+00 -2.1344598e-05 0.0000000e+00 
-3.1332527e-21 -1.1766117e-05 0.0000000e+00 
0.0000000e+00 -1.5623305e-05 0.0000000e+00 
0.0000000e+00 -1.9684656e-05 0.0000000e+00 
0.0000000e+00 -2.3225859e-05 0.0000000e+00 
0.0000000e+00 -2.5268775e-05 0.0000000e+00 
0.0000000e+00 -2.5014277e-05 0.0000000e+00 
0.0000000e+00 -2.2698239e-05 0.0000000e+00 
0.0000000e+00 -2.0400239e-05 0.0000000e+00 
0.0000000e+00 -2.1047466e-05 0.0000000e+00 
0.0000000e+00 -2.3311737e-05 0.0000000e+00 
0.0000000e+00 -1.3638724e-05 0.0000000e+00 
0.0000000e+00 -1.7666411e-05 0.0000000e+00 
0.0000000e+00 -2.1578755e-05 0.0000000e+00 
0.0000000e+00 -2.4495534e-05 0.0000000e+00 
0.0000000e+00 -2.5446410e-05 0.0000000e+00 
0.0000000e+00 -2.4025707e-05 0.0000000e+00 
0.0000000e+00 -2.1348953e-05 0.0000000e+00 
0.0000000e+00 -2.0270591e-05 0.0000000e+00 
0.0000000e+00 -2.2404018e-05 0.0000000e+00 
0.0000000e+00 -2.2034736e-05 0.0000000e+00 
-3.3087328e-22 -2.1344598e-05 0.0000000e+00 
0.0000000e+00 -2.3311737e-05 0.0000000e+00 
0.0000000e+00 -2.1047466e-05 0.0000000e+00 
0.0000000e+00 -2.0400239e-05 0.0000000e+00 
0.0000000e+00 -2.2698239e-05 0.0000000e+00 
0.0000000e+00 -2.5014277e-05 0.0000000e+00 
0.0000000e+00 -2.5268775e-05 0.0000000e+00 
0.0000000e+00 -2.3225859e-05 0.0000000e+00 
0.0000000e+00 -1.9684656e-05 0.0000000e+00 
0.0000000e+00 -1.5623305e-05 0.0000000e+00 
0.0000000e+00 -2.2034736e-05 0.0000000e+00 
0.0000000e+00 -2.2404018e-05 0.0000000e+00 
0.0000000e+00 -2.0270591e-05 0.0000000e+00 
0.0000000e+00 -2.1348953e-05 0.0000000e+00 
0.0000000e+00 -2.4025707e-05 0.0000000e+00 
0.0000000e+00 -2.5446410e-05 0.0000000e+00 
0.0000000e+00 -2.4495534e-05 0.0000000e+00 
0.0000000e+00 -2.1578755e-05 0.0000000e+00 
0.0000000e+00 -1.7666411e-05 0.0000000e+00 
0.0000000e+00 -1.3638724e-05 0.0000000e+00 
1.3218451e-21 -1.5623305e-05 0.0000000e+00 
0.0000000e+00 0.0000000e+00 0.0000000e+00 
-1.4377653e-21 -1.9684656e-05 0.0000000e+00 
0.0000000e+00 0.0000000e+00 0.0000000e+00 
3.6885995e-22 -2.3225859e-05 0.0000000e+00 
0.0000000e+00 0.0000000e+00 0.0000000e+00 
3.2902781e-21 -2.5268775e-05 0.0000000e+00 
0.0000000e+00 0.0000000e+00 0.0000000e+00 
-3.3509999e-21 -2.5014277e-05 0.0000000e+00 
0.0000000e+00 0.0000000e+00 0.0000000e+00 
3.7134480e-21 -2.2698239e-05 0.0000000e+00 
0.0000000e+00 0.0000000e+00 0.0000000e+00 
4.4338991e-23 -2.0400239e-05 0.0000000e+00 
0.0000000e+00 0.0000000e+00 0.0000000e+00 
1.4100266e-21 -2.1047466e-05 0.0000000e+00 
0.0000000e+00 0.0000000e+00 0.0000000e+00 
-3.9880744e-21 -2.3311737e-05 0.0000000e+00 
0.0000000e+00 0.0000000e+00 0.0000000e+00 
0.0000000e+00 0.0000000e+00 0.0000000e+00 
CELL_DATA 10
FIELD FieldData 0
