# vtk DataFile Version 4.0
vtk output
ASCII
DATASET UNSTRUCTURED_GRID
POINTS 1921 float
0.0000000e+00 0.0000000e+00 0.0000000e+00 
0.0000000e+00 0.0000000e+00 5.0000000e+01 
5.0000000e+00 0.0000000e+00 0.0000000e+00 
5.0000000e+00 0.0000000e+00 5.0000000e+01 
5.0000000e+00 1.0000000e+00 0.0000000e+00 
5.0000000e+00 1.0000000e+00 5.0000000e+01 
0.0000000e+00 1.0000000e+00 0.0000000e+00 
0.0000000e+00 1.0000000e+00 5.0000000e+01 
5.0000000e+00 2.0000000e+00 0.0000000e+00 
5.0000000e+00 2.0000000e+00 5.0000000e+01 
3.0000000e+00 2.0000000e+00 0.0000000e+00 
3.0000000e+00 2.0000000e+00 5.0000000e+01 
0.0000000e+00 2.0000000e+00 0.0000000e+00 
0.0000000e+00 2.0000000e+00 5.0000000e+01 
1.5000000e+00 3.0000000e+00 0.0000000e+00 
1.5000000e+00 3.0000000e+00 5.0000000e+01 
7.5000000e-01 3.0000000e+00 0.0000000e+00 
7.5000000e-01 3.0000000e+00 5.0000000e+01 
0.0000000e+00 3.0000000e+00 0.0000000e+00 
0.0000000e+00 3.0000000e+00 5.0000000e+01 
7.5000000e-01 3.0000000e+00 5.0000000e-01 
7.5000000e-01 3.0000000e+00 1.0000000e+00 
7.5000000e-01 3.0000000e+00 1.5000000e+00 
7.5000000e-01 3.0000000e+00 2.0000000e+00 
7.5000000e-01 3.0000000e+00 2.5000000e+00 
7.5000000e-01 3.0000000e+00 3.0000000e+00 
7.5000000e-01 3.0000000e+00 3.5000000e+00 
7.5000000e-01 3.0000000e+00 4.0000000e+00 
7.5000000e-01 3.0000000e+00 4.5000000e+00 
7.5000000e-01 3.0000000e+00 5.0000000e+00 
7.5000000e-01 3.0000000e+00 5.5000000e+00 
7.5000000e-01 3.0000000e+00 6.0000000e+00 
7.5000000e-01 3.0000000e+00 6.5000000e+00 
7.5000000e-01 3.0000000e+00 7.0000000e+00 
7.5000000e-01 3.0000000e+00 7.5000000e+00 
7.5000000e-01 3.0000000e+00 8.0000000e+00 
7.5000000e-01 3.0000000e+00 8.5000000e+00 
7.5000000e-01 3.0000000e+00 9.0000000e+00 
7.5000000e-01 3.0000000e+00 9.5000000e+00 
7.5000000e-01 3.0000000e+00 1.0000000e+01 
7.5000000e-01 3.0000000e+00 1.0500000e+01 
7.5000000e-01 3.0000000e+00 1.1000000e+01 
7.5000000e-01 3.0000000e+00 1.1500000e+01 
7.5000000e-01 3.0000000e+00 1.2000000e+01 
7.5000000e-01 3.0000000e+00 1.2500000e+01 
7.5000000e-01 3.0000000e+00 1.3000000e+01 
7.5000000e-01 3.0000000e+00 1.3500000e+01 
7.5000000e-01 3.0000000e+00 1.4000000e+01 
7.5000000e-01 3.0000000e+00 1.4500000e+01 
7.5000000e-01 3.0000000e+00 1.5000000e+01 
7.5000000e-01 3.0000000e+00 1.5500000e+01 
7.5000000e-01 3.0000000e+00 1.6000000e+01 
7.5000000e-01 3.0000000e+00 1.6500000e+01 
7.5000000e-01 3.0000000e+00 1.7000000e+01 
7.5000000e-01 3.0000000e+00 1.7500000e+01 
7.5000000e-01 3.0000000e+00 1.8000000e+01 
7.5000000e-01 3.0000000e+00 1.8500000e+01 
7.5000000e-01 3.0000000e+00 1.9000000e+01 
7.5000000e-01 3.0000000e+00 1.9500000e+01 
7.5000000e-01 3.0000000e+00 2.0000000e+01 
7.5000000e-01 3.0000000e+00 2.0500000e+01 
7.5000000e-01 3.0000000e+00 2.1000000e+01 
7.5000000e-01 3.0000000e+00 2.1500000e+01 
7.5000000e-01 3.0000000e+00 2.2000000e+01 
7.5000000e-01 3.0000000e+00 2.2500000e+01 
7.5000000e-01 3.0000000e+00 2.3000000e+01 
7.5000000e-01 3.0000000e+00 2.3500000e+01 
7.5000000e-01 3.0000000e+00 2.4000000e+01 
7.5000000e-01 3.0000000e+00 2.4500000e+01 
7.5000000e-01 3.0000000e+00 2.5000000e+01 
7.5000000e-01 3.0000000e+00 2.5500000e+01 
7.5000000e-01 3.0000000e+00 2.6000000e+01 
7.5000000e-01 3.0000000e+00 2.6500000e+01 
7.5000000e-01 3.0000000e+00 2.7000000e+01 
7.5000000e-01 3.0000000e+00 2.7500000e+01 
7.5000000e-01 3.0000000e+00 2.8000000e+01 
7.5000000e-01 3.0000000e+00 2.8500000e+01 
7.5000000e-01 3.0000000e+00 2.9000000e+01 
7.5000000e-01 3.0000000e+00 2.9500000e+01 
7.5000000e-01 3.0000000e+00 3.0000000e+01 
7.5000000e-01 3.0000000e+00 3.0500000e+01 
7.5000000e-01 3.0000000e+00 3.1000000e+01 
7.5000000e-01 3.0000000e+00 3.1500000e+01 
7.5000000e-01 3.0000000e+00 3.2000000e+01 
7.5000000e-01 3.0000000e+00 3.2500000e+01 
7.5000000e-01 3.0000000e+00 3.3000000e+01 
7.5000000e-01 3.0000000e+00 3.3500000e+01 
7.5000000e-01 3.0000000e+00 3.4000000e+01 
7.5000000e-01 3.0000000e+00 3.4500000e+01 
7.5000000e-01 3.0000000e+00 3.5000000e+01 
7.5000000e-01 3.0000000e+00 3.5500000e+01 
7.5000000e-01 3.0000000e+00 3.6000000e+01 
7.5000000e-01 3.0000000e+00 3.6500000e+01 
7.5000000e-01 3.0000000e+00 3.7000000e+01 
7.5000000e-01 3.0000000e+00 3.7500000e+01 
7.5000000e-01 3.0000000e+00 3.8000000e+01 
7.5000000e-01 3.0000000e+00 3.8500000e+01 
7.5000000e-01 3.0000000e+00 3.9000000e+01 
7.5000000e-01 3.0000000e+00 3.9500000e+01 
7.5000000e-01 3.0000000e+00 4.0000000e+01 
7.5000000e-01 3.0000000e+00 4.0500000e+01 
7.5000000e-01 3.0000000e+00 4.1000000e+01 
7.5000000e-01 3.0000000e+00 4.1500000e+01 
7.5000000e-01 3.0000000e+00 4.2000000e+01 
7.5000000e-01 3.0000000e+00 4.2500000e+01 
7.5000000e-01 3.0000000e+00 4.3000000e+01 
7.5000000e-01 3.0000000e+00 4.3500000e+01 
7.5000000e-01 3.0000000e+00 4.4000000e+01 
7.5000000e-01 3.0000000e+00 4.4500000e+01 
7.5000000e-01 3.0000000e+00 4.5000000e+01 
7.5000000e-01 3.0000000e+00 4.5500000e+01 
7.5000000e-01 3.0000000e+00 4.6000000e+01 
7.5000000e-01 3.0000000e+00 4.6500000e+01 
7.5000000e-01 3.0000000e+00 4.7000000e+01 
7.5000000e-01 3.0000000e+00 4.7500000e+01 
7.5000000e-01 3.0000000e+00 4.8000000e+01 
7.5000000e-01 3.0000000e+00 4.8500000e+01 
7.5000000e-01 3.0000000e+00 4.9000000e+01 
7.5000000e-01 3.0000000e+00 4.9500000e+01 
7.5000000e-01 3.0250001e+00 0.0000000e+00 
7.5000000e-01 3.0250001e+00 5.0000000e-01 
7.5000000e-01 3.0250001e+00 1.0000000e+00 
7.5000000e-01 3.0250001e+00 1.5000000e+00 
7.5000000e-01 3.0250001e+00 2.0000000e+00 
7.5000000e-01 3.0250001e+00 2.5000000e+00 
7.5000000e-01 3.0250001e+00 3.0000000e+00 
7.5000000e-01 3.0250001e+00 3.5000000e+00 
7.5000000e-01 3.0250001e+00 4.0000000e+00 
7.5000000e-01 3.0250001e+00 4.5000000e+00 
7.5000000e-01 3.0250001e+00 5.0000000e+00 
7.5000000e-01 3.0250001e+00 5.5000000e+00 
7.5000000e-01 3.0250001e+00 6.0000000e+00 
7.5000000e-01 3.0250001e+00 6.5000000e+00 
7.5000000e-01 3.0250001e+00 7.0000000e+00 
7.5000000e-01 3.0250001e+00 7.5000000e+00 
7.5000000e-01 3.0250001e+00 8.0000000e+00 
7.5000000e-01 3.0250001e+00 8.5000000e+00 
7.5000000e-01 3.0250001e+00 9.0000000e+00 
7.5000000e-01 3.0250001e+00 9.5000000e+00 
7.5000000e-01 3.0250001e+00 1.0000000e+01 
7.5000000e-01 3.0250001e+00 1.0500000e+01 
7.5000000e-01 3.0250001e+00 1.1000000e+01 
7.5000000e-01 3.0250001e+00 1.1500000e+01 
7.5000000e-01 3.0250001e+00 1.2000000e+01 
7.5000000e-01 3.0250001e+00 1.2500000e+01 
7.5000000e-01 3.0250001e+00 1.3000000e+01 
7.5000000e-01 3.0250001e+00 1.3500000e+01 
7.5000000e-01 3.0250001e+00 1.4000000e+01 
7.5000000e-01 3.0250001e+00 1.4500000e+01 
7.5000000e-01 3.0250001e+00 1.5000000e+01 
7.5000000e-01 3.0250001e+00 1.5500000e+01 
7.5000000e-01 3.0250001e+00 1.6000000e+01 
7.5000000e-01 3.0250001e+00 1.6500000e+01 
7.5000000e-01 3.0250001e+00 1.7000000e+01 
7.5000000e-01 3.0250001e+00 1.7500000e+01 
7.5000000e-01 3.0250001e+00 1.8000000e+01 
7.5000000e-01 3.0250001e+00 1.8500000e+01 
7.5000000e-01 3.0250001e+00 1.9000000e+01 
7.5000000e-01 3.0250001e+00 1.9500000e+01 
7.5000000e-01 3.0250001e+00 2.0000000e+01 
7.5000000e-01 3.0250001e+00 2.0500000e+01 
7.5000000e-01 3.0250001e+00 2.1000000e+01 
7.5000000e-01 3.0250001e+00 2.1500000e+01 
7.5000000e-01 3.0250001e+00 2.2000000e+01 
7.5000000e-01 3.0250001e+00 2.2500000e+01 
7.5000000e-01 3.0250001e+00 2.3000000e+01 
7.5000000e-01 3.0250001e+00 2.3500000e+01 
7.5000000e-01 3.0250001e+00 2.4000000e+01 
7.5000000e-01 3.0250001e+00 2.4500000e+01 
7.5000000e-01 3.0250001e+00 2.5000000e+01 
7.5000000e-01 3.0250001e+00 2.5500000e+01 
7.5000000e-01 3.0250001e+00 2.6000000e+01 
7.5000000e-01 3.0250001e+00 2.6500000e+01 
7.5000000e-01 3.0250001e+00 2.7000000e+01 
7.5000000e-01 3.0250001e+00 2.7500000e+01 
7.5000000e-01 3.0250001e+00 2.8000000e+01 
7.5000000e-01 3.0250001e+00 2.8500000e+01 
7.5000000e-01 3.0250001e+00 2.9000000e+01 
7.5000000e-01 3.0250001e+00 2.9500000e+01 
7.5000000e-01 3.0250001e+00 3.0000000e+01 
7.5000000e-01 3.0250001e+00 3.0500000e+01 
7.5000000e-01 3.0250001e+00 3.1000000e+01 
7.5000000e-01 3.0250001e+00 3.1500000e+01 
7.5000000e-01 3.0250001e+00 3.2000000e+01 
7.5000000e-01 3.0250001e+00 3.2500000e+01 
7.5000000e-01 3.0250001e+00 3.3000000e+01 
7.5000000e-01 3.0250001e+00 3.3500000e+01 
7.5000000e-01 3.0250001e+00 3.4000000e+01 
7.5000000e-01 3.0250001e+00 3.4500000e+01 
7.5000000e-01 3.0250001e+00 3.5000000e+01 
7.5000000e-01 3.0250001e+00 3.5500000e+01 
7.5000000e-01 3.0250001e+00 3.6000000e+01 
7.5000000e-01 3.0250001e+00 3.6500000e+01 
7.5000000e-01 3.0250001e+00 3.7000000e+01 
7.5000000e-01 3.0250001e+00 3.7500000e+01 
7.5000000e-01 3.0250001e+00 3.8000000e+01 
7.5000000e-01 3.0250001e+00 3.8500000e+01 
7.5000000e-01 3.0250001e+00 3.9000000e+01 
7.5000000e-01 3.0250001e+00 3.9500000e+01 
7.5000000e-01 3.0250001e+00 4.0000000e+01 
7.5000000e-01 3.0250001e+00 4.0500000e+01 
7.5000000e-01 3.0250001e+00 4.1000000e+01 
7.5000000e-01 3.0250001e+00 4.1500000e+01 
7.5000000e-01 3.0250001e+00 4.2000000e+01 
7.5000000e-01 3.0250001e+00 4.2500000e+01 
7.5000000e-01 3.0250001e+00 4.3000000e+01 
7.5000000e-01 3.0250001e+00 4.3500000e+01 
7.5000000e-01 3.0250001e+00 4.4000000e+01 
7.5000000e-01 3.0250001e+00 4.4500000e+01 
7.5000000e-01 3.0250001e+00 4.5000000e+01 
7.5000000e-01 3.0250001e+00 4.5500000e+01 
7.5000000e-01 3.0250001e+00 4.6000000e+01 
7.5000000e-01 3.0250001e+00 4.6500000e+01 
7.5000000e-01 3.0250001e+00 4.7000000e+01 
7.5000000e-01 3.0250001e+00 4.7500000e+01 
7.5000000e-01 3.0250001e+00 4.8000000e+01 
7.5000000e-01 3.0250001e+00 4.8500000e+01 
7.5000000e-01 3.0250001e+00 4.9000000e+01 
7.5000000e-01 3.0250001e+00 4.9500000e+01 
7.5000000e-01 3.0250001e+00 5.0000000e+01 
7.5000000e-01 3.0250001e+00 3.5750000e+01 
3.0000000e+00 2.0000000e+00 3.6000000e+01 
8.0487806e-01 3.0000000e+00 3.6000000e+01 
0.0000000e+00 0.0000000e+00 1.0000000e+00 
0.0000000e+00 0.0000000e+00 2.0000000e+00 
0.0000000e+00 0.0000000e+00 3.0000000e+00 
0.0000000e+00 0.0000000e+00 4.0000000e+00 
0.0000000e+00 0.0000000e+00 5.0000000e+00 
0.0000000e+00 0.0000000e+00 6.0000000e+00 
0.0000000e+00 0.0000000e+00 7.0000000e+00 
[...]
POINT_DATA 1921
FIELD FieldData 3
DISPLACEMENT 3 1921  float
0.0000000e+00 0.0000000e+00 0.0000000e+00 
0.0000000e+00 0.0000000e+00 0.0000000e+00 
0.0000000e+00 0.0000000e+00 0.0000000e+00 
0.0000000e+00 0.0000000e+00 0.0000000e+00 
-3.7199211e-06 -6.4567421e-06 -3.6165582e-06 
1.7694956e-09 8.6940915e-08 -1.5457384e-07 
0.0000000e+00 4.5031287e-05 0.0000000e+00 
0.0000000e+00 1.9237747e-07 0.0000000e+00 
4.5823308e-06 -7.6418655e-06 -4.1423891e-06 
-1.6923089e-08 7.4440727e-08 -1.7733882e-07 
2.2918146e-06 1.2039966e-05 -6.7980413e-06 
9.4996935e-08 1.4300387e-07 9.0413343e-10 
0.0000000e+00 3.9034549e-05 0.0000000e+00 
0.0000000e+00 3.0427452e-07 0.0000000e+00 
2.5121810e-05 6.4446118e-05 -2.1660211e-05 
1.1157918e-07 -4.5088649e-07 -3.2258555e-07 
3.7804687e-06 1.1813086e-04 4.3985406e-06 
1.6487048e-08 1.1294686e-07 -6.1715227e-08 
0.0000000e+00 4.4157932e-05 0.0000000e+00 
0.0000000e+00 -5.5360431e-07 0.0000000e+00 
1.9936229e-05 9.0975023e-05 -5.0066174e-06 
3.8536706e-05 4.2079289e-05 -2.8884830e-05 
1.7740796e-05 3.5233799e-05 -2.7312295e-05 
2.7201406e-05 1.0435624e-04 -3.6374826e-05 
6.4372929e-05 2.2525650e-04 -2.2979251e-05 
3.2732609e-05 3.2615176e-04 5.5737405e-07 
4.9261325e-05 3.4848254e-04 3.7123271e-05 
7.9298952e-05 2.9466039e-04 4.4645309e-05 
3.9253457e-05 1.8020938e-04 8.8392291e-05 
1.8297140e-05 -3.3688244e-05 1.3248961e-04 
4.7870013e-05 -4.5306006e-04 2.6657846e-04 
-5.3559847e-06 -1.1897669e-03 2.5117642e-04 
-6.5803906e-05 -2.3048772e-03 3.7577795e-04 
-1.8929194e-04 -3.6200681e-03 2.2892181e-04 
-2.8673894e-04 -4.6595405e-03 2.5789288e-04 
-3.1137982e-04 -4.8155580e-03 1.3099342e-04 
-3.1045804e-04 -4.6452121e-03 4.8853290e-05 
-2.6972033e-04 -4.6219104e-03 -1.4150172e-06 
-2.8603588e-04 -4.8771468e-03 -5.7417346e-05 
-3.2238237e-04 -4.9286103e-03 -1.8360894e-04 
-2.7236526e-04 -4.1826069e-03 -3.1759343e-04 
-2.0455848e-04 -2.9997937e-03 -2.6285261e-04 
-1.5907743e-04 -1.8383045e-03 -3.6073063e-04 
-9.7044001e-05 -8.8705035e-04 -2.0625400e-04 
-7.8590303e-05 -2.3320220e-04 -2.3784094e-04 
-3.1375301e-05 1.5397322e-04 -1.9252392e-04 
3.3183627e-05 3.4010567e-04 -2.1737712e-04 
7.7847653e-05 3.9363650e-04 -1.7656284e-04 
1.2509528e-04 3.6375347e-04 -8.4957377e-05 
1.0662472e-04 2.7761571e-04 2.3792047e-05 
7.0746668e-05 1.5821711e-04 1.4972116e-04 
4.3988573e-05 4.1820666e-05 1.6878363e-04 
-2.2145250e-05 -4.6677622e-05 1.6300596e-04 
-2.8612534e-05 -1.0551098e-04 1.0626698e-04 
-6.2967818e-05 -1.4310468e-04 4.6650075e-05 
-7.8104662e-05 -1.6823305e-04 -1.9127576e-05 
-5.1456060e-05 -1.7754982e-04 -5.4587785e-05 
-4.1164749e-05 -1.6347160e-04 -8.3017418e-05 
-3.3578559e-05 -1.3270264e-04 -7.2319795e-05 
-4.4734734e-05 -1.0085753e-04 -7.7016863e-05 
-1.0994359e-05 -7.8640551e-05 -6.3307431e-05 
-2.5525607e-05 -6.4328720e-05 -5.4192657e-05 
-4.5275174e-06 -3.4537610e-05 -7.4228796e-05 
8.1387980e-06 4.3176431e-05 -6.9187605e-05 
2.9106021e-05 1.7391953e-04 -6.2678926e-05 
3.7254740e-05 3.2277970e-04 -3.6996713e-05 
8.2897728e-05 4.2707962e-04 -3.5849871e-06 
6.6009401e-05 4.2013967e-04 3.3991793e-05 
8.8287110e-05 2.6282886e-04 8.8048044e-05 
8.1729668e-05 -6.6614142e-05 1.3935467e-04 
6.2213265e-05 -6.2098843e-04 2.7066859e-04 
-7.5128332e-06 -1.4469854e-03 2.4335913e-04 
-5.7784473e-05 -2.5732247e-03 4.1804864e-04 
-1.9393489e-04 -3.8256519e-03 2.5618129e-04 
-2.7726873e-04 -4.7700251e-03 2.7554986e-04 
-3.1224472e-04 -4.8525985e-03 1.9561697e-04 
-3.4514343e-04 -4.6697990e-03 1.3917734e-04 
-3.6810918e-04 -4.6387902e-03 6.5260763e-05 
-3.8554551e-04 -4.8397318e-03 1.0635136e-05 
-3.8593097e-04 -4.7768918e-03 -9.7277349e-05 
-3.6851459e-04 -3.9328951e-03 -3.4301373e-04 
-2.6055620e-04 -2.7092246e-03 -3.3367335e-04 
-1.7913469e-04 -1.5951626e-03 -4.8057930e-04 
-9.4817718e-05 -7.5938978e-04 -3.3319675e-04 
-2.8326300e-05 -2.3705982e-04 -3.0240498e-04 
1.8814992e-05 4.9785140e-05 -1.8501443e-04 
3.9238563e-05 1.8643659e-04 -1.4251325e-04 
5.3993506e-05 2.2863247e-04 -9.4296454e-05 
4.6394398e-05 2.0561794e-04 -4.2863969e-05 
7.2614792e-05 1.4476210e-04 5.6536224e-05 
3.7054546e-05 7.6813762e-05 1.1994979e-04 
1.4230010e-05 2.3796292e-05 1.3870501e-04 
-1.8574694e-05 -1.2307786e-05 1.2829686e-04 
-2.2735501e-05 -3.3833549e-05 7.3150026e-05 
-3.2182525e-05 -4.0813837e-05 2.2599588e-05 
-2.4907828e-05 -3.5267720e-05 -1.8739212e-05 
-9.0798349e-06 -1.8736066e-05 -3.8989969e-05 
-3.0762815e-06 3.4664208e-07 -3.8226168e-05 
4.9981281e-06 1.2714090e-05 -2.9178287e-05 
4.0907853e-06 1.5511332e-05 -1.5017505e-05 
2.5335482e-06 1.1276257e-05 -2.4877306e-06 
1.5318573e-06 5.6262784e-06 3.5923340e-06 
3.1967838e-07 1.8641945e-06 6.1412761e-06 
5.2994329e-07 -1.1322354e-07 5.8560586e-06 
7.9602535e-07 -1.3629067e-06 2.3004375e-06 
1.7752423e-06 -2.2361839e-06 6.0922952e-07 
2.3415789e-07 -2.4316180e-06 -2.4776668e-06 
6.3091271e-08 -1.8109170e-06 -2.1040819e-06 
1.2140228e-07 -1.0984272e-06 -1.1985977e-06 
-1.9501785e-07 -9.1715640e-07 -2.6167535e-07 
-3.3274392e-07 -1.0923318e-06 1.3404001e-07 
-1.9181830e-07 -9.3636919e-07 2.0921249e-07 
7.7817779e-09 -1.6342958e-07 2.3609051e-07 
6.9433490e-08 6.5132576e-07 4.1250686e-07 
-9.4381029e-08 8.4842554e-07 2.8081334e-07 
-2.7443091e-08 4.3350244e-07 1.4448651e-07 
1.2033016e-07 -1.0355508e-07 7.6458690e-08 
-6.3408010e-08 -2.5897532e-07 5.0150845e-08 
5.4345879e-09 -4.6235417e-08 -9.2585992e-08 
0.0000000e+00 1.1633323e-04 0.0000000e+00 
0.0000000e+00 8.9741246e-05 0.0000000e+00 
0.0000000e+00 4.3229138e-05 0.0000000e+00 
0.0000000e+00 3.7878301e-05 0.0000000e+00 
0.0000000e+00 1.0680631e-04 0.0000000e+00 
0.0000000e+00 2.2496452e-04 0.0000000e+00 
0.0000000e+00 3.2338052e-04 0.0000000e+00 
0.0000000e+00 3.4764310e-04 0.0000000e+00 
0.0000000e+00 2.9714630e-04 0.0000000e+00 
0.0000000e+00 1.8327394e-04 0.0000000e+00 
0.0000000e+00 -3.3447617e-05 0.0000000e+00 
0.0000000e+00 -4.5507867e-04 0.0000000e+00 
0.0000000e+00 -1.2006955e-03 0.0000000e+00 
0.0000000e+00 -2.3205602e-03 0.0000000e+00 
0.0000000e+00 -3.6466566e-03 0.0000000e+00 
0.0000000e+00 -4.6779132e-03 0.0000000e+00 
0.0000000e+00 -4.8414329e-03 0.0000000e+00 
0.0000000e+00 -4.6638469e-03 0.0000000e+00 
0.0000000e+00 -4.6526631e-03 0.0000000e+00 
0.0000000e+00 -4.9033789e-03 0.0000000e+00 
0.0000000e+00 -4.9578147e-03 0.0000000e+00 
0.0000000e+00 -4.2002830e-03 0.0000000e+00 
0.0000000e+00 -3.0146155e-03 0.0000000e+00 
0.0000000e+00 -1.8441305e-03 0.0000000e+00 
0.0000000e+00 -8.9273142e-04 0.0000000e+00 
0.0000000e+00 -2.3444138e-04 0.0000000e+00 
0.0000000e+00 1.5469443e-04 0.0000000e+00 
0.0000000e+00 3.4144451e-04 0.0000000e+00 
0.0000000e+00 3.9463697e-04 0.0000000e+00 
0.0000000e+00 3.6375533e-04 0.0000000e+00 
0.0000000e+00 2.7699576e-04 0.0000000e+00 
0.0000000e+00 1.5905105e-04 0.0000000e+00 
0.0000000e+00 4.3260599e-05 0.0000000e+00 
0.0000000e+00 -4.6017602e-05 0.0000000e+00 
0.0000000e+00 -1.0553969e-04 0.0000000e+00 
0.0000000e+00 -1.4395129e-04 0.0000000e+00 
0.0000000e+00 -1.6877564e-04 0.0000000e+00 
0.0000000e+00 -1.7707705e-04 0.0000000e+00 
0.0000000e+00 -1.6307372e-04 0.0000000e+00 
0.0000000e+00 -1.3278285e-04 0.0000000e+00 
0.0000000e+00 -1.0132503e-04 0.0000000e+00 
0.0000000e+00 -7.9834019e-05 0.0000000e+00 
0.0000000e+00 -6.5160988e-05 0.0000000e+00 
0.0000000e+00 -3.3801181e-05 0.0000000e+00 
0.0000000e+00 4.4704637e-05 0.0000000e+00 
0.0000000e+00 1.7570579e-04 0.0000000e+00 
0.0000000e+00 3.2381111e-04 0.0000000e+00 
0.0000000e+00 4.2610650e-04 0.0000000e+00 
0.0000000e+00 4.1901125e-04 0.0000000e+00 
0.0000000e+00 2.6342945e-04 0.0000000e+00 
0.0000000e+00 -6.7305897e-05 0.0000000e+00 
0.0000000e+00 -6.2165601e-04 0.0000000e+00 
0.0000000e+00 -1.4563915e-03 0.0000000e+00 
0.0000000e+00 -2.5874679e-03 0.0000000e+00 
0.0000000e+00 -3.8538899e-03 0.0000000e+00 
0.0000000e+00 -4.7914153e-03 0.0000000e+00 
0.0000000e+00 -4.8820269e-03 0.0000000e+00 
0.0000000e+00 -4.6879151e-03 0.0000000e+00 
0.0000000e+00 -4.6676770e-03 0.0000000e+00 
0.0000000e+00 -4.8623774e-03 0.0000000e+00 
0.0000000e+00 -4.8059365e-03 0.0000000e+00 
0.0000000e+00 -3.9487481e-03 0.0000000e+00 
0.0000000e+00 -2.7258208e-03 0.0000000e+00 
0.0000000e+00 -1.6019730e-03 0.0000000e+00 
0.0000000e+00 -7.6391664e-04 0.0000000e+00 
0.0000000e+00 -2.3680355e-04 0.0000000e+00 
0.0000000e+00 5.1266237e-05 0.0000000e+00 
0.0000000e+00 1.8743498e-04 0.0000000e+00 
0.0000000e+00 2.2871225e-04 0.0000000e+00 
0.0000000e+00 2.0573907e-04 0.0000000e+00 
0.0000000e+00 1.4546866e-04 0.0000000e+00 
0.0000000e+00 7.7697543e-05 0.0000000e+00 
0.0000000e+00 2.3711124e-05 0.0000000e+00 
0.0000000e+00 -1.2496929e-05 0.0000000e+00 
0.0000000e+00 -3.3585176e-05 0.0000000e+00 
0.0000000e+00 -4.0729108e-05 0.0000000e+00 
0.0000000e+00 -3.4982611e-05 0.0000000e+00 
0.0000000e+00 -1.8810182e-05 0.0000000e+00 
0.0000000e+00 -5.5958751e-08 0.0000000e+00 
0.0000000e+00 1.2475510e-05 0.0000000e+00 
0.0000000e+00 1.5450498e-05 0.0000000e+00 
0.0000000e+00 1.1428947e-05 0.0000000e+00 
0.0000000e+00 5.7662942e-06 0.0000000e+00 
0.0000000e+00 1.8678267e-06 0.0000000e+00 
0.0000000e+00 -1.5653045e-07 0.0000000e+00 
0.0000000e+00 -1.3715543e-06 0.0000000e+00 
0.0000000e+00 -2.2115935e-06 0.0000000e+00 
0.0000000e+00 -2.4003339e-06 0.0000000e+00 
0.0000000e+00 -1.8384777e-06 0.0000000e+00 
0.0000000e+00 -1.1426732e-06 0.0000000e+00 
0.0000000e+00 -9.2722524e-07 0.0000000e+00 
0.0000000e+00 -1.0605255e-06 0.0000000e+00 
0.0000000e+00 -8.9715792e-07 0.0000000e+00 
0.0000000e+00 -1.6920391e-07 0.0000000e+00 
0.0000000e+00 6.1474526e-07 0.0000000e+00 
0.0000000e+00 8.2756225e-07 0.0000000e+00 
0.0000000e+00 4.3572848e-07 0.0000000e+00 
0.0000000e+00 -8.0210164e-08 0.0000000e+00 
0.0000000e+00 -2.4187872e-07 0.0000000e+00 
0.0000000e+00 -5.1084953e-08 0.0000000e+00 
0.0000000e+00 9.9487053e-08 0.0000000e+00 
0.0000000e+00 4.8279180e-05 0.0000000e+00 
-2.9886056e-07 -6.8190911e-07 8.6008149e-06 
1.4060266e-05 2.8935621e-05 1.3809856e-04 
0.0000000e+00 0.0000000e+00 0.0000000e+00 
0.0000000e+00 0.0000000e+00 0.0000000e+00 
0.0000000e+00 0.0000000e+00 0.0000000e+00 
0.0000000e+00 0.0000000e+00 0.0000000e+00 
0.0000000e+00 0.0000000e+00 0.0000000e+00 
0.0000000e+00 0.0000000e+00 0.0000000e+00 
0.0000000e+00 0.0000000e+00 0.0000000e+00 
0.0000000e+00 0.0000000e+00 0.0000000e+00 
0.0000000e+00 0.0000000e+00 0.0000000e+00 
0.0000000e+00 0.0000000e+00 0.0000000e+00 
0.0000000e+00 0.0000000e+00 0.0000000e+00 
0.0000000e+00 0.0000000e+00 0.0000000e+00 
0.0000000e+00 0.0000000e+00 0.0000000e+00 
0.0000000e+00 0.0000000e+00 0.0000000e+00 
0.0000000e+00 0.0000000e+00 0.0000000e+00 
0.0000000e+00 0.0000000e+00 0.0000000e+00 
0.0000000e+00 0.0000000e+00 0.0000000e+00 
0.0000000e+00 0.0000000e+00 0.0000000e+00 
0.0000000e+00 0.0000000e+00 0.0000000e+00 
0.0000000e+00 0.0000000e+00 0.0000000e+00 
0.0000000e+00 0.0000000e+00 0.0000000e+00 
0.0000000e+00 0.0000000e+00 0.0000000e+00 
0.0000000e+00 0.0000000e+00 0.0000000e+00 
0.0000000e+00 0.0000000e+00 0.0000000e+00 
0.0000000e+00 0.0000000e+00 0.0000000e+00 
0.0000000e+00 0.0000000e+00 0.0000000e+00 
0.0000000e+00 0.0000000e+00 0.0000000e+00 
0.0000000e+00 0.0000000e+00 0.0000000e+00 
0.0000000e+00 0.0000000e+00 0.0000000e+00 
0.0000000e+00 0.0000000e+00 0.0000000e+00 
0.0000000e+00 0.0000000e+00 0.0000000e+00 
0.0000000e+00 0.0000000e+00 0.0000000e+00 
0.0000000e+00 0.0000000e+00 0.0000000e+00 
0.0000000e+00 0.0000000e+00 0.0000000e+00 
0.0000000e+00 0.0000000e+00 0.0000000e+00 
0.0000000e+00 0.0000000e+00 0.0000000e+00 
0.0000000e+00 0.0000000e+00 0.0000000e+00 
0.0000000e+00 0.0000000e+00 0.0000000e+00 
0.0000000e+00 0.0000000e+00 0.0000000e+00 
0.0000000e+00 0.0000000e+00 0.0000000e+00 
0.0000000e+00 0.0000000e+00 0.0000000e+00 
0.0000000e+00 0.0000000e+00 0.0000000e+00 
0.0000000e+00 0.0000000e+00 0.0000000e+00 
0.0000000e+00 0.0000000e+00 0.0000000e+00 
0.0000000e+00 0.0000000e+00 0.0000000e+00 
0.0000000e+00 0.0000000e+00 0.0000000e+00 
0.0000000e+00 0.0000000e+00 0.0000000e+00 
0.0000000e+00 0.0000000e+00 0.0000000e+00 
0.0000000e+00 0.0000000e+00 0.0000000e+00 
0.0000000e+00 0.0000000e+00 0.0000000e+00 
0.0000000e+00 0.0000000e+00 0.0000000e+00 
0.0000000e+00 0.0000000e+00 0.0000000e+00 
0.0000000e+00 0.0000000e+00 0.0000000e+00 
0.0000000e+00 0.0000000e+00 0.0000000e+00 
0.0000000e+00 0.0000000e+00 0.0000000e+00 
0.0000000e+00 0.0000000e+00 0.0000000e+00 
0.0000000e+00 0.0000000e+00 0.0000000e+00 
0.0000000e+00 0.0000000e+00 0.0000000e+00 
0.0000000e+00 0.0000000e+00 0.0000000e+00 
0.0000000e+00 0.0000000e+00 0.0000000e+00 
0.0000000e+00 0.0000000e+00 0.0000000e+00 
0.0000000e+00 0.0000000e+00 0.0000000e+00 
0.0000000e+00 0.0000000e+00 0.0000000e+00 
0.0000000e+00 0.0000000e+00 0.0000000e+00 
0.0000000e+00 0.0000000e+00 0.0000000e+00 
0.0000000e+00 0.0000000e+00 0.0000000e+00 
0.0000000e+00 0.0000000e+00 0.0000000e+00 
0.0000000e+00 0.0000000e+00 0.0000000e+00 
0.0000000e+00 0.0000000e+00 0.0000000e+00 
0.0000000e+00 0.0000000e+00 0.0000000e+00 
0.0000000e+00 0.0000000e+00 0.0000000e+00 
0.0000000e+00 0.0000000e+00 0.0000000e+00 
0.0000000e+00 0.0000000e+00 0.0000000e+00 
0.0000000e+00 0.0000000e+00 0.0000000e+00 
0.0000000e+00 0.0000000e+00 0.0000000e+00 
0.0000000e+00 0.0000000e+00 0.0000000e+00 
0.0000000e+00 0.0000000e+00 0.0000000e+00 
0.0000000e+00 0.0000000e+00 0.0000000e+00 
0.0000000e+00 0.0000000e+00 0.0000000e+00 
0.0000000e+00 0.0000000e+00 0.0000000e+00 
0.0000000e+00 0.0000000e+00 0.0000000e+00 
0.0000000e+00 0.0000000e+00 0.0000000e+00 
0.0000000e+00 0.0000000e+00 0.0000000e+00 
0.0000000e+00 0.0000000e+00 0.0000000e+00 
0.0000000e+00 0.0000000e+00 0.0000000e+00 
0.0000000e+00 0.0000000e+00 0.0000000e+00 
0.0000000e+00 0.0000000e+00 0.0000000e+00 
0.0000000e+00 0.0000000e+00 0.0000000e+00 
0.0000000e+00 0.0000000e+00 0.0000000e+00 
0.0000000e+00 0.0000000e+00 0.0000000e+00 
0.0000000e+00 0.0000000e+00 0.0000000e+00 
0.0000000e+00 0.0000000e+00 0.0000000e+00 
0.0000000e+00 0.0000000e+00 0.0000000e+00 
0.0000000e+00 0.0000000e+00 0.0000000e+00 
0.0000000e+00 0.0000000e+00 0.0000000e+00 
0.0000000e+00 0.0000000e+00 0.0000000e+00 
0.0000000e+00 0.0000000e+00 0.0000000e+00 
0.0000000e+00 0.0000000e+00 0.0000000e+00 
0.0000000e+00 0.0000000e+00 0.0000000e+00 
0.0000000e+00 0.0000000e+00 0.0000000e+00 
0.0000000e+00 0.0000000e+00 0.0000000e+00 
0.0000000e+00 0.0000000e+00 0.0000000e+00 
0.0000000e+00 0.0000000e+00 0.0000000e+00 
0.0000000e+00 0.0000000e+00 0.0000000e+00 
0.0000000e+00 0.0000000e+00 0.0000000e+00 
0.0000000e+00 0.0000000e+00 0.0000000e+00 
-5.5029145e-06 2.7586339e-06 -2.9298617e-06 
-9.1501915e-06 3.9852107e-06 -5.3832987e-06 
-1.1507613e-05 -4.6477940e-06 -8.0829041e-06 
-9.4453526e-06 -3.2152293e-06 -1.3630874e-05 
2.4316016e-06 -2.8880863e-06 -2.0180532e-05 
2.0362100e-05 -2.0602554e-05 -2.3349417e-05 
4.0197297e-05 -1.6321366e-05 -2.1112382e-05 
5.6275720e-05 -1.7711953e-05 -8.7429653e-06 
5.4068671e-05 -2.2483928e-05 -2.2590241e-06 
4.4404253e-05 -1.3559281e-05 -8.4990705e-07 
3.7145695e-05 -7.0846745e-06 -7.9953530e-08 
2.0593794e-05 2.6765269e-06 1.2548830e-05 
8.8435269e-07 -2.5030790e-06 1.8827859e-05 
-1.6535847e-06 -5.3043759e-06 7.2839389e-06 
-3.0985923e-06 -1.3524465e-06 3.3232272e-06 
-5.1883439e-06 3.8648437e-07 7.6444676e-06 
-9.1309767e-06 1.1752649e-07 7.5627677e-06 
-1.6861610e-05 -2.4976462e-06 1.0812551e-05 
-2.2992754e-05 7.0934907e-06 1.3105690e-05 
-2.0885855e-05 1.9987951e-06 5.6492327e-06 
-2.5094594e-05 -9.3880260e-07 4.4053854e-06 
-2.7268501e-05 1.1047467e-05 3.2140563e-06 
-1.9732890e-05 2.7656863e-06 -5.4583506e-06 
-1.4761768e-05 -5.8224114e-06 -1.7099597e-05 
7.2310199e-06 -7.3370525e-06 -2.0142003e-05 
2.0526180e-05 -1.7343762e-05 -2.1405340e-05 
3.8763668e-05 -1.9890766e-05 -2.2938944e-05 
5.3958331e-05 -1.9839092e-05 -9.6942849e-06 
5.6256231e-05 -1.9859302e-05 2.3983685e-07 
4.7852453e-05 -9.1953771e-06 6.8601257e-06 
2.8168977e-05 -8.1720718e-06 1.3360031e-05 
1.2840516e-05 -4.2638007e-06 1.1783411e-05 
3.8713765e-06 5.8906107e-07 7.3750152e-06 
7.6350318e-07 4.9915531e-07 3.4845514e-06 
1.7574097e-06 7.8170262e-07 1.4049965e-06 
2.5418569e-06 1.0203127e-06 5.0196638e-07 
1.5254379e-06 7.4224438e-08 2.3362918e-06 
2.3637128e-07 -3.2669220e-07 3.3626598e-06 
-1.0023908e-06 -9.8513237e-07 2.9340727e-06 
-3.6453758e-07 -7.4900385e-07 1.2610568e-06 
9.4040274e-07 4.5284264e-07 6.2197125e-07 
5.9564570e-07 3.5811104e-07 5.2389322e-07 
-4.8914458e-08 -3.7826257e-07 -3.8531036e-07 
-2.6532828e-07 -8.9987637e-08 -6.9135314e-07 
-3.0597963e-07 1.1075260e-07 -6.4980134e-07 
-1.3275057e-07 7.5506740e-08 -1.8749330e-07 
9.2069477e-08 1.8092041e-07 2.7844033e-07 
1.3402422e-07 -1.6014958e-08 2.4534864e-07 
-2.0266025e-08 -1.3794048e-07 7.0574018e-08 
0.0000000e+00 6.3002553e-05 0.0000000e+00 
0.0000000e+00 1.2758852e-04 0.0000000e+00 
0.0000000e+00 1.5961463e-04 0.0000000e+00 
0.0000000e+00 1.1539848e-04 0.0000000e+00 
0.0000000e+00 9.2350499e-05 0.0000000e+00 
0.0000000e+00 -1.5182665e-04 0.0000000e+00 
0.0000000e+00 -4.3670708e-04 0.0000000e+00 
0.0000000e+00 -5.6730694e-04 0.0000000e+00 
0.0000000e+00 -6.2370411e-04 0.0000000e+00 
0.0000000e+00 -5.2848784e-04 0.0000000e+00 
0.0000000e+00 -3.4110414e-04 0.0000000e+00 
0.0000000e+00 -1.4384935e-04 0.0000000e+00 
0.0000000e+00 -1.6367314e-05 0.0000000e+00 
0.0000000e+00 1.5684882e-05 0.0000000e+00 
0.0000000e+00 1.1766910e-05 0.0000000e+00 
0.0000000e+00 -1.4438420e-05 0.0000000e+00 
0.0000000e+00 -7.4576014e-06 0.0000000e+00 
0.0000000e+00 6.7352903e-06 0.0000000e+00 
0.0000000e+00 7.5372089e-05 0.0000000e+00 
0.0000000e+00 1.2729887e-04 0.0000000e+00 
0.0000000e+00 1.4646005e-04 0.0000000e+00 
0.0000000e+00 1.8454518e-04 0.0000000e+00 
0.0000000e+00 1.9136255e-04 0.0000000e+00 
0.0000000e+00 1.7391772e-04 0.0000000e+00 
0.0000000e+00 8.9486079e-05 0.0000000e+00 
0.0000000e+00 -7.1142917e-05 0.0000000e+00 
0.0000000e+00 -3.4835108e-04 0.0000000e+00 
0.0000000e+00 -5.2954920e-04 0.0000000e+00 
0.0000000e+00 -5.7611190e-04 0.0000000e+00 
0.0000000e+00 -5.4593978e-04 0.0000000e+00 
0.0000000e+00 -3.8246508e-04 0.0000000e+00 
0.0000000e+00 -1.3664560e-04 0.0000000e+00 
0.0000000e+00 -1.5604375e-06 0.0000000e+00 
0.0000000e+00 4.3143507e-05 0.0000000e+00 
0.0000000e+00 4.1685202e-05 0.0000000e+00 
0.0000000e+00 2.0366897e-06 0.0000000e+00 
0.0000000e+00 -1.8012381e-05 0.0000000e+00 
0.0000000e+00 -1.6685335e-05 0.0000000e+00 
0.0000000e+00 -6.7934184e-07 0.0000000e+00 
0.0000000e+00 6.7105102e-06 0.0000000e+00 
0.0000000e+00 5.5227783e-06 0.0000000e+00 
0.0000000e+00 -3.8381660e-07 0.0000000e+00 
0.0000000e+00 -2.8419258e-06 0.0000000e+00 
0.0000000e+00 -1.4219822e-06 0.0000000e+00 
0.0000000e+00 8.9165610e-07 0.0000000e+00 
0.0000000e+00 1.0266191e-06 0.0000000e+00 
0.0000000e+00 6.8228729e-08 0.0000000e+00 
0.0000000e+00 -5.0660583e-07 0.0000000e+00 
0.0000000e+00 -1.3079149e-07 0.0000000e+00 
-7.5993225e-06 5.4235634e-06 -3.3639697e-06 
-6.1449955e-06 1.8637741e-06 3.1860827e-06 
-8.6188002e-06 -2.0352070e-06 8.4699252e-07 
-6.2570252e-06 1.7678056e-05 9.7628717e-06 
-7.2862768e-08 -2.8486326e-08 6.6480048e-09 
-3.3501493e-08 -5.1472309e-08 -2.8771481e-08 
-7.7603381e-08 -5.2084981e-09 6.3647960e-08 
-9.9326947e-08 5.8714566e-08 1.4223154e-07 
-4.1207763e-06 -5.5066346e-07 -1.0486205e-05 
-3.0059689e-06 4.5462371e-06 -9.6295153e-06 
2.2488969e-06 1.3607789e-06 -1.2562069e-05 
6.9518210e-06 -1.5634879e-06 -1.4777149e-05 
1.2810999e-05 -5.1776346e-06 -1.5511358e-05 
2.7881599e-05 -2.5541904e-05 -1.8456742e-05 
4.7022961e-05 -1.8802097e-05 -1.4733569e-05 
4.9529663e-05 -1.9547397e-05 -5.6262311e-06 
4.3285439e-05 -2.0881313e-05 -5.2017754e-06 
3.8546994e-05 -8.7516773e-06 -8.6862292e-06 
3.5925626e-05 -1.1764098e-06 -1.1078284e-05 
2.5458185e-05 7.7047380e-06 4.7347316e-06 
1.3602665e-06 1.5441033e-06 2.1890091e-05 
-1.0609633e-05 -6.8197510e-06 1.3496253e-05 
-7.6131741e-06 -6.3791813e-06 2.4555854e-06 
3.8350645e-06 3.3483452e-08 -6.4739794e-07 
-3.0437770e-06 -2.7400245e-06 4.5493266e-06 
-7.9227575e-06 -3.0967915e-06 8.2420056e-06 
-1.8335350e-05 1.0420407e-05 9.2200889e-06 