# vtk DataFile Version 4.0
vtk output
ASCII
DATASET UNSTRUCTURED_GRID
POINTS 1921 float
0.0000000e+00 0.0000000e+00 0.0000000e+00 
0.0000000e+00 0.0000000e+00 5.0000000e+01 
5.0000000e+00 0.0000000e+00 0.0000000e+00 
5.0000000e+00 0.0000000e+00 5.0000000e+01 
5.0000000e+00 1.0000000e+00 0.0000000e+00 
5.0000000e+00 1.0000000e+00 5.0000000e+01 
0.0000000e+00 1.0000000e+00 0.0000000e+00 
0.0000000e+00 1.0000000e+00 5.0000000e+01 
5.0000000e+00 2.0000000e+00 0.0000000e+00 
5.0000000e+00 2.0000000e+00 5.0000000e+01 
3.0000000e+00 2.0000000e+00 0.0000000e+00 
3.0000000e+00 2.0000000e+00 5.0000000e+01 
0.0000000e+00 2.0000000e+00 0.0000000e+00 
0.0000000e+00 2.0000000e+00 5.0000000e+01 
1.5000000e+00 3.0000000e+00 0.0000000e+00 
1.5000000e+00 3.0000000e+00 5.0000000e+01 
7.5000000e-01 3.0000000e+00 0.0000000e+00 
7.5000000e-01 3.0000000e+00 5.0000000e+01 
0.0000000e+00 3.0000000e+00 0.0000000e+00 
0.0000000e+00 3.0000000e+00 5.0000000e+01 
7.5000000e-01 3.0000000e+00 5.0000000e-01 
7.5000000e-01 3.0000000e+00 1.0000000e+00 
7.5000000e-01 3.0000000e+00 1.5000000e+00 
7.5000000e-01 3.0000000e+00 2.0000000e+00 
7.5000000e-01 3.0000000e+00 2.5000000e+00 
7.5000000e-01 3.0000000e+00 3.0000000e+00 
7.5000000e-01 3.0000000e+00 3.5000000e+00 
7.5000000e-01 3.0000000e+00 4.0000000e+00 
7.5000000e-01 3.0000000e+00 4.5000000e+00 
7.5000000e-01 3.0000000e+00 5.0000000e+00 
7.5000000e-01 3.0000000e+00 5.5000000e+00 
7.5000000e-01 3.0000000e+00 6.0000000e+00 
7.5000000e-01 3.0000000e+00 6.5000000e+00 
7.5000000e-01 3.0000000e+00 7.0000000e+00 
7.5000000e-01 3.0000000e+00 7.5000000e+00 
7.5000000e-01 3.0000000e+00 8.0000000e+00 
7.5000000e-01 3.0000000e+00 8.5000000e+00 
7.5000000e-01 3.0000000e+00 9.0000000e+00 
7.5000000e-01 3.0000000e+00 9.5000000e+00 
7.5000000e-01 3.0000000e+00 1.0000000e+01 
7.5000000e-01 3.0000000e+00 1.0500000e+01 
7.5000000e-01 3.0000000e+00 1.1000000e+01 
7.5000000e-01 3.0000000e+00 1.1500000e+01 
7.5000000e-01 3.0000000e+00 1.2000000e+01 
7.5000000e-01 3.0000000e+00 1.2500000e+01 
7.5000000e-01 3.0000000e+00 1.3000000e+01 
7.5000000e-01 3.0000000e+00 1.3500000e+01 
7.5000000e-01 3.0000000e+00 1.4000000e+01 
7.5000000e-01 3.0000000e+00 1.4500000e+01 
7.5000000e-01 3.0000000e+00 1.5000000e+01 
7.5000000e-01 3.0000000e+00 1.5500000e+01 
7.5000000e-01 3.0000000e+00 1.6000000e+01 
7.5000000e-01 3.0000000e+00 1.6500000e+01 
7.5000000e-01 3.0000000e+00 1.7000000e+01 
7.5000000e-01 3.0000000e+00 1.7500000e+01 
7.5000000e-01 3.0000000e+00 1.8000000e+01 
7.5000000e-01 3.0000000e+00 1.8500000e+01 
7.5000000e-01 3.0000000e+00 1.9000000e+01 
7.5000000e-01 3.0000000e+00 1.9500000e+01 
7.5000000e-01 3.0000000e+00 2.0000000e+01 
7.5000000e-01 3.0000000e+00 2.0500000e+01 
7.5000000e-01 3.0000000e+00 2.1000000e+01 
7.5000000e-01 3.0000000e+00 2.1500000e+01 
7.5000000e-01 3.0000000e+00 2.2000000e+01 
7.5000000e-01 3.0000000e+00 2.2500000e+01 
7.5000000e-01 3.0000000e+00 2.3000000e+01 
7.5000000e-01 3.0000000e+00 2.3500000e+01 
7.5000000e-01 3.0000000e+00 2.4000000e+01 
7.5000000e-01 3.0000000e+00 2.4500000e+01 
7.5000000e-01 3.0000000e+00 2.5000000e+01 
7.5000000e-01 3.0000000e+00 2.5500000e+01 
7.5000000e-01 3.0000000e+00 2.6000000e+01 
7.5000000e-01 3.0000000e+00 2.6500000e+01 
7.5000000e-01 3.0000000e+00 2.7000000e+01 
7.5000000e-01 3.0000000e+00 2.7500000e+01 
7.5000000e-01 3.0000000e+00 2.8000000e+01 
7.5000000e-01 3.0000000e+00 2.8500000e+01 
7.5000000e-01 3.0000000e+00 2.9000000e+01 
7.5000000e-01 3.0000000e+00 2.9500000e+01 
7.5000000e-01 3.0000000e+00 3.0000000e+01 
7.5000000e-01 3.0000000e+00 3.0500000e+01 
7.5000000e-01 3.0000000e+00 3.1000000e+01 
7.5000000e-01 3.0000000e+00 3.1500000e+01 
7.5000000e-01 3.0000000e+00 3.2000000e+01 
7.5000000e-01 3.0000000e+00 3.2500000e+01 
7.5000000e-01 3.0000000e+00 3.3000000e+01 
7.5000000e-01 3.0000000e+00 3.3500000e+01 
7.5000000e-01 3.0000000e+00 3.4000000e+01 
7.5000000e-01 3.0000000e+00 3.4500000e+01 
7.5000000e-01 3.0000000e+00 3.5000000e+01 
7.5000000e-01 3.0000000e+00 3.5500000e+01 
7.5000000e-01 3.0000000e+00 3.6000000e+01 
7.5000000e-01 3.0000000e+00 3.6500000e+01 
7.5000000e-01 3.0000000e+00 3.7000000e+01 
7.5000000e-01 3.0000000e+00 3.7500000e+01 
7.5000000e-01 3.0000000e+00 3.8000000e+01 
7.5000000e-01 3.0000000e+00 3.8500000e+01 
7.5000000e-01 3.0000000e+00 3.9000000e+01 
7.5000000e-01 3.0000000e+00 3.9500000e+01 
7.5000000e-01 3.0000000e+00 4.0000000e+01 
7.5000000e-01 3.0000000e+00 4.0500000e+01 
7.5000000e-01 3.0000000e+00 4.1000000e+01 
7.5000000e-01 3.0000000e+00 4.1500000e+01 
7.5000000e-01 3.0000000e+00 4.2000000e+01 
7.5000000e-01 3.0000000e+00 4.2500000e+01 
7.5000000e-01 3.0000000e+00 4.3000000e+01 
7.5000000e-01 3.0000000e+00 4.3500000e+01 
7.5000000e-01 3.0000000e+00 4.4000000e+01 
7.5000000e-01 3.0000000e+00 4.4500000e+01 
7.5000000e-01 3.0000000e+00 4.5000000e+01 
7.5000000e-01 3.0000000e+00 4.5500000e+01 
7.5000000e-01 3.0000000e+00 4.6000000e+01 
7.5000000e-01 3.0000000e+00 4.6500000e+01 
7.5000000e-01 3.0000000e+00 4.7000000e+01 
7.5000000e-01 3.0000000e+00 4.7500000e+01 
7.5000000e-01 3.0000000e+00 4.8000000e+01 
7.5000000e-01 3.0000000e+00 4.8500000e+01 
7.5000000e-01 3.0000000e+00 4.9000000e+01 
7.5000000e-01 3.0000000e+00 4.9500000e+01 
7.5000000e-01 3.0250001e+00 0.0000000e+00 
7.5000000e-01 3.0250001e+00 5.0000000e-01 
7.5000000e-01 3.0250001e+00 1.0000000e+00 
7.5000000e-01 3.0250001e+00 1.5000000e+00 
7.5000000e-01 3.0250001e+00 2.0000000e+00 
7.5000000e-01 3.0250001e+00 2.5000000e+00 
7.5000000e-01 3.0250001e+00 3.0000000e+00 
7.5000000e-01 3.0250001e+00 3.5000000e+00 
7.5000000e-01 3.0250001e+00 4.0000000e+00 
7.5000000e-01 3.0250001e+00 4.5000000e+00 
7.5000000e-01 3.0250001e+00 5.0000000e+00 
7.5000000e-01 3.0250001e+00 5.5000000e+00 
7.5000000e-01 3.0250001e+00 6.0000000e+00 
7.5000000e-01 3.0250001e+00 6.5000000e+00 
7.5000000e-01 3.0250001e+00 7.0000000e+00 
7.5000000e-01 3.0250001e+00 7.5000000e+00 
7.5000000e-01 3.0250001e+00 8.0000000e+00 
7.5000000e-01 3.0250001e+00 8.5000000e+00 
7.5000000e-01 3.0250001e+00 9.0000000e+00 
7.5000000e-01 3.0250001e+00 9.5000000e+00 
7.5000000e-01 3.0250001e+00 1.0000000e+01 
7.5000000e-01 3.0250001e+00 1.0500000e+01 
7.5000000e-01 3.0250001e+00 1.1000000e+01 
7.5000000e-01 3.0250001e+00 1.1500000e+01 
7.5000000e-01 3.0250001e+00 1.2000000e+01 
7.5000000e-01 3.0250001e+00 1.2500000e+01 
7.5000000e-01 3.0250001e+00 1.3000000e+01 
7.5000000e-01 3.0250001e+00 1.3500000e+01 
7.5000000e-01 3.0250001e+00 1.4000000e+01 
7.5000000e-01 3.0250001e+00 1.4500000e+01 
7.5000000e-01 3.0250001e+00 1.5000000e+01 
7.5000000e-01 3.0250001e+00 1.5500000e+01 
7.5000000e-01 3.0250001e+00 1.6000000e+01 
7.5000000e-01 3.0250001e+00 1.6500000e+01 
7.5000000e-01 3.0250001e+00 1.7000000e+01 
7.5000000e-01 3.0250001e+00 1.7500000e+01 
7.5000000e-01 3.0250001e+00 1.8000000e+01 
7.5000000e-01 3.0250001e+00 1.8500000e+01 
7.5000000e-01 3.0250001e+00 1.9000000e+01 
7.5000000e-01 3.0250001e+00 1.9500000e+01 
7.5000000e-01 3.0250001e+00 2.0000000e+01 
7.5000000e-01 3.0250001e+00 2.0500000e+01 
7.5000000e-01 3.0250001e+00 2.1000000e+01 
7.5000000e-01 3.0250001e+00 2.1500000e+01 
7.5000000e-01 3.0250001e+00 2.2000000e+01 
7.5000000e-01 3.0250001e+00 2.2500000e+01 
7.5000000e-01 3.0250001e+00 2.3000000e+01 
7.5000000e-01 3.0250001e+00 2.3500000e+01 
7.5000000e-01 3.0250001e+00 2.4000000e+01 
7.5000000e-01 3.0250001e+00 2.4500000e+01 
7.5000000e-01 3.0250001e+00 2.5000000e+01 
7.5000000e-01 3.0250001e+00 2.5500000e+01 
7.5000000e-01 3.0250001e+00 2.6000000e+01 
7.5000000e-01 3.0250001e+00 2.6500000e+01 
7.5000000e-01 3.0250001e+00 2.7000000e+01 
7.5000000e-01 3.0250001e+00 2.7500000e+01 
7.5000000e-01 3.0250001e+00 2.8000000e+01 
7.5000000e-01 3.0250001e+00 2.8500000e+01 
7.5000000e-01 3.0250001e+00 2.9000000e+01 
7.5000000e-01 3.0250001e+00 2.9500000e+01 
7.5000000e-01 3.0250001e+00 3.0000000e+01 
7.5000000e-01 3.0250001e+00 3.0500000e+01 
7.5000000e-01 3.0250001e+00 3.1000000e+01 
7.5000000e-01 3.0250001e+00 3.1500000e+01 
7.5000000e-01 3.0250001e+00 3.2000000e+01 
7.5000000e-01 3.0250001e+00 3.2500000e+01 
7.5000000e-01 3.0250001e+00 3.3000000e+01 
7.5000000e-01 3.0250001e+00 3.3500000e+01 
7.5000000e-01 3.0250001e+00 3.4000000e+01 
7.5000000e-01 3.0250001e+00 3.4500000e+01 
7.5000000e-01 3.0250001e+00 3.5000000e+01 
7.5000000e-01 3.0250001e+00 3.5500000e+01 
7.5000000e-01 3.0250001e+00 3.6000000e+01 
7.5000000e-01 3.0250001e+00 3.6500000e+01 
7.5000000e-01 3.0250001e+00 3.7000000e+01 
7.5000000e-01 3.0250001e+00 3.7500000e+01 
7.5000000e-01 3.0250001e+00 3.8000000e+01 
7.5000000e-01 3.0250001e+00 3.8500000e+01 
7.5000000e-01 3.0250001e+00 3.9000000e+01 
7.5000000e-01 3.0250001e+00 3.9500000e+01 
7.5000000e-01 3.0250001e+00 4.0000000e+01 
7.5000000e-01 3.0250001e+00 4.0500000e+01 
7.5000000e-01 3.0250001e+00 4.1000000e+01 
7.5000000e-01 3.0250001e+00 4.1500000e+01 
7.5000000e-01 3.0250001e+00 4.2000000e+01 
7.5000000e-01 3.0250001e+00 4.2500000e+01 
7.5000000e-01 3.0250001e+00 4.3000000e+01 
7.5000000e-01 3.0250001e+00 4.3500000e+01 
7.5000000e-01 3.0250001e+00 4.4000000e+01 
7.5000000e-01 3.0250001e+00 4.4500000e+01 
7.5000000e-01 3.0250001e+00 4.5000000e+01 
7.5000000e-01 3.0250001e+00 4.5500000e+01 
7.5000000e-01 3.0250001e+00 4.6000000e+01 
7.5000000e-01 3.0250001e+00 4.6500000e+01 
7.5000000e-01 3.0250001e+00 4.7000000e+01 
7.5000000e-01 3.0250001e+00 4.7500000e+01 
7.5000000e-01 3.0250001e+00 4.8000000e+01 
7.5000000e-01 3.0250001e+00 4.8500000e+01 
7.5000000e-01 3.0250001e+00 4.9000000e+01 
7.5000000e-01 3.0250001e+00 4.9500000e+01 
7.5000000e-01 3.0250001e+00 5.0000000e+01 
7.5000000e-01 3.0250001e+00 3.5750000e+01 
3.0000000e+00 2.0000000e+00 3.6000000e+01 
8.0487806e-01 3.0000000e+00 3.6000000e+01 
0.0000000e+00 0.0000000e+00 1.0000000e+00 
0.0000000e+00 0.0000000e+00 2.0000000e+00 
0.0000000e+00 0.0000000e+00 3.0000000e+00 
0.0000000e+00 0.0000000e+00 4.0000000e+00 
0.0000000e+00 0.0000000e+00 5.0000000e+00 
0.0000000e+00 0.0000000e+00 6.0000000e+00 
0.0000000e+00 0.0000000e+00 7.0000000e+00 
[...]
POINT_DATA 1921
FIELD FieldData 3
DISPLACEMENT 3 1921  float
0.0000000e+00 0.0000000e+00 0.0000000e+00 
0.0000000e+00 0.0000000e+00 0.0000000e+00 
0.0000000e+00 0.0000000e+00 0.0000000e+00 
0.0000000e+00 0.0000000e+00 0.0000000e+00 
-1.8746518e-06 -3.7876925e-06 -1.9889194e-06 
2.2536354e-07 -4.1372556e-07 7.2307438e-07 
0.0000000e+00 2.7321452e-05 0.0000000e+00 
0.0000000e+00 3.4929923e-07 0.0000000e+00 
2.5547313e-06 -2.7747089e-06 -3.9938391e-06 
5.3625564e-07 -2.5662325e-07 1.2183849e-06 
2.7678668e-06 -6.4009050e-06 -7.3829647e-06 
2.2501484e-07 -5.4547564e-07 2.3998593e-06 
0.0000000e+00 3.6965786e-05 0.0000000e+00 
0.0000000e+00 1.3690918e-06 0.0000000e+00 
2.4082150e-05 7.9584370e-06 -5.9861079e-05 
-1.0675809e-06 7.8862797e-08 3.6223055e-06 
1.8193776e-05 9.3395829e-05 -5.3848362e-05 
2.6194082e-06 1.4148372e-05 1.6379535e-07 
0.0000000e+00 5.7298857e-05 0.0000000e+00 
0.0000000e+00 3.0572708e-06 0.0000000e+00 
2.7256343e-05 9.7028387e-05 -2.0790623e-05 
3.7598638e-05 1.0554018e-04 -2.1142844e-06 
3.7070629e-05 1.1685307e-04 2.0013595e-06 
3.0111449e-05 1.3186484e-04 2.1170247e-06 
2.5745545e-05 1.5039190e-04 -2.5879892e-06 
3.1577263e-05 1.6929138e-04 -1.3701235e-06 
4.0429401e-05 1.8217509e-04 1.3565805e-05 
3.8260689e-05 1.8144981e-04 1.4886361e-05 
3.4805653e-05 1.6984962e-04 8.0887748e-06 
4.2785134e-05 1.6299862e-04 1.2010412e-07 
3.4068646e-05 1.8011226e-04 -1.6676812e-06 
2.8712484e-05 2.3426175e-04 6.6263597e-06 
6.5600558e-05 3.1010190e-04 2.6734089e-05 
6.7485635e-05 3.6562880e-04 4.4237080e-05 
5.2120067e-05 3.6663932e-04 6.5835229e-05 
5.0455394e-05 2.9086097e-04 8.4301508e-05 
1.6714503e-05 1.2104550e-04 1.4846782e-04 
-1.0910276e-05 -1.7832596e-04 1.7991810e-04 
-4.4723365e-05 -6.9368648e-04 3.2427598e-04 
-1.0742742e-04 -1.5193506e-03 2.6050408e-04 
-1.7165080e-04 -2.6903369e-03 3.7719024e-04 
-2.9742232e-04 -4.0271338e-03 1.6573907e-04 
-3.5311363e-04 -5.0496468e-03 1.5375609e-04 
-3.7379662e-04 -5.1298072e-03 2.5662135e-05 
-3.2781134e-04 -4.8436653e-03 -5.9694270e-05 
-2.6989996e-04 -4.6849260e-03 -7.2491588e-05 
-2.7667230e-04 -4.8031895e-03 -6.9161761e-05 
-2.9057841e-04 -4.7416771e-03 -1.4085195e-04 
-2.5573486e-04 -3.9333170e-03 -2.8471136e-04 
-1.7811506e-04 -2.7395389e-03 -2.3578884e-04 
-1.0343528e-04 -1.6169056e-03 -3.2008279e-04 
-5.7199100e-05 -7.5108104e-04 -1.9205952e-04 
-1.6491769e-05 -1.9509632e-04 -1.7997740e-04 
-3.6038014e-06 9.9008263e-05 -9.1210604e-05 
1.9781382e-05 2.1228721e-04 -7.1427719e-05 
2.7502359e-05 2.2194113e-04 -6.0474700e-05 
1.6128542e-05 1.8410156e-04 -4.6395235e-05 
2.5766636e-05 1.2731004e-04 -4.4514942e-05 
4.1945681e-05 7.1773124e-05 -2.9793046e-05 
6.2449151e-05 3.4744557e-05 -1.1065487e-05 
5.7261306e-05 2.3269782e-05 2.4307996e-05 
5.3000800e-05 2.8209197e-05 3.2627766e-05 
2.5091809e-05 4.0031617e-05 8.1901717e-06 
2.8848030e-05 5.7842590e-05 -2.0320942e-05 
9.8884111e-06 9.1474874e-05 -5.8717844e-05 
1.8250208e-05 1.4954140e-04 -7.6318807e-05 
2.3772005e-05 2.1893207e-04 -7.6416021e-05 
3.3566987e-05 2.7312120e-04 -5.9090275e-05 
4.5426405e-05 2.9420131e-04 -4.9250521e-05 
5.4780958e-05 2.8466506e-04 -2.9126546e-05 
5.7305828e-05 2.7212250e-04 -3.3078832e-05 
6.4606837e-05 2.9434211e-04 -1.1409283e-05 
5.7275549e-05 3.6141032e-04 2.4990397e-05 
5.6776364e-05 4.4193098e-04 5.2754374e-05 
6.4309956e-05 4.7076307e-04 9.5961244e-05 
5.2074498e-05 3.8152482e-04 1.3250488e-04 
2.8545837e-05 1.4343933e-04 2.0274453e-04 
-3.7319177e-07 -2.6373321e-04 2.3549158e-04 
-4.0119776e-05 -8.8394003e-04 3.5174811e-04 
-1.1625185e-04 -1.7560385e-03 2.8057754e-04 
-1.6025428e-04 -2.9030326e-03 4.1709887e-04 
-2.7449860e-04 -4.1500027e-03 2.1710091e-04 
-3.2485230e-04 -5.0640767e-03 1.9760754e-04 
-3.4812847e-04 -5.0917170e-03 1.0510413e-04 
-3.5209750e-04 -4.8343185e-03 2.7582513e-05 
-3.5460459e-04 -4.7201449e-03 -3.5020461e-05 
-3.4339927e-04 -4.8433212e-03 -8.1996317e-05 
-3.3287078e-04 -4.7205719e-03 -1.5037725e-04 
-3.1056657e-04 -3.8443371e-03 -3.3047958e-04 
-3.5188768e-05 -2.6135135e-03 -4.7824884e-04 
-1.0313729e-04 -1.4627579e-03 -3.5597992e-04 
-6.2630366e-05 -6.2643335e-04 -2.7253426e-04 
-2.0151680e-05 -1.2420179e-04 -2.7545664e-04 
1.3217184e-05 1.2760107e-04 -1.7712686e-04 
3.9378836e-05 2.1924356e-04 -1.0702917e-04 
3.9259161e-05 2.1373501e-04 -3.3339871e-05 
3.5044821e-05 1.5098778e-04 1.7181937e-05 
1.9048093e-05 6.6544206e-05 2.9204111e-05 
2.5939469e-06 -7.3286083e-06 4.7757945e-05 
-2.8231977e-07 -5.3832253e-05 5.6198547e-05 
-8.8569396e-07 -7.0687558e-05 6.4766478e-05 
2.1223950e-06 -6.5714084e-05 5.5384506e-05 
-4.1939406e-06 -4.6501824e-05 2.9952102e-05 
-9.2189584e-06 -1.9728042e-05 7.9518313e-06 
-8.4039084e-06 9.3544077e-06 -1.9253173e-05 
-1.0029622e-05 3.3408738e-05 -3.9458391e-05 
1.3823704e-06 4.6604328e-05 -1.8823568e-05 
3.2035289e-06 4.6049347e-05 -4.4624039e-06 
4.1317267e-06 3.4040484e-05 8.0435502e-06 
2.5173385e-06 1.6884764e-05 9.5177465e-06 
2.0708515e-06 1.8103878e-08 9.9173567e-06 
1.4712595e-06 -1.3293784e-05 4.9708119e-06 
1.5540271e-06 -2.0930393e-05 3.9176891e-07 
1.2999035e-07 -2.2316763e-05 -3.3884762e-06 
-1.0064233e-06 -1.7580658e-05 -3.0830197e-06 
-9.5894302e-07 -8.7619919e-06 -1.0277137e-06 
-3.4502671e-06 8.8089814e-07 -1.3493457e-06 
-2.7566186e-06 8.4596304e-06 -7.7701651e-07 
-1.3365866e-06 1.2804208e-05 -2.6767691e-07 
0.0000000e+00 9.3909606e-05 0.0000000e+00 
0.0000000e+00 9.7180666e-05 0.0000000e+00 
0.0000000e+00 1.0519448e-04 0.0000000e+00 
0.0000000e+00 1.1652356e-04 0.0000000e+00 
0.0000000e+00 1.3177384e-04 0.0000000e+00 
0.0000000e+00 1.5077001e-04 0.0000000e+00 
0.0000000e+00 1.6987961e-04 0.0000000e+00 
0.0000000e+00 1.8204217e-04 0.0000000e+00 
0.0000000e+00 1.8079276e-04 0.0000000e+00 
0.0000000e+00 1.6927571e-04 0.0000000e+00 
0.0000000e+00 1.6281962e-04 0.0000000e+00 
0.0000000e+00 1.8149029e-04 0.0000000e+00 
0.0000000e+00 2.3617101e-04 0.0000000e+00 
0.0000000e+00 3.1053970e-04 0.0000000e+00 
0.0000000e+00 3.6534367e-04 0.0000000e+00 
0.0000000e+00 3.6590546e-04 0.0000000e+00 
0.0000000e+00 2.9121581e-04 0.0000000e+00 
0.0000000e+00 1.2344388e-04 0.0000000e+00 
0.0000000e+00 -1.7749592e-04 0.0000000e+00 
0.0000000e+00 -6.9590041e-04 0.0000000e+00 
0.0000000e+00 -1.5292452e-03 0.0000000e+00 
0.0000000e+00 -2.7065102e-03 0.0000000e+00 
0.0000000e+00 -4.0556486e-03 0.0000000e+00 
0.0000000e+00 -5.0690984e-03 0.0000000e+00 
0.0000000e+00 -5.1563727e-03 0.0000000e+00 
0.0000000e+00 -4.8624324e-03 0.0000000e+00 
0.0000000e+00 -4.7154548e-03 0.0000000e+00 
0.0000000e+00 -4.8291492e-03 0.0000000e+00 
0.0000000e+00 -4.7705960e-03 0.0000000e+00 
0.0000000e+00 -3.9504836e-03 0.0000000e+00 
0.0000000e+00 -2.7542445e-03 0.0000000e+00 
0.0000000e+00 -1.6241426e-03 0.0000000e+00 
0.0000000e+00 -7.5589307e-04 0.0000000e+00 
0.0000000e+00 -1.9613767e-04 0.0000000e+00 
0.0000000e+00 9.9973098e-05 0.0000000e+00 
0.0000000e+00 2.1369263e-04 0.0000000e+00 
0.0000000e+00 2.2324313e-04 0.0000000e+00 
0.0000000e+00 1.8434305e-04 0.0000000e+00 
0.0000000e+00 1.2745056e-04 0.0000000e+00 
0.0000000e+00 7.2472118e-05 0.0000000e+00 
0.0000000e+00 3.5747067e-05 0.0000000e+00 
0.0000000e+00 2.3543982e-05 0.0000000e+00 
0.0000000e+00 2.7964035e-05 0.0000000e+00 
0.0000000e+00 3.9440605e-05 0.0000000e+00 
0.0000000e+00 5.7761561e-05 0.0000000e+00 
0.0000000e+00 9.2528135e-05 0.0000000e+00 
0.0000000e+00 1.5037401e-04 0.0000000e+00 
0.0000000e+00 2.1886460e-04 0.0000000e+00 
0.0000000e+00 2.7244110e-04 0.0000000e+00 
0.0000000e+00 2.9307086e-04 0.0000000e+00 
0.0000000e+00 2.8407495e-04 0.0000000e+00 
0.0000000e+00 2.7310665e-04 0.0000000e+00 
0.0000000e+00 2.9614920e-04 0.0000000e+00 
0.0000000e+00 3.6361767e-04 0.0000000e+00 
0.0000000e+00 4.4286970e-04 0.0000000e+00 
0.0000000e+00 4.6950270e-04 0.0000000e+00 
0.0000000e+00 3.8080371e-04 0.0000000e+00 
0.0000000e+00 1.4370497e-04 0.0000000e+00 
0.0000000e+00 -2.6444742e-04 0.0000000e+00 
0.0000000e+00 -8.8463206e-04 0.0000000e+00 
0.0000000e+00 -1.7652913e-03 0.0000000e+00 
0.0000000e+00 -2.9171468e-03 0.0000000e+00 
0.0000000e+00 -4.1785296e-03 0.0000000e+00 
0.0000000e+00 -5.0862087e-03 0.0000000e+00 
0.0000000e+00 -5.1212371e-03 0.0000000e+00 
0.0000000e+00 -4.8523745e-03 0.0000000e+00 
0.0000000e+00 -4.7490471e-03 0.0000000e+00 
0.0000000e+00 -4.8660180e-03 0.0000000e+00 
0.0000000e+00 -4.7507873e-03 0.0000000e+00 
0.0000000e+00 -3.8626324e-03 0.0000000e+00 
0.0000000e+00 -2.6242964e-03 0.0000000e+00 
0.0000000e+00 -1.4727815e-03 0.0000000e+00 
0.0000000e+00 -6.3034147e-04 0.0000000e+00 
0.0000000e+00 -1.2416983e-04 0.0000000e+00 
0.0000000e+00 1.2900647e-04 0.0000000e+00 
0.0000000e+00 2.2019022e-04 0.0000000e+00 
0.0000000e+00 2.1396379e-04 0.0000000e+00 
0.0000000e+00 1.5141805e-04 0.0000000e+00 
0.0000000e+00 6.7544330e-05 0.0000000e+00 
0.0000000e+00 -6.6544435e-06 0.0000000e+00 
0.0000000e+00 -5.3559084e-05 0.0000000e+00 
0.0000000e+00 -7.0811613e-05 0.0000000e+00 
0.0000000e+00 -6.5720604e-05 0.0000000e+00 
0.0000000e+00 -4.6485795e-05 0.0000000e+00 
0.0000000e+00 -1.9614668e-05 0.0000000e+00 
0.0000000e+00 9.2312293e-06 0.0000000e+00 
0.0000000e+00 3.3221018e-05 0.0000000e+00 
0.0000000e+00 4.6361565e-05 0.0000000e+00 
0.0000000e+00 4.5898792e-05 0.0000000e+00 
0.0000000e+00 3.4121735e-05 0.0000000e+00 
0.0000000e+00 1.7001283e-05 0.0000000e+00 
0.0000000e+00 6.6417762e-08 0.0000000e+00 
0.0000000e+00 -1.3217757e-05 0.0000000e+00 
0.0000000e+00 -2.0889143e-05 0.0000000e+00 
0.0000000e+00 -2.2233498e-05 0.0000000e+00 
0.0000000e+00 -1.7542672e-05 0.0000000e+00 
0.0000000e+00 -8.8001425e-06 0.0000000e+00 
0.0000000e+00 7.9575949e-07 0.0000000e+00 
0.0000000e+00 8.4034191e-06 0.0000000e+00 
0.0000000e+00 1.2810286e-05 0.0000000e+00 
0.0000000e+00 1.4174791e-05 0.0000000e+00 
0.0000000e+00 -1.0047358e-03 0.0000000e+00 
1.7537926e-05 -1.1823693e-05 -2.8485139e-05 
-6.5880835e-05 -5.8137783e-04 -2.8517446e-04 
0.0000000e+00 0.0000000e+00 0.0000000e+00 
0.0000000e+00 0.0000000e+00 0.0000000e+00 
0.0000000e+00 0.0000000e+00 0.0000000e+00 
0.0000000e+00 0.0000000e+00 0.0000000e+00 
0.0000000e+00 0.0000000e+00 0.0000000e+00 
0.0000000e+00 0.0000000e+00 0.0000000e+00 
0.0000000e+00 0.0000000e+00 0.0000000e+00 
0.0000000e+00 0.0000000e+00 0.0000000e+00 
0.0000000e+00 0.0000000e+00 0.0000000e+00 
0.0000000e+00 0.0000000e+00 0.0000000e+00 
0.0000000e+00 0.0000000e+00 0.0000000e+00 
0.0000000e+00 0.0000000e+00 0.0000000e+00 
0.0000000e+00 0.0000000e+00 0.0000000e+00 
0.0000000e+00 0.0000000e+00 0.0000000e+00 
0.0000000e+00 0.0000000e+00 0.0000000e+00 
0.0000000e+00 0.0000000e+00 0.0000000e+00 
0.0000000e+00 0.0000000e+00 0.0000000e+00 
0.0000000e+00 0.0000000e+00 0.0000000e+00 
0.0000000e+00 0.0000000e+00 0.0000000e+00 
0.0000000e+00 0.0000000e+00 0.0000000e+00 
0.0000000e+00 0.0000000e+00 0.0000000e+00 
0.0000000e+00 0.0000000e+00 0.0000000e+00 
0.0000000e+00 0.0000000e+00 0.0000000e+00 
0.0000000e+00 0.0000000e+00 0.0000000e+00 
0.0000000e+00 0.0000000e+00 0.0000000e+00 
0.0000000e+00 0.0000000e+00 0.0000000e+00 
0.0000000e+00 0.0000000e+00 0.0000000e+00 
0.0000000e+00 0.0000000e+00 0.0000000e+00 
0.0000000e+00 0.0000000e+00 0.0000000e+00 
0.0000000e+00 0.0000000e+00 0.0000000e+00 
0.0000000e+00 0.0000000e+00 0.0000000e+00 
0.0000000e+00 0.0000000e+00 0.0000000e+00 
0.0000000e+00 0.0000000e+00 0.0000000e+00 
0.0000000e+00 0.0000000e+00 0.0000000e+00 
0.0000000e+00 0.0000000e+00 0.0000000e+00 
0.0000000e+00 0.0000000e+00 0.0000000e+00 
0.0000000e+00 0.0000000e+00 0.0000000e+00 
0.0000000e+00 0.0000000e+00 0.0000000e+00 
0.0000000e+00 0.0000000e+00 0.0000000e+00 
0.0000000e+00 0.0000000e+00 0.0000000e+00 
0.0000000e+00 0.0000000e+00 0.0000000e+00 
0.0000000e+00 0.0000000e+00 0.0000000e+00 
0.0000000e+00 0.0000000e+00 0.0000000e+00 
0.0000000e+00 0.0000000e+00 0.0000000e+00 
0.0000000e+00 0.0000000e+00 0.0000000e+00 
0.0000000e+00 0.0000000e+00 0.0000000e+00 
0.0000000e+00 0.0000000e+00 0.0000000e+00 
0.0000000e+00 0.0000000e+00 0.0000000e+00 
0.0000000e+00 0.0000000e+00 0.0000000e+00 
0.0000000e+00 0.0000000e+00 0.0000000e+00 
0.0000000e+00 0.0000000e+00 0.0000000e+00 
0.0000000e+00 0.0000000e+00 0.0000000e+00 
0.0000000e+00 0.0000000e+00 0.0000000e+00 
0.0000000e+00 0.0000000e+00 0.0000000e+00 
0.0000000e+00 0.0000000e+00 0.0000000e+00 
0.0000000e+00 0.0000000e+00 0.0000000e+00 
0.0000000e+00 0.0000000e+00 0.0000000e+00 
0.0000000e+00 0.0000000e+00 0.0000000e+00 
0.0000000e+00 0.0000000e+00 0.0000000e+00 
0.0000000e+00 0.0000000e+00 0.0000000e+00 
0.0000000e+00 0.0000000e+00 0.0000000e+00 
0.0000000e+00 0.0000000e+00 0.0000000e+00 
0.0000000e+00 0.0000000e+00 0.0000000e+00 
0.0000000e+00 0.0000000e+00 0.0000000e+00 
0.0000000e+00 0.0000000e+00 0.0000000e+00 
0.0000000e+00 0.0000000e+00 0.0000000e+00 
0.0000000e+00 0.0000000e+00 0.0000000e+00 
0.0000000e+00 0.0000000e+00 0.0000000e+00 
0.0000000e+00 0.0000000e+00 0.0000000e+00 
0.0000000e+00 0.0000000e+00 0.0000000e+00 
0.0000000e+00 0.0000000e+00 0.0000000e+00 
0.0000000e+00 0.0000000e+00 0.0000000e+00 
0.0000000e+00 0.0000000e+00 0.0000000e+00 
0.0000000e+00 0.0000000e+00 0.0000000e+00 
0.0000000e+00 0.0000000e+00 0.0000000e+00 
0.0000000e+00 0.0000000e+00 0.0000000e+00 
0.0000000e+00 0.0000000e+00 0.0000000e+00 
0.0000000e+00 0.0000000e+00 0.0000000e+00 
0.0000000e+00 0.0000000e+00 0.0000000e+00 
0.0000000e+00 0.0000000e+00 0.0000000e+00 
0.0000000e+00 0.0000000e+00 0.0000000e+00 
0.0000000e+00 0.0000000e+00 0.0000000e+00 
0.0000000e+00 0.0000000e+00 0.0000000e+00 
0.0000000e+00 0.0000000e+00 0.0000000e+00 
0.0000000e+00 0.0000000e+00 0.0000000e+00 
0.0000000e+00 0.0000000e+00 0.0000000e+00 
0.0000000e+00 0.0000000e+00 0.0000000e+00 
0.0000000e+00 0.0000000e+00 0.0000000e+00 
0.0000000e+00 0.0000000e+00 0.0000000e+00 
0.0000000e+00 0.0000000e+00 0.0000000e+00 
0.0000000e+00 0.0000000e+00 0.0000000e+00 
0.0000000e+00 0.0000000e+00 0.0000000e+00 
0.0000000e+00 0.0000000e+00 0.0000000e+00 
0.0000000e+00 0.0000000e+00 0.0000000e+00 
0.0000000e+00 0.0000000e+00 0.0000000e+00 
0.0000000e+00 0.0000000e+00 0.0000000e+00 
0.0000000e+00 0.0000000e+00 0.0000000e+00 
0.0000000e+00 0.0000000e+00 0.0000000e+00 
0.0000000e+00 0.0000000e+00 0.0000000e+00 
0.0000000e+00 0.0000000e+00 0.0000000e+00 
0.0000000e+00 0.0000000e+00 0.0000000e+00 
0.0000000e+00 0.0000000e+00 0.0000000e+00 
0.0000000e+00 0.0000000e+00 0.0000000e+00 
0.0000000e+00 0.0000000e+00 0.0000000e+00 
0.0000000e+00 0.0000000e+00 0.0000000e+00 
0.0000000e+00 0.0000000e+00 0.0000000e+00 
1.2106314e-06 -1.6778484e-06 -1.3377634e-06 
-1.4454565e-06 1.0097978e-06 4.2586430e-06 
-2.3286107e-06 1.0477727e-06 -3.8301303e-07 
-2.2467897e-07 2.9064879e-06 -2.9897938e-06 
1.3275506e-06 1.2645983e-06 -4.1959861e-06 
5.3432555e-06 2.6303137e-06 -4.4864828e-06 
5.8528872e-06 -9.2248501e-06 -1.4611129e-05 
1.6215216e-05 -2.9920461e-06 -2.0319034e-05 
2.9148248e-05 -8.4982594e-06 -1.8701232e-05 
4.2033240e-05 -1.6343438e-05 -1.6343613e-05 
4.7540412e-05 -1.4799077e-05 -9.9156459e-06 
5.3089618e-05 -1.4497983e-05 -2.8884670e-06 
4.5279332e-05 -1.3091516e-05 5.5525102e-06 
3.7079633e-05 -8.4939893e-06 7.4664517e-06 
2.3901717e-05 -8.8366178e-06 6.8787813e-06 
1.6107824e-05 -4.0409354e-06 7.4985346e-06 
1.1787054e-05 -1.7875531e-07 6.9341845e-06 
8.7965718e-06 3.5870844e-06 5.9623417e-06 
1.4836867e-06 -1.6161581e-06 6.1201231e-06 
-1.8546466e-06 -1.3600893e-06 1.7085174e-06 
6.6134214e-07 -7.4539767e-06 -1.3310097e-06 
3.2309297e-06 -2.8104744e-06 2.2387433e-06 
1.4742565e-06 3.4346185e-06 7.3964165e-06 
-7.1416389e-07 2.8830968e-06 5.2496193e-06 
-2.5630602e-06 -2.1616549e-06 -5.5845265e-07 
2.9245234e-06 3.9060978e-06 -5.3838953e-06 
7.8265412e-06 -1.1207864e-05 -6.9299917e-06 
1.5878066e-05 -3.9575339e-06 -7.5018652e-06 
2.8145283e-05 -2.9778967e-06 -9.3238204e-06 
4.0244406e-05 -1.6139949e-05 -5.2641562e-06 
4.8105867e-05 -2.2082359e-05 -6.3048910e-06 
5.0866543e-05 -1.9404581e-05 -5.3687531e-06 
4.8260343e-05 -1.9013120e-05 1.9276431e-06 
4.0549116e-05 -1.3344075e-05 6.9958260e-06 
2.7388802e-05 -7.4477935e-06 8.0831114e-06 
1.1958366e-05 2.3531327e-06 6.6839284e-06 
1.9678262e-06 3.7318077e-06 5.0532140e-06 
-1.5537207e-06 1.9748911e-06 1.9861191e-06 
-2.9461285e-07 -7.6890677e-07 1.8162116e-06 
2.9449930e-06 -3.1525258e-06 3.6824169e-06 
5.2647442e-06 -4.0137675e-06 5.4421766e-06 
3.8347948e-06 -1.5803217e-06 6.1617070e-06 
6.5412848e-07 1.6313334e-06 3.2457817e-06 
-9.4202130e-07 9.3472772e-07 -1.9548322e-07 
-2.1031622e-06 -2.3261869e-07 -2.0032805e-06 
-1.3699552e-06 -2.7697493e-07 -2.2836493e-06 
3.5903494e-08 3.4660124e-07 -1.6561337e-06 
3.2444308e-07 2.9715528e-07 -5.9160300e-08 
-4.5524249e-08 1.8915701e-07 8.3918485e-07 
0.0000000e+00 5.4658881e-06 0.0000000e+00 
0.0000000e+00 -1.0501424e-05 0.0000000e+00 
0.0000000e+00 2.1054502e-05 0.0000000e+00 
0.0000000e+00 1.5727333e-05 0.0000000e+00 
0.0000000e+00 -6.2443064e-06 0.0000000e+00 
0.0000000e+00 6.1405241e-05 0.0000000e+00 
0.0000000e+00 6.9456037e-05 0.0000000e+00 
0.0000000e+00 5.9084318e-06 0.0000000e+00 
0.0000000e+00 -8.0877817e-06 0.0000000e+00 
0.0000000e+00 -1.8753219e-04 0.0000000e+00 
0.0000000e+00 -4.5423274e-04 0.0000000e+00 
0.0000000e+00 -5.3311628e-04 0.0000000e+00 
0.0000000e+00 -5.7344750e-04 0.0000000e+00 
0.0000000e+00 -4.9623050e-04 0.0000000e+00 
0.0000000e+00 -2.9760890e-04 0.0000000e+00 
0.0000000e+00 -1.5689373e-04 0.0000000e+00 
0.0000000e+00 -5.6929541e-05 0.0000000e+00 
0.0000000e+00 -5.5395278e-05 0.0000000e+00 
0.0000000e+00 -7.5300530e-05 0.0000000e+00 
0.0000000e+00 -1.0625409e-04 0.0000000e+00 
0.0000000e+00 -1.0666085e-04 0.0000000e+00 
0.0000000e+00 -1.0331115e-04 0.0000000e+00 
0.0000000e+00 -2.4628622e-05 0.0000000e+00 
0.0000000e+00 -2.0608061e-06 0.0000000e+00 
0.0000000e+00 2.1813708e-05 0.0000000e+00 
0.0000000e+00 2.9411278e-05 0.0000000e+00 
0.0000000e+00 9.4962103e-05 0.0000000e+00 
0.0000000e+00 4.9993676e-05 0.0000000e+00 
0.0000000e+00 -9.6487001e-06 0.0000000e+00 
0.0000000e+00 -1.8225882e-04 0.0000000e+00 
0.0000000e+00 -4.1624359e-04 0.0000000e+00 
0.0000000e+00 -5.7935005e-04 0.0000000e+00 
0.0000000e+00 -5.5237021e-04 0.0000000e+00 
0.0000000e+00 -5.3060619e-04 0.0000000e+00 
0.0000000e+00 -3.0322204e-04 0.0000000e+00 
0.0000000e+00 -9.8630408e-05 0.0000000e+00 
0.0000000e+00 1.1702878e-05 0.0000000e+00 
0.0000000e+00 3.3413144e-05 0.0000000e+00 
0.0000000e+00 1.2581638e-05 0.0000000e+00 
0.0000000e+00 -8.3371006e-06 0.0000000e+00 
0.0000000e+00 -1.8637658e-05 0.0000000e+00 
0.0000000e+00 -6.2893478e-06 0.0000000e+00 
0.0000000e+00 6.7787369e-06 0.0000000e+00 
0.0000000e+00 1.1889537e-05 0.0000000e+00 
0.0000000e+00 5.2141049e-06 0.0000000e+00 
0.0000000e+00 -4.5564916e-06 0.0000000e+00 
0.0000000e+00 -5.3882632e-06 0.0000000e+00 
0.0000000e+00 4.0233823e-07 0.0000000e+00 
0.0000000e+00 1.9158274e-06 0.0000000e+00 
3.4453803e-06 -2.8497311e-06 -2.8023499e-06 
-3.4413420e-06 2.7895555e-06 1.0124801e-06 
-3.1299569e-06 1.1180075e-05 4.7319891e-06 
-2.6148925e-06 1.9498009e-05 2.9020819e-06 
1.6075967e-08 -2.9786983e-07 1.1987759e-06 
-3.4134839e-08 -1.5920621e-07 1.0512686e-06 
-3.8538868e-08 -4.1173649e-08 2.6626500e-07 
-1.7813473e-07 1.3271662e-07 -4.6416758e-07 
1.8783984e-06 -4.7526137e-06 -5.6436721e-07 
1.4585509e-06 2.5310902e-07 -1.2308835e-06 
2.2392760e-07 -1.7756958e-06 -2.0659882e-06 
-3.2845555e-06 -1.8860087e-06 8.7529043e-07 
6.4440706e-06 8.9485616e-07 -2.2048728e-06 
1.1140894e-05 -3.1291199e-07 -1.0087947e-05 
1.3183490e-05 -1.6855545e-05 -1.6340842e-05 
2.5338850e-05 -1.3803542e-06 -2.2339795e-05 
4.1324918e-05 -1.4032961e-05 -2.3895842e-05 
5.2571224e-05 -1.3203842e-05 -2.0599342e-05 
5.1381787e-05 -1.0117063e-05 -6.4015071e-06 
4.4473160e-05 -1.2430984e-05 -6.4924933e-07 
4.1852967e-05 -7.6376182e-06 6.2227546e-06 
3.3974651e-05 -1.2935776e-06 5.4188768e-06 
1.9115747e-05 -4.1108487e-06 5.6489112e-06 
9.2930522e-06 -4.4142203e-06 4.0927766e-06 
8.6602313e-06 3.8614667e-07 2.5455779e-06 
7.4102736e-06 7.3487008e-06 5.7494840e-06 
2.6420358e-07 -2.3086460e-07 1.1007675e-05 
-1.0124642e-05 -1.0357287e-06 9.6212652e-06 