# vtk DataFile Version 4.0
vtk output
ASCII
DATASET UNSTRUCTURED_GRID
POINTS 1921 float
0.0000000e+00 0.0000000e+00 0.0000000e+00 
0.0000000e+00 0.0000000e+00 5.0000000e+01 
5.0000000e+00 0.0000000e+00 0.0000000e+00 
5.0000000e+00 0.0000000e+00 5.0000000e+01 
5.0000000e+00 1.0000000e+00 0.0000000e+00 
5.0000000e+00 1.0000000e+00 5.0000000e+01 
0.0000000e+00 1.0000000e+00 0.0000000e+00 
0.0000000e+00 1.0000000e+00 5.0000000e+01 
5.0000000e+00 2.0000000e+00 0.0000000e+00 
5.0000000e+00 2.0000000e+00 5.0000000e+01 
3.0000000e+00 2.0000000e+00 0.0000000e+00 
3.0000000e+00 2.0000000e+00 5.0000000e+01 
0.0000000e+00 2.0000000e+00 0.0000000e+00 
0.0000000e+00 2.0000000e+00 5.0000000e+01 
1.5000000e+00 3.0000000e+00 0.0000000e+00 
1.5000000e+00 3.0000000e+00 5.0000000e+01 
7.5000000e-01 3.0000000e+00 0.0000000e+00 
7.5000000e-01 3.0000000e+00 5.0000000e+01 
0.0000000e+00 3.0000000e+00 0.0000000e+00 
0.0000000e+00 3.0000000e+00 5.0000000e+01 
7.5000000e-01 3.0000000e+00 5.0000000e-01 
7.5000000e-01 3.0000000e+00 1.0000000e+00 
7.5000000e-01 3.0000000e+00 1.5000000e+00 
7.5000000e-01 3.0000000e+00 2.0000000e+00 
7.5000000e-01 3.0000000e+00 2.5000000e+00 
7.5000000e-01 3.0000000e+00 3.0000000e+00 
7.5000000e-01 3.0000000e+00 3.5000000e+00 
7.5000000e-01 3.0000000e+00 4.0000000e+00 
7.5000000e-01 3.0000000e+00 4.5000000e+00 
7.5000000e-01 3.0000000e+00 5.0000000e+00 
7.5000000e-01 3.0000000e+00 5.5000000e+00 
7.5000000e-01 3.0000000e+00 6.0000000e+00 
7.5000000e-01 3.0000000e+00 6.5000000e+00 
7.5000000e-01 3.0000000e+00 7.0000000e+00 
7.5000000e-01 3.0000000e+00 7.5000000e+00 
7.5000000e-01 3.0000000e+00 8.0000000e+00 
7.5000000e-01 3.0000000e+00 8.5000000e+00 
7.5000000e-01 3.0000000e+00 9.0000000e+00 
7.5000000e-01 3.0000000e+00 9.5000000e+00 
7.5000000e-01 3.0000000e+00 1.0000000e+01 
7.5000000e-01 3.0000000e+00 1.0500000e+01 
7.5000000e-01 3.0000000e+00 1.1000000e+01 
7.5000000e-01 3.0000000e+00 1.1500000e+01 
7.5000000e-01 3.0000000e+00 1.2000000e+01 
7.5000000e-01 3.0000000e+00 1.2500000e+01 
7.5000000e-01 3.0000000e+00 1.3000000e+01 
7.5000000e-01 3.0000000e+00 1.3500000e+01 
7.5000000e-01 3.0000000e+00 1.4000000e+01 
7.5000000e-01 3.0000000e+00 1.4500000e+01 
7.5000000e-01 3.0000000e+00 1.5000000e+01 
7.5000000e-01 3.0000000e+00 1.5500000e+01 
7.5000000e-01 3.0000000e+00 1.6000000e+01 
7.5000000e-01 3.0000000e+00 1.6500000e+01 
7.5000000e-01 3.0000000e+00 1.7000000e+01 
7.5000000e-01 3.0000000e+00 1.7500000e+01 
7.5000000e-01 3.0000000e+00 1.8000000e+01 
7.5000000e-01 3.0000000e+00 1.8500000e+01 
7.5000000e-01 3.0000000e+00 1.9000000e+01 
7.5000000e-01 3.0000000e+00 1.9500000e+01 
7.5000000e-01 3.0000000e+00 2.0000000e+01 
7.5000000e-01 3.0000000e+00 2.0500000e+01 
7.5000000e-01 3.0000000e+00 2.1000000e+01 
7.5000000e-01 3.0000000e+00 2.1500000e+01 
7.5000000e-01 3.0000000e+00 2.2000000e+01 
7.5000000e-01 3.0000000e+00 2.2500000e+01 
7.5000000e-01 3.0000000e+00 2.3000000e+01 
7.5000000e-01 3.0000000e+00 2.3500000e+01 
7.5000000e-01 3.0000000e+00 2.4000000e+01 
7.5000000e-01 3.0000000e+00 2.4500000e+01 
7.5000000e-01 3.0000000e+00 2.5000000e+01 
7.5000000e-01 3.0000000e+00 2.5500000e+01 
7.5000000e-01 3.0000000e+00 2.6000000e+01 
7.5000000e-01 3.0000000e+00 2.6500000e+01 
7.5000000e-01 3.0000000e+00 2.7000000e+01 
7.5000000e-01 3.0000000e+00 2.7500000e+01 
7.5000000e-01 3.0000000e+00 2.8000000e+01 
7.5000000e-01 3.0000000e+00 2.8500000e+01 
7.5000000e-01 3.0000000e+00 2.9000000e+01 
7.5000000e-01 3.0000000e+00 2.9500000e+01 
7.5000000e-01 3.0000000e+00 3.0000000e+01 
7.5000000e-01 3.0000000e+00 3.0500000e+01 
7.5000000e-01 3.0000000e+00 3.1000000e+01 
7.5000000e-01 3.0000000e+00 3.1500000e+01 
7.5000000e-01 3.0000000e+00 3.2000000e+01 
7.5000000e-01 3.0000000e+00 3.2500000e+01 
7.5000000e-01 3.0000000e+00 3.3000000e+01 
7.5000000e-01 3.0000000e+00 3.3500000e+01 
7.5000000e-01 3.0000000e+00 3.4000000e+01 
7.5000000e-01 3.0000000e+00 3.4500000e+01 
7.5000000e-01 3.0000000e+00 3.5000000e+01 
7.5000000e-01 3.0000000e+00 3.5500000e+01 
7.5000000e-01 3.0000000e+00 3.6000000e+01 
7.5000000e-01 3.0000000e+00 3.6500000e+01 
7.5000000e-01 3.0000000e+00 3.7000000e+01 
7.5000000e-01 3.0000000e+00 3.7500000e+01 
7.5000000e-01 3.0000000e+00 3.8000000e+01 
7.5000000e-01 3.0000000e+00 3.8500000e+01 
7.5000000e-01 3.0000000e+00 3.9000000e+01 
7.5000000e-01 3.0000000e+00 3.9500000e+01 
7.5000000e-01 3.0000000e+00 4.0000000e+01 
7.5000000e-01 3.0000000e+00 4.0500000e+01 
7.5000000e-01 3.0000000e+00 4.1000000e+01 
7.5000000e-01 3.0000000e+00 4.1500000e+01 
7.5000000e-01 3.0000000e+00 4.2000000e+01 
7.5000000e-01 3.0000000e+00 4.2500000e+01 
7.5000000e-01 3.0000000e+00 4.3000000e+01 
7.5000000e-01 3.0000000e+00 4.3500000e+01 
7.5000000e-01 3.0000000e+00 4.4000000e+01 
7.5000000e-01 3.0000000e+00 4.4500000e+01 
7.5000000e-01 3.0000000e+00 4.5000000e+01 
7.5000000e-01 3.0000000e+00 4.5500000e+01 
7.5000000e-01 3.0000000e+00 4.6000000e+01 
7.5000000e-01 3.0000000e+00 4.6500000e+01 
7.5000000e-01 3.0000000e+00 4.7000000e+01 
7.5000000e-01 3.0000000e+00 4.7500000e+01 
7.5000000e-01 3.0000000e+00 4.8000000e+01 
7.5000000e-01 3.0000000e+00 4.8500000e+01 
7.5000000e-01 3.0000000e+00 4.9000000e+01 
7.5000000e-01 3.0000000e+00 4.9500000e+01 
7.5000000e-01 3.0250001e+00 0.0000000e+00 
7.5000000e-01 3.0250001e+00 5.0000000e-01 
7.5000000e-01 3.0250001e+00 1.0000000e+00 
7.5000000e-01 3.0250001e+00 1.5000000e+00 
7.5000000e-01 3.0250001e+00 2.0000000e+00 
7.5000000e-01 3.0250001e+00 2.5000000e+00 
7.5000000e-01 3.0250001e+00 3.0000000e+00 
7.5000000e-01 3.0250001e+00 3.5000000e+00 
7.5000000e-01 3.0250001e+00 4.0000000e+00 
7.5000000e-01 3.0250001e+00 4.5000000e+00 
7.5000000e-01 3.0250001e+00 5.0000000e+00 
7.5000000e-01 3.0250001e+00 5.5000000e+00 
7.5000000e-01 3.0250001e+00 6.0000000e+00 
7.5000000e-01 3.0250001e+00 6.5000000e+00 
7.5000000e-01 3.0250001e+00 7.0000000e+00 
7.5000000e-01 3.0250001e+00 7.5000000e+00 
7.5000000e-01 3.0250001e+00 8.0000000e+00 
7.5000000e-01 3.0250001e+00 8.5000000e+00 
7.5000000e-01 3.0250001e+00 9.0000000e+00 
7.5000000e-01 3.0250001e+00 9.5000000e+00 
7.5000000e-01 3.0250001e+00 1.0000000e+01 
7.5000000e-01 3.0250001e+00 1.0500000e+01 
7.5000000e-01 3.0250001e+00 1.1000000e+01 
7.5000000e-01 3.0250001e+00 1.1500000e+01 
7.5000000e-01 3.0250001e+00 1.2000000e+01 
7.5000000e-01 3.0250001e+00 1.2500000e+01 
7.5000000e-01 3.0250001e+00 1.3000000e+01 
7.5000000e-01 3.0250001e+00 1.3500000e+01 
7.5000000e-01 3.0250001e+00 1.4000000e+01 
7.5000000e-01 3.0250001e+00 1.4500000e+01 
7.5000000e-01 3.0250001e+00 1.5000000e+01 
7.5000000e-01 3.0250001e+00 1.5500000e+01 
7.5000000e-01 3.0250001e+00 1.6000000e+01 
7.5000000e-01 3.0250001e+00 1.6500000e+01 
7.5000000e-01 3.0250001e+00 1.7000000e+01 
7.5000000e-01 3.0250001e+00 1.7500000e+01 
7.5000000e-01 3.0250001e+00 1.8000000e+01 
7.5000000e-01 3.0250001e+00 1.8500000e+01 
7.5000000e-01 3.0250001e+00 1.9000000e+01 
7.5000000e-01 3.0250001e+00 1.9500000e+01 
7.5000000e-01 3.0250001e+00 2.0000000e+01 
7.5000000e-01 3.0250001e+00 2.0500000e+01 
7.5000000e-01 3.0250001e+00 2.1000000e+01 
7.5000000e-01 3.0250001e+00 2.1500000e+01 
7.5000000e-01 3.0250001e+00 2.2000000e+01 
7.5000000e-01 3.0250001e+00 2.2500000e+01 
7.5000000e-01 3.0250001e+00 2.3000000e+01 
7.5000000e-01 3.0250001e+00 2.3500000e+01 
7.5000000e-01 3.0250001e+00 2.4000000e+01 
7.5000000e-01 3.0250001e+00 2.4500000e+01 
7.5000000e-01 3.0250001e+00 2.5000000e+01 
7.5000000e-01 3.0250001e+00 2.5500000e+01 
7.5000000e-01 3.0250001e+00 2.6000000e+01 
7.5000000e-01 3.0250001e+00 2.6500000e+01 
7.5000000e-01 3.0250001e+00 2.7000000e+01 
7.5000000e-01 3.0250001e+00 2.7500000e+01 
7.5000000e-01 3.0250001e+00 2.8000000e+01 
7.5000000e-01 3.0250001e+00 2.8500000e+01 
7.5000000e-01 3.0250001e+00 2.9000000e+01 
7.5000000e-01 3.0250001e+00 2.9500000e+01 
7.5000000e-01 3.0250001e+00 3.0000000e+01 
7.5000000e-01 3.0250001e+00 3.0500000e+01 
7.5000000e-01 3.0250001e+00 3.1000000e+01 
7.5000000e-01 3.0250001e+00 3.1500000e+01 
7.5000000e-01 3.0250001e+00 3.2000000e+01 
7.5000000e-01 3.0250001e+00 3.2500000e+01 
7.5000000e-01 3.0250001e+00 3.3000000e+01 
7.5000000e-01 3.0250001e+00 3.3500000e+01 
7.5000000e-01 3.0250001e+00 3.4000000e+01 
7.5000000e-01 3.0250001e+00 3.4500000e+01 
7.5000000e-01 3.0250001e+00 3.5000000e+01 
7.5000000e-01 3.0250001e+00 3.5500000e+01 
7.5000000e-01 3.0250001e+00 3.6000000e+01 
7.5000000e-01 3.0250001e+00 3.6500000e+01 
7.5000000e-01 3.0250001e+00 3.7000000e+01 
7.5000000e-01 3.0250001e+00 3.7500000e+01 
7.5000000e-01 3.0250001e+00 3.8000000e+01 
7.5000000e-01 3.0250001e+00 3.8500000e+01 
7.5000000e-01 3.0250001e+00 3.9000000e+01 
7.5000000e-01 3.0250001e+00 3.9500000e+01 
7.5000000e-01 3.0250001e+00 4.0000000e+01 
7.5000000e-01 3.0250001e+00 4.0500000e+01 
7.5000000e-01 3.0250001e+00 4.1000000e+01 
7.5000000e-01 3.0250001e+00 4.1500000e+01 
7.5000000e-01 3.0250001e+00 4.2000000e+01 
7.5000000e-01 3.0250001e+00 4.2500000e+01 
7.5000000e-01 3.0250001e+00 4.3000000e+01 
7.5000000e-01 3.0250001e+00 4.3500000e+01 
7.5000000e-01 3.0250001e+00 4.4000000e+01 
7.5000000e-01 3.0250001e+00 4.4500000e+01 
7.5000000e-01 3.0250001e+00 4.5000000e+01 
7.5000000e-01 3.0250001e+00 4.5500000e+01 
7.5000000e-01 3.0250001e+00 4.6000000e+01 
7.5000000e-01 3.0250001e+00 4.6500000e+01 
7.5000000e-01 3.0250001e+00 4.7000000e+01 
7.5000000e-01 3.0250001e+00 4.7500000e+01 
7.5000000e-01 3.0250001e+00 4.8000000e+01 
7.5000000e-01 3.0250001e+00 4.8500000e+01 
7.5000000e-01 3.0250001e+00 4.9000000e+01 
7.5000000e-01 3.0250001e+00 4.9500000e+01 
7.5000000e-01 3.0250001e+00 5.0000000e+01 
7.5000000e-01 3.0250001e+00 3.5750000e+01 
3.0000000e+00 2.0000000e+00 3.6000000e+01 
8.0487806e-01 3.0000000e+00 3.6000000e+01 
0.0000000e+00 0.0000000e+00 1.0000000e+00 
0.0000000e+00 0.0000000e+00 2.0000000e+00 
0.0000000e+00 0.0000000e+00 3.0000000e+00 
0.0000000e+00 0.0000000e+00 4.0000000e+00 
0.0000000e+00 0.0000000e+00 5.0000000e+00 
0.0000000e+00 0.0000000e+00 6.0000000e+00 
0.0000000e+00 0.0000000e+00 7.0000000e+00 
[...]
POINT_DATA 1921
FIELD FieldData 3
DISPLACEMENT 3 1921  float
0.0000000e+00 0.0000000e+00 0.0000000e+00 
0.0000000e+00 0.0000000e+00 0.0000000e+00 
0.0000000e+00 0.0000000e+00 0.0000000e+00 
0.0000000e+00 0.0000000e+00 0.0000000e+00 
-2.4405999e-06 9.5506005e-07 2.4669012e-06 
2.1165449e-07 3.8944981e-07 -5.9095424e-07 
0.0000000e+00 1.2690262e-05 0.0000000e+00 
0.0000000e+00 -1.3952591e-05 0.0000000e+00 
-7.3363267e-09 -3.7572788e-06 -2.4477865e-07 
-5.3174068e-07 9.0779128e-07 -1.6317105e-06 
6.3916241e-07 -1.2600457e-06 -1.4099385e-06 
-1.3187778e-06 6.1484411e-07 -2.2283007e-06 
0.0000000e+00 4.0930907e-05 0.0000000e+00 
0.0000000e+00 -3.4249366e-05 0.0000000e+00 
7.5180697e-06 3.2885157e-05 -3.0210281e-06 
-4.4371809e-06 -2.7343065e-05 -5.0605827e-06 
3.3625124e-06 8.9609011e-06 7.6206234e-06 
-5.1758811e-06 2.8799880e-07 -1.8254457e-05 
0.0000000e+00 6.9282869e-05 0.0000000e+00 
0.0000000e+00 -8.1308433e-05 0.0000000e+00 
1.1927698e-05 1.0629755e-05 3.1165218e-06 
4.1310059e-06 1.1104335e-05 8.6421442e-06 
-3.1746749e-06 1.4753856e-06 2.0549332e-05 
-6.0838684e-06 -2.1433321e-05 2.0574838e-05 
-2.2233232e-06 -5.0704126e-05 6.6331581e-06 
-7.1514096e-06 -6.9819383e-05 -1.4030204e-05 
-1.6919281e-05 -6.7075533e-05 -2.3190887e-05 
-2.2364782e-05 -4.8769183e-05 -2.6825766e-05 
-1.3286030e-05 -2.9745417e-05 -2.3619456e-05 
-4.0047389e-06 -1.9573559e-05 -1.2555842e-05 
1.5918698e-06 -1.4567668e-05 -2.6515005e-05 
-4.9840355e-06 1.1754134e-06 -2.9789710e-05 
4.6322907e-06 3.7408689e-05 -2.2099017e-05 
1.5684104e-06 8.7950517e-05 -1.0417288e-05 
1.8824652e-05 1.3289486e-04 2.5495219e-06 
3.5348494e-05 1.5358138e-04 2.2226322e-05 
3.7492980e-05 1.4882973e-04 3.1624728e-05 
1.9010780e-05 1.3967401e-04 4.3225893e-05 
7.7901558e-07 1.5151118e-04 4.5278110e-05 
2.4813016e-05 1.9783758e-04 5.9923059e-05 
5.2186100e-05 2.5424676e-04 7.9023848e-05 
5.1637893e-05 2.7292830e-04 8.7268600e-05 
2.5636975e-05 2.2356326e-04 1.0578480e-04 
1.2381211e-05 9.9143290e-05 1.3162699e-04 
-2.7476442e-05 -9.7668417e-05 1.7068954e-04 
-4.0136481e-05 -3.9775844e-04 1.4933108e-04 
-7.0316317e-05 -8.9143158e-04 2.4566139e-04 
-1.2488160e-04 -1.6780918e-03 1.6214060e-04 
-1.5923157e-04 -2.7962362e-03 2.7470486e-04 
-2.1217391e-04 -4.0702061e-03 1.0727073e-04 
-2.6565880e-04 -5.0144978e-03 1.2411918e-04 
-2.9138930e-04 -5.0267437e-03 -9.5470596e-06 
-2.7704678e-04 -4.6868781e-03 -4.9762140e-05 
-2.6732430e-04 -4.5208815e-03 -8.7638902e-05 
-2.4198552e-04 -4.6665408e-03 -6.7246423e-05 
-2.6033263e-04 -4.6606902e-03 -1.1209703e-04 
-2.5194584e-04 -3.9302073e-03 -1.9390891e-04 
-2.2349645e-04 -2.8202971e-03 -1.1887526e-04 
-1.7564277e-04 -1.7724875e-03 -2.1144027e-04 
-1.3314183e-04 -9.6659799e-04 -1.3493154e-04 
-9.8617478e-05 -4.5156639e-04 -1.7216886e-04 
-7.1684241e-05 -1.7997871e-04 -1.2724016e-04 
-4.3375003e-05 -7.2789517e-05 -1.0958636e-04 
-4.3140037e-05 -5.7072797e-05 -8.5056694e-05 
-3.7853362e-05 -8.0275015e-05 -6.3734296e-05 
-4.4771554e-05 -1.1496284e-04 -5.9919286e-05 
-2.8541335e-05 -1.4070958e-04 -5.3396096e-05 
-3.0612053e-05 -1.4561877e-04 -4.7195725e-05 
-2.1754693e-05 -1.2969662e-04 -3.0621941e-05 
-2.9171935e-05 -1.0619401e-04 -2.3550876e-05 
-3.1011474e-05 -8.2856393e-05 -2.6049409e-05 
-1.5720390e-05 -5.3403102e-05 -3.5293215e-05 
1.1651930e-05 -3.0109904e-06 -5.1982475e-05 
1.9426368e-05 7.6188124e-05 -4.9188140e-05 
3.4754306e-05 1.6554201e-04 -2.6669615e-05 
3.3419805e-05 2.3134131e-04 1.9355786e-05 
3.8797443e-05 2.4787625e-04 3.4174744e-05 
3.3406010e-05 2.2240065e-04 5.4226730e-05 
2.2321457e-05 1.9135345e-04 4.8423986e-05 
1.9454414e-05 1.9825462e-04 3.1408759e-05 
1.3176305e-05 2.5223693e-04 4.1556523e-05 
3.2203279e-05 3.1823930e-04 4.8063084e-05 
4.4848694e-05 3.3348639e-04 7.7147997e-05 
3.7530488e-05 2.3168550e-04 1.1891892e-04 
1.4034299e-05 -1.1190775e-05 1.5768631e-04 
-1.7778284e-05 -4.0612390e-04 1.7807994e-04 
-4.5365101e-05 -9.9982647e-04 2.8912208e-04 
-1.0812846e-04 -1.8478141e-03 1.6927169e-04 
-1.3927073e-04 -2.9824334e-03 2.5007263e-04 
4.2987973e-05 -4.2430577e-03 4.4923023e-04 
-1.9078181e-04 -5.0985492e-03 3.0367990e-04 
-2.3511646e-04 -5.0796624e-03 1.4414119e-04 
-2.6956102e-04 -4.7793188e-03 4.7884940e-05 
-1.9691238e-04 -4.6781613e-03 -4.9643833e-05 
-3.1718344e-04 -4.8702369e-03 -8.2232305e-05 
-2.9511453e-04 -4.7998936e-03 -1.3794801e-04 
-2.6970450e-04 -3.9175190e-03 -2.8614877e-04 
-1.9223557e-04 -2.6554647e-03 -2.3273885e-04 
-1.2106043e-04 -1.5083981e-03 -3.2832826e-04 
-6.5902539e-05 -6.6308782e-04 -2.0315794e-04 
-2.8404304e-05 -1.4713324e-04 -1.9668673e-04 
-9.6549784e-06 1.1399557e-04 -1.1674150e-04 
9.4456791e-06 2.0883753e-04 -7.7020195e-05 
1.0825755e-05 2.0231785e-04 -4.6190813e-05 
1.4186467e-05 1.3657456e-04 -1.3104112e-05 
1.1969467e-05 4.6794477e-05 1.6308224e-05 
-1.2228381e-05 -3.4196426e-05 -3.9163469e-06 
-1.2813174e-05 -8.0269507e-05 -6.3905431e-06 
-2.0565694e-06 -8.5615327e-05 -1.0330585e-06 
9.3978197e-06 -6.3090665e-05 8.4627272e-06 
1.7688148e-05 -2.9123339e-05 1.8649405e-05 
1.3253712e-05 4.7086737e-06 2.5734988e-05 
8.0178179e-06 3.0988875e-05 2.0848005e-05 
6.9617427e-06 4.6447542e-05 1.7681599e-05 
3.2613111e-06 4.9022176e-05 1.5526879e-05 
-6.0468182e-07 4.0562791e-05 2.0439060e-05 
-4.3729597e-06 2.6200791e-05 2.8553846e-05 
-6.8082149e-06 1.2586220e-05 3.0879168e-05 
-1.0630918e-05 3.3497759e-06 1.7052023e-05 
0.0000000e+00 9.2390601e-06 0.0000000e+00 
0.0000000e+00 1.0802130e-05 0.0000000e+00 
0.0000000e+00 1.0821142e-05 0.0000000e+00 
0.0000000e+00 9.5621806e-07 0.0000000e+00 
0.0000000e+00 -2.1955468e-05 0.0000000e+00 
0.0000000e+00 -5.0538281e-05 0.0000000e+00 
0.0000000e+00 -6.8979374e-05 0.0000000e+00 
0.0000000e+00 -6.6609377e-05 0.0000000e+00 
0.0000000e+00 -4.8943290e-05 0.0000000e+00 
0.0000000e+00 -3.0392803e-05 0.0000000e+00 
0.0000000e+00 -2.0279616e-05 0.0000000e+00 
0.0000000e+00 -1.4501842e-05 0.0000000e+00 
0.0000000e+00 1.8039682e-06 0.0000000e+00 
0.0000000e+00 3.8142443e-05 0.0000000e+00 
0.0000000e+00 8.8071880e-05 0.0000000e+00 
0.0000000e+00 1.3227528e-04 0.0000000e+00 
0.0000000e+00 1.5261848e-04 0.0000000e+00 
0.0000000e+00 1.4827753e-04 0.0000000e+00 
0.0000000e+00 1.3974939e-04 0.0000000e+00 
0.0000000e+00 1.5328685e-04 0.0000000e+00 
0.0000000e+00 1.9950906e-04 0.0000000e+00 
0.0000000e+00 2.5423541e-04 0.0000000e+00 
0.0000000e+00 2.7220466e-04 0.0000000e+00 
0.0000000e+00 2.2271456e-04 0.0000000e+00 
0.0000000e+00 1.0027972e-04 0.0000000e+00 
0.0000000e+00 -9.4973075e-05 0.0000000e+00 
0.0000000e+00 -3.9703009e-04 0.0000000e+00 
0.0000000e+00 -8.9365151e-04 0.0000000e+00 
0.0000000e+00 -1.6878224e-03 0.0000000e+00 
0.0000000e+00 -2.8126978e-03 0.0000000e+00 
0.0000000e+00 -4.0974356e-03 0.0000000e+00 
0.0000000e+00 -5.0353855e-03 0.0000000e+00 
0.0000000e+00 -5.0521297e-03 0.0000000e+00 
0.0000000e+00 -4.7078729e-03 0.0000000e+00 
0.0000000e+00 -4.5512062e-03 0.0000000e+00 
0.0000000e+00 -4.6921712e-03 0.0000000e+00 
0.0000000e+00 -4.6894625e-03 0.0000000e+00 
0.0000000e+00 -3.9471723e-03 0.0000000e+00 
0.0000000e+00 -2.8345450e-03 0.0000000e+00 
0.0000000e+00 -1.7796475e-03 0.0000000e+00 
0.0000000e+00 -9.7128213e-04 0.0000000e+00 
0.0000000e+00 -4.5271986e-04 0.0000000e+00 
0.0000000e+00 -1.7913323e-04 0.0000000e+00 
0.0000000e+00 -7.1592753e-05 0.0000000e+00 
0.0000000e+00 -5.6048953e-05 0.0000000e+00 
0.0000000e+00 -8.0241458e-05 0.0000000e+00 
0.0000000e+00 -1.1469136e-04 0.0000000e+00 
0.0000000e+00 -1.4007842e-04 0.0000000e+00 
0.0000000e+00 -1.4491985e-04 0.0000000e+00 
0.0000000e+00 -1.2987379e-04 0.0000000e+00 
0.0000000e+00 -1.0690086e-04 0.0000000e+00 
0.0000000e+00 -8.3554209e-05 0.0000000e+00 
0.0000000e+00 -5.3390730e-05 0.0000000e+00 
0.0000000e+00 -1.8406678e-06 0.0000000e+00 
0.0000000e+00 7.7141194e-05 0.0000000e+00 
0.0000000e+00 1.6548335e-04 0.0000000e+00 
0.0000000e+00 2.2988769e-04 0.0000000e+00 
0.0000000e+00 2.4640883e-04 0.0000000e+00 
0.0000000e+00 2.2186765e-04 0.0000000e+00 
0.0000000e+00 1.9257054e-04 0.0000000e+00 
0.0000000e+00 2.0017677e-04 0.0000000e+00 
0.0000000e+00 2.5422772e-04 0.0000000e+00 
0.0000000e+00 3.1946186e-04 0.0000000e+00 
0.0000000e+00 3.3188984e-04 0.0000000e+00 
0.0000000e+00 2.3062003e-04 0.0000000e+00 
0.0000000e+00 -1.0347288e-05 0.0000000e+00 
0.0000000e+00 -4.0608694e-04 0.0000000e+00 
0.0000000e+00 -1.0006550e-03 0.0000000e+00 
0.0000000e+00 -1.8574485e-03 0.0000000e+00 
0.0000000e+00 -3.0016114e-03 0.0000000e+00 
0.0000000e+00 -4.2613931e-03 0.0000000e+00 
0.0000000e+00 -5.1260572e-03 0.0000000e+00 
0.0000000e+00 -5.1077488e-03 0.0000000e+00 
0.0000000e+00 -4.7990480e-03 0.0000000e+00 
0.0000000e+00 -4.7109784e-03 0.0000000e+00 
0.0000000e+00 -4.8921881e-03 0.0000000e+00 
0.0000000e+00 -4.8284624e-03 0.0000000e+00 
0.0000000e+00 -3.9355000e-03 0.0000000e+00 
0.0000000e+00 -2.6715368e-03 0.0000000e+00 
0.0000000e+00 -1.5162954e-03 0.0000000e+00 
0.0000000e+00 -6.6718046e-04 0.0000000e+00 
0.0000000e+00 -1.4717186e-04 0.0000000e+00 
0.0000000e+00 1.1531045e-04 0.0000000e+00 
0.0000000e+00 2.0976184e-04 0.0000000e+00 
0.0000000e+00 2.0259869e-04 0.0000000e+00 
0.0000000e+00 1.3690263e-04 0.0000000e+00 
0.0000000e+00 4.7359474e-05 0.0000000e+00 
0.0000000e+00 -3.3134846e-05 0.0000000e+00 
0.0000000e+00 -7.9465615e-05 0.0000000e+00 
0.0000000e+00 -8.5616877e-05 0.0000000e+00 
0.0000000e+00 -6.3430052e-05 0.0000000e+00 
0.0000000e+00 -2.9307022e-05 0.0000000e+00 
0.0000000e+00 4.5663469e-06 0.0000000e+00 
0.0000000e+00 3.0950418e-05 0.0000000e+00 
0.0000000e+00 4.6252684e-05 0.0000000e+00 
0.0000000e+00 4.8831076e-05 0.0000000e+00 
0.0000000e+00 4.0461618e-05 0.0000000e+00 
0.0000000e+00 2.6343940e-05 0.0000000e+00 
0.0000000e+00 1.2700834e-05 0.0000000e+00 
0.0000000e+00 3.4620327e-06 0.0000000e+00 
0.0000000e+00 2.9810150e-07 0.0000000e+00 
0.0000000e+00 -5.2103209e-03 0.0000000e+00 
7.0214301e-05 -1.0238380e-04 4.9963950e-07 
-2.5895998e-04 -4.6411329e-03 1.4967336e-04 
0.0000000e+00 0.0000000e+00 0.0000000e+00 
0.0000000e+00 0.0000000e+00 0.0000000e+00 
0.0000000e+00 0.0000000e+00 0.0000000e+00 
0.0000000e+00 0.0000000e+00 0.0000000e+00 
0.0000000e+00 0.0000000e+00 0.0000000e+00 
0.0000000e+00 0.0000000e+00 0.0000000e+00 
0.0000000e+00 0.0000000e+00 0.0000000e+00 
0.0000000e+00 0.0000000e+00 0.0000000e+00 
0.0000000e+00 0.0000000e+00 0.0000000e+00 
0.0000000e+00 0.0000000e+00 0.0000000e+00 
0.0000000e+00 0.0000000e+00 0.0000000e+00 
0.0000000e+00 0.0000000e+00 0.0000000e+00 
0.0000000e+00 0.0000000e+00 0.0000000e+00 
0.0000000e+00 0.0000000e+00 0.0000000e+00 
0.0000000e+00 0.0000000e+00 0.0000000e+00 
0.0000000e+00 0.0000000e+00 0.0000000e+00 
0.0000000e+00 0.0000000e+00 0.0000000e+00 
0.0000000e+00 0.0000000e+00 0.0000000e+00 
0.0000000e+00 0.0000000e+00 0.0000000e+00 
0.0000000e+00 0.0000000e+00 0.0000000e+00 
0.0000000e+00 0.0000000e+00 0.0000000e+00 
0.0000000e+00 0.0000000e+00 0.0000000e+00 
0.0000000e+00 0.0000000e+00 0.0000000e+00 
0.0000000e+00 0.0000000e+00 0.0000000e+00 
0.0000000e+00 0.0000000e+00 0.0000000e+00 
0.0000000e+00 0.0000000e+00 0.0000000e+00 
0.0000000e+00 0.0000000e+00 0.0000000e+00 
0.0000000e+00 0.0000000e+00 0.0000000e+00 
0.0000000e+00 0.0000000e+00 0.0000000e+00 
0.0000000e+00 0.0000000e+00 0.0000000e+00 
0.0000000e+00 0.0000000e+00 0.0000000e+00 
0.0000000e+00 0.0000000e+00 0.0000000e+00 
0.0000000e+00 0.0000000e+00 0.0000000e+00 
0.0000000e+00 0.0000000e+00 0.0000000e+00 
0.0000000e+00 0.0000000e+00 0.0000000e+00 
0.0000000e+00 0.0000000e+00 0.0000000e+00 
0.0000000e+00 0.0000000e+00 0.0000000e+00 
0.0000000e+00 0.0000000e+00 0.0000000e+00 
0.0000000e+00 0.0000000e+00 0.0000000e+00 
0.0000000e+00 0.0000000e+00 0.0000000e+00 
0.0000000e+00 0.0000000e+00 0.0000000e+00 
0.0000000e+00 0.0000000e+00 0.0000000e+00 
0.0000000e+00 0.0000000e+00 0.0000000e+00 
0.0000000e+00 0.0000000e+00 0.0000000e+00 
0.0000000e+00 0.0000000e+00 0.0000000e+00 
0.0000000e+00 0.0000000e+00 0.0000000e+00 
0.0000000e+00 0.0000000e+00 0.0000000e+00 
0.0000000e+00 0.0000000e+00 0.0000000e+00 
0.0000000e+00 0.0000000e+00 0.0000000e+00 
0.0000000e+00 0.0000000e+00 0.0000000e+00 
0.0000000e+00 0.0000000e+00 0.0000000e+00 
0.0000000e+00 0.0000000e+00 0.0000000e+00 
0.0000000e+00 0.0000000e+00 0.0000000e+00 
0.0000000e+00 0.0000000e+00 0.0000000e+00 
0.0000000e+00 0.0000000e+00 0.0000000e+00 
0.0000000e+00 0.0000000e+00 0.0000000e+00 
0.0000000e+00 0.0000000e+00 0.0000000e+00 
0.0000000e+00 0.0000000e+00 0.0000000e+00 
0.0000000e+00 0.0000000e+00 0.0000000e+00 
0.0000000e+00 0.0000000e+00 0.0000000e+00 
0.0000000e+00 0.0000000e+00 0.0000000e+00 
0.0000000e+00 0.0000000e+00 0.0000000e+00 
0.0000000e+00 0.0000000e+00 0.0000000e+00 
0.0000000e+00 0.0000000e+00 0.0000000e+00 
0.0000000e+00 0.0000000e+00 0.0000000e+00 
0.0000000e+00 0.0000000e+00 0.0000000e+00 
0.0000000e+00 0.0000000e+00 0.0000000e+00 
0.0000000e+00 0.0000000e+00 0.0000000e+00 
0.0000000e+00 0.0000000e+00 0.0000000e+00 
0.0000000e+00 0.0000000e+00 0.0000000e+00 
0.0000000e+00 0.0000000e+00 0.0000000e+00 
0.0000000e+00 0.0000000e+00 0.0000000e+00 
0.0000000e+00 0.0000000e+00 0.0000000e+00 
0.0000000e+00 0.0000000e+00 0.0000000e+00 
0.0000000e+00 0.0000000e+00 0.0000000e+00 
0.0000000e+00 0.0000000e+00 0.0000000e+00 
0.0000000e+00 0.0000000e+00 0.0000000e+00 
0.0000000e+00 0.0000000e+00 0.0000000e+00 
0.0000000e+00 0.0000000e+00 0.0000000e+00 
0.0000000e+00 0.0000000e+00 0.0000000e+00 
0.0000000e+00 0.0000000e+00 0.0000000e+00 
0.0000000e+00 0.0000000e+00 0.0000000e+00 
0.0000000e+00 0.0000000e+00 0.0000000e+00 
0.0000000e+00 0.0000000e+00 0.0000000e+00 
0.0000000e+00 0.0000000e+00 0.0000000e+00 
0.0000000e+00 0.0000000e+00 0.0000000e+00 
0.0000000e+00 0.0000000e+00 0.0000000e+00 
0.0000000e+00 0.0000000e+00 0.0000000e+00 
0.0000000e+00 0.0000000e+00 0.0000000e+00 
0.0000000e+00 0.0000000e+00 0.0000000e+00 
0.0000000e+00 0.0000000e+00 0.0000000e+00 
0.0000000e+00 0.0000000e+00 0.0000000e+00 
0.0000000e+00 0.0000000e+00 0.0000000e+00 
0.0000000e+00 0.0000000e+00 0.0000000e+00 
0.0000000e+00 0.0000000e+00 0.0000000e+00 
0.0000000e+00 0.0000000e+00 0.0000000e+00 
0.0000000e+00 0.0000000e+00 0.0000000e+00 
0.0000000e+00 0.0000000e+00 0.0000000e+00 
0.0000000e+00 0.0000000e+00 0.0000000e+00 
0.0000000e+00 0.0000000e+00 0.0000000e+00 
0.0000000e+00 0.0000000e+00 0.0000000e+00 
0.0000000e+00 0.0000000e+00 0.0000000e+00 
0.0000000e+00 0.0000000e+00 0.0000000e+00 
0.0000000e+00 0.0000000e+00 0.0000000e+00 
0.0000000e+00 0.0000000e+00 0.0000000e+00 
0.0000000e+00 0.0000000e+00 0.0000000e+00 
-1.4283015e-06 -9.2740703e-07 1.0215120e-07 
1.0082462e-06 8.5279555e-07 -1.5521891e-06 
5.3307571e-07 2.5407041e-06 1.5524820e-06 
-1.1572295e-06 2.9157772e-07 8.3302484e-07 
-1.3638951e-06 -2.3176560e-06 -1.5081490e-07 
-1.1342273e-06 1.3761372e-06 5.4454131e-06 
-5.0338969e-07 1.9499330e-06 4.4771286e-06 
-8.8811481e-07 -4.3714163e-06 2.8544121e-06 
-8.5592603e-07 -1.5330829e-06 -1.5808101e-06 
2.2370873e-06 -2.0238636e-07 -4.5966467e-06 
6.6094130e-06 -6.6944895e-06 -9.5727755e-06 
9.4407424e-06 -2.1822607e-06 -1.6971731e-05 
2.1923612e-05 -1.3171254e-05 -1.7874203e-05 
3.2808839e-05 -1.6491966e-05 -1.7265571e-05 
4.7428006e-05 -1.3718427e-05 -1.2899553e-05 
4.9069302e-05 -1.2783859e-05 -1.0486639e-05 
4.5140787e-05 -1.2059073e-05 -2.4314859e-06 
4.0361414e-05 -8.5447464e-06 4.2498727e-06 
3.0558745e-05 -5.9973654e-06 9.3124399e-06 
1.6116932e-05 -2.9697630e-06 1.1244523e-05 
8.3298819e-06 -7.9782336e-07 7.9908014e-06 
2.0717928e-06 -3.3951997e-06 1.5166365e-06 
-7.2360103e-07 -1.0519618e-06 3.2291084e-06 
-2.9021996e-06 5.9025547e-06 5.2163182e-06 
-4.3544824e-06 5.8104947e-06 7.1584395e-06 
-5.4717193e-06 2.2625675e-06 1.1733268e-05 
-6.3398957e-06 6.5302538e-06 1.1596732e-05 
-3.9692241e-06 -2.4528723e-07 3.7032985e-06 
-4.6677055e-06 -6.9966052e-07 5.4075285e-06 
-4.1708317e-06 -4.9311518e-07 -3.7189281e-07 
7.4867175e-06 -2.5918212e-06 -8.3141067e-06 
1.6238339e-05 -9.4126353e-06 -9.7216625e-06 
2.9348690e-05 -8.9185414e-06 -9.3255230e-06 
4.1763000e-05 -1.8009852e-05 -1.1680667e-05 
5.0946965e-05 -1.5105865e-05 -9.8759574e-06 
5.6487093e-05 -1.2411776e-05 -1.6778614e-06 
5.1718380e-05 -1.4410049e-05 4.8177553e-06 
4.4935274e-05 -1.3766760e-05 6.7266010e-06 
2.7559016e-05 -1.0476242e-05 9.1198963e-06 
1.4386306e-05 -5.7855636e-06 6.6685402e-06 
5.7875673e-06 -1.4468596e-06 4.3000305e-06 
2.1619312e-06 1.7363468e-06 2.1512062e-06 
1.9526972e-06 -4.8658217e-07 3.2848593e-06 
1.1247753e-06 -9.0065356e-07 4.8268289e-06 
1.3231265e-06 -8.1769622e-07 6.8349382e-06 
9.7484815e-07 -7.7149758e-07 6.0016314e-06 
5.5584195e-07 -9.6567931e-07 4.0220416e-06 
3.5771549e-07 -8.9071887e-07 1.6031082e-06 
3.4058931e-07 -4.6779707e-07 9.7731998e-08 
0.0000000e+00 2.2309187e-05 0.0000000e+00 
0.0000000e+00 5.3325648e-06 0.0000000e+00 
0.0000000e+00 -1.8034235e-06 0.0000000e+00 
0.0000000e+00 3.0361978e-05 0.0000000e+00 
0.0000000e+00 3.4369095e-05 0.0000000e+00 
0.0000000e+00 4.7615384e-05 0.0000000e+00 
0.0000000e+00 8.7848173e-05 0.0000000e+00 
0.0000000e+00 4.9489783e-05 0.0000000e+00 
0.0000000e+00 3.3153461e-05 0.0000000e+00 
0.0000000e+00 4.1243697e-05 0.0000000e+00 
0.0000000e+00 -3.0413868e-05 0.0000000e+00 
0.0000000e+00 -9.0834837e-05 0.0000000e+00 
0.0000000e+00 -1.1765142e-04 0.0000000e+00 
0.0000000e+00 -2.6007328e-04 0.0000000e+00 
0.0000000e+00 -4.4815955e-04 0.0000000e+00 
0.0000000e+00 -5.1843986e-04 0.0000000e+00 
0.0000000e+00 -4.6622395e-04 0.0000000e+00 
0.0000000e+00 -3.9004686e-04 0.0000000e+00 
0.0000000e+00 -2.8688120e-04 0.0000000e+00 
0.0000000e+00 -1.2620454e-04 0.0000000e+00 
0.0000000e+00 -2.6524507e-05 0.0000000e+00 
0.0000000e+00 1.2667902e-05 0.0000000e+00 
0.0000000e+00 1.8746026e-05 0.0000000e+00 
0.0000000e+00 3.2752290e-05 0.0000000e+00 
0.0000000e+00 1.6076807e-05 0.0000000e+00 
0.0000000e+00 2.9112431e-05 0.0000000e+00 
0.0000000e+00 5.7923437e-05 0.0000000e+00 
0.0000000e+00 1.1004190e-04 0.0000000e+00 
0.0000000e+00 4.8312802e-05 0.0000000e+00 
0.0000000e+00 4.5875342e-05 0.0000000e+00 
0.0000000e+00 4.3224903e-05 0.0000000e+00 
0.0000000e+00 -2.3373595e-06 0.0000000e+00 
0.0000000e+00 -1.2498522e-04 0.0000000e+00 
0.0000000e+00 -2.1060293e-04 0.0000000e+00 
0.0000000e+00 -4.5363646e-04 0.0000000e+00 
0.0000000e+00 -5.6044740e-04 0.0000000e+00 
0.0000000e+00 -5.8402680e-04 0.0000000e+00 
0.0000000e+00 -5.1514618e-04 0.0000000e+00 
0.0000000e+00 -3.3743295e-04 0.0000000e+00 
0.0000000e+00 -1.3162647e-04 0.0000000e+00 
0.0000000e+00 -9.8721075e-06 0.0000000e+00 
0.0000000e+00 1.3009982e-05 0.0000000e+00 
0.0000000e+00 -3.3993720e-06 0.0000000e+00 
0.0000000e+00 -2.2284805e-05 0.0000000e+00 
0.0000000e+00 -1.4346163e-05 0.0000000e+00 
0.0000000e+00 8.7621065e-06 0.0000000e+00 
0.0000000e+00 2.1073629e-05 0.0000000e+00 
0.0000000e+00 1.5414129e-05 0.0000000e+00 
0.0000000e+00 -5.1230228e-07 0.0000000e+00 
-1.7090990e-06 -9.7996360e-07 1.1979229e-06 
-9.4622709e-07 6.4334847e-07 -1.5682637e-06 
-2.4207131e-06 7.9923311e-06 3.1517860e-07 
-3.0142862e-06 1.6063956e-05 1.4650776e-06 
-1.4724255e-07 1.1725024e-07 -6.3197683e-07 
-1.5421162e-07 -4.9797245e-07 -1.6843867e-06 
8.4793965e-07 -3.6082401e-06 -3.5318947e-06 
1.9609452e-06 -8.8990118e-06 -3.2100722e-06 
-4.7262483e-07 8.7635595e-07 -7.5314983e-07 
4.1889658e-07 7.9513637e-07 1.4359139e-06 
3.4454990e-07 1.7043399e-06 -4.4523441e-07 
1.3229343e-06 3.8997659e-06 -6.9522957e-07 
1.1463261e-06 -1.4931951e-06 2.6127061e-06 
-1.0180021e-06 1.7043693e-06 5.7679304e-06 
1.5558865e-06 3.1743191e-06 5.6495815e-06 
2.3275652e-06 -6.4192686e-06 2.9912214e-06 
6.9238882e-07 6.4914511e-06 2.6790353e-06 
1.9756544e-06 -5.9852317e-07 -1.2148954e-06 
3.9364218e-06 -1.1545153e-05 -9.8250803e-06 
1.2764115e-05 3.6060082e-06 -1.3467301e-05 
2.5289954e-05 -9.6552121e-06 -1.7597675e-05 
2.9444913e-05 -2.0560939e-05 -2.4043153e-05 
4.6406731e-05 -8.2411780e-06 -1.8200370e-05 
4.9429480e-05 -6.8789436e-06 -1.2602254e-05 
4.7602913e-05 -7.6105189e-06 -5.2620117e-06 
3.9820654e-05 -5.1766295e-07 6.0240694e-07 
2.7448163e-05 -1.9344780e-06 5.3404183e-06 