# vtk DataFile Version 4.0
vtk output
ASCII
DATASET UNSTRUCTURED_GRID
POINTS 1921 float
0.0000000e+00 0.0000000e+00 0.0000000e+00 
0.0000000e+00 0.0000000e+00 5.0000000e+01 
5.0000000e+00 0.0000000e+00 0.0000000e+00 
5.0000000e+00 0.0000000e+00 5.0000000e+01 
5.0000000e+00 1.0000000e+00 0.0000000e+00 
5.0000000e+00 1.0000000e+00 5.0000000e+01 
0.0000000e+00 1.0000000e+00 0.0000000e+00 
0.0000000e+00 1.0000000e+00 5.0000000e+01 
5.0000000e+00 2.0000000e+00 0.0000000e+00 
5.0000000e+00 2.0000000e+00 5.0000000e+01 
3.0000000e+00 2.0000000e+00 0.0000000e+00 
3.0000000e+00 2.0000000e+00 5.0000000e+01 
0.0000000e+00 2.0000000e+00 0.0000000e+00 
0.0000000e+00 2.0000000e+00 5.0000000e+01 
1.5000000e+00 3.0000000e+00 0.0000000e+00 
1.5000000e+00 3.0000000e+00 5.0000000e+01 
7.5000000e-01 3.0000000e+00 0.0000000e+00 
7.5000000e-01 3.0000000e+00 5.0000000e+01 
0.0000000e+00 3.0000000e+00 0.0000000e+00 
0.0000000e+00 3.0000000e+00 5.0000000e+01 
7.5000000e-01 3.0000000e+00 5.0000000e-01 
7.5000000e-01 3.0000000e+00 1.0000000e+00 
7.5000000e-01 3.0000000e+00 1.5000000e+00 
7.5000000e-01 3.0000000e+00 2.0000000e+00 
7.5000000e-01 3.0000000e+00 2.5000000e+00 
7.5000000e-01 3.0000000e+00 3.0000000e+00 
7.5000000e-01 3.0000000e+00 3.5000000e+00 
7.5000000e-01 3.0000000e+00 4.0000000e+00 
7.5000000e-01 3.0000000e+00 4.5000000e+00 
7.5000000e-01 3.0000000e+00 5.0000000e+00 
7.5000000e-01 3.0000000e+00 5.5000000e+00 
7.5000000e-01 3.0000000e+00 6.0000000e+00 
7.5000000e-01 3.0000000e+00 6.5000000e+00 
7.5000000e-01 3.0000000e+00 7.0000000e+00 
7.5000000e-01 3.0000000e+00 7.5000000e+00 
7.5000000e-01 3.0000000e+00 8.0000000e+00 
7.5000000e-01 3.0000000e+00 8.5000000e+00 
7.5000000e-01 3.0000000e+00 9.0000000e+00 
7.5000000e-01 3.0000000e+00 9.5000000e+00 
7.5000000e-01 3.0000000e+00 1.0000000e+01 
7.5000000e-01 3.0000000e+00 1.0500000e+01 
7.5000000e-01 3.0000000e+00 1.1000000e+01 
7.5000000e-01 3.0000000e+00 1.1500000e+01 
7.5000000e-01 3.0000000e+00 1.2000000e+01 
7.5000000e-01 3.0000000e+00 1.2500000e+01 
7.5000000e-01 3.0000000e+00 1.3000000e+01 
7.5000000e-01 3.0000000e+00 1.3500000e+01 
7.5000000e-01 3.0000000e+00 1.4000000e+01 
7.5000000e-01 3.0000000e+00 1.4500000e+01 
7.5000000e-01 3.0000000e+00 1.5000000e+01 
7.5000000e-01 3.0000000e+00 1.5500000e+01 
7.5000000e-01 3.0000000e+00 1.6000000e+01 
7.5000000e-01 3.0000000e+00 1.6500000e+01 
7.5000000e-01 3.0000000e+00 1.7000000e+01 
7.5000000e-01 3.0000000e+00 1.7500000e+01 
7.5000000e-01 3.0000000e+00 1.8000000e+01 
7.5000000e-01 3.0000000e+00 1.8500000e+01 
7.5000000e-01 3.0000000e+00 1.9000000e+01 
7.5000000e-01 3.0000000e+00 1.9500000e+01 
7.5000000e-01 3.0000000e+00 2.0000000e+01 
7.5000000e-01 3.0000000e+00 2.0500000e+01 
7.5000000e-01 3.0000000e+00 2.1000000e+01 
7.5000000e-01 3.0000000e+00 2.1500000e+01 
7.5000000e-01 3.0000000e+00 2.2000000e+01 
7.5000000e-01 3.0000000e+00 2.2500000e+01 
7.5000000e-01 3.0000000e+00 2.3000000e+01 
7.5000000e-01 3.0000000e+00 2.3500000e+01 
7.5000000e-01 3.0000000e+00 2.4000000e+01 
7.5000000e-01 3.0000000e+00 2.4500000e+01 
7.5000000e-01 3.0000000e+00 2.5000000e+01 
7.5000000e-01 3.0000000e+00 2.5500000e+01 
7.5000000e-01 3.0000000e+00 2.6000000e+01 
7.5000000e-01 3.0000000e+00 2.6500000e+01 
7.5000000e-01 3.0000000e+00 2.7000000e+01 
7.5000000e-01 3.0000000e+00 2.7500000e+01 
7.5000000e-01 3.0000000e+00 2.8000000e+01 
7.5000000e-01 3.0000000e+00 2.8500000e+01 
7.5000000e-01 3.0000000e+00 2.9000000e+01 
7.5000000e-01 3.0000000e+00 2.9500000e+01 
7.5000000e-01 3.0000000e+00 3.0000000e+01 
7.5000000e-01 3.0000000e+00 3.0500000e+01 
7.5000000e-01 3.0000000e+00 3.1000000e+01 
7.5000000e-01 3.0000000e+00 3.1500000e+01 
7.5000000e-01 3.0000000e+00 3.2000000e+01 
7.5000000e-01 3.0000000e+00 3.2500000e+01 
7.5000000e-01 3.0000000e+00 3.3000000e+01 
7.5000000e-01 3.0000000e+00 3.3500000e+01 
7.5000000e-01 3.0000000e+00 3.4000000e+01 
7.5000000e-01 3.0000000e+00 3.4500000e+01 
7.5000000e-01 3.0000000e+00 3.5000000e+01 
7.5000000e-01 3.0000000e+00 3.5500000e+01 
7.5000000e-01 3.0000000e+00 3.6000000e+01 
7.5000000e-01 3.0000000e+00 3.6500000e+01 
7.5000000e-01 3.0000000e+00 3.7000000e+01 
7.5000000e-01 3.0000000e+00 3.7500000e+01 
7.5000000e-01 3.0000000e+00 3.8000000e+01 
7.5000000e-01 3.0000000e+00 3.8500000e+01 
7.5000000e-01 3.0000000e+00 3.9000000e+01 
7.5000000e-01 3.0000000e+00 3.9500000e+01 
7.5000000e-01 3.0000000e+00 4.0000000e+01 
7.5000000e-01 3.0000000e+00 4.0500000e+01 
7.5000000e-01 3.0000000e+00 4.1000000e+01 
7.5000000e-01 3.0000000e+00 4.1500000e+01 
7.5000000e-01 3.0000000e+00 4.2000000e+01 
7.5000000e-01 3.0000000e+00 4.2500000e+01 
7.5000000e-01 3.0000000e+00 4.3000000e+01 
7.5000000e-01 3.0000000e+00 4.3500000e+01 
7.5000000e-01 3.0000000e+00 4.4000000e+01 
7.5000000e-01 3.0000000e+00 4.4500000e+01 
7.5000000e-01 3.0000000e+00 4.5000000e+01 
7.5000000e-01 3.0000000e+00 4.5500000e+01 
7.5000000e-01 3.0000000e+00 4.6000000e+01 
7.5000000e-01 3.0000000e+00 4.6500000e+01 
7.5000000e-01 3.0000000e+00 4.7000000e+01 
7.5000000e-01 3.0000000e+00 4.7500000e+01 
7.5000000e-01 3.0000000e+00 4.8000000e+01 
7.5000000e-01 3.0000000e+00 4.8500000e+01 
7.5000000e-01 3.0000000e+00 4.9000000e+01 
7.5000000e-01 3.0000000e+00 4.9500000e+01 
7.5000000e-01 3.0250001e+00 0.0000000e+00 
7.5000000e-01 3.0250001e+00 5.0000000e-01 
7.5000000e-01 3.0250001e+00 1.0000000e+00 
7.5000000e-01 3.0250001e+00 1.5000000e+00 
7.5000000e-01 3.0250001e+00 2.0000000e+00 
7.5000000e-01 3.0250001e+00 2.5000000e+00 
7.5000000e-01 3.0250001e+00 3.0000000e+00 
7.5000000e-01 3.0250001e+00 3.5000000e+00 
7.5000000e-01 3.0250001e+00 4.0000000e+00 
7.5000000e-01 3.0250001e+00 4.5000000e+00 
7.5000000e-01 3.0250001e+00 5.0000000e+00 
7.5000000e-01 3.0250001e+00 5.5000000e+00 
7.5000000e-01 3.0250001e+00 6.0000000e+00 
7.5000000e-01 3.0250001e+00 6.5000000e+00 
7.5000000e-01 3.0250001e+00 7.0000000e+00 
7.5000000e-01 3.0250001e+00 7.5000000e+00 
7.5000000e-01 3.0250001e+00 8.0000000e+00 
7.5000000e-01 3.0250001e+00 8.5000000e+00 
7.5000000e-01 3.0250001e+00 9.0000000e+00 
7.5000000e-01 3.0250001e+00 9.5000000e+00 
7.5000000e-01 3.0250001e+00 1.0000000e+01 
7.5000000e-01 3.0250001e+00 1.0500000e+01 
7.5000000e-01 3.0250001e+00 1.1000000e+01 
7.5000000e-01 3.0250001e+00 1.1500000e+01 
7.5000000e-01 3.0250001e+00 1.2000000e+01 
7.5000000e-01 3.0250001e+00 1.2500000e+01 
7.5000000e-01 3.0250001e+00 1.3000000e+01 
7.5000000e-01 3.0250001e+00 1.3500000e+01 
7.5000000e-01 3.0250001e+00 1.4000000e+01 
7.5000000e-01 3.0250001e+00 1.4500000e+01 
7.5000000e-01 3.0250001e+00 1.5000000e+01 
7.5000000e-01 3.0250001e+00 1.5500000e+01 
7.5000000e-01 3.0250001e+00 1.6000000e+01 
7.5000000e-01 3.0250001e+00 1.6500000e+01 
7.5000000e-01 3.0250001e+00 1.7000000e+01 
7.5000000e-01 3.0250001e+00 1.7500000e+01 
7.5000000e-01 3.0250001e+00 1.8000000e+01 
7.5000000e-01 3.0250001e+00 1.8500000e+01 
7.5000000e-01 3.0250001e+00 1.9000000e+01 
7.5000000e-01 3.0250001e+00 1.9500000e+01 
7.5000000e-01 3.0250001e+00 2.0000000e+01 
7.5000000e-01 3.0250001e+00 2.0500000e+01 
7.5000000e-01 3.0250001e+00 2.1000000e+01 
7.5000000e-01 3.0250001e+00 2.1500000e+01 
7.5000000e-01 3.0250001e+00 2.2000000e+01 
7.5000000e-01 3.0250001e+00 2.2500000e+01 
7.5000000e-01 3.0250001e+00 2.3000000e+01 
7.5000000e-01 3.0250001e+00 2.3500000e+01 
7.5000000e-01 3.0250001e+00 2.4000000e+01 
7.5000000e-01 3.0250001e+00 2.4500000e+01 
7.5000000e-01 3.0250001e+00 2.5000000e+01 
7.5000000e-01 3.0250001e+00 2.5500000e+01 
7.5000000e-01 3.0250001e+00 2.6000000e+01 
7.5000000e-01 3.0250001e+00 2.6500000e+01 
7.5000000e-01 3.0250001e+00 2.7000000e+01 
7.5000000e-01 3.0250001e+00 2.7500000e+01 
7.5000000e-01 3.0250001e+00 2.8000000e+01 
7.5000000e-01 3.0250001e+00 2.8500000e+01 
7.5000000e-01 3.0250001e+00 2.9000000e+01 
7.5000000e-01 3.0250001e+00 2.9500000e+01 
7.5000000e-01 3.0250001e+00 3.0000000e+01 
7.5000000e-01 3.0250001e+00 3.0500000e+01 
7.5000000e-01 3.0250001e+00 3.1000000e+01 
7.5000000e-01 3.0250001e+00 3.1500000e+01 
7.5000000e-01 3.0250001e+00 3.2000000e+01 
7.5000000e-01 3.0250001e+00 3.2500000e+01 
7.5000000e-01 3.0250001e+00 3.3000000e+01 
7.5000000e-01 3.0250001e+00 3.3500000e+01 
7.5000000e-01 3.0250001e+00 3.4000000e+01 
7.5000000e-01 3.0250001e+00 3.4500000e+01 
7.5000000e-01 3.0250001e+00 3.5000000e+01 
7.5000000e-01 3.0250001e+00 3.5500000e+01 
7.5000000e-01 3.0250001e+00 3.6000000e+01 
7.5000000e-01 3.0250001e+00 3.6500000e+01 
7.5000000e-01 3.0250001e+00 3.7000000e+01 
7.5000000e-01 3.0250001e+00 3.7500000e+01 
7.5000000e-01 3.0250001e+00 3.8000000e+01 
7.5000000e-01 3.0250001e+00 3.8500000e+01 
7.5000000e-01 3.0250001e+00 3.9000000e+01 
7.5000000e-01 3.0250001e+00 3.9500000e+01 
7.5000000e-01 3.0250001e+00 4.0000000e+01 
7.5000000e-01 3.0250001e+00 4.0500000e+01 
7.5000000e-01 3.0250001e+00 4.1000000e+01 
7.5000000e-01 3.0250001e+00 4.1500000e+01 
7.5000000e-01 3.0250001e+00 4.2000000e+01 
7.5000000e-01 3.0250001e+00 4.2500000e+01 
7.5000000e-01 3.0250001e+00 4.3000000e+01 
7.5000000e-01 3.0250001e+00 4.3500000e+01 
7.5000000e-01 3.0250001e+00 4.4000000e+01 
7.5000000e-01 3.0250001e+00 4.4500000e+01 
7.5000000e-01 3.0250001e+00 4.5000000e+01 
7.5000000e-01 3.0250001e+00 4.5500000e+01 
7.5000000e-01 3.0250001e+00 4.6000000e+01 
7.5000000e-01 3.0250001e+00 4.6500000e+01 
7.5000000e-01 3.0250001e+00 4.7000000e+01 
7.5000000e-01 3.0250001e+00 4.7500000e+01 
7.5000000e-01 3.0250001e+00 4.8000000e+01 
7.5000000e-01 3.0250001e+00 4.8500000e+01 
7.5000000e-01 3.0250001e+00 4.9000000e+01 
7.5000000e-01 3.0250001e+00 4.9500000e+01 
7.5000000e-01 3.0250001e+00 5.0000000e+01 
7.5000000e-01 3.0250001e+00 3.5750000e+01 
3.0000000e+00 2.0000000e+00 3.6000000e+01 
8.0487806e-01 3.0000000e+00 3.6000000e+01 
0.0000000e+00 0.0000000e+00 1.0000000e+00 
0.0000000e+00 0.0000000e+00 2.0000000e+00 
0.0000000e+00 0.0000000e+00 3.0000000e+00 
0.0000000e+00 0.0000000e+00 4.0000000e+00 
0.0000000e+00 0.0000000e+00 5.0000000e+00 
0.0000000e+00 0.0000000e+00 6.0000000e+00 
0.0000000e+00 0.0000000e+00 7.0000000e+00 
[...]
POINT_DATA 1921
FIELD FieldData 3
DISPLACEMENT 3 1921  float
0.0000000e+00 0.0000000e+00 0.0000000e+00 
0.0000000e+00 0.0000000e+00 0.0000000e+00 
0.0000000e+00 0.0000000e+00 0.0000000e+00 
0.0000000e+00 0.0000000e+00 0.0000000e+00 
-1.8624002e-06 -3.7746506e-06 -1.9556981e-06 
2.3319279e-07 -4.0600435e-07 7.2577990e-07 
0.0000000e+00 2.7133643e-05 0.0000000e+00 
0.0000000e+00 3.6689312e-07 0.0000000e+00 
2.6093267e-06 -2.7627730e-06 -3.9783372e-06 
5.4672580e-07 -2.4553023e-07 1.2254812e-06 
2.7985966e-06 -6.3306666e-06 -7.2845774e-06 
2.3463576e-07 -5.3136790e-07 2.3993232e-06 
0.0000000e+00 3.6790825e-05 0.0000000e+00 
0.0000000e+00 1.3981178e-06 0.0000000e+00 
2.3937591e-05 7.6422511e-06 -6.0133829e-05 
-1.0693086e-06 1.1574745e-07 3.6067790e-06 
1.8248820e-05 9.3110575e-05 -5.3684184e-05 
2.6122302e-06 1.4201106e-05 1.6087003e-07 
0.0000000e+00 5.7433819e-05 0.0000000e+00 
0.0000000e+00 3.0781996e-06 0.0000000e+00 
2.7217300e-05 9.6763637e-05 -2.0753714e-05 
3.7593130e-05 1.0533561e-04 -2.1469066e-06 
3.7027909e-05 1.1672237e-04 2.0062553e-06 
3.0053950e-05 1.3180438e-04 2.1184919e-06 
2.5661682e-05 1.5038828e-04 -2.6154410e-06 
3.1511499e-05 1.6932000e-04 -1.4054837e-06 
4.0361308e-05 1.8220967e-04 1.3533509e-05 
3.8239003e-05 1.8144188e-04 1.4842842e-05 
3.4805351e-05 1.6976720e-04 8.0861801e-06 
4.2781994e-05 1.6283387e-04 1.3350272e-07 
3.4030105e-05 1.7988452e-04 -1.6438183e-06 
2.8673208e-05 2.3399020e-04 6.6335901e-06 
6.5571665e-05 3.0980856e-04 2.6682897e-05 
6.7500550e-05 3.6536160e-04 4.4184631e-05 
5.2173753e-05 3.6643175e-04 6.5795633e-05 
5.0489845e-05 2.9072800e-04 8.4277643e-05 
1.6776292e-05 1.2098210e-04 1.4846859e-04 
-1.0871095e-05 -1.7835248e-04 1.7995163e-04 
-4.4646185e-05 -6.9371215e-04 3.2432060e-04 
-1.0737055e-04 -1.5193984e-03 2.6052617e-04 
-1.7162212e-04 -2.6904317e-03 3.7727912e-04 
-2.9745995e-04 -4.0272819e-03 1.6582363e-04 
-3.5318953e-04 -5.0498522e-03 1.5385609e-04 
-3.7384286e-04 -5.1300768e-03 2.5747227e-05 
-3.2787412e-04 -4.8440006e-03 -5.9643153e-05 
-2.6994411e-04 -4.6853190e-03 -7.2495655e-05 
-2.7674090e-04 -4.8036212e-03 -6.9149864e-05 
-2.9063781e-04 -4.7421274e-03 -1.4084076e-04 
-2.5578786e-04 -3.9337743e-03 -2.8471980e-04 
-1.7814642e-04 -2.7399759e-03 -2.3579279e-04 
-1.0348755e-04 -1.6172942e-03 -3.2012205e-04 
-5.7244037e-05 -7.5140072e-04 -1.9208310e-04 
-1.6521288e-05 -1.9534156e-04 -1.7999858e-04 
-3.6278618e-06 9.8822376e-05 -9.1231217e-05 
1.9800784e-05 2.1213837e-04 -7.1462047e-05 
2.7542401e-05 2.2180661e-04 -6.0515635e-05 
1.6177992e-05 1.8395638e-04 -4.6428093e-05 
2.5804473e-05 1.2712806e-04 -4.4525714e-05 
4.1988380e-05 7.1537812e-05 -2.9763401e-05 
6.2469844e-05 3.4477420e-05 -1.1019933e-05 
5.7245648e-05 2.3022467e-05 2.4367122e-05 
5.2982687e-05 2.8051123e-05 3.2651547e-05 
2.5061991e-05 4.0006547e-05 8.2186061e-06 
2.8844333e-05 5.7946469e-05 -2.0293401e-05 
9.8727833e-06 9.1677604e-05 -5.8698184e-05 
1.8243400e-05 1.4978714e-04 -7.6276105e-05 
2.3743882e-05 2.1915672e-04 -7.6360702e-05 
3.3574797e-05 2.7328247e-04 -5.9040900e-05 
4.5437100e-05 2.9428295e-04 -4.9217186e-05 
5.4802866e-05 2.8469379e-04 -2.9140678e-05 
5.7309389e-05 2.7214171e-04 -3.3115375e-05 
6.4596672e-05 2.9438088e-04 -1.1458130e-05 
5.7293179e-05 3.6148026e-04 2.4947540e-05 
5.6766956e-05 4.4202854e-04 5.2726624e-05 
6.4319494e-05 4.7089596e-04 9.5942298e-05 
5.2084652e-05 3.8168789e-04 1.3249465e-04 
2.8590270e-05 1.4361096e-04 2.0275704e-04 
-3.3281933e-07 -2.6356863e-04 2.3549501e-04 
-4.0037514e-05 -8.8379061e-04 3.5177343e-04 
-1.1618115e-04 -1.7559055e-03 2.8059597e-04 
-1.6015997e-04 -2.9029150e-03 4.1717163e-04 
-2.7445942e-04 -4.1499031e-03 2.1718534e-04 
-3.2483487e-04 -5.0640134e-03 1.9772383e-04 
-3.4813659e-04 -5.0917068e-03 1.0520041e-04 
-3.5208577e-04 -4.8343767e-03 2.7679293e-05 
-3.5461565e-04 -4.7202692e-03 -3.4960998e-05 
-3.4344147e-04 -4.8435023e-03 -8.1950282e-05 
-3.3293525e-04 -4.7208015e-03 -1.5034457e-04 
-3.1063709e-04 -3.8446139e-03 -3.3046392e-04 
-3.5256766e-05 -2.6138325e-03 -4.7819313e-04 
-1.0320712e-04 -1.4630926e-03 -3.5600903e-04 
-6.2696468e-05 -6.2674435e-04 -2.7255341e-04 
-2.0198078e-05 -1.2444575e-04 -2.7547468e-04 
1.3212512e-05 1.2744358e-04 -1.7712708e-04 
3.9398874e-05 2.1916191e-04 -1.0702229e-04 
3.9276729e-05 2.1369917e-04 -3.3309610e-05 
3.5055531e-05 1.5096161e-04 1.7222723e-05 
1.9050185e-05 6.6492583e-05 2.9244064e-05 
2.5878062e-06 -7.4203672e-06 4.7791666e-05 
-2.9099132e-07 -5.3957821e-05 5.6216202e-05 
-8.9475373e-07 -7.0820577e-05 6.4768668e-05 
2.1127121e-06 -6.5825778e-05 5.5366818e-05 
-4.2060924e-06 -4.6578585e-05 2.9926963e-05 
-9.2327546e-06 -1.9774590e-05 7.9285601e-06 
-8.4166631e-06 9.3263161e-06 -1.9265302e-05 
-1.0033629e-05 3.3382166e-05 -3.9443476e-05 
1.3791937e-06 4.6562327e-05 -1.8803195e-05 
3.2104288e-06 4.5975816e-05 -4.4343205e-06 
4.1445114e-06 3.3925866e-05 8.0681866e-06 
2.5323345e-06 1.6734717e-05 9.5282003e-06 
2.0868333e-06 -1.4804441e-07 9.9217496e-06 
1.4874828e-06 -1.3449575e-05 4.9710561e-06 
1.5739320e-06 -2.1054388e-05 3.8154243e-07 
1.4444561e-07 -2.2396796e-05 -3.3997653e-06 
-9.9970146e-07 -1.7616743e-05 -3.1033069e-06 
-9.5707048e-07 -8.7603339e-06 -1.0424845e-06 
-3.4512389e-06 9.1150241e-07 -1.3621118e-06 
-2.7608899e-06 8.5064430e-06 -7.8723201e-07 
-1.3405898e-06 1.2856074e-05 -2.7357169e-07 
0.0000000e+00 9.3623756e-05 0.0000000e+00 
0.0000000e+00 9.6917101e-05 0.0000000e+00 
0.0000000e+00 1.0498838e-04 0.0000000e+00 
0.0000000e+00 1.1639165e-04 0.0000000e+00 
0.0000000e+00 1.3171317e-04 0.0000000e+00 
0.0000000e+00 1.5076660e-04 0.0000000e+00 
0.0000000e+00 1.6990994e-04 0.0000000e+00 
0.0000000e+00 1.8207575e-04 0.0000000e+00 
0.0000000e+00 1.8078538e-04 0.0000000e+00 
0.0000000e+00 1.6919253e-04 0.0000000e+00 
0.0000000e+00 1.6265480e-04 0.0000000e+00 
0.0000000e+00 1.8126240e-04 0.0000000e+00 
0.0000000e+00 2.3589845e-04 0.0000000e+00 
0.0000000e+00 3.1024835e-04 0.0000000e+00 
0.0000000e+00 3.6507507e-04 0.0000000e+00 
0.0000000e+00 3.6569627e-04 0.0000000e+00 
0.0000000e+00 2.9108219e-04 0.0000000e+00 
0.0000000e+00 1.2337803e-04 0.0000000e+00 
0.0000000e+00 -1.7752308e-04 0.0000000e+00 
0.0000000e+00 -6.9592422e-04 0.0000000e+00 
0.0000000e+00 -1.5292939e-03 0.0000000e+00 
0.0000000e+00 -2.7066050e-03 0.0000000e+00 
0.0000000e+00 -4.0557971e-03 0.0000000e+00 
0.0000000e+00 -5.0693043e-03 0.0000000e+00 
0.0000000e+00 -5.1566414e-03 0.0000000e+00 
0.0000000e+00 -4.8627686e-03 0.0000000e+00 
0.0000000e+00 -4.7158492e-03 0.0000000e+00 
0.0000000e+00 -4.8295809e-03 0.0000000e+00 
0.0000000e+00 -4.7710482e-03 0.0000000e+00 
0.0000000e+00 -3.9509409e-03 0.0000000e+00 
0.0000000e+00 -2.7546815e-03 0.0000000e+00 
0.0000000e+00 -1.6245317e-03 0.0000000e+00 
0.0000000e+00 -7.5621228e-04 0.0000000e+00 
0.0000000e+00 -1.9638211e-04 0.0000000e+00 
0.0000000e+00 9.9787481e-05 0.0000000e+00 
0.0000000e+00 2.1354240e-04 0.0000000e+00 
0.0000000e+00 2.2310813e-04 0.0000000e+00 
0.0000000e+00 1.8419842e-04 0.0000000e+00 
0.0000000e+00 1.2726689e-04 0.0000000e+00 
0.0000000e+00 7.2235147e-05 0.0000000e+00 
0.0000000e+00 3.5479155e-05 0.0000000e+00 
0.0000000e+00 2.3298669e-05 0.0000000e+00 
0.0000000e+00 2.7807037e-05 0.0000000e+00 
0.0000000e+00 3.9412847e-05 0.0000000e+00 
0.0000000e+00 5.7864774e-05 0.0000000e+00 
0.0000000e+00 9.2729897e-05 0.0000000e+00 
0.0000000e+00 1.5061839e-04 0.0000000e+00 
0.0000000e+00 2.1909001e-04 0.0000000e+00 
0.0000000e+00 2.7260205e-04 0.0000000e+00 
0.0000000e+00 2.9315255e-04 0.0000000e+00 
0.0000000e+00 2.8410417e-04 0.0000000e+00 
0.0000000e+00 2.7312589e-04 0.0000000e+00 
0.0000000e+00 2.9618808e-04 0.0000000e+00 
0.0000000e+00 3.6368700e-04 0.0000000e+00 
0.0000000e+00 4.4296865e-04 0.0000000e+00 
0.0000000e+00 4.6963620e-04 0.0000000e+00 
0.0000000e+00 3.8096533e-04 0.0000000e+00 
0.0000000e+00 1.4387618e-04 0.0000000e+00 
0.0000000e+00 -2.6428132e-04 0.0000000e+00 
0.0000000e+00 -8.8448176e-04 0.0000000e+00 
0.0000000e+00 -1.7651579e-03 0.0000000e+00 
0.0000000e+00 -2.9170290e-03 0.0000000e+00 
0.0000000e+00 -4.1784318e-03 0.0000000e+00 
0.0000000e+00 -5.0861449e-03 0.0000000e+00 
0.0000000e+00 -5.1212255e-03 0.0000000e+00 
0.0000000e+00 -4.8524318e-03 0.0000000e+00 
0.0000000e+00 -4.7491719e-03 0.0000000e+00 
0.0000000e+00 -4.8661996e-03 0.0000000e+00 
0.0000000e+00 -4.7510178e-03 0.0000000e+00 
0.0000000e+00 -3.8629109e-03 0.0000000e+00 
0.0000000e+00 -2.6246174e-03 0.0000000e+00 
0.0000000e+00 -1.4731183e-03 0.0000000e+00 
0.0000000e+00 -6.3065218e-04 0.0000000e+00 
0.0000000e+00 -1.2441385e-04 0.0000000e+00 
0.0000000e+00 1.2884803e-04 0.0000000e+00 
0.0000000e+00 2.2010820e-04 0.0000000e+00 
0.0000000e+00 2.1392804e-04 0.0000000e+00 
0.0000000e+00 1.5139081e-04 0.0000000e+00 
0.0000000e+00 6.7493100e-05 0.0000000e+00 
0.0000000e+00 -6.7469182e-06 0.0000000e+00 
0.0000000e+00 -5.3684671e-05 0.0000000e+00 
0.0000000e+00 -7.0944239e-05 0.0000000e+00 
0.0000000e+00 -6.5832312e-05 0.0000000e+00 
0.0000000e+00 -4.6563375e-05 0.0000000e+00 
0.0000000e+00 -1.9660714e-05 0.0000000e+00 
0.0000000e+00 9.2028540e-06 0.0000000e+00 
0.0000000e+00 3.3194228e-05 0.0000000e+00 
0.0000000e+00 4.6318895e-05 0.0000000e+00 
0.0000000e+00 4.5824116e-05 0.0000000e+00 
0.0000000e+00 3.4006640e-05 0.0000000e+00 
0.0000000e+00 1.6850732e-05 0.0000000e+00 
0.0000000e+00 -1.0030637e-07 0.0000000e+00 
0.0000000e+00 -1.3374098e-05 0.0000000e+00 
0.0000000e+00 -2.1013375e-05 0.0000000e+00 
0.0000000e+00 -2.2314229e-05 0.0000000e+00 
0.0000000e+00 -1.7578968e-05 0.0000000e+00 
0.0000000e+00 -8.7981016e-06 0.0000000e+00 
0.0000000e+00 8.2603646e-07 0.0000000e+00 
0.0000000e+00 8.4498106e-06 0.0000000e+00 
0.0000000e+00 1.2862516e-05 0.0000000e+00 
0.0000000e+00 1.4227374e-05 0.0000000e+00 
0.0000000e+00 -1.0050656e-03 0.0000000e+00 
1.7509363e-05 -1.1810332e-05 -2.8511733e-05 
-6.5950582e-05 -5.8165926e-04 -2.8519618e-04 
0.0000000e+00 0.0000000e+00 0.0000000e+00 
0.0000000e+00 0.0000000e+00 0.0000000e+00 
0.0000000e+00 0.0000000e+00 0.0000000e+00 
0.0000000e+00 0.0000000e+00 0.0000000e+00 
0.0000000e+00 0.0000000e+00 0.0000000e+00 
0.0000000e+00 0.0000000e+00 0.0000000e+00 
0.0000000e+00 0.0000000e+00 0.0000000e+00 
0.0000000e+00 0.0000000e+00 0.0000000e+00 
0.0000000e+00 0.0000000e+00 0.0000000e+00 
0.0000000e+00 0.0000000e+00 0.0000000e+00 
0.0000000e+00 0.0000000e+00 0.0000000e+00 
0.0000000e+00 0.0000000e+00 0.0000000e+00 
0.0000000e+00 0.0000000e+00 0.0000000e+00 
0.0000000e+00 0.0000000e+00 0.0000000e+00 
0.0000000e+00 0.0000000e+00 0.0000000e+00 
0.0000000e+00 0.0000000e+00 0.0000000e+00 
0.0000000e+00 0.0000000e+00 0.0000000e+00 
0.0000000e+00 0.0000000e+00 0.0000000e+00 
0.0000000e+00 0.0000000e+00 0.0000000e+00 
0.0000000e+00 0.0000000e+00 0.0000000e+00 
0.0000000e+00 0.0000000e+00 0.0000000e+00 
0.0000000e+00 0.0000000e+00 0.0000000e+00 
0.0000000e+00 0.0000000e+00 0.0000000e+00 
0.0000000e+00 0.0000000e+00 0.0000000e+00 
0.0000000e+00 0.0000000e+00 0.0000000e+00 
0.0000000e+00 0.0000000e+00 0.0000000e+00 
0.0000000e+00 0.0000000e+00 0.0000000e+00 
0.0000000e+00 0.0000000e+00 0.0000000e+00 
0.0000000e+00 0.0000000e+00 0.0000000e+00 
0.0000000e+00 0.0000000e+00 0.0000000e+00 
0.0000000e+00 0.0000000e+00 0.0000000e+00 
0.0000000e+00 0.0000000e+00 0.0000000e+00 
0.0000000e+00 0.0000000e+00 0.0000000e+00 
0.0000000e+00 0.0000000e+00 0.0000000e+00 
0.0000000e+00 0.0000000e+00 0.0000000e+00 
0.0000000e+00 0.0000000e+00 0.0000000e+00 
0.0000000e+00 0.0000000e+00 0.0000000e+00 
0.0000000e+00 0.0000000e+00 0.0000000e+00 
0.0000000e+00 0.0000000e+00 0.0000000e+00 
0.0000000e+00 0.0000000e+00 0.0000000e+00 
0.0000000e+00 0.0000000e+00 0.0000000e+00 
0.0000000e+00 0.0000000e+00 0.0000000e+00 
0.0000000e+00 0.0000000e+00 0.0000000e+00 
0.0000000e+00 0.0000000e+00 0.0000000e+00 
0.0000000e+00 0.0000000e+00 0.0000000e+00 
0.0000000e+00 0.0000000e+00 0.0000000e+00 
0.0000000e+00 0.0000000e+00 0.0000000e+00 
0.0000000e+00 0.0000000e+00 0.0000000e+00 
0.0000000e+00 0.0000000e+00 0.0000000e+00 
0.0000000e+00 0.0000000e+00 0.0000000e+00 
0.0000000e+00 0.0000000e+00 0.0000000e+00 
0.0000000e+00 0.0000000e+00 0.0000000e+00 
0.0000000e+00 0.0000000e+00 0.0000000e+00 
0.0000000e+00 0.0000000e+00 0.0000000e+00 
0.0000000e+00 0.0000000e+00 0.0000000e+00 
0.0000000e+00 0.0000000e+00 0.0000000e+00 
0.0000000e+00 0.0000000e+00 0.0000000e+00 
0.0000000e+00 0.0000000e+00 0.0000000e+00 
0.0000000e+00 0.0000000e+00 0.0000000e+00 
0.0000000e+00 0.0000000e+00 0.0000000e+00 
0.0000000e+00 0.0000000e+00 0.0000000e+00 
0.0000000e+00 0.0000000e+00 0.0000000e+00 
0.0000000e+00 0.0000000e+00 0.0000000e+00 
0.0000000e+00 0.0000000e+00 0.0000000e+00 
0.0000000e+00 0.0000000e+00 0.0000000e+00 
0.0000000e+00 0.0000000e+00 0.0000000e+00 
0.0000000e+00 0.0000000e+00 0.0000000e+00 
0.0000000e+00 0.0000000e+00 0.0000000e+00 
0.0000000e+00 0.0000000e+00 0.0000000e+00 
0.0000000e+00 0.0000000e+00 0.0000000e+00 
0.0000000e+00 0.0000000e+00 0.0000000e+00 
0.0000000e+00 0.0000000e+00 0.0000000e+00 
0.0000000e+00 0.0000000e+00 0.0000000e+00 
0.0000000e+00 0.0000000e+00 0.0000000e+00 
0.0000000e+00 0.0000000e+00 0.0000000e+00 
0.0000000e+00 0.0000000e+00 0.0000000e+00 
0.0000000e+00 0.0000000e+00 0.0000000e+00 
0.0000000e+00 0.0000000e+00 0.0000000e+00 
0.0000000e+00 0.0000000e+00 0.0000000e+00 
0.0000000e+00 0.0000000e+00 0.0000000e+00 
0.0000000e+00 0.0000000e+00 0.0000000e+00 
0.0000000e+00 0.0000000e+00 0.0000000e+00 
0.0000000e+00 0.0000000e+00 0.0000000e+00 
0.0000000e+00 0.0000000e+00 0.0000000e+00 
0.0000000e+00 0.0000000e+00 0.0000000e+00 
0.0000000e+00 0.0000000e+00 0.0000000e+00 
0.0000000e+00 0.0000000e+00 0.0000000e+00 
0.0000000e+00 0.0000000e+00 0.0000000e+00 
0.0000000e+00 0.0000000e+00 0.0000000e+00 
0.0000000e+00 0.0000000e+00 0.0000000e+00 
0.0000000e+00 0.0000000e+00 0.0000000e+00 
0.0000000e+00 0.0000000e+00 0.0000000e+00 
0.0000000e+00 0.0000000e+00 0.0000000e+00 
0.0000000e+00 0.0000000e+00 0.0000000e+00 
0.0000000e+00 0.0000000e+00 0.0000000e+00 
0.0000000e+00 0.0000000e+00 0.0000000e+00 
0.0000000e+00 0.0000000e+00 0.0000000e+00 
0.0000000e+00 0.0000000e+00 0.0000000e+00 
0.0000000e+00 0.0000000e+00 0.0000000e+00 
0.0000000e+00 0.0000000e+00 0.0000000e+00 
0.0000000e+00 0.0000000e+00 0.0000000e+00 
0.0000000e+00 0.0000000e+00 0.0000000e+00 
0.0000000e+00 0.0000000e+00 0.0000000e+00 
0.0000000e+00 0.0000000e+00 0.0000000e+00 
0.0000000e+00 0.0000000e+00 0.0000000e+00 
0.0000000e+00 0.0000000e+00 0.0000000e+00 
1.2284291e-06 -1.6633883e-06 -1.3100275e-06 
-1.4298566e-06 1.0015599e-06 4.2848869e-06 
-2.3167379e-06 1.0496403e-06 -3.5509188e-07 
-2.1671575e-07 2.9144026e-06 -2.9744222e-06 
1.3349141e-06 1.2777142e-06 -4.1912863e-06 
5.3497120e-06 2.6407361e-06 -4.4896506e-06 
5.8595815e-06 -9.2389782e-06 -1.4620561e-05 
1.6236741e-05 -3.0167960e-06 -2.0326857e-05 
2.9149305e-05 -8.5190877e-06 -1.8709145e-05 
4.2017171e-05 -1.6347725e-05 -1.6351798e-05 
4.7527552e-05 -1.4798996e-05 -9.9236677e-06 
5.3085743e-05 -1.4505878e-05 -2.8865707e-06 
4.5269961e-05 -1.3094071e-05 5.5654828e-06 
3.7058959e-05 -8.4918029e-06 7.4836289e-06 
2.3892158e-05 -8.8436718e-06 6.8961808e-06 
1.6115995e-05 -4.0610043e-06 7.5158828e-06 
1.1811695e-05 -2.0805993e-07 6.9502612e-06 
8.8324105e-06 3.5677174e-06 5.9847516e-06 
1.5135696e-06 -1.6189503e-06 6.1484739e-06 
-1.8468019e-06 -1.3715770e-06 1.7301603e-06 
6.6404777e-07 -7.4625063e-06 -1.3145045e-06 
3.2392400e-06 -2.8124805e-06 2.2492065e-06 
1.4735274e-06 3.4529146e-06 7.3996748e-06 
-7.0312274e-07 2.9112907e-06 5.2516220e-06 
-2.5429154e-06 -2.1527476e-06 -5.5523191e-07 
2.9482455e-06 3.9070524e-06 -5.3712092e-06 
7.8338144e-06 -1.1202338e-05 -6.9127209e-06 
1.5860416e-05 -3.9386191e-06 -7.4983582e-06 
2.8118187e-05 -2.9580572e-06 -9.3354502e-06 
4.0225128e-05 -1.6126098e-05 -5.2836153e-06 
4.8095222e-05 -2.2084638e-05 -6.3207412e-06 
5.0866343e-05 -1.9404604e-05 -5.3811091e-06 
4.8274389e-05 -1.9010351e-05 1.9191141e-06 
4.0563107e-05 -1.3345498e-05 6.9974071e-06 
2.7383645e-05 -7.4492650e-06 8.0843101e-06 
1.1934846e-05 2.3590503e-06 6.6838229e-06 
1.9342649e-06 3.7497289e-06 5.0488538e-06 
-1.5755746e-06 1.9961631e-06 1.9818635e-06 
-3.0583502e-07 -7.5924873e-07 1.8159659e-06 
2.9393393e-06 -3.1549982e-06 3.6862737e-06 
5.2661362e-06 -4.0185810e-06 5.4525849e-06 
3.8514636e-06 -1.5706828e-06 6.1729779e-06 
6.6824055e-07 1.6308104e-06 3.2519245e-06 
-9.3454150e-07 9.2249542e-07 -1.9119997e-07 
-2.0940017e-06 -2.4495841e-07 -1.9936799e-06 
-1.3631765e-06 -2.8380461e-07 -2.2741574e-06 
3.9647880e-08 3.4841642e-07 -1.6513438e-06 
3.2888008e-07 3.0345115e-07 -5.7714786e-08 
-3.6761875e-08 1.9948612e-07 8.4212974e-07 
0.0000000e+00 5.4360012e-06 0.0000000e+00 
0.0000000e+00 -1.0526655e-05 0.0000000e+00 
0.0000000e+00 2.1046562e-05 0.0000000e+00 
0.0000000e+00 1.5705611e-05 0.0000000e+00 
0.0000000e+00 -6.2873100e-06 0.0000000e+00 
0.0000000e+00 6.1338505e-05 0.0000000e+00 
0.0000000e+00 6.9437338e-05 0.0000000e+00 
0.0000000e+00 5.9313484e-06 0.0000000e+00 
0.0000000e+00 -8.0844629e-06 0.0000000e+00 
0.0000000e+00 -1.8753803e-04 0.0000000e+00 
0.0000000e+00 -4.5425337e-04 0.0000000e+00 
0.0000000e+00 -5.3317216e-04 0.0000000e+00 
0.0000000e+00 -5.7349209e-04 0.0000000e+00 
0.0000000e+00 -4.9626967e-04 0.0000000e+00 
0.0000000e+00 -2.9765765e-04 0.0000000e+00 
0.0000000e+00 -1.5695237e-04 0.0000000e+00 
0.0000000e+00 -5.6956116e-05 0.0000000e+00 
0.0000000e+00 -5.5378485e-05 0.0000000e+00 
0.0000000e+00 -7.5298056e-05 0.0000000e+00 
0.0000000e+00 -1.0627165e-04 0.0000000e+00 
0.0000000e+00 -1.0669947e-04 0.0000000e+00 
0.0000000e+00 -1.0328205e-04 0.0000000e+00 
0.0000000e+00 -2.4589437e-05 0.0000000e+00 
0.0000000e+00 -2.0322702e-06 0.0000000e+00 
0.0000000e+00 2.1804370e-05 0.0000000e+00 
0.0000000e+00 2.9389445e-05 0.0000000e+00 
0.0000000e+00 9.4964467e-05 0.0000000e+00 
0.0000000e+00 5.0030660e-05 0.0000000e+00 
0.0000000e+00 -9.5837240e-06 0.0000000e+00 
0.0000000e+00 -1.8219632e-04 0.0000000e+00 
0.0000000e+00 -4.1620887e-04 0.0000000e+00 
0.0000000e+00 -5.7941157e-04 0.0000000e+00 
0.0000000e+00 -5.5237074e-04 0.0000000e+00 
0.0000000e+00 -5.3064199e-04 0.0000000e+00 
0.0000000e+00 -3.0329541e-04 0.0000000e+00 
0.0000000e+00 -9.8688455e-05 0.0000000e+00 
0.0000000e+00 1.1669019e-05 0.0000000e+00 
0.0000000e+00 3.3380315e-05 0.0000000e+00 
0.0000000e+00 1.2551731e-05 0.0000000e+00 
0.0000000e+00 -8.3637833e-06 0.0000000e+00 
0.0000000e+00 -1.8650506e-05 0.0000000e+00 
0.0000000e+00 -6.2830213e-06 0.0000000e+00 
0.0000000e+00 6.7846163e-06 0.0000000e+00 
0.0000000e+00 1.1876326e-05 0.0000000e+00 
0.0000000e+00 5.1902575e-06 0.0000000e+00 
0.0000000e+00 -4.5809238e-06 0.0000000e+00 
0.0000000e+00 -5.4075522e-06 0.0000000e+00 
0.0000000e+00 3.8918995e-07 0.0000000e+00 
0.0000000e+00 1.9185381e-06 0.0000000e+00 
3.4701388e-06 -2.8063007e-06 -2.7610731e-06 
-3.4251273e-06 2.7867677e-06 1.0362680e-06 
-3.1089744e-06 1.1178279e-05 4.7349172e-06 
-2.6067573e-06 1.9458665e-05 2.8859347e-06 
2.4121517e-08 -2.8782392e-07 1.2021626e-06 
-3.0529407e-08 -1.5170224e-07 1.0526007e-06 
-3.4097472e-08 -2.1112193e-08 2.6536415e-07 
-1.7535618e-07 1.4834721e-07 -4.6317493e-07 
1.9167039e-06 -4.7284602e-06 -5.2768632e-07 
1.4996666e-06 2.4762099e-07 -1.1923844e-06 
2.5860578e-07 -1.7676458e-06 -2.0284647e-06 
-3.2761795e-06 -1.8744396e-06 9.1060082e-07 
6.4453593e-06 9.1470002e-07 -2.1920680e-06 
1.1142536e-05 -3.0143070e-07 -1.0078040e-05 
1.3194684e-05 -1.6882379e-05 -1.6342823e-05 
2.5370748e-05 -1.4201702e-06 -2.2355467e-05 
4.1337651e-05 -1.4060754e-05 -2.3909561e-05 
5.2563923e-05 -1.3213671e-05 -2.0614629e-05 
5.1375835e-05 -1.0123843e-05 -6.4062824e-06 
4.4473607e-05 -1.2454371e-05 -6.3710974e-07 
4.1844851e-05 -7.6552014e-06 6.2416912e-06 
3.3950953e-05 -1.2992026e-06 5.4418078e-06 
1.9103205e-05 -4.1202775e-06 5.6749582e-06 
9.3057306e-06 -4.4422973e-06 4.1250901e-06 
8.6956761e-06 3.4439756e-07 2.5731097e-06 
7.4655945e-06 7.3211049e-06 5.7717907e-06 
3.0846186e-07 -2.3306029e-07 1.1036901e-05 
-1.0108261e-05 -1.0459854e-06 9.6518970e-06 