# vtk DataFile Version 4.0
vtk output
ASCII
DATASET UNSTRUCTURED_GRID
POINTS 1921 float
0.0000000e+00 0.0000000e+00 0.0000000e+00 
0.0000000e+00 0.0000000e+00 5.0000000e+01 
5.0000000e+00 0.0000000e+00 0.0000000e+00 
5.0000000e+00 0.0000000e+00 5.0000000e+01 
5.0000000e+00 1.0000000e+00 0.0000000e+00 
5.0000000e+00 1.0000000e+00 5.0000000e+01 
0.0000000e+00 1.0000000e+00 0.0000000e+00 
0.0000000e+00 1.0000000e+00 5.0000000e+01 
5.0000000e+00 2.0000000e+00 0.0000000e+00 
5.0000000e+00 2.0000000e+00 5.0000000e+01 
3.0000000e+00 2.0000000e+00 0.0000000e+00 
3.0000000e+00 2.0000000e+00 5.0000000e+01 
0.0000000e+00 2.0000000e+00 0.0000000e+00 
0.0000000e+00 2.0000000e+00 5.0000000e+01 
1.5000000e+00 3.0000000e+00 0.0000000e+00 
1.5000000e+00 3.0000000e+00 5.0000000e+01 
7.5000000e-01 3.0000000e+00 0.0000000e+00 
7.5000000e-01 3.0000000e+00 5.0000000e+01 
0.0000000e+00 3.0000000e+00 0.0000000e+00 
0.0000000e+00 3.0000000e+00 5.0000000e+01 
7.5000000e-01 3.0000000e+00 5.0000000e-01 
7.5000000e-01 3.0000000e+00 1.0000000e+00 
7.5000000e-01 3.0000000e+00 1.5000000e+00 
7.5000000e-01 3.0000000e+00 2.0000000e+00 
7.5000000e-01 3.0000000e+00 2.5000000e+00 
7.5000000e-01 3.0000000e+00 3.0000000e+00 
7.5000000e-01 3.0000000e+00 3.5000000e+00 
7.5000000e-01 3.0000000e+00 4.0000000e+00 
7.5000000e-01 3.0000000e+00 4.5000000e+00 
7.5000000e-01 3.0000000e+00 5.0000000e+00 
7.5000000e-01 3.0000000e+00 5.5000000e+00 
7.5000000e-01 3.0000000e+00 6.0000000e+00 
7.5000000e-01 3.0000000e+00 6.5000000e+00 
7.5000000e-01 3.0000000e+00 7.0000000e+00 
7.5000000e-01 3.0000000e+00 7.5000000e+00 
7.5000000e-01 3.0000000e+00 8.0000000e+00 
7.5000000e-01 3.0000000e+00 8.5000000e+00 
7.5000000e-01 3.0000000e+00 9.0000000e+00 
7.5000000e-01 3.0000000e+00 9.5000000e+00 
7.5000000e-01 3.0000000e+00 1.0000000e+01 
7.5000000e-01 3.0000000e+00 1.0500000e+01 
7.5000000e-01 3.0000000e+00 1.1000000e+01 
7.5000000e-01 3.0000000e+00 1.1500000e+01 
7.5000000e-01 3.0000000e+00 1.2000000e+01 
7.5000000e-01 3.0000000e+00 1.2500000e+01 
7.5000000e-01 3.0000000e+00 1.3000000e+01 
7.5000000e-01 3.0000000e+00 1.3500000e+01 
7.5000000e-01 3.0000000e+00 1.4000000e+01 
7.5000000e-01 3.0000000e+00 1.4500000e+01 
7.5000000e-01 3.0000000e+00 1.5000000e+01 
7.5000000e-01 3.0000000e+00 1.5500000e+01 
7.5000000e-01 3.0000000e+00 1.6000000e+01 
7.5000000e-01 3.0000000e+00 1.6500000e+01 
7.5000000e-01 3.0000000e+00 1.7000000e+01 
7.5000000e-01 3.0000000e+00 1.7500000e+01 
7.5000000e-01 3.0000000e+00 1.8000000e+01 
7.5000000e-01 3.0000000e+00 1.8500000e+01 
7.5000000e-01 3.0000000e+00 1.9000000e+01 
7.5000000e-01 3.0000000e+00 1.9500000e+01 
7.5000000e-01 3.0000000e+00 2.0000000e+01 
7.5000000e-01 3.0000000e+00 2.0500000e+01 
7.5000000e-01 3.0000000e+00 2.1000000e+01 
7.5000000e-01 3.0000000e+00 2.1500000e+01 
7.5000000e-01 3.0000000e+00 2.2000000e+01 
7.5000000e-01 3.0000000e+00 2.2500000e+01 
7.5000000e-01 3.0000000e+00 2.3000000e+01 
7.5000000e-01 3.0000000e+00 2.3500000e+01 
7.5000000e-01 3.0000000e+00 2.4000000e+01 
7.5000000e-01 3.0000000e+00 2.4500000e+01 
7.5000000e-01 3.0000000e+00 2.5000000e+01 
7.5000000e-01 3.0000000e+00 2.5500000e+01 
7.5000000e-01 3.0000000e+00 2.6000000e+01 
7.5000000e-01 3.0000000e+00 2.6500000e+01 
7.5000000e-01 3.0000000e+00 2.7000000e+01 
7.5000000e-01 3.0000000e+00 2.7500000e+01 
7.5000000e-01 3.0000000e+00 2.8000000e+01 
7.5000000e-01 3.0000000e+00 2.8500000e+01 
7.5000000e-01 3.0000000e+00 2.9000000e+01 
7.5000000e-01 3.0000000e+00 2.9500000e+01 
7.5000000e-01 3.0000000e+00 3.0000000e+01 
7.5000000e-01 3.0000000e+00 3.0500000e+01 
7.5000000e-01 3.0000000e+00 3.1000000e+01 
7.5000000e-01 3.0000000e+00 3.1500000e+01 
7.5000000e-01 3.0000000e+00 3.2000000e+01 
7.5000000e-01 3.0000000e+00 3.2500000e+01 
7.5000000e-01 3.0000000e+00 3.3000000e+01 
7.5000000e-01 3.0000000e+00 3.3500000e+01 
7.5000000e-01 3.0000000e+00 3.4000000e+01 
7.5000000e-01 3.0000000e+00 3.4500000e+01 
7.5000000e-01 3.0000000e+00 3.5000000e+01 
7.5000000e-01 3.0000000e+00 3.5500000e+01 
7.5000000e-01 3.0000000e+00 3.6000000e+01 
7.5000000e-01 3.0000000e+00 3.6500000e+01 
7.5000000e-01 3.0000000e+00 3.7000000e+01 
7.5000000e-01 3.0000000e+00 3.7500000e+01 
7.5000000e-01 3.0000000e+00 3.8000000e+01 
7.5000000e-01 3.0000000e+00 3.8500000e+01 
7.5000000e-01 3.0000000e+00 3.9000000e+01 
7.5000000e-01 3.0000000e+00 3.9500000e+01 
7.5000000e-01 3.0000000e+00 4.0000000e+01 
7.5000000e-01 3.0000000e+00 4.0500000e+01 
7.5000000e-01 3.0000000e+00 4.1000000e+01 
7.5000000e-01 3.0000000e+00 4.1500000e+01 
7.5000000e-01 3.0000000e+00 4.2000000e+01 
7.5000000e-01 3.0000000e+00 4.2500000e+01 
7.5000000e-01 3.0000000e+00 4.3000000e+01 
7.5000000e-01 3.0000000e+00 4.3500000e+01 
7.5000000e-01 3.0000000e+00 4.4000000e+01 
7.5000000e-01 3.0000000e+00 4.4500000e+01 
7.5000000e-01 3.0000000e+00 4.5000000e+01 
7.5000000e-01 3.0000000e+00 4.5500000e+01 
7.5000000e-01 3.0000000e+00 4.6000000e+01 
7.5000000e-01 3.0000000e+00 4.6500000e+01 
7.5000000e-01 3.0000000e+00 4.7000000e+01 
7.5000000e-01 3.0000000e+00 4.7500000e+01 
7.5000000e-01 3.0000000e+00 4.8000000e+01 
7.5000000e-01 3.0000000e+00 4.8500000e+01 
7.5000000e-01 3.0000000e+00 4.9000000e+01 
7.5000000e-01 3.0000000e+00 4.9500000e+01 
7.5000000e-01 3.0250001e+00 0.0000000e+00 
7.5000000e-01 3.0250001e+00 5.0000000e-01 
7.5000000e-01 3.0250001e+00 1.0000000e+00 
7.5000000e-01 3.0250001e+00 1.5000000e+00 
7.5000000e-01 3.0250001e+00 2.0000000e+00 
7.5000000e-01 3.0250001e+00 2.5000000e+00 
7.5000000e-01 3.0250001e+00 3.0000000e+00 
7.5000000e-01 3.0250001e+00 3.5000000e+00 
7.5000000e-01 3.0250001e+00 4.0000000e+00 
7.5000000e-01 3.0250001e+00 4.5000000e+00 
7.5000000e-01 3.0250001e+00 5.0000000e+00 
7.5000000e-01 3.0250001e+00 5.5000000e+00 
7.5000000e-01 3.0250001e+00 6.0000000e+00 
7.5000000e-01 3.0250001e+00 6.5000000e+00 
7.5000000e-01 3.0250001e+00 7.0000000e+00 
7.5000000e-01 3.0250001e+00 7.5000000e+00 
7.5000000e-01 3.0250001e+00 8.0000000e+00 
7.5000000e-01 3.0250001e+00 8.5000000e+00 
7.5000000e-01 3.0250001e+00 9.0000000e+00 
7.5000000e-01 3.0250001e+00 9.5000000e+00 
7.5000000e-01 3.0250001e+00 1.0000000e+01 
7.5000000e-01 3.0250001e+00 1.0500000e+01 
7.5000000e-01 3.0250001e+00 1.1000000e+01 
7.5000000e-01 3.0250001e+00 1.1500000e+01 
7.5000000e-01 3.0250001e+00 1.2000000e+01 
7.5000000e-01 3.0250001e+00 1.2500000e+01 
7.5000000e-01 3.0250001e+00 1.3000000e+01 
7.5000000e-01 3.0250001e+00 1.3500000e+01 
7.5000000e-01 3.0250001e+00 1.4000000e+01 
7.5000000e-01 3.0250001e+00 1.4500000e+01 
7.5000000e-01 3.0250001e+00 1.5000000e+01 
7.5000000e-01 3.0250001e+00 1.5500000e+01 
7.5000000e-01 3.0250001e+00 1.6000000e+01 
7.5000000e-01 3.0250001e+00 1.6500000e+01 
7.5000000e-01 3.0250001e+00 1.7000000e+01 
7.5000000e-01 3.0250001e+00 1.7500000e+01 
7.5000000e-01 3.0250001e+00 1.8000000e+01 
7.5000000e-01 3.0250001e+00 1.8500000e+01 
7.5000000e-01 3.0250001e+00 1.9000000e+01 
7.5000000e-01 3.0250001e+00 1.9500000e+01 
7.5000000e-01 3.0250001e+00 2.0000000e+01 
7.5000000e-01 3.0250001e+00 2.0500000e+01 
7.5000000e-01 3.0250001e+00 2.1000000e+01 
7.5000000e-01 3.0250001e+00 2.1500000e+01 
7.5000000e-01 3.0250001e+00 2.2000000e+01 
7.5000000e-01 3.0250001e+00 2.2500000e+01 
7.5000000e-01 3.0250001e+00 2.3000000e+01 
7.5000000e-01 3.0250001e+00 2.3500000e+01 
7.5000000e-01 3.0250001e+00 2.4000000e+01 
7.5000000e-01 3.0250001e+00 2.4500000e+01 
7.5000000e-01 3.0250001e+00 2.5000000e+01 
7.5000000e-01 3.0250001e+00 2.5500000e+01 
7.5000000e-01 3.0250001e+00 2.6000000e+01 
7.5000000e-01 3.0250001e+00 2.6500000e+01 
7.5000000e-01 3.0250001e+00 2.7000000e+01 
7.5000000e-01 3.0250001e+00 2.7500000e+01 
7.5000000e-01 3.0250001e+00 2.8000000e+01 
7.5000000e-01 3.0250001e+00 2.8500000e+01 
7.5000000e-01 3.0250001e+00 2.9000000e+01 
7.5000000e-01 3.0250001e+00 2.9500000e+01 
7.5000000e-01 3.0250001e+00 3.0000000e+01 
7.5000000e-01 3.0250001e+00 3.0500000e+01 
7.5000000e-01 3.0250001e+00 3.1000000e+01 
7.5000000e-01 3.0250001e+00 3.1500000e+01 
7.5000000e-01 3.0250001e+00 3.2000000e+01 
7.5000000e-01 3.0250001e+00 3.2500000e+01 
7.5000000e-01 3.0250001e+00 3.3000000e+01 
7.5000000e-01 3.0250001e+00 3.3500000e+01 
7.5000000e-01 3.0250001e+00 3.4000000e+01 
7.5000000e-01 3.0250001e+00 3.4500000e+01 
7.5000000e-01 3.0250001e+00 3.5000000e+01 
7.5000000e-01 3.0250001e+00 3.5500000e+01 
7.5000000e-01 3.0250001e+00 3.6000000e+01 
7.5000000e-01 3.0250001e+00 3.6500000e+01 
7.5000000e-01 3.0250001e+00 3.7000000e+01 
7.5000000e-01 3.0250001e+00 3.7500000e+01 
7.5000000e-01 3.0250001e+00 3.8000000e+01 
7.5000000e-01 3.0250001e+00 3.8500000e+01 
7.5000000e-01 3.0250001e+00 3.9000000e+01 
7.5000000e-01 3.0250001e+00 3.9500000e+01 
7.5000000e-01 3.0250001e+00 4.0000000e+01 
7.5000000e-01 3.0250001e+00 4.0500000e+01 
7.5000000e-01 3.0250001e+00 4.1000000e+01 
7.5000000e-01 3.0250001e+00 4.1500000e+01 
7.5000000e-01 3.0250001e+00 4.2000000e+01 
7.5000000e-01 3.0250001e+00 4.2500000e+01 
7.5000000e-01 3.0250001e+00 4.3000000e+01 
7.5000000e-01 3.0250001e+00 4.3500000e+01 
7.5000000e-01 3.0250001e+00 4.4000000e+01 
7.5000000e-01 3.0250001e+00 4.4500000e+01 
7.5000000e-01 3.0250001e+00 4.5000000e+01 
7.5000000e-01 3.0250001e+00 4.5500000e+01 
7.5000000e-01 3.0250001e+00 4.6000000e+01 
7.5000000e-01 3.0250001e+00 4.6500000e+01 
7.5000000e-01 3.0250001e+00 4.7000000e+01 
7.5000000e-01 3.0250001e+00 4.7500000e+01 
7.5000000e-01 3.0250001e+00 4.8000000e+01 
7.5000000e-01 3.0250001e+00 4.8500000e+01 
7.5000000e-01 3.0250001e+00 4.9000000e+01 
7.5000000e-01 3.0250001e+00 4.9500000e+01 
7.5000000e-01 3.0250001e+00 5.0000000e+01 
7.5000000e-01 3.0250001e+00 3.5750000e+01 
3.0000000e+00 2.0000000e+00 3.6000000e+01 
8.0487806e-01 3.0000000e+00 3.6000000e+01 
0.0000000e+00 0.0000000e+00 1.0000000e+00 
0.0000000e+00 0.0000000e+00 2.0000000e+00 
0.0000000e+00 0.0000000e+00 3.0000000e+00 
0.0000000e+00 0.0000000e+00 4.0000000e+00 
0.0000000e+00 0.0000000e+00 5.0000000e+00 
0.0000000e+00 0.0000000e+00 6.0000000e+00 
0.0000000e+00 0.0000000e+00 7.0000000e+00 
[...]
POINT_DATA 1921
FIELD FieldData 3
DISPLACEMENT 3 1921  float
0.0000000e+00 0.0000000e+00 0.0000000e+00 
0.0000000e+00 0.0000000e+00 0.0000000e+00 
0.0000000e+00 0.0000000e+00 0.0000000e+00 
0.0000000e+00 0.0000000e+00 0.0000000e+00 
-3.7251875e-06 -6.4479623e-06 -3.6350475e-06 
-4.0301242e-09 8.4312383e-08 -1.5974780e-07 
0.0000000e+00 4.5209250e-05 0.0000000e+00 
0.0000000e+00 1.8150732e-07 0.0000000e+00 
4.5420197e-06 -7.6278570e-06 -4.1416447e-06 
-2.6214469e-08 6.9862267e-08 -1.8712446e-07 
2.2656029e-06 1.1988853e-05 -6.8842587e-06 
8.6813778e-08 1.3332084e-07 1.4646885e-09 
0.0000000e+00 3.9191047e-05 0.0000000e+00 
0.0000000e+00 2.8409548e-07 0.0000000e+00 
2.5265701e-05 6.4734020e-05 -2.1403101e-05 
1.0793193e-07 -4.8621638e-07 -3.0362375e-07 
3.7083717e-06 1.1833065e-04 4.1808976e-06 
2.0778772e-08 9.1357904e-08 -3.9024670e-08 
0.0000000e+00 4.4012490e-05 0.0000000e+00 
0.0000000e+00 -5.9167326e-07 0.0000000e+00 
1.9980505e-05 9.1164744e-05 -5.0840054e-06 
3.8554637e-05 4.2234369e-05 -2.8865439e-05 
1.7796321e-05 3.5344994e-05 -2.7318834e-05 
2.7254213e-05 1.0442841e-04 -3.6366142e-05 
6.4434396e-05 2.2530742e-04 -2.2934608e-05 
3.2804655e-05 3.2620633e-04 6.1590089e-07 
4.9342056e-05 3.4854637e-04 3.7177073e-05 
7.9340149e-05 2.9473656e-04 4.4699143e-05 
3.9256218e-05 1.8028417e-04 8.8436944e-05 
1.8289840e-05 -3.3635442e-05 1.3252979e-04 
4.7887523e-05 -4.5305880e-04 2.6662776e-04 
-5.3477675e-06 -1.1898249e-03 2.5123032e-04 
-6.5791603e-05 -2.3049829e-03 3.7586191e-04 
-1.8929323e-04 -3.6202201e-03 2.2897741e-04 
-2.8677436e-04 -4.6597235e-03 2.5791372e-04 
-3.1140575e-04 -4.8157512e-03 1.3100896e-04 
-3.1048837e-04 -4.6453993e-03 4.8838974e-05 
-2.6974067e-04 -4.6220552e-03 -1.4521646e-06 
-2.8609872e-04 -4.8772166e-03 -5.7468431e-05 
-3.2242239e-04 -4.9285903e-03 -1.8364709e-04 
-2.7239622e-04 -4.1825045e-03 -3.1766781e-04 
-2.0456071e-04 -2.9996447e-03 -2.6291623e-04 
-1.5905374e-04 -1.8381354e-03 -3.6076715e-04 
-9.7024822e-05 -8.8685442e-04 -2.0626419e-04 
-7.8545170e-05 -2.3295608e-04 -2.3781332e-04 
-3.1345517e-05 1.5429553e-04 -1.9245734e-04 
3.3222943e-05 3.4050999e-04 -2.1733536e-04 
7.7887671e-05 3.9410379e-04 -1.7655479e-04 
1.2514404e-04 3.6425286e-04 -8.4994397e-05 
1.0666270e-04 2.7810587e-04 2.3735465e-05 
7.0791408e-05 1.5865960e-04 1.4968104e-04 
4.4042266e-05 4.2177991e-05 1.6874509e-04 
-2.2103433e-05 -4.6438014e-05 1.6299039e-04 
-2.8587259e-05 -1.0540093e-04 1.0624713e-04 
-6.3002990e-05 -1.4310720e-04 4.6640125e-05 
-7.8150151e-05 -1.6830864e-04 -1.9141246e-05 
-5.1517542e-05 -1.7765445e-04 -5.4622989e-05 
-4.1194016e-05 -1.6355710e-04 -8.3051447e-05 
-3.3588749e-05 -1.3272473e-04 -7.2376279e-05 
-4.4740347e-05 -1.0079853e-04 -7.7071229e-05 
-1.0963639e-05 -7.8519668e-05 -6.3359250e-05 
-2.5507445e-05 -6.4198655e-05 -5.4205706e-05 
-4.5098213e-06 -3.4455708e-05 -7.4250747e-05 
8.1416629e-06 4.3170065e-05 -6.9212983e-05 
2.9144732e-05 1.7381483e-04 -6.2717620e-05 
3.7284830e-05 3.2261014e-04 -3.7061742e-05 
8.2965496e-05 4.2689749e-04 -3.6669142e-06 
6.6042339e-05 4.1998643e-04 3.3919281e-05 
8.8331391e-05 2.6273393e-04 8.8011024e-05 
8.1734157e-05 -6.6640852e-05 1.3936388e-04 
6.2224106e-05 -6.2095234e-04 2.7067721e-04 
-7.5062021e-06 -1.4468991e-03 2.4338823e-04 
-5.7779991e-05 -2.5731118e-03 4.1805956e-04 
-1.9391313e-04 -3.8255376e-03 2.5620344e-04 
-2.7723322e-04 -4.7699437e-03 2.7556412e-04 
-3.1221367e-04 -4.8525808e-03 1.9562243e-04 
-3.4510627e-04 -4.6698530e-03 1.3917717e-04 
-3.6807967e-04 -4.6389084e-03 6.5267384e-05 
-3.8553661e-04 -4.8398911e-03 1.0626035e-05 
-3.8592351e-04 -4.7770608e-03 -9.7300253e-05 
-3.6851675e-04 -3.9330563e-03 -3.4302304e-04 
-2.6054934e-04 -2.7093717e-03 -3.3368691e-04 
-1.7912866e-04 -1.5952971e-03 -4.8057814e-04 
-9.4804367e-05 -7.5951341e-04 -3.3318956e-04 
-2.8329470e-05 -2.3717302e-04 -3.0238405e-04 
1.8818533e-05 4.9684135e-05 -1.8498073e-04 
3.9230945e-05 1.8634966e-04 -1.4247120e-04 
5.3995500e-05 2.2856558e-04 -9.4273411e-05 
4.6411995e-05 2.0558690e-04 -4.2861029e-05 
7.2650117e-05 1.4478066e-04 5.6565972e-05 
3.7063888e-05 7.6869946e-05 1.1995347e-04 
1.4244363e-05 2.3858827e-05 1.3871731e-04 
-1.8560402e-05 -1.2271919e-05 1.2831856e-04 
-2.2718923e-05 -3.3838769e-05 7.3165967e-05 
-3.2169868e-05 -4.0853614e-05 2.2597860e-05 
-2.4893134e-05 -3.5311936e-05 -1.8759556e-05 
-9.0586400e-06 -1.8751831e-05 -3.9020437e-05 
-3.0595197e-06 3.8215447e-07 -3.8252761e-05 
5.0051449e-06 1.2802075e-05 -2.9209210e-05 
4.0977447e-06 1.5642003e-05 -1.5037732e-05 
2.5323725e-06 1.1431667e-05 -2.5058503e-06 
1.5294154e-06 5.7842058e-06 3.5842622e-06 
3.2084751e-07 2.0072514e-06 6.1421970e-06 
5.3296543e-07 -3.5268224e-10 5.8629453e-06 
8.0410547e-07 -1.2888887e-06 2.3128250e-06 
1.7755737e-06 -2.2013178e-06 6.3399079e-07 
2.3313777e-07 -2.4261078e-06 -2.4669851e-06 
5.4858148e-08 -1.8197373e-06 -2.0972284e-06 
1.1550537e-07 -1.1030685e-06 -1.1955518e-06 
-2.0110927e-07 -9.0660279e-07 -2.6198080e-07 
-3.3674530e-07 -1.0627560e-06 1.2728266e-07 
-2.0149425e-07 -8.9033529e-07 2.0289191e-07 
-5.5837295e-09 -1.0952944e-07 2.2902132e-07 
5.7153315e-08 7.0319811e-07 4.0559789e-07 
-1.0339942e-07 8.8890840e-07 2.7932626e-07 
-3.0824630e-08 4.5753652e-07 1.4658502e-07 
1.2122312e-07 -9.8815804e-08 8.2667569e-08 
-6.2139584e-08 -2.6886875e-07 5.9486815e-08 
8.2630924e-09 -6.4714456e-08 -7.6671469e-08 
0.0000000e+00 1.1653353e-04 0.0000000e+00 
0.0000000e+00 8.9929723e-05 0.0000000e+00 
0.0000000e+00 4.3385025e-05 0.0000000e+00 
0.0000000e+00 3.7989976e-05 0.0000000e+00 
0.0000000e+00 1.0687895e-04 0.0000000e+00 
0.0000000e+00 2.2501577e-04 0.0000000e+00 
0.0000000e+00 3.2343328e-04 0.0000000e+00 
0.0000000e+00 3.4770748e-04 0.0000000e+00 
0.0000000e+00 2.9722255e-04 0.0000000e+00 
0.0000000e+00 1.8335003e-04 0.0000000e+00 
0.0000000e+00 -3.3395514e-05 0.0000000e+00 
0.0000000e+00 -4.5507782e-04 0.0000000e+00 
0.0000000e+00 -1.2007524e-03 0.0000000e+00 
0.0000000e+00 -2.3206677e-03 0.0000000e+00 
0.0000000e+00 -3.6468077e-03 0.0000000e+00 
0.0000000e+00 -4.6780948e-03 0.0000000e+00 
0.0000000e+00 -4.8416271e-03 0.0000000e+00 
0.0000000e+00 -4.6640323e-03 0.0000000e+00 
0.0000000e+00 -4.6528080e-03 0.0000000e+00 
0.0000000e+00 -4.9034497e-03 0.0000000e+00 
0.0000000e+00 -4.9577942e-03 0.0000000e+00 
0.0000000e+00 -4.2001819e-03 0.0000000e+00 
0.0000000e+00 -3.0144674e-03 0.0000000e+00 
0.0000000e+00 -1.8439607e-03 0.0000000e+00 
0.0000000e+00 -8.9253538e-04 0.0000000e+00 
0.0000000e+00 -2.3419385e-04 0.0000000e+00 
0.0000000e+00 1.5501797e-04 0.0000000e+00 
0.0000000e+00 3.4184972e-04 0.0000000e+00 
0.0000000e+00 3.9510583e-04 0.0000000e+00 
0.0000000e+00 3.6425458e-04 0.0000000e+00 
0.0000000e+00 2.7748614e-04 0.0000000e+00 
0.0000000e+00 1.5949372e-04 0.0000000e+00 
0.0000000e+00 4.3617572e-05 0.0000000e+00 
0.0000000e+00 -4.5778972e-05 0.0000000e+00 
0.0000000e+00 -1.0543001e-04 0.0000000e+00 
0.0000000e+00 -1.4395277e-04 0.0000000e+00 
0.0000000e+00 -1.6885196e-04 0.0000000e+00 
0.0000000e+00 -1.7718253e-04 0.0000000e+00 
0.0000000e+00 -1.6315794e-04 0.0000000e+00 
0.0000000e+00 -1.3280365e-04 0.0000000e+00 
0.0000000e+00 -1.0126660e-04 0.0000000e+00 
0.0000000e+00 -7.9715042e-05 0.0000000e+00 
0.0000000e+00 -6.5031054e-05 0.0000000e+00 
0.0000000e+00 -3.3717879e-05 0.0000000e+00 
0.0000000e+00 4.4697830e-05 0.0000000e+00 
0.0000000e+00 1.7560208e-04 0.0000000e+00 
0.0000000e+00 3.2364242e-04 0.0000000e+00 
0.0000000e+00 4.2592332e-04 0.0000000e+00 
0.0000000e+00 4.1885779e-04 0.0000000e+00 
0.0000000e+00 2.6333478e-04 0.0000000e+00 
0.0000000e+00 -6.7332607e-05 0.0000000e+00 
0.0000000e+00 -6.2161993e-04 0.0000000e+00 
0.0000000e+00 -1.4563063e-03 0.0000000e+00 
0.0000000e+00 -2.5873552e-03 0.0000000e+00 
0.0000000e+00 -3.8537760e-03 0.0000000e+00 
0.0000000e+00 -4.7913343e-03 0.0000000e+00 
0.0000000e+00 -4.8820078e-03 0.0000000e+00 
0.0000000e+00 -4.6879686e-03 0.0000000e+00 
0.0000000e+00 -4.6677967e-03 0.0000000e+00 
0.0000000e+00 -4.8625371e-03 0.0000000e+00 
0.0000000e+00 -4.8061055e-03 0.0000000e+00 
0.0000000e+00 -3.9489092e-03 0.0000000e+00 
0.0000000e+00 -2.7259681e-03 0.0000000e+00 
0.0000000e+00 -1.6021089e-03 0.0000000e+00 
0.0000000e+00 -7.6404191e-04 0.0000000e+00 
0.0000000e+00 -2.3691729e-04 0.0000000e+00 
0.0000000e+00 5.1164876e-05 0.0000000e+00 
0.0000000e+00 1.8734817e-04 0.0000000e+00 
0.0000000e+00 2.2864634e-04 0.0000000e+00 
0.0000000e+00 2.0570883e-04 0.0000000e+00 
0.0000000e+00 1.4548797e-04 0.0000000e+00 
0.0000000e+00 7.7755103e-05 0.0000000e+00 
0.0000000e+00 2.3771783e-05 0.0000000e+00 
0.0000000e+00 -1.2461182e-05 0.0000000e+00 
0.0000000e+00 -3.3590288e-05 0.0000000e+00 
0.0000000e+00 -4.0769042e-05 0.0000000e+00 
0.0000000e+00 -3.5027129e-05 0.0000000e+00 
0.0000000e+00 -1.8825032e-05 0.0000000e+00 
0.0000000e+00 -2.0634468e-08 0.0000000e+00 
0.0000000e+00 1.2564336e-05 0.0000000e+00 
0.0000000e+00 1.5581509e-05 0.0000000e+00 
0.0000000e+00 1.1583872e-05 0.0000000e+00 
0.0000000e+00 5.9249915e-06 0.0000000e+00 
0.0000000e+00 2.0114710e-06 0.0000000e+00 
0.0000000e+00 -4.3284707e-08 0.0000000e+00 
0.0000000e+00 -1.2974011e-06 0.0000000e+00 
0.0000000e+00 -2.1765468e-06 0.0000000e+00 
0.0000000e+00 -2.3951659e-06 0.0000000e+00 
0.0000000e+00 -1.8464000e-06 0.0000000e+00 
0.0000000e+00 -1.1473684e-06 0.0000000e+00 
0.0000000e+00 -9.1673729e-07 0.0000000e+00 
0.0000000e+00 -1.0308137e-06 0.0000000e+00 
0.0000000e+00 -8.5157274e-07 0.0000000e+00 
0.0000000e+00 -1.1544530e-07 0.0000000e+00 
0.0000000e+00 6.6658532e-07 0.0000000e+00 
0.0000000e+00 8.6843647e-07 0.0000000e+00 
0.0000000e+00 4.5932654e-07 0.0000000e+00 
0.0000000e+00 -7.4989480e-08 0.0000000e+00 
0.0000000e+00 -2.5175731e-07 0.0000000e+00 
0.0000000e+00 -6.9869955e-08 0.0000000e+00 
0.0000000e+00 7.8145618e-08 0.0000000e+00 
0.0000000e+00 4.8342892e-05 0.0000000e+00 
-2.6791429e-07 -6.8486128e-07 8.6133432e-06 
1.4075613e-05 2.8996265e-05 1.3810935e-04 
0.0000000e+00 0.0000000e+00 0.0000000e+00 
0.0000000e+00 0.0000000e+00 0.0000000e+00 
0.0000000e+00 0.0000000e+00 0.0000000e+00 
0.0000000e+00 0.0000000e+00 0.0000000e+00 
0.0000000e+00 0.0000000e+00 0.0000000e+00 
0.0000000e+00 0.0000000e+00 0.0000000e+00 
0.0000000e+00 0.0000000e+00 0.0000000e+00 
0.0000000e+00 0.0000000e+00 0.0000000e+00 
0.0000000e+00 0.0000000e+00 0.0000000e+00 
0.0000000e+00 0.0000000e+00 0.0000000e+00 
0.0000000e+00 0.0000000e+00 0.0000000e+00 
0.0000000e+00 0.0000000e+00 0.0000000e+00 
0.0000000e+00 0.0000000e+00 0.0000000e+00 
0.0000000e+00 0.0000000e+00 0.0000000e+00 
0.0000000e+00 0.0000000e+00 0.0000000e+00 
0.0000000e+00 0.0000000e+00 0.0000000e+00 
0.0000000e+00 0.0000000e+00 0.0000000e+00 
0.0000000e+00 0.0000000e+00 0.0000000e+00 
0.0000000e+00 0.0000000e+00 0.0000000e+00 
0.0000000e+00 0.0000000e+00 0.0000000e+00 
0.0000000e+00 0.0000000e+00 0.0000000e+00 
0.0000000e+00 0.0000000e+00 0.0000000e+00 
0.0000000e+00 0.0000000e+00 0.0000000e+00 
0.0000000e+00 0.0000000e+00 0.0000000e+00 
0.0000000e+00 0.0000000e+00 0.0000000e+00 
0.0000000e+00 0.0000000e+00 0.0000000e+00 
0.0000000e+00 0.0000000e+00 0.0000000e+00 
0.0000000e+00 0.0000000e+00 0.0000000e+00 
0.0000000e+00 0.0000000e+00 0.0000000e+00 
0.0000000e+00 0.0000000e+00 0.0000000e+00 
0.0000000e+00 0.0000000e+00 0.0000000e+00 
0.0000000e+00 0.0000000e+00 0.0000000e+00 
0.0000000e+00 0.0000000e+00 0.0000000e+00 
0.0000000e+00 0.0000000e+00 0.0000000e+00 
0.0000000e+00 0.0000000e+00 0.0000000e+00 
0.0000000e+00 0.0000000e+00 0.0000000e+00 
0.0000000e+00 0.0000000e+00 0.0000000e+00 
0.0000000e+00 0.0000000e+00 0.0000000e+00 
0.0000000e+00 0.0000000e+00 0.0000000e+00 
0.0000000e+00 0.0000000e+00 0.0000000e+00 
0.0000000e+00 0.0000000e+00 0.0000000e+00 
0.0000000e+00 0.0000000e+00 0.0000000e+00 
0.0000000e+00 0.0000000e+00 0.0000000e+00 
0.0000000e+00 0.0000000e+00 0.0000000e+00 
0.0000000e+00 0.0000000e+00 0.0000000e+00 
0.0000000e+00 0.0000000e+00 0.0000000e+00 
0.0000000e+00 0.0000000e+00 0.0000000e+00 
0.0000000e+00 0.0000000e+00 0.0000000e+00 
0.0000000e+00 0.0000000e+00 0.0000000e+00 
0.0000000e+00 0.0000000e+00 0.0000000e+00 
0.0000000e+00 0.0000000e+00 0.0000000e+00 
0.0000000e+00 0.0000000e+00 0.0000000e+00 
0.0000000e+00 0.0000000e+00 0.0000000e+00 
0.0000000e+00 0.0000000e+00 0.0000000e+00 
0.0000000e+00 0.0000000e+00 0.0000000e+00 
0.0000000e+00 0.0000000e+00 0.0000000e+00 
0.0000000e+00 0.0000000e+00 0.0000000e+00 
0.0000000e+00 0.0000000e+00 0.0000000e+00 
0.0000000e+00 0.0000000e+00 0.0000000e+00 
0.0000000e+00 0.0000000e+00 0.0000000e+00 
0.0000000e+00 0.0000000e+00 0.0000000e+00 
0.0000000e+00 0.0000000e+00 0.0000000e+00 
0.0000000e+00 0.0000000e+00 0.0000000e+00 
0.0000000e+00 0.0000000e+00 0.0000000e+00 
0.0000000e+00 0.0000000e+00 0.0000000e+00 
0.0000000e+00 0.0000000e+00 0.0000000e+00 
0.0000000e+00 0.0000000e+00 0.0000000e+00 
0.0000000e+00 0.0000000e+00 0.0000000e+00 
0.0000000e+00 0.0000000e+00 0.0000000e+00 
0.0000000e+00 0.0000000e+00 0.0000000e+00 
0.0000000e+00 0.0000000e+00 0.0000000e+00 
0.0000000e+00 0.0000000e+00 0.0000000e+00 
0.0000000e+00 0.0000000e+00 0.0000000e+00 
0.0000000e+00 0.0000000e+00 0.0000000e+00 
0.0000000e+00 0.0000000e+00 0.0000000e+00 
0.0000000e+00 0.0000000e+00 0.0000000e+00 
0.0000000e+00 0.0000000e+00 0.0000000e+00 
0.0000000e+00 0.0000000e+00 0.0000000e+00 
0.0000000e+00 0.0000000e+00 0.0000000e+00 
0.0000000e+00 0.0000000e+00 0.0000000e+00 
0.0000000e+00 0.0000000e+00 0.0000000e+00 
0.0000000e+00 0.0000000e+00 0.0000000e+00 
0.0000000e+00 0.0000000e+00 0.0000000e+00 
0.0000000e+00 0.0000000e+00 0.0000000e+00 
0.0000000e+00 0.0000000e+00 0.0000000e+00 
0.0000000e+00 0.0000000e+00 0.0000000e+00 
0.0000000e+00 0.0000000e+00 0.0000000e+00 
0.0000000e+00 0.0000000e+00 0.0000000e+00 
0.0000000e+00 0.0000000e+00 0.0000000e+00 
0.0000000e+00 0.0000000e+00 0.0000000e+00 
0.0000000e+00 0.0000000e+00 0.0000000e+00 
0.0000000e+00 0.0000000e+00 0.0000000e+00 
0.0000000e+00 0.0000000e+00 0.0000000e+00 
0.0000000e+00 0.0000000e+00 0.0000000e+00 
0.0000000e+00 0.0000000e+00 0.0000000e+00 
0.0000000e+00 0.0000000e+00 0.0000000e+00 
0.0000000e+00 0.0000000e+00 0.0000000e+00 
0.0000000e+00 0.0000000e+00 0.0000000e+00 
0.0000000e+00 0.0000000e+00 0.0000000e+00 
0.0000000e+00 0.0000000e+00 0.0000000e+00 
0.0000000e+00 0.0000000e+00 0.0000000e+00 
0.0000000e+00 0.0000000e+00 0.0000000e+00 
0.0000000e+00 0.0000000e+00 0.0000000e+00 
0.0000000e+00 0.0000000e+00 0.0000000e+00 
0.0000000e+00 0.0000000e+00 0.0000000e+00 
0.0000000e+00 0.0000000e+00 0.0000000e+00 
-5.5160490e-06 2.7628894e-06 -2.9440146e-06 
-9.1673019e-06 4.0056011e-06 -5.3990134e-06 
-1.1521744e-05 -4.6347072e-06 -8.1002963e-06 
-9.4474071e-06 -3.2119322e-06 -1.3635428e-05 
2.4303565e-06 -2.8991126e-06 -2.0175074e-05 
2.0361154e-05 -2.0620935e-05 -2.3336142e-05 
4.0199429e-05 -1.6313279e-05 -2.1093590e-05 
5.6268535e-05 -1.7695613e-05 -8.7274284e-06 
5.4077413e-05 -2.2469287e-05 -2.2425345e-06 
4.4421831e-05 -1.3553977e-05 -8.3271129e-07 
3.7156580e-05 -7.0874876e-06 -6.3990505e-08 
2.0593949e-05 2.6801117e-06 1.2554334e-05 
8.8844456e-07 -2.5069251e-06 1.8821705e-05 
-1.6418333e-06 -5.3094827e-06 7.2743751e-06 
-3.0981837e-06 -1.3433169e-06 3.3135061e-06 
-5.2034397e-06 4.0458772e-07 7.6335336e-06 
-9.1589945e-06 1.3887107e-07 7.5522462e-06 
-1.6898057e-05 -2.4860992e-06 1.0798928e-05 
-2.3021927e-05 7.0979709e-06 1.3086149e-05 
-2.0892912e-05 2.0129573e-06 5.6358849e-06 
-2.5096959e-05 -9.2334699e-07 4.3953632e-06 
-2.7276823e-05 1.1059703e-05 3.2060402e-06 
-1.9731986e-05 2.7535791e-06 -5.4619577e-06 
-1.4771855e-05 -5.8426799e-06 -1.7104765e-05 
7.2128878e-06 -7.3437964e-06 -2.0151811e-05 
2.0506470e-05 -1.7344903e-05 -2.1424625e-05 
3.8762169e-05 -1.9899408e-05 -2.2961423e-05 
5.3984117e-05 -1.9864443e-05 -9.7041111e-06 
5.6291741e-05 -1.9879813e-05 2.4827341e-07 
4.7876470e-05 -9.1968359e-06 6.8792642e-06 
2.8173901e-05 -8.1629123e-06 1.3373847e-05 
1.2835211e-05 -4.2556549e-06 1.1790872e-05 
3.8521462e-06 5.8975758e-07 7.3735059e-06 
7.4605833e-07 5.0003712e-07 3.4715808e-06 
1.7639768e-06 7.8270676e-07 1.3977974e-06 
2.5682334e-06 1.0143045e-06 5.0123691e-07 
1.5627608e-06 5.4943381e-08 2.3450318e-06 
2.6287790e-07 -3.4621007e-07 3.3732779e-06 
-9.9122690e-07 -9.8711394e-07 2.9413495e-06 
-3.6359728e-07 -7.3811282e-07 1.2601027e-06 
9.3361632e-07 4.5590431e-07 6.1429461e-07 
5.7906419e-07 3.4404786e-07 5.1665705e-07 
-6.1341339e-08 -3.8281493e-07 -3.8637501e-07 
-2.7232556e-07 -8.4333536e-08 -6.8749267e-07 
-3.1723874e-07 1.2072815e-07 -6.4820500e-07 
-1.4559652e-07 8.4776879e-08 -1.8610966e-07 
8.1849691e-08 1.8255503e-07 2.8045946e-07 
1.2663425e-07 -2.1594895e-08 2.4735226e-07 
-2.8883017e-08 -1.4636149e-07 6.8566244e-08 
0.0000000e+00 6.3038242e-05 0.0000000e+00 
0.0000000e+00 1.2762506e-04 0.0000000e+00 
0.0000000e+00 1.5962479e-04 0.0000000e+00 
0.0000000e+00 1.1542953e-04 0.0000000e+00 
0.0000000e+00 9.2374554e-05 0.0000000e+00 
0.0000000e+00 -1.5179497e-04 0.0000000e+00 
0.0000000e+00 -4.3673947e-04 0.0000000e+00 
0.0000000e+00 -5.6734477e-04 0.0000000e+00 
0.0000000e+00 -6.2373240e-04 0.0000000e+00 
0.0000000e+00 -5.2849523e-04 0.0000000e+00 
0.0000000e+00 -3.4106855e-04 0.0000000e+00 
0.0000000e+00 -1.4379105e-04 0.0000000e+00 
0.0000000e+00 -1.6319937e-05 0.0000000e+00 
0.0000000e+00 1.5727139e-05 0.0000000e+00 
0.0000000e+00 1.1826877e-05 0.0000000e+00 
0.0000000e+00 -1.4357144e-05 0.0000000e+00 
0.0000000e+00 -7.4019540e-06 0.0000000e+00 
0.0000000e+00 6.7218002e-06 0.0000000e+00 
0.0000000e+00 7.5371980e-05 0.0000000e+00 
0.0000000e+00 1.2732451e-04 0.0000000e+00 
0.0000000e+00 1.4651255e-04 0.0000000e+00 
0.0000000e+00 1.8453859e-04 0.0000000e+00 
0.0000000e+00 1.9136193e-04 0.0000000e+00 
0.0000000e+00 1.7392451e-04 0.0000000e+00 
0.0000000e+00 8.9516783e-05 0.0000000e+00 
0.0000000e+00 -7.1072544e-05 0.0000000e+00 
0.0000000e+00 -3.4831421e-04 0.0000000e+00 
0.0000000e+00 -5.2955816e-04 0.0000000e+00 
0.0000000e+00 -5.7613710e-04 0.0000000e+00 
0.0000000e+00 -5.4597051e-04 0.0000000e+00 
0.0000000e+00 -3.8246269e-04 0.0000000e+00 
0.0000000e+00 -1.3657956e-04 0.0000000e+00 
0.0000000e+00 -1.5757026e-06 0.0000000e+00 
0.0000000e+00 4.3152435e-05 0.0000000e+00 
0.0000000e+00 4.1699132e-05 0.0000000e+00 
0.0000000e+00 2.0489945e-06 0.0000000e+00 
0.0000000e+00 -1.8013992e-05 0.0000000e+00 
0.0000000e+00 -1.6684991e-05 0.0000000e+00 
0.0000000e+00 -6.6548688e-07 0.0000000e+00 
0.0000000e+00 6.7305082e-06 0.0000000e+00 
0.0000000e+00 5.5345345e-06 0.0000000e+00 
0.0000000e+00 -3.8368802e-07 0.0000000e+00 
0.0000000e+00 -2.8431109e-06 0.0000000e+00 
0.0000000e+00 -1.4159216e-06 0.0000000e+00 
0.0000000e+00 8.9918456e-07 0.0000000e+00 
0.0000000e+00 1.0383842e-06 0.0000000e+00 
0.0000000e+00 8.6819817e-08 0.0000000e+00 
0.0000000e+00 -4.9556240e-07 0.0000000e+00 
0.0000000e+00 -1.3534805e-07 0.0000000e+00 
-7.6123883e-06 5.4079883e-06 -3.3910289e-06 
-6.1506662e-06 1.8836378e-06 3.1678551e-06 
-8.6365017e-06 -2.0342945e-06 8.4740930e-07 
-6.2640838e-06 1.7718952e-05 9.7811671e-06 
-7.9473203e-08 -3.6077630e-08 4.2608046e-09 
-3.6895528e-08 -5.9297236e-08 -2.7246809e-08 
-8.2014473e-08 -2.1727045e-08 7.0282461e-08 
-1.0392183e-07 4.3167667e-08 1.4670513e-07 
-4.1485105e-06 -5.4973668e-07 -1.0499952e-05 
-3.0443925e-06 4.5710894e-06 -9.6446465e-06 
2.2125175e-06 1.3758266e-06 -1.2577290e-05 
6.9327280e-06 -1.5632654e-06 -1.4788669e-05 
1.2793163e-05 -5.1988850e-06 -1.5505400e-05 
2.7872091e-05 -2.5566042e-05 -1.8451319e-05 
4.7016300e-05 -1.8788285e-05 -1.4720788e-05 
4.9514605e-05 -1.9519764e-05 -5.6042536e-06 
4.3287284e-05 -2.0862730e-05 -5.1791044e-06 
3.8562524e-05 -8.7410799e-06 -8.6575756e-06 
3.5937232e-05 -1.1761978e-06 -1.1058360e-05 
2.5459402e-05 7.7194991e-06 4.7358276e-06 
1.3642795e-06 1.5505311e-06 2.1881193e-05 
-1.0597633e-05 -6.8194267e-06 1.3482565e-05 
-7.6093816e-06 -6.3672405e-06 2.4420362e-06 
3.8195276e-06 5.5419306e-08 -6.6421012e-07 
-3.0764975e-06 -2.7124602e-06 4.5344696e-06 
-7.9728034e-06 -3.0793233e-06 8.2313682e-06 
-1.8380853e-05 1.0423083e-05 9.2008313e-06 