# vtk DataFile Version 4.0
vtk output
ASCII
DATASET UNSTRUCTURED_GRID
POINTS 767 float
0.0000000e+00 0.0000000e+00 0.0000000e+00 
0.0000000e+00 0.0000000e+00 5.0000000e+01 
5.0000000e+00 0.0000000e+00 0.0000000e+00 
5.0000000e+00 0.0000000e+00 5.0000000e+01 
5.0000000e+00 1.0000000e+00 0.0000000e+00 
5.0000000e+00 1.0000000e+00 5.0000000e+01 
0.0000000e+00 1.0000000e+00 0.0000000e+00 
0.0000000e+00 1.0000000e+00 5.0000000e+01 
5.0000000e+00 2.0000000e+00 0.0000000e+00 
5.0000000e+00 2.0000000e+00 5.0000000e+01 
3.0000000e+00 2.0000000e+00 0.0000000e+00 
3.0000000e+00 2.0000000e+00 5.0000000e+01 
0.0000000e+00 2.0000000e+00 0.0000000e+00 
0.0000000e+00 2.0000000e+00 5.0000000e+01 
1.5000000e+00 3.0000000e+00 0.0000000e+00 
1.5000000e+00 3.0000000e+00 5.0000000e+01 
7.5000000e-01 3.0000000e+00 0.0000000e+00 
7.5000000e-01 3.0000000e+00 5.0000000e+01 
0.0000000e+00 3.0000000e+00 0.0000000e+00 
0.0000000e+00 3.0000000e+00 5.0000000e+01 
7.5000000e-01 3.0000000e+00 5.0000000e-01 
7.5000000e-01 3.0000000e+00 1.0000000e+00 
7.5000000e-01 3.0000000e+00 1.5000000e+00 
7.5000000e-01 3.0000000e+00 2.0000000e+00 
7.5000000e-01 3.0000000e+00 2.5000000e+00 
7.5000000e-01 3.0000000e+00 3.0000000e+00 
7.5000000e-01 3.0000000e+00 3.5000000e+00 
7.5000000e-01 3.0000000e+00 4.0000000e+00 
7.5000000e-01 3.0000000e+00 4.5000000e+00 
7.5000000e-01 3.0000000e+00 5.0000000e+00 
7.5000000e-01 3.0000000e+00 5.5000000e+00 
7.5000000e-01 3.0000000e+00 6.0000000e+00 
7.5000000e-01 3.0000000e+00 6.5000000e+00 
7.5000000e-01 3.0000000e+00 7.0000000e+00 
7.5000000e-01 3.0000000e+00 7.5000000e+00 
7.5000000e-01 3.0000000e+00 8.0000000e+00 
7.5000000e-01 3.0000000e+00 8.5000000e+00 
7.5000000e-01 3.0000000e+00 9.0000000e+00 
7.5000000e-01 3.0000000e+00 9.5000000e+00 
7.5000000e-01 3.0000000e+00 1.0000000e+01 
7.5000000e-01 3.0000000e+00 1.0500000e+01 
7.5000000e-01 3.0000000e+00 1.1000000e+01 
7.5000000e-01 3.0000000e+00 1.1500000e+01 
7.5000000e-01 3.0000000e+00 1.2000000e+01 
7.5000000e-01 3.0000000e+00 1.2500000e+01 
7.5000000e-01 3.0000000e+00 1.3000000e+01 
7.5000000e-01 3.0000000e+00 1.3500000e+01 
7.5000000e-01 3.0000000e+00 1.4000000e+01 
7.5000000e-01 3.0000000e+00 1.4500000e+01 
7.5000000e-01 3.0000000e+00 1.5000000e+01 
7.5000000e-01 3.0000000e+00 1.5500000e+01 
7.5000000e-01 3.0000000e+00 1.6000000e+01 
7.5000000e-01 3.0000000e+00 1.6500000e+01 
7.5000000e-01 3.0000000e+00 1.7000000e+01 
7.5000000e-01 3.0000000e+00 1.7500000e+01 
7.5000000e-01 3.0000000e+00 1.8000000e+01 
7.5000000e-01 3.0000000e+00 1.8500000e+01 
7.5000000e-01 3.0000000e+00 1.9000000e+01 
7.5000000e-01 3.0000000e+00 1.9500000e+01 
7.5000000e-01 3.0000000e+00 2.0000000e+01 
7.5000000e-01 3.0000000e+00 2.0500000e+01 
7.5000000e-01 3.0000000e+00 2.1000000e+01 
7.5000000e-01 3.0000000e+00 2.1500000e+01 
7.5000000e-01 3.0000000e+00 2.2000000e+01 
7.5000000e-01 3.0000000e+00 2.2500000e+01 
7.5000000e-01 3.0000000e+00 2.3000000e+01 
7.5000000e-01 3.0000000e+00 2.3500000e+01 
7.5000000e-01 3.0000000e+00 2.4000000e+01 
7.5000000e-01 3.0000000e+00 2.4500000e+01 
7.5000000e-01 3.0000000e+00 2.5000000e+01 
7.5000000e-01 3.0000000e+00 2.5500000e+01 
7.5000000e-01 3.0000000e+00 2.6000000e+01 
7.5000000e-01 3.0000000e+00 2.6500000e+01 
7.5000000e-01 3.0000000e+00 2.7000000e+01 
7.5000000e-01 3.0000000e+00 2.7500000e+01 
7.5000000e-01 3.0000000e+00 2.8000000e+01 
7.5000000e-01 3.0000000e+00 2.8500000e+01 
7.5000000e-01 3.0000000e+00 2.9000000e+01 
7.5000000e-01 3.0000000e+00 2.9500000e+01 
7.5000000e-01 3.0000000e+00 3.0000000e+01 
7.5000000e-01 3.0000000e+00 3.0500000e+01 
7.5000000e-01 3.0000000e+00 3.1000000e+01 
7.5000000e-01 3.0000000e+00 3.1500000e+01 
7.5000000e-01 3.0000000e+00 3.2000000e+01 
7.5000000e-01 3.0000000e+00 3.2500000e+01 
7.5000000e-01 3.0000000e+00 3.3000000e+01 
7.5000000e-01 3.0000000e+00 3.3500000e+01 
7.5000000e-01 3.0000000e+00 3.4000000e+01 
7.5000000e-01 3.0000000e+00 3.4500000e+01 
7.5000000e-01 3.0000000e+00 3.5000000e+01 
7.5000000e-01 3.0000000e+00 3.5500000e+01 
7.5000000e-01 3.0000000e+00 3.6000000e+01 
7.5000000e-01 3.0000000e+00 3.6500000e+01 
7.5000000e-01 3.0000000e+00 3.7000000e+01 
7.5000000e-01 3.0000000e+00 3.7500000e+01 
7.5000000e-01 3.0000000e+00 3.8000000e+01 
7.5000000e-01 3.0000000e+00 3.8500000e+01 
7.5000000e-01 3.0000000e+00 3.9000000e+01 
7.5000000e-01 3.0000000e+00 3.9500000e+01 
7.5000000e-01 3.0000000e+00 4.0000000e+01 
7.5000000e-01 3.0000000e+00 4.0500000e+01 
7.5000000e-01 3.0000000e+00 4.1000000e+01 
7.5000000e-01 3.0000000e+00 4.1500000e+01 
7.5000000e-01 3.0000000e+00 4.2000000e+01 
7.5000000e-01 3.0000000e+00 4.2500000e+01 
7.5000000e-01 3.0000000e+00 4.3000000e+01 
7.5000000e-01 3.0000000e+00 4.3500000e+01 
7.5000000e-01 3.0000000e+00 4.4000000e+01 
7.5000000e-01 3.0000000e+00 4.4500000e+01 
7.5000000e-01 3.0000000e+00 4.5000000e+01 
7.5000000e-01 3.0000000e+00 4.5500000e+01 
7.5000000e-01 3.0000000e+00 4.6000000e+01 
7.5000000e-01 3.0000000e+00 4.6500000e+01 
7.5000000e-01 3.0000000e+00 4.7000000e+01 
7.5000000e-01 3.0000000e+00 4.7500000e+01 
7.5000000e-01 3.0000000e+00 4.8000000e+01 
7.5000000e-01 3.0000000e+00 4.8500000e+01 
7.5000000e-01 3.0000000e+00 4.9000000e+01 
7.5000000e-01 3.0000000e+00 4.9500000e+01 
7.5000000e-01 3.0250001e+00 0.0000000e+00 
7.5000000e-01 3.0250001e+00 5.0000000e-01 
7.5000000e-01 3.0250001e+00 1.0000000e+00 
7.5000000e-01 3.0250001e+00 1.5000000e+00 
7.5000000e-01 3.0250001e+00 2.0000000e+00 
7.5000000e-01 3.0250001e+00 2.5000000e+00 
7.5000000e-01 3.0250001e+00 3.0000000e+00 
7.5000000e-01 3.0250001e+00 3.5000000e+00 
7.5000000e-01 3.0250001e+00 4.0000000e+00 
7.5000000e-01 3.0250001e+00 4.5000000e+00 
7.5000000e-01 3.0250001e+00 5.0000000e+00 
7.5000000e-01 3.0250001e+00 5.5000000e+00 
7.5000000e-01 3.0250001e+00 6.0000000e+00 
7.5000000e-01 3.0250001e+00 6.5000000e+00 
7.5000000e-01 3.0250001e+00 7.0000000e+00 
7.5000000e-01 3.0250001e+00 7.5000000e+00 
7.5000000e-01 3.0250001e+00 8.0000000e+00 
7.5000000e-01 3.0250001e+00 8.5000000e+00 
7.5000000e-01 3.0250001e+00 9.0000000e+00 
7.5000000e-01 3.0250001e+00 9.5000000e+00 
7.5000000e-01 3.0250001e+00 1.0000000e+01 
7.5000000e-01 3.0250001e+00 1.0500000e+01 
7.5000000e-01 3.0250001e+00 1.1000000e+01 
7.5000000e-01 3.0250001e+00 1.1500000e+01 
7.5000000e-01 3.0250001e+00 1.2000000e+01 
7.5000000e-01 3.0250001e+00 1.2500000e+01 
7.5000000e-01 3.0250001e+00 1.3000000e+01 
7.5000000e-01 3.0250001e+00 1.3500000e+01 
7.5000000e-01 3.0250001e+00 1.4000000e+01 
7.5000000e-01 3.0250001e+00 1.4500000e+01 
7.5000000e-01 3.0250001e+00 1.5000000e+01 
7.5000000e-01 3.0250001e+00 1.5500000e+01 
7.5000000e-01 3.0250001e+00 1.6000000e+01 
7.5000000e-01 3.0250001e+00 1.6500000e+01 
7.5000000e-01 3.0250001e+00 1.7000000e+01 
7.5000000e-01 3.0250001e+00 1.7500000e+01 
7.5000000e-01 3.0250001e+00 1.8000000e+01 
7.5000000e-01 3.0250001e+00 1.8500000e+01 
7.5000000e-01 3.0250001e+00 1.9000000e+01 
7.5000000e-01 3.0250001e+00 1.9500000e+01 
7.5000000e-01 3.0250001e+00 2.0000000e+01 
7.5000000e-01 3.0250001e+00 2.0500000e+01 
7.5000000e-01 3.0250001e+00 2.1000000e+01 
7.5000000e-01 3.0250001e+00 2.1500000e+01 
7.5000000e-01 3.0250001e+00 2.2000000e+01 
7.5000000e-01 3.0250001e+00 2.2500000e+01 
7.5000000e-01 3.0250001e+00 2.3000000e+01 
7.5000000e-01 3.0250001e+00 2.3500000e+01 
7.5000000e-01 3.0250001e+00 2.4000000e+01 
7.5000000e-01 3.0250001e+00 2.4500000e+01 
7.5000000e-01 3.0250001e+00 2.5000000e+01 
7.5000000e-01 3.0250001e+00 2.5500000e+01 
7.5000000e-01 3.0250001e+00 2.6000000e+01 
7.5000000e-01 3.0250001e+00 2.6500000e+01 
7.5000000e-01 3.0250001e+00 2.7000000e+01 
7.5000000e-01 3.0250001e+00 2.7500000e+01 
7.5000000e-01 3.0250001e+00 2.8000000e+01 
7.5000000e-01 3.0250001e+00 2.8500000e+01 
7.5000000e-01 3.0250001e+00 2.9000000e+01 
7.5000000e-01 3.0250001e+00 2.9500000e+01 
7.5000000e-01 3.0250001e+00 3.0000000e+01 
7.5000000e-01 3.0250001e+00 3.0500000e+01 
7.5000000e-01 3.0250001e+00 3.1000000e+01 
7.5000000e-01 3.0250001e+00 3.1500000e+01 
7.5000000e-01 3.0250001e+00 3.2000000e+01 
7.5000000e-01 3.0250001e+00 3.2500000e+01 
7.5000000e-01 3.0250001e+00 3.3000000e+01 
7.5000000e-01 3.0250001e+00 3.3500000e+01 
7.5000000e-01 3.0250001e+00 3.4000000e+01 
7.5000000e-01 3.0250001e+00 3.4500000e+01 
7.5000000e-01 3.0250001e+00 3.5000000e+01 
7.5000000e-01 3.0250001e+00 3.5500000e+01 
7.5000000e-01 3.0250001e+00 3.6000000e+01 
7.5000000e-01 3.0250001e+00 3.6500000e+01 
7.5000000e-01 3.0250001e+00 3.7000000e+01 
7.5000000e-01 3.0250001e+00 3.7500000e+01 
7.5000000e-01 3.0250001e+00 3.8000000e+01 
7.5000000e-01 3.0250001e+00 3.8500000e+01 
7.5000000e-01 3.0250001e+00 3.9000000e+01 
7.5000000e-01 3.0250001e+00 3.9500000e+01 
7.5000000e-01 3.0250001e+00 4.0000000e+01 
7.5000000e-01 3.0250001e+00 4.0500000e+01 
7.5000000e-01 3.0250001e+00 4.1000000e+01 
7.5000000e-01 3.0250001e+00 4.1500000e+01 
7.5000000e-01 3.0250001e+00 4.2000000e+01 
7.5000000e-01 3.0250001e+00 4.2500000e+01 
7.5000000e-01 3.0250001e+00 4.3000000e+01 
7.5000000e-01 3.0250001e+00 4.3500000e+01 
7.5000000e-01 3.0250001e+00 4.4000000e+01 
7.5000000e-01 3.0250001e+00 4.4500000e+01 
7.5000000e-01 3.0250001e+00 4.5000000e+01 
7.5000000e-01 3.0250001e+00 4.5500000e+01 
7.5000000e-01 3.0250001e+00 4.6000000e+01 
7.5000000e-01 3.0250001e+00 4.6500000e+01 
7.5000000e-01 3.0250001e+00 4.7000000e+01 
7.5000000e-01 3.0250001e+00 4.7500000e+01 
7.5000000e-01 3.0250001e+00 4.8000000e+01 
7.5000000e-01 3.0250001e+00 4.8500000e+01 
7.5000000e-01 3.0250001e+00 4.9000000e+01 
7.5000000e-01 3.0250001e+00 4.9500000e+01 
7.5000000e-01 3.0250001e+00 5.0000000e+01 
7.5000000e-01 3.0250001e+00 3.5750000e+01 
3.0000000e+00 2.0000000e+00 3.6000000e+01 
8.0487806e-01 3.0000000e+00 3.6000000e+01 
0.0000000e+00 0.0000000e+00 2.0000000e+00 
0.0000000e+00 0.0000000e+00 4.0000000e+00 
0.0000000e+00 0.0000000e+00 6.0000000e+00 
0.0000000e+00 0.0000000e+00 8.0000000e+00 
0.0000000e+00 0.0000000e+00 1.0000000e+01 
0.0000000e+00 0.0000000e+00 1.2000000e+01 
0.0000000e+00 0.0000000e+00 1.4000000e+01 
[...]
POINT_DATA 767
FIELD FieldData 3
DISPLACEMENT 3 767  float
0.0000000e+00 0.0000000e+00 0.0000000e+00 
0.0000000e+00 0.0000000e+00 0.0000000e+00 
0.0000000e+00 0.0000000e+00 0.0000000e+00 
0.0000000e+00 0.0000000e+00 0.0000000e+00 
5.1977241e-07 -2.6437124e-06 2.2996446e-06 
1.0965163e-06 -1.1539896e-08 -1.5209675e-06 
0.0000000e+00 -2.7658511e-06 0.0000000e+00 
0.0000000e+00 -1.0273840e-05 0.0000000e+00 
7.1397340e-06 -6.7157116e-06 -1.9844324e-06 
-6.8441091e-07 5.3186068e-07 -3.7068901e-06 
-4.9301862e-06 1.1599157e-05 4.8684060e-06 
-7.7751037e-07 -6.9541261e-06 8.8919415e-07 
0.0000000e+00 -6.6002572e-06 0.0000000e+00 
0.0000000e+00 -2.3095552e-05 0.0000000e+00 
2.6456313e-05 4.8239934e-05 -4.6568953e-06 
-4.6980313e-06 -3.5692021e-05 1.7980819e-05 
-1.1504420e-05 1.1898403e-04 7.4368694e-07 
-1.2563710e-05 -3.9877406e-05 1.3259194e-05 
0.0000000e+00 2.8379491e-05 0.0000000e+00 
0.0000000e+00 -4.6368139e-05 0.0000000e+00 
-5.6504805e-06 1.0183158e-04 6.8682283e-07 
2.2628794e-05 6.8535956e-05 9.6723834e-06 
-6.0814064e-06 5.3737294e-05 1.5017969e-05 
-9.0642106e-06 5.5389824e-05 1.9737554e-05 
-3.4123521e-05 6.3792751e-05 3.2851054e-05 
2.0333177e-05 6.4085078e-05 1.7444588e-06 
-3.0671650e-05 6.0684568e-05 1.4271523e-05 
2.6859312e-05 5.5729455e-05 -1.0951977e-05 
1.1864398e-05 5.7728463e-05 4.9467062e-06 
1.3227822e-05 6.5833723e-05 -9.8836199e-06 
2.6636661e-05 6.6354973e-05 -3.8683189e-05 
3.3465618e-05 9.8360106e-05 -3.0143042e-06 
6.9930305e-05 1.6877934e-04 -2.5988922e-05 
5.0678285e-05 2.3674617e-04 -2.6709342e-05 
8.6699634e-05 2.6967088e-04 3.7766051e-05 
2.6603477e-05 2.1117975e-04 3.8054750e-05 
-3.1033014e-05 4.4993405e-05 6.3924177e-05 
-9.9243664e-07 -2.1591812e-04 9.8464065e-05 
-6.2579464e-05 -6.0564000e-04 1.4461107e-04 
-6.8143847e-05 -1.2289486e-03 1.0104406e-04 
-2.1800482e-04 -2.1757903e-03 1.9117640e-04 
-2.3552521e-04 -3.2768038e-03 1.9916314e-04 
-1.5444234e-04 -4.1795108e-03 1.5241782e-04 
-1.4508053e-04 -4.2429380e-03 1.7522257e-04 
-2.4678468e-04 -4.0004728e-03 9.7908989e-05 
-3.4594297e-04 -3.8926394e-03 7.5318996e-05 
-2.1189780e-04 -4.1070022e-03 2.2721588e-05 
-5.1592073e-05 -4.1510668e-03 -4.0736250e-05 
-8.0206679e-05 -3.5102179e-03 -9.4916992e-05 
-1.9081270e-04 -2.5019143e-03 -1.1640796e-04 
-1.8883473e-04 -1.5749561e-03 -1.3099202e-04 
-5.8531383e-05 -8.3900354e-04 -8.6951535e-05 
-2.3558247e-05 -3.5989028e-04 -1.4946527e-04 
-2.4147563e-05 -7.6885044e-05 -1.4550262e-04 
-1.0378532e-05 7.3316151e-05 -1.4337290e-04 
8.5262354e-06 1.2906939e-04 -1.3793439e-04 
4.2168685e-05 1.1220119e-04 -8.8314140e-05 
5.6375316e-05 6.7844892e-05 -5.3012773e-05 
3.1423857e-05 4.0526429e-05 -1.4008587e-05 
-1.9880685e-05 2.6905325e-05 1.0446117e-06 
-1.6429029e-05 1.3337891e-05 -3.0300076e-05 
-1.6781372e-05 -1.2008398e-05 -3.2925800e-05 
-3.8723349e-05 -3.7591792e-05 -3.2906002e-05 
-4.7877569e-05 -5.7914065e-05 -5.1658488e-05 
-2.0089728e-05 -6.7329660e-05 -9.0401209e-06 
1.1838927e-05 -7.3775940e-05 1.5533979e-05 
-6.4430455e-06 -8.7874207e-05 -8.4710919e-06 
-1.0557158e-06 -7.3096824e-05 2.2011007e-05 
1.5795309e-05 -6.7089563e-06 1.3959462e-05 
6.8666100e-06 8.4953565e-05 -2.9633593e-05 
6.4759341e-05 1.6294992e-04 -4.8018883e-05 
5.3683965e-05 2.1771027e-04 -4.8637925e-05 
6.1065599e-05 2.5974668e-04 -8.4490312e-05 
7.6695382e-05 3.0245821e-04 -6.1676794e-05 
6.2267209e-05 3.4836144e-04 -9.3823373e-06 
5.0365376e-05 2.9655639e-04 -9.1589900e-06 
-4.4165090e-06 8.1823498e-05 5.4950920e-05 
2.2203269e-05 -2.7645199e-04 1.1491347e-04 
-6.7489440e-05 -7.8368624e-04 1.7696337e-04 
-9.8229793e-05 -1.4535740e-03 1.7697933e-04 
-2.2664205e-04 -2.3427408e-03 2.5623909e-04 
-2.8226001e-04 -3.3322731e-03 2.3213716e-04 
-1.3336398e-04 -4.1361852e-03 1.6620806e-04 
-1.1186812e-04 -4.1561020e-03 1.6108261e-04 
-2.2135708e-04 -3.9228899e-03 1.0557126e-04 
-2.8129728e-04 -3.8208286e-03 7.2035953e-05 
-1.7667588e-04 -3.9916104e-03 5.2385876e-05 
-4.5184752e-05 -3.9386386e-03 6.4793196e-05 
-4.9660681e-05 -3.1908050e-03 -3.6593552e-05 
-1.2146495e-04 -2.1535689e-03 -7.8610399e-05 
-1.6676796e-04 -1.3446666e-03 -8.2407954e-05 
-1.5050182e-04 -7.8174175e-04 -7.5060969e-05 
-1.2469861e-04 -4.2668910e-04 -1.3274734e-04 
-1.1573201e-04 -1.8912116e-04 -1.5905417e-04 
-7.3705924e-05 -2.3611783e-05 -1.8193395e-04 
-2.5411142e-05 8.1947481e-05 -1.9306871e-04 
7.9714582e-06 1.3562637e-04 -1.6547061e-04 
3.2610456e-05 1.5952977e-04 -1.2431508e-04 
3.8510185e-05 1.6627862e-04 -9.9838013e-05 
4.0786079e-05 1.5427551e-04 -7.3741314e-05 
3.5665256e-05 1.1749165e-04 -2.9125187e-05 
3.6940783e-05 6.6490844e-05 1.2957025e-05 
1.9304713e-05 1.3470149e-05 5.3709693e-05 
-5.5199797e-07 -3.2955319e-05 8.2521248e-05 
-1.0992037e-05 -6.9382702e-05 8.5337764e-05 
-2.0797475e-05 -9.3854687e-05 7.1956689e-05 
-2.2620612e-05 -1.0131993e-04 6.1213854e-05 
-2.1741735e-05 -8.9911766e-05 4.5290686e-05 
-1.6701317e-05 -5.9354297e-05 1.6325885e-05 
-1.4885208e-05 -2.1192647e-05 -8.5724341e-06 
-4.9468795e-06 1.4444450e-05 -2.9329822e-05 
7.3545016e-06 4.1956548e-05 -4.2060612e-05 
9.6677659e-06 5.7693607e-05 -3.8678165e-05 
1.3630235e-05 6.1000846e-05 -2.6459291e-05 
9.9503777e-06 5.0726812e-05 -1.4538658e-05 
7.8584617e-06 2.9543571e-05 -1.8289100e-07 
4.1372673e-06 3.9550828e-06 1.1197478e-05 
1.5914163e-06 -1.8938666e-05 1.6906504e-05 
-1.2390570e-06 -3.4334404e-05 1.6076327e-05 
0.0000000e+00 1.1776334e-04 0.0000000e+00 
0.0000000e+00 1.0129779e-04 0.0000000e+00 
0.0000000e+00 7.0571303e-05 0.0000000e+00 
0.0000000e+00 5.4353532e-05 0.0000000e+00 
0.0000000e+00 5.5671608e-05 0.0000000e+00 
0.0000000e+00 6.2843908e-05 0.0000000e+00 
0.0000000e+00 6.3745967e-05 0.0000000e+00 
0.0000000e+00 6.0526512e-05 0.0000000e+00 
0.0000000e+00 5.6728441e-05 0.0000000e+00 
0.0000000e+00 5.8488036e-05 0.0000000e+00 
0.0000000e+00 6.3069121e-05 0.0000000e+00 
0.0000000e+00 6.7376641e-05 0.0000000e+00 
0.0000000e+00 1.0035403e-04 0.0000000e+00 
0.0000000e+00 1.6900941e-04 0.0000000e+00 
0.0000000e+00 2.3935156e-04 0.0000000e+00 
0.0000000e+00 2.6776685e-04 0.0000000e+00 
0.0000000e+00 2.0864431e-04 0.0000000e+00 
0.0000000e+00 4.6857178e-05 0.0000000e+00 
0.0000000e+00 -2.1230298e-04 0.0000000e+00 
0.0000000e+00 -6.0568936e-04 0.0000000e+00 
0.0000000e+00 -1.2398652e-03 0.0000000e+00 
0.0000000e+00 -2.1858041e-03 0.0000000e+00 
0.0000000e+00 -3.3130096e-03 0.0000000e+00 
0.0000000e+00 -4.2013805e-03 0.0000000e+00 
0.0000000e+00 -4.2691301e-03 0.0000000e+00 
0.0000000e+00 -4.0145442e-03 0.0000000e+00 
0.0000000e+00 -3.9265393e-03 0.0000000e+00 
0.0000000e+00 -4.1288990e-03 0.0000000e+00 
0.0000000e+00 -4.1845106e-03 0.0000000e+00 
0.0000000e+00 -3.5263279e-03 0.0000000e+00 
0.0000000e+00 -2.5201200e-03 0.0000000e+00 
0.0000000e+00 -1.5778316e-03 0.0000000e+00 
0.0000000e+00 -8.4430451e-04 0.0000000e+00 
0.0000000e+00 -3.5931283e-04 0.0000000e+00 
0.0000000e+00 -7.4884891e-05 0.0000000e+00 
0.0000000e+00 7.3932111e-05 0.0000000e+00 
0.0000000e+00 1.2735698e-04 0.0000000e+00 
0.0000000e+00 1.1236406e-04 0.0000000e+00 
0.0000000e+00 7.0880196e-05 0.0000000e+00 
0.0000000e+00 4.1274066e-05 0.0000000e+00 
0.0000000e+00 2.6493735e-05 0.0000000e+00 
0.0000000e+00 1.2071229e-05 0.0000000e+00 
0.0000000e+00 -1.1766719e-05 0.0000000e+00 
0.0000000e+00 -3.7439062e-05 0.0000000e+00 
0.0000000e+00 -5.7090012e-05 0.0000000e+00 
0.0000000e+00 -6.7258596e-05 0.0000000e+00 
0.0000000e+00 -7.6305165e-05 0.0000000e+00 
0.0000000e+00 -8.7124492e-05 0.0000000e+00 
0.0000000e+00 -7.0467191e-05 0.0000000e+00 
0.0000000e+00 -6.0315033e-06 0.0000000e+00 
0.0000000e+00 8.3973246e-05 0.0000000e+00 
0.0000000e+00 1.6169738e-04 0.0000000e+00 
0.0000000e+00 2.1677259e-04 0.0000000e+00 
0.0000000e+00 2.6038947e-04 0.0000000e+00 
0.0000000e+00 3.0839615e-04 0.0000000e+00 
0.0000000e+00 3.4757180e-04 0.0000000e+00 
0.0000000e+00 2.9271789e-04 0.0000000e+00 
0.0000000e+00 8.2413273e-05 0.0000000e+00 
0.0000000e+00 -2.7720566e-04 0.0000000e+00 
0.0000000e+00 -7.8184879e-04 0.0000000e+00 
0.0000000e+00 -1.4604977e-03 0.0000000e+00 
0.0000000e+00 -2.3523213e-03 0.0000000e+00 
0.0000000e+00 -3.3709789e-03 0.0000000e+00 
0.0000000e+00 -4.1604731e-03 0.0000000e+00 
0.0000000e+00 -4.1835052e-03 0.0000000e+00 
0.0000000e+00 -3.9359652e-03 0.0000000e+00 
0.0000000e+00 -3.8526205e-03 0.0000000e+00 
0.0000000e+00 -4.0126308e-03 0.0000000e+00 
0.0000000e+00 -3.9700768e-03 0.0000000e+00 
0.0000000e+00 -3.2062542e-03 0.0000000e+00 
0.0000000e+00 -2.1791640e-03 0.0000000e+00 
0.0000000e+00 -1.3469544e-03 0.0000000e+00 
0.0000000e+00 -7.8245316e-04 0.0000000e+00 
0.0000000e+00 -4.2459188e-04 0.0000000e+00 
0.0000000e+00 -1.8756269e-04 0.0000000e+00 
0.0000000e+00 -2.3487550e-05 0.0000000e+00 
0.0000000e+00 8.1478145e-05 0.0000000e+00 
0.0000000e+00 1.3627115e-04 0.0000000e+00 
0.0000000e+00 1.6021327e-04 0.0000000e+00 
0.0000000e+00 1.6636643e-04 0.0000000e+00 
0.0000000e+00 1.5345417e-04 0.0000000e+00 
0.0000000e+00 1.1752680e-04 0.0000000e+00 
0.0000000e+00 6.6781788e-05 0.0000000e+00 
0.0000000e+00 1.3676587e-05 0.0000000e+00 
0.0000000e+00 -3.3004941e-05 0.0000000e+00 
0.0000000e+00 -6.9533256e-05 0.0000000e+00 
0.0000000e+00 -9.3618961e-05 0.0000000e+00 
0.0000000e+00 -1.0122832e-04 0.0000000e+00 
0.0000000e+00 -8.9450332e-05 0.0000000e+00 
0.0000000e+00 -5.9485694e-05 0.0000000e+00 
0.0000000e+00 -2.1387483e-05 0.0000000e+00 
0.0000000e+00 1.4395278e-05 0.0000000e+00 
0.0000000e+00 4.1787789e-05 0.0000000e+00 
0.0000000e+00 5.7682439e-05 0.0000000e+00 
0.0000000e+00 6.0832244e-05 0.0000000e+00 
0.0000000e+00 5.0602019e-05 0.0000000e+00 
0.0000000e+00 2.9562210e-05 0.0000000e+00 
0.0000000e+00 4.0560599e-06 0.0000000e+00 
0.0000000e+00 -1.8863866e-05 0.0000000e+00 
0.0000000e+00 -3.4311044e-05 0.0000000e+00 
0.0000000e+00 -3.9801092e-05 0.0000000e+00 
0.0000000e+00 -1.0318536e-03 0.0000000e+00 
3.2206990e-05 -5.7297209e-05 4.4684898e-06 
-1.5881217e-04 -7.8302593e-04 -5.5386481e-05 
0.0000000e+00 0.0000000e+00 0.0000000e+00 
0.0000000e+00 0.0000000e+00 0.0000000e+00 
0.0000000e+00 0.0000000e+00 0.0000000e+00 
0.0000000e+00 0.0000000e+00 0.0000000e+00 
0.0000000e+00 0.0000000e+00 0.0000000e+00 
0.0000000e+00 0.0000000e+00 0.0000000e+00 
0.0000000e+00 0.0000000e+00 0.0000000e+00 
0.0000000e+00 0.0000000e+00 0.0000000e+00 
0.0000000e+00 0.0000000e+00 0.0000000e+00 
0.0000000e+00 0.0000000e+00 0.0000000e+00 
0.0000000e+00 0.0000000e+00 0.0000000e+00 
0.0000000e+00 0.0000000e+00 0.0000000e+00 
0.0000000e+00 0.0000000e+00 0.0000000e+00 
0.0000000e+00 0.0000000e+00 0.0000000e+00 
0.0000000e+00 0.0000000e+00 0.0000000e+00 
0.0000000e+00 0.0000000e+00 0.0000000e+00 
0.0000000e+00 0.0000000e+00 0.0000000e+00 
0.0000000e+00 0.0000000e+00 0.0000000e+00 
0.0000000e+00 0.0000000e+00 0.0000000e+00 
0.0000000e+00 0.0000000e+00 0.0000000e+00 
0.0000000e+00 0.0000000e+00 0.0000000e+00 
0.0000000e+00 0.0000000e+00 0.0000000e+00 
0.0000000e+00 0.0000000e+00 0.0000000e+00 
0.0000000e+00 0.0000000e+00 0.0000000e+00 
0.0000000e+00 0.0000000e+00 0.0000000e+00 
0.0000000e+00 0.0000000e+00 0.0000000e+00 
0.0000000e+00 0.0000000e+00 0.0000000e+00 
0.0000000e+00 0.0000000e+00 0.0000000e+00 
0.0000000e+00 0.0000000e+00 0.0000000e+00 
0.0000000e+00 0.0000000e+00 0.0000000e+00 
0.0000000e+00 0.0000000e+00 0.0000000e+00 
0.0000000e+00 0.0000000e+00 0.0000000e+00 
0.0000000e+00 0.0000000e+00 0.0000000e+00 
0.0000000e+00 0.0000000e+00 0.0000000e+00 
0.0000000e+00 0.0000000e+00 0.0000000e+00 
0.0000000e+00 0.0000000e+00 0.0000000e+00 
0.0000000e+00 0.0000000e+00 0.0000000e+00 
0.0000000e+00 0.0000000e+00 0.0000000e+00 
0.0000000e+00 0.0000000e+00 0.0000000e+00 
0.0000000e+00 0.0000000e+00 0.0000000e+00 
0.0000000e+00 0.0000000e+00 0.0000000e+00 
0.0000000e+00 0.0000000e+00 0.0000000e+00 
0.0000000e+00 0.0000000e+00 0.0000000e+00 
0.0000000e+00 0.0000000e+00 0.0000000e+00 
0.0000000e+00 0.0000000e+00 0.0000000e+00 
0.0000000e+00 0.0000000e+00 0.0000000e+00 
0.0000000e+00 0.0000000e+00 0.0000000e+00 
0.0000000e+00 0.0000000e+00 0.0000000e+00 
0.0000000e+00 0.0000000e+00 0.0000000e+00 
0.0000000e+00 0.0000000e+00 0.0000000e+00 
0.0000000e+00 0.0000000e+00 0.0000000e+00 
0.0000000e+00 0.0000000e+00 0.0000000e+00 
-8.5006341e-06 1.1977438e-06 3.6809033e-06 
-1.3464616e-05 -2.5236629e-06 4.8004895e-06 
1.1198196e-07 -1.1443664e-06 2.3779207e-06 
1.4573081e-05 -7.2433340e-06 -3.7455975e-06 
3.4224366e-05 -7.3313504e-06 -7.8012890e-06 
4.9070215e-05 -1.2686054e-05 -6.1802407e-06 
4.2494728e-05 -1.4883228e-05 4.0755081e-06 
1.5870210e-05 -7.8668591e-06 -4.3776663e-06 
-6.8800650e-06 -1.0726980e-05 -4.8973443e-06 
-1.1790701e-05 -2.4498499e-06 3.5628677e-06 
-1.2764071e-05 -4.3732830e-06 4.0491346e-07 
-1.8621604e-05 -1.4027441e-05 6.4208270e-06 
-1.2494127e-05 2.2836689e-06 8.0229156e-06 
1.5313961e-07 -9.4281804e-06 -7.9937831e-07 
3.1030544e-05 -1.4816289e-05 -8.5024967e-06 
5.2287429e-05 -1.0998620e-05 5.1577745e-06 
4.9359121e-05 -1.1033098e-05 1.1708245e-05 
2.4166327e-05 -2.8104216e-06 1.8279974e-06 
-9.5319149e-07 6.6186553e-06 -8.8256904e-08 
-6.6730354e-06 2.5572349e-06 -2.9966009e-06 
1.5660761e-07 -1.5710468e-06 5.9095885e-07 
3.4281657e-06 -2.2025372e-06 6.2162030e-06 
-7.1673514e-07 1.9494373e-06 5.0321082e-06 
-2.0951159e-06 -5.5177031e-07 -2.8613151e-06 
0.0000000e+00 -2.7034814e-05 0.0000000e+00 
0.0000000e+00 -2.8209071e-05 0.0000000e+00 
0.0000000e+00 3.2057957e-05 0.0000000e+00 
0.0000000e+00 -1.8235080e-05 0.0000000e+00 
0.0000000e+00 -1.7367121e-04 0.0000000e+00 
0.0000000e+00 -5.1335653e-04 0.0000000e+00 
0.0000000e+00 -5.0336367e-04 0.0000000e+00 
0.0000000e+00 -2.0900968e-04 0.0000000e+00 
0.0000000e+00 -5.5604036e-05 0.0000000e+00 
0.0000000e+00 -4.5359200e-05 0.0000000e+00 
0.0000000e+00 -5.6161221e-05 0.0000000e+00 
0.0000000e+00 -6.0869119e-05 0.0000000e+00 
0.0000000e+00 3.2436303e-05 0.0000000e+00 
0.0000000e+00 -1.2916043e-05 0.0000000e+00 
0.0000000e+00 -1.6602316e-04 0.0000000e+00 
0.0000000e+00 -5.0253171e-04 0.0000000e+00 
0.0000000e+00 -4.7809628e-04 0.0000000e+00 
0.0000000e+00 -1.8240727e-04 0.0000000e+00 
0.0000000e+00 -4.7208532e-06 0.0000000e+00 
0.0000000e+00 5.6207591e-05 0.0000000e+00 
0.0000000e+00 -8.0296877e-06 0.0000000e+00 
0.0000000e+00 -3.0202966e-05 0.0000000e+00 
0.0000000e+00 1.2990799e-05 0.0000000e+00 
0.0000000e+00 1.1825930e-05 0.0000000e+00 
-5.5421897e-06 6.4159822e-06 4.6300835e-07 
1.4004466e-06 1.1833765e-05 6.9932656e-07 
2.0984119e-07 -2.2011445e-06 -2.8403131e-06 
4.2088644e-07 -8.6159853e-06 -4.7423632e-07 
-7.1646937e-06 -6.0437543e-07 6.6860675e-06 
-9.9598874e-06 9.8757198e-07 6.3410857e-06 
-3.7763034e-06 4.5592319e-06 3.3942185e-06 
2.4502066e-05 -1.1903805e-05 -1.7024782e-06 
3.5856276e-05 -7.3205629e-06 -2.0320915e-06 
3.3066684e-05 -1.3546705e-05 2.8542490e-06 
1.9538522e-05 -1.2687176e-05 -3.2371368e-06 
8.4971871e-06 -3.9932684e-06 -1.6418873e-05 
-2.4352104e-07 -1.6500737e-05 -9.0976564e-06 
4.5340012e-06 -1.0835437e-05 -5.0085823e-06 
-4.2097975e-07 -1.2679948e-05 1.4879935e-05 
-8.6037435e-06 -1.6358908e-05 -1.4196906e-06 
3.4936744e-07 4.2589218e-06 9.7989323e-06 
1.4023693e-05 -1.3921634e-05 3.6798501e-06 
3.2451942e-05 -1.5511610e-05 -2.4854444e-06 
4.1299496e-05 -1.3301460e-05 1.2659227e-05 
2.8170294e-05 -6.2505619e-06 9.0930489e-06 
1.1856317e-05 4.4000749e-06 -9.9948775e-06 
2.7235508e-06 8.3202513e-06 -7.0366741e-06 
9.7129191e-07 -1.1695541e-08 3.4240948e-08 
1.0656271e-06 -2.6361142e-06 1.9026645e-06 
3.3634526e-06 -1.6831058e-06 5.6398758e-06 
1.1634531e-06 3.1297545e-06 4.1395938e-06 
6.5975752e-07 -6.4627159e-07 -1.1631209e-06 
-1.0345441e-06 3.4087225e-05 8.0292148e-06 
0.0000000e+00 -1.1900828e-05 0.0000000e+00 
0.0000000e+00 -1.7353970e-05 0.0000000e+00 
0.0000000e+00 -4.3179210e-05 0.0000000e+00 
0.0000000e+00 1.2383820e-04 0.0000000e+00 
0.0000000e+00 -4.0946642e-04 0.0000000e+00 
0.0000000e+00 -1.1998689e-03 0.0000000e+00 
0.0000000e+00 -1.1190379e-03 0.0000000e+00 
0.0000000e+00 -3.9610991e-04 0.0000000e+00 
0.0000000e+00 -4.0068098e-05 0.0000000e+00 
0.0000000e+00 -4.8951399e-05 0.0000000e+00 
0.0000000e+00 -2.5850319e-05 0.0000000e+00 
0.0000000e+00 -1.6554218e-04 0.0000000e+00 
0.0000000e+00 9.4334908e-05 0.0000000e+00 
0.0000000e+00 1.2847503e-04 0.0000000e+00 
0.0000000e+00 -4.8629867e-04 0.0000000e+00 
0.0000000e+00 -1.1485912e-03 0.0000000e+00 
0.0000000e+00 -1.0450055e-03 0.0000000e+00 
0.0000000e+00 -3.5268223e-04 0.0000000e+00 
0.0000000e+00 1.4374834e-06 0.0000000e+00 
0.0000000e+00 1.0476697e-04 0.0000000e+00 
0.0000000e+00 -1.5450796e-05 0.0000000e+00 
0.0000000e+00 -5.5984714e-05 0.0000000e+00 
0.0000000e+00 2.7752996e-05 0.0000000e+00 
0.0000000e+00 2.1197118e-05 0.0000000e+00 
-1.3786442e-07 -1.5645759e-05 2.6286257e-06 
1.5681186e-05 4.1529533e-05 4.4705524e-05 
2.1345360e-05 4.1651310e-05 -9.2066375e-06 
3.4723955e-05 7.3391901e-05 -1.3047235e-05 
6.6053326e-05 1.6956181e-04 8.7473658e-05 
-2.6094899e-04 -3.3728679e-04 3.3503317e-04 
-7.1439712e-04 -1.3438602e-03 1.7344204e-04 
-5.7957845e-04 -1.4069548e-03 -1.9070091e-04 
-1.5729919e-04 -2.0246011e-04 -2.4273076e-04 
1.4301820e-05 8.2766826e-05 -1.5058948e-04 
2.6553711e-05 -7.2869363e-05 2.2620947e-05 
-1.5223866e-05 -7.9555102e-05 -3.7224127e-05 
-3.5516362e-06 -7.4864329e-05 -2.2480610e-06 
8.6668078e-05 1.8066724e-04 -8.1762220e-05 
4.7286550e-05 1.9885023e-04 1.0372534e-04 
-2.8448843e-04 -3.7777290e-04 4.4400696e-04 
-6.2859792e-04 -1.3030099e-03 1.6316741e-04 
-5.2488816e-04 -1.4962911e-03 7.6449078e-06 
-1.9270062e-04 -4.6916190e-04 -2.2744278e-04 
-1.2977906e-05 9.8799297e-05 -2.3493197e-04 
5.3386273e-05 1.0484312e-04 -6.6076667e-05 
-6.3170100e-06 -2.8649758e-05 1.0527305e-04 
-2.7145705e-05 -7.1389077e-05 3.3905853e-05 
1.0564484e-05 4.2454707e-05 -5.0036972e-05 
6.6684447e-06 2.1511958e-05 1.0387790e-05 
0.0000000e+00 2.8287935e-05 0.0000000e+00 
0.0000000e+00 -7.1575858e-05 0.0000000e+00 
0.0000000e+00 3.1513584e-05 0.0000000e+00 
0.0000000e+00 2.4284291e-04 0.0000000e+00 
0.0000000e+00 -7.3184300e-04 0.0000000e+00 
0.0000000e+00 -2.3595507e-03 0.0000000e+00 
0.0000000e+00 -2.2022186e-03 0.0000000e+00 
0.0000000e+00 -5.8958807e-04 0.0000000e+00 
0.0000000e+00 8.2047954e-05 0.0000000e+00 
0.0000000e+00 1.5558166e-05 0.0000000e+00 
0.0000000e+00 -5.0078361e-05 0.0000000e+00 
0.0000000e+00 -2.1066214e-04 0.0000000e+00 
0.0000000e+00 2.4897858e-04 0.0000000e+00 
0.0000000e+00 2.1257682e-04 0.0000000e+00 
0.0000000e+00 -9.1075798e-04 0.0000000e+00 
0.0000000e+00 -2.3387244e-03 0.0000000e+00 
0.0000000e+00 -2.0472587e-03 0.0000000e+00 
0.0000000e+00 -5.1439047e-04 0.0000000e+00 
0.0000000e+00 4.9572449e-05 0.0000000e+00 
0.0000000e+00 1.4677281e-04 0.0000000e+00 
0.0000000e+00 -3.7640515e-05 0.0000000e+00 
0.0000000e+00 -8.1560378e-05 0.0000000e+00 
0.0000000e+00 4.9662525e-05 0.0000000e+00 
0.0000000e+00 2.5937270e-05 0.0000000e+00 
-1.3485786e-05 6.6243874e-06 4.4137864e-06 
5.4162109e-07 1.2908924e-05 2.9907699e-06 
1.3511797e-05 2.8273153e-05 5.0602712e-06 
3.1854255e-05 4.1622177e-05 1.5327576e-05 
5.2635653e-05 -4.5152767e-05 8.7664321e-06 
4.7014346e-05 -1.1134995e-04 -3.0047790e-06 
4.1505256e-05 -1.1243900e-04 2.5864260e-06 
4.2818774e-05 -4.0596860e-05 -3.2840303e-06 
-4.7251656e-06 2.4132658e-05 -3.9957486e-05 
3.8604071e-06 2.7156879e-05 -2.4855854e-05 
-1.3716106e-05 9.8955861e-06 4.0382761e-06 
-1.8487852e-05 2.2877866e-06 -5.2978130e-06 
1.7619310e-05 5.8472491e-05 -8.5537395e-06 
1.2328612e-05 5.8600141e-05 2.9104292e-05 
5.2795389e-05 -5.1382991e-05 2.6217955e-05 
6.3655760e-05 -1.0312658e-04 1.6539960e-05 
4.2992815e-05 -1.0715814e-04 5.1474952e-05 
4.9613800e-06 2.7851607e-05 -4.2853586e-05 
-2.9129862e-06 3.0621595e-05 -1.9941628e-05 
-2.3421576e-06 -7.8207513e-06 1.0466358e-05 
1.7973188e-06 -1.4254618e-05 1.0074606e-05 
3.0950384e-06 9.1593256e-06 1.0560378e-06 
-1.5923052e-07 1.0684157e-05 1.1466508e-06 
-3.6767542e-05 -2.8554606e-04 -5.8946200e-05 
0.0000000e+00 0.0000000e+00 0.0000000e+00 
0.0000000e+00 0.0000000e+00 0.0000000e+00 
0.0000000e+00 0.0000000e+00 0.0000000e+00 
0.0000000e+00 0.0000000e+00 0.0000000e+00 