# vtk DataFile Version 4.0
vtk output
ASCII
DATASET UNSTRUCTURED_GRID
POINTS 1921 float
0.0000000e+00 0.0000000e+00 0.0000000e+00 
0.0000000e+00 0.0000000e+00 5.0000000e+01 
5.0000000e+00 0.0000000e+00 0.0000000e+00 
5.0000000e+00 0.0000000e+00 5.0000000e+01 
5.0000000e+00 1.0000000e+00 0.0000000e+00 
5.0000000e+00 1.0000000e+00 5.0000000e+01 
0.0000000e+00 1.0000000e+00 0.0000000e+00 
0.0000000e+00 1.0000000e+00 5.0000000e+01 
5.0000000e+00 2.0000000e+00 0.0000000e+00 
5.0000000e+00 2.0000000e+00 5.0000000e+01 
3.0000000e+00 2.0000000e+00 0.0000000e+00 
3.0000000e+00 2.0000000e+00 5.0000000e+01 
0.0000000e+00 2.0000000e+00 0.0000000e+00 
0.0000000e+00 2.0000000e+00 5.0000000e+01 
1.5000000e+00 3.0000000e+00 0.0000000e+00 
1.5000000e+00 3.0000000e+00 5.0000000e+01 
7.5000000e-01 3.0000000e+00 0.0000000e+00 
7.5000000e-01 3.0000000e+00 5.0000000e+01 
0.0000000e+00 3.0000000e+00 0.0000000e+00 
0.0000000e+00 3.0000000e+00 5.0000000e+01 
7.5000000e-01 3.0000000e+00 5.0000000e-01 
7.5000000e-01 3.0000000e+00 1.0000000e+00 
7.5000000e-01 3.0000000e+00 1.5000000e+00 
7.5000000e-01 3.0000000e+00 2.0000000e+00 
7.5000000e-01 3.0000000e+00 2.5000000e+00 
7.5000000e-01 3.0000000e+00 3.0000000e+00 
7.5000000e-01 3.0000000e+00 3.5000000e+00 
7.5000000e-01 3.0000000e+00 4.0000000e+00 
7.5000000e-01 3.0000000e+00 4.5000000e+00 
7.5000000e-01 3.0000000e+00 5.0000000e+00 
7.5000000e-01 3.0000000e+00 5.5000000e+00 
7.5000000e-01 3.0000000e+00 6.0000000e+00 
7.5000000e-01 3.0000000e+00 6.5000000e+00 
7.5000000e-01 3.0000000e+00 7.0000000e+00 
7.5000000e-01 3.0000000e+00 7.5000000e+00 
7.5000000e-01 3.0000000e+00 8.0000000e+00 
7.5000000e-01 3.0000000e+00 8.5000000e+00 
7.5000000e-01 3.0000000e+00 9.0000000e+00 
7.5000000e-01 3.0000000e+00 9.5000000e+00 
7.5000000e-01 3.0000000e+00 1.0000000e+01 
7.5000000e-01 3.0000000e+00 1.0500000e+01 
7.5000000e-01 3.0000000e+00 1.1000000e+01 
7.5000000e-01 3.0000000e+00 1.1500000e+01 
7.5000000e-01 3.0000000e+00 1.2000000e+01 
7.5000000e-01 3.0000000e+00 1.2500000e+01 
7.5000000e-01 3.0000000e+00 1.3000000e+01 
7.5000000e-01 3.0000000e+00 1.3500000e+01 
7.5000000e-01 3.0000000e+00 1.4000000e+01 
7.5000000e-01 3.0000000e+00 1.4500000e+01 
7.5000000e-01 3.0000000e+00 1.5000000e+01 
7.5000000e-01 3.0000000e+00 1.5500000e+01 
7.5000000e-01 3.0000000e+00 1.6000000e+01 
7.5000000e-01 3.0000000e+00 1.6500000e+01 
7.5000000e-01 3.0000000e+00 1.7000000e+01 
7.5000000e-01 3.0000000e+00 1.7500000e+01 
7.5000000e-01 3.0000000e+00 1.8000000e+01 
7.5000000e-01 3.0000000e+00 1.8500000e+01 
7.5000000e-01 3.0000000e+00 1.9000000e+01 
7.5000000e-01 3.0000000e+00 1.9500000e+01 
7.5000000e-01 3.0000000e+00 2.0000000e+01 
7.5000000e-01 3.0000000e+00 2.0500000e+01 
7.5000000e-01 3.0000000e+00 2.1000000e+01 
7.5000000e-01 3.0000000e+00 2.1500000e+01 
7.5000000e-01 3.0000000e+00 2.2000000e+01 
7.5000000e-01 3.0000000e+00 2.2500000e+01 
7.5000000e-01 3.0000000e+00 2.3000000e+01 
7.5000000e-01 3.0000000e+00 2.3500000e+01 
7.5000000e-01 3.0000000e+00 2.4000000e+01 
7.5000000e-01 3.0000000e+00 2.4500000e+01 
7.5000000e-01 3.0000000e+00 2.5000000e+01 
7.5000000e-01 3.0000000e+00 2.5500000e+01 
7.5000000e-01 3.0000000e+00 2.6000000e+01 
7.5000000e-01 3.0000000e+00 2.6500000e+01 
7.5000000e-01 3.0000000e+00 2.7000000e+01 
7.5000000e-01 3.0000000e+00 2.7500000e+01 
7.5000000e-01 3.0000000e+00 2.8000000e+01 
7.5000000e-01 3.0000000e+00 2.8500000e+01 
7.5000000e-01 3.0000000e+00 2.9000000e+01 
7.5000000e-01 3.0000000e+00 2.9500000e+01 
7.5000000e-01 3.0000000e+00 3.0000000e+01 
7.5000000e-01 3.0000000e+00 3.0500000e+01 
7.5000000e-01 3.0000000e+00 3.1000000e+01 
7.5000000e-01 3.0000000e+00 3.1500000e+01 
7.5000000e-01 3.0000000e+00 3.2000000e+01 
7.5000000e-01 3.0000000e+00 3.2500000e+01 
7.5000000e-01 3.0000000e+00 3.3000000e+01 
7.5000000e-01 3.0000000e+00 3.3500000e+01 
7.5000000e-01 3.0000000e+00 3.4000000e+01 
7.5000000e-01 3.0000000e+00 3.4500000e+01 
7.5000000e-01 3.0000000e+00 3.5000000e+01 
7.5000000e-01 3.0000000e+00 3.5500000e+01 
7.5000000e-01 3.0000000e+00 3.6000000e+01 
7.5000000e-01 3.0000000e+00 3.6500000e+01 
7.5000000e-01 3.0000000e+00 3.7000000e+01 
7.5000000e-01 3.0000000e+00 3.7500000e+01 
7.5000000e-01 3.0000000e+00 3.8000000e+01 
7.5000000e-01 3.0000000e+00 3.8500000e+01 
7.5000000e-01 3.0000000e+00 3.9000000e+01 
7.5000000e-01 3.0000000e+00 3.9500000e+01 
7.5000000e-01 3.0000000e+00 4.0000000e+01 
7.5000000e-01 3.0000000e+00 4.0500000e+01 
7.5000000e-01 3.0000000e+00 4.1000000e+01 
7.5000000e-01 3.0000000e+00 4.1500000e+01 
7.5000000e-01 3.0000000e+00 4.2000000e+01 
7.5000000e-01 3.0000000e+00 4.2500000e+01 
7.5000000e-01 3.0000000e+00 4.3000000e+01 
7.5000000e-01 3.0000000e+00 4.3500000e+01 
7.5000000e-01 3.0000000e+00 4.4000000e+01 
7.5000000e-01 3.0000000e+00 4.4500000e+01 
7.5000000e-01 3.0000000e+00 4.5000000e+01 
7.5000000e-01 3.0000000e+00 4.5500000e+01 
7.5000000e-01 3.0000000e+00 4.6000000e+01 
7.5000000e-01 3.0000000e+00 4.6500000e+01 
7.5000000e-01 3.0000000e+00 4.7000000e+01 
7.5000000e-01 3.0000000e+00 4.7500000e+01 
7.5000000e-01 3.0000000e+00 4.8000000e+01 
7.5000000e-01 3.0000000e+00 4.8500000e+01 
7.5000000e-01 3.0000000e+00 4.9000000e+01 
7.5000000e-01 3.0000000e+00 4.9500000e+01 
7.5000000e-01 3.0250001e+00 0.0000000e+00 
7.5000000e-01 3.0250001e+00 5.0000000e-01 
7.5000000e-01 3.0250001e+00 1.0000000e+00 
7.5000000e-01 3.0250001e+00 1.5000000e+00 
7.5000000e-01 3.0250001e+00 2.0000000e+00 
7.5000000e-01 3.0250001e+00 2.5000000e+00 
7.5000000e-01 3.0250001e+00 3.0000000e+00 
7.5000000e-01 3.0250001e+00 3.5000000e+00 
7.5000000e-01 3.0250001e+00 4.0000000e+00 
7.5000000e-01 3.0250001e+00 4.5000000e+00 
7.5000000e-01 3.0250001e+00 5.0000000e+00 
7.5000000e-01 3.0250001e+00 5.5000000e+00 
7.5000000e-01 3.0250001e+00 6.0000000e+00 
7.5000000e-01 3.0250001e+00 6.5000000e+00 
7.5000000e-01 3.0250001e+00 7.0000000e+00 
7.5000000e-01 3.0250001e+00 7.5000000e+00 
7.5000000e-01 3.0250001e+00 8.0000000e+00 
7.5000000e-01 3.0250001e+00 8.5000000e+00 
7.5000000e-01 3.0250001e+00 9.0000000e+00 
7.5000000e-01 3.0250001e+00 9.5000000e+00 
7.5000000e-01 3.0250001e+00 1.0000000e+01 
7.5000000e-01 3.0250001e+00 1.0500000e+01 
7.5000000e-01 3.0250001e+00 1.1000000e+01 
7.5000000e-01 3.0250001e+00 1.1500000e+01 
7.5000000e-01 3.0250001e+00 1.2000000e+01 
7.5000000e-01 3.0250001e+00 1.2500000e+01 
7.5000000e-01 3.0250001e+00 1.3000000e+01 
7.5000000e-01 3.0250001e+00 1.3500000e+01 
7.5000000e-01 3.0250001e+00 1.4000000e+01 
7.5000000e-01 3.0250001e+00 1.4500000e+01 
7.5000000e-01 3.0250001e+00 1.5000000e+01 
7.5000000e-01 3.0250001e+00 1.5500000e+01 
7.5000000e-01 3.0250001e+00 1.6000000e+01 
7.5000000e-01 3.0250001e+00 1.6500000e+01 
7.5000000e-01 3.0250001e+00 1.7000000e+01 
7.5000000e-01 3.0250001e+00 1.7500000e+01 
7.5000000e-01 3.0250001e+00 1.8000000e+01 
7.5000000e-01 3.0250001e+00 1.8500000e+01 
7.5000000e-01 3.0250001e+00 1.9000000e+01 
7.5000000e-01 3.0250001e+00 1.9500000e+01 
7.5000000e-01 3.0250001e+00 2.0000000e+01 
7.5000000e-01 3.0250001e+00 2.0500000e+01 
7.5000000e-01 3.0250001e+00 2.1000000e+01 
7.5000000e-01 3.0250001e+00 2.1500000e+01 
7.5000000e-01 3.0250001e+00 2.2000000e+01 
7.5000000e-01 3.0250001e+00 2.2500000e+01 
7.5000000e-01 3.0250001e+00 2.3000000e+01 
7.5000000e-01 3.0250001e+00 2.3500000e+01 
7.5000000e-01 3.0250001e+00 2.4000000e+01 
7.5000000e-01 3.0250001e+00 2.4500000e+01 
7.5000000e-01 3.0250001e+00 2.5000000e+01 
7.5000000e-01 3.0250001e+00 2.5500000e+01 
7.5000000e-01 3.0250001e+00 2.6000000e+01 
7.5000000e-01 3.0250001e+00 2.6500000e+01 
7.5000000e-01 3.0250001e+00 2.7000000e+01 
7.5000000e-01 3.0250001e+00 2.7500000e+01 
7.5000000e-01 3.0250001e+00 2.8000000e+01 
7.5000000e-01 3.0250001e+00 2.8500000e+01 
7.5000000e-01 3.0250001e+00 2.9000000e+01 
7.5000000e-01 3.0250001e+00 2.9500000e+01 
7.5000000e-01 3.0250001e+00 3.0000000e+01 
7.5000000e-01 3.0250001e+00 3.0500000e+01 
7.5000000e-01 3.0250001e+00 3.1000000e+01 
7.5000000e-01 3.0250001e+00 3.1500000e+01 
7.5000000e-01 3.0250001e+00 3.2000000e+01 
7.5000000e-01 3.0250001e+00 3.2500000e+01 
7.5000000e-01 3.0250001e+00 3.3000000e+01 
7.5000000e-01 3.0250001e+00 3.3500000e+01 
7.5000000e-01 3.0250001e+00 3.4000000e+01 
7.5000000e-01 3.0250001e+00 3.4500000e+01 
7.5000000e-01 3.0250001e+00 3.5000000e+01 
7.5000000e-01 3.0250001e+00 3.5500000e+01 
7.5000000e-01 3.0250001e+00 3.6000000e+01 
7.5000000e-01 3.0250001e+00 3.6500000e+01 
7.5000000e-01 3.0250001e+00 3.7000000e+01 
7.5000000e-01 3.0250001e+00 3.7500000e+01 
7.5000000e-01 3.0250001e+00 3.8000000e+01 
7.5000000e-01 3.0250001e+00 3.8500000e+01 
7.5000000e-01 3.0250001e+00 3.9000000e+01 
7.5000000e-01 3.0250001e+00 3.9500000e+01 
7.5000000e-01 3.0250001e+00 4.0000000e+01 
7.5000000e-01 3.0250001e+00 4.0500000e+01 
7.5000000e-01 3.0250001e+00 4.1000000e+01 
7.5000000e-01 3.0250001e+00 4.1500000e+01 
7.5000000e-01 3.0250001e+00 4.2000000e+01 
7.5000000e-01 3.0250001e+00 4.2500000e+01 
7.5000000e-01 3.0250001e+00 4.3000000e+01 
7.5000000e-01 3.0250001e+00 4.3500000e+01 
7.5000000e-01 3.0250001e+00 4.4000000e+01 
7.5000000e-01 3.0250001e+00 4.4500000e+01 
7.5000000e-01 3.0250001e+00 4.5000000e+01 
7.5000000e-01 3.0250001e+00 4.5500000e+01 
7.5000000e-01 3.0250001e+00 4.6000000e+01 
7.5000000e-01 3.0250001e+00 4.6500000e+01 
7.5000000e-01 3.0250001e+00 4.7000000e+01 
7.5000000e-01 3.0250001e+00 4.7500000e+01 
7.5000000e-01 3.0250001e+00 4.8000000e+01 
7.5000000e-01 3.0250001e+00 4.8500000e+01 
7.5000000e-01 3.0250001e+00 4.9000000e+01 
7.5000000e-01 3.0250001e+00 4.9500000e+01 
7.5000000e-01 3.0250001e+00 5.0000000e+01 
7.5000000e-01 3.0250001e+00 3.5750000e+01 
3.0000000e+00 2.0000000e+00 3.6000000e+01 
8.0487806e-01 3.0000000e+00 3.6000000e+01 
0.0000000e+00 0.0000000e+00 1.0000000e+00 
0.0000000e+00 0.0000000e+00 2.0000000e+00 
0.0000000e+00 0.0000000e+00 3.0000000e+00 
0.0000000e+00 0.0000000e+00 4.0000000e+00 
0.0000000e+00 0.0000000e+00 5.0000000e+00 
0.0000000e+00 0.0000000e+00 6.0000000e+00 
0.0000000e+00 0.0000000e+00 7.0000000e+00 
[...]
POINT_DATA 1921
FIELD FieldData 3
DISPLACEMENT 3 1921  float
0.0000000e+00 0.0000000e+00 0.0000000e+00 
0.0000000e+00 0.0000000e+00 0.0000000e+00 
0.0000000e+00 0.0000000e+00 0.0000000e+00 
0.0000000e+00 0.0000000e+00 0.0000000e+00 
1.1979652e-05 -1.6713169e-05 -1.7817802e-05 
-2.5931779e-10 7.8660101e-09 -4.2882592e-10 
0.0000000e+00 -8.8069855e-06 0.0000000e+00 
0.0000000e+00 -1.4182480e-08 0.0000000e+00 
1.0591725e-04 -4.8794405e-05 -7.7179211e-05 
-3.0793679e-09 7.5567863e-09 -3.7844985e-09 
1.0005443e-05 -4.5330806e-05 -8.1386213e-05 
2.7975722e-09 2.6247108e-08 5.1493663e-09 
0.0000000e+00 5.6106379e-05 0.0000000e+00 
0.0000000e+00 -1.0632606e-07 0.0000000e+00 
-1.3542408e-05 -6.9913665e-05 7.8788271e-06 
7.1960699e-08 -2.3391210e-07 9.2159972e-08 
7.4858377e-05 4.2757357e-04 3.1814521e-05 
6.5613146e-09 -4.3908969e-07 -6.6605203e-08 
0.0000000e+00 4.5128949e-05 0.0000000e+00 
0.0000000e+00 -1.8199962e-07 0.0000000e+00 
-1.4866311e-05 3.8952733e-04 1.0527491e-04 
-9.3881335e-06 2.2664244e-04 1.4274307e-04 
6.4568594e-05 -1.7430633e-04 2.1369584e-04 
-3.6809048e-05 -9.1354409e-04 1.9952715e-04 
1.3009454e-05 -2.0046451e-03 2.9666175e-04 
-2.3502609e-04 -3.2623934e-03 2.0166008e-04 
-2.8479844e-04 -4.2685592e-03 2.7011870e-04 
-2.6926133e-04 -4.4676461e-03 9.4100775e-05 
-3.4363937e-04 -4.4323392e-03 1.9250860e-05 
-3.7900670e-04 -4.5814221e-03 1.2420420e-05 
-3.4041185e-04 -4.9744537e-03 2.2199340e-05 
-2.9295450e-04 -5.0760950e-03 -4.9855174e-05 
-2.7196284e-04 -4.3153903e-03 -1.6605800e-04 
-2.1010777e-04 -3.1038856e-03 -1.3996464e-04 
-1.7933580e-04 -1.9549024e-03 -3.0927948e-04 
-1.1996743e-04 -1.0647742e-03 -2.4723014e-04 
-5.9869395e-05 -4.8936513e-04 -3.2099392e-04 
-1.7227072e-05 -1.5732259e-04 -2.4823615e-04 
2.2956954e-05 2.5619289e-05 -1.7296763e-04 
2.5611582e-05 1.2304647e-04 -7.6157972e-05 
2.1722932e-05 1.6114679e-04 9.5156065e-06 
1.7010394e-05 1.5389580e-04 5.8442241e-05 
4.9709938e-06 1.2269053e-04 5.5126762e-05 
-1.5870888e-06 9.7273347e-05 5.8583155e-05 
-3.5991218e-06 9.4775285e-05 3.5262423e-05 
-5.5957325e-06 9.7288554e-05 -7.9763549e-06 
5.6597046e-06 7.7188553e-05 -2.8663997e-05 
5.2381856e-06 2.7958389e-05 -4.7721784e-05 
6.8341233e-06 -2.5772157e-05 -3.1122090e-05 
2.7079816e-06 -4.6499630e-05 -8.7182998e-06 
-1.2684520e-05 -2.5274136e-05 -8.9175610e-06 
2.3871817e-06 1.1659803e-05 -3.3725144e-05 
-2.4642311e-06 3.0380081e-05 -5.7637728e-05 
-7.3726728e-06 2.0708814e-05 -5.4251192e-05 
2.2403369e-06 1.0193829e-05 -3.4261779e-05 
4.3171608e-06 5.2742293e-05 -2.9915594e-05 
1.0383394e-05 1.7553526e-04 -2.3216719e-05 
2.1423553e-05 3.4540819e-04 -7.5625840e-06 
7.5122080e-05 4.9064879e-04 2.3998064e-06 
4.0769530e-05 5.3149351e-04 -6.6318275e-06 
8.9754409e-05 4.3154438e-04 4.9693317e-05 
5.4981650e-05 1.6929470e-04 1.0147662e-04 
8.2547223e-05 -3.0591080e-04 2.3954535e-04 
-4.7693561e-06 -1.0599780e-03 1.9299214e-04 
-7.2030334e-06 -2.1302549e-03 3.8175500e-04 
-1.0629639e-04 -3.3683330e-03 2.4566147e-04 
-1.6700402e-04 -4.3359310e-03 3.0945078e-04 
-2.1819552e-04 -4.4845184e-03 2.3816532e-04 
-2.8352108e-04 -4.3887161e-03 2.0831579e-04 
-3.5903929e-04 -4.4816034e-03 7.0320595e-05 
-3.5636709e-04 -4.8138523e-03 -1.9045654e-05 
-3.5536426e-04 -4.8628193e-03 -1.4217492e-04 
-3.3485558e-04 -4.0894775e-03 -3.0031757e-04 
-2.3081055e-04 -2.8993350e-03 -1.9350773e-04 
-1.8321170e-04 -1.7976044e-03 -3.1617316e-04 
-1.0807681e-04 -9.5617661e-04 -2.2760782e-04 
-5.3899919e-05 -4.1242642e-04 -2.6973043e-04 
-6.5461804e-06 -9.2981471e-05 -2.0209428e-04 
1.8910823e-05 8.4587431e-05 -1.5536584e-04 
3.6646012e-05 1.7080868e-04 -6.1469531e-05 
2.3607556e-05 1.9051082e-04 4.8072293e-06 
1.6464277e-05 1.6877390e-04 4.5679462e-05 
7.7436789e-06 1.3280686e-04 5.6580488e-05 
4.8584172e-07 9.6713782e-05 3.8117883e-05 
1.3280173e-06 6.2973100e-05 2.9684088e-05 
-2.3303414e-06 2.8969465e-05 9.9465606e-06 
-2.1887690e-06 -4.6953828e-06 2.4387884e-06 
-1.2602671e-06 -2.9744289e-05 -6.4597184e-06 
-3.2749479e-06 -3.6849699e-05 -8.0762275e-06 
1.1382301e-06 -2.8311510e-05 -8.0194523e-06 
8.5928548e-07 -1.3693235e-05 -2.5415072e-06 
-4.5860574e-07 -2.6550044e-06 -1.1418048e-06 
2.0800474e-07 2.7048723e-06 -9.0071848e-07 
1.1305468e-07 4.2246706e-06 4.0946216e-07 
3.9051275e-07 3.8923813e-06 4.3353413e-07 
3.4825081e-07 2.4966509e-06 1.4682358e-06 
-2.3034684e-07 7.0716078e-07 5.0550761e-07 
-4.3263885e-08 -3.2920892e-07 -3.5559214e-08 
2.3268181e-07 1.8434234e-07 4.2587789e-07 
9.0165678e-08 1.2063193e-06 -8.0578485e-07 
1.3690254e-07 1.1674091e-06 -3.2241662e-08 
4.3724242e-08 -1.3001328e-07 3.0852692e-07 
-2.7701324e-07 -1.6461810e-06 -4.9199741e-07 
-1.6736462e-07 -2.0696496e-06 1.3222927e-07 
-9.2737686e-08 -9.5086051e-07 9.4631019e-08 
1.4463204e-07 7.2046015e-07 -4.8467395e-09 
4.1419972e-07 1.7372870e-06 7.0000198e-08 
1.5873613e-07 1.5069571e-06 1.4669854e-08 
-8.4933420e-09 3.8535006e-07 -1.2082130e-07 
-4.9558587e-08 -6.6295502e-07 1.3734079e-07 
-5.6878001e-08 -9.7093255e-07 -1.5165088e-07 
-1.9933680e-08 -6.9580818e-07 3.4672802e-08 
-7.3611766e-09 -1.8260806e-07 6.8955785e-08 
-5.5974599e-08 2.6705183e-07 -8.8231566e-08 
2.2804924e-08 4.8173433e-07 1.0317898e-07 
3.0699084e-08 5.2014519e-07 -2.6673495e-08 
-4.9025680e-08 3.9339275e-07 -4.0358827e-08 
3.0953970e-08 7.3852298e-08 -3.1730099e-09 
-1.4148695e-08 -2.7928280e-07 4.9910362e-08 
0.0000000e+00 4.2964032e-04 0.0000000e+00 
0.0000000e+00 3.9199871e-04 0.0000000e+00 
0.0000000e+00 2.2712711e-04 0.0000000e+00 
0.0000000e+00 -1.7718342e-04 0.0000000e+00 
0.0000000e+00 -9.2216232e-04 0.0000000e+00 
0.0000000e+00 -2.0173027e-03 0.0000000e+00 
0.0000000e+00 -3.2898500e-03 0.0000000e+00 
0.0000000e+00 -4.2884741e-03 0.0000000e+00 
0.0000000e+00 -4.4962591e-03 0.0000000e+00 
0.0000000e+00 -4.4514597e-03 0.0000000e+00 
0.0000000e+00 -4.6109529e-03 0.0000000e+00 
0.0000000e+00 -4.9974001e-03 0.0000000e+00 
0.0000000e+00 -5.1057818e-03 0.0000000e+00 
0.0000000e+00 -4.3338123e-03 0.0000000e+00 
0.0000000e+00 -3.1210799e-03 0.0000000e+00 
0.0000000e+00 -1.9625474e-03 0.0000000e+00 
0.0000000e+00 -1.0706136e-03 0.0000000e+00 
0.0000000e+00 -4.8978371e-04 0.0000000e+00 
0.0000000e+00 -1.5509388e-04 0.0000000e+00 
0.0000000e+00 2.7522839e-05 0.0000000e+00 
0.0000000e+00 1.2326748e-04 0.0000000e+00 
0.0000000e+00 1.6053610e-04 0.0000000e+00 
0.0000000e+00 1.5366393e-04 0.0000000e+00 
0.0000000e+00 1.2354931e-04 0.0000000e+00 
0.0000000e+00 9.9047327e-05 0.0000000e+00 
0.0000000e+00 9.5326337e-05 0.0000000e+00 
0.0000000e+00 9.6272219e-05 0.0000000e+00 
0.0000000e+00 7.5600103e-05 0.0000000e+00 
0.0000000e+00 2.7308435e-05 0.0000000e+00 
0.0000000e+00 -2.4410239e-05 0.0000000e+00 
0.0000000e+00 -4.4809225e-05 0.0000000e+00 
0.0000000e+00 -2.4861252e-05 0.0000000e+00 
0.0000000e+00 1.0537172e-05 0.0000000e+00 
0.0000000e+00 2.8504119e-05 0.0000000e+00 
0.0000000e+00 1.9208808e-05 0.0000000e+00 
0.0000000e+00 1.0965266e-05 0.0000000e+00 
0.0000000e+00 5.5299730e-05 0.0000000e+00 
0.0000000e+00 1.7795787e-04 0.0000000e+00 
0.0000000e+00 3.4674146e-04 0.0000000e+00 
0.0000000e+00 4.8909342e-04 0.0000000e+00 
0.0000000e+00 5.3064921e-04 0.0000000e+00 
0.0000000e+00 4.3236412e-04 0.0000000e+00 
0.0000000e+00 1.6980614e-04 0.0000000e+00 
0.0000000e+00 -3.0681363e-04 0.0000000e+00 
0.0000000e+00 -1.0683559e-03 0.0000000e+00 
0.0000000e+00 -2.1456107e-03 0.0000000e+00 
0.0000000e+00 -3.3962091e-03 0.0000000e+00 
0.0000000e+00 -4.3591205e-03 0.0000000e+00 
0.0000000e+00 -4.5123226e-03 0.0000000e+00 
0.0000000e+00 -4.4090585e-03 0.0000000e+00 
0.0000000e+00 -4.5105559e-03 0.0000000e+00 
0.0000000e+00 -4.8369085e-03 0.0000000e+00 
0.0000000e+00 -4.8930515e-03 0.0000000e+00 
0.0000000e+00 -4.1054189e-03 0.0000000e+00 
0.0000000e+00 -2.9166525e-03 0.0000000e+00 
0.0000000e+00 -1.8046006e-03 0.0000000e+00 
0.0000000e+00 -9.6067146e-04 0.0000000e+00 
0.0000000e+00 -4.1229863e-04 0.0000000e+00 
0.0000000e+00 -9.1333124e-05 0.0000000e+00 
0.0000000e+00 8.5617561e-05 0.0000000e+00 
0.0000000e+00 1.7076917e-04 0.0000000e+00 
0.0000000e+00 1.9067078e-04 0.0000000e+00 
0.0000000e+00 1.6971245e-04 0.0000000e+00 
0.0000000e+00 1.3337482e-04 0.0000000e+00 
0.0000000e+00 9.6710544e-05 0.0000000e+00 
0.0000000e+00 6.2714840e-05 0.0000000e+00 
0.0000000e+00 2.8748873e-05 0.0000000e+00 
0.0000000e+00 -4.5665288e-06 0.0000000e+00 
0.0000000e+00 -2.9153038e-05 0.0000000e+00 
0.0000000e+00 -3.6618985e-05 0.0000000e+00 
0.0000000e+00 -2.8454791e-05 0.0000000e+00 
0.0000000e+00 -1.4069223e-05 0.0000000e+00 
0.0000000e+00 -2.7582716e-06 0.0000000e+00 
0.0000000e+00 2.7484948e-06 0.0000000e+00 
0.0000000e+00 4.2576166e-06 0.0000000e+00 
0.0000000e+00 3.8738776e-06 0.0000000e+00 
0.0000000e+00 2.4923322e-06 0.0000000e+00 
0.0000000e+00 7.4991726e-07 0.0000000e+00 
0.0000000e+00 -2.4051437e-07 0.0000000e+00 
0.0000000e+00 1.8730749e-07 0.0000000e+00 
0.0000000e+00 1.1180481e-06 0.0000000e+00 
0.0000000e+00 1.1156257e-06 0.0000000e+00 
0.0000000e+00 -1.1445977e-07 0.0000000e+00 
0.0000000e+00 -1.5908756e-06 0.0000000e+00 
0.0000000e+00 -2.0118471e-06 0.0000000e+00 
0.0000000e+00 -9.6025599e-07 0.0000000e+00 
0.0000000e+00 6.8092601e-07 0.0000000e+00 
0.0000000e+00 1.6977403e-06 0.0000000e+00 
0.0000000e+00 1.4892054e-06 0.0000000e+00 
0.0000000e+00 4.0741753e-07 0.0000000e+00 
0.0000000e+00 -6.2024463e-07 0.0000000e+00 
0.0000000e+00 -9.6359690e-07 0.0000000e+00 
0.0000000e+00 -7.0318418e-07 0.0000000e+00 
0.0000000e+00 -1.9413832e-07 0.0000000e+00 
0.0000000e+00 2.4954718e-07 0.0000000e+00 
0.0000000e+00 4.8278298e-07 0.0000000e+00 
0.0000000e+00 5.3065600e-07 0.0000000e+00 
0.0000000e+00 3.9508294e-07 0.0000000e+00 
0.0000000e+00 7.4920884e-08 0.0000000e+00 
0.0000000e+00 -2.7987159e-07 0.0000000e+00 
0.0000000e+00 -4.3958678e-07 0.0000000e+00 
0.0000000e+00 -7.6687465e-06 0.0000000e+00 
9.2413751e-07 2.6586579e-07 -1.5809961e-06 
-3.2494907e-07 -4.0929917e-06 -4.6359645e-07 
0.0000000e+00 0.0000000e+00 0.0000000e+00 
0.0000000e+00 0.0000000e+00 0.0000000e+00 
0.0000000e+00 0.0000000e+00 0.0000000e+00 
0.0000000e+00 0.0000000e+00 0.0000000e+00 
0.0000000e+00 0.0000000e+00 0.0000000e+00 
0.0000000e+00 0.0000000e+00 0.0000000e+00 
0.0000000e+00 0.0000000e+00 0.0000000e+00 
0.0000000e+00 0.0000000e+00 0.0000000e+00 
0.0000000e+00 0.0000000e+00 0.0000000e+00 
0.0000000e+00 0.0000000e+00 0.0000000e+00 
0.0000000e+00 0.0000000e+00 0.0000000e+00 
0.0000000e+00 0.0000000e+00 0.0000000e+00 
0.0000000e+00 0.0000000e+00 0.0000000e+00 
0.0000000e+00 0.0000000e+00 0.0000000e+00 
0.0000000e+00 0.0000000e+00 0.0000000e+00 
0.0000000e+00 0.0000000e+00 0.0000000e+00 
0.0000000e+00 0.0000000e+00 0.0000000e+00 
0.0000000e+00 0.0000000e+00 0.0000000e+00 
0.0000000e+00 0.0000000e+00 0.0000000e+00 
0.0000000e+00 0.0000000e+00 0.0000000e+00 
0.0000000e+00 0.0000000e+00 0.0000000e+00 
0.0000000e+00 0.0000000e+00 0.0000000e+00 
0.0000000e+00 0.0000000e+00 0.0000000e+00 
0.0000000e+00 0.0000000e+00 0.0000000e+00 
0.0000000e+00 0.0000000e+00 0.0000000e+00 
0.0000000e+00 0.0000000e+00 0.0000000e+00 
0.0000000e+00 0.0000000e+00 0.0000000e+00 
0.0000000e+00 0.0000000e+00 0.0000000e+00 
0.0000000e+00 0.0000000e+00 0.0000000e+00 
0.0000000e+00 0.0000000e+00 0.0000000e+00 
0.0000000e+00 0.0000000e+00 0.0000000e+00 
0.0000000e+00 0.0000000e+00 0.0000000e+00 
0.0000000e+00 0.0000000e+00 0.0000000e+00 
0.0000000e+00 0.0000000e+00 0.0000000e+00 
0.0000000e+00 0.0000000e+00 0.0000000e+00 
0.0000000e+00 0.0000000e+00 0.0000000e+00 
0.0000000e+00 0.0000000e+00 0.0000000e+00 
0.0000000e+00 0.0000000e+00 0.0000000e+00 
0.0000000e+00 0.0000000e+00 0.0000000e+00 
0.0000000e+00 0.0000000e+00 0.0000000e+00 
0.0000000e+00 0.0000000e+00 0.0000000e+00 
0.0000000e+00 0.0000000e+00 0.0000000e+00 
0.0000000e+00 0.0000000e+00 0.0000000e+00 
0.0000000e+00 0.0000000e+00 0.0000000e+00 
0.0000000e+00 0.0000000e+00 0.0000000e+00 
0.0000000e+00 0.0000000e+00 0.0000000e+00 
0.0000000e+00 0.0000000e+00 0.0000000e+00 
0.0000000e+00 0.0000000e+00 0.0000000e+00 
0.0000000e+00 0.0000000e+00 0.0000000e+00 
0.0000000e+00 0.0000000e+00 0.0000000e+00 
0.0000000e+00 0.0000000e+00 0.0000000e+00 
0.0000000e+00 0.0000000e+00 0.0000000e+00 
0.0000000e+00 0.0000000e+00 0.0000000e+00 
0.0000000e+00 0.0000000e+00 0.0000000e+00 
0.0000000e+00 0.0000000e+00 0.0000000e+00 
0.0000000e+00 0.0000000e+00 0.0000000e+00 
0.0000000e+00 0.0000000e+00 0.0000000e+00 
0.0000000e+00 0.0000000e+00 0.0000000e+00 
0.0000000e+00 0.0000000e+00 0.0000000e+00 
0.0000000e+00 0.0000000e+00 0.0000000e+00 
0.0000000e+00 0.0000000e+00 0.0000000e+00 
0.0000000e+00 0.0000000e+00 0.0000000e+00 
0.0000000e+00 0.0000000e+00 0.0000000e+00 
0.0000000e+00 0.0000000e+00 0.0000000e+00 
0.0000000e+00 0.0000000e+00 0.0000000e+00 
0.0000000e+00 0.0000000e+00 0.0000000e+00 
0.0000000e+00 0.0000000e+00 0.0000000e+00 
0.0000000e+00 0.0000000e+00 0.0000000e+00 
0.0000000e+00 0.0000000e+00 0.0000000e+00 
0.0000000e+00 0.0000000e+00 0.0000000e+00 
0.0000000e+00 0.0000000e+00 0.0000000e+00 
0.0000000e+00 0.0000000e+00 0.0000000e+00 
0.0000000e+00 0.0000000e+00 0.0000000e+00 
0.0000000e+00 0.0000000e+00 0.0000000e+00 
0.0000000e+00 0.0000000e+00 0.0000000e+00 
0.0000000e+00 0.0000000e+00 0.0000000e+00 
0.0000000e+00 0.0000000e+00 0.0000000e+00 
0.0000000e+00 0.0000000e+00 0.0000000e+00 
0.0000000e+00 0.0000000e+00 0.0000000e+00 
0.0000000e+00 0.0000000e+00 0.0000000e+00 
0.0000000e+00 0.0000000e+00 0.0000000e+00 
0.0000000e+00 0.0000000e+00 0.0000000e+00 
0.0000000e+00 0.0000000e+00 0.0000000e+00 
0.0000000e+00 0.0000000e+00 0.0000000e+00 
0.0000000e+00 0.0000000e+00 0.0000000e+00 
0.0000000e+00 0.0000000e+00 0.0000000e+00 
0.0000000e+00 0.0000000e+00 0.0000000e+00 
0.0000000e+00 0.0000000e+00 0.0000000e+00 
0.0000000e+00 0.0000000e+00 0.0000000e+00 
0.0000000e+00 0.0000000e+00 0.0000000e+00 
0.0000000e+00 0.0000000e+00 0.0000000e+00 
0.0000000e+00 0.0000000e+00 0.0000000e+00 
0.0000000e+00 0.0000000e+00 0.0000000e+00 
0.0000000e+00 0.0000000e+00 0.0000000e+00 
0.0000000e+00 0.0000000e+00 0.0000000e+00 
0.0000000e+00 0.0000000e+00 0.0000000e+00 
0.0000000e+00 0.0000000e+00 0.0000000e+00 
0.0000000e+00 0.0000000e+00 0.0000000e+00 
0.0000000e+00 0.0000000e+00 0.0000000e+00 
0.0000000e+00 0.0000000e+00 0.0000000e+00 
0.0000000e+00 0.0000000e+00 0.0000000e+00 
0.0000000e+00 0.0000000e+00 0.0000000e+00 
0.0000000e+00 0.0000000e+00 0.0000000e+00 
0.0000000e+00 0.0000000e+00 0.0000000e+00 
0.0000000e+00 0.0000000e+00 0.0000000e+00 
0.0000000e+00 0.0000000e+00 0.0000000e+00 
3.4695749e-05 2.1176356e-05 -1.6655129e-05 
3.5300389e-05 3.7649173e-05 -2.2760369e-05 
3.9576524e-05 4.1018819e-05 -2.4302204e-05 
3.9689243e-05 3.9140959e-05 -1.7667569e-05 
2.5349631e-05 -6.4104288e-06 -1.3570462e-06 
1.5301870e-05 -2.6950780e-05 -1.8576357e-06 
9.6218546e-06 -3.8372869e-05 -1.3687688e-05 
1.2734853e-05 -8.0903601e-06 -1.4758315e-05 
1.0241187e-05 1.6693946e-05 4.6916634e-06 
3.5828621e-06 1.2178283e-06 1.5647702e-05 
2.5076363e-06 -1.7587876e-06 1.7701102e-05 
2.9859971e-06 2.0949328e-06 1.4325756e-05 
2.2310644e-06 -3.5017215e-06 3.9625829e-06 
-4.6077180e-06 -4.8170446e-06 2.8466829e-06 
-8.8037796e-06 1.6236954e-06 2.6046500e-06 
-1.0293731e-05 -1.3355442e-06 7.3297082e-07 
-8.4953781e-06 -2.6878581e-06 1.8868144e-06 
-5.0624258e-06 1.1114846e-05 2.2461127e-06 
8.1698436e-06 1.8558196e-05 1.4388789e-06 
1.8144507e-05 3.6191483e-05 -4.4414912e-07 
3.1194402e-05 4.8994363e-05 -2.0456421e-06 
3.4972727e-05 4.1768591e-05 -7.3714764e-06 
5.0664599e-05 2.8724518e-05 -1.1165593e-05 
3.5489564e-05 7.2316891e-07 -1.4806415e-05 
2.5834070e-05 -2.4566858e-05 -1.5646812e-05 
2.0798678e-05 -2.4212917e-05 -1.4734494e-05 
1.5627227e-05 -1.4669267e-05 -7.1633458e-06 
9.0136327e-06 -8.8784909e-06 2.8453608e-06 
5.9643567e-06 -5.0432510e-07 1.2295342e-05 
6.6862599e-06 6.0603347e-06 1.5968561e-05 
3.2955052e-06 1.1636015e-06 1.3180524e-05 
1.4823698e-06 -2.7547101e-06 8.6393711e-06 
9.6183794e-07 -4.7323738e-06 2.7034548e-06 
4.4852928e-07 -1.1822522e-06 -9.0713297e-07 
2.5067249e-07 1.3194725e-06 -9.7254576e-07 
-2.8201958e-07 1.3363638e-06 -2.1882873e-07 
-1.2289085e-07 -4.9596946e-07 2.2161137e-07 
1.4890534e-07 -5.8495903e-07 3.3353069e-07 
8.2549164e-08 1.2660777e-07 4.8086292e-08 
-8.4693330e-10 3.9345389e-07 -7.8479559e-08 
-4.3907814e-08 -2.2062022e-07 3.0732026e-09 
3.2004812e-09 -2.1873645e-07 1.2816974e-09 
-3.9263440e-08 1.6266220e-07 -3.4454278e-08 
-1.3104924e-08 -1.1658544e-08 1.8175443e-08 
1.9910134e-08 -7.1491492e-08 8.8977892e-09 
-3.0447800e-09 -3.6358094e-10 -4.6969211e-09 
-8.8664684e-09 2.4983798e-08 -5.2891953e-09 
9.6033070e-10 -2.0248354e-09 1.5218056e-09 
-1.5574244e-09 -1.3146503e-08 -1.4656960e-09 
0.0000000e+00 -7.1090901e-05 0.0000000e+00 
0.0000000e+00 -2.0254643e-04 0.0000000e+00 
0.0000000e+00 -3.6881532e-04 0.0000000e+00 
0.0000000e+00 -4.3786209e-04 0.0000000e+00 
0.0000000e+00 -5.1488902e-04 0.0000000e+00 
0.0000000e+00 -4.6935605e-04 0.0000000e+00 
0.0000000e+00 -4.0132288e-04 0.0000000e+00 
0.0000000e+00 -1.9209036e-04 0.0000000e+00 
0.0000000e+00 -5.8217156e-05 0.0000000e+00 
0.0000000e+00 1.1553125e-05 0.0000000e+00 
0.0000000e+00 3.1713920e-05 0.0000000e+00 
0.0000000e+00 3.4705138e-06 0.0000000e+00 
0.0000000e+00 1.8808610e-07 0.0000000e+00 
0.0000000e+00 1.0403410e-05 0.0000000e+00 
0.0000000e+00 3.1832082e-05 0.0000000e+00 
0.0000000e+00 6.3988758e-05 0.0000000e+00 
0.0000000e+00 4.7121248e-05 0.0000000e+00 
0.0000000e+00 4.9103051e-05 0.0000000e+00 
0.0000000e+00 1.0676528e-07 0.0000000e+00 
0.0000000e+00 -3.3547596e-05 0.0000000e+00 
0.0000000e+00 -1.1308541e-04 0.0000000e+00 
0.0000000e+00 -1.6520376e-04 0.0000000e+00 
0.0000000e+00 -4.0001643e-04 0.0000000e+00 
0.0000000e+00 -4.7176983e-04 0.0000000e+00 
0.0000000e+00 -5.4477621e-04 0.0000000e+00 
0.0000000e+00 -5.1530311e-04 0.0000000e+00 
0.0000000e+00 -3.9094622e-04 0.0000000e+00 
0.0000000e+00 -1.8591364e-04 0.0000000e+00 
0.0000000e+00 -5.4765595e-05 0.0000000e+00 
0.0000000e+00 1.8563429e-05 0.0000000e+00 
0.0000000e+00 3.2350388e-05 0.0000000e+00 
0.0000000e+00 1.1692591e-05 0.0000000e+00 
0.0000000e+00 -1.2332588e-06 0.0000000e+00 
0.0000000e+00 -2.7859446e-06 0.0000000e+00 
0.0000000e+00 -3.7413745e-06 0.0000000e+00 
0.0000000e+00 -1.1086786e-06 0.0000000e+00 
0.0000000e+00 -3.3794939e-07 0.0000000e+00 
0.0000000e+00 1.0674327e-06 0.0000000e+00 
0.0000000e+00 -5.7156467e-07 0.0000000e+00 
0.0000000e+00 4.2962230e-07 0.0000000e+00 
0.0000000e+00 5.9322025e-07 0.0000000e+00 
0.0000000e+00 -2.6550990e-07 0.0000000e+00 
0.0000000e+00 -1.5890674e-07 0.0000000e+00 
0.0000000e+00 1.3481325e-07 0.0000000e+00 
0.0000000e+00 6.1807367e-07 0.0000000e+00 
0.0000000e+00 -1.5406283e-07 0.0000000e+00 
0.0000000e+00 -2.9330326e-07 0.0000000e+00 
0.0000000e+00 1.6024052e-07 0.0000000e+00 
0.0000000e+00 1.6641944e-07 0.0000000e+00 
4.0706887e-05 2.1654614e-05 -2.3518907e-05 
3.4242461e-05 -1.7244767e-05 -4.3201115e-05 
1.0607953e-05 -3.6923622e-05 -5.1848303e-05 
-3.5904175e-06 -3.4920387e-05 -2.9702198e-05 
-4.9621987e-09 -1.2401543e-08 -3.2339813e-09 
6.4548762e-09 8.7402141e-11 4.0814863e-09 
-8.0285778e-09 2.9968557e-08 1.4918689e-08 
2.4592165e-08 -5.3937605e-08 -1.5171617e-08 
6.8876005e-05 3.8022776e-05 -5.0219733e-05 
5.9473736e-05 6.9950380e-05 -4.5163284e-05 
7.0872957e-05 8.3933774e-05 -3.6832909e-05 
1.0094045e-04 7.9788886e-05 -8.1363778e-06 
9.1525988e-05 1.4946306e-05 3.0000630e-05 
5.2461211e-05 -2.4101702e-05 3.1951382e-05 
1.0410090e-05 -3.9727081e-05 5.4595371e-06 
-3.6660881e-06 -1.8262574e-05 -2.8308370e-05 
1.2495802e-06 1.4998227e-05 -1.3374857e-05 
5.1674069e-06 4.2194015e-06 1.3091245e-05 
6.4522951e-06 -3.2092801e-06 2.8019371e-05 
2.8740653e-06 2.8678608e-06 2.7671369e-05 
-1.8767842e-06 -1.4767090e-06 1.5870341e-05 
-7.8645598e-06 -7.8105122e-06 6.1930467e-07 
-4.9406717e-06 -2.3106315e-06 -8.6795881e-06 
1.2451334e-05 1.6430728e-06 -1.2457970e-05 
2.5795747e-05 -1.9034972e-07 -2.1630365e-05 
5.5151297e-05 2.2436130e-05 -2.5108131e-05 
9.4498188e-05 3.7766524e-05 -2.4751404e-05 
1.1843858e-04 6.6398025e-05 -2.1458953e-05 