# vtk DataFile Version 4.0
vtk output
ASCII
DATASET UNSTRUCTURED_GRID
POINTS 3570 float
0.0000000e+00 0.0000000e+00 0.0000000e+00 
1.0000000e+00 0.0000000e+00 0.0000000e+00 
1.0000000e+00 1.0000000e+01 0.0000000e+00 
0.0000000e+00 1.0000000e+01 0.0000000e+00 
0.0000000e+00 0.0000000e+00 1.0000000e+00 
1.0000000e+00 0.0000000e+00 1.0000000e+00 
1.0000000e+00 1.0000000e+01 1.0000000e+00 
0.0000000e+00 1.0000000e+01 1.0000000e+00 
0.0000000e+00 5.0000000e+00 0.0000000e+00 
1.0000000e+00 5.0000000e+00 0.0000000e+00 
1.4285715e-01 0.0000000e+00 0.0000000e+00 
2.8571430e-01 0.0000000e+00 0.0000000e+00 
4.2857143e-01 0.0000000e+00 0.0000000e+00 
5.7142860e-01 0.0000000e+00 0.0000000e+00 
7.1428573e-01 0.0000000e+00 0.0000000e+00 
8.5714287e-01 0.0000000e+00 0.0000000e+00 
8.5714287e-01 1.0000000e+01 0.0000000e+00 
7.1428573e-01 1.0000000e+01 0.0000000e+00 
5.7142860e-01 1.0000000e+01 0.0000000e+00 
4.2857143e-01 1.0000000e+01 0.0000000e+00 
2.8571430e-01 1.0000000e+01 0.0000000e+00 
1.4285715e-01 1.0000000e+01 0.0000000e+00 
0.0000000e+00 0.0000000e+00 1.4285715e-01 
0.0000000e+00 0.0000000e+00 2.8571430e-01 
0.0000000e+00 0.0000000e+00 4.2857143e-01 
0.0000000e+00 0.0000000e+00 5.7142860e-01 
0.0000000e+00 0.0000000e+00 7.1428573e-01 
0.0000000e+00 0.0000000e+00 8.5714287e-01 
1.0000000e+00 0.0000000e+00 1.4285715e-01 
1.0000000e+00 0.0000000e+00 2.8571430e-01 
1.0000000e+00 0.0000000e+00 4.2857143e-01 
1.0000000e+00 0.0000000e+00 5.7142860e-01 
1.0000000e+00 0.0000000e+00 7.1428573e-01 
1.0000000e+00 0.0000000e+00 8.5714287e-01 
1.4285715e-01 0.0000000e+00 1.0000000e+00 
2.8571430e-01 0.0000000e+00 1.0000000e+00 
4.2857143e-01 0.0000000e+00 1.0000000e+00 
5.7142860e-01 0.0000000e+00 1.0000000e+00 
7.1428573e-01 0.0000000e+00 1.0000000e+00 
8.5714287e-01 0.0000000e+00 1.0000000e+00 
1.0000000e+00 1.0000000e+01 1.4285715e-01 
1.0000000e+00 1.0000000e+01 2.8571430e-01 
1.0000000e+00 1.0000000e+01 4.2857143e-01 
1.0000000e+00 1.0000000e+01 5.7142860e-01 
1.0000000e+00 1.0000000e+01 7.1428573e-01 
1.0000000e+00 1.0000000e+01 8.5714287e-01 
1.0000000e+00 1.4925373e-01 1.0000000e+00 
1.0000000e+00 2.9850745e-01 1.0000000e+00 
1.0000000e+00 4.4776121e-01 1.0000000e+00 
1.0000000e+00 5.9701490e-01 1.0000000e+00 
1.0000000e+00 7.4626863e-01 1.0000000e+00 
1.0000000e+00 8.9552242e-01 1.0000000e+00 
1.0000000e+00 1.0447761e+00 1.0000000e+00 
1.0000000e+00 1.1940298e+00 1.0000000e+00 
1.0000000e+00 1.3432835e+00 1.0000000e+00 
1.0000000e+00 1.4925373e+00 1.0000000e+00 
1.0000000e+00 1.6417910e+00 1.0000000e+00 
1.0000000e+00 1.7910448e+00 1.0000000e+00 
1.0000000e+00 1.9402986e+00 1.0000000e+00 
1.0000000e+00 2.0895522e+00 1.0000000e+00 
1.0000000e+00 2.2388060e+00 1.0000000e+00 
1.0000000e+00 2.3880596e+00 1.0000000e+00 
1.0000000e+00 2.5373135e+00 1.0000000e+00 
1.0000000e+00 2.6865671e+00 1.0000000e+00 
1.0000000e+00 2.8358209e+00 1.0000000e+00 
1.0000000e+00 2.9850745e+00 1.0000000e+00 
1.0000000e+00 3.1343284e+00 1.0000000e+00 
1.0000000e+00 3.2835820e+00 1.0000000e+00 
1.0000000e+00 3.4328358e+00 1.0000000e+00 
1.0000000e+00 3.5820897e+00 1.0000000e+00 
1.0000000e+00 3.7313433e+00 1.0000000e+00 
1.0000000e+00 3.8805971e+00 1.0000000e+00 
1.0000000e+00 4.0298510e+00 1.0000000e+00 
1.0000000e+00 4.1791043e+00 1.0000000e+00 
1.0000000e+00 4.3283582e+00 1.0000000e+00 
1.0000000e+00 4.4776120e+00 1.0000000e+00 
1.0000000e+00 4.6268659e+00 1.0000000e+00 
1.0000000e+00 4.7761192e+00 1.0000000e+00 
1.0000000e+00 4.9253731e+00 1.0000000e+00 
1.0000000e+00 5.0746269e+00 1.0000000e+00 
1.0000000e+00 5.2238808e+00 1.0000000e+00 
1.0000000e+00 5.3731341e+00 1.0000000e+00 
1.0000000e+00 5.5223880e+00 1.0000000e+00 
1.0000000e+00 5.6716418e+00 1.0000000e+00 
1.0000000e+00 5.8208957e+00 1.0000000e+00 
1.0000000e+00 5.9701490e+00 1.0000000e+00 
1.0000000e+00 6.1194029e+00 1.0000000e+00 
1.0000000e+00 6.2686567e+00 1.0000000e+00 
1.0000000e+00 6.4179106e+00 1.0000000e+00 
1.0000000e+00 6.5671639e+00 1.0000000e+00 
1.0000000e+00 6.7164178e+00 1.0000000e+00 
1.0000000e+00 6.8656716e+00 1.0000000e+00 
1.0000000e+00 7.0149255e+00 1.0000000e+00 
1.0000000e+00 7.1641793e+00 1.0000000e+00 
1.0000000e+00 7.3134327e+00 1.0000000e+00 
1.0000000e+00 7.4626865e+00 1.0000000e+00 
1.0000000e+00 7.6119404e+00 1.0000000e+00 
1.0000000e+00 7.7611942e+00 1.0000000e+00 
1.0000000e+00 7.9104476e+00 1.0000000e+00 
1.0000000e+00 8.0597019e+00 1.0000000e+00 
1.0000000e+00 8.2089548e+00 1.0000000e+00 
1.0000000e+00 8.3582087e+00 1.0000000e+00 
1.0000000e+00 8.5074625e+00 1.0000000e+00 
1.0000000e+00 8.6567163e+00 1.0000000e+00 
1.0000000e+00 8.8059702e+00 1.0000000e+00 
1.0000000e+00 8.9552240e+00 1.0000000e+00 
1.0000000e+00 9.1044779e+00 1.0000000e+00 
1.0000000e+00 9.2537317e+00 1.0000000e+00 
1.0000000e+00 9.4029846e+00 1.0000000e+00 
1.0000000e+00 9.5522385e+00 1.0000000e+00 
1.0000000e+00 9.7014923e+00 1.0000000e+00 
1.0000000e+00 9.8507462e+00 1.0000000e+00 
0.0000000e+00 1.0000000e+01 1.4285715e-01 
0.0000000e+00 1.0000000e+01 2.8571430e-01 
0.0000000e+00 1.0000000e+01 4.2857143e-01 
0.0000000e+00 1.0000000e+01 5.7142860e-01 
0.0000000e+00 1.0000000e+01 7.1428573e-01 
0.0000000e+00 1.0000000e+01 8.5714287e-01 
8.5714287e-01 1.0000000e+01 1.0000000e+00 
7.1428573e-01 1.0000000e+01 1.0000000e+00 
5.7142860e-01 1.0000000e+01 1.0000000e+00 
4.2857143e-01 1.0000000e+01 1.0000000e+00 
2.8571430e-01 1.0000000e+01 1.0000000e+00 
1.4285715e-01 1.0000000e+01 1.0000000e+00 
0.0000000e+00 9.8507462e+00 1.0000000e+00 
0.0000000e+00 9.7014923e+00 1.0000000e+00 
0.0000000e+00 9.5522385e+00 1.0000000e+00 
0.0000000e+00 9.4029846e+00 1.0000000e+00 
0.0000000e+00 9.2537317e+00 1.0000000e+00 
0.0000000e+00 9.1044779e+00 1.0000000e+00 
0.0000000e+00 8.9552240e+00 1.0000000e+00 
0.0000000e+00 8.8059702e+00 1.0000000e+00 
0.0000000e+00 8.6567163e+00 1.0000000e+00 
0.0000000e+00 8.5074625e+00 1.0000000e+00 
0.0000000e+00 8.3582087e+00 1.0000000e+00 
0.0000000e+00 8.2089548e+00 1.0000000e+00 
0.0000000e+00 8.0597019e+00 1.0000000e+00 
0.0000000e+00 7.9104476e+00 1.0000000e+00 
0.0000000e+00 7.7611942e+00 1.0000000e+00 
0.0000000e+00 7.6119404e+00 1.0000000e+00 
0.0000000e+00 7.4626865e+00 1.0000000e+00 
0.0000000e+00 7.3134327e+00 1.0000000e+00 
0.0000000e+00 7.1641793e+00 1.0000000e+00 
0.0000000e+00 7.0149255e+00 1.0000000e+00 
0.0000000e+00 6.8656716e+00 1.0000000e+00 
0.0000000e+00 6.7164178e+00 1.0000000e+00 
0.0000000e+00 6.5671639e+00 1.0000000e+00 
0.0000000e+00 6.4179106e+00 1.0000000e+00 
0.0000000e+00 6.2686567e+00 1.0000000e+00 
0.0000000e+00 6.1194029e+00 1.0000000e+00 
0.0000000e+00 5.9701490e+00 1.0000000e+00 
0.0000000e+00 5.8208957e+00 1.0000000e+00 
0.0000000e+00 5.6716418e+00 1.0000000e+00 
0.0000000e+00 5.5223880e+00 1.0000000e+00 
0.0000000e+00 5.3731341e+00 1.0000000e+00 
0.0000000e+00 5.2238808e+00 1.0000000e+00 
0.0000000e+00 5.0746269e+00 1.0000000e+00 
0.0000000e+00 4.9253731e+00 1.0000000e+00 
0.0000000e+00 4.7761192e+00 1.0000000e+00 
0.0000000e+00 4.6268659e+00 1.0000000e+00 
0.0000000e+00 4.4776120e+00 1.0000000e+00 
0.0000000e+00 4.3283582e+00 1.0000000e+00 
0.0000000e+00 4.1791043e+00 1.0000000e+00 
0.0000000e+00 4.0298510e+00 1.0000000e+00 
0.0000000e+00 3.8805971e+00 1.0000000e+00 
0.0000000e+00 3.7313433e+00 1.0000000e+00 
0.0000000e+00 3.5820897e+00 1.0000000e+00 
0.0000000e+00 3.4328358e+00 1.0000000e+00 
0.0000000e+00 3.2835820e+00 1.0000000e+00 
0.0000000e+00 3.1343284e+00 1.0000000e+00 
0.0000000e+00 2.9850745e+00 1.0000000e+00 
0.0000000e+00 2.8358209e+00 1.0000000e+00 
0.0000000e+00 2.6865671e+00 1.0000000e+00 
0.0000000e+00 2.5373135e+00 1.0000000e+00 
0.0000000e+00 2.3880596e+00 1.0000000e+00 
0.0000000e+00 2.2388060e+00 1.0000000e+00 
0.0000000e+00 2.0895522e+00 1.0000000e+00 
0.0000000e+00 1.9402986e+00 1.0000000e+00 
0.0000000e+00 1.7910448e+00 1.0000000e+00 
0.0000000e+00 1.6417910e+00 1.0000000e+00 
0.0000000e+00 1.4925373e+00 1.0000000e+00 
0.0000000e+00 1.3432835e+00 1.0000000e+00 
0.0000000e+00 1.1940298e+00 1.0000000e+00 
0.0000000e+00 1.0447761e+00 1.0000000e+00 
0.0000000e+00 8.9552242e-01 1.0000000e+00 
0.0000000e+00 7.4626863e-01 1.0000000e+00 
0.0000000e+00 5.9701490e-01 1.0000000e+00 
0.0000000e+00 4.4776121e-01 1.0000000e+00 
0.0000000e+00 2.9850745e-01 1.0000000e+00 
0.0000000e+00 1.4925373e-01 1.0000000e+00 
1.4285715e-01 5.0000000e+00 0.0000000e+00 
2.8571430e-01 5.0000000e+00 0.0000000e+00 
4.2857143e-01 5.0000000e+00 0.0000000e+00 
5.7142860e-01 5.0000000e+00 0.0000000e+00 
7.1428573e-01 5.0000000e+00 0.0000000e+00 
8.5714287e-01 5.0000000e+00 0.0000000e+00 
0.0000000e+00 4.8529410e+00 0.0000000e+00 
0.0000000e+00 4.7058825e+00 0.0000000e+00 
0.0000000e+00 4.5588236e+00 0.0000000e+00 
0.0000000e+00 4.4117646e+00 0.0000000e+00 
0.0000000e+00 4.2647057e+00 0.0000000e+00 
0.0000000e+00 4.1176472e+00 0.0000000e+00 
0.0000000e+00 3.9705882e+00 0.0000000e+00 
0.0000000e+00 3.8235295e+00 0.0000000e+00 
0.0000000e+00 3.6764705e+00 0.0000000e+00 
0.0000000e+00 3.5294118e+00 0.0000000e+00 
0.0000000e+00 3.3823528e+00 0.0000000e+00 
0.0000000e+00 3.2352941e+00 0.0000000e+00 
0.0000000e+00 3.0882354e+00 0.0000000e+00 
0.0000000e+00 2.9411764e+00 0.0000000e+00 
0.0000000e+00 2.7941177e+00 0.0000000e+00 
0.0000000e+00 2.6470587e+00 0.0000000e+00 
0.0000000e+00 2.5000000e+00 0.0000000e+00 
0.0000000e+00 2.3529413e+00 0.0000000e+00 
0.0000000e+00 2.2058823e+00 0.0000000e+00 
0.0000000e+00 2.0588236e+00 0.0000000e+00 
0.0000000e+00 1.9117647e+00 0.0000000e+00 
0.0000000e+00 1.7647059e+00 0.0000000e+00 
0.0000000e+00 1.6176471e+00 0.0000000e+00 
0.0000000e+00 1.4705882e+00 0.0000000e+00 
0.0000000e+00 1.3235294e+00 0.0000000e+00 
0.0000000e+00 1.1764706e+00 0.0000000e+00 
0.0000000e+00 1.0294118e+00 0.0000000e+00 
0.0000000e+00 8.8235295e-01 0.0000000e+00 
0.0000000e+00 7.3529410e-01 0.0000000e+00 
0.0000000e+00 5.8823532e-01 0.0000000e+00 
0.0000000e+00 4.4117647e-01 0.0000000e+00 
0.0000000e+00 2.9411766e-01 0.0000000e+00 
0.0000000e+00 1.4705883e-01 0.0000000e+00 
1.0000000e+00 1.4705883e-01 0.0000000e+00 
[...]
POINT_DATA 3570
FIELD FieldData 2
VELOCITY 3 3570  float
0.0000000e+00 0.0000000e+00 0.0000000e+00 
0.0000000e+00 0.0000000e+00 0.0000000e+00 
0.0000000e+00 2.9534465e-03 0.0000000e+00 
0.0000000e+00 2.8477435e-03 0.0000000e+00 
0.0000000e+00 0.0000000e+00 0.0000000e+00 
0.0000000e+00 0.0000000e+00 0.0000000e+00 
0.0000000e+00 3.2185554e-03 0.0000000e+00 
0.0000000e+00 3.1000464e-03 0.0000000e+00 
0.0000000e+00 2.4034157e-04 0.0000000e+00 
0.0000000e+00 2.5201723e-04 0.0000000e+00 
0.0000000e+00 0.0000000e+00 0.0000000e+00 
0.0000000e+00 0.0000000e+00 0.0000000e+00 
0.0000000e+00 0.0000000e+00 0.0000000e+00 
0.0000000e+00 0.0000000e+00 0.0000000e+00 
0.0000000e+00 0.0000000e+00 0.0000000e+00 
0.0000000e+00 0.0000000e+00 0.0000000e+00 
0.0000000e+00 3.4021491e-03 0.0000000e+00 
0.0000000e+00 3.1460929e-03 0.0000000e+00 
0.0000000e+00 3.0751778e-03 0.0000000e+00 
0.0000000e+00 2.9379956e-03 0.0000000e+00 
0.0000000e+00 2.8776242e-03 0.0000000e+00 
0.0000000e+00 3.3353374e-03 0.0000000e+00 
0.0000000e+00 0.0000000e+00 0.0000000e+00 
0.0000000e+00 0.0000000e+00 0.0000000e+00 
0.0000000e+00 0.0000000e+00 0.0000000e+00 
0.0000000e+00 0.0000000e+00 0.0000000e+00 
0.0000000e+00 0.0000000e+00 0.0000000e+00 
0.0000000e+00 0.0000000e+00 0.0000000e+00 
0.0000000e+00 0.0000000e+00 0.0000000e+00 
0.0000000e+00 0.0000000e+00 0.0000000e+00 
0.0000000e+00 0.0000000e+00 0.0000000e+00 
0.0000000e+00 0.0000000e+00 0.0000000e+00 
0.0000000e+00 0.0000000e+00 0.0000000e+00 
0.0000000e+00 0.0000000e+00 0.0000000e+00 
0.0000000e+00 0.0000000e+00 0.0000000e+00 
0.0000000e+00 0.0000000e+00 0.0000000e+00 
0.0000000e+00 0.0000000e+00 0.0000000e+00 
0.0000000e+00 0.0000000e+00 0.0000000e+00 
0.0000000e+00 0.0000000e+00 0.0000000e+00 
0.0000000e+00 0.0000000e+00 0.0000000e+00 
0.0000000e+00 3.2291443e-03 0.0000000e+00 
0.0000000e+00 3.2038593e-03 0.0000000e+00 
0.0000000e+00 3.1292357e-03 0.0000000e+00 
0.0000000e+00 3.1630103e-03 0.0000000e+00 
0.0000000e+00 3.3341642e-03 0.0000000e+00 
0.0000000e+00 3.0856289e-03 0.0000000e+00 
0.0000000e+00 1.3326644e-05 0.0000000e+00 
0.0000000e+00 1.6885006e-05 0.0000000e+00 
0.0000000e+00 1.1580653e-05 0.0000000e+00 
0.0000000e+00 7.6270144e-06 0.0000000e+00 
0.0000000e+00 1.4933332e-05 0.0000000e+00 
0.0000000e+00 2.6545003e-05 0.0000000e+00 
0.0000000e+00 2.3969909e-05 0.0000000e+00 
0.0000000e+00 -1.1112958e-05 0.0000000e+00 
0.0000000e+00 -7.0317998e-05 0.0000000e+00 
0.0000000e+00 -1.1939309e-04 0.0000000e+00 
0.0000000e+00 -1.0622040e-04 0.0000000e+00 
0.0000000e+00 -4.5343058e-06 0.0000000e+00 
0.0000000e+00 1.5275330e-04 0.0000000e+00 
0.0000000e+00 2.7534796e-04 0.0000000e+00 
0.0000000e+00 2.7201130e-04 0.0000000e+00 
0.0000000e+00 1.1468297e-04 0.0000000e+00 
0.0000000e+00 -1.2267160e-04 0.0000000e+00 
0.0000000e+00 -3.0523975e-04 0.0000000e+00 
0.0000000e+00 -3.2085500e-04 0.0000000e+00 
0.0000000e+00 -1.7073628e-04 0.0000000e+00 
0.0000000e+00 3.1395899e-05 0.0000000e+00 
0.0000000e+00 1.7869782e-04 0.0000000e+00 
0.0000000e+00 2.0866033e-04 0.0000000e+00 
0.0000000e+00 1.7605189e-04 0.0000000e+00 
0.0000000e+00 1.6546414e-04 0.0000000e+00 
0.0000000e+00 1.8074962e-04 0.0000000e+00 
0.0000000e+00 1.3575557e-04 0.0000000e+00 
0.0000000e+00 -3.1800137e-05 0.0000000e+00 
0.0000000e+00 -2.3982179e-04 0.0000000e+00 
0.0000000e+00 -3.1511160e-04 0.0000000e+00 
0.0000000e+00 -1.7223350e-04 0.0000000e+00 
0.0000000e+00 6.7423098e-05 0.0000000e+00 
0.0000000e+00 2.1986247e-04 0.0000000e+00 
0.0000000e+00 2.5024597e-04 0.0000000e+00 
0.0000000e+00 3.0171248e-04 0.0000000e+00 
0.0000000e+00 4.7275296e-04 0.0000000e+00 
0.0000000e+00 6.4891222e-04 0.0000000e+00 
0.0000000e+00 6.3461129e-04 0.0000000e+00 
0.0000000e+00 4.7259210e-04 0.0000000e+00 
0.0000000e+00 3.8768930e-04 0.0000000e+00 
0.0000000e+00 4.7434532e-04 0.0000000e+00 
0.0000000e+00 5.3572864e-04 0.0000000e+00 
0.0000000e+00 4.3417345e-04 0.0000000e+00 
0.0000000e+00 4.0135378e-04 0.0000000e+00 
0.0000000e+00 6.5530289e-04 0.0000000e+00 
0.0000000e+00 1.0209049e-03 0.0000000e+00 
0.0000000e+00 1.2573790e-03 0.0000000e+00 
0.0000000e+00 1.5462837e-03 0.0000000e+00 
0.0000000e+00 2.0423066e-03 0.0000000e+00 
0.0000000e+00 2.3291749e-03 0.0000000e+00 
0.0000000e+00 2.3766994e-03 0.0000000e+00 
0.0000000e+00 2.6677474e-03 0.0000000e+00 
0.0000000e+00 2.9417623e-03 0.0000000e+00 
0.0000000e+00 2.9319350e-03 0.0000000e+00 
0.0000000e+00 3.1459765e-03 0.0000000e+00 
0.0000000e+00 3.2691741e-03 0.0000000e+00 
0.0000000e+00 3.0579309e-03 0.0000000e+00 
0.0000000e+00 3.1677682e-03 0.0000000e+00 
0.0000000e+00 3.1288476e-03 0.0000000e+00 
0.0000000e+00 3.0643491e-03 0.0000000e+00 
0.0000000e+00 2.9602202e-03 0.0000000e+00 
0.0000000e+00 2.9774155e-03 0.0000000e+00 
0.0000000e+00 3.0159454e-03 0.0000000e+00 
0.0000000e+00 2.9516804e-03 0.0000000e+00 
0.0000000e+00 3.0242091e-03 0.0000000e+00 
0.0000000e+00 3.1860643e-03 0.0000000e+00 
0.0000000e+00 3.2543205e-03 0.0000000e+00 
0.0000000e+00 3.1707941e-03 0.0000000e+00 
0.0000000e+00 2.9434506e-03 0.0000000e+00 
0.0000000e+00 3.2804199e-03 0.0000000e+00 
0.0000000e+00 2.9072708e-03 0.0000000e+00 
0.0000000e+00 3.3887601e-03 0.0000000e+00 
0.0000000e+00 3.3344442e-03 0.0000000e+00 
0.0000000e+00 3.0033358e-03 0.0000000e+00 
0.0000000e+00 3.1696975e-03 0.0000000e+00 
0.0000000e+00 3.0968692e-03 0.0000000e+00 
0.0000000e+00 2.9644070e-03 0.0000000e+00 
0.0000000e+00 3.2972049e-03 0.0000000e+00 
0.0000000e+00 3.3580153e-03 0.0000000e+00 
0.0000000e+00 2.8895834e-03 0.0000000e+00 
0.0000000e+00 2.7651975e-03 0.0000000e+00 
0.0000000e+00 2.8269470e-03 0.0000000e+00 
0.0000000e+00 2.8840445e-03 0.0000000e+00 
0.0000000e+00 3.0451303e-03 0.0000000e+00 
0.0000000e+00 2.9629231e-03 0.0000000e+00 
0.0000000e+00 3.0622024e-03 0.0000000e+00 
0.0000000e+00 3.2062575e-03 0.0000000e+00 
0.0000000e+00 2.9233899e-03 0.0000000e+00 
0.0000000e+00 3.0883534e-03 0.0000000e+00 
0.0000000e+00 3.0385307e-03 0.0000000e+00 
0.0000000e+00 2.9250367e-03 0.0000000e+00 
0.0000000e+00 3.0199566e-03 0.0000000e+00 
0.0000000e+00 2.8274111e-03 0.0000000e+00 
0.0000000e+00 2.4475411e-03 0.0000000e+00 
0.0000000e+00 2.2622324e-03 0.0000000e+00 
0.0000000e+00 1.9908827e-03 0.0000000e+00 
0.0000000e+00 1.5412394e-03 0.0000000e+00 
0.0000000e+00 1.2305883e-03 0.0000000e+00 
0.0000000e+00 1.0226422e-03 0.0000000e+00 
0.0000000e+00 6.7858840e-04 0.0000000e+00 
0.0000000e+00 3.9710131e-04 0.0000000e+00 
0.0000000e+00 4.1727183e-04 0.0000000e+00 
0.0000000e+00 5.1688479e-04 0.0000000e+00 
0.0000000e+00 4.7824136e-04 0.0000000e+00 
0.0000000e+00 4.1737419e-04 0.0000000e+00 
0.0000000e+00 5.1314820e-04 0.0000000e+00 
0.0000000e+00 6.5402314e-04 0.0000000e+00 
0.0000000e+00 6.2396930e-04 0.0000000e+00 
0.0000000e+00 4.3075593e-04 0.0000000e+00 
0.0000000e+00 2.6217347e-04 0.0000000e+00 
0.0000000e+00 2.1799511e-04 0.0000000e+00 
0.0000000e+00 1.7979341e-04 0.0000000e+00 
0.0000000e+00 6.7534074e-06 0.0000000e+00 
0.0000000e+00 -2.2487651e-04 0.0000000e+00 
0.0000000e+00 -3.2703855e-04 0.0000000e+00 
0.0000000e+00 -2.1355443e-04 0.0000000e+00 
0.0000000e+00 1.7172295e-05 0.0000000e+00 
0.0000000e+00 1.7738967e-04 0.0000000e+00 
0.0000000e+00 2.0261231e-04 0.0000000e+00 
0.0000000e+00 1.7493805e-04 0.0000000e+00 
0.0000000e+00 1.7802542e-04 0.0000000e+00 
0.0000000e+00 2.1325980e-04 0.0000000e+00 
0.0000000e+00 1.9220418e-04 0.0000000e+00 
0.0000000e+00 5.7748308e-05 0.0000000e+00 
0.0000000e+00 -1.4669071e-04 0.0000000e+00 
0.0000000e+00 -2.9615720e-04 0.0000000e+00 
0.0000000e+00 -2.9237635e-04 0.0000000e+00 
0.0000000e+00 -1.2880511e-04 0.0000000e+00 
0.0000000e+00 1.0207491e-04 0.0000000e+00 
0.0000000e+00 2.5595073e-04 0.0000000e+00 
0.0000000e+00 2.5547919e-04 0.0000000e+00 
0.0000000e+00 1.2902590e-04 0.0000000e+00 
0.0000000e+00 -3.0051424e-05 0.0000000e+00 
0.0000000e+00 -1.2813967e-04 0.0000000e+00 
0.0000000e+00 -1.3023643e-04 0.0000000e+00 
0.0000000e+00 -7.2591218e-05 0.0000000e+00 
0.0000000e+00 -4.0096006e-06 0.0000000e+00 
0.0000000e+00 3.3569362e-05 0.0000000e+00 
0.0000000e+00 3.3283544e-05 0.0000000e+00 
0.0000000e+00 1.4207953e-05 0.0000000e+00 
0.0000000e+00 -4.1919353e-07 0.0000000e+00 
0.0000000e+00 -2.6947544e-06 0.0000000e+00 
0.0000000e+00 2.7414665e-06 0.0000000e+00 
0.0000000e+00 4.7695985e-06 0.0000000e+00 
0.0000000e+00 2.4048015e-04 0.0000000e+00 
0.0000000e+00 2.3385949e-04 0.0000000e+00 
0.0000000e+00 2.2045577e-04 0.0000000e+00 
0.0000000e+00 2.2334723e-04 0.0000000e+00 
0.0000000e+00 2.4244809e-04 0.0000000e+00 
0.0000000e+00 2.5570317e-04 0.0000000e+00 
0.0000000e+00 1.4347222e-04 0.0000000e+00 
0.0000000e+00 -8.1098558e-05 0.0000000e+00 
0.0000000e+00 -2.8613914e-04 0.0000000e+00 
0.0000000e+00 -3.1424186e-04 0.0000000e+00 
0.0000000e+00 -1.4507851e-04 0.0000000e+00 
0.0000000e+00 6.5960448e-05 0.0000000e+00 
0.0000000e+00 1.7392958e-04 0.0000000e+00 
0.0000000e+00 1.7082282e-04 0.0000000e+00 
0.0000000e+00 1.5060550e-04 0.0000000e+00 
0.0000000e+00 1.7569597e-04 0.0000000e+00 
0.0000000e+00 2.0809581e-04 0.0000000e+00 
0.0000000e+00 1.5825589e-04 0.0000000e+00 
0.0000000e+00 -8.7619537e-06 0.0000000e+00 
0.0000000e+00 -2.1070307e-04 0.0000000e+00 
0.0000000e+00 -3.2013684e-04 0.0000000e+00 
0.0000000e+00 -2.6492454e-04 0.0000000e+00 
0.0000000e+00 -7.2423878e-05 0.0000000e+00 
0.0000000e+00 1.4918427e-04 0.0000000e+00 
0.0000000e+00 2.7226246e-04 0.0000000e+00 
0.0000000e+00 2.4248195e-04 0.0000000e+00 
0.0000000e+00 1.0265402e-04 0.0000000e+00 
0.0000000e+00 -5.0707316e-05 0.0000000e+00 
0.0000000e+00 -1.3429213e-04 0.0000000e+00 
0.0000000e+00 -1.2967522e-04 0.0000000e+00 
0.0000000e+00 -7.1068680e-05 0.0000000e+00 
0.0000000e+00 -5.2007681e-06 0.0000000e+00 
0.0000000e+00 3.2444561e-05 0.0000000e+00 
0.0000000e+00 3.6217418e-05 0.0000000e+00 
0.0000000e+00 2.6392188e-05 0.0000000e+00 
0.0000000e+00 1.9892914e-05 0.0000000e+00 
0.0000000e+00 2.1455940e-05 0.0000000e+00 
0.0000000e+00 2.4134848e-05 0.0000000e+00 
0.0000000e+00 1.7127824e-05 0.0000000e+00 
0.0000000e+00 3.5148505e-06 0.0000000e+00 
0.0000000e+00 -5.7339321e-07 0.0000000e+00 
0.0000000e+00 -9.3858953e-06 0.0000000e+00 
0.0000000e+00 -1.1232229e-05 0.0000000e+00 
0.0000000e+00 1.0477660e-06 0.0000000e+00 
0.0000000e+00 2.0542058e-05 0.0000000e+00 
0.0000000e+00 2.6996740e-05 0.0000000e+00 
0.0000000e+00 -1.0410696e-06 0.0000000e+00 
0.0000000e+00 -6.0630558e-05 0.0000000e+00 
0.0000000e+00 -1.1836622e-04 0.0000000e+00 
0.0000000e+00 -1.2427547e-04 0.0000000e+00 
0.0000000e+00 -4.0983723e-05 0.0000000e+00 
0.0000000e+00 1.1670754e-04 0.0000000e+00 
0.0000000e+00 2.6238841e-04 0.0000000e+00 
0.0000000e+00 2.9614868e-04 0.0000000e+00 
0.0000000e+00 1.7034145e-04 0.0000000e+00 
0.0000000e+00 -6.0195365e-05 0.0000000e+00 
0.0000000e+00 -2.7371023e-04 0.0000000e+00 
0.0000000e+00 -3.3196359e-04 0.0000000e+00 
0.0000000e+00 -2.0853541e-04 0.0000000e+00 
0.0000000e+00 3.2193170e-06 0.0000000e+00 
0.0000000e+00 1.6985145e-04 0.0000000e+00 
0.0000000e+00 2.2006595e-04 0.0000000e+00 
0.0000000e+00 1.8845027e-04 0.0000000e+00 
0.0000000e+00 1.6312467e-04 0.0000000e+00 
0.0000000e+00 1.7988629e-04 0.0000000e+00 
0.0000000e+00 1.7877312e-04 0.0000000e+00 
0.0000000e+00 6.7861918e-05 0.0000000e+00 
0.0000000e+00 -1.4292487e-04 0.0000000e+00 
0.0000000e+00 -3.0780869e-04 0.0000000e+00 
0.0000000e+00 -2.8014980e-04 0.0000000e+00 
0.0000000e+00 -6.1127321e-05 0.0000000e+00 
0.0000000e+00 1.6177936e-04 0.0000000e+00 
0.0000000e+00 3.2303471e-03 0.0000000e+00 
0.0000000e+00 2.9875706e-03 0.0000000e+00 
0.0000000e+00 2.6938801e-03 0.0000000e+00 
0.0000000e+00 3.0154043e-03 0.0000000e+00 
0.0000000e+00 3.0458635e-03 0.0000000e+00 
0.0000000e+00 2.9269548e-03 0.0000000e+00 
0.0000000e+00 2.9728075e-03 0.0000000e+00 
0.0000000e+00 3.0452772e-03 0.0000000e+00 
0.0000000e+00 3.2223691e-03 0.0000000e+00 
0.0000000e+00 3.1381624e-03 0.0000000e+00 
0.0000000e+00 3.2852935e-03 0.0000000e+00 
0.0000000e+00 3.1084295e-03 0.0000000e+00 
0.0000000e+00 2.7829171e-03 0.0000000e+00 
0.0000000e+00 2.9013131e-03 0.0000000e+00 
0.0000000e+00 2.7909002e-03 0.0000000e+00 
0.0000000e+00 2.3925973e-03 0.0000000e+00 
0.0000000e+00 2.2423032e-03 0.0000000e+00 
0.0000000e+00 2.0734982e-03 0.0000000e+00 
0.0000000e+00 1.6911346e-03 0.0000000e+00 
0.0000000e+00 1.3805707e-03 0.0000000e+00 
0.0000000e+00 1.1878272e-03 0.0000000e+00 
0.0000000e+00 8.6957897e-04 0.0000000e+00 
0.0000000e+00 5.3019653e-04 0.0000000e+00 
0.0000000e+00 4.2022011e-04 0.0000000e+00 
0.0000000e+00 4.8940990e-04 0.0000000e+00 
0.0000000e+00 4.6562401e-04 0.0000000e+00 
0.0000000e+00 3.6597863e-04 0.0000000e+00 
0.0000000e+00 4.0162847e-04 0.0000000e+00 
0.0000000e+00 6.0030865e-04 0.0000000e+00 
0.0000000e+00 7.2092575e-04 0.0000000e+00 
0.0000000e+00 5.9466262e-04 0.0000000e+00 
0.0000000e+00 3.6400420e-04 0.0000000e+00 
0.0000000e+00 2.5363517e-04 0.0000000e+00 
0.0000000e+00 2.4424176e-04 0.0000000e+00 
0.0000000e+00 3.2793119e-04 0.0000000e+00 
0.0000000e+00 5.2533159e-04 0.0000000e+00 
0.0000000e+00 6.5755815e-04 0.0000000e+00 
0.0000000e+00 5.8437575e-04 0.0000000e+00 
0.0000000e+00 4.0195728e-04 0.0000000e+00 
0.0000000e+00 3.5122730e-04 0.0000000e+00 
0.0000000e+00 4.4930659e-04 0.0000000e+00 
0.0000000e+00 4.8036841e-04 0.0000000e+00 
0.0000000e+00 4.1133317e-04 0.0000000e+00 
0.0000000e+00 4.9557764e-04 0.0000000e+00 
0.0000000e+00 8.1777666e-04 0.0000000e+00 
0.0000000e+00 1.1276407e-03 0.0000000e+00 
0.0000000e+00 1.3368177e-03 0.0000000e+00 
0.0000000e+00 1.6866577e-03 0.0000000e+00 
0.0000000e+00 2.0913198e-03 0.0000000e+00 
0.0000000e+00 2.2396636e-03 0.0000000e+00 
0.0000000e+00 2.4016723e-03 0.0000000e+00 
0.0000000e+00 2.7737257e-03 0.0000000e+00 
0.0000000e+00 2.8400172e-03 0.0000000e+00 
0.0000000e+00 2.7361871e-03 0.0000000e+00 
0.0000000e+00 3.0905604e-03 0.0000000e+00 
0.0000000e+00 3.2328004e-03 0.0000000e+00 
0.0000000e+00 3.0607928e-03 0.0000000e+00 
0.0000000e+00 3.1011845e-03 0.0000000e+00 
0.0000000e+00 2.9268286e-03 0.0000000e+00 
0.0000000e+00 2.8913468e-03 0.0000000e+00 
0.0000000e+00 2.9170425e-03 0.0000000e+00 
0.0000000e+00 3.1023021e-03 0.0000000e+00 
0.0000000e+00 3.2118643e-03 0.0000000e+00 
0.0000000e+00 2.9958053e-03 0.0000000e+00 
0.0000000e+00 2.9185829e-03 0.0000000e+00 
0.0000000e+00 3.2169770e-03 0.0000000e+00 
0.0000000e+00 0.0000000e+00 0.0000000e+00 
0.0000000e+00 0.0000000e+00 0.0000000e+00 
0.0000000e+00 0.0000000e+00 0.0000000e+00 
0.0000000e+00 0.0000000e+00 0.0000000e+00 
0.0000000e+00 0.0000000e+00 0.0000000e+00 
0.0000000e+00 0.0000000e+00 0.0000000e+00 
0.0000000e+00 0.0000000e+00 0.0000000e+00 
0.0000000e+00 0.0000000e+00 0.0000000e+00 
0.0000000e+00 0.0000000e+00 0.0000000e+00 
0.0000000e+00 0.0000000e+00 0.0000000e+00 
0.0000000e+00 0.0000000e+00 0.0000000e+00 
0.0000000e+00 0.0000000e+00 0.0000000e+00 
0.0000000e+00 0.0000000e+00 0.0000000e+00 
0.0000000e+00 0.0000000e+00 0.0000000e+00 
0.0000000e+00 0.0000000e+00 0.0000000e+00 
0.0000000e+00 0.0000000e+00 0.0000000e+00 
0.0000000e+00 0.0000000e+00 0.0000000e+00 
0.0000000e+00 0.0000000e+00 0.0000000e+00 
0.0000000e+00 0.0000000e+00 0.0000000e+00 
0.0000000e+00 0.0000000e+00 0.0000000e+00 
0.0000000e+00 0.0000000e+00 0.0000000e+00 
0.0000000e+00 0.0000000e+00 0.0000000e+00 
0.0000000e+00 0.0000000e+00 0.0000000e+00 
0.0000000e+00 0.0000000e+00 0.0000000e+00 
0.0000000e+00 0.0000000e+00 0.0000000e+00 
0.0000000e+00 0.0000000e+00 0.0000000e+00 
0.0000000e+00 0.0000000e+00 0.0000000e+00 
0.0000000e+00 0.0000000e+00 0.0000000e+00 
0.0000000e+00 0.0000000e+00 0.0000000e+00 
0.0000000e+00 0.0000000e+00 0.0000000e+00 
0.0000000e+00 0.0000000e+00 0.0000000e+00 
0.0000000e+00 0.0000000e+00 0.0000000e+00 
0.0000000e+00 0.0000000e+00 0.0000000e+00 
0.0000000e+00 0.0000000e+00 0.0000000e+00 
0.0000000e+00 0.0000000e+00 0.0000000e+00 
0.0000000e+00 0.0000000e+00 0.0000000e+00 
0.0000000e+00 0.0000000e+00 0.0000000e+00 
0.0000000e+00 0.0000000e+00 0.0000000e+00 
0.0000000e+00 0.0000000e+00 0.0000000e+00 
0.0000000e+00 0.0000000e+00 0.0000000e+00 
0.0000000e+00 0.0000000e+00 0.0000000e+00 
0.0000000e+00 0.0000000e+00 0.0000000e+00 
0.0000000e+00 0.0000000e+00 0.0000000e+00 
0.0000000e+00 0.0000000e+00 0.0000000e+00 
0.0000000e+00 0.0000000e+00 0.0000000e+00 
0.0000000e+00 0.0000000e+00 0.0000000e+00 
0.0000000e+00 3.0146418e-03 0.0000000e+00 
0.0000000e+00 1.0725415e-05 0.0000000e+00 
0.0000000e+00 3.0625185e-03 0.0000000e+00 
0.0000000e+00 -1.1228749e-06 0.0000000e+00 
0.0000000e+00 2.9616700e-03 0.0000000e+00 
0.0000000e+00 1.7024904e-05 0.0000000e+00 
0.0000000e+00 3.0988376e-03 0.0000000e+00 
0.0000000e+00 -1.3635770e-04 0.0000000e+00 
0.0000000e+00 2.8929771e-03 0.0000000e+00 
0.0000000e+00 2.1784213e-04 0.0000000e+00 
0.0000000e+00 2.2968657e-03 0.0000000e+00 
0.0000000e+00 3.6608678e-06 0.0000000e+00 
0.0000000e+00 -2.8803537e-04 0.0000000e+00 
0.0000000e+00 1.4612296e-03 0.0000000e+00 
0.0000000e+00 6.0953037e-04 0.0000000e+00 
0.0000000e+00 2.1359119e-04 0.0000000e+00 
0.0000000e+00 4.6336793e-04 0.0000000e+00 
0.0000000e+00 1.6716718e-04 0.0000000e+00 
0.0000000e+00 5.1158888e-04 0.0000000e+00 
0.0000000e+00 -1.2858831e-05 0.0000000e+00 
0.0000000e+00 4.0946345e-04 0.0000000e+00 
0.0000000e+00 -2.1845764e-04 0.0000000e+00 
0.0000000e+00 2.5546874e-04 0.0000000e+00 
0.0000000e+00 -3.0657896e-04 0.0000000e+00 
0.0000000e+00 6.5485050e-04 0.0000000e+00 
0.0000000e+00 1.8217022e-04 0.0000000e+00 
0.0000000e+00 4.1651833e-04 0.0000000e+00 
0.0000000e+00 3.8887610e-04 0.0000000e+00 
0.0000000e+00 1.9259090e-04 0.0000000e+00 
0.0000000e+00 1.1636640e-03 0.0000000e+00 
0.0000000e+00 -5.9091948e-05 0.0000000e+00 
0.0000000e+00 2.2103232e-03 0.0000000e+00 
0.0000000e+00 -2.4140497e-04 0.0000000e+00 
0.0000000e+00 2.8830331e-03 0.0000000e+00 
0.0000000e+00 2.8605841e-04 0.0000000e+00 
0.0000000e+00 3.2188718e-03 0.0000000e+00 
0.0000000e+00 -7.2106661e-05 0.0000000e+00 
0.0000000e+00 3.1294639e-03 0.0000000e+00 
0.0000000e+00 -4.5051409e-05 0.0000000e+00 
0.0000000e+00 2.9710277e-03 0.0000000e+00 
0.0000000e+00 2.4245735e-05 0.0000000e+00 
0.0000000e+00 1.1333437e-05 0.0000000e+00 
0.0000000e+00 3.1090642e-03 0.0000000e+00 
0.0000000e+00 3.7914643e-04 0.0000000e+00 
0.0000000e+00 -5.7377569e-05 0.0000000e+00 
0.0000000e+00 2.1679094e-04 0.0000000e+00 
0.0000000e+00 3.1444926e-03 0.0000000e+00 
0.0000000e+00 -1.8364530e-06 0.0000000e+00 
0.0000000e+00 3.1121525e-03 0.0000000e+00 
0.0000000e+00 1.7735862e-05 0.0000000e+00 
0.0000000e+00 3.0458204e-03 0.0000000e+00 
0.0000000e+00 6.6069306e-06 0.0000000e+00 
0.0000000e+00 3.0939211e-03 0.0000000e+00 
0.0000000e+00 3.0951926e-03 0.0000000e+00 
0.0000000e+00 3.0669034e-03 0.0000000e+00 
0.0000000e+00 2.8970530e-03 0.0000000e+00 
0.0000000e+00 3.0587087e-03 0.0000000e+00 
0.0000000e+00 3.0839215e-03 0.0000000e+00 
0.0000000e+00 3.0920366e-03 0.0000000e+00 
0.0000000e+00 3.1013924e-03 0.0000000e+00 
0.0000000e+00 2.9985260e-03 0.0000000e+00 
0.0000000e+00 3.0320843e-03 0.0000000e+00 
0.0000000e+00 3.0856174e-03 0.0000000e+00 
0.0000000e+00 3.0038997e-03 0.0000000e+00 
0.0000000e+00 3.0355619e-03 0.0000000e+00 
0.0000000e+00 3.0138772e-03 0.0000000e+00 
0.0000000e+00 3.1107084e-03 0.0000000e+00 
0.0000000e+00 3.1830340e-03 0.0000000e+00 
0.0000000e+00 3.1511269e-03 0.0000000e+00 
0.0000000e+00 3.1629570e-03 0.0000000e+00 
0.0000000e+00 3.0983912e-03 0.0000000e+00 
0.0000000e+00 3.1547600e-03 0.0000000e+00 
0.0000000e+00 3.1418786e-03 0.0000000e+00 
0.0000000e+00 3.0531019e-03 0.0000000e+00 
0.0000000e+00 2.9991886e-03 0.0000000e+00 
0.0000000e+00 2.8847302e-03 0.0000000e+00 
0.0000000e+00 2.9288046e-03 0.0000000e+00 
0.0000000e+00 2.9061264e-03 0.0000000e+00 
0.0000000e+00 2.8651599e-03 0.0000000e+00 
0.0000000e+00 2.7455862e-03 0.0000000e+00 
0.0000000e+00 2.5633282e-03 0.0000000e+00 
0.0000000e+00 2.4090761e-03 0.0000000e+00 
0.0000000e+00 2.3299367e-03 0.0000000e+00 
0.0000000e+00 2.2821766e-03 0.0000000e+00 
0.0000000e+00 2.2033018e-03 0.0000000e+00 
0.0000000e+00 2.0113497e-03 0.0000000e+00 
0.0000000e+00 1.7719859e-03 0.0000000e+00 
0.0000000e+00 1.5347210e-03 0.0000000e+00 