# vtk DataFile Version 4.0
vtk output
ASCII
DATASET UNSTRUCTURED_GRID
POINTS 3570 float
0.0000000e+00 0.0000000e+00 0.0000000e+00 
1.0000000e+00 0.0000000e+00 0.0000000e+00 
1.0000000e+00 1.0000000e+01 0.0000000e+00 
0.0000000e+00 1.0000000e+01 0.0000000e+00 
0.0000000e+00 0.0000000e+00 1.0000000e+00 
1.0000000e+00 0.0000000e+00 1.0000000e+00 
1.0000000e+00 1.0000000e+01 1.0000000e+00 
0.0000000e+00 1.0000000e+01 1.0000000e+00 
0.0000000e+00 5.0000000e+00 0.0000000e+00 
1.0000000e+00 5.0000000e+00 0.0000000e+00 
1.4285715e-01 0.0000000e+00 0.0000000e+00 
2.8571430e-01 0.0000000e+00 0.0000000e+00 
4.2857143e-01 0.0000000e+00 0.0000000e+00 
5.7142860e-01 0.0000000e+00 0.0000000e+00 
7.1428573e-01 0.0000000e+00 0.0000000e+00 
8.5714287e-01 0.0000000e+00 0.0000000e+00 
8.5714287e-01 1.0000000e+01 0.0000000e+00 
7.1428573e-01 1.0000000e+01 0.0000000e+00 
5.7142860e-01 1.0000000e+01 0.0000000e+00 
4.2857143e-01 1.0000000e+01 0.0000000e+00 
2.8571430e-01 1.0000000e+01 0.0000000e+00 
1.4285715e-01 1.0000000e+01 0.0000000e+00 
0.0000000e+00 0.0000000e+00 1.4285715e-01 
0.0000000e+00 0.0000000e+00 2.8571430e-01 
0.0000000e+00 0.0000000e+00 4.2857143e-01 
0.0000000e+00 0.0000000e+00 5.7142860e-01 
0.0000000e+00 0.0000000e+00 7.1428573e-01 
0.0000000e+00 0.0000000e+00 8.5714287e-01 
1.0000000e+00 0.0000000e+00 1.4285715e-01 
1.0000000e+00 0.0000000e+00 2.8571430e-01 
1.0000000e+00 0.0000000e+00 4.2857143e-01 
1.0000000e+00 0.0000000e+00 5.7142860e-01 
1.0000000e+00 0.0000000e+00 7.1428573e-01 
1.0000000e+00 0.0000000e+00 8.5714287e-01 
1.4285715e-01 0.0000000e+00 1.0000000e+00 
2.8571430e-01 0.0000000e+00 1.0000000e+00 
4.2857143e-01 0.0000000e+00 1.0000000e+00 
5.7142860e-01 0.0000000e+00 1.0000000e+00 
7.1428573e-01 0.0000000e+00 1.0000000e+00 
8.5714287e-01 0.0000000e+00 1.0000000e+00 
1.0000000e+00 1.0000000e+01 1.4285715e-01 
1.0000000e+00 1.0000000e+01 2.8571430e-01 
1.0000000e+00 1.0000000e+01 4.2857143e-01 
1.0000000e+00 1.0000000e+01 5.7142860e-01 
1.0000000e+00 1.0000000e+01 7.1428573e-01 
1.0000000e+00 1.0000000e+01 8.5714287e-01 
1.0000000e+00 1.4925373e-01 1.0000000e+00 
1.0000000e+00 2.9850745e-01 1.0000000e+00 
1.0000000e+00 4.4776121e-01 1.0000000e+00 
1.0000000e+00 5.9701490e-01 1.0000000e+00 
1.0000000e+00 7.4626863e-01 1.0000000e+00 
1.0000000e+00 8.9552242e-01 1.0000000e+00 
1.0000000e+00 1.0447761e+00 1.0000000e+00 
1.0000000e+00 1.1940298e+00 1.0000000e+00 
1.0000000e+00 1.3432835e+00 1.0000000e+00 
1.0000000e+00 1.4925373e+00 1.0000000e+00 
1.0000000e+00 1.6417910e+00 1.0000000e+00 
1.0000000e+00 1.7910448e+00 1.0000000e+00 
1.0000000e+00 1.9402986e+00 1.0000000e+00 
1.0000000e+00 2.0895522e+00 1.0000000e+00 
1.0000000e+00 2.2388060e+00 1.0000000e+00 
1.0000000e+00 2.3880596e+00 1.0000000e+00 
1.0000000e+00 2.5373135e+00 1.0000000e+00 
1.0000000e+00 2.6865671e+00 1.0000000e+00 
1.0000000e+00 2.8358209e+00 1.0000000e+00 
1.0000000e+00 2.9850745e+00 1.0000000e+00 
1.0000000e+00 3.1343284e+00 1.0000000e+00 
1.0000000e+00 3.2835820e+00 1.0000000e+00 
1.0000000e+00 3.4328358e+00 1.0000000e+00 
1.0000000e+00 3.5820897e+00 1.0000000e+00 
1.0000000e+00 3.7313433e+00 1.0000000e+00 
1.0000000e+00 3.8805971e+00 1.0000000e+00 
1.0000000e+00 4.0298510e+00 1.0000000e+00 
1.0000000e+00 4.1791043e+00 1.0000000e+00 
1.0000000e+00 4.3283582e+00 1.0000000e+00 
1.0000000e+00 4.4776120e+00 1.0000000e+00 
1.0000000e+00 4.6268659e+00 1.0000000e+00 
1.0000000e+00 4.7761192e+00 1.0000000e+00 
1.0000000e+00 4.9253731e+00 1.0000000e+00 
1.0000000e+00 5.0746269e+00 1.0000000e+00 
1.0000000e+00 5.2238808e+00 1.0000000e+00 
1.0000000e+00 5.3731341e+00 1.0000000e+00 
1.0000000e+00 5.5223880e+00 1.0000000e+00 
1.0000000e+00 5.6716418e+00 1.0000000e+00 
1.0000000e+00 5.8208957e+00 1.0000000e+00 
1.0000000e+00 5.9701490e+00 1.0000000e+00 
1.0000000e+00 6.1194029e+00 1.0000000e+00 
1.0000000e+00 6.2686567e+00 1.0000000e+00 
1.0000000e+00 6.4179106e+00 1.0000000e+00 
1.0000000e+00 6.5671639e+00 1.0000000e+00 
1.0000000e+00 6.7164178e+00 1.0000000e+00 
1.0000000e+00 6.8656716e+00 1.0000000e+00 
1.0000000e+00 7.0149255e+00 1.0000000e+00 
1.0000000e+00 7.1641793e+00 1.0000000e+00 
1.0000000e+00 7.3134327e+00 1.0000000e+00 
1.0000000e+00 7.4626865e+00 1.0000000e+00 
1.0000000e+00 7.6119404e+00 1.0000000e+00 
1.0000000e+00 7.7611942e+00 1.0000000e+00 
1.0000000e+00 7.9104476e+00 1.0000000e+00 
1.0000000e+00 8.0597019e+00 1.0000000e+00 
1.0000000e+00 8.2089548e+00 1.0000000e+00 
1.0000000e+00 8.3582087e+00 1.0000000e+00 
1.0000000e+00 8.5074625e+00 1.0000000e+00 
1.0000000e+00 8.6567163e+00 1.0000000e+00 
1.0000000e+00 8.8059702e+00 1.0000000e+00 
1.0000000e+00 8.9552240e+00 1.0000000e+00 
1.0000000e+00 9.1044779e+00 1.0000000e+00 
1.0000000e+00 9.2537317e+00 1.0000000e+00 
1.0000000e+00 9.4029846e+00 1.0000000e+00 
1.0000000e+00 9.5522385e+00 1.0000000e+00 
1.0000000e+00 9.7014923e+00 1.0000000e+00 
1.0000000e+00 9.8507462e+00 1.0000000e+00 
0.0000000e+00 1.0000000e+01 1.4285715e-01 
0.0000000e+00 1.0000000e+01 2.8571430e-01 
0.0000000e+00 1.0000000e+01 4.2857143e-01 
0.0000000e+00 1.0000000e+01 5.7142860e-01 
0.0000000e+00 1.0000000e+01 7.1428573e-01 
0.0000000e+00 1.0000000e+01 8.5714287e-01 
8.5714287e-01 1.0000000e+01 1.0000000e+00 
7.1428573e-01 1.0000000e+01 1.0000000e+00 
5.7142860e-01 1.0000000e+01 1.0000000e+00 
4.2857143e-01 1.0000000e+01 1.0000000e+00 
2.8571430e-01 1.0000000e+01 1.0000000e+00 
1.4285715e-01 1.0000000e+01 1.0000000e+00 
0.0000000e+00 9.8507462e+00 1.0000000e+00 
0.0000000e+00 9.7014923e+00 1.0000000e+00 
0.0000000e+00 9.5522385e+00 1.0000000e+00 
0.0000000e+00 9.4029846e+00 1.0000000e+00 
0.0000000e+00 9.2537317e+00 1.0000000e+00 
0.0000000e+00 9.1044779e+00 1.0000000e+00 
0.0000000e+00 8.9552240e+00 1.0000000e+00 
0.0000000e+00 8.8059702e+00 1.0000000e+00 
0.0000000e+00 8.6567163e+00 1.0000000e+00 
0.0000000e+00 8.5074625e+00 1.0000000e+00 
0.0000000e+00 8.3582087e+00 1.0000000e+00 
0.0000000e+00 8.2089548e+00 1.0000000e+00 
0.0000000e+00 8.0597019e+00 1.0000000e+00 
0.0000000e+00 7.9104476e+00 1.0000000e+00 
0.0000000e+00 7.7611942e+00 1.0000000e+00 
0.0000000e+00 7.6119404e+00 1.0000000e+00 
0.0000000e+00 7.4626865e+00 1.0000000e+00 
0.0000000e+00 7.3134327e+00 1.0000000e+00 
0.0000000e+00 7.1641793e+00 1.0000000e+00 
0.0000000e+00 7.0149255e+00 1.0000000e+00 
0.0000000e+00 6.8656716e+00 1.0000000e+00 
0.0000000e+00 6.7164178e+00 1.0000000e+00 
0.0000000e+00 6.5671639e+00 1.0000000e+00 
0.0000000e+00 6.4179106e+00 1.0000000e+00 
0.0000000e+00 6.2686567e+00 1.0000000e+00 
0.0000000e+00 6.1194029e+00 1.0000000e+00 
0.0000000e+00 5.9701490e+00 1.0000000e+00 
0.0000000e+00 5.8208957e+00 1.0000000e+00 
0.0000000e+00 5.6716418e+00 1.0000000e+00 
0.0000000e+00 5.5223880e+00 1.0000000e+00 
0.0000000e+00 5.3731341e+00 1.0000000e+00 
0.0000000e+00 5.2238808e+00 1.0000000e+00 
0.0000000e+00 5.0746269e+00 1.0000000e+00 
0.0000000e+00 4.9253731e+00 1.0000000e+00 
0.0000000e+00 4.7761192e+00 1.0000000e+00 
0.0000000e+00 4.6268659e+00 1.0000000e+00 
0.0000000e+00 4.4776120e+00 1.0000000e+00 
0.0000000e+00 4.3283582e+00 1.0000000e+00 
0.0000000e+00 4.1791043e+00 1.0000000e+00 
0.0000000e+00 4.0298510e+00 1.0000000e+00 
0.0000000e+00 3.8805971e+00 1.0000000e+00 
0.0000000e+00 3.7313433e+00 1.0000000e+00 
0.0000000e+00 3.5820897e+00 1.0000000e+00 
0.0000000e+00 3.4328358e+00 1.0000000e+00 
0.0000000e+00 3.2835820e+00 1.0000000e+00 
0.0000000e+00 3.1343284e+00 1.0000000e+00 
0.0000000e+00 2.9850745e+00 1.0000000e+00 
0.0000000e+00 2.8358209e+00 1.0000000e+00 
0.0000000e+00 2.6865671e+00 1.0000000e+00 
0.0000000e+00 2.5373135e+00 1.0000000e+00 
0.0000000e+00 2.3880596e+00 1.0000000e+00 
0.0000000e+00 2.2388060e+00 1.0000000e+00 
0.0000000e+00 2.0895522e+00 1.0000000e+00 
0.0000000e+00 1.9402986e+00 1.0000000e+00 
0.0000000e+00 1.7910448e+00 1.0000000e+00 
0.0000000e+00 1.6417910e+00 1.0000000e+00 
0.0000000e+00 1.4925373e+00 1.0000000e+00 
0.0000000e+00 1.3432835e+00 1.0000000e+00 
0.0000000e+00 1.1940298e+00 1.0000000e+00 
0.0000000e+00 1.0447761e+00 1.0000000e+00 
0.0000000e+00 8.9552242e-01 1.0000000e+00 
0.0000000e+00 7.4626863e-01 1.0000000e+00 
0.0000000e+00 5.9701490e-01 1.0000000e+00 
0.0000000e+00 4.4776121e-01 1.0000000e+00 
0.0000000e+00 2.9850745e-01 1.0000000e+00 
0.0000000e+00 1.4925373e-01 1.0000000e+00 
1.4285715e-01 5.0000000e+00 0.0000000e+00 
2.8571430e-01 5.0000000e+00 0.0000000e+00 
4.2857143e-01 5.0000000e+00 0.0000000e+00 
5.7142860e-01 5.0000000e+00 0.0000000e+00 
7.1428573e-01 5.0000000e+00 0.0000000e+00 
8.5714287e-01 5.0000000e+00 0.0000000e+00 
0.0000000e+00 4.8529410e+00 0.0000000e+00 
0.0000000e+00 4.7058825e+00 0.0000000e+00 
0.0000000e+00 4.5588236e+00 0.0000000e+00 
0.0000000e+00 4.4117646e+00 0.0000000e+00 
0.0000000e+00 4.2647057e+00 0.0000000e+00 
0.0000000e+00 4.1176472e+00 0.0000000e+00 
0.0000000e+00 3.9705882e+00 0.0000000e+00 
0.0000000e+00 3.8235295e+00 0.0000000e+00 
0.0000000e+00 3.6764705e+00 0.0000000e+00 
0.0000000e+00 3.5294118e+00 0.0000000e+00 
0.0000000e+00 3.3823528e+00 0.0000000e+00 
0.0000000e+00 3.2352941e+00 0.0000000e+00 
0.0000000e+00 3.0882354e+00 0.0000000e+00 
0.0000000e+00 2.9411764e+00 0.0000000e+00 
0.0000000e+00 2.7941177e+00 0.0000000e+00 
0.0000000e+00 2.6470587e+00 0.0000000e+00 
0.0000000e+00 2.5000000e+00 0.0000000e+00 
0.0000000e+00 2.3529413e+00 0.0000000e+00 
0.0000000e+00 2.2058823e+00 0.0000000e+00 
0.0000000e+00 2.0588236e+00 0.0000000e+00 
0.0000000e+00 1.9117647e+00 0.0000000e+00 
0.0000000e+00 1.7647059e+00 0.0000000e+00 
0.0000000e+00 1.6176471e+00 0.0000000e+00 
0.0000000e+00 1.4705882e+00 0.0000000e+00 
0.0000000e+00 1.3235294e+00 0.0000000e+00 
0.0000000e+00 1.1764706e+00 0.0000000e+00 
0.0000000e+00 1.0294118e+00 0.0000000e+00 
0.0000000e+00 8.8235295e-01 0.0000000e+00 
0.0000000e+00 7.3529410e-01 0.0000000e+00 
0.0000000e+00 5.8823532e-01 0.0000000e+00 
0.0000000e+00 4.4117647e-01 0.0000000e+00 
0.0000000e+00 2.9411766e-01 0.0000000e+00 
0.0000000e+00 1.4705883e-01 0.0000000e+00 
1.0000000e+00 1.4705883e-01 0.0000000e+00 
[...]
POINT_DATA 3570
FIELD FieldData 2
VELOCITY 3 3570  float
0.0000000e+00 0.0000000e+00 0.0000000e+00 
0.0000000e+00 0.0000000e+00 0.0000000e+00 
0.0000000e+00 -2.9784723e-03 0.0000000e+00 
0.0000000e+00 -2.9801922e-03 0.0000000e+00 
0.0000000e+00 0.0000000e+00 0.0000000e+00 
0.0000000e+00 0.0000000e+00 0.0000000e+00 
0.0000000e+00 -2.8978384e-03 0.0000000e+00 
0.0000000e+00 -2.9240723e-03 0.0000000e+00 
0.0000000e+00 -3.5874161e-04 0.0000000e+00 
0.0000000e+00 -3.5779845e-04 0.0000000e+00 
0.0000000e+00 0.0000000e+00 0.0000000e+00 
0.0000000e+00 0.0000000e+00 0.0000000e+00 
0.0000000e+00 0.0000000e+00 0.0000000e+00 
0.0000000e+00 0.0000000e+00 0.0000000e+00 
0.0000000e+00 0.0000000e+00 0.0000000e+00 
0.0000000e+00 0.0000000e+00 0.0000000e+00 
0.0000000e+00 -2.9634987e-03 0.0000000e+00 
0.0000000e+00 -3.1596867e-03 0.0000000e+00 
0.0000000e+00 -3.2167684e-03 0.0000000e+00 
0.0000000e+00 -3.0258386e-03 0.0000000e+00 
0.0000000e+00 -3.0910498e-03 0.0000000e+00 
0.0000000e+00 -3.0782991e-03 0.0000000e+00 
0.0000000e+00 0.0000000e+00 0.0000000e+00 
0.0000000e+00 0.0000000e+00 0.0000000e+00 
0.0000000e+00 0.0000000e+00 0.0000000e+00 
0.0000000e+00 0.0000000e+00 0.0000000e+00 
0.0000000e+00 0.0000000e+00 0.0000000e+00 
0.0000000e+00 0.0000000e+00 0.0000000e+00 
0.0000000e+00 0.0000000e+00 0.0000000e+00 
0.0000000e+00 0.0000000e+00 0.0000000e+00 
0.0000000e+00 0.0000000e+00 0.0000000e+00 
0.0000000e+00 0.0000000e+00 0.0000000e+00 
0.0000000e+00 0.0000000e+00 0.0000000e+00 
0.0000000e+00 0.0000000e+00 0.0000000e+00 
0.0000000e+00 0.0000000e+00 0.0000000e+00 
0.0000000e+00 0.0000000e+00 0.0000000e+00 
0.0000000e+00 0.0000000e+00 0.0000000e+00 
0.0000000e+00 0.0000000e+00 0.0000000e+00 
0.0000000e+00 0.0000000e+00 0.0000000e+00 
0.0000000e+00 0.0000000e+00 0.0000000e+00 
0.0000000e+00 -3.0680750e-03 0.0000000e+00 
0.0000000e+00 -2.9373027e-03 0.0000000e+00 
0.0000000e+00 -2.9621178e-03 0.0000000e+00 
0.0000000e+00 -3.0654753e-03 0.0000000e+00 
0.0000000e+00 -3.2254779e-03 0.0000000e+00 
0.0000000e+00 -2.9515740e-03 0.0000000e+00 
0.0000000e+00 -2.5308161e-10 0.0000000e+00 
0.0000000e+00 -5.6957639e-10 0.0000000e+00 
0.0000000e+00 -1.0139032e-09 0.0000000e+00 
0.0000000e+00 -1.6970092e-09 0.0000000e+00 
0.0000000e+00 -2.7597720e-09 0.0000000e+00 
0.0000000e+00 -4.4842232e-09 0.0000000e+00 
0.0000000e+00 -7.2639783e-09 0.0000000e+00 
0.0000000e+00 -1.1681766e-08 0.0000000e+00 
0.0000000e+00 -1.8819964e-08 0.0000000e+00 
0.0000000e+00 -2.9836542e-08 0.0000000e+00 
0.0000000e+00 -4.7239105e-08 0.0000000e+00 
0.0000000e+00 -7.5020978e-08 0.0000000e+00 
0.0000000e+00 -1.1719622e-07 0.0000000e+00 
0.0000000e+00 -1.8281692e-07 0.0000000e+00 
0.0000000e+00 -2.8426402e-07 0.0000000e+00 
0.0000000e+00 -4.4342065e-07 0.0000000e+00 
0.0000000e+00 -6.8908435e-07 0.0000000e+00 
0.0000000e+00 -1.0587224e-06 0.0000000e+00 
0.0000000e+00 -1.6247805e-06 0.0000000e+00 
0.0000000e+00 -2.4762574e-06 0.0000000e+00 
0.0000000e+00 -3.7448183e-06 0.0000000e+00 
0.0000000e+00 -5.6248400e-06 0.0000000e+00 
0.0000000e+00 -8.4475569e-06 0.0000000e+00 
0.0000000e+00 -1.2637641e-05 0.0000000e+00 
0.0000000e+00 -1.8565925e-05 0.0000000e+00 
0.0000000e+00 -2.7133628e-05 0.0000000e+00 
0.0000000e+00 -3.9433140e-05 0.0000000e+00 
0.0000000e+00 -5.6804216e-05 0.0000000e+00 
0.0000000e+00 -8.1103572e-05 0.0000000e+00 
0.0000000e+00 -1.1469064e-04 0.0000000e+00 
0.0000000e+00 -1.6140204e-04 0.0000000e+00 
0.0000000e+00 -2.2497623e-04 0.0000000e+00 
0.0000000e+00 -3.0856303e-04 0.0000000e+00 
0.0000000e+00 -4.1780391e-04 0.0000000e+00 
0.0000000e+00 -5.5964460e-04 0.0000000e+00 
0.0000000e+00 -7.3767401e-04 0.0000000e+00 
0.0000000e+00 -9.5606630e-04 0.0000000e+00 
0.0000000e+00 -1.2198098e-03 0.0000000e+00 
0.0000000e+00 -1.5257997e-03 0.0000000e+00 
0.0000000e+00 -1.8678379e-03 0.0000000e+00 
0.0000000e+00 -2.2355525e-03 0.0000000e+00 
0.0000000e+00 -2.6085095e-03 0.0000000e+00 
0.0000000e+00 -2.9573485e-03 0.0000000e+00 
0.0000000e+00 -3.2474990e-03 0.0000000e+00 
0.0000000e+00 -3.4438141e-03 0.0000000e+00 
0.0000000e+00 -3.5218592e-03 0.0000000e+00 
0.0000000e+00 -3.4581895e-03 0.0000000e+00 
0.0000000e+00 -3.2555000e-03 0.0000000e+00 
0.0000000e+00 -2.9581652e-03 0.0000000e+00 
0.0000000e+00 -2.6411379e-03 0.0000000e+00 
0.0000000e+00 -2.3978581e-03 0.0000000e+00 
0.0000000e+00 -2.3244985e-03 0.0000000e+00 
0.0000000e+00 -2.4548615e-03 0.0000000e+00 
0.0000000e+00 -2.7393405e-03 0.0000000e+00 
0.0000000e+00 -3.0466076e-03 0.0000000e+00 
0.0000000e+00 -3.2032770e-03 0.0000000e+00 
0.0000000e+00 -3.0933251e-03 0.0000000e+00 
0.0000000e+00 -2.7758889e-03 0.0000000e+00 
0.0000000e+00 -2.5137973e-03 0.0000000e+00 
0.0000000e+00 -2.5649657e-03 0.0000000e+00 
0.0000000e+00 -2.9067395e-03 0.0000000e+00 
0.0000000e+00 -3.0735417e-03 0.0000000e+00 
0.0000000e+00 -2.7828864e-03 0.0000000e+00 
0.0000000e+00 -2.5948507e-03 0.0000000e+00 
0.0000000e+00 -2.9894356e-03 0.0000000e+00 
0.0000000e+00 -2.7220950e-03 0.0000000e+00 
0.0000000e+00 -3.0597541e-03 0.0000000e+00 
0.0000000e+00 -3.0466106e-03 0.0000000e+00 
0.0000000e+00 -3.3018764e-03 0.0000000e+00 
0.0000000e+00 -2.8846699e-03 0.0000000e+00 
0.0000000e+00 -3.0897246e-03 0.0000000e+00 
0.0000000e+00 -3.1140149e-03 0.0000000e+00 
0.0000000e+00 -3.0027363e-03 0.0000000e+00 
0.0000000e+00 -3.2515845e-03 0.0000000e+00 
0.0000000e+00 -3.1781932e-03 0.0000000e+00 
0.0000000e+00 -3.1435445e-03 0.0000000e+00 
0.0000000e+00 -3.1671000e-03 0.0000000e+00 
0.0000000e+00 -3.0136844e-03 0.0000000e+00 
0.0000000e+00 -2.7469441e-03 0.0000000e+00 
0.0000000e+00 -2.9737870e-03 0.0000000e+00 
0.0000000e+00 -2.5987127e-03 0.0000000e+00 
0.0000000e+00 -2.7940597e-03 0.0000000e+00 
0.0000000e+00 -3.0683675e-03 0.0000000e+00 
0.0000000e+00 -2.8966288e-03 0.0000000e+00 
0.0000000e+00 -2.5428601e-03 0.0000000e+00 
0.0000000e+00 -2.4779071e-03 0.0000000e+00 
0.0000000e+00 -2.7547458e-03 0.0000000e+00 
0.0000000e+00 -3.0853408e-03 0.0000000e+00 
0.0000000e+00 -3.2056686e-03 0.0000000e+00 
0.0000000e+00 -3.0428157e-03 0.0000000e+00 
0.0000000e+00 -2.7274669e-03 0.0000000e+00 
0.0000000e+00 -2.4430333e-03 0.0000000e+00 
0.0000000e+00 -2.3317670e-03 0.0000000e+00 
0.0000000e+00 -2.4074472e-03 0.0000000e+00 
0.0000000e+00 -2.6456313e-03 0.0000000e+00 
0.0000000e+00 -2.9640032e-03 0.0000000e+00 
0.0000000e+00 -3.2570250e-03 0.0000000e+00 
0.0000000e+00 -3.4580452e-03 0.0000000e+00 
0.0000000e+00 -3.5300453e-03 0.0000000e+00 
0.0000000e+00 -3.4572585e-03 0.0000000e+00 
0.0000000e+00 -3.2569596e-03 0.0000000e+00 
0.0000000e+00 -2.9630980e-03 0.0000000e+00 
0.0000000e+00 -2.6116155e-03 0.0000000e+00 
0.0000000e+00 -2.2372585e-03 0.0000000e+00 
0.0000000e+00 -1.8687430e-03 0.0000000e+00 
0.0000000e+00 -1.5257583e-03 0.0000000e+00 
0.0000000e+00 -1.2205762e-03 0.0000000e+00 
0.0000000e+00 -9.5740770e-04 0.0000000e+00 
0.0000000e+00 -7.3713146e-04 0.0000000e+00 
0.0000000e+00 -5.5923837e-04 0.0000000e+00 
0.0000000e+00 -4.1749378e-04 0.0000000e+00 
0.0000000e+00 -3.0755645e-04 0.0000000e+00 
0.0000000e+00 -2.2401259e-04 0.0000000e+00 
0.0000000e+00 -1.6211323e-04 0.0000000e+00 
0.0000000e+00 -1.1576474e-04 0.0000000e+00 
0.0000000e+00 -8.1457911e-05 0.0000000e+00 
0.0000000e+00 -5.6885947e-05 0.0000000e+00 
0.0000000e+00 -3.9442279e-05 0.0000000e+00 
0.0000000e+00 -2.7221955e-05 0.0000000e+00 
0.0000000e+00 -1.8552642e-05 0.0000000e+00 
0.0000000e+00 -1.2528209e-05 0.0000000e+00 
0.0000000e+00 -8.3946315e-06 0.0000000e+00 
0.0000000e+00 -5.6288454e-06 0.0000000e+00 
0.0000000e+00 -3.7491072e-06 0.0000000e+00 
0.0000000e+00 -2.4711101e-06 0.0000000e+00 
0.0000000e+00 -1.6210745e-06 0.0000000e+00 
0.0000000e+00 -1.0570573e-06 0.0000000e+00 
0.0000000e+00 -6.8352625e-07 0.0000000e+00 
0.0000000e+00 -4.4244800e-07 0.0000000e+00 
0.0000000e+00 -2.8389383e-07 0.0000000e+00 
0.0000000e+00 -1.8207687e-07 0.0000000e+00 
0.0000000e+00 -1.1695283e-07 0.0000000e+00 
0.0000000e+00 -7.4139898e-08 0.0000000e+00 
0.0000000e+00 -4.6732882e-08 0.0000000e+00 
0.0000000e+00 -2.9504029e-08 0.0000000e+00 
0.0000000e+00 -1.8545439e-08 0.0000000e+00 
0.0000000e+00 -1.1654465e-08 0.0000000e+00 
0.0000000e+00 -7.2316295e-09 0.0000000e+00 
0.0000000e+00 -4.5017856e-09 0.0000000e+00 
0.0000000e+00 -2.8045459e-09 0.0000000e+00 
0.0000000e+00 -1.7163617e-09 0.0000000e+00 
0.0000000e+00 -1.0201694e-09 0.0000000e+00 
0.0000000e+00 -5.6924282e-10 0.0000000e+00 
0.0000000e+00 -2.5187827e-10 0.0000000e+00 
0.0000000e+00 -3.6064428e-04 0.0000000e+00 
0.0000000e+00 -3.6019989e-04 0.0000000e+00 
0.0000000e+00 -3.5919514e-04 0.0000000e+00 
0.0000000e+00 -3.5892840e-04 0.0000000e+00 
0.0000000e+00 -3.5842406e-04 0.0000000e+00 
0.0000000e+00 -3.5759286e-04 0.0000000e+00 
0.0000000e+00 -2.6498645e-04 0.0000000e+00 
0.0000000e+00 -1.9370133e-04 0.0000000e+00 
0.0000000e+00 -1.3975814e-04 0.0000000e+00 
0.0000000e+00 -9.9275043e-05 0.0000000e+00 
0.0000000e+00 -7.0187445e-05 0.0000000e+00 
0.0000000e+00 -4.9199985e-05 0.0000000e+00 
0.0000000e+00 -3.4080636e-05 0.0000000e+00 
0.0000000e+00 -2.3432554e-05 0.0000000e+00 
0.0000000e+00 -1.6127040e-05 0.0000000e+00 
0.0000000e+00 -1.0928016e-05 0.0000000e+00 
0.0000000e+00 -7.3443657e-06 0.0000000e+00 
0.0000000e+00 -4.9184409e-06 0.0000000e+00 
0.0000000e+00 -3.2717005e-06 0.0000000e+00 
0.0000000e+00 -2.1769961e-06 0.0000000e+00 
0.0000000e+00 -1.4421441e-06 0.0000000e+00 
0.0000000e+00 -9.4647919e-07 0.0000000e+00 
0.0000000e+00 -6.1794645e-07 0.0000000e+00 
0.0000000e+00 -4.0289808e-07 0.0000000e+00 
0.0000000e+00 -2.5986827e-07 0.0000000e+00 
0.0000000e+00 -1.6707028e-07 0.0000000e+00 
0.0000000e+00 -1.0723093e-07 0.0000000e+00 
0.0000000e+00 -6.8633028e-08 0.0000000e+00 
0.0000000e+00 -4.3897305e-08 0.0000000e+00 
0.0000000e+00 -2.8086133e-08 0.0000000e+00 
0.0000000e+00 -1.7697067e-08 0.0000000e+00 
0.0000000e+00 -1.1039669e-08 0.0000000e+00 
0.0000000e+00 -6.8555868e-09 0.0000000e+00 
0.0000000e+00 -4.3005697e-09 0.0000000e+00 
0.0000000e+00 -2.6855922e-09 0.0000000e+00 
0.0000000e+00 -1.6459282e-09 0.0000000e+00 
0.0000000e+00 -9.8354191e-10 0.0000000e+00 
0.0000000e+00 -5.5435090e-10 0.0000000e+00 
0.0000000e+00 -2.4760455e-10 0.0000000e+00 
0.0000000e+00 -2.4930402e-10 0.0000000e+00 
0.0000000e+00 -5.5890942e-10 0.0000000e+00 
0.0000000e+00 -9.9148600e-10 0.0000000e+00 
0.0000000e+00 -1.6541613e-09 0.0000000e+00 
0.0000000e+00 -2.6836791e-09 0.0000000e+00 
0.0000000e+00 -4.3083013e-09 0.0000000e+00 
0.0000000e+00 -6.9447399e-09 0.0000000e+00 
0.0000000e+00 -1.1118157e-08 0.0000000e+00 
0.0000000e+00 -1.7624766e-08 0.0000000e+00 
0.0000000e+00 -2.7722162e-08 0.0000000e+00 
0.0000000e+00 -4.3450601e-08 0.0000000e+00 
0.0000000e+00 -6.7889459e-08 0.0000000e+00 
0.0000000e+00 -1.0677774e-07 0.0000000e+00 
0.0000000e+00 -1.6685000e-07 0.0000000e+00 
0.0000000e+00 -2.5919769e-07 0.0000000e+00 
0.0000000e+00 -4.0245729e-07 0.0000000e+00 
0.0000000e+00 -6.2492671e-07 0.0000000e+00 
0.0000000e+00 -9.4063381e-07 0.0000000e+00 
0.0000000e+00 -1.4347155e-06 0.0000000e+00 
0.0000000e+00 -2.1861724e-06 0.0000000e+00 
0.0000000e+00 -3.2927308e-06 0.0000000e+00 
0.0000000e+00 -4.9300011e-06 0.0000000e+00 
0.0000000e+00 -7.3294514e-06 0.0000000e+00 
0.0000000e+00 -1.0847479e-05 0.0000000e+00 
0.0000000e+00 -1.6007976e-05 0.0000000e+00 
0.0000000e+00 -2.3449724e-05 0.0000000e+00 
0.0000000e+00 -3.4178382e-05 0.0000000e+00 
0.0000000e+00 -4.9228507e-05 0.0000000e+00 
0.0000000e+00 -7.0279522e-05 0.0000000e+00 
0.0000000e+00 -9.9095196e-05 0.0000000e+00 
0.0000000e+00 -1.3870047e-04 0.0000000e+00 
0.0000000e+00 -1.9260199e-04 0.0000000e+00 
0.0000000e+00 -2.6460487e-04 0.0000000e+00 
0.0000000e+00 -2.7394153e-03 0.0000000e+00 
0.0000000e+00 -2.9766758e-03 0.0000000e+00 
0.0000000e+00 -2.5410128e-03 0.0000000e+00 
0.0000000e+00 -2.6980769e-03 0.0000000e+00 
0.0000000e+00 -3.0350457e-03 0.0000000e+00 
0.0000000e+00 -2.9087826e-03 0.0000000e+00 
0.0000000e+00 -2.5938200e-03 0.0000000e+00 
0.0000000e+00 -2.5071066e-03 0.0000000e+00 
0.0000000e+00 -2.7313819e-03 0.0000000e+00 
0.0000000e+00 -3.0455054e-03 0.0000000e+00 
0.0000000e+00 -3.1784214e-03 0.0000000e+00 
0.0000000e+00 -3.0529620e-03 0.0000000e+00 
0.0000000e+00 -2.7592499e-03 0.0000000e+00 
0.0000000e+00 -2.4653077e-03 0.0000000e+00 
0.0000000e+00 -2.3093894e-03 0.0000000e+00 
0.0000000e+00 -2.3535651e-03 0.0000000e+00 
0.0000000e+00 -2.5736943e-03 0.0000000e+00 
0.0000000e+00 -2.8755355e-03 0.0000000e+00 
0.0000000e+00 -3.1813080e-03 0.0000000e+00 
0.0000000e+00 -3.4105047e-03 0.0000000e+00 
0.0000000e+00 -3.5189774e-03 0.0000000e+00 
0.0000000e+00 -3.4893956e-03 0.0000000e+00 
0.0000000e+00 -3.3327434e-03 0.0000000e+00 
0.0000000e+00 -3.0708760e-03 0.0000000e+00 
0.0000000e+00 -2.7425908e-03 0.0000000e+00 
0.0000000e+00 -2.3796891e-03 0.0000000e+00 
0.0000000e+00 -2.0139099e-03 0.0000000e+00 
0.0000000e+00 -1.6633138e-03 0.0000000e+00 
0.0000000e+00 -1.3446503e-03 0.0000000e+00 
0.0000000e+00 -1.0655005e-03 0.0000000e+00 
0.0000000e+00 -8.3076308e-04 0.0000000e+00 
0.0000000e+00 -6.3708873e-04 0.0000000e+00 
0.0000000e+00 -4.8205582e-04 0.0000000e+00 
0.0000000e+00 -4.8196275e-04 0.0000000e+00 
0.0000000e+00 -6.3991407e-04 0.0000000e+00 
0.0000000e+00 -8.3486101e-04 0.0000000e+00 
0.0000000e+00 -1.0697716e-03 0.0000000e+00 
0.0000000e+00 -1.3463100e-03 0.0000000e+00 
0.0000000e+00 -1.6620936e-03 0.0000000e+00 
0.0000000e+00 -2.0112295e-03 0.0000000e+00 
0.0000000e+00 -2.3784805e-03 0.0000000e+00 
0.0000000e+00 -2.7420805e-03 0.0000000e+00 
0.0000000e+00 -3.0722525e-03 0.0000000e+00 
0.0000000e+00 -3.3314717e-03 0.0000000e+00 
0.0000000e+00 -3.4890349e-03 0.0000000e+00 
0.0000000e+00 -3.5183500e-03 0.0000000e+00 
0.0000000e+00 -3.4086308e-03 0.0000000e+00 
0.0000000e+00 -3.1754400e-03 0.0000000e+00 
0.0000000e+00 -2.8703611e-03 0.0000000e+00 
0.0000000e+00 -2.5652007e-03 0.0000000e+00 
0.0000000e+00 -2.3610224e-03 0.0000000e+00 
0.0000000e+00 -2.3278641e-03 0.0000000e+00 
0.0000000e+00 -2.4910360e-03 0.0000000e+00 
0.0000000e+00 -2.7965959e-03 0.0000000e+00 
0.0000000e+00 -3.0902615e-03 0.0000000e+00 
0.0000000e+00 -3.2168364e-03 0.0000000e+00 
0.0000000e+00 -3.0730849e-03 0.0000000e+00 
0.0000000e+00 -2.7501080e-03 0.0000000e+00 
0.0000000e+00 -2.4924059e-03 0.0000000e+00 
0.0000000e+00 -2.5779256e-03 0.0000000e+00 
0.0000000e+00 -2.9360028e-03 0.0000000e+00 
0.0000000e+00 -3.0861918e-03 0.0000000e+00 
0.0000000e+00 -2.7659221e-03 0.0000000e+00 
0.0000000e+00 -2.5789002e-03 0.0000000e+00 
0.0000000e+00 -2.9289615e-03 0.0000000e+00 
0.0000000e+00 -2.7285055e-03 0.0000000e+00 
0.0000000e+00 0.0000000e+00 0.0000000e+00 
0.0000000e+00 0.0000000e+00 0.0000000e+00 
0.0000000e+00 0.0000000e+00 0.0000000e+00 
0.0000000e+00 0.0000000e+00 0.0000000e+00 
0.0000000e+00 0.0000000e+00 0.0000000e+00 
0.0000000e+00 0.0000000e+00 0.0000000e+00 
0.0000000e+00 0.0000000e+00 0.0000000e+00 
0.0000000e+00 0.0000000e+00 0.0000000e+00 
0.0000000e+00 0.0000000e+00 0.0000000e+00 
0.0000000e+00 0.0000000e+00 0.0000000e+00 
0.0000000e+00 0.0000000e+00 0.0000000e+00 
0.0000000e+00 0.0000000e+00 0.0000000e+00 
0.0000000e+00 0.0000000e+00 0.0000000e+00 
0.0000000e+00 0.0000000e+00 0.0000000e+00 
0.0000000e+00 0.0000000e+00 0.0000000e+00 
0.0000000e+00 0.0000000e+00 0.0000000e+00 
0.0000000e+00 0.0000000e+00 0.0000000e+00 
0.0000000e+00 0.0000000e+00 0.0000000e+00 
0.0000000e+00 0.0000000e+00 0.0000000e+00 
0.0000000e+00 0.0000000e+00 0.0000000e+00 
0.0000000e+00 0.0000000e+00 0.0000000e+00 
0.0000000e+00 0.0000000e+00 0.0000000e+00 
0.0000000e+00 0.0000000e+00 0.0000000e+00 
0.0000000e+00 0.0000000e+00 0.0000000e+00 
0.0000000e+00 0.0000000e+00 0.0000000e+00 
0.0000000e+00 0.0000000e+00 0.0000000e+00 
0.0000000e+00 0.0000000e+00 0.0000000e+00 
0.0000000e+00 0.0000000e+00 0.0000000e+00 
0.0000000e+00 0.0000000e+00 0.0000000e+00 
0.0000000e+00 0.0000000e+00 0.0000000e+00 
0.0000000e+00 0.0000000e+00 0.0000000e+00 
0.0000000e+00 0.0000000e+00 0.0000000e+00 
0.0000000e+00 0.0000000e+00 0.0000000e+00 
0.0000000e+00 0.0000000e+00 0.0000000e+00 
0.0000000e+00 0.0000000e+00 0.0000000e+00 
0.0000000e+00 0.0000000e+00 0.0000000e+00 
0.0000000e+00 0.0000000e+00 0.0000000e+00 
0.0000000e+00 0.0000000e+00 0.0000000e+00 
0.0000000e+00 0.0000000e+00 0.0000000e+00 
0.0000000e+00 0.0000000e+00 0.0000000e+00 
0.0000000e+00 0.0000000e+00 0.0000000e+00 
0.0000000e+00 0.0000000e+00 0.0000000e+00 
0.0000000e+00 0.0000000e+00 0.0000000e+00 
0.0000000e+00 0.0000000e+00 0.0000000e+00 
0.0000000e+00 0.0000000e+00 0.0000000e+00 
0.0000000e+00 0.0000000e+00 0.0000000e+00 
0.0000000e+00 -2.6957761e-03 0.0000000e+00 
0.0000000e+00 -1.7957935e-10 0.0000000e+00 
0.0000000e+00 -2.9722368e-03 0.0000000e+00 
0.0000000e+00 -2.1494986e-09 0.0000000e+00 
0.0000000e+00 -2.4705357e-03 0.0000000e+00 
0.0000000e+00 -8.8080094e-09 0.0000000e+00 
0.0000000e+00 -3.1927696e-03 0.0000000e+00 
0.0000000e+00 -3.4654391e-08 0.0000000e+00 
0.0000000e+00 -2.6124306e-03 0.0000000e+00 
0.0000000e+00 -1.4550885e-07 0.0000000e+00 
0.0000000e+00 -2.4494729e-03 0.0000000e+00 
0.0000000e+00 -5.4081994e-07 0.0000000e+00 
0.0000000e+00 -1.8022743e-06 0.0000000e+00 
0.0000000e+00 -3.3237098e-03 0.0000000e+00 
0.0000000e+00 -3.4185858e-03 0.0000000e+00 
0.0000000e+00 -6.1567766e-06 0.0000000e+00 
0.0000000e+00 -2.5343101e-03 0.0000000e+00 
0.0000000e+00 -1.9697492e-05 0.0000000e+00 
0.0000000e+00 -1.4827219e-03 0.0000000e+00 
0.0000000e+00 -5.7473939e-05 0.0000000e+00 
0.0000000e+00 -7.2086666e-04 0.0000000e+00 
0.0000000e+00 -1.5770756e-04 0.0000000e+00 
0.0000000e+00 -3.5813576e-04 0.0000000e+00 
0.0000000e+00 -9.6696691e-05 0.0000000e+00 
0.0000000e+00 -1.0860326e-03 0.0000000e+00 
0.0000000e+00 -3.2866814e-05 0.0000000e+00 
0.0000000e+00 -2.0564892e-03 0.0000000e+00 
0.0000000e+00 -3.1187083e-03 0.0000000e+00 
0.0000000e+00 -1.0418670e-05 0.0000000e+00 
0.0000000e+00 -3.5220073e-03 0.0000000e+00 
0.0000000e+00 -3.0385841e-06 0.0000000e+00 
0.0000000e+00 -2.7937533e-03 0.0000000e+00 
0.0000000e+00 -8.5392918e-07 0.0000000e+00 
0.0000000e+00 -2.3525571e-03 0.0000000e+00 
0.0000000e+00 -2.2902552e-07 0.0000000e+00 
0.0000000e+00 -3.1675186e-03 0.0000000e+00 
0.0000000e+00 -5.8964130e-08 0.0000000e+00 
0.0000000e+00 -2.6286480e-03 0.0000000e+00 
0.0000000e+00 -1.4926417e-08 0.0000000e+00 
0.0000000e+00 -3.0326555e-03 0.0000000e+00 
0.0000000e+00 -3.4749357e-09 0.0000000e+00 
0.0000000e+00 -1.2895798e-09 0.0000000e+00 
0.0000000e+00 -2.6149696e-03 0.0000000e+00 
0.0000000e+00 -6.4431183e-04 0.0000000e+00 
0.0000000e+00 -1.9041385e-04 0.0000000e+00 
0.0000000e+00 -2.9937993e-04 0.0000000e+00 
0.0000000e+00 -2.7947580e-03 0.0000000e+00 
0.0000000e+00 -7.5368517e-10 0.0000000e+00 
0.0000000e+00 -3.0824847e-03 0.0000000e+00 
0.0000000e+00 -3.9614689e-10 0.0000000e+00 
0.0000000e+00 -2.6082529e-03 0.0000000e+00 
0.0000000e+00 -2.0551322e-10 0.0000000e+00 
0.0000000e+00 -2.8610670e-03 0.0000000e+00 
0.0000000e+00 -2.6340771e-03 0.0000000e+00 
0.0000000e+00 -2.7905325e-03 0.0000000e+00 
0.0000000e+00 -2.5668989e-03 0.0000000e+00 
0.0000000e+00 -2.9663686e-03 0.0000000e+00 
0.0000000e+00 -2.7636781e-03 0.0000000e+00 
0.0000000e+00 -3.0871995e-03 0.0000000e+00 
0.0000000e+00 -2.6124141e-03 0.0000000e+00 
0.0000000e+00 -3.0589851e-03 0.0000000e+00 
0.0000000e+00 -2.9262130e-03 0.0000000e+00 
0.0000000e+00 -2.7512037e-03 0.0000000e+00 
0.0000000e+00 -2.5696903e-03 0.0000000e+00 
0.0000000e+00 -2.4767518e-03 0.0000000e+00 
0.0000000e+00 -2.4998253e-03 0.0000000e+00 
0.0000000e+00 -2.5793477e-03 0.0000000e+00 
0.0000000e+00 -2.7257151e-03 0.0000000e+00 
0.0000000e+00 -2.9039676e-03 0.0000000e+00 
0.0000000e+00 -3.0500276e-03 0.0000000e+00 
0.0000000e+00 -3.1357028e-03 0.0000000e+00 
0.0000000e+00 -3.1950588e-03 0.0000000e+00 
0.0000000e+00 -3.1498426e-03 0.0000000e+00 
0.0000000e+00 -3.0637113e-03 0.0000000e+00 
0.0000000e+00 -2.9120620e-03 0.0000000e+00 
0.0000000e+00 -2.7528214e-03 0.0000000e+00 
0.0000000e+00 -2.5825265e-03 0.0000000e+00 
0.0000000e+00 -2.4462598e-03 0.0000000e+00 
0.0000000e+00 -2.3527138e-03 0.0000000e+00 
0.0000000e+00 -2.3050965e-03 0.0000000e+00 