# vtk DataFile Version 4.0
vtk output
ASCII
DATASET UNSTRUCTURED_GRID
POINTS 3570 float
0.0000000e+00 0.0000000e+00 0.0000000e+00 
1.0000000e+00 0.0000000e+00 0.0000000e+00 
1.0000000e+00 1.0000000e+01 0.0000000e+00 
0.0000000e+00 1.0000000e+01 0.0000000e+00 
0.0000000e+00 0.0000000e+00 1.0000000e+00 
1.0000000e+00 0.0000000e+00 1.0000000e+00 
1.0000000e+00 1.0000000e+01 1.0000000e+00 
0.0000000e+00 1.0000000e+01 1.0000000e+00 
0.0000000e+00 5.0000000e+00 0.0000000e+00 
1.0000000e+00 5.0000000e+00 0.0000000e+00 
1.4285715e-01 0.0000000e+00 0.0000000e+00 
2.8571430e-01 0.0000000e+00 0.0000000e+00 
4.2857143e-01 0.0000000e+00 0.0000000e+00 
5.7142860e-01 0.0000000e+00 0.0000000e+00 
7.1428573e-01 0.0000000e+00 0.0000000e+00 
8.5714287e-01 0.0000000e+00 0.0000000e+00 
8.5714287e-01 1.0000000e+01 0.0000000e+00 
7.1428573e-01 1.0000000e+01 0.0000000e+00 
5.7142860e-01 1.0000000e+01 0.0000000e+00 
4.2857143e-01 1.0000000e+01 0.0000000e+00 
2.8571430e-01 1.0000000e+01 0.0000000e+00 
1.4285715e-01 1.0000000e+01 0.0000000e+00 
0.0000000e+00 0.0000000e+00 1.4285715e-01 
0.0000000e+00 0.0000000e+00 2.8571430e-01 
0.0000000e+00 0.0000000e+00 4.2857143e-01 
0.0000000e+00 0.0000000e+00 5.7142860e-01 
0.0000000e+00 0.0000000e+00 7.1428573e-01 
0.0000000e+00 0.0000000e+00 8.5714287e-01 
1.0000000e+00 0.0000000e+00 1.4285715e-01 
1.0000000e+00 0.0000000e+00 2.8571430e-01 
1.0000000e+00 0.0000000e+00 4.2857143e-01 
1.0000000e+00 0.0000000e+00 5.7142860e-01 
1.0000000e+00 0.0000000e+00 7.1428573e-01 
1.0000000e+00 0.0000000e+00 8.5714287e-01 
1.4285715e-01 0.0000000e+00 1.0000000e+00 
2.8571430e-01 0.0000000e+00 1.0000000e+00 
4.2857143e-01 0.0000000e+00 1.0000000e+00 
5.7142860e-01 0.0000000e+00 1.0000000e+00 
7.1428573e-01 0.0000000e+00 1.0000000e+00 
8.5714287e-01 0.0000000e+00 1.0000000e+00 
1.0000000e+00 1.0000000e+01 1.4285715e-01 
1.0000000e+00 1.0000000e+01 2.8571430e-01 
1.0000000e+00 1.0000000e+01 4.2857143e-01 
1.0000000e+00 1.0000000e+01 5.7142860e-01 
1.0000000e+00 1.0000000e+01 7.1428573e-01 
1.0000000e+00 1.0000000e+01 8.5714287e-01 
1.0000000e+00 1.4925373e-01 1.0000000e+00 
1.0000000e+00 2.9850745e-01 1.0000000e+00 
1.0000000e+00 4.4776121e-01 1.0000000e+00 
1.0000000e+00 5.9701490e-01 1.0000000e+00 
1.0000000e+00 7.4626863e-01 1.0000000e+00 
1.0000000e+00 8.9552242e-01 1.0000000e+00 
1.0000000e+00 1.0447761e+00 1.0000000e+00 
1.0000000e+00 1.1940298e+00 1.0000000e+00 
1.0000000e+00 1.3432835e+00 1.0000000e+00 
1.0000000e+00 1.4925373e+00 1.0000000e+00 
1.0000000e+00 1.6417910e+00 1.0000000e+00 
1.0000000e+00 1.7910448e+00 1.0000000e+00 
1.0000000e+00 1.9402986e+00 1.0000000e+00 
1.0000000e+00 2.0895522e+00 1.0000000e+00 
1.0000000e+00 2.2388060e+00 1.0000000e+00 
1.0000000e+00 2.3880596e+00 1.0000000e+00 
1.0000000e+00 2.5373135e+00 1.0000000e+00 
1.0000000e+00 2.6865671e+00 1.0000000e+00 
1.0000000e+00 2.8358209e+00 1.0000000e+00 
1.0000000e+00 2.9850745e+00 1.0000000e+00 
1.0000000e+00 3.1343284e+00 1.0000000e+00 
1.0000000e+00 3.2835820e+00 1.0000000e+00 
1.0000000e+00 3.4328358e+00 1.0000000e+00 
1.0000000e+00 3.5820897e+00 1.0000000e+00 
1.0000000e+00 3.7313433e+00 1.0000000e+00 
1.0000000e+00 3.8805971e+00 1.0000000e+00 
1.0000000e+00 4.0298510e+00 1.0000000e+00 
1.0000000e+00 4.1791043e+00 1.0000000e+00 
1.0000000e+00 4.3283582e+00 1.0000000e+00 
1.0000000e+00 4.4776120e+00 1.0000000e+00 
1.0000000e+00 4.6268659e+00 1.0000000e+00 
1.0000000e+00 4.7761192e+00 1.0000000e+00 
1.0000000e+00 4.9253731e+00 1.0000000e+00 
1.0000000e+00 5.0746269e+00 1.0000000e+00 
1.0000000e+00 5.2238808e+00 1.0000000e+00 
1.0000000e+00 5.3731341e+00 1.0000000e+00 
1.0000000e+00 5.5223880e+00 1.0000000e+00 
1.0000000e+00 5.6716418e+00 1.0000000e+00 
1.0000000e+00 5.8208957e+00 1.0000000e+00 
1.0000000e+00 5.9701490e+00 1.0000000e+00 
1.0000000e+00 6.1194029e+00 1.0000000e+00 
1.0000000e+00 6.2686567e+00 1.0000000e+00 
1.0000000e+00 6.4179106e+00 1.0000000e+00 
1.0000000e+00 6.5671639e+00 1.0000000e+00 
1.0000000e+00 6.7164178e+00 1.0000000e+00 
1.0000000e+00 6.8656716e+00 1.0000000e+00 
1.0000000e+00 7.0149255e+00 1.0000000e+00 
1.0000000e+00 7.1641793e+00 1.0000000e+00 
1.0000000e+00 7.3134327e+00 1.0000000e+00 
1.0000000e+00 7.4626865e+00 1.0000000e+00 
1.0000000e+00 7.6119404e+00 1.0000000e+00 
1.0000000e+00 7.7611942e+00 1.0000000e+00 
1.0000000e+00 7.9104476e+00 1.0000000e+00 
1.0000000e+00 8.0597019e+00 1.0000000e+00 
1.0000000e+00 8.2089548e+00 1.0000000e+00 
1.0000000e+00 8.3582087e+00 1.0000000e+00 
1.0000000e+00 8.5074625e+00 1.0000000e+00 
1.0000000e+00 8.6567163e+00 1.0000000e+00 
1.0000000e+00 8.8059702e+00 1.0000000e+00 
1.0000000e+00 8.9552240e+00 1.0000000e+00 
1.0000000e+00 9.1044779e+00 1.0000000e+00 
1.0000000e+00 9.2537317e+00 1.0000000e+00 
1.0000000e+00 9.4029846e+00 1.0000000e+00 
1.0000000e+00 9.5522385e+00 1.0000000e+00 
1.0000000e+00 9.7014923e+00 1.0000000e+00 
1.0000000e+00 9.8507462e+00 1.0000000e+00 
0.0000000e+00 1.0000000e+01 1.4285715e-01 
0.0000000e+00 1.0000000e+01 2.8571430e-01 
0.0000000e+00 1.0000000e+01 4.2857143e-01 
0.0000000e+00 1.0000000e+01 5.7142860e-01 
0.0000000e+00 1.0000000e+01 7.1428573e-01 
0.0000000e+00 1.0000000e+01 8.5714287e-01 
8.5714287e-01 1.0000000e+01 1.0000000e+00 
7.1428573e-01 1.0000000e+01 1.0000000e+00 
5.7142860e-01 1.0000000e+01 1.0000000e+00 
4.2857143e-01 1.0000000e+01 1.0000000e+00 
2.8571430e-01 1.0000000e+01 1.0000000e+00 
1.4285715e-01 1.0000000e+01 1.0000000e+00 
0.0000000e+00 9.8507462e+00 1.0000000e+00 
0.0000000e+00 9.7014923e+00 1.0000000e+00 
0.0000000e+00 9.5522385e+00 1.0000000e+00 
0.0000000e+00 9.4029846e+00 1.0000000e+00 
0.0000000e+00 9.2537317e+00 1.0000000e+00 
0.0000000e+00 9.1044779e+00 1.0000000e+00 
0.0000000e+00 8.9552240e+00 1.0000000e+00 
0.0000000e+00 8.8059702e+00 1.0000000e+00 
0.0000000e+00 8.6567163e+00 1.0000000e+00 
0.0000000e+00 8.5074625e+00 1.0000000e+00 
0.0000000e+00 8.3582087e+00 1.0000000e+00 
0.0000000e+00 8.2089548e+00 1.0000000e+00 
0.0000000e+00 8.0597019e+00 1.0000000e+00 
0.0000000e+00 7.9104476e+00 1.0000000e+00 
0.0000000e+00 7.7611942e+00 1.0000000e+00 
0.0000000e+00 7.6119404e+00 1.0000000e+00 
0.0000000e+00 7.4626865e+00 1.0000000e+00 
0.0000000e+00 7.3134327e+00 1.0000000e+00 
0.0000000e+00 7.1641793e+00 1.0000000e+00 
0.0000000e+00 7.0149255e+00 1.0000000e+00 
0.0000000e+00 6.8656716e+00 1.0000000e+00 
0.0000000e+00 6.7164178e+00 1.0000000e+00 
0.0000000e+00 6.5671639e+00 1.0000000e+00 
0.0000000e+00 6.4179106e+00 1.0000000e+00 
0.0000000e+00 6.2686567e+00 1.0000000e+00 
0.0000000e+00 6.1194029e+00 1.0000000e+00 
0.0000000e+00 5.9701490e+00 1.0000000e+00 
0.0000000e+00 5.8208957e+00 1.0000000e+00 
0.0000000e+00 5.6716418e+00 1.0000000e+00 
0.0000000e+00 5.5223880e+00 1.0000000e+00 
0.0000000e+00 5.3731341e+00 1.0000000e+00 
0.0000000e+00 5.2238808e+00 1.0000000e+00 
0.0000000e+00 5.0746269e+00 1.0000000e+00 
0.0000000e+00 4.9253731e+00 1.0000000e+00 
0.0000000e+00 4.7761192e+00 1.0000000e+00 
0.0000000e+00 4.6268659e+00 1.0000000e+00 
0.0000000e+00 4.4776120e+00 1.0000000e+00 
0.0000000e+00 4.3283582e+00 1.0000000e+00 
0.0000000e+00 4.1791043e+00 1.0000000e+00 
0.0000000e+00 4.0298510e+00 1.0000000e+00 
0.0000000e+00 3.8805971e+00 1.0000000e+00 
0.0000000e+00 3.7313433e+00 1.0000000e+00 
0.0000000e+00 3.5820897e+00 1.0000000e+00 
0.0000000e+00 3.4328358e+00 1.0000000e+00 
0.0000000e+00 3.2835820e+00 1.0000000e+00 
0.0000000e+00 3.1343284e+00 1.0000000e+00 
0.0000000e+00 2.9850745e+00 1.0000000e+00 
0.0000000e+00 2.8358209e+00 1.0000000e+00 
0.0000000e+00 2.6865671e+00 1.0000000e+00 
0.0000000e+00 2.5373135e+00 1.0000000e+00 
0.0000000e+00 2.3880596e+00 1.0000000e+00 
0.0000000e+00 2.2388060e+00 1.0000000e+00 
0.0000000e+00 2.0895522e+00 1.0000000e+00 
0.0000000e+00 1.9402986e+00 1.0000000e+00 
0.0000000e+00 1.7910448e+00 1.0000000e+00 
0.0000000e+00 1.6417910e+00 1.0000000e+00 
0.0000000e+00 1.4925373e+00 1.0000000e+00 
0.0000000e+00 1.3432835e+00 1.0000000e+00 
0.0000000e+00 1.1940298e+00 1.0000000e+00 
0.0000000e+00 1.0447761e+00 1.0000000e+00 
0.0000000e+00 8.9552242e-01 1.0000000e+00 
0.0000000e+00 7.4626863e-01 1.0000000e+00 
0.0000000e+00 5.9701490e-01 1.0000000e+00 
0.0000000e+00 4.4776121e-01 1.0000000e+00 
0.0000000e+00 2.9850745e-01 1.0000000e+00 
0.0000000e+00 1.4925373e-01 1.0000000e+00 
1.4285715e-01 5.0000000e+00 0.0000000e+00 
2.8571430e-01 5.0000000e+00 0.0000000e+00 
4.2857143e-01 5.0000000e+00 0.0000000e+00 
5.7142860e-01 5.0000000e+00 0.0000000e+00 
7.1428573e-01 5.0000000e+00 0.0000000e+00 
8.5714287e-01 5.0000000e+00 0.0000000e+00 
0.0000000e+00 4.8529410e+00 0.0000000e+00 
0.0000000e+00 4.7058825e+00 0.0000000e+00 
0.0000000e+00 4.5588236e+00 0.0000000e+00 
0.0000000e+00 4.4117646e+00 0.0000000e+00 
0.0000000e+00 4.2647057e+00 0.0000000e+00 
0.0000000e+00 4.1176472e+00 0.0000000e+00 
0.0000000e+00 3.9705882e+00 0.0000000e+00 
0.0000000e+00 3.8235295e+00 0.0000000e+00 
0.0000000e+00 3.6764705e+00 0.0000000e+00 
0.0000000e+00 3.5294118e+00 0.0000000e+00 
0.0000000e+00 3.3823528e+00 0.0000000e+00 
0.0000000e+00 3.2352941e+00 0.0000000e+00 
0.0000000e+00 3.0882354e+00 0.0000000e+00 
0.0000000e+00 2.9411764e+00 0.0000000e+00 
0.0000000e+00 2.7941177e+00 0.0000000e+00 
0.0000000e+00 2.6470587e+00 0.0000000e+00 
0.0000000e+00 2.5000000e+00 0.0000000e+00 
0.0000000e+00 2.3529413e+00 0.0000000e+00 
0.0000000e+00 2.2058823e+00 0.0000000e+00 
0.0000000e+00 2.0588236e+00 0.0000000e+00 
0.0000000e+00 1.9117647e+00 0.0000000e+00 
0.0000000e+00 1.7647059e+00 0.0000000e+00 
0.0000000e+00 1.6176471e+00 0.0000000e+00 
0.0000000e+00 1.4705882e+00 0.0000000e+00 
0.0000000e+00 1.3235294e+00 0.0000000e+00 
0.0000000e+00 1.1764706e+00 0.0000000e+00 
0.0000000e+00 1.0294118e+00 0.0000000e+00 
0.0000000e+00 8.8235295e-01 0.0000000e+00 
0.0000000e+00 7.3529410e-01 0.0000000e+00 
0.0000000e+00 5.8823532e-01 0.0000000e+00 
0.0000000e+00 4.4117647e-01 0.0000000e+00 
0.0000000e+00 2.9411766e-01 0.0000000e+00 
0.0000000e+00 1.4705883e-01 0.0000000e+00 
1.0000000e+00 1.4705883e-01 0.0000000e+00 
[...]
POINT_DATA 3570
FIELD FieldData 2
VELOCITY 3 3570  float
0.0000000e+00 0.0000000e+00 0.0000000e+00 
0.0000000e+00 0.0000000e+00 0.0000000e+00 
0.0000000e+00 -3.0719554e-03 0.0000000e+00 
0.0000000e+00 -2.9839054e-03 0.0000000e+00 
0.0000000e+00 0.0000000e+00 0.0000000e+00 
0.0000000e+00 0.0000000e+00 0.0000000e+00 
0.0000000e+00 -2.8415972e-03 0.0000000e+00 
0.0000000e+00 -2.7717408e-03 0.0000000e+00 
0.0000000e+00 -2.7689172e-03 0.0000000e+00 
0.0000000e+00 -2.7931076e-03 0.0000000e+00 
0.0000000e+00 0.0000000e+00 0.0000000e+00 
0.0000000e+00 0.0000000e+00 0.0000000e+00 
0.0000000e+00 0.0000000e+00 0.0000000e+00 
0.0000000e+00 0.0000000e+00 0.0000000e+00 
0.0000000e+00 0.0000000e+00 0.0000000e+00 
0.0000000e+00 0.0000000e+00 0.0000000e+00 
0.0000000e+00 -2.1930060e-03 0.0000000e+00 
0.0000000e+00 -2.6247220e-03 0.0000000e+00 
0.0000000e+00 -3.1207134e-03 0.0000000e+00 
0.0000000e+00 -2.6590505e-03 0.0000000e+00 
0.0000000e+00 -2.7002078e-03 0.0000000e+00 
0.0000000e+00 -2.7889260e-03 0.0000000e+00 
0.0000000e+00 0.0000000e+00 0.0000000e+00 
0.0000000e+00 0.0000000e+00 0.0000000e+00 
0.0000000e+00 0.0000000e+00 0.0000000e+00 
0.0000000e+00 0.0000000e+00 0.0000000e+00 
0.0000000e+00 0.0000000e+00 0.0000000e+00 
0.0000000e+00 0.0000000e+00 0.0000000e+00 
0.0000000e+00 0.0000000e+00 0.0000000e+00 
0.0000000e+00 0.0000000e+00 0.0000000e+00 
0.0000000e+00 0.0000000e+00 0.0000000e+00 
0.0000000e+00 0.0000000e+00 0.0000000e+00 
0.0000000e+00 0.0000000e+00 0.0000000e+00 
0.0000000e+00 0.0000000e+00 0.0000000e+00 
0.0000000e+00 0.0000000e+00 0.0000000e+00 
0.0000000e+00 0.0000000e+00 0.0000000e+00 
0.0000000e+00 0.0000000e+00 0.0000000e+00 
0.0000000e+00 0.0000000e+00 0.0000000e+00 
0.0000000e+00 0.0000000e+00 0.0000000e+00 
0.0000000e+00 0.0000000e+00 0.0000000e+00 
0.0000000e+00 -3.1322364e-03 0.0000000e+00 
0.0000000e+00 -2.9290270e-03 0.0000000e+00 
0.0000000e+00 -2.7421301e-03 0.0000000e+00 
0.0000000e+00 -2.6637295e-03 0.0000000e+00 
0.0000000e+00 -2.9173719e-03 0.0000000e+00 
0.0000000e+00 -2.7613973e-03 0.0000000e+00 
0.0000000e+00 -3.2699457e-04 0.0000000e+00 
0.0000000e+00 -5.9803447e-04 0.0000000e+00 
0.0000000e+00 -7.7550998e-04 0.0000000e+00 
0.0000000e+00 -8.2457718e-04 0.0000000e+00 
0.0000000e+00 -7.3369796e-04 0.0000000e+00 
0.0000000e+00 -5.0807383e-04 0.0000000e+00 
0.0000000e+00 -1.7796650e-04 0.0000000e+00 
0.0000000e+00 1.9321476e-04 0.0000000e+00 
0.0000000e+00 5.5119937e-04 0.0000000e+00 
0.0000000e+00 8.3723973e-04 0.0000000e+00 
0.0000000e+00 1.0025785e-03 0.0000000e+00 
0.0000000e+00 1.0198762e-03 0.0000000e+00 
0.0000000e+00 8.9893152e-04 0.0000000e+00 
0.0000000e+00 6.7556318e-04 0.0000000e+00 
0.0000000e+00 3.9906488e-04 0.0000000e+00 
0.0000000e+00 1.3414881e-04 0.0000000e+00 
0.0000000e+00 -7.3709343e-05 0.0000000e+00 
0.0000000e+00 -2.1197244e-04 0.0000000e+00 
0.0000000e+00 -2.9912603e-04 0.0000000e+00 
0.0000000e+00 -3.8080296e-04 0.0000000e+00 
0.0000000e+00 -5.1706686e-04 0.0000000e+00 
0.0000000e+00 -7.4640801e-04 0.0000000e+00 
0.0000000e+00 -1.0718449e-03 0.0000000e+00 
0.0000000e+00 -1.4499853e-03 0.0000000e+00 
0.0000000e+00 -1.7986087e-03 0.0000000e+00 
0.0000000e+00 -2.0478240e-03 0.0000000e+00 
0.0000000e+00 -2.1574337e-03 0.0000000e+00 
0.0000000e+00 -2.1438312e-03 0.0000000e+00 
0.0000000e+00 -2.0956458e-03 0.0000000e+00 
0.0000000e+00 -2.1108820e-03 0.0000000e+00 
0.0000000e+00 -2.2505717e-03 0.0000000e+00 
0.0000000e+00 -2.4804445e-03 0.0000000e+00 
0.0000000e+00 -2.7011556e-03 0.0000000e+00 
0.0000000e+00 -2.8070253e-03 0.0000000e+00 
0.0000000e+00 -2.7589235e-03 0.0000000e+00 
0.0000000e+00 -2.6267271e-03 0.0000000e+00 
0.0000000e+00 -2.5404242e-03 0.0000000e+00 
0.0000000e+00 -2.5915592e-03 0.0000000e+00 
0.0000000e+00 -2.7454994e-03 0.0000000e+00 
0.0000000e+00 -2.8806345e-03 0.0000000e+00 
0.0000000e+00 -2.8760496e-03 0.0000000e+00 
0.0000000e+00 -2.7478659e-03 0.0000000e+00 
0.0000000e+00 -2.6482593e-03 0.0000000e+00 
0.0000000e+00 -2.7043042e-03 0.0000000e+00 
0.0000000e+00 -2.8690887e-03 0.0000000e+00 
0.0000000e+00 -2.9496155e-03 0.0000000e+00 
0.0000000e+00 -2.8342884e-03 0.0000000e+00 
0.0000000e+00 -2.6562570e-03 0.0000000e+00 
0.0000000e+00 -2.6854230e-03 0.0000000e+00 
0.0000000e+00 -2.8994468e-03 0.0000000e+00 
0.0000000e+00 -2.9727926e-03 0.0000000e+00 
0.0000000e+00 -2.7696330e-03 0.0000000e+00 
0.0000000e+00 -2.6565685e-03 0.0000000e+00 
0.0000000e+00 -2.8543288e-03 0.0000000e+00 
0.0000000e+00 -2.9872691e-03 0.0000000e+00 
0.0000000e+00 -2.7598785e-03 0.0000000e+00 
0.0000000e+00 -2.6907821e-03 0.0000000e+00 
0.0000000e+00 -2.9352447e-03 0.0000000e+00 
0.0000000e+00 -2.8460410e-03 0.0000000e+00 
0.0000000e+00 -2.7130737e-03 0.0000000e+00 
0.0000000e+00 -2.9097907e-03 0.0000000e+00 
0.0000000e+00 -2.7258184e-03 0.0000000e+00 
0.0000000e+00 -2.8056635e-03 0.0000000e+00 
0.0000000e+00 -2.8521265e-03 0.0000000e+00 
0.0000000e+00 -2.7548156e-03 0.0000000e+00 
0.0000000e+00 -2.5274076e-03 0.0000000e+00 
0.0000000e+00 -2.7324175e-03 0.0000000e+00 
0.0000000e+00 -2.9641797e-03 0.0000000e+00 
0.0000000e+00 -3.0117475e-03 0.0000000e+00 
0.0000000e+00 -2.7149948e-03 0.0000000e+00 
0.0000000e+00 -3.0161894e-03 0.0000000e+00 
0.0000000e+00 -2.8846622e-03 0.0000000e+00 
0.0000000e+00 -2.5160443e-03 0.0000000e+00 
0.0000000e+00 -2.5815791e-03 0.0000000e+00 
0.0000000e+00 -2.9306677e-03 0.0000000e+00 
0.0000000e+00 -2.7219262e-03 0.0000000e+00 
0.0000000e+00 -2.9793666e-03 0.0000000e+00 
0.0000000e+00 -2.6208560e-03 0.0000000e+00 
0.0000000e+00 -2.5358361e-03 0.0000000e+00 
0.0000000e+00 -2.7445445e-03 0.0000000e+00 
0.0000000e+00 -2.8359753e-03 0.0000000e+00 
0.0000000e+00 -2.7477923e-03 0.0000000e+00 
0.0000000e+00 -2.6381675e-03 0.0000000e+00 
0.0000000e+00 -2.7676455e-03 0.0000000e+00 
0.0000000e+00 -2.5092561e-03 0.0000000e+00 
0.0000000e+00 -2.7736311e-03 0.0000000e+00 
0.0000000e+00 -2.9659341e-03 0.0000000e+00 
0.0000000e+00 -2.6770611e-03 0.0000000e+00 
0.0000000e+00 -2.6870901e-03 0.0000000e+00 
0.0000000e+00 -2.9041260e-03 0.0000000e+00 
0.0000000e+00 -2.8194552e-03 0.0000000e+00 
0.0000000e+00 -2.6600279e-03 0.0000000e+00 
0.0000000e+00 -2.7657142e-03 0.0000000e+00 
0.0000000e+00 -2.9671763e-03 0.0000000e+00 
0.0000000e+00 -2.9352626e-03 0.0000000e+00 
0.0000000e+00 -2.7386341e-03 0.0000000e+00 
0.0000000e+00 -2.6950564e-03 0.0000000e+00 
0.0000000e+00 -2.8342195e-03 0.0000000e+00 
0.0000000e+00 -2.9315264e-03 0.0000000e+00 
0.0000000e+00 -2.8444761e-03 0.0000000e+00 
0.0000000e+00 -2.6842779e-03 0.0000000e+00 
0.0000000e+00 -2.6436849e-03 0.0000000e+00 
0.0000000e+00 -2.7659300e-03 0.0000000e+00 
0.0000000e+00 -2.9086000e-03 0.0000000e+00 
0.0000000e+00 -2.9109521e-03 0.0000000e+00 
0.0000000e+00 -2.7616196e-03 0.0000000e+00 
0.0000000e+00 -2.5933587e-03 0.0000000e+00 
0.0000000e+00 -2.5403998e-03 0.0000000e+00 
0.0000000e+00 -2.6259411e-03 0.0000000e+00 
0.0000000e+00 -2.7574508e-03 0.0000000e+00 
0.0000000e+00 -2.8033904e-03 0.0000000e+00 
0.0000000e+00 -2.6922093e-03 0.0000000e+00 
0.0000000e+00 -2.4705548e-03 0.0000000e+00 
0.0000000e+00 -2.2461009e-03 0.0000000e+00 
0.0000000e+00 -2.1136708e-03 0.0000000e+00 
0.0000000e+00 -2.0984577e-03 0.0000000e+00 
0.0000000e+00 -2.1500464e-03 0.0000000e+00 
0.0000000e+00 -2.1635701e-03 0.0000000e+00 
0.0000000e+00 -2.0541397e-03 0.0000000e+00 
0.0000000e+00 -1.8040151e-03 0.0000000e+00 
0.0000000e+00 -1.4493795e-03 0.0000000e+00 
0.0000000e+00 -1.0656657e-03 0.0000000e+00 
0.0000000e+00 -7.3644088e-04 0.0000000e+00 
0.0000000e+00 -5.0323701e-04 0.0000000e+00 
0.0000000e+00 -3.6541381e-04 0.0000000e+00 
0.0000000e+00 -2.8527249e-04 0.0000000e+00 
0.0000000e+00 -2.0608181e-04 0.0000000e+00 
0.0000000e+00 -7.4157855e-05 0.0000000e+00 
0.0000000e+00 1.3234565e-04 0.0000000e+00 
0.0000000e+00 3.9472751e-04 0.0000000e+00 
0.0000000e+00 6.6968478e-04 0.0000000e+00 
0.0000000e+00 8.9364493e-04 0.0000000e+00 
0.0000000e+00 1.0207837e-03 0.0000000e+00 
0.0000000e+00 1.0054895e-03 0.0000000e+00 
0.0000000e+00 8.4145099e-04 0.0000000e+00 
0.0000000e+00 5.5549771e-04 0.0000000e+00 
0.0000000e+00 1.9434399e-04 0.0000000e+00 
0.0000000e+00 -1.7813915e-04 0.0000000e+00 
0.0000000e+00 -5.0078833e-04 0.0000000e+00 
0.0000000e+00 -7.2138297e-04 0.0000000e+00 
0.0000000e+00 -8.1865536e-04 0.0000000e+00 
0.0000000e+00 -7.7454146e-04 0.0000000e+00 
0.0000000e+00 -5.9994828e-04 0.0000000e+00 
0.0000000e+00 -3.2858099e-04 0.0000000e+00 
0.0000000e+00 -2.7601216e-03 0.0000000e+00 
0.0000000e+00 -2.7655708e-03 0.0000000e+00 
0.0000000e+00 -2.7724460e-03 0.0000000e+00 
0.0000000e+00 -2.7782938e-03 0.0000000e+00 
0.0000000e+00 -2.7850792e-03 0.0000000e+00 
0.0000000e+00 -2.7917388e-03 0.0000000e+00 
0.0000000e+00 -2.5971795e-03 0.0000000e+00 
0.0000000e+00 -2.3710551e-03 0.0000000e+00 
0.0000000e+00 -2.1876774e-03 0.0000000e+00 
0.0000000e+00 -2.1092894e-03 0.0000000e+00 
0.0000000e+00 -2.1298160e-03 0.0000000e+00 
0.0000000e+00 -2.1746696e-03 0.0000000e+00 
0.0000000e+00 -2.1482513e-03 0.0000000e+00 
0.0000000e+00 -1.9847511e-03 0.0000000e+00 
0.0000000e+00 -1.6887003e-03 0.0000000e+00 
0.0000000e+00 -1.3187234e-03 0.0000000e+00 
0.0000000e+00 -9.5248339e-04 0.0000000e+00 
0.0000000e+00 -6.5627624e-04 0.0000000e+00 
0.0000000e+00 -4.5999247e-04 0.0000000e+00 
0.0000000e+00 -3.5002580e-04 0.0000000e+00 
0.0000000e+00 -2.7542072e-04 0.0000000e+00 
0.0000000e+00 -1.8271511e-04 0.0000000e+00 
0.0000000e+00 -2.9563105e-05 0.0000000e+00 
0.0000000e+00 1.9248348e-04 0.0000000e+00 
0.0000000e+00 4.5870797e-04 0.0000000e+00 
0.0000000e+00 7.2465494e-04 0.0000000e+00 
0.0000000e+00 9.3060179e-04 0.0000000e+00 
0.0000000e+00 1.0274249e-03 0.0000000e+00 
0.0000000e+00 9.8198641e-04 0.0000000e+00 
0.0000000e+00 7.9634873e-04 0.0000000e+00 
0.0000000e+00 5.0454924e-04 0.0000000e+00 
0.0000000e+00 1.4786181e-04 0.0000000e+00 
0.0000000e+00 -2.1680519e-04 0.0000000e+00 
0.0000000e+00 -5.2841904e-04 0.0000000e+00 
0.0000000e+00 -7.4128510e-04 0.0000000e+00 
0.0000000e+00 -8.2932477e-04 0.0000000e+00 
0.0000000e+00 -7.7702006e-04 0.0000000e+00 
0.0000000e+00 -5.9617998e-04 0.0000000e+00 
0.0000000e+00 -3.2430445e-04 0.0000000e+00 
0.0000000e+00 -3.2357682e-04 0.0000000e+00 
0.0000000e+00 -5.9406966e-04 0.0000000e+00 
0.0000000e+00 -7.7383046e-04 0.0000000e+00 
0.0000000e+00 -8.2699268e-04 0.0000000e+00 
0.0000000e+00 -7.4294279e-04 0.0000000e+00 
0.0000000e+00 -5.3220621e-04 0.0000000e+00 
0.0000000e+00 -2.1763449e-04 0.0000000e+00 
0.0000000e+00 1.4846359e-04 0.0000000e+00 
0.0000000e+00 5.0784496e-04 0.0000000e+00 
0.0000000e+00 8.0565701e-04 0.0000000e+00 
0.0000000e+00 9.9296193e-04 0.0000000e+00 
0.0000000e+00 1.0411091e-03 0.0000000e+00 
0.0000000e+00 9.4084314e-04 0.0000000e+00 
0.0000000e+00 7.2981539e-04 0.0000000e+00 
0.0000000e+00 4.6492225e-04 0.0000000e+00 
0.0000000e+00 2.0053514e-04 0.0000000e+00 
0.0000000e+00 -1.2541154e-05 0.0000000e+00 
0.0000000e+00 -1.6681703e-04 0.0000000e+00 
0.0000000e+00 -2.6061462e-04 0.0000000e+00 
0.0000000e+00 -3.3551897e-04 0.0000000e+00 
0.0000000e+00 -4.4980535e-04 0.0000000e+00 
0.0000000e+00 -6.5255136e-04 0.0000000e+00 
0.0000000e+00 -9.5686346e-04 0.0000000e+00 
0.0000000e+00 -1.3296661e-03 0.0000000e+00 
0.0000000e+00 -1.7007934e-03 0.0000000e+00 
0.0000000e+00 -1.9895490e-03 0.0000000e+00 
0.0000000e+00 -2.1431840e-03 0.0000000e+00 
0.0000000e+00 -2.1674521e-03 0.0000000e+00 
0.0000000e+00 -2.1162538e-03 0.0000000e+00 
0.0000000e+00 -2.0888185e-03 0.0000000e+00 
0.0000000e+00 -2.1630193e-03 0.0000000e+00 
0.0000000e+00 -2.3585081e-03 0.0000000e+00 
0.0000000e+00 -2.6018422e-03 0.0000000e+00 
0.0000000e+00 -2.5570130e-03 0.0000000e+00 
0.0000000e+00 -2.6963342e-03 0.0000000e+00 
0.0000000e+00 -2.7654406e-03 0.0000000e+00 
0.0000000e+00 -2.8324036e-03 0.0000000e+00 
0.0000000e+00 -2.6960869e-03 0.0000000e+00 
0.0000000e+00 -2.8048041e-03 0.0000000e+00 
0.0000000e+00 -2.5986398e-03 0.0000000e+00 
0.0000000e+00 -2.8275510e-03 0.0000000e+00 
0.0000000e+00 -3.0255520e-03 0.0000000e+00 
0.0000000e+00 -2.7434877e-03 0.0000000e+00 
0.0000000e+00 -2.7015107e-03 0.0000000e+00 
0.0000000e+00 -2.9078394e-03 0.0000000e+00 
0.0000000e+00 -2.8540345e-03 0.0000000e+00 
0.0000000e+00 -2.6649423e-03 0.0000000e+00 
0.0000000e+00 -2.7213360e-03 0.0000000e+00 
0.0000000e+00 -2.9185000e-03 0.0000000e+00 
0.0000000e+00 -2.9004037e-03 0.0000000e+00 
0.0000000e+00 -2.7309747e-03 0.0000000e+00 
0.0000000e+00 -2.6679027e-03 0.0000000e+00 
0.0000000e+00 -2.7942043e-03 0.0000000e+00 
0.0000000e+00 -2.9262109e-03 0.0000000e+00 
0.0000000e+00 -2.8792170e-03 0.0000000e+00 
0.0000000e+00 -2.7208992e-03 0.0000000e+00 
0.0000000e+00 -2.6307355e-03 0.0000000e+00 
0.0000000e+00 -2.7148437e-03 0.0000000e+00 
0.0000000e+00 -2.8796666e-03 0.0000000e+00 
0.0000000e+00 -2.9374447e-03 0.0000000e+00 
0.0000000e+00 -2.8375578e-03 0.0000000e+00 
0.0000000e+00 -2.6509222e-03 0.0000000e+00 
0.0000000e+00 -2.5236113e-03 0.0000000e+00 
0.0000000e+00 -2.5485917e-03 0.0000000e+00 
0.0000000e+00 -2.6823985e-03 0.0000000e+00 
0.0000000e+00 -2.7894215e-03 0.0000000e+00 
0.0000000e+00 -2.8228713e-03 0.0000000e+00 
0.0000000e+00 -2.7209609e-03 0.0000000e+00 
0.0000000e+00 -2.5937934e-03 0.0000000e+00 
0.0000000e+00 -2.5566719e-03 0.0000000e+00 
0.0000000e+00 -2.6546940e-03 0.0000000e+00 
0.0000000e+00 -2.8223470e-03 0.0000000e+00 
0.0000000e+00 -2.9232604e-03 0.0000000e+00 
0.0000000e+00 -2.8690740e-03 0.0000000e+00 
0.0000000e+00 -2.7233101e-03 0.0000000e+00 
0.0000000e+00 -2.6538395e-03 0.0000000e+00 
0.0000000e+00 -2.7557029e-03 0.0000000e+00 
0.0000000e+00 -2.9089141e-03 0.0000000e+00 
0.0000000e+00 -2.9236139e-03 0.0000000e+00 
0.0000000e+00 -2.7658134e-03 0.0000000e+00 
0.0000000e+00 -2.6435952e-03 0.0000000e+00 
0.0000000e+00 -2.7485464e-03 0.0000000e+00 
0.0000000e+00 -2.9547464e-03 0.0000000e+00 
0.0000000e+00 -2.9327106e-03 0.0000000e+00 
0.0000000e+00 -2.7029233e-03 0.0000000e+00 
0.0000000e+00 -2.6935888e-03 0.0000000e+00 
0.0000000e+00 -2.9970272e-03 0.0000000e+00 
0.0000000e+00 -3.0614997e-03 0.0000000e+00 
0.0000000e+00 -2.7785138e-03 0.0000000e+00 
0.0000000e+00 -2.7704185e-03 0.0000000e+00 
0.0000000e+00 -3.0270272e-03 0.0000000e+00 
0.0000000e+00 -2.8397394e-03 0.0000000e+00 
0.0000000e+00 -2.6526803e-03 0.0000000e+00 
0.0000000e+00 -2.8502098e-03 0.0000000e+00 
0.0000000e+00 -2.7166137e-03 0.0000000e+00 
0.0000000e+00 -2.8705935e-03 0.0000000e+00 
0.0000000e+00 -2.9204076e-03 0.0000000e+00 
0.0000000e+00 -2.8553545e-03 0.0000000e+00 
0.0000000e+00 -2.7577989e-03 0.0000000e+00 
0.0000000e+00 0.0000000e+00 0.0000000e+00 
0.0000000e+00 0.0000000e+00 0.0000000e+00 
0.0000000e+00 0.0000000e+00 0.0000000e+00 
0.0000000e+00 0.0000000e+00 0.0000000e+00 
0.0000000e+00 0.0000000e+00 0.0000000e+00 
0.0000000e+00 0.0000000e+00 0.0000000e+00 
0.0000000e+00 0.0000000e+00 0.0000000e+00 
0.0000000e+00 0.0000000e+00 0.0000000e+00 
0.0000000e+00 0.0000000e+00 0.0000000e+00 
0.0000000e+00 0.0000000e+00 0.0000000e+00 
0.0000000e+00 0.0000000e+00 0.0000000e+00 
0.0000000e+00 0.0000000e+00 0.0000000e+00 
0.0000000e+00 0.0000000e+00 0.0000000e+00 
0.0000000e+00 0.0000000e+00 0.0000000e+00 
0.0000000e+00 0.0000000e+00 0.0000000e+00 
0.0000000e+00 0.0000000e+00 0.0000000e+00 
0.0000000e+00 0.0000000e+00 0.0000000e+00 
0.0000000e+00 0.0000000e+00 0.0000000e+00 
0.0000000e+00 0.0000000e+00 0.0000000e+00 
0.0000000e+00 0.0000000e+00 0.0000000e+00 
0.0000000e+00 0.0000000e+00 0.0000000e+00 
0.0000000e+00 0.0000000e+00 0.0000000e+00 
0.0000000e+00 0.0000000e+00 0.0000000e+00 
0.0000000e+00 0.0000000e+00 0.0000000e+00 
0.0000000e+00 0.0000000e+00 0.0000000e+00 
0.0000000e+00 0.0000000e+00 0.0000000e+00 
0.0000000e+00 0.0000000e+00 0.0000000e+00 
0.0000000e+00 0.0000000e+00 0.0000000e+00 
0.0000000e+00 0.0000000e+00 0.0000000e+00 
0.0000000e+00 0.0000000e+00 0.0000000e+00 
0.0000000e+00 0.0000000e+00 0.0000000e+00 
0.0000000e+00 0.0000000e+00 0.0000000e+00 
0.0000000e+00 0.0000000e+00 0.0000000e+00 
0.0000000e+00 0.0000000e+00 0.0000000e+00 
0.0000000e+00 0.0000000e+00 0.0000000e+00 
0.0000000e+00 0.0000000e+00 0.0000000e+00 
0.0000000e+00 0.0000000e+00 0.0000000e+00 
0.0000000e+00 0.0000000e+00 0.0000000e+00 
0.0000000e+00 0.0000000e+00 0.0000000e+00 
0.0000000e+00 0.0000000e+00 0.0000000e+00 
0.0000000e+00 0.0000000e+00 0.0000000e+00 
0.0000000e+00 0.0000000e+00 0.0000000e+00 
0.0000000e+00 0.0000000e+00 0.0000000e+00 
0.0000000e+00 0.0000000e+00 0.0000000e+00 
0.0000000e+00 0.0000000e+00 0.0000000e+00 
0.0000000e+00 0.0000000e+00 0.0000000e+00 
0.0000000e+00 -2.7065203e-03 0.0000000e+00 
0.0000000e+00 -2.4612522e-04 0.0000000e+00 
0.0000000e+00 -2.7775425e-03 0.0000000e+00 
0.0000000e+00 -7.9360890e-04 0.0000000e+00 
0.0000000e+00 -2.7397270e-03 0.0000000e+00 
0.0000000e+00 -2.5807081e-05 0.0000000e+00 
0.0000000e+00 -2.6720320e-03 0.0000000e+00 
0.0000000e+00 9.2303264e-04 0.0000000e+00 
0.0000000e+00 -2.7547048e-03 0.0000000e+00 
0.0000000e+00 7.9956301e-04 0.0000000e+00 
0.0000000e+00 -2.9809612e-03 0.0000000e+00 
0.0000000e+00 4.0052557e-05 0.0000000e+00 
0.0000000e+00 -2.9862023e-04 0.0000000e+00 
0.0000000e+00 -2.6836679e-03 0.0000000e+00 
0.0000000e+00 -2.8133432e-03 0.0000000e+00 
0.0000000e+00 -8.0873061e-04 0.0000000e+00 
0.0000000e+00 -2.8161355e-03 0.0000000e+00 
0.0000000e+00 -1.8895629e-03 0.0000000e+00 
0.0000000e+00 -2.7197073e-03 0.0000000e+00 
0.0000000e+00 -2.1505496e-03 0.0000000e+00 
0.0000000e+00 -2.6584228e-03 0.0000000e+00 
0.0000000e+00 -2.2243424e-03 0.0000000e+00 
0.0000000e+00 -2.7730910e-03 0.0000000e+00 
0.0000000e+00 -2.0912536e-03 0.0000000e+00 
0.0000000e+00 -2.5519233e-03 0.0000000e+00 
0.0000000e+00 -2.1204033e-03 0.0000000e+00 
0.0000000e+00 -2.9087868e-03 0.0000000e+00 
0.0000000e+00 -2.6572857e-03 0.0000000e+00 
0.0000000e+00 -1.2689071e-03 0.0000000e+00 
0.0000000e+00 -2.9213310e-03 0.0000000e+00 
0.0000000e+00 -4.3471085e-04 0.0000000e+00 
0.0000000e+00 -2.7755459e-03 0.0000000e+00 
0.0000000e+00 -1.5236622e-04 0.0000000e+00 
0.0000000e+00 -2.6279034e-03 0.0000000e+00 
0.0000000e+00 5.3350971e-04 0.0000000e+00 
0.0000000e+00 -2.8659760e-03 0.0000000e+00 
0.0000000e+00 1.0418386e-03 0.0000000e+00 
0.0000000e+00 -2.9136287e-03 0.0000000e+00 
0.0000000e+00 3.8849775e-04 0.0000000e+00 
0.0000000e+00 -2.9007506e-03 0.0000000e+00 
0.0000000e+00 -6.4060272e-04 0.0000000e+00 
0.0000000e+00 -8.2774099e-04 0.0000000e+00 
0.0000000e+00 -2.9585473e-03 0.0000000e+00 
0.0000000e+00 -2.6936287e-03 0.0000000e+00 
0.0000000e+00 -2.3565935e-03 0.0000000e+00 
0.0000000e+00 -2.6961649e-03 0.0000000e+00 
0.0000000e+00 -2.6299525e-03 0.0000000e+00 
0.0000000e+00 -7.0265203e-04 0.0000000e+00 
0.0000000e+00 -2.7869754e-03 0.0000000e+00 
0.0000000e+00 -4.7047331e-04 0.0000000e+00 
0.0000000e+00 -2.9093709e-03 0.0000000e+00 
0.0000000e+00 -2.8285841e-04 0.0000000e+00 
0.0000000e+00 -2.7629638e-03 0.0000000e+00 
0.0000000e+00 -2.8280145e-03 0.0000000e+00 
0.0000000e+00 -2.8291123e-03 0.0000000e+00 
0.0000000e+00 -2.9306652e-03 0.0000000e+00 
0.0000000e+00 -2.7048925e-03 0.0000000e+00 
0.0000000e+00 -2.8016933e-03 0.0000000e+00 
0.0000000e+00 -2.7535199e-03 0.0000000e+00 
0.0000000e+00 -2.7719459e-03 0.0000000e+00 
0.0000000e+00 -2.8396992e-03 0.0000000e+00 
0.0000000e+00 -2.9416149e-03 0.0000000e+00 
0.0000000e+00 -2.8336076e-03 0.0000000e+00 
0.0000000e+00 -2.6847669e-03 0.0000000e+00 
0.0000000e+00 -2.7017524e-03 0.0000000e+00 
0.0000000e+00 -2.7784805e-03 0.0000000e+00 
0.0000000e+00 -2.9095591e-03 0.0000000e+00 
0.0000000e+00 -2.9014612e-03 0.0000000e+00 
0.0000000e+00 -2.8595943e-03 0.0000000e+00 
0.0000000e+00 -2.7223518e-03 0.0000000e+00 
0.0000000e+00 -2.6989491e-03 0.0000000e+00 
0.0000000e+00 -2.6980061e-03 0.0000000e+00 
0.0000000e+00 -2.8245680e-03 0.0000000e+00 
0.0000000e+00 -2.9515491e-03 0.0000000e+00 
0.0000000e+00 -2.9391157e-03 0.0000000e+00 
0.0000000e+00 -2.8748664e-03 0.0000000e+00 
0.0000000e+00 -2.7504158e-03 0.0000000e+00 
0.0000000e+00 -2.6658382e-03 0.0000000e+00 
0.0000000e+00 -2.6911732e-03 0.0000000e+00 
0.0000000e+00 -2.7330760e-03 0.0000000e+00 
0.0000000e+00 -2.8927890e-03 0.0000000e+00 