# vtk DataFile Version 4.0
vtk output
ASCII
DATASET UNSTRUCTURED_GRID
POINTS 3570 float
0.0000000e+00 0.0000000e+00 0.0000000e+00 
1.0000000e+00 0.0000000e+00 0.0000000e+00 
1.0000000e+00 1.0000000e+01 0.0000000e+00 
0.0000000e+00 1.0000000e+01 0.0000000e+00 
0.0000000e+00 0.0000000e+00 1.0000000e+00 
1.0000000e+00 0.0000000e+00 1.0000000e+00 
1.0000000e+00 1.0000000e+01 1.0000000e+00 
0.0000000e+00 1.0000000e+01 1.0000000e+00 
0.0000000e+00 5.0000000e+00 0.0000000e+00 
1.0000000e+00 5.0000000e+00 0.0000000e+00 
1.4285715e-01 0.0000000e+00 0.0000000e+00 
2.8571430e-01 0.0000000e+00 0.0000000e+00 
4.2857143e-01 0.0000000e+00 0.0000000e+00 
5.7142860e-01 0.0000000e+00 0.0000000e+00 
7.1428573e-01 0.0000000e+00 0.0000000e+00 
8.5714287e-01 0.0000000e+00 0.0000000e+00 
8.5714287e-01 1.0000000e+01 0.0000000e+00 
7.1428573e-01 1.0000000e+01 0.0000000e+00 
5.7142860e-01 1.0000000e+01 0.0000000e+00 
4.2857143e-01 1.0000000e+01 0.0000000e+00 
2.8571430e-01 1.0000000e+01 0.0000000e+00 
1.4285715e-01 1.0000000e+01 0.0000000e+00 
0.0000000e+00 0.0000000e+00 1.4285715e-01 
0.0000000e+00 0.0000000e+00 2.8571430e-01 
0.0000000e+00 0.0000000e+00 4.2857143e-01 
0.0000000e+00 0.0000000e+00 5.7142860e-01 
0.0000000e+00 0.0000000e+00 7.1428573e-01 
0.0000000e+00 0.0000000e+00 8.5714287e-01 
1.0000000e+00 0.0000000e+00 1.4285715e-01 
1.0000000e+00 0.0000000e+00 2.8571430e-01 
1.0000000e+00 0.0000000e+00 4.2857143e-01 
1.0000000e+00 0.0000000e+00 5.7142860e-01 
1.0000000e+00 0.0000000e+00 7.1428573e-01 
1.0000000e+00 0.0000000e+00 8.5714287e-01 
1.4285715e-01 0.0000000e+00 1.0000000e+00 
2.8571430e-01 0.0000000e+00 1.0000000e+00 
4.2857143e-01 0.0000000e+00 1.0000000e+00 
5.7142860e-01 0.0000000e+00 1.0000000e+00 
7.1428573e-01 0.0000000e+00 1.0000000e+00 
8.5714287e-01 0.0000000e+00 1.0000000e+00 
1.0000000e+00 1.0000000e+01 1.4285715e-01 
1.0000000e+00 1.0000000e+01 2.8571430e-01 
1.0000000e+00 1.0000000e+01 4.2857143e-01 
1.0000000e+00 1.0000000e+01 5.7142860e-01 
1.0000000e+00 1.0000000e+01 7.1428573e-01 
1.0000000e+00 1.0000000e+01 8.5714287e-01 
1.0000000e+00 1.4925373e-01 1.0000000e+00 
1.0000000e+00 2.9850745e-01 1.0000000e+00 
1.0000000e+00 4.4776121e-01 1.0000000e+00 
1.0000000e+00 5.9701490e-01 1.0000000e+00 
1.0000000e+00 7.4626863e-01 1.0000000e+00 
1.0000000e+00 8.9552242e-01 1.0000000e+00 
1.0000000e+00 1.0447761e+00 1.0000000e+00 
1.0000000e+00 1.1940298e+00 1.0000000e+00 
1.0000000e+00 1.3432835e+00 1.0000000e+00 
1.0000000e+00 1.4925373e+00 1.0000000e+00 
1.0000000e+00 1.6417910e+00 1.0000000e+00 
1.0000000e+00 1.7910448e+00 1.0000000e+00 
1.0000000e+00 1.9402986e+00 1.0000000e+00 
1.0000000e+00 2.0895522e+00 1.0000000e+00 
1.0000000e+00 2.2388060e+00 1.0000000e+00 
1.0000000e+00 2.3880596e+00 1.0000000e+00 
1.0000000e+00 2.5373135e+00 1.0000000e+00 
1.0000000e+00 2.6865671e+00 1.0000000e+00 
1.0000000e+00 2.8358209e+00 1.0000000e+00 
1.0000000e+00 2.9850745e+00 1.0000000e+00 
1.0000000e+00 3.1343284e+00 1.0000000e+00 
1.0000000e+00 3.2835820e+00 1.0000000e+00 
1.0000000e+00 3.4328358e+00 1.0000000e+00 
1.0000000e+00 3.5820897e+00 1.0000000e+00 
1.0000000e+00 3.7313433e+00 1.0000000e+00 
1.0000000e+00 3.8805971e+00 1.0000000e+00 
1.0000000e+00 4.0298510e+00 1.0000000e+00 
1.0000000e+00 4.1791043e+00 1.0000000e+00 
1.0000000e+00 4.3283582e+00 1.0000000e+00 
1.0000000e+00 4.4776120e+00 1.0000000e+00 
1.0000000e+00 4.6268659e+00 1.0000000e+00 
1.0000000e+00 4.7761192e+00 1.0000000e+00 
1.0000000e+00 4.9253731e+00 1.0000000e+00 
1.0000000e+00 5.0746269e+00 1.0000000e+00 
1.0000000e+00 5.2238808e+00 1.0000000e+00 
1.0000000e+00 5.3731341e+00 1.0000000e+00 
1.0000000e+00 5.5223880e+00 1.0000000e+00 
1.0000000e+00 5.6716418e+00 1.0000000e+00 
1.0000000e+00 5.8208957e+00 1.0000000e+00 
1.0000000e+00 5.9701490e+00 1.0000000e+00 
1.0000000e+00 6.1194029e+00 1.0000000e+00 
1.0000000e+00 6.2686567e+00 1.0000000e+00 
1.0000000e+00 6.4179106e+00 1.0000000e+00 
1.0000000e+00 6.5671639e+00 1.0000000e+00 
1.0000000e+00 6.7164178e+00 1.0000000e+00 
1.0000000e+00 6.8656716e+00 1.0000000e+00 
1.0000000e+00 7.0149255e+00 1.0000000e+00 
1.0000000e+00 7.1641793e+00 1.0000000e+00 
1.0000000e+00 7.3134327e+00 1.0000000e+00 
1.0000000e+00 7.4626865e+00 1.0000000e+00 
1.0000000e+00 7.6119404e+00 1.0000000e+00 
1.0000000e+00 7.7611942e+00 1.0000000e+00 
1.0000000e+00 7.9104476e+00 1.0000000e+00 
1.0000000e+00 8.0597019e+00 1.0000000e+00 
1.0000000e+00 8.2089548e+00 1.0000000e+00 
1.0000000e+00 8.3582087e+00 1.0000000e+00 
1.0000000e+00 8.5074625e+00 1.0000000e+00 
1.0000000e+00 8.6567163e+00 1.0000000e+00 
1.0000000e+00 8.8059702e+00 1.0000000e+00 
1.0000000e+00 8.9552240e+00 1.0000000e+00 
1.0000000e+00 9.1044779e+00 1.0000000e+00 
1.0000000e+00 9.2537317e+00 1.0000000e+00 
1.0000000e+00 9.4029846e+00 1.0000000e+00 
1.0000000e+00 9.5522385e+00 1.0000000e+00 
1.0000000e+00 9.7014923e+00 1.0000000e+00 
1.0000000e+00 9.8507462e+00 1.0000000e+00 
0.0000000e+00 1.0000000e+01 1.4285715e-01 
0.0000000e+00 1.0000000e+01 2.8571430e-01 
0.0000000e+00 1.0000000e+01 4.2857143e-01 
0.0000000e+00 1.0000000e+01 5.7142860e-01 
0.0000000e+00 1.0000000e+01 7.1428573e-01 
0.0000000e+00 1.0000000e+01 8.5714287e-01 
8.5714287e-01 1.0000000e+01 1.0000000e+00 
7.1428573e-01 1.0000000e+01 1.0000000e+00 
5.7142860e-01 1.0000000e+01 1.0000000e+00 
4.2857143e-01 1.0000000e+01 1.0000000e+00 
2.8571430e-01 1.0000000e+01 1.0000000e+00 
1.4285715e-01 1.0000000e+01 1.0000000e+00 
0.0000000e+00 9.8507462e+00 1.0000000e+00 
0.0000000e+00 9.7014923e+00 1.0000000e+00 
0.0000000e+00 9.5522385e+00 1.0000000e+00 
0.0000000e+00 9.4029846e+00 1.0000000e+00 
0.0000000e+00 9.2537317e+00 1.0000000e+00 
0.0000000e+00 9.1044779e+00 1.0000000e+00 
0.0000000e+00 8.9552240e+00 1.0000000e+00 
0.0000000e+00 8.8059702e+00 1.0000000e+00 
0.0000000e+00 8.6567163e+00 1.0000000e+00 
0.0000000e+00 8.5074625e+00 1.0000000e+00 
0.0000000e+00 8.3582087e+00 1.0000000e+00 
0.0000000e+00 8.2089548e+00 1.0000000e+00 
0.0000000e+00 8.0597019e+00 1.0000000e+00 
0.0000000e+00 7.9104476e+00 1.0000000e+00 
0.0000000e+00 7.7611942e+00 1.0000000e+00 
0.0000000e+00 7.6119404e+00 1.0000000e+00 
0.0000000e+00 7.4626865e+00 1.0000000e+00 
0.0000000e+00 7.3134327e+00 1.0000000e+00 
0.0000000e+00 7.1641793e+00 1.0000000e+00 
0.0000000e+00 7.0149255e+00 1.0000000e+00 
0.0000000e+00 6.8656716e+00 1.0000000e+00 
0.0000000e+00 6.7164178e+00 1.0000000e+00 
0.0000000e+00 6.5671639e+00 1.0000000e+00 
0.0000000e+00 6.4179106e+00 1.0000000e+00 
0.0000000e+00 6.2686567e+00 1.0000000e+00 
0.0000000e+00 6.1194029e+00 1.0000000e+00 
0.0000000e+00 5.9701490e+00 1.0000000e+00 
0.0000000e+00 5.8208957e+00 1.0000000e+00 
0.0000000e+00 5.6716418e+00 1.0000000e+00 
0.0000000e+00 5.5223880e+00 1.0000000e+00 
0.0000000e+00 5.3731341e+00 1.0000000e+00 
0.0000000e+00 5.2238808e+00 1.0000000e+00 
0.0000000e+00 5.0746269e+00 1.0000000e+00 
0.0000000e+00 4.9253731e+00 1.0000000e+00 
0.0000000e+00 4.7761192e+00 1.0000000e+00 
0.0000000e+00 4.6268659e+00 1.0000000e+00 
0.0000000e+00 4.4776120e+00 1.0000000e+00 
0.0000000e+00 4.3283582e+00 1.0000000e+00 
0.0000000e+00 4.1791043e+00 1.0000000e+00 
0.0000000e+00 4.0298510e+00 1.0000000e+00 
0.0000000e+00 3.8805971e+00 1.0000000e+00 
0.0000000e+00 3.7313433e+00 1.0000000e+00 
0.0000000e+00 3.5820897e+00 1.0000000e+00 
0.0000000e+00 3.4328358e+00 1.0000000e+00 
0.0000000e+00 3.2835820e+00 1.0000000e+00 
0.0000000e+00 3.1343284e+00 1.0000000e+00 
0.0000000e+00 2.9850745e+00 1.0000000e+00 
0.0000000e+00 2.8358209e+00 1.0000000e+00 
0.0000000e+00 2.6865671e+00 1.0000000e+00 
0.0000000e+00 2.5373135e+00 1.0000000e+00 
0.0000000e+00 2.3880596e+00 1.0000000e+00 
0.0000000e+00 2.2388060e+00 1.0000000e+00 
0.0000000e+00 2.0895522e+00 1.0000000e+00 
0.0000000e+00 1.9402986e+00 1.0000000e+00 
0.0000000e+00 1.7910448e+00 1.0000000e+00 
0.0000000e+00 1.6417910e+00 1.0000000e+00 
0.0000000e+00 1.4925373e+00 1.0000000e+00 
0.0000000e+00 1.3432835e+00 1.0000000e+00 
0.0000000e+00 1.1940298e+00 1.0000000e+00 
0.0000000e+00 1.0447761e+00 1.0000000e+00 
0.0000000e+00 8.9552242e-01 1.0000000e+00 
0.0000000e+00 7.4626863e-01 1.0000000e+00 
0.0000000e+00 5.9701490e-01 1.0000000e+00 
0.0000000e+00 4.4776121e-01 1.0000000e+00 
0.0000000e+00 2.9850745e-01 1.0000000e+00 
0.0000000e+00 1.4925373e-01 1.0000000e+00 
1.4285715e-01 5.0000000e+00 0.0000000e+00 
2.8571430e-01 5.0000000e+00 0.0000000e+00 
4.2857143e-01 5.0000000e+00 0.0000000e+00 
5.7142860e-01 5.0000000e+00 0.0000000e+00 
7.1428573e-01 5.0000000e+00 0.0000000e+00 
8.5714287e-01 5.0000000e+00 0.0000000e+00 
0.0000000e+00 4.8529410e+00 0.0000000e+00 
0.0000000e+00 4.7058825e+00 0.0000000e+00 
0.0000000e+00 4.5588236e+00 0.0000000e+00 
0.0000000e+00 4.4117646e+00 0.0000000e+00 
0.0000000e+00 4.2647057e+00 0.0000000e+00 
0.0000000e+00 4.1176472e+00 0.0000000e+00 
0.0000000e+00 3.9705882e+00 0.0000000e+00 
0.0000000e+00 3.8235295e+00 0.0000000e+00 
0.0000000e+00 3.6764705e+00 0.0000000e+00 
0.0000000e+00 3.5294118e+00 0.0000000e+00 
0.0000000e+00 3.3823528e+00 0.0000000e+00 
0.0000000e+00 3.2352941e+00 0.0000000e+00 
0.0000000e+00 3.0882354e+00 0.0000000e+00 
0.0000000e+00 2.9411764e+00 0.0000000e+00 
0.0000000e+00 2.7941177e+00 0.0000000e+00 
0.0000000e+00 2.6470587e+00 0.0000000e+00 
0.0000000e+00 2.5000000e+00 0.0000000e+00 
0.0000000e+00 2.3529413e+00 0.0000000e+00 
0.0000000e+00 2.2058823e+00 0.0000000e+00 
0.0000000e+00 2.0588236e+00 0.0000000e+00 
0.0000000e+00 1.9117647e+00 0.0000000e+00 
0.0000000e+00 1.7647059e+00 0.0000000e+00 
0.0000000e+00 1.6176471e+00 0.0000000e+00 
0.0000000e+00 1.4705882e+00 0.0000000e+00 
0.0000000e+00 1.3235294e+00 0.0000000e+00 
0.0000000e+00 1.1764706e+00 0.0000000e+00 
0.0000000e+00 1.0294118e+00 0.0000000e+00 
0.0000000e+00 8.8235295e-01 0.0000000e+00 
0.0000000e+00 7.3529410e-01 0.0000000e+00 
0.0000000e+00 5.8823532e-01 0.0000000e+00 
0.0000000e+00 4.4117647e-01 0.0000000e+00 
0.0000000e+00 2.9411766e-01 0.0000000e+00 
0.0000000e+00 1.4705883e-01 0.0000000e+00 
1.0000000e+00 1.4705883e-01 0.0000000e+00 
[...]
POINT_DATA 3570
FIELD FieldData 2
VELOCITY 3 3570  float
0.0000000e+00 0.0000000e+00 0.0000000e+00 
0.0000000e+00 0.0000000e+00 0.0000000e+00 
0.0000000e+00 2.9125612e-03 0.0000000e+00 
0.0000000e+00 3.0631653e-03 0.0000000e+00 
0.0000000e+00 0.0000000e+00 0.0000000e+00 
0.0000000e+00 0.0000000e+00 0.0000000e+00 
0.0000000e+00 3.0424502e-03 0.0000000e+00 
0.0000000e+00 2.9886933e-03 0.0000000e+00 
0.0000000e+00 1.4845610e-03 0.0000000e+00 
0.0000000e+00 1.5816799e-03 0.0000000e+00 
0.0000000e+00 0.0000000e+00 0.0000000e+00 
0.0000000e+00 0.0000000e+00 0.0000000e+00 
0.0000000e+00 0.0000000e+00 0.0000000e+00 
0.0000000e+00 0.0000000e+00 0.0000000e+00 
0.0000000e+00 0.0000000e+00 0.0000000e+00 
0.0000000e+00 0.0000000e+00 0.0000000e+00 
0.0000000e+00 2.8745828e-03 0.0000000e+00 
0.0000000e+00 2.9888714e-03 0.0000000e+00 
0.0000000e+00 3.1162824e-03 0.0000000e+00 
0.0000000e+00 3.0167340e-03 0.0000000e+00 
0.0000000e+00 3.0067605e-03 0.0000000e+00 
0.0000000e+00 3.2266357e-03 0.0000000e+00 
0.0000000e+00 0.0000000e+00 0.0000000e+00 
0.0000000e+00 0.0000000e+00 0.0000000e+00 
0.0000000e+00 0.0000000e+00 0.0000000e+00 
0.0000000e+00 0.0000000e+00 0.0000000e+00 
0.0000000e+00 0.0000000e+00 0.0000000e+00 
0.0000000e+00 0.0000000e+00 0.0000000e+00 
0.0000000e+00 0.0000000e+00 0.0000000e+00 
0.0000000e+00 0.0000000e+00 0.0000000e+00 
0.0000000e+00 0.0000000e+00 0.0000000e+00 
0.0000000e+00 0.0000000e+00 0.0000000e+00 
0.0000000e+00 0.0000000e+00 0.0000000e+00 
0.0000000e+00 0.0000000e+00 0.0000000e+00 
0.0000000e+00 0.0000000e+00 0.0000000e+00 
0.0000000e+00 0.0000000e+00 0.0000000e+00 
0.0000000e+00 0.0000000e+00 0.0000000e+00 
0.0000000e+00 0.0000000e+00 0.0000000e+00 
0.0000000e+00 0.0000000e+00 0.0000000e+00 
0.0000000e+00 0.0000000e+00 0.0000000e+00 
0.0000000e+00 2.9072312e-03 0.0000000e+00 
0.0000000e+00 3.2054009e-03 0.0000000e+00 
0.0000000e+00 3.0326219e-03 0.0000000e+00 
0.0000000e+00 3.1423231e-03 0.0000000e+00 
0.0000000e+00 2.9187396e-03 0.0000000e+00 
0.0000000e+00 3.0342548e-03 0.0000000e+00 
0.0000000e+00 -2.0817023e-04 0.0000000e+00 
0.0000000e+00 -3.0133987e-04 0.0000000e+00 
0.0000000e+00 -3.6888829e-04 0.0000000e+00 
0.0000000e+00 -4.9693935e-04 0.0000000e+00 
0.0000000e+00 -6.3226296e-04 0.0000000e+00 
0.0000000e+00 -7.8111060e-04 0.0000000e+00 
0.0000000e+00 -1.0420887e-03 0.0000000e+00 
0.0000000e+00 -1.3321732e-03 0.0000000e+00 
0.0000000e+00 -1.4603938e-03 0.0000000e+00 
0.0000000e+00 -1.4372451e-03 0.0000000e+00 
0.0000000e+00 -1.3659525e-03 0.0000000e+00 
0.0000000e+00 -1.2095750e-03 0.0000000e+00 
0.0000000e+00 -8.8457920e-04 0.0000000e+00 
0.0000000e+00 -5.8322697e-04 0.0000000e+00 
0.0000000e+00 -3.9998160e-04 0.0000000e+00 
0.0000000e+00 -2.0341917e-04 0.0000000e+00 
0.0000000e+00 2.7885268e-05 0.0000000e+00 
0.0000000e+00 1.9898222e-04 0.0000000e+00 
0.0000000e+00 2.8485569e-04 0.0000000e+00 
0.0000000e+00 3.1916858e-04 0.0000000e+00 
0.0000000e+00 3.6004678e-04 0.0000000e+00 
0.0000000e+00 4.5730179e-04 0.0000000e+00 
0.0000000e+00 5.3190446e-04 0.0000000e+00 
0.0000000e+00 5.5041478e-04 0.0000000e+00 
0.0000000e+00 6.3988112e-04 0.0000000e+00 
0.0000000e+00 8.4826263e-04 0.0000000e+00 
0.0000000e+00 1.0561860e-03 0.0000000e+00 
0.0000000e+00 1.1863888e-03 0.0000000e+00 
0.0000000e+00 1.2338848e-03 0.0000000e+00 
0.0000000e+00 1.2921275e-03 0.0000000e+00 
0.0000000e+00 1.4219832e-03 0.0000000e+00 
0.0000000e+00 1.5285682e-03 0.0000000e+00 
0.0000000e+00 1.5463677e-03 0.0000000e+00 
0.0000000e+00 1.4851664e-03 0.0000000e+00 
0.0000000e+00 1.4073655e-03 0.0000000e+00 
0.0000000e+00 1.4466364e-03 0.0000000e+00 
0.0000000e+00 1.5346063e-03 0.0000000e+00 
0.0000000e+00 1.6347267e-03 0.0000000e+00 
0.0000000e+00 1.8440309e-03 0.0000000e+00 
0.0000000e+00 2.0945796e-03 0.0000000e+00 
0.0000000e+00 2.3208782e-03 0.0000000e+00 
0.0000000e+00 2.4742123e-03 0.0000000e+00 
0.0000000e+00 2.5247906e-03 0.0000000e+00 
0.0000000e+00 2.5556139e-03 0.0000000e+00 
0.0000000e+00 2.6280831e-03 0.0000000e+00 
0.0000000e+00 2.7653570e-03 0.0000000e+00 
0.0000000e+00 2.8972554e-03 0.0000000e+00 
0.0000000e+00 2.9254339e-03 0.0000000e+00 
0.0000000e+00 2.9313150e-03 0.0000000e+00 
0.0000000e+00 2.9842732e-03 0.0000000e+00 
0.0000000e+00 2.9565904e-03 0.0000000e+00 
0.0000000e+00 2.8926532e-03 0.0000000e+00 
0.0000000e+00 2.7856308e-03 0.0000000e+00 
0.0000000e+00 2.4457450e-03 0.0000000e+00 
0.0000000e+00 2.1182590e-03 0.0000000e+00 
0.0000000e+00 2.0147930e-03 0.0000000e+00 
0.0000000e+00 2.0887386e-03 0.0000000e+00 
0.0000000e+00 2.1786205e-03 0.0000000e+00 
0.0000000e+00 2.3735482e-03 0.0000000e+00 
0.0000000e+00 2.6020822e-03 0.0000000e+00 
0.0000000e+00 2.5652389e-03 0.0000000e+00 
0.0000000e+00 2.7392223e-03 0.0000000e+00 
0.0000000e+00 2.9514278e-03 0.0000000e+00 
0.0000000e+00 3.1449927e-03 0.0000000e+00 
0.0000000e+00 3.1714977e-03 0.0000000e+00 
0.0000000e+00 3.0603840e-03 0.0000000e+00 
0.0000000e+00 3.0935344e-03 0.0000000e+00 
0.0000000e+00 3.1955750e-03 0.0000000e+00 
0.0000000e+00 3.1336595e-03 0.0000000e+00 
0.0000000e+00 3.0524882e-03 0.0000000e+00 
0.0000000e+00 2.9239915e-03 0.0000000e+00 
0.0000000e+00 3.0855262e-03 0.0000000e+00 
0.0000000e+00 3.2817048e-03 0.0000000e+00 
0.0000000e+00 2.9190830e-03 0.0000000e+00 
0.0000000e+00 3.0855937e-03 0.0000000e+00 
0.0000000e+00 2.9759400e-03 0.0000000e+00 
0.0000000e+00 3.0624820e-03 0.0000000e+00 
0.0000000e+00 2.8775306e-03 0.0000000e+00 
0.0000000e+00 3.0820225e-03 0.0000000e+00 
0.0000000e+00 3.1896525e-03 0.0000000e+00 
0.0000000e+00 3.0271413e-03 0.0000000e+00 
0.0000000e+00 3.0112900e-03 0.0000000e+00 
0.0000000e+00 2.8369047e-03 0.0000000e+00 
0.0000000e+00 2.8069650e-03 0.0000000e+00 
0.0000000e+00 2.5734606e-03 0.0000000e+00 
0.0000000e+00 2.3320580e-03 0.0000000e+00 
0.0000000e+00 2.1646291e-03 0.0000000e+00 
0.0000000e+00 2.0497653e-03 0.0000000e+00 
0.0000000e+00 2.1714554e-03 0.0000000e+00 
0.0000000e+00 2.2408501e-03 0.0000000e+00 
0.0000000e+00 2.4737141e-03 0.0000000e+00 
0.0000000e+00 2.7865758e-03 0.0000000e+00 
0.0000000e+00 2.9656701e-03 0.0000000e+00 
0.0000000e+00 2.9881990e-03 0.0000000e+00 
0.0000000e+00 3.0155138e-03 0.0000000e+00 
0.0000000e+00 2.9778571e-03 0.0000000e+00 
0.0000000e+00 2.9563943e-03 0.0000000e+00 
0.0000000e+00 2.9074207e-03 0.0000000e+00 
0.0000000e+00 2.7449524e-03 0.0000000e+00 
0.0000000e+00 2.5599229e-03 0.0000000e+00 
0.0000000e+00 2.4851835e-03 0.0000000e+00 
0.0000000e+00 2.4427376e-03 0.0000000e+00 
0.0000000e+00 2.3419103e-03 0.0000000e+00 
0.0000000e+00 2.2511971e-03 0.0000000e+00 
0.0000000e+00 2.1582190e-03 0.0000000e+00 
0.0000000e+00 1.9598175e-03 0.0000000e+00 
0.0000000e+00 1.7228161e-03 0.0000000e+00 
0.0000000e+00 1.5522193e-03 0.0000000e+00 
0.0000000e+00 1.4336290e-03 0.0000000e+00 
0.0000000e+00 1.3884516e-03 0.0000000e+00 
0.0000000e+00 1.4577643e-03 0.0000000e+00 
0.0000000e+00 1.5455964e-03 0.0000000e+00 
0.0000000e+00 1.5635946e-03 0.0000000e+00 
0.0000000e+00 1.4532522e-03 0.0000000e+00 
0.0000000e+00 1.3083536e-03 0.0000000e+00 
0.0000000e+00 1.2392285e-03 0.0000000e+00 
0.0000000e+00 1.1492749e-03 0.0000000e+00 
0.0000000e+00 9.9603611e-04 0.0000000e+00 
0.0000000e+00 8.4949384e-04 0.0000000e+00 
0.0000000e+00 7.3391752e-04 0.0000000e+00 
0.0000000e+00 6.7172031e-04 0.0000000e+00 
0.0000000e+00 6.0247473e-04 0.0000000e+00 
0.0000000e+00 4.8272556e-04 0.0000000e+00 
0.0000000e+00 3.8962928e-04 0.0000000e+00 
0.0000000e+00 3.5963440e-04 0.0000000e+00 
0.0000000e+00 2.9645540e-04 0.0000000e+00 
0.0000000e+00 1.7240412e-04 0.0000000e+00 
0.0000000e+00 -3.2172665e-07 0.0000000e+00 
0.0000000e+00 -2.0921773e-04 0.0000000e+00 
0.0000000e+00 -3.9356775e-04 0.0000000e+00 
0.0000000e+00 -5.8695168e-04 0.0000000e+00 
0.0000000e+00 -8.8643259e-04 0.0000000e+00 
0.0000000e+00 -1.2077421e-03 0.0000000e+00 
0.0000000e+00 -1.3712152e-03 0.0000000e+00 
0.0000000e+00 -1.4299813e-03 0.0000000e+00 
0.0000000e+00 -1.4319414e-03 0.0000000e+00 
0.0000000e+00 -1.2674367e-03 0.0000000e+00 
0.0000000e+00 -9.9247973e-04 0.0000000e+00 
0.0000000e+00 -7.9711265e-04 0.0000000e+00 
0.0000000e+00 -6.7259796e-04 0.0000000e+00 
0.0000000e+00 -4.9431622e-04 0.0000000e+00 
0.0000000e+00 -3.4369362e-04 0.0000000e+00 
0.0000000e+00 -3.0519819e-04 0.0000000e+00 
0.0000000e+00 -2.3211987e-04 0.0000000e+00 
0.0000000e+00 1.5324668e-03 0.0000000e+00 
0.0000000e+00 1.5461260e-03 0.0000000e+00 
0.0000000e+00 1.5195633e-03 0.0000000e+00 
0.0000000e+00 1.5252396e-03 0.0000000e+00 
0.0000000e+00 1.5344030e-03 0.0000000e+00 
0.0000000e+00 1.5792085e-03 0.0000000e+00 
0.0000000e+00 1.6005016e-03 0.0000000e+00 
0.0000000e+00 1.5908869e-03 0.0000000e+00 
0.0000000e+00 1.3930051e-03 0.0000000e+00 
0.0000000e+00 1.3032713e-03 0.0000000e+00 
0.0000000e+00 1.2838572e-03 0.0000000e+00 
0.0000000e+00 1.1522381e-03 0.0000000e+00 
0.0000000e+00 9.8446209e-04 0.0000000e+00 
0.0000000e+00 7.7110034e-04 0.0000000e+00 
0.0000000e+00 6.0402829e-04 0.0000000e+00 
0.0000000e+00 5.9157569e-04 0.0000000e+00 
0.0000000e+00 5.6539354e-04 0.0000000e+00 
0.0000000e+00 4.4991242e-04 0.0000000e+00 
0.0000000e+00 3.9723024e-04 0.0000000e+00 
0.0000000e+00 3.6871791e-04 0.0000000e+00 
0.0000000e+00 2.6178447e-04 0.0000000e+00 
0.0000000e+00 1.0353579e-04 0.0000000e+00 
0.0000000e+00 -8.0906852e-05 0.0000000e+00 
0.0000000e+00 -2.8528154e-04 0.0000000e+00 
0.0000000e+00 -4.6287739e-04 0.0000000e+00 
0.0000000e+00 -6.8109372e-04 0.0000000e+00 
0.0000000e+00 -1.0011372e-03 0.0000000e+00 
0.0000000e+00 -1.2552247e-03 0.0000000e+00 
0.0000000e+00 -1.3488728e-03 0.0000000e+00 
0.0000000e+00 -1.4006394e-03 0.0000000e+00 
0.0000000e+00 -1.4398089e-03 0.0000000e+00 
0.0000000e+00 -1.2991511e-03 0.0000000e+00 
0.0000000e+00 -1.0228568e-03 0.0000000e+00 
0.0000000e+00 -8.2901504e-04 0.0000000e+00 
0.0000000e+00 -7.1110047e-04 0.0000000e+00 
0.0000000e+00 -5.5120437e-04 0.0000000e+00 
0.0000000e+00 -3.8449327e-04 0.0000000e+00 
0.0000000e+00 -3.0160355e-04 0.0000000e+00 
0.0000000e+00 -2.1173306e-04 0.0000000e+00 
0.0000000e+00 -1.9576088e-04 0.0000000e+00 
0.0000000e+00 -2.8887120e-04 0.0000000e+00 
0.0000000e+00 -3.8027947e-04 0.0000000e+00 
0.0000000e+00 -5.3810090e-04 0.0000000e+00 
0.0000000e+00 -6.6692277e-04 0.0000000e+00 
0.0000000e+00 -7.6597865e-04 0.0000000e+00 
0.0000000e+00 -9.8127220e-04 0.0000000e+00 
0.0000000e+00 -1.3069756e-03 0.0000000e+00 
0.0000000e+00 -1.4967633e-03 0.0000000e+00 
0.0000000e+00 -1.4856482e-03 0.0000000e+00 
0.0000000e+00 -1.3964499e-03 0.0000000e+00 
0.0000000e+00 -1.2644621e-03 0.0000000e+00 
0.0000000e+00 -9.8816503e-04 0.0000000e+00 
0.0000000e+00 -6.6904357e-04 0.0000000e+00 
0.0000000e+00 -4.4780356e-04 0.0000000e+00 
0.0000000e+00 -2.7277810e-04 0.0000000e+00 
0.0000000e+00 -7.8617675e-05 0.0000000e+00 
0.0000000e+00 1.0011494e-04 0.0000000e+00 
0.0000000e+00 2.6218098e-04 0.0000000e+00 
0.0000000e+00 3.5965617e-04 0.0000000e+00 
0.0000000e+00 3.6931297e-04 0.0000000e+00 
0.0000000e+00 4.2445440e-04 0.0000000e+00 
0.0000000e+00 5.3643656e-04 0.0000000e+00 
0.0000000e+00 5.8535504e-04 0.0000000e+00 
0.0000000e+00 6.5238593e-04 0.0000000e+00 
0.0000000e+00 8.1049534e-04 0.0000000e+00 
0.0000000e+00 9.4454980e-04 0.0000000e+00 
0.0000000e+00 1.0880482e-03 0.0000000e+00 
0.0000000e+00 1.2360597e-03 0.0000000e+00 
0.0000000e+00 1.2681973e-03 0.0000000e+00 
0.0000000e+00 1.3201881e-03 0.0000000e+00 
0.0000000e+00 1.5349677e-03 0.0000000e+00 
0.0000000e+00 1.6320577e-03 0.0000000e+00 
0.0000000e+00 3.0387153e-03 0.0000000e+00 
0.0000000e+00 3.1898464e-03 0.0000000e+00 
0.0000000e+00 3.2474895e-03 0.0000000e+00 
0.0000000e+00 3.1264338e-03 0.0000000e+00 
0.0000000e+00 2.8841074e-03 0.0000000e+00 
0.0000000e+00 2.7567486e-03 0.0000000e+00 
0.0000000e+00 2.5351271e-03 0.0000000e+00 
0.0000000e+00 2.4125765e-03 0.0000000e+00 
0.0000000e+00 2.2253129e-03 0.0000000e+00 
0.0000000e+00 2.0723315e-03 0.0000000e+00 
0.0000000e+00 1.9775233e-03 0.0000000e+00 
0.0000000e+00 2.1172073e-03 0.0000000e+00 
0.0000000e+00 2.4399876e-03 0.0000000e+00 
0.0000000e+00 2.7366646e-03 0.0000000e+00 
0.0000000e+00 2.9981018e-03 0.0000000e+00 
0.0000000e+00 2.9869042e-03 0.0000000e+00 
0.0000000e+00 2.9280095e-03 0.0000000e+00 
0.0000000e+00 2.9019639e-03 0.0000000e+00 
0.0000000e+00 2.9080810e-03 0.0000000e+00 
0.0000000e+00 2.8725103e-03 0.0000000e+00 
0.0000000e+00 2.7983706e-03 0.0000000e+00 
0.0000000e+00 2.6935022e-03 0.0000000e+00 
0.0000000e+00 2.5835442e-03 0.0000000e+00 
0.0000000e+00 2.5314649e-03 0.0000000e+00 
0.0000000e+00 2.5303555e-03 0.0000000e+00 
0.0000000e+00 2.4217209e-03 0.0000000e+00 
0.0000000e+00 2.1578178e-03 0.0000000e+00 
0.0000000e+00 1.9385912e-03 0.0000000e+00 
0.0000000e+00 1.7416038e-03 0.0000000e+00 
0.0000000e+00 1.5586562e-03 0.0000000e+00 
0.0000000e+00 1.4087317e-03 0.0000000e+00 
0.0000000e+00 1.3521409e-03 0.0000000e+00 
0.0000000e+00 1.4223540e-03 0.0000000e+00 
0.0000000e+00 1.4994303e-03 0.0000000e+00 
0.0000000e+00 1.4475997e-03 0.0000000e+00 
0.0000000e+00 1.5030865e-03 0.0000000e+00 
0.0000000e+00 1.5939114e-03 0.0000000e+00 
0.0000000e+00 1.7367821e-03 0.0000000e+00 
0.0000000e+00 1.9892135e-03 0.0000000e+00 
0.0000000e+00 2.2368315e-03 0.0000000e+00 
0.0000000e+00 2.3853101e-03 0.0000000e+00 
0.0000000e+00 2.4976225e-03 0.0000000e+00 
0.0000000e+00 2.5890148e-03 0.0000000e+00 
0.0000000e+00 2.6067812e-03 0.0000000e+00 
0.0000000e+00 2.6707649e-03 0.0000000e+00 
0.0000000e+00 2.8089879e-03 0.0000000e+00 
0.0000000e+00 2.9111383e-03 0.0000000e+00 
0.0000000e+00 2.9605757e-03 0.0000000e+00 
0.0000000e+00 2.9425651e-03 0.0000000e+00 
0.0000000e+00 2.9226334e-03 0.0000000e+00 
0.0000000e+00 2.9837969e-03 0.0000000e+00 
0.0000000e+00 2.9895916e-03 0.0000000e+00 
0.0000000e+00 2.7647321e-03 0.0000000e+00 
0.0000000e+00 2.4252255e-03 0.0000000e+00 
0.0000000e+00 2.1577103e-03 0.0000000e+00 
0.0000000e+00 2.1020800e-03 0.0000000e+00 
0.0000000e+00 2.1999837e-03 0.0000000e+00 
0.0000000e+00 2.2650997e-03 0.0000000e+00 
0.0000000e+00 2.4149551e-03 0.0000000e+00 
0.0000000e+00 2.6292880e-03 0.0000000e+00 
0.0000000e+00 2.6959530e-03 0.0000000e+00 
0.0000000e+00 2.8128924e-03 0.0000000e+00 
0.0000000e+00 2.9140585e-03 0.0000000e+00 
0.0000000e+00 3.1117443e-03 0.0000000e+00 
0.0000000e+00 3.1827460e-03 0.0000000e+00 
0.0000000e+00 3.1495038e-03 0.0000000e+00 
0.0000000e+00 0.0000000e+00 0.0000000e+00 
0.0000000e+00 0.0000000e+00 0.0000000e+00 
0.0000000e+00 0.0000000e+00 0.0000000e+00 
0.0000000e+00 0.0000000e+00 0.0000000e+00 
0.0000000e+00 0.0000000e+00 0.0000000e+00 
0.0000000e+00 0.0000000e+00 0.0000000e+00 
0.0000000e+00 0.0000000e+00 0.0000000e+00 
0.0000000e+00 0.0000000e+00 0.0000000e+00 
0.0000000e+00 0.0000000e+00 0.0000000e+00 
0.0000000e+00 0.0000000e+00 0.0000000e+00 
0.0000000e+00 0.0000000e+00 0.0000000e+00 
0.0000000e+00 0.0000000e+00 0.0000000e+00 
0.0000000e+00 0.0000000e+00 0.0000000e+00 
0.0000000e+00 0.0000000e+00 0.0000000e+00 
0.0000000e+00 0.0000000e+00 0.0000000e+00 
0.0000000e+00 0.0000000e+00 0.0000000e+00 
0.0000000e+00 0.0000000e+00 0.0000000e+00 
0.0000000e+00 0.0000000e+00 0.0000000e+00 
0.0000000e+00 0.0000000e+00 0.0000000e+00 
0.0000000e+00 0.0000000e+00 0.0000000e+00 
0.0000000e+00 0.0000000e+00 0.0000000e+00 
0.0000000e+00 0.0000000e+00 0.0000000e+00 
0.0000000e+00 0.0000000e+00 0.0000000e+00 
0.0000000e+00 0.0000000e+00 0.0000000e+00 
0.0000000e+00 0.0000000e+00 0.0000000e+00 
0.0000000e+00 0.0000000e+00 0.0000000e+00 
0.0000000e+00 0.0000000e+00 0.0000000e+00 
0.0000000e+00 0.0000000e+00 0.0000000e+00 
0.0000000e+00 0.0000000e+00 0.0000000e+00 
0.0000000e+00 0.0000000e+00 0.0000000e+00 
0.0000000e+00 0.0000000e+00 0.0000000e+00 
0.0000000e+00 0.0000000e+00 0.0000000e+00 
0.0000000e+00 0.0000000e+00 0.0000000e+00 
0.0000000e+00 0.0000000e+00 0.0000000e+00 
0.0000000e+00 0.0000000e+00 0.0000000e+00 
0.0000000e+00 0.0000000e+00 0.0000000e+00 
0.0000000e+00 0.0000000e+00 0.0000000e+00 
0.0000000e+00 0.0000000e+00 0.0000000e+00 
0.0000000e+00 0.0000000e+00 0.0000000e+00 
0.0000000e+00 0.0000000e+00 0.0000000e+00 
0.0000000e+00 0.0000000e+00 0.0000000e+00 
0.0000000e+00 0.0000000e+00 0.0000000e+00 
0.0000000e+00 0.0000000e+00 0.0000000e+00 
0.0000000e+00 0.0000000e+00 0.0000000e+00 
0.0000000e+00 0.0000000e+00 0.0000000e+00 
0.0000000e+00 0.0000000e+00 0.0000000e+00 
0.0000000e+00 3.0117952e-03 0.0000000e+00 
0.0000000e+00 -1.9994022e-04 0.0000000e+00 
0.0000000e+00 2.9497775e-03 0.0000000e+00 
0.0000000e+00 -6.2901137e-04 0.0000000e+00 
0.0000000e+00 2.4675298e-03 0.0000000e+00 
0.0000000e+00 -1.1834342e-03 0.0000000e+00 
0.0000000e+00 2.0577996e-03 0.0000000e+00 
0.0000000e+00 -1.4471681e-03 0.0000000e+00 
0.0000000e+00 2.5671560e-03 0.0000000e+00 
0.0000000e+00 -7.6696323e-04 0.0000000e+00 
0.0000000e+00 2.9792194e-03 0.0000000e+00 
0.0000000e+00 -1.1294815e-04 0.0000000e+00 
0.0000000e+00 3.4723734e-04 0.0000000e+00 
0.0000000e+00 2.9556106e-03 0.0000000e+00 
0.0000000e+00 2.5867899e-03 0.0000000e+00 
0.0000000e+00 4.9147924e-04 0.0000000e+00 
0.0000000e+00 2.4509414e-03 0.0000000e+00 
0.0000000e+00 7.6699379e-04 0.0000000e+00 
0.0000000e+00 1.8349451e-03 0.0000000e+00 
0.0000000e+00 1.1491077e-03 0.0000000e+00 
0.0000000e+00 1.4341063e-03 0.0000000e+00 
0.0000000e+00 1.3944241e-03 0.0000000e+00 
0.0000000e+00 1.5547990e-03 0.0000000e+00 
0.0000000e+00 1.2632431e-03 0.0000000e+00 
0.0000000e+00 1.5988154e-03 0.0000000e+00 
0.0000000e+00 9.7162800e-04 0.0000000e+00 
0.0000000e+00 2.2232668e-03 0.0000000e+00 
0.0000000e+00 2.5520585e-03 0.0000000e+00 
0.0000000e+00 5.5588217e-04 0.0000000e+00 
0.0000000e+00 2.8173381e-03 0.0000000e+00 
0.0000000e+00 3.5060092e-04 0.0000000e+00 
0.0000000e+00 2.9441612e-03 0.0000000e+00 
0.0000000e+00 1.2776595e-04 0.0000000e+00 
0.0000000e+00 2.8558623e-03 0.0000000e+00 
0.0000000e+00 -4.9098290e-04 0.0000000e+00 
0.0000000e+00 2.1453281e-03 0.0000000e+00 
0.0000000e+00 -1.3006733e-03 0.0000000e+00 
0.0000000e+00 2.2971353e-03 0.0000000e+00 
0.0000000e+00 -1.4430273e-03 0.0000000e+00 
0.0000000e+00 2.7864275e-03 0.0000000e+00 
0.0000000e+00 -7.2931626e-04 0.0000000e+00 
0.0000000e+00 -4.3602666e-04 0.0000000e+00 
0.0000000e+00 3.1432938e-03 0.0000000e+00 
0.0000000e+00 1.4161411e-03 0.0000000e+00 
0.0000000e+00 1.5412712e-03 0.0000000e+00 
0.0000000e+00 1.5845422e-03 0.0000000e+00 
0.0000000e+00 3.1538252e-03 0.0000000e+00 
0.0000000e+00 -3.1503648e-04 0.0000000e+00 
0.0000000e+00 3.0955756e-03 0.0000000e+00 
0.0000000e+00 -2.6350343e-04 0.0000000e+00 
0.0000000e+00 3.1284804e-03 0.0000000e+00 
0.0000000e+00 -1.7291885e-04 0.0000000e+00 
0.0000000e+00 3.1357973e-03 0.0000000e+00 
0.0000000e+00 3.0904529e-03 0.0000000e+00 
0.0000000e+00 3.0197476e-03 0.0000000e+00 
0.0000000e+00 3.0449538e-03 0.0000000e+00 
0.0000000e+00 2.9025595e-03 0.0000000e+00 
0.0000000e+00 3.0623910e-03 0.0000000e+00 
0.0000000e+00 2.8459567e-03 0.0000000e+00 
0.0000000e+00 3.1183774e-03 0.0000000e+00 
0.0000000e+00 2.7108511e-03 0.0000000e+00 
0.0000000e+00 2.6281355e-03 0.0000000e+00 
0.0000000e+00 2.5568313e-03 0.0000000e+00 
0.0000000e+00 2.5576740e-03 0.0000000e+00 
0.0000000e+00 2.4548599e-03 0.0000000e+00 
0.0000000e+00 2.4159283e-03 0.0000000e+00 
0.0000000e+00 2.2647141e-03 0.0000000e+00 
0.0000000e+00 2.2269741e-03 0.0000000e+00 
0.0000000e+00 2.1636907e-03 0.0000000e+00 
0.0000000e+00 2.1518304e-03 0.0000000e+00 
0.0000000e+00 2.0924753e-03 0.0000000e+00 
0.0000000e+00 2.1245165e-03 0.0000000e+00 
0.0000000e+00 2.1410896e-03 0.0000000e+00 
0.0000000e+00 2.2718608e-03 0.0000000e+00 
0.0000000e+00 2.3689107e-03 0.0000000e+00 
0.0000000e+00 2.5184148e-03 0.0000000e+00 
0.0000000e+00 2.6487932e-03 0.0000000e+00 
0.0000000e+00 2.7848789e-03 0.0000000e+00 
0.0000000e+00 2.8728680e-03 0.0000000e+00 
0.0000000e+00 2.9675444e-03 0.0000000e+00 
0.0000000e+00 3.0721177e-03 0.0000000e+00 
0.0000000e+00 3.0666422e-03 0.0000000e+00 
0.0000000e+00 3.0381382e-03 0.0000000e+00 
0.0000000e+00 2.9896835e-03 0.0000000e+00 
0.0000000e+00 2.9333269e-03 0.0000000e+00 
0.0000000e+00 2.9341471e-03 0.0000000e+00 
0.0000000e+00 2.8972358e-03 0.0000000e+00 