# vtk DataFile Version 4.0
vtk output
ASCII
DATASET UNSTRUCTURED_GRID
POINTS 1029 float
0.0000000e+00 0.0000000e+00 0.0000000e+00 
2.0000000e+01 0.0000000e+00 0.0000000e+00 
2.0000000e+01 1.0000000e+01 0.0000000e+00 
0.0000000e+00 1.0000000e+01 0.0000000e+00 
1.0000000e+00 1.0000000e+01 0.0000000e+00 
5.0000000e+00 1.0000000e+01 0.0000000e+00 
1.0000000e+01 1.0000000e+01 0.0000000e+00 
1.5000000e+01 1.0000000e+01 0.0000000e+00 
1.0000000e+00 0.0000000e+00 0.0000000e+00 
2.0000000e+00 0.0000000e+00 0.0000000e+00 
3.0000000e+00 0.0000000e+00 0.0000000e+00 
4.0000000e+00 0.0000000e+00 0.0000000e+00 
5.0000000e+00 0.0000000e+00 0.0000000e+00 
6.0000000e+00 0.0000000e+00 0.0000000e+00 
7.0000000e+00 0.0000000e+00 0.0000000e+00 
8.0000000e+00 0.0000000e+00 0.0000000e+00 
9.0000000e+00 0.0000000e+00 0.0000000e+00 
1.0000000e+01 0.0000000e+00 0.0000000e+00 
1.1000000e+01 0.0000000e+00 0.0000000e+00 
1.2000000e+01 0.0000000e+00 0.0000000e+00 
1.3000000e+01 0.0000000e+00 0.0000000e+00 
1.4000000e+01 0.0000000e+00 0.0000000e+00 
1.5000000e+01 0.0000000e+00 0.0000000e+00 
1.6000000e+01 0.0000000e+00 0.0000000e+00 
1.7000000e+01 0.0000000e+00 0.0000000e+00 
1.8000000e+01 0.0000000e+00 0.0000000e+00 
1.9000000e+01 0.0000000e+00 0.0000000e+00 
5.0000000e-01 0.0000000e+00 0.0000000e+00 
1.5000000e+00 0.0000000e+00 0.0000000e+00 
2.5000000e+00 0.0000000e+00 0.0000000e+00 
3.5000000e+00 0.0000000e+00 0.0000000e+00 
4.5000000e+00 0.0000000e+00 0.0000000e+00 
5.5000000e+00 0.0000000e+00 0.0000000e+00 
6.5000000e+00 0.0000000e+00 0.0000000e+00 
7.5000000e+00 0.0000000e+00 0.0000000e+00 
8.5000000e+00 0.0000000e+00 0.0000000e+00 
9.5000000e+00 0.0000000e+00 0.0000000e+00 
1.0500000e+01 0.0000000e+00 0.0000000e+00 
1.1500000e+01 0.0000000e+00 0.0000000e+00 
1.2500000e+01 0.0000000e+00 0.0000000e+00 
1.3500000e+01 0.0000000e+00 0.0000000e+00 
1.4500000e+01 0.0000000e+00 0.0000000e+00 
1.5500000e+01 0.0000000e+00 0.0000000e+00 
1.6500000e+01 0.0000000e+00 0.0000000e+00 
1.7500000e+01 0.0000000e+00 0.0000000e+00 
1.8500000e+01 0.0000000e+00 0.0000000e+00 
1.9500000e+01 0.0000000e+00 0.0000000e+00 
2.0000000e+01 1.0000000e+00 0.0000000e+00 
2.0000000e+01 2.0000000e+00 0.0000000e+00 
2.0000000e+01 3.0000000e+00 0.0000000e+00 
2.0000000e+01 4.0000000e+00 0.0000000e+00 
2.0000000e+01 5.0000000e+00 0.0000000e+00 
2.0000000e+01 6.0000000e+00 0.0000000e+00 
2.0000000e+01 7.0000000e+00 0.0000000e+00 
2.0000000e+01 8.0000000e+00 0.0000000e+00 
2.0000000e+01 9.0000000e+00 0.0000000e+00 
2.0000000e+01 5.0000000e-01 0.0000000e+00 
2.0000000e+01 1.5000000e+00 0.0000000e+00 
2.0000000e+01 2.5000000e+00 0.0000000e+00 
2.0000000e+01 3.5000000e+00 0.0000000e+00 
2.0000000e+01 4.5000000e+00 0.0000000e+00 
2.0000000e+01 5.5000000e+00 0.0000000e+00 
2.0000000e+01 6.5000000e+00 0.0000000e+00 
2.0000000e+01 7.5000000e+00 0.0000000e+00 
2.0000000e+01 8.5000000e+00 0.0000000e+00 
2.0000000e+01 9.5000000e+00 0.0000000e+00 
0.0000000e+00 9.0000000e+00 0.0000000e+00 
0.0000000e+00 8.0000000e+00 0.0000000e+00 
0.0000000e+00 7.0000000e+00 0.0000000e+00 
0.0000000e+00 6.0000000e+00 0.0000000e+00 
0.0000000e+00 5.0000000e+00 0.0000000e+00 
0.0000000e+00 4.0000000e+00 0.0000000e+00 
0.0000000e+00 3.0000000e+00 0.0000000e+00 
0.0000000e+00 2.0000000e+00 0.0000000e+00 
0.0000000e+00 1.0000000e+00 0.0000000e+00 
0.0000000e+00 9.5000000e+00 0.0000000e+00 
0.0000000e+00 8.5000000e+00 0.0000000e+00 
0.0000000e+00 7.5000000e+00 0.0000000e+00 
0.0000000e+00 6.5000000e+00 0.0000000e+00 
0.0000000e+00 5.5000000e+00 0.0000000e+00 
0.0000000e+00 4.5000000e+00 0.0000000e+00 
0.0000000e+00 3.5000000e+00 0.0000000e+00 
0.0000000e+00 2.5000000e+00 0.0000000e+00 
0.0000000e+00 1.5000000e+00 0.0000000e+00 
0.0000000e+00 5.0000000e-01 0.0000000e+00 
5.0000000e-01 1.0000000e+01 0.0000000e+00 
6.0000000e+00 1.0000000e+01 0.0000000e+00 
7.0000000e+00 1.0000000e+01 0.0000000e+00 
8.0000000e+00 1.0000000e+01 0.0000000e+00 
9.0000000e+00 1.0000000e+01 0.0000000e+00 
5.5000000e+00 1.0000000e+01 0.0000000e+00 
6.5000000e+00 1.0000000e+01 0.0000000e+00 
7.5000000e+00 1.0000000e+01 0.0000000e+00 
8.5000000e+00 1.0000000e+01 0.0000000e+00 
9.5000000e+00 1.0000000e+01 0.0000000e+00 
1.1000000e+01 1.0000000e+01 0.0000000e+00 
1.2000000e+01 1.0000000e+01 0.0000000e+00 
1.3000000e+01 1.0000000e+01 0.0000000e+00 
1.4000000e+01 1.0000000e+01 0.0000000e+00 
1.0500000e+01 1.0000000e+01 0.0000000e+00 
1.1500000e+01 1.0000000e+01 0.0000000e+00 
1.2500000e+01 1.0000000e+01 0.0000000e+00 
1.3500000e+01 1.0000000e+01 0.0000000e+00 
1.4500000e+01 1.0000000e+01 0.0000000e+00 
1.9000000e+01 1.0000000e+01 0.0000000e+00 
1.8000000e+01 1.0000000e+01 0.0000000e+00 
1.7000000e+01 1.0000000e+01 0.0000000e+00 
1.6000000e+01 1.0000000e+01 0.0000000e+00 
1.9500000e+01 1.0000000e+01 0.0000000e+00 
1.8500000e+01 1.0000000e+01 0.0000000e+00 
1.7500000e+01 1.0000000e+01 0.0000000e+00 
1.6500000e+01 1.0000000e+01 0.0000000e+00 
1.5500000e+01 1.0000000e+01 0.0000000e+00 
4.0000000e+00 1.0000000e+01 0.0000000e+00 
3.0000000e+00 1.0000000e+01 0.0000000e+00 
2.0000000e+00 1.0000000e+01 0.0000000e+00 
4.5000000e+00 1.0000000e+01 0.0000000e+00 
3.5000000e+00 1.0000000e+01 0.0000000e+00 
2.5000000e+00 1.0000000e+01 0.0000000e+00 
1.5000000e+00 1.0000000e+01 0.0000000e+00 
9.5000000e+00 9.1339750e+00 0.0000000e+00 
1.4500000e+01 9.1339750e+00 0.0000000e+00 
5.5000000e+00 9.1339750e+00 0.0000000e+00 
7.5000000e+00 8.6602539e-01 0.0000000e+00 
1.1500000e+01 8.6602539e-01 0.0000000e+00 
1.4500000e+01 8.6602539e-01 0.0000000e+00 
4.5246964e+00 8.5176694e-01 0.0000000e+00 
1.9059727e+01 4.6363034e+00 0.0000000e+00 
8.4778279e-01 5.4684029e+00 0.0000000e+00 
7.5000000e+00 9.1339750e+00 0.0000000e+00 
1.1500000e+01 9.1339750e+00 0.0000000e+00 
1.6500000e+01 9.1339750e+00 0.0000000e+00 
3.5000000e+00 9.1339750e+00 0.0000000e+00 
9.5000000e+00 8.6602539e-01 0.0000000e+00 
1.6500000e+01 8.6602539e-01 0.0000000e+00 
8.6602539e-01 3.5000000e+00 0.0000000e+00 
1.9111458e+01 6.5092020e+00 0.0000000e+00 
8.9629614e-01 7.5867257e+00 0.0000000e+00 
1.9112749e+01 2.5204153e+00 0.0000000e+00 
2.5402119e+00 7.9592258e-01 0.0000000e+00 
1.9094303e+01 8.4081745e+00 0.0000000e+00 
1.5042374e+00 9.1532278e+00 0.0000000e+00 
8.2949740e-01 1.5059323e+00 0.0000000e+00 
1.8445559e+01 9.5495284e-01 0.0000000e+00 
4.5000000e+00 9.1339750e+00 0.0000000e+00 
5.0000000e+00 8.2679491e+00 0.0000000e+00 
6.0000000e+00 8.2679491e+00 0.0000000e+00 
5.5000000e+00 7.4019237e+00 0.0000000e+00 
6.5000000e+00 7.4019237e+00 0.0000000e+00 
6.0000000e+00 6.5358982e+00 0.0000000e+00 
7.0000000e+00 6.5358982e+00 0.0000000e+00 
6.5000000e+00 5.6698728e+00 0.0000000e+00 
7.5000000e+00 5.6698728e+00 0.0000000e+00 
5.5000000e+00 5.6698728e+00 0.0000000e+00 
6.0000000e+00 4.8038478e+00 0.0000000e+00 
5.0000000e+00 4.8038478e+00 0.0000000e+00 
4.5000000e+00 5.6698728e+00 0.0000000e+00 
4.0000000e+00 4.8038478e+00 0.0000000e+00 
5.5000000e+00 3.9378221e+00 0.0000000e+00 
6.5000000e+00 3.9378221e+00 0.0000000e+00 
8.0000000e+00 6.5358982e+00 0.0000000e+00 
8.5000000e+00 5.6698728e+00 0.0000000e+00 
9.0000000e+00 6.5358982e+00 0.0000000e+00 
9.5000000e+00 5.6698728e+00 0.0000000e+00 
9.0000000e+00 4.8038478e+00 0.0000000e+00 
1.0000000e+01 4.8038478e+00 0.0000000e+00 
1.0500000e+01 5.6698728e+00 0.0000000e+00 
1.1000000e+01 4.8038478e+00 0.0000000e+00 
1.1500000e+01 5.6698728e+00 0.0000000e+00 
1.2000000e+01 4.8038478e+00 0.0000000e+00 
1.2500000e+01 5.6698728e+00 0.0000000e+00 
1.3000000e+01 4.8038478e+00 0.0000000e+00 
1.3500000e+01 5.6698728e+00 0.0000000e+00 
1.4000000e+01 4.8038478e+00 0.0000000e+00 
1.4500000e+01 5.6698728e+00 0.0000000e+00 
1.5000000e+01 4.8038478e+00 0.0000000e+00 
1.5500000e+01 5.6698728e+00 0.0000000e+00 
1.3500000e+01 3.9378221e+00 0.0000000e+00 
1.0500000e+01 3.9378221e+00 0.0000000e+00 
1.6000000e+01 4.8038478e+00 0.0000000e+00 
1.5500000e+01 3.9378221e+00 0.0000000e+00 
1.3000000e+01 6.5358982e+00 0.0000000e+00 
1.6500000e+01 3.9378221e+00 0.0000000e+00 
6.0246964e+00 3.0860553e+00 0.0000000e+00 
3.5000000e+00 5.6698728e+00 0.0000000e+00 
1.6500000e+01 5.6698728e+00 0.0000000e+00 
1.6000000e+01 6.5358982e+00 0.0000000e+00 
1.1000000e+01 6.5358982e+00 0.0000000e+00 
5.0288124e+00 3.1213744e+00 0.0000000e+00 
7.0041161e+00 3.0741732e+00 0.0000000e+00 
2.9553418e+00 4.8365397e+00 0.0000000e+00 
1.6000000e+01 3.0717967e+00 0.0000000e+00 
1.7000000e+01 6.5358982e+00 0.0000000e+00 
1.7000000e+01 3.0717967e+00 0.0000000e+00 
8.5000000e+00 7.4019237e+00 0.0000000e+00 
3.4925570e+00 3.9432709e+00 0.0000000e+00 
9.5000000e+00 7.4019237e+00 0.0000000e+00 
4.5000000e+00 7.4019237e+00 0.0000000e+00 
1.5000000e+01 3.0717967e+00 0.0000000e+00 
1.7507488e+01 5.6669536e+00 0.0000000e+00 
6.5107503e+00 2.2357147e+00 0.0000000e+00 
1.5500000e+01 2.2057714e+00 0.0000000e+00 
1.7482849e+01 3.9478383e+00 0.0000000e+00 
2.4838426e+00 5.7012835e+00 0.0000000e+00 
2.9973071e+00 6.5411334e+00 0.0000000e+00 
1.6500000e+01 7.4019237e+00 0.0000000e+00 
1.5500000e+01 7.4019237e+00 0.0000000e+00 
1.7500000e+01 7.4019237e+00 0.0000000e+00 
7.5006862e+00 3.9382184e+00 0.0000000e+00 
8.0008001e+00 3.0722589e+00 0.0000000e+00 
2.4646075e+00 3.9872341e+00 0.0000000e+00 
3.0000000e+00 3.0717967e+00 0.0000000e+00 
2.0000000e+00 6.5358982e+00 0.0000000e+00 
2.5285575e+00 7.3860493e+00 0.0000000e+00 
1.4500000e+01 2.2057714e+00 0.0000000e+00 
1.8143080e+01 3.0350568e+00 0.0000000e+00 
1.7489780e+01 2.2149704e+00 0.0000000e+00 
1.8901860e+00 3.0475340e+00 0.0000000e+00 
2.5122623e+00 2.2156274e+00 0.0000000e+00 
3.5267401e+00 2.3241744e+00 0.0000000e+00 
1.6000000e+01 8.2679491e+00 0.0000000e+00 
1.5000000e+01 8.2679491e+00 0.0000000e+00 
1.4500000e+01 7.4019237e+00 0.0000000e+00 
1.4000000e+01 8.2679491e+00 0.0000000e+00 
1.3500000e+01 9.1339750e+00 0.0000000e+00 
1.3000000e+01 8.2679491e+00 0.0000000e+00 
9.0000000e+00 8.2679491e+00 0.0000000e+00 
1.0000000e+01 8.2679491e+00 0.0000000e+00 
1.8026423e+01 6.5280433e+00 0.0000000e+00 
1.8507418e+01 7.4261799e+00 0.0000000e+00 
[...]
POINT_DATA 1029
FIELD FieldData 1
VELOCITY 3 1029  float
0.0000000e+00 0.0000000e+00 0.0000000e+00 
0.0000000e+00 0.0000000e+00 0.0000000e+00 
0.0000000e+00 7.7496502e-03 0.0000000e+00 
0.0000000e+00 -7.6873094e-01 0.0000000e+00 
-2.2154916e-02 -8.6412060e-01 0.0000000e+00 
-3.0699122e-01 3.6223179e-01 0.0000000e+00 
-4.2056758e-03 6.9026507e-02 0.0000000e+00 
-2.8155521e-03 3.9135464e-03 0.0000000e+00 
0.0000000e+00 0.0000000e+00 0.0000000e+00 
0.0000000e+00 0.0000000e+00 0.0000000e+00 
0.0000000e+00 0.0000000e+00 0.0000000e+00 
0.0000000e+00 0.0000000e+00 0.0000000e+00 
0.0000000e+00 0.0000000e+00 0.0000000e+00 
0.0000000e+00 0.0000000e+00 0.0000000e+00 
0.0000000e+00 0.0000000e+00 0.0000000e+00 
0.0000000e+00 0.0000000e+00 0.0000000e+00 
0.0000000e+00 0.0000000e+00 0.0000000e+00 
0.0000000e+00 0.0000000e+00 0.0000000e+00 
0.0000000e+00 0.0000000e+00 0.0000000e+00 
0.0000000e+00 0.0000000e+00 0.0000000e+00 
0.0000000e+00 0.0000000e+00 0.0000000e+00 
0.0000000e+00 0.0000000e+00 0.0000000e+00 
0.0000000e+00 0.0000000e+00 0.0000000e+00 
0.0000000e+00 0.0000000e+00 0.0000000e+00 
0.0000000e+00 0.0000000e+00 0.0000000e+00 
0.0000000e+00 0.0000000e+00 0.0000000e+00 
0.0000000e+00 0.0000000e+00 0.0000000e+00 
0.0000000e+00 0.0000000e+00 0.0000000e+00 
0.0000000e+00 0.0000000e+00 0.0000000e+00 
0.0000000e+00 0.0000000e+00 0.0000000e+00 
0.0000000e+00 0.0000000e+00 0.0000000e+00 
0.0000000e+00 0.0000000e+00 0.0000000e+00 
0.0000000e+00 0.0000000e+00 0.0000000e+00 
0.0000000e+00 0.0000000e+00 0.0000000e+00 
0.0000000e+00 0.0000000e+00 0.0000000e+00 
0.0000000e+00 0.0000000e+00 0.0000000e+00 
0.0000000e+00 0.0000000e+00 0.0000000e+00 
0.0000000e+00 0.0000000e+00 0.0000000e+00 
0.0000000e+00 0.0000000e+00 0.0000000e+00 
0.0000000e+00 0.0000000e+00 0.0000000e+00 
0.0000000e+00 0.0000000e+00 0.0000000e+00 
0.0000000e+00 0.0000000e+00 0.0000000e+00 
0.0000000e+00 0.0000000e+00 0.0000000e+00 
0.0000000e+00 0.0000000e+00 0.0000000e+00 
0.0000000e+00 0.0000000e+00 0.0000000e+00 
0.0000000e+00 0.0000000e+00 0.0000000e+00 
0.0000000e+00 0.0000000e+00 0.0000000e+00 
0.0000000e+00 1.8777756e-03 0.0000000e+00 
0.0000000e+00 -6.7470653e-04 0.0000000e+00 
0.0000000e+00 -4.0824320e-03 0.0000000e+00 
0.0000000e+00 1.2960662e-03 0.0000000e+00 
0.0000000e+00 9.4642903e-04 0.0000000e+00 
0.0000000e+00 9.4980060e-04 0.0000000e+00 
0.0000000e+00 2.8314183e-03 0.0000000e+00 
0.0000000e+00 -1.3854107e-03 0.0000000e+00 
0.0000000e+00 -1.5396037e-03 0.0000000e+00 
0.0000000e+00 -3.3914049e-03 0.0000000e+00 
0.0000000e+00 -3.1242399e-03 0.0000000e+00 
0.0000000e+00 -2.4390738e-03 0.0000000e+00 
0.0000000e+00 5.2000792e-04 0.0000000e+00 
0.0000000e+00 -2.5734862e-03 0.0000000e+00 
0.0000000e+00 -2.3290506e-03 0.0000000e+00 
0.0000000e+00 1.9847045e-03 0.0000000e+00 
0.0000000e+00 1.8843926e-03 0.0000000e+00 
0.0000000e+00 -1.0820806e-04 0.0000000e+00 
0.0000000e+00 9.8479597e-04 0.0000000e+00 
0.0000000e+00 -8.3015734e-01 0.0000000e+00 
0.0000000e+00 -9.1431338e-01 0.0000000e+00 
0.0000000e+00 -1.0773296e+00 0.0000000e+00 
0.0000000e+00 -1.2814248e+00 0.0000000e+00 
0.0000000e+00 -1.0929495e+00 0.0000000e+00 
0.0000000e+00 -1.3853022e+00 0.0000000e+00 
0.0000000e+00 -1.6741875e-01 0.0000000e+00 
0.0000000e+00 4.3478418e-02 0.0000000e+00 
0.0000000e+00 1.9241787e-01 0.0000000e+00 
0.0000000e+00 -8.2179344e-01 0.0000000e+00 
0.0000000e+00 -9.0732503e-01 0.0000000e+00 
0.0000000e+00 -1.0206873e+00 0.0000000e+00 
0.0000000e+00 -1.2430134e+00 0.0000000e+00 
0.0000000e+00 -1.2484523e+00 0.0000000e+00 
0.0000000e+00 -1.1100613e+00 0.0000000e+00 
0.0000000e+00 -8.5516626e-01 0.0000000e+00 
0.0000000e+00 3.0587226e-01 0.0000000e+00 
0.0000000e+00 -1.0195136e-01 0.0000000e+00 
0.0000000e+00 1.6545774e-03 0.0000000e+00 
4.8308019e-03 -8.5992253e-01 0.0000000e+00 
2.6936656e-01 2.9846171e-03 0.0000000e+00 
-1.6530490e-02 5.5521719e-02 0.0000000e+00 
1.6198644e-02 -1.2876233e-01 0.0000000e+00 
2.3852374e-02 -1.5153425e-02 0.0000000e+00 
4.5422770e-02 1.1625969e-01 0.0000000e+00 
1.0697556e-01 -1.1033790e-01 0.0000000e+00 
1.1158847e-01 5.3159051e-02 0.0000000e+00 
-2.4572741e-02 2.5839942e-02 0.0000000e+00 
-2.6654549e-02 -5.5652816e-02 0.0000000e+00 
-2.3937095e-02 1.0194622e-02 0.0000000e+00 
-3.3758473e-02 -2.5736308e-02 0.0000000e+00 
1.7352579e-02 -6.5042609e-03 0.0000000e+00 
2.5143869e-02 -7.8089954e-03 0.0000000e+00 
1.4575543e-02 -1.0124248e-02 0.0000000e+00 
1.9209126e-02 3.6535643e-02 0.0000000e+00 
-5.7956367e-04 2.2933280e-02 0.0000000e+00 
-1.5573925e-02 1.0771329e-02 0.0000000e+00 
-1.0269730e-02 -9.7442156e-04 0.0000000e+00 
-1.3474538e-03 6.9511617e-03 0.0000000e+00 
-1.3851306e-03 8.8656871e-03 0.0000000e+00 
3.8359484e-03 1.0740519e-02 0.0000000e+00 
7.9058844e-04 1.1820761e-02 0.0000000e+00 
-1.1858889e-03 -4.7141658e-03 0.0000000e+00 
-1.8152868e-04 -6.9798250e-03 0.0000000e+00 
-1.5229292e-03 -7.1734972e-03 0.0000000e+00 
-2.8116889e-03 -1.0477304e-02 0.0000000e+00 
-6.7259772e-03 -8.8675106e-03 0.0000000e+00 
-8.9511675e-01 -2.2376759e-01 0.0000000e+00 
-7.5994802e-01 -1.3634412e+00 0.0000000e+00 
-2.3827774e-02 -1.1743400e+00 0.0000000e+00 
-5.8833575e-01 1.7916112e-01 0.0000000e+00 
-9.9966484e-01 -9.3998432e-01 0.0000000e+00 
-3.2121912e-01 -1.3961890e+00 0.0000000e+00 
8.1989274e-04 -1.0263343e+00 0.0000000e+00 
-4.0229499e-02 -3.6447667e-02 0.0000000e+00 
-5.8981781e-03 1.8201848e-02 0.0000000e+00 
1.6887800e-01 2.1424006e-01 0.0000000e+00 
-1.7474815e-02 1.5354381e-02 0.0000000e+00 
-2.5209416e-02 -8.7592248e-03 0.0000000e+00 
1.9191642e-03 -3.9154030e-03 0.0000000e+00 
3.0566394e-02 -5.4355159e-02 0.0000000e+00 
5.4712046e-04 2.1570413e-04 0.0000000e+00 
4.1154590e-01 -1.1179883e+00 0.0000000e+00 
4.3147184e-02 -4.4720605e-02 0.0000000e+00 
4.0166676e-03 8.3010774e-03 0.0000000e+00 
-3.8331957e-04 -1.8867538e-03 0.0000000e+00 
-3.5265562e-01 -8.4686559e-01 0.0000000e+00 
6.8020253e-03 3.3219673e-02 0.0000000e+00 
1.1754082e-02 6.6651981e-03 0.0000000e+00 
1.5052235e-01 -7.7722138e-01 0.0000000e+00 
1.7269501e-04 1.9540463e-03 0.0000000e+00 
-1.2767886e-01 -1.1106108e+00 0.0000000e+00 
9.3482365e-04 -2.9111991e-03 0.0000000e+00 
-5.4909214e-02 -2.4339233e-02 0.0000000e+00 
-5.6203996e-04 -2.0353701e-03 0.0000000e+00 
-2.0958117e-01 -1.0675933e+00 0.0000000e+00 
-2.9623009e-02 -1.5639199e-01 0.0000000e+00 
6.8145193e-04 5.0453893e-03 0.0000000e+00 
-2.8235325e-01 1.5679048e-01 0.0000000e+00 
2.7833253e-01 2.4097799e-01 0.0000000e+00 
1.4623791e-01 -8.3918236e-02 0.0000000e+00 
3.2787257e-01 -8.8653684e-02 0.0000000e+00 
1.5149166e-01 -1.0616297e-01 0.0000000e+00 
2.1314098e-01 -1.3460411e-01 0.0000000e+00 
-1.0490513e-02 -1.4891390e-02 0.0000000e+00 
-7.3862791e-02 -8.7390058e-03 0.0000000e+00 
6.2724069e-02 3.2346141e-02 0.0000000e+00 
1.8322849e-01 -7.8193396e-02 0.0000000e+00 
-1.0983566e-01 -2.4865378e-02 0.0000000e+00 
8.0392063e-02 -6.7490474e-03 0.0000000e+00 
4.7560760e-01 -4.3727499e-01 0.0000000e+00 
4.2426574e-01 -5.3484339e-01 0.0000000e+00 
-2.8840272e-02 -3.9831348e-02 0.0000000e+00 
2.3182271e-02 -3.5957888e-02 0.0000000e+00 
3.2623224e-02 3.0189607e-02 0.0000000e+00 
-3.9818816e-02 -6.3664630e-02 0.0000000e+00 
-2.1871747e-02 -1.1454038e-02 0.0000000e+00 
6.6094175e-03 -3.1051820e-02 0.0000000e+00 
-7.6674996e-03 -8.3475364e-03 0.0000000e+00 
2.7583577e-02 6.1590780e-02 0.0000000e+00 
6.3902061e-03 3.7985094e-02 0.0000000e+00 
4.1565429e-03 -2.7776586e-03 0.0000000e+00 
2.7947644e-02 3.2883078e-02 0.0000000e+00 
3.5835584e-04 -3.7871465e-02 0.0000000e+00 
4.0144245e-03 -5.0174179e-03 0.0000000e+00 
-1.6462104e-02 -2.5974723e-02 0.0000000e+00 
-2.6378624e-02 -1.9131824e-02 0.0000000e+00 
-1.4327582e-03 -8.3794752e-03 0.0000000e+00 
-4.0902579e-03 -5.7845139e-03 0.0000000e+00 
1.8467514e-02 1.1498407e-02 0.0000000e+00 
1.0720995e-02 2.4534527e-03 0.0000000e+00 
3.0254417e-03 2.0559805e-02 0.0000000e+00 
1.3990110e-02 1.3110384e-03 0.0000000e+00 
1.2749890e-02 1.3541452e-02 0.0000000e+00 
4.3879910e-03 1.4515726e-02 0.0000000e+00 
-3.0336240e-03 -1.0270794e-03 0.0000000e+00 
-1.8226251e-03 5.2315053e-03 0.0000000e+00 
-5.0793417e-02 -4.1559823e-02 0.0000000e+00 
6.4088500e-01 -6.0021299e-01 0.0000000e+00 
3.8543732e-03 2.2543781e-03 0.0000000e+00 
-1.6293488e-03 -4.4193845e-03 0.0000000e+00 
4.5049167e-04 9.3215965e-03 0.0000000e+00 
3.5069231e-02 -4.3957852e-02 0.0000000e+00 
4.9598273e-02 3.8396508e-02 0.0000000e+00 
4.4671255e-01 -9.0475798e-01 0.0000000e+00 
-7.9375952e-03 -3.9972607e-03 0.0000000e+00 
-2.5635439e-03 -2.8867114e-03 0.0000000e+00 
-4.1434211e-03 -8.1568761e-03 0.0000000e+00 
4.1822948e-02 5.9442345e-02 0.0000000e+00 
8.9191630e-02 -2.0624982e-01 0.0000000e+00 
-1.3771147e-02 4.2924996e-02 0.0000000e+00 
4.9455315e-01 2.3997712e-01 0.0000000e+00 
-4.1954499e-03 -4.3328675e-03 0.0000000e+00 
2.0523390e-04 5.8878241e-03 0.0000000e+00 
-1.2079861e-02 2.0178588e-02 0.0000000e+00 
-1.4116313e-02 -1.3573287e-02 0.0000000e+00 
-2.8003028e-03 -4.2354367e-03 0.0000000e+00 
8.0654353e-01 -4.9026728e-01 0.0000000e+00 
6.9997776e-01 -4.0363032e-01 0.0000000e+00 
9.1961405e-04 -5.6238095e-03 0.0000000e+00 
-3.4831758e-03 -2.7853022e-03 0.0000000e+00 
8.0140552e-04 -3.4840866e-03 0.0000000e+00 
4.4199944e-02 3.2280520e-02 0.0000000e+00 
1.5917199e-03 -4.2209350e-02 0.0000000e+00 
3.8839516e-01 -7.0950794e-01 0.0000000e+00 
-1.0231080e-01 2.2786321e-01 0.0000000e+00 
-8.0388874e-02 -1.1552525e+00 0.0000000e+00 
-2.1875064e-01 -1.2095598e+00 0.0000000e+00 
-5.9507745e-03 -1.7209446e-02 0.0000000e+00 
-9.9413749e-04 -6.6277469e-03 0.0000000e+00 
-6.4288505e-04 -7.4842884e-03 0.0000000e+00 
-1.8223649e-01 5.3164154e-02 0.0000000e+00 
1.3674797e-01 -1.3754429e-01 0.0000000e+00 
-2.1987399e-02 -1.9909309e-01 0.0000000e+00 
-1.5810962e-03 -8.7102978e-03 0.0000000e+00 
-5.1531103e-03 -9.3363672e-03 0.0000000e+00 
-6.1281887e-04 6.5018935e-03 0.0000000e+00 
9.4951969e-03 -1.6155323e-02 0.0000000e+00 
1.3886532e-02 3.4204055e-02 0.0000000e+00 
3.7163303e-03 -3.2384310e-02 0.0000000e+00 
7.1876403e-03 7.6706945e-03 0.0000000e+00 
1.6480805e-02 -3.1521544e-02 0.0000000e+00 
-1.9037094e-03 2.0459510e-04 0.0000000e+00 
1.1651944e-04 -1.6444026e-03 0.0000000e+00 
6.2199286e-04 -2.0620197e-03 0.0000000e+00 
-4.1860755e-04 4.9879532e-03 0.0000000e+00 
3.9466619e-04 6.0228617e-03 0.0000000e+00 
7.5344294e-02 7.2377250e-02 0.0000000e+00 
3.4277360e-03 -5.4962914e-03 0.0000000e+00 
-3.1129233e-04 -3.3683383e-03 0.0000000e+00 
2.5440447e-02 2.1061514e-02 0.0000000e+00 
-5.4551032e-03 1.7682644e-02 0.0000000e+00 
-2.2581958e-03 2.2663202e-03 0.0000000e+00 
-9.0651051e-04 -1.4512477e-02 0.0000000e+00 
2.7085319e-02 1.7726185e-02 0.0000000e+00 
-5.6285784e-02 -3.3118598e-02 0.0000000e+00 
-2.7153485e-02 -1.1800320e-02 0.0000000e+00 
1.5981143e-02 2.7109651e-02 0.0000000e+00 
2.9249694e-02 -4.2288303e-02 0.0000000e+00 
-1.2882757e-02 6.5171332e-03 0.0000000e+00 
2.7116489e-02 -7.1982299e-03 0.0000000e+00 
3.2032378e-02 6.1758604e-02 0.0000000e+00 
-3.5076445e-01 -1.4685830e+00 0.0000000e+00 
-4.3828931e-02 6.6681311e-02 0.0000000e+00 
1.3931801e-02 5.1605972e-03 0.0000000e+00 
-1.7263068e-02 -1.0332659e-02 0.0000000e+00 
9.6054459e-03 1.5609658e-02 0.0000000e+00 
3.8845968e-03 1.0073096e-02 0.0000000e+00 
-1.1450547e-02 1.8490884e-02 0.0000000e+00 
7.0412294e-03 4.9905642e-03 0.0000000e+00 
8.2144570e-03 7.2310623e-03 0.0000000e+00 
-1.4349314e-02 -4.3722969e-02 0.0000000e+00 
-7.4805305e-03 -2.4674371e-02 0.0000000e+00 
-8.2455706e-03 1.9383954e-03 0.0000000e+00 
-1.7308336e-02 -1.4669104e-02 0.0000000e+00 
1.3722349e-02 1.6082384e-02 0.0000000e+00 
-9.2412792e-03 -5.0512366e-02 0.0000000e+00 
7.9089133e-03 4.1146502e-02 0.0000000e+00 
1.2061874e-02 -2.1085884e-02 0.0000000e+00 
2.4695706e-02 -1.4393534e-02 0.0000000e+00 
1.6192816e-02 1.1374261e-02 0.0000000e+00 
-2.2573153e-02 -9.2860665e-03 0.0000000e+00 
-3.0827876e-03 -9.3539944e-03 0.0000000e+00 
-5.6432706e-04 -5.6594196e-03 0.0000000e+00 
-1.9269663e-01 -1.3481002e+00 0.0000000e+00 
1.7081606e-01 -1.0323670e+00 0.0000000e+00 
4.0721577e-01 -8.7769878e-01 0.0000000e+00 
-3.4043644e-02 2.8351831e-01 0.0000000e+00 
4.1174108e-01 -1.6415702e-01 0.0000000e+00 
-2.5379064e-02 -6.8791151e-02 0.0000000e+00 
-3.1136051e-02 1.0338447e-01 0.0000000e+00 
-5.8285547e-03 1.5017204e-03 0.0000000e+00 
8.1257066e-03 7.1065524e-03 0.0000000e+00 
-6.9061616e-03 -1.0507544e-02 0.0000000e+00 
-2.3400074e-02 5.8116443e-03 0.0000000e+00 
-2.6743792e-02 -6.1653029e-02 0.0000000e+00 
1.4382419e-02 4.1845529e-03 0.0000000e+00 
-3.0577194e-03 -5.9136399e-03 0.0000000e+00 
6.3499048e-02 4.9229812e-02 0.0000000e+00 
1.4461254e-02 3.3582631e-02 0.0000000e+00 
-4.7629889e-02 -5.0127294e-02 0.0000000e+00 
1.0984359e-02 1.0568558e-01 0.0000000e+00 
-4.5375541e-02 -4.5588296e-02 0.0000000e+00 
-1.3160441e-02 3.6389544e-03 0.0000000e+00 
2.5945997e-03 -7.6920311e-03 0.0000000e+00 
2.1752286e-01 -3.6079082e-01 0.0000000e+00 
6.5901297e-01 -7.6168239e-02 0.0000000e+00 
-2.4318680e-01 -1.3045887e+00 0.0000000e+00 
-2.6254454e-01 -1.2401012e+00 0.0000000e+00 
1.1265089e-02 3.7095755e-02 0.0000000e+00 
3.7866008e-02 2.7183196e-02 0.0000000e+00 
-7.1710590e-03 3.7860513e-02 0.0000000e+00 
2.1222893e-02 1.0204443e-02 0.0000000e+00 
-3.8190195e-04 -9.7719440e-04 0.0000000e+00 
-7.1851075e-02 -1.0238283e+00 0.0000000e+00 
-1.2632239e-03 7.5275600e-02 0.0000000e+00 
-2.5966661e-03 -3.6208997e-03 0.0000000e+00 
6.9089845e-02 -2.3398553e-01 0.0000000e+00 
4.2208144e-04 -6.1607762e-04 0.0000000e+00 
3.5492006e-01 -1.2222645e+00 0.0000000e+00 
-3.4768579e-03 -6.1518974e-03 0.0000000e+00 
5.8303300e-02 1.0731358e-01 0.0000000e+00 
1.2756939e-02 4.3400090e-02 0.0000000e+00 
2.4658048e-03 -5.1084004e-04 0.0000000e+00 
-1.3546856e-02 8.9826718e-02 0.0000000e+00 
-4.6725791e-02 -4.1224301e-02 0.0000000e+00 
3.0953735e-02 -1.6790453e-03 0.0000000e+00 
-9.8608518e-03 1.1166379e-02 0.0000000e+00 
4.5745075e-02 2.5088899e-02 0.0000000e+00 
-4.0704748e-03 -1.3583082e-02 0.0000000e+00 
-1.7130319e-02 -1.5499330e-02 0.0000000e+00 
4.9042101e-03 -6.0776290e-03 0.0000000e+00 
-8.2397705e-04 -1.3678902e-02 0.0000000e+00 
-8.5301809e-03 -6.5738098e-03 0.0000000e+00 
-2.8123269e-03 4.6654008e-03 0.0000000e+00 
5.7875225e-03 5.4578981e-03 0.0000000e+00 
-6.0601369e-02 -9.9601960e-03 0.0000000e+00 
-1.2929341e-02 -2.0877523e-03 0.0000000e+00 
-3.0604500e-01 -1.2551239e+00 0.0000000e+00 
-1.1543640e-03 1.6743125e-03 0.0000000e+00 
6.0970414e-01 -9.7916323e-01 0.0000000e+00 
-3.9667906e-03 2.3817574e-03 0.0000000e+00 
-5.8495566e-02 -8.9158499e-01 0.0000000e+00 
1.3196442e-02 5.2368406e-02 0.0000000e+00 
-2.2311858e-03 -2.1666936e-03 0.0000000e+00 
4.2339959e-03 9.4197746e-03 0.0000000e+00 
-2.5878858e-02 3.9040424e-02 0.0000000e+00 
4.6099725e-01 -9.7983778e-01 0.0000000e+00 
3.1291258e-01 -1.0016469e+00 0.0000000e+00 
4.4305128e-01 -8.7829655e-01 0.0000000e+00 
-1.3125502e-01 -1.0749973e+00 0.0000000e+00 
-1.4307219e-01 -1.0157375e+00 0.0000000e+00 
-2.2585599e-01 -1.1152571e+00 0.0000000e+00 
-2.4065876e-01 -1.1774191e+00 0.0000000e+00 
-2.9923087e-01 -1.2625470e+00 0.0000000e+00 
7.8966486e-04 -2.6604335e-03 0.0000000e+00 
-1.9052551e-03 1.3359594e-03 0.0000000e+00 
1.0008733e-03 2.3084674e-03 0.0000000e+00 
4.9861902e-03 -1.3712940e-01 0.0000000e+00 
-7.8766674e-02 1.3533133e-01 0.0000000e+00 
5.3200301e-02 -3.5290650e-01 0.0000000e+00 
2.7281239e-03 4.9952208e-03 0.0000000e+00 
-2.2047369e-03 -2.0550310e-03 0.0000000e+00 
1.3675223e-04 -1.4628398e-03 0.0000000e+00 
-3.1458858e-05 7.5622555e-04 0.0000000e+00 
9.7028847e-04 -2.0245989e-03 0.0000000e+00 
-3.2005392e-04 3.5888577e-05 0.0000000e+00 
2.6281223e-01 -1.1203698e+00 0.0000000e+00 
3.8181081e-01 -9.0995789e-01 0.0000000e+00 
6.1257176e-02 9.3866050e-02 0.0000000e+00 
-2.3630731e-02 2.2285774e-01 0.0000000e+00 
2.7088039e-03 -8.6090568e-04 0.0000000e+00 
-2.9720101e-03 -8.8855874e-04 0.0000000e+00 
7.3977232e-01 -8.0987155e-01 0.0000000e+00 
6.1596364e-01 -7.3203164e-01 0.0000000e+00 
-2.1148608e-03 1.3075556e-03 0.0000000e+00 
1.4330850e-03 -1.5983881e-03 0.0000000e+00 
-1.0131383e-03 7.8074873e-04 0.0000000e+00 
5.8095704e-04 -1.8958817e-04 0.0000000e+00 
6.9900445e-04 8.8714453e-04 0.0000000e+00 
-1.7877646e-04 -2.1840436e-03 0.0000000e+00 
7.1140140e-04 -4.5402729e-04 0.0000000e+00 
-1.5038810e-03 1.0599400e-03 0.0000000e+00 
-2.0196472e-04 3.2646168e-04 0.0000000e+00 
2.3908423e-01 -5.8858204e-01 0.0000000e+00 
2.4352358e-01 -1.0047773e+00 0.0000000e+00 
1.7111625e-03 5.9444946e-03 0.0000000e+00 
-1.1135386e-03 -8.5516246e-03 0.0000000e+00 
-1.4885212e-01 -1.0113933e+00 0.0000000e+00 
-2.1489647e-01 -1.1302872e+00 0.0000000e+00 
-3.0346626e-01 -1.3030052e+00 0.0000000e+00 
-3.0639371e-01 -1.2399516e+00 0.0000000e+00 
-1.9728996e-01 -1.2408147e+00 0.0000000e+00 
-2.0589089e-04 1.3391648e-03 0.0000000e+00 
-6.3783384e-04 -3.2523430e-03 0.0000000e+00 
3.6737754e-03 -1.3711888e-01 0.0000000e+00 
-1.3142089e-02 -1.8417034e-01 0.0000000e+00 
-9.8458154e-04 1.1367763e-01 0.0000000e+00 
4.7353312e-02 -8.3793979e-03 0.0000000e+00 
-2.2885233e-02 1.4630812e-01 0.0000000e+00 
9.9545822e-04 3.7440122e-03 0.0000000e+00 
-4.4433591e-03 -3.4936348e-03 0.0000000e+00 
-1.0225048e-02 5.3803846e-02 0.0000000e+00 
-7.8623751e-03 2.3355165e-02 0.0000000e+00 
-4.8195697e-02 -7.3762447e-02 0.0000000e+00 
1.9456863e-02 -4.6428546e-02 0.0000000e+00 
-1.3925244e-02 2.1473741e-02 0.0000000e+00 
-4.1364320e-02 2.9315352e-02 0.0000000e+00 
-8.3242357e-04 -5.4991515e-03 0.0000000e+00 
2.7231018e-03 3.1056125e-03 0.0000000e+00 
1.0704213e-03 -7.1396737e-04 0.0000000e+00 
-7.9076906e-04 -4.1200253e-04 0.0000000e+00 
9.9396704e-05 -1.6799921e-04 0.0000000e+00 
-1.3999626e-03 -3.3301662e-04 0.0000000e+00 
3.0858230e-03 1.9777901e-03 0.0000000e+00 
8.6458080e-02 -1.2636286e+00 0.0000000e+00 
2.8286275e-01 -1.0214466e+00 0.0000000e+00 
-3.0583662e-03 -2.2378950e-03 0.0000000e+00 
-2.2839212e-01 -1.2240202e+00 0.0000000e+00 
9.3747713e-03 1.3210614e-01 0.0000000e+00 
-1.9681416e-02 -1.3233954e-01 0.0000000e+00 
-9.5599541e-04 5.6412671e-04 0.0000000e+00 
-4.7723550e-04 -5.1139188e-03 0.0000000e+00 
-2.9858754e-03 1.7912264e-03 0.0000000e+00 
1.1410207e-03 -1.0619807e-03 0.0000000e+00 
4.1682366e-03 8.1289262e-03 0.0000000e+00 
-3.8337518e-02 1.4668376e-02 0.0000000e+00 
-2.3873425e-03 -7.8034634e-03 0.0000000e+00 
-1.4141626e-02 1.6668912e-02 0.0000000e+00 
-2.0585971e-02 3.5824238e-03 0.0000000e+00 
-1.7491649e-03 1.9232252e-03 0.0000000e+00 
-5.9412565e-04 4.8217289e-03 0.0000000e+00 
4.3394399e-04 -8.5705835e-03 0.0000000e+00 
6.4596051e-04 1.9014891e-03 0.0000000e+00 
1.6044441e-03 7.7211233e-03 0.0000000e+00 
-7.7181321e-06 -1.0427912e-02 0.0000000e+00 
2.4920097e-03 -4.0194103e-03 0.0000000e+00 
1.5881007e-03 6.2254970e-03 0.0000000e+00 
-1.9755557e-03 4.3169325e-03 0.0000000e+00 
2.7868802e-05 2.9781919e-03 0.0000000e+00 
4.3034944e-04 -2.1164212e-03 0.0000000e+00 
1.8658922e-03 -6.1578359e-03 0.0000000e+00 
-1.8609564e-03 1.0079886e-02 0.0000000e+00 
6.1844043e-03 -6.0696770e-03 0.0000000e+00 
-6.3821306e-03 -2.9815612e-03 0.0000000e+00 
-4.1508414e-03 -6.5108142e-03 0.0000000e+00 
9.7792568e-03 1.8704448e-02 0.0000000e+00 
7.4709309e-03 -1.4987529e-02 0.0000000e+00 
-7.0677912e-03 -1.3462748e-02 0.0000000e+00 
9.5518269e-03 2.3751453e-02 0.0000000e+00 
2.0283271e-04 4.1754912e-03 0.0000000e+00 
2.2736551e-04 6.8950911e-05 0.0000000e+00 
5.6050029e-03 2.1551743e-02 0.0000000e+00 
-5.8293180e-03 3.1440303e-02 0.0000000e+00 
1.0471059e-02 -5.2187471e-03 0.0000000e+00 
-2.6559015e-04 -5.5542164e-03 0.0000000e+00 
-1.2144849e-02 -7.9705315e-03 0.0000000e+00 
2.7490277e-03 -1.3411159e-02 0.0000000e+00 
-1.3078935e-02 7.7015962e-03 0.0000000e+00 
9.8675792e-04 5.9536831e-03 0.0000000e+00 
1.6177960e-02 1.9310994e-02 0.0000000e+00 
1.6844168e-02 -2.1279702e-02 0.0000000e+00 
7.4859645e-04 -1.9262513e-02 0.0000000e+00 
-3.7455582e-03 3.3747738e-03 0.0000000e+00 
-3.3978503e-03 -1.2470335e-02 0.0000000e+00 
-1.6896239e-03 3.2550205e-02 0.0000000e+00 
4.6933386e-03 -5.6426441e-03 0.0000000e+00 