# vtk DataFile Version 4.0
vtk output
ASCII
DATASET UNSTRUCTURED_GRID
POINTS 1029 float
0.0000000e+00 0.0000000e+00 0.0000000e+00 
2.0000000e+01 0.0000000e+00 0.0000000e+00 
2.0000000e+01 1.0000000e+01 0.0000000e+00 
0.0000000e+00 1.0000000e+01 0.0000000e+00 
1.0000000e+00 1.0000000e+01 0.0000000e+00 
5.0000000e+00 1.0000000e+01 0.0000000e+00 
1.0000000e+01 1.0000000e+01 0.0000000e+00 
1.5000000e+01 1.0000000e+01 0.0000000e+00 
1.0000000e+00 0.0000000e+00 0.0000000e+00 
2.0000000e+00 0.0000000e+00 0.0000000e+00 
3.0000000e+00 0.0000000e+00 0.0000000e+00 
4.0000000e+00 0.0000000e+00 0.0000000e+00 
5.0000000e+00 0.0000000e+00 0.0000000e+00 
6.0000000e+00 0.0000000e+00 0.0000000e+00 
7.0000000e+00 0.0000000e+00 0.0000000e+00 
8.0000000e+00 0.0000000e+00 0.0000000e+00 
9.0000000e+00 0.0000000e+00 0.0000000e+00 
1.0000000e+01 0.0000000e+00 0.0000000e+00 
1.1000000e+01 0.0000000e+00 0.0000000e+00 
1.2000000e+01 0.0000000e+00 0.0000000e+00 
1.3000000e+01 0.0000000e+00 0.0000000e+00 
1.4000000e+01 0.0000000e+00 0.0000000e+00 
1.5000000e+01 0.0000000e+00 0.0000000e+00 
1.6000000e+01 0.0000000e+00 0.0000000e+00 
1.7000000e+01 0.0000000e+00 0.0000000e+00 
1.8000000e+01 0.0000000e+00 0.0000000e+00 
1.9000000e+01 0.0000000e+00 0.0000000e+00 
5.0000000e-01 0.0000000e+00 0.0000000e+00 
1.5000000e+00 0.0000000e+00 0.0000000e+00 
2.5000000e+00 0.0000000e+00 0.0000000e+00 
3.5000000e+00 0.0000000e+00 0.0000000e+00 
4.5000000e+00 0.0000000e+00 0.0000000e+00 
5.5000000e+00 0.0000000e+00 0.0000000e+00 
6.5000000e+00 0.0000000e+00 0.0000000e+00 
7.5000000e+00 0.0000000e+00 0.0000000e+00 
8.5000000e+00 0.0000000e+00 0.0000000e+00 
9.5000000e+00 0.0000000e+00 0.0000000e+00 
1.0500000e+01 0.0000000e+00 0.0000000e+00 
1.1500000e+01 0.0000000e+00 0.0000000e+00 
1.2500000e+01 0.0000000e+00 0.0000000e+00 
1.3500000e+01 0.0000000e+00 0.0000000e+00 
1.4500000e+01 0.0000000e+00 0.0000000e+00 
1.5500000e+01 0.0000000e+00 0.0000000e+00 
1.6500000e+01 0.0000000e+00 0.0000000e+00 
1.7500000e+01 0.0000000e+00 0.0000000e+00 
1.8500000e+01 0.0000000e+00 0.0000000e+00 
1.9500000e+01 0.0000000e+00 0.0000000e+00 
2.0000000e+01 1.0000000e+00 0.0000000e+00 
2.0000000e+01 2.0000000e+00 0.0000000e+00 
2.0000000e+01 3.0000000e+00 0.0000000e+00 
2.0000000e+01 4.0000000e+00 0.0000000e+00 
2.0000000e+01 5.0000000e+00 0.0000000e+00 
2.0000000e+01 6.0000000e+00 0.0000000e+00 
2.0000000e+01 7.0000000e+00 0.0000000e+00 
2.0000000e+01 8.0000000e+00 0.0000000e+00 
2.0000000e+01 9.0000000e+00 0.0000000e+00 
2.0000000e+01 5.0000000e-01 0.0000000e+00 
2.0000000e+01 1.5000000e+00 0.0000000e+00 
2.0000000e+01 2.5000000e+00 0.0000000e+00 
2.0000000e+01 3.5000000e+00 0.0000000e+00 
2.0000000e+01 4.5000000e+00 0.0000000e+00 
2.0000000e+01 5.5000000e+00 0.0000000e+00 
2.0000000e+01 6.5000000e+00 0.0000000e+00 
2.0000000e+01 7.5000000e+00 0.0000000e+00 
2.0000000e+01 8.5000000e+00 0.0000000e+00 
2.0000000e+01 9.5000000e+00 0.0000000e+00 
0.0000000e+00 9.0000000e+00 0.0000000e+00 
0.0000000e+00 8.0000000e+00 0.0000000e+00 
0.0000000e+00 7.0000000e+00 0.0000000e+00 
0.0000000e+00 6.0000000e+00 0.0000000e+00 
0.0000000e+00 5.0000000e+00 0.0000000e+00 
0.0000000e+00 4.0000000e+00 0.0000000e+00 
0.0000000e+00 3.0000000e+00 0.0000000e+00 
0.0000000e+00 2.0000000e+00 0.0000000e+00 
0.0000000e+00 1.0000000e+00 0.0000000e+00 
0.0000000e+00 9.5000000e+00 0.0000000e+00 
0.0000000e+00 8.5000000e+00 0.0000000e+00 
0.0000000e+00 7.5000000e+00 0.0000000e+00 
0.0000000e+00 6.5000000e+00 0.0000000e+00 
0.0000000e+00 5.5000000e+00 0.0000000e+00 
0.0000000e+00 4.5000000e+00 0.0000000e+00 
0.0000000e+00 3.5000000e+00 0.0000000e+00 
0.0000000e+00 2.5000000e+00 0.0000000e+00 
0.0000000e+00 1.5000000e+00 0.0000000e+00 
0.0000000e+00 5.0000000e-01 0.0000000e+00 
5.0000000e-01 1.0000000e+01 0.0000000e+00 
6.0000000e+00 1.0000000e+01 0.0000000e+00 
7.0000000e+00 1.0000000e+01 0.0000000e+00 
8.0000000e+00 1.0000000e+01 0.0000000e+00 
9.0000000e+00 1.0000000e+01 0.0000000e+00 
5.5000000e+00 1.0000000e+01 0.0000000e+00 
6.5000000e+00 1.0000000e+01 0.0000000e+00 
7.5000000e+00 1.0000000e+01 0.0000000e+00 
8.5000000e+00 1.0000000e+01 0.0000000e+00 
9.5000000e+00 1.0000000e+01 0.0000000e+00 
1.1000000e+01 1.0000000e+01 0.0000000e+00 
1.2000000e+01 1.0000000e+01 0.0000000e+00 
1.3000000e+01 1.0000000e+01 0.0000000e+00 
1.4000000e+01 1.0000000e+01 0.0000000e+00 
1.0500000e+01 1.0000000e+01 0.0000000e+00 
1.1500000e+01 1.0000000e+01 0.0000000e+00 
1.2500000e+01 1.0000000e+01 0.0000000e+00 
1.3500000e+01 1.0000000e+01 0.0000000e+00 
1.4500000e+01 1.0000000e+01 0.0000000e+00 
1.9000000e+01 1.0000000e+01 0.0000000e+00 
1.8000000e+01 1.0000000e+01 0.0000000e+00 
1.7000000e+01 1.0000000e+01 0.0000000e+00 
1.6000000e+01 1.0000000e+01 0.0000000e+00 
1.9500000e+01 1.0000000e+01 0.0000000e+00 
1.8500000e+01 1.0000000e+01 0.0000000e+00 
1.7500000e+01 1.0000000e+01 0.0000000e+00 
1.6500000e+01 1.0000000e+01 0.0000000e+00 
1.5500000e+01 1.0000000e+01 0.0000000e+00 
4.0000000e+00 1.0000000e+01 0.0000000e+00 
3.0000000e+00 1.0000000e+01 0.0000000e+00 
2.0000000e+00 1.0000000e+01 0.0000000e+00 
4.5000000e+00 1.0000000e+01 0.0000000e+00 
3.5000000e+00 1.0000000e+01 0.0000000e+00 
2.5000000e+00 1.0000000e+01 0.0000000e+00 
1.5000000e+00 1.0000000e+01 0.0000000e+00 
9.5000000e+00 9.1339750e+00 0.0000000e+00 
1.4500000e+01 9.1339750e+00 0.0000000e+00 
5.5000000e+00 9.1339750e+00 0.0000000e+00 
7.5000000e+00 8.6602539e-01 0.0000000e+00 
1.1500000e+01 8.6602539e-01 0.0000000e+00 
1.4500000e+01 8.6602539e-01 0.0000000e+00 
4.5246964e+00 8.5176694e-01 0.0000000e+00 
1.9059727e+01 4.6363034e+00 0.0000000e+00 
8.4778279e-01 5.4684029e+00 0.0000000e+00 
7.5000000e+00 9.1339750e+00 0.0000000e+00 
1.1500000e+01 9.1339750e+00 0.0000000e+00 
1.6500000e+01 9.1339750e+00 0.0000000e+00 
3.5000000e+00 9.1339750e+00 0.0000000e+00 
9.5000000e+00 8.6602539e-01 0.0000000e+00 
1.6500000e+01 8.6602539e-01 0.0000000e+00 
8.6602539e-01 3.5000000e+00 0.0000000e+00 
1.9111458e+01 6.5092020e+00 0.0000000e+00 
8.9629614e-01 7.5867257e+00 0.0000000e+00 
1.9112749e+01 2.5204153e+00 0.0000000e+00 
2.5402119e+00 7.9592258e-01 0.0000000e+00 
1.9094303e+01 8.4081745e+00 0.0000000e+00 
1.5042374e+00 9.1532278e+00 0.0000000e+00 
8.2949740e-01 1.5059323e+00 0.0000000e+00 
1.8445559e+01 9.5495284e-01 0.0000000e+00 
4.5000000e+00 9.1339750e+00 0.0000000e+00 
5.0000000e+00 8.2679491e+00 0.0000000e+00 
6.0000000e+00 8.2679491e+00 0.0000000e+00 
5.5000000e+00 7.4019237e+00 0.0000000e+00 
6.5000000e+00 7.4019237e+00 0.0000000e+00 
6.0000000e+00 6.5358982e+00 0.0000000e+00 
7.0000000e+00 6.5358982e+00 0.0000000e+00 
6.5000000e+00 5.6698728e+00 0.0000000e+00 
7.5000000e+00 5.6698728e+00 0.0000000e+00 
5.5000000e+00 5.6698728e+00 0.0000000e+00 
6.0000000e+00 4.8038478e+00 0.0000000e+00 
5.0000000e+00 4.8038478e+00 0.0000000e+00 
4.5000000e+00 5.6698728e+00 0.0000000e+00 
4.0000000e+00 4.8038478e+00 0.0000000e+00 
5.5000000e+00 3.9378221e+00 0.0000000e+00 
6.5000000e+00 3.9378221e+00 0.0000000e+00 
8.0000000e+00 6.5358982e+00 0.0000000e+00 
8.5000000e+00 5.6698728e+00 0.0000000e+00 
9.0000000e+00 6.5358982e+00 0.0000000e+00 
9.5000000e+00 5.6698728e+00 0.0000000e+00 
9.0000000e+00 4.8038478e+00 0.0000000e+00 
1.0000000e+01 4.8038478e+00 0.0000000e+00 
1.0500000e+01 5.6698728e+00 0.0000000e+00 
1.1000000e+01 4.8038478e+00 0.0000000e+00 
1.1500000e+01 5.6698728e+00 0.0000000e+00 
1.2000000e+01 4.8038478e+00 0.0000000e+00 
1.2500000e+01 5.6698728e+00 0.0000000e+00 
1.3000000e+01 4.8038478e+00 0.0000000e+00 
1.3500000e+01 5.6698728e+00 0.0000000e+00 
1.4000000e+01 4.8038478e+00 0.0000000e+00 
1.4500000e+01 5.6698728e+00 0.0000000e+00 
1.5000000e+01 4.8038478e+00 0.0000000e+00 
1.5500000e+01 5.6698728e+00 0.0000000e+00 
1.3500000e+01 3.9378221e+00 0.0000000e+00 
1.0500000e+01 3.9378221e+00 0.0000000e+00 
1.6000000e+01 4.8038478e+00 0.0000000e+00 
1.5500000e+01 3.9378221e+00 0.0000000e+00 
1.3000000e+01 6.5358982e+00 0.0000000e+00 
1.6500000e+01 3.9378221e+00 0.0000000e+00 
6.0246964e+00 3.0860553e+00 0.0000000e+00 
3.5000000e+00 5.6698728e+00 0.0000000e+00 
1.6500000e+01 5.6698728e+00 0.0000000e+00 
1.6000000e+01 6.5358982e+00 0.0000000e+00 
1.1000000e+01 6.5358982e+00 0.0000000e+00 
5.0288124e+00 3.1213744e+00 0.0000000e+00 
7.0041161e+00 3.0741732e+00 0.0000000e+00 
2.9553418e+00 4.8365397e+00 0.0000000e+00 
1.6000000e+01 3.0717967e+00 0.0000000e+00 
1.7000000e+01 6.5358982e+00 0.0000000e+00 
1.7000000e+01 3.0717967e+00 0.0000000e+00 
8.5000000e+00 7.4019237e+00 0.0000000e+00 
3.4925570e+00 3.9432709e+00 0.0000000e+00 
9.5000000e+00 7.4019237e+00 0.0000000e+00 
4.5000000e+00 7.4019237e+00 0.0000000e+00 
1.5000000e+01 3.0717967e+00 0.0000000e+00 
1.7507488e+01 5.6669536e+00 0.0000000e+00 
6.5107503e+00 2.2357147e+00 0.0000000e+00 
1.5500000e+01 2.2057714e+00 0.0000000e+00 
1.7482849e+01 3.9478383e+00 0.0000000e+00 
2.4838426e+00 5.7012835e+00 0.0000000e+00 
2.9973071e+00 6.5411334e+00 0.0000000e+00 
1.6500000e+01 7.4019237e+00 0.0000000e+00 
1.5500000e+01 7.4019237e+00 0.0000000e+00 
1.7500000e+01 7.4019237e+00 0.0000000e+00 
7.5006862e+00 3.9382184e+00 0.0000000e+00 
8.0008001e+00 3.0722589e+00 0.0000000e+00 
2.4646075e+00 3.9872341e+00 0.0000000e+00 
3.0000000e+00 3.0717967e+00 0.0000000e+00 
2.0000000e+00 6.5358982e+00 0.0000000e+00 
2.5285575e+00 7.3860493e+00 0.0000000e+00 
1.4500000e+01 2.2057714e+00 0.0000000e+00 
1.8143080e+01 3.0350568e+00 0.0000000e+00 
1.7489780e+01 2.2149704e+00 0.0000000e+00 
1.8901860e+00 3.0475340e+00 0.0000000e+00 
2.5122623e+00 2.2156274e+00 0.0000000e+00 
3.5267401e+00 2.3241744e+00 0.0000000e+00 
1.6000000e+01 8.2679491e+00 0.0000000e+00 
1.5000000e+01 8.2679491e+00 0.0000000e+00 
1.4500000e+01 7.4019237e+00 0.0000000e+00 
1.4000000e+01 8.2679491e+00 0.0000000e+00 
1.3500000e+01 9.1339750e+00 0.0000000e+00 
1.3000000e+01 8.2679491e+00 0.0000000e+00 
9.0000000e+00 8.2679491e+00 0.0000000e+00 
1.0000000e+01 8.2679491e+00 0.0000000e+00 
1.8026423e+01 6.5280433e+00 0.0000000e+00 
1.8507418e+01 7.4261799e+00 0.0000000e+00 
[...]
POINT_DATA 1029
FIELD FieldData 1
VELOCITY 3 1029  float
0.0000000e+00 0.0000000e+00 0.0000000e+00 
0.0000000e+00 0.0000000e+00 0.0000000e+00 
0.0000000e+00 8.9550214e-03 0.0000000e+00 
0.0000000e+00 -4.5560381e-01 0.0000000e+00 
-1.0137873e-02 -4.7885209e-01 0.0000000e+00 
-6.1872639e-02 -3.5023418e-01 0.0000000e+00 
-7.5134254e-01 3.1963196e-01 0.0000000e+00 
-6.2232040e-04 -3.2551788e-02 0.0000000e+00 
0.0000000e+00 0.0000000e+00 0.0000000e+00 
0.0000000e+00 0.0000000e+00 0.0000000e+00 
0.0000000e+00 0.0000000e+00 0.0000000e+00 
0.0000000e+00 0.0000000e+00 0.0000000e+00 
0.0000000e+00 0.0000000e+00 0.0000000e+00 
0.0000000e+00 0.0000000e+00 0.0000000e+00 
0.0000000e+00 0.0000000e+00 0.0000000e+00 
0.0000000e+00 0.0000000e+00 0.0000000e+00 
0.0000000e+00 0.0000000e+00 0.0000000e+00 
0.0000000e+00 0.0000000e+00 0.0000000e+00 
0.0000000e+00 0.0000000e+00 0.0000000e+00 
0.0000000e+00 0.0000000e+00 0.0000000e+00 
0.0000000e+00 0.0000000e+00 0.0000000e+00 
0.0000000e+00 0.0000000e+00 0.0000000e+00 
0.0000000e+00 0.0000000e+00 0.0000000e+00 
0.0000000e+00 0.0000000e+00 0.0000000e+00 
0.0000000e+00 0.0000000e+00 0.0000000e+00 
0.0000000e+00 0.0000000e+00 0.0000000e+00 
0.0000000e+00 0.0000000e+00 0.0000000e+00 
0.0000000e+00 0.0000000e+00 0.0000000e+00 
0.0000000e+00 0.0000000e+00 0.0000000e+00 
0.0000000e+00 0.0000000e+00 0.0000000e+00 
0.0000000e+00 0.0000000e+00 0.0000000e+00 
0.0000000e+00 0.0000000e+00 0.0000000e+00 
0.0000000e+00 0.0000000e+00 0.0000000e+00 
0.0000000e+00 0.0000000e+00 0.0000000e+00 
0.0000000e+00 0.0000000e+00 0.0000000e+00 
0.0000000e+00 0.0000000e+00 0.0000000e+00 
0.0000000e+00 0.0000000e+00 0.0000000e+00 
0.0000000e+00 0.0000000e+00 0.0000000e+00 
0.0000000e+00 0.0000000e+00 0.0000000e+00 
0.0000000e+00 0.0000000e+00 0.0000000e+00 
0.0000000e+00 0.0000000e+00 0.0000000e+00 
0.0000000e+00 0.0000000e+00 0.0000000e+00 
0.0000000e+00 0.0000000e+00 0.0000000e+00 
0.0000000e+00 0.0000000e+00 0.0000000e+00 
0.0000000e+00 0.0000000e+00 0.0000000e+00 
0.0000000e+00 0.0000000e+00 0.0000000e+00 
0.0000000e+00 0.0000000e+00 0.0000000e+00 
0.0000000e+00 -4.1506262e-03 0.0000000e+00 
0.0000000e+00 1.8634826e-02 0.0000000e+00 
0.0000000e+00 2.1167598e-03 0.0000000e+00 
0.0000000e+00 -7.0741177e-03 0.0000000e+00 
0.0000000e+00 9.0639219e-03 0.0000000e+00 
0.0000000e+00 2.9824471e-02 0.0000000e+00 
0.0000000e+00 -2.0455807e-02 0.0000000e+00 
0.0000000e+00 2.7611690e-02 0.0000000e+00 
0.0000000e+00 1.9613054e-02 0.0000000e+00 
0.0000000e+00 2.2235544e-02 0.0000000e+00 
0.0000000e+00 -8.4550474e-03 0.0000000e+00 
0.0000000e+00 2.8027385e-02 0.0000000e+00 
0.0000000e+00 -2.5644217e-02 0.0000000e+00 
0.0000000e+00 1.7229488e-02 0.0000000e+00 
0.0000000e+00 1.7798271e-04 0.0000000e+00 
0.0000000e+00 9.7936820e-03 0.0000000e+00 
0.0000000e+00 6.9609289e-03 0.0000000e+00 
0.0000000e+00 1.4764436e-02 0.0000000e+00 
0.0000000e+00 2.0589881e-02 0.0000000e+00 
0.0000000e+00 -2.2817110e-01 0.0000000e+00 
0.0000000e+00 -4.1016316e-01 0.0000000e+00 
0.0000000e+00 8.3597444e-02 0.0000000e+00 
0.0000000e+00 2.8897581e-01 0.0000000e+00 
0.0000000e+00 1.9803108e-01 0.0000000e+00 
0.0000000e+00 2.0243624e-01 0.0000000e+00 
0.0000000e+00 1.6744848e-01 0.0000000e+00 
0.0000000e+00 2.1979244e-01 0.0000000e+00 
0.0000000e+00 1.2472518e-01 0.0000000e+00 
0.0000000e+00 -2.9998270e-01 0.0000000e+00 
0.0000000e+00 -3.7316161e-01 0.0000000e+00 
0.0000000e+00 -2.0245238e-01 0.0000000e+00 
0.0000000e+00 2.7480084e-01 0.0000000e+00 
0.0000000e+00 2.3426184e-01 0.0000000e+00 
0.0000000e+00 1.9700359e-01 0.0000000e+00 
0.0000000e+00 1.6438285e-01 0.0000000e+00 
0.0000000e+00 2.1021184e-01 0.0000000e+00 
0.0000000e+00 1.7954312e-01 0.0000000e+00 
0.0000000e+00 8.4643565e-02 0.0000000e+00 
1.7491370e-02 -3.9309087e-01 0.0000000e+00 
-2.6461553e-02 -4.2679206e-01 0.0000000e+00 
7.5830378e-02 -6.3207465e-01 0.0000000e+00 
-1.7862774e-01 -9.4273251e-01 0.0000000e+00 
-7.5970292e-01 -7.7966684e-01 0.0000000e+00 
-1.7583545e-02 -3.7598324e-01 0.0000000e+00 
3.3628114e-02 -4.5921090e-01 0.0000000e+00 
-3.7216712e-02 -7.7186465e-01 0.0000000e+00 
-4.4247133e-01 -9.9740565e-01 0.0000000e+00 
-8.7512141e-01 -2.0538202e-01 0.0000000e+00 
-1.0212570e-01 4.2498255e-01 0.0000000e+00 
-1.9502727e-02 -1.8816268e-02 0.0000000e+00 
-1.2627633e-01 2.7041513e-02 0.0000000e+00 
2.9568488e-02 5.4251079e-02 0.0000000e+00 
-4.0706885e-01 5.5457985e-01 0.0000000e+00 
-2.0892875e-02 1.1718933e-01 0.0000000e+00 
-8.6048737e-02 -2.3088645e-02 0.0000000e+00 
-6.6442385e-02 5.0945263e-02 0.0000000e+00 
4.8052315e-02 -3.7521336e-02 0.0000000e+00 
9.9799121e-03 -1.1738878e-02 0.0000000e+00 
-9.5196310e-03 -1.3737750e-02 0.0000000e+00 
8.1075162e-02 7.5095564e-02 0.0000000e+00 
1.5207078e-01 -2.5061453e-02 0.0000000e+00 
-1.2627267e-02 -1.0646740e-02 0.0000000e+00 
-1.2386063e-02 1.1128184e-02 0.0000000e+00 
5.9180137e-02 -3.3314247e-03 0.0000000e+00 
1.0220998e-01 -1.0860522e-02 0.0000000e+00 
7.1285188e-02 8.4905416e-02 0.0000000e+00 
3.9916439e-03 -3.0743423e-01 0.0000000e+00 
1.7192303e-03 -3.3454409e-01 0.0000000e+00 
3.0657459e-02 -4.2995036e-01 0.0000000e+00 
-8.0030868e-03 -3.9986482e-01 0.0000000e+00 
-1.1328585e-02 -4.1211939e-01 0.0000000e+00 
-2.0095913e-02 -3.6144048e-01 0.0000000e+00 
-1.0766029e-02 -3.5195971e-01 0.0000000e+00 
-3.1307492e-01 -2.6015714e-01 0.0000000e+00 
1.4951079e-02 -1.6417447e-02 0.0000000e+00 
-3.1998880e-02 -4.6981150e-01 0.0000000e+00 
2.3733968e-01 1.5380076e-01 0.0000000e+00 
-5.6569319e-02 9.7211361e-02 0.0000000e+00 
1.2172474e-01 -6.5298989e-02 0.0000000e+00 
-5.1371235e-01 -2.5645778e-01 0.0000000e+00 
-3.4901213e-03 -2.3208532e-02 0.0000000e+00 
5.7240292e-02 2.3933433e-01 0.0000000e+00 
-2.1194661e-01 -7.6017177e-01 0.0000000e+00 
-2.2533137e-01 1.9215746e-01 0.0000000e+00 
1.1685190e-01 -1.0122785e-02 0.0000000e+00 
-2.6400810e-02 -3.6445481e-01 0.0000000e+00 
-1.8318389e-02 1.1421517e-01 0.0000000e+00 
-2.3153562e-02 1.7487416e-02 0.0000000e+00 
-1.0788920e-01 1.3736100e-01 0.0000000e+00 
8.1165098e-03 -2.4333946e-02 0.0000000e+00 
-2.8097935e-02 -3.0077675e-01 0.0000000e+00 
5.0412482e-03 -3.0015375e-02 0.0000000e+00 
-3.1156912e-01 4.8517436e-02 0.0000000e+00 
1.0105901e-02 -6.3254451e-03 0.0000000e+00 
-1.8291444e-02 -1.8036327e-01 0.0000000e+00 
-7.7058963e-02 1.4143743e-01 0.0000000e+00 
-4.5509990e-03 9.6831899e-03 0.0000000e+00 
-3.3198256e-02 -4.1059774e-01 0.0000000e+00 
-3.4808870e-02 -3.5468155e-01 0.0000000e+00 
-1.2937027e-01 -4.1853321e-01 0.0000000e+00 
-1.2846878e-01 -5.1635379e-01 0.0000000e+00 
-7.5465031e-02 -5.9977466e-01 0.0000000e+00 
-1.4414296e-01 -4.7212195e-01 0.0000000e+00 
-2.2552551e-01 -6.5855336e-01 0.0000000e+00 
3.4284189e-02 -3.4510997e-01 0.0000000e+00 
-7.7994041e-02 -5.9349179e-01 0.0000000e+00 
2.7945222e-02 -9.8550497e-03 0.0000000e+00 
1.1788827e-01 -8.8423274e-02 0.0000000e+00 
1.9668208e-01 -1.1828802e-01 0.0000000e+00 
3.3654500e-02 1.4597216e-01 0.0000000e+00 
1.9152552e-01 -5.3846901e-03 0.0000000e+00 
-2.4970971e-02 -1.8006463e-01 0.0000000e+00 
9.2817694e-02 -4.1370839e-01 0.0000000e+00 
-1.3633923e-01 -7.4319184e-01 0.0000000e+00 
-1.4867474e-01 -6.1200041e-01 0.0000000e+00 
-7.8578785e-02 -5.0053418e-01 0.0000000e+00 
-6.6637307e-02 -1.4453076e-01 0.0000000e+00 
2.9252801e-02 -2.4234168e-01 0.0000000e+00 
1.7526390e-01 1.9895957e-01 0.0000000e+00 
6.5222494e-02 2.7490661e-01 0.0000000e+00 
8.4843345e-02 1.9108304e-01 0.0000000e+00 
5.3603187e-02 1.8247473e-01 0.0000000e+00 
6.4216405e-02 1.0436658e-01 0.0000000e+00 
3.1652752e-02 8.8157088e-02 0.0000000e+00 
9.0917423e-02 6.4881109e-02 0.0000000e+00 
3.2040492e-02 6.7490943e-02 0.0000000e+00 
9.5644526e-02 5.2843969e-03 0.0000000e+00 
9.6688487e-02 1.0937772e-02 0.0000000e+00 
1.4283976e-01 2.5644805e-02 0.0000000e+00 
1.4613067e-01 -3.4813236e-02 0.0000000e+00 
1.1480964e-01 2.4792510e-03 0.0000000e+00 
2.1120192e-01 2.1226811e-01 0.0000000e+00 
1.2653042e-01 -5.7595890e-02 0.0000000e+00 
1.1577489e-01 -8.6183652e-02 0.0000000e+00 
3.5320077e-02 9.1617391e-02 0.0000000e+00 
7.3618993e-02 2.2493213e-02 0.0000000e+00 
-4.1303489e-01 -3.0588487e-01 0.0000000e+00 
6.3839100e-02 2.2069132e-01 0.0000000e+00 
9.0625085e-02 -3.0493509e-02 0.0000000e+00 
1.1563791e-01 -2.4427593e-02 0.0000000e+00 
-4.6459738e-02 2.5931290e-01 0.0000000e+00 
-2.9933712e-01 -1.6230725e-01 0.0000000e+00 
-4.0193188e-01 -3.9877293e-01 0.0000000e+00 
1.3138965e-01 1.1896829e-01 0.0000000e+00 
6.5821424e-02 -8.5143084e-03 0.0000000e+00 
5.5784099e-02 3.6815540e-03 0.0000000e+00 
1.5779395e-02 6.7382719e-04 0.0000000e+00 
-1.4026210e-01 -7.3583680e-01 0.0000000e+00 
-8.8109925e-02 3.1465329e-02 0.0000000e+00 
-1.2097856e-01 -2.6729438e-01 0.0000000e+00 
-1.4552106e-01 -4.5702097e-01 0.0000000e+00 
1.6616665e-01 -7.9417080e-02 0.0000000e+00 
1.5614470e-03 3.7833016e-02 0.0000000e+00 
-4.0801567e-01 -3.0626276e-01 0.0000000e+00 
9.0319693e-02 -1.0296856e-02 0.0000000e+00 
-2.3849769e-02 4.0208995e-03 0.0000000e+00 
5.4487050e-02 1.9735312e-01 0.0000000e+00 
6.0139745e-02 1.5256007e-01 0.0000000e+00 
1.0414509e-01 -1.4190861e-02 0.0000000e+00 
8.6178362e-02 1.7110875e-02 0.0000000e+00 
3.2021116e-02 -2.3285851e-02 0.0000000e+00 
1.1536615e-01 -4.3256971e-01 0.0000000e+00 
8.3348401e-02 -1.0315606e-01 0.0000000e+00 
-6.0642004e-02 1.3962086e-01 0.0000000e+00 
-2.2429630e-01 9.5326945e-02 0.0000000e+00 
4.3909647e-02 2.4731660e-01 0.0000000e+00 
-3.5043176e-02 -3.1716475e-01 0.0000000e+00 
1.9256447e-01 -1.1317884e-01 0.0000000e+00 
-2.1743780e-02 -2.3403116e-02 0.0000000e+00 
-5.5758609e-03 -8.0457190e-03 0.0000000e+00 
-1.1970802e-01 9.7768597e-02 0.0000000e+00 
-1.0493354e-01 1.2602225e-02 0.0000000e+00 
-2.0182776e-01 -9.8298244e-02 0.0000000e+00 
1.0854213e-01 1.8533405e-03 0.0000000e+00 
7.2201483e-02 4.0750854e-02 0.0000000e+00 
4.5363024e-02 8.4011676e-03 0.0000000e+00 
1.1752050e-02 5.6488916e-02 0.0000000e+00 
-4.6901908e-02 7.8737237e-02 0.0000000e+00 
-5.0016422e-02 4.3068193e-02 0.0000000e+00 
-1.5757491e-01 -6.2038869e-01 0.0000000e+00 
-1.6281399e-01 1.6924584e-01 0.0000000e+00 
-6.4389301e-03 5.7932185e-03 0.0000000e+00 
-1.4815460e-03 -1.9201720e-03 0.0000000e+00 
4.9780724e-03 -1.4904274e-02 0.0000000e+00 
-1.7899462e-03 1.1502341e-02 0.0000000e+00 
-1.3748652e-03 -1.3035360e-02 0.0000000e+00 
-2.0399444e-01 -6.6328388e-01 0.0000000e+00 
6.2070549e-02 1.3820775e-02 0.0000000e+00 
2.6340010e-02 -8.3076004e-03 0.0000000e+00 
-3.0852247e-02 1.4626876e-01 0.0000000e+00 
-1.1949754e-01 2.0517953e-01 0.0000000e+00 
9.3247645e-02 2.8083611e-02 0.0000000e+00 
-5.7593059e-02 1.0093703e-01 0.0000000e+00 
-1.4943399e-01 -6.2460121e-02 0.0000000e+00 
9.3984947e-02 3.3139768e-01 0.0000000e+00 
5.3138292e-01 2.6001319e-01 0.0000000e+00 
1.3426292e-01 2.2729112e-01 0.0000000e+00 
-2.7107790e-01 5.3048098e-01 0.0000000e+00 
9.9525042e-02 6.0605597e-02 0.0000000e+00 
-9.0327673e-02 -5.4451978e-01 0.0000000e+00 
-2.9238051e-01 -9.2027438e-01 0.0000000e+00 
-4.7271941e-03 -2.6515591e-01 0.0000000e+00 
-1.8693975e-01 -8.9785510e-01 0.0000000e+00 
-2.1528567e-01 3.5870731e-01 0.0000000e+00 
-1.3820747e-01 6.8292513e-02 0.0000000e+00 
1.7991628e-01 -5.3047813e-03 0.0000000e+00 
2.9985297e-02 -1.3540939e-02 0.0000000e+00 
-3.9039705e-02 -3.3718508e-03 0.0000000e+00 
2.1227332e-02 -1.9583175e-02 0.0000000e+00 
2.9093286e-02 8.3413662e-04 0.0000000e+00 
1.1588689e-01 4.3124095e-02 0.0000000e+00 
1.7819178e-01 1.5797107e-01 0.0000000e+00 
1.5633884e-01 8.4110208e-02 0.0000000e+00 
3.4591785e-01 7.7517666e-02 0.0000000e+00 
1.6379443e-01 4.8993812e-03 0.0000000e+00 
-4.8135778e-01 -1.3225929e-01 0.0000000e+00 
-2.1192999e-01 -2.3415330e-01 0.0000000e+00 
-4.1213936e-01 -3.9698812e-01 0.0000000e+00 
1.9364442e-01 7.7270128e-02 0.0000000e+00 
-4.1400526e-02 1.3722095e-01 0.0000000e+00 
1.1794904e-01 -7.3207160e-03 0.0000000e+00 
2.6183403e-01 -1.0529786e-01 0.0000000e+00 
1.4552558e-02 3.8302429e-02 0.0000000e+00 
5.8755046e-04 3.1514424e-01 0.0000000e+00 
3.3550393e-02 2.3399438e-01 0.0000000e+00 
9.5768988e-02 1.6488549e-01 0.0000000e+00 
-1.2697119e-02 1.2836291e-01 0.0000000e+00 
-5.3438023e-03 -2.9396906e-01 0.0000000e+00 
-1.6347629e-01 -6.8585920e-01 0.0000000e+00 
-1.0144533e-01 -4.5049801e-02 0.0000000e+00 
1.1804003e-01 6.8509892e-02 0.0000000e+00 
1.8067195e-01 -3.8438383e-02 0.0000000e+00 
4.9669277e-03 -1.0839125e-02 0.0000000e+00 
-1.0463676e-01 3.1926289e-01 0.0000000e+00 
-4.4113446e-02 1.0166980e-01 0.0000000e+00 
1.8653785e-01 -3.3835556e-02 0.0000000e+00 
-7.9685688e-02 -4.1593322e-01 0.0000000e+00 
-1.9604627e-02 -2.1441555e-01 0.0000000e+00 
1.4629844e-01 -2.8185571e-02 0.0000000e+00 
-3.8131760e-03 -3.3959246e-01 0.0000000e+00 
-2.5844401e-01 1.0273739e-02 0.0000000e+00 
1.8524213e-01 -6.9838971e-02 0.0000000e+00 
2.1349819e-02 1.4975620e-02 0.0000000e+00 
1.9128021e-02 9.8776475e-02 0.0000000e+00 
-6.3572884e-02 -4.1226161e-01 0.0000000e+00 
8.3250463e-02 -4.0573254e-02 0.0000000e+00 
-1.8624160e-02 -4.0496972e-01 0.0000000e+00 
-4.4822138e-02 -3.4805503e-01 0.0000000e+00 
2.8387287e-01 3.6145225e-01 0.0000000e+00 
4.5507765e-01 2.0663126e-01 0.0000000e+00 
-8.2568415e-02 -3.5179440e-02 0.0000000e+00 
2.7842891e-01 9.5014460e-02 0.0000000e+00 
3.8004966e-04 1.3498018e-02 0.0000000e+00 
-4.8956223e-05 -3.7092009e-01 0.0000000e+00 
-1.9072260e-01 1.0696746e-01 0.0000000e+00 
-7.0450832e-03 2.2227719e-02 0.0000000e+00 
-8.3789602e-02 1.4891262e-01 0.0000000e+00 
-8.8250153e-03 1.0779496e-02 0.0000000e+00 
-6.0214859e-02 1.7314097e-01 0.0000000e+00 
9.5804492e-03 -1.7838776e-02 0.0000000e+00 
-3.4562916e-01 -2.1511236e-01 0.0000000e+00 
-4.6903473e-01 -2.2471146e-01 0.0000000e+00 
3.2062468e-05 3.4992197e-03 0.0000000e+00 
-2.8799587e-01 -4.5965068e-02 0.0000000e+00 
1.5205388e-01 2.0394327e-01 0.0000000e+00 
4.0614054e-02 8.9012094e-02 0.0000000e+00 
-3.2880899e-02 1.4283720e-01 0.0000000e+00 
-4.1798975e-02 1.8186520e-01 0.0000000e+00 
6.3512124e-02 1.5335569e-01 0.0000000e+00 
2.3115396e-01 1.8645108e-02 0.0000000e+00 
2.8492370e-01 -8.0677241e-02 0.0000000e+00 
1.7972296e-01 -1.0714015e-01 0.0000000e+00 
1.2712975e-01 -5.0914653e-02 0.0000000e+00 
-3.9908774e-03 -7.7780643e-03 0.0000000e+00 
-6.7751557e-03 -1.0373715e-02 0.0000000e+00 
-2.9653272e-01 -2.5741351e-01 0.0000000e+00 
-3.2392862e-01 -1.1851393e-01 0.0000000e+00 
2.6868088e-02 -1.5648718e-01 0.0000000e+00 
-3.9985222e-03 -6.9733802e-03 0.0000000e+00 
5.0296631e-02 2.8426442e-01 0.0000000e+00 
-1.2050271e-03 -2.2469863e-02 0.0000000e+00 
-1.0792777e-02 -1.9705142e-01 0.0000000e+00 
-7.3878124e-02 8.3682500e-02 0.0000000e+00 
1.1131226e-02 -1.5837077e-02 0.0000000e+00 
7.5657172e-03 6.0203951e-03 0.0000000e+00 
-2.2741631e-01 7.0166633e-02 0.0000000e+00 
1.0480231e-01 1.4071189e-01 0.0000000e+00 
2.4953287e-02 1.5668745e-01 0.0000000e+00 
3.3328597e-02 1.2178437e-01 0.0000000e+00 
-7.6763140e-04 -3.8142306e-01 0.0000000e+00 
-2.0531300e-02 -4.2514089e-01 0.0000000e+00 
-5.0665546e-02 -3.8778591e-01 0.0000000e+00 
-5.8499753e-04 -2.2979292e-01 0.0000000e+00 
-4.5672726e-02 -3.4497300e-01 0.0000000e+00 
8.7310007e-04 5.7266792e-03 0.0000000e+00 
1.7090335e-02 -1.2307647e-02 0.0000000e+00 
2.3467710e-02 1.2434370e-02 0.0000000e+00 
-5.5314917e-02 1.2815310e-01 0.0000000e+00 
-5.6814723e-02 1.2263681e-01 0.0000000e+00 
-1.1097826e-01 1.4668831e-01 0.0000000e+00 
-4.7678603e-03 -1.2038628e-02 0.0000000e+00 
-4.2994521e-03 1.3175735e-02 0.0000000e+00 
-4.5648143e-03 2.0696960e-02 0.0000000e+00 
2.8373713e-03 1.3872256e-02 0.0000000e+00 
4.2619412e-03 3.2005025e-04 0.0000000e+00 
-3.2979823e-03 8.4446166e-03 0.0000000e+00 
1.1456504e-02 1.8441030e-01 0.0000000e+00 
-6.0190391e-02 1.6477686e-01 0.0000000e+00 
-4.0147465e-02 1.4213960e-01 0.0000000e+00 
-6.0523331e-02 8.3055168e-02 0.0000000e+00 
9.3868878e-03 8.2106357e-03 0.0000000e+00 
-3.1739103e-03 1.8125286e-02 0.0000000e+00 
9.8093376e-02 1.7475703e-01 0.0000000e+00 
1.3422985e-01 1.4477202e-01 0.0000000e+00 
4.8555220e-03 -1.4164031e-02 0.0000000e+00 
-3.9669969e-03 1.6544795e-02 0.0000000e+00 
-1.1807185e-02 -3.7167929e-03 0.0000000e+00 
-4.0904256e-03 -1.2036785e-02 0.0000000e+00 
3.7315281e-03 -6.1260127e-03 0.0000000e+00 
-2.5810907e-03 1.4986611e-02 0.0000000e+00 
-9.0076315e-04 1.2978083e-02 0.0000000e+00 
1.6144344e-03 -3.8850068e-03 0.0000000e+00 
2.2019846e-03 5.5786646e-03 0.0000000e+00 
-1.1254558e-01 1.4606579e-01 0.0000000e+00 
-9.0734519e-02 1.6074459e-01 0.0000000e+00 
-2.2617180e-03 -2.5585920e-02 0.0000000e+00 
-5.1482429e-04 -2.4773581e-02 0.0000000e+00 
3.7221782e-04 -2.6479518e-01 0.0000000e+00 
4.6471041e-03 -2.8897318e-01 0.0000000e+00 
3.7211634e-02 4.7012158e-02 0.0000000e+00 
5.0829954e-02 7.5446144e-02 0.0000000e+00 
5.8237812e-03 2.3939574e-01 0.0000000e+00 
-1.2314877e-02 1.1230217e-02 0.0000000e+00 
-8.5350598e-04 -6.0650781e-03 0.0000000e+00 
-1.7105463e-01 1.7239439e-01 0.0000000e+00 
-8.6765900e-02 1.8158689e-01 0.0000000e+00 
-1.3493194e-01 1.4703026e-01 0.0000000e+00 
-9.6467346e-02 5.0200410e-02 0.0000000e+00 
-1.0803593e-01 3.5328563e-02 0.0000000e+00 
8.2355533e-03 -1.5830191e-02 0.0000000e+00 
-1.3963910e-02 -2.4487128e-02 0.0000000e+00 
-3.2474470e-01 -1.5575849e-01 0.0000000e+00 
-4.0659711e-01 -8.6457565e-02 0.0000000e+00 
-4.5319578e-01 -1.9062580e-01 0.0000000e+00 
-3.4594753e-01 -1.1993245e-01 0.0000000e+00 
-4.0666047e-01 -2.1679817e-01 0.0000000e+00 
-3.9737281e-01 -2.0433144e-01 0.0000000e+00 
1.9302447e-03 -2.4183650e-02 0.0000000e+00 
7.7296863e-03 -1.3334733e-02 0.0000000e+00 
1.3015896e-02 1.3502757e-02 0.0000000e+00 
-2.3077296e-02 -1.3324783e-02 0.0000000e+00 
-1.3145823e-02 1.3226479e-02 0.0000000e+00 
-1.8091470e-03 -1.2046815e-02 0.0000000e+00 
2.1204706e-02 3.1193317e-04 0.0000000e+00 
1.5393804e-03 3.0901802e-01 0.0000000e+00 
2.2051387e-02 3.2951823e-01 0.0000000e+00 
1.6687285e-03 3.2725548e-03 0.0000000e+00 
3.3531182e-02 2.0919597e-02 0.0000000e+00 
-2.4090192e-01 1.0087391e-01 0.0000000e+00 
-1.5783665e-01 1.0182127e-01 0.0000000e+00 
3.2801179e-03 -4.3050357e-04 0.0000000e+00 
5.9516369e-03 -7.5929002e-03 0.0000000e+00 
-2.7958124e-03 -2.6966607e-02 0.0000000e+00 
-5.6234328e-04 1.2544686e-03 0.0000000e+00 
2.8315838e-02 1.2709538e-02 0.0000000e+00 
-3.7348789e-01 -2.7058795e-01 0.0000000e+00 
-4.3760499e-01 -2.8798977e-01 0.0000000e+00 
-2.0345847e-01 -1.0644164e-01 0.0000000e+00 
-2.5179857e-01 -1.6360645e-01 0.0000000e+00 
8.7087937e-02 -2.0569175e-02 0.0000000e+00 
8.2160704e-02 -5.8298530e-03 0.0000000e+00 
1.1109181e-01 -6.3892044e-03 0.0000000e+00 
1.1678354e-01 2.8757879e-03 0.0000000e+00 
1.0004824e-01 1.6251614e-02 0.0000000e+00 
8.3309904e-02 4.3834839e-02 0.0000000e+00 
6.8926424e-02 3.3604104e-02 0.0000000e+00 
5.1603299e-02 2.8046574e-02 0.0000000e+00 
9.7524621e-02 2.0905409e-02 0.0000000e+00 
4.8655678e-02 2.9877709e-02 0.0000000e+00 
2.3675663e-02 -2.5790010e-02 0.0000000e+00 
1.8479075e-02 -2.4843286e-03 0.0000000e+00 
4.8701022e-02 9.6116643e-03 0.0000000e+00 
-9.5686018e-02 8.6954378e-02 0.0000000e+00 
-1.4973171e-01 1.4436512e-01 0.0000000e+00 
-7.0502713e-02 1.3901068e-01 0.0000000e+00 
-1.9064532e-01 2.0276910e-01 0.0000000e+00 
-1.8094882e-01 2.7218023e-01 0.0000000e+00 
-7.5975992e-02 5.7779059e-02 0.0000000e+00 
-2.9708162e-02 5.7701088e-02 0.0000000e+00 
5.5001132e-02 2.7726071e-02 0.0000000e+00 
9.4825685e-02 3.5004426e-02 0.0000000e+00 
-2.2914715e-01 3.8776481e-01 0.0000000e+00 
-3.0697015e-01 2.7024931e-01 0.0000000e+00 
-1.9742176e-01 8.3451802e-03 0.0000000e+00 
4.6404507e-02 1.2666659e-02 0.0000000e+00 
-1.7213164e-01 3.8605013e-01 0.0000000e+00 
-1.4366449e-01 3.0685019e-01 0.0000000e+00 
-1.1706645e-01 -2.3185512e-01 0.0000000e+00 
-2.0973422e-01 -4.8297927e-01 0.0000000e+00 
-3.1039178e-01 -7.4324012e-01 0.0000000e+00 
-2.4927749e-01 -8.1777871e-01 0.0000000e+00 
-1.4337244e-02 1.5913913e-02 0.0000000e+00 
-2.7993323e-02 6.9945566e-02 0.0000000e+00 
9.6140029e-03 2.6390590e-03 0.0000000e+00 
-8.0542594e-02 3.7121024e-02 0.0000000e+00 
-5.4097813e-02 5.4192759e-02 0.0000000e+00 
-6.1719239e-02 2.1360785e-02 0.0000000e+00 