# vtk DataFile Version 4.0
vtk output
ASCII
DATASET UNSTRUCTURED_GRID
POINTS 1029 float
0.0000000e+00 0.0000000e+00 0.0000000e+00 
2.0000000e+01 0.0000000e+00 0.0000000e+00 
2.0000000e+01 1.0000000e+01 0.0000000e+00 
0.0000000e+00 1.0000000e+01 0.0000000e+00 
1.0000000e+00 1.0000000e+01 0.0000000e+00 
5.0000000e+00 1.0000000e+01 0.0000000e+00 
1.0000000e+01 1.0000000e+01 0.0000000e+00 
1.5000000e+01 1.0000000e+01 0.0000000e+00 
1.0000000e+00 0.0000000e+00 0.0000000e+00 
2.0000000e+00 0.0000000e+00 0.0000000e+00 
3.0000000e+00 0.0000000e+00 0.0000000e+00 
4.0000000e+00 0.0000000e+00 0.0000000e+00 
5.0000000e+00 0.0000000e+00 0.0000000e+00 
6.0000000e+00 0.0000000e+00 0.0000000e+00 
7.0000000e+00 0.0000000e+00 0.0000000e+00 
8.0000000e+00 0.0000000e+00 0.0000000e+00 
9.0000000e+00 0.0000000e+00 0.0000000e+00 
1.0000000e+01 0.0000000e+00 0.0000000e+00 
1.1000000e+01 0.0000000e+00 0.0000000e+00 
1.2000000e+01 0.0000000e+00 0.0000000e+00 
1.3000000e+01 0.0000000e+00 0.0000000e+00 
1.4000000e+01 0.0000000e+00 0.0000000e+00 
1.5000000e+01 0.0000000e+00 0.0000000e+00 
1.6000000e+01 0.0000000e+00 0.0000000e+00 
1.7000000e+01 0.0000000e+00 0.0000000e+00 
1.8000000e+01 0.0000000e+00 0.0000000e+00 
1.9000000e+01 0.0000000e+00 0.0000000e+00 
5.0000000e-01 0.0000000e+00 0.0000000e+00 
1.5000000e+00 0.0000000e+00 0.0000000e+00 
2.5000000e+00 0.0000000e+00 0.0000000e+00 
3.5000000e+00 0.0000000e+00 0.0000000e+00 
4.5000000e+00 0.0000000e+00 0.0000000e+00 
5.5000000e+00 0.0000000e+00 0.0000000e+00 
6.5000000e+00 0.0000000e+00 0.0000000e+00 
7.5000000e+00 0.0000000e+00 0.0000000e+00 
8.5000000e+00 0.0000000e+00 0.0000000e+00 
9.5000000e+00 0.0000000e+00 0.0000000e+00 
1.0500000e+01 0.0000000e+00 0.0000000e+00 
1.1500000e+01 0.0000000e+00 0.0000000e+00 
1.2500000e+01 0.0000000e+00 0.0000000e+00 
1.3500000e+01 0.0000000e+00 0.0000000e+00 
1.4500000e+01 0.0000000e+00 0.0000000e+00 
1.5500000e+01 0.0000000e+00 0.0000000e+00 
1.6500000e+01 0.0000000e+00 0.0000000e+00 
1.7500000e+01 0.0000000e+00 0.0000000e+00 
1.8500000e+01 0.0000000e+00 0.0000000e+00 
1.9500000e+01 0.0000000e+00 0.0000000e+00 
2.0000000e+01 1.0000000e+00 0.0000000e+00 
2.0000000e+01 2.0000000e+00 0.0000000e+00 
2.0000000e+01 3.0000000e+00 0.0000000e+00 
2.0000000e+01 4.0000000e+00 0.0000000e+00 
2.0000000e+01 5.0000000e+00 0.0000000e+00 
2.0000000e+01 6.0000000e+00 0.0000000e+00 
2.0000000e+01 7.0000000e+00 0.0000000e+00 
2.0000000e+01 8.0000000e+00 0.0000000e+00 
2.0000000e+01 9.0000000e+00 0.0000000e+00 
2.0000000e+01 5.0000000e-01 0.0000000e+00 
2.0000000e+01 1.5000000e+00 0.0000000e+00 
2.0000000e+01 2.5000000e+00 0.0000000e+00 
2.0000000e+01 3.5000000e+00 0.0000000e+00 
2.0000000e+01 4.5000000e+00 0.0000000e+00 
2.0000000e+01 5.5000000e+00 0.0000000e+00 
2.0000000e+01 6.5000000e+00 0.0000000e+00 
2.0000000e+01 7.5000000e+00 0.0000000e+00 
2.0000000e+01 8.5000000e+00 0.0000000e+00 
2.0000000e+01 9.5000000e+00 0.0000000e+00 
0.0000000e+00 9.0000000e+00 0.0000000e+00 
0.0000000e+00 8.0000000e+00 0.0000000e+00 
0.0000000e+00 7.0000000e+00 0.0000000e+00 
0.0000000e+00 6.0000000e+00 0.0000000e+00 
0.0000000e+00 5.0000000e+00 0.0000000e+00 
0.0000000e+00 4.0000000e+00 0.0000000e+00 
0.0000000e+00 3.0000000e+00 0.0000000e+00 
0.0000000e+00 2.0000000e+00 0.0000000e+00 
0.0000000e+00 1.0000000e+00 0.0000000e+00 
0.0000000e+00 9.5000000e+00 0.0000000e+00 
0.0000000e+00 8.5000000e+00 0.0000000e+00 
0.0000000e+00 7.5000000e+00 0.0000000e+00 
0.0000000e+00 6.5000000e+00 0.0000000e+00 
0.0000000e+00 5.5000000e+00 0.0000000e+00 
0.0000000e+00 4.5000000e+00 0.0000000e+00 
0.0000000e+00 3.5000000e+00 0.0000000e+00 
0.0000000e+00 2.5000000e+00 0.0000000e+00 
0.0000000e+00 1.5000000e+00 0.0000000e+00 
0.0000000e+00 5.0000000e-01 0.0000000e+00 
5.0000000e-01 1.0000000e+01 0.0000000e+00 
6.0000000e+00 1.0000000e+01 0.0000000e+00 
7.0000000e+00 1.0000000e+01 0.0000000e+00 
8.0000000e+00 1.0000000e+01 0.0000000e+00 
9.0000000e+00 1.0000000e+01 0.0000000e+00 
5.5000000e+00 1.0000000e+01 0.0000000e+00 
6.5000000e+00 1.0000000e+01 0.0000000e+00 
7.5000000e+00 1.0000000e+01 0.0000000e+00 
8.5000000e+00 1.0000000e+01 0.0000000e+00 
9.5000000e+00 1.0000000e+01 0.0000000e+00 
1.1000000e+01 1.0000000e+01 0.0000000e+00 
1.2000000e+01 1.0000000e+01 0.0000000e+00 
1.3000000e+01 1.0000000e+01 0.0000000e+00 
1.4000000e+01 1.0000000e+01 0.0000000e+00 
1.0500000e+01 1.0000000e+01 0.0000000e+00 
1.1500000e+01 1.0000000e+01 0.0000000e+00 
1.2500000e+01 1.0000000e+01 0.0000000e+00 
1.3500000e+01 1.0000000e+01 0.0000000e+00 
1.4500000e+01 1.0000000e+01 0.0000000e+00 
1.9000000e+01 1.0000000e+01 0.0000000e+00 
1.8000000e+01 1.0000000e+01 0.0000000e+00 
1.7000000e+01 1.0000000e+01 0.0000000e+00 
1.6000000e+01 1.0000000e+01 0.0000000e+00 
1.9500000e+01 1.0000000e+01 0.0000000e+00 
1.8500000e+01 1.0000000e+01 0.0000000e+00 
1.7500000e+01 1.0000000e+01 0.0000000e+00 
1.6500000e+01 1.0000000e+01 0.0000000e+00 
1.5500000e+01 1.0000000e+01 0.0000000e+00 
4.0000000e+00 1.0000000e+01 0.0000000e+00 
3.0000000e+00 1.0000000e+01 0.0000000e+00 
2.0000000e+00 1.0000000e+01 0.0000000e+00 
4.5000000e+00 1.0000000e+01 0.0000000e+00 
3.5000000e+00 1.0000000e+01 0.0000000e+00 
2.5000000e+00 1.0000000e+01 0.0000000e+00 
1.5000000e+00 1.0000000e+01 0.0000000e+00 
9.5000000e+00 9.1339750e+00 0.0000000e+00 
1.4500000e+01 9.1339750e+00 0.0000000e+00 
5.5000000e+00 9.1339750e+00 0.0000000e+00 
7.5000000e+00 8.6602539e-01 0.0000000e+00 
1.1500000e+01 8.6602539e-01 0.0000000e+00 
1.4500000e+01 8.6602539e-01 0.0000000e+00 
4.5246964e+00 8.5176694e-01 0.0000000e+00 
1.9059727e+01 4.6363034e+00 0.0000000e+00 
8.4778279e-01 5.4684029e+00 0.0000000e+00 
7.5000000e+00 9.1339750e+00 0.0000000e+00 
1.1500000e+01 9.1339750e+00 0.0000000e+00 
1.6500000e+01 9.1339750e+00 0.0000000e+00 
3.5000000e+00 9.1339750e+00 0.0000000e+00 
9.5000000e+00 8.6602539e-01 0.0000000e+00 
1.6500000e+01 8.6602539e-01 0.0000000e+00 
8.6602539e-01 3.5000000e+00 0.0000000e+00 
1.9111458e+01 6.5092020e+00 0.0000000e+00 
8.9629614e-01 7.5867257e+00 0.0000000e+00 
1.9112749e+01 2.5204153e+00 0.0000000e+00 
2.5402119e+00 7.9592258e-01 0.0000000e+00 
1.9094303e+01 8.4081745e+00 0.0000000e+00 
1.5042374e+00 9.1532278e+00 0.0000000e+00 
8.2949740e-01 1.5059323e+00 0.0000000e+00 
1.8445559e+01 9.5495284e-01 0.0000000e+00 
4.5000000e+00 9.1339750e+00 0.0000000e+00 
5.0000000e+00 8.2679491e+00 0.0000000e+00 
6.0000000e+00 8.2679491e+00 0.0000000e+00 
5.5000000e+00 7.4019237e+00 0.0000000e+00 
6.5000000e+00 7.4019237e+00 0.0000000e+00 
6.0000000e+00 6.5358982e+00 0.0000000e+00 
7.0000000e+00 6.5358982e+00 0.0000000e+00 
6.5000000e+00 5.6698728e+00 0.0000000e+00 
7.5000000e+00 5.6698728e+00 0.0000000e+00 
5.5000000e+00 5.6698728e+00 0.0000000e+00 
6.0000000e+00 4.8038478e+00 0.0000000e+00 
5.0000000e+00 4.8038478e+00 0.0000000e+00 
4.5000000e+00 5.6698728e+00 0.0000000e+00 
4.0000000e+00 4.8038478e+00 0.0000000e+00 
5.5000000e+00 3.9378221e+00 0.0000000e+00 
6.5000000e+00 3.9378221e+00 0.0000000e+00 
8.0000000e+00 6.5358982e+00 0.0000000e+00 
8.5000000e+00 5.6698728e+00 0.0000000e+00 
9.0000000e+00 6.5358982e+00 0.0000000e+00 
9.5000000e+00 5.6698728e+00 0.0000000e+00 
9.0000000e+00 4.8038478e+00 0.0000000e+00 
1.0000000e+01 4.8038478e+00 0.0000000e+00 
1.0500000e+01 5.6698728e+00 0.0000000e+00 
1.1000000e+01 4.8038478e+00 0.0000000e+00 
1.1500000e+01 5.6698728e+00 0.0000000e+00 
1.2000000e+01 4.8038478e+00 0.0000000e+00 
1.2500000e+01 5.6698728e+00 0.0000000e+00 
1.3000000e+01 4.8038478e+00 0.0000000e+00 
1.3500000e+01 5.6698728e+00 0.0000000e+00 
1.4000000e+01 4.8038478e+00 0.0000000e+00 
1.4500000e+01 5.6698728e+00 0.0000000e+00 
1.5000000e+01 4.8038478e+00 0.0000000e+00 
1.5500000e+01 5.6698728e+00 0.0000000e+00 
1.3500000e+01 3.9378221e+00 0.0000000e+00 
1.0500000e+01 3.9378221e+00 0.0000000e+00 
1.6000000e+01 4.8038478e+00 0.0000000e+00 
1.5500000e+01 3.9378221e+00 0.0000000e+00 
1.3000000e+01 6.5358982e+00 0.0000000e+00 
1.6500000e+01 3.9378221e+00 0.0000000e+00 
6.0246964e+00 3.0860553e+00 0.0000000e+00 
3.5000000e+00 5.6698728e+00 0.0000000e+00 
1.6500000e+01 5.6698728e+00 0.0000000e+00 
1.6000000e+01 6.5358982e+00 0.0000000e+00 
1.1000000e+01 6.5358982e+00 0.0000000e+00 
5.0288124e+00 3.1213744e+00 0.0000000e+00 
7.0041161e+00 3.0741732e+00 0.0000000e+00 
2.9553418e+00 4.8365397e+00 0.0000000e+00 
1.6000000e+01 3.0717967e+00 0.0000000e+00 
1.7000000e+01 6.5358982e+00 0.0000000e+00 
1.7000000e+01 3.0717967e+00 0.0000000e+00 
8.5000000e+00 7.4019237e+00 0.0000000e+00 
3.4925570e+00 3.9432709e+00 0.0000000e+00 
9.5000000e+00 7.4019237e+00 0.0000000e+00 
4.5000000e+00 7.4019237e+00 0.0000000e+00 
1.5000000e+01 3.0717967e+00 0.0000000e+00 
1.7507488e+01 5.6669536e+00 0.0000000e+00 
6.5107503e+00 2.2357147e+00 0.0000000e+00 
1.5500000e+01 2.2057714e+00 0.0000000e+00 
1.7482849e+01 3.9478383e+00 0.0000000e+00 
2.4838426e+00 5.7012835e+00 0.0000000e+00 
2.9973071e+00 6.5411334e+00 0.0000000e+00 
1.6500000e+01 7.4019237e+00 0.0000000e+00 
1.5500000e+01 7.4019237e+00 0.0000000e+00 
1.7500000e+01 7.4019237e+00 0.0000000e+00 
7.5006862e+00 3.9382184e+00 0.0000000e+00 
8.0008001e+00 3.0722589e+00 0.0000000e+00 
2.4646075e+00 3.9872341e+00 0.0000000e+00 
3.0000000e+00 3.0717967e+00 0.0000000e+00 
2.0000000e+00 6.5358982e+00 0.0000000e+00 
2.5285575e+00 7.3860493e+00 0.0000000e+00 
1.4500000e+01 2.2057714e+00 0.0000000e+00 
1.8143080e+01 3.0350568e+00 0.0000000e+00 
1.7489780e+01 2.2149704e+00 0.0000000e+00 
1.8901860e+00 3.0475340e+00 0.0000000e+00 
2.5122623e+00 2.2156274e+00 0.0000000e+00 
3.5267401e+00 2.3241744e+00 0.0000000e+00 
1.6000000e+01 8.2679491e+00 0.0000000e+00 
1.5000000e+01 8.2679491e+00 0.0000000e+00 
1.4500000e+01 7.4019237e+00 0.0000000e+00 
1.4000000e+01 8.2679491e+00 0.0000000e+00 
1.3500000e+01 9.1339750e+00 0.0000000e+00 
1.3000000e+01 8.2679491e+00 0.0000000e+00 
9.0000000e+00 8.2679491e+00 0.0000000e+00 
1.0000000e+01 8.2679491e+00 0.0000000e+00 
1.8026423e+01 6.5280433e+00 0.0000000e+00 
1.8507418e+01 7.4261799e+00 0.0000000e+00 
[...]
POINT_DATA 1029
FIELD FieldData 1
VELOCITY 3 1029  float
0.0000000e+00 0.0000000e+00 0.0000000e+00 
0.0000000e+00 0.0000000e+00 0.0000000e+00 
0.0000000e+00 4.2850804e-03 0.0000000e+00 
0.0000000e+00 -1.5091099e+00 0.0000000e+00 
-2.5068307e-01 -1.9364642e+00 0.0000000e+00 
-8.5223392e-02 -1.6040236e-02 0.0000000e+00 
-2.5231518e-02 3.6591128e-02 0.0000000e+00 
4.9033272e-04 3.2803760e-04 0.0000000e+00 
0.0000000e+00 0.0000000e+00 0.0000000e+00 
0.0000000e+00 0.0000000e+00 0.0000000e+00 
0.0000000e+00 0.0000000e+00 0.0000000e+00 
0.0000000e+00 0.0000000e+00 0.0000000e+00 
0.0000000e+00 0.0000000e+00 0.0000000e+00 
0.0000000e+00 0.0000000e+00 0.0000000e+00 
0.0000000e+00 0.0000000e+00 0.0000000e+00 
0.0000000e+00 0.0000000e+00 0.0000000e+00 
0.0000000e+00 0.0000000e+00 0.0000000e+00 
0.0000000e+00 0.0000000e+00 0.0000000e+00 
0.0000000e+00 0.0000000e+00 0.0000000e+00 
0.0000000e+00 0.0000000e+00 0.0000000e+00 
0.0000000e+00 0.0000000e+00 0.0000000e+00 
0.0000000e+00 0.0000000e+00 0.0000000e+00 
0.0000000e+00 0.0000000e+00 0.0000000e+00 
0.0000000e+00 0.0000000e+00 0.0000000e+00 
0.0000000e+00 0.0000000e+00 0.0000000e+00 
0.0000000e+00 0.0000000e+00 0.0000000e+00 
0.0000000e+00 0.0000000e+00 0.0000000e+00 
0.0000000e+00 0.0000000e+00 0.0000000e+00 
0.0000000e+00 0.0000000e+00 0.0000000e+00 
0.0000000e+00 0.0000000e+00 0.0000000e+00 
0.0000000e+00 0.0000000e+00 0.0000000e+00 
0.0000000e+00 0.0000000e+00 0.0000000e+00 
0.0000000e+00 0.0000000e+00 0.0000000e+00 
0.0000000e+00 0.0000000e+00 0.0000000e+00 
0.0000000e+00 0.0000000e+00 0.0000000e+00 
0.0000000e+00 0.0000000e+00 0.0000000e+00 
0.0000000e+00 0.0000000e+00 0.0000000e+00 
0.0000000e+00 0.0000000e+00 0.0000000e+00 
0.0000000e+00 0.0000000e+00 0.0000000e+00 
0.0000000e+00 0.0000000e+00 0.0000000e+00 
0.0000000e+00 0.0000000e+00 0.0000000e+00 
0.0000000e+00 0.0000000e+00 0.0000000e+00 
0.0000000e+00 0.0000000e+00 0.0000000e+00 
0.0000000e+00 0.0000000e+00 0.0000000e+00 
0.0000000e+00 0.0000000e+00 0.0000000e+00 
0.0000000e+00 0.0000000e+00 0.0000000e+00 
0.0000000e+00 0.0000000e+00 0.0000000e+00 
0.0000000e+00 -6.7019294e-04 0.0000000e+00 
0.0000000e+00 -3.7112331e-03 0.0000000e+00 
0.0000000e+00 2.4511626e-03 0.0000000e+00 
0.0000000e+00 -5.4060225e-03 0.0000000e+00 
0.0000000e+00 -8.4805023e-03 0.0000000e+00 
0.0000000e+00 -3.9858543e-03 0.0000000e+00 
0.0000000e+00 -2.1926598e-03 0.0000000e+00 
0.0000000e+00 1.4731456e-03 0.0000000e+00 
0.0000000e+00 5.5474997e-04 0.0000000e+00 
0.0000000e+00 7.8176928e-04 0.0000000e+00 
0.0000000e+00 1.3347318e-04 0.0000000e+00 
0.0000000e+00 4.2341551e-04 0.0000000e+00 
0.0000000e+00 -4.1918536e-03 0.0000000e+00 
0.0000000e+00 3.4565912e-04 0.0000000e+00 
0.0000000e+00 8.8439119e-04 0.0000000e+00 
0.0000000e+00 -6.3389097e-04 0.0000000e+00 
0.0000000e+00 1.0147273e-03 0.0000000e+00 
0.0000000e+00 -2.8212268e-03 0.0000000e+00 
0.0000000e+00 5.2391393e-03 0.0000000e+00 
0.0000000e+00 -1.6358265e+00 0.0000000e+00 
0.0000000e+00 -2.0065961e+00 0.0000000e+00 
0.0000000e+00 -2.0533345e+00 0.0000000e+00 
0.0000000e+00 -1.1803483e+00 0.0000000e+00 
0.0000000e+00 2.8129086e-01 0.0000000e+00 
0.0000000e+00 -1.1151021e-03 0.0000000e+00 
0.0000000e+00 -2.0206179e-01 0.0000000e+00 
0.0000000e+00 -8.2414269e-02 0.0000000e+00 
0.0000000e+00 3.5406321e-02 0.0000000e+00 
0.0000000e+00 -1.5917469e+00 0.0000000e+00 
0.0000000e+00 -1.8963058e+00 0.0000000e+00 
0.0000000e+00 -2.2244551e+00 0.0000000e+00 
0.0000000e+00 -1.8420539e+00 0.0000000e+00 
0.0000000e+00 1.3854975e-02 0.0000000e+00 
0.0000000e+00 -2.4254538e-01 0.0000000e+00 
0.0000000e+00 1.5484029e-01 0.0000000e+00 
0.0000000e+00 1.6827567e-01 0.0000000e+00 
0.0000000e+00 1.1666375e-02 0.0000000e+00 
0.0000000e+00 -4.8159774e-02 0.0000000e+00 
-9.3426511e-02 -1.5392262e+00 0.0000000e+00 
1.6689421e-01 -1.2616487e-01 0.0000000e+00 
5.5909313e-02 -7.0541814e-02 0.0000000e+00 
-1.6360680e-02 6.2979013e-02 0.0000000e+00 
-6.7765177e-03 5.3797301e-02 0.0000000e+00 
-4.4744000e-02 1.2437925e-01 0.0000000e+00 
-5.3124353e-02 5.2834462e-02 0.0000000e+00 
-7.9054069e-03 -4.0640295e-02 0.0000000e+00 
1.2241326e-02 -4.7362160e-02 0.0000000e+00 
1.1801357e-02 -3.1522579e-02 0.0000000e+00 
-2.2995932e-02 1.8247636e-02 0.0000000e+00 
8.3952677e-03 3.8398653e-03 0.0000000e+00 
2.2048079e-03 4.7242478e-03 0.0000000e+00 
5.9573730e-03 -5.2761575e-03 0.0000000e+00 
1.1579126e-02 -9.8083559e-03 0.0000000e+00 
7.9370104e-03 -8.9093037e-03 0.0000000e+00 
7.4395159e-04 -2.9524842e-03 0.0000000e+00 
-1.9374223e-03 -3.9337855e-03 0.0000000e+00 
1.2777703e-03 -1.6119544e-04 0.0000000e+00 
4.6161790e-03 -2.5299164e-03 0.0000000e+00 
-3.7224856e-03 4.8646334e-04 0.0000000e+00 
4.4339855e-04 9.1304020e-05 0.0000000e+00 
-1.1764169e-03 -4.9373689e-03 0.0000000e+00 
-2.8596902e-03 3.5700114e-03 0.0000000e+00 
-2.0196275e-03 6.7463969e-03 0.0000000e+00 
1.1592853e-03 -8.8412187e-04 0.0000000e+00 
9.6832775e-04 3.2641401e-03 0.0000000e+00 
7.6150679e-04 -1.5276027e-03 0.0000000e+00 
5.0841525e-02 2.5525457e-01 0.0000000e+00 
-3.9562312e-01 -2.3065694e-01 0.0000000e+00 
-1.0773182e+00 -1.2300144e+00 0.0000000e+00 
2.1170992e-01 -8.4484912e-02 0.0000000e+00 
-1.3552922e-01 3.6764646e-01 0.0000000e+00 
-8.5947573e-01 -6.0725200e-01 0.0000000e+00 
-6.9687676e-01 -1.8576455e+00 0.0000000e+00 
1.4085975e-02 -3.1558074e-02 0.0000000e+00 
2.2707952e-03 -2.3449198e-03 0.0000000e+00 
1.0198534e-03 1.3390477e-01 0.0000000e+00 
6.5831440e-03 1.3250126e-02 0.0000000e+00 
2.0742263e-03 2.1608784e-03 0.0000000e+00 
5.9489952e-03 -2.9837610e-03 0.0000000e+00 
2.7964534e-02 6.4255167e-03 0.0000000e+00 
-5.6157270e-03 -3.9536264e-03 0.0000000e+00 
-1.7983511e-02 2.6133996e-01 0.0000000e+00 
-3.0640893e-02 -2.6229763e-02 0.0000000e+00 
7.1216561e-03 -1.1496318e-02 0.0000000e+00 
1.0092559e-04 1.2096048e-03 0.0000000e+00 
2.1906421e-01 2.2641915e-01 0.0000000e+00 
2.4145518e-03 -4.8054871e-03 0.0000000e+00 
3.0233136e-03 -4.7996808e-03 0.0000000e+00 
-1.4659731e-02 7.6473482e-02 0.0000000e+00 
-2.3131487e-03 -1.8208052e-03 0.0000000e+00 
4.2956203e-01 -1.5437102e+00 0.0000000e+00 
-4.5131263e-03 -1.9150391e-03 0.0000000e+00 
-6.4275101e-02 6.8222642e-02 0.0000000e+00 
-5.4958463e-04 1.3787726e-04 0.0000000e+00 
-3.8444537e-01 -1.7914037e+00 0.0000000e+00 
-3.1943262e-02 1.2644318e-01 0.0000000e+00 
-5.4268157e-03 1.0960371e-03 0.0000000e+00 
1.1529578e-01 -8.1282668e-02 0.0000000e+00 
-1.1783798e-02 8.5183524e-02 0.0000000e+00 
-1.2426858e-03 -8.4604412e-02 0.0000000e+00 
-8.2266346e-02 -1.6378924e-01 0.0000000e+00 
-1.7539600e-02 4.3947306e-03 0.0000000e+00 
-7.0704080e-02 2.9027654e-02 0.0000000e+00 
4.0829759e-02 1.0286889e-01 0.0000000e+00 
3.6905538e-02 4.1525979e-03 0.0000000e+00 
1.9252516e-02 -1.7607108e-02 0.0000000e+00 
-8.9440942e-02 -4.4171449e-02 0.0000000e+00 
-3.2038614e-02 -4.5369804e-02 0.0000000e+00 
-1.6091147e-02 -4.4972539e-02 0.0000000e+00 
1.0259082e-01 2.1543436e-02 0.0000000e+00 
7.3876888e-02 9.8121025e-02 0.0000000e+00 
-4.8610851e-02 -5.2980963e-02 0.0000000e+00 
-8.0662183e-03 -9.3139103e-03 0.0000000e+00 
-1.2805721e-03 1.9351816e-02 0.0000000e+00 
-2.2831939e-02 -6.2031154e-02 0.0000000e+00 
-1.6530884e-02 -1.5808387e-02 0.0000000e+00 
-4.5747953e-03 -3.5634756e-02 0.0000000e+00 
-9.6498653e-03 -2.0060485e-02 0.0000000e+00 
7.2313338e-03 5.2682199e-03 0.0000000e+00 
-3.2018682e-03 -1.6315820e-02 0.0000000e+00 
2.0460372e-03 1.1662481e-02 0.0000000e+00 
-2.6395244e-03 -1.2032500e-02 0.0000000e+00 
4.0804702e-03 2.7392341e-03 0.0000000e+00 
2.3042457e-03 -1.8225802e-03 0.0000000e+00 
-1.6231996e-03 5.5175354e-03 0.0000000e+00 
-1.5817581e-03 -1.8336935e-03 0.0000000e+00 
-2.2697528e-03 6.2971953e-03 0.0000000e+00 
3.0097966e-03 2.3215809e-03 0.0000000e+00 
3.1091901e-03 2.2289369e-03 0.0000000e+00 
8.4338477e-05 1.9028083e-03 0.0000000e+00 
1.3977021e-03 2.5590106e-03 0.0000000e+00 
3.4380590e-03 2.5369847e-02 0.0000000e+00 
2.8325822e-03 -9.0004719e-04 0.0000000e+00 
-5.7347200e-04 2.3454758e-03 0.0000000e+00 
-6.6641993e-03 -5.0269198e-03 0.0000000e+00 
-1.1737026e-04 -2.2981926e-03 0.0000000e+00 
-3.1916335e-02 -6.0446199e-02 0.0000000e+00 
1.4463552e-02 -3.6460251e-02 0.0000000e+00 
2.5404908e-03 -3.1314511e-03 0.0000000e+00 
3.5317861e-03 2.3134190e-03 0.0000000e+00 
-1.4480922e-02 -1.4484563e-02 0.0000000e+00 
-2.9400112e-02 -1.0686305e-02 0.0000000e+00 
-8.3096130e-03 -9.0832068e-03 0.0000000e+00 
1.5755156e-02 -4.5996264e-02 0.0000000e+00 
-7.8196038e-04 -6.6805603e-03 0.0000000e+00 
1.9301391e-04 -3.5163050e-04 0.0000000e+00 
1.7776063e-05 -9.3821036e-03 0.0000000e+00 
1.5685733e-02 2.6835037e-02 0.0000000e+00 
6.3867390e-02 -1.3476020e-02 0.0000000e+00 
6.4364676e-03 1.4751183e-02 0.0000000e+00 
4.1276425e-02 1.3853565e-01 0.0000000e+00 
-4.5865033e-07 -5.0401988e-05 0.0000000e+00 
-3.5824259e-03 -1.1477348e-03 0.0000000e+00 
-6.9178627e-03 -1.6431205e-02 0.0000000e+00 
-8.2401464e-05 -6.5171239e-03 0.0000000e+00 
-5.5182874e-03 -5.4985415e-03 0.0000000e+00 
5.7628673e-02 6.7983292e-02 0.0000000e+00 
-5.0462101e-02 -2.4805345e-01 0.0000000e+00 
5.6745969e-03 3.3882528e-04 0.0000000e+00 
3.3347814e-03 4.0324712e-03 0.0000000e+00 
-2.0910338e-03 -4.2462256e-04 0.0000000e+00 
-1.0274612e-02 4.9849269e-03 0.0000000e+00 
-1.4999167e-03 1.1023521e-02 0.0000000e+00 
-1.1948758e-01 1.0600122e-01 0.0000000e+00 
-2.6695903e-02 5.7961591e-02 0.0000000e+00 
2.7565852e-01 -9.7835559e-01 0.0000000e+00 
8.8418478e-01 -5.7502466e-01 0.0000000e+00 
3.7142010e-03 -4.6754694e-03 0.0000000e+00 
-6.4570592e-03 -2.1914989e-03 0.0000000e+00 
-9.1303019e-03 -2.6198060e-03 0.0000000e+00 
5.8601450e-02 -5.8055323e-02 0.0000000e+00 
8.9445062e-02 -9.3314275e-02 0.0000000e+00 
-1.6231939e-02 -9.7012557e-03 0.0000000e+00 
1.5956960e-03 -2.3936562e-03 0.0000000e+00 
1.4615542e-03 -1.3278712e-03 0.0000000e+00 
3.2528378e-03 7.5019021e-03 0.0000000e+00 
3.5426852e-03 -5.8717546e-03 0.0000000e+00 
3.7131966e-03 -4.6817805e-03 0.0000000e+00 
3.6413774e-03 2.5656053e-03 0.0000000e+00 
2.2709824e-02 2.0932304e-02 0.0000000e+00 
8.2041736e-04 2.9761223e-02 0.0000000e+00 
-5.3635784e-03 -1.7541337e-03 0.0000000e+00 
-5.9558372e-03 -2.9327166e-03 0.0000000e+00 
-1.9614389e-03 3.8019530e-03 0.0000000e+00 
-5.6623477e-03 -8.7468848e-03 0.0000000e+00 
-8.3178813e-03 -6.1823882e-04 0.0000000e+00 
-2.9708324e-02 -4.1331515e-02 0.0000000e+00 
2.6279450e-03 2.6885811e-03 0.0000000e+00 
-7.2934298e-04 -3.1668643e-04 0.0000000e+00 
-1.1660014e-02 -1.3648972e-02 0.0000000e+00 
-7.0507135e-03 -1.3896583e-02 0.0000000e+00 
5.9859059e-03 -6.2468206e-04 0.0000000e+00 
-5.4370915e-03 -3.4092220e-03 0.0000000e+00 
2.4850556e-04 2.0612139e-02 0.0000000e+00 
4.0710480e-03 7.5729312e-03 0.0000000e+00 
1.5332263e-02 4.4771763e-03 0.0000000e+00 
1.1498027e-02 -4.4601592e-03 0.0000000e+00 
-5.9264190e-03 -1.5965730e-02 0.0000000e+00 
4.2254865e-04 -3.9144638e-03 0.0000000e+00 
4.5695513e-02 3.9983198e-02 0.0000000e+00 
2.1459216e-02 -3.1227322e-02 0.0000000e+00 
-1.8817516e-01 -4.6684226e-01 0.0000000e+00 
-8.4880330e-03 4.2109676e-03 0.0000000e+00 
-1.7516227e-03 1.2418333e-02 0.0000000e+00 
1.2505684e-02 1.5705470e-04 0.0000000e+00 
4.4415840e-03 1.4202195e-03 0.0000000e+00 
1.7330159e-03 -4.3972624e-03 0.0000000e+00 
2.8114843e-03 -2.5405288e-03 0.0000000e+00 
6.4337752e-03 -8.1375996e-03 0.0000000e+00 
-4.8433044e-03 2.3626313e-03 0.0000000e+00 
1.6367579e-03 1.1715513e-02 0.0000000e+00 
2.5010591e-03 1.1828052e-02 0.0000000e+00 
6.9491221e-03 -1.3361061e-03 0.0000000e+00 
-3.6193053e-03 5.5327741e-03 0.0000000e+00 
3.7182616e-03 -6.6858000e-04 0.0000000e+00 
-1.9228205e-02 3.8377911e-02 0.0000000e+00 
2.9873263e-02 3.5778638e-02 0.0000000e+00 
2.5611594e-02 2.1236854e-02 0.0000000e+00 
-4.8514693e-03 1.7480399e-03 0.0000000e+00 
-7.0520164e-03 1.5732323e-04 0.0000000e+00 
2.7047389e-03 1.0829698e-03 0.0000000e+00 
1.5273872e-03 4.1577071e-03 0.0000000e+00 
-4.4354280e-03 -4.1993894e-03 0.0000000e+00 
3.9959106e-01 -1.6674668e+00 0.0000000e+00 
4.9582194e-03 -2.8077576e-01 0.0000000e+00 
-3.8777392e-02 -1.9740167e-01 0.0000000e+00 
-3.9619900e-02 1.8075043e-01 0.0000000e+00 
-1.4664753e-02 -6.5894805e-02 0.0000000e+00 
2.6690977e-02 7.4560352e-02 0.0000000e+00 
2.9338391e-02 7.3720112e-02 0.0000000e+00 
5.0608064e-03 4.8264633e-03 0.0000000e+00 
-4.3639783e-03 3.5843011e-03 0.0000000e+00 
-1.2744732e-03 -7.1326979e-03 0.0000000e+00 
-1.2779189e-02 -7.3934966e-03 0.0000000e+00 
-1.3932345e-02 -1.9609220e-02 0.0000000e+00 
-7.3665401e-06 1.0438288e-03 0.0000000e+00 
-3.0472610e-02 -2.9804509e-02 0.0000000e+00 
2.6913483e-02 -1.5188771e-02 0.0000000e+00 
4.1488465e-04 1.3909314e-03 0.0000000e+00 
2.5235730e-01 -6.9651239e-02 0.0000000e+00 
-2.6051976e-02 -1.8023329e-02 0.0000000e+00 
-6.0613956e-03 3.0673489e-03 0.0000000e+00 
1.1732026e-03 -4.2189108e-03 0.0000000e+00 
-7.1909023e-03 2.5109737e-03 0.0000000e+00 
1.4627671e-01 -1.3428929e-01 0.0000000e+00 
8.8426270e-02 1.0360270e-01 0.0000000e+00 
3.5881701e-01 -8.0103350e-01 0.0000000e+00 
7.4283087e-01 -1.0282567e-01 0.0000000e+00 
9.4021056e-03 1.2872751e-02 0.0000000e+00 
1.1051998e-02 1.1590092e-02 0.0000000e+00 
1.0772474e-02 -6.2448448e-03 0.0000000e+00 
-1.0666098e-02 1.1726764e-02 0.0000000e+00 
-2.4200666e-03 -1.2553646e-03 0.0000000e+00 
-2.2763242e-01 -2.0493252e+00 0.0000000e+00 
4.0398594e-02 -1.1155120e-01 0.0000000e+00 
-1.4963798e-03 5.9275976e-03 0.0000000e+00 
9.5840730e-02 -1.6167568e-01 0.0000000e+00 
-5.1912228e-03 -3.0992751e-03 0.0000000e+00 
-9.6894264e-02 1.9246475e-01 0.0000000e+00 
-4.5475825e-03 -1.1967310e-02 0.0000000e+00 
1.3554617e-03 -1.6157288e-02 0.0000000e+00 
6.1541977e-03 -2.8499277e-02 0.0000000e+00 
-2.7715834e-03 -9.5647440e-05 0.0000000e+00 
-3.2621846e-02 -4.5102979e-03 0.0000000e+00 
9.6548647e-03 1.7094966e-02 0.0000000e+00 
-4.5860335e-03 1.4080045e-02 0.0000000e+00 
4.4921665e-03 -3.8410586e-03 0.0000000e+00 
-3.4448265e-03 4.2921090e-03 0.0000000e+00 
-1.4970447e-02 1.0533430e-02 0.0000000e+00 
6.1831181e-03 -5.1589459e-03 0.0000000e+00 
7.6534552e-03 -6.0048038e-03 0.0000000e+00 
2.0836757e-03 -1.8519828e-03 0.0000000e+00 
1.6903033e-03 1.8340907e-03 0.0000000e+00 
-2.2348438e-03 -2.1326756e-03 0.0000000e+00 
1.7424391e-04 -1.0631986e-02 0.0000000e+00 
1.7859355e-02 -1.3090966e-02 0.0000000e+00 
-3.4479268e-02 8.6082527e-03 0.0000000e+00 
1.2288601e+00 -1.1717478e+00 0.0000000e+00 
-6.5931333e-03 -2.0027685e-03 0.0000000e+00 
6.7439906e-02 2.0179008e-01 0.0000000e+00 
-1.8943854e-03 6.5297994e-04 0.0000000e+00 
-2.7605930e-01 -1.8624465e+00 0.0000000e+00 
4.5988387e-03 -7.9771787e-02 0.0000000e+00 
-8.3771237e-04 4.9219402e-03 0.0000000e+00 
-2.9860365e-03 -5.5255066e-03 0.0000000e+00 
-2.2419469e-02 3.0744361e-02 0.0000000e+00 
4.2742673e-02 -1.5387443e-01 0.0000000e+00 
6.6674680e-02 5.0668813e-02 0.0000000e+00 
-2.0351810e-02 5.9810251e-02 0.0000000e+00 
-1.8608294e-01 -1.7641624e+00 0.0000000e+00 
-7.0519857e-02 -1.9951378e+00 0.0000000e+00 
4.7648567e-01 -1.4228214e+00 0.0000000e+00 
1.0007898e+00 -1.3231399e+00 0.0000000e+00 
9.2140758e-01 -9.5737028e-01 0.0000000e+00 
-1.3928867e-03 3.1068118e-03 0.0000000e+00 
7.4437179e-04 -2.1257540e-03 0.0000000e+00 
1.4431867e-03 -1.0683946e-03 0.0000000e+00 
6.7740805e-02 -1.5048379e-01 0.0000000e+00 
1.0280633e-02 1.3869551e-01 0.0000000e+00 
2.4510357e-03 -1.4875875e-01 0.0000000e+00 
1.3093463e-03 2.3858105e-03 0.0000000e+00 
2.3981829e-03 -6.6824569e-03 0.0000000e+00 
-3.5096065e-03 4.0869494e-03 0.0000000e+00 
-1.5579466e-03 1.6123214e-04 0.0000000e+00 
1.1970670e-03 -3.6996271e-04 0.0000000e+00 
7.7264837e-04 5.7048211e-04 0.0000000e+00 
1.1175056e-01 -1.2120526e-01 0.0000000e+00 
-9.2677377e-02 1.2246403e-01 0.0000000e+00 
-2.1881841e-02 -1.8400857e-02 0.0000000e+00 
-6.2198259e-02 9.6290566e-02 0.0000000e+00 
-2.9189712e-03 3.2612804e-04 0.0000000e+00 
9.6257828e-04 8.5072650e-04 0.0000000e+00 
-7.9648666e-02 -2.8424780e-03 0.0000000e+00 
3.1636219e-02 -5.6516349e-02 0.0000000e+00 
1.5184429e-03 -4.4305758e-03 0.0000000e+00 
2.9000323e-03 9.2610740e-04 0.0000000e+00 
2.8457914e-03 9.5709873e-04 0.0000000e+00 
-3.0512912e-03 -7.9047948e-04 0.0000000e+00 
-1.7492204e-03 2.3926592e-04 0.0000000e+00 
2.2014529e-03 2.2717130e-03 0.0000000e+00 
-3.8790019e-04 -3.0360050e-03 0.0000000e+00 
1.2709076e-03 1.6251656e-03 0.0000000e+00 
-9.5766375e-04 1.8832536e-03 0.0000000e+00 
-1.2584703e-02 -3.6946438e-02 0.0000000e+00 
-7.0987701e-02 1.6863453e-01 0.0000000e+00 
-7.5110595e-04 -1.6101045e-04 0.0000000e+00 
2.0408447e-04 2.2775091e-03 0.0000000e+00 
-4.0432826e-01 -1.8872389e+00 0.0000000e+00 
-2.1903621e-01 -1.4687374e+00 0.0000000e+00 
8.0987352e-01 -1.1443626e+00 0.0000000e+00 
9.0937358e-01 -1.3960729e+00 0.0000000e+00 
3.6040530e-01 -1.2090266e+00 0.0000000e+00 
-3.1453415e-04 1.8222962e-03 0.0000000e+00 
1.0466966e-03 -2.6847695e-03 0.0000000e+00 
-4.0400982e-02 1.3977553e-01 0.0000000e+00 
2.8753046e-02 -5.3026199e-02 0.0000000e+00 
-1.3295656e-02 3.4125835e-02 0.0000000e+00 
3.9110616e-02 -8.8414498e-02 0.0000000e+00 
-1.9804619e-02 2.6361750e-02 0.0000000e+00 
7.7095965e-04 6.2550546e-04 0.0000000e+00 
3.6593953e-03 -1.7853446e-03 0.0000000e+00 
1.5429725e-02 -1.3740886e-02 0.0000000e+00 
2.2036776e-02 -1.5596300e-02 0.0000000e+00 
-4.9980218e-03 7.4113132e-03 0.0000000e+00 
-1.9379849e-02 3.2514658e-02 0.0000000e+00 
8.6046988e-03 -1.2443935e-02 0.0000000e+00 
1.6313316e-02 3.9883056e-03 0.0000000e+00 
-2.1964796e-03 1.6746386e-03 0.0000000e+00 
1.2657690e-03 -2.6922114e-03 0.0000000e+00 
-1.6060885e-03 -1.3108637e-04 0.0000000e+00 
-5.4662535e-04 6.3118241e-03 0.0000000e+00 
-9.3571394e-04 1.3734959e-03 0.0000000e+00 
2.4657012e-03 -3.2123083e-03 0.0000000e+00 
-1.2128106e-03 1.2283634e-03 0.0000000e+00 
1.4183590e-01 -8.8112116e-01 0.0000000e+00 
1.3273697e-01 -4.5195881e-01 0.0000000e+00 
1.8349198e-03 -3.4588941e-03 0.0000000e+00 
9.1227585e-01 -1.5969396e+00 0.0000000e+00 
-4.0085860e-02 1.8122928e-02 0.0000000e+00 
1.9403918e-02 -1.3480066e-02 0.0000000e+00 
-3.1897938e-04 -1.0629667e-03 0.0000000e+00 
-1.2636555e-03 1.2288408e-03 0.0000000e+00 
-3.3273005e-03 3.1284397e-03 0.0000000e+00 
4.7769682e-03 -4.2484342e-03 0.0000000e+00 
-6.6481438e-04 8.5020874e-04 0.0000000e+00 
9.5838553e-04 -8.4049180e-03 0.0000000e+00 
-8.9659914e-03 -3.6910118e-03 0.0000000e+00 
-2.5750123e-02 -6.3888822e-03 0.0000000e+00 
-8.4135570e-03 3.2780860e-02 0.0000000e+00 
9.4418006e-04 7.0121017e-04 0.0000000e+00 
-1.2107030e-03 -2.0326115e-03 0.0000000e+00 
5.0841522e-04 9.2175143e-04 0.0000000e+00 
-1.1077378e-04 -2.2733363e-03 0.0000000e+00 
-6.4940442e-04 9.9600619e-04 0.0000000e+00 
1.5341750e-03 -3.0126981e-04 0.0000000e+00 
4.1661563e-04 3.4725075e-03 0.0000000e+00 
-1.7748569e-03 -4.3173921e-03 0.0000000e+00 
-7.6098467e-04 9.0550276e-04 0.0000000e+00 
-1.5552891e-03 -9.4764959e-04 0.0000000e+00 
4.3106760e-04 2.5948114e-03 0.0000000e+00 
-9.3993905e-04 2.7006667e-03 0.0000000e+00 
2.5580265e-03 3.3506064e-03 0.0000000e+00 
-1.4061539e-03 -6.0184929e-03 0.0000000e+00 
-2.7685652e-03 9.1369301e-03 0.0000000e+00 
7.1278694e-03 1.2309100e-03 0.0000000e+00 
-2.5514178e-03 -7.4266260e-03 0.0000000e+00 
2.3751373e-04 -7.4457903e-03 0.0000000e+00 
4.9151909e-03 -4.4864431e-04 0.0000000e+00 
-2.3601311e-03 4.3945494e-03 0.0000000e+00 
2.6242230e-03 1.1073434e-03 0.0000000e+00 
-1.0585033e-03 -8.7179197e-04 0.0000000e+00 
7.0665139e-03 2.0965522e-02 0.0000000e+00 
-4.3064179e-03 2.8833725e-02 0.0000000e+00 
-6.2744645e-04 -3.1512555e-02 0.0000000e+00 
-1.4627082e-03 9.1909315e-04 0.0000000e+00 
3.7033400e-03 7.5703962e-03 0.0000000e+00 
1.2245348e-03 8.9329276e-03 0.0000000e+00 
-2.6823282e-03 -2.8583011e-02 0.0000000e+00 
4.9001644e-03 3.4496583e-02 0.0000000e+00 
-1.3961901e-02 3.3323310e-02 0.0000000e+00 
-2.4066991e-03 -2.4431812e-02 0.0000000e+00 
3.0048236e-03 -4.7406619e-03 0.0000000e+00 
-1.0369221e-03 1.3460444e-03 0.0000000e+00 
-1.4382139e-03 9.8564674e-04 0.0000000e+00 
-2.9411805e-03 -3.2041997e-03 0.0000000e+00 
7.0258463e-04 6.3724429e-03 0.0000000e+00 
2.2788818e-03 -4.9114516e-03 0.0000000e+00 