# vtk DataFile Version 4.0
vtk output
ASCII
DATASET UNSTRUCTURED_GRID
POINTS 1029 float
0.0000000e+00 0.0000000e+00 0.0000000e+00 
2.0000000e+01 0.0000000e+00 0.0000000e+00 
2.0000000e+01 1.0000000e+01 0.0000000e+00 
0.0000000e+00 1.0000000e+01 0.0000000e+00 
1.0000000e+00 1.0000000e+01 0.0000000e+00 
5.0000000e+00 1.0000000e+01 0.0000000e+00 
1.0000000e+01 1.0000000e+01 0.0000000e+00 
1.5000000e+01 1.0000000e+01 0.0000000e+00 
1.0000000e+00 0.0000000e+00 0.0000000e+00 
2.0000000e+00 0.0000000e+00 0.0000000e+00 
3.0000000e+00 0.0000000e+00 0.0000000e+00 
4.0000000e+00 0.0000000e+00 0.0000000e+00 
5.0000000e+00 0.0000000e+00 0.0000000e+00 
6.0000000e+00 0.0000000e+00 0.0000000e+00 
7.0000000e+00 0.0000000e+00 0.0000000e+00 
8.0000000e+00 0.0000000e+00 0.0000000e+00 
9.0000000e+00 0.0000000e+00 0.0000000e+00 
1.0000000e+01 0.0000000e+00 0.0000000e+00 
1.1000000e+01 0.0000000e+00 0.0000000e+00 
1.2000000e+01 0.0000000e+00 0.0000000e+00 
1.3000000e+01 0.0000000e+00 0.0000000e+00 
1.4000000e+01 0.0000000e+00 0.0000000e+00 
1.5000000e+01 0.0000000e+00 0.0000000e+00 
1.6000000e+01 0.0000000e+00 0.0000000e+00 
1.7000000e+01 0.0000000e+00 0.0000000e+00 
1.8000000e+01 0.0000000e+00 0.0000000e+00 
1.9000000e+01 0.0000000e+00 0.0000000e+00 
5.0000000e-01 0.0000000e+00 0.0000000e+00 
1.5000000e+00 0.0000000e+00 0.0000000e+00 
2.5000000e+00 0.0000000e+00 0.0000000e+00 
3.5000000e+00 0.0000000e+00 0.0000000e+00 
4.5000000e+00 0.0000000e+00 0.0000000e+00 
5.5000000e+00 0.0000000e+00 0.0000000e+00 
6.5000000e+00 0.0000000e+00 0.0000000e+00 
7.5000000e+00 0.0000000e+00 0.0000000e+00 
8.5000000e+00 0.0000000e+00 0.0000000e+00 
9.5000000e+00 0.0000000e+00 0.0000000e+00 
1.0500000e+01 0.0000000e+00 0.0000000e+00 
1.1500000e+01 0.0000000e+00 0.0000000e+00 
1.2500000e+01 0.0000000e+00 0.0000000e+00 
1.3500000e+01 0.0000000e+00 0.0000000e+00 
1.4500000e+01 0.0000000e+00 0.0000000e+00 
1.5500000e+01 0.0000000e+00 0.0000000e+00 
1.6500000e+01 0.0000000e+00 0.0000000e+00 
1.7500000e+01 0.0000000e+00 0.0000000e+00 
1.8500000e+01 0.0000000e+00 0.0000000e+00 
1.9500000e+01 0.0000000e+00 0.0000000e+00 
2.0000000e+01 1.0000000e+00 0.0000000e+00 
2.0000000e+01 2.0000000e+00 0.0000000e+00 
2.0000000e+01 3.0000000e+00 0.0000000e+00 
2.0000000e+01 4.0000000e+00 0.0000000e+00 
2.0000000e+01 5.0000000e+00 0.0000000e+00 
2.0000000e+01 6.0000000e+00 0.0000000e+00 
2.0000000e+01 7.0000000e+00 0.0000000e+00 
2.0000000e+01 8.0000000e+00 0.0000000e+00 
2.0000000e+01 9.0000000e+00 0.0000000e+00 
2.0000000e+01 5.0000000e-01 0.0000000e+00 
2.0000000e+01 1.5000000e+00 0.0000000e+00 
2.0000000e+01 2.5000000e+00 0.0000000e+00 
2.0000000e+01 3.5000000e+00 0.0000000e+00 
2.0000000e+01 4.5000000e+00 0.0000000e+00 
2.0000000e+01 5.5000000e+00 0.0000000e+00 
2.0000000e+01 6.5000000e+00 0.0000000e+00 
2.0000000e+01 7.5000000e+00 0.0000000e+00 
2.0000000e+01 8.5000000e+00 0.0000000e+00 
2.0000000e+01 9.5000000e+00 0.0000000e+00 
0.0000000e+00 9.0000000e+00 0.0000000e+00 
0.0000000e+00 8.0000000e+00 0.0000000e+00 
0.0000000e+00 7.0000000e+00 0.0000000e+00 
0.0000000e+00 6.0000000e+00 0.0000000e+00 
0.0000000e+00 5.0000000e+00 0.0000000e+00 
0.0000000e+00 4.0000000e+00 0.0000000e+00 
0.0000000e+00 3.0000000e+00 0.0000000e+00 
0.0000000e+00 2.0000000e+00 0.0000000e+00 
0.0000000e+00 1.0000000e+00 0.0000000e+00 
0.0000000e+00 9.5000000e+00 0.0000000e+00 
0.0000000e+00 8.5000000e+00 0.0000000e+00 
0.0000000e+00 7.5000000e+00 0.0000000e+00 
0.0000000e+00 6.5000000e+00 0.0000000e+00 
0.0000000e+00 5.5000000e+00 0.0000000e+00 
0.0000000e+00 4.5000000e+00 0.0000000e+00 
0.0000000e+00 3.5000000e+00 0.0000000e+00 
0.0000000e+00 2.5000000e+00 0.0000000e+00 
0.0000000e+00 1.5000000e+00 0.0000000e+00 
0.0000000e+00 5.0000000e-01 0.0000000e+00 
5.0000000e-01 1.0000000e+01 0.0000000e+00 
6.0000000e+00 1.0000000e+01 0.0000000e+00 
7.0000000e+00 1.0000000e+01 0.0000000e+00 
8.0000000e+00 1.0000000e+01 0.0000000e+00 
9.0000000e+00 1.0000000e+01 0.0000000e+00 
5.5000000e+00 1.0000000e+01 0.0000000e+00 
6.5000000e+00 1.0000000e+01 0.0000000e+00 
7.5000000e+00 1.0000000e+01 0.0000000e+00 
8.5000000e+00 1.0000000e+01 0.0000000e+00 
9.5000000e+00 1.0000000e+01 0.0000000e+00 
1.1000000e+01 1.0000000e+01 0.0000000e+00 
1.2000000e+01 1.0000000e+01 0.0000000e+00 
1.3000000e+01 1.0000000e+01 0.0000000e+00 
1.4000000e+01 1.0000000e+01 0.0000000e+00 
1.0500000e+01 1.0000000e+01 0.0000000e+00 
1.1500000e+01 1.0000000e+01 0.0000000e+00 
1.2500000e+01 1.0000000e+01 0.0000000e+00 
1.3500000e+01 1.0000000e+01 0.0000000e+00 
1.4500000e+01 1.0000000e+01 0.0000000e+00 
1.9000000e+01 1.0000000e+01 0.0000000e+00 
1.8000000e+01 1.0000000e+01 0.0000000e+00 
1.7000000e+01 1.0000000e+01 0.0000000e+00 
1.6000000e+01 1.0000000e+01 0.0000000e+00 
1.9500000e+01 1.0000000e+01 0.0000000e+00 
1.8500000e+01 1.0000000e+01 0.0000000e+00 
1.7500000e+01 1.0000000e+01 0.0000000e+00 
1.6500000e+01 1.0000000e+01 0.0000000e+00 
1.5500000e+01 1.0000000e+01 0.0000000e+00 
4.0000000e+00 1.0000000e+01 0.0000000e+00 
3.0000000e+00 1.0000000e+01 0.0000000e+00 
2.0000000e+00 1.0000000e+01 0.0000000e+00 
4.5000000e+00 1.0000000e+01 0.0000000e+00 
3.5000000e+00 1.0000000e+01 0.0000000e+00 
2.5000000e+00 1.0000000e+01 0.0000000e+00 
1.5000000e+00 1.0000000e+01 0.0000000e+00 
9.5000000e+00 9.1339750e+00 0.0000000e+00 
1.4500000e+01 9.1339750e+00 0.0000000e+00 
5.5000000e+00 9.1339750e+00 0.0000000e+00 
7.5000000e+00 8.6602539e-01 0.0000000e+00 
1.1500000e+01 8.6602539e-01 0.0000000e+00 
1.4500000e+01 8.6602539e-01 0.0000000e+00 
4.5246964e+00 8.5176694e-01 0.0000000e+00 
1.9059727e+01 4.6363034e+00 0.0000000e+00 
8.4778279e-01 5.4684029e+00 0.0000000e+00 
7.5000000e+00 9.1339750e+00 0.0000000e+00 
1.1500000e+01 9.1339750e+00 0.0000000e+00 
1.6500000e+01 9.1339750e+00 0.0000000e+00 
3.5000000e+00 9.1339750e+00 0.0000000e+00 
9.5000000e+00 8.6602539e-01 0.0000000e+00 
1.6500000e+01 8.6602539e-01 0.0000000e+00 
8.6602539e-01 3.5000000e+00 0.0000000e+00 
1.9111458e+01 6.5092020e+00 0.0000000e+00 
8.9629614e-01 7.5867257e+00 0.0000000e+00 
1.9112749e+01 2.5204153e+00 0.0000000e+00 
2.5402119e+00 7.9592258e-01 0.0000000e+00 
1.9094303e+01 8.4081745e+00 0.0000000e+00 
1.5042374e+00 9.1532278e+00 0.0000000e+00 
8.2949740e-01 1.5059323e+00 0.0000000e+00 
1.8445559e+01 9.5495284e-01 0.0000000e+00 
4.5000000e+00 9.1339750e+00 0.0000000e+00 
5.0000000e+00 8.2679491e+00 0.0000000e+00 
6.0000000e+00 8.2679491e+00 0.0000000e+00 
5.5000000e+00 7.4019237e+00 0.0000000e+00 
6.5000000e+00 7.4019237e+00 0.0000000e+00 
6.0000000e+00 6.5358982e+00 0.0000000e+00 
7.0000000e+00 6.5358982e+00 0.0000000e+00 
6.5000000e+00 5.6698728e+00 0.0000000e+00 
7.5000000e+00 5.6698728e+00 0.0000000e+00 
5.5000000e+00 5.6698728e+00 0.0000000e+00 
6.0000000e+00 4.8038478e+00 0.0000000e+00 
5.0000000e+00 4.8038478e+00 0.0000000e+00 
4.5000000e+00 5.6698728e+00 0.0000000e+00 
4.0000000e+00 4.8038478e+00 0.0000000e+00 
5.5000000e+00 3.9378221e+00 0.0000000e+00 
6.5000000e+00 3.9378221e+00 0.0000000e+00 
8.0000000e+00 6.5358982e+00 0.0000000e+00 
8.5000000e+00 5.6698728e+00 0.0000000e+00 
9.0000000e+00 6.5358982e+00 0.0000000e+00 
9.5000000e+00 5.6698728e+00 0.0000000e+00 
9.0000000e+00 4.8038478e+00 0.0000000e+00 
1.0000000e+01 4.8038478e+00 0.0000000e+00 
1.0500000e+01 5.6698728e+00 0.0000000e+00 
1.1000000e+01 4.8038478e+00 0.0000000e+00 
1.1500000e+01 5.6698728e+00 0.0000000e+00 
1.2000000e+01 4.8038478e+00 0.0000000e+00 
1.2500000e+01 5.6698728e+00 0.0000000e+00 
1.3000000e+01 4.8038478e+00 0.0000000e+00 
1.3500000e+01 5.6698728e+00 0.0000000e+00 
1.4000000e+01 4.8038478e+00 0.0000000e+00 
1.4500000e+01 5.6698728e+00 0.0000000e+00 
1.5000000e+01 4.8038478e+00 0.0000000e+00 
1.5500000e+01 5.6698728e+00 0.0000000e+00 
1.3500000e+01 3.9378221e+00 0.0000000e+00 
1.0500000e+01 3.9378221e+00 0.0000000e+00 
1.6000000e+01 4.8038478e+00 0.0000000e+00 
1.5500000e+01 3.9378221e+00 0.0000000e+00 
1.3000000e+01 6.5358982e+00 0.0000000e+00 
1.6500000e+01 3.9378221e+00 0.0000000e+00 
6.0246964e+00 3.0860553e+00 0.0000000e+00 
3.5000000e+00 5.6698728e+00 0.0000000e+00 
1.6500000e+01 5.6698728e+00 0.0000000e+00 
1.6000000e+01 6.5358982e+00 0.0000000e+00 
1.1000000e+01 6.5358982e+00 0.0000000e+00 
5.0288124e+00 3.1213744e+00 0.0000000e+00 
7.0041161e+00 3.0741732e+00 0.0000000e+00 
2.9553418e+00 4.8365397e+00 0.0000000e+00 
1.6000000e+01 3.0717967e+00 0.0000000e+00 
1.7000000e+01 6.5358982e+00 0.0000000e+00 
1.7000000e+01 3.0717967e+00 0.0000000e+00 
8.5000000e+00 7.4019237e+00 0.0000000e+00 
3.4925570e+00 3.9432709e+00 0.0000000e+00 
9.5000000e+00 7.4019237e+00 0.0000000e+00 
4.5000000e+00 7.4019237e+00 0.0000000e+00 
1.5000000e+01 3.0717967e+00 0.0000000e+00 
1.7507488e+01 5.6669536e+00 0.0000000e+00 
6.5107503e+00 2.2357147e+00 0.0000000e+00 
1.5500000e+01 2.2057714e+00 0.0000000e+00 
1.7482849e+01 3.9478383e+00 0.0000000e+00 
2.4838426e+00 5.7012835e+00 0.0000000e+00 
2.9973071e+00 6.5411334e+00 0.0000000e+00 
1.6500000e+01 7.4019237e+00 0.0000000e+00 
1.5500000e+01 7.4019237e+00 0.0000000e+00 
1.7500000e+01 7.4019237e+00 0.0000000e+00 
7.5006862e+00 3.9382184e+00 0.0000000e+00 
8.0008001e+00 3.0722589e+00 0.0000000e+00 
2.4646075e+00 3.9872341e+00 0.0000000e+00 
3.0000000e+00 3.0717967e+00 0.0000000e+00 
2.0000000e+00 6.5358982e+00 0.0000000e+00 
2.5285575e+00 7.3860493e+00 0.0000000e+00 
1.4500000e+01 2.2057714e+00 0.0000000e+00 
1.8143080e+01 3.0350568e+00 0.0000000e+00 
1.7489780e+01 2.2149704e+00 0.0000000e+00 
1.8901860e+00 3.0475340e+00 0.0000000e+00 
2.5122623e+00 2.2156274e+00 0.0000000e+00 
3.5267401e+00 2.3241744e+00 0.0000000e+00 
1.6000000e+01 8.2679491e+00 0.0000000e+00 
1.5000000e+01 8.2679491e+00 0.0000000e+00 
1.4500000e+01 7.4019237e+00 0.0000000e+00 
1.4000000e+01 8.2679491e+00 0.0000000e+00 
1.3500000e+01 9.1339750e+00 0.0000000e+00 
1.3000000e+01 8.2679491e+00 0.0000000e+00 
9.0000000e+00 8.2679491e+00 0.0000000e+00 
1.0000000e+01 8.2679491e+00 0.0000000e+00 
1.8026423e+01 6.5280433e+00 0.0000000e+00 
1.8507418e+01 7.4261799e+00 0.0000000e+00 
[...]
POINT_DATA 1029
FIELD FieldData 1
VELOCITY 3 1029  float
0.0000000e+00 0.0000000e+00 0.0000000e+00 
0.0000000e+00 0.0000000e+00 0.0000000e+00 
0.0000000e+00 -1.4754531e-02 0.0000000e+00 
0.0000000e+00 -3.6215118e-01 0.0000000e+00 
-4.9035107e-03 -3.6340135e-01 0.0000000e+00 
6.5312862e-02 -5.4576010e-01 0.0000000e+00 
7.5738463e-03 1.6148131e-01 0.0000000e+00 
1.4538738e-02 1.4708492e-02 0.0000000e+00 
0.0000000e+00 0.0000000e+00 0.0000000e+00 
0.0000000e+00 0.0000000e+00 0.0000000e+00 
0.0000000e+00 0.0000000e+00 0.0000000e+00 
0.0000000e+00 0.0000000e+00 0.0000000e+00 
0.0000000e+00 0.0000000e+00 0.0000000e+00 
0.0000000e+00 0.0000000e+00 0.0000000e+00 
0.0000000e+00 0.0000000e+00 0.0000000e+00 
0.0000000e+00 0.0000000e+00 0.0000000e+00 
0.0000000e+00 0.0000000e+00 0.0000000e+00 
0.0000000e+00 0.0000000e+00 0.0000000e+00 
0.0000000e+00 0.0000000e+00 0.0000000e+00 
0.0000000e+00 0.0000000e+00 0.0000000e+00 
0.0000000e+00 0.0000000e+00 0.0000000e+00 
0.0000000e+00 0.0000000e+00 0.0000000e+00 
0.0000000e+00 0.0000000e+00 0.0000000e+00 
0.0000000e+00 0.0000000e+00 0.0000000e+00 
0.0000000e+00 0.0000000e+00 0.0000000e+00 
0.0000000e+00 0.0000000e+00 0.0000000e+00 
0.0000000e+00 0.0000000e+00 0.0000000e+00 
0.0000000e+00 0.0000000e+00 0.0000000e+00 
0.0000000e+00 0.0000000e+00 0.0000000e+00 
0.0000000e+00 0.0000000e+00 0.0000000e+00 
0.0000000e+00 0.0000000e+00 0.0000000e+00 
0.0000000e+00 0.0000000e+00 0.0000000e+00 
0.0000000e+00 0.0000000e+00 0.0000000e+00 
0.0000000e+00 0.0000000e+00 0.0000000e+00 
0.0000000e+00 0.0000000e+00 0.0000000e+00 
0.0000000e+00 0.0000000e+00 0.0000000e+00 
0.0000000e+00 0.0000000e+00 0.0000000e+00 
0.0000000e+00 0.0000000e+00 0.0000000e+00 
0.0000000e+00 0.0000000e+00 0.0000000e+00 
0.0000000e+00 0.0000000e+00 0.0000000e+00 
0.0000000e+00 0.0000000e+00 0.0000000e+00 
0.0000000e+00 0.0000000e+00 0.0000000e+00 
0.0000000e+00 0.0000000e+00 0.0000000e+00 
0.0000000e+00 0.0000000e+00 0.0000000e+00 
0.0000000e+00 0.0000000e+00 0.0000000e+00 
0.0000000e+00 0.0000000e+00 0.0000000e+00 
0.0000000e+00 0.0000000e+00 0.0000000e+00 
0.0000000e+00 8.2732970e-03 0.0000000e+00 
0.0000000e+00 -1.7460087e-02 0.0000000e+00 
0.0000000e+00 2.7796289e-02 0.0000000e+00 
0.0000000e+00 1.4359755e-03 0.0000000e+00 
0.0000000e+00 4.8890192e-04 0.0000000e+00 
0.0000000e+00 -2.3076573e-02 0.0000000e+00 
0.0000000e+00 -5.4996163e-02 0.0000000e+00 
0.0000000e+00 2.3356955e-02 0.0000000e+00 
0.0000000e+00 1.0154176e-02 0.0000000e+00 
0.0000000e+00 -7.3380824e-03 0.0000000e+00 
0.0000000e+00 3.0007192e-03 0.0000000e+00 
0.0000000e+00 1.4886764e-02 0.0000000e+00 
0.0000000e+00 -3.1403478e-03 0.0000000e+00 
0.0000000e+00 8.7368069e-03 0.0000000e+00 
0.0000000e+00 -2.5977587e-02 0.0000000e+00 
0.0000000e+00 -2.0473974e-02 0.0000000e+00 
0.0000000e+00 -5.2086655e-03 0.0000000e+00 
0.0000000e+00 3.8147578e-03 0.0000000e+00 
0.0000000e+00 3.8843858e-03 0.0000000e+00 
0.0000000e+00 -4.0771517e-01 0.0000000e+00 
0.0000000e+00 -3.1502286e-01 0.0000000e+00 
0.0000000e+00 -3.5898763e-01 0.0000000e+00 
0.0000000e+00 -3.1700742e-01 0.0000000e+00 
0.0000000e+00 -3.9859608e-01 0.0000000e+00 
0.0000000e+00 2.4981961e-01 0.0000000e+00 
0.0000000e+00 1.9155627e-01 0.0000000e+00 
0.0000000e+00 4.0854294e-02 0.0000000e+00 
0.0000000e+00 -1.0833377e-01 0.0000000e+00 
0.0000000e+00 -4.0291053e-01 0.0000000e+00 
0.0000000e+00 -3.2369044e-01 0.0000000e+00 
0.0000000e+00 -3.9905527e-01 0.0000000e+00 
0.0000000e+00 -2.5296670e-01 0.0000000e+00 
0.0000000e+00 -5.1860130e-01 0.0000000e+00 
0.0000000e+00 -2.4123667e-02 0.0000000e+00 
0.0000000e+00 3.0723467e-01 0.0000000e+00 
0.0000000e+00 8.9539267e-02 0.0000000e+00 
0.0000000e+00 -4.3176137e-02 0.0000000e+00 
0.0000000e+00 -9.8230168e-02 0.0000000e+00 
-1.7962649e-02 -3.3540416e-01 0.0000000e+00 
-7.6026134e-02 -7.4345392e-01 0.0000000e+00 
-4.4424489e-01 -1.0199339e+00 0.0000000e+00 
-8.7916774e-01 -3.8942552e-01 0.0000000e+00 
-4.7322154e-01 4.9858949e-01 0.0000000e+00 
1.4522586e-02 -7.1038568e-01 0.0000000e+00 
-1.8896390e-01 -9.0213394e-01 0.0000000e+00 
-7.0403332e-01 -8.5517687e-01 0.0000000e+00 
-7.6479429e-01 2.2062539e-01 0.0000000e+00 
-1.5803611e-01 3.8617909e-01 0.0000000e+00 
-1.0277552e-01 -7.6918721e-02 0.0000000e+00 
5.7843034e-03 9.5207721e-02 0.0000000e+00 
8.6439811e-02 -5.2202437e-02 0.0000000e+00 
1.3327032e-01 5.8011908e-02 0.0000000e+00 
-6.6074342e-02 -5.9687509e-03 0.0000000e+00 
-6.8839155e-02 5.3456957e-03 0.0000000e+00 
7.1093254e-02 1.0365219e-02 0.0000000e+00 
1.0407925e-01 4.5068555e-02 0.0000000e+00 
8.3972856e-02 -1.3872052e-03 0.0000000e+00 
1.2948892e-02 -1.4388284e-02 0.0000000e+00 
-1.4975003e-02 1.3133471e-02 0.0000000e+00 
1.1035002e-02 2.1176998e-02 0.0000000e+00 
2.7132179e-03 -2.2199689e-03 0.0000000e+00 
-1.6179303e-02 4.3004612e-03 0.0000000e+00 
-6.2294020e-03 1.1908031e-02 0.0000000e+00 
1.6950900e-02 -3.5888955e-03 0.0000000e+00 
-1.5121377e-02 -1.7970210e-02 0.0000000e+00 
1.5737377e-02 1.2987156e-02 0.0000000e+00 
2.1463973e-02 -4.9065840e-01 0.0000000e+00 
-8.6607933e-03 -4.0718845e-01 0.0000000e+00 
-8.1010640e-04 -3.7758452e-01 0.0000000e+00 
1.9482676e-02 -5.0679427e-01 0.0000000e+00 
8.8377111e-03 -4.2936391e-01 0.0000000e+00 
-1.4647540e-02 -3.8894811e-01 0.0000000e+00 
2.9677778e-04 -3.5886332e-01 0.0000000e+00 
-2.4145313e-01 4.2777073e-01 0.0000000e+00 
7.3843189e-02 -6.0469888e-02 0.0000000e+00 
-1.8516891e-01 -6.2945324e-01 0.0000000e+00 
3.6448319e-02 2.1133281e-01 0.0000000e+00 
8.9972988e-02 -1.0606606e-01 0.0000000e+00 
3.6759447e-02 1.7271100e-02 0.0000000e+00 
1.9377492e-01 9.5144734e-02 0.0000000e+00 
-1.7628556e-02 1.8840090e-03 0.0000000e+00 
8.5973358e-03 -5.5649930e-01 0.0000000e+00 
-2.8673795e-01 -8.4820241e-01 0.0000000e+00 
-1.7303590e-02 3.2090049e-02 0.0000000e+00 
5.1680841e-03 1.8199684e-02 0.0000000e+00 
-2.1201018e-02 -4.0897781e-01 0.0000000e+00 
3.6271501e-01 -1.0288942e-01 0.0000000e+00 
1.5763899e-02 -1.7616428e-02 0.0000000e+00 
4.2343121e-02 2.9292059e-01 0.0000000e+00 
6.9416557e-03 -6.9040945e-03 0.0000000e+00 
-2.7905833e-02 -4.1678151e-01 0.0000000e+00 
-9.6331192e-03 -1.6791556e-02 0.0000000e+00 
2.2684912e-01 8.5487897e-03 0.0000000e+00 
1.9288063e-02 3.5795430e-03 0.0000000e+00 
1.5060219e-02 -4.0332273e-01 0.0000000e+00 
-1.2333129e-01 -3.3775251e-02 0.0000000e+00 
-1.8902473e-02 4.4672801e-03 0.0000000e+00 
-6.9961399e-02 -4.8227561e-01 0.0000000e+00 
-1.1913211e-01 -6.0849506e-01 0.0000000e+00 
-1.9514285e-01 -8.2421947e-01 0.0000000e+00 
-1.3150036e-01 -6.5016466e-01 0.0000000e+00 
-2.0545428e-01 -8.6712265e-01 0.0000000e+00 
-2.2549516e-01 -7.4380636e-01 0.0000000e+00 
-8.4733650e-02 -7.4596560e-01 0.0000000e+00 
-1.9922878e-01 -7.9568517e-01 0.0000000e+00 
-1.1527841e-01 -4.1476181e-01 0.0000000e+00 
-1.0214779e-01 -7.1968335e-01 0.0000000e+00 
-2.9121062e-01 -7.1455193e-01 0.0000000e+00 
-1.8455821e-01 -6.8991321e-01 0.0000000e+00 
-1.3629450e-01 -5.5063194e-01 0.0000000e+00 
-1.0511150e-01 -6.6021377e-01 0.0000000e+00 
-2.5248182e-01 -7.6398659e-01 0.0000000e+00 
1.6417028e-02 -5.0883448e-01 0.0000000e+00 
-8.6551219e-02 -2.5623262e-01 0.0000000e+00 
1.2809159e-01 2.0528279e-01 0.0000000e+00 
1.5038766e-02 3.0948684e-01 0.0000000e+00 
1.3005792e-01 2.0906921e-01 0.0000000e+00 
2.1230011e-01 2.0178866e-01 0.0000000e+00 
1.1096168e-01 6.7258574e-02 0.0000000e+00 
7.1155585e-02 7.5048223e-02 0.0000000e+00 
1.5324165e-01 4.7029916e-02 0.0000000e+00 
1.0099550e-01 8.9724779e-02 0.0000000e+00 
1.7148100e-01 -6.0471557e-02 0.0000000e+00 
1.4955474e-01 -5.1002514e-02 0.0000000e+00 
1.7620730e-01 5.5146269e-03 0.0000000e+00 
1.4173023e-01 5.5349269e-03 0.0000000e+00 
5.2662741e-02 -2.8705636e-02 0.0000000e+00 
3.0567314e-02 -3.3154920e-02 0.0000000e+00 
-1.5637854e-02 1.0389875e-03 0.0000000e+00 
-1.4765939e-03 -3.4632210e-02 0.0000000e+00 
9.2084542e-02 -6.6101335e-02 0.0000000e+00 
1.9834922e-01 3.5320155e-02 0.0000000e+00 
1.7165029e-02 1.8518705e-02 0.0000000e+00 
1.9245312e-02 2.7731969e-03 0.0000000e+00 
1.4790903e-01 -4.0674407e-02 0.0000000e+00 
-3.6761882e-03 1.7456185e-02 0.0000000e+00 
2.2310184e-01 -7.3230624e-02 0.0000000e+00 
-1.2979349e-01 -4.4724602e-01 0.0000000e+00 
1.5197284e-02 1.3903089e-02 0.0000000e+00 
-1.4887689e-02 -1.7096940e-02 0.0000000e+00 
5.2588791e-02 6.9674619e-02 0.0000000e+00 
6.1212882e-02 -2.3113607e-01 0.0000000e+00 
4.2228678e-01 1.5261340e-01 0.0000000e+00 
-5.9005935e-02 -6.1129808e-01 0.0000000e+00 
1.0455096e-03 -1.0657886e-02 0.0000000e+00 
1.1442159e-02 3.9653756e-02 0.0000000e+00 
2.2277927e-03 1.7940806e-02 0.0000000e+00 
-8.8129915e-02 8.9227594e-02 0.0000000e+00 
-6.9207162e-02 -1.1246433e-01 0.0000000e+00 
-6.1816566e-02 2.8046426e-01 0.0000000e+00 
-8.4326282e-02 -5.3276086e-01 0.0000000e+00 
6.8598846e-03 -2.1622324e-02 0.0000000e+00 
-9.2075011e-03 -2.8775178e-03 0.0000000e+00 
7.8738743e-01 2.7662835e-01 0.0000000e+00 
1.1275625e-02 -1.1206999e-03 0.0000000e+00 
-1.1362620e-02 4.9192063e-03 0.0000000e+00 
-8.9599885e-02 -4.0553445e-01 0.0000000e+00 
-2.0667903e-02 -4.5413446e-01 0.0000000e+00 
-5.1718922e-03 -1.6295401e-02 0.0000000e+00 
-1.3147224e-03 1.5274826e-02 0.0000000e+00 
-2.7686325e-03 -2.9009871e-02 0.0000000e+00 
3.3109593e-01 7.7321745e-02 0.0000000e+00 
3.0685729e-01 -1.4546525e-02 0.0000000e+00 
-3.3883548e-03 1.1099973e-01 0.0000000e+00 
3.9831128e-02 2.5546411e-02 0.0000000e+00 
-4.4448379e-02 -4.1427663e-01 0.0000000e+00 
-6.2785812e-02 -4.1448376e-01 0.0000000e+00 
5.9587409e-04 -5.1827397e-04 0.0000000e+00 
-8.8734170e-03 -1.7325677e-02 0.0000000e+00 
-8.2466472e-03 1.8601770e-02 0.0000000e+00 
-9.6634263e-03 1.2772009e-01 0.0000000e+00 
-3.3228427e-01 -8.4060818e-02 0.0000000e+00 
-2.9958874e-01 -1.2281877e-01 0.0000000e+00 
1.3742708e-02 -2.0977883e-02 0.0000000e+00 
3.6955643e-02 1.4002855e-02 0.0000000e+00 
7.5092651e-02 1.3106011e-02 0.0000000e+00 
1.0012458e-01 1.7920867e-02 0.0000000e+00 
1.2898318e-01 4.8892852e-02 0.0000000e+00 
7.9834871e-02 -3.8977303e-02 0.0000000e+00 
-1.7191891e-01 3.3601075e-01 0.0000000e+00 
-1.7335126e-01 2.3003559e-01 0.0000000e+00 
2.8647454e-03 4.3008734e-02 0.0000000e+00 
1.2146126e-02 -1.7813152e-03 0.0000000e+00 
-2.1366030e-02 -4.1553139e-04 0.0000000e+00 
3.0006557e-03 -2.1741819e-02 0.0000000e+00 
2.0064445e-02 -2.8449766e-02 0.0000000e+00 
-1.9483648e-01 -8.7298667e-01 0.0000000e+00 
-4.6611503e-03 -1.4896540e-02 0.0000000e+00 
-7.4354713e-03 -1.0729969e-02 0.0000000e+00 
6.0540866e-02 4.9261969e-02 0.0000000e+00 
3.0865803e-02 1.1593577e-01 0.0000000e+00 
-1.3106355e-02 -5.8577200e-03 0.0000000e+00 
8.9546897e-02 -1.0639304e-02 0.0000000e+00 
4.8271117e-01 7.8347571e-02 0.0000000e+00 
2.6647246e-01 2.8987747e-02 0.0000000e+00 
2.4761392e-01 -2.6647191e-02 0.0000000e+00 
2.3637326e-01 -9.9317878e-02 0.0000000e+00 
-1.5422447e-01 1.4624508e-02 0.0000000e+00 
3.1912576e-03 2.0938462e-02 0.0000000e+00 
-2.2236772e-01 -1.0130898e+00 0.0000000e+00 
-3.5862559e-01 2.2150736e-01 0.0000000e+00 
-1.0873586e-02 -4.0652031e-01 0.0000000e+00 
-1.7726390e-01 -3.2686609e-01 0.0000000e+00 
-6.6554815e-02 2.7661026e-02 0.0000000e+00 
5.6713652e-02 1.1133965e-01 0.0000000e+00 
-2.4846347e-02 1.0647776e-02 0.0000000e+00 
-1.7516633e-02 -1.3168244e-02 0.0000000e+00 
9.2400983e-02 1.2271914e-01 0.0000000e+00 
-3.8661439e-02 1.1432562e-02 0.0000000e+00 
9.3518040e-04 9.7276606e-03 0.0000000e+00 
1.8979396e-01 -5.2908890e-02 0.0000000e+00 
2.2422475e-01 -1.0475589e-01 0.0000000e+00 
2.4031468e-01 -8.0478698e-02 0.0000000e+00 
2.3094223e-01 -1.0680345e-01 0.0000000e+00 
1.1187442e-01 -7.4802496e-02 0.0000000e+00 
2.3804793e-01 1.0587007e-01 0.0000000e+00 
-5.0201263e-02 8.1267906e-03 0.0000000e+00 
2.6566514e-01 2.2586243e-01 0.0000000e+00 
-9.3748001e-03 9.1017880e-02 0.0000000e+00 
3.2905862e-01 -2.1906707e-01 0.0000000e+00 
-9.7588294e-05 3.2388244e-02 0.0000000e+00 
-6.2880246e-03 -4.3486103e-02 0.0000000e+00 
4.4239922e-03 -2.3473487e-03 0.0000000e+00 
-2.3307893e-02 -3.5829771e-01 0.0000000e+00 
-3.6147512e-02 -4.1370220e-02 0.0000000e+00 
-4.8042912e-02 -4.8002356e-01 0.0000000e+00 
-6.0605843e-02 9.3874939e-02 0.0000000e+00 
-2.1913007e-01 -6.5959638e-01 0.0000000e+00 
-1.5942782e-01 -6.8660176e-01 0.0000000e+00 
-2.6018703e-01 -4.6206757e-01 0.0000000e+00 
2.1280155e-01 -5.9315413e-02 0.0000000e+00 
5.0320092e-04 1.4851390e-02 0.0000000e+00 
-7.4481559e-03 3.7122229e-03 0.0000000e+00 
-5.9003133e-02 1.1283582e-01 0.0000000e+00 
3.8741738e-02 2.0227803e-01 0.0000000e+00 
-7.7460888e-03 -2.5297038e-02 0.0000000e+00 
2.5906944e-01 4.7932841e-02 0.0000000e+00 
-1.0187391e-01 -4.7356421e-01 0.0000000e+00 
8.5973449e-02 -5.0334789e-02 0.0000000e+00 
-1.0451990e-01 -5.0431967e-01 0.0000000e+00 
6.6659316e-02 -1.0673606e-01 0.0000000e+00 
2.7610916e-01 1.4996120e-01 0.0000000e+00 
1.3276586e-01 -4.7601084e-03 0.0000000e+00 
1.1195270e-01 1.0479462e-02 0.0000000e+00 
-9.4086289e-02 -4.4053340e-01 0.0000000e+00 
-1.0566805e-01 -5.4236454e-01 0.0000000e+00 
-3.3409100e-02 -3.9652339e-01 0.0000000e+00 
-5.6765217e-02 -4.3264958e-01 0.0000000e+00 
1.7304133e-01 4.7892015e-03 0.0000000e+00 
2.3137683e-01 2.4849065e-02 0.0000000e+00 
3.9441336e-02 2.7523577e-02 0.0000000e+00 
2.9580665e-01 -1.4513677e-01 0.0000000e+00 
3.5032977e-03 8.3207376e-03 0.0000000e+00 
-3.5982456e-02 -3.8813546e-01 0.0000000e+00 
2.5843570e-02 -1.1919667e-01 0.0000000e+00 
-5.1473295e-03 -1.0813532e-03 0.0000000e+00 
-2.5221154e-01 -3.7008077e-02 0.0000000e+00 
4.3178056e-03 -2.0315284e-02 0.0000000e+00 
7.3442824e-02 1.5271831e-01 0.0000000e+00 
2.5869625e-02 1.4734016e-02 0.0000000e+00 
4.9863346e-02 -6.1634954e-02 0.0000000e+00 
5.9430695e-01 2.0716949e-01 0.0000000e+00 
-5.5065160e-03 2.5056355e-02 0.0000000e+00 
-1.6320726e-01 -9.6600942e-02 0.0000000e+00 
4.5096555e-01 8.6322203e-02 0.0000000e+00 
2.0419766e-01 1.8097049e-01 0.0000000e+00 
4.1284224e-01 -7.4194580e-02 0.0000000e+00 
2.4295197e-01 -1.3041714e-01 0.0000000e+00 
2.7326846e-01 -1.6952357e-01 0.0000000e+00 
1.1973814e-01 -1.1104409e-01 0.0000000e+00 
1.1516585e-02 2.4244286e-02 0.0000000e+00 
-1.7882122e-02 5.8240728e-03 0.0000000e+00 
1.1863457e-04 2.3738252e-02 0.0000000e+00 
2.8880507e-02 -2.8749576e-02 0.0000000e+00 
-1.8224057e-02 -5.7204873e-03 0.0000000e+00 
1.8153909e-01 3.0858451e-01 0.0000000e+00 
-5.9076570e-02 -6.7741178e-02 0.0000000e+00 
-3.5332553e-02 -4.5260891e-01 0.0000000e+00 
-1.7504631e-02 1.4963502e-02 0.0000000e+00 
-4.6220358e-02 -4.7058040e-01 0.0000000e+00 
3.4765482e-03 4.3806024e-03 0.0000000e+00 
-5.0870841e-03 -3.6602271e-01 0.0000000e+00 
3.1457525e-02 -1.0329426e-01 0.0000000e+00 
1.1675961e-02 -5.7235365e-03 0.0000000e+00 
7.0547988e-03 9.1092102e-03 0.0000000e+00 
-2.3626085e-01 -9.1529027e-02 0.0000000e+00 
-4.8689440e-02 -4.3127170e-01 0.0000000e+00 
-4.4316277e-02 -1.5035258e-01 0.0000000e+00 
-7.2662607e-02 -2.5172397e-01 0.0000000e+00 
-9.0246443e-03 -3.4074700e-01 0.0000000e+00 
-6.5457268e-04 -3.6241105e-01 0.0000000e+00 
-1.1171462e-02 -3.6625850e-01 0.0000000e+00 
-3.6337782e-02 -4.0770644e-01 0.0000000e+00 
-2.4262974e-02 -4.3411803e-01 0.0000000e+00 
6.5342891e-03 -5.0374358e-03 0.0000000e+00 
4.1863490e-03 1.0984925e-02 0.0000000e+00 
4.1808700e-03 1.6815200e-02 0.0000000e+00 
-2.0732128e-03 2.0773539e-01 0.0000000e+00 
-5.8934052e-02 1.1773048e-01 0.0000000e+00 
3.2551091e-02 2.3443340e-01 0.0000000e+00 
-8.7531237e-03 -3.2867438e-03 0.0000000e+00 
-1.1916213e-03 4.0755407e-03 0.0000000e+00 
-5.7687648e-03 7.4224302e-04 0.0000000e+00 
-6.2834402e-04 1.4996283e-03 0.0000000e+00 
1.5684849e-03 4.3125669e-03 0.0000000e+00 
6.7003407e-03 4.4228709e-03 0.0000000e+00 
-3.1636119e-02 -1.3760486e-01 0.0000000e+00 
5.2082472e-02 1.0288985e-01 0.0000000e+00 
-1.5263754e-01 3.0184578e-02 0.0000000e+00 
-1.3752589e-01 4.2969409e-02 0.0000000e+00 
5.9359600e-03 -4.5747678e-03 0.0000000e+00 
-1.5410282e-02 4.5988368e-04 0.0000000e+00 
-6.2150676e-02 -5.3676057e-01 0.0000000e+00 
-7.7695340e-02 -5.5812275e-01 0.0000000e+00 
4.2925924e-03 -5.7926332e-03 0.0000000e+00 
7.3789502e-03 -2.9287646e-03 0.0000000e+00 
-4.4320724e-03 -8.4422994e-03 0.0000000e+00 
-4.7313068e-03 -4.8367358e-03 0.0000000e+00 
6.3198116e-03 -2.6310608e-02 0.0000000e+00 
-5.8983493e-04 2.9949812e-02 0.0000000e+00 
-4.5412639e-03 -9.5531503e-03 0.0000000e+00 
-3.0986997e-03 7.9977233e-03 0.0000000e+00 
4.1308086e-03 -2.0143647e-02 0.0000000e+00 
8.1659354e-02 2.1613334e-01 0.0000000e+00 
6.8785459e-02 2.6570725e-01 0.0000000e+00 
-2.4248464e-03 -3.4791224e-03 0.0000000e+00 
-4.4723679e-03 1.3562209e-03 0.0000000e+00 
-2.3754142e-02 -3.9806339e-01 0.0000000e+00 
-1.0848981e-02 -3.8484746e-01 0.0000000e+00 
-3.6219012e-02 -4.3691954e-01 0.0000000e+00 
-2.1644183e-02 -3.9074376e-01 0.0000000e+00 
-6.6930247e-03 -3.4230131e-01 0.0000000e+00 
-9.0185308e-04 6.0581341e-03 0.0000000e+00 
-9.7048134e-03 -1.0645596e-02 0.0000000e+00 
-1.8920389e-01 -1.0182389e-01 0.0000000e+00 
-1.9690067e-01 -4.3398406e-02 0.0000000e+00 
-8.2660452e-02 -9.0440489e-02 0.0000000e+00 
-2.8586179e-01 -4.4677522e-02 0.0000000e+00 
-1.2563385e-01 6.1962739e-02 0.0000000e+00 
3.3698377e-04 3.5987077e-03 0.0000000e+00 
-1.5352195e-03 -6.0487483e-03 0.0000000e+00 
-7.7067420e-02 -5.3786252e-02 0.0000000e+00 
5.5818368e-02 1.6894221e-02 0.0000000e+00 
1.3327600e-01 5.4708425e-02 0.0000000e+00 
1.2887195e-01 -1.3742828e-01 0.0000000e+00 
2.6259354e-01 7.7682063e-02 0.0000000e+00 
3.3719710e-01 -4.2509027e-02 0.0000000e+00 
-3.7327288e-03 1.5597244e-02 0.0000000e+00 
4.8925709e-03 2.7680832e-03 0.0000000e+00 
1.6357033e-02 -1.1824433e-02 0.0000000e+00 
9.9704938e-04 6.4906948e-03 0.0000000e+00 
6.4748884e-03 -5.1631858e-03 0.0000000e+00 
-4.3456824e-04 -2.7792112e-03 0.0000000e+00 
-1.7346806e-03 -4.5283544e-03 0.0000000e+00 
-7.4544796e-03 -3.2884961e-01 0.0000000e+00 
-4.3141630e-02 -4.0167254e-01 0.0000000e+00 
1.0605191e-02 9.8096766e-03 0.0000000e+00 
-1.9531453e-02 -4.3469560e-01 0.0000000e+00 
-1.0447130e-01 -8.7372869e-02 0.0000000e+00 
-2.8711545e-01 -7.9476908e-02 0.0000000e+00 
3.1285020e-04 1.3151695e-02 0.0000000e+00 
-8.8835362e-04 1.4789932e-02 0.0000000e+00 
-9.5322756e-03 8.1802877e-03 0.0000000e+00 
-1.5853301e-02 -5.9385141e-03 0.0000000e+00 
-2.6886335e-03 -1.8634526e-04 0.0000000e+00 
1.3447466e-01 1.2437147e-01 0.0000000e+00 
3.7899452e-01 2.6404628e-01 0.0000000e+00 
-2.8112823e-01 -1.4155504e-01 0.0000000e+00 
-1.8120779e-01 -1.2423410e-01 0.0000000e+00 
-1.6410355e-03 -2.4744464e-04 0.0000000e+00 
-1.6677444e-03 3.7263455e-03 0.0000000e+00 
1.9900426e-03 7.0221527e-03 0.0000000e+00 
-3.2539128e-03 -1.1654544e-02 0.0000000e+00 
7.2277151e-04 -8.9295786e-03 0.0000000e+00 
1.8134056e-02 2.8584369e-02 0.0000000e+00 
2.8980548e-02 6.8665086e-03 0.0000000e+00 
5.0948132e-02 -2.9107414e-02 0.0000000e+00 
6.6184293e-04 -1.0541699e-04 0.0000000e+00 
7.9627713e-04 8.7937322e-03 0.0000000e+00 
-1.2653815e-03 -1.5655266e-02 0.0000000e+00 
6.9932207e-02 -1.1815812e-02 0.0000000e+00 
6.1173238e-02 -2.4766436e-02 0.0000000e+00 
4.9999643e-02 4.5240618e-02 0.0000000e+00 
4.5707479e-02 1.0509219e-01 0.0000000e+00 
5.0394323e-02 5.6610882e-02 0.0000000e+00 
-2.4821789e-03 5.2895807e-02 0.0000000e+00 
1.7924439e-03 7.2601549e-02 0.0000000e+00 
1.1890259e-01 2.5910444e-03 0.0000000e+00 
1.2551868e-01 6.6024609e-02 0.0000000e+00 
-8.3005498e-04 6.0750209e-03 0.0000000e+00 
1.6351292e-03 1.2876826e-02 0.0000000e+00 
-1.6731457e-01 1.1945266e-01 0.0000000e+00 
-1.9417126e-01 1.5857336e-01 0.0000000e+00 
-2.1936432e-01 2.8395301e-01 0.0000000e+00 
5.1803314e-03 -1.1830975e-02 0.0000000e+00 
-4.7809839e-02 6.0261574e-02 0.0000000e+00 
1.0815048e-04 7.1977764e-02 0.0000000e+00 
-2.0554025e-01 3.2601124e-01 0.0000000e+00 
-2.2870184e-01 4.3658453e-01 0.0000000e+00 
-3.2143617e-01 4.9128705e-01 0.0000000e+00 
-2.3962377e-01 3.0971280e-01 0.0000000e+00 
9.9212006e-02 3.2571636e-02 0.0000000e+00 
1.0515252e-01 4.5106966e-02 0.0000000e+00 
1.0569473e-01 -3.3527836e-03 0.0000000e+00 
5.8929585e-02 4.1609965e-02 0.0000000e+00 
6.1576981e-02 -1.1609666e-02 0.0000000e+00 
9.5285296e-02 4.2052185e-03 0.0000000e+00 