# vtk DataFile Version 4.0
vtk output
ASCII
DATASET UNSTRUCTURED_GRID
POINTS 1029 float
0.0000000e+00 0.0000000e+00 0.0000000e+00 
2.0000000e+01 0.0000000e+00 0.0000000e+00 
2.0000000e+01 1.0000000e+01 0.0000000e+00 
0.0000000e+00 1.0000000e+01 0.0000000e+00 
1.0000000e+00 1.0000000e+01 0.0000000e+00 
5.0000000e+00 1.0000000e+01 0.0000000e+00 
1.0000000e+01 1.0000000e+01 0.0000000e+00 
1.5000000e+01 1.0000000e+01 0.0000000e+00 
1.0000000e+00 0.0000000e+00 0.0000000e+00 
2.0000000e+00 0.0000000e+00 0.0000000e+00 
3.0000000e+00 0.0000000e+00 0.0000000e+00 
4.0000000e+00 0.0000000e+00 0.0000000e+00 
5.0000000e+00 0.0000000e+00 0.0000000e+00 
6.0000000e+00 0.0000000e+00 0.0000000e+00 
7.0000000e+00 0.0000000e+00 0.0000000e+00 
8.0000000e+00 0.0000000e+00 0.0000000e+00 
9.0000000e+00 0.0000000e+00 0.0000000e+00 
1.0000000e+01 0.0000000e+00 0.0000000e+00 
1.1000000e+01 0.0000000e+00 0.0000000e+00 
1.2000000e+01 0.0000000e+00 0.0000000e+00 
1.3000000e+01 0.0000000e+00 0.0000000e+00 
1.4000000e+01 0.0000000e+00 0.0000000e+00 
1.5000000e+01 0.0000000e+00 0.0000000e+00 
1.6000000e+01 0.0000000e+00 0.0000000e+00 
1.7000000e+01 0.0000000e+00 0.0000000e+00 
1.8000000e+01 0.0000000e+00 0.0000000e+00 
1.9000000e+01 0.0000000e+00 0.0000000e+00 
5.0000000e-01 0.0000000e+00 0.0000000e+00 
1.5000000e+00 0.0000000e+00 0.0000000e+00 
2.5000000e+00 0.0000000e+00 0.0000000e+00 
3.5000000e+00 0.0000000e+00 0.0000000e+00 
4.5000000e+00 0.0000000e+00 0.0000000e+00 
5.5000000e+00 0.0000000e+00 0.0000000e+00 
6.5000000e+00 0.0000000e+00 0.0000000e+00 
7.5000000e+00 0.0000000e+00 0.0000000e+00 
8.5000000e+00 0.0000000e+00 0.0000000e+00 
9.5000000e+00 0.0000000e+00 0.0000000e+00 
1.0500000e+01 0.0000000e+00 0.0000000e+00 
1.1500000e+01 0.0000000e+00 0.0000000e+00 
1.2500000e+01 0.0000000e+00 0.0000000e+00 
1.3500000e+01 0.0000000e+00 0.0000000e+00 
1.4500000e+01 0.0000000e+00 0.0000000e+00 
1.5500000e+01 0.0000000e+00 0.0000000e+00 
1.6500000e+01 0.0000000e+00 0.0000000e+00 
1.7500000e+01 0.0000000e+00 0.0000000e+00 
1.8500000e+01 0.0000000e+00 0.0000000e+00 
1.9500000e+01 0.0000000e+00 0.0000000e+00 
2.0000000e+01 1.0000000e+00 0.0000000e+00 
2.0000000e+01 2.0000000e+00 0.0000000e+00 
2.0000000e+01 3.0000000e+00 0.0000000e+00 
2.0000000e+01 4.0000000e+00 0.0000000e+00 
2.0000000e+01 5.0000000e+00 0.0000000e+00 
2.0000000e+01 6.0000000e+00 0.0000000e+00 
2.0000000e+01 7.0000000e+00 0.0000000e+00 
2.0000000e+01 8.0000000e+00 0.0000000e+00 
2.0000000e+01 9.0000000e+00 0.0000000e+00 
2.0000000e+01 5.0000000e-01 0.0000000e+00 
2.0000000e+01 1.5000000e+00 0.0000000e+00 
2.0000000e+01 2.5000000e+00 0.0000000e+00 
2.0000000e+01 3.5000000e+00 0.0000000e+00 
2.0000000e+01 4.5000000e+00 0.0000000e+00 
2.0000000e+01 5.5000000e+00 0.0000000e+00 
2.0000000e+01 6.5000000e+00 0.0000000e+00 
2.0000000e+01 7.5000000e+00 0.0000000e+00 
2.0000000e+01 8.5000000e+00 0.0000000e+00 
2.0000000e+01 9.5000000e+00 0.0000000e+00 
0.0000000e+00 9.0000000e+00 0.0000000e+00 
0.0000000e+00 8.0000000e+00 0.0000000e+00 
0.0000000e+00 7.0000000e+00 0.0000000e+00 
0.0000000e+00 6.0000000e+00 0.0000000e+00 
0.0000000e+00 5.0000000e+00 0.0000000e+00 
0.0000000e+00 4.0000000e+00 0.0000000e+00 
0.0000000e+00 3.0000000e+00 0.0000000e+00 
0.0000000e+00 2.0000000e+00 0.0000000e+00 
0.0000000e+00 1.0000000e+00 0.0000000e+00 
0.0000000e+00 9.5000000e+00 0.0000000e+00 
0.0000000e+00 8.5000000e+00 0.0000000e+00 
0.0000000e+00 7.5000000e+00 0.0000000e+00 
0.0000000e+00 6.5000000e+00 0.0000000e+00 
0.0000000e+00 5.5000000e+00 0.0000000e+00 
0.0000000e+00 4.5000000e+00 0.0000000e+00 
0.0000000e+00 3.5000000e+00 0.0000000e+00 
0.0000000e+00 2.5000000e+00 0.0000000e+00 
0.0000000e+00 1.5000000e+00 0.0000000e+00 
0.0000000e+00 5.0000000e-01 0.0000000e+00 
5.0000000e-01 1.0000000e+01 0.0000000e+00 
6.0000000e+00 1.0000000e+01 0.0000000e+00 
7.0000000e+00 1.0000000e+01 0.0000000e+00 
8.0000000e+00 1.0000000e+01 0.0000000e+00 
9.0000000e+00 1.0000000e+01 0.0000000e+00 
5.5000000e+00 1.0000000e+01 0.0000000e+00 
6.5000000e+00 1.0000000e+01 0.0000000e+00 
7.5000000e+00 1.0000000e+01 0.0000000e+00 
8.5000000e+00 1.0000000e+01 0.0000000e+00 
9.5000000e+00 1.0000000e+01 0.0000000e+00 
1.1000000e+01 1.0000000e+01 0.0000000e+00 
1.2000000e+01 1.0000000e+01 0.0000000e+00 
1.3000000e+01 1.0000000e+01 0.0000000e+00 
1.4000000e+01 1.0000000e+01 0.0000000e+00 
1.0500000e+01 1.0000000e+01 0.0000000e+00 
1.1500000e+01 1.0000000e+01 0.0000000e+00 
1.2500000e+01 1.0000000e+01 0.0000000e+00 
1.3500000e+01 1.0000000e+01 0.0000000e+00 
1.4500000e+01 1.0000000e+01 0.0000000e+00 
1.9000000e+01 1.0000000e+01 0.0000000e+00 
1.8000000e+01 1.0000000e+01 0.0000000e+00 
1.7000000e+01 1.0000000e+01 0.0000000e+00 
1.6000000e+01 1.0000000e+01 0.0000000e+00 
1.9500000e+01 1.0000000e+01 0.0000000e+00 
1.8500000e+01 1.0000000e+01 0.0000000e+00 
1.7500000e+01 1.0000000e+01 0.0000000e+00 
1.6500000e+01 1.0000000e+01 0.0000000e+00 
1.5500000e+01 1.0000000e+01 0.0000000e+00 
4.0000000e+00 1.0000000e+01 0.0000000e+00 
3.0000000e+00 1.0000000e+01 0.0000000e+00 
2.0000000e+00 1.0000000e+01 0.0000000e+00 
4.5000000e+00 1.0000000e+01 0.0000000e+00 
3.5000000e+00 1.0000000e+01 0.0000000e+00 
2.5000000e+00 1.0000000e+01 0.0000000e+00 
1.5000000e+00 1.0000000e+01 0.0000000e+00 
9.5000000e+00 9.1339750e+00 0.0000000e+00 
1.4500000e+01 9.1339750e+00 0.0000000e+00 
5.5000000e+00 9.1339750e+00 0.0000000e+00 
7.5000000e+00 8.6602539e-01 0.0000000e+00 
1.1500000e+01 8.6602539e-01 0.0000000e+00 
1.4500000e+01 8.6602539e-01 0.0000000e+00 
4.5246964e+00 8.5176694e-01 0.0000000e+00 
1.9059727e+01 4.6363034e+00 0.0000000e+00 
8.4778279e-01 5.4684029e+00 0.0000000e+00 
7.5000000e+00 9.1339750e+00 0.0000000e+00 
1.1500000e+01 9.1339750e+00 0.0000000e+00 
1.6500000e+01 9.1339750e+00 0.0000000e+00 
3.5000000e+00 9.1339750e+00 0.0000000e+00 
9.5000000e+00 8.6602539e-01 0.0000000e+00 
1.6500000e+01 8.6602539e-01 0.0000000e+00 
8.6602539e-01 3.5000000e+00 0.0000000e+00 
1.9111458e+01 6.5092020e+00 0.0000000e+00 
8.9629614e-01 7.5867257e+00 0.0000000e+00 
1.9112749e+01 2.5204153e+00 0.0000000e+00 
2.5402119e+00 7.9592258e-01 0.0000000e+00 
1.9094303e+01 8.4081745e+00 0.0000000e+00 
1.5042374e+00 9.1532278e+00 0.0000000e+00 
8.2949740e-01 1.5059323e+00 0.0000000e+00 
1.8445559e+01 9.5495284e-01 0.0000000e+00 
4.5000000e+00 9.1339750e+00 0.0000000e+00 
5.0000000e+00 8.2679491e+00 0.0000000e+00 
6.0000000e+00 8.2679491e+00 0.0000000e+00 
5.5000000e+00 7.4019237e+00 0.0000000e+00 
6.5000000e+00 7.4019237e+00 0.0000000e+00 
6.0000000e+00 6.5358982e+00 0.0000000e+00 
7.0000000e+00 6.5358982e+00 0.0000000e+00 
6.5000000e+00 5.6698728e+00 0.0000000e+00 
7.5000000e+00 5.6698728e+00 0.0000000e+00 
5.5000000e+00 5.6698728e+00 0.0000000e+00 
6.0000000e+00 4.8038478e+00 0.0000000e+00 
5.0000000e+00 4.8038478e+00 0.0000000e+00 
4.5000000e+00 5.6698728e+00 0.0000000e+00 
4.0000000e+00 4.8038478e+00 0.0000000e+00 
5.5000000e+00 3.9378221e+00 0.0000000e+00 
6.5000000e+00 3.9378221e+00 0.0000000e+00 
8.0000000e+00 6.5358982e+00 0.0000000e+00 
8.5000000e+00 5.6698728e+00 0.0000000e+00 
9.0000000e+00 6.5358982e+00 0.0000000e+00 
9.5000000e+00 5.6698728e+00 0.0000000e+00 
9.0000000e+00 4.8038478e+00 0.0000000e+00 
1.0000000e+01 4.8038478e+00 0.0000000e+00 
1.0500000e+01 5.6698728e+00 0.0000000e+00 
1.1000000e+01 4.8038478e+00 0.0000000e+00 
1.1500000e+01 5.6698728e+00 0.0000000e+00 
1.2000000e+01 4.8038478e+00 0.0000000e+00 
1.2500000e+01 5.6698728e+00 0.0000000e+00 
1.3000000e+01 4.8038478e+00 0.0000000e+00 
1.3500000e+01 5.6698728e+00 0.0000000e+00 
1.4000000e+01 4.8038478e+00 0.0000000e+00 
1.4500000e+01 5.6698728e+00 0.0000000e+00 
1.5000000e+01 4.8038478e+00 0.0000000e+00 
1.5500000e+01 5.6698728e+00 0.0000000e+00 
1.3500000e+01 3.9378221e+00 0.0000000e+00 
1.0500000e+01 3.9378221e+00 0.0000000e+00 
1.6000000e+01 4.8038478e+00 0.0000000e+00 
1.5500000e+01 3.9378221e+00 0.0000000e+00 
1.3000000e+01 6.5358982e+00 0.0000000e+00 
1.6500000e+01 3.9378221e+00 0.0000000e+00 
6.0246964e+00 3.0860553e+00 0.0000000e+00 
3.5000000e+00 5.6698728e+00 0.0000000e+00 
1.6500000e+01 5.6698728e+00 0.0000000e+00 
1.6000000e+01 6.5358982e+00 0.0000000e+00 
1.1000000e+01 6.5358982e+00 0.0000000e+00 
5.0288124e+00 3.1213744e+00 0.0000000e+00 
7.0041161e+00 3.0741732e+00 0.0000000e+00 
2.9553418e+00 4.8365397e+00 0.0000000e+00 
1.6000000e+01 3.0717967e+00 0.0000000e+00 
1.7000000e+01 6.5358982e+00 0.0000000e+00 
1.7000000e+01 3.0717967e+00 0.0000000e+00 
8.5000000e+00 7.4019237e+00 0.0000000e+00 
3.4925570e+00 3.9432709e+00 0.0000000e+00 
9.5000000e+00 7.4019237e+00 0.0000000e+00 
4.5000000e+00 7.4019237e+00 0.0000000e+00 
1.5000000e+01 3.0717967e+00 0.0000000e+00 
1.7507488e+01 5.6669536e+00 0.0000000e+00 
6.5107503e+00 2.2357147e+00 0.0000000e+00 
1.5500000e+01 2.2057714e+00 0.0000000e+00 
1.7482849e+01 3.9478383e+00 0.0000000e+00 
2.4838426e+00 5.7012835e+00 0.0000000e+00 
2.9973071e+00 6.5411334e+00 0.0000000e+00 
1.6500000e+01 7.4019237e+00 0.0000000e+00 
1.5500000e+01 7.4019237e+00 0.0000000e+00 
1.7500000e+01 7.4019237e+00 0.0000000e+00 
7.5006862e+00 3.9382184e+00 0.0000000e+00 
8.0008001e+00 3.0722589e+00 0.0000000e+00 
2.4646075e+00 3.9872341e+00 0.0000000e+00 
3.0000000e+00 3.0717967e+00 0.0000000e+00 
2.0000000e+00 6.5358982e+00 0.0000000e+00 
2.5285575e+00 7.3860493e+00 0.0000000e+00 
1.4500000e+01 2.2057714e+00 0.0000000e+00 
1.8143080e+01 3.0350568e+00 0.0000000e+00 
1.7489780e+01 2.2149704e+00 0.0000000e+00 
1.8901860e+00 3.0475340e+00 0.0000000e+00 
2.5122623e+00 2.2156274e+00 0.0000000e+00 
3.5267401e+00 2.3241744e+00 0.0000000e+00 
1.6000000e+01 8.2679491e+00 0.0000000e+00 
1.5000000e+01 8.2679491e+00 0.0000000e+00 
1.4500000e+01 7.4019237e+00 0.0000000e+00 
1.4000000e+01 8.2679491e+00 0.0000000e+00 
1.3500000e+01 9.1339750e+00 0.0000000e+00 
1.3000000e+01 8.2679491e+00 0.0000000e+00 
9.0000000e+00 8.2679491e+00 0.0000000e+00 
1.0000000e+01 8.2679491e+00 0.0000000e+00 
1.8026423e+01 6.5280433e+00 0.0000000e+00 
1.8507418e+01 7.4261799e+00 0.0000000e+00 
[...]
POINT_DATA 1029
FIELD FieldData 1
VELOCITY 3 1029  float
0.0000000e+00 0.0000000e+00 0.0000000e+00 
0.0000000e+00 0.0000000e+00 0.0000000e+00 
0.0000000e+00 9.0455160e-02 0.0000000e+00 
0.0000000e+00 7.2509629e-01 0.0000000e+00 
1.4859203e-01 7.1034467e-01 0.0000000e+00 
4.9923024e-01 3.2452264e-01 0.0000000e+00 
4.2620569e-01 -1.3135143e-01 0.0000000e+00 
-1.9570546e-01 8.1871146e-01 0.0000000e+00 
0.0000000e+00 0.0000000e+00 0.0000000e+00 
0.0000000e+00 0.0000000e+00 0.0000000e+00 
0.0000000e+00 0.0000000e+00 0.0000000e+00 
0.0000000e+00 0.0000000e+00 0.0000000e+00 
0.0000000e+00 0.0000000e+00 0.0000000e+00 
0.0000000e+00 0.0000000e+00 0.0000000e+00 
0.0000000e+00 0.0000000e+00 0.0000000e+00 
0.0000000e+00 0.0000000e+00 0.0000000e+00 
0.0000000e+00 0.0000000e+00 0.0000000e+00 
0.0000000e+00 0.0000000e+00 0.0000000e+00 
0.0000000e+00 0.0000000e+00 0.0000000e+00 
0.0000000e+00 0.0000000e+00 0.0000000e+00 
0.0000000e+00 0.0000000e+00 0.0000000e+00 
0.0000000e+00 0.0000000e+00 0.0000000e+00 
0.0000000e+00 0.0000000e+00 0.0000000e+00 
0.0000000e+00 0.0000000e+00 0.0000000e+00 
0.0000000e+00 0.0000000e+00 0.0000000e+00 
0.0000000e+00 0.0000000e+00 0.0000000e+00 
0.0000000e+00 0.0000000e+00 0.0000000e+00 
0.0000000e+00 0.0000000e+00 0.0000000e+00 
0.0000000e+00 0.0000000e+00 0.0000000e+00 
0.0000000e+00 0.0000000e+00 0.0000000e+00 
0.0000000e+00 0.0000000e+00 0.0000000e+00 
0.0000000e+00 0.0000000e+00 0.0000000e+00 
0.0000000e+00 0.0000000e+00 0.0000000e+00 
0.0000000e+00 0.0000000e+00 0.0000000e+00 
0.0000000e+00 0.0000000e+00 0.0000000e+00 
0.0000000e+00 0.0000000e+00 0.0000000e+00 
0.0000000e+00 0.0000000e+00 0.0000000e+00 
0.0000000e+00 0.0000000e+00 0.0000000e+00 
0.0000000e+00 0.0000000e+00 0.0000000e+00 
0.0000000e+00 0.0000000e+00 0.0000000e+00 
0.0000000e+00 0.0000000e+00 0.0000000e+00 
0.0000000e+00 0.0000000e+00 0.0000000e+00 
0.0000000e+00 0.0000000e+00 0.0000000e+00 
0.0000000e+00 0.0000000e+00 0.0000000e+00 
0.0000000e+00 0.0000000e+00 0.0000000e+00 
0.0000000e+00 0.0000000e+00 0.0000000e+00 
0.0000000e+00 0.0000000e+00 0.0000000e+00 
0.0000000e+00 6.7018740e-02 0.0000000e+00 
0.0000000e+00 7.8970790e-02 0.0000000e+00 
0.0000000e+00 7.1035801e-03 0.0000000e+00 
0.0000000e+00 8.5828193e-02 0.0000000e+00 
0.0000000e+00 8.2752511e-02 0.0000000e+00 
0.0000000e+00 9.6930236e-02 0.0000000e+00 
0.0000000e+00 6.8019770e-02 0.0000000e+00 
0.0000000e+00 5.7675205e-02 0.0000000e+00 
0.0000000e+00 6.7174166e-02 0.0000000e+00 
0.0000000e+00 1.0360099e-02 0.0000000e+00 
0.0000000e+00 1.1792476e-01 0.0000000e+00 
0.0000000e+00 7.2638947e-03 0.0000000e+00 
0.0000000e+00 5.6700129e-02 0.0000000e+00 
0.0000000e+00 8.0664501e-02 0.0000000e+00 
0.0000000e+00 9.1853909e-02 0.0000000e+00 
0.0000000e+00 8.6982638e-02 0.0000000e+00 
0.0000000e+00 6.7531168e-02 0.0000000e+00 
0.0000000e+00 5.5441111e-02 0.0000000e+00 
0.0000000e+00 7.7212341e-02 0.0000000e+00 
0.0000000e+00 7.4088013e-01 0.0000000e+00 
0.0000000e+00 6.9641048e-01 0.0000000e+00 
0.0000000e+00 6.7978668e-01 0.0000000e+00 
0.0000000e+00 6.5479636e-01 0.0000000e+00 
0.0000000e+00 2.5739691e-01 0.0000000e+00 
0.0000000e+00 1.0124913e-03 0.0000000e+00 
0.0000000e+00 8.7740555e-02 0.0000000e+00 
0.0000000e+00 7.7628642e-03 0.0000000e+00 
0.0000000e+00 2.8757371e-02 0.0000000e+00 
0.0000000e+00 7.4992907e-01 0.0000000e+00 
0.0000000e+00 7.0507663e-01 0.0000000e+00 
0.0000000e+00 7.0600659e-01 0.0000000e+00 
0.0000000e+00 6.6655684e-01 0.0000000e+00 
0.0000000e+00 5.1262045e-01 0.0000000e+00 
0.0000000e+00 5.5819366e-02 0.0000000e+00 
0.0000000e+00 4.5006476e-02 0.0000000e+00 
0.0000000e+00 5.2636120e-02 0.0000000e+00 
0.0000000e+00 3.8740665e-03 0.0000000e+00 
0.0000000e+00 3.1114019e-02 0.0000000e+00 
6.0186710e-02 7.3494309e-01 0.0000000e+00 
5.0475204e-01 2.5451532e-01 0.0000000e+00 
4.2013958e-01 2.0821507e-01 0.0000000e+00 
3.3611375e-01 1.7934211e-01 0.0000000e+00 
3.5412529e-01 6.1222937e-02 0.0000000e+00 
5.1244015e-01 2.8747571e-01 0.0000000e+00 
4.6657366e-01 2.1997322e-01 0.0000000e+00 
3.7360531e-01 2.0078066e-01 0.0000000e+00 
3.4116802e-01 1.0979072e-01 0.0000000e+00 
4.0225220e-01 -5.4568127e-02 0.0000000e+00 
4.2015406e-01 -3.0357814e-01 0.0000000e+00 
2.6461774e-01 -4.1995481e-01 0.0000000e+00 
-1.9073386e-01 -4.4786331e-01 0.0000000e+00 
-5.7036030e-01 2.4915446e-01 0.0000000e+00 
4.2899784e-01 -1.8937451e-01 0.0000000e+00 
3.6877713e-01 -3.3427957e-01 0.0000000e+00 
6.5185048e-02 -5.0606155e-01 0.0000000e+00 
-4.4188285e-01 -1.7550199e-01 0.0000000e+00 
-4.4946903e-01 6.5476018e-01 0.0000000e+00 
-4.0885821e-02 -6.9220871e-02 0.0000000e+00 
-6.5469995e-02 1.4558117e-01 0.0000000e+00 
-1.9479679e-01 -6.1464630e-02 0.0000000e+00 
-4.4310160e-02 1.3122806e-01 0.0000000e+00 
-5.9043646e-02 -6.5422161e-03 0.0000000e+00 
-1.0047647e-02 2.3717472e-02 0.0000000e+00 
-1.7781119e-01 5.8980107e-02 0.0000000e+00 
-1.2521428e-01 4.9679913e-03 0.0000000e+00 
-3.7659612e-02 4.9620399e-01 0.0000000e+00 
4.5158914e-01 4.7986484e-01 0.0000000e+00 
3.8836530e-01 5.6822926e-01 0.0000000e+00 
2.8020492e-01 6.6309255e-01 0.0000000e+00 
4.7566018e-01 4.0495837e-01 0.0000000e+00 
4.2283013e-01 5.3209174e-01 0.0000000e+00 
3.3922935e-01 6.1926717e-01 0.0000000e+00 
2.1755354e-01 6.8365425e-01 0.0000000e+00 
3.8366944e-01 -3.2190345e-02 0.0000000e+00 
-1.9062436e-01 5.9369969e-01 0.0000000e+00 
3.5485247e-01 3.5513303e-01 0.0000000e+00 
-3.5929298e-03 1.8240318e-02 0.0000000e+00 
-1.9820200e-02 -2.5635377e-01 0.0000000e+00 
-4.4000778e-02 7.2596900e-02 0.0000000e+00 
4.4554640e-03 9.6358772e-04 0.0000000e+00 
-2.1825137e-02 6.9948837e-02 0.0000000e+00 
-4.2861082e-02 4.8370513e-01 0.0000000e+00 
4.7525093e-01 1.0864323e-01 0.0000000e+00 
1.1965860e-01 -3.2075226e-01 0.0000000e+00 
-1.7158389e-01 5.6896802e-02 0.0000000e+00 
2.3771986e-01 5.7061118e-01 0.0000000e+00 
-3.1599864e-02 7.8886405e-02 0.0000000e+00 
-1.0524131e-01 5.3221751e-03 0.0000000e+00 
1.2368867e-03 3.3595048e-02 0.0000000e+00 
-2.4703916e-02 9.9444330e-02 0.0000000e+00 
2.2765674e-02 7.0918673e-01 0.0000000e+00 
-1.2427439e-01 3.9383985e-02 0.0000000e+00 
1.3721850e-03 1.1042452e-03 0.0000000e+00 
-6.9206364e-02 1.0408707e-02 0.0000000e+00 
9.0846315e-02 7.1935707e-01 0.0000000e+00 
-1.4367808e-02 1.5484676e-02 0.0000000e+00 
-1.0469089e-01 -3.1573058e-03 0.0000000e+00 
3.1701508e-01 4.5299649e-01 0.0000000e+00 
1.0982056e-01 5.4019392e-01 0.0000000e+00 
1.8499035e-01 3.8599908e-01 0.0000000e+00 
-1.0310166e-01 5.2295357e-01 0.0000000e+00 
-1.7426793e-01 4.4546056e-01 0.0000000e+00 
-1.8705414e-01 5.4731643e-01 0.0000000e+00 
-2.0183611e-01 4.1172096e-01 0.0000000e+00 
-6.2344968e-02 2.6143354e-01 0.0000000e+00 
6.5659727e-03 1.1053094e-01 0.0000000e+00 
-1.7410609e-01 4.1381496e-01 0.0000000e+00 
-2.2638696e-01 1.6521883e-01 0.0000000e+00 
-1.8080932e-01 1.1512435e-01 0.0000000e+00 
-2.7573967e-01 5.2677560e-01 0.0000000e+00 
-1.0614493e-01 9.7495660e-02 0.0000000e+00 
-3.4154486e-02 1.5321089e-01 0.0000000e+00 
-9.9391051e-02 2.0687145e-01 0.0000000e+00 
-2.0000951e-01 1.9849682e-01 0.0000000e+00 
-6.3299298e-02 -4.5399621e-02 0.0000000e+00 
-2.1286063e-01 -5.4425709e-02 0.0000000e+00 
-1.9871299e-01 -2.0163432e-01 0.0000000e+00 
2.2999998e-02 6.3338978e-03 0.0000000e+00 
-1.0616396e-01 -2.0705004e-01 0.0000000e+00 
-2.9350451e-01 -3.6502430e-01 0.0000000e+00 
-2.4357077e-01 -4.2584187e-01 0.0000000e+00 
-3.4221604e-01 -4.6425441e-01 0.0000000e+00 
-3.1896573e-01 -5.1009071e-01 0.0000000e+00 
-2.7772367e-01 -4.4434857e-01 0.0000000e+00 
-3.0508089e-01 -3.8759908e-01 0.0000000e+00 
-1.3184412e-01 -2.6623532e-01 0.0000000e+00 
-2.0793432e-01 -1.3601424e-02 0.0000000e+00 
-4.4749297e-02 3.3368159e-02 0.0000000e+00 
-2.2247820e-01 2.1882471e-01 0.0000000e+00 
-4.6562545e-02 1.6691475e-01 0.0000000e+00 
-2.9387793e-01 -2.6126575e-01 0.0000000e+00 
-3.5180356e-02 -2.4107862e-01 0.0000000e+00 
-1.1726961e-01 9.6481629e-02 0.0000000e+00 
-2.4928533e-01 2.5127545e-01 0.0000000e+00 
5.5233557e-02 -5.1175672e-01 0.0000000e+00 
-2.4221729e-01 1.4192912e-01 0.0000000e+00 
-1.6979957e-02 4.8552003e-02 0.0000000e+00 
-2.4631850e-01 5.4782456e-01 0.0000000e+00 
-8.3101153e-02 1.2556556e-01 0.0000000e+00 
-1.5441161e-01 2.3903199e-01 0.0000000e+00 
-3.1944788e-01 -4.2980254e-01 0.0000000e+00 
-6.6448669e-03 4.8867423e-02 0.0000000e+00 
-4.0266201e-02 1.2003117e-01 0.0000000e+00 
-6.3062429e-02 1.4532630e-01 0.0000000e+00 
-2.0410362e-01 1.2904765e-01 0.0000000e+00 
-9.8448381e-02 1.1708397e-01 0.0000000e+00 
-2.9475918e-01 1.2455968e-01 0.0000000e+00 
-3.3572698e-01 1.2920123e-01 0.0000000e+00 
4.2709049e-02 1.5717640e-03 0.0000000e+00 
-3.0235952e-01 -8.3094053e-02 0.0000000e+00 
-2.9641526e-02 6.0442084e-01 0.0000000e+00 
-8.5239574e-02 2.1872932e-01 0.0000000e+00 
-1.0278423e-01 8.1286088e-02 0.0000000e+00 
-1.1733778e-02 5.7662334e-02 0.0000000e+00 
-5.8037803e-02 1.2276682e-01 0.0000000e+00 
-9.6809514e-02 2.6956292e-02 0.0000000e+00 
-1.9332109e-01 5.7058460e-01 0.0000000e+00 
-2.0637722e-01 6.6367143e-01 0.0000000e+00 
-1.3114811e-01 1.7177324e-01 0.0000000e+00 
-1.2674919e-01 3.4592068e-01 0.0000000e+00 
-8.3544694e-02 1.1028168e-01 0.0000000e+00 
-1.4020784e-01 2.2578998e-01 0.0000000e+00 
-4.2939276e-02 1.6265516e-01 0.0000000e+00 
2.2406690e-02 -2.4440175e-02 0.0000000e+00 
-4.2047608e-03 1.0566963e-01 0.0000000e+00 
-1.7054436e-01 6.9396359e-01 0.0000000e+00 
1.3662932e-02 6.7348021e-01 0.0000000e+00 
8.8069821e-03 1.4046478e-01 0.0000000e+00 
-2.0170526e-01 7.3474988e-02 0.0000000e+00 
-2.4683297e-01 6.7939900e-02 0.0000000e+00 
1.4657011e-03 6.8603076e-02 0.0000000e+00 
8.5596005e-03 -1.9182228e-02 0.0000000e+00 
6.2738219e-03 -3.6786713e-02 0.0000000e+00 
-2.1241961e-01 2.7919185e-01 0.0000000e+00 
-9.3459010e-02 5.7217580e-01 0.0000000e+00 
-4.7906436e-02 2.5149462e-01 0.0000000e+00 
3.4229711e-02 1.6870648e-02 0.0000000e+00 
-1.3952313e-01 -3.1777483e-01 0.0000000e+00 
-1.0936303e-01 -5.9799194e-01 0.0000000e+00 
2.6430368e-01 2.9501187e-02 0.0000000e+00 
1.9460535e-01 -1.1573604e-01 0.0000000e+00 
-2.6001390e-02 1.0293549e-01 0.0000000e+00 
-8.4972687e-02 8.4060229e-02 0.0000000e+00 
-1.2111949e-01 1.0458637e-01 0.0000000e+00 
2.0095999e-03 1.2162600e-01 0.0000000e+00 
-1.6910825e-02 1.0366222e-01 0.0000000e+00 
2.0769699e-01 2.2282594e-01 0.0000000e+00 
-1.3436720e-01 8.1689313e-02 0.0000000e+00 
-1.4483231e-01 8.3333544e-02 0.0000000e+00 
-1.3235834e-01 -5.3994930e-01 0.0000000e+00 
8.4815301e-02 -5.6678319e-01 0.0000000e+00 
-5.0957844e-02 2.2300972e-01 0.0000000e+00 
9.1335513e-02 -6.7599708e-01 0.0000000e+00 
-2.2064196e-02 1.0269910e-01 0.0000000e+00 
-6.9512703e-02 1.6299315e-01 0.0000000e+00 
2.8322984e-02 1.2503669e-01 0.0000000e+00 
1.8108910e-02 1.1777628e-01 0.0000000e+00 
2.6020038e-01 -8.0709398e-02 0.0000000e+00 
-2.4313268e-01 5.1535934e-01 0.0000000e+00 
4.0474376e-01 2.6401913e-01 0.0000000e+00 
5.0762969e-01 -4.4601369e-03 0.0000000e+00 
1.4618440e-01 6.5822136e-01 0.0000000e+00 
2.4203295e-01 1.0310493e-01 0.0000000e+00 
-1.7155647e-02 -3.2719088e-01 0.0000000e+00 
-1.4058422e-01 -5.8549494e-01 0.0000000e+00 
-1.4282082e-01 1.6948448e-01 0.0000000e+00 
-5.9413988e-02 4.8467740e-02 0.0000000e+00 
-1.3305215e-02 7.1220174e-02 0.0000000e+00 
1.1190230e-02 -3.4079426e-03 0.0000000e+00 
-1.2611924e-01 2.3282170e-02 0.0000000e+00 
-1.9955429e-01 -4.4878435e-01 0.0000000e+00 
-2.8655263e-02 -3.0128735e-01 0.0000000e+00 
-2.6825234e-01 -4.7703657e-01 0.0000000e+00 
-3.6656503e-03 -4.3459713e-01 0.0000000e+00 
-2.8276369e-01 -3.9902115e-01 0.0000000e+00 
-4.3985541e-03 2.2728865e-03 0.0000000e+00 
-1.7760839e-02 7.5230799e-03 0.0000000e+00 
5.0347638e-03 2.6942067e-02 0.0000000e+00 
1.0159319e-02 2.7034532e-02 0.0000000e+00 
-2.7148321e-02 5.2997675e-03 0.0000000e+00 
3.4675237e-02 -2.6665208e-01 0.0000000e+00 
-3.7755813e-02 7.5365096e-02 0.0000000e+00 
-5.4486198e-03 -3.0446353e-03 0.0000000e+00 
-1.1130797e-01 6.8313164e-01 0.0000000e+00 
9.8670833e-03 2.2100588e-02 0.0000000e+00 
-3.0416526e-02 1.9355999e-01 0.0000000e+00 
7.5557623e-03 6.6434704e-03 0.0000000e+00 
-1.9277452e-01 6.2092274e-01 0.0000000e+00 
-2.5053555e-01 3.4240511e-01 0.0000000e+00 
1.0318697e-02 6.7882262e-02 0.0000000e+00 
-3.0626020e-01 -5.0288594e-01 0.0000000e+00 
-1.3962252e-01 2.7136389e-02 0.0000000e+00 
-2.1451248e-01 5.0295763e-02 0.0000000e+00 
-8.9020394e-02 -2.9775479e-01 0.0000000e+00 
-2.7499157e-01 -3.0397582e-01 0.0000000e+00 
-1.8999659e-01 -8.8475049e-02 0.0000000e+00 
-3.9448678e-02 1.3045725e-01 0.0000000e+00 
-1.6169633e-01 1.7443447e-01 0.0000000e+00 
-2.7633739e-01 -4.2169070e-01 0.0000000e+00 
3.5100423e-02 6.2586659e-01 0.0000000e+00 
2.6991328e-03 8.2589656e-02 0.0000000e+00 
-6.9579326e-02 1.1150832e-01 0.0000000e+00 
6.8842098e-02 -1.6998465e-01 0.0000000e+00 
5.9848297e-03 -3.6170912e-01 0.0000000e+00 
4.3656016e-03 6.5720385e-01 0.0000000e+00 
-1.9898793e-01 6.3412124e-01 0.0000000e+00 
1.1237904e-02 6.9111091e-01 0.0000000e+00 
4.5582265e-02 6.5178972e-01 0.0000000e+00 
2.1690948e-02 -5.0841328e-02 0.0000000e+00 
7.8534134e-02 -7.3340558e-02 0.0000000e+00 
-3.0328708e-02 -6.4300668e-01 0.0000000e+00 
1.3387227e-01 -1.4823696e-01 0.0000000e+00 
-1.1255353e-01 7.4510284e-02 0.0000000e+00 
6.7446898e-03 7.1192402e-01 0.0000000e+00 
-1.9337054e-03 1.1431645e-02 0.0000000e+00 
-9.0239570e-02 4.5334894e-02 0.0000000e+00 
1.3165927e-02 6.2886612e-03 0.0000000e+00 
-2.2860023e-01 7.7632874e-02 0.0000000e+00 
1.9111373e-02 -1.3150959e-02 0.0000000e+00 
-2.1720178e-02 4.7945764e-02 0.0000000e+00 
-9.2621967e-03 4.0065460e-02 0.0000000e+00 
2.5252390e-03 3.4378488e-02 0.0000000e+00 
-4.2134807e-02 8.7281168e-02 0.0000000e+00 
-4.9189217e-03 4.4843517e-02 0.0000000e+00 
-2.3507092e-02 7.4278906e-02 0.0000000e+00 
-1.8947905e-02 3.3926416e-02 0.0000000e+00 
-1.0106814e-02 1.3642706e-01 0.0000000e+00 
-2.8226736e-03 1.0529058e-01 0.0000000e+00 
6.1263788e-02 -2.3661210e-01 0.0000000e+00 
-3.9955247e-02 -5.1413721e-01 0.0000000e+00 
-1.8327408e-01 -1.2778109e-01 0.0000000e+00 
-2.3997439e-02 1.4664769e-01 0.0000000e+00 
4.8651975e-03 4.9724836e-02 0.0000000e+00 
-1.1091416e-01 5.5524357e-02 0.0000000e+00 
-1.7760216e-01 3.1180544e-02 0.0000000e+00 
1.9701847e-03 1.3480259e-02 0.0000000e+00 
1.3038212e-02 1.3152445e-02 0.0000000e+00 
1.6478771e-02 6.8792242e-01 0.0000000e+00 
2.6948271e-02 8.6442336e-02 0.0000000e+00 
-1.3607034e-01 5.9199154e-01 0.0000000e+00 
2.1914033e-04 1.0995511e-01 0.0000000e+00 
5.5050571e-02 7.6518184e-01 0.0000000e+00 
3.7294584e-03 3.2460198e-03 0.0000000e+00 
-2.1469636e-02 -1.2837335e-02 0.0000000e+00 
-1.7381640e-01 5.8007403e-03 0.0000000e+00 
1.5316812e-03 2.9707385e-02 0.0000000e+00 
-4.4302665e-02 1.6637568e-01 0.0000000e+00 
2.6294575e-03 1.5180633e-02 0.0000000e+00 
6.0213339e-03 7.0292074e-03 0.0000000e+00 
9.6250791e-03 6.9366789e-01 0.0000000e+00 
6.0707540e-03 6.9992441e-01 0.0000000e+00 
1.9423464e-02 6.8866771e-01 0.0000000e+00 
2.2953993e-02 6.9388503e-01 0.0000000e+00 
3.0413006e-02 6.8877989e-01 0.0000000e+00 
-4.3254230e-02 1.6142132e-02 0.0000000e+00 
-7.8650594e-02 2.4358645e-02 0.0000000e+00 
-1.5087804e-01 5.1638436e-02 0.0000000e+00 
-1.4338086e-03 5.7354737e-02 0.0000000e+00 
-8.0244858e-03 6.5747656e-02 0.0000000e+00 
4.9666245e-03 7.7756144e-02 0.0000000e+00 
-1.6172618e-02 1.2279832e-01 0.0000000e+00 
-3.5171904e-02 6.9140486e-02 0.0000000e+00 
-1.3337146e-02 8.2015574e-02 0.0000000e+00 
-9.7263083e-02 4.2157829e-02 0.0000000e+00 
-1.0391250e-01 9.2826962e-02 0.0000000e+00 
-8.6519957e-02 3.6097929e-02 0.0000000e+00 
2.1479153e-03 3.1640731e-02 0.0000000e+00 
2.1421153e-02 -2.6728721e-02 0.0000000e+00 
9.9976920e-03 6.6370494e-03 0.0000000e+00 
-9.9648135e-03 2.9182859e-02 0.0000000e+00 
-2.3075227e-01 7.9658821e-02 0.0000000e+00 
-1.9225499e-01 5.9832651e-02 0.0000000e+00 
-9.4855294e-02 3.8322309e-01 0.0000000e+00 
-1.2816568e-01 3.7147927e-01 0.0000000e+00 
5.8564763e-03 8.0236696e-02 0.0000000e+00 
1.4980315e-02 9.2962891e-02 0.0000000e+00 
-6.5289453e-02 6.7819394e-02 0.0000000e+00 
-5.9297603e-02 5.3366456e-02 0.0000000e+00 
-5.7976972e-02 8.9901716e-02 0.0000000e+00 
-6.2632270e-02 1.0778028e-01 0.0000000e+00 
-2.5820751e-02 9.9094644e-02 0.0000000e+00 
-1.4512206e-02 1.1143827e-01 0.0000000e+00 
1.3221684e-02 1.0444983e-01 0.0000000e+00 
2.4912357e-02 3.2058772e-02 0.0000000e+00 
1.5227226e-02 1.7567435e-02 0.0000000e+00 
-1.4511111e-02 2.0610355e-02 0.0000000e+00 
-8.3159283e-02 4.8490338e-02 0.0000000e+00 
3.4840208e-02 7.1949083e-01 0.0000000e+00 
3.1714167e-02 7.0740825e-01 0.0000000e+00 
-6.8092227e-02 6.9096750e-01 0.0000000e+00 
-5.8825251e-02 6.9381499e-01 0.0000000e+00 
-1.3866979e-01 6.9078606e-01 0.0000000e+00 
-7.3161058e-02 2.0987200e-02 0.0000000e+00 
-1.1238351e-01 7.4950658e-02 0.0000000e+00 
-7.9463189e-03 2.4061933e-02 0.0000000e+00 
4.0400885e-03 1.0675681e-02 0.0000000e+00 
-1.1199548e-02 2.5490304e-02 0.0000000e+00 
9.1797467e-03 -6.7626555e-03 0.0000000e+00 
-6.8342830e-03 2.1311183e-02 0.0000000e+00 
-2.4434398e-01 5.9186913e-02 0.0000000e+00 
-2.6715353e-01 8.9963943e-02 0.0000000e+00 
-1.2877837e-02 2.1338018e-02 0.0000000e+00 
-6.6643944e-03 3.7857581e-02 0.0000000e+00 
-5.3034485e-03 2.6549641e-02 0.0000000e+00 
2.3501270e-02 1.6081475e-02 0.0000000e+00 
5.3388053e-03 1.0867313e-02 0.0000000e+00 
1.1618849e-02 2.5040567e-02 0.0000000e+00 
-4.3549683e-02 1.2768514e-01 0.0000000e+00 
-6.1331656e-02 1.0175988e-01 0.0000000e+00 
-3.4573834e-02 6.0898345e-02 0.0000000e+00 
-2.3605917e-02 5.4260567e-02 0.0000000e+00 
-2.0265865e-01 5.9587087e-02 0.0000000e+00 
-1.9137925e-01 3.8500827e-02 0.0000000e+00 
-1.3560262e-01 8.1865951e-02 0.0000000e+00 
-1.3899273e-01 6.6658694e-01 0.0000000e+00 
-1.8257777e-01 6.6504824e-01 0.0000000e+00 
-3.7854597e-02 1.1174996e-01 0.0000000e+00 
-2.7289055e-02 7.0152986e-01 0.0000000e+00 
-7.7570588e-03 2.9260512e-02 0.0000000e+00 
3.4263385e-03 1.3864641e-02 0.0000000e+00 
-4.1728422e-02 9.1025323e-02 0.0000000e+00 
-2.3932530e-02 7.0771426e-02 0.0000000e+00 
-5.4953746e-02 4.1240182e-02 0.0000000e+00 
-3.1479556e-02 5.2207459e-02 0.0000000e+00 
-7.3560484e-02 6.0534667e-02 0.0000000e+00 
-1.5066055e-02 1.9357827e-02 0.0000000e+00 
-9.1543440e-03 3.4041703e-02 0.0000000e+00 
-9.2324149e-03 -4.1419743e-03 0.0000000e+00 
-8.7818997e-03 -3.0583737e-03 0.0000000e+00 
-1.7670794e-01 1.4499675e-01 0.0000000e+00 
-1.6307478e-01 5.7975058e-02 0.0000000e+00 
-1.9044673e-01 1.6020015e-01 0.0000000e+00 
-2.0088929e-01 2.0892239e-01 0.0000000e+00 
-2.1513113e-01 3.8291192e-01 0.0000000e+00 
-1.9415449e-01 6.2233931e-01 0.0000000e+00 
-2.2993103e-01 7.4661577e-01 0.0000000e+00 
-1.2664309e-01 6.2812686e-01 0.0000000e+00 
-1.7503403e-01 4.6053904e-01 0.0000000e+00 
-1.6122186e-01 9.6108187e-03 0.0000000e+00 
-1.1878712e-01 1.2669209e-01 0.0000000e+00 
-5.9799243e-02 3.0779493e-01 0.0000000e+00 
-1.9217266e-02 3.9716998e-01 0.0000000e+00 
-1.4153334e-02 -6.6301078e-01 0.0000000e+00 
1.8281627e-03 -5.7694179e-01 0.0000000e+00 
8.8204011e-02 -6.3555950e-01 0.0000000e+00 
-9.0450339e-02 -4.6128151e-01 0.0000000e+00 
6.7851190e-03 -4.8184264e-01 0.0000000e+00 
-1.7352676e-01 -4.0712321e-01 0.0000000e+00 
-2.7969879e-01 -2.4032146e-02 0.0000000e+00 
-1.6372252e-01 1.6096741e-02 0.0000000e+00 
-1.7863706e-01 -2.1450743e-02 0.0000000e+00 
2.5397605e-01 -7.4373439e-02 0.0000000e+00 
3.2719240e-01 -6.0244750e-02 0.0000000e+00 
3.5582176e-01 -5.0226711e-02 0.0000000e+00 
-1.4306693e-01 6.3835450e-02 0.0000000e+00 
-3.4667840e-03 -3.3395380e-01 0.0000000e+00 
2.3317991e-03 -4.4143808e-01 0.0000000e+00 
2.3708831e-01 -3.0494217e-02 0.0000000e+00 
4.2611322e-01 -1.6765473e-02 0.0000000e+00 
4.5219368e-01 -9.0156840e-03 0.0000000e+00 
4.5892709e-01 -1.9030614e-02 0.0000000e+00 
-1.6090862e-01 1.5097868e-01 0.0000000e+00 
-4.6326362e-02 -1.5107106e-01 0.0000000e+00 
-3.0344206e-01 4.5567530e-01 0.0000000e+00 
-1.4304455e-01 -6.7731535e-01 0.0000000e+00 
-2.2134714e-02 -6.4842349e-01 0.0000000e+00 
-1.3523602e-01 -6.7365462e-01 0.0000000e+00 
-1.2980187e-01 -6.2692052e-01 0.0000000e+00 