# vtk DataFile Version 4.0
vtk output
ASCII
DATASET UNSTRUCTURED_GRID
POINTS 251 float
0.0000000e+00 0.0000000e+00 0.0000000e+00 
2.5000000e+01 0.0000000e+00 0.0000000e+00 
1.0000000e-01 0.0000000e+00 0.0000000e+00 
2.0000000e-01 0.0000000e+00 0.0000000e+00 
3.0000001e-01 0.0000000e+00 0.0000000e+00 
4.0000001e-01 0.0000000e+00 0.0000000e+00 
5.0000000e-01 0.0000000e+00 0.0000000e+00 
6.0000002e-01 0.0000000e+00 0.0000000e+00 
6.9999999e-01 0.0000000e+00 0.0000000e+00 
8.0000001e-01 0.0000000e+00 0.0000000e+00 
8.9999998e-01 0.0000000e+00 0.0000000e+00 
1.0000000e+00 0.0000000e+00 0.0000000e+00 
1.1000000e+00 0.0000000e+00 0.0000000e+00 
1.2000000e+00 0.0000000e+00 0.0000000e+00 
1.3000000e+00 0.0000000e+00 0.0000000e+00 
1.4000000e+00 0.0000000e+00 0.0000000e+00 
1.5000000e+00 0.0000000e+00 0.0000000e+00 
1.6000000e+00 0.0000000e+00 0.0000000e+00 
1.7000000e+00 0.0000000e+00 0.0000000e+00 
1.8000000e+00 0.0000000e+00 0.0000000e+00 
1.9000000e+00 0.0000000e+00 0.0000000e+00 
2.0000000e+00 0.0000000e+00 0.0000000e+00 
2.0999999e+00 0.0000000e+00 0.0000000e+00 
2.2000000e+00 0.0000000e+00 0.0000000e+00 
2.3000000e+00 0.0000000e+00 0.0000000e+00 
2.4000001e+00 0.0000000e+00 0.0000000e+00 
2.5000000e+00 0.0000000e+00 0.0000000e+00 
2.5999999e+00 0.0000000e+00 0.0000000e+00 
2.7000000e+00 0.0000000e+00 0.0000000e+00 
2.8000000e+00 0.0000000e+00 0.0000000e+00 
2.9000001e+00 0.0000000e+00 0.0000000e+00 
3.0000000e+00 0.0000000e+00 0.0000000e+00 
3.0999999e+00 0.0000000e+00 0.0000000e+00 
3.2000000e+00 0.0000000e+00 0.0000000e+00 
3.3000000e+00 0.0000000e+00 0.0000000e+00 
3.4000001e+00 0.0000000e+00 0.0000000e+00 
3.5000000e+00 0.0000000e+00 0.0000000e+00 
3.5999999e+00 0.0000000e+00 0.0000000e+00 
3.7000000e+00 0.0000000e+00 0.0000000e+00 
3.8000000e+00 0.0000000e+00 0.0000000e+00 
3.9000001e+00 0.0000000e+00 0.0000000e+00 
4.0000000e+00 0.0000000e+00 0.0000000e+00 
4.0999999e+00 0.0000000e+00 0.0000000e+00 
4.1999998e+00 0.0000000e+00 0.0000000e+00 
4.3000002e+00 0.0000000e+00 0.0000000e+00 
4.4000001e+00 0.0000000e+00 0.0000000e+00 
4.5000000e+00 0.0000000e+00 0.0000000e+00 
4.5999999e+00 0.0000000e+00 0.0000000e+00 
4.6999998e+00 0.0000000e+00 0.0000000e+00 
4.8000002e+00 0.0000000e+00 0.0000000e+00 
4.9000001e+00 0.0000000e+00 0.0000000e+00 
5.0000000e+00 0.0000000e+00 0.0000000e+00 
5.0999999e+00 0.0000000e+00 0.0000000e+00 
5.1999998e+00 0.0000000e+00 0.0000000e+00 
5.3000002e+00 0.0000000e+00 0.0000000e+00 
5.4000001e+00 0.0000000e+00 0.0000000e+00 
5.5000000e+00 0.0000000e+00 0.0000000e+00 
5.5999999e+00 0.0000000e+00 0.0000000e+00 
5.6999998e+00 0.0000000e+00 0.0000000e+00 
5.8000002e+00 0.0000000e+00 0.0000000e+00 
5.9000001e+00 0.0000000e+00 0.0000000e+00 
6.0000000e+00 0.0000000e+00 0.0000000e+00 
6.0999999e+00 0.0000000e+00 0.0000000e+00 
6.1999998e+00 0.0000000e+00 0.0000000e+00 
6.3000002e+00 0.0000000e+00 0.0000000e+00 
6.4000001e+00 0.0000000e+00 0.0000000e+00 
6.5000000e+00 0.0000000e+00 0.0000000e+00 
6.5999999e+00 0.0000000e+00 0.0000000e+00 
6.6999998e+00 0.0000000e+00 0.0000000e+00 
6.8000002e+00 0.0000000e+00 0.0000000e+00 
6.9000001e+00 0.0000000e+00 0.0000000e+00 
7.0000000e+00 0.0000000e+00 0.0000000e+00 
7.0999999e+00 0.0000000e+00 0.0000000e+00 
7.1999998e+00 0.0000000e+00 0.0000000e+00 
7.3000002e+00 0.0000000e+00 0.0000000e+00 
7.4000001e+00 0.0000000e+00 0.0000000e+00 
7.5000000e+00 0.0000000e+00 0.0000000e+00 
7.5999999e+00 0.0000000e+00 0.0000000e+00 
7.6999998e+00 0.0000000e+00 0.0000000e+00 
7.8000002e+00 0.0000000e+00 0.0000000e+00 
7.9000001e+00 0.0000000e+00 0.0000000e+00 
8.0000000e+00 0.0000000e+00 0.0000000e+00 
8.1000004e+00 0.0000000e+00 0.0000000e+00 
8.1999998e+00 0.0000000e+00 0.0000000e+00 
8.3000002e+00 0.0000000e+00 0.0000000e+00 
8.3999996e+00 0.0000000e+00 0.0000000e+00 
8.5000000e+00 0.0000000e+00 0.0000000e+00 
8.6000004e+00 0.0000000e+00 0.0000000e+00 
8.6999998e+00 0.0000000e+00 0.0000000e+00 
8.8000002e+00 0.0000000e+00 0.0000000e+00 
8.8999996e+00 0.0000000e+00 0.0000000e+00 
9.0000000e+00 0.0000000e+00 0.0000000e+00 
9.1000004e+00 0.0000000e+00 0.0000000e+00 
9.1999998e+00 0.0000000e+00 0.0000000e+00 
9.3000002e+00 0.0000000e+00 0.0000000e+00 
9.3999996e+00 0.0000000e+00 0.0000000e+00 
9.5000000e+00 0.0000000e+00 0.0000000e+00 
9.6000004e+00 0.0000000e+00 0.0000000e+00 
9.6999998e+00 0.0000000e+00 0.0000000e+00 
9.8000002e+00 0.0000000e+00 0.0000000e+00 
9.8999996e+00 0.0000000e+00 0.0000000e+00 
1.0000000e+01 0.0000000e+00 0.0000000e+00 
1.0100000e+01 0.0000000e+00 0.0000000e+00 
1.0200000e+01 0.0000000e+00 0.0000000e+00 
1.0300000e+01 0.0000000e+00 0.0000000e+00 
1.0400000e+01 0.0000000e+00 0.0000000e+00 
1.0500000e+01 0.0000000e+00 0.0000000e+00 
1.0600000e+01 0.0000000e+00 0.0000000e+00 
1.0700000e+01 0.0000000e+00 0.0000000e+00 
1.0800000e+01 0.0000000e+00 0.0000000e+00 
1.0900000e+01 0.0000000e+00 0.0000000e+00 
1.1000000e+01 0.0000000e+00 0.0000000e+00 
1.1100000e+01 0.0000000e+00 0.0000000e+00 
1.1200000e+01 0.0000000e+00 0.0000000e+00 
1.1300000e+01 0.0000000e+00 0.0000000e+00 
1.1400000e+01 0.0000000e+00 0.0000000e+00 
1.1500000e+01 0.0000000e+00 0.0000000e+00 
1.1600000e+01 0.0000000e+00 0.0000000e+00 
1.1700000e+01 0.0000000e+00 0.0000000e+00 
1.1800000e+01 0.0000000e+00 0.0000000e+00 
1.1900000e+01 0.0000000e+00 0.0000000e+00 
1.2000000e+01 0.0000000e+00 0.0000000e+00 
1.2100000e+01 0.0000000e+00 0.0000000e+00 
1.2200000e+01 0.0000000e+00 0.0000000e+00 
1.2300000e+01 0.0000000e+00 0.0000000e+00 
1.2400000e+01 0.0000000e+00 0.0000000e+00 
1.2500000e+01 0.0000000e+00 0.0000000e+00 
1.2600000e+01 0.0000000e+00 0.0000000e+00 
1.2700000e+01 0.0000000e+00 0.0000000e+00 
1.2800000e+01 0.0000000e+00 0.0000000e+00 
1.2900000e+01 0.0000000e+00 0.0000000e+00 
1.3000000e+01 0.0000000e+00 0.0000000e+00 
1.3100000e+01 0.0000000e+00 0.0000000e+00 
1.3200000e+01 0.0000000e+00 0.0000000e+00 
1.3300000e+01 0.0000000e+00 0.0000000e+00 
1.3400000e+01 0.0000000e+00 0.0000000e+00 
1.3500000e+01 0.0000000e+00 0.0000000e+00 
1.3600000e+01 0.0000000e+00 0.0000000e+00 
1.3700000e+01 0.0000000e+00 0.0000000e+00 
1.3800000e+01 0.0000000e+00 0.0000000e+00 
1.3900000e+01 0.0000000e+00 0.0000000e+00 
1.4000000e+01 0.0000000e+00 0.0000000e+00 
1.4100000e+01 0.0000000e+00 0.0000000e+00 
1.4200000e+01 0.0000000e+00 0.0000000e+00 
1.4300000e+01 0.0000000e+00 0.0000000e+00 
1.4400000e+01 0.0000000e+00 0.0000000e+00 
1.4500000e+01 0.0000000e+00 0.0000000e+00 
1.4600000e+01 0.0000000e+00 0.0000000e+00 
1.4700000e+01 0.0000000e+00 0.0000000e+00 
1.4800000e+01 0.0000000e+00 0.0000000e+00 
1.4900000e+01 0.0000000e+00 0.0000000e+00 
1.5000000e+01 0.0000000e+00 0.0000000e+00 
1.5100000e+01 0.0000000e+00 0.0000000e+00 
1.5200000e+01 0.0000000e+00 0.0000000e+00 
1.5300000e+01 0.0000000e+00 0.0000000e+00 
1.5400000e+01 0.0000000e+00 0.0000000e+00 
1.5500000e+01 0.0000000e+00 0.0000000e+00 
1.5600000e+01 0.0000000e+00 0.0000000e+00 
1.5700000e+01 0.0000000e+00 0.0000000e+00 
1.5800000e+01 0.0000000e+00 0.0000000e+00 
1.5900000e+01 0.0000000e+00 0.0000000e+00 
1.6000000e+01 0.0000000e+00 0.0000000e+00 
1.6100000e+01 0.0000000e+00 0.0000000e+00 
1.6200001e+01 0.0000000e+00 0.0000000e+00 
1.6299999e+01 0.0000000e+00 0.0000000e+00 
1.6400000e+01 0.0000000e+00 0.0000000e+00 
1.6500000e+01 0.0000000e+00 0.0000000e+00 
1.6600000e+01 0.0000000e+00 0.0000000e+00 
1.6700001e+01 0.0000000e+00 0.0000000e+00 
1.6799999e+01 0.0000000e+00 0.0000000e+00 
1.6900000e+01 0.0000000e+00 0.0000000e+00 
1.7000000e+01 0.0000000e+00 0.0000000e+00 
1.7100000e+01 0.0000000e+00 0.0000000e+00 
1.7200001e+01 0.0000000e+00 0.0000000e+00 
1.7299999e+01 0.0000000e+00 0.0000000e+00 
1.7400000e+01 0.0000000e+00 0.0000000e+00 
1.7500000e+01 0.0000000e+00 0.0000000e+00 
1.7600000e+01 0.0000000e+00 0.0000000e+00 
1.7700001e+01 0.0000000e+00 0.0000000e+00 
1.7799999e+01 0.0000000e+00 0.0000000e+00 
1.7900000e+01 0.0000000e+00 0.0000000e+00 
1.8000000e+01 0.0000000e+00 0.0000000e+00 
1.8100000e+01 0.0000000e+00 0.0000000e+00 
1.8200001e+01 0.0000000e+00 0.0000000e+00 
1.8299999e+01 0.0000000e+00 0.0000000e+00 
1.8400000e+01 0.0000000e+00 0.0000000e+00 
1.8500000e+01 0.0000000e+00 0.0000000e+00 
1.8600000e+01 0.0000000e+00 0.0000000e+00 
1.8700001e+01 0.0000000e+00 0.0000000e+00 
1.8799999e+01 0.0000000e+00 0.0000000e+00 
1.8900000e+01 0.0000000e+00 0.0000000e+00 
1.9000000e+01 0.0000000e+00 0.0000000e+00 
1.9100000e+01 0.0000000e+00 0.0000000e+00 
1.9200001e+01 0.0000000e+00 0.0000000e+00 
1.9299999e+01 0.0000000e+00 0.0000000e+00 
1.9400000e+01 0.0000000e+00 0.0000000e+00 
1.9500000e+01 0.0000000e+00 0.0000000e+00 
1.9600000e+01 0.0000000e+00 0.0000000e+00 
1.9700001e+01 0.0000000e+00 0.0000000e+00 
1.9799999e+01 0.0000000e+00 0.0000000e+00 
1.9900000e+01 0.0000000e+00 0.0000000e+00 
2.0000000e+01 0.0000000e+00 0.0000000e+00 
2.0100000e+01 0.0000000e+00 0.0000000e+00 
2.0200001e+01 0.0000000e+00 0.0000000e+00 
2.0299999e+01 0.0000000e+00 0.0000000e+00 
2.0400000e+01 0.0000000e+00 0.0000000e+00 
2.0500000e+01 0.0000000e+00 0.0000000e+00 
2.0600000e+01 0.0000000e+00 0.0000000e+00 
2.0700001e+01 0.0000000e+00 0.0000000e+00 
2.0799999e+01 0.0000000e+00 0.0000000e+00 
2.0900000e+01 0.0000000e+00 0.0000000e+00 
2.1000000e+01 0.0000000e+00 0.0000000e+00 
2.1100000e+01 0.0000000e+00 0.0000000e+00 
2.1200001e+01 0.0000000e+00 0.0000000e+00 
2.1299999e+01 0.0000000e+00 0.0000000e+00 
2.1400000e+01 0.0000000e+00 0.0000000e+00 
2.1500000e+01 0.0000000e+00 0.0000000e+00 
2.1600000e+01 0.0000000e+00 0.0000000e+00 
2.1700001e+01 0.0000000e+00 0.0000000e+00 
2.1799999e+01 0.0000000e+00 0.0000000e+00 
2.1900000e+01 0.0000000e+00 0.0000000e+00 
2.2000000e+01 0.0000000e+00 0.0000000e+00 
2.2100000e+01 0.0000000e+00 0.0000000e+00 
2.2200001e+01 0.0000000e+00 0.0000000e+00 
2.2299999e+01 0.0000000e+00 0.0000000e+00 
2.2400000e+01 0.0000000e+00 0.0000000e+00 
2.2500000e+01 0.0000000e+00 0.0000000e+00 
2.2600000e+01 0.0000000e+00 0.0000000e+00 
2.2700001e+01 0.0000000e+00 0.0000000e+00 
2.2799999e+01 0.0000000e+00 0.0000000e+00 
2.2900000e+01 0.0000000e+00 0.0000000e+00 
2.3000000e+01 0.0000000e+00 0.0000000e+00 
2.3100000e+01 0.0000000e+00 0.0000000e+00 
2.3200001e+01 0.0000000e+00 0.0000000e+00 
2.3299999e+01 0.0000000e+00 0.0000000e+00 
2.3400000e+01 0.0000000e+00 0.0000000e+00 
2.3500000e+01 0.0000000e+00 0.0000000e+00 
2.3600000e+01 0.0000000e+00 0.0000000e+00 
2.3700001e+01 0.0000000e+00 0.0000000e+00 
2.3799999e+01 0.0000000e+00 0.0000000e+00 
2.3900000e+01 0.0000000e+00 0.0000000e+00 
2.4000000e+01 0.0000000e+00 0.0000000e+00 
2.4100000e+01 0.0000000e+00 0.0000000e+00 
2.4200001e+01 0.0000000e+00 0.0000000e+00 
2.4299999e+01 0.0000000e+00 0.0000000e+00 
2.4400000e+01 0.0000000e+00 0.0000000e+00 
2.4500000e+01 0.0000000e+00 0.0000000e+00 
2.4600000e+01 0.0000000e+00 0.0000000e+00 
2.4700001e+01 0.0000000e+00 0.0000000e+00 
2.4799999e+01 0.0000000e+00 0.0000000e+00 
2.4900000e+01 0.0000000e+00 0.0000000e+00 

CELLS 250 750
2 0 2
2 2 3
2 3 4
2 4 5
2 5 6
2 6 7
2 7 8
2 8 9
2 9 10
2 10 11
2 11 12
2 12 13
2 13 14
2 14 15
2 15 16
2 16 17
2 17 18
2 18 19
2 19 20
2 20 21
2 21 22
2 22 23
2 23 24
2 24 25
2 25 26
2 26 27
2 27 28
2 28 29
2 29 30
2 30 31
2 31 32
2 32 33
2 33 34
2 34 35
2 35 36
2 36 37
2 37 38
2 38 39
2 39 40
2 40 41
2 41 42
2 42 43
2 43 44
2 44 45
2 45 46
2 46 47
2 47 48
2 48 49
2 49 50
2 50 51
2 51 52
2 52 53
2 53 54
2 54 55
2 55 56
2 56 57
2 57 58
2 58 59
2 59 60
2 60 61
2 61 62
2 62 63
2 63 64
2 64 65
2 65 66
2 66 67
2 67 68
2 68 69
2 69 70
2 70 71
2 71 72
2 72 73
2 73 74
2 74 75
2 75 76
2 76 77
2 77 78
2 78 79
2 79 80
2 80 81
2 81 82
2 82 83
2 83 84
2 84 85
2 85 86
2 86 87
2 87 88
2 88 89
2 89 90
2 90 91
2 91 92
2 92 93
2 93 94
2 94 95
2 95 96
2 96 97
2 97 98
2 98 99
2 99 100
2 100 101
2 101 102
2 102 103
2 103 104
2 104 105
2 105 106
2 106 107
2 107 108
2 108 109
2 109 110
2 110 111
2 111 112
2 112 113
2 113 114
2 114 115
2 115 116
2 116 117
2 117 118
2 118 119
2 119 120
2 120 121
2 121 122
2 122 123
2 123 124
2 124 125
2 125 126
2 126 127
2 127 128
2 128 129
2 129 130
2 130 131
2 131 132
2 132 133
2 133 134
2 134 135
2 135 136
2 136 137
2 137 138
2 138 139
2 139 140
2 140 141
2 141 142
2 142 143
2 143 144
2 144 145
2 145 146
2 146 147
2 147 148
2 148 149
2 149 150
2 150 151
2 151 152
2 152 153
2 153 154
2 154 155
2 155 156
2 156 157
2 157 158
2 158 159
2 159 160
2 160 161
2 161 162
2 162 163
2 163 164
2 164 165
2 165 166
2 166 167
2 167 168
2 168 169
2 169 170
2 170 171
2 171 172
2 172 173
2 173 174
2 174 175
2 175 176
2 176 177
2 177 178
2 178 179
2 179 180
2 180 181
2 181 182
2 182 183
2 183 184
2 184 185
2 185 186
2 186 187
2 187 188
2 188 189
2 189 190
2 190 191
2 191 192
2 192 193
2 193 194
2 194 195
2 195 196
2 196 197
2 197 198
2 198 199
2 199 200
2 200 201
2 201 202
2 202 203
2 203 204
2 204 205
2 205 206
2 206 207
2 207 208
2 208 209
2 209 210
2 210 211
2 211 212
2 212 213
2 213 214
2 214 215
2 215 216
2 216 217
2 217 218
2 218 219
2 219 220
2 220 221
2 221 222
2 222 223
2 223 224
2 224 225
2 225 226
2 226 227
2 227 228
2 228 229
2 229 230
2 230 231
2 231 232
2 232 233
2 233 234
2 234 235
2 235 236
2 236 237
2 237 238
2 238 239
2 239 240
2 240 241
2 241 242
2 242 243
2 243 244
2 244 245
2 245 246
2 246 247
2 247 248
2 248 249
2 249 250
2 250 1

CELL_TYPES 250
3
3
3
3
3
3
3
3
3
3
3
3
3
3
3
3
3
3
3
3
3
3
3
3
3
3
3
3
3
3
3
3
3
3
3
3
3
3
3
3
3
3
3
3
3
3
3
3
3
3
3
3
3
3
3
3
3
3
3
3
3
3
3
3
3
3
3
3
3
3
3
3
3
3
3
3
3
3
3
3
3
3
3
3
3
3
3
3
3
3
3
3
3
3
3
3
3
3
3
3
3
3
3
3
3
3
3
3
3
3
3
3
3
3
3
3
3
3
3
3
3
3
3
3
3
3
3
3
3
3
3
3
3
3
3
3
3
3
3
3
3
3
3
3
3
3
3
3
3
3
3
3
3
3
3
3
3
3
3
3
3
3
3
3
3
3
3
3
3
3
3
3
3
3
3
3
3
3
3
3
3
3
3
3
3
3
3
3
3
3
3
3
3
3
3
3
3
3
3
3
3
3
3
3
3
3
3
3
3
3
3
3
3
3
3
3
3
3
3
3
3
3
3
3
3
3
3
3
3
3
3
3
3
3
3
3
3
3
3
3
3
3
3
3
3
3
3
3
3
3
POINT_DATA 251
FIELD FieldData 1
DISPLACEMENT 3 251  float
0.0000000e+00 0.0000000e+00 0.0000000e+00 
0.0000000e+00 0.0000000e+00 0.0000000e+00 
0.0000000e+00 -4.2709251e-04 0.0000000e+00 
0.0000000e+00 -8.5412647e-04 0.0000000e+00 
0.0000000e+00 -1.2810434e-03 0.0000000e+00 
0.0000000e+00 -1.7077846e-03 0.0000000e+00 
0.0000000e+00 -2.1342917e-03 0.0000000e+00 
0.0000000e+00 -2.5605061e-03 0.0000000e+00 
0.0000000e+00 -2.9863692e-03 0.0000000e+00 
0.0000000e+00 -3.4118225e-03 0.0000000e+00 
0.0000000e+00 -3.8368071e-03 0.0000000e+00 
0.0000000e+00 -4.2612650e-03 0.0000000e+00 
0.0000000e+00 -4.6851370e-03 0.0000000e+00 
0.0000000e+00 -5.1083644e-03 0.0000000e+00 
0.0000000e+00 -5.5308887e-03 0.0000000e+00 
0.0000000e+00 -5.9526516e-03 0.0000000e+00 
0.0000000e+00 -6.3735940e-03 0.0000000e+00 
0.0000000e+00 -6.7936573e-03 0.0000000e+00 
0.0000000e+00 -7.2127823e-03 0.0000000e+00 
0.0000000e+00 -7.6309107e-03 0.0000000e+00 
0.0000000e+00 -8.0479831e-03 0.0000000e+00 
0.0000000e+00 -8.4639415e-03 0.0000000e+00 
0.0000000e+00 -8.8787256e-03 0.0000000e+00 
0.0000000e+00 -9.2922775e-03 0.0000000e+00 
0.0000000e+00 -9.7045386e-03 0.0000000e+00 
0.0000000e+00 -1.0115448e-02 0.0000000e+00 
0.0000000e+00 -1.0524949e-02 0.0000000e+00 
0.0000000e+00 -1.0932980e-02 0.0000000e+00 
0.0000000e+00 -1.1339484e-02 0.0000000e+00 
0.0000000e+00 -1.1744400e-02 0.0000000e+00 
0.0000000e+00 -1.2147670e-02 0.0000000e+00 
0.0000000e+00 -1.2549234e-02 0.0000000e+00 
0.0000000e+00 -1.2949032e-02 0.0000000e+00 
0.0000000e+00 -1.3347005e-02 0.0000000e+00 
0.0000000e+00 -1.3743093e-02 0.0000000e+00 
0.0000000e+00 -1.4137238e-02 0.0000000e+00 
0.0000000e+00 -1.4529379e-02 0.0000000e+00 
0.0000000e+00 -1.4919456e-02 0.0000000e+00 
0.0000000e+00 -1.5307411e-02 0.0000000e+00 
0.0000000e+00 -1.5693180e-02 0.0000000e+00 
0.0000000e+00 -1.6076708e-02 0.0000000e+00 
0.0000000e+00 -1.6457932e-02 0.0000000e+00 
0.0000000e+00 -1.6836794e-02 0.0000000e+00 
0.0000000e+00 -1.7213231e-02 0.0000000e+00 
0.0000000e+00 -1.7587183e-02 0.0000000e+00 
0.0000000e+00 -1.7958593e-02 0.0000000e+00 
0.0000000e+00 -1.8327396e-02 0.0000000e+00 
0.0000000e+00 -1.8693535e-02 0.0000000e+00 
0.0000000e+00 -1.9056948e-02 0.0000000e+00 
0.0000000e+00 -1.9417575e-02 0.0000000e+00 
0.0000000e+00 -1.9775353e-02 0.0000000e+00 
0.0000000e+00 -2.0130223e-02 0.0000000e+00 
0.0000000e+00 -2.0482123e-02 0.0000000e+00 
0.0000000e+00 -2.0830994e-02 0.0000000e+00 
0.0000000e+00 -2.1176772e-02 0.0000000e+00 
0.0000000e+00 -2.1519398e-02 0.0000000e+00 
0.0000000e+00 -2.1858810e-02 0.0000000e+00 
0.0000000e+00 -2.2194944e-02 0.0000000e+00 
0.0000000e+00 -2.2527741e-02 0.0000000e+00 
0.0000000e+00 -2.2857141e-02 0.0000000e+00 
0.0000000e+00 -2.3183078e-02 0.0000000e+00 
0.0000000e+00 -2.3505492e-02 0.0000000e+00 
0.0000000e+00 -2.3824321e-02 0.0000000e+00 
0.0000000e+00 -2.4139503e-02 0.0000000e+00 
0.0000000e+00 -2.4450975e-02 0.0000000e+00 
0.0000000e+00 -2.4758674e-02 0.0000000e+00 
0.0000000e+00 -2.5062541e-02 0.0000000e+00 
0.0000000e+00 -2.5362508e-02 0.0000000e+00 
0.0000000e+00 -2.5658518e-02 0.0000000e+00 
0.0000000e+00 -2.5950504e-02 0.0000000e+00 
0.0000000e+00 -2.6238404e-02 0.0000000e+00 
0.0000000e+00 -2.6522156e-02 0.0000000e+00 
0.0000000e+00 -2.6801694e-02 0.0000000e+00 
0.0000000e+00 -2.7076958e-02 0.0000000e+00 
0.0000000e+00 -2.7347881e-02 0.0000000e+00 
0.0000000e+00 -2.7614404e-02 0.0000000e+00 
0.0000000e+00 -2.7876459e-02 0.0000000e+00 
0.0000000e+00 -2.8133983e-02 0.0000000e+00 
0.0000000e+00 -2.8386913e-02 0.0000000e+00 
0.0000000e+00 -2.8635185e-02 0.0000000e+00 
0.0000000e+00 -2.8878734e-02 0.0000000e+00 
0.0000000e+00 -2.9117495e-02 0.0000000e+00 
0.0000000e+00 -2.9351404e-02 0.0000000e+00 
0.0000000e+00 -2.9580396e-02 0.0000000e+00 
0.0000000e+00 -2.9804407e-02 0.0000000e+00 
0.0000000e+00 -3.0023370e-02 0.0000000e+00 
0.0000000e+00 -3.0237222e-02 0.0000000e+00 
0.0000000e+00 -3.0445896e-02 0.0000000e+00 
0.0000000e+00 -3.0649329e-02 0.0000000e+00 
0.0000000e+00 -3.0847451e-02 0.0000000e+00 
0.0000000e+00 -3.1040201e-02 0.0000000e+00 
0.0000000e+00 -3.1227510e-02 0.0000000e+00 
0.0000000e+00 -3.1409312e-02 0.0000000e+00 
0.0000000e+00 -3.1585544e-02 0.0000000e+00 
0.0000000e+00 -3.1756133e-02 0.0000000e+00 
0.0000000e+00 -3.1921022e-02 0.0000000e+00 
0.0000000e+00 -3.2080133e-02 0.0000000e+00 
0.0000000e+00 -3.2233410e-02 0.0000000e+00 
0.0000000e+00 -3.2380778e-02 0.0000000e+00 
0.0000000e+00 -3.2522175e-02 0.0000000e+00 
0.0000000e+00 -3.2657530e-02 0.0000000e+00 
0.0000000e+00 -3.2786775e-02 0.0000000e+00 
0.0000000e+00 -3.2909848e-02 0.0000000e+00 
0.0000000e+00 -3.3026673e-02 0.0000000e+00 
0.0000000e+00 -3.3137191e-02 0.0000000e+00 
0.0000000e+00 -3.3241328e-02 0.0000000e+00 
0.0000000e+00 -3.3339012e-02 0.0000000e+00 
0.0000000e+00 -3.3430185e-02 0.0000000e+00 
0.0000000e+00 -3.3514772e-02 0.0000000e+00 
0.0000000e+00 -3.3592701e-02 0.0000000e+00 
0.0000000e+00 -3.3663910e-02 0.0000000e+00 
0.0000000e+00 -3.3728324e-02 0.0000000e+00 
0.0000000e+00 -3.3785880e-02 0.0000000e+00 
0.0000000e+00 -3.3836555e-02 0.0000000e+00 
0.0000000e+00 -3.3880401e-02 0.0000000e+00 
0.0000000e+00 -3.3917483e-02 0.0000000e+00 
0.0000000e+00 -3.3947866e-02 0.0000000e+00 
0.0000000e+00 -3.3971611e-02 0.0000000e+00 
0.0000000e+00 -3.3988785e-02 0.0000000e+00 
0.0000000e+00 -3.3999443e-02 0.0000000e+00 
0.0000000e+00 -3.4003653e-02 0.0000000e+00 
0.0000000e+00 -3.4001477e-02 0.0000000e+00 
0.0000000e+00 -3.3992976e-02 0.0000000e+00 
0.0000000e+00 -3.3978213e-02 0.0000000e+00 
0.0000000e+00 -3.3957247e-02 0.0000000e+00 
0.0000000e+00 -3.3930141e-02 0.0000000e+00 
0.0000000e+00 -3.3896960e-02 0.0000000e+00 
0.0000000e+00 -3.3857759e-02 0.0000000e+00 
0.0000000e+00 -3.3812605e-02 0.0000000e+00 
0.0000000e+00 -3.3761553e-02 0.0000000e+00 
0.0000000e+00 -3.3704668e-02 0.0000000e+00 
0.0000000e+00 -3.3642009e-02 0.0000000e+00 
0.0000000e+00 -3.3573635e-02 0.0000000e+00 
0.0000000e+00 -3.3499610e-02 0.0000000e+00 
0.0000000e+00 -3.3419985e-02 0.0000000e+00 
0.0000000e+00 -3.3334829e-02 0.0000000e+00 
0.0000000e+00 -3.3244196e-02 0.0000000e+00 
0.0000000e+00 -3.3148147e-02 0.0000000e+00 
0.0000000e+00 -3.3046741e-02 0.0000000e+00 
0.0000000e+00 -3.2940034e-02 0.0000000e+00 
0.0000000e+00 -3.2828089e-02 0.0000000e+00 
0.0000000e+00 -3.2710958e-02 0.0000000e+00 
0.0000000e+00 -3.2588702e-02 0.0000000e+00 
0.0000000e+00 -3.2461382e-02 0.0000000e+00 
0.0000000e+00 -3.2329053e-02 0.0000000e+00 
0.0000000e+00 -3.2191768e-02 0.0000000e+00 
0.0000000e+00 -3.2049589e-02 0.0000000e+00 
0.0000000e+00 -3.1902574e-02 0.0000000e+00 
0.0000000e+00 -3.1750776e-02 0.0000000e+00 
0.0000000e+00 -3.1594250e-02 0.0000000e+00 
0.0000000e+00 -3.1433061e-02 0.0000000e+00 
0.0000000e+00 -3.1267252e-02 0.0000000e+00 
0.0000000e+00 -3.1096889e-02 0.0000000e+00 
0.0000000e+00 -3.0922024e-02 0.0000000e+00 
0.0000000e+00 -3.0742710e-02 0.0000000e+00 
0.0000000e+00 -3.0559005e-02 0.0000000e+00 
0.0000000e+00 -3.0370964e-02 0.0000000e+00 
0.0000000e+00 -3.0178638e-02 0.0000000e+00 
0.0000000e+00 -2.9982084e-02 0.0000000e+00 
0.0000000e+00 -2.9781356e-02 0.0000000e+00 
0.0000000e+00 -2.9576508e-02 0.0000000e+00 
0.0000000e+00 -2.9367592e-02 0.0000000e+00 
0.0000000e+00 -2.9154662e-02 0.0000000e+00 
0.0000000e+00 -2.8937772e-02 0.0000000e+00 
0.0000000e+00 -2.8716974e-02 0.0000000e+00 
0.0000000e+00 -2.8492320e-02 0.0000000e+00 
0.0000000e+00 -2.8263863e-02 0.0000000e+00 
0.0000000e+00 -2.8031657e-02 0.0000000e+00 
0.0000000e+00 -2.7795751e-02 0.0000000e+00 
0.0000000e+00 -2.7556198e-02 0.0000000e+00 
0.0000000e+00 -2.7313050e-02 0.0000000e+00 
0.0000000e+00 -2.7066356e-02 0.0000000e+00 
0.0000000e+00 -2.6816171e-02 0.0000000e+00 
0.0000000e+00 -2.6562542e-02 0.0000000e+00 
0.0000000e+00 -2.6305519e-02 0.0000000e+00 
0.0000000e+00 -2.6045157e-02 0.0000000e+00 
0.0000000e+00 -2.5781503e-02 0.0000000e+00 
0.0000000e+00 -2.5514606e-02 0.0000000e+00 
0.0000000e+00 -2.5244517e-02 0.0000000e+00 
0.0000000e+00 -2.4971284e-02 0.0000000e+00 
0.0000000e+00 -2.4694959e-02 0.0000000e+00 
0.0000000e+00 -2.4415590e-02 0.0000000e+00 
0.0000000e+00 -2.4133222e-02 0.0000000e+00 
0.0000000e+00 -2.3847908e-02 0.0000000e+00 
0.0000000e+00 -2.3559695e-02 0.0000000e+00 
0.0000000e+00 -2.3268631e-02 0.0000000e+00 
0.0000000e+00 -2.2974763e-02 0.0000000e+00 
0.0000000e+00 -2.2678139e-02 0.0000000e+00 
0.0000000e+00 -2.2378808e-02 0.0000000e+00 
0.0000000e+00 -2.2076814e-02 0.0000000e+00 
0.0000000e+00 -2.1772206e-02 0.0000000e+00 
0.0000000e+00 -2.1465031e-02 0.0000000e+00 
0.0000000e+00 -2.1155335e-02 0.0000000e+00 
0.0000000e+00 -2.0843165e-02 0.0000000e+00 
0.0000000e+00 -2.0528568e-02 0.0000000e+00 
0.0000000e+00 -2.0211587e-02 0.0000000e+00 
0.0000000e+00 -1.9892270e-02 0.0000000e+00 
0.0000000e+00 -1.9570662e-02 0.0000000e+00 
0.0000000e+00 -1.9246807e-02 0.0000000e+00 
0.0000000e+00 -1.8920753e-02 0.0000000e+00 
0.0000000e+00 -1.8592544e-02 0.0000000e+00 
0.0000000e+00 -1.8262222e-02 0.0000000e+00 
0.0000000e+00 -1.7929837e-02 0.0000000e+00 
0.0000000e+00 -1.7595429e-02 0.0000000e+00 
0.0000000e+00 -1.7259045e-02 0.0000000e+00 
0.0000000e+00 -1.6920725e-02 0.0000000e+00 
0.0000000e+00 -1.6580518e-02 0.0000000e+00 
0.0000000e+00 -1.6238466e-02 0.0000000e+00 
0.0000000e+00 -1.5894610e-02 0.0000000e+00 
0.0000000e+00 -1.5548997e-02 0.0000000e+00 
0.0000000e+00 -1.5201667e-02 0.0000000e+00 
0.0000000e+00 -1.4852666e-02 0.0000000e+00 
0.0000000e+00 -1.4502036e-02 0.0000000e+00 
0.0000000e+00 -1.4149820e-02 0.0000000e+00 
0.0000000e+00 -1.3796058e-02 0.0000000e+00 
0.0000000e+00 -1.3440796e-02 0.0000000e+00 
0.0000000e+00 -1.3084075e-02 0.0000000e+00 
0.0000000e+00 -1.2725937e-02 0.0000000e+00 
0.0000000e+00 -1.2366424e-02 0.0000000e+00 
0.0000000e+00 -1.2005579e-02 0.0000000e+00 
0.0000000e+00 -1.1643441e-02 0.0000000e+00 
0.0000000e+00 -1.1280055e-02 0.0000000e+00 
0.0000000e+00 -1.0915461e-02 0.0000000e+00 
0.0000000e+00 -1.0549701e-02 0.0000000e+00 
0.0000000e+00 -1.0182815e-02 0.0000000e+00 
0.0000000e+00 -9.8148454e-03 0.0000000e+00 
0.0000000e+00 -9.4458321e-03 0.0000000e+00 
0.0000000e+00 -9.0758177e-03 0.0000000e+00 
0.0000000e+00 -8.7048430e-03 0.0000000e+00 
0.0000000e+00 -8.3329473e-03 0.0000000e+00 
0.0000000e+00 -7.9601714e-03 0.0000000e+00 
0.0000000e+00 -7.5865579e-03 0.0000000e+00 
0.0000000e+00 -7.2121453e-03 0.0000000e+00 
0.0000000e+00 -6.8369745e-03 0.0000000e+00 
0.0000000e+00 -6.4610867e-03 0.0000000e+00 
0.0000000e+00 -6.0845213e-03 0.0000000e+00 
0.0000000e+00 -5.7073189e-03 0.0000000e+00 
0.0000000e+00 -5.3295190e-03 0.0000000e+00 
0.0000000e+00 -4.9511627e-03 0.0000000e+00 
0.0000000e+00 -4.5722895e-03 0.0000000e+00 
0.0000000e+00 -4.1929390e-03 0.0000000e+00 
0.0000000e+00 -3.8131520e-03 0.0000000e+00 
0.0000000e+00 -3.4329677e-03 0.0000000e+00 
0.0000000e+00 -3.0524260e-03 0.0000000e+00 
0.0000000e+00 -2.6715670e-03 0.0000000e+00 
0.0000000e+00 -2.2904300e-03 0.0000000e+00 
0.0000000e+00 -1.9090553e-03 0.0000000e+00 
0.0000000e+00 -1.5274821e-03 0.0000000e+00 
0.0000000e+00 -1.1457504e-03 0.0000000e+00 
0.0000000e+00 -7.6389965e-04 0.0000000e+00 
0.0000000e+00 -3.8196964e-04 0.0000000e+00 
CELL_DATA 250
FIELD FieldData 0
