# vtk DataFile Version 4.0
vtk output
ASCII
DATASET UNSTRUCTURED_GRID
POINTS 251 float
0.0000000e+00 0.0000000e+00 0.0000000e+00 
2.5000000e+01 0.0000000e+00 0.0000000e+00 
1.0000000e-01 0.0000000e+00 0.0000000e+00 
2.0000000e-01 0.0000000e+00 0.0000000e+00 
3.0000001e-01 0.0000000e+00 0.0000000e+00 
4.0000001e-01 0.0000000e+00 0.0000000e+00 
5.0000000e-01 0.0000000e+00 0.0000000e+00 
6.0000002e-01 0.0000000e+00 0.0000000e+00 
6.9999999e-01 0.0000000e+00 0.0000000e+00 
8.0000001e-01 0.0000000e+00 0.0000000e+00 
8.9999998e-01 0.0000000e+00 0.0000000e+00 
1.0000000e+00 0.0000000e+00 0.0000000e+00 
1.1000000e+00 0.0000000e+00 0.0000000e+00 
1.2000000e+00 0.0000000e+00 0.0000000e+00 
1.3000000e+00 0.0000000e+00 0.0000000e+00 
1.4000000e+00 0.0000000e+00 0.0000000e+00 
1.5000000e+00 0.0000000e+00 0.0000000e+00 
1.6000000e+00 0.0000000e+00 0.0000000e+00 
1.7000000e+00 0.0000000e+00 0.0000000e+00 
1.8000000e+00 0.0000000e+00 0.0000000e+00 
1.9000000e+00 0.0000000e+00 0.0000000e+00 
2.0000000e+00 0.0000000e+00 0.0000000e+00 
2.0999999e+00 0.0000000e+00 0.0000000e+00 
2.2000000e+00 0.0000000e+00 0.0000000e+00 
2.3000000e+00 0.0000000e+00 0.0000000e+00 
2.4000001e+00 0.0000000e+00 0.0000000e+00 
2.5000000e+00 0.0000000e+00 0.0000000e+00 
2.5999999e+00 0.0000000e+00 0.0000000e+00 
2.7000000e+00 0.0000000e+00 0.0000000e+00 
2.8000000e+00 0.0000000e+00 0.0000000e+00 
2.9000001e+00 0.0000000e+00 0.0000000e+00 
3.0000000e+00 0.0000000e+00 0.0000000e+00 
3.0999999e+00 0.0000000e+00 0.0000000e+00 
3.2000000e+00 0.0000000e+00 0.0000000e+00 
3.3000000e+00 0.0000000e+00 0.0000000e+00 
3.4000001e+00 0.0000000e+00 0.0000000e+00 
3.5000000e+00 0.0000000e+00 0.0000000e+00 
3.5999999e+00 0.0000000e+00 0.0000000e+00 
3.7000000e+00 0.0000000e+00 0.0000000e+00 
3.8000000e+00 0.0000000e+00 0.0000000e+00 
3.9000001e+00 0.0000000e+00 0.0000000e+00 
4.0000000e+00 0.0000000e+00 0.0000000e+00 
4.0999999e+00 0.0000000e+00 0.0000000e+00 
4.1999998e+00 0.0000000e+00 0.0000000e+00 
4.3000002e+00 0.0000000e+00 0.0000000e+00 
4.4000001e+00 0.0000000e+00 0.0000000e+00 
4.5000000e+00 0.0000000e+00 0.0000000e+00 
4.5999999e+00 0.0000000e+00 0.0000000e+00 
4.6999998e+00 0.0000000e+00 0.0000000e+00 
4.8000002e+00 0.0000000e+00 0.0000000e+00 
4.9000001e+00 0.0000000e+00 0.0000000e+00 
5.0000000e+00 0.0000000e+00 0.0000000e+00 
5.0999999e+00 0.0000000e+00 0.0000000e+00 
5.1999998e+00 0.0000000e+00 0.0000000e+00 
5.3000002e+00 0.0000000e+00 0.0000000e+00 
5.4000001e+00 0.0000000e+00 0.0000000e+00 
5.5000000e+00 0.0000000e+00 0.0000000e+00 
5.5999999e+00 0.0000000e+00 0.0000000e+00 
5.6999998e+00 0.0000000e+00 0.0000000e+00 
5.8000002e+00 0.0000000e+00 0.0000000e+00 
5.9000001e+00 0.0000000e+00 0.0000000e+00 
6.0000000e+00 0.0000000e+00 0.0000000e+00 
6.0999999e+00 0.0000000e+00 0.0000000e+00 
6.1999998e+00 0.0000000e+00 0.0000000e+00 
6.3000002e+00 0.0000000e+00 0.0000000e+00 
6.4000001e+00 0.0000000e+00 0.0000000e+00 
6.5000000e+00 0.0000000e+00 0.0000000e+00 
6.5999999e+00 0.0000000e+00 0.0000000e+00 
6.6999998e+00 0.0000000e+00 0.0000000e+00 
6.8000002e+00 0.0000000e+00 0.0000000e+00 
6.9000001e+00 0.0000000e+00 0.0000000e+00 
7.0000000e+00 0.0000000e+00 0.0000000e+00 
7.0999999e+00 0.0000000e+00 0.0000000e+00 
7.1999998e+00 0.0000000e+00 0.0000000e+00 
7.3000002e+00 0.0000000e+00 0.0000000e+00 
7.4000001e+00 0.0000000e+00 0.0000000e+00 
7.5000000e+00 0.0000000e+00 0.0000000e+00 
7.5999999e+00 0.0000000e+00 0.0000000e+00 
7.6999998e+00 0.0000000e+00 0.0000000e+00 
7.8000002e+00 0.0000000e+00 0.0000000e+00 
7.9000001e+00 0.0000000e+00 0.0000000e+00 
8.0000000e+00 0.0000000e+00 0.0000000e+00 
8.1000004e+00 0.0000000e+00 0.0000000e+00 
8.1999998e+00 0.0000000e+00 0.0000000e+00 
8.3000002e+00 0.0000000e+00 0.0000000e+00 
8.3999996e+00 0.0000000e+00 0.0000000e+00 
8.5000000e+00 0.0000000e+00 0.0000000e+00 
8.6000004e+00 0.0000000e+00 0.0000000e+00 
8.6999998e+00 0.0000000e+00 0.0000000e+00 
8.8000002e+00 0.0000000e+00 0.0000000e+00 
8.8999996e+00 0.0000000e+00 0.0000000e+00 
9.0000000e+00 0.0000000e+00 0.0000000e+00 
9.1000004e+00 0.0000000e+00 0.0000000e+00 
9.1999998e+00 0.0000000e+00 0.0000000e+00 
9.3000002e+00 0.0000000e+00 0.0000000e+00 
9.3999996e+00 0.0000000e+00 0.0000000e+00 
9.5000000e+00 0.0000000e+00 0.0000000e+00 
9.6000004e+00 0.0000000e+00 0.0000000e+00 
9.6999998e+00 0.0000000e+00 0.0000000e+00 
9.8000002e+00 0.0000000e+00 0.0000000e+00 
9.8999996e+00 0.0000000e+00 0.0000000e+00 
1.0000000e+01 0.0000000e+00 0.0000000e+00 
1.0100000e+01 0.0000000e+00 0.0000000e+00 
1.0200000e+01 0.0000000e+00 0.0000000e+00 
1.0300000e+01 0.0000000e+00 0.0000000e+00 
1.0400000e+01 0.0000000e+00 0.0000000e+00 
1.0500000e+01 0.0000000e+00 0.0000000e+00 
1.0600000e+01 0.0000000e+00 0.0000000e+00 
1.0700000e+01 0.0000000e+00 0.0000000e+00 
1.0800000e+01 0.0000000e+00 0.0000000e+00 
1.0900000e+01 0.0000000e+00 0.0000000e+00 
1.1000000e+01 0.0000000e+00 0.0000000e+00 
1.1100000e+01 0.0000000e+00 0.0000000e+00 
1.1200000e+01 0.0000000e+00 0.0000000e+00 
1.1300000e+01 0.0000000e+00 0.0000000e+00 
1.1400000e+01 0.0000000e+00 0.0000000e+00 
1.1500000e+01 0.0000000e+00 0.0000000e+00 
1.1600000e+01 0.0000000e+00 0.0000000e+00 
1.1700000e+01 0.0000000e+00 0.0000000e+00 
1.1800000e+01 0.0000000e+00 0.0000000e+00 
1.1900000e+01 0.0000000e+00 0.0000000e+00 
1.2000000e+01 0.0000000e+00 0.0000000e+00 
1.2100000e+01 0.0000000e+00 0.0000000e+00 
1.2200000e+01 0.0000000e+00 0.0000000e+00 
1.2300000e+01 0.0000000e+00 0.0000000e+00 
1.2400000e+01 0.0000000e+00 0.0000000e+00 
1.2500000e+01 0.0000000e+00 0.0000000e+00 
1.2600000e+01 0.0000000e+00 0.0000000e+00 
1.2700000e+01 0.0000000e+00 0.0000000e+00 
1.2800000e+01 0.0000000e+00 0.0000000e+00 
1.2900000e+01 0.0000000e+00 0.0000000e+00 
1.3000000e+01 0.0000000e+00 0.0000000e+00 
1.3100000e+01 0.0000000e+00 0.0000000e+00 
1.3200000e+01 0.0000000e+00 0.0000000e+00 
1.3300000e+01 0.0000000e+00 0.0000000e+00 
1.3400000e+01 0.0000000e+00 0.0000000e+00 
1.3500000e+01 0.0000000e+00 0.0000000e+00 
1.3600000e+01 0.0000000e+00 0.0000000e+00 
1.3700000e+01 0.0000000e+00 0.0000000e+00 
1.3800000e+01 0.0000000e+00 0.0000000e+00 
1.3900000e+01 0.0000000e+00 0.0000000e+00 
1.4000000e+01 0.0000000e+00 0.0000000e+00 
1.4100000e+01 0.0000000e+00 0.0000000e+00 
1.4200000e+01 0.0000000e+00 0.0000000e+00 
1.4300000e+01 0.0000000e+00 0.0000000e+00 
1.4400000e+01 0.0000000e+00 0.0000000e+00 
1.4500000e+01 0.0000000e+00 0.0000000e+00 
1.4600000e+01 0.0000000e+00 0.0000000e+00 
1.4700000e+01 0.0000000e+00 0.0000000e+00 
1.4800000e+01 0.0000000e+00 0.0000000e+00 
1.4900000e+01 0.0000000e+00 0.0000000e+00 
1.5000000e+01 0.0000000e+00 0.0000000e+00 
1.5100000e+01 0.0000000e+00 0.0000000e+00 
1.5200000e+01 0.0000000e+00 0.0000000e+00 
1.5300000e+01 0.0000000e+00 0.0000000e+00 
1.5400000e+01 0.0000000e+00 0.0000000e+00 
1.5500000e+01 0.0000000e+00 0.0000000e+00 
1.5600000e+01 0.0000000e+00 0.0000000e+00 
1.5700000e+01 0.0000000e+00 0.0000000e+00 
1.5800000e+01 0.0000000e+00 0.0000000e+00 
1.5900000e+01 0.0000000e+00 0.0000000e+00 
1.6000000e+01 0.0000000e+00 0.0000000e+00 
1.6100000e+01 0.0000000e+00 0.0000000e+00 
1.6200001e+01 0.0000000e+00 0.0000000e+00 
1.6299999e+01 0.0000000e+00 0.0000000e+00 
1.6400000e+01 0.0000000e+00 0.0000000e+00 
1.6500000e+01 0.0000000e+00 0.0000000e+00 
1.6600000e+01 0.0000000e+00 0.0000000e+00 
1.6700001e+01 0.0000000e+00 0.0000000e+00 
1.6799999e+01 0.0000000e+00 0.0000000e+00 
1.6900000e+01 0.0000000e+00 0.0000000e+00 
1.7000000e+01 0.0000000e+00 0.0000000e+00 
1.7100000e+01 0.0000000e+00 0.0000000e+00 
1.7200001e+01 0.0000000e+00 0.0000000e+00 
1.7299999e+01 0.0000000e+00 0.0000000e+00 
1.7400000e+01 0.0000000e+00 0.0000000e+00 
1.7500000e+01 0.0000000e+00 0.0000000e+00 
1.7600000e+01 0.0000000e+00 0.0000000e+00 
1.7700001e+01 0.0000000e+00 0.0000000e+00 
1.7799999e+01 0.0000000e+00 0.0000000e+00 
1.7900000e+01 0.0000000e+00 0.0000000e+00 
1.8000000e+01 0.0000000e+00 0.0000000e+00 
1.8100000e+01 0.0000000e+00 0.0000000e+00 
1.8200001e+01 0.0000000e+00 0.0000000e+00 
1.8299999e+01 0.0000000e+00 0.0000000e+00 
1.8400000e+01 0.0000000e+00 0.0000000e+00 
1.8500000e+01 0.0000000e+00 0.0000000e+00 
1.8600000e+01 0.0000000e+00 0.0000000e+00 
1.8700001e+01 0.0000000e+00 0.0000000e+00 
1.8799999e+01 0.0000000e+00 0.0000000e+00 
1.8900000e+01 0.0000000e+00 0.0000000e+00 
1.9000000e+01 0.0000000e+00 0.0000000e+00 
1.9100000e+01 0.0000000e+00 0.0000000e+00 
1.9200001e+01 0.0000000e+00 0.0000000e+00 
1.9299999e+01 0.0000000e+00 0.0000000e+00 
1.9400000e+01 0.0000000e+00 0.0000000e+00 
1.9500000e+01 0.0000000e+00 0.0000000e+00 
1.9600000e+01 0.0000000e+00 0.0000000e+00 
1.9700001e+01 0.0000000e+00 0.0000000e+00 
1.9799999e+01 0.0000000e+00 0.0000000e+00 
1.9900000e+01 0.0000000e+00 0.0000000e+00 
2.0000000e+01 0.0000000e+00 0.0000000e+00 
2.0100000e+01 0.0000000e+00 0.0000000e+00 
2.0200001e+01 0.0000000e+00 0.0000000e+00 
2.0299999e+01 0.0000000e+00 0.0000000e+00 
2.0400000e+01 0.0000000e+00 0.0000000e+00 
2.0500000e+01 0.0000000e+00 0.0000000e+00 
2.0600000e+01 0.0000000e+00 0.0000000e+00 
2.0700001e+01 0.0000000e+00 0.0000000e+00 
2.0799999e+01 0.0000000e+00 0.0000000e+00 
2.0900000e+01 0.0000000e+00 0.0000000e+00 
2.1000000e+01 0.0000000e+00 0.0000000e+00 
2.1100000e+01 0.0000000e+00 0.0000000e+00 
2.1200001e+01 0.0000000e+00 0.0000000e+00 
2.1299999e+01 0.0000000e+00 0.0000000e+00 
2.1400000e+01 0.0000000e+00 0.0000000e+00 
2.1500000e+01 0.0000000e+00 0.0000000e+00 
2.1600000e+01 0.0000000e+00 0.0000000e+00 
2.1700001e+01 0.0000000e+00 0.0000000e+00 
2.1799999e+01 0.0000000e+00 0.0000000e+00 
2.1900000e+01 0.0000000e+00 0.0000000e+00 
2.2000000e+01 0.0000000e+00 0.0000000e+00 
2.2100000e+01 0.0000000e+00 0.0000000e+00 
2.2200001e+01 0.0000000e+00 0.0000000e+00 
2.2299999e+01 0.0000000e+00 0.0000000e+00 
2.2400000e+01 0.0000000e+00 0.0000000e+00 
2.2500000e+01 0.0000000e+00 0.0000000e+00 
2.2600000e+01 0.0000000e+00 0.0000000e+00 
2.2700001e+01 0.0000000e+00 0.0000000e+00 
2.2799999e+01 0.0000000e+00 0.0000000e+00 
2.2900000e+01 0.0000000e+00 0.0000000e+00 
2.3000000e+01 0.0000000e+00 0.0000000e+00 
2.3100000e+01 0.0000000e+00 0.0000000e+00 
2.3200001e+01 0.0000000e+00 0.0000000e+00 
2.3299999e+01 0.0000000e+00 0.0000000e+00 
2.3400000e+01 0.0000000e+00 0.0000000e+00 
2.3500000e+01 0.0000000e+00 0.0000000e+00 
2.3600000e+01 0.0000000e+00 0.0000000e+00 
2.3700001e+01 0.0000000e+00 0.0000000e+00 
2.3799999e+01 0.0000000e+00 0.0000000e+00 
2.3900000e+01 0.0000000e+00 0.0000000e+00 
2.4000000e+01 0.0000000e+00 0.0000000e+00 
2.4100000e+01 0.0000000e+00 0.0000000e+00 
2.4200001e+01 0.0000000e+00 0.0000000e+00 
2.4299999e+01 0.0000000e+00 0.0000000e+00 
2.4400000e+01 0.0000000e+00 0.0000000e+00 
2.4500000e+01 0.0000000e+00 0.0000000e+00 
2.4600000e+01 0.0000000e+00 0.0000000e+00 
2.4700001e+01 0.0000000e+00 0.0000000e+00 
2.4799999e+01 0.0000000e+00 0.0000000e+00 
2.4900000e+01 0.0000000e+00 0.0000000e+00 

CELLS 250 750
2 0 2
2 2 3
2 3 4
2 4 5
2 5 6
2 6 7
2 7 8
2 8 9
2 9 10
2 10 11
2 11 12
2 12 13
2 13 14
2 14 15
2 15 16
2 16 17
2 17 18
2 18 19
2 19 20
2 20 21
2 21 22
2 22 23
2 23 24
2 24 25
2 25 26
2 26 27
2 27 28
2 28 29
2 29 30
2 30 31
2 31 32
2 32 33
2 33 34
2 34 35
2 35 36
2 36 37
2 37 38
2 38 39
2 39 40
2 40 41
2 41 42
2 42 43
2 43 44
2 44 45
2 45 46
2 46 47
2 47 48
2 48 49
2 49 50
2 50 51
2 51 52
2 52 53
2 53 54
2 54 55
2 55 56
2 56 57
2 57 58
2 58 59
2 59 60
2 60 61
2 61 62
2 62 63
2 63 64
2 64 65
2 65 66
2 66 67
2 67 68
2 68 69
2 69 70
2 70 71
2 71 72
2 72 73
2 73 74
2 74 75
2 75 76
2 76 77
2 77 78
2 78 79
2 79 80
2 80 81
2 81 82
2 82 83
2 83 84
2 84 85
2 85 86
2 86 87
2 87 88
2 88 89
2 89 90
2 90 91
2 91 92
2 92 93
2 93 94
2 94 95
2 95 96
2 96 97
2 97 98
2 98 99
2 99 100
2 100 101
2 101 102
2 102 103
2 103 104
2 104 105
2 105 106
2 106 107
2 107 108
2 108 109
2 109 110
2 110 111
2 111 112
2 112 113
2 113 114
2 114 115
2 115 116
2 116 117
2 117 118
2 118 119
2 119 120
2 120 121
2 121 122
2 122 123
2 123 124
2 124 125
2 125 126
2 126 127
2 127 128
2 128 129
2 129 130
2 130 131
2 131 132
2 132 133
2 133 134
2 134 135
2 135 136
2 136 137
2 137 138
2 138 139
2 139 140
2 140 141
2 141 142
2 142 143
2 143 144
2 144 145
2 145 146
2 146 147
2 147 148
2 148 149
2 149 150
2 150 151
2 151 152
2 152 153
2 153 154
2 154 155
2 155 156
2 156 157
2 157 158
2 158 159
2 159 160
2 160 161
2 161 162
2 162 163
2 163 164
2 164 165
2 165 166
2 166 167
2 167 168
2 168 169
2 169 170
2 170 171
2 171 172
2 172 173
2 173 174
2 174 175
2 175 176
2 176 177
2 177 178
2 178 179
2 179 180
2 180 181
2 181 182
2 182 183
2 183 184
2 184 185
2 185 186
2 186 187
2 187 188
2 188 189
2 189 190
2 190 191
2 191 192
2 192 193
2 193 194
2 194 195
2 195 196
2 196 197
2 197 198
2 198 199
2 199 200
2 200 201
2 201 202
2 202 203
2 203 204
2 204 205
2 205 206
2 206 207
2 207 208
2 208 209
2 209 210
2 210 211
2 211 212
2 212 213
2 213 214
2 214 215
2 215 216
2 216 217
2 217 218
2 218 219
2 219 220
2 220 221
2 221 222
2 222 223
2 223 224
2 224 225
2 225 226
2 226 227
2 227 228
2 228 229
2 229 230
2 230 231
2 231 232
2 232 233
2 233 234
2 234 235
2 235 236
2 236 237
2 237 238
2 238 239
2 239 240
2 240 241
2 241 242
2 242 243
2 243 244
2 244 245
2 245 246
2 246 247
2 247 248
2 248 249
2 249 250
2 250 1

CELL_TYPES 250
3
3
3
3
3
3
3
3
3
3
3
3
3
3
3
3
3
3
3
3
3
3
3
3
3
3
3
3
3
3
3
3
3
3
3
3
3
3
3
3
3
3
3
3
3
3
3
3
3
3
3
3
3
3
3
3
3
3
3
3
3
3
3
3
3
3
3
3
3
3
3
3
3
3
3
3
3
3
3
3
3
3
3
3
3
3
3
3
3
3
3
3
3
3
3
3
3
3
3
3
3
3
3
3
3
3
3
3
3
3
3
3
3
3
3
3
3
3
3
3
3
3
3
3
3
3
3
3
3
3
3
3
3
3
3
3
3
3
3
3
3
3
3
3
3
3
3
3
3
3
3
3
3
3
3
3
3
3
3
3
3
3
3
3
3
3
3
3
3
3
3
3
3
3
3
3
3
3
3
3
3
3
3
3
3
3
3
3
3
3
3
3
3
3
3
3
3
3
3
3
3
3
3
3
3
3
3
3
3
3
3
3
3
3
3
3
3
3
3
3
3
3
3
3
3
3
3
3
3
3
3
3
3
3
3
3
3
3
3
3
3
3
3
3
3
3
3
3
3
3
POINT_DATA 251
FIELD FieldData 1
DISPLACEMENT 3 251  float
0.0000000e+00 0.0000000e+00 0.0000000e+00 
0.0000000e+00 0.0000000e+00 0.0000000e+00 
0.0000000e+00 -6.4002816e-05 0.0000000e+00 
0.0000000e+00 -1.2800281e-04 0.0000000e+00 
0.0000000e+00 -1.9199717e-04 0.0000000e+00 
0.0000000e+00 -2.5598306e-04 0.0000000e+00 
0.0000000e+00 -3.1995767e-04 0.0000000e+00 
0.0000000e+00 -3.8391817e-04 0.0000000e+00 
0.0000000e+00 -4.4786168e-04 0.0000000e+00 
0.0000000e+00 -5.1178539e-04 0.0000000e+00 
0.0000000e+00 -5.7568640e-04 0.0000000e+00 
0.0000000e+00 -6.3956191e-04 0.0000000e+00 
0.0000000e+00 -7.0340896e-04 0.0000000e+00 
0.0000000e+00 -7.6722470e-04 0.0000000e+00 
0.0000000e+00 -8.3100615e-04 0.0000000e+00 
0.0000000e+00 -8.9475047e-04 0.0000000e+00 
0.0000000e+00 -9.5845462e-04 0.0000000e+00 
0.0000000e+00 -1.0221157e-03 0.0000000e+00 
0.0000000e+00 -1.0857307e-03 0.0000000e+00 
0.0000000e+00 -1.1492965e-03 0.0000000e+00 
0.0000000e+00 -1.2128103e-03 0.0000000e+00 
0.0000000e+00 -1.2762687e-03 0.0000000e+00 
0.0000000e+00 -1.3396689e-03 0.0000000e+00 
0.0000000e+00 -1.4030075e-03 0.0000000e+00 
0.0000000e+00 -1.4662816e-03 0.0000000e+00 
0.0000000e+00 -1.5294879e-03 0.0000000e+00 
0.0000000e+00 -1.5926232e-03 0.0000000e+00 
0.0000000e+00 -1.6556842e-03 0.0000000e+00 
0.0000000e+00 -1.7186677e-03 0.0000000e+00 
0.0000000e+00 -1.7815703e-03 0.0000000e+00 
0.0000000e+00 -1.8443885e-03 0.0000000e+00 
0.0000000e+00 -1.9071192e-03 0.0000000e+00 
0.0000000e+00 -1.9697587e-03 0.0000000e+00 
0.0000000e+00 -2.0323037e-03 0.0000000e+00 
0.0000000e+00 -2.0947505e-03 0.0000000e+00 
0.0000000e+00 -2.1570956e-03 0.0000000e+00 
0.0000000e+00 -2.2193352e-03 0.0000000e+00 
0.0000000e+00 -2.2814658e-03 0.0000000e+00 
0.0000000e+00 -2.3434837e-03 0.0000000e+00 
0.0000000e+00 -2.4053853e-03 0.0000000e+00 
0.0000000e+00 -2.4671662e-03 0.0000000e+00 
0.0000000e+00 -2.5288230e-03 0.0000000e+00 
0.0000000e+00 -2.5903517e-03 0.0000000e+00 
0.0000000e+00 -2.6517480e-03 0.0000000e+00 
0.0000000e+00 -2.7130083e-03 0.0000000e+00 
0.0000000e+00 -2.7741282e-03 0.0000000e+00 
0.0000000e+00 -2.8351035e-03 0.0000000e+00 
0.0000000e+00 -2.8959301e-03 0.0000000e+00 
0.0000000e+00 -2.9566039e-03 0.0000000e+00 
0.0000000e+00 -3.0171201e-03 0.0000000e+00 
0.0000000e+00 -3.0774747e-03 0.0000000e+00 
0.0000000e+00 -3.1376628e-03 0.0000000e+00 
0.0000000e+00 -3.1976802e-03 0.0000000e+00 
0.0000000e+00 -3.2575221e-03 0.0000000e+00 
0.0000000e+00 -3.3171840e-03 0.0000000e+00 
0.0000000e+00 -3.3766611e-03 0.0000000e+00 
0.0000000e+00 -3.4359482e-03 0.0000000e+00 
0.0000000e+00 -3.4950410e-03 0.0000000e+00 
0.0000000e+00 -3.5539339e-03 0.0000000e+00 
0.0000000e+00 -3.6126226e-03 0.0000000e+00 
0.0000000e+00 -3.6711013e-03 0.0000000e+00 
0.0000000e+00 -3.7293651e-03 0.0000000e+00 
0.0000000e+00 -3.7874086e-03 0.0000000e+00 
0.0000000e+00 -3.8452267e-03 0.0000000e+00 
0.0000000e+00 -3.9028139e-03 0.0000000e+00 
0.0000000e+00 -3.9601643e-03 0.0000000e+00 
0.0000000e+00 -4.0172730e-03 0.0000000e+00 
0.0000000e+00 -4.0741335e-03 0.0000000e+00 
0.0000000e+00 -4.1307406e-03 0.0000000e+00 
0.0000000e+00 -4.1870885e-03 0.0000000e+00 
0.0000000e+00 -4.2431708e-03 0.0000000e+00 
0.0000000e+00 -4.2989822e-03 0.0000000e+00 
0.0000000e+00 -4.3545160e-03 0.0000000e+00 
0.0000000e+00 -4.4097658e-03 0.0000000e+00 
0.0000000e+00 -4.4647264e-03 0.0000000e+00 
0.0000000e+00 -4.5193904e-03 0.0000000e+00 
0.0000000e+00 -4.5737517e-03 0.0000000e+00 
0.0000000e+00 -4.6278043e-03 0.0000000e+00 
0.0000000e+00 -4.6815407e-03 0.0000000e+00 
0.0000000e+00 -4.7349543e-03 0.0000000e+00 
0.0000000e+00 -4.7880388e-03 0.0000000e+00 
0.0000000e+00 -4.8407866e-03 0.0000000e+00 
0.0000000e+00 -4.8931916e-03 0.0000000e+00 
0.0000000e+00 -4.9452460e-03 0.0000000e+00 
0.0000000e+00 -4.9969428e-03 0.0000000e+00 
0.0000000e+00 -5.0482745e-03 0.0000000e+00 
0.0000000e+00 -5.0992342e-03 0.0000000e+00 
0.0000000e+00 -5.1498143e-03 0.0000000e+00 
0.0000000e+00 -5.2000070e-03 0.0000000e+00 
0.0000000e+00 -5.2498044e-03 0.0000000e+00 
0.0000000e+00 -5.2991994e-03 0.0000000e+00 
0.0000000e+00 -5.3481837e-03 0.0000000e+00 
0.0000000e+00 -5.3967494e-03 0.0000000e+00 
0.0000000e+00 -5.4448880e-03 0.0000000e+00 
0.0000000e+00 -5.4925922e-03 0.0000000e+00 
0.0000000e+00 -5.5398531e-03 0.0000000e+00 
0.0000000e+00 -5.5866623e-03 0.0000000e+00 
0.0000000e+00 -5.6330119e-03 0.0000000e+00 
0.0000000e+00 -5.6788926e-03 0.0000000e+00 
0.0000000e+00 -5.7242960e-03 0.0000000e+00 
0.0000000e+00 -5.7692137e-03 0.0000000e+00 
0.0000000e+00 -5.8136364e-03 0.0000000e+00 
0.0000000e+00 -5.8575552e-03 0.0000000e+00 
0.0000000e+00 -5.9009609e-03 0.0000000e+00 
0.0000000e+00 -5.9438446e-03 0.0000000e+00 
0.0000000e+00 -5.9861969e-03 0.0000000e+00 
0.0000000e+00 -6.0280082e-03 0.0000000e+00 
0.0000000e+00 -6.0692690e-03 0.0000000e+00 
0.0000000e+00 -6.1099697e-03 0.0000000e+00 
0.0000000e+00 -6.1501008e-03 0.0000000e+00 
0.0000000e+00 -6.1896527e-03 0.0000000e+00 
0.0000000e+00 -6.2286146e-03 0.0000000e+00 
0.0000000e+00 -6.2669776e-03 0.0000000e+00 
0.0000000e+00 -6.3047307e-03 0.0000000e+00 
0.0000000e+00 -6.3418639e-03 0.0000000e+00 
0.0000000e+00 -6.3783666e-03 0.0000000e+00 
0.0000000e+00 -6.4142291e-03 0.0000000e+00 
0.0000000e+00 -6.4494405e-03 0.0000000e+00 
0.0000000e+00 -6.4839898e-03 0.0000000e+00 
0.0000000e+00 -6.5178662e-03 0.0000000e+00 
0.0000000e+00 -6.5510594e-03 0.0000000e+00 
0.0000000e+00 -6.5835579e-03 0.0000000e+00 
0.0000000e+00 -6.6153514e-03 0.0000000e+00 
0.0000000e+00 -6.6464278e-03 0.0000000e+00 
0.0000000e+00 -6.6767759e-03 0.0000000e+00 
0.0000000e+00 -6.7063849e-03 0.0000000e+00 
0.0000000e+00 -6.7352429e-03 0.0000000e+00 
0.0000000e+00 -6.7633386e-03 0.0000000e+00 
0.0000000e+00 -6.7906599e-03 0.0000000e+00 
0.0000000e+00 -6.8171951e-03 0.0000000e+00 
0.0000000e+00 -6.8429327e-03 0.0000000e+00 
0.0000000e+00 -6.8678600e-03 0.0000000e+00 
0.0000000e+00 -6.8919654e-03 0.0000000e+00 
0.0000000e+00 -6.9152364e-03 0.0000000e+00 
0.0000000e+00 -6.9376607e-03 0.0000000e+00 
0.0000000e+00 -6.9592260e-03 0.0000000e+00 
0.0000000e+00 -6.9799195e-03 0.0000000e+00 
0.0000000e+00 -6.9997292e-03 0.0000000e+00 
0.0000000e+00 -7.0186416e-03 0.0000000e+00 
0.0000000e+00 -7.0366445e-03 0.0000000e+00 
0.0000000e+00 -7.0537245e-03 0.0000000e+00 
0.0000000e+00 -7.0698690e-03 0.0000000e+00 
0.0000000e+00 -7.0850644e-03 0.0000000e+00 
0.0000000e+00 -7.0992983e-03 0.0000000e+00 
0.0000000e+00 -7.1125561e-03 0.0000000e+00 
0.0000000e+00 -7.1248254e-03 0.0000000e+00 
0.0000000e+00 -7.1360921e-03 0.0000000e+00 
0.0000000e+00 -7.1463431e-03 0.0000000e+00 
0.0000000e+00 -7.1555641e-03 0.0000000e+00 
0.0000000e+00 -7.1637416e-03 0.0000000e+00 
0.0000000e+00 -7.1708621e-03 0.0000000e+00 
0.0000000e+00 -7.1769105e-03 0.0000000e+00 
0.0000000e+00 -7.1818740e-03 0.0000000e+00 
0.0000000e+00 -7.1857376e-03 0.0000000e+00 
0.0000000e+00 -7.1884873e-03 0.0000000e+00 
0.0000000e+00 -7.1901088e-03 0.0000000e+00 
0.0000000e+00 -7.1905870e-03 0.0000000e+00 
0.0000000e+00 -7.1899081e-03 0.0000000e+00 
0.0000000e+00 -7.1880571e-03 0.0000000e+00 
0.0000000e+00 -7.1850196e-03 0.0000000e+00 
0.0000000e+00 -7.1807806e-03 0.0000000e+00 
0.0000000e+00 -7.1753250e-03 0.0000000e+00 
0.0000000e+00 -7.1686376e-03 0.0000000e+00 
0.0000000e+00 -7.1607041e-03 0.0000000e+00 
0.0000000e+00 -7.1515087e-03 0.0000000e+00 
0.0000000e+00 -7.1410364e-03 0.0000000e+00 
0.0000000e+00 -7.1292720e-03 0.0000000e+00 
0.0000000e+00 -7.1161999e-03 0.0000000e+00 
0.0000000e+00 -7.1018045e-03 0.0000000e+00 
0.0000000e+00 -7.0860703e-03 0.0000000e+00 
0.0000000e+00 -7.0689819e-03 0.0000000e+00 
0.0000000e+00 -7.0505231e-03 0.0000000e+00 
0.0000000e+00 -7.0306784e-03 0.0000000e+00 
0.0000000e+00 -7.0094322e-03 0.0000000e+00 
0.0000000e+00 -6.9867680e-03 0.0000000e+00 
0.0000000e+00 -6.9626695e-03 0.0000000e+00 
0.0000000e+00 -6.9371215e-03 0.0000000e+00 
0.0000000e+00 -6.9101076e-03 0.0000000e+00 
0.0000000e+00 -6.8816110e-03 0.0000000e+00 
0.0000000e+00 -6.8516154e-03 0.0000000e+00 
0.0000000e+00 -6.8201050e-03 0.0000000e+00 
0.0000000e+00 -6.7870631e-03 0.0000000e+00 
0.0000000e+00 -6.7524728e-03 0.0000000e+00 
0.0000000e+00 -6.7163180e-03 0.0000000e+00 
0.0000000e+00 -6.6785817e-03 0.0000000e+00 
0.0000000e+00 -6.6392473e-03 0.0000000e+00 
0.0000000e+00 -6.5982975e-03 0.0000000e+00 
0.0000000e+00 -6.5557165e-03 0.0000000e+00 
0.0000000e+00 -6.5114866e-03 0.0000000e+00 
0.0000000e+00 -6.4655910e-03 0.0000000e+00 
0.0000000e+00 -6.4180125e-03 0.0000000e+00 
0.0000000e+00 -6.3687344e-03 0.0000000e+00 
0.0000000e+00 -6.3177389e-03 0.0000000e+00 
0.0000000e+00 -6.2650093e-03 0.0000000e+00 
0.0000000e+00 -6.2105283e-03 0.0000000e+00 
0.0000000e+00 -6.1542783e-03 0.0000000e+00 
0.0000000e+00 -6.0962425e-03 0.0000000e+00 
0.0000000e+00 -6.0364027e-03 0.0000000e+00 
0.0000000e+00 -5.9747417e-03 0.0000000e+00 
0.0000000e+00 -5.9112418e-03 0.0000000e+00 
0.0000000e+00 -5.8458857e-03 0.0000000e+00 
0.0000000e+00 -5.7786559e-03 0.0000000e+00 
0.0000000e+00 -5.7095340e-03 0.0000000e+00 
0.0000000e+00 -5.6385035e-03 0.0000000e+00 
0.0000000e+00 -5.5655451e-03 0.0000000e+00 
0.0000000e+00 -5.4906420e-03 0.0000000e+00 
0.0000000e+00 -5.4137763e-03 0.0000000e+00 
0.0000000e+00 -5.3349296e-03 0.0000000e+00 
0.0000000e+00 -5.2540842e-03 0.0000000e+00 
0.0000000e+00 -5.1712226e-03 0.0000000e+00 
0.0000000e+00 -5.0863256e-03 0.0000000e+00 
0.0000000e+00 -4.9993764e-03 0.0000000e+00 
0.0000000e+00 -4.9103559e-03 0.0000000e+00 
0.0000000e+00 -4.8192460e-03 0.0000000e+00 
0.0000000e+00 -4.7260295e-03 0.0000000e+00 
0.0000000e+00 -4.6306872e-03 0.0000000e+00 
0.0000000e+00 -4.5332010e-03 0.0000000e+00 
0.0000000e+00 -4.4335532e-03 0.0000000e+00 
0.0000000e+00 -4.3317252e-03 0.0000000e+00 
0.0000000e+00 -4.2276978e-03 0.0000000e+00 
0.0000000e+00 -4.1214540e-03 0.0000000e+00 
0.0000000e+00 -4.0129744e-03 0.0000000e+00 
0.0000000e+00 -3.9022414e-03 0.0000000e+00 
0.0000000e+00 -3.7892370e-03 0.0000000e+00 
0.0000000e+00 -3.6739726e-03 0.0000000e+00 
0.0000000e+00 -3.5565181e-03 0.0000000e+00 
0.0000000e+00 -3.4369549e-03 0.0000000e+00 
0.0000000e+00 -3.3153642e-03 0.0000000e+00 
0.0000000e+00 -3.1918273e-03 0.0000000e+00 
0.0000000e+00 -3.0664254e-03 0.0000000e+00 
0.0000000e+00 -2.9392398e-03 0.0000000e+00 
0.0000000e+00 -2.8103518e-03 0.0000000e+00 
0.0000000e+00 -2.6798425e-03 0.0000000e+00 
0.0000000e+00 -2.5477931e-03 0.0000000e+00 
0.0000000e+00 -2.4142847e-03 0.0000000e+00 
0.0000000e+00 -2.2793985e-03 0.0000000e+00 
0.0000000e+00 -2.1432156e-03 0.0000000e+00 
0.0000000e+00 -2.0058171e-03 0.0000000e+00 
0.0000000e+00 -1.8672842e-03 0.0000000e+00 
0.0000000e+00 -1.7276979e-03 0.0000000e+00 
0.0000000e+00 -1.5871392e-03 0.0000000e+00 
0.0000000e+00 -1.4456894e-03 0.0000000e+00 
0.0000000e+00 -1.3034292e-03 0.0000000e+00 
0.0000000e+00 -1.1604400e-03 0.0000000e+00 
0.0000000e+00 -1.0168027e-03 0.0000000e+00 
0.0000000e+00 -8.7259826e-04 0.0000000e+00 
0.0000000e+00 -7.2790781e-04 0.0000000e+00 
0.0000000e+00 -5.8281230e-04 0.0000000e+00 
0.0000000e+00 -4.3739271e-04 0.0000000e+00 
0.0000000e+00 -2.9173016e-04 0.0000000e+00 
0.0000000e+00 -1.4590558e-04 0.0000000e+00 
CELL_DATA 250
FIELD FieldData 0
