# vtk DataFile Version 4.0
vtk output
ASCII
DATASET UNSTRUCTURED_GRID
POINTS 251 float
0.0000000e+00 0.0000000e+00 0.0000000e+00 
2.5000000e+01 0.0000000e+00 0.0000000e+00 
1.0000000e-01 0.0000000e+00 0.0000000e+00 
2.0000000e-01 0.0000000e+00 0.0000000e+00 
3.0000001e-01 0.0000000e+00 0.0000000e+00 
4.0000001e-01 0.0000000e+00 0.0000000e+00 
5.0000000e-01 0.0000000e+00 0.0000000e+00 
6.0000002e-01 0.0000000e+00 0.0000000e+00 
6.9999999e-01 0.0000000e+00 0.0000000e+00 
8.0000001e-01 0.0000000e+00 0.0000000e+00 
8.9999998e-01 0.0000000e+00 0.0000000e+00 
1.0000000e+00 0.0000000e+00 0.0000000e+00 
1.1000000e+00 0.0000000e+00 0.0000000e+00 
1.2000000e+00 0.0000000e+00 0.0000000e+00 
1.3000000e+00 0.0000000e+00 0.0000000e+00 
1.4000000e+00 0.0000000e+00 0.0000000e+00 
1.5000000e+00 0.0000000e+00 0.0000000e+00 
1.6000000e+00 0.0000000e+00 0.0000000e+00 
1.7000000e+00 0.0000000e+00 0.0000000e+00 
1.8000000e+00 0.0000000e+00 0.0000000e+00 
1.9000000e+00 0.0000000e+00 0.0000000e+00 
2.0000000e+00 0.0000000e+00 0.0000000e+00 
2.0999999e+00 0.0000000e+00 0.0000000e+00 
2.2000000e+00 0.0000000e+00 0.0000000e+00 
2.3000000e+00 0.0000000e+00 0.0000000e+00 
2.4000001e+00 0.0000000e+00 0.0000000e+00 
2.5000000e+00 0.0000000e+00 0.0000000e+00 
2.5999999e+00 0.0000000e+00 0.0000000e+00 
2.7000000e+00 0.0000000e+00 0.0000000e+00 
2.8000000e+00 0.0000000e+00 0.0000000e+00 
2.9000001e+00 0.0000000e+00 0.0000000e+00 
3.0000000e+00 0.0000000e+00 0.0000000e+00 
3.0999999e+00 0.0000000e+00 0.0000000e+00 
3.2000000e+00 0.0000000e+00 0.0000000e+00 
3.3000000e+00 0.0000000e+00 0.0000000e+00 
3.4000001e+00 0.0000000e+00 0.0000000e+00 
3.5000000e+00 0.0000000e+00 0.0000000e+00 
3.5999999e+00 0.0000000e+00 0.0000000e+00 
3.7000000e+00 0.0000000e+00 0.0000000e+00 
3.8000000e+00 0.0000000e+00 0.0000000e+00 
3.9000001e+00 0.0000000e+00 0.0000000e+00 
4.0000000e+00 0.0000000e+00 0.0000000e+00 
4.0999999e+00 0.0000000e+00 0.0000000e+00 
4.1999998e+00 0.0000000e+00 0.0000000e+00 
4.3000002e+00 0.0000000e+00 0.0000000e+00 
4.4000001e+00 0.0000000e+00 0.0000000e+00 
4.5000000e+00 0.0000000e+00 0.0000000e+00 
4.5999999e+00 0.0000000e+00 0.0000000e+00 
4.6999998e+00 0.0000000e+00 0.0000000e+00 
4.8000002e+00 0.0000000e+00 0.0000000e+00 
4.9000001e+00 0.0000000e+00 0.0000000e+00 
5.0000000e+00 0.0000000e+00 0.0000000e+00 
5.0999999e+00 0.0000000e+00 0.0000000e+00 
5.1999998e+00 0.0000000e+00 0.0000000e+00 
5.3000002e+00 0.0000000e+00 0.0000000e+00 
5.4000001e+00 0.0000000e+00 0.0000000e+00 
5.5000000e+00 0.0000000e+00 0.0000000e+00 
5.5999999e+00 0.0000000e+00 0.0000000e+00 
5.6999998e+00 0.0000000e+00 0.0000000e+00 
5.8000002e+00 0.0000000e+00 0.0000000e+00 
5.9000001e+00 0.0000000e+00 0.0000000e+00 
6.0000000e+00 0.0000000e+00 0.0000000e+00 
6.0999999e+00 0.0000000e+00 0.0000000e+00 
6.1999998e+00 0.0000000e+00 0.0000000e+00 
6.3000002e+00 0.0000000e+00 0.0000000e+00 
6.4000001e+00 0.0000000e+00 0.0000000e+00 
6.5000000e+00 0.0000000e+00 0.0000000e+00 
6.5999999e+00 0.0000000e+00 0.0000000e+00 
6.6999998e+00 0.0000000e+00 0.0000000e+00 
6.8000002e+00 0.0000000e+00 0.0000000e+00 
6.9000001e+00 0.0000000e+00 0.0000000e+00 
7.0000000e+00 0.0000000e+00 0.0000000e+00 
7.0999999e+00 0.0000000e+00 0.0000000e+00 
7.1999998e+00 0.0000000e+00 0.0000000e+00 
7.3000002e+00 0.0000000e+00 0.0000000e+00 
7.4000001e+00 0.0000000e+00 0.0000000e+00 
7.5000000e+00 0.0000000e+00 0.0000000e+00 
7.5999999e+00 0.0000000e+00 0.0000000e+00 
7.6999998e+00 0.0000000e+00 0.0000000e+00 
7.8000002e+00 0.0000000e+00 0.0000000e+00 
7.9000001e+00 0.0000000e+00 0.0000000e+00 
8.0000000e+00 0.0000000e+00 0.0000000e+00 
8.1000004e+00 0.0000000e+00 0.0000000e+00 
8.1999998e+00 0.0000000e+00 0.0000000e+00 
8.3000002e+00 0.0000000e+00 0.0000000e+00 
8.3999996e+00 0.0000000e+00 0.0000000e+00 
8.5000000e+00 0.0000000e+00 0.0000000e+00 
8.6000004e+00 0.0000000e+00 0.0000000e+00 
8.6999998e+00 0.0000000e+00 0.0000000e+00 
8.8000002e+00 0.0000000e+00 0.0000000e+00 
8.8999996e+00 0.0000000e+00 0.0000000e+00 
9.0000000e+00 0.0000000e+00 0.0000000e+00 
9.1000004e+00 0.0000000e+00 0.0000000e+00 
9.1999998e+00 0.0000000e+00 0.0000000e+00 
9.3000002e+00 0.0000000e+00 0.0000000e+00 
9.3999996e+00 0.0000000e+00 0.0000000e+00 
9.5000000e+00 0.0000000e+00 0.0000000e+00 
9.6000004e+00 0.0000000e+00 0.0000000e+00 
9.6999998e+00 0.0000000e+00 0.0000000e+00 
9.8000002e+00 0.0000000e+00 0.0000000e+00 
9.8999996e+00 0.0000000e+00 0.0000000e+00 
1.0000000e+01 0.0000000e+00 0.0000000e+00 
1.0100000e+01 0.0000000e+00 0.0000000e+00 
1.0200000e+01 0.0000000e+00 0.0000000e+00 
1.0300000e+01 0.0000000e+00 0.0000000e+00 
1.0400000e+01 0.0000000e+00 0.0000000e+00 
1.0500000e+01 0.0000000e+00 0.0000000e+00 
1.0600000e+01 0.0000000e+00 0.0000000e+00 
1.0700000e+01 0.0000000e+00 0.0000000e+00 
1.0800000e+01 0.0000000e+00 0.0000000e+00 
1.0900000e+01 0.0000000e+00 0.0000000e+00 
1.1000000e+01 0.0000000e+00 0.0000000e+00 
1.1100000e+01 0.0000000e+00 0.0000000e+00 
1.1200000e+01 0.0000000e+00 0.0000000e+00 
1.1300000e+01 0.0000000e+00 0.0000000e+00 
1.1400000e+01 0.0000000e+00 0.0000000e+00 
1.1500000e+01 0.0000000e+00 0.0000000e+00 
1.1600000e+01 0.0000000e+00 0.0000000e+00 
1.1700000e+01 0.0000000e+00 0.0000000e+00 
1.1800000e+01 0.0000000e+00 0.0000000e+00 
1.1900000e+01 0.0000000e+00 0.0000000e+00 
1.2000000e+01 0.0000000e+00 0.0000000e+00 
1.2100000e+01 0.0000000e+00 0.0000000e+00 
1.2200000e+01 0.0000000e+00 0.0000000e+00 
1.2300000e+01 0.0000000e+00 0.0000000e+00 
1.2400000e+01 0.0000000e+00 0.0000000e+00 
1.2500000e+01 0.0000000e+00 0.0000000e+00 
1.2600000e+01 0.0000000e+00 0.0000000e+00 
1.2700000e+01 0.0000000e+00 0.0000000e+00 
1.2800000e+01 0.0000000e+00 0.0000000e+00 
1.2900000e+01 0.0000000e+00 0.0000000e+00 
1.3000000e+01 0.0000000e+00 0.0000000e+00 
1.3100000e+01 0.0000000e+00 0.0000000e+00 
1.3200000e+01 0.0000000e+00 0.0000000e+00 
1.3300000e+01 0.0000000e+00 0.0000000e+00 
1.3400000e+01 0.0000000e+00 0.0000000e+00 
1.3500000e+01 0.0000000e+00 0.0000000e+00 
1.3600000e+01 0.0000000e+00 0.0000000e+00 
1.3700000e+01 0.0000000e+00 0.0000000e+00 
1.3800000e+01 0.0000000e+00 0.0000000e+00 
1.3900000e+01 0.0000000e+00 0.0000000e+00 
1.4000000e+01 0.0000000e+00 0.0000000e+00 
1.4100000e+01 0.0000000e+00 0.0000000e+00 
1.4200000e+01 0.0000000e+00 0.0000000e+00 
1.4300000e+01 0.0000000e+00 0.0000000e+00 
1.4400000e+01 0.0000000e+00 0.0000000e+00 
1.4500000e+01 0.0000000e+00 0.0000000e+00 
1.4600000e+01 0.0000000e+00 0.0000000e+00 
1.4700000e+01 0.0000000e+00 0.0000000e+00 
1.4800000e+01 0.0000000e+00 0.0000000e+00 
1.4900000e+01 0.0000000e+00 0.0000000e+00 
1.5000000e+01 0.0000000e+00 0.0000000e+00 
1.5100000e+01 0.0000000e+00 0.0000000e+00 
1.5200000e+01 0.0000000e+00 0.0000000e+00 
1.5300000e+01 0.0000000e+00 0.0000000e+00 
1.5400000e+01 0.0000000e+00 0.0000000e+00 
1.5500000e+01 0.0000000e+00 0.0000000e+00 
1.5600000e+01 0.0000000e+00 0.0000000e+00 
1.5700000e+01 0.0000000e+00 0.0000000e+00 
1.5800000e+01 0.0000000e+00 0.0000000e+00 
1.5900000e+01 0.0000000e+00 0.0000000e+00 
1.6000000e+01 0.0000000e+00 0.0000000e+00 
1.6100000e+01 0.0000000e+00 0.0000000e+00 
1.6200001e+01 0.0000000e+00 0.0000000e+00 
1.6299999e+01 0.0000000e+00 0.0000000e+00 
1.6400000e+01 0.0000000e+00 0.0000000e+00 
1.6500000e+01 0.0000000e+00 0.0000000e+00 
1.6600000e+01 0.0000000e+00 0.0000000e+00 
1.6700001e+01 0.0000000e+00 0.0000000e+00 
1.6799999e+01 0.0000000e+00 0.0000000e+00 
1.6900000e+01 0.0000000e+00 0.0000000e+00 
1.7000000e+01 0.0000000e+00 0.0000000e+00 
1.7100000e+01 0.0000000e+00 0.0000000e+00 
1.7200001e+01 0.0000000e+00 0.0000000e+00 
1.7299999e+01 0.0000000e+00 0.0000000e+00 
1.7400000e+01 0.0000000e+00 0.0000000e+00 
1.7500000e+01 0.0000000e+00 0.0000000e+00 
1.7600000e+01 0.0000000e+00 0.0000000e+00 
1.7700001e+01 0.0000000e+00 0.0000000e+00 
1.7799999e+01 0.0000000e+00 0.0000000e+00 
1.7900000e+01 0.0000000e+00 0.0000000e+00 
1.8000000e+01 0.0000000e+00 0.0000000e+00 
1.8100000e+01 0.0000000e+00 0.0000000e+00 
1.8200001e+01 0.0000000e+00 0.0000000e+00 
1.8299999e+01 0.0000000e+00 0.0000000e+00 
1.8400000e+01 0.0000000e+00 0.0000000e+00 
1.8500000e+01 0.0000000e+00 0.0000000e+00 
1.8600000e+01 0.0000000e+00 0.0000000e+00 
1.8700001e+01 0.0000000e+00 0.0000000e+00 
1.8799999e+01 0.0000000e+00 0.0000000e+00 
1.8900000e+01 0.0000000e+00 0.0000000e+00 
1.9000000e+01 0.0000000e+00 0.0000000e+00 
1.9100000e+01 0.0000000e+00 0.0000000e+00 
1.9200001e+01 0.0000000e+00 0.0000000e+00 
1.9299999e+01 0.0000000e+00 0.0000000e+00 
1.9400000e+01 0.0000000e+00 0.0000000e+00 
1.9500000e+01 0.0000000e+00 0.0000000e+00 
1.9600000e+01 0.0000000e+00 0.0000000e+00 
1.9700001e+01 0.0000000e+00 0.0000000e+00 
1.9799999e+01 0.0000000e+00 0.0000000e+00 
1.9900000e+01 0.0000000e+00 0.0000000e+00 
2.0000000e+01 0.0000000e+00 0.0000000e+00 
2.0100000e+01 0.0000000e+00 0.0000000e+00 
2.0200001e+01 0.0000000e+00 0.0000000e+00 
2.0299999e+01 0.0000000e+00 0.0000000e+00 
2.0400000e+01 0.0000000e+00 0.0000000e+00 
2.0500000e+01 0.0000000e+00 0.0000000e+00 
2.0600000e+01 0.0000000e+00 0.0000000e+00 
2.0700001e+01 0.0000000e+00 0.0000000e+00 
2.0799999e+01 0.0000000e+00 0.0000000e+00 
2.0900000e+01 0.0000000e+00 0.0000000e+00 
2.1000000e+01 0.0000000e+00 0.0000000e+00 
2.1100000e+01 0.0000000e+00 0.0000000e+00 
2.1200001e+01 0.0000000e+00 0.0000000e+00 
2.1299999e+01 0.0000000e+00 0.0000000e+00 
2.1400000e+01 0.0000000e+00 0.0000000e+00 
2.1500000e+01 0.0000000e+00 0.0000000e+00 
2.1600000e+01 0.0000000e+00 0.0000000e+00 
2.1700001e+01 0.0000000e+00 0.0000000e+00 
2.1799999e+01 0.0000000e+00 0.0000000e+00 
2.1900000e+01 0.0000000e+00 0.0000000e+00 
2.2000000e+01 0.0000000e+00 0.0000000e+00 
2.2100000e+01 0.0000000e+00 0.0000000e+00 
2.2200001e+01 0.0000000e+00 0.0000000e+00 
2.2299999e+01 0.0000000e+00 0.0000000e+00 
2.2400000e+01 0.0000000e+00 0.0000000e+00 
2.2500000e+01 0.0000000e+00 0.0000000e+00 
2.2600000e+01 0.0000000e+00 0.0000000e+00 
2.2700001e+01 0.0000000e+00 0.0000000e+00 
2.2799999e+01 0.0000000e+00 0.0000000e+00 
2.2900000e+01 0.0000000e+00 0.0000000e+00 
2.3000000e+01 0.0000000e+00 0.0000000e+00 
2.3100000e+01 0.0000000e+00 0.0000000e+00 
2.3200001e+01 0.0000000e+00 0.0000000e+00 
2.3299999e+01 0.0000000e+00 0.0000000e+00 
2.3400000e+01 0.0000000e+00 0.0000000e+00 
2.3500000e+01 0.0000000e+00 0.0000000e+00 
2.3600000e+01 0.0000000e+00 0.0000000e+00 
2.3700001e+01 0.0000000e+00 0.0000000e+00 
2.3799999e+01 0.0000000e+00 0.0000000e+00 
2.3900000e+01 0.0000000e+00 0.0000000e+00 
2.4000000e+01 0.0000000e+00 0.0000000e+00 
2.4100000e+01 0.0000000e+00 0.0000000e+00 
2.4200001e+01 0.0000000e+00 0.0000000e+00 
2.4299999e+01 0.0000000e+00 0.0000000e+00 
2.4400000e+01 0.0000000e+00 0.0000000e+00 
2.4500000e+01 0.0000000e+00 0.0000000e+00 
2.4600000e+01 0.0000000e+00 0.0000000e+00 
2.4700001e+01 0.0000000e+00 0.0000000e+00 
2.4799999e+01 0.0000000e+00 0.0000000e+00 
2.4900000e+01 0.0000000e+00 0.0000000e+00 

CELLS 250 750
2 0 2
2 2 3
2 3 4
2 4 5
2 5 6
2 6 7
2 7 8
2 8 9
2 9 10
2 10 11
2 11 12
2 12 13
2 13 14
2 14 15
2 15 16
2 16 17
2 17 18
2 18 19
2 19 20
2 20 21
2 21 22
2 22 23
2 23 24
2 24 25
2 25 26
2 26 27
2 27 28
2 28 29
2 29 30
2 30 31
2 31 32
2 32 33
2 33 34
2 34 35
2 35 36
2 36 37
2 37 38
2 38 39
2 39 40
2 40 41
2 41 42
2 42 43
2 43 44
2 44 45
2 45 46
2 46 47
2 47 48
2 48 49
2 49 50
2 50 51
2 51 52
2 52 53
2 53 54
2 54 55
2 55 56
2 56 57
2 57 58
2 58 59
2 59 60
2 60 61
2 61 62
2 62 63
2 63 64
2 64 65
2 65 66
2 66 67
2 67 68
2 68 69
2 69 70
2 70 71
2 71 72
2 72 73
2 73 74
2 74 75
2 75 76
2 76 77
2 77 78
2 78 79
2 79 80
2 80 81
2 81 82
2 82 83
2 83 84
2 84 85
2 85 86
2 86 87
2 87 88
2 88 89
2 89 90
2 90 91
2 91 92
2 92 93
2 93 94
2 94 95
2 95 96
2 96 97
2 97 98
2 98 99
2 99 100
2 100 101
2 101 102
2 102 103
2 103 104
2 104 105
2 105 106
2 106 107
2 107 108
2 108 109
2 109 110
2 110 111
2 111 112
2 112 113
2 113 114
2 114 115
2 115 116
2 116 117
2 117 118
2 118 119
2 119 120
2 120 121
2 121 122
2 122 123
2 123 124
2 124 125
2 125 126
2 126 127
2 127 128
2 128 129
2 129 130
2 130 131
2 131 132
2 132 133
2 133 134
2 134 135
2 135 136
2 136 137
2 137 138
2 138 139
2 139 140
2 140 141
2 141 142
2 142 143
2 143 144
2 144 145
2 145 146
2 146 147
2 147 148
2 148 149
2 149 150
2 150 151
2 151 152
2 152 153
2 153 154
2 154 155
2 155 156
2 156 157
2 157 158
2 158 159
2 159 160
2 160 161
2 161 162
2 162 163
2 163 164
2 164 165
2 165 166
2 166 167
2 167 168
2 168 169
2 169 170
2 170 171
2 171 172
2 172 173
2 173 174
2 174 175
2 175 176
2 176 177
2 177 178
2 178 179
2 179 180
2 180 181
2 181 182
2 182 183
2 183 184
2 184 185
2 185 186
2 186 187
2 187 188
2 188 189
2 189 190
2 190 191
2 191 192
2 192 193
2 193 194
2 194 195
2 195 196
2 196 197
2 197 198
2 198 199
2 199 200
2 200 201
2 201 202
2 202 203
2 203 204
2 204 205
2 205 206
2 206 207
2 207 208
2 208 209
2 209 210
2 210 211
2 211 212
2 212 213
2 213 214
2 214 215
2 215 216
2 216 217
2 217 218
2 218 219
2 219 220
2 220 221
2 221 222
2 222 223
2 223 224
2 224 225
2 225 226
2 226 227
2 227 228
2 228 229
2 229 230
2 230 231
2 231 232
2 232 233
2 233 234
2 234 235
2 235 236
2 236 237
2 237 238
2 238 239
2 239 240
2 240 241
2 241 242
2 242 243
2 243 244
2 244 245
2 245 246
2 246 247
2 247 248
2 248 249
2 249 250
2 250 1

CELL_TYPES 250
3
3
3
3
3
3
3
3
3
3
3
3
3
3
3
3
3
3
3
3
3
3
3
3
3
3
3
3
3
3
3
3
3
3
3
3
3
3
3
3
3
3
3
3
3
3
3
3
3
3
3
3
3
3
3
3
3
3
3
3
3
3
3
3
3
3
3
3
3
3
3
3
3
3
3
3
3
3
3
3
3
3
3
3
3
3
3
3
3
3
3
3
3
3
3
3
3
3
3
3
3
3
3
3
3
3
3
3
3
3
3
3
3
3
3
3
3
3
3
3
3
3
3
3
3
3
3
3
3
3
3
3
3
3
3
3
3
3
3
3
3
3
3
3
3
3
3
3
3
3
3
3
3
3
3
3
3
3
3
3
3
3
3
3
3
3
3
3
3
3
3
3
3
3
3
3
3
3
3
3
3
3
3
3
3
3
3
3
3
3
3
3
3
3
3
3
3
3
3
3
3
3
3
3
3
3
3
3
3
3
3
3
3
3
3
3
3
3
3
3
3
3
3
3
3
3
3
3
3
3
3
3
3
3
3
3
3
3
3
3
3
3
3
3
3
3
3
3
3
3
POINT_DATA 251
FIELD FieldData 1
DISPLACEMENT 3 251  float
0.0000000e+00 0.0000000e+00 0.0000000e+00 
0.0000000e+00 0.0000000e+00 0.0000000e+00 
0.0000000e+00 -3.4570004e-04 0.0000000e+00 
0.0000000e+00 -6.9136388e-04 0.0000000e+00 
0.0000000e+00 -1.0369553e-03 0.0000000e+00 
0.0000000e+00 -1.3824380e-03 0.0000000e+00 
0.0000000e+00 -1.7277758e-03 0.0000000e+00 
0.0000000e+00 -2.0729324e-03 0.0000000e+00 
0.0000000e+00 -2.4178720e-03 0.0000000e+00 
0.0000000e+00 -2.7625577e-03 0.0000000e+00 
0.0000000e+00 -3.1069536e-03 0.0000000e+00 
0.0000000e+00 -3.4510235e-03 0.0000000e+00 
0.0000000e+00 -3.7947311e-03 0.0000000e+00 
0.0000000e+00 -4.1380399e-03 0.0000000e+00 
0.0000000e+00 -4.4809142e-03 0.0000000e+00 
0.0000000e+00 -4.8233173e-03 0.0000000e+00 
0.0000000e+00 -5.1652128e-03 0.0000000e+00 
0.0000000e+00 -5.5065649e-03 0.0000000e+00 
0.0000000e+00 -5.8473367e-03 0.0000000e+00 
0.0000000e+00 -6.1874925e-03 0.0000000e+00 
0.0000000e+00 -6.5269955e-03 0.0000000e+00 
0.0000000e+00 -6.8658097e-03 0.0000000e+00 
0.0000000e+00 -7.2038979e-03 0.0000000e+00 
0.0000000e+00 -7.5412253e-03 0.0000000e+00 
0.0000000e+00 -7.8777540e-03 0.0000000e+00 
0.0000000e+00 -8.2134483e-03 0.0000000e+00 
0.0000000e+00 -8.5482718e-03 0.0000000e+00 
0.0000000e+00 -8.8821882e-03 0.0000000e+00 
0.0000000e+00 -9.2151603e-03 0.0000000e+00 
0.0000000e+00 -9.5471526e-03 0.0000000e+00 
0.0000000e+00 -9.8781288e-03 0.0000000e+00 
0.0000000e+00 -1.0208051e-02 0.0000000e+00 
0.0000000e+00 -1.0536883e-02 0.0000000e+00 
0.0000000e+00 -1.0864589e-02 0.0000000e+00 
0.0000000e+00 -1.1191133e-02 0.0000000e+00 
0.0000000e+00 -1.1516477e-02 0.0000000e+00 
0.0000000e+00 -1.1840586e-02 0.0000000e+00 
0.0000000e+00 -1.2163421e-02 0.0000000e+00 
0.0000000e+00 -1.2484947e-02 0.0000000e+00 
0.0000000e+00 -1.2805128e-02 0.0000000e+00 
0.0000000e+00 -1.3123925e-02 0.0000000e+00 
0.0000000e+00 -1.3441304e-02 0.0000000e+00 
0.0000000e+00 -1.3757226e-02 0.0000000e+00 
0.0000000e+00 -1.4071655e-02 0.0000000e+00 
0.0000000e+00 -1.4384555e-02 0.0000000e+00 
0.0000000e+00 -1.4695887e-02 0.0000000e+00 
0.0000000e+00 -1.5005617e-02 0.0000000e+00 
0.0000000e+00 -1.5313707e-02 0.0000000e+00 
0.0000000e+00 -1.5620120e-02 0.0000000e+00 
0.0000000e+00 -1.5924817e-02 0.0000000e+00 
0.0000000e+00 -1.6227765e-02 0.0000000e+00 
0.0000000e+00 -1.6528925e-02 0.0000000e+00 
0.0000000e+00 -1.6828259e-02 0.0000000e+00 
0.0000000e+00 -1.7125731e-02 0.0000000e+00 
0.0000000e+00 -1.7421303e-02 0.0000000e+00 
0.0000000e+00 -1.7714940e-02 0.0000000e+00 
0.0000000e+00 -1.8006604e-02 0.0000000e+00 
0.0000000e+00 -1.8296257e-02 0.0000000e+00 
0.0000000e+00 -1.8583860e-02 0.0000000e+00 
0.0000000e+00 -1.8869380e-02 0.0000000e+00 
0.0000000e+00 -1.9152777e-02 0.0000000e+00 
0.0000000e+00 -1.9434016e-02 0.0000000e+00 
0.0000000e+00 -1.9713055e-02 0.0000000e+00 
0.0000000e+00 -1.9989863e-02 0.0000000e+00 
0.0000000e+00 -2.0264396e-02 0.0000000e+00 
0.0000000e+00 -2.0536622e-02 0.0000000e+00 
0.0000000e+00 -2.0806501e-02 0.0000000e+00 
0.0000000e+00 -2.1073995e-02 0.0000000e+00 
0.0000000e+00 -2.1339066e-02 0.0000000e+00 
0.0000000e+00 -2.1601681e-02 0.0000000e+00 
0.0000000e+00 -2.1861797e-02 0.0000000e+00 
0.0000000e+00 -2.2119379e-02 0.0000000e+00 
0.0000000e+00 -2.2374388e-02 0.0000000e+00 
0.0000000e+00 -2.2626787e-02 0.0000000e+00 
0.0000000e+00 -2.2876538e-02 0.0000000e+00 
0.0000000e+00 -2.3123603e-02 0.0000000e+00 
0.0000000e+00 -2.3367947e-02 0.0000000e+00 
0.0000000e+00 -2.3609528e-02 0.0000000e+00 
0.0000000e+00 -2.3848310e-02 0.0000000e+00 
0.0000000e+00 -2.4084255e-02 0.0000000e+00 
0.0000000e+00 -2.4317324e-02 0.0000000e+00 
0.0000000e+00 -2.4547482e-02 0.0000000e+00 
0.0000000e+00 -2.4774687e-02 0.0000000e+00 
0.0000000e+00 -2.4998903e-02 0.0000000e+00 
0.0000000e+00 -2.5220092e-02 0.0000000e+00 
0.0000000e+00 -2.5438217e-02 0.0000000e+00 
0.0000000e+00 -2.5653236e-02 0.0000000e+00 
0.0000000e+00 -2.5865115e-02 0.0000000e+00 
0.0000000e+00 -2.6073812e-02 0.0000000e+00 
0.0000000e+00 -2.6279291e-02 0.0000000e+00 
0.0000000e+00 -2.6481515e-02 0.0000000e+00 
0.0000000e+00 -2.6680442e-02 0.0000000e+00 
0.0000000e+00 -2.6876036e-02 0.0000000e+00 
0.0000000e+00 -2.7068257e-02 0.0000000e+00 
0.0000000e+00 -2.7257068e-02 0.0000000e+00 
0.0000000e+00 -2.7442431e-02 0.0000000e+00 
0.0000000e+00 -2.7624305e-02 0.0000000e+00 
0.0000000e+00 -2.7802655e-02 0.0000000e+00 
0.0000000e+00 -2.7977439e-02 0.0000000e+00 
0.0000000e+00 -2.8148619e-02 0.0000000e+00 
0.0000000e+00 -2.8316159e-02 0.0000000e+00 
0.0000000e+00 -2.8480016e-02 0.0000000e+00 
0.0000000e+00 -2.8640155e-02 0.0000000e+00 
0.0000000e+00 -2.8796533e-02 0.0000000e+00 
0.0000000e+00 -2.8949117e-02 0.0000000e+00 
0.0000000e+00 -2.9097864e-02 0.0000000e+00 
0.0000000e+00 -2.9242735e-02 0.0000000e+00 
0.0000000e+00 -2.9383693e-02 0.0000000e+00 
0.0000000e+00 -2.9520700e-02 0.0000000e+00 
0.0000000e+00 -2.9653713e-02 0.0000000e+00 
0.0000000e+00 -2.9782696e-02 0.0000000e+00 
0.0000000e+00 -2.9907608e-02 0.0000000e+00 
0.0000000e+00 -3.0028414e-02 0.0000000e+00 
0.0000000e+00 -3.0145070e-02 0.0000000e+00 
0.0000000e+00 -3.0257540e-02 0.0000000e+00 
0.0000000e+00 -3.0365784e-02 0.0000000e+00 
0.0000000e+00 -3.0469760e-02 0.0000000e+00 
0.0000000e+00 -3.0569434e-02 0.0000000e+00 
0.0000000e+00 -3.0664762e-02 0.0000000e+00 
0.0000000e+00 -3.0755710e-02 0.0000000e+00 
0.0000000e+00 -3.0842233e-02 0.0000000e+00 
0.0000000e+00 -3.0924294e-02 0.0000000e+00 
0.0000000e+00 -3.1001855e-02 0.0000000e+00 
0.0000000e+00 -3.1074876e-02 0.0000000e+00 
0.0000000e+00 -3.1143315e-02 0.0000000e+00 
0.0000000e+00 -3.1207135e-02 0.0000000e+00 
0.0000000e+00 -3.1266298e-02 0.0000000e+00 
0.0000000e+00 -3.1320762e-02 0.0000000e+00 
0.0000000e+00 -3.1370487e-02 0.0000000e+00 
0.0000000e+00 -3.1415436e-02 0.0000000e+00 
0.0000000e+00 -3.1455565e-02 0.0000000e+00 
0.0000000e+00 -3.1490840e-02 0.0000000e+00 
0.0000000e+00 -3.1521220e-02 0.0000000e+00 
0.0000000e+00 -3.1546663e-02 0.0000000e+00 
0.0000000e+00 -3.1567130e-02 0.0000000e+00 
0.0000000e+00 -3.1582583e-02 0.0000000e+00 
0.0000000e+00 -3.1592980e-02 0.0000000e+00 
0.0000000e+00 -3.1598281e-02 0.0000000e+00 
0.0000000e+00 -3.1598452e-02 0.0000000e+00 
0.0000000e+00 -3.1593446e-02 0.0000000e+00 
0.0000000e+00 -3.1583227e-02 0.0000000e+00 
0.0000000e+00 -3.1567756e-02 0.0000000e+00 
0.0000000e+00 -3.1546991e-02 0.0000000e+00 
0.0000000e+00 -3.1520892e-02 0.0000000e+00 
0.0000000e+00 -3.1489424e-02 0.0000000e+00 
0.0000000e+00 -3.1452540e-02 0.0000000e+00 
0.0000000e+00 -3.1410206e-02 0.0000000e+00 
0.0000000e+00 -3.1362377e-02 0.0000000e+00 
0.0000000e+00 -3.1309020e-02 0.0000000e+00 
0.0000000e+00 -3.1250086e-02 0.0000000e+00 
0.0000000e+00 -3.1185543e-02 0.0000000e+00 
0.0000000e+00 -3.1115349e-02 0.0000000e+00 
0.0000000e+00 -3.1039463e-02 0.0000000e+00 
0.0000000e+00 -3.0957846e-02 0.0000000e+00 
0.0000000e+00 -3.0870458e-02 0.0000000e+00 
0.0000000e+00 -3.0777259e-02 0.0000000e+00 
0.0000000e+00 -3.0678209e-02 0.0000000e+00 
0.0000000e+00 -3.0573267e-02 0.0000000e+00 
0.0000000e+00 -3.0462397e-02 0.0000000e+00 
0.0000000e+00 -3.0345554e-02 0.0000000e+00 
0.0000000e+00 -3.0222703e-02 0.0000000e+00 
0.0000000e+00 -3.0093800e-02 0.0000000e+00 
0.0000000e+00 -2.9958807e-02 0.0000000e+00 
0.0000000e+00 -2.9817684e-02 0.0000000e+00 
0.0000000e+00 -2.9670391e-02 0.0000000e+00 
0.0000000e+00 -2.9516889e-02 0.0000000e+00 
0.0000000e+00 -2.9357137e-02 0.0000000e+00 
0.0000000e+00 -2.9191097e-02 0.0000000e+00 
0.0000000e+00 -2.9018739e-02 0.0000000e+00 
0.0000000e+00 -2.8840100e-02 0.0000000e+00 
0.0000000e+00 -2.8655253e-02 0.0000000e+00 
0.0000000e+00 -2.8464274e-02 0.0000000e+00 
0.0000000e+00 -2.8267240e-02 0.0000000e+00 
0.0000000e+00 -2.8064223e-02 0.0000000e+00 
0.0000000e+00 -2.7855299e-02 0.0000000e+00 
0.0000000e+00 -2.7640546e-02 0.0000000e+00 
0.0000000e+00 -2.7420035e-02 0.0000000e+00 
0.0000000e+00 -2.7193844e-02 0.0000000e+00 
0.0000000e+00 -2.6962047e-02 0.0000000e+00 
0.0000000e+00 -2.6724720e-02 0.0000000e+00 
0.0000000e+00 -2.6481938e-02 0.0000000e+00 
0.0000000e+00 -2.6233776e-02 0.0000000e+00 
0.0000000e+00 -2.5980311e-02 0.0000000e+00 
0.0000000e+00 -2.5721615e-02 0.0000000e+00 
0.0000000e+00 -2.5457766e-02 0.0000000e+00 
0.0000000e+00 -2.5188839e-02 0.0000000e+00 
0.0000000e+00 -2.4914907e-02 0.0000000e+00 
0.0000000e+00 -2.4636049e-02 0.0000000e+00 
0.0000000e+00 -2.4352340e-02 0.0000000e+00 
0.0000000e+00 -2.4063852e-02 0.0000000e+00 
0.0000000e+00 -2.3770664e-02 0.0000000e+00 
0.0000000e+00 -2.3472849e-02 0.0000000e+00 
0.0000000e+00 -2.3170484e-02 0.0000000e+00 
0.0000000e+00 -2.2863643e-02 0.0000000e+00 
0.0000000e+00 -2.2552403e-02 0.0000000e+00 
0.0000000e+00 -2.2236839e-02 0.0000000e+00 
0.0000000e+00 -2.1917026e-02 0.0000000e+00 
0.0000000e+00 -2.1593040e-02 0.0000000e+00 
0.0000000e+00 -2.1264957e-02 0.0000000e+00 
0.0000000e+00 -2.0932851e-02 0.0000000e+00 
0.0000000e+00 -2.0596800e-02 0.0000000e+00 
0.0000000e+00 -2.0256879e-02 0.0000000e+00 
0.0000000e+00 -1.9913161e-02 0.0000000e+00 
0.0000000e+00 -1.9565724e-02 0.0000000e+00 
0.0000000e+00 -1.9214643e-02 0.0000000e+00 
0.0000000e+00 -1.8859994e-02 0.0000000e+00 
0.0000000e+00 -1.8501852e-02 0.0000000e+00 
0.0000000e+00 -1.8140294e-02 0.0000000e+00 
0.0000000e+00 -1.7775394e-02 0.0000000e+00 
0.0000000e+00 -1.7407227e-02 0.0000000e+00 
0.0000000e+00 -1.7035872e-02 0.0000000e+00 
0.0000000e+00 -1.6661404e-02 0.0000000e+00 
0.0000000e+00 -1.6283896e-02 0.0000000e+00 
0.0000000e+00 -1.5903424e-02 0.0000000e+00 
0.0000000e+00 -1.5520068e-02 0.0000000e+00 
0.0000000e+00 -1.5133900e-02 0.0000000e+00 
0.0000000e+00 -1.4744996e-02 0.0000000e+00 
0.0000000e+00 -1.4353434e-02 0.0000000e+00 
0.0000000e+00 -1.3959288e-02 0.0000000e+00 
0.0000000e+00 -1.3562634e-02 0.0000000e+00 
0.0000000e+00 -1.3163547e-02 0.0000000e+00 
0.0000000e+00 -1.2762106e-02 0.0000000e+00 
0.0000000e+00 -1.2358383e-02 0.0000000e+00 
0.0000000e+00 -1.1952457e-02 0.0000000e+00 
0.0000000e+00 -1.1544403e-02 0.0000000e+00 
0.0000000e+00 -1.1134296e-02 0.0000000e+00 
0.0000000e+00 -1.0722212e-02 0.0000000e+00 
0.0000000e+00 -1.0308228e-02 0.0000000e+00 
0.0000000e+00 -9.8924199e-03 0.0000000e+00 
0.0000000e+00 -9.4748624e-03 0.0000000e+00 
0.0000000e+00 -9.0556322e-03 0.0000000e+00 
0.0000000e+00 -8.6348047e-03 0.0000000e+00 
0.0000000e+00 -8.2124574e-03 0.0000000e+00 
0.0000000e+00 -7.7886647e-03 0.0000000e+00 
0.0000000e+00 -7.3635033e-03 0.0000000e+00 
0.0000000e+00 -6.9370489e-03 0.0000000e+00 
0.0000000e+00 -6.5093781e-03 0.0000000e+00 
0.0000000e+00 -6.0805660e-03 0.0000000e+00 
0.0000000e+00 -5.6506894e-03 0.0000000e+00 
0.0000000e+00 -5.2198241e-03 0.0000000e+00 
0.0000000e+00 -4.7880462e-03 0.0000000e+00 
0.0000000e+00 -4.3554315e-03 0.0000000e+00 
0.0000000e+00 -3.9220564e-03 0.0000000e+00 
0.0000000e+00 -3.4879965e-03 0.0000000e+00 
0.0000000e+00 -3.0533280e-03 0.0000000e+00 
0.0000000e+00 -2.6181273e-03 0.0000000e+00 
0.0000000e+00 -2.1824699e-03 0.0000000e+00 
0.0000000e+00 -1.7464324e-03 0.0000000e+00 
0.0000000e+00 -1.3100905e-03 0.0000000e+00 
0.0000000e+00 -8.7352045e-04 0.0000000e+00 
0.0000000e+00 -4.3679826e-04 0.0000000e+00 
CELL_DATA 250
FIELD FieldData 0
