# vtk DataFile Version 4.0
vtk output
ASCII
DATASET UNSTRUCTURED_GRID
POINTS 251 float
0.0000000e+00 0.0000000e+00 0.0000000e+00 
2.5000000e+01 0.0000000e+00 0.0000000e+00 
1.0000000e-01 0.0000000e+00 0.0000000e+00 
2.0000000e-01 0.0000000e+00 0.0000000e+00 
3.0000001e-01 0.0000000e+00 0.0000000e+00 
4.0000001e-01 0.0000000e+00 0.0000000e+00 
5.0000000e-01 0.0000000e+00 0.0000000e+00 
6.0000002e-01 0.0000000e+00 0.0000000e+00 
6.9999999e-01 0.0000000e+00 0.0000000e+00 
8.0000001e-01 0.0000000e+00 0.0000000e+00 
8.9999998e-01 0.0000000e+00 0.0000000e+00 
1.0000000e+00 0.0000000e+00 0.0000000e+00 
1.1000000e+00 0.0000000e+00 0.0000000e+00 
1.2000000e+00 0.0000000e+00 0.0000000e+00 
1.3000000e+00 0.0000000e+00 0.0000000e+00 
1.4000000e+00 0.0000000e+00 0.0000000e+00 
1.5000000e+00 0.0000000e+00 0.0000000e+00 
1.6000000e+00 0.0000000e+00 0.0000000e+00 
1.7000000e+00 0.0000000e+00 0.0000000e+00 
1.8000000e+00 0.0000000e+00 0.0000000e+00 
1.9000000e+00 0.0000000e+00 0.0000000e+00 
2.0000000e+00 0.0000000e+00 0.0000000e+00 
2.0999999e+00 0.0000000e+00 0.0000000e+00 
2.2000000e+00 0.0000000e+00 0.0000000e+00 
2.3000000e+00 0.0000000e+00 0.0000000e+00 
2.4000001e+00 0.0000000e+00 0.0000000e+00 
2.5000000e+00 0.0000000e+00 0.0000000e+00 
2.5999999e+00 0.0000000e+00 0.0000000e+00 
2.7000000e+00 0.0000000e+00 0.0000000e+00 
2.8000000e+00 0.0000000e+00 0.0000000e+00 
2.9000001e+00 0.0000000e+00 0.0000000e+00 
3.0000000e+00 0.0000000e+00 0.0000000e+00 
3.0999999e+00 0.0000000e+00 0.0000000e+00 
3.2000000e+00 0.0000000e+00 0.0000000e+00 
3.3000000e+00 0.0000000e+00 0.0000000e+00 
3.4000001e+00 0.0000000e+00 0.0000000e+00 
3.5000000e+00 0.0000000e+00 0.0000000e+00 
3.5999999e+00 0.0000000e+00 0.0000000e+00 
3.7000000e+00 0.0000000e+00 0.0000000e+00 
3.8000000e+00 0.0000000e+00 0.0000000e+00 
3.9000001e+00 0.0000000e+00 0.0000000e+00 
4.0000000e+00 0.0000000e+00 0.0000000e+00 
4.0999999e+00 0.0000000e+00 0.0000000e+00 
4.1999998e+00 0.0000000e+00 0.0000000e+00 
4.3000002e+00 0.0000000e+00 0.0000000e+00 
4.4000001e+00 0.0000000e+00 0.0000000e+00 
4.5000000e+00 0.0000000e+00 0.0000000e+00 
4.5999999e+00 0.0000000e+00 0.0000000e+00 
4.6999998e+00 0.0000000e+00 0.0000000e+00 
4.8000002e+00 0.0000000e+00 0.0000000e+00 
4.9000001e+00 0.0000000e+00 0.0000000e+00 
5.0000000e+00 0.0000000e+00 0.0000000e+00 
5.0999999e+00 0.0000000e+00 0.0000000e+00 
5.1999998e+00 0.0000000e+00 0.0000000e+00 
5.3000002e+00 0.0000000e+00 0.0000000e+00 
5.4000001e+00 0.0000000e+00 0.0000000e+00 
5.5000000e+00 0.0000000e+00 0.0000000e+00 
5.5999999e+00 0.0000000e+00 0.0000000e+00 
5.6999998e+00 0.0000000e+00 0.0000000e+00 
5.8000002e+00 0.0000000e+00 0.0000000e+00 
5.9000001e+00 0.0000000e+00 0.0000000e+00 
6.0000000e+00 0.0000000e+00 0.0000000e+00 
6.0999999e+00 0.0000000e+00 0.0000000e+00 
6.1999998e+00 0.0000000e+00 0.0000000e+00 
6.3000002e+00 0.0000000e+00 0.0000000e+00 
6.4000001e+00 0.0000000e+00 0.0000000e+00 
6.5000000e+00 0.0000000e+00 0.0000000e+00 
6.5999999e+00 0.0000000e+00 0.0000000e+00 
6.6999998e+00 0.0000000e+00 0.0000000e+00 
6.8000002e+00 0.0000000e+00 0.0000000e+00 
6.9000001e+00 0.0000000e+00 0.0000000e+00 
7.0000000e+00 0.0000000e+00 0.0000000e+00 
7.0999999e+00 0.0000000e+00 0.0000000e+00 
7.1999998e+00 0.0000000e+00 0.0000000e+00 
7.3000002e+00 0.0000000e+00 0.0000000e+00 
7.4000001e+00 0.0000000e+00 0.0000000e+00 
7.5000000e+00 0.0000000e+00 0.0000000e+00 
7.5999999e+00 0.0000000e+00 0.0000000e+00 
7.6999998e+00 0.0000000e+00 0.0000000e+00 
7.8000002e+00 0.0000000e+00 0.0000000e+00 
7.9000001e+00 0.0000000e+00 0.0000000e+00 
8.0000000e+00 0.0000000e+00 0.0000000e+00 
8.1000004e+00 0.0000000e+00 0.0000000e+00 
8.1999998e+00 0.0000000e+00 0.0000000e+00 
8.3000002e+00 0.0000000e+00 0.0000000e+00 
8.3999996e+00 0.0000000e+00 0.0000000e+00 
8.5000000e+00 0.0000000e+00 0.0000000e+00 
8.6000004e+00 0.0000000e+00 0.0000000e+00 
8.6999998e+00 0.0000000e+00 0.0000000e+00 
8.8000002e+00 0.0000000e+00 0.0000000e+00 
8.8999996e+00 0.0000000e+00 0.0000000e+00 
9.0000000e+00 0.0000000e+00 0.0000000e+00 
9.1000004e+00 0.0000000e+00 0.0000000e+00 
9.1999998e+00 0.0000000e+00 0.0000000e+00 
9.3000002e+00 0.0000000e+00 0.0000000e+00 
9.3999996e+00 0.0000000e+00 0.0000000e+00 
9.5000000e+00 0.0000000e+00 0.0000000e+00 
9.6000004e+00 0.0000000e+00 0.0000000e+00 
9.6999998e+00 0.0000000e+00 0.0000000e+00 
9.8000002e+00 0.0000000e+00 0.0000000e+00 
9.8999996e+00 0.0000000e+00 0.0000000e+00 
1.0000000e+01 0.0000000e+00 0.0000000e+00 
1.0100000e+01 0.0000000e+00 0.0000000e+00 
1.0200000e+01 0.0000000e+00 0.0000000e+00 
1.0300000e+01 0.0000000e+00 0.0000000e+00 
1.0400000e+01 0.0000000e+00 0.0000000e+00 
1.0500000e+01 0.0000000e+00 0.0000000e+00 
1.0600000e+01 0.0000000e+00 0.0000000e+00 
1.0700000e+01 0.0000000e+00 0.0000000e+00 
1.0800000e+01 0.0000000e+00 0.0000000e+00 
1.0900000e+01 0.0000000e+00 0.0000000e+00 
1.1000000e+01 0.0000000e+00 0.0000000e+00 
1.1100000e+01 0.0000000e+00 0.0000000e+00 
1.1200000e+01 0.0000000e+00 0.0000000e+00 
1.1300000e+01 0.0000000e+00 0.0000000e+00 
1.1400000e+01 0.0000000e+00 0.0000000e+00 
1.1500000e+01 0.0000000e+00 0.0000000e+00 
1.1600000e+01 0.0000000e+00 0.0000000e+00 
1.1700000e+01 0.0000000e+00 0.0000000e+00 
1.1800000e+01 0.0000000e+00 0.0000000e+00 
1.1900000e+01 0.0000000e+00 0.0000000e+00 
1.2000000e+01 0.0000000e+00 0.0000000e+00 
1.2100000e+01 0.0000000e+00 0.0000000e+00 
1.2200000e+01 0.0000000e+00 0.0000000e+00 
1.2300000e+01 0.0000000e+00 0.0000000e+00 
1.2400000e+01 0.0000000e+00 0.0000000e+00 
1.2500000e+01 0.0000000e+00 0.0000000e+00 
1.2600000e+01 0.0000000e+00 0.0000000e+00 
1.2700000e+01 0.0000000e+00 0.0000000e+00 
1.2800000e+01 0.0000000e+00 0.0000000e+00 
1.2900000e+01 0.0000000e+00 0.0000000e+00 
1.3000000e+01 0.0000000e+00 0.0000000e+00 
1.3100000e+01 0.0000000e+00 0.0000000e+00 
1.3200000e+01 0.0000000e+00 0.0000000e+00 
1.3300000e+01 0.0000000e+00 0.0000000e+00 
1.3400000e+01 0.0000000e+00 0.0000000e+00 
1.3500000e+01 0.0000000e+00 0.0000000e+00 
1.3600000e+01 0.0000000e+00 0.0000000e+00 
1.3700000e+01 0.0000000e+00 0.0000000e+00 
1.3800000e+01 0.0000000e+00 0.0000000e+00 
1.3900000e+01 0.0000000e+00 0.0000000e+00 
1.4000000e+01 0.0000000e+00 0.0000000e+00 
1.4100000e+01 0.0000000e+00 0.0000000e+00 
1.4200000e+01 0.0000000e+00 0.0000000e+00 
1.4300000e+01 0.0000000e+00 0.0000000e+00 
1.4400000e+01 0.0000000e+00 0.0000000e+00 
1.4500000e+01 0.0000000e+00 0.0000000e+00 
1.4600000e+01 0.0000000e+00 0.0000000e+00 
1.4700000e+01 0.0000000e+00 0.0000000e+00 
1.4800000e+01 0.0000000e+00 0.0000000e+00 
1.4900000e+01 0.0000000e+00 0.0000000e+00 
1.5000000e+01 0.0000000e+00 0.0000000e+00 
1.5100000e+01 0.0000000e+00 0.0000000e+00 
1.5200000e+01 0.0000000e+00 0.0000000e+00 
1.5300000e+01 0.0000000e+00 0.0000000e+00 
1.5400000e+01 0.0000000e+00 0.0000000e+00 
1.5500000e+01 0.0000000e+00 0.0000000e+00 
1.5600000e+01 0.0000000e+00 0.0000000e+00 
1.5700000e+01 0.0000000e+00 0.0000000e+00 
1.5800000e+01 0.0000000e+00 0.0000000e+00 
1.5900000e+01 0.0000000e+00 0.0000000e+00 
1.6000000e+01 0.0000000e+00 0.0000000e+00 
1.6100000e+01 0.0000000e+00 0.0000000e+00 
1.6200001e+01 0.0000000e+00 0.0000000e+00 
1.6299999e+01 0.0000000e+00 0.0000000e+00 
1.6400000e+01 0.0000000e+00 0.0000000e+00 
1.6500000e+01 0.0000000e+00 0.0000000e+00 
1.6600000e+01 0.0000000e+00 0.0000000e+00 
1.6700001e+01 0.0000000e+00 0.0000000e+00 
1.6799999e+01 0.0000000e+00 0.0000000e+00 
1.6900000e+01 0.0000000e+00 0.0000000e+00 
1.7000000e+01 0.0000000e+00 0.0000000e+00 
1.7100000e+01 0.0000000e+00 0.0000000e+00 
1.7200001e+01 0.0000000e+00 0.0000000e+00 
1.7299999e+01 0.0000000e+00 0.0000000e+00 
1.7400000e+01 0.0000000e+00 0.0000000e+00 
1.7500000e+01 0.0000000e+00 0.0000000e+00 
1.7600000e+01 0.0000000e+00 0.0000000e+00 
1.7700001e+01 0.0000000e+00 0.0000000e+00 
1.7799999e+01 0.0000000e+00 0.0000000e+00 
1.7900000e+01 0.0000000e+00 0.0000000e+00 
1.8000000e+01 0.0000000e+00 0.0000000e+00 
1.8100000e+01 0.0000000e+00 0.0000000e+00 
1.8200001e+01 0.0000000e+00 0.0000000e+00 
1.8299999e+01 0.0000000e+00 0.0000000e+00 
1.8400000e+01 0.0000000e+00 0.0000000e+00 
1.8500000e+01 0.0000000e+00 0.0000000e+00 
1.8600000e+01 0.0000000e+00 0.0000000e+00 
1.8700001e+01 0.0000000e+00 0.0000000e+00 
1.8799999e+01 0.0000000e+00 0.0000000e+00 
1.8900000e+01 0.0000000e+00 0.0000000e+00 
1.9000000e+01 0.0000000e+00 0.0000000e+00 
1.9100000e+01 0.0000000e+00 0.0000000e+00 
1.9200001e+01 0.0000000e+00 0.0000000e+00 
1.9299999e+01 0.0000000e+00 0.0000000e+00 
1.9400000e+01 0.0000000e+00 0.0000000e+00 
1.9500000e+01 0.0000000e+00 0.0000000e+00 
1.9600000e+01 0.0000000e+00 0.0000000e+00 
1.9700001e+01 0.0000000e+00 0.0000000e+00 
1.9799999e+01 0.0000000e+00 0.0000000e+00 
1.9900000e+01 0.0000000e+00 0.0000000e+00 
2.0000000e+01 0.0000000e+00 0.0000000e+00 
2.0100000e+01 0.0000000e+00 0.0000000e+00 
2.0200001e+01 0.0000000e+00 0.0000000e+00 
2.0299999e+01 0.0000000e+00 0.0000000e+00 
2.0400000e+01 0.0000000e+00 0.0000000e+00 
2.0500000e+01 0.0000000e+00 0.0000000e+00 
2.0600000e+01 0.0000000e+00 0.0000000e+00 
2.0700001e+01 0.0000000e+00 0.0000000e+00 
2.0799999e+01 0.0000000e+00 0.0000000e+00 
2.0900000e+01 0.0000000e+00 0.0000000e+00 
2.1000000e+01 0.0000000e+00 0.0000000e+00 
2.1100000e+01 0.0000000e+00 0.0000000e+00 
2.1200001e+01 0.0000000e+00 0.0000000e+00 
2.1299999e+01 0.0000000e+00 0.0000000e+00 
2.1400000e+01 0.0000000e+00 0.0000000e+00 
2.1500000e+01 0.0000000e+00 0.0000000e+00 
2.1600000e+01 0.0000000e+00 0.0000000e+00 
2.1700001e+01 0.0000000e+00 0.0000000e+00 
2.1799999e+01 0.0000000e+00 0.0000000e+00 
2.1900000e+01 0.0000000e+00 0.0000000e+00 
2.2000000e+01 0.0000000e+00 0.0000000e+00 
2.2100000e+01 0.0000000e+00 0.0000000e+00 
2.2200001e+01 0.0000000e+00 0.0000000e+00 
2.2299999e+01 0.0000000e+00 0.0000000e+00 
2.2400000e+01 0.0000000e+00 0.0000000e+00 
2.2500000e+01 0.0000000e+00 0.0000000e+00 
2.2600000e+01 0.0000000e+00 0.0000000e+00 
2.2700001e+01 0.0000000e+00 0.0000000e+00 
2.2799999e+01 0.0000000e+00 0.0000000e+00 
2.2900000e+01 0.0000000e+00 0.0000000e+00 
2.3000000e+01 0.0000000e+00 0.0000000e+00 
2.3100000e+01 0.0000000e+00 0.0000000e+00 
2.3200001e+01 0.0000000e+00 0.0000000e+00 
2.3299999e+01 0.0000000e+00 0.0000000e+00 
2.3400000e+01 0.0000000e+00 0.0000000e+00 
2.3500000e+01 0.0000000e+00 0.0000000e+00 
2.3600000e+01 0.0000000e+00 0.0000000e+00 
2.3700001e+01 0.0000000e+00 0.0000000e+00 
2.3799999e+01 0.0000000e+00 0.0000000e+00 
2.3900000e+01 0.0000000e+00 0.0000000e+00 
2.4000000e+01 0.0000000e+00 0.0000000e+00 
2.4100000e+01 0.0000000e+00 0.0000000e+00 
2.4200001e+01 0.0000000e+00 0.0000000e+00 
2.4299999e+01 0.0000000e+00 0.0000000e+00 
2.4400000e+01 0.0000000e+00 0.0000000e+00 
2.4500000e+01 0.0000000e+00 0.0000000e+00 
2.4600000e+01 0.0000000e+00 0.0000000e+00 
2.4700001e+01 0.0000000e+00 0.0000000e+00 
2.4799999e+01 0.0000000e+00 0.0000000e+00 
2.4900000e+01 0.0000000e+00 0.0000000e+00 

CELLS 250 750
2 0 2
2 2 3
2 3 4
2 4 5
2 5 6
2 6 7
2 7 8
2 8 9
2 9 10
2 10 11
2 11 12
2 12 13
2 13 14
2 14 15
2 15 16
2 16 17
2 17 18
2 18 19
2 19 20
2 20 21
2 21 22
2 22 23
2 23 24
2 24 25
2 25 26
2 26 27
2 27 28
2 28 29
2 29 30
2 30 31
2 31 32
2 32 33
2 33 34
2 34 35
2 35 36
2 36 37
2 37 38
2 38 39
2 39 40
2 40 41
2 41 42
2 42 43
2 43 44
2 44 45
2 45 46
2 46 47
2 47 48
2 48 49
2 49 50
2 50 51
2 51 52
2 52 53
2 53 54
2 54 55
2 55 56
2 56 57
2 57 58
2 58 59
2 59 60
2 60 61
2 61 62
2 62 63
2 63 64
2 64 65
2 65 66
2 66 67
2 67 68
2 68 69
2 69 70
2 70 71
2 71 72
2 72 73
2 73 74
2 74 75
2 75 76
2 76 77
2 77 78
2 78 79
2 79 80
2 80 81
2 81 82
2 82 83
2 83 84
2 84 85
2 85 86
2 86 87
2 87 88
2 88 89
2 89 90
2 90 91
2 91 92
2 92 93
2 93 94
2 94 95
2 95 96
2 96 97
2 97 98
2 98 99
2 99 100
2 100 101
2 101 102
2 102 103
2 103 104
2 104 105
2 105 106
2 106 107
2 107 108
2 108 109
2 109 110
2 110 111
2 111 112
2 112 113
2 113 114
2 114 115
2 115 116
2 116 117
2 117 118
2 118 119
2 119 120
2 120 121
2 121 122
2 122 123
2 123 124
2 124 125
2 125 126
2 126 127
2 127 128
2 128 129
2 129 130
2 130 131
2 131 132
2 132 133
2 133 134
2 134 135
2 135 136
2 136 137
2 137 138
2 138 139
2 139 140
2 140 141
2 141 142
2 142 143
2 143 144
2 144 145
2 145 146
2 146 147
2 147 148
2 148 149
2 149 150
2 150 151
2 151 152
2 152 153
2 153 154
2 154 155
2 155 156
2 156 157
2 157 158
2 158 159
2 159 160
2 160 161
2 161 162
2 162 163
2 163 164
2 164 165
2 165 166
2 166 167
2 167 168
2 168 169
2 169 170
2 170 171
2 171 172
2 172 173
2 173 174
2 174 175
2 175 176
2 176 177
2 177 178
2 178 179
2 179 180
2 180 181
2 181 182
2 182 183
2 183 184
2 184 185
2 185 186
2 186 187
2 187 188
2 188 189
2 189 190
2 190 191
2 191 192
2 192 193
2 193 194
2 194 195
2 195 196
2 196 197
2 197 198
2 198 199
2 199 200
2 200 201
2 201 202
2 202 203
2 203 204
2 204 205
2 205 206
2 206 207
2 207 208
2 208 209
2 209 210
2 210 211
2 211 212
2 212 213
2 213 214
2 214 215
2 215 216
2 216 217
2 217 218
2 218 219
2 219 220
2 220 221
2 221 222
2 222 223
2 223 224
2 224 225
2 225 226
2 226 227
2 227 228
2 228 229
2 229 230
2 230 231
2 231 232
2 232 233
2 233 234
2 234 235
2 235 236
2 236 237
2 237 238
2 238 239
2 239 240
2 240 241
2 241 242
2 242 243
2 243 244
2 244 245
2 245 246
2 246 247
2 247 248
2 248 249
2 249 250
2 250 1

CELL_TYPES 250
3
3
3
3
3
3
3
3
3
3
3
3
3
3
3
3
3
3
3
3
3
3
3
3
3
3
3
3
3
3
3
3
3
3
3
3
3
3
3
3
3
3
3
3
3
3
3
3
3
3
3
3
3
3
3
3
3
3
3
3
3
3
3
3
3
3
3
3
3
3
3
3
3
3
3
3
3
3
3
3
3
3
3
3
3
3
3
3
3
3
3
3
3
3
3
3
3
3
3
3
3
3
3
3
3
3
3
3
3
3
3
3
3
3
3
3
3
3
3
3
3
3
3
3
3
3
3
3
3
3
3
3
3
3
3
3
3
3
3
3
3
3
3
3
3
3
3
3
3
3
3
3
3
3
3
3
3
3
3
3
3
3
3
3
3
3
3
3
3
3
3
3
3
3
3
3
3
3
3
3
3
3
3
3
3
3
3
3
3
3
3
3
3
3
3
3
3
3
3
3
3
3
3
3
3
3
3
3
3
3
3
3
3
3
3
3
3
3
3
3
3
3
3
3
3
3
3
3
3
3
3
3
3
3
3
3
3
3
3
3
3
3
3
3
3
3
3
3
3
3
POINT_DATA 251
FIELD FieldData 1
DISPLACEMENT 3 251  float
0.0000000e+00 0.0000000e+00 0.0000000e+00 
0.0000000e+00 0.0000000e+00 0.0000000e+00 
0.0000000e+00 -4.4016613e-04 0.0000000e+00 
0.0000000e+00 -8.8025891e-04 0.0000000e+00 
0.0000000e+00 -1.3202048e-03 0.0000000e+00 
0.0000000e+00 -1.7599306e-03 0.0000000e+00 
0.0000000e+00 -2.1993630e-03 0.0000000e+00 
0.0000000e+00 -2.6384282e-03 0.0000000e+00 
0.0000000e+00 -3.0770532e-03 0.0000000e+00 
0.0000000e+00 -3.5151644e-03 0.0000000e+00 
0.0000000e+00 -3.9526885e-03 0.0000000e+00 
0.0000000e+00 -4.3895524e-03 0.0000000e+00 
0.0000000e+00 -4.8256819e-03 0.0000000e+00 
0.0000000e+00 -5.2610044e-03 0.0000000e+00 
0.0000000e+00 -5.6954459e-03 0.0000000e+00 
0.0000000e+00 -6.1289337e-03 0.0000000e+00 
0.0000000e+00 -6.5613938e-03 0.0000000e+00 
0.0000000e+00 -6.9927531e-03 0.0000000e+00 
0.0000000e+00 -7.4229385e-03 0.0000000e+00 
0.0000000e+00 -7.8518754e-03 0.0000000e+00 
0.0000000e+00 -8.2794921e-03 0.0000000e+00 
0.0000000e+00 -8.7057138e-03 0.0000000e+00 
0.0000000e+00 -9.1304686e-03 0.0000000e+00 
0.0000000e+00 -9.5536811e-03 0.0000000e+00 
0.0000000e+00 -9.9752797e-03 0.0000000e+00 
0.0000000e+00 -1.0395190e-02 0.0000000e+00 
0.0000000e+00 -1.0813338e-02 0.0000000e+00 
0.0000000e+00 -1.1229652e-02 0.0000000e+00 
0.0000000e+00 -1.1644058e-02 0.0000000e+00 
0.0000000e+00 -1.2056481e-02 0.0000000e+00 
0.0000000e+00 -1.2466851e-02 0.0000000e+00 
0.0000000e+00 -1.2875090e-02 0.0000000e+00 
0.0000000e+00 -1.3281129e-02 0.0000000e+00 
0.0000000e+00 -1.3684892e-02 0.0000000e+00 
0.0000000e+00 -1.4086307e-02 0.0000000e+00 
0.0000000e+00 -1.4485299e-02 0.0000000e+00 
0.0000000e+00 -1.4881796e-02 0.0000000e+00 
0.0000000e+00 -1.5275723e-02 0.0000000e+00 
0.0000000e+00 -1.5667008e-02 0.0000000e+00 
0.0000000e+00 -1.6055578e-02 0.0000000e+00 
0.0000000e+00 -1.6441358e-02 0.0000000e+00 
0.0000000e+00 -1.6824277e-02 0.0000000e+00 
0.0000000e+00 -1.7204259e-02 0.0000000e+00 
0.0000000e+00 -1.7581230e-02 0.0000000e+00 
0.0000000e+00 -1.7955121e-02 0.0000000e+00 
0.0000000e+00 -1.8325852e-02 0.0000000e+00 
0.0000000e+00 -1.8693356e-02 0.0000000e+00 
0.0000000e+00 -1.9057555e-02 0.0000000e+00 
0.0000000e+00 -1.9418379e-02 0.0000000e+00 
0.0000000e+00 -1.9775752e-02 0.0000000e+00 
0.0000000e+00 -2.0129602e-02 0.0000000e+00 
0.0000000e+00 -2.0479854e-02 0.0000000e+00 
0.0000000e+00 -2.0826437e-02 0.0000000e+00 
0.0000000e+00 -2.1169275e-02 0.0000000e+00 
0.0000000e+00 -2.1508295e-02 0.0000000e+00 
0.0000000e+00 -2.1843426e-02 0.0000000e+00 
0.0000000e+00 -2.2174591e-02 0.0000000e+00 
0.0000000e+00 -2.2501720e-02 0.0000000e+00 
0.0000000e+00 -2.2824738e-02 0.0000000e+00 
0.0000000e+00 -2.3143571e-02 0.0000000e+00 
0.0000000e+00 -2.3458144e-02 0.0000000e+00 
0.0000000e+00 -2.3768388e-02 0.0000000e+00 
0.0000000e+00 -2.4074227e-02 0.0000000e+00 
0.0000000e+00 -2.4375586e-02 0.0000000e+00 
0.0000000e+00 -2.4672393e-02 0.0000000e+00 
0.0000000e+00 -2.4964577e-02 0.0000000e+00 
0.0000000e+00 -2.5252059e-02 0.0000000e+00 
0.0000000e+00 -2.5534771e-02 0.0000000e+00 
0.0000000e+00 -2.5812637e-02 0.0000000e+00 
0.0000000e+00 -2.6085583e-02 0.0000000e+00 
0.0000000e+00 -2.6353536e-02 0.0000000e+00 
0.0000000e+00 -2.6616424e-02 0.0000000e+00 
0.0000000e+00 -2.6874172e-02 0.0000000e+00 
0.0000000e+00 -2.7126705e-02 0.0000000e+00 
0.0000000e+00 -2.7373955e-02 0.0000000e+00 
0.0000000e+00 -2.7615841e-02 0.0000000e+00 
0.0000000e+00 -2.7852295e-02 0.0000000e+00 
0.0000000e+00 -2.8083242e-02 0.0000000e+00 
0.0000000e+00 -2.8308610e-02 0.0000000e+00 
0.0000000e+00 -2.8528322e-02 0.0000000e+00 
0.0000000e+00 -2.8742306e-02 0.0000000e+00 
0.0000000e+00 -2.8950488e-02 0.0000000e+00 
0.0000000e+00 -2.9152798e-02 0.0000000e+00 
0.0000000e+00 -2.9349158e-02 0.0000000e+00 
0.0000000e+00 -2.9539496e-02 0.0000000e+00 
0.0000000e+00 -2.9723739e-02 0.0000000e+00 
0.0000000e+00 -2.9901814e-02 0.0000000e+00 
0.0000000e+00 -3.0073646e-02 0.0000000e+00 
0.0000000e+00 -3.0239163e-02 0.0000000e+00 
0.0000000e+00 -3.0398291e-02 0.0000000e+00 
0.0000000e+00 -3.0550977e-02 0.0000000e+00 
0.0000000e+00 -3.0697236e-02 0.0000000e+00 
0.0000000e+00 -3.0837109e-02 0.0000000e+00 
0.0000000e+00 -3.0970640e-02 0.0000000e+00 
0.0000000e+00 -3.1097870e-02 0.0000000e+00 
0.0000000e+00 -3.1218842e-02 0.0000000e+00 
0.0000000e+00 -3.1333596e-02 0.0000000e+00 
0.0000000e+00 -3.1442177e-02 0.0000000e+00 
0.0000000e+00 -3.1544622e-02 0.0000000e+00 
0.0000000e+00 -3.1640980e-02 0.0000000e+00 
0.0000000e+00 -3.1731289e-02 0.0000000e+00 
0.0000000e+00 -3.1815588e-02 0.0000000e+00 
0.0000000e+00 -3.1893928e-02 0.0000000e+00 
0.0000000e+00 -3.1966340e-02 0.0000000e+00 
0.0000000e+00 -3.2032873e-02 0.0000000e+00 
0.0000000e+00 -3.2093566e-02 0.0000000e+00 
0.0000000e+00 -3.2148462e-02 0.0000000e+00 
0.0000000e+00 -3.2197606e-02 0.0000000e+00 
0.0000000e+00 -3.2241035e-02 0.0000000e+00 
0.0000000e+00 -3.2278791e-02 0.0000000e+00 
0.0000000e+00 -3.2310922e-02 0.0000000e+00 
0.0000000e+00 -3.2337464e-02 0.0000000e+00 
0.0000000e+00 -3.2358460e-02 0.0000000e+00 
0.0000000e+00 -3.2373950e-02 0.0000000e+00 
0.0000000e+00 -3.2383982e-02 0.0000000e+00 
0.0000000e+00 -3.2388590e-02 0.0000000e+00 
0.0000000e+00 -3.2387823e-02 0.0000000e+00 
0.0000000e+00 -3.2381721e-02 0.0000000e+00 
0.0000000e+00 -3.2370321e-02 0.0000000e+00 
0.0000000e+00 -3.2353669e-02 0.0000000e+00 
0.0000000e+00 -3.2331806e-02 0.0000000e+00 
0.0000000e+00 -3.2304775e-02 0.0000000e+00 
0.0000000e+00 -3.2272615e-02 0.0000000e+00 
0.0000000e+00 -3.2235369e-02 0.0000000e+00 
0.0000000e+00 -3.2193080e-02 0.0000000e+00 
0.0000000e+00 -3.2145787e-02 0.0000000e+00 
0.0000000e+00 -3.2093532e-02 0.0000000e+00 
0.0000000e+00 -3.2036360e-02 0.0000000e+00 
0.0000000e+00 -3.1974308e-02 0.0000000e+00 
0.0000000e+00 -3.1907421e-02 0.0000000e+00 
0.0000000e+00 -3.1835739e-02 0.0000000e+00 
0.0000000e+00 -3.1759303e-02 0.0000000e+00 
0.0000000e+00 -3.1678155e-02 0.0000000e+00 
0.0000000e+00 -3.1592336e-02 0.0000000e+00 
0.0000000e+00 -3.1501889e-02 0.0000000e+00 
0.0000000e+00 -3.1406853e-02 0.0000000e+00 
0.0000000e+00 -3.1307273e-02 0.0000000e+00 
0.0000000e+00 -3.1203186e-02 0.0000000e+00 
0.0000000e+00 -3.1094635e-02 0.0000000e+00 
0.0000000e+00 -3.0981662e-02 0.0000000e+00 
0.0000000e+00 -3.0864310e-02 0.0000000e+00 
0.0000000e+00 -3.0742615e-02 0.0000000e+00 
0.0000000e+00 -3.0616622e-02 0.0000000e+00 
0.0000000e+00 -3.0486371e-02 0.0000000e+00 
0.0000000e+00 -3.0351903e-02 0.0000000e+00 
0.0000000e+00 -3.0213261e-02 0.0000000e+00 
0.0000000e+00 -3.0070484e-02 0.0000000e+00 
0.0000000e+00 -2.9923612e-02 0.0000000e+00 
0.0000000e+00 -2.9772688e-02 0.0000000e+00 
0.0000000e+00 -2.9617753e-02 0.0000000e+00 
0.0000000e+00 -2.9458847e-02 0.0000000e+00 
0.0000000e+00 -2.9296011e-02 0.0000000e+00 
0.0000000e+00 -2.9129285e-02 0.0000000e+00 
0.0000000e+00 -2.8958712e-02 0.0000000e+00 
0.0000000e+00 -2.8784329e-02 0.0000000e+00 
0.0000000e+00 -2.8606182e-02 0.0000000e+00 
0.0000000e+00 -2.8424308e-02 0.0000000e+00 
0.0000000e+00 -2.8238747e-02 0.0000000e+00 
0.0000000e+00 -2.8049542e-02 0.0000000e+00 
0.0000000e+00 -2.7856732e-02 0.0000000e+00 
0.0000000e+00 -2.7660357e-02 0.0000000e+00 
0.0000000e+00 -2.7460460e-02 0.0000000e+00 
0.0000000e+00 -2.7257079e-02 0.0000000e+00 
0.0000000e+00 -2.7050255e-02 0.0000000e+00 
0.0000000e+00 -2.6840029e-02 0.0000000e+00 
0.0000000e+00 -2.6626440e-02 0.0000000e+00 
0.0000000e+00 -2.6409529e-02 0.0000000e+00 
0.0000000e+00 -2.6189338e-02 0.0000000e+00 
0.0000000e+00 -2.5965905e-02 0.0000000e+00 
0.0000000e+00 -2.5739269e-02 0.0000000e+00 
0.0000000e+00 -2.5509473e-02 0.0000000e+00 
0.0000000e+00 -2.5276555e-02 0.0000000e+00 
0.0000000e+00 -2.5040556e-02 0.0000000e+00 
0.0000000e+00 -2.4801515e-02 0.0000000e+00 
0.0000000e+00 -2.4559472e-02 0.0000000e+00 
0.0000000e+00 -2.4314469e-02 0.0000000e+00 
0.0000000e+00 -2.4066543e-02 0.0000000e+00 
0.0000000e+00 -2.3815736e-02 0.0000000e+00 
0.0000000e+00 -2.3562085e-02 0.0000000e+00 
0.0000000e+00 -2.3305632e-02 0.0000000e+00 
0.0000000e+00 -2.3046417e-02 0.0000000e+00 
0.0000000e+00 -2.2784479e-02 0.0000000e+00 
0.0000000e+00 -2.2519855e-02 0.0000000e+00 
0.0000000e+00 -2.2252588e-02 0.0000000e+00 
0.0000000e+00 -2.1982716e-02 0.0000000e+00 
0.0000000e+00 -2.1710278e-02 0.0000000e+00 
0.0000000e+00 -2.1435315e-02 0.0000000e+00 
0.0000000e+00 -2.1157864e-02 0.0000000e+00 
0.0000000e+00 -2.0877969e-02 0.0000000e+00 
0.0000000e+00 -2.0595662e-02 0.0000000e+00 
0.0000000e+00 -2.0310987e-02 0.0000000e+00 
0.0000000e+00 -2.0023983e-02 0.0000000e+00 
0.0000000e+00 -1.9734688e-02 0.0000000e+00 
0.0000000e+00 -1.9443141e-02 0.0000000e+00 
0.0000000e+00 -1.9149384e-02 0.0000000e+00 
0.0000000e+00 -1.8853450e-02 0.0000000e+00 
0.0000000e+00 -1.8555384e-02 0.0000000e+00 
0.0000000e+00 -1.8255221e-02 0.0000000e+00 
0.0000000e+00 -1.7953001e-02 0.0000000e+00 
0.0000000e+00 -1.7648764e-02 0.0000000e+00 
0.0000000e+00 -1.7342549e-02 0.0000000e+00 
0.0000000e+00 -1.7034393e-02 0.0000000e+00 
0.0000000e+00 -1.6724335e-02 0.0000000e+00 
0.0000000e+00 -1.6412415e-02 0.0000000e+00 
0.0000000e+00 -1.6098669e-02 0.0000000e+00 
0.0000000e+00 -1.5783139e-02 0.0000000e+00 
0.0000000e+00 -1.5465861e-02 0.0000000e+00 
0.0000000e+00 -1.5146876e-02 0.0000000e+00 
0.0000000e+00 -1.4826220e-02 0.0000000e+00 
0.0000000e+00 -1.4503933e-02 0.0000000e+00 
0.0000000e+00 -1.4180053e-02 0.0000000e+00 
0.0000000e+00 -1.3854618e-02 0.0000000e+00 
0.0000000e+00 -1.3527667e-02 0.0000000e+00 
0.0000000e+00 -1.3199239e-02 0.0000000e+00 
0.0000000e+00 -1.2869370e-02 0.0000000e+00 
0.0000000e+00 -1.2538101e-02 0.0000000e+00 
0.0000000e+00 -1.2205468e-02 0.0000000e+00 
0.0000000e+00 -1.1871511e-02 0.0000000e+00 
0.0000000e+00 -1.1536268e-02 0.0000000e+00 
0.0000000e+00 -1.1199775e-02 0.0000000e+00 
0.0000000e+00 -1.0862072e-02 0.0000000e+00 
0.0000000e+00 -1.0523197e-02 0.0000000e+00 
0.0000000e+00 -1.0183188e-02 0.0000000e+00 
0.0000000e+00 -9.8420838e-03 0.0000000e+00 
0.0000000e+00 -9.4999205e-03 0.0000000e+00 
0.0000000e+00 -9.1567375e-03 0.0000000e+00 
0.0000000e+00 -8.8125728e-03 0.0000000e+00 
0.0000000e+00 -8.4674628e-03 0.0000000e+00 
0.0000000e+00 -8.1214476e-03 0.0000000e+00 
0.0000000e+00 -7.7745644e-03 0.0000000e+00 
0.0000000e+00 -7.4268505e-03 0.0000000e+00 
0.0000000e+00 -7.0783445e-03 0.0000000e+00 
0.0000000e+00 -6.7290836e-03 0.0000000e+00 
0.0000000e+00 -6.3791061e-03 0.0000000e+00 
0.0000000e+00 -6.0284492e-03 0.0000000e+00 
0.0000000e+00 -5.6771520e-03 0.0000000e+00 
0.0000000e+00 -5.3252508e-03 0.0000000e+00 
0.0000000e+00 -4.9727843e-03 0.0000000e+00 
0.0000000e+00 -4.6197898e-03 0.0000000e+00 
0.0000000e+00 -4.2663058e-03 0.0000000e+00 
0.0000000e+00 -3.9123693e-03 0.0000000e+00 
0.0000000e+00 -3.5580180e-03 0.0000000e+00 
0.0000000e+00 -3.2032898e-03 0.0000000e+00 
0.0000000e+00 -2.8482229e-03 0.0000000e+00 
0.0000000e+00 -2.4928541e-03 0.0000000e+00 
0.0000000e+00 -2.1372219e-03 0.0000000e+00 
0.0000000e+00 -1.7813636e-03 0.0000000e+00 
0.0000000e+00 -1.4253169e-03 0.0000000e+00 
0.0000000e+00 -1.0691195e-03 0.0000000e+00 
0.0000000e+00 -7.1280915e-04 0.0000000e+00 
0.0000000e+00 -3.5642341e-04 0.0000000e+00 
CELL_DATA 250
FIELD FieldData 0
