# vtk DataFile Version 4.0
vtk output
ASCII
DATASET UNSTRUCTURED_GRID
POINTS 251 float
0.0000000e+00 0.0000000e+00 0.0000000e+00 
2.5000000e+01 0.0000000e+00 0.0000000e+00 
1.0000000e-01 0.0000000e+00 0.0000000e+00 
2.0000000e-01 0.0000000e+00 0.0000000e+00 
3.0000001e-01 0.0000000e+00 0.0000000e+00 
4.0000001e-01 0.0000000e+00 0.0000000e+00 
5.0000000e-01 0.0000000e+00 0.0000000e+00 
6.0000002e-01 0.0000000e+00 0.0000000e+00 
6.9999999e-01 0.0000000e+00 0.0000000e+00 
8.0000001e-01 0.0000000e+00 0.0000000e+00 
8.9999998e-01 0.0000000e+00 0.0000000e+00 
1.0000000e+00 0.0000000e+00 0.0000000e+00 
1.1000000e+00 0.0000000e+00 0.0000000e+00 
1.2000000e+00 0.0000000e+00 0.0000000e+00 
1.3000000e+00 0.0000000e+00 0.0000000e+00 
1.4000000e+00 0.0000000e+00 0.0000000e+00 
1.5000000e+00 0.0000000e+00 0.0000000e+00 
1.6000000e+00 0.0000000e+00 0.0000000e+00 
1.7000000e+00 0.0000000e+00 0.0000000e+00 
1.8000000e+00 0.0000000e+00 0.0000000e+00 
1.9000000e+00 0.0000000e+00 0.0000000e+00 
2.0000000e+00 0.0000000e+00 0.0000000e+00 
2.0999999e+00 0.0000000e+00 0.0000000e+00 
2.2000000e+00 0.0000000e+00 0.0000000e+00 
2.3000000e+00 0.0000000e+00 0.0000000e+00 
2.4000001e+00 0.0000000e+00 0.0000000e+00 
2.5000000e+00 0.0000000e+00 0.0000000e+00 
2.5999999e+00 0.0000000e+00 0.0000000e+00 
2.7000000e+00 0.0000000e+00 0.0000000e+00 
2.8000000e+00 0.0000000e+00 0.0000000e+00 
2.9000001e+00 0.0000000e+00 0.0000000e+00 
3.0000000e+00 0.0000000e+00 0.0000000e+00 
3.0999999e+00 0.0000000e+00 0.0000000e+00 
3.2000000e+00 0.0000000e+00 0.0000000e+00 
3.3000000e+00 0.0000000e+00 0.0000000e+00 
3.4000001e+00 0.0000000e+00 0.0000000e+00 
3.5000000e+00 0.0000000e+00 0.0000000e+00 
3.5999999e+00 0.0000000e+00 0.0000000e+00 
3.7000000e+00 0.0000000e+00 0.0000000e+00 
3.8000000e+00 0.0000000e+00 0.0000000e+00 
3.9000001e+00 0.0000000e+00 0.0000000e+00 
4.0000000e+00 0.0000000e+00 0.0000000e+00 
4.0999999e+00 0.0000000e+00 0.0000000e+00 
4.1999998e+00 0.0000000e+00 0.0000000e+00 
4.3000002e+00 0.0000000e+00 0.0000000e+00 
4.4000001e+00 0.0000000e+00 0.0000000e+00 
4.5000000e+00 0.0000000e+00 0.0000000e+00 
4.5999999e+00 0.0000000e+00 0.0000000e+00 
4.6999998e+00 0.0000000e+00 0.0000000e+00 
4.8000002e+00 0.0000000e+00 0.0000000e+00 
4.9000001e+00 0.0000000e+00 0.0000000e+00 
5.0000000e+00 0.0000000e+00 0.0000000e+00 
5.0999999e+00 0.0000000e+00 0.0000000e+00 
5.1999998e+00 0.0000000e+00 0.0000000e+00 
5.3000002e+00 0.0000000e+00 0.0000000e+00 
5.4000001e+00 0.0000000e+00 0.0000000e+00 
5.5000000e+00 0.0000000e+00 0.0000000e+00 
5.5999999e+00 0.0000000e+00 0.0000000e+00 
5.6999998e+00 0.0000000e+00 0.0000000e+00 
5.8000002e+00 0.0000000e+00 0.0000000e+00 
5.9000001e+00 0.0000000e+00 0.0000000e+00 
6.0000000e+00 0.0000000e+00 0.0000000e+00 
6.0999999e+00 0.0000000e+00 0.0000000e+00 
6.1999998e+00 0.0000000e+00 0.0000000e+00 
6.3000002e+00 0.0000000e+00 0.0000000e+00 
6.4000001e+00 0.0000000e+00 0.0000000e+00 
6.5000000e+00 0.0000000e+00 0.0000000e+00 
6.5999999e+00 0.0000000e+00 0.0000000e+00 
6.6999998e+00 0.0000000e+00 0.0000000e+00 
6.8000002e+00 0.0000000e+00 0.0000000e+00 
6.9000001e+00 0.0000000e+00 0.0000000e+00 
7.0000000e+00 0.0000000e+00 0.0000000e+00 
7.0999999e+00 0.0000000e+00 0.0000000e+00 
7.1999998e+00 0.0000000e+00 0.0000000e+00 
7.3000002e+00 0.0000000e+00 0.0000000e+00 
7.4000001e+00 0.0000000e+00 0.0000000e+00 
7.5000000e+00 0.0000000e+00 0.0000000e+00 
7.5999999e+00 0.0000000e+00 0.0000000e+00 
7.6999998e+00 0.0000000e+00 0.0000000e+00 
7.8000002e+00 0.0000000e+00 0.0000000e+00 
7.9000001e+00 0.0000000e+00 0.0000000e+00 
8.0000000e+00 0.0000000e+00 0.0000000e+00 
8.1000004e+00 0.0000000e+00 0.0000000e+00 
8.1999998e+00 0.0000000e+00 0.0000000e+00 
8.3000002e+00 0.0000000e+00 0.0000000e+00 
8.3999996e+00 0.0000000e+00 0.0000000e+00 
8.5000000e+00 0.0000000e+00 0.0000000e+00 
8.6000004e+00 0.0000000e+00 0.0000000e+00 
8.6999998e+00 0.0000000e+00 0.0000000e+00 
8.8000002e+00 0.0000000e+00 0.0000000e+00 
8.8999996e+00 0.0000000e+00 0.0000000e+00 
9.0000000e+00 0.0000000e+00 0.0000000e+00 
9.1000004e+00 0.0000000e+00 0.0000000e+00 
9.1999998e+00 0.0000000e+00 0.0000000e+00 
9.3000002e+00 0.0000000e+00 0.0000000e+00 
9.3999996e+00 0.0000000e+00 0.0000000e+00 
9.5000000e+00 0.0000000e+00 0.0000000e+00 
9.6000004e+00 0.0000000e+00 0.0000000e+00 
9.6999998e+00 0.0000000e+00 0.0000000e+00 
9.8000002e+00 0.0000000e+00 0.0000000e+00 
9.8999996e+00 0.0000000e+00 0.0000000e+00 
1.0000000e+01 0.0000000e+00 0.0000000e+00 
1.0100000e+01 0.0000000e+00 0.0000000e+00 
1.0200000e+01 0.0000000e+00 0.0000000e+00 
1.0300000e+01 0.0000000e+00 0.0000000e+00 
1.0400000e+01 0.0000000e+00 0.0000000e+00 
1.0500000e+01 0.0000000e+00 0.0000000e+00 
1.0600000e+01 0.0000000e+00 0.0000000e+00 
1.0700000e+01 0.0000000e+00 0.0000000e+00 
1.0800000e+01 0.0000000e+00 0.0000000e+00 
1.0900000e+01 0.0000000e+00 0.0000000e+00 
1.1000000e+01 0.0000000e+00 0.0000000e+00 
1.1100000e+01 0.0000000e+00 0.0000000e+00 
1.1200000e+01 0.0000000e+00 0.0000000e+00 
1.1300000e+01 0.0000000e+00 0.0000000e+00 
1.1400000e+01 0.0000000e+00 0.0000000e+00 
1.1500000e+01 0.0000000e+00 0.0000000e+00 
1.1600000e+01 0.0000000e+00 0.0000000e+00 
1.1700000e+01 0.0000000e+00 0.0000000e+00 
1.1800000e+01 0.0000000e+00 0.0000000e+00 
1.1900000e+01 0.0000000e+00 0.0000000e+00 
1.2000000e+01 0.0000000e+00 0.0000000e+00 
1.2100000e+01 0.0000000e+00 0.0000000e+00 
1.2200000e+01 0.0000000e+00 0.0000000e+00 
1.2300000e+01 0.0000000e+00 0.0000000e+00 
1.2400000e+01 0.0000000e+00 0.0000000e+00 
1.2500000e+01 0.0000000e+00 0.0000000e+00 
1.2600000e+01 0.0000000e+00 0.0000000e+00 
1.2700000e+01 0.0000000e+00 0.0000000e+00 
1.2800000e+01 0.0000000e+00 0.0000000e+00 
1.2900000e+01 0.0000000e+00 0.0000000e+00 
1.3000000e+01 0.0000000e+00 0.0000000e+00 
1.3100000e+01 0.0000000e+00 0.0000000e+00 
1.3200000e+01 0.0000000e+00 0.0000000e+00 
1.3300000e+01 0.0000000e+00 0.0000000e+00 
1.3400000e+01 0.0000000e+00 0.0000000e+00 
1.3500000e+01 0.0000000e+00 0.0000000e+00 
1.3600000e+01 0.0000000e+00 0.0000000e+00 
1.3700000e+01 0.0000000e+00 0.0000000e+00 
1.3800000e+01 0.0000000e+00 0.0000000e+00 
1.3900000e+01 0.0000000e+00 0.0000000e+00 
1.4000000e+01 0.0000000e+00 0.0000000e+00 
1.4100000e+01 0.0000000e+00 0.0000000e+00 
1.4200000e+01 0.0000000e+00 0.0000000e+00 
1.4300000e+01 0.0000000e+00 0.0000000e+00 
1.4400000e+01 0.0000000e+00 0.0000000e+00 
1.4500000e+01 0.0000000e+00 0.0000000e+00 
1.4600000e+01 0.0000000e+00 0.0000000e+00 
1.4700000e+01 0.0000000e+00 0.0000000e+00 
1.4800000e+01 0.0000000e+00 0.0000000e+00 
1.4900000e+01 0.0000000e+00 0.0000000e+00 
1.5000000e+01 0.0000000e+00 0.0000000e+00 
1.5100000e+01 0.0000000e+00 0.0000000e+00 
1.5200000e+01 0.0000000e+00 0.0000000e+00 
1.5300000e+01 0.0000000e+00 0.0000000e+00 
1.5400000e+01 0.0000000e+00 0.0000000e+00 
1.5500000e+01 0.0000000e+00 0.0000000e+00 
1.5600000e+01 0.0000000e+00 0.0000000e+00 
1.5700000e+01 0.0000000e+00 0.0000000e+00 
1.5800000e+01 0.0000000e+00 0.0000000e+00 
1.5900000e+01 0.0000000e+00 0.0000000e+00 
1.6000000e+01 0.0000000e+00 0.0000000e+00 
1.6100000e+01 0.0000000e+00 0.0000000e+00 
1.6200001e+01 0.0000000e+00 0.0000000e+00 
1.6299999e+01 0.0000000e+00 0.0000000e+00 
1.6400000e+01 0.0000000e+00 0.0000000e+00 
1.6500000e+01 0.0000000e+00 0.0000000e+00 
1.6600000e+01 0.0000000e+00 0.0000000e+00 
1.6700001e+01 0.0000000e+00 0.0000000e+00 
1.6799999e+01 0.0000000e+00 0.0000000e+00 
1.6900000e+01 0.0000000e+00 0.0000000e+00 
1.7000000e+01 0.0000000e+00 0.0000000e+00 
1.7100000e+01 0.0000000e+00 0.0000000e+00 
1.7200001e+01 0.0000000e+00 0.0000000e+00 
1.7299999e+01 0.0000000e+00 0.0000000e+00 
1.7400000e+01 0.0000000e+00 0.0000000e+00 
1.7500000e+01 0.0000000e+00 0.0000000e+00 
1.7600000e+01 0.0000000e+00 0.0000000e+00 
1.7700001e+01 0.0000000e+00 0.0000000e+00 
1.7799999e+01 0.0000000e+00 0.0000000e+00 
1.7900000e+01 0.0000000e+00 0.0000000e+00 
1.8000000e+01 0.0000000e+00 0.0000000e+00 
1.8100000e+01 0.0000000e+00 0.0000000e+00 
1.8200001e+01 0.0000000e+00 0.0000000e+00 
1.8299999e+01 0.0000000e+00 0.0000000e+00 
1.8400000e+01 0.0000000e+00 0.0000000e+00 
1.8500000e+01 0.0000000e+00 0.0000000e+00 
1.8600000e+01 0.0000000e+00 0.0000000e+00 
1.8700001e+01 0.0000000e+00 0.0000000e+00 
1.8799999e+01 0.0000000e+00 0.0000000e+00 
1.8900000e+01 0.0000000e+00 0.0000000e+00 
1.9000000e+01 0.0000000e+00 0.0000000e+00 
1.9100000e+01 0.0000000e+00 0.0000000e+00 
1.9200001e+01 0.0000000e+00 0.0000000e+00 
1.9299999e+01 0.0000000e+00 0.0000000e+00 
1.9400000e+01 0.0000000e+00 0.0000000e+00 
1.9500000e+01 0.0000000e+00 0.0000000e+00 
1.9600000e+01 0.0000000e+00 0.0000000e+00 
1.9700001e+01 0.0000000e+00 0.0000000e+00 
1.9799999e+01 0.0000000e+00 0.0000000e+00 
1.9900000e+01 0.0000000e+00 0.0000000e+00 
2.0000000e+01 0.0000000e+00 0.0000000e+00 
2.0100000e+01 0.0000000e+00 0.0000000e+00 
2.0200001e+01 0.0000000e+00 0.0000000e+00 
2.0299999e+01 0.0000000e+00 0.0000000e+00 
2.0400000e+01 0.0000000e+00 0.0000000e+00 
2.0500000e+01 0.0000000e+00 0.0000000e+00 
2.0600000e+01 0.0000000e+00 0.0000000e+00 
2.0700001e+01 0.0000000e+00 0.0000000e+00 
2.0799999e+01 0.0000000e+00 0.0000000e+00 
2.0900000e+01 0.0000000e+00 0.0000000e+00 
2.1000000e+01 0.0000000e+00 0.0000000e+00 
2.1100000e+01 0.0000000e+00 0.0000000e+00 
2.1200001e+01 0.0000000e+00 0.0000000e+00 
2.1299999e+01 0.0000000e+00 0.0000000e+00 
2.1400000e+01 0.0000000e+00 0.0000000e+00 
2.1500000e+01 0.0000000e+00 0.0000000e+00 
2.1600000e+01 0.0000000e+00 0.0000000e+00 
2.1700001e+01 0.0000000e+00 0.0000000e+00 
2.1799999e+01 0.0000000e+00 0.0000000e+00 
2.1900000e+01 0.0000000e+00 0.0000000e+00 
2.2000000e+01 0.0000000e+00 0.0000000e+00 
2.2100000e+01 0.0000000e+00 0.0000000e+00 
2.2200001e+01 0.0000000e+00 0.0000000e+00 
2.2299999e+01 0.0000000e+00 0.0000000e+00 
2.2400000e+01 0.0000000e+00 0.0000000e+00 
2.2500000e+01 0.0000000e+00 0.0000000e+00 
2.2600000e+01 0.0000000e+00 0.0000000e+00 
2.2700001e+01 0.0000000e+00 0.0000000e+00 
2.2799999e+01 0.0000000e+00 0.0000000e+00 
2.2900000e+01 0.0000000e+00 0.0000000e+00 
2.3000000e+01 0.0000000e+00 0.0000000e+00 
2.3100000e+01 0.0000000e+00 0.0000000e+00 
2.3200001e+01 0.0000000e+00 0.0000000e+00 
2.3299999e+01 0.0000000e+00 0.0000000e+00 
2.3400000e+01 0.0000000e+00 0.0000000e+00 
2.3500000e+01 0.0000000e+00 0.0000000e+00 
2.3600000e+01 0.0000000e+00 0.0000000e+00 
2.3700001e+01 0.0000000e+00 0.0000000e+00 
2.3799999e+01 0.0000000e+00 0.0000000e+00 
2.3900000e+01 0.0000000e+00 0.0000000e+00 
2.4000000e+01 0.0000000e+00 0.0000000e+00 
2.4100000e+01 0.0000000e+00 0.0000000e+00 
2.4200001e+01 0.0000000e+00 0.0000000e+00 
2.4299999e+01 0.0000000e+00 0.0000000e+00 
2.4400000e+01 0.0000000e+00 0.0000000e+00 
2.4500000e+01 0.0000000e+00 0.0000000e+00 
2.4600000e+01 0.0000000e+00 0.0000000e+00 
2.4700001e+01 0.0000000e+00 0.0000000e+00 
2.4799999e+01 0.0000000e+00 0.0000000e+00 
2.4900000e+01 0.0000000e+00 0.0000000e+00 

CELLS 250 750
2 0 2
2 2 3
2 3 4
2 4 5
2 5 6
2 6 7
2 7 8
2 8 9
2 9 10
2 10 11
2 11 12
2 12 13
2 13 14
2 14 15
2 15 16
2 16 17
2 17 18
2 18 19
2 19 20
2 20 21
2 21 22
2 22 23
2 23 24
2 24 25
2 25 26
2 26 27
2 27 28
2 28 29
2 29 30
2 30 31
2 31 32
2 32 33
2 33 34
2 34 35
2 35 36
2 36 37
2 37 38
2 38 39
2 39 40
2 40 41
2 41 42
2 42 43
2 43 44
2 44 45
2 45 46
2 46 47
2 47 48
2 48 49
2 49 50
2 50 51
2 51 52
2 52 53
2 53 54
2 54 55
2 55 56
2 56 57
2 57 58
2 58 59
2 59 60
2 60 61
2 61 62
2 62 63
2 63 64
2 64 65
2 65 66
2 66 67
2 67 68
2 68 69
2 69 70
2 70 71
2 71 72
2 72 73
2 73 74
2 74 75
2 75 76
2 76 77
2 77 78
2 78 79
2 79 80
2 80 81
2 81 82
2 82 83
2 83 84
2 84 85
2 85 86
2 86 87
2 87 88
2 88 89
2 89 90
2 90 91
2 91 92
2 92 93
2 93 94
2 94 95
2 95 96
2 96 97
2 97 98
2 98 99
2 99 100
2 100 101
2 101 102
2 102 103
2 103 104
2 104 105
2 105 106
2 106 107
2 107 108
2 108 109
2 109 110
2 110 111
2 111 112
2 112 113
2 113 114
2 114 115
2 115 116
2 116 117
2 117 118
2 118 119
2 119 120
2 120 121
2 121 122
2 122 123
2 123 124
2 124 125
2 125 126
2 126 127
2 127 128
2 128 129
2 129 130
2 130 131
2 131 132
2 132 133
2 133 134
2 134 135
2 135 136
2 136 137
2 137 138
2 138 139
2 139 140
2 140 141
2 141 142
2 142 143
2 143 144
2 144 145
2 145 146
2 146 147
2 147 148
2 148 149
2 149 150
2 150 151
2 151 152
2 152 153
2 153 154
2 154 155
2 155 156
2 156 157
2 157 158
2 158 159
2 159 160
2 160 161
2 161 162
2 162 163
2 163 164
2 164 165
2 165 166
2 166 167
2 167 168
2 168 169
2 169 170
2 170 171
2 171 172
2 172 173
2 173 174
2 174 175
2 175 176
2 176 177
2 177 178
2 178 179
2 179 180
2 180 181
2 181 182
2 182 183
2 183 184
2 184 185
2 185 186
2 186 187
2 187 188
2 188 189
2 189 190
2 190 191
2 191 192
2 192 193
2 193 194
2 194 195
2 195 196
2 196 197
2 197 198
2 198 199
2 199 200
2 200 201
2 201 202
2 202 203
2 203 204
2 204 205
2 205 206
2 206 207
2 207 208
2 208 209
2 209 210
2 210 211
2 211 212
2 212 213
2 213 214
2 214 215
2 215 216
2 216 217
2 217 218
2 218 219
2 219 220
2 220 221
2 221 222
2 222 223
2 223 224
2 224 225
2 225 226
2 226 227
2 227 228
2 228 229
2 229 230
2 230 231
2 231 232
2 232 233
2 233 234
2 234 235
2 235 236
2 236 237
2 237 238
2 238 239
2 239 240
2 240 241
2 241 242
2 242 243
2 243 244
2 244 245
2 245 246
2 246 247
2 247 248
2 248 249
2 249 250
2 250 1

CELL_TYPES 250
3
3
3
3
3
3
3
3
3
3
3
3
3
3
3
3
3
3
3
3
3
3
3
3
3
3
3
3
3
3
3
3
3
3
3
3
3
3
3
3
3
3
3
3
3
3
3
3
3
3
3
3
3
3
3
3
3
3
3
3
3
3
3
3
3
3
3
3
3
3
3
3
3
3
3
3
3
3
3
3
3
3
3
3
3
3
3
3
3
3
3
3
3
3
3
3
3
3
3
3
3
3
3
3
3
3
3
3
3
3
3
3
3
3
3
3
3
3
3
3
3
3
3
3
3
3
3
3
3
3
3
3
3
3
3
3
3
3
3
3
3
3
3
3
3
3
3
3
3
3
3
3
3
3
3
3
3
3
3
3
3
3
3
3
3
3
3
3
3
3
3
3
3
3
3
3
3
3
3
3
3
3
3
3
3
3
3
3
3
3
3
3
3
3
3
3
3
3
3
3
3
3
3
3
3
3
3
3
3
3
3
3
3
3
3
3
3
3
3
3
3
3
3
3
3
3
3
3
3
3
3
3
3
3
3
3
3
3
3
3
3
3
3
3
3
3
3
3
3
3
POINT_DATA 251
FIELD FieldData 1
DISPLACEMENT 3 251  float
0.0000000e+00 0.0000000e+00 0.0000000e+00 
0.0000000e+00 0.0000000e+00 0.0000000e+00 
0.0000000e+00 -2.5879424e-05 0.0000000e+00 
0.0000000e+00 -5.1764346e-05 0.0000000e+00 
0.0000000e+00 -7.7660254e-05 0.0000000e+00 
0.0000000e+00 -1.0357262e-04 0.0000000e+00 
0.0000000e+00 -1.2950695e-04 0.0000000e+00 
0.0000000e+00 -1.5546868e-04 0.0000000e+00 
0.0000000e+00 -1.8146324e-04 0.0000000e+00 
0.0000000e+00 -2.0749606e-04 0.0000000e+00 
0.0000000e+00 -2.3357256e-04 0.0000000e+00 
0.0000000e+00 -2.5969808e-04 0.0000000e+00 
0.0000000e+00 -2.8587793e-04 0.0000000e+00 
0.0000000e+00 -3.1211745e-04 0.0000000e+00 
0.0000000e+00 -3.3842190e-04 0.0000000e+00 
0.0000000e+00 -3.6479646e-04 0.0000000e+00 
0.0000000e+00 -3.9124634e-04 0.0000000e+00 
0.0000000e+00 -4.1777664e-04 0.0000000e+00 
0.0000000e+00 -4.4439244e-04 0.0000000e+00 
0.0000000e+00 -4.7109870e-04 0.0000000e+00 
0.0000000e+00 -4.9790042e-04 0.0000000e+00 
0.0000000e+00 -5.2480248e-04 0.0000000e+00 
0.0000000e+00 -5.5180973e-04 0.0000000e+00 
0.0000000e+00 -5.7892682e-04 0.0000000e+00 
0.0000000e+00 -6.0615852e-04 0.0000000e+00 
0.0000000e+00 -6.3350936e-04 0.0000000e+00 
0.0000000e+00 -6.6098390e-04 0.0000000e+00 
0.0000000e+00 -6.8858662e-04 0.0000000e+00 
0.0000000e+00 -7.1632175e-04 0.0000000e+00 
0.0000000e+00 -7.4419356e-04 0.0000000e+00 
0.0000000e+00 -7.7220629e-04 0.0000000e+00 
0.0000000e+00 -8.0036401e-04 0.0000000e+00 
0.0000000e+00 -8.2867057e-04 0.0000000e+00 
0.0000000e+00 -8.5712987e-04 0.0000000e+00 
0.0000000e+00 -8.8574574e-04 0.0000000e+00 
0.0000000e+00 -9.1452175e-04 0.0000000e+00 
0.0000000e+00 -9.4346137e-04 0.0000000e+00 
0.0000000e+00 -9.7256817e-04 0.0000000e+00 
0.0000000e+00 -1.0018453e-03 0.0000000e+00 
0.0000000e+00 -1.0312960e-03 0.0000000e+00 
0.0000000e+00 -1.0609233e-03 0.0000000e+00 
0.0000000e+00 -1.0907301e-03 0.0000000e+00 
0.0000000e+00 -1.1207191e-03 0.0000000e+00 
0.0000000e+00 -1.1508932e-03 0.0000000e+00 
0.0000000e+00 -1.1812546e-03 0.0000000e+00 
0.0000000e+00 -1.2118059e-03 0.0000000e+00 
0.0000000e+00 -1.2425492e-03 0.0000000e+00 
0.0000000e+00 -1.2734865e-03 0.0000000e+00 
0.0000000e+00 -1.3046201e-03 0.0000000e+00 
0.0000000e+00 -1.3359514e-03 0.0000000e+00 
0.0000000e+00 -1.3674821e-03 0.0000000e+00 
0.0000000e+00 -1.3992138e-03 0.0000000e+00 
0.0000000e+00 -1.4311477e-03 0.0000000e+00 
0.0000000e+00 -1.4632849e-03 0.0000000e+00 
0.0000000e+00 -1.4956265e-03 0.0000000e+00 
0.0000000e+00 -1.5281733e-03 0.0000000e+00 
0.0000000e+00 -1.5609259e-03 0.0000000e+00 
0.0000000e+00 -1.5938848e-03 0.0000000e+00 
0.0000000e+00 -1.6270502e-03 0.0000000e+00 
0.0000000e+00 -1.6604223e-03 0.0000000e+00 
0.0000000e+00 -1.6940010e-03 0.0000000e+00 
0.0000000e+00 -1.7277860e-03 0.0000000e+00 
0.0000000e+00 -1.7617771e-03 0.0000000e+00 
0.0000000e+00 -1.7959734e-03 0.0000000e+00 
0.0000000e+00 -1.8303744e-03 0.0000000e+00 
0.0000000e+00 -1.8649787e-03 0.0000000e+00 
0.0000000e+00 -1.8997854e-03 0.0000000e+00 
0.0000000e+00 -1.9347931e-03 0.0000000e+00 
0.0000000e+00 -1.9700001e-03 0.0000000e+00 
0.0000000e+00 -2.0054048e-03 0.0000000e+00 
0.0000000e+00 -2.0410048e-03 0.0000000e+00 
0.0000000e+00 -2.0767986e-03 0.0000000e+00 
0.0000000e+00 -2.1127833e-03 0.0000000e+00 
0.0000000e+00 -2.1489563e-03 0.0000000e+00 
0.0000000e+00 -2.1853149e-03 0.0000000e+00 
0.0000000e+00 -2.2218560e-03 0.0000000e+00 
0.0000000e+00 -2.2585767e-03 0.0000000e+00 
0.0000000e+00 -2.2954734e-03 0.0000000e+00 
0.0000000e+00 -2.3325421e-03 0.0000000e+00 
0.0000000e+00 -2.3697794e-03 0.0000000e+00 
0.0000000e+00 -2.4071811e-03 0.0000000e+00 
0.0000000e+00 -2.4447425e-03 0.0000000e+00 
0.0000000e+00 -2.4824594e-03 0.0000000e+00 
0.0000000e+00 -2.5203272e-03 0.0000000e+00 
0.0000000e+00 -2.5583408e-03 0.0000000e+00 
0.0000000e+00 -2.5964947e-03 0.0000000e+00 
0.0000000e+00 -2.6347837e-03 0.0000000e+00 
0.0000000e+00 -2.6732022e-03 0.0000000e+00 
0.0000000e+00 -2.7117443e-03 0.0000000e+00 
0.0000000e+00 -2.7504039e-03 0.0000000e+00 
0.0000000e+00 -2.7891744e-03 0.0000000e+00 
0.0000000e+00 -2.8280497e-03 0.0000000e+00 
0.0000000e+00 -2.8670225e-03 0.0000000e+00 
0.0000000e+00 -2.9060862e-03 0.0000000e+00 
0.0000000e+00 -2.9452331e-03 0.0000000e+00 
0.0000000e+00 -2.9844560e-03 0.0000000e+00 
0.0000000e+00 -3.0237471e-03 0.0000000e+00 
0.0000000e+00 -3.0630983e-03 0.0000000e+00 
0.0000000e+00 -3.1025016e-03 0.0000000e+00 
0.0000000e+00 -3.1419483e-03 0.0000000e+00 
0.0000000e+00 -3.1814298e-03 0.0000000e+00 
0.0000000e+00 -3.2209372e-03 0.0000000e+00 
0.0000000e+00 -3.2604614e-03 0.0000000e+00 
0.0000000e+00 -3.2999928e-03 0.0000000e+00 
0.0000000e+00 -3.3395221e-03 0.0000000e+00 
0.0000000e+00 -3.3790390e-03 0.0000000e+00 
0.0000000e+00 -3.4185336e-03 0.0000000e+00 
0.0000000e+00 -3.4579954e-03 0.0000000e+00 
0.0000000e+00 -3.4974141e-03 0.0000000e+00 
0.0000000e+00 -3.5367785e-03 0.0000000e+00 
0.0000000e+00 -3.5760778e-03 0.0000000e+00 
0.0000000e+00 -3.6153006e-03 0.0000000e+00 
0.0000000e+00 -3.6544350e-03 0.0000000e+00 
0.0000000e+00 -3.6934698e-03 0.0000000e+00 
0.0000000e+00 -3.7323926e-03 0.0000000e+00 
0.0000000e+00 -3.7711910e-03 0.0000000e+00 
0.0000000e+00 -3.8098528e-03 0.0000000e+00 
0.0000000e+00 -3.8483648e-03 0.0000000e+00 
0.0000000e+00 -3.8867146e-03 0.0000000e+00 
0.0000000e+00 -3.9248886e-03 0.0000000e+00 
0.0000000e+00 -3.9628730e-03 0.0000000e+00 
0.0000000e+00 -4.0006549e-03 0.0000000e+00 
0.0000000e+00 -4.0382198e-03 0.0000000e+00 
0.0000000e+00 -4.0755533e-03 0.0000000e+00 
0.0000000e+00 -4.1126418e-03 0.0000000e+00 
0.0000000e+00 -4.1494695e-03 0.0000000e+00 
0.0000000e+00 -4.1860230e-03 0.0000000e+00 
0.0000000e+00 -4.2222855e-03 0.0000000e+00 
0.0000000e+00 -4.2582429e-03 0.0000000e+00 
0.0000000e+00 -4.2938790e-03 0.0000000e+00 
0.0000000e+00 -4.3291785e-03 0.0000000e+00 
0.0000000e+00 -4.3641250e-03 0.0000000e+00 
0.0000000e+00 -4.3987017e-03 0.0000000e+00 
0.0000000e+00 -4.4328934e-03 0.0000000e+00 
0.0000000e+00 -4.4666817e-03 0.0000000e+00 
0.0000000e+00 -4.5000515e-03 0.0000000e+00 
0.0000000e+00 -4.5329840e-03 0.0000000e+00 
0.0000000e+00 -4.5654625e-03 0.0000000e+00 
0.0000000e+00 -4.5974697e-03 0.0000000e+00 
0.0000000e+00 -4.6289871e-03 0.0000000e+00 
0.0000000e+00 -4.6599968e-03 0.0000000e+00 
0.0000000e+00 -4.6904809e-03 0.0000000e+00 
0.0000000e+00 -4.7204206e-03 0.0000000e+00 
0.0000000e+00 -4.7497973e-03 0.0000000e+00 
0.0000000e+00 -4.7785919e-03 0.0000000e+00 
0.0000000e+00 -4.8067849e-03 0.0000000e+00 
0.0000000e+00 -4.8343576e-03 0.0000000e+00 
0.0000000e+00 -4.8612906e-03 0.0000000e+00 
0.0000000e+00 -4.8875632e-03 0.0000000e+00 
0.0000000e+00 -4.9131564e-03 0.0000000e+00 
0.0000000e+00 -4.9380492e-03 0.0000000e+00 
0.0000000e+00 -4.9622213e-03 0.0000000e+00 
0.0000000e+00 -4.9856529e-03 0.0000000e+00 
0.0000000e+00 -5.0083222e-03 0.0000000e+00 
0.0000000e+00 -5.0302092e-03 0.0000000e+00 
0.0000000e+00 -5.0512915e-03 0.0000000e+00 
0.0000000e+00 -5.0715492e-03 0.0000000e+00 
0.0000000e+00 -5.0909594e-03 0.0000000e+00 
0.0000000e+00 -5.1095011e-03 0.0000000e+00 
0.0000000e+00 -5.1271515e-03 0.0000000e+00 
0.0000000e+00 -5.1438897e-03 0.0000000e+00 
0.0000000e+00 -5.1596924e-03 0.0000000e+00 
0.0000000e+00 -5.1745377e-03 0.0000000e+00 
0.0000000e+00 -5.1884027e-03 0.0000000e+00 
0.0000000e+00 -5.2012643e-03 0.0000000e+00 
0.0000000e+00 -5.2130995e-03 0.0000000e+00 
0.0000000e+00 -5.2238852e-03 0.0000000e+00 
0.0000000e+00 -5.2335979e-03 0.0000000e+00 
0.0000000e+00 -5.2422145e-03 0.0000000e+00 
0.0000000e+00 -5.2497108e-03 0.0000000e+00 
0.0000000e+00 -5.2560628e-03 0.0000000e+00 
0.0000000e+00 -5.2612466e-03 0.0000000e+00 
0.0000000e+00 -5.2652382e-03 0.0000000e+00 
0.0000000e+00 -5.2680126e-03 0.0000000e+00 
0.0000000e+00 -5.2695461e-03 0.0000000e+00 
0.0000000e+00 -5.2698134e-03 0.0000000e+00 
0.0000000e+00 -5.2687898e-03 0.0000000e+00 
0.0000000e+00 -5.2664503e-03 0.0000000e+00 
0.0000000e+00 -5.2627698e-03 0.0000000e+00 
0.0000000e+00 -5.2577229e-03 0.0000000e+00 
0.0000000e+00 -5.2512847e-03 0.0000000e+00 
0.0000000e+00 -5.2434285e-03 0.0000000e+00 
0.0000000e+00 -5.2341293e-03 0.0000000e+00 
0.0000000e+00 -5.2233613e-03 0.0000000e+00 
0.0000000e+00 -5.2110981e-03 0.0000000e+00 
0.0000000e+00 -5.1973141e-03 0.0000000e+00 
0.0000000e+00 -5.1819822e-03 0.0000000e+00 
0.0000000e+00 -5.1650768e-03 0.0000000e+00 
0.0000000e+00 -5.1465714e-03 0.0000000e+00 
0.0000000e+00 -5.1264390e-03 0.0000000e+00 
0.0000000e+00 -5.1046526e-03 0.0000000e+00 
0.0000000e+00 -5.0811861e-03 0.0000000e+00 
0.0000000e+00 -5.0560120e-03 0.0000000e+00 
0.0000000e+00 -5.0291028e-03 0.0000000e+00 
0.0000000e+00 -5.0004325e-03 0.0000000e+00 
0.0000000e+00 -4.9699722e-03 0.0000000e+00 
0.0000000e+00 -4.9376958e-03 0.0000000e+00 
0.0000000e+00 -4.9035749e-03 0.0000000e+00 
0.0000000e+00 -4.8675826e-03 0.0000000e+00 
0.0000000e+00 -4.8296908e-03 0.0000000e+00 
0.0000000e+00 -4.7898712e-03 0.0000000e+00 
0.0000000e+00 -4.7480967e-03 0.0000000e+00 
0.0000000e+00 -4.7043390e-03 0.0000000e+00 
0.0000000e+00 -4.6585691e-03 0.0000000e+00 
0.0000000e+00 -4.6107601e-03 0.0000000e+00 
0.0000000e+00 -4.5608832e-03 0.0000000e+00 
0.0000000e+00 -4.5089102e-03 0.0000000e+00 
0.0000000e+00 -4.4548120e-03 0.0000000e+00 
0.0000000e+00 -4.3985611e-03 0.0000000e+00 
0.0000000e+00 -4.3401280e-03 0.0000000e+00 
0.0000000e+00 -4.2794845e-03 0.0000000e+00 
0.0000000e+00 -4.2166016e-03 0.0000000e+00 
0.0000000e+00 -4.1514505e-03 0.0000000e+00 
0.0000000e+00 -4.0840027e-03 0.0000000e+00 
0.0000000e+00 -4.0142285e-03 0.0000000e+00 
0.0000000e+00 -3.9420999e-03 0.0000000e+00 
0.0000000e+00 -3.8675868e-03 0.0000000e+00 
0.0000000e+00 -3.7906610e-03 0.0000000e+00 
0.0000000e+00 -3.7112925e-03 0.0000000e+00 
0.0000000e+00 -3.6294525e-03 0.0000000e+00 
0.0000000e+00 -3.5451117e-03 0.0000000e+00 
0.0000000e+00 -3.4582408e-03 0.0000000e+00 
0.0000000e+00 -3.3688101e-03 0.0000000e+00 
0.0000000e+00 -3.2767977e-03 0.0000000e+00 
0.0000000e+00 -3.1822436e-03 0.0000000e+00 
0.0000000e+00 -3.0852358e-03 0.0000000e+00 
0.0000000e+00 -2.9858660e-03 0.0000000e+00 
0.0000000e+00 -2.8842248e-03 0.0000000e+00 
0.0000000e+00 -2.7804035e-03 0.0000000e+00 
0.0000000e+00 -2.6744935e-03 0.0000000e+00 
0.0000000e+00 -2.5665853e-03 0.0000000e+00 
0.0000000e+00 -2.4567705e-03 0.0000000e+00 
0.0000000e+00 -2.3451399e-03 0.0000000e+00 
0.0000000e+00 -2.2317842e-03 0.0000000e+00 
0.0000000e+00 -2.1167947e-03 0.0000000e+00 
0.0000000e+00 -2.0002620e-03 0.0000000e+00 
0.0000000e+00 -1.8822774e-03 0.0000000e+00 
0.0000000e+00 -1.7629315e-03 0.0000000e+00 
0.0000000e+00 -1.6423151e-03 0.0000000e+00 
0.0000000e+00 -1.5205191e-03 0.0000000e+00 
0.0000000e+00 -1.3976344e-03 0.0000000e+00 
0.0000000e+00 -1.2737517e-03 0.0000000e+00 
0.0000000e+00 -1.1489617e-03 0.0000000e+00 
0.0000000e+00 -1.0233554e-03 0.0000000e+00 
0.0000000e+00 -8.9702330e-04 0.0000000e+00 
0.0000000e+00 -7.7005627e-04 0.0000000e+00 
0.0000000e+00 -6.4254500e-04 0.0000000e+00 
0.0000000e+00 -5.1458017e-04 0.0000000e+00 
0.0000000e+00 -3.8625259e-04 0.0000000e+00 
0.0000000e+00 -2.5765289e-04 0.0000000e+00 
0.0000000e+00 -1.2887179e-04 0.0000000e+00 
CELL_DATA 250
FIELD FieldData 0
