# vtk DataFile Version 4.0
vtk output
ASCII
DATASET UNSTRUCTURED_GRID
POINTS 251 float
0.0000000e+00 0.0000000e+00 0.0000000e+00 
2.5000000e+01 0.0000000e+00 0.0000000e+00 
1.0000000e-01 0.0000000e+00 0.0000000e+00 
2.0000000e-01 0.0000000e+00 0.0000000e+00 
3.0000001e-01 0.0000000e+00 0.0000000e+00 
4.0000001e-01 0.0000000e+00 0.0000000e+00 
5.0000000e-01 0.0000000e+00 0.0000000e+00 
6.0000002e-01 0.0000000e+00 0.0000000e+00 
6.9999999e-01 0.0000000e+00 0.0000000e+00 
8.0000001e-01 0.0000000e+00 0.0000000e+00 
8.9999998e-01 0.0000000e+00 0.0000000e+00 
1.0000000e+00 0.0000000e+00 0.0000000e+00 
1.1000000e+00 0.0000000e+00 0.0000000e+00 
1.2000000e+00 0.0000000e+00 0.0000000e+00 
1.3000000e+00 0.0000000e+00 0.0000000e+00 
1.4000000e+00 0.0000000e+00 0.0000000e+00 
1.5000000e+00 0.0000000e+00 0.0000000e+00 
1.6000000e+00 0.0000000e+00 0.0000000e+00 
1.7000000e+00 0.0000000e+00 0.0000000e+00 
1.8000000e+00 0.0000000e+00 0.0000000e+00 
1.9000000e+00 0.0000000e+00 0.0000000e+00 
2.0000000e+00 0.0000000e+00 0.0000000e+00 
2.0999999e+00 0.0000000e+00 0.0000000e+00 
2.2000000e+00 0.0000000e+00 0.0000000e+00 
2.3000000e+00 0.0000000e+00 0.0000000e+00 
2.4000001e+00 0.0000000e+00 0.0000000e+00 
2.5000000e+00 0.0000000e+00 0.0000000e+00 
2.5999999e+00 0.0000000e+00 0.0000000e+00 
2.7000000e+00 0.0000000e+00 0.0000000e+00 
2.8000000e+00 0.0000000e+00 0.0000000e+00 
2.9000001e+00 0.0000000e+00 0.0000000e+00 
3.0000000e+00 0.0000000e+00 0.0000000e+00 
3.0999999e+00 0.0000000e+00 0.0000000e+00 
3.2000000e+00 0.0000000e+00 0.0000000e+00 
3.3000000e+00 0.0000000e+00 0.0000000e+00 
3.4000001e+00 0.0000000e+00 0.0000000e+00 
3.5000000e+00 0.0000000e+00 0.0000000e+00 
3.5999999e+00 0.0000000e+00 0.0000000e+00 
3.7000000e+00 0.0000000e+00 0.0000000e+00 
3.8000000e+00 0.0000000e+00 0.0000000e+00 
3.9000001e+00 0.0000000e+00 0.0000000e+00 
4.0000000e+00 0.0000000e+00 0.0000000e+00 
4.0999999e+00 0.0000000e+00 0.0000000e+00 
4.1999998e+00 0.0000000e+00 0.0000000e+00 
4.3000002e+00 0.0000000e+00 0.0000000e+00 
4.4000001e+00 0.0000000e+00 0.0000000e+00 
4.5000000e+00 0.0000000e+00 0.0000000e+00 
4.5999999e+00 0.0000000e+00 0.0000000e+00 
4.6999998e+00 0.0000000e+00 0.0000000e+00 
4.8000002e+00 0.0000000e+00 0.0000000e+00 
4.9000001e+00 0.0000000e+00 0.0000000e+00 
5.0000000e+00 0.0000000e+00 0.0000000e+00 
5.0999999e+00 0.0000000e+00 0.0000000e+00 
5.1999998e+00 0.0000000e+00 0.0000000e+00 
5.3000002e+00 0.0000000e+00 0.0000000e+00 
5.4000001e+00 0.0000000e+00 0.0000000e+00 
5.5000000e+00 0.0000000e+00 0.0000000e+00 
5.5999999e+00 0.0000000e+00 0.0000000e+00 
5.6999998e+00 0.0000000e+00 0.0000000e+00 
5.8000002e+00 0.0000000e+00 0.0000000e+00 
5.9000001e+00 0.0000000e+00 0.0000000e+00 
6.0000000e+00 0.0000000e+00 0.0000000e+00 
6.0999999e+00 0.0000000e+00 0.0000000e+00 
6.1999998e+00 0.0000000e+00 0.0000000e+00 
6.3000002e+00 0.0000000e+00 0.0000000e+00 
6.4000001e+00 0.0000000e+00 0.0000000e+00 
6.5000000e+00 0.0000000e+00 0.0000000e+00 
6.5999999e+00 0.0000000e+00 0.0000000e+00 
6.6999998e+00 0.0000000e+00 0.0000000e+00 
6.8000002e+00 0.0000000e+00 0.0000000e+00 
6.9000001e+00 0.0000000e+00 0.0000000e+00 
7.0000000e+00 0.0000000e+00 0.0000000e+00 
7.0999999e+00 0.0000000e+00 0.0000000e+00 
7.1999998e+00 0.0000000e+00 0.0000000e+00 
7.3000002e+00 0.0000000e+00 0.0000000e+00 
7.4000001e+00 0.0000000e+00 0.0000000e+00 
7.5000000e+00 0.0000000e+00 0.0000000e+00 
7.5999999e+00 0.0000000e+00 0.0000000e+00 
7.6999998e+00 0.0000000e+00 0.0000000e+00 
7.8000002e+00 0.0000000e+00 0.0000000e+00 
7.9000001e+00 0.0000000e+00 0.0000000e+00 
8.0000000e+00 0.0000000e+00 0.0000000e+00 
8.1000004e+00 0.0000000e+00 0.0000000e+00 
8.1999998e+00 0.0000000e+00 0.0000000e+00 
8.3000002e+00 0.0000000e+00 0.0000000e+00 
8.3999996e+00 0.0000000e+00 0.0000000e+00 
8.5000000e+00 0.0000000e+00 0.0000000e+00 
8.6000004e+00 0.0000000e+00 0.0000000e+00 
8.6999998e+00 0.0000000e+00 0.0000000e+00 
8.8000002e+00 0.0000000e+00 0.0000000e+00 
8.8999996e+00 0.0000000e+00 0.0000000e+00 
9.0000000e+00 0.0000000e+00 0.0000000e+00 
9.1000004e+00 0.0000000e+00 0.0000000e+00 
9.1999998e+00 0.0000000e+00 0.0000000e+00 
9.3000002e+00 0.0000000e+00 0.0000000e+00 
9.3999996e+00 0.0000000e+00 0.0000000e+00 
9.5000000e+00 0.0000000e+00 0.0000000e+00 
9.6000004e+00 0.0000000e+00 0.0000000e+00 
9.6999998e+00 0.0000000e+00 0.0000000e+00 
9.8000002e+00 0.0000000e+00 0.0000000e+00 
9.8999996e+00 0.0000000e+00 0.0000000e+00 
1.0000000e+01 0.0000000e+00 0.0000000e+00 
1.0100000e+01 0.0000000e+00 0.0000000e+00 
1.0200000e+01 0.0000000e+00 0.0000000e+00 
1.0300000e+01 0.0000000e+00 0.0000000e+00 
1.0400000e+01 0.0000000e+00 0.0000000e+00 
1.0500000e+01 0.0000000e+00 0.0000000e+00 
1.0600000e+01 0.0000000e+00 0.0000000e+00 
1.0700000e+01 0.0000000e+00 0.0000000e+00 
1.0800000e+01 0.0000000e+00 0.0000000e+00 
1.0900000e+01 0.0000000e+00 0.0000000e+00 
1.1000000e+01 0.0000000e+00 0.0000000e+00 
1.1100000e+01 0.0000000e+00 0.0000000e+00 
1.1200000e+01 0.0000000e+00 0.0000000e+00 
1.1300000e+01 0.0000000e+00 0.0000000e+00 
1.1400000e+01 0.0000000e+00 0.0000000e+00 
1.1500000e+01 0.0000000e+00 0.0000000e+00 
1.1600000e+01 0.0000000e+00 0.0000000e+00 
1.1700000e+01 0.0000000e+00 0.0000000e+00 
1.1800000e+01 0.0000000e+00 0.0000000e+00 
1.1900000e+01 0.0000000e+00 0.0000000e+00 
1.2000000e+01 0.0000000e+00 0.0000000e+00 
1.2100000e+01 0.0000000e+00 0.0000000e+00 
1.2200000e+01 0.0000000e+00 0.0000000e+00 
1.2300000e+01 0.0000000e+00 0.0000000e+00 
1.2400000e+01 0.0000000e+00 0.0000000e+00 
1.2500000e+01 0.0000000e+00 0.0000000e+00 
1.2600000e+01 0.0000000e+00 0.0000000e+00 
1.2700000e+01 0.0000000e+00 0.0000000e+00 
1.2800000e+01 0.0000000e+00 0.0000000e+00 
1.2900000e+01 0.0000000e+00 0.0000000e+00 
1.3000000e+01 0.0000000e+00 0.0000000e+00 
1.3100000e+01 0.0000000e+00 0.0000000e+00 
1.3200000e+01 0.0000000e+00 0.0000000e+00 
1.3300000e+01 0.0000000e+00 0.0000000e+00 
1.3400000e+01 0.0000000e+00 0.0000000e+00 
1.3500000e+01 0.0000000e+00 0.0000000e+00 
1.3600000e+01 0.0000000e+00 0.0000000e+00 
1.3700000e+01 0.0000000e+00 0.0000000e+00 
1.3800000e+01 0.0000000e+00 0.0000000e+00 
1.3900000e+01 0.0000000e+00 0.0000000e+00 
1.4000000e+01 0.0000000e+00 0.0000000e+00 
1.4100000e+01 0.0000000e+00 0.0000000e+00 
1.4200000e+01 0.0000000e+00 0.0000000e+00 
1.4300000e+01 0.0000000e+00 0.0000000e+00 
1.4400000e+01 0.0000000e+00 0.0000000e+00 
1.4500000e+01 0.0000000e+00 0.0000000e+00 
1.4600000e+01 0.0000000e+00 0.0000000e+00 
1.4700000e+01 0.0000000e+00 0.0000000e+00 
1.4800000e+01 0.0000000e+00 0.0000000e+00 
1.4900000e+01 0.0000000e+00 0.0000000e+00 
1.5000000e+01 0.0000000e+00 0.0000000e+00 
1.5100000e+01 0.0000000e+00 0.0000000e+00 
1.5200000e+01 0.0000000e+00 0.0000000e+00 
1.5300000e+01 0.0000000e+00 0.0000000e+00 
1.5400000e+01 0.0000000e+00 0.0000000e+00 
1.5500000e+01 0.0000000e+00 0.0000000e+00 
1.5600000e+01 0.0000000e+00 0.0000000e+00 
1.5700000e+01 0.0000000e+00 0.0000000e+00 
1.5800000e+01 0.0000000e+00 0.0000000e+00 
1.5900000e+01 0.0000000e+00 0.0000000e+00 
1.6000000e+01 0.0000000e+00 0.0000000e+00 
1.6100000e+01 0.0000000e+00 0.0000000e+00 
1.6200001e+01 0.0000000e+00 0.0000000e+00 
1.6299999e+01 0.0000000e+00 0.0000000e+00 
1.6400000e+01 0.0000000e+00 0.0000000e+00 
1.6500000e+01 0.0000000e+00 0.0000000e+00 
1.6600000e+01 0.0000000e+00 0.0000000e+00 
1.6700001e+01 0.0000000e+00 0.0000000e+00 
1.6799999e+01 0.0000000e+00 0.0000000e+00 
1.6900000e+01 0.0000000e+00 0.0000000e+00 
1.7000000e+01 0.0000000e+00 0.0000000e+00 
1.7100000e+01 0.0000000e+00 0.0000000e+00 
1.7200001e+01 0.0000000e+00 0.0000000e+00 
1.7299999e+01 0.0000000e+00 0.0000000e+00 
1.7400000e+01 0.0000000e+00 0.0000000e+00 
1.7500000e+01 0.0000000e+00 0.0000000e+00 
1.7600000e+01 0.0000000e+00 0.0000000e+00 
1.7700001e+01 0.0000000e+00 0.0000000e+00 
1.7799999e+01 0.0000000e+00 0.0000000e+00 
1.7900000e+01 0.0000000e+00 0.0000000e+00 
1.8000000e+01 0.0000000e+00 0.0000000e+00 
1.8100000e+01 0.0000000e+00 0.0000000e+00 
1.8200001e+01 0.0000000e+00 0.0000000e+00 
1.8299999e+01 0.0000000e+00 0.0000000e+00 
1.8400000e+01 0.0000000e+00 0.0000000e+00 
1.8500000e+01 0.0000000e+00 0.0000000e+00 
1.8600000e+01 0.0000000e+00 0.0000000e+00 
1.8700001e+01 0.0000000e+00 0.0000000e+00 
1.8799999e+01 0.0000000e+00 0.0000000e+00 
1.8900000e+01 0.0000000e+00 0.0000000e+00 
1.9000000e+01 0.0000000e+00 0.0000000e+00 
1.9100000e+01 0.0000000e+00 0.0000000e+00 
1.9200001e+01 0.0000000e+00 0.0000000e+00 
1.9299999e+01 0.0000000e+00 0.0000000e+00 
1.9400000e+01 0.0000000e+00 0.0000000e+00 
1.9500000e+01 0.0000000e+00 0.0000000e+00 
1.9600000e+01 0.0000000e+00 0.0000000e+00 
1.9700001e+01 0.0000000e+00 0.0000000e+00 
1.9799999e+01 0.0000000e+00 0.0000000e+00 
1.9900000e+01 0.0000000e+00 0.0000000e+00 
2.0000000e+01 0.0000000e+00 0.0000000e+00 
2.0100000e+01 0.0000000e+00 0.0000000e+00 
2.0200001e+01 0.0000000e+00 0.0000000e+00 
2.0299999e+01 0.0000000e+00 0.0000000e+00 
2.0400000e+01 0.0000000e+00 0.0000000e+00 
2.0500000e+01 0.0000000e+00 0.0000000e+00 
2.0600000e+01 0.0000000e+00 0.0000000e+00 
2.0700001e+01 0.0000000e+00 0.0000000e+00 
2.0799999e+01 0.0000000e+00 0.0000000e+00 
2.0900000e+01 0.0000000e+00 0.0000000e+00 
2.1000000e+01 0.0000000e+00 0.0000000e+00 
2.1100000e+01 0.0000000e+00 0.0000000e+00 
2.1200001e+01 0.0000000e+00 0.0000000e+00 
2.1299999e+01 0.0000000e+00 0.0000000e+00 
2.1400000e+01 0.0000000e+00 0.0000000e+00 
2.1500000e+01 0.0000000e+00 0.0000000e+00 
2.1600000e+01 0.0000000e+00 0.0000000e+00 
2.1700001e+01 0.0000000e+00 0.0000000e+00 
2.1799999e+01 0.0000000e+00 0.0000000e+00 
2.1900000e+01 0.0000000e+00 0.0000000e+00 
2.2000000e+01 0.0000000e+00 0.0000000e+00 
2.2100000e+01 0.0000000e+00 0.0000000e+00 
2.2200001e+01 0.0000000e+00 0.0000000e+00 
2.2299999e+01 0.0000000e+00 0.0000000e+00 
2.2400000e+01 0.0000000e+00 0.0000000e+00 
2.2500000e+01 0.0000000e+00 0.0000000e+00 
2.2600000e+01 0.0000000e+00 0.0000000e+00 
2.2700001e+01 0.0000000e+00 0.0000000e+00 
2.2799999e+01 0.0000000e+00 0.0000000e+00 
2.2900000e+01 0.0000000e+00 0.0000000e+00 
2.3000000e+01 0.0000000e+00 0.0000000e+00 
2.3100000e+01 0.0000000e+00 0.0000000e+00 
2.3200001e+01 0.0000000e+00 0.0000000e+00 
2.3299999e+01 0.0000000e+00 0.0000000e+00 
2.3400000e+01 0.0000000e+00 0.0000000e+00 
2.3500000e+01 0.0000000e+00 0.0000000e+00 
2.3600000e+01 0.0000000e+00 0.0000000e+00 
2.3700001e+01 0.0000000e+00 0.0000000e+00 
2.3799999e+01 0.0000000e+00 0.0000000e+00 
2.3900000e+01 0.0000000e+00 0.0000000e+00 
2.4000000e+01 0.0000000e+00 0.0000000e+00 
2.4100000e+01 0.0000000e+00 0.0000000e+00 
2.4200001e+01 0.0000000e+00 0.0000000e+00 
2.4299999e+01 0.0000000e+00 0.0000000e+00 
2.4400000e+01 0.0000000e+00 0.0000000e+00 
2.4500000e+01 0.0000000e+00 0.0000000e+00 
2.4600000e+01 0.0000000e+00 0.0000000e+00 
2.4700001e+01 0.0000000e+00 0.0000000e+00 
2.4799999e+01 0.0000000e+00 0.0000000e+00 
2.4900000e+01 0.0000000e+00 0.0000000e+00 

CELLS 250 750
2 0 2
2 2 3
2 3 4
2 4 5
2 5 6
2 6 7
2 7 8
2 8 9
2 9 10
2 10 11
2 11 12
2 12 13
2 13 14
2 14 15
2 15 16
2 16 17
2 17 18
2 18 19
2 19 20
2 20 21
2 21 22
2 22 23
2 23 24
2 24 25
2 25 26
2 26 27
2 27 28
2 28 29
2 29 30
2 30 31
2 31 32
2 32 33
2 33 34
2 34 35
2 35 36
2 36 37
2 37 38
2 38 39
2 39 40
2 40 41
2 41 42
2 42 43
2 43 44
2 44 45
2 45 46
2 46 47
2 47 48
2 48 49
2 49 50
2 50 51
2 51 52
2 52 53
2 53 54
2 54 55
2 55 56
2 56 57
2 57 58
2 58 59
2 59 60
2 60 61
2 61 62
2 62 63
2 63 64
2 64 65
2 65 66
2 66 67
2 67 68
2 68 69
2 69 70
2 70 71
2 71 72
2 72 73
2 73 74
2 74 75
2 75 76
2 76 77
2 77 78
2 78 79
2 79 80
2 80 81
2 81 82
2 82 83
2 83 84
2 84 85
2 85 86
2 86 87
2 87 88
2 88 89
2 89 90
2 90 91
2 91 92
2 92 93
2 93 94
2 94 95
2 95 96
2 96 97
2 97 98
2 98 99
2 99 100
2 100 101
2 101 102
2 102 103
2 103 104
2 104 105
2 105 106
2 106 107
2 107 108
2 108 109
2 109 110
2 110 111
2 111 112
2 112 113
2 113 114
2 114 115
2 115 116
2 116 117
2 117 118
2 118 119
2 119 120
2 120 121
2 121 122
2 122 123
2 123 124
2 124 125
2 125 126
2 126 127
2 127 128
2 128 129
2 129 130
2 130 131
2 131 132
2 132 133
2 133 134
2 134 135
2 135 136
2 136 137
2 137 138
2 138 139
2 139 140
2 140 141
2 141 142
2 142 143
2 143 144
2 144 145
2 145 146
2 146 147
2 147 148
2 148 149
2 149 150
2 150 151
2 151 152
2 152 153
2 153 154
2 154 155
2 155 156
2 156 157
2 157 158
2 158 159
2 159 160
2 160 161
2 161 162
2 162 163
2 163 164
2 164 165
2 165 166
2 166 167
2 167 168
2 168 169
2 169 170
2 170 171
2 171 172
2 172 173
2 173 174
2 174 175
2 175 176
2 176 177
2 177 178
2 178 179
2 179 180
2 180 181
2 181 182
2 182 183
2 183 184
2 184 185
2 185 186
2 186 187
2 187 188
2 188 189
2 189 190
2 190 191
2 191 192
2 192 193
2 193 194
2 194 195
2 195 196
2 196 197
2 197 198
2 198 199
2 199 200
2 200 201
2 201 202
2 202 203
2 203 204
2 204 205
2 205 206
2 206 207
2 207 208
2 208 209
2 209 210
2 210 211
2 211 212
2 212 213
2 213 214
2 214 215
2 215 216
2 216 217
2 217 218
2 218 219
2 219 220
2 220 221
2 221 222
2 222 223
2 223 224
2 224 225
2 225 226
2 226 227
2 227 228
2 228 229
2 229 230
2 230 231
2 231 232
2 232 233
2 233 234
2 234 235
2 235 236
2 236 237
2 237 238
2 238 239
2 239 240
2 240 241
2 241 242
2 242 243
2 243 244
2 244 245
2 245 246
2 246 247
2 247 248
2 248 249
2 249 250
2 250 1

CELL_TYPES 250
3
3
3
3
3
3
3
3
3
3
3
3
3
3
3
3
3
3
3
3
3
3
3
3
3
3
3
3
3
3
3
3
3
3
3
3
3
3
3
3
3
3
3
3
3
3
3
3
3
3
3
3
3
3
3
3
3
3
3
3
3
3
3
3
3
3
3
3
3
3
3
3
3
3
3
3
3
3
3
3
3
3
3
3
3
3
3
3
3
3
3
3
3
3
3
3
3
3
3
3
3
3
3
3
3
3
3
3
3
3
3
3
3
3
3
3
3
3
3
3
3
3
3
3
3
3
3
3
3
3
3
3
3
3
3
3
3
3
3
3
3
3
3
3
3
3
3
3
3
3
3
3
3
3
3
3
3
3
3
3
3
3
3
3
3
3
3
3
3
3
3
3
3
3
3
3
3
3
3
3
3
3
3
3
3
3
3
3
3
3
3
3
3
3
3
3
3
3
3
3
3
3
3
3
3
3
3
3
3
3
3
3
3
3
3
3
3
3
3
3
3
3
3
3
3
3
3
3
3
3
3
3
3
3
3
3
3
3
3
3
3
3
3
3
3
3
3
3
3
3
POINT_DATA 251
FIELD FieldData 1
DISPLACEMENT 3 251  float
0.0000000e+00 0.0000000e+00 0.0000000e+00 
0.0000000e+00 0.0000000e+00 0.0000000e+00 
0.0000000e+00 -4.2341801e-04 0.0000000e+00 
0.0000000e+00 -8.4677798e-04 0.0000000e+00 
0.0000000e+00 -1.2700218e-03 0.0000000e+00 
0.0000000e+00 -1.6930915e-03 0.0000000e+00 
0.0000000e+00 -2.1159288e-03 0.0000000e+00 
0.0000000e+00 -2.5384759e-03 0.0000000e+00 
0.0000000e+00 -2.9606745e-03 0.0000000e+00 
0.0000000e+00 -3.3824667e-03 0.0000000e+00 
0.0000000e+00 -3.8037943e-03 0.0000000e+00 
0.0000000e+00 -4.2245989e-03 0.0000000e+00 
0.0000000e+00 -4.6448228e-03 0.0000000e+00 
0.0000000e+00 -5.0644078e-03 0.0000000e+00 
0.0000000e+00 -5.4832958e-03 0.0000000e+00 
0.0000000e+00 -5.9014284e-03 0.0000000e+00 
0.0000000e+00 -6.3187471e-03 0.0000000e+00 
0.0000000e+00 -6.7351945e-03 0.0000000e+00 
0.0000000e+00 -7.1507115e-03 0.0000000e+00 
0.0000000e+00 -7.5652404e-03 0.0000000e+00 
0.0000000e+00 -7.9787225e-03 0.0000000e+00 
0.0000000e+00 -8.3911000e-03 0.0000000e+00 
0.0000000e+00 -8.8023143e-03 0.0000000e+00 
0.0000000e+00 -9.2123067e-03 0.0000000e+00 
0.0000000e+00 -9.6210195e-03 0.0000000e+00 
0.0000000e+00 -1.0028394e-02 0.0000000e+00 
0.0000000e+00 -1.0434370e-02 0.0000000e+00 
0.0000000e+00 -1.0838892e-02 0.0000000e+00 
0.0000000e+00 -1.1241900e-02 0.0000000e+00 
0.0000000e+00 -1.1643335e-02 0.0000000e+00 
0.0000000e+00 -1.2043139e-02 0.0000000e+00 
0.0000000e+00 -1.2441252e-02 0.0000000e+00 
0.0000000e+00 -1.2837618e-02 0.0000000e+00 
0.0000000e+00 -1.3232175e-02 0.0000000e+00 
0.0000000e+00 -1.3624866e-02 0.0000000e+00 
0.0000000e+00 -1.4015633e-02 0.0000000e+00 
0.0000000e+00 -1.4404415e-02 0.0000000e+00 
0.0000000e+00 -1.4791155e-02 0.0000000e+00 
0.0000000e+00 -1.5175792e-02 0.0000000e+00 
0.0000000e+00 -1.5558269e-02 0.0000000e+00 
0.0000000e+00 -1.5938526e-02 0.0000000e+00 
0.0000000e+00 -1.6316503e-02 0.0000000e+00 
0.0000000e+00 -1.6692141e-02 0.0000000e+00 
0.0000000e+00 -1.7065382e-02 0.0000000e+00 
0.0000000e+00 -1.7436167e-02 0.0000000e+00 
0.0000000e+00 -1.7804435e-02 0.0000000e+00 
0.0000000e+00 -1.8170126e-02 0.0000000e+00 
0.0000000e+00 -1.8533181e-02 0.0000000e+00 
0.0000000e+00 -1.8893542e-02 0.0000000e+00 
0.0000000e+00 -1.9251147e-02 0.0000000e+00 
0.0000000e+00 -1.9605938e-02 0.0000000e+00 
0.0000000e+00 -1.9957857e-02 0.0000000e+00 
0.0000000e+00 -2.0306841e-02 0.0000000e+00 
0.0000000e+00 -2.0652829e-02 0.0000000e+00 
0.0000000e+00 -2.0995764e-02 0.0000000e+00 
0.0000000e+00 -2.1335585e-02 0.0000000e+00 
0.0000000e+00 -2.1672232e-02 0.0000000e+00 
0.0000000e+00 -2.2005646e-02 0.0000000e+00 
0.0000000e+00 -2.2335764e-02 0.0000000e+00 
0.0000000e+00 -2.2662526e-02 0.0000000e+00 
0.0000000e+00 -2.2985874e-02 0.0000000e+00 
0.0000000e+00 -2.3305746e-02 0.0000000e+00 
0.0000000e+00 -2.3622081e-02 0.0000000e+00 
0.0000000e+00 -2.3934819e-02 0.0000000e+00 
0.0000000e+00 -2.4243899e-02 0.0000000e+00 
0.0000000e+00 -2.4549261e-02 0.0000000e+00 
0.0000000e+00 -2.4850842e-02 0.0000000e+00 
0.0000000e+00 -2.5148584e-02 0.0000000e+00 
0.0000000e+00 -2.5442421e-02 0.0000000e+00 
0.0000000e+00 -2.5732297e-02 0.0000000e+00 
0.0000000e+00 -2.6018150e-02 0.0000000e+00 
0.0000000e+00 -2.6299916e-02 0.0000000e+00 
0.0000000e+00 -2.6577536e-02 0.0000000e+00 
0.0000000e+00 -2.6850946e-02 0.0000000e+00 
0.0000000e+00 -2.7120087e-02 0.0000000e+00 
0.0000000e+00 -2.7384898e-02 0.0000000e+00 
0.0000000e+00 -2.7645314e-02 0.0000000e+00 
0.0000000e+00 -2.7901273e-02 0.0000000e+00 
0.0000000e+00 -2.8152717e-02 0.0000000e+00 
0.0000000e+00 -2.8399581e-02 0.0000000e+00 
0.0000000e+00 -2.8641803e-02 0.0000000e+00 
0.0000000e+00 -2.8879322e-02 0.0000000e+00 
0.0000000e+00 -2.9112075e-02 0.0000000e+00 
0.0000000e+00 -2.9339999e-02 0.0000000e+00 
0.0000000e+00 -2.9563032e-02 0.0000000e+00 
0.0000000e+00 -2.9781112e-02 0.0000000e+00 
0.0000000e+00 -2.9994177e-02 0.0000000e+00 
0.0000000e+00 -3.0202160e-02 0.0000000e+00 
0.0000000e+00 -3.0405004e-02 0.0000000e+00 
0.0000000e+00 -3.0602640e-02 0.0000000e+00 
0.0000000e+00 -3.0795010e-02 0.0000000e+00 
0.0000000e+00 -3.0982047e-02 0.0000000e+00 
0.0000000e+00 -3.1163691e-02 0.0000000e+00 
0.0000000e+00 -3.1339876e-02 0.0000000e+00 
0.0000000e+00 -3.1510539e-02 0.0000000e+00 
0.0000000e+00 -3.1675618e-02 0.0000000e+00 
0.0000000e+00 -3.1835049e-02 0.0000000e+00 
0.0000000e+00 -3.1988766e-02 0.0000000e+00 
0.0000000e+00 -3.2136708e-02 0.0000000e+00 
0.0000000e+00 -3.2278806e-02 0.0000000e+00 
0.0000000e+00 -3.2415003e-02 0.0000000e+00 
0.0000000e+00 -3.2545231e-02 0.0000000e+00 
0.0000000e+00 -3.2669425e-02 0.0000000e+00 
0.0000000e+00 -3.2787520e-02 0.0000000e+00 
0.0000000e+00 -3.2899458e-02 0.0000000e+00 
0.0000000e+00 -3.3005163e-02 0.0000000e+00 
0.0000000e+00 -3.3104580e-02 0.0000000e+00 
0.0000000e+00 -3.3197641e-02 0.0000000e+00 
0.0000000e+00 -3.3284280e-02 0.0000000e+00 
0.0000000e+00 -3.3364434e-02 0.0000000e+00 
0.0000000e+00 -3.3438034e-02 0.0000000e+00 
0.0000000e+00 -3.3505023e-02 0.0000000e+00 
0.0000000e+00 -3.3565328e-02 0.0000000e+00 
0.0000000e+00 -3.3618931e-02 0.0000000e+00 
0.0000000e+00 -3.3665884e-02 0.0000000e+00 
0.0000000e+00 -3.3706237e-02 0.0000000e+00 
0.0000000e+00 -3.3740051e-02 0.0000000e+00 
0.0000000e+00 -3.3767380e-02 0.0000000e+00 
0.0000000e+00 -3.3788275e-02 0.0000000e+00 
0.0000000e+00 -3.3802800e-02 0.0000000e+00 
0.0000000e+00 -3.3811003e-02 0.0000000e+00 
0.0000000e+00 -3.3812948e-02 0.0000000e+00 
0.0000000e+00 -3.3808682e-02 0.0000000e+00 
0.0000000e+00 -3.3798266e-02 0.0000000e+00 
0.0000000e+00 -3.3781752e-02 0.0000000e+00 
0.0000000e+00 -3.3759195e-02 0.0000000e+00 
0.0000000e+00 -3.3730652e-02 0.0000000e+00 
0.0000000e+00 -3.3696178e-02 0.0000000e+00 
0.0000000e+00 -3.3655826e-02 0.0000000e+00 
0.0000000e+00 -3.3609651e-02 0.0000000e+00 
0.0000000e+00 -3.3557709e-02 0.0000000e+00 
0.0000000e+00 -3.3500053e-02 0.0000000e+00 
0.0000000e+00 -3.3436734e-02 0.0000000e+00 
0.0000000e+00 -3.3367813e-02 0.0000000e+00 
0.0000000e+00 -3.3293340e-02 0.0000000e+00 
0.0000000e+00 -3.3213366e-02 0.0000000e+00 
0.0000000e+00 -3.3127952e-02 0.0000000e+00 
0.0000000e+00 -3.3037145e-02 0.0000000e+00 
0.0000000e+00 -3.2941002e-02 0.0000000e+00 
0.0000000e+00 -3.2839574e-02 0.0000000e+00 
0.0000000e+00 -3.2732919e-02 0.0000000e+00 
0.0000000e+00 -3.2621082e-02 0.0000000e+00 
0.0000000e+00 -3.2504126e-02 0.0000000e+00 
0.0000000e+00 -3.2382093e-02 0.0000000e+00 
0.0000000e+00 -3.2255046e-02 0.0000000e+00 
0.0000000e+00 -3.2123029e-02 0.0000000e+00 
0.0000000e+00 -3.1986102e-02 0.0000000e+00 
0.0000000e+00 -3.1844310e-02 0.0000000e+00 
0.0000000e+00 -3.1697713e-02 0.0000000e+00 
0.0000000e+00 -3.1546358e-02 0.0000000e+00 
0.0000000e+00 -3.1390294e-02 0.0000000e+00 
0.0000000e+00 -3.1229582e-02 0.0000000e+00 
0.0000000e+00 -3.1064266e-02 0.0000000e+00 
0.0000000e+00 -3.0894399e-02 0.0000000e+00 
0.0000000e+00 -3.0720035e-02 0.0000000e+00 
0.0000000e+00 -3.0541223e-02 0.0000000e+00 
0.0000000e+00 -3.0358015e-02 0.0000000e+00 
0.0000000e+00 -3.0170461e-02 0.0000000e+00 
0.0000000e+00 -2.9978612e-02 0.0000000e+00 
0.0000000e+00 -2.9782522e-02 0.0000000e+00 
0.0000000e+00 -2.9582238e-02 0.0000000e+00 
0.0000000e+00 -2.9377813e-02 0.0000000e+00 
0.0000000e+00 -2.9169293e-02 0.0000000e+00 
0.0000000e+00 -2.8956734e-02 0.0000000e+00 
0.0000000e+00 -2.8740181e-02 0.0000000e+00 
0.0000000e+00 -2.8519688e-02 0.0000000e+00 
0.0000000e+00 -2.8295303e-02 0.0000000e+00 
0.0000000e+00 -2.8067075e-02 0.0000000e+00 
0.0000000e+00 -2.7835054e-02 0.0000000e+00 
0.0000000e+00 -2.7599290e-02 0.0000000e+00 
0.0000000e+00 -2.7359832e-02 0.0000000e+00 
0.0000000e+00 -2.7116731e-02 0.0000000e+00 
0.0000000e+00 -2.6870033e-02 0.0000000e+00 
0.0000000e+00 -2.6619788e-02 0.0000000e+00 
0.0000000e+00 -2.6366046e-02 0.0000000e+00 
0.0000000e+00 -2.6108854e-02 0.0000000e+00 
0.0000000e+00 -2.5848260e-02 0.0000000e+00 
0.0000000e+00 -2.5584316e-02 0.0000000e+00 
0.0000000e+00 -2.5317067e-02 0.0000000e+00 
0.0000000e+00 -2.5046561e-02 0.0000000e+00 
0.0000000e+00 -2.4772849e-02 0.0000000e+00 
0.0000000e+00 -2.4495976e-02 0.0000000e+00 
0.0000000e+00 -2.4215991e-02 0.0000000e+00 
0.0000000e+00 -2.3932941e-02 0.0000000e+00 
0.0000000e+00 -2.3646874e-02 0.0000000e+00 
0.0000000e+00 -2.3357837e-02 0.0000000e+00 
0.0000000e+00 -2.3065878e-02 0.0000000e+00 
0.0000000e+00 -2.2771044e-02 0.0000000e+00 
0.0000000e+00 -2.2473382e-02 0.0000000e+00 
0.0000000e+00 -2.2172939e-02 0.0000000e+00 
0.0000000e+00 -2.1869760e-02 0.0000000e+00 
0.0000000e+00 -2.1563893e-02 0.0000000e+00 
0.0000000e+00 -2.1255387e-02 0.0000000e+00 
0.0000000e+00 -2.0944284e-02 0.0000000e+00 
0.0000000e+00 -2.0630635e-02 0.0000000e+00 
0.0000000e+00 -2.0314483e-02 0.0000000e+00 
0.0000000e+00 -1.9995874e-02 0.0000000e+00 
0.0000000e+00 -1.9674854e-02 0.0000000e+00 
0.0000000e+00 -1.9351473e-02 0.0000000e+00 
0.0000000e+00 -1.9025771e-02 0.0000000e+00 
0.0000000e+00 -1.8697798e-02 0.0000000e+00 
0.0000000e+00 -1.8367596e-02 0.0000000e+00 
0.0000000e+00 -1.8035214e-02 0.0000000e+00 
0.0000000e+00 -1.7700696e-02 0.0000000e+00 
0.0000000e+00 -1.7364087e-02 0.0000000e+00 
0.0000000e+00 -1.7025430e-02 0.0000000e+00 
0.0000000e+00 -1.6684774e-02 0.0000000e+00 
0.0000000e+00 -1.6342163e-02 0.0000000e+00 
0.0000000e+00 -1.5997641e-02 0.0000000e+00 
0.0000000e+00 -1.5651252e-02 0.0000000e+00 
0.0000000e+00 -1.5303042e-02 0.0000000e+00 
0.0000000e+00 -1.4953055e-02 0.0000000e+00 
0.0000000e+00 -1.4601337e-02 0.0000000e+00 
0.0000000e+00 -1.4247931e-02 0.0000000e+00 
0.0000000e+00 -1.3892881e-02 0.0000000e+00 
0.0000000e+00 -1.3536233e-02 0.0000000e+00 
0.0000000e+00 -1.3178029e-02 0.0000000e+00 
0.0000000e+00 -1.2818314e-02 0.0000000e+00 
0.0000000e+00 -1.2457133e-02 0.0000000e+00 
0.0000000e+00 -1.2094530e-02 0.0000000e+00 
0.0000000e+00 -1.1730548e-02 0.0000000e+00 
0.0000000e+00 -1.1365230e-02 0.0000000e+00 
0.0000000e+00 -1.0998622e-02 0.0000000e+00 
0.0000000e+00 -1.0630766e-02 0.0000000e+00 
0.0000000e+00 -1.0261706e-02 0.0000000e+00 
0.0000000e+00 -9.8914858e-03 0.0000000e+00 
0.0000000e+00 -9.5201479e-03 0.0000000e+00 
0.0000000e+00 -9.1477372e-03 0.0000000e+00 
0.0000000e+00 -8.7742973e-03 0.0000000e+00 
0.0000000e+00 -8.3998693e-03 0.0000000e+00 
0.0000000e+00 -8.0244988e-03 0.0000000e+00 
0.0000000e+00 -7.6482282e-03 0.0000000e+00 
0.0000000e+00 -7.2711003e-03 0.0000000e+00 
0.0000000e+00 -6.8931589e-03 0.0000000e+00 
0.0000000e+00 -6.5144463e-03 0.0000000e+00 
0.0000000e+00 -6.1350064e-03 0.0000000e+00 
0.0000000e+00 -5.7548815e-03 0.0000000e+00 
0.0000000e+00 -5.3741150e-03 0.0000000e+00 
0.0000000e+00 -4.9927495e-03 0.0000000e+00 
0.0000000e+00 -4.6108286e-03 0.0000000e+00 
0.0000000e+00 -4.2283945e-03 0.0000000e+00 
0.0000000e+00 -3.8454900e-03 0.0000000e+00 
0.0000000e+00 -3.4621584e-03 0.0000000e+00 
0.0000000e+00 -3.0784423e-03 0.0000000e+00 
0.0000000e+00 -2.6943844e-03 0.0000000e+00 
0.0000000e+00 -2.3100274e-03 0.0000000e+00 
0.0000000e+00 -1.9254143e-03 0.0000000e+00 
0.0000000e+00 -1.5405876e-03 0.0000000e+00 
0.0000000e+00 -1.1555902e-03 0.0000000e+00 
0.0000000e+00 -7.7046460e-04 0.0000000e+00 
0.0000000e+00 -3.8525363e-04 0.0000000e+00 
CELL_DATA 250
FIELD FieldData 0
