# vtk DataFile Version 4.0
vtk output
ASCII
DATASET UNSTRUCTURED_GRID
POINTS 251 float
0.0000000e+00 0.0000000e+00 0.0000000e+00 
2.5000000e+01 0.0000000e+00 0.0000000e+00 
1.0000000e-01 0.0000000e+00 0.0000000e+00 
2.0000000e-01 0.0000000e+00 0.0000000e+00 
3.0000001e-01 0.0000000e+00 0.0000000e+00 
4.0000001e-01 0.0000000e+00 0.0000000e+00 
5.0000000e-01 0.0000000e+00 0.0000000e+00 
6.0000002e-01 0.0000000e+00 0.0000000e+00 
6.9999999e-01 0.0000000e+00 0.0000000e+00 
8.0000001e-01 0.0000000e+00 0.0000000e+00 
8.9999998e-01 0.0000000e+00 0.0000000e+00 
1.0000000e+00 0.0000000e+00 0.0000000e+00 
1.1000000e+00 0.0000000e+00 0.0000000e+00 
1.2000000e+00 0.0000000e+00 0.0000000e+00 
1.3000000e+00 0.0000000e+00 0.0000000e+00 
1.4000000e+00 0.0000000e+00 0.0000000e+00 
1.5000000e+00 0.0000000e+00 0.0000000e+00 
1.6000000e+00 0.0000000e+00 0.0000000e+00 
1.7000000e+00 0.0000000e+00 0.0000000e+00 
1.8000000e+00 0.0000000e+00 0.0000000e+00 
1.9000000e+00 0.0000000e+00 0.0000000e+00 
2.0000000e+00 0.0000000e+00 0.0000000e+00 
2.0999999e+00 0.0000000e+00 0.0000000e+00 
2.2000000e+00 0.0000000e+00 0.0000000e+00 
2.3000000e+00 0.0000000e+00 0.0000000e+00 
2.4000001e+00 0.0000000e+00 0.0000000e+00 
2.5000000e+00 0.0000000e+00 0.0000000e+00 
2.5999999e+00 0.0000000e+00 0.0000000e+00 
2.7000000e+00 0.0000000e+00 0.0000000e+00 
2.8000000e+00 0.0000000e+00 0.0000000e+00 
2.9000001e+00 0.0000000e+00 0.0000000e+00 
3.0000000e+00 0.0000000e+00 0.0000000e+00 
3.0999999e+00 0.0000000e+00 0.0000000e+00 
3.2000000e+00 0.0000000e+00 0.0000000e+00 
3.3000000e+00 0.0000000e+00 0.0000000e+00 
3.4000001e+00 0.0000000e+00 0.0000000e+00 
3.5000000e+00 0.0000000e+00 0.0000000e+00 
3.5999999e+00 0.0000000e+00 0.0000000e+00 
3.7000000e+00 0.0000000e+00 0.0000000e+00 
3.8000000e+00 0.0000000e+00 0.0000000e+00 
3.9000001e+00 0.0000000e+00 0.0000000e+00 
4.0000000e+00 0.0000000e+00 0.0000000e+00 
4.0999999e+00 0.0000000e+00 0.0000000e+00 
4.1999998e+00 0.0000000e+00 0.0000000e+00 
4.3000002e+00 0.0000000e+00 0.0000000e+00 
4.4000001e+00 0.0000000e+00 0.0000000e+00 
4.5000000e+00 0.0000000e+00 0.0000000e+00 
4.5999999e+00 0.0000000e+00 0.0000000e+00 
4.6999998e+00 0.0000000e+00 0.0000000e+00 
4.8000002e+00 0.0000000e+00 0.0000000e+00 
4.9000001e+00 0.0000000e+00 0.0000000e+00 
5.0000000e+00 0.0000000e+00 0.0000000e+00 
5.0999999e+00 0.0000000e+00 0.0000000e+00 
5.1999998e+00 0.0000000e+00 0.0000000e+00 
5.3000002e+00 0.0000000e+00 0.0000000e+00 
5.4000001e+00 0.0000000e+00 0.0000000e+00 
5.5000000e+00 0.0000000e+00 0.0000000e+00 
5.5999999e+00 0.0000000e+00 0.0000000e+00 
5.6999998e+00 0.0000000e+00 0.0000000e+00 
5.8000002e+00 0.0000000e+00 0.0000000e+00 
5.9000001e+00 0.0000000e+00 0.0000000e+00 
6.0000000e+00 0.0000000e+00 0.0000000e+00 
6.0999999e+00 0.0000000e+00 0.0000000e+00 
6.1999998e+00 0.0000000e+00 0.0000000e+00 
6.3000002e+00 0.0000000e+00 0.0000000e+00 
6.4000001e+00 0.0000000e+00 0.0000000e+00 
6.5000000e+00 0.0000000e+00 0.0000000e+00 
6.5999999e+00 0.0000000e+00 0.0000000e+00 
6.6999998e+00 0.0000000e+00 0.0000000e+00 
6.8000002e+00 0.0000000e+00 0.0000000e+00 
6.9000001e+00 0.0000000e+00 0.0000000e+00 
7.0000000e+00 0.0000000e+00 0.0000000e+00 
7.0999999e+00 0.0000000e+00 0.0000000e+00 
7.1999998e+00 0.0000000e+00 0.0000000e+00 
7.3000002e+00 0.0000000e+00 0.0000000e+00 
7.4000001e+00 0.0000000e+00 0.0000000e+00 
7.5000000e+00 0.0000000e+00 0.0000000e+00 
7.5999999e+00 0.0000000e+00 0.0000000e+00 
7.6999998e+00 0.0000000e+00 0.0000000e+00 
7.8000002e+00 0.0000000e+00 0.0000000e+00 
7.9000001e+00 0.0000000e+00 0.0000000e+00 
8.0000000e+00 0.0000000e+00 0.0000000e+00 
8.1000004e+00 0.0000000e+00 0.0000000e+00 
8.1999998e+00 0.0000000e+00 0.0000000e+00 
8.3000002e+00 0.0000000e+00 0.0000000e+00 
8.3999996e+00 0.0000000e+00 0.0000000e+00 
8.5000000e+00 0.0000000e+00 0.0000000e+00 
8.6000004e+00 0.0000000e+00 0.0000000e+00 
8.6999998e+00 0.0000000e+00 0.0000000e+00 
8.8000002e+00 0.0000000e+00 0.0000000e+00 
8.8999996e+00 0.0000000e+00 0.0000000e+00 
9.0000000e+00 0.0000000e+00 0.0000000e+00 
9.1000004e+00 0.0000000e+00 0.0000000e+00 
9.1999998e+00 0.0000000e+00 0.0000000e+00 
9.3000002e+00 0.0000000e+00 0.0000000e+00 
9.3999996e+00 0.0000000e+00 0.0000000e+00 
9.5000000e+00 0.0000000e+00 0.0000000e+00 
9.6000004e+00 0.0000000e+00 0.0000000e+00 
9.6999998e+00 0.0000000e+00 0.0000000e+00 
9.8000002e+00 0.0000000e+00 0.0000000e+00 
9.8999996e+00 0.0000000e+00 0.0000000e+00 
1.0000000e+01 0.0000000e+00 0.0000000e+00 
1.0100000e+01 0.0000000e+00 0.0000000e+00 
1.0200000e+01 0.0000000e+00 0.0000000e+00 
1.0300000e+01 0.0000000e+00 0.0000000e+00 
1.0400000e+01 0.0000000e+00 0.0000000e+00 
1.0500000e+01 0.0000000e+00 0.0000000e+00 
1.0600000e+01 0.0000000e+00 0.0000000e+00 
1.0700000e+01 0.0000000e+00 0.0000000e+00 
1.0800000e+01 0.0000000e+00 0.0000000e+00 
1.0900000e+01 0.0000000e+00 0.0000000e+00 
1.1000000e+01 0.0000000e+00 0.0000000e+00 
1.1100000e+01 0.0000000e+00 0.0000000e+00 
1.1200000e+01 0.0000000e+00 0.0000000e+00 
1.1300000e+01 0.0000000e+00 0.0000000e+00 
1.1400000e+01 0.0000000e+00 0.0000000e+00 
1.1500000e+01 0.0000000e+00 0.0000000e+00 
1.1600000e+01 0.0000000e+00 0.0000000e+00 
1.1700000e+01 0.0000000e+00 0.0000000e+00 
1.1800000e+01 0.0000000e+00 0.0000000e+00 
1.1900000e+01 0.0000000e+00 0.0000000e+00 
1.2000000e+01 0.0000000e+00 0.0000000e+00 
1.2100000e+01 0.0000000e+00 0.0000000e+00 
1.2200000e+01 0.0000000e+00 0.0000000e+00 
1.2300000e+01 0.0000000e+00 0.0000000e+00 
1.2400000e+01 0.0000000e+00 0.0000000e+00 
1.2500000e+01 0.0000000e+00 0.0000000e+00 
1.2600000e+01 0.0000000e+00 0.0000000e+00 
1.2700000e+01 0.0000000e+00 0.0000000e+00 
1.2800000e+01 0.0000000e+00 0.0000000e+00 
1.2900000e+01 0.0000000e+00 0.0000000e+00 
1.3000000e+01 0.0000000e+00 0.0000000e+00 
1.3100000e+01 0.0000000e+00 0.0000000e+00 
1.3200000e+01 0.0000000e+00 0.0000000e+00 
1.3300000e+01 0.0000000e+00 0.0000000e+00 
1.3400000e+01 0.0000000e+00 0.0000000e+00 
1.3500000e+01 0.0000000e+00 0.0000000e+00 
1.3600000e+01 0.0000000e+00 0.0000000e+00 
1.3700000e+01 0.0000000e+00 0.0000000e+00 
1.3800000e+01 0.0000000e+00 0.0000000e+00 
1.3900000e+01 0.0000000e+00 0.0000000e+00 
1.4000000e+01 0.0000000e+00 0.0000000e+00 
1.4100000e+01 0.0000000e+00 0.0000000e+00 
1.4200000e+01 0.0000000e+00 0.0000000e+00 
1.4300000e+01 0.0000000e+00 0.0000000e+00 
1.4400000e+01 0.0000000e+00 0.0000000e+00 
1.4500000e+01 0.0000000e+00 0.0000000e+00 
1.4600000e+01 0.0000000e+00 0.0000000e+00 
1.4700000e+01 0.0000000e+00 0.0000000e+00 
1.4800000e+01 0.0000000e+00 0.0000000e+00 
1.4900000e+01 0.0000000e+00 0.0000000e+00 
1.5000000e+01 0.0000000e+00 0.0000000e+00 
1.5100000e+01 0.0000000e+00 0.0000000e+00 
1.5200000e+01 0.0000000e+00 0.0000000e+00 
1.5300000e+01 0.0000000e+00 0.0000000e+00 
1.5400000e+01 0.0000000e+00 0.0000000e+00 
1.5500000e+01 0.0000000e+00 0.0000000e+00 
1.5600000e+01 0.0000000e+00 0.0000000e+00 
1.5700000e+01 0.0000000e+00 0.0000000e+00 
1.5800000e+01 0.0000000e+00 0.0000000e+00 
1.5900000e+01 0.0000000e+00 0.0000000e+00 
1.6000000e+01 0.0000000e+00 0.0000000e+00 
1.6100000e+01 0.0000000e+00 0.0000000e+00 
1.6200001e+01 0.0000000e+00 0.0000000e+00 
1.6299999e+01 0.0000000e+00 0.0000000e+00 
1.6400000e+01 0.0000000e+00 0.0000000e+00 
1.6500000e+01 0.0000000e+00 0.0000000e+00 
1.6600000e+01 0.0000000e+00 0.0000000e+00 
1.6700001e+01 0.0000000e+00 0.0000000e+00 
1.6799999e+01 0.0000000e+00 0.0000000e+00 
1.6900000e+01 0.0000000e+00 0.0000000e+00 
1.7000000e+01 0.0000000e+00 0.0000000e+00 
1.7100000e+01 0.0000000e+00 0.0000000e+00 
1.7200001e+01 0.0000000e+00 0.0000000e+00 
1.7299999e+01 0.0000000e+00 0.0000000e+00 
1.7400000e+01 0.0000000e+00 0.0000000e+00 
1.7500000e+01 0.0000000e+00 0.0000000e+00 
1.7600000e+01 0.0000000e+00 0.0000000e+00 
1.7700001e+01 0.0000000e+00 0.0000000e+00 
1.7799999e+01 0.0000000e+00 0.0000000e+00 
1.7900000e+01 0.0000000e+00 0.0000000e+00 
1.8000000e+01 0.0000000e+00 0.0000000e+00 
1.8100000e+01 0.0000000e+00 0.0000000e+00 
1.8200001e+01 0.0000000e+00 0.0000000e+00 
1.8299999e+01 0.0000000e+00 0.0000000e+00 
1.8400000e+01 0.0000000e+00 0.0000000e+00 
1.8500000e+01 0.0000000e+00 0.0000000e+00 
1.8600000e+01 0.0000000e+00 0.0000000e+00 
1.8700001e+01 0.0000000e+00 0.0000000e+00 
1.8799999e+01 0.0000000e+00 0.0000000e+00 
1.8900000e+01 0.0000000e+00 0.0000000e+00 
1.9000000e+01 0.0000000e+00 0.0000000e+00 
1.9100000e+01 0.0000000e+00 0.0000000e+00 
1.9200001e+01 0.0000000e+00 0.0000000e+00 
1.9299999e+01 0.0000000e+00 0.0000000e+00 
1.9400000e+01 0.0000000e+00 0.0000000e+00 
1.9500000e+01 0.0000000e+00 0.0000000e+00 
1.9600000e+01 0.0000000e+00 0.0000000e+00 
1.9700001e+01 0.0000000e+00 0.0000000e+00 
1.9799999e+01 0.0000000e+00 0.0000000e+00 
1.9900000e+01 0.0000000e+00 0.0000000e+00 
2.0000000e+01 0.0000000e+00 0.0000000e+00 
2.0100000e+01 0.0000000e+00 0.0000000e+00 
2.0200001e+01 0.0000000e+00 0.0000000e+00 
2.0299999e+01 0.0000000e+00 0.0000000e+00 
2.0400000e+01 0.0000000e+00 0.0000000e+00 
2.0500000e+01 0.0000000e+00 0.0000000e+00 
2.0600000e+01 0.0000000e+00 0.0000000e+00 
2.0700001e+01 0.0000000e+00 0.0000000e+00 
2.0799999e+01 0.0000000e+00 0.0000000e+00 
2.0900000e+01 0.0000000e+00 0.0000000e+00 
2.1000000e+01 0.0000000e+00 0.0000000e+00 
2.1100000e+01 0.0000000e+00 0.0000000e+00 
2.1200001e+01 0.0000000e+00 0.0000000e+00 
2.1299999e+01 0.0000000e+00 0.0000000e+00 
2.1400000e+01 0.0000000e+00 0.0000000e+00 
2.1500000e+01 0.0000000e+00 0.0000000e+00 
2.1600000e+01 0.0000000e+00 0.0000000e+00 
2.1700001e+01 0.0000000e+00 0.0000000e+00 
2.1799999e+01 0.0000000e+00 0.0000000e+00 
2.1900000e+01 0.0000000e+00 0.0000000e+00 
2.2000000e+01 0.0000000e+00 0.0000000e+00 
2.2100000e+01 0.0000000e+00 0.0000000e+00 
2.2200001e+01 0.0000000e+00 0.0000000e+00 
2.2299999e+01 0.0000000e+00 0.0000000e+00 
2.2400000e+01 0.0000000e+00 0.0000000e+00 
2.2500000e+01 0.0000000e+00 0.0000000e+00 
2.2600000e+01 0.0000000e+00 0.0000000e+00 
2.2700001e+01 0.0000000e+00 0.0000000e+00 
2.2799999e+01 0.0000000e+00 0.0000000e+00 
2.2900000e+01 0.0000000e+00 0.0000000e+00 
2.3000000e+01 0.0000000e+00 0.0000000e+00 
2.3100000e+01 0.0000000e+00 0.0000000e+00 
2.3200001e+01 0.0000000e+00 0.0000000e+00 
2.3299999e+01 0.0000000e+00 0.0000000e+00 
2.3400000e+01 0.0000000e+00 0.0000000e+00 
2.3500000e+01 0.0000000e+00 0.0000000e+00 
2.3600000e+01 0.0000000e+00 0.0000000e+00 
2.3700001e+01 0.0000000e+00 0.0000000e+00 
2.3799999e+01 0.0000000e+00 0.0000000e+00 
2.3900000e+01 0.0000000e+00 0.0000000e+00 
2.4000000e+01 0.0000000e+00 0.0000000e+00 
2.4100000e+01 0.0000000e+00 0.0000000e+00 
2.4200001e+01 0.0000000e+00 0.0000000e+00 
2.4299999e+01 0.0000000e+00 0.0000000e+00 
2.4400000e+01 0.0000000e+00 0.0000000e+00 
2.4500000e+01 0.0000000e+00 0.0000000e+00 
2.4600000e+01 0.0000000e+00 0.0000000e+00 
2.4700001e+01 0.0000000e+00 0.0000000e+00 
2.4799999e+01 0.0000000e+00 0.0000000e+00 
2.4900000e+01 0.0000000e+00 0.0000000e+00 

CELLS 250 750
2 0 2
2 2 3
2 3 4
2 4 5
2 5 6
2 6 7
2 7 8
2 8 9
2 9 10
2 10 11
2 11 12
2 12 13
2 13 14
2 14 15
2 15 16
2 16 17
2 17 18
2 18 19
2 19 20
2 20 21
2 21 22
2 22 23
2 23 24
2 24 25
2 25 26
2 26 27
2 27 28
2 28 29
2 29 30
2 30 31
2 31 32
2 32 33
2 33 34
2 34 35
2 35 36
2 36 37
2 37 38
2 38 39
2 39 40
2 40 41
2 41 42
2 42 43
2 43 44
2 44 45
2 45 46
2 46 47
2 47 48
2 48 49
2 49 50
2 50 51
2 51 52
2 52 53
2 53 54
2 54 55
2 55 56
2 56 57
2 57 58
2 58 59
2 59 60
2 60 61
2 61 62
2 62 63
2 63 64
2 64 65
2 65 66
2 66 67
2 67 68
2 68 69
2 69 70
2 70 71
2 71 72
2 72 73
2 73 74
2 74 75
2 75 76
2 76 77
2 77 78
2 78 79
2 79 80
2 80 81
2 81 82
2 82 83
2 83 84
2 84 85
2 85 86
2 86 87
2 87 88
2 88 89
2 89 90
2 90 91
2 91 92
2 92 93
2 93 94
2 94 95
2 95 96
2 96 97
2 97 98
2 98 99
2 99 100
2 100 101
2 101 102
2 102 103
2 103 104
2 104 105
2 105 106
2 106 107
2 107 108
2 108 109
2 109 110
2 110 111
2 111 112
2 112 113
2 113 114
2 114 115
2 115 116
2 116 117
2 117 118
2 118 119
2 119 120
2 120 121
2 121 122
2 122 123
2 123 124
2 124 125
2 125 126
2 126 127
2 127 128
2 128 129
2 129 130
2 130 131
2 131 132
2 132 133
2 133 134
2 134 135
2 135 136
2 136 137
2 137 138
2 138 139
2 139 140
2 140 141
2 141 142
2 142 143
2 143 144
2 144 145
2 145 146
2 146 147
2 147 148
2 148 149
2 149 150
2 150 151
2 151 152
2 152 153
2 153 154
2 154 155
2 155 156
2 156 157
2 157 158
2 158 159
2 159 160
2 160 161
2 161 162
2 162 163
2 163 164
2 164 165
2 165 166
2 166 167
2 167 168
2 168 169
2 169 170
2 170 171
2 171 172
2 172 173
2 173 174
2 174 175
2 175 176
2 176 177
2 177 178
2 178 179
2 179 180
2 180 181
2 181 182
2 182 183
2 183 184
2 184 185
2 185 186
2 186 187
2 187 188
2 188 189
2 189 190
2 190 191
2 191 192
2 192 193
2 193 194
2 194 195
2 195 196
2 196 197
2 197 198
2 198 199
2 199 200
2 200 201
2 201 202
2 202 203
2 203 204
2 204 205
2 205 206
2 206 207
2 207 208
2 208 209
2 209 210
2 210 211
2 211 212
2 212 213
2 213 214
2 214 215
2 215 216
2 216 217
2 217 218
2 218 219
2 219 220
2 220 221
2 221 222
2 222 223
2 223 224
2 224 225
2 225 226
2 226 227
2 227 228
2 228 229
2 229 230
2 230 231
2 231 232
2 232 233
2 233 234
2 234 235
2 235 236
2 236 237
2 237 238
2 238 239
2 239 240
2 240 241
2 241 242
2 242 243
2 243 244
2 244 245
2 245 246
2 246 247
2 247 248
2 248 249
2 249 250
2 250 1

CELL_TYPES 250
3
3
3
3
3
3
3
3
3
3
3
3
3
3
3
3
3
3
3
3
3
3
3
3
3
3
3
3
3
3
3
3
3
3
3
3
3
3
3
3
3
3
3
3
3
3
3
3
3
3
3
3
3
3
3
3
3
3
3
3
3
3
3
3
3
3
3
3
3
3
3
3
3
3
3
3
3
3
3
3
3
3
3
3
3
3
3
3
3
3
3
3
3
3
3
3
3
3
3
3
3
3
3
3
3
3
3
3
3
3
3
3
3
3
3
3
3
3
3
3
3
3
3
3
3
3
3
3
3
3
3
3
3
3
3
3
3
3
3
3
3
3
3
3
3
3
3
3
3
3
3
3
3
3
3
3
3
3
3
3
3
3
3
3
3
3
3
3
3
3
3
3
3
3
3
3
3
3
3
3
3
3
3
3
3
3
3
3
3
3
3
3
3
3
3
3
3
3
3
3
3
3
3
3
3
3
3
3
3
3
3
3
3
3
3
3
3
3
3
3
3
3
3
3
3
3
3
3
3
3
3
3
3
3
3
3
3
3
3
3
3
3
3
3
3
3
3
3
3
3
POINT_DATA 251
FIELD FieldData 1
DISPLACEMENT 3 251  float
0.0000000e+00 0.0000000e+00 0.0000000e+00 
0.0000000e+00 0.0000000e+00 0.0000000e+00 
0.0000000e+00 -3.7059671e-04 0.0000000e+00 
0.0000000e+00 -7.4115070e-04 0.0000000e+00 
0.0000000e+00 -1.1116192e-03 0.0000000e+00 
0.0000000e+00 -1.4819596e-03 0.0000000e+00 
0.0000000e+00 -1.8521290e-03 0.0000000e+00 
0.0000000e+00 -2.2220847e-03 0.0000000e+00 
0.0000000e+00 -2.5917841e-03 0.0000000e+00 
0.0000000e+00 -2.9611846e-03 0.0000000e+00 
0.0000000e+00 -3.3302433e-03 0.0000000e+00 
0.0000000e+00 -3.6989176e-03 0.0000000e+00 
0.0000000e+00 -4.0671648e-03 0.0000000e+00 
0.0000000e+00 -4.4349423e-03 0.0000000e+00 
0.0000000e+00 -4.8022070e-03 0.0000000e+00 
0.0000000e+00 -5.1689171e-03 0.0000000e+00 
0.0000000e+00 -5.5350298e-03 0.0000000e+00 
0.0000000e+00 -5.9005022e-03 0.0000000e+00 
0.0000000e+00 -6.2652915e-03 0.0000000e+00 
0.0000000e+00 -6.6293557e-03 0.0000000e+00 
0.0000000e+00 -6.9926525e-03 0.0000000e+00 
0.0000000e+00 -7.3551387e-03 0.0000000e+00 
0.0000000e+00 -7.7167721e-03 0.0000000e+00 
0.0000000e+00 -8.0775106e-03 0.0000000e+00 
0.0000000e+00 -8.4373113e-03 0.0000000e+00 
0.0000000e+00 -8.7961322e-03 0.0000000e+00 
0.0000000e+00 -9.1539305e-03 0.0000000e+00 
0.0000000e+00 -9.5106643e-03 0.0000000e+00 
0.0000000e+00 -9.8662917e-03 0.0000000e+00 
0.0000000e+00 -1.0220770e-02 0.0000000e+00 
0.0000000e+00 -1.0574056e-02 0.0000000e+00 
0.0000000e+00 -1.0926110e-02 0.0000000e+00 
0.0000000e+00 -1.1276887e-02 0.0000000e+00 
0.0000000e+00 -1.1626347e-02 0.0000000e+00 
0.0000000e+00 -1.1974447e-02 0.0000000e+00 
0.0000000e+00 -1.2321146e-02 0.0000000e+00 
0.0000000e+00 -1.2666401e-02 0.0000000e+00 
0.0000000e+00 -1.3010171e-02 0.0000000e+00 
0.0000000e+00 -1.3352414e-02 0.0000000e+00 
0.0000000e+00 -1.3693087e-02 0.0000000e+00 
0.0000000e+00 -1.4032149e-02 0.0000000e+00 
0.0000000e+00 -1.4369559e-02 0.0000000e+00 
0.0000000e+00 -1.4705273e-02 0.0000000e+00 
0.0000000e+00 -1.5039253e-02 0.0000000e+00 
0.0000000e+00 -1.5371455e-02 0.0000000e+00 
0.0000000e+00 -1.5701838e-02 0.0000000e+00 
0.0000000e+00 -1.6030362e-02 0.0000000e+00 
0.0000000e+00 -1.6356982e-02 0.0000000e+00 
0.0000000e+00 -1.6681660e-02 0.0000000e+00 
0.0000000e+00 -1.7004354e-02 0.0000000e+00 
0.0000000e+00 -1.7325023e-02 0.0000000e+00 
0.0000000e+00 -1.7643625e-02 0.0000000e+00 
0.0000000e+00 -1.7960120e-02 0.0000000e+00 
0.0000000e+00 -1.8274466e-02 0.0000000e+00 
0.0000000e+00 -1.8586621e-02 0.0000000e+00 
0.0000000e+00 -1.8896548e-02 0.0000000e+00 
0.0000000e+00 -1.9204201e-02 0.0000000e+00 
0.0000000e+00 -1.9509545e-02 0.0000000e+00 
0.0000000e+00 -1.9812535e-02 0.0000000e+00 
0.0000000e+00 -2.0113131e-02 0.0000000e+00 
0.0000000e+00 -2.0411296e-02 0.0000000e+00 
0.0000000e+00 -2.0706983e-02 0.0000000e+00 
0.0000000e+00 -2.1000158e-02 0.0000000e+00 
0.0000000e+00 -2.1290779e-02 0.0000000e+00 
0.0000000e+00 -2.1578804e-02 0.0000000e+00 
0.0000000e+00 -2.1864193e-02 0.0000000e+00 
0.0000000e+00 -2.2146907e-02 0.0000000e+00 
0.0000000e+00 -2.2426905e-02 0.0000000e+00 
0.0000000e+00 -2.2704149e-02 0.0000000e+00 
0.0000000e+00 -2.2978598e-02 0.0000000e+00 
0.0000000e+00 -2.3250211e-02 0.0000000e+00 
0.0000000e+00 -2.3518952e-02 0.0000000e+00 
0.0000000e+00 -2.3784777e-02 0.0000000e+00 
0.0000000e+00 -2.4047649e-02 0.0000000e+00 
0.0000000e+00 -2.4307527e-02 0.0000000e+00 
0.0000000e+00 -2.4564372e-02 0.0000000e+00 
0.0000000e+00 -2.4818147e-02 0.0000000e+00 
0.0000000e+00 -2.5068812e-02 0.0000000e+00 
0.0000000e+00 -2.5316324e-02 0.0000000e+00 
0.0000000e+00 -2.5560649e-02 0.0000000e+00 
0.0000000e+00 -2.5801746e-02 0.0000000e+00 
0.0000000e+00 -2.6039576e-02 0.0000000e+00 
0.0000000e+00 -2.6274102e-02 0.0000000e+00 
0.0000000e+00 -2.6505282e-02 0.0000000e+00 
0.0000000e+00 -2.6733080e-02 0.0000000e+00 
0.0000000e+00 -2.6957456e-02 0.0000000e+00 
0.0000000e+00 -2.7178373e-02 0.0000000e+00 
0.0000000e+00 -2.7395792e-02 0.0000000e+00 
0.0000000e+00 -2.7609676e-02 0.0000000e+00 
0.0000000e+00 -2.7819984e-02 0.0000000e+00 
0.0000000e+00 -2.8026680e-02 0.0000000e+00 
0.0000000e+00 -2.8229726e-02 0.0000000e+00 
0.0000000e+00 -2.8429084e-02 0.0000000e+00 
0.0000000e+00 -2.8624715e-02 0.0000000e+00 
0.0000000e+00 -2.8816583e-02 0.0000000e+00 
0.0000000e+00 -2.9004650e-02 0.0000000e+00 
0.0000000e+00 -2.9188879e-02 0.0000000e+00 
0.0000000e+00 -2.9369231e-02 0.0000000e+00 
0.0000000e+00 -2.9545669e-02 0.0000000e+00 
0.0000000e+00 -2.9718157e-02 0.0000000e+00 
0.0000000e+00 -2.9886657e-02 0.0000000e+00 
0.0000000e+00 -3.0051133e-02 0.0000000e+00 
0.0000000e+00 -3.0211547e-02 0.0000000e+00 
0.0000000e+00 -3.0367862e-02 0.0000000e+00 
0.0000000e+00 -3.0520042e-02 0.0000000e+00 
0.0000000e+00 -3.0668050e-02 0.0000000e+00 
0.0000000e+00 -3.0811848e-02 0.0000000e+00 
0.0000000e+00 -3.0951403e-02 0.0000000e+00 
0.0000000e+00 -3.1086676e-02 0.0000000e+00 
0.0000000e+00 -3.1217631e-02 0.0000000e+00 
0.0000000e+00 -3.1344231e-02 0.0000000e+00 
0.0000000e+00 -3.1466443e-02 0.0000000e+00 
0.0000000e+00 -3.1584229e-02 0.0000000e+00 
0.0000000e+00 -3.1697553e-02 0.0000000e+00 
0.0000000e+00 -3.1806376e-02 0.0000000e+00 
0.0000000e+00 -3.1910669e-02 0.0000000e+00 
0.0000000e+00 -3.2010391e-02 0.0000000e+00 
0.0000000e+00 -3.2105509e-02 0.0000000e+00 
0.0000000e+00 -3.2195989e-02 0.0000000e+00 
0.0000000e+00 -3.2281790e-02 0.0000000e+00 
0.0000000e+00 -3.2362882e-02 0.0000000e+00 
0.0000000e+00 -3.2439228e-02 0.0000000e+00 
0.0000000e+00 -3.2510791e-02 0.0000000e+00 
0.0000000e+00 -3.2577541e-02 0.0000000e+00 
0.0000000e+00 -3.2639436e-02 0.0000000e+00 
0.0000000e+00 -3.2696448e-02 0.0000000e+00 
0.0000000e+00 -3.2748539e-02 0.0000000e+00 
0.0000000e+00 -3.2795675e-02 0.0000000e+00 
0.0000000e+00 -3.2837823e-02 0.0000000e+00 
0.0000000e+00 -3.2874946e-02 0.0000000e+00 
0.0000000e+00 -3.2907009e-02 0.0000000e+00 
0.0000000e+00 -3.2933980e-02 0.0000000e+00 
0.0000000e+00 -3.2955822e-02 0.0000000e+00 
0.0000000e+00 -3.2972503e-02 0.0000000e+00 
0.0000000e+00 -3.2983992e-02 0.0000000e+00 
0.0000000e+00 -3.2990251e-02 0.0000000e+00 
0.0000000e+00 -3.2991245e-02 0.0000000e+00 
0.0000000e+00 -3.2986943e-02 0.0000000e+00 
0.0000000e+00 -3.2977313e-02 0.0000000e+00 
0.0000000e+00 -3.2962315e-02 0.0000000e+00 
0.0000000e+00 -3.2941923e-02 0.0000000e+00 
0.0000000e+00 -3.2916095e-02 0.0000000e+00 
0.0000000e+00 -3.2884806e-02 0.0000000e+00 
0.0000000e+00 -3.2848019e-02 0.0000000e+00 
0.0000000e+00 -3.2805704e-02 0.0000000e+00 
0.0000000e+00 -3.2757822e-02 0.0000000e+00 
0.0000000e+00 -3.2704342e-02 0.0000000e+00 
0.0000000e+00 -3.2645237e-02 0.0000000e+00 
0.0000000e+00 -3.2580465e-02 0.0000000e+00 
0.0000000e+00 -3.2510001e-02 0.0000000e+00 
0.0000000e+00 -3.2433808e-02 0.0000000e+00 
0.0000000e+00 -3.2351851e-02 0.0000000e+00 
0.0000000e+00 -3.2264106e-02 0.0000000e+00 
0.0000000e+00 -3.2170530e-02 0.0000000e+00 
0.0000000e+00 -3.2071099e-02 0.0000000e+00 
0.0000000e+00 -3.1965781e-02 0.0000000e+00 
0.0000000e+00 -3.1854536e-02 0.0000000e+00 
0.0000000e+00 -3.1737339e-02 0.0000000e+00 
0.0000000e+00 -3.1614155e-02 0.0000000e+00 
0.0000000e+00 -3.1484950e-02 0.0000000e+00 
0.0000000e+00 -3.1349696e-02 0.0000000e+00 
0.0000000e+00 -3.1208362e-02 0.0000000e+00 
0.0000000e+00 -3.1060914e-02 0.0000000e+00 
0.0000000e+00 -3.0907320e-02 0.0000000e+00 
0.0000000e+00 -3.0747548e-02 0.0000000e+00 
0.0000000e+00 -3.0581569e-02 0.0000000e+00 
0.0000000e+00 -3.0409349e-02 0.0000000e+00 
0.0000000e+00 -3.0230859e-02 0.0000000e+00 
0.0000000e+00 -3.0046076e-02 0.0000000e+00 
0.0000000e+00 -2.9855041e-02 0.0000000e+00 
0.0000000e+00 -2.9657822e-02 0.0000000e+00 
0.0000000e+00 -2.9454494e-02 0.0000000e+00 
0.0000000e+00 -2.9245133e-02 0.0000000e+00 
0.0000000e+00 -2.9029809e-02 0.0000000e+00 
0.0000000e+00 -2.8808597e-02 0.0000000e+00 
0.0000000e+00 -2.8581571e-02 0.0000000e+00 
0.0000000e+00 -2.8348802e-02 0.0000000e+00 
0.0000000e+00 -2.8110368e-02 0.0000000e+00 
0.0000000e+00 -2.7866339e-02 0.0000000e+00 
0.0000000e+00 -2.7616791e-02 0.0000000e+00 
0.0000000e+00 -2.7361797e-02 0.0000000e+00 
0.0000000e+00 -2.7101431e-02 0.0000000e+00 
0.0000000e+00 -2.6835769e-02 0.0000000e+00 
0.0000000e+00 -2.6564881e-02 0.0000000e+00 
0.0000000e+00 -2.6288847e-02 0.0000000e+00 
0.0000000e+00 -2.6007736e-02 0.0000000e+00 
0.0000000e+00 -2.5721624e-02 0.0000000e+00 
0.0000000e+00 -2.5430586e-02 0.0000000e+00 
0.0000000e+00 -2.5134696e-02 0.0000000e+00 
0.0000000e+00 -2.4834029e-02 0.0000000e+00 
0.0000000e+00 -2.4528660e-02 0.0000000e+00 
0.0000000e+00 -2.4218662e-02 0.0000000e+00 
0.0000000e+00 -2.3904109e-02 0.0000000e+00 
0.0000000e+00 -2.3585079e-02 0.0000000e+00 
0.0000000e+00 -2.3261646e-02 0.0000000e+00 
0.0000000e+00 -2.2933882e-02 0.0000000e+00 
0.0000000e+00 -2.2601865e-02 0.0000000e+00 
0.0000000e+00 -2.2265667e-02 0.0000000e+00 
0.0000000e+00 -2.1925367e-02 0.0000000e+00 
0.0000000e+00 -2.1581037e-02 0.0000000e+00 
0.0000000e+00 -2.1232754e-02 0.0000000e+00 
0.0000000e+00 -2.0880591e-02 0.0000000e+00 
0.0000000e+00 -2.0524625e-02 0.0000000e+00 
0.0000000e+00 -2.0164929e-02 0.0000000e+00 
0.0000000e+00 -1.9801581e-02 0.0000000e+00 
0.0000000e+00 -1.9434655e-02 0.0000000e+00 
0.0000000e+00 -1.9064229e-02 0.0000000e+00 
0.0000000e+00 -1.8690374e-02 0.0000000e+00 
0.0000000e+00 -1.8313168e-02 0.0000000e+00 
0.0000000e+00 -1.7932685e-02 0.0000000e+00 
0.0000000e+00 -1.7549004e-02 0.0000000e+00 
0.0000000e+00 -1.7162198e-02 0.0000000e+00 
0.0000000e+00 -1.6772343e-02 0.0000000e+00 
0.0000000e+00 -1.6379513e-02 0.0000000e+00 
0.0000000e+00 -1.5983786e-02 0.0000000e+00 
0.0000000e+00 -1.5585239e-02 0.0000000e+00 
0.0000000e+00 -1.5183945e-02 0.0000000e+00 
0.0000000e+00 -1.4779981e-02 0.0000000e+00 
0.0000000e+00 -1.4373424e-02 0.0000000e+00 
0.0000000e+00 -1.3964347e-02 0.0000000e+00 
0.0000000e+00 -1.3552829e-02 0.0000000e+00 
0.0000000e+00 -1.3138943e-02 0.0000000e+00 
0.0000000e+00 -1.2722768e-02 0.0000000e+00 
0.0000000e+00 -1.2304379e-02 0.0000000e+00 
0.0000000e+00 -1.1883851e-02 0.0000000e+00 
0.0000000e+00 -1.1461261e-02 0.0000000e+00 
0.0000000e+00 -1.1036686e-02 0.0000000e+00 
0.0000000e+00 -1.0610200e-02 0.0000000e+00 
0.0000000e+00 -1.0181881e-02 0.0000000e+00 
0.0000000e+00 -9.7518042e-03 0.0000000e+00 
0.0000000e+00 -9.3200468e-03 0.0000000e+00 
0.0000000e+00 -8.8866837e-03 0.0000000e+00 
0.0000000e+00 -8.4517924e-03 0.0000000e+00 
0.0000000e+00 -8.0154492e-03 0.0000000e+00 
0.0000000e+00 -7.5777299e-03 0.0000000e+00 
0.0000000e+00 -7.1387105e-03 0.0000000e+00 
0.0000000e+00 -6.6984682e-03 0.0000000e+00 
0.0000000e+00 -6.2570786e-03 0.0000000e+00 
0.0000000e+00 -5.8146189e-03 0.0000000e+00 
0.0000000e+00 -5.3711645e-03 0.0000000e+00 
0.0000000e+00 -4.9267928e-03 0.0000000e+00 
0.0000000e+00 -4.4815796e-03 0.0000000e+00 
0.0000000e+00 -4.0356019e-03 0.0000000e+00 
0.0000000e+00 -3.5889356e-03 0.0000000e+00 
0.0000000e+00 -3.1416572e-03 0.0000000e+00 
0.0000000e+00 -2.6938436e-03 0.0000000e+00 
0.0000000e+00 -2.2455710e-03 0.0000000e+00 
0.0000000e+00 -1.7969157e-03 0.0000000e+00 
0.0000000e+00 -1.3479545e-03 0.0000000e+00 
0.0000000e+00 -8.9876389e-04 0.0000000e+00 
0.0000000e+00 -4.4942019e-04 0.0000000e+00 
CELL_DATA 250
FIELD FieldData 0
