# vtk DataFile Version 4.0
vtk output
ASCII
DATASET UNSTRUCTURED_GRID
POINTS 251 float
0.0000000e+00 0.0000000e+00 0.0000000e+00 
2.5000000e+01 0.0000000e+00 0.0000000e+00 
1.0000000e-01 0.0000000e+00 0.0000000e+00 
2.0000000e-01 0.0000000e+00 0.0000000e+00 
3.0000001e-01 0.0000000e+00 0.0000000e+00 
4.0000001e-01 0.0000000e+00 0.0000000e+00 
5.0000000e-01 0.0000000e+00 0.0000000e+00 
6.0000002e-01 0.0000000e+00 0.0000000e+00 
6.9999999e-01 0.0000000e+00 0.0000000e+00 
8.0000001e-01 0.0000000e+00 0.0000000e+00 
8.9999998e-01 0.0000000e+00 0.0000000e+00 
1.0000000e+00 0.0000000e+00 0.0000000e+00 
1.1000000e+00 0.0000000e+00 0.0000000e+00 
1.2000000e+00 0.0000000e+00 0.0000000e+00 
1.3000000e+00 0.0000000e+00 0.0000000e+00 
1.4000000e+00 0.0000000e+00 0.0000000e+00 
1.5000000e+00 0.0000000e+00 0.0000000e+00 
1.6000000e+00 0.0000000e+00 0.0000000e+00 
1.7000000e+00 0.0000000e+00 0.0000000e+00 
1.8000000e+00 0.0000000e+00 0.0000000e+00 
1.9000000e+00 0.0000000e+00 0.0000000e+00 
2.0000000e+00 0.0000000e+00 0.0000000e+00 
2.0999999e+00 0.0000000e+00 0.0000000e+00 
2.2000000e+00 0.0000000e+00 0.0000000e+00 
2.3000000e+00 0.0000000e+00 0.0000000e+00 
2.4000001e+00 0.0000000e+00 0.0000000e+00 
2.5000000e+00 0.0000000e+00 0.0000000e+00 
2.5999999e+00 0.0000000e+00 0.0000000e+00 
2.7000000e+00 0.0000000e+00 0.0000000e+00 
2.8000000e+00 0.0000000e+00 0.0000000e+00 
2.9000001e+00 0.0000000e+00 0.0000000e+00 
3.0000000e+00 0.0000000e+00 0.0000000e+00 
3.0999999e+00 0.0000000e+00 0.0000000e+00 
3.2000000e+00 0.0000000e+00 0.0000000e+00 
3.3000000e+00 0.0000000e+00 0.0000000e+00 
3.4000001e+00 0.0000000e+00 0.0000000e+00 
3.5000000e+00 0.0000000e+00 0.0000000e+00 
3.5999999e+00 0.0000000e+00 0.0000000e+00 
3.7000000e+00 0.0000000e+00 0.0000000e+00 
3.8000000e+00 0.0000000e+00 0.0000000e+00 
3.9000001e+00 0.0000000e+00 0.0000000e+00 
4.0000000e+00 0.0000000e+00 0.0000000e+00 
4.0999999e+00 0.0000000e+00 0.0000000e+00 
4.1999998e+00 0.0000000e+00 0.0000000e+00 
4.3000002e+00 0.0000000e+00 0.0000000e+00 
4.4000001e+00 0.0000000e+00 0.0000000e+00 
4.5000000e+00 0.0000000e+00 0.0000000e+00 
4.5999999e+00 0.0000000e+00 0.0000000e+00 
4.6999998e+00 0.0000000e+00 0.0000000e+00 
4.8000002e+00 0.0000000e+00 0.0000000e+00 
4.9000001e+00 0.0000000e+00 0.0000000e+00 
5.0000000e+00 0.0000000e+00 0.0000000e+00 
5.0999999e+00 0.0000000e+00 0.0000000e+00 
5.1999998e+00 0.0000000e+00 0.0000000e+00 
5.3000002e+00 0.0000000e+00 0.0000000e+00 
5.4000001e+00 0.0000000e+00 0.0000000e+00 
5.5000000e+00 0.0000000e+00 0.0000000e+00 
5.5999999e+00 0.0000000e+00 0.0000000e+00 
5.6999998e+00 0.0000000e+00 0.0000000e+00 
5.8000002e+00 0.0000000e+00 0.0000000e+00 
5.9000001e+00 0.0000000e+00 0.0000000e+00 
6.0000000e+00 0.0000000e+00 0.0000000e+00 
6.0999999e+00 0.0000000e+00 0.0000000e+00 
6.1999998e+00 0.0000000e+00 0.0000000e+00 
6.3000002e+00 0.0000000e+00 0.0000000e+00 
6.4000001e+00 0.0000000e+00 0.0000000e+00 
6.5000000e+00 0.0000000e+00 0.0000000e+00 
6.5999999e+00 0.0000000e+00 0.0000000e+00 
6.6999998e+00 0.0000000e+00 0.0000000e+00 
6.8000002e+00 0.0000000e+00 0.0000000e+00 
6.9000001e+00 0.0000000e+00 0.0000000e+00 
7.0000000e+00 0.0000000e+00 0.0000000e+00 
7.0999999e+00 0.0000000e+00 0.0000000e+00 
7.1999998e+00 0.0000000e+00 0.0000000e+00 
7.3000002e+00 0.0000000e+00 0.0000000e+00 
7.4000001e+00 0.0000000e+00 0.0000000e+00 
7.5000000e+00 0.0000000e+00 0.0000000e+00 
7.5999999e+00 0.0000000e+00 0.0000000e+00 
7.6999998e+00 0.0000000e+00 0.0000000e+00 
7.8000002e+00 0.0000000e+00 0.0000000e+00 
7.9000001e+00 0.0000000e+00 0.0000000e+00 
8.0000000e+00 0.0000000e+00 0.0000000e+00 
8.1000004e+00 0.0000000e+00 0.0000000e+00 
8.1999998e+00 0.0000000e+00 0.0000000e+00 
8.3000002e+00 0.0000000e+00 0.0000000e+00 
8.3999996e+00 0.0000000e+00 0.0000000e+00 
8.5000000e+00 0.0000000e+00 0.0000000e+00 
8.6000004e+00 0.0000000e+00 0.0000000e+00 
8.6999998e+00 0.0000000e+00 0.0000000e+00 
8.8000002e+00 0.0000000e+00 0.0000000e+00 
8.8999996e+00 0.0000000e+00 0.0000000e+00 
9.0000000e+00 0.0000000e+00 0.0000000e+00 
9.1000004e+00 0.0000000e+00 0.0000000e+00 
9.1999998e+00 0.0000000e+00 0.0000000e+00 
9.3000002e+00 0.0000000e+00 0.0000000e+00 
9.3999996e+00 0.0000000e+00 0.0000000e+00 
9.5000000e+00 0.0000000e+00 0.0000000e+00 
9.6000004e+00 0.0000000e+00 0.0000000e+00 
9.6999998e+00 0.0000000e+00 0.0000000e+00 
9.8000002e+00 0.0000000e+00 0.0000000e+00 
9.8999996e+00 0.0000000e+00 0.0000000e+00 
1.0000000e+01 0.0000000e+00 0.0000000e+00 
1.0100000e+01 0.0000000e+00 0.0000000e+00 
1.0200000e+01 0.0000000e+00 0.0000000e+00 
1.0300000e+01 0.0000000e+00 0.0000000e+00 
1.0400000e+01 0.0000000e+00 0.0000000e+00 
1.0500000e+01 0.0000000e+00 0.0000000e+00 
1.0600000e+01 0.0000000e+00 0.0000000e+00 
1.0700000e+01 0.0000000e+00 0.0000000e+00 
1.0800000e+01 0.0000000e+00 0.0000000e+00 
1.0900000e+01 0.0000000e+00 0.0000000e+00 
1.1000000e+01 0.0000000e+00 0.0000000e+00 
1.1100000e+01 0.0000000e+00 0.0000000e+00 
1.1200000e+01 0.0000000e+00 0.0000000e+00 
1.1300000e+01 0.0000000e+00 0.0000000e+00 
1.1400000e+01 0.0000000e+00 0.0000000e+00 
1.1500000e+01 0.0000000e+00 0.0000000e+00 
1.1600000e+01 0.0000000e+00 0.0000000e+00 
1.1700000e+01 0.0000000e+00 0.0000000e+00 
1.1800000e+01 0.0000000e+00 0.0000000e+00 
1.1900000e+01 0.0000000e+00 0.0000000e+00 
1.2000000e+01 0.0000000e+00 0.0000000e+00 
1.2100000e+01 0.0000000e+00 0.0000000e+00 
1.2200000e+01 0.0000000e+00 0.0000000e+00 
1.2300000e+01 0.0000000e+00 0.0000000e+00 
1.2400000e+01 0.0000000e+00 0.0000000e+00 
1.2500000e+01 0.0000000e+00 0.0000000e+00 
1.2600000e+01 0.0000000e+00 0.0000000e+00 
1.2700000e+01 0.0000000e+00 0.0000000e+00 
1.2800000e+01 0.0000000e+00 0.0000000e+00 
1.2900000e+01 0.0000000e+00 0.0000000e+00 
1.3000000e+01 0.0000000e+00 0.0000000e+00 
1.3100000e+01 0.0000000e+00 0.0000000e+00 
1.3200000e+01 0.0000000e+00 0.0000000e+00 
1.3300000e+01 0.0000000e+00 0.0000000e+00 
1.3400000e+01 0.0000000e+00 0.0000000e+00 
1.3500000e+01 0.0000000e+00 0.0000000e+00 
1.3600000e+01 0.0000000e+00 0.0000000e+00 
1.3700000e+01 0.0000000e+00 0.0000000e+00 
1.3800000e+01 0.0000000e+00 0.0000000e+00 
1.3900000e+01 0.0000000e+00 0.0000000e+00 
1.4000000e+01 0.0000000e+00 0.0000000e+00 
1.4100000e+01 0.0000000e+00 0.0000000e+00 
1.4200000e+01 0.0000000e+00 0.0000000e+00 
1.4300000e+01 0.0000000e+00 0.0000000e+00 
1.4400000e+01 0.0000000e+00 0.0000000e+00 
1.4500000e+01 0.0000000e+00 0.0000000e+00 
1.4600000e+01 0.0000000e+00 0.0000000e+00 
1.4700000e+01 0.0000000e+00 0.0000000e+00 
1.4800000e+01 0.0000000e+00 0.0000000e+00 
1.4900000e+01 0.0000000e+00 0.0000000e+00 
1.5000000e+01 0.0000000e+00 0.0000000e+00 
1.5100000e+01 0.0000000e+00 0.0000000e+00 
1.5200000e+01 0.0000000e+00 0.0000000e+00 
1.5300000e+01 0.0000000e+00 0.0000000e+00 
1.5400000e+01 0.0000000e+00 0.0000000e+00 
1.5500000e+01 0.0000000e+00 0.0000000e+00 
1.5600000e+01 0.0000000e+00 0.0000000e+00 
1.5700000e+01 0.0000000e+00 0.0000000e+00 
1.5800000e+01 0.0000000e+00 0.0000000e+00 
1.5900000e+01 0.0000000e+00 0.0000000e+00 
1.6000000e+01 0.0000000e+00 0.0000000e+00 
1.6100000e+01 0.0000000e+00 0.0000000e+00 
1.6200001e+01 0.0000000e+00 0.0000000e+00 
1.6299999e+01 0.0000000e+00 0.0000000e+00 
1.6400000e+01 0.0000000e+00 0.0000000e+00 
1.6500000e+01 0.0000000e+00 0.0000000e+00 
1.6600000e+01 0.0000000e+00 0.0000000e+00 
1.6700001e+01 0.0000000e+00 0.0000000e+00 
1.6799999e+01 0.0000000e+00 0.0000000e+00 
1.6900000e+01 0.0000000e+00 0.0000000e+00 
1.7000000e+01 0.0000000e+00 0.0000000e+00 
1.7100000e+01 0.0000000e+00 0.0000000e+00 
1.7200001e+01 0.0000000e+00 0.0000000e+00 
1.7299999e+01 0.0000000e+00 0.0000000e+00 
1.7400000e+01 0.0000000e+00 0.0000000e+00 
1.7500000e+01 0.0000000e+00 0.0000000e+00 
1.7600000e+01 0.0000000e+00 0.0000000e+00 
1.7700001e+01 0.0000000e+00 0.0000000e+00 
1.7799999e+01 0.0000000e+00 0.0000000e+00 
1.7900000e+01 0.0000000e+00 0.0000000e+00 
1.8000000e+01 0.0000000e+00 0.0000000e+00 
1.8100000e+01 0.0000000e+00 0.0000000e+00 
1.8200001e+01 0.0000000e+00 0.0000000e+00 
1.8299999e+01 0.0000000e+00 0.0000000e+00 
1.8400000e+01 0.0000000e+00 0.0000000e+00 
1.8500000e+01 0.0000000e+00 0.0000000e+00 
1.8600000e+01 0.0000000e+00 0.0000000e+00 
1.8700001e+01 0.0000000e+00 0.0000000e+00 
1.8799999e+01 0.0000000e+00 0.0000000e+00 
1.8900000e+01 0.0000000e+00 0.0000000e+00 
1.9000000e+01 0.0000000e+00 0.0000000e+00 
1.9100000e+01 0.0000000e+00 0.0000000e+00 
1.9200001e+01 0.0000000e+00 0.0000000e+00 
1.9299999e+01 0.0000000e+00 0.0000000e+00 
1.9400000e+01 0.0000000e+00 0.0000000e+00 
1.9500000e+01 0.0000000e+00 0.0000000e+00 
1.9600000e+01 0.0000000e+00 0.0000000e+00 
1.9700001e+01 0.0000000e+00 0.0000000e+00 
1.9799999e+01 0.0000000e+00 0.0000000e+00 
1.9900000e+01 0.0000000e+00 0.0000000e+00 
2.0000000e+01 0.0000000e+00 0.0000000e+00 
2.0100000e+01 0.0000000e+00 0.0000000e+00 
2.0200001e+01 0.0000000e+00 0.0000000e+00 
2.0299999e+01 0.0000000e+00 0.0000000e+00 
2.0400000e+01 0.0000000e+00 0.0000000e+00 
2.0500000e+01 0.0000000e+00 0.0000000e+00 
2.0600000e+01 0.0000000e+00 0.0000000e+00 
2.0700001e+01 0.0000000e+00 0.0000000e+00 
2.0799999e+01 0.0000000e+00 0.0000000e+00 
2.0900000e+01 0.0000000e+00 0.0000000e+00 
2.1000000e+01 0.0000000e+00 0.0000000e+00 
2.1100000e+01 0.0000000e+00 0.0000000e+00 
2.1200001e+01 0.0000000e+00 0.0000000e+00 
2.1299999e+01 0.0000000e+00 0.0000000e+00 
2.1400000e+01 0.0000000e+00 0.0000000e+00 
2.1500000e+01 0.0000000e+00 0.0000000e+00 
2.1600000e+01 0.0000000e+00 0.0000000e+00 
2.1700001e+01 0.0000000e+00 0.0000000e+00 
2.1799999e+01 0.0000000e+00 0.0000000e+00 
2.1900000e+01 0.0000000e+00 0.0000000e+00 
2.2000000e+01 0.0000000e+00 0.0000000e+00 
2.2100000e+01 0.0000000e+00 0.0000000e+00 
2.2200001e+01 0.0000000e+00 0.0000000e+00 
2.2299999e+01 0.0000000e+00 0.0000000e+00 
2.2400000e+01 0.0000000e+00 0.0000000e+00 
2.2500000e+01 0.0000000e+00 0.0000000e+00 
2.2600000e+01 0.0000000e+00 0.0000000e+00 
2.2700001e+01 0.0000000e+00 0.0000000e+00 
2.2799999e+01 0.0000000e+00 0.0000000e+00 
2.2900000e+01 0.0000000e+00 0.0000000e+00 
2.3000000e+01 0.0000000e+00 0.0000000e+00 
2.3100000e+01 0.0000000e+00 0.0000000e+00 
2.3200001e+01 0.0000000e+00 0.0000000e+00 
2.3299999e+01 0.0000000e+00 0.0000000e+00 
2.3400000e+01 0.0000000e+00 0.0000000e+00 
2.3500000e+01 0.0000000e+00 0.0000000e+00 
2.3600000e+01 0.0000000e+00 0.0000000e+00 
2.3700001e+01 0.0000000e+00 0.0000000e+00 
2.3799999e+01 0.0000000e+00 0.0000000e+00 
2.3900000e+01 0.0000000e+00 0.0000000e+00 
2.4000000e+01 0.0000000e+00 0.0000000e+00 
2.4100000e+01 0.0000000e+00 0.0000000e+00 
2.4200001e+01 0.0000000e+00 0.0000000e+00 
2.4299999e+01 0.0000000e+00 0.0000000e+00 
2.4400000e+01 0.0000000e+00 0.0000000e+00 
2.4500000e+01 0.0000000e+00 0.0000000e+00 
2.4600000e+01 0.0000000e+00 0.0000000e+00 
2.4700001e+01 0.0000000e+00 0.0000000e+00 
2.4799999e+01 0.0000000e+00 0.0000000e+00 
2.4900000e+01 0.0000000e+00 0.0000000e+00 

CELLS 250 750
2 0 2
2 2 3
2 3 4
2 4 5
2 5 6
2 6 7
2 7 8
2 8 9
2 9 10
2 10 11
2 11 12
2 12 13
2 13 14
2 14 15
2 15 16
2 16 17
2 17 18
2 18 19
2 19 20
2 20 21
2 21 22
2 22 23
2 23 24
2 24 25
2 25 26
2 26 27
2 27 28
2 28 29
2 29 30
2 30 31
2 31 32
2 32 33
2 33 34
2 34 35
2 35 36
2 36 37
2 37 38
2 38 39
2 39 40
2 40 41
2 41 42
2 42 43
2 43 44
2 44 45
2 45 46
2 46 47
2 47 48
2 48 49
2 49 50
2 50 51
2 51 52
2 52 53
2 53 54
2 54 55
2 55 56
2 56 57
2 57 58
2 58 59
2 59 60
2 60 61
2 61 62
2 62 63
2 63 64
2 64 65
2 65 66
2 66 67
2 67 68
2 68 69
2 69 70
2 70 71
2 71 72
2 72 73
2 73 74
2 74 75
2 75 76
2 76 77
2 77 78
2 78 79
2 79 80
2 80 81
2 81 82
2 82 83
2 83 84
2 84 85
2 85 86
2 86 87
2 87 88
2 88 89
2 89 90
2 90 91
2 91 92
2 92 93
2 93 94
2 94 95
2 95 96
2 96 97
2 97 98
2 98 99
2 99 100
2 100 101
2 101 102
2 102 103
2 103 104
2 104 105
2 105 106
2 106 107
2 107 108
2 108 109
2 109 110
2 110 111
2 111 112
2 112 113
2 113 114
2 114 115
2 115 116
2 116 117
2 117 118
2 118 119
2 119 120
2 120 121
2 121 122
2 122 123
2 123 124
2 124 125
2 125 126
2 126 127
2 127 128
2 128 129
2 129 130
2 130 131
2 131 132
2 132 133
2 133 134
2 134 135
2 135 136
2 136 137
2 137 138
2 138 139
2 139 140
2 140 141
2 141 142
2 142 143
2 143 144
2 144 145
2 145 146
2 146 147
2 147 148
2 148 149
2 149 150
2 150 151
2 151 152
2 152 153
2 153 154
2 154 155
2 155 156
2 156 157
2 157 158
2 158 159
2 159 160
2 160 161
2 161 162
2 162 163
2 163 164
2 164 165
2 165 166
2 166 167
2 167 168
2 168 169
2 169 170
2 170 171
2 171 172
2 172 173
2 173 174
2 174 175
2 175 176
2 176 177
2 177 178
2 178 179
2 179 180
2 180 181
2 181 182
2 182 183
2 183 184
2 184 185
2 185 186
2 186 187
2 187 188
2 188 189
2 189 190
2 190 191
2 191 192
2 192 193
2 193 194
2 194 195
2 195 196
2 196 197
2 197 198
2 198 199
2 199 200
2 200 201
2 201 202
2 202 203
2 203 204
2 204 205
2 205 206
2 206 207
2 207 208
2 208 209
2 209 210
2 210 211
2 211 212
2 212 213
2 213 214
2 214 215
2 215 216
2 216 217
2 217 218
2 218 219
2 219 220
2 220 221
2 221 222
2 222 223
2 223 224
2 224 225
2 225 226
2 226 227
2 227 228
2 228 229
2 229 230
2 230 231
2 231 232
2 232 233
2 233 234
2 234 235
2 235 236
2 236 237
2 237 238
2 238 239
2 239 240
2 240 241
2 241 242
2 242 243
2 243 244
2 244 245
2 245 246
2 246 247
2 247 248
2 248 249
2 249 250
2 250 1

CELL_TYPES 250
3
3
3
3
3
3
3
3
3
3
3
3
3
3
3
3
3
3
3
3
3
3
3
3
3
3
3
3
3
3
3
3
3
3
3
3
3
3
3
3
3
3
3
3
3
3
3
3
3
3
3
3
3
3
3
3
3
3
3
3
3
3
3
3
3
3
3
3
3
3
3
3
3
3
3
3
3
3
3
3
3
3
3
3
3
3
3
3
3
3
3
3
3
3
3
3
3
3
3
3
3
3
3
3
3
3
3
3
3
3
3
3
3
3
3
3
3
3
3
3
3
3
3
3
3
3
3
3
3
3
3
3
3
3
3
3
3
3
3
3
3
3
3
3
3
3
3
3
3
3
3
3
3
3
3
3
3
3
3
3
3
3
3
3
3
3
3
3
3
3
3
3
3
3
3
3
3
3
3
3
3
3
3
3
3
3
3
3
3
3
3
3
3
3
3
3
3
3
3
3
3
3
3
3
3
3
3
3
3
3
3
3
3
3
3
3
3
3
3
3
3
3
3
3
3
3
3
3
3
3
3
3
3
3
3
3
3
3
3
3
3
3
3
3
3
3
3
3
3
3
POINT_DATA 251
FIELD FieldData 1
DISPLACEMENT 3 251  float
0.0000000e+00 0.0000000e+00 0.0000000e+00 
0.0000000e+00 0.0000000e+00 0.0000000e+00 
0.0000000e+00 -7.5027448e-05 0.0000000e+00 
0.0000000e+00 -1.5004388e-04 0.0000000e+00 
0.0000000e+00 -2.2503827e-04 0.0000000e+00 
0.0000000e+00 -2.9999964e-04 0.0000000e+00 
0.0000000e+00 -3.7491694e-04 0.0000000e+00 
0.0000000e+00 -4.4977918e-04 0.0000000e+00 
0.0000000e+00 -5.2457541e-04 0.0000000e+00 
0.0000000e+00 -5.9929461e-04 0.0000000e+00 
0.0000000e+00 -6.7392580e-04 0.0000000e+00 
0.0000000e+00 -7.4845803e-04 0.0000000e+00 
0.0000000e+00 -8.2288042e-04 0.0000000e+00 
0.0000000e+00 -8.9718192e-04 0.0000000e+00 
0.0000000e+00 -9.7135169e-04 0.0000000e+00 
0.0000000e+00 -1.0453789e-03 0.0000000e+00 
0.0000000e+00 -1.1192525e-03 0.0000000e+00 
0.0000000e+00 -1.1929618e-03 0.0000000e+00 
0.0000000e+00 -1.2664960e-03 0.0000000e+00 
0.0000000e+00 -1.3398442e-03 0.0000000e+00 
0.0000000e+00 -1.4129955e-03 0.0000000e+00 
0.0000000e+00 -1.4859395e-03 0.0000000e+00 
0.0000000e+00 -1.5586652e-03 0.0000000e+00 
0.0000000e+00 -1.6311621e-03 0.0000000e+00 
0.0000000e+00 -1.7034194e-03 0.0000000e+00 
0.0000000e+00 -1.7754266e-03 0.0000000e+00 
0.0000000e+00 -1.8471730e-03 0.0000000e+00 
0.0000000e+00 -1.9186481e-03 0.0000000e+00 
0.0000000e+00 -1.9898417e-03 0.0000000e+00 
0.0000000e+00 -2.0607428e-03 0.0000000e+00 
0.0000000e+00 -2.1313413e-03 0.0000000e+00 
0.0000000e+00 -2.2016268e-03 0.0000000e+00 
0.0000000e+00 -2.2715889e-03 0.0000000e+00 
0.0000000e+00 -2.3412176e-03 0.0000000e+00 
0.0000000e+00 -2.4105022e-03 0.0000000e+00 
0.0000000e+00 -2.4794328e-03 0.0000000e+00 
0.0000000e+00 -2.5479991e-03 0.0000000e+00 
0.0000000e+00 -2.6161913e-03 0.0000000e+00 
0.0000000e+00 -2.6839992e-03 0.0000000e+00 
0.0000000e+00 -2.7514128e-03 0.0000000e+00 
0.0000000e+00 -2.8184222e-03 0.0000000e+00 
0.0000000e+00 -2.8850175e-03 0.0000000e+00 
0.0000000e+00 -2.9511892e-03 0.0000000e+00 
0.0000000e+00 -3.0169270e-03 0.0000000e+00 
0.0000000e+00 -3.0822216e-03 0.0000000e+00 
0.0000000e+00 -3.1470635e-03 0.0000000e+00 
0.0000000e+00 -3.2114428e-03 0.0000000e+00 
0.0000000e+00 -3.2753504e-03 0.0000000e+00 
0.0000000e+00 -3.3387765e-03 0.0000000e+00 
0.0000000e+00 -3.4017120e-03 0.0000000e+00 
0.0000000e+00 -3.4641477e-03 0.0000000e+00 
0.0000000e+00 -3.5260741e-03 0.0000000e+00 
0.0000000e+00 -3.5874823e-03 0.0000000e+00 
0.0000000e+00 -3.6483633e-03 0.0000000e+00 
0.0000000e+00 -3.7087079e-03 0.0000000e+00 
0.0000000e+00 -3.7685072e-03 0.0000000e+00 
0.0000000e+00 -3.8277523e-03 0.0000000e+00 
0.0000000e+00 -3.8864349e-03 0.0000000e+00 
0.0000000e+00 -3.9445460e-03 0.0000000e+00 
0.0000000e+00 -4.0020770e-03 0.0000000e+00 
0.0000000e+00 -4.0590195e-03 0.0000000e+00 
0.0000000e+00 -4.1153650e-03 0.0000000e+00 
0.0000000e+00 -4.1711046e-03 0.0000000e+00 
0.0000000e+00 -4.2262315e-03 0.0000000e+00 
0.0000000e+00 -4.2807362e-03 0.0000000e+00 
0.0000000e+00 -4.3346109e-03 0.0000000e+00 
0.0000000e+00 -4.3878481e-03 0.0000000e+00 
0.0000000e+00 -4.4404394e-03 0.0000000e+00 
0.0000000e+00 -4.4923774e-03 0.0000000e+00 
0.0000000e+00 -4.5436537e-03 0.0000000e+00 
0.0000000e+00 -4.5942613e-03 0.0000000e+00 
0.0000000e+00 -4.6441923e-03 0.0000000e+00 
0.0000000e+00 -4.6934397e-03 0.0000000e+00 
0.0000000e+00 -4.7419956e-03 0.0000000e+00 
0.0000000e+00 -4.7898535e-03 0.0000000e+00 
0.0000000e+00 -4.8370054e-03 0.0000000e+00 
0.0000000e+00 -4.8834444e-03 0.0000000e+00 
0.0000000e+00 -4.9291640e-03 0.0000000e+00 
0.0000000e+00 -4.9741571e-03 0.0000000e+00 
0.0000000e+00 -5.0184168e-03 0.0000000e+00 
0.0000000e+00 -5.0619370e-03 0.0000000e+00 
0.0000000e+00 -5.1047103e-03 0.0000000e+00 
0.0000000e+00 -5.1467307e-03 0.0000000e+00 
0.0000000e+00 -5.1879920e-03 0.0000000e+00 
0.0000000e+00 -5.2284878e-03 0.0000000e+00 
0.0000000e+00 -5.2682115e-03 0.0000000e+00 
0.0000000e+00 -5.3071580e-03 0.0000000e+00 
0.0000000e+00 -5.3453203e-03 0.0000000e+00 
0.0000000e+00 -5.3826938e-03 0.0000000e+00 
0.0000000e+00 -5.4192720e-03 0.0000000e+00 
0.0000000e+00 -5.4550492e-03 0.0000000e+00 
0.0000000e+00 -5.4900204e-03 0.0000000e+00 
0.0000000e+00 -5.5241794e-03 0.0000000e+00 
0.0000000e+00 -5.5575222e-03 0.0000000e+00 
0.0000000e+00 -5.5900421e-03 0.0000000e+00 
0.0000000e+00 -5.6217355e-03 0.0000000e+00 
0.0000000e+00 -5.6525967e-03 0.0000000e+00 
0.0000000e+00 -5.6826207e-03 0.0000000e+00 
0.0000000e+00 -5.7118032e-03 0.0000000e+00 
0.0000000e+00 -5.7401392e-03 0.0000000e+00 
0.0000000e+00 -5.7676248e-03 0.0000000e+00 
0.0000000e+00 -5.7942551e-03 0.0000000e+00 
0.0000000e+00 -5.8200257e-03 0.0000000e+00 
0.0000000e+00 -5.8449330e-03 0.0000000e+00 
0.0000000e+00 -5.8689723e-03 0.0000000e+00 
0.0000000e+00 -5.8921403e-03 0.0000000e+00 
0.0000000e+00 -5.9144329e-03 0.0000000e+00 
0.0000000e+00 -5.9358464e-03 0.0000000e+00 
0.0000000e+00 -5.9563774e-03 0.0000000e+00 
0.0000000e+00 -5.9760222e-03 0.0000000e+00 
0.0000000e+00 -5.9947772e-03 0.0000000e+00 
0.0000000e+00 -6.0126400e-03 0.0000000e+00 
0.0000000e+00 -6.0296063e-03 0.0000000e+00 
0.0000000e+00 -6.0456744e-03 0.0000000e+00 
0.0000000e+00 -6.0608406e-03 0.0000000e+00 
0.0000000e+00 -6.0751019e-03 0.0000000e+00 
0.0000000e+00 -6.0884566e-03 0.0000000e+00 
0.0000000e+00 -6.1009009e-03 0.0000000e+00 
0.0000000e+00 -6.1124340e-03 0.0000000e+00 
0.0000000e+00 -6.1230520e-03 0.0000000e+00 
0.0000000e+00 -6.1327536e-03 0.0000000e+00 
0.0000000e+00 -6.1415364e-03 0.0000000e+00 
0.0000000e+00 -6.1493986e-03 0.0000000e+00 
0.0000000e+00 -6.1563384e-03 0.0000000e+00 
0.0000000e+00 -6.1623538e-03 0.0000000e+00 
0.0000000e+00 -6.1674435e-03 0.0000000e+00 
0.0000000e+00 -6.1716060e-03 0.0000000e+00 
0.0000000e+00 -6.1748396e-03 0.0000000e+00 
0.0000000e+00 -6.1771437e-03 0.0000000e+00 
0.0000000e+00 -6.1785160e-03 0.0000000e+00 
0.0000000e+00 -6.1789569e-03 0.0000000e+00 
0.0000000e+00 -6.1784643e-03 0.0000000e+00 
0.0000000e+00 -6.1770380e-03 0.0000000e+00 
0.0000000e+00 -6.1746775e-03 0.0000000e+00 
0.0000000e+00 -6.1713816e-03 0.0000000e+00 
0.0000000e+00 -6.1671501e-03 0.0000000e+00 
0.0000000e+00 -6.1619831e-03 0.0000000e+00 
0.0000000e+00 -6.1558797e-03 0.0000000e+00 
0.0000000e+00 -6.1488403e-03 0.0000000e+00 
0.0000000e+00 -6.1408645e-03 0.0000000e+00 
0.0000000e+00 -6.1319526e-03 0.0000000e+00 
0.0000000e+00 -6.1221048e-03 0.0000000e+00 
0.0000000e+00 -6.1113220e-03 0.0000000e+00 
0.0000000e+00 -6.0996036e-03 0.0000000e+00 
0.0000000e+00 -6.0869507e-03 0.0000000e+00 
0.0000000e+00 -6.0733641e-03 0.0000000e+00 
0.0000000e+00 -6.0588443e-03 0.0000000e+00 
0.0000000e+00 -6.0433922e-03 0.0000000e+00 
0.0000000e+00 -6.0270093e-03 0.0000000e+00 
0.0000000e+00 -6.0096961e-03 0.0000000e+00 
0.0000000e+00 -5.9914542e-03 0.0000000e+00 
0.0000000e+00 -5.9722844e-03 0.0000000e+00 
0.0000000e+00 -5.9521887e-03 0.0000000e+00 
0.0000000e+00 -5.9311683e-03 0.0000000e+00 
0.0000000e+00 -5.9092250e-03 0.0000000e+00 
0.0000000e+00 -5.8863605e-03 0.0000000e+00 
0.0000000e+00 -5.8625764e-03 0.0000000e+00 
0.0000000e+00 -5.8378754e-03 0.0000000e+00 
0.0000000e+00 -5.8122585e-03 0.0000000e+00 
0.0000000e+00 -5.7857283e-03 0.0000000e+00 
0.0000000e+00 -5.7582879e-03 0.0000000e+00 
0.0000000e+00 -5.7299384e-03 0.0000000e+00 
0.0000000e+00 -5.7006828e-03 0.0000000e+00 
0.0000000e+00 -5.6705233e-03 0.0000000e+00 
0.0000000e+00 -5.6394632e-03 0.0000000e+00 
0.0000000e+00 -5.6075049e-03 0.0000000e+00 
0.0000000e+00 -5.5746511e-03 0.0000000e+00 
0.0000000e+00 -5.5409051e-03 0.0000000e+00 
0.0000000e+00 -5.5062696e-03 0.0000000e+00 
0.0000000e+00 -5.4707476e-03 0.0000000e+00 
0.0000000e+00 -5.4343431e-03 0.0000000e+00 
0.0000000e+00 -5.3970586e-03 0.0000000e+00 
0.0000000e+00 -5.3588981e-03 0.0000000e+00 
0.0000000e+00 -5.3198645e-03 0.0000000e+00 
0.0000000e+00 -5.2799620e-03 0.0000000e+00 
0.0000000e+00 -5.2391943e-03 0.0000000e+00 
0.0000000e+00 -5.1975641e-03 0.0000000e+00 
0.0000000e+00 -5.1550767e-03 0.0000000e+00 
0.0000000e+00 -5.1117348e-03 0.0000000e+00 
0.0000000e+00 -5.0675436e-03 0.0000000e+00 
0.0000000e+00 -5.0225062e-03 0.0000000e+00 
0.0000000e+00 -4.9766274e-03 0.0000000e+00 
0.0000000e+00 -4.9299109e-03 0.0000000e+00 
0.0000000e+00 -4.8823617e-03 0.0000000e+00 
0.0000000e+00 -4.8339842e-03 0.0000000e+00 
0.0000000e+00 -4.7847824e-03 0.0000000e+00 
0.0000000e+00 -4.7347615e-03 0.0000000e+00 
0.0000000e+00 -4.6839258e-03 0.0000000e+00 
0.0000000e+00 -4.6322797e-03 0.0000000e+00 
0.0000000e+00 -4.5798286e-03 0.0000000e+00 
0.0000000e+00 -4.5265774e-03 0.0000000e+00 
0.0000000e+00 -4.4725309e-03 0.0000000e+00 
0.0000000e+00 -4.4176942e-03 0.0000000e+00 
0.0000000e+00 -4.3620723e-03 0.0000000e+00 
0.0000000e+00 -4.3056705e-03 0.0000000e+00 
0.0000000e+00 -4.2484938e-03 0.0000000e+00 
0.0000000e+00 -4.1905479e-03 0.0000000e+00 
0.0000000e+00 -4.1318382e-03 0.0000000e+00 
0.0000000e+00 -4.0723695e-03 0.0000000e+00 
0.0000000e+00 -4.0121484e-03 0.0000000e+00 
0.0000000e+00 -3.9511793e-03 0.0000000e+00 
0.0000000e+00 -3.8894687e-03 0.0000000e+00 
0.0000000e+00 -3.8270219e-03 0.0000000e+00 
0.0000000e+00 -3.7638450e-03 0.0000000e+00 
0.0000000e+00 -3.6999434e-03 0.0000000e+00 
0.0000000e+00 -3.6353231e-03 0.0000000e+00 
0.0000000e+00 -3.5699904e-03 0.0000000e+00 
0.0000000e+00 -3.5039508e-03 0.0000000e+00 
0.0000000e+00 -3.4372103e-03 0.0000000e+00 
0.0000000e+00 -3.3697756e-03 0.0000000e+00 
0.0000000e+00 -3.3016524e-03 0.0000000e+00 
0.0000000e+00 -3.2328470e-03 0.0000000e+00 
0.0000000e+00 -3.1633654e-03 0.0000000e+00 
0.0000000e+00 -3.0932145e-03 0.0000000e+00 
0.0000000e+00 -3.0224000e-03 0.0000000e+00 
0.0000000e+00 -2.9509286e-03 0.0000000e+00 
0.0000000e+00 -2.8788068e-03 0.0000000e+00 
0.0000000e+00 -2.8060407e-03 0.0000000e+00 
0.0000000e+00 -2.7326373e-03 0.0000000e+00 
0.0000000e+00 -2.6586028e-03 0.0000000e+00 
0.0000000e+00 -2.5839440e-03 0.0000000e+00 
0.0000000e+00 -2.5086675e-03 0.0000000e+00 
0.0000000e+00 -2.4327799e-03 0.0000000e+00 
0.0000000e+00 -2.3562878e-03 0.0000000e+00 
0.0000000e+00 -2.2791983e-03 0.0000000e+00 
0.0000000e+00 -2.2015178e-03 0.0000000e+00 
0.0000000e+00 -2.1232534e-03 0.0000000e+00 
0.0000000e+00 -2.0444116e-03 0.0000000e+00 
0.0000000e+00 -1.9649998e-03 0.0000000e+00 
0.0000000e+00 -1.8850244e-03 0.0000000e+00 
0.0000000e+00 -1.8044924e-03 0.0000000e+00 
0.0000000e+00 -1.7234110e-03 0.0000000e+00 
0.0000000e+00 -1.6417870e-03 0.0000000e+00 
0.0000000e+00 -1.5596275e-03 0.0000000e+00 
0.0000000e+00 -1.4769393e-03 0.0000000e+00 
0.0000000e+00 -1.3937297e-03 0.0000000e+00 
0.0000000e+00 -1.3100058e-03 0.0000000e+00 
0.0000000e+00 -1.2257744e-03 0.0000000e+00 
0.0000000e+00 -1.1410428e-03 0.0000000e+00 
0.0000000e+00 -1.0558181e-03 0.0000000e+00 
0.0000000e+00 -9.7010727e-04 0.0000000e+00 
0.0000000e+00 -8.8391773e-04 0.0000000e+00 
0.0000000e+00 -7.9725648e-04 0.0000000e+00 
0.0000000e+00 -7.1013079e-04 0.0000000e+00 
0.0000000e+00 -6.2254776e-04 0.0000000e+00 
0.0000000e+00 -5.3451612e-04 0.0000000e+00 
0.0000000e+00 -4.4606975e-04 0.0000000e+00 
0.0000000e+00 -3.5727449e-04 0.0000000e+00 
0.0000000e+00 -2.6820009e-04 0.0000000e+00 
0.0000000e+00 -1.7891637e-04 0.0000000e+00 
0.0000000e+00 -8.9493071e-05 0.0000000e+00 
CELL_DATA 250
FIELD FieldData 0
