# vtk DataFile Version 4.0
vtk output
ASCII
DATASET UNSTRUCTURED_GRID
POINTS 251 float
0.0000000e+00 0.0000000e+00 0.0000000e+00 
2.5000000e+01 0.0000000e+00 0.0000000e+00 
1.0000000e-01 0.0000000e+00 0.0000000e+00 
2.0000000e-01 0.0000000e+00 0.0000000e+00 
3.0000001e-01 0.0000000e+00 0.0000000e+00 
4.0000001e-01 0.0000000e+00 0.0000000e+00 
5.0000000e-01 0.0000000e+00 0.0000000e+00 
6.0000002e-01 0.0000000e+00 0.0000000e+00 
6.9999999e-01 0.0000000e+00 0.0000000e+00 
8.0000001e-01 0.0000000e+00 0.0000000e+00 
8.9999998e-01 0.0000000e+00 0.0000000e+00 
1.0000000e+00 0.0000000e+00 0.0000000e+00 
1.1000000e+00 0.0000000e+00 0.0000000e+00 
1.2000000e+00 0.0000000e+00 0.0000000e+00 
1.3000000e+00 0.0000000e+00 0.0000000e+00 
1.4000000e+00 0.0000000e+00 0.0000000e+00 
1.5000000e+00 0.0000000e+00 0.0000000e+00 
1.6000000e+00 0.0000000e+00 0.0000000e+00 
1.7000000e+00 0.0000000e+00 0.0000000e+00 
1.8000000e+00 0.0000000e+00 0.0000000e+00 
1.9000000e+00 0.0000000e+00 0.0000000e+00 
2.0000000e+00 0.0000000e+00 0.0000000e+00 
2.0999999e+00 0.0000000e+00 0.0000000e+00 
2.2000000e+00 0.0000000e+00 0.0000000e+00 
2.3000000e+00 0.0000000e+00 0.0000000e+00 
2.4000001e+00 0.0000000e+00 0.0000000e+00 
2.5000000e+00 0.0000000e+00 0.0000000e+00 
2.5999999e+00 0.0000000e+00 0.0000000e+00 
2.7000000e+00 0.0000000e+00 0.0000000e+00 
2.8000000e+00 0.0000000e+00 0.0000000e+00 
2.9000001e+00 0.0000000e+00 0.0000000e+00 
3.0000000e+00 0.0000000e+00 0.0000000e+00 
3.0999999e+00 0.0000000e+00 0.0000000e+00 
3.2000000e+00 0.0000000e+00 0.0000000e+00 
3.3000000e+00 0.0000000e+00 0.0000000e+00 
3.4000001e+00 0.0000000e+00 0.0000000e+00 
3.5000000e+00 0.0000000e+00 0.0000000e+00 
3.5999999e+00 0.0000000e+00 0.0000000e+00 
3.7000000e+00 0.0000000e+00 0.0000000e+00 
3.8000000e+00 0.0000000e+00 0.0000000e+00 
3.9000001e+00 0.0000000e+00 0.0000000e+00 
4.0000000e+00 0.0000000e+00 0.0000000e+00 
4.0999999e+00 0.0000000e+00 0.0000000e+00 
4.1999998e+00 0.0000000e+00 0.0000000e+00 
4.3000002e+00 0.0000000e+00 0.0000000e+00 
4.4000001e+00 0.0000000e+00 0.0000000e+00 
4.5000000e+00 0.0000000e+00 0.0000000e+00 
4.5999999e+00 0.0000000e+00 0.0000000e+00 
4.6999998e+00 0.0000000e+00 0.0000000e+00 
4.8000002e+00 0.0000000e+00 0.0000000e+00 
4.9000001e+00 0.0000000e+00 0.0000000e+00 
5.0000000e+00 0.0000000e+00 0.0000000e+00 
5.0999999e+00 0.0000000e+00 0.0000000e+00 
5.1999998e+00 0.0000000e+00 0.0000000e+00 
5.3000002e+00 0.0000000e+00 0.0000000e+00 
5.4000001e+00 0.0000000e+00 0.0000000e+00 
5.5000000e+00 0.0000000e+00 0.0000000e+00 
5.5999999e+00 0.0000000e+00 0.0000000e+00 
5.6999998e+00 0.0000000e+00 0.0000000e+00 
5.8000002e+00 0.0000000e+00 0.0000000e+00 
5.9000001e+00 0.0000000e+00 0.0000000e+00 
6.0000000e+00 0.0000000e+00 0.0000000e+00 
6.0999999e+00 0.0000000e+00 0.0000000e+00 
6.1999998e+00 0.0000000e+00 0.0000000e+00 
6.3000002e+00 0.0000000e+00 0.0000000e+00 
6.4000001e+00 0.0000000e+00 0.0000000e+00 
6.5000000e+00 0.0000000e+00 0.0000000e+00 
6.5999999e+00 0.0000000e+00 0.0000000e+00 
6.6999998e+00 0.0000000e+00 0.0000000e+00 
6.8000002e+00 0.0000000e+00 0.0000000e+00 
6.9000001e+00 0.0000000e+00 0.0000000e+00 
7.0000000e+00 0.0000000e+00 0.0000000e+00 
7.0999999e+00 0.0000000e+00 0.0000000e+00 
7.1999998e+00 0.0000000e+00 0.0000000e+00 
7.3000002e+00 0.0000000e+00 0.0000000e+00 
7.4000001e+00 0.0000000e+00 0.0000000e+00 
7.5000000e+00 0.0000000e+00 0.0000000e+00 
7.5999999e+00 0.0000000e+00 0.0000000e+00 
7.6999998e+00 0.0000000e+00 0.0000000e+00 
7.8000002e+00 0.0000000e+00 0.0000000e+00 
7.9000001e+00 0.0000000e+00 0.0000000e+00 
8.0000000e+00 0.0000000e+00 0.0000000e+00 
8.1000004e+00 0.0000000e+00 0.0000000e+00 
8.1999998e+00 0.0000000e+00 0.0000000e+00 
8.3000002e+00 0.0000000e+00 0.0000000e+00 
8.3999996e+00 0.0000000e+00 0.0000000e+00 
8.5000000e+00 0.0000000e+00 0.0000000e+00 
8.6000004e+00 0.0000000e+00 0.0000000e+00 
8.6999998e+00 0.0000000e+00 0.0000000e+00 
8.8000002e+00 0.0000000e+00 0.0000000e+00 
8.8999996e+00 0.0000000e+00 0.0000000e+00 
9.0000000e+00 0.0000000e+00 0.0000000e+00 
9.1000004e+00 0.0000000e+00 0.0000000e+00 
9.1999998e+00 0.0000000e+00 0.0000000e+00 
9.3000002e+00 0.0000000e+00 0.0000000e+00 
9.3999996e+00 0.0000000e+00 0.0000000e+00 
9.5000000e+00 0.0000000e+00 0.0000000e+00 
9.6000004e+00 0.0000000e+00 0.0000000e+00 
9.6999998e+00 0.0000000e+00 0.0000000e+00 
9.8000002e+00 0.0000000e+00 0.0000000e+00 
9.8999996e+00 0.0000000e+00 0.0000000e+00 
1.0000000e+01 0.0000000e+00 0.0000000e+00 
1.0100000e+01 0.0000000e+00 0.0000000e+00 
1.0200000e+01 0.0000000e+00 0.0000000e+00 
1.0300000e+01 0.0000000e+00 0.0000000e+00 
1.0400000e+01 0.0000000e+00 0.0000000e+00 
1.0500000e+01 0.0000000e+00 0.0000000e+00 
1.0600000e+01 0.0000000e+00 0.0000000e+00 
1.0700000e+01 0.0000000e+00 0.0000000e+00 
1.0800000e+01 0.0000000e+00 0.0000000e+00 
1.0900000e+01 0.0000000e+00 0.0000000e+00 
1.1000000e+01 0.0000000e+00 0.0000000e+00 
1.1100000e+01 0.0000000e+00 0.0000000e+00 
1.1200000e+01 0.0000000e+00 0.0000000e+00 
1.1300000e+01 0.0000000e+00 0.0000000e+00 
1.1400000e+01 0.0000000e+00 0.0000000e+00 
1.1500000e+01 0.0000000e+00 0.0000000e+00 
1.1600000e+01 0.0000000e+00 0.0000000e+00 
1.1700000e+01 0.0000000e+00 0.0000000e+00 
1.1800000e+01 0.0000000e+00 0.0000000e+00 
1.1900000e+01 0.0000000e+00 0.0000000e+00 
1.2000000e+01 0.0000000e+00 0.0000000e+00 
1.2100000e+01 0.0000000e+00 0.0000000e+00 
1.2200000e+01 0.0000000e+00 0.0000000e+00 
1.2300000e+01 0.0000000e+00 0.0000000e+00 
1.2400000e+01 0.0000000e+00 0.0000000e+00 
1.2500000e+01 0.0000000e+00 0.0000000e+00 
1.2600000e+01 0.0000000e+00 0.0000000e+00 
1.2700000e+01 0.0000000e+00 0.0000000e+00 
1.2800000e+01 0.0000000e+00 0.0000000e+00 
1.2900000e+01 0.0000000e+00 0.0000000e+00 
1.3000000e+01 0.0000000e+00 0.0000000e+00 
1.3100000e+01 0.0000000e+00 0.0000000e+00 
1.3200000e+01 0.0000000e+00 0.0000000e+00 
1.3300000e+01 0.0000000e+00 0.0000000e+00 
1.3400000e+01 0.0000000e+00 0.0000000e+00 
1.3500000e+01 0.0000000e+00 0.0000000e+00 
1.3600000e+01 0.0000000e+00 0.0000000e+00 
1.3700000e+01 0.0000000e+00 0.0000000e+00 
1.3800000e+01 0.0000000e+00 0.0000000e+00 
1.3900000e+01 0.0000000e+00 0.0000000e+00 
1.4000000e+01 0.0000000e+00 0.0000000e+00 
1.4100000e+01 0.0000000e+00 0.0000000e+00 
1.4200000e+01 0.0000000e+00 0.0000000e+00 
1.4300000e+01 0.0000000e+00 0.0000000e+00 
1.4400000e+01 0.0000000e+00 0.0000000e+00 
1.4500000e+01 0.0000000e+00 0.0000000e+00 
1.4600000e+01 0.0000000e+00 0.0000000e+00 
1.4700000e+01 0.0000000e+00 0.0000000e+00 
1.4800000e+01 0.0000000e+00 0.0000000e+00 
1.4900000e+01 0.0000000e+00 0.0000000e+00 
1.5000000e+01 0.0000000e+00 0.0000000e+00 
1.5100000e+01 0.0000000e+00 0.0000000e+00 
1.5200000e+01 0.0000000e+00 0.0000000e+00 
1.5300000e+01 0.0000000e+00 0.0000000e+00 
1.5400000e+01 0.0000000e+00 0.0000000e+00 
1.5500000e+01 0.0000000e+00 0.0000000e+00 
1.5600000e+01 0.0000000e+00 0.0000000e+00 
1.5700000e+01 0.0000000e+00 0.0000000e+00 
1.5800000e+01 0.0000000e+00 0.0000000e+00 
1.5900000e+01 0.0000000e+00 0.0000000e+00 
1.6000000e+01 0.0000000e+00 0.0000000e+00 
1.6100000e+01 0.0000000e+00 0.0000000e+00 
1.6200001e+01 0.0000000e+00 0.0000000e+00 
1.6299999e+01 0.0000000e+00 0.0000000e+00 
1.6400000e+01 0.0000000e+00 0.0000000e+00 
1.6500000e+01 0.0000000e+00 0.0000000e+00 
1.6600000e+01 0.0000000e+00 0.0000000e+00 
1.6700001e+01 0.0000000e+00 0.0000000e+00 
1.6799999e+01 0.0000000e+00 0.0000000e+00 
1.6900000e+01 0.0000000e+00 0.0000000e+00 
1.7000000e+01 0.0000000e+00 0.0000000e+00 
1.7100000e+01 0.0000000e+00 0.0000000e+00 
1.7200001e+01 0.0000000e+00 0.0000000e+00 
1.7299999e+01 0.0000000e+00 0.0000000e+00 
1.7400000e+01 0.0000000e+00 0.0000000e+00 
1.7500000e+01 0.0000000e+00 0.0000000e+00 
1.7600000e+01 0.0000000e+00 0.0000000e+00 
1.7700001e+01 0.0000000e+00 0.0000000e+00 
1.7799999e+01 0.0000000e+00 0.0000000e+00 
1.7900000e+01 0.0000000e+00 0.0000000e+00 
1.8000000e+01 0.0000000e+00 0.0000000e+00 
1.8100000e+01 0.0000000e+00 0.0000000e+00 
1.8200001e+01 0.0000000e+00 0.0000000e+00 
1.8299999e+01 0.0000000e+00 0.0000000e+00 
1.8400000e+01 0.0000000e+00 0.0000000e+00 
1.8500000e+01 0.0000000e+00 0.0000000e+00 
1.8600000e+01 0.0000000e+00 0.0000000e+00 
1.8700001e+01 0.0000000e+00 0.0000000e+00 
1.8799999e+01 0.0000000e+00 0.0000000e+00 
1.8900000e+01 0.0000000e+00 0.0000000e+00 
1.9000000e+01 0.0000000e+00 0.0000000e+00 
1.9100000e+01 0.0000000e+00 0.0000000e+00 
1.9200001e+01 0.0000000e+00 0.0000000e+00 
1.9299999e+01 0.0000000e+00 0.0000000e+00 
1.9400000e+01 0.0000000e+00 0.0000000e+00 
1.9500000e+01 0.0000000e+00 0.0000000e+00 
1.9600000e+01 0.0000000e+00 0.0000000e+00 
1.9700001e+01 0.0000000e+00 0.0000000e+00 
1.9799999e+01 0.0000000e+00 0.0000000e+00 
1.9900000e+01 0.0000000e+00 0.0000000e+00 
2.0000000e+01 0.0000000e+00 0.0000000e+00 
2.0100000e+01 0.0000000e+00 0.0000000e+00 
2.0200001e+01 0.0000000e+00 0.0000000e+00 
2.0299999e+01 0.0000000e+00 0.0000000e+00 
2.0400000e+01 0.0000000e+00 0.0000000e+00 
2.0500000e+01 0.0000000e+00 0.0000000e+00 
2.0600000e+01 0.0000000e+00 0.0000000e+00 
2.0700001e+01 0.0000000e+00 0.0000000e+00 
2.0799999e+01 0.0000000e+00 0.0000000e+00 
2.0900000e+01 0.0000000e+00 0.0000000e+00 
2.1000000e+01 0.0000000e+00 0.0000000e+00 
2.1100000e+01 0.0000000e+00 0.0000000e+00 
2.1200001e+01 0.0000000e+00 0.0000000e+00 
2.1299999e+01 0.0000000e+00 0.0000000e+00 
2.1400000e+01 0.0000000e+00 0.0000000e+00 
2.1500000e+01 0.0000000e+00 0.0000000e+00 
2.1600000e+01 0.0000000e+00 0.0000000e+00 
2.1700001e+01 0.0000000e+00 0.0000000e+00 
2.1799999e+01 0.0000000e+00 0.0000000e+00 
2.1900000e+01 0.0000000e+00 0.0000000e+00 
2.2000000e+01 0.0000000e+00 0.0000000e+00 
2.2100000e+01 0.0000000e+00 0.0000000e+00 
2.2200001e+01 0.0000000e+00 0.0000000e+00 
2.2299999e+01 0.0000000e+00 0.0000000e+00 
2.2400000e+01 0.0000000e+00 0.0000000e+00 
2.2500000e+01 0.0000000e+00 0.0000000e+00 
2.2600000e+01 0.0000000e+00 0.0000000e+00 
2.2700001e+01 0.0000000e+00 0.0000000e+00 
2.2799999e+01 0.0000000e+00 0.0000000e+00 
2.2900000e+01 0.0000000e+00 0.0000000e+00 
2.3000000e+01 0.0000000e+00 0.0000000e+00 
2.3100000e+01 0.0000000e+00 0.0000000e+00 
2.3200001e+01 0.0000000e+00 0.0000000e+00 
2.3299999e+01 0.0000000e+00 0.0000000e+00 
2.3400000e+01 0.0000000e+00 0.0000000e+00 
2.3500000e+01 0.0000000e+00 0.0000000e+00 
2.3600000e+01 0.0000000e+00 0.0000000e+00 
2.3700001e+01 0.0000000e+00 0.0000000e+00 
2.3799999e+01 0.0000000e+00 0.0000000e+00 
2.3900000e+01 0.0000000e+00 0.0000000e+00 
2.4000000e+01 0.0000000e+00 0.0000000e+00 
2.4100000e+01 0.0000000e+00 0.0000000e+00 
2.4200001e+01 0.0000000e+00 0.0000000e+00 
2.4299999e+01 0.0000000e+00 0.0000000e+00 
2.4400000e+01 0.0000000e+00 0.0000000e+00 
2.4500000e+01 0.0000000e+00 0.0000000e+00 
2.4600000e+01 0.0000000e+00 0.0000000e+00 
2.4700001e+01 0.0000000e+00 0.0000000e+00 
2.4799999e+01 0.0000000e+00 0.0000000e+00 
2.4900000e+01 0.0000000e+00 0.0000000e+00 

CELLS 250 750
2 0 2
2 2 3
2 3 4
2 4 5
2 5 6
2 6 7
2 7 8
2 8 9
2 9 10
2 10 11
2 11 12
2 12 13
2 13 14
2 14 15
2 15 16
2 16 17
2 17 18
2 18 19
2 19 20
2 20 21
2 21 22
2 22 23
2 23 24
2 24 25
2 25 26
2 26 27
2 27 28
2 28 29
2 29 30
2 30 31
2 31 32
2 32 33
2 33 34
2 34 35
2 35 36
2 36 37
2 37 38
2 38 39
2 39 40
2 40 41
2 41 42
2 42 43
2 43 44
2 44 45
2 45 46
2 46 47
2 47 48
2 48 49
2 49 50
2 50 51
2 51 52
2 52 53
2 53 54
2 54 55
2 55 56
2 56 57
2 57 58
2 58 59
2 59 60
2 60 61
2 61 62
2 62 63
2 63 64
2 64 65
2 65 66
2 66 67
2 67 68
2 68 69
2 69 70
2 70 71
2 71 72
2 72 73
2 73 74
2 74 75
2 75 76
2 76 77
2 77 78
2 78 79
2 79 80
2 80 81
2 81 82
2 82 83
2 83 84
2 84 85
2 85 86
2 86 87
2 87 88
2 88 89
2 89 90
2 90 91
2 91 92
2 92 93
2 93 94
2 94 95
2 95 96
2 96 97
2 97 98
2 98 99
2 99 100
2 100 101
2 101 102
2 102 103
2 103 104
2 104 105
2 105 106
2 106 107
2 107 108
2 108 109
2 109 110
2 110 111
2 111 112
2 112 113
2 113 114
2 114 115
2 115 116
2 116 117
2 117 118
2 118 119
2 119 120
2 120 121
2 121 122
2 122 123
2 123 124
2 124 125
2 125 126
2 126 127
2 127 128
2 128 129
2 129 130
2 130 131
2 131 132
2 132 133
2 133 134
2 134 135
2 135 136
2 136 137
2 137 138
2 138 139
2 139 140
2 140 141
2 141 142
2 142 143
2 143 144
2 144 145
2 145 146
2 146 147
2 147 148
2 148 149
2 149 150
2 150 151
2 151 152
2 152 153
2 153 154
2 154 155
2 155 156
2 156 157
2 157 158
2 158 159
2 159 160
2 160 161
2 161 162
2 162 163
2 163 164
2 164 165
2 165 166
2 166 167
2 167 168
2 168 169
2 169 170
2 170 171
2 171 172
2 172 173
2 173 174
2 174 175
2 175 176
2 176 177
2 177 178
2 178 179
2 179 180
2 180 181
2 181 182
2 182 183
2 183 184
2 184 185
2 185 186
2 186 187
2 187 188
2 188 189
2 189 190
2 190 191
2 191 192
2 192 193
2 193 194
2 194 195
2 195 196
2 196 197
2 197 198
2 198 199
2 199 200
2 200 201
2 201 202
2 202 203
2 203 204
2 204 205
2 205 206
2 206 207
2 207 208
2 208 209
2 209 210
2 210 211
2 211 212
2 212 213
2 213 214
2 214 215
2 215 216
2 216 217
2 217 218
2 218 219
2 219 220
2 220 221
2 221 222
2 222 223
2 223 224
2 224 225
2 225 226
2 226 227
2 227 228
2 228 229
2 229 230
2 230 231
2 231 232
2 232 233
2 233 234
2 234 235
2 235 236
2 236 237
2 237 238
2 238 239
2 239 240
2 240 241
2 241 242
2 242 243
2 243 244
2 244 245
2 245 246
2 246 247
2 247 248
2 248 249
2 249 250
2 250 1

CELL_TYPES 250
3
3
3
3
3
3
3
3
3
3
3
3
3
3
3
3
3
3
3
3
3
3
3
3
3
3
3
3
3
3
3
3
3
3
3
3
3
3
3
3
3
3
3
3
3
3
3
3
3
3
3
3
3
3
3
3
3
3
3
3
3
3
3
3
3
3
3
3
3
3
3
3
3
3
3
3
3
3
3
3
3
3
3
3
3
3
3
3
3
3
3
3
3
3
3
3
3
3
3
3
3
3
3
3
3
3
3
3
3
3
3
3
3
3
3
3
3
3
3
3
3
3
3
3
3
3
3
3
3
3
3
3
3
3
3
3
3
3
3
3
3
3
3
3
3
3
3
3
3
3
3
3
3
3
3
3
3
3
3
3
3
3
3
3
3
3
3
3
3
3
3
3
3
3
3
3
3
3
3
3
3
3
3
3
3
3
3
3
3
3
3
3
3
3
3
3
3
3
3
3
3
3
3
3
3
3
3
3
3
3
3
3
3
3
3
3
3
3
3
3
3
3
3
3
3
3
3
3
3
3
3
3
3
3
3
3
3
3
3
3
3
3
3
3
3
3
3
3
3
3
POINT_DATA 251
FIELD FieldData 1
DISPLACEMENT 3 251  float
0.0000000e+00 0.0000000e+00 0.0000000e+00 
0.0000000e+00 0.0000000e+00 0.0000000e+00 
0.0000000e+00 -3.7691763e-04 0.0000000e+00 
0.0000000e+00 -7.5379515e-04 0.0000000e+00 
0.0000000e+00 -1.1305924e-03 0.0000000e+00 
0.0000000e+00 -1.5072693e-03 0.0000000e+00 
0.0000000e+00 -1.8837856e-03 0.0000000e+00 
0.0000000e+00 -2.2601013e-03 0.0000000e+00 
0.0000000e+00 -2.6361758e-03 0.0000000e+00 
0.0000000e+00 -3.0119694e-03 0.0000000e+00 
0.0000000e+00 -3.3874416e-03 0.0000000e+00 
0.0000000e+00 -3.7625520e-03 0.0000000e+00 
0.0000000e+00 -4.1372604e-03 0.0000000e+00 
0.0000000e+00 -4.5115263e-03 0.0000000e+00 
0.0000000e+00 -4.8853094e-03 0.0000000e+00 
0.0000000e+00 -5.2585690e-03 0.0000000e+00 
0.0000000e+00 -5.6312648e-03 0.0000000e+00 
0.0000000e+00 -6.0033561e-03 0.0000000e+00 
0.0000000e+00 -6.3748020e-03 0.0000000e+00 
0.0000000e+00 -6.7455615e-03 0.0000000e+00 
0.0000000e+00 -7.1155946e-03 0.0000000e+00 
0.0000000e+00 -7.4848593e-03 0.0000000e+00 
0.0000000e+00 -7.8533152e-03 0.0000000e+00 
0.0000000e+00 -8.2209213e-03 0.0000000e+00 
0.0000000e+00 -8.5876361e-03 0.0000000e+00 
0.0000000e+00 -8.9534186e-03 0.0000000e+00 
0.0000000e+00 -9.3182260e-03 0.0000000e+00 
0.0000000e+00 -9.6820192e-03 0.0000000e+00 
0.0000000e+00 -1.0044754e-02 0.0000000e+00 
0.0000000e+00 -1.0406390e-02 0.0000000e+00 
0.0000000e+00 -1.0766885e-02 0.0000000e+00 
0.0000000e+00 -1.1126197e-02 0.0000000e+00 
0.0000000e+00 -1.1484283e-02 0.0000000e+00 
0.0000000e+00 -1.1841103e-02 0.0000000e+00 
0.0000000e+00 -1.2196611e-02 0.0000000e+00 
0.0000000e+00 -1.2550768e-02 0.0000000e+00 
0.0000000e+00 -1.2903527e-02 0.0000000e+00 
0.0000000e+00 -1.3254850e-02 0.0000000e+00 
0.0000000e+00 -1.3604690e-02 0.0000000e+00 
0.0000000e+00 -1.3953006e-02 0.0000000e+00 
0.0000000e+00 -1.4299753e-02 0.0000000e+00 
0.0000000e+00 -1.4644889e-02 0.0000000e+00 
0.0000000e+00 -1.4988369e-02 0.0000000e+00 
0.0000000e+00 -1.5330150e-02 0.0000000e+00 
0.0000000e+00 -1.5670186e-02 0.0000000e+00 
0.0000000e+00 -1.6008435e-02 0.0000000e+00 
0.0000000e+00 -1.6344851e-02 0.0000000e+00 
0.0000000e+00 -1.6679391e-02 0.0000000e+00 
0.0000000e+00 -1.7012008e-02 0.0000000e+00 
0.0000000e+00 -1.7342657e-02 0.0000000e+00 
0.0000000e+00 -1.7671293e-02 0.0000000e+00 
0.0000000e+00 -1.7997872e-02 0.0000000e+00 
0.0000000e+00 -1.8322347e-02 0.0000000e+00 
0.0000000e+00 -1.8644672e-02 0.0000000e+00 
0.0000000e+00 -1.8964801e-02 0.0000000e+00 
0.0000000e+00 -1.9282687e-02 0.0000000e+00 
0.0000000e+00 -1.9598285e-02 0.0000000e+00 
0.0000000e+00 -1.9911544e-02 0.0000000e+00 
0.0000000e+00 -2.0222424e-02 0.0000000e+00 
0.0000000e+00 -2.0530872e-02 0.0000000e+00 
0.0000000e+00 -2.0836841e-02 0.0000000e+00 
0.0000000e+00 -2.1140287e-02 0.0000000e+00 
0.0000000e+00 -2.1441156e-02 0.0000000e+00 
0.0000000e+00 -2.1739405e-02 0.0000000e+00 
0.0000000e+00 -2.2034982e-02 0.0000000e+00 
0.0000000e+00 -2.2327842e-02 0.0000000e+00 
0.0000000e+00 -2.2617932e-02 0.0000000e+00 
0.0000000e+00 -2.2905204e-02 0.0000000e+00 
0.0000000e+00 -2.3189610e-02 0.0000000e+00 
0.0000000e+00 -2.3471098e-02 0.0000000e+00 
0.0000000e+00 -2.3749618e-02 0.0000000e+00 
0.0000000e+00 -2.4025122e-02 0.0000000e+00 
0.0000000e+00 -2.4297558e-02 0.0000000e+00 
0.0000000e+00 -2.4566874e-02 0.0000000e+00 
0.0000000e+00 -2.4833020e-02 0.0000000e+00 
0.0000000e+00 -2.5095945e-02 0.0000000e+00 
0.0000000e+00 -2.5355596e-02 0.0000000e+00 
0.0000000e+00 -2.5611922e-02 0.0000000e+00 
0.0000000e+00 -2.5864869e-02 0.0000000e+00 
0.0000000e+00 -2.6114387e-02 0.0000000e+00 
0.0000000e+00 -2.6360422e-02 0.0000000e+00 
0.0000000e+00 -2.6602922e-02 0.0000000e+00 
0.0000000e+00 -2.6841832e-02 0.0000000e+00 
0.0000000e+00 -2.7077099e-02 0.0000000e+00 
0.0000000e+00 -2.7308669e-02 0.0000000e+00 
0.0000000e+00 -2.7536485e-02 0.0000000e+00 
0.0000000e+00 -2.7760498e-02 0.0000000e+00 
0.0000000e+00 -2.7980650e-02 0.0000000e+00 
0.0000000e+00 -2.8196884e-02 0.0000000e+00 
0.0000000e+00 -2.8409148e-02 0.0000000e+00 
0.0000000e+00 -2.8617386e-02 0.0000000e+00 
0.0000000e+00 -2.8821539e-02 0.0000000e+00 
0.0000000e+00 -2.9021554e-02 0.0000000e+00 
0.0000000e+00 -2.9217372e-02 0.0000000e+00 
0.0000000e+00 -2.9408935e-02 0.0000000e+00 
0.0000000e+00 -2.9596191e-02 0.0000000e+00 
0.0000000e+00 -2.9779077e-02 0.0000000e+00 
0.0000000e+00 -2.9957538e-02 0.0000000e+00 
0.0000000e+00 -3.0131515e-02 0.0000000e+00 
0.0000000e+00 -3.0300951e-02 0.0000000e+00 
0.0000000e+00 -3.0465784e-02 0.0000000e+00 
0.0000000e+00 -3.0625958e-02 0.0000000e+00 
0.0000000e+00 -3.0781412e-02 0.0000000e+00 
0.0000000e+00 -3.0932087e-02 0.0000000e+00 
0.0000000e+00 -3.1077923e-02 0.0000000e+00 
0.0000000e+00 -3.1218860e-02 0.0000000e+00 
0.0000000e+00 -3.1354837e-02 0.0000000e+00 
0.0000000e+00 -3.1485796e-02 0.0000000e+00 
0.0000000e+00 -3.1611670e-02 0.0000000e+00 
0.0000000e+00 -3.1732399e-02 0.0000000e+00 
0.0000000e+00 -3.1847924e-02 0.0000000e+00 
0.0000000e+00 -3.1958185e-02 0.0000000e+00 
0.0000000e+00 -3.2063112e-02 0.0000000e+00 
0.0000000e+00 -3.2162648e-02 0.0000000e+00 
0.0000000e+00 -3.2256730e-02 0.0000000e+00 
0.0000000e+00 -3.2345291e-02 0.0000000e+00 
0.0000000e+00 -3.2428268e-02 0.0000000e+00 
0.0000000e+00 -3.2505602e-02 0.0000000e+00 
0.0000000e+00 -3.2577224e-02 0.0000000e+00 
0.0000000e+00 -3.2643069e-02 0.0000000e+00 
0.0000000e+00 -3.2703076e-02 0.0000000e+00 
0.0000000e+00 -3.2757178e-02 0.0000000e+00 
0.0000000e+00 -3.2805309e-02 0.0000000e+00 
0.0000000e+00 -3.2847401e-02 0.0000000e+00 
0.0000000e+00 -3.2883395e-02 0.0000000e+00 
0.0000000e+00 -3.2913215e-02 0.0000000e+00 
0.0000000e+00 -3.2936800e-02 0.0000000e+00 
0.0000000e+00 -3.2954086e-02 0.0000000e+00 
0.0000000e+00 -3.2965001e-02 0.0000000e+00 
0.0000000e+00 -3.2969479e-02 0.0000000e+00 
0.0000000e+00 -3.2967448e-02 0.0000000e+00 
0.0000000e+00 -3.2958847e-02 0.0000000e+00 
0.0000000e+00 -3.2943599e-02 0.0000000e+00 
0.0000000e+00 -3.2921646e-02 0.0000000e+00 
0.0000000e+00 -3.2892916e-02 0.0000000e+00 
0.0000000e+00 -3.2857414e-02 0.0000000e+00 
0.0000000e+00 -3.2815207e-02 0.0000000e+00 
0.0000000e+00 -3.2766365e-02 0.0000000e+00 
0.0000000e+00 -3.2710966e-02 0.0000000e+00 
0.0000000e+00 -3.2649074e-02 0.0000000e+00 
0.0000000e+00 -3.2580767e-02 0.0000000e+00 
0.0000000e+00 -3.2506116e-02 0.0000000e+00 
0.0000000e+00 -3.2425191e-02 0.0000000e+00 
0.0000000e+00 -3.2338060e-02 0.0000000e+00 
0.0000000e+00 -3.2244798e-02 0.0000000e+00 
0.0000000e+00 -3.2145470e-02 0.0000000e+00 
0.0000000e+00 -3.2040149e-02 0.0000000e+00 
0.0000000e+00 -3.1928908e-02 0.0000000e+00 
0.0000000e+00 -3.1811811e-02 0.0000000e+00 
0.0000000e+00 -3.1688929e-02 0.0000000e+00 
0.0000000e+00 -3.1560328e-02 0.0000000e+00 
0.0000000e+00 -3.1426080e-02 0.0000000e+00 
0.0000000e+00 -3.1286251e-02 0.0000000e+00 
0.0000000e+00 -3.1140910e-02 0.0000000e+00 
0.0000000e+00 -3.0990126e-02 0.0000000e+00 
0.0000000e+00 -3.0833961e-02 0.0000000e+00 
0.0000000e+00 -3.0672487e-02 0.0000000e+00 
0.0000000e+00 -3.0505769e-02 0.0000000e+00 
0.0000000e+00 -3.0333873e-02 0.0000000e+00 
0.0000000e+00 -3.0156864e-02 0.0000000e+00 
0.0000000e+00 -2.9974809e-02 0.0000000e+00 
0.0000000e+00 -2.9787773e-02 0.0000000e+00 
0.0000000e+00 -2.9595822e-02 0.0000000e+00 
0.0000000e+00 -2.9399019e-02 0.0000000e+00 
0.0000000e+00 -2.9197430e-02 0.0000000e+00 
0.0000000e+00 -2.8991120e-02 0.0000000e+00 
0.0000000e+00 -2.8780151e-02 0.0000000e+00 
0.0000000e+00 -2.8564587e-02 0.0000000e+00 
0.0000000e+00 -2.8344493e-02 0.0000000e+00 
0.0000000e+00 -2.8119931e-02 0.0000000e+00 
0.0000000e+00 -2.7890963e-02 0.0000000e+00 
0.0000000e+00 -2.7657654e-02 0.0000000e+00 
0.0000000e+00 -2.7420064e-02 0.0000000e+00 
0.0000000e+00 -2.7178254e-02 0.0000000e+00 
0.0000000e+00 -2.6932290e-02 0.0000000e+00 
0.0000000e+00 -2.6682228e-02 0.0000000e+00 
0.0000000e+00 -2.6428133e-02 0.0000000e+00 
0.0000000e+00 -2.6170066e-02 0.0000000e+00 
0.0000000e+00 -2.5908085e-02 0.0000000e+00 
0.0000000e+00 -2.5642252e-02 0.0000000e+00 
0.0000000e+00 -2.5372624e-02 0.0000000e+00 
0.0000000e+00 -2.5099266e-02 0.0000000e+00 
0.0000000e+00 -2.4822235e-02 0.0000000e+00 
0.0000000e+00 -2.4541589e-02 0.0000000e+00 
0.0000000e+00 -2.4257388e-02 0.0000000e+00 
0.0000000e+00 -2.3969691e-02 0.0000000e+00 
0.0000000e+00 -2.3678558e-02 0.0000000e+00 
0.0000000e+00 -2.3384044e-02 0.0000000e+00 
0.0000000e+00 -2.3086207e-02 0.0000000e+00 
0.0000000e+00 -2.2785107e-02 0.0000000e+00 
0.0000000e+00 -2.2480801e-02 0.0000000e+00 
0.0000000e+00 -2.2173345e-02 0.0000000e+00 
0.0000000e+00 -2.1862796e-02 0.0000000e+00 
0.0000000e+00 -2.1549212e-02 0.0000000e+00 
0.0000000e+00 -2.1232648e-02 0.0000000e+00 
0.0000000e+00 -2.0913161e-02 0.0000000e+00 
0.0000000e+00 -2.0590808e-02 0.0000000e+00 
0.0000000e+00 -2.0265643e-02 0.0000000e+00 
0.0000000e+00 -1.9937722e-02 0.0000000e+00 
0.0000000e+00 -1.9607099e-02 0.0000000e+00 
0.0000000e+00 -1.9273832e-02 0.0000000e+00 
0.0000000e+00 -1.8937973e-02 0.0000000e+00 
0.0000000e+00 -1.8599579e-02 0.0000000e+00 
0.0000000e+00 -1.8258704e-02 0.0000000e+00 
0.0000000e+00 -1.7915400e-02 0.0000000e+00 
0.0000000e+00 -1.7569723e-02 0.0000000e+00 
0.0000000e+00 -1.7221725e-02 0.0000000e+00 
0.0000000e+00 -1.6871462e-02 0.0000000e+00 
0.0000000e+00 -1.6518986e-02 0.0000000e+00 
0.0000000e+00 -1.6164349e-02 0.0000000e+00 
0.0000000e+00 -1.5807606e-02 0.0000000e+00 
0.0000000e+00 -1.5448810e-02 0.0000000e+00 
0.0000000e+00 -1.5088012e-02 0.0000000e+00 
0.0000000e+00 -1.4725265e-02 0.0000000e+00 
0.0000000e+00 -1.4360622e-02 0.0000000e+00 
0.0000000e+00 -1.3994134e-02 0.0000000e+00 
0.0000000e+00 -1.3625854e-02 0.0000000e+00 
0.0000000e+00 -1.3255832e-02 0.0000000e+00 
0.0000000e+00 -1.2884121e-02 0.0000000e+00 
0.0000000e+00 -1.2510773e-02 0.0000000e+00 
0.0000000e+00 -1.2135838e-02 0.0000000e+00 
0.0000000e+00 -1.1759368e-02 0.0000000e+00 
0.0000000e+00 -1.1381413e-02 0.0000000e+00 
0.0000000e+00 -1.1002024e-02 0.0000000e+00 
0.0000000e+00 -1.0621252e-02 0.0000000e+00 
0.0000000e+00 -1.0239149e-02 0.0000000e+00 
0.0000000e+00 -9.8557631e-03 0.0000000e+00 
0.0000000e+00 -9.4711464e-03 0.0000000e+00 
0.0000000e+00 -9.0853479e-03 0.0000000e+00 
0.0000000e+00 -8.6984178e-03 0.0000000e+00 
0.0000000e+00 -8.3104065e-03 0.0000000e+00 
0.0000000e+00 -7.9213642e-03 0.0000000e+00 
0.0000000e+00 -7.5313402e-03 0.0000000e+00 
0.0000000e+00 -7.1403845e-03 0.0000000e+00 
0.0000000e+00 -6.7485459e-03 0.0000000e+00 
0.0000000e+00 -6.3558747e-03 0.0000000e+00 
0.0000000e+00 -5.9624203e-03 0.0000000e+00 
0.0000000e+00 -5.5682315e-03 0.0000000e+00 
0.0000000e+00 -5.1733581e-03 0.0000000e+00 
0.0000000e+00 -4.7778492e-03 0.0000000e+00 
0.0000000e+00 -4.3817535e-03 0.0000000e+00 
0.0000000e+00 -3.9851209e-03 0.0000000e+00 
0.0000000e+00 -3.5879994e-03 0.0000000e+00 
0.0000000e+00 -3.1904387e-03 0.0000000e+00 
0.0000000e+00 -2.7924876e-03 0.0000000e+00 
0.0000000e+00 -2.3941949e-03 0.0000000e+00 
0.0000000e+00 -1.9956094e-03 0.0000000e+00 
0.0000000e+00 -1.5967801e-03 0.0000000e+00 
0.0000000e+00 -1.1977558e-03 0.0000000e+00 
0.0000000e+00 -7.9858513e-04 0.0000000e+00 
0.0000000e+00 -3.9931692e-04 0.0000000e+00 
CELL_DATA 250
FIELD FieldData 0
