# vtk DataFile Version 4.0
vtk output
ASCII
DATASET UNSTRUCTURED_GRID
POINTS 661 float
0.0000000e+00 0.0000000e+00 0.0000000e+00 
0.0000000e+00 0.0000000e+00 4.0000000e+01 
5.0000000e+00 0.0000000e+00 0.0000000e+00 
5.0000000e+00 0.0000000e+00 4.0000000e+01 
5.0000000e+00 1.0000000e+00 0.0000000e+00 
5.0000000e+00 1.0000000e+00 4.0000000e+01 
0.0000000e+00 1.0000000e+00 0.0000000e+00 
0.0000000e+00 1.0000000e+00 4.0000000e+01 
5.0000000e+00 2.0000000e+00 0.0000000e+00 
5.0000000e+00 2.0000000e+00 4.0000000e+01 
3.0000000e+00 2.0000000e+00 0.0000000e+00 
3.0000000e+00 2.0000000e+00 4.0000000e+01 
0.0000000e+00 2.0000000e+00 0.0000000e+00 
0.0000000e+00 2.0000000e+00 4.0000000e+01 
1.5000000e+00 3.0000000e+00 0.0000000e+00 
1.5000000e+00 3.0000000e+00 4.0000000e+01 
7.5000000e-01 3.0000000e+00 0.0000000e+00 
7.5000000e-01 3.0000000e+00 4.0000000e+01 
0.0000000e+00 3.0000000e+00 0.0000000e+00 
0.0000000e+00 3.0000000e+00 4.0000000e+01 
7.5000000e-01 3.0000000e+00 5.0000000e-01 
7.5000000e-01 3.0000000e+00 1.0000000e+00 
7.5000000e-01 3.0000000e+00 1.5000000e+00 
7.5000000e-01 3.0000000e+00 2.0000000e+00 
7.5000000e-01 3.0000000e+00 2.5000000e+00 
7.5000000e-01 3.0000000e+00 3.0000000e+00 
7.5000000e-01 3.0000000e+00 3.5000000e+00 
7.5000000e-01 3.0000000e+00 4.0000000e+00 
7.5000000e-01 3.0000000e+00 4.5000000e+00 
7.5000000e-01 3.0000000e+00 5.0000000e+00 
7.5000000e-01 3.0000000e+00 5.5000000e+00 
7.5000000e-01 3.0000000e+00 6.0000000e+00 
7.5000000e-01 3.0000000e+00 6.5000000e+00 
7.5000000e-01 3.0000000e+00 7.0000000e+00 
7.5000000e-01 3.0000000e+00 7.5000000e+00 
7.5000000e-01 3.0000000e+00 8.0000000e+00 
7.5000000e-01 3.0000000e+00 8.5000000e+00 
7.5000000e-01 3.0000000e+00 9.0000000e+00 
7.5000000e-01 3.0000000e+00 9.5000000e+00 
7.5000000e-01 3.0000000e+00 1.0000000e+01 
7.5000000e-01 3.0000000e+00 1.0500000e+01 
7.5000000e-01 3.0000000e+00 1.1000000e+01 
7.5000000e-01 3.0000000e+00 1.1500000e+01 
7.5000000e-01 3.0000000e+00 1.2000000e+01 
7.5000000e-01 3.0000000e+00 1.2500000e+01 
7.5000000e-01 3.0000000e+00 1.3000000e+01 
7.5000000e-01 3.0000000e+00 1.3500000e+01 
7.5000000e-01 3.0000000e+00 1.4000000e+01 
7.5000000e-01 3.0000000e+00 1.4500000e+01 
7.5000000e-01 3.0000000e+00 1.5000000e+01 
7.5000000e-01 3.0000000e+00 1.5500000e+01 
7.5000000e-01 3.0000000e+00 1.6000000e+01 
7.5000000e-01 3.0000000e+00 1.6500000e+01 
7.5000000e-01 3.0000000e+00 1.7000000e+01 
7.5000000e-01 3.0000000e+00 1.7500000e+01 
7.5000000e-01 3.0000000e+00 1.8000000e+01 
7.5000000e-01 3.0000000e+00 1.8500000e+01 
7.5000000e-01 3.0000000e+00 1.9000000e+01 
7.5000000e-01 3.0000000e+00 1.9500000e+01 
7.5000000e-01 3.0000000e+00 2.0000000e+01 
7.5000000e-01 3.0000000e+00 2.0500000e+01 
7.5000000e-01 3.0000000e+00 2.1000000e+01 
7.5000000e-01 3.0000000e+00 2.1500000e+01 
7.5000000e-01 3.0000000e+00 2.2000000e+01 
7.5000000e-01 3.0000000e+00 2.2500000e+01 
7.5000000e-01 3.0000000e+00 2.3000000e+01 
7.5000000e-01 3.0000000e+00 2.3500000e+01 
7.5000000e-01 3.0000000e+00 2.4000000e+01 
7.5000000e-01 3.0000000e+00 2.4500000e+01 
7.5000000e-01 3.0000000e+00 2.5000000e+01 
7.5000000e-01 3.0000000e+00 2.5500000e+01 
7.5000000e-01 3.0000000e+00 2.6000000e+01 
7.5000000e-01 3.0000000e+00 2.6500000e+01 
7.5000000e-01 3.0000000e+00 2.7000000e+01 
7.5000000e-01 3.0000000e+00 2.7500000e+01 
7.5000000e-01 3.0000000e+00 2.8000000e+01 
7.5000000e-01 3.0000000e+00 2.8500000e+01 
7.5000000e-01 3.0000000e+00 2.9000000e+01 
7.5000000e-01 3.0000000e+00 2.9500000e+01 
7.5000000e-01 3.0000000e+00 3.0000000e+01 
7.5000000e-01 3.0000000e+00 3.0500000e+01 
7.5000000e-01 3.0000000e+00 3.1000000e+01 
7.5000000e-01 3.0000000e+00 3.1500000e+01 
7.5000000e-01 3.0000000e+00 3.2000000e+01 
7.5000000e-01 3.0000000e+00 3.2500000e+01 
7.5000000e-01 3.0000000e+00 3.3000000e+01 
7.5000000e-01 3.0000000e+00 3.3500000e+01 
7.5000000e-01 3.0000000e+00 3.4000000e+01 
7.5000000e-01 3.0000000e+00 3.4500000e+01 
7.5000000e-01 3.0000000e+00 3.5000000e+01 
7.5000000e-01 3.0000000e+00 3.5500000e+01 
7.5000000e-01 3.0000000e+00 3.6000000e+01 
7.5000000e-01 3.0000000e+00 3.6500000e+01 
7.5000000e-01 3.0000000e+00 3.7000000e+01 
7.5000000e-01 3.0000000e+00 3.7500000e+01 
7.5000000e-01 3.0000000e+00 3.8000000e+01 
7.5000000e-01 3.0000000e+00 3.8500000e+01 
7.5000000e-01 3.0000000e+00 3.9000000e+01 
7.5000000e-01 3.0000000e+00 3.9500000e+01 
7.5000000e-01 3.0000000e+00 4.0500000e+01 
7.5000000e-01 3.0000000e+00 4.1000000e+01 
7.5000000e-01 3.0000000e+00 4.1500000e+01 
7.5000000e-01 3.0000000e+00 4.2000000e+01 
7.5000000e-01 3.0000000e+00 4.2500000e+01 
7.5000000e-01 3.0000000e+00 4.3000000e+01 
7.5000000e-01 3.0000000e+00 4.3500000e+01 
7.5000000e-01 3.0000000e+00 4.4000000e+01 
7.5000000e-01 3.0000000e+00 4.4500000e+01 
7.5000000e-01 3.0000000e+00 4.5000000e+01 
7.5000000e-01 3.0000000e+00 4.5500000e+01 
7.5000000e-01 3.0000000e+00 4.6000000e+01 
7.5000000e-01 3.0000000e+00 4.6500000e+01 
7.5000000e-01 3.0000000e+00 4.7000000e+01 
7.5000000e-01 3.0000000e+00 4.7500000e+01 
7.5000000e-01 3.0000000e+00 4.8000000e+01 
7.5000000e-01 3.0000000e+00 4.8500000e+01 
7.5000000e-01 3.0000000e+00 4.9000000e+01 
7.5000000e-01 3.0000000e+00 4.9500000e+01 
7.5000000e-01 3.0000000e+00 5.0000000e+01 
7.5000000e-01 3.0250001e+00 0.0000000e+00 
7.5000000e-01 3.0250001e+00 5.0000000e-01 
7.5000000e-01 3.0250001e+00 1.0000000e+00 
7.5000000e-01 3.0250001e+00 1.5000000e+00 
7.5000000e-01 3.0250001e+00 2.0000000e+00 
7.5000000e-01 3.0250001e+00 2.5000000e+00 
7.5000000e-01 3.0250001e+00 3.0000000e+00 
7.5000000e-01 3.0250001e+00 3.5000000e+00 
7.5000000e-01 3.0250001e+00 4.0000000e+00 
7.5000000e-01 3.0250001e+00 4.5000000e+00 
7.5000000e-01 3.0250001e+00 5.0000000e+00 
7.5000000e-01 3.0250001e+00 5.5000000e+00 
7.5000000e-01 3.0250001e+00 6.0000000e+00 
7.5000000e-01 3.0250001e+00 6.5000000e+00 
7.5000000e-01 3.0250001e+00 7.0000000e+00 
7.5000000e-01 3.0250001e+00 7.5000000e+00 
7.5000000e-01 3.0250001e+00 8.0000000e+00 
7.5000000e-01 3.0250001e+00 8.5000000e+00 
7.5000000e-01 3.0250001e+00 9.0000000e+00 
7.5000000e-01 3.0250001e+00 9.5000000e+00 
7.5000000e-01 3.0250001e+00 1.0000000e+01 
7.5000000e-01 3.0250001e+00 1.0500000e+01 
7.5000000e-01 3.0250001e+00 1.1000000e+01 
7.5000000e-01 3.0250001e+00 1.1500000e+01 
7.5000000e-01 3.0250001e+00 1.2000000e+01 
7.5000000e-01 3.0250001e+00 1.2500000e+01 
7.5000000e-01 3.0250001e+00 1.3000000e+01 
7.5000000e-01 3.0250001e+00 1.3500000e+01 
7.5000000e-01 3.0250001e+00 1.4000000e+01 
7.5000000e-01 3.0250001e+00 1.4500000e+01 
7.5000000e-01 3.0250001e+00 1.5000000e+01 
7.5000000e-01 3.0250001e+00 1.5500000e+01 
7.5000000e-01 3.0250001e+00 1.6000000e+01 
7.5000000e-01 3.0250001e+00 1.6500000e+01 
7.5000000e-01 3.0250001e+00 1.7000000e+01 
7.5000000e-01 3.0250001e+00 1.7500000e+01 
7.5000000e-01 3.0250001e+00 1.8000000e+01 
7.5000000e-01 3.0250001e+00 1.8500000e+01 
7.5000000e-01 3.0250001e+00 1.9000000e+01 
7.5000000e-01 3.0250001e+00 1.9500000e+01 
7.5000000e-01 3.0250001e+00 2.0000000e+01 
7.5000000e-01 3.0250001e+00 2.0500000e+01 
7.5000000e-01 3.0250001e+00 2.1000000e+01 
7.5000000e-01 3.0250001e+00 2.1500000e+01 
7.5000000e-01 3.0250001e+00 2.2000000e+01 
7.5000000e-01 3.0250001e+00 2.2500000e+01 
7.5000000e-01 3.0250001e+00 2.3000000e+01 
7.5000000e-01 3.0250001e+00 2.3500000e+01 
7.5000000e-01 3.0250001e+00 2.4000000e+01 
7.5000000e-01 3.0250001e+00 2.4500000e+01 
7.5000000e-01 3.0250001e+00 2.5000000e+01 
7.5000000e-01 3.0250001e+00 2.5500000e+01 
7.5000000e-01 3.0250001e+00 2.6000000e+01 
7.5000000e-01 3.0250001e+00 2.6500000e+01 
7.5000000e-01 3.0250001e+00 2.7000000e+01 
7.5000000e-01 3.0250001e+00 2.7500000e+01 
7.5000000e-01 3.0250001e+00 2.8000000e+01 
7.5000000e-01 3.0250001e+00 2.8500000e+01 
7.5000000e-01 3.0250001e+00 2.9000000e+01 
7.5000000e-01 3.0250001e+00 2.9500000e+01 
7.5000000e-01 3.0250001e+00 3.0000000e+01 
7.5000000e-01 3.0250001e+00 3.0500000e+01 
7.5000000e-01 3.0250001e+00 3.1000000e+01 
7.5000000e-01 3.0250001e+00 3.1500000e+01 
7.5000000e-01 3.0250001e+00 3.2000000e+01 
7.5000000e-01 3.0250001e+00 3.2500000e+01 
7.5000000e-01 3.0250001e+00 3.3000000e+01 
7.5000000e-01 3.0250001e+00 3.3500000e+01 
7.5000000e-01 3.0250001e+00 3.4000000e+01 
7.5000000e-01 3.0250001e+00 3.4500000e+01 
7.5000000e-01 3.0250001e+00 3.5000000e+01 
7.5000000e-01 3.0250001e+00 3.5500000e+01 
7.5000000e-01 3.0250001e+00 3.6000000e+01 
7.5000000e-01 3.0250001e+00 3.6500000e+01 
7.5000000e-01 3.0250001e+00 3.7000000e+01 
7.5000000e-01 3.0250001e+00 3.7500000e+01 
7.5000000e-01 3.0250001e+00 3.8000000e+01 
7.5000000e-01 3.0250001e+00 3.8500000e+01 
7.5000000e-01 3.0250001e+00 3.9000000e+01 
7.5000000e-01 3.0250001e+00 3.9500000e+01 
7.5000000e-01 3.0250001e+00 4.0000000e+01 
7.5000000e-01 3.0250001e+00 4.0500000e+01 
7.5000000e-01 3.0250001e+00 4.1000000e+01 
7.5000000e-01 3.0250001e+00 4.1500000e+01 
7.5000000e-01 3.0250001e+00 4.2000000e+01 
7.5000000e-01 3.0250001e+00 4.2500000e+01 
7.5000000e-01 3.0250001e+00 4.3000000e+01 
7.5000000e-01 3.0250001e+00 4.3500000e+01 
7.5000000e-01 3.0250001e+00 4.4000000e+01 
7.5000000e-01 3.0250001e+00 4.4500000e+01 
7.5000000e-01 3.0250001e+00 4.5000000e+01 
7.5000000e-01 3.0250001e+00 4.5500000e+01 
7.5000000e-01 3.0250001e+00 4.6000000e+01 
7.5000000e-01 3.0250001e+00 4.6500000e+01 
7.5000000e-01 3.0250001e+00 4.7000000e+01 
7.5000000e-01 3.0250001e+00 4.7500000e+01 
7.5000000e-01 3.0250001e+00 4.8000000e+01 
7.5000000e-01 3.0250001e+00 4.8500000e+01 
7.5000000e-01 3.0250001e+00 4.9000000e+01 
7.5000000e-01 3.0250001e+00 4.9500000e+01 
7.5000000e-01 3.0250001e+00 5.0000000e+01 
3.0000000e+00 2.0000000e+00 3.6000000e+01 
8.0487806e-01 3.0000000e+00 3.6000000e+01 
0.0000000e+00 0.0000000e+00 2.0000000e+00 
0.0000000e+00 0.0000000e+00 4.0000000e+00 
0.0000000e+00 0.0000000e+00 6.0000000e+00 
0.0000000e+00 0.0000000e+00 8.0000000e+00 
0.0000000e+00 0.0000000e+00 1.0000000e+01 
0.0000000e+00 0.0000000e+00 1.2000000e+01 
0.0000000e+00 0.0000000e+00 1.4000000e+01 
0.0000000e+00 0.0000000e+00 1.6000000e+01 
[...]
POINT_DATA 661
FIELD FieldData 3
DISPLACEMENT 3 661  float
0.0000000e+00 0.0000000e+00 0.0000000e+00 
0.0000000e+00 0.0000000e+00 0.0000000e+00 
0.0000000e+00 0.0000000e+00 0.0000000e+00 
0.0000000e+00 0.0000000e+00 0.0000000e+00 
6.3246880e-06 -4.9693731e-06 8.4152117e-07 
6.1154860e-05 -1.7460030e-05 1.7924354e-07 
0.0000000e+00 -1.5974765e-05 0.0000000e+00 
0.0000000e+00 -1.2204942e-03 0.0000000e+00 
7.9143765e-06 -6.6891430e-06 -4.0891200e-06 
2.6347010e-05 1.7525777e-05 1.1166661e-05 
2.0137566e-06 -1.3189783e-05 -1.5119756e-05 
3.1357533e-05 -2.9724755e-04 1.9820356e-04 
0.0000000e+00 -2.7987489e-05 0.0000000e+00 
0.0000000e+00 -3.0583176e-03 0.0000000e+00 
-1.4226293e-05 -3.2962627e-05 -6.2077277e-05 
-1.1190969e-03 -3.3436676e-03 1.1706456e-03 
-2.1254964e-05 -4.3899286e-07 -5.0567192e-05 
-6.7511667e-04 -1.4774194e-02 2.6176912e-03 
0.0000000e+00 -4.2386342e-05 0.0000000e+00 
0.0000000e+00 -6.3605183e-03 0.0000000e+00 
-1.3209876e-05 4.7984649e-06 -4.6187204e-05 
-7.8067824e-06 1.7066386e-05 -3.8806538e-05 
-4.1160442e-06 3.0609281e-05 -2.8806311e-05 
2.4898520e-06 4.1336967e-05 -1.3444684e-05 
6.8442205e-06 4.6072244e-05 2.8999013e-06 
1.2384147e-05 4.2356307e-05 1.7357152e-05 
1.0508385e-05 3.0488765e-05 2.7524502e-05 
8.8950010e-06 1.2282690e-05 3.1883774e-05 
7.5907178e-06 -1.0015119e-05 3.1374137e-05 
9.8790051e-06 -3.3825399e-05 2.9836165e-05 
1.3844949e-05 -5.6628141e-05 3.2807049e-05 
1.3100428e-05 -7.5639502e-05 3.7220383e-05 
3.2167779e-06 -8.8401590e-05 3.8181955e-05 
-7.9595457e-06 -9.3711045e-05 3.1925490e-05 
-1.2830910e-05 -9.0926384e-05 2.3439570e-05 
-1.5252119e-05 -8.1275793e-05 8.5011125e-06 
-1.8356950e-05 -6.5103035e-05 -1.1092030e-05 
-2.0741072e-05 -4.5883029e-05 -2.3451388e-05 
-2.0592050e-05 -2.5706966e-05 -2.7529059e-05 
-1.9548746e-05 -5.7989114e-06 -2.4984407e-05 
-1.3520670e-05 1.2615042e-05 -1.9249674e-05 
-8.8598663e-06 2.9148028e-05 -1.4700517e-05 
-2.8633865e-06 4.3407847e-05 -1.9547990e-05 
7.4502291e-06 5.5735549e-05 -2.4197803e-05 
1.8050212e-05 6.6205685e-05 -2.1419930e-05 
2.6553535e-05 7.5594027e-05 -1.3883883e-05 
3.2831020e-05 8.5063155e-05 -7.3514648e-06 
3.7802078e-05 9.5745789e-05 1.5680542e-06 
4.1961899e-05 1.0739988e-04 6.4957080e-06 
4.2696829e-05 1.1431817e-04 1.4684332e-05 
3.5935813e-05 1.0546822e-04 3.2276239e-05 
2.0947713e-05 5.2903895e-05 5.1465369e-05 
-2.3180528e-05 -8.4170657e-05 8.9005400e-05 
-3.8598173e-05 -3.4798085e-04 1.2268221e-04 
-6.6654953e-05 -8.0334203e-04 1.6825538e-04 
-1.2659247e-04 -1.4959669e-03 1.1015063e-04 
-2.8227488e-04 -2.4466596e-03 1.8663026e-04 
-2.9450897e-04 -3.4741657e-03 1.6278688e-04 
-1.8872735e-04 -4.2661363e-03 9.6970485e-05 
-1.6034995e-04 -4.2563048e-03 1.0681709e-04 
-2.8962470e-04 -4.0277713e-03 3.6235866e-05 
-3.5347004e-04 -3.9594849e-03 1.8632492e-05 
-2.3913286e-04 -4.1664252e-03 -1.7769780e-05 
-8.0175101e-05 -4.1542528e-03 -6.1390798e-05 
-1.0034793e-04 -3.4408467e-03 -1.5558791e-04 
-1.8739412e-04 -2.4014290e-03 -1.8003651e-04 
-1.7790131e-04 -1.4951121e-03 -1.7437956e-04 
-5.1269304e-05 -8.0465578e-04 -1.1377480e-04 
-1.3007296e-05 -3.6540101e-04 -1.4127699e-04 
2.0685868e-06 -1.1444536e-04 -1.0317633e-04 
3.2635185e-06 7.9791143e-06 -7.3694951e-05 
1.2272310e-05 5.2778600e-05 -4.4591194e-05 
7.8160647e-06 5.2962110e-05 -2.1996952e-05 
1.8031840e-06 3.3656375e-05 -7.7023406e-06 
-7.6999286e-06 1.1186287e-05 -3.8300418e-06 
-1.7567932e-05 -7.5126213e-06 -7.6437509e-06 
-1.8591372e-05 -1.7757033e-05 -1.0785760e-05 
-1.6981421e-05 -2.1697268e-05 -1.3404848e-05 
-1.8616884e-05 -2.2027787e-05 -1.4225140e-05 
-2.0057045e-05 -1.9611969e-05 -1.3667755e-05 
-1.6159172e-05 -1.4249322e-05 -1.6617350e-05 
-1.2481379e-05 -6.0332632e-06 -2.1777816e-05 
-6.7484973e-07 5.5971968e-06 -3.4319903e-05 
1.3931383e-05 2.1558108e-05 -4.2466181e-05 
3.0716197e-05 4.3326429e-05 -3.3906639e-05 
4.1266419e-05 7.1419432e-05 -1.8851790e-05 
4.8536698e-05 1.0734546e-04 -6.1001938e-06 
5.7297944e-05 1.5149011e-04 1.3163707e-05 
6.3438078e-05 2.0296937e-04 3.2795615e-05 
6.4770567e-05 2.5589016e-04 6.0259186e-05 
3.6541936e-05 2.9884596e-04 1.1507313e-04 
1.6195014e-05 3.0074845e-04 1.7368411e-04 
-3.8012942e-05 2.0361572e-04 2.3130403e-04 
-5.4189233e-05 -7.8902791e-05 2.9643229e-04 
-1.3976727e-04 -6.8504631e-04 4.3782283e-04 
-3.1268230e-04 -1.8356279e-03 7.1924023e-04 
-4.2133621e-04 -3.7120022e-03 9.7783876e-04 
-3.4849986e-04 -6.4287982e-03 1.0219081e-03 
-1.5216475e-04 -9.9727744e-03 3.1346438e-04 
0.0000000e+00 -2.0356992e-02 0.0000000e+00 
0.0000000e+00 -2.5836876e-02 0.0000000e+00 
0.0000000e+00 -3.0230116e-02 0.0000000e+00 
0.0000000e+00 -3.2511104e-02 0.0000000e+00 
0.0000000e+00 -3.2109119e-02 0.0000000e+00 
0.0000000e+00 -2.9544845e-02 0.0000000e+00 
0.0000000e+00 -2.5478091e-02 0.0000000e+00 
0.0000000e+00 -2.0525213e-02 0.0000000e+00 
0.0000000e+00 -1.5236286e-02 0.0000000e+00 
0.0000000e+00 -1.0073794e-02 0.0000000e+00 
0.0000000e+00 -5.3950860e-03 0.0000000e+00 
0.0000000e+00 -1.4421365e-03 0.0000000e+00 
0.0000000e+00 1.6590803e-03 0.0000000e+00 
0.0000000e+00 3.8900909e-03 0.0000000e+00 
0.0000000e+00 5.3241984e-03 0.0000000e+00 
0.0000000e+00 6.1044917e-03 0.0000000e+00 
0.0000000e+00 6.4158509e-03 0.0000000e+00 
0.0000000e+00 6.4529460e-03 0.0000000e+00 
0.0000000e+00 6.3888510e-03 0.0000000e+00 
0.0000000e+00 6.3496474e-03 0.0000000e+00 
0.0000000e+00 -1.9511619e-07 0.0000000e+00 
0.0000000e+00 4.8978122e-06 0.0000000e+00 
0.0000000e+00 1.6974225e-05 0.0000000e+00 
0.0000000e+00 3.0563886e-05 0.0000000e+00 
0.0000000e+00 4.1310162e-05 0.0000000e+00 
0.0000000e+00 4.5939247e-05 0.0000000e+00 
0.0000000e+00 4.2294476e-05 0.0000000e+00 
0.0000000e+00 3.0482564e-05 0.0000000e+00 
0.0000000e+00 1.2268953e-05 0.0000000e+00 
0.0000000e+00 -1.0015295e-05 0.0000000e+00 
0.0000000e+00 -3.3846169e-05 0.0000000e+00 
0.0000000e+00 -5.6624849e-05 0.0000000e+00 
0.0000000e+00 -7.5601871e-05 0.0000000e+00 
0.0000000e+00 -8.8392655e-05 0.0000000e+00 
0.0000000e+00 -9.3647228e-05 0.0000000e+00 
0.0000000e+00 -9.0974158e-05 0.0000000e+00 
0.0000000e+00 -8.1115621e-05 0.0000000e+00 
0.0000000e+00 -6.5173619e-05 0.0000000e+00 
0.0000000e+00 -4.5954981e-05 0.0000000e+00 
0.0000000e+00 -2.5718020e-05 0.0000000e+00 
0.0000000e+00 -5.8402602e-06 0.0000000e+00 
0.0000000e+00 1.2612910e-05 0.0000000e+00 
0.0000000e+00 2.9123812e-05 0.0000000e+00 
0.0000000e+00 4.3433312e-05 0.0000000e+00 
0.0000000e+00 5.5714696e-05 0.0000000e+00 
0.0000000e+00 6.6203116e-05 0.0000000e+00 
0.0000000e+00 7.5614327e-05 0.0000000e+00 
0.0000000e+00 8.5132444e-05 0.0000000e+00 
0.0000000e+00 9.5989883e-05 0.0000000e+00 
0.0000000e+00 1.0770021e-04 0.0000000e+00 
0.0000000e+00 1.1527405e-04 0.0000000e+00 
0.0000000e+00 1.0617176e-04 0.0000000e+00 
0.0000000e+00 5.3078518e-05 0.0000000e+00 
0.0000000e+00 -8.2959566e-05 0.0000000e+00 
0.0000000e+00 -3.4862984e-04 0.0000000e+00 
0.0000000e+00 -8.0491096e-04 0.0000000e+00 
0.0000000e+00 -1.5056758e-03 0.0000000e+00 
0.0000000e+00 -2.4546019e-03 0.0000000e+00 
0.0000000e+00 -3.5073746e-03 0.0000000e+00 
0.0000000e+00 -4.2910697e-03 0.0000000e+00 
0.0000000e+00 -4.2878990e-03 0.0000000e+00 
0.0000000e+00 -4.0419777e-03 0.0000000e+00 
0.0000000e+00 -3.9901268e-03 0.0000000e+00 
0.0000000e+00 -4.1860952e-03 0.0000000e+00 
0.0000000e+00 -4.1883318e-03 0.0000000e+00 
0.0000000e+00 -3.4587171e-03 0.0000000e+00 
0.0000000e+00 -2.4196771e-03 0.0000000e+00 
0.0000000e+00 -1.4973200e-03 0.0000000e+00 
0.0000000e+00 -8.0885342e-04 0.0000000e+00 
0.0000000e+00 -3.6521911e-04 0.0000000e+00 
0.0000000e+00 -1.1365269e-04 0.0000000e+00 
0.0000000e+00 8.9748928e-06 0.0000000e+00 
0.0000000e+00 5.3191143e-05 0.0000000e+00 
0.0000000e+00 5.3404572e-05 0.0000000e+00 
0.0000000e+00 3.4146495e-05 0.0000000e+00 
0.0000000e+00 1.1310735e-05 0.0000000e+00 
0.0000000e+00 -7.1856293e-06 0.0000000e+00 
0.0000000e+00 -1.7740800e-05 0.0000000e+00 
0.0000000e+00 -2.1817616e-05 0.0000000e+00 
0.0000000e+00 -2.2083757e-05 0.0000000e+00 
0.0000000e+00 -1.9594509e-05 0.0000000e+00 
0.0000000e+00 -1.4290316e-05 0.0000000e+00 
0.0000000e+00 -6.0555635e-06 0.0000000e+00 
0.0000000e+00 5.5807145e-06 0.0000000e+00 
0.0000000e+00 2.1610709e-05 0.0000000e+00 
0.0000000e+00 4.3286818e-05 0.0000000e+00 
0.0000000e+00 7.1474045e-05 0.0000000e+00 
0.0000000e+00 1.0741741e-04 0.0000000e+00 
0.0000000e+00 1.5172518e-04 0.0000000e+00 
0.0000000e+00 2.0327451e-04 0.0000000e+00 
0.0000000e+00 2.5696494e-04 0.0000000e+00 
0.0000000e+00 3.0025272e-04 0.0000000e+00 
0.0000000e+00 3.0219293e-04 0.0000000e+00 
0.0000000e+00 2.0668691e-04 0.0000000e+00 
0.0000000e+00 -7.4513271e-05 0.0000000e+00 
0.0000000e+00 -6.8748870e-04 0.0000000e+00 
0.0000000e+00 -1.8393885e-03 0.0000000e+00 
0.0000000e+00 -3.7136027e-03 0.0000000e+00 
0.0000000e+00 -6.4393915e-03 0.0000000e+00 
0.0000000e+00 -1.0094514e-02 0.0000000e+00 
0.0000000e+00 -1.4810817e-02 0.0000000e+00 
0.0000000e+00 -2.0357281e-02 0.0000000e+00 
0.0000000e+00 -2.5837189e-02 0.0000000e+00 
0.0000000e+00 -3.0230056e-02 0.0000000e+00 
0.0000000e+00 -3.2510791e-02 0.0000000e+00 
0.0000000e+00 -3.2109998e-02 0.0000000e+00 
0.0000000e+00 -2.9546818e-02 0.0000000e+00 
0.0000000e+00 -2.5481086e-02 0.0000000e+00 
0.0000000e+00 -2.0529158e-02 0.0000000e+00 
0.0000000e+00 -1.5240982e-02 0.0000000e+00 
0.0000000e+00 -1.0078899e-02 0.0000000e+00 
0.0000000e+00 -5.4001855e-03 0.0000000e+00 
0.0000000e+00 -1.4468546e-03 0.0000000e+00 
0.0000000e+00 1.6550554e-03 0.0000000e+00 
0.0000000e+00 3.8870506e-03 0.0000000e+00 
0.0000000e+00 5.3224131e-03 0.0000000e+00 
0.0000000e+00 6.1041242e-03 0.0000000e+00 
0.0000000e+00 6.4168642e-03 0.0000000e+00 
0.0000000e+00 6.4550862e-03 0.0000000e+00 
0.0000000e+00 6.3917087e-03 0.0000000e+00 
0.0000000e+00 6.3527492e-03 0.0000000e+00 
1.1939867e-05 3.6784648e-05 3.5257515e-05 
4.2621814e-06 2.6936209e-04 1.8168762e-04 
0.0000000e+00 0.0000000e+00 0.0000000e+00 
0.0000000e+00 0.0000000e+00 0.0000000e+00 
0.0000000e+00 0.0000000e+00 0.0000000e+00 
0.0000000e+00 0.0000000e+00 0.0000000e+00 
0.0000000e+00 0.0000000e+00 0.0000000e+00 
0.0000000e+00 0.0000000e+00 0.0000000e+00 
0.0000000e+00 0.0000000e+00 0.0000000e+00 
0.0000000e+00 0.0000000e+00 0.0000000e+00 
0.0000000e+00 0.0000000e+00 0.0000000e+00 
0.0000000e+00 0.0000000e+00 0.0000000e+00 
0.0000000e+00 0.0000000e+00 0.0000000e+00 
0.0000000e+00 0.0000000e+00 0.0000000e+00 
0.0000000e+00 0.0000000e+00 0.0000000e+00 
0.0000000e+00 0.0000000e+00 0.0000000e+00 
0.0000000e+00 0.0000000e+00 0.0000000e+00 
0.0000000e+00 0.0000000e+00 0.0000000e+00 
0.0000000e+00 0.0000000e+00 0.0000000e+00 
0.0000000e+00 0.0000000e+00 0.0000000e+00 
0.0000000e+00 0.0000000e+00 0.0000000e+00 
0.0000000e+00 0.0000000e+00 0.0000000e+00 
0.0000000e+00 0.0000000e+00 0.0000000e+00 
0.0000000e+00 0.0000000e+00 0.0000000e+00 
0.0000000e+00 0.0000000e+00 0.0000000e+00 
0.0000000e+00 0.0000000e+00 0.0000000e+00 
0.0000000e+00 0.0000000e+00 0.0000000e+00 
0.0000000e+00 0.0000000e+00 0.0000000e+00 
0.0000000e+00 0.0000000e+00 0.0000000e+00 
0.0000000e+00 0.0000000e+00 0.0000000e+00 
0.0000000e+00 0.0000000e+00 0.0000000e+00 
0.0000000e+00 0.0000000e+00 0.0000000e+00 
0.0000000e+00 0.0000000e+00 0.0000000e+00 
0.0000000e+00 0.0000000e+00 0.0000000e+00 
0.0000000e+00 0.0000000e+00 0.0000000e+00 
0.0000000e+00 0.0000000e+00 0.0000000e+00 
0.0000000e+00 0.0000000e+00 0.0000000e+00 
0.0000000e+00 0.0000000e+00 0.0000000e+00 
0.0000000e+00 0.0000000e+00 0.0000000e+00 
0.0000000e+00 0.0000000e+00 0.0000000e+00 
0.0000000e+00 0.0000000e+00 0.0000000e+00 
0.0000000e+00 0.0000000e+00 0.0000000e+00 
0.0000000e+00 0.0000000e+00 0.0000000e+00 
0.0000000e+00 0.0000000e+00 0.0000000e+00 
-9.7158716e-07 2.1721457e-06 5.2930960e-07 
-1.8578099e-06 2.8697896e-06 -1.8222133e-06 
2.2407269e-06 -5.1397899e-07 1.2529074e-06 
4.2955025e-06 -2.7209610e-06 3.9490983e-06 
-1.7925501e-06 -2.5972597e-06 6.7672913e-06 
-8.3819696e-06 6.1007671e-07 1.6401640e-06 
-4.2732800e-06 8.0504356e-07 -6.6186985e-06 
1.1202542e-05 -3.0625861e-06 -1.1563511e-05 
3.6241010e-05 -7.9410038e-06 -1.3442793e-05 
5.3785458e-05 -7.6737970e-06 -3.5712824e-06 
4.6592217e-05 -4.8340758e-06 8.0393293e-06 
2.2248523e-05 -2.9952030e-06 5.0659896e-06 
5.7078914e-06 -1.4214781e-06 3.5155381e-06 
1.3700572e-06 -6.7203251e-07 2.4216140e-06 
-2.5674203e-06 -9.1417256e-08 4.3058917e-06 
-9.4450515e-06 1.5187928e-06 3.1188515e-06 
-9.5902324e-06 -5.3924481e-07 4.6039318e-06 
8.4039975e-06 1.6521179e-06 3.3521974e-06 
3.7379057e-05 -2.7912236e-06 -5.6654440e-06 
0.0000000e+00 1.6038170e-05 0.0000000e+00 
0.0000000e+00 6.2051786e-06 0.0000000e+00 
0.0000000e+00 -2.0852171e-05 0.0000000e+00 
0.0000000e+00 -2.7583344e-05 0.0000000e+00 
0.0000000e+00 -7.6065794e-07 0.0000000e+00 
0.0000000e+00 1.6118844e-05 0.0000000e+00 
0.0000000e+00 3.0042989e-05 0.0000000e+00 
0.0000000e+00 -2.1877263e-06 0.0000000e+00 
0.0000000e+00 -2.3184375e-04 0.0000000e+00 
0.0000000e+00 -5.6603161e-04 0.0000000e+00 
0.0000000e+00 -5.0804042e-04 0.0000000e+00 
0.0000000e+00 -1.5012624e-04 0.0000000e+00 
0.0000000e+00 -3.9553011e-06 0.0000000e+00 
0.0000000e+00 -5.0832568e-06 0.0000000e+00 
0.0000000e+00 -5.5709943e-06 0.0000000e+00 
0.0000000e+00 6.2942186e-06 0.0000000e+00 
0.0000000e+00 4.5865196e-05 0.0000000e+00 
0.0000000e+00 4.5583645e-05 0.0000000e+00 
0.0000000e+00 -3.5144176e-04 0.0000000e+00 
3.0286153e-06 -6.1001874e-06 -2.7908370e-06 
1.6356570e-06 -1.4862983e-05 -7.1847880e-06 
1.0181350e-04 -1.0565207e-04 5.3939999e-05 
2.6555278e-04 -7.1107049e-04 8.4285093e-05 
1.0863805e-06 1.7733469e-06 -1.7789071e-06 
-2.0921605e-06 2.8981085e-06 -2.2362944e-07 
4.9557809e-07 -4.1491024e-08 3.9212873e-06 
1.9562792e-06 -3.1921877e-06 6.1348528e-06 
-2.1436153e-06 -4.9792361e-06 5.7896650e-06 
-6.7005740e-06 9.1107853e-07 9.9662273e-08 
-2.0580676e-06 2.1245839e-06 -9.6495742e-06 
2.2107577e-05 -3.0391752e-06 -1.3997342e-05 
3.5051173e-05 -6.2971731e-06 -7.1926702e-06 
3.7753289e-05 -6.3305292e-06 -2.5657671e-06 
2.8060229e-05 -2.2445695e-06 6.8867062e-06 
1.3203531e-05 2.5262946e-07 -6.0075484e-07 
6.9206571e-06 -1.4054341e-06 2.3373204e-06 
-2.2557222e-08 -1.9437016e-06 3.1337972e-06 
-3.8743883e-06 -1.8189024e-06 4.2574907e-06 
-1.0977050e-05 1.0367246e-06 2.9803014e-06 
-2.7609278e-06 -1.1110000e-06 2.1902683e-06 
1.7795184e-05 7.1292021e-07 7.0210981e-06 
2.1161894e-05 1.0838809e-05 2.0346615e-05 
-7.4426907e-08 -1.8917124e-05 -2.0353520e-05 
0.0000000e+00 3.1445674e-05 0.0000000e+00 
0.0000000e+00 1.2277723e-05 0.0000000e+00 
0.0000000e+00 -3.9954037e-05 0.0000000e+00 
0.0000000e+00 -5.0808874e-05 0.0000000e+00 
0.0000000e+00 6.0264369e-07 0.0000000e+00 
0.0000000e+00 2.9532888e-05 0.0000000e+00 
0.0000000e+00 5.4570570e-05 0.0000000e+00 
0.0000000e+00 8.8897968e-06 0.0000000e+00 
0.0000000e+00 -4.8484802e-04 0.0000000e+00 
0.0000000e+00 -1.2518478e-03 0.0000000e+00 
0.0000000e+00 -1.1308928e-03 0.0000000e+00 
0.0000000e+00 -2.8212095e-04 0.0000000e+00 
0.0000000e+00 6.7107812e-06 0.0000000e+00 
0.0000000e+00 -1.0003671e-05 0.0000000e+00 
0.0000000e+00 -9.7734855e-06 0.0000000e+00 
0.0000000e+00 1.0870232e-05 0.0000000e+00 
0.0000000e+00 8.7711909e-05 0.0000000e+00 
0.0000000e+00 1.0993516e-04 0.0000000e+00 
0.0000000e+00 -5.6572782e-04 0.0000000e+00 
2.8277721e-04 -1.4803599e-03 2.5376148e-04 
-1.2390234e-06 3.9685790e-05 -2.0212492e-05 
1.0027510e-05 4.8523561e-06 4.5380526e-05 
1.2889190e-05 -6.1582883e-05 4.7950896e-05 
-2.2766983e-05 -5.9293379e-05 4.5822544e-06 
-2.4451398e-05 -6.4059354e-06 -3.0601848e-05 
4.9608016e-06 4.2868138e-05 -4.7236754e-05 
5.9822192e-05 4.5027155e-05 1.7047106e-06 
4.1957624e-05 6.9077003e-05 8.0808255e-05 
-2.9101924e-04 -4.5974227e-04 3.1022209e-04 
-7.2720967e-04 -1.3961315e-03 9.9523866e-05 
-6.2578492e-04 -1.4122232e-03 -1.5869718e-04 
-1.2061474e-04 -2.4247087e-04 -2.3985586e-04 
2.7949216e-05 2.0367175e-05 -4.6396690e-05 
-1.8841685e-05 -1.7787255e-05 -8.5226366e-06 
-2.6412159e-05 -1.5859374e-05 -1.5998725e-05 
1.0238430e-05 8.6500750e-06 -6.2353465e-05 
8.4266234e-05 7.5979246e-05 -4.3020741e-06 
4.8389349e-05 1.4005420e-04 2.0902563e-04 
-4.5368163e-04 -5.1558780e-04 7.9357310e-04 
0.0000000e+00 4.4898217e-05 0.0000000e+00 
0.0000000e+00 1.7587743e-05 0.0000000e+00 
0.0000000e+00 -6.8801266e-05 0.0000000e+00 
0.0000000e+00 -7.0605507e-05 0.0000000e+00 
0.0000000e+00 3.2310493e-06 0.0000000e+00 
0.0000000e+00 4.1638526e-05 0.0000000e+00 
0.0000000e+00 7.5803429e-05 0.0000000e+00 
0.0000000e+00 5.4798955e-05 0.0000000e+00 
0.0000000e+00 -9.0271607e-04 0.0000000e+00 
0.0000000e+00 -2.4216908e-03 0.0000000e+00 
0.0000000e+00 -2.1560213e-03 0.0000000e+00 
0.0000000e+00 -4.8281791e-04 0.0000000e+00 
0.0000000e+00 4.0878964e-05 0.0000000e+00 
0.0000000e+00 -1.1490316e-05 0.0000000e+00 
0.0000000e+00 -1.0668502e-05 0.0000000e+00 
0.0000000e+00 9.6860840e-06 0.0000000e+00 
0.0000000e+00 1.0933947e-04 0.0000000e+00 
0.0000000e+00 2.5782938e-04 0.0000000e+00 
0.0000000e+00 -1.0840447e-03 0.0000000e+00 
-3.5149988e-06 1.1219676e-05 -8.1886546e-06 
-1.1207199e-07 2.2960680e-06 4.4467829e-06 
3.2707740e-06 -1.5044693e-05 1.1945678e-05 
-4.1398630e-06 -1.8373499e-05 5.1894144e-06 
-1.3425944e-05 -2.4853211e-06 -9.9567075e-08 
-6.8093173e-06 1.0574699e-05 -7.5848247e-06 
1.0875832e-05 1.4034745e-05 -1.0885695e-06 
2.5754895e-05 3.1248885e-05 1.1743386e-05 
5.7114161e-05 -5.1494520e-05 2.9521236e-06 
5.3330430e-05 -1.0535408e-04 -9.9763774e-06 
4.0039995e-05 -9.7334523e-05 -1.0133607e-07 
3.9234794e-05 -5.1513467e-05 -1.0021726e-06 
4.5718316e-06 5.3525087e-06 -8.3324212e-06 
-7.3211750e-06 -4.9105070e-06 -5.8241794e-06 
-1.3036406e-05 -4.4665067e-06 -5.3761696e-06 
-9.5536152e-06 -2.0725522e-06 -3.2427758e-06 
7.6698179e-06 2.0438063e-05 9.2795444e-06 
5.0634972e-05 -1.3817569e-05 5.4538461e-05 
2.9679944e-05 7.6474615e-05 1.4277687e-04 
0.0000000e+00 0.0000000e+00 0.0000000e+00 
0.0000000e+00 0.0000000e+00 0.0000000e+00 
0.0000000e+00 0.0000000e+00 0.0000000e+00 
0.0000000e+00 0.0000000e+00 0.0000000e+00 
0.0000000e+00 0.0000000e+00 0.0000000e+00 
0.0000000e+00 0.0000000e+00 0.0000000e+00 
0.0000000e+00 0.0000000e+00 0.0000000e+00 
0.0000000e+00 0.0000000e+00 0.0000000e+00 
0.0000000e+00 0.0000000e+00 0.0000000e+00 
0.0000000e+00 0.0000000e+00 0.0000000e+00 
0.0000000e+00 0.0000000e+00 0.0000000e+00 
0.0000000e+00 0.0000000e+00 0.0000000e+00 
0.0000000e+00 0.0000000e+00 0.0000000e+00 
0.0000000e+00 0.0000000e+00 0.0000000e+00 
0.0000000e+00 0.0000000e+00 0.0000000e+00 
0.0000000e+00 0.0000000e+00 0.0000000e+00 
0.0000000e+00 0.0000000e+00 0.0000000e+00 
0.0000000e+00 0.0000000e+00 0.0000000e+00 
0.0000000e+00 0.0000000e+00 0.0000000e+00 
0.0000000e+00 0.0000000e+00 0.0000000e+00 
0.0000000e+00 0.0000000e+00 0.0000000e+00 
0.0000000e+00 0.0000000e+00 0.0000000e+00 
0.0000000e+00 0.0000000e+00 0.0000000e+00 
0.0000000e+00 0.0000000e+00 0.0000000e+00 
0.0000000e+00 0.0000000e+00 0.0000000e+00 
0.0000000e+00 0.0000000e+00 0.0000000e+00 
0.0000000e+00 0.0000000e+00 0.0000000e+00 
0.0000000e+00 0.0000000e+00 0.0000000e+00 
0.0000000e+00 0.0000000e+00 0.0000000e+00 
0.0000000e+00 0.0000000e+00 0.0000000e+00 
0.0000000e+00 0.0000000e+00 0.0000000e+00 
0.0000000e+00 0.0000000e+00 0.0000000e+00 
0.0000000e+00 0.0000000e+00 0.0000000e+00 
0.0000000e+00 0.0000000e+00 0.0000000e+00 
0.0000000e+00 0.0000000e+00 0.0000000e+00 
0.0000000e+00 0.0000000e+00 0.0000000e+00 
0.0000000e+00 0.0000000e+00 0.0000000e+00 
0.0000000e+00 0.0000000e+00 0.0000000e+00 
0.0000000e+00 0.0000000e+00 0.0000000e+00 
0.0000000e+00 0.0000000e+00 0.0000000e+00 
0.0000000e+00 0.0000000e+00 0.0000000e+00 
0.0000000e+00 0.0000000e+00 0.0000000e+00 
1.7561233e-07 7.2091581e-07 -7.5501941e-07 
-3.5968365e-06 -6.8286994e-08 -1.4562605e-06 
1.0068155e-05 -7.2110811e-06 -8.0595655e-06 
2.0933265e-05 -8.0555010e-06 3.3764441e-06 
6.1408259e-06 -2.9364789e-06 1.8503031e-06 
1.1063613e-06 -6.5400440e-07 6.0880200e-07 
5.4233567e-07 2.3255997e-07 2.8980949e-06 
-3.5650842e-06 8.3390847e-07 1.4349896e-06 
-5.5122487e-06 1.1328688e-06 1.5608620e-06 