# vtk DataFile Version 4.0
vtk output
ASCII
DATASET UNSTRUCTURED_GRID
POINTS 661 float
0.0000000e+00 0.0000000e+00 0.0000000e+00 
0.0000000e+00 0.0000000e+00 4.0000000e+01 
5.0000000e+00 0.0000000e+00 0.0000000e+00 
5.0000000e+00 0.0000000e+00 4.0000000e+01 
5.0000000e+00 1.0000000e+00 0.0000000e+00 
5.0000000e+00 1.0000000e+00 4.0000000e+01 
0.0000000e+00 1.0000000e+00 0.0000000e+00 
0.0000000e+00 1.0000000e+00 4.0000000e+01 
5.0000000e+00 2.0000000e+00 0.0000000e+00 
5.0000000e+00 2.0000000e+00 4.0000000e+01 
3.0000000e+00 2.0000000e+00 0.0000000e+00 
3.0000000e+00 2.0000000e+00 4.0000000e+01 
0.0000000e+00 2.0000000e+00 0.0000000e+00 
0.0000000e+00 2.0000000e+00 4.0000000e+01 
1.5000000e+00 3.0000000e+00 0.0000000e+00 
1.5000000e+00 3.0000000e+00 4.0000000e+01 
7.5000000e-01 3.0000000e+00 0.0000000e+00 
7.5000000e-01 3.0000000e+00 4.0000000e+01 
0.0000000e+00 3.0000000e+00 0.0000000e+00 
0.0000000e+00 3.0000000e+00 4.0000000e+01 
7.5000000e-01 3.0000000e+00 5.0000000e-01 
7.5000000e-01 3.0000000e+00 1.0000000e+00 
7.5000000e-01 3.0000000e+00 1.5000000e+00 
7.5000000e-01 3.0000000e+00 2.0000000e+00 
7.5000000e-01 3.0000000e+00 2.5000000e+00 
7.5000000e-01 3.0000000e+00 3.0000000e+00 
7.5000000e-01 3.0000000e+00 3.5000000e+00 
7.5000000e-01 3.0000000e+00 4.0000000e+00 
7.5000000e-01 3.0000000e+00 4.5000000e+00 
7.5000000e-01 3.0000000e+00 5.0000000e+00 
7.5000000e-01 3.0000000e+00 5.5000000e+00 
7.5000000e-01 3.0000000e+00 6.0000000e+00 
7.5000000e-01 3.0000000e+00 6.5000000e+00 
7.5000000e-01 3.0000000e+00 7.0000000e+00 
7.5000000e-01 3.0000000e+00 7.5000000e+00 
7.5000000e-01 3.0000000e+00 8.0000000e+00 
7.5000000e-01 3.0000000e+00 8.5000000e+00 
7.5000000e-01 3.0000000e+00 9.0000000e+00 
7.5000000e-01 3.0000000e+00 9.5000000e+00 
7.5000000e-01 3.0000000e+00 1.0000000e+01 
7.5000000e-01 3.0000000e+00 1.0500000e+01 
7.5000000e-01 3.0000000e+00 1.1000000e+01 
7.5000000e-01 3.0000000e+00 1.1500000e+01 
7.5000000e-01 3.0000000e+00 1.2000000e+01 
7.5000000e-01 3.0000000e+00 1.2500000e+01 
7.5000000e-01 3.0000000e+00 1.3000000e+01 
7.5000000e-01 3.0000000e+00 1.3500000e+01 
7.5000000e-01 3.0000000e+00 1.4000000e+01 
7.5000000e-01 3.0000000e+00 1.4500000e+01 
7.5000000e-01 3.0000000e+00 1.5000000e+01 
7.5000000e-01 3.0000000e+00 1.5500000e+01 
7.5000000e-01 3.0000000e+00 1.6000000e+01 
7.5000000e-01 3.0000000e+00 1.6500000e+01 
7.5000000e-01 3.0000000e+00 1.7000000e+01 
7.5000000e-01 3.0000000e+00 1.7500000e+01 
7.5000000e-01 3.0000000e+00 1.8000000e+01 
7.5000000e-01 3.0000000e+00 1.8500000e+01 
7.5000000e-01 3.0000000e+00 1.9000000e+01 
7.5000000e-01 3.0000000e+00 1.9500000e+01 
7.5000000e-01 3.0000000e+00 2.0000000e+01 
7.5000000e-01 3.0000000e+00 2.0500000e+01 
7.5000000e-01 3.0000000e+00 2.1000000e+01 
7.5000000e-01 3.0000000e+00 2.1500000e+01 
7.5000000e-01 3.0000000e+00 2.2000000e+01 
7.5000000e-01 3.0000000e+00 2.2500000e+01 
7.5000000e-01 3.0000000e+00 2.3000000e+01 
7.5000000e-01 3.0000000e+00 2.3500000e+01 
7.5000000e-01 3.0000000e+00 2.4000000e+01 
7.5000000e-01 3.0000000e+00 2.4500000e+01 
7.5000000e-01 3.0000000e+00 2.5000000e+01 
7.5000000e-01 3.0000000e+00 2.5500000e+01 
7.5000000e-01 3.0000000e+00 2.6000000e+01 
7.5000000e-01 3.0000000e+00 2.6500000e+01 
7.5000000e-01 3.0000000e+00 2.7000000e+01 
7.5000000e-01 3.0000000e+00 2.7500000e+01 
7.5000000e-01 3.0000000e+00 2.8000000e+01 
7.5000000e-01 3.0000000e+00 2.8500000e+01 
7.5000000e-01 3.0000000e+00 2.9000000e+01 
7.5000000e-01 3.0000000e+00 2.9500000e+01 
7.5000000e-01 3.0000000e+00 3.0000000e+01 
7.5000000e-01 3.0000000e+00 3.0500000e+01 
7.5000000e-01 3.0000000e+00 3.1000000e+01 
7.5000000e-01 3.0000000e+00 3.1500000e+01 
7.5000000e-01 3.0000000e+00 3.2000000e+01 
7.5000000e-01 3.0000000e+00 3.2500000e+01 
7.5000000e-01 3.0000000e+00 3.3000000e+01 
7.5000000e-01 3.0000000e+00 3.3500000e+01 
7.5000000e-01 3.0000000e+00 3.4000000e+01 
7.5000000e-01 3.0000000e+00 3.4500000e+01 
7.5000000e-01 3.0000000e+00 3.5000000e+01 
7.5000000e-01 3.0000000e+00 3.5500000e+01 
7.5000000e-01 3.0000000e+00 3.6000000e+01 
7.5000000e-01 3.0000000e+00 3.6500000e+01 
7.5000000e-01 3.0000000e+00 3.7000000e+01 
7.5000000e-01 3.0000000e+00 3.7500000e+01 
7.5000000e-01 3.0000000e+00 3.8000000e+01 
7.5000000e-01 3.0000000e+00 3.8500000e+01 
7.5000000e-01 3.0000000e+00 3.9000000e+01 
7.5000000e-01 3.0000000e+00 3.9500000e+01 
7.5000000e-01 3.0000000e+00 4.0500000e+01 
7.5000000e-01 3.0000000e+00 4.1000000e+01 
7.5000000e-01 3.0000000e+00 4.1500000e+01 
7.5000000e-01 3.0000000e+00 4.2000000e+01 
7.5000000e-01 3.0000000e+00 4.2500000e+01 
7.5000000e-01 3.0000000e+00 4.3000000e+01 
7.5000000e-01 3.0000000e+00 4.3500000e+01 
7.5000000e-01 3.0000000e+00 4.4000000e+01 
7.5000000e-01 3.0000000e+00 4.4500000e+01 
7.5000000e-01 3.0000000e+00 4.5000000e+01 
7.5000000e-01 3.0000000e+00 4.5500000e+01 
7.5000000e-01 3.0000000e+00 4.6000000e+01 
7.5000000e-01 3.0000000e+00 4.6500000e+01 
7.5000000e-01 3.0000000e+00 4.7000000e+01 
7.5000000e-01 3.0000000e+00 4.7500000e+01 
7.5000000e-01 3.0000000e+00 4.8000000e+01 
7.5000000e-01 3.0000000e+00 4.8500000e+01 
7.5000000e-01 3.0000000e+00 4.9000000e+01 
7.5000000e-01 3.0000000e+00 4.9500000e+01 
7.5000000e-01 3.0000000e+00 5.0000000e+01 
7.5000000e-01 3.0250001e+00 0.0000000e+00 
7.5000000e-01 3.0250001e+00 5.0000000e-01 
7.5000000e-01 3.0250001e+00 1.0000000e+00 
7.5000000e-01 3.0250001e+00 1.5000000e+00 
7.5000000e-01 3.0250001e+00 2.0000000e+00 
7.5000000e-01 3.0250001e+00 2.5000000e+00 
7.5000000e-01 3.0250001e+00 3.0000000e+00 
7.5000000e-01 3.0250001e+00 3.5000000e+00 
7.5000000e-01 3.0250001e+00 4.0000000e+00 
7.5000000e-01 3.0250001e+00 4.5000000e+00 
7.5000000e-01 3.0250001e+00 5.0000000e+00 
7.5000000e-01 3.0250001e+00 5.5000000e+00 
7.5000000e-01 3.0250001e+00 6.0000000e+00 
7.5000000e-01 3.0250001e+00 6.5000000e+00 
7.5000000e-01 3.0250001e+00 7.0000000e+00 
7.5000000e-01 3.0250001e+00 7.5000000e+00 
7.5000000e-01 3.0250001e+00 8.0000000e+00 
7.5000000e-01 3.0250001e+00 8.5000000e+00 
7.5000000e-01 3.0250001e+00 9.0000000e+00 
7.5000000e-01 3.0250001e+00 9.5000000e+00 
7.5000000e-01 3.0250001e+00 1.0000000e+01 
7.5000000e-01 3.0250001e+00 1.0500000e+01 
7.5000000e-01 3.0250001e+00 1.1000000e+01 
7.5000000e-01 3.0250001e+00 1.1500000e+01 
7.5000000e-01 3.0250001e+00 1.2000000e+01 
7.5000000e-01 3.0250001e+00 1.2500000e+01 
7.5000000e-01 3.0250001e+00 1.3000000e+01 
7.5000000e-01 3.0250001e+00 1.3500000e+01 
7.5000000e-01 3.0250001e+00 1.4000000e+01 
7.5000000e-01 3.0250001e+00 1.4500000e+01 
7.5000000e-01 3.0250001e+00 1.5000000e+01 
7.5000000e-01 3.0250001e+00 1.5500000e+01 
7.5000000e-01 3.0250001e+00 1.6000000e+01 
7.5000000e-01 3.0250001e+00 1.6500000e+01 
7.5000000e-01 3.0250001e+00 1.7000000e+01 
7.5000000e-01 3.0250001e+00 1.7500000e+01 
7.5000000e-01 3.0250001e+00 1.8000000e+01 
7.5000000e-01 3.0250001e+00 1.8500000e+01 
7.5000000e-01 3.0250001e+00 1.9000000e+01 
7.5000000e-01 3.0250001e+00 1.9500000e+01 
7.5000000e-01 3.0250001e+00 2.0000000e+01 
7.5000000e-01 3.0250001e+00 2.0500000e+01 
7.5000000e-01 3.0250001e+00 2.1000000e+01 
7.5000000e-01 3.0250001e+00 2.1500000e+01 
7.5000000e-01 3.0250001e+00 2.2000000e+01 
7.5000000e-01 3.0250001e+00 2.2500000e+01 
7.5000000e-01 3.0250001e+00 2.3000000e+01 
7.5000000e-01 3.0250001e+00 2.3500000e+01 
7.5000000e-01 3.0250001e+00 2.4000000e+01 
7.5000000e-01 3.0250001e+00 2.4500000e+01 
7.5000000e-01 3.0250001e+00 2.5000000e+01 
7.5000000e-01 3.0250001e+00 2.5500000e+01 
7.5000000e-01 3.0250001e+00 2.6000000e+01 
7.5000000e-01 3.0250001e+00 2.6500000e+01 
7.5000000e-01 3.0250001e+00 2.7000000e+01 
7.5000000e-01 3.0250001e+00 2.7500000e+01 
7.5000000e-01 3.0250001e+00 2.8000000e+01 
7.5000000e-01 3.0250001e+00 2.8500000e+01 
7.5000000e-01 3.0250001e+00 2.9000000e+01 
7.5000000e-01 3.0250001e+00 2.9500000e+01 
7.5000000e-01 3.0250001e+00 3.0000000e+01 
7.5000000e-01 3.0250001e+00 3.0500000e+01 
7.5000000e-01 3.0250001e+00 3.1000000e+01 
7.5000000e-01 3.0250001e+00 3.1500000e+01 
7.5000000e-01 3.0250001e+00 3.2000000e+01 
7.5000000e-01 3.0250001e+00 3.2500000e+01 
7.5000000e-01 3.0250001e+00 3.3000000e+01 
7.5000000e-01 3.0250001e+00 3.3500000e+01 
7.5000000e-01 3.0250001e+00 3.4000000e+01 
7.5000000e-01 3.0250001e+00 3.4500000e+01 
7.5000000e-01 3.0250001e+00 3.5000000e+01 
7.5000000e-01 3.0250001e+00 3.5500000e+01 
7.5000000e-01 3.0250001e+00 3.6000000e+01 
7.5000000e-01 3.0250001e+00 3.6500000e+01 
7.5000000e-01 3.0250001e+00 3.7000000e+01 
7.5000000e-01 3.0250001e+00 3.7500000e+01 
7.5000000e-01 3.0250001e+00 3.8000000e+01 
7.5000000e-01 3.0250001e+00 3.8500000e+01 
7.5000000e-01 3.0250001e+00 3.9000000e+01 
7.5000000e-01 3.0250001e+00 3.9500000e+01 
7.5000000e-01 3.0250001e+00 4.0000000e+01 
7.5000000e-01 3.0250001e+00 4.0500000e+01 
7.5000000e-01 3.0250001e+00 4.1000000e+01 
7.5000000e-01 3.0250001e+00 4.1500000e+01 
7.5000000e-01 3.0250001e+00 4.2000000e+01 
7.5000000e-01 3.0250001e+00 4.2500000e+01 
7.5000000e-01 3.0250001e+00 4.3000000e+01 
7.5000000e-01 3.0250001e+00 4.3500000e+01 
7.5000000e-01 3.0250001e+00 4.4000000e+01 
7.5000000e-01 3.0250001e+00 4.4500000e+01 
7.5000000e-01 3.0250001e+00 4.5000000e+01 
7.5000000e-01 3.0250001e+00 4.5500000e+01 
7.5000000e-01 3.0250001e+00 4.6000000e+01 
7.5000000e-01 3.0250001e+00 4.6500000e+01 
7.5000000e-01 3.0250001e+00 4.7000000e+01 
7.5000000e-01 3.0250001e+00 4.7500000e+01 
7.5000000e-01 3.0250001e+00 4.8000000e+01 
7.5000000e-01 3.0250001e+00 4.8500000e+01 
7.5000000e-01 3.0250001e+00 4.9000000e+01 
7.5000000e-01 3.0250001e+00 4.9500000e+01 
7.5000000e-01 3.0250001e+00 5.0000000e+01 
3.0000000e+00 2.0000000e+00 3.6000000e+01 
8.0487806e-01 3.0000000e+00 3.6000000e+01 
0.0000000e+00 0.0000000e+00 2.0000000e+00 
0.0000000e+00 0.0000000e+00 4.0000000e+00 
0.0000000e+00 0.0000000e+00 6.0000000e+00 
0.0000000e+00 0.0000000e+00 8.0000000e+00 
0.0000000e+00 0.0000000e+00 1.0000000e+01 
0.0000000e+00 0.0000000e+00 1.2000000e+01 
0.0000000e+00 0.0000000e+00 1.4000000e+01 
0.0000000e+00 0.0000000e+00 1.6000000e+01 
[...]
POINT_DATA 661
FIELD FieldData 3
DISPLACEMENT 3 661  float
0.0000000e+00 0.0000000e+00 0.0000000e+00 
0.0000000e+00 0.0000000e+00 0.0000000e+00 
0.0000000e+00 0.0000000e+00 0.0000000e+00 
0.0000000e+00 0.0000000e+00 0.0000000e+00 
2.1603644e-06 -5.9022847e-07 -5.2377800e-06 
9.0952271e-06 5.6626704e-06 1.4144336e-05 
0.0000000e+00 8.1056112e-07 0.0000000e+00 
0.0000000e+00 -1.4135876e-04 0.0000000e+00 
6.6155781e-07 -8.4643652e-08 -4.8278971e-06 
2.9381263e-05 3.8770177e-06 1.7456160e-06 
4.8382785e-06 -3.4663385e-06 -7.6935858e-06 
3.3368040e-05 7.1522758e-05 -1.2424433e-06 
0.0000000e+00 -1.0956209e-05 0.0000000e+00 
0.0000000e+00 -2.6952423e-04 0.0000000e+00 
1.0583768e-06 -1.7471541e-05 -1.3603543e-05 
-6.7274879e-05 -4.8075184e-05 -1.9271225e-04 
-1.4632889e-07 -3.4160392e-05 -9.6334370e-06 
-5.5445711e-05 -5.5383041e-04 -2.3194565e-04 
0.0000000e+00 -1.3552744e-05 0.0000000e+00 
0.0000000e+00 -1.1659376e-04 0.0000000e+00 
3.3820033e-06 -2.4243944e-05 -1.1816735e-05 
1.0128806e-05 -3.4697614e-06 -9.9946201e-06 
1.1978911e-05 1.4469109e-05 -1.8719891e-05 
1.5337801e-05 1.9737354e-05 -3.3922986e-06 
1.7999724e-05 1.8785606e-05 1.7361950e-06 
1.4783652e-05 2.7177135e-05 2.3806645e-06 
1.7684826e-05 5.4794673e-05 4.5278748e-06 
9.3492472e-06 9.0046604e-05 4.2443830e-06 
1.6236272e-05 1.1436724e-04 -1.7301230e-05 
1.1519522e-05 1.1851960e-04 -2.9412042e-06 
-3.2396244e-06 1.1173210e-04 3.2660234e-06 
7.9547208e-06 1.0260480e-04 -2.0362099e-06 
-9.6228223e-06 1.0090178e-04 3.5070399e-05 
1.2506192e-05 1.0603193e-04 2.2242173e-05 
-9.0802382e-07 1.0223777e-04 8.5989295e-06 
1.1106670e-05 9.7664459e-05 3.2293239e-05 
3.4369816e-05 9.0249887e-05 1.4431825e-05 
-1.4130827e-06 7.4193667e-05 1.9884195e-05 
5.5242235e-05 5.0916151e-05 3.9484199e-05 
1.2260896e-05 4.3837801e-05 4.0343992e-05 
3.7775837e-05 6.8711306e-05 2.8738405e-05 
4.0086936e-05 1.0799037e-04 4.5530414e-05 
2.4280322e-05 1.4084062e-04 7.3503485e-05 
2.4432575e-05 8.0411250e-05 7.2343493e-05 
-5.2747837e-05 -1.1249797e-04 1.3416990e-04 
-1.1655036e-05 -4.1380254e-04 1.4678965e-04 
-9.7498618e-05 -8.4434322e-04 1.7525310e-04 
-1.0614366e-04 -1.4628777e-03 1.4879467e-04 
-2.5841844e-04 -2.3559933e-03 1.9311039e-04 
-3.1535528e-04 -3.4041218e-03 1.9146389e-04 
-1.9878164e-04 -4.3005552e-03 1.2386317e-04 
-2.0280493e-04 -4.3993867e-03 1.0459865e-04 
-3.2143190e-04 -4.2167725e-03 3.8073686e-05 
-4.1398336e-04 -4.1711261e-03 -9.0402191e-06 
-2.7829307e-04 -4.4333362e-03 -7.4678224e-05 
-1.2062741e-04 -4.4714259e-03 -1.3917066e-04 
-1.2136551e-04 -3.7256021e-03 -2.3474582e-04 
-1.9855944e-04 -2.5874209e-03 -2.6293757e-04 
-1.7967120e-04 -1.5687117e-03 -2.5453631e-04 
-3.2127777e-05 -7.9024886e-04 -1.7662720e-04 
1.0595917e-05 -2.9327808e-04 -1.8270710e-04 
3.9243867e-05 4.4352923e-06 -1.2505105e-04 
3.2579606e-05 1.6343687e-04 -6.9925765e-05 
3.6380217e-05 2.1714138e-04 -1.5925010e-05 
3.3472836e-05 1.8567759e-04 3.7351949e-06 
1.3253353e-05 1.1295918e-04 3.7001264e-05 
-9.4791579e-07 4.0555220e-05 4.6679426e-05 
-1.8857811e-05 -1.5193074e-05 3.1583106e-05 
-4.2897678e-05 -4.8965812e-05 2.7256545e-05 
-2.2618744e-05 -6.6926179e-05 -1.1275170e-06 
-4.5188670e-05 -7.7157005e-05 -3.6106587e-05 
-1.3767695e-05 -7.9556470e-05 -4.0397670e-05 
-1.7397166e-05 -7.2279610e-05 -2.9839328e-05 
-1.5499976e-05 -5.0031405e-05 -5.5710221e-05 
1.3538025e-05 -1.8909035e-05 -4.5102537e-05 
-1.1089211e-06 2.2790158e-05 -2.8782346e-05 
5.8805679e-05 6.2334497e-05 -6.0821079e-05 
1.9009492e-05 8.8979221e-05 -9.4552715e-06 
6.9439717e-05 1.1334184e-04 2.6709838e-05 
3.3669949e-05 1.1892481e-04 -7.6554416e-06 
1.9798401e-05 1.2039861e-04 2.3844299e-05 
6.8860303e-05 1.4302746e-04 2.0068586e-05 
2.0145526e-06 1.8804643e-04 8.4867324e-06 
2.8215944e-05 1.6673365e-04 5.4551740e-05 
-4.0583440e-05 -1.5944599e-05 9.3017974e-05 
-5.7046724e-05 -3.8036887e-04 1.2555887e-04 
-9.1957038e-05 -9.4154925e-04 1.7124925e-04 
-1.4858124e-04 -1.6506044e-03 1.2625242e-04 
-2.4613165e-04 -2.5150590e-03 1.8435501e-04 
-3.1406392e-04 -3.4233076e-03 1.5976335e-04 
-1.7264446e-04 -4.1235001e-03 5.4241507e-05 
-3.9846054e-04 -4.1452236e-03 8.4976113e-05 
-2.6800463e-04 -3.9749774e-03 7.5334254e-05 
-2.8098785e-04 -3.9673317e-03 -2.0627385e-05 
-9.8238459e-05 -4.1925190e-03 -1.4369577e-04 
-1.6962760e-04 -4.1900701e-03 -2.1966144e-04 
-1.6058353e-04 -3.4047288e-03 -3.4057369e-04 
-1.9004173e-04 -2.3076341e-03 -3.3866751e-04 
-1.4004417e-04 -1.3518969e-03 -1.1039882e-04 
0.0000000e+00 7.4858108e-05 0.0000000e+00 
0.0000000e+00 5.4766831e-04 0.0000000e+00 
0.0000000e+00 8.6187071e-04 0.0000000e+00 
0.0000000e+00 1.0196381e-03 0.0000000e+00 
0.0000000e+00 1.0469327e-03 0.0000000e+00 
0.0000000e+00 9.8795153e-04 0.0000000e+00 
0.0000000e+00 8.8196830e-04 0.0000000e+00 
0.0000000e+00 7.4903690e-04 0.0000000e+00 
0.0000000e+00 5.9662043e-04 0.0000000e+00 
0.0000000e+00 4.3398081e-04 0.0000000e+00 
0.0000000e+00 2.7645048e-04 0.0000000e+00 
0.0000000e+00 1.3818886e-04 0.0000000e+00 
0.0000000e+00 2.5344718e-05 0.0000000e+00 
0.0000000e+00 -6.2805659e-05 0.0000000e+00 
0.0000000e+00 -1.2888538e-04 0.0000000e+00 
0.0000000e+00 -1.7549907e-04 0.0000000e+00 
0.0000000e+00 -2.0641321e-04 0.0000000e+00 
0.0000000e+00 -2.2633227e-04 0.0000000e+00 
0.0000000e+00 -2.3831901e-04 0.0000000e+00 
0.0000000e+00 -2.4254002e-04 0.0000000e+00 
0.0000000e+00 -3.3910579e-05 0.0000000e+00 
0.0000000e+00 -2.4174213e-05 0.0000000e+00 
0.0000000e+00 -3.3861886e-06 0.0000000e+00 
0.0000000e+00 1.3941465e-05 0.0000000e+00 
0.0000000e+00 1.9297302e-05 0.0000000e+00 
0.0000000e+00 1.8839961e-05 0.0000000e+00 
0.0000000e+00 2.8068200e-05 0.0000000e+00 
0.0000000e+00 5.5131644e-05 0.0000000e+00 
0.0000000e+00 8.9802161e-05 0.0000000e+00 
0.0000000e+00 1.1367736e-04 0.0000000e+00 
0.0000000e+00 1.1842844e-04 0.0000000e+00 
0.0000000e+00 1.1167851e-04 0.0000000e+00 
0.0000000e+00 1.0316919e-04 0.0000000e+00 
0.0000000e+00 1.0157099e-04 0.0000000e+00 
0.0000000e+00 1.0472236e-04 0.0000000e+00 
0.0000000e+00 1.0280105e-04 0.0000000e+00 
0.0000000e+00 9.8130236e-05 0.0000000e+00 
0.0000000e+00 9.0026428e-05 0.0000000e+00 
0.0000000e+00 7.3424831e-05 0.0000000e+00 
0.0000000e+00 5.0710809e-05 0.0000000e+00 
0.0000000e+00 4.4603090e-05 0.0000000e+00 
0.0000000e+00 6.9258000e-05 0.0000000e+00 
0.0000000e+00 1.1243106e-04 0.0000000e+00 
0.0000000e+00 1.3918575e-04 0.0000000e+00 
0.0000000e+00 7.6801865e-05 0.0000000e+00 
0.0000000e+00 -1.1119003e-04 0.0000000e+00 
0.0000000e+00 -4.1261743e-04 0.0000000e+00 
0.0000000e+00 -8.4253185e-04 0.0000000e+00 
0.0000000e+00 -1.4708713e-03 0.0000000e+00 
0.0000000e+00 -2.3659887e-03 0.0000000e+00 
0.0000000e+00 -3.4423508e-03 0.0000000e+00 
0.0000000e+00 -4.3228604e-03 0.0000000e+00 
0.0000000e+00 -4.4243443e-03 0.0000000e+00 
0.0000000e+00 -4.2302157e-03 0.0000000e+00 
0.0000000e+00 -4.2056791e-03 0.0000000e+00 
0.0000000e+00 -4.4562910e-03 0.0000000e+00 
0.0000000e+00 -4.5045065e-03 0.0000000e+00 
0.0000000e+00 -3.7425023e-03 0.0000000e+00 
0.0000000e+00 -2.6075107e-03 0.0000000e+00 
0.0000000e+00 -1.5726712e-03 0.0000000e+00 
0.0000000e+00 -7.9524156e-04 0.0000000e+00 
0.0000000e+00 -2.9218302e-04 0.0000000e+00 
0.0000000e+00 5.7453658e-06 0.0000000e+00 
0.0000000e+00 1.6421602e-04 0.0000000e+00 
0.0000000e+00 2.1658790e-04 0.0000000e+00 
0.0000000e+00 1.8600935e-04 0.0000000e+00 
0.0000000e+00 1.1382984e-04 0.0000000e+00 
0.0000000e+00 4.0808241e-05 0.0000000e+00 
0.0000000e+00 -1.4427405e-05 0.0000000e+00 
0.0000000e+00 -4.8593167e-05 0.0000000e+00 
0.0000000e+00 -6.7444824e-05 0.0000000e+00 
0.0000000e+00 -7.7300720e-05 0.0000000e+00 
0.0000000e+00 -7.9723141e-05 0.0000000e+00 
0.0000000e+00 -7.1843366e-05 0.0000000e+00 
0.0000000e+00 -5.0401817e-05 0.0000000e+00 
0.0000000e+00 -1.8369679e-05 0.0000000e+00 
0.0000000e+00 2.2505754e-05 0.0000000e+00 
0.0000000e+00 6.1599429e-05 0.0000000e+00 
0.0000000e+00 9.0958136e-05 0.0000000e+00 
0.0000000e+00 1.1160884e-04 0.0000000e+00 
0.0000000e+00 1.1751498e-04 0.0000000e+00 
0.0000000e+00 1.2147622e-04 0.0000000e+00 
0.0000000e+00 1.4770594e-04 0.0000000e+00 
0.0000000e+00 1.8938136e-04 0.0000000e+00 
0.0000000e+00 1.6406714e-04 0.0000000e+00 
0.0000000e+00 -1.6800928e-05 0.0000000e+00 
0.0000000e+00 -3.8486547e-04 0.0000000e+00 
0.0000000e+00 -9.3962485e-04 0.0000000e+00 
0.0000000e+00 -1.6552348e-03 0.0000000e+00 
0.0000000e+00 -2.5242632e-03 0.0000000e+00 
0.0000000e+00 -3.4598699e-03 0.0000000e+00 
0.0000000e+00 -4.1506165e-03 0.0000000e+00 
0.0000000e+00 -4.1703554e-03 0.0000000e+00 
0.0000000e+00 -3.9896355e-03 0.0000000e+00 
0.0000000e+00 -3.9962246e-03 0.0000000e+00 
0.0000000e+00 -4.2229192e-03 0.0000000e+00 
0.0000000e+00 -4.2116391e-03 0.0000000e+00 
0.0000000e+00 -3.4247735e-03 0.0000000e+00 
0.0000000e+00 -2.3295702e-03 0.0000000e+00 
0.0000000e+00 -1.3509839e-03 0.0000000e+00 
0.0000000e+00 -5.5366463e-04 0.0000000e+00 
0.0000000e+00 7.5248383e-05 0.0000000e+00 
0.0000000e+00 5.4698071e-04 0.0000000e+00 
0.0000000e+00 8.6071872e-04 0.0000000e+00 
0.0000000e+00 1.0192255e-03 0.0000000e+00 
0.0000000e+00 1.0475484e-03 0.0000000e+00 
0.0000000e+00 9.8876352e-04 0.0000000e+00 
0.0000000e+00 8.8216824e-04 0.0000000e+00 
0.0000000e+00 7.4874237e-04 0.0000000e+00 
0.0000000e+00 5.9649686e-04 0.0000000e+00 
0.0000000e+00 4.3429734e-04 0.0000000e+00 
0.0000000e+00 2.7684582e-04 0.0000000e+00 
0.0000000e+00 1.3828915e-04 0.0000000e+00 
0.0000000e+00 2.5264952e-05 0.0000000e+00 
0.0000000e+00 -6.2724721e-05 0.0000000e+00 
0.0000000e+00 -1.2863096e-04 0.0000000e+00 
0.0000000e+00 -1.7541043e-04 0.0000000e+00 
0.0000000e+00 -2.0666572e-04 0.0000000e+00 
0.0000000e+00 -2.2664573e-04 0.0000000e+00 
0.0000000e+00 -2.3832773e-04 0.0000000e+00 
0.0000000e+00 -2.4232644e-04 0.0000000e+00 
9.1538772e-05 -1.5173192e-04 3.7902603e-06 
-1.7641355e-04 -3.5937731e-03 9.4248520e-05 
0.0000000e+00 0.0000000e+00 0.0000000e+00 
0.0000000e+00 0.0000000e+00 0.0000000e+00 
0.0000000e+00 0.0000000e+00 0.0000000e+00 
0.0000000e+00 0.0000000e+00 0.0000000e+00 
0.0000000e+00 0.0000000e+00 0.0000000e+00 
0.0000000e+00 0.0000000e+00 0.0000000e+00 
0.0000000e+00 0.0000000e+00 0.0000000e+00 
0.0000000e+00 0.0000000e+00 0.0000000e+00 
0.0000000e+00 0.0000000e+00 0.0000000e+00 
0.0000000e+00 0.0000000e+00 0.0000000e+00 
0.0000000e+00 0.0000000e+00 0.0000000e+00 
0.0000000e+00 0.0000000e+00 0.0000000e+00 
0.0000000e+00 0.0000000e+00 0.0000000e+00 
0.0000000e+00 0.0000000e+00 0.0000000e+00 
0.0000000e+00 0.0000000e+00 0.0000000e+00 
0.0000000e+00 0.0000000e+00 0.0000000e+00 
0.0000000e+00 0.0000000e+00 0.0000000e+00 
0.0000000e+00 0.0000000e+00 0.0000000e+00 
0.0000000e+00 0.0000000e+00 0.0000000e+00 
0.0000000e+00 0.0000000e+00 0.0000000e+00 
0.0000000e+00 0.0000000e+00 0.0000000e+00 
0.0000000e+00 0.0000000e+00 0.0000000e+00 
0.0000000e+00 0.0000000e+00 0.0000000e+00 
0.0000000e+00 0.0000000e+00 0.0000000e+00 
0.0000000e+00 0.0000000e+00 0.0000000e+00 
0.0000000e+00 0.0000000e+00 0.0000000e+00 
0.0000000e+00 0.0000000e+00 0.0000000e+00 
0.0000000e+00 0.0000000e+00 0.0000000e+00 
0.0000000e+00 0.0000000e+00 0.0000000e+00 
0.0000000e+00 0.0000000e+00 0.0000000e+00 
0.0000000e+00 0.0000000e+00 0.0000000e+00 
0.0000000e+00 0.0000000e+00 0.0000000e+00 
0.0000000e+00 0.0000000e+00 0.0000000e+00 
0.0000000e+00 0.0000000e+00 0.0000000e+00 
0.0000000e+00 0.0000000e+00 0.0000000e+00 
0.0000000e+00 0.0000000e+00 0.0000000e+00 
0.0000000e+00 0.0000000e+00 0.0000000e+00 
0.0000000e+00 0.0000000e+00 0.0000000e+00 
0.0000000e+00 0.0000000e+00 0.0000000e+00 
0.0000000e+00 0.0000000e+00 0.0000000e+00 
0.0000000e+00 0.0000000e+00 0.0000000e+00 
0.0000000e+00 0.0000000e+00 0.0000000e+00 
2.3034390e-06 -1.4852541e-06 -3.2210444e-06 
-1.7658108e-07 -4.9680818e-07 1.6293467e-06 
-6.7387441e-06 1.3850290e-06 2.5246500e-06 
-1.1745402e-05 2.6043408e-06 1.0281478e-06 
-4.5277379e-06 5.8210884e-07 -3.2041448e-06 
1.3949461e-05 -2.4562946e-06 -5.3403287e-06 
3.7897502e-05 -1.0119737e-05 -1.3124665e-05 
5.7091045e-05 -1.0804591e-05 -5.5627806e-06 
4.8927588e-05 -4.6019104e-06 8.0751252e-06 
1.7518385e-05 1.1510190e-06 6.4693127e-06 
2.4376700e-06 -1.7721765e-06 2.9611704e-06 
3.8051769e-06 -3.8402936e-06 3.7609226e-07 
-1.2370128e-06 -2.3146154e-06 3.5902967e-06 
-8.2232036e-06 9.7177008e-07 7.7515216e-07 
-4.4504905e-06 2.3383923e-06 -3.0962694e-06 
4.2617471e-06 1.3180024e-06 -8.5368856e-06 
3.3789318e-05 -8.2857478e-06 -1.7677230e-05 
5.3587166e-05 -2.0903351e-05 -1.5120795e-06 
4.0502426e-05 -1.5495056e-05 1.8171289e-05 
0.0000000e+00 2.7199502e-07 0.0000000e+00 
0.0000000e+00 2.5434960e-05 0.0000000e+00 
0.0000000e+00 2.5507863e-05 0.0000000e+00 
0.0000000e+00 4.2552605e-05 0.0000000e+00 
0.0000000e+00 1.8923447e-05 0.0000000e+00 
0.0000000e+00 -3.3837267e-05 0.0000000e+00 
0.0000000e+00 -2.2194961e-04 0.0000000e+00 
0.0000000e+00 -5.9488625e-04 0.0000000e+00 
0.0000000e+00 -5.8724993e-04 0.0000000e+00 
0.0000000e+00 -1.3105028e-04 0.0000000e+00 
0.0000000e+00 4.5355780e-05 0.0000000e+00 
0.0000000e+00 -7.1556383e-06 0.0000000e+00 
0.0000000e+00 -2.6031363e-05 0.0000000e+00 
0.0000000e+00 2.2823953e-05 0.0000000e+00 
0.0000000e+00 1.2916303e-05 0.0000000e+00 
0.0000000e+00 1.0275287e-05 0.0000000e+00 
0.0000000e+00 -2.0743537e-04 0.0000000e+00 
0.0000000e+00 -5.8996823e-04 0.0000000e+00 
0.0000000e+00 -4.7227307e-04 0.0000000e+00 
2.4747724e-06 -2.3117273e-06 -5.5632945e-06 
2.0382538e-06 -2.2920151e-06 -4.1835906e-06 
4.0492843e-05 2.7650978e-05 1.9411154e-05 
6.5522509e-05 -7.5081938e-05 1.0326978e-04 
5.0112199e-06 -1.9475751e-06 -5.8553014e-06 
3.4125064e-06 -4.9601881e-06 -3.8425901e-07 
-1.6502669e-06 -2.8217144e-06 3.4502682e-06 
-7.1304476e-06 4.7584922e-06 3.6952832e-07 
-4.4712751e-06 3.5783155e-06 7.9980896e-07 
1.6019079e-05 -1.0328066e-06 -9.0788672e-06 
3.3976004e-05 -7.1319178e-06 -1.9480542e-06 
3.5915404e-05 -1.1338190e-05 -5.9945869e-06 
2.2245185e-05 -1.3126465e-06 3.0650187e-06 
1.0470771e-05 5.0393323e-06 -2.8849070e-06 
1.0522564e-05 -1.5295478e-06 2.6449570e-06 
-7.0311792e-08 -5.1760721e-06 6.7737087e-06 
-6.1467695e-06 -6.0190760e-06 2.8692093e-06 
-4.6341952e-06 -1.6568512e-06 -3.2559492e-06 
1.9292443e-06 -1.5245577e-08 -9.5262549e-06 
1.6430904e-05 4.9338660e-06 -1.0132311e-05 
3.2262178e-05 -1.9204897e-06 -4.3139657e-06 
4.4249882e-05 -1.8174276e-05 3.2094542e-06 
3.1618063e-05 -3.3883987e-06 1.2032051e-05 
3.6387307e-06 -5.4486359e-06 -4.4561466e-06 
0.0000000e+00 4.4046974e-06 0.0000000e+00 
0.0000000e+00 5.4237586e-05 0.0000000e+00 
0.0000000e+00 8.2621264e-05 0.0000000e+00 
0.0000000e+00 1.7290387e-05 0.0000000e+00 
0.0000000e+00 5.4248459e-05 0.0000000e+00 
0.0000000e+00 5.2178748e-05 0.0000000e+00 
0.0000000e+00 -5.2935915e-04 0.0000000e+00 
0.0000000e+00 -1.3297556e-03 0.0000000e+00 
0.0000000e+00 -1.2803206e-03 0.0000000e+00 
0.0000000e+00 -2.3844348e-04 0.0000000e+00 
0.0000000e+00 9.5765994e-05 0.0000000e+00 
0.0000000e+00 -1.1344438e-05 0.0000000e+00 
0.0000000e+00 -8.0182406e-05 0.0000000e+00 
0.0000000e+00 -1.7501459e-07 0.0000000e+00 
0.0000000e+00 1.3335020e-04 0.0000000e+00 
0.0000000e+00 4.7909296e-05 0.0000000e+00 
0.0000000e+00 -5.2997697e-04 0.0000000e+00 
0.0000000e+00 -1.3044091e-03 0.0000000e+00 
0.0000000e+00 -1.0594536e-03 0.0000000e+00 
5.8102771e-05 -2.1064146e-04 6.4969572e-05 
2.0306958e-05 8.1382432e-06 -1.0275069e-05 
1.5825630e-05 4.8883798e-05 -7.8549891e-07 
1.0784073e-05 8.1735219e-05 1.0539919e-05 
8.2626575e-06 6.4149950e-05 2.1951988e-05 
5.3003991e-05 3.9878771e-05 5.4595039e-05 
3.0836753e-05 5.7835714e-05 1.2405663e-04 
-2.8573282e-04 -4.8189124e-04 3.4801138e-04 
-7.5058138e-04 -1.4636074e-03 1.2957247e-04 
-6.9287117e-04 -1.5715011e-03 -2.5059251e-04 
-1.0478439e-04 -2.0201002e-04 -3.2663226e-04 
6.3716623e-05 1.0989566e-04 -7.7336026e-06 
-2.0932077e-05 -1.2134425e-05 5.3074014e-05 
-3.4603683e-05 -6.4570857e-05 -4.2366129e-05 
5.9947861e-06 1.4208927e-05 -6.0742215e-05 
7.0206035e-05 7.2594827e-05 1.2270121e-05 
2.4558074e-05 1.1479128e-04 9.0166694e-05 
-3.2990391e-04 -4.7914998e-04 3.5653319e-04 
-5.0277187e-04 -1.7243336e-03 9.4811963e-05 
-5.8238371e-04 -1.1839961e-03 -2.3127242e-04 
0.0000000e+00 3.8972239e-06 0.0000000e+00 
0.0000000e+00 1.0623303e-04 0.0000000e+00 
0.0000000e+00 6.0470004e-05 0.0000000e+00 
0.0000000e+00 4.6070427e-06 0.0000000e+00 
0.0000000e+00 9.4455710e-05 0.0000000e+00 
0.0000000e+00 1.0845528e-04 0.0000000e+00 
0.0000000e+00 -9.6238835e-04 0.0000000e+00 
0.0000000e+00 -2.5568958e-03 0.0000000e+00 
0.0000000e+00 -2.4385604e-03 0.0000000e+00 
0.0000000e+00 -4.2233101e-04 0.0000000e+00 
0.0000000e+00 1.9123804e-04 0.0000000e+00 
0.0000000e+00 -2.9480650e-05 0.0000000e+00 
0.0000000e+00 -1.1940710e-04 0.0000000e+00 
0.0000000e+00 7.4292839e-05 0.0000000e+00 
0.0000000e+00 1.6464488e-04 0.0000000e+00 
0.0000000e+00 7.2916184e-05 0.0000000e+00 
0.0000000e+00 -1.0595719e-03 0.0000000e+00 
0.0000000e+00 -2.4712887e-03 0.0000000e+00 
0.0000000e+00 -2.1183272e-03 0.0000000e+00 
4.9821147e-06 1.4782554e-06 -1.2002325e-06 
-4.1136329e-07 1.4251456e-05 3.4277041e-06 
-1.0953016e-05 6.2320405e-06 6.6254720e-06 
-1.1693612e-05 2.0050886e-05 7.0327856e-06 
6.6041066e-06 2.0445617e-05 1.6700540e-05 
2.5932672e-05 2.8167453e-05 2.7442853e-05 
5.7175559e-05 -6.3907733e-05 1.2112417e-05 
4.8077873e-05 -1.3047259e-04 -1.4330237e-05 
3.6931047e-05 -1.1794770e-04 -1.6038763e-05 
4.0049490e-05 -4.2247550e-05 -1.2521216e-05 
7.2131320e-06 2.6316000e-05 -6.0859261e-06 
-6.0124753e-06 -6.9282851e-06 9.3926604e-07 
-1.2890298e-05 -1.8615381e-05 -4.8509896e-06 
-6.4423675e-06 5.5203545e-06 -1.1356502e-05 
6.6997350e-06 1.4546161e-05 2.6929506e-06 
1.1363782e-05 3.6579553e-05 1.1597405e-05 
4.0400741e-05 -2.7540462e-05 9.2938735e-06 
5.2560601e-05 -9.6332682e-05 1.2490873e-05 
-7.0439994e-05 -1.1204681e-03 4.5309382e-05 
0.0000000e+00 0.0000000e+00 0.0000000e+00 
0.0000000e+00 0.0000000e+00 0.0000000e+00 
0.0000000e+00 0.0000000e+00 0.0000000e+00 
0.0000000e+00 0.0000000e+00 0.0000000e+00 
0.0000000e+00 0.0000000e+00 0.0000000e+00 
0.0000000e+00 0.0000000e+00 0.0000000e+00 
0.0000000e+00 0.0000000e+00 0.0000000e+00 
0.0000000e+00 0.0000000e+00 0.0000000e+00 
0.0000000e+00 0.0000000e+00 0.0000000e+00 
0.0000000e+00 0.0000000e+00 0.0000000e+00 
0.0000000e+00 0.0000000e+00 0.0000000e+00 
0.0000000e+00 0.0000000e+00 0.0000000e+00 
0.0000000e+00 0.0000000e+00 0.0000000e+00 
0.0000000e+00 0.0000000e+00 0.0000000e+00 
0.0000000e+00 0.0000000e+00 0.0000000e+00 
0.0000000e+00 0.0000000e+00 0.0000000e+00 
0.0000000e+00 0.0000000e+00 0.0000000e+00 
0.0000000e+00 0.0000000e+00 0.0000000e+00 
0.0000000e+00 0.0000000e+00 0.0000000e+00 
0.0000000e+00 0.0000000e+00 0.0000000e+00 
0.0000000e+00 0.0000000e+00 0.0000000e+00 
0.0000000e+00 0.0000000e+00 0.0000000e+00 
0.0000000e+00 0.0000000e+00 0.0000000e+00 
0.0000000e+00 0.0000000e+00 0.0000000e+00 
0.0000000e+00 0.0000000e+00 0.0000000e+00 
0.0000000e+00 0.0000000e+00 0.0000000e+00 
0.0000000e+00 0.0000000e+00 0.0000000e+00 
0.0000000e+00 0.0000000e+00 0.0000000e+00 
0.0000000e+00 0.0000000e+00 0.0000000e+00 
0.0000000e+00 0.0000000e+00 0.0000000e+00 
0.0000000e+00 0.0000000e+00 0.0000000e+00 
0.0000000e+00 0.0000000e+00 0.0000000e+00 
0.0000000e+00 0.0000000e+00 0.0000000e+00 
0.0000000e+00 0.0000000e+00 0.0000000e+00 
0.0000000e+00 0.0000000e+00 0.0000000e+00 
0.0000000e+00 0.0000000e+00 0.0000000e+00 
0.0000000e+00 0.0000000e+00 0.0000000e+00 
0.0000000e+00 0.0000000e+00 0.0000000e+00 
0.0000000e+00 0.0000000e+00 0.0000000e+00 
0.0000000e+00 0.0000000e+00 0.0000000e+00 
0.0000000e+00 0.0000000e+00 0.0000000e+00 
0.0000000e+00 0.0000000e+00 0.0000000e+00 
-3.3804265e-06 2.8325637e-06 1.4310124e-06 
1.0983315e-05 -8.1261996e-06 -7.0485053e-06 
2.8614817e-05 -9.2841037e-06 2.4683741e-06 
-5.6304634e-07 -8.1191126e-07 3.5891463e-07 
2.0773191e-06 -1.1901209e-06 1.7922832e-06 
-2.5576287e-06 -6.0097176e-07 6.0178121e-07 
-4.0702525e-06 2.3674233e-06 -9.2824827e-08 
-3.3992890e-07 1.6782267e-06 -7.8618586e-07 
8.5899883e-06 -6.6805692e-06 -1.0183294e-05 
3.1109750e-05 -1.2203825e-05 -8.7336866e-06 