# vtk DataFile Version 4.0
vtk output
ASCII
DATASET UNSTRUCTURED_GRID
POINTS 661 float
0.0000000e+00 0.0000000e+00 0.0000000e+00 
0.0000000e+00 0.0000000e+00 4.0000000e+01 
5.0000000e+00 0.0000000e+00 0.0000000e+00 
5.0000000e+00 0.0000000e+00 4.0000000e+01 
5.0000000e+00 1.0000000e+00 0.0000000e+00 
5.0000000e+00 1.0000000e+00 4.0000000e+01 
0.0000000e+00 1.0000000e+00 0.0000000e+00 
0.0000000e+00 1.0000000e+00 4.0000000e+01 
5.0000000e+00 2.0000000e+00 0.0000000e+00 
5.0000000e+00 2.0000000e+00 4.0000000e+01 
3.0000000e+00 2.0000000e+00 0.0000000e+00 
3.0000000e+00 2.0000000e+00 4.0000000e+01 
0.0000000e+00 2.0000000e+00 0.0000000e+00 
0.0000000e+00 2.0000000e+00 4.0000000e+01 
1.5000000e+00 3.0000000e+00 0.0000000e+00 
1.5000000e+00 3.0000000e+00 4.0000000e+01 
7.5000000e-01 3.0000000e+00 0.0000000e+00 
7.5000000e-01 3.0000000e+00 4.0000000e+01 
0.0000000e+00 3.0000000e+00 0.0000000e+00 
0.0000000e+00 3.0000000e+00 4.0000000e+01 
7.5000000e-01 3.0000000e+00 5.0000000e-01 
7.5000000e-01 3.0000000e+00 1.0000000e+00 
7.5000000e-01 3.0000000e+00 1.5000000e+00 
7.5000000e-01 3.0000000e+00 2.0000000e+00 
7.5000000e-01 3.0000000e+00 2.5000000e+00 
7.5000000e-01 3.0000000e+00 3.0000000e+00 
7.5000000e-01 3.0000000e+00 3.5000000e+00 
7.5000000e-01 3.0000000e+00 4.0000000e+00 
7.5000000e-01 3.0000000e+00 4.5000000e+00 
7.5000000e-01 3.0000000e+00 5.0000000e+00 
7.5000000e-01 3.0000000e+00 5.5000000e+00 
7.5000000e-01 3.0000000e+00 6.0000000e+00 
7.5000000e-01 3.0000000e+00 6.5000000e+00 
7.5000000e-01 3.0000000e+00 7.0000000e+00 
7.5000000e-01 3.0000000e+00 7.5000000e+00 
7.5000000e-01 3.0000000e+00 8.0000000e+00 
7.5000000e-01 3.0000000e+00 8.5000000e+00 
7.5000000e-01 3.0000000e+00 9.0000000e+00 
7.5000000e-01 3.0000000e+00 9.5000000e+00 
7.5000000e-01 3.0000000e+00 1.0000000e+01 
7.5000000e-01 3.0000000e+00 1.0500000e+01 
7.5000000e-01 3.0000000e+00 1.1000000e+01 
7.5000000e-01 3.0000000e+00 1.1500000e+01 
7.5000000e-01 3.0000000e+00 1.2000000e+01 
7.5000000e-01 3.0000000e+00 1.2500000e+01 
7.5000000e-01 3.0000000e+00 1.3000000e+01 
7.5000000e-01 3.0000000e+00 1.3500000e+01 
7.5000000e-01 3.0000000e+00 1.4000000e+01 
7.5000000e-01 3.0000000e+00 1.4500000e+01 
7.5000000e-01 3.0000000e+00 1.5000000e+01 
7.5000000e-01 3.0000000e+00 1.5500000e+01 
7.5000000e-01 3.0000000e+00 1.6000000e+01 
7.5000000e-01 3.0000000e+00 1.6500000e+01 
7.5000000e-01 3.0000000e+00 1.7000000e+01 
7.5000000e-01 3.0000000e+00 1.7500000e+01 
7.5000000e-01 3.0000000e+00 1.8000000e+01 
7.5000000e-01 3.0000000e+00 1.8500000e+01 
7.5000000e-01 3.0000000e+00 1.9000000e+01 
7.5000000e-01 3.0000000e+00 1.9500000e+01 
7.5000000e-01 3.0000000e+00 2.0000000e+01 
7.5000000e-01 3.0000000e+00 2.0500000e+01 
7.5000000e-01 3.0000000e+00 2.1000000e+01 
7.5000000e-01 3.0000000e+00 2.1500000e+01 
7.5000000e-01 3.0000000e+00 2.2000000e+01 
7.5000000e-01 3.0000000e+00 2.2500000e+01 
7.5000000e-01 3.0000000e+00 2.3000000e+01 
7.5000000e-01 3.0000000e+00 2.3500000e+01 
7.5000000e-01 3.0000000e+00 2.4000000e+01 
7.5000000e-01 3.0000000e+00 2.4500000e+01 
7.5000000e-01 3.0000000e+00 2.5000000e+01 
7.5000000e-01 3.0000000e+00 2.5500000e+01 
7.5000000e-01 3.0000000e+00 2.6000000e+01 
7.5000000e-01 3.0000000e+00 2.6500000e+01 
7.5000000e-01 3.0000000e+00 2.7000000e+01 
7.5000000e-01 3.0000000e+00 2.7500000e+01 
7.5000000e-01 3.0000000e+00 2.8000000e+01 
7.5000000e-01 3.0000000e+00 2.8500000e+01 
7.5000000e-01 3.0000000e+00 2.9000000e+01 
7.5000000e-01 3.0000000e+00 2.9500000e+01 
7.5000000e-01 3.0000000e+00 3.0000000e+01 
7.5000000e-01 3.0000000e+00 3.0500000e+01 
7.5000000e-01 3.0000000e+00 3.1000000e+01 
7.5000000e-01 3.0000000e+00 3.1500000e+01 
7.5000000e-01 3.0000000e+00 3.2000000e+01 
7.5000000e-01 3.0000000e+00 3.2500000e+01 
7.5000000e-01 3.0000000e+00 3.3000000e+01 
7.5000000e-01 3.0000000e+00 3.3500000e+01 
7.5000000e-01 3.0000000e+00 3.4000000e+01 
7.5000000e-01 3.0000000e+00 3.4500000e+01 
7.5000000e-01 3.0000000e+00 3.5000000e+01 
7.5000000e-01 3.0000000e+00 3.5500000e+01 
7.5000000e-01 3.0000000e+00 3.6000000e+01 
7.5000000e-01 3.0000000e+00 3.6500000e+01 
7.5000000e-01 3.0000000e+00 3.7000000e+01 
7.5000000e-01 3.0000000e+00 3.7500000e+01 
7.5000000e-01 3.0000000e+00 3.8000000e+01 
7.5000000e-01 3.0000000e+00 3.8500000e+01 
7.5000000e-01 3.0000000e+00 3.9000000e+01 
7.5000000e-01 3.0000000e+00 3.9500000e+01 
7.5000000e-01 3.0000000e+00 4.0500000e+01 
7.5000000e-01 3.0000000e+00 4.1000000e+01 
7.5000000e-01 3.0000000e+00 4.1500000e+01 
7.5000000e-01 3.0000000e+00 4.2000000e+01 
7.5000000e-01 3.0000000e+00 4.2500000e+01 
7.5000000e-01 3.0000000e+00 4.3000000e+01 
7.5000000e-01 3.0000000e+00 4.3500000e+01 
7.5000000e-01 3.0000000e+00 4.4000000e+01 
7.5000000e-01 3.0000000e+00 4.4500000e+01 
7.5000000e-01 3.0000000e+00 4.5000000e+01 
7.5000000e-01 3.0000000e+00 4.5500000e+01 
7.5000000e-01 3.0000000e+00 4.6000000e+01 
7.5000000e-01 3.0000000e+00 4.6500000e+01 
7.5000000e-01 3.0000000e+00 4.7000000e+01 
7.5000000e-01 3.0000000e+00 4.7500000e+01 
7.5000000e-01 3.0000000e+00 4.8000000e+01 
7.5000000e-01 3.0000000e+00 4.8500000e+01 
7.5000000e-01 3.0000000e+00 4.9000000e+01 
7.5000000e-01 3.0000000e+00 4.9500000e+01 
7.5000000e-01 3.0000000e+00 5.0000000e+01 
7.5000000e-01 3.0250001e+00 0.0000000e+00 
7.5000000e-01 3.0250001e+00 5.0000000e-01 
7.5000000e-01 3.0250001e+00 1.0000000e+00 
7.5000000e-01 3.0250001e+00 1.5000000e+00 
7.5000000e-01 3.0250001e+00 2.0000000e+00 
7.5000000e-01 3.0250001e+00 2.5000000e+00 
7.5000000e-01 3.0250001e+00 3.0000000e+00 
7.5000000e-01 3.0250001e+00 3.5000000e+00 
7.5000000e-01 3.0250001e+00 4.0000000e+00 
7.5000000e-01 3.0250001e+00 4.5000000e+00 
7.5000000e-01 3.0250001e+00 5.0000000e+00 
7.5000000e-01 3.0250001e+00 5.5000000e+00 
7.5000000e-01 3.0250001e+00 6.0000000e+00 
7.5000000e-01 3.0250001e+00 6.5000000e+00 
7.5000000e-01 3.0250001e+00 7.0000000e+00 
7.5000000e-01 3.0250001e+00 7.5000000e+00 
7.5000000e-01 3.0250001e+00 8.0000000e+00 
7.5000000e-01 3.0250001e+00 8.5000000e+00 
7.5000000e-01 3.0250001e+00 9.0000000e+00 
7.5000000e-01 3.0250001e+00 9.5000000e+00 
7.5000000e-01 3.0250001e+00 1.0000000e+01 
7.5000000e-01 3.0250001e+00 1.0500000e+01 
7.5000000e-01 3.0250001e+00 1.1000000e+01 
7.5000000e-01 3.0250001e+00 1.1500000e+01 
7.5000000e-01 3.0250001e+00 1.2000000e+01 
7.5000000e-01 3.0250001e+00 1.2500000e+01 
7.5000000e-01 3.0250001e+00 1.3000000e+01 
7.5000000e-01 3.0250001e+00 1.3500000e+01 
7.5000000e-01 3.0250001e+00 1.4000000e+01 
7.5000000e-01 3.0250001e+00 1.4500000e+01 
7.5000000e-01 3.0250001e+00 1.5000000e+01 
7.5000000e-01 3.0250001e+00 1.5500000e+01 
7.5000000e-01 3.0250001e+00 1.6000000e+01 
7.5000000e-01 3.0250001e+00 1.6500000e+01 
7.5000000e-01 3.0250001e+00 1.7000000e+01 
7.5000000e-01 3.0250001e+00 1.7500000e+01 
7.5000000e-01 3.0250001e+00 1.8000000e+01 
7.5000000e-01 3.0250001e+00 1.8500000e+01 
7.5000000e-01 3.0250001e+00 1.9000000e+01 
7.5000000e-01 3.0250001e+00 1.9500000e+01 
7.5000000e-01 3.0250001e+00 2.0000000e+01 
7.5000000e-01 3.0250001e+00 2.0500000e+01 
7.5000000e-01 3.0250001e+00 2.1000000e+01 
7.5000000e-01 3.0250001e+00 2.1500000e+01 
7.5000000e-01 3.0250001e+00 2.2000000e+01 
7.5000000e-01 3.0250001e+00 2.2500000e+01 
7.5000000e-01 3.0250001e+00 2.3000000e+01 
7.5000000e-01 3.0250001e+00 2.3500000e+01 
7.5000000e-01 3.0250001e+00 2.4000000e+01 
7.5000000e-01 3.0250001e+00 2.4500000e+01 
7.5000000e-01 3.0250001e+00 2.5000000e+01 
7.5000000e-01 3.0250001e+00 2.5500000e+01 
7.5000000e-01 3.0250001e+00 2.6000000e+01 
7.5000000e-01 3.0250001e+00 2.6500000e+01 
7.5000000e-01 3.0250001e+00 2.7000000e+01 
7.5000000e-01 3.0250001e+00 2.7500000e+01 
7.5000000e-01 3.0250001e+00 2.8000000e+01 
7.5000000e-01 3.0250001e+00 2.8500000e+01 
7.5000000e-01 3.0250001e+00 2.9000000e+01 
7.5000000e-01 3.0250001e+00 2.9500000e+01 
7.5000000e-01 3.0250001e+00 3.0000000e+01 
7.5000000e-01 3.0250001e+00 3.0500000e+01 
7.5000000e-01 3.0250001e+00 3.1000000e+01 
7.5000000e-01 3.0250001e+00 3.1500000e+01 
7.5000000e-01 3.0250001e+00 3.2000000e+01 
7.5000000e-01 3.0250001e+00 3.2500000e+01 
7.5000000e-01 3.0250001e+00 3.3000000e+01 
7.5000000e-01 3.0250001e+00 3.3500000e+01 
7.5000000e-01 3.0250001e+00 3.4000000e+01 
7.5000000e-01 3.0250001e+00 3.4500000e+01 
7.5000000e-01 3.0250001e+00 3.5000000e+01 
7.5000000e-01 3.0250001e+00 3.5500000e+01 
7.5000000e-01 3.0250001e+00 3.6000000e+01 
7.5000000e-01 3.0250001e+00 3.6500000e+01 
7.5000000e-01 3.0250001e+00 3.7000000e+01 
7.5000000e-01 3.0250001e+00 3.7500000e+01 
7.5000000e-01 3.0250001e+00 3.8000000e+01 
7.5000000e-01 3.0250001e+00 3.8500000e+01 
7.5000000e-01 3.0250001e+00 3.9000000e+01 
7.5000000e-01 3.0250001e+00 3.9500000e+01 
7.5000000e-01 3.0250001e+00 4.0000000e+01 
7.5000000e-01 3.0250001e+00 4.0500000e+01 
7.5000000e-01 3.0250001e+00 4.1000000e+01 
7.5000000e-01 3.0250001e+00 4.1500000e+01 
7.5000000e-01 3.0250001e+00 4.2000000e+01 
7.5000000e-01 3.0250001e+00 4.2500000e+01 
7.5000000e-01 3.0250001e+00 4.3000000e+01 
7.5000000e-01 3.0250001e+00 4.3500000e+01 
7.5000000e-01 3.0250001e+00 4.4000000e+01 
7.5000000e-01 3.0250001e+00 4.4500000e+01 
7.5000000e-01 3.0250001e+00 4.5000000e+01 
7.5000000e-01 3.0250001e+00 4.5500000e+01 
7.5000000e-01 3.0250001e+00 4.6000000e+01 
7.5000000e-01 3.0250001e+00 4.6500000e+01 
7.5000000e-01 3.0250001e+00 4.7000000e+01 
7.5000000e-01 3.0250001e+00 4.7500000e+01 
7.5000000e-01 3.0250001e+00 4.8000000e+01 
7.5000000e-01 3.0250001e+00 4.8500000e+01 
7.5000000e-01 3.0250001e+00 4.9000000e+01 
7.5000000e-01 3.0250001e+00 4.9500000e+01 
7.5000000e-01 3.0250001e+00 5.0000000e+01 
3.0000000e+00 2.0000000e+00 3.6000000e+01 
8.0487806e-01 3.0000000e+00 3.6000000e+01 
0.0000000e+00 0.0000000e+00 2.0000000e+00 
0.0000000e+00 0.0000000e+00 4.0000000e+00 
0.0000000e+00 0.0000000e+00 6.0000000e+00 
0.0000000e+00 0.0000000e+00 8.0000000e+00 
0.0000000e+00 0.0000000e+00 1.0000000e+01 
0.0000000e+00 0.0000000e+00 1.2000000e+01 
0.0000000e+00 0.0000000e+00 1.4000000e+01 
0.0000000e+00 0.0000000e+00 1.6000000e+01 
[...]
POINT_DATA 661
FIELD FieldData 3
DISPLACEMENT 3 661  float
0.0000000e+00 0.0000000e+00 0.0000000e+00 
0.0000000e+00 0.0000000e+00 0.0000000e+00 
0.0000000e+00 0.0000000e+00 0.0000000e+00 
0.0000000e+00 0.0000000e+00 0.0000000e+00 
3.2450779e-07 -1.4295691e-06 1.6073310e-06 
-2.8567356e-07 -2.5254233e-06 -2.3949851e-06 
0.0000000e+00 1.7271899e-05 0.0000000e+00 
0.0000000e+00 3.0384494e-05 0.0000000e+00 
2.7186300e-06 -3.3322922e-06 -3.4408191e-07 
1.1434961e-06 -7.3565811e-06 4.4914013e-06 
-3.3183724e-07 5.9682166e-06 3.8900098e-06 
-2.9867867e-06 2.3718112e-06 9.9461874e-07 
0.0000000e+00 3.3201544e-05 0.0000000e+00 
0.0000000e+00 5.9389124e-05 0.0000000e+00 
8.4830863e-06 3.9107192e-05 2.6870437e-05 
2.3493882e-05 4.7341877e-05 4.4445724e-06 
3.1738247e-05 6.5189546e-05 3.4815934e-05 
2.5384872e-05 8.1511957e-05 1.0386604e-05 
0.0000000e+00 4.7465132e-05 0.0000000e+00 
0.0000000e+00 8.5853841e-05 0.0000000e+00 
-4.9388495e-06 6.2882747e-05 6.4632827e-06 
-1.3559919e-05 5.7767902e-05 -5.2278642e-06 
-1.5226599e-05 5.1701489e-05 -1.3795602e-05 
-1.3145273e-05 4.6139525e-05 -2.3790775e-05 
-7.5558155e-06 4.3102555e-05 -3.1299707e-05 
-4.0955965e-06 4.4121942e-05 -3.6379421e-05 
6.4232072e-06 5.0912120e-05 -5.1027582e-05 
1.8782339e-05 6.4813437e-05 -6.2640174e-05 
2.5978421e-05 8.6678032e-05 -5.7593916e-05 
3.2526877e-05 1.1429003e-04 -4.5187775e-05 
3.6631507e-05 1.4542084e-04 -3.5336700e-05 
4.7009547e-05 1.7813350e-04 -2.0288728e-05 
6.0725215e-05 2.0881461e-04 -4.2177508e-06 
6.6085289e-05 2.2959786e-04 1.6892009e-05 
5.1857289e-05 2.2691823e-04 5.0314338e-05 
2.7707438e-05 1.7239247e-04 8.4771018e-05 
-1.8607134e-05 2.3572555e-05 1.2754228e-04 
-3.2741576e-05 -2.6153331e-04 1.6769543e-04 
-6.2564002e-05 -7.4733666e-04 2.2733569e-04 
-1.2650350e-04 -1.4765416e-03 1.7864503e-04 
-2.8730469e-04 -2.4663152e-03 2.5763660e-04 
-3.0373386e-04 -3.5310523e-03 2.2615612e-04 
-1.9880364e-04 -4.3560285e-03 1.5291161e-04 
-1.7142210e-04 -4.3763528e-03 1.4688056e-04 
-3.0431757e-04 -4.1634869e-03 5.5495111e-05 
-3.7094788e-04 -4.0951548e-03 1.8119052e-05 
-2.5181842e-04 -4.2881807e-03 -3.0458241e-05 
-8.9154884e-05 -4.2537404e-03 -7.6974648e-05 
-1.0909222e-04 -3.5152331e-03 -1.7142817e-04 
-1.9701716e-04 -2.4521116e-03 -1.9222872e-04 
-1.8992471e-04 -1.5263956e-03 -1.8429407e-04 
-6.5326953e-05 -8.2086696e-04 -1.2213907e-04 
-3.0039027e-05 -3.7009257e-04 -1.5502340e-04 
-1.7645036e-05 -1.1001582e-04 -1.2190138e-04 
-1.2859055e-05 1.8831252e-05 -9.8007811e-05 
3.7221723e-06 6.6904293e-05 -7.2820025e-05 
1.3641137e-05 6.7443681e-05 -4.3380052e-05 
1.7188535e-05 4.7559213e-05 -2.2240705e-05 
1.0385431e-05 2.5340556e-05 -2.2086613e-05 
2.6878570e-06 7.6445895e-06 -3.2744927e-05 
-3.5943547e-06 -1.7877264e-06 -4.4497763e-05 
-4.5247666e-06 -7.3836986e-06 -4.9055714e-05 
-8.0881191e-06 -1.3985713e-05 -4.0909126e-05 
-1.5553218e-05 -2.2942640e-05 -2.3357683e-05 
-1.3507231e-05 -3.3842680e-05 -9.7841837e-07 
-1.2200580e-05 -4.1924326e-05 1.4698215e-05 
-1.1374343e-05 -4.1748895e-05 2.1723323e-05 
-7.4400941e-06 -2.9398834e-05 2.2248212e-05 
3.4857301e-06 -1.5455279e-06 2.0052289e-06 
7.6789529e-06 3.8289054e-05 -2.0971562e-05 
2.3160135e-05 8.5700223e-05 -4.7007597e-05 
4.2902237e-05 1.3383255e-04 -6.4790962e-05 
5.1449610e-05 1.7615482e-04 -6.0609869e-05 
5.8075890e-05 2.0289463e-04 -3.9314666e-05 
4.6636487e-05 2.0027225e-04 -9.8560586e-06 
2.5846588e-05 1.4153446e-04 2.5742625e-05 
-1.7109865e-05 -1.6325888e-05 8.4104096e-05 
-2.6684878e-05 -3.1497769e-04 1.3718959e-04 
-5.1004761e-05 -8.1858889e-04 1.9631592e-04 
-1.1200755e-04 -1.5620668e-03 1.4343814e-04 
-2.6401336e-04 -2.5470878e-03 2.2396730e-04 
-2.7757045e-04 -3.5521637e-03 1.9011955e-04 
-1.7371602e-04 -4.2077694e-03 1.1917899e-04 
-1.2713353e-04 -4.1100662e-03 1.2659337e-04 
-2.5927165e-04 -3.9239759e-03 5.2290805e-05 
-3.1554370e-04 -3.9348616e-03 3.4482600e-05 
-2.0380759e-04 -4.1757179e-03 1.8949447e-06 
-6.7947010e-05 -4.0623867e-03 -1.1074041e-05 
-1.0862513e-04 -3.2559137e-03 -1.3016135e-04 
-2.0855338e-04 -2.2241131e-03 -1.6814745e-04 
-2.1200045e-04 -1.3539424e-03 -1.7811680e-04 
-1.2825320e-04 -6.9945183e-04 -1.5349741e-04 
-5.6261408e-05 -2.7906726e-04 -1.5603333e-04 
-3.6099038e-05 -3.4029919e-05 -1.3452183e-04 
-2.6471271e-05 9.5163829e-05 -1.2662828e-04 
-1.2162891e-06 1.5158641e-04 -1.1211105e-04 
1.5296429e-05 1.6314095e-04 -8.2097315e-05 
2.9021257e-05 1.4898798e-04 -5.2043510e-05 
2.6784244e-05 1.2132008e-04 -3.3877746e-05 
0.0000000e+00 3.5210924e-05 0.0000000e+00 
0.0000000e+00 -1.2716232e-05 0.0000000e+00 
0.0000000e+00 -5.6280522e-05 0.0000000e+00 
0.0000000e+00 -8.9531866e-05 0.0000000e+00 
0.0000000e+00 -1.0763317e-04 0.0000000e+00 
0.0000000e+00 -1.0809672e-04 0.0000000e+00 
0.0000000e+00 -9.1544498e-05 0.0000000e+00 
0.0000000e+00 -6.1630781e-05 0.0000000e+00 
0.0000000e+00 -2.4205101e-05 0.0000000e+00 
0.0000000e+00 1.3915589e-05 0.0000000e+00 
0.0000000e+00 4.6210054e-05 0.0000000e+00 
0.0000000e+00 6.7543202e-05 0.0000000e+00 
0.0000000e+00 7.4956304e-05 0.0000000e+00 
0.0000000e+00 6.8041241e-05 0.0000000e+00 
0.0000000e+00 4.8844919e-05 0.0000000e+00 
0.0000000e+00 2.1385835e-05 0.0000000e+00 
0.0000000e+00 -9.0450822e-06 0.0000000e+00 
0.0000000e+00 -3.6674057e-05 0.0000000e+00 
0.0000000e+00 -5.6099918e-05 0.0000000e+00 
0.0000000e+00 -6.3180043e-05 0.0000000e+00 
0.0000000e+00 6.5111155e-05 0.0000000e+00 
0.0000000e+00 6.2923777e-05 0.0000000e+00 
0.0000000e+00 5.7801681e-05 0.0000000e+00 
0.0000000e+00 5.1666801e-05 0.0000000e+00 
0.0000000e+00 4.6148758e-05 0.0000000e+00 
0.0000000e+00 4.3090389e-05 0.0000000e+00 
0.0000000e+00 4.4139993e-05 0.0000000e+00 
0.0000000e+00 5.0947881e-05 0.0000000e+00 
0.0000000e+00 6.4978711e-05 0.0000000e+00 
0.0000000e+00 8.6691602e-05 0.0000000e+00 
0.0000000e+00 1.1428084e-04 0.0000000e+00 
0.0000000e+00 1.4551822e-04 0.0000000e+00 
0.0000000e+00 1.7836042e-04 0.0000000e+00 
0.0000000e+00 2.0915300e-04 0.0000000e+00 
0.0000000e+00 2.3047306e-04 0.0000000e+00 
0.0000000e+00 2.2769140e-04 0.0000000e+00 
0.0000000e+00 1.7249172e-04 0.0000000e+00 
0.0000000e+00 2.4796049e-05 0.0000000e+00 
0.0000000e+00 -2.6227461e-04 0.0000000e+00 
0.0000000e+00 -7.4893277e-04 0.0000000e+00 
0.0000000e+00 -1.4863022e-03 0.0000000e+00 
0.0000000e+00 -2.4741674e-03 0.0000000e+00 
0.0000000e+00 -3.5638958e-03 0.0000000e+00 
0.0000000e+00 -4.3807216e-03 0.0000000e+00 
0.0000000e+00 -4.4072503e-03 0.0000000e+00 
0.0000000e+00 -4.1775946e-03 0.0000000e+00 
0.0000000e+00 -4.1256906e-03 0.0000000e+00 
0.0000000e+00 -4.3078461e-03 0.0000000e+00 
0.0000000e+00 -4.2877980e-03 0.0000000e+00 
0.0000000e+00 -3.5331585e-03 0.0000000e+00 
0.0000000e+00 -2.4705087e-03 0.0000000e+00 
0.0000000e+00 -1.5286320e-03 0.0000000e+00 
0.0000000e+00 -8.2505640e-04 0.0000000e+00 
0.0000000e+00 -3.6984682e-04 0.0000000e+00 
0.0000000e+00 -1.0923670e-04 0.0000000e+00 
0.0000000e+00 1.9789610e-05 0.0000000e+00 
0.0000000e+00 6.7255445e-05 0.0000000e+00 
0.0000000e+00 6.7909554e-05 0.0000000e+00 
0.0000000e+00 4.8135298e-05 0.0000000e+00 
0.0000000e+00 2.5502897e-05 0.0000000e+00 
0.0000000e+00 8.0235759e-06 0.0000000e+00 
0.0000000e+00 -1.7834484e-06 0.0000000e+00 
0.0000000e+00 -7.5887870e-06 0.0000000e+00 
0.0000000e+00 -1.4074069e-05 0.0000000e+00 
0.0000000e+00 -2.3133640e-05 0.0000000e+00 
0.0000000e+00 -3.3872955e-05 0.0000000e+00 
0.0000000e+00 -4.1852127e-05 0.0000000e+00 
0.0000000e+00 -4.1725845e-05 0.0000000e+00 
0.0000000e+00 -2.9073974e-05 0.0000000e+00 
0.0000000e+00 -1.4940939e-06 0.0000000e+00 
0.0000000e+00 3.8407663e-05 0.0000000e+00 
0.0000000e+00 8.5694759e-05 0.0000000e+00 
0.0000000e+00 1.3397822e-04 0.0000000e+00 
0.0000000e+00 1.7638963e-04 0.0000000e+00 
0.0000000e+00 2.0365078e-04 0.0000000e+00 
0.0000000e+00 2.0114952e-04 0.0000000e+00 
0.0000000e+00 1.4163945e-04 0.0000000e+00 
0.0000000e+00 -1.5085016e-05 0.0000000e+00 
0.0000000e+00 -3.1610249e-04 0.0000000e+00 
0.0000000e+00 -8.2061742e-04 0.0000000e+00 
0.0000000e+00 -1.5728677e-03 0.0000000e+00 
0.0000000e+00 -2.5562339e-03 0.0000000e+00 
0.0000000e+00 -3.5873025e-03 0.0000000e+00 
0.0000000e+00 -4.2319032e-03 0.0000000e+00 
0.0000000e+00 -4.1397521e-03 0.0000000e+00 
0.0000000e+00 -3.9375424e-03 0.0000000e+00 
0.0000000e+00 -3.9662751e-03 0.0000000e+00 
0.0000000e+00 -4.1967919e-03 0.0000000e+00 
0.0000000e+00 -4.0959828e-03 0.0000000e+00 
0.0000000e+00 -3.2720154e-03 0.0000000e+00 
0.0000000e+00 -2.2400594e-03 0.0000000e+00 
0.0000000e+00 -1.3555305e-03 0.0000000e+00 
0.0000000e+00 -7.0268725e-04 0.0000000e+00 
0.0000000e+00 -2.7907445e-04 0.0000000e+00 
0.0000000e+00 -3.2922188e-05 0.0000000e+00 
0.0000000e+00 9.6032098e-05 0.0000000e+00 
0.0000000e+00 1.5202818e-04 0.0000000e+00 
0.0000000e+00 1.6353744e-04 0.0000000e+00 
0.0000000e+00 1.4956469e-04 0.0000000e+00 
0.0000000e+00 1.2112502e-04 0.0000000e+00 
0.0000000e+00 8.1538208e-05 0.0000000e+00 
0.0000000e+00 3.5167668e-05 0.0000000e+00 
0.0000000e+00 -1.2720512e-05 0.0000000e+00 
0.0000000e+00 -5.6228568e-05 0.0000000e+00 
0.0000000e+00 -8.9423702e-05 0.0000000e+00 
0.0000000e+00 -1.0749404e-04 0.0000000e+00 
0.0000000e+00 -1.0796484e-04 0.0000000e+00 
0.0000000e+00 -9.1451890e-05 0.0000000e+00 
0.0000000e+00 -6.1593208e-05 0.0000000e+00 
0.0000000e+00 -2.4223807e-05 0.0000000e+00 
0.0000000e+00 1.3848810e-05 0.0000000e+00 
0.0000000e+00 4.6110541e-05 0.0000000e+00 
0.0000000e+00 6.7431756e-05 0.0000000e+00 
0.0000000e+00 7.4854070e-05 0.0000000e+00 
0.0000000e+00 6.7962879e-05 0.0000000e+00 
0.0000000e+00 4.8796286e-05 0.0000000e+00 
0.0000000e+00 2.1368482e-05 0.0000000e+00 
0.0000000e+00 -9.0285575e-06 0.0000000e+00 
0.0000000e+00 -3.6621263e-05 0.0000000e+00 
0.0000000e+00 -5.6016124e-05 0.0000000e+00 
0.0000000e+00 -6.3083397e-05 0.0000000e+00 
2.3184308e-05 -4.3275882e-05 2.9395121e-06 
-1.0464228e-04 -6.2892347e-04 -1.3002672e-04 
0.0000000e+00 0.0000000e+00 0.0000000e+00 
0.0000000e+00 0.0000000e+00 0.0000000e+00 
0.0000000e+00 0.0000000e+00 0.0000000e+00 
0.0000000e+00 0.0000000e+00 0.0000000e+00 
0.0000000e+00 0.0000000e+00 0.0000000e+00 
0.0000000e+00 0.0000000e+00 0.0000000e+00 
0.0000000e+00 0.0000000e+00 0.0000000e+00 
0.0000000e+00 0.0000000e+00 0.0000000e+00 
0.0000000e+00 0.0000000e+00 0.0000000e+00 
0.0000000e+00 0.0000000e+00 0.0000000e+00 
0.0000000e+00 0.0000000e+00 0.0000000e+00 
0.0000000e+00 0.0000000e+00 0.0000000e+00 
0.0000000e+00 0.0000000e+00 0.0000000e+00 
0.0000000e+00 0.0000000e+00 0.0000000e+00 
0.0000000e+00 0.0000000e+00 0.0000000e+00 
0.0000000e+00 0.0000000e+00 0.0000000e+00 
0.0000000e+00 0.0000000e+00 0.0000000e+00 
0.0000000e+00 0.0000000e+00 0.0000000e+00 
0.0000000e+00 0.0000000e+00 0.0000000e+00 
0.0000000e+00 0.0000000e+00 0.0000000e+00 
0.0000000e+00 0.0000000e+00 0.0000000e+00 
0.0000000e+00 0.0000000e+00 0.0000000e+00 
0.0000000e+00 0.0000000e+00 0.0000000e+00 
0.0000000e+00 0.0000000e+00 0.0000000e+00 
0.0000000e+00 0.0000000e+00 0.0000000e+00 
0.0000000e+00 0.0000000e+00 0.0000000e+00 
0.0000000e+00 0.0000000e+00 0.0000000e+00 
0.0000000e+00 0.0000000e+00 0.0000000e+00 
0.0000000e+00 0.0000000e+00 0.0000000e+00 
0.0000000e+00 0.0000000e+00 0.0000000e+00 
0.0000000e+00 0.0000000e+00 0.0000000e+00 
0.0000000e+00 0.0000000e+00 0.0000000e+00 
0.0000000e+00 0.0000000e+00 0.0000000e+00 
0.0000000e+00 0.0000000e+00 0.0000000e+00 
0.0000000e+00 0.0000000e+00 0.0000000e+00 
0.0000000e+00 0.0000000e+00 0.0000000e+00 
0.0000000e+00 0.0000000e+00 0.0000000e+00 
0.0000000e+00 0.0000000e+00 0.0000000e+00 
0.0000000e+00 0.0000000e+00 0.0000000e+00 
0.0000000e+00 0.0000000e+00 0.0000000e+00 
0.0000000e+00 0.0000000e+00 0.0000000e+00 
0.0000000e+00 0.0000000e+00 0.0000000e+00 
-3.2871683e-06 4.4505444e-07 2.4141383e-07 
-7.1257623e-06 3.6749987e-07 -4.0680911e-06 
-2.3537766e-06 5.2476850e-07 -1.0270195e-05 
8.9604118e-06 -1.0779393e-06 -1.0204504e-05 
3.2883505e-05 -6.2599388e-06 -1.2304688e-05 
5.3730542e-05 -7.0224200e-06 6.8099695e-08 
4.5737848e-05 -3.8143298e-06 1.3356368e-05 
2.1495940e-05 -3.4315885e-06 8.3987388e-06 
8.1749577e-06 -2.1603298e-06 2.8097572e-06 
2.6694879e-06 -4.6555115e-07 2.0910818e-06 
-3.1464087e-06 -3.4250770e-06 4.2394540e-06 
-6.4676146e-06 -1.5630981e-06 5.9415424e-07 
-5.6684898e-06 4.1015492e-06 -1.5779278e-06 
6.2962836e-06 -9.3288713e-07 -8.2864108e-06 
3.2543820e-05 -9.3168001e-06 -1.0272984e-05 
5.3326250e-05 -9.2356950e-06 1.9270769e-06 
5.4399996e-05 -1.0459409e-05 1.3844779e-05 
2.1615728e-05 -7.4181025e-06 1.2136697e-05 
-5.3898693e-06 4.9479927e-06 -5.7048948e-07 
0.0000000e+00 1.7671922e-05 0.0000000e+00 
0.0000000e+00 2.4010827e-05 0.0000000e+00 
0.0000000e+00 6.2186424e-05 0.0000000e+00 
0.0000000e+00 3.6107234e-05 0.0000000e+00 
0.0000000e+00 -2.2647285e-04 0.0000000e+00 
0.0000000e+00 -6.1206194e-04 0.0000000e+00 
0.0000000e+00 -5.3734327e-04 0.0000000e+00 
0.0000000e+00 -1.5724216e-04 0.0000000e+00 
0.0000000e+00 5.4113575e-06 0.0000000e+00 
0.0000000e+00 -5.6214949e-06 0.0000000e+00 
0.0000000e+00 -5.5593791e-06 0.0000000e+00 
0.0000000e+00 -1.3585274e-05 0.0000000e+00 
0.0000000e+00 4.8548787e-05 0.0000000e+00 
0.0000000e+00 2.9461191e-05 0.0000000e+00 
0.0000000e+00 -2.2141435e-04 0.0000000e+00 
0.0000000e+00 -5.5451284e-04 0.0000000e+00 
0.0000000e+00 -5.1031524e-04 0.0000000e+00 
0.0000000e+00 -1.5690060e-04 0.0000000e+00 
0.0000000e+00 3.1847183e-05 0.0000000e+00 
-2.6222428e-06 2.0825642e-06 3.2449432e-08 
-2.3201826e-06 1.0935893e-05 3.1452448e-06 
-3.3212809e-06 -7.7474488e-07 1.5450162e-06 
-7.5918301e-06 1.8721976e-05 -9.6227595e-06 
-1.8923093e-06 -4.3591191e-07 4.2991476e-07 
-5.4819388e-06 6.9169766e-07 -5.5292667e-06 
2.1699834e-06 5.4677241e-07 -1.4688240e-05 
2.2766350e-05 -3.8668245e-06 -1.5720254e-05 
3.1717464e-05 -4.7491371e-06 -1.3903460e-06 
3.0145155e-05 -4.0311793e-06 4.6734831e-06 
1.9408912e-05 6.5394971e-07 1.2403854e-05 
9.0964440e-06 7.4052116e-07 2.2537067e-06 
8.8548095e-06 -1.5676707e-06 7.4667742e-07 
1.5585309e-06 -1.7413254e-06 3.5779151e-06 
-4.1085141e-06 -6.7768910e-06 5.5053633e-06 
-7.0127785e-06 -2.1520777e-06 -3.3474359e-06 
-2.3510240e-06 5.3734657e-06 -7.0855667e-06 
2.1663684e-05 -2.1761557e-06 -8.1603594e-06 
3.4160556e-05 -8.8785564e-06 -6.9041465e-07 
3.9128110e-05 -7.5376051e-06 7.3278666e-06 
3.2160598e-05 -7.6318838e-06 1.7121351e-05 
9.9499084e-06 -1.7258570e-06 5.7799792e-07 
-5.7733396e-06 4.3540649e-06 -2.5164754e-06 
-1.3346546e-06 2.1638649e-05 6.9800385e-06 
0.0000000e+00 3.3528828e-05 0.0000000e+00 
0.0000000e+00 4.0818490e-05 0.0000000e+00 
0.0000000e+00 1.0613342e-04 0.0000000e+00 
0.0000000e+00 8.1801030e-05 0.0000000e+00 
0.0000000e+00 -4.7290578e-04 0.0000000e+00 
0.0000000e+00 -1.3383005e-03 0.0000000e+00 
0.0000000e+00 -1.1851051e-03 0.0000000e+00 
0.0000000e+00 -2.9464607e-04 0.0000000e+00 
0.0000000e+00 2.3603807e-05 0.0000000e+00 
0.0000000e+00 -1.3118038e-05 0.0000000e+00 
0.0000000e+00 -6.2724539e-06 0.0000000e+00 
0.0000000e+00 -2.7129896e-05 0.0000000e+00 
0.0000000e+00 9.1879665e-05 0.0000000e+00 
0.0000000e+00 6.5910157e-05 0.0000000e+00 
0.0000000e+00 -4.8132174e-04 0.0000000e+00 
0.0000000e+00 -1.2274316e-03 0.0000000e+00 
0.0000000e+00 -1.1070487e-03 0.0000000e+00 
0.0000000e+00 -2.8446162e-04 0.0000000e+00 
0.0000000e+00 7.3072166e-05 0.0000000e+00 
-2.1059720e-06 3.6533853e-05 -1.9438430e-05 
-9.5307278e-06 2.8027340e-05 -9.5836231e-06 
2.0116635e-05 3.4351324e-05 -8.7491018e-05 
7.3237847e-05 1.0370765e-04 -2.8126660e-05 
5.4244789e-05 1.4837034e-04 1.3350802e-04 
-2.9052494e-04 -4.5122503e-04 4.0227154e-04 
-7.4727158e-04 -1.4906612e-03 1.5343196e-04 
-6.3618156e-04 -1.4756956e-03 -1.6500676e-04 
-1.4063483e-04 -2.4362087e-04 -2.4647909e-04 
1.4550686e-05 3.4195480e-05 -8.3589213e-05 
4.6628038e-06 -3.9676870e-06 -2.8253624e-05 
-2.1800772e-05 -2.1091788e-05 -7.2412654e-06 
-1.1222865e-05 -2.6962563e-05 7.9154524e-06 
6.8372225e-05 6.0546339e-05 -8.9030422e-05 
4.8671915e-05 1.4030490e-04 7.5293872e-05 
-2.9236858e-04 -4.6645984e-04 3.5769050e-04 
-6.6765270e-04 -1.3324871e-03 1.1361379e-04 
-5.9737632e-04 -1.3822486e-03 -8.2806422e-05 
-1.3685101e-04 -2.8536725e-04 -2.1638395e-04 
8.1153721e-06 8.3782892e-05 -1.4423070e-04 
0.0000000e+00 5.2200307e-05 0.0000000e+00 
0.0000000e+00 5.0180304e-05 0.0000000e+00 
0.0000000e+00 1.5104056e-04 0.0000000e+00 
0.0000000e+00 1.6904598e-04 0.0000000e+00 
0.0000000e+00 -8.7942107e-04 0.0000000e+00 
0.0000000e+00 -2.5525435e-03 0.0000000e+00 
0.0000000e+00 -2.2361788e-03 0.0000000e+00 
0.0000000e+00 -4.9888075e-04 0.0000000e+00 
0.0000000e+00 6.6323868e-05 0.0000000e+00 
0.0000000e+00 -1.5770866e-05 0.0000000e+00 
0.0000000e+00 -7.3857727e-06 0.0000000e+00 
0.0000000e+00 -4.8616046e-05 0.0000000e+00 
0.0000000e+00 1.3583961e-04 0.0000000e+00 
0.0000000e+00 1.3662330e-04 0.0000000e+00 
0.0000000e+00 -9.3364652e-04 0.0000000e+00 
0.0000000e+00 -2.3901057e-03 0.0000000e+00 
0.0000000e+00 -2.1020714e-03 0.0000000e+00 
0.0000000e+00 -4.3747071e-04 0.0000000e+00 
0.0000000e+00 1.3652245e-04 0.0000000e+00 
-6.7902511e-06 2.6605717e-06 -3.0378692e-06 
-3.8378380e-06 8.3476516e-06 -1.6917375e-05 
1.0927633e-05 2.6177382e-05 -5.2602345e-06 
2.5206777e-05 5.2865173e-05 2.4682104e-05 
5.4690146e-05 -5.1639170e-05 1.7761582e-05 
5.2020612e-05 -1.2544378e-04 5.3938743e-07 
4.1240375e-05 -1.1316485e-04 5.9587915e-06 
3.3740384e-05 -5.4583321e-05 -1.2515372e-06 
5.4982497e-06 6.5825352e-06 -2.0707688e-05 
-9.8309260e-07 -3.6328252e-06 -1.5164578e-05 
-1.6933549e-05 -5.6033969e-06 -3.3179133e-06 
-9.7489610e-06 -4.9247433e-06 -5.8776759e-06 
1.0044574e-05 1.6664617e-05 -8.1289527e-06 
1.6305919e-05 4.7747380e-05 1.0738996e-05 
5.8942293e-05 -4.6617155e-05 1.1939111e-05 
6.6364781e-05 -9.8186480e-05 8.5300499e-06 
4.9333947e-05 -1.0339760e-04 2.5695512e-05 
-7.5022394e-06 1.1401168e-05 -2.3355289e-05 
-3.0489397e-05 -2.2590863e-04 -9.8193828e-05 
0.0000000e+00 0.0000000e+00 0.0000000e+00 
0.0000000e+00 0.0000000e+00 0.0000000e+00 
0.0000000e+00 0.0000000e+00 0.0000000e+00 
0.0000000e+00 0.0000000e+00 0.0000000e+00 
0.0000000e+00 0.0000000e+00 0.0000000e+00 
0.0000000e+00 0.0000000e+00 0.0000000e+00 
0.0000000e+00 0.0000000e+00 0.0000000e+00 
0.0000000e+00 0.0000000e+00 0.0000000e+00 
0.0000000e+00 0.0000000e+00 0.0000000e+00 
0.0000000e+00 0.0000000e+00 0.0000000e+00 
0.0000000e+00 0.0000000e+00 0.0000000e+00 
0.0000000e+00 0.0000000e+00 0.0000000e+00 
0.0000000e+00 0.0000000e+00 0.0000000e+00 
0.0000000e+00 0.0000000e+00 0.0000000e+00 
0.0000000e+00 0.0000000e+00 0.0000000e+00 
0.0000000e+00 0.0000000e+00 0.0000000e+00 
0.0000000e+00 0.0000000e+00 0.0000000e+00 
0.0000000e+00 0.0000000e+00 0.0000000e+00 
0.0000000e+00 0.0000000e+00 0.0000000e+00 
0.0000000e+00 0.0000000e+00 0.0000000e+00 
0.0000000e+00 0.0000000e+00 0.0000000e+00 
0.0000000e+00 0.0000000e+00 0.0000000e+00 
0.0000000e+00 0.0000000e+00 0.0000000e+00 
0.0000000e+00 0.0000000e+00 0.0000000e+00 
0.0000000e+00 0.0000000e+00 0.0000000e+00 
0.0000000e+00 0.0000000e+00 0.0000000e+00 
0.0000000e+00 0.0000000e+00 0.0000000e+00 
0.0000000e+00 0.0000000e+00 0.0000000e+00 
0.0000000e+00 0.0000000e+00 0.0000000e+00 
0.0000000e+00 0.0000000e+00 0.0000000e+00 
0.0000000e+00 0.0000000e+00 0.0000000e+00 
0.0000000e+00 0.0000000e+00 0.0000000e+00 
0.0000000e+00 0.0000000e+00 0.0000000e+00 
0.0000000e+00 0.0000000e+00 0.0000000e+00 
0.0000000e+00 0.0000000e+00 0.0000000e+00 
0.0000000e+00 0.0000000e+00 0.0000000e+00 
0.0000000e+00 0.0000000e+00 0.0000000e+00 
0.0000000e+00 0.0000000e+00 0.0000000e+00 
0.0000000e+00 0.0000000e+00 0.0000000e+00 
0.0000000e+00 0.0000000e+00 0.0000000e+00 
0.0000000e+00 0.0000000e+00 0.0000000e+00 
0.0000000e+00 0.0000000e+00 0.0000000e+00 
-3.8738144e-06 2.5276910e-07 -3.5501687e-06 
2.5716710e-05 -7.7839595e-06 4.6839987e-06 
7.2970497e-06 -3.4041132e-06 2.9191831e-06 
-3.0943784e-06 -1.0169440e-06 1.0454580e-06 
-3.8072774e-06 9.3174475e-07 4.0368940e-07 
-1.9055519e-06 1.8771717e-06 -1.4495678e-06 
7.6294864e-06 -6.8601562e-06 -6.2793742e-06 
2.6733775e-05 -1.0426587e-05 -1.8828762e-06 
2.7657865e-05 -1.1514501e-05 3.7921641e-06 