# vtk DataFile Version 4.0
vtk output
ASCII
DATASET UNSTRUCTURED_GRID
POINTS 661 float
0.0000000e+00 0.0000000e+00 0.0000000e+00 
0.0000000e+00 0.0000000e+00 4.0000000e+01 
5.0000000e+00 0.0000000e+00 0.0000000e+00 
5.0000000e+00 0.0000000e+00 4.0000000e+01 
5.0000000e+00 1.0000000e+00 0.0000000e+00 
5.0000000e+00 1.0000000e+00 4.0000000e+01 
0.0000000e+00 1.0000000e+00 0.0000000e+00 
0.0000000e+00 1.0000000e+00 4.0000000e+01 
5.0000000e+00 2.0000000e+00 0.0000000e+00 
5.0000000e+00 2.0000000e+00 4.0000000e+01 
3.0000000e+00 2.0000000e+00 0.0000000e+00 
3.0000000e+00 2.0000000e+00 4.0000000e+01 
0.0000000e+00 2.0000000e+00 0.0000000e+00 
0.0000000e+00 2.0000000e+00 4.0000000e+01 
1.5000000e+00 3.0000000e+00 0.0000000e+00 
1.5000000e+00 3.0000000e+00 4.0000000e+01 
7.5000000e-01 3.0000000e+00 0.0000000e+00 
7.5000000e-01 3.0000000e+00 4.0000000e+01 
0.0000000e+00 3.0000000e+00 0.0000000e+00 
0.0000000e+00 3.0000000e+00 4.0000000e+01 
7.5000000e-01 3.0000000e+00 5.0000000e-01 
7.5000000e-01 3.0000000e+00 1.0000000e+00 
7.5000000e-01 3.0000000e+00 1.5000000e+00 
7.5000000e-01 3.0000000e+00 2.0000000e+00 
7.5000000e-01 3.0000000e+00 2.5000000e+00 
7.5000000e-01 3.0000000e+00 3.0000000e+00 
7.5000000e-01 3.0000000e+00 3.5000000e+00 
7.5000000e-01 3.0000000e+00 4.0000000e+00 
7.5000000e-01 3.0000000e+00 4.5000000e+00 
7.5000000e-01 3.0000000e+00 5.0000000e+00 
7.5000000e-01 3.0000000e+00 5.5000000e+00 
7.5000000e-01 3.0000000e+00 6.0000000e+00 
7.5000000e-01 3.0000000e+00 6.5000000e+00 
7.5000000e-01 3.0000000e+00 7.0000000e+00 
7.5000000e-01 3.0000000e+00 7.5000000e+00 
7.5000000e-01 3.0000000e+00 8.0000000e+00 
7.5000000e-01 3.0000000e+00 8.5000000e+00 
7.5000000e-01 3.0000000e+00 9.0000000e+00 
7.5000000e-01 3.0000000e+00 9.5000000e+00 
7.5000000e-01 3.0000000e+00 1.0000000e+01 
7.5000000e-01 3.0000000e+00 1.0500000e+01 
7.5000000e-01 3.0000000e+00 1.1000000e+01 
7.5000000e-01 3.0000000e+00 1.1500000e+01 
7.5000000e-01 3.0000000e+00 1.2000000e+01 
7.5000000e-01 3.0000000e+00 1.2500000e+01 
7.5000000e-01 3.0000000e+00 1.3000000e+01 
7.5000000e-01 3.0000000e+00 1.3500000e+01 
7.5000000e-01 3.0000000e+00 1.4000000e+01 
7.5000000e-01 3.0000000e+00 1.4500000e+01 
7.5000000e-01 3.0000000e+00 1.5000000e+01 
7.5000000e-01 3.0000000e+00 1.5500000e+01 
7.5000000e-01 3.0000000e+00 1.6000000e+01 
7.5000000e-01 3.0000000e+00 1.6500000e+01 
7.5000000e-01 3.0000000e+00 1.7000000e+01 
7.5000000e-01 3.0000000e+00 1.7500000e+01 
7.5000000e-01 3.0000000e+00 1.8000000e+01 
7.5000000e-01 3.0000000e+00 1.8500000e+01 
7.5000000e-01 3.0000000e+00 1.9000000e+01 
7.5000000e-01 3.0000000e+00 1.9500000e+01 
7.5000000e-01 3.0000000e+00 2.0000000e+01 
7.5000000e-01 3.0000000e+00 2.0500000e+01 
7.5000000e-01 3.0000000e+00 2.1000000e+01 
7.5000000e-01 3.0000000e+00 2.1500000e+01 
7.5000000e-01 3.0000000e+00 2.2000000e+01 
7.5000000e-01 3.0000000e+00 2.2500000e+01 
7.5000000e-01 3.0000000e+00 2.3000000e+01 
7.5000000e-01 3.0000000e+00 2.3500000e+01 
7.5000000e-01 3.0000000e+00 2.4000000e+01 
7.5000000e-01 3.0000000e+00 2.4500000e+01 
7.5000000e-01 3.0000000e+00 2.5000000e+01 
7.5000000e-01 3.0000000e+00 2.5500000e+01 
7.5000000e-01 3.0000000e+00 2.6000000e+01 
7.5000000e-01 3.0000000e+00 2.6500000e+01 
7.5000000e-01 3.0000000e+00 2.7000000e+01 
7.5000000e-01 3.0000000e+00 2.7500000e+01 
7.5000000e-01 3.0000000e+00 2.8000000e+01 
7.5000000e-01 3.0000000e+00 2.8500000e+01 
7.5000000e-01 3.0000000e+00 2.9000000e+01 
7.5000000e-01 3.0000000e+00 2.9500000e+01 
7.5000000e-01 3.0000000e+00 3.0000000e+01 
7.5000000e-01 3.0000000e+00 3.0500000e+01 
7.5000000e-01 3.0000000e+00 3.1000000e+01 
7.5000000e-01 3.0000000e+00 3.1500000e+01 
7.5000000e-01 3.0000000e+00 3.2000000e+01 
7.5000000e-01 3.0000000e+00 3.2500000e+01 
7.5000000e-01 3.0000000e+00 3.3000000e+01 
7.5000000e-01 3.0000000e+00 3.3500000e+01 
7.5000000e-01 3.0000000e+00 3.4000000e+01 
7.5000000e-01 3.0000000e+00 3.4500000e+01 
7.5000000e-01 3.0000000e+00 3.5000000e+01 
7.5000000e-01 3.0000000e+00 3.5500000e+01 
7.5000000e-01 3.0000000e+00 3.6000000e+01 
7.5000000e-01 3.0000000e+00 3.6500000e+01 
7.5000000e-01 3.0000000e+00 3.7000000e+01 
7.5000000e-01 3.0000000e+00 3.7500000e+01 
7.5000000e-01 3.0000000e+00 3.8000000e+01 
7.5000000e-01 3.0000000e+00 3.8500000e+01 
7.5000000e-01 3.0000000e+00 3.9000000e+01 
7.5000000e-01 3.0000000e+00 3.9500000e+01 
7.5000000e-01 3.0000000e+00 4.0500000e+01 
7.5000000e-01 3.0000000e+00 4.1000000e+01 
7.5000000e-01 3.0000000e+00 4.1500000e+01 
7.5000000e-01 3.0000000e+00 4.2000000e+01 
7.5000000e-01 3.0000000e+00 4.2500000e+01 
7.5000000e-01 3.0000000e+00 4.3000000e+01 
7.5000000e-01 3.0000000e+00 4.3500000e+01 
7.5000000e-01 3.0000000e+00 4.4000000e+01 
7.5000000e-01 3.0000000e+00 4.4500000e+01 
7.5000000e-01 3.0000000e+00 4.5000000e+01 
7.5000000e-01 3.0000000e+00 4.5500000e+01 
7.5000000e-01 3.0000000e+00 4.6000000e+01 
7.5000000e-01 3.0000000e+00 4.6500000e+01 
7.5000000e-01 3.0000000e+00 4.7000000e+01 
7.5000000e-01 3.0000000e+00 4.7500000e+01 
7.5000000e-01 3.0000000e+00 4.8000000e+01 
7.5000000e-01 3.0000000e+00 4.8500000e+01 
7.5000000e-01 3.0000000e+00 4.9000000e+01 
7.5000000e-01 3.0000000e+00 4.9500000e+01 
7.5000000e-01 3.0000000e+00 5.0000000e+01 
7.5000000e-01 3.0250001e+00 0.0000000e+00 
7.5000000e-01 3.0250001e+00 5.0000000e-01 
7.5000000e-01 3.0250001e+00 1.0000000e+00 
7.5000000e-01 3.0250001e+00 1.5000000e+00 
7.5000000e-01 3.0250001e+00 2.0000000e+00 
7.5000000e-01 3.0250001e+00 2.5000000e+00 
7.5000000e-01 3.0250001e+00 3.0000000e+00 
7.5000000e-01 3.0250001e+00 3.5000000e+00 
7.5000000e-01 3.0250001e+00 4.0000000e+00 
7.5000000e-01 3.0250001e+00 4.5000000e+00 
7.5000000e-01 3.0250001e+00 5.0000000e+00 
7.5000000e-01 3.0250001e+00 5.5000000e+00 
7.5000000e-01 3.0250001e+00 6.0000000e+00 
7.5000000e-01 3.0250001e+00 6.5000000e+00 
7.5000000e-01 3.0250001e+00 7.0000000e+00 
7.5000000e-01 3.0250001e+00 7.5000000e+00 
7.5000000e-01 3.0250001e+00 8.0000000e+00 
7.5000000e-01 3.0250001e+00 8.5000000e+00 
7.5000000e-01 3.0250001e+00 9.0000000e+00 
7.5000000e-01 3.0250001e+00 9.5000000e+00 
7.5000000e-01 3.0250001e+00 1.0000000e+01 
7.5000000e-01 3.0250001e+00 1.0500000e+01 
7.5000000e-01 3.0250001e+00 1.1000000e+01 
7.5000000e-01 3.0250001e+00 1.1500000e+01 
7.5000000e-01 3.0250001e+00 1.2000000e+01 
7.5000000e-01 3.0250001e+00 1.2500000e+01 
7.5000000e-01 3.0250001e+00 1.3000000e+01 
7.5000000e-01 3.0250001e+00 1.3500000e+01 
7.5000000e-01 3.0250001e+00 1.4000000e+01 
7.5000000e-01 3.0250001e+00 1.4500000e+01 
7.5000000e-01 3.0250001e+00 1.5000000e+01 
7.5000000e-01 3.0250001e+00 1.5500000e+01 
7.5000000e-01 3.0250001e+00 1.6000000e+01 
7.5000000e-01 3.0250001e+00 1.6500000e+01 
7.5000000e-01 3.0250001e+00 1.7000000e+01 
7.5000000e-01 3.0250001e+00 1.7500000e+01 
7.5000000e-01 3.0250001e+00 1.8000000e+01 
7.5000000e-01 3.0250001e+00 1.8500000e+01 
7.5000000e-01 3.0250001e+00 1.9000000e+01 
7.5000000e-01 3.0250001e+00 1.9500000e+01 
7.5000000e-01 3.0250001e+00 2.0000000e+01 
7.5000000e-01 3.0250001e+00 2.0500000e+01 
7.5000000e-01 3.0250001e+00 2.1000000e+01 
7.5000000e-01 3.0250001e+00 2.1500000e+01 
7.5000000e-01 3.0250001e+00 2.2000000e+01 
7.5000000e-01 3.0250001e+00 2.2500000e+01 
7.5000000e-01 3.0250001e+00 2.3000000e+01 
7.5000000e-01 3.0250001e+00 2.3500000e+01 
7.5000000e-01 3.0250001e+00 2.4000000e+01 
7.5000000e-01 3.0250001e+00 2.4500000e+01 
7.5000000e-01 3.0250001e+00 2.5000000e+01 
7.5000000e-01 3.0250001e+00 2.5500000e+01 
7.5000000e-01 3.0250001e+00 2.6000000e+01 
7.5000000e-01 3.0250001e+00 2.6500000e+01 
7.5000000e-01 3.0250001e+00 2.7000000e+01 
7.5000000e-01 3.0250001e+00 2.7500000e+01 
7.5000000e-01 3.0250001e+00 2.8000000e+01 
7.5000000e-01 3.0250001e+00 2.8500000e+01 
7.5000000e-01 3.0250001e+00 2.9000000e+01 
7.5000000e-01 3.0250001e+00 2.9500000e+01 
7.5000000e-01 3.0250001e+00 3.0000000e+01 
7.5000000e-01 3.0250001e+00 3.0500000e+01 
7.5000000e-01 3.0250001e+00 3.1000000e+01 
7.5000000e-01 3.0250001e+00 3.1500000e+01 
7.5000000e-01 3.0250001e+00 3.2000000e+01 
7.5000000e-01 3.0250001e+00 3.2500000e+01 
7.5000000e-01 3.0250001e+00 3.3000000e+01 
7.5000000e-01 3.0250001e+00 3.3500000e+01 
7.5000000e-01 3.0250001e+00 3.4000000e+01 
7.5000000e-01 3.0250001e+00 3.4500000e+01 
7.5000000e-01 3.0250001e+00 3.5000000e+01 
7.5000000e-01 3.0250001e+00 3.5500000e+01 
7.5000000e-01 3.0250001e+00 3.6000000e+01 
7.5000000e-01 3.0250001e+00 3.6500000e+01 
7.5000000e-01 3.0250001e+00 3.7000000e+01 
7.5000000e-01 3.0250001e+00 3.7500000e+01 
7.5000000e-01 3.0250001e+00 3.8000000e+01 
7.5000000e-01 3.0250001e+00 3.8500000e+01 
7.5000000e-01 3.0250001e+00 3.9000000e+01 
7.5000000e-01 3.0250001e+00 3.9500000e+01 
7.5000000e-01 3.0250001e+00 4.0000000e+01 
7.5000000e-01 3.0250001e+00 4.0500000e+01 
7.5000000e-01 3.0250001e+00 4.1000000e+01 
7.5000000e-01 3.0250001e+00 4.1500000e+01 
7.5000000e-01 3.0250001e+00 4.2000000e+01 
7.5000000e-01 3.0250001e+00 4.2500000e+01 
7.5000000e-01 3.0250001e+00 4.3000000e+01 
7.5000000e-01 3.0250001e+00 4.3500000e+01 
7.5000000e-01 3.0250001e+00 4.4000000e+01 
7.5000000e-01 3.0250001e+00 4.4500000e+01 
7.5000000e-01 3.0250001e+00 4.5000000e+01 
7.5000000e-01 3.0250001e+00 4.5500000e+01 
7.5000000e-01 3.0250001e+00 4.6000000e+01 
7.5000000e-01 3.0250001e+00 4.6500000e+01 
7.5000000e-01 3.0250001e+00 4.7000000e+01 
7.5000000e-01 3.0250001e+00 4.7500000e+01 
7.5000000e-01 3.0250001e+00 4.8000000e+01 
7.5000000e-01 3.0250001e+00 4.8500000e+01 
7.5000000e-01 3.0250001e+00 4.9000000e+01 
7.5000000e-01 3.0250001e+00 4.9500000e+01 
7.5000000e-01 3.0250001e+00 5.0000000e+01 
3.0000000e+00 2.0000000e+00 3.6000000e+01 
8.0487806e-01 3.0000000e+00 3.6000000e+01 
0.0000000e+00 0.0000000e+00 2.0000000e+00 
0.0000000e+00 0.0000000e+00 4.0000000e+00 
0.0000000e+00 0.0000000e+00 6.0000000e+00 
0.0000000e+00 0.0000000e+00 8.0000000e+00 
0.0000000e+00 0.0000000e+00 1.0000000e+01 
0.0000000e+00 0.0000000e+00 1.2000000e+01 
0.0000000e+00 0.0000000e+00 1.4000000e+01 
0.0000000e+00 0.0000000e+00 1.6000000e+01 
[...]
POINT_DATA 661
FIELD FieldData 3
DISPLACEMENT 3 661  float
0.0000000e+00 0.0000000e+00 0.0000000e+00 
0.0000000e+00 0.0000000e+00 0.0000000e+00 
0.0000000e+00 0.0000000e+00 0.0000000e+00 
0.0000000e+00 0.0000000e+00 0.0000000e+00 
8.0045820e-06 -4.4396484e-06 -6.7334072e-06 
8.0468999e-06 6.5428385e-06 1.4156317e-05 
0.0000000e+00 -2.3437795e-05 0.0000000e+00 
0.0000000e+00 -1.5621789e-04 0.0000000e+00 
7.3160268e-06 -3.1575903e-06 -1.0363900e-05 
2.4488483e-05 7.5992430e-06 -1.4706259e-06 
7.0083706e-06 -1.7688260e-05 -2.2379252e-05 
3.3568140e-05 7.3807852e-05 -1.3595612e-05 
0.0000000e+00 -4.3131691e-05 0.0000000e+00 
0.0000000e+00 -3.1518194e-04 0.0000000e+00 
-5.9130402e-06 -5.4206899e-05 -5.7574442e-05 
-8.0172482e-05 -8.5950793e-05 -2.5750280e-04 
-1.4091199e-05 -4.5936420e-05 -4.5651512e-05 
-4.7481055e-05 -5.9431687e-04 -3.0004469e-04 
0.0000000e+00 -6.5840934e-05 0.0000000e+00 
0.0000000e+00 -1.8781930e-04 0.0000000e+00 
-1.9175948e-06 -4.1815325e-05 -4.0948693e-05 
8.2963506e-06 -3.1447511e-05 -3.3807784e-05 
1.2472440e-05 -1.7278762e-05 -2.7102245e-05 
1.7236582e-05 -2.3372456e-07 -1.5684876e-05 
1.9926236e-05 1.9022273e-05 -3.2893206e-06 
1.7493992e-05 3.9484719e-05 1.4855634e-06 
1.2380695e-05 5.9510065e-05 3.6959177e-06 
9.7700013e-06 7.6972952e-05 2.5774734e-06 
6.9851990e-06 9.0197856e-05 -3.4882974e-06 
6.1042224e-06 9.8341698e-05 -3.1426962e-06 
2.5918418e-06 1.0136505e-04 5.7327711e-06 
1.7061288e-07 9.9983110e-05 1.7686611e-05 
3.5508415e-06 9.3819675e-05 2.8872902e-05 
5.9911904e-06 8.3610517e-05 3.4345674e-05 
7.0271790e-06 6.9360824e-05 3.6674581e-05 
9.7885859e-06 5.2167481e-05 3.3711807e-05 
1.2102404e-05 3.3767668e-05 3.0531319e-05 
1.5602556e-05 1.7107035e-05 2.8005063e-05 
2.1086940e-05 6.0735606e-06 2.8738295e-05 
2.2395850e-05 3.5318294e-06 3.0719191e-05 
2.1900187e-05 1.1022764e-05 2.4033461e-05 
1.8882572e-05 2.1510859e-05 2.0545845e-05 
1.4349942e-05 2.2877723e-05 3.0131143e-05 
3.9831039e-06 -1.3896597e-05 4.2897671e-05 
-3.4349388e-05 -1.2914458e-04 7.3527561e-05 
-4.6927387e-05 -3.6447833e-04 1.0363221e-04 
-7.1435359e-05 -7.8243285e-04 1.4604990e-04 
-1.2524602e-04 -1.4278365e-03 9.3108232e-05 
-2.6928450e-04 -2.3235856e-03 1.7087821e-04 
-2.7750593e-04 -3.3022831e-03 1.5573132e-04 
-1.7900445e-04 -4.0746722e-03 1.0135859e-04 
-1.5607354e-04 -4.1091582e-03 1.1118985e-04 
-2.9189730e-04 -3.9624544e-03 4.9570484e-05 
-3.5428852e-04 -3.9852746e-03 3.1002404e-05 
-2.3531751e-04 -4.2724987e-03 -1.2308060e-05 
-7.8213401e-05 -4.3070642e-03 -6.5914552e-05 
-1.0110028e-04 -3.5870378e-03 -1.6581579e-04 
-1.9380913e-04 -2.5102065e-03 -1.9519095e-04 
-1.8611288e-04 -1.5610786e-03 -1.8932698e-04 
-5.7267436e-05 -8.3185406e-04 -1.2485152e-04 
-1.8843632e-05 -3.6319034e-04 -1.5969173e-04 
-3.5218379e-06 -9.1151102e-05 -1.2467250e-04 
5.3382854e-07 4.6141631e-05 -9.8371085e-05 
1.4280734e-05 1.0158292e-04 -6.9093796e-05 
1.7509034e-05 1.0871695e-04 -3.9182181e-05 
1.6892556e-05 9.2450377e-05 -1.5762005e-05 
7.2098373e-06 6.7813511e-05 -4.5702586e-06 
-2.8842780e-06 4.1088308e-05 -3.4168077e-06 
-8.7912540e-06 1.6384385e-05 -6.0677939e-06 
-1.0047691e-05 -6.0589300e-06 -1.0369784e-05 
-1.3396761e-05 -2.6056574e-05 -1.2897951e-05 
-1.8284536e-05 -4.1524316e-05 -1.4299964e-05 
-1.6948947e-05 -4.9362850e-05 -1.6207232e-05 
-1.6983438e-05 -4.9064263e-05 -2.1221726e-05 
-9.7902821e-06 -3.9640265e-05 -2.9371464e-05 
-1.1852634e-06 -2.1405360e-05 -3.3980050e-05 
1.6904340e-05 6.0498478e-06 -3.1557567e-05 
2.8328894e-05 4.1628042e-05 -2.4618079e-05 
3.8391794e-05 8.4739673e-05 -2.2223794e-05 
5.0498478e-05 1.3272330e-04 -1.5686601e-05 
5.5492543e-05 1.8162362e-04 -1.4771545e-05 
5.6794062e-05 2.2073559e-04 -5.8213755e-06 
4.6107991e-05 2.3311612e-04 1.3568892e-05 
2.7089996e-05 1.8638010e-04 3.8385388e-05 
-2.2496706e-05 3.3767879e-05 8.5258827e-05 
-3.6264642e-05 -2.6524419e-04 1.2996659e-04 
-6.4875676e-05 -7.7123009e-04 1.8931828e-04 
-1.2499766e-04 -1.5112138e-03 1.3930770e-04 
-2.6469957e-04 -2.4814755e-03 2.1708669e-04 
-2.7322205e-04 -3.4680469e-03 1.8135886e-04 
-1.7916705e-04 -4.1143135e-03 8.2542792e-05 
-3.6350373e-04 -4.0496150e-03 1.2975872e-04 
-2.6248899e-04 -3.8954241e-03 1.0424756e-04 
-2.9590135e-04 -3.9732200e-03 1.4265938e-05 
-1.0677002e-04 -4.2979266e-03 -1.2964630e-04 
-1.8557392e-04 -4.3132924e-03 -2.0066911e-04 
-1.8032083e-04 -3.5051950e-03 -3.4767666e-04 
-2.1242784e-04 -2.4107972e-03 -3.6586970e-04 
-1.5750811e-04 -1.4349472e-03 -1.5130723e-04 
0.0000000e+00 7.2171773e-05 0.0000000e+00 
0.0000000e+00 5.6609191e-04 0.0000000e+00 
0.0000000e+00 8.9548732e-04 0.0000000e+00 
0.0000000e+00 1.0763046e-03 0.0000000e+00 
0.0000000e+00 1.1296029e-03 0.0000000e+00 
0.0000000e+00 1.0798135e-03 0.0000000e+00 
0.0000000e+00 9.5357402e-04 0.0000000e+00 
0.0000000e+00 7.7819591e-04 0.0000000e+00 
0.0000000e+00 5.7946629e-04 0.0000000e+00 
0.0000000e+00 3.7965309e-04 0.0000000e+00 
0.0000000e+00 1.9652028e-04 0.0000000e+00 
0.0000000e+00 4.3078333e-05 0.0000000e+00 
0.0000000e+00 -7.2725030e-05 0.0000000e+00 
0.0000000e+00 -1.4850935e-04 0.0000000e+00 
0.0000000e+00 -1.8746602e-04 0.0000000e+00 
0.0000000e+00 -1.9728743e-04 0.0000000e+00 
0.0000000e+00 -1.8826907e-04 0.0000000e+00 
0.0000000e+00 -1.7129483e-04 0.0000000e+00 
0.0000000e+00 -1.5613003e-04 0.0000000e+00 
0.0000000e+00 -1.5003125e-04 0.0000000e+00 
0.0000000e+00 -4.5808261e-05 0.0000000e+00 
0.0000000e+00 -4.1810599e-05 0.0000000e+00 
0.0000000e+00 -3.1527234e-05 0.0000000e+00 
0.0000000e+00 -1.7294022e-05 0.0000000e+00 
0.0000000e+00 -2.1844357e-07 0.0000000e+00 
0.0000000e+00 1.9051482e-05 0.0000000e+00 
0.0000000e+00 3.9516799e-05 0.0000000e+00 
0.0000000e+00 5.9504902e-05 0.0000000e+00 
0.0000000e+00 7.6958022e-05 0.0000000e+00 
0.0000000e+00 9.0178233e-05 0.0000000e+00 
0.0000000e+00 9.8319128e-05 0.0000000e+00 
0.0000000e+00 1.0143580e-04 0.0000000e+00 
0.0000000e+00 9.9953082e-05 0.0000000e+00 
0.0000000e+00 9.3876013e-05 0.0000000e+00 
0.0000000e+00 8.3582840e-05 0.0000000e+00 
0.0000000e+00 6.9344351e-05 0.0000000e+00 
0.0000000e+00 5.2111602e-05 0.0000000e+00 
0.0000000e+00 3.3731580e-05 0.0000000e+00 
0.0000000e+00 1.7157834e-05 0.0000000e+00 
0.0000000e+00 6.1328969e-06 0.0000000e+00 
0.0000000e+00 3.9218694e-06 0.0000000e+00 
0.0000000e+00 1.1301409e-05 0.0000000e+00 
0.0000000e+00 2.2433973e-05 0.0000000e+00 
0.0000000e+00 2.3485580e-05 0.0000000e+00 
0.0000000e+00 -1.3751087e-05 0.0000000e+00 
0.0000000e+00 -1.2803246e-04 0.0000000e+00 
0.0000000e+00 -3.6507935e-04 0.0000000e+00 
0.0000000e+00 -7.8383810e-04 0.0000000e+00 
0.0000000e+00 -1.4369672e-03 0.0000000e+00 
0.0000000e+00 -2.3309907e-03 0.0000000e+00 
0.0000000e+00 -3.3338158e-03 0.0000000e+00 
0.0000000e+00 -4.0983595e-03 0.0000000e+00 
0.0000000e+00 -4.1396897e-03 0.0000000e+00 
0.0000000e+00 -3.9762557e-03 0.0000000e+00 
0.0000000e+00 -4.0161181e-03 0.0000000e+00 
0.0000000e+00 -4.2928169e-03 0.0000000e+00 
0.0000000e+00 -4.3420610e-03 0.0000000e+00 
0.0000000e+00 -3.6056263e-03 0.0000000e+00 
0.0000000e+00 -2.5292579e-03 0.0000000e+00 
0.0000000e+00 -1.5634953e-03 0.0000000e+00 
0.0000000e+00 -8.3634496e-04 0.0000000e+00 
0.0000000e+00 -3.6305966e-04 0.0000000e+00 
0.0000000e+00 -9.0327434e-05 0.0000000e+00 
0.0000000e+00 4.7229350e-05 0.0000000e+00 
0.0000000e+00 1.0205509e-04 0.0000000e+00 
0.0000000e+00 1.0922246e-04 0.0000000e+00 
0.0000000e+00 9.2919458e-05 0.0000000e+00 
0.0000000e+00 6.7933601e-05 0.0000000e+00 
0.0000000e+00 4.1260886e-05 0.0000000e+00 
0.0000000e+00 1.6377633e-05 0.0000000e+00 
0.0000000e+00 -6.1728260e-06 0.0000000e+00 
0.0000000e+00 -2.6096726e-05 0.0000000e+00 
0.0000000e+00 -4.1376657e-05 0.0000000e+00 
0.0000000e+00 -4.9387243e-05 0.0000000e+00 
0.0000000e+00 -4.9014077e-05 0.0000000e+00 
0.0000000e+00 -3.9680919e-05 0.0000000e+00 
0.0000000e+00 -2.1355008e-05 0.0000000e+00 
0.0000000e+00 6.0267930e-06 0.0000000e+00 
0.0000000e+00 4.1730265e-05 0.0000000e+00 
0.0000000e+00 8.4813983e-05 0.0000000e+00 
0.0000000e+00 1.3305611e-04 0.0000000e+00 
0.0000000e+00 1.8198630e-04 0.0000000e+00 
0.0000000e+00 2.2162285e-04 0.0000000e+00 
0.0000000e+00 2.3389587e-04 0.0000000e+00 
0.0000000e+00 1.8622918e-04 0.0000000e+00 
0.0000000e+00 3.4870969e-05 0.0000000e+00 
0.0000000e+00 -2.6660811e-04 0.0000000e+00 
0.0000000e+00 -7.7314052e-04 0.0000000e+00 
0.0000000e+00 -1.5213824e-03 0.0000000e+00 
0.0000000e+00 -2.4901268e-03 0.0000000e+00 
0.0000000e+00 -3.5016118e-03 0.0000000e+00 
0.0000000e+00 -4.1403794e-03 0.0000000e+00 
0.0000000e+00 -4.0752213e-03 0.0000000e+00 
0.0000000e+00 -3.9110645e-03 0.0000000e+00 
0.0000000e+00 -4.0036342e-03 0.0000000e+00 
0.0000000e+00 -4.3288842e-03 0.0000000e+00 
0.0000000e+00 -4.3339869e-03 0.0000000e+00 
0.0000000e+00 -3.5232843e-03 0.0000000e+00 
0.0000000e+00 -2.4304362e-03 0.0000000e+00 
0.0000000e+00 -1.4333925e-03 0.0000000e+00 
0.0000000e+00 -5.9524691e-04 0.0000000e+00 
0.0000000e+00 7.1803435e-05 0.0000000e+00 
0.0000000e+00 5.6580314e-04 0.0000000e+00 
0.0000000e+00 8.9529232e-04 0.0000000e+00 
0.0000000e+00 1.0761699e-03 0.0000000e+00 
0.0000000e+00 1.1295171e-03 0.0000000e+00 
0.0000000e+00 1.0798058e-03 0.0000000e+00 
0.0000000e+00 9.5366267e-04 0.0000000e+00 
0.0000000e+00 7.7835150e-04 0.0000000e+00 
0.0000000e+00 5.7964330e-04 0.0000000e+00 
0.0000000e+00 3.7984099e-04 0.0000000e+00 
0.0000000e+00 1.9674095e-04 0.0000000e+00 
0.0000000e+00 4.3336218e-05 0.0000000e+00 
0.0000000e+00 -7.2471987e-05 0.0000000e+00 
0.0000000e+00 -1.4832072e-04 0.0000000e+00 
0.0000000e+00 -1.8737146e-04 0.0000000e+00 
0.0000000e+00 -1.9727700e-04 0.0000000e+00 
0.0000000e+00 -1.8832152e-04 0.0000000e+00 
0.0000000e+00 -1.7139976e-04 0.0000000e+00 
0.0000000e+00 -1.5627920e-04 0.0000000e+00 
0.0000000e+00 -1.5019964e-04 0.0000000e+00 
9.8779521e-05 -1.4889619e-04 1.1438718e-05 
-1.6794230e-04 -3.5242536e-03 1.4720271e-04 
0.0000000e+00 0.0000000e+00 0.0000000e+00 
0.0000000e+00 0.0000000e+00 0.0000000e+00 
0.0000000e+00 0.0000000e+00 0.0000000e+00 
0.0000000e+00 0.0000000e+00 0.0000000e+00 
0.0000000e+00 0.0000000e+00 0.0000000e+00 
0.0000000e+00 0.0000000e+00 0.0000000e+00 
0.0000000e+00 0.0000000e+00 0.0000000e+00 
0.0000000e+00 0.0000000e+00 0.0000000e+00 
0.0000000e+00 0.0000000e+00 0.0000000e+00 
0.0000000e+00 0.0000000e+00 0.0000000e+00 
0.0000000e+00 0.0000000e+00 0.0000000e+00 
0.0000000e+00 0.0000000e+00 0.0000000e+00 
0.0000000e+00 0.0000000e+00 0.0000000e+00 
0.0000000e+00 0.0000000e+00 0.0000000e+00 
0.0000000e+00 0.0000000e+00 0.0000000e+00 
0.0000000e+00 0.0000000e+00 0.0000000e+00 
0.0000000e+00 0.0000000e+00 0.0000000e+00 
0.0000000e+00 0.0000000e+00 0.0000000e+00 
0.0000000e+00 0.0000000e+00 0.0000000e+00 
0.0000000e+00 0.0000000e+00 0.0000000e+00 
0.0000000e+00 0.0000000e+00 0.0000000e+00 
0.0000000e+00 0.0000000e+00 0.0000000e+00 
0.0000000e+00 0.0000000e+00 0.0000000e+00 
0.0000000e+00 0.0000000e+00 0.0000000e+00 
0.0000000e+00 0.0000000e+00 0.0000000e+00 
0.0000000e+00 0.0000000e+00 0.0000000e+00 
0.0000000e+00 0.0000000e+00 0.0000000e+00 
0.0000000e+00 0.0000000e+00 0.0000000e+00 
0.0000000e+00 0.0000000e+00 0.0000000e+00 
0.0000000e+00 0.0000000e+00 0.0000000e+00 
0.0000000e+00 0.0000000e+00 0.0000000e+00 
0.0000000e+00 0.0000000e+00 0.0000000e+00 
0.0000000e+00 0.0000000e+00 0.0000000e+00 
0.0000000e+00 0.0000000e+00 0.0000000e+00 
0.0000000e+00 0.0000000e+00 0.0000000e+00 
0.0000000e+00 0.0000000e+00 0.0000000e+00 
0.0000000e+00 0.0000000e+00 0.0000000e+00 
0.0000000e+00 0.0000000e+00 0.0000000e+00 
0.0000000e+00 0.0000000e+00 0.0000000e+00 
0.0000000e+00 0.0000000e+00 0.0000000e+00 
0.0000000e+00 0.0000000e+00 0.0000000e+00 
0.0000000e+00 0.0000000e+00 0.0000000e+00 
4.4174385e-06 -1.8527514e-06 -4.6868381e-06 
1.1277064e-06 -1.1431866e-06 6.2164440e-07 
-6.0122984e-06 -2.0756255e-07 3.0698254e-06 
-1.0595337e-05 3.0613069e-06 -8.8232525e-08 
-4.4194658e-06 1.0047326e-07 -3.1182008e-06 
1.1717639e-05 -3.6018621e-06 -6.1554651e-06 
3.6406927e-05 -7.1260965e-06 -1.0636194e-05 
5.4494067e-05 -7.9105321e-06 -2.7998967e-06 
4.7533660e-05 -5.8653391e-06 8.1313501e-06 
2.1780073e-05 -2.2766369e-06 4.4272479e-06 
5.4552243e-06 -1.8201308e-06 1.0737034e-06 
2.5540135e-06 -8.2948361e-07 -1.9374710e-08 
-2.4176618e-06 -2.9725711e-06 3.4309435e-06 
-7.8870871e-06 -1.4430174e-06 1.8746181e-06 
-5.5431747e-06 1.1314272e-06 -1.4128117e-06 
1.8607162e-06 1.4356582e-06 -7.5556645e-06 
3.1944517e-05 -6.5485460e-06 -1.6813459e-05 
5.4517339e-05 -2.2055176e-05 -2.1253754e-06 
4.1535863e-05 -1.6595663e-05 1.8559396e-05 
0.0000000e+00 9.6860344e-07 0.0000000e+00 
0.0000000e+00 2.5387450e-05 0.0000000e+00 
0.0000000e+00 2.9640545e-05 0.0000000e+00 
0.0000000e+00 1.2646316e-05 0.0000000e+00 
0.0000000e+00 -2.8348406e-06 0.0000000e+00 
0.0000000e+00 -2.0735266e-05 0.0000000e+00 
0.0000000e+00 -2.2090704e-04 0.0000000e+00 
0.0000000e+00 -5.4272648e-04 0.0000000e+00 
0.0000000e+00 -5.3154322e-04 0.0000000e+00 
0.0000000e+00 -1.5234834e-04 0.0000000e+00 
0.0000000e+00 1.0848767e-05 0.0000000e+00 
0.0000000e+00 1.1403165e-05 0.0000000e+00 
0.0000000e+00 -1.9857518e-05 0.0000000e+00 
0.0000000e+00 -8.6375430e-06 0.0000000e+00 
0.0000000e+00 4.3873097e-05 0.0000000e+00 
0.0000000e+00 4.6682497e-05 0.0000000e+00 
0.0000000e+00 -2.1441968e-04 0.0000000e+00 
0.0000000e+00 -5.7406421e-04 0.0000000e+00 
0.0000000e+00 -5.0729769e-04 0.0000000e+00 
7.4184045e-06 -8.3088826e-06 -1.1300275e-05 
4.8725369e-06 -2.0620075e-05 -1.4181287e-05 
3.9283845e-05 3.1741074e-05 1.5659565e-05 
7.3384523e-05 -8.5741121e-05 1.0697101e-04 
6.0484458e-06 -2.9724392e-06 -7.7269506e-06 
4.5284046e-06 -3.9833744e-06 -9.0789717e-07 
-4.1893863e-06 -2.1815717e-06 3.1931174e-06 
-1.2589128e-05 2.5809072e-06 7.5213717e-07 
-6.9602497e-06 1.8642868e-06 -3.4553409e-06 
1.9338797e-05 -3.0136778e-06 -8.3196201e-06 
3.5550449e-05 -5.4492539e-06 -4.6234622e-06 
3.9077284e-05 -6.7727588e-06 -3.2664528e-07 
2.7043274e-05 -2.7418996e-06 6.7405231e-06 
1.1658803e-05 1.5844435e-06 -2.8113716e-06 
9.9010122e-06 -2.4033170e-06 -1.4994062e-06 
4.3090358e-06 -3.1387499e-06 1.6209960e-06 
-4.6268565e-06 -5.3896397e-06 4.4769017e-06 
-9.5111354e-06 -1.8708689e-06 -7.5089525e-07 
-3.0944628e-07 1.2420967e-06 -7.2009325e-06 
1.6668797e-05 1.2356079e-06 -9.5943788e-06 
3.5433153e-05 -5.9172789e-06 -6.6450798e-06 
4.8758578e-05 -1.5771524e-05 8.3039322e-06 
3.2516622e-05 -6.7670117e-06 1.0497625e-05 
5.7691195e-06 -3.2525448e-05 -2.4581735e-05 
0.0000000e+00 1.1702233e-06 0.0000000e+00 
0.0000000e+00 4.8281967e-05 0.0000000e+00 
0.0000000e+00 5.6556160e-05 0.0000000e+00 
0.0000000e+00 2.5075249e-05 0.0000000e+00 
0.0000000e+00 -8.1109165e-06 0.0000000e+00 
0.0000000e+00 -2.5215011e-05 0.0000000e+00 
0.0000000e+00 -4.6179266e-04 0.0000000e+00 
0.0000000e+00 -1.2002124e-03 0.0000000e+00 
0.0000000e+00 -1.1834318e-03 0.0000000e+00 
0.0000000e+00 -2.8685437e-04 0.0000000e+00 
0.0000000e+00 3.5347919e-05 0.0000000e+00 
0.0000000e+00 2.0941887e-05 0.0000000e+00 
0.0000000e+00 -3.3764387e-05 0.0000000e+00 
0.0000000e+00 -1.7364864e-05 0.0000000e+00 
0.0000000e+00 8.0929487e-05 0.0000000e+00 
0.0000000e+00 9.7381366e-05 0.0000000e+00 
0.0000000e+00 -4.5335898e-04 0.0000000e+00 
0.0000000e+00 -1.2962954e-03 0.0000000e+00 
0.0000000e+00 -1.1253437e-03 0.0000000e+00 
5.5616107e-05 -2.3443923e-04 5.7100933e-05 
2.0898715e-05 -8.8748027e-07 -2.0444751e-05 
1.4089685e-05 4.8552811e-05 1.8662681e-06 
3.4396721e-06 6.4759253e-05 2.3718572e-05 
4.8626935e-06 4.2707601e-05 3.5740024e-05 
3.5968504e-05 -1.4321197e-05 4.9704689e-05 
2.0534837e-05 2.1134316e-05 7.5500931e-05 
-2.8189310e-04 -4.4312605e-04 2.8196059e-04 
-7.0307881e-04 -1.3440066e-03 1.2125221e-04 
-6.4240722e-04 -1.4808422e-03 -1.5087021e-04 
-1.3192261e-04 -2.4683174e-04 -2.4994707e-04 
3.4088731e-05 4.9734619e-05 -7.3710500e-05 
-9.4945676e-08 1.8792642e-05 -1.6363828e-06 
-2.6033962e-05 -3.4948309e-05 -1.9112620e-06 
-1.1432424e-05 -1.2267164e-05 -5.1718529e-05 
7.5763339e-05 6.4808024e-05 -2.2059996e-05 
5.5769480e-05 1.7482774e-04 7.9337326e-05 
-3.1594155e-04 -4.4168002e-04 3.8174432e-04 
-5.0576340e-04 -1.7136886e-03 1.4789625e-04 
-5.9317600e-04 -1.2406582e-03 -2.1466917e-04 
0.0000000e+00 -5.3063873e-06 0.0000000e+00 
0.0000000e+00 7.4432872e-05 0.0000000e+00 
0.0000000e+00 8.7455606e-05 0.0000000e+00 
0.0000000e+00 3.5991739e-05 0.0000000e+00 
0.0000000e+00 -1.6104745e-05 0.0000000e+00 
0.0000000e+00 4.6376908e-06 0.0000000e+00 
0.0000000e+00 -8.5942697e-04 0.0000000e+00 
0.0000000e+00 -2.3242936e-03 0.0000000e+00 
0.0000000e+00 -2.2583874e-03 0.0000000e+00 
0.0000000e+00 -4.9035868e-04 0.0000000e+00 
0.0000000e+00 8.3916013e-05 0.0000000e+00 
0.0000000e+00 3.6060668e-05 0.0000000e+00 
0.0000000e+00 -4.4274526e-05 0.0000000e+00 
0.0000000e+00 -3.2191416e-05 0.0000000e+00 
0.0000000e+00 1.0813284e-04 0.0000000e+00 
0.0000000e+00 1.9242014e-04 0.0000000e+00 
0.0000000e+00 -8.9639093e-04 0.0000000e+00 
0.0000000e+00 -2.4155534e-03 0.0000000e+00 
0.0000000e+00 -2.2087276e-03 0.0000000e+00 
6.4117430e-06 -1.5703714e-06 -6.5262889e-06 
3.3319017e-07 9.3931458e-06 1.3660143e-06 
-1.2569236e-05 1.2141913e-05 8.7507606e-06 
-9.0346657e-06 1.0335433e-05 1.0053705e-05 
8.8177012e-06 -5.5559423e-07 1.3152595e-05 
2.3208555e-05 2.0381096e-05 1.6912752e-05 
5.5404522e-05 -4.7438552e-05 3.7238076e-06 
5.3448417e-05 -1.0126268e-04 -9.2783057e-06 
4.1765801e-05 -1.0408662e-04 -4.3569375e-07 
3.8788479e-05 -5.3237709e-05 -4.3992623e-06 
3.9378519e-06 1.3080994e-05 -1.5078463e-05 
-4.8116999e-06 2.9233115e-06 -1.0087315e-05 
-1.4007764e-05 -1.0959789e-05 -3.3051610e-06 
-9.2373884e-06 -5.2302516e-06 -9.3210838e-06 
7.6610913e-06 1.8256129e-05 -7.2626574e-07 
1.4050974e-05 4.8995065e-05 1.3170523e-05 
4.5734352e-05 -2.3720801e-05 1.2882421e-05 
4.9403730e-05 -1.1086359e-04 1.4015176e-05 
-7.1652052e-05 -1.1219118e-03 7.7277859e-05 
0.0000000e+00 0.0000000e+00 0.0000000e+00 
0.0000000e+00 0.0000000e+00 0.0000000e+00 
0.0000000e+00 0.0000000e+00 0.0000000e+00 
0.0000000e+00 0.0000000e+00 0.0000000e+00 
0.0000000e+00 0.0000000e+00 0.0000000e+00 
0.0000000e+00 0.0000000e+00 0.0000000e+00 
0.0000000e+00 0.0000000e+00 0.0000000e+00 
0.0000000e+00 0.0000000e+00 0.0000000e+00 
0.0000000e+00 0.0000000e+00 0.0000000e+00 
0.0000000e+00 0.0000000e+00 0.0000000e+00 
0.0000000e+00 0.0000000e+00 0.0000000e+00 
0.0000000e+00 0.0000000e+00 0.0000000e+00 
0.0000000e+00 0.0000000e+00 0.0000000e+00 
0.0000000e+00 0.0000000e+00 0.0000000e+00 
0.0000000e+00 0.0000000e+00 0.0000000e+00 
0.0000000e+00 0.0000000e+00 0.0000000e+00 
0.0000000e+00 0.0000000e+00 0.0000000e+00 
0.0000000e+00 0.0000000e+00 0.0000000e+00 
0.0000000e+00 0.0000000e+00 0.0000000e+00 
0.0000000e+00 0.0000000e+00 0.0000000e+00 
0.0000000e+00 0.0000000e+00 0.0000000e+00 
0.0000000e+00 0.0000000e+00 0.0000000e+00 
0.0000000e+00 0.0000000e+00 0.0000000e+00 
0.0000000e+00 0.0000000e+00 0.0000000e+00 
0.0000000e+00 0.0000000e+00 0.0000000e+00 
0.0000000e+00 0.0000000e+00 0.0000000e+00 
0.0000000e+00 0.0000000e+00 0.0000000e+00 
0.0000000e+00 0.0000000e+00 0.0000000e+00 
0.0000000e+00 0.0000000e+00 0.0000000e+00 
0.0000000e+00 0.0000000e+00 0.0000000e+00 
0.0000000e+00 0.0000000e+00 0.0000000e+00 
0.0000000e+00 0.0000000e+00 0.0000000e+00 
0.0000000e+00 0.0000000e+00 0.0000000e+00 
0.0000000e+00 0.0000000e+00 0.0000000e+00 
0.0000000e+00 0.0000000e+00 0.0000000e+00 
0.0000000e+00 0.0000000e+00 0.0000000e+00 
0.0000000e+00 0.0000000e+00 0.0000000e+00 
0.0000000e+00 0.0000000e+00 0.0000000e+00 
0.0000000e+00 0.0000000e+00 0.0000000e+00 
0.0000000e+00 0.0000000e+00 0.0000000e+00 
0.0000000e+00 0.0000000e+00 0.0000000e+00 
0.0000000e+00 0.0000000e+00 0.0000000e+00 
-2.0588352e-06 5.3903119e-07 1.4379709e-06 
1.0441670e-05 -7.2152620e-06 -5.9344052e-06 
2.6491258e-05 -9.2703667e-06 2.6349753e-06 
7.3366579e-07 -2.4532994e-07 -7.4667054e-07 
1.1790316e-06 -6.1531898e-07 1.9610461e-06 
-2.8358809e-06 -9.7532222e-07 1.2164658e-06 
-3.7264281e-06 6.0429109e-08 9.0183988e-08 
-2.5781469e-06 2.0252849e-06 -2.2002688e-07 
6.7661676e-06 -5.2954524e-06 -9.2555283e-06 