# vtk DataFile Version 4.0
vtk output
ASCII
DATASET UNSTRUCTURED_GRID
POINTS 661 float
0.0000000e+00 0.0000000e+00 0.0000000e+00 
0.0000000e+00 0.0000000e+00 4.0000000e+01 
5.0000000e+00 0.0000000e+00 0.0000000e+00 
5.0000000e+00 0.0000000e+00 4.0000000e+01 
5.0000000e+00 1.0000000e+00 0.0000000e+00 
5.0000000e+00 1.0000000e+00 4.0000000e+01 
0.0000000e+00 1.0000000e+00 0.0000000e+00 
0.0000000e+00 1.0000000e+00 4.0000000e+01 
5.0000000e+00 2.0000000e+00 0.0000000e+00 
5.0000000e+00 2.0000000e+00 4.0000000e+01 
3.0000000e+00 2.0000000e+00 0.0000000e+00 
3.0000000e+00 2.0000000e+00 4.0000000e+01 
0.0000000e+00 2.0000000e+00 0.0000000e+00 
0.0000000e+00 2.0000000e+00 4.0000000e+01 
1.5000000e+00 3.0000000e+00 0.0000000e+00 
1.5000000e+00 3.0000000e+00 4.0000000e+01 
7.5000000e-01 3.0000000e+00 0.0000000e+00 
7.5000000e-01 3.0000000e+00 4.0000000e+01 
0.0000000e+00 3.0000000e+00 0.0000000e+00 
0.0000000e+00 3.0000000e+00 4.0000000e+01 
7.5000000e-01 3.0000000e+00 5.0000000e-01 
7.5000000e-01 3.0000000e+00 1.0000000e+00 
7.5000000e-01 3.0000000e+00 1.5000000e+00 
7.5000000e-01 3.0000000e+00 2.0000000e+00 
7.5000000e-01 3.0000000e+00 2.5000000e+00 
7.5000000e-01 3.0000000e+00 3.0000000e+00 
7.5000000e-01 3.0000000e+00 3.5000000e+00 
7.5000000e-01 3.0000000e+00 4.0000000e+00 
7.5000000e-01 3.0000000e+00 4.5000000e+00 
7.5000000e-01 3.0000000e+00 5.0000000e+00 
7.5000000e-01 3.0000000e+00 5.5000000e+00 
7.5000000e-01 3.0000000e+00 6.0000000e+00 
7.5000000e-01 3.0000000e+00 6.5000000e+00 
7.5000000e-01 3.0000000e+00 7.0000000e+00 
7.5000000e-01 3.0000000e+00 7.5000000e+00 
7.5000000e-01 3.0000000e+00 8.0000000e+00 
7.5000000e-01 3.0000000e+00 8.5000000e+00 
7.5000000e-01 3.0000000e+00 9.0000000e+00 
7.5000000e-01 3.0000000e+00 9.5000000e+00 
7.5000000e-01 3.0000000e+00 1.0000000e+01 
7.5000000e-01 3.0000000e+00 1.0500000e+01 
7.5000000e-01 3.0000000e+00 1.1000000e+01 
7.5000000e-01 3.0000000e+00 1.1500000e+01 
7.5000000e-01 3.0000000e+00 1.2000000e+01 
7.5000000e-01 3.0000000e+00 1.2500000e+01 
7.5000000e-01 3.0000000e+00 1.3000000e+01 
7.5000000e-01 3.0000000e+00 1.3500000e+01 
7.5000000e-01 3.0000000e+00 1.4000000e+01 
7.5000000e-01 3.0000000e+00 1.4500000e+01 
7.5000000e-01 3.0000000e+00 1.5000000e+01 
7.5000000e-01 3.0000000e+00 1.5500000e+01 
7.5000000e-01 3.0000000e+00 1.6000000e+01 
7.5000000e-01 3.0000000e+00 1.6500000e+01 
7.5000000e-01 3.0000000e+00 1.7000000e+01 
7.5000000e-01 3.0000000e+00 1.7500000e+01 
7.5000000e-01 3.0000000e+00 1.8000000e+01 
7.5000000e-01 3.0000000e+00 1.8500000e+01 
7.5000000e-01 3.0000000e+00 1.9000000e+01 
7.5000000e-01 3.0000000e+00 1.9500000e+01 
7.5000000e-01 3.0000000e+00 2.0000000e+01 
7.5000000e-01 3.0000000e+00 2.0500000e+01 
7.5000000e-01 3.0000000e+00 2.1000000e+01 
7.5000000e-01 3.0000000e+00 2.1500000e+01 
7.5000000e-01 3.0000000e+00 2.2000000e+01 
7.5000000e-01 3.0000000e+00 2.2500000e+01 
7.5000000e-01 3.0000000e+00 2.3000000e+01 
7.5000000e-01 3.0000000e+00 2.3500000e+01 
7.5000000e-01 3.0000000e+00 2.4000000e+01 
7.5000000e-01 3.0000000e+00 2.4500000e+01 
7.5000000e-01 3.0000000e+00 2.5000000e+01 
7.5000000e-01 3.0000000e+00 2.5500000e+01 
7.5000000e-01 3.0000000e+00 2.6000000e+01 
7.5000000e-01 3.0000000e+00 2.6500000e+01 
7.5000000e-01 3.0000000e+00 2.7000000e+01 
7.5000000e-01 3.0000000e+00 2.7500000e+01 
7.5000000e-01 3.0000000e+00 2.8000000e+01 
7.5000000e-01 3.0000000e+00 2.8500000e+01 
7.5000000e-01 3.0000000e+00 2.9000000e+01 
7.5000000e-01 3.0000000e+00 2.9500000e+01 
7.5000000e-01 3.0000000e+00 3.0000000e+01 
7.5000000e-01 3.0000000e+00 3.0500000e+01 
7.5000000e-01 3.0000000e+00 3.1000000e+01 
7.5000000e-01 3.0000000e+00 3.1500000e+01 
7.5000000e-01 3.0000000e+00 3.2000000e+01 
7.5000000e-01 3.0000000e+00 3.2500000e+01 
7.5000000e-01 3.0000000e+00 3.3000000e+01 
7.5000000e-01 3.0000000e+00 3.3500000e+01 
7.5000000e-01 3.0000000e+00 3.4000000e+01 
7.5000000e-01 3.0000000e+00 3.4500000e+01 
7.5000000e-01 3.0000000e+00 3.5000000e+01 
7.5000000e-01 3.0000000e+00 3.5500000e+01 
7.5000000e-01 3.0000000e+00 3.6000000e+01 
7.5000000e-01 3.0000000e+00 3.6500000e+01 
7.5000000e-01 3.0000000e+00 3.7000000e+01 
7.5000000e-01 3.0000000e+00 3.7500000e+01 
7.5000000e-01 3.0000000e+00 3.8000000e+01 
7.5000000e-01 3.0000000e+00 3.8500000e+01 
7.5000000e-01 3.0000000e+00 3.9000000e+01 
7.5000000e-01 3.0000000e+00 3.9500000e+01 
7.5000000e-01 3.0000000e+00 4.0500000e+01 
7.5000000e-01 3.0000000e+00 4.1000000e+01 
7.5000000e-01 3.0000000e+00 4.1500000e+01 
7.5000000e-01 3.0000000e+00 4.2000000e+01 
7.5000000e-01 3.0000000e+00 4.2500000e+01 
7.5000000e-01 3.0000000e+00 4.3000000e+01 
7.5000000e-01 3.0000000e+00 4.3500000e+01 
7.5000000e-01 3.0000000e+00 4.4000000e+01 
7.5000000e-01 3.0000000e+00 4.4500000e+01 
7.5000000e-01 3.0000000e+00 4.5000000e+01 
7.5000000e-01 3.0000000e+00 4.5500000e+01 
7.5000000e-01 3.0000000e+00 4.6000000e+01 
7.5000000e-01 3.0000000e+00 4.6500000e+01 
7.5000000e-01 3.0000000e+00 4.7000000e+01 
7.5000000e-01 3.0000000e+00 4.7500000e+01 
7.5000000e-01 3.0000000e+00 4.8000000e+01 
7.5000000e-01 3.0000000e+00 4.8500000e+01 
7.5000000e-01 3.0000000e+00 4.9000000e+01 
7.5000000e-01 3.0000000e+00 4.9500000e+01 
7.5000000e-01 3.0000000e+00 5.0000000e+01 
7.5000000e-01 3.0250001e+00 0.0000000e+00 
7.5000000e-01 3.0250001e+00 5.0000000e-01 
7.5000000e-01 3.0250001e+00 1.0000000e+00 
7.5000000e-01 3.0250001e+00 1.5000000e+00 
7.5000000e-01 3.0250001e+00 2.0000000e+00 
7.5000000e-01 3.0250001e+00 2.5000000e+00 
7.5000000e-01 3.0250001e+00 3.0000000e+00 
7.5000000e-01 3.0250001e+00 3.5000000e+00 
7.5000000e-01 3.0250001e+00 4.0000000e+00 
7.5000000e-01 3.0250001e+00 4.5000000e+00 
7.5000000e-01 3.0250001e+00 5.0000000e+00 
7.5000000e-01 3.0250001e+00 5.5000000e+00 
7.5000000e-01 3.0250001e+00 6.0000000e+00 
7.5000000e-01 3.0250001e+00 6.5000000e+00 
7.5000000e-01 3.0250001e+00 7.0000000e+00 
7.5000000e-01 3.0250001e+00 7.5000000e+00 
7.5000000e-01 3.0250001e+00 8.0000000e+00 
7.5000000e-01 3.0250001e+00 8.5000000e+00 
7.5000000e-01 3.0250001e+00 9.0000000e+00 
7.5000000e-01 3.0250001e+00 9.5000000e+00 
7.5000000e-01 3.0250001e+00 1.0000000e+01 
7.5000000e-01 3.0250001e+00 1.0500000e+01 
7.5000000e-01 3.0250001e+00 1.1000000e+01 
7.5000000e-01 3.0250001e+00 1.1500000e+01 
7.5000000e-01 3.0250001e+00 1.2000000e+01 
7.5000000e-01 3.0250001e+00 1.2500000e+01 
7.5000000e-01 3.0250001e+00 1.3000000e+01 
7.5000000e-01 3.0250001e+00 1.3500000e+01 
7.5000000e-01 3.0250001e+00 1.4000000e+01 
7.5000000e-01 3.0250001e+00 1.4500000e+01 
7.5000000e-01 3.0250001e+00 1.5000000e+01 
7.5000000e-01 3.0250001e+00 1.5500000e+01 
7.5000000e-01 3.0250001e+00 1.6000000e+01 
7.5000000e-01 3.0250001e+00 1.6500000e+01 
7.5000000e-01 3.0250001e+00 1.7000000e+01 
7.5000000e-01 3.0250001e+00 1.7500000e+01 
7.5000000e-01 3.0250001e+00 1.8000000e+01 
7.5000000e-01 3.0250001e+00 1.8500000e+01 
7.5000000e-01 3.0250001e+00 1.9000000e+01 
7.5000000e-01 3.0250001e+00 1.9500000e+01 
7.5000000e-01 3.0250001e+00 2.0000000e+01 
7.5000000e-01 3.0250001e+00 2.0500000e+01 
7.5000000e-01 3.0250001e+00 2.1000000e+01 
7.5000000e-01 3.0250001e+00 2.1500000e+01 
7.5000000e-01 3.0250001e+00 2.2000000e+01 
7.5000000e-01 3.0250001e+00 2.2500000e+01 
7.5000000e-01 3.0250001e+00 2.3000000e+01 
7.5000000e-01 3.0250001e+00 2.3500000e+01 
7.5000000e-01 3.0250001e+00 2.4000000e+01 
7.5000000e-01 3.0250001e+00 2.4500000e+01 
7.5000000e-01 3.0250001e+00 2.5000000e+01 
7.5000000e-01 3.0250001e+00 2.5500000e+01 
7.5000000e-01 3.0250001e+00 2.6000000e+01 
7.5000000e-01 3.0250001e+00 2.6500000e+01 
7.5000000e-01 3.0250001e+00 2.7000000e+01 
7.5000000e-01 3.0250001e+00 2.7500000e+01 
7.5000000e-01 3.0250001e+00 2.8000000e+01 
7.5000000e-01 3.0250001e+00 2.8500000e+01 
7.5000000e-01 3.0250001e+00 2.9000000e+01 
7.5000000e-01 3.0250001e+00 2.9500000e+01 
7.5000000e-01 3.0250001e+00 3.0000000e+01 
7.5000000e-01 3.0250001e+00 3.0500000e+01 
7.5000000e-01 3.0250001e+00 3.1000000e+01 
7.5000000e-01 3.0250001e+00 3.1500000e+01 
7.5000000e-01 3.0250001e+00 3.2000000e+01 
7.5000000e-01 3.0250001e+00 3.2500000e+01 
7.5000000e-01 3.0250001e+00 3.3000000e+01 
7.5000000e-01 3.0250001e+00 3.3500000e+01 
7.5000000e-01 3.0250001e+00 3.4000000e+01 
7.5000000e-01 3.0250001e+00 3.4500000e+01 
7.5000000e-01 3.0250001e+00 3.5000000e+01 
7.5000000e-01 3.0250001e+00 3.5500000e+01 
7.5000000e-01 3.0250001e+00 3.6000000e+01 
7.5000000e-01 3.0250001e+00 3.6500000e+01 
7.5000000e-01 3.0250001e+00 3.7000000e+01 
7.5000000e-01 3.0250001e+00 3.7500000e+01 
7.5000000e-01 3.0250001e+00 3.8000000e+01 
7.5000000e-01 3.0250001e+00 3.8500000e+01 
7.5000000e-01 3.0250001e+00 3.9000000e+01 
7.5000000e-01 3.0250001e+00 3.9500000e+01 
7.5000000e-01 3.0250001e+00 4.0000000e+01 
7.5000000e-01 3.0250001e+00 4.0500000e+01 
7.5000000e-01 3.0250001e+00 4.1000000e+01 
7.5000000e-01 3.0250001e+00 4.1500000e+01 
7.5000000e-01 3.0250001e+00 4.2000000e+01 
7.5000000e-01 3.0250001e+00 4.2500000e+01 
7.5000000e-01 3.0250001e+00 4.3000000e+01 
7.5000000e-01 3.0250001e+00 4.3500000e+01 
7.5000000e-01 3.0250001e+00 4.4000000e+01 
7.5000000e-01 3.0250001e+00 4.4500000e+01 
7.5000000e-01 3.0250001e+00 4.5000000e+01 
7.5000000e-01 3.0250001e+00 4.5500000e+01 
7.5000000e-01 3.0250001e+00 4.6000000e+01 
7.5000000e-01 3.0250001e+00 4.6500000e+01 
7.5000000e-01 3.0250001e+00 4.7000000e+01 
7.5000000e-01 3.0250001e+00 4.7500000e+01 
7.5000000e-01 3.0250001e+00 4.8000000e+01 
7.5000000e-01 3.0250001e+00 4.8500000e+01 
7.5000000e-01 3.0250001e+00 4.9000000e+01 
7.5000000e-01 3.0250001e+00 4.9500000e+01 
7.5000000e-01 3.0250001e+00 5.0000000e+01 
3.0000000e+00 2.0000000e+00 3.6000000e+01 
8.0487806e-01 3.0000000e+00 3.6000000e+01 
0.0000000e+00 0.0000000e+00 2.0000000e+00 
0.0000000e+00 0.0000000e+00 4.0000000e+00 
0.0000000e+00 0.0000000e+00 6.0000000e+00 
0.0000000e+00 0.0000000e+00 8.0000000e+00 
0.0000000e+00 0.0000000e+00 1.0000000e+01 
0.0000000e+00 0.0000000e+00 1.2000000e+01 
0.0000000e+00 0.0000000e+00 1.4000000e+01 
0.0000000e+00 0.0000000e+00 1.6000000e+01 
[...]
POINT_DATA 661
FIELD FieldData 3
DISPLACEMENT 3 661  float
0.0000000e+00 0.0000000e+00 0.0000000e+00 
0.0000000e+00 0.0000000e+00 0.0000000e+00 
0.0000000e+00 0.0000000e+00 0.0000000e+00 
0.0000000e+00 0.0000000e+00 0.0000000e+00 
2.0074349e-05 -2.4118199e-05 -3.2108088e-05 
-1.5165273e-07 -6.7674978e-07 -2.4388015e-08 
0.0000000e+00 -9.2795817e-05 0.0000000e+00 
0.0000000e+00 -1.5998099e-06 0.0000000e+00 
2.5148800e-05 -3.2072105e-05 -5.6740526e-05 
-3.8289303e-07 -8.4473578e-07 9.1361278e-07 
6.2653462e-06 -2.8664044e-05 -3.9407696e-05 
-5.6427450e-07 -2.0343275e-06 3.2212137e-07 
0.0000000e+00 -1.1624617e-04 0.0000000e+00 
0.0000000e+00 -3.5623102e-06 0.0000000e+00 
3.5132194e-05 4.3072223e-06 7.6242177e-05 
-4.2822535e-07 -8.2960232e-06 -2.2633976e-06 
1.9733601e-05 3.5696878e-05 2.2661051e-04 
4.1224078e-07 -7.6140354e-06 -7.9227112e-07 
0.0000000e+00 -4.9748807e-05 0.0000000e+00 
0.0000000e+00 -6.6923053e-06 0.0000000e+00 
-4.3012715e-05 -4.4317334e-05 1.8822389e-04 
-6.7043715e-05 -2.8480450e-04 1.2501674e-04 
-9.0137488e-05 -7.1448390e-04 2.1253338e-04 
-1.0642692e-04 -1.3727809e-03 2.3884074e-04 
-1.8641631e-04 -2.2487950e-03 1.2629192e-04 
-2.1927300e-04 -3.2439553e-03 1.3544815e-04 
-1.1850487e-04 -4.0376354e-03 1.0006650e-04 
-8.5519867e-05 -4.0674345e-03 1.2009274e-04 
-2.2937973e-04 -3.9000087e-03 5.3725013e-05 
-3.0219855e-04 -3.8999480e-03 4.2307674e-05 
-2.0697303e-04 -4.1699833e-03 1.1295272e-05 
-6.4939966e-05 -4.2041750e-03 -4.8819085e-05 
-1.0005070e-04 -3.5104901e-03 -1.5887726e-04 
-2.0266240e-04 -2.4801153e-03 -1.9701108e-04 
-1.9392897e-04 -1.5894718e-03 -1.8883964e-04 
-7.2139919e-05 -9.2174747e-04 -1.1830677e-04 
-4.5881330e-05 -5.0759927e-04 -1.5537046e-04 
-4.0247374e-05 -2.7403183e-04 -1.3910905e-04 
-3.1577918e-05 -1.5014377e-04 -1.3559657e-04 
-4.0200271e-06 -7.6476739e-05 -1.2213590e-04 
1.7830002e-05 -1.5286276e-05 -8.8635374e-05 
3.1835574e-05 4.4763336e-05 -4.9218877e-05 
2.1845566e-05 1.0072265e-04 -1.5290891e-05 
5.0475787e-06 1.4112583e-04 1.6084376e-05 
1.2259784e-06 1.5509345e-04 1.7589857e-05 
-3.6318302e-06 1.4648875e-04 1.3440456e-05 
-3.4639982e-06 1.2320661e-04 -1.2416987e-06 
2.3059524e-06 9.3792092e-05 -2.6215386e-05 
2.2139311e-07 6.6170207e-05 -4.1019957e-05 
5.9490972e-06 4.0991465e-05 -4.2718992e-05 
6.7037736e-06 1.7115170e-05 -3.2436656e-05 
6.4367991e-06 -5.7988850e-06 -1.4600667e-05 
5.0082335e-06 -2.8506158e-05 1.3702403e-05 
9.1043821e-06 -5.0556082e-05 3.2187829e-05 
7.5010175e-06 -7.2251991e-05 4.6838060e-05 
-7.1521486e-06 -8.8234134e-05 6.1337116e-05 
-2.4563955e-05 -9.3343289e-05 4.9979448e-05 
-2.9266856e-05 -8.9307476e-05 3.9098122e-05 
-2.0013553e-05 -8.2856503e-05 2.9502211e-05 
-2.5013371e-06 -1.0452266e-04 1.3701415e-05 
-3.6694171e-05 -1.9952867e-04 3.1472526e-05 
-5.7152261e-05 -4.2115396e-04 5.6215744e-05 
-7.8449302e-05 -8.4146560e-04 9.2327406e-05 
-1.1855735e-04 -1.5008383e-03 4.2765267e-05 
-2.2818992e-04 -2.4075573e-03 1.5900914e-04 
-2.1761673e-04 -3.3479950e-03 1.6339849e-04 
-1.2636269e-04 -3.9651757e-03 1.3645257e-04 
-1.0911605e-04 -3.8631984e-03 1.8371092e-04 
-2.6088257e-04 -3.7097207e-03 1.1286089e-04 
-3.2207856e-04 -3.7805578e-03 9.4306721e-05 
-2.1274884e-04 -4.0981765e-03 4.3289019e-05 
-7.8300436e-05 -4.0621101e-03 -1.3816095e-05 
-1.0612510e-04 -3.3191310e-03 -1.4670838e-04 
-2.0156341e-04 -2.3369801e-03 -1.9952633e-04 
-1.8860104e-04 -1.5018807e-03 -2.1352081e-04 
-8.2594255e-05 -8.7016507e-04 -1.5709108e-04 
-4.6718807e-05 -4.6192983e-04 -1.8021156e-04 
-2.7154549e-05 -2.1636132e-04 -1.4370277e-04 
-1.7800226e-05 -7.7898883e-05 -1.2098331e-04 
9.5482346e-06 -4.1681048e-08 -9.4337534e-05 
2.4369023e-05 4.5308221e-05 -6.1401683e-05 
3.5691708e-05 7.3999210e-05 -2.4086010e-05 
2.3195116e-05 9.1097354e-05 8.6327800e-06 
6.3708430e-06 9.5937001e-05 3.3029573e-05 
-1.4050365e-06 8.5283624e-05 3.8561175e-05 
-8.0047321e-06 6.2570536e-05 3.2746637e-05 
-8.3839450e-06 3.3724893e-05 1.9937321e-05 
-5.1439370e-06 5.4907309e-06 3.3610095e-06 
-4.1716335e-06 -1.5256726e-05 -5.7331249e-06 
-2.2573661e-06 -2.7336127e-05 -1.2534444e-05 
2.2874974e-06 -2.9576464e-05 -1.5616448e-05 
1.2125801e-06 -2.2725473e-05 -1.0302139e-05 
1.6694160e-06 -8.7896160e-06 -3.9121719e-06 
1.7368982e-06 6.6830698e-06 2.5415941e-06 
-7.2160259e-07 1.5867327e-05 6.4299970e-06 
-6.3640738e-07 1.5938715e-05 5.0733770e-06 
-7.0095473e-07 8.6400460e-06 2.0914019e-06 
-5.5394179e-07 -9.0641595e-07 -1.3100148e-06 
-6.6610191e-08 -6.7611800e-06 -2.9930820e-06 
0.0000000e+00 -4.6962205e-06 0.0000000e+00 
0.0000000e+00 -5.7132138e-07 0.0000000e+00 
0.0000000e+00 2.3074076e-06 0.0000000e+00 
0.0000000e+00 3.0503729e-06 0.0000000e+00 
0.0000000e+00 2.3539656e-06 0.0000000e+00 
0.0000000e+00 1.4222451e-06 0.0000000e+00 
0.0000000e+00 8.5575380e-07 0.0000000e+00 
0.0000000e+00 4.3403168e-07 0.0000000e+00 
0.0000000e+00 -2.4749355e-07 0.0000000e+00 
0.0000000e+00 -1.1078016e-06 0.0000000e+00 
0.0000000e+00 -1.5845362e-06 0.0000000e+00 
0.0000000e+00 -1.2309366e-06 0.0000000e+00 
0.0000000e+00 -2.2059643e-07 0.0000000e+00 
0.0000000e+00 7.6521530e-07 0.0000000e+00 
0.0000000e+00 1.1222406e-06 0.0000000e+00 
0.0000000e+00 7.8676584e-07 0.0000000e+00 
0.0000000e+00 1.7385575e-07 0.0000000e+00 
0.0000000e+00 -2.6568441e-07 0.0000000e+00 
0.0000000e+00 -4.0225723e-07 0.0000000e+00 
0.0000000e+00 -4.0045603e-07 0.0000000e+00 
0.0000000e+00 3.5801942e-05 0.0000000e+00 
0.0000000e+00 -4.2718766e-05 0.0000000e+00 
0.0000000e+00 -2.8421220e-04 0.0000000e+00 
0.0000000e+00 -7.1688497e-04 0.0000000e+00 
0.0000000e+00 -1.3766093e-03 0.0000000e+00 
0.0000000e+00 -2.2612975e-03 0.0000000e+00 
0.0000000e+00 -3.2766485e-03 0.0000000e+00 
0.0000000e+00 -4.0620193e-03 0.0000000e+00 
0.0000000e+00 -4.0986249e-03 0.0000000e+00 
0.0000000e+00 -3.9141197e-03 0.0000000e+00 
0.0000000e+00 -3.9305245e-03 0.0000000e+00 
0.0000000e+00 -4.1901083e-03 0.0000000e+00 
0.0000000e+00 -4.2392663e-03 0.0000000e+00 
0.0000000e+00 -3.5289736e-03 0.0000000e+00 
0.0000000e+00 -2.4992288e-03 0.0000000e+00 
0.0000000e+00 -1.5919431e-03 0.0000000e+00 
0.0000000e+00 -9.2616491e-04 0.0000000e+00 
0.0000000e+00 -5.0748273e-04 0.0000000e+00 
0.0000000e+00 -2.7318764e-04 0.0000000e+00 
0.0000000e+00 -1.4898807e-04 0.0000000e+00 
0.0000000e+00 -7.5147735e-05 0.0000000e+00 
0.0000000e+00 -1.4601560e-05 0.0000000e+00 
0.0000000e+00 4.5158307e-05 0.0000000e+00 
0.0000000e+00 1.0067313e-04 0.0000000e+00 
0.0000000e+00 1.4037151e-04 0.0000000e+00 
0.0000000e+00 1.5492122e-04 0.0000000e+00 
0.0000000e+00 1.4652885e-04 0.0000000e+00 
0.0000000e+00 1.2329848e-04 0.0000000e+00 
0.0000000e+00 9.4224197e-05 0.0000000e+00 
0.0000000e+00 6.6321307e-05 0.0000000e+00 
0.0000000e+00 4.0999923e-05 0.0000000e+00 
0.0000000e+00 1.7109322e-05 0.0000000e+00 
0.0000000e+00 -5.9488393e-06 0.0000000e+00 
0.0000000e+00 -2.8576120e-05 0.0000000e+00 
0.0000000e+00 -5.0916227e-05 0.0000000e+00 
0.0000000e+00 -7.2222516e-05 0.0000000e+00 
0.0000000e+00 -8.7823988e-05 0.0000000e+00 
0.0000000e+00 -9.3021561e-05 0.0000000e+00 
0.0000000e+00 -8.8098939e-05 0.0000000e+00 
0.0000000e+00 -8.2147635e-05 0.0000000e+00 
0.0000000e+00 -1.0407215e-04 0.0000000e+00 
0.0000000e+00 -1.9853422e-04 0.0000000e+00 
0.0000000e+00 -4.2243014e-04 0.0000000e+00 
0.0000000e+00 -8.4341521e-04 0.0000000e+00 
0.0000000e+00 -1.5115571e-03 0.0000000e+00 
0.0000000e+00 -2.4164328e-03 0.0000000e+00 
0.0000000e+00 -3.3830986e-03 0.0000000e+00 
0.0000000e+00 -3.9891447e-03 0.0000000e+00 
0.0000000e+00 -3.8934378e-03 0.0000000e+00 
0.0000000e+00 -3.7233566e-03 0.0000000e+00 
0.0000000e+00 -3.8122225e-03 0.0000000e+00 
0.0000000e+00 -4.1195075e-03 0.0000000e+00 
0.0000000e+00 -4.0958868e-03 0.0000000e+00 
0.0000000e+00 -3.3353800e-03 0.0000000e+00 
0.0000000e+00 -2.3527781e-03 0.0000000e+00 
0.0000000e+00 -1.5035628e-03 0.0000000e+00 
0.0000000e+00 -8.7363570e-04 0.0000000e+00 
0.0000000e+00 -4.6169222e-04 0.0000000e+00 
0.0000000e+00 -2.1564934e-04 0.0000000e+00 
0.0000000e+00 -7.6897581e-05 0.0000000e+00 
0.0000000e+00 6.1918286e-07 0.0000000e+00 
0.0000000e+00 4.5832821e-05 0.0000000e+00 
0.0000000e+00 7.4262251e-05 0.0000000e+00 
0.0000000e+00 9.1201378e-05 0.0000000e+00 
0.0000000e+00 9.5606345e-05 0.0000000e+00 
0.0000000e+00 8.5196436e-05 0.0000000e+00 
0.0000000e+00 6.2583873e-05 0.0000000e+00 
0.0000000e+00 3.3737710e-05 0.0000000e+00 
0.0000000e+00 5.7580642e-06 0.0000000e+00 
0.0000000e+00 -1.5254675e-05 0.0000000e+00 
0.0000000e+00 -2.7219950e-05 0.0000000e+00 
0.0000000e+00 -2.9504490e-05 0.0000000e+00 
0.0000000e+00 -2.2565702e-05 0.0000000e+00 
0.0000000e+00 -8.7190829e-06 0.0000000e+00 
0.0000000e+00 6.3717889e-06 0.0000000e+00 
0.0000000e+00 1.5633252e-05 0.0000000e+00 
0.0000000e+00 1.5812877e-05 0.0000000e+00 
0.0000000e+00 8.6599630e-06 0.0000000e+00 
0.0000000e+00 -6.4379628e-07 0.0000000e+00 
0.0000000e+00 -6.6521379e-06 0.0000000e+00 
0.0000000e+00 -7.5914154e-06 0.0000000e+00 
0.0000000e+00 -4.7265730e-06 0.0000000e+00 
0.0000000e+00 -6.4704932e-07 0.0000000e+00 
0.0000000e+00 2.2495160e-06 0.0000000e+00 
0.0000000e+00 3.0461154e-06 0.0000000e+00 
0.0000000e+00 2.3874993e-06 0.0000000e+00 
0.0000000e+00 1.4503272e-06 0.0000000e+00 
0.0000000e+00 8.5244073e-07 0.0000000e+00 
0.0000000e+00 4.1129067e-07 0.0000000e+00 
0.0000000e+00 -2.5936038e-07 0.0000000e+00 
0.0000000e+00 -1.0944823e-06 0.0000000e+00 
0.0000000e+00 -1.5600828e-06 0.0000000e+00 
0.0000000e+00 -1.2191813e-06 0.0000000e+00 
0.0000000e+00 -2.2990926e-07 0.0000000e+00 
0.0000000e+00 7.4681594e-07 0.0000000e+00 
0.0000000e+00 1.1110508e-06 0.0000000e+00 
0.0000000e+00 7.8772337e-07 0.0000000e+00 
0.0000000e+00 1.8055853e-07 0.0000000e+00 
0.0000000e+00 -2.6078834e-07 0.0000000e+00 
0.0000000e+00 -4.0131476e-07 0.0000000e+00 
0.0000000e+00 -4.0125261e-07 0.0000000e+00 
-1.2201177e-06 -4.0304840e-06 -7.7899978e-07 
8.6153386e-07 -2.4518795e-05 -1.1183108e-05 
0.0000000e+00 0.0000000e+00 0.0000000e+00 
0.0000000e+00 0.0000000e+00 0.0000000e+00 
0.0000000e+00 0.0000000e+00 0.0000000e+00 
0.0000000e+00 0.0000000e+00 0.0000000e+00 
0.0000000e+00 0.0000000e+00 0.0000000e+00 
0.0000000e+00 0.0000000e+00 0.0000000e+00 
0.0000000e+00 0.0000000e+00 0.0000000e+00 
0.0000000e+00 0.0000000e+00 0.0000000e+00 
0.0000000e+00 0.0000000e+00 0.0000000e+00 
0.0000000e+00 0.0000000e+00 0.0000000e+00 
0.0000000e+00 0.0000000e+00 0.0000000e+00 
0.0000000e+00 0.0000000e+00 0.0000000e+00 
0.0000000e+00 0.0000000e+00 0.0000000e+00 
0.0000000e+00 0.0000000e+00 0.0000000e+00 
0.0000000e+00 0.0000000e+00 0.0000000e+00 
0.0000000e+00 0.0000000e+00 0.0000000e+00 
0.0000000e+00 0.0000000e+00 0.0000000e+00 
0.0000000e+00 0.0000000e+00 0.0000000e+00 
0.0000000e+00 0.0000000e+00 0.0000000e+00 
0.0000000e+00 0.0000000e+00 0.0000000e+00 
0.0000000e+00 0.0000000e+00 0.0000000e+00 
0.0000000e+00 0.0000000e+00 0.0000000e+00 
0.0000000e+00 0.0000000e+00 0.0000000e+00 
0.0000000e+00 0.0000000e+00 0.0000000e+00 
0.0000000e+00 0.0000000e+00 0.0000000e+00 
0.0000000e+00 0.0000000e+00 0.0000000e+00 
0.0000000e+00 0.0000000e+00 0.0000000e+00 
0.0000000e+00 0.0000000e+00 0.0000000e+00 
0.0000000e+00 0.0000000e+00 0.0000000e+00 
0.0000000e+00 0.0000000e+00 0.0000000e+00 
0.0000000e+00 0.0000000e+00 0.0000000e+00 
0.0000000e+00 0.0000000e+00 0.0000000e+00 
0.0000000e+00 0.0000000e+00 0.0000000e+00 
0.0000000e+00 0.0000000e+00 0.0000000e+00 
0.0000000e+00 0.0000000e+00 0.0000000e+00 
0.0000000e+00 0.0000000e+00 0.0000000e+00 
0.0000000e+00 0.0000000e+00 0.0000000e+00 
0.0000000e+00 0.0000000e+00 0.0000000e+00 
0.0000000e+00 0.0000000e+00 0.0000000e+00 
0.0000000e+00 0.0000000e+00 0.0000000e+00 
0.0000000e+00 0.0000000e+00 0.0000000e+00 
0.0000000e+00 0.0000000e+00 0.0000000e+00 
3.2085718e-05 -9.7175587e-07 -2.4366036e-05 
5.9419111e-05 -4.5806873e-06 -1.4595991e-05 
3.9514303e-05 -7.8171652e-06 -5.7351326e-07 
1.0794894e-05 -9.9014769e-06 3.4311870e-07 
4.2380261e-06 -8.2426814e-06 1.1659236e-05 
-7.1126601e-07 4.4757862e-06 8.7266008e-06 
8.0189420e-06 6.2650302e-06 -6.5591103e-06 
3.4517755e-06 -2.8138379e-06 -1.2801800e-05 
1.4093484e-06 -6.1976698e-06 -3.5067667e-06 
1.2425865e-05 -1.0104648e-05 -4.3697742e-06 
3.4249551e-05 -2.2413183e-06 -3.8946932e-06 
4.8282429e-05 -1.1928814e-06 4.9946300e-07 
3.6744503e-05 -7.2075932e-06 1.6592933e-06 
1.1824202e-05 -1.4466308e-05 2.7974668e-06 
6.8346799e-06 -8.5562488e-07 8.4513013e-06 
2.2719239e-06 3.4614409e-06 9.3035196e-06 
1.4799653e-07 -1.1805180e-06 1.6216799e-06 
-6.1251109e-07 -1.6902640e-06 -1.3064005e-06 
3.5421252e-07 1.0606192e-06 2.9989272e-07 
0.0000000e+00 -2.1401454e-04 0.0000000e+00 
0.0000000e+00 -4.8724536e-04 0.0000000e+00 
0.0000000e+00 -5.1163143e-04 0.0000000e+00 
0.0000000e+00 -1.8460490e-04 0.0000000e+00 
0.0000000e+00 -2.7223901e-05 0.0000000e+00 
0.0000000e+00 3.8334845e-05 0.0000000e+00 
0.0000000e+00 1.6305161e-05 0.0000000e+00 
0.0000000e+00 3.0260999e-05 0.0000000e+00 
0.0000000e+00 -2.4321635e-05 0.0000000e+00 
0.0000000e+00 -3.7639533e-05 0.0000000e+00 
0.0000000e+00 -1.9950913e-04 0.0000000e+00 
0.0000000e+00 -4.7035443e-04 0.0000000e+00 
0.0000000e+00 -5.2537210e-04 0.0000000e+00 
0.0000000e+00 -1.8914018e-04 0.0000000e+00 
0.0000000e+00 -2.9793073e-06 0.0000000e+00 
0.0000000e+00 3.0606905e-05 0.0000000e+00 
0.0000000e+00 -4.4323692e-06 0.0000000e+00 
0.0000000e+00 -2.8892130e-06 0.0000000e+00 
0.0000000e+00 1.4137142e-06 0.0000000e+00 
2.5522684e-05 -1.9255960e-05 -2.7574570e-05 
2.4240375e-05 -5.7421523e-05 -4.6003523e-05 
-2.1079371e-07 -8.4975420e-07 -2.3611324e-07 
-2.7139870e-07 -1.4365130e-06 -4.9834682e-07 
3.1315918e-05 4.9150040e-06 -3.5408695e-05 
5.3523570e-05 7.3030433e-06 -1.3178963e-05 
3.3549772e-05 -1.1657651e-06 -5.3442557e-07 
4.5786046e-06 -6.7420624e-06 -1.1142041e-06 
2.7769102e-07 -1.3495622e-05 6.8264344e-06 
3.7821071e-06 7.6029874e-06 2.7904696e-06 
1.3690717e-05 1.0937638e-05 -2.2114161e-06 
-1.1513021e-06 -5.0384501e-06 -7.2839607e-06 
-6.2742952e-06 -8.7585477e-06 -6.4560368e-06 
1.7786013e-05 -1.1968089e-05 -9.4969373e-06 
3.6081678e-05 3.2965340e-07 -4.0688215e-06 
4.7589307e-05 1.8182947e-06 2.9182850e-06 
2.6557560e-05 -3.4525597e-06 1.1136260e-05 
-5.9646879e-07 -1.7771403e-05 -4.2088800e-08 
1.9530057e-06 -2.8998679e-06 3.2908733e-07 
4.3700893e-06 4.1314565e-06 1.0177897e-05 
2.2271936e-06 -3.8601948e-07 4.1197372e-06 
-7.7616068e-07 -1.9112640e-06 -4.7333694e-07 
7.9997619e-08 1.0329929e-06 -4.7498250e-07 
7.9671390e-06 -8.6617722e-05 -4.2502706e-05 
0.0000000e+00 -4.6372265e-04 0.0000000e+00 
0.0000000e+00 -1.1074207e-03 0.0000000e+00 
0.0000000e+00 -1.1498858e-03 0.0000000e+00 
0.0000000e+00 -3.5041451e-04 0.0000000e+00 
0.0000000e+00 -5.0774473e-05 0.0000000e+00 
0.0000000e+00 8.0109938e-05 0.0000000e+00 
0.0000000e+00 3.4292549e-05 0.0000000e+00 
0.0000000e+00 4.3683947e-05 0.0000000e+00 
0.0000000e+00 -5.3648619e-05 0.0000000e+00 
0.0000000e+00 -6.4029795e-05 0.0000000e+00 
0.0000000e+00 -4.4645427e-04 0.0000000e+00 
0.0000000e+00 -1.0558815e-03 0.0000000e+00 
0.0000000e+00 -1.1441169e-03 0.0000000e+00 
0.0000000e+00 -3.5224968e-04 0.0000000e+00 
0.0000000e+00 -7.8371380e-07 0.0000000e+00 
0.0000000e+00 5.8597267e-05 0.0000000e+00 
0.0000000e+00 -9.3682538e-06 0.0000000e+00 
0.0000000e+00 -9.0060921e-06 0.0000000e+00 
0.0000000e+00 6.5041072e-06 0.0000000e+00 
-2.9368087e-07 -2.3724297e-06 -5.0986904e-07 
-3.2811787e-04 -4.3506172e-04 2.7084543e-04 
-6.2946259e-04 -1.3421235e-03 1.1683976e-04 
-6.0610258e-04 -1.3839821e-03 -1.0693397e-04 
-1.7540048e-04 -3.0101161e-04 -2.2445088e-04 
3.5476896e-06 -7.0838767e-05 -1.4401010e-04 
1.9850870e-05 8.9407098e-05 2.9854052e-06 
3.9999600e-06 7.3821684e-05 -8.6953760e-06 
5.5675328e-06 -2.6447860e-05 1.0348940e-05 
8.2387805e-06 -1.0141372e-04 6.2006555e-05 
-1.7752940e-06 -3.9635815e-05 3.5044581e-05 
-2.7651340e-04 -4.3744704e-04 2.1110567e-04 
-6.5273250e-04 -1.1450695e-03 1.5602999e-04 
-6.0563104e-04 -1.3322878e-03 -4.9195896e-05 
-1.6576826e-04 -3.2781842e-04 -2.7471178e-04 
1.4754160e-05 -9.1475094e-06 -1.3046684e-04 
1.7495449e-05 5.5615226e-05 4.5490142e-05 
-9.1536594e-06 7.8556968e-06 2.1611570e-05 
4.7278668e-08 -1.9802681e-05 -1.3805130e-05 
1.3501264e-06 1.3693892e-05 7.1220925e-06 
0.0000000e+00 -8.1292208e-04 0.0000000e+00 
0.0000000e+00 -2.2340294e-03 0.0000000e+00 
0.0000000e+00 -2.1817670e-03 0.0000000e+00 
0.0000000e+00 -5.9120473e-04 0.0000000e+00 
0.0000000e+00 -6.5055392e-05 0.0000000e+00 
0.0000000e+00 1.3213139e-04 0.0000000e+00 
0.0000000e+00 6.8022382e-05 0.0000000e+00 
0.0000000e+00 4.0271290e-05 0.0000000e+00 
0.0000000e+00 -1.0110051e-04 0.0000000e+00 
0.0000000e+00 -6.9848647e-05 0.0000000e+00 
0.0000000e+00 -8.7380985e-04 0.0000000e+00 
0.0000000e+00 -2.1282670e-03 0.0000000e+00 
0.0000000e+00 -2.1383672e-03 0.0000000e+00 
0.0000000e+00 -5.7532644e-04 0.0000000e+00 
0.0000000e+00 1.4530994e-05 0.0000000e+00 
0.0000000e+00 8.9693393e-05 0.0000000e+00 
0.0000000e+00 -1.1393799e-06 0.0000000e+00 
0.0000000e+00 -1.9906009e-05 0.0000000e+00 
0.0000000e+00 1.3059851e-05 0.0000000e+00 
3.1706353e-05 -1.7857048e-05 -1.3781320e-05 
7.2401308e-05 -1.1471358e-04 1.4405413e-05 
6.9018635e-05 -9.0932968e-05 1.0824655e-05 
2.4847883e-05 -5.7603917e-05 -1.1395109e-05 
-1.3353447e-05 -1.2106661e-05 -1.5674728e-05 
1.1942106e-05 2.1554546e-05 -4.1493709e-06 
9.0135491e-06 1.6752007e-05 -7.6487368e-06 
-4.3876976e-06 -2.0709771e-05 6.3024783e-07 
-7.5001471e-06 -3.8630998e-05 1.1726093e-05 
1.5440530e-05 -3.7184875e-06 6.7048622e-06 
5.9631864e-05 -3.0756131e-05 -1.3621922e-06 
7.6338263e-05 -3.9750903e-05 5.7507400e-06 
4.1245461e-05 -7.1305367e-05 1.6894153e-05 
2.1272721e-05 -6.6752247e-05 -1.6446551e-05 
-1.0891413e-05 -6.5972904e-06 -1.5796635e-05 
5.3331828e-06 1.3547516e-05 7.8028270e-06 
9.1191538e-07 2.8230527e-06 9.6665144e-06 
9.2067546e-07 2.9741750e-06 -8.9164456e-07 
2.1189335e-06 -1.4619293e-05 -7.7116583e-06 
0.0000000e+00 0.0000000e+00 0.0000000e+00 
0.0000000e+00 0.0000000e+00 0.0000000e+00 
0.0000000e+00 0.0000000e+00 0.0000000e+00 
0.0000000e+00 0.0000000e+00 0.0000000e+00 
0.0000000e+00 0.0000000e+00 0.0000000e+00 
0.0000000e+00 0.0000000e+00 0.0000000e+00 
0.0000000e+00 0.0000000e+00 0.0000000e+00 
0.0000000e+00 0.0000000e+00 0.0000000e+00 
0.0000000e+00 0.0000000e+00 0.0000000e+00 
0.0000000e+00 0.0000000e+00 0.0000000e+00 
0.0000000e+00 0.0000000e+00 0.0000000e+00 
0.0000000e+00 0.0000000e+00 0.0000000e+00 
0.0000000e+00 0.0000000e+00 0.0000000e+00 
0.0000000e+00 0.0000000e+00 0.0000000e+00 
0.0000000e+00 0.0000000e+00 0.0000000e+00 
0.0000000e+00 0.0000000e+00 0.0000000e+00 
0.0000000e+00 0.0000000e+00 0.0000000e+00 
0.0000000e+00 0.0000000e+00 0.0000000e+00 
0.0000000e+00 0.0000000e+00 0.0000000e+00 
0.0000000e+00 0.0000000e+00 0.0000000e+00 
0.0000000e+00 0.0000000e+00 0.0000000e+00 
0.0000000e+00 0.0000000e+00 0.0000000e+00 
0.0000000e+00 0.0000000e+00 0.0000000e+00 
0.0000000e+00 0.0000000e+00 0.0000000e+00 
0.0000000e+00 0.0000000e+00 0.0000000e+00 
0.0000000e+00 0.0000000e+00 0.0000000e+00 
0.0000000e+00 0.0000000e+00 0.0000000e+00 
0.0000000e+00 0.0000000e+00 0.0000000e+00 
0.0000000e+00 0.0000000e+00 0.0000000e+00 
0.0000000e+00 0.0000000e+00 0.0000000e+00 
0.0000000e+00 0.0000000e+00 0.0000000e+00 
0.0000000e+00 0.0000000e+00 0.0000000e+00 
0.0000000e+00 0.0000000e+00 0.0000000e+00 
0.0000000e+00 0.0000000e+00 0.0000000e+00 
0.0000000e+00 0.0000000e+00 0.0000000e+00 
0.0000000e+00 0.0000000e+00 0.0000000e+00 
0.0000000e+00 0.0000000e+00 0.0000000e+00 
0.0000000e+00 0.0000000e+00 0.0000000e+00 
0.0000000e+00 0.0000000e+00 0.0000000e+00 
0.0000000e+00 0.0000000e+00 0.0000000e+00 
0.0000000e+00 0.0000000e+00 0.0000000e+00 
0.0000000e+00 0.0000000e+00 0.0000000e+00 
3.3635391e-05 -1.0002664e-05 -7.5689554e-06 
1.2867373e-06 1.1556292e-06 9.6836266e-07 
3.0587125e-06 2.1426236e-07 -5.3049439e-06 
2.3344437e-05 -4.9665327e-06 -8.5146638e-08 
1.9350879e-05 -1.0773861e-05 7.1780306e-07 
1.5673901e-05 -1.0492116e-05 -5.0403315e-07 
5.2560808e-06 -4.4885983e-06 4.1349444e-06 
2.6438283e-06 1.0051186e-06 4.4748067e-06 