# vtk DataFile Version 4.0
vtk output
ASCII
DATASET UNSTRUCTURED_GRID
POINTS 621 float
0.0000000e+00 0.0000000e+00 0.0000000e+00 
0.0000000e+00 0.0000000e+00 4.0000000e+01 
5.0000000e+00 0.0000000e+00 0.0000000e+00 
5.0000000e+00 0.0000000e+00 4.0000000e+01 
5.0000000e+00 1.0000000e+00 0.0000000e+00 
5.0000000e+00 1.0000000e+00 4.0000000e+01 
0.0000000e+00 1.0000000e+00 0.0000000e+00 
0.0000000e+00 1.0000000e+00 4.0000000e+01 
5.0000000e+00 2.0000000e+00 0.0000000e+00 
5.0000000e+00 2.0000000e+00 4.0000000e+01 
3.0000000e+00 2.0000000e+00 0.0000000e+00 
3.0000000e+00 2.0000000e+00 4.0000000e+01 
0.0000000e+00 2.0000000e+00 0.0000000e+00 
0.0000000e+00 2.0000000e+00 4.0000000e+01 
1.5000000e+00 3.0000000e+00 0.0000000e+00 
1.5000000e+00 3.0000000e+00 4.0000000e+01 
7.5000000e-01 3.0000000e+00 0.0000000e+00 
7.5000000e-01 3.0000000e+00 4.0000000e+01 
0.0000000e+00 3.0000000e+00 0.0000000e+00 
0.0000000e+00 3.0000000e+00 4.0000000e+01 
7.5000000e-01 3.0000000e+00 5.0000000e-01 
7.5000000e-01 3.0000000e+00 1.0000000e+00 
7.5000000e-01 3.0000000e+00 1.5000000e+00 
7.5000000e-01 3.0000000e+00 2.0000000e+00 
7.5000000e-01 3.0000000e+00 2.5000000e+00 
7.5000000e-01 3.0000000e+00 3.0000000e+00 
7.5000000e-01 3.0000000e+00 3.5000000e+00 
7.5000000e-01 3.0000000e+00 4.0000000e+00 
7.5000000e-01 3.0000000e+00 4.5000000e+00 
7.5000000e-01 3.0000000e+00 5.0000000e+00 
7.5000000e-01 3.0000000e+00 5.5000000e+00 
7.5000000e-01 3.0000000e+00 6.0000000e+00 
7.5000000e-01 3.0000000e+00 6.5000000e+00 
7.5000000e-01 3.0000000e+00 7.0000000e+00 
7.5000000e-01 3.0000000e+00 7.5000000e+00 
7.5000000e-01 3.0000000e+00 8.0000000e+00 
7.5000000e-01 3.0000000e+00 8.5000000e+00 
7.5000000e-01 3.0000000e+00 9.0000000e+00 
7.5000000e-01 3.0000000e+00 9.5000000e+00 
7.5000000e-01 3.0000000e+00 1.0000000e+01 
7.5000000e-01 3.0000000e+00 1.0500000e+01 
7.5000000e-01 3.0000000e+00 1.1000000e+01 
7.5000000e-01 3.0000000e+00 1.1500000e+01 
7.5000000e-01 3.0000000e+00 1.2000000e+01 
7.5000000e-01 3.0000000e+00 1.2500000e+01 
7.5000000e-01 3.0000000e+00 1.3000000e+01 
7.5000000e-01 3.0000000e+00 1.3500000e+01 
7.5000000e-01 3.0000000e+00 1.4000000e+01 
7.5000000e-01 3.0000000e+00 1.4500000e+01 
7.5000000e-01 3.0000000e+00 1.5000000e+01 
7.5000000e-01 3.0000000e+00 1.5500000e+01 
7.5000000e-01 3.0000000e+00 1.6000000e+01 
7.5000000e-01 3.0000000e+00 1.6500000e+01 
7.5000000e-01 3.0000000e+00 1.7000000e+01 
7.5000000e-01 3.0000000e+00 1.7500000e+01 
7.5000000e-01 3.0000000e+00 1.8000000e+01 
7.5000000e-01 3.0000000e+00 1.8500000e+01 
7.5000000e-01 3.0000000e+00 1.9000000e+01 
7.5000000e-01 3.0000000e+00 1.9500000e+01 
7.5000000e-01 3.0000000e+00 2.0000000e+01 
7.5000000e-01 3.0000000e+00 2.0500000e+01 
7.5000000e-01 3.0000000e+00 2.1000000e+01 
7.5000000e-01 3.0000000e+00 2.1500000e+01 
7.5000000e-01 3.0000000e+00 2.2000000e+01 
7.5000000e-01 3.0000000e+00 2.2500000e+01 
7.5000000e-01 3.0000000e+00 2.3000000e+01 
7.5000000e-01 3.0000000e+00 2.3500000e+01 
7.5000000e-01 3.0000000e+00 2.4000000e+01 
7.5000000e-01 3.0000000e+00 2.4500000e+01 
7.5000000e-01 3.0000000e+00 2.5000000e+01 
7.5000000e-01 3.0000000e+00 2.5500000e+01 
7.5000000e-01 3.0000000e+00 2.6000000e+01 
7.5000000e-01 3.0000000e+00 2.6500000e+01 
7.5000000e-01 3.0000000e+00 2.7000000e+01 
7.5000000e-01 3.0000000e+00 2.7500000e+01 
7.5000000e-01 3.0000000e+00 2.8000000e+01 
7.5000000e-01 3.0000000e+00 2.8500000e+01 
7.5000000e-01 3.0000000e+00 2.9000000e+01 
7.5000000e-01 3.0000000e+00 2.9500000e+01 
7.5000000e-01 3.0000000e+00 3.0000000e+01 
7.5000000e-01 3.0000000e+00 3.0500000e+01 
7.5000000e-01 3.0000000e+00 3.1000000e+01 
7.5000000e-01 3.0000000e+00 3.1500000e+01 
7.5000000e-01 3.0000000e+00 3.2000000e+01 
7.5000000e-01 3.0000000e+00 3.2500000e+01 
7.5000000e-01 3.0000000e+00 3.3000000e+01 
7.5000000e-01 3.0000000e+00 3.3500000e+01 
7.5000000e-01 3.0000000e+00 3.4000000e+01 
7.5000000e-01 3.0000000e+00 3.4500000e+01 
7.5000000e-01 3.0000000e+00 3.5000000e+01 
7.5000000e-01 3.0000000e+00 3.5500000e+01 
7.5000000e-01 3.0000000e+00 3.6000000e+01 
7.5000000e-01 3.0000000e+00 3.6500000e+01 
7.5000000e-01 3.0000000e+00 3.7000000e+01 
7.5000000e-01 3.0000000e+00 3.7500000e+01 
7.5000000e-01 3.0000000e+00 3.8000000e+01 
7.5000000e-01 3.0000000e+00 3.8500000e+01 
7.5000000e-01 3.0000000e+00 3.9000000e+01 
7.5000000e-01 3.0000000e+00 3.9500000e+01 
7.5000000e-01 3.0250001e+00 0.0000000e+00 
7.5000000e-01 3.0250001e+00 5.0000000e-01 
7.5000000e-01 3.0250001e+00 1.0000000e+00 
7.5000000e-01 3.0250001e+00 1.5000000e+00 
7.5000000e-01 3.0250001e+00 2.0000000e+00 
7.5000000e-01 3.0250001e+00 2.5000000e+00 
7.5000000e-01 3.0250001e+00 3.0000000e+00 
7.5000000e-01 3.0250001e+00 3.5000000e+00 
7.5000000e-01 3.0250001e+00 4.0000000e+00 
7.5000000e-01 3.0250001e+00 4.5000000e+00 
7.5000000e-01 3.0250001e+00 5.0000000e+00 
7.5000000e-01 3.0250001e+00 5.5000000e+00 
7.5000000e-01 3.0250001e+00 6.0000000e+00 
7.5000000e-01 3.0250001e+00 6.5000000e+00 
7.5000000e-01 3.0250001e+00 7.0000000e+00 
7.5000000e-01 3.0250001e+00 7.5000000e+00 
7.5000000e-01 3.0250001e+00 8.0000000e+00 
7.5000000e-01 3.0250001e+00 8.5000000e+00 
7.5000000e-01 3.0250001e+00 9.0000000e+00 
7.5000000e-01 3.0250001e+00 9.5000000e+00 
7.5000000e-01 3.0250001e+00 1.0000000e+01 
7.5000000e-01 3.0250001e+00 1.0500000e+01 
7.5000000e-01 3.0250001e+00 1.1000000e+01 
7.5000000e-01 3.0250001e+00 1.1500000e+01 
7.5000000e-01 3.0250001e+00 1.2000000e+01 
7.5000000e-01 3.0250001e+00 1.2500000e+01 
7.5000000e-01 3.0250001e+00 1.3000000e+01 
7.5000000e-01 3.0250001e+00 1.3500000e+01 
7.5000000e-01 3.0250001e+00 1.4000000e+01 
7.5000000e-01 3.0250001e+00 1.4500000e+01 
7.5000000e-01 3.0250001e+00 1.5000000e+01 
7.5000000e-01 3.0250001e+00 1.5500000e+01 
7.5000000e-01 3.0250001e+00 1.6000000e+01 
7.5000000e-01 3.0250001e+00 1.6500000e+01 
7.5000000e-01 3.0250001e+00 1.7000000e+01 
7.5000000e-01 3.0250001e+00 1.7500000e+01 
7.5000000e-01 3.0250001e+00 1.8000000e+01 
7.5000000e-01 3.0250001e+00 1.8500000e+01 
7.5000000e-01 3.0250001e+00 1.9000000e+01 
7.5000000e-01 3.0250001e+00 1.9500000e+01 
7.5000000e-01 3.0250001e+00 2.0000000e+01 
7.5000000e-01 3.0250001e+00 2.0500000e+01 
7.5000000e-01 3.0250001e+00 2.1000000e+01 
7.5000000e-01 3.0250001e+00 2.1500000e+01 
7.5000000e-01 3.0250001e+00 2.2000000e+01 
7.5000000e-01 3.0250001e+00 2.2500000e+01 
7.5000000e-01 3.0250001e+00 2.3000000e+01 
7.5000000e-01 3.0250001e+00 2.3500000e+01 
7.5000000e-01 3.0250001e+00 2.4000000e+01 
7.5000000e-01 3.0250001e+00 2.4500000e+01 
7.5000000e-01 3.0250001e+00 2.5000000e+01 
7.5000000e-01 3.0250001e+00 2.5500000e+01 
7.5000000e-01 3.0250001e+00 2.6000000e+01 
7.5000000e-01 3.0250001e+00 2.6500000e+01 
7.5000000e-01 3.0250001e+00 2.7000000e+01 
7.5000000e-01 3.0250001e+00 2.7500000e+01 
7.5000000e-01 3.0250001e+00 2.8000000e+01 
7.5000000e-01 3.0250001e+00 2.8500000e+01 
7.5000000e-01 3.0250001e+00 2.9000000e+01 
7.5000000e-01 3.0250001e+00 2.9500000e+01 
7.5000000e-01 3.0250001e+00 3.0000000e+01 
7.5000000e-01 3.0250001e+00 3.0500000e+01 
7.5000000e-01 3.0250001e+00 3.1000000e+01 
7.5000000e-01 3.0250001e+00 3.1500000e+01 
7.5000000e-01 3.0250001e+00 3.2000000e+01 
7.5000000e-01 3.0250001e+00 3.2500000e+01 
7.5000000e-01 3.0250001e+00 3.3000000e+01 
7.5000000e-01 3.0250001e+00 3.3500000e+01 
7.5000000e-01 3.0250001e+00 3.4000000e+01 
7.5000000e-01 3.0250001e+00 3.4500000e+01 
7.5000000e-01 3.0250001e+00 3.5000000e+01 
7.5000000e-01 3.0250001e+00 3.5500000e+01 
7.5000000e-01 3.0250001e+00 3.6000000e+01 
7.5000000e-01 3.0250001e+00 3.6500000e+01 
7.5000000e-01 3.0250001e+00 3.7000000e+01 
7.5000000e-01 3.0250001e+00 3.7500000e+01 
7.5000000e-01 3.0250001e+00 3.8000000e+01 
7.5000000e-01 3.0250001e+00 3.8500000e+01 
7.5000000e-01 3.0250001e+00 3.9000000e+01 
7.5000000e-01 3.0250001e+00 3.9500000e+01 
7.5000000e-01 3.0250001e+00 4.0000000e+01 
3.0000000e+00 2.0000000e+00 3.6000000e+01 
8.0487806e-01 3.0000000e+00 3.6000000e+01 
0.0000000e+00 0.0000000e+00 2.0000000e+00 
0.0000000e+00 0.0000000e+00 4.0000000e+00 
0.0000000e+00 0.0000000e+00 6.0000000e+00 
0.0000000e+00 0.0000000e+00 8.0000000e+00 
0.0000000e+00 0.0000000e+00 1.0000000e+01 
0.0000000e+00 0.0000000e+00 1.2000000e+01 
0.0000000e+00 0.0000000e+00 1.4000000e+01 
0.0000000e+00 0.0000000e+00 1.6000000e+01 
0.0000000e+00 0.0000000e+00 1.8000000e+01 
0.0000000e+00 0.0000000e+00 2.0000000e+01 
0.0000000e+00 0.0000000e+00 2.2000000e+01 
0.0000000e+00 0.0000000e+00 2.4000000e+01 
0.0000000e+00 0.0000000e+00 2.6000000e+01 
0.0000000e+00 0.0000000e+00 2.8000000e+01 
0.0000000e+00 0.0000000e+00 3.0000000e+01 
0.0000000e+00 0.0000000e+00 3.2000000e+01 
0.0000000e+00 0.0000000e+00 3.4000000e+01 
0.0000000e+00 0.0000000e+00 3.6000000e+01 
0.0000000e+00 0.0000000e+00 3.8000000e+01 
5.0000000e+00 0.0000000e+00 2.0000000e+00 
5.0000000e+00 0.0000000e+00 4.0000000e+00 
5.0000000e+00 0.0000000e+00 6.0000000e+00 
5.0000000e+00 0.0000000e+00 8.0000000e+00 
5.0000000e+00 0.0000000e+00 1.0000000e+01 
5.0000000e+00 0.0000000e+00 1.2000000e+01 
5.0000000e+00 0.0000000e+00 1.4000000e+01 
5.0000000e+00 0.0000000e+00 1.6000000e+01 
5.0000000e+00 0.0000000e+00 1.8000000e+01 
5.0000000e+00 0.0000000e+00 2.0000000e+01 
5.0000000e+00 0.0000000e+00 2.2000000e+01 
5.0000000e+00 0.0000000e+00 2.4000000e+01 
5.0000000e+00 0.0000000e+00 2.6000000e+01 
5.0000000e+00 0.0000000e+00 2.8000000e+01 
5.0000000e+00 0.0000000e+00 3.0000000e+01 
5.0000000e+00 0.0000000e+00 3.2000000e+01 
5.0000000e+00 0.0000000e+00 3.4000000e+01 
5.0000000e+00 0.0000000e+00 3.6000000e+01 
5.0000000e+00 0.0000000e+00 3.8000000e+01 
1.6666666e+00 0.0000000e+00 0.0000000e+00 
3.3333333e+00 0.0000000e+00 0.0000000e+00 
1.6666666e+00 0.0000000e+00 4.0000000e+01 
3.3333333e+00 0.0000000e+00 4.0000000e+01 
5.0000000e+00 1.0000000e+00 2.0000000e+00 
5.0000000e+00 1.0000000e+00 4.0000000e+00 
5.0000000e+00 1.0000000e+00 6.0000000e+00 
5.0000000e+00 1.0000000e+00 8.0000000e+00 
5.0000000e+00 1.0000000e+00 1.0000000e+01 
5.0000000e+00 1.0000000e+00 1.2000000e+01 
[...]
POINT_DATA 621
FIELD FieldData 3
DISPLACEMENT 3 621  float
0.0000000e+00 0.0000000e+00 0.0000000e+00 
0.0000000e+00 0.0000000e+00 0.0000000e+00 
0.0000000e+00 0.0000000e+00 0.0000000e+00 
0.0000000e+00 0.0000000e+00 0.0000000e+00 
2.0144620e-05 -2.4115154e-05 -3.1904929e-05 
-1.6570958e-07 -7.0866048e-07 -2.0237396e-08 
0.0000000e+00 -9.3527167e-05 0.0000000e+00 
0.0000000e+00 -1.4180576e-06 0.0000000e+00 
2.5225419e-05 -3.2126773e-05 -5.6456389e-05 
-3.5063832e-07 -8.8148266e-07 9.0084586e-07 
6.0924690e-06 -2.8715489e-05 -3.9388040e-05 
-5.6164515e-07 -1.9316840e-06 3.2627852e-07 
0.0000000e+00 -1.1685522e-04 0.0000000e+00 
0.0000000e+00 -4.0204982e-06 0.0000000e+00 
3.4869314e-05 2.6541845e-06 7.5614880e-05 
-6.7877488e-07 -9.1521215e-06 -2.3563694e-06 
1.8678802e-05 3.5318400e-05 2.2669106e-04 
5.1316687e-07 -1.2413910e-05 1.1373316e-07 
0.0000000e+00 -5.1405932e-05 0.0000000e+00 
0.0000000e+00 -6.1955607e-06 0.0000000e+00 
-4.2362994e-05 -4.5325272e-05 1.8733965e-04 
-6.7024208e-05 -2.8684756e-04 1.2516913e-04 
-8.9809422e-05 -7.1665511e-04 2.1322707e-04 
-1.0692358e-04 -1.3741282e-03 2.3872752e-04 
-1.8677778e-04 -2.2492253e-03 1.2627074e-04 
-2.1985605e-04 -3.2442471e-03 1.3513630e-04 
-1.1834528e-04 -4.0383940e-03 1.0002768e-04 
-8.5293788e-05 -4.0685083e-03 1.1881572e-04 
-2.2958385e-04 -3.9013356e-03 5.2973744e-05 
-3.0291136e-04 -3.9011310e-03 4.1539344e-05 
-2.0741680e-04 -4.1702595e-03 1.0208164e-05 
-6.4486121e-05 -4.2033391e-03 -4.9472921e-05 
-9.9730089e-05 -3.5090209e-03 -1.5926491e-04 
-2.0211353e-04 -2.4785406e-03 -1.9696676e-04 
-1.9408957e-04 -1.5875875e-03 -1.8833295e-04 
-7.2641538e-05 -9.1937697e-04 -1.1767703e-04 
-4.6193221e-05 -5.0526764e-04 -1.5481061e-04 
-4.0402152e-05 -2.7238435e-04 -1.3844718e-04 
-3.1233183e-05 -1.4933670e-04 -1.3501618e-04 
-3.6200006e-06 -7.6317061e-05 -1.2189610e-04 
1.8230598e-05 -1.5578129e-05 -8.8499110e-05 
3.1763590e-05 4.4039745e-05 -4.9473085e-05 
2.1618085e-05 9.9786157e-05 -1.5723253e-05 
4.7651429e-06 1.4048627e-04 1.5708816e-05 
8.9336362e-07 1.5524737e-04 1.7293987e-05 
-3.4355044e-06 1.4728625e-04 1.3359109e-05 
-3.4224665e-06 1.2391707e-04 -1.1699817e-06 
2.5569861e-06 9.3965042e-05 -2.6091568e-05 
4.0700138e-07 6.5871092e-05 -4.0819177e-05 
5.8966866e-06 4.0529616e-05 -4.2530581e-05 
6.7748479e-06 1.6661921e-05 -3.2285796e-05 
6.2199424e-06 -6.1380242e-06 -1.4231717e-05 
5.0775120e-06 -2.8780962e-05 1.3797801e-05 
8.9029045e-06 -5.0956922e-05 3.2303884e-05 
7.5756243e-06 -7.2863098e-05 4.7110152e-05 
-7.2494668e-06 -8.9159061e-05 6.1211511e-05 
-2.4988094e-05 -9.4435163e-05 5.0143499e-05 
-2.9090279e-05 -9.0216803e-05 3.9107188e-05 
-2.0467742e-05 -8.3323779e-05 2.9279956e-05 
-2.5564470e-06 -1.0486351e-04 1.3640518e-05 
-3.6852205e-05 -2.0040841e-04 3.1219581e-05 
-5.7676629e-05 -4.2286055e-04 5.6006254e-05 
-7.8592362e-05 -8.4380555e-04 9.2037299e-05 
-1.1883453e-04 -1.5030096e-03 4.2574608e-05 
-2.2838819e-04 -2.4089804e-03 1.5875166e-04 
-2.1812813e-04 -3.3489256e-03 1.6319983e-04 
-1.2641525e-04 -3.9660563e-03 1.3617755e-04 
-1.0892409e-04 -3.8638518e-03 1.8321887e-04 
-2.6059977e-04 -3.7097381e-03 1.1266826e-04 
-3.2158138e-04 -3.7792181e-03 9.4127623e-05 
-2.1259816e-04 -4.0950063e-03 4.3415188e-05 
-7.8131561e-05 -4.0579936e-03 -1.3287766e-05 
-1.0597499e-04 -3.3158094e-03 -1.4619532e-04 
-2.0141662e-04 -2.3348297e-03 -1.9890355e-04 
-1.8850925e-04 -1.5002138e-03 -2.1288877e-04 
-8.2663712e-05 -8.6883665e-04 -1.5666641e-04 
-4.6943438e-05 -4.6150250e-04 -1.8000293e-04 
-2.7433120e-05 -2.1690683e-04 -1.4375956e-04 
-1.7937413e-05 -7.8768586e-05 -1.2122021e-04 
9.4954303e-06 -8.0303880e-07 -9.4827046e-05 
2.4474592e-05 4.4580942e-05 -6.1732280e-05 
3.5865101e-05 7.3319730e-05 -2.4313233e-05 
2.3328743e-05 9.0796137e-05 8.5374568e-06 
6.4705946e-06 9.6123404e-05 3.3144021e-05 
-1.3822640e-06 8.5681968e-05 3.8674701e-05 
-8.0193176e-06 6.2972198e-05 3.2888467e-05 
-8.4776939e-06 3.4096312e-05 2.0034244e-05 
-5.2029809e-06 5.7166453e-06 3.4151512e-06 
-4.1938097e-06 -1.5419657e-05 -5.7617026e-06 
-2.3220909e-06 -2.7808448e-05 -1.2579304e-05 
2.3687130e-06 -2.9919520e-05 -1.5679003e-05 
1.3493560e-06 -2.2583103e-05 -1.0344281e-05 
1.7316282e-06 -8.2545748e-06 -3.9819183e-06 
1.7367768e-06 7.2097250e-06 2.4489445e-06 
-7.5670533e-07 1.6372995e-05 6.5112531e-06 
-6.1551509e-07 1.7007857e-05 5.3343106e-06 
-4.7742054e-07 1.0150980e-05 2.3085770e-06 
-2.4421098e-07 -3.7234375e-07 -1.2226465e-06 
1.7330176e-07 -8.9239529e-06 -3.1002539e-06 
0.0000000e+00 3.5366040e-05 0.0000000e+00 
0.0000000e+00 -4.3743021e-05 0.0000000e+00 
0.0000000e+00 -2.8618827e-04 0.0000000e+00 
0.0000000e+00 -7.1899709e-04 0.0000000e+00 
0.0000000e+00 -1.3779495e-03 0.0000000e+00 
0.0000000e+00 -2.2617870e-03 0.0000000e+00 
0.0000000e+00 -3.2769965e-03 0.0000000e+00 
0.0000000e+00 -4.0628132e-03 0.0000000e+00 
0.0000000e+00 -4.0997327e-03 0.0000000e+00 
0.0000000e+00 -3.9154324e-03 0.0000000e+00 
0.0000000e+00 -3.9316444e-03 0.0000000e+00 
0.0000000e+00 -4.1903835e-03 0.0000000e+00 
0.0000000e+00 -4.2385231e-03 0.0000000e+00 
0.0000000e+00 -3.5275375e-03 0.0000000e+00 
0.0000000e+00 -2.4975876e-03 0.0000000e+00 
0.0000000e+00 -1.5900283e-03 0.0000000e+00 
0.0000000e+00 -9.2384953e-04 0.0000000e+00 
0.0000000e+00 -5.0518254e-04 0.0000000e+00 
0.0000000e+00 -2.7151150e-04 0.0000000e+00 
0.0000000e+00 -1.4815886e-04 0.0000000e+00 
0.0000000e+00 -7.4993601e-05 0.0000000e+00 
0.0000000e+00 -1.4914437e-05 0.0000000e+00 
0.0000000e+00 4.4442433e-05 0.0000000e+00 
0.0000000e+00 9.9754783e-05 0.0000000e+00 
0.0000000e+00 1.3975192e-04 0.0000000e+00 
0.0000000e+00 1.5506522e-04 0.0000000e+00 
0.0000000e+00 1.4728810e-04 0.0000000e+00 
0.0000000e+00 1.2400473e-04 0.0000000e+00 
0.0000000e+00 9.4411873e-05 0.0000000e+00 
0.0000000e+00 6.6034998e-05 0.0000000e+00 
0.0000000e+00 4.0531308e-05 0.0000000e+00 
0.0000000e+00 1.6662254e-05 0.0000000e+00 
0.0000000e+00 -6.2859226e-06 0.0000000e+00 
0.0000000e+00 -2.8862267e-05 0.0000000e+00 
0.0000000e+00 -5.1309707e-05 0.0000000e+00 
0.0000000e+00 -7.2847950e-05 0.0000000e+00 
0.0000000e+00 -8.8751018e-05 0.0000000e+00 
0.0000000e+00 -9.4102536e-05 0.0000000e+00 
0.0000000e+00 -8.8987479e-05 0.0000000e+00 
0.0000000e+00 -8.2614730e-05 0.0000000e+00 
0.0000000e+00 -1.0443616e-04 0.0000000e+00 
0.0000000e+00 -1.9942739e-04 0.0000000e+00 
0.0000000e+00 -4.2416164e-04 0.0000000e+00 
0.0000000e+00 -8.4571977e-04 0.0000000e+00 
0.0000000e+00 -1.5136836e-03 0.0000000e+00 
0.0000000e+00 -2.4178738e-03 0.0000000e+00 
0.0000000e+00 -3.3840965e-03 0.0000000e+00 
0.0000000e+00 -3.9900863e-03 0.0000000e+00 
0.0000000e+00 -3.8940927e-03 0.0000000e+00 
0.0000000e+00 -3.7233410e-03 0.0000000e+00 
0.0000000e+00 -3.8108381e-03 0.0000000e+00 
0.0000000e+00 -4.1163131e-03 0.0000000e+00 
0.0000000e+00 -4.0917485e-03 0.0000000e+00 
0.0000000e+00 -3.3320109e-03 0.0000000e+00 
0.0000000e+00 -2.3505683e-03 0.0000000e+00 
0.0000000e+00 -1.5019062e-03 0.0000000e+00 
0.0000000e+00 -8.7235746e-04 0.0000000e+00 
0.0000000e+00 -4.6126050e-04 0.0000000e+00 
0.0000000e+00 -2.1614842e-04 0.0000000e+00 
0.0000000e+00 -7.7764722e-05 0.0000000e+00 
0.0000000e+00 -1.7841919e-07 0.0000000e+00 
0.0000000e+00 4.5101937e-05 0.0000000e+00 
0.0000000e+00 7.3619150e-05 0.0000000e+00 
0.0000000e+00 9.0905007e-05 0.0000000e+00 
0.0000000e+00 9.5758340e-05 0.0000000e+00 
0.0000000e+00 8.5587817e-05 0.0000000e+00 
0.0000000e+00 6.3008003e-05 0.0000000e+00 
0.0000000e+00 3.4117351e-05 0.0000000e+00 
0.0000000e+00 5.9580266e-06 0.0000000e+00 
0.0000000e+00 -1.5427573e-05 0.0000000e+00 
0.0000000e+00 -2.7673248e-05 0.0000000e+00 
0.0000000e+00 -2.9821575e-05 0.0000000e+00 
0.0000000e+00 -2.2419978e-05 0.0000000e+00 
0.0000000e+00 -8.2206898e-06 0.0000000e+00 
0.0000000e+00 6.8748127e-06 0.0000000e+00 
0.0000000e+00 1.6197355e-05 0.0000000e+00 
0.0000000e+00 1.6927817e-05 0.0000000e+00 
0.0000000e+00 1.0146039e-05 0.0000000e+00 
0.0000000e+00 -2.0408866e-07 0.0000000e+00 
0.0000000e+00 -8.9140221e-06 0.0000000e+00 
0.0000000e+00 -1.2367545e-05 0.0000000e+00 
-1.2366183e-06 -4.0631044e-06 -7.8363644e-07 
6.7001059e-07 -2.4810895e-05 -1.1052217e-05 
0.0000000e+00 0.0000000e+00 0.0000000e+00 
0.0000000e+00 0.0000000e+00 0.0000000e+00 
0.0000000e+00 0.0000000e+00 0.0000000e+00 
0.0000000e+00 0.0000000e+00 0.0000000e+00 
0.0000000e+00 0.0000000e+00 0.0000000e+00 
0.0000000e+00 0.0000000e+00 0.0000000e+00 
0.0000000e+00 0.0000000e+00 0.0000000e+00 
0.0000000e+00 0.0000000e+00 0.0000000e+00 
0.0000000e+00 0.0000000e+00 0.0000000e+00 
0.0000000e+00 0.0000000e+00 0.0000000e+00 
0.0000000e+00 0.0000000e+00 0.0000000e+00 
0.0000000e+00 0.0000000e+00 0.0000000e+00 
0.0000000e+00 0.0000000e+00 0.0000000e+00 
0.0000000e+00 0.0000000e+00 0.0000000e+00 
0.0000000e+00 0.0000000e+00 0.0000000e+00 
0.0000000e+00 0.0000000e+00 0.0000000e+00 
0.0000000e+00 0.0000000e+00 0.0000000e+00 
0.0000000e+00 0.0000000e+00 0.0000000e+00 
0.0000000e+00 0.0000000e+00 0.0000000e+00 
0.0000000e+00 0.0000000e+00 0.0000000e+00 
0.0000000e+00 0.0000000e+00 0.0000000e+00 
0.0000000e+00 0.0000000e+00 0.0000000e+00 
0.0000000e+00 0.0000000e+00 0.0000000e+00 
0.0000000e+00 0.0000000e+00 0.0000000e+00 
0.0000000e+00 0.0000000e+00 0.0000000e+00 
0.0000000e+00 0.0000000e+00 0.0000000e+00 
0.0000000e+00 0.0000000e+00 0.0000000e+00 
0.0000000e+00 0.0000000e+00 0.0000000e+00 
0.0000000e+00 0.0000000e+00 0.0000000e+00 
0.0000000e+00 0.0000000e+00 0.0000000e+00 
0.0000000e+00 0.0000000e+00 0.0000000e+00 
0.0000000e+00 0.0000000e+00 0.0000000e+00 
0.0000000e+00 0.0000000e+00 0.0000000e+00 
0.0000000e+00 0.0000000e+00 0.0000000e+00 
0.0000000e+00 0.0000000e+00 0.0000000e+00 
0.0000000e+00 0.0000000e+00 0.0000000e+00 
0.0000000e+00 0.0000000e+00 0.0000000e+00 
0.0000000e+00 0.0000000e+00 0.0000000e+00 
0.0000000e+00 0.0000000e+00 0.0000000e+00 
0.0000000e+00 0.0000000e+00 0.0000000e+00 
0.0000000e+00 0.0000000e+00 0.0000000e+00 
0.0000000e+00 0.0000000e+00 0.0000000e+00 
3.1882402e-05 -9.7057102e-07 -2.4307592e-05 
5.9233837e-05 -4.8165275e-06 -1.4628120e-05 
3.9686212e-05 -8.0352002e-06 -2.4918032e-07 
1.0884093e-05 -9.6629874e-06 6.7061364e-07 
4.1478938e-06 -8.2951137e-06 1.1421104e-05 
-7.1023942e-07 4.4283447e-06 8.6322852e-06 
8.0383315e-06 6.3587577e-06 -6.5202748e-06 
3.4426510e-06 -2.8903198e-06 -1.2819796e-05 
1.4429629e-06 -6.1927453e-06 -3.5104870e-06 
1.2436559e-05 -1.0133626e-05 -4.3752339e-06 
3.4276123e-05 -2.2715531e-06 -3.8878429e-06 
4.8306192e-05 -1.1796333e-06 5.2951128e-07 
3.6782338e-05 -7.1068639e-06 1.7334115e-06 
1.1824668e-05 -1.4430648e-05 2.8134102e-06 
6.8075738e-06 -9.1969360e-07 8.3746836e-06 
2.2661275e-06 3.4749921e-06 9.2922774e-06 
1.5458889e-07 -1.1737445e-06 1.6418951e-06 
-6.1725513e-07 -1.6966586e-06 -1.3134162e-06 
3.5528618e-07 1.0415249e-06 2.9466372e-07 
0.0000000e+00 -2.1456854e-04 0.0000000e+00 
0.0000000e+00 -4.8749018e-04 0.0000000e+00 
0.0000000e+00 -5.1107683e-04 0.0000000e+00 
0.0000000e+00 -1.8422630e-04 0.0000000e+00 
0.0000000e+00 -2.7347498e-05 0.0000000e+00 
0.0000000e+00 3.8286620e-05 0.0000000e+00 
0.0000000e+00 1.6414193e-05 0.0000000e+00 
0.0000000e+00 3.0318333e-05 0.0000000e+00 
0.0000000e+00 -2.4693494e-05 0.0000000e+00 
0.0000000e+00 -3.8004779e-05 0.0000000e+00 
0.0000000e+00 -1.9947173e-04 0.0000000e+00 
0.0000000e+00 -4.7024092e-04 0.0000000e+00 
0.0000000e+00 -5.2462675e-04 0.0000000e+00 
0.0000000e+00 -1.8902654e-04 0.0000000e+00 
0.0000000e+00 -3.1958716e-06 0.0000000e+00 
0.0000000e+00 3.0673411e-05 0.0000000e+00 
0.0000000e+00 -4.3601126e-06 0.0000000e+00 
0.0000000e+00 -2.9915482e-06 0.0000000e+00 
0.0000000e+00 1.5460195e-06 0.0000000e+00 
2.5375824e-05 -1.9346195e-05 -2.7602715e-05 
2.4342049e-05 -5.7536578e-05 -4.6188550e-05 
-2.0169063e-07 -8.2027731e-07 -2.4343495e-07 
-2.1675841e-07 -1.3561140e-06 -4.6827748e-07 
3.1194653e-05 4.7596436e-06 -3.5163594e-05 
5.3609827e-05 6.8682734e-06 -1.3217699e-05 
3.3668744e-05 -1.4940699e-06 -2.8037906e-07 
4.5643596e-06 -6.3718221e-06 -7.4701126e-07 
3.8900461e-07 -1.3530366e-05 6.7467486e-06 
3.6891101e-06 7.5314611e-06 2.7159019e-06 
1.3711834e-05 1.0997197e-05 -2.2201391e-06 
-1.1498935e-06 -5.1301527e-06 -7.2481425e-06 
-6.2644635e-06 -8.7674953e-06 -6.4937235e-06 
1.7795028e-05 -1.1967528e-05 -9.5004789e-06 
3.6080572e-05 2.9964181e-07 -4.0839514e-06 
4.7596495e-05 1.8230246e-06 2.8988227e-06 
2.6611326e-05 -3.3117392e-06 1.1198683e-05 
-5.7851827e-07 -1.7705925e-05 1.4134920e-08 
1.9273402e-06 -2.9836704e-06 2.6301004e-07 
4.3452783e-06 4.1404201e-06 1.0137988e-05 
2.2378479e-06 -3.7187829e-07 4.1455537e-06 
-7.8616961e-07 -1.9222525e-06 -4.4923084e-07 
6.9893083e-08 1.0129675e-06 -4.8494041e-07 
7.8491039e-06 -8.7052693e-05 -4.2597116e-05 
0.0000000e+00 -4.6581152e-04 0.0000000e+00 
0.0000000e+00 -1.1083062e-03 0.0000000e+00 
0.0000000e+00 -1.1492822e-03 0.0000000e+00 
0.0000000e+00 -3.4916017e-04 0.0000000e+00 
0.0000000e+00 -5.0972161e-05 0.0000000e+00 
0.0000000e+00 8.0104190e-05 0.0000000e+00 
0.0000000e+00 3.4456516e-05 0.0000000e+00 
0.0000000e+00 4.3116481e-05 0.0000000e+00 
0.0000000e+00 -5.3453474e-05 0.0000000e+00 
0.0000000e+00 -6.4516222e-05 0.0000000e+00 
0.0000000e+00 -4.4735268e-04 0.0000000e+00 
0.0000000e+00 -1.0554771e-03 0.0000000e+00 
0.0000000e+00 -1.1428352e-03 0.0000000e+00 
0.0000000e+00 -3.5215079e-04 0.0000000e+00 
0.0000000e+00 -1.2678030e-06 0.0000000e+00 
0.0000000e+00 5.8881589e-05 0.0000000e+00 
0.0000000e+00 -9.3182925e-06 0.0000000e+00 
0.0000000e+00 -9.3646022e-06 0.0000000e+00 
0.0000000e+00 6.8077898e-06 0.0000000e+00 
-3.2142771e-07 -2.6125128e-06 -4.6713771e-07 
-3.2862622e-04 -4.3575617e-04 2.7134194e-04 
-6.2982424e-04 -1.3433654e-03 1.1615385e-04 
-6.0594321e-04 -1.3854814e-03 -1.0885573e-04 
-1.7495711e-04 -2.9885033e-04 -2.2331714e-04 
2.9401135e-06 -7.1059731e-05 -1.4318660e-04 
2.0261137e-05 8.9185298e-05 2.2049342e-06 
3.8137541e-06 7.4118565e-05 -8.3152281e-06 
5.5794635e-06 -2.7202299e-05 1.0555716e-05 
8.1108301e-06 -1.0138335e-04 6.1968174e-05 
-2.1594647e-06 -4.0246370e-05 3.4987057e-05 
-2.7675775e-04 -4.3829842e-04 2.1085428e-04 
-6.5263809e-04 -1.1456819e-03 1.5514570e-04 
-6.0505263e-04 -1.3305910e-03 -4.8920596e-05 
-1.6582497e-04 -3.2710994e-04 -2.7381274e-04 
1.4682902e-05 -9.8800501e-06 -1.3094243e-04 
1.7524342e-05 5.5718960e-05 4.5466491e-05 
-9.1423863e-06 8.1121107e-06 2.1743255e-05 
3.2444479e-08 -2.0179456e-05 -1.3817927e-05 
1.5207664e-06 1.4124919e-05 7.0825649e-06 
0.0000000e+00 -8.1541063e-04 0.0000000e+00 
0.0000000e+00 -2.2363428e-03 0.0000000e+00 
0.0000000e+00 -2.1816890e-03 0.0000000e+00 
0.0000000e+00 -5.8934628e-04 0.0000000e+00 
0.0000000e+00 -6.4793167e-05 0.0000000e+00 
0.0000000e+00 1.3176513e-04 0.0000000e+00 
0.0000000e+00 6.8004978e-05 0.0000000e+00 
0.0000000e+00 4.0356528e-05 0.0000000e+00 
0.0000000e+00 -1.0136509e-04 0.0000000e+00 
0.0000000e+00 -7.0982969e-05 0.0000000e+00 
0.0000000e+00 -8.7585469e-04 0.0000000e+00 
0.0000000e+00 -2.1285268e-03 0.0000000e+00 
0.0000000e+00 -2.1357301e-03 0.0000000e+00 
0.0000000e+00 -5.7483092e-04 0.0000000e+00 
0.0000000e+00 1.3692315e-05 0.0000000e+00 
0.0000000e+00 9.0066824e-05 0.0000000e+00 
0.0000000e+00 -1.1274092e-06 0.0000000e+00 
0.0000000e+00 -2.0294610e-05 0.0000000e+00 
0.0000000e+00 1.3631761e-05 0.0000000e+00 
3.1554646e-05 -1.7918619e-05 -1.4033675e-05 
7.1947390e-05 -1.1500604e-04 1.4289328e-05 
6.8648209e-05 -9.1442038e-05 1.0576976e-05 
2.5088535e-05 -5.7528603e-05 -1.1168986e-05 
-1.3450775e-05 -1.1688790e-05 -1.5440684e-05 
1.1923235e-05 2.1309270e-05 -4.3390464e-06 
9.0612702e-06 1.6816426e-05 -7.6263277e-06 
-4.4372036e-06 -2.0851914e-05 6.4038028e-07 
-7.5396993e-06 -3.8752267e-05 1.1751428e-05 
1.5380236e-05 -3.9184783e-06 6.6119737e-06 
5.9621383e-05 -3.0954561e-05 -1.3817239e-06 
7.6390344e-05 -3.9857550e-05 5.7789207e-06 
4.1352509e-05 -7.1130497e-05 1.6947502e-05 
2.1318709e-05 -6.6573833e-05 -1.6366821e-05 
-1.0961729e-05 -6.6615266e-06 -1.5853180e-05 
5.3269159e-06 1.3509076e-05 7.7540662e-06 
9.3895937e-07 2.8862271e-06 9.7078291e-06 
9.3212975e-07 2.9669995e-06 -9.0671091e-07 
2.1464630e-06 -1.4986738e-05 -7.7549412e-06 
0.0000000e+00 0.0000000e+00 0.0000000e+00 
0.0000000e+00 0.0000000e+00 0.0000000e+00 
0.0000000e+00 0.0000000e+00 0.0000000e+00 
0.0000000e+00 0.0000000e+00 0.0000000e+00 
0.0000000e+00 0.0000000e+00 0.0000000e+00 
0.0000000e+00 0.0000000e+00 0.0000000e+00 
0.0000000e+00 0.0000000e+00 0.0000000e+00 
0.0000000e+00 0.0000000e+00 0.0000000e+00 
0.0000000e+00 0.0000000e+00 0.0000000e+00 
0.0000000e+00 0.0000000e+00 0.0000000e+00 
0.0000000e+00 0.0000000e+00 0.0000000e+00 
0.0000000e+00 0.0000000e+00 0.0000000e+00 
0.0000000e+00 0.0000000e+00 0.0000000e+00 
0.0000000e+00 0.0000000e+00 0.0000000e+00 
0.0000000e+00 0.0000000e+00 0.0000000e+00 
0.0000000e+00 0.0000000e+00 0.0000000e+00 
0.0000000e+00 0.0000000e+00 0.0000000e+00 
0.0000000e+00 0.0000000e+00 0.0000000e+00 
0.0000000e+00 0.0000000e+00 0.0000000e+00 
0.0000000e+00 0.0000000e+00 0.0000000e+00 
0.0000000e+00 0.0000000e+00 0.0000000e+00 
0.0000000e+00 0.0000000e+00 0.0000000e+00 
0.0000000e+00 0.0000000e+00 0.0000000e+00 
0.0000000e+00 0.0000000e+00 0.0000000e+00 
0.0000000e+00 0.0000000e+00 0.0000000e+00 
0.0000000e+00 0.0000000e+00 0.0000000e+00 
0.0000000e+00 0.0000000e+00 0.0000000e+00 
0.0000000e+00 0.0000000e+00 0.0000000e+00 
0.0000000e+00 0.0000000e+00 0.0000000e+00 
0.0000000e+00 0.0000000e+00 0.0000000e+00 
0.0000000e+00 0.0000000e+00 0.0000000e+00 
0.0000000e+00 0.0000000e+00 0.0000000e+00 
0.0000000e+00 0.0000000e+00 0.0000000e+00 
0.0000000e+00 0.0000000e+00 0.0000000e+00 
0.0000000e+00 0.0000000e+00 0.0000000e+00 
0.0000000e+00 0.0000000e+00 0.0000000e+00 
0.0000000e+00 0.0000000e+00 0.0000000e+00 
0.0000000e+00 0.0000000e+00 0.0000000e+00 
0.0000000e+00 0.0000000e+00 0.0000000e+00 
0.0000000e+00 0.0000000e+00 0.0000000e+00 
0.0000000e+00 0.0000000e+00 0.0000000e+00 
0.0000000e+00 0.0000000e+00 0.0000000e+00 
1.4538974e-05 -9.1111024e-06 -1.2014307e-05 
1.2964879e-06 1.1859157e-06 9.7426982e-07 
3.8695903e-06 -5.3888825e-06 -6.8742105e-07 
2.3346071e-05 -4.9609316e-06 -7.0965925e-08 
1.9363588e-05 -1.0725039e-05 7.5021376e-07 
1.5688640e-05 -1.0457929e-05 -4.7734216e-07 
5.2460687e-06 -4.5144138e-06 4.1072699e-06 
2.6373666e-06 9.9704073e-07 4.4605786e-06 
5.8400627e-07 -4.2036712e-07 2.8648431e-06 
2.1425274e-07 -1.0787653e-06 -3.8464106e-07 
-1.5870698e-07 -5.8688141e-08 -8.6581430e-08 
-1.1125480e-07 1.9144768e-07 -1.0098227e-07 
2.6427224e-05 -8.4412168e-06 -1.4242844e-05 
3.3649969e-05 -1.0082222e-05 -7.5251028e-06 
1.5500698e-05 -8.8132510e-06 -8.3726917e-07 
3.8885137e-06 -5.3920098e-06 3.7684024e-06 
4.1138281e-07 -9.4341937e-07 6.0660391e-06 
3.1071977e-06 1.4858010e-07 -7.0999499e-06 
3.0746403e-06 2.0668124e-07 -5.3067270e-06 
1.0421168e-05 -7.1419208e-06 -2.9027044e-06 
3.8455855e-05 -3.1378459e-05 -1.8217412e-05 
1.3689646e-07 1.7059177e-06 -2.8624311e-07 
8.4280589e-05 -4.2989937e-05 7.1257414e-06 
1.3399391e-05 -8.1302096e-06 6.7291289e-06 
5.4051734e-06 1.2860734e-05 -2.8191937e-06 
-1.0150174e-05 -1.9208748e-05 -2.7488047e-06 
3.3187189e-05 6.7728524e-06 -3.9130105e-06 
9.4250921e-05 3.5498883e-06 -9.8110820e-07 
1.1724552e-05 -1.1030776e-05 6.6986918e-06 
6.3563044e-07 5.5354435e-06 5.4987013e-06 
7.7713827e-05 -1.9292101e-04 4.3472439e-05 
1.1627388e-06 1.0390836e-06 9.1478787e-06 
-3.3099473e-06 6.4062292e-06 -1.2880305e-05 
1.5056153e-05 -3.1300562e-05 2.9681621e-06 
1.1334715e-04 -1.8900378e-04 -2.5950265e-05 
8.6485081e-05 -2.0290476e-04 2.7175758e-05 
2.4009385e-06 9.1868769e-06 1.0460501e-05 
2.0349639e-06 -8.4515896e-06 -4.0369750e-06 
-6.4268113e-07 1.3988193e-06 1.8831985e-06 
8.5101303e-05 -5.2019882e-06 -8.2260076e-06 
-2.1205045e-07 -3.2101102e-07 5.4651508e-07 
8.7029774e-05 -2.6690515e-04 -5.0729686e-05 
3.3402932e-05 -1.6682017e-05 9.3645008e-07 
1.0875540e-07 1.5716481e-07 4.9222153e-06 
3.1800664e-06 -7.9404958e-07 -1.0994936e-05 
7.3133856e-06 -1.0647682e-05 3.0544563e-06 
5.1324005e-05 2.6220951e-07 -1.2888503e-06 