# vtk DataFile Version 4.0
vtk output
ASCII
DATASET UNSTRUCTURED_GRID
POINTS 661 float
0.0000000e+00 0.0000000e+00 0.0000000e+00 
0.0000000e+00 0.0000000e+00 4.0000000e+01 
5.0000000e+00 0.0000000e+00 0.0000000e+00 
5.0000000e+00 0.0000000e+00 4.0000000e+01 
5.0000000e+00 1.0000000e+00 0.0000000e+00 
5.0000000e+00 1.0000000e+00 4.0000000e+01 
0.0000000e+00 1.0000000e+00 0.0000000e+00 
0.0000000e+00 1.0000000e+00 4.0000000e+01 
5.0000000e+00 2.0000000e+00 0.0000000e+00 
5.0000000e+00 2.0000000e+00 4.0000000e+01 
3.0000000e+00 2.0000000e+00 0.0000000e+00 
3.0000000e+00 2.0000000e+00 4.0000000e+01 
0.0000000e+00 2.0000000e+00 0.0000000e+00 
0.0000000e+00 2.0000000e+00 4.0000000e+01 
1.5000000e+00 3.0000000e+00 0.0000000e+00 
1.5000000e+00 3.0000000e+00 4.0000000e+01 
7.5000000e-01 3.0000000e+00 0.0000000e+00 
7.5000000e-01 3.0000000e+00 4.0000000e+01 
0.0000000e+00 3.0000000e+00 0.0000000e+00 
0.0000000e+00 3.0000000e+00 4.0000000e+01 
7.5000000e-01 3.0000000e+00 5.0000000e-01 
7.5000000e-01 3.0000000e+00 1.0000000e+00 
7.5000000e-01 3.0000000e+00 1.5000000e+00 
7.5000000e-01 3.0000000e+00 2.0000000e+00 
7.5000000e-01 3.0000000e+00 2.5000000e+00 
7.5000000e-01 3.0000000e+00 3.0000000e+00 
7.5000000e-01 3.0000000e+00 3.5000000e+00 
7.5000000e-01 3.0000000e+00 4.0000000e+00 
7.5000000e-01 3.0000000e+00 4.5000000e+00 
7.5000000e-01 3.0000000e+00 5.0000000e+00 
7.5000000e-01 3.0000000e+00 5.5000000e+00 
7.5000000e-01 3.0000000e+00 6.0000000e+00 
7.5000000e-01 3.0000000e+00 6.5000000e+00 
7.5000000e-01 3.0000000e+00 7.0000000e+00 
7.5000000e-01 3.0000000e+00 7.5000000e+00 
7.5000000e-01 3.0000000e+00 8.0000000e+00 
7.5000000e-01 3.0000000e+00 8.5000000e+00 
7.5000000e-01 3.0000000e+00 9.0000000e+00 
7.5000000e-01 3.0000000e+00 9.5000000e+00 
7.5000000e-01 3.0000000e+00 1.0000000e+01 
7.5000000e-01 3.0000000e+00 1.0500000e+01 
7.5000000e-01 3.0000000e+00 1.1000000e+01 
7.5000000e-01 3.0000000e+00 1.1500000e+01 
7.5000000e-01 3.0000000e+00 1.2000000e+01 
7.5000000e-01 3.0000000e+00 1.2500000e+01 
7.5000000e-01 3.0000000e+00 1.3000000e+01 
7.5000000e-01 3.0000000e+00 1.3500000e+01 
7.5000000e-01 3.0000000e+00 1.4000000e+01 
7.5000000e-01 3.0000000e+00 1.4500000e+01 
7.5000000e-01 3.0000000e+00 1.5000000e+01 
7.5000000e-01 3.0000000e+00 1.5500000e+01 
7.5000000e-01 3.0000000e+00 1.6000000e+01 
7.5000000e-01 3.0000000e+00 1.6500000e+01 
7.5000000e-01 3.0000000e+00 1.7000000e+01 
7.5000000e-01 3.0000000e+00 1.7500000e+01 
7.5000000e-01 3.0000000e+00 1.8000000e+01 
7.5000000e-01 3.0000000e+00 1.8500000e+01 
7.5000000e-01 3.0000000e+00 1.9000000e+01 
7.5000000e-01 3.0000000e+00 1.9500000e+01 
7.5000000e-01 3.0000000e+00 2.0000000e+01 
7.5000000e-01 3.0000000e+00 2.0500000e+01 
7.5000000e-01 3.0000000e+00 2.1000000e+01 
7.5000000e-01 3.0000000e+00 2.1500000e+01 
7.5000000e-01 3.0000000e+00 2.2000000e+01 
7.5000000e-01 3.0000000e+00 2.2500000e+01 
7.5000000e-01 3.0000000e+00 2.3000000e+01 
7.5000000e-01 3.0000000e+00 2.3500000e+01 
7.5000000e-01 3.0000000e+00 2.4000000e+01 
7.5000000e-01 3.0000000e+00 2.4500000e+01 
7.5000000e-01 3.0000000e+00 2.5000000e+01 
7.5000000e-01 3.0000000e+00 2.5500000e+01 
7.5000000e-01 3.0000000e+00 2.6000000e+01 
7.5000000e-01 3.0000000e+00 2.6500000e+01 
7.5000000e-01 3.0000000e+00 2.7000000e+01 
7.5000000e-01 3.0000000e+00 2.7500000e+01 
7.5000000e-01 3.0000000e+00 2.8000000e+01 
7.5000000e-01 3.0000000e+00 2.8500000e+01 
7.5000000e-01 3.0000000e+00 2.9000000e+01 
7.5000000e-01 3.0000000e+00 2.9500000e+01 
7.5000000e-01 3.0000000e+00 3.0000000e+01 
7.5000000e-01 3.0000000e+00 3.0500000e+01 
7.5000000e-01 3.0000000e+00 3.1000000e+01 
7.5000000e-01 3.0000000e+00 3.1500000e+01 
7.5000000e-01 3.0000000e+00 3.2000000e+01 
7.5000000e-01 3.0000000e+00 3.2500000e+01 
7.5000000e-01 3.0000000e+00 3.3000000e+01 
7.5000000e-01 3.0000000e+00 3.3500000e+01 
7.5000000e-01 3.0000000e+00 3.4000000e+01 
7.5000000e-01 3.0000000e+00 3.4500000e+01 
7.5000000e-01 3.0000000e+00 3.5000000e+01 
7.5000000e-01 3.0000000e+00 3.5500000e+01 
7.5000000e-01 3.0000000e+00 3.6000000e+01 
7.5000000e-01 3.0000000e+00 3.6500000e+01 
7.5000000e-01 3.0000000e+00 3.7000000e+01 
7.5000000e-01 3.0000000e+00 3.7500000e+01 
7.5000000e-01 3.0000000e+00 3.8000000e+01 
7.5000000e-01 3.0000000e+00 3.8500000e+01 
7.5000000e-01 3.0000000e+00 3.9000000e+01 
7.5000000e-01 3.0000000e+00 3.9500000e+01 
7.5000000e-01 3.0000000e+00 4.0500000e+01 
7.5000000e-01 3.0000000e+00 4.1000000e+01 
7.5000000e-01 3.0000000e+00 4.1500000e+01 
7.5000000e-01 3.0000000e+00 4.2000000e+01 
7.5000000e-01 3.0000000e+00 4.2500000e+01 
7.5000000e-01 3.0000000e+00 4.3000000e+01 
7.5000000e-01 3.0000000e+00 4.3500000e+01 
7.5000000e-01 3.0000000e+00 4.4000000e+01 
7.5000000e-01 3.0000000e+00 4.4500000e+01 
7.5000000e-01 3.0000000e+00 4.5000000e+01 
7.5000000e-01 3.0000000e+00 4.5500000e+01 
7.5000000e-01 3.0000000e+00 4.6000000e+01 
7.5000000e-01 3.0000000e+00 4.6500000e+01 
7.5000000e-01 3.0000000e+00 4.7000000e+01 
7.5000000e-01 3.0000000e+00 4.7500000e+01 
7.5000000e-01 3.0000000e+00 4.8000000e+01 
7.5000000e-01 3.0000000e+00 4.8500000e+01 
7.5000000e-01 3.0000000e+00 4.9000000e+01 
7.5000000e-01 3.0000000e+00 4.9500000e+01 
7.5000000e-01 3.0000000e+00 5.0000000e+01 
7.5000000e-01 3.0250001e+00 0.0000000e+00 
7.5000000e-01 3.0250001e+00 5.0000000e-01 
7.5000000e-01 3.0250001e+00 1.0000000e+00 
7.5000000e-01 3.0250001e+00 1.5000000e+00 
7.5000000e-01 3.0250001e+00 2.0000000e+00 
7.5000000e-01 3.0250001e+00 2.5000000e+00 
7.5000000e-01 3.0250001e+00 3.0000000e+00 
7.5000000e-01 3.0250001e+00 3.5000000e+00 
7.5000000e-01 3.0250001e+00 4.0000000e+00 
7.5000000e-01 3.0250001e+00 4.5000000e+00 
7.5000000e-01 3.0250001e+00 5.0000000e+00 
7.5000000e-01 3.0250001e+00 5.5000000e+00 
7.5000000e-01 3.0250001e+00 6.0000000e+00 
7.5000000e-01 3.0250001e+00 6.5000000e+00 
7.5000000e-01 3.0250001e+00 7.0000000e+00 
7.5000000e-01 3.0250001e+00 7.5000000e+00 
7.5000000e-01 3.0250001e+00 8.0000000e+00 
7.5000000e-01 3.0250001e+00 8.5000000e+00 
7.5000000e-01 3.0250001e+00 9.0000000e+00 
7.5000000e-01 3.0250001e+00 9.5000000e+00 
7.5000000e-01 3.0250001e+00 1.0000000e+01 
7.5000000e-01 3.0250001e+00 1.0500000e+01 
7.5000000e-01 3.0250001e+00 1.1000000e+01 
7.5000000e-01 3.0250001e+00 1.1500000e+01 
7.5000000e-01 3.0250001e+00 1.2000000e+01 
7.5000000e-01 3.0250001e+00 1.2500000e+01 
7.5000000e-01 3.0250001e+00 1.3000000e+01 
7.5000000e-01 3.0250001e+00 1.3500000e+01 
7.5000000e-01 3.0250001e+00 1.4000000e+01 
7.5000000e-01 3.0250001e+00 1.4500000e+01 
7.5000000e-01 3.0250001e+00 1.5000000e+01 
7.5000000e-01 3.0250001e+00 1.5500000e+01 
7.5000000e-01 3.0250001e+00 1.6000000e+01 
7.5000000e-01 3.0250001e+00 1.6500000e+01 
7.5000000e-01 3.0250001e+00 1.7000000e+01 
7.5000000e-01 3.0250001e+00 1.7500000e+01 
7.5000000e-01 3.0250001e+00 1.8000000e+01 
7.5000000e-01 3.0250001e+00 1.8500000e+01 
7.5000000e-01 3.0250001e+00 1.9000000e+01 
7.5000000e-01 3.0250001e+00 1.9500000e+01 
7.5000000e-01 3.0250001e+00 2.0000000e+01 
7.5000000e-01 3.0250001e+00 2.0500000e+01 
7.5000000e-01 3.0250001e+00 2.1000000e+01 
7.5000000e-01 3.0250001e+00 2.1500000e+01 
7.5000000e-01 3.0250001e+00 2.2000000e+01 
7.5000000e-01 3.0250001e+00 2.2500000e+01 
7.5000000e-01 3.0250001e+00 2.3000000e+01 
7.5000000e-01 3.0250001e+00 2.3500000e+01 
7.5000000e-01 3.0250001e+00 2.4000000e+01 
7.5000000e-01 3.0250001e+00 2.4500000e+01 
7.5000000e-01 3.0250001e+00 2.5000000e+01 
7.5000000e-01 3.0250001e+00 2.5500000e+01 
7.5000000e-01 3.0250001e+00 2.6000000e+01 
7.5000000e-01 3.0250001e+00 2.6500000e+01 
7.5000000e-01 3.0250001e+00 2.7000000e+01 
7.5000000e-01 3.0250001e+00 2.7500000e+01 
7.5000000e-01 3.0250001e+00 2.8000000e+01 
7.5000000e-01 3.0250001e+00 2.8500000e+01 
7.5000000e-01 3.0250001e+00 2.9000000e+01 
7.5000000e-01 3.0250001e+00 2.9500000e+01 
7.5000000e-01 3.0250001e+00 3.0000000e+01 
7.5000000e-01 3.0250001e+00 3.0500000e+01 
7.5000000e-01 3.0250001e+00 3.1000000e+01 
7.5000000e-01 3.0250001e+00 3.1500000e+01 
7.5000000e-01 3.0250001e+00 3.2000000e+01 
7.5000000e-01 3.0250001e+00 3.2500000e+01 
7.5000000e-01 3.0250001e+00 3.3000000e+01 
7.5000000e-01 3.0250001e+00 3.3500000e+01 
7.5000000e-01 3.0250001e+00 3.4000000e+01 
7.5000000e-01 3.0250001e+00 3.4500000e+01 
7.5000000e-01 3.0250001e+00 3.5000000e+01 
7.5000000e-01 3.0250001e+00 3.5500000e+01 
7.5000000e-01 3.0250001e+00 3.6000000e+01 
7.5000000e-01 3.0250001e+00 3.6500000e+01 
7.5000000e-01 3.0250001e+00 3.7000000e+01 
7.5000000e-01 3.0250001e+00 3.7500000e+01 
7.5000000e-01 3.0250001e+00 3.8000000e+01 
7.5000000e-01 3.0250001e+00 3.8500000e+01 
7.5000000e-01 3.0250001e+00 3.9000000e+01 
7.5000000e-01 3.0250001e+00 3.9500000e+01 
7.5000000e-01 3.0250001e+00 4.0000000e+01 
7.5000000e-01 3.0250001e+00 4.0500000e+01 
7.5000000e-01 3.0250001e+00 4.1000000e+01 
7.5000000e-01 3.0250001e+00 4.1500000e+01 
7.5000000e-01 3.0250001e+00 4.2000000e+01 
7.5000000e-01 3.0250001e+00 4.2500000e+01 
7.5000000e-01 3.0250001e+00 4.3000000e+01 
7.5000000e-01 3.0250001e+00 4.3500000e+01 
7.5000000e-01 3.0250001e+00 4.4000000e+01 
7.5000000e-01 3.0250001e+00 4.4500000e+01 
7.5000000e-01 3.0250001e+00 4.5000000e+01 
7.5000000e-01 3.0250001e+00 4.5500000e+01 
7.5000000e-01 3.0250001e+00 4.6000000e+01 
7.5000000e-01 3.0250001e+00 4.6500000e+01 
7.5000000e-01 3.0250001e+00 4.7000000e+01 
7.5000000e-01 3.0250001e+00 4.7500000e+01 
7.5000000e-01 3.0250001e+00 4.8000000e+01 
7.5000000e-01 3.0250001e+00 4.8500000e+01 
7.5000000e-01 3.0250001e+00 4.9000000e+01 
7.5000000e-01 3.0250001e+00 4.9500000e+01 
7.5000000e-01 3.0250001e+00 5.0000000e+01 
3.0000000e+00 2.0000000e+00 3.6000000e+01 
8.0487806e-01 3.0000000e+00 3.6000000e+01 
0.0000000e+00 0.0000000e+00 2.0000000e+00 
0.0000000e+00 0.0000000e+00 4.0000000e+00 
0.0000000e+00 0.0000000e+00 6.0000000e+00 
0.0000000e+00 0.0000000e+00 8.0000000e+00 
0.0000000e+00 0.0000000e+00 1.0000000e+01 
0.0000000e+00 0.0000000e+00 1.2000000e+01 
0.0000000e+00 0.0000000e+00 1.4000000e+01 
0.0000000e+00 0.0000000e+00 1.6000000e+01 
[...]
POINT_DATA 661
FIELD FieldData 3
DISPLACEMENT 3 661  float
0.0000000e+00 0.0000000e+00 0.0000000e+00 
0.0000000e+00 0.0000000e+00 0.0000000e+00 
0.0000000e+00 0.0000000e+00 0.0000000e+00 
0.0000000e+00 0.0000000e+00 0.0000000e+00 
4.5661145e-06 -5.7044972e-06 -1.6944261e-06 
3.4644685e-07 9.3631297e-07 1.3116281e-06 
0.0000000e+00 -2.6263938e-06 0.0000000e+00 
0.0000000e+00 -1.1048209e-05 0.0000000e+00 
-1.3071497e-07 -5.9052354e-06 -4.3748796e-06 
-2.7438894e-06 2.3718733e-06 -1.4470015e-06 
-4.0751709e-07 -2.3515659e-05 -2.6566197e-05 
-1.4327042e-06 -3.2937423e-06 -5.3891058e-06 
0.0000000e+00 -3.6875656e-06 0.0000000e+00 
0.0000000e+00 -1.9569314e-05 0.0000000e+00 
-2.1337000e-06 -2.0763349e-05 -9.7869372e-05 
-9.7170114e-06 -1.5540776e-05 -3.3875418e-05 
-9.6611147e-06 3.8660226e-05 -5.1059265e-05 
2.1817134e-06 -3.3003253e-05 -3.8822538e-05 
0.0000000e+00 -7.8579724e-06 0.0000000e+00 
0.0000000e+00 -2.6775386e-05 0.0000000e+00 
2.2668242e-05 4.5430632e-05 -7.1044982e-05 
3.5656300e-05 6.3199186e-05 -5.6076507e-05 
4.2076117e-05 8.6094704e-05 -4.7817022e-05 
4.6034951e-05 1.1259590e-04 -3.1846612e-05 
4.8746748e-05 1.4073029e-04 -6.5925938e-06 
4.4520792e-05 1.6504027e-04 9.3643830e-06 
3.0927837e-05 1.7422131e-04 3.1333471e-05 
2.0313528e-05 1.3859924e-04 5.1318006e-05 
-1.2062144e-05 1.6692033e-05 8.8744986e-05 
-2.2979542e-05 -2.3182957e-04 1.2509928e-04 
-5.7135643e-05 -6.6767650e-04 1.7206612e-04 
-1.1331878e-04 -1.3323879e-03 1.1470816e-04 
-2.5015356e-04 -2.2435600e-03 1.9186709e-04 
-2.5137031e-04 -3.2302835e-03 1.7415814e-04 
-1.3601978e-04 -3.9984453e-03 1.0439217e-04 
-1.0064500e-04 -4.0140687e-03 1.0294700e-04 
-2.4325626e-04 -3.8404199e-03 3.3950819e-05 
-3.1512714e-04 -3.8365058e-03 1.2265127e-05 
-2.0255291e-04 -4.1050734e-03 -2.9117053e-05 
-4.7600537e-05 -4.1402164e-03 -7.8789562e-05 
-8.1721220e-05 -3.4497450e-03 -1.5853543e-04 
-1.8104262e-04 -2.4178054e-03 -1.7178555e-04 
-1.9026846e-04 -1.5148084e-03 -1.4989160e-04 
-8.0224476e-05 -8.2704419e-04 -7.9217105e-05 
-4.4054759e-05 -3.9198980e-04 -1.1164925e-04 
-3.0265082e-05 -1.4661317e-04 -7.9203826e-05 
-3.0107174e-05 -3.0281073e-05 -5.8972495e-05 
-2.0757818e-05 7.4963018e-06 -4.2011419e-05 
-1.2231699e-05 5.2692110e-07 -2.6237985e-05 
-4.1299245e-06 -2.6081592e-05 -1.5832309e-05 
-2.9520907e-06 -5.5153319e-05 -1.4979055e-05 
-9.8456330e-06 -7.9704034e-05 -1.2564123e-05 
-1.2981914e-05 -9.6009637e-05 6.9847451e-06 
-1.5318148e-05 -1.0594690e-04 2.6407830e-05 
-3.3477867e-05 -1.1287453e-04 5.8433587e-05 
-5.1675215e-05 -1.1680910e-04 8.2846665e-05 
-5.1598567e-05 -1.1639539e-04 6.1490697e-05 
-5.4715656e-05 -1.1112308e-04 2.8067796e-05 
-3.9093906e-05 -9.9464000e-05 -1.6175873e-05 
-1.6165694e-05 -7.9964200e-05 -6.1844868e-05 
3.2907240e-06 -4.9401522e-05 -7.6089076e-05 
1.7308334e-05 -1.0448819e-05 -7.6272656e-05 
3.2342235e-05 3.5453315e-05 -7.8505902e-05 
4.1703832e-05 8.4251682e-05 -6.7131747e-05 
5.0575734e-05 1.3095082e-04 -4.4408604e-05 
5.4254007e-05 1.6835707e-04 -1.8034154e-05 
4.2174655e-05 1.8331328e-04 1.0014500e-05 
3.0249659e-05 1.4623872e-04 3.7156315e-05 
-1.2405955e-05 1.2319309e-05 6.8726906e-05 
-2.1145732e-05 -2.6230636e-04 9.9826648e-05 
-3.6038706e-05 -7.4273284e-04 1.3687341e-04 
-8.3239633e-05 -1.4649079e-03 6.8967543e-05 
-2.2821427e-04 -2.4332528e-03 1.6857810e-04 
-2.3257684e-04 -3.4301667e-03 1.6785983e-04 
-1.3394594e-04 -4.0914412e-03 1.3688515e-04 
-1.0274808e-04 -4.0158047e-03 1.8495279e-04 
-2.5279960e-04 -3.8715720e-03 1.2996887e-04 
-3.2113623e-04 -3.9373292e-03 1.1219751e-04 
-2.1290654e-04 -4.2398353e-03 7.3348609e-05 
-7.6930650e-05 -4.1748984e-03 4.0805691e-05 
-1.2355091e-04 -3.3887322e-03 -1.0115850e-04 
-2.2982107e-04 -2.3596021e-03 -1.6178553e-04 
-2.2239499e-04 -1.4827737e-03 -1.8971604e-04 
-1.0240054e-04 -8.1701792e-04 -1.6659514e-04 
-5.5513046e-05 -3.8434623e-04 -2.1046080e-04 
-3.1016541e-05 -1.2491857e-04 -1.8201205e-04 
-1.9000581e-05 1.7722714e-05 -1.6813558e-04 
3.0837664e-06 8.8246576e-05 -1.4417064e-04 
2.5130159e-05 1.1370629e-04 -9.5252035e-05 
4.2728028e-05 1.1507713e-04 -4.5347726e-05 
3.5452449e-05 1.0396863e-04 -7.3661836e-06 
2.5300862e-05 8.5293032e-05 2.9382942e-05 
1.9240168e-05 6.1122606e-05 5.0394243e-05 
1.3030310e-05 3.4664881e-05 6.0554004e-05 
2.5919880e-06 9.0857102e-06 7.0225957e-05 
-7.5590551e-06 -1.1777647e-05 6.4540145e-05 
-1.0789974e-05 -2.6067939e-05 4.6338064e-05 
-1.4441725e-05 -3.3850371e-05 2.1858388e-05 
-1.0589240e-05 -3.5965608e-05 -2.5475783e-06 
0.0000000e+00 -2.6032882e-05 0.0000000e+00 
0.0000000e+00 -1.4905931e-05 0.0000000e+00 
0.0000000e+00 -9.8708006e-07 0.0000000e+00 
0.0000000e+00 1.3416289e-05 0.0000000e+00 
0.0000000e+00 2.5539550e-05 0.0000000e+00 
0.0000000e+00 3.2885586e-05 0.0000000e+00 
0.0000000e+00 3.3868815e-05 0.0000000e+00 
0.0000000e+00 2.8221393e-05 0.0000000e+00 
0.0000000e+00 1.7030721e-05 0.0000000e+00 
0.0000000e+00 2.4087929e-06 0.0000000e+00 
0.0000000e+00 -1.3008693e-05 0.0000000e+00 
0.0000000e+00 -2.6475956e-05 0.0000000e+00 
0.0000000e+00 -3.5393321e-05 0.0000000e+00 
0.0000000e+00 -3.7592879e-05 0.0000000e+00 
0.0000000e+00 -3.1863681e-05 0.0000000e+00 
0.0000000e+00 -1.8638619e-05 0.0000000e+00 
0.0000000e+00 -4.3297445e-07 0.0000000e+00 
0.0000000e+00 1.8408960e-05 0.0000000e+00 
0.0000000e+00 3.2764532e-05 0.0000000e+00 
0.0000000e+00 3.8223432e-05 0.0000000e+00 
0.0000000e+00 3.8866558e-05 0.0000000e+00 
0.0000000e+00 4.5597659e-05 0.0000000e+00 
0.0000000e+00 6.2982028e-05 0.0000000e+00 
0.0000000e+00 8.6085500e-05 0.0000000e+00 
0.0000000e+00 1.1273977e-04 0.0000000e+00 
0.0000000e+00 1.4105164e-04 0.0000000e+00 
0.0000000e+00 1.6607450e-04 0.0000000e+00 
0.0000000e+00 1.7488077e-04 0.0000000e+00 
0.0000000e+00 1.3865737e-04 0.0000000e+00 
0.0000000e+00 1.7815140e-05 0.0000000e+00 
0.0000000e+00 -2.3247907e-04 0.0000000e+00 
0.0000000e+00 -6.6916127e-04 0.0000000e+00 
0.0000000e+00 -1.3414242e-03 0.0000000e+00 
0.0000000e+00 -2.2510129e-03 0.0000000e+00 
0.0000000e+00 -3.2618248e-03 0.0000000e+00 
0.0000000e+00 -4.0222513e-03 0.0000000e+00 
0.0000000e+00 -4.0446385e-03 0.0000000e+00 
0.0000000e+00 -3.8542142e-03 0.0000000e+00 
0.0000000e+00 -3.8671661e-03 0.0000000e+00 
0.0000000e+00 -4.1250577e-03 0.0000000e+00 
0.0000000e+00 -4.1747759e-03 0.0000000e+00 
0.0000000e+00 -3.4679121e-03 0.0000000e+00 
0.0000000e+00 -2.4364495e-03 0.0000000e+00 
0.0000000e+00 -1.5170934e-03 0.0000000e+00 
0.0000000e+00 -8.3134219e-04 0.0000000e+00 
0.0000000e+00 -3.9183031e-04 0.0000000e+00 
0.0000000e+00 -1.4573280e-04 0.0000000e+00 
0.0000000e+00 -2.9333632e-05 0.0000000e+00 
0.0000000e+00 7.9215060e-06 0.0000000e+00 
0.0000000e+00 9.1140879e-07 0.0000000e+00 
0.0000000e+00 -2.5573634e-05 0.0000000e+00 
0.0000000e+00 -5.4982040e-05 0.0000000e+00 
0.0000000e+00 -7.9435798e-05 0.0000000e+00 
0.0000000e+00 -9.5949159e-05 0.0000000e+00 
0.0000000e+00 -1.0614561e-04 0.0000000e+00 
0.0000000e+00 -1.1297766e-04 0.0000000e+00 
0.0000000e+00 -1.1679922e-04 0.0000000e+00 
0.0000000e+00 -1.1647520e-04 0.0000000e+00 
0.0000000e+00 -1.1113441e-04 0.0000000e+00 
0.0000000e+00 -9.9531790e-05 0.0000000e+00 
0.0000000e+00 -7.9646386e-05 0.0000000e+00 
0.0000000e+00 -4.9450038e-05 0.0000000e+00 
0.0000000e+00 -1.0333973e-05 0.0000000e+00 
0.0000000e+00 3.5489749e-05 0.0000000e+00 
0.0000000e+00 8.4302199e-05 0.0000000e+00 
0.0000000e+00 1.3127128e-04 0.0000000e+00 
0.0000000e+00 1.6928466e-04 0.0000000e+00 
0.0000000e+00 1.8414849e-04 0.0000000e+00 
0.0000000e+00 1.4637805e-04 0.0000000e+00 
0.0000000e+00 1.3493847e-05 0.0000000e+00 
0.0000000e+00 -2.6345110e-04 0.0000000e+00 
0.0000000e+00 -7.4467470e-04 0.0000000e+00 
0.0000000e+00 -1.4756327e-03 0.0000000e+00 
0.0000000e+00 -2.4422982e-03 0.0000000e+00 
0.0000000e+00 -3.4653931e-03 0.0000000e+00 
0.0000000e+00 -4.1155382e-03 0.0000000e+00 
0.0000000e+00 -4.0459558e-03 0.0000000e+00 
0.0000000e+00 -3.8851469e-03 0.0000000e+00 
0.0000000e+00 -3.9694919e-03 0.0000000e+00 
0.0000000e+00 -4.2614783e-03 0.0000000e+00 
0.0000000e+00 -4.2090174e-03 0.0000000e+00 
0.0000000e+00 -3.4052241e-03 0.0000000e+00 
0.0000000e+00 -2.3757610e-03 0.0000000e+00 
0.0000000e+00 -1.4844597e-03 0.0000000e+00 
0.0000000e+00 -8.2046632e-04 0.0000000e+00 
0.0000000e+00 -3.8413901e-04 0.0000000e+00 
0.0000000e+00 -1.2402174e-04 0.0000000e+00 
0.0000000e+00 1.8694707e-05 0.0000000e+00 
0.0000000e+00 8.8585555e-05 0.0000000e+00 
0.0000000e+00 1.1419885e-04 0.0000000e+00 
0.0000000e+00 1.1544248e-04 0.0000000e+00 
0.0000000e+00 1.0409528e-04 0.0000000e+00 
0.0000000e+00 8.5216154e-05 0.0000000e+00 
0.0000000e+00 6.1119812e-05 0.0000000e+00 
0.0000000e+00 3.4660083e-05 0.0000000e+00 
0.0000000e+00 9.2094815e-06 0.0000000e+00 
0.0000000e+00 -1.1678474e-05 0.0000000e+00 
0.0000000e+00 -2.6047323e-05 0.0000000e+00 
0.0000000e+00 -3.3875585e-05 0.0000000e+00 
0.0000000e+00 -3.5966332e-05 0.0000000e+00 
0.0000000e+00 -3.3090491e-05 0.0000000e+00 
0.0000000e+00 -2.5971303e-05 0.0000000e+00 
0.0000000e+00 -1.4853626e-05 0.0000000e+00 
0.0000000e+00 -9.6012627e-07 0.0000000e+00 
0.0000000e+00 1.3408004e-05 0.0000000e+00 
0.0000000e+00 2.5496205e-05 0.0000000e+00 
0.0000000e+00 3.2820404e-05 0.0000000e+00 
0.0000000e+00 3.3804899e-05 0.0000000e+00 
0.0000000e+00 2.8179595e-05 0.0000000e+00 
0.0000000e+00 1.7016568e-05 0.0000000e+00 
0.0000000e+00 2.4117446e-06 0.0000000e+00 
0.0000000e+00 -1.3001124e-05 0.0000000e+00 
0.0000000e+00 -2.6462660e-05 0.0000000e+00 
0.0000000e+00 -3.5359251e-05 0.0000000e+00 
0.0000000e+00 -3.7525730e-05 0.0000000e+00 
0.0000000e+00 -3.1772059e-05 0.0000000e+00 
0.0000000e+00 -1.8554327e-05 0.0000000e+00 
0.0000000e+00 -3.9449120e-07 0.0000000e+00 
0.0000000e+00 1.8379216e-05 0.0000000e+00 
0.0000000e+00 3.2674030e-05 0.0000000e+00 
0.0000000e+00 3.8108232e-05 0.0000000e+00 
3.4380107e-06 2.6842341e-05 3.1730053e-06 
2.6150317e-05 8.6412387e-05 2.9340194e-05 
0.0000000e+00 0.0000000e+00 0.0000000e+00 
0.0000000e+00 0.0000000e+00 0.0000000e+00 
0.0000000e+00 0.0000000e+00 0.0000000e+00 
0.0000000e+00 0.0000000e+00 0.0000000e+00 
0.0000000e+00 0.0000000e+00 0.0000000e+00 
0.0000000e+00 0.0000000e+00 0.0000000e+00 
0.0000000e+00 0.0000000e+00 0.0000000e+00 
0.0000000e+00 0.0000000e+00 0.0000000e+00 
0.0000000e+00 0.0000000e+00 0.0000000e+00 
0.0000000e+00 0.0000000e+00 0.0000000e+00 
0.0000000e+00 0.0000000e+00 0.0000000e+00 
0.0000000e+00 0.0000000e+00 0.0000000e+00 
0.0000000e+00 0.0000000e+00 0.0000000e+00 
0.0000000e+00 0.0000000e+00 0.0000000e+00 
0.0000000e+00 0.0000000e+00 0.0000000e+00 
0.0000000e+00 0.0000000e+00 0.0000000e+00 
0.0000000e+00 0.0000000e+00 0.0000000e+00 
0.0000000e+00 0.0000000e+00 0.0000000e+00 
0.0000000e+00 0.0000000e+00 0.0000000e+00 
0.0000000e+00 0.0000000e+00 0.0000000e+00 
0.0000000e+00 0.0000000e+00 0.0000000e+00 
0.0000000e+00 0.0000000e+00 0.0000000e+00 
0.0000000e+00 0.0000000e+00 0.0000000e+00 
0.0000000e+00 0.0000000e+00 0.0000000e+00 
0.0000000e+00 0.0000000e+00 0.0000000e+00 
0.0000000e+00 0.0000000e+00 0.0000000e+00 
0.0000000e+00 0.0000000e+00 0.0000000e+00 
0.0000000e+00 0.0000000e+00 0.0000000e+00 
0.0000000e+00 0.0000000e+00 0.0000000e+00 
0.0000000e+00 0.0000000e+00 0.0000000e+00 
0.0000000e+00 0.0000000e+00 0.0000000e+00 
0.0000000e+00 0.0000000e+00 0.0000000e+00 
0.0000000e+00 0.0000000e+00 0.0000000e+00 
0.0000000e+00 0.0000000e+00 0.0000000e+00 
0.0000000e+00 0.0000000e+00 0.0000000e+00 
0.0000000e+00 0.0000000e+00 0.0000000e+00 
0.0000000e+00 0.0000000e+00 0.0000000e+00 
0.0000000e+00 0.0000000e+00 0.0000000e+00 
0.0000000e+00 0.0000000e+00 0.0000000e+00 
0.0000000e+00 0.0000000e+00 0.0000000e+00 
0.0000000e+00 0.0000000e+00 0.0000000e+00 
0.0000000e+00 0.0000000e+00 0.0000000e+00 
-2.2448219e-06 -2.8646209e-06 -4.9746509e-06 
7.6522729e-06 9.7104908e-07 -1.1143676e-05 
3.0713461e-05 -3.2944070e-06 -1.3986405e-05 
4.5424975e-05 -1.3709418e-05 -7.6286778e-06 
4.5211174e-05 -8.8643046e-06 1.7506427e-06 
1.8893017e-05 -7.6302467e-07 -2.1183675e-06 
5.3411177e-06 2.3983237e-06 4.1313297e-06 
5.6421918e-06 1.1257254e-06 7.8255607e-06 
2.9147066e-06 -5.6755184e-06 4.8993588e-06 
-2.0729626e-06 -5.0588806e-06 2.2759416e-06 
-4.5856495e-06 3.4487223e-06 -1.3262672e-06 
7.4356290e-06 -2.3541459e-06 -6.6835760e-06 
2.8146391e-05 -5.7436796e-06 -6.9719117e-06 
4.8720303e-05 -8.8702091e-06 -2.9974349e-06 
4.7360805e-05 -1.2641582e-05 3.6781930e-06 
2.1194644e-05 -5.6003473e-06 4.2181437e-06 
1.1732931e-06 6.1999108e-06 8.8847846e-06 
-2.7240405e-06 2.8760983e-06 4.5407924e-06 
1.9707998e-06 -4.5907095e-06 2.5856702e-06 
0.0000000e+00 4.2844815e-05 0.0000000e+00 
0.0000000e+00 3.2629425e-05 0.0000000e+00 
0.0000000e+00 -1.8731461e-04 0.0000000e+00 
0.0000000e+00 -5.1306811e-04 0.0000000e+00 
0.0000000e+00 -4.7635086e-04 0.0000000e+00 
0.0000000e+00 -1.6115091e-04 0.0000000e+00 
0.0000000e+00 -2.9616998e-05 0.0000000e+00 
0.0000000e+00 -3.2963890e-05 0.0000000e+00 
0.0000000e+00 -4.1262709e-05 0.0000000e+00 
0.0000000e+00 -3.9397612e-05 0.0000000e+00 
0.0000000e+00 3.0449537e-05 0.0000000e+00 
0.0000000e+00 3.2709093e-05 0.0000000e+00 
0.0000000e+00 -1.8611518e-04 0.0000000e+00 
0.0000000e+00 -4.9698155e-04 0.0000000e+00 
0.0000000e+00 -5.1101105e-04 0.0000000e+00 
0.0000000e+00 -1.8677670e-04 0.0000000e+00 
0.0000000e+00 1.0990645e-05 0.0000000e+00 
0.0000000e+00 3.7256428e-05 0.0000000e+00 
0.0000000e+00 -1.0076091e-05 0.0000000e+00 
6.8728593e-07 -1.2614791e-05 -6.7409096e-06 
-3.9894917e-06 -1.5407086e-05 -8.1138996e-06 
4.3070980e-07 -1.3222910e-06 -2.1884825e-06 
1.2903334e-06 -8.0712871e-06 2.2792090e-06 
3.8450730e-06 -2.6451385e-06 -1.0780053e-05 
2.0260881e-05 9.8498424e-07 -1.7877908e-05 
3.8341335e-05 9.2661088e-07 -6.0499251e-06 
4.9064070e-05 -2.3202483e-06 -5.1013135e-06 
3.3790853e-05 -8.5871325e-06 -1.2206829e-06 
1.1467177e-05 1.5519046e-06 -1.0588134e-05 
1.7707057e-06 3.5621163e-06 4.1248072e-06 
5.2498808e-06 -7.2286599e-07 1.2167352e-05 
-1.1963419e-06 -7.9302636e-06 9.2690498e-06 
-9.0576787e-06 -5.2802866e-06 -1.8238535e-06 
-2.0432526e-06 4.3086843e-06 -8.6013097e-06 
2.3738292e-05 -3.2106975e-06 -8.2200777e-06 
3.0937932e-05 -3.3491663e-06 -2.1690641e-07 
3.9993036e-05 -8.3901823e-06 4.5818879e-06 
2.5885187e-05 -1.0253152e-05 5.0096460e-06 
4.5836750e-06 -1.5867522e-06 -7.5449311e-06 
3.5521384e-06 6.5741883e-06 2.7564795e-06 
2.2961010e-06 8.7733036e-07 7.0425331e-06 
3.5283772e-06 -3.9654869e-06 4.8724874e-06 
1.2331220e-06 -1.3355207e-05 -3.0754640e-05 
0.0000000e+00 8.0735939e-05 0.0000000e+00 
0.0000000e+00 6.8771209e-05 0.0000000e+00 
0.0000000e+00 -4.0218583e-04 0.0000000e+00 
0.0000000e+00 -1.1430469e-03 0.0000000e+00 
0.0000000e+00 -1.0805873e-03 0.0000000e+00 
0.0000000e+00 -3.0213463e-04 0.0000000e+00 
0.0000000e+00 -3.6730802e-05 0.0000000e+00 
0.0000000e+00 -5.9786642e-05 0.0000000e+00 
0.0000000e+00 -7.1395327e-05 0.0000000e+00 
0.0000000e+00 -6.8661531e-05 0.0000000e+00 
0.0000000e+00 5.7741156e-05 0.0000000e+00 
0.0000000e+00 6.9257832e-05 0.0000000e+00 
0.0000000e+00 -4.1739279e-04 0.0000000e+00 
0.0000000e+00 -1.1269141e-03 0.0000000e+00 
0.0000000e+00 -1.1353545e-03 0.0000000e+00 
0.0000000e+00 -3.4044395e-04 0.0000000e+00 
0.0000000e+00 2.7409575e-05 0.0000000e+00 
0.0000000e+00 6.2118408e-05 0.0000000e+00 
0.0000000e+00 -1.5970880e-05 0.0000000e+00 
-3.1752172e-06 -1.2790989e-05 2.4000940e-06 
6.5823573e-05 7.4336291e-05 -2.8435214e-05 
4.9995990e-05 1.1930878e-04 6.9974973e-05 
-2.6094052e-04 -3.9174815e-04 3.2118851e-04 
-6.4208999e-04 -1.2910799e-03 1.0456255e-04 
-5.7987752e-04 -1.3974322e-03 -1.8005092e-04 
-1.7390469e-04 -2.3033934e-04 -2.0956069e-04 
2.2090596e-06 -1.6408234e-05 -4.8962414e-05 
-2.1612615e-05 -5.5634853e-05 -1.8306562e-05 
-7.1848757e-05 -8.2547856e-05 9.7640725e-05 
-2.3046683e-05 -5.9692185e-05 -9.6071482e-05 
5.8305868e-05 3.5187073e-05 -9.1167123e-05 
5.7663012e-05 1.5036011e-04 7.1739843e-05 
-2.4899296e-04 -4.0289923e-04 2.7341864e-04 
-6.4187276e-04 -1.2504709e-03 1.8028036e-04 
-6.1951973e-04 -1.4383054e-03 -3.9111623e-05 
-1.8171732e-04 -2.8204042e-04 -3.0501981e-04 
2.6458763e-05 4.9021164e-05 -1.7695485e-04 
3.2037824e-05 6.2834850e-05 3.9631555e-05 
-3.8090884e-06 -1.1409801e-05 7.5216994e-05 
0.0000000e+00 1.0471323e-04 0.0000000e+00 
0.0000000e+00 1.3282734e-04 0.0000000e+00 
0.0000000e+00 -7.7284878e-04 0.0000000e+00 
0.0000000e+00 -2.2504558e-03 0.0000000e+00 
0.0000000e+00 -2.1087830e-03 0.0000000e+00 
0.0000000e+00 -5.1074516e-04 0.0000000e+00 
0.0000000e+00 -6.8202758e-07 0.0000000e+00 
0.0000000e+00 -8.8289838e-05 0.0000000e+00 
0.0000000e+00 -8.3865358e-05 0.0000000e+00 
0.0000000e+00 -8.2287894e-05 0.0000000e+00 
0.0000000e+00 6.9405032e-05 0.0000000e+00 
0.0000000e+00 1.3554419e-04 0.0000000e+00 
0.0000000e+00 -8.4723567e-04 0.0000000e+00 
0.0000000e+00 -2.2741565e-03 0.0000000e+00 
0.0000000e+00 -2.1582185e-03 0.0000000e+00 
0.0000000e+00 -5.2860897e-04 0.0000000e+00 
0.0000000e+00 6.9279238e-05 0.0000000e+00 
0.0000000e+00 7.7657263e-05 0.0000000e+00 
0.0000000e+00 -1.6812925e-05 0.0000000e+00 
1.0163368e-05 1.9366642e-05 -1.5694401e-05 
2.9651203e-05 3.6587862e-05 2.9766552e-06 
5.1433904e-05 -2.5070027e-05 5.4374373e-06 
5.3406726e-05 -1.0317038e-04 -2.1374120e-05 
4.7352856e-05 -8.3282976e-05 -8.2618271e-06 
3.3563076e-05 -4.0829706e-05 -3.4072775e-06 
7.6615188e-06 -6.4850874e-06 -9.3116460e-06 
-6.6708590e-06 -4.1663002e-06 3.6146052e-06 
-1.7126818e-05 -1.7773174e-05 1.3546937e-05 
-7.4270197e-06 -2.3168577e-05 -1.2138561e-05 
3.5260746e-06 1.5254885e-05 -1.5204108e-05 
2.8045484e-05 4.5290151e-05 4.6080941e-06 
6.5273663e-05 -3.4025263e-05 4.6317036e-06 
6.1877909e-05 -7.8413577e-05 9.6076737e-06 
3.5190747e-05 -1.0996454e-04 2.1170808e-05 
2.5083356e-05 -7.2580413e-05 -1.4791230e-05 
2.2371850e-07 2.2078466e-05 -3.7686612e-05 
1.3145849e-06 -5.4591355e-06 1.4732537e-05 
2.0559854e-05 5.1100284e-05 2.3474275e-05 
0.0000000e+00 0.0000000e+00 0.0000000e+00 
0.0000000e+00 0.0000000e+00 0.0000000e+00 
0.0000000e+00 0.0000000e+00 0.0000000e+00 
0.0000000e+00 0.0000000e+00 0.0000000e+00 
0.0000000e+00 0.0000000e+00 0.0000000e+00 
0.0000000e+00 0.0000000e+00 0.0000000e+00 
0.0000000e+00 0.0000000e+00 0.0000000e+00 
0.0000000e+00 0.0000000e+00 0.0000000e+00 
0.0000000e+00 0.0000000e+00 0.0000000e+00 
0.0000000e+00 0.0000000e+00 0.0000000e+00 
0.0000000e+00 0.0000000e+00 0.0000000e+00 
0.0000000e+00 0.0000000e+00 0.0000000e+00 
0.0000000e+00 0.0000000e+00 0.0000000e+00 
0.0000000e+00 0.0000000e+00 0.0000000e+00 
0.0000000e+00 0.0000000e+00 0.0000000e+00 
0.0000000e+00 0.0000000e+00 0.0000000e+00 
0.0000000e+00 0.0000000e+00 0.0000000e+00 
0.0000000e+00 0.0000000e+00 0.0000000e+00 
0.0000000e+00 0.0000000e+00 0.0000000e+00 
0.0000000e+00 0.0000000e+00 0.0000000e+00 
0.0000000e+00 0.0000000e+00 0.0000000e+00 
0.0000000e+00 0.0000000e+00 0.0000000e+00 
0.0000000e+00 0.0000000e+00 0.0000000e+00 
0.0000000e+00 0.0000000e+00 0.0000000e+00 
0.0000000e+00 0.0000000e+00 0.0000000e+00 
0.0000000e+00 0.0000000e+00 0.0000000e+00 
0.0000000e+00 0.0000000e+00 0.0000000e+00 
0.0000000e+00 0.0000000e+00 0.0000000e+00 
0.0000000e+00 0.0000000e+00 0.0000000e+00 
0.0000000e+00 0.0000000e+00 0.0000000e+00 
0.0000000e+00 0.0000000e+00 0.0000000e+00 
0.0000000e+00 0.0000000e+00 0.0000000e+00 
0.0000000e+00 0.0000000e+00 0.0000000e+00 
0.0000000e+00 0.0000000e+00 0.0000000e+00 
0.0000000e+00 0.0000000e+00 0.0000000e+00 
0.0000000e+00 0.0000000e+00 0.0000000e+00 
0.0000000e+00 0.0000000e+00 0.0000000e+00 
0.0000000e+00 0.0000000e+00 0.0000000e+00 
0.0000000e+00 0.0000000e+00 0.0000000e+00 
0.0000000e+00 0.0000000e+00 0.0000000e+00 
0.0000000e+00 0.0000000e+00 0.0000000e+00 
0.0000000e+00 0.0000000e+00 0.0000000e+00 
8.6701166e-06 -3.4209963e-06 -8.7603794e-06 
3.9553261e-06 -7.6971270e-07 8.0797622e-07 
3.8847002e-06 -1.7942365e-06 3.2298897e-06 
-8.0663875e-07 1.4518853e-06 -1.4511938e-06 
6.4062851e-06 -5.8834089e-06 -3.8425551e-06 
2.3698291e-05 -8.5490474e-06 -2.8191223e-06 
2.5807578e-05 -1.1711828e-05 -7.7889695e-07 
2.2326831e-05 -1.1554986e-05 2.8260008e-06 