# vtk DataFile Version 4.0
vtk output
ASCII
DATASET UNSTRUCTURED_GRID
POINTS 621 float
0.0000000e+00 0.0000000e+00 0.0000000e+00 
0.0000000e+00 0.0000000e+00 4.0000000e+01 
5.0000000e+00 0.0000000e+00 0.0000000e+00 
5.0000000e+00 0.0000000e+00 4.0000000e+01 
5.0000000e+00 1.0000000e+00 0.0000000e+00 
5.0000000e+00 1.0000000e+00 4.0000000e+01 
0.0000000e+00 1.0000000e+00 0.0000000e+00 
0.0000000e+00 1.0000000e+00 4.0000000e+01 
5.0000000e+00 2.0000000e+00 0.0000000e+00 
5.0000000e+00 2.0000000e+00 4.0000000e+01 
3.0000000e+00 2.0000000e+00 0.0000000e+00 
3.0000000e+00 2.0000000e+00 4.0000000e+01 
0.0000000e+00 2.0000000e+00 0.0000000e+00 
0.0000000e+00 2.0000000e+00 4.0000000e+01 
1.5000000e+00 3.0000000e+00 0.0000000e+00 
1.5000000e+00 3.0000000e+00 4.0000000e+01 
7.5000000e-01 3.0000000e+00 0.0000000e+00 
7.5000000e-01 3.0000000e+00 4.0000000e+01 
0.0000000e+00 3.0000000e+00 0.0000000e+00 
0.0000000e+00 3.0000000e+00 4.0000000e+01 
7.5000000e-01 3.0000000e+00 5.0000000e-01 
7.5000000e-01 3.0000000e+00 1.0000000e+00 
7.5000000e-01 3.0000000e+00 1.5000000e+00 
7.5000000e-01 3.0000000e+00 2.0000000e+00 
7.5000000e-01 3.0000000e+00 2.5000000e+00 
7.5000000e-01 3.0000000e+00 3.0000000e+00 
7.5000000e-01 3.0000000e+00 3.5000000e+00 
7.5000000e-01 3.0000000e+00 4.0000000e+00 
7.5000000e-01 3.0000000e+00 4.5000000e+00 
7.5000000e-01 3.0000000e+00 5.0000000e+00 
7.5000000e-01 3.0000000e+00 5.5000000e+00 
7.5000000e-01 3.0000000e+00 6.0000000e+00 
7.5000000e-01 3.0000000e+00 6.5000000e+00 
7.5000000e-01 3.0000000e+00 7.0000000e+00 
7.5000000e-01 3.0000000e+00 7.5000000e+00 
7.5000000e-01 3.0000000e+00 8.0000000e+00 
7.5000000e-01 3.0000000e+00 8.5000000e+00 
7.5000000e-01 3.0000000e+00 9.0000000e+00 
7.5000000e-01 3.0000000e+00 9.5000000e+00 
7.5000000e-01 3.0000000e+00 1.0000000e+01 
7.5000000e-01 3.0000000e+00 1.0500000e+01 
7.5000000e-01 3.0000000e+00 1.1000000e+01 
7.5000000e-01 3.0000000e+00 1.1500000e+01 
7.5000000e-01 3.0000000e+00 1.2000000e+01 
7.5000000e-01 3.0000000e+00 1.2500000e+01 
7.5000000e-01 3.0000000e+00 1.3000000e+01 
7.5000000e-01 3.0000000e+00 1.3500000e+01 
7.5000000e-01 3.0000000e+00 1.4000000e+01 
7.5000000e-01 3.0000000e+00 1.4500000e+01 
7.5000000e-01 3.0000000e+00 1.5000000e+01 
7.5000000e-01 3.0000000e+00 1.5500000e+01 
7.5000000e-01 3.0000000e+00 1.6000000e+01 
7.5000000e-01 3.0000000e+00 1.6500000e+01 
7.5000000e-01 3.0000000e+00 1.7000000e+01 
7.5000000e-01 3.0000000e+00 1.7500000e+01 
7.5000000e-01 3.0000000e+00 1.8000000e+01 
7.5000000e-01 3.0000000e+00 1.8500000e+01 
7.5000000e-01 3.0000000e+00 1.9000000e+01 
7.5000000e-01 3.0000000e+00 1.9500000e+01 
7.5000000e-01 3.0000000e+00 2.0000000e+01 
7.5000000e-01 3.0000000e+00 2.0500000e+01 
7.5000000e-01 3.0000000e+00 2.1000000e+01 
7.5000000e-01 3.0000000e+00 2.1500000e+01 
7.5000000e-01 3.0000000e+00 2.2000000e+01 
7.5000000e-01 3.0000000e+00 2.2500000e+01 
7.5000000e-01 3.0000000e+00 2.3000000e+01 
7.5000000e-01 3.0000000e+00 2.3500000e+01 
7.5000000e-01 3.0000000e+00 2.4000000e+01 
7.5000000e-01 3.0000000e+00 2.4500000e+01 
7.5000000e-01 3.0000000e+00 2.5000000e+01 
7.5000000e-01 3.0000000e+00 2.5500000e+01 
7.5000000e-01 3.0000000e+00 2.6000000e+01 
7.5000000e-01 3.0000000e+00 2.6500000e+01 
7.5000000e-01 3.0000000e+00 2.7000000e+01 
7.5000000e-01 3.0000000e+00 2.7500000e+01 
7.5000000e-01 3.0000000e+00 2.8000000e+01 
7.5000000e-01 3.0000000e+00 2.8500000e+01 
7.5000000e-01 3.0000000e+00 2.9000000e+01 
7.5000000e-01 3.0000000e+00 2.9500000e+01 
7.5000000e-01 3.0000000e+00 3.0000000e+01 
7.5000000e-01 3.0000000e+00 3.0500000e+01 
7.5000000e-01 3.0000000e+00 3.1000000e+01 
7.5000000e-01 3.0000000e+00 3.1500000e+01 
7.5000000e-01 3.0000000e+00 3.2000000e+01 
7.5000000e-01 3.0000000e+00 3.2500000e+01 
7.5000000e-01 3.0000000e+00 3.3000000e+01 
7.5000000e-01 3.0000000e+00 3.3500000e+01 
7.5000000e-01 3.0000000e+00 3.4000000e+01 
7.5000000e-01 3.0000000e+00 3.4500000e+01 
7.5000000e-01 3.0000000e+00 3.5000000e+01 
7.5000000e-01 3.0000000e+00 3.5500000e+01 
7.5000000e-01 3.0000000e+00 3.6000000e+01 
7.5000000e-01 3.0000000e+00 3.6500000e+01 
7.5000000e-01 3.0000000e+00 3.7000000e+01 
7.5000000e-01 3.0000000e+00 3.7500000e+01 
7.5000000e-01 3.0000000e+00 3.8000000e+01 
7.5000000e-01 3.0000000e+00 3.8500000e+01 
7.5000000e-01 3.0000000e+00 3.9000000e+01 
7.5000000e-01 3.0000000e+00 3.9500000e+01 
7.5000000e-01 3.0250001e+00 0.0000000e+00 
7.5000000e-01 3.0250001e+00 5.0000000e-01 
7.5000000e-01 3.0250001e+00 1.0000000e+00 
7.5000000e-01 3.0250001e+00 1.5000000e+00 
7.5000000e-01 3.0250001e+00 2.0000000e+00 
7.5000000e-01 3.0250001e+00 2.5000000e+00 
7.5000000e-01 3.0250001e+00 3.0000000e+00 
7.5000000e-01 3.0250001e+00 3.5000000e+00 
7.5000000e-01 3.0250001e+00 4.0000000e+00 
7.5000000e-01 3.0250001e+00 4.5000000e+00 
7.5000000e-01 3.0250001e+00 5.0000000e+00 
7.5000000e-01 3.0250001e+00 5.5000000e+00 
7.5000000e-01 3.0250001e+00 6.0000000e+00 
7.5000000e-01 3.0250001e+00 6.5000000e+00 
7.5000000e-01 3.0250001e+00 7.0000000e+00 
7.5000000e-01 3.0250001e+00 7.5000000e+00 
7.5000000e-01 3.0250001e+00 8.0000000e+00 
7.5000000e-01 3.0250001e+00 8.5000000e+00 
7.5000000e-01 3.0250001e+00 9.0000000e+00 
7.5000000e-01 3.0250001e+00 9.5000000e+00 
7.5000000e-01 3.0250001e+00 1.0000000e+01 
7.5000000e-01 3.0250001e+00 1.0500000e+01 
7.5000000e-01 3.0250001e+00 1.1000000e+01 
7.5000000e-01 3.0250001e+00 1.1500000e+01 
7.5000000e-01 3.0250001e+00 1.2000000e+01 
7.5000000e-01 3.0250001e+00 1.2500000e+01 
7.5000000e-01 3.0250001e+00 1.3000000e+01 
7.5000000e-01 3.0250001e+00 1.3500000e+01 
7.5000000e-01 3.0250001e+00 1.4000000e+01 
7.5000000e-01 3.0250001e+00 1.4500000e+01 
7.5000000e-01 3.0250001e+00 1.5000000e+01 
7.5000000e-01 3.0250001e+00 1.5500000e+01 
7.5000000e-01 3.0250001e+00 1.6000000e+01 
7.5000000e-01 3.0250001e+00 1.6500000e+01 
7.5000000e-01 3.0250001e+00 1.7000000e+01 
7.5000000e-01 3.0250001e+00 1.7500000e+01 
7.5000000e-01 3.0250001e+00 1.8000000e+01 
7.5000000e-01 3.0250001e+00 1.8500000e+01 
7.5000000e-01 3.0250001e+00 1.9000000e+01 
7.5000000e-01 3.0250001e+00 1.9500000e+01 
7.5000000e-01 3.0250001e+00 2.0000000e+01 
7.5000000e-01 3.0250001e+00 2.0500000e+01 
7.5000000e-01 3.0250001e+00 2.1000000e+01 
7.5000000e-01 3.0250001e+00 2.1500000e+01 
7.5000000e-01 3.0250001e+00 2.2000000e+01 
7.5000000e-01 3.0250001e+00 2.2500000e+01 
7.5000000e-01 3.0250001e+00 2.3000000e+01 
7.5000000e-01 3.0250001e+00 2.3500000e+01 
7.5000000e-01 3.0250001e+00 2.4000000e+01 
7.5000000e-01 3.0250001e+00 2.4500000e+01 
7.5000000e-01 3.0250001e+00 2.5000000e+01 
7.5000000e-01 3.0250001e+00 2.5500000e+01 
7.5000000e-01 3.0250001e+00 2.6000000e+01 
7.5000000e-01 3.0250001e+00 2.6500000e+01 
7.5000000e-01 3.0250001e+00 2.7000000e+01 
7.5000000e-01 3.0250001e+00 2.7500000e+01 
7.5000000e-01 3.0250001e+00 2.8000000e+01 
7.5000000e-01 3.0250001e+00 2.8500000e+01 
7.5000000e-01 3.0250001e+00 2.9000000e+01 
7.5000000e-01 3.0250001e+00 2.9500000e+01 
7.5000000e-01 3.0250001e+00 3.0000000e+01 
7.5000000e-01 3.0250001e+00 3.0500000e+01 
7.5000000e-01 3.0250001e+00 3.1000000e+01 
7.5000000e-01 3.0250001e+00 3.1500000e+01 
7.5000000e-01 3.0250001e+00 3.2000000e+01 
7.5000000e-01 3.0250001e+00 3.2500000e+01 
7.5000000e-01 3.0250001e+00 3.3000000e+01 
7.5000000e-01 3.0250001e+00 3.3500000e+01 
7.5000000e-01 3.0250001e+00 3.4000000e+01 
7.5000000e-01 3.0250001e+00 3.4500000e+01 
7.5000000e-01 3.0250001e+00 3.5000000e+01 
7.5000000e-01 3.0250001e+00 3.5500000e+01 
7.5000000e-01 3.0250001e+00 3.6000000e+01 
7.5000000e-01 3.0250001e+00 3.6500000e+01 
7.5000000e-01 3.0250001e+00 3.7000000e+01 
7.5000000e-01 3.0250001e+00 3.7500000e+01 
7.5000000e-01 3.0250001e+00 3.8000000e+01 
7.5000000e-01 3.0250001e+00 3.8500000e+01 
7.5000000e-01 3.0250001e+00 3.9000000e+01 
7.5000000e-01 3.0250001e+00 3.9500000e+01 
7.5000000e-01 3.0250001e+00 4.0000000e+01 
3.0000000e+00 2.0000000e+00 3.6000000e+01 
8.0487806e-01 3.0000000e+00 3.6000000e+01 
0.0000000e+00 0.0000000e+00 2.0000000e+00 
0.0000000e+00 0.0000000e+00 4.0000000e+00 
0.0000000e+00 0.0000000e+00 6.0000000e+00 
0.0000000e+00 0.0000000e+00 8.0000000e+00 
0.0000000e+00 0.0000000e+00 1.0000000e+01 
0.0000000e+00 0.0000000e+00 1.2000000e+01 
0.0000000e+00 0.0000000e+00 1.4000000e+01 
0.0000000e+00 0.0000000e+00 1.6000000e+01 
0.0000000e+00 0.0000000e+00 1.8000000e+01 
0.0000000e+00 0.0000000e+00 2.0000000e+01 
0.0000000e+00 0.0000000e+00 2.2000000e+01 
0.0000000e+00 0.0000000e+00 2.4000000e+01 
0.0000000e+00 0.0000000e+00 2.6000000e+01 
0.0000000e+00 0.0000000e+00 2.8000000e+01 
0.0000000e+00 0.0000000e+00 3.0000000e+01 
0.0000000e+00 0.0000000e+00 3.2000000e+01 
0.0000000e+00 0.0000000e+00 3.4000000e+01 
0.0000000e+00 0.0000000e+00 3.6000000e+01 
0.0000000e+00 0.0000000e+00 3.8000000e+01 
5.0000000e+00 0.0000000e+00 2.0000000e+00 
5.0000000e+00 0.0000000e+00 4.0000000e+00 
5.0000000e+00 0.0000000e+00 6.0000000e+00 
5.0000000e+00 0.0000000e+00 8.0000000e+00 
5.0000000e+00 0.0000000e+00 1.0000000e+01 
5.0000000e+00 0.0000000e+00 1.2000000e+01 
5.0000000e+00 0.0000000e+00 1.4000000e+01 
5.0000000e+00 0.0000000e+00 1.6000000e+01 
5.0000000e+00 0.0000000e+00 1.8000000e+01 
5.0000000e+00 0.0000000e+00 2.0000000e+01 
5.0000000e+00 0.0000000e+00 2.2000000e+01 
5.0000000e+00 0.0000000e+00 2.4000000e+01 
5.0000000e+00 0.0000000e+00 2.6000000e+01 
5.0000000e+00 0.0000000e+00 2.8000000e+01 
5.0000000e+00 0.0000000e+00 3.0000000e+01 
5.0000000e+00 0.0000000e+00 3.2000000e+01 
5.0000000e+00 0.0000000e+00 3.4000000e+01 
5.0000000e+00 0.0000000e+00 3.6000000e+01 
5.0000000e+00 0.0000000e+00 3.8000000e+01 
1.6666666e+00 0.0000000e+00 0.0000000e+00 
3.3333333e+00 0.0000000e+00 0.0000000e+00 
1.6666666e+00 0.0000000e+00 4.0000000e+01 
3.3333333e+00 0.0000000e+00 4.0000000e+01 
5.0000000e+00 1.0000000e+00 2.0000000e+00 
5.0000000e+00 1.0000000e+00 4.0000000e+00 
5.0000000e+00 1.0000000e+00 6.0000000e+00 
5.0000000e+00 1.0000000e+00 8.0000000e+00 
5.0000000e+00 1.0000000e+00 1.0000000e+01 
5.0000000e+00 1.0000000e+00 1.2000000e+01 
[...]
POINT_DATA 621
FIELD FieldData 3
DISPLACEMENT 3 621  float
0.0000000e+00 0.0000000e+00 0.0000000e+00 
0.0000000e+00 0.0000000e+00 0.0000000e+00 
0.0000000e+00 0.0000000e+00 0.0000000e+00 
0.0000000e+00 0.0000000e+00 0.0000000e+00 
5.8529514e-07 -1.3001795e-06 1.5688755e-06 
-4.5872937e-08 -3.0254459e-06 -2.3264618e-06 
0.0000000e+00 1.3876797e-05 0.0000000e+00 
0.0000000e+00 2.6453186e-05 0.0000000e+00 
2.6983826e-06 -3.0218957e-06 -9.6094418e-08 
1.1805622e-06 -7.6101678e-06 5.8168926e-06 
-3.7428066e-07 5.1606403e-06 3.8648127e-06 
-2.2503973e-06 -3.0513988e-07 3.9560969e-06 
0.0000000e+00 2.6579009e-05 0.0000000e+00 
0.0000000e+00 5.6027457e-05 0.0000000e+00 
6.6905100e-06 3.2630469e-05 2.7366204e-05 
2.9814262e-05 5.3580312e-05 7.3449296e-06 
3.0163506e-05 5.4543798e-05 3.5462006e-05 
2.2472515e-05 1.4276942e-04 6.8361255e-06 
0.0000000e+00 3.6958871e-05 0.0000000e+00 
0.0000000e+00 8.6857741e-05 0.0000000e+00 
-6.6343036e-06 5.2493044e-05 5.7867096e-06 
-1.5248797e-05 4.7971262e-05 -6.5166373e-06 
-1.7015373e-05 4.2568372e-05 -1.4897866e-05 
-1.4968919e-05 3.7527923e-05 -2.4531982e-05 
-9.0671692e-06 3.4724253e-05 -3.1455333e-05 
-5.2027303e-06 3.5560872e-05 -3.5456243e-05 
5.2941195e-06 4.1507814e-05 -4.9590988e-05 
1.7564305e-05 5.4066761e-05 -6.0370287e-05 
2.4563498e-05 7.4145377e-05 -5.5892506e-05 
3.0495987e-05 9.9790304e-05 -4.4526761e-05 
3.5413545e-05 1.2916092e-04 -3.6171677e-05 
4.5750341e-05 1.6090895e-04 -2.3669003e-05 
5.8710160e-05 1.9234051e-04 -1.0574024e-05 
6.3202824e-05 2.1605912e-04 7.7878167e-06 
4.9738774e-05 2.1920526e-04 3.6986410e-05 
2.7289610e-05 1.7359968e-04 6.8304420e-05 
-1.6045931e-05 3.7793525e-05 1.0960129e-04 
-2.7568698e-05 -2.2968964e-04 1.4934845e-04 
-5.5261542e-05 -6.9276348e-04 2.0784969e-04 
-1.1433055e-04 -1.3953272e-03 1.6315321e-04 
-2.6860039e-04 -2.3572214e-03 2.4700962e-04 
-2.8212660e-04 -3.3978473e-03 2.2523430e-04 
-1.8094208e-04 -4.2089452e-03 1.6416308e-04 
-1.5660933e-04 -4.2331535e-03 1.6833784e-04 
-2.9138674e-04 -4.0371837e-03 8.4091153e-05 
-3.5947654e-04 -3.9913887e-03 4.9727121e-05 
-2.4773547e-04 -4.2079729e-03 5.2121436e-06 
-9.5790267e-05 -4.2039747e-03 -4.2950509e-05 
-1.2179787e-04 -3.5077375e-03 -1.4385107e-04 
-2.1284260e-04 -2.4863610e-03 -1.7720589e-04 
-2.0355305e-04 -1.5875320e-03 -1.8191405e-04 
-7.9554826e-05 -8.9254201e-04 -1.3263641e-04 
-4.1215382e-05 -4.3627972e-04 -1.7184958e-04 
-2.6664400e-05 -1.6038773e-04 -1.4325690e-04 
-1.7350931e-05 -1.0049771e-05 -1.2384311e-04 
5.6877902e-06 6.0807022e-05 -9.8866061e-05 
1.9629601e-05 8.1079692e-05 -6.5493172e-05 
2.6087790e-05 7.5445976e-05 -3.6559522e-05 
1.8550261e-05 6.0261813e-05 -2.9646597e-05 
1.0525325e-05 4.3035798e-05 -3.3502485e-05 
2.3974928e-06 2.7921189e-05 -3.9078270e-05 
5.9717615e-07 1.2873068e-05 -3.9138147e-05 
-6.6454400e-06 -4.8056950e-06 -2.7087741e-05 
-1.7990138e-05 -2.4010364e-05 -7.9843367e-06 
-1.7816848e-05 -4.2039766e-05 1.0887975e-05 
-1.8084711e-05 -5.3658987e-05 2.0498543e-05 
-1.5568254e-05 -5.3337168e-05 2.1716392e-05 
-1.0086545e-05 -3.7836904e-05 1.6705693e-05 
2.8540092e-06 -4.2581955e-06 -7.1336190e-06 
7.9352267e-06 4.2493568e-05 -3.0880085e-05 
2.5857256e-05 9.7005046e-05 -5.7296555e-05 
4.7458980e-05 1.5132858e-04 -7.3851734e-05 
5.7754347e-05 1.9823619e-04 -6.4733133e-05 
6.6310728e-05 2.2850836e-04 -3.8464877e-05 
5.2984229e-05 2.2882294e-04 -4.9413929e-06 
3.1624088e-05 1.7259638e-04 3.4686640e-05 
-1.1841679e-05 1.6772094e-05 9.2452676e-05 
-2.2510132e-05 -2.8008220e-04 1.4430680e-04 
-4.7378679e-05 -7.8216987e-04 2.0328473e-04 
-1.0873005e-04 -1.5249496e-03 1.5025078e-04 
-2.6106971e-04 -2.5119924e-03 2.3125666e-04 
-2.7547323e-04 -3.5246871e-03 1.9860777e-04 
-1.7421313e-04 -4.1965120e-03 1.3024235e-04 
-1.3352894e-04 -4.1244407e-03 1.3677693e-04 
-2.7127736e-04 -3.9686160e-03 6.1872226e-05 
-3.2959256e-04 -4.0092650e-03 3.8300455e-05 
-2.1511188e-04 -4.2744339e-03 -2.0117336e-06 
-7.7436882e-05 -4.1706506e-03 -2.3049650e-05 
-1.1766037e-04 -3.3533613e-03 -1.4687712e-04 
-2.1780400e-04 -2.2997642e-03 -1.8697145e-04 
-2.1868770e-04 -1.4055519e-03 -1.9853086e-04 
-1.3143034e-04 -7.2938867e-04 -1.7172015e-04 
-5.6607409e-05 -2.9328495e-04 -1.6859174e-04 
-3.4946152e-05 -3.8470502e-05 -1.4005101e-04 
-2.6866901e-05 9.5607567e-05 -1.2534494e-04 
-9.6246492e-07 1.5409790e-04 -1.0546643e-04 
1.3748135e-05 1.6793178e-04 -7.2132985e-05 
2.4958372e-05 1.6014131e-04 -4.0431827e-05 
2.0028705e-05 1.4802745e-04 -1.6235945e-05 
0.0000000e+00 5.4475106e-05 0.0000000e+00 
0.0000000e+00 5.2535073e-05 0.0000000e+00 
0.0000000e+00 4.7999591e-05 0.0000000e+00 
0.0000000e+00 4.2527612e-05 0.0000000e+00 
0.0000000e+00 3.7535632e-05 0.0000000e+00 
0.0000000e+00 3.4717817e-05 0.0000000e+00 
0.0000000e+00 3.5558664e-05 0.0000000e+00 
0.0000000e+00 4.1548614e-05 0.0000000e+00 
0.0000000e+00 5.4220236e-05 0.0000000e+00 
0.0000000e+00 7.4149335e-05 0.0000000e+00 
0.0000000e+00 9.9771351e-05 0.0000000e+00 
0.0000000e+00 1.2923754e-04 0.0000000e+00 
0.0000000e+00 1.6114970e-04 0.0000000e+00 
0.0000000e+00 1.9266676e-04 0.0000000e+00 
0.0000000e+00 2.1695839e-04 0.0000000e+00 
0.0000000e+00 2.1994348e-04 0.0000000e+00 
0.0000000e+00 1.7371557e-04 0.0000000e+00 
0.0000000e+00 3.9010141e-05 0.0000000e+00 
0.0000000e+00 -2.3035363e-04 0.0000000e+00 
0.0000000e+00 -6.9426309e-04 0.0000000e+00 
0.0000000e+00 -1.4049404e-03 0.0000000e+00 
0.0000000e+00 -2.3649598e-03 0.0000000e+00 
0.0000000e+00 -3.4303863e-03 0.0000000e+00 
0.0000000e+00 -4.2333691e-03 0.0000000e+00 
0.0000000e+00 -4.2639230e-03 0.0000000e+00 
0.0000000e+00 -4.0511009e-03 0.0000000e+00 
0.0000000e+00 -4.0213517e-03 0.0000000e+00 
0.0000000e+00 -4.2272368e-03 0.0000000e+00 
0.0000000e+00 -4.2372560e-03 0.0000000e+00 
0.0000000e+00 -3.5252806e-03 0.0000000e+00 
0.0000000e+00 -2.5041429e-03 0.0000000e+00 
0.0000000e+00 -1.5897084e-03 0.0000000e+00 
0.0000000e+00 -8.9653314e-04 0.0000000e+00 
0.0000000e+00 -4.3610169e-04 0.0000000e+00 
0.0000000e+00 -1.5962924e-04 0.0000000e+00 
0.0000000e+00 -9.1005568e-06 0.0000000e+00 
0.0000000e+00 6.1043487e-05 0.0000000e+00 
0.0000000e+00 8.1507089e-05 0.0000000e+00 
0.0000000e+00 7.5931952e-05 0.0000000e+00 
0.0000000e+00 6.0446873e-05 0.0000000e+00 
0.0000000e+00 4.3320688e-05 0.0000000e+00 
0.0000000e+00 2.7937180e-05 0.0000000e+00 
0.0000000e+00 1.2664551e-05 0.0000000e+00 
0.0000000e+00 -4.8766569e-06 0.0000000e+00 
0.0000000e+00 -2.4110108e-05 0.0000000e+00 
0.0000000e+00 -4.2055712e-05 0.0000000e+00 
0.0000000e+00 -5.3556556e-05 0.0000000e+00 
0.0000000e+00 -5.3325195e-05 0.0000000e+00 
0.0000000e+00 -3.7467227e-05 0.0000000e+00 
0.0000000e+00 -4.2273064e-06 0.0000000e+00 
0.0000000e+00 4.2614607e-05 0.0000000e+00 
0.0000000e+00 9.6981661e-05 0.0000000e+00 
0.0000000e+00 1.5141271e-04 0.0000000e+00 
0.0000000e+00 1.9847455e-04 0.0000000e+00 
0.0000000e+00 2.2927912e-04 0.0000000e+00 
0.0000000e+00 2.2972676e-04 0.0000000e+00 
0.0000000e+00 1.7271016e-04 0.0000000e+00 
0.0000000e+00 1.8028673e-05 0.0000000e+00 
0.0000000e+00 -2.8118968e-04 0.0000000e+00 
0.0000000e+00 -7.8413484e-04 0.0000000e+00 
0.0000000e+00 -1.5356914e-03 0.0000000e+00 
0.0000000e+00 -2.5211126e-03 0.0000000e+00 
0.0000000e+00 -3.5597929e-03 0.0000000e+00 
0.0000000e+00 -4.2206119e-03 0.0000000e+00 
0.0000000e+00 -4.1540773e-03 0.0000000e+00 
0.0000000e+00 -3.9821840e-03 0.0000000e+00 
0.0000000e+00 -4.0409626e-03 0.0000000e+00 
0.0000000e+00 -4.2958399e-03 0.0000000e+00 
0.0000000e+00 -4.2045899e-03 0.0000000e+00 
0.0000000e+00 -3.3696729e-03 0.0000000e+00 
0.0000000e+00 -2.3159503e-03 0.0000000e+00 
0.0000000e+00 -1.4072265e-03 0.0000000e+00 
0.0000000e+00 -7.3280284e-04 0.0000000e+00 
0.0000000e+00 -2.9332784e-04 0.0000000e+00 
0.0000000e+00 -3.7406495e-05 0.0000000e+00 
0.0000000e+00 9.6412805e-05 0.0000000e+00 
0.0000000e+00 1.5450195e-04 0.0000000e+00 
0.0000000e+00 1.6824622e-04 0.0000000e+00 
0.0000000e+00 1.6050035e-04 0.0000000e+00 
0.0000000e+00 1.4839857e-04 0.0000000e+00 
0.0000000e+00 1.4301005e-04 0.0000000e+00 
2.4420846e-05 -4.3066440e-05 -6.4294589e-08 
-1.0736033e-04 -6.5595761e-04 -1.4806206e-04 
0.0000000e+00 0.0000000e+00 0.0000000e+00 
0.0000000e+00 0.0000000e+00 0.0000000e+00 
0.0000000e+00 0.0000000e+00 0.0000000e+00 
0.0000000e+00 0.0000000e+00 0.0000000e+00 
0.0000000e+00 0.0000000e+00 0.0000000e+00 
0.0000000e+00 0.0000000e+00 0.0000000e+00 
0.0000000e+00 0.0000000e+00 0.0000000e+00 
0.0000000e+00 0.0000000e+00 0.0000000e+00 
0.0000000e+00 0.0000000e+00 0.0000000e+00 
0.0000000e+00 0.0000000e+00 0.0000000e+00 
0.0000000e+00 0.0000000e+00 0.0000000e+00 
0.0000000e+00 0.0000000e+00 0.0000000e+00 
0.0000000e+00 0.0000000e+00 0.0000000e+00 
0.0000000e+00 0.0000000e+00 0.0000000e+00 
0.0000000e+00 0.0000000e+00 0.0000000e+00 
0.0000000e+00 0.0000000e+00 0.0000000e+00 
0.0000000e+00 0.0000000e+00 0.0000000e+00 
0.0000000e+00 0.0000000e+00 0.0000000e+00 
0.0000000e+00 0.0000000e+00 0.0000000e+00 
0.0000000e+00 0.0000000e+00 0.0000000e+00 
0.0000000e+00 0.0000000e+00 0.0000000e+00 
0.0000000e+00 0.0000000e+00 0.0000000e+00 
0.0000000e+00 0.0000000e+00 0.0000000e+00 
0.0000000e+00 0.0000000e+00 0.0000000e+00 
0.0000000e+00 0.0000000e+00 0.0000000e+00 
0.0000000e+00 0.0000000e+00 0.0000000e+00 
0.0000000e+00 0.0000000e+00 0.0000000e+00 
0.0000000e+00 0.0000000e+00 0.0000000e+00 
0.0000000e+00 0.0000000e+00 0.0000000e+00 
0.0000000e+00 0.0000000e+00 0.0000000e+00 
0.0000000e+00 0.0000000e+00 0.0000000e+00 
0.0000000e+00 0.0000000e+00 0.0000000e+00 
0.0000000e+00 0.0000000e+00 0.0000000e+00 
0.0000000e+00 0.0000000e+00 0.0000000e+00 
0.0000000e+00 0.0000000e+00 0.0000000e+00 
0.0000000e+00 0.0000000e+00 0.0000000e+00 
0.0000000e+00 0.0000000e+00 0.0000000e+00 
0.0000000e+00 0.0000000e+00 0.0000000e+00 
0.0000000e+00 0.0000000e+00 0.0000000e+00 
0.0000000e+00 0.0000000e+00 0.0000000e+00 
0.0000000e+00 0.0000000e+00 0.0000000e+00 
0.0000000e+00 0.0000000e+00 0.0000000e+00 
-3.1573638e-06 3.1610199e-07 3.5631243e-07 
-7.2262969e-06 3.1195611e-07 -4.0040036e-06 
-2.4841922e-06 3.4685235e-07 -9.8324390e-06 
8.2042980e-06 -1.1827505e-06 -9.1517231e-06 
3.0937816e-05 -5.2379601e-06 -1.1094185e-05 
5.1976043e-05 -6.3487983e-06 1.7595145e-09 
4.5770525e-05 -5.4332413e-06 1.2193670e-05 
2.2397382e-05 -4.5104011e-06 7.9102720e-06 
8.0178816e-06 -1.0999306e-06 3.0372832e-06 
1.9978434e-06 2.0579661e-07 2.1590081e-06 
-2.8798443e-06 -3.7777249e-06 4.1616172e-06 
-6.4131514e-06 -1.9829954e-06 9.5976418e-07 
-6.4089695e-06 4.3214636e-06 -1.1436459e-06 
5.5588412e-06 -5.4784601e-07 -8.2618544e-06 
3.2638498e-05 -9.6037329e-06 -1.1042805e-05 
5.4828270e-05 -1.0146054e-05 7.9069838e-07 
5.6419831e-05 -1.1394071e-05 1.3724080e-05 
2.2206499e-05 -6.7594688e-06 1.2868770e-05 
-5.3774897e-06 6.0066122e-06 -3.9745876e-07 
0.0000000e+00 1.4564907e-05 0.0000000e+00 
0.0000000e+00 2.0672816e-05 0.0000000e+00 
0.0000000e+00 5.6293273e-05 0.0000000e+00 
0.0000000e+00 3.6339978e-05 0.0000000e+00 
0.0000000e+00 -2.0173649e-04 0.0000000e+00 
0.0000000e+00 -5.7618279e-04 0.0000000e+00 
0.0000000e+00 -5.4207526e-04 0.0000000e+00 
0.0000000e+00 -1.8397943e-04 0.0000000e+00 
0.0000000e+00 4.6124628e-06 0.0000000e+00 
0.0000000e+00 7.7832046e-06 0.0000000e+00 
0.0000000e+00 -6.9300954e-06 0.0000000e+00 
0.0000000e+00 -1.7013101e-05 0.0000000e+00 
0.0000000e+00 5.4940901e-05 0.0000000e+00 
0.0000000e+00 3.8794900e-05 0.0000000e+00 
0.0000000e+00 -2.1098784e-04 0.0000000e+00 
0.0000000e+00 -5.6178618e-04 0.0000000e+00 
0.0000000e+00 -5.3373305e-04 0.0000000e+00 
0.0000000e+00 -1.6287759e-04 0.0000000e+00 
0.0000000e+00 3.4637356e-05 0.0000000e+00 
-2.1733667e-06 1.8002618e-06 -1.3976161e-07 
-1.7019022e-06 8.8297738e-06 2.5139504e-06 
-2.5698887e-06 -1.9727297e-06 2.5752415e-06 
-7.3950100e-06 1.6081245e-05 -9.1906650e-06 
-2.0976381e-06 -4.7629524e-07 5.9375373e-07 
-6.1562796e-06 7.3345365e-07 -5.3222529e-06 
1.4673918e-06 4.0040484e-07 -1.4269861e-05 
2.2389002e-05 -3.6432757e-06 -1.5044240e-05 
3.2698303e-05 -3.9861798e-06 -7.4363879e-07 
3.1612963e-05 -3.8659819e-06 6.5720546e-06 
1.7641027e-05 -8.2752780e-07 1.3363831e-05 
6.3738885e-06 1.7338348e-08 2.8709701e-07 
8.2509268e-06 -4.4391550e-07 -9.3781671e-07 
2.4880176e-06 -1.3246352e-06 4.0630885e-06 
-3.6322460e-06 -7.1812988e-06 6.4066185e-06 
-7.3621977e-06 -2.5729476e-06 -3.3261738e-06 
-2.3008590e-06 5.4352358e-06 -7.3004171e-06 
2.2464450e-05 -1.7674799e-06 -8.1603321e-06 
3.5332218e-05 -9.1356032e-06 -5.0037818e-07 
3.9548828e-05 -8.6233822e-06 6.9932971e-06 
3.1881016e-05 -8.5758566e-06 1.6128770e-05 
1.0332297e-05 -7.4161966e-07 -1.4056224e-07 
-5.0005324e-06 5.5840146e-06 -2.0118325e-06 
-1.3841113e-06 1.7537988e-05 6.4963642e-06 
0.0000000e+00 2.7858330e-05 0.0000000e+00 
0.0000000e+00 3.4326902e-05 0.0000000e+00 
0.0000000e+00 9.5759162e-05 0.0000000e+00 
0.0000000e+00 8.1684666e-05 0.0000000e+00 
0.0000000e+00 -4.2833490e-04 0.0000000e+00 
0.0000000e+00 -1.2661695e-03 0.0000000e+00 
0.0000000e+00 -1.1900023e-03 0.0000000e+00 
0.0000000e+00 -3.4578895e-04 0.0000000e+00 
0.0000000e+00 2.2804761e-05 0.0000000e+00 
0.0000000e+00 1.2468394e-05 0.0000000e+00 
0.0000000e+00 -9.8220662e-06 0.0000000e+00 
0.0000000e+00 -3.4125995e-05 0.0000000e+00 
0.0000000e+00 1.0474062e-04 0.0000000e+00 
0.0000000e+00 8.3142564e-05 0.0000000e+00 
0.0000000e+00 -4.6072248e-04 0.0000000e+00 
0.0000000e+00 -1.2388886e-03 0.0000000e+00 
0.0000000e+00 -1.1550256e-03 0.0000000e+00 
0.0000000e+00 -2.9649024e-04 0.0000000e+00 
0.0000000e+00 7.7664117e-05 0.0000000e+00 
-2.6000866e-06 3.3652210e-05 -1.6306640e-05 
-1.2474904e-05 2.2838576e-05 -1.0936727e-05 
1.7831111e-05 2.8062748e-05 -8.4615953e-05 
7.0767623e-05 9.2373280e-05 -3.1387972e-05 
5.4068147e-05 1.4620106e-04 1.1148801e-04 
-2.7040893e-04 -4.0567209e-04 3.7634492e-04 
-7.1730261e-04 -1.4132152e-03 1.8358676e-04 
-6.3401053e-04 -1.4762724e-03 -1.1443784e-04 
-1.6174707e-04 -2.9943426e-04 -2.6113071e-04 
1.6213415e-05 3.4027449e-05 -1.2124745e-04 
1.5030178e-05 2.2779457e-05 -2.7166183e-05 
-2.3928449e-05 -2.4524345e-05 1.3752191e-05 
-1.5015649e-05 -3.3251068e-05 -6.0645527e-07 
7.4404154e-05 7.2495466e-05 -1.0098006e-04 
5.7144447e-05 1.5999618e-04 8.5001149e-05 
-2.8472583e-04 -4.4561492e-04 3.6602400e-04 
-6.7500357e-04 -1.3438528e-03 1.3237981e-04 
-6.2041508e-04 -1.4346587e-03 -9.7893011e-05 
-1.4086209e-04 -2.9939340e-04 -2.3975737e-04 
6.3517568e-06 8.9088586e-05 -1.3877393e-04 
0.0000000e+00 4.3944594e-05 0.0000000e+00 
0.0000000e+00 4.0676015e-05 0.0000000e+00 
0.0000000e+00 1.3600620e-04 0.0000000e+00 
0.0000000e+00 1.6667144e-04 0.0000000e+00 
0.0000000e+00 -8.1384799e-04 0.0000000e+00 
0.0000000e+00 -2.4350302e-03 0.0000000e+00 
0.0000000e+00 -2.2312980e-03 0.0000000e+00 
0.0000000e+00 -5.7397847e-04 0.0000000e+00 
0.0000000e+00 6.4765307e-05 0.0000000e+00 
0.0000000e+00 2.1173537e-05 0.0000000e+00 
0.0000000e+00 -1.2873509e-05 0.0000000e+00 
0.0000000e+00 -5.6747031e-05 0.0000000e+00 
0.0000000e+00 1.5314842e-04 0.0000000e+00 
0.0000000e+00 1.5993013e-04 0.0000000e+00 
0.0000000e+00 -8.9892879e-04 0.0000000e+00 
0.0000000e+00 -2.4034767e-03 0.0000000e+00 
0.0000000e+00 -2.1811423e-03 0.0000000e+00 
0.0000000e+00 -4.5841353e-04 0.0000000e+00 
0.0000000e+00 1.4398777e-04 0.0000000e+00 
-7.3527904e-06 1.7736285e-06 -3.0873655e-06 
-4.1171029e-06 6.9551461e-06 -1.6885650e-05 
1.1101390e-05 2.3527407e-05 -6.0352854e-06 
2.5511485e-05 5.1771283e-05 2.1515574e-05 
5.4865519e-05 -4.0415387e-05 1.7047598e-05 
5.1557199e-05 -1.1171782e-04 6.0508701e-06 
3.9694980e-05 -1.2008499e-04 1.0872951e-05 
3.1417123e-05 -6.7209956e-05 -3.9191864e-06 
5.1118604e-06 7.5531138e-06 -2.5604435e-05 
-2.3720115e-07 2.7370322e-06 -1.5517955e-05 
-1.6831613e-05 -6.5164595e-06 -1.0019024e-06 
-1.0003514e-05 -7.4567506e-06 -5.9402805e-06 
9.6068898e-06 1.9779356e-05 -8.6614964e-06 
1.7643140e-05 5.2625361e-05 1.2481500e-05 
5.9863694e-05 -4.3298925e-05 1.3850572e-05 
6.5458131e-05 -1.0127303e-04 8.2636197e-06 
4.9091508e-05 -1.1154159e-04 2.2772403e-05 
-6.7424303e-06 1.4713312e-05 -2.2608396e-05 
-3.0466763e-05 -2.3576466e-04 -1.1256014e-04 
0.0000000e+00 0.0000000e+00 0.0000000e+00 
0.0000000e+00 0.0000000e+00 0.0000000e+00 
0.0000000e+00 0.0000000e+00 0.0000000e+00 
0.0000000e+00 0.0000000e+00 0.0000000e+00 
0.0000000e+00 0.0000000e+00 0.0000000e+00 
0.0000000e+00 0.0000000e+00 0.0000000e+00 
0.0000000e+00 0.0000000e+00 0.0000000e+00 
0.0000000e+00 0.0000000e+00 0.0000000e+00 
0.0000000e+00 0.0000000e+00 0.0000000e+00 
0.0000000e+00 0.0000000e+00 0.0000000e+00 
0.0000000e+00 0.0000000e+00 0.0000000e+00 
0.0000000e+00 0.0000000e+00 0.0000000e+00 
0.0000000e+00 0.0000000e+00 0.0000000e+00 
0.0000000e+00 0.0000000e+00 0.0000000e+00 
0.0000000e+00 0.0000000e+00 0.0000000e+00 
0.0000000e+00 0.0000000e+00 0.0000000e+00 
0.0000000e+00 0.0000000e+00 0.0000000e+00 
0.0000000e+00 0.0000000e+00 0.0000000e+00 
0.0000000e+00 0.0000000e+00 0.0000000e+00 
0.0000000e+00 0.0000000e+00 0.0000000e+00 
0.0000000e+00 0.0000000e+00 0.0000000e+00 
0.0000000e+00 0.0000000e+00 0.0000000e+00 
0.0000000e+00 0.0000000e+00 0.0000000e+00 
0.0000000e+00 0.0000000e+00 0.0000000e+00 
0.0000000e+00 0.0000000e+00 0.0000000e+00 
0.0000000e+00 0.0000000e+00 0.0000000e+00 
0.0000000e+00 0.0000000e+00 0.0000000e+00 
0.0000000e+00 0.0000000e+00 0.0000000e+00 
0.0000000e+00 0.0000000e+00 0.0000000e+00 
0.0000000e+00 0.0000000e+00 0.0000000e+00 
0.0000000e+00 0.0000000e+00 0.0000000e+00 
0.0000000e+00 0.0000000e+00 0.0000000e+00 
0.0000000e+00 0.0000000e+00 0.0000000e+00 
0.0000000e+00 0.0000000e+00 0.0000000e+00 
0.0000000e+00 0.0000000e+00 0.0000000e+00 
0.0000000e+00 0.0000000e+00 0.0000000e+00 
0.0000000e+00 0.0000000e+00 0.0000000e+00 
0.0000000e+00 0.0000000e+00 0.0000000e+00 
0.0000000e+00 0.0000000e+00 0.0000000e+00 
0.0000000e+00 0.0000000e+00 0.0000000e+00 
0.0000000e+00 0.0000000e+00 0.0000000e+00 
0.0000000e+00 0.0000000e+00 0.0000000e+00 
-9.1536350e-07 1.6684991e-08 6.7185562e-07 
2.5541256e-05 -8.0327954e-06 4.1934136e-06 
2.1181099e-06 -2.5677363e-07 -4.9842947e-07 
-2.8235638e-06 -1.3062012e-06 1.1293357e-06 
-3.9795054e-06 9.5988491e-07 5.9245167e-07 
-2.4991455e-06 2.2639324e-06 -1.2432495e-06 
7.3701685e-06 -6.9810853e-06 -6.7173332e-06 
2.7116030e-05 -1.0736559e-05 -2.4633698e-06 
2.8925269e-05 -1.2007223e-05 3.6778952e-06 
2.6655507e-05 -1.0342020e-05 7.5314738e-06 
4.7488743e-06 -1.7544447e-06 5.4831958e-06 
-3.1210475e-06 1.8282001e-06 -2.2509410e-06 
-2.8255088e-06 6.7079276e-07 -2.3623745e-07 
-3.8082262e-06 1.6446887e-07 -3.4355619e-06 
-1.0218509e-06 1.8578478e-06 -3.0959789e-06 
6.9962575e-06 -5.9488443e-06 -6.9820831e-06 
2.5762476e-05 -9.0133572e-06 -2.7690642e-06 
2.2387052e-05 -9.8918308e-06 5.3219169e-06 
7.5762546e-06 -3.2548971e-06 2.9957012e-06 
7.8643905e-07 -7.5159056e-07 2.6989494e-06 
-6.7975157e-06 3.7547898e-06 -2.0102264e-06 
-5.5483151e-06 1.6918000e-05 -1.4008332e-06 
-3.4102418e-06 7.5994599e-06 -3.4561713e-06 
3.1427520e-05 1.8767319e-05 -1.1642994e-05 
8.9926056e-05 -3.1313648e-05 3.3151025e-06 
2.1468592e-05 -4.9883088e-06 1.1094565e-05 
-5.0616982e-06 -4.8625230e-07 -4.4525004e-06 
-3.8228168e-06 1.4494212e-06 1.4527485e-06 
2.9199990e-05 1.8034805e-05 -1.4508556e-05 
9.7158583e-05 -2.6280930e-05 7.0335650e-06 
9.7210286e-06 4.1751162e-05 5.9432966e-07 
1.1472782e-04 -2.3437210e-04 -3.3572655e-05 
9.3588103e-05 -2.2109489e-04 4.5539578e-05 
5.1531533e-06 5.1048114e-06 -8.5154561e-06 
-7.8540043e-06 -9.8823348e-06 2.1988553e-06 
6.8029703e-06 4.1068921e-05 -5.5769397e-06 
1.2342293e-04 -2.3552658e-04 -3.6306370e-05 
1.1886531e-04 -2.3356576e-04 6.0984807e-05 
1.0914625e-05 -2.2510936e-05 3.0579020e-05 
-8.4492631e-06 3.4381836e-07 -4.9085397e-06 
4.5225411e-06 6.1915603e-07 1.4686512e-06 
-8.5955444e-06 7.6211513e-06 -6.7306996e-06 
4.0550185e-06 1.6266464e-05 -6.9626907e-07 
5.2126026e-05 -1.8296631e-05 -5.5176611e-06 
4.2668664e-05 -2.8415765e-05 1.0403204e-05 
4.0799546e-06 1.7493608e-06 -4.9289679e-06 
-8.4400790e-06 -3.4228158e-06 -1.6044046e-08 
1.8767849e-06 1.4675704e-05 1.3625540e-06 