# vtk DataFile Version 4.0
vtk output
ASCII
DATASET UNSTRUCTURED_GRID
POINTS 661 float
0.0000000e+00 0.0000000e+00 0.0000000e+00 
0.0000000e+00 0.0000000e+00 4.0000000e+01 
5.0000000e+00 0.0000000e+00 0.0000000e+00 
5.0000000e+00 0.0000000e+00 4.0000000e+01 
5.0000000e+00 1.0000000e+00 0.0000000e+00 
5.0000000e+00 1.0000000e+00 4.0000000e+01 
0.0000000e+00 1.0000000e+00 0.0000000e+00 
0.0000000e+00 1.0000000e+00 4.0000000e+01 
5.0000000e+00 2.0000000e+00 0.0000000e+00 
5.0000000e+00 2.0000000e+00 4.0000000e+01 
3.0000000e+00 2.0000000e+00 0.0000000e+00 
3.0000000e+00 2.0000000e+00 4.0000000e+01 
0.0000000e+00 2.0000000e+00 0.0000000e+00 
0.0000000e+00 2.0000000e+00 4.0000000e+01 
1.5000000e+00 3.0000000e+00 0.0000000e+00 
1.5000000e+00 3.0000000e+00 4.0000000e+01 
7.5000000e-01 3.0000000e+00 0.0000000e+00 
7.5000000e-01 3.0000000e+00 4.0000000e+01 
0.0000000e+00 3.0000000e+00 0.0000000e+00 
0.0000000e+00 3.0000000e+00 4.0000000e+01 
7.5000000e-01 3.0000000e+00 5.0000000e-01 
7.5000000e-01 3.0000000e+00 1.0000000e+00 
7.5000000e-01 3.0000000e+00 1.5000000e+00 
7.5000000e-01 3.0000000e+00 2.0000000e+00 
7.5000000e-01 3.0000000e+00 2.5000000e+00 
7.5000000e-01 3.0000000e+00 3.0000000e+00 
7.5000000e-01 3.0000000e+00 3.5000000e+00 
7.5000000e-01 3.0000000e+00 4.0000000e+00 
7.5000000e-01 3.0000000e+00 4.5000000e+00 
7.5000000e-01 3.0000000e+00 5.0000000e+00 
7.5000000e-01 3.0000000e+00 5.5000000e+00 
7.5000000e-01 3.0000000e+00 6.0000000e+00 
7.5000000e-01 3.0000000e+00 6.5000000e+00 
7.5000000e-01 3.0000000e+00 7.0000000e+00 
7.5000000e-01 3.0000000e+00 7.5000000e+00 
7.5000000e-01 3.0000000e+00 8.0000000e+00 
7.5000000e-01 3.0000000e+00 8.5000000e+00 
7.5000000e-01 3.0000000e+00 9.0000000e+00 
7.5000000e-01 3.0000000e+00 9.5000000e+00 
7.5000000e-01 3.0000000e+00 1.0000000e+01 
7.5000000e-01 3.0000000e+00 1.0500000e+01 
7.5000000e-01 3.0000000e+00 1.1000000e+01 
7.5000000e-01 3.0000000e+00 1.1500000e+01 
7.5000000e-01 3.0000000e+00 1.2000000e+01 
7.5000000e-01 3.0000000e+00 1.2500000e+01 
7.5000000e-01 3.0000000e+00 1.3000000e+01 
7.5000000e-01 3.0000000e+00 1.3500000e+01 
7.5000000e-01 3.0000000e+00 1.4000000e+01 
7.5000000e-01 3.0000000e+00 1.4500000e+01 
7.5000000e-01 3.0000000e+00 1.5000000e+01 
7.5000000e-01 3.0000000e+00 1.5500000e+01 
7.5000000e-01 3.0000000e+00 1.6000000e+01 
7.5000000e-01 3.0000000e+00 1.6500000e+01 
7.5000000e-01 3.0000000e+00 1.7000000e+01 
7.5000000e-01 3.0000000e+00 1.7500000e+01 
7.5000000e-01 3.0000000e+00 1.8000000e+01 
7.5000000e-01 3.0000000e+00 1.8500000e+01 
7.5000000e-01 3.0000000e+00 1.9000000e+01 
7.5000000e-01 3.0000000e+00 1.9500000e+01 
7.5000000e-01 3.0000000e+00 2.0000000e+01 
7.5000000e-01 3.0000000e+00 2.0500000e+01 
7.5000000e-01 3.0000000e+00 2.1000000e+01 
7.5000000e-01 3.0000000e+00 2.1500000e+01 
7.5000000e-01 3.0000000e+00 2.2000000e+01 
7.5000000e-01 3.0000000e+00 2.2500000e+01 
7.5000000e-01 3.0000000e+00 2.3000000e+01 
7.5000000e-01 3.0000000e+00 2.3500000e+01 
7.5000000e-01 3.0000000e+00 2.4000000e+01 
7.5000000e-01 3.0000000e+00 2.4500000e+01 
7.5000000e-01 3.0000000e+00 2.5000000e+01 
7.5000000e-01 3.0000000e+00 2.5500000e+01 
7.5000000e-01 3.0000000e+00 2.6000000e+01 
7.5000000e-01 3.0000000e+00 2.6500000e+01 
7.5000000e-01 3.0000000e+00 2.7000000e+01 
7.5000000e-01 3.0000000e+00 2.7500000e+01 
7.5000000e-01 3.0000000e+00 2.8000000e+01 
7.5000000e-01 3.0000000e+00 2.8500000e+01 
7.5000000e-01 3.0000000e+00 2.9000000e+01 
7.5000000e-01 3.0000000e+00 2.9500000e+01 
7.5000000e-01 3.0000000e+00 3.0000000e+01 
7.5000000e-01 3.0000000e+00 3.0500000e+01 
7.5000000e-01 3.0000000e+00 3.1000000e+01 
7.5000000e-01 3.0000000e+00 3.1500000e+01 
7.5000000e-01 3.0000000e+00 3.2000000e+01 
7.5000000e-01 3.0000000e+00 3.2500000e+01 
7.5000000e-01 3.0000000e+00 3.3000000e+01 
7.5000000e-01 3.0000000e+00 3.3500000e+01 
7.5000000e-01 3.0000000e+00 3.4000000e+01 
7.5000000e-01 3.0000000e+00 3.4500000e+01 
7.5000000e-01 3.0000000e+00 3.5000000e+01 
7.5000000e-01 3.0000000e+00 3.5500000e+01 
7.5000000e-01 3.0000000e+00 3.6000000e+01 
7.5000000e-01 3.0000000e+00 3.6500000e+01 
7.5000000e-01 3.0000000e+00 3.7000000e+01 
7.5000000e-01 3.0000000e+00 3.7500000e+01 
7.5000000e-01 3.0000000e+00 3.8000000e+01 
7.5000000e-01 3.0000000e+00 3.8500000e+01 
7.5000000e-01 3.0000000e+00 3.9000000e+01 
7.5000000e-01 3.0000000e+00 3.9500000e+01 
7.5000000e-01 3.0000000e+00 4.0500000e+01 
7.5000000e-01 3.0000000e+00 4.1000000e+01 
7.5000000e-01 3.0000000e+00 4.1500000e+01 
7.5000000e-01 3.0000000e+00 4.2000000e+01 
7.5000000e-01 3.0000000e+00 4.2500000e+01 
7.5000000e-01 3.0000000e+00 4.3000000e+01 
7.5000000e-01 3.0000000e+00 4.3500000e+01 
7.5000000e-01 3.0000000e+00 4.4000000e+01 
7.5000000e-01 3.0000000e+00 4.4500000e+01 
7.5000000e-01 3.0000000e+00 4.5000000e+01 
7.5000000e-01 3.0000000e+00 4.5500000e+01 
7.5000000e-01 3.0000000e+00 4.6000000e+01 
7.5000000e-01 3.0000000e+00 4.6500000e+01 
7.5000000e-01 3.0000000e+00 4.7000000e+01 
7.5000000e-01 3.0000000e+00 4.7500000e+01 
7.5000000e-01 3.0000000e+00 4.8000000e+01 
7.5000000e-01 3.0000000e+00 4.8500000e+01 
7.5000000e-01 3.0000000e+00 4.9000000e+01 
7.5000000e-01 3.0000000e+00 4.9500000e+01 
7.5000000e-01 3.0000000e+00 5.0000000e+01 
7.5000000e-01 3.0250001e+00 0.0000000e+00 
7.5000000e-01 3.0250001e+00 5.0000000e-01 
7.5000000e-01 3.0250001e+00 1.0000000e+00 
7.5000000e-01 3.0250001e+00 1.5000000e+00 
7.5000000e-01 3.0250001e+00 2.0000000e+00 
7.5000000e-01 3.0250001e+00 2.5000000e+00 
7.5000000e-01 3.0250001e+00 3.0000000e+00 
7.5000000e-01 3.0250001e+00 3.5000000e+00 
7.5000000e-01 3.0250001e+00 4.0000000e+00 
7.5000000e-01 3.0250001e+00 4.5000000e+00 
7.5000000e-01 3.0250001e+00 5.0000000e+00 
7.5000000e-01 3.0250001e+00 5.5000000e+00 
7.5000000e-01 3.0250001e+00 6.0000000e+00 
7.5000000e-01 3.0250001e+00 6.5000000e+00 
7.5000000e-01 3.0250001e+00 7.0000000e+00 
7.5000000e-01 3.0250001e+00 7.5000000e+00 
7.5000000e-01 3.0250001e+00 8.0000000e+00 
7.5000000e-01 3.0250001e+00 8.5000000e+00 
7.5000000e-01 3.0250001e+00 9.0000000e+00 
7.5000000e-01 3.0250001e+00 9.5000000e+00 
7.5000000e-01 3.0250001e+00 1.0000000e+01 
7.5000000e-01 3.0250001e+00 1.0500000e+01 
7.5000000e-01 3.0250001e+00 1.1000000e+01 
7.5000000e-01 3.0250001e+00 1.1500000e+01 
7.5000000e-01 3.0250001e+00 1.2000000e+01 
7.5000000e-01 3.0250001e+00 1.2500000e+01 
7.5000000e-01 3.0250001e+00 1.3000000e+01 
7.5000000e-01 3.0250001e+00 1.3500000e+01 
7.5000000e-01 3.0250001e+00 1.4000000e+01 
7.5000000e-01 3.0250001e+00 1.4500000e+01 
7.5000000e-01 3.0250001e+00 1.5000000e+01 
7.5000000e-01 3.0250001e+00 1.5500000e+01 
7.5000000e-01 3.0250001e+00 1.6000000e+01 
7.5000000e-01 3.0250001e+00 1.6500000e+01 
7.5000000e-01 3.0250001e+00 1.7000000e+01 
7.5000000e-01 3.0250001e+00 1.7500000e+01 
7.5000000e-01 3.0250001e+00 1.8000000e+01 
7.5000000e-01 3.0250001e+00 1.8500000e+01 
7.5000000e-01 3.0250001e+00 1.9000000e+01 
7.5000000e-01 3.0250001e+00 1.9500000e+01 
7.5000000e-01 3.0250001e+00 2.0000000e+01 
7.5000000e-01 3.0250001e+00 2.0500000e+01 
7.5000000e-01 3.0250001e+00 2.1000000e+01 
7.5000000e-01 3.0250001e+00 2.1500000e+01 
7.5000000e-01 3.0250001e+00 2.2000000e+01 
7.5000000e-01 3.0250001e+00 2.2500000e+01 
7.5000000e-01 3.0250001e+00 2.3000000e+01 
7.5000000e-01 3.0250001e+00 2.3500000e+01 
7.5000000e-01 3.0250001e+00 2.4000000e+01 
7.5000000e-01 3.0250001e+00 2.4500000e+01 
7.5000000e-01 3.0250001e+00 2.5000000e+01 
7.5000000e-01 3.0250001e+00 2.5500000e+01 
7.5000000e-01 3.0250001e+00 2.6000000e+01 
7.5000000e-01 3.0250001e+00 2.6500000e+01 
7.5000000e-01 3.0250001e+00 2.7000000e+01 
7.5000000e-01 3.0250001e+00 2.7500000e+01 
7.5000000e-01 3.0250001e+00 2.8000000e+01 
7.5000000e-01 3.0250001e+00 2.8500000e+01 
7.5000000e-01 3.0250001e+00 2.9000000e+01 
7.5000000e-01 3.0250001e+00 2.9500000e+01 
7.5000000e-01 3.0250001e+00 3.0000000e+01 
7.5000000e-01 3.0250001e+00 3.0500000e+01 
7.5000000e-01 3.0250001e+00 3.1000000e+01 
7.5000000e-01 3.0250001e+00 3.1500000e+01 
7.5000000e-01 3.0250001e+00 3.2000000e+01 
7.5000000e-01 3.0250001e+00 3.2500000e+01 
7.5000000e-01 3.0250001e+00 3.3000000e+01 
7.5000000e-01 3.0250001e+00 3.3500000e+01 
7.5000000e-01 3.0250001e+00 3.4000000e+01 
7.5000000e-01 3.0250001e+00 3.4500000e+01 
7.5000000e-01 3.0250001e+00 3.5000000e+01 
7.5000000e-01 3.0250001e+00 3.5500000e+01 
7.5000000e-01 3.0250001e+00 3.6000000e+01 
7.5000000e-01 3.0250001e+00 3.6500000e+01 
7.5000000e-01 3.0250001e+00 3.7000000e+01 
7.5000000e-01 3.0250001e+00 3.7500000e+01 
7.5000000e-01 3.0250001e+00 3.8000000e+01 
7.5000000e-01 3.0250001e+00 3.8500000e+01 
7.5000000e-01 3.0250001e+00 3.9000000e+01 
7.5000000e-01 3.0250001e+00 3.9500000e+01 
7.5000000e-01 3.0250001e+00 4.0000000e+01 
7.5000000e-01 3.0250001e+00 4.0500000e+01 
7.5000000e-01 3.0250001e+00 4.1000000e+01 
7.5000000e-01 3.0250001e+00 4.1500000e+01 
7.5000000e-01 3.0250001e+00 4.2000000e+01 
7.5000000e-01 3.0250001e+00 4.2500000e+01 
7.5000000e-01 3.0250001e+00 4.3000000e+01 
7.5000000e-01 3.0250001e+00 4.3500000e+01 
7.5000000e-01 3.0250001e+00 4.4000000e+01 
7.5000000e-01 3.0250001e+00 4.4500000e+01 
7.5000000e-01 3.0250001e+00 4.5000000e+01 
7.5000000e-01 3.0250001e+00 4.5500000e+01 
7.5000000e-01 3.0250001e+00 4.6000000e+01 
7.5000000e-01 3.0250001e+00 4.6500000e+01 
7.5000000e-01 3.0250001e+00 4.7000000e+01 
7.5000000e-01 3.0250001e+00 4.7500000e+01 
7.5000000e-01 3.0250001e+00 4.8000000e+01 
7.5000000e-01 3.0250001e+00 4.8500000e+01 
7.5000000e-01 3.0250001e+00 4.9000000e+01 
7.5000000e-01 3.0250001e+00 4.9500000e+01 
7.5000000e-01 3.0250001e+00 5.0000000e+01 
3.0000000e+00 2.0000000e+00 3.6000000e+01 
8.0487806e-01 3.0000000e+00 3.6000000e+01 
0.0000000e+00 0.0000000e+00 2.0000000e+00 
0.0000000e+00 0.0000000e+00 4.0000000e+00 
0.0000000e+00 0.0000000e+00 6.0000000e+00 
0.0000000e+00 0.0000000e+00 8.0000000e+00 
0.0000000e+00 0.0000000e+00 1.0000000e+01 
0.0000000e+00 0.0000000e+00 1.2000000e+01 
0.0000000e+00 0.0000000e+00 1.4000000e+01 
0.0000000e+00 0.0000000e+00 1.6000000e+01 
[...]
POINT_DATA 661
FIELD FieldData 3
DISPLACEMENT 3 661  float
0.0000000e+00 0.0000000e+00 0.0000000e+00 
0.0000000e+00 0.0000000e+00 0.0000000e+00 
0.0000000e+00 0.0000000e+00 0.0000000e+00 
0.0000000e+00 0.0000000e+00 0.0000000e+00 
4.5630027e-06 -5.9821314e-06 -2.1631142e-06 
3.7209583e-07 8.7547289e-07 1.2843324e-06 
0.0000000e+00 1.3910197e-06 0.0000000e+00 
0.0000000e+00 -1.1342711e-05 0.0000000e+00 
1.1002246e-07 -6.4245123e-06 -5.1914008e-06 
-2.7446395e-06 2.3284454e-06 -1.3545242e-06 
-3.0406742e-08 -2.3009003e-05 -2.6883145e-05 
-1.4142186e-06 -3.6107690e-06 -5.1849629e-06 
0.0000000e+00 3.8601224e-06 0.0000000e+00 
0.0000000e+00 -2.0253268e-05 0.0000000e+00 
3.9442003e-07 -1.4487946e-05 -9.9463061e-05 
-9.9463177e-06 -1.6329399e-05 -3.2701268e-05 
-7.3555775e-06 5.1283107e-05 -5.1189068e-05 
1.8579100e-06 -3.3255561e-05 -3.8283830e-05 
0.0000000e+00 3.6991053e-06 0.0000000e+00 
0.0000000e+00 -2.8039705e-05 0.0000000e+00 
2.4425612e-05 5.8677764e-05 -7.1834947e-05 
3.8083395e-05 7.8198784e-05 -5.6952333e-05 
4.5146673e-05 1.0381762e-04 -4.8848146e-05 
4.9756909e-05 1.3376688e-04 -3.2220887e-05 
5.3200554e-05 1.6582535e-04 -5.9274084e-06 
4.9081867e-05 1.9425833e-04 1.1417351e-05 
3.5621793e-05 2.0687151e-04 3.5198751e-05 
2.4778175e-05 1.7330103e-04 5.8727768e-05 
-7.2503053e-06 5.0318515e-05 9.8705197e-05 
-1.8097984e-05 -2.0394489e-04 1.3807576e-04 
-5.4794698e-05 -6.5175770e-04 1.9009075e-04 
-1.1491073e-04 -1.3347612e-03 1.3378417e-04 
-2.5766483e-04 -2.2697444e-03 2.0969243e-04 
-2.6199018e-04 -3.2828334e-03 1.8705658e-04 
-1.4788253e-04 -4.0768902e-03 1.1155607e-04 
-1.1563619e-04 -4.1142190e-03 1.0125955e-04 
-2.6055428e-04 -3.9515765e-03 2.4607520e-05 
-3.3383814e-04 -3.9459751e-03 -5.9705399e-06 
-2.1490920e-04 -4.1989661e-03 -5.7523899e-05 
-5.1788084e-05 -4.2052236e-03 -1.1108435e-04 
-7.7878518e-05 -3.4749471e-03 -1.8922787e-04 
-1.7249389e-04 -2.4022094e-03 -1.9450774e-04 
-1.8083923e-04 -1.4674568e-03 -1.6484280e-04 
-6.7237292e-05 -7.6028670e-04 -8.3951076e-05 
-3.1087493e-05 -3.1977141e-04 -1.0832491e-04 
-1.7381099e-05 -7.9463643e-05 -6.7578578e-05 
-2.1830441e-05 2.3940713e-05 -4.0226983e-05 
-1.8328128e-05 4.4431668e-05 -2.0528078e-05 
-1.3939356e-05 1.9414849e-05 -7.1607315e-06 
-8.3079522e-06 -2.3023218e-05 -3.0093693e-06 
-6.4733172e-06 -6.3523745e-05 -7.8775483e-06 
-1.3414478e-05 -9.4928786e-05 -1.1643388e-05 
-1.5685526e-05 -1.1314980e-04 4.3887553e-06 
-1.7666902e-05 -1.2118119e-04 2.1410136e-05 
-3.4007473e-05 -1.2333662e-04 5.2170672e-05 
-5.0803697e-05 -1.2137322e-04 7.6870594e-05 
-4.9877170e-05 -1.1573372e-04 5.7133228e-05 
-5.2573385e-05 -1.0678481e-04 2.6445752e-05 
-3.7891274e-05 -9.3499701e-05 -1.5735370e-05 
-1.5220236e-05 -7.4308431e-05 -6.0014489e-05 
3.0798276e-06 -4.5713718e-05 -7.3745759e-05 
1.7100801e-05 -9.4210200e-06 -7.4835451e-05 
3.1777879e-05 3.3908127e-05 -7.8131365e-05 
4.1398216e-05 8.0861144e-05 -6.7311448e-05 
5.0488576e-05 1.2659724e-04 -4.5377677e-05 
5.3498981e-05 1.6354045e-04 -1.9175470e-05 
4.2136504e-05 1.7844433e-04 8.9243695e-06 
2.9801680e-05 1.4230069e-04 3.5645553e-05 
-1.2789553e-05 1.0917342e-05 6.7054025e-05 
-2.1551388e-05 -2.5951280e-04 9.7755787e-05 
-3.7058482e-05 -7.3390675e-04 1.3415742e-04 
-8.3921048e-05 -1.4481951e-03 6.6628680e-05 
-2.2682060e-04 -2.4059964e-03 1.6471642e-04 
-2.3011872e-04 -3.3903592e-03 1.6330759e-04 
-1.3129834e-04 -4.0395916e-03 1.3116153e-04 
-9.8544682e-05 -3.9562327e-03 1.7878071e-04 
-2.4378519e-04 -3.7996988e-03 1.2398355e-04 
-3.1100991e-04 -3.8477434e-03 1.0772736e-04 
-2.0517776e-04 -4.1302149e-03 7.1717477e-05 
-7.0951719e-05 -4.0576523e-03 4.2542728e-05 
-1.1698943e-04 -3.2853005e-03 -9.4977229e-05 
-2.2116603e-04 -2.2805217e-03 -1.5289296e-04 
-2.1558082e-04 -1.4291492e-03 -1.7867591e-04 
-1.0032197e-04 -7.8623806e-04 -1.5618688e-04 
-5.6124765e-05 -3.7089511e-04 -2.0078661e-04 
-3.3133754e-05 -1.2386439e-04 -1.7575410e-04 
-2.0950625e-05 1.0484458e-05 -1.6504223e-04 
5.9560188e-07 7.6362296e-05 -1.4417509e-04 
2.2997221e-05 1.0109385e-04 -9.7019445e-05 
4.0858860e-05 1.0440519e-04 -4.8417729e-05 
3.4406356e-05 9.6468473e-05 -1.1402689e-05 
2.5063729e-05 8.1178165e-05 2.5317040e-05 
1.9837044e-05 6.0093189e-05 4.7565085e-05 
1.4009859e-05 3.6167294e-05 5.9245136e-05 
3.1603556e-06 1.2144389e-05 7.0308233e-05 
-7.0723568e-06 -8.3514942e-06 6.5429580e-05 
-1.0615938e-05 -2.3179789e-05 4.7737201e-05 
-1.4428297e-05 -3.1961947e-05 2.3358492e-05 
-1.0695058e-05 -3.5188139e-05 -1.3661834e-06 
0.0000000e+00 -2.7099701e-05 0.0000000e+00 
0.0000000e+00 -1.6413918e-05 0.0000000e+00 
0.0000000e+00 -2.4583758e-06 0.0000000e+00 
0.0000000e+00 1.2386141e-05 0.0000000e+00 
0.0000000e+00 2.5130455e-05 0.0000000e+00 
0.0000000e+00 3.3051980e-05 0.0000000e+00 
0.0000000e+00 3.4451401e-05 0.0000000e+00 
0.0000000e+00 2.9039638e-05 0.0000000e+00 
0.0000000e+00 1.7896185e-05 0.0000000e+00 
0.0000000e+00 3.1205029e-06 0.0000000e+00 
0.0000000e+00 -1.2615166e-05 0.0000000e+00 
0.0000000e+00 -2.6450742e-05 0.0000000e+00 
0.0000000e+00 -3.5652502e-05 0.0000000e+00 
0.0000000e+00 -3.7986025e-05 0.0000000e+00 
0.0000000e+00 -3.2260497e-05 0.0000000e+00 
0.0000000e+00 -1.8956653e-05 0.0000000e+00 
0.0000000e+00 -6.1254116e-07 0.0000000e+00 
0.0000000e+00 1.8413197e-05 0.0000000e+00 
0.0000000e+00 3.2944266e-05 0.0000000e+00 
0.0000000e+00 3.8479870e-05 0.0000000e+00 
0.0000000e+00 5.1494768e-05 0.0000000e+00 
0.0000000e+00 5.8846148e-05 0.0000000e+00 
0.0000000e+00 7.7988858e-05 0.0000000e+00 
0.0000000e+00 1.0381814e-04 0.0000000e+00 
0.0000000e+00 1.3392491e-04 0.0000000e+00 
0.0000000e+00 1.6617923e-04 0.0000000e+00 
0.0000000e+00 1.9528174e-04 0.0000000e+00 
0.0000000e+00 2.0757972e-04 0.0000000e+00 
0.0000000e+00 1.7336180e-04 0.0000000e+00 
0.0000000e+00 5.1461273e-05 0.0000000e+00 
0.0000000e+00 -2.0464585e-04 0.0000000e+00 
0.0000000e+00 -6.5329921e-04 0.0000000e+00 
0.0000000e+00 -1.3439343e-03 0.0000000e+00 
0.0000000e+00 -2.2772243e-03 0.0000000e+00 
0.0000000e+00 -3.3144047e-03 0.0000000e+00 
0.0000000e+00 -4.1007125e-03 0.0000000e+00 
0.0000000e+00 -4.1445503e-03 0.0000000e+00 
0.0000000e+00 -3.9653601e-03 0.0000000e+00 
0.0000000e+00 -3.9765793e-03 0.0000000e+00 
0.0000000e+00 -4.2189574e-03 0.0000000e+00 
0.0000000e+00 -4.2397813e-03 0.0000000e+00 
0.0000000e+00 -3.4932210e-03 0.0000000e+00 
0.0000000e+00 -2.4211770e-03 0.0000000e+00 
0.0000000e+00 -1.4698001e-03 0.0000000e+00 
0.0000000e+00 -7.6477672e-04 0.0000000e+00 
0.0000000e+00 -3.1955747e-04 0.0000000e+00 
0.0000000e+00 -7.8612909e-05 0.0000000e+00 
0.0000000e+00 2.4893978e-05 0.0000000e+00 
0.0000000e+00 4.4917779e-05 0.0000000e+00 
0.0000000e+00 1.9850453e-05 0.0000000e+00 
0.0000000e+00 -2.2432285e-05 0.0000000e+00 
0.0000000e+00 -6.3367690e-05 0.0000000e+00 
0.0000000e+00 -9.4585725e-05 0.0000000e+00 
0.0000000e+00 -1.1309644e-04 0.0000000e+00 
0.0000000e+00 -1.2135557e-04 0.0000000e+00 
0.0000000e+00 -1.2344832e-04 0.0000000e+00 
0.0000000e+00 -1.2141310e-04 0.0000000e+00 
0.0000000e+00 -1.1582733e-04 0.0000000e+00 
0.0000000e+00 -1.0682025e-04 0.0000000e+00 
0.0000000e+00 -9.3575996e-05 0.0000000e+00 
0.0000000e+00 -7.4023628e-05 0.0000000e+00 
0.0000000e+00 -4.5751432e-05 0.0000000e+00 
0.0000000e+00 -9.2976434e-06 0.0000000e+00 
0.0000000e+00 3.3969496e-05 0.0000000e+00 
0.0000000e+00 8.0939892e-05 0.0000000e+00 
0.0000000e+00 1.2690465e-04 0.0000000e+00 
0.0000000e+00 1.6443591e-04 0.0000000e+00 
0.0000000e+00 1.7926565e-04 0.0000000e+00 
0.0000000e+00 1.4245405e-04 0.0000000e+00 
0.0000000e+00 1.2091447e-05 0.0000000e+00 
0.0000000e+00 -2.6063743e-04 0.0000000e+00 
0.0000000e+00 -7.3587935e-04 0.0000000e+00 
0.0000000e+00 -1.4588706e-03 0.0000000e+00 
0.0000000e+00 -2.4149541e-03 0.0000000e+00 
0.0000000e+00 -3.4251146e-03 0.0000000e+00 
0.0000000e+00 -4.0633171e-03 0.0000000e+00 
0.0000000e+00 -3.9858734e-03 0.0000000e+00 
0.0000000e+00 -3.8130719e-03 0.0000000e+00 
0.0000000e+00 -3.8792952e-03 0.0000000e+00 
0.0000000e+00 -4.1513797e-03 0.0000000e+00 
0.0000000e+00 -4.0910919e-03 0.0000000e+00 
0.0000000e+00 -3.3014512e-03 0.0000000e+00 
0.0000000e+00 -2.2963723e-03 0.0000000e+00 
0.0000000e+00 -1.4307725e-03 0.0000000e+00 
0.0000000e+00 -7.8953349e-04 0.0000000e+00 
0.0000000e+00 -3.7068842e-04 0.0000000e+00 
0.0000000e+00 -1.2299047e-04 0.0000000e+00 
0.0000000e+00 1.1429932e-05 0.0000000e+00 
0.0000000e+00 7.6773576e-05 0.0000000e+00 
0.0000000e+00 1.0158369e-04 0.0000000e+00 
0.0000000e+00 1.0473836e-04 0.0000000e+00 
0.0000000e+00 9.6573211e-05 0.0000000e+00 
0.0000000e+00 8.1092745e-05 0.0000000e+00 
0.0000000e+00 6.0097089e-05 0.0000000e+00 
0.0000000e+00 3.6146401e-05 0.0000000e+00 
0.0000000e+00 1.2243715e-05 0.0000000e+00 
0.0000000e+00 -8.2543302e-06 0.0000000e+00 
0.0000000e+00 -2.3150478e-05 0.0000000e+00 
0.0000000e+00 -3.1980609e-05 0.0000000e+00 
0.0000000e+00 -3.5187353e-05 0.0000000e+00 
0.0000000e+00 -3.3343109e-05 0.0000000e+00 
0.0000000e+00 -2.7033977e-05 0.0000000e+00 
0.0000000e+00 -1.6353189e-05 0.0000000e+00 
0.0000000e+00 -2.4261965e-06 0.0000000e+00 
0.0000000e+00 1.2376152e-05 0.0000000e+00 
0.0000000e+00 2.5082081e-05 0.0000000e+00 
0.0000000e+00 3.2984011e-05 0.0000000e+00 
0.0000000e+00 3.4387776e-05 0.0000000e+00 
0.0000000e+00 2.8997498e-05 0.0000000e+00 
0.0000000e+00 1.7878769e-05 0.0000000e+00 
0.0000000e+00 3.1197874e-06 0.0000000e+00 
0.0000000e+00 -1.2607609e-05 0.0000000e+00 
0.0000000e+00 -2.6433527e-05 0.0000000e+00 
0.0000000e+00 -3.5614510e-05 0.0000000e+00 
0.0000000e+00 -3.7918271e-05 0.0000000e+00 
0.0000000e+00 -3.2170552e-05 0.0000000e+00 
0.0000000e+00 -1.8872772e-05 0.0000000e+00 
0.0000000e+00 -5.7201538e-07 0.0000000e+00 
0.0000000e+00 1.8385299e-05 0.0000000e+00 
0.0000000e+00 3.2852557e-05 0.0000000e+00 
0.0000000e+00 3.8361468e-05 0.0000000e+00 
3.4025959e-06 2.6402649e-05 2.4830981e-06 
2.6026510e-05 8.2510523e-05 2.5319592e-05 
0.0000000e+00 0.0000000e+00 0.0000000e+00 
0.0000000e+00 0.0000000e+00 0.0000000e+00 
0.0000000e+00 0.0000000e+00 0.0000000e+00 
0.0000000e+00 0.0000000e+00 0.0000000e+00 
0.0000000e+00 0.0000000e+00 0.0000000e+00 
0.0000000e+00 0.0000000e+00 0.0000000e+00 
0.0000000e+00 0.0000000e+00 0.0000000e+00 
0.0000000e+00 0.0000000e+00 0.0000000e+00 
0.0000000e+00 0.0000000e+00 0.0000000e+00 
0.0000000e+00 0.0000000e+00 0.0000000e+00 
0.0000000e+00 0.0000000e+00 0.0000000e+00 
0.0000000e+00 0.0000000e+00 0.0000000e+00 
0.0000000e+00 0.0000000e+00 0.0000000e+00 
0.0000000e+00 0.0000000e+00 0.0000000e+00 
0.0000000e+00 0.0000000e+00 0.0000000e+00 
0.0000000e+00 0.0000000e+00 0.0000000e+00 
0.0000000e+00 0.0000000e+00 0.0000000e+00 
0.0000000e+00 0.0000000e+00 0.0000000e+00 
0.0000000e+00 0.0000000e+00 0.0000000e+00 
0.0000000e+00 0.0000000e+00 0.0000000e+00 
0.0000000e+00 0.0000000e+00 0.0000000e+00 
0.0000000e+00 0.0000000e+00 0.0000000e+00 
0.0000000e+00 0.0000000e+00 0.0000000e+00 
0.0000000e+00 0.0000000e+00 0.0000000e+00 
0.0000000e+00 0.0000000e+00 0.0000000e+00 
0.0000000e+00 0.0000000e+00 0.0000000e+00 
0.0000000e+00 0.0000000e+00 0.0000000e+00 
0.0000000e+00 0.0000000e+00 0.0000000e+00 
0.0000000e+00 0.0000000e+00 0.0000000e+00 
0.0000000e+00 0.0000000e+00 0.0000000e+00 
0.0000000e+00 0.0000000e+00 0.0000000e+00 
0.0000000e+00 0.0000000e+00 0.0000000e+00 
0.0000000e+00 0.0000000e+00 0.0000000e+00 
0.0000000e+00 0.0000000e+00 0.0000000e+00 
0.0000000e+00 0.0000000e+00 0.0000000e+00 
0.0000000e+00 0.0000000e+00 0.0000000e+00 
0.0000000e+00 0.0000000e+00 0.0000000e+00 
0.0000000e+00 0.0000000e+00 0.0000000e+00 
0.0000000e+00 0.0000000e+00 0.0000000e+00 
0.0000000e+00 0.0000000e+00 0.0000000e+00 
0.0000000e+00 0.0000000e+00 0.0000000e+00 
0.0000000e+00 0.0000000e+00 0.0000000e+00 
-2.6119897e-06 -2.8232732e-06 -5.1220240e-06 
7.7184641e-06 1.1722734e-06 -1.1426080e-05 
3.1198484e-05 -3.6995245e-06 -1.4835973e-05 
4.6461391e-05 -1.4757257e-05 -8.3565419e-06 
4.5359782e-05 -8.5717120e-06 3.2077330e-06 
1.7005608e-05 5.9994022e-07 -1.4090390e-06 
4.4468616e-06 2.2710376e-06 3.6753095e-06 
5.9569752e-06 5.6004910e-07 7.5833386e-06 
2.9334324e-06 -5.5220376e-06 4.8861252e-06 
-2.1522987e-06 -4.9939163e-06 2.0842256e-06 
-4.5403399e-06 3.2684170e-06 -1.4077010e-06 
7.4315190e-06 -2.3625742e-06 -6.6158368e-06 
2.7889264e-05 -5.5981468e-06 -6.7098367e-06 
4.7781039e-05 -8.4460071e-06 -2.4456610e-06 
4.6161109e-05 -1.2234805e-05 3.6730087e-06 
2.0847443e-05 -5.6048530e-06 3.7830082e-06 
1.3327546e-06 5.9406261e-06 8.4692356e-06 
-2.6830294e-06 2.9051007e-06 4.5376910e-06 
1.9039079e-06 -4.4275894e-06 2.5448726e-06 
0.0000000e+00 4.8578950e-05 0.0000000e+00 
0.0000000e+00 4.3612377e-05 0.0000000e+00 
0.0000000e+00 -1.8952244e-04 0.0000000e+00 
0.0000000e+00 -5.4467469e-04 0.0000000e+00 
0.0000000e+00 -4.9077917e-04 0.0000000e+00 
0.0000000e+00 -1.3833895e-04 0.0000000e+00 
0.0000000e+00 -1.9179279e-05 0.0000000e+00 
0.0000000e+00 -3.8827671e-05 0.0000000e+00 
0.0000000e+00 -4.2113264e-05 0.0000000e+00 
0.0000000e+00 -3.7465070e-05 0.0000000e+00 
0.0000000e+00 2.9394649e-05 0.0000000e+00 
0.0000000e+00 3.1771400e-05 0.0000000e+00 
0.0000000e+00 -1.8474755e-04 0.0000000e+00 
0.0000000e+00 -4.8895372e-04 0.0000000e+00 
0.0000000e+00 -4.9086491e-04 0.0000000e+00 
0.0000000e+00 -1.7960194e-04 0.0000000e+00 
0.0000000e+00 6.9353596e-06 0.0000000e+00 
0.0000000e+00 3.6240552e-05 0.0000000e+00 
0.0000000e+00 -8.8592778e-06 0.0000000e+00 
1.1058296e-07 -1.2420507e-05 -6.5892559e-06 
-4.8116399e-06 -1.2872965e-05 -7.0375786e-06 
4.3499824e-07 -1.4455449e-06 -2.1744647e-06 
1.2271217e-06 -8.2366478e-06 2.0824684e-06 
4.3739110e-06 -2.8660027e-06 -1.1447225e-05 
2.1179592e-05 7.2247622e-07 -1.8319108e-05 
3.8728725e-05 4.2646283e-07 -5.9642766e-06 
4.7805141e-05 -2.4986175e-06 -5.7546804e-06 
3.2506723e-05 -8.2944680e-06 -2.0439179e-06 
1.1841996e-05 2.8441052e-06 -1.0164134e-05 
2.2478175e-06 3.4220168e-06 5.1360694e-06 
5.0691519e-06 -1.2151708e-06 1.2083561e-05 
-1.4912280e-06 -7.7139748e-06 8.7853050e-06 
-8.9686682e-06 -5.2459554e-06 -1.9912379e-06 
-2.1484839e-06 4.1560584e-06 -8.5565998e-06 
2.3536853e-05 -3.2563653e-06 -8.2952401e-06 
3.0760610e-05 -3.2623564e-06 -2.3972984e-07 
3.9813542e-05 -7.9571573e-06 4.8031275e-06 
2.6384007e-05 -9.9771487e-06 5.1840498e-06 
4.9445171e-06 -1.6992484e-06 -7.2956959e-06 
3.1131974e-06 6.3651441e-06 2.4401625e-06 
2.1074152e-06 9.4082816e-07 6.7138958e-06 
3.5288397e-06 -3.8391172e-06 4.7902558e-06 
1.4401768e-06 -8.5262382e-06 -3.0020179e-05 
0.0000000e+00 9.2051727e-05 0.0000000e+00 
0.0000000e+00 8.8623252e-05 0.0000000e+00 
0.0000000e+00 -4.0141953e-04 0.0000000e+00 
0.0000000e+00 -1.2050461e-03 0.0000000e+00 
0.0000000e+00 -1.1101448e-03 0.0000000e+00 
0.0000000e+00 -2.5669025e-04 0.0000000e+00 
0.0000000e+00 -1.7122864e-05 0.0000000e+00 
0.0000000e+00 -7.1756069e-05 0.0000000e+00 
0.0000000e+00 -7.2633316e-05 0.0000000e+00 
0.0000000e+00 -6.4398089e-05 0.0000000e+00 
0.0000000e+00 5.4515538e-05 0.0000000e+00 
0.0000000e+00 6.7429668e-05 0.0000000e+00 
0.0000000e+00 -4.1327541e-04 0.0000000e+00 
0.0000000e+00 -1.1105086e-03 0.0000000e+00 
0.0000000e+00 -1.0931025e-03 0.0000000e+00 
0.0000000e+00 -3.2651241e-04 0.0000000e+00 
0.0000000e+00 1.9326040e-05 0.0000000e+00 
0.0000000e+00 6.0287537e-05 0.0000000e+00 
0.0000000e+00 -1.3656502e-05 0.0000000e+00 
-3.1360091e-06 -1.2905874e-05 2.4938042e-06 
7.1613598e-05 8.6623804e-05 -2.9843000e-05 
5.7511839e-05 1.4312919e-04 7.7901444e-05 
-2.6260727e-04 -3.9150150e-04 3.5061140e-04 
-6.6639757e-04 -1.3552811e-03 1.0742211e-04 
-5.9207401e-04 -1.4278160e-03 -2.3040571e-04 
-1.5480525e-04 -1.8178277e-04 -2.1693532e-04 
8.3070090e-06 4.3054883e-06 -1.7499537e-05 
-2.6720714e-05 -6.8677808e-05 -1.7585271e-05 
-7.1240320e-05 -8.4222404e-05 8.8676308e-05 
-2.1869027e-05 -5.5018827e-05 -9.3144234e-05 
5.7671597e-05 3.2345029e-05 -9.0981019e-05 
5.6754849e-05 1.4858248e-04 6.9949390e-05 
-2.4832608e-04 -3.9933022e-04 2.6883642e-04 
-6.2971533e-04 -1.2334464e-03 1.7012678e-04 
-5.9882778e-04 -1.3884100e-03 -3.7268950e-05 
-1.7689749e-04 -2.6821034e-04 -2.8733473e-04 
2.2841366e-05 4.0203446e-05 -1.7655469e-04 
3.1755211e-05 6.0412356e-05 3.4167060e-05 
-3.2562818e-06 -8.7082499e-06 7.6196280e-05 
0.0000000e+00 1.1978342e-04 0.0000000e+00 
0.0000000e+00 1.6307032e-04 0.0000000e+00 
0.0000000e+00 -7.6719665e-04 0.0000000e+00 
0.0000000e+00 -2.3458039e-03 0.0000000e+00 
0.0000000e+00 -2.1602290e-03 0.0000000e+00 
0.0000000e+00 -4.4078476e-04 0.0000000e+00 
0.0000000e+00 3.0138142e-05 0.0000000e+00 
0.0000000e+00 -1.0622007e-04 0.0000000e+00 
0.0000000e+00 -8.6511027e-05 0.0000000e+00 
0.0000000e+00 -7.6437005e-05 0.0000000e+00 
0.0000000e+00 6.4560263e-05 0.0000000e+00 
0.0000000e+00 1.3294232e-04 0.0000000e+00 
0.0000000e+00 -8.3721662e-04 0.0000000e+00 
0.0000000e+00 -2.2434548e-03 0.0000000e+00 
0.0000000e+00 -2.0845276e-03 0.0000000e+00 
0.0000000e+00 -5.0592289e-04 0.0000000e+00 
0.0000000e+00 5.6503050e-05 0.0000000e+00 
0.0000000e+00 7.4634372e-05 0.0000000e+00 
0.0000000e+00 -1.3215184e-05 0.0000000e+00 
1.0823445e-05 2.1849226e-05 -1.5256741e-05 
3.0391331e-05 4.1920201e-05 4.6914811e-06 
5.1845720e-05 -2.6547814e-05 7.6640490e-06 
5.2150699e-05 -1.1612535e-04 -2.4197863e-05 
4.6625799e-05 -8.5965505e-05 -1.2912722e-05 
3.4204189e-05 -3.1701453e-05 -2.8922575e-06 
8.1648041e-06 -3.1871862e-06 -5.7463626e-06 
-7.0721121e-06 -6.8385534e-06 3.8211874e-06 
-1.7246204e-05 -1.8097842e-05 1.2461818e-05 
-7.3927608e-06 -2.2286946e-05 -1.2218547e-05 
3.6245849e-06 1.4631783e-05 -1.5407855e-05 
2.7969227e-05 4.4748591e-05 4.3458467e-06 
6.4552994e-05 -3.3999044e-05 4.3304804e-06 
6.1436745e-05 -7.6599092e-05 9.5474079e-06 
3.4940655e-05 -1.0383357e-04 2.2043991e-05 
2.4455579e-05 -6.9602131e-05 -1.3589963e-05 
5.1805806e-08 1.9758296e-05 -3.7547594e-05 
1.3328242e-06 -4.7980880e-06 1.4588475e-05 
2.0579146e-05 4.9314833e-05 2.0050760e-05 
0.0000000e+00 0.0000000e+00 0.0000000e+00 
0.0000000e+00 0.0000000e+00 0.0000000e+00 
0.0000000e+00 0.0000000e+00 0.0000000e+00 
0.0000000e+00 0.0000000e+00 0.0000000e+00 
0.0000000e+00 0.0000000e+00 0.0000000e+00 
0.0000000e+00 0.0000000e+00 0.0000000e+00 
0.0000000e+00 0.0000000e+00 0.0000000e+00 
0.0000000e+00 0.0000000e+00 0.0000000e+00 
0.0000000e+00 0.0000000e+00 0.0000000e+00 
0.0000000e+00 0.0000000e+00 0.0000000e+00 
0.0000000e+00 0.0000000e+00 0.0000000e+00 
0.0000000e+00 0.0000000e+00 0.0000000e+00 
0.0000000e+00 0.0000000e+00 0.0000000e+00 
0.0000000e+00 0.0000000e+00 0.0000000e+00 
0.0000000e+00 0.0000000e+00 0.0000000e+00 
0.0000000e+00 0.0000000e+00 0.0000000e+00 
0.0000000e+00 0.0000000e+00 0.0000000e+00 
0.0000000e+00 0.0000000e+00 0.0000000e+00 
0.0000000e+00 0.0000000e+00 0.0000000e+00 
0.0000000e+00 0.0000000e+00 0.0000000e+00 
0.0000000e+00 0.0000000e+00 0.0000000e+00 
0.0000000e+00 0.0000000e+00 0.0000000e+00 
0.0000000e+00 0.0000000e+00 0.0000000e+00 
0.0000000e+00 0.0000000e+00 0.0000000e+00 
0.0000000e+00 0.0000000e+00 0.0000000e+00 
0.0000000e+00 0.0000000e+00 0.0000000e+00 
0.0000000e+00 0.0000000e+00 0.0000000e+00 
0.0000000e+00 0.0000000e+00 0.0000000e+00 
0.0000000e+00 0.0000000e+00 0.0000000e+00 
0.0000000e+00 0.0000000e+00 0.0000000e+00 
0.0000000e+00 0.0000000e+00 0.0000000e+00 
0.0000000e+00 0.0000000e+00 0.0000000e+00 
0.0000000e+00 0.0000000e+00 0.0000000e+00 
0.0000000e+00 0.0000000e+00 0.0000000e+00 
0.0000000e+00 0.0000000e+00 0.0000000e+00 
0.0000000e+00 0.0000000e+00 0.0000000e+00 
0.0000000e+00 0.0000000e+00 0.0000000e+00 
0.0000000e+00 0.0000000e+00 0.0000000e+00 
0.0000000e+00 0.0000000e+00 0.0000000e+00 
0.0000000e+00 0.0000000e+00 0.0000000e+00 
0.0000000e+00 0.0000000e+00 0.0000000e+00 
0.0000000e+00 0.0000000e+00 0.0000000e+00 
8.7756625e-06 -3.4786899e-06 -9.1746833e-06 
2.9723444e-06 -4.8733926e-07 6.6154132e-07 
4.0493555e-06 -1.8547630e-06 3.2122666e-06 
-7.7215356e-07 1.3846881e-06 -1.4383634e-06 
6.3378484e-06 -5.7950633e-06 -3.7191930e-06 
2.3327189e-05 -8.3157038e-06 -2.5666116e-06 
2.5119965e-05 -1.1435134e-05 -7.3440634e-07 
2.1662059e-05 -1.1186205e-05 2.6914213e-06 
3.9084330e-06 -6.3479956e-07 5.0849462e-06 