# vtk DataFile Version 4.0
vtk output
ASCII
DATASET UNSTRUCTURED_GRID
POINTS 621 float
0.0000000e+00 0.0000000e+00 0.0000000e+00 
0.0000000e+00 0.0000000e+00 4.0000000e+01 
5.0000000e+00 0.0000000e+00 0.0000000e+00 
5.0000000e+00 0.0000000e+00 4.0000000e+01 
5.0000000e+00 1.0000000e+00 0.0000000e+00 
5.0000000e+00 1.0000000e+00 4.0000000e+01 
0.0000000e+00 1.0000000e+00 0.0000000e+00 
0.0000000e+00 1.0000000e+00 4.0000000e+01 
5.0000000e+00 2.0000000e+00 0.0000000e+00 
5.0000000e+00 2.0000000e+00 4.0000000e+01 
3.0000000e+00 2.0000000e+00 0.0000000e+00 
3.0000000e+00 2.0000000e+00 4.0000000e+01 
0.0000000e+00 2.0000000e+00 0.0000000e+00 
0.0000000e+00 2.0000000e+00 4.0000000e+01 
1.5000000e+00 3.0000000e+00 0.0000000e+00 
1.5000000e+00 3.0000000e+00 4.0000000e+01 
7.5000000e-01 3.0000000e+00 0.0000000e+00 
7.5000000e-01 3.0000000e+00 4.0000000e+01 
0.0000000e+00 3.0000000e+00 0.0000000e+00 
0.0000000e+00 3.0000000e+00 4.0000000e+01 
7.5000000e-01 3.0000000e+00 5.0000000e-01 
7.5000000e-01 3.0000000e+00 1.0000000e+00 
7.5000000e-01 3.0000000e+00 1.5000000e+00 
7.5000000e-01 3.0000000e+00 2.0000000e+00 
7.5000000e-01 3.0000000e+00 2.5000000e+00 
7.5000000e-01 3.0000000e+00 3.0000000e+00 
7.5000000e-01 3.0000000e+00 3.5000000e+00 
7.5000000e-01 3.0000000e+00 4.0000000e+00 
7.5000000e-01 3.0000000e+00 4.5000000e+00 
7.5000000e-01 3.0000000e+00 5.0000000e+00 
7.5000000e-01 3.0000000e+00 5.5000000e+00 
7.5000000e-01 3.0000000e+00 6.0000000e+00 
7.5000000e-01 3.0000000e+00 6.5000000e+00 
7.5000000e-01 3.0000000e+00 7.0000000e+00 
7.5000000e-01 3.0000000e+00 7.5000000e+00 
7.5000000e-01 3.0000000e+00 8.0000000e+00 
7.5000000e-01 3.0000000e+00 8.5000000e+00 
7.5000000e-01 3.0000000e+00 9.0000000e+00 
7.5000000e-01 3.0000000e+00 9.5000000e+00 
7.5000000e-01 3.0000000e+00 1.0000000e+01 
7.5000000e-01 3.0000000e+00 1.0500000e+01 
7.5000000e-01 3.0000000e+00 1.1000000e+01 
7.5000000e-01 3.0000000e+00 1.1500000e+01 
7.5000000e-01 3.0000000e+00 1.2000000e+01 
7.5000000e-01 3.0000000e+00 1.2500000e+01 
7.5000000e-01 3.0000000e+00 1.3000000e+01 
7.5000000e-01 3.0000000e+00 1.3500000e+01 
7.5000000e-01 3.0000000e+00 1.4000000e+01 
7.5000000e-01 3.0000000e+00 1.4500000e+01 
7.5000000e-01 3.0000000e+00 1.5000000e+01 
7.5000000e-01 3.0000000e+00 1.5500000e+01 
7.5000000e-01 3.0000000e+00 1.6000000e+01 
7.5000000e-01 3.0000000e+00 1.6500000e+01 
7.5000000e-01 3.0000000e+00 1.7000000e+01 
7.5000000e-01 3.0000000e+00 1.7500000e+01 
7.5000000e-01 3.0000000e+00 1.8000000e+01 
7.5000000e-01 3.0000000e+00 1.8500000e+01 
7.5000000e-01 3.0000000e+00 1.9000000e+01 
7.5000000e-01 3.0000000e+00 1.9500000e+01 
7.5000000e-01 3.0000000e+00 2.0000000e+01 
7.5000000e-01 3.0000000e+00 2.0500000e+01 
7.5000000e-01 3.0000000e+00 2.1000000e+01 
7.5000000e-01 3.0000000e+00 2.1500000e+01 
7.5000000e-01 3.0000000e+00 2.2000000e+01 
7.5000000e-01 3.0000000e+00 2.2500000e+01 
7.5000000e-01 3.0000000e+00 2.3000000e+01 
7.5000000e-01 3.0000000e+00 2.3500000e+01 
7.5000000e-01 3.0000000e+00 2.4000000e+01 
7.5000000e-01 3.0000000e+00 2.4500000e+01 
7.5000000e-01 3.0000000e+00 2.5000000e+01 
7.5000000e-01 3.0000000e+00 2.5500000e+01 
7.5000000e-01 3.0000000e+00 2.6000000e+01 
7.5000000e-01 3.0000000e+00 2.6500000e+01 
7.5000000e-01 3.0000000e+00 2.7000000e+01 
7.5000000e-01 3.0000000e+00 2.7500000e+01 
7.5000000e-01 3.0000000e+00 2.8000000e+01 
7.5000000e-01 3.0000000e+00 2.8500000e+01 
7.5000000e-01 3.0000000e+00 2.9000000e+01 
7.5000000e-01 3.0000000e+00 2.9500000e+01 
7.5000000e-01 3.0000000e+00 3.0000000e+01 
7.5000000e-01 3.0000000e+00 3.0500000e+01 
7.5000000e-01 3.0000000e+00 3.1000000e+01 
7.5000000e-01 3.0000000e+00 3.1500000e+01 
7.5000000e-01 3.0000000e+00 3.2000000e+01 
7.5000000e-01 3.0000000e+00 3.2500000e+01 
7.5000000e-01 3.0000000e+00 3.3000000e+01 
7.5000000e-01 3.0000000e+00 3.3500000e+01 
7.5000000e-01 3.0000000e+00 3.4000000e+01 
7.5000000e-01 3.0000000e+00 3.4500000e+01 
7.5000000e-01 3.0000000e+00 3.5000000e+01 
7.5000000e-01 3.0000000e+00 3.5500000e+01 
7.5000000e-01 3.0000000e+00 3.6000000e+01 
7.5000000e-01 3.0000000e+00 3.6500000e+01 
7.5000000e-01 3.0000000e+00 3.7000000e+01 
7.5000000e-01 3.0000000e+00 3.7500000e+01 
7.5000000e-01 3.0000000e+00 3.8000000e+01 
7.5000000e-01 3.0000000e+00 3.8500000e+01 
7.5000000e-01 3.0000000e+00 3.9000000e+01 
7.5000000e-01 3.0000000e+00 3.9500000e+01 
7.5000000e-01 3.0250001e+00 0.0000000e+00 
7.5000000e-01 3.0250001e+00 5.0000000e-01 
7.5000000e-01 3.0250001e+00 1.0000000e+00 
7.5000000e-01 3.0250001e+00 1.5000000e+00 
7.5000000e-01 3.0250001e+00 2.0000000e+00 
7.5000000e-01 3.0250001e+00 2.5000000e+00 
7.5000000e-01 3.0250001e+00 3.0000000e+00 
7.5000000e-01 3.0250001e+00 3.5000000e+00 
7.5000000e-01 3.0250001e+00 4.0000000e+00 
7.5000000e-01 3.0250001e+00 4.5000000e+00 
7.5000000e-01 3.0250001e+00 5.0000000e+00 
7.5000000e-01 3.0250001e+00 5.5000000e+00 
7.5000000e-01 3.0250001e+00 6.0000000e+00 
7.5000000e-01 3.0250001e+00 6.5000000e+00 
7.5000000e-01 3.0250001e+00 7.0000000e+00 
7.5000000e-01 3.0250001e+00 7.5000000e+00 
7.5000000e-01 3.0250001e+00 8.0000000e+00 
7.5000000e-01 3.0250001e+00 8.5000000e+00 
7.5000000e-01 3.0250001e+00 9.0000000e+00 
7.5000000e-01 3.0250001e+00 9.5000000e+00 
7.5000000e-01 3.0250001e+00 1.0000000e+01 
7.5000000e-01 3.0250001e+00 1.0500000e+01 
7.5000000e-01 3.0250001e+00 1.1000000e+01 
7.5000000e-01 3.0250001e+00 1.1500000e+01 
7.5000000e-01 3.0250001e+00 1.2000000e+01 
7.5000000e-01 3.0250001e+00 1.2500000e+01 
7.5000000e-01 3.0250001e+00 1.3000000e+01 
7.5000000e-01 3.0250001e+00 1.3500000e+01 
7.5000000e-01 3.0250001e+00 1.4000000e+01 
7.5000000e-01 3.0250001e+00 1.4500000e+01 
7.5000000e-01 3.0250001e+00 1.5000000e+01 
7.5000000e-01 3.0250001e+00 1.5500000e+01 
7.5000000e-01 3.0250001e+00 1.6000000e+01 
7.5000000e-01 3.0250001e+00 1.6500000e+01 
7.5000000e-01 3.0250001e+00 1.7000000e+01 
7.5000000e-01 3.0250001e+00 1.7500000e+01 
7.5000000e-01 3.0250001e+00 1.8000000e+01 
7.5000000e-01 3.0250001e+00 1.8500000e+01 
7.5000000e-01 3.0250001e+00 1.9000000e+01 
7.5000000e-01 3.0250001e+00 1.9500000e+01 
7.5000000e-01 3.0250001e+00 2.0000000e+01 
7.5000000e-01 3.0250001e+00 2.0500000e+01 
7.5000000e-01 3.0250001e+00 2.1000000e+01 
7.5000000e-01 3.0250001e+00 2.1500000e+01 
7.5000000e-01 3.0250001e+00 2.2000000e+01 
7.5000000e-01 3.0250001e+00 2.2500000e+01 
7.5000000e-01 3.0250001e+00 2.3000000e+01 
7.5000000e-01 3.0250001e+00 2.3500000e+01 
7.5000000e-01 3.0250001e+00 2.4000000e+01 
7.5000000e-01 3.0250001e+00 2.4500000e+01 
7.5000000e-01 3.0250001e+00 2.5000000e+01 
7.5000000e-01 3.0250001e+00 2.5500000e+01 
7.5000000e-01 3.0250001e+00 2.6000000e+01 
7.5000000e-01 3.0250001e+00 2.6500000e+01 
7.5000000e-01 3.0250001e+00 2.7000000e+01 
7.5000000e-01 3.0250001e+00 2.7500000e+01 
7.5000000e-01 3.0250001e+00 2.8000000e+01 
7.5000000e-01 3.0250001e+00 2.8500000e+01 
7.5000000e-01 3.0250001e+00 2.9000000e+01 
7.5000000e-01 3.0250001e+00 2.9500000e+01 
7.5000000e-01 3.0250001e+00 3.0000000e+01 
7.5000000e-01 3.0250001e+00 3.0500000e+01 
7.5000000e-01 3.0250001e+00 3.1000000e+01 
7.5000000e-01 3.0250001e+00 3.1500000e+01 
7.5000000e-01 3.0250001e+00 3.2000000e+01 
7.5000000e-01 3.0250001e+00 3.2500000e+01 
7.5000000e-01 3.0250001e+00 3.3000000e+01 
7.5000000e-01 3.0250001e+00 3.3500000e+01 
7.5000000e-01 3.0250001e+00 3.4000000e+01 
7.5000000e-01 3.0250001e+00 3.4500000e+01 
7.5000000e-01 3.0250001e+00 3.5000000e+01 
7.5000000e-01 3.0250001e+00 3.5500000e+01 
7.5000000e-01 3.0250001e+00 3.6000000e+01 
7.5000000e-01 3.0250001e+00 3.6500000e+01 
7.5000000e-01 3.0250001e+00 3.7000000e+01 
7.5000000e-01 3.0250001e+00 3.7500000e+01 
7.5000000e-01 3.0250001e+00 3.8000000e+01 
7.5000000e-01 3.0250001e+00 3.8500000e+01 
7.5000000e-01 3.0250001e+00 3.9000000e+01 
7.5000000e-01 3.0250001e+00 3.9500000e+01 
7.5000000e-01 3.0250001e+00 4.0000000e+01 
3.0000000e+00 2.0000000e+00 3.6000000e+01 
8.0487806e-01 3.0000000e+00 3.6000000e+01 
0.0000000e+00 0.0000000e+00 2.0000000e+00 
0.0000000e+00 0.0000000e+00 4.0000000e+00 
0.0000000e+00 0.0000000e+00 6.0000000e+00 
0.0000000e+00 0.0000000e+00 8.0000000e+00 
0.0000000e+00 0.0000000e+00 1.0000000e+01 
0.0000000e+00 0.0000000e+00 1.2000000e+01 
0.0000000e+00 0.0000000e+00 1.4000000e+01 
0.0000000e+00 0.0000000e+00 1.6000000e+01 
0.0000000e+00 0.0000000e+00 1.8000000e+01 
0.0000000e+00 0.0000000e+00 2.0000000e+01 
0.0000000e+00 0.0000000e+00 2.2000000e+01 
0.0000000e+00 0.0000000e+00 2.4000000e+01 
0.0000000e+00 0.0000000e+00 2.6000000e+01 
0.0000000e+00 0.0000000e+00 2.8000000e+01 
0.0000000e+00 0.0000000e+00 3.0000000e+01 
0.0000000e+00 0.0000000e+00 3.2000000e+01 
0.0000000e+00 0.0000000e+00 3.4000000e+01 
0.0000000e+00 0.0000000e+00 3.6000000e+01 
0.0000000e+00 0.0000000e+00 3.8000000e+01 
5.0000000e+00 0.0000000e+00 2.0000000e+00 
5.0000000e+00 0.0000000e+00 4.0000000e+00 
5.0000000e+00 0.0000000e+00 6.0000000e+00 
5.0000000e+00 0.0000000e+00 8.0000000e+00 
5.0000000e+00 0.0000000e+00 1.0000000e+01 
5.0000000e+00 0.0000000e+00 1.2000000e+01 
5.0000000e+00 0.0000000e+00 1.4000000e+01 
5.0000000e+00 0.0000000e+00 1.6000000e+01 
5.0000000e+00 0.0000000e+00 1.8000000e+01 
5.0000000e+00 0.0000000e+00 2.0000000e+01 
5.0000000e+00 0.0000000e+00 2.2000000e+01 
5.0000000e+00 0.0000000e+00 2.4000000e+01 
5.0000000e+00 0.0000000e+00 2.6000000e+01 
5.0000000e+00 0.0000000e+00 2.8000000e+01 
5.0000000e+00 0.0000000e+00 3.0000000e+01 
5.0000000e+00 0.0000000e+00 3.2000000e+01 
5.0000000e+00 0.0000000e+00 3.4000000e+01 
5.0000000e+00 0.0000000e+00 3.6000000e+01 
5.0000000e+00 0.0000000e+00 3.8000000e+01 
1.6666666e+00 0.0000000e+00 0.0000000e+00 
3.3333333e+00 0.0000000e+00 0.0000000e+00 
1.6666666e+00 0.0000000e+00 4.0000000e+01 
3.3333333e+00 0.0000000e+00 4.0000000e+01 
5.0000000e+00 1.0000000e+00 2.0000000e+00 
5.0000000e+00 1.0000000e+00 4.0000000e+00 
5.0000000e+00 1.0000000e+00 6.0000000e+00 
5.0000000e+00 1.0000000e+00 8.0000000e+00 
5.0000000e+00 1.0000000e+00 1.0000000e+01 
5.0000000e+00 1.0000000e+00 1.2000000e+01 
[...]
POINT_DATA 621
FIELD FieldData 3
DISPLACEMENT 3 621  float
0.0000000e+00 0.0000000e+00 0.0000000e+00 
0.0000000e+00 0.0000000e+00 0.0000000e+00 
0.0000000e+00 0.0000000e+00 0.0000000e+00 
0.0000000e+00 0.0000000e+00 0.0000000e+00 
1.9104086e-06 -9.2100117e-07 -4.9562045e-06 
7.6706510e-06 5.7841362e-06 1.3317296e-05 
0.0000000e+00 -2.0401631e-06 0.0000000e+00 
0.0000000e+00 -1.7045018e-04 0.0000000e+00 
1.2933698e-06 5.8384154e-07 -6.0009606e-06 
2.6998639e-05 6.1176479e-06 -3.3210647e-06 
5.3860454e-06 -5.0145895e-06 -8.5403190e-06 
4.1150517e-05 8.2567742e-05 -1.6174568e-05 
0.0000000e+00 -5.9700915e-06 0.0000000e+00 
0.0000000e+00 -3.7809377e-04 0.0000000e+00 
6.0087468e-06 -1.2250321e-05 -1.9383167e-05 
-1.6353285e-04 -2.5138594e-04 -2.2278226e-04 
5.7304050e-08 -7.7026543e-06 -1.4094621e-05 
-3.7991293e-05 -1.2670924e-03 -1.0703148e-04 
0.0000000e+00 -1.0411687e-05 0.0000000e+00 
0.0000000e+00 -2.6214917e-04 0.0000000e+00 
4.2017314e-06 -6.8321770e-06 -1.7245222e-05 
1.0790501e-05 -3.8369799e-06 -1.6191623e-05 
1.4177673e-05 2.1220135e-06 -1.3107439e-05 
1.7867080e-05 1.1790732e-05 -5.4110546e-06 
1.9434081e-05 2.5461690e-05 3.5725370e-06 
1.6785862e-05 4.2372631e-05 6.0937969e-06 
1.2080528e-05 6.0324943e-05 6.9896228e-06 
9.6179283e-06 7.6634293e-05 4.6761475e-06 
6.7774122e-06 8.9265930e-05 -1.9412516e-06 
5.8576861e-06 9.7140532e-05 -1.9990473e-06 
2.3821376e-06 1.0010425e-04 6.8092313e-06 
-1.1336778e-07 9.8805001e-05 1.8790124e-05 
3.2479386e-06 9.2816430e-05 2.9747716e-05 
5.6405979e-06 8.2822531e-05 3.4918783e-05 
6.7742762e-06 6.8788046e-05 3.6911610e-05 
9.6620624e-06 5.1758805e-05 3.3513366e-05 
1.1862638e-05 3.3434993e-05 2.9931214e-05 
1.5332153e-05 1.6733564e-05 2.7203860e-05 
2.0879941e-05 5.5225278e-06 2.7914704e-05 
2.2290902e-05 2.6804782e-06 3.0084280e-05 
2.2032202e-05 9.7506390e-06 2.4177943e-05 
1.9167343e-05 1.9774343e-05 2.1306341e-05 
1.4450439e-05 2.0701236e-05 3.1199514e-05 
3.7542329e-06 -1.6394259e-05 4.3849021e-05 
-3.5167723e-05 -1.3171800e-04 7.3303636e-05 
-4.8202848e-05 -3.6684563e-04 1.0214293e-04 
-7.2353629e-05 -7.8423973e-04 1.4335703e-04 
-1.2562655e-04 -1.4287414e-03 8.9696354e-05 
-2.6895094e-04 -2.3233113e-03 1.6821288e-04 
-2.7659169e-04 -3.3008265e-03 1.5437011e-04 
-1.7826201e-04 -4.0723756e-03 1.0135953e-04 
-1.5549151e-04 -4.1067665e-03 1.1244723e-04 
-2.9151529e-04 -3.9606476e-03 5.1290786e-05 
-3.5414810e-04 -3.9845072e-03 3.2554028e-05 
-2.3513698e-04 -4.2731254e-03 -1.1285824e-05 
-7.8116958e-05 -4.3089408e-03 -6.5849585e-05 
-1.0177094e-04 -3.5894676e-03 -1.6685904e-04 
-1.9487416e-04 -2.5128936e-03 -1.9700710e-04 
-1.8714812e-04 -1.5641090e-03 -1.9153432e-04 
-5.8158996e-05 -8.3510560e-04 -1.2700686e-04 
-1.9017378e-05 -3.6632121e-04 -1.6062187e-04 
-3.2317682e-06 -9.3750903e-05 -1.2438171e-04 
7.1762895e-07 4.4413238e-05 -9.7108859e-05 
1.4390460e-05 1.0083456e-04 -6.7055145e-05 
1.7454380e-05 1.0887039e-04 -3.7529153e-05 
1.6758933e-05 9.3344272e-05 -1.4563524e-05 
7.4366749e-06 6.9222086e-05 -3.6015817e-06 
-2.2410927e-06 4.2672094e-05 -2.3851769e-06 
-7.9099173e-06 1.7614419e-05 -4.4131471e-06 
-9.0253889e-06 -5.7015018e-06 -7.9465462e-06 
-1.2948249e-05 -2.7033810e-05 -9.3450326e-06 
-1.8632552e-05 -4.3940148e-05 -1.0124493e-05 
-1.8472863e-05 -5.2912357e-05 -1.3358513e-05 
-1.9560248e-05 -5.3033044e-05 -2.0460715e-05 
-1.2005726e-05 -4.2949596e-05 -3.1014861e-05 
-2.8328552e-06 -2.3181132e-05 -3.8072303e-05 
1.5965396e-05 6.4362007e-06 -3.7281901e-05 
2.8016966e-05 4.4143741e-05 -3.0987310e-05 
3.8784186e-05 8.8878136e-05 -2.9068646e-05 
5.1751154e-05 1.3770706e-04 -2.2089280e-05 
5.7554218e-05 1.8626028e-04 -1.8082947e-05 
5.9846767e-05 2.2375288e-04 -5.4390421e-06 
4.8148697e-05 2.3313658e-04 1.7630093e-05 
2.8036202e-05 1.8251808e-04 4.4964228e-05 
-2.3100545e-05 2.5592090e-05 9.2275288e-05 
-3.7974332e-05 -2.7761923e-04 1.3625227e-04 
-6.6974622e-05 -7.8704738e-04 1.9499466e-04 
-1.2774876e-04 -1.5287247e-03 1.4348954e-04 
-2.6719610e-04 -2.4975706e-03 2.1814181e-04 
-2.7583391e-04 -3.4788353e-03 1.7945275e-04 
-1.8053960e-04 -4.1143233e-03 7.7753408e-05 
-3.6090240e-04 -4.0303911e-03 1.2322693e-04 
-2.5307314e-04 -3.8443459e-03 9.7645054e-05 
-2.8414099e-04 -3.8771541e-03 1.1332158e-05 
-9.9208315e-05 -4.1456111e-03 -1.2011141e-04 
-1.6351978e-04 -4.1079428e-03 -1.8735100e-04 
-1.5233785e-04 -3.2825212e-03 -3.1235072e-04 
-1.6748562e-04 -2.2630580e-03 -3.0492817e-04 
-9.4281248e-05 -1.5340118e-03 -1.2582750e-04 
0.0000000e+00 -7.7329896e-06 0.0000000e+00 
0.0000000e+00 -6.8527393e-06 0.0000000e+00 
0.0000000e+00 -3.8236626e-06 0.0000000e+00 
0.0000000e+00 2.1492858e-06 0.0000000e+00 
0.0000000e+00 1.1842994e-05 0.0000000e+00 
0.0000000e+00 2.5533798e-05 0.0000000e+00 
0.0000000e+00 4.2404972e-05 0.0000000e+00 
0.0000000e+00 6.0306858e-05 0.0000000e+00 
0.0000000e+00 7.6611759e-05 0.0000000e+00 
0.0000000e+00 8.9239635e-05 0.0000000e+00 
0.0000000e+00 9.7115080e-05 0.0000000e+00 
0.0000000e+00 1.0017422e-04 0.0000000e+00 
0.0000000e+00 9.8775148e-05 0.0000000e+00 
0.0000000e+00 9.2872106e-05 0.0000000e+00 
0.0000000e+00 8.2794977e-05 0.0000000e+00 
0.0000000e+00 6.8770605e-05 0.0000000e+00 
0.0000000e+00 5.1702631e-05 0.0000000e+00 
0.0000000e+00 3.3398614e-05 0.0000000e+00 
0.0000000e+00 1.6783131e-05 0.0000000e+00 
0.0000000e+00 5.5823384e-06 0.0000000e+00 
0.0000000e+00 3.0664116e-06 0.0000000e+00 
0.0000000e+00 1.0028990e-05 0.0000000e+00 
0.0000000e+00 2.0695341e-05 0.0000000e+00 
0.0000000e+00 2.1307304e-05 0.0000000e+00 
0.0000000e+00 -1.6244296e-05 0.0000000e+00 
0.0000000e+00 -1.3060757e-04 0.0000000e+00 
0.0000000e+00 -3.6744346e-04 0.0000000e+00 
0.0000000e+00 -7.8564312e-04 0.0000000e+00 
0.0000000e+00 -1.4378623e-03 0.0000000e+00 
0.0000000e+00 -2.3307120e-03 0.0000000e+00 
0.0000000e+00 -3.3323460e-03 0.0000000e+00 
0.0000000e+00 -4.0960507e-03 0.0000000e+00 
0.0000000e+00 -4.1372958e-03 0.0000000e+00 
0.0000000e+00 -3.9744424e-03 0.0000000e+00 
0.0000000e+00 -4.0153703e-03 0.0000000e+00 
0.0000000e+00 -4.2934716e-03 0.0000000e+00 
0.0000000e+00 -4.3439870e-03 0.0000000e+00 
0.0000000e+00 -3.6080857e-03 0.0000000e+00 
0.0000000e+00 -2.5319764e-03 0.0000000e+00 
0.0000000e+00 -1.5665272e-03 0.0000000e+00 
0.0000000e+00 -8.3958829e-04 0.0000000e+00 
0.0000000e+00 -3.6618381e-04 0.0000000e+00 
0.0000000e+00 -9.2918708e-05 0.0000000e+00 
0.0000000e+00 4.5499120e-05 0.0000000e+00 
0.0000000e+00 1.0130180e-04 0.0000000e+00 
0.0000000e+00 1.0937454e-04 0.0000000e+00 
0.0000000e+00 9.3815484e-05 0.0000000e+00 
0.0000000e+00 6.9346534e-05 0.0000000e+00 
0.0000000e+00 4.2836757e-05 0.0000000e+00 
0.0000000e+00 1.7605469e-05 0.0000000e+00 
0.0000000e+00 -5.8309902e-06 0.0000000e+00 
0.0000000e+00 -2.7077651e-05 0.0000000e+00 
0.0000000e+00 -4.3795091e-05 0.0000000e+00 
0.0000000e+00 -5.2936110e-05 0.0000000e+00 
0.0000000e+00 -5.2957053e-05 0.0000000e+00 
0.0000000e+00 -4.2986616e-05 0.0000000e+00 
0.0000000e+00 -2.3106453e-05 0.0000000e+00 
0.0000000e+00 6.4055780e-06 0.0000000e+00 
0.0000000e+00 4.4234315e-05 0.0000000e+00 
0.0000000e+00 8.8958324e-05 0.0000000e+00 
0.0000000e+00 1.3802671e-04 0.0000000e+00 
0.0000000e+00 1.8662668e-04 0.0000000e+00 
0.0000000e+00 2.2461383e-04 0.0000000e+00 
0.0000000e+00 2.3391488e-04 0.0000000e+00 
0.0000000e+00 1.8235874e-04 0.0000000e+00 
0.0000000e+00 2.6689966e-05 0.0000000e+00 
0.0000000e+00 -2.7900416e-04 0.0000000e+00 
0.0000000e+00 -7.8898133e-04 0.0000000e+00 
0.0000000e+00 -1.5388692e-03 0.0000000e+00 
0.0000000e+00 -2.5062570e-03 0.0000000e+00 
0.0000000e+00 -3.5124517e-03 0.0000000e+00 
0.0000000e+00 -4.1404110e-03 0.0000000e+00 
0.0000000e+00 -4.0558535e-03 0.0000000e+00 
0.0000000e+00 -3.8598950e-03 0.0000000e+00 
0.0000000e+00 -3.9069168e-03 0.0000000e+00 
0.0000000e+00 -4.1757049e-03 0.0000000e+00 
0.0000000e+00 -4.1277050e-03 0.0000000e+00 
0.0000000e+00 -3.2989930e-03 0.0000000e+00 
0.0000000e+00 -2.2787626e-03 0.0000000e+00 
0.0000000e+00 -1.5380059e-03 0.0000000e+00 
0.0000000e+00 -1.2706551e-03 0.0000000e+00 
9.7413431e-05 -1.4892509e-04 1.1584591e-05 
-1.6573725e-04 -3.5069280e-03 1.4162077e-04 
0.0000000e+00 0.0000000e+00 0.0000000e+00 
0.0000000e+00 0.0000000e+00 0.0000000e+00 
0.0000000e+00 0.0000000e+00 0.0000000e+00 
0.0000000e+00 0.0000000e+00 0.0000000e+00 
0.0000000e+00 0.0000000e+00 0.0000000e+00 
0.0000000e+00 0.0000000e+00 0.0000000e+00 
0.0000000e+00 0.0000000e+00 0.0000000e+00 
0.0000000e+00 0.0000000e+00 0.0000000e+00 
0.0000000e+00 0.0000000e+00 0.0000000e+00 
0.0000000e+00 0.0000000e+00 0.0000000e+00 
0.0000000e+00 0.0000000e+00 0.0000000e+00 
0.0000000e+00 0.0000000e+00 0.0000000e+00 
0.0000000e+00 0.0000000e+00 0.0000000e+00 
0.0000000e+00 0.0000000e+00 0.0000000e+00 
0.0000000e+00 0.0000000e+00 0.0000000e+00 
0.0000000e+00 0.0000000e+00 0.0000000e+00 
0.0000000e+00 0.0000000e+00 0.0000000e+00 
0.0000000e+00 0.0000000e+00 0.0000000e+00 
0.0000000e+00 0.0000000e+00 0.0000000e+00 
0.0000000e+00 0.0000000e+00 0.0000000e+00 
0.0000000e+00 0.0000000e+00 0.0000000e+00 
0.0000000e+00 0.0000000e+00 0.0000000e+00 
0.0000000e+00 0.0000000e+00 0.0000000e+00 
0.0000000e+00 0.0000000e+00 0.0000000e+00 
0.0000000e+00 0.0000000e+00 0.0000000e+00 
0.0000000e+00 0.0000000e+00 0.0000000e+00 
0.0000000e+00 0.0000000e+00 0.0000000e+00 
0.0000000e+00 0.0000000e+00 0.0000000e+00 
0.0000000e+00 0.0000000e+00 0.0000000e+00 
0.0000000e+00 0.0000000e+00 0.0000000e+00 
0.0000000e+00 0.0000000e+00 0.0000000e+00 
0.0000000e+00 0.0000000e+00 0.0000000e+00 
0.0000000e+00 0.0000000e+00 0.0000000e+00 
0.0000000e+00 0.0000000e+00 0.0000000e+00 
0.0000000e+00 0.0000000e+00 0.0000000e+00 
0.0000000e+00 0.0000000e+00 0.0000000e+00 
0.0000000e+00 0.0000000e+00 0.0000000e+00 
0.0000000e+00 0.0000000e+00 0.0000000e+00 
0.0000000e+00 0.0000000e+00 0.0000000e+00 
0.0000000e+00 0.0000000e+00 0.0000000e+00 
0.0000000e+00 0.0000000e+00 0.0000000e+00 
0.0000000e+00 0.0000000e+00 0.0000000e+00 
2.3983944e-06 -1.6623064e-06 -3.6442104e-06 
1.2621041e-07 -1.1391850e-06 1.1362494e-06 
-6.3034518e-06 -1.4184772e-07 3.0524527e-06 
-1.0516243e-05 3.0301067e-06 -9.3272021e-08 
-4.3209466e-06 1.0778919e-07 -3.2405324e-06 
1.1722539e-05 -3.6020763e-06 -6.2941190e-06 
3.6280129e-05 -6.9867970e-06 -1.0529074e-05 
5.3868385e-05 -7.6985070e-06 -2.5652348e-06 
4.6615925e-05 -5.5735700e-06 8.3225605e-06 
2.0581296e-05 -1.8326045e-06 4.4638978e-06 
4.0964210e-06 -1.4591380e-06 1.2851186e-06 
1.5117316e-06 -4.8303684e-07 7.0630676e-08 
-2.9371756e-06 -2.7746876e-06 3.2395371e-06 
-7.7549794e-06 -1.6379464e-06 1.5175791e-06 
-5.3657977e-06 1.2982820e-06 -1.9905290e-06 
1.8550722e-06 1.6293475e-06 -7.9575102e-06 
3.1728789e-05 -6.7241176e-06 -1.6631577e-05 
5.3884090e-05 -2.2362601e-05 -1.7865633e-06 
4.0212075e-05 -1.6773580e-05 1.8157134e-05 
0.0000000e+00 2.7237559e-06 0.0000000e+00 
0.0000000e+00 2.5192259e-05 0.0000000e+00 
0.0000000e+00 2.9076697e-05 0.0000000e+00 
0.0000000e+00 1.2576809e-05 0.0000000e+00 
0.0000000e+00 -3.1089617e-06 0.0000000e+00 
0.0000000e+00 -2.1553571e-05 0.0000000e+00 
0.0000000e+00 -2.2130727e-04 0.0000000e+00 
0.0000000e+00 -5.4225657e-04 0.0000000e+00 
0.0000000e+00 -5.3107081e-04 0.0000000e+00 
0.0000000e+00 -1.5327196e-04 0.0000000e+00 
0.0000000e+00 1.0816329e-05 0.0000000e+00 
0.0000000e+00 1.1860354e-05 0.0000000e+00 
0.0000000e+00 -2.0790316e-05 0.0000000e+00 
0.0000000e+00 -9.5939904e-06 0.0000000e+00 
0.0000000e+00 4.5918139e-05 0.0000000e+00 
0.0000000e+00 4.5926277e-05 0.0000000e+00 
0.0000000e+00 -2.2007394e-04 0.0000000e+00 
0.0000000e+00 -5.7203666e-04 0.0000000e+00 
0.0000000e+00 -4.8344483e-04 0.0000000e+00 
2.9831515e-06 -2.5380928e-06 -6.0742614e-06 
1.7158585e-06 -2.6720786e-06 -4.6410942e-06 
4.0584309e-05 3.5643970e-05 1.3750941e-05 
8.1483515e-05 -7.5873555e-05 1.0603803e-04 
3.9307724e-06 -2.5369045e-06 -4.9774453e-06 
3.1797269e-06 -3.9214488e-06 5.3280531e-09 
-4.6915325e-06 -2.0099371e-06 3.3567730e-06 
-1.2523445e-05 2.5593502e-06 6.8672932e-07 
-6.9331436e-06 1.9070401e-06 -3.5695562e-06 
1.9206464e-05 -3.0057201e-06 -8.5753782e-06 
3.5293022e-05 -5.2873470e-06 -4.5710231e-06 
3.8242240e-05 -6.4686164e-06 -6.4554122e-08 
2.5821537e-05 -2.2686841e-06 6.9850230e-06 
9.8810333e-06 2.2293568e-06 -2.6654081e-06 
7.9302072e-06 -1.8715091e-06 -1.2794121e-06 
2.9139808e-06 -2.6179059e-06 1.7684828e-06 
-5.5815881e-06 -4.9589939e-06 4.4022522e-06 
-9.4643228e-06 -1.9288254e-06 -1.4092168e-06 
1.9092913e-07 1.2984642e-06 -8.0255249e-06 
1.6297870e-05 1.2798781e-06 -9.6436506e-06 
3.4276167e-05 -6.1265782e-06 -6.1310957e-06 
4.7439276e-05 -1.6040032e-05 8.3284649e-06 
3.2256808e-05 -7.5930275e-06 9.5199921e-06 
4.6444984e-06 -4.7730491e-06 -7.5115381e-06 
0.0000000e+00 4.8172151e-06 0.0000000e+00 
0.0000000e+00 4.8162401e-05 0.0000000e+00 
0.0000000e+00 5.5619610e-05 0.0000000e+00 
0.0000000e+00 2.4996794e-05 0.0000000e+00 
0.0000000e+00 -8.5259571e-06 0.0000000e+00 
0.0000000e+00 -2.6813059e-05 0.0000000e+00 
0.0000000e+00 -4.6245451e-04 0.0000000e+00 
0.0000000e+00 -1.1991892e-03 0.0000000e+00 
0.0000000e+00 -1.1826179e-03 0.0000000e+00 
0.0000000e+00 -2.8884772e-04 0.0000000e+00 
0.0000000e+00 3.5194138e-05 0.0000000e+00 
0.0000000e+00 2.2047070e-05 0.0000000e+00 
0.0000000e+00 -3.5524230e-05 0.0000000e+00 
0.0000000e+00 -1.9245830e-05 0.0000000e+00 
0.0000000e+00 8.4962303e-05 0.0000000e+00 
0.0000000e+00 9.6007410e-05 0.0000000e+00 
0.0000000e+00 -4.6427082e-04 0.0000000e+00 
0.0000000e+00 -1.2926890e-03 0.0000000e+00 
0.0000000e+00 -1.0590473e-03 0.0000000e+00 
7.0185961e-05 -2.1339214e-04 6.0636208e-05 
2.2140992e-05 2.6121488e-06 -8.3388177e-06 
1.3633333e-05 4.8580878e-05 4.4590474e-06 
3.2125790e-06 6.3799504e-05 2.4986430e-05 
4.5305355e-06 4.2736880e-05 3.5614594e-05 
3.6034828e-05 -1.5197806e-05 4.8761322e-05 
1.9918800e-05 1.9555580e-05 7.6791301e-05 
-2.8223961e-04 -4.4392474e-04 2.7777924e-04 
-7.0220919e-04 -1.3427134e-03 1.2250166e-04 
-6.4288697e-04 -1.4799727e-03 -1.5035379e-04 
-1.3297843e-04 -2.4901167e-04 -2.5226382e-04 
3.3767064e-05 4.9254140e-05 -7.1318769e-05 
7.7368094e-07 1.9893971e-05 -4.6233555e-07 
-2.6385229e-05 -3.6546233e-05 3.9517531e-06 
-1.3482704e-05 -1.4097882e-05 -5.7344252e-05 
7.7845332e-05 6.8950911e-05 -3.0038149e-05 
5.6327201e-05 1.7229602e-04 8.8322078e-05 
-3.2130565e-04 -4.5356408e-04 3.8661007e-04 
-5.0309981e-04 -1.7066749e-03 1.3638823e-04 
-5.5762421e-04 -1.1842416e-03 -2.1144375e-04 
0.0000000e+00 -7.2648696e-08 0.0000000e+00 
0.0000000e+00 7.4447278e-05 0.0000000e+00 
0.0000000e+00 8.6116648e-05 0.0000000e+00 
0.0000000e+00 3.5998852e-05 0.0000000e+00 
0.0000000e+00 -1.6754833e-05 0.0000000e+00 
0.0000000e+00 2.3072143e-06 0.0000000e+00 
0.0000000e+00 -8.6033111e-04 0.0000000e+00 
0.0000000e+00 -2.3228971e-03 0.0000000e+00 
0.0000000e+00 -2.2571234e-03 0.0000000e+00 
0.0000000e+00 -4.9401389e-04 0.0000000e+00 
0.0000000e+00 8.3669242e-05 0.0000000e+00 
0.0000000e+00 3.7658694e-05 0.0000000e+00 
0.0000000e+00 -4.6669968e-05 0.0000000e+00 
0.0000000e+00 -3.4144443e-05 0.0000000e+00 
0.0000000e+00 1.1354198e-04 0.0000000e+00 
0.0000000e+00 1.9012876e-04 0.0000000e+00 
0.0000000e+00 -9.1347721e-04 0.0000000e+00 
0.0000000e+00 -2.4089972e-03 0.0000000e+00 
0.0000000e+00 -2.0775823e-03 0.0000000e+00 
5.7880784e-06 -1.3329726e-06 -1.1896503e-06 
-2.1598923e-07 9.0901867e-06 3.2036457e-06 
-1.2780045e-05 1.1865141e-05 9.4708503e-06 
-8.9648192e-06 1.0273852e-05 1.0124068e-05 
8.7947474e-06 -8.0184913e-07 1.2818406e-05 
2.3228260e-05 1.9967658e-05 1.6658063e-05 
5.5197288e-05 -4.7571946e-05 3.2150692e-06 
5.3149648e-05 -1.0102127e-04 -9.4097577e-06 
4.1499596e-05 -1.0386149e-04 -6.8473440e-07 
3.8213984e-05 -5.3439402e-05 -4.5426609e-06 
3.1275515e-06 1.2965292e-05 -1.4434624e-05 
-5.2861128e-06 3.2810735e-06 -9.2585897e-06 
-1.4158493e-05 -1.1468864e-05 -2.7051108e-06 
-9.1082356e-06 -5.6759623e-06 -1.0554785e-05 
7.8242138e-06 1.9232244e-05 -2.5912268e-06 
1.3355542e-05 4.8565842e-05 1.3810216e-05 
4.4978700e-05 -2.6520225e-05 1.4038475e-05 
4.7254500e-05 -1.0732125e-04 1.1215368e-05 
-7.2005743e-05 -1.1159666e-03 7.1852832e-05 
0.0000000e+00 0.0000000e+00 0.0000000e+00 
0.0000000e+00 0.0000000e+00 0.0000000e+00 
0.0000000e+00 0.0000000e+00 0.0000000e+00 
0.0000000e+00 0.0000000e+00 0.0000000e+00 
0.0000000e+00 0.0000000e+00 0.0000000e+00 
0.0000000e+00 0.0000000e+00 0.0000000e+00 
0.0000000e+00 0.0000000e+00 0.0000000e+00 
0.0000000e+00 0.0000000e+00 0.0000000e+00 
0.0000000e+00 0.0000000e+00 0.0000000e+00 
0.0000000e+00 0.0000000e+00 0.0000000e+00 
0.0000000e+00 0.0000000e+00 0.0000000e+00 
0.0000000e+00 0.0000000e+00 0.0000000e+00 
0.0000000e+00 0.0000000e+00 0.0000000e+00 
0.0000000e+00 0.0000000e+00 0.0000000e+00 
0.0000000e+00 0.0000000e+00 0.0000000e+00 
0.0000000e+00 0.0000000e+00 0.0000000e+00 
0.0000000e+00 0.0000000e+00 0.0000000e+00 
0.0000000e+00 0.0000000e+00 0.0000000e+00 
0.0000000e+00 0.0000000e+00 0.0000000e+00 
0.0000000e+00 0.0000000e+00 0.0000000e+00 
0.0000000e+00 0.0000000e+00 0.0000000e+00 
0.0000000e+00 0.0000000e+00 0.0000000e+00 
0.0000000e+00 0.0000000e+00 0.0000000e+00 
0.0000000e+00 0.0000000e+00 0.0000000e+00 
0.0000000e+00 0.0000000e+00 0.0000000e+00 
0.0000000e+00 0.0000000e+00 0.0000000e+00 
0.0000000e+00 0.0000000e+00 0.0000000e+00 
0.0000000e+00 0.0000000e+00 0.0000000e+00 
0.0000000e+00 0.0000000e+00 0.0000000e+00 
0.0000000e+00 0.0000000e+00 0.0000000e+00 
0.0000000e+00 0.0000000e+00 0.0000000e+00 
0.0000000e+00 0.0000000e+00 0.0000000e+00 
0.0000000e+00 0.0000000e+00 0.0000000e+00 
0.0000000e+00 0.0000000e+00 0.0000000e+00 
0.0000000e+00 0.0000000e+00 0.0000000e+00 
0.0000000e+00 0.0000000e+00 0.0000000e+00 
0.0000000e+00 0.0000000e+00 0.0000000e+00 
0.0000000e+00 0.0000000e+00 0.0000000e+00 
0.0000000e+00 0.0000000e+00 0.0000000e+00 
0.0000000e+00 0.0000000e+00 0.0000000e+00 
0.0000000e+00 0.0000000e+00 0.0000000e+00 
0.0000000e+00 0.0000000e+00 0.0000000e+00 
1.1651327e-06 -7.6090583e-07 -2.4659359e-06 
1.0388566e-05 -7.1522018e-06 -5.9162503e-06 
2.1063524e-05 -8.2934066e-06 3.4474756e-06 
1.4080008e-07 -5.5096901e-08 -6.0373878e-07 
6.7098983e-07 -4.3403548e-07 1.8584519e-06 
-2.8708653e-06 -1.0272980e-06 1.0721925e-06 
-3.6329382e-06 1.4664967e-08 -1.0324263e-07 
-2.5833788e-06 2.1592837e-06 -5.3783259e-07 
6.7561377e-06 -5.2108494e-06 -9.3402759e-06 
2.9940018e-05 -1.3481354e-05 -1.0573350e-05 
2.8789327e-05 -1.5258942e-05 3.2535490e-06 
1.6670319e-05 -9.5024625e-06 1.1685745e-05 
4.8930485e-07 -4.8694255e-07 -1.2230164e-06 
-2.4682038e-06 5.4441421e-07 1.5486639e-06 
-5.8760979e-06 1.8891194e-06 1.7716425e-06 
-4.5557167e-06 1.0379885e-06 -2.1759290e-06 
2.1616088e-06 -1.2969538e-06 -2.8617387e-07 
2.7411554e-05 -9.8539840e-06 -3.8637954e-06 
2.5987594e-05 -9.0857284e-06 2.8322916e-06 
5.1947168e-06 -2.5876625e-06 9.3151760e-07 
3.6402882e-06 -1.3224314e-06 -1.1808727e-06 
1.1175690e-04 -1.1779737e-04 6.2411265e-05 
-1.0514602e-05 5.0770254e-06 5.1055222e-06 
-2.4972535e-06 8.2145465e-07 3.3076833e-06 
3.6929549e-05 9.3923391e-06 -1.0278482e-05 
8.7994362e-05 -2.3806928e-05 -1.5096658e-06 
1.9187661e-05 4.5663256e-07 1.1523309e-05 
-4.8127408e-06 -2.4589074e-06 -5.2329224e-06 
-4.9552264e-06 2.0467496e-06 1.2550314e-06 
1.9141627e-05 2.1780821e-05 -8.4994172e-06 
-9.0564808e-06 1.7190821e-05 5.9017830e-06 
1.6318789e-05 -2.8366103e-06 1.2205655e-06 
1.1386674e-04 -2.2878095e-04 -4.2057844e-05 
9.3375791e-05 -2.0510457e-04 3.8887665e-05 
-3.4006121e-07 8.6676937e-06 -5.2193232e-06 
-5.6563367e-06 -1.2432447e-05 -2.4690187e-06 
4.3635946e-06 3.8650971e-05 3.9812178e-07 
1.0127182e-04 -2.3323932e-04 -5.8830519e-05 
1.4128916e-04 -3.5256078e-04 7.9063702e-06 
-3.2570023e-07 1.1161043e-06 1.9687336e-06 
5.9444363e-05 -3.5938014e-05 1.4508164e-05 
1.0888955e-06 1.0500373e-05 3.5560881e-06 
-1.1019752e-05 3.9301599e-06 4.1100061e-06 
8.5644315e-06 2.8729130e-06 4.7391336e-06 
5.4134733e-05 -1.7499417e-05 -8.3280001e-06 
4.1912303e-05 -2.1242724e-05 5.9409376e-06 
3.6136950e-07 2.8393447e-06 -2.6601963e-06 
-7.6305050e-06 -4.5155598e-06 -2.7713608e-07 
-6.4554450e-07 1.2969037e-05 3.0853205e-06 