# vtk DataFile Version 4.0
vtk output
ASCII
DATASET UNSTRUCTURED_GRID
POINTS 621 float
0.0000000e+00 0.0000000e+00 0.0000000e+00 
0.0000000e+00 0.0000000e+00 4.0000000e+01 
5.0000000e+00 0.0000000e+00 0.0000000e+00 
5.0000000e+00 0.0000000e+00 4.0000000e+01 
5.0000000e+00 1.0000000e+00 0.0000000e+00 
5.0000000e+00 1.0000000e+00 4.0000000e+01 
0.0000000e+00 1.0000000e+00 0.0000000e+00 
0.0000000e+00 1.0000000e+00 4.0000000e+01 
5.0000000e+00 2.0000000e+00 0.0000000e+00 
5.0000000e+00 2.0000000e+00 4.0000000e+01 
3.0000000e+00 2.0000000e+00 0.0000000e+00 
3.0000000e+00 2.0000000e+00 4.0000000e+01 
0.0000000e+00 2.0000000e+00 0.0000000e+00 
0.0000000e+00 2.0000000e+00 4.0000000e+01 
1.5000000e+00 3.0000000e+00 0.0000000e+00 
1.5000000e+00 3.0000000e+00 4.0000000e+01 
7.5000000e-01 3.0000000e+00 0.0000000e+00 
7.5000000e-01 3.0000000e+00 4.0000000e+01 
0.0000000e+00 3.0000000e+00 0.0000000e+00 
0.0000000e+00 3.0000000e+00 4.0000000e+01 
7.5000000e-01 3.0000000e+00 5.0000000e-01 
7.5000000e-01 3.0000000e+00 1.0000000e+00 
7.5000000e-01 3.0000000e+00 1.5000000e+00 
7.5000000e-01 3.0000000e+00 2.0000000e+00 
7.5000000e-01 3.0000000e+00 2.5000000e+00 
7.5000000e-01 3.0000000e+00 3.0000000e+00 
7.5000000e-01 3.0000000e+00 3.5000000e+00 
7.5000000e-01 3.0000000e+00 4.0000000e+00 
7.5000000e-01 3.0000000e+00 4.5000000e+00 
7.5000000e-01 3.0000000e+00 5.0000000e+00 
7.5000000e-01 3.0000000e+00 5.5000000e+00 
7.5000000e-01 3.0000000e+00 6.0000000e+00 
7.5000000e-01 3.0000000e+00 6.5000000e+00 
7.5000000e-01 3.0000000e+00 7.0000000e+00 
7.5000000e-01 3.0000000e+00 7.5000000e+00 
7.5000000e-01 3.0000000e+00 8.0000000e+00 
7.5000000e-01 3.0000000e+00 8.5000000e+00 
7.5000000e-01 3.0000000e+00 9.0000000e+00 
7.5000000e-01 3.0000000e+00 9.5000000e+00 
7.5000000e-01 3.0000000e+00 1.0000000e+01 
7.5000000e-01 3.0000000e+00 1.0500000e+01 
7.5000000e-01 3.0000000e+00 1.1000000e+01 
7.5000000e-01 3.0000000e+00 1.1500000e+01 
7.5000000e-01 3.0000000e+00 1.2000000e+01 
7.5000000e-01 3.0000000e+00 1.2500000e+01 
7.5000000e-01 3.0000000e+00 1.3000000e+01 
7.5000000e-01 3.0000000e+00 1.3500000e+01 
7.5000000e-01 3.0000000e+00 1.4000000e+01 
7.5000000e-01 3.0000000e+00 1.4500000e+01 
7.5000000e-01 3.0000000e+00 1.5000000e+01 
7.5000000e-01 3.0000000e+00 1.5500000e+01 
7.5000000e-01 3.0000000e+00 1.6000000e+01 
7.5000000e-01 3.0000000e+00 1.6500000e+01 
7.5000000e-01 3.0000000e+00 1.7000000e+01 
7.5000000e-01 3.0000000e+00 1.7500000e+01 
7.5000000e-01 3.0000000e+00 1.8000000e+01 
7.5000000e-01 3.0000000e+00 1.8500000e+01 
7.5000000e-01 3.0000000e+00 1.9000000e+01 
7.5000000e-01 3.0000000e+00 1.9500000e+01 
7.5000000e-01 3.0000000e+00 2.0000000e+01 
7.5000000e-01 3.0000000e+00 2.0500000e+01 
7.5000000e-01 3.0000000e+00 2.1000000e+01 
7.5000000e-01 3.0000000e+00 2.1500000e+01 
7.5000000e-01 3.0000000e+00 2.2000000e+01 
7.5000000e-01 3.0000000e+00 2.2500000e+01 
7.5000000e-01 3.0000000e+00 2.3000000e+01 
7.5000000e-01 3.0000000e+00 2.3500000e+01 
7.5000000e-01 3.0000000e+00 2.4000000e+01 
7.5000000e-01 3.0000000e+00 2.4500000e+01 
7.5000000e-01 3.0000000e+00 2.5000000e+01 
7.5000000e-01 3.0000000e+00 2.5500000e+01 
7.5000000e-01 3.0000000e+00 2.6000000e+01 
7.5000000e-01 3.0000000e+00 2.6500000e+01 
7.5000000e-01 3.0000000e+00 2.7000000e+01 
7.5000000e-01 3.0000000e+00 2.7500000e+01 
7.5000000e-01 3.0000000e+00 2.8000000e+01 
7.5000000e-01 3.0000000e+00 2.8500000e+01 
7.5000000e-01 3.0000000e+00 2.9000000e+01 
7.5000000e-01 3.0000000e+00 2.9500000e+01 
7.5000000e-01 3.0000000e+00 3.0000000e+01 
7.5000000e-01 3.0000000e+00 3.0500000e+01 
7.5000000e-01 3.0000000e+00 3.1000000e+01 
7.5000000e-01 3.0000000e+00 3.1500000e+01 
7.5000000e-01 3.0000000e+00 3.2000000e+01 
7.5000000e-01 3.0000000e+00 3.2500000e+01 
7.5000000e-01 3.0000000e+00 3.3000000e+01 
7.5000000e-01 3.0000000e+00 3.3500000e+01 
7.5000000e-01 3.0000000e+00 3.4000000e+01 
7.5000000e-01 3.0000000e+00 3.4500000e+01 
7.5000000e-01 3.0000000e+00 3.5000000e+01 
7.5000000e-01 3.0000000e+00 3.5500000e+01 
7.5000000e-01 3.0000000e+00 3.6000000e+01 
7.5000000e-01 3.0000000e+00 3.6500000e+01 
7.5000000e-01 3.0000000e+00 3.7000000e+01 
7.5000000e-01 3.0000000e+00 3.7500000e+01 
7.5000000e-01 3.0000000e+00 3.8000000e+01 
7.5000000e-01 3.0000000e+00 3.8500000e+01 
7.5000000e-01 3.0000000e+00 3.9000000e+01 
7.5000000e-01 3.0000000e+00 3.9500000e+01 
7.5000000e-01 3.0250001e+00 0.0000000e+00 
7.5000000e-01 3.0250001e+00 5.0000000e-01 
7.5000000e-01 3.0250001e+00 1.0000000e+00 
7.5000000e-01 3.0250001e+00 1.5000000e+00 
7.5000000e-01 3.0250001e+00 2.0000000e+00 
7.5000000e-01 3.0250001e+00 2.5000000e+00 
7.5000000e-01 3.0250001e+00 3.0000000e+00 
7.5000000e-01 3.0250001e+00 3.5000000e+00 
7.5000000e-01 3.0250001e+00 4.0000000e+00 
7.5000000e-01 3.0250001e+00 4.5000000e+00 
7.5000000e-01 3.0250001e+00 5.0000000e+00 
7.5000000e-01 3.0250001e+00 5.5000000e+00 
7.5000000e-01 3.0250001e+00 6.0000000e+00 
7.5000000e-01 3.0250001e+00 6.5000000e+00 
7.5000000e-01 3.0250001e+00 7.0000000e+00 
7.5000000e-01 3.0250001e+00 7.5000000e+00 
7.5000000e-01 3.0250001e+00 8.0000000e+00 
7.5000000e-01 3.0250001e+00 8.5000000e+00 
7.5000000e-01 3.0250001e+00 9.0000000e+00 
7.5000000e-01 3.0250001e+00 9.5000000e+00 
7.5000000e-01 3.0250001e+00 1.0000000e+01 
7.5000000e-01 3.0250001e+00 1.0500000e+01 
7.5000000e-01 3.0250001e+00 1.1000000e+01 
7.5000000e-01 3.0250001e+00 1.1500000e+01 
7.5000000e-01 3.0250001e+00 1.2000000e+01 
7.5000000e-01 3.0250001e+00 1.2500000e+01 
7.5000000e-01 3.0250001e+00 1.3000000e+01 
7.5000000e-01 3.0250001e+00 1.3500000e+01 
7.5000000e-01 3.0250001e+00 1.4000000e+01 
7.5000000e-01 3.0250001e+00 1.4500000e+01 
7.5000000e-01 3.0250001e+00 1.5000000e+01 
7.5000000e-01 3.0250001e+00 1.5500000e+01 
7.5000000e-01 3.0250001e+00 1.6000000e+01 
7.5000000e-01 3.0250001e+00 1.6500000e+01 
7.5000000e-01 3.0250001e+00 1.7000000e+01 
7.5000000e-01 3.0250001e+00 1.7500000e+01 
7.5000000e-01 3.0250001e+00 1.8000000e+01 
7.5000000e-01 3.0250001e+00 1.8500000e+01 
7.5000000e-01 3.0250001e+00 1.9000000e+01 
7.5000000e-01 3.0250001e+00 1.9500000e+01 
7.5000000e-01 3.0250001e+00 2.0000000e+01 
7.5000000e-01 3.0250001e+00 2.0500000e+01 
7.5000000e-01 3.0250001e+00 2.1000000e+01 
7.5000000e-01 3.0250001e+00 2.1500000e+01 
7.5000000e-01 3.0250001e+00 2.2000000e+01 
7.5000000e-01 3.0250001e+00 2.2500000e+01 
7.5000000e-01 3.0250001e+00 2.3000000e+01 
7.5000000e-01 3.0250001e+00 2.3500000e+01 
7.5000000e-01 3.0250001e+00 2.4000000e+01 
7.5000000e-01 3.0250001e+00 2.4500000e+01 
7.5000000e-01 3.0250001e+00 2.5000000e+01 
7.5000000e-01 3.0250001e+00 2.5500000e+01 
7.5000000e-01 3.0250001e+00 2.6000000e+01 
7.5000000e-01 3.0250001e+00 2.6500000e+01 
7.5000000e-01 3.0250001e+00 2.7000000e+01 
7.5000000e-01 3.0250001e+00 2.7500000e+01 
7.5000000e-01 3.0250001e+00 2.8000000e+01 
7.5000000e-01 3.0250001e+00 2.8500000e+01 
7.5000000e-01 3.0250001e+00 2.9000000e+01 
7.5000000e-01 3.0250001e+00 2.9500000e+01 
7.5000000e-01 3.0250001e+00 3.0000000e+01 
7.5000000e-01 3.0250001e+00 3.0500000e+01 
7.5000000e-01 3.0250001e+00 3.1000000e+01 
7.5000000e-01 3.0250001e+00 3.1500000e+01 
7.5000000e-01 3.0250001e+00 3.2000000e+01 
7.5000000e-01 3.0250001e+00 3.2500000e+01 
7.5000000e-01 3.0250001e+00 3.3000000e+01 
7.5000000e-01 3.0250001e+00 3.3500000e+01 
7.5000000e-01 3.0250001e+00 3.4000000e+01 
7.5000000e-01 3.0250001e+00 3.4500000e+01 
7.5000000e-01 3.0250001e+00 3.5000000e+01 
7.5000000e-01 3.0250001e+00 3.5500000e+01 
7.5000000e-01 3.0250001e+00 3.6000000e+01 
7.5000000e-01 3.0250001e+00 3.6500000e+01 
7.5000000e-01 3.0250001e+00 3.7000000e+01 
7.5000000e-01 3.0250001e+00 3.7500000e+01 
7.5000000e-01 3.0250001e+00 3.8000000e+01 
7.5000000e-01 3.0250001e+00 3.8500000e+01 
7.5000000e-01 3.0250001e+00 3.9000000e+01 
7.5000000e-01 3.0250001e+00 3.9500000e+01 
7.5000000e-01 3.0250001e+00 4.0000000e+01 
3.0000000e+00 2.0000000e+00 3.6000000e+01 
8.0487806e-01 3.0000000e+00 3.6000000e+01 
0.0000000e+00 0.0000000e+00 2.0000000e+00 
0.0000000e+00 0.0000000e+00 4.0000000e+00 
0.0000000e+00 0.0000000e+00 6.0000000e+00 
0.0000000e+00 0.0000000e+00 8.0000000e+00 
0.0000000e+00 0.0000000e+00 1.0000000e+01 
0.0000000e+00 0.0000000e+00 1.2000000e+01 
0.0000000e+00 0.0000000e+00 1.4000000e+01 
0.0000000e+00 0.0000000e+00 1.6000000e+01 
0.0000000e+00 0.0000000e+00 1.8000000e+01 
0.0000000e+00 0.0000000e+00 2.0000000e+01 
0.0000000e+00 0.0000000e+00 2.2000000e+01 
0.0000000e+00 0.0000000e+00 2.4000000e+01 
0.0000000e+00 0.0000000e+00 2.6000000e+01 
0.0000000e+00 0.0000000e+00 2.8000000e+01 
0.0000000e+00 0.0000000e+00 3.0000000e+01 
0.0000000e+00 0.0000000e+00 3.2000000e+01 
0.0000000e+00 0.0000000e+00 3.4000000e+01 
0.0000000e+00 0.0000000e+00 3.6000000e+01 
0.0000000e+00 0.0000000e+00 3.8000000e+01 
5.0000000e+00 0.0000000e+00 2.0000000e+00 
5.0000000e+00 0.0000000e+00 4.0000000e+00 
5.0000000e+00 0.0000000e+00 6.0000000e+00 
5.0000000e+00 0.0000000e+00 8.0000000e+00 
5.0000000e+00 0.0000000e+00 1.0000000e+01 
5.0000000e+00 0.0000000e+00 1.2000000e+01 
5.0000000e+00 0.0000000e+00 1.4000000e+01 
5.0000000e+00 0.0000000e+00 1.6000000e+01 
5.0000000e+00 0.0000000e+00 1.8000000e+01 
5.0000000e+00 0.0000000e+00 2.0000000e+01 
5.0000000e+00 0.0000000e+00 2.2000000e+01 
5.0000000e+00 0.0000000e+00 2.4000000e+01 
5.0000000e+00 0.0000000e+00 2.6000000e+01 
5.0000000e+00 0.0000000e+00 2.8000000e+01 
5.0000000e+00 0.0000000e+00 3.0000000e+01 
5.0000000e+00 0.0000000e+00 3.2000000e+01 
5.0000000e+00 0.0000000e+00 3.4000000e+01 
5.0000000e+00 0.0000000e+00 3.6000000e+01 
5.0000000e+00 0.0000000e+00 3.8000000e+01 
1.6666666e+00 0.0000000e+00 0.0000000e+00 
3.3333333e+00 0.0000000e+00 0.0000000e+00 
1.6666666e+00 0.0000000e+00 4.0000000e+01 
3.3333333e+00 0.0000000e+00 4.0000000e+01 
5.0000000e+00 1.0000000e+00 2.0000000e+00 
5.0000000e+00 1.0000000e+00 4.0000000e+00 
5.0000000e+00 1.0000000e+00 6.0000000e+00 
5.0000000e+00 1.0000000e+00 8.0000000e+00 
5.0000000e+00 1.0000000e+00 1.0000000e+01 
5.0000000e+00 1.0000000e+00 1.2000000e+01 
[...]
POINT_DATA 621
FIELD FieldData 3
DISPLACEMENT 3 621  float
0.0000000e+00 0.0000000e+00 0.0000000e+00 
0.0000000e+00 0.0000000e+00 0.0000000e+00 
0.0000000e+00 0.0000000e+00 0.0000000e+00 
0.0000000e+00 0.0000000e+00 0.0000000e+00 
6.3231578e-06 -4.9603177e-06 8.3001663e-07 
3.5559635e-05 -3.3442622e-05 -2.8598992e-05 
0.0000000e+00 -1.5847407e-05 0.0000000e+00 
0.0000000e+00 -1.4996954e-04 0.0000000e+00 
7.8717840e-06 -6.6689158e-06 -4.0879231e-06 
5.7421708e-05 -7.4914256e-05 -1.1879192e-05 
2.0241266e-06 -1.3224619e-05 -1.5096736e-05 
2.4438739e-05 -3.9589096e-08 2.3940920e-04 
0.0000000e+00 -2.7788312e-05 0.0000000e+00 
0.0000000e+00 -8.6025579e-04 0.0000000e+00 
-1.4217083e-05 -3.2882235e-05 -6.1429622e-05 
-2.2461958e-04 -1.3669522e-03 1.8125950e-04 
-2.0988931e-05 -2.9483979e-07 -5.0265800e-05 
1.4704544e-04 -4.8988718e-03 3.3768019e-04 
0.0000000e+00 -4.2142401e-05 0.0000000e+00 
0.0000000e+00 -2.4074516e-03 0.0000000e+00 
-1.3273929e-05 4.9317396e-06 -4.5735305e-05 
-7.9691663e-06 1.7145328e-05 -3.8518134e-05 
-4.2508809e-06 3.0564133e-05 -2.8798944e-05 
2.4234546e-06 4.1100971e-05 -1.3770663e-05 
6.7971100e-06 4.5631903e-05 2.3311575e-06 
1.2323106e-05 4.1790769e-05 1.6750950e-05 
1.0462681e-05 2.9998031e-05 2.6979171e-05 
8.8093766e-06 1.2086817e-05 3.1592099e-05 
7.7971772e-06 -9.7453658e-06 3.1501473e-05 
1.0253113e-05 -3.3080782e-05 3.0377190e-05 
1.4106186e-05 -5.5603930e-05 3.3693283e-05 
1.3304651e-05 -7.4645686e-05 3.8174418e-05 
3.0592253e-06 -8.7803586e-05 3.8584505e-05 
-8.3214545e-06 -9.3747723e-05 3.1710530e-05 
-1.2993388e-05 -9.1652888e-05 2.2623459e-05 
-1.5260735e-05 -8.2540515e-05 7.2648513e-06 
-1.8170174e-05 -6.6573120e-05 -1.1869864e-05 
-2.0437335e-05 -4.7200734e-05 -2.3665363e-05 
-2.0525951e-05 -2.6526857e-05 -2.7040673e-05 
-1.9792178e-05 -5.8988171e-06 -2.3750508e-05 
-1.3780127e-05 1.3304751e-05 -1.8147932e-05 
-9.1804732e-06 3.0531446e-05 -1.3911453e-05 
-3.0094400e-06 4.5211254e-05 -1.9301860e-05 
7.7059121e-06 5.7596419e-05 -2.4711950e-05 
1.8195564e-05 6.7728426e-05 -2.2444481e-05 
2.6720503e-05 7.6456905e-05 -1.5151247e-05 
3.3123626e-05 8.5061067e-05 -8.6739674e-06 
3.8029619e-05 9.4823597e-05 4.7462058e-07 
4.2268955e-05 1.0563125e-04 6.3745306e-06 
4.3028220e-05 1.1192791e-04 1.5394025e-05 
3.5871395e-05 1.0279154e-04 3.3657172e-05 
2.0435191e-05 5.0347931e-05 5.3148564e-05 
-2.4000443e-05 -8.6120526e-05 8.9651221e-05 
-3.9692270e-05 -3.4891718e-04 1.2211724e-04 
-6.7277491e-05 -8.0294546e-04 1.6656623e-04 
-1.2650597e-04 -1.4942011e-03 1.0785770e-04 
-2.8139321e-04 -2.4438272e-03 1.8526304e-04 
-2.9291975e-04 -3.4708125e-03 1.6292234e-04 
-1.8738412e-04 -4.2628711e-03 9.8954442e-05 
-1.5942090e-04 -4.2533651e-03 1.1054960e-04 
-2.8924097e-04 -4.0254905e-03 4.0396597e-05 
-3.5367309e-04 -3.9587035e-03 2.2510023e-05 
-2.3973573e-04 -4.1686920e-03 -1.4487056e-05 
-8.1092614e-05 -4.1601798e-03 -5.9860926e-05 
-1.0222846e-04 -3.4486100e-03 -1.5627476e-04 
-1.8992416e-04 -2.4075133e-03 -1.8343075e-04 
-1.7973113e-04 -1.4969714e-03 -1.8033263e-04 
-5.2316140e-05 -8.0561568e-04 -1.2114495e-04 
-1.3426897e-05 -3.7088391e-04 -1.4836123e-04 
3.7730319e-06 -1.2173963e-04 -1.0798979e-04 
5.2110304e-06 9.3344242e-06 -7.8220939e-05 
1.4135202e-05 6.7924469e-05 -4.5494358e-05 
1.1202895e-05 7.4987525e-05 -2.4149898e-05 
3.0009778e-06 4.9518450e-05 -7.5628732e-06 
-5.6507724e-06 9.4065063e-06 -4.7110220e-07 
-1.2676596e-05 -2.2479160e-05 -8.9600790e-06 
-1.4955011e-05 -3.7933321e-05 -3.1744162e-06 
-2.0056283e-05 -4.2022843e-05 -5.3598583e-06 
-2.2718257e-05 -2.8307080e-05 -3.9634228e-06 
-4.0754396e-05 3.5679941e-06 4.2379088e-06 
-2.8812678e-05 5.1472380e-05 -7.7592586e-06 
-5.2852909e-07 8.3544102e-05 -2.9145976e-05 
2.2549935e-05 7.4606367e-05 -5.9635877e-05 
6.7635599e-05 3.0129750e-05 -8.9894384e-05 
4.3487933e-05 -3.3781984e-05 -6.4375214e-05 
2.2755661e-05 -9.0714195e-05 4.3987689e-06 
-3.1605112e-05 -1.3256731e-04 7.6644545e-05 
-7.1310802e-05 -1.2612491e-04 1.7397580e-04 
4.5171433e-05 -4.0606588e-05 1.5682615e-04 
5.9951839e-05 1.1215839e-04 6.9132286e-05 
1.3032024e-04 3.1727823e-04 1.6179476e-05 
1.1017562e-04 4.6553550e-04 -2.4537443e-05 
1.8719044e-05 4.5385642e-04 -2.7377258e-05 
6.9652597e-05 1.9377233e-04 -9.9523451e-05 
2.1779275e-04 -4.0216596e-04 -2.3059007e-04 
-5.7478846e-05 -1.3366301e-03 2.4584459e-05 
-1.4507823e-04 -2.5062093e-03 1.7065852e-04 
-1.4038313e-04 -3.7148937e-03 1.2079250e-04 
8.4130646e-05 -4.5956862e-03 6.8767200e-05 
0.0000000e+00 -4.9388003e-08 0.0000000e+00 
0.0000000e+00 5.0312842e-06 0.0000000e+00 
0.0000000e+00 1.7051721e-05 0.0000000e+00 
0.0000000e+00 3.0516087e-05 0.0000000e+00 
0.0000000e+00 4.1071555e-05 0.0000000e+00 
0.0000000e+00 4.5497003e-05 0.0000000e+00 
0.0000000e+00 4.1733369e-05 0.0000000e+00 
0.0000000e+00 2.9995370e-05 0.0000000e+00 
0.0000000e+00 1.2079172e-05 0.0000000e+00 
0.0000000e+00 -9.7429020e-06 0.0000000e+00 
0.0000000e+00 -3.3105294e-05 0.0000000e+00 
0.0000000e+00 -5.5603505e-05 0.0000000e+00 
0.0000000e+00 -7.4617019e-05 0.0000000e+00 
0.0000000e+00 -8.7797620e-05 0.0000000e+00 
0.0000000e+00 -9.3685405e-05 0.0000000e+00 
0.0000000e+00 -9.1699709e-05 0.0000000e+00 
0.0000000e+00 -8.2373357e-05 0.0000000e+00 
0.0000000e+00 -6.6642431e-05 0.0000000e+00 
0.0000000e+00 -4.7267771e-05 0.0000000e+00 
0.0000000e+00 -2.6536318e-05 0.0000000e+00 
0.0000000e+00 -5.9386871e-06 0.0000000e+00 
0.0000000e+00 1.3304146e-05 0.0000000e+00 
0.0000000e+00 3.0503716e-05 0.0000000e+00 
0.0000000e+00 4.5233915e-05 0.0000000e+00 
0.0000000e+00 5.7569861e-05 0.0000000e+00 
0.0000000e+00 6.7723500e-05 0.0000000e+00 
0.0000000e+00 7.6476063e-05 0.0000000e+00 
0.0000000e+00 8.5131716e-05 0.0000000e+00 
0.0000000e+00 9.5066542e-05 0.0000000e+00 
0.0000000e+00 1.0593314e-04 0.0000000e+00 
0.0000000e+00 1.1288461e-04 0.0000000e+00 
0.0000000e+00 1.0349400e-04 0.0000000e+00 
0.0000000e+00 5.0528964e-05 0.0000000e+00 
0.0000000e+00 -8.4909778e-05 0.0000000e+00 
0.0000000e+00 -3.4955738e-04 0.0000000e+00 
0.0000000e+00 -8.0451061e-04 0.0000000e+00 
0.0000000e+00 -1.5039106e-03 0.0000000e+00 
0.0000000e+00 -2.4517763e-03 0.0000000e+00 
0.0000000e+00 -3.5040476e-03 0.0000000e+00 
0.0000000e+00 -4.2878035e-03 0.0000000e+00 
0.0000000e+00 -4.2849458e-03 0.0000000e+00 
0.0000000e+00 -4.0396755e-03 0.0000000e+00 
0.0000000e+00 -3.9894027e-03 0.0000000e+00 
0.0000000e+00 -4.1884459e-03 0.0000000e+00 
0.0000000e+00 -4.1942894e-03 0.0000000e+00 
0.0000000e+00 -3.4663770e-03 0.0000000e+00 
0.0000000e+00 -2.4254576e-03 0.0000000e+00 
0.0000000e+00 -1.4992728e-03 0.0000000e+00 
0.0000000e+00 -8.1031671e-04 0.0000000e+00 
0.0000000e+00 -3.7083554e-04 0.0000000e+00 
0.0000000e+00 -1.2047978e-04 0.0000000e+00 
0.0000000e+00 1.0819263e-05 0.0000000e+00 
0.0000000e+00 6.8418463e-05 0.0000000e+00 
0.0000000e+00 7.5001240e-05 0.0000000e+00 
0.0000000e+00 4.8953392e-05 0.0000000e+00 
0.0000000e+00 1.0011171e-05 0.0000000e+00 
0.0000000e+00 -2.1645799e-05 0.0000000e+00 
0.0000000e+00 -3.8412469e-05 0.0000000e+00 
0.0000000e+00 -4.1886262e-05 0.0000000e+00 
0.0000000e+00 -2.8234064e-05 0.0000000e+00 
0.0000000e+00 5.2259097e-06 0.0000000e+00 
0.0000000e+00 5.1407638e-05 0.0000000e+00 
0.0000000e+00 8.2007755e-05 0.0000000e+00 
0.0000000e+00 7.3930285e-05 0.0000000e+00 
0.0000000e+00 2.9289253e-05 0.0000000e+00 
0.0000000e+00 -3.2963402e-05 0.0000000e+00 
0.0000000e+00 -9.1494003e-05 0.0000000e+00 
0.0000000e+00 -1.3233315e-04 0.0000000e+00 
0.0000000e+00 -1.2456042e-04 0.0000000e+00 
0.0000000e+00 -4.0595256e-05 0.0000000e+00 
0.0000000e+00 1.1713376e-04 0.0000000e+00 
0.0000000e+00 3.1743129e-04 0.0000000e+00 
0.0000000e+00 4.6523506e-04 0.0000000e+00 
0.0000000e+00 4.5467910e-04 0.0000000e+00 
0.0000000e+00 1.8965553e-04 0.0000000e+00 
0.0000000e+00 -4.0823480e-04 0.0000000e+00 
0.0000000e+00 -1.3417574e-03 0.0000000e+00 
0.0000000e+00 -2.5148871e-03 0.0000000e+00 
0.0000000e+00 -3.7438613e-03 0.0000000e+00 
0.0000000e+00 -4.6557700e-03 0.0000000e+00 
0.0000000e+00 -4.9106497e-03 0.0000000e+00 
-2.8373624e-05 -8.8586745e-07 9.6377225e-05 
7.7894096e-05 4.1359747e-04 3.2098956e-06 
0.0000000e+00 0.0000000e+00 0.0000000e+00 
0.0000000e+00 0.0000000e+00 0.0000000e+00 
0.0000000e+00 0.0000000e+00 0.0000000e+00 
0.0000000e+00 0.0000000e+00 0.0000000e+00 
0.0000000e+00 0.0000000e+00 0.0000000e+00 
0.0000000e+00 0.0000000e+00 0.0000000e+00 
0.0000000e+00 0.0000000e+00 0.0000000e+00 
0.0000000e+00 0.0000000e+00 0.0000000e+00 
0.0000000e+00 0.0000000e+00 0.0000000e+00 
0.0000000e+00 0.0000000e+00 0.0000000e+00 
0.0000000e+00 0.0000000e+00 0.0000000e+00 
0.0000000e+00 0.0000000e+00 0.0000000e+00 
0.0000000e+00 0.0000000e+00 0.0000000e+00 
0.0000000e+00 0.0000000e+00 0.0000000e+00 
0.0000000e+00 0.0000000e+00 0.0000000e+00 
0.0000000e+00 0.0000000e+00 0.0000000e+00 
0.0000000e+00 0.0000000e+00 0.0000000e+00 
0.0000000e+00 0.0000000e+00 0.0000000e+00 
0.0000000e+00 0.0000000e+00 0.0000000e+00 
0.0000000e+00 0.0000000e+00 0.0000000e+00 
0.0000000e+00 0.0000000e+00 0.0000000e+00 
0.0000000e+00 0.0000000e+00 0.0000000e+00 
0.0000000e+00 0.0000000e+00 0.0000000e+00 
0.0000000e+00 0.0000000e+00 0.0000000e+00 
0.0000000e+00 0.0000000e+00 0.0000000e+00 
0.0000000e+00 0.0000000e+00 0.0000000e+00 
0.0000000e+00 0.0000000e+00 0.0000000e+00 
0.0000000e+00 0.0000000e+00 0.0000000e+00 
0.0000000e+00 0.0000000e+00 0.0000000e+00 
0.0000000e+00 0.0000000e+00 0.0000000e+00 
0.0000000e+00 0.0000000e+00 0.0000000e+00 
0.0000000e+00 0.0000000e+00 0.0000000e+00 
0.0000000e+00 0.0000000e+00 0.0000000e+00 
0.0000000e+00 0.0000000e+00 0.0000000e+00 
0.0000000e+00 0.0000000e+00 0.0000000e+00 
0.0000000e+00 0.0000000e+00 0.0000000e+00 
0.0000000e+00 0.0000000e+00 0.0000000e+00 
0.0000000e+00 0.0000000e+00 0.0000000e+00 
0.0000000e+00 0.0000000e+00 0.0000000e+00 
0.0000000e+00 0.0000000e+00 0.0000000e+00 
0.0000000e+00 0.0000000e+00 0.0000000e+00 
0.0000000e+00 0.0000000e+00 0.0000000e+00 
-9.5201256e-07 2.1445976e-06 5.3449156e-07 
-1.8927774e-06 2.8949833e-06 -1.8038005e-06 
2.2677641e-06 -5.1337821e-07 1.2822017e-06 
4.3219266e-06 -2.7734973e-06 3.9195220e-06 
-1.8167818e-06 -2.5618208e-06 6.7923097e-06 
-8.3487539e-06 6.2407707e-07 1.6354853e-06 
-4.2664906e-06 7.7452808e-07 -6.6442180e-06 
1.1203267e-05 -3.0974875e-06 -1.1559759e-05 
3.6264544e-05 -7.8927969e-06 -1.3348897e-05 
5.3630294e-05 -7.5404209e-06 -3.4223590e-06 
4.6739126e-05 -4.8871325e-06 7.9824968e-06 
2.2302651e-05 -3.2272851e-06 4.9620699e-06 
5.9802419e-06 -1.8506566e-06 3.1730383e-06 
-7.0309386e-07 2.7874701e-06 2.1429994e-06 
6.3514210e-07 -3.2697669e-06 6.2467384e-06 
-2.4605932e-05 -6.1194255e-06 7.1595146e-06 
1.3918901e-05 3.8446215e-05 -1.4951044e-05 
-1.8280731e-05 -2.8112398e-05 3.5498215e-05 
-4.9361042e-05 -1.6656062e-05 4.2011434e-05 
0.0000000e+00 1.5987142e-05 0.0000000e+00 
0.0000000e+00 6.1158794e-06 0.0000000e+00 
0.0000000e+00 -2.0431526e-05 0.0000000e+00 
0.0000000e+00 -2.8096623e-05 0.0000000e+00 
0.0000000e+00 -6.7305069e-07 0.0000000e+00 
0.0000000e+00 1.6680044e-05 0.0000000e+00 
0.0000000e+00 2.9791572e-05 0.0000000e+00 
0.0000000e+00 -2.8938136e-06 0.0000000e+00 
0.0000000e+00 -2.3141940e-04 0.0000000e+00 
0.0000000e+00 -5.6458369e-04 0.0000000e+00 
0.0000000e+00 -5.0983013e-04 0.0000000e+00 
0.0000000e+00 -1.5081336e-04 0.0000000e+00 
0.0000000e+00 -6.2437348e-06 0.0000000e+00 
0.0000000e+00 1.3786796e-05 0.0000000e+00 
0.0000000e+00 -3.9155206e-05 0.0000000e+00 
0.0000000e+00 8.5785759e-05 0.0000000e+00 
0.0000000e+00 -1.3064897e-04 0.0000000e+00 
0.0000000e+00 2.6702156e-04 0.0000000e+00 
0.0000000e+00 7.7542871e-05 0.0000000e+00 
3.0233643e-06 -6.1350920e-06 -2.8024815e-06 
1.6170812e-06 -1.4808245e-05 -7.1320324e-06 
-3.1535405e-05 -3.7506143e-05 1.2619235e-04 
-2.6487207e-05 -3.4767218e-05 5.8274345e-05 
1.1223751e-06 1.7347824e-06 -1.7794089e-06 
-2.1395658e-06 2.9301762e-06 -1.9893479e-07 
5.2907569e-07 -3.9696829e-08 3.9812935e-06 
1.9737245e-06 -3.2531270e-06 6.1143646e-06 
-2.1949329e-06 -4.9434757e-06 5.7474062e-06 
-6.6349648e-06 9.5394830e-07 1.2967486e-07 
-2.0952878e-06 2.0716961e-06 -9.6346312e-06 
2.2054717e-05 -3.0881693e-06 -1.4066155e-05 
3.5174642e-05 -6.2806425e-06 -7.1243380e-06 
3.7729347e-05 -6.2182235e-06 -2.2893819e-06 
2.7816601e-05 -2.1637152e-06 7.2790294e-06 
1.3871316e-05 -5.8008787e-08 -1.7768082e-06 
5.7773323e-06 -1.8920223e-06 3.2303092e-06 
5.6989393e-06 7.6054555e-08 -5.1958034e-07 
-1.3826826e-05 -8.6539001e-07 1.0879639e-05 
2.0498357e-05 -1.7030212e-05 -1.5389045e-05 
-2.9413939e-05 4.8786860e-05 1.8339646e-05 
-4.3532709e-05 -5.0947434e-05 2.2817607e-05 
-2.5979349e-05 -4.8393016e-05 3.9902730e-05 
-7.0191447e-08 -1.8835335e-05 -2.0202870e-05 
0.0000000e+00 3.1360378e-05 0.0000000e+00 
0.0000000e+00 1.2055966e-05 0.0000000e+00 
0.0000000e+00 -3.9063219e-05 0.0000000e+00 
0.0000000e+00 -5.1855255e-05 0.0000000e+00 
0.0000000e+00 6.5748361e-07 0.0000000e+00 
0.0000000e+00 3.0696167e-05 0.0000000e+00 
0.0000000e+00 5.4113512e-05 0.0000000e+00 
0.0000000e+00 7.4060395e-06 0.0000000e+00 
0.0000000e+00 -4.8402150e-04 0.0000000e+00 
0.0000000e+00 -1.2491631e-03 0.0000000e+00 
0.0000000e+00 -1.1342096e-03 0.0000000e+00 
0.0000000e+00 -2.8098407e-04 0.0000000e+00 
0.0000000e+00 1.7983146e-07 0.0000000e+00 
0.0000000e+00 2.8352490e-06 0.0000000e+00 
0.0000000e+00 -4.9138009e-05 0.0000000e+00 
0.0000000e+00 1.4956872e-04 0.0000000e+00 
0.0000000e+00 -2.8232750e-04 0.0000000e+00 
0.0000000e+00 4.7186873e-04 0.0000000e+00 
0.0000000e+00 3.8944981e-05 0.0000000e+00 
1.3682194e-04 -2.0243014e-04 7.5979959e-05 
-1.2854462e-06 3.9638886e-05 -2.0371062e-05 
9.9241561e-06 4.4433818e-06 4.4867254e-05 
1.3122407e-05 -6.0590111e-05 4.9119586e-05 
-2.2789091e-05 -6.0442111e-05 3.2876824e-06 
-2.4809600e-05 -6.4066667e-06 -2.9253999e-05 
5.4613561e-06 4.4282420e-05 -4.7758247e-05 
5.9990980e-05 4.4152810e-05 8.6456561e-07 
4.1168369e-05 6.7499932e-05 8.2558705e-05 
-2.9074287e-04 -4.5852043e-04 3.0704742e-04 
-7.2625832e-04 -1.3935000e-03 1.0435716e-04 
-6.2692096e-04 -1.4154816e-03 -1.5568399e-04 
-1.2164381e-04 -2.4265370e-04 -2.4995388e-04 
3.0052626e-05 1.3083382e-05 -4.8168680e-05 
-2.2135995e-05 1.4038908e-05 -6.8900758e-06 
-1.5746079e-06 -9.7973338e-05 7.4637856e-06 
-5.1700139e-05 2.1657007e-04 -1.4085110e-04 
1.4630071e-04 -3.1104093e-04 2.3324355e-04 
-3.9407507e-05 1.5262168e-04 1.6003320e-05 
7.3999821e-05 3.7304108e-04 1.3078458e-04 
0.0000000e+00 4.4886296e-05 0.0000000e+00 
0.0000000e+00 1.7028531e-05 0.0000000e+00 
0.0000000e+00 -6.7195309e-05 0.0000000e+00 
0.0000000e+00 -7.2346244e-05 0.0000000e+00 
0.0000000e+00 3.1202524e-06 0.0000000e+00 
0.0000000e+00 4.3872747e-05 0.0000000e+00 
0.0000000e+00 7.4735057e-05 0.0000000e+00 
0.0000000e+00 5.2409596e-05 0.0000000e+00 
0.0000000e+00 -9.0134132e-04 0.0000000e+00 
0.0000000e+00 -2.4182501e-03 0.0000000e+00 
0.0000000e+00 -2.1601291e-03 0.0000000e+00 
0.0000000e+00 -4.8183333e-04 0.0000000e+00 
0.0000000e+00 3.5161182e-05 0.0000000e+00 
0.0000000e+00 4.5976239e-07 0.0000000e+00 
0.0000000e+00 -6.1639871e-06 0.0000000e+00 
0.0000000e+00 2.7595717e-05 0.0000000e+00 
0.0000000e+00 -2.2057655e-04 0.0000000e+00 
0.0000000e+00 3.8312044e-04 0.0000000e+00 
0.0000000e+00 -3.1237002e-04 0.0000000e+00 
-3.4847340e-06 1.1189882e-05 -8.2277147e-06 
-1.6944772e-07 2.2629481e-06 4.4057638e-06 
3.2994997e-06 -1.4940652e-05 1.1978354e-05 
-4.1599860e-06 -1.8533279e-05 5.0785279e-06 
-1.3491752e-05 -2.4044095e-06 2.6201617e-08 
-6.7099568e-06 1.0695958e-05 -7.7051909e-06 
1.0817297e-05 1.3844370e-05 -1.2982086e-06 
2.5701589e-05 3.0995201e-05 1.1829494e-05 
5.7148318e-05 -5.1114912e-05 3.0300623e-06 
5.3236996e-05 -1.0466245e-04 -9.1815473e-06 
4.0029860e-05 -9.8566641e-05 -6.0346508e-08 
3.9556700e-05 -5.0911418e-05 -2.4986255e-06 
3.8648159e-06 2.1557371e-06 -8.9893256e-06 
-4.0245932e-06 1.3277352e-05 -5.9634212e-06 
-2.7010112e-05 -4.7116082e-05 2.8286308e-06 
5.2488576e-06 1.1610603e-04 -2.2861363e-05 
-3.7073303e-05 -1.2017950e-04 8.0717713e-05 
2.9149907e-05 2.0160954e-04 1.0350444e-04 
-1.1718636e-04 7.8860765e-05 7.2027418e-05 
0.0000000e+00 0.0000000e+00 0.0000000e+00 
0.0000000e+00 0.0000000e+00 0.0000000e+00 
0.0000000e+00 0.0000000e+00 0.0000000e+00 
0.0000000e+00 0.0000000e+00 0.0000000e+00 
0.0000000e+00 0.0000000e+00 0.0000000e+00 
0.0000000e+00 0.0000000e+00 0.0000000e+00 
0.0000000e+00 0.0000000e+00 0.0000000e+00 
0.0000000e+00 0.0000000e+00 0.0000000e+00 
0.0000000e+00 0.0000000e+00 0.0000000e+00 
0.0000000e+00 0.0000000e+00 0.0000000e+00 
0.0000000e+00 0.0000000e+00 0.0000000e+00 
0.0000000e+00 0.0000000e+00 0.0000000e+00 
0.0000000e+00 0.0000000e+00 0.0000000e+00 
0.0000000e+00 0.0000000e+00 0.0000000e+00 
0.0000000e+00 0.0000000e+00 0.0000000e+00 
0.0000000e+00 0.0000000e+00 0.0000000e+00 
0.0000000e+00 0.0000000e+00 0.0000000e+00 
0.0000000e+00 0.0000000e+00 0.0000000e+00 
0.0000000e+00 0.0000000e+00 0.0000000e+00 
0.0000000e+00 0.0000000e+00 0.0000000e+00 
0.0000000e+00 0.0000000e+00 0.0000000e+00 
0.0000000e+00 0.0000000e+00 0.0000000e+00 
0.0000000e+00 0.0000000e+00 0.0000000e+00 
0.0000000e+00 0.0000000e+00 0.0000000e+00 
0.0000000e+00 0.0000000e+00 0.0000000e+00 
0.0000000e+00 0.0000000e+00 0.0000000e+00 
0.0000000e+00 0.0000000e+00 0.0000000e+00 
0.0000000e+00 0.0000000e+00 0.0000000e+00 
0.0000000e+00 0.0000000e+00 0.0000000e+00 
0.0000000e+00 0.0000000e+00 0.0000000e+00 
0.0000000e+00 0.0000000e+00 0.0000000e+00 
0.0000000e+00 0.0000000e+00 0.0000000e+00 
0.0000000e+00 0.0000000e+00 0.0000000e+00 
0.0000000e+00 0.0000000e+00 0.0000000e+00 
0.0000000e+00 0.0000000e+00 0.0000000e+00 
0.0000000e+00 0.0000000e+00 0.0000000e+00 
0.0000000e+00 0.0000000e+00 0.0000000e+00 
0.0000000e+00 0.0000000e+00 0.0000000e+00 
0.0000000e+00 0.0000000e+00 0.0000000e+00 
0.0000000e+00 0.0000000e+00 0.0000000e+00 
0.0000000e+00 0.0000000e+00 0.0000000e+00 
0.0000000e+00 0.0000000e+00 0.0000000e+00 
6.8071023e-07 -3.3100332e-07 1.6178431e-06 
-3.5773433e-06 -7.0393916e-08 -1.4524497e-06 
2.7618293e-05 -1.0101914e-05 -4.5362262e-06 
2.1068141e-05 -8.3503983e-06 3.2162131e-06 
6.4006967e-06 -2.7429567e-06 1.6950994e-06 
3.8469983e-07 -2.4855089e-07 9.1174661e-07 
2.2334884e-06 1.6842824e-06 2.3239456e-06 
-9.2092087e-06 -3.8537348e-07 6.8201307e-06 
-7.0844940e-06 7.3608630e-06 5.6446397e-06 
6.9526195e-06 6.8671652e-06 -6.3507332e-06 
-2.6338754e-05 -3.0813678e-06 2.8453687e-05 
-1.9449311e-05 -5.8337223e-06 5.3744675e-06 
-1.1539762e-06 1.5169062e-06 2.4867422e-08 
1.6071048e-07 7.3332774e-07 -7.4324765e-07 
2.8538836e-06 -1.7660802e-06 1.5269244e-06 
1.8022241e-06 -9.7059581e-07 3.0584154e-06 
-3.4692553e-06 7.4585323e-08 2.3793941e-06 
1.2370979e-06 -2.6877095e-07 -3.0375006e-06 
1.0080144e-05 -7.2114385e-06 -8.0522395e-06 
2.5905298e-05 -8.6992704e-06 2.2627255e-06 
-2.0805996e-06 7.3504343e-06 -2.6305440e-06 
-3.6881251e-05 1.0965366e-04 2.8574948e-05 
2.8300390e-06 -4.3782893e-06 3.3633794e-06 
-2.8199308e-06 -5.5724513e-06 5.3924809e-06 
-3.8107084e-06 5.5824321e-06 -1.9023408e-06 
3.6614434e-05 1.0934826e-05 -1.4891802e-05 
8.7092420e-05 -2.3034727e-05 3.8155645e-07 
2.1347872e-05 -1.4782469e-06 1.2018742e-05 
-3.8564422e-06 -1.3998328e-05 -5.3145995e-06 
1.2581903e-05 1.3961182e-05 -3.8143746e-05 
2.6821217e-06 -2.2527791e-05 5.2229975e-06 
-7.3794795e-06 6.7578108e-06 3.9168681e-06 
1.4298259e-05 1.5993497e-05 -3.2609234e-06 
1.1712287e-04 -2.3955117e-04 -3.9912487e-05 
9.0970505e-05 -1.9747927e-04 4.2013118e-05 
2.9416124e-06 3.1043928e-07 6.5843500e-07 
-3.6131560e-06 2.7166921e-05 1.0076539e-05 
4.5567785e-06 -8.1953331e-05 4.2871576e-05 
-3.7751055e-05 2.5548131e-04 6.0908609e-05 
-3.3694200e-06 4.9944733e-06 -3.2821715e-06 
-6.7959598e-05 2.3602202e-05 8.9983783e-05 
-1.7155404e-06 1.3291570e-05 -1.4415240e-06 
3.7072264e-06 -6.8182467e-06 4.4906128e-06 
-7.5472099e-06 1.1426263e-06 2.4847102e-06 
7.1027252e-06 8.1615754e-06 -1.3282928e-06 
5.4091968e-05 -1.9176845e-05 -9.2088412e-06 
4.1367868e-05 -2.0372492e-05 5.8741366e-06 
5.2274987e-07 1.9767529e-06 8.7738681e-07 
-1.6567568e-05 6.8270192e-06 1.2454566e-05 