# vtk DataFile Version 4.0
vtk output
ASCII
DATASET UNSTRUCTURED_GRID
POINTS 661 float
0.0000000e+00 0.0000000e+00 0.0000000e+00 
0.0000000e+00 0.0000000e+00 4.0000000e+01 
5.0000000e+00 0.0000000e+00 0.0000000e+00 
5.0000000e+00 0.0000000e+00 4.0000000e+01 
5.0000000e+00 1.0000000e+00 0.0000000e+00 
5.0000000e+00 1.0000000e+00 4.0000000e+01 
0.0000000e+00 1.0000000e+00 0.0000000e+00 
0.0000000e+00 1.0000000e+00 4.0000000e+01 
5.0000000e+00 2.0000000e+00 0.0000000e+00 
5.0000000e+00 2.0000000e+00 4.0000000e+01 
3.0000000e+00 2.0000000e+00 0.0000000e+00 
3.0000000e+00 2.0000000e+00 4.0000000e+01 
0.0000000e+00 2.0000000e+00 0.0000000e+00 
0.0000000e+00 2.0000000e+00 4.0000000e+01 
1.5000000e+00 3.0000000e+00 0.0000000e+00 
1.5000000e+00 3.0000000e+00 4.0000000e+01 
7.5000000e-01 3.0000000e+00 0.0000000e+00 
7.5000000e-01 3.0000000e+00 4.0000000e+01 
0.0000000e+00 3.0000000e+00 0.0000000e+00 
0.0000000e+00 3.0000000e+00 4.0000000e+01 
7.5000000e-01 3.0000000e+00 5.0000000e-01 
7.5000000e-01 3.0000000e+00 1.0000000e+00 
7.5000000e-01 3.0000000e+00 1.5000000e+00 
7.5000000e-01 3.0000000e+00 2.0000000e+00 
7.5000000e-01 3.0000000e+00 2.5000000e+00 
7.5000000e-01 3.0000000e+00 3.0000000e+00 
7.5000000e-01 3.0000000e+00 3.5000000e+00 
7.5000000e-01 3.0000000e+00 4.0000000e+00 
7.5000000e-01 3.0000000e+00 4.5000000e+00 
7.5000000e-01 3.0000000e+00 5.0000000e+00 
7.5000000e-01 3.0000000e+00 5.5000000e+00 
7.5000000e-01 3.0000000e+00 6.0000000e+00 
7.5000000e-01 3.0000000e+00 6.5000000e+00 
7.5000000e-01 3.0000000e+00 7.0000000e+00 
7.5000000e-01 3.0000000e+00 7.5000000e+00 
7.5000000e-01 3.0000000e+00 8.0000000e+00 
7.5000000e-01 3.0000000e+00 8.5000000e+00 
7.5000000e-01 3.0000000e+00 9.0000000e+00 
7.5000000e-01 3.0000000e+00 9.5000000e+00 
7.5000000e-01 3.0000000e+00 1.0000000e+01 
7.5000000e-01 3.0000000e+00 1.0500000e+01 
7.5000000e-01 3.0000000e+00 1.1000000e+01 
7.5000000e-01 3.0000000e+00 1.1500000e+01 
7.5000000e-01 3.0000000e+00 1.2000000e+01 
7.5000000e-01 3.0000000e+00 1.2500000e+01 
7.5000000e-01 3.0000000e+00 1.3000000e+01 
7.5000000e-01 3.0000000e+00 1.3500000e+01 
7.5000000e-01 3.0000000e+00 1.4000000e+01 
7.5000000e-01 3.0000000e+00 1.4500000e+01 
7.5000000e-01 3.0000000e+00 1.5000000e+01 
7.5000000e-01 3.0000000e+00 1.5500000e+01 
7.5000000e-01 3.0000000e+00 1.6000000e+01 
7.5000000e-01 3.0000000e+00 1.6500000e+01 
7.5000000e-01 3.0000000e+00 1.7000000e+01 
7.5000000e-01 3.0000000e+00 1.7500000e+01 
7.5000000e-01 3.0000000e+00 1.8000000e+01 
7.5000000e-01 3.0000000e+00 1.8500000e+01 
7.5000000e-01 3.0000000e+00 1.9000000e+01 
7.5000000e-01 3.0000000e+00 1.9500000e+01 
7.5000000e-01 3.0000000e+00 2.0000000e+01 
7.5000000e-01 3.0000000e+00 2.0500000e+01 
7.5000000e-01 3.0000000e+00 2.1000000e+01 
7.5000000e-01 3.0000000e+00 2.1500000e+01 
7.5000000e-01 3.0000000e+00 2.2000000e+01 
7.5000000e-01 3.0000000e+00 2.2500000e+01 
7.5000000e-01 3.0000000e+00 2.3000000e+01 
7.5000000e-01 3.0000000e+00 2.3500000e+01 
7.5000000e-01 3.0000000e+00 2.4000000e+01 
7.5000000e-01 3.0000000e+00 2.4500000e+01 
7.5000000e-01 3.0000000e+00 2.5000000e+01 
7.5000000e-01 3.0000000e+00 2.5500000e+01 
7.5000000e-01 3.0000000e+00 2.6000000e+01 
7.5000000e-01 3.0000000e+00 2.6500000e+01 
7.5000000e-01 3.0000000e+00 2.7000000e+01 
7.5000000e-01 3.0000000e+00 2.7500000e+01 
7.5000000e-01 3.0000000e+00 2.8000000e+01 
7.5000000e-01 3.0000000e+00 2.8500000e+01 
7.5000000e-01 3.0000000e+00 2.9000000e+01 
7.5000000e-01 3.0000000e+00 2.9500000e+01 
7.5000000e-01 3.0000000e+00 3.0000000e+01 
7.5000000e-01 3.0000000e+00 3.0500000e+01 
7.5000000e-01 3.0000000e+00 3.1000000e+01 
7.5000000e-01 3.0000000e+00 3.1500000e+01 
7.5000000e-01 3.0000000e+00 3.2000000e+01 
7.5000000e-01 3.0000000e+00 3.2500000e+01 
7.5000000e-01 3.0000000e+00 3.3000000e+01 
7.5000000e-01 3.0000000e+00 3.3500000e+01 
7.5000000e-01 3.0000000e+00 3.4000000e+01 
7.5000000e-01 3.0000000e+00 3.4500000e+01 
7.5000000e-01 3.0000000e+00 3.5000000e+01 
7.5000000e-01 3.0000000e+00 3.5500000e+01 
7.5000000e-01 3.0000000e+00 3.6000000e+01 
7.5000000e-01 3.0000000e+00 3.6500000e+01 
7.5000000e-01 3.0000000e+00 3.7000000e+01 
7.5000000e-01 3.0000000e+00 3.7500000e+01 
7.5000000e-01 3.0000000e+00 3.8000000e+01 
7.5000000e-01 3.0000000e+00 3.8500000e+01 
7.5000000e-01 3.0000000e+00 3.9000000e+01 
7.5000000e-01 3.0000000e+00 3.9500000e+01 
7.5000000e-01 3.0000000e+00 4.0500000e+01 
7.5000000e-01 3.0000000e+00 4.1000000e+01 
7.5000000e-01 3.0000000e+00 4.1500000e+01 
7.5000000e-01 3.0000000e+00 4.2000000e+01 
7.5000000e-01 3.0000000e+00 4.2500000e+01 
7.5000000e-01 3.0000000e+00 4.3000000e+01 
7.5000000e-01 3.0000000e+00 4.3500000e+01 
7.5000000e-01 3.0000000e+00 4.4000000e+01 
7.5000000e-01 3.0000000e+00 4.4500000e+01 
7.5000000e-01 3.0000000e+00 4.5000000e+01 
7.5000000e-01 3.0000000e+00 4.5500000e+01 
7.5000000e-01 3.0000000e+00 4.6000000e+01 
7.5000000e-01 3.0000000e+00 4.6500000e+01 
7.5000000e-01 3.0000000e+00 4.7000000e+01 
7.5000000e-01 3.0000000e+00 4.7500000e+01 
7.5000000e-01 3.0000000e+00 4.8000000e+01 
7.5000000e-01 3.0000000e+00 4.8500000e+01 
7.5000000e-01 3.0000000e+00 4.9000000e+01 
7.5000000e-01 3.0000000e+00 4.9500000e+01 
7.5000000e-01 3.0000000e+00 5.0000000e+01 
7.5000000e-01 3.0250001e+00 0.0000000e+00 
7.5000000e-01 3.0250001e+00 5.0000000e-01 
7.5000000e-01 3.0250001e+00 1.0000000e+00 
7.5000000e-01 3.0250001e+00 1.5000000e+00 
7.5000000e-01 3.0250001e+00 2.0000000e+00 
7.5000000e-01 3.0250001e+00 2.5000000e+00 
7.5000000e-01 3.0250001e+00 3.0000000e+00 
7.5000000e-01 3.0250001e+00 3.5000000e+00 
7.5000000e-01 3.0250001e+00 4.0000000e+00 
7.5000000e-01 3.0250001e+00 4.5000000e+00 
7.5000000e-01 3.0250001e+00 5.0000000e+00 
7.5000000e-01 3.0250001e+00 5.5000000e+00 
7.5000000e-01 3.0250001e+00 6.0000000e+00 
7.5000000e-01 3.0250001e+00 6.5000000e+00 
7.5000000e-01 3.0250001e+00 7.0000000e+00 
7.5000000e-01 3.0250001e+00 7.5000000e+00 
7.5000000e-01 3.0250001e+00 8.0000000e+00 
7.5000000e-01 3.0250001e+00 8.5000000e+00 
7.5000000e-01 3.0250001e+00 9.0000000e+00 
7.5000000e-01 3.0250001e+00 9.5000000e+00 
7.5000000e-01 3.0250001e+00 1.0000000e+01 
7.5000000e-01 3.0250001e+00 1.0500000e+01 
7.5000000e-01 3.0250001e+00 1.1000000e+01 
7.5000000e-01 3.0250001e+00 1.1500000e+01 
7.5000000e-01 3.0250001e+00 1.2000000e+01 
7.5000000e-01 3.0250001e+00 1.2500000e+01 
7.5000000e-01 3.0250001e+00 1.3000000e+01 
7.5000000e-01 3.0250001e+00 1.3500000e+01 
7.5000000e-01 3.0250001e+00 1.4000000e+01 
7.5000000e-01 3.0250001e+00 1.4500000e+01 
7.5000000e-01 3.0250001e+00 1.5000000e+01 
7.5000000e-01 3.0250001e+00 1.5500000e+01 
7.5000000e-01 3.0250001e+00 1.6000000e+01 
7.5000000e-01 3.0250001e+00 1.6500000e+01 
7.5000000e-01 3.0250001e+00 1.7000000e+01 
7.5000000e-01 3.0250001e+00 1.7500000e+01 
7.5000000e-01 3.0250001e+00 1.8000000e+01 
7.5000000e-01 3.0250001e+00 1.8500000e+01 
7.5000000e-01 3.0250001e+00 1.9000000e+01 
7.5000000e-01 3.0250001e+00 1.9500000e+01 
7.5000000e-01 3.0250001e+00 2.0000000e+01 
7.5000000e-01 3.0250001e+00 2.0500000e+01 
7.5000000e-01 3.0250001e+00 2.1000000e+01 
7.5000000e-01 3.0250001e+00 2.1500000e+01 
7.5000000e-01 3.0250001e+00 2.2000000e+01 
7.5000000e-01 3.0250001e+00 2.2500000e+01 
7.5000000e-01 3.0250001e+00 2.3000000e+01 
7.5000000e-01 3.0250001e+00 2.3500000e+01 
7.5000000e-01 3.0250001e+00 2.4000000e+01 
7.5000000e-01 3.0250001e+00 2.4500000e+01 
7.5000000e-01 3.0250001e+00 2.5000000e+01 
7.5000000e-01 3.0250001e+00 2.5500000e+01 
7.5000000e-01 3.0250001e+00 2.6000000e+01 
7.5000000e-01 3.0250001e+00 2.6500000e+01 
7.5000000e-01 3.0250001e+00 2.7000000e+01 
7.5000000e-01 3.0250001e+00 2.7500000e+01 
7.5000000e-01 3.0250001e+00 2.8000000e+01 
7.5000000e-01 3.0250001e+00 2.8500000e+01 
7.5000000e-01 3.0250001e+00 2.9000000e+01 
7.5000000e-01 3.0250001e+00 2.9500000e+01 
7.5000000e-01 3.0250001e+00 3.0000000e+01 
7.5000000e-01 3.0250001e+00 3.0500000e+01 
7.5000000e-01 3.0250001e+00 3.1000000e+01 
7.5000000e-01 3.0250001e+00 3.1500000e+01 
7.5000000e-01 3.0250001e+00 3.2000000e+01 
7.5000000e-01 3.0250001e+00 3.2500000e+01 
7.5000000e-01 3.0250001e+00 3.3000000e+01 
7.5000000e-01 3.0250001e+00 3.3500000e+01 
7.5000000e-01 3.0250001e+00 3.4000000e+01 
7.5000000e-01 3.0250001e+00 3.4500000e+01 
7.5000000e-01 3.0250001e+00 3.5000000e+01 
7.5000000e-01 3.0250001e+00 3.5500000e+01 
7.5000000e-01 3.0250001e+00 3.6000000e+01 
7.5000000e-01 3.0250001e+00 3.6500000e+01 
7.5000000e-01 3.0250001e+00 3.7000000e+01 
7.5000000e-01 3.0250001e+00 3.7500000e+01 
7.5000000e-01 3.0250001e+00 3.8000000e+01 
7.5000000e-01 3.0250001e+00 3.8500000e+01 
7.5000000e-01 3.0250001e+00 3.9000000e+01 
7.5000000e-01 3.0250001e+00 3.9500000e+01 
7.5000000e-01 3.0250001e+00 4.0000000e+01 
7.5000000e-01 3.0250001e+00 4.0500000e+01 
7.5000000e-01 3.0250001e+00 4.1000000e+01 
7.5000000e-01 3.0250001e+00 4.1500000e+01 
7.5000000e-01 3.0250001e+00 4.2000000e+01 
7.5000000e-01 3.0250001e+00 4.2500000e+01 
7.5000000e-01 3.0250001e+00 4.3000000e+01 
7.5000000e-01 3.0250001e+00 4.3500000e+01 
7.5000000e-01 3.0250001e+00 4.4000000e+01 
7.5000000e-01 3.0250001e+00 4.4500000e+01 
7.5000000e-01 3.0250001e+00 4.5000000e+01 
7.5000000e-01 3.0250001e+00 4.5500000e+01 
7.5000000e-01 3.0250001e+00 4.6000000e+01 
7.5000000e-01 3.0250001e+00 4.6500000e+01 
7.5000000e-01 3.0250001e+00 4.7000000e+01 
7.5000000e-01 3.0250001e+00 4.7500000e+01 
7.5000000e-01 3.0250001e+00 4.8000000e+01 
7.5000000e-01 3.0250001e+00 4.8500000e+01 
7.5000000e-01 3.0250001e+00 4.9000000e+01 
7.5000000e-01 3.0250001e+00 4.9500000e+01 
7.5000000e-01 3.0250001e+00 5.0000000e+01 
3.0000000e+00 2.0000000e+00 3.6000000e+01 
8.0487806e-01 3.0000000e+00 3.6000000e+01 
0.0000000e+00 0.0000000e+00 2.0000000e+00 
0.0000000e+00 0.0000000e+00 4.0000000e+00 
0.0000000e+00 0.0000000e+00 6.0000000e+00 
0.0000000e+00 0.0000000e+00 8.0000000e+00 
0.0000000e+00 0.0000000e+00 1.0000000e+01 
0.0000000e+00 0.0000000e+00 1.2000000e+01 
0.0000000e+00 0.0000000e+00 1.4000000e+01 
0.0000000e+00 0.0000000e+00 1.6000000e+01 
[...]
POINT_DATA 661
FIELD FieldData 3
DISPLACEMENT 3 661  float
0.0000000e+00 0.0000000e+00 0.0000000e+00 
0.0000000e+00 0.0000000e+00 0.0000000e+00 
0.0000000e+00 0.0000000e+00 0.0000000e+00 
0.0000000e+00 0.0000000e+00 0.0000000e+00 
-8.4238383e-07 -4.8744773e-06 3.4411951e-06 
-9.4683799e-07 -4.7805643e-06 -6.4302185e-06 
0.0000000e+00 -9.0100866e-06 0.0000000e+00 
0.0000000e+00 3.7350535e-05 0.0000000e+00 
7.2170014e-06 -1.3240886e-05 -4.7556573e-06 
5.3333167e-07 -1.1996912e-05 2.9805938e-07 
-1.2531473e-06 1.2061098e-05 7.1290475e-07 
-5.9803519e-06 2.3174689e-06 -6.7878200e-06 
0.0000000e+00 1.7797519e-06 0.0000000e+00 
0.0000000e+00 6.9791196e-05 0.0000000e+00 
2.8972387e-05 5.5873083e-05 -3.0766005e-05 
3.5788358e-05 5.0866704e-05 -2.8281236e-05 
-1.1263683e-05 9.8478595e-05 -6.1928731e-06 
4.3246699e-05 9.1228620e-05 -2.1927503e-05 
0.0000000e+00 3.0936502e-05 0.0000000e+00 
0.0000000e+00 9.9913785e-05 0.0000000e+00 
8.0747413e-06 9.6284908e-05 3.9293968e-06 
2.2859615e-05 9.0519607e-05 1.0409434e-05 
1.1951483e-05 8.4531741e-05 2.9271261e-05 
-1.0014362e-05 7.8459314e-05 1.8218559e-05 
-9.3661465e-06 7.4474861e-05 1.6938171e-05 
-2.3799128e-05 7.6757075e-05 2.2885552e-05 
-5.9222766e-06 7.1751070e-05 -2.5423637e-05 
3.1213243e-05 7.8716272e-05 1.8972311e-06 
4.4307759e-05 9.5348412e-05 -1.5807816e-06 
7.3183287e-06 1.0802210e-04 -1.3793287e-05 
5.2910076e-05 1.1233362e-04 -1.2761461e-06 
1.9566038e-05 1.2785463e-04 -2.6797097e-05 
8.0401565e-05 1.7865114e-04 -3.7597558e-05 
1.0022674e-04 2.5407068e-04 -1.1877227e-05 
7.2906667e-05 3.3181996e-04 1.0359703e-05 
5.7477737e-05 3.1491823e-04 1.4525079e-05 
-3.5132118e-05 1.5046979e-04 7.5646421e-05 
2.1168977e-05 -1.3927938e-04 9.6477299e-05 
-5.6045283e-05 -5.6729984e-04 1.3493627e-04 
-4.1462878e-05 -1.1844570e-03 1.2165209e-04 
-1.7901568e-04 -2.0704574e-03 1.9119446e-04 
-2.3932349e-04 -3.1075971e-03 2.1717808e-04 
-1.3239069e-04 -4.0005879e-03 1.9048543e-04 
-1.5699949e-04 -4.1154749e-03 2.0299532e-04 
-2.8506826e-04 -3.9654374e-03 1.4794809e-04 
-3.7274187e-04 -3.9588329e-03 9.9048397e-05 
-2.3990707e-04 -4.2637517e-03 3.9418013e-05 
-8.2463164e-05 -4.3546972e-03 -1.5469508e-05 
-1.0857401e-04 -3.6817279e-03 -1.0545888e-04 
-2.1096561e-04 -2.6174297e-03 -1.4860414e-04 
-2.0311250e-04 -1.6484201e-03 -1.6510874e-04 
-6.2489635e-05 -8.9156465e-04 -1.3491941e-04 
-1.5337753e-05 -3.8583257e-04 -2.0201944e-04 
5.0471622e-06 -6.1665225e-05 -1.9522595e-04 
1.2823720e-05 1.3294673e-04 -1.7549327e-04 
2.8871656e-05 2.1885359e-04 -1.4122651e-04 
7.8020574e-05 2.1043618e-04 -9.3662704e-05 
9.0008740e-05 1.5359838e-04 -2.9202360e-05 
6.4956483e-05 9.6813252e-05 4.2217553e-06 
1.2368011e-05 5.3922067e-05 1.9522508e-05 
-2.8707305e-05 2.6892139e-05 1.6407514e-05 
-1.7342498e-05 5.0030153e-06 -1.1031574e-05 
-4.6070403e-05 -2.1114965e-05 -3.5111440e-05 
-1.7763481e-05 -4.9770206e-05 -2.8472265e-05 
3.7675547e-06 -7.4140764e-05 4.2177744e-06 
1.2141811e-05 -8.1411279e-05 -9.3878334e-06 
3.0927797e-05 -6.3532767e-05 -4.3435108e-07 
-8.6877271e-06 -1.0627974e-05 1.4207343e-05 
6.2709420e-05 7.1759474e-05 -4.2750940e-05 
2.9633213e-05 1.5638018e-04 -2.5347270e-05 
9.1561378e-05 2.3821824e-04 -3.1192409e-05 
6.5937922e-05 2.8427548e-04 -1.0244464e-04 
5.3578926e-05 3.0297451e-04 -7.2459028e-05 
1.1468749e-04 3.2436481e-04 -5.4945889e-05 
4.4261840e-05 3.5777525e-04 -4.4581171e-05 
6.6588989e-05 3.2050311e-04 3.0843574e-05 
5.5869568e-06 1.2331750e-04 8.5394087e-05 
-8.3814757e-06 -2.5506408e-04 1.4497779e-04 
-4.7496789e-05 -8.3787966e-04 2.2104509e-04 
-1.1236092e-04 -1.5819876e-03 2.0693793e-04 
-2.3321426e-04 -2.4990125e-03 2.7037816e-04 
-3.0439621e-04 -3.4691398e-03 2.4225202e-04 
-1.5414723e-04 -4.2379485e-03 1.7715784e-04 
-1.4152554e-04 -4.3004276e-03 1.5097737e-04 
-2.8664639e-04 -4.1691684e-03 9.7390941e-05 
-3.2832584e-04 -4.1565173e-03 3.8161354e-05 
-2.1895710e-04 -4.3422673e-03 1.0382098e-06 
-6.6948371e-05 -4.2231288e-03 -1.0841565e-06 
-1.0104581e-04 -3.4085272e-03 -1.1676651e-04 
-2.0006990e-04 -2.3138423e-03 -1.5895175e-04 
-2.1482429e-04 -1.3918864e-03 -1.6468593e-04 
-1.5034860e-04 -7.0339482e-04 -1.3488324e-04 
-7.3251635e-05 -2.5982171e-04 -1.4351985e-04 
-5.1268962e-05 4.8014442e-07 -1.2952628e-04 
-3.8764949e-05 1.2997445e-04 -1.3543168e-04 
-9.2993068e-06 1.7261197e-04 -1.3366200e-04 
1.2153402e-05 1.7081665e-04 -1.1330674e-04 
3.1381918e-05 1.5470834e-04 -8.7199471e-05 
3.4223194e-05 1.3156312e-04 -7.5413111e-05 
0.0000000e+00 3.8006652e-05 0.0000000e+00 
0.0000000e+00 -1.7129441e-05 0.0000000e+00 
0.0000000e+00 -6.3909174e-05 0.0000000e+00 
0.0000000e+00 -9.8524331e-05 0.0000000e+00 
0.0000000e+00 -1.2004675e-04 0.0000000e+00 
0.0000000e+00 -1.2504979e-04 0.0000000e+00 
0.0000000e+00 -1.0878091e-04 0.0000000e+00 
0.0000000e+00 -7.1752685e-05 0.0000000e+00 
0.0000000e+00 -2.3174538e-05 0.0000000e+00 
0.0000000e+00 2.3641842e-05 0.0000000e+00 
0.0000000e+00 5.9212758e-05 0.0000000e+00 
0.0000000e+00 8.0966071e-05 0.0000000e+00 
0.0000000e+00 8.9552450e-05 0.0000000e+00 
0.0000000e+00 8.4253974e-05 0.0000000e+00 
0.0000000e+00 6.3403997e-05 0.0000000e+00 
0.0000000e+00 2.8785798e-05 0.0000000e+00 
0.0000000e+00 -1.2005225e-05 0.0000000e+00 
0.0000000e+00 -4.8538484e-05 0.0000000e+00 
0.0000000e+00 -7.2737988e-05 0.0000000e+00 
0.0000000e+00 -8.1045822e-05 0.0000000e+00 
0.0000000e+00 9.8772347e-05 0.0000000e+00 
0.0000000e+00 9.6340475e-05 0.0000000e+00 
0.0000000e+00 9.0437970e-05 0.0000000e+00 
0.0000000e+00 8.4238032e-05 0.0000000e+00 
0.0000000e+00 7.8517718e-05 0.0000000e+00 
0.0000000e+00 7.5536504e-05 0.0000000e+00 
0.0000000e+00 7.5101860e-05 0.0000000e+00 
0.0000000e+00 7.2898671e-05 0.0000000e+00 
0.0000000e+00 7.9484627e-05 0.0000000e+00 
0.0000000e+00 9.4914772e-05 0.0000000e+00 
0.0000000e+00 1.0712281e-04 0.0000000e+00 
0.0000000e+00 1.1167988e-04 0.0000000e+00 
0.0000000e+00 1.2892506e-04 0.0000000e+00 
0.0000000e+00 1.7971378e-04 0.0000000e+00 
0.0000000e+00 2.5886405e-04 0.0000000e+00 
0.0000000e+00 3.3023820e-04 0.0000000e+00 
0.0000000e+00 3.1072061e-04 0.0000000e+00 
0.0000000e+00 1.5144405e-04 0.0000000e+00 
0.0000000e+00 -1.3793392e-04 0.0000000e+00 
0.0000000e+00 -5.6531565e-04 0.0000000e+00 
0.0000000e+00 -1.1920099e-03 0.0000000e+00 
0.0000000e+00 -2.0800035e-03 0.0000000e+00 
0.0000000e+00 -3.1455648e-03 0.0000000e+00 
0.0000000e+00 -4.0227519e-03 0.0000000e+00 
0.0000000e+00 -4.1405070e-03 0.0000000e+00 
0.0000000e+00 -3.9784880e-03 0.0000000e+00 
0.0000000e+00 -3.9929184e-03 0.0000000e+00 
0.0000000e+00 -4.2859945e-03 0.0000000e+00 
0.0000000e+00 -4.3871878e-03 0.0000000e+00 
0.0000000e+00 -3.6983753e-03 0.0000000e+00 
0.0000000e+00 -2.6363975e-03 0.0000000e+00 
0.0000000e+00 -1.6522125e-03 0.0000000e+00 
0.0000000e+00 -8.9587783e-04 0.0000000e+00 
0.0000000e+00 -3.8494790e-04 0.0000000e+00 
0.0000000e+00 -6.0149159e-05 0.0000000e+00 
0.0000000e+00 1.3345027e-04 0.0000000e+00 
0.0000000e+00 2.1795792e-04 0.0000000e+00 
0.0000000e+00 2.1065514e-04 0.0000000e+00 
0.0000000e+00 1.5508100e-04 0.0000000e+00 
0.0000000e+00 9.7184500e-05 0.0000000e+00 
0.0000000e+00 5.4706703e-05 0.0000000e+00 
0.0000000e+00 2.7133005e-05 0.0000000e+00 
0.0000000e+00 4.4134558e-06 0.0000000e+00 
0.0000000e+00 -2.1362246e-05 0.0000000e+00 
0.0000000e+00 -5.0001254e-05 0.0000000e+00 
0.0000000e+00 -7.3893294e-05 0.0000000e+00 
0.0000000e+00 -8.1367769e-05 0.0000000e+00 
0.0000000e+00 -6.2939034e-05 0.0000000e+00 
0.0000000e+00 -9.8004375e-06 0.0000000e+00 
0.0000000e+00 7.1125061e-05 0.0000000e+00 
0.0000000e+00 1.5856895e-04 0.0000000e+00 
0.0000000e+00 2.3600033e-04 0.0000000e+00 
0.0000000e+00 2.8219153e-04 0.0000000e+00 
0.0000000e+00 3.0398383e-04 0.0000000e+00 
0.0000000e+00 3.2936371e-04 0.0000000e+00 
0.0000000e+00 3.5920780e-04 0.0000000e+00 
0.0000000e+00 3.1812687e-04 0.0000000e+00 
0.0000000e+00 1.2289861e-04 0.0000000e+00 
0.0000000e+00 -2.5948798e-04 0.0000000e+00 
0.0000000e+00 -8.3610177e-04 0.0000000e+00 
0.0000000e+00 -1.5874325e-03 0.0000000e+00 
0.0000000e+00 -2.5081390e-03 0.0000000e+00 
0.0000000e+00 -3.5072104e-03 0.0000000e+00 
0.0000000e+00 -4.2633321e-03 0.0000000e+00 
0.0000000e+00 -4.3295543e-03 0.0000000e+00 
0.0000000e+00 -4.1819140e-03 0.0000000e+00 
0.0000000e+00 -4.1865702e-03 0.0000000e+00 
0.0000000e+00 -4.3635722e-03 0.0000000e+00 
0.0000000e+00 -4.2592990e-03 0.0000000e+00 
0.0000000e+00 -3.4270876e-03 0.0000000e+00 
0.0000000e+00 -2.3325111e-03 0.0000000e+00 
0.0000000e+00 -1.3936615e-03 0.0000000e+00 
0.0000000e+00 -7.0632069e-04 0.0000000e+00 
0.0000000e+00 -2.5969095e-04 0.0000000e+00 
0.0000000e+00 9.7819202e-07 0.0000000e+00 
0.0000000e+00 1.3040891e-04 0.0000000e+00 
0.0000000e+00 1.7349744e-04 0.0000000e+00 
0.0000000e+00 1.7194595e-04 0.0000000e+00 
0.0000000e+00 1.5537752e-04 0.0000000e+00 
0.0000000e+00 1.3083091e-04 0.0000000e+00 
0.0000000e+00 9.1042792e-05 0.0000000e+00 
0.0000000e+00 3.8153445e-05 0.0000000e+00 
0.0000000e+00 -1.6903625e-05 0.0000000e+00 
0.0000000e+00 -6.3905762e-05 0.0000000e+00 
0.0000000e+00 -9.8664641e-05 0.0000000e+00 
0.0000000e+00 -1.2001718e-04 0.0000000e+00 
0.0000000e+00 -1.2473368e-04 0.0000000e+00 
0.0000000e+00 -1.0841728e-04 0.0000000e+00 
0.0000000e+00 -7.1655326e-05 0.0000000e+00 
0.0000000e+00 -2.3381874e-05 0.0000000e+00 
0.0000000e+00 2.3376297e-05 0.0000000e+00 
0.0000000e+00 5.9118094e-05 0.0000000e+00 
0.0000000e+00 8.1017832e-05 0.0000000e+00 
0.0000000e+00 8.9554240e-05 0.0000000e+00 
0.0000000e+00 8.4096726e-05 0.0000000e+00 
0.0000000e+00 6.3187341e-05 0.0000000e+00 
0.0000000e+00 2.8688615e-05 0.0000000e+00 
0.0000000e+00 -1.1924009e-05 0.0000000e+00 
0.0000000e+00 -4.8379668e-05 0.0000000e+00 
0.0000000e+00 -7.2622526e-05 0.0000000e+00 
0.0000000e+00 -8.0974962e-05 0.0000000e+00 
2.8306154e-05 -4.0214203e-05 5.0169988e-06 
-1.0836824e-04 -6.1998219e-04 -1.0501956e-04 
0.0000000e+00 0.0000000e+00 0.0000000e+00 
0.0000000e+00 0.0000000e+00 0.0000000e+00 
0.0000000e+00 0.0000000e+00 0.0000000e+00 
0.0000000e+00 0.0000000e+00 0.0000000e+00 
0.0000000e+00 0.0000000e+00 0.0000000e+00 
0.0000000e+00 0.0000000e+00 0.0000000e+00 
0.0000000e+00 0.0000000e+00 0.0000000e+00 
0.0000000e+00 0.0000000e+00 0.0000000e+00 
0.0000000e+00 0.0000000e+00 0.0000000e+00 
0.0000000e+00 0.0000000e+00 0.0000000e+00 
0.0000000e+00 0.0000000e+00 0.0000000e+00 
0.0000000e+00 0.0000000e+00 0.0000000e+00 
0.0000000e+00 0.0000000e+00 0.0000000e+00 
0.0000000e+00 0.0000000e+00 0.0000000e+00 
0.0000000e+00 0.0000000e+00 0.0000000e+00 
0.0000000e+00 0.0000000e+00 0.0000000e+00 
0.0000000e+00 0.0000000e+00 0.0000000e+00 
0.0000000e+00 0.0000000e+00 0.0000000e+00 
0.0000000e+00 0.0000000e+00 0.0000000e+00 
0.0000000e+00 0.0000000e+00 0.0000000e+00 
0.0000000e+00 0.0000000e+00 0.0000000e+00 
0.0000000e+00 0.0000000e+00 0.0000000e+00 
0.0000000e+00 0.0000000e+00 0.0000000e+00 
0.0000000e+00 0.0000000e+00 0.0000000e+00 
0.0000000e+00 0.0000000e+00 0.0000000e+00 
0.0000000e+00 0.0000000e+00 0.0000000e+00 
0.0000000e+00 0.0000000e+00 0.0000000e+00 
0.0000000e+00 0.0000000e+00 0.0000000e+00 
0.0000000e+00 0.0000000e+00 0.0000000e+00 
0.0000000e+00 0.0000000e+00 0.0000000e+00 
0.0000000e+00 0.0000000e+00 0.0000000e+00 
0.0000000e+00 0.0000000e+00 0.0000000e+00 
0.0000000e+00 0.0000000e+00 0.0000000e+00 
0.0000000e+00 0.0000000e+00 0.0000000e+00 
0.0000000e+00 0.0000000e+00 0.0000000e+00 
0.0000000e+00 0.0000000e+00 0.0000000e+00 
0.0000000e+00 0.0000000e+00 0.0000000e+00 
0.0000000e+00 0.0000000e+00 0.0000000e+00 
0.0000000e+00 0.0000000e+00 0.0000000e+00 
0.0000000e+00 0.0000000e+00 0.0000000e+00 
0.0000000e+00 0.0000000e+00 0.0000000e+00 
0.0000000e+00 0.0000000e+00 0.0000000e+00 
-7.7591330e-06 -1.2064845e-07 3.2676339e-06 
-1.4127570e-05 -5.2557284e-06 4.1943990e-06 
-2.6528066e-06 1.5979943e-07 2.2155955e-06 
1.3027619e-05 -5.0060821e-06 -2.3669361e-06 
3.2237745e-05 -8.3136902e-06 -1.0705964e-05 
4.9759765e-05 -1.4869024e-05 -7.5694134e-06 
4.7410093e-05 -1.2963031e-05 1.4021118e-06 
1.1737017e-05 -1.1043348e-05 -6.3533466e-06 
-1.0694404e-05 -8.7359640e-06 -2.0789014e-06 
-1.6154607e-05 -8.0045365e-06 7.3693650e-06 
-1.5562719e-05 -1.1811471e-05 -1.1229245e-06 
-1.7067916e-05 -1.2113237e-05 6.1295264e-06 
-2.0363748e-05 -4.6485962e-07 8.9522846e-06 
7.2321569e-08 -7.9713318e-06 -4.3699374e-06 
3.2263444e-05 -1.4914950e-05 -9.2220635e-06 
5.9421302e-05 -1.2362739e-05 6.0751577e-06 
6.4917862e-05 -1.0888614e-05 1.2717001e-05 
2.1484293e-05 -4.1743947e-06 7.5503922e-06 
-8.9532359e-06 7.4807012e-06 -3.4589380e-06 
0.0000000e+00 -4.3199561e-05 0.0000000e+00 
0.0000000e+00 4.0599257e-06 0.0000000e+00 
0.0000000e+00 -8.7937105e-06 0.0000000e+00 
0.0000000e+00 9.1778056e-06 0.0000000e+00 
0.0000000e+00 -1.2779105e-04 0.0000000e+00 
0.0000000e+00 -4.7256684e-04 0.0000000e+00 
0.0000000e+00 -5.5561709e-04 0.0000000e+00 
0.0000000e+00 -2.4899552e-04 0.0000000e+00 
0.0000000e+00 -4.0350511e-05 0.0000000e+00 
0.0000000e+00 -3.3632037e-05 0.0000000e+00 
0.0000000e+00 -5.4306274e-05 0.0000000e+00 
0.0000000e+00 -7.9008678e-05 0.0000000e+00 
0.0000000e+00 8.6430073e-06 0.0000000e+00 
0.0000000e+00 3.6958409e-05 0.0000000e+00 
0.0000000e+00 -1.8311887e-04 0.0000000e+00 
0.0000000e+00 -5.7581021e-04 0.0000000e+00 
0.0000000e+00 -5.3859432e-04 0.0000000e+00 
0.0000000e+00 -1.5049716e-04 0.0000000e+00 
0.0000000e+00 1.9860303e-05 0.0000000e+00 
-4.3197369e-06 5.3396930e-06 -3.4936761e-07 
-6.2326296e-07 1.0814792e-05 3.2178473e-06 
-6.3316083e-06 -1.2064728e-06 -2.7737869e-06 
-9.8165519e-06 2.2886992e-05 -1.5429565e-05 
-5.4356842e-06 2.5043978e-06 6.7633159e-06 
-1.4919412e-05 -4.5552483e-06 5.6007493e-06 
-2.5897530e-06 1.6379475e-07 5.2779164e-06 
1.9177383e-05 -8.7211838e-06 -1.4157330e-06 
3.7541507e-05 -6.6811349e-06 -1.8551098e-06 
3.7363545e-05 -1.8002680e-05 2.4426522e-06 
1.2307036e-05 -7.0888705e-06 -3.7240977e-07 
2.4115081e-07 -6.4838459e-06 -2.3148288e-05 
-1.3254361e-06 -1.1998031e-05 -9.3312710e-06 
3.0405290e-06 -1.5218756e-05 6.9572930e-06 
4.8698627e-07 -2.1217082e-05 1.0189833e-05 
-9.2053360e-06 -1.8129513e-05 -5.2057771e-07 
-3.2365756e-07 -5.8107807e-06 3.5838152e-06 
1.6944654e-05 -6.2226309e-06 4.3097566e-06 
2.9801518e-05 -1.3962444e-05 3.6729793e-07 
4.0123203e-05 -1.4754701e-05 9.8665869e-06 
3.6784542e-05 -5.0699787e-06 1.0837586e-05 
1.1220434e-05 4.2042643e-06 -3.8286630e-06 
-9.5307705e-06 6.7639376e-06 -5.0250496e-06 
-3.4165566e-06 2.3499164e-05 1.2278721e-05 
0.0000000e+00 -3.7917369e-05 0.0000000e+00 
0.0000000e+00 -4.1640942e-05 0.0000000e+00 
0.0000000e+00 1.7840277e-05 0.0000000e+00 
0.0000000e+00 1.3733364e-04 0.0000000e+00 
0.0000000e+00 -3.5864802e-04 0.0000000e+00 
0.0000000e+00 -1.1230464e-03 0.0000000e+00 
0.0000000e+00 -1.2137134e-03 0.0000000e+00 
0.0000000e+00 -4.3468585e-04 0.0000000e+00 
0.0000000e+00 -1.9335750e-05 0.0000000e+00 
0.0000000e+00 -4.0056151e-05 0.0000000e+00 
0.0000000e+00 -1.1100310e-04 0.0000000e+00 
0.0000000e+00 -1.5458843e-04 0.0000000e+00 
0.0000000e+00 1.6088995e-04 0.0000000e+00 
0.0000000e+00 1.0664979e-04 0.0000000e+00 
0.0000000e+00 -4.9894344e-04 0.0000000e+00 
0.0000000e+00 -1.2606917e-03 0.0000000e+00 
0.0000000e+00 -1.1598378e-03 0.0000000e+00 
0.0000000e+00 -2.6600854e-04 0.0000000e+00 
0.0000000e+00 5.9094989e-05 0.0000000e+00 
-4.4183562e-06 4.2720145e-05 -3.2863380e-05 
1.5075681e-05 3.7551108e-05 4.7521011e-05 
2.1416497e-05 6.6500623e-05 -2.0616942e-05 
4.4850778e-05 1.0932997e-04 -1.4906929e-05 
7.3306343e-05 2.2398813e-04 9.3265902e-05 
-2.1028028e-04 -2.7688302e-04 3.6732145e-04 
-6.9109496e-04 -1.2871471e-03 2.4213952e-04 
-6.3948578e-04 -1.5283446e-03 -1.9054709e-04 
-1.8245979e-04 -2.2260465e-04 -3.3720664e-04 
1.9243096e-05 1.3169473e-04 -1.8834506e-04 
1.6123038e-05 1.0298031e-05 6.0724833e-05 
-5.1194926e-05 -6.3277002e-05 -1.6980744e-05 
-1.1529864e-05 -4.7186655e-05 3.8983922e-06 
7.8147481e-05 2.3617191e-04 -7.5103395e-05 
5.2964569e-05 2.1503675e-04 1.6264683e-04 
-2.8224697e-04 -4.1196131e-04 4.7309345e-04 
-6.7480974e-04 -1.4080199e-03 1.6747524e-04 
-6.1175117e-04 -1.4640026e-03 -1.0672536e-04 
-1.4826815e-04 -2.5150820e-04 -2.0359481e-04 
9.8413722e-08 9.5527852e-05 -1.6057480e-04 
0.0000000e+00 -6.1390849e-05 0.0000000e+00 
0.0000000e+00 -4.8196733e-05 0.0000000e+00 
0.0000000e+00 9.8472316e-05 0.0000000e+00 
0.0000000e+00 2.7555914e-04 0.0000000e+00 
0.0000000e+00 -7.1413687e-04 0.0000000e+00 
0.0000000e+00 -2.2844039e-03 0.0000000e+00 
0.0000000e+00 -2.3504065e-03 0.0000000e+00 
0.0000000e+00 -6.3828070e-04 0.0000000e+00 
0.0000000e+00 1.0598959e-04 0.0000000e+00 
0.0000000e+00 -4.9659302e-05 0.0000000e+00 
0.0000000e+00 -1.2963179e-04 0.0000000e+00 
0.0000000e+00 -8.0879814e-05 0.0000000e+00 
0.0000000e+00 2.8035167e-04 0.0000000e+00 
0.0000000e+00 1.4462705e-04 0.0000000e+00 
0.0000000e+00 -9.8589936e-04 0.0000000e+00 
0.0000000e+00 -2.4983415e-03 0.0000000e+00 
0.0000000e+00 -2.2326659e-03 0.0000000e+00 
0.0000000e+00 -4.0250170e-04 0.0000000e+00 
0.0000000e+00 1.3067343e-04 0.0000000e+00 
-1.3757881e-05 -4.1495500e-06 7.3207843e-06 
-3.1769655e-06 2.2692855e-05 4.4240287e-06 
6.7631090e-06 3.7344827e-05 9.4932921e-06 
4.1937212e-05 4.5164521e-05 1.5164991e-05 
5.3258293e-05 -3.1733423e-05 1.8935978e-05 
4.1343988e-05 -1.0210163e-04 2.1839223e-06 
3.7221667e-05 -1.4040394e-04 1.8183595e-06 
3.9640217e-05 -4.8449314e-05 -1.9756688e-05 
-5.5815411e-07 2.2368682e-05 -4.2239804e-05 
6.3702023e-06 3.0391613e-05 -1.6028685e-05 
-9.2902701e-06 8.3170162e-06 1.0607398e-05 
-1.3878990e-05 -1.1153123e-05 -8.8160004e-06 
2.1450780e-05 5.6778594e-05 -2.6593348e-06 
4.8063171e-06 5.2270931e-05 2.9348896e-05 
5.2758362e-05 -4.9053830e-05 2.9184113e-05 
6.4904387e-05 -1.1614987e-04 2.5123119e-05 
5.6811459e-05 -1.1995248e-04 4.7080652e-05 
-9.9893223e-06 1.5603171e-05 -3.0379993e-05 
-3.3660745e-05 -2.0053482e-04 -9.1833412e-05 
0.0000000e+00 0.0000000e+00 0.0000000e+00 
0.0000000e+00 0.0000000e+00 0.0000000e+00 
0.0000000e+00 0.0000000e+00 0.0000000e+00 
0.0000000e+00 0.0000000e+00 0.0000000e+00 
0.0000000e+00 0.0000000e+00 0.0000000e+00 
0.0000000e+00 0.0000000e+00 0.0000000e+00 
0.0000000e+00 0.0000000e+00 0.0000000e+00 
0.0000000e+00 0.0000000e+00 0.0000000e+00 
0.0000000e+00 0.0000000e+00 0.0000000e+00 
0.0000000e+00 0.0000000e+00 0.0000000e+00 
0.0000000e+00 0.0000000e+00 0.0000000e+00 
0.0000000e+00 0.0000000e+00 0.0000000e+00 
0.0000000e+00 0.0000000e+00 0.0000000e+00 
0.0000000e+00 0.0000000e+00 0.0000000e+00 
0.0000000e+00 0.0000000e+00 0.0000000e+00 
0.0000000e+00 0.0000000e+00 0.0000000e+00 
0.0000000e+00 0.0000000e+00 0.0000000e+00 
0.0000000e+00 0.0000000e+00 0.0000000e+00 
0.0000000e+00 0.0000000e+00 0.0000000e+00 
0.0000000e+00 0.0000000e+00 0.0000000e+00 
0.0000000e+00 0.0000000e+00 0.0000000e+00 
0.0000000e+00 0.0000000e+00 0.0000000e+00 
0.0000000e+00 0.0000000e+00 0.0000000e+00 
0.0000000e+00 0.0000000e+00 0.0000000e+00 
0.0000000e+00 0.0000000e+00 0.0000000e+00 
0.0000000e+00 0.0000000e+00 0.0000000e+00 
0.0000000e+00 0.0000000e+00 0.0000000e+00 
0.0000000e+00 0.0000000e+00 0.0000000e+00 
0.0000000e+00 0.0000000e+00 0.0000000e+00 
0.0000000e+00 0.0000000e+00 0.0000000e+00 
0.0000000e+00 0.0000000e+00 0.0000000e+00 
0.0000000e+00 0.0000000e+00 0.0000000e+00 
0.0000000e+00 0.0000000e+00 0.0000000e+00 
0.0000000e+00 0.0000000e+00 0.0000000e+00 
0.0000000e+00 0.0000000e+00 0.0000000e+00 
0.0000000e+00 0.0000000e+00 0.0000000e+00 
0.0000000e+00 0.0000000e+00 0.0000000e+00 
0.0000000e+00 0.0000000e+00 0.0000000e+00 
0.0000000e+00 0.0000000e+00 0.0000000e+00 
0.0000000e+00 0.0000000e+00 0.0000000e+00 
0.0000000e+00 0.0000000e+00 0.0000000e+00 
0.0000000e+00 0.0000000e+00 0.0000000e+00 
-1.0309462e-05 -1.4048587e-06 4.8577476e-06 
2.9524394e-05 -1.1645060e-05 -4.2861089e-07 
-4.4341100e-06 -8.4417152e-06 -1.8660023e-06 
-8.7172384e-06 -4.9521077e-06 -1.5180642e-07 
-1.4480916e-05 -2.7948472e-06 6.3078051e-06 
-7.1609734e-06 -1.6358011e-07 1.1742657e-06 
8.6302107e-06 -1.0781254e-05 -6.3514326e-06 
2.8624281e-05 -1.1182568e-05 1.0059709e-06 
3.4450790e-05 -1.2313018e-05 2.6691680e-06 