# vtk DataFile Version 4.0
vtk output
ASCII
DATASET UNSTRUCTURED_GRID
POINTS 2964 float
-1.0000000e+00 -1.0000000e+00 0.0000000e+00 
-1.0000000e+00 -1.0000000e+00 1.0000000e+01 
1.0000000e+00 -1.0000000e+00 0.0000000e+00 
1.0000000e+00 -1.0000000e+00 1.0000000e+01 
1.0000000e+00 0.0000000e+00 0.0000000e+00 
1.0000000e+00 0.0000000e+00 1.0000000e+01 
-1.0000000e+00 0.0000000e+00 0.0000000e+00 
-1.0000000e+00 0.0000000e+00 1.0000000e+01 
1.0000000e+00 1.0000000e+00 0.0000000e+00 
1.0000000e+00 1.0000000e+00 1.0000000e+01 
-1.0000000e+00 1.0000000e+00 0.0000000e+00 
-1.0000000e+00 1.0000000e+00 1.0000000e+01 
-1.0000000e+00 -1.0000000e+00 2.5000000e-01 
-1.0000000e+00 -1.0000000e+00 5.0000000e-01 
-1.0000000e+00 -1.0000000e+00 7.5000000e-01 
-1.0000000e+00 -1.0000000e+00 1.0000000e+00 
-1.0000000e+00 -1.0000000e+00 1.2500000e+00 
-1.0000000e+00 -1.0000000e+00 1.5000000e+00 
-1.0000000e+00 -1.0000000e+00 1.7500000e+00 
-1.0000000e+00 -1.0000000e+00 2.0000000e+00 
-1.0000000e+00 -1.0000000e+00 2.2500000e+00 
-1.0000000e+00 -1.0000000e+00 2.5000000e+00 
-1.0000000e+00 -1.0000000e+00 2.7500000e+00 
-1.0000000e+00 -1.0000000e+00 3.0000000e+00 
-1.0000000e+00 -1.0000000e+00 3.2500000e+00 
-1.0000000e+00 -1.0000000e+00 3.5000000e+00 
-1.0000000e+00 -1.0000000e+00 3.7500000e+00 
-1.0000000e+00 -1.0000000e+00 4.0000000e+00 
-1.0000000e+00 -1.0000000e+00 4.2500000e+00 
-1.0000000e+00 -1.0000000e+00 4.5000000e+00 
-1.0000000e+00 -1.0000000e+00 4.7500000e+00 
-1.0000000e+00 -1.0000000e+00 5.0000000e+00 
-1.0000000e+00 -1.0000000e+00 5.2500000e+00 
-1.0000000e+00 -1.0000000e+00 5.5000000e+00 
-1.0000000e+00 -1.0000000e+00 5.7500000e+00 
-1.0000000e+00 -1.0000000e+00 6.0000000e+00 
-1.0000000e+00 -1.0000000e+00 6.2500000e+00 
-1.0000000e+00 -1.0000000e+00 6.5000000e+00 
-1.0000000e+00 -1.0000000e+00 6.7500000e+00 
-1.0000000e+00 -1.0000000e+00 7.0000000e+00 
-1.0000000e+00 -1.0000000e+00 7.2500000e+00 
-1.0000000e+00 -1.0000000e+00 7.5000000e+00 
-1.0000000e+00 -1.0000000e+00 7.7500000e+00 
-1.0000000e+00 -1.0000000e+00 8.0000000e+00 
-1.0000000e+00 -1.0000000e+00 8.2500000e+00 
-1.0000000e+00 -1.0000000e+00 8.5000000e+00 
-1.0000000e+00 -1.0000000e+00 8.7500000e+00 
-1.0000000e+00 -1.0000000e+00 9.0000000e+00 
-1.0000000e+00 -1.0000000e+00 9.2500000e+00 
-1.0000000e+00 -1.0000000e+00 9.5000000e+00 
-1.0000000e+00 -1.0000000e+00 9.7500000e+00 
1.0000000e+00 -1.0000000e+00 2.5000000e-01 
1.0000000e+00 -1.0000000e+00 5.0000000e-01 
1.0000000e+00 -1.0000000e+00 7.5000000e-01 
1.0000000e+00 -1.0000000e+00 1.0000000e+00 
1.0000000e+00 -1.0000000e+00 1.2500000e+00 
1.0000000e+00 -1.0000000e+00 1.5000000e+00 
1.0000000e+00 -1.0000000e+00 1.7500000e+00 
1.0000000e+00 -1.0000000e+00 2.0000000e+00 
1.0000000e+00 -1.0000000e+00 2.2500000e+00 
1.0000000e+00 -1.0000000e+00 2.5000000e+00 
1.0000000e+00 -1.0000000e+00 2.7500000e+00 
1.0000000e+00 -1.0000000e+00 3.0000000e+00 
1.0000000e+00 -1.0000000e+00 3.2500000e+00 
1.0000000e+00 -1.0000000e+00 3.5000000e+00 
1.0000000e+00 -1.0000000e+00 3.7500000e+00 
1.0000000e+00 -1.0000000e+00 4.0000000e+00 
1.0000000e+00 -1.0000000e+00 4.2500000e+00 
1.0000000e+00 -1.0000000e+00 4.5000000e+00 
1.0000000e+00 -1.0000000e+00 4.7500000e+00 
1.0000000e+00 -1.0000000e+00 5.0000000e+00 
1.0000000e+00 -1.0000000e+00 5.2500000e+00 
1.0000000e+00 -1.0000000e+00 5.5000000e+00 
1.0000000e+00 -1.0000000e+00 5.7500000e+00 
1.0000000e+00 -1.0000000e+00 6.0000000e+00 
1.0000000e+00 -1.0000000e+00 6.2500000e+00 
1.0000000e+00 -1.0000000e+00 6.5000000e+00 
1.0000000e+00 -1.0000000e+00 6.7500000e+00 
1.0000000e+00 -1.0000000e+00 7.0000000e+00 
1.0000000e+00 -1.0000000e+00 7.2500000e+00 
1.0000000e+00 -1.0000000e+00 7.5000000e+00 
1.0000000e+00 -1.0000000e+00 7.7500000e+00 
1.0000000e+00 -1.0000000e+00 8.0000000e+00 
1.0000000e+00 -1.0000000e+00 8.2500000e+00 
1.0000000e+00 -1.0000000e+00 8.5000000e+00 
1.0000000e+00 -1.0000000e+00 8.7500000e+00 
1.0000000e+00 -1.0000000e+00 9.0000000e+00 
1.0000000e+00 -1.0000000e+00 9.2500000e+00 
1.0000000e+00 -1.0000000e+00 9.5000000e+00 
1.0000000e+00 -1.0000000e+00 9.7500000e+00 
-7.5000000e-01 -1.0000000e+00 0.0000000e+00 
-5.0000000e-01 -1.0000000e+00 0.0000000e+00 
-2.5000000e-01 -1.0000000e+00 0.0000000e+00 
0.0000000e+00 -1.0000000e+00 0.0000000e+00 
2.5000000e-01 -1.0000000e+00 0.0000000e+00 
5.0000000e-01 -1.0000000e+00 0.0000000e+00 
7.5000000e-01 -1.0000000e+00 0.0000000e+00 
-7.5000000e-01 -1.0000000e+00 1.0000000e+01 
-5.0000000e-01 -1.0000000e+00 1.0000000e+01 
-2.5000000e-01 -1.0000000e+00 1.0000000e+01 
0.0000000e+00 -1.0000000e+00 1.0000000e+01 
2.5000000e-01 -1.0000000e+00 1.0000000e+01 
5.0000000e-01 -1.0000000e+00 1.0000000e+01 
7.5000000e-01 -1.0000000e+00 1.0000000e+01 
1.0000000e+00 0.0000000e+00 2.5000000e-01 
1.0000000e+00 0.0000000e+00 5.0000000e-01 
1.0000000e+00 0.0000000e+00 7.5000000e-01 
1.0000000e+00 0.0000000e+00 1.0000000e+00 
1.0000000e+00 0.0000000e+00 1.2500000e+00 
1.0000000e+00 0.0000000e+00 1.5000000e+00 
1.0000000e+00 0.0000000e+00 1.7500000e+00 
1.0000000e+00 0.0000000e+00 2.0000000e+00 
1.0000000e+00 0.0000000e+00 2.2500000e+00 
1.0000000e+00 0.0000000e+00 2.5000000e+00 
1.0000000e+00 0.0000000e+00 2.7500000e+00 
1.0000000e+00 0.0000000e+00 3.0000000e+00 
1.0000000e+00 0.0000000e+00 3.2500000e+00 
1.0000000e+00 0.0000000e+00 3.5000000e+00 
1.0000000e+00 0.0000000e+00 3.7500000e+00 
1.0000000e+00 0.0000000e+00 4.0000000e+00 
1.0000000e+00 0.0000000e+00 4.2500000e+00 
1.0000000e+00 0.0000000e+00 4.5000000e+00 
1.0000000e+00 0.0000000e+00 4.7500000e+00 
1.0000000e+00 0.0000000e+00 5.0000000e+00 
1.0000000e+00 0.0000000e+00 5.2500000e+00 
1.0000000e+00 0.0000000e+00 5.5000000e+00 
1.0000000e+00 0.0000000e+00 5.7500000e+00 
1.0000000e+00 0.0000000e+00 6.0000000e+00 
1.0000000e+00 0.0000000e+00 6.2500000e+00 
1.0000000e+00 0.0000000e+00 6.5000000e+00 
1.0000000e+00 0.0000000e+00 6.7500000e+00 
1.0000000e+00 0.0000000e+00 7.0000000e+00 
1.0000000e+00 0.0000000e+00 7.2500000e+00 
1.0000000e+00 0.0000000e+00 7.5000000e+00 
1.0000000e+00 0.0000000e+00 7.7500000e+00 
1.0000000e+00 0.0000000e+00 8.0000000e+00 
1.0000000e+00 0.0000000e+00 8.2500000e+00 
1.0000000e+00 0.0000000e+00 8.5000000e+00 
1.0000000e+00 0.0000000e+00 8.7500000e+00 
1.0000000e+00 0.0000000e+00 9.0000000e+00 
1.0000000e+00 0.0000000e+00 9.2500000e+00 
1.0000000e+00 0.0000000e+00 9.5000000e+00 
1.0000000e+00 0.0000000e+00 9.7500000e+00 
1.0000000e+00 -7.5000000e-01 0.0000000e+00 
1.0000000e+00 -5.0000000e-01 0.0000000e+00 
1.0000000e+00 -2.5000000e-01 0.0000000e+00 
1.0000000e+00 -7.5000000e-01 1.0000000e+01 
1.0000000e+00 -5.0000000e-01 1.0000000e+01 
1.0000000e+00 -2.5000000e-01 1.0000000e+01 
-1.0000000e+00 0.0000000e+00 2.5000000e-01 
-1.0000000e+00 0.0000000e+00 5.0000000e-01 
-1.0000000e+00 0.0000000e+00 7.5000000e-01 
-1.0000000e+00 0.0000000e+00 1.0000000e+00 
-1.0000000e+00 0.0000000e+00 1.2500000e+00 
-1.0000000e+00 0.0000000e+00 1.5000000e+00 
-1.0000000e+00 0.0000000e+00 1.7500000e+00 
-1.0000000e+00 0.0000000e+00 2.0000000e+00 
-1.0000000e+00 0.0000000e+00 2.2500000e+00 
-1.0000000e+00 0.0000000e+00 2.5000000e+00 
-1.0000000e+00 0.0000000e+00 2.7500000e+00 
-1.0000000e+00 0.0000000e+00 3.0000000e+00 
-1.0000000e+00 0.0000000e+00 3.2500000e+00 
-1.0000000e+00 0.0000000e+00 3.5000000e+00 
-1.0000000e+00 0.0000000e+00 3.7500000e+00 
-1.0000000e+00 0.0000000e+00 4.0000000e+00 
-1.0000000e+00 0.0000000e+00 4.2500000e+00 
-1.0000000e+00 0.0000000e+00 4.5000000e+00 
-1.0000000e+00 0.0000000e+00 4.7500000e+00 
-1.0000000e+00 0.0000000e+00 5.0000000e+00 
-1.0000000e+00 0.0000000e+00 5.2500000e+00 
-1.0000000e+00 0.0000000e+00 5.5000000e+00 
-1.0000000e+00 0.0000000e+00 5.7500000e+00 
-1.0000000e+00 0.0000000e+00 6.0000000e+00 
-1.0000000e+00 0.0000000e+00 6.2500000e+00 
-1.0000000e+00 0.0000000e+00 6.5000000e+00 
-1.0000000e+00 0.0000000e+00 6.7500000e+00 
-1.0000000e+00 0.0000000e+00 7.0000000e+00 
-1.0000000e+00 0.0000000e+00 7.2500000e+00 
-1.0000000e+00 0.0000000e+00 7.5000000e+00 
-1.0000000e+00 0.0000000e+00 7.7500000e+00 
-1.0000000e+00 0.0000000e+00 8.0000000e+00 
-1.0000000e+00 0.0000000e+00 8.2500000e+00 
-1.0000000e+00 0.0000000e+00 8.5000000e+00 
-1.0000000e+00 0.0000000e+00 8.7500000e+00 
-1.0000000e+00 0.0000000e+00 9.0000000e+00 
-1.0000000e+00 0.0000000e+00 9.2500000e+00 
-1.0000000e+00 0.0000000e+00 9.5000000e+00 
-1.0000000e+00 0.0000000e+00 9.7500000e+00 
7.5000000e-01 0.0000000e+00 0.0000000e+00 
5.0000000e-01 0.0000000e+00 0.0000000e+00 
2.5000000e-01 0.0000000e+00 0.0000000e+00 
0.0000000e+00 0.0000000e+00 0.0000000e+00 
-2.5000000e-01 0.0000000e+00 0.0000000e+00 
-5.0000000e-01 0.0000000e+00 0.0000000e+00 
-7.5000000e-01 0.0000000e+00 0.0000000e+00 
7.5000000e-01 0.0000000e+00 1.0000000e+01 
5.0000000e-01 0.0000000e+00 1.0000000e+01 
2.5000000e-01 0.0000000e+00 1.0000000e+01 
0.0000000e+00 0.0000000e+00 1.0000000e+01 
-2.5000000e-01 0.0000000e+00 1.0000000e+01 
-5.0000000e-01 0.0000000e+00 1.0000000e+01 
-7.5000000e-01 0.0000000e+00 1.0000000e+01 
-1.0000000e+00 -2.5000000e-01 0.0000000e+00 
-1.0000000e+00 -5.0000000e-01 0.0000000e+00 
-1.0000000e+00 -7.5000000e-01 0.0000000e+00 
-1.0000000e+00 -2.5000000e-01 1.0000000e+01 
-1.0000000e+00 -5.0000000e-01 1.0000000e+01 
-1.0000000e+00 -7.5000000e-01 1.0000000e+01 
1.0000000e+00 1.0000000e+00 2.5000000e-01 
1.0000000e+00 1.0000000e+00 5.0000000e-01 
1.0000000e+00 1.0000000e+00 7.5000000e-01 
1.0000000e+00 1.0000000e+00 1.0000000e+00 
1.0000000e+00 1.0000000e+00 1.2500000e+00 
1.0000000e+00 1.0000000e+00 1.5000000e+00 
1.0000000e+00 1.0000000e+00 1.7500000e+00 
1.0000000e+00 1.0000000e+00 2.0000000e+00 
1.0000000e+00 1.0000000e+00 2.2500000e+00 
1.0000000e+00 1.0000000e+00 2.5000000e+00 
1.0000000e+00 1.0000000e+00 2.7500000e+00 
1.0000000e+00 1.0000000e+00 3.0000000e+00 
1.0000000e+00 1.0000000e+00 3.2500000e+00 
1.0000000e+00 1.0000000e+00 3.5000000e+00 
1.0000000e+00 1.0000000e+00 3.7500000e+00 
1.0000000e+00 1.0000000e+00 4.0000000e+00 
1.0000000e+00 1.0000000e+00 4.2500000e+00 
[...]
POINT_DATA 2964
FIELD FieldData 2
DISPLACEMENT 3 2964  float
0.0000000e+00 0.0000000e+00 -2.6651940e-06 
0.0000000e+00 0.0000000e+00 -3.4298394e-06 
0.0000000e+00 0.0000000e+00 -2.6650978e-06 
0.0000000e+00 0.0000000e+00 -3.4304142e-06 
0.0000000e+00 0.0000000e+00 -2.6649934e-06 
0.0000000e+00 0.0000000e+00 -3.4308591e-06 
0.0000000e+00 0.0000000e+00 -2.6652338e-06 
0.0000000e+00 0.0000000e+00 -3.4299951e-06 
0.0000000e+00 0.0000000e+00 -2.6650091e-06 
0.0000000e+00 0.0000000e+00 -3.4312977e-06 
0.0000000e+00 0.0000000e+00 -2.6651066e-06 
0.0000000e+00 0.0000000e+00 -3.4304078e-06 
0.0000000e+00 0.0000000e+00 -2.6848465e-06 
0.0000000e+00 0.0000000e+00 -2.7044659e-06 
0.0000000e+00 0.0000000e+00 -2.7240649e-06 
0.0000000e+00 0.0000000e+00 -2.7436449e-06 
0.0000000e+00 0.0000000e+00 -2.7632054e-06 
0.0000000e+00 0.0000000e+00 -2.7827432e-06 
0.0000000e+00 0.0000000e+00 -2.8022546e-06 
0.0000000e+00 0.0000000e+00 -2.8217357e-06 
0.0000000e+00 0.0000000e+00 -2.8411825e-06 
0.0000000e+00 0.0000000e+00 -2.8605973e-06 
0.0000000e+00 0.0000000e+00 -2.8799845e-06 
0.0000000e+00 0.0000000e+00 -2.8993409e-06 
0.0000000e+00 0.0000000e+00 -2.9186738e-06 
0.0000000e+00 0.0000000e+00 -2.9379869e-06 
0.0000000e+00 0.0000000e+00 -2.9572807e-06 
0.0000000e+00 0.0000000e+00 -2.9765572e-06 
0.0000000e+00 0.0000000e+00 -2.9958128e-06 
0.0000000e+00 0.0000000e+00 -3.0150443e-06 
0.0000000e+00 0.0000000e+00 -3.0342483e-06 
0.0000000e+00 0.0000000e+00 -3.0534175e-06 
0.0000000e+00 0.0000000e+00 -3.0725473e-06 
0.0000000e+00 0.0000000e+00 -3.0916419e-06 
0.0000000e+00 0.0000000e+00 -3.1107020e-06 
0.0000000e+00 0.0000000e+00 -3.1297238e-06 
0.0000000e+00 0.0000000e+00 -3.1487077e-06 
0.0000000e+00 0.0000000e+00 -3.1676591e-06 
0.0000000e+00 0.0000000e+00 -3.1865770e-06 
0.0000000e+00 0.0000000e+00 -3.2054606e-06 
0.0000000e+00 0.0000000e+00 -3.2243133e-06 
0.0000000e+00 0.0000000e+00 -3.2431358e-06 
0.0000000e+00 0.0000000e+00 -3.2619284e-06 
0.0000000e+00 0.0000000e+00 -3.2806913e-06 
0.0000000e+00 0.0000000e+00 -3.2994235e-06 
0.0000000e+00 0.0000000e+00 -3.3181191e-06 
0.0000000e+00 0.0000000e+00 -3.3367971e-06 
0.0000000e+00 0.0000000e+00 -3.3554463e-06 
0.0000000e+00 0.0000000e+00 -3.3740769e-06 
0.0000000e+00 0.0000000e+00 -3.3926899e-06 
0.0000000e+00 0.0000000e+00 -3.4112761e-06 
0.0000000e+00 0.0000000e+00 -2.6847865e-06 
0.0000000e+00 0.0000000e+00 -2.7044471e-06 
0.0000000e+00 0.0000000e+00 -2.7240808e-06 
0.0000000e+00 0.0000000e+00 -2.7436870e-06 
0.0000000e+00 0.0000000e+00 -2.7632702e-06 
0.0000000e+00 0.0000000e+00 -2.7828276e-06 
0.0000000e+00 0.0000000e+00 -2.8023608e-06 
0.0000000e+00 0.0000000e+00 -2.8218676e-06 
0.0000000e+00 0.0000000e+00 -2.8413460e-06 
0.0000000e+00 0.0000000e+00 -2.8607890e-06 
0.0000000e+00 0.0000000e+00 -2.8802001e-06 
0.0000000e+00 0.0000000e+00 -2.8995771e-06 
0.0000000e+00 0.0000000e+00 -2.9189193e-06 
0.0000000e+00 0.0000000e+00 -2.9382279e-06 
0.0000000e+00 0.0000000e+00 -2.9575035e-06 
0.0000000e+00 0.0000000e+00 -2.9767493e-06 
0.0000000e+00 0.0000000e+00 -2.9959690e-06 
0.0000000e+00 0.0000000e+00 -3.0151639e-06 
0.0000000e+00 0.0000000e+00 -3.0343306e-06 
0.0000000e+00 0.0000000e+00 -3.0534804e-06 
0.0000000e+00 0.0000000e+00 -3.0726051e-06 
0.0000000e+00 0.0000000e+00 -3.0917047e-06 
0.0000000e+00 0.0000000e+00 -3.1107772e-06 
0.0000000e+00 0.0000000e+00 -3.1298196e-06 
0.0000000e+00 0.0000000e+00 -3.1488307e-06 
0.0000000e+00 0.0000000e+00 -3.1678094e-06 
0.0000000e+00 0.0000000e+00 -3.1867557e-06 
0.0000000e+00 0.0000000e+00 -3.2056707e-06 
0.0000000e+00 0.0000000e+00 -3.2245546e-06 
0.0000000e+00 0.0000000e+00 -3.2434114e-06 
0.0000000e+00 0.0000000e+00 -3.2622393e-06 
0.0000000e+00 0.0000000e+00 -3.2810392e-06 
0.0000000e+00 0.0000000e+00 -3.2998109e-06 
0.0000000e+00 0.0000000e+00 -3.3185545e-06 
0.0000000e+00 0.0000000e+00 -3.3372658e-06 
0.0000000e+00 0.0000000e+00 -3.3559475e-06 
0.0000000e+00 0.0000000e+00 -3.3746032e-06 
0.0000000e+00 0.0000000e+00 -3.3932395e-06 
0.0000000e+00 0.0000000e+00 -3.4118432e-06 
0.0000000e+00 0.0000000e+00 -2.6652231e-06 
0.0000000e+00 0.0000000e+00 -2.6652353e-06 
0.0000000e+00 0.0000000e+00 -2.6652351e-06 
0.0000000e+00 0.0000000e+00 -2.6652256e-06 
0.0000000e+00 0.0000000e+00 -2.6652017e-06 
0.0000000e+00 0.0000000e+00 -2.6651567e-06 
0.0000000e+00 0.0000000e+00 -2.6651223e-06 
0.0000000e+00 0.0000000e+00 -3.4298378e-06 
0.0000000e+00 0.0000000e+00 -3.4298639e-06 
0.0000000e+00 0.0000000e+00 -3.4299212e-06 
0.0000000e+00 0.0000000e+00 -3.4300106e-06 
0.0000000e+00 0.0000000e+00 -3.4301243e-06 
0.0000000e+00 0.0000000e+00 -3.4302404e-06 
0.0000000e+00 0.0000000e+00 -3.4303603e-06 
0.0000000e+00 0.0000000e+00 -2.6847370e-06 
0.0000000e+00 0.0000000e+00 -2.7044312e-06 
0.0000000e+00 0.0000000e+00 -2.7240806e-06 
0.0000000e+00 0.0000000e+00 -2.7436918e-06 
0.0000000e+00 0.0000000e+00 -2.7632659e-06 
0.0000000e+00 0.0000000e+00 -2.7828082e-06 
0.0000000e+00 0.0000000e+00 -2.8023244e-06 
0.0000000e+00 0.0000000e+00 -2.8218221e-06 
0.0000000e+00 0.0000000e+00 -2.8413006e-06 
0.0000000e+00 0.0000000e+00 -2.8607606e-06 
0.0000000e+00 0.0000000e+00 -2.8801981e-06 
0.0000000e+00 0.0000000e+00 -2.8996133e-06 
0.0000000e+00 0.0000000e+00 -2.9189962e-06 
0.0000000e+00 0.0000000e+00 -2.9383411e-06 
0.0000000e+00 0.0000000e+00 -2.9576488e-06 
0.0000000e+00 0.0000000e+00 -2.9769144e-06 
0.0000000e+00 0.0000000e+00 -2.9961404e-06 
0.0000000e+00 0.0000000e+00 -3.0153340e-06 
0.0000000e+00 0.0000000e+00 -3.0344981e-06 
0.0000000e+00 0.0000000e+00 -3.0536337e-06 
0.0000000e+00 0.0000000e+00 -3.0727479e-06 
0.0000000e+00 0.0000000e+00 -3.0918377e-06 
0.0000000e+00 0.0000000e+00 -3.1109028e-06 
0.0000000e+00 0.0000000e+00 -3.1299444e-06 
0.0000000e+00 0.0000000e+00 -3.1489633e-06 
0.0000000e+00 0.0000000e+00 -3.1679538e-06 
0.0000000e+00 0.0000000e+00 -3.1869163e-06 
0.0000000e+00 0.0000000e+00 -3.2058476e-06 
0.0000000e+00 0.0000000e+00 -3.2247506e-06 
0.0000000e+00 0.0000000e+00 -3.2436214e-06 
0.0000000e+00 0.0000000e+00 -3.2624705e-06 
0.0000000e+00 0.0000000e+00 -3.2812920e-06 
0.0000000e+00 0.0000000e+00 -3.3000881e-06 
0.0000000e+00 0.0000000e+00 -3.3188528e-06 
0.0000000e+00 0.0000000e+00 -3.3375898e-06 
0.0000000e+00 0.0000000e+00 -3.3562992e-06 
0.0000000e+00 0.0000000e+00 -3.3749795e-06 
0.0000000e+00 0.0000000e+00 -3.3936392e-06 
0.0000000e+00 0.0000000e+00 -3.4122666e-06 
0.0000000e+00 0.0000000e+00 -2.6650785e-06 
0.0000000e+00 0.0000000e+00 -2.6650505e-06 
0.0000000e+00 0.0000000e+00 -2.6650227e-06 
0.0000000e+00 0.0000000e+00 -3.4304478e-06 
0.0000000e+00 0.0000000e+00 -3.4305469e-06 
0.0000000e+00 0.0000000e+00 -3.4306829e-06 
0.0000000e+00 0.0000000e+00 -2.6848606e-06 
0.0000000e+00 0.0000000e+00 -2.7044746e-06 
0.0000000e+00 0.0000000e+00 -2.7240756e-06 
0.0000000e+00 0.0000000e+00 -2.7436631e-06 
0.0000000e+00 0.0000000e+00 -2.7632361e-06 
0.0000000e+00 0.0000000e+00 -2.7827905e-06 
0.0000000e+00 0.0000000e+00 -2.8023196e-06 
0.0000000e+00 0.0000000e+00 -2.8218190e-06 
0.0000000e+00 0.0000000e+00 -2.8412851e-06 
0.0000000e+00 0.0000000e+00 -2.8607146e-06 
0.0000000e+00 0.0000000e+00 -2.8801087e-06 
0.0000000e+00 0.0000000e+00 -2.8994627e-06 
0.0000000e+00 0.0000000e+00 -2.9187847e-06 
0.0000000e+00 0.0000000e+00 -2.9380803e-06 
0.0000000e+00 0.0000000e+00 -2.9573532e-06 
0.0000000e+00 0.0000000e+00 -2.9766095e-06 
0.0000000e+00 0.0000000e+00 -2.9958469e-06 
0.0000000e+00 0.0000000e+00 -3.0150652e-06 
0.0000000e+00 0.0000000e+00 -3.0342594e-06 
0.0000000e+00 0.0000000e+00 -3.0534284e-06 
0.0000000e+00 0.0000000e+00 -3.0725646e-06 
0.0000000e+00 0.0000000e+00 -3.0916704e-06 
0.0000000e+00 0.0000000e+00 -3.1107409e-06 
0.0000000e+00 0.0000000e+00 -3.1297673e-06 
0.0000000e+00 0.0000000e+00 -3.1487675e-06 
0.0000000e+00 0.0000000e+00 -3.1677287e-06 
0.0000000e+00 0.0000000e+00 -3.1866582e-06 
0.0000000e+00 0.0000000e+00 -3.2055552e-06 
0.0000000e+00 0.0000000e+00 -3.2244238e-06 
0.0000000e+00 0.0000000e+00 -3.2432602e-06 
0.0000000e+00 0.0000000e+00 -3.2620651e-06 
0.0000000e+00 0.0000000e+00 -3.2808373e-06 
0.0000000e+00 0.0000000e+00 -3.2995799e-06 
0.0000000e+00 0.0000000e+00 -3.3182880e-06 
0.0000000e+00 0.0000000e+00 -3.3369702e-06 
0.0000000e+00 0.0000000e+00 -3.3556196e-06 
0.0000000e+00 0.0000000e+00 -3.3742492e-06 
0.0000000e+00 0.0000000e+00 -3.3928529e-06 
0.0000000e+00 0.0000000e+00 -3.4114362e-06 
-1.0949566e-10 -1.3876171e-10 -2.6650193e-06 
-1.9867048e-10 -2.2362083e-10 -2.6650687e-06 
-2.5458724e-10 -2.6923325e-10 -2.6651153e-06 
-2.7067329e-10 -2.7082139e-10 -2.6651483e-06 
-2.5300184e-10 -2.4977198e-10 -2.6651812e-06 
-1.9453694e-10 -1.9957054e-10 -2.6652040e-06 
-1.0719008e-10 -1.1588046e-10 -2.6652190e-06 
3.5143784e-11 4.1360429e-11 -3.4307932e-06 
5.7534193e-11 4.3110737e-11 -3.4306511e-06 
7.4305007e-11 5.4198663e-11 -3.4304828e-06 
7.3906201e-11 6.6715848e-11 -3.4303175e-06 
5.1258563e-11 5.7220437e-11 -3.4301991e-06 
3.4821219e-11 5.2020742e-11 -3.4301024e-06 
1.5675185e-11 4.0511296e-11 -3.4300394e-06 
0.0000000e+00 0.0000000e+00 -2.6652401e-06 
0.0000000e+00 0.0000000e+00 -2.6652358e-06 
0.0000000e+00 0.0000000e+00 -2.6652251e-06 
0.0000000e+00 0.0000000e+00 -3.4299239e-06 
0.0000000e+00 0.0000000e+00 -3.4298660e-06 
0.0000000e+00 0.0000000e+00 -3.4298398e-06 
0.0000000e+00 0.0000000e+00 -2.6847329e-06 
0.0000000e+00 0.0000000e+00 -2.7044318e-06 
0.0000000e+00 0.0000000e+00 -2.7240883e-06 
0.0000000e+00 0.0000000e+00 -2.7437038e-06 
0.0000000e+00 0.0000000e+00 -2.7632825e-06 
0.0000000e+00 0.0000000e+00 -2.7828255e-06 
0.0000000e+00 0.0000000e+00 -2.8023360e-06 
0.0000000e+00 0.0000000e+00 -2.8218233e-06 
0.0000000e+00 0.0000000e+00 -2.8412924e-06 
0.0000000e+00 0.0000000e+00 -2.8607446e-06 
0.0000000e+00 0.0000000e+00 -2.8801840e-06 
0.0000000e+00 0.0000000e+00 -2.8996089e-06 
0.0000000e+00 0.0000000e+00 -2.9190114e-06 
0.0000000e+00 0.0000000e+00 -2.9383816e-06 
0.0000000e+00 0.0000000e+00 -2.9577200e-06 
0.0000000e+00 0.0000000e+00 -2.9770226e-06 
0.0000000e+00 0.0000000e+00 -2.9962889e-06 
0.0000000e+00 0.0000000e+00 -3.0155065e-06 
0.0000000e+00 0.0000000e+00 -3.0346894e-06 
0.0000000e+00 0.0000000e+00 -3.0538381e-06 
0.0000000e+00 0.0000000e+00 -3.0729548e-06 
0.0000000e+00 0.0000000e+00 -3.0920403e-06 
0.0000000e+00 0.0000000e+00 -3.1110947e-06 
0.0000000e+00 0.0000000e+00 -3.1301327e-06 
0.0000000e+00 0.0000000e+00 -3.1491425e-06 
0.0000000e+00 0.0000000e+00 -3.1681277e-06 
0.0000000e+00 0.0000000e+00 -3.1870884e-06 
0.0000000e+00 0.0000000e+00 -3.2060250e-06 
0.0000000e+00 0.0000000e+00 -3.2249379e-06 
0.0000000e+00 0.0000000e+00 -3.2438343e-06 
0.0000000e+00 0.0000000e+00 -3.2626958e-06 
0.0000000e+00 0.0000000e+00 -3.2815403e-06 
0.0000000e+00 0.0000000e+00 -3.3003651e-06 
0.0000000e+00 0.0000000e+00 -3.3191498e-06 
0.0000000e+00 0.0000000e+00 -3.3379138e-06 
0.0000000e+00 0.0000000e+00 -3.3566550e-06 
0.0000000e+00 0.0000000e+00 -3.3753681e-06 
0.0000000e+00 0.0000000e+00 -3.3940535e-06 
0.0000000e+00 0.0000000e+00 -3.4127022e-06 
0.0000000e+00 0.0000000e+00 -2.6649805e-06 
0.0000000e+00 0.0000000e+00 -2.6649680e-06 
0.0000000e+00 0.0000000e+00 -2.6649739e-06 
0.0000000e+00 0.0000000e+00 -3.4310146e-06 
0.0000000e+00 0.0000000e+00 -3.4311659e-06 
0.0000000e+00 0.0000000e+00 -3.4312732e-06 
0.0000000e+00 0.0000000e+00 -2.6847918e-06 
0.0000000e+00 0.0000000e+00 -2.7044489e-06 
0.0000000e+00 0.0000000e+00 -2.7240799e-06 
0.0000000e+00 0.0000000e+00 -2.7436845e-06 
0.0000000e+00 0.0000000e+00 -2.7632673e-06 
0.0000000e+00 0.0000000e+00 -2.7828237e-06 
0.0000000e+00 0.0000000e+00 -2.8023564e-06 
0.0000000e+00 0.0000000e+00 -2.8218615e-06 
0.0000000e+00 0.0000000e+00 -2.8413372e-06 
0.0000000e+00 0.0000000e+00 -2.8607819e-06 
0.0000000e+00 0.0000000e+00 -2.8801940e-06 
0.0000000e+00 0.0000000e+00 -2.8995710e-06 
0.0000000e+00 0.0000000e+00 -2.9189150e-06 
0.0000000e+00 0.0000000e+00 -2.9382250e-06 
0.0000000e+00 0.0000000e+00 -2.9575019e-06 
0.0000000e+00 0.0000000e+00 -2.9767480e-06 
0.0000000e+00 0.0000000e+00 -2.9959679e-06 
0.0000000e+00 0.0000000e+00 -3.0151612e-06 
0.0000000e+00 0.0000000e+00 -3.0343324e-06 
0.0000000e+00 0.0000000e+00 -3.0534798e-06 
0.0000000e+00 0.0000000e+00 -3.0726046e-06 
0.0000000e+00 0.0000000e+00 -3.0917040e-06 
0.0000000e+00 0.0000000e+00 -3.1107757e-06 
0.0000000e+00 0.0000000e+00 -3.1298180e-06 
0.0000000e+00 0.0000000e+00 -3.1488296e-06 
0.0000000e+00 0.0000000e+00 -3.1678082e-06 
0.0000000e+00 0.0000000e+00 -3.1867539e-06 
0.0000000e+00 0.0000000e+00 -3.2056701e-06 
0.0000000e+00 0.0000000e+00 -3.2245541e-06 
0.0000000e+00 0.0000000e+00 -3.2434123e-06 
0.0000000e+00 0.0000000e+00 -3.2622404e-06 
0.0000000e+00 0.0000000e+00 -3.2810399e-06 
0.0000000e+00 0.0000000e+00 -3.2998098e-06 
0.0000000e+00 0.0000000e+00 -3.3185490e-06 
0.0000000e+00 0.0000000e+00 -3.3372567e-06 
0.0000000e+00 0.0000000e+00 -3.3559343e-06 
0.0000000e+00 0.0000000e+00 -3.3745887e-06 
0.0000000e+00 0.0000000e+00 -3.3932245e-06 
0.0000000e+00 0.0000000e+00 -3.4118316e-06 
0.0000000e+00 0.0000000e+00 -2.6649732e-06 
0.0000000e+00 0.0000000e+00 -2.6649693e-06 
0.0000000e+00 0.0000000e+00 -2.6649832e-06 
0.0000000e+00 0.0000000e+00 -2.6650043e-06 
0.0000000e+00 0.0000000e+00 -2.6650250e-06 
0.0000000e+00 0.0000000e+00 -2.6650525e-06 
0.0000000e+00 0.0000000e+00 -2.6650837e-06 
0.0000000e+00 0.0000000e+00 -3.4312707e-06 
0.0000000e+00 0.0000000e+00 -3.4311645e-06 
0.0000000e+00 0.0000000e+00 -3.4310076e-06 
0.0000000e+00 0.0000000e+00 -3.4308327e-06 
0.0000000e+00 0.0000000e+00 -3.4306684e-06 
0.0000000e+00 0.0000000e+00 -3.4305324e-06 
0.0000000e+00 0.0000000e+00 -3.4304389e-06 
0.0000000e+00 0.0000000e+00 -2.6651312e-06 
0.0000000e+00 0.0000000e+00 -2.6651715e-06 
0.0000000e+00 0.0000000e+00 -2.6652065e-06 
0.0000000e+00 0.0000000e+00 -3.4303523e-06 
0.0000000e+00 0.0000000e+00 -3.4302361e-06 
0.0000000e+00 0.0000000e+00 -3.4301179e-06 
0.0000000e+00 0.0000000e+00 -2.7529697e-06 
0.0000000e+00 0.0000000e+00 -2.8342818e-06 
0.0000000e+00 0.0000000e+00 -2.8916270e-06 
0.0000000e+00 0.0000000e+00 -2.9473185e-06 
0.0000000e+00 0.0000000e+00 -3.0051954e-06 
0.0000000e+00 0.0000000e+00 -3.0626916e-06 
0.0000000e+00 0.0000000e+00 -3.1192269e-06 
0.0000000e+00 0.0000000e+00 -3.1742113e-06 
0.0000000e+00 0.0000000e+00 -3.2345617e-06 
0.0000000e+00 0.0000000e+00 -3.2900684e-06 
0.0000000e+00 0.0000000e+00 -3.3450162e-06 
0.0000000e+00 0.0000000e+00 -2.7715637e-06 
0.0000000e+00 0.0000000e+00 -2.8108875e-06 
0.0000000e+00 0.0000000e+00 -2.8710867e-06 
0.0000000e+00 0.0000000e+00 -2.9285109e-06 
0.0000000e+00 0.0000000e+00 -2.9848266e-06 
0.0000000e+00 0.0000000e+00 -3.0413880e-06 
0.0000000e+00 0.0000000e+00 -3.1029244e-06 
0.0000000e+00 0.0000000e+00 -3.1583143e-06 
0.0000000e+00 0.0000000e+00 -3.2151106e-06 
0.0000000e+00 0.0000000e+00 -3.2701178e-06 
0.0000000e+00 0.0000000e+00 -3.3304923e-06 
0.0000000e+00 0.0000000e+00 -3.4139819e-06 
0.0000000e+00 0.0000000e+00 -2.6831508e-06 
0.0000000e+00 0.0000000e+00 -2.7355729e-06 
0.0000000e+00 0.0000000e+00 -3.3655349e-06 
0.0000000e+00 0.0000000e+00 -2.7142667e-06 
0.0000000e+00 0.0000000e+00 -3.3850015e-06 
0.0000000e+00 0.0000000e+00 -2.6836378e-06 
0.0000000e+00 0.0000000e+00 -3.4138095e-06 
0.0000000e+00 0.0000000e+00 -2.6927278e-06 
0.0000000e+00 0.0000000e+00 -3.4007928e-06 
0.0000000e+00 0.0000000e+00 -3.4141292e-06 
0.0000000e+00 0.0000000e+00 -3.3961544e-06 
0.0000000e+00 0.0000000e+00 -3.3974961e-06 
0.0000000e+00 0.0000000e+00 -3.3816182e-06 
0.0000000e+00 0.0000000e+00 -3.3816459e-06 
0.0000000e+00 0.0000000e+00 -3.3655142e-06 
0.0000000e+00 0.0000000e+00 -3.3655976e-06 
0.0000000e+00 0.0000000e+00 -3.3494198e-06 
0.0000000e+00 0.0000000e+00 -3.3495201e-06 
0.0000000e+00 0.0000000e+00 -3.3333115e-06 
0.0000000e+00 0.0000000e+00 -3.3332319e-06 
0.0000000e+00 0.0000000e+00 -3.3170925e-06 
0.0000000e+00 0.0000000e+00 -3.3171743e-06 
0.0000000e+00 0.0000000e+00 -3.3009314e-06 
0.0000000e+00 0.0000000e+00 -3.3010137e-06 
0.0000000e+00 0.0000000e+00 -3.2847404e-06 
0.0000000e+00 0.0000000e+00 -3.2846719e-06 
0.0000000e+00 0.0000000e+00 -3.2684511e-06 
0.0000000e+00 0.0000000e+00 -3.2683945e-06 
0.0000000e+00 0.0000000e+00 -3.2521498e-06 
0.0000000e+00 0.0000000e+00 -3.2522041e-06 
0.0000000e+00 0.0000000e+00 -3.2358782e-06 
0.0000000e+00 0.0000000e+00 -3.2359214e-06 
0.0000000e+00 0.0000000e+00 -3.2195746e-06 
0.0000000e+00 0.0000000e+00 -3.2195326e-06 
0.0000000e+00 0.0000000e+00 -3.2032074e-06 
0.0000000e+00 0.0000000e+00 -3.2032440e-06 
0.0000000e+00 0.0000000e+00 -3.1868547e-06 
0.0000000e+00 0.0000000e+00 -3.1868235e-06 
0.0000000e+00 0.0000000e+00 -3.1704462e-06 
0.0000000e+00 0.0000000e+00 -3.1704178e-06 
0.0000000e+00 0.0000000e+00 -3.1540185e-06 
0.0000000e+00 0.0000000e+00 -3.1540442e-06 
0.0000000e+00 0.0000000e+00 -3.1375905e-06 
0.0000000e+00 0.0000000e+00 -3.1376089e-06 
0.0000000e+00 0.0000000e+00 -3.1211348e-06 
0.0000000e+00 0.0000000e+00 -3.1211150e-06 
0.0000000e+00 0.0000000e+00 -3.1046261e-06 
0.0000000e+00 0.0000000e+00 -3.1046168e-06 
0.0000000e+00 0.0000000e+00 -3.0881006e-06 
0.0000000e+00 0.0000000e+00 -3.0881115e-06 
0.0000000e+00 0.0000000e+00 -3.0715587e-06 
0.0000000e+00 0.0000000e+00 -3.0715732e-06 
0.0000000e+00 0.0000000e+00 -3.0549918e-06 
0.0000000e+00 0.0000000e+00 -3.0549841e-06 
0.0000000e+00 0.0000000e+00 -3.0383928e-06 
0.0000000e+00 0.0000000e+00 -3.0383867e-06 
0.0000000e+00 0.0000000e+00 -3.0217716e-06 
0.0000000e+00 0.0000000e+00 -3.0217905e-06 
0.0000000e+00 0.0000000e+00 -3.0051444e-06 
0.0000000e+00 0.0000000e+00 -3.1539939e-06 
0.0000000e+00 0.0000000e+00 -3.0051710e-06 
0.0000000e+00 0.0000000e+00 -2.9885086e-06 
0.0000000e+00 0.0000000e+00 -2.9883195e-06 
0.0000000e+00 0.0000000e+00 -2.9717953e-06 
0.0000000e+00 0.0000000e+00 -2.9718615e-06 
0.0000000e+00 0.0000000e+00 -2.9551629e-06 
0.0000000e+00 0.0000000e+00 -2.9551143e-06 
0.0000000e+00 0.0000000e+00 -2.9384491e-06 
0.0000000e+00 0.0000000e+00 -2.9383432e-06 
0.0000000e+00 0.0000000e+00 -2.9217056e-06 
0.0000000e+00 0.0000000e+00 -2.9217679e-06 
0.0000000e+00 0.0000000e+00 -2.9050150e-06 
0.0000000e+00 0.0000000e+00 -2.9050177e-06 
0.0000000e+00 0.0000000e+00 -2.8882816e-06 
0.0000000e+00 0.0000000e+00 -2.8882400e-06 
0.0000000e+00 0.0000000e+00 -2.8714876e-06 
0.0000000e+00 0.0000000e+00 -2.8714403e-06 
0.0000000e+00 0.0000000e+00 -2.8546656e-06 
0.0000000e+00 0.0000000e+00 -2.8547054e-06 
0.0000000e+00 0.0000000e+00 -2.8378497e-06 
0.0000000e+00 0.0000000e+00 -2.8378786e-06 
0.0000000e+00 0.0000000e+00 -2.8210009e-06 
0.0000000e+00 0.0000000e+00 -2.8209679e-06 
0.0000000e+00 0.0000000e+00 -2.8040986e-06 
0.0000000e+00 0.0000000e+00 -2.8040788e-06 
0.0000000e+00 0.0000000e+00 -2.7871822e-06 
0.0000000e+00 0.0000000e+00 -2.7871984e-06 
0.0000000e+00 0.0000000e+00 -2.7702604e-06 
0.0000000e+00 0.0000000e+00 -2.9216772e-06 
0.0000000e+00 0.0000000e+00 -2.7702758e-06 
0.0000000e+00 0.0000000e+00 -2.7533206e-06 
0.0000000e+00 0.0000000e+00 -2.7534229e-06 
0.0000000e+00 0.0000000e+00 -2.7364883e-06 
0.0000000e+00 0.0000000e+00 -2.7363872e-06 
0.0000000e+00 0.0000000e+00 -3.3657154e-06 
0.0000000e+00 0.0000000e+00 -3.1868919e-06 
0.0000000e+00 0.0000000e+00 -2.7190968e-06 
0.0000000e+00 0.0000000e+00 -2.7198419e-06 
0.0000000e+00 0.0000000e+00 -3.3170322e-06 
0.0000000e+00 0.0000000e+00 -2.9552161e-06 
0.0000000e+00 0.0000000e+00 -3.0880901e-06 
0.0000000e+00 0.0000000e+00 -2.7872118e-06 
0.0000000e+00 0.0000000e+00 -2.8546249e-06 
0.0000000e+00 0.0000000e+00 -3.3496244e-06 
0.0000000e+00 0.0000000e+00 -3.0218127e-06 
0.0000000e+00 0.0000000e+00 -3.1211484e-06 
0.0000000e+00 0.0000000e+00 -3.2522551e-06 
0.0000000e+00 0.0000000e+00 -3.1867637e-06 
0.0000000e+00 0.0000000e+00 -3.2517735e-06 
0.0000000e+00 0.0000000e+00 -2.8883253e-06 
0.0000000e+00 0.0000000e+00 -3.0217604e-06 
0.0000000e+00 0.0000000e+00 -2.9550877e-06 
0.0000000e+00 0.0000000e+00 -2.8547324e-06 
0.0000000e+00 0.0000000e+00 -2.7868925e-06 
0.0000000e+00 0.0000000e+00 -2.8033933e-06 
0.0000000e+00 0.0000000e+00 -3.2845549e-06 
0.0000000e+00 0.0000000e+00 -3.3006197e-06 