# vtk DataFile Version 4.0
vtk output
ASCII
DATASET UNSTRUCTURED_GRID
POINTS 2964 float
-1.0000000e+00 -1.0000000e+00 0.0000000e+00 
-1.0000000e+00 -1.0000000e+00 1.0000000e+01 
1.0000000e+00 -1.0000000e+00 0.0000000e+00 
1.0000000e+00 -1.0000000e+00 1.0000000e+01 
1.0000000e+00 0.0000000e+00 0.0000000e+00 
1.0000000e+00 0.0000000e+00 1.0000000e+01 
-1.0000000e+00 0.0000000e+00 0.0000000e+00 
-1.0000000e+00 0.0000000e+00 1.0000000e+01 
1.0000000e+00 1.0000000e+00 0.0000000e+00 
1.0000000e+00 1.0000000e+00 1.0000000e+01 
-1.0000000e+00 1.0000000e+00 0.0000000e+00 
-1.0000000e+00 1.0000000e+00 1.0000000e+01 
-1.0000000e+00 -1.0000000e+00 2.5000000e-01 
-1.0000000e+00 -1.0000000e+00 5.0000000e-01 
-1.0000000e+00 -1.0000000e+00 7.5000000e-01 
-1.0000000e+00 -1.0000000e+00 1.0000000e+00 
-1.0000000e+00 -1.0000000e+00 1.2500000e+00 
-1.0000000e+00 -1.0000000e+00 1.5000000e+00 
-1.0000000e+00 -1.0000000e+00 1.7500000e+00 
-1.0000000e+00 -1.0000000e+00 2.0000000e+00 
-1.0000000e+00 -1.0000000e+00 2.2500000e+00 
-1.0000000e+00 -1.0000000e+00 2.5000000e+00 
-1.0000000e+00 -1.0000000e+00 2.7500000e+00 
-1.0000000e+00 -1.0000000e+00 3.0000000e+00 
-1.0000000e+00 -1.0000000e+00 3.2500000e+00 
-1.0000000e+00 -1.0000000e+00 3.5000000e+00 
-1.0000000e+00 -1.0000000e+00 3.7500000e+00 
-1.0000000e+00 -1.0000000e+00 4.0000000e+00 
-1.0000000e+00 -1.0000000e+00 4.2500000e+00 
-1.0000000e+00 -1.0000000e+00 4.5000000e+00 
-1.0000000e+00 -1.0000000e+00 4.7500000e+00 
-1.0000000e+00 -1.0000000e+00 5.0000000e+00 
-1.0000000e+00 -1.0000000e+00 5.2500000e+00 
-1.0000000e+00 -1.0000000e+00 5.5000000e+00 
-1.0000000e+00 -1.0000000e+00 5.7500000e+00 
-1.0000000e+00 -1.0000000e+00 6.0000000e+00 
-1.0000000e+00 -1.0000000e+00 6.2500000e+00 
-1.0000000e+00 -1.0000000e+00 6.5000000e+00 
-1.0000000e+00 -1.0000000e+00 6.7500000e+00 
-1.0000000e+00 -1.0000000e+00 7.0000000e+00 
-1.0000000e+00 -1.0000000e+00 7.2500000e+00 
-1.0000000e+00 -1.0000000e+00 7.5000000e+00 
-1.0000000e+00 -1.0000000e+00 7.7500000e+00 
-1.0000000e+00 -1.0000000e+00 8.0000000e+00 
-1.0000000e+00 -1.0000000e+00 8.2500000e+00 
-1.0000000e+00 -1.0000000e+00 8.5000000e+00 
-1.0000000e+00 -1.0000000e+00 8.7500000e+00 
-1.0000000e+00 -1.0000000e+00 9.0000000e+00 
-1.0000000e+00 -1.0000000e+00 9.2500000e+00 
-1.0000000e+00 -1.0000000e+00 9.5000000e+00 
-1.0000000e+00 -1.0000000e+00 9.7500000e+00 
1.0000000e+00 -1.0000000e+00 2.5000000e-01 
1.0000000e+00 -1.0000000e+00 5.0000000e-01 
1.0000000e+00 -1.0000000e+00 7.5000000e-01 
1.0000000e+00 -1.0000000e+00 1.0000000e+00 
1.0000000e+00 -1.0000000e+00 1.2500000e+00 
1.0000000e+00 -1.0000000e+00 1.5000000e+00 
1.0000000e+00 -1.0000000e+00 1.7500000e+00 
1.0000000e+00 -1.0000000e+00 2.0000000e+00 
1.0000000e+00 -1.0000000e+00 2.2500000e+00 
1.0000000e+00 -1.0000000e+00 2.5000000e+00 
1.0000000e+00 -1.0000000e+00 2.7500000e+00 
1.0000000e+00 -1.0000000e+00 3.0000000e+00 
1.0000000e+00 -1.0000000e+00 3.2500000e+00 
1.0000000e+00 -1.0000000e+00 3.5000000e+00 
1.0000000e+00 -1.0000000e+00 3.7500000e+00 
1.0000000e+00 -1.0000000e+00 4.0000000e+00 
1.0000000e+00 -1.0000000e+00 4.2500000e+00 
1.0000000e+00 -1.0000000e+00 4.5000000e+00 
1.0000000e+00 -1.0000000e+00 4.7500000e+00 
1.0000000e+00 -1.0000000e+00 5.0000000e+00 
1.0000000e+00 -1.0000000e+00 5.2500000e+00 
1.0000000e+00 -1.0000000e+00 5.5000000e+00 
1.0000000e+00 -1.0000000e+00 5.7500000e+00 
1.0000000e+00 -1.0000000e+00 6.0000000e+00 
1.0000000e+00 -1.0000000e+00 6.2500000e+00 
1.0000000e+00 -1.0000000e+00 6.5000000e+00 
1.0000000e+00 -1.0000000e+00 6.7500000e+00 
1.0000000e+00 -1.0000000e+00 7.0000000e+00 
1.0000000e+00 -1.0000000e+00 7.2500000e+00 
1.0000000e+00 -1.0000000e+00 7.5000000e+00 
1.0000000e+00 -1.0000000e+00 7.7500000e+00 
1.0000000e+00 -1.0000000e+00 8.0000000e+00 
1.0000000e+00 -1.0000000e+00 8.2500000e+00 
1.0000000e+00 -1.0000000e+00 8.5000000e+00 
1.0000000e+00 -1.0000000e+00 8.7500000e+00 
1.0000000e+00 -1.0000000e+00 9.0000000e+00 
1.0000000e+00 -1.0000000e+00 9.2500000e+00 
1.0000000e+00 -1.0000000e+00 9.5000000e+00 
1.0000000e+00 -1.0000000e+00 9.7500000e+00 
-7.5000000e-01 -1.0000000e+00 0.0000000e+00 
-5.0000000e-01 -1.0000000e+00 0.0000000e+00 
-2.5000000e-01 -1.0000000e+00 0.0000000e+00 
0.0000000e+00 -1.0000000e+00 0.0000000e+00 
2.5000000e-01 -1.0000000e+00 0.0000000e+00 
5.0000000e-01 -1.0000000e+00 0.0000000e+00 
7.5000000e-01 -1.0000000e+00 0.0000000e+00 
-7.5000000e-01 -1.0000000e+00 1.0000000e+01 
-5.0000000e-01 -1.0000000e+00 1.0000000e+01 
-2.5000000e-01 -1.0000000e+00 1.0000000e+01 
0.0000000e+00 -1.0000000e+00 1.0000000e+01 
2.5000000e-01 -1.0000000e+00 1.0000000e+01 
5.0000000e-01 -1.0000000e+00 1.0000000e+01 
7.5000000e-01 -1.0000000e+00 1.0000000e+01 
1.0000000e+00 0.0000000e+00 2.5000000e-01 
1.0000000e+00 0.0000000e+00 5.0000000e-01 
1.0000000e+00 0.0000000e+00 7.5000000e-01 
1.0000000e+00 0.0000000e+00 1.0000000e+00 
1.0000000e+00 0.0000000e+00 1.2500000e+00 
1.0000000e+00 0.0000000e+00 1.5000000e+00 
1.0000000e+00 0.0000000e+00 1.7500000e+00 
1.0000000e+00 0.0000000e+00 2.0000000e+00 
1.0000000e+00 0.0000000e+00 2.2500000e+00 
1.0000000e+00 0.0000000e+00 2.5000000e+00 
1.0000000e+00 0.0000000e+00 2.7500000e+00 
1.0000000e+00 0.0000000e+00 3.0000000e+00 
1.0000000e+00 0.0000000e+00 3.2500000e+00 
1.0000000e+00 0.0000000e+00 3.5000000e+00 
1.0000000e+00 0.0000000e+00 3.7500000e+00 
1.0000000e+00 0.0000000e+00 4.0000000e+00 
1.0000000e+00 0.0000000e+00 4.2500000e+00 
1.0000000e+00 0.0000000e+00 4.5000000e+00 
1.0000000e+00 0.0000000e+00 4.7500000e+00 
1.0000000e+00 0.0000000e+00 5.0000000e+00 
1.0000000e+00 0.0000000e+00 5.2500000e+00 
1.0000000e+00 0.0000000e+00 5.5000000e+00 
1.0000000e+00 0.0000000e+00 5.7500000e+00 
1.0000000e+00 0.0000000e+00 6.0000000e+00 
1.0000000e+00 0.0000000e+00 6.2500000e+00 
1.0000000e+00 0.0000000e+00 6.5000000e+00 
1.0000000e+00 0.0000000e+00 6.7500000e+00 
1.0000000e+00 0.0000000e+00 7.0000000e+00 
1.0000000e+00 0.0000000e+00 7.2500000e+00 
1.0000000e+00 0.0000000e+00 7.5000000e+00 
1.0000000e+00 0.0000000e+00 7.7500000e+00 
1.0000000e+00 0.0000000e+00 8.0000000e+00 
1.0000000e+00 0.0000000e+00 8.2500000e+00 
1.0000000e+00 0.0000000e+00 8.5000000e+00 
1.0000000e+00 0.0000000e+00 8.7500000e+00 
1.0000000e+00 0.0000000e+00 9.0000000e+00 
1.0000000e+00 0.0000000e+00 9.2500000e+00 
1.0000000e+00 0.0000000e+00 9.5000000e+00 
1.0000000e+00 0.0000000e+00 9.7500000e+00 
1.0000000e+00 -7.5000000e-01 0.0000000e+00 
1.0000000e+00 -5.0000000e-01 0.0000000e+00 
1.0000000e+00 -2.5000000e-01 0.0000000e+00 
1.0000000e+00 -7.5000000e-01 1.0000000e+01 
1.0000000e+00 -5.0000000e-01 1.0000000e+01 
1.0000000e+00 -2.5000000e-01 1.0000000e+01 
-1.0000000e+00 0.0000000e+00 2.5000000e-01 
-1.0000000e+00 0.0000000e+00 5.0000000e-01 
-1.0000000e+00 0.0000000e+00 7.5000000e-01 
-1.0000000e+00 0.0000000e+00 1.0000000e+00 
-1.0000000e+00 0.0000000e+00 1.2500000e+00 
-1.0000000e+00 0.0000000e+00 1.5000000e+00 
-1.0000000e+00 0.0000000e+00 1.7500000e+00 
-1.0000000e+00 0.0000000e+00 2.0000000e+00 
-1.0000000e+00 0.0000000e+00 2.2500000e+00 
-1.0000000e+00 0.0000000e+00 2.5000000e+00 
-1.0000000e+00 0.0000000e+00 2.7500000e+00 
-1.0000000e+00 0.0000000e+00 3.0000000e+00 
-1.0000000e+00 0.0000000e+00 3.2500000e+00 
-1.0000000e+00 0.0000000e+00 3.5000000e+00 
-1.0000000e+00 0.0000000e+00 3.7500000e+00 
-1.0000000e+00 0.0000000e+00 4.0000000e+00 
-1.0000000e+00 0.0000000e+00 4.2500000e+00 
-1.0000000e+00 0.0000000e+00 4.5000000e+00 
-1.0000000e+00 0.0000000e+00 4.7500000e+00 
-1.0000000e+00 0.0000000e+00 5.0000000e+00 
-1.0000000e+00 0.0000000e+00 5.2500000e+00 
-1.0000000e+00 0.0000000e+00 5.5000000e+00 
-1.0000000e+00 0.0000000e+00 5.7500000e+00 
-1.0000000e+00 0.0000000e+00 6.0000000e+00 
-1.0000000e+00 0.0000000e+00 6.2500000e+00 
-1.0000000e+00 0.0000000e+00 6.5000000e+00 
-1.0000000e+00 0.0000000e+00 6.7500000e+00 
-1.0000000e+00 0.0000000e+00 7.0000000e+00 
-1.0000000e+00 0.0000000e+00 7.2500000e+00 
-1.0000000e+00 0.0000000e+00 7.5000000e+00 
-1.0000000e+00 0.0000000e+00 7.7500000e+00 
-1.0000000e+00 0.0000000e+00 8.0000000e+00 
-1.0000000e+00 0.0000000e+00 8.2500000e+00 
-1.0000000e+00 0.0000000e+00 8.5000000e+00 
-1.0000000e+00 0.0000000e+00 8.7500000e+00 
-1.0000000e+00 0.0000000e+00 9.0000000e+00 
-1.0000000e+00 0.0000000e+00 9.2500000e+00 
-1.0000000e+00 0.0000000e+00 9.5000000e+00 
-1.0000000e+00 0.0000000e+00 9.7500000e+00 
7.5000000e-01 0.0000000e+00 0.0000000e+00 
5.0000000e-01 0.0000000e+00 0.0000000e+00 
2.5000000e-01 0.0000000e+00 0.0000000e+00 
0.0000000e+00 0.0000000e+00 0.0000000e+00 
-2.5000000e-01 0.0000000e+00 0.0000000e+00 
-5.0000000e-01 0.0000000e+00 0.0000000e+00 
-7.5000000e-01 0.0000000e+00 0.0000000e+00 
7.5000000e-01 0.0000000e+00 1.0000000e+01 
5.0000000e-01 0.0000000e+00 1.0000000e+01 
2.5000000e-01 0.0000000e+00 1.0000000e+01 
0.0000000e+00 0.0000000e+00 1.0000000e+01 
-2.5000000e-01 0.0000000e+00 1.0000000e+01 
-5.0000000e-01 0.0000000e+00 1.0000000e+01 
-7.5000000e-01 0.0000000e+00 1.0000000e+01 
-1.0000000e+00 -2.5000000e-01 0.0000000e+00 
-1.0000000e+00 -5.0000000e-01 0.0000000e+00 
-1.0000000e+00 -7.5000000e-01 0.0000000e+00 
-1.0000000e+00 -2.5000000e-01 1.0000000e+01 
-1.0000000e+00 -5.0000000e-01 1.0000000e+01 
-1.0000000e+00 -7.5000000e-01 1.0000000e+01 
1.0000000e+00 1.0000000e+00 2.5000000e-01 
1.0000000e+00 1.0000000e+00 5.0000000e-01 
1.0000000e+00 1.0000000e+00 7.5000000e-01 
1.0000000e+00 1.0000000e+00 1.0000000e+00 
1.0000000e+00 1.0000000e+00 1.2500000e+00 
1.0000000e+00 1.0000000e+00 1.5000000e+00 
1.0000000e+00 1.0000000e+00 1.7500000e+00 
1.0000000e+00 1.0000000e+00 2.0000000e+00 
1.0000000e+00 1.0000000e+00 2.2500000e+00 
1.0000000e+00 1.0000000e+00 2.5000000e+00 
1.0000000e+00 1.0000000e+00 2.7500000e+00 
1.0000000e+00 1.0000000e+00 3.0000000e+00 
1.0000000e+00 1.0000000e+00 3.2500000e+00 
1.0000000e+00 1.0000000e+00 3.5000000e+00 
1.0000000e+00 1.0000000e+00 3.7500000e+00 
1.0000000e+00 1.0000000e+00 4.0000000e+00 
1.0000000e+00 1.0000000e+00 4.2500000e+00 
[...]
POINT_DATA 2964
FIELD FieldData 2
DISPLACEMENT 3 2964  float
0.0000000e+00 0.0000000e+00 -9.4562421e-07 
0.0000000e+00 0.0000000e+00 -1.7431790e-06 
0.0000000e+00 0.0000000e+00 -9.4627080e-07 
0.0000000e+00 0.0000000e+00 -1.7456495e-06 
0.0000000e+00 0.0000000e+00 -9.4641121e-07 
0.0000000e+00 0.0000000e+00 -1.7487209e-06 
0.0000000e+00 0.0000000e+00 -9.4598158e-07 
0.0000000e+00 0.0000000e+00 -1.7448739e-06 
0.0000000e+00 0.0000000e+00 -9.4666461e-07 
0.0000000e+00 0.0000000e+00 -1.7494095e-06 
0.0000000e+00 0.0000000e+00 -9.4625460e-07 
0.0000000e+00 0.0000000e+00 -1.7456879e-06 
0.0000000e+00 0.0000000e+00 -9.6582937e-07 
0.0000000e+00 0.0000000e+00 -9.8612895e-07 
0.0000000e+00 0.0000000e+00 -1.0065671e-06 
0.0000000e+00 0.0000000e+00 -1.0271582e-06 
0.0000000e+00 0.0000000e+00 -1.0478958e-06 
0.0000000e+00 0.0000000e+00 -1.0687880e-06 
0.0000000e+00 0.0000000e+00 -1.0898361e-06 
0.0000000e+00 0.0000000e+00 -1.1109881e-06 
0.0000000e+00 0.0000000e+00 -1.1322217e-06 
0.0000000e+00 0.0000000e+00 -1.1535151e-06 
0.0000000e+00 0.0000000e+00 -1.1748190e-06 
0.0000000e+00 0.0000000e+00 -1.1960823e-06 
0.0000000e+00 0.0000000e+00 -1.2172363e-06 
0.0000000e+00 0.0000000e+00 -1.2382650e-06 
0.0000000e+00 0.0000000e+00 -1.2591368e-06 
0.0000000e+00 0.0000000e+00 -1.2797778e-06 
0.0000000e+00 0.0000000e+00 -1.3001402e-06 
0.0000000e+00 0.0000000e+00 -1.3202615e-06 
0.0000000e+00 0.0000000e+00 -1.3401617e-06 
0.0000000e+00 0.0000000e+00 -1.3598367e-06 
0.0000000e+00 0.0000000e+00 -1.3793177e-06 
0.0000000e+00 0.0000000e+00 -1.3986562e-06 
0.0000000e+00 0.0000000e+00 -1.4179000e-06 
0.0000000e+00 0.0000000e+00 -1.4371344e-06 
0.0000000e+00 0.0000000e+00 -1.4564524e-06 
0.0000000e+00 0.0000000e+00 -1.4758737e-06 
0.0000000e+00 0.0000000e+00 -1.4954223e-06 
0.0000000e+00 0.0000000e+00 -1.5151156e-06 
0.0000000e+00 0.0000000e+00 -1.5348890e-06 
0.0000000e+00 0.0000000e+00 -1.5546840e-06 
0.0000000e+00 0.0000000e+00 -1.5744012e-06 
0.0000000e+00 0.0000000e+00 -1.5939562e-06 
0.0000000e+00 0.0000000e+00 -1.6132736e-06 
0.0000000e+00 0.0000000e+00 -1.6322133e-06 
0.0000000e+00 0.0000000e+00 -1.6510990e-06 
0.0000000e+00 0.0000000e+00 -1.6697222e-06 
0.0000000e+00 0.0000000e+00 -1.6881795e-06 
0.0000000e+00 0.0000000e+00 -1.7064860e-06 
0.0000000e+00 0.0000000e+00 -1.7247210e-06 
0.0000000e+00 0.0000000e+00 -9.6658187e-07 
0.0000000e+00 0.0000000e+00 -9.8685791e-07 
0.0000000e+00 0.0000000e+00 -1.0071363e-06 
0.0000000e+00 0.0000000e+00 -1.0274415e-06 
0.0000000e+00 0.0000000e+00 -1.0477822e-06 
0.0000000e+00 0.0000000e+00 -1.0682146e-06 
0.0000000e+00 0.0000000e+00 -1.0887077e-06 
0.0000000e+00 0.0000000e+00 -1.1093230e-06 
0.0000000e+00 0.0000000e+00 -1.1300373e-06 
0.0000000e+00 0.0000000e+00 -1.1508555e-06 
0.0000000e+00 0.0000000e+00 -1.1717807e-06 
0.0000000e+00 0.0000000e+00 -1.1927951e-06 
0.0000000e+00 0.0000000e+00 -1.2138798e-06 
0.0000000e+00 0.0000000e+00 -1.2350042e-06 
0.0000000e+00 0.0000000e+00 -1.2561655e-06 
0.0000000e+00 0.0000000e+00 -1.2773326e-06 
0.0000000e+00 0.0000000e+00 -1.2984616e-06 
0.0000000e+00 0.0000000e+00 -1.3195362e-06 
0.0000000e+00 0.0000000e+00 -1.3405247e-06 
0.0000000e+00 0.0000000e+00 -1.3613696e-06 
0.0000000e+00 0.0000000e+00 -1.3820941e-06 
0.0000000e+00 0.0000000e+00 -1.4026094e-06 
0.0000000e+00 0.0000000e+00 -1.4229175e-06 
0.0000000e+00 0.0000000e+00 -1.4429988e-06 
0.0000000e+00 0.0000000e+00 -1.4628691e-06 
0.0000000e+00 0.0000000e+00 -1.4824853e-06 
0.0000000e+00 0.0000000e+00 -1.5018735e-06 
0.0000000e+00 0.0000000e+00 -1.5210375e-06 
0.0000000e+00 0.0000000e+00 -1.5400183e-06 
0.0000000e+00 0.0000000e+00 -1.5588618e-06 
0.0000000e+00 0.0000000e+00 -1.5775846e-06 
0.0000000e+00 0.0000000e+00 -1.5963082e-06 
0.0000000e+00 0.0000000e+00 -1.6150225e-06 
0.0000000e+00 0.0000000e+00 -1.6337875e-06 
0.0000000e+00 0.0000000e+00 -1.6525836e-06 
0.0000000e+00 0.0000000e+00 -1.6713670e-06 
0.0000000e+00 0.0000000e+00 -1.6900943e-06 
0.0000000e+00 0.0000000e+00 -1.7085918e-06 
0.0000000e+00 0.0000000e+00 -1.7270959e-06 
0.0000000e+00 0.0000000e+00 -9.4569128e-07 
0.0000000e+00 0.0000000e+00 -9.4582686e-07 
0.0000000e+00 0.0000000e+00 -9.4590911e-07 
0.0000000e+00 0.0000000e+00 -9.4597056e-07 
0.0000000e+00 0.0000000e+00 -9.4617144e-07 
0.0000000e+00 0.0000000e+00 -9.4622294e-07 
0.0000000e+00 0.0000000e+00 -9.4629422e-07 
0.0000000e+00 0.0000000e+00 -1.7436021e-06 
0.0000000e+00 0.0000000e+00 -1.7440653e-06 
0.0000000e+00 0.0000000e+00 -1.7445760e-06 
0.0000000e+00 0.0000000e+00 -1.7451272e-06 
0.0000000e+00 0.0000000e+00 -1.7455810e-06 
0.0000000e+00 0.0000000e+00 -1.7458671e-06 
0.0000000e+00 0.0000000e+00 -1.7459349e-06 
0.0000000e+00 0.0000000e+00 -9.6694009e-07 
0.0000000e+00 0.0000000e+00 -9.8728697e-07 
0.0000000e+00 0.0000000e+00 -1.0075319e-06 
0.0000000e+00 0.0000000e+00 -1.0276849e-06 
0.0000000e+00 0.0000000e+00 -1.0478310e-06 
0.0000000e+00 0.0000000e+00 -1.0679972e-06 
0.0000000e+00 0.0000000e+00 -1.0882172e-06 
0.0000000e+00 0.0000000e+00 -1.1085456e-06 
0.0000000e+00 0.0000000e+00 -1.1289515e-06 
0.0000000e+00 0.0000000e+00 -1.1494898e-06 
0.0000000e+00 0.0000000e+00 -1.1701751e-06 
0.0000000e+00 0.0000000e+00 -1.1910128e-06 
0.0000000e+00 0.0000000e+00 -1.2119942e-06 
0.0000000e+00 0.0000000e+00 -1.2331043e-06 
0.0000000e+00 0.0000000e+00 -1.2543206e-06 
0.0000000e+00 0.0000000e+00 -1.2756221e-06 
0.0000000e+00 0.0000000e+00 -1.2970067e-06 
0.0000000e+00 0.0000000e+00 -1.3184205e-06 
0.0000000e+00 0.0000000e+00 -1.3398530e-06 
0.0000000e+00 0.0000000e+00 -1.3611672e-06 
0.0000000e+00 0.0000000e+00 -1.3824326e-06 
0.0000000e+00 0.0000000e+00 -1.4034840e-06 
0.0000000e+00 0.0000000e+00 -1.4243296e-06 
0.0000000e+00 0.0000000e+00 -1.4449505e-06 
0.0000000e+00 0.0000000e+00 -1.4652890e-06 
0.0000000e+00 0.0000000e+00 -1.4852207e-06 
0.0000000e+00 0.0000000e+00 -1.5048431e-06 
0.0000000e+00 0.0000000e+00 -1.5240938e-06 
0.0000000e+00 0.0000000e+00 -1.5430588e-06 
0.0000000e+00 0.0000000e+00 -1.5617055e-06 
0.0000000e+00 0.0000000e+00 -1.5802340e-06 
0.0000000e+00 0.0000000e+00 -1.5986674e-06 
0.0000000e+00 0.0000000e+00 -1.6171304e-06 
0.0000000e+00 0.0000000e+00 -1.6357883e-06 
0.0000000e+00 0.0000000e+00 -1.6545985e-06 
0.0000000e+00 0.0000000e+00 -1.6734105e-06 
0.0000000e+00 0.0000000e+00 -1.6923115e-06 
0.0000000e+00 0.0000000e+00 -1.7111402e-06 
0.0000000e+00 0.0000000e+00 -1.7299591e-06 
0.0000000e+00 0.0000000e+00 -9.4625960e-07 
0.0000000e+00 0.0000000e+00 -9.4627876e-07 
0.0000000e+00 0.0000000e+00 -9.4634862e-07 
0.0000000e+00 0.0000000e+00 -1.7461161e-06 
0.0000000e+00 0.0000000e+00 -1.7468213e-06 
0.0000000e+00 0.0000000e+00 -1.7476777e-06 
0.0000000e+00 0.0000000e+00 -9.6603139e-07 
0.0000000e+00 0.0000000e+00 -9.8619932e-07 
0.0000000e+00 0.0000000e+00 -1.0064653e-06 
0.0000000e+00 0.0000000e+00 -1.0268691e-06 
0.0000000e+00 0.0000000e+00 -1.0474027e-06 
0.0000000e+00 0.0000000e+00 -1.0680823e-06 
0.0000000e+00 0.0000000e+00 -1.0888930e-06 
0.0000000e+00 0.0000000e+00 -1.1098616e-06 
0.0000000e+00 0.0000000e+00 -1.1309339e-06 
0.0000000e+00 0.0000000e+00 -1.1520972e-06 
0.0000000e+00 0.0000000e+00 -1.1733111e-06 
0.0000000e+00 0.0000000e+00 -1.1945699e-06 
0.0000000e+00 0.0000000e+00 -1.2158212e-06 
0.0000000e+00 0.0000000e+00 -1.2370214e-06 
0.0000000e+00 0.0000000e+00 -1.2581366e-06 
0.0000000e+00 0.0000000e+00 -1.2791268e-06 
0.0000000e+00 0.0000000e+00 -1.2999874e-06 
0.0000000e+00 0.0000000e+00 -1.3206454e-06 
0.0000000e+00 0.0000000e+00 -1.3410805e-06 
0.0000000e+00 0.0000000e+00 -1.3613317e-06 
0.0000000e+00 0.0000000e+00 -1.3813484e-06 
0.0000000e+00 0.0000000e+00 -1.4011817e-06 
0.0000000e+00 0.0000000e+00 -1.4208175e-06 
0.0000000e+00 0.0000000e+00 -1.4402302e-06 
0.0000000e+00 0.0000000e+00 -1.4596434e-06 
0.0000000e+00 0.0000000e+00 -1.4790057e-06 
0.0000000e+00 0.0000000e+00 -1.4983406e-06 
0.0000000e+00 0.0000000e+00 -1.5177376e-06 
0.0000000e+00 0.0000000e+00 -1.5371645e-06 
0.0000000e+00 0.0000000e+00 -1.5566927e-06 
0.0000000e+00 0.0000000e+00 -1.5762266e-06 
0.0000000e+00 0.0000000e+00 -1.5956708e-06 
0.0000000e+00 0.0000000e+00 -1.6149231e-06 
0.0000000e+00 0.0000000e+00 -1.6339018e-06 
0.0000000e+00 0.0000000e+00 -1.6526822e-06 
0.0000000e+00 0.0000000e+00 -1.6712538e-06 
0.0000000e+00 0.0000000e+00 -1.6897902e-06 
0.0000000e+00 0.0000000e+00 -1.7081579e-06 
0.0000000e+00 0.0000000e+00 -1.7264516e-06 
-4.6614462e-10 -5.5378713e-10 -9.4640103e-07 
-8.1337592e-10 -8.4817176e-10 -9.4641405e-07 
-1.0167283e-09 -1.0284346e-09 -9.4637011e-07 
-1.0588400e-09 -1.0309192e-09 -9.4627967e-07 
-9.6454533e-10 -9.2956137e-10 -9.4620839e-07 
-7.3997974e-10 -7.7077628e-10 -9.4610471e-07 
-4.3453116e-10 -5.0036686e-10 -9.4603473e-07 
-7.2632084e-10 1.8548418e-10 -1.7493509e-06 
-1.0826537e-09 -4.0874706e-10 -1.7498586e-06 
-9.9931197e-10 -7.1802136e-10 -1.7497345e-06 
-5.9195526e-10 -6.3524214e-10 -1.7490355e-06 
-1.3370659e-10 -3.6469480e-10 -1.7479783e-06 
1.3998536e-10 -8.5632945e-11 -1.7468805e-06 
3.4562062e-10 2.1852017e-10 -1.7457733e-06 
0.0000000e+00 0.0000000e+00 -9.4589183e-07 
0.0000000e+00 0.0000000e+00 -9.4578888e-07 
0.0000000e+00 0.0000000e+00 -9.4571936e-07 
0.0000000e+00 0.0000000e+00 -1.7444991e-06 
0.0000000e+00 0.0000000e+00 -1.7440813e-06 
0.0000000e+00 0.0000000e+00 -1.7435746e-06 
0.0000000e+00 0.0000000e+00 -9.6713813e-07 
0.0000000e+00 0.0000000e+00 -9.8748603e-07 
0.0000000e+00 0.0000000e+00 -1.0077257e-06 
0.0000000e+00 0.0000000e+00 -1.0278638e-06 
0.0000000e+00 0.0000000e+00 -1.0479594e-06 
0.0000000e+00 0.0000000e+00 -1.0680473e-06 
0.0000000e+00 0.0000000e+00 -1.0881500e-06 
0.0000000e+00 0.0000000e+00 -1.1083046e-06 
0.0000000e+00 0.0000000e+00 -1.1285528e-06 
0.0000000e+00 0.0000000e+00 -1.1489213e-06 
0.0000000e+00 0.0000000e+00 -1.1694291e-06 
0.0000000e+00 0.0000000e+00 -1.1900919e-06 
0.0000000e+00 0.0000000e+00 -1.2109225e-06 
0.0000000e+00 0.0000000e+00 -1.2319393e-06 
0.0000000e+00 0.0000000e+00 -1.2531129e-06 
0.0000000e+00 0.0000000e+00 -1.2744179e-06 
0.0000000e+00 0.0000000e+00 -1.2958354e-06 
0.0000000e+00 0.0000000e+00 -1.3173673e-06 
0.0000000e+00 0.0000000e+00 -1.3389662e-06 
0.0000000e+00 0.0000000e+00 -1.3605658e-06 
0.0000000e+00 0.0000000e+00 -1.3820811e-06 
0.0000000e+00 0.0000000e+00 -1.4034795e-06 
0.0000000e+00 0.0000000e+00 -1.4246109e-06 
0.0000000e+00 0.0000000e+00 -1.4456955e-06 
0.0000000e+00 0.0000000e+00 -1.4663618e-06 
0.0000000e+00 0.0000000e+00 -1.4866491e-06 
0.0000000e+00 0.0000000e+00 -1.5065082e-06 
0.0000000e+00 0.0000000e+00 -1.5259636e-06 
0.0000000e+00 0.0000000e+00 -1.5450548e-06 
0.0000000e+00 0.0000000e+00 -1.5638408e-06 
0.0000000e+00 0.0000000e+00 -1.5822828e-06 
0.0000000e+00 0.0000000e+00 -1.6006378e-06 
0.0000000e+00 0.0000000e+00 -1.6188952e-06 
0.0000000e+00 0.0000000e+00 -1.6372280e-06 
0.0000000e+00 0.0000000e+00 -1.6557212e-06 
0.0000000e+00 0.0000000e+00 -1.6743380e-06 
0.0000000e+00 0.0000000e+00 -1.6931075e-06 
0.0000000e+00 0.0000000e+00 -1.7119272e-06 
0.0000000e+00 0.0000000e+00 -1.7307249e-06 
0.0000000e+00 0.0000000e+00 -9.4644503e-07 
0.0000000e+00 0.0000000e+00 -9.4647339e-07 
0.0000000e+00 0.0000000e+00 -9.4655468e-07 
0.0000000e+00 0.0000000e+00 -1.7495516e-06 
0.0000000e+00 0.0000000e+00 -1.7499646e-06 
0.0000000e+00 0.0000000e+00 -1.7498897e-06 
0.0000000e+00 0.0000000e+00 -9.6655981e-07 
0.0000000e+00 0.0000000e+00 -9.8683574e-07 
0.0000000e+00 0.0000000e+00 -1.0071055e-06 
0.0000000e+00 0.0000000e+00 -1.0274088e-06 
0.0000000e+00 0.0000000e+00 -1.0477747e-06 
0.0000000e+00 0.0000000e+00 -1.0681831e-06 
0.0000000e+00 0.0000000e+00 -1.0886934e-06 
0.0000000e+00 0.0000000e+00 -1.1093209e-06 
0.0000000e+00 0.0000000e+00 -1.1300458e-06 
0.0000000e+00 0.0000000e+00 -1.1508920e-06 
0.0000000e+00 0.0000000e+00 -1.1718224e-06 
0.0000000e+00 0.0000000e+00 -1.1928420e-06 
0.0000000e+00 0.0000000e+00 -1.2139388e-06 
0.0000000e+00 0.0000000e+00 -1.2350857e-06 
0.0000000e+00 0.0000000e+00 -1.2562597e-06 
0.0000000e+00 0.0000000e+00 -1.2774283e-06 
0.0000000e+00 0.0000000e+00 -1.2985631e-06 
0.0000000e+00 0.0000000e+00 -1.3196337e-06 
0.0000000e+00 0.0000000e+00 -1.3406307e-06 
0.0000000e+00 0.0000000e+00 -1.3614956e-06 
0.0000000e+00 0.0000000e+00 -1.3821821e-06 
0.0000000e+00 0.0000000e+00 -1.4026668e-06 
0.0000000e+00 0.0000000e+00 -1.4229760e-06 
0.0000000e+00 0.0000000e+00 -1.4430236e-06 
0.0000000e+00 0.0000000e+00 -1.4628708e-06 
0.0000000e+00 0.0000000e+00 -1.4824565e-06 
0.0000000e+00 0.0000000e+00 -1.5018049e-06 
0.0000000e+00 0.0000000e+00 -1.5209658e-06 
0.0000000e+00 0.0000000e+00 -1.5399146e-06 
0.0000000e+00 0.0000000e+00 -1.5587475e-06 
0.0000000e+00 0.0000000e+00 -1.5774782e-06 
0.0000000e+00 0.0000000e+00 -1.5961873e-06 
0.0000000e+00 0.0000000e+00 -1.6149286e-06 
0.0000000e+00 0.0000000e+00 -1.6337086e-06 
0.0000000e+00 0.0000000e+00 -1.6525199e-06 
0.0000000e+00 0.0000000e+00 -1.6713436e-06 
0.0000000e+00 0.0000000e+00 -1.6900717e-06 
0.0000000e+00 0.0000000e+00 -1.7086603e-06 
0.0000000e+00 0.0000000e+00 -1.7271407e-06 
0.0000000e+00 0.0000000e+00 -9.4655451e-07 
0.0000000e+00 0.0000000e+00 -9.4645515e-07 
0.0000000e+00 0.0000000e+00 -9.4641882e-07 
0.0000000e+00 0.0000000e+00 -9.4644554e-07 
0.0000000e+00 0.0000000e+00 -9.4630582e-07 
0.0000000e+00 0.0000000e+00 -9.4623749e-07 
0.0000000e+00 0.0000000e+00 -9.4622465e-07 
0.0000000e+00 0.0000000e+00 -1.7498570e-06 
0.0000000e+00 0.0000000e+00 -1.7500109e-06 
0.0000000e+00 0.0000000e+00 -1.7495709e-06 
0.0000000e+00 0.0000000e+00 -1.7487710e-06 
0.0000000e+00 0.0000000e+00 -1.7478236e-06 
0.0000000e+00 0.0000000e+00 -1.7468718e-06 
0.0000000e+00 0.0000000e+00 -1.7460629e-06 
0.0000000e+00 0.0000000e+00 -9.4627273e-07 
0.0000000e+00 0.0000000e+00 -9.4623994e-07 
0.0000000e+00 0.0000000e+00 -9.4614063e-07 
0.0000000e+00 0.0000000e+00 -1.7459386e-06 
0.0000000e+00 0.0000000e+00 -1.7458406e-06 
0.0000000e+00 0.0000000e+00 -1.7454936e-06 
0.0000000e+00 0.0000000e+00 -1.0370351e-06 
0.0000000e+00 0.0000000e+00 -1.1246166e-06 
0.0000000e+00 0.0000000e+00 -1.1876093e-06 
0.0000000e+00 0.0000000e+00 -1.2484121e-06 
0.0000000e+00 0.0000000e+00 -1.3100195e-06 
0.0000000e+00 0.0000000e+00 -1.3693672e-06 
0.0000000e+00 0.0000000e+00 -1.4265481e-06 
0.0000000e+00 0.0000000e+00 -1.4826599e-06 
0.0000000e+00 0.0000000e+00 -1.5458124e-06 
0.0000000e+00 0.0000000e+00 -1.6038573e-06 
0.0000000e+00 0.0000000e+00 -1.6594465e-06 
0.0000000e+00 0.0000000e+00 -1.0567372e-06 
0.0000000e+00 0.0000000e+00 -1.0977139e-06 
0.0000000e+00 0.0000000e+00 -1.1620352e-06 
0.0000000e+00 0.0000000e+00 -1.2245634e-06 
0.0000000e+00 0.0000000e+00 -1.2864026e-06 
0.0000000e+00 0.0000000e+00 -1.3483334e-06 
0.0000000e+00 0.0000000e+00 -1.4145107e-06 
0.0000000e+00 0.0000000e+00 -1.4724387e-06 
0.0000000e+00 0.0000000e+00 -1.5303144e-06 
0.0000000e+00 0.0000000e+00 -1.5853132e-06 
0.0000000e+00 0.0000000e+00 -1.6457506e-06 
0.0000000e+00 0.0000000e+00 -1.7291036e-06 
0.0000000e+00 0.0000000e+00 -9.6423764e-07 
0.0000000e+00 0.0000000e+00 -1.0185955e-06 
0.0000000e+00 0.0000000e+00 -1.6810824e-06 
0.0000000e+00 0.0000000e+00 -9.9692954e-07 
0.0000000e+00 0.0000000e+00 -1.6990475e-06 
0.0000000e+00 0.0000000e+00 -9.6505357e-07 
0.0000000e+00 0.0000000e+00 -1.7280605e-06 
0.0000000e+00 0.0000000e+00 -9.7392501e-07 
0.0000000e+00 0.0000000e+00 -1.7162520e-06 
0.0000000e+00 0.0000000e+00 -1.7279933e-06 
0.0000000e+00 0.0000000e+00 -1.7104147e-06 
0.0000000e+00 0.0000000e+00 -1.7122528e-06 
0.0000000e+00 0.0000000e+00 -1.6964062e-06 
0.0000000e+00 0.0000000e+00 -1.6969128e-06 
0.0000000e+00 0.0000000e+00 -1.6807161e-06 
0.0000000e+00 0.0000000e+00 -1.6811834e-06 
0.0000000e+00 0.0000000e+00 -1.6649554e-06 
0.0000000e+00 0.0000000e+00 -1.6652679e-06 
0.0000000e+00 0.0000000e+00 -1.6489652e-06 
0.0000000e+00 0.0000000e+00 -1.6486553e-06 
0.0000000e+00 0.0000000e+00 -1.6325565e-06 
0.0000000e+00 0.0000000e+00 -1.6327075e-06 
0.0000000e+00 0.0000000e+00 -1.6162338e-06 
0.0000000e+00 0.0000000e+00 -1.6162556e-06 
0.0000000e+00 0.0000000e+00 -1.5997068e-06 
0.0000000e+00 0.0000000e+00 -1.5994829e-06 
0.0000000e+00 0.0000000e+00 -1.5828608e-06 
0.0000000e+00 0.0000000e+00 -1.5823949e-06 
0.0000000e+00 0.0000000e+00 -1.5656651e-06 
0.0000000e+00 0.0000000e+00 -1.5662395e-06 
0.0000000e+00 0.0000000e+00 -1.5490218e-06 
0.0000000e+00 0.0000000e+00 -1.5499036e-06 
0.0000000e+00 0.0000000e+00 -1.5326179e-06 
0.0000000e+00 0.0000000e+00 -1.5316148e-06 
0.0000000e+00 0.0000000e+00 -1.5152935e-06 
0.0000000e+00 0.0000000e+00 -1.5165376e-06 
0.0000000e+00 0.0000000e+00 -1.4992095e-06 
0.0000000e+00 0.0000000e+00 -1.4978268e-06 
0.0000000e+00 0.0000000e+00 -1.4818178e-06 
0.0000000e+00 0.0000000e+00 -1.4804217e-06 
0.0000000e+00 0.0000000e+00 -1.4642976e-06 
0.0000000e+00 0.0000000e+00 -1.4656761e-06 
0.0000000e+00 0.0000000e+00 -1.4482200e-06 
0.0000000e+00 0.0000000e+00 -1.4494450e-06 
0.0000000e+00 0.0000000e+00 -1.4319621e-06 
0.0000000e+00 0.0000000e+00 -1.4307935e-06 
0.0000000e+00 0.0000000e+00 -1.4144543e-06 
0.0000000e+00 0.0000000e+00 -1.4134532e-06 
0.0000000e+00 0.0000000e+00 -1.3969903e-06 
0.0000000e+00 0.0000000e+00 -1.3978166e-06 
0.0000000e+00 0.0000000e+00 -1.3802030e-06 
0.0000000e+00 0.0000000e+00 -1.3807064e-06 
0.0000000e+00 0.0000000e+00 -1.3630289e-06 
0.0000000e+00 0.0000000e+00 -1.3626741e-06 
0.0000000e+00 0.0000000e+00 -1.3453855e-06 
0.0000000e+00 0.0000000e+00 -1.3452295e-06 
0.0000000e+00 0.0000000e+00 -1.3278298e-06 
0.0000000e+00 0.0000000e+00 -1.3276551e-06 
0.0000000e+00 0.0000000e+00 -1.3099647e-06 
0.0000000e+00 0.0000000e+00 -1.4631083e-06 
0.0000000e+00 0.0000000e+00 -1.3096023e-06 
0.0000000e+00 0.0000000e+00 -1.2917352e-06 
0.0000000e+00 0.0000000e+00 -1.2920672e-06 
0.0000000e+00 0.0000000e+00 -1.2739075e-06 
0.0000000e+00 0.0000000e+00 -1.2733389e-06 
0.0000000e+00 0.0000000e+00 -1.2554026e-06 
0.0000000e+00 0.0000000e+00 -1.2560519e-06 
0.0000000e+00 0.0000000e+00 -1.2374060e-06 
0.0000000e+00 0.0000000e+00 -1.2379813e-06 
0.0000000e+00 0.0000000e+00 -1.2193985e-06 
0.0000000e+00 0.0000000e+00 -1.2186870e-06 
0.0000000e+00 0.0000000e+00 -1.2006761e-06 
0.0000000e+00 0.0000000e+00 -1.1999165e-06 
0.0000000e+00 0.0000000e+00 -1.1819275e-06 
0.0000000e+00 0.0000000e+00 -1.1825616e-06 
0.0000000e+00 0.0000000e+00 -1.1638566e-06 
0.0000000e+00 0.0000000e+00 -1.1644331e-06 
0.0000000e+00 0.0000000e+00 -1.1457696e-06 
0.0000000e+00 0.0000000e+00 -1.1452639e-06 
0.0000000e+00 0.0000000e+00 -1.1272029e-06 
0.0000000e+00 0.0000000e+00 -1.1268215e-06 
0.0000000e+00 0.0000000e+00 -1.1088204e-06 
0.0000000e+00 0.0000000e+00 -1.1091454e-06 
0.0000000e+00 0.0000000e+00 -1.0908304e-06 
0.0000000e+00 0.0000000e+00 -1.0910923e-06 
0.0000000e+00 0.0000000e+00 -1.0728596e-06 
0.0000000e+00 0.0000000e+00 -1.0727148e-06 
0.0000000e+00 0.0000000e+00 -1.0548201e-06 
0.0000000e+00 0.0000000e+00 -1.2199506e-06 
0.0000000e+00 0.0000000e+00 -1.0548263e-06 
0.0000000e+00 0.0000000e+00 -1.0370090e-06 
0.0000000e+00 0.0000000e+00 -1.0371049e-06 
0.0000000e+00 0.0000000e+00 -1.0193723e-06 
0.0000000e+00 0.0000000e+00 -1.0193918e-06 
0.0000000e+00 0.0000000e+00 -1.6814373e-06 
0.0000000e+00 0.0000000e+00 -1.5004200e-06 
0.0000000e+00 0.0000000e+00 -1.0013891e-06 
0.0000000e+00 0.0000000e+00 -1.0020278e-06 
0.0000000e+00 0.0000000e+00 -1.6322576e-06 
0.0000000e+00 0.0000000e+00 -1.2546946e-06 
0.0000000e+00 0.0000000e+00 -1.3961181e-06 
0.0000000e+00 0.0000000e+00 -1.0726704e-06 
0.0000000e+00 0.0000000e+00 -1.1462803e-06 
0.0000000e+00 0.0000000e+00 -1.6652508e-06 
0.0000000e+00 0.0000000e+00 -1.3274831e-06 
0.0000000e+00 0.0000000e+00 -1.4328909e-06 
0.0000000e+00 0.0000000e+00 -1.5668235e-06 
0.0000000e+00 0.0000000e+00 -1.4967131e-06 
0.0000000e+00 0.0000000e+00 -1.5647388e-06 
0.0000000e+00 0.0000000e+00 -1.1813581e-06 
0.0000000e+00 0.0000000e+00 -1.3277217e-06 
0.0000000e+00 0.0000000e+00 -1.2565388e-06 
0.0000000e+00 0.0000000e+00 -1.1448291e-06 
0.0000000e+00 0.0000000e+00 -1.0727609e-06 
0.0000000e+00 0.0000000e+00 -1.0907023e-06 
0.0000000e+00 0.0000000e+00 -1.5995385e-06 
0.0000000e+00 0.0000000e+00 -1.6157052e-06 