# vtk DataFile Version 4.0
vtk output
ASCII
DATASET UNSTRUCTURED_GRID
POINTS 78 float
0.0000000e+00 0.0000000e+00 0.0000000e+00 
5.0000000e+00 0.0000000e+00 0.0000000e+00 
5.0000000e+00 1.0000000e+00 0.0000000e+00 
0.0000000e+00 1.0000000e+00 0.0000000e+00 
0.0000000e+00 0.0000000e+00 3.0000000e+00 
5.0000000e+00 0.0000000e+00 3.0000000e+00 
5.0000000e+00 1.0000000e+00 3.0000000e+00 
0.0000000e+00 1.0000000e+00 3.0000000e+00 
0.0000000e+00 1.0000000e+00 1.0000000e+00 
5.0000000e+00 1.0000000e+00 1.0000000e+00 
1.0000000e+00 0.0000000e+00 0.0000000e+00 
2.0000000e+00 0.0000000e+00 0.0000000e+00 
3.0000000e+00 0.0000000e+00 0.0000000e+00 
4.0000000e+00 0.0000000e+00 0.0000000e+00 
4.0000000e+00 1.0000000e+00 0.0000000e+00 
3.0000000e+00 1.0000000e+00 0.0000000e+00 
2.0000000e+00 1.0000000e+00 0.0000000e+00 
1.0000000e+00 1.0000000e+00 0.0000000e+00 
0.0000000e+00 0.0000000e+00 1.0000000e+00 
0.0000000e+00 0.0000000e+00 2.0000000e+00 
5.0000000e+00 0.0000000e+00 1.0000000e+00 
5.0000000e+00 0.0000000e+00 2.0000000e+00 
1.0000000e+00 0.0000000e+00 3.0000000e+00 
2.0000000e+00 0.0000000e+00 3.0000000e+00 
3.0000000e+00 0.0000000e+00 3.0000000e+00 
4.0000000e+00 0.0000000e+00 3.0000000e+00 
4.0000000e+00 1.0000000e+00 3.0000000e+00 
3.0000000e+00 1.0000000e+00 3.0000000e+00 
2.0000000e+00 1.0000000e+00 3.0000000e+00 
1.0000000e+00 1.0000000e+00 3.0000000e+00 
1.0000000e+00 1.0000000e+00 1.0000000e+00 
2.0000000e+00 1.0000000e+00 1.0000000e+00 
3.0000000e+00 1.0000000e+00 1.0000000e+00 
4.0000000e+00 1.0000000e+00 1.0000000e+00 
0.0000000e+00 1.0000000e+00 2.0000000e+00 
5.0000000e+00 1.0000000e+00 2.0000000e+00 
4.5000000e+00 5.0000000e-01 0.0000000e+00 
5.0000000e-01 5.0000000e-01 0.0000000e+00 
1.5000000e+00 5.0000000e-01 0.0000000e+00 
3.5000000e+00 5.0000000e-01 0.0000000e+00 
2.5000000e+00 5.0000000e-01 0.0000000e+00 
1.5046000e+00 0.0000000e+00 7.6549745e-01 
4.0618000e+00 0.0000000e+00 1.5000000e+00 
2.5000000e+00 0.0000000e+00 2.1339746e+00 
1.5046000e+00 0.0000000e+00 2.2345026e+00 
2.4957771e+00 0.0000000e+00 8.1560516e-01 
3.4700506e+00 0.0000000e+00 7.5794268e-01 
3.4707544e+00 0.0000000e+00 2.2336540e+00 
8.6322361e-01 0.0000000e+00 1.5000000e+00 
2.0000000e+00 0.0000000e+00 1.5000000e+00 
2.9960666e+00 0.0000000e+00 1.4974480e+00 
4.2679491e+00 0.0000000e+00 2.2679491e+00 
4.2679491e+00 0.0000000e+00 7.3205084e-01 
7.2695929e-01 0.0000000e+00 7.2695929e-01 
7.2695929e-01 0.0000000e+00 2.2730408e+00 
5.0000000e+00 5.0000000e-01 5.0000000e-01 
5.0000000e+00 5.0000000e-01 2.5000000e+00 
5.0000000e+00 5.0000000e-01 1.5000000e+00 
0.0000000e+00 5.0000000e-01 5.0000000e-01 
0.0000000e+00 5.0000000e-01 2.5000000e+00 
0.0000000e+00 5.0000000e-01 1.5000000e+00 
4.5000000e+00 5.0000000e-01 3.0000000e+00 
5.0000000e-01 5.0000000e-01 3.0000000e+00 
1.5000000e+00 5.0000000e-01 3.0000000e+00 
2.5000000e+00 5.0000000e-01 3.0000000e+00 
3.5000000e+00 5.0000000e-01 3.0000000e+00 
5.0000000e-01 1.0000000e+00 5.0000000e-01 
4.5000000e+00 1.0000000e+00 5.0000000e-01 
3.5000000e+00 1.0000000e+00 5.0000000e-01 
2.5000000e+00 1.0000000e+00 5.0000000e-01 
1.5000000e+00 1.0000000e+00 5.0000000e-01 
3.5000000e+00 1.0000000e+00 2.1339746e+00 
1.5000000e+00 1.0000000e+00 2.1339746e+00 
2.5000000e+00 1.0000000e+00 1.9726701e+00 
4.3425484e+00 1.0000000e+00 1.7336823e+00 
6.5745169e-01 1.0000000e+00 1.7336823e+00 
4.4201880e+00 1.0000000e+00 2.4220181e+00 
5.7981211e-01 1.0000000e+00 2.4220181e+00 

CELLS 185 925
4 40 69 45 12
4 69 39 12 15
4 40 15 69 12
4 43 44 23 64
4 44 43 28 64
4 47 43 24 64
4 32 39 68 46
4 45 31 69 40
4 41 38 70 31
4 69 31 16 40
4 38 16 70 31
4 69 39 15 32
4 32 39 15 68
4 69 39 32 12
4 64 47 43 71
4 38 53 70 17
4 14 68 39 52
4 28 44 23 63
4 23 44 28 64
4 24 27 47 64
4 27 24 47 65
4 73 28 43 64
4 46 39 68 52
4 53 41 38 70
4 66 53 37 17
4 58 8 53 66
4 9 67 55 52
4 36 67 14 52
4 47 64 27 71
4 64 43 73 71
4 32 39 46 12
4 32 12 45 69
4 31 45 11 40
4 38 41 11 31
4 44 28 72 63
4 11 16 31 40
4 16 38 11 31
4 54 77 29 63
4 27 64 73 71
4 26 51 65 76
4 65 47 27 71
4 62 77 29 54
4 61 51 26 76
4 10 17 53 38
4 8 18 58 53
4 10 17 37 53
4 22 29 54 62
4 29 22 54 63
4 8 18 53 60
4 54 72 77 63
4 25 26 51 65
4 26 25 51 61
4 52 14 36 13
4 52 39 14 13
4 33 50 46 42
4 76 51 65 71
4 28 72 43 44
4 54 59 75 19
4 67 36 55 52
4 50 33 71 42
4 20 9 52 57
4 20 9 55 52
4 37 58 53 66
4 34 75 59 19
4 75 34 60 19
4 51 47 65 71
4 44 72 54 63
4 49 45 31 50
4 60 53 8 30
4 57 33 9 52
4 75 77 59 54
4 76 56 51 74
4 12 32 45 46
4 72 29 77 63
4 65 26 76 71
4 41 49 30 48
4 41 45 11 31
4 21 51 56 74
4 74 56 21 35
4 21 74 35 57
4 30 17 53 66
4 17 30 53 70
4 66 8 53 30
4 28 72 73 43
4 42 33 57 52
4 67 9 33 52
4 14 33 52 67
4 33 14 52 68
4 50 32 33 46
4 72 30 49 48
4 32 31 45 50
4 74 33 57 42
4 73 49 31 50
4 74 76 56 35
4 34 75 77 59
4 50 71 47 42
4 71 32 33 50
4 30 60 53 48
4 49 72 48 44
4 72 49 43 44
4 30 49 41 31
4 41 10 53 38
4 52 46 39 13
4 25 47 65 51
4 44 54 22 63
4 68 33 46 52
4 70 53 41 30
4 32 73 31 50
4 31 30 49 72
4 60 30 75 48
4 30 72 75 48
4 49 73 72 43
4 74 71 33 42
4 71 74 51 42
4 51 61 56 76
4 62 59 77 54
4 54 75 72 48
4 71 51 47 42
4 57 20 42 52
4 60 18 53 48
4 48 72 54 44
4 30 8 60 75
4 74 33 9 57
4 77 75 72 54
4 43 23 24 64
4 51 76 74 71
4 68 33 32 46
4 20 21 57 42
4 43 49 73 50
4 73 28 64 27
4 41 70 30 31
4 5 51 61 56
4 55 36 1 52
4 53 0 58 37
4 4 59 62 54
4 32 71 73 50
4 32 45 31 69
4 45 11 40 12
4 73 31 49 72
4 60 18 48 19
4 50 45 32 46
4 65 24 47 25
4 46 12 39 13
4 10 41 11 38
4 23 44 22 63
4 41 49 45 31
4 3 8 58 66
4 70 16 38 17
4 66 37 3 17
4 14 68 15 39
4 2 9 67 55
4 14 2 67 36
4 15 69 16 40
4 51 25 5 61
4 36 1 52 13
4 18 53 0 58
4 0 53 10 37
4 22 4 62 54
4 54 4 59 19
4 42 46 33 52
4 7 4 59 62
4 58 0 3 37
4 6 5 61 56
4 36 1 2 55
4 34 60 8 75
4 9 35 74 57
4 20 55 1 52
4 51 5 21 56
4 30 53 41 48
4 28 29 72 63
4 26 65 27 71
4 37 3 58 66
4 36 2 67 55
4 77 7 34 59
4 6 56 76 35
4 77 29 7 62
4 26 6 61 76
4 56 61 6 76
4 59 77 7 62
4 19 75 48 60
4 19 48 75 54
4 21 74 42 51
4 42 74 21 57
4 71 43 50 47
4 71 50 43 73

CELL_TYPES 185
10
10
10
10
10
10
10
10
10
10
10
10
10
10
10
10
10
10
10
10
10
10
10
10
10
10
10
10
10
10
10
10
10
10
10
10
10
10
10
10
10
10
10
10
10
10
10
10
10
10
10
10
10
10
10
10
10
10
10
10
10
10
10
10
10
10
10
10
10
10
10
10
10
10
10
10
10
10
10
10
10
10
10
10
10
10
10
10
10
10
10
10
10
10
10
10
10
10
10
10
10
10
10
10
10
10
10
10
10
10
10
10
10
10
10
10
10
10
10
10
10
10
10
10
10
10
10
10
10
10
10
10
10
10
10
10
10
10
10
10
10
10
10
10
10
10
10
10
10
10
10
10
10
10
10
10
10
10
10
10
10
10
10
10
10
10
10
10
10
10
10
10
10
10
10
10
10
10
10
10
10
10
10
10
10
POINT_DATA 78
FIELD FieldData 2
DISPLACEMENT 3 78  float
0.0000000e+00 0.0000000e+00 0.0000000e+00 
0.0000000e+00 0.0000000e+00 0.0000000e+00 
0.0000000e+00 -1.0993880e-08 1.6080440e-08 
0.0000000e+00 -6.4788808e-10 -1.6093839e-10 
0.0000000e+00 0.0000000e+00 0.0000000e+00 
0.0000000e+00 0.0000000e+00 0.0000000e+00 
0.0000000e+00 8.3804705e-09 -1.3674119e-08 
0.0000000e+00 5.6171007e-10 -1.0159464e-09 
0.0000000e+00 -3.9695967e-09 -6.4615086e-10 
0.0000000e+00 -1.3578878e-07 -7.3405948e-09 
0.0000000e+00 0.0000000e+00 0.0000000e+00 
0.0000000e+00 0.0000000e+00 0.0000000e+00 
0.0000000e+00 0.0000000e+00 0.0000000e+00 
0.0000000e+00 0.0000000e+00 0.0000000e+00 
0.0000000e+00 -3.4217955e-08 -1.9576936e-10 
0.0000000e+00 -3.6164934e-08 1.4711571e-08 
0.0000000e+00 -2.0715385e-08 3.7619032e-09 
0.0000000e+00 -3.1082352e-09 -8.3162657e-11 
0.0000000e+00 0.0000000e+00 0.0000000e+00 
0.0000000e+00 0.0000000e+00 0.0000000e+00 
0.0000000e+00 0.0000000e+00 0.0000000e+00 
0.0000000e+00 0.0000000e+00 0.0000000e+00 
0.0000000e+00 0.0000000e+00 0.0000000e+00 
0.0000000e+00 0.0000000e+00 0.0000000e+00 
0.0000000e+00 0.0000000e+00 0.0000000e+00 
0.0000000e+00 0.0000000e+00 0.0000000e+00 
0.0000000e+00 -2.1440913e-09 -1.2055352e-08 
0.0000000e+00 -1.3074922e-09 -5.3334435e-09 
0.0000000e+00 1.6068443e-09 -2.7884450e-09 
0.0000000e+00 4.2041498e-10 -1.4347323e-09 
-3.7194620e-10 -1.3744825e-08 -3.9637257e-10 
2.9749039e-10 -6.7433710e-08 -4.7215338e-09 
1.5575935e-08 -3.1882033e-07 -3.2780250e-08 
-1.0206400e-08 -4.2784623e-07 9.5070671e-09 
0.0000000e+00 -4.4182738e-10 -8.3846974e-10 
0.0000000e+00 -1.7282858e-08 -1.3541173e-08 
0.0000000e+00 -1.6776140e-08 -1.1105524e-08 
0.0000000e+00 -1.1161344e-09 -5.4000560e-10 
0.0000000e+00 -2.9470271e-09 -3.2973393e-09 
0.0000000e+00 -4.5959286e-08 -2.5751300e-08 
0.0000000e+00 -3.6114770e-08 -9.7443653e-09 
0.0000000e+00 0.0000000e+00 0.0000000e+00 
0.0000000e+00 0.0000000e+00 0.0000000e+00 
0.0000000e+00 0.0000000e+00 0.0000000e+00 
0.0000000e+00 0.0000000e+00 0.0000000e+00 
0.0000000e+00 0.0000000e+00 0.0000000e+00 
0.0000000e+00 0.0000000e+00 0.0000000e+00 
0.0000000e+00 0.0000000e+00 0.0000000e+00 
0.0000000e+00 0.0000000e+00 0.0000000e+00 
0.0000000e+00 0.0000000e+00 0.0000000e+00 
0.0000000e+00 0.0000000e+00 0.0000000e+00 
0.0000000e+00 0.0000000e+00 0.0000000e+00 
0.0000000e+00 0.0000000e+00 0.0000000e+00 
0.0000000e+00 0.0000000e+00 0.0000000e+00 
0.0000000e+00 0.0000000e+00 0.0000000e+00 
0.0000000e+00 -4.0039048e-08 -1.2232870e-08 
0.0000000e+00 2.9956075e-09 -3.6627412e-09 
0.0000000e+00 -1.9309111e-08 1.5906359e-08 
0.0000000e+00 -1.2990091e-09 -5.7336014e-10 
0.0000000e+00 2.2688064e-10 -4.0804263e-10 
0.0000000e+00 -4.1427412e-10 3.4579239e-10 
0.0000000e+00 2.4917182e-09 -4.4201087e-09 
0.0000000e+00 3.6107134e-10 -5.5022431e-10 
0.0000000e+00 8.0757978e-10 -1.1685283e-09 
0.0000000e+00 1.0926507e-09 -1.3091431e-09 
0.0000000e+00 7.6649531e-10 -1.8685189e-09 
8.8939578e-11 -2.8842517e-09 -1.8703913e-10 
-6.6439587e-09 -7.9163236e-08 1.1404117e-08 
-7.5558733e-09 -1.8278668e-07 -6.6898296e-09 
1.0050564e-08 -1.0407750e-07 -5.3811022e-10 
2.7255731e-09 -1.9552207e-08 -3.0821840e-10 
-1.9347350e-09 -9.8914850e-09 -8.7348395e-09 
1.6426874e-09 1.5372263e-09 -1.7426409e-09 
4.3037232e-09 -2.3156053e-09 -7.3771953e-09 
-7.7573077e-09 -6.4242393e-08 -1.7920732e-08 
5.0375576e-10 -1.8079939e-09 -1.1246242e-09 
-1.8335758e-09 -1.0769907e-08 -1.6907681e-08 
3.2221464e-10 -7.0728992e-11 -1.2434513e-09 
TOTAL_DISPLACEMENT 3 78  float
0.0000000e+00 0.0000000e+00 0.0000000e+00 
0.0000000e+00 0.0000000e+00 0.0000000e+00 
0.0000000e+00 0.0000000e+00 0.0000000e+00 
0.0000000e+00 0.0000000e+00 0.0000000e+00 
0.0000000e+00 0.0000000e+00 0.0000000e+00 
0.0000000e+00 0.0000000e+00 0.0000000e+00 
0.0000000e+00 0.0000000e+00 0.0000000e+00 
0.0000000e+00 0.0000000e+00 0.0000000e+00 
0.0000000e+00 0.0000000e+00 0.0000000e+00 
0.0000000e+00 0.0000000e+00 0.0000000e+00 
0.0000000e+00 0.0000000e+00 0.0000000e+00 
0.0000000e+00 0.0000000e+00 0.0000000e+00 
0.0000000e+00 0.0000000e+00 0.0000000e+00 
0.0000000e+00 0.0000000e+00 0.0000000e+00 
0.0000000e+00 0.0000000e+00 0.0000000e+00 
0.0000000e+00 0.0000000e+00 0.0000000e+00 
0.0000000e+00 0.0000000e+00 0.0000000e+00 
0.0000000e+00 0.0000000e+00 0.0000000e+00 
0.0000000e+00 0.0000000e+00 0.0000000e+00 
0.0000000e+00 0.0000000e+00 0.0000000e+00 
0.0000000e+00 0.0000000e+00 0.0000000e+00 
0.0000000e+00 0.0000000e+00 0.0000000e+00 
0.0000000e+00 0.0000000e+00 0.0000000e+00 
0.0000000e+00 0.0000000e+00 0.0000000e+00 
0.0000000e+00 0.0000000e+00 0.0000000e+00 
0.0000000e+00 0.0000000e+00 0.0000000e+00 
0.0000000e+00 0.0000000e+00 0.0000000e+00 
0.0000000e+00 0.0000000e+00 0.0000000e+00 
0.0000000e+00 0.0000000e+00 0.0000000e+00 
0.0000000e+00 0.0000000e+00 0.0000000e+00 
0.0000000e+00 0.0000000e+00 0.0000000e+00 
0.0000000e+00 0.0000000e+00 0.0000000e+00 
0.0000000e+00 0.0000000e+00 0.0000000e+00 
0.0000000e+00 0.0000000e+00 0.0000000e+00 
0.0000000e+00 0.0000000e+00 0.0000000e+00 
0.0000000e+00 0.0000000e+00 0.0000000e+00 
0.0000000e+00 0.0000000e+00 0.0000000e+00 
0.0000000e+00 0.0000000e+00 0.0000000e+00 
0.0000000e+00 0.0000000e+00 0.0000000e+00 
0.0000000e+00 0.0000000e+00 0.0000000e+00 
0.0000000e+00 0.0000000e+00 0.0000000e+00 
0.0000000e+00 0.0000000e+00 0.0000000e+00 
0.0000000e+00 0.0000000e+00 0.0000000e+00 
0.0000000e+00 0.0000000e+00 0.0000000e+00 
0.0000000e+00 0.0000000e+00 0.0000000e+00 
0.0000000e+00 0.0000000e+00 0.0000000e+00 
0.0000000e+00 0.0000000e+00 0.0000000e+00 
0.0000000e+00 0.0000000e+00 0.0000000e+00 
0.0000000e+00 0.0000000e+00 0.0000000e+00 
0.0000000e+00 0.0000000e+00 0.0000000e+00 
0.0000000e+00 0.0000000e+00 0.0000000e+00 
0.0000000e+00 0.0000000e+00 0.0000000e+00 
0.0000000e+00 0.0000000e+00 0.0000000e+00 
0.0000000e+00 0.0000000e+00 0.0000000e+00 
0.0000000e+00 0.0000000e+00 0.0000000e+00 
0.0000000e+00 0.0000000e+00 0.0000000e+00 
0.0000000e+00 0.0000000e+00 0.0000000e+00 
0.0000000e+00 0.0000000e+00 0.0000000e+00 
0.0000000e+00 0.0000000e+00 0.0000000e+00 
0.0000000e+00 0.0000000e+00 0.0000000e+00 
0.0000000e+00 0.0000000e+00 0.0000000e+00 
0.0000000e+00 0.0000000e+00 0.0000000e+00 
0.0000000e+00 0.0000000e+00 0.0000000e+00 
0.0000000e+00 0.0000000e+00 0.0000000e+00 
0.0000000e+00 0.0000000e+00 0.0000000e+00 
0.0000000e+00 0.0000000e+00 0.0000000e+00 
0.0000000e+00 0.0000000e+00 0.0000000e+00 
0.0000000e+00 0.0000000e+00 0.0000000e+00 
0.0000000e+00 0.0000000e+00 0.0000000e+00 
0.0000000e+00 0.0000000e+00 0.0000000e+00 
0.0000000e+00 0.0000000e+00 0.0000000e+00 
0.0000000e+00 0.0000000e+00 0.0000000e+00 
0.0000000e+00 0.0000000e+00 0.0000000e+00 
0.0000000e+00 0.0000000e+00 0.0000000e+00 
0.0000000e+00 0.0000000e+00 0.0000000e+00 
0.0000000e+00 0.0000000e+00 0.0000000e+00 
0.0000000e+00 0.0000000e+00 0.0000000e+00 
0.0000000e+00 0.0000000e+00 0.0000000e+00 
CELL_DATA 185
FIELD FieldData 0
