# vtk DataFile Version 4.0
vtk output
ASCII
DATASET UNSTRUCTURED_GRID
POINTS 78 float
0.0000000e+00 0.0000000e+00 0.0000000e+00 
5.0000000e+00 0.0000000e+00 0.0000000e+00 
5.0000000e+00 1.0000000e+00 0.0000000e+00 
0.0000000e+00 1.0000000e+00 0.0000000e+00 
0.0000000e+00 0.0000000e+00 3.0000000e+00 
5.0000000e+00 0.0000000e+00 3.0000000e+00 
5.0000000e+00 1.0000000e+00 3.0000000e+00 
0.0000000e+00 1.0000000e+00 3.0000000e+00 
0.0000000e+00 1.0000000e+00 1.0000000e+00 
5.0000000e+00 1.0000000e+00 1.0000000e+00 
1.0000000e+00 0.0000000e+00 0.0000000e+00 
2.0000000e+00 0.0000000e+00 0.0000000e+00 
3.0000000e+00 0.0000000e+00 0.0000000e+00 
4.0000000e+00 0.0000000e+00 0.0000000e+00 
4.0000000e+00 1.0000000e+00 0.0000000e+00 
3.0000000e+00 1.0000000e+00 0.0000000e+00 
2.0000000e+00 1.0000000e+00 0.0000000e+00 
1.0000000e+00 1.0000000e+00 0.0000000e+00 
0.0000000e+00 0.0000000e+00 1.0000000e+00 
0.0000000e+00 0.0000000e+00 2.0000000e+00 
5.0000000e+00 0.0000000e+00 1.0000000e+00 
5.0000000e+00 0.0000000e+00 2.0000000e+00 
1.0000000e+00 0.0000000e+00 3.0000000e+00 
2.0000000e+00 0.0000000e+00 3.0000000e+00 
3.0000000e+00 0.0000000e+00 3.0000000e+00 
4.0000000e+00 0.0000000e+00 3.0000000e+00 
4.0000000e+00 1.0000000e+00 3.0000000e+00 
3.0000000e+00 1.0000000e+00 3.0000000e+00 
2.0000000e+00 1.0000000e+00 3.0000000e+00 
1.0000000e+00 1.0000000e+00 3.0000000e+00 
1.0000000e+00 1.0000000e+00 1.0000000e+00 
2.0000000e+00 1.0000000e+00 1.0000000e+00 
3.0000000e+00 1.0000000e+00 1.0000000e+00 
4.0000000e+00 1.0000000e+00 1.0000000e+00 
0.0000000e+00 1.0000000e+00 2.0000000e+00 
5.0000000e+00 1.0000000e+00 2.0000000e+00 
4.5000000e+00 5.0000000e-01 0.0000000e+00 
5.0000000e-01 5.0000000e-01 0.0000000e+00 
1.5000000e+00 5.0000000e-01 0.0000000e+00 
3.5000000e+00 5.0000000e-01 0.0000000e+00 
2.5000000e+00 5.0000000e-01 0.0000000e+00 
1.5046000e+00 0.0000000e+00 7.6549745e-01 
4.0618000e+00 0.0000000e+00 1.5000000e+00 
2.5000000e+00 0.0000000e+00 2.1339746e+00 
1.5046000e+00 0.0000000e+00 2.2345026e+00 
2.4957771e+00 0.0000000e+00 8.1560516e-01 
3.4700506e+00 0.0000000e+00 7.5794268e-01 
3.4707544e+00 0.0000000e+00 2.2336540e+00 
8.6322361e-01 0.0000000e+00 1.5000000e+00 
2.0000000e+00 0.0000000e+00 1.5000000e+00 
2.9960666e+00 0.0000000e+00 1.4974480e+00 
4.2679491e+00 0.0000000e+00 2.2679491e+00 
4.2679491e+00 0.0000000e+00 7.3205084e-01 
7.2695929e-01 0.0000000e+00 7.2695929e-01 
7.2695929e-01 0.0000000e+00 2.2730408e+00 
5.0000000e+00 5.0000000e-01 5.0000000e-01 
5.0000000e+00 5.0000000e-01 2.5000000e+00 
5.0000000e+00 5.0000000e-01 1.5000000e+00 
0.0000000e+00 5.0000000e-01 5.0000000e-01 
0.0000000e+00 5.0000000e-01 2.5000000e+00 
0.0000000e+00 5.0000000e-01 1.5000000e+00 
4.5000000e+00 5.0000000e-01 3.0000000e+00 
5.0000000e-01 5.0000000e-01 3.0000000e+00 
1.5000000e+00 5.0000000e-01 3.0000000e+00 
2.5000000e+00 5.0000000e-01 3.0000000e+00 
3.5000000e+00 5.0000000e-01 3.0000000e+00 
5.0000000e-01 1.0000000e+00 5.0000000e-01 
4.5000000e+00 1.0000000e+00 5.0000000e-01 
3.5000000e+00 1.0000000e+00 5.0000000e-01 
2.5000000e+00 1.0000000e+00 5.0000000e-01 
1.5000000e+00 1.0000000e+00 5.0000000e-01 
3.5000000e+00 1.0000000e+00 2.1339746e+00 
1.5000000e+00 1.0000000e+00 2.1339746e+00 
2.5000000e+00 1.0000000e+00 1.9726701e+00 
4.3425484e+00 1.0000000e+00 1.7336823e+00 
6.5745169e-01 1.0000000e+00 1.7336823e+00 
4.4201880e+00 1.0000000e+00 2.4220181e+00 
5.7981211e-01 1.0000000e+00 2.4220181e+00 

CELLS 185 925
4 40 69 45 12
4 69 39 12 15
4 40 15 69 12
4 43 44 23 64
4 44 43 28 64
4 47 43 24 64
4 32 39 68 46
4 45 31 69 40
4 41 38 70 31
4 69 31 16 40
4 38 16 70 31
4 69 39 15 32
4 32 39 15 68
4 69 39 32 12
4 64 47 43 71
4 38 53 70 17
4 14 68 39 52
4 28 44 23 63
4 23 44 28 64
4 24 27 47 64
4 27 24 47 65
4 73 28 43 64
4 46 39 68 52
4 53 41 38 70
4 66 53 37 17
4 58 8 53 66
4 9 67 55 52
4 36 67 14 52
4 47 64 27 71
4 64 43 73 71
4 32 39 46 12
4 32 12 45 69
4 31 45 11 40
4 38 41 11 31
4 44 28 72 63
4 11 16 31 40
4 16 38 11 31
4 54 77 29 63
4 27 64 73 71
4 26 51 65 76
4 65 47 27 71
4 62 77 29 54
4 61 51 26 76
4 10 17 53 38
4 8 18 58 53
4 10 17 37 53
4 22 29 54 62
4 29 22 54 63
4 8 18 53 60
4 54 72 77 63
4 25 26 51 65
4 26 25 51 61
4 52 14 36 13
4 52 39 14 13
4 33 50 46 42
4 76 51 65 71
4 28 72 43 44
4 54 59 75 19
4 67 36 55 52
4 50 33 71 42
4 20 9 52 57
4 20 9 55 52
4 37 58 53 66
4 34 75 59 19
4 75 34 60 19
4 51 47 65 71
4 44 72 54 63
4 49 45 31 50
4 60 53 8 30
4 57 33 9 52
4 75 77 59 54
4 76 56 51 74
4 12 32 45 46
4 72 29 77 63
4 65 26 76 71
4 41 49 30 48
4 41 45 11 31
4 21 51 56 74
4 74 56 21 35
4 21 74 35 57
4 30 17 53 66
4 17 30 53 70
4 66 8 53 30
4 28 72 73 43
4 42 33 57 52
4 67 9 33 52
4 14 33 52 67
4 33 14 52 68
4 50 32 33 46
4 72 30 49 48
4 32 31 45 50
4 74 33 57 42
4 73 49 31 50
4 74 76 56 35
4 34 75 77 59
4 50 71 47 42
4 71 32 33 50
4 30 60 53 48
4 49 72 48 44
4 72 49 43 44
4 30 49 41 31
4 41 10 53 38
4 52 46 39 13
4 25 47 65 51
4 44 54 22 63
4 68 33 46 52
4 70 53 41 30
4 32 73 31 50
4 31 30 49 72
4 60 30 75 48
4 30 72 75 48
4 49 73 72 43
4 74 71 33 42
4 71 74 51 42
4 51 61 56 76
4 62 59 77 54
4 54 75 72 48
4 71 51 47 42
4 57 20 42 52
4 60 18 53 48
4 48 72 54 44
4 30 8 60 75
4 74 33 9 57
4 77 75 72 54
4 43 23 24 64
4 51 76 74 71
4 68 33 32 46
4 20 21 57 42
4 43 49 73 50
4 73 28 64 27
4 41 70 30 31
4 5 51 61 56
4 55 36 1 52
4 53 0 58 37
4 4 59 62 54
4 32 71 73 50
4 32 45 31 69
4 45 11 40 12
4 73 31 49 72
4 60 18 48 19
4 50 45 32 46
4 65 24 47 25
4 46 12 39 13
4 10 41 11 38
4 23 44 22 63
4 41 49 45 31
4 3 8 58 66
4 70 16 38 17
4 66 37 3 17
4 14 68 15 39
4 2 9 67 55
4 14 2 67 36
4 15 69 16 40
4 51 25 5 61
4 36 1 52 13
4 18 53 0 58
4 0 53 10 37
4 22 4 62 54
4 54 4 59 19
4 42 46 33 52
4 7 4 59 62
4 58 0 3 37
4 6 5 61 56
4 36 1 2 55
4 34 60 8 75
4 9 35 74 57
4 20 55 1 52
4 51 5 21 56
4 30 53 41 48
4 28 29 72 63
4 26 65 27 71
4 37 3 58 66
4 36 2 67 55
4 77 7 34 59
4 6 56 76 35
4 77 29 7 62
4 26 6 61 76
4 56 61 6 76
4 59 77 7 62
4 19 75 48 60
4 19 48 75 54
4 21 74 42 51
4 42 74 21 57
4 71 43 50 47
4 71 50 43 73

CELL_TYPES 185
10
10
10
10
10
10
10
10
10
10
10
10
10
10
10
10
10
10
10
10
10
10
10
10
10
10
10
10
10
10
10
10
10
10
10
10
10
10
10
10
10
10
10
10
10
10
10
10
10
10
10
10
10
10
10
10
10
10
10
10
10
10
10
10
10
10
10
10
10
10
10
10
10
10
10
10
10
10
10
10
10
10
10
10
10
10
10
10
10
10
10
10
10
10
10
10
10
10
10
10
10
10
10
10
10
10
10
10
10
10
10
10
10
10
10
10
10
10
10
10
10
10
10
10
10
10
10
10
10
10
10
10
10
10
10
10
10
10
10
10
10
10
10
10
10
10
10
10
10
10
10
10
10
10
10
10
10
10
10
10
10
10
10
10
10
10
10
10
10
10
10
10
10
10
10
10
10
10
10
10
10
10
10
10
10
POINT_DATA 78
FIELD FieldData 2
DISPLACEMENT 3 78  float
0.0000000e+00 0.0000000e+00 0.0000000e+00 
0.0000000e+00 0.0000000e+00 0.0000000e+00 
0.0000000e+00 2.5919582e-09 2.0391729e-08 
0.0000000e+00 -2.3624360e-09 1.4192952e-09 
0.0000000e+00 0.0000000e+00 0.0000000e+00 
0.0000000e+00 0.0000000e+00 0.0000000e+00 
0.0000000e+00 4.3237867e-09 -8.1401774e-09 
0.0000000e+00 1.9001551e-09 -3.1069922e-09 
0.0000000e+00 -2.3651213e-08 -1.9439901e-09 
0.0000000e+00 -3.2905660e-07 -1.3975524e-08 
0.0000000e+00 0.0000000e+00 0.0000000e+00 
0.0000000e+00 0.0000000e+00 0.0000000e+00 
0.0000000e+00 0.0000000e+00 0.0000000e+00 
0.0000000e+00 0.0000000e+00 0.0000000e+00 
0.0000000e+00 -4.1087596e-08 2.9299159e-09 
0.0000000e+00 -5.1615828e-08 2.3176499e-08 
0.0000000e+00 -6.8199391e-08 1.9063551e-08 
0.0000000e+00 -1.3196011e-08 2.3093567e-09 
0.0000000e+00 0.0000000e+00 0.0000000e+00 
0.0000000e+00 0.0000000e+00 0.0000000e+00 
0.0000000e+00 0.0000000e+00 0.0000000e+00 
0.0000000e+00 0.0000000e+00 0.0000000e+00 
0.0000000e+00 0.0000000e+00 0.0000000e+00 
0.0000000e+00 0.0000000e+00 0.0000000e+00 
0.0000000e+00 0.0000000e+00 0.0000000e+00 
0.0000000e+00 0.0000000e+00 0.0000000e+00 
0.0000000e+00 1.4848163e-09 -8.0826155e-09 
0.0000000e+00 6.0948389e-09 -7.3237989e-09 
0.0000000e+00 2.0038633e-09 -5.6368945e-09 
0.0000000e+00 3.7732201e-10 -3.6936003e-09 
1.7485928e-10 -7.3943383e-08 5.8056648e-10 
5.5579812e-09 -2.9032282e-07 -1.7344485e-08 
-4.8949973e-09 -4.2833616e-07 -4.6375181e-08 
2.9302110e-09 -1.6696760e-07 -2.2980353e-09 
0.0000000e+00 -2.4919418e-09 -3.0304947e-09 
0.0000000e+00 3.1336649e-09 -1.7510990e-08 
0.0000000e+00 -1.6642238e-08 -1.5730226e-08 
0.0000000e+00 -4.6919193e-09 -1.8357978e-09 
0.0000000e+00 -9.9507398e-09 -1.4192056e-08 
0.0000000e+00 -2.8898135e-08 -1.8152907e-08 
0.0000000e+00 -5.2739743e-08 -2.5923033e-08 
0.0000000e+00 0.0000000e+00 0.0000000e+00 
0.0000000e+00 0.0000000e+00 0.0000000e+00 
0.0000000e+00 0.0000000e+00 0.0000000e+00 
0.0000000e+00 0.0000000e+00 0.0000000e+00 
0.0000000e+00 0.0000000e+00 0.0000000e+00 
0.0000000e+00 0.0000000e+00 0.0000000e+00 
0.0000000e+00 0.0000000e+00 0.0000000e+00 
0.0000000e+00 0.0000000e+00 0.0000000e+00 
0.0000000e+00 0.0000000e+00 0.0000000e+00 
0.0000000e+00 0.0000000e+00 0.0000000e+00 
0.0000000e+00 0.0000000e+00 0.0000000e+00 
0.0000000e+00 0.0000000e+00 0.0000000e+00 
0.0000000e+00 0.0000000e+00 0.0000000e+00 
0.0000000e+00 0.0000000e+00 0.0000000e+00 
0.0000000e+00 -8.0430716e-08 -3.1915487e-08 
0.0000000e+00 3.8896131e-09 -4.8708313e-09 
0.0000000e+00 -8.6943189e-08 2.4776693e-08 
0.0000000e+00 -7.2171105e-09 -2.4730211e-09 
0.0000000e+00 8.0689672e-10 -1.0884094e-09 
0.0000000e+00 -2.9753842e-09 2.4679805e-09 
0.0000000e+00 2.2156363e-09 -3.8422594e-09 
0.0000000e+00 8.7451429e-10 -1.4146992e-09 
0.0000000e+00 1.4046502e-09 -2.4323272e-09 
0.0000000e+00 2.2215778e-09 -2.2233568e-09 
0.0000000e+00 3.1660390e-09 -3.9476933e-09 
7.7771167e-10 -1.5097145e-08 1.4765082e-09 
5.9472463e-09 -8.8438050e-08 1.1546068e-08 
-1.6126208e-08 -1.4765925e-07 -4.1723198e-09 
-8.6969659e-10 -1.8537351e-07 -7.8150002e-09 
1.3266360e-08 -8.6744556e-08 1.2431892e-09 
-6.8124634e-10 4.0814760e-09 -8.2971185e-09 
2.7823326e-09 3.8010666e-09 -3.5610794e-09 
3.3608838e-09 -1.4866776e-08 -1.7272203e-08 
3.7759453e-09 -1.9079241e-08 -9.8715693e-09 
1.6332337e-09 -1.0135619e-08 -4.1207096e-09 
5.0984522e-10 -1.7647768e-09 -9.3678594e-09 
6.0275512e-10 -1.1214971e-09 -3.8812331e-09 
TOTAL_DISPLACEMENT 3 78  float
0.0000000e+00 0.0000000e+00 0.0000000e+00 
0.0000000e+00 0.0000000e+00 0.0000000e+00 
0.0000000e+00 0.0000000e+00 0.0000000e+00 
0.0000000e+00 0.0000000e+00 0.0000000e+00 
0.0000000e+00 0.0000000e+00 0.0000000e+00 
0.0000000e+00 0.0000000e+00 0.0000000e+00 
0.0000000e+00 0.0000000e+00 0.0000000e+00 
0.0000000e+00 0.0000000e+00 0.0000000e+00 
0.0000000e+00 0.0000000e+00 0.0000000e+00 
0.0000000e+00 0.0000000e+00 0.0000000e+00 
0.0000000e+00 0.0000000e+00 0.0000000e+00 
0.0000000e+00 0.0000000e+00 0.0000000e+00 
0.0000000e+00 0.0000000e+00 0.0000000e+00 
0.0000000e+00 0.0000000e+00 0.0000000e+00 
0.0000000e+00 0.0000000e+00 0.0000000e+00 
0.0000000e+00 0.0000000e+00 0.0000000e+00 
0.0000000e+00 0.0000000e+00 0.0000000e+00 
0.0000000e+00 0.0000000e+00 0.0000000e+00 
0.0000000e+00 0.0000000e+00 0.0000000e+00 
0.0000000e+00 0.0000000e+00 0.0000000e+00 
0.0000000e+00 0.0000000e+00 0.0000000e+00 
0.0000000e+00 0.0000000e+00 0.0000000e+00 
0.0000000e+00 0.0000000e+00 0.0000000e+00 
0.0000000e+00 0.0000000e+00 0.0000000e+00 
0.0000000e+00 0.0000000e+00 0.0000000e+00 
0.0000000e+00 0.0000000e+00 0.0000000e+00 
0.0000000e+00 0.0000000e+00 0.0000000e+00 
0.0000000e+00 0.0000000e+00 0.0000000e+00 
0.0000000e+00 0.0000000e+00 0.0000000e+00 
0.0000000e+00 0.0000000e+00 0.0000000e+00 
0.0000000e+00 0.0000000e+00 0.0000000e+00 
0.0000000e+00 0.0000000e+00 0.0000000e+00 
0.0000000e+00 0.0000000e+00 0.0000000e+00 
0.0000000e+00 0.0000000e+00 0.0000000e+00 
0.0000000e+00 0.0000000e+00 0.0000000e+00 
0.0000000e+00 0.0000000e+00 0.0000000e+00 
0.0000000e+00 0.0000000e+00 0.0000000e+00 
0.0000000e+00 0.0000000e+00 0.0000000e+00 
0.0000000e+00 0.0000000e+00 0.0000000e+00 
0.0000000e+00 0.0000000e+00 0.0000000e+00 
0.0000000e+00 0.0000000e+00 0.0000000e+00 
0.0000000e+00 0.0000000e+00 0.0000000e+00 
0.0000000e+00 0.0000000e+00 0.0000000e+00 
0.0000000e+00 0.0000000e+00 0.0000000e+00 
0.0000000e+00 0.0000000e+00 0.0000000e+00 
0.0000000e+00 0.0000000e+00 0.0000000e+00 
0.0000000e+00 0.0000000e+00 0.0000000e+00 
0.0000000e+00 0.0000000e+00 0.0000000e+00 
0.0000000e+00 0.0000000e+00 0.0000000e+00 
0.0000000e+00 0.0000000e+00 0.0000000e+00 
0.0000000e+00 0.0000000e+00 0.0000000e+00 
0.0000000e+00 0.0000000e+00 0.0000000e+00 
0.0000000e+00 0.0000000e+00 0.0000000e+00 
0.0000000e+00 0.0000000e+00 0.0000000e+00 
0.0000000e+00 0.0000000e+00 0.0000000e+00 
0.0000000e+00 0.0000000e+00 0.0000000e+00 
0.0000000e+00 0.0000000e+00 0.0000000e+00 
0.0000000e+00 0.0000000e+00 0.0000000e+00 
0.0000000e+00 0.0000000e+00 0.0000000e+00 
0.0000000e+00 0.0000000e+00 0.0000000e+00 
0.0000000e+00 0.0000000e+00 0.0000000e+00 
0.0000000e+00 0.0000000e+00 0.0000000e+00 
0.0000000e+00 0.0000000e+00 0.0000000e+00 
0.0000000e+00 0.0000000e+00 0.0000000e+00 
0.0000000e+00 0.0000000e+00 0.0000000e+00 
0.0000000e+00 0.0000000e+00 0.0000000e+00 
0.0000000e+00 0.0000000e+00 0.0000000e+00 
0.0000000e+00 0.0000000e+00 0.0000000e+00 
0.0000000e+00 0.0000000e+00 0.0000000e+00 
0.0000000e+00 0.0000000e+00 0.0000000e+00 
0.0000000e+00 0.0000000e+00 0.0000000e+00 
0.0000000e+00 0.0000000e+00 0.0000000e+00 
0.0000000e+00 0.0000000e+00 0.0000000e+00 
0.0000000e+00 0.0000000e+00 0.0000000e+00 
0.0000000e+00 0.0000000e+00 0.0000000e+00 
0.0000000e+00 0.0000000e+00 0.0000000e+00 
0.0000000e+00 0.0000000e+00 0.0000000e+00 
0.0000000e+00 0.0000000e+00 0.0000000e+00 
CELL_DATA 185
FIELD FieldData 0
