# vtk DataFile Version 4.0
vtk output
ASCII
DATASET UNSTRUCTURED_GRID
POINTS 1275 float
0.0000000e+00 0.0000000e+00 0.0000000e+00 
0.0000000e+00 0.0000000e+00 2.0000000e+01 
3.4700000e+00 0.0000000e+00 0.0000000e+00 
3.4700000e+00 0.0000000e+00 2.0000000e+01 
3.4700000e+00 1.0000000e+00 0.0000000e+00 
3.4700000e+00 1.0000000e+00 2.0000000e+01 
0.0000000e+00 1.0000000e+00 0.0000000e+00 
0.0000000e+00 1.0000000e+00 2.0000000e+01 
1.2500000e+00 2.5000000e+00 0.0000000e+00 
1.2500000e+00 2.5000000e+00 1.1700000e-01 
7.5000000e-01 2.5000000e+00 1.1700000e-01 
7.5000000e-01 2.5000000e+00 0.0000000e+00 
0.0000000e+00 2.5000000e+00 0.0000000e+00 
0.0000000e+00 2.5000000e+00 1.1700000e-01 
1.2500000e+00 2.8000000e+00 1.1700000e-01 
1.2500000e+00 2.8000000e+00 0.0000000e+00 
0.0000000e+00 2.8000000e+00 0.0000000e+00 
0.0000000e+00 2.8000000e+00 1.1700000e-01 
7.5000000e-01 2.5000000e+00 8.8300002e-01 
1.2500000e+00 2.5000000e+00 8.8300002e-01 
1.2500000e+00 2.5000000e+00 1.1170000e+00 
7.5000000e-01 2.5000000e+00 1.1170000e+00 
7.5000000e-01 2.5000000e+00 1.0000000e+00 
0.0000000e+00 2.5000000e+00 8.8300002e-01 
0.0000000e+00 2.5000000e+00 1.1170000e+00 
1.2500000e+00 2.8000000e+00 1.1170000e+00 
1.2500000e+00 2.8000000e+00 8.8300002e-01 
0.0000000e+00 2.8000000e+00 8.8300002e-01 
0.0000000e+00 2.8000000e+00 1.1170000e+00 
7.5000000e-01 2.5000000e+00 1.8830000e+00 
1.2500000e+00 2.5000000e+00 1.8830000e+00 
1.2500000e+00 2.5000000e+00 2.1170001e+00 
7.5000000e-01 2.5000000e+00 2.1170001e+00 
7.5000000e-01 2.5000000e+00 2.0000000e+00 
0.0000000e+00 2.5000000e+00 1.8830000e+00 
0.0000000e+00 2.5000000e+00 2.1170001e+00 
1.2500000e+00 2.8000000e+00 2.1170001e+00 
1.2500000e+00 2.8000000e+00 1.8830000e+00 
0.0000000e+00 2.8000000e+00 1.8830000e+00 
0.0000000e+00 2.8000000e+00 2.1170001e+00 
7.5000000e-01 2.5000000e+00 2.8829999e+00 
1.2500000e+00 2.5000000e+00 2.8829999e+00 
1.2500000e+00 2.5000000e+00 3.1170001e+00 
7.5000000e-01 2.5000000e+00 3.1170001e+00 
7.5000000e-01 2.5000000e+00 3.0000000e+00 
0.0000000e+00 2.5000000e+00 2.8829999e+00 
0.0000000e+00 2.5000000e+00 3.1170001e+00 
1.2500000e+00 2.8000000e+00 3.1170001e+00 
1.2500000e+00 2.8000000e+00 2.8829999e+00 
0.0000000e+00 2.8000000e+00 2.8829999e+00 
0.0000000e+00 2.8000000e+00 3.1170001e+00 
7.5000000e-01 2.5000000e+00 3.8829999e+00 
1.2500000e+00 2.5000000e+00 3.8829999e+00 
1.2500000e+00 2.5000000e+00 4.1170001e+00 
7.5000000e-01 2.5000000e+00 4.1170001e+00 
7.5000000e-01 2.5000000e+00 4.0000000e+00 
0.0000000e+00 2.5000000e+00 3.8829999e+00 
0.0000000e+00 2.5000000e+00 4.1170001e+00 
1.2500000e+00 2.8000000e+00 4.1170001e+00 
1.2500000e+00 2.8000000e+00 3.8829999e+00 
0.0000000e+00 2.8000000e+00 3.8829999e+00 
0.0000000e+00 2.8000000e+00 4.1170001e+00 
7.5000000e-01 2.5000000e+00 4.8829999e+00 
1.2500000e+00 2.5000000e+00 4.8829999e+00 
1.2500000e+00 2.5000000e+00 5.1170001e+00 
7.5000000e-01 2.5000000e+00 5.1170001e+00 
7.5000000e-01 2.5000000e+00 5.0000000e+00 
0.0000000e+00 2.5000000e+00 4.8829999e+00 
0.0000000e+00 2.5000000e+00 5.1170001e+00 
1.2500000e+00 2.8000000e+00 5.1170001e+00 
1.2500000e+00 2.8000000e+00 4.8829999e+00 
0.0000000e+00 2.8000000e+00 4.8829999e+00 
0.0000000e+00 2.8000000e+00 5.1170001e+00 
7.5000000e-01 2.5000000e+00 5.8829999e+00 
1.2500000e+00 2.5000000e+00 5.8829999e+00 
1.2500000e+00 2.5000000e+00 6.1170001e+00 
7.5000000e-01 2.5000000e+00 6.1170001e+00 
7.5000000e-01 2.5000000e+00 6.0000000e+00 
0.0000000e+00 2.5000000e+00 5.8829999e+00 
0.0000000e+00 2.5000000e+00 6.1170001e+00 
1.2500000e+00 2.8000000e+00 6.1170001e+00 
1.2500000e+00 2.8000000e+00 5.8829999e+00 
0.0000000e+00 2.8000000e+00 5.8829999e+00 
0.0000000e+00 2.8000000e+00 6.1170001e+00 
7.5000000e-01 2.5000000e+00 6.8829999e+00 
1.2500000e+00 2.5000000e+00 6.8829999e+00 
1.2500000e+00 2.5000000e+00 7.1170001e+00 
7.5000000e-01 2.5000000e+00 7.1170001e+00 
7.5000000e-01 2.5000000e+00 7.0000000e+00 
0.0000000e+00 2.5000000e+00 6.8829999e+00 
0.0000000e+00 2.5000000e+00 7.1170001e+00 
1.2500000e+00 2.8000000e+00 7.1170001e+00 
1.2500000e+00 2.8000000e+00 6.8829999e+00 
0.0000000e+00 2.8000000e+00 6.8829999e+00 
0.0000000e+00 2.8000000e+00 7.1170001e+00 
7.5000000e-01 2.5000000e+00 7.8829999e+00 
1.2500000e+00 2.5000000e+00 7.8829999e+00 
1.2500000e+00 2.5000000e+00 8.1169996e+00 
7.5000000e-01 2.5000000e+00 8.1169996e+00 
7.5000000e-01 2.5000000e+00 8.0000000e+00 
0.0000000e+00 2.5000000e+00 7.8829999e+00 
0.0000000e+00 2.5000000e+00 8.1169996e+00 
1.2500000e+00 2.8000000e+00 8.1169996e+00 
1.2500000e+00 2.8000000e+00 7.8829999e+00 
0.0000000e+00 2.8000000e+00 7.8829999e+00 
0.0000000e+00 2.8000000e+00 8.1169996e+00 
7.5000000e-01 2.5000000e+00 8.8830004e+00 
1.2500000e+00 2.5000000e+00 8.8830004e+00 
1.2500000e+00 2.5000000e+00 9.1169996e+00 
7.5000000e-01 2.5000000e+00 9.1169996e+00 
7.5000000e-01 2.5000000e+00 9.0000000e+00 
0.0000000e+00 2.5000000e+00 8.8830004e+00 
0.0000000e+00 2.5000000e+00 9.1169996e+00 
1.2500000e+00 2.8000000e+00 9.1169996e+00 
1.2500000e+00 2.8000000e+00 8.8830004e+00 
0.0000000e+00 2.8000000e+00 8.8830004e+00 
0.0000000e+00 2.8000000e+00 9.1169996e+00 
7.5000000e-01 2.5000000e+00 9.8830004e+00 
1.2500000e+00 2.5000000e+00 9.8830004e+00 
1.2500000e+00 2.5000000e+00 1.0117000e+01 
7.5000000e-01 2.5000000e+00 1.0117000e+01 
7.5000000e-01 2.5000000e+00 1.0000000e+01 
0.0000000e+00 2.5000000e+00 9.8830004e+00 
0.0000000e+00 2.5000000e+00 1.0117000e+01 
1.2500000e+00 2.8000000e+00 1.0117000e+01 
1.2500000e+00 2.8000000e+00 9.8830004e+00 
0.0000000e+00 2.8000000e+00 9.8830004e+00 
0.0000000e+00 2.8000000e+00 1.0117000e+01 
7.5000000e-01 2.5000000e+00 1.0883000e+01 
1.2500000e+00 2.5000000e+00 1.0883000e+01 
1.2500000e+00 2.5000000e+00 1.1117000e+01 
7.5000000e-01 2.5000000e+00 1.1117000e+01 
7.5000000e-01 2.5000000e+00 1.1000000e+01 
0.0000000e+00 2.5000000e+00 1.0883000e+01 
0.0000000e+00 2.5000000e+00 1.1117000e+01 
1.2500000e+00 2.8000000e+00 1.1117000e+01 
1.2500000e+00 2.8000000e+00 1.0883000e+01 
0.0000000e+00 2.8000000e+00 1.0883000e+01 
0.0000000e+00 2.8000000e+00 1.1117000e+01 
7.5000000e-01 2.5000000e+00 1.1883000e+01 
1.2500000e+00 2.5000000e+00 1.1883000e+01 
1.2500000e+00 2.5000000e+00 1.2117000e+01 
7.5000000e-01 2.5000000e+00 1.2117000e+01 
7.5000000e-01 2.5000000e+00 1.2000000e+01 
0.0000000e+00 2.5000000e+00 1.1883000e+01 
0.0000000e+00 2.5000000e+00 1.2117000e+01 
1.2500000e+00 2.8000000e+00 1.2117000e+01 
1.2500000e+00 2.8000000e+00 1.1883000e+01 
0.0000000e+00 2.8000000e+00 1.1883000e+01 
0.0000000e+00 2.8000000e+00 1.2117000e+01 
7.5000000e-01 2.5000000e+00 1.2883000e+01 
1.2500000e+00 2.5000000e+00 1.2883000e+01 
1.2500000e+00 2.5000000e+00 1.3117000e+01 
7.5000000e-01 2.5000000e+00 1.3117000e+01 
7.5000000e-01 2.5000000e+00 1.3000000e+01 
0.0000000e+00 2.5000000e+00 1.2883000e+01 
0.0000000e+00 2.5000000e+00 1.3117000e+01 
1.2500000e+00 2.8000000e+00 1.3117000e+01 
1.2500000e+00 2.8000000e+00 1.2883000e+01 
0.0000000e+00 2.8000000e+00 1.2883000e+01 
0.0000000e+00 2.8000000e+00 1.3117000e+01 
7.5000000e-01 2.5000000e+00 1.3883000e+01 
1.2500000e+00 2.5000000e+00 1.3883000e+01 
1.2500000e+00 2.5000000e+00 1.4117000e+01 
7.5000000e-01 2.5000000e+00 1.4117000e+01 
7.5000000e-01 2.5000000e+00 1.4000000e+01 
0.0000000e+00 2.5000000e+00 1.3883000e+01 
0.0000000e+00 2.5000000e+00 1.4117000e+01 
1.2500000e+00 2.8000000e+00 1.4117000e+01 
1.2500000e+00 2.8000000e+00 1.3883000e+01 
0.0000000e+00 2.8000000e+00 1.3883000e+01 
0.0000000e+00 2.8000000e+00 1.4117000e+01 
7.5000000e-01 2.5000000e+00 1.4883000e+01 
1.2500000e+00 2.5000000e+00 1.4883000e+01 
1.2500000e+00 2.5000000e+00 1.5117000e+01 
7.5000000e-01 2.5000000e+00 1.5117000e+01 
7.5000000e-01 2.5000000e+00 1.5000000e+01 
0.0000000e+00 2.5000000e+00 1.4883000e+01 
0.0000000e+00 2.5000000e+00 1.5117000e+01 
1.2500000e+00 2.8000000e+00 1.5117000e+01 
1.2500000e+00 2.8000000e+00 1.4883000e+01 
0.0000000e+00 2.8000000e+00 1.4883000e+01 
0.0000000e+00 2.8000000e+00 1.5117000e+01 
7.5000000e-01 2.5000000e+00 1.5883000e+01 
1.2500000e+00 2.5000000e+00 1.5883000e+01 
1.2500000e+00 2.5000000e+00 1.6117001e+01 
7.5000000e-01 2.5000000e+00 1.6117001e+01 
7.5000000e-01 2.5000000e+00 1.6000000e+01 
0.0000000e+00 2.5000000e+00 1.5883000e+01 
0.0000000e+00 2.5000000e+00 1.6117001e+01 
1.2500000e+00 2.8000000e+00 1.6117001e+01 
1.2500000e+00 2.8000000e+00 1.5883000e+01 
0.0000000e+00 2.8000000e+00 1.5883000e+01 
0.0000000e+00 2.8000000e+00 1.6117001e+01 
7.5000000e-01 2.5000000e+00 1.6882999e+01 
1.2500000e+00 2.5000000e+00 1.6882999e+01 
1.2500000e+00 2.5000000e+00 1.7117001e+01 
7.5000000e-01 2.5000000e+00 1.7117001e+01 
7.5000000e-01 2.5000000e+00 1.7000000e+01 
0.0000000e+00 2.5000000e+00 1.6882999e+01 
0.0000000e+00 2.5000000e+00 1.7117001e+01 
1.2500000e+00 2.8000000e+00 1.7117001e+01 
1.2500000e+00 2.8000000e+00 1.6882999e+01 
0.0000000e+00 2.8000000e+00 1.6882999e+01 
0.0000000e+00 2.8000000e+00 1.7117001e+01 
7.5000000e-01 2.5000000e+00 1.7882999e+01 
1.2500000e+00 2.5000000e+00 1.7882999e+01 
1.2500000e+00 2.5000000e+00 1.8117001e+01 
7.5000000e-01 2.5000000e+00 1.8117001e+01 
7.5000000e-01 2.5000000e+00 1.8000000e+01 
0.0000000e+00 2.5000000e+00 1.7882999e+01 
0.0000000e+00 2.5000000e+00 1.8117001e+01 
1.2500000e+00 2.8000000e+00 1.8117001e+01 
1.2500000e+00 2.8000000e+00 1.7882999e+01 
0.0000000e+00 2.8000000e+00 1.7882999e+01 
0.0000000e+00 2.8000000e+00 1.8117001e+01 
7.5000000e-01 2.5000000e+00 1.8882999e+01 
1.2500000e+00 2.5000000e+00 1.8882999e+01 
1.2500000e+00 2.5000000e+00 1.9117001e+01 
7.5000000e-01 2.5000000e+00 1.9117001e+01 
7.5000000e-01 2.5000000e+00 1.9000000e+01 
0.0000000e+00 2.5000000e+00 1.8882999e+01 
0.0000000e+00 2.5000000e+00 1.9117001e+01 
1.2500000e+00 2.8000000e+00 1.9117001e+01 
1.2500000e+00 2.8000000e+00 1.8882999e+01 
0.0000000e+00 2.8000000e+00 1.8882999e+01 
0.0000000e+00 2.8000000e+00 1.9117001e+01 
3.4700000e+00 2.5000000e+00 0.0000000e+00 
3.4700000e+00 2.5000000e+00 2.0000000e+01 
7.5000000e-01 2.5000000e+00 1.9882999e+01 
[...]
POINT_DATA 1275
FIELD FieldData 1
DISPLACEMENT 3 1275  float
0.0000000e+00 0.0000000e+00 0.0000000e+00 
0.0000000e+00 0.0000000e+00 0.0000000e+00 
0.0000000e+00 0.0000000e+00 0.0000000e+00 
0.0000000e+00 0.0000000e+00 0.0000000e+00 
0.0000000e+00 3.0183329e-09 0.0000000e+00 
0.0000000e+00 -4.1637788e-10 0.0000000e+00 
0.0000000e+00 5.0268878e-09 0.0000000e+00 
0.0000000e+00 2.1995159e-09 0.0000000e+00 
0.0000000e+00 2.3600903e-08 0.0000000e+00 
-2.1188491e-12 2.3602819e-08 -5.1814512e-12 
-3.9371132e-14 2.3578469e-08 -9.0366733e-13 
0.0000000e+00 2.3578666e-08 0.0000000e+00 
0.0000000e+00 2.3541942e-08 0.0000000e+00 
0.0000000e+00 2.3540750e-08 0.0000000e+00 
-2.3593991e-12 2.3600226e-08 1.6791007e-13 
0.0000000e+00 2.3599735e-08 0.0000000e+00 
0.0000000e+00 2.3543963e-08 0.0000000e+00 
0.0000000e+00 2.3543963e-08 0.0000000e+00 
-1.8457659e-10 2.4188946e-08 -1.0129876e-09 
-2.7324887e-10 2.4417428e-08 -2.1659285e-09 
2.5903751e-10 2.4214023e-08 -2.1802047e-09 
2.0653104e-10 2.4059197e-08 -1.0151193e-09 
1.4232861e-11 2.4122194e-08 -1.0030098e-09 
0.0000000e+00 2.3938842e-08 0.0000000e+00 
0.0000000e+00 2.3884549e-08 0.0000000e+00 
1.5711099e-10 2.4224775e-08 -1.8948525e-09 
-3.6735529e-10 2.4404097e-08 -1.9024795e-09 
0.0000000e+00 2.3953739e-08 0.0000000e+00 
0.0000000e+00 2.3879501e-08 0.0000000e+00 
-4.8587534e-10 2.6475020e-08 -2.4479310e-09 
-6.7482875e-10 2.6760004e-08 -5.2466751e-09 
6.2529576e-10 2.6397801e-08 -5.3106111e-09 
4.7192861e-10 2.6222066e-08 -2.4436841e-09 
-8.5408364e-12 2.6341713e-08 -2.4196822e-09 
0.0000000e+00 2.6134042e-08 0.0000000e+00 
0.0000000e+00 2.6010357e-08 0.0000000e+00 
5.0422294e-10 2.6399979e-08 -4.7145758e-09 
-7.9107904e-10 2.6751527e-08 -4.7348649e-09 
0.0000000e+00 2.6160034e-08 0.0000000e+00 
0.0000000e+00 2.6007358e-08 0.0000000e+00 
-1.0405290e-09 5.3081422e-08 -6.1192931e-09 
-1.4676045e-09 5.4308089e-08 -1.3088249e-08 
1.8378914e-09 5.3487160e-08 -1.3099036e-08 
1.3317513e-09 5.2517017e-08 -6.1044076e-09 
1.3154482e-10 5.2764836e-08 -6.0469691e-09 
0.0000000e+00 5.2154547e-08 0.0000000e+00 
0.0000000e+00 5.1884278e-08 0.0000000e+00 
1.1763315e-09 5.3424095e-08 -1.1800753e-08 
-2.0190005e-09 5.4225151e-08 -1.1823505e-08 
0.0000000e+00 5.2231989e-08 0.0000000e+00 
0.0000000e+00 5.1871606e-08 0.0000000e+00 
-2.8109393e-09 2.6142251e-07 -1.6704428e-08 
-3.8582422e-09 2.6398476e-07 -3.4520859e-08 
4.7021995e-09 2.6248159e-07 -3.4839172e-08 
3.4908612e-09 2.6025398e-07 -1.6767281e-08 
3.9698200e-10 2.6075944e-07 -1.6569000e-08 
0.0000000e+00 2.5821939e-07 0.0000000e+00 
0.0000000e+00 2.5772104e-07 0.0000000e+00 
3.1261658e-09 2.6238317e-07 -3.1945024e-08 
-5.1730011e-09 2.6404740e-07 -3.2040994e-08 
0.0000000e+00 2.5850250e-07 0.0000000e+00 
0.0000000e+00 2.5759130e-07 0.0000000e+00 
-6.4978836e-09 1.2172982e-06 -2.4906468e-08 
-8.7390193e-09 1.2093607e-06 -5.2186227e-08 
4.0203365e-09 1.2067692e-06 -5.2517784e-08 
3.2655014e-09 1.2154889e-06 -2.5181668e-08 
-1.5549502e-09 1.2166813e-06 -2.4777602e-08 
0.0000000e+00 1.2186175e-06 0.0000000e+00 
0.0000000e+00 1.2177215e-06 0.0000000e+00 
8.7172527e-09 1.2075282e-06 -4.8149079e-08 
-3.8170667e-09 1.2100687e-06 -4.8286612e-08 
0.0000000e+00 1.2184558e-06 0.0000000e+00 
0.0000000e+00 1.2174298e-06 0.0000000e+00 
-9.7526796e-09 3.2375237e-06 -3.1909561e-08 
-1.6234234e-08 3.2158646e-06 -6.5436424e-08 
-3.4053349e-10 3.2068237e-06 -6.6054596e-08 
1.8052817e-09 3.2308212e-06 -3.3040276e-08 
-3.4256136e-09 3.2355281e-06 -3.2087577e-08 
0.0000000e+00 3.2342143e-06 0.0000000e+00 
0.0000000e+00 3.2314558e-06 0.0000000e+00 
1.2913794e-08 3.2103119e-06 -5.3982856e-08 
-2.1080315e-09 3.2184159e-06 -5.4135782e-08 
0.0000000e+00 3.2340840e-06 0.0000000e+00 
0.0000000e+00 3.2317128e-06 0.0000000e+00 
-5.2926402e-10 5.4965216e-07 2.2496323e-08 
-1.1943328e-08 5.2440782e-07 3.7857500e-08 
-2.2412133e-08 4.9324689e-07 3.7218282e-08 
-9.4674553e-09 5.3274675e-07 1.9682382e-08 
-3.8257548e-09 5.4440761e-07 2.1026265e-08 
0.0000000e+00 5.0962512e-07 0.0000000e+00 
0.0000000e+00 4.9943935e-07 0.0000000e+00 
-1.8620581e-09 5.0548363e-07 6.6720460e-08 
8.5991019e-09 5.2732054e-07 6.6095566e-08 
0.0000000e+00 5.0858188e-07 0.0000000e+00 
0.0000000e+00 5.0243665e-07 0.0000000e+00 
1.0242070e-07 -3.6265163e-05 1.6683830e-07 
1.3466432e-07 -3.5882265e-05 3.3852032e-07 
3.0900207e-08 -3.6050646e-05 3.4755661e-07 
2.3150784e-08 -3.6358993e-05 1.6894697e-07 
6.0947670e-08 -3.6314108e-05 1.6723705e-07 
0.0000000e+00 -3.6478166e-05 0.0000000e+00 
0.0000000e+00 -3.6521633e-05 0.0000000e+00 
-1.5942081e-07 -3.6046597e-05 4.9855561e-07 
-6.5685008e-08 -3.5927362e-05 4.9959402e-07 
0.0000000e+00 -3.6478879e-05 0.0000000e+00 
0.0000000e+00 -3.6506077e-05 0.0000000e+00 
4.2462307e-07 -1.6979629e-04 3.6172472e-07 
6.2574657e-07 -1.6819441e-04 7.8603779e-07 
4.2598694e-07 -1.6830421e-04 8.2422940e-07 
2.5681061e-07 -1.6989606e-04 4.0172603e-07 
3.1757253e-07 -1.6989639e-04 3.7881549e-07 
0.0000000e+00 -1.7030965e-04 0.0000000e+00 
0.0000000e+00 -1.7037863e-04 0.0000000e+00 
-5.1377555e-07 -1.6843928e-04 9.1193408e-07 
-3.0820308e-07 -1.6834226e-04 9.1829219e-07 
0.0000000e+00 -1.7029936e-04 0.0000000e+00 
0.0000000e+00 -1.7031594e-04 0.0000000e+00 
6.7345502e-07 -3.2599302e-04 7.1565790e-07 
1.0122568e-06 -3.2331559e-04 1.4168783e-06 
7.2312088e-07 -3.2313503e-04 1.4632438e-06 
4.2267285e-07 -3.2583458e-04 8.4325450e-07 
5.0271871e-07 -3.2605053e-04 7.6927682e-07 
0.0000000e+00 -3.2655828e-04 0.0000000e+00 
0.0000000e+00 -3.2647527e-04 0.0000000e+00 
-8.7306955e-07 -3.2339490e-04 1.1901074e-06 
-5.6524607e-07 -3.2358145e-04 1.2077849e-06 
0.0000000e+00 -3.2648270e-04 0.0000000e+00 
0.0000000e+00 -3.2642219e-04 0.0000000e+00 
2.2092432e-07 -1.6907153e-04 -7.7600077e-07 
3.4867307e-07 -1.6731044e-04 -1.4814838e-06 
7.3185498e-07 -1.6707210e-04 -1.4347687e-06 
5.1333393e-07 -1.6896238e-04 -7.2641268e-07 
3.4679101e-07 -1.6907010e-04 -7.4536905e-07 
0.0000000e+00 -1.6974784e-04 0.0000000e+00 
0.0000000e+00 -1.6969763e-04 0.0000000e+00 
-3.4228702e-07 -1.6726756e-04 -1.6454909e-06 
-6.9397771e-07 -1.6741239e-04 -1.6397062e-06 
0.0000000e+00 -1.6967875e-04 0.0000000e+00 
0.0000000e+00 -1.6967043e-04 0.0000000e+00 
1.0124775e-09 -3.6103214e-05 -1.7912504e-07 
2.6298187e-08 -3.6016310e-05 -2.8278836e-07 
6.9314673e-08 -3.5792335e-05 -2.9175271e-07 
7.0209211e-08 -3.6002766e-05 -1.7551133e-07 
3.4024261e-08 -3.6054342e-05 -1.7856425e-07 
0.0000000e+00 -3.6197842e-05 0.0000000e+00 
0.0000000e+00 -3.6142817e-05 0.0000000e+00 
-5.1429279e-09 -3.5838399e-05 -4.8507189e-07 
-7.9995836e-08 -3.5979720e-05 -4.8583428e-07 
0.0000000e+00 -3.6172656e-05 0.0000000e+00 
0.0000000e+00 -3.6143716e-05 0.0000000e+00 
8.3911029e-09 2.6303070e-07 7.0562876e-08 
4.3661510e-09 2.3717591e-07 1.2005434e-07 
-1.7767658e-08 3.0769726e-07 1.1748217e-07 
-8.2113356e-09 3.0974397e-07 6.6800716e-08 
1.0666142e-09 2.9039700e-07 6.7371644e-08 
0.0000000e+00 2.4705091e-07 0.0000000e+00 
0.0000000e+00 2.6822926e-07 0.0000000e+00 
-7.3233424e-09 3.0651796e-07 4.3865743e-08 
1.2544623e-08 2.5009075e-07 4.2693998e-08 
0.0000000e+00 2.5303362e-07 0.0000000e+00 
0.0000000e+00 2.6655567e-07 0.0000000e+00 
1.3152375e-09 3.0480307e-06 2.6745029e-08 
5.9029592e-10 3.0287683e-06 5.9532571e-08 
-1.4374830e-08 3.0385240e-06 5.7957916e-08 
-8.6394527e-09 3.0546237e-06 2.5808289e-08 
-3.1229821e-09 3.0526905e-06 2.5964411e-08 
0.0000000e+00 3.0446549e-06 0.0000000e+00 
0.0000000e+00 3.0475553e-06 0.0000000e+00 
-3.7511332e-09 3.0406668e-06 4.6476611e-08 
1.0587125e-08 3.0322378e-06 4.6227179e-08 
0.0000000e+00 3.0451774e-06 0.0000000e+00 
0.0000000e+00 3.0478880e-06 0.0000000e+00 
4.2601500e-09 1.2202295e-06 2.7129738e-08 
5.1086895e-09 1.2172790e-06 5.6527089e-08 
-8.5440233e-09 1.2189945e-06 5.5920196e-08 
-6.2045844e-09 1.2220723e-06 2.6974805e-08 
-8.2695595e-10 1.2213341e-06 2.6770305e-08 
0.0000000e+00 1.2211004e-06 0.0000000e+00 
0.0000000e+00 1.2218604e-06 0.0000000e+00 
-6.6298407e-09 1.2197623e-06 5.2460848e-08 
6.9008834e-09 1.2174798e-06 5.2415746e-08 
0.0000000e+00 1.2210330e-06 0.0000000e+00 
0.0000000e+00 1.2220797e-06 0.0000000e+00 
1.4742079e-09 2.8083528e-07 1.1471842e-08 
2.0218094e-09 2.7968107e-07 2.3385974e-08 
-3.6028434e-09 2.8063741e-07 2.3374312e-08 
-2.8656433e-09 2.8172437e-07 1.1500306e-08 
-7.0179912e-10 2.8128179e-07 1.1367547e-08 
0.0000000e+00 2.8285481e-07 0.0000000e+00 
0.0000000e+00 2.8314730e-07 0.0000000e+00 
-2.7963927e-09 2.8069155e-07 2.1614763e-08 
2.7178992e-09 2.7957191e-07 2.1637661e-08 
0.0000000e+00 2.8276654e-07 0.0000000e+00 
0.0000000e+00 2.8329890e-07 0.0000000e+00 
9.6785624e-10 4.7052279e-08 4.7796345e-09 
1.3001800e-09 4.7477265e-08 1.0187748e-08 
-1.1991818e-09 4.7993950e-08 1.0098289e-08 
-9.0882363e-10 4.7474970e-08 4.8070672e-09 
2.9963469e-11 4.7230191e-08 4.7422311e-09 
0.0000000e+00 4.7361144e-08 0.0000000e+00 
0.0000000e+00 4.7550827e-08 0.0000000e+00 
-1.4345148e-09 4.7961027e-08 9.2717700e-09 
1.0161142e-09 4.7417526e-08 9.2704688e-09 
0.0000000e+00 4.7364018e-08 0.0000000e+00 
0.0000000e+00 4.7585988e-08 0.0000000e+00 
2.8394420e-10 1.2929197e-08 2.1824267e-09 
4.1854120e-10 1.2709448e-08 4.5621467e-09 
-6.6649947e-10 1.3033659e-08 4.5146193e-09 
-5.3472571e-10 1.3178622e-08 2.1948685e-09 
-1.3078222e-10 1.3052014e-08 2.1655371e-09 
0.0000000e+00 1.3311353e-08 0.0000000e+00 
0.0000000e+00 1.3408097e-08 0.0000000e+00 
-5.5069499e-10 1.3030070e-08 4.0485819e-09 
5.2968252e-10 1.2703519e-08 4.0457282e-09 
0.0000000e+00 1.3302071e-08 0.0000000e+00 
0.0000000e+00 1.3448201e-08 0.0000000e+00 
9.4715069e-11 9.7179731e-09 5.5908389e-10 
1.2222695e-10 9.7281276e-09 1.1966818e-09 
-1.6901290e-10 9.8482209e-09 1.1931161e-09 
-1.2132012e-10 9.7978052e-09 5.5846006e-10 
-1.2089100e-11 9.7572475e-09 5.5277555e-10 
0.0000000e+00 9.6830490e-09 0.0000000e+00 
0.0000000e+00 9.7153725e-09 0.0000000e+00 
-1.7780773e-10 9.8414326e-09 1.0367724e-09 
1.0847991e-10 9.7367465e-09 1.0338698e-09 
0.0000000e+00 9.6819237e-09 0.0000000e+00 
0.0000000e+00 9.7177528e-09 0.0000000e+00 
0.0000000e+00 1.5826130e-08 0.0000000e+00 
0.0000000e+00 4.6865827e-09 0.0000000e+00 
-1.9407140e-13 9.4865085e-09 3.2484337e-13 
-8.3097038e-13 9.4931263e-09 2.1842023e-12 
0.0000000e+00 9.4914459e-09 0.0000000e+00 
0.0000000e+00 9.4862074e-09 0.0000000e+00 
0.0000000e+00 9.4732266e-09 0.0000000e+00 
0.0000000e+00 9.4738031e-09 0.0000000e+00 
0.0000000e+00 9.4920241e-09 0.0000000e+00 
-6.9393401e-13 9.4920347e-09 -9.0463873e-15 
0.0000000e+00 9.4747969e-09 0.0000000e+00 
0.0000000e+00 9.4745092e-09 0.0000000e+00 
0.0000000e+00 2.3589090e-08 0.0000000e+00 
0.0000000e+00 2.4081817e-08 0.0000000e+00 
0.0000000e+00 2.5984429e-08 0.0000000e+00 
0.0000000e+00 5.0710984e-08 0.0000000e+00 
0.0000000e+00 2.5863864e-07 0.0000000e+00 
0.0000000e+00 1.2329534e-06 0.0000000e+00 
0.0000000e+00 3.3275851e-06 0.0000000e+00 
0.0000000e+00 7.7929582e-07 0.0000000e+00 
0.0000000e+00 -3.6441750e-05 0.0000000e+00 
0.0000000e+00 -1.7306973e-04 0.0000000e+00 
0.0000000e+00 -3.3416276e-04 0.0000000e+00 
0.0000000e+00 -1.7225447e-04 0.0000000e+00 
0.0000000e+00 -3.6187466e-05 0.0000000e+00 
0.0000000e+00 5.3289182e-07 0.0000000e+00 
0.0000000e+00 3.1435845e-06 0.0000000e+00 
0.0000000e+00 1.2355055e-06 0.0000000e+00 
0.0000000e+00 2.8005439e-07 0.0000000e+00 
0.0000000e+00 4.5462276e-08 0.0000000e+00 
0.0000000e+00 1.2579836e-08 0.0000000e+00 
0.0000000e+00 9.7124149e-09 0.0000000e+00 
0.0000000e+00 9.4831494e-09 0.0000000e+00 
0.0000000e+00 2.3580037e-08 0.0000000e+00 
-8.9460286e-11 2.4128212e-08 -8.8202101e-10 
-1.0604832e-10 2.6320702e-08 -2.2072986e-09 
-2.7478400e-10 5.2654613e-08 -5.5711511e-09 
-9.4127262e-10 2.6067528e-07 -1.5527112e-08 
1.5046272e-09 1.2173610e-06 -2.3212529e-08 
1.2363380e-09 3.2411056e-06 -2.4718380e-08 
-5.7457679e-09 5.5840803e-07 4.0949296e-08 
-8.0933795e-08 -3.6304624e-05 2.8215356e-07 
-2.1837542e-07 -1.7004512e-04 4.9361512e-07 
-3.4364419e-07 -3.2652440e-04 5.9578645e-07 
-3.0785071e-07 -1.6921060e-04 -8.8437019e-07 
-3.2789828e-08 -3.6059864e-05 -2.9764166e-07 
-4.9447064e-09 3.0844285e-07 1.0536997e-08 
-2.5162242e-10 3.0582746e-06 1.9519041e-08 
-4.4036810e-10 1.2223270e-06 2.5291726e-08 
6.0454274e-11 2.8120238e-07 1.0539281e-08 
-1.2583257e-10 4.7151719e-08 4.3926316e-09 
1.8158041e-11 1.3012994e-08 1.9262474e-09 
-2.8506508e-11 9.7539630e-09 4.7553944e-10 
0.0000000e+00 9.4858397e-09 0.0000000e+00 
0.0000000e+00 0.0000000e+00 0.0000000e+00 
0.0000000e+00 0.0000000e+00 0.0000000e+00 
0.0000000e+00 0.0000000e+00 0.0000000e+00 
0.0000000e+00 0.0000000e+00 0.0000000e+00 
0.0000000e+00 0.0000000e+00 0.0000000e+00 
0.0000000e+00 0.0000000e+00 0.0000000e+00 
0.0000000e+00 0.0000000e+00 0.0000000e+00 
0.0000000e+00 0.0000000e+00 0.0000000e+00 
0.0000000e+00 0.0000000e+00 0.0000000e+00 
0.0000000e+00 0.0000000e+00 0.0000000e+00 
0.0000000e+00 0.0000000e+00 0.0000000e+00 
0.0000000e+00 0.0000000e+00 0.0000000e+00 
0.0000000e+00 0.0000000e+00 0.0000000e+00 
0.0000000e+00 0.0000000e+00 0.0000000e+00 
0.0000000e+00 0.0000000e+00 0.0000000e+00 
0.0000000e+00 0.0000000e+00 0.0000000e+00 
0.0000000e+00 0.0000000e+00 0.0000000e+00 
0.0000000e+00 0.0000000e+00 0.0000000e+00 
0.0000000e+00 0.0000000e+00 0.0000000e+00 
0.0000000e+00 0.0000000e+00 0.0000000e+00 
0.0000000e+00 0.0000000e+00 0.0000000e+00 
0.0000000e+00 0.0000000e+00 0.0000000e+00 
0.0000000e+00 0.0000000e+00 0.0000000e+00 
0.0000000e+00 0.0000000e+00 0.0000000e+00 
0.0000000e+00 0.0000000e+00 0.0000000e+00 
0.0000000e+00 0.0000000e+00 0.0000000e+00 
0.0000000e+00 0.0000000e+00 0.0000000e+00 
0.0000000e+00 0.0000000e+00 0.0000000e+00 
0.0000000e+00 0.0000000e+00 0.0000000e+00 
0.0000000e+00 0.0000000e+00 0.0000000e+00 
0.0000000e+00 0.0000000e+00 0.0000000e+00 
0.0000000e+00 0.0000000e+00 0.0000000e+00 
0.0000000e+00 0.0000000e+00 0.0000000e+00 
0.0000000e+00 0.0000000e+00 0.0000000e+00 
0.0000000e+00 0.0000000e+00 0.0000000e+00 
0.0000000e+00 0.0000000e+00 0.0000000e+00 
0.0000000e+00 0.0000000e+00 0.0000000e+00 
0.0000000e+00 0.0000000e+00 0.0000000e+00 
0.0000000e+00 0.0000000e+00 0.0000000e+00 
0.0000000e+00 0.0000000e+00 0.0000000e+00 
0.0000000e+00 0.0000000e+00 0.0000000e+00 
0.0000000e+00 0.0000000e+00 0.0000000e+00 
0.0000000e+00 0.0000000e+00 0.0000000e+00 
0.0000000e+00 0.0000000e+00 0.0000000e+00 
0.0000000e+00 3.5147083e-09 0.0000000e+00 
0.0000000e+00 8.2436991e-09 0.0000000e+00 
0.0000000e+00 1.5800461e-08 0.0000000e+00 
0.0000000e+00 2.0914172e-08 0.0000000e+00 
0.0000000e+00 -5.7053665e-08 0.0000000e+00 
0.0000000e+00 5.4866433e-08 0.0000000e+00 
0.0000000e+00 -3.5896665e-08 0.0000000e+00 
0.0000000e+00 -1.6059577e-06 0.0000000e+00 
0.0000000e+00 -4.8272377e-06 0.0000000e+00 
0.0000000e+00 -3.6358301e-06 0.0000000e+00 
0.0000000e+00 -3.1448005e-06 0.0000000e+00 
0.0000000e+00 -1.1904731e-06 0.0000000e+00 
0.0000000e+00 1.7316965e-07 0.0000000e+00 
0.0000000e+00 3.5640372e-08 0.0000000e+00 
0.0000000e+00 4.1431623e-09 0.0000000e+00 
0.0000000e+00 1.7188855e-08 0.0000000e+00 
0.0000000e+00 4.8879216e-09 0.0000000e+00 
0.0000000e+00 -1.3847855e-09 0.0000000e+00 
0.0000000e+00 -1.0312478e-09 0.0000000e+00 
0.0000000e+00 3.6868912e-09 0.0000000e+00 
0.0000000e+00 3.3187832e-09 0.0000000e+00 
0.0000000e+00 2.1728246e-08 0.0000000e+00 
0.0000000e+00 8.9485098e-08 0.0000000e+00 
0.0000000e+00 2.8151555e-07 0.0000000e+00 
0.0000000e+00 5.1637230e-08 0.0000000e+00 
0.0000000e+00 -3.6967654e-06 0.0000000e+00 
0.0000000e+00 -1.4802991e-05 0.0000000e+00 
0.0000000e+00 -3.9966289e-05 0.0000000e+00 
0.0000000e+00 -5.9290080e-05 0.0000000e+00 
0.0000000e+00 -3.9342318e-05 0.0000000e+00 
0.0000000e+00 -1.5194154e-05 0.0000000e+00 
0.0000000e+00 -2.0562800e-06 0.0000000e+00 
0.0000000e+00 -1.3536572e-07 0.0000000e+00 
0.0000000e+00 2.5285078e-07 0.0000000e+00 
0.0000000e+00 7.9126195e-08 0.0000000e+00 
0.0000000e+00 2.2599561e-08 0.0000000e+00 
0.0000000e+00 6.0007346e-09 0.0000000e+00 
0.0000000e+00 2.4871898e-09 0.0000000e+00 
0.0000000e+00 1.5079484e-09 0.0000000e+00 
0.0000000e+00 4.3214410e-09 0.0000000e+00 
0.0000000e+00 3.3887950e-09 0.0000000e+00 
0.0000000e+00 -1.1377674e-09 0.0000000e+00 
0.0000000e+00 4.9190491e-10 0.0000000e+00 
0.0000000e+00 1.5449972e-09 0.0000000e+00 
-2.0673157e-12 2.3573541e-08 -3.0920704e-14 
-2.4054778e-10 2.4134669e-08 -6.3332412e-10 
6.8180329e-11 2.4041965e-08 -6.4674194e-10 
-4.6444532e-10 2.6380107e-08 -1.5948326e-09 
2.7130562e-10 2.6204665e-08 -1.6213779e-09 
-1.1543638e-09 5.2766797e-08 -4.0501718e-09 
6.7937006e-10 5.2367565e-08 -4.1179975e-09 
-3.5104819e-09 2.6073604e-07 -1.1469710e-08 
1.5941862e-09 2.5980009e-07 -1.1674706e-08 
-2.9132599e-09 1.2186508e-06 -1.7013770e-08 
5.4136930e-09 1.2170605e-06 -1.7347967e-08 
-4.3568140e-09 3.2418786e-06 -1.7883952e-08 
4.8943112e-09 3.2360433e-06 -1.7558801e-08 
-3.9960426e-09 5.5184989e-07 3.4319790e-08 
-1.1272678e-08 5.4092902e-07 3.4498441e-08 
-3.1672883e-08 -3.6333091e-05 2.2372592e-07 
-1.0774460e-07 -3.6399044e-05 2.3141388e-07 
-9.8816201e-08 -1.7010668e-04 3.9088741e-07 
-2.3303166e-07 -1.7016713e-04 3.8635369e-07 
-1.5097932e-07 -3.2654192e-04 4.5338098e-07 
-3.5779740e-07 -3.2644966e-04 4.5342841e-07 
-3.8029094e-07 -1.6938617e-04 -6.9503437e-07 
-1.2063990e-07 -1.6931444e-04 -7.0068626e-07 
-6.3553180e-08 -3.6118461e-05 -2.5026677e-07 
4.7764512e-09 -3.6049933e-05 -2.4706256e-07 
-2.1470659e-10 2.7547219e-07 3.8362087e-09 
-1.2143307e-08 3.1245102e-07 2.8157996e-09 
2.4885514e-09 3.0527392e-06 1.2915879e-08 
-4.5342401e-09 3.0573569e-06 1.3628191e-08 
3.8459276e-09 1.2210152e-06 1.8548233e-08 
-4.9774571e-09 1.2227734e-06 1.8941524e-08 
1.9502069e-09 2.8115741e-07 7.7777251e-09 
-1.7549867e-09 2.8195018e-07 7.9476283e-09 
6.8809142e-10 4.7010229e-08 3.1897744e-09 
-8.9950686e-10 4.7363816e-08 3.2516052e-09 
3.5584186e-10 1.2993867e-08 1.4030689e-09 
-2.9868691e-10 1.3176929e-08 1.4359994e-09 
6.2479986e-11 9.7161319e-09 3.4454925e-10 
-1.1737329e-10 9.7815889e-09 3.3872991e-10 
0.0000000e+00 1.8701543e-08 0.0000000e+00 
0.0000000e+00 2.3454726e-08 0.0000000e+00 
0.0000000e+00 8.0737742e-08 0.0000000e+00 
0.0000000e+00 1.4847681e-07 0.0000000e+00 
0.0000000e+00 2.5226225e-07 0.0000000e+00 
0.0000000e+00 3.0210384e-07 0.0000000e+00 
0.0000000e+00 5.0061277e-07 0.0000000e+00 
0.0000000e+00 -1.2228089e-06 0.0000000e+00 
0.0000000e+00 -3.6347808e-06 0.0000000e+00 
0.0000000e+00 -5.2692781e-06 0.0000000e+00 
0.0000000e+00 1.1596347e-06 0.0000000e+00 
0.0000000e+00 -9.2028409e-07 0.0000000e+00 
0.0000000e+00 5.1599852e-07 0.0000000e+00 
0.0000000e+00 4.7294782e-07 0.0000000e+00 
0.0000000e+00 2.4203607e-07 0.0000000e+00 
0.0000000e+00 1.0788231e-07 0.0000000e+00 
0.0000000e+00 4.3307256e-08 0.0000000e+00 
0.0000000e+00 1.8297625e-08 0.0000000e+00 
0.0000000e+00 5.4109144e-09 0.0000000e+00 
0.0000000e+00 1.0707497e-08 0.0000000e+00 
0.0000000e+00 4.0007778e-10 0.0000000e+00 
0.0000000e+00 2.4397472e-08 0.0000000e+00 
0.0000000e+00 2.8710515e-08 0.0000000e+00 
0.0000000e+00 9.7893809e-09 0.0000000e+00 
0.0000000e+00 1.2705669e-08 0.0000000e+00 
0.0000000e+00 1.5315122e-08 0.0000000e+00 
0.0000000e+00 6.3731531e-09 0.0000000e+00 
-7.0514075e-13 9.4840980e-09 2.0417482e-14 
0.0000000e+00 0.0000000e+00 0.0000000e+00 
0.0000000e+00 0.0000000e+00 0.0000000e+00 
0.0000000e+00 0.0000000e+00 0.0000000e+00 
0.0000000e+00 0.0000000e+00 0.0000000e+00 
0.0000000e+00 0.0000000e+00 0.0000000e+00 
0.0000000e+00 0.0000000e+00 0.0000000e+00 
0.0000000e+00 0.0000000e+00 0.0000000e+00 
0.0000000e+00 0.0000000e+00 0.0000000e+00 
0.0000000e+00 0.0000000e+00 0.0000000e+00 
0.0000000e+00 0.0000000e+00 0.0000000e+00 
0.0000000e+00 0.0000000e+00 0.0000000e+00 
0.0000000e+00 0.0000000e+00 0.0000000e+00 
0.0000000e+00 0.0000000e+00 0.0000000e+00 
0.0000000e+00 0.0000000e+00 0.0000000e+00 
0.0000000e+00 0.0000000e+00 0.0000000e+00 
0.0000000e+00 0.0000000e+00 0.0000000e+00 
0.0000000e+00 0.0000000e+00 0.0000000e+00 
0.0000000e+00 0.0000000e+00 0.0000000e+00 
0.0000000e+00 0.0000000e+00 0.0000000e+00 
0.0000000e+00 0.0000000e+00 0.0000000e+00 