# vtk DataFile Version 4.0
vtk output
ASCII
DATASET UNSTRUCTURED_GRID
POINTS 1105 float
0.0000000e+00 0.0000000e+00 -5.0000000e+00 
0.0000000e+00 0.0000000e+00 1.4500000e+01 
3.4700000e+00 0.0000000e+00 -5.0000000e+00 
3.4700000e+00 0.0000000e+00 1.4500000e+01 
3.4700000e+00 1.0000000e+00 -5.0000000e+00 
3.4700000e+00 1.0000000e+00 1.4500000e+01 
0.0000000e+00 1.0000000e+00 -5.0000000e+00 
0.0000000e+00 1.0000000e+00 1.4500000e+01 
3.4700000e+00 2.5000000e+00 -4.6170001e+00 
3.4700000e+00 2.5000000e+00 -4.3829999e+00 
2.5000000e+00 2.5000000e+00 -4.6170001e+00 
2.5000000e+00 2.5000000e+00 -4.3829999e+00 
2.0699999e+00 2.5000000e+00 -4.3829999e+00 
2.0699999e+00 2.5000000e+00 -4.6170001e+00 
3.4700000e+00 2.8000000e+00 -4.3829999e+00 
3.4700000e+00 2.8000000e+00 -4.6170001e+00 
2.0699999e+00 2.8000000e+00 -4.6170001e+00 
2.0699999e+00 2.8000000e+00 -4.3829999e+00 
3.4700000e+00 2.5000000e+00 -3.6170001e+00 
3.4700000e+00 2.5000000e+00 -3.3829999e+00 
2.5000000e+00 2.5000000e+00 -3.6170001e+00 
2.5000000e+00 2.5000000e+00 -3.3829999e+00 
2.0699999e+00 2.5000000e+00 -3.3829999e+00 
2.0699999e+00 2.5000000e+00 -3.6170001e+00 
3.4700000e+00 2.8000000e+00 -3.3829999e+00 
3.4700000e+00 2.8000000e+00 -3.6170001e+00 
2.0699999e+00 2.8000000e+00 -3.6170001e+00 
2.0699999e+00 2.8000000e+00 -3.3829999e+00 
3.4700000e+00 2.5000000e+00 -2.6170001e+00 
3.4700000e+00 2.5000000e+00 -2.3829999e+00 
2.5000000e+00 2.5000000e+00 -2.6170001e+00 
2.5000000e+00 2.5000000e+00 -2.3829999e+00 
2.0699999e+00 2.5000000e+00 -2.3829999e+00 
2.0699999e+00 2.5000000e+00 -2.6170001e+00 
3.4700000e+00 2.8000000e+00 -2.3829999e+00 
3.4700000e+00 2.8000000e+00 -2.6170001e+00 
2.0699999e+00 2.8000000e+00 -2.6170001e+00 
2.0699999e+00 2.8000000e+00 -2.3829999e+00 
3.4700000e+00 2.5000000e+00 -1.6170000e+00 
3.4700000e+00 2.5000000e+00 -1.3830000e+00 
2.5000000e+00 2.5000000e+00 -1.6170000e+00 
2.5000000e+00 2.5000000e+00 -1.3830000e+00 
2.0699999e+00 2.5000000e+00 -1.3830000e+00 
2.0699999e+00 2.5000000e+00 -1.6170000e+00 
3.4700000e+00 2.8000000e+00 -1.3830000e+00 
3.4700000e+00 2.8000000e+00 -1.6170000e+00 
2.0699999e+00 2.8000000e+00 -1.6170000e+00 
2.0699999e+00 2.8000000e+00 -1.3830000e+00 
3.4700000e+00 2.5000000e+00 -6.1699998e-01 
3.4700000e+00 2.5000000e+00 -3.8299999e-01 
2.5000000e+00 2.5000000e+00 -6.1699998e-01 
2.5000000e+00 2.5000000e+00 -3.8299999e-01 
2.0699999e+00 2.5000000e+00 -3.8299999e-01 
2.0699999e+00 2.5000000e+00 -6.1699998e-01 
3.4700000e+00 2.8000000e+00 -3.8299999e-01 
3.4700000e+00 2.8000000e+00 -6.1699998e-01 
2.0699999e+00 2.8000000e+00 -6.1699998e-01 
2.0699999e+00 2.8000000e+00 -3.8299999e-01 
3.4700000e+00 2.5000000e+00 3.8299999e-01 
3.4700000e+00 2.5000000e+00 6.1699998e-01 
2.5000000e+00 2.5000000e+00 3.8299999e-01 
2.5000000e+00 2.5000000e+00 6.1699998e-01 
2.0699999e+00 2.5000000e+00 6.1699998e-01 
2.0699999e+00 2.5000000e+00 3.8299999e-01 
3.4700000e+00 2.8000000e+00 6.1699998e-01 
3.4700000e+00 2.8000000e+00 3.8299999e-01 
2.0699999e+00 2.8000000e+00 3.8299999e-01 
2.0699999e+00 2.8000000e+00 6.1699998e-01 
3.4700000e+00 2.5000000e+00 1.3830000e+00 
3.4700000e+00 2.5000000e+00 1.6170000e+00 
2.5000000e+00 2.5000000e+00 1.3830000e+00 
2.5000000e+00 2.5000000e+00 1.6170000e+00 
2.0699999e+00 2.5000000e+00 1.6170000e+00 
2.0699999e+00 2.5000000e+00 1.3830000e+00 
3.4700000e+00 2.8000000e+00 1.6170000e+00 
3.4700000e+00 2.8000000e+00 1.3830000e+00 
2.0699999e+00 2.8000000e+00 1.3830000e+00 
2.0699999e+00 2.8000000e+00 1.6170000e+00 
3.4700000e+00 2.5000000e+00 2.3829999e+00 
3.4700000e+00 2.5000000e+00 2.6170001e+00 
2.5000000e+00 2.5000000e+00 2.3829999e+00 
2.5000000e+00 2.5000000e+00 2.6170001e+00 
2.0699999e+00 2.5000000e+00 2.6170001e+00 
2.0699999e+00 2.5000000e+00 2.3829999e+00 
3.4700000e+00 2.8000000e+00 2.6170001e+00 
3.4700000e+00 2.8000000e+00 2.3829999e+00 
2.0699999e+00 2.8000000e+00 2.3829999e+00 
2.0699999e+00 2.8000000e+00 2.6170001e+00 
3.4700000e+00 2.5000000e+00 3.3829999e+00 
3.4700000e+00 2.5000000e+00 3.6170001e+00 
2.5000000e+00 2.5000000e+00 3.3829999e+00 
2.5000000e+00 2.5000000e+00 3.6170001e+00 
2.0699999e+00 2.5000000e+00 3.6170001e+00 
2.0699999e+00 2.5000000e+00 3.3829999e+00 
3.4700000e+00 2.8000000e+00 3.6170001e+00 
3.4700000e+00 2.8000000e+00 3.3829999e+00 
2.0699999e+00 2.8000000e+00 3.3829999e+00 
2.0699999e+00 2.8000000e+00 3.6170001e+00 
3.4700000e+00 2.5000000e+00 4.3829999e+00 
3.4700000e+00 2.5000000e+00 4.6170001e+00 
2.5000000e+00 2.5000000e+00 4.3829999e+00 
2.5000000e+00 2.5000000e+00 4.6170001e+00 
2.0699999e+00 2.5000000e+00 4.6170001e+00 
2.0699999e+00 2.5000000e+00 4.3829999e+00 
3.4700000e+00 2.8000000e+00 4.6170001e+00 
3.4700000e+00 2.8000000e+00 4.3829999e+00 
2.0699999e+00 2.8000000e+00 4.3829999e+00 
2.0699999e+00 2.8000000e+00 4.6170001e+00 
3.4700000e+00 2.5000000e+00 5.3829999e+00 
3.4700000e+00 2.5000000e+00 5.6170001e+00 
2.5000000e+00 2.5000000e+00 5.3829999e+00 
2.5000000e+00 2.5000000e+00 5.6170001e+00 
2.0699999e+00 2.5000000e+00 5.6170001e+00 
2.0699999e+00 2.5000000e+00 5.3829999e+00 
3.4700000e+00 2.8000000e+00 5.6170001e+00 
3.4700000e+00 2.8000000e+00 5.3829999e+00 
2.0699999e+00 2.8000000e+00 5.3829999e+00 
2.0699999e+00 2.8000000e+00 5.6170001e+00 
3.4700000e+00 2.5000000e+00 6.3829999e+00 
3.4700000e+00 2.5000000e+00 6.6170001e+00 
2.5000000e+00 2.5000000e+00 6.3829999e+00 
2.5000000e+00 2.5000000e+00 6.6170001e+00 
2.0699999e+00 2.5000000e+00 6.6170001e+00 
2.0699999e+00 2.5000000e+00 6.3829999e+00 
3.4700000e+00 2.8000000e+00 6.6170001e+00 
3.4700000e+00 2.8000000e+00 6.3829999e+00 
2.0699999e+00 2.8000000e+00 6.3829999e+00 
2.0699999e+00 2.8000000e+00 6.6170001e+00 
3.4700000e+00 2.5000000e+00 7.3829999e+00 
3.4700000e+00 2.5000000e+00 7.6170001e+00 
2.5000000e+00 2.5000000e+00 7.3829999e+00 
2.5000000e+00 2.5000000e+00 7.6170001e+00 
2.0699999e+00 2.5000000e+00 7.6170001e+00 
2.0699999e+00 2.5000000e+00 7.3829999e+00 
3.4700000e+00 2.8000000e+00 7.6170001e+00 
3.4700000e+00 2.8000000e+00 7.3829999e+00 
2.0699999e+00 2.8000000e+00 7.3829999e+00 
2.0699999e+00 2.8000000e+00 7.6170001e+00 
3.4700000e+00 2.5000000e+00 8.3830004e+00 
3.4700000e+00 2.5000000e+00 8.6169996e+00 
2.5000000e+00 2.5000000e+00 8.3830004e+00 
2.5000000e+00 2.5000000e+00 8.6169996e+00 
2.0699999e+00 2.5000000e+00 8.6169996e+00 
2.0699999e+00 2.5000000e+00 8.3830004e+00 
3.4700000e+00 2.8000000e+00 8.6169996e+00 
3.4700000e+00 2.8000000e+00 8.3830004e+00 
2.0699999e+00 2.8000000e+00 8.3830004e+00 
2.0699999e+00 2.8000000e+00 8.6169996e+00 
3.4700000e+00 2.5000000e+00 9.3830004e+00 
3.4700000e+00 2.5000000e+00 9.6169996e+00 
2.5000000e+00 2.5000000e+00 9.3830004e+00 
2.5000000e+00 2.5000000e+00 9.6169996e+00 
2.0699999e+00 2.5000000e+00 9.6169996e+00 
2.0699999e+00 2.5000000e+00 9.3830004e+00 
3.4700000e+00 2.8000000e+00 9.6169996e+00 
3.4700000e+00 2.8000000e+00 9.3830004e+00 
2.0699999e+00 2.8000000e+00 9.3830004e+00 
2.0699999e+00 2.8000000e+00 9.6169996e+00 
3.4700000e+00 2.5000000e+00 1.0383000e+01 
3.4700000e+00 2.5000000e+00 1.0617000e+01 
2.5000000e+00 2.5000000e+00 1.0383000e+01 
2.5000000e+00 2.5000000e+00 1.0617000e+01 
2.0699999e+00 2.5000000e+00 1.0617000e+01 
2.0699999e+00 2.5000000e+00 1.0383000e+01 
3.4700000e+00 2.8000000e+00 1.0617000e+01 
3.4700000e+00 2.8000000e+00 1.0383000e+01 
2.0699999e+00 2.8000000e+00 1.0383000e+01 
2.0699999e+00 2.8000000e+00 1.0617000e+01 
3.4700000e+00 2.5000000e+00 1.1383000e+01 
3.4700000e+00 2.5000000e+00 1.1617000e+01 
2.5000000e+00 2.5000000e+00 1.1383000e+01 
2.5000000e+00 2.5000000e+00 1.1617000e+01 
2.0699999e+00 2.5000000e+00 1.1617000e+01 
2.0699999e+00 2.5000000e+00 1.1383000e+01 
3.4700000e+00 2.8000000e+00 1.1617000e+01 
3.4700000e+00 2.8000000e+00 1.1383000e+01 
2.0699999e+00 2.8000000e+00 1.1383000e+01 
2.0699999e+00 2.8000000e+00 1.1617000e+01 
3.4700000e+00 2.5000000e+00 1.2383000e+01 
3.4700000e+00 2.5000000e+00 1.2617000e+01 
2.5000000e+00 2.5000000e+00 1.2383000e+01 
2.5000000e+00 2.5000000e+00 1.2617000e+01 
2.0699999e+00 2.5000000e+00 1.2617000e+01 
2.0699999e+00 2.5000000e+00 1.2383000e+01 
3.4700000e+00 2.8000000e+00 1.2617000e+01 
3.4700000e+00 2.8000000e+00 1.2383000e+01 
2.0699999e+00 2.8000000e+00 1.2383000e+01 
2.0699999e+00 2.8000000e+00 1.2617000e+01 
3.4700000e+00 2.5000000e+00 1.3383000e+01 
3.4700000e+00 2.5000000e+00 1.3617000e+01 
2.5000000e+00 2.5000000e+00 1.3383000e+01 
2.5000000e+00 2.5000000e+00 1.3617000e+01 
2.0699999e+00 2.5000000e+00 1.3617000e+01 
2.0699999e+00 2.5000000e+00 1.3383000e+01 
3.4700000e+00 2.8000000e+00 1.3617000e+01 
3.4700000e+00 2.8000000e+00 1.3383000e+01 
2.0699999e+00 2.8000000e+00 1.3383000e+01 
2.0699999e+00 2.8000000e+00 1.3617000e+01 
3.4700000e+00 2.5000000e+00 -5.0000000e+00 
3.4700000e+00 2.5000000e+00 1.4383000e+01 
3.4700000e+00 2.5000000e+00 1.4500000e+01 
2.5000000e+00 2.5000000e+00 -5.0000000e+00 
2.5000000e+00 2.5000000e+00 1.4383000e+01 
2.5000000e+00 2.5000000e+00 1.4500000e+01 
0.0000000e+00 2.5000000e+00 -5.0000000e+00 
0.0000000e+00 2.5000000e+00 1.4500000e+01 
2.0699999e+00 2.5000000e+00 1.4500000e+01 
2.0699999e+00 2.5000000e+00 1.4383000e+01 
3.4700000e+00 2.5000000e+00 1.4617000e+01 
3.4700000e+00 2.8000000e+00 1.4617000e+01 
3.4700000e+00 2.8000000e+00 1.4383000e+01 
2.0699999e+00 2.8000000e+00 1.4383000e+01 
2.0699999e+00 2.5000000e+00 1.4617000e+01 
2.0699999e+00 2.8000000e+00 1.4617000e+01 
2.5000000e+00 2.8199999e+00 -4.5000000e+00 
2.5000000e+00 2.8199999e+00 -3.5000000e+00 
2.5000000e+00 2.8199999e+00 -2.5000000e+00 
2.5000000e+00 2.8199999e+00 -1.5000000e+00 
2.5000000e+00 2.8199999e+00 -5.0000000e-01 
2.5000000e+00 2.8199999e+00 5.0000000e-01 
2.5000000e+00 2.8199999e+00 1.5000000e+00 
2.5000000e+00 2.8199999e+00 2.5000000e+00 
2.5000000e+00 2.8199999e+00 3.5000000e+00 
2.5000000e+00 2.8199999e+00 4.5000000e+00 
2.5000000e+00 2.8199999e+00 5.5000000e+00 
2.5000000e+00 2.8199999e+00 6.5000000e+00 
2.5000000e+00 2.8199999e+00 7.5000000e+00 
2.5000000e+00 2.8199999e+00 8.5000000e+00 
2.5000000e+00 2.8199999e+00 9.5000000e+00 
[...]
POINT_DATA 1105
FIELD FieldData 4
DISPLACEMENT 3 1105  float
0.0000000e+00 0.0000000e+00 0.0000000e+00 
0.0000000e+00 0.0000000e+00 0.0000000e+00 
0.0000000e+00 0.0000000e+00 0.0000000e+00 
0.0000000e+00 0.0000000e+00 0.0000000e+00 
0.0000000e+00 2.3099189e-09 0.0000000e+00 
0.0000000e+00 1.5311836e-09 0.0000000e+00 
0.0000000e+00 1.3332860e-09 0.0000000e+00 
0.0000000e+00 -8.9665259e-10 0.0000000e+00 
0.0000000e+00 9.9093107e-09 0.0000000e+00 
0.0000000e+00 1.1112272e-08 0.0000000e+00 
1.0376303e-10 1.3323519e-08 -4.7538223e-10 
-1.6088405e-11 1.4516497e-08 -4.8180687e-10 
-2.0831701e-11 1.6006190e-08 -7.4688361e-10 
1.2613015e-10 1.4820240e-08 -7.4469270e-10 
1.0249972e-09 1.1120983e-08 -1.5618629e-09 
1.1367570e-09 9.9078878e-09 -1.5608380e-09 
1.1632809e-09 1.4820312e-08 -2.2647946e-09 
1.0211326e-09 1.6013388e-08 -2.2635838e-09 
0.0000000e+00 1.3395096e-08 0.0000000e+00 
0.0000000e+00 1.7335525e-08 0.0000000e+00 
3.3799452e-10 1.4169699e-08 -1.6863657e-09 
-6.2791258e-11 1.8113028e-08 -1.6649241e-09 
-1.2345258e-10 1.8332187e-08 -2.6441005e-09 
4.0243256e-10 1.4438205e-08 -2.6111893e-09 
1.0295388e-10 1.7373759e-08 -5.1507447e-09 
4.9134130e-10 1.3371513e-08 -5.1432898e-09 
5.5597438e-10 1.4423815e-08 -7.6197164e-09 
4.5884681e-11 1.8350216e-08 -7.6163378e-09 
0.0000000e+00 2.3228683e-08 0.0000000e+00 
0.0000000e+00 3.8233793e-08 0.0000000e+00 
6.7365685e-10 2.0490116e-08 -5.2365015e-09 
-6.1605598e-10 3.5351892e-08 -5.1660911e-09 
-7.5919104e-10 3.4099418e-08 -8.0856495e-09 
8.2321649e-10 1.9327940e-08 -8.0501739e-09 
-1.6293162e-09 3.8339842e-08 -1.9480295e-08 
-5.1759641e-10 2.3182990e-08 -1.9387107e-08 
-6.9183548e-11 1.9241172e-08 -2.7001686e-08 
-1.5910484e-09 3.4104815e-08 -2.7016801e-08 
0.0000000e+00 1.1821175e-07 0.0000000e+00 
0.0000000e+00 1.8091754e-07 0.0000000e+00 
1.6747013e-09 9.8650609e-08 -1.4277791e-08 
-1.8744437e-09 1.6095260e-07 -1.4079428e-08 
-2.2940245e-09 1.5222182e-07 -2.2252372e-08 
2.1303981e-09 9.0180052e-08 -2.2093682e-08 
-8.2297200e-09 1.8120342e-07 -8.1047574e-08 
-5.1930069e-09 1.1808746e-07 -8.0785647e-08 
-4.0147596e-09 8.9955506e-08 -1.0170328e-07 
-8.2424538e-09 1.5228433e-07 -1.0174050e-07 
0.0000000e+00 5.2241302e-07 0.0000000e+00 
0.0000000e+00 6.8187791e-07 0.0000000e+00 
3.7129517e-09 6.2216725e-07 -2.9372110e-08 
-3.8246109e-09 7.8079063e-07 -2.9032645e-08 
-4.3982875e-09 8.2401266e-07 -4.5751310e-08 
4.6269601e-09 6.6545346e-07 -4.5334112e-08 
2.6430481e-08 6.8248397e-07 -2.0582671e-07 
3.2676535e-08 5.2214864e-07 -2.0529171e-07 
3.4681975e-08 6.6551775e-07 -2.4844897e-07 
2.5981729e-08 8.2436912e-07 -2.4850706e-07 
0.0000000e+00 1.5528981e-06 0.0000000e+00 
0.0000000e+00 1.7460226e-06 0.0000000e+00 
1.0467149e-08 2.3873704e-06 -5.2187495e-08 
-2.3706306e-09 2.5815443e-06 -5.2034224e-08 
-3.8541272e-09 2.9429568e-06 -8.2224496e-08 
1.3662122e-08 2.7488081e-06 -8.1592113e-08 
2.5398123e-07 1.7472969e-06 -2.5105942e-07 
2.6626071e-07 1.5518840e-06 -2.5075903e-07 
2.6594978e-07 2.7508788e-06 -3.2952872e-07 
2.4970021e-07 2.9450152e-06 -3.2935773e-07 
0.0000000e+00 1.8781091e-06 0.0000000e+00 
0.0000000e+00 1.1869992e-06 0.0000000e+00 
1.5104154e-08 4.7578014e-06 -5.9413100e-08 
-1.2573658e-09 4.0680688e-06 -6.0263332e-08 
1.0666075e-09 5.3145463e-06 -1.0167862e-07 
2.5199377e-08 6.0061097e-06 -9.8858372e-08 
8.8387736e-07 1.1886855e-06 8.8218292e-07 
8.9710852e-07 1.8773115e-06 8.8321445e-07 
8.9799272e-07 6.0146854e-06 7.8638845e-07 
8.7678620e-07 5.3251761e-06 7.8680864e-07 
0.0000000e+00 -1.1175426e-05 0.0000000e+00 
0.0000000e+00 -1.7420027e-05 0.0000000e+00 
-7.7292208e-09 -3.8397202e-06 2.4559614e-07 
4.8853831e-08 -1.0070912e-05 2.4075317e-07 
6.4206837e-08 -6.8555673e-06 3.6352185e-07 
-5.2658171e-09 -6.2308294e-07 3.6475055e-07 
2.3121561e-06 -1.7424130e-05 8.0153059e-06 
2.2601391e-06 -1.1173663e-05 8.0102627e-06 
2.2445815e-06 -6.1014327e-07 8.3503401e-06 
2.3096470e-06 -6.8427726e-06 8.3521309e-06 
0.0000000e+00 -6.1744962e-05 0.0000000e+00 
0.0000000e+00 -8.0129394e-05 0.0000000e+00 
-9.6662497e-08 -7.1388466e-05 5.1527320e-07 
4.3517609e-08 -8.9779220e-05 5.2478742e-07 
2.8104218e-08 -9.3899136e-05 8.1894188e-07 
-1.3382737e-07 -7.5506556e-05 7.9444362e-07 
-2.9152125e-06 -8.0141646e-05 2.3597633e-05 
-3.0299489e-06 -6.1739156e-05 2.3587714e-05 
-3.0302992e-06 -7.5563134e-05 2.4375846e-05 
-2.8736331e-06 -9.3957373e-05 2.4374527e-05 
0.0000000e+00 -1.7716063e-04 0.0000000e+00 
0.0000000e+00 -1.9181917e-04 0.0000000e+00 
-2.8440348e-07 -2.5387056e-04 -7.5487407e-08 
-2.4746731e-07 -2.6866078e-04 4.1296788e-09 
-3.7678706e-07 -3.0179729e-04 1.2174468e-07 
-4.7171193e-07 -2.8698257e-04 1.3300411e-08 
-2.3826278e-05 -1.9182717e-04 1.8810711e-05 
-2.3830406e-05 -1.7715493e-04 1.8813240e-05 
-2.3704311e-05 -2.8731499e-04 1.9022160e-05 
-2.3633551e-05 -3.0211409e-04 1.9002033e-05 
0.0000000e+00 -2.0166961e-04 0.0000000e+00 
0.0000000e+00 -1.9363232e-04 0.0000000e+00 
-2.1138565e-07 -2.5957671e-04 -5.2317273e-07 
-3.5685144e-07 -2.5157398e-04 -4.4539016e-07 
-5.3793110e-07 -2.7649110e-04 -8.1703877e-07 
-3.9701538e-07 -2.8417309e-04 -9.2928059e-07 
-1.8067769e-05 -1.9363075e-04 -1.0308411e-05 
-1.7974813e-05 -2.0166991e-04 -1.0296832e-05 
-1.7785460e-05 -2.8462193e-04 -1.0964096e-05 
-1.7960478e-05 -2.7672059e-04 -1.0986969e-05 
0.0000000e+00 -8.6115855e-05 0.0000000e+00 
0.0000000e+00 -6.6526045e-05 0.0000000e+00 
4.0342361e-08 -8.7509790e-05 -8.2850113e-07 
-1.5337423e-07 -6.7960449e-05 -8.0980925e-07 
-1.9473200e-07 -6.8402827e-05 -1.2043422e-06 
4.6442103e-08 -8.7987137e-05 -1.2260828e-06 
-5.7331505e-07 -6.6511377e-05 -2.5148755e-05 
-3.9838889e-07 -8.6122083e-05 -2.5132915e-05 
-3.1649279e-07 -8.8030523e-05 -2.6285972e-05 
-5.3408888e-07 -6.8466594e-05 -2.6291151e-05 
0.0000000e+00 -1.4099490e-05 0.0000000e+00 
0.0000000e+00 -8.4343574e-06 0.0000000e+00 
1.1806494e-08 -8.8396891e-06 -2.9364122e-08 
8.0408142e-09 -3.1779396e-06 -3.2677793e-08 
1.6486027e-08 -8.7721668e-07 -3.3952521e-08 
1.4898665e-08 -6.5408699e-06 -3.1523015e-08 
1.6247225e-06 -8.4338517e-06 -7.2641119e-06 
1.6313263e-06 -1.4099646e-05 -7.2635926e-06 
1.6254754e-06 -6.5285749e-06 -7.2936614e-06 
1.6238174e-06 -8.6758206e-07 -7.2925991e-06 
0.0000000e+00 2.0073060e-06 0.0000000e+00 
0.0000000e+00 2.4145672e-06 0.0000000e+00 
-1.1283502e-08 4.5112110e-06 9.1550682e-08 
7.4206463e-09 4.9213231e-06 8.9452890e-08 
1.3870340e-08 6.0171087e-06 1.3258679e-07 
-8.5264151e-09 5.6032304e-06 1.3209304e-07 
7.8409812e-07 2.4126493e-06 -5.1772594e-07 
7.6344634e-07 2.0077252e-06 -5.1815317e-07 
7.5777547e-07 5.6117224e-06 -3.9671494e-07 
7.8049425e-07 6.0241505e-06 -3.9653304e-07 
0.0000000e+00 1.9581748e-06 0.0000000e+00 
0.0000000e+00 1.6535698e-06 0.0000000e+00 
-3.4894547e-09 2.5966799e-06 6.7835323e-08 
1.3500349e-08 2.2941267e-06 6.6764045e-08 
1.6830430e-08 2.5719726e-06 1.0548185e-07 
-5.2072711e-09 2.8742502e-06 1.0573978e-07 
2.0912431e-07 1.6521992e-06 3.9366165e-07 
1.9455129e-07 1.9588010e-06 3.9229707e-07 
1.9011327e-07 2.8766008e-06 4.9226520e-07 
2.1047595e-07 2.5735262e-06 4.9255470e-07 
0.0000000e+00 7.7288428e-07 0.0000000e+00 
0.0000000e+00 5.8215153e-07 0.0000000e+00 
-4.1397139e-09 7.9782620e-07 2.9532623e-08 
2.7556679e-09 6.0709402e-07 2.9185829e-08 
3.8869925e-09 6.1972156e-07 4.5482508e-08 
-5.1146603e-09 8.0951725e-07 4.5708571e-08 
1.0565735e-08 5.8147032e-07 2.4629000e-07 
3.7147210e-09 7.7329867e-07 2.4608730e-07 
3.6099708e-09 8.0982892e-07 2.8896972e-07 
1.2339268e-08 6.1947583e-07 2.8896656e-07 
0.0000000e+00 2.3309487e-07 0.0000000e+00 
0.0000000e+00 1.6508903e-07 0.0000000e+00 
-1.6040308e-09 2.0371112e-07 1.6069770e-08 
2.5638551e-09 1.3609002e-07 1.5908457e-08 
2.9859619e-09 1.2353368e-07 2.5190527e-08 
-2.1845192e-09 1.9083917e-07 2.5268747e-08 
-6.5616006e-09 1.6474891e-07 8.7964352e-08 
-1.0008268e-08 2.3324904e-07 8.7656275e-08 
-1.0925285e-08 1.9091793e-07 1.1149887e-07 
-6.0332530e-09 1.2325474e-07 1.1154365e-07 
0.0000000e+00 5.6883529e-08 0.0000000e+00 
0.0000000e+00 3.3619212e-08 0.0000000e+00 
-5.8450444e-10 6.3318367e-08 8.8795060e-09 
1.5394818e-09 4.0347778e-08 8.7799563e-09 
1.7095050e-09 4.3185334e-08 1.3332188e-08 
-7.8060541e-10 6.6104036e-08 1.3342871e-08 
3.4598679e-09 3.3436958e-08 3.0242660e-08 
1.5411786e-09 5.6966890e-08 3.0063916e-08 
1.2015855e-09 6.6112108e-08 4.2660012e-08 
3.6228733e-09 4.3135699e-08 4.2689496e-08 
0.0000000e+00 2.1767624e-08 0.0000000e+00 
0.0000000e+00 1.7583391e-08 0.0000000e+00 
-2.1769565e-10 2.3695057e-08 2.8197222e-09 
5.1776988e-10 1.9583211e-08 2.7836262e-09 
6.2934463e-10 2.0454507e-08 4.4613842e-09 
-2.8386307e-10 2.4526905e-08 4.4477515e-09 
1.0588582e-09 1.7523570e-08 5.5012874e-09 
4.5330026e-10 2.1795275e-08 5.4454321e-09 
3.1921710e-10 2.4555398e-08 9.6631050e-09 
1.1925849e-09 2.0429866e-08 9.6723118e-09 
0.0000000e+00 9.0167376e-09 0.0000000e+00 
0.0000000e+00 1.4950546e-08 0.0000000e+00 
0.0000000e+00 1.4160610e-08 0.0000000e+00 
0.0000000e+00 1.2905627e-08 0.0000000e+00 
0.0000000e+00 1.7205185e-08 0.0000000e+00 
0.0000000e+00 1.6415544e-08 0.0000000e+00 
0.0000000e+00 9.1071604e-09 0.0000000e+00 
0.0000000e+00 8.8278069e-09 0.0000000e+00 
0.0000000e+00 1.7424377e-08 0.0000000e+00 
0.0000000e+00 1.8213667e-08 0.0000000e+00 
2.7563284e-13 1.3370179e-08 1.2791344e-14 
6.9723283e-10 1.3370450e-08 2.0260509e-09 
6.9711897e-10 1.4950594e-08 2.0259383e-09 
7.0144501e-10 1.8210443e-08 2.0245818e-09 
-9.8337983e-13 1.6632537e-08 2.2502234e-13 
7.0147010e-10 1.6632223e-08 2.0244488e-09 
0.0000000e+00 1.3936757e-08 0.0000000e+00 
0.0000000e+00 1.5936456e-08 0.0000000e+00 
0.0000000e+00 2.6694751e-08 0.0000000e+00 
0.0000000e+00 1.2707341e-07 0.0000000e+00 
0.0000000e+00 7.0380497e-07 0.0000000e+00 
0.0000000e+00 2.5209249e-06 0.0000000e+00 
0.0000000e+00 4.5763163e-06 0.0000000e+00 
0.0000000e+00 -6.7320416e-06 0.0000000e+00 
0.0000000e+00 -8.1727674e-05 0.0000000e+00 
0.0000000e+00 -2.6738562e-04 0.0000000e+00 
0.0000000e+00 -2.6207446e-04 0.0000000e+00 
0.0000000e+00 -7.8697129e-05 0.0000000e+00 
0.0000000e+00 -5.8129422e-06 0.0000000e+00 
0.0000000e+00 4.8795937e-06 0.0000000e+00 
0.0000000e+00 2.4867811e-06 0.0000000e+00 
0.0000000e+00 7.0232119e-07 0.0000000e+00 
0.0000000e+00 1.6714557e-07 0.0000000e+00 
0.0000000e+00 5.0846541e-08 0.0000000e+00 
0.0000000e+00 2.1619403e-08 0.0000000e+00 
0.0000000e+00 1.6338301e-08 0.0000000e+00 
1.0898960e-09 1.3921076e-08 -2.0156183e-09 
2.8375435e-10 1.6113397e-08 -6.7408670e-09 
-8.5214358e-10 2.7844806e-08 -2.4331497e-08 
-6.1855432e-09 1.2963714e-07 -9.4305818e-08 
3.0329637e-08 7.0145524e-07 -2.3314435e-07 
2.5800907e-07 2.4853725e-06 -3.0140407e-07 
8.8961980e-07 4.4184776e-06 8.2280803e-07 
2.2796048e-06 -6.9464513e-06 8.2353226e-06 
-2.9648543e-06 -8.0631835e-05 2.4098856e-05 
-2.3745344e-05 -2.6152137e-04 1.8904546e-05 
-1.7943894e-05 -2.5584287e-04 -1.0718513e-05 
-4.4422663e-07 -7.7770193e-05 -2.5896352e-05 
1.6271956e-06 -6.0009479e-06 -7.2879666e-06 
7.7171302e-07 4.7239978e-06 -4.3633398e-07 
2.0069774e-07 2.4472670e-06 4.5670484e-07 
8.1803657e-09 7.0270664e-07 2.7395060e-07 
-8.4946699e-09 1.6980573e-07 1.0298388e-07 
2.4095614e-09 5.1786945e-08 3.8362394e-08 
7.4539463e-10 2.1645915e-08 8.1403542e-09 
6.9973910e-10 1.6411976e-08 2.0254596e-09 
0.0000000e+00 -3.3442013e-04 0.0000000e+00 
0.0000000e+00 0.0000000e+00 0.0000000e+00 
0.0000000e+00 0.0000000e+00 0.0000000e+00 
0.0000000e+00 0.0000000e+00 0.0000000e+00 
0.0000000e+00 0.0000000e+00 0.0000000e+00 
0.0000000e+00 0.0000000e+00 0.0000000e+00 
0.0000000e+00 0.0000000e+00 0.0000000e+00 
0.0000000e+00 0.0000000e+00 0.0000000e+00 
0.0000000e+00 0.0000000e+00 0.0000000e+00 
0.0000000e+00 0.0000000e+00 0.0000000e+00 
0.0000000e+00 0.0000000e+00 0.0000000e+00 
0.0000000e+00 0.0000000e+00 0.0000000e+00 
0.0000000e+00 0.0000000e+00 0.0000000e+00 
0.0000000e+00 0.0000000e+00 0.0000000e+00 
0.0000000e+00 0.0000000e+00 0.0000000e+00 
0.0000000e+00 0.0000000e+00 0.0000000e+00 
0.0000000e+00 0.0000000e+00 0.0000000e+00 
0.0000000e+00 0.0000000e+00 0.0000000e+00 
0.0000000e+00 0.0000000e+00 0.0000000e+00 
0.0000000e+00 0.0000000e+00 0.0000000e+00 
0.0000000e+00 0.0000000e+00 0.0000000e+00 
0.0000000e+00 0.0000000e+00 0.0000000e+00 
0.0000000e+00 0.0000000e+00 0.0000000e+00 
0.0000000e+00 0.0000000e+00 0.0000000e+00 
0.0000000e+00 0.0000000e+00 0.0000000e+00 
0.0000000e+00 0.0000000e+00 0.0000000e+00 
0.0000000e+00 0.0000000e+00 0.0000000e+00 
0.0000000e+00 0.0000000e+00 0.0000000e+00 
0.0000000e+00 0.0000000e+00 0.0000000e+00 
0.0000000e+00 0.0000000e+00 0.0000000e+00 
0.0000000e+00 0.0000000e+00 0.0000000e+00 
0.0000000e+00 0.0000000e+00 0.0000000e+00 
0.0000000e+00 0.0000000e+00 0.0000000e+00 
0.0000000e+00 0.0000000e+00 0.0000000e+00 
0.0000000e+00 0.0000000e+00 0.0000000e+00 
0.0000000e+00 0.0000000e+00 0.0000000e+00 
0.0000000e+00 0.0000000e+00 0.0000000e+00 
0.0000000e+00 0.0000000e+00 0.0000000e+00 
0.0000000e+00 0.0000000e+00 0.0000000e+00 
0.0000000e+00 0.0000000e+00 0.0000000e+00 
0.0000000e+00 0.0000000e+00 0.0000000e+00 
0.0000000e+00 0.0000000e+00 0.0000000e+00 
0.0000000e+00 0.0000000e+00 0.0000000e+00 
0.0000000e+00 0.0000000e+00 0.0000000e+00 
0.0000000e+00 0.0000000e+00 0.0000000e+00 
0.0000000e+00 2.7820162e-09 0.0000000e+00 
0.0000000e+00 3.1228098e-09 0.0000000e+00 
0.0000000e+00 3.3172231e-08 0.0000000e+00 
0.0000000e+00 1.2382816e-07 0.0000000e+00 
0.0000000e+00 2.9789297e-07 0.0000000e+00 
0.0000000e+00 3.1977339e-07 0.0000000e+00 
0.0000000e+00 -8.7257956e-07 0.0000000e+00 
0.0000000e+00 -1.1058897e-05 0.0000000e+00 
0.0000000e+00 -3.2148258e-05 0.0000000e+00 
0.0000000e+00 -5.0270388e-05 0.0000000e+00 
0.0000000e+00 -4.2621348e-05 0.0000000e+00 
0.0000000e+00 -1.7832277e-05 0.0000000e+00 
0.0000000e+00 -3.7661430e-06 0.0000000e+00 
0.0000000e+00 -1.1511587e-07 0.0000000e+00 
0.0000000e+00 4.2505781e-07 0.0000000e+00 
0.0000000e+00 2.0504596e-07 0.0000000e+00 
0.0000000e+00 4.5944777e-08 0.0000000e+00 
0.0000000e+00 1.4841206e-08 0.0000000e+00 
0.0000000e+00 6.1467795e-09 0.0000000e+00 
0.0000000e+00 1.5273685e-09 0.0000000e+00 
0.0000000e+00 7.8326394e-09 0.0000000e+00 
0.0000000e+00 1.1915746e-08 0.0000000e+00 
0.0000000e+00 5.4846218e-08 0.0000000e+00 
0.0000000e+00 1.0095730e-07 0.0000000e+00 
0.0000000e+00 1.5150613e-07 0.0000000e+00 
0.0000000e+00 -1.2548895e-07 0.0000000e+00 
0.0000000e+00 -1.0390904e-06 0.0000000e+00 
0.0000000e+00 -3.1955724e-06 0.0000000e+00 
0.0000000e+00 -5.9225390e-06 0.0000000e+00 
0.0000000e+00 -4.8338161e-06 0.0000000e+00 
0.0000000e+00 -1.9599345e-06 0.0000000e+00 
0.0000000e+00 -4.1307965e-07 0.0000000e+00 
0.0000000e+00 3.9453720e-08 0.0000000e+00 
0.0000000e+00 1.1453398e-07 0.0000000e+00 
0.0000000e+00 5.6570954e-08 0.0000000e+00 
0.0000000e+00 3.2994958e-08 0.0000000e+00 
0.0000000e+00 9.0152081e-09 0.0000000e+00 
0.0000000e+00 2.5412765e-09 0.0000000e+00 
0.0000000e+00 1.6027015e-09 0.0000000e+00 
0.0000000e+00 1.4334893e-09 0.0000000e+00 
0.0000000e+00 1.5125454e-09 0.0000000e+00 
0.0000000e+00 -8.2802470e-10 0.0000000e+00 
0.0000000e+00 -1.9503377e-09 0.0000000e+00 
0.0000000e+00 -8.8774310e-10 0.0000000e+00 
1.1407104e-09 1.2377603e-08 -1.8670545e-09 
1.0343577e-09 1.3576088e-08 -1.8653776e-09 
4.3942056e-10 1.3965547e-08 -6.2169563e-09 
9.5320550e-11 1.7916520e-08 -6.2131686e-09 
-2.7653965e-10 2.1242272e-08 -2.2728173e-08 
-1.4959236e-09 3.6122611e-08 -2.2688614e-08 
-4.6086952e-09 1.0405324e-07 -8.9876302e-08 
-7.9472340e-09 1.6640993e-07 -8.9775220e-08 
3.3724241e-08 5.9452447e-07 -2.2398844e-07 
2.7012295e-08 7.5326142e-07 -2.2380310e-07 
2.6361917e-07 2.1567885e-06 -2.8454801e-07 
2.5285877e-07 2.3506777e-06 -2.8451680e-07 
8.9911663e-07 3.9619968e-06 8.4406099e-07 
8.8427691e-07 3.2714329e-06 8.4442661e-07 
2.2548081e-06 -5.8730088e-06 8.1650242e-06 
2.3102964e-06 -1.2107394e-05 8.1636008e-06 
-3.0382225e-06 -6.8746129e-05 2.3931178e-05 
-2.9208866e-06 -8.7118235e-05 2.3927047e-05 
-2.3818257e-05 -2.3275480e-04 1.8841605e-05 
-2.3834189e-05 -2.4742982e-04 1.8831601e-05 
-1.7963283e-05 -2.4364701e-04 -1.0571402e-05 
-1.8072429e-05 -2.3564658e-04 -1.0567390e-05 
-3.6886686e-07 -8.7155495e-05 -2.5657722e-05 
-5.5679584e-07 -6.7596033e-05 -2.5651771e-05 
1.6328559e-06 -1.0297887e-05 -7.2840094e-06 
1.6269522e-06 -4.6348068e-06 -7.2838989e-06 
7.6560400e-07 3.8188582e-06 -4.6053796e-07 
7.8349268e-07 4.2270563e-06 -4.6078745e-07 
1.9328891e-07 2.4204110e-06 4.3536329e-07 
2.0915674e-07 2.1175267e-06 4.3499253e-07 
5.4001186e-09 7.9084077e-07 2.6492950e-07 
1.1354684e-08 5.9996137e-07 2.6491298e-07 
-1.0385300e-08 2.1183337e-07 9.7897662e-08 
-6.6838894e-09 1.4420129e-07 9.7804360e-08 
1.4032160e-09 6.1557557e-08 3.5745174e-08 
3.4485999e-09 3.8538296e-08 3.5697255e-08 
4.0769660e-10 2.3171060e-08 7.2344308e-09 
1.0618051e-09 1.9049201e-08 7.2195316e-09 
0.0000000e+00 7.1275790e-09 0.0000000e+00 
0.0000000e+00 1.0667857e-08 0.0000000e+00 
0.0000000e+00 1.5551693e-08 0.0000000e+00 
0.0000000e+00 1.5454217e-08 0.0000000e+00 
0.0000000e+00 1.3592174e-08 0.0000000e+00 
0.0000000e+00 2.6336016e-08 0.0000000e+00 
0.0000000e+00 6.0712964e-08 0.0000000e+00 
0.0000000e+00 1.2819731e-07 0.0000000e+00 
0.0000000e+00 3.5804294e-07 0.0000000e+00 
0.0000000e+00 6.0483228e-07 0.0000000e+00 
0.0000000e+00 5.9707719e-07 0.0000000e+00 
0.0000000e+00 1.9728991e-07 0.0000000e+00 
0.0000000e+00 -4.6252831e-06 0.0000000e+00 
0.0000000e+00 -1.0454840e-05 0.0000000e+00 
0.0000000e+00 -7.9267184e-06 0.0000000e+00 
0.0000000e+00 -2.7054371e-06 0.0000000e+00 
0.0000000e+00 -4.7638315e-07 0.0000000e+00 
0.0000000e+00 9.5724909e-07 0.0000000e+00 
0.0000000e+00 5.1745803e-07 0.0000000e+00 
0.0000000e+00 2.4480741e-07 0.0000000e+00 
0.0000000e+00 1.3972644e-07 0.0000000e+00 
0.0000000e+00 3.2335336e-08 0.0000000e+00 
0.0000000e+00 1.9013012e-08 0.0000000e+00 
1.3758673e-09 4.2330526e-09 5.4346224e-08 
-9.5940020e-09 3.7493515e-09 4.6333600e-08 
0.0000000e+00 5.9682561e-09 0.0000000e+00 
0.0000000e+00 3.2757279e-09 0.0000000e+00 
6.9868250e-10 1.6575779e-08 2.0259396e-09 
1.3783750e-13 1.4996514e-08 4.6794152e-14 
6.9851136e-10 1.4995624e-08 2.0261146e-09 
0.0000000e+00 0.0000000e+00 0.0000000e+00 
0.0000000e+00 0.0000000e+00 0.0000000e+00 
0.0000000e+00 0.0000000e+00 0.0000000e+00 
0.0000000e+00 0.0000000e+00 0.0000000e+00 
0.0000000e+00 0.0000000e+00 0.0000000e+00 
0.0000000e+00 0.0000000e+00 0.0000000e+00 
0.0000000e+00 0.0000000e+00 0.0000000e+00 
0.0000000e+00 0.0000000e+00 0.0000000e+00 
0.0000000e+00 0.0000000e+00 0.0000000e+00 
0.0000000e+00 0.0000000e+00 0.0000000e+00 
0.0000000e+00 0.0000000e+00 0.0000000e+00 
0.0000000e+00 0.0000000e+00 0.0000000e+00 
0.0000000e+00 0.0000000e+00 0.0000000e+00 
0.0000000e+00 0.0000000e+00 0.0000000e+00 
0.0000000e+00 0.0000000e+00 0.0000000e+00 
0.0000000e+00 0.0000000e+00 0.0000000e+00 
0.0000000e+00 0.0000000e+00 0.0000000e+00 
0.0000000e+00 0.0000000e+00 0.0000000e+00 
0.0000000e+00 0.0000000e+00 0.0000000e+00 
0.0000000e+00 0.0000000e+00 0.0000000e+00 
0.0000000e+00 0.0000000e+00 0.0000000e+00 
0.0000000e+00 0.0000000e+00 0.0000000e+00 
0.0000000e+00 0.0000000e+00 0.0000000e+00 
0.0000000e+00 0.0000000e+00 0.0000000e+00 
0.0000000e+00 0.0000000e+00 0.0000000e+00 
0.0000000e+00 0.0000000e+00 0.0000000e+00 
0.0000000e+00 0.0000000e+00 0.0000000e+00 
0.0000000e+00 0.0000000e+00 0.0000000e+00 
0.0000000e+00 0.0000000e+00 0.0000000e+00 
0.0000000e+00 0.0000000e+00 0.0000000e+00 
0.0000000e+00 0.0000000e+00 0.0000000e+00 
0.0000000e+00 0.0000000e+00 0.0000000e+00 
0.0000000e+00 0.0000000e+00 0.0000000e+00 
0.0000000e+00 0.0000000e+00 0.0000000e+00 
0.0000000e+00 0.0000000e+00 0.0000000e+00 
0.0000000e+00 0.0000000e+00 0.0000000e+00 
0.0000000e+00 0.0000000e+00 0.0000000e+00 
0.0000000e+00 0.0000000e+00 0.0000000e+00 
0.0000000e+00 0.0000000e+00 0.0000000e+00 
0.0000000e+00 0.0000000e+00 0.0000000e+00 
0.0000000e+00 0.0000000e+00 0.0000000e+00 
0.0000000e+00 0.0000000e+00 0.0000000e+00 
0.0000000e+00 0.0000000e+00 0.0000000e+00 
0.0000000e+00 0.0000000e+00 0.0000000e+00 
0.0000000e+00 0.0000000e+00 0.0000000e+00 