# vtk DataFile Version 4.0
vtk output
ASCII
DATASET UNSTRUCTURED_GRID
POINTS 39 float
0.0000000e+00 0.0000000e+00 0.0000000e+00 
0.0000000e+00 0.0000000e+00 1.0000000e+01 
5.0000000e+00 0.0000000e+00 0.0000000e+00 
5.0000000e+00 0.0000000e+00 1.0000000e+01 
5.0000000e+00 1.0000000e+00 0.0000000e+00 
5.0000000e+00 1.0000000e+00 1.0000000e+01 
0.0000000e+00 1.0000000e+00 0.0000000e+00 
0.0000000e+00 1.0000000e+00 1.0000000e+01 
5.0000000e+00 2.0000000e+00 0.0000000e+00 
5.0000000e+00 2.0000000e+00 1.0000000e+01 
3.0000000e+00 2.0000000e+00 0.0000000e+00 
3.0000000e+00 2.0000000e+00 1.0000000e+01 
0.0000000e+00 2.0000000e+00 0.0000000e+00 
0.0000000e+00 2.0000000e+00 1.0000000e+01 
1.5000000e+00 3.0000000e+00 0.0000000e+00 
1.5000000e+00 3.0000000e+00 1.0000000e+01 
7.5000000e-01 3.0000000e+00 0.0000000e+00 
7.5000000e-01 3.0000000e+00 1.0000000e+01 
0.0000000e+00 3.0000000e+00 0.0000000e+00 
0.0000000e+00 3.0000000e+00 1.0000000e+01 
0.0000000e+00 0.0000000e+00 5.0000000e+00 
5.0000000e+00 0.0000000e+00 5.0000000e+00 
5.0000000e+00 1.0000000e+00 5.0000000e+00 
0.0000000e+00 1.0000000e+00 5.0000000e+00 
5.0000000e+00 2.0000000e+00 5.0000000e+00 
3.0000000e+00 2.0000000e+00 5.0000000e+00 
0.0000000e+00 2.0000000e+00 5.0000000e+00 
1.5000000e+00 3.0000000e+00 5.0000000e+00 
7.5000000e-01 3.0000000e+00 5.0000000e+00 
0.0000000e+00 3.0000000e+00 5.0000000e+00 
2.5000000e+00 0.0000000e+00 2.5000000e+00 
2.5000000e+00 0.0000000e+00 7.5000000e+00 
2.5000000e+00 1.0000000e+00 2.5000000e+00 
2.5000000e+00 1.0000000e+00 7.5000000e+00 
4.0000000e+00 2.0000000e+00 2.5000000e+00 
4.0000000e+00 2.0000000e+00 7.5000000e+00 
1.5000000e+00 2.0000000e+00 7.5000000e+00 
1.5000000e+00 2.0000000e+00 2.5000000e+00 
2.5000000e+00 5.0000000e-01 8.3333331e-01 

CELLS 89 445
4 2 6 0 38
4 4 6 2 38
4 0 32 30 38
4 32 4 30 38
4 6 32 0 38
4 20 33 1 31
4 20 21 33 31
4 1 33 3 31
4 3 33 21 31
4 22 23 32 30
4 0 32 23 30
4 4 22 32 30
4 30 4 2 38
4 0 30 23 20
4 1 23 33 20
4 5 21 33 22
4 33 7 23 1
4 33 1 3 7
4 33 7 3 5
4 21 5 33 3
4 23 6 32 0
4 21 30 4 2
4 30 21 4 22
4 6 4 32 38
4 30 2 0 38
4 20 21 22 33
4 22 21 20 30
4 22 23 20 33
4 20 23 22 30
4 9 22 35 24
4 22 8 34 24
4 9 22 5 35
4 22 8 4 34
4 10 25 37 32
4 25 11 36 33
4 22 4 32 34
4 5 22 33 35
4 7 5 33 11
4 4 6 32 10
4 22 23 33 25
4 23 22 32 25
4 6 23 32 37
4 7 33 23 36
4 6 26 37 12
4 26 6 37 23
4 36 26 23 7
4 26 36 13 7
4 33 36 7 11
4 32 6 37 10
4 33 23 36 25
4 37 23 32 25
4 10 34 32 4
4 5 33 11 35
4 25 33 22 35
4 25 22 32 34
4 11 13 36 7
4 12 10 37 6
4 25 26 37 23
4 26 25 36 23
4 11 9 5 35
4 34 10 8 4
4 22 25 24 34
4 24 25 22 35
4 25 11 33 35
4 10 25 32 34
4 25 14 10 37
4 15 25 11 36
4 25 14 37 27
4 15 25 36 27
4 28 15 36 27
4 11 13 15 36
4 12 10 14 37
4 26 25 27 36
4 26 25 37 27
4 36 26 28 27
4 18 12 28 29
4 26 28 12 29
4 19 28 13 29
4 26 13 28 29
4 26 28 13 36
4 28 13 17 19
4 28 16 12 18
4 12 26 27 28
4 27 26 12 37
4 27 16 12 28
4 28 15 13 36
4 28 13 15 17
4 27 14 12 16
4 12 14 27 37

CELL_TYPES 89
10
10
10
10
10
10
10
10
10
10
10
10
10
10
10
10
10
10
10
10
10
10
10
10
10
10
10
10
10
10
10
10
10
10
10
10
10
10
10
10
10
10
10
10
10
10
10
10
10
10
10
10
10
10
10
10
10
10
10
10
10
10
10
10
10
10
10
10
10
10
10
10
10
10
10
10
10
10
10
10
10
10
10
10
10
10
10
10
10
POINT_DATA 39
FIELD FieldData 2
DISPLACEMENT 3 39  float
0.0000000e+00 0.0000000e+00 0.0000000e+00 
0.0000000e+00 0.0000000e+00 0.0000000e+00 
0.0000000e+00 0.0000000e+00 0.0000000e+00 
0.0000000e+00 0.0000000e+00 0.0000000e+00 
0.0000000e+00 -3.9066109e-10 0.0000000e+00 
0.0000000e+00 1.1001371e-09 0.0000000e+00 
0.0000000e+00 -1.0464886e-08 0.0000000e+00 
0.0000000e+00 3.2122494e-10 0.0000000e+00 
0.0000000e+00 -1.0544025e-09 0.0000000e+00 
0.0000000e+00 9.4316444e-10 0.0000000e+00 
0.0000000e+00 -5.1285327e-09 0.0000000e+00 
0.0000000e+00 4.2978860e-09 0.0000000e+00 
0.0000000e+00 -2.4141141e-08 0.0000000e+00 
0.0000000e+00 2.0268363e-09 0.0000000e+00 
0.0000000e+00 -2.1538293e-08 0.0000000e+00 
-2.8604539e-09 4.7809792e-09 -2.1609303e-09 
0.0000000e+00 -3.7318479e-08 0.0000000e+00 
0.0000000e+00 3.5760570e-09 0.0000000e+00 
0.0000000e+00 -2.7611280e-08 0.0000000e+00 
0.0000000e+00 2.0713711e-09 0.0000000e+00 
0.0000000e+00 0.0000000e+00 0.0000000e+00 
0.0000000e+00 0.0000000e+00 0.0000000e+00 
0.0000000e+00 -3.0296214e-09 0.0000000e+00 
0.0000000e+00 -1.6368661e-08 0.0000000e+00 
0.0000000e+00 -3.2717353e-09 0.0000000e+00 
3.5733225e-09 -1.3887073e-08 4.4224485e-10 
0.0000000e+00 -4.1181970e-08 0.0000000e+00 
3.3724918e-09 -4.8973327e-08 -1.2066186e-09 
0.0000000e+00 -7.2646841e-08 0.0000000e+00 
0.0000000e+00 -5.8865570e-08 0.0000000e+00 
0.0000000e+00 0.0000000e+00 0.0000000e+00 
0.0000000e+00 0.0000000e+00 0.0000000e+00 
2.7125187e-09 -7.3107445e-09 -5.2140908e-10 
2.9565890e-09 -4.5738804e-09 2.4631162e-09 
5.4092242e-10 -4.1091242e-09 1.3729068e-11 
6.6650657e-10 -2.2323670e-09 3.0492928e-10 
5.2866191e-09 -1.4801961e-08 3.1594907e-09 
3.9305843e-09 -2.2675692e-08 -1.4549104e-09 
9.6731811e-10 -3.1513789e-09 -3.0298536e-10 
TOTAL_DISPLACEMENT 3 39  float
0.0000000e+00 0.0000000e+00 0.0000000e+00 
0.0000000e+00 0.0000000e+00 0.0000000e+00 
0.0000000e+00 0.0000000e+00 0.0000000e+00 
0.0000000e+00 0.0000000e+00 0.0000000e+00 
0.0000000e+00 0.0000000e+00 0.0000000e+00 
0.0000000e+00 0.0000000e+00 0.0000000e+00 
0.0000000e+00 0.0000000e+00 0.0000000e+00 
0.0000000e+00 0.0000000e+00 0.0000000e+00 
0.0000000e+00 0.0000000e+00 0.0000000e+00 
0.0000000e+00 0.0000000e+00 0.0000000e+00 
0.0000000e+00 0.0000000e+00 0.0000000e+00 
0.0000000e+00 0.0000000e+00 0.0000000e+00 
0.0000000e+00 0.0000000e+00 0.0000000e+00 
0.0000000e+00 0.0000000e+00 0.0000000e+00 
0.0000000e+00 0.0000000e+00 0.0000000e+00 
0.0000000e+00 0.0000000e+00 0.0000000e+00 
0.0000000e+00 0.0000000e+00 0.0000000e+00 
0.0000000e+00 0.0000000e+00 0.0000000e+00 
0.0000000e+00 0.0000000e+00 0.0000000e+00 
0.0000000e+00 0.0000000e+00 0.0000000e+00 
0.0000000e+00 0.0000000e+00 0.0000000e+00 
0.0000000e+00 0.0000000e+00 0.0000000e+00 
0.0000000e+00 0.0000000e+00 0.0000000e+00 
0.0000000e+00 0.0000000e+00 0.0000000e+00 
0.0000000e+00 0.0000000e+00 0.0000000e+00 
0.0000000e+00 0.0000000e+00 0.0000000e+00 
0.0000000e+00 0.0000000e+00 0.0000000e+00 
0.0000000e+00 0.0000000e+00 0.0000000e+00 
0.0000000e+00 0.0000000e+00 0.0000000e+00 
0.0000000e+00 0.0000000e+00 0.0000000e+00 
0.0000000e+00 0.0000000e+00 0.0000000e+00 
0.0000000e+00 0.0000000e+00 0.0000000e+00 
0.0000000e+00 0.0000000e+00 0.0000000e+00 
0.0000000e+00 0.0000000e+00 0.0000000e+00 
0.0000000e+00 0.0000000e+00 0.0000000e+00 
0.0000000e+00 0.0000000e+00 0.0000000e+00 
0.0000000e+00 0.0000000e+00 0.0000000e+00 
0.0000000e+00 0.0000000e+00 0.0000000e+00 
0.0000000e+00 0.0000000e+00 0.0000000e+00 
CELL_DATA 89
FIELD FieldData 0
