# vtk DataFile Version 4.0
vtk output
ASCII
DATASET UNSTRUCTURED_GRID
POINTS 39 float
0.0000000e+00 0.0000000e+00 0.0000000e+00 
0.0000000e+00 0.0000000e+00 1.0000000e+01 
5.0000000e+00 0.0000000e+00 0.0000000e+00 
5.0000000e+00 0.0000000e+00 1.0000000e+01 
5.0000000e+00 1.0000000e+00 0.0000000e+00 
5.0000000e+00 1.0000000e+00 1.0000000e+01 
0.0000000e+00 1.0000000e+00 0.0000000e+00 
0.0000000e+00 1.0000000e+00 1.0000000e+01 
5.0000000e+00 2.0000000e+00 0.0000000e+00 
5.0000000e+00 2.0000000e+00 1.0000000e+01 
3.0000000e+00 2.0000000e+00 0.0000000e+00 
3.0000000e+00 2.0000000e+00 1.0000000e+01 
0.0000000e+00 2.0000000e+00 0.0000000e+00 
0.0000000e+00 2.0000000e+00 1.0000000e+01 
1.5000000e+00 3.0000000e+00 0.0000000e+00 
1.5000000e+00 3.0000000e+00 1.0000000e+01 
7.5000000e-01 3.0000000e+00 0.0000000e+00 
7.5000000e-01 3.0000000e+00 1.0000000e+01 
0.0000000e+00 3.0000000e+00 0.0000000e+00 
0.0000000e+00 3.0000000e+00 1.0000000e+01 
0.0000000e+00 0.0000000e+00 5.0000000e+00 
5.0000000e+00 0.0000000e+00 5.0000000e+00 
5.0000000e+00 1.0000000e+00 5.0000000e+00 
0.0000000e+00 1.0000000e+00 5.0000000e+00 
5.0000000e+00 2.0000000e+00 5.0000000e+00 
3.0000000e+00 2.0000000e+00 5.0000000e+00 
0.0000000e+00 2.0000000e+00 5.0000000e+00 
1.5000000e+00 3.0000000e+00 5.0000000e+00 
7.5000000e-01 3.0000000e+00 5.0000000e+00 
0.0000000e+00 3.0000000e+00 5.0000000e+00 
2.5000000e+00 0.0000000e+00 2.5000000e+00 
2.5000000e+00 0.0000000e+00 7.5000000e+00 
2.5000000e+00 1.0000000e+00 2.5000000e+00 
2.5000000e+00 1.0000000e+00 7.5000000e+00 
4.0000000e+00 2.0000000e+00 2.5000000e+00 
4.0000000e+00 2.0000000e+00 7.5000000e+00 
1.5000000e+00 2.0000000e+00 7.5000000e+00 
1.5000000e+00 2.0000000e+00 2.5000000e+00 
2.5000000e+00 5.0000000e-01 8.3333331e-01 

CELLS 89 445
4 2 6 0 38
4 4 6 2 38
4 0 32 30 38
4 32 4 30 38
4 6 32 0 38
4 20 33 1 31
4 20 21 33 31
4 1 33 3 31
4 3 33 21 31
4 22 23 32 30
4 0 32 23 30
4 4 22 32 30
4 30 4 2 38
4 0 30 23 20
4 1 23 33 20
4 5 21 33 22
4 33 7 23 1
4 33 1 3 7
4 33 7 3 5
4 21 5 33 3
4 23 6 32 0
4 21 30 4 2
4 30 21 4 22
4 6 4 32 38
4 30 2 0 38
4 20 21 22 33
4 22 21 20 30
4 22 23 20 33
4 20 23 22 30
4 9 22 35 24
4 22 8 34 24
4 9 22 5 35
4 22 8 4 34
4 10 25 37 32
4 25 11 36 33
4 22 4 32 34
4 5 22 33 35
4 7 5 33 11
4 4 6 32 10
4 22 23 33 25
4 23 22 32 25
4 6 23 32 37
4 7 33 23 36
4 6 26 37 12
4 26 6 37 23
4 36 26 23 7
4 26 36 13 7
4 33 36 7 11
4 32 6 37 10
4 33 23 36 25
4 37 23 32 25
4 10 34 32 4
4 5 33 11 35
4 25 33 22 35
4 25 22 32 34
4 11 13 36 7
4 12 10 37 6
4 25 26 37 23
4 26 25 36 23
4 11 9 5 35
4 34 10 8 4
4 22 25 24 34
4 24 25 22 35
4 25 11 33 35
4 10 25 32 34
4 25 14 10 37
4 15 25 11 36
4 25 14 37 27
4 15 25 36 27
4 28 15 36 27
4 11 13 15 36
4 12 10 14 37
4 26 25 27 36
4 26 25 37 27
4 36 26 28 27
4 18 12 28 29
4 26 28 12 29
4 19 28 13 29
4 26 13 28 29
4 26 28 13 36
4 28 13 17 19
4 28 16 12 18
4 12 26 27 28
4 27 26 12 37
4 27 16 12 28
4 28 15 13 36
4 28 13 15 17
4 27 14 12 16
4 12 14 27 37

CELL_TYPES 89
10
10
10
10
10
10
10
10
10
10
10
10
10
10
10
10
10
10
10
10
10
10
10
10
10
10
10
10
10
10
10
10
10
10
10
10
10
10
10
10
10
10
10
10
10
10
10
10
10
10
10
10
10
10
10
10
10
10
10
10
10
10
10
10
10
10
10
10
10
10
10
10
10
10
10
10
10
10
10
10
10
10
10
10
10
10
10
10
10
POINT_DATA 39
FIELD FieldData 2
DISPLACEMENT 3 39  float
0.0000000e+00 0.0000000e+00 0.0000000e+00 
0.0000000e+00 0.0000000e+00 0.0000000e+00 
0.0000000e+00 0.0000000e+00 0.0000000e+00 
0.0000000e+00 0.0000000e+00 0.0000000e+00 
0.0000000e+00 -1.2579920e-09 0.0000000e+00 
0.0000000e+00 8.5550433e-10 0.0000000e+00 
0.0000000e+00 -1.7023529e-08 0.0000000e+00 
0.0000000e+00 1.8752780e-10 0.0000000e+00 
0.0000000e+00 -2.1144504e-09 0.0000000e+00 
0.0000000e+00 7.3983186e-10 0.0000000e+00 
0.0000000e+00 -1.0946553e-08 0.0000000e+00 
0.0000000e+00 3.2894998e-09 0.0000000e+00 
0.0000000e+00 -3.9801396e-08 0.0000000e+00 
0.0000000e+00 1.4529763e-09 0.0000000e+00 
0.0000000e+00 -3.7773887e-08 0.0000000e+00 
-2.4115543e-09 3.5558130e-09 -1.6824907e-09 
0.0000000e+00 -6.4507866e-08 0.0000000e+00 
0.0000000e+00 2.6689526e-09 0.0000000e+00 
0.0000000e+00 -4.5987004e-08 0.0000000e+00 
0.0000000e+00 1.4809731e-09 0.0000000e+00 
0.0000000e+00 0.0000000e+00 0.0000000e+00 
0.0000000e+00 0.0000000e+00 0.0000000e+00 
0.0000000e+00 -2.2072322e-09 0.0000000e+00 
0.0000000e+00 -1.3530664e-08 0.0000000e+00 
0.0000000e+00 -2.3914766e-09 0.0000000e+00 
3.1282164e-09 -1.0120377e-08 6.4226208e-10 
0.0000000e+00 -3.3712265e-08 0.0000000e+00 
2.7937304e-09 -3.9557875e-08 -9.7040209e-10 
0.0000000e+00 -5.8274889e-08 0.0000000e+00 
0.0000000e+00 -4.7585200e-08 0.0000000e+00 
0.0000000e+00 0.0000000e+00 0.0000000e+00 
0.0000000e+00 0.0000000e+00 0.0000000e+00 
3.1830474e-09 -8.0610638e-09 4.2585743e-10 
2.4437208e-09 -3.5817957e-09 1.9274147e-09 
4.9379500e-10 -4.3670179e-09 5.9892383e-11 
5.6486765e-10 -1.6670315e-09 3.1864655e-10 
4.3020516e-09 -1.1891511e-08 2.5566163e-09 
3.3850993e-09 -2.5898618e-08 3.4961307e-12 
1.2998542e-09 -4.5181818e-09 8.0974810e-11 
TOTAL_DISPLACEMENT 3 39  float
0.0000000e+00 0.0000000e+00 0.0000000e+00 
0.0000000e+00 0.0000000e+00 0.0000000e+00 
0.0000000e+00 0.0000000e+00 0.0000000e+00 
0.0000000e+00 0.0000000e+00 0.0000000e+00 
0.0000000e+00 0.0000000e+00 0.0000000e+00 
0.0000000e+00 0.0000000e+00 0.0000000e+00 
0.0000000e+00 0.0000000e+00 0.0000000e+00 
0.0000000e+00 0.0000000e+00 0.0000000e+00 
0.0000000e+00 0.0000000e+00 0.0000000e+00 
0.0000000e+00 0.0000000e+00 0.0000000e+00 
0.0000000e+00 0.0000000e+00 0.0000000e+00 
0.0000000e+00 0.0000000e+00 0.0000000e+00 
0.0000000e+00 0.0000000e+00 0.0000000e+00 
0.0000000e+00 0.0000000e+00 0.0000000e+00 
0.0000000e+00 0.0000000e+00 0.0000000e+00 
0.0000000e+00 0.0000000e+00 0.0000000e+00 
0.0000000e+00 0.0000000e+00 0.0000000e+00 
0.0000000e+00 0.0000000e+00 0.0000000e+00 
0.0000000e+00 0.0000000e+00 0.0000000e+00 
0.0000000e+00 0.0000000e+00 0.0000000e+00 
0.0000000e+00 0.0000000e+00 0.0000000e+00 
0.0000000e+00 0.0000000e+00 0.0000000e+00 
0.0000000e+00 0.0000000e+00 0.0000000e+00 
0.0000000e+00 0.0000000e+00 0.0000000e+00 
0.0000000e+00 0.0000000e+00 0.0000000e+00 
0.0000000e+00 0.0000000e+00 0.0000000e+00 
0.0000000e+00 0.0000000e+00 0.0000000e+00 
0.0000000e+00 0.0000000e+00 0.0000000e+00 
0.0000000e+00 0.0000000e+00 0.0000000e+00 
0.0000000e+00 0.0000000e+00 0.0000000e+00 
0.0000000e+00 0.0000000e+00 0.0000000e+00 
0.0000000e+00 0.0000000e+00 0.0000000e+00 
0.0000000e+00 0.0000000e+00 0.0000000e+00 
0.0000000e+00 0.0000000e+00 0.0000000e+00 
0.0000000e+00 0.0000000e+00 0.0000000e+00 
0.0000000e+00 0.0000000e+00 0.0000000e+00 
0.0000000e+00 0.0000000e+00 0.0000000e+00 
0.0000000e+00 0.0000000e+00 0.0000000e+00 
0.0000000e+00 0.0000000e+00 0.0000000e+00 
CELL_DATA 89
FIELD FieldData 0
