# vtk DataFile Version 4.0
vtk output
ASCII
DATASET UNSTRUCTURED_GRID
POINTS 46 float
0.0000000e+00 0.0000000e+00 0.0000000e+00 
1.0000000e+00 0.0000000e+00 0.0000000e+00 
1.0000000e+00 1.0000000e+01 0.0000000e+00 
0.0000000e+00 1.0000000e+01 0.0000000e+00 
0.0000000e+00 0.0000000e+00 1.0000000e+00 
1.0000000e+00 0.0000000e+00 1.0000000e+00 
1.0000000e+00 1.0000000e+01 1.0000000e+00 
0.0000000e+00 1.0000000e+01 1.0000000e+00 
1.0000000e+00 2.0000000e+00 0.0000000e+00 
1.0000000e+00 4.0000000e+00 0.0000000e+00 
1.0000000e+00 6.0000000e+00 0.0000000e+00 
1.0000000e+00 8.0000000e+00 0.0000000e+00 
0.0000000e+00 8.0000000e+00 0.0000000e+00 
0.0000000e+00 6.0000000e+00 0.0000000e+00 
0.0000000e+00 4.0000000e+00 0.0000000e+00 
0.0000000e+00 2.0000000e+00 0.0000000e+00 
1.0000000e+00 2.0000000e+00 1.0000000e+00 
1.0000000e+00 4.0000000e+00 1.0000000e+00 
1.0000000e+00 6.0000000e+00 1.0000000e+00 
1.0000000e+00 8.0000000e+00 1.0000000e+00 
0.0000000e+00 8.0000000e+00 1.0000000e+00 
0.0000000e+00 6.0000000e+00 1.0000000e+00 
0.0000000e+00 4.0000000e+00 1.0000000e+00 
0.0000000e+00 2.0000000e+00 1.0000000e+00 
5.0000000e-01 9.0000000e+00 0.0000000e+00 
5.0000000e-01 7.0000000e+00 0.0000000e+00 
5.0000000e-01 1.0000000e+00 0.0000000e+00 
5.0000000e-01 3.0000000e+00 0.0000000e+00 
5.0000000e-01 5.0000000e+00 0.0000000e+00 
5.0000000e-01 0.0000000e+00 5.0000000e-01 
1.0000000e+00 9.0000000e+00 5.0000000e-01 
1.0000000e+00 5.0000000e+00 5.0000000e-01 
1.0000000e+00 1.0000000e+00 5.0000000e-01 
1.0000000e+00 3.0000000e+00 5.0000000e-01 
1.0000000e+00 7.0000000e+00 5.0000000e-01 
5.0000000e-01 1.0000000e+01 5.0000000e-01 
0.0000000e+00 9.0000000e+00 5.0000000e-01 
0.0000000e+00 1.0000000e+00 5.0000000e-01 
0.0000000e+00 7.0000000e+00 5.0000000e-01 
0.0000000e+00 5.0000000e+00 5.0000000e-01 
0.0000000e+00 3.0000000e+00 5.0000000e-01 
5.0000000e-01 9.0000000e+00 1.0000000e+00 
5.0000000e-01 1.0000000e+00 1.0000000e+00 
5.0000000e-01 3.0000000e+00 1.0000000e+00 
5.0000000e-01 5.0000000e+00 1.0000000e+00 
5.0000000e-01 7.0000000e+00 1.0000000e+00 

CELLS 100 500
4 37 23 4 42
4 27 15 40 14
4 13 12 38 25
4 19 18 45 34
4 45 20 38 21
4 39 21 22 44
4 33 43 16 17
4 40 22 23 43
4 33 27 9 8
4 16 42 32 5
4 31 17 18 44
4 7 20 36 41
4 41 6 19 30
4 0 15 37 26
4 36 12 3 24
4 2 11 30 24
4 25 11 34 10
4 39 14 13 28
4 31 10 9 28
4 8 32 26 1
4 32 37 29 42
4 37 32 29 26
4 36 35 41 30
4 36 35 30 24
4 14 39 31 28
4 38 34 20 45
4 34 38 20 25
4 31 39 14 44
4 43 23 40 33
4 26 37 32 8
4 37 42 32 8
4 33 40 9 27
4 38 45 18 34
4 34 18 38 25
4 36 30 19 24
4 30 36 19 41
4 40 33 9 43
4 39 31 13 44
4 31 39 13 28
4 33 40 27 8
4 44 18 31 10
4 41 20 36 19
4 31 13 10 28
4 22 14 39 44
4 17 33 43 9
4 40 9 27 14
4 40 14 22 43
4 33 43 23 16
4 14 22 31 44
4 17 31 22 44
4 38 45 21 18
4 26 15 37 8
4 40 9 14 43
4 16 32 42 8
4 33 23 40 8
4 20 12 34 25
4 39 13 21 44
4 19 45 20 34
4 20 38 12 25
4 18 13 38 25
4 25 34 18 10
4 19 12 36 24
4 19 30 11 24
4 11 34 12 25
4 31 13 44 10
4 9 14 31 28
4 15 27 40 8
4 42 37 23 8
4 26 32 29 1
4 32 42 29 5
4 29 0 37 26
4 29 37 4 42
4 7 36 35 41
4 2 30 35 24
4 6 41 35 30
4 35 36 3 24
4 19 12 34 20
4 20 12 36 19
4 13 18 44 10
4 14 31 17 9
4 22 14 31 17
4 14 17 43 9
4 17 14 43 22
4 21 13 38 18
4 18 21 13 44
4 12 19 34 11
4 25 18 13 10
4 23 15 40 8
4 12 19 11 24
4 23 33 16 8
4 37 15 23 8
4 16 42 23 8
4 35 6 30 2
4 3 36 35 7
4 29 32 5 1
4 42 4 29 5
4 37 4 0 29
4 41 35 7 6
4 35 3 2 24
4 26 29 0 1

CELL_TYPES 100
10
10
10
10
10
10
10
10
10
10
10
10
10
10
10
10
10
10
10
10
10
10
10
10
10
10
10
10
10
10
10
10
10
10
10
10
10
10
10
10
10
10
10
10
10
10
10
10
10
10
10
10
10
10
10
10
10
10
10
10
10
10
10
10
10
10
10
10
10
10
10
10
10
10
10
10
10
10
10
10
10
10
10
10
10
10
10
10
10
10
10
10
10
10
10
10
10
10
10
10
POINT_DATA 46
FIELD FieldData 2
DISPLACEMENT 3 46  float
0.0000000e+00 -4.3307391e-06 0.0000000e+00 
0.0000000e+00 -4.3307314e-06 0.0000000e+00 
0.0000000e+00 -5.2375203e-06 0.0000000e+00 
0.0000000e+00 -5.2375417e-06 0.0000000e+00 
0.0000000e+00 -4.3307418e-06 0.0000000e+00 
0.0000000e+00 -4.3307332e-06 0.0000000e+00 
0.0000000e+00 -5.2375126e-06 0.0000000e+00 
0.0000000e+00 -5.2375299e-06 0.0000000e+00 
0.0000000e+00 -4.5131101e-06 0.0000000e+00 
0.0000000e+00 -4.6949917e-06 0.0000000e+00 
0.0000000e+00 -4.8764336e-06 0.0000000e+00 
0.0000000e+00 -5.0570980e-06 0.0000000e+00 
0.0000000e+00 -5.0570816e-06 0.0000000e+00 
0.0000000e+00 -4.8764350e-06 0.0000000e+00 
0.0000000e+00 -4.6949717e-06 0.0000000e+00 
0.0000000e+00 -4.5131119e-06 0.0000000e+00 
0.0000000e+00 -4.5131128e-06 0.0000000e+00 
0.0000000e+00 -4.6949817e-06 0.0000000e+00 
0.0000000e+00 -4.8764032e-06 0.0000000e+00 
0.0000000e+00 -5.0570993e-06 0.0000000e+00 
0.0000000e+00 -5.0570975e-06 0.0000000e+00 
0.0000000e+00 -4.8764246e-06 0.0000000e+00 
0.0000000e+00 -4.6949817e-06 0.0000000e+00 
0.0000000e+00 -4.5131087e-06 0.0000000e+00 
0.0000000e+00 -5.1473535e-06 0.0000000e+00 
0.0000000e+00 -4.9667892e-06 0.0000000e+00 
0.0000000e+00 -4.4219641e-06 0.0000000e+00 
0.0000000e+00 -4.6040723e-06 0.0000000e+00 
0.0000000e+00 -4.7857775e-06 0.0000000e+00 
1.7069200e-12 -4.3307355e-06 -5.3167448e-13 
0.0000000e+00 -5.1473562e-06 0.0000000e+00 
0.0000000e+00 -4.7857970e-06 0.0000000e+00 
0.0000000e+00 -4.4219587e-06 0.0000000e+00 
0.0000000e+00 -4.6040868e-06 0.0000000e+00 
0.0000000e+00 -4.9667860e-06 0.0000000e+00 
1.9521375e-12 -5.2375367e-06 2.4894546e-12 
0.0000000e+00 -5.1473580e-06 0.0000000e+00 
0.0000000e+00 -4.4219732e-06 0.0000000e+00 
0.0000000e+00 -4.9667856e-06 0.0000000e+00 
0.0000000e+00 -4.7857807e-06 0.0000000e+00 
0.0000000e+00 -4.6040750e-06 0.0000000e+00 
0.0000000e+00 -5.1473594e-06 0.0000000e+00 
0.0000000e+00 -4.4219705e-06 0.0000000e+00 
0.0000000e+00 -4.6040782e-06 0.0000000e+00 
0.0000000e+00 -4.7857989e-06 0.0000000e+00 
0.0000000e+00 -4.9667769e-06 0.0000000e+00 
VELOCITY 3 46  float
0.0000000e+00 -2.0230536e-05 0.0000000e+00 
0.0000000e+00 -2.0229436e-05 0.0000000e+00 
0.0000000e+00 -2.0220554e-05 0.0000000e+00 
0.0000000e+00 -2.0212598e-05 0.0000000e+00 
0.0000000e+00 -2.0229425e-05 0.0000000e+00 
0.0000000e+00 -2.0228543e-05 0.0000000e+00 
0.0000000e+00 -2.0224919e-05 0.0000000e+00 
0.0000000e+00 -2.0217965e-05 0.0000000e+00 
0.0000000e+00 -2.0234007e-05 0.0000000e+00 
0.0000000e+00 -2.0245712e-05 0.0000000e+00 
0.0000000e+00 -2.0215628e-05 0.0000000e+00 
0.0000000e+00 -2.0236930e-05 0.0000000e+00 
0.0000000e+00 -2.0235504e-05 0.0000000e+00 
0.0000000e+00 -2.0213603e-05 0.0000000e+00 
0.0000000e+00 -2.0257252e-05 0.0000000e+00 
0.0000000e+00 -2.0223637e-05 0.0000000e+00 
0.0000000e+00 -2.0233228e-05 0.0000000e+00 
0.0000000e+00 -2.0252864e-05 0.0000000e+00 
0.0000000e+00 -2.0213178e-05 0.0000000e+00 
0.0000000e+00 -2.0238978e-05 0.0000000e+00 
0.0000000e+00 -2.0238025e-05 0.0000000e+00 
0.0000000e+00 -2.0209947e-05 0.0000000e+00 
0.0000000e+00 -2.0263411e-05 0.0000000e+00 
0.0000000e+00 -2.0225394e-05 0.0000000e+00 
0.0000000e+00 -2.0242383e-05 0.0000000e+00 
0.0000000e+00 -2.0234180e-05 0.0000000e+00 
0.0000000e+00 -2.0229138e-05 0.0000000e+00 
0.0000000e+00 -2.0226891e-05 0.0000000e+00 
0.0000000e+00 -2.0240383e-05 0.0000000e+00 
-2.9674765e-10 -2.0228061e-05 -8.9335804e-12 
0.0000000e+00 -2.0237647e-05 0.0000000e+00 
0.0000000e+00 -2.0243690e-05 0.0000000e+00 
0.0000000e+00 -2.0230616e-05 0.0000000e+00 
0.0000000e+00 -2.0227875e-05 0.0000000e+00 
0.0000000e+00 -2.0230324e-05 0.0000000e+00 
1.3980678e-09 -2.0206229e-05 2.3383231e-09 
0.0000000e+00 -2.0245900e-05 0.0000000e+00 
0.0000000e+00 -2.0227160e-05 0.0000000e+00 
0.0000000e+00 -2.0239779e-05 0.0000000e+00 
0.0000000e+00 -2.0241021e-05 0.0000000e+00 
0.0000000e+00 -2.0225767e-05 0.0000000e+00 
0.0000000e+00 -2.0235289e-05 0.0000000e+00 
0.0000000e+00 -2.0229536e-05 0.0000000e+00 
0.0000000e+00 -2.0228917e-05 0.0000000e+00 
0.0000000e+00 -2.0241794e-05 0.0000000e+00 
0.0000000e+00 -2.0229350e-05 0.0000000e+00 
CELL_DATA 100
FIELD FieldData 0
