# vtk DataFile Version 4.0
vtk output
ASCII
DATASET UNSTRUCTURED_GRID
POINTS 46 float
0.0000000e+00 0.0000000e+00 0.0000000e+00 
1.0000000e+00 0.0000000e+00 0.0000000e+00 
1.0000000e+00 1.0000000e+01 0.0000000e+00 
0.0000000e+00 1.0000000e+01 0.0000000e+00 
0.0000000e+00 0.0000000e+00 1.0000000e+00 
1.0000000e+00 0.0000000e+00 1.0000000e+00 
1.0000000e+00 1.0000000e+01 1.0000000e+00 
0.0000000e+00 1.0000000e+01 1.0000000e+00 
1.0000000e+00 2.0000000e+00 0.0000000e+00 
1.0000000e+00 4.0000000e+00 0.0000000e+00 
1.0000000e+00 6.0000000e+00 0.0000000e+00 
1.0000000e+00 8.0000000e+00 0.0000000e+00 
0.0000000e+00 8.0000000e+00 0.0000000e+00 
0.0000000e+00 6.0000000e+00 0.0000000e+00 
0.0000000e+00 4.0000000e+00 0.0000000e+00 
0.0000000e+00 2.0000000e+00 0.0000000e+00 
1.0000000e+00 2.0000000e+00 1.0000000e+00 
1.0000000e+00 4.0000000e+00 1.0000000e+00 
1.0000000e+00 6.0000000e+00 1.0000000e+00 
1.0000000e+00 8.0000000e+00 1.0000000e+00 
0.0000000e+00 8.0000000e+00 1.0000000e+00 
0.0000000e+00 6.0000000e+00 1.0000000e+00 
0.0000000e+00 4.0000000e+00 1.0000000e+00 
0.0000000e+00 2.0000000e+00 1.0000000e+00 
5.0000000e-01 9.0000000e+00 0.0000000e+00 
5.0000000e-01 7.0000000e+00 0.0000000e+00 
5.0000000e-01 1.0000000e+00 0.0000000e+00 
5.0000000e-01 3.0000000e+00 0.0000000e+00 
5.0000000e-01 5.0000000e+00 0.0000000e+00 
5.0000000e-01 0.0000000e+00 5.0000000e-01 
1.0000000e+00 9.0000000e+00 5.0000000e-01 
1.0000000e+00 5.0000000e+00 5.0000000e-01 
1.0000000e+00 1.0000000e+00 5.0000000e-01 
1.0000000e+00 3.0000000e+00 5.0000000e-01 
1.0000000e+00 7.0000000e+00 5.0000000e-01 
5.0000000e-01 1.0000000e+01 5.0000000e-01 
0.0000000e+00 9.0000000e+00 5.0000000e-01 
0.0000000e+00 1.0000000e+00 5.0000000e-01 
0.0000000e+00 7.0000000e+00 5.0000000e-01 
0.0000000e+00 5.0000000e+00 5.0000000e-01 
0.0000000e+00 3.0000000e+00 5.0000000e-01 
5.0000000e-01 9.0000000e+00 1.0000000e+00 
5.0000000e-01 1.0000000e+00 1.0000000e+00 
5.0000000e-01 3.0000000e+00 1.0000000e+00 
5.0000000e-01 5.0000000e+00 1.0000000e+00 
5.0000000e-01 7.0000000e+00 1.0000000e+00 

CELLS 100 500
4 37 23 4 42
4 27 15 40 14
4 13 12 38 25
4 19 18 45 34
4 45 20 38 21
4 39 21 22 44
4 33 43 16 17
4 40 22 23 43
4 33 27 9 8
4 16 42 32 5
4 31 17 18 44
4 7 20 36 41
4 41 6 19 30
4 0 15 37 26
4 36 12 3 24
4 2 11 30 24
4 25 11 34 10
4 39 14 13 28
4 31 10 9 28
4 8 32 26 1
4 32 37 29 42
4 37 32 29 26
4 36 35 41 30
4 36 35 30 24
4 14 39 31 28
4 38 34 20 45
4 34 38 20 25
4 31 39 14 44
4 43 23 40 33
4 26 37 32 8
4 37 42 32 8
4 33 40 9 27
4 38 45 18 34
4 34 18 38 25
4 36 30 19 24
4 30 36 19 41
4 40 33 9 43
4 39 31 13 44
4 31 39 13 28
4 33 40 27 8
4 44 18 31 10
4 41 20 36 19
4 31 13 10 28
4 22 14 39 44
4 17 33 43 9
4 40 9 27 14
4 40 14 22 43
4 33 43 23 16
4 14 22 31 44
4 17 31 22 44
4 38 45 21 18
4 26 15 37 8
4 40 9 14 43
4 16 32 42 8
4 33 23 40 8
4 20 12 34 25
4 39 13 21 44
4 19 45 20 34
4 20 38 12 25
4 18 13 38 25
4 25 34 18 10
4 19 12 36 24
4 19 30 11 24
4 11 34 12 25
4 31 13 44 10
4 9 14 31 28
4 15 27 40 8
4 42 37 23 8
4 26 32 29 1
4 32 42 29 5
4 29 0 37 26
4 29 37 4 42
4 7 36 35 41
4 2 30 35 24
4 6 41 35 30
4 35 36 3 24
4 19 12 34 20
4 20 12 36 19
4 13 18 44 10
4 14 31 17 9
4 22 14 31 17
4 14 17 43 9
4 17 14 43 22
4 21 13 38 18
4 18 21 13 44
4 12 19 34 11
4 25 18 13 10
4 23 15 40 8
4 12 19 11 24
4 23 33 16 8
4 37 15 23 8
4 16 42 23 8
4 35 6 30 2
4 3 36 35 7
4 29 32 5 1
4 42 4 29 5
4 37 4 0 29
4 41 35 7 6
4 35 3 2 24
4 26 29 0 1

CELL_TYPES 100
10
10
10
10
10
10
10
10
10
10
10
10
10
10
10
10
10
10
10
10
10
10
10
10
10
10
10
10
10
10
10
10
10
10
10
10
10
10
10
10
10
10
10
10
10
10
10
10
10
10
10
10
10
10
10
10
10
10
10
10
10
10
10
10
10
10
10
10
10
10
10
10
10
10
10
10
10
10
10
10
10
10
10
10
10
10
10
10
10
10
10
10
10
10
10
10
10
10
10
10
POINT_DATA 46
FIELD FieldData 2
DISPLACEMENT 3 46  float
0.0000000e+00 -5.3299982e-06 0.0000000e+00 
0.0000000e+00 -5.3299918e-06 0.0000000e+00 
0.0000000e+00 -6.2365598e-06 0.0000000e+00 
0.0000000e+00 -6.2365684e-06 0.0000000e+00 
0.0000000e+00 -5.3300005e-06 0.0000000e+00 
0.0000000e+00 -5.3299937e-06 0.0000000e+00 
0.0000000e+00 -6.2365571e-06 0.0000000e+00 
0.0000000e+00 -6.2365630e-06 0.0000000e+00 
0.0000000e+00 -5.5123965e-06 0.0000000e+00 
0.0000000e+00 -5.6941985e-06 0.0000000e+00 
0.0000000e+00 -5.8755368e-06 0.0000000e+00 
0.0000000e+00 -6.0563061e-06 0.0000000e+00 
0.0000000e+00 -6.0562961e-06 0.0000000e+00 
0.0000000e+00 -5.8755277e-06 0.0000000e+00 
0.0000000e+00 -5.6941881e-06 0.0000000e+00 
0.0000000e+00 -5.5123933e-06 0.0000000e+00 
0.0000000e+00 -5.5123978e-06 0.0000000e+00 
0.0000000e+00 -5.6941840e-06 0.0000000e+00 
0.0000000e+00 -5.8755236e-06 0.0000000e+00 
0.0000000e+00 -6.0563043e-06 0.0000000e+00 
0.0000000e+00 -6.0563129e-06 0.0000000e+00 
0.0000000e+00 -5.8755254e-06 0.0000000e+00 
0.0000000e+00 -5.6941935e-06 0.0000000e+00 
0.0000000e+00 -5.5123896e-06 0.0000000e+00 
0.0000000e+00 -6.1464821e-06 0.0000000e+00 
0.0000000e+00 -5.9659733e-06 0.0000000e+00 
0.0000000e+00 -5.4212314e-06 0.0000000e+00 
0.0000000e+00 -5.6033296e-06 0.0000000e+00 
0.0000000e+00 -5.7849006e-06 0.0000000e+00 
1.3565693e-12 -5.3299932e-06 -7.0384990e-13 
0.0000000e+00 -6.1464730e-06 0.0000000e+00 
0.0000000e+00 -5.7849138e-06 0.0000000e+00 
0.0000000e+00 -5.4212283e-06 0.0000000e+00 
0.0000000e+00 -5.6033437e-06 0.0000000e+00 
0.0000000e+00 -5.9659719e-06 0.0000000e+00 
2.9973108e-13 -6.2365580e-06 1.2170060e-12 
0.0000000e+00 -6.1464852e-06 0.0000000e+00 
0.0000000e+00 -5.4212405e-06 0.0000000e+00 
0.0000000e+00 -5.9659719e-06 0.0000000e+00 
0.0000000e+00 -5.7848988e-06 0.0000000e+00 
0.0000000e+00 -5.6033364e-06 0.0000000e+00 
0.0000000e+00 -6.1464752e-06 0.0000000e+00 
0.0000000e+00 -5.4212396e-06 0.0000000e+00 
0.0000000e+00 -5.6033386e-06 0.0000000e+00 
0.0000000e+00 -5.7849115e-06 0.0000000e+00 
0.0000000e+00 -5.9659596e-06 0.0000000e+00 
VELOCITY 3 46  float
0.0000000e+00 -1.9739893e-05 0.0000000e+00 
0.0000000e+00 -1.9739276e-05 0.0000000e+00 
0.0000000e+00 -1.9743216e-05 0.0000000e+00 
0.0000000e+00 -1.9738474e-05 0.0000000e+00 
0.0000000e+00 -1.9740228e-05 0.0000000e+00 
0.0000000e+00 -1.9739546e-05 0.0000000e+00 
0.0000000e+00 -1.9746472e-05 0.0000000e+00 
0.0000000e+00 -1.9743422e-05 0.0000000e+00 
0.0000000e+00 -1.9742363e-05 0.0000000e+00 
0.0000000e+00 -1.9728788e-05 0.0000000e+00 
0.0000000e+00 -1.9745232e-05 0.0000000e+00 
0.0000000e+00 -1.9724490e-05 0.0000000e+00 
0.0000000e+00 -1.9732021e-05 0.0000000e+00 
0.0000000e+00 -1.9743551e-05 0.0000000e+00 
0.0000000e+00 -1.9733923e-05 0.0000000e+00 
0.0000000e+00 -1.9737545e-05 0.0000000e+00 
0.0000000e+00 -1.9740814e-05 0.0000000e+00 
0.0000000e+00 -1.9734096e-05 0.0000000e+00 
0.0000000e+00 -1.9745603e-05 0.0000000e+00 
0.0000000e+00 -1.9724508e-05 0.0000000e+00 
0.0000000e+00 -1.9724786e-05 0.0000000e+00 
0.0000000e+00 -1.9744824e-05 0.0000000e+00 
0.0000000e+00 -1.9737083e-05 0.0000000e+00 
0.0000000e+00 -1.9736195e-05 0.0000000e+00 
0.0000000e+00 -1.9737698e-05 0.0000000e+00 
0.0000000e+00 -1.9731338e-05 0.0000000e+00 
0.0000000e+00 -1.9745728e-05 0.0000000e+00 
0.0000000e+00 -1.9727800e-05 0.0000000e+00 
0.0000000e+00 -1.9739220e-05 0.0000000e+00 
-2.1237491e-10 -1.9738716e-05 -1.7225384e-10 
0.0000000e+00 -1.9737272e-05 0.0000000e+00 
0.0000000e+00 -1.9739917e-05 0.0000000e+00 
0.0000000e+00 -1.9747258e-05 0.0000000e+00 
0.0000000e+00 -1.9726194e-05 0.0000000e+00 
0.0000000e+00 -1.9726860e-05 0.0000000e+00 
-1.3794882e-09 -1.9744206e-05 -1.3265592e-09 
0.0000000e+00 -1.9734951e-05 0.0000000e+00 
0.0000000e+00 -1.9745496e-05 0.0000000e+00 
0.0000000e+00 -1.9732206e-05 0.0000000e+00 
0.0000000e+00 -1.9738438e-05 0.0000000e+00 
0.0000000e+00 -1.9726376e-05 0.0000000e+00 
0.0000000e+00 -1.9739215e-05 0.0000000e+00 
0.0000000e+00 -1.9747304e-05 0.0000000e+00 
0.0000000e+00 -1.9727213e-05 0.0000000e+00 
0.0000000e+00 -1.9740870e-05 0.0000000e+00 
0.0000000e+00 -1.9730895e-05 0.0000000e+00 
CELL_DATA 100
FIELD FieldData 0
