# vtk DataFile Version 4.0
vtk output
ASCII
DATASET UNSTRUCTURED_GRID
POINTS 46 float
0.0000000e+00 0.0000000e+00 0.0000000e+00 
1.0000000e+00 0.0000000e+00 0.0000000e+00 
1.0000000e+00 1.0000000e+01 0.0000000e+00 
0.0000000e+00 1.0000000e+01 0.0000000e+00 
0.0000000e+00 0.0000000e+00 1.0000000e+00 
1.0000000e+00 0.0000000e+00 1.0000000e+00 
1.0000000e+00 1.0000000e+01 1.0000000e+00 
0.0000000e+00 1.0000000e+01 1.0000000e+00 
1.0000000e+00 2.0000000e+00 0.0000000e+00 
1.0000000e+00 4.0000000e+00 0.0000000e+00 
1.0000000e+00 6.0000000e+00 0.0000000e+00 
1.0000000e+00 8.0000000e+00 0.0000000e+00 
0.0000000e+00 8.0000000e+00 0.0000000e+00 
0.0000000e+00 6.0000000e+00 0.0000000e+00 
0.0000000e+00 4.0000000e+00 0.0000000e+00 
0.0000000e+00 2.0000000e+00 0.0000000e+00 
1.0000000e+00 2.0000000e+00 1.0000000e+00 
1.0000000e+00 4.0000000e+00 1.0000000e+00 
1.0000000e+00 6.0000000e+00 1.0000000e+00 
1.0000000e+00 8.0000000e+00 1.0000000e+00 
0.0000000e+00 8.0000000e+00 1.0000000e+00 
0.0000000e+00 6.0000000e+00 1.0000000e+00 
0.0000000e+00 4.0000000e+00 1.0000000e+00 
0.0000000e+00 2.0000000e+00 1.0000000e+00 
5.0000000e-01 9.0000000e+00 0.0000000e+00 
5.0000000e-01 7.0000000e+00 0.0000000e+00 
5.0000000e-01 1.0000000e+00 0.0000000e+00 
5.0000000e-01 3.0000000e+00 0.0000000e+00 
5.0000000e-01 5.0000000e+00 0.0000000e+00 
5.0000000e-01 0.0000000e+00 5.0000000e-01 
1.0000000e+00 9.0000000e+00 5.0000000e-01 
1.0000000e+00 5.0000000e+00 5.0000000e-01 
1.0000000e+00 1.0000000e+00 5.0000000e-01 
1.0000000e+00 3.0000000e+00 5.0000000e-01 
1.0000000e+00 7.0000000e+00 5.0000000e-01 
5.0000000e-01 1.0000000e+01 5.0000000e-01 
0.0000000e+00 9.0000000e+00 5.0000000e-01 
0.0000000e+00 1.0000000e+00 5.0000000e-01 
0.0000000e+00 7.0000000e+00 5.0000000e-01 
0.0000000e+00 5.0000000e+00 5.0000000e-01 
0.0000000e+00 3.0000000e+00 5.0000000e-01 
5.0000000e-01 9.0000000e+00 1.0000000e+00 
5.0000000e-01 1.0000000e+00 1.0000000e+00 
5.0000000e-01 3.0000000e+00 1.0000000e+00 
5.0000000e-01 5.0000000e+00 1.0000000e+00 
5.0000000e-01 7.0000000e+00 1.0000000e+00 

CELLS 100 500
4 37 23 4 42
4 27 15 40 14
4 13 12 38 25
4 19 18 45 34
4 45 20 38 21
4 39 21 22 44
4 33 43 16 17
4 40 22 23 43
4 33 27 9 8
4 16 42 32 5
4 31 17 18 44
4 7 20 36 41
4 41 6 19 30
4 0 15 37 26
4 36 12 3 24
4 2 11 30 24
4 25 11 34 10
4 39 14 13 28
4 31 10 9 28
4 8 32 26 1
4 32 37 29 42
4 37 32 29 26
4 36 35 41 30
4 36 35 30 24
4 14 39 31 28
4 38 34 20 45
4 34 38 20 25
4 31 39 14 44
4 43 23 40 33
4 26 37 32 8
4 37 42 32 8
4 33 40 9 27
4 38 45 18 34
4 34 18 38 25
4 36 30 19 24
4 30 36 19 41
4 40 33 9 43
4 39 31 13 44
4 31 39 13 28
4 33 40 27 8
4 44 18 31 10
4 41 20 36 19
4 31 13 10 28
4 22 14 39 44
4 17 33 43 9
4 40 9 27 14
4 40 14 22 43
4 33 43 23 16
4 14 22 31 44
4 17 31 22 44
4 38 45 21 18
4 26 15 37 8
4 40 9 14 43
4 16 32 42 8
4 33 23 40 8
4 20 12 34 25
4 39 13 21 44
4 19 45 20 34
4 20 38 12 25
4 18 13 38 25
4 25 34 18 10
4 19 12 36 24
4 19 30 11 24
4 11 34 12 25
4 31 13 44 10
4 9 14 31 28
4 15 27 40 8
4 42 37 23 8
4 26 32 29 1
4 32 42 29 5
4 29 0 37 26
4 29 37 4 42
4 7 36 35 41
4 2 30 35 24
4 6 41 35 30
4 35 36 3 24
4 19 12 34 20
4 20 12 36 19
4 13 18 44 10
4 14 31 17 9
4 22 14 31 17
4 14 17 43 9
4 17 14 43 22
4 21 13 38 18
4 18 21 13 44
4 12 19 34 11
4 25 18 13 10
4 23 15 40 8
4 12 19 11 24
4 23 33 16 8
4 37 15 23 8
4 16 42 23 8
4 35 6 30 2
4 3 36 35 7
4 29 32 5 1
4 42 4 29 5
4 37 4 0 29
4 41 35 7 6
4 35 3 2 24
4 26 29 0 1

CELL_TYPES 100
10
10
10
10
10
10
10
10
10
10
10
10
10
10
10
10
10
10
10
10
10
10
10
10
10
10
10
10
10
10
10
10
10
10
10
10
10
10
10
10
10
10
10
10
10
10
10
10
10
10
10
10
10
10
10
10
10
10
10
10
10
10
10
10
10
10
10
10
10
10
10
10
10
10
10
10
10
10
10
10
10
10
10
10
10
10
10
10
10
10
10
10
10
10
10
10
10
10
10
10
POINT_DATA 46
FIELD FieldData 2
DISPLACEMENT 3 46  float
0.0000000e+00 -3.3064182e-06 0.0000000e+00 
0.0000000e+00 -3.3064091e-06 0.0000000e+00 
0.0000000e+00 -4.2130823e-06 0.0000000e+00 
0.0000000e+00 -4.2131355e-06 0.0000000e+00 
0.0000000e+00 -3.3064237e-06 0.0000000e+00 
0.0000000e+00 -3.3064123e-06 0.0000000e+00 
0.0000000e+00 -4.2130691e-06 0.0000000e+00 
0.0000000e+00 -4.2131201e-06 0.0000000e+00 
0.0000000e+00 -3.4888396e-06 0.0000000e+00 
0.0000000e+00 -3.6706510e-06 0.0000000e+00 
0.0000000e+00 -3.8520257e-06 0.0000000e+00 
0.0000000e+00 -4.0329483e-06 0.0000000e+00 
0.0000000e+00 -4.0329387e-06 0.0000000e+00 
0.0000000e+00 -3.8520302e-06 0.0000000e+00 
0.0000000e+00 -3.6706101e-06 0.0000000e+00 
0.0000000e+00 -3.4888596e-06 0.0000000e+00 
0.0000000e+00 -3.4888560e-06 0.0000000e+00 
0.0000000e+00 -3.6706167e-06 0.0000000e+00 
0.0000000e+00 -3.8520038e-06 0.0000000e+00 
0.0000000e+00 -4.0329783e-06 0.0000000e+00 
0.0000000e+00 -4.0329701e-06 0.0000000e+00 
0.0000000e+00 -3.8520225e-06 0.0000000e+00 
0.0000000e+00 -3.6705965e-06 0.0000000e+00 
0.0000000e+00 -3.4888583e-06 0.0000000e+00 
0.0000000e+00 -4.1230392e-06 0.0000000e+00 
0.0000000e+00 -3.9424867e-06 0.0000000e+00 
0.0000000e+00 -3.3977135e-06 0.0000000e+00 
0.0000000e+00 -3.5797980e-06 0.0000000e+00 
0.0000000e+00 -3.7613540e-06 0.0000000e+00 
2.2594209e-12 -3.3064214e-06 -8.6098349e-13 
0.0000000e+00 -4.1230246e-06 0.0000000e+00 
0.0000000e+00 -3.7613574e-06 0.0000000e+00 
0.0000000e+00 -3.3977058e-06 0.0000000e+00 
0.0000000e+00 -3.5798137e-06 0.0000000e+00 
0.0000000e+00 -3.9425140e-06 0.0000000e+00 
-7.4655152e-12 -4.2131078e-06 -5.6230411e-12 
0.0000000e+00 -4.1230437e-06 0.0000000e+00 
0.0000000e+00 -3.3977265e-06 0.0000000e+00 
0.0000000e+00 -3.9424808e-06 0.0000000e+00 
0.0000000e+00 -3.7613438e-06 0.0000000e+00 
0.0000000e+00 -3.5798059e-06 0.0000000e+00 
0.0000000e+00 -4.1230505e-06 0.0000000e+00 
0.0000000e+00 -3.3977233e-06 0.0000000e+00 
0.0000000e+00 -3.5798066e-06 0.0000000e+00 
0.0000000e+00 -3.7613509e-06 0.0000000e+00 
0.0000000e+00 -3.9425008e-06 0.0000000e+00 
VELOCITY 3 46  float
0.0000000e+00 -2.0766989e-05 0.0000000e+00 
0.0000000e+00 -2.0768066e-05 0.0000000e+00 
0.0000000e+00 -2.0641648e-05 0.0000000e+00 
0.0000000e+00 -2.0665482e-05 0.0000000e+00 
0.0000000e+00 -2.0762622e-05 0.0000000e+00 
0.0000000e+00 -2.0764755e-05 0.0000000e+00 
0.0000000e+00 -2.0614443e-05 0.0000000e+00 
0.0000000e+00 -2.0629732e-05 0.0000000e+00 
0.0000000e+00 -2.0731264e-05 0.0000000e+00 
0.0000000e+00 -2.0745920e-05 0.0000000e+00 
0.0000000e+00 -2.0682959e-05 0.0000000e+00 
0.0000000e+00 -2.0815853e-05 0.0000000e+00 
0.0000000e+00 -2.0787849e-05 0.0000000e+00 
0.0000000e+00 -2.0699532e-05 0.0000000e+00 
0.0000000e+00 -2.0754309e-05 0.0000000e+00 
0.0000000e+00 -2.0715253e-05 0.0000000e+00 
0.0000000e+00 -2.0730637e-05 0.0000000e+00 
0.0000000e+00 -2.0759195e-05 0.0000000e+00 
0.0000000e+00 -2.0668949e-05 0.0000000e+00 
0.0000000e+00 -2.0808469e-05 0.0000000e+00 
0.0000000e+00 -2.0829410e-05 0.0000000e+00 
0.0000000e+00 -2.0683738e-05 0.0000000e+00 
0.0000000e+00 -2.0769105e-05 0.0000000e+00 
0.0000000e+00 -2.0723215e-05 0.0000000e+00 
0.0000000e+00 -2.0722047e-05 0.0000000e+00 
0.0000000e+00 -2.0785536e-05 0.0000000e+00 
0.0000000e+00 -2.0720066e-05 0.0000000e+00 
0.0000000e+00 -2.0723533e-05 0.0000000e+00 
0.0000000e+00 -2.0750935e-05 0.0000000e+00 
-6.3838212e-10 -2.0763808e-05 3.4717479e-10 
0.0000000e+00 -2.0728769e-05 0.0000000e+00 
0.0000000e+00 -2.0754260e-05 0.0000000e+00 
0.0000000e+00 -2.0721502e-05 0.0000000e+00 
0.0000000e+00 -2.0733461e-05 0.0000000e+00 
0.0000000e+00 -2.0801735e-05 0.0000000e+00 
6.4505348e-09 -2.0645408e-05 6.9706596e-09 
0.0000000e+00 -2.0733209e-05 0.0000000e+00 
0.0000000e+00 -2.0714517e-05 0.0000000e+00 
0.0000000e+00 -2.0771333e-05 0.0000000e+00 
0.0000000e+00 -2.0763959e-05 0.0000000e+00 
0.0000000e+00 -2.0722087e-05 0.0000000e+00 
0.0000000e+00 -2.0719162e-05 0.0000000e+00 
0.0000000e+00 -2.0717087e-05 0.0000000e+00 
0.0000000e+00 -2.0729094e-05 0.0000000e+00 
0.0000000e+00 -2.0756434e-05 0.0000000e+00 
0.0000000e+00 -2.0779562e-05 0.0000000e+00 
CELL_DATA 100
FIELD FieldData 0
