# vtk DataFile Version 4.0
vtk output
ASCII
DATASET UNSTRUCTURED_GRID
POINTS 46 float
0.0000000e+00 0.0000000e+00 0.0000000e+00 
1.0000000e+00 0.0000000e+00 0.0000000e+00 
1.0000000e+00 1.0000000e+01 0.0000000e+00 
0.0000000e+00 1.0000000e+01 0.0000000e+00 
0.0000000e+00 0.0000000e+00 1.0000000e+00 
1.0000000e+00 0.0000000e+00 1.0000000e+00 
1.0000000e+00 1.0000000e+01 1.0000000e+00 
0.0000000e+00 1.0000000e+01 1.0000000e+00 
1.0000000e+00 2.0000000e+00 0.0000000e+00 
1.0000000e+00 4.0000000e+00 0.0000000e+00 
1.0000000e+00 6.0000000e+00 0.0000000e+00 
1.0000000e+00 8.0000000e+00 0.0000000e+00 
0.0000000e+00 8.0000000e+00 0.0000000e+00 
0.0000000e+00 6.0000000e+00 0.0000000e+00 
0.0000000e+00 4.0000000e+00 0.0000000e+00 
0.0000000e+00 2.0000000e+00 0.0000000e+00 
1.0000000e+00 2.0000000e+00 1.0000000e+00 
1.0000000e+00 4.0000000e+00 1.0000000e+00 
1.0000000e+00 6.0000000e+00 1.0000000e+00 
1.0000000e+00 8.0000000e+00 1.0000000e+00 
0.0000000e+00 8.0000000e+00 1.0000000e+00 
0.0000000e+00 6.0000000e+00 1.0000000e+00 
0.0000000e+00 4.0000000e+00 1.0000000e+00 
0.0000000e+00 2.0000000e+00 1.0000000e+00 
5.0000000e-01 9.0000000e+00 0.0000000e+00 
5.0000000e-01 7.0000000e+00 0.0000000e+00 
5.0000000e-01 1.0000000e+00 0.0000000e+00 
5.0000000e-01 3.0000000e+00 0.0000000e+00 
5.0000000e-01 5.0000000e+00 0.0000000e+00 
5.0000000e-01 0.0000000e+00 5.0000000e-01 
1.0000000e+00 9.0000000e+00 5.0000000e-01 
1.0000000e+00 5.0000000e+00 5.0000000e-01 
1.0000000e+00 1.0000000e+00 5.0000000e-01 
1.0000000e+00 3.0000000e+00 5.0000000e-01 
1.0000000e+00 7.0000000e+00 5.0000000e-01 
5.0000000e-01 1.0000000e+01 5.0000000e-01 
0.0000000e+00 9.0000000e+00 5.0000000e-01 
0.0000000e+00 1.0000000e+00 5.0000000e-01 
0.0000000e+00 7.0000000e+00 5.0000000e-01 
0.0000000e+00 5.0000000e+00 5.0000000e-01 
0.0000000e+00 3.0000000e+00 5.0000000e-01 
5.0000000e-01 9.0000000e+00 1.0000000e+00 
5.0000000e-01 1.0000000e+00 1.0000000e+00 
5.0000000e-01 3.0000000e+00 1.0000000e+00 
5.0000000e-01 5.0000000e+00 1.0000000e+00 
5.0000000e-01 7.0000000e+00 1.0000000e+00 

CELLS 100 500
4 37 23 4 42
4 27 15 40 14
4 13 12 38 25
4 19 18 45 34
4 45 20 38 21
4 39 21 22 44
4 33 43 16 17
4 40 22 23 43
4 33 27 9 8
4 16 42 32 5
4 31 17 18 44
4 7 20 36 41
4 41 6 19 30
4 0 15 37 26
4 36 12 3 24
4 2 11 30 24
4 25 11 34 10
4 39 14 13 28
4 31 10 9 28
4 8 32 26 1
4 32 37 29 42
4 37 32 29 26
4 36 35 41 30
4 36 35 30 24
4 14 39 31 28
4 38 34 20 45
4 34 38 20 25
4 31 39 14 44
4 43 23 40 33
4 26 37 32 8
4 37 42 32 8
4 33 40 9 27
4 38 45 18 34
4 34 18 38 25
4 36 30 19 24
4 30 36 19 41
4 40 33 9 43
4 39 31 13 44
4 31 39 13 28
4 33 40 27 8
4 44 18 31 10
4 41 20 36 19
4 31 13 10 28
4 22 14 39 44
4 17 33 43 9
4 40 9 27 14
4 40 14 22 43
4 33 43 23 16
4 14 22 31 44
4 17 31 22 44
4 38 45 21 18
4 26 15 37 8
4 40 9 14 43
4 16 32 42 8
4 33 23 40 8
4 20 12 34 25
4 39 13 21 44
4 19 45 20 34
4 20 38 12 25
4 18 13 38 25
4 25 34 18 10
4 19 12 36 24
4 19 30 11 24
4 11 34 12 25
4 31 13 44 10
4 9 14 31 28
4 15 27 40 8
4 42 37 23 8
4 26 32 29 1
4 32 42 29 5
4 29 0 37 26
4 29 37 4 42
4 7 36 35 41
4 2 30 35 24
4 6 41 35 30
4 35 36 3 24
4 19 12 34 20
4 20 12 36 19
4 13 18 44 10
4 14 31 17 9
4 22 14 31 17
4 14 17 43 9
4 17 14 43 22
4 21 13 38 18
4 18 21 13 44
4 12 19 34 11
4 25 18 13 10
4 23 15 40 8
4 12 19 11 24
4 23 33 16 8
4 37 15 23 8
4 16 42 23 8
4 35 6 30 2
4 3 36 35 7
4 29 32 5 1
4 42 4 29 5
4 37 4 0 29
4 41 35 7 6
4 35 3 2 24
4 26 29 0 1

CELL_TYPES 100
10
10
10
10
10
10
10
10
10
10
10
10
10
10
10
10
10
10
10
10
10
10
10
10
10
10
10
10
10
10
10
10
10
10
10
10
10
10
10
10
10
10
10
10
10
10
10
10
10
10
10
10
10
10
10
10
10
10
10
10
10
10
10
10
10
10
10
10
10
10
10
10
10
10
10
10
10
10
10
10
10
10
10
10
10
10
10
10
10
10
10
10
10
10
10
10
10
10
10
10
POINT_DATA 46
FIELD FieldData 2
DISPLACEMENT 3 46  float
0.0000000e+00 -2.2563984e-06 0.0000000e+00 
0.0000000e+00 -2.2564222e-06 0.0000000e+00 
0.0000000e+00 -3.1627435e-06 0.0000000e+00 
0.0000000e+00 -3.1627753e-06 0.0000000e+00 
0.0000000e+00 -2.2563745e-06 0.0000000e+00 
0.0000000e+00 -2.2563954e-06 0.0000000e+00 
0.0000000e+00 -3.1628092e-06 0.0000000e+00 
0.0000000e+00 -3.1628506e-06 0.0000000e+00 
0.0000000e+00 -2.4386927e-06 0.0000000e+00 
0.0000000e+00 -2.6213356e-06 0.0000000e+00 
0.0000000e+00 -2.8012776e-06 0.0000000e+00 
0.0000000e+00 -2.9828848e-06 0.0000000e+00 
0.0000000e+00 -2.9828714e-06 0.0000000e+00 
0.0000000e+00 -2.8012485e-06 0.0000000e+00 
0.0000000e+00 -2.6212551e-06 0.0000000e+00 
0.0000000e+00 -2.4387639e-06 0.0000000e+00 
0.0000000e+00 -2.4387778e-06 0.0000000e+00 
0.0000000e+00 -2.6211255e-06 0.0000000e+00 
0.0000000e+00 -2.8013114e-06 0.0000000e+00 
0.0000000e+00 -2.9829901e-06 0.0000000e+00 
0.0000000e+00 -2.9829228e-06 0.0000000e+00 
0.0000000e+00 -2.8012641e-06 0.0000000e+00 
0.0000000e+00 -2.6211558e-06 0.0000000e+00 
0.0000000e+00 -2.4388262e-06 0.0000000e+00 
0.0000000e+00 -3.0729916e-06 0.0000000e+00 
0.0000000e+00 -2.8919424e-06 0.0000000e+00 
0.0000000e+00 -2.3474399e-06 0.0000000e+00 
0.0000000e+00 -2.5302809e-06 0.0000000e+00 
0.0000000e+00 -2.7111773e-06 0.0000000e+00 
-2.6355491e-12 -2.2564241e-06 2.8823584e-12 
0.0000000e+00 -3.0729213e-06 0.0000000e+00 
0.0000000e+00 -2.7111444e-06 0.0000000e+00 
0.0000000e+00 -2.3474352e-06 0.0000000e+00 
0.0000000e+00 -2.5303118e-06 0.0000000e+00 
0.0000000e+00 -2.8919944e-06 0.0000000e+00 
-1.9115858e-11 -3.1626905e-06 -9.9259073e-12 
0.0000000e+00 -3.0730439e-06 0.0000000e+00 
0.0000000e+00 -2.3474113e-06 0.0000000e+00 
0.0000000e+00 -2.8919676e-06 0.0000000e+00 
0.0000000e+00 -2.7111132e-06 0.0000000e+00 
0.0000000e+00 -2.5303468e-06 0.0000000e+00 
0.0000000e+00 -3.0729475e-06 0.0000000e+00 
0.0000000e+00 -2.3474147e-06 0.0000000e+00 
0.0000000e+00 -2.5303545e-06 0.0000000e+00 
0.0000000e+00 -2.7110821e-06 0.0000000e+00 
0.0000000e+00 -2.8920183e-06 0.0000000e+00 
VELOCITY 3 46  float
0.0000000e+00 -2.1157306e-05 0.0000000e+00 
0.0000000e+00 -2.1155496e-05 0.0000000e+00 
0.0000000e+00 -2.1425678e-05 0.0000000e+00 
0.0000000e+00 -2.1523636e-05 0.0000000e+00 
0.0000000e+00 -2.1155465e-05 0.0000000e+00 
0.0000000e+00 -2.1156717e-05 0.0000000e+00 
0.0000000e+00 -2.1306047e-05 0.0000000e+00 
0.0000000e+00 -2.1397069e-05 0.0000000e+00 
0.0000000e+00 -2.1409185e-05 0.0000000e+00 
0.0000000e+00 -2.1117869e-05 0.0000000e+00 
0.0000000e+00 -2.1203919e-05 0.0000000e+00 
0.0000000e+00 -2.1300624e-05 0.0000000e+00 
0.0000000e+00 -2.1275260e-05 0.0000000e+00 
0.0000000e+00 -2.1290391e-05 0.0000000e+00 
0.0000000e+00 -2.1107795e-05 0.0000000e+00 
0.0000000e+00 -2.1372618e-05 0.0000000e+00 
0.0000000e+00 -2.1387281e-05 0.0000000e+00 
0.0000000e+00 -2.1174736e-05 0.0000000e+00 
0.0000000e+00 -2.1145985e-05 0.0000000e+00 
0.0000000e+00 -2.1318800e-05 0.0000000e+00 
0.0000000e+00 -2.1305426e-05 0.0000000e+00 
0.0000000e+00 -2.1244472e-05 0.0000000e+00 
0.0000000e+00 -2.1154576e-05 0.0000000e+00 
0.0000000e+00 -2.1373658e-05 0.0000000e+00 
0.0000000e+00 -2.1257214e-05 0.0000000e+00 
0.0000000e+00 -2.1168335e-05 0.0000000e+00 
0.0000000e+00 -2.1229229e-05 0.0000000e+00 
0.0000000e+00 -2.1242358e-05 0.0000000e+00 
0.0000000e+00 -2.1262465e-05 0.0000000e+00 
1.6652617e-10 -2.1142196e-05 -5.7205285e-10 
0.0000000e+00 -2.1264470e-05 0.0000000e+00 
0.0000000e+00 -2.1267311e-05 0.0000000e+00 
0.0000000e+00 -2.1231945e-05 0.0000000e+00 
0.0000000e+00 -2.1271639e-05 0.0000000e+00 
0.0000000e+00 -2.1227415e-05 0.0000000e+00 
-2.4361888e-09 -2.1486043e-05 -8.1798817e-09 
0.0000000e+00 -2.1212867e-05 0.0000000e+00 
0.0000000e+00 -2.1233333e-05 0.0000000e+00 
0.0000000e+00 -2.1147605e-05 0.0000000e+00 
0.0000000e+00 -2.1296793e-05 0.0000000e+00 
0.0000000e+00 -2.1234853e-05 0.0000000e+00 
0.0000000e+00 -2.1288644e-05 0.0000000e+00 
0.0000000e+00 -2.1234853e-05 0.0000000e+00 
0.0000000e+00 -2.1241789e-05 0.0000000e+00 
0.0000000e+00 -2.1298107e-05 0.0000000e+00 
0.0000000e+00 -2.1195732e-05 0.0000000e+00 
CELL_DATA 100
FIELD FieldData 0
