# vtk DataFile Version 4.0
vtk output
ASCII
DATASET UNSTRUCTURED_GRID
POINTS 1920 float
0.0000000e+00 0.0000000e+00 0.0000000e+00 
0.0000000e+00 0.0000000e+00 5.0000000e+01 
5.0000000e+00 0.0000000e+00 0.0000000e+00 
5.0000000e+00 0.0000000e+00 5.0000000e+01 
5.0000000e+00 1.0000000e+00 0.0000000e+00 
5.0000000e+00 1.0000000e+00 5.0000000e+01 
0.0000000e+00 1.0000000e+00 0.0000000e+00 
0.0000000e+00 1.0000000e+00 5.0000000e+01 
5.0000000e+00 2.0000000e+00 0.0000000e+00 
5.0000000e+00 2.0000000e+00 5.0000000e+01 
3.0000000e+00 2.0000000e+00 0.0000000e+00 
3.0000000e+00 2.0000000e+00 5.0000000e+01 
0.0000000e+00 2.0000000e+00 0.0000000e+00 
0.0000000e+00 2.0000000e+00 5.0000000e+01 
1.5000000e+00 3.0000000e+00 0.0000000e+00 
1.5000000e+00 3.0000000e+00 5.0000000e+01 
7.5000000e-01 3.0000000e+00 0.0000000e+00 
7.5000000e-01 3.0000000e+00 5.0000000e+01 
0.0000000e+00 3.0000000e+00 0.0000000e+00 
0.0000000e+00 3.0000000e+00 5.0000000e+01 
7.5000000e-01 3.0000000e+00 5.0000000e-01 
7.5000000e-01 3.0000000e+00 1.0000000e+00 
7.5000000e-01 3.0000000e+00 1.5000000e+00 
7.5000000e-01 3.0000000e+00 2.0000000e+00 
7.5000000e-01 3.0000000e+00 2.5000000e+00 
7.5000000e-01 3.0000000e+00 3.0000000e+00 
7.5000000e-01 3.0000000e+00 3.5000000e+00 
7.5000000e-01 3.0000000e+00 4.0000000e+00 
7.5000000e-01 3.0000000e+00 4.5000000e+00 
7.5000000e-01 3.0000000e+00 5.0000000e+00 
7.5000000e-01 3.0000000e+00 5.5000000e+00 
7.5000000e-01 3.0000000e+00 6.0000000e+00 
7.5000000e-01 3.0000000e+00 6.5000000e+00 
7.5000000e-01 3.0000000e+00 7.0000000e+00 
7.5000000e-01 3.0000000e+00 7.5000000e+00 
7.5000000e-01 3.0000000e+00 8.0000000e+00 
7.5000000e-01 3.0000000e+00 8.5000000e+00 
7.5000000e-01 3.0000000e+00 9.0000000e+00 
7.5000000e-01 3.0000000e+00 9.5000000e+00 
7.5000000e-01 3.0000000e+00 1.0000000e+01 
7.5000000e-01 3.0000000e+00 1.0500000e+01 
7.5000000e-01 3.0000000e+00 1.1000000e+01 
7.5000000e-01 3.0000000e+00 1.1500000e+01 
7.5000000e-01 3.0000000e+00 1.2000000e+01 
7.5000000e-01 3.0000000e+00 1.2500000e+01 
7.5000000e-01 3.0000000e+00 1.3000000e+01 
7.5000000e-01 3.0000000e+00 1.3500000e+01 
7.5000000e-01 3.0000000e+00 1.4000000e+01 
7.5000000e-01 3.0000000e+00 1.4500000e+01 
7.5000000e-01 3.0000000e+00 1.5000000e+01 
7.5000000e-01 3.0000000e+00 1.5500000e+01 
7.5000000e-01 3.0000000e+00 1.6000000e+01 
7.5000000e-01 3.0000000e+00 1.6500000e+01 
7.5000000e-01 3.0000000e+00 1.7000000e+01 
7.5000000e-01 3.0000000e+00 1.7500000e+01 
7.5000000e-01 3.0000000e+00 1.8000000e+01 
7.5000000e-01 3.0000000e+00 1.8500000e+01 
7.5000000e-01 3.0000000e+00 1.9000000e+01 
7.5000000e-01 3.0000000e+00 1.9500000e+01 
7.5000000e-01 3.0000000e+00 2.0000000e+01 
7.5000000e-01 3.0000000e+00 2.0500000e+01 
7.5000000e-01 3.0000000e+00 2.1000000e+01 
7.5000000e-01 3.0000000e+00 2.1500000e+01 
7.5000000e-01 3.0000000e+00 2.2000000e+01 
7.5000000e-01 3.0000000e+00 2.2500000e+01 
7.5000000e-01 3.0000000e+00 2.3000000e+01 
7.5000000e-01 3.0000000e+00 2.3500000e+01 
7.5000000e-01 3.0000000e+00 2.4000000e+01 
7.5000000e-01 3.0000000e+00 2.4500000e+01 
7.5000000e-01 3.0000000e+00 2.5000000e+01 
7.5000000e-01 3.0000000e+00 2.5500000e+01 
7.5000000e-01 3.0000000e+00 2.6000000e+01 
7.5000000e-01 3.0000000e+00 2.6500000e+01 
7.5000000e-01 3.0000000e+00 2.7000000e+01 
7.5000000e-01 3.0000000e+00 2.7500000e+01 
7.5000000e-01 3.0000000e+00 2.8000000e+01 
7.5000000e-01 3.0000000e+00 2.8500000e+01 
7.5000000e-01 3.0000000e+00 2.9000000e+01 
7.5000000e-01 3.0000000e+00 2.9500000e+01 
7.5000000e-01 3.0000000e+00 3.0000000e+01 
7.5000000e-01 3.0000000e+00 3.0500000e+01 
7.5000000e-01 3.0000000e+00 3.1000000e+01 
7.5000000e-01 3.0000000e+00 3.1500000e+01 
7.5000000e-01 3.0000000e+00 3.2000000e+01 
7.5000000e-01 3.0000000e+00 3.2500000e+01 
7.5000000e-01 3.0000000e+00 3.3000000e+01 
7.5000000e-01 3.0000000e+00 3.3500000e+01 
7.5000000e-01 3.0000000e+00 3.4000000e+01 
7.5000000e-01 3.0000000e+00 3.4500000e+01 
7.5000000e-01 3.0000000e+00 3.5000000e+01 
7.5000000e-01 3.0000000e+00 3.5500000e+01 
7.5000000e-01 3.0000000e+00 3.6000000e+01 
7.5000000e-01 3.0000000e+00 3.6500000e+01 
7.5000000e-01 3.0000000e+00 3.7000000e+01 
7.5000000e-01 3.0000000e+00 3.7500000e+01 
7.5000000e-01 3.0000000e+00 3.8000000e+01 
7.5000000e-01 3.0000000e+00 3.8500000e+01 
7.5000000e-01 3.0000000e+00 3.9000000e+01 
7.5000000e-01 3.0000000e+00 3.9500000e+01 
7.5000000e-01 3.0000000e+00 4.0000000e+01 
7.5000000e-01 3.0000000e+00 4.0500000e+01 
7.5000000e-01 3.0000000e+00 4.1000000e+01 
7.5000000e-01 3.0000000e+00 4.1500000e+01 
7.5000000e-01 3.0000000e+00 4.2000000e+01 
7.5000000e-01 3.0000000e+00 4.2500000e+01 
7.5000000e-01 3.0000000e+00 4.3000000e+01 
7.5000000e-01 3.0000000e+00 4.3500000e+01 
7.5000000e-01 3.0000000e+00 4.4000000e+01 
7.5000000e-01 3.0000000e+00 4.4500000e+01 
7.5000000e-01 3.0000000e+00 4.5000000e+01 
7.5000000e-01 3.0000000e+00 4.5500000e+01 
7.5000000e-01 3.0000000e+00 4.6000000e+01 
7.5000000e-01 3.0000000e+00 4.6500000e+01 
7.5000000e-01 3.0000000e+00 4.7000000e+01 
7.5000000e-01 3.0000000e+00 4.7500000e+01 
7.5000000e-01 3.0000000e+00 4.8000000e+01 
7.5000000e-01 3.0000000e+00 4.8500000e+01 
7.5000000e-01 3.0000000e+00 4.9000000e+01 
7.5000000e-01 3.0000000e+00 4.9500000e+01 
7.5000000e-01 3.0250001e+00 0.0000000e+00 
7.5000000e-01 3.0250001e+00 5.0000000e-01 
7.5000000e-01 3.0250001e+00 1.0000000e+00 
7.5000000e-01 3.0250001e+00 1.5000000e+00 
7.5000000e-01 3.0250001e+00 2.0000000e+00 
7.5000000e-01 3.0250001e+00 2.5000000e+00 
7.5000000e-01 3.0250001e+00 3.0000000e+00 
7.5000000e-01 3.0250001e+00 3.5000000e+00 
7.5000000e-01 3.0250001e+00 4.0000000e+00 
7.5000000e-01 3.0250001e+00 4.5000000e+00 
7.5000000e-01 3.0250001e+00 5.0000000e+00 
7.5000000e-01 3.0250001e+00 5.5000000e+00 
7.5000000e-01 3.0250001e+00 6.0000000e+00 
7.5000000e-01 3.0250001e+00 6.5000000e+00 
7.5000000e-01 3.0250001e+00 7.0000000e+00 
7.5000000e-01 3.0250001e+00 7.5000000e+00 
7.5000000e-01 3.0250001e+00 8.0000000e+00 
7.5000000e-01 3.0250001e+00 8.5000000e+00 
7.5000000e-01 3.0250001e+00 9.0000000e+00 
7.5000000e-01 3.0250001e+00 9.5000000e+00 
7.5000000e-01 3.0250001e+00 1.0000000e+01 
7.5000000e-01 3.0250001e+00 1.0500000e+01 
7.5000000e-01 3.0250001e+00 1.1000000e+01 
7.5000000e-01 3.0250001e+00 1.1500000e+01 
7.5000000e-01 3.0250001e+00 1.2000000e+01 
7.5000000e-01 3.0250001e+00 1.2500000e+01 
7.5000000e-01 3.0250001e+00 1.3000000e+01 
7.5000000e-01 3.0250001e+00 1.3500000e+01 
7.5000000e-01 3.0250001e+00 1.4000000e+01 
7.5000000e-01 3.0250001e+00 1.4500000e+01 
7.5000000e-01 3.0250001e+00 1.5000000e+01 
7.5000000e-01 3.0250001e+00 1.5500000e+01 
7.5000000e-01 3.0250001e+00 1.6000000e+01 
7.5000000e-01 3.0250001e+00 1.6500000e+01 
7.5000000e-01 3.0250001e+00 1.7000000e+01 
7.5000000e-01 3.0250001e+00 1.7500000e+01 
7.5000000e-01 3.0250001e+00 1.8000000e+01 
7.5000000e-01 3.0250001e+00 1.8500000e+01 
7.5000000e-01 3.0250001e+00 1.9000000e+01 
7.5000000e-01 3.0250001e+00 1.9500000e+01 
7.5000000e-01 3.0250001e+00 2.0000000e+01 
7.5000000e-01 3.0250001e+00 2.0500000e+01 
7.5000000e-01 3.0250001e+00 2.1000000e+01 
7.5000000e-01 3.0250001e+00 2.1500000e+01 
7.5000000e-01 3.0250001e+00 2.2000000e+01 
7.5000000e-01 3.0250001e+00 2.2500000e+01 
7.5000000e-01 3.0250001e+00 2.3000000e+01 
7.5000000e-01 3.0250001e+00 2.3500000e+01 
7.5000000e-01 3.0250001e+00 2.4000000e+01 
7.5000000e-01 3.0250001e+00 2.4500000e+01 
7.5000000e-01 3.0250001e+00 2.5000000e+01 
7.5000000e-01 3.0250001e+00 2.5500000e+01 
7.5000000e-01 3.0250001e+00 2.6000000e+01 
7.5000000e-01 3.0250001e+00 2.6500000e+01 
7.5000000e-01 3.0250001e+00 2.7000000e+01 
7.5000000e-01 3.0250001e+00 2.7500000e+01 
7.5000000e-01 3.0250001e+00 2.8000000e+01 
7.5000000e-01 3.0250001e+00 2.8500000e+01 
7.5000000e-01 3.0250001e+00 2.9000000e+01 
7.5000000e-01 3.0250001e+00 2.9500000e+01 
7.5000000e-01 3.0250001e+00 3.0000000e+01 
7.5000000e-01 3.0250001e+00 3.0500000e+01 
7.5000000e-01 3.0250001e+00 3.1000000e+01 
7.5000000e-01 3.0250001e+00 3.1500000e+01 
7.5000000e-01 3.0250001e+00 3.2000000e+01 
7.5000000e-01 3.0250001e+00 3.2500000e+01 
7.5000000e-01 3.0250001e+00 3.3000000e+01 
7.5000000e-01 3.0250001e+00 3.3500000e+01 
7.5000000e-01 3.0250001e+00 3.4000000e+01 
7.5000000e-01 3.0250001e+00 3.4500000e+01 
7.5000000e-01 3.0250001e+00 3.5000000e+01 
7.5000000e-01 3.0250001e+00 3.5500000e+01 
7.5000000e-01 3.0250001e+00 3.6000000e+01 
7.5000000e-01 3.0250001e+00 3.6500000e+01 
7.5000000e-01 3.0250001e+00 3.7000000e+01 
7.5000000e-01 3.0250001e+00 3.7500000e+01 
7.5000000e-01 3.0250001e+00 3.8000000e+01 
7.5000000e-01 3.0250001e+00 3.8500000e+01 
7.5000000e-01 3.0250001e+00 3.9000000e+01 
7.5000000e-01 3.0250001e+00 3.9500000e+01 
7.5000000e-01 3.0250001e+00 4.0000000e+01 
7.5000000e-01 3.0250001e+00 4.0500000e+01 
7.5000000e-01 3.0250001e+00 4.1000000e+01 
7.5000000e-01 3.0250001e+00 4.1500000e+01 
7.5000000e-01 3.0250001e+00 4.2000000e+01 
7.5000000e-01 3.0250001e+00 4.2500000e+01 
7.5000000e-01 3.0250001e+00 4.3000000e+01 
7.5000000e-01 3.0250001e+00 4.3500000e+01 
7.5000000e-01 3.0250001e+00 4.4000000e+01 
7.5000000e-01 3.0250001e+00 4.4500000e+01 
7.5000000e-01 3.0250001e+00 4.5000000e+01 
7.5000000e-01 3.0250001e+00 4.5500000e+01 
7.5000000e-01 3.0250001e+00 4.6000000e+01 
7.5000000e-01 3.0250001e+00 4.6500000e+01 
7.5000000e-01 3.0250001e+00 4.7000000e+01 
7.5000000e-01 3.0250001e+00 4.7500000e+01 
7.5000000e-01 3.0250001e+00 4.8000000e+01 
7.5000000e-01 3.0250001e+00 4.8500000e+01 
7.5000000e-01 3.0250001e+00 4.9000000e+01 
7.5000000e-01 3.0250001e+00 4.9500000e+01 
7.5000000e-01 3.0250001e+00 5.0000000e+01 
7.5000000e-01 3.0250001e+00 3.5750000e+01 
3.0000000e+00 2.0000000e+00 3.6000000e+01 
8.0487806e-01 3.0000000e+00 3.6000000e+01 
0.0000000e+00 0.0000000e+00 1.0000000e+00 
0.0000000e+00 0.0000000e+00 2.0000000e+00 
0.0000000e+00 0.0000000e+00 3.0000000e+00 
0.0000000e+00 0.0000000e+00 4.0000000e+00 
0.0000000e+00 0.0000000e+00 5.0000000e+00 
0.0000000e+00 0.0000000e+00 6.0000000e+00 
0.0000000e+00 0.0000000e+00 7.0000000e+00 
[...]
POINT_DATA 1920
FIELD FieldData 3
DISPLACEMENT 3 1920  float
0.0000000e+00 0.0000000e+00 0.0000000e+00 
0.0000000e+00 0.0000000e+00 0.0000000e+00 
0.0000000e+00 0.0000000e+00 0.0000000e+00 
0.0000000e+00 0.0000000e+00 0.0000000e+00 
-2.6072171e-06 1.9615459e-06 1.1652625e-06 
-8.9162135e-09 6.6396638e-07 -7.0997584e-07 
0.0000000e+00 1.3844538e-05 0.0000000e+00 
0.0000000e+00 -1.4019611e-05 0.0000000e+00 
-5.7816845e-08 -3.0855922e-06 -4.7711922e-07 
-7.9252192e-07 9.8208727e-07 -1.5349923e-06 
1.1978730e-06 1.7180984e-06 2.6337619e-07 
-1.4500794e-06 1.6251290e-06 -3.2135270e-06 
0.0000000e+00 4.4461332e-05 0.0000000e+00 
0.0000000e+00 -3.4328659e-05 0.0000000e+00 
5.6654517e-06 4.1072461e-05 1.2167387e-05 
-5.9979334e-06 -2.4199426e-05 -6.6520270e-06 
1.4824661e-05 8.3118139e-06 6.3608063e-06 
-5.7938960e-06 -6.5148097e-06 -1.9558902e-05 
0.0000000e+00 7.9422141e-05 0.0000000e+00 
0.0000000e+00 -8.3202503e-05 0.0000000e+00 
5.2381597e-06 9.2109649e-06 2.3204288e-05 
-5.6443025e-07 7.8810572e-06 2.6758451e-05 
-7.7471223e-06 -3.3933222e-06 1.6417252e-05 
-9.4619918e-06 -2.7623006e-05 -9.1009520e-07 
-4.5839429e-06 -5.7862642e-05 -1.7992064e-05 
-1.0770728e-05 -7.8388293e-05 -2.4419982e-05 
-8.8986908e-06 -7.7672594e-05 -2.3956754e-05 
-1.3200484e-05 -6.0650429e-05 -2.2214896e-05 
-1.8887922e-05 -4.1503623e-05 -2.4278732e-05 
-2.2350250e-05 -2.9269719e-05 -2.5230553e-05 
-1.3936134e-05 -2.1213233e-05 -3.6105379e-05 
-2.6151915e-06 -4.9374416e-06 -3.2155443e-05 
2.2201722e-05 2.7552058e-05 -2.1959500e-05 
6.5032345e-06 7.2984563e-05 -6.6741109e-06 
3.6392253e-06 1.1431497e-04 7.0022634e-06 
1.2989030e-05 1.3545543e-04 2.6868143e-05 
2.2599830e-05 1.3442936e-04 2.4653400e-05 
2.3765555e-05 1.2981037e-04 3.6155641e-05 
1.7916343e-05 1.4546167e-04 4.8539219e-05 
2.9237495e-05 1.9486998e-04 6.2786348e-05 
4.5667410e-05 2.5551708e-04 8.3502542e-05 
4.9313276e-05 2.7725124e-04 9.3736264e-05 
3.0672418e-05 2.2724821e-04 1.0910132e-04 
1.8874554e-05 1.0206662e-04 1.2405717e-04 
-2.8046055e-05 -9.4028444e-05 1.6474631e-04 
-4.9961025e-05 -3.9329837e-04 1.4964442e-04 
-8.0006874e-05 -8.8834774e-04 2.5074300e-04 
-1.1800518e-04 -1.6807334e-03 1.7620255e-04 
-1.4894718e-04 -2.8052048e-03 2.8998533e-04 
-2.1008322e-04 -4.0811044e-03 9.9831726e-05 
-2.6553453e-04 -5.0231880e-03 1.2004776e-04 
-2.9096258e-04 -5.0315596e-03 1.5197216e-06 
-2.7864633e-04 -4.6912828e-03 -3.5240319e-05 
-2.7442517e-04 -4.5298114e-03 -7.9489168e-05 
-2.4555356e-04 -4.6811989e-03 -7.8625533e-05 
-2.6233974e-04 -4.6762913e-03 -1.2871655e-04 
-2.5079749e-04 -3.9366460e-03 -2.0832465e-04 
-2.1303073e-04 -2.8095087e-03 -1.2850967e-04 
-1.6319449e-04 -1.7450416e-03 -2.0741322e-04 
-1.1927061e-04 -9.3045906e-04 -1.2114485e-04 
-8.9835215e-05 -4.1597258e-04 -1.6539823e-04 
-6.4537751e-05 -1.4915309e-04 -1.2831351e-04 
-3.3218181e-05 -4.4862591e-05 -1.1764798e-04 
-2.9860797e-05 -2.9871675e-05 -8.9236855e-05 
-2.4557143e-05 -5.4538916e-05 -5.7729121e-05 
-3.5189285e-05 -9.2637856e-05 -5.2311752e-05 
-3.1490275e-05 -1.2415000e-04 -4.4530065e-05 
-3.4966513e-05 -1.3487556e-04 -4.4219745e-05 
-1.9009796e-05 -1.2368856e-04 -3.7643593e-05 
-2.0247213e-05 -1.0499384e-04 -2.9103887e-05 
-2.8137471e-05 -8.8218170e-05 -2.8082830e-05 
-2.1082513e-05 -6.6419168e-05 -3.4296725e-05 
5.9363729e-06 -2.2136448e-05 -4.5428460e-05 
1.8587441e-05 5.3391832e-05 -3.6089907e-05 
3.1897449e-05 1.4130944e-04 -1.5596343e-05 
3.1462292e-05 2.0930580e-04 2.3335544e-05 
3.5239449e-05 2.3124524e-04 3.9537914e-05 
2.7049269e-05 2.1129202e-04 5.6844387e-05 
1.6132790e-05 1.8217508e-04 4.6273337e-05 
2.1141233e-05 1.8746591e-04 3.1213905e-05 
2.3218041e-05 2.4095151e-04 4.5917874e-05 
3.4939570e-05 3.1049387e-04 4.8296810e-05 
3.5498102e-05 3.3183358e-04 7.7301105e-05 
3.1031814e-05 2.3664311e-04 1.2084987e-04 
1.5936743e-05 -3.7794059e-06 1.5712407e-04 
-1.7383045e-05 -4.0307056e-04 1.7873225e-04 
-4.1698280e-05 -1.0047664e-03 2.8013543e-04 
-9.8479788e-05 -1.8561002e-03 1.6069913e-04 
-1.4207821e-04 -2.9860642e-03 2.5554714e-04 
3.6990019e-05 -4.2385063e-03 4.5116793e-04 
-1.8909163e-04 -5.0887587e-03 3.0623507e-04 
-2.3281532e-04 -5.0729238e-03 1.4205060e-04 
-2.6790850e-04 -4.7821701e-03 3.8935697e-05 
-2.0002367e-04 -4.6890876e-03 -5.1910632e-05 
-3.2950140e-04 -4.8803352e-03 -8.1332699e-05 
-3.0005525e-04 -4.8030601e-03 -1.3598606e-04 
-2.6393688e-04 -3.9150543e-03 -2.7600420e-04 
-1.8853154e-04 -2.6520018e-03 -2.2664355e-04 
-1.2247309e-04 -1.5081580e-03 -3.2727365e-04 
-6.9110443e-05 -6.6660059e-04 -2.0373952e-04 
-2.8730776e-05 -1.5083177e-04 -1.9567912e-04 
-6.5936215e-06 1.1310353e-04 -1.1267743e-04 
1.4644497e-05 2.1023382e-04 -7.1152943e-05 
1.4724247e-05 2.0327812e-04 -4.1523552e-05 
1.5289814e-05 1.3441911e-04 -1.3335974e-05 
1.4448327e-05 4.1425006e-05 7.9467563e-06 
-1.0058106e-05 -4.0202085e-05 -7.7407112e-06 
-1.0834031e-05 -8.3386563e-05 -5.9130953e-06 
-1.4927675e-06 -8.4284729e-05 1.8074545e-06 
8.0738218e-06 -5.8522619e-05 1.1623867e-05 
1.4087489e-05 -2.4516074e-05 2.1636904e-05 
1.0986942e-05 7.1923396e-06 2.9128516e-05 
7.8499334e-06 3.1935324e-05 2.4332803e-05 
7.6910501e-06 4.7756032e-05 1.9004694e-05 
3.9904776e-06 5.2108633e-05 1.4571052e-05 
3.5190595e-07 4.4760320e-05 1.7415954e-05 
-3.0532210e-06 2.8839753e-05 2.5843114e-05 
-6.5979148e-06 1.1385825e-05 2.9253411e-05 
-9.6455233e-06 -1.8040211e-06 1.7261484e-05 
0.0000000e+00 8.5503971e-06 0.0000000e+00 
0.0000000e+00 9.3493982e-06 0.0000000e+00 
0.0000000e+00 7.6518290e-06 0.0000000e+00 
0.0000000e+00 -3.8906906e-06 0.0000000e+00 
0.0000000e+00 -2.8087547e-05 0.0000000e+00 
0.0000000e+00 -5.7744397e-05 0.0000000e+00 
0.0000000e+00 -7.7660123e-05 0.0000000e+00 
0.0000000e+00 -7.7191668e-05 0.0000000e+00 
0.0000000e+00 -6.0830625e-05 0.0000000e+00 
0.0000000e+00 -4.2078969e-05 0.0000000e+00 
0.0000000e+00 -2.9852394e-05 0.0000000e+00 
0.0000000e+00 -2.1240739e-05 0.0000000e+00 
0.0000000e+00 -4.5368461e-06 0.0000000e+00 
0.0000000e+00 2.8260496e-05 0.0000000e+00 
0.0000000e+00 7.3077630e-05 0.0000000e+00 
0.0000000e+00 1.1380828e-04 0.0000000e+00 
0.0000000e+00 1.3455930e-04 0.0000000e+00 
0.0000000e+00 1.3385716e-04 0.0000000e+00 
0.0000000e+00 1.2982542e-04 0.0000000e+00 
0.0000000e+00 1.4714207e-04 0.0000000e+00 
0.0000000e+00 1.9674374e-04 0.0000000e+00 
0.0000000e+00 2.5551094e-04 0.0000000e+00 
0.0000000e+00 2.7623601e-04 0.0000000e+00 
0.0000000e+00 2.2650539e-04 0.0000000e+00 
0.0000000e+00 1.0334734e-04 0.0000000e+00 
0.0000000e+00 -9.1302536e-05 0.0000000e+00 
0.0000000e+00 -3.9261527e-04 0.0000000e+00 
0.0000000e+00 -8.9090236e-04 0.0000000e+00 
0.0000000e+00 -1.6905310e-03 0.0000000e+00 
0.0000000e+00 -2.8213689e-03 0.0000000e+00 
0.0000000e+00 -4.1081938e-03 0.0000000e+00 
0.0000000e+00 -5.0439802e-03 0.0000000e+00 
0.0000000e+00 -5.0571542e-03 0.0000000e+00 
0.0000000e+00 -4.7125136e-03 0.0000000e+00 
0.0000000e+00 -4.5601930e-03 0.0000000e+00 
0.0000000e+00 -4.7067171e-03 0.0000000e+00 
0.0000000e+00 -4.7046454e-03 0.0000000e+00 
0.0000000e+00 -3.9533242e-03 0.0000000e+00 
0.0000000e+00 -2.8239090e-03 0.0000000e+00 
0.0000000e+00 -1.7525358e-03 0.0000000e+00 
0.0000000e+00 -9.3540130e-04 0.0000000e+00 
0.0000000e+00 -4.1710603e-04 0.0000000e+00 
0.0000000e+00 -1.4795577e-04 0.0000000e+00 
0.0000000e+00 -4.3486310e-05 0.0000000e+00 
0.0000000e+00 -2.8956414e-05 0.0000000e+00 
0.0000000e+00 -5.4536558e-05 0.0000000e+00 
0.0000000e+00 -9.2486807e-05 0.0000000e+00 
0.0000000e+00 -1.2347073e-04 0.0000000e+00 
0.0000000e+00 -1.3404497e-04 0.0000000e+00 
0.0000000e+00 -1.2383879e-04 0.0000000e+00 
0.0000000e+00 -1.0579129e-04 0.0000000e+00 
0.0000000e+00 -8.8990899e-05 0.0000000e+00 
0.0000000e+00 -6.6342400e-05 0.0000000e+00 
0.0000000e+00 -2.0957978e-05 0.0000000e+00 
0.0000000e+00 5.4200897e-05 0.0000000e+00 
0.0000000e+00 1.4135912e-04 0.0000000e+00 
0.0000000e+00 2.0806504e-04 0.0000000e+00 
0.0000000e+00 2.2976573e-04 0.0000000e+00 
0.0000000e+00 2.1042829e-04 0.0000000e+00 
0.0000000e+00 1.8313203e-04 0.0000000e+00 
0.0000000e+00 1.8956738e-04 0.0000000e+00 
0.0000000e+00 2.4321945e-04 0.0000000e+00 
0.0000000e+00 3.1173002e-04 0.0000000e+00 
0.0000000e+00 3.3031093e-04 0.0000000e+00 
0.0000000e+00 2.3544933e-04 0.0000000e+00 
0.0000000e+00 -3.2464425e-06 0.0000000e+00 
0.0000000e+00 -4.0324306e-04 0.0000000e+00 
0.0000000e+00 -1.0052565e-03 0.0000000e+00 
0.0000000e+00 -1.8653891e-03 0.0000000e+00 
0.0000000e+00 -3.0052683e-03 0.0000000e+00 
0.0000000e+00 -4.2569758e-03 0.0000000e+00 
0.0000000e+00 -5.1166010e-03 0.0000000e+00 
0.0000000e+00 -5.1012393e-03 0.0000000e+00 
0.0000000e+00 -4.8017888e-03 0.0000000e+00 
0.0000000e+00 -4.7213938e-03 0.0000000e+00 
0.0000000e+00 -4.9021314e-03 0.0000000e+00 
0.0000000e+00 -4.8319353e-03 0.0000000e+00 
0.0000000e+00 -3.9332234e-03 0.0000000e+00 
0.0000000e+00 -2.6681456e-03 0.0000000e+00 
0.0000000e+00 -1.5160079e-03 0.0000000e+00 
0.0000000e+00 -6.7045615e-04 0.0000000e+00 
0.0000000e+00 -1.5077353e-04 0.0000000e+00 
0.0000000e+00 1.1427826e-04 0.0000000e+00 
0.0000000e+00 2.1102482e-04 0.0000000e+00 
0.0000000e+00 2.0348540e-04 0.0000000e+00 
0.0000000e+00 1.3479337e-04 0.0000000e+00 
0.0000000e+00 4.2096432e-05 0.0000000e+00 
0.0000000e+00 -3.9022529e-05 0.0000000e+00 
0.0000000e+00 -8.2595267e-05 0.0000000e+00 
0.0000000e+00 -8.4352258e-05 0.0000000e+00 
0.0000000e+00 -5.8998055e-05 0.0000000e+00 
0.0000000e+00 -2.4755600e-05 0.0000000e+00 
0.0000000e+00 7.1511590e-06 0.0000000e+00 
0.0000000e+00 3.1985506e-05 0.0000000e+00 
0.0000000e+00 4.7613325e-05 0.0000000e+00 
0.0000000e+00 5.1900439e-05 0.0000000e+00 
0.0000000e+00 4.4549157e-05 0.0000000e+00 
0.0000000e+00 2.8912451e-05 0.0000000e+00 
0.0000000e+00 1.1503455e-05 0.0000000e+00 
0.0000000e+00 -1.6362853e-06 0.0000000e+00 
0.0000000e+00 -6.4595838e-06 0.0000000e+00 
0.0000000e+00 -5.2012093e-03 0.0000000e+00 
7.4118943e-05 -9.4342533e-05 3.3976846e-06 
-2.5610530e-04 -4.6346579e-03 1.4285096e-04 
0.0000000e+00 0.0000000e+00 0.0000000e+00 
0.0000000e+00 0.0000000e+00 0.0000000e+00 
0.0000000e+00 0.0000000e+00 0.0000000e+00 
0.0000000e+00 0.0000000e+00 0.0000000e+00 
0.0000000e+00 0.0000000e+00 0.0000000e+00 
0.0000000e+00 0.0000000e+00 0.0000000e+00 
0.0000000e+00 0.0000000e+00 0.0000000e+00 
0.0000000e+00 0.0000000e+00 0.0000000e+00 
0.0000000e+00 0.0000000e+00 0.0000000e+00 
0.0000000e+00 0.0000000e+00 0.0000000e+00 
0.0000000e+00 0.0000000e+00 0.0000000e+00 
0.0000000e+00 0.0000000e+00 0.0000000e+00 
0.0000000e+00 0.0000000e+00 0.0000000e+00 
0.0000000e+00 0.0000000e+00 0.0000000e+00 
0.0000000e+00 0.0000000e+00 0.0000000e+00 
0.0000000e+00 0.0000000e+00 0.0000000e+00 
0.0000000e+00 0.0000000e+00 0.0000000e+00 
0.0000000e+00 0.0000000e+00 0.0000000e+00 
0.0000000e+00 0.0000000e+00 0.0000000e+00 
0.0000000e+00 0.0000000e+00 0.0000000e+00 
0.0000000e+00 0.0000000e+00 0.0000000e+00 
0.0000000e+00 0.0000000e+00 0.0000000e+00 
0.0000000e+00 0.0000000e+00 0.0000000e+00 
0.0000000e+00 0.0000000e+00 0.0000000e+00 
0.0000000e+00 0.0000000e+00 0.0000000e+00 
0.0000000e+00 0.0000000e+00 0.0000000e+00 
0.0000000e+00 0.0000000e+00 0.0000000e+00 
0.0000000e+00 0.0000000e+00 0.0000000e+00 
0.0000000e+00 0.0000000e+00 0.0000000e+00 
0.0000000e+00 0.0000000e+00 0.0000000e+00 
0.0000000e+00 0.0000000e+00 0.0000000e+00 
0.0000000e+00 0.0000000e+00 0.0000000e+00 
0.0000000e+00 0.0000000e+00 0.0000000e+00 
0.0000000e+00 0.0000000e+00 0.0000000e+00 
0.0000000e+00 0.0000000e+00 0.0000000e+00 
0.0000000e+00 0.0000000e+00 0.0000000e+00 
0.0000000e+00 0.0000000e+00 0.0000000e+00 
0.0000000e+00 0.0000000e+00 0.0000000e+00 
0.0000000e+00 0.0000000e+00 0.0000000e+00 
0.0000000e+00 0.0000000e+00 0.0000000e+00 
0.0000000e+00 0.0000000e+00 0.0000000e+00 
0.0000000e+00 0.0000000e+00 0.0000000e+00 
0.0000000e+00 0.0000000e+00 0.0000000e+00 
0.0000000e+00 0.0000000e+00 0.0000000e+00 
0.0000000e+00 0.0000000e+00 0.0000000e+00 
0.0000000e+00 0.0000000e+00 0.0000000e+00 
0.0000000e+00 0.0000000e+00 0.0000000e+00 
0.0000000e+00 0.0000000e+00 0.0000000e+00 
0.0000000e+00 0.0000000e+00 0.0000000e+00 
0.0000000e+00 0.0000000e+00 0.0000000e+00 
0.0000000e+00 0.0000000e+00 0.0000000e+00 
0.0000000e+00 0.0000000e+00 0.0000000e+00 
0.0000000e+00 0.0000000e+00 0.0000000e+00 
0.0000000e+00 0.0000000e+00 0.0000000e+00 
0.0000000e+00 0.0000000e+00 0.0000000e+00 
0.0000000e+00 0.0000000e+00 0.0000000e+00 
0.0000000e+00 0.0000000e+00 0.0000000e+00 
0.0000000e+00 0.0000000e+00 0.0000000e+00 
0.0000000e+00 0.0000000e+00 0.0000000e+00 
0.0000000e+00 0.0000000e+00 0.0000000e+00 
0.0000000e+00 0.0000000e+00 0.0000000e+00 
0.0000000e+00 0.0000000e+00 0.0000000e+00 
0.0000000e+00 0.0000000e+00 0.0000000e+00 
0.0000000e+00 0.0000000e+00 0.0000000e+00 
0.0000000e+00 0.0000000e+00 0.0000000e+00 
0.0000000e+00 0.0000000e+00 0.0000000e+00 
0.0000000e+00 0.0000000e+00 0.0000000e+00 
0.0000000e+00 0.0000000e+00 0.0000000e+00 
0.0000000e+00 0.0000000e+00 0.0000000e+00 
0.0000000e+00 0.0000000e+00 0.0000000e+00 
0.0000000e+00 0.0000000e+00 0.0000000e+00 
0.0000000e+00 0.0000000e+00 0.0000000e+00 
0.0000000e+00 0.0000000e+00 0.0000000e+00 
0.0000000e+00 0.0000000e+00 0.0000000e+00 
0.0000000e+00 0.0000000e+00 0.0000000e+00 
0.0000000e+00 0.0000000e+00 0.0000000e+00 
0.0000000e+00 0.0000000e+00 0.0000000e+00 
0.0000000e+00 0.0000000e+00 0.0000000e+00 
0.0000000e+00 0.0000000e+00 0.0000000e+00 
0.0000000e+00 0.0000000e+00 0.0000000e+00 
0.0000000e+00 0.0000000e+00 0.0000000e+00 
0.0000000e+00 0.0000000e+00 0.0000000e+00 
0.0000000e+00 0.0000000e+00 0.0000000e+00 
0.0000000e+00 0.0000000e+00 0.0000000e+00 
0.0000000e+00 0.0000000e+00 0.0000000e+00 
0.0000000e+00 0.0000000e+00 0.0000000e+00 
0.0000000e+00 0.0000000e+00 0.0000000e+00 
0.0000000e+00 0.0000000e+00 0.0000000e+00 
0.0000000e+00 0.0000000e+00 0.0000000e+00 
0.0000000e+00 0.0000000e+00 0.0000000e+00 
0.0000000e+00 0.0000000e+00 0.0000000e+00 
0.0000000e+00 0.0000000e+00 0.0000000e+00 
0.0000000e+00 0.0000000e+00 0.0000000e+00 
0.0000000e+00 0.0000000e+00 0.0000000e+00 
0.0000000e+00 0.0000000e+00 0.0000000e+00 
0.0000000e+00 0.0000000e+00 0.0000000e+00 
0.0000000e+00 0.0000000e+00 0.0000000e+00 
0.0000000e+00 0.0000000e+00 0.0000000e+00 
0.0000000e+00 0.0000000e+00 0.0000000e+00 
0.0000000e+00 0.0000000e+00 0.0000000e+00 
0.0000000e+00 0.0000000e+00 0.0000000e+00 
0.0000000e+00 0.0000000e+00 0.0000000e+00 
0.0000000e+00 0.0000000e+00 0.0000000e+00 
0.0000000e+00 0.0000000e+00 0.0000000e+00 
0.0000000e+00 0.0000000e+00 0.0000000e+00 
0.0000000e+00 0.0000000e+00 0.0000000e+00 
-5.6474897e-07 -8.9630396e-07 8.0659777e-07 
2.1000801e-06 2.3811808e-07 -4.7923589e-07 
-7.2281807e-07 1.5355665e-06 8.4625066e-07 
-2.7659607e-06 3.9619331e-07 7.1989462e-07 
-1.6751210e-07 -1.4945307e-06 -9.3551643e-07 
-4.0659168e-07 1.7114373e-06 4.4195813e-06 
-6.6653149e-07 -6.9480734e-07 6.1215401e-06 
-2.5498289e-06 -3.9595543e-06 1.9608224e-06 
-4.8037180e-07 -3.6871636e-06 -2.6932980e-06 
1.7450370e-06 4.3927080e-06 -4.6851087e-06 
4.8498355e-06 -8.9883924e-06 -9.7391003e-06 
1.0737046e-05 -2.7034471e-06 -1.7034719e-05 
2.2967208e-05 -1.1551903e-05 -1.8204497e-05 
3.2758748e-05 -1.5848753e-05 -1.7025955e-05 
4.4881639e-05 -1.6691680e-05 -1.4694221e-05 
5.1854684e-05 -1.6204349e-05 -8.3909263e-06 
4.5085118e-05 -1.1506619e-05 3.8797631e-07 
4.1438481e-05 -8.8672359e-06 5.4903121e-06 
3.1072002e-05 -9.3675981e-06 6.8832260e-06 
1.7244411e-05 -3.7516254e-06 9.5248770e-06 
8.3392742e-06 -6.5722008e-07 7.5572498e-06 
2.3961193e-06 -1.7857662e-06 2.7653919e-06 
7.6214548e-08 1.0109828e-06 4.1293379e-06 
-5.7762128e-07 3.9363231e-06 5.4908796e-06 
-4.2534812e-06 5.5750738e-06 2.8739262e-06 
-6.1606133e-06 4.2552297e-06 1.3623425e-05 
-6.1466944e-06 2.8226614e-06 1.1912005e-05 
-5.4142752e-06 1.6737923e-06 5.6560334e-06 
-4.0761543e-06 -2.8575057e-06 2.8821535e-06 
-1.5606078e-06 9.4865874e-07 -2.1062283e-06 
7.8730272e-06 -6.4411674e-06 -7.9062611e-06 
1.3787047e-05 -1.1095058e-05 -7.4737441e-06 
3.0164054e-05 -8.7136259e-06 -1.0153818e-05 
4.2050357e-05 -1.8408462e-05 -9.0751691e-06 
5.3511183e-05 -1.7289867e-05 -8.5256743e-06 
5.5357337e-05 -1.1630746e-05 -4.8314819e-06 
5.0829134e-05 -1.0407686e-05 4.2207121e-06 
4.4713172e-05 -1.3027491e-05 7.6088486e-06 
3.1057385e-05 -1.0508623e-05 7.0193259e-06 
1.2952381e-05 -4.9860696e-06 5.3713675e-06 
6.6979815e-06 -2.6419598e-06 4.2772626e-06 
2.3713076e-06 1.1461414e-06 2.0605169e-06 
1.9634551e-06 -2.4257932e-07 3.4920363e-06 
1.0449179e-06 -1.1100365e-06 4.5263187e-06 
1.3656488e-06 -8.9674216e-07 6.2195168e-06 
9.4963661e-07 -3.4749377e-07 5.8444130e-06 
4.0775078e-07 -5.3449531e-07 4.0168438e-06 
4.0008743e-07 -8.8168707e-07 1.6322533e-06 
3.9507043e-07 -6.8083477e-07 -8.1429256e-08 
0.0000000e+00 2.1480862e-05 0.0000000e+00 
0.0000000e+00 1.1874905e-05 0.0000000e+00 
0.0000000e+00 6.7671567e-06 0.0000000e+00 
0.0000000e+00 3.1887117e-05 0.0000000e+00 
0.0000000e+00 5.0063070e-05 0.0000000e+00 
0.0000000e+00 6.5673579e-05 0.0000000e+00 
0.0000000e+00 9.9888501e-05 0.0000000e+00 
0.0000000e+00 6.4637432e-05 0.0000000e+00 
0.0000000e+00 3.3387947e-05 0.0000000e+00 
0.0000000e+00 4.2828033e-05 0.0000000e+00 
0.0000000e+00 -1.6863953e-05 0.0000000e+00 
0.0000000e+00 -8.7135493e-05 0.0000000e+00 
0.0000000e+00 -1.1715073e-04 0.0000000e+00 
0.0000000e+00 -2.6947536e-04 0.0000000e+00 
0.0000000e+00 -4.2834919e-04 0.0000000e+00 
0.0000000e+00 -4.8629212e-04 0.0000000e+00 
0.0000000e+00 -5.0276454e-04 0.0000000e+00 
0.0000000e+00 -4.0913635e-04 0.0000000e+00 
0.0000000e+00 -2.8861972e-04 0.0000000e+00 
0.0000000e+00 -1.6710315e-04 0.0000000e+00 
0.0000000e+00 -3.9228038e-05 0.0000000e+00 
0.0000000e+00 -7.8723288e-06 0.0000000e+00 
0.0000000e+00 8.9258003e-07 0.0000000e+00 
0.0000000e+00 2.5212230e-05 0.0000000e+00 
0.0000000e+00 1.2519987e-05 0.0000000e+00 
0.0000000e+00 3.0836214e-05 0.0000000e+00 
0.0000000e+00 6.8142290e-05 0.0000000e+00 
0.0000000e+00 1.0724257e-04 0.0000000e+00 
0.0000000e+00 7.2985262e-05 0.0000000e+00 
0.0000000e+00 4.9245165e-05 0.0000000e+00 
0.0000000e+00 4.8685328e-05 0.0000000e+00 
0.0000000e+00 -2.3716459e-05 0.0000000e+00 
0.0000000e+00 -7.9118057e-05 0.0000000e+00 
0.0000000e+00 -2.5768302e-04 0.0000000e+00 
0.0000000e+00 -4.3151100e-04 0.0000000e+00 
0.0000000e+00 -5.5552408e-04 0.0000000e+00 
0.0000000e+00 -5.7265145e-04 0.0000000e+00 
0.0000000e+00 -5.0522864e-04 0.0000000e+00 
0.0000000e+00 -3.3528285e-04 0.0000000e+00 
0.0000000e+00 -1.3407326e-04 0.0000000e+00 
0.0000000e+00 -8.6821565e-06 0.0000000e+00 
0.0000000e+00 1.2387736e-05 0.0000000e+00 
0.0000000e+00 -7.9368274e-06 0.0000000e+00 
0.0000000e+00 -2.2448517e-05 0.0000000e+00 
0.0000000e+00 -1.0690392e-05 0.0000000e+00 
0.0000000e+00 9.7350976e-06 0.0000000e+00 
0.0000000e+00 1.8838236e-05 0.0000000e+00 
0.0000000e+00 1.4996212e-05 0.0000000e+00 
0.0000000e+00 -1.4284714e-08 0.0000000e+00 
-1.1810798e-06 -6.0247930e-07 1.2466502e-06 
1.3987423e-07 1.8676542e-06 -2.4946280e-06 
-5.4999646e-07 8.5355960e-06 -3.9751728e-07 
-2.5784734e-06 1.7037253e-05 3.7579861e-07 
-3.1209586e-07 4.3804622e-08 -8.9912214e-07 
-3.1267268e-07 -3.4556631e-08 -2.0210841e-06 
9.7425550e-07 -2.4590756e-06 -3.9435736e-06 
2.1854919e-06 -8.4261246e-06 -3.3615179e-06 
-1.1594130e-06 1.7437523e-06 2.2116696e-07 
9.1146671e-07 1.7907352e-06 2.4196077e-06 
-2.7836381e-07 -1.4731434e-07 6.6071186e-07 
3.6346557e-06 4.0488571e-06 -1.8438616e-06 
1.9469251e-06 -1.3911880e-06 4.2718048e-06 
9.1670455e-07 1.3425678e-06 5.2741602e-06 
9.2071417e-07 -4.2757456e-06 8.9542721e-07 
4.2753350e-06 1.7363804e-07 4.7952863e-06 
2.4499345e-08 -1.5703309e-06 2.9688524e-06 
2.2957338e-06 2.9636130e-06 -3.0786623e-06 
5.0272179e-06 -9.3036269e-06 -1.1774072e-05 
1.4048591e-05 3.2107710e-06 -1.3079039e-05 
2.5706413e-05 -9.2952741e-06 -1.6029449e-05 
2.8200517e-05 -1.9517183e-05 -2.0157588e-05 
4.7655860e-05 -7.8543417e-06 -1.6809990e-05 
4.9648392e-05 -1.2570848e-05 -1.2481762e-05 
4.4421780e-05 -5.4935144e-06 -5.4575253e-06 
4.1445011e-05 -2.8751517e-06 4.8232505e-07 
3.1702159e-05 -3.0988015e-06 6.3807597e-06 