# vtk DataFile Version 4.0
vtk output
ASCII
DATASET UNSTRUCTURED_GRID
POINTS 1920 float
0.0000000e+00 0.0000000e+00 0.0000000e+00 
0.0000000e+00 0.0000000e+00 5.0000000e+01 
5.0000000e+00 0.0000000e+00 0.0000000e+00 
5.0000000e+00 0.0000000e+00 5.0000000e+01 
5.0000000e+00 1.0000000e+00 0.0000000e+00 
5.0000000e+00 1.0000000e+00 5.0000000e+01 
0.0000000e+00 1.0000000e+00 0.0000000e+00 
0.0000000e+00 1.0000000e+00 5.0000000e+01 
5.0000000e+00 2.0000000e+00 0.0000000e+00 
5.0000000e+00 2.0000000e+00 5.0000000e+01 
3.0000000e+00 2.0000000e+00 0.0000000e+00 
3.0000000e+00 2.0000000e+00 5.0000000e+01 
0.0000000e+00 2.0000000e+00 0.0000000e+00 
0.0000000e+00 2.0000000e+00 5.0000000e+01 
1.5000000e+00 3.0000000e+00 0.0000000e+00 
1.5000000e+00 3.0000000e+00 5.0000000e+01 
7.5000000e-01 3.0000000e+00 0.0000000e+00 
7.5000000e-01 3.0000000e+00 5.0000000e+01 
0.0000000e+00 3.0000000e+00 0.0000000e+00 
0.0000000e+00 3.0000000e+00 5.0000000e+01 
7.5000000e-01 3.0000000e+00 5.0000000e-01 
7.5000000e-01 3.0000000e+00 1.0000000e+00 
7.5000000e-01 3.0000000e+00 1.5000000e+00 
7.5000000e-01 3.0000000e+00 2.0000000e+00 
7.5000000e-01 3.0000000e+00 2.5000000e+00 
7.5000000e-01 3.0000000e+00 3.0000000e+00 
7.5000000e-01 3.0000000e+00 3.5000000e+00 
7.5000000e-01 3.0000000e+00 4.0000000e+00 
7.5000000e-01 3.0000000e+00 4.5000000e+00 
7.5000000e-01 3.0000000e+00 5.0000000e+00 
7.5000000e-01 3.0000000e+00 5.5000000e+00 
7.5000000e-01 3.0000000e+00 6.0000000e+00 
7.5000000e-01 3.0000000e+00 6.5000000e+00 
7.5000000e-01 3.0000000e+00 7.0000000e+00 
7.5000000e-01 3.0000000e+00 7.5000000e+00 
7.5000000e-01 3.0000000e+00 8.0000000e+00 
7.5000000e-01 3.0000000e+00 8.5000000e+00 
7.5000000e-01 3.0000000e+00 9.0000000e+00 
7.5000000e-01 3.0000000e+00 9.5000000e+00 
7.5000000e-01 3.0000000e+00 1.0000000e+01 
7.5000000e-01 3.0000000e+00 1.0500000e+01 
7.5000000e-01 3.0000000e+00 1.1000000e+01 
7.5000000e-01 3.0000000e+00 1.1500000e+01 
7.5000000e-01 3.0000000e+00 1.2000000e+01 
7.5000000e-01 3.0000000e+00 1.2500000e+01 
7.5000000e-01 3.0000000e+00 1.3000000e+01 
7.5000000e-01 3.0000000e+00 1.3500000e+01 
7.5000000e-01 3.0000000e+00 1.4000000e+01 
7.5000000e-01 3.0000000e+00 1.4500000e+01 
7.5000000e-01 3.0000000e+00 1.5000000e+01 
7.5000000e-01 3.0000000e+00 1.5500000e+01 
7.5000000e-01 3.0000000e+00 1.6000000e+01 
7.5000000e-01 3.0000000e+00 1.6500000e+01 
7.5000000e-01 3.0000000e+00 1.7000000e+01 
7.5000000e-01 3.0000000e+00 1.7500000e+01 
7.5000000e-01 3.0000000e+00 1.8000000e+01 
7.5000000e-01 3.0000000e+00 1.8500000e+01 
7.5000000e-01 3.0000000e+00 1.9000000e+01 
7.5000000e-01 3.0000000e+00 1.9500000e+01 
7.5000000e-01 3.0000000e+00 2.0000000e+01 
7.5000000e-01 3.0000000e+00 2.0500000e+01 
7.5000000e-01 3.0000000e+00 2.1000000e+01 
7.5000000e-01 3.0000000e+00 2.1500000e+01 
7.5000000e-01 3.0000000e+00 2.2000000e+01 
7.5000000e-01 3.0000000e+00 2.2500000e+01 
7.5000000e-01 3.0000000e+00 2.3000000e+01 
7.5000000e-01 3.0000000e+00 2.3500000e+01 
7.5000000e-01 3.0000000e+00 2.4000000e+01 
7.5000000e-01 3.0000000e+00 2.4500000e+01 
7.5000000e-01 3.0000000e+00 2.5000000e+01 
7.5000000e-01 3.0000000e+00 2.5500000e+01 
7.5000000e-01 3.0000000e+00 2.6000000e+01 
7.5000000e-01 3.0000000e+00 2.6500000e+01 
7.5000000e-01 3.0000000e+00 2.7000000e+01 
7.5000000e-01 3.0000000e+00 2.7500000e+01 
7.5000000e-01 3.0000000e+00 2.8000000e+01 
7.5000000e-01 3.0000000e+00 2.8500000e+01 
7.5000000e-01 3.0000000e+00 2.9000000e+01 
7.5000000e-01 3.0000000e+00 2.9500000e+01 
7.5000000e-01 3.0000000e+00 3.0000000e+01 
7.5000000e-01 3.0000000e+00 3.0500000e+01 
7.5000000e-01 3.0000000e+00 3.1000000e+01 
7.5000000e-01 3.0000000e+00 3.1500000e+01 
7.5000000e-01 3.0000000e+00 3.2000000e+01 
7.5000000e-01 3.0000000e+00 3.2500000e+01 
7.5000000e-01 3.0000000e+00 3.3000000e+01 
7.5000000e-01 3.0000000e+00 3.3500000e+01 
7.5000000e-01 3.0000000e+00 3.4000000e+01 
7.5000000e-01 3.0000000e+00 3.4500000e+01 
7.5000000e-01 3.0000000e+00 3.5000000e+01 
7.5000000e-01 3.0000000e+00 3.5500000e+01 
7.5000000e-01 3.0000000e+00 3.6000000e+01 
7.5000000e-01 3.0000000e+00 3.6500000e+01 
7.5000000e-01 3.0000000e+00 3.7000000e+01 
7.5000000e-01 3.0000000e+00 3.7500000e+01 
7.5000000e-01 3.0000000e+00 3.8000000e+01 
7.5000000e-01 3.0000000e+00 3.8500000e+01 
7.5000000e-01 3.0000000e+00 3.9000000e+01 
7.5000000e-01 3.0000000e+00 3.9500000e+01 
7.5000000e-01 3.0000000e+00 4.0000000e+01 
7.5000000e-01 3.0000000e+00 4.0500000e+01 
7.5000000e-01 3.0000000e+00 4.1000000e+01 
7.5000000e-01 3.0000000e+00 4.1500000e+01 
7.5000000e-01 3.0000000e+00 4.2000000e+01 
7.5000000e-01 3.0000000e+00 4.2500000e+01 
7.5000000e-01 3.0000000e+00 4.3000000e+01 
7.5000000e-01 3.0000000e+00 4.3500000e+01 
7.5000000e-01 3.0000000e+00 4.4000000e+01 
7.5000000e-01 3.0000000e+00 4.4500000e+01 
7.5000000e-01 3.0000000e+00 4.5000000e+01 
7.5000000e-01 3.0000000e+00 4.5500000e+01 
7.5000000e-01 3.0000000e+00 4.6000000e+01 
7.5000000e-01 3.0000000e+00 4.6500000e+01 
7.5000000e-01 3.0000000e+00 4.7000000e+01 
7.5000000e-01 3.0000000e+00 4.7500000e+01 
7.5000000e-01 3.0000000e+00 4.8000000e+01 
7.5000000e-01 3.0000000e+00 4.8500000e+01 
7.5000000e-01 3.0000000e+00 4.9000000e+01 
7.5000000e-01 3.0000000e+00 4.9500000e+01 
7.5000000e-01 3.0250001e+00 0.0000000e+00 
7.5000000e-01 3.0250001e+00 5.0000000e-01 
7.5000000e-01 3.0250001e+00 1.0000000e+00 
7.5000000e-01 3.0250001e+00 1.5000000e+00 
7.5000000e-01 3.0250001e+00 2.0000000e+00 
7.5000000e-01 3.0250001e+00 2.5000000e+00 
7.5000000e-01 3.0250001e+00 3.0000000e+00 
7.5000000e-01 3.0250001e+00 3.5000000e+00 
7.5000000e-01 3.0250001e+00 4.0000000e+00 
7.5000000e-01 3.0250001e+00 4.5000000e+00 
7.5000000e-01 3.0250001e+00 5.0000000e+00 
7.5000000e-01 3.0250001e+00 5.5000000e+00 
7.5000000e-01 3.0250001e+00 6.0000000e+00 
7.5000000e-01 3.0250001e+00 6.5000000e+00 
7.5000000e-01 3.0250001e+00 7.0000000e+00 
7.5000000e-01 3.0250001e+00 7.5000000e+00 
7.5000000e-01 3.0250001e+00 8.0000000e+00 
7.5000000e-01 3.0250001e+00 8.5000000e+00 
7.5000000e-01 3.0250001e+00 9.0000000e+00 
7.5000000e-01 3.0250001e+00 9.5000000e+00 
7.5000000e-01 3.0250001e+00 1.0000000e+01 
7.5000000e-01 3.0250001e+00 1.0500000e+01 
7.5000000e-01 3.0250001e+00 1.1000000e+01 
7.5000000e-01 3.0250001e+00 1.1500000e+01 
7.5000000e-01 3.0250001e+00 1.2000000e+01 
7.5000000e-01 3.0250001e+00 1.2500000e+01 
7.5000000e-01 3.0250001e+00 1.3000000e+01 
7.5000000e-01 3.0250001e+00 1.3500000e+01 
7.5000000e-01 3.0250001e+00 1.4000000e+01 
7.5000000e-01 3.0250001e+00 1.4500000e+01 
7.5000000e-01 3.0250001e+00 1.5000000e+01 
7.5000000e-01 3.0250001e+00 1.5500000e+01 
7.5000000e-01 3.0250001e+00 1.6000000e+01 
7.5000000e-01 3.0250001e+00 1.6500000e+01 
7.5000000e-01 3.0250001e+00 1.7000000e+01 
7.5000000e-01 3.0250001e+00 1.7500000e+01 
7.5000000e-01 3.0250001e+00 1.8000000e+01 
7.5000000e-01 3.0250001e+00 1.8500000e+01 
7.5000000e-01 3.0250001e+00 1.9000000e+01 
7.5000000e-01 3.0250001e+00 1.9500000e+01 
7.5000000e-01 3.0250001e+00 2.0000000e+01 
7.5000000e-01 3.0250001e+00 2.0500000e+01 
7.5000000e-01 3.0250001e+00 2.1000000e+01 
7.5000000e-01 3.0250001e+00 2.1500000e+01 
7.5000000e-01 3.0250001e+00 2.2000000e+01 
7.5000000e-01 3.0250001e+00 2.2500000e+01 
7.5000000e-01 3.0250001e+00 2.3000000e+01 
7.5000000e-01 3.0250001e+00 2.3500000e+01 
7.5000000e-01 3.0250001e+00 2.4000000e+01 
7.5000000e-01 3.0250001e+00 2.4500000e+01 
7.5000000e-01 3.0250001e+00 2.5000000e+01 
7.5000000e-01 3.0250001e+00 2.5500000e+01 
7.5000000e-01 3.0250001e+00 2.6000000e+01 
7.5000000e-01 3.0250001e+00 2.6500000e+01 
7.5000000e-01 3.0250001e+00 2.7000000e+01 
7.5000000e-01 3.0250001e+00 2.7500000e+01 
7.5000000e-01 3.0250001e+00 2.8000000e+01 
7.5000000e-01 3.0250001e+00 2.8500000e+01 
7.5000000e-01 3.0250001e+00 2.9000000e+01 
7.5000000e-01 3.0250001e+00 2.9500000e+01 
7.5000000e-01 3.0250001e+00 3.0000000e+01 
7.5000000e-01 3.0250001e+00 3.0500000e+01 
7.5000000e-01 3.0250001e+00 3.1000000e+01 
7.5000000e-01 3.0250001e+00 3.1500000e+01 
7.5000000e-01 3.0250001e+00 3.2000000e+01 
7.5000000e-01 3.0250001e+00 3.2500000e+01 
7.5000000e-01 3.0250001e+00 3.3000000e+01 
7.5000000e-01 3.0250001e+00 3.3500000e+01 
7.5000000e-01 3.0250001e+00 3.4000000e+01 
7.5000000e-01 3.0250001e+00 3.4500000e+01 
7.5000000e-01 3.0250001e+00 3.5000000e+01 
7.5000000e-01 3.0250001e+00 3.5500000e+01 
7.5000000e-01 3.0250001e+00 3.6000000e+01 
7.5000000e-01 3.0250001e+00 3.6500000e+01 
7.5000000e-01 3.0250001e+00 3.7000000e+01 
7.5000000e-01 3.0250001e+00 3.7500000e+01 
7.5000000e-01 3.0250001e+00 3.8000000e+01 
7.5000000e-01 3.0250001e+00 3.8500000e+01 
7.5000000e-01 3.0250001e+00 3.9000000e+01 
7.5000000e-01 3.0250001e+00 3.9500000e+01 
7.5000000e-01 3.0250001e+00 4.0000000e+01 
7.5000000e-01 3.0250001e+00 4.0500000e+01 
7.5000000e-01 3.0250001e+00 4.1000000e+01 
7.5000000e-01 3.0250001e+00 4.1500000e+01 
7.5000000e-01 3.0250001e+00 4.2000000e+01 
7.5000000e-01 3.0250001e+00 4.2500000e+01 
7.5000000e-01 3.0250001e+00 4.3000000e+01 
7.5000000e-01 3.0250001e+00 4.3500000e+01 
7.5000000e-01 3.0250001e+00 4.4000000e+01 
7.5000000e-01 3.0250001e+00 4.4500000e+01 
7.5000000e-01 3.0250001e+00 4.5000000e+01 
7.5000000e-01 3.0250001e+00 4.5500000e+01 
7.5000000e-01 3.0250001e+00 4.6000000e+01 
7.5000000e-01 3.0250001e+00 4.6500000e+01 
7.5000000e-01 3.0250001e+00 4.7000000e+01 
7.5000000e-01 3.0250001e+00 4.7500000e+01 
7.5000000e-01 3.0250001e+00 4.8000000e+01 
7.5000000e-01 3.0250001e+00 4.8500000e+01 
7.5000000e-01 3.0250001e+00 4.9000000e+01 
7.5000000e-01 3.0250001e+00 4.9500000e+01 
7.5000000e-01 3.0250001e+00 5.0000000e+01 
7.5000000e-01 3.0250001e+00 3.5750000e+01 
3.0000000e+00 2.0000000e+00 3.6000000e+01 
8.0487806e-01 3.0000000e+00 3.6000000e+01 
0.0000000e+00 0.0000000e+00 1.0000000e+00 
0.0000000e+00 0.0000000e+00 2.0000000e+00 
0.0000000e+00 0.0000000e+00 3.0000000e+00 
0.0000000e+00 0.0000000e+00 4.0000000e+00 
0.0000000e+00 0.0000000e+00 5.0000000e+00 
0.0000000e+00 0.0000000e+00 6.0000000e+00 
0.0000000e+00 0.0000000e+00 7.0000000e+00 
[...]
POINT_DATA 1920
FIELD FieldData 3
DISPLACEMENT 3 1920  float
0.0000000e+00 0.0000000e+00 0.0000000e+00 
0.0000000e+00 0.0000000e+00 0.0000000e+00 
0.0000000e+00 0.0000000e+00 0.0000000e+00 
0.0000000e+00 0.0000000e+00 0.0000000e+00 
-2.3455916e-06 -4.2653587e-06 -1.5738921e-06 
2.9309678e-07 -3.5710377e-07 7.5424890e-07 
0.0000000e+00 2.4195188e-05 0.0000000e+00 
0.0000000e+00 8.0873843e-07 0.0000000e+00 
1.8220147e-06 -3.8433709e-06 -3.8285925e-06 
5.0265436e-07 -4.7064113e-08 1.0656086e-06 
4.2486490e-06 -5.5035057e-06 -3.6001036e-06 
-3.5870208e-08 -6.3370408e-07 2.4398462e-06 
0.0000000e+00 3.0440251e-05 0.0000000e+00 
0.0000000e+00 1.7263857e-06 0.0000000e+00 
1.8756185e-05 9.1232696e-06 -5.1500418e-05 
-8.6279965e-07 1.2785127e-07 2.5844672e-06 
1.8628727e-05 8.4468447e-05 -3.9295872e-05 
3.0064100e-06 1.3465819e-05 -2.7987792e-07 
0.0000000e+00 4.4529923e-05 0.0000000e+00 
0.0000000e+00 1.8653492e-06 0.0000000e+00 
2.1624852e-05 8.9269983e-05 -2.7096239e-05 
3.3219414e-05 1.0140298e-04 -1.9918331e-05 
3.8251510e-05 1.1728322e-04 -1.3521292e-05 
3.8825037e-05 1.3686427e-04 1.0458289e-06 
3.3521661e-05 1.5913678e-04 1.0778830e-05 
3.5974375e-05 1.8178002e-04 1.7706408e-05 
4.0468763e-05 1.9835064e-04 2.8176142e-05 
3.5309622e-05 1.9925948e-04 1.5730282e-05 
2.8744193e-05 1.8686605e-04 1.9430823e-07 
4.2162297e-05 1.7774713e-04 -3.2573428e-06 
3.8625338e-05 1.9383703e-04 5.9929175e-06 
3.4950437e-05 2.5028561e-04 9.4188654e-06 
6.1757790e-05 3.3047181e-04 1.6132837e-05 
6.3435611e-05 3.9013650e-04 2.5684050e-05 
5.0998744e-05 3.9413490e-04 3.8844137e-05 
6.7437119e-05 3.1972764e-04 7.1487848e-05 
4.4431446e-05 1.4907523e-04 1.4589341e-04 
4.0364262e-06 -1.5445249e-04 1.8700348e-04 
-5.1408624e-05 -6.7846314e-04 3.3501702e-04 
-1.1681199e-04 -1.5157349e-03 2.7812252e-04 
-1.7091841e-04 -2.6984916e-03 3.8438002e-04 
-2.8821349e-04 -4.0432196e-03 1.5362243e-04 
-3.5372932e-04 -5.0681061e-03 1.4695867e-04 
-3.8555398e-04 -5.1479731e-03 3.2652984e-05 
-3.3910293e-04 -4.8610209e-03 -4.9328046e-05 
-2.7304250e-04 -4.6998956e-03 -6.1845407e-05 
-2.6356673e-04 -4.8122187e-03 -6.6418979e-05 
-2.6907321e-04 -4.7404887e-03 -1.4455286e-04 
-2.4026468e-04 -3.9199847e-03 -2.8536399e-04 
-1.7659143e-04 -2.7165376e-03 -2.2247258e-04 
-1.0248634e-04 -1.5899417e-03 -3.0310955e-04 
-5.5317669e-05 -7.2658353e-04 -1.8686814e-04 
-1.1487597e-05 -1.7698189e-04 -1.8940562e-04 
1.1697735e-05 1.1032631e-04 -1.0755749e-04 
2.1467065e-05 2.1838900e-04 -6.9995374e-05 
1.7871771e-05 2.2194350e-04 -4.1913554e-05 
1.5801699e-05 1.7483527e-04 -2.8122617e-05 
2.6014961e-05 1.0732588e-04 -4.1694315e-05 
2.6510335e-05 4.2672506e-05 -3.8734248e-05 
4.6200625e-05 1.0383482e-06 -1.8099096e-05 
5.1599251e-05 -1.0117645e-05 2.3334331e-05 
4.1463365e-05 3.1488945e-08 3.7433358e-05 
1.6626422e-05 1.9584924e-05 1.4225401e-05 
2.2546496e-05 4.2586900e-05 -1.4267363e-05 
6.3107550e-06 7.7360266e-05 -6.4657026e-05 
2.3823650e-05 1.3346002e-04 -8.2774553e-05 
2.6298618e-05 2.0401065e-04 -8.6067812e-05 
3.1345753e-05 2.6703253e-04 -6.5261578e-05 
3.7593079e-05 3.0232169e-04 -5.5088905e-05 
5.1259689e-05 3.0754830e-04 -2.8846736e-05 
6.1610503e-05 3.0157116e-04 -2.8356824e-05 
7.2158800e-05 3.2022668e-04 -4.8515330e-06 
6.8047644e-05 3.7884180e-04 1.8901210e-05 
6.1229046e-05 4.5171133e-04 4.3012376e-05 
5.9604798e-05 4.7919209e-04 9.4806390e-05 
5.6206627e-05 3.9076191e-04 1.3843027e-04 
3.0693722e-05 1.5095106e-04 2.0213809e-04 
-2.8173279e-06 -2.5773214e-04 2.2370637e-04 
-3.7673050e-05 -8.7635731e-04 3.4926232e-04 
-1.2562229e-04 -1.7467408e-03 2.6921625e-04 
-1.7396556e-04 -2.8970882e-03 4.0753468e-04 
-2.6584227e-04 -4.1521518e-03 2.2609714e-04 
-3.1147836e-04 -5.0739180e-03 1.9789490e-04 
-3.4725264e-04 -5.1034368e-03 9.0681460e-05 
-3.6236065e-04 -4.8401901e-03 1.3841769e-05 
-3.6563748e-04 -4.7178143e-03 -3.6593516e-05 
-3.5590009e-04 -4.8361048e-03 -8.0199090e-05 
-3.3903841e-04 -4.7148927e-03 -1.5174503e-04 
-2.9968741e-04 -3.8444307e-03 -3.2983610e-04 
-2.7922351e-05 -2.6178099e-03 -4.8529153e-04 
-9.6746931e-05 -1.4660318e-03 -3.5586164e-04 
-6.0508195e-05 -6.2380364e-04 -2.6516063e-04 
-1.9319830e-05 -1.1549753e-04 -2.5700833e-04 
1.6581558e-05 1.3770218e-04 -1.6346696e-04 
4.2491152e-05 2.2460466e-04 -1.0143907e-04 
4.2094016e-05 2.1220311e-04 -3.2825941e-05 
3.9009235e-05 1.4558822e-04 2.0436501e-05 
2.1269620e-05 6.1510866e-05 3.1783249e-05 
6.3128641e-06 -9.2322480e-06 4.4008786e-05 
1.5143157e-06 -5.2398151e-05 4.9701612e-05 
-1.6961401e-06 -6.7680987e-05 6.2888161e-05 
1.4417918e-07 -6.3052888e-05 6.0158360e-05 
-1.1220969e-05 -4.5276840e-05 3.3244698e-05 
-1.4463436e-05 -1.9671925e-05 5.3935451e-06 
-9.2236714e-06 9.4050492e-06 -2.4308229e-05 
-1.0015839e-05 3.3997640e-05 -3.9202889e-05 
2.9312107e-06 4.7166359e-05 -1.9871557e-05 
4.8437046e-06 4.5450623e-05 -5.4153634e-06 
2.9029550e-06 3.1770240e-05 5.3811427e-06 
1.5043612e-06 1.3775694e-05 8.2943297e-06 
3.7455141e-06 -2.3879272e-06 1.0386662e-05 
3.3474041e-06 -1.4092324e-05 5.4934681e-06 
2.4883793e-06 -2.0355754e-05 1.7135245e-06 
2.3358952e-07 -2.1073800e-05 -1.8105879e-06 
-2.3299422e-06 -1.6343954e-05 -2.2638155e-06 
-2.2706486e-06 -8.0146119e-06 -7.0124241e-07 
-3.9506149e-06 1.0144445e-06 -1.3811137e-06 
-3.1214101e-06 8.1279159e-06 -1.0766425e-06 
-1.2762857e-06 1.2203429e-05 -9.1638015e-07 
0.0000000e+00 8.4978645e-05 0.0000000e+00 
0.0000000e+00 8.9506022e-05 0.0000000e+00 
0.0000000e+00 1.0103534e-04 0.0000000e+00 
0.0000000e+00 1.1691865e-04 0.0000000e+00 
0.0000000e+00 1.3665926e-04 0.0000000e+00 
0.0000000e+00 1.5956005e-04 0.0000000e+00 
0.0000000e+00 1.8250027e-04 0.0000000e+00 
0.0000000e+00 1.9817168e-04 0.0000000e+00 
0.0000000e+00 1.9854613e-04 0.0000000e+00 
0.0000000e+00 1.8621475e-04 0.0000000e+00 
0.0000000e+00 1.7761873e-04 0.0000000e+00 
0.0000000e+00 1.9536595e-04 0.0000000e+00 
0.0000000e+00 2.5221281e-04 0.0000000e+00 
0.0000000e+00 3.3090304e-04 0.0000000e+00 
0.0000000e+00 3.8991807e-04 0.0000000e+00 
0.0000000e+00 3.9346816e-04 0.0000000e+00 
0.0000000e+00 3.2011874e-04 0.0000000e+00 
0.0000000e+00 1.5139964e-04 0.0000000e+00 
0.0000000e+00 -1.5385223e-04 0.0000000e+00 
0.0000000e+00 -6.8072509e-04 0.0000000e+00 
0.0000000e+00 -1.5255592e-03 0.0000000e+00 
0.0000000e+00 -2.7145213e-03 0.0000000e+00 
0.0000000e+00 -4.0715775e-03 0.0000000e+00 
0.0000000e+00 -5.0876397e-03 0.0000000e+00 
0.0000000e+00 -5.1747086e-03 0.0000000e+00 
0.0000000e+00 -4.8798146e-03 0.0000000e+00 
0.0000000e+00 -4.7303322e-03 0.0000000e+00 
0.0000000e+00 -4.8380224e-03 0.0000000e+00 
0.0000000e+00 -4.7693145e-03 0.0000000e+00 
0.0000000e+00 -3.9372100e-03 0.0000000e+00 
0.0000000e+00 -2.7313440e-03 0.0000000e+00 
0.0000000e+00 -1.5973350e-03 0.0000000e+00 
0.0000000e+00 -7.3144608e-04 0.0000000e+00 
0.0000000e+00 -1.7791888e-04 0.0000000e+00 
0.0000000e+00 1.1154022e-04 0.0000000e+00 
0.0000000e+00 2.1978647e-04 0.0000000e+00 
0.0000000e+00 2.2301162e-04 0.0000000e+00 
0.0000000e+00 1.7499458e-04 0.0000000e+00 
0.0000000e+00 1.0749680e-04 0.0000000e+00 
0.0000000e+00 4.3494543e-05 0.0000000e+00 
0.0000000e+00 2.0475425e-06 0.0000000e+00 
0.0000000e+00 -9.7566472e-06 0.0000000e+00 
0.0000000e+00 -1.0502580e-07 0.0000000e+00 
0.0000000e+00 1.8822475e-05 0.0000000e+00 
0.0000000e+00 4.2362961e-05 0.0000000e+00 
0.0000000e+00 7.8126606e-05 0.0000000e+00 
0.0000000e+00 1.3436771e-04 0.0000000e+00 
0.0000000e+00 2.0432529e-04 0.0000000e+00 
0.0000000e+00 2.6651690e-04 0.0000000e+00 
0.0000000e+00 3.0135293e-04 0.0000000e+00 
0.0000000e+00 3.0655140e-04 0.0000000e+00 
0.0000000e+00 3.0222005e-04 0.0000000e+00 
0.0000000e+00 3.2213645e-04 0.0000000e+00 
0.0000000e+00 3.8115511e-04 0.0000000e+00 
0.0000000e+00 4.5316189e-04 0.0000000e+00 
0.0000000e+00 4.7791700e-04 0.0000000e+00 
0.0000000e+00 3.8956432e-04 0.0000000e+00 
0.0000000e+00 1.5123638e-04 0.0000000e+00 
0.0000000e+00 -2.5804187e-04 0.0000000e+00 
0.0000000e+00 -8.7693374e-04 0.0000000e+00 
0.0000000e+00 -1.7563216e-03 0.0000000e+00 
0.0000000e+00 -2.9114732e-03 0.0000000e+00 
0.0000000e+00 -4.1806875e-03 0.0000000e+00 
0.0000000e+00 -5.0957683e-03 0.0000000e+00 
0.0000000e+00 -5.1325439e-03 0.0000000e+00 
0.0000000e+00 -4.8582871e-03 0.0000000e+00 
0.0000000e+00 -4.7469423e-03 0.0000000e+00 
0.0000000e+00 -4.8590717e-03 0.0000000e+00 
0.0000000e+00 -4.7452142e-03 0.0000000e+00 
0.0000000e+00 -3.8625624e-03 0.0000000e+00 
0.0000000e+00 -2.6283870e-03 0.0000000e+00 
0.0000000e+00 -1.4758974e-03 0.0000000e+00 
0.0000000e+00 -6.2778732e-04 0.0000000e+00 
0.0000000e+00 -1.1566850e-04 0.0000000e+00 
0.0000000e+00 1.3888192e-04 0.0000000e+00 
0.0000000e+00 2.2556278e-04 0.0000000e+00 
0.0000000e+00 2.1267693e-04 0.0000000e+00 
0.0000000e+00 1.4613330e-04 0.0000000e+00 
0.0000000e+00 6.2502681e-05 0.0000000e+00 
0.0000000e+00 -8.6190503e-06 0.0000000e+00 
0.0000000e+00 -5.2202733e-05 0.0000000e+00 
0.0000000e+00 -6.7825371e-05 0.0000000e+00 
0.0000000e+00 -6.3066465e-05 0.0000000e+00 
0.0000000e+00 -4.5240187e-05 0.0000000e+00 
0.0000000e+00 -1.9495899e-05 0.0000000e+00 
0.0000000e+00 9.2966256e-06 0.0000000e+00 
0.0000000e+00 3.3777884e-05 0.0000000e+00 
0.0000000e+00 4.6869030e-05 0.0000000e+00 
0.0000000e+00 4.5278175e-05 0.0000000e+00 
0.0000000e+00 3.1888219e-05 0.0000000e+00 
0.0000000e+00 1.3948134e-05 0.0000000e+00 
0.0000000e+00 -2.3300629e-06 0.0000000e+00 
0.0000000e+00 -1.4057113e-05 0.0000000e+00 
0.0000000e+00 -2.0332052e-05 0.0000000e+00 
0.0000000e+00 -2.0984249e-05 0.0000000e+00 
0.0000000e+00 -1.6310421e-05 0.0000000e+00 
0.0000000e+00 -8.0546597e-06 0.0000000e+00 
0.0000000e+00 9.3365747e-07 0.0000000e+00 
0.0000000e+00 8.0709415e-06 0.0000000e+00 
0.0000000e+00 1.2211678e-05 0.0000000e+00 
0.0000000e+00 1.3494825e-05 0.0000000e+00 
0.0000000e+00 -1.0054080e-03 0.0000000e+00 
1.3610670e-05 -1.5856040e-05 -3.0384994e-05 
-6.4397304e-05 -5.7729316e-04 -2.7801667e-04 
0.0000000e+00 0.0000000e+00 0.0000000e+00 
0.0000000e+00 0.0000000e+00 0.0000000e+00 
0.0000000e+00 0.0000000e+00 0.0000000e+00 
0.0000000e+00 0.0000000e+00 0.0000000e+00 
0.0000000e+00 0.0000000e+00 0.0000000e+00 
0.0000000e+00 0.0000000e+00 0.0000000e+00 
0.0000000e+00 0.0000000e+00 0.0000000e+00 
0.0000000e+00 0.0000000e+00 0.0000000e+00 
0.0000000e+00 0.0000000e+00 0.0000000e+00 
0.0000000e+00 0.0000000e+00 0.0000000e+00 
0.0000000e+00 0.0000000e+00 0.0000000e+00 
0.0000000e+00 0.0000000e+00 0.0000000e+00 
0.0000000e+00 0.0000000e+00 0.0000000e+00 
0.0000000e+00 0.0000000e+00 0.0000000e+00 
0.0000000e+00 0.0000000e+00 0.0000000e+00 
0.0000000e+00 0.0000000e+00 0.0000000e+00 
0.0000000e+00 0.0000000e+00 0.0000000e+00 
0.0000000e+00 0.0000000e+00 0.0000000e+00 
0.0000000e+00 0.0000000e+00 0.0000000e+00 
0.0000000e+00 0.0000000e+00 0.0000000e+00 
0.0000000e+00 0.0000000e+00 0.0000000e+00 
0.0000000e+00 0.0000000e+00 0.0000000e+00 
0.0000000e+00 0.0000000e+00 0.0000000e+00 
0.0000000e+00 0.0000000e+00 0.0000000e+00 
0.0000000e+00 0.0000000e+00 0.0000000e+00 
0.0000000e+00 0.0000000e+00 0.0000000e+00 
0.0000000e+00 0.0000000e+00 0.0000000e+00 
0.0000000e+00 0.0000000e+00 0.0000000e+00 
0.0000000e+00 0.0000000e+00 0.0000000e+00 
0.0000000e+00 0.0000000e+00 0.0000000e+00 
0.0000000e+00 0.0000000e+00 0.0000000e+00 
0.0000000e+00 0.0000000e+00 0.0000000e+00 
0.0000000e+00 0.0000000e+00 0.0000000e+00 
0.0000000e+00 0.0000000e+00 0.0000000e+00 
0.0000000e+00 0.0000000e+00 0.0000000e+00 
0.0000000e+00 0.0000000e+00 0.0000000e+00 
0.0000000e+00 0.0000000e+00 0.0000000e+00 
0.0000000e+00 0.0000000e+00 0.0000000e+00 
0.0000000e+00 0.0000000e+00 0.0000000e+00 
0.0000000e+00 0.0000000e+00 0.0000000e+00 
0.0000000e+00 0.0000000e+00 0.0000000e+00 
0.0000000e+00 0.0000000e+00 0.0000000e+00 
0.0000000e+00 0.0000000e+00 0.0000000e+00 
0.0000000e+00 0.0000000e+00 0.0000000e+00 
0.0000000e+00 0.0000000e+00 0.0000000e+00 
0.0000000e+00 0.0000000e+00 0.0000000e+00 
0.0000000e+00 0.0000000e+00 0.0000000e+00 
0.0000000e+00 0.0000000e+00 0.0000000e+00 
0.0000000e+00 0.0000000e+00 0.0000000e+00 
0.0000000e+00 0.0000000e+00 0.0000000e+00 
0.0000000e+00 0.0000000e+00 0.0000000e+00 
0.0000000e+00 0.0000000e+00 0.0000000e+00 
0.0000000e+00 0.0000000e+00 0.0000000e+00 
0.0000000e+00 0.0000000e+00 0.0000000e+00 
0.0000000e+00 0.0000000e+00 0.0000000e+00 
0.0000000e+00 0.0000000e+00 0.0000000e+00 
0.0000000e+00 0.0000000e+00 0.0000000e+00 
0.0000000e+00 0.0000000e+00 0.0000000e+00 
0.0000000e+00 0.0000000e+00 0.0000000e+00 
0.0000000e+00 0.0000000e+00 0.0000000e+00 
0.0000000e+00 0.0000000e+00 0.0000000e+00 
0.0000000e+00 0.0000000e+00 0.0000000e+00 
0.0000000e+00 0.0000000e+00 0.0000000e+00 
0.0000000e+00 0.0000000e+00 0.0000000e+00 
0.0000000e+00 0.0000000e+00 0.0000000e+00 
0.0000000e+00 0.0000000e+00 0.0000000e+00 
0.0000000e+00 0.0000000e+00 0.0000000e+00 
0.0000000e+00 0.0000000e+00 0.0000000e+00 
0.0000000e+00 0.0000000e+00 0.0000000e+00 
0.0000000e+00 0.0000000e+00 0.0000000e+00 
0.0000000e+00 0.0000000e+00 0.0000000e+00 
0.0000000e+00 0.0000000e+00 0.0000000e+00 
0.0000000e+00 0.0000000e+00 0.0000000e+00 
0.0000000e+00 0.0000000e+00 0.0000000e+00 
0.0000000e+00 0.0000000e+00 0.0000000e+00 
0.0000000e+00 0.0000000e+00 0.0000000e+00 
0.0000000e+00 0.0000000e+00 0.0000000e+00 
0.0000000e+00 0.0000000e+00 0.0000000e+00 
0.0000000e+00 0.0000000e+00 0.0000000e+00 
0.0000000e+00 0.0000000e+00 0.0000000e+00 
0.0000000e+00 0.0000000e+00 0.0000000e+00 
0.0000000e+00 0.0000000e+00 0.0000000e+00 
0.0000000e+00 0.0000000e+00 0.0000000e+00 
0.0000000e+00 0.0000000e+00 0.0000000e+00 
0.0000000e+00 0.0000000e+00 0.0000000e+00 
0.0000000e+00 0.0000000e+00 0.0000000e+00 
0.0000000e+00 0.0000000e+00 0.0000000e+00 
0.0000000e+00 0.0000000e+00 0.0000000e+00 
0.0000000e+00 0.0000000e+00 0.0000000e+00 
0.0000000e+00 0.0000000e+00 0.0000000e+00 
0.0000000e+00 0.0000000e+00 0.0000000e+00 
0.0000000e+00 0.0000000e+00 0.0000000e+00 
0.0000000e+00 0.0000000e+00 0.0000000e+00 
0.0000000e+00 0.0000000e+00 0.0000000e+00 
0.0000000e+00 0.0000000e+00 0.0000000e+00 
0.0000000e+00 0.0000000e+00 0.0000000e+00 
0.0000000e+00 0.0000000e+00 0.0000000e+00 
0.0000000e+00 0.0000000e+00 0.0000000e+00 
0.0000000e+00 0.0000000e+00 0.0000000e+00 
0.0000000e+00 0.0000000e+00 0.0000000e+00 
0.0000000e+00 0.0000000e+00 0.0000000e+00 
0.0000000e+00 0.0000000e+00 0.0000000e+00 
0.0000000e+00 0.0000000e+00 0.0000000e+00 
0.0000000e+00 0.0000000e+00 0.0000000e+00 
0.0000000e+00 0.0000000e+00 0.0000000e+00 
0.0000000e+00 0.0000000e+00 0.0000000e+00 
1.3940645e-06 -1.7175726e-06 -6.6825692e-07 
-8.8407228e-07 2.6309483e-06 2.9953899e-06 
-3.5283992e-06 2.3169071e-06 -8.5269443e-07 
1.0558555e-06 1.4573418e-06 -1.4594236e-06 
-1.1524404e-07 6.4501103e-07 -3.0132212e-06 
5.6156009e-06 2.0413252e-06 -8.5366837e-06 
8.1858234e-06 -1.0372549e-05 -1.5985675e-05 
1.7163120e-05 -1.8265994e-06 -2.1101792e-05 
2.9866202e-05 -6.8179761e-06 -1.9414741e-05 
3.7313381e-05 -1.7289816e-05 -1.8084129e-05 
4.7589248e-05 -1.2582787e-05 -1.1608249e-05 
5.1038063e-05 -1.2959593e-05 -4.0026775e-06 
4.4249784e-05 -1.4230488e-05 5.4048605e-06 
3.6781541e-05 -9.8042647e-06 7.5093285e-06 
2.9134741e-05 -9.9293329e-06 7.3584538e-06 
1.4975137e-05 -5.0266631e-06 8.6190366e-06 
9.8009996e-06 7.8715067e-07 7.0197007e-06 
9.8395258e-06 3.0141459e-06 6.8110185e-06 
3.2652524e-06 1.9608260e-07 5.4771626e-06 
-3.7592417e-06 -5.5921846e-06 2.6850653e-06 
1.0232969e-06 -8.5595693e-06 -9.0917501e-07 
3.4220818e-06 -4.1319190e-06 3.9301590e-06 
5.6633639e-06 3.1769448e-06 6.8065110e-06 
-4.2890753e-07 1.7403752e-06 6.4100045e-06 
-2.9497695e-08 -1.6368048e-06 3.9770839e-06 
2.7428950e-06 3.7600483e-07 -4.1174185e-06 
5.7150160e-06 -7.7331998e-07 -6.8303975e-06 
2.0835492e-05 -6.0656625e-06 -1.2087823e-05 
3.1241245e-05 -2.7700926e-06 -8.7236076e-06 
4.0170857e-05 -1.7335742e-05 -6.0034613e-06 
4.5636938e-05 -2.0602412e-05 -6.5016134e-06 
5.4536165e-05 -1.8845174e-05 -2.5194067e-06 
4.9683091e-05 -2.0469683e-05 7.3531169e-07 
3.7234811e-05 -1.1552536e-05 5.1642278e-06 
2.5862346e-05 -5.7628731e-06 7.4199329e-06 
1.1979842e-05 1.6734874e-06 7.1216259e-06 
2.4777187e-06 3.9255265e-06 5.1070492e-06 
-1.8424604e-06 1.7514998e-06 1.8907643e-06 
-5.8980078e-07 -4.2727606e-07 2.6746566e-06 
3.7613206e-06 -3.5624980e-06 5.1567317e-06 
5.5230548e-06 -3.5836943e-06 6.1012265e-06 
3.6965082e-06 -1.4568320e-06 6.4722094e-06 
5.1732053e-07 1.6723353e-06 3.3184106e-06 
-8.3168879e-07 6.4039648e-07 -1.8415260e-07 
-1.9045582e-06 -4.3118968e-07 -2.1960468e-06 
-1.4842002e-06 -1.0600975e-07 -2.4749877e-06 
-2.4340480e-07 5.2478902e-07 -1.7405240e-06 
3.9412325e-07 2.0564171e-07 9.3438736e-08 
1.4231571e-07 8.1483883e-08 1.1780123e-06 
0.0000000e+00 4.8999336e-06 0.0000000e+00 
0.0000000e+00 -6.9996527e-06 0.0000000e+00 
0.0000000e+00 1.6893691e-05 0.0000000e+00 
0.0000000e+00 1.7477512e-05 0.0000000e+00 
0.0000000e+00 -1.1165793e-05 0.0000000e+00 
0.0000000e+00 2.5881171e-05 0.0000000e+00 
0.0000000e+00 5.0198043e-05 0.0000000e+00 
0.0000000e+00 6.2732274e-06 0.0000000e+00 
0.0000000e+00 -2.7886390e-05 0.0000000e+00 
0.0000000e+00 -1.7785387e-04 0.0000000e+00 
0.0000000e+00 -4.4983247e-04 0.0000000e+00 
0.0000000e+00 -5.2777713e-04 0.0000000e+00 
0.0000000e+00 -5.5987068e-04 0.0000000e+00 
0.0000000e+00 -4.6595372e-04 0.0000000e+00 
0.0000000e+00 -3.3585276e-04 0.0000000e+00 
0.0000000e+00 -1.6688832e-04 0.0000000e+00 
0.0000000e+00 -5.3340329e-05 0.0000000e+00 
0.0000000e+00 -4.4156674e-05 0.0000000e+00 
0.0000000e+00 -7.6365824e-05 0.0000000e+00 
0.0000000e+00 -8.9558052e-05 0.0000000e+00 
0.0000000e+00 -1.0852471e-04 0.0000000e+00 
0.0000000e+00 -8.6389708e-05 0.0000000e+00 
0.0000000e+00 -3.7688864e-05 0.0000000e+00 
0.0000000e+00 -9.3415592e-06 0.0000000e+00 
0.0000000e+00 -1.1470211e-06 0.0000000e+00 
0.0000000e+00 3.2367305e-05 0.0000000e+00 
0.0000000e+00 1.0790733e-04 0.0000000e+00 
0.0000000e+00 2.1188904e-05 0.0000000e+00 
0.0000000e+00 -4.0896914e-05 0.0000000e+00 
0.0000000e+00 -1.6985455e-04 0.0000000e+00 
0.0000000e+00 -4.4957420e-04 0.0000000e+00 
0.0000000e+00 -5.7021406e-04 0.0000000e+00 
0.0000000e+00 -5.7985081e-04 0.0000000e+00 
0.0000000e+00 -4.9302296e-04 0.0000000e+00 
0.0000000e+00 -3.3702861e-04 0.0000000e+00 
0.0000000e+00 -1.2047471e-04 0.0000000e+00 
0.0000000e+00 1.4578981e-05 0.0000000e+00 
0.0000000e+00 2.8944414e-05 0.0000000e+00 
0.0000000e+00 1.2221408e-05 0.0000000e+00 
0.0000000e+00 -9.5333326e-06 0.0000000e+00 
0.0000000e+00 -1.8857159e-05 0.0000000e+00 
0.0000000e+00 -6.6406046e-06 0.0000000e+00 
0.0000000e+00 7.2379576e-06 0.0000000e+00 
0.0000000e+00 1.2526415e-05 0.0000000e+00 
0.0000000e+00 5.5056817e-06 0.0000000e+00 
0.0000000e+00 -4.0084428e-06 0.0000000e+00 
0.0000000e+00 -6.0381949e-06 0.0000000e+00 
0.0000000e+00 -5.1420778e-07 0.0000000e+00 
0.0000000e+00 1.8417272e-06 0.0000000e+00 
3.3736603e-06 -2.2919351e-06 -1.3308808e-06 
-2.5176782e-06 2.8807049e-06 1.1207114e-06 
-2.2465581e-06 1.0545659e-05 6.0130201e-06 
-2.6690755e-06 1.6939195e-05 2.3337477e-06 
4.4699608e-08 -2.9761753e-07 1.3072203e-06 
-1.4250024e-07 -3.2476953e-07 1.0860243e-06 
-3.1935681e-07 -2.6127199e-07 2.3472053e-07 
-3.3049218e-07 3.3249680e-07 -4.5515242e-07 
2.5129625e-06 -3.3134993e-06 3.0207056e-07 
1.2284281e-06 5.0050073e-07 5.3791126e-07 
-1.6409580e-06 6.0957950e-07 -4.6759219e-06 
-3.6868371e-06 -5.3397134e-06 -3.1126189e-07 
9.5252217e-06 2.3614884e-06 -1.3391536e-06 
6.6165039e-06 -3.5446117e-08 -7.0341307e-06 
1.3609753e-05 -1.4787105e-05 -1.9199579e-05 
2.6139047e-05 -2.4046519e-06 -2.3458935e-05 
3.7582719e-05 -1.1065441e-05 -2.2687123e-05 
4.8676829e-05 -1.0893693e-05 -2.0931000e-05 
5.3268479e-05 -1.1767574e-05 -1.2222627e-05 
4.4055374e-05 -1.0866655e-05 -2.5045265e-06 
4.0626910e-05 -7.6045699e-06 7.8673320e-06 
3.5301651e-05 -2.0559571e-06 4.4166891e-06 
1.8853672e-05 -8.0735290e-06 4.9392947e-06 
6.6351627e-06 -5.0071476e-06 4.3996379e-06 
5.4317243e-06 7.7341645e-07 2.5044708e-06 
6.1873648e-06 8.7208209e-06 9.3875487e-06 
7.1572771e-07 -5.8578507e-08 1.3110330e-05 
-1.1686667e-05 -3.4057962e-06 1.1151388e-05 