# vtk DataFile Version 4.0
vtk output
ASCII
DATASET UNSTRUCTURED_GRID
POINTS 767 float
0.0000000e+00 0.0000000e+00 0.0000000e+00 
0.0000000e+00 0.0000000e+00 5.0000000e+01 
5.0000000e+00 0.0000000e+00 0.0000000e+00 
5.0000000e+00 0.0000000e+00 5.0000000e+01 
5.0000000e+00 1.0000000e+00 0.0000000e+00 
5.0000000e+00 1.0000000e+00 5.0000000e+01 
0.0000000e+00 1.0000000e+00 0.0000000e+00 
0.0000000e+00 1.0000000e+00 5.0000000e+01 
5.0000000e+00 2.0000000e+00 0.0000000e+00 
5.0000000e+00 2.0000000e+00 5.0000000e+01 
3.0000000e+00 2.0000000e+00 0.0000000e+00 
3.0000000e+00 2.0000000e+00 5.0000000e+01 
0.0000000e+00 2.0000000e+00 0.0000000e+00 
0.0000000e+00 2.0000000e+00 5.0000000e+01 
1.5000000e+00 3.0000000e+00 0.0000000e+00 
1.5000000e+00 3.0000000e+00 5.0000000e+01 
7.5000000e-01 3.0000000e+00 0.0000000e+00 
7.5000000e-01 3.0000000e+00 5.0000000e+01 
0.0000000e+00 3.0000000e+00 0.0000000e+00 
0.0000000e+00 3.0000000e+00 5.0000000e+01 
7.5000000e-01 3.0000000e+00 5.0000000e-01 
7.5000000e-01 3.0000000e+00 1.0000000e+00 
7.5000000e-01 3.0000000e+00 1.5000000e+00 
7.5000000e-01 3.0000000e+00 2.0000000e+00 
7.5000000e-01 3.0000000e+00 2.5000000e+00 
7.5000000e-01 3.0000000e+00 3.0000000e+00 
7.5000000e-01 3.0000000e+00 3.5000000e+00 
7.5000000e-01 3.0000000e+00 4.0000000e+00 
7.5000000e-01 3.0000000e+00 4.5000000e+00 
7.5000000e-01 3.0000000e+00 5.0000000e+00 
7.5000000e-01 3.0000000e+00 5.5000000e+00 
7.5000000e-01 3.0000000e+00 6.0000000e+00 
7.5000000e-01 3.0000000e+00 6.5000000e+00 
7.5000000e-01 3.0000000e+00 7.0000000e+00 
7.5000000e-01 3.0000000e+00 7.5000000e+00 
7.5000000e-01 3.0000000e+00 8.0000000e+00 
7.5000000e-01 3.0000000e+00 8.5000000e+00 
7.5000000e-01 3.0000000e+00 9.0000000e+00 
7.5000000e-01 3.0000000e+00 9.5000000e+00 
7.5000000e-01 3.0000000e+00 1.0000000e+01 
7.5000000e-01 3.0000000e+00 1.0500000e+01 
7.5000000e-01 3.0000000e+00 1.1000000e+01 
7.5000000e-01 3.0000000e+00 1.1500000e+01 
7.5000000e-01 3.0000000e+00 1.2000000e+01 
7.5000000e-01 3.0000000e+00 1.2500000e+01 
7.5000000e-01 3.0000000e+00 1.3000000e+01 
7.5000000e-01 3.0000000e+00 1.3500000e+01 
7.5000000e-01 3.0000000e+00 1.4000000e+01 
7.5000000e-01 3.0000000e+00 1.4500000e+01 
7.5000000e-01 3.0000000e+00 1.5000000e+01 
7.5000000e-01 3.0000000e+00 1.5500000e+01 
7.5000000e-01 3.0000000e+00 1.6000000e+01 
7.5000000e-01 3.0000000e+00 1.6500000e+01 
7.5000000e-01 3.0000000e+00 1.7000000e+01 
7.5000000e-01 3.0000000e+00 1.7500000e+01 
7.5000000e-01 3.0000000e+00 1.8000000e+01 
7.5000000e-01 3.0000000e+00 1.8500000e+01 
7.5000000e-01 3.0000000e+00 1.9000000e+01 
7.5000000e-01 3.0000000e+00 1.9500000e+01 
7.5000000e-01 3.0000000e+00 2.0000000e+01 
7.5000000e-01 3.0000000e+00 2.0500000e+01 
7.5000000e-01 3.0000000e+00 2.1000000e+01 
7.5000000e-01 3.0000000e+00 2.1500000e+01 
7.5000000e-01 3.0000000e+00 2.2000000e+01 
7.5000000e-01 3.0000000e+00 2.2500000e+01 
7.5000000e-01 3.0000000e+00 2.3000000e+01 
7.5000000e-01 3.0000000e+00 2.3500000e+01 
7.5000000e-01 3.0000000e+00 2.4000000e+01 
7.5000000e-01 3.0000000e+00 2.4500000e+01 
7.5000000e-01 3.0000000e+00 2.5000000e+01 
7.5000000e-01 3.0000000e+00 2.5500000e+01 
7.5000000e-01 3.0000000e+00 2.6000000e+01 
7.5000000e-01 3.0000000e+00 2.6500000e+01 
7.5000000e-01 3.0000000e+00 2.7000000e+01 
7.5000000e-01 3.0000000e+00 2.7500000e+01 
7.5000000e-01 3.0000000e+00 2.8000000e+01 
7.5000000e-01 3.0000000e+00 2.8500000e+01 
7.5000000e-01 3.0000000e+00 2.9000000e+01 
7.5000000e-01 3.0000000e+00 2.9500000e+01 
7.5000000e-01 3.0000000e+00 3.0000000e+01 
7.5000000e-01 3.0000000e+00 3.0500000e+01 
7.5000000e-01 3.0000000e+00 3.1000000e+01 
7.5000000e-01 3.0000000e+00 3.1500000e+01 
7.5000000e-01 3.0000000e+00 3.2000000e+01 
7.5000000e-01 3.0000000e+00 3.2500000e+01 
7.5000000e-01 3.0000000e+00 3.3000000e+01 
7.5000000e-01 3.0000000e+00 3.3500000e+01 
7.5000000e-01 3.0000000e+00 3.4000000e+01 
7.5000000e-01 3.0000000e+00 3.4500000e+01 
7.5000000e-01 3.0000000e+00 3.5000000e+01 
7.5000000e-01 3.0000000e+00 3.5500000e+01 
7.5000000e-01 3.0000000e+00 3.6000000e+01 
7.5000000e-01 3.0000000e+00 3.6500000e+01 
7.5000000e-01 3.0000000e+00 3.7000000e+01 
7.5000000e-01 3.0000000e+00 3.7500000e+01 
7.5000000e-01 3.0000000e+00 3.8000000e+01 
7.5000000e-01 3.0000000e+00 3.8500000e+01 
7.5000000e-01 3.0000000e+00 3.9000000e+01 
7.5000000e-01 3.0000000e+00 3.9500000e+01 
7.5000000e-01 3.0000000e+00 4.0000000e+01 
7.5000000e-01 3.0000000e+00 4.0500000e+01 
7.5000000e-01 3.0000000e+00 4.1000000e+01 
7.5000000e-01 3.0000000e+00 4.1500000e+01 
7.5000000e-01 3.0000000e+00 4.2000000e+01 
7.5000000e-01 3.0000000e+00 4.2500000e+01 
7.5000000e-01 3.0000000e+00 4.3000000e+01 
7.5000000e-01 3.0000000e+00 4.3500000e+01 
7.5000000e-01 3.0000000e+00 4.4000000e+01 
7.5000000e-01 3.0000000e+00 4.4500000e+01 
7.5000000e-01 3.0000000e+00 4.5000000e+01 
7.5000000e-01 3.0000000e+00 4.5500000e+01 
7.5000000e-01 3.0000000e+00 4.6000000e+01 
7.5000000e-01 3.0000000e+00 4.6500000e+01 
7.5000000e-01 3.0000000e+00 4.7000000e+01 
7.5000000e-01 3.0000000e+00 4.7500000e+01 
7.5000000e-01 3.0000000e+00 4.8000000e+01 
7.5000000e-01 3.0000000e+00 4.8500000e+01 
7.5000000e-01 3.0000000e+00 4.9000000e+01 
7.5000000e-01 3.0000000e+00 4.9500000e+01 
7.5000000e-01 3.0250001e+00 0.0000000e+00 
7.5000000e-01 3.0250001e+00 5.0000000e-01 
7.5000000e-01 3.0250001e+00 1.0000000e+00 
7.5000000e-01 3.0250001e+00 1.5000000e+00 
7.5000000e-01 3.0250001e+00 2.0000000e+00 
7.5000000e-01 3.0250001e+00 2.5000000e+00 
7.5000000e-01 3.0250001e+00 3.0000000e+00 
7.5000000e-01 3.0250001e+00 3.5000000e+00 
7.5000000e-01 3.0250001e+00 4.0000000e+00 
7.5000000e-01 3.0250001e+00 4.5000000e+00 
7.5000000e-01 3.0250001e+00 5.0000000e+00 
7.5000000e-01 3.0250001e+00 5.5000000e+00 
7.5000000e-01 3.0250001e+00 6.0000000e+00 
7.5000000e-01 3.0250001e+00 6.5000000e+00 
7.5000000e-01 3.0250001e+00 7.0000000e+00 
7.5000000e-01 3.0250001e+00 7.5000000e+00 
7.5000000e-01 3.0250001e+00 8.0000000e+00 
7.5000000e-01 3.0250001e+00 8.5000000e+00 
7.5000000e-01 3.0250001e+00 9.0000000e+00 
7.5000000e-01 3.0250001e+00 9.5000000e+00 
7.5000000e-01 3.0250001e+00 1.0000000e+01 
7.5000000e-01 3.0250001e+00 1.0500000e+01 
7.5000000e-01 3.0250001e+00 1.1000000e+01 
7.5000000e-01 3.0250001e+00 1.1500000e+01 
7.5000000e-01 3.0250001e+00 1.2000000e+01 
7.5000000e-01 3.0250001e+00 1.2500000e+01 
7.5000000e-01 3.0250001e+00 1.3000000e+01 
7.5000000e-01 3.0250001e+00 1.3500000e+01 
7.5000000e-01 3.0250001e+00 1.4000000e+01 
7.5000000e-01 3.0250001e+00 1.4500000e+01 
7.5000000e-01 3.0250001e+00 1.5000000e+01 
7.5000000e-01 3.0250001e+00 1.5500000e+01 
7.5000000e-01 3.0250001e+00 1.6000000e+01 
7.5000000e-01 3.0250001e+00 1.6500000e+01 
7.5000000e-01 3.0250001e+00 1.7000000e+01 
7.5000000e-01 3.0250001e+00 1.7500000e+01 
7.5000000e-01 3.0250001e+00 1.8000000e+01 
7.5000000e-01 3.0250001e+00 1.8500000e+01 
7.5000000e-01 3.0250001e+00 1.9000000e+01 
7.5000000e-01 3.0250001e+00 1.9500000e+01 
7.5000000e-01 3.0250001e+00 2.0000000e+01 
7.5000000e-01 3.0250001e+00 2.0500000e+01 
7.5000000e-01 3.0250001e+00 2.1000000e+01 
7.5000000e-01 3.0250001e+00 2.1500000e+01 
7.5000000e-01 3.0250001e+00 2.2000000e+01 
7.5000000e-01 3.0250001e+00 2.2500000e+01 
7.5000000e-01 3.0250001e+00 2.3000000e+01 
7.5000000e-01 3.0250001e+00 2.3500000e+01 
7.5000000e-01 3.0250001e+00 2.4000000e+01 
7.5000000e-01 3.0250001e+00 2.4500000e+01 
7.5000000e-01 3.0250001e+00 2.5000000e+01 
7.5000000e-01 3.0250001e+00 2.5500000e+01 
7.5000000e-01 3.0250001e+00 2.6000000e+01 
7.5000000e-01 3.0250001e+00 2.6500000e+01 
7.5000000e-01 3.0250001e+00 2.7000000e+01 
7.5000000e-01 3.0250001e+00 2.7500000e+01 
7.5000000e-01 3.0250001e+00 2.8000000e+01 
7.5000000e-01 3.0250001e+00 2.8500000e+01 
7.5000000e-01 3.0250001e+00 2.9000000e+01 
7.5000000e-01 3.0250001e+00 2.9500000e+01 
7.5000000e-01 3.0250001e+00 3.0000000e+01 
7.5000000e-01 3.0250001e+00 3.0500000e+01 
7.5000000e-01 3.0250001e+00 3.1000000e+01 
7.5000000e-01 3.0250001e+00 3.1500000e+01 
7.5000000e-01 3.0250001e+00 3.2000000e+01 
7.5000000e-01 3.0250001e+00 3.2500000e+01 
7.5000000e-01 3.0250001e+00 3.3000000e+01 
7.5000000e-01 3.0250001e+00 3.3500000e+01 
7.5000000e-01 3.0250001e+00 3.4000000e+01 
7.5000000e-01 3.0250001e+00 3.4500000e+01 
7.5000000e-01 3.0250001e+00 3.5000000e+01 
7.5000000e-01 3.0250001e+00 3.5500000e+01 
7.5000000e-01 3.0250001e+00 3.6000000e+01 
7.5000000e-01 3.0250001e+00 3.6500000e+01 
7.5000000e-01 3.0250001e+00 3.7000000e+01 
7.5000000e-01 3.0250001e+00 3.7500000e+01 
7.5000000e-01 3.0250001e+00 3.8000000e+01 
7.5000000e-01 3.0250001e+00 3.8500000e+01 
7.5000000e-01 3.0250001e+00 3.9000000e+01 
7.5000000e-01 3.0250001e+00 3.9500000e+01 
7.5000000e-01 3.0250001e+00 4.0000000e+01 
7.5000000e-01 3.0250001e+00 4.0500000e+01 
7.5000000e-01 3.0250001e+00 4.1000000e+01 
7.5000000e-01 3.0250001e+00 4.1500000e+01 
7.5000000e-01 3.0250001e+00 4.2000000e+01 
7.5000000e-01 3.0250001e+00 4.2500000e+01 
7.5000000e-01 3.0250001e+00 4.3000000e+01 
7.5000000e-01 3.0250001e+00 4.3500000e+01 
7.5000000e-01 3.0250001e+00 4.4000000e+01 
7.5000000e-01 3.0250001e+00 4.4500000e+01 
7.5000000e-01 3.0250001e+00 4.5000000e+01 
7.5000000e-01 3.0250001e+00 4.5500000e+01 
7.5000000e-01 3.0250001e+00 4.6000000e+01 
7.5000000e-01 3.0250001e+00 4.6500000e+01 
7.5000000e-01 3.0250001e+00 4.7000000e+01 
7.5000000e-01 3.0250001e+00 4.7500000e+01 
7.5000000e-01 3.0250001e+00 4.8000000e+01 
7.5000000e-01 3.0250001e+00 4.8500000e+01 
7.5000000e-01 3.0250001e+00 4.9000000e+01 
7.5000000e-01 3.0250001e+00 4.9500000e+01 
7.5000000e-01 3.0250001e+00 5.0000000e+01 
7.5000000e-01 3.0250001e+00 3.5750000e+01 
3.0000000e+00 2.0000000e+00 3.6000000e+01 
8.0487806e-01 3.0000000e+00 3.6000000e+01 
0.0000000e+00 0.0000000e+00 2.0000000e+00 
0.0000000e+00 0.0000000e+00 4.0000000e+00 
0.0000000e+00 0.0000000e+00 6.0000000e+00 
0.0000000e+00 0.0000000e+00 8.0000000e+00 
0.0000000e+00 0.0000000e+00 1.0000000e+01 
0.0000000e+00 0.0000000e+00 1.2000000e+01 
0.0000000e+00 0.0000000e+00 1.4000000e+01 
[...]
POINT_DATA 767
FIELD FieldData 3
DISPLACEMENT 3 767  float
0.0000000e+00 0.0000000e+00 0.0000000e+00 
0.0000000e+00 0.0000000e+00 0.0000000e+00 
0.0000000e+00 0.0000000e+00 0.0000000e+00 
0.0000000e+00 0.0000000e+00 0.0000000e+00 
5.8858927e-07 5.8428895e-07 2.5042357e-06 
-2.7987039e-06 2.0335946e-07 -2.0411774e-08 
0.0000000e+00 -1.0571396e-05 0.0000000e+00 
0.0000000e+00 -1.6769080e-05 0.0000000e+00 
1.0716262e-06 1.6057743e-07 3.3380775e-06 
-4.7651297e-06 7.2295052e-07 3.0998463e-06 
-1.8692655e-06 1.0312200e-06 5.0031535e-06 
3.8172848e-06 -4.5239062e-06 -9.1760303e-06 
0.0000000e+00 -2.1856295e-05 0.0000000e+00 
0.0000000e+00 -3.1020169e-05 0.0000000e+00 
-7.7614413e-06 -9.2843784e-06 1.2058191e-05 
-1.4520347e-05 -1.6133992e-05 2.0412675e-05 
-1.9879377e-05 -2.6992344e-05 2.2223537e-06 
-2.7292474e-05 5.5345540e-06 8.9875894e-06 
0.0000000e+00 -1.0434429e-05 0.0000000e+00 
0.0000000e+00 -4.2614683e-05 0.0000000e+00 
-1.6371636e-05 -2.6117305e-05 -1.1337738e-05 
-1.2218013e-05 -2.4634070e-05 -1.4039530e-05 
-1.7752007e-05 -2.3386587e-05 -1.7832923e-05 
-1.2876500e-05 -2.9747680e-05 -1.2631670e-05 
-1.6355711e-05 -4.3575834e-05 -4.8038673e-06 
-5.4538104e-06 -5.9301579e-05 -2.7318281e-06 
-1.1657040e-05 -7.2359377e-05 -2.2602990e-06 
-3.1129775e-06 -7.7071782e-05 3.2208918e-06 
-4.9492605e-06 -7.8941142e-05 -2.6544456e-06 
-8.2149518e-06 -8.9743400e-05 -2.0159611e-08 
-9.7390546e-07 -1.1500265e-04 6.9293282e-07 
1.0001384e-06 -1.3825188e-04 -1.6432922e-06 
-6.3543998e-06 -1.4268277e-04 1.3312083e-05 
-1.6749289e-05 -1.2737703e-04 2.0507835e-06 
-1.7588749e-05 -1.0502680e-04 -9.7374805e-06 
-2.5209061e-05 -8.7859116e-05 -1.2459115e-05 
-2.1425994e-05 -7.9861769e-05 -3.1013675e-05 
-2.0329697e-05 -7.1271381e-05 -2.8983577e-05 
-1.7897504e-05 -4.5663444e-05 -1.1324092e-05 
-2.2550268e-05 -1.7662232e-05 -1.4540111e-05 
-1.8821007e-05 1.9906662e-07 -1.4677357e-05 
-2.0052155e-06 5.4368497e-06 1.3513180e-05 
-2.8090462e-05 3.9018742e-06 -3.6926290e-06 
-1.5438450e-06 2.3322273e-06 -1.1438018e-05 
-1.0001327e-05 2.1573553e-06 2.4817735e-05 
-2.8222307e-06 -4.9965861e-06 7.2036378e-06 
1.1909944e-05 -3.6245488e-05 -5.1772436e-06 
1.8586450e-05 -4.7507467e-05 4.5238274e-05 
3.6967045e-05 -2.2911832e-05 2.2676344e-05 
7.9311194e-06 3.9973334e-06 1.5673955e-05 
3.5717960e-05 1.8249993e-06 7.4541436e-05 
-2.1619202e-05 -8.3898274e-05 5.4465727e-05 
-8.1598177e-05 -2.6602304e-04 8.7426713e-05 
-4.8727165e-05 -5.2903924e-04 1.2463704e-04 
-1.2096668e-04 -9.0291223e-04 1.6499274e-04 
-1.3121185e-04 -1.4927143e-03 1.1817578e-04 
-2.8563247e-04 -2.3936427e-03 1.8855823e-04 
-3.0539325e-04 -3.4506570e-03 1.8872983e-04 
-2.1337843e-04 -4.3236208e-03 1.2552456e-04 
-1.7951698e-04 -4.3705744e-03 1.3197120e-04 
-2.7906851e-04 -4.1214344e-03 6.9112226e-05 
-3.7909517e-04 -4.0164948e-03 6.5698863e-05 
-2.6556588e-04 -4.2459825e-03 3.6273803e-05 
-1.2253797e-04 -4.3116054e-03 -1.4956447e-05 
-1.4077198e-04 -3.6935459e-03 -9.7691271e-05 
-2.3167751e-04 -2.7090427e-03 -1.4784058e-04 
-2.1421371e-04 -1.8067429e-03 -1.6603089e-04 
-8.2096107e-05 -1.0934913e-03 -1.1236662e-04 
-4.5214343e-05 -6.3079974e-04 -1.5397689e-04 
-4.0679501e-05 -3.5351992e-04 -1.2802254e-04 
-3.0230207e-05 -1.9581715e-04 -1.0274503e-04 
-2.2497781e-05 -1.1753428e-04 -7.6771634e-05 
-2.4524605e-05 -9.9770114e-05 -5.3136795e-05 
-2.5177500e-05 -1.0591900e-04 -4.4457753e-05 
-3.2045460e-05 -1.0180342e-04 -3.9909930e-05 
-4.6016361e-05 -9.0249159e-05 -4.8475988e-05 
-4.2956261e-05 -8.6982735e-05 -6.3553176e-05 
-4.4729204e-05 -9.7529875e-05 -4.8690410e-05 
-4.6353536e-05 -1.0389435e-04 -4.2394124e-05 
-3.2879478e-05 -9.3946219e-05 -6.3106760e-05 
-2.6497657e-05 -6.0847215e-05 -4.9364375e-05 
-1.3136945e-05 -2.1635477e-05 -4.7719455e-05 
-2.6069823e-05 -1.2658348e-06 -9.1385911e-05 
8.8920106e-06 2.0190366e-05 -8.7780179e-05 
1.8636179e-05 5.8116857e-05 -6.9214970e-05 
2.1226617e-05 1.0360103e-04 -7.3159878e-05 
6.4754597e-05 1.3866443e-04 -5.6203160e-05 
2.1989788e-05 1.6671147e-04 -3.3143720e-06 
6.7049034e-05 1.9850933e-04 -9.1669981e-06 
4.7849462e-05 2.3997556e-04 2.6673300e-05 
3.3915119e-05 2.8492225e-04 1.1606425e-04 
5.9168011e-05 2.3357198e-04 1.0482371e-04 
-8.5082109e-05 3.2253814e-05 1.0280412e-04 
-1.1200019e-05 -3.1414771e-04 1.9775539e-04 
-8.0169833e-05 -8.1916474e-04 2.4278660e-04 
-1.2662160e-04 -1.4863183e-03 1.4373391e-04 
-2.2868213e-04 -2.3587632e-03 2.1982123e-04 
-3.1870982e-04 -3.3230295e-03 1.8980664e-04 
-1.8762473e-04 -4.1164099e-03 1.0939976e-04 
-1.9080321e-04 -4.1777268e-03 1.1213095e-04 
-3.1228067e-04 -4.0241373e-03 6.1202838e-05 
-3.6391403e-04 -4.0101735e-03 1.7755881e-05 
-2.3329919e-04 -4.2502228e-03 -3.9408635e-05 
-7.0599875e-05 -4.2385105e-03 -7.5920012e-05 
-8.0573620e-05 -3.4928666e-03 -1.7304793e-04 
-1.6290361e-04 -2.4084323e-03 -1.9736192e-04 
-1.5787856e-04 -1.4632067e-03 -1.7114848e-04 
-3.9560015e-05 -7.4768363e-04 -8.6623484e-05 
-9.8690898e-06 -2.8539624e-04 -1.1485014e-04 
-5.6394188e-06 -7.5193548e-06 -7.8813369e-05 
-1.3064120e-05 1.3490127e-04 -6.0597009e-05 
-8.4539115e-06 1.8425105e-04 -4.8673668e-05 
4.5044837e-07 1.7329669e-04 -3.0139980e-05 
9.3433919e-06 1.3979900e-04 -1.3181898e-05 
7.2919361e-06 1.0949625e-04 -7.9326361e-07 
5.1226111e-06 8.3233892e-05 2.1747641e-05 
-5.0225663e-07 5.8301048e-05 3.4619661e-05 
-5.5438773e-06 3.3941040e-05 3.6797031e-05 
-1.0440796e-05 1.3584336e-05 3.9193164e-05 
0.0000000e+00 -2.7109032e-05 0.0000000e+00 
0.0000000e+00 -2.6172822e-05 0.0000000e+00 
0.0000000e+00 -2.4160980e-05 0.0000000e+00 
0.0000000e+00 -2.3555267e-05 0.0000000e+00 
0.0000000e+00 -2.9912164e-05 0.0000000e+00 
0.0000000e+00 -4.3654749e-05 0.0000000e+00 
0.0000000e+00 -5.9689104e-05 0.0000000e+00 
0.0000000e+00 -7.1878145e-05 0.0000000e+00 
0.0000000e+00 -7.6512617e-05 0.0000000e+00 
0.0000000e+00 -7.9115176e-05 0.0000000e+00 
0.0000000e+00 -9.0901049e-05 0.0000000e+00 
0.0000000e+00 -1.1524875e-04 0.0000000e+00 
0.0000000e+00 -1.3771339e-04 0.0000000e+00 
0.0000000e+00 -1.4201659e-04 0.0000000e+00 
0.0000000e+00 -1.2708134e-04 0.0000000e+00 
0.0000000e+00 -1.0536949e-04 0.0000000e+00 
0.0000000e+00 -8.8802182e-05 0.0000000e+00 
0.0000000e+00 -8.0350357e-05 0.0000000e+00 
0.0000000e+00 -6.9689166e-05 0.0000000e+00 
0.0000000e+00 -4.5662167e-05 0.0000000e+00 
0.0000000e+00 -1.8053846e-05 0.0000000e+00 
0.0000000e+00 -1.5941937e-07 0.0000000e+00 
0.0000000e+00 5.0171861e-06 0.0000000e+00 
0.0000000e+00 4.2849192e-06 0.0000000e+00 
0.0000000e+00 3.3170825e-06 0.0000000e+00 
0.0000000e+00 2.6425737e-06 0.0000000e+00 
0.0000000e+00 -8.2029046e-06 0.0000000e+00 
0.0000000e+00 -3.5358706e-05 0.0000000e+00 
0.0000000e+00 -4.5349345e-05 0.0000000e+00 
0.0000000e+00 -2.2475577e-05 0.0000000e+00 
0.0000000e+00 6.3510784e-06 0.0000000e+00 
0.0000000e+00 -3.0839260e-07 0.0000000e+00 
0.0000000e+00 -8.6391752e-05 0.0000000e+00 
0.0000000e+00 -2.6419305e-04 0.0000000e+00 
0.0000000e+00 -5.2522460e-04 0.0000000e+00 
0.0000000e+00 -9.0278120e-04 0.0000000e+00 
0.0000000e+00 -1.5033414e-03 0.0000000e+00 
0.0000000e+00 -2.4038833e-03 0.0000000e+00 
0.0000000e+00 -3.4874959e-03 0.0000000e+00 
0.0000000e+00 -4.3455209e-03 0.0000000e+00 
0.0000000e+00 -4.3964414e-03 0.0000000e+00 
0.0000000e+00 -4.1353321e-03 0.0000000e+00 
0.0000000e+00 -4.0508984e-03 0.0000000e+00 
0.0000000e+00 -4.2680558e-03 0.0000000e+00 
0.0000000e+00 -4.3451493e-03 0.0000000e+00 
0.0000000e+00 -3.7098078e-03 0.0000000e+00 
0.0000000e+00 -2.7275051e-03 0.0000000e+00 
0.0000000e+00 -1.8097616e-03 0.0000000e+00 
0.0000000e+00 -1.0988213e-03 0.0000000e+00 
0.0000000e+00 -6.3021824e-04 0.0000000e+00 
0.0000000e+00 -3.5162625e-04 0.0000000e+00 
0.0000000e+00 -1.9509337e-04 0.0000000e+00 
0.0000000e+00 -1.1904499e-04 0.0000000e+00 
0.0000000e+00 -9.9652221e-05 0.0000000e+00 
0.0000000e+00 -1.0357310e-04 0.0000000e+00 
0.0000000e+00 -1.0097407e-04 0.0000000e+00 
0.0000000e+00 -9.1013637e-05 0.0000000e+00 
0.0000000e+00 -8.8295252e-05 0.0000000e+00 
0.0000000e+00 -9.7331154e-05 0.0000000e+00 
0.0000000e+00 -1.0356032e-04 0.0000000e+00 
0.0000000e+00 -9.2687122e-05 0.0000000e+00 
0.0000000e+00 -6.0526108e-05 0.0000000e+00 
0.0000000e+00 -2.4033239e-05 0.0000000e+00 
0.0000000e+00 -9.2432776e-07 0.0000000e+00 
0.0000000e+00 2.1594951e-05 0.0000000e+00 
0.0000000e+00 5.8543177e-05 0.0000000e+00 
0.0000000e+00 1.0290537e-04 0.0000000e+00 
0.0000000e+00 1.3800593e-04 0.0000000e+00 
0.0000000e+00 1.6626969e-04 0.0000000e+00 
0.0000000e+00 1.9927605e-04 0.0000000e+00 
0.0000000e+00 2.4517070e-04 0.0000000e+00 
0.0000000e+00 2.8365807e-04 0.0000000e+00 
0.0000000e+00 2.3111232e-04 0.0000000e+00 
0.0000000e+00 3.2420048e-05 0.0000000e+00 
0.0000000e+00 -3.1591795e-04 0.0000000e+00 
0.0000000e+00 -8.1738137e-04 0.0000000e+00 
0.0000000e+00 -1.4922253e-03 0.0000000e+00 
0.0000000e+00 -2.3674516e-03 0.0000000e+00 
0.0000000e+00 -3.3601322e-03 0.0000000e+00 
0.0000000e+00 -4.1397824e-03 0.0000000e+00 
0.0000000e+00 -4.2050481e-03 0.0000000e+00 
0.0000000e+00 -4.0371227e-03 0.0000000e+00 
0.0000000e+00 -4.0411120e-03 0.0000000e+00 
0.0000000e+00 -4.2717438e-03 0.0000000e+00 
0.0000000e+00 -4.2718370e-03 0.0000000e+00 
0.0000000e+00 -3.5101038e-03 0.0000000e+00 
0.0000000e+00 -2.4279833e-03 0.0000000e+00 
0.0000000e+00 -1.4662279e-03 0.0000000e+00 
0.0000000e+00 -7.5083139e-04 0.0000000e+00 
0.0000000e+00 -2.8435554e-04 0.0000000e+00 
0.0000000e+00 -7.4907562e-06 0.0000000e+00 
0.0000000e+00 1.3523836e-04 0.0000000e+00 
0.0000000e+00 1.8453330e-04 0.0000000e+00 
0.0000000e+00 1.7435492e-04 0.0000000e+00 
0.0000000e+00 1.4098268e-04 0.0000000e+00 
0.0000000e+00 1.0924280e-04 0.0000000e+00 
0.0000000e+00 8.2970939e-05 0.0000000e+00 
0.0000000e+00 5.8359306e-05 0.0000000e+00 
0.0000000e+00 3.3974036e-05 0.0000000e+00 
0.0000000e+00 1.3775618e-05 0.0000000e+00 
0.0000000e+00 5.5645614e-06 0.0000000e+00 
0.0000000e+00 2.7459129e-04 0.0000000e+00 
2.0475018e-05 4.7403842e-05 3.2626274e-05 
4.0061303e-05 2.4083949e-04 9.9275116e-05 
0.0000000e+00 0.0000000e+00 0.0000000e+00 
0.0000000e+00 0.0000000e+00 0.0000000e+00 
0.0000000e+00 0.0000000e+00 0.0000000e+00 
0.0000000e+00 0.0000000e+00 0.0000000e+00 
0.0000000e+00 0.0000000e+00 0.0000000e+00 
0.0000000e+00 0.0000000e+00 0.0000000e+00 
0.0000000e+00 0.0000000e+00 0.0000000e+00 
0.0000000e+00 0.0000000e+00 0.0000000e+00 
0.0000000e+00 0.0000000e+00 0.0000000e+00 
0.0000000e+00 0.0000000e+00 0.0000000e+00 
0.0000000e+00 0.0000000e+00 0.0000000e+00 
0.0000000e+00 0.0000000e+00 0.0000000e+00 
0.0000000e+00 0.0000000e+00 0.0000000e+00 
0.0000000e+00 0.0000000e+00 0.0000000e+00 
0.0000000e+00 0.0000000e+00 0.0000000e+00 
0.0000000e+00 0.0000000e+00 0.0000000e+00 
0.0000000e+00 0.0000000e+00 0.0000000e+00 
0.0000000e+00 0.0000000e+00 0.0000000e+00 
0.0000000e+00 0.0000000e+00 0.0000000e+00 
0.0000000e+00 0.0000000e+00 0.0000000e+00 
0.0000000e+00 0.0000000e+00 0.0000000e+00 
0.0000000e+00 0.0000000e+00 0.0000000e+00 
0.0000000e+00 0.0000000e+00 0.0000000e+00 
0.0000000e+00 0.0000000e+00 0.0000000e+00 
0.0000000e+00 0.0000000e+00 0.0000000e+00 
0.0000000e+00 0.0000000e+00 0.0000000e+00 
0.0000000e+00 0.0000000e+00 0.0000000e+00 
0.0000000e+00 0.0000000e+00 0.0000000e+00 
0.0000000e+00 0.0000000e+00 0.0000000e+00 
0.0000000e+00 0.0000000e+00 0.0000000e+00 
0.0000000e+00 0.0000000e+00 0.0000000e+00 
0.0000000e+00 0.0000000e+00 0.0000000e+00 
0.0000000e+00 0.0000000e+00 0.0000000e+00 
0.0000000e+00 0.0000000e+00 0.0000000e+00 
0.0000000e+00 0.0000000e+00 0.0000000e+00 
0.0000000e+00 0.0000000e+00 0.0000000e+00 
0.0000000e+00 0.0000000e+00 0.0000000e+00 
0.0000000e+00 0.0000000e+00 0.0000000e+00 
0.0000000e+00 0.0000000e+00 0.0000000e+00 
0.0000000e+00 0.0000000e+00 0.0000000e+00 
0.0000000e+00 0.0000000e+00 0.0000000e+00 
0.0000000e+00 0.0000000e+00 0.0000000e+00 
0.0000000e+00 0.0000000e+00 0.0000000e+00 
0.0000000e+00 0.0000000e+00 0.0000000e+00 
0.0000000e+00 0.0000000e+00 0.0000000e+00 
0.0000000e+00 0.0000000e+00 0.0000000e+00 
0.0000000e+00 0.0000000e+00 0.0000000e+00 
0.0000000e+00 0.0000000e+00 0.0000000e+00 
0.0000000e+00 0.0000000e+00 0.0000000e+00 
0.0000000e+00 0.0000000e+00 0.0000000e+00 
0.0000000e+00 0.0000000e+00 0.0000000e+00 
0.0000000e+00 0.0000000e+00 0.0000000e+00 
6.3367128e-07 9.3657530e-07 -1.2495799e-06 
3.3377148e-06 2.0441507e-06 -6.7301103e-06 
2.1370488e-06 -1.4646871e-06 -4.5404909e-06 
-8.1649262e-07 -1.5119499e-06 -4.4920543e-07 
-4.7220724e-06 -2.5942957e-06 2.3253563e-06 
-1.0271927e-05 5.1402793e-07 9.5860969e-07 
-2.9108680e-06 -3.5691451e-06 -9.9211900e-07 
1.4516988e-05 -2.2769004e-06 -4.1004864e-06 
3.7212616e-05 -1.2432264e-06 -8.6161626e-06 
5.5983415e-05 -2.2038921e-06 -2.8102343e-06 
5.1870789e-05 -2.5408685e-06 8.0146337e-06 
2.7992470e-05 -1.6737475e-06 4.7369108e-06 
9.0778167e-06 1.4873289e-06 1.0480991e-06 
2.0609989e-06 1.4876092e-06 -2.8501463e-06 
-2.6232667e-06 1.4818783e-06 1.0455954e-06 
-8.2582774e-06 -1.0057364e-06 2.5448103e-06 
-4.3835616e-06 3.1221018e-06 2.9484834e-06 
9.7235488e-06 -6.0646806e-07 3.0462734e-06 
3.4934947e-05 -1.0679371e-05 -7.5607340e-06 
5.4999353e-05 -1.3083971e-05 -3.1366051e-06 
4.1354469e-05 -8.6710215e-06 1.5862068e-05 
1.9953393e-05 -1.4952623e-06 1.3722305e-05 
3.9124429e-06 2.6988450e-06 5.0031131e-06 
1.2585799e-06 1.9248521e-06 -5.1332281e-06 
0.0000000e+00 -1.4014237e-05 0.0000000e+00 
0.0000000e+00 6.6060073e-07 0.0000000e+00 
0.0000000e+00 -1.6687383e-05 0.0000000e+00 
0.0000000e+00 -2.6578820e-05 0.0000000e+00 
0.0000000e+00 -3.8569651e-05 0.0000000e+00 
0.0000000e+00 -2.5345553e-05 0.0000000e+00 
0.0000000e+00 1.6408709e-05 0.0000000e+00 
0.0000000e+00 -8.3614745e-05 0.0000000e+00 
0.0000000e+00 -2.3733272e-04 0.0000000e+00 
0.0000000e+00 -5.4051232e-04 0.0000000e+00 
0.0000000e+00 -5.4809364e-04 0.0000000e+00 
0.0000000e+00 -2.2063433e-04 0.0000000e+00 
0.0000000e+00 -4.5117900e-05 0.0000000e+00 
0.0000000e+00 -4.0457227e-05 0.0000000e+00 
0.0000000e+00 -5.4474978e-05 0.0000000e+00 
0.0000000e+00 1.4098496e-05 0.0000000e+00 
0.0000000e+00 5.5228487e-05 0.0000000e+00 
0.0000000e+00 1.2733024e-05 0.0000000e+00 
0.0000000e+00 -2.0066503e-04 0.0000000e+00 
0.0000000e+00 -5.6023960e-04 0.0000000e+00 
0.0000000e+00 -5.5282988e-04 0.0000000e+00 
0.0000000e+00 -1.1685859e-04 0.0000000e+00 
0.0000000e+00 3.5345089e-05 0.0000000e+00 
0.0000000e+00 2.5256571e-05 0.0000000e+00 
1.1968551e-06 -3.1201120e-07 1.2231093e-06 
3.3561314e-06 -7.6655806e-06 -2.4008475e-06 
4.7446608e-07 -5.6838701e-07 -9.7979610e-06 
4.6041059e-06 -6.5375134e-06 -1.2659539e-05 
1.2240987e-07 3.7585935e-06 -1.8117330e-06 
-7.6484685e-07 5.1333695e-06 -6.0671146e-06 
-4.7695494e-07 -3.0720362e-06 -4.0551695e-06 
-4.0588651e-07 -2.0058590e-06 -3.3834042e-06 
-5.7497573e-06 -2.4295584e-06 2.2227323e-06 
-9.9933732e-06 1.7352008e-06 8.8959627e-07 
-5.5024166e-06 -7.6479722e-07 -1.3329258e-06 
1.7639280e-05 -3.5347111e-06 -8.5192314e-06 
3.5615889e-05 -9.4944301e-07 -3.8146213e-06 
3.8419024e-05 -1.8153773e-06 2.2426032e-06 
2.6589320e-05 5.1086812e-07 9.0190943e-06 
8.3011009e-06 4.3583823e-06 -5.1986291e-07 
5.2464839e-06 1.0869513e-06 -3.4002342e-06 
-1.6148825e-06 -9.3472289e-07 -7.3252327e-06 
-6.2535478e-06 -1.2161003e-06 3.8583266e-06 
-2.0495470e-06 2.2303461e-06 -3.6073236e-06 
5.1299694e-06 6.4038049e-06 3.2997004e-06 
2.4829920e-05 -3.6569036e-06 3.0282260e-06 
2.9396149e-05 -8.5135789e-06 7.5352473e-06 
3.3468616e-05 -1.3913918e-05 -9.9715567e-07 
3.3697299e-05 4.6893924e-06 9.5477681e-06 
2.1670126e-05 1.1224490e-06 7.0085875e-06 
1.0289007e-05 4.9183509e-06 5.2814462e-06 
6.6880266e-06 1.7382408e-06 -3.7035977e-06 
-4.4623753e-06 -1.2500195e-05 -2.9234491e-07 
0.0000000e+00 -1.2654182e-05 0.0000000e+00 
0.0000000e+00 -7.9719875e-06 0.0000000e+00 
0.0000000e+00 -4.8139067e-05 0.0000000e+00 
0.0000000e+00 -5.9546099e-05 0.0000000e+00 
0.0000000e+00 -3.3397071e-06 0.0000000e+00 
0.0000000e+00 -4.3609052e-05 0.0000000e+00 
0.0000000e+00 -8.0874044e-05 0.0000000e+00 
0.0000000e+00 -1.1454065e-05 0.0000000e+00 
0.0000000e+00 -5.2139477e-04 0.0000000e+00 
0.0000000e+00 -1.2638394e-03 0.0000000e+00 
0.0000000e+00 -1.1980749e-03 0.0000000e+00 
0.0000000e+00 -4.3893998e-04 0.0000000e+00 
0.0000000e+00 -6.6438472e-05 0.0000000e+00 
0.0000000e+00 -6.5733817e-05 0.0000000e+00 
0.0000000e+00 -4.1663443e-05 0.0000000e+00 
0.0000000e+00 -5.1361985e-05 0.0000000e+00 
0.0000000e+00 1.1587849e-04 0.0000000e+00 
0.0000000e+00 1.5125764e-04 0.0000000e+00 
0.0000000e+00 -5.2422017e-04 0.0000000e+00 
0.0000000e+00 -1.2304727e-03 0.0000000e+00 
0.0000000e+00 -1.2032529e-03 0.0000000e+00 
0.0000000e+00 -2.3242352e-04 0.0000000e+00 
0.0000000e+00 6.9531096e-05 0.0000000e+00 
0.0000000e+00 4.8453068e-05 0.0000000e+00 
5.1628008e-06 -7.9460387e-06 -7.8144994e-06 
-2.6736318e-05 -1.9772689e-05 -5.5631758e-06 
-3.0575125e-06 -6.3154454e-05 1.4010245e-05 
3.0848175e-06 -9.5289244e-05 -3.8333915e-06 
-3.5525565e-05 -7.6504679e-05 -4.0749015e-05 
-2.8639197e-05 -1.0626670e-05 -3.7468639e-05 
-7.5026269e-06 1.0987894e-05 -4.0479913e-06 
3.6667065e-05 -2.3531717e-05 6.3282016e-05 
-2.5903939e-06 -5.4373137e-05 1.0537817e-04 
-3.1821249e-04 -5.4972159e-04 3.1073554e-04 
-7.3400291e-04 -1.4725869e-03 1.4056780e-04 
-6.6055031e-04 -1.5231046e-03 -1.0251015e-04 
-1.6678894e-04 -4.2849834e-04 -2.3890121e-04 
-1.7570275e-05 -1.0556379e-04 -1.0293210e-04 
-4.3471315e-05 -9.3707400e-05 -8.0194390e-05 
-4.5548448e-05 -4.5759669e-05 -9.9934899e-05 
1.3820462e-06 1.7239303e-05 -1.1513329e-04 
8.4176812e-05 1.4697050e-04 -3.6494985e-05 
6.7246488e-05 1.2961611e-04 1.3842709e-04 
-2.8843590e-04 -4.4275602e-04 3.5960041e-04 
-7.1575405e-04 -1.3486671e-03 1.0999185e-04 
-6.0423469e-04 -1.5083007e-03 -1.7855183e-04 
-1.1625439e-04 -2.0566430e-04 -2.1569739e-04 
1.6845917e-05 1.0504926e-04 -4.3483633e-05 
1.0840603e-05 5.6378751e-05 1.4745269e-05 
0.0000000e+00 -2.9512581e-05 0.0000000e+00 
0.0000000e+00 -3.9162063e-05 0.0000000e+00 
0.0000000e+00 -1.0340897e-04 0.0000000e+00 
0.0000000e+00 -5.1709663e-05 0.0000000e+00 
0.0000000e+00 -8.8642428e-06 0.0000000e+00 
0.0000000e+00 -1.2002009e-04 0.0000000e+00 
0.0000000e+00 -5.3506719e-05 0.0000000e+00 
0.0000000e+00 4.1401385e-05 0.0000000e+00 
0.0000000e+00 -9.1328315e-04 0.0000000e+00 
0.0000000e+00 -2.4346460e-03 0.0000000e+00 
0.0000000e+00 -2.3111934e-03 0.0000000e+00 
0.0000000e+00 -7.2408229e-04 0.0000000e+00 
0.0000000e+00 -5.4808748e-05 0.0000000e+00 
0.0000000e+00 -5.7001238e-05 0.0000000e+00 
0.0000000e+00 -9.8170160e-05 0.0000000e+00 
0.0000000e+00 -8.3701350e-05 0.0000000e+00 
0.0000000e+00 1.9299814e-04 0.0000000e+00 
0.0000000e+00 2.3371336e-04 0.0000000e+00 
0.0000000e+00 -9.7165868e-04 0.0000000e+00 
0.0000000e+00 -2.3819173e-03 0.0000000e+00 
0.0000000e+00 -2.3044578e-03 0.0000000e+00 
0.0000000e+00 -3.9962205e-04 0.0000000e+00 
0.0000000e+00 1.4777515e-04 0.0000000e+00 
0.0000000e+00 6.4453125e-05 0.0000000e+00 
-6.7750216e-06 -3.7988394e-07 -7.3146080e-06 
2.1005185e-06 -1.0978218e-05 -7.6618317e-06 
4.1064922e-07 -2.2797021e-05 -5.4660354e-06 
-7.2783514e-06 -1.0630743e-05 -5.2616474e-06 
-1.5807493e-05 1.1213052e-06 -5.2465871e-06 
-8.6931113e-06 8.4235135e-06 4.4519368e-07 
8.1492954e-06 1.2078271e-05 1.1053949e-05 
2.5033509e-05 1.2977831e-05 1.9020741e-05 
5.3837499e-05 -6.6106804e-05 1.3846001e-05 
4.2189851e-05 -1.1974814e-04 3.7131795e-06 
3.8289989e-05 -1.2234146e-04 1.0854518e-05 
4.0864688e-05 -8.5098247e-05 -1.1481234e-06 
1.1352374e-06 -1.0098240e-05 -2.0520298e-05 
-8.6844675e-06 -1.0276505e-05 -2.1470198e-05 
-1.1410733e-05 -9.6982458e-06 -2.3462742e-05 
-1.9528852e-06 1.2421514e-05 -2.0077869e-05 
9.1238626e-06 4.2563555e-05 1.3167877e-06 
4.3010186e-05 -6.3378000e-05 2.1038541e-05 
4.8809939e-05 -1.1943648e-04 -6.4534911e-06 
3.6217050e-05 -1.2082739e-04 1.0305635e-05 
3.4020184e-05 -2.6645024e-05 9.3642602e-06 
8.1216049e-06 2.1045566e-05 -2.5281879e-06 
2.6223136e-06 1.8509383e-05 -9.2143046e-06 
5.0929590e-05 1.1938377e-04 8.6951171e-05 
0.0000000e+00 0.0000000e+00 0.0000000e+00 
0.0000000e+00 0.0000000e+00 0.0000000e+00 