# vtk DataFile Version 4.0
vtk output
ASCII
DATASET UNSTRUCTURED_GRID
POINTS 1920 float
0.0000000e+00 0.0000000e+00 0.0000000e+00 
0.0000000e+00 0.0000000e+00 5.0000000e+01 
5.0000000e+00 0.0000000e+00 0.0000000e+00 
5.0000000e+00 0.0000000e+00 5.0000000e+01 
5.0000000e+00 1.0000000e+00 0.0000000e+00 
5.0000000e+00 1.0000000e+00 5.0000000e+01 
0.0000000e+00 1.0000000e+00 0.0000000e+00 
0.0000000e+00 1.0000000e+00 5.0000000e+01 
5.0000000e+00 2.0000000e+00 0.0000000e+00 
5.0000000e+00 2.0000000e+00 5.0000000e+01 
3.0000000e+00 2.0000000e+00 0.0000000e+00 
3.0000000e+00 2.0000000e+00 5.0000000e+01 
0.0000000e+00 2.0000000e+00 0.0000000e+00 
0.0000000e+00 2.0000000e+00 5.0000000e+01 
1.5000000e+00 3.0000000e+00 0.0000000e+00 
1.5000000e+00 3.0000000e+00 5.0000000e+01 
7.5000000e-01 3.0000000e+00 0.0000000e+00 
7.5000000e-01 3.0000000e+00 5.0000000e+01 
0.0000000e+00 3.0000000e+00 0.0000000e+00 
0.0000000e+00 3.0000000e+00 5.0000000e+01 
7.5000000e-01 3.0000000e+00 5.0000000e-01 
7.5000000e-01 3.0000000e+00 1.0000000e+00 
7.5000000e-01 3.0000000e+00 1.5000000e+00 
7.5000000e-01 3.0000000e+00 2.0000000e+00 
7.5000000e-01 3.0000000e+00 2.5000000e+00 
7.5000000e-01 3.0000000e+00 3.0000000e+00 
7.5000000e-01 3.0000000e+00 3.5000000e+00 
7.5000000e-01 3.0000000e+00 4.0000000e+00 
7.5000000e-01 3.0000000e+00 4.5000000e+00 
7.5000000e-01 3.0000000e+00 5.0000000e+00 
7.5000000e-01 3.0000000e+00 5.5000000e+00 
7.5000000e-01 3.0000000e+00 6.0000000e+00 
7.5000000e-01 3.0000000e+00 6.5000000e+00 
7.5000000e-01 3.0000000e+00 7.0000000e+00 
7.5000000e-01 3.0000000e+00 7.5000000e+00 
7.5000000e-01 3.0000000e+00 8.0000000e+00 
7.5000000e-01 3.0000000e+00 8.5000000e+00 
7.5000000e-01 3.0000000e+00 9.0000000e+00 
7.5000000e-01 3.0000000e+00 9.5000000e+00 
7.5000000e-01 3.0000000e+00 1.0000000e+01 
7.5000000e-01 3.0000000e+00 1.0500000e+01 
7.5000000e-01 3.0000000e+00 1.1000000e+01 
7.5000000e-01 3.0000000e+00 1.1500000e+01 
7.5000000e-01 3.0000000e+00 1.2000000e+01 
7.5000000e-01 3.0000000e+00 1.2500000e+01 
7.5000000e-01 3.0000000e+00 1.3000000e+01 
7.5000000e-01 3.0000000e+00 1.3500000e+01 
7.5000000e-01 3.0000000e+00 1.4000000e+01 
7.5000000e-01 3.0000000e+00 1.4500000e+01 
7.5000000e-01 3.0000000e+00 1.5000000e+01 
7.5000000e-01 3.0000000e+00 1.5500000e+01 
7.5000000e-01 3.0000000e+00 1.6000000e+01 
7.5000000e-01 3.0000000e+00 1.6500000e+01 
7.5000000e-01 3.0000000e+00 1.7000000e+01 
7.5000000e-01 3.0000000e+00 1.7500000e+01 
7.5000000e-01 3.0000000e+00 1.8000000e+01 
7.5000000e-01 3.0000000e+00 1.8500000e+01 
7.5000000e-01 3.0000000e+00 1.9000000e+01 
7.5000000e-01 3.0000000e+00 1.9500000e+01 
7.5000000e-01 3.0000000e+00 2.0000000e+01 
7.5000000e-01 3.0000000e+00 2.0500000e+01 
7.5000000e-01 3.0000000e+00 2.1000000e+01 
7.5000000e-01 3.0000000e+00 2.1500000e+01 
7.5000000e-01 3.0000000e+00 2.2000000e+01 
7.5000000e-01 3.0000000e+00 2.2500000e+01 
7.5000000e-01 3.0000000e+00 2.3000000e+01 
7.5000000e-01 3.0000000e+00 2.3500000e+01 
7.5000000e-01 3.0000000e+00 2.4000000e+01 
7.5000000e-01 3.0000000e+00 2.4500000e+01 
7.5000000e-01 3.0000000e+00 2.5000000e+01 
7.5000000e-01 3.0000000e+00 2.5500000e+01 
7.5000000e-01 3.0000000e+00 2.6000000e+01 
7.5000000e-01 3.0000000e+00 2.6500000e+01 
7.5000000e-01 3.0000000e+00 2.7000000e+01 
7.5000000e-01 3.0000000e+00 2.7500000e+01 
7.5000000e-01 3.0000000e+00 2.8000000e+01 
7.5000000e-01 3.0000000e+00 2.8500000e+01 
7.5000000e-01 3.0000000e+00 2.9000000e+01 
7.5000000e-01 3.0000000e+00 2.9500000e+01 
7.5000000e-01 3.0000000e+00 3.0000000e+01 
7.5000000e-01 3.0000000e+00 3.0500000e+01 
7.5000000e-01 3.0000000e+00 3.1000000e+01 
7.5000000e-01 3.0000000e+00 3.1500000e+01 
7.5000000e-01 3.0000000e+00 3.2000000e+01 
7.5000000e-01 3.0000000e+00 3.2500000e+01 
7.5000000e-01 3.0000000e+00 3.3000000e+01 
7.5000000e-01 3.0000000e+00 3.3500000e+01 
7.5000000e-01 3.0000000e+00 3.4000000e+01 
7.5000000e-01 3.0000000e+00 3.4500000e+01 
7.5000000e-01 3.0000000e+00 3.5000000e+01 
7.5000000e-01 3.0000000e+00 3.5500000e+01 
7.5000000e-01 3.0000000e+00 3.6000000e+01 
7.5000000e-01 3.0000000e+00 3.6500000e+01 
7.5000000e-01 3.0000000e+00 3.7000000e+01 
7.5000000e-01 3.0000000e+00 3.7500000e+01 
7.5000000e-01 3.0000000e+00 3.8000000e+01 
7.5000000e-01 3.0000000e+00 3.8500000e+01 
7.5000000e-01 3.0000000e+00 3.9000000e+01 
7.5000000e-01 3.0000000e+00 3.9500000e+01 
7.5000000e-01 3.0000000e+00 4.0000000e+01 
7.5000000e-01 3.0000000e+00 4.0500000e+01 
7.5000000e-01 3.0000000e+00 4.1000000e+01 
7.5000000e-01 3.0000000e+00 4.1500000e+01 
7.5000000e-01 3.0000000e+00 4.2000000e+01 
7.5000000e-01 3.0000000e+00 4.2500000e+01 
7.5000000e-01 3.0000000e+00 4.3000000e+01 
7.5000000e-01 3.0000000e+00 4.3500000e+01 
7.5000000e-01 3.0000000e+00 4.4000000e+01 
7.5000000e-01 3.0000000e+00 4.4500000e+01 
7.5000000e-01 3.0000000e+00 4.5000000e+01 
7.5000000e-01 3.0000000e+00 4.5500000e+01 
7.5000000e-01 3.0000000e+00 4.6000000e+01 
7.5000000e-01 3.0000000e+00 4.6500000e+01 
7.5000000e-01 3.0000000e+00 4.7000000e+01 
7.5000000e-01 3.0000000e+00 4.7500000e+01 
7.5000000e-01 3.0000000e+00 4.8000000e+01 
7.5000000e-01 3.0000000e+00 4.8500000e+01 
7.5000000e-01 3.0000000e+00 4.9000000e+01 
7.5000000e-01 3.0000000e+00 4.9500000e+01 
7.5000000e-01 3.0250001e+00 0.0000000e+00 
7.5000000e-01 3.0250001e+00 5.0000000e-01 
7.5000000e-01 3.0250001e+00 1.0000000e+00 
7.5000000e-01 3.0250001e+00 1.5000000e+00 
7.5000000e-01 3.0250001e+00 2.0000000e+00 
7.5000000e-01 3.0250001e+00 2.5000000e+00 
7.5000000e-01 3.0250001e+00 3.0000000e+00 
7.5000000e-01 3.0250001e+00 3.5000000e+00 
7.5000000e-01 3.0250001e+00 4.0000000e+00 
7.5000000e-01 3.0250001e+00 4.5000000e+00 
7.5000000e-01 3.0250001e+00 5.0000000e+00 
7.5000000e-01 3.0250001e+00 5.5000000e+00 
7.5000000e-01 3.0250001e+00 6.0000000e+00 
7.5000000e-01 3.0250001e+00 6.5000000e+00 
7.5000000e-01 3.0250001e+00 7.0000000e+00 
7.5000000e-01 3.0250001e+00 7.5000000e+00 
7.5000000e-01 3.0250001e+00 8.0000000e+00 
7.5000000e-01 3.0250001e+00 8.5000000e+00 
7.5000000e-01 3.0250001e+00 9.0000000e+00 
7.5000000e-01 3.0250001e+00 9.5000000e+00 
7.5000000e-01 3.0250001e+00 1.0000000e+01 
7.5000000e-01 3.0250001e+00 1.0500000e+01 
7.5000000e-01 3.0250001e+00 1.1000000e+01 
7.5000000e-01 3.0250001e+00 1.1500000e+01 
7.5000000e-01 3.0250001e+00 1.2000000e+01 
7.5000000e-01 3.0250001e+00 1.2500000e+01 
7.5000000e-01 3.0250001e+00 1.3000000e+01 
7.5000000e-01 3.0250001e+00 1.3500000e+01 
7.5000000e-01 3.0250001e+00 1.4000000e+01 
7.5000000e-01 3.0250001e+00 1.4500000e+01 
7.5000000e-01 3.0250001e+00 1.5000000e+01 
7.5000000e-01 3.0250001e+00 1.5500000e+01 
7.5000000e-01 3.0250001e+00 1.6000000e+01 
7.5000000e-01 3.0250001e+00 1.6500000e+01 
7.5000000e-01 3.0250001e+00 1.7000000e+01 
7.5000000e-01 3.0250001e+00 1.7500000e+01 
7.5000000e-01 3.0250001e+00 1.8000000e+01 
7.5000000e-01 3.0250001e+00 1.8500000e+01 
7.5000000e-01 3.0250001e+00 1.9000000e+01 
7.5000000e-01 3.0250001e+00 1.9500000e+01 
7.5000000e-01 3.0250001e+00 2.0000000e+01 
7.5000000e-01 3.0250001e+00 2.0500000e+01 
7.5000000e-01 3.0250001e+00 2.1000000e+01 
7.5000000e-01 3.0250001e+00 2.1500000e+01 
7.5000000e-01 3.0250001e+00 2.2000000e+01 
7.5000000e-01 3.0250001e+00 2.2500000e+01 
7.5000000e-01 3.0250001e+00 2.3000000e+01 
7.5000000e-01 3.0250001e+00 2.3500000e+01 
7.5000000e-01 3.0250001e+00 2.4000000e+01 
7.5000000e-01 3.0250001e+00 2.4500000e+01 
7.5000000e-01 3.0250001e+00 2.5000000e+01 
7.5000000e-01 3.0250001e+00 2.5500000e+01 
7.5000000e-01 3.0250001e+00 2.6000000e+01 
7.5000000e-01 3.0250001e+00 2.6500000e+01 
7.5000000e-01 3.0250001e+00 2.7000000e+01 
7.5000000e-01 3.0250001e+00 2.7500000e+01 
7.5000000e-01 3.0250001e+00 2.8000000e+01 
7.5000000e-01 3.0250001e+00 2.8500000e+01 
7.5000000e-01 3.0250001e+00 2.9000000e+01 
7.5000000e-01 3.0250001e+00 2.9500000e+01 
7.5000000e-01 3.0250001e+00 3.0000000e+01 
7.5000000e-01 3.0250001e+00 3.0500000e+01 
7.5000000e-01 3.0250001e+00 3.1000000e+01 
7.5000000e-01 3.0250001e+00 3.1500000e+01 
7.5000000e-01 3.0250001e+00 3.2000000e+01 
7.5000000e-01 3.0250001e+00 3.2500000e+01 
7.5000000e-01 3.0250001e+00 3.3000000e+01 
7.5000000e-01 3.0250001e+00 3.3500000e+01 
7.5000000e-01 3.0250001e+00 3.4000000e+01 
7.5000000e-01 3.0250001e+00 3.4500000e+01 
7.5000000e-01 3.0250001e+00 3.5000000e+01 
7.5000000e-01 3.0250001e+00 3.5500000e+01 
7.5000000e-01 3.0250001e+00 3.6000000e+01 
7.5000000e-01 3.0250001e+00 3.6500000e+01 
7.5000000e-01 3.0250001e+00 3.7000000e+01 
7.5000000e-01 3.0250001e+00 3.7500000e+01 
7.5000000e-01 3.0250001e+00 3.8000000e+01 
7.5000000e-01 3.0250001e+00 3.8500000e+01 
7.5000000e-01 3.0250001e+00 3.9000000e+01 
7.5000000e-01 3.0250001e+00 3.9500000e+01 
7.5000000e-01 3.0250001e+00 4.0000000e+01 
7.5000000e-01 3.0250001e+00 4.0500000e+01 
7.5000000e-01 3.0250001e+00 4.1000000e+01 
7.5000000e-01 3.0250001e+00 4.1500000e+01 
7.5000000e-01 3.0250001e+00 4.2000000e+01 
7.5000000e-01 3.0250001e+00 4.2500000e+01 
7.5000000e-01 3.0250001e+00 4.3000000e+01 
7.5000000e-01 3.0250001e+00 4.3500000e+01 
7.5000000e-01 3.0250001e+00 4.4000000e+01 
7.5000000e-01 3.0250001e+00 4.4500000e+01 
7.5000000e-01 3.0250001e+00 4.5000000e+01 
7.5000000e-01 3.0250001e+00 4.5500000e+01 
7.5000000e-01 3.0250001e+00 4.6000000e+01 
7.5000000e-01 3.0250001e+00 4.6500000e+01 
7.5000000e-01 3.0250001e+00 4.7000000e+01 
7.5000000e-01 3.0250001e+00 4.7500000e+01 
7.5000000e-01 3.0250001e+00 4.8000000e+01 
7.5000000e-01 3.0250001e+00 4.8500000e+01 
7.5000000e-01 3.0250001e+00 4.9000000e+01 
7.5000000e-01 3.0250001e+00 4.9500000e+01 
7.5000000e-01 3.0250001e+00 5.0000000e+01 
7.5000000e-01 3.0250001e+00 3.5750000e+01 
3.0000000e+00 2.0000000e+00 3.6000000e+01 
8.0487806e-01 3.0000000e+00 3.6000000e+01 
0.0000000e+00 0.0000000e+00 1.0000000e+00 
0.0000000e+00 0.0000000e+00 2.0000000e+00 
0.0000000e+00 0.0000000e+00 3.0000000e+00 
0.0000000e+00 0.0000000e+00 4.0000000e+00 
0.0000000e+00 0.0000000e+00 5.0000000e+00 
0.0000000e+00 0.0000000e+00 6.0000000e+00 
0.0000000e+00 0.0000000e+00 7.0000000e+00 
[...]
POINT_DATA 1920
FIELD FieldData 3
DISPLACEMENT 3 1920  float
0.0000000e+00 0.0000000e+00 0.0000000e+00 
0.0000000e+00 0.0000000e+00 0.0000000e+00 
0.0000000e+00 0.0000000e+00 0.0000000e+00 
0.0000000e+00 0.0000000e+00 0.0000000e+00 
-4.1791500e-06 -5.0969215e-06 -2.5458139e-06 
-8.4211109e-09 8.6603457e-08 -1.4792384e-07 
0.0000000e+00 4.6491870e-05 0.0000000e+00 
0.0000000e+00 1.2067437e-07 0.0000000e+00 
4.9789201e-06 -7.0399324e-06 -6.3484126e-06 
-1.6883700e-08 4.9910913e-08 -1.7434306e-07 
2.5857880e-06 1.1793954e-05 -7.9793044e-06 
5.9143726e-08 1.4955160e-07 -1.3320700e-08 
0.0000000e+00 4.1044666e-05 0.0000000e+00 
0.0000000e+00 2.8283748e-07 0.0000000e+00 
2.0472968e-05 6.6108470e-05 -2.9751793e-05 
1.2328441e-07 -4.7226055e-07 -1.9486230e-07 
7.1031927e-06 1.2611182e-04 1.1511052e-06 
5.7415708e-09 -2.3458678e-07 -6.4982146e-08 
0.0000000e+00 4.3317956e-05 0.0000000e+00 
0.0000000e+00 -4.4331009e-07 0.0000000e+00 
2.1933365e-05 9.6617769e-05 -8.9904706e-06 
3.6893958e-05 4.2103715e-05 -2.6324529e-05 
1.7319968e-05 2.9187171e-05 -2.6447660e-05 
2.8066652e-05 9.4298870e-05 -3.6313580e-05 
6.2455634e-05 2.1405688e-04 -2.5432242e-05 
3.0179843e-05 3.1546422e-04 -1.1224563e-05 
4.7069901e-05 3.3850592e-04 2.4040874e-05 
7.7737735e-05 2.8615104e-04 3.3790402e-05 
4.3970500e-05 1.7413923e-04 8.3779589e-05 
2.1584250e-05 -3.8144994e-05 1.3869011e-04 
4.4370965e-05 -4.5841391e-04 2.6886788e-04 
-1.6465032e-06 -1.1955723e-03 2.4352616e-04 
-5.8912490e-05 -2.3070220e-03 3.7137483e-04 
-1.9053303e-04 -3.6173335e-03 2.1101396e-04 
-2.8203125e-04 -4.6556075e-03 2.6418464e-04 
-3.0293613e-04 -4.8158830e-03 1.5154263e-04 
-3.0963012e-04 -4.6531828e-03 6.7035035e-05 
-2.8282678e-04 -4.6359925e-03 7.7464192e-06 
-3.0281724e-04 -4.8916778e-03 -5.2352207e-05 
-3.2206575e-04 -4.9378001e-03 -1.9262440e-04 
-2.5327544e-04 -4.1831536e-03 -3.3282134e-04 
-1.8981674e-04 -2.9924258e-03 -2.7524310e-04 
-1.6394163e-04 -1.8275338e-03 -3.6663047e-04 
-1.0243237e-04 -8.7666884e-04 -2.0653267e-04 
-7.4557247e-05 -2.2428890e-04 -2.3509737e-04 
-2.2280612e-05 1.6160683e-04 -1.8828519e-04 
2.1319058e-05 3.4591515e-04 -2.1970883e-04 
5.3226137e-05 3.9452803e-04 -1.7279376e-04 
1.1729431e-04 3.5632376e-04 -7.3640193e-05 
1.0268435e-04 2.6298236e-04 1.3555548e-05 
7.0670583e-05 1.4203395e-04 1.2619345e-04 
4.0966381e-05 3.0732379e-05 1.4646271e-04 
-2.4314031e-05 -5.1287741e-05 1.5657779e-04 
-4.4515371e-05 -1.0982908e-04 1.1576530e-04 
-7.2912670e-05 -1.5377725e-04 6.3495674e-05 
-5.3280077e-05 -1.8497297e-04 -9.3629733e-06 
-4.2775981e-05 -1.9297129e-04 -5.1391249e-05 
-6.5117420e-05 -1.7114333e-04 -7.3246163e-05 
-2.6114885e-05 -1.3310491e-04 -7.4991476e-05 
-2.7257405e-05 -9.9639277e-05 -7.5333635e-05 
-2.8322353e-05 -8.3232284e-05 -5.1218714e-05 
-1.3052383e-05 -7.7228760e-05 -5.3630574e-05 
3.4129748e-08 -5.3889366e-05 -6.5250490e-05 
-1.0226833e-05 1.9580521e-05 -5.1258707e-05 
1.0289388e-05 1.4733443e-04 -5.1374325e-05 
3.1759839e-05 2.9415646e-04 -3.3286567e-05 
6.6925750e-05 3.9562784e-04 -1.2589097e-05 
7.7712488e-05 3.8286467e-04 2.6287666e-05 
9.9281344e-05 2.2274049e-04 8.8071414e-05 
6.9639580e-05 -9.9468190e-05 1.3931350e-04 
5.9484399e-05 -6.3644920e-04 2.7569794e-04 
-2.8483279e-05 -1.4442105e-03 2.4102004e-04 
-7.9540601e-05 -2.5622856e-03 4.1177953e-04 
-1.8566972e-04 -3.8186880e-03 2.4909215e-04 
-2.6212944e-04 -4.7742696e-03 2.8325609e-04 
-3.1931014e-04 -4.8665106e-03 2.0022967e-04 
-3.6161547e-04 -4.6852073e-03 1.3072831e-04 
-3.8627617e-04 -4.6488014e-03 6.8995469e-05 
-3.9794654e-04 -4.8430311e-03 1.6520591e-05 
-3.8313147e-04 -4.7756806e-03 -1.1511549e-04 
-3.7024447e-04 -3.9294423e-03 -3.6548107e-04 
-2.6351275e-04 -2.7039750e-03 -3.3670029e-04 
-1.7972442e-04 -1.5872108e-03 -4.7153310e-04 
-9.2829847e-05 -7.4875308e-04 -3.2805212e-04 
-2.2847884e-05 -2.2663524e-04 -3.0652821e-04 
2.2330940e-05 5.6140863e-05 -1.8795306e-04 
3.4231965e-05 1.8657809e-04 -1.4232303e-04 
4.7812358e-05 2.2402342e-04 -8.8808942e-05 
4.5818611e-05 2.0059296e-04 -3.6630499e-05 
7.4910015e-05 1.4202010e-04 5.6427089e-05 
4.0734387e-05 7.6533877e-05 1.2004918e-04 
2.1389196e-05 2.4125273e-05 1.3909348e-04 
-1.6019521e-05 -1.2860485e-05 1.2925596e-04 
-2.6446676e-05 -3.5155012e-05 7.4865588e-05 
-3.7426846e-05 -4.1771560e-05 2.2286597e-05 
-2.9362171e-05 -3.4954162e-05 -2.0757718e-05 
-9.1715210e-06 -1.7272527e-05 -3.8893882e-05 
-2.6931298e-06 1.8351857e-06 -3.8514801e-05 
5.2625414e-06 1.2890690e-05 -3.1105632e-05 
4.6888190e-06 1.4076724e-05 -1.6940496e-05 
3.1135016e-06 9.4227526e-06 -3.5641353e-06 
2.3619764e-06 4.7767094e-06 4.2771944e-06 
1.0314317e-06 2.5043798e-06 7.5116886e-06 
6.5031276e-07 1.4185782e-06 6.5396589e-06 
7.7736769e-07 -1.1495743e-07 3.0702363e-06 
1.0275909e-06 -2.0132204e-06 5.9664194e-07 
1.0975172e-07 -3.1888471e-06 -2.3886814e-06 
-2.3475101e-07 -2.8744464e-06 -2.2346505e-06 
4.3389257e-08 -1.7136374e-06 -1.4982960e-06 
-1.1972703e-07 -7.8693301e-07 -4.4118156e-07 
-2.8803944e-07 -5.2532164e-07 1.8949610e-08 
-1.9329835e-07 -4.1105224e-07 2.6374678e-07 
-9.7652830e-08 6.1565352e-08 2.8644280e-07 
-8.6333989e-09 6.4666511e-07 3.8714643e-07 
1.5206856e-08 8.8289954e-07 3.2390776e-07 
1.5395027e-08 6.4743796e-07 1.6480988e-07 
7.4733215e-08 1.5764765e-07 1.3306160e-07 
-3.2830943e-08 -1.8516947e-07 -4.9391700e-09 
1.6237436e-08 -2.5644894e-07 -8.8541206e-08 
0.0000000e+00 1.2424178e-04 0.0000000e+00 
0.0000000e+00 9.5331139e-05 0.0000000e+00 
0.0000000e+00 4.3260003e-05 0.0000000e+00 
0.0000000e+00 3.1908668e-05 0.0000000e+00 
0.0000000e+00 9.6853037e-05 0.0000000e+00 
0.0000000e+00 2.1379362e-04 0.0000000e+00 
0.0000000e+00 3.1259633e-04 0.0000000e+00 
0.0000000e+00 3.3765266e-04 0.0000000e+00 
0.0000000e+00 2.8871457e-04 0.0000000e+00 
0.0000000e+00 1.7717536e-04 0.0000000e+00 
0.0000000e+00 -3.8153099e-05 0.0000000e+00 
0.0000000e+00 -4.6044355e-04 0.0000000e+00 
0.0000000e+00 -1.2061346e-03 0.0000000e+00 
0.0000000e+00 -2.3226351e-03 0.0000000e+00 
0.0000000e+00 -3.6441362e-03 0.0000000e+00 
0.0000000e+00 -4.6741930e-03 0.0000000e+00 
0.0000000e+00 -4.8418758e-03 0.0000000e+00 
0.0000000e+00 -4.6717427e-03 0.0000000e+00 
0.0000000e+00 -4.6665515e-03 0.0000000e+00 
0.0000000e+00 -4.9178144e-03 0.0000000e+00 
0.0000000e+00 -4.9669431e-03 0.0000000e+00 
0.0000000e+00 -4.2008320e-03 0.0000000e+00 
0.0000000e+00 -3.0074338e-03 0.0000000e+00 
0.0000000e+00 -1.8334470e-03 0.0000000e+00 
0.0000000e+00 -8.8226900e-04 0.0000000e+00 
0.0000000e+00 -2.2540937e-04 0.0000000e+00 
0.0000000e+00 1.6242631e-04 0.0000000e+00 
0.0000000e+00 3.4712875e-04 0.0000000e+00 
0.0000000e+00 3.9526992e-04 0.0000000e+00 
0.0000000e+00 3.5633796e-04 0.0000000e+00 
0.0000000e+00 2.6257409e-04 0.0000000e+00 
0.0000000e+00 1.4317810e-04 0.0000000e+00 
0.0000000e+00 3.2245836e-05 0.0000000e+00 
0.0000000e+00 -5.1012092e-05 0.0000000e+00 
0.0000000e+00 -1.1018830e-04 0.0000000e+00 
0.0000000e+00 -1.5460627e-04 0.0000000e+00 
0.0000000e+00 -1.8514098e-04 0.0000000e+00 
0.0000000e+00 -1.9225778e-04 0.0000000e+00 
0.0000000e+00 -1.7090850e-04 0.0000000e+00 
0.0000000e+00 -1.3338367e-04 0.0000000e+00 
0.0000000e+00 -1.0041879e-04 0.0000000e+00 
0.0000000e+00 -8.4319727e-05 0.0000000e+00 
0.0000000e+00 -7.7801604e-05 0.0000000e+00 
0.0000000e+00 -5.3185428e-05 0.0000000e+00 
0.0000000e+00 2.0988717e-05 0.0000000e+00 
0.0000000e+00 1.4918741e-04 0.0000000e+00 
0.0000000e+00 2.9526022e-04 0.0000000e+00 
0.0000000e+00 3.9425798e-04 0.0000000e+00 
0.0000000e+00 3.8159732e-04 0.0000000e+00 
0.0000000e+00 2.2367592e-04 0.0000000e+00 
0.0000000e+00 -9.9749122e-05 0.0000000e+00 
0.0000000e+00 -6.3716870e-04 0.0000000e+00 
0.0000000e+00 -1.4541078e-03 0.0000000e+00 
0.0000000e+00 -2.5768171e-03 0.0000000e+00 
0.0000000e+00 -3.8469844e-03 0.0000000e+00 
0.0000000e+00 -4.7954707e-03 0.0000000e+00 
0.0000000e+00 -4.8955786e-03 0.0000000e+00 
0.0000000e+00 -4.7031878e-03 0.0000000e+00 
0.0000000e+00 -4.6778703e-03 0.0000000e+00 
0.0000000e+00 -4.8658550e-03 0.0000000e+00 
0.0000000e+00 -4.8047714e-03 0.0000000e+00 
0.0000000e+00 -3.9452445e-03 0.0000000e+00 
0.0000000e+00 -2.7204764e-03 0.0000000e+00 
0.0000000e+00 -1.5939611e-03 0.0000000e+00 
0.0000000e+00 -7.5341325e-04 0.0000000e+00 
0.0000000e+00 -2.2651056e-04 0.0000000e+00 
0.0000000e+00 5.7585818e-05 0.0000000e+00 
0.0000000e+00 1.8766605e-04 0.0000000e+00 
0.0000000e+00 2.2432172e-04 0.0000000e+00 
0.0000000e+00 2.0071580e-04 0.0000000e+00 
0.0000000e+00 1.4264662e-04 0.0000000e+00 
0.0000000e+00 7.7296936e-05 0.0000000e+00 
0.0000000e+00 2.4014813e-05 0.0000000e+00 
0.0000000e+00 -1.2995324e-05 0.0000000e+00 
0.0000000e+00 -3.4843102e-05 0.0000000e+00 
0.0000000e+00 -4.1662552e-05 0.0000000e+00 
0.0000000e+00 -3.4695277e-05 0.0000000e+00 
0.0000000e+00 -1.7394488e-05 0.0000000e+00 
0.0000000e+00 1.3825729e-06 0.0000000e+00 
0.0000000e+00 1.2651215e-05 0.0000000e+00 
0.0000000e+00 1.4091051e-05 0.0000000e+00 
0.0000000e+00 9.6253425e-06 0.0000000e+00 
0.0000000e+00 4.9027899e-06 0.0000000e+00 
0.0000000e+00 2.4724898e-06 0.0000000e+00 
0.0000000e+00 1.3341629e-06 0.0000000e+00 
0.0000000e+00 -1.2852050e-07 0.0000000e+00 
0.0000000e+00 -1.9730849e-06 0.0000000e+00 
0.0000000e+00 -3.1317727e-06 0.0000000e+00 
0.0000000e+00 -2.8819522e-06 0.0000000e+00 
0.0000000e+00 -1.7562655e-06 0.0000000e+00 
0.0000000e+00 -8.2019614e-07 0.0000000e+00 
0.0000000e+00 -5.1160271e-07 0.0000000e+00 
0.0000000e+00 -3.7405846e-07 0.0000000e+00 
0.0000000e+00 6.4044791e-08 0.0000000e+00 
0.0000000e+00 6.2572656e-07 0.0000000e+00 
0.0000000e+00 8.6923757e-07 0.0000000e+00 
0.0000000e+00 6.4133343e-07 0.0000000e+00 
0.0000000e+00 1.6969712e-07 0.0000000e+00 
0.0000000e+00 -1.7253670e-07 0.0000000e+00 
0.0000000e+00 -2.5716761e-07 0.0000000e+00 
0.0000000e+00 -2.4106041e-07 0.0000000e+00 
0.0000000e+00 4.8493690e-05 0.0000000e+00 
-1.5163570e-06 -1.1187680e-06 8.4561261e-06 
2.0817959e-05 3.1624168e-05 1.3837829e-04 
0.0000000e+00 0.0000000e+00 0.0000000e+00 
0.0000000e+00 0.0000000e+00 0.0000000e+00 
0.0000000e+00 0.0000000e+00 0.0000000e+00 
0.0000000e+00 0.0000000e+00 0.0000000e+00 
0.0000000e+00 0.0000000e+00 0.0000000e+00 
0.0000000e+00 0.0000000e+00 0.0000000e+00 
0.0000000e+00 0.0000000e+00 0.0000000e+00 
0.0000000e+00 0.0000000e+00 0.0000000e+00 
0.0000000e+00 0.0000000e+00 0.0000000e+00 
0.0000000e+00 0.0000000e+00 0.0000000e+00 
0.0000000e+00 0.0000000e+00 0.0000000e+00 
0.0000000e+00 0.0000000e+00 0.0000000e+00 
0.0000000e+00 0.0000000e+00 0.0000000e+00 
0.0000000e+00 0.0000000e+00 0.0000000e+00 
0.0000000e+00 0.0000000e+00 0.0000000e+00 
0.0000000e+00 0.0000000e+00 0.0000000e+00 
0.0000000e+00 0.0000000e+00 0.0000000e+00 
0.0000000e+00 0.0000000e+00 0.0000000e+00 
0.0000000e+00 0.0000000e+00 0.0000000e+00 
0.0000000e+00 0.0000000e+00 0.0000000e+00 
0.0000000e+00 0.0000000e+00 0.0000000e+00 
0.0000000e+00 0.0000000e+00 0.0000000e+00 
0.0000000e+00 0.0000000e+00 0.0000000e+00 
0.0000000e+00 0.0000000e+00 0.0000000e+00 
0.0000000e+00 0.0000000e+00 0.0000000e+00 
0.0000000e+00 0.0000000e+00 0.0000000e+00 
0.0000000e+00 0.0000000e+00 0.0000000e+00 
0.0000000e+00 0.0000000e+00 0.0000000e+00 
0.0000000e+00 0.0000000e+00 0.0000000e+00 
0.0000000e+00 0.0000000e+00 0.0000000e+00 
0.0000000e+00 0.0000000e+00 0.0000000e+00 
0.0000000e+00 0.0000000e+00 0.0000000e+00 
0.0000000e+00 0.0000000e+00 0.0000000e+00 
0.0000000e+00 0.0000000e+00 0.0000000e+00 
0.0000000e+00 0.0000000e+00 0.0000000e+00 
0.0000000e+00 0.0000000e+00 0.0000000e+00 
0.0000000e+00 0.0000000e+00 0.0000000e+00 
0.0000000e+00 0.0000000e+00 0.0000000e+00 
0.0000000e+00 0.0000000e+00 0.0000000e+00 
0.0000000e+00 0.0000000e+00 0.0000000e+00 
0.0000000e+00 0.0000000e+00 0.0000000e+00 
0.0000000e+00 0.0000000e+00 0.0000000e+00 
0.0000000e+00 0.0000000e+00 0.0000000e+00 
0.0000000e+00 0.0000000e+00 0.0000000e+00 
0.0000000e+00 0.0000000e+00 0.0000000e+00 
0.0000000e+00 0.0000000e+00 0.0000000e+00 
0.0000000e+00 0.0000000e+00 0.0000000e+00 
0.0000000e+00 0.0000000e+00 0.0000000e+00 
0.0000000e+00 0.0000000e+00 0.0000000e+00 
0.0000000e+00 0.0000000e+00 0.0000000e+00 
0.0000000e+00 0.0000000e+00 0.0000000e+00 
0.0000000e+00 0.0000000e+00 0.0000000e+00 
0.0000000e+00 0.0000000e+00 0.0000000e+00 
0.0000000e+00 0.0000000e+00 0.0000000e+00 
0.0000000e+00 0.0000000e+00 0.0000000e+00 
0.0000000e+00 0.0000000e+00 0.0000000e+00 
0.0000000e+00 0.0000000e+00 0.0000000e+00 
0.0000000e+00 0.0000000e+00 0.0000000e+00 
0.0000000e+00 0.0000000e+00 0.0000000e+00 
0.0000000e+00 0.0000000e+00 0.0000000e+00 
0.0000000e+00 0.0000000e+00 0.0000000e+00 
0.0000000e+00 0.0000000e+00 0.0000000e+00 
0.0000000e+00 0.0000000e+00 0.0000000e+00 
0.0000000e+00 0.0000000e+00 0.0000000e+00 
0.0000000e+00 0.0000000e+00 0.0000000e+00 
0.0000000e+00 0.0000000e+00 0.0000000e+00 
0.0000000e+00 0.0000000e+00 0.0000000e+00 
0.0000000e+00 0.0000000e+00 0.0000000e+00 
0.0000000e+00 0.0000000e+00 0.0000000e+00 
0.0000000e+00 0.0000000e+00 0.0000000e+00 
0.0000000e+00 0.0000000e+00 0.0000000e+00 
0.0000000e+00 0.0000000e+00 0.0000000e+00 
0.0000000e+00 0.0000000e+00 0.0000000e+00 
0.0000000e+00 0.0000000e+00 0.0000000e+00 
0.0000000e+00 0.0000000e+00 0.0000000e+00 
0.0000000e+00 0.0000000e+00 0.0000000e+00 
0.0000000e+00 0.0000000e+00 0.0000000e+00 
0.0000000e+00 0.0000000e+00 0.0000000e+00 
0.0000000e+00 0.0000000e+00 0.0000000e+00 
0.0000000e+00 0.0000000e+00 0.0000000e+00 
0.0000000e+00 0.0000000e+00 0.0000000e+00 
0.0000000e+00 0.0000000e+00 0.0000000e+00 
0.0000000e+00 0.0000000e+00 0.0000000e+00 
0.0000000e+00 0.0000000e+00 0.0000000e+00 
0.0000000e+00 0.0000000e+00 0.0000000e+00 
0.0000000e+00 0.0000000e+00 0.0000000e+00 
0.0000000e+00 0.0000000e+00 0.0000000e+00 
0.0000000e+00 0.0000000e+00 0.0000000e+00 
0.0000000e+00 0.0000000e+00 0.0000000e+00 
0.0000000e+00 0.0000000e+00 0.0000000e+00 
0.0000000e+00 0.0000000e+00 0.0000000e+00 
0.0000000e+00 0.0000000e+00 0.0000000e+00 
0.0000000e+00 0.0000000e+00 0.0000000e+00 
0.0000000e+00 0.0000000e+00 0.0000000e+00 
0.0000000e+00 0.0000000e+00 0.0000000e+00 
0.0000000e+00 0.0000000e+00 0.0000000e+00 
0.0000000e+00 0.0000000e+00 0.0000000e+00 
0.0000000e+00 0.0000000e+00 0.0000000e+00 
0.0000000e+00 0.0000000e+00 0.0000000e+00 
0.0000000e+00 0.0000000e+00 0.0000000e+00 
0.0000000e+00 0.0000000e+00 0.0000000e+00 
0.0000000e+00 0.0000000e+00 0.0000000e+00 
0.0000000e+00 0.0000000e+00 0.0000000e+00 
0.0000000e+00 0.0000000e+00 0.0000000e+00 
0.0000000e+00 0.0000000e+00 0.0000000e+00 
0.0000000e+00 0.0000000e+00 0.0000000e+00 
-6.5358940e-06 3.5673779e-06 -3.7583484e-06 
-7.8108997e-06 4.0114546e-06 -5.7628617e-06 
-1.1194331e-05 -6.7228834e-06 -7.2084258e-06 
-7.0834849e-06 -3.9641955e-06 -1.2402909e-05 
3.3751687e-06 -2.5676366e-06 -1.9754805e-05 
1.9755278e-05 -2.0271749e-05 -2.2947355e-05 
3.6589605e-05 -1.3895284e-05 -1.9696774e-05 
5.7450645e-05 -1.9102987e-05 -7.9082893e-06 
5.4314740e-05 -1.8877756e-05 -1.9760771e-06 
4.5078250e-05 -1.3725300e-05 8.9533370e-07 
3.7379119e-05 -9.6690455e-06 -1.7651761e-06 
2.0417396e-05 1.7579739e-06 1.0651071e-05 
1.7710707e-06 -8.7454885e-07 1.9293480e-05 
8.2149018e-07 -6.3956504e-06 8.3166360e-06 
-4.6216528e-06 -4.6375942e-07 3.5687035e-06 
-4.4805820e-06 3.0309161e-06 4.9680793e-06 
-8.0659147e-06 -4.6828572e-07 9.7441552e-06 
-1.7352610e-05 -1.7956179e-06 1.0639218e-05 
-2.4243389e-05 7.3460360e-06 9.4252100e-06 
-2.6836815e-05 3.6815798e-06 7.8515159e-06 
-2.5096904e-05 2.7537587e-06 3.6060444e-06 
-2.7256732e-05 7.5836656e-06 2.4566870e-07 
-2.0538539e-05 -3.0738679e-06 -8.4215717e-06 
-1.7826089e-05 -8.5136508e-06 -1.4270255e-05 
5.1202887e-06 -6.8093805e-06 -1.8517518e-05 
2.6453677e-05 -1.6686219e-05 -2.1591835e-05 
3.9997871e-05 -1.8434683e-05 -2.0145446e-05 
5.3638512e-05 -2.1787026e-05 -1.2769666e-05 
5.5705103e-05 -2.3012764e-05 -1.6943832e-07 
4.3106211e-05 -1.1391855e-05 1.0884820e-05 
2.6869882e-05 -5.9347935e-06 1.3323773e-05 
1.1549069e-05 -2.4262913e-06 1.1268459e-05 
3.7813290e-06 -5.4820624e-09 6.1012815e-06 
9.8980354e-07 1.8186536e-06 2.6742166e-06 
9.7221857e-07 3.2695715e-07 6.5777385e-07 
2.8139841e-06 3.8394069e-07 5.4854252e-07 
2.0770633e-06 2.6457724e-07 1.9788665e-06 
-2.8005110e-07 -4.1918133e-07 2.5795027e-06 
-7.6659057e-07 -8.9537133e-07 2.7954445e-06 
-3.7770544e-08 -1.3219262e-07 1.9095673e-06 
1.2516966e-06 5.8037248e-08 7.2412291e-07 
5.4087212e-07 3.0542978e-08 2.6119821e-07 
-2.8028543e-07 -1.8903374e-07 -5.3441710e-07 
-3.0863896e-07 -3.6410704e-08 -6.3672007e-07 
-1.9732605e-07 1.0647355e-07 -5.1303118e-07 
-7.7611631e-08 3.4054697e-08 -1.3429819e-07 
6.3783325e-08 1.4227795e-07 2.3346539e-07 
1.0052954e-07 8.8554684e-09 2.3235239e-07 
-2.5875563e-08 -1.3465954e-07 6.8608429e-08 
0.0000000e+00 6.2031664e-05 0.0000000e+00 
0.0000000e+00 1.2075870e-04 0.0000000e+00 
0.0000000e+00 1.5843524e-04 0.0000000e+00 
0.0000000e+00 1.3557490e-04 0.0000000e+00 
0.0000000e+00 8.5955551e-05 0.0000000e+00 
0.0000000e+00 -1.2336958e-04 0.0000000e+00 
0.0000000e+00 -3.9942257e-04 0.0000000e+00 
0.0000000e+00 -5.5337470e-04 0.0000000e+00 
0.0000000e+00 -6.1941904e-04 0.0000000e+00 
0.0000000e+00 -5.3638098e-04 0.0000000e+00 
0.0000000e+00 -3.4676798e-04 0.0000000e+00 
0.0000000e+00 -1.4369586e-04 0.0000000e+00 
0.0000000e+00 -1.7305991e-05 0.0000000e+00 
0.0000000e+00 2.2980827e-05 0.0000000e+00 
0.0000000e+00 2.5821410e-06 0.0000000e+00 
0.0000000e+00 -1.8146757e-06 0.0000000e+00 
0.0000000e+00 -1.3223649e-05 0.0000000e+00 
0.0000000e+00 1.4508400e-05 0.0000000e+00 
0.0000000e+00 6.8923589e-05 0.0000000e+00 
0.0000000e+00 1.3758520e-04 0.0000000e+00 
0.0000000e+00 1.5881489e-04 0.0000000e+00 
0.0000000e+00 1.9434925e-04 0.0000000e+00 
0.0000000e+00 2.3666245e-04 0.0000000e+00 
0.0000000e+00 1.8380306e-04 0.0000000e+00 
0.0000000e+00 1.2841902e-04 0.0000000e+00 
0.0000000e+00 -9.1333619e-05 0.0000000e+00 
0.0000000e+00 -3.7735395e-04 0.0000000e+00 
0.0000000e+00 -5.1488529e-04 0.0000000e+00 
0.0000000e+00 -5.8182061e-04 0.0000000e+00 
0.0000000e+00 -5.6396594e-04 0.0000000e+00 
0.0000000e+00 -3.4685677e-04 0.0000000e+00 
0.0000000e+00 -1.3456610e-04 0.0000000e+00 
0.0000000e+00 -2.2041360e-05 0.0000000e+00 
0.0000000e+00 4.4371434e-05 0.0000000e+00 
0.0000000e+00 4.2036318e-05 0.0000000e+00 
0.0000000e+00 5.7117268e-06 0.0000000e+00 
0.0000000e+00 -2.3398679e-05 0.0000000e+00 
0.0000000e+00 -1.3135856e-05 0.0000000e+00 
0.0000000e+00 2.9060550e-06 0.0000000e+00 
0.0000000e+00 6.5104209e-06 0.0000000e+00 
0.0000000e+00 3.4101868e-06 0.0000000e+00 
0.0000000e+00 -1.3127439e-07 0.0000000e+00 
0.0000000e+00 -2.7429398e-06 0.0000000e+00 
0.0000000e+00 -1.3118957e-06 0.0000000e+00 
0.0000000e+00 1.0103993e-06 0.0000000e+00 
0.0000000e+00 7.8709252e-07 0.0000000e+00 
0.0000000e+00 -1.1731199e-08 0.0000000e+00 
0.0000000e+00 -3.0590195e-07 0.0000000e+00 
0.0000000e+00 -5.9428988e-08 0.0000000e+00 
-7.9697111e-06 6.5026738e-06 -3.2909165e-06 
-6.9041457e-06 2.0710170e-06 3.0902302e-06 
-8.9292789e-06 1.4582992e-08 7.0023765e-07 
-5.7507518e-06 2.0482727e-05 9.9399085e-06 
-7.7447481e-08 -3.5812363e-08 -1.5850384e-08 
-2.7064820e-08 -2.9771835e-08 -3.3274264e-10 
-2.6781750e-08 1.2848508e-08 2.8507003e-08 
-8.4857490e-08 1.0644924e-08 1.1181122e-07 
-3.5772887e-06 1.2262857e-06 -1.0543223e-05 
-5.6995054e-06 2.9718472e-06 -1.0251405e-05 
3.3530696e-06 -1.9423917e-06 -1.0489072e-05 
7.1852669e-06 -5.3616401e-07 -1.2777269e-05 
1.0695094e-05 -5.7276907e-06 -1.7022134e-05 
3.0955209e-05 -2.7365220e-05 -2.1875065e-05 
5.1899813e-05 -1.4159894e-05 -1.2004272e-05 
4.6559002e-05 -2.1333739e-05 -3.9053730e-06 
4.3641929e-05 -1.6963708e-05 -6.2793815e-06 
3.9788698e-05 -8.9733285e-06 -6.9979510e-06 
3.7069429e-05 -2.3581722e-06 -9.5098731e-06 
2.6999531e-05 4.8186289e-06 9.9452063e-07 
5.0767690e-06 3.2796963e-06 1.6159167e-05 
-3.4081640e-06 -6.5928957e-06 1.1173212e-05 
-8.8685538e-06 -2.8164516e-06 3.7576722e-06 
-5.9920382e-07 -5.6102959e-07 -6.1379311e-08 
-5.8962360e-06 -1.0372995e-06 5.7165726e-06 
-1.3006651e-05 2.0519631e-06 8.0347845e-06 
-2.2055576e-05 8.1375265e-06 7.7001914e-06 