# vtk DataFile Version 4.0
vtk output
ASCII
DATASET UNSTRUCTURED_GRID
POINTS 1920 float
0.0000000e+00 0.0000000e+00 0.0000000e+00 
0.0000000e+00 0.0000000e+00 5.0000000e+01 
5.0000000e+00 0.0000000e+00 0.0000000e+00 
5.0000000e+00 0.0000000e+00 5.0000000e+01 
5.0000000e+00 1.0000000e+00 0.0000000e+00 
5.0000000e+00 1.0000000e+00 5.0000000e+01 
0.0000000e+00 1.0000000e+00 0.0000000e+00 
0.0000000e+00 1.0000000e+00 5.0000000e+01 
5.0000000e+00 2.0000000e+00 0.0000000e+00 
5.0000000e+00 2.0000000e+00 5.0000000e+01 
3.0000000e+00 2.0000000e+00 0.0000000e+00 
3.0000000e+00 2.0000000e+00 5.0000000e+01 
0.0000000e+00 2.0000000e+00 0.0000000e+00 
0.0000000e+00 2.0000000e+00 5.0000000e+01 
1.5000000e+00 3.0000000e+00 0.0000000e+00 
1.5000000e+00 3.0000000e+00 5.0000000e+01 
7.5000000e-01 3.0000000e+00 0.0000000e+00 
7.5000000e-01 3.0000000e+00 5.0000000e+01 
0.0000000e+00 3.0000000e+00 0.0000000e+00 
0.0000000e+00 3.0000000e+00 5.0000000e+01 
7.5000000e-01 3.0000000e+00 5.0000000e-01 
7.5000000e-01 3.0000000e+00 1.0000000e+00 
7.5000000e-01 3.0000000e+00 1.5000000e+00 
7.5000000e-01 3.0000000e+00 2.0000000e+00 
7.5000000e-01 3.0000000e+00 2.5000000e+00 
7.5000000e-01 3.0000000e+00 3.0000000e+00 
7.5000000e-01 3.0000000e+00 3.5000000e+00 
7.5000000e-01 3.0000000e+00 4.0000000e+00 
7.5000000e-01 3.0000000e+00 4.5000000e+00 
7.5000000e-01 3.0000000e+00 5.0000000e+00 
7.5000000e-01 3.0000000e+00 5.5000000e+00 
7.5000000e-01 3.0000000e+00 6.0000000e+00 
7.5000000e-01 3.0000000e+00 6.5000000e+00 
7.5000000e-01 3.0000000e+00 7.0000000e+00 
7.5000000e-01 3.0000000e+00 7.5000000e+00 
7.5000000e-01 3.0000000e+00 8.0000000e+00 
7.5000000e-01 3.0000000e+00 8.5000000e+00 
7.5000000e-01 3.0000000e+00 9.0000000e+00 
7.5000000e-01 3.0000000e+00 9.5000000e+00 
7.5000000e-01 3.0000000e+00 1.0000000e+01 
7.5000000e-01 3.0000000e+00 1.0500000e+01 
7.5000000e-01 3.0000000e+00 1.1000000e+01 
7.5000000e-01 3.0000000e+00 1.1500000e+01 
7.5000000e-01 3.0000000e+00 1.2000000e+01 
7.5000000e-01 3.0000000e+00 1.2500000e+01 
7.5000000e-01 3.0000000e+00 1.3000000e+01 
7.5000000e-01 3.0000000e+00 1.3500000e+01 
7.5000000e-01 3.0000000e+00 1.4000000e+01 
7.5000000e-01 3.0000000e+00 1.4500000e+01 
7.5000000e-01 3.0000000e+00 1.5000000e+01 
7.5000000e-01 3.0000000e+00 1.5500000e+01 
7.5000000e-01 3.0000000e+00 1.6000000e+01 
7.5000000e-01 3.0000000e+00 1.6500000e+01 
7.5000000e-01 3.0000000e+00 1.7000000e+01 
7.5000000e-01 3.0000000e+00 1.7500000e+01 
7.5000000e-01 3.0000000e+00 1.8000000e+01 
7.5000000e-01 3.0000000e+00 1.8500000e+01 
7.5000000e-01 3.0000000e+00 1.9000000e+01 
7.5000000e-01 3.0000000e+00 1.9500000e+01 
7.5000000e-01 3.0000000e+00 2.0000000e+01 
7.5000000e-01 3.0000000e+00 2.0500000e+01 
7.5000000e-01 3.0000000e+00 2.1000000e+01 
7.5000000e-01 3.0000000e+00 2.1500000e+01 
7.5000000e-01 3.0000000e+00 2.2000000e+01 
7.5000000e-01 3.0000000e+00 2.2500000e+01 
7.5000000e-01 3.0000000e+00 2.3000000e+01 
7.5000000e-01 3.0000000e+00 2.3500000e+01 
7.5000000e-01 3.0000000e+00 2.4000000e+01 
7.5000000e-01 3.0000000e+00 2.4500000e+01 
7.5000000e-01 3.0000000e+00 2.5000000e+01 
7.5000000e-01 3.0000000e+00 2.5500000e+01 
7.5000000e-01 3.0000000e+00 2.6000000e+01 
7.5000000e-01 3.0000000e+00 2.6500000e+01 
7.5000000e-01 3.0000000e+00 2.7000000e+01 
7.5000000e-01 3.0000000e+00 2.7500000e+01 
7.5000000e-01 3.0000000e+00 2.8000000e+01 
7.5000000e-01 3.0000000e+00 2.8500000e+01 
7.5000000e-01 3.0000000e+00 2.9000000e+01 
7.5000000e-01 3.0000000e+00 2.9500000e+01 
7.5000000e-01 3.0000000e+00 3.0000000e+01 
7.5000000e-01 3.0000000e+00 3.0500000e+01 
7.5000000e-01 3.0000000e+00 3.1000000e+01 
7.5000000e-01 3.0000000e+00 3.1500000e+01 
7.5000000e-01 3.0000000e+00 3.2000000e+01 
7.5000000e-01 3.0000000e+00 3.2500000e+01 
7.5000000e-01 3.0000000e+00 3.3000000e+01 
7.5000000e-01 3.0000000e+00 3.3500000e+01 
7.5000000e-01 3.0000000e+00 3.4000000e+01 
7.5000000e-01 3.0000000e+00 3.4500000e+01 
7.5000000e-01 3.0000000e+00 3.5000000e+01 
7.5000000e-01 3.0000000e+00 3.5500000e+01 
7.5000000e-01 3.0000000e+00 3.6000000e+01 
7.5000000e-01 3.0000000e+00 3.6500000e+01 
7.5000000e-01 3.0000000e+00 3.7000000e+01 
7.5000000e-01 3.0000000e+00 3.7500000e+01 
7.5000000e-01 3.0000000e+00 3.8000000e+01 
7.5000000e-01 3.0000000e+00 3.8500000e+01 
7.5000000e-01 3.0000000e+00 3.9000000e+01 
7.5000000e-01 3.0000000e+00 3.9500000e+01 
7.5000000e-01 3.0000000e+00 4.0000000e+01 
7.5000000e-01 3.0000000e+00 4.0500000e+01 
7.5000000e-01 3.0000000e+00 4.1000000e+01 
7.5000000e-01 3.0000000e+00 4.1500000e+01 
7.5000000e-01 3.0000000e+00 4.2000000e+01 
7.5000000e-01 3.0000000e+00 4.2500000e+01 
7.5000000e-01 3.0000000e+00 4.3000000e+01 
7.5000000e-01 3.0000000e+00 4.3500000e+01 
7.5000000e-01 3.0000000e+00 4.4000000e+01 
7.5000000e-01 3.0000000e+00 4.4500000e+01 
7.5000000e-01 3.0000000e+00 4.5000000e+01 
7.5000000e-01 3.0000000e+00 4.5500000e+01 
7.5000000e-01 3.0000000e+00 4.6000000e+01 
7.5000000e-01 3.0000000e+00 4.6500000e+01 
7.5000000e-01 3.0000000e+00 4.7000000e+01 
7.5000000e-01 3.0000000e+00 4.7500000e+01 
7.5000000e-01 3.0000000e+00 4.8000000e+01 
7.5000000e-01 3.0000000e+00 4.8500000e+01 
7.5000000e-01 3.0000000e+00 4.9000000e+01 
7.5000000e-01 3.0000000e+00 4.9500000e+01 
7.5000000e-01 3.0250001e+00 0.0000000e+00 
7.5000000e-01 3.0250001e+00 5.0000000e-01 
7.5000000e-01 3.0250001e+00 1.0000000e+00 
7.5000000e-01 3.0250001e+00 1.5000000e+00 
7.5000000e-01 3.0250001e+00 2.0000000e+00 
7.5000000e-01 3.0250001e+00 2.5000000e+00 
7.5000000e-01 3.0250001e+00 3.0000000e+00 
7.5000000e-01 3.0250001e+00 3.5000000e+00 
7.5000000e-01 3.0250001e+00 4.0000000e+00 
7.5000000e-01 3.0250001e+00 4.5000000e+00 
7.5000000e-01 3.0250001e+00 5.0000000e+00 
7.5000000e-01 3.0250001e+00 5.5000000e+00 
7.5000000e-01 3.0250001e+00 6.0000000e+00 
7.5000000e-01 3.0250001e+00 6.5000000e+00 
7.5000000e-01 3.0250001e+00 7.0000000e+00 
7.5000000e-01 3.0250001e+00 7.5000000e+00 
7.5000000e-01 3.0250001e+00 8.0000000e+00 
7.5000000e-01 3.0250001e+00 8.5000000e+00 
7.5000000e-01 3.0250001e+00 9.0000000e+00 
7.5000000e-01 3.0250001e+00 9.5000000e+00 
7.5000000e-01 3.0250001e+00 1.0000000e+01 
7.5000000e-01 3.0250001e+00 1.0500000e+01 
7.5000000e-01 3.0250001e+00 1.1000000e+01 
7.5000000e-01 3.0250001e+00 1.1500000e+01 
7.5000000e-01 3.0250001e+00 1.2000000e+01 
7.5000000e-01 3.0250001e+00 1.2500000e+01 
7.5000000e-01 3.0250001e+00 1.3000000e+01 
7.5000000e-01 3.0250001e+00 1.3500000e+01 
7.5000000e-01 3.0250001e+00 1.4000000e+01 
7.5000000e-01 3.0250001e+00 1.4500000e+01 
7.5000000e-01 3.0250001e+00 1.5000000e+01 
7.5000000e-01 3.0250001e+00 1.5500000e+01 
7.5000000e-01 3.0250001e+00 1.6000000e+01 
7.5000000e-01 3.0250001e+00 1.6500000e+01 
7.5000000e-01 3.0250001e+00 1.7000000e+01 
7.5000000e-01 3.0250001e+00 1.7500000e+01 
7.5000000e-01 3.0250001e+00 1.8000000e+01 
7.5000000e-01 3.0250001e+00 1.8500000e+01 
7.5000000e-01 3.0250001e+00 1.9000000e+01 
7.5000000e-01 3.0250001e+00 1.9500000e+01 
7.5000000e-01 3.0250001e+00 2.0000000e+01 
7.5000000e-01 3.0250001e+00 2.0500000e+01 
7.5000000e-01 3.0250001e+00 2.1000000e+01 
7.5000000e-01 3.0250001e+00 2.1500000e+01 
7.5000000e-01 3.0250001e+00 2.2000000e+01 
7.5000000e-01 3.0250001e+00 2.2500000e+01 
7.5000000e-01 3.0250001e+00 2.3000000e+01 
7.5000000e-01 3.0250001e+00 2.3500000e+01 
7.5000000e-01 3.0250001e+00 2.4000000e+01 
7.5000000e-01 3.0250001e+00 2.4500000e+01 
7.5000000e-01 3.0250001e+00 2.5000000e+01 
7.5000000e-01 3.0250001e+00 2.5500000e+01 
7.5000000e-01 3.0250001e+00 2.6000000e+01 
7.5000000e-01 3.0250001e+00 2.6500000e+01 
7.5000000e-01 3.0250001e+00 2.7000000e+01 
7.5000000e-01 3.0250001e+00 2.7500000e+01 
7.5000000e-01 3.0250001e+00 2.8000000e+01 
7.5000000e-01 3.0250001e+00 2.8500000e+01 
7.5000000e-01 3.0250001e+00 2.9000000e+01 
7.5000000e-01 3.0250001e+00 2.9500000e+01 
7.5000000e-01 3.0250001e+00 3.0000000e+01 
7.5000000e-01 3.0250001e+00 3.0500000e+01 
7.5000000e-01 3.0250001e+00 3.1000000e+01 
7.5000000e-01 3.0250001e+00 3.1500000e+01 
7.5000000e-01 3.0250001e+00 3.2000000e+01 
7.5000000e-01 3.0250001e+00 3.2500000e+01 
7.5000000e-01 3.0250001e+00 3.3000000e+01 
7.5000000e-01 3.0250001e+00 3.3500000e+01 
7.5000000e-01 3.0250001e+00 3.4000000e+01 
7.5000000e-01 3.0250001e+00 3.4500000e+01 
7.5000000e-01 3.0250001e+00 3.5000000e+01 
7.5000000e-01 3.0250001e+00 3.5500000e+01 
7.5000000e-01 3.0250001e+00 3.6000000e+01 
7.5000000e-01 3.0250001e+00 3.6500000e+01 
7.5000000e-01 3.0250001e+00 3.7000000e+01 
7.5000000e-01 3.0250001e+00 3.7500000e+01 
7.5000000e-01 3.0250001e+00 3.8000000e+01 
7.5000000e-01 3.0250001e+00 3.8500000e+01 
7.5000000e-01 3.0250001e+00 3.9000000e+01 
7.5000000e-01 3.0250001e+00 3.9500000e+01 
7.5000000e-01 3.0250001e+00 4.0000000e+01 
7.5000000e-01 3.0250001e+00 4.0500000e+01 
7.5000000e-01 3.0250001e+00 4.1000000e+01 
7.5000000e-01 3.0250001e+00 4.1500000e+01 
7.5000000e-01 3.0250001e+00 4.2000000e+01 
7.5000000e-01 3.0250001e+00 4.2500000e+01 
7.5000000e-01 3.0250001e+00 4.3000000e+01 
7.5000000e-01 3.0250001e+00 4.3500000e+01 
7.5000000e-01 3.0250001e+00 4.4000000e+01 
7.5000000e-01 3.0250001e+00 4.4500000e+01 
7.5000000e-01 3.0250001e+00 4.5000000e+01 
7.5000000e-01 3.0250001e+00 4.5500000e+01 
7.5000000e-01 3.0250001e+00 4.6000000e+01 
7.5000000e-01 3.0250001e+00 4.6500000e+01 
7.5000000e-01 3.0250001e+00 4.7000000e+01 
7.5000000e-01 3.0250001e+00 4.7500000e+01 
7.5000000e-01 3.0250001e+00 4.8000000e+01 
7.5000000e-01 3.0250001e+00 4.8500000e+01 
7.5000000e-01 3.0250001e+00 4.9000000e+01 
7.5000000e-01 3.0250001e+00 4.9500000e+01 
7.5000000e-01 3.0250001e+00 5.0000000e+01 
7.5000000e-01 3.0250001e+00 3.5750000e+01 
3.0000000e+00 2.0000000e+00 3.6000000e+01 
8.0487806e-01 3.0000000e+00 3.6000000e+01 
0.0000000e+00 0.0000000e+00 1.0000000e+00 
0.0000000e+00 0.0000000e+00 2.0000000e+00 
0.0000000e+00 0.0000000e+00 3.0000000e+00 
0.0000000e+00 0.0000000e+00 4.0000000e+00 
0.0000000e+00 0.0000000e+00 5.0000000e+00 
0.0000000e+00 0.0000000e+00 6.0000000e+00 
0.0000000e+00 0.0000000e+00 7.0000000e+00 
[...]
POINT_DATA 1920
FIELD FieldData 3
DISPLACEMENT 3 1920  float
0.0000000e+00 0.0000000e+00 0.0000000e+00 
0.0000000e+00 0.0000000e+00 0.0000000e+00 
0.0000000e+00 0.0000000e+00 0.0000000e+00 
0.0000000e+00 0.0000000e+00 0.0000000e+00 
9.2710178e-07 2.9265320e-07 -3.2570671e-07 
2.5233537e-06 -2.2344016e-06 3.0345034e-06 
0.0000000e+00 -5.5083211e-07 0.0000000e+00 
0.0000000e+00 1.5728971e-05 0.0000000e+00 
-4.9013636e-07 1.0534020e-06 1.7873936e-06 
4.8950474e-06 -3.3196807e-06 5.1510742e-06 
-1.5468687e-06 -1.2988517e-06 8.6822394e-07 
1.9511681e-06 -4.2724841e-06 7.2091143e-06 
0.0000000e+00 -1.8451808e-06 0.0000000e+00 
0.0000000e+00 3.1706786e-05 0.0000000e+00 
-2.5433771e-06 -1.2066948e-05 1.3660332e-05 
1.7613575e-05 1.7583639e-05 1.5111536e-05 
8.7565359e-06 -3.7697129e-05 9.1137927e-06 
1.9450536e-05 -1.7407938e-05 3.7551610e-05 
0.0000000e+00 -6.9510711e-06 0.0000000e+00 
0.0000000e+00 6.0506853e-05 0.0000000e+00 
-1.0636450e-05 -3.6224905e-05 8.0878323e-07 
-1.0925712e-05 -3.1963318e-05 -7.8576093e-08 
-6.0335319e-06 -2.5784848e-05 3.5936598e-06 
-7.4881470e-08 -1.8703906e-05 4.2230608e-06 
-4.0781356e-06 -1.0579281e-05 -4.4588433e-06 
-1.5207330e-06 -1.3519309e-06 -1.0455630e-05 
-4.9380224e-06 1.0143764e-05 -2.1158379e-05 
2.0608575e-06 2.2744338e-05 -2.3270681e-05 
4.4134458e-06 3.3834902e-05 -2.1120617e-05 
9.6845733e-06 3.9310544e-05 -1.8113127e-05 
5.7496291e-06 3.8327420e-05 -1.5838961e-05 
7.9573174e-06 3.1360378e-05 -1.1670842e-05 
7.0650754e-06 2.3390779e-05 -9.5692858e-06 
1.1945423e-05 2.1031163e-05 -1.2778570e-05 
1.9116051e-05 2.6430085e-05 -1.3600014e-05 
1.4123812e-05 3.4498142e-05 -1.5636379e-05 
8.2392889e-06 3.7340258e-05 -8.2692541e-06 
3.3874619e-06 2.8587969e-05 3.4425498e-06 
4.9680671e-06 1.2435869e-05 8.8470779e-06 
1.8784996e-06 2.3891332e-06 1.4871674e-05 
4.7241128e-06 5.7537236e-06 2.2472079e-05 
1.8199986e-06 1.8977882e-05 3.0850053e-05 
1.5060530e-06 2.7495193e-05 4.6168694e-05 
3.3181861e-06 1.5685677e-05 5.7315930e-05 
7.1219092e-06 -1.6529124e-05 5.9705810e-05 
6.5147929e-06 -4.8631715e-05 6.5908600e-05 
-4.2351012e-06 -5.4039796e-05 6.6417291e-05 
-1.0699667e-05 -1.7485843e-05 6.3648105e-05 
-1.7156060e-05 4.3299355e-05 7.6038792e-05 
-1.1162322e-05 8.5511376e-05 6.7592191e-05 
-1.1043352e-05 8.0936399e-05 5.1638966e-05 
-4.3764244e-06 1.5032774e-05 6.8190107e-05 
-3.1169016e-05 -1.1904118e-04 9.1046619e-05 
-4.4265191e-05 -3.5196796e-04 9.8132157e-05 
-6.4174681e-05 -7.6901278e-04 2.0231861e-04 
-9.7875978e-05 -1.4781931e-03 1.2769834e-04 
-1.2896527e-04 -2.5306528e-03 2.4608950e-04 
-1.6855390e-04 -3.7629697e-03 9.8561424e-05 
-2.0954579e-04 -4.7104340e-03 1.5263929e-04 
-2.2666960e-04 -4.7812602e-03 5.4139928e-05 
-2.2663192e-04 -4.5474004e-03 5.1102354e-05 
-2.4519311e-04 -4.5178784e-03 1.5306388e-05 
-2.4934887e-04 -4.8058671e-03 4.1890205e-05 
-2.7352787e-04 -4.9110409e-03 -4.1295862e-05 
-2.7987247e-04 -4.2251763e-03 -1.6479102e-04 
-2.3267641e-04 -3.1038227e-03 -1.3442103e-04 
-1.8339400e-04 -2.0056069e-03 -2.6473746e-04 
-1.1860377e-04 -1.1243835e-03 -1.9093507e-04 
-7.3030795e-05 -5.2076875e-04 -2.3693414e-04 
-3.5195997e-05 -1.5872663e-04 -1.7546269e-04 
-1.8663779e-05 3.1237243e-05 -1.6941306e-04 
-2.2543343e-06 1.0954549e-04 -1.3587362e-04 
6.1717246e-06 1.2240936e-04 -1.1115700e-04 
9.1403008e-06 9.8545555e-05 -9.7179662e-05 
-1.0460317e-06 6.5793261e-05 -8.0529484e-05 
-1.9390413e-07 5.0179915e-05 -6.5885775e-05 
1.8768493e-05 6.1198451e-05 -6.3287414e-05 
3.3195378e-05 8.2636041e-05 -3.8418864e-05 
4.2572261e-05 9.3573457e-05 -2.2153652e-05 
4.1163210e-05 8.8150075e-05 1.4967767e-06 
4.7347072e-05 8.2343970e-05 1.5356754e-05 
4.9462305e-05 9.5059004e-05 1.2270460e-05 
4.7355086e-05 1.2345640e-04 3.0933341e-05 
3.4515546e-05 1.4787646e-04 4.5498567e-05 
2.7052800e-05 1.4454770e-04 7.2299677e-05 
2.7497481e-05 1.1159203e-04 9.1407906e-05 
5.6095414e-06 7.8018733e-05 1.0475645e-04 
-1.2484835e-05 8.2054554e-05 1.1430212e-04 
-2.7197002e-06 1.3850944e-04 8.8387220e-05 
-1.5197611e-05 2.2398705e-04 4.6347621e-05 
-1.1078027e-05 2.7168478e-04 1.9240424e-05 
-5.3115491e-06 2.1606592e-04 2.7094855e-05 
1.7625343e-05 2.4762168e-05 1.0249332e-04 
1.1689200e-05 -2.9478921e-04 1.4660414e-04 
-1.7078431e-05 -7.7737082e-04 2.8167255e-04 
-6.2512270e-05 -1.5006316e-03 2.4494019e-04 
-8.8680943e-05 -2.5199368e-03 3.8790170e-04 
-1.5651851e-04 -3.6931455e-03 2.1878439e-04 
-2.3671346e-04 -4.6052882e-03 1.9838405e-04 
-2.6815778e-04 -4.7404501e-03 9.0013309e-05 
-2.7686320e-04 -4.6365201e-03 6.0909559e-05 
-2.8611231e-04 -4.7040200e-03 -4.8903959e-05 
-3.0629945e-04 -4.9830526e-03 -8.8540655e-05 
-3.0158073e-04 -4.9720905e-03 -2.2033395e-04 
-2.8604912e-04 -4.1135610e-03 -3.4118423e-04 
-3.4452375e-04 -2.8443802e-03 -4.9152167e-04 
-9.2668452e-05 -1.6241149e-03 -2.6831380e-04 
-3.0207206e-05 -7.1202195e-04 -1.5308999e-04 
-1.3439492e-05 -1.5204019e-04 -1.4407578e-04 
-8.6852051e-06 1.2641131e-04 -5.5160144e-05 
-4.4165304e-06 2.1957541e-04 -1.0549142e-05 
-8.9067071e-06 2.0507113e-04 1.0504654e-05 
-2.4160119e-05 1.3883063e-04 8.8955640e-06 
-2.2097347e-05 5.9203656e-05 -2.2483560e-05 
-1.8248676e-05 -2.7008489e-06 -4.9472768e-05 
-5.9265280e-06 -3.4078104e-05 -6.8274159e-05 
1.2480495e-05 -3.8294889e-05 -6.9439142e-05 
2.3254148e-05 -3.0019319e-05 -5.9996237e-05 
3.0378307e-05 -2.0862712e-05 -2.2805591e-05 
0.0000000e+00 -3.7749825e-05 0.0000000e+00 
0.0000000e+00 -3.6232017e-05 0.0000000e+00 
0.0000000e+00 -3.1933963e-05 0.0000000e+00 
0.0000000e+00 -2.5758007e-05 0.0000000e+00 
0.0000000e+00 -1.8621342e-05 0.0000000e+00 
0.0000000e+00 -1.0641401e-05 0.0000000e+00 
0.0000000e+00 -1.3231069e-06 0.0000000e+00 
0.0000000e+00 1.0210182e-05 0.0000000e+00 
0.0000000e+00 2.2917711e-05 0.0000000e+00 
0.0000000e+00 3.3820332e-05 0.0000000e+00 
0.0000000e+00 3.9345559e-05 0.0000000e+00 
0.0000000e+00 3.8131955e-05 0.0000000e+00 
0.0000000e+00 3.1219013e-05 0.0000000e+00 
0.0000000e+00 2.3523429e-05 0.0000000e+00 
0.0000000e+00 2.1368167e-05 0.0000000e+00 
0.0000000e+00 2.6713822e-05 0.0000000e+00 
0.0000000e+00 3.4622379e-05 0.0000000e+00 
0.0000000e+00 3.6897018e-05 0.0000000e+00 
0.0000000e+00 2.8003375e-05 0.0000000e+00 
0.0000000e+00 1.2455452e-05 0.0000000e+00 
0.0000000e+00 2.7381393e-06 0.0000000e+00 
0.0000000e+00 6.4117235e-06 0.0000000e+00 
0.0000000e+00 1.9320511e-05 0.0000000e+00 
0.0000000e+00 2.6921680e-05 0.0000000e+00 
0.0000000e+00 1.4605514e-05 0.0000000e+00 
0.0000000e+00 -1.7210972e-05 0.0000000e+00 
0.0000000e+00 -4.8500082e-05 0.0000000e+00 
0.0000000e+00 -5.2486259e-05 0.0000000e+00 
0.0000000e+00 -1.5820789e-05 0.0000000e+00 
0.0000000e+00 4.3317188e-05 0.0000000e+00 
0.0000000e+00 8.5147192e-05 0.0000000e+00 
0.0000000e+00 8.0099562e-05 0.0000000e+00 
0.0000000e+00 1.5619224e-05 0.0000000e+00 
0.0000000e+00 -1.1644133e-04 0.0000000e+00 
0.0000000e+00 -3.5040651e-04 0.0000000e+00 
0.0000000e+00 -7.7112217e-04 0.0000000e+00 
0.0000000e+00 -1.4881057e-03 0.0000000e+00 
0.0000000e+00 -2.5466532e-03 0.0000000e+00 
0.0000000e+00 -3.7901551e-03 0.0000000e+00 
0.0000000e+00 -4.7308798e-03 0.0000000e+00 
0.0000000e+00 -4.8065833e-03 0.0000000e+00 
0.0000000e+00 -4.5686783e-03 0.0000000e+00 
0.0000000e+00 -4.5488416e-03 0.0000000e+00 
0.0000000e+00 -4.8320894e-03 0.0000000e+00 
0.0000000e+00 -4.9401517e-03 0.0000000e+00 
0.0000000e+00 -4.2425110e-03 0.0000000e+00 
0.0000000e+00 -3.1182982e-03 0.0000000e+00 
0.0000000e+00 -2.0129774e-03 0.0000000e+00 
0.0000000e+00 -1.1291795e-03 0.0000000e+00 
0.0000000e+00 -5.2195066e-04 0.0000000e+00 
0.0000000e+00 -1.5752610e-04 0.0000000e+00 
0.0000000e+00 3.2309876e-05 0.0000000e+00 
0.0000000e+00 1.1025096e-04 0.0000000e+00 
0.0000000e+00 1.2220741e-04 0.0000000e+00 
0.0000000e+00 9.8606928e-05 0.0000000e+00 
0.0000000e+00 6.6752618e-05 0.0000000e+00 
0.0000000e+00 5.1617251e-05 0.0000000e+00 
0.0000000e+00 6.1660336e-05 0.0000000e+00 
0.0000000e+00 8.2006998e-05 0.0000000e+00 
0.0000000e+00 9.2379298e-05 0.0000000e+00 
0.0000000e+00 8.7765555e-05 0.0000000e+00 
0.0000000e+00 8.3190615e-05 0.0000000e+00 
0.0000000e+00 9.5893236e-05 0.0000000e+00 
0.0000000e+00 1.2401567e-04 0.0000000e+00 
0.0000000e+00 1.4719891e-04 0.0000000e+00 
0.0000000e+00 1.4317839e-04 0.0000000e+00 
0.0000000e+00 1.1096169e-04 0.0000000e+00 
0.0000000e+00 7.8444122e-05 0.0000000e+00 
0.0000000e+00 8.3480445e-05 0.0000000e+00 
0.0000000e+00 1.4120412e-04 0.0000000e+00 
0.0000000e+00 2.2485397e-04 0.0000000e+00 
0.0000000e+00 2.7078230e-04 0.0000000e+00 
0.0000000e+00 2.1379409e-04 0.0000000e+00 
0.0000000e+00 2.5745194e-05 0.0000000e+00 
0.0000000e+00 -2.9304685e-04 0.0000000e+00 
0.0000000e+00 -7.7832560e-04 0.0000000e+00 
0.0000000e+00 -1.5098446e-03 0.0000000e+00 
0.0000000e+00 -2.5345252e-03 0.0000000e+00 
0.0000000e+00 -3.7190760e-03 0.0000000e+00 
0.0000000e+00 -4.6266527e-03 0.0000000e+00 
0.0000000e+00 -4.7664535e-03 0.0000000e+00 
0.0000000e+00 -4.6563195e-03 0.0000000e+00 
0.0000000e+00 -4.7315764e-03 0.0000000e+00 
0.0000000e+00 -5.0083646e-03 0.0000000e+00 
0.0000000e+00 -5.0018472e-03 0.0000000e+00 
0.0000000e+00 -4.1333213e-03 0.0000000e+00 
0.0000000e+00 -2.8549244e-03 0.0000000e+00 
0.0000000e+00 -1.6349589e-03 0.0000000e+00 
0.0000000e+00 -7.1739574e-04 0.0000000e+00 
0.0000000e+00 -1.5251353e-04 0.0000000e+00 
0.0000000e+00 1.2775180e-04 0.0000000e+00 
0.0000000e+00 2.2065220e-04 0.0000000e+00 
0.0000000e+00 2.0591369e-04 0.0000000e+00 
0.0000000e+00 1.3933323e-04 0.0000000e+00 
0.0000000e+00 6.0218583e-05 0.0000000e+00 
0.0000000e+00 -1.8909884e-06 0.0000000e+00 
0.0000000e+00 -3.3575248e-05 0.0000000e+00 
0.0000000e+00 -3.8484490e-05 0.0000000e+00 
0.0000000e+00 -3.0324078e-05 0.0000000e+00 
0.0000000e+00 -2.1127433e-05 0.0000000e+00 
0.0000000e+00 -1.7468803e-05 0.0000000e+00 
0.0000000e+00 2.5893943e-04 0.0000000e+00 
2.7831529e-05 2.6522716e-07 6.5277814e-06 
-3.9085976e-06 2.3671451e-04 3.6037152e-05 
0.0000000e+00 0.0000000e+00 0.0000000e+00 
0.0000000e+00 0.0000000e+00 0.0000000e+00 
0.0000000e+00 0.0000000e+00 0.0000000e+00 
0.0000000e+00 0.0000000e+00 0.0000000e+00 
0.0000000e+00 0.0000000e+00 0.0000000e+00 
0.0000000e+00 0.0000000e+00 0.0000000e+00 
0.0000000e+00 0.0000000e+00 0.0000000e+00 
0.0000000e+00 0.0000000e+00 0.0000000e+00 
0.0000000e+00 0.0000000e+00 0.0000000e+00 
0.0000000e+00 0.0000000e+00 0.0000000e+00 
0.0000000e+00 0.0000000e+00 0.0000000e+00 
0.0000000e+00 0.0000000e+00 0.0000000e+00 
0.0000000e+00 0.0000000e+00 0.0000000e+00 
0.0000000e+00 0.0000000e+00 0.0000000e+00 
0.0000000e+00 0.0000000e+00 0.0000000e+00 
0.0000000e+00 0.0000000e+00 0.0000000e+00 
0.0000000e+00 0.0000000e+00 0.0000000e+00 
0.0000000e+00 0.0000000e+00 0.0000000e+00 
0.0000000e+00 0.0000000e+00 0.0000000e+00 
0.0000000e+00 0.0000000e+00 0.0000000e+00 
0.0000000e+00 0.0000000e+00 0.0000000e+00 
0.0000000e+00 0.0000000e+00 0.0000000e+00 
0.0000000e+00 0.0000000e+00 0.0000000e+00 
0.0000000e+00 0.0000000e+00 0.0000000e+00 
0.0000000e+00 0.0000000e+00 0.0000000e+00 
0.0000000e+00 0.0000000e+00 0.0000000e+00 
0.0000000e+00 0.0000000e+00 0.0000000e+00 
0.0000000e+00 0.0000000e+00 0.0000000e+00 
0.0000000e+00 0.0000000e+00 0.0000000e+00 
0.0000000e+00 0.0000000e+00 0.0000000e+00 
0.0000000e+00 0.0000000e+00 0.0000000e+00 
0.0000000e+00 0.0000000e+00 0.0000000e+00 
0.0000000e+00 0.0000000e+00 0.0000000e+00 
0.0000000e+00 0.0000000e+00 0.0000000e+00 
0.0000000e+00 0.0000000e+00 0.0000000e+00 
0.0000000e+00 0.0000000e+00 0.0000000e+00 
0.0000000e+00 0.0000000e+00 0.0000000e+00 
0.0000000e+00 0.0000000e+00 0.0000000e+00 
0.0000000e+00 0.0000000e+00 0.0000000e+00 
0.0000000e+00 0.0000000e+00 0.0000000e+00 
0.0000000e+00 0.0000000e+00 0.0000000e+00 
0.0000000e+00 0.0000000e+00 0.0000000e+00 
0.0000000e+00 0.0000000e+00 0.0000000e+00 
0.0000000e+00 0.0000000e+00 0.0000000e+00 
0.0000000e+00 0.0000000e+00 0.0000000e+00 
0.0000000e+00 0.0000000e+00 0.0000000e+00 
0.0000000e+00 0.0000000e+00 0.0000000e+00 
0.0000000e+00 0.0000000e+00 0.0000000e+00 
0.0000000e+00 0.0000000e+00 0.0000000e+00 
0.0000000e+00 0.0000000e+00 0.0000000e+00 
0.0000000e+00 0.0000000e+00 0.0000000e+00 
0.0000000e+00 0.0000000e+00 0.0000000e+00 
0.0000000e+00 0.0000000e+00 0.0000000e+00 
0.0000000e+00 0.0000000e+00 0.0000000e+00 
0.0000000e+00 0.0000000e+00 0.0000000e+00 
0.0000000e+00 0.0000000e+00 0.0000000e+00 
0.0000000e+00 0.0000000e+00 0.0000000e+00 
0.0000000e+00 0.0000000e+00 0.0000000e+00 
0.0000000e+00 0.0000000e+00 0.0000000e+00 
0.0000000e+00 0.0000000e+00 0.0000000e+00 
0.0000000e+00 0.0000000e+00 0.0000000e+00 
0.0000000e+00 0.0000000e+00 0.0000000e+00 
0.0000000e+00 0.0000000e+00 0.0000000e+00 
0.0000000e+00 0.0000000e+00 0.0000000e+00 
0.0000000e+00 0.0000000e+00 0.0000000e+00 
0.0000000e+00 0.0000000e+00 0.0000000e+00 
0.0000000e+00 0.0000000e+00 0.0000000e+00 
0.0000000e+00 0.0000000e+00 0.0000000e+00 
0.0000000e+00 0.0000000e+00 0.0000000e+00 
0.0000000e+00 0.0000000e+00 0.0000000e+00 
0.0000000e+00 0.0000000e+00 0.0000000e+00 
0.0000000e+00 0.0000000e+00 0.0000000e+00 
0.0000000e+00 0.0000000e+00 0.0000000e+00 
0.0000000e+00 0.0000000e+00 0.0000000e+00 
0.0000000e+00 0.0000000e+00 0.0000000e+00 
0.0000000e+00 0.0000000e+00 0.0000000e+00 
0.0000000e+00 0.0000000e+00 0.0000000e+00 
0.0000000e+00 0.0000000e+00 0.0000000e+00 
0.0000000e+00 0.0000000e+00 0.0000000e+00 
0.0000000e+00 0.0000000e+00 0.0000000e+00 
0.0000000e+00 0.0000000e+00 0.0000000e+00 
0.0000000e+00 0.0000000e+00 0.0000000e+00 
0.0000000e+00 0.0000000e+00 0.0000000e+00 
0.0000000e+00 0.0000000e+00 0.0000000e+00 
0.0000000e+00 0.0000000e+00 0.0000000e+00 
0.0000000e+00 0.0000000e+00 0.0000000e+00 
0.0000000e+00 0.0000000e+00 0.0000000e+00 
0.0000000e+00 0.0000000e+00 0.0000000e+00 
0.0000000e+00 0.0000000e+00 0.0000000e+00 
0.0000000e+00 0.0000000e+00 0.0000000e+00 
0.0000000e+00 0.0000000e+00 0.0000000e+00 
0.0000000e+00 0.0000000e+00 0.0000000e+00 
0.0000000e+00 0.0000000e+00 0.0000000e+00 
0.0000000e+00 0.0000000e+00 0.0000000e+00 
0.0000000e+00 0.0000000e+00 0.0000000e+00 
0.0000000e+00 0.0000000e+00 0.0000000e+00 
0.0000000e+00 0.0000000e+00 0.0000000e+00 
0.0000000e+00 0.0000000e+00 0.0000000e+00 
0.0000000e+00 0.0000000e+00 0.0000000e+00 
0.0000000e+00 0.0000000e+00 0.0000000e+00 
0.0000000e+00 0.0000000e+00 0.0000000e+00 
0.0000000e+00 0.0000000e+00 0.0000000e+00 
0.0000000e+00 0.0000000e+00 0.0000000e+00 
0.0000000e+00 0.0000000e+00 0.0000000e+00 
0.0000000e+00 0.0000000e+00 0.0000000e+00 
0.0000000e+00 0.0000000e+00 0.0000000e+00 
-2.3678464e-07 -6.2197239e-07 4.1019393e-07 
9.8476755e-07 -1.8605604e-06 8.2349395e-08 
2.1743456e-06 -2.1269250e-07 1.8907099e-07 
-8.0258155e-07 -1.1115860e-06 9.2697934e-07 
-1.3296408e-06 3.9702269e-07 7.3705166e-07 
-2.6641603e-06 4.4948169e-07 -1.2432911e-06 
-1.4910612e-06 2.6338450e-06 2.6261780e-06 
-4.0485593e-06 8.3532392e-08 1.4550677e-06 
-2.8836246e-06 9.7918564e-07 4.6929145e-07 
-2.5067548e-06 3.1365590e-07 4.3913278e-06 
-5.5851292e-08 1.8202763e-06 1.7440407e-06 
1.2001268e-06 -8.2750712e-06 -7.8976854e-07 
2.4074150e-06 -1.9782794e-06 -1.0537747e-06 
7.9145284e-06 1.3769628e-06 -5.5442101e-06 
1.1657843e-05 -1.3804457e-05 -9.2673545e-06 
1.5314441e-05 -2.9593994e-06 -1.2588305e-05 
2.6140315e-05 -4.5634229e-06 -1.5460419e-05 
3.4076525e-05 -1.8480612e-05 -1.7797098e-05 
4.5144629e-05 -1.4297272e-05 -1.1994213e-05 
4.7932994e-05 -1.7444861e-05 -8.2976567e-06 
4.3955508e-05 -1.4996805e-05 -9.1158864e-07 
3.9634477e-05 -1.5361029e-05 5.1241796e-06 
3.1486350e-05 -1.1801852e-05 9.5314490e-06 
2.1262134e-05 -5.3540980e-06 1.4476615e-05 
9.3841099e-06 -1.5098716e-06 1.0777577e-05 
-1.1707161e-07 1.1745088e-06 5.0689023e-06 
-3.8286912e-06 2.5179011e-06 4.8885172e-06 
-6.3412572e-06 5.6643103e-07 4.5412189e-06 
-4.1089561e-06 -3.1847342e-06 2.7253927e-06 
-2.7429355e-06 -6.5414088e-07 4.3949353e-06 
-4.8455236e-06 7.5318612e-06 1.1875884e-05 
-2.6489629e-06 6.7690098e-07 7.9460578e-06 
-2.0122745e-06 -4.5685147e-06 5.8288260e-06 
2.1253566e-06 -4.4577532e-06 -1.9850891e-06 
8.4510084e-06 -1.3236216e-06 -7.8305511e-06 
1.0733250e-05 -9.1030461e-06 -7.6357446e-06 
2.3353647e-05 -5.1373722e-06 -1.2909123e-05 
3.1347969e-05 -1.1282305e-05 -1.4223073e-05 
3.9935050e-05 -1.6404168e-05 -1.6957025e-05 
5.0713104e-05 -2.4380506e-05 -7.9295778e-06 
4.5819794e-05 -1.9165922e-05 -3.6528496e-07 
3.8893762e-05 -1.1014934e-05 6.7952492e-06 
2.6517640e-05 -1.3075028e-06 1.1435483e-05 
1.6265136e-05 -1.4227436e-06 1.0688087e-05 
6.3826951e-06 7.3339595e-07 8.7668850e-06 
2.8813765e-06 1.4066067e-07 5.3892741e-06 
-1.9761877e-07 -2.8359184e-06 2.2536397e-06 
-4.4565979e-07 -9.2417463e-07 1.3668360e-06 
7.7208733e-07 7.5961049e-07 1.9435761e-06 
0.0000000e+00 -1.7244551e-05 0.0000000e+00 
0.0000000e+00 -2.5912679e-05 0.0000000e+00 
0.0000000e+00 -4.1355703e-05 0.0000000e+00 
0.0000000e+00 -5.0184310e-05 0.0000000e+00 
0.0000000e+00 -3.3010114e-05 0.0000000e+00 
0.0000000e+00 -2.9549123e-05 0.0000000e+00 
0.0000000e+00 -1.8441629e-05 0.0000000e+00 
0.0000000e+00 2.1466387e-05 0.0000000e+00 
0.0000000e+00 1.2472907e-05 0.0000000e+00 
0.0000000e+00 1.0050550e-05 0.0000000e+00 
0.0000000e+00 4.6523059e-05 0.0000000e+00 
0.0000000e+00 1.3076617e-05 0.0000000e+00 
0.0000000e+00 -1.1873206e-05 0.0000000e+00 
0.0000000e+00 -2.5449235e-05 0.0000000e+00 
0.0000000e+00 -3.7152953e-05 0.0000000e+00 
0.0000000e+00 -1.3343246e-04 0.0000000e+00 
0.0000000e+00 -1.1455193e-04 0.0000000e+00 
0.0000000e+00 -2.5958978e-04 0.0000000e+00 
0.0000000e+00 -4.6105776e-04 0.0000000e+00 
0.0000000e+00 -5.0487096e-04 0.0000000e+00 
0.0000000e+00 -5.7386461e-04 0.0000000e+00 
0.0000000e+00 -5.2472611e-04 0.0000000e+00 
0.0000000e+00 -4.4795085e-04 0.0000000e+00 
0.0000000e+00 -2.5309983e-04 0.0000000e+00 
0.0000000e+00 -1.2226448e-04 0.0000000e+00 
0.0000000e+00 -4.2539345e-05 0.0000000e+00 
0.0000000e+00 -3.2324755e-05 0.0000000e+00 
0.0000000e+00 5.3510407e-06 0.0000000e+00 
0.0000000e+00 1.3735011e-05 0.0000000e+00 
0.0000000e+00 1.3986182e-05 0.0000000e+00 
0.0000000e+00 4.1590611e-05 0.0000000e+00 
0.0000000e+00 4.2798340e-05 0.0000000e+00 
0.0000000e+00 2.0134119e-05 0.0000000e+00 
0.0000000e+00 4.5499492e-05 0.0000000e+00 
0.0000000e+00 3.2160802e-05 0.0000000e+00 
0.0000000e+00 -4.1317719e-05 0.0000000e+00 
0.0000000e+00 -7.7199569e-05 0.0000000e+00 
0.0000000e+00 -1.9948768e-04 0.0000000e+00 
0.0000000e+00 -4.5011536e-04 0.0000000e+00 
0.0000000e+00 -5.6500209e-04 0.0000000e+00 
0.0000000e+00 -5.7347544e-04 0.0000000e+00 
0.0000000e+00 -4.9435440e-04 0.0000000e+00 
0.0000000e+00 -3.3479475e-04 0.0000000e+00 
0.0000000e+00 -1.1607529e-04 0.0000000e+00 
0.0000000e+00 -1.4911036e-05 0.0000000e+00 
0.0000000e+00 6.2791986e-07 0.0000000e+00 
0.0000000e+00 -1.6181588e-05 0.0000000e+00 
0.0000000e+00 -1.1563651e-05 0.0000000e+00 
0.0000000e+00 4.8039215e-06 0.0000000e+00 
-6.8634961e-07 -5.1242108e-07 3.5119376e-07 
8.2758817e-07 -2.5754862e-06 -1.2517005e-06 
8.3342809e-07 -2.4878373e-06 -3.2920543e-06 
5.3842734e-07 -3.1832883e-06 -2.7561077e-06 
2.7727340e-06 -1.2921354e-06 4.0624927e-06 
2.2936335e-06 -1.7297003e-06 6.6667076e-06 
-6.7162745e-07 3.1099239e-06 8.8762017e-06 
-1.2777174e-06 1.0121938e-05 3.8791522e-06 
-1.3453321e-06 -1.0418393e-06 -4.7607807e-09 
-5.5419935e-07 -7.1752856e-07 -1.0768164e-07 
-2.7368694e-06 -5.1844114e-07 1.6243440e-06 
-2.4028834e-06 6.5833382e-07 -1.3399453e-07 
-1.9369170e-06 3.6194688e-06 -8.4227634e-07 
-2.5327645e-06 2.3653231e-06 1.1819193e-06 
-5.7136745e-06 3.2113605e-06 1.7751702e-06 
-1.2901961e-06 -2.3349676e-07 -3.2453212e-07 
-6.2159177e-07 2.8450091e-07 1.4127703e-06 
8.5521904e-08 -3.4718107e-06 6.1121386e-06 
5.9552070e-07 3.0129484e-06 6.2960989e-06 
3.0793117e-07 -8.3680388e-06 3.7547015e-06 
4.3453720e-06 -1.2044209e-06 -2.7303333e-06 
6.9038633e-06 4.2963913e-07 -7.6346387e-06 
6.1131273e-06 -9.9725157e-06 -1.3306227e-05 
1.8340461e-05 -1.0640197e-06 -1.7221935e-05 
2.5477735e-05 -1.8617225e-06 -1.7610671e-05 
2.8363045e-05 -1.5577389e-05 -1.9183335e-05 
4.2598178e-05 -9.1084403e-06 -1.4261281e-05 