# vtk DataFile Version 4.0
vtk output
ASCII
DATASET UNSTRUCTURED_GRID
POINTS 1920 float
0.0000000e+00 0.0000000e+00 0.0000000e+00 
0.0000000e+00 0.0000000e+00 5.0000000e+01 
5.0000000e+00 0.0000000e+00 0.0000000e+00 
5.0000000e+00 0.0000000e+00 5.0000000e+01 
5.0000000e+00 1.0000000e+00 0.0000000e+00 
5.0000000e+00 1.0000000e+00 5.0000000e+01 
0.0000000e+00 1.0000000e+00 0.0000000e+00 
0.0000000e+00 1.0000000e+00 5.0000000e+01 
5.0000000e+00 2.0000000e+00 0.0000000e+00 
5.0000000e+00 2.0000000e+00 5.0000000e+01 
3.0000000e+00 2.0000000e+00 0.0000000e+00 
3.0000000e+00 2.0000000e+00 5.0000000e+01 
0.0000000e+00 2.0000000e+00 0.0000000e+00 
0.0000000e+00 2.0000000e+00 5.0000000e+01 
1.5000000e+00 3.0000000e+00 0.0000000e+00 
1.5000000e+00 3.0000000e+00 5.0000000e+01 
7.5000000e-01 3.0000000e+00 0.0000000e+00 
7.5000000e-01 3.0000000e+00 5.0000000e+01 
0.0000000e+00 3.0000000e+00 0.0000000e+00 
0.0000000e+00 3.0000000e+00 5.0000000e+01 
7.5000000e-01 3.0000000e+00 5.0000000e-01 
7.5000000e-01 3.0000000e+00 1.0000000e+00 
7.5000000e-01 3.0000000e+00 1.5000000e+00 
7.5000000e-01 3.0000000e+00 2.0000000e+00 
7.5000000e-01 3.0000000e+00 2.5000000e+00 
7.5000000e-01 3.0000000e+00 3.0000000e+00 
7.5000000e-01 3.0000000e+00 3.5000000e+00 
7.5000000e-01 3.0000000e+00 4.0000000e+00 
7.5000000e-01 3.0000000e+00 4.5000000e+00 
7.5000000e-01 3.0000000e+00 5.0000000e+00 
7.5000000e-01 3.0000000e+00 5.5000000e+00 
7.5000000e-01 3.0000000e+00 6.0000000e+00 
7.5000000e-01 3.0000000e+00 6.5000000e+00 
7.5000000e-01 3.0000000e+00 7.0000000e+00 
7.5000000e-01 3.0000000e+00 7.5000000e+00 
7.5000000e-01 3.0000000e+00 8.0000000e+00 
7.5000000e-01 3.0000000e+00 8.5000000e+00 
7.5000000e-01 3.0000000e+00 9.0000000e+00 
7.5000000e-01 3.0000000e+00 9.5000000e+00 
7.5000000e-01 3.0000000e+00 1.0000000e+01 
7.5000000e-01 3.0000000e+00 1.0500000e+01 
7.5000000e-01 3.0000000e+00 1.1000000e+01 
7.5000000e-01 3.0000000e+00 1.1500000e+01 
7.5000000e-01 3.0000000e+00 1.2000000e+01 
7.5000000e-01 3.0000000e+00 1.2500000e+01 
7.5000000e-01 3.0000000e+00 1.3000000e+01 
7.5000000e-01 3.0000000e+00 1.3500000e+01 
7.5000000e-01 3.0000000e+00 1.4000000e+01 
7.5000000e-01 3.0000000e+00 1.4500000e+01 
7.5000000e-01 3.0000000e+00 1.5000000e+01 
7.5000000e-01 3.0000000e+00 1.5500000e+01 
7.5000000e-01 3.0000000e+00 1.6000000e+01 
7.5000000e-01 3.0000000e+00 1.6500000e+01 
7.5000000e-01 3.0000000e+00 1.7000000e+01 
7.5000000e-01 3.0000000e+00 1.7500000e+01 
7.5000000e-01 3.0000000e+00 1.8000000e+01 
7.5000000e-01 3.0000000e+00 1.8500000e+01 
7.5000000e-01 3.0000000e+00 1.9000000e+01 
7.5000000e-01 3.0000000e+00 1.9500000e+01 
7.5000000e-01 3.0000000e+00 2.0000000e+01 
7.5000000e-01 3.0000000e+00 2.0500000e+01 
7.5000000e-01 3.0000000e+00 2.1000000e+01 
7.5000000e-01 3.0000000e+00 2.1500000e+01 
7.5000000e-01 3.0000000e+00 2.2000000e+01 
7.5000000e-01 3.0000000e+00 2.2500000e+01 
7.5000000e-01 3.0000000e+00 2.3000000e+01 
7.5000000e-01 3.0000000e+00 2.3500000e+01 
7.5000000e-01 3.0000000e+00 2.4000000e+01 
7.5000000e-01 3.0000000e+00 2.4500000e+01 
7.5000000e-01 3.0000000e+00 2.5000000e+01 
7.5000000e-01 3.0000000e+00 2.5500000e+01 
7.5000000e-01 3.0000000e+00 2.6000000e+01 
7.5000000e-01 3.0000000e+00 2.6500000e+01 
7.5000000e-01 3.0000000e+00 2.7000000e+01 
7.5000000e-01 3.0000000e+00 2.7500000e+01 
7.5000000e-01 3.0000000e+00 2.8000000e+01 
7.5000000e-01 3.0000000e+00 2.8500000e+01 
7.5000000e-01 3.0000000e+00 2.9000000e+01 
7.5000000e-01 3.0000000e+00 2.9500000e+01 
7.5000000e-01 3.0000000e+00 3.0000000e+01 
7.5000000e-01 3.0000000e+00 3.0500000e+01 
7.5000000e-01 3.0000000e+00 3.1000000e+01 
7.5000000e-01 3.0000000e+00 3.1500000e+01 
7.5000000e-01 3.0000000e+00 3.2000000e+01 
7.5000000e-01 3.0000000e+00 3.2500000e+01 
7.5000000e-01 3.0000000e+00 3.3000000e+01 
7.5000000e-01 3.0000000e+00 3.3500000e+01 
7.5000000e-01 3.0000000e+00 3.4000000e+01 
7.5000000e-01 3.0000000e+00 3.4500000e+01 
7.5000000e-01 3.0000000e+00 3.5000000e+01 
7.5000000e-01 3.0000000e+00 3.5500000e+01 
7.5000000e-01 3.0000000e+00 3.6000000e+01 
7.5000000e-01 3.0000000e+00 3.6500000e+01 
7.5000000e-01 3.0000000e+00 3.7000000e+01 
7.5000000e-01 3.0000000e+00 3.7500000e+01 
7.5000000e-01 3.0000000e+00 3.8000000e+01 
7.5000000e-01 3.0000000e+00 3.8500000e+01 
7.5000000e-01 3.0000000e+00 3.9000000e+01 
7.5000000e-01 3.0000000e+00 3.9500000e+01 
7.5000000e-01 3.0000000e+00 4.0000000e+01 
7.5000000e-01 3.0000000e+00 4.0500000e+01 
7.5000000e-01 3.0000000e+00 4.1000000e+01 
7.5000000e-01 3.0000000e+00 4.1500000e+01 
7.5000000e-01 3.0000000e+00 4.2000000e+01 
7.5000000e-01 3.0000000e+00 4.2500000e+01 
7.5000000e-01 3.0000000e+00 4.3000000e+01 
7.5000000e-01 3.0000000e+00 4.3500000e+01 
7.5000000e-01 3.0000000e+00 4.4000000e+01 
7.5000000e-01 3.0000000e+00 4.4500000e+01 
7.5000000e-01 3.0000000e+00 4.5000000e+01 
7.5000000e-01 3.0000000e+00 4.5500000e+01 
7.5000000e-01 3.0000000e+00 4.6000000e+01 
7.5000000e-01 3.0000000e+00 4.6500000e+01 
7.5000000e-01 3.0000000e+00 4.7000000e+01 
7.5000000e-01 3.0000000e+00 4.7500000e+01 
7.5000000e-01 3.0000000e+00 4.8000000e+01 
7.5000000e-01 3.0000000e+00 4.8500000e+01 
7.5000000e-01 3.0000000e+00 4.9000000e+01 
7.5000000e-01 3.0000000e+00 4.9500000e+01 
7.5000000e-01 3.0250001e+00 0.0000000e+00 
7.5000000e-01 3.0250001e+00 5.0000000e-01 
7.5000000e-01 3.0250001e+00 1.0000000e+00 
7.5000000e-01 3.0250001e+00 1.5000000e+00 
7.5000000e-01 3.0250001e+00 2.0000000e+00 
7.5000000e-01 3.0250001e+00 2.5000000e+00 
7.5000000e-01 3.0250001e+00 3.0000000e+00 
7.5000000e-01 3.0250001e+00 3.5000000e+00 
7.5000000e-01 3.0250001e+00 4.0000000e+00 
7.5000000e-01 3.0250001e+00 4.5000000e+00 
7.5000000e-01 3.0250001e+00 5.0000000e+00 
7.5000000e-01 3.0250001e+00 5.5000000e+00 
7.5000000e-01 3.0250001e+00 6.0000000e+00 
7.5000000e-01 3.0250001e+00 6.5000000e+00 
7.5000000e-01 3.0250001e+00 7.0000000e+00 
7.5000000e-01 3.0250001e+00 7.5000000e+00 
7.5000000e-01 3.0250001e+00 8.0000000e+00 
7.5000000e-01 3.0250001e+00 8.5000000e+00 
7.5000000e-01 3.0250001e+00 9.0000000e+00 
7.5000000e-01 3.0250001e+00 9.5000000e+00 
7.5000000e-01 3.0250001e+00 1.0000000e+01 
7.5000000e-01 3.0250001e+00 1.0500000e+01 
7.5000000e-01 3.0250001e+00 1.1000000e+01 
7.5000000e-01 3.0250001e+00 1.1500000e+01 
7.5000000e-01 3.0250001e+00 1.2000000e+01 
7.5000000e-01 3.0250001e+00 1.2500000e+01 
7.5000000e-01 3.0250001e+00 1.3000000e+01 
7.5000000e-01 3.0250001e+00 1.3500000e+01 
7.5000000e-01 3.0250001e+00 1.4000000e+01 
7.5000000e-01 3.0250001e+00 1.4500000e+01 
7.5000000e-01 3.0250001e+00 1.5000000e+01 
7.5000000e-01 3.0250001e+00 1.5500000e+01 
7.5000000e-01 3.0250001e+00 1.6000000e+01 
7.5000000e-01 3.0250001e+00 1.6500000e+01 
7.5000000e-01 3.0250001e+00 1.7000000e+01 
7.5000000e-01 3.0250001e+00 1.7500000e+01 
7.5000000e-01 3.0250001e+00 1.8000000e+01 
7.5000000e-01 3.0250001e+00 1.8500000e+01 
7.5000000e-01 3.0250001e+00 1.9000000e+01 
7.5000000e-01 3.0250001e+00 1.9500000e+01 
7.5000000e-01 3.0250001e+00 2.0000000e+01 
7.5000000e-01 3.0250001e+00 2.0500000e+01 
7.5000000e-01 3.0250001e+00 2.1000000e+01 
7.5000000e-01 3.0250001e+00 2.1500000e+01 
7.5000000e-01 3.0250001e+00 2.2000000e+01 
7.5000000e-01 3.0250001e+00 2.2500000e+01 
7.5000000e-01 3.0250001e+00 2.3000000e+01 
7.5000000e-01 3.0250001e+00 2.3500000e+01 
7.5000000e-01 3.0250001e+00 2.4000000e+01 
7.5000000e-01 3.0250001e+00 2.4500000e+01 
7.5000000e-01 3.0250001e+00 2.5000000e+01 
7.5000000e-01 3.0250001e+00 2.5500000e+01 
7.5000000e-01 3.0250001e+00 2.6000000e+01 
7.5000000e-01 3.0250001e+00 2.6500000e+01 
7.5000000e-01 3.0250001e+00 2.7000000e+01 
7.5000000e-01 3.0250001e+00 2.7500000e+01 
7.5000000e-01 3.0250001e+00 2.8000000e+01 
7.5000000e-01 3.0250001e+00 2.8500000e+01 
7.5000000e-01 3.0250001e+00 2.9000000e+01 
7.5000000e-01 3.0250001e+00 2.9500000e+01 
7.5000000e-01 3.0250001e+00 3.0000000e+01 
7.5000000e-01 3.0250001e+00 3.0500000e+01 
7.5000000e-01 3.0250001e+00 3.1000000e+01 
7.5000000e-01 3.0250001e+00 3.1500000e+01 
7.5000000e-01 3.0250001e+00 3.2000000e+01 
7.5000000e-01 3.0250001e+00 3.2500000e+01 
7.5000000e-01 3.0250001e+00 3.3000000e+01 
7.5000000e-01 3.0250001e+00 3.3500000e+01 
7.5000000e-01 3.0250001e+00 3.4000000e+01 
7.5000000e-01 3.0250001e+00 3.4500000e+01 
7.5000000e-01 3.0250001e+00 3.5000000e+01 
7.5000000e-01 3.0250001e+00 3.5500000e+01 
7.5000000e-01 3.0250001e+00 3.6000000e+01 
7.5000000e-01 3.0250001e+00 3.6500000e+01 
7.5000000e-01 3.0250001e+00 3.7000000e+01 
7.5000000e-01 3.0250001e+00 3.7500000e+01 
7.5000000e-01 3.0250001e+00 3.8000000e+01 
7.5000000e-01 3.0250001e+00 3.8500000e+01 
7.5000000e-01 3.0250001e+00 3.9000000e+01 
7.5000000e-01 3.0250001e+00 3.9500000e+01 
7.5000000e-01 3.0250001e+00 4.0000000e+01 
7.5000000e-01 3.0250001e+00 4.0500000e+01 
7.5000000e-01 3.0250001e+00 4.1000000e+01 
7.5000000e-01 3.0250001e+00 4.1500000e+01 
7.5000000e-01 3.0250001e+00 4.2000000e+01 
7.5000000e-01 3.0250001e+00 4.2500000e+01 
7.5000000e-01 3.0250001e+00 4.3000000e+01 
7.5000000e-01 3.0250001e+00 4.3500000e+01 
7.5000000e-01 3.0250001e+00 4.4000000e+01 
7.5000000e-01 3.0250001e+00 4.4500000e+01 
7.5000000e-01 3.0250001e+00 4.5000000e+01 
7.5000000e-01 3.0250001e+00 4.5500000e+01 
7.5000000e-01 3.0250001e+00 4.6000000e+01 
7.5000000e-01 3.0250001e+00 4.6500000e+01 
7.5000000e-01 3.0250001e+00 4.7000000e+01 
7.5000000e-01 3.0250001e+00 4.7500000e+01 
7.5000000e-01 3.0250001e+00 4.8000000e+01 
7.5000000e-01 3.0250001e+00 4.8500000e+01 
7.5000000e-01 3.0250001e+00 4.9000000e+01 
7.5000000e-01 3.0250001e+00 4.9500000e+01 
7.5000000e-01 3.0250001e+00 5.0000000e+01 
7.5000000e-01 3.0250001e+00 3.5750000e+01 
3.0000000e+00 2.0000000e+00 3.6000000e+01 
8.0487806e-01 3.0000000e+00 3.6000000e+01 
0.0000000e+00 0.0000000e+00 1.0000000e+00 
0.0000000e+00 0.0000000e+00 2.0000000e+00 
0.0000000e+00 0.0000000e+00 3.0000000e+00 
0.0000000e+00 0.0000000e+00 4.0000000e+00 
0.0000000e+00 0.0000000e+00 5.0000000e+00 
0.0000000e+00 0.0000000e+00 6.0000000e+00 
0.0000000e+00 0.0000000e+00 7.0000000e+00 
[...]
POINT_DATA 1920
FIELD FieldData 3
DISPLACEMENT 3 1920  float
0.0000000e+00 0.0000000e+00 0.0000000e+00 
0.0000000e+00 0.0000000e+00 0.0000000e+00 
0.0000000e+00 0.0000000e+00 0.0000000e+00 
0.0000000e+00 0.0000000e+00 0.0000000e+00 
9.2562539e-07 2.9679651e-07 -3.2565939e-07 
2.6813243e-06 -2.1836897e-06 3.1029583e-06 
0.0000000e+00 -5.3874396e-07 0.0000000e+00 
0.0000000e+00 1.6832946e-05 0.0000000e+00 
-4.8989563e-07 1.0500293e-06 1.7800036e-06 
4.6057553e-06 -2.9477942e-06 4.6581972e-06 
-1.5481561e-06 -1.3036260e-06 8.7250010e-07 
1.9571410e-06 -4.7762837e-06 8.2041133e-06 
0.0000000e+00 -1.8447355e-06 0.0000000e+00 
0.0000000e+00 3.3070370e-05 0.0000000e+00 
-2.5619095e-06 -1.2113175e-05 1.3660517e-05 
1.7113807e-05 1.5464409e-05 1.5352323e-05 
8.7586450e-06 -3.7539230e-05 9.1047505e-06 
2.0212161e-05 -2.0225549e-05 3.4800843e-05 
0.0000000e+00 -7.0488686e-06 0.0000000e+00 
0.0000000e+00 6.0048111e-05 0.0000000e+00 
-1.0634568e-05 -3.6132100e-05 8.0538780e-07 
-1.0931954e-05 -3.2008997e-05 -7.2542427e-08 
-6.0471230e-06 -2.5938660e-05 3.5842249e-06 
-7.2184442e-08 -1.8866958e-05 4.2000152e-06 
-4.0857922e-06 -1.0651754e-05 -4.4314215e-06 
-1.5222161e-06 -1.2935024e-06 -1.0478917e-05 
-4.9173641e-06 1.0298392e-05 -2.1164029e-05 
2.0748546e-06 2.2910423e-05 -2.3247610e-05 
4.4120134e-06 3.3918819e-05 -2.1158447e-05 
9.6925296e-06 3.9256382e-05 -1.8078061e-05 
5.7385164e-06 3.8140966e-05 -1.5794658e-05 
7.9432421e-06 3.1117361e-05 -1.1691892e-05 
7.0782653e-06 2.3211194e-05 -9.4747174e-06 
1.1947192e-05 2.1011727e-05 -1.2754083e-05 
1.9113862e-05 2.6584950e-05 -1.3624777e-05 
1.4130234e-05 3.4747514e-05 -1.5561249e-05 
8.2264196e-06 3.7559370e-05 -8.3868163e-06 
3.3433791e-06 2.8670263e-05 3.4094398e-06 
4.9374926e-06 1.2355136e-05 8.8165561e-06 
1.8428154e-06 2.2326769e-06 1.4651492e-05 
4.7228364e-06 5.6733088e-06 2.2384280e-05 
1.8572787e-06 1.9096811e-05 3.0695322e-05 
1.5920340e-06 2.7853604e-05 4.5964291e-05 
3.3964743e-06 1.6226366e-05 5.7350677e-05 
7.2013218e-06 -1.5963296e-05 5.9418308e-05 
6.6016682e-06 -4.8281934e-05 6.5881708e-05 
-4.1815251e-06 -5.4142602e-05 6.6544912e-05 
-1.0654169e-05 -1.8132330e-05 6.3402367e-05 
-1.7111397e-05 4.2226908e-05 7.6378630e-05 
-1.1148582e-05 8.4334555e-05 6.7632398e-05 
-1.1168788e-05 7.9998157e-05 5.1469138e-05 
-4.3537307e-06 1.4475972e-05 6.8316484e-05 
-3.1225805e-05 -1.1926294e-04 9.0468791e-05 
-4.4300290e-05 -3.5192820e-04 9.7795564e-05 
-6.4186330e-05 -7.6856068e-04 2.0161142e-04 
-9.7641998e-05 -1.4768507e-03 1.2664085e-04 
-1.2866761e-04 -2.5278057e-03 2.4568883e-04 
-1.6804694e-04 -3.7584121e-03 9.7973061e-05 
-2.0867023e-04 -4.7048270e-03 1.5288891e-04 
-2.2590293e-04 -4.7761034e-03 5.5681754e-05 
-2.2622055e-04 -4.5434763e-03 5.2315252e-05 
-2.4532928e-04 -4.5148474e-03 1.7455011e-05 
-2.5013511e-04 -4.8026219e-03 4.4079428e-05 
-2.7510407e-04 -4.9067945e-03 -4.0194198e-05 
-2.8166574e-04 -4.2200126e-03 -1.6493378e-04 
-2.3347932e-04 -3.0981028e-03 -1.3732708e-04 
-1.8374392e-04 -1.9998231e-03 -2.6984554e-04 
-1.1785041e-04 -1.1193840e-03 -1.9621423e-04 
-6.9999885e-05 -5.1747839e-04 -2.4132953e-04 
-3.1933636e-05 -1.5782520e-04 -1.7800560e-04 
-1.4729156e-05 2.9180484e-05 -1.6773764e-04 
6.6255194e-07 1.0436907e-04 -1.3125042e-04 
7.7210661e-06 1.1445469e-04 -1.0036777e-04 
7.3763554e-06 8.9240988e-05 -8.5064101e-05 
-4.3173718e-06 5.7293415e-05 -7.2829702e-05 
-2.8690174e-06 4.4585373e-05 -5.9847083e-05 
1.4866765e-05 6.0177568e-05 -6.2208783e-05 
2.9278064e-05 8.6478583e-05 -3.7583846e-05 
3.9882729e-05 1.0138270e-04 -2.5989722e-05 
4.0649706e-05 9.8363271e-05 -1.1552537e-05 
5.0641462e-05 9.3346222e-05 4.3277555e-06 
4.9323331e-05 1.0538092e-04 3.4955835e-06 
4.4288499e-05 1.3201793e-04 2.6589290e-05 
3.5900448e-05 1.5400069e-04 4.3895747e-05 
3.1846936e-05 1.4770876e-04 6.5823835e-05 
2.5436640e-05 1.1139760e-04 9.1395515e-05 
6.0016018e-06 7.3973446e-05 1.0926957e-04 
-9.6684771e-06 7.4160649e-05 1.1781834e-04 
2.0259932e-07 1.2698269e-04 9.3207549e-05 
-1.4484149e-05 2.0898195e-04 4.4654458e-05 
-1.7186861e-05 2.5294482e-04 2.1432721e-05 
-7.1734030e-06 1.9280374e-04 2.9780236e-05 
1.3140193e-05 -3.7678949e-06 9.8244229e-05 
6.1189494e-06 -3.2902986e-04 1.4309808e-04 
-1.8533050e-05 -8.1703567e-04 2.7802790e-04 
-6.1789491e-05 -1.5443660e-03 2.3687836e-04 
-8.9635127e-05 -2.5650726e-03 3.7788996e-04 
-1.5820120e-04 -3.7346790e-03 2.0611894e-04 
-2.3297552e-04 -4.6337415e-03 1.8992016e-04 
-2.6116791e-04 -4.7422308e-03 8.4092106e-05 
-2.6827009e-04 -4.6058074e-03 5.6676316e-05 
-2.7892215e-04 -4.6430011e-03 -4.0824067e-05 
-2.9835195e-04 -4.9009230e-03 -7.0226226e-05 
-2.9497026e-04 -4.8844507e-03 -1.8974672e-04 
-2.8517176e-04 -4.0405081e-03 -3.1537452e-04 
-3.4378777e-04 -2.7977610e-03 -4.7504070e-04 
-9.9689802e-05 -1.6061092e-03 -2.6808062e-04 
-3.7707214e-05 -7.1707106e-04 -1.6033706e-04 
-2.0261014e-05 -1.7073452e-04 -1.5672541e-04 
-1.2830846e-05 1.0339725e-04 -6.9834285e-05 
-3.7328443e-06 1.9963234e-04 -2.6840138e-05 
-5.3687704e-06 1.9220353e-04 -2.2195359e-06 
-1.6931383e-05 1.3391057e-04 4.3273440e-06 
-1.6781727e-05 6.1200168e-05 -1.8001196e-05 
-1.6743181e-05 3.6385090e-06 -4.0422336e-05 
-6.1720639e-06 -2.6584579e-05 -6.0767168e-05 
1.0974634e-05 -3.2663069e-05 -6.4237145e-05 
2.0869475e-05 -2.7966107e-05 -5.6484678e-05 
2.8088436e-05 -2.2259650e-05 -2.2048298e-05 
0.0000000e+00 -3.7595120e-05 0.0000000e+00 
0.0000000e+00 -3.6140864e-05 0.0000000e+00 
0.0000000e+00 -3.1977979e-05 0.0000000e+00 
0.0000000e+00 -2.5908728e-05 0.0000000e+00 
0.0000000e+00 -1.8781799e-05 0.0000000e+00 
0.0000000e+00 -1.0713401e-05 0.0000000e+00 
0.0000000e+00 -1.2660936e-06 0.0000000e+00 
0.0000000e+00 1.0363125e-05 0.0000000e+00 
0.0000000e+00 2.3082546e-05 0.0000000e+00 
0.0000000e+00 3.3903743e-05 0.0000000e+00 
0.0000000e+00 3.9290579e-05 0.0000000e+00 
0.0000000e+00 3.7945450e-05 0.0000000e+00 
0.0000000e+00 3.0977902e-05 0.0000000e+00 
0.0000000e+00 2.3346587e-05 0.0000000e+00 
0.0000000e+00 2.1350528e-05 0.0000000e+00 
0.0000000e+00 2.6867825e-05 0.0000000e+00 
0.0000000e+00 3.4869572e-05 0.0000000e+00 
0.0000000e+00 3.7112728e-05 0.0000000e+00 
0.0000000e+00 2.8082692e-05 0.0000000e+00 
0.0000000e+00 1.2375826e-05 0.0000000e+00 
0.0000000e+00 2.5855441e-06 0.0000000e+00 
0.0000000e+00 6.3340535e-06 0.0000000e+00 
0.0000000e+00 1.9440831e-05 0.0000000e+00 
0.0000000e+00 2.7281329e-05 0.0000000e+00 
0.0000000e+00 1.5146533e-05 0.0000000e+00 
0.0000000e+00 -1.6648795e-05 0.0000000e+00 
0.0000000e+00 -4.8156719e-05 0.0000000e+00 
0.0000000e+00 -5.2593226e-05 0.0000000e+00 
0.0000000e+00 -1.6470034e-05 0.0000000e+00 
0.0000000e+00 4.2251362e-05 0.0000000e+00 
0.0000000e+00 8.3981249e-05 0.0000000e+00 
0.0000000e+00 7.9163394e-05 0.0000000e+00 
0.0000000e+00 1.5058213e-05 0.0000000e+00 
0.0000000e+00 -1.1667372e-04 0.0000000e+00 
0.0000000e+00 -3.5037429e-04 0.0000000e+00 
0.0000000e+00 -7.7066495e-04 0.0000000e+00 
0.0000000e+00 -1.4867396e-03 0.0000000e+00 
0.0000000e+00 -2.5437812e-03 0.0000000e+00 
0.0000000e+00 -3.7855709e-03 0.0000000e+00 
0.0000000e+00 -4.7252597e-03 0.0000000e+00 
0.0000000e+00 -4.8014238e-03 0.0000000e+00 
0.0000000e+00 -4.5647412e-03 0.0000000e+00 
0.0000000e+00 -4.5457631e-03 0.0000000e+00 
0.0000000e+00 -4.8287963e-03 0.0000000e+00 
0.0000000e+00 -4.9358499e-03 0.0000000e+00 
0.0000000e+00 -4.2373254e-03 0.0000000e+00 
0.0000000e+00 -3.1125585e-03 0.0000000e+00 
0.0000000e+00 -2.0072027e-03 0.0000000e+00 
0.0000000e+00 -1.1241953e-03 0.0000000e+00 
0.0000000e+00 -5.1865389e-04 0.0000000e+00 
0.0000000e+00 -1.5663900e-04 0.0000000e+00 
0.0000000e+00 3.0242096e-05 0.0000000e+00 
0.0000000e+00 1.0503660e-04 0.0000000e+00 
0.0000000e+00 1.1426305e-04 0.0000000e+00 
0.0000000e+00 8.9334499e-05 0.0000000e+00 
0.0000000e+00 5.8270747e-05 0.0000000e+00 
0.0000000e+00 4.6075380e-05 0.0000000e+00 
0.0000000e+00 6.0640174e-05 0.0000000e+00 
0.0000000e+00 8.5830128e-05 0.0000000e+00 
0.0000000e+00 1.0016323e-04 0.0000000e+00 
0.0000000e+00 9.7972596e-05 0.0000000e+00 
0.0000000e+00 9.4182280e-05 0.0000000e+00 
0.0000000e+00 1.0621273e-04 0.0000000e+00 
0.0000000e+00 1.3258765e-04 0.0000000e+00 
0.0000000e+00 1.5332570e-04 0.0000000e+00 
0.0000000e+00 1.4634781e-04 0.0000000e+00 
0.0000000e+00 1.1073185e-04 0.0000000e+00 
0.0000000e+00 7.4404379e-05 0.0000000e+00 
0.0000000e+00 7.5592885e-05 0.0000000e+00 
0.0000000e+00 1.2968617e-04 0.0000000e+00 
0.0000000e+00 2.0984741e-04 0.0000000e+00 
0.0000000e+00 2.5201231e-04 0.0000000e+00 
0.0000000e+00 1.9052172e-04 0.0000000e+00 
0.0000000e+00 -2.8169723e-06 0.0000000e+00 
0.0000000e+00 -3.2732845e-04 0.0000000e+00 
0.0000000e+00 -8.1802264e-04 0.0000000e+00 
0.0000000e+00 -1.5536424e-03 0.0000000e+00 
0.0000000e+00 -2.5797826e-03 0.0000000e+00 
0.0000000e+00 -3.7608130e-03 0.0000000e+00 
0.0000000e+00 -4.6552895e-03 0.0000000e+00 
0.0000000e+00 -4.7684247e-03 0.0000000e+00 
0.0000000e+00 -4.6256627e-03 0.0000000e+00 
0.0000000e+00 -4.6705646e-03 0.0000000e+00 
0.0000000e+00 -4.9260971e-03 0.0000000e+00 
0.0000000e+00 -4.9140668e-03 0.0000000e+00 
0.0000000e+00 -4.0601287e-03 0.0000000e+00 
0.0000000e+00 -2.8081879e-03 0.0000000e+00 
0.0000000e+00 -1.6167380e-03 0.0000000e+00 
0.0000000e+00 -7.2223769e-04 0.0000000e+00 
0.0000000e+00 -1.7112255e-04 0.0000000e+00 
0.0000000e+00 1.0479189e-04 0.0000000e+00 
0.0000000e+00 2.0067440e-04 0.0000000e+00 
0.0000000e+00 1.9296279e-04 0.0000000e+00 
0.0000000e+00 1.3438519e-04 0.0000000e+00 
0.0000000e+00 6.2171028e-05 0.0000000e+00 
0.0000000e+00 4.4155440e-06 0.0000000e+00 
0.0000000e+00 -2.6125030e-05 0.0000000e+00 
0.0000000e+00 -3.2870772e-05 0.0000000e+00 
0.0000000e+00 -2.8269134e-05 0.0000000e+00 
0.0000000e+00 -2.2483293e-05 0.0000000e+00 
0.0000000e+00 -2.0244353e-05 0.0000000e+00 
0.0000000e+00 2.3803028e-04 0.0000000e+00 
2.5309286e-05 -6.6579341e-06 6.1930450e-06 
-5.8400251e-06 2.1349455e-04 3.8366965e-05 
0.0000000e+00 0.0000000e+00 0.0000000e+00 
0.0000000e+00 0.0000000e+00 0.0000000e+00 
0.0000000e+00 0.0000000e+00 0.0000000e+00 
0.0000000e+00 0.0000000e+00 0.0000000e+00 
0.0000000e+00 0.0000000e+00 0.0000000e+00 
0.0000000e+00 0.0000000e+00 0.0000000e+00 
0.0000000e+00 0.0000000e+00 0.0000000e+00 
0.0000000e+00 0.0000000e+00 0.0000000e+00 
0.0000000e+00 0.0000000e+00 0.0000000e+00 
0.0000000e+00 0.0000000e+00 0.0000000e+00 
0.0000000e+00 0.0000000e+00 0.0000000e+00 
0.0000000e+00 0.0000000e+00 0.0000000e+00 
0.0000000e+00 0.0000000e+00 0.0000000e+00 
0.0000000e+00 0.0000000e+00 0.0000000e+00 
0.0000000e+00 0.0000000e+00 0.0000000e+00 
0.0000000e+00 0.0000000e+00 0.0000000e+00 
0.0000000e+00 0.0000000e+00 0.0000000e+00 
0.0000000e+00 0.0000000e+00 0.0000000e+00 
0.0000000e+00 0.0000000e+00 0.0000000e+00 
0.0000000e+00 0.0000000e+00 0.0000000e+00 
0.0000000e+00 0.0000000e+00 0.0000000e+00 
0.0000000e+00 0.0000000e+00 0.0000000e+00 
0.0000000e+00 0.0000000e+00 0.0000000e+00 
0.0000000e+00 0.0000000e+00 0.0000000e+00 
0.0000000e+00 0.0000000e+00 0.0000000e+00 
0.0000000e+00 0.0000000e+00 0.0000000e+00 
0.0000000e+00 0.0000000e+00 0.0000000e+00 
0.0000000e+00 0.0000000e+00 0.0000000e+00 
0.0000000e+00 0.0000000e+00 0.0000000e+00 
0.0000000e+00 0.0000000e+00 0.0000000e+00 
0.0000000e+00 0.0000000e+00 0.0000000e+00 
0.0000000e+00 0.0000000e+00 0.0000000e+00 
0.0000000e+00 0.0000000e+00 0.0000000e+00 
0.0000000e+00 0.0000000e+00 0.0000000e+00 
0.0000000e+00 0.0000000e+00 0.0000000e+00 
0.0000000e+00 0.0000000e+00 0.0000000e+00 
0.0000000e+00 0.0000000e+00 0.0000000e+00 
0.0000000e+00 0.0000000e+00 0.0000000e+00 
0.0000000e+00 0.0000000e+00 0.0000000e+00 
0.0000000e+00 0.0000000e+00 0.0000000e+00 
0.0000000e+00 0.0000000e+00 0.0000000e+00 
0.0000000e+00 0.0000000e+00 0.0000000e+00 
0.0000000e+00 0.0000000e+00 0.0000000e+00 
0.0000000e+00 0.0000000e+00 0.0000000e+00 
0.0000000e+00 0.0000000e+00 0.0000000e+00 
0.0000000e+00 0.0000000e+00 0.0000000e+00 
0.0000000e+00 0.0000000e+00 0.0000000e+00 
0.0000000e+00 0.0000000e+00 0.0000000e+00 
0.0000000e+00 0.0000000e+00 0.0000000e+00 
0.0000000e+00 0.0000000e+00 0.0000000e+00 
0.0000000e+00 0.0000000e+00 0.0000000e+00 
0.0000000e+00 0.0000000e+00 0.0000000e+00 
0.0000000e+00 0.0000000e+00 0.0000000e+00 
0.0000000e+00 0.0000000e+00 0.0000000e+00 
0.0000000e+00 0.0000000e+00 0.0000000e+00 
0.0000000e+00 0.0000000e+00 0.0000000e+00 
0.0000000e+00 0.0000000e+00 0.0000000e+00 
0.0000000e+00 0.0000000e+00 0.0000000e+00 
0.0000000e+00 0.0000000e+00 0.0000000e+00 
0.0000000e+00 0.0000000e+00 0.0000000e+00 
0.0000000e+00 0.0000000e+00 0.0000000e+00 
0.0000000e+00 0.0000000e+00 0.0000000e+00 
0.0000000e+00 0.0000000e+00 0.0000000e+00 
0.0000000e+00 0.0000000e+00 0.0000000e+00 
0.0000000e+00 0.0000000e+00 0.0000000e+00 
0.0000000e+00 0.0000000e+00 0.0000000e+00 
0.0000000e+00 0.0000000e+00 0.0000000e+00 
0.0000000e+00 0.0000000e+00 0.0000000e+00 
0.0000000e+00 0.0000000e+00 0.0000000e+00 
0.0000000e+00 0.0000000e+00 0.0000000e+00 
0.0000000e+00 0.0000000e+00 0.0000000e+00 
0.0000000e+00 0.0000000e+00 0.0000000e+00 
0.0000000e+00 0.0000000e+00 0.0000000e+00 
0.0000000e+00 0.0000000e+00 0.0000000e+00 
0.0000000e+00 0.0000000e+00 0.0000000e+00 
0.0000000e+00 0.0000000e+00 0.0000000e+00 
0.0000000e+00 0.0000000e+00 0.0000000e+00 
0.0000000e+00 0.0000000e+00 0.0000000e+00 
0.0000000e+00 0.0000000e+00 0.0000000e+00 
0.0000000e+00 0.0000000e+00 0.0000000e+00 
0.0000000e+00 0.0000000e+00 0.0000000e+00 
0.0000000e+00 0.0000000e+00 0.0000000e+00 
0.0000000e+00 0.0000000e+00 0.0000000e+00 
0.0000000e+00 0.0000000e+00 0.0000000e+00 
0.0000000e+00 0.0000000e+00 0.0000000e+00 
0.0000000e+00 0.0000000e+00 0.0000000e+00 
0.0000000e+00 0.0000000e+00 0.0000000e+00 
0.0000000e+00 0.0000000e+00 0.0000000e+00 
0.0000000e+00 0.0000000e+00 0.0000000e+00 
0.0000000e+00 0.0000000e+00 0.0000000e+00 
0.0000000e+00 0.0000000e+00 0.0000000e+00 
0.0000000e+00 0.0000000e+00 0.0000000e+00 
0.0000000e+00 0.0000000e+00 0.0000000e+00 
0.0000000e+00 0.0000000e+00 0.0000000e+00 
0.0000000e+00 0.0000000e+00 0.0000000e+00 
0.0000000e+00 0.0000000e+00 0.0000000e+00 
0.0000000e+00 0.0000000e+00 0.0000000e+00 
0.0000000e+00 0.0000000e+00 0.0000000e+00 
0.0000000e+00 0.0000000e+00 0.0000000e+00 
0.0000000e+00 0.0000000e+00 0.0000000e+00 
0.0000000e+00 0.0000000e+00 0.0000000e+00 
0.0000000e+00 0.0000000e+00 0.0000000e+00 
0.0000000e+00 0.0000000e+00 0.0000000e+00 
0.0000000e+00 0.0000000e+00 0.0000000e+00 
0.0000000e+00 0.0000000e+00 0.0000000e+00 
0.0000000e+00 0.0000000e+00 0.0000000e+00 
-2.3774551e-07 -6.1864142e-07 4.1287780e-07 
9.8566284e-07 -1.8737776e-06 8.2726274e-08 
2.1705357e-06 -2.2315425e-07 1.8263042e-07 
-8.0652973e-07 -1.0901917e-06 9.2779328e-07 
-1.3272424e-06 4.0837958e-07 7.4807269e-07 
-2.6641278e-06 4.1892457e-07 -1.2282944e-06 
-1.5094002e-06 2.6524642e-06 2.6263413e-06 
-4.0489235e-06 8.3925848e-08 1.4587156e-06 
-2.8738168e-06 9.8308738e-07 4.8846880e-07 
-2.5106317e-06 2.6224805e-07 4.4180674e-06 
-7.1399036e-08 1.8323090e-06 1.7029876e-06 
1.2500182e-06 -8.2285678e-06 -8.2096057e-07 
2.4282194e-06 -1.9769814e-06 -1.0336231e-06 
7.9295496e-06 1.2805710e-06 -5.5748474e-06 
1.1641413e-05 -1.3842499e-05 -9.3801355e-06 
1.5327130e-05 -2.8651600e-06 -1.2546417e-05 
2.6160917e-05 -4.4576122e-06 -1.5216461e-05 
3.4068071e-05 -1.8698183e-05 -1.7694392e-05 
4.5156918e-05 -1.4444772e-05 -1.2145288e-05 
4.8087095e-05 -1.7116232e-05 -8.4918047e-06 
4.3979726e-05 -1.4949542e-05 -9.5849362e-07 
3.9606293e-05 -1.5674510e-05 5.1855477e-06 
3.1316304e-05 -1.2356931e-05 9.4251845e-06 
2.1037406e-05 -5.1175971e-06 1.4115728e-05 
9.4728939e-06 -6.2568847e-07 1.0931195e-05 
-2.5462242e-07 1.2543486e-06 6.3272205e-06 
-4.3465207e-06 2.1505866e-06 6.2409995e-06 
-6.6151042e-06 3.7225104e-07 5.2377127e-06 
-3.9750071e-06 -3.0765311e-06 2.7184983e-06 
-2.1387630e-06 -5.4964249e-07 3.5425253e-06 
-3.6828944e-06 7.3401211e-06 1.0254733e-05 
-1.1050279e-06 6.7332479e-07 6.4786841e-06 
-7.6476726e-07 -4.4007716e-06 4.4045414e-06 
3.2595481e-06 -4.9727992e-06 -3.0013234e-06 
9.5062342e-06 -2.1187034e-06 -8.2658098e-06 
1.2024600e-05 -1.0070946e-05 -7.8543926e-06 
2.4834340e-05 -5.9261861e-06 -1.2377710e-05 
3.2606695e-05 -1.1704051e-05 -1.2830019e-05 
4.0782768e-05 -1.6689597e-05 -1.5300460e-05 
5.1428819e-05 -2.3469976e-05 -6.3372499e-06 
4.5853467e-05 -1.8566243e-05 6.5831097e-07 
3.8430393e-05 -1.1374045e-05 6.9476791e-06 
2.6016633e-05 -2.4214612e-06 1.0715881e-05 
1.5662923e-05 -1.6515734e-06 9.5086652e-06 
6.2034123e-06 6.8079146e-07 7.2248372e-06 
2.8287802e-06 3.0679377e-07 4.6226096e-06 
-3.6246954e-07 -1.7429296e-06 2.3201956e-06 
-4.3172196e-07 -8.7288686e-07 1.6617363e-06 
7.2418266e-07 -1.4198278e-07 2.2471302e-06 
0.0000000e+00 -1.7277329e-05 0.0000000e+00 
0.0000000e+00 -2.5924723e-05 0.0000000e+00 
0.0000000e+00 -4.1352068e-05 0.0000000e+00 
0.0000000e+00 -5.0189239e-05 0.0000000e+00 
0.0000000e+00 -3.3025226e-05 0.0000000e+00 
0.0000000e+00 -2.9550993e-05 0.0000000e+00 
0.0000000e+00 -1.8394521e-05 0.0000000e+00 
0.0000000e+00 2.1450300e-05 0.0000000e+00 
0.0000000e+00 1.2359397e-05 0.0000000e+00 
0.0000000e+00 1.0084351e-05 0.0000000e+00 
0.0000000e+00 4.6763776e-05 0.0000000e+00 
0.0000000e+00 1.3072573e-05 0.0000000e+00 
0.0000000e+00 -1.2113765e-05 0.0000000e+00 
0.0000000e+00 -2.5630588e-05 0.0000000e+00 
0.0000000e+00 -3.7103444e-05 0.0000000e+00 
0.0000000e+00 -1.3365351e-04 0.0000000e+00 
0.0000000e+00 -1.1500197e-04 0.0000000e+00 
0.0000000e+00 -2.6006534e-04 0.0000000e+00 
0.0000000e+00 -4.6102036e-04 0.0000000e+00 
0.0000000e+00 -5.0392456e-04 0.0000000e+00 
0.0000000e+00 -5.7215209e-04 0.0000000e+00 
0.0000000e+00 -5.2475405e-04 0.0000000e+00 
0.0000000e+00 -4.4927717e-04 0.0000000e+00 
0.0000000e+00 -2.5459784e-04 0.0000000e+00 
0.0000000e+00 -1.2089295e-04 0.0000000e+00 
0.0000000e+00 -3.8379854e-05 0.0000000e+00 
0.0000000e+00 -3.0375204e-05 0.0000000e+00 
0.0000000e+00 -2.6116547e-07 0.0000000e+00 
0.0000000e+00 7.5711696e-06 0.0000000e+00 
0.0000000e+00 1.0932546e-05 0.0000000e+00 
0.0000000e+00 4.5738674e-05 0.0000000e+00 
0.0000000e+00 5.0012597e-05 0.0000000e+00 
0.0000000e+00 2.5997995e-05 0.0000000e+00 
0.0000000e+00 4.5653422e-05 0.0000000e+00 
0.0000000e+00 3.1020179e-05 0.0000000e+00 
0.0000000e+00 -4.5461980e-05 0.0000000e+00 
0.0000000e+00 -8.2186918e-05 0.0000000e+00 
0.0000000e+00 -2.0309388e-04 0.0000000e+00 
0.0000000e+00 -4.4940921e-04 0.0000000e+00 
0.0000000e+00 -5.5685837e-04 0.0000000e+00 
0.0000000e+00 -5.5811938e-04 0.0000000e+00 
0.0000000e+00 -4.8448352e-04 0.0000000e+00 
0.0000000e+00 -3.3464847e-04 0.0000000e+00 
0.0000000e+00 -1.1968460e-04 0.0000000e+00 
0.0000000e+00 -1.6200611e-05 0.0000000e+00 
0.0000000e+00 2.0228792e-06 0.0000000e+00 
0.0000000e+00 -1.6145499e-05 0.0000000e+00 
0.0000000e+00 -1.2908192e-05 0.0000000e+00 
0.0000000e+00 4.2338479e-06 0.0000000e+00 
-6.8630351e-07 -5.1802743e-07 3.5076729e-07 
8.3043801e-07 -2.5805628e-06 -1.2550296e-06 
8.3033717e-07 -2.4859321e-06 -3.2970622e-06 
5.4262460e-07 -3.1795244e-06 -2.7576491e-06 
2.6070638e-06 -1.8333109e-06 4.2002930e-06 
1.7689534e-06 -2.1233493e-06 6.8677773e-06 
-1.2780559e-06 3.0191497e-06 8.9076293e-06 
-1.7602129e-06 1.0495405e-05 4.0292316e-06 
-1.3527251e-06 -1.0381451e-06 2.0023014e-09 
-5.5494462e-07 -7.3602274e-07 -1.0011159e-07 
-2.7281076e-06 -5.2400117e-07 1.6138421e-06 
-2.4094886e-06 6.8541294e-07 -1.2499898e-07 
-1.9460845e-06 3.6276442e-06 -8.0646981e-07 
-2.5343311e-06 2.3248015e-06 1.1782552e-06 
-5.7101365e-06 3.2515736e-06 1.7693475e-06 
-1.2798080e-06 -2.2473131e-07 -2.8842229e-07 
-6.2489426e-07 2.7956963e-07 1.4384050e-06 
1.0925282e-07 -3.5153626e-06 6.0886073e-06 
6.1124183e-07 3.0564479e-06 6.2189142e-06 
3.1906538e-07 -8.3277300e-06 3.7924813e-06 
4.3355913e-06 -1.2325057e-06 -2.6892253e-06 
6.9373336e-06 3.3112539e-07 -7.7521154e-06 
6.1465867e-06 -9.9801346e-06 -1.3434762e-05 
1.8272969e-05 -1.0441518e-06 -1.7076902e-05 
2.5339508e-05 -1.8308710e-06 -1.7319566e-05 
2.8324712e-05 -1.5717787e-05 -1.9271822e-05 
4.2828218e-05 -9.1979255e-06 -1.4653613e-05 