# vtk DataFile Version 4.0
vtk output
ASCII
DATASET UNSTRUCTURED_GRID
POINTS 767 float
0.0000000e+00 0.0000000e+00 0.0000000e+00 
0.0000000e+00 0.0000000e+00 5.0000000e+01 
5.0000000e+00 0.0000000e+00 0.0000000e+00 
5.0000000e+00 0.0000000e+00 5.0000000e+01 
5.0000000e+00 1.0000000e+00 0.0000000e+00 
5.0000000e+00 1.0000000e+00 5.0000000e+01 
0.0000000e+00 1.0000000e+00 0.0000000e+00 
0.0000000e+00 1.0000000e+00 5.0000000e+01 
5.0000000e+00 2.0000000e+00 0.0000000e+00 
5.0000000e+00 2.0000000e+00 5.0000000e+01 
3.0000000e+00 2.0000000e+00 0.0000000e+00 
3.0000000e+00 2.0000000e+00 5.0000000e+01 
0.0000000e+00 2.0000000e+00 0.0000000e+00 
0.0000000e+00 2.0000000e+00 5.0000000e+01 
1.5000000e+00 3.0000000e+00 0.0000000e+00 
1.5000000e+00 3.0000000e+00 5.0000000e+01 
7.5000000e-01 3.0000000e+00 0.0000000e+00 
7.5000000e-01 3.0000000e+00 5.0000000e+01 
0.0000000e+00 3.0000000e+00 0.0000000e+00 
0.0000000e+00 3.0000000e+00 5.0000000e+01 
7.5000000e-01 3.0000000e+00 5.0000000e-01 
7.5000000e-01 3.0000000e+00 1.0000000e+00 
7.5000000e-01 3.0000000e+00 1.5000000e+00 
7.5000000e-01 3.0000000e+00 2.0000000e+00 
7.5000000e-01 3.0000000e+00 2.5000000e+00 
7.5000000e-01 3.0000000e+00 3.0000000e+00 
7.5000000e-01 3.0000000e+00 3.5000000e+00 
7.5000000e-01 3.0000000e+00 4.0000000e+00 
7.5000000e-01 3.0000000e+00 4.5000000e+00 
7.5000000e-01 3.0000000e+00 5.0000000e+00 
7.5000000e-01 3.0000000e+00 5.5000000e+00 
7.5000000e-01 3.0000000e+00 6.0000000e+00 
7.5000000e-01 3.0000000e+00 6.5000000e+00 
7.5000000e-01 3.0000000e+00 7.0000000e+00 
7.5000000e-01 3.0000000e+00 7.5000000e+00 
7.5000000e-01 3.0000000e+00 8.0000000e+00 
7.5000000e-01 3.0000000e+00 8.5000000e+00 
7.5000000e-01 3.0000000e+00 9.0000000e+00 
7.5000000e-01 3.0000000e+00 9.5000000e+00 
7.5000000e-01 3.0000000e+00 1.0000000e+01 
7.5000000e-01 3.0000000e+00 1.0500000e+01 
7.5000000e-01 3.0000000e+00 1.1000000e+01 
7.5000000e-01 3.0000000e+00 1.1500000e+01 
7.5000000e-01 3.0000000e+00 1.2000000e+01 
7.5000000e-01 3.0000000e+00 1.2500000e+01 
7.5000000e-01 3.0000000e+00 1.3000000e+01 
7.5000000e-01 3.0000000e+00 1.3500000e+01 
7.5000000e-01 3.0000000e+00 1.4000000e+01 
7.5000000e-01 3.0000000e+00 1.4500000e+01 
7.5000000e-01 3.0000000e+00 1.5000000e+01 
7.5000000e-01 3.0000000e+00 1.5500000e+01 
7.5000000e-01 3.0000000e+00 1.6000000e+01 
7.5000000e-01 3.0000000e+00 1.6500000e+01 
7.5000000e-01 3.0000000e+00 1.7000000e+01 
7.5000000e-01 3.0000000e+00 1.7500000e+01 
7.5000000e-01 3.0000000e+00 1.8000000e+01 
7.5000000e-01 3.0000000e+00 1.8500000e+01 
7.5000000e-01 3.0000000e+00 1.9000000e+01 
7.5000000e-01 3.0000000e+00 1.9500000e+01 
7.5000000e-01 3.0000000e+00 2.0000000e+01 
7.5000000e-01 3.0000000e+00 2.0500000e+01 
7.5000000e-01 3.0000000e+00 2.1000000e+01 
7.5000000e-01 3.0000000e+00 2.1500000e+01 
7.5000000e-01 3.0000000e+00 2.2000000e+01 
7.5000000e-01 3.0000000e+00 2.2500000e+01 
7.5000000e-01 3.0000000e+00 2.3000000e+01 
7.5000000e-01 3.0000000e+00 2.3500000e+01 
7.5000000e-01 3.0000000e+00 2.4000000e+01 
7.5000000e-01 3.0000000e+00 2.4500000e+01 
7.5000000e-01 3.0000000e+00 2.5000000e+01 
7.5000000e-01 3.0000000e+00 2.5500000e+01 
7.5000000e-01 3.0000000e+00 2.6000000e+01 
7.5000000e-01 3.0000000e+00 2.6500000e+01 
7.5000000e-01 3.0000000e+00 2.7000000e+01 
7.5000000e-01 3.0000000e+00 2.7500000e+01 
7.5000000e-01 3.0000000e+00 2.8000000e+01 
7.5000000e-01 3.0000000e+00 2.8500000e+01 
7.5000000e-01 3.0000000e+00 2.9000000e+01 
7.5000000e-01 3.0000000e+00 2.9500000e+01 
7.5000000e-01 3.0000000e+00 3.0000000e+01 
7.5000000e-01 3.0000000e+00 3.0500000e+01 
7.5000000e-01 3.0000000e+00 3.1000000e+01 
7.5000000e-01 3.0000000e+00 3.1500000e+01 
7.5000000e-01 3.0000000e+00 3.2000000e+01 
7.5000000e-01 3.0000000e+00 3.2500000e+01 
7.5000000e-01 3.0000000e+00 3.3000000e+01 
7.5000000e-01 3.0000000e+00 3.3500000e+01 
7.5000000e-01 3.0000000e+00 3.4000000e+01 
7.5000000e-01 3.0000000e+00 3.4500000e+01 
7.5000000e-01 3.0000000e+00 3.5000000e+01 
7.5000000e-01 3.0000000e+00 3.5500000e+01 
7.5000000e-01 3.0000000e+00 3.6000000e+01 
7.5000000e-01 3.0000000e+00 3.6500000e+01 
7.5000000e-01 3.0000000e+00 3.7000000e+01 
7.5000000e-01 3.0000000e+00 3.7500000e+01 
7.5000000e-01 3.0000000e+00 3.8000000e+01 
7.5000000e-01 3.0000000e+00 3.8500000e+01 
7.5000000e-01 3.0000000e+00 3.9000000e+01 
7.5000000e-01 3.0000000e+00 3.9500000e+01 
7.5000000e-01 3.0000000e+00 4.0000000e+01 
7.5000000e-01 3.0000000e+00 4.0500000e+01 
7.5000000e-01 3.0000000e+00 4.1000000e+01 
7.5000000e-01 3.0000000e+00 4.1500000e+01 
7.5000000e-01 3.0000000e+00 4.2000000e+01 
7.5000000e-01 3.0000000e+00 4.2500000e+01 
7.5000000e-01 3.0000000e+00 4.3000000e+01 
7.5000000e-01 3.0000000e+00 4.3500000e+01 
7.5000000e-01 3.0000000e+00 4.4000000e+01 
7.5000000e-01 3.0000000e+00 4.4500000e+01 
7.5000000e-01 3.0000000e+00 4.5000000e+01 
7.5000000e-01 3.0000000e+00 4.5500000e+01 
7.5000000e-01 3.0000000e+00 4.6000000e+01 
7.5000000e-01 3.0000000e+00 4.6500000e+01 
7.5000000e-01 3.0000000e+00 4.7000000e+01 
7.5000000e-01 3.0000000e+00 4.7500000e+01 
7.5000000e-01 3.0000000e+00 4.8000000e+01 
7.5000000e-01 3.0000000e+00 4.8500000e+01 
7.5000000e-01 3.0000000e+00 4.9000000e+01 
7.5000000e-01 3.0000000e+00 4.9500000e+01 
7.5000000e-01 3.0250001e+00 0.0000000e+00 
7.5000000e-01 3.0250001e+00 5.0000000e-01 
7.5000000e-01 3.0250001e+00 1.0000000e+00 
7.5000000e-01 3.0250001e+00 1.5000000e+00 
7.5000000e-01 3.0250001e+00 2.0000000e+00 
7.5000000e-01 3.0250001e+00 2.5000000e+00 
7.5000000e-01 3.0250001e+00 3.0000000e+00 
7.5000000e-01 3.0250001e+00 3.5000000e+00 
7.5000000e-01 3.0250001e+00 4.0000000e+00 
7.5000000e-01 3.0250001e+00 4.5000000e+00 
7.5000000e-01 3.0250001e+00 5.0000000e+00 
7.5000000e-01 3.0250001e+00 5.5000000e+00 
7.5000000e-01 3.0250001e+00 6.0000000e+00 
7.5000000e-01 3.0250001e+00 6.5000000e+00 
7.5000000e-01 3.0250001e+00 7.0000000e+00 
7.5000000e-01 3.0250001e+00 7.5000000e+00 
7.5000000e-01 3.0250001e+00 8.0000000e+00 
7.5000000e-01 3.0250001e+00 8.5000000e+00 
7.5000000e-01 3.0250001e+00 9.0000000e+00 
7.5000000e-01 3.0250001e+00 9.5000000e+00 
7.5000000e-01 3.0250001e+00 1.0000000e+01 
7.5000000e-01 3.0250001e+00 1.0500000e+01 
7.5000000e-01 3.0250001e+00 1.1000000e+01 
7.5000000e-01 3.0250001e+00 1.1500000e+01 
7.5000000e-01 3.0250001e+00 1.2000000e+01 
7.5000000e-01 3.0250001e+00 1.2500000e+01 
7.5000000e-01 3.0250001e+00 1.3000000e+01 
7.5000000e-01 3.0250001e+00 1.3500000e+01 
7.5000000e-01 3.0250001e+00 1.4000000e+01 
7.5000000e-01 3.0250001e+00 1.4500000e+01 
7.5000000e-01 3.0250001e+00 1.5000000e+01 
7.5000000e-01 3.0250001e+00 1.5500000e+01 
7.5000000e-01 3.0250001e+00 1.6000000e+01 
7.5000000e-01 3.0250001e+00 1.6500000e+01 
7.5000000e-01 3.0250001e+00 1.7000000e+01 
7.5000000e-01 3.0250001e+00 1.7500000e+01 
7.5000000e-01 3.0250001e+00 1.8000000e+01 
7.5000000e-01 3.0250001e+00 1.8500000e+01 
7.5000000e-01 3.0250001e+00 1.9000000e+01 
7.5000000e-01 3.0250001e+00 1.9500000e+01 
7.5000000e-01 3.0250001e+00 2.0000000e+01 
7.5000000e-01 3.0250001e+00 2.0500000e+01 
7.5000000e-01 3.0250001e+00 2.1000000e+01 
7.5000000e-01 3.0250001e+00 2.1500000e+01 
7.5000000e-01 3.0250001e+00 2.2000000e+01 
7.5000000e-01 3.0250001e+00 2.2500000e+01 
7.5000000e-01 3.0250001e+00 2.3000000e+01 
7.5000000e-01 3.0250001e+00 2.3500000e+01 
7.5000000e-01 3.0250001e+00 2.4000000e+01 
7.5000000e-01 3.0250001e+00 2.4500000e+01 
7.5000000e-01 3.0250001e+00 2.5000000e+01 
7.5000000e-01 3.0250001e+00 2.5500000e+01 
7.5000000e-01 3.0250001e+00 2.6000000e+01 
7.5000000e-01 3.0250001e+00 2.6500000e+01 
7.5000000e-01 3.0250001e+00 2.7000000e+01 
7.5000000e-01 3.0250001e+00 2.7500000e+01 
7.5000000e-01 3.0250001e+00 2.8000000e+01 
7.5000000e-01 3.0250001e+00 2.8500000e+01 
7.5000000e-01 3.0250001e+00 2.9000000e+01 
7.5000000e-01 3.0250001e+00 2.9500000e+01 
7.5000000e-01 3.0250001e+00 3.0000000e+01 
7.5000000e-01 3.0250001e+00 3.0500000e+01 
7.5000000e-01 3.0250001e+00 3.1000000e+01 
7.5000000e-01 3.0250001e+00 3.1500000e+01 
7.5000000e-01 3.0250001e+00 3.2000000e+01 
7.5000000e-01 3.0250001e+00 3.2500000e+01 
7.5000000e-01 3.0250001e+00 3.3000000e+01 
7.5000000e-01 3.0250001e+00 3.3500000e+01 
7.5000000e-01 3.0250001e+00 3.4000000e+01 
7.5000000e-01 3.0250001e+00 3.4500000e+01 
7.5000000e-01 3.0250001e+00 3.5000000e+01 
7.5000000e-01 3.0250001e+00 3.5500000e+01 
7.5000000e-01 3.0250001e+00 3.6000000e+01 
7.5000000e-01 3.0250001e+00 3.6500000e+01 
7.5000000e-01 3.0250001e+00 3.7000000e+01 
7.5000000e-01 3.0250001e+00 3.7500000e+01 
7.5000000e-01 3.0250001e+00 3.8000000e+01 
7.5000000e-01 3.0250001e+00 3.8500000e+01 
7.5000000e-01 3.0250001e+00 3.9000000e+01 
7.5000000e-01 3.0250001e+00 3.9500000e+01 
7.5000000e-01 3.0250001e+00 4.0000000e+01 
7.5000000e-01 3.0250001e+00 4.0500000e+01 
7.5000000e-01 3.0250001e+00 4.1000000e+01 
7.5000000e-01 3.0250001e+00 4.1500000e+01 
7.5000000e-01 3.0250001e+00 4.2000000e+01 
7.5000000e-01 3.0250001e+00 4.2500000e+01 
7.5000000e-01 3.0250001e+00 4.3000000e+01 
7.5000000e-01 3.0250001e+00 4.3500000e+01 
7.5000000e-01 3.0250001e+00 4.4000000e+01 
7.5000000e-01 3.0250001e+00 4.4500000e+01 
7.5000000e-01 3.0250001e+00 4.5000000e+01 
7.5000000e-01 3.0250001e+00 4.5500000e+01 
7.5000000e-01 3.0250001e+00 4.6000000e+01 
7.5000000e-01 3.0250001e+00 4.6500000e+01 
7.5000000e-01 3.0250001e+00 4.7000000e+01 
7.5000000e-01 3.0250001e+00 4.7500000e+01 
7.5000000e-01 3.0250001e+00 4.8000000e+01 
7.5000000e-01 3.0250001e+00 4.8500000e+01 
7.5000000e-01 3.0250001e+00 4.9000000e+01 
7.5000000e-01 3.0250001e+00 4.9500000e+01 
7.5000000e-01 3.0250001e+00 5.0000000e+01 
7.5000000e-01 3.0250001e+00 3.5750000e+01 
3.0000000e+00 2.0000000e+00 3.6000000e+01 
8.0487806e-01 3.0000000e+00 3.6000000e+01 
0.0000000e+00 0.0000000e+00 2.0000000e+00 
0.0000000e+00 0.0000000e+00 4.0000000e+00 
0.0000000e+00 0.0000000e+00 6.0000000e+00 
0.0000000e+00 0.0000000e+00 8.0000000e+00 
0.0000000e+00 0.0000000e+00 1.0000000e+01 
0.0000000e+00 0.0000000e+00 1.2000000e+01 
0.0000000e+00 0.0000000e+00 1.4000000e+01 
[...]
POINT_DATA 767
FIELD FieldData 3
DISPLACEMENT 3 767  float
0.0000000e+00 0.0000000e+00 0.0000000e+00 
0.0000000e+00 0.0000000e+00 0.0000000e+00 
0.0000000e+00 0.0000000e+00 0.0000000e+00 
0.0000000e+00 0.0000000e+00 0.0000000e+00 
2.3371362e-05 1.2752262e-05 -2.6271266e-05 
3.0436180e-09 3.7395207e-08 -1.7297582e-09 
0.0000000e+00 1.3728057e-05 0.0000000e+00 
0.0000000e+00 2.1020558e-08 0.0000000e+00 
5.5273900e-05 -9.5082987e-06 -3.6984289e-05 
1.4663725e-08 3.3908972e-08 -2.2013921e-08 
-2.6168020e-06 -2.3308923e-05 -9.6678217e-05 
8.3564986e-09 1.7633385e-08 2.4744689e-09 
0.0000000e+00 9.7760305e-05 0.0000000e+00 
0.0000000e+00 4.2006221e-08 0.0000000e+00 
1.6516949e-04 1.2707998e-04 -4.7935511e-05 
6.7065389e-09 6.7934081e-08 2.8794744e-08 
-5.7380530e-05 5.3243549e-04 1.0329647e-04 
4.0128842e-09 4.4270143e-07 1.0469210e-08 
0.0000000e+00 5.9681650e-05 0.0000000e+00 
0.0000000e+00 3.4280131e-08 0.0000000e+00 
1.8154869e-04 4.5492078e-04 5.8532227e-05 
8.9845140e-05 2.3425063e-04 1.1334001e-04 
-1.4358651e-04 -1.2953709e-04 2.9679184e-04 
-1.1328817e-04 -7.1457383e-04 3.4922035e-04 
3.6773396e-05 -1.5419312e-03 2.0080617e-04 
6.9011799e-06 -2.5369723e-03 1.9047895e-04 
5.3327858e-05 -3.3935439e-03 1.4111101e-04 
-2.3151253e-05 -3.5011757e-03 2.2322334e-04 
-2.1144496e-04 -3.3892412e-03 1.4512343e-04 
-2.7047150e-04 -3.4667721e-03 1.2093182e-04 
-2.2422112e-04 -3.8845565e-03 1.2701853e-04 
-6.1601771e-05 -4.1204626e-03 1.0555403e-05 
-1.1721215e-04 -3.6124422e-03 -8.9652880e-05 
-2.5725563e-04 -2.6782434e-03 -1.0865858e-04 
-2.4158199e-04 -1.7712853e-03 -9.7831617e-05 
-7.8684126e-05 -1.0439052e-03 -8.3944324e-05 
-4.4815555e-05 -5.9104332e-04 -1.6830242e-04 
-6.6865905e-05 -3.4467928e-04 -1.9394887e-04 
-4.8683763e-05 -2.2008465e-04 -2.1883917e-04 
-9.4091729e-06 -1.3672440e-04 -2.0454136e-04 
3.6229263e-05 -5.6893499e-05 -1.2976900e-04 
5.2914940e-05 2.4495106e-05 -6.4175969e-05 
4.5372006e-05 9.9897516e-05 5.3652366e-06 
1.8521205e-05 1.4949104e-04 8.5385800e-05 
-5.8200808e-06 1.4992371e-04 7.6654520e-05 
-3.7472810e-06 1.1133392e-04 7.3168754e-05 
-9.4883608e-06 6.0355022e-05 3.8764501e-05 
4.1323933e-06 1.5754136e-05 -4.6215588e-05 
-3.6603175e-05 -5.8310975e-06 -6.5711080e-05 
-4.0973660e-05 -1.0268989e-05 -7.7611498e-05 
-4.5305318e-05 -8.6354712e-06 -8.9592213e-05 
2.2747017e-05 1.8413637e-05 -8.2232829e-05 
7.2336043e-05 7.7822355e-05 -5.2461117e-05 
1.3477051e-05 1.4838051e-04 -4.6364938e-05 
3.1507578e-05 2.0022324e-04 -5.6767105e-05 
-6.5039853e-06 2.4411328e-04 -3.6855723e-05 
1.4815429e-04 3.0310094e-04 -1.4809962e-05 
1.6418508e-04 3.9300416e-04 -1.1595607e-05 
7.7092018e-06 5.1609008e-04 3.7195005e-06 
-1.1115436e-04 5.5752083e-04 -1.3374189e-05 
1.7961363e-04 4.4126139e-04 3.9049752e-05 
3.7203974e-04 1.7417132e-04 5.0029059e-05 
1.0230032e-04 -2.4835233e-04 6.3129068e-05 
-2.2743823e-04 -8.5738004e-04 5.4235108e-05 
-1.3772846e-04 -1.7120176e-03 1.8757813e-04 
-1.8002511e-05 -2.6928799e-03 2.1559111e-04 
9.0524343e-05 -3.5185476e-03 1.9207309e-04 
-1.2063992e-04 -3.6053779e-03 2.7117034e-04 
-2.5147360e-04 -3.4926140e-03 2.2169399e-04 
-2.5338127e-04 -3.5443499e-03 1.7506219e-04 
-1.4035839e-04 -3.8830405e-03 1.2076249e-04 
-6.9667745e-05 -3.9914078e-03 7.7975827e-05 
-1.5865343e-04 -3.3770609e-03 -7.0235998e-05 
-2.6255578e-04 -2.4274227e-03 -1.5196101e-04 
-2.1687192e-04 -1.6105537e-03 -1.7947068e-04 
-7.7215358e-05 -1.0041149e-03 -1.4286691e-04 
-5.1068677e-05 -6.0912367e-04 -2.0499197e-04 
-4.4806322e-05 -3.4691306e-04 -1.9179180e-04 
-2.3618581e-05 -1.6691789e-04 -1.7063638e-04 
1.3517734e-05 -4.6953937e-05 -1.3728543e-04 
4.4094741e-05 2.4582645e-05 -8.6095795e-05 
4.7896145e-05 7.3127609e-05 -3.5958456e-05 
2.9092413e-05 1.1074448e-04 3.5744190e-06 
6.1410274e-06 1.2976778e-04 4.3556665e-05 
-4.5331644e-06 1.1706360e-04 5.1686238e-05 
-7.8457342e-06 8.3712432e-05 4.6034478e-05 
-1.2927211e-05 4.7290308e-05 3.3496988e-05 
-1.0088572e-05 1.5606161e-05 1.1407496e-05 
-6.2503559e-06 -1.0181924e-05 -1.3728048e-06 
-1.6543233e-06 -2.9537603e-05 -1.0593490e-05 
4.0599912e-06 -3.6652604e-05 -1.5425381e-05 
5.2126429e-06 -3.0384066e-05 -1.5739737e-05 
4.1910143e-06 -1.5010462e-05 -8.5420570e-06 
2.6270141e-06 8.3492921e-07 5.0777935e-08 
-9.8865974e-07 1.0952390e-05 4.2153920e-06 
1.0964458e-06 1.4807399e-05 7.4292543e-06 
-1.5943715e-06 1.3402694e-05 3.9834654e-06 
-1.8732831e-06 7.3671972e-06 1.1788726e-06 
-8.0573000e-07 -1.7198128e-06 -1.8349771e-06 
-8.2706794e-07 -9.1685542e-06 -1.8338518e-06 
3.8380514e-07 -9.4411780e-06 -2.0069344e-06 
6.8193305e-07 -3.7240889e-06 -4.8005768e-07 
7.4545295e-07 2.6854200e-06 7.6165804e-07 
3.7728566e-07 5.4232155e-06 4.5373545e-07 
9.8557749e-08 3.0794686e-06 6.9574241e-07 
-3.2772454e-07 -4.9029336e-07 1.2657381e-07 
-1.5716554e-07 -1.6447982e-06 1.9539888e-08 
-1.9786070e-07 -7.5009183e-07 -3.1930836e-07 
2.3580442e-09 1.2343926e-07 3.1367172e-08 
1.8878083e-07 8.9322072e-08 -5.5335356e-08 
-7.8128672e-08 -3.1526764e-07 -5.4557212e-08 
2.1901073e-08 -3.5119419e-07 1.2270829e-07 
-9.0124111e-08 1.3278760e-07 -1.0421686e-08 
9.0978851e-09 4.9721888e-07 2.1839130e-08 
2.4993888e-08 2.8896528e-07 -2.6732764e-08 
1.6586235e-08 -2.2441283e-07 -2.6118074e-09 
8.1494260e-09 -4.8734785e-07 -5.8218131e-08 
-1.7500992e-09 -2.4266490e-07 7.8183369e-08 
-8.5889393e-09 2.0012939e-07 -3.3215631e-08 
0.0000000e+00 5.3061167e-04 0.0000000e+00 
0.0000000e+00 4.5573211e-04 0.0000000e+00 
0.0000000e+00 2.3931709e-04 0.0000000e+00 
0.0000000e+00 -1.3028072e-04 0.0000000e+00 
0.0000000e+00 -7.1732968e-04 0.0000000e+00 
0.0000000e+00 -1.5549853e-03 0.0000000e+00 
0.0000000e+00 -2.5741304e-03 0.0000000e+00 
0.0000000e+00 -3.4142940e-03 0.0000000e+00 
0.0000000e+00 -3.5272455e-03 0.0000000e+00 
0.0000000e+00 -3.4028683e-03 0.0000000e+00 
0.0000000e+00 -3.5000353e-03 0.0000000e+00 
0.0000000e+00 -3.9079608e-03 0.0000000e+00 
0.0000000e+00 -4.1544419e-03 0.0000000e+00 
0.0000000e+00 -3.6291252e-03 0.0000000e+00 
0.0000000e+00 -2.6945628e-03 0.0000000e+00 
0.0000000e+00 -1.7750036e-03 0.0000000e+00 
0.0000000e+00 -1.0513861e-03 0.0000000e+00 
0.0000000e+00 -5.9134420e-04 0.0000000e+00 
0.0000000e+00 -3.4360902e-04 0.0000000e+00 
0.0000000e+00 -2.1813366e-04 0.0000000e+00 
0.0000000e+00 -1.3563376e-04 0.0000000e+00 
0.0000000e+00 -5.6339835e-05 0.0000000e+00 
0.0000000e+00 2.5562957e-05 0.0000000e+00 
0.0000000e+00 1.0023871e-04 0.0000000e+00 
0.0000000e+00 1.4755901e-04 0.0000000e+00 
0.0000000e+00 1.4887951e-04 0.0000000e+00 
0.0000000e+00 1.1155752e-04 0.0000000e+00 
0.0000000e+00 6.0711780e-05 0.0000000e+00 
0.0000000e+00 1.7373844e-05 0.0000000e+00 
0.0000000e+00 -5.4535226e-06 0.0000000e+00 
0.0000000e+00 -1.2191287e-05 0.0000000e+00 
0.0000000e+00 -8.3096174e-06 0.0000000e+00 
0.0000000e+00 1.9619314e-05 0.0000000e+00 
0.0000000e+00 7.8165249e-05 0.0000000e+00 
0.0000000e+00 1.4703035e-04 0.0000000e+00 
0.0000000e+00 1.9948966e-04 0.0000000e+00 
0.0000000e+00 2.4371951e-04 0.0000000e+00 
0.0000000e+00 3.0382804e-04 0.0000000e+00 
0.0000000e+00 3.9958401e-04 0.0000000e+00 
0.0000000e+00 5.1520544e-04 0.0000000e+00 
0.0000000e+00 5.5377488e-04 0.0000000e+00 
0.0000000e+00 4.4148933e-04 0.0000000e+00 
0.0000000e+00 1.7468780e-04 0.0000000e+00 
0.0000000e+00 -2.4683270e-04 0.0000000e+00 
0.0000000e+00 -8.6430152e-04 0.0000000e+00 
0.0000000e+00 -1.7210988e-03 0.0000000e+00 
0.0000000e+00 -2.7307817e-03 0.0000000e+00 
0.0000000e+00 -3.5428819e-03 0.0000000e+00 
0.0000000e+00 -3.6341771e-03 0.0000000e+00 
0.0000000e+00 -3.5056104e-03 0.0000000e+00 
0.0000000e+00 -3.5760119e-03 0.0000000e+00 
0.0000000e+00 -3.9045664e-03 0.0000000e+00 
0.0000000e+00 -4.0251981e-03 0.0000000e+00 
0.0000000e+00 -3.3945669e-03 0.0000000e+00 
0.0000000e+00 -2.4471455e-03 0.0000000e+00 
0.0000000e+00 -1.6140494e-03 0.0000000e+00 
0.0000000e+00 -1.0066979e-03 0.0000000e+00 
0.0000000e+00 -6.0776307e-04 0.0000000e+00 
0.0000000e+00 -3.4588002e-04 0.0000000e+00 
0.0000000e+00 -1.6657547e-04 0.0000000e+00 
0.0000000e+00 -4.7260230e-05 0.0000000e+00 
0.0000000e+00 2.5486332e-05 0.0000000e+00 
0.0000000e+00 7.4006646e-05 0.0000000e+00 
0.0000000e+00 1.1077696e-04 0.0000000e+00 
0.0000000e+00 1.2853876e-04 0.0000000e+00 
0.0000000e+00 1.1694230e-04 0.0000000e+00 
0.0000000e+00 8.4413849e-05 0.0000000e+00 
0.0000000e+00 4.7595604e-05 0.0000000e+00 
0.0000000e+00 1.5457183e-05 0.0000000e+00 
0.0000000e+00 -1.0432572e-05 0.0000000e+00 
0.0000000e+00 -2.9131206e-05 0.0000000e+00 
0.0000000e+00 -3.6392492e-05 0.0000000e+00 
0.0000000e+00 -3.0346950e-05 0.0000000e+00 
0.0000000e+00 -1.5209685e-05 0.0000000e+00 
0.0000000e+00 6.2518251e-07 0.0000000e+00 
0.0000000e+00 1.0937856e-05 0.0000000e+00 
0.0000000e+00 1.4800976e-05 0.0000000e+00 
0.0000000e+00 1.3309108e-05 0.0000000e+00 
0.0000000e+00 7.2303992e-06 0.0000000e+00 
0.0000000e+00 -1.6943836e-06 0.0000000e+00 
0.0000000e+00 -8.7735652e-06 0.0000000e+00 
0.0000000e+00 -9.2800792e-06 0.0000000e+00 
0.0000000e+00 -3.8833196e-06 0.0000000e+00 
0.0000000e+00 2.5089278e-06 0.0000000e+00 
0.0000000e+00 5.2347714e-06 0.0000000e+00 
0.0000000e+00 3.1477553e-06 0.0000000e+00 
0.0000000e+00 -2.9009604e-07 0.0000000e+00 
0.0000000e+00 -1.5989131e-06 0.0000000e+00 
0.0000000e+00 -8.4450619e-07 0.0000000e+00 
0.0000000e+00 6.4972959e-08 0.0000000e+00 
0.0000000e+00 1.1251733e-07 0.0000000e+00 
0.0000000e+00 -2.7946828e-07 0.0000000e+00 
0.0000000e+00 -3.3527459e-07 0.0000000e+00 
0.0000000e+00 1.0990895e-07 0.0000000e+00 
0.0000000e+00 4.6976666e-07 0.0000000e+00 
0.0000000e+00 2.8918637e-07 0.0000000e+00 
0.0000000e+00 -2.0701937e-07 0.0000000e+00 
0.0000000e+00 -4.6976999e-07 0.0000000e+00 
0.0000000e+00 -2.4697502e-07 0.0000000e+00 
0.0000000e+00 1.9832689e-07 0.0000000e+00 
0.0000000e+00 4.3369027e-07 0.0000000e+00 
0.0000000e+00 -3.5005964e-05 0.0000000e+00 
-2.4858830e-06 -5.2030996e-06 8.4042267e-07 
5.3740218e-06 -3.1292871e-05 -1.3350184e-05 
0.0000000e+00 0.0000000e+00 0.0000000e+00 
0.0000000e+00 0.0000000e+00 0.0000000e+00 
0.0000000e+00 0.0000000e+00 0.0000000e+00 
0.0000000e+00 0.0000000e+00 0.0000000e+00 
0.0000000e+00 0.0000000e+00 0.0000000e+00 
0.0000000e+00 0.0000000e+00 0.0000000e+00 
0.0000000e+00 0.0000000e+00 0.0000000e+00 
0.0000000e+00 0.0000000e+00 0.0000000e+00 
0.0000000e+00 0.0000000e+00 0.0000000e+00 
0.0000000e+00 0.0000000e+00 0.0000000e+00 
0.0000000e+00 0.0000000e+00 0.0000000e+00 
0.0000000e+00 0.0000000e+00 0.0000000e+00 
0.0000000e+00 0.0000000e+00 0.0000000e+00 
0.0000000e+00 0.0000000e+00 0.0000000e+00 
0.0000000e+00 0.0000000e+00 0.0000000e+00 
0.0000000e+00 0.0000000e+00 0.0000000e+00 
0.0000000e+00 0.0000000e+00 0.0000000e+00 
0.0000000e+00 0.0000000e+00 0.0000000e+00 
0.0000000e+00 0.0000000e+00 0.0000000e+00 
0.0000000e+00 0.0000000e+00 0.0000000e+00 
0.0000000e+00 0.0000000e+00 0.0000000e+00 
0.0000000e+00 0.0000000e+00 0.0000000e+00 
0.0000000e+00 0.0000000e+00 0.0000000e+00 
0.0000000e+00 0.0000000e+00 0.0000000e+00 
0.0000000e+00 0.0000000e+00 0.0000000e+00 
0.0000000e+00 0.0000000e+00 0.0000000e+00 
0.0000000e+00 0.0000000e+00 0.0000000e+00 
0.0000000e+00 0.0000000e+00 0.0000000e+00 
0.0000000e+00 0.0000000e+00 0.0000000e+00 
0.0000000e+00 0.0000000e+00 0.0000000e+00 
0.0000000e+00 0.0000000e+00 0.0000000e+00 
0.0000000e+00 0.0000000e+00 0.0000000e+00 
0.0000000e+00 0.0000000e+00 0.0000000e+00 
0.0000000e+00 0.0000000e+00 0.0000000e+00 
0.0000000e+00 0.0000000e+00 0.0000000e+00 
0.0000000e+00 0.0000000e+00 0.0000000e+00 
0.0000000e+00 0.0000000e+00 0.0000000e+00 
0.0000000e+00 0.0000000e+00 0.0000000e+00 
0.0000000e+00 0.0000000e+00 0.0000000e+00 
0.0000000e+00 0.0000000e+00 0.0000000e+00 
0.0000000e+00 0.0000000e+00 0.0000000e+00 
0.0000000e+00 0.0000000e+00 0.0000000e+00 
0.0000000e+00 0.0000000e+00 0.0000000e+00 
0.0000000e+00 0.0000000e+00 0.0000000e+00 
0.0000000e+00 0.0000000e+00 0.0000000e+00 
0.0000000e+00 0.0000000e+00 0.0000000e+00 
0.0000000e+00 0.0000000e+00 0.0000000e+00 
0.0000000e+00 0.0000000e+00 0.0000000e+00 
0.0000000e+00 0.0000000e+00 0.0000000e+00 
0.0000000e+00 0.0000000e+00 0.0000000e+00 
0.0000000e+00 0.0000000e+00 0.0000000e+00 
0.0000000e+00 0.0000000e+00 0.0000000e+00 
4.3977354e-05 -5.4560405e-06 -1.8023184e-05 
6.9502450e-05 1.3712624e-05 -1.5448708e-05 
5.4835957e-05 -1.4650456e-05 -1.9087023e-05 
-1.4233976e-05 -1.0054385e-05 -1.5989690e-05 
1.3497583e-05 -5.5438700e-06 6.2228532e-06 
-2.1422964e-06 5.2746964e-06 6.2410322e-06 
1.1642996e-08 6.1263186e-06 1.4484584e-05 
-6.7545525e-06 6.8415407e-06 6.6016655e-06 
-2.5569793e-06 1.1705387e-05 3.9216843e-06 
2.1695703e-05 -7.7363493e-06 -3.5904304e-05 
4.3580530e-05 -2.9154405e-06 2.6659278e-05 
4.6829304e-05 1.6096748e-05 -4.1678936e-06 
2.9594712e-05 7.0212177e-06 -1.7110988e-05 
-7.7881339e-08 -1.5264623e-05 -1.5192633e-05 
7.5143998e-06 1.8703902e-07 9.7944694e-06 
2.0743323e-06 4.2369647e-06 1.3133182e-05 
1.0966204e-06 -1.2769374e-06 3.5235230e-06 
-6.2401472e-07 -2.7897061e-06 -2.0481402e-06 
2.5301111e-07 2.5120303e-06 -8.7681755e-08 
-1.8356353e-07 -1.1289216e-06 3.1089758e-07 
6.5507081e-08 3.6697097e-07 -1.7300283e-07 
4.0122202e-08 -1.1744181e-07 1.7418201e-07 
1.1936633e-09 1.0710484e-07 -1.6709231e-08 
-7.9531119e-09 -6.4273479e-08 2.0146316e-09 
0.0000000e+00 -2.8531914e-04 0.0000000e+00 
0.0000000e+00 -4.7464258e-04 0.0000000e+00 
0.0000000e+00 -4.5897707e-04 0.0000000e+00 
0.0000000e+00 -1.3873154e-04 0.0000000e+00 
0.0000000e+00 -6.7052919e-05 0.0000000e+00 
0.0000000e+00 4.9336439e-05 0.0000000e+00 
0.0000000e+00 -6.8655609e-06 0.0000000e+00 
0.0000000e+00 1.1201733e-04 0.0000000e+00 
0.0000000e+00 -1.8972694e-05 0.0000000e+00 
0.0000000e+00 -2.0685037e-04 0.0000000e+00 
0.0000000e+00 -3.1222985e-04 0.0000000e+00 
0.0000000e+00 -4.9391371e-04 0.0000000e+00 
0.0000000e+00 -4.8237279e-04 0.0000000e+00 
0.0000000e+00 -1.8230539e-04 0.0000000e+00 
0.0000000e+00 -1.0699695e-05 0.0000000e+00 
0.0000000e+00 2.6513364e-05 0.0000000e+00 
0.0000000e+00 -9.9040687e-07 0.0000000e+00 
0.0000000e+00 -5.8591240e-06 0.0000000e+00 
0.0000000e+00 1.5136681e-06 0.0000000e+00 
0.0000000e+00 -6.2235398e-07 0.0000000e+00 
0.0000000e+00 2.2377145e-07 0.0000000e+00 
0.0000000e+00 -2.9491440e-07 0.0000000e+00 
0.0000000e+00 5.3678612e-08 0.0000000e+00 
0.0000000e+00 3.4827572e-08 0.0000000e+00 
3.1467785e-05 -7.9233469e-05 -3.6523725e-05 
8.3814033e-05 7.1541363e-05 -3.3785542e-05 
7.4322251e-09 1.2627497e-08 7.3278046e-09 
-4.7595422e-10 -7.9857045e-09 -7.3077975e-09 
9.4415382e-06 2.4052943e-06 -3.4042965e-05 
3.0628969e-05 5.4997581e-05 -1.0814109e-05 
3.2581567e-05 -4.4791700e-06 -1.3184799e-05 
5.5577439e-06 -1.3356531e-05 -1.9492556e-05 
6.8872432e-06 -1.4394295e-05 -8.7719218e-07 
-8.1519147e-06 6.2822396e-06 7.9730571e-06 
1.7286637e-05 5.0677613e-06 9.7882967e-06 
1.1280749e-05 7.8612957e-06 5.9190018e-07 
8.5478596e-06 1.8735103e-05 1.2234512e-05 
-3.2494681e-05 1.6332533e-05 -6.7713158e-06 
-1.3189428e-05 2.5562857e-05 -3.7080317e-06 
5.7375179e-05 2.8629318e-05 -1.6104366e-05 
3.2368520e-05 1.6565564e-05 2.5543986e-06 
3.6029533e-06 -2.3895838e-05 -6.1575633e-06 
-2.1422020e-06 -3.5464111e-06 -2.9372413e-06 
2.8535635e-06 4.8391194e-06 1.5743086e-05 
4.9751434e-06 -8.8799021e-07 5.0991184e-06 
-1.2281367e-06 -2.6081827e-06 -9.4942271e-07 
-3.3081463e-08 2.4449803e-06 -2.1359795e-06 
3.6814137e-07 -1.2463714e-06 2.1496521e-06 
-2.9221468e-07 4.2208268e-07 -1.0955764e-06 
1.2436199e-07 -2.2889414e-07 4.1820985e-07 
-8.2120643e-08 1.5244888e-07 -1.8206053e-07 
1.2867198e-08 -5.5531657e-08 6.2232118e-08 
-1.7570086e-05 1.0872239e-04 -3.4783880e-05 
0.0000000e+00 -4.4405108e-04 0.0000000e+00 
0.0000000e+00 -1.0153600e-03 0.0000000e+00 
0.0000000e+00 -1.0718360e-03 0.0000000e+00 
0.0000000e+00 -3.3019143e-04 0.0000000e+00 
0.0000000e+00 -1.2666965e-04 0.0000000e+00 
0.0000000e+00 1.1713878e-04 0.0000000e+00 
0.0000000e+00 1.4610350e-05 0.0000000e+00 
0.0000000e+00 9.8202057e-05 0.0000000e+00 
0.0000000e+00 5.0190756e-05 0.0000000e+00 
0.0000000e+00 -1.4106913e-04 0.0000000e+00 
0.0000000e+00 -6.1390974e-04 0.0000000e+00 
0.0000000e+00 -1.0094810e-03 0.0000000e+00 
0.0000000e+00 -1.0780068e-03 0.0000000e+00 
0.0000000e+00 -3.6607345e-04 0.0000000e+00 
0.0000000e+00 -1.8661000e-05 0.0000000e+00 
0.0000000e+00 5.7482583e-05 0.0000000e+00 
0.0000000e+00 -1.2889556e-06 0.0000000e+00 
0.0000000e+00 -1.1260543e-05 0.0000000e+00 
0.0000000e+00 8.9734840e-06 0.0000000e+00 
0.0000000e+00 -4.9470209e-06 0.0000000e+00 
0.0000000e+00 1.1913392e-06 0.0000000e+00 
0.0000000e+00 -3.4994838e-07 0.0000000e+00 
0.0000000e+00 5.0520600e-07 0.0000000e+00 
0.0000000e+00 -2.4673326e-07 0.0000000e+00 
6.8548163e-09 5.3324502e-08 2.4550264e-09 
-2.7436667e-04 1.2176170e-04 2.1871536e-04 
-5.2169483e-04 -7.9741032e-04 2.2722647e-04 
-5.7112757e-04 -1.4316700e-03 -4.9914215e-05 
-2.0162767e-04 -2.6688186e-04 -2.4422482e-04 
1.3908572e-05 -1.7276870e-04 -2.2952142e-04 
1.9969750e-05 1.2137257e-04 6.3200867e-05 
-1.8133971e-08 9.5711982e-07 5.1796102e-05 
9.5896598e-07 1.2479420e-05 -2.7671389e-05 
3.7416360e-06 2.9443213e-04 -9.4975330e-05 
-2.7997286e-05 4.5591363e-04 2.0279289e-05 
-3.0002513e-04 9.6938253e-05 2.0000148e-04 
-6.5716228e-04 -7.3568639e-04 3.2368771e-04 
-6.1216264e-04 -1.2690063e-03 2.8178542e-06 
-1.8244341e-04 -3.7829494e-04 -3.2318194e-04 
1.0988649e-05 -3.9593517e-05 -1.7122281e-04 
2.2508559e-05 5.7205016e-05 5.3373729e-05 
-9.3491662e-06 1.7258597e-05 3.7674490e-05 
-1.1736008e-06 -3.4965000e-05 -2.3632581e-05 
1.6841228e-06 2.5996884e-05 9.5633495e-06 
-8.9185460e-07 -9.2102973e-06 -1.7484020e-06 
-1.7572680e-07 2.9152691e-06 4.4048059e-07 
-2.5849108e-08 -1.3287598e-06 -1.6533926e-07 
1.0945027e-07 6.7335822e-07 1.4156569e-07 
-6.1569438e-08 -2.5201206e-07 -7.4204060e-08 
0.0000000e+00 -5.1345304e-04 0.0000000e+00 
0.0000000e+00 -1.9172998e-03 0.0000000e+00 
0.0000000e+00 -2.1957250e-03 0.0000000e+00 
0.0000000e+00 -5.8514846e-04 0.0000000e+00 
0.0000000e+00 -1.9718692e-04 0.0000000e+00 
0.0000000e+00 2.0970234e-04 0.0000000e+00 
0.0000000e+00 -4.7480858e-05 0.0000000e+00 
0.0000000e+00 5.3432206e-05 0.0000000e+00 
0.0000000e+00 2.8406508e-04 0.0000000e+00 
0.0000000e+00 5.8597208e-05 0.0000000e+00 
0.0000000e+00 -7.7059591e-04 0.0000000e+00 
0.0000000e+00 -1.8362551e-03 0.0000000e+00 
0.0000000e+00 -2.1256900e-03 0.0000000e+00 
0.0000000e+00 -6.5478415e-04 0.0000000e+00 
0.0000000e+00 -2.6219568e-05 0.0000000e+00 
0.0000000e+00 1.0777063e-04 0.0000000e+00 
0.0000000e+00 2.2952497e-07 0.0000000e+00 
0.0000000e+00 -2.5724981e-05 0.0000000e+00 
0.0000000e+00 2.4697825e-05 0.0000000e+00 
0.0000000e+00 -1.4138321e-05 0.0000000e+00 
0.0000000e+00 5.2161918e-06 0.0000000e+00 
0.0000000e+00 -1.4527023e-06 0.0000000e+00 
0.0000000e+00 6.2094682e-07 0.0000000e+00 
0.0000000e+00 -1.3802928e-07 0.0000000e+00 
2.3960674e-05 6.7567795e-05 -5.5189197e-05 
3.9149265e-05 -4.8813465e-05 -4.3465203e-05 
8.8271234e-05 -5.6114339e-05 5.0203103e-05 
1.6928247e-05 -4.9925475e-05 -3.3901655e-05 
-1.6329877e-05 -2.3793153e-05 -5.3413351e-05 
1.5535355e-05 3.4419522e-06 1.6309343e-05 
-3.6522272e-06 1.8142660e-05 3.5109104e-05 
4.2542229e-06 -7.3485444e-06 -1.9429583e-06 
1.7982551e-06 4.4446209e-05 -2.1604032e-05 
2.6369637e-05 -1.2191225e-05 3.7823393e-05 
6.7938337e-05 -4.5700610e-05 -3.8052851e-05 
8.8522072e-05 2.2955401e-05 4.2367781e-05 
5.3946740e-05 -6.0367071e-05 2.0901161e-05 
1.0971161e-05 -5.1976625e-05 -3.7872298e-05 
-1.1901409e-05 -2.6294001e-05 -4.0425748e-05 
4.2168217e-06 1.3194494e-05 3.1318464e-06 
3.0843651e-06 8.9244886e-06 1.7818211e-05 
9.2701146e-07 1.4661360e-06 -1.7798578e-06 
-2.8611521e-07 4.6806665e-08 8.8952027e-07 
-9.9870661e-08 -5.3251148e-07 -4.1124807e-07 
-1.6397109e-08 1.0725404e-07 1.9312269e-07 
5.4552736e-08 1.8479151e-08 -4.7815846e-08 
-4.2953541e-08 -6.1143183e-08 -1.8684831e-09 
-4.0658742e-06 -2.6051646e-05 -1.4546959e-05 
0.0000000e+00 0.0000000e+00 0.0000000e+00 
0.0000000e+00 0.0000000e+00 0.0000000e+00 
0.0000000e+00 0.0000000e+00 0.0000000e+00 
0.0000000e+00 0.0000000e+00 0.0000000e+00 