# vtk DataFile Version 4.0
vtk output
ASCII
DATASET UNSTRUCTURED_GRID
POINTS 8418 float
0.0000000e+00 -1.0000000e-01 0.0000000e+00 
1.0000000e+00 -1.0000000e-01 0.0000000e+00 
1.0000000e+00 0.0000000e+00 0.0000000e+00 
0.0000000e+00 0.0000000e+00 0.0000000e+00 
0.0000000e+00 -1.0000000e-01 5.0000000e+00 
1.0000000e+00 -1.0000000e-01 5.0000000e+00 
1.0000000e+00 0.0000000e+00 5.0000000e+00 
0.0000000e+00 0.0000000e+00 5.0000000e+00 
1.0000000e-01 -1.0000000e-01 0.0000000e+00 
2.0000000e-01 -1.0000000e-01 0.0000000e+00 
3.0000001e-01 -1.0000000e-01 0.0000000e+00 
4.0000001e-01 -1.0000000e-01 0.0000000e+00 
5.0000000e-01 -1.0000000e-01 0.0000000e+00 
6.0000002e-01 -1.0000000e-01 0.0000000e+00 
6.9999999e-01 -1.0000000e-01 0.0000000e+00 
8.0000001e-01 -1.0000000e-01 0.0000000e+00 
8.9999998e-01 -1.0000000e-01 0.0000000e+00 
5.0000001e-02 -1.0000000e-01 0.0000000e+00 
1.5000001e-01 -1.0000000e-01 0.0000000e+00 
2.5000000e-01 -1.0000000e-01 0.0000000e+00 
3.4999999e-01 -1.0000000e-01 0.0000000e+00 
4.4999999e-01 -1.0000000e-01 0.0000000e+00 
5.5000001e-01 -1.0000000e-01 0.0000000e+00 
6.4999998e-01 -1.0000000e-01 0.0000000e+00 
7.5000000e-01 -1.0000000e-01 0.0000000e+00 
8.5000002e-01 -1.0000000e-01 0.0000000e+00 
9.4999999e-01 -1.0000000e-01 0.0000000e+00 
1.0000000e+00 -5.0000001e-02 0.0000000e+00 
8.9999998e-01 0.0000000e+00 0.0000000e+00 
8.0000001e-01 0.0000000e+00 0.0000000e+00 
6.9999999e-01 0.0000000e+00 0.0000000e+00 
6.0000002e-01 0.0000000e+00 0.0000000e+00 
5.0000000e-01 0.0000000e+00 0.0000000e+00 
4.0000001e-01 0.0000000e+00 0.0000000e+00 
3.0000001e-01 0.0000000e+00 0.0000000e+00 
2.0000000e-01 0.0000000e+00 0.0000000e+00 
1.0000000e-01 0.0000000e+00 0.0000000e+00 
9.4999999e-01 0.0000000e+00 0.0000000e+00 
8.5000002e-01 0.0000000e+00 0.0000000e+00 
7.5000000e-01 0.0000000e+00 0.0000000e+00 
6.4999998e-01 0.0000000e+00 0.0000000e+00 
5.5000001e-01 0.0000000e+00 0.0000000e+00 
4.4999999e-01 0.0000000e+00 0.0000000e+00 
3.4999999e-01 0.0000000e+00 0.0000000e+00 
2.5000000e-01 0.0000000e+00 0.0000000e+00 
1.5000001e-01 0.0000000e+00 0.0000000e+00 
5.0000001e-02 0.0000000e+00 0.0000000e+00 
0.0000000e+00 -5.0000001e-02 0.0000000e+00 
0.0000000e+00 -1.0000000e-01 1.0000000e-01 
0.0000000e+00 -1.0000000e-01 2.0000000e-01 
0.0000000e+00 -1.0000000e-01 3.0000001e-01 
0.0000000e+00 -1.0000000e-01 4.0000001e-01 
0.0000000e+00 -1.0000000e-01 5.0000000e-01 
0.0000000e+00 -1.0000000e-01 6.0000002e-01 
0.0000000e+00 -1.0000000e-01 6.9999999e-01 
0.0000000e+00 -1.0000000e-01 8.0000001e-01 
0.0000000e+00 -1.0000000e-01 8.9999998e-01 
0.0000000e+00 -1.0000000e-01 1.0000000e+00 
0.0000000e+00 -1.0000000e-01 1.1000000e+00 
0.0000000e+00 -1.0000000e-01 1.2000000e+00 
0.0000000e+00 -1.0000000e-01 1.3000000e+00 
0.0000000e+00 -1.0000000e-01 1.4000000e+00 
0.0000000e+00 -1.0000000e-01 1.5000000e+00 
0.0000000e+00 -1.0000000e-01 1.6000000e+00 
0.0000000e+00 -1.0000000e-01 1.7000000e+00 
0.0000000e+00 -1.0000000e-01 1.8000000e+00 
0.0000000e+00 -1.0000000e-01 1.9000000e+00 
0.0000000e+00 -1.0000000e-01 2.0000000e+00 
0.0000000e+00 -1.0000000e-01 2.0999999e+00 
0.0000000e+00 -1.0000000e-01 2.2000000e+00 
0.0000000e+00 -1.0000000e-01 2.3000000e+00 
0.0000000e+00 -1.0000000e-01 2.4000001e+00 
0.0000000e+00 -1.0000000e-01 2.5000000e+00 
0.0000000e+00 -1.0000000e-01 2.5999999e+00 
0.0000000e+00 -1.0000000e-01 2.7000000e+00 
0.0000000e+00 -1.0000000e-01 2.8000000e+00 
0.0000000e+00 -1.0000000e-01 2.9000001e+00 
0.0000000e+00 -1.0000000e-01 3.0000000e+00 
0.0000000e+00 -1.0000000e-01 3.0999999e+00 
0.0000000e+00 -1.0000000e-01 3.2000000e+00 
0.0000000e+00 -1.0000000e-01 3.3000000e+00 
0.0000000e+00 -1.0000000e-01 3.4000001e+00 
0.0000000e+00 -1.0000000e-01 3.5000000e+00 
0.0000000e+00 -1.0000000e-01 3.5999999e+00 
0.0000000e+00 -1.0000000e-01 3.7000000e+00 
0.0000000e+00 -1.0000000e-01 3.8000000e+00 
0.0000000e+00 -1.0000000e-01 3.9000001e+00 
0.0000000e+00 -1.0000000e-01 4.0000000e+00 
0.0000000e+00 -1.0000000e-01 4.0999999e+00 
0.0000000e+00 -1.0000000e-01 4.1999998e+00 
0.0000000e+00 -1.0000000e-01 4.3000002e+00 
0.0000000e+00 -1.0000000e-01 4.4000001e+00 
0.0000000e+00 -1.0000000e-01 4.5000000e+00 
0.0000000e+00 -1.0000000e-01 4.5999999e+00 
0.0000000e+00 -1.0000000e-01 4.6999998e+00 
0.0000000e+00 -1.0000000e-01 4.8000002e+00 
0.0000000e+00 -1.0000000e-01 4.9000001e+00 
0.0000000e+00 -1.0000000e-01 5.0000001e-02 
0.0000000e+00 -1.0000000e-01 1.5000001e-01 
0.0000000e+00 -1.0000000e-01 2.5000000e-01 
0.0000000e+00 -1.0000000e-01 3.4999999e-01 
0.0000000e+00 -1.0000000e-01 4.4999999e-01 
0.0000000e+00 -1.0000000e-01 5.5000001e-01 
0.0000000e+00 -1.0000000e-01 6.4999998e-01 
0.0000000e+00 -1.0000000e-01 7.5000000e-01 
0.0000000e+00 -1.0000000e-01 8.5000002e-01 
0.0000000e+00 -1.0000000e-01 9.4999999e-01 
0.0000000e+00 -1.0000000e-01 1.0500000e+00 
0.0000000e+00 -1.0000000e-01 1.1500000e+00 
0.0000000e+00 -1.0000000e-01 1.2500000e+00 
0.0000000e+00 -1.0000000e-01 1.3500000e+00 
0.0000000e+00 -1.0000000e-01 1.4500000e+00 
0.0000000e+00 -1.0000000e-01 1.5500000e+00 
0.0000000e+00 -1.0000000e-01 1.6500000e+00 
0.0000000e+00 -1.0000000e-01 1.7500000e+00 
0.0000000e+00 -1.0000000e-01 1.8500000e+00 
0.0000000e+00 -1.0000000e-01 1.9500000e+00 
0.0000000e+00 -1.0000000e-01 2.0500000e+00 
0.0000000e+00 -1.0000000e-01 2.1500001e+00 
0.0000000e+00 -1.0000000e-01 2.2500000e+00 
0.0000000e+00 -1.0000000e-01 2.3499999e+00 
0.0000000e+00 -1.0000000e-01 2.4500000e+00 
0.0000000e+00 -1.0000000e-01 2.5500000e+00 
0.0000000e+00 -1.0000000e-01 2.6500001e+00 
0.0000000e+00 -1.0000000e-01 2.7500000e+00 
0.0000000e+00 -1.0000000e-01 2.8499999e+00 
0.0000000e+00 -1.0000000e-01 2.9500000e+00 
0.0000000e+00 -1.0000000e-01 3.0500000e+00 
0.0000000e+00 -1.0000000e-01 3.1500001e+00 
0.0000000e+00 -1.0000000e-01 3.2500000e+00 
0.0000000e+00 -1.0000000e-01 3.3499999e+00 
0.0000000e+00 -1.0000000e-01 3.4500000e+00 
0.0000000e+00 -1.0000000e-01 3.5500000e+00 
0.0000000e+00 -1.0000000e-01 3.6500001e+00 
0.0000000e+00 -1.0000000e-01 3.7500000e+00 
0.0000000e+00 -1.0000000e-01 3.8499999e+00 
0.0000000e+00 -1.0000000e-01 3.9500000e+00 
0.0000000e+00 -1.0000000e-01 4.0500002e+00 
0.0000000e+00 -1.0000000e-01 4.1500001e+00 
0.0000000e+00 -1.0000000e-01 4.2500000e+00 
0.0000000e+00 -1.0000000e-01 4.3499999e+00 
0.0000000e+00 -1.0000000e-01 4.4499998e+00 
0.0000000e+00 -1.0000000e-01 4.5500002e+00 
0.0000000e+00 -1.0000000e-01 4.6500001e+00 
0.0000000e+00 -1.0000000e-01 4.7500000e+00 
0.0000000e+00 -1.0000000e-01 4.8499999e+00 
0.0000000e+00 -1.0000000e-01 4.9499998e+00 
1.0000000e+00 -1.0000000e-01 1.0000000e-01 
1.0000000e+00 -1.0000000e-01 2.0000000e-01 
1.0000000e+00 -1.0000000e-01 3.0000001e-01 
1.0000000e+00 -1.0000000e-01 4.0000001e-01 
1.0000000e+00 -1.0000000e-01 5.0000000e-01 
1.0000000e+00 -1.0000000e-01 6.0000002e-01 
1.0000000e+00 -1.0000000e-01 6.9999999e-01 
1.0000000e+00 -1.0000000e-01 8.0000001e-01 
1.0000000e+00 -1.0000000e-01 8.9999998e-01 
1.0000000e+00 -1.0000000e-01 1.0000000e+00 
1.0000000e+00 -1.0000000e-01 1.1000000e+00 
1.0000000e+00 -1.0000000e-01 1.2000000e+00 
1.0000000e+00 -1.0000000e-01 1.3000000e+00 
1.0000000e+00 -1.0000000e-01 1.4000000e+00 
1.0000000e+00 -1.0000000e-01 1.5000000e+00 
1.0000000e+00 -1.0000000e-01 1.6000000e+00 
1.0000000e+00 -1.0000000e-01 1.7000000e+00 
1.0000000e+00 -1.0000000e-01 1.8000000e+00 
1.0000000e+00 -1.0000000e-01 1.9000000e+00 
1.0000000e+00 -1.0000000e-01 2.0000000e+00 
1.0000000e+00 -1.0000000e-01 2.0999999e+00 
1.0000000e+00 -1.0000000e-01 2.2000000e+00 
1.0000000e+00 -1.0000000e-01 2.3000000e+00 
1.0000000e+00 -1.0000000e-01 2.4000001e+00 
1.0000000e+00 -1.0000000e-01 2.5000000e+00 
1.0000000e+00 -1.0000000e-01 2.5999999e+00 
1.0000000e+00 -1.0000000e-01 2.7000000e+00 
1.0000000e+00 -1.0000000e-01 2.8000000e+00 
1.0000000e+00 -1.0000000e-01 2.9000001e+00 
1.0000000e+00 -1.0000000e-01 3.0000000e+00 
1.0000000e+00 -1.0000000e-01 3.0999999e+00 
1.0000000e+00 -1.0000000e-01 3.2000000e+00 
1.0000000e+00 -1.0000000e-01 3.3000000e+00 
1.0000000e+00 -1.0000000e-01 3.4000001e+00 
1.0000000e+00 -1.0000000e-01 3.5000000e+00 
1.0000000e+00 -1.0000000e-01 3.5999999e+00 
1.0000000e+00 -1.0000000e-01 3.7000000e+00 
1.0000000e+00 -1.0000000e-01 3.8000000e+00 
1.0000000e+00 -1.0000000e-01 3.9000001e+00 
1.0000000e+00 -1.0000000e-01 4.0000000e+00 
1.0000000e+00 -1.0000000e-01 4.0999999e+00 
1.0000000e+00 -1.0000000e-01 4.1999998e+00 
1.0000000e+00 -1.0000000e-01 4.3000002e+00 
1.0000000e+00 -1.0000000e-01 4.4000001e+00 
1.0000000e+00 -1.0000000e-01 4.5000000e+00 
1.0000000e+00 -1.0000000e-01 4.5999999e+00 
1.0000000e+00 -1.0000000e-01 4.6999998e+00 
1.0000000e+00 -1.0000000e-01 4.8000002e+00 
1.0000000e+00 -1.0000000e-01 4.9000001e+00 
1.0000000e+00 -1.0000000e-01 5.0000001e-02 
1.0000000e+00 -1.0000000e-01 1.5000001e-01 
1.0000000e+00 -1.0000000e-01 2.5000000e-01 
1.0000000e+00 -1.0000000e-01 3.4999999e-01 
1.0000000e+00 -1.0000000e-01 4.4999999e-01 
1.0000000e+00 -1.0000000e-01 5.5000001e-01 
1.0000000e+00 -1.0000000e-01 6.4999998e-01 
1.0000000e+00 -1.0000000e-01 7.5000000e-01 
1.0000000e+00 -1.0000000e-01 8.5000002e-01 
1.0000000e+00 -1.0000000e-01 9.4999999e-01 
1.0000000e+00 -1.0000000e-01 1.0500000e+00 
1.0000000e+00 -1.0000000e-01 1.1500000e+00 
1.0000000e+00 -1.0000000e-01 1.2500000e+00 
1.0000000e+00 -1.0000000e-01 1.3500000e+00 
1.0000000e+00 -1.0000000e-01 1.4500000e+00 
1.0000000e+00 -1.0000000e-01 1.5500000e+00 
1.0000000e+00 -1.0000000e-01 1.6500000e+00 
1.0000000e+00 -1.0000000e-01 1.7500000e+00 
1.0000000e+00 -1.0000000e-01 1.8500000e+00 
1.0000000e+00 -1.0000000e-01 1.9500000e+00 
1.0000000e+00 -1.0000000e-01 2.0500000e+00 
1.0000000e+00 -1.0000000e-01 2.1500001e+00 
1.0000000e+00 -1.0000000e-01 2.2500000e+00 
1.0000000e+00 -1.0000000e-01 2.3499999e+00 
1.0000000e+00 -1.0000000e-01 2.4500000e+00 
1.0000000e+00 -1.0000000e-01 2.5500000e+00 
1.0000000e+00 -1.0000000e-01 2.6500001e+00 
1.0000000e+00 -1.0000000e-01 2.7500000e+00 
1.0000000e+00 -1.0000000e-01 2.8499999e+00 
[...]
POINT_DATA 8418
FIELD FieldData 1
DISPLACEMENT 3 8418  float
0.0000000e+00 0.0000000e+00 0.0000000e+00 
0.0000000e+00 0.0000000e+00 0.0000000e+00 
0.0000000e+00 0.0000000e+00 0.0000000e+00 
0.0000000e+00 0.0000000e+00 0.0000000e+00 
0.0000000e+00 0.0000000e+00 0.0000000e+00 
0.0000000e+00 0.0000000e+00 0.0000000e+00 
0.0000000e+00 0.0000000e+00 0.0000000e+00 
0.0000000e+00 0.0000000e+00 0.0000000e+00 
0.0000000e+00 0.0000000e+00 0.0000000e+00 
0.0000000e+00 0.0000000e+00 0.0000000e+00 
0.0000000e+00 0.0000000e+00 0.0000000e+00 
0.0000000e+00 0.0000000e+00 0.0000000e+00 
0.0000000e+00 0.0000000e+00 0.0000000e+00 
0.0000000e+00 0.0000000e+00 0.0000000e+00 
0.0000000e+00 0.0000000e+00 0.0000000e+00 
0.0000000e+00 0.0000000e+00 0.0000000e+00 
0.0000000e+00 0.0000000e+00 0.0000000e+00 
0.0000000e+00 0.0000000e+00 0.0000000e+00 
0.0000000e+00 0.0000000e+00 0.0000000e+00 
0.0000000e+00 0.0000000e+00 0.0000000e+00 
0.0000000e+00 0.0000000e+00 0.0000000e+00 
0.0000000e+00 0.0000000e+00 0.0000000e+00 
0.0000000e+00 0.0000000e+00 0.0000000e+00 
0.0000000e+00 0.0000000e+00 0.0000000e+00 
0.0000000e+00 0.0000000e+00 0.0000000e+00 
0.0000000e+00 0.0000000e+00 0.0000000e+00 
0.0000000e+00 0.0000000e+00 0.0000000e+00 
0.0000000e+00 0.0000000e+00 0.0000000e+00 
0.0000000e+00 0.0000000e+00 0.0000000e+00 
0.0000000e+00 0.0000000e+00 0.0000000e+00 
0.0000000e+00 0.0000000e+00 0.0000000e+00 
0.0000000e+00 0.0000000e+00 0.0000000e+00 
0.0000000e+00 0.0000000e+00 0.0000000e+00 
0.0000000e+00 0.0000000e+00 0.0000000e+00 
0.0000000e+00 0.0000000e+00 0.0000000e+00 
0.0000000e+00 0.0000000e+00 0.0000000e+00 
0.0000000e+00 0.0000000e+00 0.0000000e+00 
0.0000000e+00 0.0000000e+00 0.0000000e+00 
0.0000000e+00 0.0000000e+00 0.0000000e+00 
0.0000000e+00 0.0000000e+00 0.0000000e+00 
0.0000000e+00 0.0000000e+00 0.0000000e+00 
0.0000000e+00 0.0000000e+00 0.0000000e+00 
0.0000000e+00 0.0000000e+00 0.0000000e+00 
0.0000000e+00 0.0000000e+00 0.0000000e+00 
0.0000000e+00 0.0000000e+00 0.0000000e+00 
0.0000000e+00 0.0000000e+00 0.0000000e+00 
0.0000000e+00 0.0000000e+00 0.0000000e+00 
0.0000000e+00 0.0000000e+00 0.0000000e+00 
0.0000000e+00 0.0000000e+00 0.0000000e+00 
0.0000000e+00 0.0000000e+00 0.0000000e+00 
0.0000000e+00 0.0000000e+00 0.0000000e+00 
0.0000000e+00 0.0000000e+00 0.0000000e+00 
0.0000000e+00 0.0000000e+00 0.0000000e+00 
0.0000000e+00 0.0000000e+00 0.0000000e+00 
0.0000000e+00 0.0000000e+00 0.0000000e+00 
0.0000000e+00 0.0000000e+00 0.0000000e+00 
0.0000000e+00 0.0000000e+00 0.0000000e+00 
0.0000000e+00 0.0000000e+00 0.0000000e+00 
0.0000000e+00 0.0000000e+00 0.0000000e+00 
0.0000000e+00 0.0000000e+00 0.0000000e+00 
0.0000000e+00 0.0000000e+00 0.0000000e+00 
0.0000000e+00 0.0000000e+00 0.0000000e+00 
0.0000000e+00 0.0000000e+00 0.0000000e+00 
0.0000000e+00 0.0000000e+00 0.0000000e+00 
0.0000000e+00 0.0000000e+00 0.0000000e+00 
0.0000000e+00 0.0000000e+00 0.0000000e+00 
0.0000000e+00 0.0000000e+00 0.0000000e+00 
0.0000000e+00 0.0000000e+00 0.0000000e+00 
0.0000000e+00 0.0000000e+00 0.0000000e+00 
0.0000000e+00 0.0000000e+00 0.0000000e+00 
0.0000000e+00 0.0000000e+00 0.0000000e+00 
0.0000000e+00 0.0000000e+00 0.0000000e+00 
0.0000000e+00 0.0000000e+00 0.0000000e+00 
0.0000000e+00 0.0000000e+00 0.0000000e+00 
0.0000000e+00 0.0000000e+00 0.0000000e+00 
0.0000000e+00 0.0000000e+00 0.0000000e+00 
0.0000000e+00 0.0000000e+00 0.0000000e+00 
0.0000000e+00 0.0000000e+00 0.0000000e+00 
0.0000000e+00 0.0000000e+00 0.0000000e+00 
0.0000000e+00 0.0000000e+00 0.0000000e+00 
0.0000000e+00 0.0000000e+00 0.0000000e+00 
0.0000000e+00 0.0000000e+00 0.0000000e+00 
0.0000000e+00 0.0000000e+00 0.0000000e+00 
0.0000000e+00 0.0000000e+00 0.0000000e+00 
0.0000000e+00 0.0000000e+00 0.0000000e+00 
0.0000000e+00 0.0000000e+00 0.0000000e+00 
0.0000000e+00 0.0000000e+00 0.0000000e+00 
0.0000000e+00 0.0000000e+00 0.0000000e+00 
0.0000000e+00 0.0000000e+00 0.0000000e+00 
0.0000000e+00 0.0000000e+00 0.0000000e+00 
0.0000000e+00 0.0000000e+00 0.0000000e+00 
0.0000000e+00 0.0000000e+00 0.0000000e+00 
0.0000000e+00 0.0000000e+00 0.0000000e+00 
0.0000000e+00 0.0000000e+00 0.0000000e+00 
0.0000000e+00 0.0000000e+00 0.0000000e+00 
0.0000000e+00 0.0000000e+00 0.0000000e+00 
0.0000000e+00 0.0000000e+00 0.0000000e+00 
0.0000000e+00 0.0000000e+00 0.0000000e+00 
0.0000000e+00 0.0000000e+00 0.0000000e+00 
0.0000000e+00 0.0000000e+00 0.0000000e+00 
0.0000000e+00 0.0000000e+00 0.0000000e+00 
0.0000000e+00 0.0000000e+00 0.0000000e+00 
0.0000000e+00 0.0000000e+00 0.0000000e+00 
0.0000000e+00 0.0000000e+00 0.0000000e+00 
0.0000000e+00 0.0000000e+00 0.0000000e+00 
0.0000000e+00 0.0000000e+00 0.0000000e+00 
0.0000000e+00 0.0000000e+00 0.0000000e+00 
0.0000000e+00 0.0000000e+00 0.0000000e+00 
0.0000000e+00 0.0000000e+00 0.0000000e+00 
0.0000000e+00 0.0000000e+00 0.0000000e+00 
0.0000000e+00 0.0000000e+00 0.0000000e+00 
0.0000000e+00 0.0000000e+00 0.0000000e+00 
0.0000000e+00 0.0000000e+00 0.0000000e+00 
0.0000000e+00 0.0000000e+00 0.0000000e+00 
0.0000000e+00 0.0000000e+00 0.0000000e+00 
0.0000000e+00 0.0000000e+00 0.0000000e+00 
0.0000000e+00 0.0000000e+00 0.0000000e+00 
0.0000000e+00 0.0000000e+00 0.0000000e+00 
0.0000000e+00 0.0000000e+00 0.0000000e+00 
0.0000000e+00 0.0000000e+00 0.0000000e+00 
0.0000000e+00 0.0000000e+00 0.0000000e+00 
0.0000000e+00 0.0000000e+00 0.0000000e+00 
0.0000000e+00 0.0000000e+00 0.0000000e+00 
0.0000000e+00 0.0000000e+00 0.0000000e+00 
0.0000000e+00 0.0000000e+00 0.0000000e+00 
0.0000000e+00 0.0000000e+00 0.0000000e+00 
0.0000000e+00 0.0000000e+00 0.0000000e+00 
0.0000000e+00 0.0000000e+00 0.0000000e+00 
0.0000000e+00 0.0000000e+00 0.0000000e+00 
0.0000000e+00 0.0000000e+00 0.0000000e+00 
0.0000000e+00 0.0000000e+00 0.0000000e+00 
0.0000000e+00 0.0000000e+00 0.0000000e+00 
0.0000000e+00 0.0000000e+00 0.0000000e+00 
0.0000000e+00 0.0000000e+00 0.0000000e+00 
0.0000000e+00 0.0000000e+00 0.0000000e+00 
0.0000000e+00 0.0000000e+00 0.0000000e+00 
0.0000000e+00 0.0000000e+00 0.0000000e+00 
0.0000000e+00 0.0000000e+00 0.0000000e+00 
0.0000000e+00 0.0000000e+00 0.0000000e+00 
0.0000000e+00 0.0000000e+00 0.0000000e+00 
0.0000000e+00 0.0000000e+00 0.0000000e+00 
0.0000000e+00 0.0000000e+00 0.0000000e+00 
0.0000000e+00 0.0000000e+00 0.0000000e+00 
0.0000000e+00 0.0000000e+00 0.0000000e+00 
0.0000000e+00 0.0000000e+00 0.0000000e+00 
0.0000000e+00 0.0000000e+00 0.0000000e+00 
0.0000000e+00 0.0000000e+00 0.0000000e+00 
0.0000000e+00 0.0000000e+00 0.0000000e+00 
0.0000000e+00 0.0000000e+00 0.0000000e+00 
0.0000000e+00 0.0000000e+00 0.0000000e+00 
0.0000000e+00 0.0000000e+00 0.0000000e+00 
0.0000000e+00 0.0000000e+00 0.0000000e+00 
0.0000000e+00 0.0000000e+00 0.0000000e+00 
0.0000000e+00 0.0000000e+00 0.0000000e+00 
0.0000000e+00 0.0000000e+00 0.0000000e+00 
0.0000000e+00 0.0000000e+00 0.0000000e+00 
0.0000000e+00 0.0000000e+00 0.0000000e+00 
0.0000000e+00 0.0000000e+00 0.0000000e+00 
0.0000000e+00 0.0000000e+00 0.0000000e+00 
0.0000000e+00 0.0000000e+00 0.0000000e+00 
0.0000000e+00 0.0000000e+00 0.0000000e+00 
0.0000000e+00 0.0000000e+00 0.0000000e+00 
0.0000000e+00 0.0000000e+00 0.0000000e+00 
0.0000000e+00 0.0000000e+00 0.0000000e+00 
0.0000000e+00 0.0000000e+00 0.0000000e+00 
0.0000000e+00 0.0000000e+00 0.0000000e+00 
0.0000000e+00 0.0000000e+00 0.0000000e+00 
0.0000000e+00 0.0000000e+00 0.0000000e+00 
0.0000000e+00 0.0000000e+00 0.0000000e+00 
0.0000000e+00 0.0000000e+00 0.0000000e+00 
0.0000000e+00 0.0000000e+00 0.0000000e+00 
0.0000000e+00 0.0000000e+00 0.0000000e+00 
0.0000000e+00 0.0000000e+00 0.0000000e+00 
0.0000000e+00 0.0000000e+00 0.0000000e+00 
0.0000000e+00 0.0000000e+00 0.0000000e+00 
0.0000000e+00 0.0000000e+00 0.0000000e+00 
0.0000000e+00 0.0000000e+00 0.0000000e+00 
0.0000000e+00 0.0000000e+00 0.0000000e+00 
0.0000000e+00 0.0000000e+00 0.0000000e+00 
0.0000000e+00 0.0000000e+00 0.0000000e+00 
0.0000000e+00 0.0000000e+00 0.0000000e+00 
0.0000000e+00 0.0000000e+00 0.0000000e+00 
0.0000000e+00 0.0000000e+00 0.0000000e+00 
0.0000000e+00 0.0000000e+00 0.0000000e+00 
0.0000000e+00 0.0000000e+00 0.0000000e+00 
0.0000000e+00 0.0000000e+00 0.0000000e+00 
0.0000000e+00 0.0000000e+00 0.0000000e+00 
0.0000000e+00 0.0000000e+00 0.0000000e+00 
0.0000000e+00 0.0000000e+00 0.0000000e+00 
0.0000000e+00 0.0000000e+00 0.0000000e+00 
0.0000000e+00 0.0000000e+00 0.0000000e+00 
0.0000000e+00 0.0000000e+00 0.0000000e+00 
0.0000000e+00 0.0000000e+00 0.0000000e+00 
0.0000000e+00 0.0000000e+00 0.0000000e+00 
0.0000000e+00 0.0000000e+00 0.0000000e+00 
0.0000000e+00 0.0000000e+00 0.0000000e+00 
0.0000000e+00 0.0000000e+00 0.0000000e+00 
0.0000000e+00 0.0000000e+00 0.0000000e+00 
0.0000000e+00 0.0000000e+00 0.0000000e+00 
0.0000000e+00 0.0000000e+00 0.0000000e+00 
0.0000000e+00 0.0000000e+00 0.0000000e+00 
0.0000000e+00 0.0000000e+00 0.0000000e+00 
0.0000000e+00 0.0000000e+00 0.0000000e+00 
0.0000000e+00 0.0000000e+00 0.0000000e+00 
0.0000000e+00 0.0000000e+00 0.0000000e+00 
0.0000000e+00 0.0000000e+00 0.0000000e+00 
0.0000000e+00 0.0000000e+00 0.0000000e+00 
0.0000000e+00 0.0000000e+00 0.0000000e+00 
0.0000000e+00 0.0000000e+00 0.0000000e+00 
0.0000000e+00 0.0000000e+00 0.0000000e+00 
0.0000000e+00 0.0000000e+00 0.0000000e+00 
0.0000000e+00 0.0000000e+00 0.0000000e+00 
0.0000000e+00 0.0000000e+00 0.0000000e+00 
0.0000000e+00 0.0000000e+00 0.0000000e+00 
0.0000000e+00 0.0000000e+00 0.0000000e+00 
0.0000000e+00 0.0000000e+00 0.0000000e+00 
0.0000000e+00 0.0000000e+00 0.0000000e+00 
0.0000000e+00 0.0000000e+00 0.0000000e+00 
0.0000000e+00 0.0000000e+00 0.0000000e+00 
0.0000000e+00 0.0000000e+00 0.0000000e+00 
0.0000000e+00 0.0000000e+00 0.0000000e+00 
0.0000000e+00 0.0000000e+00 0.0000000e+00 
0.0000000e+00 0.0000000e+00 0.0000000e+00 
0.0000000e+00 0.0000000e+00 0.0000000e+00 
0.0000000e+00 0.0000000e+00 0.0000000e+00 
0.0000000e+00 0.0000000e+00 0.0000000e+00 
0.0000000e+00 0.0000000e+00 0.0000000e+00 
0.0000000e+00 0.0000000e+00 0.0000000e+00 
0.0000000e+00 0.0000000e+00 0.0000000e+00 
0.0000000e+00 0.0000000e+00 0.0000000e+00 
0.0000000e+00 0.0000000e+00 0.0000000e+00 
0.0000000e+00 0.0000000e+00 0.0000000e+00 
0.0000000e+00 0.0000000e+00 0.0000000e+00 
0.0000000e+00 0.0000000e+00 0.0000000e+00 
0.0000000e+00 0.0000000e+00 0.0000000e+00 
0.0000000e+00 0.0000000e+00 0.0000000e+00 
0.0000000e+00 0.0000000e+00 0.0000000e+00 
0.0000000e+00 0.0000000e+00 0.0000000e+00 
0.0000000e+00 0.0000000e+00 0.0000000e+00 
0.0000000e+00 0.0000000e+00 0.0000000e+00 
0.0000000e+00 0.0000000e+00 0.0000000e+00 
0.0000000e+00 0.0000000e+00 0.0000000e+00 
0.0000000e+00 0.0000000e+00 0.0000000e+00 
0.0000000e+00 0.0000000e+00 0.0000000e+00 
0.0000000e+00 0.0000000e+00 0.0000000e+00 
0.0000000e+00 0.0000000e+00 0.0000000e+00 
0.0000000e+00 0.0000000e+00 0.0000000e+00 
0.0000000e+00 0.0000000e+00 0.0000000e+00 
0.0000000e+00 0.0000000e+00 0.0000000e+00 
0.0000000e+00 0.0000000e+00 0.0000000e+00 
0.0000000e+00 0.0000000e+00 0.0000000e+00 
0.0000000e+00 0.0000000e+00 0.0000000e+00 
0.0000000e+00 0.0000000e+00 0.0000000e+00 
0.0000000e+00 0.0000000e+00 0.0000000e+00 
0.0000000e+00 0.0000000e+00 0.0000000e+00 
0.0000000e+00 0.0000000e+00 0.0000000e+00 
0.0000000e+00 0.0000000e+00 0.0000000e+00 
0.0000000e+00 0.0000000e+00 0.0000000e+00 
0.0000000e+00 0.0000000e+00 0.0000000e+00 
0.0000000e+00 0.0000000e+00 0.0000000e+00 
0.0000000e+00 0.0000000e+00 0.0000000e+00 
0.0000000e+00 0.0000000e+00 0.0000000e+00 
0.0000000e+00 0.0000000e+00 0.0000000e+00 
0.0000000e+00 0.0000000e+00 0.0000000e+00 
0.0000000e+00 0.0000000e+00 0.0000000e+00 
0.0000000e+00 0.0000000e+00 0.0000000e+00 
0.0000000e+00 0.0000000e+00 0.0000000e+00 
0.0000000e+00 0.0000000e+00 0.0000000e+00 
0.0000000e+00 0.0000000e+00 0.0000000e+00 
0.0000000e+00 0.0000000e+00 0.0000000e+00 
0.0000000e+00 0.0000000e+00 0.0000000e+00 
0.0000000e+00 0.0000000e+00 0.0000000e+00 
0.0000000e+00 0.0000000e+00 0.0000000e+00 
0.0000000e+00 0.0000000e+00 0.0000000e+00 
0.0000000e+00 0.0000000e+00 0.0000000e+00 
0.0000000e+00 0.0000000e+00 0.0000000e+00 
0.0000000e+00 0.0000000e+00 0.0000000e+00 
0.0000000e+00 0.0000000e+00 0.0000000e+00 
0.0000000e+00 0.0000000e+00 0.0000000e+00 
0.0000000e+00 0.0000000e+00 0.0000000e+00 
0.0000000e+00 0.0000000e+00 0.0000000e+00 
0.0000000e+00 0.0000000e+00 0.0000000e+00 
0.0000000e+00 0.0000000e+00 0.0000000e+00 
0.0000000e+00 0.0000000e+00 0.0000000e+00 
0.0000000e+00 0.0000000e+00 0.0000000e+00 
0.0000000e+00 0.0000000e+00 0.0000000e+00 
0.0000000e+00 0.0000000e+00 0.0000000e+00 
0.0000000e+00 0.0000000e+00 0.0000000e+00 
0.0000000e+00 0.0000000e+00 0.0000000e+00 
0.0000000e+00 0.0000000e+00 0.0000000e+00 
0.0000000e+00 0.0000000e+00 0.0000000e+00 
0.0000000e+00 0.0000000e+00 0.0000000e+00 
0.0000000e+00 0.0000000e+00 0.0000000e+00 
0.0000000e+00 0.0000000e+00 0.0000000e+00 
0.0000000e+00 0.0000000e+00 0.0000000e+00 
0.0000000e+00 0.0000000e+00 0.0000000e+00 
0.0000000e+00 0.0000000e+00 0.0000000e+00 
0.0000000e+00 0.0000000e+00 0.0000000e+00 
0.0000000e+00 0.0000000e+00 0.0000000e+00 
0.0000000e+00 0.0000000e+00 0.0000000e+00 
0.0000000e+00 0.0000000e+00 0.0000000e+00 
0.0000000e+00 0.0000000e+00 0.0000000e+00 
0.0000000e+00 0.0000000e+00 0.0000000e+00 
0.0000000e+00 0.0000000e+00 0.0000000e+00 
0.0000000e+00 0.0000000e+00 0.0000000e+00 
0.0000000e+00 0.0000000e+00 0.0000000e+00 
0.0000000e+00 0.0000000e+00 0.0000000e+00 
0.0000000e+00 0.0000000e+00 0.0000000e+00 
0.0000000e+00 0.0000000e+00 0.0000000e+00 
0.0000000e+00 0.0000000e+00 0.0000000e+00 
0.0000000e+00 0.0000000e+00 0.0000000e+00 
0.0000000e+00 0.0000000e+00 0.0000000e+00 
0.0000000e+00 0.0000000e+00 0.0000000e+00 
0.0000000e+00 0.0000000e+00 0.0000000e+00 
0.0000000e+00 0.0000000e+00 0.0000000e+00 
0.0000000e+00 0.0000000e+00 0.0000000e+00 
0.0000000e+00 0.0000000e+00 0.0000000e+00 
0.0000000e+00 0.0000000e+00 0.0000000e+00 
0.0000000e+00 0.0000000e+00 0.0000000e+00 
0.0000000e+00 0.0000000e+00 0.0000000e+00 
0.0000000e+00 0.0000000e+00 0.0000000e+00 
0.0000000e+00 0.0000000e+00 0.0000000e+00 
0.0000000e+00 0.0000000e+00 0.0000000e+00 
0.0000000e+00 0.0000000e+00 0.0000000e+00 
0.0000000e+00 0.0000000e+00 0.0000000e+00 
0.0000000e+00 0.0000000e+00 0.0000000e+00 
0.0000000e+00 0.0000000e+00 0.0000000e+00 
0.0000000e+00 0.0000000e+00 0.0000000e+00 
0.0000000e+00 0.0000000e+00 0.0000000e+00 
0.0000000e+00 0.0000000e+00 0.0000000e+00 
0.0000000e+00 0.0000000e+00 0.0000000e+00 
0.0000000e+00 0.0000000e+00 0.0000000e+00 
0.0000000e+00 0.0000000e+00 0.0000000e+00 
0.0000000e+00 0.0000000e+00 0.0000000e+00 
0.0000000e+00 0.0000000e+00 0.0000000e+00 
0.0000000e+00 0.0000000e+00 0.0000000e+00 
0.0000000e+00 0.0000000e+00 0.0000000e+00 
0.0000000e+00 0.0000000e+00 0.0000000e+00 
0.0000000e+00 0.0000000e+00 0.0000000e+00 
0.0000000e+00 0.0000000e+00 0.0000000e+00 
0.0000000e+00 0.0000000e+00 0.0000000e+00 
0.0000000e+00 0.0000000e+00 0.0000000e+00 
0.0000000e+00 0.0000000e+00 0.0000000e+00 
0.0000000e+00 0.0000000e+00 0.0000000e+00 
0.0000000e+00 0.0000000e+00 0.0000000e+00 
0.0000000e+00 0.0000000e+00 0.0000000e+00 
0.0000000e+00 0.0000000e+00 0.0000000e+00 
0.0000000e+00 0.0000000e+00 0.0000000e+00 
0.0000000e+00 0.0000000e+00 0.0000000e+00 
0.0000000e+00 0.0000000e+00 0.0000000e+00 
0.0000000e+00 0.0000000e+00 0.0000000e+00 
0.0000000e+00 0.0000000e+00 0.0000000e+00 
0.0000000e+00 0.0000000e+00 0.0000000e+00 
0.0000000e+00 0.0000000e+00 0.0000000e+00 
0.0000000e+00 0.0000000e+00 0.0000000e+00 
0.0000000e+00 0.0000000e+00 0.0000000e+00 
0.0000000e+00 0.0000000e+00 0.0000000e+00 
0.0000000e+00 0.0000000e+00 0.0000000e+00 
0.0000000e+00 0.0000000e+00 0.0000000e+00 
0.0000000e+00 0.0000000e+00 0.0000000e+00 
0.0000000e+00 0.0000000e+00 0.0000000e+00 
0.0000000e+00 0.0000000e+00 0.0000000e+00 
0.0000000e+00 0.0000000e+00 0.0000000e+00 
0.0000000e+00 0.0000000e+00 0.0000000e+00 
0.0000000e+00 0.0000000e+00 0.0000000e+00 
0.0000000e+00 -2.9756880e-04 0.0000000e+00 
0.0000000e+00 -5.9222040e-04 0.0000000e+00 
0.0000000e+00 -8.8119932e-04 0.0000000e+00 
0.0000000e+00 -1.1617518e-03 0.0000000e+00 
0.0000000e+00 -1.4310046e-03 0.0000000e+00 
0.0000000e+00 -1.6860636e-03 0.0000000e+00 
0.0000000e+00 -1.9239901e-03 0.0000000e+00 
0.0000000e+00 -2.1418026e-03 0.0000000e+00 
0.0000000e+00 -2.3362804e-03 0.0000000e+00 
0.0000000e+00 -2.5041339e-03 0.0000000e+00 
0.0000000e+00 -2.6433773e-03 0.0000000e+00 
0.0000000e+00 -2.7553444e-03 0.0000000e+00 
0.0000000e+00 -2.8421998e-03 0.0000000e+00 
0.0000000e+00 -2.9060836e-03 0.0000000e+00 
0.0000000e+00 -2.9487440e-03 0.0000000e+00 
0.0000000e+00 -2.9717337e-03 0.0000000e+00 
0.0000000e+00 -2.9765391e-03 0.0000000e+00 
0.0000000e+00 -2.9644512e-03 0.0000000e+00 
0.0000000e+00 -2.9367339e-03 0.0000000e+00 
0.0000000e+00 -2.8944276e-03 0.0000000e+00 
0.0000000e+00 -2.8385408e-03 0.0000000e+00 
0.0000000e+00 -2.7703857e-03 0.0000000e+00 
0.0000000e+00 -2.6911437e-03 0.0000000e+00 
0.0000000e+00 -2.6024145e-03 0.0000000e+00 
0.0000000e+00 -2.5058826e-03 0.0000000e+00 
0.0000000e+00 -2.4031948e-03 0.0000000e+00 
0.0000000e+00 -2.2961234e-03 0.0000000e+00 
0.0000000e+00 -2.1864185e-03 0.0000000e+00 
0.0000000e+00 -2.0760603e-03 0.0000000e+00 
0.0000000e+00 -1.9668106e-03 0.0000000e+00 
0.0000000e+00 -1.8594572e-03 0.0000000e+00 
0.0000000e+00 -1.7540313e-03 0.0000000e+00 
0.0000000e+00 -1.6502891e-03 0.0000000e+00 
0.0000000e+00 -1.5477865e-03 0.0000000e+00 
0.0000000e+00 -1.4463238e-03 0.0000000e+00 
0.0000000e+00 -1.3457474e-03 0.0000000e+00 
0.0000000e+00 -1.2459458e-03 0.0000000e+00 
0.0000000e+00 -1.1468723e-03 0.0000000e+00 
0.0000000e+00 -1.0484604e-03 0.0000000e+00 
0.0000000e+00 -9.5067249e-04 0.0000000e+00 
0.0000000e+00 -8.5350551e-04 0.0000000e+00 
0.0000000e+00 -7.5693906e-04 0.0000000e+00 
0.0000000e+00 -6.6095404e-04 0.0000000e+00 
0.0000000e+00 -5.6554266e-04 0.0000000e+00 
0.0000000e+00 -4.7059639e-04 0.0000000e+00 
0.0000000e+00 -3.7604483e-04 0.0000000e+00 
0.0000000e+00 -2.8182694e-04 0.0000000e+00 
0.0000000e+00 -1.8784172e-04 0.0000000e+00 
0.0000000e+00 -9.3933057e-05 0.0000000e+00 
0.0000000e+00 -1.4897142e-04 0.0000000e+00 
0.0000000e+00 -4.4543116e-04 0.0000000e+00 
0.0000000e+00 -7.3759322e-04 0.0000000e+00 
0.0000000e+00 -1.0227046e-03 0.0000000e+00 
0.0000000e+00 -1.2979696e-03 0.0000000e+00 
0.0000000e+00 -1.5605002e-03 0.0000000e+00 
0.0000000e+00 -1.8073454e-03 0.0000000e+00 
0.0000000e+00 -2.0356036e-03 0.0000000e+00 
0.0000000e+00 -2.2421703e-03 0.0000000e+00 
0.0000000e+00 -2.4237290e-03 0.0000000e+00 
0.0000000e+00 -2.5772867e-03 0.0000000e+00 
0.0000000e+00 -2.7026432e-03 0.0000000e+00 
0.0000000e+00 -2.8017738e-03 0.0000000e+00 
0.0000000e+00 -2.8768864e-03 0.0000000e+00 
0.0000000e+00 -2.9299767e-03 0.0000000e+00 
0.0000000e+00 -2.9626004e-03 0.0000000e+00 
0.0000000e+00 -2.9763200e-03 0.0000000e+00 
0.0000000e+00 -2.9725309e-03 0.0000000e+00 
0.0000000e+00 -2.9524704e-03 0.0000000e+00 
0.0000000e+00 -2.9173503e-03 0.0000000e+00 
0.0000000e+00 -2.8681022e-03 0.0000000e+00 
0.0000000e+00 -2.8059208e-03 0.0000000e+00 
0.0000000e+00 -2.7320655e-03 0.0000000e+00 
0.0000000e+00 -2.6478539e-03 0.0000000e+00 
0.0000000e+00 -2.5550257e-03 0.0000000e+00 
0.0000000e+00 -2.4551952e-03 0.0000000e+00 
0.0000000e+00 -2.3501019e-03 0.0000000e+00 
0.0000000e+00 -2.2414818e-03 0.0000000e+00 
0.0000000e+00 -2.1311941e-03 0.0000000e+00 
0.0000000e+00 -2.0212226e-03 0.0000000e+00 
0.0000000e+00 -1.9128855e-03 0.0000000e+00 
0.0000000e+00 -1.8065138e-03 0.0000000e+00 
0.0000000e+00 -1.7019779e-03 0.0000000e+00 
0.0000000e+00 -1.5989043e-03 0.0000000e+00 
0.0000000e+00 -1.4969329e-03 0.0000000e+00 
0.0000000e+00 -1.3959376e-03 0.0000000e+00 
0.0000000e+00 -1.2957492e-03 0.0000000e+00 
0.0000000e+00 -1.1963261e-03 0.0000000e+00 
0.0000000e+00 -1.0975843e-03 0.0000000e+00 
0.0000000e+00 -9.9949003e-04 0.0000000e+00 
0.0000000e+00 -9.0201059e-04 0.0000000e+00 
0.0000000e+00 -8.0515078e-04 0.0000000e+00 
0.0000000e+00 -7.0886925e-04 0.0000000e+00 
0.0000000e+00 -6.1318470e-04 0.0000000e+00 
0.0000000e+00 -5.1801611e-04 0.0000000e+00 
0.0000000e+00 -4.2327610e-04 0.0000000e+00 
0.0000000e+00 -3.2889631e-04 0.0000000e+00 