# vtk DataFile Version 4.0
vtk output
ASCII
DATASET UNSTRUCTURED_GRID
POINTS 8418 float
0.0000000e+00 -1.0000000e-01 0.0000000e+00 
1.0000000e+00 -1.0000000e-01 0.0000000e+00 
1.0000000e+00 0.0000000e+00 0.0000000e+00 
0.0000000e+00 0.0000000e+00 0.0000000e+00 
0.0000000e+00 -1.0000000e-01 5.0000000e+00 
1.0000000e+00 -1.0000000e-01 5.0000000e+00 
1.0000000e+00 0.0000000e+00 5.0000000e+00 
0.0000000e+00 0.0000000e+00 5.0000000e+00 
1.0000000e-01 -1.0000000e-01 0.0000000e+00 
2.0000000e-01 -1.0000000e-01 0.0000000e+00 
3.0000001e-01 -1.0000000e-01 0.0000000e+00 
4.0000001e-01 -1.0000000e-01 0.0000000e+00 
5.0000000e-01 -1.0000000e-01 0.0000000e+00 
6.0000002e-01 -1.0000000e-01 0.0000000e+00 
6.9999999e-01 -1.0000000e-01 0.0000000e+00 
8.0000001e-01 -1.0000000e-01 0.0000000e+00 
8.9999998e-01 -1.0000000e-01 0.0000000e+00 
5.0000001e-02 -1.0000000e-01 0.0000000e+00 
1.5000001e-01 -1.0000000e-01 0.0000000e+00 
2.5000000e-01 -1.0000000e-01 0.0000000e+00 
3.4999999e-01 -1.0000000e-01 0.0000000e+00 
4.4999999e-01 -1.0000000e-01 0.0000000e+00 
5.5000001e-01 -1.0000000e-01 0.0000000e+00 
6.4999998e-01 -1.0000000e-01 0.0000000e+00 
7.5000000e-01 -1.0000000e-01 0.0000000e+00 
8.5000002e-01 -1.0000000e-01 0.0000000e+00 
9.4999999e-01 -1.0000000e-01 0.0000000e+00 
1.0000000e+00 -5.0000001e-02 0.0000000e+00 
8.9999998e-01 0.0000000e+00 0.0000000e+00 
8.0000001e-01 0.0000000e+00 0.0000000e+00 
6.9999999e-01 0.0000000e+00 0.0000000e+00 
6.0000002e-01 0.0000000e+00 0.0000000e+00 
5.0000000e-01 0.0000000e+00 0.0000000e+00 
4.0000001e-01 0.0000000e+00 0.0000000e+00 
3.0000001e-01 0.0000000e+00 0.0000000e+00 
2.0000000e-01 0.0000000e+00 0.0000000e+00 
1.0000000e-01 0.0000000e+00 0.0000000e+00 
9.4999999e-01 0.0000000e+00 0.0000000e+00 
8.5000002e-01 0.0000000e+00 0.0000000e+00 
7.5000000e-01 0.0000000e+00 0.0000000e+00 
6.4999998e-01 0.0000000e+00 0.0000000e+00 
5.5000001e-01 0.0000000e+00 0.0000000e+00 
4.4999999e-01 0.0000000e+00 0.0000000e+00 
3.4999999e-01 0.0000000e+00 0.0000000e+00 
2.5000000e-01 0.0000000e+00 0.0000000e+00 
1.5000001e-01 0.0000000e+00 0.0000000e+00 
5.0000001e-02 0.0000000e+00 0.0000000e+00 
0.0000000e+00 -5.0000001e-02 0.0000000e+00 
0.0000000e+00 -1.0000000e-01 1.0000000e-01 
0.0000000e+00 -1.0000000e-01 2.0000000e-01 
0.0000000e+00 -1.0000000e-01 3.0000001e-01 
0.0000000e+00 -1.0000000e-01 4.0000001e-01 
0.0000000e+00 -1.0000000e-01 5.0000000e-01 
0.0000000e+00 -1.0000000e-01 6.0000002e-01 
0.0000000e+00 -1.0000000e-01 6.9999999e-01 
0.0000000e+00 -1.0000000e-01 8.0000001e-01 
0.0000000e+00 -1.0000000e-01 8.9999998e-01 
0.0000000e+00 -1.0000000e-01 1.0000000e+00 
0.0000000e+00 -1.0000000e-01 1.1000000e+00 
0.0000000e+00 -1.0000000e-01 1.2000000e+00 
0.0000000e+00 -1.0000000e-01 1.3000000e+00 
0.0000000e+00 -1.0000000e-01 1.4000000e+00 
0.0000000e+00 -1.0000000e-01 1.5000000e+00 
0.0000000e+00 -1.0000000e-01 1.6000000e+00 
0.0000000e+00 -1.0000000e-01 1.7000000e+00 
0.0000000e+00 -1.0000000e-01 1.8000000e+00 
0.0000000e+00 -1.0000000e-01 1.9000000e+00 
0.0000000e+00 -1.0000000e-01 2.0000000e+00 
0.0000000e+00 -1.0000000e-01 2.0999999e+00 
0.0000000e+00 -1.0000000e-01 2.2000000e+00 
0.0000000e+00 -1.0000000e-01 2.3000000e+00 
0.0000000e+00 -1.0000000e-01 2.4000001e+00 
0.0000000e+00 -1.0000000e-01 2.5000000e+00 
0.0000000e+00 -1.0000000e-01 2.5999999e+00 
0.0000000e+00 -1.0000000e-01 2.7000000e+00 
0.0000000e+00 -1.0000000e-01 2.8000000e+00 
0.0000000e+00 -1.0000000e-01 2.9000001e+00 
0.0000000e+00 -1.0000000e-01 3.0000000e+00 
0.0000000e+00 -1.0000000e-01 3.0999999e+00 
0.0000000e+00 -1.0000000e-01 3.2000000e+00 
0.0000000e+00 -1.0000000e-01 3.3000000e+00 
0.0000000e+00 -1.0000000e-01 3.4000001e+00 
0.0000000e+00 -1.0000000e-01 3.5000000e+00 
0.0000000e+00 -1.0000000e-01 3.5999999e+00 
0.0000000e+00 -1.0000000e-01 3.7000000e+00 
0.0000000e+00 -1.0000000e-01 3.8000000e+00 
0.0000000e+00 -1.0000000e-01 3.9000001e+00 
0.0000000e+00 -1.0000000e-01 4.0000000e+00 
0.0000000e+00 -1.0000000e-01 4.0999999e+00 
0.0000000e+00 -1.0000000e-01 4.1999998e+00 
0.0000000e+00 -1.0000000e-01 4.3000002e+00 
0.0000000e+00 -1.0000000e-01 4.4000001e+00 
0.0000000e+00 -1.0000000e-01 4.5000000e+00 
0.0000000e+00 -1.0000000e-01 4.5999999e+00 
0.0000000e+00 -1.0000000e-01 4.6999998e+00 
0.0000000e+00 -1.0000000e-01 4.8000002e+00 
0.0000000e+00 -1.0000000e-01 4.9000001e+00 
0.0000000e+00 -1.0000000e-01 5.0000001e-02 
0.0000000e+00 -1.0000000e-01 1.5000001e-01 
0.0000000e+00 -1.0000000e-01 2.5000000e-01 
0.0000000e+00 -1.0000000e-01 3.4999999e-01 
0.0000000e+00 -1.0000000e-01 4.4999999e-01 
0.0000000e+00 -1.0000000e-01 5.5000001e-01 
0.0000000e+00 -1.0000000e-01 6.4999998e-01 
0.0000000e+00 -1.0000000e-01 7.5000000e-01 
0.0000000e+00 -1.0000000e-01 8.5000002e-01 
0.0000000e+00 -1.0000000e-01 9.4999999e-01 
0.0000000e+00 -1.0000000e-01 1.0500000e+00 
0.0000000e+00 -1.0000000e-01 1.1500000e+00 
0.0000000e+00 -1.0000000e-01 1.2500000e+00 
0.0000000e+00 -1.0000000e-01 1.3500000e+00 
0.0000000e+00 -1.0000000e-01 1.4500000e+00 
0.0000000e+00 -1.0000000e-01 1.5500000e+00 
0.0000000e+00 -1.0000000e-01 1.6500000e+00 
0.0000000e+00 -1.0000000e-01 1.7500000e+00 
0.0000000e+00 -1.0000000e-01 1.8500000e+00 
0.0000000e+00 -1.0000000e-01 1.9500000e+00 
0.0000000e+00 -1.0000000e-01 2.0500000e+00 
0.0000000e+00 -1.0000000e-01 2.1500001e+00 
0.0000000e+00 -1.0000000e-01 2.2500000e+00 
0.0000000e+00 -1.0000000e-01 2.3499999e+00 
0.0000000e+00 -1.0000000e-01 2.4500000e+00 
0.0000000e+00 -1.0000000e-01 2.5500000e+00 
0.0000000e+00 -1.0000000e-01 2.6500001e+00 
0.0000000e+00 -1.0000000e-01 2.7500000e+00 
0.0000000e+00 -1.0000000e-01 2.8499999e+00 
0.0000000e+00 -1.0000000e-01 2.9500000e+00 
0.0000000e+00 -1.0000000e-01 3.0500000e+00 
0.0000000e+00 -1.0000000e-01 3.1500001e+00 
0.0000000e+00 -1.0000000e-01 3.2500000e+00 
0.0000000e+00 -1.0000000e-01 3.3499999e+00 
0.0000000e+00 -1.0000000e-01 3.4500000e+00 
0.0000000e+00 -1.0000000e-01 3.5500000e+00 
0.0000000e+00 -1.0000000e-01 3.6500001e+00 
0.0000000e+00 -1.0000000e-01 3.7500000e+00 
0.0000000e+00 -1.0000000e-01 3.8499999e+00 
0.0000000e+00 -1.0000000e-01 3.9500000e+00 
0.0000000e+00 -1.0000000e-01 4.0500002e+00 
0.0000000e+00 -1.0000000e-01 4.1500001e+00 
0.0000000e+00 -1.0000000e-01 4.2500000e+00 
0.0000000e+00 -1.0000000e-01 4.3499999e+00 
0.0000000e+00 -1.0000000e-01 4.4499998e+00 
0.0000000e+00 -1.0000000e-01 4.5500002e+00 
0.0000000e+00 -1.0000000e-01 4.6500001e+00 
0.0000000e+00 -1.0000000e-01 4.7500000e+00 
0.0000000e+00 -1.0000000e-01 4.8499999e+00 
0.0000000e+00 -1.0000000e-01 4.9499998e+00 
1.0000000e+00 -1.0000000e-01 1.0000000e-01 
1.0000000e+00 -1.0000000e-01 2.0000000e-01 
1.0000000e+00 -1.0000000e-01 3.0000001e-01 
1.0000000e+00 -1.0000000e-01 4.0000001e-01 
1.0000000e+00 -1.0000000e-01 5.0000000e-01 
1.0000000e+00 -1.0000000e-01 6.0000002e-01 
1.0000000e+00 -1.0000000e-01 6.9999999e-01 
1.0000000e+00 -1.0000000e-01 8.0000001e-01 
1.0000000e+00 -1.0000000e-01 8.9999998e-01 
1.0000000e+00 -1.0000000e-01 1.0000000e+00 
1.0000000e+00 -1.0000000e-01 1.1000000e+00 
1.0000000e+00 -1.0000000e-01 1.2000000e+00 
1.0000000e+00 -1.0000000e-01 1.3000000e+00 
1.0000000e+00 -1.0000000e-01 1.4000000e+00 
1.0000000e+00 -1.0000000e-01 1.5000000e+00 
1.0000000e+00 -1.0000000e-01 1.6000000e+00 
1.0000000e+00 -1.0000000e-01 1.7000000e+00 
1.0000000e+00 -1.0000000e-01 1.8000000e+00 
1.0000000e+00 -1.0000000e-01 1.9000000e+00 
1.0000000e+00 -1.0000000e-01 2.0000000e+00 
1.0000000e+00 -1.0000000e-01 2.0999999e+00 
1.0000000e+00 -1.0000000e-01 2.2000000e+00 
1.0000000e+00 -1.0000000e-01 2.3000000e+00 
1.0000000e+00 -1.0000000e-01 2.4000001e+00 
1.0000000e+00 -1.0000000e-01 2.5000000e+00 
1.0000000e+00 -1.0000000e-01 2.5999999e+00 
1.0000000e+00 -1.0000000e-01 2.7000000e+00 
1.0000000e+00 -1.0000000e-01 2.8000000e+00 
1.0000000e+00 -1.0000000e-01 2.9000001e+00 
1.0000000e+00 -1.0000000e-01 3.0000000e+00 
1.0000000e+00 -1.0000000e-01 3.0999999e+00 
1.0000000e+00 -1.0000000e-01 3.2000000e+00 
1.0000000e+00 -1.0000000e-01 3.3000000e+00 
1.0000000e+00 -1.0000000e-01 3.4000001e+00 
1.0000000e+00 -1.0000000e-01 3.5000000e+00 
1.0000000e+00 -1.0000000e-01 3.5999999e+00 
1.0000000e+00 -1.0000000e-01 3.7000000e+00 
1.0000000e+00 -1.0000000e-01 3.8000000e+00 
1.0000000e+00 -1.0000000e-01 3.9000001e+00 
1.0000000e+00 -1.0000000e-01 4.0000000e+00 
1.0000000e+00 -1.0000000e-01 4.0999999e+00 
1.0000000e+00 -1.0000000e-01 4.1999998e+00 
1.0000000e+00 -1.0000000e-01 4.3000002e+00 
1.0000000e+00 -1.0000000e-01 4.4000001e+00 
1.0000000e+00 -1.0000000e-01 4.5000000e+00 
1.0000000e+00 -1.0000000e-01 4.5999999e+00 
1.0000000e+00 -1.0000000e-01 4.6999998e+00 
1.0000000e+00 -1.0000000e-01 4.8000002e+00 
1.0000000e+00 -1.0000000e-01 4.9000001e+00 
1.0000000e+00 -1.0000000e-01 5.0000001e-02 
1.0000000e+00 -1.0000000e-01 1.5000001e-01 
1.0000000e+00 -1.0000000e-01 2.5000000e-01 
1.0000000e+00 -1.0000000e-01 3.4999999e-01 
1.0000000e+00 -1.0000000e-01 4.4999999e-01 
1.0000000e+00 -1.0000000e-01 5.5000001e-01 
1.0000000e+00 -1.0000000e-01 6.4999998e-01 
1.0000000e+00 -1.0000000e-01 7.5000000e-01 
1.0000000e+00 -1.0000000e-01 8.5000002e-01 
1.0000000e+00 -1.0000000e-01 9.4999999e-01 
1.0000000e+00 -1.0000000e-01 1.0500000e+00 
1.0000000e+00 -1.0000000e-01 1.1500000e+00 
1.0000000e+00 -1.0000000e-01 1.2500000e+00 
1.0000000e+00 -1.0000000e-01 1.3500000e+00 
1.0000000e+00 -1.0000000e-01 1.4500000e+00 
1.0000000e+00 -1.0000000e-01 1.5500000e+00 
1.0000000e+00 -1.0000000e-01 1.6500000e+00 
1.0000000e+00 -1.0000000e-01 1.7500000e+00 
1.0000000e+00 -1.0000000e-01 1.8500000e+00 
1.0000000e+00 -1.0000000e-01 1.9500000e+00 
1.0000000e+00 -1.0000000e-01 2.0500000e+00 
1.0000000e+00 -1.0000000e-01 2.1500001e+00 
1.0000000e+00 -1.0000000e-01 2.2500000e+00 
1.0000000e+00 -1.0000000e-01 2.3499999e+00 
1.0000000e+00 -1.0000000e-01 2.4500000e+00 
1.0000000e+00 -1.0000000e-01 2.5500000e+00 
1.0000000e+00 -1.0000000e-01 2.6500001e+00 
1.0000000e+00 -1.0000000e-01 2.7500000e+00 
1.0000000e+00 -1.0000000e-01 2.8499999e+00 
[...]
POINT_DATA 8418
FIELD FieldData 1
DISPLACEMENT 3 8418  float
0.0000000e+00 0.0000000e+00 0.0000000e+00 
0.0000000e+00 0.0000000e+00 0.0000000e+00 
0.0000000e+00 0.0000000e+00 0.0000000e+00 
0.0000000e+00 0.0000000e+00 0.0000000e+00 
0.0000000e+00 0.0000000e+00 0.0000000e+00 
0.0000000e+00 0.0000000e+00 0.0000000e+00 
0.0000000e+00 0.0000000e+00 0.0000000e+00 
0.0000000e+00 0.0000000e+00 0.0000000e+00 
0.0000000e+00 0.0000000e+00 0.0000000e+00 
0.0000000e+00 0.0000000e+00 0.0000000e+00 
0.0000000e+00 0.0000000e+00 0.0000000e+00 
0.0000000e+00 0.0000000e+00 0.0000000e+00 
0.0000000e+00 0.0000000e+00 0.0000000e+00 
0.0000000e+00 0.0000000e+00 0.0000000e+00 
0.0000000e+00 0.0000000e+00 0.0000000e+00 
0.0000000e+00 0.0000000e+00 0.0000000e+00 
0.0000000e+00 0.0000000e+00 0.0000000e+00 
0.0000000e+00 0.0000000e+00 0.0000000e+00 
0.0000000e+00 0.0000000e+00 0.0000000e+00 
0.0000000e+00 0.0000000e+00 0.0000000e+00 
0.0000000e+00 0.0000000e+00 0.0000000e+00 
0.0000000e+00 0.0000000e+00 0.0000000e+00 
0.0000000e+00 0.0000000e+00 0.0000000e+00 
0.0000000e+00 0.0000000e+00 0.0000000e+00 
0.0000000e+00 0.0000000e+00 0.0000000e+00 
0.0000000e+00 0.0000000e+00 0.0000000e+00 
0.0000000e+00 0.0000000e+00 0.0000000e+00 
0.0000000e+00 0.0000000e+00 0.0000000e+00 
0.0000000e+00 0.0000000e+00 0.0000000e+00 
0.0000000e+00 0.0000000e+00 0.0000000e+00 
0.0000000e+00 0.0000000e+00 0.0000000e+00 
0.0000000e+00 0.0000000e+00 0.0000000e+00 
0.0000000e+00 0.0000000e+00 0.0000000e+00 
0.0000000e+00 0.0000000e+00 0.0000000e+00 
0.0000000e+00 0.0000000e+00 0.0000000e+00 
0.0000000e+00 0.0000000e+00 0.0000000e+00 
0.0000000e+00 0.0000000e+00 0.0000000e+00 
0.0000000e+00 0.0000000e+00 0.0000000e+00 
0.0000000e+00 0.0000000e+00 0.0000000e+00 
0.0000000e+00 0.0000000e+00 0.0000000e+00 
0.0000000e+00 0.0000000e+00 0.0000000e+00 
0.0000000e+00 0.0000000e+00 0.0000000e+00 
0.0000000e+00 0.0000000e+00 0.0000000e+00 
0.0000000e+00 0.0000000e+00 0.0000000e+00 
0.0000000e+00 0.0000000e+00 0.0000000e+00 
0.0000000e+00 0.0000000e+00 0.0000000e+00 
0.0000000e+00 0.0000000e+00 0.0000000e+00 
0.0000000e+00 0.0000000e+00 0.0000000e+00 
0.0000000e+00 0.0000000e+00 0.0000000e+00 
0.0000000e+00 0.0000000e+00 0.0000000e+00 
0.0000000e+00 0.0000000e+00 0.0000000e+00 
0.0000000e+00 0.0000000e+00 0.0000000e+00 
0.0000000e+00 0.0000000e+00 0.0000000e+00 
0.0000000e+00 0.0000000e+00 0.0000000e+00 
0.0000000e+00 0.0000000e+00 0.0000000e+00 
0.0000000e+00 0.0000000e+00 0.0000000e+00 
0.0000000e+00 0.0000000e+00 0.0000000e+00 
0.0000000e+00 0.0000000e+00 0.0000000e+00 
0.0000000e+00 0.0000000e+00 0.0000000e+00 
0.0000000e+00 0.0000000e+00 0.0000000e+00 
0.0000000e+00 0.0000000e+00 0.0000000e+00 
0.0000000e+00 0.0000000e+00 0.0000000e+00 
0.0000000e+00 0.0000000e+00 0.0000000e+00 
0.0000000e+00 0.0000000e+00 0.0000000e+00 
0.0000000e+00 0.0000000e+00 0.0000000e+00 
0.0000000e+00 0.0000000e+00 0.0000000e+00 
0.0000000e+00 0.0000000e+00 0.0000000e+00 
0.0000000e+00 0.0000000e+00 0.0000000e+00 
0.0000000e+00 0.0000000e+00 0.0000000e+00 
0.0000000e+00 0.0000000e+00 0.0000000e+00 
0.0000000e+00 0.0000000e+00 0.0000000e+00 
0.0000000e+00 0.0000000e+00 0.0000000e+00 
0.0000000e+00 0.0000000e+00 0.0000000e+00 
0.0000000e+00 0.0000000e+00 0.0000000e+00 
0.0000000e+00 0.0000000e+00 0.0000000e+00 
0.0000000e+00 0.0000000e+00 0.0000000e+00 
0.0000000e+00 0.0000000e+00 0.0000000e+00 
0.0000000e+00 0.0000000e+00 0.0000000e+00 
0.0000000e+00 0.0000000e+00 0.0000000e+00 
0.0000000e+00 0.0000000e+00 0.0000000e+00 
0.0000000e+00 0.0000000e+00 0.0000000e+00 
0.0000000e+00 0.0000000e+00 0.0000000e+00 
0.0000000e+00 0.0000000e+00 0.0000000e+00 
0.0000000e+00 0.0000000e+00 0.0000000e+00 
0.0000000e+00 0.0000000e+00 0.0000000e+00 
0.0000000e+00 0.0000000e+00 0.0000000e+00 
0.0000000e+00 0.0000000e+00 0.0000000e+00 
0.0000000e+00 0.0000000e+00 0.0000000e+00 
0.0000000e+00 0.0000000e+00 0.0000000e+00 
0.0000000e+00 0.0000000e+00 0.0000000e+00 
0.0000000e+00 0.0000000e+00 0.0000000e+00 
0.0000000e+00 0.0000000e+00 0.0000000e+00 
0.0000000e+00 0.0000000e+00 0.0000000e+00 
0.0000000e+00 0.0000000e+00 0.0000000e+00 
0.0000000e+00 0.0000000e+00 0.0000000e+00 
0.0000000e+00 0.0000000e+00 0.0000000e+00 
0.0000000e+00 0.0000000e+00 0.0000000e+00 
0.0000000e+00 0.0000000e+00 0.0000000e+00 
0.0000000e+00 0.0000000e+00 0.0000000e+00 
0.0000000e+00 0.0000000e+00 0.0000000e+00 
0.0000000e+00 0.0000000e+00 0.0000000e+00 
0.0000000e+00 0.0000000e+00 0.0000000e+00 
0.0000000e+00 0.0000000e+00 0.0000000e+00 
0.0000000e+00 0.0000000e+00 0.0000000e+00 
0.0000000e+00 0.0000000e+00 0.0000000e+00 
0.0000000e+00 0.0000000e+00 0.0000000e+00 
0.0000000e+00 0.0000000e+00 0.0000000e+00 
0.0000000e+00 0.0000000e+00 0.0000000e+00 
0.0000000e+00 0.0000000e+00 0.0000000e+00 
0.0000000e+00 0.0000000e+00 0.0000000e+00 
0.0000000e+00 0.0000000e+00 0.0000000e+00 
0.0000000e+00 0.0000000e+00 0.0000000e+00 
0.0000000e+00 0.0000000e+00 0.0000000e+00 
0.0000000e+00 0.0000000e+00 0.0000000e+00 
0.0000000e+00 0.0000000e+00 0.0000000e+00 
0.0000000e+00 0.0000000e+00 0.0000000e+00 
0.0000000e+00 0.0000000e+00 0.0000000e+00 
0.0000000e+00 0.0000000e+00 0.0000000e+00 
0.0000000e+00 0.0000000e+00 0.0000000e+00 
0.0000000e+00 0.0000000e+00 0.0000000e+00 
0.0000000e+00 0.0000000e+00 0.0000000e+00 
0.0000000e+00 0.0000000e+00 0.0000000e+00 
0.0000000e+00 0.0000000e+00 0.0000000e+00 
0.0000000e+00 0.0000000e+00 0.0000000e+00 
0.0000000e+00 0.0000000e+00 0.0000000e+00 
0.0000000e+00 0.0000000e+00 0.0000000e+00 
0.0000000e+00 0.0000000e+00 0.0000000e+00 
0.0000000e+00 0.0000000e+00 0.0000000e+00 
0.0000000e+00 0.0000000e+00 0.0000000e+00 
0.0000000e+00 0.0000000e+00 0.0000000e+00 
0.0000000e+00 0.0000000e+00 0.0000000e+00 
0.0000000e+00 0.0000000e+00 0.0000000e+00 
0.0000000e+00 0.0000000e+00 0.0000000e+00 
0.0000000e+00 0.0000000e+00 0.0000000e+00 
0.0000000e+00 0.0000000e+00 0.0000000e+00 
0.0000000e+00 0.0000000e+00 0.0000000e+00 
0.0000000e+00 0.0000000e+00 0.0000000e+00 
0.0000000e+00 0.0000000e+00 0.0000000e+00 
0.0000000e+00 0.0000000e+00 0.0000000e+00 
0.0000000e+00 0.0000000e+00 0.0000000e+00 
0.0000000e+00 0.0000000e+00 0.0000000e+00 
0.0000000e+00 0.0000000e+00 0.0000000e+00 
0.0000000e+00 0.0000000e+00 0.0000000e+00 
0.0000000e+00 0.0000000e+00 0.0000000e+00 
0.0000000e+00 0.0000000e+00 0.0000000e+00 
0.0000000e+00 0.0000000e+00 0.0000000e+00 
0.0000000e+00 0.0000000e+00 0.0000000e+00 
0.0000000e+00 0.0000000e+00 0.0000000e+00 
0.0000000e+00 0.0000000e+00 0.0000000e+00 
0.0000000e+00 0.0000000e+00 0.0000000e+00 
0.0000000e+00 0.0000000e+00 0.0000000e+00 
0.0000000e+00 0.0000000e+00 0.0000000e+00 
0.0000000e+00 0.0000000e+00 0.0000000e+00 
0.0000000e+00 0.0000000e+00 0.0000000e+00 
0.0000000e+00 0.0000000e+00 0.0000000e+00 
0.0000000e+00 0.0000000e+00 0.0000000e+00 
0.0000000e+00 0.0000000e+00 0.0000000e+00 
0.0000000e+00 0.0000000e+00 0.0000000e+00 
0.0000000e+00 0.0000000e+00 0.0000000e+00 
0.0000000e+00 0.0000000e+00 0.0000000e+00 
0.0000000e+00 0.0000000e+00 0.0000000e+00 
0.0000000e+00 0.0000000e+00 0.0000000e+00 
0.0000000e+00 0.0000000e+00 0.0000000e+00 
0.0000000e+00 0.0000000e+00 0.0000000e+00 
0.0000000e+00 0.0000000e+00 0.0000000e+00 
0.0000000e+00 0.0000000e+00 0.0000000e+00 
0.0000000e+00 0.0000000e+00 0.0000000e+00 
0.0000000e+00 0.0000000e+00 0.0000000e+00 
0.0000000e+00 0.0000000e+00 0.0000000e+00 
0.0000000e+00 0.0000000e+00 0.0000000e+00 
0.0000000e+00 0.0000000e+00 0.0000000e+00 
0.0000000e+00 0.0000000e+00 0.0000000e+00 
0.0000000e+00 0.0000000e+00 0.0000000e+00 
0.0000000e+00 0.0000000e+00 0.0000000e+00 
0.0000000e+00 0.0000000e+00 0.0000000e+00 
0.0000000e+00 0.0000000e+00 0.0000000e+00 
0.0000000e+00 0.0000000e+00 0.0000000e+00 
0.0000000e+00 0.0000000e+00 0.0000000e+00 
0.0000000e+00 0.0000000e+00 0.0000000e+00 
0.0000000e+00 0.0000000e+00 0.0000000e+00 
0.0000000e+00 0.0000000e+00 0.0000000e+00 
0.0000000e+00 0.0000000e+00 0.0000000e+00 
0.0000000e+00 0.0000000e+00 0.0000000e+00 
0.0000000e+00 0.0000000e+00 0.0000000e+00 
0.0000000e+00 0.0000000e+00 0.0000000e+00 
0.0000000e+00 0.0000000e+00 0.0000000e+00 
0.0000000e+00 0.0000000e+00 0.0000000e+00 
0.0000000e+00 0.0000000e+00 0.0000000e+00 
0.0000000e+00 0.0000000e+00 0.0000000e+00 
0.0000000e+00 0.0000000e+00 0.0000000e+00 
0.0000000e+00 0.0000000e+00 0.0000000e+00 
0.0000000e+00 0.0000000e+00 0.0000000e+00 
0.0000000e+00 0.0000000e+00 0.0000000e+00 
0.0000000e+00 0.0000000e+00 0.0000000e+00 
0.0000000e+00 0.0000000e+00 0.0000000e+00 
0.0000000e+00 0.0000000e+00 0.0000000e+00 
0.0000000e+00 0.0000000e+00 0.0000000e+00 
0.0000000e+00 0.0000000e+00 0.0000000e+00 
0.0000000e+00 0.0000000e+00 0.0000000e+00 
0.0000000e+00 0.0000000e+00 0.0000000e+00 
0.0000000e+00 0.0000000e+00 0.0000000e+00 
0.0000000e+00 0.0000000e+00 0.0000000e+00 
0.0000000e+00 0.0000000e+00 0.0000000e+00 
0.0000000e+00 0.0000000e+00 0.0000000e+00 
0.0000000e+00 0.0000000e+00 0.0000000e+00 
0.0000000e+00 0.0000000e+00 0.0000000e+00 
0.0000000e+00 0.0000000e+00 0.0000000e+00 
0.0000000e+00 0.0000000e+00 0.0000000e+00 
0.0000000e+00 0.0000000e+00 0.0000000e+00 
0.0000000e+00 0.0000000e+00 0.0000000e+00 
0.0000000e+00 0.0000000e+00 0.0000000e+00 
0.0000000e+00 0.0000000e+00 0.0000000e+00 
0.0000000e+00 0.0000000e+00 0.0000000e+00 
0.0000000e+00 0.0000000e+00 0.0000000e+00 
0.0000000e+00 0.0000000e+00 0.0000000e+00 
0.0000000e+00 0.0000000e+00 0.0000000e+00 
0.0000000e+00 0.0000000e+00 0.0000000e+00 
0.0000000e+00 0.0000000e+00 0.0000000e+00 
0.0000000e+00 0.0000000e+00 0.0000000e+00 
0.0000000e+00 0.0000000e+00 0.0000000e+00 
0.0000000e+00 0.0000000e+00 0.0000000e+00 
0.0000000e+00 0.0000000e+00 0.0000000e+00 
0.0000000e+00 0.0000000e+00 0.0000000e+00 
0.0000000e+00 0.0000000e+00 0.0000000e+00 
0.0000000e+00 0.0000000e+00 0.0000000e+00 
0.0000000e+00 0.0000000e+00 0.0000000e+00 
0.0000000e+00 0.0000000e+00 0.0000000e+00 
0.0000000e+00 0.0000000e+00 0.0000000e+00 
0.0000000e+00 0.0000000e+00 0.0000000e+00 
0.0000000e+00 0.0000000e+00 0.0000000e+00 
0.0000000e+00 0.0000000e+00 0.0000000e+00 
0.0000000e+00 0.0000000e+00 0.0000000e+00 
0.0000000e+00 0.0000000e+00 0.0000000e+00 
0.0000000e+00 0.0000000e+00 0.0000000e+00 
0.0000000e+00 0.0000000e+00 0.0000000e+00 
0.0000000e+00 0.0000000e+00 0.0000000e+00 
0.0000000e+00 0.0000000e+00 0.0000000e+00 
0.0000000e+00 0.0000000e+00 0.0000000e+00 
0.0000000e+00 0.0000000e+00 0.0000000e+00 
0.0000000e+00 0.0000000e+00 0.0000000e+00 
0.0000000e+00 0.0000000e+00 0.0000000e+00 
0.0000000e+00 0.0000000e+00 0.0000000e+00 
0.0000000e+00 0.0000000e+00 0.0000000e+00 
0.0000000e+00 0.0000000e+00 0.0000000e+00 
0.0000000e+00 0.0000000e+00 0.0000000e+00 
0.0000000e+00 0.0000000e+00 0.0000000e+00 
0.0000000e+00 0.0000000e+00 0.0000000e+00 
0.0000000e+00 0.0000000e+00 0.0000000e+00 
0.0000000e+00 0.0000000e+00 0.0000000e+00 
0.0000000e+00 0.0000000e+00 0.0000000e+00 
0.0000000e+00 0.0000000e+00 0.0000000e+00 
0.0000000e+00 0.0000000e+00 0.0000000e+00 
0.0000000e+00 0.0000000e+00 0.0000000e+00 
0.0000000e+00 0.0000000e+00 0.0000000e+00 
0.0000000e+00 0.0000000e+00 0.0000000e+00 
0.0000000e+00 0.0000000e+00 0.0000000e+00 
0.0000000e+00 0.0000000e+00 0.0000000e+00 
0.0000000e+00 0.0000000e+00 0.0000000e+00 
0.0000000e+00 0.0000000e+00 0.0000000e+00 
0.0000000e+00 0.0000000e+00 0.0000000e+00 
0.0000000e+00 0.0000000e+00 0.0000000e+00 
0.0000000e+00 0.0000000e+00 0.0000000e+00 
0.0000000e+00 0.0000000e+00 0.0000000e+00 
0.0000000e+00 0.0000000e+00 0.0000000e+00 
0.0000000e+00 0.0000000e+00 0.0000000e+00 
0.0000000e+00 0.0000000e+00 0.0000000e+00 
0.0000000e+00 0.0000000e+00 0.0000000e+00 
0.0000000e+00 0.0000000e+00 0.0000000e+00 
0.0000000e+00 0.0000000e+00 0.0000000e+00 
0.0000000e+00 0.0000000e+00 0.0000000e+00 
0.0000000e+00 0.0000000e+00 0.0000000e+00 
0.0000000e+00 0.0000000e+00 0.0000000e+00 
0.0000000e+00 0.0000000e+00 0.0000000e+00 
0.0000000e+00 0.0000000e+00 0.0000000e+00 
0.0000000e+00 0.0000000e+00 0.0000000e+00 
0.0000000e+00 0.0000000e+00 0.0000000e+00 
0.0000000e+00 0.0000000e+00 0.0000000e+00 
0.0000000e+00 0.0000000e+00 0.0000000e+00 
0.0000000e+00 0.0000000e+00 0.0000000e+00 
0.0000000e+00 0.0000000e+00 0.0000000e+00 
0.0000000e+00 0.0000000e+00 0.0000000e+00 
0.0000000e+00 0.0000000e+00 0.0000000e+00 
0.0000000e+00 0.0000000e+00 0.0000000e+00 
0.0000000e+00 0.0000000e+00 0.0000000e+00 
0.0000000e+00 0.0000000e+00 0.0000000e+00 
0.0000000e+00 0.0000000e+00 0.0000000e+00 
0.0000000e+00 0.0000000e+00 0.0000000e+00 
0.0000000e+00 0.0000000e+00 0.0000000e+00 
0.0000000e+00 0.0000000e+00 0.0000000e+00 
0.0000000e+00 0.0000000e+00 0.0000000e+00 
0.0000000e+00 0.0000000e+00 0.0000000e+00 
0.0000000e+00 0.0000000e+00 0.0000000e+00 
0.0000000e+00 0.0000000e+00 0.0000000e+00 
0.0000000e+00 0.0000000e+00 0.0000000e+00 
0.0000000e+00 0.0000000e+00 0.0000000e+00 
0.0000000e+00 0.0000000e+00 0.0000000e+00 
0.0000000e+00 0.0000000e+00 0.0000000e+00 
0.0000000e+00 0.0000000e+00 0.0000000e+00 
0.0000000e+00 0.0000000e+00 0.0000000e+00 
0.0000000e+00 0.0000000e+00 0.0000000e+00 
0.0000000e+00 0.0000000e+00 0.0000000e+00 
0.0000000e+00 0.0000000e+00 0.0000000e+00 
0.0000000e+00 0.0000000e+00 0.0000000e+00 
0.0000000e+00 0.0000000e+00 0.0000000e+00 
0.0000000e+00 0.0000000e+00 0.0000000e+00 
0.0000000e+00 0.0000000e+00 0.0000000e+00 
0.0000000e+00 0.0000000e+00 0.0000000e+00 
0.0000000e+00 0.0000000e+00 0.0000000e+00 
0.0000000e+00 0.0000000e+00 0.0000000e+00 
0.0000000e+00 0.0000000e+00 0.0000000e+00 
0.0000000e+00 0.0000000e+00 0.0000000e+00 
0.0000000e+00 0.0000000e+00 0.0000000e+00 
0.0000000e+00 0.0000000e+00 0.0000000e+00 
0.0000000e+00 0.0000000e+00 0.0000000e+00 
0.0000000e+00 0.0000000e+00 0.0000000e+00 
0.0000000e+00 0.0000000e+00 0.0000000e+00 
0.0000000e+00 0.0000000e+00 0.0000000e+00 
0.0000000e+00 0.0000000e+00 0.0000000e+00 
0.0000000e+00 0.0000000e+00 0.0000000e+00 
0.0000000e+00 0.0000000e+00 0.0000000e+00 
0.0000000e+00 0.0000000e+00 0.0000000e+00 
0.0000000e+00 0.0000000e+00 0.0000000e+00 
0.0000000e+00 0.0000000e+00 0.0000000e+00 
0.0000000e+00 0.0000000e+00 0.0000000e+00 
0.0000000e+00 0.0000000e+00 0.0000000e+00 
0.0000000e+00 0.0000000e+00 0.0000000e+00 
0.0000000e+00 0.0000000e+00 0.0000000e+00 
0.0000000e+00 0.0000000e+00 0.0000000e+00 
0.0000000e+00 0.0000000e+00 0.0000000e+00 
0.0000000e+00 0.0000000e+00 0.0000000e+00 
0.0000000e+00 0.0000000e+00 0.0000000e+00 
0.0000000e+00 0.0000000e+00 0.0000000e+00 
0.0000000e+00 0.0000000e+00 0.0000000e+00 
0.0000000e+00 0.0000000e+00 0.0000000e+00 
0.0000000e+00 0.0000000e+00 0.0000000e+00 
0.0000000e+00 0.0000000e+00 0.0000000e+00 
0.0000000e+00 0.0000000e+00 0.0000000e+00 
0.0000000e+00 0.0000000e+00 0.0000000e+00 
0.0000000e+00 0.0000000e+00 0.0000000e+00 
0.0000000e+00 0.0000000e+00 0.0000000e+00 
0.0000000e+00 0.0000000e+00 0.0000000e+00 
0.0000000e+00 0.0000000e+00 0.0000000e+00 
0.0000000e+00 0.0000000e+00 0.0000000e+00 
0.0000000e+00 0.0000000e+00 0.0000000e+00 
0.0000000e+00 0.0000000e+00 0.0000000e+00 
0.0000000e+00 0.0000000e+00 0.0000000e+00 
0.0000000e+00 0.0000000e+00 0.0000000e+00 
0.0000000e+00 0.0000000e+00 0.0000000e+00 
0.0000000e+00 0.0000000e+00 0.0000000e+00 
0.0000000e+00 0.0000000e+00 0.0000000e+00 
0.0000000e+00 0.0000000e+00 0.0000000e+00 
0.0000000e+00 0.0000000e+00 0.0000000e+00 
0.0000000e+00 0.0000000e+00 0.0000000e+00 
0.0000000e+00 0.0000000e+00 0.0000000e+00 
0.0000000e+00 0.0000000e+00 0.0000000e+00 
0.0000000e+00 0.0000000e+00 0.0000000e+00 
0.0000000e+00 0.0000000e+00 0.0000000e+00 
0.0000000e+00 0.0000000e+00 0.0000000e+00 
0.0000000e+00 0.0000000e+00 0.0000000e+00 
0.0000000e+00 0.0000000e+00 0.0000000e+00 
0.0000000e+00 0.0000000e+00 0.0000000e+00 
0.0000000e+00 0.0000000e+00 0.0000000e+00 
0.0000000e+00 0.0000000e+00 0.0000000e+00 
0.0000000e+00 0.0000000e+00 0.0000000e+00 
0.0000000e+00 0.0000000e+00 0.0000000e+00 
0.0000000e+00 -2.2873584e-04 0.0000000e+00 
0.0000000e+00 -4.5493152e-04 0.0000000e+00 
0.0000000e+00 -6.7604519e-04 0.0000000e+00 
0.0000000e+00 -8.8953128e-04 0.0000000e+00 
0.0000000e+00 -1.0928392e-03 0.0000000e+00 
0.0000000e+00 -1.2834112e-03 0.0000000e+00 
0.0000000e+00 -1.4586818e-03 0.0000000e+00 
0.0000000e+00 -1.6168314e-03 0.0000000e+00 
0.0000000e+00 -1.7582092e-03 0.0000000e+00 
0.0000000e+00 -1.8835424e-03 0.0000000e+00 
0.0000000e+00 -1.9935442e-03 0.0000000e+00 
0.0000000e+00 -2.0889123e-03 0.0000000e+00 
0.0000000e+00 -2.1703285e-03 0.0000000e+00 
0.0000000e+00 -2.2384585e-03 0.0000000e+00 
0.0000000e+00 -2.2939506e-03 0.0000000e+00 
0.0000000e+00 -2.3374357e-03 0.0000000e+00 
0.0000000e+00 -2.3695270e-03 0.0000000e+00 
0.0000000e+00 -2.3908191e-03 0.0000000e+00 
0.0000000e+00 -2.4018893e-03 0.0000000e+00 
0.0000000e+00 -2.4032954e-03 0.0000000e+00 
0.0000000e+00 -2.3955773e-03 0.0000000e+00 
0.0000000e+00 -2.3792556e-03 0.0000000e+00 
0.0000000e+00 -2.3548314e-03 0.0000000e+00 
0.0000000e+00 -2.3227867e-03 0.0000000e+00 
0.0000000e+00 -2.2835855e-03 0.0000000e+00 
0.0000000e+00 -2.2376725e-03 0.0000000e+00 
0.0000000e+00 -2.1854737e-03 0.0000000e+00 
0.0000000e+00 -2.1273976e-03 0.0000000e+00 
0.0000000e+00 -2.0638353e-03 0.0000000e+00 
0.0000000e+00 -1.9951607e-03 0.0000000e+00 
0.0000000e+00 -1.9217313e-03 0.0000000e+00 
0.0000000e+00 -1.8438885e-03 0.0000000e+00 
0.0000000e+00 -1.7619585e-03 0.0000000e+00 
0.0000000e+00 -1.6762526e-03 0.0000000e+00 
0.0000000e+00 -1.5870687e-03 0.0000000e+00 
0.0000000e+00 -1.4946910e-03 0.0000000e+00 
0.0000000e+00 -1.3993916e-03 0.0000000e+00 
0.0000000e+00 -1.3014302e-03 0.0000000e+00 
0.0000000e+00 -1.2010554e-03 0.0000000e+00 
0.0000000e+00 -1.0985056e-03 0.0000000e+00 
0.0000000e+00 -9.9400920e-04 0.0000000e+00 
0.0000000e+00 -8.8778610e-04 0.0000000e+00 
0.0000000e+00 -7.8004802e-04 0.0000000e+00 
0.0000000e+00 -6.7099975e-04 0.0000000e+00 
0.0000000e+00 -5.6083989e-04 0.0000000e+00 
0.0000000e+00 -4.4976192e-04 0.0000000e+00 
0.0000000e+00 -3.3795476e-04 0.0000000e+00 
0.0000000e+00 -2.2560387e-04 0.0000000e+00 
0.0000000e+00 -1.1289197e-04 0.0000000e+00 
0.0000000e+00 -1.1452666e-04 0.0000000e+00 
0.0000000e+00 -3.4231000e-04 0.0000000e+00 
0.0000000e+00 -5.6628260e-04 0.0000000e+00 
0.0000000e+00 -7.8390096e-04 0.0000000e+00 
0.0000000e+00 -9.9261722e-04 0.0000000e+00 
0.0000000e+00 -1.1898773e-03 0.0000000e+00 
0.0000000e+00 -1.3731197e-03 0.0000000e+00 
0.0000000e+00 -1.5398992e-03 0.0000000e+00 
0.0000000e+00 -1.6895710e-03 0.0000000e+00 
0.0000000e+00 -1.8228363e-03 0.0000000e+00 
0.0000000e+00 -1.9404157e-03 0.0000000e+00 
0.0000000e+00 -2.0430144e-03 0.0000000e+00 
0.0000000e+00 -2.1313224e-03 0.0000000e+00 
0.0000000e+00 -2.2060133e-03 0.0000000e+00 
0.0000000e+00 -2.2677444e-03 0.0000000e+00 
0.0000000e+00 -2.3171552e-03 0.0000000e+00 
0.0000000e+00 -2.3548680e-03 0.0000000e+00 
0.0000000e+00 -2.3814866e-03 0.0000000e+00 
0.0000000e+00 -2.3975966e-03 0.0000000e+00 
0.0000000e+00 -2.4037661e-03 0.0000000e+00 
0.0000000e+00 -2.4005438e-03 0.0000000e+00 
0.0000000e+00 -2.3884601e-03 0.0000000e+00 
0.0000000e+00 -2.3680257e-03 0.0000000e+00 
0.0000000e+00 -2.3397321e-03 0.0000000e+00 
0.0000000e+00 -2.3040525e-03 0.0000000e+00 
0.0000000e+00 -2.2614410e-03 0.0000000e+00 
0.0000000e+00 -2.2123328e-03 0.0000000e+00 
0.0000000e+00 -2.1571454e-03 0.0000000e+00 
0.0000000e+00 -2.0962784e-03 0.0000000e+00 
0.0000000e+00 -2.0301142e-03 0.0000000e+00 
0.0000000e+00 -1.9590186e-03 0.0000000e+00 
0.0000000e+00 -1.8833409e-03 0.0000000e+00 
0.0000000e+00 -1.8034145e-03 0.0000000e+00 
0.0000000e+00 -1.7195585e-03 0.0000000e+00 
0.0000000e+00 -1.6320773e-03 0.0000000e+00 
0.0000000e+00 -1.5412618e-03 0.0000000e+00 
0.0000000e+00 -1.4473901e-03 0.0000000e+00 
0.0000000e+00 -1.3507279e-03 0.0000000e+00 
0.0000000e+00 -1.2515293e-03 0.0000000e+00 
0.0000000e+00 -1.1500379e-03 0.0000000e+00 
0.0000000e+00 -1.0464868e-03 0.0000000e+00 
0.0000000e+00 -9.4110006e-04 0.0000000e+00 
0.0000000e+00 -8.3409343e-04 0.0000000e+00 
0.0000000e+00 -7.2567508e-04 0.0000000e+00 
0.0000000e+00 -6.1604660e-04 0.0000000e+00 
0.0000000e+00 -5.0540379e-04 0.0000000e+00 
0.0000000e+00 -3.9393781e-04 0.0000000e+00 