# vtk DataFile Version 4.0
vtk output
ASCII
DATASET UNSTRUCTURED_GRID
POINTS 22 float
0.0000000e+00 0.0000000e+00 0.0000000e+00 
1.0000000e+00 0.0000000e+00 0.0000000e+00 
1.0000000e+00 1.0000000e+01 0.0000000e+00 
0.0000000e+00 1.0000000e+01 0.0000000e+00 
1.0000000e+00 1.0000000e+00 0.0000000e+00 
1.0000000e+00 2.0000000e+00 0.0000000e+00 
1.0000000e+00 3.0000000e+00 0.0000000e+00 
1.0000000e+00 4.0000000e+00 0.0000000e+00 
1.0000000e+00 5.0000000e+00 0.0000000e+00 
1.0000000e+00 6.0000000e+00 0.0000000e+00 
1.0000000e+00 7.0000000e+00 0.0000000e+00 
1.0000000e+00 8.0000000e+00 0.0000000e+00 
1.0000000e+00 9.0000000e+00 0.0000000e+00 
0.0000000e+00 9.0000000e+00 0.0000000e+00 
0.0000000e+00 8.0000000e+00 0.0000000e+00 
0.0000000e+00 7.0000000e+00 0.0000000e+00 
0.0000000e+00 6.0000000e+00 0.0000000e+00 
0.0000000e+00 5.0000000e+00 0.0000000e+00 
0.0000000e+00 4.0000000e+00 0.0000000e+00 
0.0000000e+00 3.0000000e+00 0.0000000e+00 
0.0000000e+00 2.0000000e+00 0.0000000e+00 
0.0000000e+00 1.0000000e+00 0.0000000e+00 

CELLS 10 50
4 0 1 4 21
4 21 4 5 20
4 20 5 6 19
4 19 6 7 18
4 18 7 8 17
4 17 8 9 16
4 16 9 10 15
4 15 10 11 14
4 14 11 12 13
4 13 12 2 3

CELL_TYPES 10
9
9
9
9
9
9
9
9
9
9
POINT_DATA 22
FIELD FieldData 2
DISPLACEMENT 3 22  float
0.0000000e+00 -2.2564327e-06 0.0000000e+00 
0.0000000e+00 -2.2564327e-06 0.0000000e+00 
0.0000000e+00 -3.1626535e-06 0.0000000e+00 
0.0000000e+00 -3.1626535e-06 0.0000000e+00 
0.0000000e+00 -2.3475916e-06 0.0000000e+00 
0.0000000e+00 -2.4386870e-06 0.0000000e+00 
0.0000000e+00 -2.5302654e-06 0.0000000e+00 
0.0000000e+00 -2.6211567e-06 0.0000000e+00 
0.0000000e+00 -2.7112242e-06 0.0000000e+00 
0.0000000e+00 -2.8018801e-06 0.0000000e+00 
0.0000000e+00 -2.8923864e-06 0.0000000e+00 
0.0000000e+00 -2.9824230e-06 0.0000000e+00 
0.0000000e+00 -3.0728620e-06 0.0000000e+00 
0.0000000e+00 -3.0728620e-06 0.0000000e+00 
0.0000000e+00 -2.9824230e-06 0.0000000e+00 
0.0000000e+00 -2.8923864e-06 0.0000000e+00 
0.0000000e+00 -2.8018801e-06 0.0000000e+00 
0.0000000e+00 -2.7112242e-06 0.0000000e+00 
0.0000000e+00 -2.6211567e-06 0.0000000e+00 
0.0000000e+00 -2.5302654e-06 0.0000000e+00 
0.0000000e+00 -2.4386870e-06 0.0000000e+00 
0.0000000e+00 -2.3475916e-06 0.0000000e+00 
VELOCITY 3 22  float
0.0000000e+00 -2.1245658e-05 0.0000000e+00 
0.0000000e+00 -2.1245658e-05 0.0000000e+00 
0.0000000e+00 -2.1406711e-05 0.0000000e+00 
0.0000000e+00 -2.1406711e-05 0.0000000e+00 
0.0000000e+00 -2.1115629e-05 0.0000000e+00 
0.0000000e+00 -2.1385536e-05 0.0000000e+00 
0.0000000e+00 -2.1432186e-05 0.0000000e+00 
0.0000000e+00 -2.1115347e-05 0.0000000e+00 
0.0000000e+00 -2.1159409e-05 0.0000000e+00 
0.0000000e+00 -2.1290165e-05 0.0000000e+00 
0.0000000e+00 -2.1084001e-05 0.0000000e+00 
0.0000000e+00 -2.1352522e-05 0.0000000e+00 
0.0000000e+00 -2.1282267e-05 0.0000000e+00 
0.0000000e+00 -2.1282267e-05 0.0000000e+00 
0.0000000e+00 -2.1352522e-05 0.0000000e+00 
0.0000000e+00 -2.1084001e-05 0.0000000e+00 
0.0000000e+00 -2.1290165e-05 0.0000000e+00 
0.0000000e+00 -2.1159409e-05 0.0000000e+00 
0.0000000e+00 -2.1115347e-05 0.0000000e+00 
0.0000000e+00 -2.1432186e-05 0.0000000e+00 
0.0000000e+00 -2.1385536e-05 0.0000000e+00 
0.0000000e+00 -2.1115629e-05 0.0000000e+00 
CELL_DATA 10
FIELD FieldData 0
