# vtk DataFile Version 4.0
vtk output
ASCII
DATASET UNSTRUCTURED_GRID
POINTS 22 float
0.0000000e+00 0.0000000e+00 0.0000000e+00 
1.0000000e+00 0.0000000e+00 0.0000000e+00 
1.0000000e+00 1.0000000e+01 0.0000000e+00 
0.0000000e+00 1.0000000e+01 0.0000000e+00 
1.0000000e+00 1.0000000e+00 0.0000000e+00 
1.0000000e+00 2.0000000e+00 0.0000000e+00 
1.0000000e+00 3.0000000e+00 0.0000000e+00 
1.0000000e+00 4.0000000e+00 0.0000000e+00 
1.0000000e+00 5.0000000e+00 0.0000000e+00 
1.0000000e+00 6.0000000e+00 0.0000000e+00 
1.0000000e+00 7.0000000e+00 0.0000000e+00 
1.0000000e+00 8.0000000e+00 0.0000000e+00 
1.0000000e+00 9.0000000e+00 0.0000000e+00 
0.0000000e+00 9.0000000e+00 0.0000000e+00 
0.0000000e+00 8.0000000e+00 0.0000000e+00 
0.0000000e+00 7.0000000e+00 0.0000000e+00 
0.0000000e+00 6.0000000e+00 0.0000000e+00 
0.0000000e+00 5.0000000e+00 0.0000000e+00 
0.0000000e+00 4.0000000e+00 0.0000000e+00 
0.0000000e+00 3.0000000e+00 0.0000000e+00 
0.0000000e+00 2.0000000e+00 0.0000000e+00 
0.0000000e+00 1.0000000e+00 0.0000000e+00 

CELLS 10 50
4 0 1 4 21
4 21 4 5 20
4 20 5 6 19
4 19 6 7 18
4 18 7 8 17
4 17 8 9 16
4 16 9 10 15
4 15 10 11 14
4 14 11 12 13
4 13 12 2 3

CELL_TYPES 10
9
9
9
9
9
9
9
9
9
9
POINT_DATA 22
FIELD FieldData 2
DISPLACEMENT 3 22  float
0.0000000e+00 -5.3300132e-06 0.0000000e+00 
0.0000000e+00 -5.3300132e-06 0.0000000e+00 
0.0000000e+00 -6.2365698e-06 0.0000000e+00 
0.0000000e+00 -6.2365698e-06 0.0000000e+00 
0.0000000e+00 -5.4212583e-06 0.0000000e+00 
0.0000000e+00 -5.5123583e-06 0.0000000e+00 
0.0000000e+00 -5.6033668e-06 0.0000000e+00 
0.0000000e+00 -5.6942163e-06 0.0000000e+00 
0.0000000e+00 -5.7849229e-06 0.0000000e+00 
0.0000000e+00 -5.8755159e-06 0.0000000e+00 
0.0000000e+00 -5.9659733e-06 0.0000000e+00 
0.0000000e+00 -6.0563161e-06 0.0000000e+00 
0.0000000e+00 -6.1464984e-06 0.0000000e+00 
0.0000000e+00 -6.1464984e-06 0.0000000e+00 
0.0000000e+00 -6.0563161e-06 0.0000000e+00 
0.0000000e+00 -5.9659733e-06 0.0000000e+00 
0.0000000e+00 -5.8755159e-06 0.0000000e+00 
0.0000000e+00 -5.7849229e-06 0.0000000e+00 
0.0000000e+00 -5.6942163e-06 0.0000000e+00 
0.0000000e+00 -5.6033668e-06 0.0000000e+00 
0.0000000e+00 -5.5123583e-06 0.0000000e+00 
0.0000000e+00 -5.4212583e-06 0.0000000e+00 
VELOCITY 3 22  float
0.0000000e+00 -1.9740037e-05 0.0000000e+00 
0.0000000e+00 -1.9740037e-05 0.0000000e+00 
0.0000000e+00 -1.9730202e-05 0.0000000e+00 
0.0000000e+00 -1.9730202e-05 0.0000000e+00 
0.0000000e+00 -1.9734018e-05 0.0000000e+00 
0.0000000e+00 -1.9741068e-05 0.0000000e+00 
0.0000000e+00 -1.9738321e-05 0.0000000e+00 
0.0000000e+00 -1.9731042e-05 0.0000000e+00 
0.0000000e+00 -1.9740011e-05 0.0000000e+00 
0.0000000e+00 -1.9731091e-05 0.0000000e+00 
0.0000000e+00 -1.9739991e-05 0.0000000e+00 
0.0000000e+00 -1.9735464e-05 0.0000000e+00 
0.0000000e+00 -1.9735833e-05 0.0000000e+00 
0.0000000e+00 -1.9735833e-05 0.0000000e+00 
0.0000000e+00 -1.9735464e-05 0.0000000e+00 
0.0000000e+00 -1.9739991e-05 0.0000000e+00 
0.0000000e+00 -1.9731091e-05 0.0000000e+00 
0.0000000e+00 -1.9740011e-05 0.0000000e+00 
0.0000000e+00 -1.9731042e-05 0.0000000e+00 
0.0000000e+00 -1.9738321e-05 0.0000000e+00 
0.0000000e+00 -1.9741068e-05 0.0000000e+00 
0.0000000e+00 -1.9734018e-05 0.0000000e+00 
CELL_DATA 10
FIELD FieldData 0
