# vtk DataFile Version 4.0
vtk output
ASCII
DATASET UNSTRUCTURED_GRID
POINTS 22 float
0.0000000e+00 0.0000000e+00 0.0000000e+00 
1.0000000e+00 0.0000000e+00 0.0000000e+00 
1.0000000e+00 1.0000000e+01 0.0000000e+00 
0.0000000e+00 1.0000000e+01 0.0000000e+00 
1.0000000e+00 1.0000000e+00 0.0000000e+00 
1.0000000e+00 2.0000000e+00 0.0000000e+00 
1.0000000e+00 3.0000000e+00 0.0000000e+00 
1.0000000e+00 4.0000000e+00 0.0000000e+00 
1.0000000e+00 5.0000000e+00 0.0000000e+00 
1.0000000e+00 6.0000000e+00 0.0000000e+00 
1.0000000e+00 7.0000000e+00 0.0000000e+00 
1.0000000e+00 8.0000000e+00 0.0000000e+00 
1.0000000e+00 9.0000000e+00 0.0000000e+00 
0.0000000e+00 9.0000000e+00 0.0000000e+00 
0.0000000e+00 8.0000000e+00 0.0000000e+00 
0.0000000e+00 7.0000000e+00 0.0000000e+00 
0.0000000e+00 6.0000000e+00 0.0000000e+00 
0.0000000e+00 5.0000000e+00 0.0000000e+00 
0.0000000e+00 4.0000000e+00 0.0000000e+00 
0.0000000e+00 3.0000000e+00 0.0000000e+00 
0.0000000e+00 2.0000000e+00 0.0000000e+00 
0.0000000e+00 1.0000000e+00 0.0000000e+00 

CELLS 10 50
4 0 1 4 21
4 21 4 5 20
4 20 5 6 19
4 19 6 7 18
4 18 7 8 17
4 17 8 9 16
4 16 9 10 15
4 15 10 11 14
4 14 11 12 13
4 13 12 2 3

CELL_TYPES 10
9
9
9
9
9
9
9
9
9
9
POINT_DATA 22
FIELD FieldData 2
DISPLACEMENT 3 22  float
0.0000000e+00 -3.3062702e-06 0.0000000e+00 
0.0000000e+00 -3.3062702e-06 0.0000000e+00 
0.0000000e+00 -4.2132419e-06 0.0000000e+00 
0.0000000e+00 -4.2132419e-06 0.0000000e+00 
0.0000000e+00 -3.3977406e-06 0.0000000e+00 
0.0000000e+00 -3.4887739e-06 0.0000000e+00 
0.0000000e+00 -3.5798719e-06 0.0000000e+00 
0.0000000e+00 -3.6707975e-06 0.0000000e+00 
0.0000000e+00 -3.7613695e-06 0.0000000e+00 
0.0000000e+00 -3.8520093e-06 0.0000000e+00 
0.0000000e+00 -3.9424349e-06 0.0000000e+00 
0.0000000e+00 -4.0328277e-06 0.0000000e+00 
0.0000000e+00 -4.1231701e-06 0.0000000e+00 
0.0000000e+00 -4.1231701e-06 0.0000000e+00 
0.0000000e+00 -4.0328277e-06 0.0000000e+00 
0.0000000e+00 -3.9424349e-06 0.0000000e+00 
0.0000000e+00 -3.8520093e-06 0.0000000e+00 
0.0000000e+00 -3.7613695e-06 0.0000000e+00 
0.0000000e+00 -3.6707975e-06 0.0000000e+00 
0.0000000e+00 -3.5798719e-06 0.0000000e+00 
0.0000000e+00 -3.4887739e-06 0.0000000e+00 
0.0000000e+00 -3.3977406e-06 0.0000000e+00 
VELOCITY 3 22  float
0.0000000e+00 -2.0811980e-05 0.0000000e+00 
0.0000000e+00 -2.0811980e-05 0.0000000e+00 
0.0000000e+00 -2.0755107e-05 0.0000000e+00 
0.0000000e+00 -2.0755107e-05 0.0000000e+00 
0.0000000e+00 -2.0716723e-05 0.0000000e+00 
0.0000000e+00 -2.0756563e-05 0.0000000e+00 
0.0000000e+00 -2.0781130e-05 0.0000000e+00 
0.0000000e+00 -2.0673793e-05 0.0000000e+00 
0.0000000e+00 -2.0729767e-05 0.0000000e+00 
0.0000000e+00 -2.0771186e-05 0.0000000e+00 
0.0000000e+00 -2.0729925e-05 0.0000000e+00 
0.0000000e+00 -2.0787127e-05 0.0000000e+00 
0.0000000e+00 -2.0695205e-05 0.0000000e+00 
0.0000000e+00 -2.0695205e-05 0.0000000e+00 
0.0000000e+00 -2.0787127e-05 0.0000000e+00 
0.0000000e+00 -2.0729925e-05 0.0000000e+00 
0.0000000e+00 -2.0771186e-05 0.0000000e+00 
0.0000000e+00 -2.0729767e-05 0.0000000e+00 
0.0000000e+00 -2.0673793e-05 0.0000000e+00 
0.0000000e+00 -2.0781130e-05 0.0000000e+00 
0.0000000e+00 -2.0756563e-05 0.0000000e+00 
0.0000000e+00 -2.0716723e-05 0.0000000e+00 
CELL_DATA 10
FIELD FieldData 0
