# vtk DataFile Version 4.0
vtk output
ASCII
DATASET UNSTRUCTURED_GRID
POINTS 100 float
0.0000000e+00 0.0000000e+00 0.0000000e+00 
1.0000000e+00 0.0000000e+00 0.0000000e+00 
1.0000000e+00 1.0000000e+01 0.0000000e+00 
0.0000000e+00 1.0000000e+01 0.0000000e+00 
3.3333334e-01 0.0000000e+00 0.0000000e+00 
6.6666669e-01 0.0000000e+00 0.0000000e+00 
1.0000000e+00 4.3478259e-01 0.0000000e+00 
1.0000000e+00 8.6956519e-01 0.0000000e+00 
1.0000000e+00 1.3043479e+00 0.0000000e+00 
1.0000000e+00 1.7391304e+00 0.0000000e+00 
1.0000000e+00 2.1739130e+00 0.0000000e+00 
1.0000000e+00 2.6086957e+00 0.0000000e+00 
1.0000000e+00 3.0434783e+00 0.0000000e+00 
1.0000000e+00 3.4782608e+00 0.0000000e+00 
1.0000000e+00 3.9130435e+00 0.0000000e+00 
1.0000000e+00 4.3478260e+00 0.0000000e+00 
1.0000000e+00 4.7826085e+00 0.0000000e+00 
1.0000000e+00 5.2173915e+00 0.0000000e+00 
1.0000000e+00 5.6521740e+00 0.0000000e+00 
1.0000000e+00 6.0869565e+00 0.0000000e+00 
1.0000000e+00 6.5217390e+00 0.0000000e+00 
1.0000000e+00 6.9565215e+00 0.0000000e+00 
1.0000000e+00 7.3913045e+00 0.0000000e+00 
1.0000000e+00 7.8260870e+00 0.0000000e+00 
1.0000000e+00 8.2608700e+00 0.0000000e+00 
1.0000000e+00 8.6956520e+00 0.0000000e+00 
1.0000000e+00 9.1304350e+00 0.0000000e+00 
1.0000000e+00 9.5652170e+00 0.0000000e+00 
6.6666669e-01 1.0000000e+01 0.0000000e+00 
3.3333334e-01 1.0000000e+01 0.0000000e+00 
0.0000000e+00 9.5652170e+00 0.0000000e+00 
0.0000000e+00 9.1304350e+00 0.0000000e+00 
0.0000000e+00 8.6956520e+00 0.0000000e+00 
0.0000000e+00 8.2608700e+00 0.0000000e+00 
0.0000000e+00 7.8260870e+00 0.0000000e+00 
0.0000000e+00 7.3913045e+00 0.0000000e+00 
0.0000000e+00 6.9565215e+00 0.0000000e+00 
0.0000000e+00 6.5217390e+00 0.0000000e+00 
0.0000000e+00 6.0869565e+00 0.0000000e+00 
0.0000000e+00 5.6521740e+00 0.0000000e+00 
0.0000000e+00 5.2173915e+00 0.0000000e+00 
0.0000000e+00 4.7826085e+00 0.0000000e+00 
0.0000000e+00 4.3478260e+00 0.0000000e+00 
0.0000000e+00 3.9130435e+00 0.0000000e+00 
0.0000000e+00 3.4782608e+00 0.0000000e+00 
0.0000000e+00 3.0434783e+00 0.0000000e+00 
0.0000000e+00 2.6086957e+00 0.0000000e+00 
0.0000000e+00 2.1739130e+00 0.0000000e+00 
0.0000000e+00 1.7391304e+00 0.0000000e+00 
0.0000000e+00 1.3043479e+00 0.0000000e+00 
0.0000000e+00 8.6956519e-01 0.0000000e+00 
0.0000000e+00 4.3478259e-01 0.0000000e+00 
5.1344687e-01 9.7061529e+00 0.0000000e+00 
4.8655313e-01 2.9384753e-01 0.0000000e+00 
6.6897172e-01 1.1634127e+00 0.0000000e+00 
3.3102828e-01 8.8365870e+00 0.0000000e+00 
6.2346721e-01 5.8695650e+00 0.0000000e+00 
6.6666669e-01 4.0579710e+00 0.0000000e+00 
3.7653279e-01 5.0000000e+00 0.0000000e+00 
6.2346721e-01 6.7391305e+00 0.0000000e+00 
6.2346721e-01 7.6086955e+00 0.0000000e+00 
6.2346721e-01 1.9565217e+00 0.0000000e+00 
3.7653279e-01 3.2608695e+00 0.0000000e+00 
3.7653279e-01 2.3913043e+00 0.0000000e+00 
3.7653279e-01 8.0434780e+00 0.0000000e+00 
3.7653279e-01 6.3043480e+00 0.0000000e+00 
3.7653279e-01 7.1739130e+00 0.0000000e+00 
6.2346721e-01 2.8260870e+00 0.0000000e+00 
3.6661035e-01 1.5326614e+00 0.0000000e+00 
6.3338965e-01 8.4673386e+00 0.0000000e+00 
6.6666669e-01 5.3623190e+00 0.0000000e+00 
3.4053326e-01 3.7560387e+00 0.0000000e+00 
6.1671901e-01 4.5548654e+00 0.0000000e+00 
3.5075530e-01 9.3259811e+00 0.0000000e+00 
6.4924473e-01 6.7401856e-01 0.0000000e+00 
7.3728365e-01 9.4039068e+00 0.0000000e+00 
2.6271632e-01 5.9609360e-01 0.0000000e+00 
2.5476670e-01 5.8695650e+00 0.0000000e+00 
3.1629205e-01 4.1991606e+00 0.0000000e+00 
6.8991148e-01 8.9584770e+00 0.0000000e+00 
7.2616655e-01 7.1739130e+00 0.0000000e+00 
7.2667795e-01 8.0412941e+00 0.0000000e+00 
2.6819015e-01 8.4607849e+00 0.0000000e+00 
2.6190877e-01 4.5768919e+00 0.0000000e+00 
7.3180985e-01 1.5392148e+00 0.0000000e+00 
7.3198366e-01 4.9834371e+00 0.0000000e+00 
2.7332208e-01 1.9587063e+00 0.0000000e+00 
3.1008852e-01 1.0415232e+00 0.0000000e+00 
2.7383348e-01 2.8260870e+00 0.0000000e+00 
7.2616655e-01 2.3913043e+00 0.0000000e+00 
7.4523330e-01 3.2608695e+00 0.0000000e+00 
2.7383348e-01 7.6086955e+00 0.0000000e+00 
2.7383348e-01 6.7391305e+00 0.0000000e+00 
7.2616655e-01 6.3043480e+00 0.0000000e+00 
3.2023889e-01 5.4951692e+00 0.0000000e+00 
6.8816102e-01 3.6211755e+00 0.0000000e+00 
2.1652056e-01 2.6494476e-01 0.0000000e+00 
7.8347945e-01 9.7350550e+00 0.0000000e+00 
7.6049292e-01 2.8052974e-01 0.0000000e+00 
2.3950709e-01 9.7194700e+00 0.0000000e+00 

CELLS 146 584
3 74 87 76
3 73 79 75
3 77 94 56
3 56 94 70
3 90 95 62
3 72 83 78
3 72 78 57
3 62 95 71
3 55 79 73
3 54 87 74
3 52 99 73
3 53 98 74
3 73 99 30
3 74 98 6
3 66 92 59
3 64 91 60
3 60 81 64
3 63 86 61
3 62 88 67
3 61 89 63
3 72 85 58
3 67 90 62
3 65 77 56
3 56 93 65
3 58 83 72
3 59 80 66
3 54 84 68
3 68 87 54
3 55 82 69
3 69 79 55
3 70 94 58
3 65 93 59
3 66 80 60
3 57 78 71
3 58 85 70
3 59 92 65
3 67 88 63
3 60 91 66
3 69 82 64
3 71 95 57
3 61 86 68
3 63 89 67
3 64 81 69
3 68 84 61
3 75 97 52
3 76 96 53
3 30 99 3
3 2 97 27
3 0 96 51
3 6 98 1
3 23 60 22
3 47 63 46
3 45 62 44
3 15 57 14
3 15 72 57
3 38 65 37
3 41 58 40
3 44 71 43
3 10 61 9
3 56 70 18
3 25 69 24
3 62 71 44
3 49 68 48
3 12 67 11
3 19 56 18
3 34 64 33
3 36 66 35
3 8 54 7
3 16 72 15
3 21 59 20
3 18 70 17
3 32 55 31
3 31 73 30
3 7 74 6
3 54 74 7
3 55 73 31
3 74 76 53
3 73 75 52
3 69 81 24
3 34 91 64
3 71 78 43
3 10 89 61
3 16 85 72
3 58 94 40
3 57 95 14
3 59 93 20
3 32 82 55
3 41 83 58
3 36 92 66
3 70 85 17
3 21 80 59
3 25 79 69
3 45 88 62
3 63 88 46
3 47 86 63
3 12 90 67
3 23 81 60
3 68 86 48
3 66 91 35
3 38 77 65
3 19 93 56
3 8 84 54
3 60 80 22
3 49 87 68
3 65 92 37
3 67 89 11
3 61 84 9
3 64 82 33
3 27 97 75
3 51 96 76
3 5 53 4
3 29 52 28
3 27 75 26
3 51 76 50
3 75 79 26
3 76 87 50
3 78 83 42
3 40 94 39
3 24 81 23
3 33 82 32
3 39 94 77
3 43 78 42
3 9 84 8
3 17 85 16
3 11 89 10
3 14 95 13
3 13 90 12
3 26 79 25
3 35 91 34
3 37 92 36
3 48 86 47
3 50 87 49
3 46 88 45
3 13 95 90
3 39 77 38
3 20 93 19
3 42 83 41
3 22 80 21
3 29 99 52
3 5 98 53
3 52 97 28
3 53 96 4
3 1 98 5
3 3 99 29
3 4 96 0
3 28 97 2

CELL_TYPES 146
5
5
5
5
5
5
5
5
5
5
5
5
5
5
5
5
5
5
5
5
5
5
5
5
5
5
5
5
5
5
5
5
5
5
5
5
5
5
5
5
5
5
5
5
5
5
5
5
5
5
5
5
5
5
5
5
5
5
5
5
5
5
5
5
5
5
5
5
5
5
5
5
5
5
5
5
5
5
5
5
5
5
5
5
5
5
5
5
5
5
5
5
5
5
5
5
5
5
5
5
5
5
5
5
5
5
5
5
5
5
5
5
5
5
5
5
5
5
5
5
5
5
5
5
5
5
5
5
5
5
5
5
5
5
5
5
5
5
5
5
5
5
5
5
5
5
POINT_DATA 100
FIELD FieldData 1
VELOCITY 3 100  float
0.0000000e+00 0.0000000e+00 0.0000000e+00 
0.0000000e+00 0.0000000e+00 0.0000000e+00 
0.0000000e+00 -2.3526179e-03 0.0000000e+00 
0.0000000e+00 -1.8357424e-03 0.0000000e+00 
0.0000000e+00 0.0000000e+00 0.0000000e+00 
0.0000000e+00 0.0000000e+00 0.0000000e+00 
0.0000000e+00 2.9465611e-04 0.0000000e+00 
0.0000000e+00 5.6705263e-04 0.0000000e+00 
0.0000000e+00 7.3752477e-04 0.0000000e+00 
0.0000000e+00 8.1234198e-04 0.0000000e+00 
0.0000000e+00 6.0509145e-04 0.0000000e+00 
0.0000000e+00 -8.8693574e-05 0.0000000e+00 
0.0000000e+00 -1.1135641e-03 0.0000000e+00 
0.0000000e+00 -2.0642695e-03 0.0000000e+00 
0.0000000e+00 -2.4795856e-03 0.0000000e+00 
0.0000000e+00 -2.1127374e-03 0.0000000e+00 
0.0000000e+00 -1.8303960e-03 0.0000000e+00 
0.0000000e+00 -2.3479282e-03 0.0000000e+00 
0.0000000e+00 -2.7315428e-03 0.0000000e+00 
0.0000000e+00 -2.5837424e-03 0.0000000e+00 
0.0000000e+00 -2.5076899e-03 0.0000000e+00 
0.0000000e+00 -2.6053931e-03 0.0000000e+00 
0.0000000e+00 -3.1489334e-03 0.0000000e+00 
0.0000000e+00 -3.0329472e-03 0.0000000e+00 
0.0000000e+00 -2.9429649e-03 0.0000000e+00 
0.0000000e+00 -2.8328942e-03 0.0000000e+00 
0.0000000e+00 -2.6767454e-03 0.0000000e+00 
0.0000000e+00 -2.9988224e-03 0.0000000e+00 
-1.4640515e-03 1.8323137e-04 0.0000000e+00 
-2.3378734e-03 -4.2548153e-04 0.0000000e+00 
0.0000000e+00 -3.4476179e-03 0.0000000e+00 
0.0000000e+00 -3.3287460e-03 0.0000000e+00 
0.0000000e+00 -3.7679609e-03 0.0000000e+00 
0.0000000e+00 -2.8890134e-03 0.0000000e+00 
0.0000000e+00 -2.5968847e-03 0.0000000e+00 
0.0000000e+00 -3.0204812e-03 0.0000000e+00 
0.0000000e+00 -3.0873034e-03 0.0000000e+00 
0.0000000e+00 -2.9916691e-03 0.0000000e+00 
0.0000000e+00 -3.1142798e-03 0.0000000e+00 
0.0000000e+00 -2.5876649e-03 0.0000000e+00 
0.0000000e+00 -2.2770185e-03 0.0000000e+00 
0.0000000e+00 -2.2141598e-03 0.0000000e+00 
0.0000000e+00 -1.7726991e-03 0.0000000e+00 
0.0000000e+00 -1.5367246e-03 0.0000000e+00 
0.0000000e+00 -1.4776470e-03 0.0000000e+00 
0.0000000e+00 -1.0773718e-03 0.0000000e+00 
0.0000000e+00 -7.1407732e-04 0.0000000e+00 
0.0000000e+00 -4.5895978e-04 0.0000000e+00 
0.0000000e+00 6.3494037e-05 0.0000000e+00 
0.0000000e+00 7.2733563e-04 0.0000000e+00 
0.0000000e+00 1.0307410e-03 0.0000000e+00 
0.0000000e+00 7.6538260e-04 0.0000000e+00 
-1.4585124e-03 -1.6176342e-03 0.0000000e+00 
3.9654613e-05 3.9095423e-04 0.0000000e+00 
2.7078000e-04 7.8748312e-04 0.0000000e+00 
1.6662745e-05 -2.8045026e-03 0.0000000e+00 
6.3729560e-05 -2.7323903e-03 0.0000000e+00 
9.8734796e-05 -2.0764719e-03 0.0000000e+00 
-3.6753583e-04 -2.6250216e-03 0.0000000e+00 
2.2065238e-04 -2.5145351e-03 0.0000000e+00 
2.9215546e-05 -2.7242664e-03 0.0000000e+00 
2.3901471e-04 5.5429206e-04 0.0000000e+00 
-2.3862667e-04 -1.3922234e-03 0.0000000e+00 
-1.2751960e-04 -4.6224828e-04 0.0000000e+00 
8.6424770e-05 -2.9478641e-03 0.0000000e+00 
-6.6079898e-05 -2.7920478e-03 0.0000000e+00 
-5.8943777e-05 -2.7756204e-03 0.0000000e+00 
-1.8088589e-04 -8.0930331e-04 0.0000000e+00 
3.2536933e-04 6.4834917e-04 0.0000000e+00 
2.2730365e-04 -2.5429537e-03 0.0000000e+00 
-2.6997793e-04 -2.7242030e-03 0.0000000e+00 
-2.2611023e-04 -1.7115654e-03 0.0000000e+00 
4.3947360e-04 -1.8473585e-03 0.0000000e+00 
1.8149626e-04 -2.4748768e-03 0.0000000e+00 
1.8471842e-04 6.2815857e-04 0.0000000e+00 
-3.5793302e-04 -2.2400061e-03 0.0000000e+00 
1.8262237e-04 8.8034314e-04 0.0000000e+00 
1.0672805e-04 -2.7305176e-03 0.0000000e+00 
2.7921607e-04 -1.6803844e-03 0.0000000e+00 
-5.4555338e-05 -2.6904189e-03 0.0000000e+00 
-1.0191616e-04 -2.7170689e-03 0.0000000e+00 
1.3768533e-04 -2.6676999e-03 0.0000000e+00 
1.1177872e-04 -3.1343636e-03 0.0000000e+00 
2.1552567e-04 -2.0664313e-03 0.0000000e+00 
2.1855334e-04 7.6868816e-04 0.0000000e+00 
-1.8192639e-04 -2.2294801e-03 0.0000000e+00 
5.5683162e-05 -5.7735375e-05 0.0000000e+00 
2.9819002e-04 9.8948018e-04 0.0000000e+00 
-6.3956701e-05 -8.7500043e-04 0.0000000e+00 
2.6794041e-05 1.2282863e-04 0.0000000e+00 
-2.4417118e-04 -1.6243020e-03 0.0000000e+00 
-1.2932997e-04 -2.9052706e-03 0.0000000e+00 
1.9337391e-04 -2.7323666e-03 0.0000000e+00 
-4.9264359e-05 -2.6521075e-03 0.0000000e+00 
-4.0719940e-05 -2.5997295e-03 0.0000000e+00 
-3.5944031e-04 -2.0994479e-03 0.0000000e+00 
3.5604386e-05 4.7423074e-04 0.0000000e+00 
-1.2257498e-03 -1.8789874e-03 0.0000000e+00 
1.3966367e-05 2.4900897e-04 0.0000000e+00 
-1.1600679e-03 -2.6257634e-03 0.0000000e+00 
CELL_DATA 146
FIELD FieldData 0
