# vtk DataFile Version 4.0
vtk output
ASCII
DATASET UNSTRUCTURED_GRID
POINTS 100 float
0.0000000e+00 0.0000000e+00 0.0000000e+00 
1.0000000e+00 0.0000000e+00 0.0000000e+00 
1.0000000e+00 1.0000000e+01 0.0000000e+00 
0.0000000e+00 1.0000000e+01 0.0000000e+00 
3.3333334e-01 0.0000000e+00 0.0000000e+00 
6.6666669e-01 0.0000000e+00 0.0000000e+00 
1.0000000e+00 4.3478259e-01 0.0000000e+00 
1.0000000e+00 8.6956519e-01 0.0000000e+00 
1.0000000e+00 1.3043479e+00 0.0000000e+00 
1.0000000e+00 1.7391304e+00 0.0000000e+00 
1.0000000e+00 2.1739130e+00 0.0000000e+00 
1.0000000e+00 2.6086957e+00 0.0000000e+00 
1.0000000e+00 3.0434783e+00 0.0000000e+00 
1.0000000e+00 3.4782608e+00 0.0000000e+00 
1.0000000e+00 3.9130435e+00 0.0000000e+00 
1.0000000e+00 4.3478260e+00 0.0000000e+00 
1.0000000e+00 4.7826085e+00 0.0000000e+00 
1.0000000e+00 5.2173915e+00 0.0000000e+00 
1.0000000e+00 5.6521740e+00 0.0000000e+00 
1.0000000e+00 6.0869565e+00 0.0000000e+00 
1.0000000e+00 6.5217390e+00 0.0000000e+00 
1.0000000e+00 6.9565215e+00 0.0000000e+00 
1.0000000e+00 7.3913045e+00 0.0000000e+00 
1.0000000e+00 7.8260870e+00 0.0000000e+00 
1.0000000e+00 8.2608700e+00 0.0000000e+00 
1.0000000e+00 8.6956520e+00 0.0000000e+00 
1.0000000e+00 9.1304350e+00 0.0000000e+00 
1.0000000e+00 9.5652170e+00 0.0000000e+00 
6.6666669e-01 1.0000000e+01 0.0000000e+00 
3.3333334e-01 1.0000000e+01 0.0000000e+00 
0.0000000e+00 9.5652170e+00 0.0000000e+00 
0.0000000e+00 9.1304350e+00 0.0000000e+00 
0.0000000e+00 8.6956520e+00 0.0000000e+00 
0.0000000e+00 8.2608700e+00 0.0000000e+00 
0.0000000e+00 7.8260870e+00 0.0000000e+00 
0.0000000e+00 7.3913045e+00 0.0000000e+00 
0.0000000e+00 6.9565215e+00 0.0000000e+00 
0.0000000e+00 6.5217390e+00 0.0000000e+00 
0.0000000e+00 6.0869565e+00 0.0000000e+00 
0.0000000e+00 5.6521740e+00 0.0000000e+00 
0.0000000e+00 5.2173915e+00 0.0000000e+00 
0.0000000e+00 4.7826085e+00 0.0000000e+00 
0.0000000e+00 4.3478260e+00 0.0000000e+00 
0.0000000e+00 3.9130435e+00 0.0000000e+00 
0.0000000e+00 3.4782608e+00 0.0000000e+00 
0.0000000e+00 3.0434783e+00 0.0000000e+00 
0.0000000e+00 2.6086957e+00 0.0000000e+00 
0.0000000e+00 2.1739130e+00 0.0000000e+00 
0.0000000e+00 1.7391304e+00 0.0000000e+00 
0.0000000e+00 1.3043479e+00 0.0000000e+00 
0.0000000e+00 8.6956519e-01 0.0000000e+00 
0.0000000e+00 4.3478259e-01 0.0000000e+00 
5.1344687e-01 9.7061529e+00 0.0000000e+00 
4.8655313e-01 2.9384753e-01 0.0000000e+00 
6.6897172e-01 1.1634127e+00 0.0000000e+00 
3.3102828e-01 8.8365870e+00 0.0000000e+00 
6.2346721e-01 5.8695650e+00 0.0000000e+00 
6.6666669e-01 4.0579710e+00 0.0000000e+00 
3.7653279e-01 5.0000000e+00 0.0000000e+00 
6.2346721e-01 6.7391305e+00 0.0000000e+00 
6.2346721e-01 7.6086955e+00 0.0000000e+00 
6.2346721e-01 1.9565217e+00 0.0000000e+00 
3.7653279e-01 3.2608695e+00 0.0000000e+00 
3.7653279e-01 2.3913043e+00 0.0000000e+00 
3.7653279e-01 8.0434780e+00 0.0000000e+00 
3.7653279e-01 6.3043480e+00 0.0000000e+00 
3.7653279e-01 7.1739130e+00 0.0000000e+00 
6.2346721e-01 2.8260870e+00 0.0000000e+00 
3.6661035e-01 1.5326614e+00 0.0000000e+00 
6.3338965e-01 8.4673386e+00 0.0000000e+00 
6.6666669e-01 5.3623190e+00 0.0000000e+00 
3.4053326e-01 3.7560387e+00 0.0000000e+00 
6.1671901e-01 4.5548654e+00 0.0000000e+00 
3.5075530e-01 9.3259811e+00 0.0000000e+00 
6.4924473e-01 6.7401856e-01 0.0000000e+00 
7.3728365e-01 9.4039068e+00 0.0000000e+00 
2.6271632e-01 5.9609360e-01 0.0000000e+00 
2.5476670e-01 5.8695650e+00 0.0000000e+00 
3.1629205e-01 4.1991606e+00 0.0000000e+00 
6.8991148e-01 8.9584770e+00 0.0000000e+00 
7.2616655e-01 7.1739130e+00 0.0000000e+00 
7.2667795e-01 8.0412941e+00 0.0000000e+00 
2.6819015e-01 8.4607849e+00 0.0000000e+00 
2.6190877e-01 4.5768919e+00 0.0000000e+00 
7.3180985e-01 1.5392148e+00 0.0000000e+00 
7.3198366e-01 4.9834371e+00 0.0000000e+00 
2.7332208e-01 1.9587063e+00 0.0000000e+00 
3.1008852e-01 1.0415232e+00 0.0000000e+00 
2.7383348e-01 2.8260870e+00 0.0000000e+00 
7.2616655e-01 2.3913043e+00 0.0000000e+00 
7.4523330e-01 3.2608695e+00 0.0000000e+00 
2.7383348e-01 7.6086955e+00 0.0000000e+00 
2.7383348e-01 6.7391305e+00 0.0000000e+00 
7.2616655e-01 6.3043480e+00 0.0000000e+00 
3.2023889e-01 5.4951692e+00 0.0000000e+00 
6.8816102e-01 3.6211755e+00 0.0000000e+00 
2.1652056e-01 2.6494476e-01 0.0000000e+00 
7.8347945e-01 9.7350550e+00 0.0000000e+00 
7.6049292e-01 2.8052974e-01 0.0000000e+00 
2.3950709e-01 9.7194700e+00 0.0000000e+00 

CELLS 146 584
3 74 87 76
3 73 79 75
3 77 94 56
3 56 94 70
3 90 95 62
3 72 83 78
3 72 78 57
3 62 95 71
3 55 79 73
3 54 87 74
3 52 99 73
3 53 98 74
3 73 99 30
3 74 98 6
3 66 92 59
3 64 91 60
3 60 81 64
3 63 86 61
3 62 88 67
3 61 89 63
3 72 85 58
3 67 90 62
3 65 77 56
3 56 93 65
3 58 83 72
3 59 80 66
3 54 84 68
3 68 87 54
3 55 82 69
3 69 79 55
3 70 94 58
3 65 93 59
3 66 80 60
3 57 78 71
3 58 85 70
3 59 92 65
3 67 88 63
3 60 91 66
3 69 82 64
3 71 95 57
3 61 86 68
3 63 89 67
3 64 81 69
3 68 84 61
3 75 97 52
3 76 96 53
3 30 99 3
3 2 97 27
3 0 96 51
3 6 98 1
3 23 60 22
3 47 63 46
3 45 62 44
3 15 57 14
3 15 72 57
3 38 65 37
3 41 58 40
3 44 71 43
3 10 61 9
3 56 70 18
3 25 69 24
3 62 71 44
3 49 68 48
3 12 67 11
3 19 56 18
3 34 64 33
3 36 66 35
3 8 54 7
3 16 72 15
3 21 59 20
3 18 70 17
3 32 55 31
3 31 73 30
3 7 74 6
3 54 74 7
3 55 73 31
3 74 76 53
3 73 75 52
3 69 81 24
3 34 91 64
3 71 78 43
3 10 89 61
3 16 85 72
3 58 94 40
3 57 95 14
3 59 93 20
3 32 82 55
3 41 83 58
3 36 92 66
3 70 85 17
3 21 80 59
3 25 79 69
3 45 88 62
3 63 88 46
3 47 86 63
3 12 90 67
3 23 81 60
3 68 86 48
3 66 91 35
3 38 77 65
3 19 93 56
3 8 84 54
3 60 80 22
3 49 87 68
3 65 92 37
3 67 89 11
3 61 84 9
3 64 82 33
3 27 97 75
3 51 96 76
3 5 53 4
3 29 52 28
3 27 75 26
3 51 76 50
3 75 79 26
3 76 87 50
3 78 83 42
3 40 94 39
3 24 81 23
3 33 82 32
3 39 94 77
3 43 78 42
3 9 84 8
3 17 85 16
3 11 89 10
3 14 95 13
3 13 90 12
3 26 79 25
3 35 91 34
3 37 92 36
3 48 86 47
3 50 87 49
3 46 88 45
3 13 95 90
3 39 77 38
3 20 93 19
3 42 83 41
3 22 80 21
3 29 99 52
3 5 98 53
3 52 97 28
3 53 96 4
3 1 98 5
3 3 99 29
3 4 96 0
3 28 97 2

CELL_TYPES 146
5
5
5
5
5
5
5
5
5
5
5
5
5
5
5
5
5
5
5
5
5
5
5
5
5
5
5
5
5
5
5
5
5
5
5
5
5
5
5
5
5
5
5
5
5
5
5
5
5
5
5
5
5
5
5
5
5
5
5
5
5
5
5
5
5
5
5
5
5
5
5
5
5
5
5
5
5
5
5
5
5
5
5
5
5
5
5
5
5
5
5
5
5
5
5
5
5
5
5
5
5
5
5
5
5
5
5
5
5
5
5
5
5
5
5
5
5
5
5
5
5
5
5
5
5
5
5
5
5
5
5
5
5
5
5
5
5
5
5
5
5
5
5
5
5
5
POINT_DATA 100
FIELD FieldData 1
VELOCITY 3 100  float
0.0000000e+00 0.0000000e+00 0.0000000e+00 
0.0000000e+00 0.0000000e+00 0.0000000e+00 
0.0000000e+00 2.8964437e-03 0.0000000e+00 
0.0000000e+00 2.8397785e-03 0.0000000e+00 
0.0000000e+00 0.0000000e+00 0.0000000e+00 
0.0000000e+00 0.0000000e+00 0.0000000e+00 
0.0000000e+00 1.9833795e-04 0.0000000e+00 
0.0000000e+00 1.3336624e-04 0.0000000e+00 
0.0000000e+00 5.8030686e-04 0.0000000e+00 
0.0000000e+00 6.0683902e-04 0.0000000e+00 
0.0000000e+00 1.2387347e-03 0.0000000e+00 
0.0000000e+00 1.7843052e-03 0.0000000e+00 
0.0000000e+00 2.4168275e-03 0.0000000e+00 
0.0000000e+00 2.8897631e-03 0.0000000e+00 
0.0000000e+00 3.6232136e-03 0.0000000e+00 
0.0000000e+00 3.6125006e-03 0.0000000e+00 
0.0000000e+00 2.9955849e-03 0.0000000e+00 
0.0000000e+00 3.0594554e-03 0.0000000e+00 
0.0000000e+00 2.5013972e-03 0.0000000e+00 
0.0000000e+00 1.9683531e-03 0.0000000e+00 
0.0000000e+00 2.5301895e-03 0.0000000e+00 
0.0000000e+00 3.3187876e-03 0.0000000e+00 
0.0000000e+00 3.1349943e-03 0.0000000e+00 
0.0000000e+00 2.8343766e-03 0.0000000e+00 
0.0000000e+00 2.7312594e-03 0.0000000e+00 
0.0000000e+00 2.8642884e-03 0.0000000e+00 
0.0000000e+00 2.3163373e-03 0.0000000e+00 
0.0000000e+00 2.9425705e-03 0.0000000e+00 
3.4964851e-05 2.9674734e-03 0.0000000e+00 
-1.2953233e-04 3.0379472e-03 0.0000000e+00 
0.0000000e+00 3.0724423e-03 0.0000000e+00 
0.0000000e+00 2.5659285e-03 0.0000000e+00 
0.0000000e+00 2.5326279e-03 0.0000000e+00 
0.0000000e+00 2.6870363e-03 0.0000000e+00 
0.0000000e+00 3.0133585e-03 0.0000000e+00 
0.0000000e+00 2.6844884e-03 0.0000000e+00 
0.0000000e+00 3.3536218e-03 0.0000000e+00 
0.0000000e+00 2.5366375e-03 0.0000000e+00 
0.0000000e+00 2.0749646e-03 0.0000000e+00 
0.0000000e+00 2.5900223e-03 0.0000000e+00 
0.0000000e+00 3.1547465e-03 0.0000000e+00 
0.0000000e+00 3.1025289e-03 0.0000000e+00 
0.0000000e+00 3.5691091e-03 0.0000000e+00 
0.0000000e+00 3.5417557e-03 0.0000000e+00 
0.0000000e+00 2.6835299e-03 0.0000000e+00 
0.0000000e+00 2.3809739e-03 0.0000000e+00 
0.0000000e+00 1.8658387e-03 0.0000000e+00 
0.0000000e+00 1.1255030e-03 0.0000000e+00 
0.0000000e+00 7.4971502e-04 0.0000000e+00 
0.0000000e+00 4.5653092e-04 0.0000000e+00 
0.0000000e+00 8.0174148e-05 0.0000000e+00 
0.0000000e+00 4.0012875e-04 0.0000000e+00 
-5.0332612e-05 2.8674735e-03 0.0000000e+00 
2.5881616e-05 2.2034350e-05 0.0000000e+00 
9.1080350e-05 4.0153667e-04 0.0000000e+00 
-8.7216613e-05 2.6200628e-03 0.0000000e+00 
-1.4613945e-05 2.2022426e-03 0.0000000e+00 
8.1121027e-05 3.6423770e-03 0.0000000e+00 
3.4151437e-06 3.1878978e-03 0.0000000e+00 
8.7566448e-05 2.8693452e-03 0.0000000e+00 
-3.8093644e-05 2.9873843e-03 0.0000000e+00 
7.3504139e-05 9.4414991e-04 0.0000000e+00 
-1.6038897e-05 2.6716678e-03 0.0000000e+00 
-9.1586808e-06 1.3859484e-03 0.0000000e+00 
-3.4630357e-05 2.7942418e-03 0.0000000e+00 
3.7486181e-05 2.2282733e-03 0.0000000e+00 
-4.0331823e-05 3.2283566e-03 0.0000000e+00 
5.9526265e-05 2.0564646e-03 0.0000000e+00 
8.7743847e-06 7.1431068e-04 0.0000000e+00 
2.6202935e-05 2.6405999e-03 0.0000000e+00 
-1.3277724e-05 2.8945329e-03 0.0000000e+00 
-8.9226276e-05 3.3730622e-03 0.0000000e+00 
-6.6482571e-05 3.3495498e-03 0.0000000e+00 
6.3596577e-05 2.6458118e-03 0.0000000e+00 
-2.2171975e-04 1.1223217e-04 0.0000000e+00 
-1.3770895e-04 2.7518319e-03 0.0000000e+00 
1.3717692e-05 1.3305346e-04 0.0000000e+00 
6.6282635e-05 2.1490660e-03 0.0000000e+00 
3.8615239e-05 3.6163633e-03 0.0000000e+00 
7.5215845e-05 2.6618114e-03 0.0000000e+00 
-7.2953575e-05 3.1055950e-03 0.0000000e+00 
-9.5089694e-05 2.7112796e-03 0.0000000e+00 
4.3439875e-05 2.8176145e-03 0.0000000e+00 
7.6581295e-05 3.3020936e-03 0.0000000e+00 
-7.1874027e-05 6.3643156e-04 0.0000000e+00 
4.6971472e-05 3.1501588e-03 0.0000000e+00 
-1.0779314e-06 9.0054533e-04 0.0000000e+00 
-3.7568052e-06 3.1265675e-04 0.0000000e+00 
6.0057177e-05 2.2258740e-03 0.0000000e+00 
-2.1124079e-06 1.4726022e-03 0.0000000e+00 
-5.7063695e-05 2.5199810e-03 0.0000000e+00 
5.7012781e-05 2.9272914e-03 0.0000000e+00 
-5.1597985e-05 3.0408152e-03 0.0000000e+00 
-1.9617220e-05 2.4215551e-03 0.0000000e+00 
4.0062947e-05 2.6173503e-03 0.0000000e+00 
-6.8010624e-05 3.0122211e-03 0.0000000e+00 
-1.9827979e-05 2.4961508e-04 0.0000000e+00 
1.3341414e-04 3.1612720e-03 0.0000000e+00 
3.2373813e-05 1.0215102e-04 0.0000000e+00 
1.2838519e-04 3.1296553e-03 0.0000000e+00 
CELL_DATA 146
FIELD FieldData 0
