# vtk DataFile Version 4.0
vtk output
ASCII
DATASET UNSTRUCTURED_GRID
POINTS 100 float
0.0000000e+00 0.0000000e+00 0.0000000e+00 
1.0000000e+00 0.0000000e+00 0.0000000e+00 
1.0000000e+00 1.0000000e+01 0.0000000e+00 
0.0000000e+00 1.0000000e+01 0.0000000e+00 
3.3333334e-01 0.0000000e+00 0.0000000e+00 
6.6666669e-01 0.0000000e+00 0.0000000e+00 
1.0000000e+00 4.3478259e-01 0.0000000e+00 
1.0000000e+00 8.6956519e-01 0.0000000e+00 
1.0000000e+00 1.3043479e+00 0.0000000e+00 
1.0000000e+00 1.7391304e+00 0.0000000e+00 
1.0000000e+00 2.1739130e+00 0.0000000e+00 
1.0000000e+00 2.6086957e+00 0.0000000e+00 
1.0000000e+00 3.0434783e+00 0.0000000e+00 
1.0000000e+00 3.4782608e+00 0.0000000e+00 
1.0000000e+00 3.9130435e+00 0.0000000e+00 
1.0000000e+00 4.3478260e+00 0.0000000e+00 
1.0000000e+00 4.7826085e+00 0.0000000e+00 
1.0000000e+00 5.2173915e+00 0.0000000e+00 
1.0000000e+00 5.6521740e+00 0.0000000e+00 
1.0000000e+00 6.0869565e+00 0.0000000e+00 
1.0000000e+00 6.5217390e+00 0.0000000e+00 
1.0000000e+00 6.9565215e+00 0.0000000e+00 
1.0000000e+00 7.3913045e+00 0.0000000e+00 
1.0000000e+00 7.8260870e+00 0.0000000e+00 
1.0000000e+00 8.2608700e+00 0.0000000e+00 
1.0000000e+00 8.6956520e+00 0.0000000e+00 
1.0000000e+00 9.1304350e+00 0.0000000e+00 
1.0000000e+00 9.5652170e+00 0.0000000e+00 
6.6666669e-01 1.0000000e+01 0.0000000e+00 
3.3333334e-01 1.0000000e+01 0.0000000e+00 
0.0000000e+00 9.5652170e+00 0.0000000e+00 
0.0000000e+00 9.1304350e+00 0.0000000e+00 
0.0000000e+00 8.6956520e+00 0.0000000e+00 
0.0000000e+00 8.2608700e+00 0.0000000e+00 
0.0000000e+00 7.8260870e+00 0.0000000e+00 
0.0000000e+00 7.3913045e+00 0.0000000e+00 
0.0000000e+00 6.9565215e+00 0.0000000e+00 
0.0000000e+00 6.5217390e+00 0.0000000e+00 
0.0000000e+00 6.0869565e+00 0.0000000e+00 
0.0000000e+00 5.6521740e+00 0.0000000e+00 
0.0000000e+00 5.2173915e+00 0.0000000e+00 
0.0000000e+00 4.7826085e+00 0.0000000e+00 
0.0000000e+00 4.3478260e+00 0.0000000e+00 
0.0000000e+00 3.9130435e+00 0.0000000e+00 
0.0000000e+00 3.4782608e+00 0.0000000e+00 
0.0000000e+00 3.0434783e+00 0.0000000e+00 
0.0000000e+00 2.6086957e+00 0.0000000e+00 
0.0000000e+00 2.1739130e+00 0.0000000e+00 
0.0000000e+00 1.7391304e+00 0.0000000e+00 
0.0000000e+00 1.3043479e+00 0.0000000e+00 
0.0000000e+00 8.6956519e-01 0.0000000e+00 
0.0000000e+00 4.3478259e-01 0.0000000e+00 
5.1344687e-01 9.7061529e+00 0.0000000e+00 
4.8655313e-01 2.9384753e-01 0.0000000e+00 
6.6897172e-01 1.1634127e+00 0.0000000e+00 
3.3102828e-01 8.8365870e+00 0.0000000e+00 
6.2346721e-01 5.8695650e+00 0.0000000e+00 
6.6666669e-01 4.0579710e+00 0.0000000e+00 
3.7653279e-01 5.0000000e+00 0.0000000e+00 
6.2346721e-01 6.7391305e+00 0.0000000e+00 
6.2346721e-01 7.6086955e+00 0.0000000e+00 
6.2346721e-01 1.9565217e+00 0.0000000e+00 
3.7653279e-01 3.2608695e+00 0.0000000e+00 
3.7653279e-01 2.3913043e+00 0.0000000e+00 
3.7653279e-01 8.0434780e+00 0.0000000e+00 
3.7653279e-01 6.3043480e+00 0.0000000e+00 
3.7653279e-01 7.1739130e+00 0.0000000e+00 
6.2346721e-01 2.8260870e+00 0.0000000e+00 
3.6661035e-01 1.5326614e+00 0.0000000e+00 
6.3338965e-01 8.4673386e+00 0.0000000e+00 
6.6666669e-01 5.3623190e+00 0.0000000e+00 
3.4053326e-01 3.7560387e+00 0.0000000e+00 
6.1671901e-01 4.5548654e+00 0.0000000e+00 
3.5075530e-01 9.3259811e+00 0.0000000e+00 
6.4924473e-01 6.7401856e-01 0.0000000e+00 
7.3728365e-01 9.4039068e+00 0.0000000e+00 
2.6271632e-01 5.9609360e-01 0.0000000e+00 
2.5476670e-01 5.8695650e+00 0.0000000e+00 
3.1629205e-01 4.1991606e+00 0.0000000e+00 
6.8991148e-01 8.9584770e+00 0.0000000e+00 
7.2616655e-01 7.1739130e+00 0.0000000e+00 
7.2667795e-01 8.0412941e+00 0.0000000e+00 
2.6819015e-01 8.4607849e+00 0.0000000e+00 
2.6190877e-01 4.5768919e+00 0.0000000e+00 
7.3180985e-01 1.5392148e+00 0.0000000e+00 
7.3198366e-01 4.9834371e+00 0.0000000e+00 
2.7332208e-01 1.9587063e+00 0.0000000e+00 
3.1008852e-01 1.0415232e+00 0.0000000e+00 
2.7383348e-01 2.8260870e+00 0.0000000e+00 
7.2616655e-01 2.3913043e+00 0.0000000e+00 
7.4523330e-01 3.2608695e+00 0.0000000e+00 
2.7383348e-01 7.6086955e+00 0.0000000e+00 
2.7383348e-01 6.7391305e+00 0.0000000e+00 
7.2616655e-01 6.3043480e+00 0.0000000e+00 
3.2023889e-01 5.4951692e+00 0.0000000e+00 
6.8816102e-01 3.6211755e+00 0.0000000e+00 
2.1652056e-01 2.6494476e-01 0.0000000e+00 
7.8347945e-01 9.7350550e+00 0.0000000e+00 
7.6049292e-01 2.8052974e-01 0.0000000e+00 
2.3950709e-01 9.7194700e+00 0.0000000e+00 

CELLS 146 584
3 74 87 76
3 73 79 75
3 77 94 56
3 56 94 70
3 90 95 62
3 72 83 78
3 72 78 57
3 62 95 71
3 55 79 73
3 54 87 74
3 52 99 73
3 53 98 74
3 73 99 30
3 74 98 6
3 66 92 59
3 64 91 60
3 60 81 64
3 63 86 61
3 62 88 67
3 61 89 63
3 72 85 58
3 67 90 62
3 65 77 56
3 56 93 65
3 58 83 72
3 59 80 66
3 54 84 68
3 68 87 54
3 55 82 69
3 69 79 55
3 70 94 58
3 65 93 59
3 66 80 60
3 57 78 71
3 58 85 70
3 59 92 65
3 67 88 63
3 60 91 66
3 69 82 64
3 71 95 57
3 61 86 68
3 63 89 67
3 64 81 69
3 68 84 61
3 75 97 52
3 76 96 53
3 30 99 3
3 2 97 27
3 0 96 51
3 6 98 1
3 23 60 22
3 47 63 46
3 45 62 44
3 15 57 14
3 15 72 57
3 38 65 37
3 41 58 40
3 44 71 43
3 10 61 9
3 56 70 18
3 25 69 24
3 62 71 44
3 49 68 48
3 12 67 11
3 19 56 18
3 34 64 33
3 36 66 35
3 8 54 7
3 16 72 15
3 21 59 20
3 18 70 17
3 32 55 31
3 31 73 30
3 7 74 6
3 54 74 7
3 55 73 31
3 74 76 53
3 73 75 52
3 69 81 24
3 34 91 64
3 71 78 43
3 10 89 61
3 16 85 72
3 58 94 40
3 57 95 14
3 59 93 20
3 32 82 55
3 41 83 58
3 36 92 66
3 70 85 17
3 21 80 59
3 25 79 69
3 45 88 62
3 63 88 46
3 47 86 63
3 12 90 67
3 23 81 60
3 68 86 48
3 66 91 35
3 38 77 65
3 19 93 56
3 8 84 54
3 60 80 22
3 49 87 68
3 65 92 37
3 67 89 11
3 61 84 9
3 64 82 33
3 27 97 75
3 51 96 76
3 5 53 4
3 29 52 28
3 27 75 26
3 51 76 50
3 75 79 26
3 76 87 50
3 78 83 42
3 40 94 39
3 24 81 23
3 33 82 32
3 39 94 77
3 43 78 42
3 9 84 8
3 17 85 16
3 11 89 10
3 14 95 13
3 13 90 12
3 26 79 25
3 35 91 34
3 37 92 36
3 48 86 47
3 50 87 49
3 46 88 45
3 13 95 90
3 39 77 38
3 20 93 19
3 42 83 41
3 22 80 21
3 29 99 52
3 5 98 53
3 52 97 28
3 53 96 4
3 1 98 5
3 3 99 29
3 4 96 0
3 28 97 2

CELL_TYPES 146
5
5
5
5
5
5
5
5
5
5
5
5
5
5
5
5
5
5
5
5
5
5
5
5
5
5
5
5
5
5
5
5
5
5
5
5
5
5
5
5
5
5
5
5
5
5
5
5
5
5
5
5
5
5
5
5
5
5
5
5
5
5
5
5
5
5
5
5
5
5
5
5
5
5
5
5
5
5
5
5
5
5
5
5
5
5
5
5
5
5
5
5
5
5
5
5
5
5
5
5
5
5
5
5
5
5
5
5
5
5
5
5
5
5
5
5
5
5
5
5
5
5
5
5
5
5
5
5
5
5
5
5
5
5
5
5
5
5
5
5
5
5
5
5
5
5
POINT_DATA 100
FIELD FieldData 1
VELOCITY 3 100  float
0.0000000e+00 0.0000000e+00 0.0000000e+00 
0.0000000e+00 0.0000000e+00 0.0000000e+00 
0.0000000e+00 -2.7884687e-03 0.0000000e+00 
0.0000000e+00 -2.9618470e-03 0.0000000e+00 
0.0000000e+00 0.0000000e+00 0.0000000e+00 
0.0000000e+00 0.0000000e+00 0.0000000e+00 
0.0000000e+00 -7.4121304e-04 0.0000000e+00 
0.0000000e+00 -3.3867452e-04 0.0000000e+00 
0.0000000e+00 3.3496102e-04 0.0000000e+00 
0.0000000e+00 3.3684395e-04 0.0000000e+00 
0.0000000e+00 4.8635842e-04 0.0000000e+00 
0.0000000e+00 6.1720354e-04 0.0000000e+00 
0.0000000e+00 -4.4139198e-04 0.0000000e+00 
0.0000000e+00 -1.4513356e-03 0.0000000e+00 
0.0000000e+00 -1.5819282e-03 0.0000000e+00 
0.0000000e+00 -2.4159129e-03 0.0000000e+00 
0.0000000e+00 -2.6687582e-03 0.0000000e+00 
0.0000000e+00 -2.5026731e-03 0.0000000e+00 
0.0000000e+00 -2.9593401e-03 0.0000000e+00 
0.0000000e+00 -2.7424109e-03 0.0000000e+00 
0.0000000e+00 -2.8255791e-03 0.0000000e+00 
0.0000000e+00 -2.6220523e-03 0.0000000e+00 
0.0000000e+00 -2.8241461e-03 0.0000000e+00 
0.0000000e+00 -2.6748269e-03 0.0000000e+00 
0.0000000e+00 -2.6363363e-03 0.0000000e+00 
0.0000000e+00 -2.8900255e-03 0.0000000e+00 
0.0000000e+00 -3.0781156e-03 0.0000000e+00 
0.0000000e+00 -2.7019884e-03 0.0000000e+00 
-3.5471248e-04 -2.9486890e-03 0.0000000e+00 
6.7194237e-04 -3.1038031e-03 0.0000000e+00 
0.0000000e+00 -2.7760023e-03 0.0000000e+00 
0.0000000e+00 -2.4962614e-03 0.0000000e+00 
0.0000000e+00 -2.9604249e-03 0.0000000e+00 
0.0000000e+00 -2.9129523e-03 0.0000000e+00 
0.0000000e+00 -2.7276929e-03 0.0000000e+00 
0.0000000e+00 -2.9285382e-03 0.0000000e+00 
0.0000000e+00 -2.8174263e-03 0.0000000e+00 
0.0000000e+00 -2.9393625e-03 0.0000000e+00 
0.0000000e+00 -2.5434426e-03 0.0000000e+00 
0.0000000e+00 -2.9913886e-03 0.0000000e+00 
0.0000000e+00 -2.5474667e-03 0.0000000e+00 
0.0000000e+00 -2.5181391e-03 0.0000000e+00 
0.0000000e+00 -2.3722423e-03 0.0000000e+00 
0.0000000e+00 -1.6366792e-03 0.0000000e+00 
0.0000000e+00 -1.4166697e-03 0.0000000e+00 
0.0000000e+00 -4.9129478e-04 0.0000000e+00 
0.0000000e+00 5.7497865e-04 0.0000000e+00 
0.0000000e+00 5.0429424e-04 0.0000000e+00 
0.0000000e+00 4.4048380e-04 0.0000000e+00 
0.0000000e+00 3.4367639e-04 0.0000000e+00 
0.0000000e+00 -3.3269546e-04 0.0000000e+00 
0.0000000e+00 -7.1635260e-04 0.0000000e+00 
-3.4561221e-05 -2.4709736e-03 0.0000000e+00 
8.1665007e-07 -6.1064359e-04 0.0000000e+00 
2.3259998e-05 1.6050310e-04 0.0000000e+00 
9.6951240e-05 -2.9068592e-03 0.0000000e+00 
6.7422647e-05 -2.6952382e-03 0.0000000e+00 
-6.9652262e-05 -1.8226568e-03 0.0000000e+00 
-2.8789540e-05 -2.5216972e-03 0.0000000e+00 
3.5902754e-05 -2.9095518e-03 0.0000000e+00 
2.7329193e-05 -2.8841146e-03 0.0000000e+00 
2.2306112e-05 4.3980687e-04 0.0000000e+00 
3.8739658e-05 -1.0720260e-03 0.0000000e+00 
-4.9289622e-05 6.9809210e-04 0.0000000e+00 
1.2001341e-04 -2.8652337e-03 0.0000000e+00 
1.0130338e-05 -2.7538976e-03 0.0000000e+00 
-2.2129398e-06 -2.6273290e-03 0.0000000e+00 
-1.8442346e-05 1.7824915e-04 0.0000000e+00 
4.2107754e-06 4.3213379e-04 0.0000000e+00 
5.4537155e-05 -2.8987962e-03 0.0000000e+00 
-1.0213782e-04 -2.7155909e-03 0.0000000e+00 
-3.0821626e-05 -1.5689817e-03 0.0000000e+00 
5.8232417e-05 -2.5902693e-03 0.0000000e+00 
2.0327321e-05 -3.0965440e-03 0.0000000e+00 
3.5605372e-06 -6.5625232e-04 0.0000000e+00 
3.3598961e-05 -2.7832075e-03 0.0000000e+00 
-1.0857751e-05 -6.9324439e-04 0.0000000e+00 
-7.6227509e-05 -2.7607463e-03 0.0000000e+00 
-6.6495313e-06 -2.1550243e-03 0.0000000e+00 
-1.7228043e-05 -2.5275934e-03 0.0000000e+00 
-5.2841086e-05 -2.8856150e-03 0.0000000e+00 
-7.8084224e-05 -2.8167369e-03 0.0000000e+00 
-1.1006427e-04 -2.5614121e-03 0.0000000e+00 
3.9457085e-05 -2.6009702e-03 0.0000000e+00 
-2.8435154e-05 4.0656063e-04 0.0000000e+00 
5.7435176e-05 -2.4812857e-03 0.0000000e+00 
3.5413483e-05 4.5244195e-04 0.0000000e+00 
9.1135498e-06 -4.1744133e-05 0.0000000e+00 
2.2467764e-05 1.6734323e-04 0.0000000e+00 
2.0666477e-05 6.4684136e-04 0.0000000e+00 
-1.6179395e-06 -1.0658955e-03 0.0000000e+00 
-7.4846328e-05 -2.7622778e-03 0.0000000e+00 
-2.6592383e-05 -2.7859327e-03 0.0000000e+00 
-6.0708258e-05 -2.8020607e-03 0.0000000e+00 
7.3128424e-05 -2.8436140e-03 0.0000000e+00 
4.6968024e-05 -1.4894489e-03 0.0000000e+00 
1.1796169e-05 -5.2338466e-04 0.0000000e+00 
1.6217130e-04 -2.8867684e-03 0.0000000e+00 
-2.4845507e-05 -5.6391221e-04 0.0000000e+00 
-3.0241939e-04 -2.6017185e-03 0.0000000e+00 
CELL_DATA 146
FIELD FieldData 0
