# vtk DataFile Version 4.0
vtk output
ASCII
DATASET UNSTRUCTURED_GRID
POINTS 100 float
0.0000000e+00 0.0000000e+00 0.0000000e+00 
1.0000000e+00 0.0000000e+00 0.0000000e+00 
1.0000000e+00 1.0000000e+01 0.0000000e+00 
0.0000000e+00 1.0000000e+01 0.0000000e+00 
3.3333334e-01 0.0000000e+00 0.0000000e+00 
6.6666669e-01 0.0000000e+00 0.0000000e+00 
1.0000000e+00 4.3478259e-01 0.0000000e+00 
1.0000000e+00 8.6956519e-01 0.0000000e+00 
1.0000000e+00 1.3043479e+00 0.0000000e+00 
1.0000000e+00 1.7391304e+00 0.0000000e+00 
1.0000000e+00 2.1739130e+00 0.0000000e+00 
1.0000000e+00 2.6086957e+00 0.0000000e+00 
1.0000000e+00 3.0434783e+00 0.0000000e+00 
1.0000000e+00 3.4782608e+00 0.0000000e+00 
1.0000000e+00 3.9130435e+00 0.0000000e+00 
1.0000000e+00 4.3478260e+00 0.0000000e+00 
1.0000000e+00 4.7826085e+00 0.0000000e+00 
1.0000000e+00 5.2173915e+00 0.0000000e+00 
1.0000000e+00 5.6521740e+00 0.0000000e+00 
1.0000000e+00 6.0869565e+00 0.0000000e+00 
1.0000000e+00 6.5217390e+00 0.0000000e+00 
1.0000000e+00 6.9565215e+00 0.0000000e+00 
1.0000000e+00 7.3913045e+00 0.0000000e+00 
1.0000000e+00 7.8260870e+00 0.0000000e+00 
1.0000000e+00 8.2608700e+00 0.0000000e+00 
1.0000000e+00 8.6956520e+00 0.0000000e+00 
1.0000000e+00 9.1304350e+00 0.0000000e+00 
1.0000000e+00 9.5652170e+00 0.0000000e+00 
6.6666669e-01 1.0000000e+01 0.0000000e+00 
3.3333334e-01 1.0000000e+01 0.0000000e+00 
0.0000000e+00 9.5652170e+00 0.0000000e+00 
0.0000000e+00 9.1304350e+00 0.0000000e+00 
0.0000000e+00 8.6956520e+00 0.0000000e+00 
0.0000000e+00 8.2608700e+00 0.0000000e+00 
0.0000000e+00 7.8260870e+00 0.0000000e+00 
0.0000000e+00 7.3913045e+00 0.0000000e+00 
0.0000000e+00 6.9565215e+00 0.0000000e+00 
0.0000000e+00 6.5217390e+00 0.0000000e+00 
0.0000000e+00 6.0869565e+00 0.0000000e+00 
0.0000000e+00 5.6521740e+00 0.0000000e+00 
0.0000000e+00 5.2173915e+00 0.0000000e+00 
0.0000000e+00 4.7826085e+00 0.0000000e+00 
0.0000000e+00 4.3478260e+00 0.0000000e+00 
0.0000000e+00 3.9130435e+00 0.0000000e+00 
0.0000000e+00 3.4782608e+00 0.0000000e+00 
0.0000000e+00 3.0434783e+00 0.0000000e+00 
0.0000000e+00 2.6086957e+00 0.0000000e+00 
0.0000000e+00 2.1739130e+00 0.0000000e+00 
0.0000000e+00 1.7391304e+00 0.0000000e+00 
0.0000000e+00 1.3043479e+00 0.0000000e+00 
0.0000000e+00 8.6956519e-01 0.0000000e+00 
0.0000000e+00 4.3478259e-01 0.0000000e+00 
5.1344687e-01 9.7061529e+00 0.0000000e+00 
4.8655313e-01 2.9384753e-01 0.0000000e+00 
6.6897172e-01 1.1634127e+00 0.0000000e+00 
3.3102828e-01 8.8365870e+00 0.0000000e+00 
6.2346721e-01 5.8695650e+00 0.0000000e+00 
6.6666669e-01 4.0579710e+00 0.0000000e+00 
3.7653279e-01 5.0000000e+00 0.0000000e+00 
6.2346721e-01 6.7391305e+00 0.0000000e+00 
6.2346721e-01 7.6086955e+00 0.0000000e+00 
6.2346721e-01 1.9565217e+00 0.0000000e+00 
3.7653279e-01 3.2608695e+00 0.0000000e+00 
3.7653279e-01 2.3913043e+00 0.0000000e+00 
3.7653279e-01 8.0434780e+00 0.0000000e+00 
3.7653279e-01 6.3043480e+00 0.0000000e+00 
3.7653279e-01 7.1739130e+00 0.0000000e+00 
6.2346721e-01 2.8260870e+00 0.0000000e+00 
3.6661035e-01 1.5326614e+00 0.0000000e+00 
6.3338965e-01 8.4673386e+00 0.0000000e+00 
6.6666669e-01 5.3623190e+00 0.0000000e+00 
3.4053326e-01 3.7560387e+00 0.0000000e+00 
6.1671901e-01 4.5548654e+00 0.0000000e+00 
3.5075530e-01 9.3259811e+00 0.0000000e+00 
6.4924473e-01 6.7401856e-01 0.0000000e+00 
7.3728365e-01 9.4039068e+00 0.0000000e+00 
2.6271632e-01 5.9609360e-01 0.0000000e+00 
2.5476670e-01 5.8695650e+00 0.0000000e+00 
3.1629205e-01 4.1991606e+00 0.0000000e+00 
6.8991148e-01 8.9584770e+00 0.0000000e+00 
7.2616655e-01 7.1739130e+00 0.0000000e+00 
7.2667795e-01 8.0412941e+00 0.0000000e+00 
2.6819015e-01 8.4607849e+00 0.0000000e+00 
2.6190877e-01 4.5768919e+00 0.0000000e+00 
7.3180985e-01 1.5392148e+00 0.0000000e+00 
7.3198366e-01 4.9834371e+00 0.0000000e+00 
2.7332208e-01 1.9587063e+00 0.0000000e+00 
3.1008852e-01 1.0415232e+00 0.0000000e+00 
2.7383348e-01 2.8260870e+00 0.0000000e+00 
7.2616655e-01 2.3913043e+00 0.0000000e+00 
7.4523330e-01 3.2608695e+00 0.0000000e+00 
2.7383348e-01 7.6086955e+00 0.0000000e+00 
2.7383348e-01 6.7391305e+00 0.0000000e+00 
7.2616655e-01 6.3043480e+00 0.0000000e+00 
3.2023889e-01 5.4951692e+00 0.0000000e+00 
6.8816102e-01 3.6211755e+00 0.0000000e+00 
2.1652056e-01 2.6494476e-01 0.0000000e+00 
7.8347945e-01 9.7350550e+00 0.0000000e+00 
7.6049292e-01 2.8052974e-01 0.0000000e+00 
2.3950709e-01 9.7194700e+00 0.0000000e+00 

CELLS 146 584
3 74 87 76
3 73 79 75
3 77 94 56
3 56 94 70
3 90 95 62
3 72 83 78
3 72 78 57
3 62 95 71
3 55 79 73
3 54 87 74
3 52 99 73
3 53 98 74
3 73 99 30
3 74 98 6
3 66 92 59
3 64 91 60
3 60 81 64
3 63 86 61
3 62 88 67
3 61 89 63
3 72 85 58
3 67 90 62
3 65 77 56
3 56 93 65
3 58 83 72
3 59 80 66
3 54 84 68
3 68 87 54
3 55 82 69
3 69 79 55
3 70 94 58
3 65 93 59
3 66 80 60
3 57 78 71
3 58 85 70
3 59 92 65
3 67 88 63
3 60 91 66
3 69 82 64
3 71 95 57
3 61 86 68
3 63 89 67
3 64 81 69
3 68 84 61
3 75 97 52
3 76 96 53
3 30 99 3
3 2 97 27
3 0 96 51
3 6 98 1
3 23 60 22
3 47 63 46
3 45 62 44
3 15 57 14
3 15 72 57
3 38 65 37
3 41 58 40
3 44 71 43
3 10 61 9
3 56 70 18
3 25 69 24
3 62 71 44
3 49 68 48
3 12 67 11
3 19 56 18
3 34 64 33
3 36 66 35
3 8 54 7
3 16 72 15
3 21 59 20
3 18 70 17
3 32 55 31
3 31 73 30
3 7 74 6
3 54 74 7
3 55 73 31
3 74 76 53
3 73 75 52
3 69 81 24
3 34 91 64
3 71 78 43
3 10 89 61
3 16 85 72
3 58 94 40
3 57 95 14
3 59 93 20
3 32 82 55
3 41 83 58
3 36 92 66
3 70 85 17
3 21 80 59
3 25 79 69
3 45 88 62
3 63 88 46
3 47 86 63
3 12 90 67
3 23 81 60
3 68 86 48
3 66 91 35
3 38 77 65
3 19 93 56
3 8 84 54
3 60 80 22
3 49 87 68
3 65 92 37
3 67 89 11
3 61 84 9
3 64 82 33
3 27 97 75
3 51 96 76
3 5 53 4
3 29 52 28
3 27 75 26
3 51 76 50
3 75 79 26
3 76 87 50
3 78 83 42
3 40 94 39
3 24 81 23
3 33 82 32
3 39 94 77
3 43 78 42
3 9 84 8
3 17 85 16
3 11 89 10
3 14 95 13
3 13 90 12
3 26 79 25
3 35 91 34
3 37 92 36
3 48 86 47
3 50 87 49
3 46 88 45
3 13 95 90
3 39 77 38
3 20 93 19
3 42 83 41
3 22 80 21
3 29 99 52
3 5 98 53
3 52 97 28
3 53 96 4
3 1 98 5
3 3 99 29
3 4 96 0
3 28 97 2

CELL_TYPES 146
5
5
5
5
5
5
5
5
5
5
5
5
5
5
5
5
5
5
5
5
5
5
5
5
5
5
5
5
5
5
5
5
5
5
5
5
5
5
5
5
5
5
5
5
5
5
5
5
5
5
5
5
5
5
5
5
5
5
5
5
5
5
5
5
5
5
5
5
5
5
5
5
5
5
5
5
5
5
5
5
5
5
5
5
5
5
5
5
5
5
5
5
5
5
5
5
5
5
5
5
5
5
5
5
5
5
5
5
5
5
5
5
5
5
5
5
5
5
5
5
5
5
5
5
5
5
5
5
5
5
5
5
5
5
5
5
5
5
5
5
5
5
5
5
5
5
POINT_DATA 100
FIELD FieldData 1
VELOCITY 3 100  float
0.0000000e+00 0.0000000e+00 0.0000000e+00 
0.0000000e+00 0.0000000e+00 0.0000000e+00 
0.0000000e+00 -3.5174380e-03 0.0000000e+00 
0.0000000e+00 -1.5955095e-03 0.0000000e+00 
0.0000000e+00 0.0000000e+00 0.0000000e+00 
0.0000000e+00 0.0000000e+00 0.0000000e+00 
0.0000000e+00 -7.6592499e-08 0.0000000e+00 
0.0000000e+00 -2.4157376e-07 0.0000000e+00 
0.0000000e+00 -6.9394133e-07 0.0000000e+00 
0.0000000e+00 -1.8372210e-06 0.0000000e+00 
0.0000000e+00 -4.9048035e-06 0.0000000e+00 
0.0000000e+00 -1.2090448e-05 0.0000000e+00 
0.0000000e+00 -2.9453628e-05 0.0000000e+00 
0.0000000e+00 -6.4706714e-05 0.0000000e+00 
0.0000000e+00 -1.3770712e-04 0.0000000e+00 
0.0000000e+00 -2.7471455e-04 0.0000000e+00 
0.0000000e+00 -5.0355622e-04 0.0000000e+00 
0.0000000e+00 -8.3326380e-04 0.0000000e+00 
0.0000000e+00 -1.2437861e-03 0.0000000e+00 
0.0000000e+00 -1.6553876e-03 0.0000000e+00 
0.0000000e+00 -2.0241591e-03 0.0000000e+00 
0.0000000e+00 -2.4301012e-03 0.0000000e+00 
0.0000000e+00 -3.0068092e-03 0.0000000e+00 
0.0000000e+00 -3.7754830e-03 0.0000000e+00 
0.0000000e+00 -3.5208361e-03 0.0000000e+00 
0.0000000e+00 -2.3787117e-03 0.0000000e+00 
0.0000000e+00 -2.5661013e-03 0.0000000e+00 
0.0000000e+00 -2.7801495e-03 0.0000000e+00 
-1.7947658e-03 7.0438487e-04 0.0000000e+00 
-2.4936849e-03 4.7253384e-04 0.0000000e+00 
0.0000000e+00 -3.0752104e-03 0.0000000e+00 
0.0000000e+00 -3.0983272e-03 0.0000000e+00 
0.0000000e+00 -3.0024727e-03 0.0000000e+00 
0.0000000e+00 -2.0090779e-03 0.0000000e+00 
0.0000000e+00 -2.1313254e-03 0.0000000e+00 
0.0000000e+00 -2.8616632e-03 0.0000000e+00 
0.0000000e+00 -3.1367170e-03 0.0000000e+00 
0.0000000e+00 -2.8913009e-03 0.0000000e+00 
0.0000000e+00 -2.1269796e-03 0.0000000e+00 
0.0000000e+00 -1.3127238e-03 0.0000000e+00 
0.0000000e+00 -7.0693990e-04 0.0000000e+00 
0.0000000e+00 -3.5229599e-04 0.0000000e+00 
0.0000000e+00 -1.5830384e-04 0.0000000e+00 
0.0000000e+00 -6.4454005e-05 0.0000000e+00 
0.0000000e+00 -2.4030138e-05 0.0000000e+00 
0.0000000e+00 -8.7709595e-06 0.0000000e+00 
0.0000000e+00 -3.3873487e-06 0.0000000e+00 
0.0000000e+00 -1.1434662e-06 0.0000000e+00 
0.0000000e+00 -4.1726884e-07 0.0000000e+00 
0.0000000e+00 -1.2480936e-07 0.0000000e+00 
0.0000000e+00 -4.1387519e-08 0.0000000e+00 
0.0000000e+00 -1.1059782e-08 0.0000000e+00 
-2.0222098e-03 -1.7019633e-03 0.0000000e+00 
4.2661954e-09 -2.5350296e-08 0.0000000e+00 
1.1190224e-07 -4.0135006e-07 0.0000000e+00 
1.3111188e-04 -2.6594079e-03 0.0000000e+00 
1.2045064e-04 -1.4883592e-03 0.0000000e+00 
3.1636413e-05 -1.5633010e-04 0.0000000e+00 
1.0463363e-04 -5.4882938e-04 0.0000000e+00 
-7.7420416e-05 -2.4077352e-03 0.0000000e+00 
-6.1296695e-04 -3.5220033e-03 0.0000000e+00 
6.6087688e-07 -2.3121681e-06 0.0000000e+00 
8.2685701e-06 -2.5042056e-05 0.0000000e+00 
1.3311140e-06 -3.8499734e-06 0.0000000e+00 
-1.8671696e-04 -2.8733900e-03 0.0000000e+00 
4.0634939e-05 -2.2465528e-03 0.0000000e+00 
-3.5668761e-04 -3.0949165e-03 0.0000000e+00 
3.8197641e-06 -1.5175003e-05 0.0000000e+00 
2.0004299e-07 -5.1865095e-07 0.0000000e+00 
4.6475654e-04 -2.9653080e-03 0.0000000e+00 
1.0456392e-04 -9.3923468e-04 0.0000000e+00 
1.9311612e-05 -6.4839420e-05 0.0000000e+00 
6.3296829e-05 -3.2987935e-04 0.0000000e+00 
1.6352895e-05 -2.3649530e-03 0.0000000e+00 
3.6154074e-08 -1.1831269e-07 0.0000000e+00 
-5.4094725e-04 -2.2202863e-03 0.0000000e+00 
1.4832843e-08 -3.7911352e-08 0.0000000e+00 
9.5847521e-05 -1.6227643e-03 0.0000000e+00 
3.6604550e-05 -1.4420334e-04 0.0000000e+00 
-1.3574537e-04 -2.7016387e-03 0.0000000e+00 
-1.2130802e-04 -2.7883537e-03 0.0000000e+00 
-3.6430018e-04 -3.8124644e-03 0.0000000e+00 
3.8172008e-04 -2.6141838e-03 0.0000000e+00 
5.3764419e-05 -2.7030555e-04 0.0000000e+00 
3.0125528e-07 -1.0548252e-06 0.0000000e+00 
6.9303875e-05 -6.1870075e-04 0.0000000e+00 
4.3604879e-07 -1.2497160e-06 0.0000000e+00 
5.6044993e-08 -1.4452002e-07 0.0000000e+00 
2.6533050e-06 -8.7523767e-06 0.0000000e+00 
1.7251886e-06 -6.8885320e-06 0.0000000e+00 
8.3101322e-06 -4.0865780e-05 0.0000000e+00 
-3.7200633e-04 -2.8695508e-03 0.0000000e+00 
-1.6524055e-04 -2.9377616e-03 0.0000000e+00 
3.0579700e-05 -1.9205074e-03 0.0000000e+00 
1.3814720e-04 -1.0555728e-03 0.0000000e+00 
1.6473716e-05 -7.4944597e-05 0.0000000e+00 
1.2679777e-09 -1.0456803e-08 0.0000000e+00 
-1.5223300e-03 -1.6075729e-03 0.0000000e+00 
8.3113418e-09 -4.1459252e-08 0.0000000e+00 
-1.2688048e-03 -2.1165251e-03 0.0000000e+00 
CELL_DATA 146
FIELD FieldData 0
