# vtk DataFile Version 4.0
vtk output
ASCII
DATASET UNSTRUCTURED_GRID
POINTS 1919 float
0.0000000e+00 0.0000000e+00 0.0000000e+00 
0.0000000e+00 0.0000000e+00 5.0000000e+01 
5.0000000e+00 0.0000000e+00 0.0000000e+00 
5.0000000e+00 0.0000000e+00 5.0000000e+01 
5.0000000e+00 1.0000000e+00 0.0000000e+00 
5.0000000e+00 1.0000000e+00 5.0000000e+01 
0.0000000e+00 1.0000000e+00 0.0000000e+00 
0.0000000e+00 1.0000000e+00 5.0000000e+01 
5.0000000e+00 2.0000000e+00 0.0000000e+00 
5.0000000e+00 2.0000000e+00 5.0000000e+01 
3.0000000e+00 2.0000000e+00 0.0000000e+00 
3.0000000e+00 2.0000000e+00 5.0000000e+01 
0.0000000e+00 2.0000000e+00 0.0000000e+00 
0.0000000e+00 2.0000000e+00 5.0000000e+01 
1.5000000e+00 3.0000000e+00 0.0000000e+00 
1.5000000e+00 3.0000000e+00 5.0000000e+01 
7.5000000e-01 3.0000000e+00 0.0000000e+00 
7.5000000e-01 3.0000000e+00 5.0000000e+01 
0.0000000e+00 3.0000000e+00 0.0000000e+00 
0.0000000e+00 3.0000000e+00 5.0000000e+01 
7.5000000e-01 3.0000000e+00 5.0000000e-01 
7.5000000e-01 3.0000000e+00 1.0000000e+00 
7.5000000e-01 3.0000000e+00 1.5000000e+00 
7.5000000e-01 3.0000000e+00 2.0000000e+00 
7.5000000e-01 3.0000000e+00 2.5000000e+00 
7.5000000e-01 3.0000000e+00 3.0000000e+00 
7.5000000e-01 3.0000000e+00 3.5000000e+00 
7.5000000e-01 3.0000000e+00 4.0000000e+00 
7.5000000e-01 3.0000000e+00 4.5000000e+00 
7.5000000e-01 3.0000000e+00 5.0000000e+00 
7.5000000e-01 3.0000000e+00 5.5000000e+00 
7.5000000e-01 3.0000000e+00 6.0000000e+00 
7.5000000e-01 3.0000000e+00 6.5000000e+00 
7.5000000e-01 3.0000000e+00 7.0000000e+00 
7.5000000e-01 3.0000000e+00 7.5000000e+00 
7.5000000e-01 3.0000000e+00 8.0000000e+00 
7.5000000e-01 3.0000000e+00 8.5000000e+00 
7.5000000e-01 3.0000000e+00 9.0000000e+00 
7.5000000e-01 3.0000000e+00 9.5000000e+00 
7.5000000e-01 3.0000000e+00 1.0000000e+01 
7.5000000e-01 3.0000000e+00 1.0500000e+01 
7.5000000e-01 3.0000000e+00 1.1000000e+01 
7.5000000e-01 3.0000000e+00 1.1500000e+01 
7.5000000e-01 3.0000000e+00 1.2000000e+01 
7.5000000e-01 3.0000000e+00 1.2500000e+01 
7.5000000e-01 3.0000000e+00 1.3000000e+01 
7.5000000e-01 3.0000000e+00 1.3500000e+01 
7.5000000e-01 3.0000000e+00 1.4000000e+01 
7.5000000e-01 3.0000000e+00 1.4500000e+01 
7.5000000e-01 3.0000000e+00 1.5000000e+01 
7.5000000e-01 3.0000000e+00 1.5500000e+01 
7.5000000e-01 3.0000000e+00 1.6000000e+01 
7.5000000e-01 3.0000000e+00 1.6500000e+01 
7.5000000e-01 3.0000000e+00 1.7000000e+01 
7.5000000e-01 3.0000000e+00 1.7500000e+01 
7.5000000e-01 3.0000000e+00 1.8000000e+01 
7.5000000e-01 3.0000000e+00 1.8500000e+01 
7.5000000e-01 3.0000000e+00 1.9000000e+01 
7.5000000e-01 3.0000000e+00 1.9500000e+01 
7.5000000e-01 3.0000000e+00 2.0000000e+01 
7.5000000e-01 3.0000000e+00 2.0500000e+01 
7.5000000e-01 3.0000000e+00 2.1000000e+01 
7.5000000e-01 3.0000000e+00 2.1500000e+01 
7.5000000e-01 3.0000000e+00 2.2000000e+01 
7.5000000e-01 3.0000000e+00 2.2500000e+01 
7.5000000e-01 3.0000000e+00 2.3000000e+01 
7.5000000e-01 3.0000000e+00 2.3500000e+01 
7.5000000e-01 3.0000000e+00 2.4000000e+01 
7.5000000e-01 3.0000000e+00 2.4500000e+01 
7.5000000e-01 3.0000000e+00 2.5000000e+01 
7.5000000e-01 3.0000000e+00 2.5500000e+01 
7.5000000e-01 3.0000000e+00 2.6000000e+01 
7.5000000e-01 3.0000000e+00 2.6500000e+01 
7.5000000e-01 3.0000000e+00 2.7000000e+01 
7.5000000e-01 3.0000000e+00 2.7500000e+01 
7.5000000e-01 3.0000000e+00 2.8000000e+01 
7.5000000e-01 3.0000000e+00 2.8500000e+01 
7.5000000e-01 3.0000000e+00 2.9000000e+01 
7.5000000e-01 3.0000000e+00 2.9500000e+01 
7.5000000e-01 3.0000000e+00 3.0000000e+01 
7.5000000e-01 3.0000000e+00 3.0500000e+01 
7.5000000e-01 3.0000000e+00 3.1000000e+01 
7.5000000e-01 3.0000000e+00 3.1500000e+01 
7.5000000e-01 3.0000000e+00 3.2000000e+01 
7.5000000e-01 3.0000000e+00 3.2500000e+01 
7.5000000e-01 3.0000000e+00 3.3000000e+01 
7.5000000e-01 3.0000000e+00 3.3500000e+01 
7.5000000e-01 3.0000000e+00 3.4000000e+01 
7.5000000e-01 3.0000000e+00 3.4500000e+01 
7.5000000e-01 3.0000000e+00 3.5000000e+01 
7.5000000e-01 3.0000000e+00 3.5500000e+01 
7.5000000e-01 3.0000000e+00 3.6000000e+01 
7.5000000e-01 3.0000000e+00 3.6500000e+01 
7.5000000e-01 3.0000000e+00 3.7000000e+01 
7.5000000e-01 3.0000000e+00 3.7500000e+01 
7.5000000e-01 3.0000000e+00 3.8000000e+01 
7.5000000e-01 3.0000000e+00 3.8500000e+01 
7.5000000e-01 3.0000000e+00 3.9000000e+01 
7.5000000e-01 3.0000000e+00 3.9500000e+01 
7.5000000e-01 3.0000000e+00 4.0000000e+01 
7.5000000e-01 3.0000000e+00 4.0500000e+01 
7.5000000e-01 3.0000000e+00 4.1000000e+01 
7.5000000e-01 3.0000000e+00 4.1500000e+01 
7.5000000e-01 3.0000000e+00 4.2000000e+01 
7.5000000e-01 3.0000000e+00 4.2500000e+01 
7.5000000e-01 3.0000000e+00 4.3000000e+01 
7.5000000e-01 3.0000000e+00 4.3500000e+01 
7.5000000e-01 3.0000000e+00 4.4000000e+01 
7.5000000e-01 3.0000000e+00 4.4500000e+01 
7.5000000e-01 3.0000000e+00 4.5000000e+01 
7.5000000e-01 3.0000000e+00 4.5500000e+01 
7.5000000e-01 3.0000000e+00 4.6000000e+01 
7.5000000e-01 3.0000000e+00 4.6500000e+01 
7.5000000e-01 3.0000000e+00 4.7000000e+01 
7.5000000e-01 3.0000000e+00 4.7500000e+01 
7.5000000e-01 3.0000000e+00 4.8000000e+01 
7.5000000e-01 3.0000000e+00 4.8500000e+01 
7.5000000e-01 3.0000000e+00 4.9000000e+01 
7.5000000e-01 3.0000000e+00 4.9500000e+01 
7.5000000e-01 3.0250001e+00 0.0000000e+00 
7.5000000e-01 3.0250001e+00 5.0000000e-01 
7.5000000e-01 3.0250001e+00 1.0000000e+00 
7.5000000e-01 3.0250001e+00 1.5000000e+00 
7.5000000e-01 3.0250001e+00 2.0000000e+00 
7.5000000e-01 3.0250001e+00 2.5000000e+00 
7.5000000e-01 3.0250001e+00 3.0000000e+00 
7.5000000e-01 3.0250001e+00 3.5000000e+00 
7.5000000e-01 3.0250001e+00 4.0000000e+00 
7.5000000e-01 3.0250001e+00 4.5000000e+00 
7.5000000e-01 3.0250001e+00 5.0000000e+00 
7.5000000e-01 3.0250001e+00 5.5000000e+00 
7.5000000e-01 3.0250001e+00 6.0000000e+00 
7.5000000e-01 3.0250001e+00 6.5000000e+00 
7.5000000e-01 3.0250001e+00 7.0000000e+00 
7.5000000e-01 3.0250001e+00 7.5000000e+00 
7.5000000e-01 3.0250001e+00 8.0000000e+00 
7.5000000e-01 3.0250001e+00 8.5000000e+00 
7.5000000e-01 3.0250001e+00 9.0000000e+00 
7.5000000e-01 3.0250001e+00 9.5000000e+00 
7.5000000e-01 3.0250001e+00 1.0000000e+01 
7.5000000e-01 3.0250001e+00 1.0500000e+01 
7.5000000e-01 3.0250001e+00 1.1000000e+01 
7.5000000e-01 3.0250001e+00 1.1500000e+01 
7.5000000e-01 3.0250001e+00 1.2000000e+01 
7.5000000e-01 3.0250001e+00 1.2500000e+01 
7.5000000e-01 3.0250001e+00 1.3000000e+01 
7.5000000e-01 3.0250001e+00 1.3500000e+01 
7.5000000e-01 3.0250001e+00 1.4000000e+01 
7.5000000e-01 3.0250001e+00 1.4500000e+01 
7.5000000e-01 3.0250001e+00 1.5000000e+01 
7.5000000e-01 3.0250001e+00 1.5500000e+01 
7.5000000e-01 3.0250001e+00 1.6000000e+01 
7.5000000e-01 3.0250001e+00 1.6500000e+01 
7.5000000e-01 3.0250001e+00 1.7000000e+01 
7.5000000e-01 3.0250001e+00 1.7500000e+01 
7.5000000e-01 3.0250001e+00 1.8000000e+01 
7.5000000e-01 3.0250001e+00 1.8500000e+01 
7.5000000e-01 3.0250001e+00 1.9000000e+01 
7.5000000e-01 3.0250001e+00 1.9500000e+01 
7.5000000e-01 3.0250001e+00 2.0000000e+01 
7.5000000e-01 3.0250001e+00 2.0500000e+01 
7.5000000e-01 3.0250001e+00 2.1000000e+01 
7.5000000e-01 3.0250001e+00 2.1500000e+01 
7.5000000e-01 3.0250001e+00 2.2000000e+01 
7.5000000e-01 3.0250001e+00 2.2500000e+01 
7.5000000e-01 3.0250001e+00 2.3000000e+01 
7.5000000e-01 3.0250001e+00 2.3500000e+01 
7.5000000e-01 3.0250001e+00 2.4000000e+01 
7.5000000e-01 3.0250001e+00 2.4500000e+01 
7.5000000e-01 3.0250001e+00 2.5000000e+01 
7.5000000e-01 3.0250001e+00 2.5500000e+01 
7.5000000e-01 3.0250001e+00 2.6000000e+01 
7.5000000e-01 3.0250001e+00 2.6500000e+01 
7.5000000e-01 3.0250001e+00 2.7000000e+01 
7.5000000e-01 3.0250001e+00 2.7500000e+01 
7.5000000e-01 3.0250001e+00 2.8000000e+01 
7.5000000e-01 3.0250001e+00 2.8500000e+01 
7.5000000e-01 3.0250001e+00 2.9000000e+01 
7.5000000e-01 3.0250001e+00 2.9500000e+01 
7.5000000e-01 3.0250001e+00 3.0000000e+01 
7.5000000e-01 3.0250001e+00 3.0500000e+01 
7.5000000e-01 3.0250001e+00 3.1000000e+01 
7.5000000e-01 3.0250001e+00 3.1500000e+01 
7.5000000e-01 3.0250001e+00 3.2000000e+01 
7.5000000e-01 3.0250001e+00 3.2500000e+01 
7.5000000e-01 3.0250001e+00 3.3000000e+01 
7.5000000e-01 3.0250001e+00 3.3500000e+01 
7.5000000e-01 3.0250001e+00 3.4000000e+01 
7.5000000e-01 3.0250001e+00 3.4500000e+01 
7.5000000e-01 3.0250001e+00 3.5000000e+01 
7.5000000e-01 3.0250001e+00 3.5500000e+01 
7.5000000e-01 3.0250001e+00 3.6000000e+01 
7.5000000e-01 3.0250001e+00 3.6500000e+01 
7.5000000e-01 3.0250001e+00 3.7000000e+01 
7.5000000e-01 3.0250001e+00 3.7500000e+01 
7.5000000e-01 3.0250001e+00 3.8000000e+01 
7.5000000e-01 3.0250001e+00 3.8500000e+01 
7.5000000e-01 3.0250001e+00 3.9000000e+01 
7.5000000e-01 3.0250001e+00 3.9500000e+01 
7.5000000e-01 3.0250001e+00 4.0000000e+01 
7.5000000e-01 3.0250001e+00 4.0500000e+01 
7.5000000e-01 3.0250001e+00 4.1000000e+01 
7.5000000e-01 3.0250001e+00 4.1500000e+01 
7.5000000e-01 3.0250001e+00 4.2000000e+01 
7.5000000e-01 3.0250001e+00 4.2500000e+01 
7.5000000e-01 3.0250001e+00 4.3000000e+01 
7.5000000e-01 3.0250001e+00 4.3500000e+01 
7.5000000e-01 3.0250001e+00 4.4000000e+01 
7.5000000e-01 3.0250001e+00 4.4500000e+01 
7.5000000e-01 3.0250001e+00 4.5000000e+01 
7.5000000e-01 3.0250001e+00 4.5500000e+01 
7.5000000e-01 3.0250001e+00 4.6000000e+01 
7.5000000e-01 3.0250001e+00 4.6500000e+01 
7.5000000e-01 3.0250001e+00 4.7000000e+01 
7.5000000e-01 3.0250001e+00 4.7500000e+01 
7.5000000e-01 3.0250001e+00 4.8000000e+01 
7.5000000e-01 3.0250001e+00 4.8500000e+01 
7.5000000e-01 3.0250001e+00 4.9000000e+01 
7.5000000e-01 3.0250001e+00 4.9500000e+01 
7.5000000e-01 3.0250001e+00 5.0000000e+01 
1.5000000e+00 3.0000000e+00 2.5000000e+01 
3.0000000e+00 2.0000000e+00 2.5000000e+01 
4.0000000e+00 2.0000000e+00 2.5000000e+01 
5.0000000e+00 2.0000000e+00 2.5000000e+01 
0.0000000e+00 3.0000000e+00 2.5000000e+01 
0.0000000e+00 0.0000000e+00 1.0000000e+00 
0.0000000e+00 0.0000000e+00 2.0000000e+00 
0.0000000e+00 0.0000000e+00 3.0000000e+00 
0.0000000e+00 0.0000000e+00 4.0000000e+00 
0.0000000e+00 0.0000000e+00 5.0000000e+00 
[...]
POINT_DATA 1919
FIELD FieldData 3
DISPLACEMENT 3 1919  float
0.0000000e+00 0.0000000e+00 0.0000000e+00 
0.0000000e+00 0.0000000e+00 0.0000000e+00 
0.0000000e+00 0.0000000e+00 0.0000000e+00 
0.0000000e+00 0.0000000e+00 0.0000000e+00 
-2.6209889e-07 2.7949309e-07 4.9398095e-06 
-1.2921784e-07 1.0290041e-07 -5.2610272e-07 
0.0000000e+00 2.0560949e-05 0.0000000e+00 
0.0000000e+00 1.1009976e-06 0.0000000e+00 
3.0197423e-06 -2.1807061e-06 4.5644852e-06 
-6.2600526e-07 5.7594065e-07 -1.8156960e-06 
-1.1579320e-06 -1.2279082e-05 -1.6071093e-05 
5.1243660e-07 1.0627092e-07 -2.7627246e-07 
0.0000000e+00 4.1761396e-05 0.0000000e+00 
0.0000000e+00 5.0701726e-07 0.0000000e+00 
1.7759376e-05 -2.1564480e-05 -8.0157952e-06 
1.5784278e-06 -2.1595688e-06 -6.9624446e-07 
2.7335342e-05 -3.5215890e-05 -2.4729059e-05 
-1.3170071e-06 -1.7071445e-06 2.6237674e-07 
0.0000000e+00 4.4678767e-05 0.0000000e+00 
0.0000000e+00 7.0830197e-07 0.0000000e+00 
2.6893314e-05 -3.2348642e-05 -2.7202575e-05 
3.1257441e-05 -2.4585805e-05 -2.9873765e-05 
2.5212525e-05 -1.3029166e-05 -1.5202628e-05 
3.3326643e-05 -7.0666050e-07 -1.0946726e-05 
3.2978714e-05 6.1819901e-06 -1.3045041e-05 
2.2007454e-05 3.7790653e-06 -1.1223073e-05 
2.1866539e-05 -2.8219677e-06 -2.1300866e-05 
1.8070767e-05 -2.0003706e-06 -1.5797910e-05 
9.9755707e-06 1.1262056e-05 -4.8860393e-06 
2.5279765e-05 3.1753225e-05 -1.9866563e-06 
1.3801898e-05 4.4474764e-05 -6.7453396e-07 
3.0870298e-05 3.6126716e-05 2.2486358e-06 
1.5339378e-06 1.8697085e-05 -1.8814921e-05 
3.1756561e-05 2.7661828e-05 -9.3851795e-06 
1.6932156e-05 7.9521698e-05 2.3726568e-06 
3.4356835e-05 1.4023301e-04 9.0514777e-06 
3.4081910e-05 1.4693242e-04 2.8908775e-05 
4.1847736e-05 4.4820124e-05 4.8251841e-05 
2.4342442e-05 -1.7433753e-04 8.9019595e-05 
1.8594428e-05 -5.1119149e-04 1.0412544e-04 
-1.1275938e-05 -1.0292076e-03 2.2717322e-04 
-6.4814216e-05 -1.8379175e-03 1.4853527e-04 
-1.1622640e-04 -3.0275874e-03 2.9578325e-04 
-2.1765706e-04 -4.4294633e-03 1.3851166e-04 
-2.6705518e-04 -5.4267272e-03 1.6434185e-04 
-2.4775977e-04 -5.1644607e-03 1.3078649e-04 
-2.1318106e-04 -4.5076311e-03 8.9928908e-05 
-2.3026449e-04 -4.2225840e-03 5.6536861e-05 
-2.3955213e-04 -4.4798246e-03 5.9322603e-05 
-2.7449912e-04 -4.5945346e-03 -4.6017602e-05 
-2.4643255e-04 -3.6932698e-03 -2.1774881e-04 
-1.9569347e-04 -2.3164644e-03 -1.5874562e-04 
-1.4233390e-04 -1.1061140e-03 -2.7003558e-04 
-8.4541767e-05 -2.9707424e-04 -3.1106765e-04 
-3.0665509e-05 1.0957940e-04 -1.7998191e-04 
-4.9294008e-06 2.2770338e-04 -1.4545121e-04 
2.3189225e-05 2.1037344e-04 -1.2857861e-04 
3.3755307e-05 1.5253646e-04 -1.3105605e-04 
5.7505753e-05 8.8837151e-05 -1.0496398e-04 
6.4787237e-05 2.8485041e-05 -7.6834112e-05 
8.3082879e-05 -1.7644872e-05 -3.2140324e-05 
7.3081828e-05 -3.8307506e-05 4.0623186e-06 
5.7671485e-05 -3.3248063e-05 3.1995150e-05 
5.6365887e-05 -1.0575462e-05 4.2916079e-05 
4.8138631e-05 1.6236372e-05 3.1931992e-05 
3.8170223e-05 3.4064589e-05 1.8619605e-05 
2.9204830e-05 3.7272413e-05 -4.4313592e-06 
3.2282656e-05 3.0380656e-05 1.1795481e-06 
1.3083304e-05 2.6314383e-05 1.1622744e-05 
2.3963108e-05 3.7528545e-05 4.0167570e-06 
3.6853044e-06 6.4526379e-05 4.0771897e-06 
1.8186229e-05 8.6033418e-05 -1.8913785e-06 
1.5622030e-05 8.5277708e-05 -2.2772925e-05 
3.4723191e-05 6.9003137e-05 -1.0076861e-05 
3.4750949e-05 6.9438400e-05 1.6971060e-06 
4.5138673e-05 1.0823668e-04 1.4972810e-05 
2.7729469e-05 1.4859249e-04 6.3394196e-05 
3.6487738e-05 9.1295020e-05 7.2717870e-05 
3.0675496e-05 -1.4203232e-04 1.1691763e-04 
1.4444772e-05 -5.7840598e-04 1.3593421e-04 
-1.2778087e-05 -1.2314112e-03 2.5593059e-04 
-8.4412954e-05 -2.1172611e-03 1.8137429e-04 
-1.4340359e-04 -3.2782704e-03 3.3458698e-04 
-2.4994259e-04 -4.5587700e-03 1.2536444e-04 
-2.9626244e-04 -5.4217339e-03 9.4003452e-05 
-3.2823277e-04 -5.1339502e-03 7.2979739e-05 
-3.0170559e-04 -4.5814179e-03 -9.2341506e-06 
-3.1025842e-04 -4.3693562e-03 -2.6767422e-05 
-2.9363338e-04 -4.5899944e-03 -4.0670788e-05 
-2.6274027e-04 -4.5504742e-03 -9.5033603e-05 
-2.1667995e-04 -3.4913572e-03 -2.8134466e-04 
-1.7747754e-04 -2.0543109e-03 -2.0525297e-04 
-9.4141862e-05 -8.9168659e-04 -3.0703857e-04 
-4.4175496e-05 -1.7811777e-04 -2.0656861e-04 
-4.7137137e-06 1.5179018e-04 -1.9248934e-04 
2.9297506e-05 2.5122555e-04 -1.0341720e-04 
1.9041869e-05 2.3243220e-04 -6.8669782e-05 
2.8335886e-05 1.6108010e-04 -6.7072498e-05 
3.3440378e-05 7.3784984e-05 -4.1020841e-05 
3.0159974e-05 5.5134819e-06 -1.7883376e-05 
3.1810199e-05 -2.4309044e-05 2.3994382e-05 
1.7459906e-05 -2.5414882e-05 4.3326869e-05 
3.7091531e-06 -2.0730809e-05 5.4148521e-05 
5.1897456e-07 -2.0217163e-05 4.9349637e-05 
-8.9965934e-06 -1.9239133e-05 2.8980343e-05 
-6.3331663e-06 -1.1664538e-05 1.2017639e-05 
-6.9857729e-06 1.1507702e-06 2.5938180e-06 
-5.6815911e-06 1.0104740e-05 1.1736690e-06 
-4.3374971e-06 1.0534691e-05 2.1520036e-06 
-5.3744775e-06 6.6114640e-06 2.4965259e-06 
-2.7307242e-06 4.2175470e-06 -7.8693813e-07 
-1.3549553e-06 3.8533681e-06 -2.1055218e-06 
-1.5365021e-06 2.7656963e-06 -5.3716876e-06 
3.9479806e-07 1.6959802e-07 -5.7264169e-06 
1.3849381e-06 -1.7722183e-06 -5.4338730e-06 
1.7265714e-06 -1.3975222e-06 -4.3644031e-06 
2.2880088e-06 2.1401812e-08 -1.1660356e-06 
2.5339943e-06 3.5282994e-07 7.7838962e-07 
1.0774904e-06 -8.4818487e-07 1.3415524e-06 
0.0000000e+00 -3.5252833e-05 0.0000000e+00 
0.0000000e+00 -3.2424574e-05 0.0000000e+00 
0.0000000e+00 -2.4534378e-05 0.0000000e+00 
0.0000000e+00 -1.2855182e-05 0.0000000e+00 
0.0000000e+00 -7.2875071e-07 0.0000000e+00 
0.0000000e+00 5.8879937e-06 0.0000000e+00 
0.0000000e+00 3.4621369e-06 0.0000000e+00 
0.0000000e+00 -2.7334470e-06 0.0000000e+00 
0.0000000e+00 -1.6917584e-06 0.0000000e+00 
0.0000000e+00 1.1780768e-05 0.0000000e+00 
0.0000000e+00 3.1939915e-05 0.0000000e+00 
0.0000000e+00 4.3728458e-05 0.0000000e+00 
0.0000000e+00 3.5129280e-05 0.0000000e+00 
0.0000000e+00 1.8863528e-05 0.0000000e+00 
0.0000000e+00 2.9206300e-05 0.0000000e+00 
0.0000000e+00 8.1112710e-05 0.0000000e+00 
0.0000000e+00 1.4075216e-04 0.0000000e+00 
0.0000000e+00 1.4543183e-04 0.0000000e+00 
0.0000000e+00 4.4146080e-05 0.0000000e+00 
0.0000000e+00 -1.7285848e-04 0.0000000e+00 
0.0000000e+00 -5.0993141e-04 0.0000000e+00 
0.0000000e+00 -1.0288102e-03 0.0000000e+00 
0.0000000e+00 -1.8454985e-03 0.0000000e+00 
0.0000000e+00 -3.0429936e-03 0.0000000e+00 
0.0000000e+00 -4.4605895e-03 0.0000000e+00 
0.0000000e+00 -5.4485556e-03 0.0000000e+00 
0.0000000e+00 -5.1920130e-03 0.0000000e+00 
0.0000000e+00 -4.5285500e-03 0.0000000e+00 
0.0000000e+00 -4.2523830e-03 0.0000000e+00 
0.0000000e+00 -4.5066280e-03 0.0000000e+00 
0.0000000e+00 -4.6253810e-03 0.0000000e+00 
0.0000000e+00 -3.7123358e-03 0.0000000e+00 
0.0000000e+00 -2.3322648e-03 0.0000000e+00 
0.0000000e+00 -1.1143869e-03 0.0000000e+00 
0.0000000e+00 -3.0027208e-04 0.0000000e+00 
0.0000000e+00 1.0910398e-04 0.0000000e+00 
0.0000000e+00 2.3024374e-04 0.0000000e+00 
0.0000000e+00 2.1227682e-04 0.0000000e+00 
0.0000000e+00 1.5305814e-04 0.0000000e+00 
0.0000000e+00 8.8868146e-05 0.0000000e+00 
0.0000000e+00 2.8803306e-05 0.0000000e+00 
0.0000000e+00 -1.7239588e-05 0.0000000e+00 
0.0000000e+00 -3.8382779e-05 0.0000000e+00 
0.0000000e+00 -3.3372435e-05 0.0000000e+00 
0.0000000e+00 -1.0534682e-05 0.0000000e+00 
0.0000000e+00 1.6351694e-05 0.0000000e+00 
0.0000000e+00 3.4011508e-05 0.0000000e+00 
0.0000000e+00 3.6765920e-05 0.0000000e+00 
0.0000000e+00 2.9981435e-05 0.0000000e+00 
0.0000000e+00 2.6669608e-05 0.0000000e+00 
0.0000000e+00 3.8689250e-05 0.0000000e+00 
0.0000000e+00 6.4742038e-05 0.0000000e+00 
0.0000000e+00 8.5373038e-05 0.0000000e+00 
0.0000000e+00 8.4136438e-05 0.0000000e+00 
0.0000000e+00 6.8894820e-05 0.0000000e+00 
0.0000000e+00 7.1359886e-05 0.0000000e+00 
0.0000000e+00 1.1096388e-04 0.0000000e+00 
0.0000000e+00 1.4882152e-04 0.0000000e+00 
0.0000000e+00 8.9991241e-05 0.0000000e+00 
0.0000000e+00 -1.4338127e-04 0.0000000e+00 
0.0000000e+00 -5.7944626e-04 0.0000000e+00 
0.0000000e+00 -1.2302677e-03 0.0000000e+00 
0.0000000e+00 -2.1235198e-03 0.0000000e+00 
0.0000000e+00 -3.2915825e-03 0.0000000e+00 
0.0000000e+00 -4.5897015e-03 0.0000000e+00 
0.0000000e+00 -5.4475372e-03 0.0000000e+00 
0.0000000e+00 -5.1666945e-03 0.0000000e+00 
0.0000000e+00 -4.5989272e-03 0.0000000e+00 
0.0000000e+00 -4.3970519e-03 0.0000000e+00 
0.0000000e+00 -4.6137823e-03 0.0000000e+00 
0.0000000e+00 -4.5822514e-03 0.0000000e+00 
0.0000000e+00 -3.5118824e-03 0.0000000e+00 
0.0000000e+00 -2.0715559e-03 0.0000000e+00 
0.0000000e+00 -8.9921337e-04 0.0000000e+00 
0.0000000e+00 -1.7993915e-04 0.0000000e+00 
0.0000000e+00 1.5376938e-04 0.0000000e+00 
0.0000000e+00 2.5261968e-04 0.0000000e+00 
0.0000000e+00 2.3328299e-04 0.0000000e+00 
0.0000000e+00 1.6138722e-04 0.0000000e+00 
0.0000000e+00 7.4598691e-05 0.0000000e+00 
0.0000000e+00 6.4949636e-06 0.0000000e+00 
0.0000000e+00 -2.4105626e-05 0.0000000e+00 
0.0000000e+00 -2.6058888e-05 0.0000000e+00 
0.0000000e+00 -2.1168606e-05 0.0000000e+00 
0.0000000e+00 -2.0086638e-05 0.0000000e+00 
0.0000000e+00 -1.8964731e-05 0.0000000e+00 
0.0000000e+00 -1.1514898e-05 0.0000000e+00 
0.0000000e+00 9.2982219e-07 0.0000000e+00 
0.0000000e+00 9.8596702e-06 0.0000000e+00 
0.0000000e+00 1.0549992e-05 0.0000000e+00 
0.0000000e+00 6.7897990e-06 0.0000000e+00 
0.0000000e+00 4.2810157e-06 0.0000000e+00 
0.0000000e+00 3.7765572e-06 0.0000000e+00 
0.0000000e+00 2.6953558e-06 0.0000000e+00 
0.0000000e+00 2.0414960e-07 0.0000000e+00 
0.0000000e+00 -1.6867228e-06 0.0000000e+00 
0.0000000e+00 -1.3891046e-06 0.0000000e+00 
0.0000000e+00 -2.8392988e-08 0.0000000e+00 
0.0000000e+00 2.9383389e-07 0.0000000e+00 
0.0000000e+00 -8.3773534e-07 0.0000000e+00 
0.0000000e+00 -1.6642813e-06 0.0000000e+00 
2.7561711e-05 6.0376584e-05 1.4231488e-05 
-9.3085619e-06 -2.5862687e-06 -1.3494002e-06 
-5.5416135e-06 -8.4423555e-06 -3.6635452e-06 
-1.2623272e-05 6.7039491e-06 9.2190221e-06 
0.0000000e+00 1.5729842e-05 0.0000000e+00 
0.0000000e+00 0.0000000e+00 0.0000000e+00 
0.0000000e+00 0.0000000e+00 0.0000000e+00 
0.0000000e+00 0.0000000e+00 0.0000000e+00 
0.0000000e+00 0.0000000e+00 0.0000000e+00 
0.0000000e+00 0.0000000e+00 0.0000000e+00 
0.0000000e+00 0.0000000e+00 0.0000000e+00 
0.0000000e+00 0.0000000e+00 0.0000000e+00 
0.0000000e+00 0.0000000e+00 0.0000000e+00 
0.0000000e+00 0.0000000e+00 0.0000000e+00 
0.0000000e+00 0.0000000e+00 0.0000000e+00 
0.0000000e+00 0.0000000e+00 0.0000000e+00 
0.0000000e+00 0.0000000e+00 0.0000000e+00 
0.0000000e+00 0.0000000e+00 0.0000000e+00 
0.0000000e+00 0.0000000e+00 0.0000000e+00 
0.0000000e+00 0.0000000e+00 0.0000000e+00 
0.0000000e+00 0.0000000e+00 0.0000000e+00 
0.0000000e+00 0.0000000e+00 0.0000000e+00 
0.0000000e+00 0.0000000e+00 0.0000000e+00 
0.0000000e+00 0.0000000e+00 0.0000000e+00 
0.0000000e+00 0.0000000e+00 0.0000000e+00 
0.0000000e+00 0.0000000e+00 0.0000000e+00 
0.0000000e+00 0.0000000e+00 0.0000000e+00 
0.0000000e+00 0.0000000e+00 0.0000000e+00 
0.0000000e+00 0.0000000e+00 0.0000000e+00 
0.0000000e+00 0.0000000e+00 0.0000000e+00 
0.0000000e+00 0.0000000e+00 0.0000000e+00 
0.0000000e+00 0.0000000e+00 0.0000000e+00 
0.0000000e+00 0.0000000e+00 0.0000000e+00 
0.0000000e+00 0.0000000e+00 0.0000000e+00 
0.0000000e+00 0.0000000e+00 0.0000000e+00 
0.0000000e+00 0.0000000e+00 0.0000000e+00 
0.0000000e+00 0.0000000e+00 0.0000000e+00 
0.0000000e+00 0.0000000e+00 0.0000000e+00 
0.0000000e+00 0.0000000e+00 0.0000000e+00 
0.0000000e+00 0.0000000e+00 0.0000000e+00 
0.0000000e+00 0.0000000e+00 0.0000000e+00 
0.0000000e+00 0.0000000e+00 0.0000000e+00 
0.0000000e+00 0.0000000e+00 0.0000000e+00 
0.0000000e+00 0.0000000e+00 0.0000000e+00 
0.0000000e+00 0.0000000e+00 0.0000000e+00 
0.0000000e+00 0.0000000e+00 0.0000000e+00 
0.0000000e+00 0.0000000e+00 0.0000000e+00 
0.0000000e+00 0.0000000e+00 0.0000000e+00 
0.0000000e+00 0.0000000e+00 0.0000000e+00 
0.0000000e+00 0.0000000e+00 0.0000000e+00 
0.0000000e+00 0.0000000e+00 0.0000000e+00 
0.0000000e+00 0.0000000e+00 0.0000000e+00 
0.0000000e+00 0.0000000e+00 0.0000000e+00 
0.0000000e+00 0.0000000e+00 0.0000000e+00 
0.0000000e+00 0.0000000e+00 0.0000000e+00 
0.0000000e+00 0.0000000e+00 0.0000000e+00 
0.0000000e+00 0.0000000e+00 0.0000000e+00 
0.0000000e+00 0.0000000e+00 0.0000000e+00 
0.0000000e+00 0.0000000e+00 0.0000000e+00 
0.0000000e+00 0.0000000e+00 0.0000000e+00 
0.0000000e+00 0.0000000e+00 0.0000000e+00 
0.0000000e+00 0.0000000e+00 0.0000000e+00 
0.0000000e+00 0.0000000e+00 0.0000000e+00 
0.0000000e+00 0.0000000e+00 0.0000000e+00 
0.0000000e+00 0.0000000e+00 0.0000000e+00 
0.0000000e+00 0.0000000e+00 0.0000000e+00 
0.0000000e+00 0.0000000e+00 0.0000000e+00 
0.0000000e+00 0.0000000e+00 0.0000000e+00 
0.0000000e+00 0.0000000e+00 0.0000000e+00 
0.0000000e+00 0.0000000e+00 0.0000000e+00 
0.0000000e+00 0.0000000e+00 0.0000000e+00 
0.0000000e+00 0.0000000e+00 0.0000000e+00 
0.0000000e+00 0.0000000e+00 0.0000000e+00 
0.0000000e+00 0.0000000e+00 0.0000000e+00 
0.0000000e+00 0.0000000e+00 0.0000000e+00 
0.0000000e+00 0.0000000e+00 0.0000000e+00 
0.0000000e+00 0.0000000e+00 0.0000000e+00 
0.0000000e+00 0.0000000e+00 0.0000000e+00 
0.0000000e+00 0.0000000e+00 0.0000000e+00 
0.0000000e+00 0.0000000e+00 0.0000000e+00 
0.0000000e+00 0.0000000e+00 0.0000000e+00 
0.0000000e+00 0.0000000e+00 0.0000000e+00 
0.0000000e+00 0.0000000e+00 0.0000000e+00 
0.0000000e+00 0.0000000e+00 0.0000000e+00 
0.0000000e+00 0.0000000e+00 0.0000000e+00 
0.0000000e+00 0.0000000e+00 0.0000000e+00 
0.0000000e+00 0.0000000e+00 0.0000000e+00 
0.0000000e+00 0.0000000e+00 0.0000000e+00 
0.0000000e+00 0.0000000e+00 0.0000000e+00 
0.0000000e+00 0.0000000e+00 0.0000000e+00 
0.0000000e+00 0.0000000e+00 0.0000000e+00 
0.0000000e+00 0.0000000e+00 0.0000000e+00 
0.0000000e+00 0.0000000e+00 0.0000000e+00 
0.0000000e+00 0.0000000e+00 0.0000000e+00 
0.0000000e+00 0.0000000e+00 0.0000000e+00 
0.0000000e+00 0.0000000e+00 0.0000000e+00 
0.0000000e+00 0.0000000e+00 0.0000000e+00 
0.0000000e+00 0.0000000e+00 0.0000000e+00 
0.0000000e+00 0.0000000e+00 0.0000000e+00 
0.0000000e+00 0.0000000e+00 0.0000000e+00 
0.0000000e+00 0.0000000e+00 0.0000000e+00 
0.0000000e+00 0.0000000e+00 0.0000000e+00 
0.0000000e+00 0.0000000e+00 0.0000000e+00 
0.0000000e+00 0.0000000e+00 0.0000000e+00 
0.0000000e+00 0.0000000e+00 0.0000000e+00 
0.0000000e+00 0.0000000e+00 0.0000000e+00 
0.0000000e+00 0.0000000e+00 0.0000000e+00 
0.0000000e+00 0.0000000e+00 0.0000000e+00 
0.0000000e+00 0.0000000e+00 0.0000000e+00 
0.0000000e+00 0.0000000e+00 0.0000000e+00 
0.0000000e+00 0.0000000e+00 0.0000000e+00 
1.4662781e-06 -8.7077160e-07 -1.7246109e-06 
2.0984783e-06 2.7636949e-07 -7.1527616e-06 
3.3822771e-06 4.4372561e-07 -4.5293054e-06 
2.3988136e-06 7.6709885e-06 -5.5606652e-06 
3.7905440e-06 1.9882259e-06 -4.6257055e-06 
-2.6590371e-06 5.6179061e-07 -4.9397590e-06 
5.1404631e-06 8.2391443e-06 -7.8762441e-06 
7.9965857e-06 -3.3670503e-06 -5.8398559e-06 
1.0992569e-05 3.8376852e-06 -5.4851889e-06 
2.4305256e-05 -3.6295646e-06 -6.3085981e-06 
3.3602966e-05 -1.7155982e-05 -7.0623114e-06 
4.2719803e-05 -1.5260430e-05 -2.8019817e-06 
5.1551142e-05 -2.2681181e-05 8.2417353e-07 
4.8346341e-05 -2.1817259e-05 6.4591836e-06 
3.8343365e-05 -1.5077962e-05 1.2881135e-05 
3.0172143e-05 -7.0977744e-06 1.1718392e-05 
1.8822911e-05 -4.7562644e-06 1.1058689e-05 
6.9733746e-06 -3.0274766e-06 8.1255575e-06 
3.7521454e-07 -2.9484331e-06 6.1856389e-07 
-6.7243375e-09 -2.2252339e-06 -2.4763087e-06 
1.4589502e-06 -3.2897253e-07 -3.3880472e-06 
2.0405475e-06 -5.6779731e-07 -7.1765339e-06 
9.5545431e-07 4.4578046e-06 -2.0369048e-06 
-3.5768210e-06 7.2595858e-06 -4.0278633e-07 
-2.0118712e-06 1.4691834e-06 -3.5060150e-06 
2.3228104e-06 -3.2505322e-06 1.4869998e-06 
3.2795849e-06 1.3198539e-05 -8.3897532e-07 
8.7185635e-06 5.7734924e-06 -4.6456635e-06 
1.7869805e-05 -4.7693748e-06 -6.3041748e-06 
3.0711104e-05 -2.6693428e-06 -1.1037760e-05 
3.7332084e-05 -1.1809513e-05 -9.8924465e-06 
4.6835114e-05 -2.2410217e-05 -8.5815855e-06 
5.2425381e-05 -1.8391589e-05 -2.2220013e-06 
4.7008525e-05 -1.8219282e-05 1.1445729e-06 
4.2389154e-05 -1.1831836e-05 8.3517834e-06 
2.7656970e-05 -5.2333603e-06 1.1888351e-05 
1.0017725e-05 -1.4297059e-06 1.0042053e-05 
1.2094569e-06 -2.8522459e-07 4.8152187e-06 
-9.1148439e-07 8.2046120e-07 -1.1744019e-07 
-2.2110987e-06 2.1608503e-06 -2.0023485e-06 
-5.8381869e-07 8.0340349e-08 -3.1966747e-06 
1.2159145e-06 -5.7552376e-07 -2.3554469e-06 
2.5985821e-07 1.1789309e-06 1.2047435e-06 
-9.5945097e-07 1.8800998e-06 3.0088286e-06 
-2.1141123e-07 -2.3244729e-06 2.5611675e-06 
7.1579464e-08 -1.8832578e-06 2.1872945e-06 
4.5931171e-07 -1.3014781e-07 1.7684619e-06 
5.9728495e-07 8.2904614e-07 4.6754491e-07 
-1.2082270e-07 -7.7899961e-07 -2.6027578e-07 
0.0000000e+00 2.7791461e-05 0.0000000e+00 
0.0000000e+00 1.1972174e-05 0.0000000e+00 
0.0000000e+00 -2.5468888e-05 0.0000000e+00 
0.0000000e+00 -3.1651100e-05 0.0000000e+00 
0.0000000e+00 -4.0900901e-05 0.0000000e+00 
0.0000000e+00 -8.5293468e-05 0.0000000e+00 
0.0000000e+00 -4.6228048e-05 0.0000000e+00 
0.0000000e+00 -4.7789814e-05 0.0000000e+00 
0.0000000e+00 -9.8569202e-05 0.0000000e+00 
0.0000000e+00 -1.2240613e-04 0.0000000e+00 
0.0000000e+00 -2.3380165e-04 0.0000000e+00 
0.0000000e+00 -4.2251297e-04 0.0000000e+00 
0.0000000e+00 -4.6534342e-04 0.0000000e+00 
0.0000000e+00 -5.1727897e-04 0.0000000e+00 
0.0000000e+00 -4.4706045e-04 0.0000000e+00 
0.0000000e+00 -2.9655115e-04 0.0000000e+00 
0.0000000e+00 -9.5879230e-05 0.0000000e+00 
0.0000000e+00 1.1114085e-05 0.0000000e+00 
0.0000000e+00 4.6376837e-05 0.0000000e+00 
0.0000000e+00 3.6817561e-05 0.0000000e+00 
0.0000000e+00 1.5499631e-05 0.0000000e+00 
0.0000000e+00 -1.0028248e-05 0.0000000e+00 
0.0000000e+00 -5.4956596e-05 0.0000000e+00 
0.0000000e+00 -8.5008789e-05 0.0000000e+00 
0.0000000e+00 -6.3821775e-05 0.0000000e+00 
0.0000000e+00 -8.8236338e-05 0.0000000e+00 
0.0000000e+00 -9.3163617e-05 0.0000000e+00 
0.0000000e+00 -2.9227895e-05 0.0000000e+00 
0.0000000e+00 -1.0554063e-04 0.0000000e+00 
0.0000000e+00 -1.7565933e-04 0.0000000e+00 
0.0000000e+00 -2.5497912e-04 0.0000000e+00 
0.0000000e+00 -4.8017126e-04 0.0000000e+00 
0.0000000e+00 -5.0038850e-04 0.0000000e+00 
0.0000000e+00 -4.8961688e-04 0.0000000e+00 
0.0000000e+00 -4.2874215e-04 0.0000000e+00 
0.0000000e+00 -2.3663795e-04 0.0000000e+00 
0.0000000e+00 -1.0150723e-04 0.0000000e+00 
0.0000000e+00 5.2847881e-06 0.0000000e+00 
0.0000000e+00 2.4204237e-05 0.0000000e+00 
0.0000000e+00 1.6687578e-05 0.0000000e+00 
0.0000000e+00 7.8827907e-06 0.0000000e+00 
0.0000000e+00 -1.9782697e-06 0.0000000e+00 
0.0000000e+00 -1.1451654e-05 0.0000000e+00 
0.0000000e+00 -4.8816114e-06 0.0000000e+00 
0.0000000e+00 3.7600889e-06 0.0000000e+00 
0.0000000e+00 3.1619136e-06 0.0000000e+00 
0.0000000e+00 -1.1234602e-06 0.0000000e+00 
0.0000000e+00 -2.4607796e-06 0.0000000e+00 
0.0000000e+00 8.0901646e-07 0.0000000e+00 
2.8191225e-06 -1.1377153e-06 -3.2533410e-06 
4.0871564e-06 -1.1820869e-05 -1.4054782e-05 
-2.1158935e-06 -9.8891178e-06 -1.8123987e-05 
-8.2554370e-06 5.6812610e-06 -1.1936195e-05 
-4.0838029e-07 -7.3149954e-07 -6.2886556e-07 
-1.6319275e-07 -4.5121872e-08 -8.2721618e-07 
-3.3589305e-07 -9.1550476e-08 -1.1074234e-06 
7.5359052e-09 7.9075926e-07 -7.9424115e-07 
2.2892846e-06 3.0745389e-06 -3.3453662e-06 
1.6933025e-07 -6.9268543e-07 -3.9133255e-07 
-1.8242091e-06 9.3515218e-06 -2.3662988e-05 
4.5534252e-06 -1.5350839e-05 -2.8114700e-05 
0.0000000e+00 4.7651454e-05 0.0000000e+00 
0.0000000e+00 6.9602029e-06 0.0000000e+00 
0.0000000e+00 -2.1270165e-05 0.0000000e+00 
0.0000000e+00 -5.8252634e-05 0.0000000e+00 
0.0000000e+00 -7.6782133e-05 0.0000000e+00 
0.0000000e+00 -1.0290433e-04 0.0000000e+00 
0.0000000e+00 -8.7645501e-05 0.0000000e+00 
0.0000000e+00 -8.5003172e-05 0.0000000e+00 
0.0000000e+00 -1.3977986e-04 0.0000000e+00 
0.0000000e+00 -1.7759227e-04 0.0000000e+00 
0.0000000e+00 -5.6689867e-04 0.0000000e+00 
0.0000000e+00 -9.5785223e-04 0.0000000e+00 
0.0000000e+00 -1.0183301e-03 0.0000000e+00 
0.0000000e+00 -1.0645123e-03 0.0000000e+00 