# vtk DataFile Version 4.0
vtk output
ASCII
DATASET UNSTRUCTURED_GRID
POINTS 1919 float
0.0000000e+00 0.0000000e+00 0.0000000e+00 
0.0000000e+00 0.0000000e+00 5.0000000e+01 
5.0000000e+00 0.0000000e+00 0.0000000e+00 
5.0000000e+00 0.0000000e+00 5.0000000e+01 
5.0000000e+00 1.0000000e+00 0.0000000e+00 
5.0000000e+00 1.0000000e+00 5.0000000e+01 
0.0000000e+00 1.0000000e+00 0.0000000e+00 
0.0000000e+00 1.0000000e+00 5.0000000e+01 
5.0000000e+00 2.0000000e+00 0.0000000e+00 
5.0000000e+00 2.0000000e+00 5.0000000e+01 
3.0000000e+00 2.0000000e+00 0.0000000e+00 
3.0000000e+00 2.0000000e+00 5.0000000e+01 
0.0000000e+00 2.0000000e+00 0.0000000e+00 
0.0000000e+00 2.0000000e+00 5.0000000e+01 
1.5000000e+00 3.0000000e+00 0.0000000e+00 
1.5000000e+00 3.0000000e+00 5.0000000e+01 
7.5000000e-01 3.0000000e+00 0.0000000e+00 
7.5000000e-01 3.0000000e+00 5.0000000e+01 
0.0000000e+00 3.0000000e+00 0.0000000e+00 
0.0000000e+00 3.0000000e+00 5.0000000e+01 
7.5000000e-01 3.0000000e+00 5.0000000e-01 
7.5000000e-01 3.0000000e+00 1.0000000e+00 
7.5000000e-01 3.0000000e+00 1.5000000e+00 
7.5000000e-01 3.0000000e+00 2.0000000e+00 
7.5000000e-01 3.0000000e+00 2.5000000e+00 
7.5000000e-01 3.0000000e+00 3.0000000e+00 
7.5000000e-01 3.0000000e+00 3.5000000e+00 
7.5000000e-01 3.0000000e+00 4.0000000e+00 
7.5000000e-01 3.0000000e+00 4.5000000e+00 
7.5000000e-01 3.0000000e+00 5.0000000e+00 
7.5000000e-01 3.0000000e+00 5.5000000e+00 
7.5000000e-01 3.0000000e+00 6.0000000e+00 
7.5000000e-01 3.0000000e+00 6.5000000e+00 
7.5000000e-01 3.0000000e+00 7.0000000e+00 
7.5000000e-01 3.0000000e+00 7.5000000e+00 
7.5000000e-01 3.0000000e+00 8.0000000e+00 
7.5000000e-01 3.0000000e+00 8.5000000e+00 
7.5000000e-01 3.0000000e+00 9.0000000e+00 
7.5000000e-01 3.0000000e+00 9.5000000e+00 
7.5000000e-01 3.0000000e+00 1.0000000e+01 
7.5000000e-01 3.0000000e+00 1.0500000e+01 
7.5000000e-01 3.0000000e+00 1.1000000e+01 
7.5000000e-01 3.0000000e+00 1.1500000e+01 
7.5000000e-01 3.0000000e+00 1.2000000e+01 
7.5000000e-01 3.0000000e+00 1.2500000e+01 
7.5000000e-01 3.0000000e+00 1.3000000e+01 
7.5000000e-01 3.0000000e+00 1.3500000e+01 
7.5000000e-01 3.0000000e+00 1.4000000e+01 
7.5000000e-01 3.0000000e+00 1.4500000e+01 
7.5000000e-01 3.0000000e+00 1.5000000e+01 
7.5000000e-01 3.0000000e+00 1.5500000e+01 
7.5000000e-01 3.0000000e+00 1.6000000e+01 
7.5000000e-01 3.0000000e+00 1.6500000e+01 
7.5000000e-01 3.0000000e+00 1.7000000e+01 
7.5000000e-01 3.0000000e+00 1.7500000e+01 
7.5000000e-01 3.0000000e+00 1.8000000e+01 
7.5000000e-01 3.0000000e+00 1.8500000e+01 
7.5000000e-01 3.0000000e+00 1.9000000e+01 
7.5000000e-01 3.0000000e+00 1.9500000e+01 
7.5000000e-01 3.0000000e+00 2.0000000e+01 
7.5000000e-01 3.0000000e+00 2.0500000e+01 
7.5000000e-01 3.0000000e+00 2.1000000e+01 
7.5000000e-01 3.0000000e+00 2.1500000e+01 
7.5000000e-01 3.0000000e+00 2.2000000e+01 
7.5000000e-01 3.0000000e+00 2.2500000e+01 
7.5000000e-01 3.0000000e+00 2.3000000e+01 
7.5000000e-01 3.0000000e+00 2.3500000e+01 
7.5000000e-01 3.0000000e+00 2.4000000e+01 
7.5000000e-01 3.0000000e+00 2.4500000e+01 
7.5000000e-01 3.0000000e+00 2.5000000e+01 
7.5000000e-01 3.0000000e+00 2.5500000e+01 
7.5000000e-01 3.0000000e+00 2.6000000e+01 
7.5000000e-01 3.0000000e+00 2.6500000e+01 
7.5000000e-01 3.0000000e+00 2.7000000e+01 
7.5000000e-01 3.0000000e+00 2.7500000e+01 
7.5000000e-01 3.0000000e+00 2.8000000e+01 
7.5000000e-01 3.0000000e+00 2.8500000e+01 
7.5000000e-01 3.0000000e+00 2.9000000e+01 
7.5000000e-01 3.0000000e+00 2.9500000e+01 
7.5000000e-01 3.0000000e+00 3.0000000e+01 
7.5000000e-01 3.0000000e+00 3.0500000e+01 
7.5000000e-01 3.0000000e+00 3.1000000e+01 
7.5000000e-01 3.0000000e+00 3.1500000e+01 
7.5000000e-01 3.0000000e+00 3.2000000e+01 
7.5000000e-01 3.0000000e+00 3.2500000e+01 
7.5000000e-01 3.0000000e+00 3.3000000e+01 
7.5000000e-01 3.0000000e+00 3.3500000e+01 
7.5000000e-01 3.0000000e+00 3.4000000e+01 
7.5000000e-01 3.0000000e+00 3.4500000e+01 
7.5000000e-01 3.0000000e+00 3.5000000e+01 
7.5000000e-01 3.0000000e+00 3.5500000e+01 
7.5000000e-01 3.0000000e+00 3.6000000e+01 
7.5000000e-01 3.0000000e+00 3.6500000e+01 
7.5000000e-01 3.0000000e+00 3.7000000e+01 
7.5000000e-01 3.0000000e+00 3.7500000e+01 
7.5000000e-01 3.0000000e+00 3.8000000e+01 
7.5000000e-01 3.0000000e+00 3.8500000e+01 
7.5000000e-01 3.0000000e+00 3.9000000e+01 
7.5000000e-01 3.0000000e+00 3.9500000e+01 
7.5000000e-01 3.0000000e+00 4.0000000e+01 
7.5000000e-01 3.0000000e+00 4.0500000e+01 
7.5000000e-01 3.0000000e+00 4.1000000e+01 
7.5000000e-01 3.0000000e+00 4.1500000e+01 
7.5000000e-01 3.0000000e+00 4.2000000e+01 
7.5000000e-01 3.0000000e+00 4.2500000e+01 
7.5000000e-01 3.0000000e+00 4.3000000e+01 
7.5000000e-01 3.0000000e+00 4.3500000e+01 
7.5000000e-01 3.0000000e+00 4.4000000e+01 
7.5000000e-01 3.0000000e+00 4.4500000e+01 
7.5000000e-01 3.0000000e+00 4.5000000e+01 
7.5000000e-01 3.0000000e+00 4.5500000e+01 
7.5000000e-01 3.0000000e+00 4.6000000e+01 
7.5000000e-01 3.0000000e+00 4.6500000e+01 
7.5000000e-01 3.0000000e+00 4.7000000e+01 
7.5000000e-01 3.0000000e+00 4.7500000e+01 
7.5000000e-01 3.0000000e+00 4.8000000e+01 
7.5000000e-01 3.0000000e+00 4.8500000e+01 
7.5000000e-01 3.0000000e+00 4.9000000e+01 
7.5000000e-01 3.0000000e+00 4.9500000e+01 
7.5000000e-01 3.0250001e+00 0.0000000e+00 
7.5000000e-01 3.0250001e+00 5.0000000e-01 
7.5000000e-01 3.0250001e+00 1.0000000e+00 
7.5000000e-01 3.0250001e+00 1.5000000e+00 
7.5000000e-01 3.0250001e+00 2.0000000e+00 
7.5000000e-01 3.0250001e+00 2.5000000e+00 
7.5000000e-01 3.0250001e+00 3.0000000e+00 
7.5000000e-01 3.0250001e+00 3.5000000e+00 
7.5000000e-01 3.0250001e+00 4.0000000e+00 
7.5000000e-01 3.0250001e+00 4.5000000e+00 
7.5000000e-01 3.0250001e+00 5.0000000e+00 
7.5000000e-01 3.0250001e+00 5.5000000e+00 
7.5000000e-01 3.0250001e+00 6.0000000e+00 
7.5000000e-01 3.0250001e+00 6.5000000e+00 
7.5000000e-01 3.0250001e+00 7.0000000e+00 
7.5000000e-01 3.0250001e+00 7.5000000e+00 
7.5000000e-01 3.0250001e+00 8.0000000e+00 
7.5000000e-01 3.0250001e+00 8.5000000e+00 
7.5000000e-01 3.0250001e+00 9.0000000e+00 
7.5000000e-01 3.0250001e+00 9.5000000e+00 
7.5000000e-01 3.0250001e+00 1.0000000e+01 
7.5000000e-01 3.0250001e+00 1.0500000e+01 
7.5000000e-01 3.0250001e+00 1.1000000e+01 
7.5000000e-01 3.0250001e+00 1.1500000e+01 
7.5000000e-01 3.0250001e+00 1.2000000e+01 
7.5000000e-01 3.0250001e+00 1.2500000e+01 
7.5000000e-01 3.0250001e+00 1.3000000e+01 
7.5000000e-01 3.0250001e+00 1.3500000e+01 
7.5000000e-01 3.0250001e+00 1.4000000e+01 
7.5000000e-01 3.0250001e+00 1.4500000e+01 
7.5000000e-01 3.0250001e+00 1.5000000e+01 
7.5000000e-01 3.0250001e+00 1.5500000e+01 
7.5000000e-01 3.0250001e+00 1.6000000e+01 
7.5000000e-01 3.0250001e+00 1.6500000e+01 
7.5000000e-01 3.0250001e+00 1.7000000e+01 
7.5000000e-01 3.0250001e+00 1.7500000e+01 
7.5000000e-01 3.0250001e+00 1.8000000e+01 
7.5000000e-01 3.0250001e+00 1.8500000e+01 
7.5000000e-01 3.0250001e+00 1.9000000e+01 
7.5000000e-01 3.0250001e+00 1.9500000e+01 
7.5000000e-01 3.0250001e+00 2.0000000e+01 
7.5000000e-01 3.0250001e+00 2.0500000e+01 
7.5000000e-01 3.0250001e+00 2.1000000e+01 
7.5000000e-01 3.0250001e+00 2.1500000e+01 
7.5000000e-01 3.0250001e+00 2.2000000e+01 
7.5000000e-01 3.0250001e+00 2.2500000e+01 
7.5000000e-01 3.0250001e+00 2.3000000e+01 
7.5000000e-01 3.0250001e+00 2.3500000e+01 
7.5000000e-01 3.0250001e+00 2.4000000e+01 
7.5000000e-01 3.0250001e+00 2.4500000e+01 
7.5000000e-01 3.0250001e+00 2.5000000e+01 
7.5000000e-01 3.0250001e+00 2.5500000e+01 
7.5000000e-01 3.0250001e+00 2.6000000e+01 
7.5000000e-01 3.0250001e+00 2.6500000e+01 
7.5000000e-01 3.0250001e+00 2.7000000e+01 
7.5000000e-01 3.0250001e+00 2.7500000e+01 
7.5000000e-01 3.0250001e+00 2.8000000e+01 
7.5000000e-01 3.0250001e+00 2.8500000e+01 
7.5000000e-01 3.0250001e+00 2.9000000e+01 
7.5000000e-01 3.0250001e+00 2.9500000e+01 
7.5000000e-01 3.0250001e+00 3.0000000e+01 
7.5000000e-01 3.0250001e+00 3.0500000e+01 
7.5000000e-01 3.0250001e+00 3.1000000e+01 
7.5000000e-01 3.0250001e+00 3.1500000e+01 
7.5000000e-01 3.0250001e+00 3.2000000e+01 
7.5000000e-01 3.0250001e+00 3.2500000e+01 
7.5000000e-01 3.0250001e+00 3.3000000e+01 
7.5000000e-01 3.0250001e+00 3.3500000e+01 
7.5000000e-01 3.0250001e+00 3.4000000e+01 
7.5000000e-01 3.0250001e+00 3.4500000e+01 
7.5000000e-01 3.0250001e+00 3.5000000e+01 
7.5000000e-01 3.0250001e+00 3.5500000e+01 
7.5000000e-01 3.0250001e+00 3.6000000e+01 
7.5000000e-01 3.0250001e+00 3.6500000e+01 
7.5000000e-01 3.0250001e+00 3.7000000e+01 
7.5000000e-01 3.0250001e+00 3.7500000e+01 
7.5000000e-01 3.0250001e+00 3.8000000e+01 
7.5000000e-01 3.0250001e+00 3.8500000e+01 
7.5000000e-01 3.0250001e+00 3.9000000e+01 
7.5000000e-01 3.0250001e+00 3.9500000e+01 
7.5000000e-01 3.0250001e+00 4.0000000e+01 
7.5000000e-01 3.0250001e+00 4.0500000e+01 
7.5000000e-01 3.0250001e+00 4.1000000e+01 
7.5000000e-01 3.0250001e+00 4.1500000e+01 
7.5000000e-01 3.0250001e+00 4.2000000e+01 
7.5000000e-01 3.0250001e+00 4.2500000e+01 
7.5000000e-01 3.0250001e+00 4.3000000e+01 
7.5000000e-01 3.0250001e+00 4.3500000e+01 
7.5000000e-01 3.0250001e+00 4.4000000e+01 
7.5000000e-01 3.0250001e+00 4.4500000e+01 
7.5000000e-01 3.0250001e+00 4.5000000e+01 
7.5000000e-01 3.0250001e+00 4.5500000e+01 
7.5000000e-01 3.0250001e+00 4.6000000e+01 
7.5000000e-01 3.0250001e+00 4.6500000e+01 
7.5000000e-01 3.0250001e+00 4.7000000e+01 
7.5000000e-01 3.0250001e+00 4.7500000e+01 
7.5000000e-01 3.0250001e+00 4.8000000e+01 
7.5000000e-01 3.0250001e+00 4.8500000e+01 
7.5000000e-01 3.0250001e+00 4.9000000e+01 
7.5000000e-01 3.0250001e+00 4.9500000e+01 
7.5000000e-01 3.0250001e+00 5.0000000e+01 
1.5000000e+00 3.0000000e+00 2.5000000e+01 
3.0000000e+00 2.0000000e+00 2.5000000e+01 
4.0000000e+00 2.0000000e+00 2.5000000e+01 
5.0000000e+00 2.0000000e+00 2.5000000e+01 
0.0000000e+00 3.0000000e+00 2.5000000e+01 
0.0000000e+00 0.0000000e+00 1.0000000e+00 
0.0000000e+00 0.0000000e+00 2.0000000e+00 
0.0000000e+00 0.0000000e+00 3.0000000e+00 
0.0000000e+00 0.0000000e+00 4.0000000e+00 
0.0000000e+00 0.0000000e+00 5.0000000e+00 
[...]
POINT_DATA 1919
FIELD FieldData 3
DISPLACEMENT 3 1919  float
0.0000000e+00 0.0000000e+00 0.0000000e+00 
0.0000000e+00 0.0000000e+00 0.0000000e+00 
0.0000000e+00 0.0000000e+00 0.0000000e+00 
0.0000000e+00 0.0000000e+00 0.0000000e+00 
-2.6895027e-06 -2.2943957e-06 4.0773440e-07 
1.4044270e-08 -1.2189973e-06 1.9681309e-07 
0.0000000e+00 7.6188071e-06 0.0000000e+00 
0.0000000e+00 4.3349004e-07 0.0000000e+00 
1.2999786e-06 -2.8992711e-06 -3.1501495e-06 
2.8276037e-07 -1.6657788e-06 1.2683073e-06 
-2.2811148e-06 9.4320339e-06 1.2670957e-05 
-7.0668352e-07 -1.2815190e-06 1.4134517e-06 
0.0000000e+00 8.9777986e-06 0.0000000e+00 
0.0000000e+00 1.6372228e-06 0.0000000e+00 
-2.5604884e-05 1.3822028e-05 3.7683127e-05 
1.3394659e-08 -1.7265288e-06 4.5364054e-06 
-3.2434076e-05 -4.4447166e-05 3.1055402e-05 
-2.8586101e-06 3.8752428e-06 5.8293972e-07 
0.0000000e+00 -1.3897750e-06 0.0000000e+00 
0.0000000e+00 -9.9483691e-07 0.0000000e+00 
-2.9463761e-05 -3.9074617e-05 1.2561524e-05 
-2.7744587e-05 -2.8222004e-05 1.2379162e-05 
-3.0822594e-05 -2.0200625e-05 5.4626626e-06 
-3.4894347e-05 -1.8398772e-05 7.9148867e-06 
-2.8419578e-05 -1.9035169e-05 5.9152148e-06 
-2.3606917e-05 -1.5413938e-05 3.3381621e-06 
-2.3184337e-05 -5.9218060e-06 8.7531726e-06 
-1.2661931e-05 5.4626053e-06 7.7503273e-06 
-1.1107203e-06 9.5235591e-06 4.9143391e-06 
-2.3181603e-06 2.5493580e-06 1.1082935e-05 
6.9319362e-06 -6.2858066e-06 1.2341271e-05 
-2.6884816e-06 -4.3834646e-07 9.1124821e-06 
1.3717032e-06 2.1971497e-05 5.4302031e-06 
-5.0689965e-07 4.6363981e-05 -1.2611351e-07 
1.0852938e-05 5.2999392e-05 -2.0452876e-06 
7.7136209e-09 3.7554692e-05 3.2415719e-06 
-1.3039136e-05 2.3121165e-05 8.8109346e-06 
-2.2963346e-05 4.2276894e-05 2.4604447e-05 
-3.0703741e-05 8.9003770e-05 4.0582861e-05 
-4.0398329e-05 1.1236227e-04 3.1472431e-05 
-4.8923885e-05 3.7972430e-05 6.0409115e-05 
-6.4264714e-05 -1.9615711e-04 8.9856876e-05 
-1.0941009e-04 -5.9994520e-04 1.5423447e-04 
-1.5027956e-04 -1.1665466e-03 1.1067576e-04 
-1.8735442e-04 -1.9682576e-03 2.1810546e-04 
-1.9570054e-04 -3.0690522e-03 6.0569659e-05 
-2.6392439e-04 -4.3701208e-03 1.3818062e-04 
-2.9588409e-04 -5.2483496e-03 -1.8881245e-05 
-2.6699557e-04 -5.0150747e-03 -8.3010811e-05 
-2.2495849e-04 -4.4307983e-03 -8.5747844e-05 
-1.7104593e-04 -4.2598904e-03 -4.0296050e-05 
-1.7955257e-04 -4.5641884e-03 -1.3169437e-04 
-2.2680401e-04 -4.7314204e-03 -1.3954072e-04 
-3.7048387e-04 -3.7998552e-03 -3.0727978e-04 
-8.9017682e-05 -2.3450856e-03 -1.4407346e-04 
-1.9967489e-05 -1.0959347e-03 -2.1836824e-05 
-8.0932350e-06 -3.0602963e-04 -6.0720005e-05 
-2.7181484e-05 6.7442015e-05 9.2240607e-06 
-3.9784038e-05 1.8098786e-04 1.7979755e-05 
-4.4367964e-05 1.7461806e-04 2.8584240e-05 
-4.6906516e-05 1.3050126e-04 3.0360081e-05 
-4.7826707e-05 7.9352285e-05 2.1601225e-05 
-4.3318458e-05 3.8013535e-05 1.1508470e-05 
-3.6722562e-05 1.8207355e-05 1.5847692e-06 
-2.5976464e-05 1.9892630e-05 -2.2454957e-05 
-5.4840725e-06 2.9233413e-05 -3.7862443e-05 
5.4203069e-06 3.5134333e-05 -4.2784744e-05 
1.3318110e-05 4.3186235e-05 -1.6477617e-05 
2.2085116e-05 5.5083608e-05 7.4746986e-06 
1.8412875e-05 6.0736980e-05 1.5761190e-05 
1.4956237e-05 4.8801852e-05 2.7025619e-06 
2.2574746e-05 3.1996322e-05 -1.1704160e-05 
1.9376266e-05 3.0680691e-05 -1.1527416e-05 
2.0314077e-05 5.1499785e-05 -1.0904307e-05 
1.9617899e-05 7.7554978e-05 2.8331513e-06 
5.1138163e-06 8.3111496e-05 7.9745987e-06 
-6.4064479e-06 6.3351035e-05 6.2171312e-06 
-1.7345694e-05 4.0853211e-05 5.1078582e-06 
-3.4830304e-05 4.4716857e-05 1.8445320e-05 
-3.5601675e-05 7.2904957e-05 2.6489073e-05 
-4.6226603e-05 4.4395394e-05 7.9780119e-05 
-6.8966350e-05 -1.7022518e-04 8.9488589e-05 
-1.1524827e-04 -6.4105581e-04 1.6102759e-04 
-1.4422122e-04 -1.3598066e-03 1.1308396e-04 
-2.0591190e-04 -2.3157215e-03 2.1422555e-04 
-2.7771411e-04 -3.4508542e-03 4.2505151e-05 
-3.4222205e-04 -4.6117082e-03 1.3491452e-04 
-3.6768889e-04 -5.2477666e-03 -3.6099188e-06 
-3.2566584e-04 -4.9594403e-03 -1.2556864e-04 
-2.5446279e-04 -4.4577434e-03 -6.6146524e-05 
-2.0683462e-04 -4.3612309e-03 -2.0223075e-05 
-2.2027509e-04 -4.5546833e-03 -1.1554240e-04 
-2.0064710e-04 -4.4158758e-03 -1.4768956e-04 
-1.8865895e-04 -3.2991264e-03 -8.2385857e-05 
-1.1737708e-04 -1.9528283e-03 -1.7720774e-04 
-6.8399437e-05 -8.8893779e-04 -1.5756648e-04 
-1.2280408e-05 -2.3161889e-04 -4.3982396e-05 
9.1853684e-07 8.6331311e-05 -7.7198856e-06 
-2.2072097e-06 2.0117055e-04 -6.6100461e-06 
-8.0194586e-06 2.0171847e-04 2.7415092e-06 
-1.3879054e-05 1.4440433e-04 5.9075742e-06 
-1.5618780e-05 7.6060736e-05 -4.0210716e-07 
-2.0694841e-05 3.3321528e-05 -8.7584813e-06 
-1.5807302e-05 1.8652485e-05 -2.4557639e-05 
-7.6490860e-06 1.3722886e-05 -3.7679445e-05 
1.3082386e-06 5.9419931e-06 -4.0641378e-05 
1.1952483e-05 -2.6087364e-06 -3.4592191e-05 
9.2494565e-06 -4.5074944e-06 -1.9982954e-05 
3.4413954e-06 -2.8150873e-07 4.6072984e-07 
2.3767905e-06 2.2399413e-06 7.9841702e-06 
-5.5232408e-07 -2.2390391e-06 2.2572069e-06 
-2.7569946e-08 -8.8854613e-06 -5.0800509e-06 
7.2218768e-06 -1.0233105e-05 -6.0651851e-06 
5.8802916e-06 -5.9895510e-06 -2.2736913e-06 
2.1422247e-06 -1.4435815e-06 4.9406867e-06 
9.9378735e-07 -1.7525835e-07 8.4982230e-06 
-7.0231658e-07 -9.5776090e-07 6.2460149e-06 
-2.8277702e-06 -4.2746603e-07 5.2563487e-06 
-4.8425260e-08 2.1922683e-06 2.6022713e-06 
0.0000000e+00 -4.4226810e-05 0.0000000e+00 
0.0000000e+00 -3.9019425e-05 0.0000000e+00 
0.0000000e+00 -2.8434084e-05 0.0000000e+00 
0.0000000e+00 -2.0476120e-05 0.0000000e+00 
0.0000000e+00 -1.8500861e-05 0.0000000e+00 
0.0000000e+00 -1.8918945e-05 0.0000000e+00 
0.0000000e+00 -1.5278578e-05 0.0000000e+00 
0.0000000e+00 -5.6236909e-06 0.0000000e+00 
0.0000000e+00 5.3958634e-06 0.0000000e+00 
0.0000000e+00 9.0242193e-06 0.0000000e+00 
0.0000000e+00 2.1133239e-06 0.0000000e+00 
0.0000000e+00 -5.9009753e-06 0.0000000e+00 
0.0000000e+00 1.3279099e-07 0.0000000e+00 
0.0000000e+00 2.2405238e-05 0.0000000e+00 
0.0000000e+00 4.6119698e-05 0.0000000e+00 
0.0000000e+00 5.2036532e-05 0.0000000e+00 
0.0000000e+00 3.6873753e-05 0.0000000e+00 
0.0000000e+00 2.3978610e-05 0.0000000e+00 
0.0000000e+00 4.3749267e-05 0.0000000e+00 
0.0000000e+00 9.0690497e-05 0.0000000e+00 
0.0000000e+00 1.1285314e-04 0.0000000e+00 
0.0000000e+00 3.5758949e-05 0.0000000e+00 
0.0000000e+00 -1.9782328e-04 0.0000000e+00 
0.0000000e+00 -5.9763592e-04 0.0000000e+00 
0.0000000e+00 -1.1665255e-03 0.0000000e+00 
0.0000000e+00 -1.9726108e-03 0.0000000e+00 
0.0000000e+00 -3.0870854e-03 0.0000000e+00 
0.0000000e+00 -4.3938495e-03 0.0000000e+00 
0.0000000e+00 -5.2811066e-03 0.0000000e+00 
0.0000000e+00 -5.0364616e-03 0.0000000e+00 
0.0000000e+00 -4.4558067e-03 0.0000000e+00 
0.0000000e+00 -4.2823320e-03 0.0000000e+00 
0.0000000e+00 -4.5974320e-03 0.0000000e+00 
0.0000000e+00 -4.7596251e-03 0.0000000e+00 
0.0000000e+00 -3.8152589e-03 0.0000000e+00 
0.0000000e+00 -2.3630909e-03 0.0000000e+00 
0.0000000e+00 -1.1063147e-03 0.0000000e+00 
0.0000000e+00 -3.0878291e-04 0.0000000e+00 
0.0000000e+00 6.9059461e-05 0.0000000e+00 
0.0000000e+00 1.8306410e-04 0.0000000e+00 
0.0000000e+00 1.7595630e-04 0.0000000e+00 
0.0000000e+00 1.3081091e-04 0.0000000e+00 
0.0000000e+00 7.9855272e-05 0.0000000e+00 
0.0000000e+00 3.8693604e-05 0.0000000e+00 
0.0000000e+00 1.8608123e-05 0.0000000e+00 
0.0000000e+00 1.9505731e-05 0.0000000e+00 
0.0000000e+00 2.8443752e-05 0.0000000e+00 
0.0000000e+00 3.5429926e-05 0.0000000e+00 
0.0000000e+00 4.3895627e-05 0.0000000e+00 
0.0000000e+00 5.5298417e-05 0.0000000e+00 
0.0000000e+00 5.9779835e-05 0.0000000e+00 
0.0000000e+00 4.8332317e-05 0.0000000e+00 
0.0000000e+00 3.2360127e-05 0.0000000e+00 
0.0000000e+00 3.1672083e-05 0.0000000e+00 
0.0000000e+00 5.2067466e-05 0.0000000e+00 
0.0000000e+00 7.7012541e-05 0.0000000e+00 
0.0000000e+00 8.2261751e-05 0.0000000e+00 
0.0000000e+00 6.2721818e-05 0.0000000e+00 
0.0000000e+00 4.1267172e-05 0.0000000e+00 
0.0000000e+00 4.7652822e-05 0.0000000e+00 
0.0000000e+00 7.5563505e-05 0.0000000e+00 
0.0000000e+00 4.3084670e-05 0.0000000e+00 
0.0000000e+00 -1.7305311e-04 0.0000000e+00 
0.0000000e+00 -6.4228434e-04 0.0000000e+00 
0.0000000e+00 -1.3626318e-03 0.0000000e+00 
0.0000000e+00 -2.3185492e-03 0.0000000e+00 
0.0000000e+00 -3.4670993e-03 0.0000000e+00 
0.0000000e+00 -4.6347068e-03 0.0000000e+00 
0.0000000e+00 -5.2852244e-03 0.0000000e+00 
0.0000000e+00 -4.9813623e-03 0.0000000e+00 
0.0000000e+00 -4.4840532e-03 0.0000000e+00 
0.0000000e+00 -4.3807290e-03 0.0000000e+00 
0.0000000e+00 -4.5837904e-03 0.0000000e+00 
0.0000000e+00 -4.4418760e-03 0.0000000e+00 
0.0000000e+00 -3.3268693e-03 0.0000000e+00 
0.0000000e+00 -1.9657158e-03 0.0000000e+00 
0.0000000e+00 -8.9409587e-04 0.0000000e+00 
0.0000000e+00 -2.3326359e-04 0.0000000e+00 
0.0000000e+00 8.8045788e-05 0.0000000e+00 
0.0000000e+00 2.0205561e-04 0.0000000e+00 
0.0000000e+00 2.0218283e-04 0.0000000e+00 
0.0000000e+00 1.4511349e-04 0.0000000e+00 
0.0000000e+00 7.7396398e-05 0.0000000e+00 
0.0000000e+00 3.3810960e-05 0.0000000e+00 
0.0000000e+00 1.8180051e-05 0.0000000e+00 
0.0000000e+00 1.3259710e-05 0.0000000e+00 
0.0000000e+00 5.9823869e-06 0.0000000e+00 
0.0000000e+00 -2.2699553e-06 0.0000000e+00 
0.0000000e+00 -4.3993355e-06 0.0000000e+00 
0.0000000e+00 -4.6553936e-07 0.0000000e+00 
0.0000000e+00 1.9370614e-06 0.0000000e+00 
0.0000000e+00 -2.2380950e-06 0.0000000e+00 
0.0000000e+00 -8.6132559e-06 0.0000000e+00 
0.0000000e+00 -1.0099462e-05 0.0000000e+00 
0.0000000e+00 -6.1001097e-06 0.0000000e+00 
0.0000000e+00 -1.5896726e-06 0.0000000e+00 
0.0000000e+00 -2.1466251e-07 0.0000000e+00 
0.0000000e+00 -8.8071715e-07 0.0000000e+00 
0.0000000e+00 -3.2990798e-07 0.0000000e+00 
0.0000000e+00 2.1857129e-06 0.0000000e+00 
0.0000000e+00 3.7991879e-06 0.0000000e+00 
3.7775262e-05 3.0087191e-05 1.2824723e-05 
-2.4563058e-05 -1.3391095e-05 9.9807557e-06 
-1.7245500e-05 4.8163110e-06 3.9966144e-06 
1.8821872e-06 -2.0507282e-06 -1.8496434e-06 
0.0000000e+00 -4.2235028e-05 0.0000000e+00 
0.0000000e+00 0.0000000e+00 0.0000000e+00 
0.0000000e+00 0.0000000e+00 0.0000000e+00 
0.0000000e+00 0.0000000e+00 0.0000000e+00 
0.0000000e+00 0.0000000e+00 0.0000000e+00 
0.0000000e+00 0.0000000e+00 0.0000000e+00 
0.0000000e+00 0.0000000e+00 0.0000000e+00 
0.0000000e+00 0.0000000e+00 0.0000000e+00 
0.0000000e+00 0.0000000e+00 0.0000000e+00 
0.0000000e+00 0.0000000e+00 0.0000000e+00 
0.0000000e+00 0.0000000e+00 0.0000000e+00 
0.0000000e+00 0.0000000e+00 0.0000000e+00 
0.0000000e+00 0.0000000e+00 0.0000000e+00 
0.0000000e+00 0.0000000e+00 0.0000000e+00 
0.0000000e+00 0.0000000e+00 0.0000000e+00 
0.0000000e+00 0.0000000e+00 0.0000000e+00 
0.0000000e+00 0.0000000e+00 0.0000000e+00 
0.0000000e+00 0.0000000e+00 0.0000000e+00 
0.0000000e+00 0.0000000e+00 0.0000000e+00 
0.0000000e+00 0.0000000e+00 0.0000000e+00 
0.0000000e+00 0.0000000e+00 0.0000000e+00 
0.0000000e+00 0.0000000e+00 0.0000000e+00 
0.0000000e+00 0.0000000e+00 0.0000000e+00 
0.0000000e+00 0.0000000e+00 0.0000000e+00 
0.0000000e+00 0.0000000e+00 0.0000000e+00 
0.0000000e+00 0.0000000e+00 0.0000000e+00 
0.0000000e+00 0.0000000e+00 0.0000000e+00 
0.0000000e+00 0.0000000e+00 0.0000000e+00 
0.0000000e+00 0.0000000e+00 0.0000000e+00 
0.0000000e+00 0.0000000e+00 0.0000000e+00 
0.0000000e+00 0.0000000e+00 0.0000000e+00 
0.0000000e+00 0.0000000e+00 0.0000000e+00 
0.0000000e+00 0.0000000e+00 0.0000000e+00 
0.0000000e+00 0.0000000e+00 0.0000000e+00 
0.0000000e+00 0.0000000e+00 0.0000000e+00 
0.0000000e+00 0.0000000e+00 0.0000000e+00 
0.0000000e+00 0.0000000e+00 0.0000000e+00 
0.0000000e+00 0.0000000e+00 0.0000000e+00 
0.0000000e+00 0.0000000e+00 0.0000000e+00 
0.0000000e+00 0.0000000e+00 0.0000000e+00 
0.0000000e+00 0.0000000e+00 0.0000000e+00 
0.0000000e+00 0.0000000e+00 0.0000000e+00 
0.0000000e+00 0.0000000e+00 0.0000000e+00 
0.0000000e+00 0.0000000e+00 0.0000000e+00 
0.0000000e+00 0.0000000e+00 0.0000000e+00 
0.0000000e+00 0.0000000e+00 0.0000000e+00 
0.0000000e+00 0.0000000e+00 0.0000000e+00 
0.0000000e+00 0.0000000e+00 0.0000000e+00 
0.0000000e+00 0.0000000e+00 0.0000000e+00 
0.0000000e+00 0.0000000e+00 0.0000000e+00 
0.0000000e+00 0.0000000e+00 0.0000000e+00 
0.0000000e+00 0.0000000e+00 0.0000000e+00 
0.0000000e+00 0.0000000e+00 0.0000000e+00 
0.0000000e+00 0.0000000e+00 0.0000000e+00 
0.0000000e+00 0.0000000e+00 0.0000000e+00 
0.0000000e+00 0.0000000e+00 0.0000000e+00 
0.0000000e+00 0.0000000e+00 0.0000000e+00 
0.0000000e+00 0.0000000e+00 0.0000000e+00 
0.0000000e+00 0.0000000e+00 0.0000000e+00 
0.0000000e+00 0.0000000e+00 0.0000000e+00 
0.0000000e+00 0.0000000e+00 0.0000000e+00 
0.0000000e+00 0.0000000e+00 0.0000000e+00 
0.0000000e+00 0.0000000e+00 0.0000000e+00 
0.0000000e+00 0.0000000e+00 0.0000000e+00 
0.0000000e+00 0.0000000e+00 0.0000000e+00 
0.0000000e+00 0.0000000e+00 0.0000000e+00 
0.0000000e+00 0.0000000e+00 0.0000000e+00 
0.0000000e+00 0.0000000e+00 0.0000000e+00 
0.0000000e+00 0.0000000e+00 0.0000000e+00 
0.0000000e+00 0.0000000e+00 0.0000000e+00 
0.0000000e+00 0.0000000e+00 0.0000000e+00 
0.0000000e+00 0.0000000e+00 0.0000000e+00 
0.0000000e+00 0.0000000e+00 0.0000000e+00 
0.0000000e+00 0.0000000e+00 0.0000000e+00 
0.0000000e+00 0.0000000e+00 0.0000000e+00 
0.0000000e+00 0.0000000e+00 0.0000000e+00 
0.0000000e+00 0.0000000e+00 0.0000000e+00 
0.0000000e+00 0.0000000e+00 0.0000000e+00 
0.0000000e+00 0.0000000e+00 0.0000000e+00 
0.0000000e+00 0.0000000e+00 0.0000000e+00 
0.0000000e+00 0.0000000e+00 0.0000000e+00 
0.0000000e+00 0.0000000e+00 0.0000000e+00 
0.0000000e+00 0.0000000e+00 0.0000000e+00 
0.0000000e+00 0.0000000e+00 0.0000000e+00 
0.0000000e+00 0.0000000e+00 0.0000000e+00 
0.0000000e+00 0.0000000e+00 0.0000000e+00 
0.0000000e+00 0.0000000e+00 0.0000000e+00 
0.0000000e+00 0.0000000e+00 0.0000000e+00 
0.0000000e+00 0.0000000e+00 0.0000000e+00 
0.0000000e+00 0.0000000e+00 0.0000000e+00 
0.0000000e+00 0.0000000e+00 0.0000000e+00 
0.0000000e+00 0.0000000e+00 0.0000000e+00 
0.0000000e+00 0.0000000e+00 0.0000000e+00 
0.0000000e+00 0.0000000e+00 0.0000000e+00 
0.0000000e+00 0.0000000e+00 0.0000000e+00 
0.0000000e+00 0.0000000e+00 0.0000000e+00 
0.0000000e+00 0.0000000e+00 0.0000000e+00 
0.0000000e+00 0.0000000e+00 0.0000000e+00 
0.0000000e+00 0.0000000e+00 0.0000000e+00 
0.0000000e+00 0.0000000e+00 0.0000000e+00 
0.0000000e+00 0.0000000e+00 0.0000000e+00 
0.0000000e+00 0.0000000e+00 0.0000000e+00 
0.0000000e+00 0.0000000e+00 0.0000000e+00 
0.0000000e+00 0.0000000e+00 0.0000000e+00 
0.0000000e+00 0.0000000e+00 0.0000000e+00 
0.0000000e+00 0.0000000e+00 0.0000000e+00 
0.0000000e+00 0.0000000e+00 0.0000000e+00 
-1.5514195e-06 1.4876290e-06 1.9120023e-06 
-2.9432242e-06 3.9347515e-06 6.3815091e-06 
-9.1319987e-07 5.9877325e-06 3.2611269e-06 
1.5391153e-06 5.3923382e-06 -1.8320615e-07 
-1.3946753e-06 7.7092648e-07 1.2555529e-06 
4.3464242e-06 7.0128658e-06 -3.1459604e-06 
2.7381868e-06 -4.0508407e-06 -2.6961357e-06 
3.3602901e-06 1.2478816e-06 -4.2880870e-06 
9.1706988e-06 4.1451012e-06 -1.1923624e-05 
1.6502661e-05 -2.3700229e-06 -1.5893467e-05 
2.1640621e-05 -3.1126090e-06 -1.9356126e-05 
3.7195528e-05 -7.5681851e-06 -2.2674307e-05 
4.4431283e-05 -1.3582329e-05 -1.4752153e-05 
4.3532214e-05 -1.5695136e-05 -8.4225348e-06 
4.3233365e-05 -1.4181596e-05 2.2161464e-06 
3.6060319e-05 -1.4481473e-05 8.1721382e-06 
2.9830879e-05 -1.1345964e-05 1.9279574e-05 
2.0025822e-05 -5.6842537e-06 2.1522597e-05 
1.4118955e-05 -3.0263855e-06 2.2381610e-05 
5.8569044e-06 -8.9383155e-07 1.7153297e-05 
3.7290690e-06 7.3854778e-07 9.7234652e-06 
4.3009754e-06 3.0107253e-06 6.1307787e-06 
2.0235479e-06 2.5552777e-06 1.4851590e-06 
2.6281766e-06 3.1256993e-06 -1.0614821e-06 
3.1282004e-06 1.6448240e-06 1.6822027e-06 
2.2525246e-06 5.5953465e-06 -2.5663967e-06 
4.8615602e-06 -3.0253755e-06 -5.3854774e-06 
5.7687753e-06 -1.3439007e-06 -7.9488764e-06 
8.8578299e-06 5.0036774e-06 -1.3686729e-05 
2.0237996e-05 -5.7944812e-06 -1.6652484e-05 
2.5004258e-05 -1.0252068e-05 -1.7926797e-05 
3.6988484e-05 -2.7119320e-06 -1.7103455e-05 
3.7814327e-05 -1.4691279e-05 -1.2315134e-05 
4.3845979e-05 -1.2473299e-05 -3.7533147e-07 
4.3527703e-05 -1.3850737e-05 9.0916692e-06 
3.4898065e-05 -1.4483208e-05 1.9871206e-05 
2.7478845e-05 -1.0058753e-05 2.3850322e-05 
1.9003095e-05 -5.2234350e-06 2.1733737e-05 
1.3307515e-05 -5.2755722e-06 1.8450466e-05 
7.6613760e-06 -2.5625670e-06 1.1668832e-05 
3.0525141e-06 -5.3354881e-07 6.7929136e-06 
2.3768924e-07 3.4275104e-08 2.5750167e-06 
-4.0074212e-07 -1.3668765e-06 -8.7891061e-07 
-4.9580569e-07 2.0032401e-07 -1.7143761e-06 
-7.0968525e-07 4.0247571e-07 -1.8616693e-06 
-1.1108650e-07 -4.6713993e-07 -1.5946293e-06 
3.0797389e-07 -2.6494084e-07 -1.0252318e-06 
-2.4494696e-07 9.0614992e-07 -5.2943687e-07 
-6.4921079e-07 8.7173623e-07 1.5650940e-08 
0.0000000e+00 2.2616248e-05 0.0000000e+00 
0.0000000e+00 1.8473913e-05 0.0000000e+00 
0.0000000e+00 1.9672862e-05 0.0000000e+00 
0.0000000e+00 1.0090043e-05 0.0000000e+00 
0.0000000e+00 -4.7002882e-06 0.0000000e+00 
0.0000000e+00 1.5271344e-05 0.0000000e+00 
0.0000000e+00 4.2914903e-06 0.0000000e+00 
0.0000000e+00 -9.2014616e-06 0.0000000e+00 
0.0000000e+00 2.3919989e-05 0.0000000e+00 
0.0000000e+00 1.2069867e-05 0.0000000e+00 
0.0000000e+00 -4.1652642e-05 0.0000000e+00 
0.0000000e+00 -1.1231731e-04 0.0000000e+00 
0.0000000e+00 -3.7234998e-04 0.0000000e+00 
0.0000000e+00 -5.1888690e-04 0.0000000e+00 
0.0000000e+00 -5.4884836e-04 0.0000000e+00 
0.0000000e+00 -5.0996430e-04 0.0000000e+00 
0.0000000e+00 -3.4718044e-04 0.0000000e+00 
0.0000000e+00 -1.3869008e-04 0.0000000e+00 
0.0000000e+00 -1.5434902e-05 0.0000000e+00 
0.0000000e+00 3.2951419e-05 0.0000000e+00 
0.0000000e+00 3.2392200e-05 0.0000000e+00 
0.0000000e+00 4.6253253e-06 0.0000000e+00 
0.0000000e+00 -5.8830051e-06 0.0000000e+00 
0.0000000e+00 4.5984325e-06 0.0000000e+00 
0.0000000e+00 -3.8323604e-05 0.0000000e+00 
0.0000000e+00 -3.5918041e-05 0.0000000e+00 
0.0000000e+00 -4.9615719e-06 0.0000000e+00 
0.0000000e+00 -3.8467198e-05 0.0000000e+00 
0.0000000e+00 -1.0450391e-05 0.0000000e+00 
0.0000000e+00 3.2999968e-05 0.0000000e+00 
0.0000000e+00 -7.2532086e-05 0.0000000e+00 
0.0000000e+00 -1.9259455e-04 0.0000000e+00 
0.0000000e+00 -3.2967023e-04 0.0000000e+00 
0.0000000e+00 -5.5452349e-04 0.0000000e+00 
0.0000000e+00 -5.2534236e-04 0.0000000e+00 
0.0000000e+00 -4.9958267e-04 0.0000000e+00 
0.0000000e+00 -3.6254566e-04 0.0000000e+00 
0.0000000e+00 -1.5251046e-04 0.0000000e+00 
0.0000000e+00 -6.0945163e-06 0.0000000e+00 
0.0000000e+00 1.3026224e-05 0.0000000e+00 
0.0000000e+00 1.3181148e-05 0.0000000e+00 
0.0000000e+00 4.8702777e-06 0.0000000e+00 
0.0000000e+00 9.7294344e-07 0.0000000e+00 
0.0000000e+00 -1.3160809e-06 0.0000000e+00 
0.0000000e+00 5.3725086e-07 0.0000000e+00 
0.0000000e+00 1.4922974e-06 0.0000000e+00 
0.0000000e+00 1.5600880e-06 0.0000000e+00 
0.0000000e+00 -3.8007607e-07 0.0000000e+00 
0.0000000e+00 -2.2664365e-06 0.0000000e+00 
-1.6447354e-06 2.4135682e-06 2.6008736e-06 
-2.7382764e-06 8.8985034e-06 8.2560327e-06 
-4.9169835e-06 6.6311268e-06 7.3199990e-06 
-2.6367275e-06 9.2197888e-06 1.5511345e-06 
-6.2168181e-07 -5.0250344e-07 3.3089415e-07 
-3.3494470e-07 -3.5906888e-07 -1.5205454e-07 
-1.9092582e-07 -8.1487002e-07 1.2907188e-07 
-4.3443637e-07 -1.0231324e-06 5.2946643e-07 
-1.5222937e-06 7.5812744e-07 2.1135436e-06 
-4.2228399e-07 -1.2332333e-06 1.7468939e-06 
1.8493578e-06 1.0440233e-06 -1.3742798e-06 
-4.5161715e-07 1.0316207e-05 1.2061942e-05 
0.0000000e+00 2.3928867e-05 0.0000000e+00 
0.0000000e+00 3.9934770e-05 0.0000000e+00 
0.0000000e+00 3.4564076e-05 0.0000000e+00 
0.0000000e+00 1.6624521e-05 0.0000000e+00 
0.0000000e+00 1.2379525e-05 0.0000000e+00 
0.0000000e+00 2.3219058e-05 0.0000000e+00 
0.0000000e+00 1.0299209e-05 0.0000000e+00 
0.0000000e+00 1.2512240e-05 0.0000000e+00 
0.0000000e+00 4.9482118e-05 0.0000000e+00 
0.0000000e+00 1.5684243e-06 0.0000000e+00 
0.0000000e+00 -9.7799631e-05 0.0000000e+00 
0.0000000e+00 -2.5481801e-04 0.0000000e+00 
0.0000000e+00 -8.7741436e-04 0.0000000e+00 
0.0000000e+00 -1.1006257e-03 0.0000000e+00 