# vtk DataFile Version 4.0
vtk output
ASCII
DATASET UNSTRUCTURED_GRID
POINTS 1919 float
0.0000000e+00 0.0000000e+00 0.0000000e+00 
0.0000000e+00 0.0000000e+00 5.0000000e+01 
5.0000000e+00 0.0000000e+00 0.0000000e+00 
5.0000000e+00 0.0000000e+00 5.0000000e+01 
5.0000000e+00 1.0000000e+00 0.0000000e+00 
5.0000000e+00 1.0000000e+00 5.0000000e+01 
0.0000000e+00 1.0000000e+00 0.0000000e+00 
0.0000000e+00 1.0000000e+00 5.0000000e+01 
5.0000000e+00 2.0000000e+00 0.0000000e+00 
5.0000000e+00 2.0000000e+00 5.0000000e+01 
3.0000000e+00 2.0000000e+00 0.0000000e+00 
3.0000000e+00 2.0000000e+00 5.0000000e+01 
0.0000000e+00 2.0000000e+00 0.0000000e+00 
0.0000000e+00 2.0000000e+00 5.0000000e+01 
1.5000000e+00 3.0000000e+00 0.0000000e+00 
1.5000000e+00 3.0000000e+00 5.0000000e+01 
7.5000000e-01 3.0000000e+00 0.0000000e+00 
7.5000000e-01 3.0000000e+00 5.0000000e+01 
0.0000000e+00 3.0000000e+00 0.0000000e+00 
0.0000000e+00 3.0000000e+00 5.0000000e+01 
7.5000000e-01 3.0000000e+00 5.0000000e-01 
7.5000000e-01 3.0000000e+00 1.0000000e+00 
7.5000000e-01 3.0000000e+00 1.5000000e+00 
7.5000000e-01 3.0000000e+00 2.0000000e+00 
7.5000000e-01 3.0000000e+00 2.5000000e+00 
7.5000000e-01 3.0000000e+00 3.0000000e+00 
7.5000000e-01 3.0000000e+00 3.5000000e+00 
7.5000000e-01 3.0000000e+00 4.0000000e+00 
7.5000000e-01 3.0000000e+00 4.5000000e+00 
7.5000000e-01 3.0000000e+00 5.0000000e+00 
7.5000000e-01 3.0000000e+00 5.5000000e+00 
7.5000000e-01 3.0000000e+00 6.0000000e+00 
7.5000000e-01 3.0000000e+00 6.5000000e+00 
7.5000000e-01 3.0000000e+00 7.0000000e+00 
7.5000000e-01 3.0000000e+00 7.5000000e+00 
7.5000000e-01 3.0000000e+00 8.0000000e+00 
7.5000000e-01 3.0000000e+00 8.5000000e+00 
7.5000000e-01 3.0000000e+00 9.0000000e+00 
7.5000000e-01 3.0000000e+00 9.5000000e+00 
7.5000000e-01 3.0000000e+00 1.0000000e+01 
7.5000000e-01 3.0000000e+00 1.0500000e+01 
7.5000000e-01 3.0000000e+00 1.1000000e+01 
7.5000000e-01 3.0000000e+00 1.1500000e+01 
7.5000000e-01 3.0000000e+00 1.2000000e+01 
7.5000000e-01 3.0000000e+00 1.2500000e+01 
7.5000000e-01 3.0000000e+00 1.3000000e+01 
7.5000000e-01 3.0000000e+00 1.3500000e+01 
7.5000000e-01 3.0000000e+00 1.4000000e+01 
7.5000000e-01 3.0000000e+00 1.4500000e+01 
7.5000000e-01 3.0000000e+00 1.5000000e+01 
7.5000000e-01 3.0000000e+00 1.5500000e+01 
7.5000000e-01 3.0000000e+00 1.6000000e+01 
7.5000000e-01 3.0000000e+00 1.6500000e+01 
7.5000000e-01 3.0000000e+00 1.7000000e+01 
7.5000000e-01 3.0000000e+00 1.7500000e+01 
7.5000000e-01 3.0000000e+00 1.8000000e+01 
7.5000000e-01 3.0000000e+00 1.8500000e+01 
7.5000000e-01 3.0000000e+00 1.9000000e+01 
7.5000000e-01 3.0000000e+00 1.9500000e+01 
7.5000000e-01 3.0000000e+00 2.0000000e+01 
7.5000000e-01 3.0000000e+00 2.0500000e+01 
7.5000000e-01 3.0000000e+00 2.1000000e+01 
7.5000000e-01 3.0000000e+00 2.1500000e+01 
7.5000000e-01 3.0000000e+00 2.2000000e+01 
7.5000000e-01 3.0000000e+00 2.2500000e+01 
7.5000000e-01 3.0000000e+00 2.3000000e+01 
7.5000000e-01 3.0000000e+00 2.3500000e+01 
7.5000000e-01 3.0000000e+00 2.4000000e+01 
7.5000000e-01 3.0000000e+00 2.4500000e+01 
7.5000000e-01 3.0000000e+00 2.5000000e+01 
7.5000000e-01 3.0000000e+00 2.5500000e+01 
7.5000000e-01 3.0000000e+00 2.6000000e+01 
7.5000000e-01 3.0000000e+00 2.6500000e+01 
7.5000000e-01 3.0000000e+00 2.7000000e+01 
7.5000000e-01 3.0000000e+00 2.7500000e+01 
7.5000000e-01 3.0000000e+00 2.8000000e+01 
7.5000000e-01 3.0000000e+00 2.8500000e+01 
7.5000000e-01 3.0000000e+00 2.9000000e+01 
7.5000000e-01 3.0000000e+00 2.9500000e+01 
7.5000000e-01 3.0000000e+00 3.0000000e+01 
7.5000000e-01 3.0000000e+00 3.0500000e+01 
7.5000000e-01 3.0000000e+00 3.1000000e+01 
7.5000000e-01 3.0000000e+00 3.1500000e+01 
7.5000000e-01 3.0000000e+00 3.2000000e+01 
7.5000000e-01 3.0000000e+00 3.2500000e+01 
7.5000000e-01 3.0000000e+00 3.3000000e+01 
7.5000000e-01 3.0000000e+00 3.3500000e+01 
7.5000000e-01 3.0000000e+00 3.4000000e+01 
7.5000000e-01 3.0000000e+00 3.4500000e+01 
7.5000000e-01 3.0000000e+00 3.5000000e+01 
7.5000000e-01 3.0000000e+00 3.5500000e+01 
7.5000000e-01 3.0000000e+00 3.6000000e+01 
7.5000000e-01 3.0000000e+00 3.6500000e+01 
7.5000000e-01 3.0000000e+00 3.7000000e+01 
7.5000000e-01 3.0000000e+00 3.7500000e+01 
7.5000000e-01 3.0000000e+00 3.8000000e+01 
7.5000000e-01 3.0000000e+00 3.8500000e+01 
7.5000000e-01 3.0000000e+00 3.9000000e+01 
7.5000000e-01 3.0000000e+00 3.9500000e+01 
7.5000000e-01 3.0000000e+00 4.0000000e+01 
7.5000000e-01 3.0000000e+00 4.0500000e+01 
7.5000000e-01 3.0000000e+00 4.1000000e+01 
7.5000000e-01 3.0000000e+00 4.1500000e+01 
7.5000000e-01 3.0000000e+00 4.2000000e+01 
7.5000000e-01 3.0000000e+00 4.2500000e+01 
7.5000000e-01 3.0000000e+00 4.3000000e+01 
7.5000000e-01 3.0000000e+00 4.3500000e+01 
7.5000000e-01 3.0000000e+00 4.4000000e+01 
7.5000000e-01 3.0000000e+00 4.4500000e+01 
7.5000000e-01 3.0000000e+00 4.5000000e+01 
7.5000000e-01 3.0000000e+00 4.5500000e+01 
7.5000000e-01 3.0000000e+00 4.6000000e+01 
7.5000000e-01 3.0000000e+00 4.6500000e+01 
7.5000000e-01 3.0000000e+00 4.7000000e+01 
7.5000000e-01 3.0000000e+00 4.7500000e+01 
7.5000000e-01 3.0000000e+00 4.8000000e+01 
7.5000000e-01 3.0000000e+00 4.8500000e+01 
7.5000000e-01 3.0000000e+00 4.9000000e+01 
7.5000000e-01 3.0000000e+00 4.9500000e+01 
7.5000000e-01 3.0250001e+00 0.0000000e+00 
7.5000000e-01 3.0250001e+00 5.0000000e-01 
7.5000000e-01 3.0250001e+00 1.0000000e+00 
7.5000000e-01 3.0250001e+00 1.5000000e+00 
7.5000000e-01 3.0250001e+00 2.0000000e+00 
7.5000000e-01 3.0250001e+00 2.5000000e+00 
7.5000000e-01 3.0250001e+00 3.0000000e+00 
7.5000000e-01 3.0250001e+00 3.5000000e+00 
7.5000000e-01 3.0250001e+00 4.0000000e+00 
7.5000000e-01 3.0250001e+00 4.5000000e+00 
7.5000000e-01 3.0250001e+00 5.0000000e+00 
7.5000000e-01 3.0250001e+00 5.5000000e+00 
7.5000000e-01 3.0250001e+00 6.0000000e+00 
7.5000000e-01 3.0250001e+00 6.5000000e+00 
7.5000000e-01 3.0250001e+00 7.0000000e+00 
7.5000000e-01 3.0250001e+00 7.5000000e+00 
7.5000000e-01 3.0250001e+00 8.0000000e+00 
7.5000000e-01 3.0250001e+00 8.5000000e+00 
7.5000000e-01 3.0250001e+00 9.0000000e+00 
7.5000000e-01 3.0250001e+00 9.5000000e+00 
7.5000000e-01 3.0250001e+00 1.0000000e+01 
7.5000000e-01 3.0250001e+00 1.0500000e+01 
7.5000000e-01 3.0250001e+00 1.1000000e+01 
7.5000000e-01 3.0250001e+00 1.1500000e+01 
7.5000000e-01 3.0250001e+00 1.2000000e+01 
7.5000000e-01 3.0250001e+00 1.2500000e+01 
7.5000000e-01 3.0250001e+00 1.3000000e+01 
7.5000000e-01 3.0250001e+00 1.3500000e+01 
7.5000000e-01 3.0250001e+00 1.4000000e+01 
7.5000000e-01 3.0250001e+00 1.4500000e+01 
7.5000000e-01 3.0250001e+00 1.5000000e+01 
7.5000000e-01 3.0250001e+00 1.5500000e+01 
7.5000000e-01 3.0250001e+00 1.6000000e+01 
7.5000000e-01 3.0250001e+00 1.6500000e+01 
7.5000000e-01 3.0250001e+00 1.7000000e+01 
7.5000000e-01 3.0250001e+00 1.7500000e+01 
7.5000000e-01 3.0250001e+00 1.8000000e+01 
7.5000000e-01 3.0250001e+00 1.8500000e+01 
7.5000000e-01 3.0250001e+00 1.9000000e+01 
7.5000000e-01 3.0250001e+00 1.9500000e+01 
7.5000000e-01 3.0250001e+00 2.0000000e+01 
7.5000000e-01 3.0250001e+00 2.0500000e+01 
7.5000000e-01 3.0250001e+00 2.1000000e+01 
7.5000000e-01 3.0250001e+00 2.1500000e+01 
7.5000000e-01 3.0250001e+00 2.2000000e+01 
7.5000000e-01 3.0250001e+00 2.2500000e+01 
7.5000000e-01 3.0250001e+00 2.3000000e+01 
7.5000000e-01 3.0250001e+00 2.3500000e+01 
7.5000000e-01 3.0250001e+00 2.4000000e+01 
7.5000000e-01 3.0250001e+00 2.4500000e+01 
7.5000000e-01 3.0250001e+00 2.5000000e+01 
7.5000000e-01 3.0250001e+00 2.5500000e+01 
7.5000000e-01 3.0250001e+00 2.6000000e+01 
7.5000000e-01 3.0250001e+00 2.6500000e+01 
7.5000000e-01 3.0250001e+00 2.7000000e+01 
7.5000000e-01 3.0250001e+00 2.7500000e+01 
7.5000000e-01 3.0250001e+00 2.8000000e+01 
7.5000000e-01 3.0250001e+00 2.8500000e+01 
7.5000000e-01 3.0250001e+00 2.9000000e+01 
7.5000000e-01 3.0250001e+00 2.9500000e+01 
7.5000000e-01 3.0250001e+00 3.0000000e+01 
7.5000000e-01 3.0250001e+00 3.0500000e+01 
7.5000000e-01 3.0250001e+00 3.1000000e+01 
7.5000000e-01 3.0250001e+00 3.1500000e+01 
7.5000000e-01 3.0250001e+00 3.2000000e+01 
7.5000000e-01 3.0250001e+00 3.2500000e+01 
7.5000000e-01 3.0250001e+00 3.3000000e+01 
7.5000000e-01 3.0250001e+00 3.3500000e+01 
7.5000000e-01 3.0250001e+00 3.4000000e+01 
7.5000000e-01 3.0250001e+00 3.4500000e+01 
7.5000000e-01 3.0250001e+00 3.5000000e+01 
7.5000000e-01 3.0250001e+00 3.5500000e+01 
7.5000000e-01 3.0250001e+00 3.6000000e+01 
7.5000000e-01 3.0250001e+00 3.6500000e+01 
7.5000000e-01 3.0250001e+00 3.7000000e+01 
7.5000000e-01 3.0250001e+00 3.7500000e+01 
7.5000000e-01 3.0250001e+00 3.8000000e+01 
7.5000000e-01 3.0250001e+00 3.8500000e+01 
7.5000000e-01 3.0250001e+00 3.9000000e+01 
7.5000000e-01 3.0250001e+00 3.9500000e+01 
7.5000000e-01 3.0250001e+00 4.0000000e+01 
7.5000000e-01 3.0250001e+00 4.0500000e+01 
7.5000000e-01 3.0250001e+00 4.1000000e+01 
7.5000000e-01 3.0250001e+00 4.1500000e+01 
7.5000000e-01 3.0250001e+00 4.2000000e+01 
7.5000000e-01 3.0250001e+00 4.2500000e+01 
7.5000000e-01 3.0250001e+00 4.3000000e+01 
7.5000000e-01 3.0250001e+00 4.3500000e+01 
7.5000000e-01 3.0250001e+00 4.4000000e+01 
7.5000000e-01 3.0250001e+00 4.4500000e+01 
7.5000000e-01 3.0250001e+00 4.5000000e+01 
7.5000000e-01 3.0250001e+00 4.5500000e+01 
7.5000000e-01 3.0250001e+00 4.6000000e+01 
7.5000000e-01 3.0250001e+00 4.6500000e+01 
7.5000000e-01 3.0250001e+00 4.7000000e+01 
7.5000000e-01 3.0250001e+00 4.7500000e+01 
7.5000000e-01 3.0250001e+00 4.8000000e+01 
7.5000000e-01 3.0250001e+00 4.8500000e+01 
7.5000000e-01 3.0250001e+00 4.9000000e+01 
7.5000000e-01 3.0250001e+00 4.9500000e+01 
7.5000000e-01 3.0250001e+00 5.0000000e+01 
1.5000000e+00 3.0000000e+00 2.5000000e+01 
3.0000000e+00 2.0000000e+00 2.5000000e+01 
4.0000000e+00 2.0000000e+00 2.5000000e+01 
5.0000000e+00 2.0000000e+00 2.5000000e+01 
0.0000000e+00 3.0000000e+00 2.5000000e+01 
0.0000000e+00 0.0000000e+00 1.0000000e+00 
0.0000000e+00 0.0000000e+00 2.0000000e+00 
0.0000000e+00 0.0000000e+00 3.0000000e+00 
0.0000000e+00 0.0000000e+00 4.0000000e+00 
0.0000000e+00 0.0000000e+00 5.0000000e+00 
[...]
POINT_DATA 1919
FIELD FieldData 3
DISPLACEMENT 3 1919  float
0.0000000e+00 0.0000000e+00 0.0000000e+00 
0.0000000e+00 0.0000000e+00 0.0000000e+00 
0.0000000e+00 0.0000000e+00 0.0000000e+00 
0.0000000e+00 0.0000000e+00 0.0000000e+00 
-6.8405616e-06 3.0254671e-06 5.4894972e-06 
-1.3132664e-07 2.7696197e-07 2.7094996e-08 
0.0000000e+00 1.0819675e-05 0.0000000e+00 
0.0000000e+00 2.3912597e-07 0.0000000e+00 
-6.5932755e-07 3.5187341e-07 -5.4449697e-06 
-1.3164136e-07 2.7243129e-07 2.2301037e-07 
6.7446108e-06 1.6959644e-05 9.4685265e-06 
-1.2825114e-07 -2.6138710e-07 3.3925738e-07 
0.0000000e+00 -3.2132859e-06 0.0000000e+00 
0.0000000e+00 9.0451698e-07 0.0000000e+00 
-4.5357447e-05 1.0211913e-05 4.2501277e-05 
2.8758649e-07 1.2544513e-07 -1.1461306e-06 
-3.8654821e-07 -2.7570273e-05 5.1529893e-05 
1.4523829e-08 -2.1241794e-06 -1.5667690e-07 
0.0000000e+00 -5.8843321e-05 0.0000000e+00 
0.0000000e+00 -1.4825498e-07 0.0000000e+00 
-4.0488063e-05 -2.1106074e-05 1.4031475e-05 
-6.3445026e-05 -7.1066955e-07 9.2612272e-06 
-5.7065259e-05 3.4357188e-05 -4.3171876e-06 
-2.1075190e-05 8.2898077e-05 -6.2220562e-07 
-3.5560133e-06 1.3092881e-04 -1.1314156e-05 
1.4659019e-05 1.6217928e-04 -2.7066195e-05 
1.5883119e-05 1.7526095e-04 -3.5345682e-05 
3.7660830e-05 1.8644742e-04 -2.0066656e-05 
2.7975506e-05 2.1310982e-04 -1.4464582e-05 
5.0714680e-05 2.5473020e-04 1.1244180e-06 
5.3045020e-05 2.9097687e-04 4.2911170e-06 
5.3644031e-05 2.9824564e-04 9.1185475e-06 
4.9980783e-05 2.8147898e-04 1.4942843e-05 
6.1081286e-05 2.6844640e-04 3.9364128e-05 
4.2946402e-05 2.7209267e-04 8.9413312e-05 
3.4162724e-05 2.4422075e-04 1.2386881e-04 
-1.1662329e-05 6.4750238e-05 1.9779228e-04 
-5.1340081e-05 -4.0906190e-04 1.9524162e-04 
-1.2011307e-04 -1.2309459e-03 2.8416567e-04 
-1.8172689e-04 -2.3331465e-03 2.0194543e-04 
-2.8372020e-04 -3.5953417e-03 3.2449907e-04 
-4.1121527e-04 -4.6903789e-03 6.1800922e-05 
-4.6848902e-04 -5.1440494e-03 4.5326228e-06 
-4.3482767e-04 -4.8084324e-03 -4.8025806e-05 
-3.8766829e-04 -4.5238277e-03 -1.8843108e-04 
-3.0967934e-04 -4.5815865e-03 -2.5128506e-04 
-2.6020547e-04 -4.7584199e-03 -2.7362347e-04 
-2.2552753e-04 -4.3398179e-03 -3.2170661e-04 
-1.0857789e-04 -3.1058379e-03 -4.1848456e-04 
-6.0654402e-05 -1.7390841e-03 -2.3573244e-04 
2.2929722e-05 -7.2067272e-04 -2.2350407e-04 
6.1173785e-05 -1.0714115e-04 -9.2372022e-05 
8.3820509e-05 1.8649884e-04 -2.1736854e-05 
1.2136040e-04 2.6357133e-04 4.0397441e-05 
7.1752780e-05 2.1002440e-04 1.1532684e-04 
1.8705987e-05 1.1002648e-04 1.4559366e-04 
-3.8881033e-05 2.6084525e-05 1.5725638e-04 
-4.9718525e-05 -1.9354788e-05 1.2407229e-04 
-8.2192062e-05 -3.3132525e-05 9.0555914e-05 
-7.6381904e-05 -3.0346824e-05 5.1176776e-05 
-6.7717512e-05 -1.6331718e-05 1.0797935e-05 
-6.2287552e-05 7.7634904e-06 -2.8310806e-06 
-4.8731978e-05 4.2921834e-05 -2.7174910e-05 
-3.8519294e-05 8.6235006e-05 -4.8319049e-05 
3.9662459e-06 1.2811678e-04 -4.0277599e-05 
2.0807251e-05 1.6021117e-04 -4.2095198e-05 
-7.3084343e-06 1.7069776e-04 -4.4703502e-05 
2.8190025e-05 1.6103484e-04 -2.6554828e-05 
1.8140157e-05 1.5410552e-04 -3.1839787e-05 
4.8076643e-05 1.7816827e-04 -7.9957808e-06 
3.7531237e-05 2.3528928e-04 5.9040517e-06 
4.9859918e-05 2.8941242e-04 7.6358901e-06 
3.8036898e-05 3.0348779e-04 2.9868732e-05 
5.5367971e-05 2.6834826e-04 6.7455396e-05 
3.4895580e-05 2.0383143e-04 9.0124813e-05 
2.8815844e-05 1.1592369e-04 1.2088485e-04 
-2.9604838e-05 -6.5350163e-05 2.0643263e-04 
-7.9573518e-05 -4.9808424e-04 1.9387202e-04 
-1.4484453e-04 -1.3300660e-03 2.9048516e-04 
-2.2128371e-04 -2.5593601e-03 1.7088473e-04 
-3.1508427e-04 -3.9700083e-03 2.5506766e-04 
-4.2335625e-04 -4.9910140e-03 1.4644865e-05 
-4.6009649e-04 -5.1004789e-03 -4.6770401e-05 
-4.1888712e-04 -4.6557151e-03 -9.0329893e-05 
-3.8871184e-04 -4.4998829e-03 -2.1547706e-04 
-3.8544610e-04 -4.7339154e-03 -2.8302646e-04 
-3.5230236e-04 -4.9141366e-03 -3.1763632e-04 
-2.8886605e-04 -4.2286473e-03 -3.0958056e-04 
-1.5765704e-04 -2.9152113e-03 -4.5245321e-04 
-6.5605658e-05 -1.5848890e-03 -2.0804342e-04 
2.2510507e-05 -6.0334714e-04 -1.6124388e-04 
4.3310436e-05 -1.7172950e-05 -3.6069508e-05 
4.6853242e-05 2.3317746e-04 -9.6178974e-06 
5.0742237e-05 2.6360466e-04 2.5421134e-05 
3.5621171e-05 1.9931269e-04 7.2148454e-05 
2.3150991e-05 1.2375323e-04 1.5950191e-04 
-2.7328006e-05 6.7776818e-05 1.0956535e-04 
-2.4780589e-05 2.8148957e-05 6.3885120e-05 
-4.7674333e-05 -3.9956017e-06 9.8608880e-06 
-3.9636961e-05 -2.2642156e-05 -1.9395924e-05 
-1.7945416e-05 -1.9163546e-05 -4.2591451e-05 
-1.2378488e-05 -2.5127117e-06 -4.1734827e-05 
8.9224968e-06 1.0063971e-05 -3.2394244e-05 
1.3632834e-05 1.1320307e-05 -1.7059821e-05 
1.0427035e-05 5.8772043e-06 -3.9412585e-06 
9.5586156e-06 1.6422615e-06 -9.4323070e-07 
4.4064486e-06 -3.9086864e-08 1.0368589e-06 
1.2334860e-06 -1.8494480e-06 2.7186036e-06 
1.7694800e-06 -4.9277296e-06 2.4322142e-06 
-1.8558710e-07 -6.7138349e-06 1.5601410e-06 
-8.3102617e-07 -4.7399089e-06 1.9124434e-06 
-1.0760738e-06 -8.6986563e-07 9.8519058e-07 
-2.3785537e-06 1.6228919e-06 7.2073078e-07 
-1.1026964e-06 1.8717884e-06 8.8094134e-07 
4.2483930e-07 1.3734177e-06 -5.3695567e-07 
-5.3229189e-07 1.4553294e-06 9.1156602e-07 
4.9367748e-07 1.6104146e-06 -1.1522231e-07 
-3.2674660e-07 7.1753163e-07 -4.8288854e-07 
1.9610312e-07 -1.0971371e-06 -3.0941794e-07 
0.0000000e+00 -2.7658205e-05 0.0000000e+00 
0.0000000e+00 -2.1126205e-05 0.0000000e+00 
0.0000000e+00 -6.4866231e-07 0.0000000e+00 
0.0000000e+00 3.4870209e-05 0.0000000e+00 
0.0000000e+00 8.3058520e-05 0.0000000e+00 
0.0000000e+00 1.3061479e-04 0.0000000e+00 
0.0000000e+00 1.6168569e-04 0.0000000e+00 
0.0000000e+00 1.7503307e-04 0.0000000e+00 
0.0000000e+00 1.8696288e-04 0.0000000e+00 
0.0000000e+00 2.1410124e-04 0.0000000e+00 
0.0000000e+00 2.5531705e-04 0.0000000e+00 
0.0000000e+00 2.9029368e-04 0.0000000e+00 
0.0000000e+00 2.9750055e-04 0.0000000e+00 
0.0000000e+00 2.8156757e-04 0.0000000e+00 
0.0000000e+00 2.7014071e-04 0.0000000e+00 
0.0000000e+00 2.7510125e-04 0.0000000e+00 
0.0000000e+00 2.4636695e-04 0.0000000e+00 
0.0000000e+00 6.2560081e-05 0.0000000e+00 
0.0000000e+00 -4.1357489e-04 0.0000000e+00 
0.0000000e+00 -1.2340837e-03 0.0000000e+00 
0.0000000e+00 -2.3419114e-03 0.0000000e+00 
0.0000000e+00 -3.6067858e-03 0.0000000e+00 
0.0000000e+00 -4.7194902e-03 0.0000000e+00 
0.0000000e+00 -5.1722750e-03 0.0000000e+00 
0.0000000e+00 -4.8437254e-03 0.0000000e+00 
0.0000000e+00 -4.5416029e-03 0.0000000e+00 
0.0000000e+00 -4.6057496e-03 0.0000000e+00 
0.0000000e+00 -4.7816704e-03 0.0000000e+00 
0.0000000e+00 -4.3720985e-03 0.0000000e+00 
0.0000000e+00 -3.1267875e-03 0.0000000e+00 
0.0000000e+00 -1.7528135e-03 0.0000000e+00 
0.0000000e+00 -7.2451652e-04 0.0000000e+00 
0.0000000e+00 -1.0747620e-04 0.0000000e+00 
0.0000000e+00 1.8709451e-04 0.0000000e+00 
0.0000000e+00 2.6383923e-04 0.0000000e+00 
0.0000000e+00 2.1126567e-04 0.0000000e+00 
0.0000000e+00 1.1160657e-04 0.0000000e+00 
0.0000000e+00 2.6779158e-05 0.0000000e+00 
0.0000000e+00 -1.9435136e-05 0.0000000e+00 
0.0000000e+00 -3.3412351e-05 0.0000000e+00 
0.0000000e+00 -3.0144889e-05 0.0000000e+00 
0.0000000e+00 -1.6328388e-05 0.0000000e+00 
0.0000000e+00 7.6788492e-06 0.0000000e+00 
0.0000000e+00 4.2910160e-05 0.0000000e+00 
0.0000000e+00 8.6168002e-05 0.0000000e+00 
0.0000000e+00 1.2867503e-04 0.0000000e+00 
0.0000000e+00 1.6024071e-04 0.0000000e+00 
0.0000000e+00 1.6987935e-04 0.0000000e+00 
0.0000000e+00 1.6040496e-04 0.0000000e+00 
0.0000000e+00 1.5481107e-04 0.0000000e+00 
0.0000000e+00 1.7984214e-04 0.0000000e+00 
0.0000000e+00 2.3598467e-04 0.0000000e+00 
0.0000000e+00 2.8892898e-04 0.0000000e+00 
0.0000000e+00 3.0226738e-04 0.0000000e+00 
0.0000000e+00 2.6833604e-04 0.0000000e+00 
0.0000000e+00 2.0623126e-04 0.0000000e+00 
0.0000000e+00 1.1936166e-04 0.0000000e+00 
0.0000000e+00 -6.4268112e-05 0.0000000e+00 
0.0000000e+00 -5.0184771e-04 0.0000000e+00 
0.0000000e+00 -1.3382760e-03 0.0000000e+00 
0.0000000e+00 -2.5743730e-03 0.0000000e+00 
0.0000000e+00 -3.9818985e-03 0.0000000e+00 
0.0000000e+00 -5.0192396e-03 0.0000000e+00 
0.0000000e+00 -5.1268740e-03 0.0000000e+00 
0.0000000e+00 -4.6900096e-03 0.0000000e+00 
0.0000000e+00 -4.5192782e-03 0.0000000e+00 
0.0000000e+00 -4.7617736e-03 0.0000000e+00 
0.0000000e+00 -4.9360869e-03 0.0000000e+00 
0.0000000e+00 -4.2604315e-03 0.0000000e+00 
0.0000000e+00 -2.9305201e-03 0.0000000e+00 
0.0000000e+00 -1.5954564e-03 0.0000000e+00 
0.0000000e+00 -6.0697418e-04 0.0000000e+00 
0.0000000e+00 -1.8987301e-05 0.0000000e+00 
0.0000000e+00 2.3341666e-04 0.0000000e+00 
0.0000000e+00 2.6576041e-04 0.0000000e+00 
0.0000000e+00 2.0125041e-04 0.0000000e+00 
0.0000000e+00 1.2462343e-04 0.0000000e+00 
0.0000000e+00 6.7744972e-05 0.0000000e+00 
0.0000000e+00 2.7736725e-05 0.0000000e+00 
0.0000000e+00 -3.8772082e-06 0.0000000e+00 
0.0000000e+00 -2.1990680e-05 0.0000000e+00 
0.0000000e+00 -1.9053365e-05 0.0000000e+00 
0.0000000e+00 -3.0104277e-06 0.0000000e+00 
0.0000000e+00 9.7162947e-06 0.0000000e+00 
0.0000000e+00 1.1333155e-05 0.0000000e+00 
0.0000000e+00 6.1238966e-06 0.0000000e+00 
0.0000000e+00 1.7007146e-06 0.0000000e+00 
0.0000000e+00 -1.2455048e-07 0.0000000e+00 
0.0000000e+00 -1.9258159e-06 0.0000000e+00 
0.0000000e+00 -4.8874417e-06 0.0000000e+00 
0.0000000e+00 -6.5827039e-06 0.0000000e+00 
0.0000000e+00 -4.7315943e-06 0.0000000e+00 
0.0000000e+00 -9.6098051e-07 0.0000000e+00 
0.0000000e+00 1.5664966e-06 0.0000000e+00 
0.0000000e+00 1.8945274e-06 0.0000000e+00 
0.0000000e+00 1.4258159e-06 0.0000000e+00 
0.0000000e+00 1.4611891e-06 0.0000000e+00 
0.0000000e+00 1.5728092e-06 0.0000000e+00 
0.0000000e+00 6.7775022e-07 0.0000000e+00 
0.0000000e+00 -1.0881014e-06 0.0000000e+00 
0.0000000e+00 -2.0792927e-06 0.0000000e+00 
8.1455772e-05 1.7208430e-04 -5.1187977e-05 
8.8341139e-06 8.9445784e-06 -4.9686564e-06 
1.0976223e-05 -3.8189854e-05 -2.3010534e-06 
1.1134131e-05 -9.7090115e-06 2.4319816e-06 
0.0000000e+00 4.4483477e-05 0.0000000e+00 
0.0000000e+00 0.0000000e+00 0.0000000e+00 
0.0000000e+00 0.0000000e+00 0.0000000e+00 
0.0000000e+00 0.0000000e+00 0.0000000e+00 
0.0000000e+00 0.0000000e+00 0.0000000e+00 
0.0000000e+00 0.0000000e+00 0.0000000e+00 
0.0000000e+00 0.0000000e+00 0.0000000e+00 
0.0000000e+00 0.0000000e+00 0.0000000e+00 
0.0000000e+00 0.0000000e+00 0.0000000e+00 
0.0000000e+00 0.0000000e+00 0.0000000e+00 
0.0000000e+00 0.0000000e+00 0.0000000e+00 
0.0000000e+00 0.0000000e+00 0.0000000e+00 
0.0000000e+00 0.0000000e+00 0.0000000e+00 
0.0000000e+00 0.0000000e+00 0.0000000e+00 
0.0000000e+00 0.0000000e+00 0.0000000e+00 
0.0000000e+00 0.0000000e+00 0.0000000e+00 
0.0000000e+00 0.0000000e+00 0.0000000e+00 
0.0000000e+00 0.0000000e+00 0.0000000e+00 
0.0000000e+00 0.0000000e+00 0.0000000e+00 
0.0000000e+00 0.0000000e+00 0.0000000e+00 
0.0000000e+00 0.0000000e+00 0.0000000e+00 
0.0000000e+00 0.0000000e+00 0.0000000e+00 
0.0000000e+00 0.0000000e+00 0.0000000e+00 
0.0000000e+00 0.0000000e+00 0.0000000e+00 
0.0000000e+00 0.0000000e+00 0.0000000e+00 
0.0000000e+00 0.0000000e+00 0.0000000e+00 
0.0000000e+00 0.0000000e+00 0.0000000e+00 
0.0000000e+00 0.0000000e+00 0.0000000e+00 
0.0000000e+00 0.0000000e+00 0.0000000e+00 
0.0000000e+00 0.0000000e+00 0.0000000e+00 
0.0000000e+00 0.0000000e+00 0.0000000e+00 
0.0000000e+00 0.0000000e+00 0.0000000e+00 
0.0000000e+00 0.0000000e+00 0.0000000e+00 
0.0000000e+00 0.0000000e+00 0.0000000e+00 
0.0000000e+00 0.0000000e+00 0.0000000e+00 
0.0000000e+00 0.0000000e+00 0.0000000e+00 
0.0000000e+00 0.0000000e+00 0.0000000e+00 
0.0000000e+00 0.0000000e+00 0.0000000e+00 
0.0000000e+00 0.0000000e+00 0.0000000e+00 
0.0000000e+00 0.0000000e+00 0.0000000e+00 
0.0000000e+00 0.0000000e+00 0.0000000e+00 
0.0000000e+00 0.0000000e+00 0.0000000e+00 
0.0000000e+00 0.0000000e+00 0.0000000e+00 
0.0000000e+00 0.0000000e+00 0.0000000e+00 
0.0000000e+00 0.0000000e+00 0.0000000e+00 
0.0000000e+00 0.0000000e+00 0.0000000e+00 
0.0000000e+00 0.0000000e+00 0.0000000e+00 
0.0000000e+00 0.0000000e+00 0.0000000e+00 
0.0000000e+00 0.0000000e+00 0.0000000e+00 
0.0000000e+00 0.0000000e+00 0.0000000e+00 
0.0000000e+00 0.0000000e+00 0.0000000e+00 
0.0000000e+00 0.0000000e+00 0.0000000e+00 
0.0000000e+00 0.0000000e+00 0.0000000e+00 
0.0000000e+00 0.0000000e+00 0.0000000e+00 
0.0000000e+00 0.0000000e+00 0.0000000e+00 
0.0000000e+00 0.0000000e+00 0.0000000e+00 
0.0000000e+00 0.0000000e+00 0.0000000e+00 
0.0000000e+00 0.0000000e+00 0.0000000e+00 
0.0000000e+00 0.0000000e+00 0.0000000e+00 
0.0000000e+00 0.0000000e+00 0.0000000e+00 
0.0000000e+00 0.0000000e+00 0.0000000e+00 
0.0000000e+00 0.0000000e+00 0.0000000e+00 
0.0000000e+00 0.0000000e+00 0.0000000e+00 
0.0000000e+00 0.0000000e+00 0.0000000e+00 
0.0000000e+00 0.0000000e+00 0.0000000e+00 
0.0000000e+00 0.0000000e+00 0.0000000e+00 
0.0000000e+00 0.0000000e+00 0.0000000e+00 
0.0000000e+00 0.0000000e+00 0.0000000e+00 
0.0000000e+00 0.0000000e+00 0.0000000e+00 
0.0000000e+00 0.0000000e+00 0.0000000e+00 
0.0000000e+00 0.0000000e+00 0.0000000e+00 
0.0000000e+00 0.0000000e+00 0.0000000e+00 
0.0000000e+00 0.0000000e+00 0.0000000e+00 
0.0000000e+00 0.0000000e+00 0.0000000e+00 
0.0000000e+00 0.0000000e+00 0.0000000e+00 
0.0000000e+00 0.0000000e+00 0.0000000e+00 
0.0000000e+00 0.0000000e+00 0.0000000e+00 
0.0000000e+00 0.0000000e+00 0.0000000e+00 
0.0000000e+00 0.0000000e+00 0.0000000e+00 
0.0000000e+00 0.0000000e+00 0.0000000e+00 
0.0000000e+00 0.0000000e+00 0.0000000e+00 
0.0000000e+00 0.0000000e+00 0.0000000e+00 
0.0000000e+00 0.0000000e+00 0.0000000e+00 
0.0000000e+00 0.0000000e+00 0.0000000e+00 
0.0000000e+00 0.0000000e+00 0.0000000e+00 
0.0000000e+00 0.0000000e+00 0.0000000e+00 
0.0000000e+00 0.0000000e+00 0.0000000e+00 
0.0000000e+00 0.0000000e+00 0.0000000e+00 
0.0000000e+00 0.0000000e+00 0.0000000e+00 
0.0000000e+00 0.0000000e+00 0.0000000e+00 
0.0000000e+00 0.0000000e+00 0.0000000e+00 
0.0000000e+00 0.0000000e+00 0.0000000e+00 
0.0000000e+00 0.0000000e+00 0.0000000e+00 
0.0000000e+00 0.0000000e+00 0.0000000e+00 
0.0000000e+00 0.0000000e+00 0.0000000e+00 
0.0000000e+00 0.0000000e+00 0.0000000e+00 
0.0000000e+00 0.0000000e+00 0.0000000e+00 
0.0000000e+00 0.0000000e+00 0.0000000e+00 
0.0000000e+00 0.0000000e+00 0.0000000e+00 
0.0000000e+00 0.0000000e+00 0.0000000e+00 
0.0000000e+00 0.0000000e+00 0.0000000e+00 
0.0000000e+00 0.0000000e+00 0.0000000e+00 
0.0000000e+00 0.0000000e+00 0.0000000e+00 
0.0000000e+00 0.0000000e+00 0.0000000e+00 
0.0000000e+00 0.0000000e+00 0.0000000e+00 
0.0000000e+00 0.0000000e+00 0.0000000e+00 
0.0000000e+00 0.0000000e+00 0.0000000e+00 
9.4306432e-07 6.1632845e-06 -3.8981211e-06 
8.9798796e-06 4.5484917e-06 -1.0974909e-05 
1.6572872e-05 -2.5720844e-06 -8.5474067e-06 
1.8454808e-05 -2.5207822e-07 -7.4014561e-06 
2.3280852e-05 -8.5456786e-06 -6.8806885e-06 
1.7925779e-05 -1.5829544e-05 -7.4161617e-06 
2.9077120e-05 -5.7367329e-06 -8.8609377e-06 
3.7770456e-05 -1.4768809e-05 -8.9285013e-06 
4.1251475e-05 -6.2879653e-06 -1.0845052e-05 
5.7040834e-05 -2.6522998e-06 -9.8959918e-06 
5.4862445e-05 -8.2513716e-06 -8.9839168e-06 
5.0404637e-05 -9.2654045e-06 -6.7362516e-06 
3.8187081e-05 -1.2203370e-05 -3.8475441e-06 
2.5969124e-05 -9.9038753e-06 -1.5485069e-06 
1.0699765e-05 -4.7712788e-06 4.7461731e-06 
5.2772225e-06 -6.1732180e-07 7.6362376e-06 
-1.9083895e-07 -2.0670859e-06 1.2236388e-05 
-5.3085596e-06 4.6520879e-07 1.9400670e-05 
-5.8459595e-06 6.0672560e-06 2.0366486e-05 
3.5888866e-06 1.5627359e-06 1.6369908e-05 
6.5927679e-06 2.3491607e-06 1.4436711e-05 
1.1787401e-05 2.1598617e-06 1.2895764e-06 
1.2896823e-05 9.2225349e-07 -2.7598842e-06 
1.3768294e-05 -2.1724261e-06 -5.5710148e-06 
1.6688313e-05 -1.2734869e-05 -1.0331482e-05 
2.2494331e-05 -2.2702028e-05 -1.0640596e-05 
2.9040561e-05 -9.3632443e-06 -1.0792796e-05 
4.1136867e-05 -1.1642365e-05 -8.2771257e-06 
5.2307510e-05 -1.3778532e-05 -1.0447055e-05 
5.8867394e-05 -5.0155709e-06 -8.9489067e-06 
5.4052092e-05 -3.8697267e-06 -3.5223923e-06 
4.8005510e-05 -8.6576738e-06 -3.0069759e-06 
3.5365068e-05 -4.6414420e-06 1.9799591e-06 
2.1311491e-05 -4.2950887e-06 -1.2695796e-06 
1.3190950e-05 -3.0096399e-07 -1.6215488e-07 
6.1119185e-06 -9.5765506e-07 2.9716205e-06 
3.5621222e-06 -3.2528826e-06 6.6391526e-06 
2.9833980e-06 -1.8265180e-06 1.2946702e-05 
1.8591427e-06 -1.0427212e-06 1.3091847e-05 
2.6952625e-06 -2.3619607e-06 1.1537932e-05 
2.6645935e-06 -3.8638427e-06 7.2837925e-06 
1.9929132e-06 -2.2420102e-06 3.3689043e-06 
2.6665549e-07 2.3113905e-06 -6.3504490e-07 
-2.0655999e-07 6.8794543e-07 -3.7068446e-06 
-8.5210985e-07 -1.0676248e-06 -3.4232476e-06 
-8.1783116e-07 2.6073133e-07 -1.7732727e-06 
-2.4421291e-07 4.4539877e-07 -3.1676225e-07 
2.1343747e-07 -8.6116557e-08 3.5688097e-07 
2.3506726e-07 -3.5977374e-07 4.6555820e-07 
0.0000000e+00 -7.4600671e-06 0.0000000e+00 
0.0000000e+00 -1.9835428e-05 0.0000000e+00 
0.0000000e+00 -4.9678405e-05 0.0000000e+00 
0.0000000e+00 -4.1739797e-05 0.0000000e+00 
0.0000000e+00 -2.6754173e-05 0.0000000e+00 
0.0000000e+00 -6.8483139e-05 0.0000000e+00 
0.0000000e+00 -3.7751895e-05 0.0000000e+00 
0.0000000e+00 -6.5918328e-05 0.0000000e+00 
0.0000000e+00 -2.3811837e-04 0.0000000e+00 
0.0000000e+00 -3.7057546e-04 0.0000000e+00 
0.0000000e+00 -4.9531070e-04 0.0000000e+00 
0.0000000e+00 -5.5157865e-04 0.0000000e+00 
0.0000000e+00 -4.9251335e-04 0.0000000e+00 
0.0000000e+00 -3.8354314e-04 0.0000000e+00 
0.0000000e+00 -1.9729689e-04 0.0000000e+00 
0.0000000e+00 -5.3412496e-05 0.0000000e+00 
0.0000000e+00 1.4394810e-05 0.0000000e+00 
0.0000000e+00 1.2246998e-05 0.0000000e+00 
0.0000000e+00 5.0498315e-06 0.0000000e+00 
0.0000000e+00 -1.5828835e-05 0.0000000e+00 
0.0000000e+00 -2.2371210e-05 0.0000000e+00 
0.0000000e+00 -1.6809659e-05 0.0000000e+00 
0.0000000e+00 -3.2158732e-05 0.0000000e+00 
0.0000000e+00 -5.5399316e-05 0.0000000e+00 
0.0000000e+00 1.2170216e-05 0.0000000e+00 
0.0000000e+00 9.9706967e-06 0.0000000e+00 
0.0000000e+00 -4.7135665e-05 0.0000000e+00 
0.0000000e+00 -3.6831043e-05 0.0000000e+00 
0.0000000e+00 -2.2478793e-04 0.0000000e+00 
0.0000000e+00 -4.2705741e-04 0.0000000e+00 
0.0000000e+00 -5.0317927e-04 0.0000000e+00 
0.0000000e+00 -5.6074251e-04 0.0000000e+00 
0.0000000e+00 -5.0518342e-04 0.0000000e+00 
0.0000000e+00 -3.5215254e-04 0.0000000e+00 
0.0000000e+00 -1.8122193e-04 0.0000000e+00 
0.0000000e+00 -3.0534717e-05 0.0000000e+00 
0.0000000e+00 -3.3891440e-06 0.0000000e+00 
0.0000000e+00 2.9349551e-06 0.0000000e+00 
0.0000000e+00 -7.0784913e-06 0.0000000e+00 
0.0000000e+00 -6.5491649e-06 0.0000000e+00 
0.0000000e+00 5.9454019e-06 0.0000000e+00 
0.0000000e+00 7.6918741e-06 0.0000000e+00 
0.0000000e+00 -2.4612013e-06 0.0000000e+00 
0.0000000e+00 -3.1777561e-06 0.0000000e+00 
0.0000000e+00 8.2056488e-07 0.0000000e+00 
0.0000000e+00 1.7507276e-06 0.0000000e+00 
0.0000000e+00 -1.9434917e-07 0.0000000e+00 
0.0000000e+00 -8.1935190e-07 0.0000000e+00 
0.0000000e+00 -4.7241187e-07 0.0000000e+00 
-5.2306300e-06 7.8751482e-06 2.7633425e-06 
-1.8249816e-06 8.6225891e-06 6.7672827e-06 
3.0741944e-06 1.9767464e-05 1.6383887e-05 
8.0938353e-06 1.0916031e-05 1.4829084e-05 
1.9148231e-07 -2.8112652e-08 2.1646927e-07 
-1.2879021e-08 -3.7931355e-07 3.6343474e-07 
-4.7432331e-07 2.0320829e-07 5.6393651e-07 
-2.4982094e-07 6.9741098e-08 4.8632398e-07 
4.2555598e-06 1.2466108e-05 5.9900390e-07 
-9.1662855e-08 4.5042879e-07 -7.3452625e-08 
7.4415806e-07 9.4877623e-06 2.5966372e-05 
3.8163444e-06 3.1635729e-05 1.8833412e-05 
0.0000000e+00 -9.3918006e-06 0.0000000e+00 
0.0000000e+00 -4.9967122e-05 0.0000000e+00 
0.0000000e+00 -6.5752385e-05 0.0000000e+00 
0.0000000e+00 -5.3311614e-05 0.0000000e+00 
0.0000000e+00 -3.8178183e-05 0.0000000e+00 
0.0000000e+00 -6.8892965e-05 0.0000000e+00 
0.0000000e+00 -6.3297317e-05 0.0000000e+00 
0.0000000e+00 -1.3540713e-04 0.0000000e+00 
0.0000000e+00 -4.2853356e-04 0.0000000e+00 
0.0000000e+00 -6.9834705e-04 0.0000000e+00 
0.0000000e+00 -1.1204534e-03 0.0000000e+00 
0.0000000e+00 -1.1816981e-03 0.0000000e+00 
0.0000000e+00 -1.0327710e-03 0.0000000e+00 
0.0000000e+00 -8.1742194e-04 0.0000000e+00 