# vtk DataFile Version 4.0
vtk output
ASCII
DATASET UNSTRUCTURED_GRID
POINTS 1919 float
0.0000000e+00 0.0000000e+00 0.0000000e+00 
0.0000000e+00 0.0000000e+00 5.0000000e+01 
5.0000000e+00 0.0000000e+00 0.0000000e+00 
5.0000000e+00 0.0000000e+00 5.0000000e+01 
5.0000000e+00 1.0000000e+00 0.0000000e+00 
5.0000000e+00 1.0000000e+00 5.0000000e+01 
0.0000000e+00 1.0000000e+00 0.0000000e+00 
0.0000000e+00 1.0000000e+00 5.0000000e+01 
5.0000000e+00 2.0000000e+00 0.0000000e+00 
5.0000000e+00 2.0000000e+00 5.0000000e+01 
3.0000000e+00 2.0000000e+00 0.0000000e+00 
3.0000000e+00 2.0000000e+00 5.0000000e+01 
0.0000000e+00 2.0000000e+00 0.0000000e+00 
0.0000000e+00 2.0000000e+00 5.0000000e+01 
1.5000000e+00 3.0000000e+00 0.0000000e+00 
1.5000000e+00 3.0000000e+00 5.0000000e+01 
7.5000000e-01 3.0000000e+00 0.0000000e+00 
7.5000000e-01 3.0000000e+00 5.0000000e+01 
0.0000000e+00 3.0000000e+00 0.0000000e+00 
0.0000000e+00 3.0000000e+00 5.0000000e+01 
7.5000000e-01 3.0000000e+00 5.0000000e-01 
7.5000000e-01 3.0000000e+00 1.0000000e+00 
7.5000000e-01 3.0000000e+00 1.5000000e+00 
7.5000000e-01 3.0000000e+00 2.0000000e+00 
7.5000000e-01 3.0000000e+00 2.5000000e+00 
7.5000000e-01 3.0000000e+00 3.0000000e+00 
7.5000000e-01 3.0000000e+00 3.5000000e+00 
7.5000000e-01 3.0000000e+00 4.0000000e+00 
7.5000000e-01 3.0000000e+00 4.5000000e+00 
7.5000000e-01 3.0000000e+00 5.0000000e+00 
7.5000000e-01 3.0000000e+00 5.5000000e+00 
7.5000000e-01 3.0000000e+00 6.0000000e+00 
7.5000000e-01 3.0000000e+00 6.5000000e+00 
7.5000000e-01 3.0000000e+00 7.0000000e+00 
7.5000000e-01 3.0000000e+00 7.5000000e+00 
7.5000000e-01 3.0000000e+00 8.0000000e+00 
7.5000000e-01 3.0000000e+00 8.5000000e+00 
7.5000000e-01 3.0000000e+00 9.0000000e+00 
7.5000000e-01 3.0000000e+00 9.5000000e+00 
7.5000000e-01 3.0000000e+00 1.0000000e+01 
7.5000000e-01 3.0000000e+00 1.0500000e+01 
7.5000000e-01 3.0000000e+00 1.1000000e+01 
7.5000000e-01 3.0000000e+00 1.1500000e+01 
7.5000000e-01 3.0000000e+00 1.2000000e+01 
7.5000000e-01 3.0000000e+00 1.2500000e+01 
7.5000000e-01 3.0000000e+00 1.3000000e+01 
7.5000000e-01 3.0000000e+00 1.3500000e+01 
7.5000000e-01 3.0000000e+00 1.4000000e+01 
7.5000000e-01 3.0000000e+00 1.4500000e+01 
7.5000000e-01 3.0000000e+00 1.5000000e+01 
7.5000000e-01 3.0000000e+00 1.5500000e+01 
7.5000000e-01 3.0000000e+00 1.6000000e+01 
7.5000000e-01 3.0000000e+00 1.6500000e+01 
7.5000000e-01 3.0000000e+00 1.7000000e+01 
7.5000000e-01 3.0000000e+00 1.7500000e+01 
7.5000000e-01 3.0000000e+00 1.8000000e+01 
7.5000000e-01 3.0000000e+00 1.8500000e+01 
7.5000000e-01 3.0000000e+00 1.9000000e+01 
7.5000000e-01 3.0000000e+00 1.9500000e+01 
7.5000000e-01 3.0000000e+00 2.0000000e+01 
7.5000000e-01 3.0000000e+00 2.0500000e+01 
7.5000000e-01 3.0000000e+00 2.1000000e+01 
7.5000000e-01 3.0000000e+00 2.1500000e+01 
7.5000000e-01 3.0000000e+00 2.2000000e+01 
7.5000000e-01 3.0000000e+00 2.2500000e+01 
7.5000000e-01 3.0000000e+00 2.3000000e+01 
7.5000000e-01 3.0000000e+00 2.3500000e+01 
7.5000000e-01 3.0000000e+00 2.4000000e+01 
7.5000000e-01 3.0000000e+00 2.4500000e+01 
7.5000000e-01 3.0000000e+00 2.5000000e+01 
7.5000000e-01 3.0000000e+00 2.5500000e+01 
7.5000000e-01 3.0000000e+00 2.6000000e+01 
7.5000000e-01 3.0000000e+00 2.6500000e+01 
7.5000000e-01 3.0000000e+00 2.7000000e+01 
7.5000000e-01 3.0000000e+00 2.7500000e+01 
7.5000000e-01 3.0000000e+00 2.8000000e+01 
7.5000000e-01 3.0000000e+00 2.8500000e+01 
7.5000000e-01 3.0000000e+00 2.9000000e+01 
7.5000000e-01 3.0000000e+00 2.9500000e+01 
7.5000000e-01 3.0000000e+00 3.0000000e+01 
7.5000000e-01 3.0000000e+00 3.0500000e+01 
7.5000000e-01 3.0000000e+00 3.1000000e+01 
7.5000000e-01 3.0000000e+00 3.1500000e+01 
7.5000000e-01 3.0000000e+00 3.2000000e+01 
7.5000000e-01 3.0000000e+00 3.2500000e+01 
7.5000000e-01 3.0000000e+00 3.3000000e+01 
7.5000000e-01 3.0000000e+00 3.3500000e+01 
7.5000000e-01 3.0000000e+00 3.4000000e+01 
7.5000000e-01 3.0000000e+00 3.4500000e+01 
7.5000000e-01 3.0000000e+00 3.5000000e+01 
7.5000000e-01 3.0000000e+00 3.5500000e+01 
7.5000000e-01 3.0000000e+00 3.6000000e+01 
7.5000000e-01 3.0000000e+00 3.6500000e+01 
7.5000000e-01 3.0000000e+00 3.7000000e+01 
7.5000000e-01 3.0000000e+00 3.7500000e+01 
7.5000000e-01 3.0000000e+00 3.8000000e+01 
7.5000000e-01 3.0000000e+00 3.8500000e+01 
7.5000000e-01 3.0000000e+00 3.9000000e+01 
7.5000000e-01 3.0000000e+00 3.9500000e+01 
7.5000000e-01 3.0000000e+00 4.0000000e+01 
7.5000000e-01 3.0000000e+00 4.0500000e+01 
7.5000000e-01 3.0000000e+00 4.1000000e+01 
7.5000000e-01 3.0000000e+00 4.1500000e+01 
7.5000000e-01 3.0000000e+00 4.2000000e+01 
7.5000000e-01 3.0000000e+00 4.2500000e+01 
7.5000000e-01 3.0000000e+00 4.3000000e+01 
7.5000000e-01 3.0000000e+00 4.3500000e+01 
7.5000000e-01 3.0000000e+00 4.4000000e+01 
7.5000000e-01 3.0000000e+00 4.4500000e+01 
7.5000000e-01 3.0000000e+00 4.5000000e+01 
7.5000000e-01 3.0000000e+00 4.5500000e+01 
7.5000000e-01 3.0000000e+00 4.6000000e+01 
7.5000000e-01 3.0000000e+00 4.6500000e+01 
7.5000000e-01 3.0000000e+00 4.7000000e+01 
7.5000000e-01 3.0000000e+00 4.7500000e+01 
7.5000000e-01 3.0000000e+00 4.8000000e+01 
7.5000000e-01 3.0000000e+00 4.8500000e+01 
7.5000000e-01 3.0000000e+00 4.9000000e+01 
7.5000000e-01 3.0000000e+00 4.9500000e+01 
7.5000000e-01 3.0250001e+00 0.0000000e+00 
7.5000000e-01 3.0250001e+00 5.0000000e-01 
7.5000000e-01 3.0250001e+00 1.0000000e+00 
7.5000000e-01 3.0250001e+00 1.5000000e+00 
7.5000000e-01 3.0250001e+00 2.0000000e+00 
7.5000000e-01 3.0250001e+00 2.5000000e+00 
7.5000000e-01 3.0250001e+00 3.0000000e+00 
7.5000000e-01 3.0250001e+00 3.5000000e+00 
7.5000000e-01 3.0250001e+00 4.0000000e+00 
7.5000000e-01 3.0250001e+00 4.5000000e+00 
7.5000000e-01 3.0250001e+00 5.0000000e+00 
7.5000000e-01 3.0250001e+00 5.5000000e+00 
7.5000000e-01 3.0250001e+00 6.0000000e+00 
7.5000000e-01 3.0250001e+00 6.5000000e+00 
7.5000000e-01 3.0250001e+00 7.0000000e+00 
7.5000000e-01 3.0250001e+00 7.5000000e+00 
7.5000000e-01 3.0250001e+00 8.0000000e+00 
7.5000000e-01 3.0250001e+00 8.5000000e+00 
7.5000000e-01 3.0250001e+00 9.0000000e+00 
7.5000000e-01 3.0250001e+00 9.5000000e+00 
7.5000000e-01 3.0250001e+00 1.0000000e+01 
7.5000000e-01 3.0250001e+00 1.0500000e+01 
7.5000000e-01 3.0250001e+00 1.1000000e+01 
7.5000000e-01 3.0250001e+00 1.1500000e+01 
7.5000000e-01 3.0250001e+00 1.2000000e+01 
7.5000000e-01 3.0250001e+00 1.2500000e+01 
7.5000000e-01 3.0250001e+00 1.3000000e+01 
7.5000000e-01 3.0250001e+00 1.3500000e+01 
7.5000000e-01 3.0250001e+00 1.4000000e+01 
7.5000000e-01 3.0250001e+00 1.4500000e+01 
7.5000000e-01 3.0250001e+00 1.5000000e+01 
7.5000000e-01 3.0250001e+00 1.5500000e+01 
7.5000000e-01 3.0250001e+00 1.6000000e+01 
7.5000000e-01 3.0250001e+00 1.6500000e+01 
7.5000000e-01 3.0250001e+00 1.7000000e+01 
7.5000000e-01 3.0250001e+00 1.7500000e+01 
7.5000000e-01 3.0250001e+00 1.8000000e+01 
7.5000000e-01 3.0250001e+00 1.8500000e+01 
7.5000000e-01 3.0250001e+00 1.9000000e+01 
7.5000000e-01 3.0250001e+00 1.9500000e+01 
7.5000000e-01 3.0250001e+00 2.0000000e+01 
7.5000000e-01 3.0250001e+00 2.0500000e+01 
7.5000000e-01 3.0250001e+00 2.1000000e+01 
7.5000000e-01 3.0250001e+00 2.1500000e+01 
7.5000000e-01 3.0250001e+00 2.2000000e+01 
7.5000000e-01 3.0250001e+00 2.2500000e+01 
7.5000000e-01 3.0250001e+00 2.3000000e+01 
7.5000000e-01 3.0250001e+00 2.3500000e+01 
7.5000000e-01 3.0250001e+00 2.4000000e+01 
7.5000000e-01 3.0250001e+00 2.4500000e+01 
7.5000000e-01 3.0250001e+00 2.5000000e+01 
7.5000000e-01 3.0250001e+00 2.5500000e+01 
7.5000000e-01 3.0250001e+00 2.6000000e+01 
7.5000000e-01 3.0250001e+00 2.6500000e+01 
7.5000000e-01 3.0250001e+00 2.7000000e+01 
7.5000000e-01 3.0250001e+00 2.7500000e+01 
7.5000000e-01 3.0250001e+00 2.8000000e+01 
7.5000000e-01 3.0250001e+00 2.8500000e+01 
7.5000000e-01 3.0250001e+00 2.9000000e+01 
7.5000000e-01 3.0250001e+00 2.9500000e+01 
7.5000000e-01 3.0250001e+00 3.0000000e+01 
7.5000000e-01 3.0250001e+00 3.0500000e+01 
7.5000000e-01 3.0250001e+00 3.1000000e+01 
7.5000000e-01 3.0250001e+00 3.1500000e+01 
7.5000000e-01 3.0250001e+00 3.2000000e+01 
7.5000000e-01 3.0250001e+00 3.2500000e+01 
7.5000000e-01 3.0250001e+00 3.3000000e+01 
7.5000000e-01 3.0250001e+00 3.3500000e+01 
7.5000000e-01 3.0250001e+00 3.4000000e+01 
7.5000000e-01 3.0250001e+00 3.4500000e+01 
7.5000000e-01 3.0250001e+00 3.5000000e+01 
7.5000000e-01 3.0250001e+00 3.5500000e+01 
7.5000000e-01 3.0250001e+00 3.6000000e+01 
7.5000000e-01 3.0250001e+00 3.6500000e+01 
7.5000000e-01 3.0250001e+00 3.7000000e+01 
7.5000000e-01 3.0250001e+00 3.7500000e+01 
7.5000000e-01 3.0250001e+00 3.8000000e+01 
7.5000000e-01 3.0250001e+00 3.8500000e+01 
7.5000000e-01 3.0250001e+00 3.9000000e+01 
7.5000000e-01 3.0250001e+00 3.9500000e+01 
7.5000000e-01 3.0250001e+00 4.0000000e+01 
7.5000000e-01 3.0250001e+00 4.0500000e+01 
7.5000000e-01 3.0250001e+00 4.1000000e+01 
7.5000000e-01 3.0250001e+00 4.1500000e+01 
7.5000000e-01 3.0250001e+00 4.2000000e+01 
7.5000000e-01 3.0250001e+00 4.2500000e+01 
7.5000000e-01 3.0250001e+00 4.3000000e+01 
7.5000000e-01 3.0250001e+00 4.3500000e+01 
7.5000000e-01 3.0250001e+00 4.4000000e+01 
7.5000000e-01 3.0250001e+00 4.4500000e+01 
7.5000000e-01 3.0250001e+00 4.5000000e+01 
7.5000000e-01 3.0250001e+00 4.5500000e+01 
7.5000000e-01 3.0250001e+00 4.6000000e+01 
7.5000000e-01 3.0250001e+00 4.6500000e+01 
7.5000000e-01 3.0250001e+00 4.7000000e+01 
7.5000000e-01 3.0250001e+00 4.7500000e+01 
7.5000000e-01 3.0250001e+00 4.8000000e+01 
7.5000000e-01 3.0250001e+00 4.8500000e+01 
7.5000000e-01 3.0250001e+00 4.9000000e+01 
7.5000000e-01 3.0250001e+00 4.9500000e+01 
7.5000000e-01 3.0250001e+00 5.0000000e+01 
1.5000000e+00 3.0000000e+00 2.5000000e+01 
3.0000000e+00 2.0000000e+00 2.5000000e+01 
4.0000000e+00 2.0000000e+00 2.5000000e+01 
5.0000000e+00 2.0000000e+00 2.5000000e+01 
0.0000000e+00 3.0000000e+00 2.5000000e+01 
0.0000000e+00 0.0000000e+00 1.0000000e+00 
0.0000000e+00 0.0000000e+00 2.0000000e+00 
0.0000000e+00 0.0000000e+00 3.0000000e+00 
0.0000000e+00 0.0000000e+00 4.0000000e+00 
0.0000000e+00 0.0000000e+00 5.0000000e+00 
[...]
POINT_DATA 1919
FIELD FieldData 3
DISPLACEMENT 3 1919  float
0.0000000e+00 0.0000000e+00 0.0000000e+00 
0.0000000e+00 0.0000000e+00 0.0000000e+00 
0.0000000e+00 0.0000000e+00 0.0000000e+00 
0.0000000e+00 0.0000000e+00 0.0000000e+00 
1.9943709e-06 -1.9790607e-06 -1.7201959e-05 
-1.8406247e-09 -2.2649527e-09 1.9843431e-09 
0.0000000e+00 -7.5828948e-06 0.0000000e+00 
0.0000000e+00 -1.1280072e-07 0.0000000e+00 
-1.1313075e-05 -1.6455299e-06 -6.1386872e-06 
-1.7128981e-08 9.4452535e-09 -1.7157527e-08 
-2.0613885e-05 -3.3376768e-05 1.6635904e-05 
-4.9116998e-08 1.5030002e-08 -2.6908923e-08 
0.0000000e+00 2.2923161e-05 0.0000000e+00 
0.0000000e+00 5.8769086e-08 0.0000000e+00 
1.5017266e-05 -3.4891815e-05 9.5360330e-05 
1.0564187e-07 -6.3334156e-08 2.0533916e-07 
3.1968972e-05 -1.4775182e-04 9.9371369e-05 
-1.1143667e-08 -1.7900923e-06 -1.1777752e-07 
0.0000000e+00 4.8611349e-05 0.0000000e+00 
0.0000000e+00 1.0972129e-06 0.0000000e+00 
-1.6168438e-05 -1.1809962e-04 6.6596338e-05 
-5.8029814e-06 -6.0593440e-05 4.9615195e-05 
-3.7158061e-06 -2.5261599e-05 5.5049961e-05 
1.8675477e-05 -2.4252611e-05 6.4600674e-05 
2.0276906e-05 -1.9714364e-05 4.0710191e-05 
4.4179218e-05 4.1233674e-05 4.1996569e-05 
2.5729828e-06 1.7505328e-04 6.7885187e-05 
5.6530109e-05 3.2518909e-04 5.2405852e-05 
6.3373103e-05 3.8023217e-04 8.6296997e-05 
1.4569658e-04 2.3878679e-04 1.4260779e-04 
6.4564105e-05 -1.3506590e-04 2.2456291e-04 
8.7004577e-05 -7.3467748e-04 1.8977538e-04 
-7.8040204e-05 -1.5969817e-03 3.4455361e-04 
-7.9570535e-05 -2.7435813e-03 1.6796411e-04 
-2.1572575e-04 -4.0673465e-03 2.6830641e-04 
-2.5418337e-04 -4.9662939e-03 8.1865597e-05 
-3.0810939e-04 -4.8338757e-03 -5.4501881e-05 
-2.2601588e-04 -4.3697506e-03 -6.4808060e-05 
-2.1788449e-04 -4.2753886e-03 -1.0246556e-04 
-1.9404001e-04 -4.5385663e-03 -2.2704731e-04 
-2.2896954e-04 -4.5681912e-03 -2.6397815e-04 
-2.4718925e-04 -3.5539782e-03 -2.3966015e-04 
-1.8344233e-04 -2.1933117e-03 -3.8825814e-04 
-1.2383521e-04 -1.0437362e-03 -2.5043279e-04 
-2.4066852e-05 -3.2192754e-04 -3.0185084e-04 
1.8807570e-05 5.1041676e-05 -1.6892837e-04 
5.4083288e-05 2.1080772e-04 -6.0715553e-05 
4.4062897e-05 2.5135456e-04 7.5854500e-06 
-1.1995498e-06 2.1836454e-04 5.3936659e-05 
-7.1741069e-06 1.4267009e-04 4.7022600e-05 
-1.5784315e-05 6.1279869e-05 3.0798874e-05 
-1.0596394e-05 6.5043687e-06 1.6116428e-05 
1.7510492e-06 -1.3669431e-05 -1.5005455e-06 
8.9265347e-07 -1.2797605e-05 -3.3482032e-05 
-1.7757681e-06 -2.4008802e-06 -1.6857253e-05 
-7.2691805e-06 1.1533522e-05 -1.0855560e-05 
3.6641588e-06 1.9328678e-05 -6.4825308e-06 
1.3325279e-05 4.9763321e-06 1.3792831e-05 
2.2433564e-05 -3.8907969e-05 3.8335824e-05 
-2.3666587e-06 -9.3487099e-05 5.7028676e-05 
-1.2289845e-05 -1.2215695e-04 4.9458828e-05 
-1.0799740e-05 -1.0110728e-04 2.4442124e-05 
-1.1135224e-05 -4.1344269e-05 4.0854324e-05 
1.9307603e-05 2.3143377e-05 5.4301156e-05 
2.3688308e-05 7.3752184e-05 3.8897386e-05 
5.6617486e-05 1.2166623e-04 5.3008793e-05 
3.9458635e-05 1.9768743e-04 7.1908339e-06 
1.0957812e-05 3.0405281e-04 4.2066731e-05 
1.0664773e-04 3.6761802e-04 7.6940014e-05 
8.1257844e-05 2.5821873e-04 1.1971689e-04 
4.9139515e-05 -1.5011191e-04 1.9389178e-04 
5.9249065e-05 -8.7085721e-04 1.5999432e-04 
-5.5909106e-05 -1.8781646e-03 3.1203736e-04 
-9.8352568e-05 -3.0689589e-03 1.2845552e-04 
-2.5890276e-04 -4.2450698e-03 2.5976851e-04 
-2.6653043e-04 -4.8732930e-03 9.0055823e-05 
-3.0049632e-04 -4.7115469e-03 -5.3099877e-05 
-2.9208971e-04 -4.4327048e-03 -8.5714164e-05 
-2.8411209e-04 -4.5293421e-03 -1.8547657e-04 
-3.1127231e-04 -4.7503416e-03 -3.1685835e-04 
-2.8350868e-04 -4.4940887e-03 -3.7510178e-04 
-2.4420826e-04 -3.3010680e-03 -2.5730184e-04 
-1.7567916e-04 -1.9464918e-03 -3.9197042e-04 
-1.1211023e-04 -8.9342205e-04 -2.3324374e-04 
-8.2964134e-06 -2.5056402e-04 -2.7387901e-04 
3.4560238e-05 9.0083617e-05 -1.3951855e-04 
5.0413291e-05 2.3715921e-04 -4.5831657e-05 
3.9047329e-05 2.6141803e-04 2.6110774e-05 
-3.2371343e-06 2.1219153e-04 6.7157569e-05 
-1.0969039e-05 1.3328331e-04 4.8569298e-05 
-1.0026748e-05 5.9863592e-05 2.3379913e-05 
-1.4043518e-06 6.4413807e-06 1.1924665e-05 
3.8277135e-06 -2.5012598e-05 2.2786892e-06 
-1.1902018e-06 -3.4673925e-05 -7.1261647e-06 
2.7362189e-06 -2.5019865e-05 -6.8502977e-06 
-1.1361017e-06 -8.5818838e-06 -5.9297672e-06 
1.0123438e-06 7.5931814e-07 -1.1211963e-06 
-1.4222536e-06 -1.5152173e-06 1.0619561e-06 
-3.4233855e-07 -6.9980033e-06 -2.8408549e-06 
-1.4657097e-07 -5.5633518e-06 1.2001755e-06 
-7.4120299e-10 3.5287062e-06 2.4235560e-06 
-3.3145927e-08 1.0739429e-05 -1.0079475e-06 
8.1022688e-07 8.6564442e-06 1.6255867e-06 
3.6994106e-07 4.8247801e-07 1.7369720e-07 
-7.1232108e-07 -6.0560296e-06 -1.5072833e-06 
-3.1133010e-07 -6.7335509e-06 1.5856112e-07 
-4.6604644e-08 -2.8462644e-06 -5.7654711e-07 
-1.4087624e-07 1.3237106e-06 -3.9221922e-07 
3.1832346e-07 3.3984841e-06 9.5184356e-07 
7.6748279e-08 3.4166585e-06 -2.2055013e-07 
-1.3158336e-07 1.5941436e-06 -1.4304024e-07 
-5.3045046e-08 -1.1172225e-06 2.0399952e-07 
-7.7763147e-08 -2.9010569e-06 -3.8049333e-07 
-5.7000992e-08 -2.4477381e-06 2.5089038e-08 
7.3601505e-08 1.7653681e-09 2.8034825e-07 
-5.5304003e-08 2.3352666e-06 -4.2049450e-08 
-5.2189478e-08 2.6022817e-06 1.2121319e-07 
1.0881655e-07 9.6245549e-07 -1.9770536e-09 
-4.6573927e-08 -9.7051020e-07 -5.5127929e-09 
0.0000000e+00 -1.4647744e-04 0.0000000e+00 
0.0000000e+00 -1.1767021e-04 0.0000000e+00 
0.0000000e+00 -6.1911072e-05 0.0000000e+00 
0.0000000e+00 -2.6927824e-05 0.0000000e+00 
0.0000000e+00 -2.4774972e-05 0.0000000e+00 
0.0000000e+00 -1.8880361e-05 0.0000000e+00 
0.0000000e+00 4.3464948e-05 0.0000000e+00 
0.0000000e+00 1.7763895e-04 0.0000000e+00 
0.0000000e+00 3.2583551e-04 0.0000000e+00 
0.0000000e+00 3.7824723e-04 0.0000000e+00 
0.0000000e+00 2.3695672e-04 0.0000000e+00 
0.0000000e+00 -1.3402129e-04 0.0000000e+00 
0.0000000e+00 -7.3530723e-04 0.0000000e+00 
0.0000000e+00 -1.6001901e-03 0.0000000e+00 
0.0000000e+00 -2.7609095e-03 0.0000000e+00 
0.0000000e+00 -4.0896675e-03 0.0000000e+00 
0.0000000e+00 -5.0014602e-03 0.0000000e+00 
0.0000000e+00 -4.8541864e-03 0.0000000e+00 
0.0000000e+00 -4.3953857e-03 0.0000000e+00 
0.0000000e+00 -4.2951196e-03 0.0000000e+00 
0.0000000e+00 -4.5673135e-03 0.0000000e+00 
0.0000000e+00 -4.5927428e-03 0.0000000e+00 
0.0000000e+00 -3.5802058e-03 0.0000000e+00 
0.0000000e+00 -2.2053707e-03 0.0000000e+00 
0.0000000e+00 -1.0533772e-03 0.0000000e+00 
0.0000000e+00 -3.2267440e-04 0.0000000e+00 
0.0000000e+00 5.3210304e-05 0.0000000e+00 
0.0000000e+00 2.1224591e-04 0.0000000e+00 
0.0000000e+00 2.5144647e-04 0.0000000e+00 
0.0000000e+00 2.1820156e-04 0.0000000e+00 
0.0000000e+00 1.4319070e-04 0.0000000e+00 
0.0000000e+00 6.2381674e-05 0.0000000e+00 
0.0000000e+00 7.2286025e-06 0.0000000e+00 
0.0000000e+00 -1.3980260e-05 0.0000000e+00 
0.0000000e+00 -1.3119067e-05 0.0000000e+00 
0.0000000e+00 -2.3142943e-06 0.0000000e+00 
0.0000000e+00 1.1766596e-05 0.0000000e+00 
0.0000000e+00 1.9264569e-05 0.0000000e+00 
0.0000000e+00 4.2747151e-06 0.0000000e+00 
0.0000000e+00 -3.9705206e-05 0.0000000e+00 
0.0000000e+00 -9.3439412e-05 0.0000000e+00 
0.0000000e+00 -1.2117875e-04 0.0000000e+00 
0.0000000e+00 -1.0024305e-04 0.0000000e+00 
0.0000000e+00 -4.1411564e-05 0.0000000e+00 
0.0000000e+00 2.2605196e-05 0.0000000e+00 
0.0000000e+00 7.2815281e-05 0.0000000e+00 
0.0000000e+00 1.2182941e-04 0.0000000e+00 
0.0000000e+00 2.0013168e-04 0.0000000e+00 
0.0000000e+00 3.0693435e-04 0.0000000e+00 
0.0000000e+00 3.6896690e-04 0.0000000e+00 
0.0000000e+00 2.5491975e-04 0.0000000e+00 
0.0000000e+00 -1.5216887e-04 0.0000000e+00 
0.0000000e+00 -8.7497581e-04 0.0000000e+00 
0.0000000e+00 -1.8812794e-03 0.0000000e+00 
0.0000000e+00 -3.0846465e-03 0.0000000e+00 
0.0000000e+00 -4.2677019e-03 0.0000000e+00 
0.0000000e+00 -4.9107065e-03 0.0000000e+00 
0.0000000e+00 -4.7342801e-03 0.0000000e+00 
0.0000000e+00 -4.4594444e-03 0.0000000e+00 
0.0000000e+00 -4.5450134e-03 0.0000000e+00 
0.0000000e+00 -4.7784774e-03 0.0000000e+00 
0.0000000e+00 -4.5173396e-03 0.0000000e+00 
0.0000000e+00 -3.3286712e-03 0.0000000e+00 
0.0000000e+00 -1.9579846e-03 0.0000000e+00 
0.0000000e+00 -8.9970819e-04 0.0000000e+00 
0.0000000e+00 -2.4983796e-04 0.0000000e+00 
0.0000000e+00 9.1260918e-05 0.0000000e+00 
0.0000000e+00 2.3771392e-04 0.0000000e+00 
0.0000000e+00 2.6190971e-04 0.0000000e+00 
0.0000000e+00 2.1276272e-04 0.0000000e+00 
0.0000000e+00 1.3395536e-04 0.0000000e+00 
0.0000000e+00 6.0189752e-05 0.0000000e+00 
0.0000000e+00 6.5775707e-06 0.0000000e+00 
0.0000000e+00 -2.4846762e-05 0.0000000e+00 
0.0000000e+00 -3.4347599e-05 0.0000000e+00 
0.0000000e+00 -2.5118206e-05 0.0000000e+00 
0.0000000e+00 -9.0018157e-06 0.0000000e+00 
0.0000000e+00 3.8351072e-07 0.0000000e+00 
0.0000000e+00 -1.3926984e-06 0.0000000e+00 
0.0000000e+00 -6.6406956e-06 0.0000000e+00 
0.0000000e+00 -5.3329650e-06 0.0000000e+00 
0.0000000e+00 3.3468732e-06 0.0000000e+00 
0.0000000e+00 1.0373547e-05 0.0000000e+00 
0.0000000e+00 8.6009632e-06 0.0000000e+00 
0.0000000e+00 6.8232276e-07 0.0000000e+00 
0.0000000e+00 -5.8881287e-06 0.0000000e+00 
0.0000000e+00 -6.6863281e-06 0.0000000e+00 
0.0000000e+00 -2.9415326e-06 0.0000000e+00 
0.0000000e+00 1.2427467e-06 0.0000000e+00 
0.0000000e+00 3.4102252e-06 0.0000000e+00 
0.0000000e+00 3.3962626e-06 0.0000000e+00 
0.0000000e+00 1.5712785e-06 0.0000000e+00 
0.0000000e+00 -1.0804962e-06 0.0000000e+00 
0.0000000e+00 -2.8495967e-06 0.0000000e+00 
0.0000000e+00 -2.4083772e-06 0.0000000e+00 
0.0000000e+00 -2.1635671e-08 0.0000000e+00 
0.0000000e+00 2.2671459e-06 0.0000000e+00 
0.0000000e+00 2.5762661e-06 0.0000000e+00 
0.0000000e+00 9.9042518e-07 0.0000000e+00 
0.0000000e+00 -9.4874991e-07 0.0000000e+00 
0.0000000e+00 -1.7860330e-06 0.0000000e+00 
-3.0668522e-05 4.4584594e-04 1.2737067e-05 
2.2282255e-05 1.2807841e-04 6.6459529e-06 
4.4475732e-05 1.6177069e-04 2.6188952e-06 
6.7828638e-05 -1.3204820e-05 -1.9917929e-05 
0.0000000e+00 -5.8812503e-04 0.0000000e+00 
0.0000000e+00 0.0000000e+00 0.0000000e+00 
0.0000000e+00 0.0000000e+00 0.0000000e+00 
0.0000000e+00 0.0000000e+00 0.0000000e+00 
0.0000000e+00 0.0000000e+00 0.0000000e+00 
0.0000000e+00 0.0000000e+00 0.0000000e+00 
0.0000000e+00 0.0000000e+00 0.0000000e+00 
0.0000000e+00 0.0000000e+00 0.0000000e+00 
0.0000000e+00 0.0000000e+00 0.0000000e+00 
0.0000000e+00 0.0000000e+00 0.0000000e+00 
0.0000000e+00 0.0000000e+00 0.0000000e+00 
0.0000000e+00 0.0000000e+00 0.0000000e+00 
0.0000000e+00 0.0000000e+00 0.0000000e+00 
0.0000000e+00 0.0000000e+00 0.0000000e+00 
0.0000000e+00 0.0000000e+00 0.0000000e+00 
0.0000000e+00 0.0000000e+00 0.0000000e+00 
0.0000000e+00 0.0000000e+00 0.0000000e+00 
0.0000000e+00 0.0000000e+00 0.0000000e+00 
0.0000000e+00 0.0000000e+00 0.0000000e+00 
0.0000000e+00 0.0000000e+00 0.0000000e+00 
0.0000000e+00 0.0000000e+00 0.0000000e+00 
0.0000000e+00 0.0000000e+00 0.0000000e+00 
0.0000000e+00 0.0000000e+00 0.0000000e+00 
0.0000000e+00 0.0000000e+00 0.0000000e+00 
0.0000000e+00 0.0000000e+00 0.0000000e+00 
0.0000000e+00 0.0000000e+00 0.0000000e+00 
0.0000000e+00 0.0000000e+00 0.0000000e+00 
0.0000000e+00 0.0000000e+00 0.0000000e+00 
0.0000000e+00 0.0000000e+00 0.0000000e+00 
0.0000000e+00 0.0000000e+00 0.0000000e+00 
0.0000000e+00 0.0000000e+00 0.0000000e+00 
0.0000000e+00 0.0000000e+00 0.0000000e+00 
0.0000000e+00 0.0000000e+00 0.0000000e+00 
0.0000000e+00 0.0000000e+00 0.0000000e+00 
0.0000000e+00 0.0000000e+00 0.0000000e+00 
0.0000000e+00 0.0000000e+00 0.0000000e+00 
0.0000000e+00 0.0000000e+00 0.0000000e+00 
0.0000000e+00 0.0000000e+00 0.0000000e+00 
0.0000000e+00 0.0000000e+00 0.0000000e+00 
0.0000000e+00 0.0000000e+00 0.0000000e+00 
0.0000000e+00 0.0000000e+00 0.0000000e+00 
0.0000000e+00 0.0000000e+00 0.0000000e+00 
0.0000000e+00 0.0000000e+00 0.0000000e+00 
0.0000000e+00 0.0000000e+00 0.0000000e+00 
0.0000000e+00 0.0000000e+00 0.0000000e+00 
0.0000000e+00 0.0000000e+00 0.0000000e+00 
0.0000000e+00 0.0000000e+00 0.0000000e+00 
0.0000000e+00 0.0000000e+00 0.0000000e+00 
0.0000000e+00 0.0000000e+00 0.0000000e+00 
0.0000000e+00 0.0000000e+00 0.0000000e+00 
0.0000000e+00 0.0000000e+00 0.0000000e+00 
0.0000000e+00 0.0000000e+00 0.0000000e+00 
0.0000000e+00 0.0000000e+00 0.0000000e+00 
0.0000000e+00 0.0000000e+00 0.0000000e+00 
0.0000000e+00 0.0000000e+00 0.0000000e+00 
0.0000000e+00 0.0000000e+00 0.0000000e+00 
0.0000000e+00 0.0000000e+00 0.0000000e+00 
0.0000000e+00 0.0000000e+00 0.0000000e+00 
0.0000000e+00 0.0000000e+00 0.0000000e+00 
0.0000000e+00 0.0000000e+00 0.0000000e+00 
0.0000000e+00 0.0000000e+00 0.0000000e+00 
0.0000000e+00 0.0000000e+00 0.0000000e+00 
0.0000000e+00 0.0000000e+00 0.0000000e+00 
0.0000000e+00 0.0000000e+00 0.0000000e+00 
0.0000000e+00 0.0000000e+00 0.0000000e+00 
0.0000000e+00 0.0000000e+00 0.0000000e+00 
0.0000000e+00 0.0000000e+00 0.0000000e+00 
0.0000000e+00 0.0000000e+00 0.0000000e+00 
0.0000000e+00 0.0000000e+00 0.0000000e+00 
0.0000000e+00 0.0000000e+00 0.0000000e+00 
0.0000000e+00 0.0000000e+00 0.0000000e+00 
0.0000000e+00 0.0000000e+00 0.0000000e+00 
0.0000000e+00 0.0000000e+00 0.0000000e+00 
0.0000000e+00 0.0000000e+00 0.0000000e+00 
0.0000000e+00 0.0000000e+00 0.0000000e+00 
0.0000000e+00 0.0000000e+00 0.0000000e+00 
0.0000000e+00 0.0000000e+00 0.0000000e+00 
0.0000000e+00 0.0000000e+00 0.0000000e+00 
0.0000000e+00 0.0000000e+00 0.0000000e+00 
0.0000000e+00 0.0000000e+00 0.0000000e+00 
0.0000000e+00 0.0000000e+00 0.0000000e+00 
0.0000000e+00 0.0000000e+00 0.0000000e+00 
0.0000000e+00 0.0000000e+00 0.0000000e+00 
0.0000000e+00 0.0000000e+00 0.0000000e+00 
0.0000000e+00 0.0000000e+00 0.0000000e+00 
0.0000000e+00 0.0000000e+00 0.0000000e+00 
0.0000000e+00 0.0000000e+00 0.0000000e+00 
0.0000000e+00 0.0000000e+00 0.0000000e+00 
0.0000000e+00 0.0000000e+00 0.0000000e+00 
0.0000000e+00 0.0000000e+00 0.0000000e+00 
0.0000000e+00 0.0000000e+00 0.0000000e+00 
0.0000000e+00 0.0000000e+00 0.0000000e+00 
0.0000000e+00 0.0000000e+00 0.0000000e+00 
0.0000000e+00 0.0000000e+00 0.0000000e+00 
0.0000000e+00 0.0000000e+00 0.0000000e+00 
0.0000000e+00 0.0000000e+00 0.0000000e+00 
0.0000000e+00 0.0000000e+00 0.0000000e+00 
0.0000000e+00 0.0000000e+00 0.0000000e+00 
0.0000000e+00 0.0000000e+00 0.0000000e+00 
0.0000000e+00 0.0000000e+00 0.0000000e+00 
0.0000000e+00 0.0000000e+00 0.0000000e+00 
0.0000000e+00 0.0000000e+00 0.0000000e+00 
0.0000000e+00 0.0000000e+00 0.0000000e+00 
0.0000000e+00 0.0000000e+00 0.0000000e+00 
0.0000000e+00 0.0000000e+00 0.0000000e+00 
0.0000000e+00 0.0000000e+00 0.0000000e+00 
0.0000000e+00 0.0000000e+00 0.0000000e+00 
-1.1712964e-05 -1.5211634e-05 -7.6482257e-07 
-3.0623825e-05 -1.5258574e-05 2.5524152e-05 
-5.0321360e-05 -1.3023035e-05 3.4954057e-05 
-5.4260418e-05 -2.7158640e-05 2.7576982e-05 
-5.0814306e-05 -1.7135157e-05 1.1305047e-05 
-3.1317319e-05 -9.1034008e-06 -3.4355803e-06 
-3.0257259e-05 -1.0838537e-05 -2.7830529e-05 
-1.6307376e-05 -3.4098670e-05 -3.7351881e-05 
-1.6426760e-05 -4.8763020e-05 -4.1513234e-05 
1.1937400e-06 -5.6248213e-05 -3.7839342e-05 
5.7646671e-06 -1.2116228e-05 -3.7596815e-06 
8.3147443e-06 -1.6702652e-05 2.0438434e-05 
1.5141431e-05 -2.5254449e-06 3.2072177e-05 
1.6393762e-05 2.7214381e-05 3.6835198e-05 
3.0636957e-06 -3.0289088e-06 2.4795354e-05 
1.4554472e-06 -2.7384765e-05 5.2961450e-06 
4.6436958e-06 -3.4962479e-06 -1.0749045e-05 
9.4869984e-06 1.8053395e-05 -1.6641012e-05 
-1.2934142e-07 -7.1440622e-06 -1.9415733e-05 
-8.1898979e-06 -6.9072744e-06 -5.7716429e-06 
-1.6817385e-05 -5.8851360e-06 4.5817951e-06 
-2.1750311e-05 -1.2791532e-05 2.1316922e-05 
-3.0667914e-05 -1.3163505e-05 3.2288743e-05 
-4.1827072e-05 1.3657972e-06 2.3143077e-05 
-2.1184085e-05 1.5669902e-05 3.5097668e-07 
-2.1619122e-05 1.4444733e-05 -1.3322916e-05 
-2.8260076e-05 -1.6441514e-05 -3.6859074e-05 
-1.4127438e-05 -5.4497599e-05 -5.2588151e-05 
-1.8584309e-05 -6.4682157e-05 -4.4303055e-05 
1.0540177e-06 -3.3844317e-05 -2.7927730e-05 
9.0903741e-06 -1.1918848e-05 4.6044702e-06 
5.3204749e-06 -1.5448501e-05 2.7492551e-05 
1.2675739e-05 9.9658348e-07 3.3314114e-05 
1.8203291e-05 1.8266794e-05 3.1802436e-05 
4.1498611e-06 -4.7972862e-06 2.4132130e-05 
3.0094980e-06 -1.6975737e-05 1.0011191e-05 
4.6744140e-06 -3.6589077e-07 -8.0587250e-07 
-1.9620609e-06 8.9030646e-06 -3.4906905e-06 
-1.5335607e-06 6.9750639e-10 -1.1075873e-06 
1.0558712e-06 -4.0253190e-06 9.7110865e-07 
2.9431837e-07 7.0124639e-07 7.3312783e-08 
-7.2531407e-07 1.4708872e-06 -4.0410782e-07 
4.9005720e-08 -8.1334059e-07 1.6423000e-07 
1.7880413e-07 -2.1180030e-07 -9.5030552e-09 
-1.2937014e-07 3.8238636e-07 -6.9626402e-08 
-1.8936756e-08 -2.9552623e-08 9.9824412e-08 
1.8493203e-08 -4.6938748e-08 8.3925016e-08 
-4.4080730e-09 7.7919768e-09 -2.3576030e-08 
-6.1249232e-09 -2.0215698e-09 -4.7024704e-09 
0.0000000e+00 2.0776873e-05 0.0000000e+00 
0.0000000e+00 -6.4080305e-06 0.0000000e+00 
0.0000000e+00 8.1357598e-07 0.0000000e+00 
0.0000000e+00 -3.6738067e-05 0.0000000e+00 
0.0000000e+00 -1.1588956e-04 0.0000000e+00 
0.0000000e+00 -2.1961190e-04 0.0000000e+00 
0.0000000e+00 -4.6733790e-04 0.0000000e+00 
0.0000000e+00 -6.0031674e-04 0.0000000e+00 
0.0000000e+00 -5.4729066e-04 0.0000000e+00 
0.0000000e+00 -4.9176958e-04 0.0000000e+00 
0.0000000e+00 -3.6099533e-04 0.0000000e+00 
0.0000000e+00 -1.5447660e-04 0.0000000e+00 
0.0000000e+00 -3.4285497e-06 0.0000000e+00 
0.0000000e+00 2.1105081e-05 0.0000000e+00 
0.0000000e+00 6.4449353e-07 0.0000000e+00 
0.0000000e+00 4.9250848e-06 0.0000000e+00 
0.0000000e+00 -1.3225233e-05 0.0000000e+00 
0.0000000e+00 7.5594830e-06 0.0000000e+00 
0.0000000e+00 9.5450139e-07 0.0000000e+00 
0.0000000e+00 1.5875728e-05 0.0000000e+00 
0.0000000e+00 1.8536708e-05 0.0000000e+00 
0.0000000e+00 -5.2339792e-06 0.0000000e+00 
0.0000000e+00 -1.6482452e-05 0.0000000e+00 
0.0000000e+00 1.4107255e-05 0.0000000e+00 
0.0000000e+00 -1.6670773e-04 0.0000000e+00 
0.0000000e+00 -3.4718614e-04 0.0000000e+00 
0.0000000e+00 -4.7358446e-04 0.0000000e+00 
0.0000000e+00 -6.2753964e-04 0.0000000e+00 
0.0000000e+00 -5.3166907e-04 0.0000000e+00 
0.0000000e+00 -4.4438665e-04 0.0000000e+00 
0.0000000e+00 -3.1868310e-04 0.0000000e+00 
0.0000000e+00 -1.0205909e-04 0.0000000e+00 
0.0000000e+00 -3.9486422e-06 0.0000000e+00 
0.0000000e+00 1.7159824e-05 0.0000000e+00 
0.0000000e+00 -3.5903493e-06 0.0000000e+00 
0.0000000e+00 6.0484176e-06 0.0000000e+00 
0.0000000e+00 7.7421322e-07 0.0000000e+00 
0.0000000e+00 2.0450811e-06 0.0000000e+00 
0.0000000e+00 1.6243743e-07 0.0000000e+00 
0.0000000e+00 -6.7920581e-07 0.0000000e+00 
0.0000000e+00 -2.0769148e-06 0.0000000e+00 
0.0000000e+00 1.7665031e-06 0.0000000e+00 
0.0000000e+00 1.0103710e-06 0.0000000e+00 
0.0000000e+00 -1.3970543e-06 0.0000000e+00 
0.0000000e+00 -4.4860826e-07 0.0000000e+00 
0.0000000e+00 8.5566523e-07 0.0000000e+00 
0.0000000e+00 2.6240650e-07 0.0000000e+00 
0.0000000e+00 -1.0840500e-07 0.0000000e+00 
0.0000000e+00 4.8561742e-07 0.0000000e+00 
-1.0671094e-05 -2.0368003e-05 4.4074446e-07 
-1.6330423e-05 -7.9077190e-06 1.7765178e-05 
-1.2885949e-05 -1.0748458e-05 1.8617184e-05 
-7.2183989e-06 -1.9085459e-07 4.9943087e-06 
3.8828256e-09 -3.2900043e-09 4.3124988e-09 
7.1972801e-09 9.4706198e-09 2.4208774e-08 
-2.6480283e-08 1.0931714e-07 -7.7518088e-08 
4.5547399e-08 -1.3934321e-07 -1.5055948e-08 
-1.8115468e-05 -2.4467899e-05 3.5763339e-06 
4.2864869e-08 6.0008793e-09 2.8047866e-08 
2.7783803e-06 -2.4652894e-05 1.7915609e-05 
-3.4143952e-06 -2.1293998e-05 3.9946044e-05 
0.0000000e+00 -6.6782186e-06 0.0000000e+00 
0.0000000e+00 -1.0051272e-05 0.0000000e+00 
0.0000000e+00 7.4203308e-06 0.0000000e+00 
0.0000000e+00 -8.5391366e-05 0.0000000e+00 
0.0000000e+00 -2.8247197e-04 0.0000000e+00 
0.0000000e+00 -5.3678552e-04 0.0000000e+00 
0.0000000e+00 -9.9807279e-04 0.0000000e+00 
0.0000000e+00 -1.2456540e-03 0.0000000e+00 
0.0000000e+00 -1.1210659e-03 0.0000000e+00 
0.0000000e+00 -1.0441393e-03 0.0000000e+00 
0.0000000e+00 -7.2213664e-04 0.0000000e+00 
0.0000000e+00 -2.2744352e-04 0.0000000e+00 
0.0000000e+00 2.9566152e-05 0.0000000e+00 