# vtk DataFile Version 4.0
vtk output
ASCII
DATASET UNSTRUCTURED_GRID
POINTS 1919 float
0.0000000e+00 0.0000000e+00 0.0000000e+00 
0.0000000e+00 0.0000000e+00 5.0000000e+01 
5.0000000e+00 0.0000000e+00 0.0000000e+00 
5.0000000e+00 0.0000000e+00 5.0000000e+01 
5.0000000e+00 1.0000000e+00 0.0000000e+00 
5.0000000e+00 1.0000000e+00 5.0000000e+01 
0.0000000e+00 1.0000000e+00 0.0000000e+00 
0.0000000e+00 1.0000000e+00 5.0000000e+01 
5.0000000e+00 2.0000000e+00 0.0000000e+00 
5.0000000e+00 2.0000000e+00 5.0000000e+01 
3.0000000e+00 2.0000000e+00 0.0000000e+00 
3.0000000e+00 2.0000000e+00 5.0000000e+01 
0.0000000e+00 2.0000000e+00 0.0000000e+00 
0.0000000e+00 2.0000000e+00 5.0000000e+01 
1.5000000e+00 3.0000000e+00 0.0000000e+00 
1.5000000e+00 3.0000000e+00 5.0000000e+01 
7.5000000e-01 3.0000000e+00 0.0000000e+00 
7.5000000e-01 3.0000000e+00 5.0000000e+01 
0.0000000e+00 3.0000000e+00 0.0000000e+00 
0.0000000e+00 3.0000000e+00 5.0000000e+01 
7.5000000e-01 3.0000000e+00 5.0000000e-01 
7.5000000e-01 3.0000000e+00 1.0000000e+00 
7.5000000e-01 3.0000000e+00 1.5000000e+00 
7.5000000e-01 3.0000000e+00 2.0000000e+00 
7.5000000e-01 3.0000000e+00 2.5000000e+00 
7.5000000e-01 3.0000000e+00 3.0000000e+00 
7.5000000e-01 3.0000000e+00 3.5000000e+00 
7.5000000e-01 3.0000000e+00 4.0000000e+00 
7.5000000e-01 3.0000000e+00 4.5000000e+00 
7.5000000e-01 3.0000000e+00 5.0000000e+00 
7.5000000e-01 3.0000000e+00 5.5000000e+00 
7.5000000e-01 3.0000000e+00 6.0000000e+00 
7.5000000e-01 3.0000000e+00 6.5000000e+00 
7.5000000e-01 3.0000000e+00 7.0000000e+00 
7.5000000e-01 3.0000000e+00 7.5000000e+00 
7.5000000e-01 3.0000000e+00 8.0000000e+00 
7.5000000e-01 3.0000000e+00 8.5000000e+00 
7.5000000e-01 3.0000000e+00 9.0000000e+00 
7.5000000e-01 3.0000000e+00 9.5000000e+00 
7.5000000e-01 3.0000000e+00 1.0000000e+01 
7.5000000e-01 3.0000000e+00 1.0500000e+01 
7.5000000e-01 3.0000000e+00 1.1000000e+01 
7.5000000e-01 3.0000000e+00 1.1500000e+01 
7.5000000e-01 3.0000000e+00 1.2000000e+01 
7.5000000e-01 3.0000000e+00 1.2500000e+01 
7.5000000e-01 3.0000000e+00 1.3000000e+01 
7.5000000e-01 3.0000000e+00 1.3500000e+01 
7.5000000e-01 3.0000000e+00 1.4000000e+01 
7.5000000e-01 3.0000000e+00 1.4500000e+01 
7.5000000e-01 3.0000000e+00 1.5000000e+01 
7.5000000e-01 3.0000000e+00 1.5500000e+01 
7.5000000e-01 3.0000000e+00 1.6000000e+01 
7.5000000e-01 3.0000000e+00 1.6500000e+01 
7.5000000e-01 3.0000000e+00 1.7000000e+01 
7.5000000e-01 3.0000000e+00 1.7500000e+01 
7.5000000e-01 3.0000000e+00 1.8000000e+01 
7.5000000e-01 3.0000000e+00 1.8500000e+01 
7.5000000e-01 3.0000000e+00 1.9000000e+01 
7.5000000e-01 3.0000000e+00 1.9500000e+01 
7.5000000e-01 3.0000000e+00 2.0000000e+01 
7.5000000e-01 3.0000000e+00 2.0500000e+01 
7.5000000e-01 3.0000000e+00 2.1000000e+01 
7.5000000e-01 3.0000000e+00 2.1500000e+01 
7.5000000e-01 3.0000000e+00 2.2000000e+01 
7.5000000e-01 3.0000000e+00 2.2500000e+01 
7.5000000e-01 3.0000000e+00 2.3000000e+01 
7.5000000e-01 3.0000000e+00 2.3500000e+01 
7.5000000e-01 3.0000000e+00 2.4000000e+01 
7.5000000e-01 3.0000000e+00 2.4500000e+01 
7.5000000e-01 3.0000000e+00 2.5000000e+01 
7.5000000e-01 3.0000000e+00 2.5500000e+01 
7.5000000e-01 3.0000000e+00 2.6000000e+01 
7.5000000e-01 3.0000000e+00 2.6500000e+01 
7.5000000e-01 3.0000000e+00 2.7000000e+01 
7.5000000e-01 3.0000000e+00 2.7500000e+01 
7.5000000e-01 3.0000000e+00 2.8000000e+01 
7.5000000e-01 3.0000000e+00 2.8500000e+01 
7.5000000e-01 3.0000000e+00 2.9000000e+01 
7.5000000e-01 3.0000000e+00 2.9500000e+01 
7.5000000e-01 3.0000000e+00 3.0000000e+01 
7.5000000e-01 3.0000000e+00 3.0500000e+01 
7.5000000e-01 3.0000000e+00 3.1000000e+01 
7.5000000e-01 3.0000000e+00 3.1500000e+01 
7.5000000e-01 3.0000000e+00 3.2000000e+01 
7.5000000e-01 3.0000000e+00 3.2500000e+01 
7.5000000e-01 3.0000000e+00 3.3000000e+01 
7.5000000e-01 3.0000000e+00 3.3500000e+01 
7.5000000e-01 3.0000000e+00 3.4000000e+01 
7.5000000e-01 3.0000000e+00 3.4500000e+01 
7.5000000e-01 3.0000000e+00 3.5000000e+01 
7.5000000e-01 3.0000000e+00 3.5500000e+01 
7.5000000e-01 3.0000000e+00 3.6000000e+01 
7.5000000e-01 3.0000000e+00 3.6500000e+01 
7.5000000e-01 3.0000000e+00 3.7000000e+01 
7.5000000e-01 3.0000000e+00 3.7500000e+01 
7.5000000e-01 3.0000000e+00 3.8000000e+01 
7.5000000e-01 3.0000000e+00 3.8500000e+01 
7.5000000e-01 3.0000000e+00 3.9000000e+01 
7.5000000e-01 3.0000000e+00 3.9500000e+01 
7.5000000e-01 3.0000000e+00 4.0000000e+01 
7.5000000e-01 3.0000000e+00 4.0500000e+01 
7.5000000e-01 3.0000000e+00 4.1000000e+01 
7.5000000e-01 3.0000000e+00 4.1500000e+01 
7.5000000e-01 3.0000000e+00 4.2000000e+01 
7.5000000e-01 3.0000000e+00 4.2500000e+01 
7.5000000e-01 3.0000000e+00 4.3000000e+01 
7.5000000e-01 3.0000000e+00 4.3500000e+01 
7.5000000e-01 3.0000000e+00 4.4000000e+01 
7.5000000e-01 3.0000000e+00 4.4500000e+01 
7.5000000e-01 3.0000000e+00 4.5000000e+01 
7.5000000e-01 3.0000000e+00 4.5500000e+01 
7.5000000e-01 3.0000000e+00 4.6000000e+01 
7.5000000e-01 3.0000000e+00 4.6500000e+01 
7.5000000e-01 3.0000000e+00 4.7000000e+01 
7.5000000e-01 3.0000000e+00 4.7500000e+01 
7.5000000e-01 3.0000000e+00 4.8000000e+01 
7.5000000e-01 3.0000000e+00 4.8500000e+01 
7.5000000e-01 3.0000000e+00 4.9000000e+01 
7.5000000e-01 3.0000000e+00 4.9500000e+01 
7.5000000e-01 3.0250001e+00 0.0000000e+00 
7.5000000e-01 3.0250001e+00 5.0000000e-01 
7.5000000e-01 3.0250001e+00 1.0000000e+00 
7.5000000e-01 3.0250001e+00 1.5000000e+00 
7.5000000e-01 3.0250001e+00 2.0000000e+00 
7.5000000e-01 3.0250001e+00 2.5000000e+00 
7.5000000e-01 3.0250001e+00 3.0000000e+00 
7.5000000e-01 3.0250001e+00 3.5000000e+00 
7.5000000e-01 3.0250001e+00 4.0000000e+00 
7.5000000e-01 3.0250001e+00 4.5000000e+00 
7.5000000e-01 3.0250001e+00 5.0000000e+00 
7.5000000e-01 3.0250001e+00 5.5000000e+00 
7.5000000e-01 3.0250001e+00 6.0000000e+00 
7.5000000e-01 3.0250001e+00 6.5000000e+00 
7.5000000e-01 3.0250001e+00 7.0000000e+00 
7.5000000e-01 3.0250001e+00 7.5000000e+00 
7.5000000e-01 3.0250001e+00 8.0000000e+00 
7.5000000e-01 3.0250001e+00 8.5000000e+00 
7.5000000e-01 3.0250001e+00 9.0000000e+00 
7.5000000e-01 3.0250001e+00 9.5000000e+00 
7.5000000e-01 3.0250001e+00 1.0000000e+01 
7.5000000e-01 3.0250001e+00 1.0500000e+01 
7.5000000e-01 3.0250001e+00 1.1000000e+01 
7.5000000e-01 3.0250001e+00 1.1500000e+01 
7.5000000e-01 3.0250001e+00 1.2000000e+01 
7.5000000e-01 3.0250001e+00 1.2500000e+01 
7.5000000e-01 3.0250001e+00 1.3000000e+01 
7.5000000e-01 3.0250001e+00 1.3500000e+01 
7.5000000e-01 3.0250001e+00 1.4000000e+01 
7.5000000e-01 3.0250001e+00 1.4500000e+01 
7.5000000e-01 3.0250001e+00 1.5000000e+01 
7.5000000e-01 3.0250001e+00 1.5500000e+01 
7.5000000e-01 3.0250001e+00 1.6000000e+01 
7.5000000e-01 3.0250001e+00 1.6500000e+01 
7.5000000e-01 3.0250001e+00 1.7000000e+01 
7.5000000e-01 3.0250001e+00 1.7500000e+01 
7.5000000e-01 3.0250001e+00 1.8000000e+01 
7.5000000e-01 3.0250001e+00 1.8500000e+01 
7.5000000e-01 3.0250001e+00 1.9000000e+01 
7.5000000e-01 3.0250001e+00 1.9500000e+01 
7.5000000e-01 3.0250001e+00 2.0000000e+01 
7.5000000e-01 3.0250001e+00 2.0500000e+01 
7.5000000e-01 3.0250001e+00 2.1000000e+01 
7.5000000e-01 3.0250001e+00 2.1500000e+01 
7.5000000e-01 3.0250001e+00 2.2000000e+01 
7.5000000e-01 3.0250001e+00 2.2500000e+01 
7.5000000e-01 3.0250001e+00 2.3000000e+01 
7.5000000e-01 3.0250001e+00 2.3500000e+01 
7.5000000e-01 3.0250001e+00 2.4000000e+01 
7.5000000e-01 3.0250001e+00 2.4500000e+01 
7.5000000e-01 3.0250001e+00 2.5000000e+01 
7.5000000e-01 3.0250001e+00 2.5500000e+01 
7.5000000e-01 3.0250001e+00 2.6000000e+01 
7.5000000e-01 3.0250001e+00 2.6500000e+01 
7.5000000e-01 3.0250001e+00 2.7000000e+01 
7.5000000e-01 3.0250001e+00 2.7500000e+01 
7.5000000e-01 3.0250001e+00 2.8000000e+01 
7.5000000e-01 3.0250001e+00 2.8500000e+01 
7.5000000e-01 3.0250001e+00 2.9000000e+01 
7.5000000e-01 3.0250001e+00 2.9500000e+01 
7.5000000e-01 3.0250001e+00 3.0000000e+01 
7.5000000e-01 3.0250001e+00 3.0500000e+01 
7.5000000e-01 3.0250001e+00 3.1000000e+01 
7.5000000e-01 3.0250001e+00 3.1500000e+01 
7.5000000e-01 3.0250001e+00 3.2000000e+01 
7.5000000e-01 3.0250001e+00 3.2500000e+01 
7.5000000e-01 3.0250001e+00 3.3000000e+01 
7.5000000e-01 3.0250001e+00 3.3500000e+01 
7.5000000e-01 3.0250001e+00 3.4000000e+01 
7.5000000e-01 3.0250001e+00 3.4500000e+01 
7.5000000e-01 3.0250001e+00 3.5000000e+01 
7.5000000e-01 3.0250001e+00 3.5500000e+01 
7.5000000e-01 3.0250001e+00 3.6000000e+01 
7.5000000e-01 3.0250001e+00 3.6500000e+01 
7.5000000e-01 3.0250001e+00 3.7000000e+01 
7.5000000e-01 3.0250001e+00 3.7500000e+01 
7.5000000e-01 3.0250001e+00 3.8000000e+01 
7.5000000e-01 3.0250001e+00 3.8500000e+01 
7.5000000e-01 3.0250001e+00 3.9000000e+01 
7.5000000e-01 3.0250001e+00 3.9500000e+01 
7.5000000e-01 3.0250001e+00 4.0000000e+01 
7.5000000e-01 3.0250001e+00 4.0500000e+01 
7.5000000e-01 3.0250001e+00 4.1000000e+01 
7.5000000e-01 3.0250001e+00 4.1500000e+01 
7.5000000e-01 3.0250001e+00 4.2000000e+01 
7.5000000e-01 3.0250001e+00 4.2500000e+01 
7.5000000e-01 3.0250001e+00 4.3000000e+01 
7.5000000e-01 3.0250001e+00 4.3500000e+01 
7.5000000e-01 3.0250001e+00 4.4000000e+01 
7.5000000e-01 3.0250001e+00 4.4500000e+01 
7.5000000e-01 3.0250001e+00 4.5000000e+01 
7.5000000e-01 3.0250001e+00 4.5500000e+01 
7.5000000e-01 3.0250001e+00 4.6000000e+01 
7.5000000e-01 3.0250001e+00 4.6500000e+01 
7.5000000e-01 3.0250001e+00 4.7000000e+01 
7.5000000e-01 3.0250001e+00 4.7500000e+01 
7.5000000e-01 3.0250001e+00 4.8000000e+01 
7.5000000e-01 3.0250001e+00 4.8500000e+01 
7.5000000e-01 3.0250001e+00 4.9000000e+01 
7.5000000e-01 3.0250001e+00 4.9500000e+01 
7.5000000e-01 3.0250001e+00 5.0000000e+01 
1.5000000e+00 3.0000000e+00 2.5000000e+01 
3.0000000e+00 2.0000000e+00 2.5000000e+01 
4.0000000e+00 2.0000000e+00 2.5000000e+01 
5.0000000e+00 2.0000000e+00 2.5000000e+01 
0.0000000e+00 3.0000000e+00 2.5000000e+01 
0.0000000e+00 0.0000000e+00 1.0000000e+00 
0.0000000e+00 0.0000000e+00 2.0000000e+00 
0.0000000e+00 0.0000000e+00 3.0000000e+00 
0.0000000e+00 0.0000000e+00 4.0000000e+00 
0.0000000e+00 0.0000000e+00 5.0000000e+00 
[...]
POINT_DATA 1919
FIELD FieldData 3
DISPLACEMENT 3 1919  float
0.0000000e+00 0.0000000e+00 0.0000000e+00 
0.0000000e+00 0.0000000e+00 0.0000000e+00 
0.0000000e+00 0.0000000e+00 0.0000000e+00 
0.0000000e+00 0.0000000e+00 0.0000000e+00 
-1.1968658e-05 -5.8351827e-07 6.7000515e-06 
1.5655786e-07 1.4715216e-07 9.4367465e-08 
0.0000000e+00 -1.6195803e-05 0.0000000e+00 
0.0000000e+00 -5.8604758e-07 0.0000000e+00 
-6.5800577e-06 -6.8418426e-06 -5.0784656e-06 
-1.3203123e-07 4.8557587e-07 -4.6166747e-07 
-1.5209478e-05 3.0772669e-06 5.0849276e-06 
-4.9902361e-08 1.6734529e-07 2.1842808e-07 
0.0000000e+00 -1.0545809e-05 0.0000000e+00 
0.0000000e+00 -1.2429222e-06 0.0000000e+00 
-7.1397235e-06 -4.4116059e-05 9.2892238e-05 
2.3583546e-07 -7.9823479e-07 6.2028926e-07 
8.8638233e-05 -1.1458971e-04 1.1693790e-04 
-6.1789478e-08 4.2078756e-07 -1.3970707e-07 
0.0000000e+00 1.1910961e-05 0.0000000e+00 
0.0000000e+00 -1.5858133e-07 0.0000000e+00 
-2.3354532e-05 -1.1293753e-04 8.5109357e-05 
-5.9887545e-05 -1.0967918e-04 6.2853578e-05 
-8.4210049e-05 -1.0880865e-04 7.1754817e-05 
-9.3859802e-05 -1.1105728e-04 5.7271467e-05 
-1.2278630e-04 -1.1271903e-04 4.4465702e-05 
-1.0612016e-04 -1.1141346e-04 3.7172842e-05 
-1.1699914e-04 -9.7495176e-05 2.3287252e-05 
-9.4637013e-05 -5.8331028e-05 1.5984569e-05 
-9.3191447e-05 -5.0897829e-06 2.0120508e-05 
-6.9714828e-05 3.9102921e-05 1.3926555e-05 
-8.5179454e-05 5.7741850e-05 2.2231199e-05 
-6.7740475e-05 4.8892238e-05 4.3008120e-05 
-1.1945797e-04 3.1225223e-05 4.9486207e-05 
-8.4235260e-05 2.9098937e-05 7.6843338e-05 
-1.3248061e-04 -5.1931543e-06 1.3270715e-04 
-1.3275906e-04 -1.9988845e-04 1.2400444e-04 
-2.0540247e-04 -6.7162438e-04 2.0507754e-04 
-2.0069239e-04 -1.4566390e-03 1.6502370e-04 
-2.9685601e-04 -2.5154368e-03 2.5555276e-04 
-3.0434947e-04 -3.6926207e-03 5.2950694e-05 
-3.9355041e-04 -4.7511249e-03 1.2121920e-04 
-4.4356170e-04 -5.1956973e-03 -5.4569387e-05 
-3.7586386e-04 -4.8977868e-03 -2.1054949e-04 
-3.3037673e-04 -4.5429310e-03 -1.7809488e-04 
-2.4159445e-04 -4.5899553e-03 -1.8973985e-04 
-2.0300740e-04 -4.7432333e-03 -2.3102268e-04 
-1.4387426e-04 -4.3776785e-03 -2.5601248e-04 
-1.1564082e-04 -3.1161807e-03 -1.5619372e-04 
-4.4070130e-05 -1.7306156e-03 -2.2528488e-04 
-1.8618886e-05 -6.9462904e-04 -9.2724193e-05 
1.7478011e-05 -8.6397187e-05 -9.9452933e-05 
1.9065037e-05 2.0308877e-04 -2.9098042e-05 
2.7672293e-05 2.8989062e-04 2.6004975e-06 
8.9589748e-06 2.5016518e-04 8.5759319e-05 
-6.6603884e-06 1.4923811e-04 5.2028434e-05 
-1.0535651e-07 5.2028307e-05 1.7731527e-05 
-2.4717799e-06 -6.7079604e-06 -9.3359228e-07 
-1.1899866e-05 -3.1789190e-05 9.5741620e-07 
-4.0278965e-07 -4.6998655e-05 -8.2031493e-06 
-1.3007489e-05 -6.8494461e-05 1.0381636e-05 
-7.2461162e-06 -9.2925518e-05 4.3288652e-05 
-2.4823390e-05 -1.0883954e-04 6.2814805e-05 
-5.7797693e-05 -1.0860451e-04 7.8239871e-05 
-5.9958766e-05 -8.9229834e-05 7.2726478e-05 
-1.1541852e-04 -6.1442035e-05 6.5877139e-05 
-7.7903649e-05 -4.4184457e-05 3.1158997e-05 
-8.8480847e-05 -4.2164411e-05 -6.0861385e-06 
-9.2280658e-05 -2.8801673e-05 -2.0212334e-05 
-6.1790786e-05 1.5384989e-05 7.7100185e-06 
-5.7481888e-05 8.4598592e-05 9.2989740e-06 
-6.5092019e-05 1.4278528e-04 -1.7034217e-06 
-5.5176726e-05 1.5553889e-04 2.4848512e-05 
-8.2948900e-05 1.1483113e-04 2.2004857e-05 
-6.1169478e-05 4.2754509e-05 4.9458395e-05 
-1.2253934e-04 -6.2249906e-05 1.2288219e-04 
-1.3476422e-04 -2.7231287e-04 1.1787170e-04 
-2.0442902e-04 -7.2884897e-04 2.2919073e-04 
-2.1519017e-04 -1.5706904e-03 1.4705227e-04 
-3.2351495e-04 -2.7914168e-03 2.2185093e-04 
-3.8389530e-04 -4.1150050e-03 -4.0855105e-07 
-4.3819752e-04 -5.1039085e-03 3.9928775e-05 
-4.4434806e-04 -5.1958961e-03 -9.5495125e-05 
-3.8446495e-04 -4.7751707e-03 -2.4276372e-04 
-3.4620162e-04 -4.5377952e-03 -2.1692162e-04 
-2.7741859e-04 -4.7311522e-03 -2.2258805e-04 
-3.0439498e-04 -4.8431004e-03 -2.7044083e-04 
-1.9950444e-04 -4.2113042e-03 -3.3727803e-04 
-1.2890219e-04 -2.8709481e-03 -1.4190118e-04 
-5.1895182e-05 -1.5609819e-03 -2.1485405e-04 
3.7775417e-06 -5.9387431e-04 -4.2201642e-05 
1.9818723e-05 -2.2575214e-05 -5.2260220e-05 
1.7068454e-05 2.2856690e-04 2.0599596e-06 
2.1250302e-05 2.6231902e-04 5.2643682e-05 
1.5807863e-06 1.9135009e-04 8.3859399e-05 
-2.2154285e-05 1.0866991e-04 9.5067720e-05 
-6.1857747e-05 4.9560291e-05 4.6483929e-05 
-4.4833072e-05 1.2737360e-05 -3.6407360e-05 
-4.2543787e-05 -9.8388191e-06 -5.8302649e-05 
-1.5168213e-06 -1.7016579e-05 -6.1949308e-05 
6.5206641e-06 -8.7800581e-06 -5.1077324e-05 
2.4436613e-05 6.0398274e-06 -2.7153386e-05 
2.6092204e-05 1.4530928e-05 -8.0937398e-06 
1.3579351e-05 9.9055223e-06 8.4924341e-06 
6.7411020e-06 -4.6447667e-07 9.2519504e-06 
-1.2507765e-07 -7.3412443e-06 7.3958804e-06 
-3.2264404e-06 -8.7180206e-06 4.4113604e-06 
-3.2504497e-06 -7.5921121e-06 3.7356872e-06 
-2.0053576e-06 -6.1708993e-06 5.4991062e-07 
-2.7576625e-06 -3.5994422e-06 4.0257206e-07 
-1.1706713e-06 4.8741424e-07 8.3513856e-07 
-4.6777882e-07 4.2819311e-06 -2.7576945e-07 
8.6020925e-08 5.4198536e-06 1.7170096e-07 
8.6226891e-07 3.3637193e-06 -3.2632425e-08 
2.0082574e-08 2.2452478e-07 -1.0424365e-06 
-4.5451446e-07 -1.5603713e-06 8.5220302e-07 
5.9824464e-07 -1.5092636e-06 -7.3227494e-07 
-1.8775893e-07 -5.9348946e-07 2.5810741e-07 
2.3645809e-07 1.3651361e-07 1.3967369e-07 
-3.7212462e-07 4.0371833e-07 2.2003144e-07 
0.0000000e+00 -1.1470047e-04 0.0000000e+00 
0.0000000e+00 -1.1299745e-04 0.0000000e+00 
0.0000000e+00 -1.0974959e-04 0.0000000e+00 
0.0000000e+00 -1.0878879e-04 0.0000000e+00 
0.0000000e+00 -1.1089224e-04 0.0000000e+00 
0.0000000e+00 -1.1318935e-04 0.0000000e+00 
0.0000000e+00 -1.1189326e-04 0.0000000e+00 
0.0000000e+00 -9.6741453e-05 0.0000000e+00 
0.0000000e+00 -5.7737037e-05 0.0000000e+00 
0.0000000e+00 -5.0094732e-06 0.0000000e+00 
0.0000000e+00 3.8784106e-05 0.0000000e+00 
0.0000000e+00 5.6808705e-05 0.0000000e+00 
0.0000000e+00 4.8088135e-05 0.0000000e+00 
0.0000000e+00 3.3451102e-05 0.0000000e+00 
0.0000000e+00 3.2397260e-05 0.0000000e+00 
0.0000000e+00 -4.4760968e-06 0.0000000e+00 
0.0000000e+00 -2.0196791e-04 0.0000000e+00 
0.0000000e+00 -6.7510566e-04 0.0000000e+00 
0.0000000e+00 -1.4624469e-03 0.0000000e+00 
0.0000000e+00 -2.5187519e-03 0.0000000e+00 
0.0000000e+00 -3.7072033e-03 0.0000000e+00 
0.0000000e+00 -4.7747884e-03 0.0000000e+00 
0.0000000e+00 -5.2340254e-03 0.0000000e+00 
0.0000000e+00 -4.9213166e-03 0.0000000e+00 
0.0000000e+00 -4.5702518e-03 0.0000000e+00 
0.0000000e+00 -4.6063513e-03 0.0000000e+00 
0.0000000e+00 -4.7725188e-03 0.0000000e+00 
0.0000000e+00 -4.4040224e-03 0.0000000e+00 
0.0000000e+00 -3.1422393e-03 0.0000000e+00 
0.0000000e+00 -1.7434203e-03 0.0000000e+00 
0.0000000e+00 -6.9989898e-04 0.0000000e+00 
0.0000000e+00 -8.6102169e-05 0.0000000e+00 
0.0000000e+00 2.0446898e-04 0.0000000e+00 
0.0000000e+00 2.9037215e-04 0.0000000e+00 
0.0000000e+00 2.5052889e-04 0.0000000e+00 
0.0000000e+00 1.5053105e-04 0.0000000e+00 
0.0000000e+00 5.3198230e-05 0.0000000e+00 
0.0000000e+00 -6.3090379e-06 0.0000000e+00 
0.0000000e+00 -3.2006810e-05 0.0000000e+00 
0.0000000e+00 -4.7478177e-05 0.0000000e+00 
0.0000000e+00 -6.8744201e-05 0.0000000e+00 
0.0000000e+00 -9.3100360e-05 0.0000000e+00 
0.0000000e+00 -1.0908945e-04 0.0000000e+00 
0.0000000e+00 -1.0814757e-04 0.0000000e+00 
0.0000000e+00 -8.8599591e-05 0.0000000e+00 
0.0000000e+00 -6.1612831e-05 0.0000000e+00 
0.0000000e+00 -4.5413060e-05 0.0000000e+00 
0.0000000e+00 -4.2389234e-05 0.0000000e+00 
0.0000000e+00 -2.8285156e-05 0.0000000e+00 
0.0000000e+00 1.6718532e-05 0.0000000e+00 
0.0000000e+00 8.5169086e-05 0.0000000e+00 
0.0000000e+00 1.4212300e-04 0.0000000e+00 
0.0000000e+00 1.5423304e-04 0.0000000e+00 
0.0000000e+00 1.1515231e-04 0.0000000e+00 
0.0000000e+00 4.4889315e-05 0.0000000e+00 
0.0000000e+00 -5.9179078e-05 0.0000000e+00 
0.0000000e+00 -2.7094549e-04 0.0000000e+00 
0.0000000e+00 -7.3326955e-04 0.0000000e+00 
0.0000000e+00 -1.5813288e-03 0.0000000e+00 
0.0000000e+00 -2.7989172e-03 0.0000000e+00 
0.0000000e+00 -4.1327770e-03 0.0000000e+00 
0.0000000e+00 -5.1241987e-03 0.0000000e+00 
0.0000000e+00 -5.2325707e-03 0.0000000e+00 
0.0000000e+00 -4.7998638e-03 0.0000000e+00 
0.0000000e+00 -4.5658313e-03 0.0000000e+00 
0.0000000e+00 -4.7483970e-03 0.0000000e+00 
0.0000000e+00 -4.8752027e-03 0.0000000e+00 
0.0000000e+00 -4.2345142e-03 0.0000000e+00 
0.0000000e+00 -2.8946118e-03 0.0000000e+00 
0.0000000e+00 -1.5686799e-03 0.0000000e+00 
0.0000000e+00 -5.9803593e-04 0.0000000e+00 
0.0000000e+00 -2.3564347e-05 0.0000000e+00 
0.0000000e+00 2.2867606e-04 0.0000000e+00 
0.0000000e+00 2.6360663e-04 0.0000000e+00 
0.0000000e+00 1.9364672e-04 0.0000000e+00 
0.0000000e+00 1.0967773e-04 0.0000000e+00 
0.0000000e+00 4.9498554e-05 0.0000000e+00 
0.0000000e+00 1.2460842e-05 0.0000000e+00 
0.0000000e+00 -9.5452815e-06 0.0000000e+00 
0.0000000e+00 -1.6678076e-05 0.0000000e+00 
0.0000000e+00 -8.8553643e-06 0.0000000e+00 
0.0000000e+00 5.7082239e-06 0.0000000e+00 
0.0000000e+00 1.4097289e-05 0.0000000e+00 
0.0000000e+00 9.9740637e-06 0.0000000e+00 
0.0000000e+00 -1.6211058e-07 0.0000000e+00 
0.0000000e+00 -7.2327466e-06 0.0000000e+00 
0.0000000e+00 -8.8121778e-06 0.0000000e+00 
0.0000000e+00 -7.6859760e-06 0.0000000e+00 
0.0000000e+00 -6.0986972e-06 0.0000000e+00 
0.0000000e+00 -3.5225971e-06 0.0000000e+00 
0.0000000e+00 4.5382870e-07 0.0000000e+00 
0.0000000e+00 4.1966591e-06 0.0000000e+00 
0.0000000e+00 5.3624854e-06 0.0000000e+00 
0.0000000e+00 3.3886622e-06 0.0000000e+00 
0.0000000e+00 2.8599504e-07 0.0000000e+00 
0.0000000e+00 -1.5400722e-06 0.0000000e+00 
0.0000000e+00 -1.5160949e-06 0.0000000e+00 
0.0000000e+00 -5.9688585e-07 0.0000000e+00 
0.0000000e+00 1.4761345e-07 0.0000000e+00 
0.0000000e+00 3.9810328e-07 0.0000000e+00 
0.0000000e+00 4.0472517e-07 0.0000000e+00 
-6.8762238e-05 2.0941738e-04 2.7714508e-05 
2.4822659e-05 4.3330623e-05 1.7037706e-05 
3.8299022e-05 3.1773106e-05 -9.3662757e-06 
2.8994113e-05 3.0603205e-05 -3.5124463e-06 
0.0000000e+00 -7.8214463e-05 0.0000000e+00 
0.0000000e+00 0.0000000e+00 0.0000000e+00 
0.0000000e+00 0.0000000e+00 0.0000000e+00 
0.0000000e+00 0.0000000e+00 0.0000000e+00 
0.0000000e+00 0.0000000e+00 0.0000000e+00 
0.0000000e+00 0.0000000e+00 0.0000000e+00 
0.0000000e+00 0.0000000e+00 0.0000000e+00 
0.0000000e+00 0.0000000e+00 0.0000000e+00 
0.0000000e+00 0.0000000e+00 0.0000000e+00 
0.0000000e+00 0.0000000e+00 0.0000000e+00 
0.0000000e+00 0.0000000e+00 0.0000000e+00 
0.0000000e+00 0.0000000e+00 0.0000000e+00 
0.0000000e+00 0.0000000e+00 0.0000000e+00 
0.0000000e+00 0.0000000e+00 0.0000000e+00 
0.0000000e+00 0.0000000e+00 0.0000000e+00 
0.0000000e+00 0.0000000e+00 0.0000000e+00 
0.0000000e+00 0.0000000e+00 0.0000000e+00 
0.0000000e+00 0.0000000e+00 0.0000000e+00 
0.0000000e+00 0.0000000e+00 0.0000000e+00 
0.0000000e+00 0.0000000e+00 0.0000000e+00 
0.0000000e+00 0.0000000e+00 0.0000000e+00 
0.0000000e+00 0.0000000e+00 0.0000000e+00 
0.0000000e+00 0.0000000e+00 0.0000000e+00 
0.0000000e+00 0.0000000e+00 0.0000000e+00 
0.0000000e+00 0.0000000e+00 0.0000000e+00 
0.0000000e+00 0.0000000e+00 0.0000000e+00 
0.0000000e+00 0.0000000e+00 0.0000000e+00 
0.0000000e+00 0.0000000e+00 0.0000000e+00 
0.0000000e+00 0.0000000e+00 0.0000000e+00 
0.0000000e+00 0.0000000e+00 0.0000000e+00 
0.0000000e+00 0.0000000e+00 0.0000000e+00 
0.0000000e+00 0.0000000e+00 0.0000000e+00 
0.0000000e+00 0.0000000e+00 0.0000000e+00 
0.0000000e+00 0.0000000e+00 0.0000000e+00 
0.0000000e+00 0.0000000e+00 0.0000000e+00 
0.0000000e+00 0.0000000e+00 0.0000000e+00 
0.0000000e+00 0.0000000e+00 0.0000000e+00 
0.0000000e+00 0.0000000e+00 0.0000000e+00 
0.0000000e+00 0.0000000e+00 0.0000000e+00 
0.0000000e+00 0.0000000e+00 0.0000000e+00 
0.0000000e+00 0.0000000e+00 0.0000000e+00 
0.0000000e+00 0.0000000e+00 0.0000000e+00 
0.0000000e+00 0.0000000e+00 0.0000000e+00 
0.0000000e+00 0.0000000e+00 0.0000000e+00 
0.0000000e+00 0.0000000e+00 0.0000000e+00 
0.0000000e+00 0.0000000e+00 0.0000000e+00 
0.0000000e+00 0.0000000e+00 0.0000000e+00 
0.0000000e+00 0.0000000e+00 0.0000000e+00 
0.0000000e+00 0.0000000e+00 0.0000000e+00 
0.0000000e+00 0.0000000e+00 0.0000000e+00 
0.0000000e+00 0.0000000e+00 0.0000000e+00 
0.0000000e+00 0.0000000e+00 0.0000000e+00 
0.0000000e+00 0.0000000e+00 0.0000000e+00 
0.0000000e+00 0.0000000e+00 0.0000000e+00 
0.0000000e+00 0.0000000e+00 0.0000000e+00 
0.0000000e+00 0.0000000e+00 0.0000000e+00 
0.0000000e+00 0.0000000e+00 0.0000000e+00 
0.0000000e+00 0.0000000e+00 0.0000000e+00 
0.0000000e+00 0.0000000e+00 0.0000000e+00 
0.0000000e+00 0.0000000e+00 0.0000000e+00 
0.0000000e+00 0.0000000e+00 0.0000000e+00 
0.0000000e+00 0.0000000e+00 0.0000000e+00 
0.0000000e+00 0.0000000e+00 0.0000000e+00 
0.0000000e+00 0.0000000e+00 0.0000000e+00 
0.0000000e+00 0.0000000e+00 0.0000000e+00 
0.0000000e+00 0.0000000e+00 0.0000000e+00 
0.0000000e+00 0.0000000e+00 0.0000000e+00 
0.0000000e+00 0.0000000e+00 0.0000000e+00 
0.0000000e+00 0.0000000e+00 0.0000000e+00 
0.0000000e+00 0.0000000e+00 0.0000000e+00 
0.0000000e+00 0.0000000e+00 0.0000000e+00 
0.0000000e+00 0.0000000e+00 0.0000000e+00 
0.0000000e+00 0.0000000e+00 0.0000000e+00 
0.0000000e+00 0.0000000e+00 0.0000000e+00 
0.0000000e+00 0.0000000e+00 0.0000000e+00 
0.0000000e+00 0.0000000e+00 0.0000000e+00 
0.0000000e+00 0.0000000e+00 0.0000000e+00 
0.0000000e+00 0.0000000e+00 0.0000000e+00 
0.0000000e+00 0.0000000e+00 0.0000000e+00 
0.0000000e+00 0.0000000e+00 0.0000000e+00 
0.0000000e+00 0.0000000e+00 0.0000000e+00 
0.0000000e+00 0.0000000e+00 0.0000000e+00 
0.0000000e+00 0.0000000e+00 0.0000000e+00 
0.0000000e+00 0.0000000e+00 0.0000000e+00 
0.0000000e+00 0.0000000e+00 0.0000000e+00 
0.0000000e+00 0.0000000e+00 0.0000000e+00 
0.0000000e+00 0.0000000e+00 0.0000000e+00 
0.0000000e+00 0.0000000e+00 0.0000000e+00 
0.0000000e+00 0.0000000e+00 0.0000000e+00 
0.0000000e+00 0.0000000e+00 0.0000000e+00 
0.0000000e+00 0.0000000e+00 0.0000000e+00 
0.0000000e+00 0.0000000e+00 0.0000000e+00 
0.0000000e+00 0.0000000e+00 0.0000000e+00 
0.0000000e+00 0.0000000e+00 0.0000000e+00 
0.0000000e+00 0.0000000e+00 0.0000000e+00 
0.0000000e+00 0.0000000e+00 0.0000000e+00 
0.0000000e+00 0.0000000e+00 0.0000000e+00 
0.0000000e+00 0.0000000e+00 0.0000000e+00 
0.0000000e+00 0.0000000e+00 0.0000000e+00 
0.0000000e+00 0.0000000e+00 0.0000000e+00 
0.0000000e+00 0.0000000e+00 0.0000000e+00 
0.0000000e+00 0.0000000e+00 0.0000000e+00 
0.0000000e+00 0.0000000e+00 0.0000000e+00 
0.0000000e+00 0.0000000e+00 0.0000000e+00 
0.0000000e+00 0.0000000e+00 0.0000000e+00 
0.0000000e+00 0.0000000e+00 0.0000000e+00 
0.0000000e+00 0.0000000e+00 0.0000000e+00 
-6.7310011e-06 6.6003831e-06 5.8239257e-06 
-5.1029692e-06 1.0150801e-05 1.0500073e-05 
7.1355362e-07 1.4744373e-05 7.5330381e-06 
6.6236898e-06 1.9231786e-05 -2.6543419e-06 
1.0167892e-05 6.4917185e-06 -2.7527301e-06 
1.7840926e-05 2.3614144e-05 -8.5784895e-06 
2.7828401e-05 1.6928965e-05 -1.3271840e-05 
2.4347642e-05 8.2194247e-06 -1.3137030e-05 
3.3075390e-05 2.0781630e-05 -1.4050827e-05 
3.6611869e-05 3.6755112e-06 -1.8005390e-05 
3.3667082e-05 -6.6360872e-06 -1.7055818e-05 
3.6635538e-05 -6.2384670e-06 -1.0788960e-05 
3.1057967e-05 -1.3243584e-05 -1.0228520e-05 
2.0737025e-05 -1.2371866e-05 1.2226014e-06 
1.4697804e-05 -7.5612734e-06 5.2113160e-06 
1.0722682e-05 -2.5652930e-06 1.0042198e-05 
7.7523264e-06 -4.0136724e-06 2.3555749e-05 
3.3503848e-06 -3.3880142e-06 2.2021633e-05 
-1.2660671e-06 -3.6612696e-06 1.4674366e-05 
-6.2590580e-06 5.5652032e-07 1.3994035e-05 
-7.5840585e-06 5.7257093e-06 9.0756776e-06 
1.0283875e-06 1.0615884e-05 -1.2284856e-06 
5.6370777e-06 2.0034462e-05 -5.0980470e-06 
1.0034852e-05 2.2371201e-05 -1.6009299e-06 
1.6173306e-05 1.2693220e-05 -6.1781984e-06 
2.4967629e-05 2.0334486e-05 -6.0759880e-06 
2.9898480e-05 2.4305376e-05 -9.2049104e-06 
3.3168006e-05 1.5323058e-05 -1.3739296e-05 
3.9875573e-05 8.6589462e-06 -1.6121836e-05 
4.1599527e-05 1.8188559e-06 -1.6303016e-05 
3.3926241e-05 -5.0191707e-06 -1.2959149e-05 
2.9185370e-05 -1.1087686e-05 -9.3378330e-06 
2.2617756e-05 -1.0393082e-05 1.2824321e-06 
1.5295585e-05 -7.8483736e-06 9.5921878e-06 
1.3063562e-05 -5.3158201e-06 1.4852084e-05 
1.1442316e-05 -5.8548462e-06 2.0596135e-05 
7.7392779e-06 -1.5237243e-06 2.1445983e-05 
6.0829175e-06 -2.0954114e-06 1.7959272e-05 
4.6366217e-06 -4.3192313e-06 1.0907129e-05 
2.6648108e-06 -3.3135420e-06 4.2569300e-06 
1.4809845e-07 1.2601004e-06 1.5461265e-07 
-8.7408546e-07 2.3694690e-06 -4.5947054e-06 
-2.7257607e-07 -1.4725470e-07 -5.6228891e-06 
-9.7233965e-07 1.6162137e-07 -1.6938822e-06 
-7.5715411e-07 7.6269646e-07 5.6420942e-07 
7.0390933e-09 1.4224271e-08 7.5003385e-07 
1.4218887e-07 -1.8343133e-07 8.9673733e-07 
2.3800542e-09 -1.1148736e-07 5.3184414e-07 
1.7901559e-08 -3.2876520e-07 -2.1580736e-07 
0.0000000e+00 2.9500481e-05 0.0000000e+00 
0.0000000e+00 3.6985079e-05 0.0000000e+00 
0.0000000e+00 2.5629868e-05 0.0000000e+00 
0.0000000e+00 4.4972167e-05 0.0000000e+00 
0.0000000e+00 1.3783420e-05 0.0000000e+00 
0.0000000e+00 -1.4008278e-05 0.0000000e+00 
0.0000000e+00 2.3182080e-05 0.0000000e+00 
0.0000000e+00 -9.2245478e-05 0.0000000e+00 
0.0000000e+00 -2.3207905e-04 0.0000000e+00 
0.0000000e+00 -3.7308084e-04 0.0000000e+00 
0.0000000e+00 -4.9262343e-04 0.0000000e+00 
0.0000000e+00 -4.9988140e-04 0.0000000e+00 
0.0000000e+00 -4.6358371e-04 0.0000000e+00 
0.0000000e+00 -3.0431186e-04 0.0000000e+00 
0.0000000e+00 -1.4537309e-04 0.0000000e+00 
0.0000000e+00 -4.3438260e-05 0.0000000e+00 
0.0000000e+00 4.8107972e-06 0.0000000e+00 
0.0000000e+00 5.0049307e-06 0.0000000e+00 
0.0000000e+00 4.6151340e-06 0.0000000e+00 
0.0000000e+00 8.1960561e-06 0.0000000e+00 
0.0000000e+00 2.2081944e-05 0.0000000e+00 
0.0000000e+00 1.5130834e-05 0.0000000e+00 
0.0000000e+00 -1.0410935e-05 0.0000000e+00 
0.0000000e+00 -8.3809152e-07 0.0000000e+00 
0.0000000e+00 -2.7563507e-05 0.0000000e+00 
0.0000000e+00 -5.8004818e-05 0.0000000e+00 
0.0000000e+00 -4.9242837e-05 0.0000000e+00 
0.0000000e+00 -8.0391255e-05 0.0000000e+00 
0.0000000e+00 -2.8334549e-04 0.0000000e+00 
0.0000000e+00 -3.6370434e-04 0.0000000e+00 
0.0000000e+00 -4.8884278e-04 0.0000000e+00 
0.0000000e+00 -5.1937136e-04 0.0000000e+00 
0.0000000e+00 -4.7422570e-04 0.0000000e+00 
0.0000000e+00 -3.0158670e-04 0.0000000e+00 
0.0000000e+00 -1.2203061e-04 0.0000000e+00 
0.0000000e+00 1.5126315e-06 0.0000000e+00 
0.0000000e+00 1.5579450e-05 0.0000000e+00 
0.0000000e+00 1.5066758e-05 0.0000000e+00 
0.0000000e+00 7.9954884e-07 0.0000000e+00 
0.0000000e+00 1.9594390e-06 0.0000000e+00 
0.0000000e+00 8.3786512e-07 0.0000000e+00 
0.0000000e+00 -3.0964891e-06 0.0000000e+00 
0.0000000e+00 -7.5774312e-07 0.0000000e+00 
0.0000000e+00 2.6613948e-06 0.0000000e+00 
0.0000000e+00 7.8989075e-07 0.0000000e+00 
0.0000000e+00 -1.5887701e-06 0.0000000e+00 
0.0000000e+00 -1.0198997e-06 0.0000000e+00 
0.0000000e+00 1.4254842e-06 0.0000000e+00 
0.0000000e+00 1.0354078e-06 0.0000000e+00 
-6.9634407e-06 1.4088581e-06 6.9405523e-06 
-1.5502884e-06 5.1141828e-06 1.2500268e-05 
2.2247775e-06 1.6492761e-06 1.1292668e-05 
3.7743985e-06 -9.8469254e-06 1.3097458e-06 
-4.4095721e-08 -1.8295665e-07 -1.0167503e-07 
-1.9162979e-07 2.9000563e-07 -5.2557922e-08 
3.7395120e-07 1.0098002e-07 -3.8929403e-07 
4.0305099e-07 1.7761009e-07 -2.7977831e-07 
-9.4591642e-06 3.5523756e-06 4.2525294e-06 
2.0238909e-07 -2.7794778e-07 -1.2235606e-08 
7.0675117e-07 -2.6280220e-05 6.7314973e-06 
-5.6916690e-07 -3.1175916e-06 2.0378957e-05 
0.0000000e+00 1.4901953e-05 0.0000000e+00 
0.0000000e+00 1.1464014e-05 0.0000000e+00 
0.0000000e+00 3.4741566e-05 0.0000000e+00 
0.0000000e+00 3.1074269e-05 0.0000000e+00 
0.0000000e+00 -1.8984789e-05 0.0000000e+00 
0.0000000e+00 -5.4023767e-06 0.0000000e+00 
0.0000000e+00 -2.4433673e-05 0.0000000e+00 
0.0000000e+00 -1.9007683e-04 0.0000000e+00 
0.0000000e+00 -4.5841112e-04 0.0000000e+00 
0.0000000e+00 -8.3604950e-04 0.0000000e+00 
0.0000000e+00 -1.1393365e-03 0.0000000e+00 
0.0000000e+00 -1.0299834e-03 0.0000000e+00 
0.0000000e+00 -9.6075085e-04 0.0000000e+00 