# vtk DataFile Version 4.0
vtk output
ASCII
DATASET UNSTRUCTURED_GRID
POINTS 1919 float
0.0000000e+00 0.0000000e+00 0.0000000e+00 
0.0000000e+00 0.0000000e+00 5.0000000e+01 
5.0000000e+00 0.0000000e+00 0.0000000e+00 
5.0000000e+00 0.0000000e+00 5.0000000e+01 
5.0000000e+00 1.0000000e+00 0.0000000e+00 
5.0000000e+00 1.0000000e+00 5.0000000e+01 
0.0000000e+00 1.0000000e+00 0.0000000e+00 
0.0000000e+00 1.0000000e+00 5.0000000e+01 
5.0000000e+00 2.0000000e+00 0.0000000e+00 
5.0000000e+00 2.0000000e+00 5.0000000e+01 
3.0000000e+00 2.0000000e+00 0.0000000e+00 
3.0000000e+00 2.0000000e+00 5.0000000e+01 
0.0000000e+00 2.0000000e+00 0.0000000e+00 
0.0000000e+00 2.0000000e+00 5.0000000e+01 
1.5000000e+00 3.0000000e+00 0.0000000e+00 
1.5000000e+00 3.0000000e+00 5.0000000e+01 
7.5000000e-01 3.0000000e+00 0.0000000e+00 
7.5000000e-01 3.0000000e+00 5.0000000e+01 
0.0000000e+00 3.0000000e+00 0.0000000e+00 
0.0000000e+00 3.0000000e+00 5.0000000e+01 
7.5000000e-01 3.0000000e+00 5.0000000e-01 
7.5000000e-01 3.0000000e+00 1.0000000e+00 
7.5000000e-01 3.0000000e+00 1.5000000e+00 
7.5000000e-01 3.0000000e+00 2.0000000e+00 
7.5000000e-01 3.0000000e+00 2.5000000e+00 
7.5000000e-01 3.0000000e+00 3.0000000e+00 
7.5000000e-01 3.0000000e+00 3.5000000e+00 
7.5000000e-01 3.0000000e+00 4.0000000e+00 
7.5000000e-01 3.0000000e+00 4.5000000e+00 
7.5000000e-01 3.0000000e+00 5.0000000e+00 
7.5000000e-01 3.0000000e+00 5.5000000e+00 
7.5000000e-01 3.0000000e+00 6.0000000e+00 
7.5000000e-01 3.0000000e+00 6.5000000e+00 
7.5000000e-01 3.0000000e+00 7.0000000e+00 
7.5000000e-01 3.0000000e+00 7.5000000e+00 
7.5000000e-01 3.0000000e+00 8.0000000e+00 
7.5000000e-01 3.0000000e+00 8.5000000e+00 
7.5000000e-01 3.0000000e+00 9.0000000e+00 
7.5000000e-01 3.0000000e+00 9.5000000e+00 
7.5000000e-01 3.0000000e+00 1.0000000e+01 
7.5000000e-01 3.0000000e+00 1.0500000e+01 
7.5000000e-01 3.0000000e+00 1.1000000e+01 
7.5000000e-01 3.0000000e+00 1.1500000e+01 
7.5000000e-01 3.0000000e+00 1.2000000e+01 
7.5000000e-01 3.0000000e+00 1.2500000e+01 
7.5000000e-01 3.0000000e+00 1.3000000e+01 
7.5000000e-01 3.0000000e+00 1.3500000e+01 
7.5000000e-01 3.0000000e+00 1.4000000e+01 
7.5000000e-01 3.0000000e+00 1.4500000e+01 
7.5000000e-01 3.0000000e+00 1.5000000e+01 
7.5000000e-01 3.0000000e+00 1.5500000e+01 
7.5000000e-01 3.0000000e+00 1.6000000e+01 
7.5000000e-01 3.0000000e+00 1.6500000e+01 
7.5000000e-01 3.0000000e+00 1.7000000e+01 
7.5000000e-01 3.0000000e+00 1.7500000e+01 
7.5000000e-01 3.0000000e+00 1.8000000e+01 
7.5000000e-01 3.0000000e+00 1.8500000e+01 
7.5000000e-01 3.0000000e+00 1.9000000e+01 
7.5000000e-01 3.0000000e+00 1.9500000e+01 
7.5000000e-01 3.0000000e+00 2.0000000e+01 
7.5000000e-01 3.0000000e+00 2.0500000e+01 
7.5000000e-01 3.0000000e+00 2.1000000e+01 
7.5000000e-01 3.0000000e+00 2.1500000e+01 
7.5000000e-01 3.0000000e+00 2.2000000e+01 
7.5000000e-01 3.0000000e+00 2.2500000e+01 
7.5000000e-01 3.0000000e+00 2.3000000e+01 
7.5000000e-01 3.0000000e+00 2.3500000e+01 
7.5000000e-01 3.0000000e+00 2.4000000e+01 
7.5000000e-01 3.0000000e+00 2.4500000e+01 
7.5000000e-01 3.0000000e+00 2.5000000e+01 
7.5000000e-01 3.0000000e+00 2.5500000e+01 
7.5000000e-01 3.0000000e+00 2.6000000e+01 
7.5000000e-01 3.0000000e+00 2.6500000e+01 
7.5000000e-01 3.0000000e+00 2.7000000e+01 
7.5000000e-01 3.0000000e+00 2.7500000e+01 
7.5000000e-01 3.0000000e+00 2.8000000e+01 
7.5000000e-01 3.0000000e+00 2.8500000e+01 
7.5000000e-01 3.0000000e+00 2.9000000e+01 
7.5000000e-01 3.0000000e+00 2.9500000e+01 
7.5000000e-01 3.0000000e+00 3.0000000e+01 
7.5000000e-01 3.0000000e+00 3.0500000e+01 
7.5000000e-01 3.0000000e+00 3.1000000e+01 
7.5000000e-01 3.0000000e+00 3.1500000e+01 
7.5000000e-01 3.0000000e+00 3.2000000e+01 
7.5000000e-01 3.0000000e+00 3.2500000e+01 
7.5000000e-01 3.0000000e+00 3.3000000e+01 
7.5000000e-01 3.0000000e+00 3.3500000e+01 
7.5000000e-01 3.0000000e+00 3.4000000e+01 
7.5000000e-01 3.0000000e+00 3.4500000e+01 
7.5000000e-01 3.0000000e+00 3.5000000e+01 
7.5000000e-01 3.0000000e+00 3.5500000e+01 
7.5000000e-01 3.0000000e+00 3.6000000e+01 
7.5000000e-01 3.0000000e+00 3.6500000e+01 
7.5000000e-01 3.0000000e+00 3.7000000e+01 
7.5000000e-01 3.0000000e+00 3.7500000e+01 
7.5000000e-01 3.0000000e+00 3.8000000e+01 
7.5000000e-01 3.0000000e+00 3.8500000e+01 
7.5000000e-01 3.0000000e+00 3.9000000e+01 
7.5000000e-01 3.0000000e+00 3.9500000e+01 
7.5000000e-01 3.0000000e+00 4.0000000e+01 
7.5000000e-01 3.0000000e+00 4.0500000e+01 
7.5000000e-01 3.0000000e+00 4.1000000e+01 
7.5000000e-01 3.0000000e+00 4.1500000e+01 
7.5000000e-01 3.0000000e+00 4.2000000e+01 
7.5000000e-01 3.0000000e+00 4.2500000e+01 
7.5000000e-01 3.0000000e+00 4.3000000e+01 
7.5000000e-01 3.0000000e+00 4.3500000e+01 
7.5000000e-01 3.0000000e+00 4.4000000e+01 
7.5000000e-01 3.0000000e+00 4.4500000e+01 
7.5000000e-01 3.0000000e+00 4.5000000e+01 
7.5000000e-01 3.0000000e+00 4.5500000e+01 
7.5000000e-01 3.0000000e+00 4.6000000e+01 
7.5000000e-01 3.0000000e+00 4.6500000e+01 
7.5000000e-01 3.0000000e+00 4.7000000e+01 
7.5000000e-01 3.0000000e+00 4.7500000e+01 
7.5000000e-01 3.0000000e+00 4.8000000e+01 
7.5000000e-01 3.0000000e+00 4.8500000e+01 
7.5000000e-01 3.0000000e+00 4.9000000e+01 
7.5000000e-01 3.0000000e+00 4.9500000e+01 
7.5000000e-01 3.0250001e+00 0.0000000e+00 
7.5000000e-01 3.0250001e+00 5.0000000e-01 
7.5000000e-01 3.0250001e+00 1.0000000e+00 
7.5000000e-01 3.0250001e+00 1.5000000e+00 
7.5000000e-01 3.0250001e+00 2.0000000e+00 
7.5000000e-01 3.0250001e+00 2.5000000e+00 
7.5000000e-01 3.0250001e+00 3.0000000e+00 
7.5000000e-01 3.0250001e+00 3.5000000e+00 
7.5000000e-01 3.0250001e+00 4.0000000e+00 
7.5000000e-01 3.0250001e+00 4.5000000e+00 
7.5000000e-01 3.0250001e+00 5.0000000e+00 
7.5000000e-01 3.0250001e+00 5.5000000e+00 
7.5000000e-01 3.0250001e+00 6.0000000e+00 
7.5000000e-01 3.0250001e+00 6.5000000e+00 
7.5000000e-01 3.0250001e+00 7.0000000e+00 
7.5000000e-01 3.0250001e+00 7.5000000e+00 
7.5000000e-01 3.0250001e+00 8.0000000e+00 
7.5000000e-01 3.0250001e+00 8.5000000e+00 
7.5000000e-01 3.0250001e+00 9.0000000e+00 
7.5000000e-01 3.0250001e+00 9.5000000e+00 
7.5000000e-01 3.0250001e+00 1.0000000e+01 
7.5000000e-01 3.0250001e+00 1.0500000e+01 
7.5000000e-01 3.0250001e+00 1.1000000e+01 
7.5000000e-01 3.0250001e+00 1.1500000e+01 
7.5000000e-01 3.0250001e+00 1.2000000e+01 
7.5000000e-01 3.0250001e+00 1.2500000e+01 
7.5000000e-01 3.0250001e+00 1.3000000e+01 
7.5000000e-01 3.0250001e+00 1.3500000e+01 
7.5000000e-01 3.0250001e+00 1.4000000e+01 
7.5000000e-01 3.0250001e+00 1.4500000e+01 
7.5000000e-01 3.0250001e+00 1.5000000e+01 
7.5000000e-01 3.0250001e+00 1.5500000e+01 
7.5000000e-01 3.0250001e+00 1.6000000e+01 
7.5000000e-01 3.0250001e+00 1.6500000e+01 
7.5000000e-01 3.0250001e+00 1.7000000e+01 
7.5000000e-01 3.0250001e+00 1.7500000e+01 
7.5000000e-01 3.0250001e+00 1.8000000e+01 
7.5000000e-01 3.0250001e+00 1.8500000e+01 
7.5000000e-01 3.0250001e+00 1.9000000e+01 
7.5000000e-01 3.0250001e+00 1.9500000e+01 
7.5000000e-01 3.0250001e+00 2.0000000e+01 
7.5000000e-01 3.0250001e+00 2.0500000e+01 
7.5000000e-01 3.0250001e+00 2.1000000e+01 
7.5000000e-01 3.0250001e+00 2.1500000e+01 
7.5000000e-01 3.0250001e+00 2.2000000e+01 
7.5000000e-01 3.0250001e+00 2.2500000e+01 
7.5000000e-01 3.0250001e+00 2.3000000e+01 
7.5000000e-01 3.0250001e+00 2.3500000e+01 
7.5000000e-01 3.0250001e+00 2.4000000e+01 
7.5000000e-01 3.0250001e+00 2.4500000e+01 
7.5000000e-01 3.0250001e+00 2.5000000e+01 
7.5000000e-01 3.0250001e+00 2.5500000e+01 
7.5000000e-01 3.0250001e+00 2.6000000e+01 
7.5000000e-01 3.0250001e+00 2.6500000e+01 
7.5000000e-01 3.0250001e+00 2.7000000e+01 
7.5000000e-01 3.0250001e+00 2.7500000e+01 
7.5000000e-01 3.0250001e+00 2.8000000e+01 
7.5000000e-01 3.0250001e+00 2.8500000e+01 
7.5000000e-01 3.0250001e+00 2.9000000e+01 
7.5000000e-01 3.0250001e+00 2.9500000e+01 
7.5000000e-01 3.0250001e+00 3.0000000e+01 
7.5000000e-01 3.0250001e+00 3.0500000e+01 
7.5000000e-01 3.0250001e+00 3.1000000e+01 
7.5000000e-01 3.0250001e+00 3.1500000e+01 
7.5000000e-01 3.0250001e+00 3.2000000e+01 
7.5000000e-01 3.0250001e+00 3.2500000e+01 
7.5000000e-01 3.0250001e+00 3.3000000e+01 
7.5000000e-01 3.0250001e+00 3.3500000e+01 
7.5000000e-01 3.0250001e+00 3.4000000e+01 
7.5000000e-01 3.0250001e+00 3.4500000e+01 
7.5000000e-01 3.0250001e+00 3.5000000e+01 
7.5000000e-01 3.0250001e+00 3.5500000e+01 
7.5000000e-01 3.0250001e+00 3.6000000e+01 
7.5000000e-01 3.0250001e+00 3.6500000e+01 
7.5000000e-01 3.0250001e+00 3.7000000e+01 
7.5000000e-01 3.0250001e+00 3.7500000e+01 
7.5000000e-01 3.0250001e+00 3.8000000e+01 
7.5000000e-01 3.0250001e+00 3.8500000e+01 
7.5000000e-01 3.0250001e+00 3.9000000e+01 
7.5000000e-01 3.0250001e+00 3.9500000e+01 
7.5000000e-01 3.0250001e+00 4.0000000e+01 
7.5000000e-01 3.0250001e+00 4.0500000e+01 
7.5000000e-01 3.0250001e+00 4.1000000e+01 
7.5000000e-01 3.0250001e+00 4.1500000e+01 
7.5000000e-01 3.0250001e+00 4.2000000e+01 
7.5000000e-01 3.0250001e+00 4.2500000e+01 
7.5000000e-01 3.0250001e+00 4.3000000e+01 
7.5000000e-01 3.0250001e+00 4.3500000e+01 
7.5000000e-01 3.0250001e+00 4.4000000e+01 
7.5000000e-01 3.0250001e+00 4.4500000e+01 
7.5000000e-01 3.0250001e+00 4.5000000e+01 
7.5000000e-01 3.0250001e+00 4.5500000e+01 
7.5000000e-01 3.0250001e+00 4.6000000e+01 
7.5000000e-01 3.0250001e+00 4.6500000e+01 
7.5000000e-01 3.0250001e+00 4.7000000e+01 
7.5000000e-01 3.0250001e+00 4.7500000e+01 
7.5000000e-01 3.0250001e+00 4.8000000e+01 
7.5000000e-01 3.0250001e+00 4.8500000e+01 
7.5000000e-01 3.0250001e+00 4.9000000e+01 
7.5000000e-01 3.0250001e+00 4.9500000e+01 
7.5000000e-01 3.0250001e+00 5.0000000e+01 
1.5000000e+00 3.0000000e+00 2.5000000e+01 
3.0000000e+00 2.0000000e+00 2.5000000e+01 
4.0000000e+00 2.0000000e+00 2.5000000e+01 
5.0000000e+00 2.0000000e+00 2.5000000e+01 
0.0000000e+00 3.0000000e+00 2.5000000e+01 
0.0000000e+00 0.0000000e+00 1.0000000e+00 
0.0000000e+00 0.0000000e+00 2.0000000e+00 
0.0000000e+00 0.0000000e+00 3.0000000e+00 
0.0000000e+00 0.0000000e+00 4.0000000e+00 
0.0000000e+00 0.0000000e+00 5.0000000e+00 
[...]
POINT_DATA 1919
FIELD FieldData 3
DISPLACEMENT 3 1919  float
0.0000000e+00 0.0000000e+00 0.0000000e+00 
0.0000000e+00 0.0000000e+00 0.0000000e+00 
0.0000000e+00 0.0000000e+00 0.0000000e+00 
0.0000000e+00 0.0000000e+00 0.0000000e+00 
4.6369278e-06 -6.0349025e-06 -1.3484919e-06 
1.2070007e-07 -3.5002819e-07 1.7843913e-08 
0.0000000e+00 -2.1291113e-05 0.0000000e+00 
0.0000000e+00 -1.4263355e-07 0.0000000e+00 
4.5132992e-06 -7.2791668e-06 -3.8770881e-06 
3.4842770e-07 -5.5132250e-07 -2.2137309e-08 
-1.9043026e-05 -3.1130261e-05 -9.1415568e-06 
9.6755514e-08 6.4970550e-08 -3.3490100e-08 
0.0000000e+00 -2.5638449e-06 0.0000000e+00 
0.0000000e+00 1.3042624e-07 0.0000000e+00 
5.0791037e-05 -5.3440657e-05 -1.9712792e-05 
1.2451046e-07 1.4809729e-06 -5.3836635e-07 
7.0807846e-06 3.9296112e-05 -6.7162415e-05 
-9.7126517e-08 -2.9971065e-06 -1.8233088e-08 
0.0000000e+00 3.7771144e-06 0.0000000e+00 
0.0000000e+00 2.4354813e-06 0.0000000e+00 
6.9897702e-05 2.9559231e-05 1.5074661e-05 
5.3744599e-05 3.7090660e-06 6.5359374e-05 
6.7956920e-05 -3.3062559e-05 8.3252744e-05 
1.5781203e-05 -7.9712336e-05 7.6823562e-05 
2.0743998e-06 -1.3394401e-04 1.0076935e-04 
-4.7659156e-05 -1.9560730e-04 8.7787252e-05 
-6.8154557e-05 -2.4704248e-04 8.0250029e-05 
-9.1190675e-05 -2.6638096e-04 7.3249990e-05 
-1.0084832e-04 -2.6022212e-04 6.6907138e-05 
-1.3512502e-04 -2.5819629e-04 4.1607349e-05 
-1.0913982e-04 -2.7692766e-04 3.8007482e-05 
-1.4990596e-04 -3.2097424e-04 5.2012812e-05 
-1.1429197e-04 -3.7529055e-04 5.7961650e-05 
-1.6926274e-04 -4.3637966e-04 7.9724952e-05 
-1.4830870e-04 -5.7569117e-04 1.1242003e-04 
-1.7545577e-04 -9.5297070e-04 8.9477435e-05 
-1.7136772e-04 -1.6946486e-03 1.4721244e-04 
-2.0860026e-04 -2.7800819e-03 4.0897110e-05 
-1.9144660e-04 -4.0173936e-03 1.2944288e-04 
-2.5249636e-04 -4.9134828e-03 -8.7322980e-05 
-2.2729111e-04 -4.9746889e-03 -1.2310325e-04 
-2.1631771e-04 -4.4993656e-03 -1.3186689e-04 
-1.5830380e-04 -4.3004234e-03 -1.8659701e-04 
-1.7588460e-04 -4.4930819e-03 -1.7180387e-04 
-1.5512736e-04 -4.6688905e-03 -9.6920347e-05 
-1.2473621e-04 -4.0431283e-03 -4.9540620e-05 
-1.0334390e-04 -2.7760195e-03 -1.4597147e-04 
-8.3562729e-05 -1.5079812e-03 -1.8072027e-05 
-5.4207809e-05 -5.8846147e-04 -7.8627636e-05 
-4.3079806e-05 -4.2154916e-05 1.2093013e-06 
-3.4820918e-05 2.0068970e-04 1.4145672e-05 
-3.3104086e-05 2.3837799e-04 2.2368158e-05 
-6.8030531e-05 1.7521408e-04 -2.4112517e-06 
-5.1262134e-05 9.6374730e-05 -9.7917538e-05 
-2.7980594e-05 4.5874196e-05 -1.1700400e-04 
-9.4122552e-06 2.9414623e-05 -1.0964295e-04 
3.5826299e-05 3.1203341e-05 -1.0527472e-04 
7.9319754e-05 4.1278767e-05 -7.7904187e-05 
9.7603581e-05 4.9850300e-05 -2.9569403e-05 
8.2712773e-05 4.4345543e-05 1.2686136e-05 
5.6804587e-05 1.5723486e-05 3.5844649e-05 
3.2341883e-05 -2.7346636e-05 5.5258115e-05 
3.6881906e-05 -6.8118025e-05 8.5913351e-05 
2.2024691e-05 -9.6755757e-05 9.4588613e-05 
8.0918335e-06 -1.2605787e-04 1.0799606e-04 
-6.1730178e-05 -1.8391723e-04 1.0107247e-04 
-4.5953642e-05 -2.6924742e-04 1.2591638e-04 
-8.7198190e-05 -3.3339171e-04 9.4373085e-05 
-1.0040589e-04 -3.3727344e-04 7.1636154e-05 
-1.3059180e-04 -2.9710607e-04 6.5731103e-05 
-9.7563447e-05 -2.6569382e-04 6.0027494e-05 
-1.2609156e-04 -2.9882792e-04 4.7377143e-05 
-1.3229417e-04 -4.0353436e-04 6.7221139e-05 
-1.5575082e-04 -5.5432011e-04 7.8092991e-05 
-1.6642315e-04 -7.6976296e-04 1.0340760e-04 
-1.7782439e-04 -1.1514836e-03 5.4555752e-05 
-1.7675875e-04 -1.8541412e-03 1.1708542e-04 
-2.5103107e-04 -2.9657583e-03 -8.9108353e-06 
-2.4880981e-04 -4.3133032e-03 7.2647425e-05 
-3.2595990e-04 -5.2112900e-03 -9.7843498e-05 
-2.9928386e-04 -5.0523509e-03 -1.8107540e-04 
-2.3735322e-04 -4.4558654e-03 -1.4110762e-04 
-1.8424462e-04 -4.2527188e-03 -1.6531901e-04 
-2.1100175e-04 -4.5078397e-03 -1.6145721e-04 
-2.0172700e-04 -4.6872231e-03 -1.1248467e-04 
-1.9254073e-04 -3.8843791e-03 -4.7322617e-05 
-1.6561733e-04 -2.5744643e-03 -1.8887027e-04 
-9.1508482e-05 -1.3262490e-03 -6.1591607e-05 
-4.3795386e-05 -4.4715210e-04 -1.3327977e-04 
-3.3594890e-05 4.1773998e-05 -3.0377692e-05 
-8.5944248e-06 2.1563616e-04 2.0981315e-05 
-1.3099761e-05 2.0917233e-04 4.6500430e-05 
-5.4146753e-05 1.4417864e-04 1.2419575e-05 
-4.3923028e-05 8.2203012e-05 -4.1422063e-05 
-3.0405470e-05 4.0498024e-05 -8.4304658e-05 
2.7169770e-05 1.4416582e-05 -1.1667223e-04 
4.1454310e-05 3.3027029e-06 -4.5473702e-05 
4.6764853e-05 6.0269590e-06 -2.0354379e-05 
2.7239939e-05 1.0464913e-05 2.8534166e-06 
1.8097451e-05 6.2395147e-06 1.9356839e-05 
-3.6361844e-06 -7.3274746e-06 2.3479464e-05 
-9.6574195e-06 -1.8679020e-05 1.4344395e-05 
-1.0217034e-05 -1.8208351e-05 8.3892091e-06 
-7.7140421e-06 -9.3361668e-06 3.8615613e-06 
-3.2559142e-06 -6.1050616e-07 -1.5332546e-06 
-4.4319640e-07 3.8080036e-06 -3.3818870e-07 
1.6303866e-06 5.4055636e-06 -2.1371366e-06 
4.8025686e-07 6.1427631e-06 -2.0666753e-06 
1.0850449e-06 5.8316955e-06 4.9092137e-07 
6.4970010e-07 3.1748875e-06 -6.0308435e-07 
-8.8468781e-08 -1.5197871e-06 4.2423700e-08 
1.7376222e-07 -5.2170067e-06 1.1218327e-06 
-2.2457291e-07 -5.3126923e-06 -2.4005175e-07 
6.9557222e-09 -2.1393237e-06 5.2599199e-07 
-5.2404960e-08 1.8616041e-06 9.1905861e-08 
-4.1685618e-07 4.0373993e-06 -5.0233217e-07 
-1.0858012e-07 3.4358575e-06 7.1787895e-08 
4.1901652e-07 9.2318197e-07 -1.2811051e-07 
1.8270258e-07 -1.8109575e-06 -1.4350393e-07 
0.0000000e+00 3.9025010e-05 0.0000000e+00 
0.0000000e+00 2.9479381e-05 0.0000000e+00 
0.0000000e+00 4.0275445e-06 0.0000000e+00 
0.0000000e+00 -3.2814372e-05 0.0000000e+00 
0.0000000e+00 -7.9442201e-05 0.0000000e+00 
0.0000000e+00 -1.3481390e-04 0.0000000e+00 
0.0000000e+00 -1.9625256e-04 0.0000000e+00 
0.0000000e+00 -2.4627193e-04 0.0000000e+00 
0.0000000e+00 -2.6538954e-04 0.0000000e+00 
0.0000000e+00 -2.6036409e-04 0.0000000e+00 
0.0000000e+00 -2.5848008e-04 0.0000000e+00 
0.0000000e+00 -2.7815858e-04 0.0000000e+00 
0.0000000e+00 -3.2140192e-04 0.0000000e+00 
0.0000000e+00 -3.7309766e-04 0.0000000e+00 
0.0000000e+00 -4.3276910e-04 0.0000000e+00 
0.0000000e+00 -5.7573523e-04 0.0000000e+00 
0.0000000e+00 -9.5745228e-04 0.0000000e+00 
0.0000000e+00 -1.7018074e-03 0.0000000e+00 
0.0000000e+00 -2.7930941e-03 0.0000000e+00 
0.0000000e+00 -4.0294481e-03 0.0000000e+00 
0.0000000e+00 -4.9394863e-03 0.0000000e+00 
0.0000000e+00 -5.0031878e-03 0.0000000e+00 
0.0000000e+00 -4.5333854e-03 0.0000000e+00 
0.0000000e+00 -4.3187160e-03 0.0000000e+00 
0.0000000e+00 -4.5194849e-03 0.0000000e+00 
0.0000000e+00 -4.6905903e-03 0.0000000e+00 
0.0000000e+00 -4.0746690e-03 0.0000000e+00 
0.0000000e+00 -2.7943964e-03 0.0000000e+00 
0.0000000e+00 -1.5182873e-03 0.0000000e+00 
0.0000000e+00 -5.9138285e-04 0.0000000e+00 
0.0000000e+00 -4.3132128e-05 0.0000000e+00 
0.0000000e+00 2.0077314e-04 0.0000000e+00 
0.0000000e+00 2.3960214e-04 0.0000000e+00 
0.0000000e+00 1.7692945e-04 0.0000000e+00 
0.0000000e+00 9.7564924e-05 0.0000000e+00 
0.0000000e+00 4.6329984e-05 0.0000000e+00 
0.0000000e+00 2.9073321e-05 0.0000000e+00 
0.0000000e+00 3.1362524e-05 0.0000000e+00 
0.0000000e+00 4.1563188e-05 0.0000000e+00 
0.0000000e+00 4.9767939e-05 0.0000000e+00 
0.0000000e+00 4.3651333e-05 0.0000000e+00 
0.0000000e+00 1.5360622e-05 0.0000000e+00 
0.0000000e+00 -2.7149847e-05 0.0000000e+00 
0.0000000e+00 -6.7264271e-05 0.0000000e+00 
0.0000000e+00 -9.6056014e-05 0.0000000e+00 
0.0000000e+00 -1.2694593e-04 0.0000000e+00 
0.0000000e+00 -1.8578731e-04 0.0000000e+00 
0.0000000e+00 -2.6944475e-04 0.0000000e+00 
0.0000000e+00 -3.3193585e-04 0.0000000e+00 
0.0000000e+00 -3.3598015e-04 0.0000000e+00 
0.0000000e+00 -2.9641239e-04 0.0000000e+00 
0.0000000e+00 -2.6738324e-04 0.0000000e+00 
0.0000000e+00 -3.0054190e-04 0.0000000e+00 
0.0000000e+00 -4.0280831e-04 0.0000000e+00 
0.0000000e+00 -5.5190478e-04 0.0000000e+00 
0.0000000e+00 -7.6738506e-04 0.0000000e+00 
0.0000000e+00 -1.1523876e-03 0.0000000e+00 
0.0000000e+00 -1.8626138e-03 0.0000000e+00 
0.0000000e+00 -2.9855710e-03 0.0000000e+00 
0.0000000e+00 -4.3293233e-03 0.0000000e+00 
0.0000000e+00 -5.2396697e-03 0.0000000e+00 
0.0000000e+00 -5.0739786e-03 0.0000000e+00 
0.0000000e+00 -4.4854200e-03 0.0000000e+00 
0.0000000e+00 -4.2740302e-03 0.0000000e+00 
0.0000000e+00 -4.5406362e-03 0.0000000e+00 
0.0000000e+00 -4.7100107e-03 0.0000000e+00 
0.0000000e+00 -3.9122398e-03 0.0000000e+00 
0.0000000e+00 -2.5863471e-03 0.0000000e+00 
0.0000000e+00 -1.3365886e-03 0.0000000e+00 
0.0000000e+00 -4.5029365e-04 0.0000000e+00 
0.0000000e+00 4.0459421e-05 0.0000000e+00 
0.0000000e+00 2.1672624e-04 0.0000000e+00 
0.0000000e+00 2.1149467e-04 0.0000000e+00 
0.0000000e+00 1.4547937e-04 0.0000000e+00 
0.0000000e+00 8.2767750e-05 0.0000000e+00 
0.0000000e+00 4.0428378e-05 0.0000000e+00 
0.0000000e+00 1.4617666e-05 0.0000000e+00 
0.0000000e+00 3.6852759e-06 0.0000000e+00 
0.0000000e+00 5.7136335e-06 0.0000000e+00 
0.0000000e+00 1.0045190e-05 0.0000000e+00 
0.0000000e+00 5.9641757e-06 0.0000000e+00 
0.0000000e+00 -7.1154709e-06 0.0000000e+00 
0.0000000e+00 -1.8233528e-05 0.0000000e+00 
0.0000000e+00 -1.8150653e-05 0.0000000e+00 
0.0000000e+00 -9.5582709e-06 0.0000000e+00 
0.0000000e+00 -7.7072502e-07 0.0000000e+00 
0.0000000e+00 3.8510343e-06 0.0000000e+00 
0.0000000e+00 5.4747870e-06 0.0000000e+00 
0.0000000e+00 6.1393871e-06 0.0000000e+00 
0.0000000e+00 5.7766406e-06 0.0000000e+00 
0.0000000e+00 3.1217442e-06 0.0000000e+00 
0.0000000e+00 -1.4774221e-06 0.0000000e+00 
0.0000000e+00 -5.1360130e-06 0.0000000e+00 
0.0000000e+00 -5.2810819e-06 0.0000000e+00 
0.0000000e+00 -2.1426997e-06 0.0000000e+00 
0.0000000e+00 1.8250857e-06 0.0000000e+00 
0.0000000e+00 3.9952774e-06 0.0000000e+00 
0.0000000e+00 3.4048740e-06 0.0000000e+00 
0.0000000e+00 9.0584291e-07 0.0000000e+00 
0.0000000e+00 -1.7860915e-06 0.0000000e+00 
0.0000000e+00 -2.9538594e-06 0.0000000e+00 
-1.5976277e-04 -1.3623080e-04 6.5901921e-05 
-9.4379830e-06 6.2124112e-05 1.8831042e-05 
1.5623387e-05 7.8406818e-05 -7.6268411e-06 
1.3608146e-05 2.5248662e-06 -1.0309795e-05 
0.0000000e+00 -5.6087280e-05 0.0000000e+00 
0.0000000e+00 0.0000000e+00 0.0000000e+00 
0.0000000e+00 0.0000000e+00 0.0000000e+00 
0.0000000e+00 0.0000000e+00 0.0000000e+00 
0.0000000e+00 0.0000000e+00 0.0000000e+00 
0.0000000e+00 0.0000000e+00 0.0000000e+00 
0.0000000e+00 0.0000000e+00 0.0000000e+00 
0.0000000e+00 0.0000000e+00 0.0000000e+00 
0.0000000e+00 0.0000000e+00 0.0000000e+00 
0.0000000e+00 0.0000000e+00 0.0000000e+00 
0.0000000e+00 0.0000000e+00 0.0000000e+00 
0.0000000e+00 0.0000000e+00 0.0000000e+00 
0.0000000e+00 0.0000000e+00 0.0000000e+00 
0.0000000e+00 0.0000000e+00 0.0000000e+00 
0.0000000e+00 0.0000000e+00 0.0000000e+00 
0.0000000e+00 0.0000000e+00 0.0000000e+00 
0.0000000e+00 0.0000000e+00 0.0000000e+00 
0.0000000e+00 0.0000000e+00 0.0000000e+00 
0.0000000e+00 0.0000000e+00 0.0000000e+00 
0.0000000e+00 0.0000000e+00 0.0000000e+00 
0.0000000e+00 0.0000000e+00 0.0000000e+00 
0.0000000e+00 0.0000000e+00 0.0000000e+00 
0.0000000e+00 0.0000000e+00 0.0000000e+00 
0.0000000e+00 0.0000000e+00 0.0000000e+00 
0.0000000e+00 0.0000000e+00 0.0000000e+00 
0.0000000e+00 0.0000000e+00 0.0000000e+00 
0.0000000e+00 0.0000000e+00 0.0000000e+00 
0.0000000e+00 0.0000000e+00 0.0000000e+00 
0.0000000e+00 0.0000000e+00 0.0000000e+00 
0.0000000e+00 0.0000000e+00 0.0000000e+00 
0.0000000e+00 0.0000000e+00 0.0000000e+00 
0.0000000e+00 0.0000000e+00 0.0000000e+00 
0.0000000e+00 0.0000000e+00 0.0000000e+00 
0.0000000e+00 0.0000000e+00 0.0000000e+00 
0.0000000e+00 0.0000000e+00 0.0000000e+00 
0.0000000e+00 0.0000000e+00 0.0000000e+00 
0.0000000e+00 0.0000000e+00 0.0000000e+00 
0.0000000e+00 0.0000000e+00 0.0000000e+00 
0.0000000e+00 0.0000000e+00 0.0000000e+00 
0.0000000e+00 0.0000000e+00 0.0000000e+00 
0.0000000e+00 0.0000000e+00 0.0000000e+00 
0.0000000e+00 0.0000000e+00 0.0000000e+00 
0.0000000e+00 0.0000000e+00 0.0000000e+00 
0.0000000e+00 0.0000000e+00 0.0000000e+00 
0.0000000e+00 0.0000000e+00 0.0000000e+00 
0.0000000e+00 0.0000000e+00 0.0000000e+00 
0.0000000e+00 0.0000000e+00 0.0000000e+00 
0.0000000e+00 0.0000000e+00 0.0000000e+00 
0.0000000e+00 0.0000000e+00 0.0000000e+00 
0.0000000e+00 0.0000000e+00 0.0000000e+00 
0.0000000e+00 0.0000000e+00 0.0000000e+00 
0.0000000e+00 0.0000000e+00 0.0000000e+00 
0.0000000e+00 0.0000000e+00 0.0000000e+00 
0.0000000e+00 0.0000000e+00 0.0000000e+00 
0.0000000e+00 0.0000000e+00 0.0000000e+00 
0.0000000e+00 0.0000000e+00 0.0000000e+00 
0.0000000e+00 0.0000000e+00 0.0000000e+00 
0.0000000e+00 0.0000000e+00 0.0000000e+00 
0.0000000e+00 0.0000000e+00 0.0000000e+00 
0.0000000e+00 0.0000000e+00 0.0000000e+00 
0.0000000e+00 0.0000000e+00 0.0000000e+00 
0.0000000e+00 0.0000000e+00 0.0000000e+00 
0.0000000e+00 0.0000000e+00 0.0000000e+00 
0.0000000e+00 0.0000000e+00 0.0000000e+00 
0.0000000e+00 0.0000000e+00 0.0000000e+00 
0.0000000e+00 0.0000000e+00 0.0000000e+00 
0.0000000e+00 0.0000000e+00 0.0000000e+00 
0.0000000e+00 0.0000000e+00 0.0000000e+00 
0.0000000e+00 0.0000000e+00 0.0000000e+00 
0.0000000e+00 0.0000000e+00 0.0000000e+00 
0.0000000e+00 0.0000000e+00 0.0000000e+00 
0.0000000e+00 0.0000000e+00 0.0000000e+00 
0.0000000e+00 0.0000000e+00 0.0000000e+00 
0.0000000e+00 0.0000000e+00 0.0000000e+00 
0.0000000e+00 0.0000000e+00 0.0000000e+00 
0.0000000e+00 0.0000000e+00 0.0000000e+00 
0.0000000e+00 0.0000000e+00 0.0000000e+00 
0.0000000e+00 0.0000000e+00 0.0000000e+00 
0.0000000e+00 0.0000000e+00 0.0000000e+00 
0.0000000e+00 0.0000000e+00 0.0000000e+00 
0.0000000e+00 0.0000000e+00 0.0000000e+00 
0.0000000e+00 0.0000000e+00 0.0000000e+00 
0.0000000e+00 0.0000000e+00 0.0000000e+00 
0.0000000e+00 0.0000000e+00 0.0000000e+00 
0.0000000e+00 0.0000000e+00 0.0000000e+00 
0.0000000e+00 0.0000000e+00 0.0000000e+00 
0.0000000e+00 0.0000000e+00 0.0000000e+00 
0.0000000e+00 0.0000000e+00 0.0000000e+00 
0.0000000e+00 0.0000000e+00 0.0000000e+00 
0.0000000e+00 0.0000000e+00 0.0000000e+00 
0.0000000e+00 0.0000000e+00 0.0000000e+00 
0.0000000e+00 0.0000000e+00 0.0000000e+00 
0.0000000e+00 0.0000000e+00 0.0000000e+00 
0.0000000e+00 0.0000000e+00 0.0000000e+00 
0.0000000e+00 0.0000000e+00 0.0000000e+00 
0.0000000e+00 0.0000000e+00 0.0000000e+00 
0.0000000e+00 0.0000000e+00 0.0000000e+00 
0.0000000e+00 0.0000000e+00 0.0000000e+00 
0.0000000e+00 0.0000000e+00 0.0000000e+00 
0.0000000e+00 0.0000000e+00 0.0000000e+00 
0.0000000e+00 0.0000000e+00 0.0000000e+00 
0.0000000e+00 0.0000000e+00 0.0000000e+00 
0.0000000e+00 0.0000000e+00 0.0000000e+00 
0.0000000e+00 0.0000000e+00 0.0000000e+00 
0.0000000e+00 0.0000000e+00 0.0000000e+00 
0.0000000e+00 0.0000000e+00 0.0000000e+00 
0.0000000e+00 0.0000000e+00 0.0000000e+00 
-5.7442489e-06 -5.9244858e-06 -4.4384601e-06 
-1.3479974e-05 -7.4302061e-06 2.4857825e-06 
-1.7833412e-05 -1.4281185e-06 4.5099159e-06 
-1.7602386e-05 3.5836645e-06 -8.5262934e-07 
-2.2133450e-05 -7.2498733e-06 2.1435228e-07 
-1.4778757e-05 1.1069018e-05 -9.3347744e-06 
-4.5732113e-06 4.0189702e-06 -1.5664769e-05 
-1.4621329e-06 -1.3182790e-05 -1.5371397e-05 
7.2398420e-06 -8.6373211e-06 -1.6676389e-05 
1.8795554e-05 -2.5865413e-05 -1.2100947e-05 
2.6153533e-05 -2.3748767e-05 1.9429008e-06 
3.2808133e-05 -1.8058501e-05 1.9656196e-05 
3.2032804e-05 -1.3317870e-05 2.5769323e-05 
2.9117327e-05 -8.7715071e-06 3.1148051e-05 
2.8117776e-05 -8.5684233e-06 2.5382200e-05 
2.2889988e-05 -9.9115850e-06 1.3319586e-05 
1.2892972e-05 -9.4426978e-06 8.8527122e-07 
6.3977600e-06 -7.3313305e-07 -1.3711331e-05 
-4.2398668e-07 1.7481905e-07 -1.6026734e-05 
-6.2778895e-06 -3.2566161e-06 -9.0930344e-06 
-1.0067403e-05 -1.9810248e-06 -7.4838595e-06 
-1.6376063e-05 -1.0269023e-05 -2.8108116e-06 
-1.9186360e-05 1.4916264e-06 2.1834323e-06 
-2.1106944e-05 6.2759495e-06 3.2637051e-06 
-1.7365170e-05 -8.2721755e-07 -7.0689434e-06 
-1.1613759e-05 8.8035604e-06 -9.1683341e-06 
-8.6217287e-06 9.0667054e-06 -1.2811456e-05 
1.1905091e-06 -9.6910499e-06 -1.9356783e-05 
1.5680262e-05 -2.2502707e-05 -1.9923940e-05 
2.6127454e-05 -2.7677741e-05 -1.1845918e-05 
2.8038656e-05 -2.2186579e-05 2.2907473e-06 
3.1191659e-05 -1.2812768e-05 1.4694056e-05 
3.3510478e-05 -1.2950429e-05 2.4523020e-05 
3.0197552e-05 -1.1105685e-05 3.2249296e-05 
2.4858009e-05 -4.0875698e-06 3.6687205e-05 
1.5269083e-05 -3.3539509e-06 2.7985201e-05 
7.5556991e-06 -7.6825909e-06 1.2464136e-05 
5.4380916e-07 -1.7755598e-06 2.8979296e-06 
-1.5692533e-06 1.6584272e-06 -4.0395785e-06 
-2.2336526e-06 3.4914081e-06 -1.1422495e-05 
-9.6275471e-07 1.5785417e-06 -7.8726298e-06 
-1.3094478e-06 4.7494785e-07 -7.8314343e-07 
-6.4346136e-07 9.6489508e-08 1.5537710e-06 
1.0193879e-06 1.6215064e-07 1.5187919e-06 
3.9806315e-07 -3.5806619e-07 1.4296395e-06 
-1.4291778e-07 -4.1258502e-07 5.5531831e-07 
-1.0177487e-07 1.4041110e-07 -1.9600900e-07 
1.3008442e-07 1.3445870e-07 2.2325948e-07 
-2.7136002e-07 1.3760125e-07 2.0227183e-08 
0.0000000e+00 -3.1843298e-05 0.0000000e+00 
0.0000000e+00 -5.4155335e-05 0.0000000e+00 
0.0000000e+00 -4.9341845e-05 0.0000000e+00 
0.0000000e+00 1.2185624e-05 0.0000000e+00 
0.0000000e+00 1.8362709e-05 0.0000000e+00 
0.0000000e+00 9.9475403e-07 0.0000000e+00 
0.0000000e+00 1.4535323e-06 0.0000000e+00 
0.0000000e+00 -1.9456785e-04 0.0000000e+00 
0.0000000e+00 -3.9847614e-04 0.0000000e+00 
0.0000000e+00 -5.5807445e-04 0.0000000e+00 
0.0000000e+00 -6.1456161e-04 0.0000000e+00 
0.0000000e+00 -5.4615253e-04 0.0000000e+00 
0.0000000e+00 -4.0139136e-04 0.0000000e+00 
0.0000000e+00 -1.7314710e-04 0.0000000e+00 
0.0000000e+00 -2.8711249e-05 0.0000000e+00 
0.0000000e+00 3.8925133e-05 0.0000000e+00 
0.0000000e+00 1.4531581e-05 0.0000000e+00 
0.0000000e+00 -1.2496474e-05 0.0000000e+00 
0.0000000e+00 -9.8131077e-06 0.0000000e+00 
0.0000000e+00 -2.4054309e-05 0.0000000e+00 
0.0000000e+00 -2.1137601e-05 0.0000000e+00 
0.0000000e+00 -2.9176599e-05 0.0000000e+00 
0.0000000e+00 -2.9085862e-05 0.0000000e+00 
0.0000000e+00 1.6626660e-05 0.0000000e+00 
0.0000000e+00 5.7040616e-05 0.0000000e+00 
0.0000000e+00 5.8864443e-05 0.0000000e+00 
0.0000000e+00 3.3383021e-06 0.0000000e+00 
0.0000000e+00 -1.3305352e-04 0.0000000e+00 
0.0000000e+00 -4.1303833e-04 0.0000000e+00 
0.0000000e+00 -5.2615174e-04 0.0000000e+00 
0.0000000e+00 -6.0871890e-04 0.0000000e+00 
0.0000000e+00 -5.2752107e-04 0.0000000e+00 
0.0000000e+00 -3.9933063e-04 0.0000000e+00 
0.0000000e+00 -1.5679954e-04 0.0000000e+00 
0.0000000e+00 -1.3050510e-05 0.0000000e+00 
0.0000000e+00 2.7932612e-05 0.0000000e+00 
0.0000000e+00 6.8689596e-06 0.0000000e+00 
0.0000000e+00 -6.5019253e-06 0.0000000e+00 
0.0000000e+00 1.4262072e-06 0.0000000e+00 
0.0000000e+00 4.0928658e-06 0.0000000e+00 
0.0000000e+00 6.1858834e-08 0.0000000e+00 
0.0000000e+00 2.3182718e-06 0.0000000e+00 
0.0000000e+00 -1.9455126e-06 0.0000000e+00 
0.0000000e+00 -2.8509039e-06 0.0000000e+00 
0.0000000e+00 1.8372906e-07 0.0000000e+00 
0.0000000e+00 1.7636399e-06 0.0000000e+00 
0.0000000e+00 2.9700419e-07 0.0000000e+00 
0.0000000e+00 -1.1561325e-06 0.0000000e+00 
0.0000000e+00 1.1961998e-07 0.0000000e+00 
-2.3339512e-06 -1.2679507e-05 -9.5013811e-06 
-6.1207866e-06 -1.5055224e-05 -3.2157993e-06 
-7.9544334e-06 -1.8991066e-05 -4.4664412e-06 
-6.4542919e-06 -2.5465155e-05 -7.6249307e-06 
-1.8760474e-07 -6.3053264e-08 2.8270843e-08 
4.0456854e-08 5.2776464e-08 -4.4153801e-08 
2.2765671e-07 -3.6501351e-07 -1.0833543e-07 
-2.7637677e-07 6.7549408e-08 9.7736610e-09 
-5.2413047e-06 -1.7029855e-05 -5.2508644e-06 
3.8699131e-08 -2.8213429e-07 4.4162257e-07 
-7.1894701e-06 -2.4131594e-05 2.2418939e-05 
-1.2829271e-05 -3.6822799e-05 -5.8457554e-06 
0.0000000e+00 -5.0543917e-05 0.0000000e+00 
0.0000000e+00 -9.5348041e-05 0.0000000e+00 
0.0000000e+00 -7.3667943e-05 0.0000000e+00 
0.0000000e+00 -4.1261199e-05 0.0000000e+00 
0.0000000e+00 -5.0692455e-05 0.0000000e+00 
0.0000000e+00 -2.3573091e-05 0.0000000e+00 
0.0000000e+00 -9.6678283e-05 0.0000000e+00 
0.0000000e+00 -4.1059055e-04 0.0000000e+00 
0.0000000e+00 -7.9092226e-04 0.0000000e+00 
0.0000000e+00 -1.1503835e-03 0.0000000e+00 
0.0000000e+00 -1.2335549e-03 0.0000000e+00 
0.0000000e+00 -1.0479636e-03 0.0000000e+00 