# vtk DataFile Version 4.0
vtk output
ASCII
DATASET UNSTRUCTURED_GRID
POINTS 1919 float
0.0000000e+00 0.0000000e+00 0.0000000e+00 
0.0000000e+00 0.0000000e+00 5.0000000e+01 
5.0000000e+00 0.0000000e+00 0.0000000e+00 
5.0000000e+00 0.0000000e+00 5.0000000e+01 
5.0000000e+00 1.0000000e+00 0.0000000e+00 
5.0000000e+00 1.0000000e+00 5.0000000e+01 
0.0000000e+00 1.0000000e+00 0.0000000e+00 
0.0000000e+00 1.0000000e+00 5.0000000e+01 
5.0000000e+00 2.0000000e+00 0.0000000e+00 
5.0000000e+00 2.0000000e+00 5.0000000e+01 
3.0000000e+00 2.0000000e+00 0.0000000e+00 
3.0000000e+00 2.0000000e+00 5.0000000e+01 
0.0000000e+00 2.0000000e+00 0.0000000e+00 
0.0000000e+00 2.0000000e+00 5.0000000e+01 
1.5000000e+00 3.0000000e+00 0.0000000e+00 
1.5000000e+00 3.0000000e+00 5.0000000e+01 
7.5000000e-01 3.0000000e+00 0.0000000e+00 
7.5000000e-01 3.0000000e+00 5.0000000e+01 
0.0000000e+00 3.0000000e+00 0.0000000e+00 
0.0000000e+00 3.0000000e+00 5.0000000e+01 
7.5000000e-01 3.0000000e+00 5.0000000e-01 
7.5000000e-01 3.0000000e+00 1.0000000e+00 
7.5000000e-01 3.0000000e+00 1.5000000e+00 
7.5000000e-01 3.0000000e+00 2.0000000e+00 
7.5000000e-01 3.0000000e+00 2.5000000e+00 
7.5000000e-01 3.0000000e+00 3.0000000e+00 
7.5000000e-01 3.0000000e+00 3.5000000e+00 
7.5000000e-01 3.0000000e+00 4.0000000e+00 
7.5000000e-01 3.0000000e+00 4.5000000e+00 
7.5000000e-01 3.0000000e+00 5.0000000e+00 
7.5000000e-01 3.0000000e+00 5.5000000e+00 
7.5000000e-01 3.0000000e+00 6.0000000e+00 
7.5000000e-01 3.0000000e+00 6.5000000e+00 
7.5000000e-01 3.0000000e+00 7.0000000e+00 
7.5000000e-01 3.0000000e+00 7.5000000e+00 
7.5000000e-01 3.0000000e+00 8.0000000e+00 
7.5000000e-01 3.0000000e+00 8.5000000e+00 
7.5000000e-01 3.0000000e+00 9.0000000e+00 
7.5000000e-01 3.0000000e+00 9.5000000e+00 
7.5000000e-01 3.0000000e+00 1.0000000e+01 
7.5000000e-01 3.0000000e+00 1.0500000e+01 
7.5000000e-01 3.0000000e+00 1.1000000e+01 
7.5000000e-01 3.0000000e+00 1.1500000e+01 
7.5000000e-01 3.0000000e+00 1.2000000e+01 
7.5000000e-01 3.0000000e+00 1.2500000e+01 
7.5000000e-01 3.0000000e+00 1.3000000e+01 
7.5000000e-01 3.0000000e+00 1.3500000e+01 
7.5000000e-01 3.0000000e+00 1.4000000e+01 
7.5000000e-01 3.0000000e+00 1.4500000e+01 
7.5000000e-01 3.0000000e+00 1.5000000e+01 
7.5000000e-01 3.0000000e+00 1.5500000e+01 
7.5000000e-01 3.0000000e+00 1.6000000e+01 
7.5000000e-01 3.0000000e+00 1.6500000e+01 
7.5000000e-01 3.0000000e+00 1.7000000e+01 
7.5000000e-01 3.0000000e+00 1.7500000e+01 
7.5000000e-01 3.0000000e+00 1.8000000e+01 
7.5000000e-01 3.0000000e+00 1.8500000e+01 
7.5000000e-01 3.0000000e+00 1.9000000e+01 
7.5000000e-01 3.0000000e+00 1.9500000e+01 
7.5000000e-01 3.0000000e+00 2.0000000e+01 
7.5000000e-01 3.0000000e+00 2.0500000e+01 
7.5000000e-01 3.0000000e+00 2.1000000e+01 
7.5000000e-01 3.0000000e+00 2.1500000e+01 
7.5000000e-01 3.0000000e+00 2.2000000e+01 
7.5000000e-01 3.0000000e+00 2.2500000e+01 
7.5000000e-01 3.0000000e+00 2.3000000e+01 
7.5000000e-01 3.0000000e+00 2.3500000e+01 
7.5000000e-01 3.0000000e+00 2.4000000e+01 
7.5000000e-01 3.0000000e+00 2.4500000e+01 
7.5000000e-01 3.0000000e+00 2.5000000e+01 
7.5000000e-01 3.0000000e+00 2.5500000e+01 
7.5000000e-01 3.0000000e+00 2.6000000e+01 
7.5000000e-01 3.0000000e+00 2.6500000e+01 
7.5000000e-01 3.0000000e+00 2.7000000e+01 
7.5000000e-01 3.0000000e+00 2.7500000e+01 
7.5000000e-01 3.0000000e+00 2.8000000e+01 
7.5000000e-01 3.0000000e+00 2.8500000e+01 
7.5000000e-01 3.0000000e+00 2.9000000e+01 
7.5000000e-01 3.0000000e+00 2.9500000e+01 
7.5000000e-01 3.0000000e+00 3.0000000e+01 
7.5000000e-01 3.0000000e+00 3.0500000e+01 
7.5000000e-01 3.0000000e+00 3.1000000e+01 
7.5000000e-01 3.0000000e+00 3.1500000e+01 
7.5000000e-01 3.0000000e+00 3.2000000e+01 
7.5000000e-01 3.0000000e+00 3.2500000e+01 
7.5000000e-01 3.0000000e+00 3.3000000e+01 
7.5000000e-01 3.0000000e+00 3.3500000e+01 
7.5000000e-01 3.0000000e+00 3.4000000e+01 
7.5000000e-01 3.0000000e+00 3.4500000e+01 
7.5000000e-01 3.0000000e+00 3.5000000e+01 
7.5000000e-01 3.0000000e+00 3.5500000e+01 
7.5000000e-01 3.0000000e+00 3.6000000e+01 
7.5000000e-01 3.0000000e+00 3.6500000e+01 
7.5000000e-01 3.0000000e+00 3.7000000e+01 
7.5000000e-01 3.0000000e+00 3.7500000e+01 
7.5000000e-01 3.0000000e+00 3.8000000e+01 
7.5000000e-01 3.0000000e+00 3.8500000e+01 
7.5000000e-01 3.0000000e+00 3.9000000e+01 
7.5000000e-01 3.0000000e+00 3.9500000e+01 
7.5000000e-01 3.0000000e+00 4.0000000e+01 
7.5000000e-01 3.0000000e+00 4.0500000e+01 
7.5000000e-01 3.0000000e+00 4.1000000e+01 
7.5000000e-01 3.0000000e+00 4.1500000e+01 
7.5000000e-01 3.0000000e+00 4.2000000e+01 
7.5000000e-01 3.0000000e+00 4.2500000e+01 
7.5000000e-01 3.0000000e+00 4.3000000e+01 
7.5000000e-01 3.0000000e+00 4.3500000e+01 
7.5000000e-01 3.0000000e+00 4.4000000e+01 
7.5000000e-01 3.0000000e+00 4.4500000e+01 
7.5000000e-01 3.0000000e+00 4.5000000e+01 
7.5000000e-01 3.0000000e+00 4.5500000e+01 
7.5000000e-01 3.0000000e+00 4.6000000e+01 
7.5000000e-01 3.0000000e+00 4.6500000e+01 
7.5000000e-01 3.0000000e+00 4.7000000e+01 
7.5000000e-01 3.0000000e+00 4.7500000e+01 
7.5000000e-01 3.0000000e+00 4.8000000e+01 
7.5000000e-01 3.0000000e+00 4.8500000e+01 
7.5000000e-01 3.0000000e+00 4.9000000e+01 
7.5000000e-01 3.0000000e+00 4.9500000e+01 
7.5000000e-01 3.0250001e+00 0.0000000e+00 
7.5000000e-01 3.0250001e+00 5.0000000e-01 
7.5000000e-01 3.0250001e+00 1.0000000e+00 
7.5000000e-01 3.0250001e+00 1.5000000e+00 
7.5000000e-01 3.0250001e+00 2.0000000e+00 
7.5000000e-01 3.0250001e+00 2.5000000e+00 
7.5000000e-01 3.0250001e+00 3.0000000e+00 
7.5000000e-01 3.0250001e+00 3.5000000e+00 
7.5000000e-01 3.0250001e+00 4.0000000e+00 
7.5000000e-01 3.0250001e+00 4.5000000e+00 
7.5000000e-01 3.0250001e+00 5.0000000e+00 
7.5000000e-01 3.0250001e+00 5.5000000e+00 
7.5000000e-01 3.0250001e+00 6.0000000e+00 
7.5000000e-01 3.0250001e+00 6.5000000e+00 
7.5000000e-01 3.0250001e+00 7.0000000e+00 
7.5000000e-01 3.0250001e+00 7.5000000e+00 
7.5000000e-01 3.0250001e+00 8.0000000e+00 
7.5000000e-01 3.0250001e+00 8.5000000e+00 
7.5000000e-01 3.0250001e+00 9.0000000e+00 
7.5000000e-01 3.0250001e+00 9.5000000e+00 
7.5000000e-01 3.0250001e+00 1.0000000e+01 
7.5000000e-01 3.0250001e+00 1.0500000e+01 
7.5000000e-01 3.0250001e+00 1.1000000e+01 
7.5000000e-01 3.0250001e+00 1.1500000e+01 
7.5000000e-01 3.0250001e+00 1.2000000e+01 
7.5000000e-01 3.0250001e+00 1.2500000e+01 
7.5000000e-01 3.0250001e+00 1.3000000e+01 
7.5000000e-01 3.0250001e+00 1.3500000e+01 
7.5000000e-01 3.0250001e+00 1.4000000e+01 
7.5000000e-01 3.0250001e+00 1.4500000e+01 
7.5000000e-01 3.0250001e+00 1.5000000e+01 
7.5000000e-01 3.0250001e+00 1.5500000e+01 
7.5000000e-01 3.0250001e+00 1.6000000e+01 
7.5000000e-01 3.0250001e+00 1.6500000e+01 
7.5000000e-01 3.0250001e+00 1.7000000e+01 
7.5000000e-01 3.0250001e+00 1.7500000e+01 
7.5000000e-01 3.0250001e+00 1.8000000e+01 
7.5000000e-01 3.0250001e+00 1.8500000e+01 
7.5000000e-01 3.0250001e+00 1.9000000e+01 
7.5000000e-01 3.0250001e+00 1.9500000e+01 
7.5000000e-01 3.0250001e+00 2.0000000e+01 
7.5000000e-01 3.0250001e+00 2.0500000e+01 
7.5000000e-01 3.0250001e+00 2.1000000e+01 
7.5000000e-01 3.0250001e+00 2.1500000e+01 
7.5000000e-01 3.0250001e+00 2.2000000e+01 
7.5000000e-01 3.0250001e+00 2.2500000e+01 
7.5000000e-01 3.0250001e+00 2.3000000e+01 
7.5000000e-01 3.0250001e+00 2.3500000e+01 
7.5000000e-01 3.0250001e+00 2.4000000e+01 
7.5000000e-01 3.0250001e+00 2.4500000e+01 
7.5000000e-01 3.0250001e+00 2.5000000e+01 
7.5000000e-01 3.0250001e+00 2.5500000e+01 
7.5000000e-01 3.0250001e+00 2.6000000e+01 
7.5000000e-01 3.0250001e+00 2.6500000e+01 
7.5000000e-01 3.0250001e+00 2.7000000e+01 
7.5000000e-01 3.0250001e+00 2.7500000e+01 
7.5000000e-01 3.0250001e+00 2.8000000e+01 
7.5000000e-01 3.0250001e+00 2.8500000e+01 
7.5000000e-01 3.0250001e+00 2.9000000e+01 
7.5000000e-01 3.0250001e+00 2.9500000e+01 
7.5000000e-01 3.0250001e+00 3.0000000e+01 
7.5000000e-01 3.0250001e+00 3.0500000e+01 
7.5000000e-01 3.0250001e+00 3.1000000e+01 
7.5000000e-01 3.0250001e+00 3.1500000e+01 
7.5000000e-01 3.0250001e+00 3.2000000e+01 
7.5000000e-01 3.0250001e+00 3.2500000e+01 
7.5000000e-01 3.0250001e+00 3.3000000e+01 
7.5000000e-01 3.0250001e+00 3.3500000e+01 
7.5000000e-01 3.0250001e+00 3.4000000e+01 
7.5000000e-01 3.0250001e+00 3.4500000e+01 
7.5000000e-01 3.0250001e+00 3.5000000e+01 
7.5000000e-01 3.0250001e+00 3.5500000e+01 
7.5000000e-01 3.0250001e+00 3.6000000e+01 
7.5000000e-01 3.0250001e+00 3.6500000e+01 
7.5000000e-01 3.0250001e+00 3.7000000e+01 
7.5000000e-01 3.0250001e+00 3.7500000e+01 
7.5000000e-01 3.0250001e+00 3.8000000e+01 
7.5000000e-01 3.0250001e+00 3.8500000e+01 
7.5000000e-01 3.0250001e+00 3.9000000e+01 
7.5000000e-01 3.0250001e+00 3.9500000e+01 
7.5000000e-01 3.0250001e+00 4.0000000e+01 
7.5000000e-01 3.0250001e+00 4.0500000e+01 
7.5000000e-01 3.0250001e+00 4.1000000e+01 
7.5000000e-01 3.0250001e+00 4.1500000e+01 
7.5000000e-01 3.0250001e+00 4.2000000e+01 
7.5000000e-01 3.0250001e+00 4.2500000e+01 
7.5000000e-01 3.0250001e+00 4.3000000e+01 
7.5000000e-01 3.0250001e+00 4.3500000e+01 
7.5000000e-01 3.0250001e+00 4.4000000e+01 
7.5000000e-01 3.0250001e+00 4.4500000e+01 
7.5000000e-01 3.0250001e+00 4.5000000e+01 
7.5000000e-01 3.0250001e+00 4.5500000e+01 
7.5000000e-01 3.0250001e+00 4.6000000e+01 
7.5000000e-01 3.0250001e+00 4.6500000e+01 
7.5000000e-01 3.0250001e+00 4.7000000e+01 
7.5000000e-01 3.0250001e+00 4.7500000e+01 
7.5000000e-01 3.0250001e+00 4.8000000e+01 
7.5000000e-01 3.0250001e+00 4.8500000e+01 
7.5000000e-01 3.0250001e+00 4.9000000e+01 
7.5000000e-01 3.0250001e+00 4.9500000e+01 
7.5000000e-01 3.0250001e+00 5.0000000e+01 
1.5000000e+00 3.0000000e+00 2.5000000e+01 
3.0000000e+00 2.0000000e+00 2.5000000e+01 
4.0000000e+00 2.0000000e+00 2.5000000e+01 
5.0000000e+00 2.0000000e+00 2.5000000e+01 
0.0000000e+00 3.0000000e+00 2.5000000e+01 
0.0000000e+00 0.0000000e+00 1.0000000e+00 
0.0000000e+00 0.0000000e+00 2.0000000e+00 
0.0000000e+00 0.0000000e+00 3.0000000e+00 
0.0000000e+00 0.0000000e+00 4.0000000e+00 
0.0000000e+00 0.0000000e+00 5.0000000e+00 
[...]
POINT_DATA 1919
FIELD FieldData 3
DISPLACEMENT 3 1919  float
0.0000000e+00 0.0000000e+00 0.0000000e+00 
0.0000000e+00 0.0000000e+00 0.0000000e+00 
0.0000000e+00 0.0000000e+00 0.0000000e+00 
0.0000000e+00 0.0000000e+00 0.0000000e+00 
8.1738553e-06 3.8258163e-06 -8.3317464e-06 
8.4459202e-08 7.4684465e-08 1.2189119e-07 
0.0000000e+00 6.9457442e-06 0.0000000e+00 
0.0000000e+00 1.4434687e-07 0.0000000e+00 
1.2395589e-05 1.5514301e-05 -1.0711034e-05 
-1.4424273e-07 5.8583487e-07 -2.1845304e-07 
2.9676949e-05 1.0320427e-05 -1.3243001e-05 
1.0890505e-08 -2.9105877e-08 4.2204823e-07 
0.0000000e+00 1.6632097e-05 0.0000000e+00 
0.0000000e+00 -2.4759444e-07 0.0000000e+00 
-2.8674804e-05 5.9484781e-05 -4.1482970e-05 
4.6083039e-07 -1.6898985e-06 6.3658496e-07 
-3.4373679e-05 2.8201723e-05 -2.0112524e-05 
-9.0099190e-09 1.1342225e-06 -1.0211059e-07 
0.0000000e+00 1.5683172e-05 0.0000000e+00 
0.0000000e+00 -1.6452497e-06 0.0000000e+00 
-4.2055701e-05 3.7918559e-05 -6.6692395e-05 
-3.3086704e-05 5.3283336e-05 -1.0206369e-04 
-2.1455809e-05 5.3012751e-05 -1.1391231e-04 
-1.6091341e-05 3.4756402e-05 -1.2779700e-04 
1.6652279e-05 2.2253907e-05 -1.2433136e-04 
2.7799470e-05 4.5064495e-05 -7.3831223e-05 
4.7875903e-05 9.7658849e-05 -6.8581205e-05 
4.8586939e-05 1.4334470e-04 -4.7713165e-05 
9.2387738e-05 1.5120243e-04 -2.5807314e-05 
7.0035101e-05 1.2054546e-04 6.8366745e-07 
1.3357212e-04 6.9703987e-05 3.1397034e-05 
6.6819543e-05 7.9692318e-06 5.1551742e-05 
1.1864174e-04 -1.3863473e-04 1.0674326e-04 
2.9628703e-05 -5.3675211e-04 9.0752765e-05 
2.6628230e-05 -1.3251284e-03 1.9394761e-04 
-7.2118753e-05 -2.4733229e-03 1.1001203e-04 
-9.5822652e-05 -3.7787308e-03 2.5866061e-04 
-1.8922235e-04 -4.7264355e-03 9.5665957e-05 
-2.2520998e-04 -4.8323032e-03 1.5483411e-04 
-2.5150480e-04 -4.3846839e-03 1.7512996e-04 
-3.0021579e-04 -4.1920533e-03 1.5700307e-04 
-3.7014211e-04 -4.4022081e-03 7.6970900e-05 
-3.9952013e-04 -4.5940001e-03 1.8283194e-05 
-3.5014073e-04 -3.9954009e-03 -5.3879419e-05 
-2.3097683e-04 -2.7676688e-03 -2.9606893e-04 
-1.4248870e-04 -1.5172025e-03 -1.5885512e-04 
-5.9731105e-05 -6.0647319e-04 -1.8302852e-04 
-3.5831974e-05 -6.5291541e-05 -1.0663195e-04 
-2.8530148e-05 1.7465593e-04 -1.2795167e-04 
8.5088013e-06 2.1667576e-04 -1.1972098e-04 
5.0188741e-05 1.6706494e-04 -1.1198405e-04 
6.1933875e-05 1.0018898e-04 -6.0075326e-05 
7.6474455e-05 4.9358310e-05 3.6978884e-06 
4.3555883e-05 1.3801577e-05 8.5338819e-05 
-9.4187671e-06 -1.0344303e-05 7.9596830e-05 
-1.9155948e-05 -1.8923554e-05 7.4357515e-05 
-3.9118509e-05 -1.0165571e-05 3.1703523e-05 
-3.1234085e-05 3.9944202e-06 2.8734817e-07 
-3.1277377e-05 1.2651594e-05 -2.4404886e-05 
-4.3098826e-05 1.5789363e-05 -4.4159788e-05 
-5.0348619e-05 2.3955296e-05 -7.9770980e-05 
-3.2349275e-05 4.3451455e-05 -1.0942922e-04 
-2.0146038e-06 6.2648942e-05 -9.6103278e-05 
-9.3341250e-06 6.1737381e-05 -1.0324678e-04 
2.8814591e-05 4.8589878e-05 -9.8145254e-05 
1.7669243e-05 5.8144520e-05 -7.8540055e-05 
8.9867979e-05 1.1928909e-04 -6.8475900e-05 
9.8436991e-05 2.0837497e-04 -6.4999942e-05 
1.1907284e-04 2.6584452e-04 -1.4056963e-05 
6.9286310e-05 2.4654335e-04 1.3493740e-05 
9.3934352e-05 1.4868875e-04 2.6407173e-05 
8.7117136e-05 3.3787785e-07 6.7174886e-05 
9.7852688e-05 -2.1850583e-04 1.2630060e-04 
3.6205973e-05 -6.2087871e-04 9.4962073e-05 
-1.4384907e-05 -1.3775267e-03 2.4642507e-04 
-9.1857168e-05 -2.5659425e-03 1.6067539e-04 
-1.5521933e-04 -4.0019662e-03 2.6728987e-04 
-2.8479187e-04 -4.9893088e-03 9.5985080e-05 
-3.1120103e-04 -4.9120891e-03 9.7194948e-05 
-3.1579391e-04 -4.3759770e-03 1.2641422e-04 
-3.3467711e-04 -4.2093438e-03 1.1197534e-04 
-3.4502958e-04 -4.4754273e-03 7.0827875e-05 
-3.7147477e-04 -4.6527022e-03 -3.0462119e-05 
-3.3405831e-04 -3.8555115e-03 -8.2817656e-05 
-2.1776959e-04 -2.5527182e-03 -3.0555535e-04 
-1.3239021e-04 -1.3121000e-03 -1.6510862e-04 
-6.5046894e-05 -4.4065347e-04 -1.8735450e-04 
-1.7022881e-05 3.9858976e-05 -8.5805696e-05 
-2.5359621e-05 2.0479746e-04 -1.1501159e-04 
-1.1869713e-05 1.9641695e-04 -1.2407279e-04 
4.3443295e-05 1.4198253e-04 -1.2056048e-04 
5.0122340e-05 9.4111361e-05 -8.8441309e-05 
5.0675681e-05 5.4242628e-05 -4.3812893e-06 
3.1500062e-05 1.6190570e-05 3.6930734e-05 
-1.3199231e-05 -1.4694894e-05 7.1296803e-05 
-2.2623321e-05 -2.4284884e-05 3.9479954e-05 
-2.1541782e-05 -1.4928039e-05 3.1109372e-05 
-1.5160292e-05 -1.4488231e-06 1.2054696e-05 
-4.3820369e-06 6.8694985e-06 -7.5918806e-06 
-4.4058439e-07 9.4672041e-06 -1.2372390e-05 
4.0978834e-06 8.6631644e-06 -5.7557659e-06 
2.7421886e-06 4.5465090e-06 -4.2845850e-06 
1.1922294e-06 -3.5698970e-06 -1.1486289e-06 
2.0387424e-07 -1.0114669e-05 2.3826688e-06 
-2.1137508e-07 -9.0047679e-06 1.7957298e-06 
-3.6195257e-07 -1.4216181e-06 8.3567915e-07 
-3.9554055e-07 6.2173240e-06 1.3407716e-06 
-2.3087411e-07 7.8884750e-06 -4.7403529e-07 
-2.9114207e-07 3.0759654e-06 -9.9595240e-07 
-8.7144763e-08 -2.8061452e-06 -2.3275008e-07 
2.4404093e-07 -4.6051923e-06 -4.8289377e-07 
2.9155527e-07 -2.1821638e-06 -1.8925158e-08 
5.2213142e-08 1.2140246e-06 6.9988863e-07 
-1.0318463e-07 2.5120785e-06 -3.7722646e-07 
-3.9013722e-07 1.2065807e-06 3.4173073e-07 
1.7749338e-07 -6.9139895e-07 -2.4461085e-07 
-1.2956973e-07 -1.4051525e-06 -4.4698503e-08 
1.7235381e-07 -7.1374365e-07 -1.4129384e-07 
-1.0613707e-07 5.3793332e-07 3.1591566e-07 
0.0000000e+00 2.8883602e-05 0.0000000e+00 
0.0000000e+00 3.8201644e-05 0.0000000e+00 
0.0000000e+00 5.2583964e-05 0.0000000e+00 
0.0000000e+00 5.1863048e-05 0.0000000e+00 
0.0000000e+00 3.4300254e-05 0.0000000e+00 
0.0000000e+00 2.3367515e-05 0.0000000e+00 
0.0000000e+00 4.6302201e-05 0.0000000e+00 
0.0000000e+00 9.7811055e-05 0.0000000e+00 
0.0000000e+00 1.4235510e-04 0.0000000e+00 
0.0000000e+00 1.5021100e-04 0.0000000e+00 
0.0000000e+00 1.2035401e-04 0.0000000e+00 
0.0000000e+00 7.2335628e-05 0.0000000e+00 
0.0000000e+00 1.1631320e-05 0.0000000e+00 
0.0000000e+00 -1.3833029e-04 0.0000000e+00 
0.0000000e+00 -5.4178946e-04 0.0000000e+00 
0.0000000e+00 -1.3321141e-03 0.0000000e+00 
0.0000000e+00 -2.4868259e-03 0.0000000e+00 
0.0000000e+00 -3.7895381e-03 0.0000000e+00 
0.0000000e+00 -4.7532823e-03 0.0000000e+00 
0.0000000e+00 -4.8605269e-03 0.0000000e+00 
0.0000000e+00 -4.4171778e-03 0.0000000e+00 
0.0000000e+00 -4.2123888e-03 0.0000000e+00 
0.0000000e+00 -4.4275494e-03 0.0000000e+00 
0.0000000e+00 -4.6151727e-03 0.0000000e+00 
0.0000000e+00 -4.0273955e-03 0.0000000e+00 
0.0000000e+00 -2.7838864e-03 0.0000000e+00 
0.0000000e+00 -1.5278590e-03 0.0000000e+00 
0.0000000e+00 -6.0961983e-04 0.0000000e+00 
0.0000000e+00 -6.6545806e-05 0.0000000e+00 
0.0000000e+00 1.7487057e-04 0.0000000e+00 
0.0000000e+00 2.1847697e-04 0.0000000e+00 
0.0000000e+00 1.6882118e-04 0.0000000e+00 
0.0000000e+00 1.0116135e-04 0.0000000e+00 
0.0000000e+00 4.9054481e-05 0.0000000e+00 
0.0000000e+00 1.3400116e-05 0.0000000e+00 
0.0000000e+00 -1.0037814e-05 0.0000000e+00 
0.0000000e+00 -1.8195664e-05 0.0000000e+00 
0.0000000e+00 -1.0216098e-05 0.0000000e+00 
0.0000000e+00 3.4548916e-06 0.0000000e+00 
0.0000000e+00 1.2122632e-05 0.0000000e+00 
0.0000000e+00 1.5876965e-05 0.0000000e+00 
0.0000000e+00 2.4699428e-05 0.0000000e+00 
0.0000000e+00 4.3946347e-05 0.0000000e+00 
0.0000000e+00 6.1894672e-05 0.0000000e+00 
0.0000000e+00 6.0804432e-05 0.0000000e+00 
0.0000000e+00 4.8250982e-05 0.0000000e+00 
0.0000000e+00 5.9442536e-05 0.0000000e+00 
0.0000000e+00 1.2091610e-04 0.0000000e+00 
0.0000000e+00 2.0871277e-04 0.0000000e+00 
0.0000000e+00 2.6473889e-04 0.0000000e+00 
0.0000000e+00 2.4512384e-04 0.0000000e+00 
0.0000000e+00 1.4967794e-04 0.0000000e+00 
0.0000000e+00 3.1722402e-06 0.0000000e+00 
0.0000000e+00 -2.1579005e-04 0.0000000e+00 
0.0000000e+00 -6.2262698e-04 0.0000000e+00 
0.0000000e+00 -1.3858044e-03 0.0000000e+00 
0.0000000e+00 -2.5855408e-03 0.0000000e+00 
0.0000000e+00 -4.0178350e-03 0.0000000e+00 
0.0000000e+00 -5.0179469e-03 0.0000000e+00 
0.0000000e+00 -4.9333209e-03 0.0000000e+00 
0.0000000e+00 -4.4056033e-03 0.0000000e+00 
0.0000000e+00 -4.2302837e-03 0.0000000e+00 
0.0000000e+00 -4.5076758e-03 0.0000000e+00 
0.0000000e+00 -4.6751597e-03 0.0000000e+00 
0.0000000e+00 -3.8825404e-03 0.0000000e+00 
0.0000000e+00 -2.5645378e-03 0.0000000e+00 
0.0000000e+00 -1.3224516e-03 0.0000000e+00 
0.0000000e+00 -4.4380955e-04 0.0000000e+00 
0.0000000e+00 3.8329643e-05 0.0000000e+00 
0.0000000e+00 2.0598991e-04 0.0000000e+00 
0.0000000e+00 1.9932436e-04 0.0000000e+00 
0.0000000e+00 1.4353443e-04 0.0000000e+00 
0.0000000e+00 9.4048395e-05 0.0000000e+00 
0.0000000e+00 5.3882293e-05 0.0000000e+00 
0.0000000e+00 1.6101008e-05 0.0000000e+00 
0.0000000e+00 -1.4065136e-05 0.0000000e+00 
0.0000000e+00 -2.4016072e-05 0.0000000e+00 
0.0000000e+00 -1.5266824e-05 0.0000000e+00 
0.0000000e+00 -1.6617985e-06 0.0000000e+00 
0.0000000e+00 6.8774566e-06 0.0000000e+00 
0.0000000e+00 9.5091109e-06 0.0000000e+00 
0.0000000e+00 8.6371037e-06 0.0000000e+00 
0.0000000e+00 4.3327059e-06 0.0000000e+00 
0.0000000e+00 -3.5147627e-06 0.0000000e+00 
0.0000000e+00 -9.8048986e-06 0.0000000e+00 
0.0000000e+00 -8.8847437e-06 0.0000000e+00 
0.0000000e+00 -1.5334825e-06 0.0000000e+00 
0.0000000e+00 6.0126699e-06 0.0000000e+00 
0.0000000e+00 7.7402274e-06 0.0000000e+00 
0.0000000e+00 3.1426505e-06 0.0000000e+00 
0.0000000e+00 -2.6225541e-06 0.0000000e+00 
0.0000000e+00 -4.5217162e-06 0.0000000e+00 
0.0000000e+00 -2.2136501e-06 0.0000000e+00 
0.0000000e+00 1.1244076e-06 0.0000000e+00 
0.0000000e+00 2.4257217e-06 0.0000000e+00 
0.0000000e+00 1.2172895e-06 0.0000000e+00 
0.0000000e+00 -6.2994604e-07 0.0000000e+00 
0.0000000e+00 -1.3561431e-06 0.0000000e+00 
0.0000000e+00 -6.9091556e-07 0.0000000e+00 
0.0000000e+00 5.1228551e-07 0.0000000e+00 
0.0000000e+00 1.0973174e-06 0.0000000e+00 
1.4139537e-04 -9.2550923e-05 1.3111377e-05 
-8.0534111e-05 -1.7296524e-04 -1.4497763e-05 
-5.1101339e-05 -8.8201930e-05 5.0582971e-06 
2.3595283e-05 -4.9906550e-05 -1.3585330e-05 
0.0000000e+00 1.6925062e-04 0.0000000e+00 
0.0000000e+00 0.0000000e+00 0.0000000e+00 
0.0000000e+00 0.0000000e+00 0.0000000e+00 
0.0000000e+00 0.0000000e+00 0.0000000e+00 
0.0000000e+00 0.0000000e+00 0.0000000e+00 
0.0000000e+00 0.0000000e+00 0.0000000e+00 
0.0000000e+00 0.0000000e+00 0.0000000e+00 
0.0000000e+00 0.0000000e+00 0.0000000e+00 
0.0000000e+00 0.0000000e+00 0.0000000e+00 
0.0000000e+00 0.0000000e+00 0.0000000e+00 
0.0000000e+00 0.0000000e+00 0.0000000e+00 
0.0000000e+00 0.0000000e+00 0.0000000e+00 
0.0000000e+00 0.0000000e+00 0.0000000e+00 
0.0000000e+00 0.0000000e+00 0.0000000e+00 
0.0000000e+00 0.0000000e+00 0.0000000e+00 
0.0000000e+00 0.0000000e+00 0.0000000e+00 
0.0000000e+00 0.0000000e+00 0.0000000e+00 
0.0000000e+00 0.0000000e+00 0.0000000e+00 
0.0000000e+00 0.0000000e+00 0.0000000e+00 
0.0000000e+00 0.0000000e+00 0.0000000e+00 
0.0000000e+00 0.0000000e+00 0.0000000e+00 
0.0000000e+00 0.0000000e+00 0.0000000e+00 
0.0000000e+00 0.0000000e+00 0.0000000e+00 
0.0000000e+00 0.0000000e+00 0.0000000e+00 
0.0000000e+00 0.0000000e+00 0.0000000e+00 
0.0000000e+00 0.0000000e+00 0.0000000e+00 
0.0000000e+00 0.0000000e+00 0.0000000e+00 
0.0000000e+00 0.0000000e+00 0.0000000e+00 
0.0000000e+00 0.0000000e+00 0.0000000e+00 
0.0000000e+00 0.0000000e+00 0.0000000e+00 
0.0000000e+00 0.0000000e+00 0.0000000e+00 
0.0000000e+00 0.0000000e+00 0.0000000e+00 
0.0000000e+00 0.0000000e+00 0.0000000e+00 
0.0000000e+00 0.0000000e+00 0.0000000e+00 
0.0000000e+00 0.0000000e+00 0.0000000e+00 
0.0000000e+00 0.0000000e+00 0.0000000e+00 
0.0000000e+00 0.0000000e+00 0.0000000e+00 
0.0000000e+00 0.0000000e+00 0.0000000e+00 
0.0000000e+00 0.0000000e+00 0.0000000e+00 
0.0000000e+00 0.0000000e+00 0.0000000e+00 
0.0000000e+00 0.0000000e+00 0.0000000e+00 
0.0000000e+00 0.0000000e+00 0.0000000e+00 
0.0000000e+00 0.0000000e+00 0.0000000e+00 
0.0000000e+00 0.0000000e+00 0.0000000e+00 
0.0000000e+00 0.0000000e+00 0.0000000e+00 
0.0000000e+00 0.0000000e+00 0.0000000e+00 
0.0000000e+00 0.0000000e+00 0.0000000e+00 
0.0000000e+00 0.0000000e+00 0.0000000e+00 
0.0000000e+00 0.0000000e+00 0.0000000e+00 
0.0000000e+00 0.0000000e+00 0.0000000e+00 
0.0000000e+00 0.0000000e+00 0.0000000e+00 
0.0000000e+00 0.0000000e+00 0.0000000e+00 
0.0000000e+00 0.0000000e+00 0.0000000e+00 
0.0000000e+00 0.0000000e+00 0.0000000e+00 
0.0000000e+00 0.0000000e+00 0.0000000e+00 
0.0000000e+00 0.0000000e+00 0.0000000e+00 
0.0000000e+00 0.0000000e+00 0.0000000e+00 
0.0000000e+00 0.0000000e+00 0.0000000e+00 
0.0000000e+00 0.0000000e+00 0.0000000e+00 
0.0000000e+00 0.0000000e+00 0.0000000e+00 
0.0000000e+00 0.0000000e+00 0.0000000e+00 
0.0000000e+00 0.0000000e+00 0.0000000e+00 
0.0000000e+00 0.0000000e+00 0.0000000e+00 
0.0000000e+00 0.0000000e+00 0.0000000e+00 
0.0000000e+00 0.0000000e+00 0.0000000e+00 
0.0000000e+00 0.0000000e+00 0.0000000e+00 
0.0000000e+00 0.0000000e+00 0.0000000e+00 
0.0000000e+00 0.0000000e+00 0.0000000e+00 
0.0000000e+00 0.0000000e+00 0.0000000e+00 
0.0000000e+00 0.0000000e+00 0.0000000e+00 
0.0000000e+00 0.0000000e+00 0.0000000e+00 
0.0000000e+00 0.0000000e+00 0.0000000e+00 
0.0000000e+00 0.0000000e+00 0.0000000e+00 
0.0000000e+00 0.0000000e+00 0.0000000e+00 
0.0000000e+00 0.0000000e+00 0.0000000e+00 
0.0000000e+00 0.0000000e+00 0.0000000e+00 
0.0000000e+00 0.0000000e+00 0.0000000e+00 
0.0000000e+00 0.0000000e+00 0.0000000e+00 
0.0000000e+00 0.0000000e+00 0.0000000e+00 
0.0000000e+00 0.0000000e+00 0.0000000e+00 
0.0000000e+00 0.0000000e+00 0.0000000e+00 
0.0000000e+00 0.0000000e+00 0.0000000e+00 
0.0000000e+00 0.0000000e+00 0.0000000e+00 
0.0000000e+00 0.0000000e+00 0.0000000e+00 
0.0000000e+00 0.0000000e+00 0.0000000e+00 
0.0000000e+00 0.0000000e+00 0.0000000e+00 
0.0000000e+00 0.0000000e+00 0.0000000e+00 
0.0000000e+00 0.0000000e+00 0.0000000e+00 
0.0000000e+00 0.0000000e+00 0.0000000e+00 
0.0000000e+00 0.0000000e+00 0.0000000e+00 
0.0000000e+00 0.0000000e+00 0.0000000e+00 
0.0000000e+00 0.0000000e+00 0.0000000e+00 
0.0000000e+00 0.0000000e+00 0.0000000e+00 
0.0000000e+00 0.0000000e+00 0.0000000e+00 
0.0000000e+00 0.0000000e+00 0.0000000e+00 
0.0000000e+00 0.0000000e+00 0.0000000e+00 
0.0000000e+00 0.0000000e+00 0.0000000e+00 
0.0000000e+00 0.0000000e+00 0.0000000e+00 
0.0000000e+00 0.0000000e+00 0.0000000e+00 
0.0000000e+00 0.0000000e+00 0.0000000e+00 
0.0000000e+00 0.0000000e+00 0.0000000e+00 
0.0000000e+00 0.0000000e+00 0.0000000e+00 
0.0000000e+00 0.0000000e+00 0.0000000e+00 
0.0000000e+00 0.0000000e+00 0.0000000e+00 
0.0000000e+00 0.0000000e+00 0.0000000e+00 
0.0000000e+00 0.0000000e+00 0.0000000e+00 
0.0000000e+00 0.0000000e+00 0.0000000e+00 
1.1355663e-05 -1.8876846e-06 -1.5793521e-05 
1.6518406e-05 -1.4897811e-06 -2.3812814e-05 
2.0546388e-05 -9.4827974e-06 -2.9323601e-05 
2.3980190e-05 -2.6749571e-05 -2.4782426e-05 
3.0606832e-05 -2.0858708e-05 -2.5864147e-05 
4.5709516e-05 -3.2144831e-05 -1.6703647e-05 
4.7289312e-05 -3.6746485e-05 -7.4862851e-06 
6.7541470e-05 -3.1005231e-05 4.0808868e-06 
6.8681577e-05 -3.6177407e-05 2.0358353e-05 
7.4920921e-05 -2.3742374e-05 3.3924793e-05 
6.3568514e-05 -4.0891678e-06 3.5436133e-05 
4.8072212e-05 -1.3395072e-06 2.6534062e-05 
2.5471252e-05 -7.1505820e-06 1.6730142e-05 
8.5865913e-06 1.4593617e-06 1.2288473e-06 
-2.9923340e-06 4.9248729e-06 -7.0462752e-06 
-9.4152729e-06 -3.3340305e-06 -1.6211070e-06 
-8.0120990e-06 9.2988257e-06 -5.6221293e-08 
-1.1051645e-06 5.8848632e-06 8.3158138e-06 
3.8161602e-06 -2.9327896e-06 8.1153221e-06 
5.8362989e-06 3.9771226e-06 -9.5826426e-06 
1.1348681e-05 -2.3859511e-06 -2.0841384e-05 
2.2569133e-05 -2.5081472e-06 -2.7521053e-05 
2.5333482e-05 -1.3407042e-05 -2.7616281e-05 
3.7304766e-05 -2.3672590e-05 -2.7458844e-05 
4.4473716e-05 -2.0910024e-05 -1.9965293e-05 
5.0925602e-05 -2.9445107e-05 -1.4134167e-05 
6.0967002e-05 -3.5436002e-05 -4.8944676e-06 
6.6315581e-05 -2.6858270e-05 6.1479532e-06 
7.3888252e-05 -2.2752323e-05 2.3857814e-05 
6.9164584e-05 -1.9365640e-05 3.1716336e-05 
6.0753497e-05 -1.0134123e-05 3.2152737e-05 
4.4345172e-05 -9.0304165e-06 2.9764084e-05 
2.0222216e-05 -4.1021785e-06 1.5903552e-05 
7.2788889e-06 1.4282901e-06 -3.7532848e-06 
5.0249565e-07 1.0890590e-06 -1.7065742e-05 
-4.5704624e-06 1.9140884e-06 -1.6751925e-05 
-5.7275856e-06 3.2553389e-06 -7.8629373e-06 
-1.2013279e-06 1.6752346e-06 -1.4648123e-06 
8.1070658e-07 1.1680313e-06 2.5548472e-06 
2.7536066e-07 -1.5639297e-06 6.6533830e-06 
2.1484098e-07 -2.2932695e-06 3.8603107e-06 
1.0104407e-06 -1.8995058e-06 -9.3243941e-08 
6.8461821e-07 1.0025494e-06 4.0022709e-08 
-6.4170831e-07 1.2218375e-06 -1.5490834e-08 
-4.3061485e-07 -7.9647776e-07 2.3514947e-07 
1.0717538e-07 -2.0142929e-07 4.3662351e-07 
2.2273981e-07 -4.8831374e-08 2.2990011e-07 
-1.3310114e-07 1.8023621e-07 -3.0143826e-07 
-1.4554456e-08 -3.1498061e-07 -1.9257516e-09 
0.0000000e+00 4.9800157e-05 0.0000000e+00 
0.0000000e+00 7.2729876e-05 0.0000000e+00 
0.0000000e+00 9.7860939e-05 0.0000000e+00 
0.0000000e+00 4.3570082e-05 0.0000000e+00 
0.0000000e+00 -8.6145756e-06 0.0000000e+00 
0.0000000e+00 -1.3026688e-05 0.0000000e+00 
0.0000000e+00 -1.7043836e-04 0.0000000e+00 
0.0000000e+00 -2.9469290e-04 0.0000000e+00 
0.0000000e+00 -3.5437313e-04 0.0000000e+00 
0.0000000e+00 -4.1263341e-04 0.0000000e+00 
0.0000000e+00 -3.7481627e-04 0.0000000e+00 
0.0000000e+00 -3.4772445e-04 0.0000000e+00 
0.0000000e+00 -2.0918257e-04 0.0000000e+00 
0.0000000e+00 -5.6655172e-05 0.0000000e+00 
0.0000000e+00 -1.1895895e-05 0.0000000e+00 
0.0000000e+00 -1.1146405e-05 0.0000000e+00 
0.0000000e+00 6.7153387e-06 0.0000000e+00 
0.0000000e+00 1.4364808e-05 0.0000000e+00 
0.0000000e+00 -1.0944480e-05 0.0000000e+00 
0.0000000e+00 3.0676900e-05 0.0000000e+00 
0.0000000e+00 5.7866000e-05 0.0000000e+00 
0.0000000e+00 6.7404115e-05 0.0000000e+00 
0.0000000e+00 6.1049177e-05 0.0000000e+00 
0.0000000e+00 5.1648298e-05 0.0000000e+00 
0.0000000e+00 -8.3683517e-05 0.0000000e+00 
0.0000000e+00 -1.5756958e-04 0.0000000e+00 
0.0000000e+00 -1.7788510e-04 0.0000000e+00 
0.0000000e+00 -3.5980990e-04 0.0000000e+00 
0.0000000e+00 -3.5187005e-04 0.0000000e+00 
0.0000000e+00 -3.6939484e-04 0.0000000e+00 
0.0000000e+00 -3.6781118e-04 0.0000000e+00 
0.0000000e+00 -3.1005661e-04 0.0000000e+00 
0.0000000e+00 -2.0614345e-04 0.0000000e+00 
0.0000000e+00 -4.6590831e-05 0.0000000e+00 
0.0000000e+00 -2.2332932e-05 0.0000000e+00 
0.0000000e+00 -1.1949732e-06 0.0000000e+00 
0.0000000e+00 3.3381246e-05 0.0000000e+00 
0.0000000e+00 2.1760974e-05 0.0000000e+00 
0.0000000e+00 -4.4993376e-06 0.0000000e+00 
0.0000000e+00 -1.2325254e-05 0.0000000e+00 
0.0000000e+00 -5.8698282e-07 0.0000000e+00 
0.0000000e+00 5.3213712e-06 0.0000000e+00 
0.0000000e+00 -1.8277968e-06 0.0000000e+00 
0.0000000e+00 -1.4777112e-07 0.0000000e+00 
0.0000000e+00 6.8338551e-07 0.0000000e+00 
0.0000000e+00 -3.7097377e-07 0.0000000e+00 
0.0000000e+00 -5.0812054e-07 0.0000000e+00 
0.0000000e+00 7.6608484e-07 0.0000000e+00 
0.0000000e+00 1.4897005e-07 0.0000000e+00 
1.2968069e-05 3.7226407e-06 -1.1607568e-05 
1.1588896e-05 7.3655128e-06 -1.4115247e-05 
4.1154944e-06 4.0323465e-07 -2.0548374e-05 
-7.2458547e-06 1.4355664e-05 -1.0908968e-05 
3.6305067e-08 -2.2935700e-07 1.4272597e-07 
-1.1049445e-07 1.9708095e-07 1.4110843e-07 
-5.6353997e-08 2.7008301e-07 -1.8812791e-07 
1.6813726e-07 1.9694548e-08 -1.1795375e-07 
1.9526742e-05 8.9115701e-06 -1.6556551e-05 
1.7863243e-07 -1.8733893e-07 3.7172672e-08 
1.0102980e-05 1.3482132e-05 -4.4611552e-05 
2.1270631e-05 1.6207254e-05 -2.3219960e-05 
0.0000000e+00 5.8087579e-05 0.0000000e+00 
0.0000000e+00 1.5337642e-04 0.0000000e+00 
0.0000000e+00 1.7966315e-04 0.0000000e+00 
0.0000000e+00 1.0524307e-04 0.0000000e+00 
0.0000000e+00 5.2146101e-05 0.0000000e+00 
0.0000000e+00 -2.6716905e-05 0.0000000e+00 
0.0000000e+00 -2.9264388e-04 0.0000000e+00 
0.0000000e+00 -6.0033059e-04 0.0000000e+00 
0.0000000e+00 -8.2506385e-04 0.0000000e+00 
0.0000000e+00 -9.0498879e-04 0.0000000e+00 
0.0000000e+00 -8.3290110e-04 0.0000000e+00 
0.0000000e+00 -7.4040861e-04 0.0000000e+00 
0.0000000e+00 -3.0883829e-04 0.0000000e+00 
0.0000000e+00 -8.6635373e-05 0.0000000e+00 