# vtk DataFile Version 4.0
vtk output
ASCII
DATASET UNSTRUCTURED_GRID
POINTS 1919 float
0.0000000e+00 0.0000000e+00 0.0000000e+00 
0.0000000e+00 0.0000000e+00 5.0000000e+01 
5.0000000e+00 0.0000000e+00 0.0000000e+00 
5.0000000e+00 0.0000000e+00 5.0000000e+01 
5.0000000e+00 1.0000000e+00 0.0000000e+00 
5.0000000e+00 1.0000000e+00 5.0000000e+01 
0.0000000e+00 1.0000000e+00 0.0000000e+00 
0.0000000e+00 1.0000000e+00 5.0000000e+01 
5.0000000e+00 2.0000000e+00 0.0000000e+00 
5.0000000e+00 2.0000000e+00 5.0000000e+01 
3.0000000e+00 2.0000000e+00 0.0000000e+00 
3.0000000e+00 2.0000000e+00 5.0000000e+01 
0.0000000e+00 2.0000000e+00 0.0000000e+00 
0.0000000e+00 2.0000000e+00 5.0000000e+01 
1.5000000e+00 3.0000000e+00 0.0000000e+00 
1.5000000e+00 3.0000000e+00 5.0000000e+01 
7.5000000e-01 3.0000000e+00 0.0000000e+00 
7.5000000e-01 3.0000000e+00 5.0000000e+01 
0.0000000e+00 3.0000000e+00 0.0000000e+00 
0.0000000e+00 3.0000000e+00 5.0000000e+01 
7.5000000e-01 3.0000000e+00 5.0000000e-01 
7.5000000e-01 3.0000000e+00 1.0000000e+00 
7.5000000e-01 3.0000000e+00 1.5000000e+00 
7.5000000e-01 3.0000000e+00 2.0000000e+00 
7.5000000e-01 3.0000000e+00 2.5000000e+00 
7.5000000e-01 3.0000000e+00 3.0000000e+00 
7.5000000e-01 3.0000000e+00 3.5000000e+00 
7.5000000e-01 3.0000000e+00 4.0000000e+00 
7.5000000e-01 3.0000000e+00 4.5000000e+00 
7.5000000e-01 3.0000000e+00 5.0000000e+00 
7.5000000e-01 3.0000000e+00 5.5000000e+00 
7.5000000e-01 3.0000000e+00 6.0000000e+00 
7.5000000e-01 3.0000000e+00 6.5000000e+00 
7.5000000e-01 3.0000000e+00 7.0000000e+00 
7.5000000e-01 3.0000000e+00 7.5000000e+00 
7.5000000e-01 3.0000000e+00 8.0000000e+00 
7.5000000e-01 3.0000000e+00 8.5000000e+00 
7.5000000e-01 3.0000000e+00 9.0000000e+00 
7.5000000e-01 3.0000000e+00 9.5000000e+00 
7.5000000e-01 3.0000000e+00 1.0000000e+01 
7.5000000e-01 3.0000000e+00 1.0500000e+01 
7.5000000e-01 3.0000000e+00 1.1000000e+01 
7.5000000e-01 3.0000000e+00 1.1500000e+01 
7.5000000e-01 3.0000000e+00 1.2000000e+01 
7.5000000e-01 3.0000000e+00 1.2500000e+01 
7.5000000e-01 3.0000000e+00 1.3000000e+01 
7.5000000e-01 3.0000000e+00 1.3500000e+01 
7.5000000e-01 3.0000000e+00 1.4000000e+01 
7.5000000e-01 3.0000000e+00 1.4500000e+01 
7.5000000e-01 3.0000000e+00 1.5000000e+01 
7.5000000e-01 3.0000000e+00 1.5500000e+01 
7.5000000e-01 3.0000000e+00 1.6000000e+01 
7.5000000e-01 3.0000000e+00 1.6500000e+01 
7.5000000e-01 3.0000000e+00 1.7000000e+01 
7.5000000e-01 3.0000000e+00 1.7500000e+01 
7.5000000e-01 3.0000000e+00 1.8000000e+01 
7.5000000e-01 3.0000000e+00 1.8500000e+01 
7.5000000e-01 3.0000000e+00 1.9000000e+01 
7.5000000e-01 3.0000000e+00 1.9500000e+01 
7.5000000e-01 3.0000000e+00 2.0000000e+01 
7.5000000e-01 3.0000000e+00 2.0500000e+01 
7.5000000e-01 3.0000000e+00 2.1000000e+01 
7.5000000e-01 3.0000000e+00 2.1500000e+01 
7.5000000e-01 3.0000000e+00 2.2000000e+01 
7.5000000e-01 3.0000000e+00 2.2500000e+01 
7.5000000e-01 3.0000000e+00 2.3000000e+01 
7.5000000e-01 3.0000000e+00 2.3500000e+01 
7.5000000e-01 3.0000000e+00 2.4000000e+01 
7.5000000e-01 3.0000000e+00 2.4500000e+01 
7.5000000e-01 3.0000000e+00 2.5000000e+01 
7.5000000e-01 3.0000000e+00 2.5500000e+01 
7.5000000e-01 3.0000000e+00 2.6000000e+01 
7.5000000e-01 3.0000000e+00 2.6500000e+01 
7.5000000e-01 3.0000000e+00 2.7000000e+01 
7.5000000e-01 3.0000000e+00 2.7500000e+01 
7.5000000e-01 3.0000000e+00 2.8000000e+01 
7.5000000e-01 3.0000000e+00 2.8500000e+01 
7.5000000e-01 3.0000000e+00 2.9000000e+01 
7.5000000e-01 3.0000000e+00 2.9500000e+01 
7.5000000e-01 3.0000000e+00 3.0000000e+01 
7.5000000e-01 3.0000000e+00 3.0500000e+01 
7.5000000e-01 3.0000000e+00 3.1000000e+01 
7.5000000e-01 3.0000000e+00 3.1500000e+01 
7.5000000e-01 3.0000000e+00 3.2000000e+01 
7.5000000e-01 3.0000000e+00 3.2500000e+01 
7.5000000e-01 3.0000000e+00 3.3000000e+01 
7.5000000e-01 3.0000000e+00 3.3500000e+01 
7.5000000e-01 3.0000000e+00 3.4000000e+01 
7.5000000e-01 3.0000000e+00 3.4500000e+01 
7.5000000e-01 3.0000000e+00 3.5000000e+01 
7.5000000e-01 3.0000000e+00 3.5500000e+01 
7.5000000e-01 3.0000000e+00 3.6000000e+01 
7.5000000e-01 3.0000000e+00 3.6500000e+01 
7.5000000e-01 3.0000000e+00 3.7000000e+01 
7.5000000e-01 3.0000000e+00 3.7500000e+01 
7.5000000e-01 3.0000000e+00 3.8000000e+01 
7.5000000e-01 3.0000000e+00 3.8500000e+01 
7.5000000e-01 3.0000000e+00 3.9000000e+01 
7.5000000e-01 3.0000000e+00 3.9500000e+01 
7.5000000e-01 3.0000000e+00 4.0000000e+01 
7.5000000e-01 3.0000000e+00 4.0500000e+01 
7.5000000e-01 3.0000000e+00 4.1000000e+01 
7.5000000e-01 3.0000000e+00 4.1500000e+01 
7.5000000e-01 3.0000000e+00 4.2000000e+01 
7.5000000e-01 3.0000000e+00 4.2500000e+01 
7.5000000e-01 3.0000000e+00 4.3000000e+01 
7.5000000e-01 3.0000000e+00 4.3500000e+01 
7.5000000e-01 3.0000000e+00 4.4000000e+01 
7.5000000e-01 3.0000000e+00 4.4500000e+01 
7.5000000e-01 3.0000000e+00 4.5000000e+01 
7.5000000e-01 3.0000000e+00 4.5500000e+01 
7.5000000e-01 3.0000000e+00 4.6000000e+01 
7.5000000e-01 3.0000000e+00 4.6500000e+01 
7.5000000e-01 3.0000000e+00 4.7000000e+01 
7.5000000e-01 3.0000000e+00 4.7500000e+01 
7.5000000e-01 3.0000000e+00 4.8000000e+01 
7.5000000e-01 3.0000000e+00 4.8500000e+01 
7.5000000e-01 3.0000000e+00 4.9000000e+01 
7.5000000e-01 3.0000000e+00 4.9500000e+01 
7.5000000e-01 3.0250001e+00 0.0000000e+00 
7.5000000e-01 3.0250001e+00 5.0000000e-01 
7.5000000e-01 3.0250001e+00 1.0000000e+00 
7.5000000e-01 3.0250001e+00 1.5000000e+00 
7.5000000e-01 3.0250001e+00 2.0000000e+00 
7.5000000e-01 3.0250001e+00 2.5000000e+00 
7.5000000e-01 3.0250001e+00 3.0000000e+00 
7.5000000e-01 3.0250001e+00 3.5000000e+00 
7.5000000e-01 3.0250001e+00 4.0000000e+00 
7.5000000e-01 3.0250001e+00 4.5000000e+00 
7.5000000e-01 3.0250001e+00 5.0000000e+00 
7.5000000e-01 3.0250001e+00 5.5000000e+00 
7.5000000e-01 3.0250001e+00 6.0000000e+00 
7.5000000e-01 3.0250001e+00 6.5000000e+00 
7.5000000e-01 3.0250001e+00 7.0000000e+00 
7.5000000e-01 3.0250001e+00 7.5000000e+00 
7.5000000e-01 3.0250001e+00 8.0000000e+00 
7.5000000e-01 3.0250001e+00 8.5000000e+00 
7.5000000e-01 3.0250001e+00 9.0000000e+00 
7.5000000e-01 3.0250001e+00 9.5000000e+00 
7.5000000e-01 3.0250001e+00 1.0000000e+01 
7.5000000e-01 3.0250001e+00 1.0500000e+01 
7.5000000e-01 3.0250001e+00 1.1000000e+01 
7.5000000e-01 3.0250001e+00 1.1500000e+01 
7.5000000e-01 3.0250001e+00 1.2000000e+01 
7.5000000e-01 3.0250001e+00 1.2500000e+01 
7.5000000e-01 3.0250001e+00 1.3000000e+01 
7.5000000e-01 3.0250001e+00 1.3500000e+01 
7.5000000e-01 3.0250001e+00 1.4000000e+01 
7.5000000e-01 3.0250001e+00 1.4500000e+01 
7.5000000e-01 3.0250001e+00 1.5000000e+01 
7.5000000e-01 3.0250001e+00 1.5500000e+01 
7.5000000e-01 3.0250001e+00 1.6000000e+01 
7.5000000e-01 3.0250001e+00 1.6500000e+01 
7.5000000e-01 3.0250001e+00 1.7000000e+01 
7.5000000e-01 3.0250001e+00 1.7500000e+01 
7.5000000e-01 3.0250001e+00 1.8000000e+01 
7.5000000e-01 3.0250001e+00 1.8500000e+01 
7.5000000e-01 3.0250001e+00 1.9000000e+01 
7.5000000e-01 3.0250001e+00 1.9500000e+01 
7.5000000e-01 3.0250001e+00 2.0000000e+01 
7.5000000e-01 3.0250001e+00 2.0500000e+01 
7.5000000e-01 3.0250001e+00 2.1000000e+01 
7.5000000e-01 3.0250001e+00 2.1500000e+01 
7.5000000e-01 3.0250001e+00 2.2000000e+01 
7.5000000e-01 3.0250001e+00 2.2500000e+01 
7.5000000e-01 3.0250001e+00 2.3000000e+01 
7.5000000e-01 3.0250001e+00 2.3500000e+01 
7.5000000e-01 3.0250001e+00 2.4000000e+01 
7.5000000e-01 3.0250001e+00 2.4500000e+01 
7.5000000e-01 3.0250001e+00 2.5000000e+01 
7.5000000e-01 3.0250001e+00 2.5500000e+01 
7.5000000e-01 3.0250001e+00 2.6000000e+01 
7.5000000e-01 3.0250001e+00 2.6500000e+01 
7.5000000e-01 3.0250001e+00 2.7000000e+01 
7.5000000e-01 3.0250001e+00 2.7500000e+01 
7.5000000e-01 3.0250001e+00 2.8000000e+01 
7.5000000e-01 3.0250001e+00 2.8500000e+01 
7.5000000e-01 3.0250001e+00 2.9000000e+01 
7.5000000e-01 3.0250001e+00 2.9500000e+01 
7.5000000e-01 3.0250001e+00 3.0000000e+01 
7.5000000e-01 3.0250001e+00 3.0500000e+01 
7.5000000e-01 3.0250001e+00 3.1000000e+01 
7.5000000e-01 3.0250001e+00 3.1500000e+01 
7.5000000e-01 3.0250001e+00 3.2000000e+01 
7.5000000e-01 3.0250001e+00 3.2500000e+01 
7.5000000e-01 3.0250001e+00 3.3000000e+01 
7.5000000e-01 3.0250001e+00 3.3500000e+01 
7.5000000e-01 3.0250001e+00 3.4000000e+01 
7.5000000e-01 3.0250001e+00 3.4500000e+01 
7.5000000e-01 3.0250001e+00 3.5000000e+01 
7.5000000e-01 3.0250001e+00 3.5500000e+01 
7.5000000e-01 3.0250001e+00 3.6000000e+01 
7.5000000e-01 3.0250001e+00 3.6500000e+01 
7.5000000e-01 3.0250001e+00 3.7000000e+01 
7.5000000e-01 3.0250001e+00 3.7500000e+01 
7.5000000e-01 3.0250001e+00 3.8000000e+01 
7.5000000e-01 3.0250001e+00 3.8500000e+01 
7.5000000e-01 3.0250001e+00 3.9000000e+01 
7.5000000e-01 3.0250001e+00 3.9500000e+01 
7.5000000e-01 3.0250001e+00 4.0000000e+01 
7.5000000e-01 3.0250001e+00 4.0500000e+01 
7.5000000e-01 3.0250001e+00 4.1000000e+01 
7.5000000e-01 3.0250001e+00 4.1500000e+01 
7.5000000e-01 3.0250001e+00 4.2000000e+01 
7.5000000e-01 3.0250001e+00 4.2500000e+01 
7.5000000e-01 3.0250001e+00 4.3000000e+01 
7.5000000e-01 3.0250001e+00 4.3500000e+01 
7.5000000e-01 3.0250001e+00 4.4000000e+01 
7.5000000e-01 3.0250001e+00 4.4500000e+01 
7.5000000e-01 3.0250001e+00 4.5000000e+01 
7.5000000e-01 3.0250001e+00 4.5500000e+01 
7.5000000e-01 3.0250001e+00 4.6000000e+01 
7.5000000e-01 3.0250001e+00 4.6500000e+01 
7.5000000e-01 3.0250001e+00 4.7000000e+01 
7.5000000e-01 3.0250001e+00 4.7500000e+01 
7.5000000e-01 3.0250001e+00 4.8000000e+01 
7.5000000e-01 3.0250001e+00 4.8500000e+01 
7.5000000e-01 3.0250001e+00 4.9000000e+01 
7.5000000e-01 3.0250001e+00 4.9500000e+01 
7.5000000e-01 3.0250001e+00 5.0000000e+01 
1.5000000e+00 3.0000000e+00 2.5000000e+01 
3.0000000e+00 2.0000000e+00 2.5000000e+01 
4.0000000e+00 2.0000000e+00 2.5000000e+01 
5.0000000e+00 2.0000000e+00 2.5000000e+01 
0.0000000e+00 3.0000000e+00 2.5000000e+01 
0.0000000e+00 0.0000000e+00 1.0000000e+00 
0.0000000e+00 0.0000000e+00 2.0000000e+00 
0.0000000e+00 0.0000000e+00 3.0000000e+00 
0.0000000e+00 0.0000000e+00 4.0000000e+00 
0.0000000e+00 0.0000000e+00 5.0000000e+00 
[...]
POINT_DATA 1919
FIELD FieldData 3
DISPLACEMENT 3 1919  float
0.0000000e+00 0.0000000e+00 0.0000000e+00 
0.0000000e+00 0.0000000e+00 0.0000000e+00 
0.0000000e+00 0.0000000e+00 0.0000000e+00 
0.0000000e+00 0.0000000e+00 0.0000000e+00 
7.1761269e-07 -4.7334291e-07 -1.0167009e-06 
9.0222159e-07 -1.0253970e-06 2.1910632e-06 
0.0000000e+00 -3.9628426e-06 0.0000000e+00 
0.0000000e+00 -2.2583565e-06 0.0000000e+00 
9.7523855e-07 -1.0523447e-06 -7.1491364e-08 
9.0267628e-07 -9.1047764e-07 3.0660894e-06 
-1.8305574e-06 -2.9067405e-07 1.4155721e-07 
1.9607110e-07 -3.1495058e-06 5.6503891e-06 
0.0000000e+00 -6.2474301e-06 0.0000000e+00 
0.0000000e+00 -2.0585965e-06 0.0000000e+00 
-1.1670413e-06 6.1321252e-06 -5.3644462e-06 
-3.3151932e-06 -3.6283093e-06 9.2258679e-06 
2.1311961e-07 1.7005505e-05 1.1093022e-06 
-4.1965695e-06 -7.2046855e-06 8.0232685e-06 
0.0000000e+00 -6.9798107e-06 0.0000000e+00 
0.0000000e+00 9.6166377e-06 0.0000000e+00 
-3.4273182e-06 1.4614245e-05 -5.3787840e-06 
-3.6833865e-06 9.3855379e-06 -7.4832428e-06 
-9.2396812e-07 3.9415227e-06 -6.0963898e-06 
-2.4696844e-06 -2.3370995e-07 -4.6444106e-06 
-4.3154823e-06 -3.2412831e-06 -4.2948309e-06 
-4.9518671e-06 -6.3637726e-06 -7.3479646e-06 
-4.3121049e-06 -1.0210874e-05 -8.8313473e-06 
-4.3927189e-06 -1.4805281e-05 -8.0226800e-06 
-2.3573284e-06 -1.8128752e-05 -7.0079377e-06 
-5.8184951e-06 -1.8000319e-05 -8.4036412e-07 
-7.7082423e-06 -1.4590074e-05 2.2306490e-06 
-8.8868628e-06 -1.0050355e-05 5.9873992e-06 
-6.1111905e-06 -6.9025814e-06 6.1945057e-06 
-1.1637999e-05 -6.2709846e-06 7.7722225e-06 
-8.8204870e-06 -4.5578113e-06 9.0193953e-06 
-7.6789593e-06 2.1022877e-06 1.3843654e-05 
-6.0841840e-06 1.1549572e-05 1.9645388e-05 
-7.4374743e-06 1.6202830e-05 2.1055246e-05 
-8.7214694e-06 1.1237765e-05 1.6175938e-05 
-1.5053746e-05 -2.1326333e-07 7.2916682e-06 
-1.4200726e-05 -7.6444603e-06 3.1922521e-06 
-1.0295495e-05 -2.8573597e-06 7.1498982e-07 
-8.3430223e-06 1.0525056e-05 -1.2238966e-07 
-6.7744872e-06 1.8586263e-05 -2.9403177e-06 
-2.3351661e-06 1.2680090e-05 -1.4569714e-06 
-3.1638542e-06 -1.8660087e-06 1.2700410e-06 
-1.0436826e-05 -4.6538020e-07 1.8142963e-06 
2.3361395e-06 4.0418880e-05 -4.8912170e-07 
1.3319805e-05 1.0101552e-04 1.8260287e-05 
1.3910924e-05 1.3173174e-04 2.6132831e-05 
7.0772867e-06 1.0467559e-04 3.4166562e-05 
1.0268537e-05 1.6870174e-05 6.2570005e-05 
-1.1828901e-05 -1.2139196e-04 1.0748008e-04 
-5.8952708e-05 -3.3453514e-04 1.9294191e-04 
-5.7390676e-05 -7.3825981e-04 2.1513218e-04 
-7.4473501e-05 -1.4670766e-03 1.6158185e-04 
-1.5067456e-04 -2.5921129e-03 2.5736712e-04 
-1.8647742e-04 -3.8994814e-03 1.0609216e-04 
-2.6528328e-04 -4.8291278e-03 1.3236474e-04 
-2.8048677e-04 -4.7177002e-03 9.2663513e-06 
-2.4469831e-04 -4.2353491e-03 -4.7187215e-05 
-2.5229025e-04 -4.0829880e-03 -8.3067323e-05 
-2.4702665e-04 -4.3921345e-03 -1.0009068e-04 
-1.8392535e-04 -4.5407992e-03 -1.9931496e-04 
-2.8437597e-04 -3.7511755e-03 -2.8550334e-04 
-1.3947241e-04 -2.4524489e-03 -1.1617025e-04 
-7.0649017e-05 -1.2720054e-03 -3.0107360e-04 
-1.9227633e-05 -4.2308649e-04 -1.5623907e-04 
1.0261439e-06 4.0559302e-05 -1.2064786e-04 
3.4645889e-06 2.0259585e-04 -6.7462322e-05 
1.2541630e-05 1.9649061e-04 -2.2955101e-05 
6.1807737e-06 1.3323173e-04 -1.0612640e-05 
4.2445017e-06 7.2679286e-05 8.1965945e-06 
-2.7346152e-06 2.1554271e-05 4.6457963e-06 
-7.2675548e-06 -2.2414200e-05 1.0331501e-05 
-1.0804265e-05 -4.8198330e-05 1.1693173e-05 
-1.0179437e-05 -4.3537988e-05 1.4762162e-05 
-8.1960197e-06 -1.9541738e-05 2.0254800e-05 
-6.3418361e-06 -2.4720912e-06 2.0930313e-05 
-7.0832193e-06 -4.4485378e-06 1.6769029e-05 
-3.8612943e-06 -1.3363180e-05 9.3896942e-06 
-4.7725889e-06 -1.1014983e-05 8.6368764e-06 
-4.6292835e-06 6.4349497e-06 1.3834230e-05 
-3.9925649e-06 2.7433134e-05 1.3213228e-05 
-5.2885280e-06 3.6522422e-05 1.3353213e-05 
-4.8817788e-06 2.4819919e-05 1.0354637e-05 
2.1916978e-07 8.6214959e-06 3.0677536e-06 
2.7761016e-06 2.0258933e-05 4.5214938e-06 
-5.6593132e-07 7.1029768e-05 1.7513903e-05 
1.5957712e-05 1.3124343e-04 2.1283260e-05 
1.9337611e-05 1.4327369e-04 4.4161377e-05 
1.1900483e-05 5.3832697e-05 7.5724260e-05 
-9.7343554e-06 -1.4773995e-04 1.0383107e-04 
-1.4643730e-05 -4.5433489e-04 1.2423677e-04 
-7.7208984e-05 -9.2014222e-04 1.9946852e-04 
-2.5697803e-04 -1.6590384e-03 3.6225986e-04 
-1.6948198e-04 -2.7382770e-03 2.6430315e-04 
-1.8745173e-04 -4.0248488e-03 1.0945107e-04 
-2.5451087e-04 -4.9458616e-03 9.8128556e-05 
-2.6545100e-04 -4.7314619e-03 1.5357531e-05 
-2.3152356e-04 -4.1771261e-03 -3.3692875e-05 
-2.2011144e-04 -3.9738300e-03 -7.3244868e-05 
-2.0630505e-04 -4.2633354e-03 -7.2870855e-05 
-2.2609952e-04 -4.3882867e-03 -1.5418284e-04 
-1.7614667e-04 -3.5097778e-03 -2.7499098e-04 
-1.4383461e-04 -2.1742343e-03 -1.7824017e-04 
-6.2151958e-05 -1.0121249e-03 -2.4295891e-04 
-2.5078276e-05 -2.4841059e-04 -1.2453864e-04 
4.4247972e-06 1.1682288e-04 -1.0700401e-04 
9.8969158e-06 2.1709592e-04 -5.5065793e-05 
1.8487604e-05 2.0017644e-04 -1.8237270e-05 
1.7185166e-05 1.4681024e-04 -6.4405385e-06 
9.0622261e-06 8.3035586e-05 1.1849208e-05 
6.5609102e-06 2.1635040e-05 9.7505517e-06 
4.0149630e-06 -1.8697743e-05 1.2325852e-05 
2.9178159e-06 -2.8425802e-05 1.0460637e-05 
3.6954211e-06 -1.7788543e-05 9.4418092e-06 
1.9210113e-06 -6.9188372e-06 1.0182160e-05 
-2.0910563e-06 -5.4269258e-06 9.7149668e-06 
0.0000000e+00 1.6933624e-05 0.0000000e+00 
0.0000000e+00 1.4619536e-05 0.0000000e+00 
0.0000000e+00 9.4308434e-06 0.0000000e+00 
0.0000000e+00 3.9874208e-06 0.0000000e+00 
0.0000000e+00 -2.0151417e-07 0.0000000e+00 
0.0000000e+00 -3.2490796e-06 0.0000000e+00 
0.0000000e+00 -6.3600064e-06 0.0000000e+00 
0.0000000e+00 -1.0305377e-05 0.0000000e+00 
0.0000000e+00 -1.4845683e-05 0.0000000e+00 
0.0000000e+00 -1.8069219e-05 0.0000000e+00 
0.0000000e+00 -1.7933307e-05 0.0000000e+00 
0.0000000e+00 -1.4552998e-05 0.0000000e+00 
0.0000000e+00 -1.0063881e-05 0.0000000e+00 
0.0000000e+00 -7.0955743e-06 0.0000000e+00 
0.0000000e+00 -6.3579855e-06 0.0000000e+00 
0.0000000e+00 -4.3960295e-06 0.0000000e+00 
0.0000000e+00 2.3403343e-06 0.0000000e+00 
0.0000000e+00 1.1571773e-05 0.0000000e+00 
0.0000000e+00 1.5978843e-05 0.0000000e+00 
0.0000000e+00 1.0877271e-05 0.0000000e+00 
0.0000000e+00 -2.6667919e-07 0.0000000e+00 
0.0000000e+00 -7.2724051e-06 0.0000000e+00 
0.0000000e+00 -2.4152139e-06 0.0000000e+00 
0.0000000e+00 1.0541834e-05 0.0000000e+00 
0.0000000e+00 1.8269609e-05 0.0000000e+00 
0.0000000e+00 1.1767711e-05 0.0000000e+00 
0.0000000e+00 -2.3030100e-06 0.0000000e+00 
0.0000000e+00 9.8670796e-07 0.0000000e+00 
0.0000000e+00 4.1867512e-05 0.0000000e+00 
0.0000000e+00 1.0076535e-04 0.0000000e+00 
0.0000000e+00 1.3112430e-04 0.0000000e+00 
0.0000000e+00 1.0371625e-04 0.0000000e+00 
0.0000000e+00 1.7435214e-05 0.0000000e+00 
0.0000000e+00 -1.1823457e-04 0.0000000e+00 
0.0000000e+00 -3.3333531e-04 0.0000000e+00 
0.0000000e+00 -7.3911739e-04 0.0000000e+00 
0.0000000e+00 -1.4763694e-03 0.0000000e+00 
0.0000000e+00 -2.6055116e-03 0.0000000e+00 
0.0000000e+00 -3.9220555e-03 0.0000000e+00 
0.0000000e+00 -4.8492495e-03 0.0000000e+00 
0.0000000e+00 -4.7450000e-03 0.0000000e+00 
0.0000000e+00 -4.2574066e-03 0.0000000e+00 
0.0000000e+00 -4.1107545e-03 0.0000000e+00 
0.0000000e+00 -4.4155978e-03 0.0000000e+00 
0.0000000e+00 -4.5672189e-03 0.0000000e+00 
0.0000000e+00 -3.7738306e-03 0.0000000e+00 
0.0000000e+00 -2.4702766e-03 0.0000000e+00 
0.0000000e+00 -1.2770521e-03 0.0000000e+00 
0.0000000e+00 -4.2794918e-04 0.0000000e+00 
0.0000000e+00 3.9234208e-05 0.0000000e+00 
0.0000000e+00 2.0432071e-04 0.0000000e+00 
0.0000000e+00 1.9858373e-04 0.0000000e+00 
0.0000000e+00 1.3481331e-04 0.0000000e+00 
0.0000000e+00 7.2713483e-05 0.0000000e+00 
0.0000000e+00 2.1174539e-05 0.0000000e+00 
0.0000000e+00 -2.2338683e-05 0.0000000e+00 
0.0000000e+00 -4.7461432e-05 0.0000000e+00 
0.0000000e+00 -4.3143751e-05 0.0000000e+00 
0.0000000e+00 -2.0041694e-05 0.0000000e+00 
0.0000000e+00 -3.1947764e-06 0.0000000e+00 
0.0000000e+00 -4.5950228e-06 0.0000000e+00 
0.0000000e+00 -1.3038997e-05 0.0000000e+00 
0.0000000e+00 -1.0696108e-05 0.0000000e+00 
0.0000000e+00 6.6771236e-06 0.0000000e+00 
0.0000000e+00 2.7544384e-05 0.0000000e+00 
0.0000000e+00 3.5825651e-05 0.0000000e+00 
0.0000000e+00 2.4104869e-05 0.0000000e+00 
0.0000000e+00 8.8099023e-06 0.0000000e+00 
0.0000000e+00 2.1370941e-05 0.0000000e+00 
0.0000000e+00 7.2624447e-05 0.0000000e+00 
0.0000000e+00 1.3201324e-04 0.0000000e+00 
0.0000000e+00 1.4193523e-04 0.0000000e+00 
0.0000000e+00 5.2573883e-05 0.0000000e+00 
0.0000000e+00 -1.4637140e-04 0.0000000e+00 
0.0000000e+00 -4.5243616e-04 0.0000000e+00 
0.0000000e+00 -9.2097797e-04 0.0000000e+00 
0.0000000e+00 -1.6646151e-03 0.0000000e+00 
0.0000000e+00 -2.7531174e-03 0.0000000e+00 
0.0000000e+00 -4.0523880e-03 0.0000000e+00 
0.0000000e+00 -4.9683331e-03 0.0000000e+00 
0.0000000e+00 -4.7569433e-03 0.0000000e+00 
0.0000000e+00 -4.1962150e-03 0.0000000e+00 
0.0000000e+00 -4.0012561e-03 0.0000000e+00 
0.0000000e+00 -4.2887828e-03 0.0000000e+00 
0.0000000e+00 -4.4178930e-03 0.0000000e+00 
0.0000000e+00 -3.5280057e-03 0.0000000e+00 
0.0000000e+00 -2.1898402e-03 0.0000000e+00 
0.0000000e+00 -1.0199337e-03 0.0000000e+00 
0.0000000e+00 -2.5217867e-04 0.0000000e+00 
0.0000000e+00 1.1718802e-04 0.0000000e+00 
0.0000000e+00 2.1979708e-04 0.0000000e+00 
0.0000000e+00 2.0189627e-04 0.0000000e+00 
0.0000000e+00 1.4706512e-04 0.0000000e+00 
0.0000000e+00 8.2914747e-05 0.0000000e+00 
0.0000000e+00 2.2143602e-05 0.0000000e+00 
0.0000000e+00 -1.8022954e-05 0.0000000e+00 
0.0000000e+00 -2.8218701e-05 0.0000000e+00 
0.0000000e+00 -1.8236909e-05 0.0000000e+00 
0.0000000e+00 -7.4621184e-06 0.0000000e+00 
0.0000000e+00 -5.4582606e-06 0.0000000e+00 
0.0000000e+00 -6.8811160e-06 0.0000000e+00 
6.3901380e-06 5.8436639e-05 -8.9510737e-05 
1.1854372e-05 5.4736347e-06 -9.3907192e-06 
9.4561537e-06 1.8344912e-06 -4.0824798e-07 
4.5392035e-06 3.0956912e-06 5.5401761e-06 
0.0000000e+00 1.3603616e-04 0.0000000e+00 
0.0000000e+00 0.0000000e+00 0.0000000e+00 
0.0000000e+00 0.0000000e+00 0.0000000e+00 
0.0000000e+00 0.0000000e+00 0.0000000e+00 
0.0000000e+00 0.0000000e+00 0.0000000e+00 
0.0000000e+00 0.0000000e+00 0.0000000e+00 
0.0000000e+00 0.0000000e+00 0.0000000e+00 
0.0000000e+00 0.0000000e+00 0.0000000e+00 
0.0000000e+00 0.0000000e+00 0.0000000e+00 
0.0000000e+00 0.0000000e+00 0.0000000e+00 
0.0000000e+00 0.0000000e+00 0.0000000e+00 
0.0000000e+00 0.0000000e+00 0.0000000e+00 
0.0000000e+00 0.0000000e+00 0.0000000e+00 
0.0000000e+00 0.0000000e+00 0.0000000e+00 
0.0000000e+00 0.0000000e+00 0.0000000e+00 
0.0000000e+00 0.0000000e+00 0.0000000e+00 
0.0000000e+00 0.0000000e+00 0.0000000e+00 
0.0000000e+00 0.0000000e+00 0.0000000e+00 
0.0000000e+00 0.0000000e+00 0.0000000e+00 
0.0000000e+00 0.0000000e+00 0.0000000e+00 
0.0000000e+00 0.0000000e+00 0.0000000e+00 
0.0000000e+00 0.0000000e+00 0.0000000e+00 
0.0000000e+00 0.0000000e+00 0.0000000e+00 
0.0000000e+00 0.0000000e+00 0.0000000e+00 
0.0000000e+00 0.0000000e+00 0.0000000e+00 
0.0000000e+00 0.0000000e+00 0.0000000e+00 
0.0000000e+00 0.0000000e+00 0.0000000e+00 
0.0000000e+00 0.0000000e+00 0.0000000e+00 
0.0000000e+00 0.0000000e+00 0.0000000e+00 
0.0000000e+00 0.0000000e+00 0.0000000e+00 
0.0000000e+00 0.0000000e+00 0.0000000e+00 
0.0000000e+00 0.0000000e+00 0.0000000e+00 
0.0000000e+00 0.0000000e+00 0.0000000e+00 
0.0000000e+00 0.0000000e+00 0.0000000e+00 
0.0000000e+00 0.0000000e+00 0.0000000e+00 
0.0000000e+00 0.0000000e+00 0.0000000e+00 
0.0000000e+00 0.0000000e+00 0.0000000e+00 
0.0000000e+00 0.0000000e+00 0.0000000e+00 
0.0000000e+00 0.0000000e+00 0.0000000e+00 
0.0000000e+00 0.0000000e+00 0.0000000e+00 
0.0000000e+00 0.0000000e+00 0.0000000e+00 
0.0000000e+00 0.0000000e+00 0.0000000e+00 
0.0000000e+00 0.0000000e+00 0.0000000e+00 
0.0000000e+00 0.0000000e+00 0.0000000e+00 
0.0000000e+00 0.0000000e+00 0.0000000e+00 
0.0000000e+00 0.0000000e+00 0.0000000e+00 
0.0000000e+00 0.0000000e+00 0.0000000e+00 
0.0000000e+00 0.0000000e+00 0.0000000e+00 
0.0000000e+00 0.0000000e+00 0.0000000e+00 
0.0000000e+00 0.0000000e+00 0.0000000e+00 
0.0000000e+00 0.0000000e+00 0.0000000e+00 
0.0000000e+00 0.0000000e+00 0.0000000e+00 
0.0000000e+00 0.0000000e+00 0.0000000e+00 
0.0000000e+00 0.0000000e+00 0.0000000e+00 
0.0000000e+00 0.0000000e+00 0.0000000e+00 
0.0000000e+00 0.0000000e+00 0.0000000e+00 
0.0000000e+00 0.0000000e+00 0.0000000e+00 
0.0000000e+00 0.0000000e+00 0.0000000e+00 
0.0000000e+00 0.0000000e+00 0.0000000e+00 
0.0000000e+00 0.0000000e+00 0.0000000e+00 
0.0000000e+00 0.0000000e+00 0.0000000e+00 
0.0000000e+00 0.0000000e+00 0.0000000e+00 
0.0000000e+00 0.0000000e+00 0.0000000e+00 
0.0000000e+00 0.0000000e+00 0.0000000e+00 
0.0000000e+00 0.0000000e+00 0.0000000e+00 
0.0000000e+00 0.0000000e+00 0.0000000e+00 
0.0000000e+00 0.0000000e+00 0.0000000e+00 
0.0000000e+00 0.0000000e+00 0.0000000e+00 
0.0000000e+00 0.0000000e+00 0.0000000e+00 
0.0000000e+00 0.0000000e+00 0.0000000e+00 
0.0000000e+00 0.0000000e+00 0.0000000e+00 
0.0000000e+00 0.0000000e+00 0.0000000e+00 
0.0000000e+00 0.0000000e+00 0.0000000e+00 
0.0000000e+00 0.0000000e+00 0.0000000e+00 
0.0000000e+00 0.0000000e+00 0.0000000e+00 
0.0000000e+00 0.0000000e+00 0.0000000e+00 
0.0000000e+00 0.0000000e+00 0.0000000e+00 
0.0000000e+00 0.0000000e+00 0.0000000e+00 
0.0000000e+00 0.0000000e+00 0.0000000e+00 
0.0000000e+00 0.0000000e+00 0.0000000e+00 
0.0000000e+00 0.0000000e+00 0.0000000e+00 
0.0000000e+00 0.0000000e+00 0.0000000e+00 
0.0000000e+00 0.0000000e+00 0.0000000e+00 
0.0000000e+00 0.0000000e+00 0.0000000e+00 
0.0000000e+00 0.0000000e+00 0.0000000e+00 
0.0000000e+00 0.0000000e+00 0.0000000e+00 
0.0000000e+00 0.0000000e+00 0.0000000e+00 
0.0000000e+00 0.0000000e+00 0.0000000e+00 
0.0000000e+00 0.0000000e+00 0.0000000e+00 
0.0000000e+00 0.0000000e+00 0.0000000e+00 
0.0000000e+00 0.0000000e+00 0.0000000e+00 
0.0000000e+00 0.0000000e+00 0.0000000e+00 
0.0000000e+00 0.0000000e+00 0.0000000e+00 
0.0000000e+00 0.0000000e+00 0.0000000e+00 
0.0000000e+00 0.0000000e+00 0.0000000e+00 
0.0000000e+00 0.0000000e+00 0.0000000e+00 
0.0000000e+00 0.0000000e+00 0.0000000e+00 
0.0000000e+00 0.0000000e+00 0.0000000e+00 
0.0000000e+00 0.0000000e+00 0.0000000e+00 
0.0000000e+00 0.0000000e+00 0.0000000e+00 
0.0000000e+00 0.0000000e+00 0.0000000e+00 
0.0000000e+00 0.0000000e+00 0.0000000e+00 
0.0000000e+00 0.0000000e+00 0.0000000e+00 
0.0000000e+00 0.0000000e+00 0.0000000e+00 
0.0000000e+00 0.0000000e+00 0.0000000e+00 
0.0000000e+00 0.0000000e+00 0.0000000e+00 
0.0000000e+00 0.0000000e+00 0.0000000e+00 
-6.0413043e-07 -6.3272552e-07 -1.6485839e-07 
-1.3184052e-06 -5.0043099e-07 -3.1718989e-07 
-3.4389402e-06 -2.4977430e-07 -6.2536964e-07 
-4.2439383e-06 -8.1314477e-07 1.5023784e-06 
-3.5596643e-06 1.2491874e-06 7.9097094e-07 
-4.0764075e-06 -9.0188490e-07 2.0475538e-07 
-4.1456738e-06 5.6062703e-07 2.6880177e-06 
-4.0456721e-06 1.7364549e-06 1.0994361e-06 
-2.7101939e-06 -2.5635673e-06 -1.3061120e-06 
-2.5129509e-06 -2.0417751e-07 5.0066268e-07 
-1.9047919e-06 6.8515783e-07 -9.7195186e-07 
-2.1453229e-06 -7.9535494e-06 -2.0696070e-06 
1.2841315e-06 -1.8147906e-06 -6.2360391e-06 
8.2164979e-06 2.5274690e-07 -7.6440656e-06 
8.2813640e-06 -4.7650333e-06 -1.0710128e-05 
1.7337485e-05 1.2116469e-06 -1.1912800e-05 
2.6136699e-05 -1.3446524e-05 -1.2550230e-05 
3.1135041e-05 -1.4499317e-05 -1.3005260e-05 
4.3198204e-05 -1.2023765e-05 -2.6587907e-06 
4.5640878e-05 -1.8812139e-05 -1.2830404e-06 
4.1019692e-05 -1.5087171e-05 3.1803136e-06 
3.2184435e-05 -9.0373187e-06 9.8317832e-06 
1.8847315e-05 -6.0537550e-06 7.9663096e-06 
9.5837322e-06 -6.2567699e-07 1.0007513e-05 
3.3727149e-06 -4.6059958e-07 4.9685373e-06 
-2.7877377e-06 -2.1047684e-07 1.5232829e-06 
-3.2203384e-06 -1.5018807e-06 5.4741599e-06 
-4.9083105e-06 1.9565073e-06 1.1770549e-06 
-2.0848286e-06 1.3423671e-06 -2.8210093e-06 
-5.4608327e-06 -2.2730571e-06 3.0137840e-06 
4.8826405e-07 -9.6047449e-07 1.2277549e-06 
2.5527115e-06 -3.1303950e-06 -1.9466358e-06 
2.2466827e-06 -4.3073096e-06 -2.4407375e-06 
7.2025668e-06 5.6307722e-06 -5.1280099e-06 
1.2448067e-05 -1.1462034e-05 -7.3718311e-06 
1.4747338e-05 -8.3853247e-06 -9.8631208e-06 
2.9151934e-05 -8.3997011e-06 -9.9527051e-06 
3.6270067e-05 -1.6182337e-05 -7.9249085e-06 
4.0738465e-05 -1.4806075e-05 -6.8030236e-06 
4.5577632e-05 -1.5921165e-05 1.2926573e-06 
3.9801722e-05 -1.4841619e-05 5.1494826e-06 
3.2980806e-05 -1.1326696e-05 1.0822117e-05 
2.3369317e-05 -6.6154744e-06 1.2307351e-05 
1.2285863e-05 -1.6849215e-06 7.7491532e-06 
5.4461289e-06 1.7054808e-07 5.5451519e-06 
3.2374046e-06 7.2389292e-07 5.0652307e-06 
1.4325971e-06 9.7663801e-08 3.5687208e-06 
-1.0379040e-07 -2.0283541e-07 1.9754375e-06 
2.0304527e-07 -1.2764205e-07 2.4345397e-06 
0.0000000e+00 -5.9729809e-06 0.0000000e+00 
0.0000000e+00 -4.4667981e-06 0.0000000e+00 
0.0000000e+00 -2.1465446e-06 0.0000000e+00 
0.0000000e+00 3.7274549e-06 0.0000000e+00 
0.0000000e+00 7.0625679e-06 0.0000000e+00 
0.0000000e+00 5.8421970e-06 0.0000000e+00 
0.0000000e+00 6.6862967e-06 0.0000000e+00 
0.0000000e+00 9.1450556e-06 0.0000000e+00 
0.0000000e+00 -4.7890680e-06 0.0000000e+00 
0.0000000e+00 -4.0160830e-06 0.0000000e+00 
0.0000000e+00 5.4573493e-06 0.0000000e+00 
0.0000000e+00 -8.3301129e-06 0.0000000e+00 
0.0000000e+00 -1.2475403e-05 0.0000000e+00 
0.0000000e+00 -1.5330490e-06 0.0000000e+00 
0.0000000e+00 -1.3311686e-05 0.0000000e+00 
0.0000000e+00 -4.1347073e-05 0.0000000e+00 
0.0000000e+00 -8.2439263e-05 0.0000000e+00 
0.0000000e+00 -2.8884248e-04 0.0000000e+00 
0.0000000e+00 -4.2280310e-04 0.0000000e+00 
0.0000000e+00 -5.0560298e-04 0.0000000e+00 
0.0000000e+00 -5.0979853e-04 0.0000000e+00 
0.0000000e+00 -4.4531669e-04 0.0000000e+00 
0.0000000e+00 -2.7813559e-04 0.0000000e+00 
0.0000000e+00 -8.6549939e-05 0.0000000e+00 
0.0000000e+00 1.6992781e-05 0.0000000e+00 
0.0000000e+00 2.6029507e-05 0.0000000e+00 
0.0000000e+00 1.6475218e-05 0.0000000e+00 
0.0000000e+00 2.0145326e-05 0.0000000e+00 
0.0000000e+00 2.6920156e-06 0.0000000e+00 
0.0000000e+00 -9.8904729e-06 0.0000000e+00 
0.0000000e+00 1.0402335e-05 0.0000000e+00 
0.0000000e+00 -4.8793495e-06 0.0000000e+00 
0.0000000e+00 -2.5724714e-05 0.0000000e+00 
0.0000000e+00 2.0706106e-05 0.0000000e+00 
0.0000000e+00 -6.3600796e-06 0.0000000e+00 
0.0000000e+00 -4.5407927e-05 0.0000000e+00 
0.0000000e+00 -1.0690674e-04 0.0000000e+00 
0.0000000e+00 -2.5803770e-04 0.0000000e+00 
0.0000000e+00 -4.6585395e-04 0.0000000e+00 
0.0000000e+00 -4.8828585e-04 0.0000000e+00 
0.0000000e+00 -4.9747992e-04 0.0000000e+00 
0.0000000e+00 -4.1990814e-04 0.0000000e+00 
0.0000000e+00 -2.4702682e-04 0.0000000e+00 
0.0000000e+00 -7.1962728e-05 0.0000000e+00 
0.0000000e+00 5.3538574e-06 0.0000000e+00 
0.0000000e+00 1.4213533e-05 0.0000000e+00 
0.0000000e+00 9.0999001e-06 0.0000000e+00 
0.0000000e+00 -4.2738344e-07 0.0000000e+00 
0.0000000e+00 -2.0010502e-06 0.0000000e+00 
-9.0400988e-07 -1.8001529e-07 -9.3342422e-08 
-9.6143549e-07 -9.5623466e-07 -1.0299627e-06 
1.3882895e-07 -1.0251614e-06 -1.1346525e-06 
7.3942681e-07 -2.8048914e-06 -1.1397947e-06 
6.2206442e-07 -1.3433645e-06 2.6676064e-06 
4.8027056e-07 -2.3777645e-06 3.5209835e-06 
-6.4375514e-09 -3.5472387e-06 4.5976121e-06 
-7.2662851e-07 -2.8030859e-06 3.8794342e-06 
-6.9412914e-07 -6.9430507e-07 -8.1417625e-07 
-1.9563201e-08 -1.4940063e-06 3.9224733e-06 
-1.8540406e-06 3.9943180e-07 -1.0960500e-06 
-2.7693147e-06 1.3491616e-06 3.9239559e-08 
0.0000000e+00 -5.7040347e-06 0.0000000e+00 
0.0000000e+00 -6.7761885e-06 0.0000000e+00 
0.0000000e+00 -6.4061810e-06 0.0000000e+00 
0.0000000e+00 3.5730998e-06 0.0000000e+00 
0.0000000e+00 9.0100375e-06 0.0000000e+00 
0.0000000e+00 5.5988098e-06 0.0000000e+00 
0.0000000e+00 9.6486028e-06 0.0000000e+00 
0.0000000e+00 1.4478640e-05 0.0000000e+00 
0.0000000e+00 -2.3436381e-07 0.0000000e+00 
0.0000000e+00 -1.1655989e-06 0.0000000e+00 
0.0000000e+00 4.3367453e-07 0.0000000e+00 
0.0000000e+00 -1.6916607e-05 0.0000000e+00 
0.0000000e+00 -1.3092788e-05 0.0000000e+00 