# vtk DataFile Version 4.0
vtk output
ASCII
DATASET UNSTRUCTURED_GRID
POINTS 1919 float
0.0000000e+00 0.0000000e+00 0.0000000e+00 
0.0000000e+00 0.0000000e+00 5.0000000e+01 
5.0000000e+00 0.0000000e+00 0.0000000e+00 
5.0000000e+00 0.0000000e+00 5.0000000e+01 
5.0000000e+00 1.0000000e+00 0.0000000e+00 
5.0000000e+00 1.0000000e+00 5.0000000e+01 
0.0000000e+00 1.0000000e+00 0.0000000e+00 
0.0000000e+00 1.0000000e+00 5.0000000e+01 
5.0000000e+00 2.0000000e+00 0.0000000e+00 
5.0000000e+00 2.0000000e+00 5.0000000e+01 
3.0000000e+00 2.0000000e+00 0.0000000e+00 
3.0000000e+00 2.0000000e+00 5.0000000e+01 
0.0000000e+00 2.0000000e+00 0.0000000e+00 
0.0000000e+00 2.0000000e+00 5.0000000e+01 
1.5000000e+00 3.0000000e+00 0.0000000e+00 
1.5000000e+00 3.0000000e+00 5.0000000e+01 
7.5000000e-01 3.0000000e+00 0.0000000e+00 
7.5000000e-01 3.0000000e+00 5.0000000e+01 
0.0000000e+00 3.0000000e+00 0.0000000e+00 
0.0000000e+00 3.0000000e+00 5.0000000e+01 
7.5000000e-01 3.0000000e+00 5.0000000e-01 
7.5000000e-01 3.0000000e+00 1.0000000e+00 
7.5000000e-01 3.0000000e+00 1.5000000e+00 
7.5000000e-01 3.0000000e+00 2.0000000e+00 
7.5000000e-01 3.0000000e+00 2.5000000e+00 
7.5000000e-01 3.0000000e+00 3.0000000e+00 
7.5000000e-01 3.0000000e+00 3.5000000e+00 
7.5000000e-01 3.0000000e+00 4.0000000e+00 
7.5000000e-01 3.0000000e+00 4.5000000e+00 
7.5000000e-01 3.0000000e+00 5.0000000e+00 
7.5000000e-01 3.0000000e+00 5.5000000e+00 
7.5000000e-01 3.0000000e+00 6.0000000e+00 
7.5000000e-01 3.0000000e+00 6.5000000e+00 
7.5000000e-01 3.0000000e+00 7.0000000e+00 
7.5000000e-01 3.0000000e+00 7.5000000e+00 
7.5000000e-01 3.0000000e+00 8.0000000e+00 
7.5000000e-01 3.0000000e+00 8.5000000e+00 
7.5000000e-01 3.0000000e+00 9.0000000e+00 
7.5000000e-01 3.0000000e+00 9.5000000e+00 
7.5000000e-01 3.0000000e+00 1.0000000e+01 
7.5000000e-01 3.0000000e+00 1.0500000e+01 
7.5000000e-01 3.0000000e+00 1.1000000e+01 
7.5000000e-01 3.0000000e+00 1.1500000e+01 
7.5000000e-01 3.0000000e+00 1.2000000e+01 
7.5000000e-01 3.0000000e+00 1.2500000e+01 
7.5000000e-01 3.0000000e+00 1.3000000e+01 
7.5000000e-01 3.0000000e+00 1.3500000e+01 
7.5000000e-01 3.0000000e+00 1.4000000e+01 
7.5000000e-01 3.0000000e+00 1.4500000e+01 
7.5000000e-01 3.0000000e+00 1.5000000e+01 
7.5000000e-01 3.0000000e+00 1.5500000e+01 
7.5000000e-01 3.0000000e+00 1.6000000e+01 
7.5000000e-01 3.0000000e+00 1.6500000e+01 
7.5000000e-01 3.0000000e+00 1.7000000e+01 
7.5000000e-01 3.0000000e+00 1.7500000e+01 
7.5000000e-01 3.0000000e+00 1.8000000e+01 
7.5000000e-01 3.0000000e+00 1.8500000e+01 
7.5000000e-01 3.0000000e+00 1.9000000e+01 
7.5000000e-01 3.0000000e+00 1.9500000e+01 
7.5000000e-01 3.0000000e+00 2.0000000e+01 
7.5000000e-01 3.0000000e+00 2.0500000e+01 
7.5000000e-01 3.0000000e+00 2.1000000e+01 
7.5000000e-01 3.0000000e+00 2.1500000e+01 
7.5000000e-01 3.0000000e+00 2.2000000e+01 
7.5000000e-01 3.0000000e+00 2.2500000e+01 
7.5000000e-01 3.0000000e+00 2.3000000e+01 
7.5000000e-01 3.0000000e+00 2.3500000e+01 
7.5000000e-01 3.0000000e+00 2.4000000e+01 
7.5000000e-01 3.0000000e+00 2.4500000e+01 
7.5000000e-01 3.0000000e+00 2.5000000e+01 
7.5000000e-01 3.0000000e+00 2.5500000e+01 
7.5000000e-01 3.0000000e+00 2.6000000e+01 
7.5000000e-01 3.0000000e+00 2.6500000e+01 
7.5000000e-01 3.0000000e+00 2.7000000e+01 
7.5000000e-01 3.0000000e+00 2.7500000e+01 
7.5000000e-01 3.0000000e+00 2.8000000e+01 
7.5000000e-01 3.0000000e+00 2.8500000e+01 
7.5000000e-01 3.0000000e+00 2.9000000e+01 
7.5000000e-01 3.0000000e+00 2.9500000e+01 
7.5000000e-01 3.0000000e+00 3.0000000e+01 
7.5000000e-01 3.0000000e+00 3.0500000e+01 
7.5000000e-01 3.0000000e+00 3.1000000e+01 
7.5000000e-01 3.0000000e+00 3.1500000e+01 
7.5000000e-01 3.0000000e+00 3.2000000e+01 
7.5000000e-01 3.0000000e+00 3.2500000e+01 
7.5000000e-01 3.0000000e+00 3.3000000e+01 
7.5000000e-01 3.0000000e+00 3.3500000e+01 
7.5000000e-01 3.0000000e+00 3.4000000e+01 
7.5000000e-01 3.0000000e+00 3.4500000e+01 
7.5000000e-01 3.0000000e+00 3.5000000e+01 
7.5000000e-01 3.0000000e+00 3.5500000e+01 
7.5000000e-01 3.0000000e+00 3.6000000e+01 
7.5000000e-01 3.0000000e+00 3.6500000e+01 
7.5000000e-01 3.0000000e+00 3.7000000e+01 
7.5000000e-01 3.0000000e+00 3.7500000e+01 
7.5000000e-01 3.0000000e+00 3.8000000e+01 
7.5000000e-01 3.0000000e+00 3.8500000e+01 
7.5000000e-01 3.0000000e+00 3.9000000e+01 
7.5000000e-01 3.0000000e+00 3.9500000e+01 
7.5000000e-01 3.0000000e+00 4.0000000e+01 
7.5000000e-01 3.0000000e+00 4.0500000e+01 
7.5000000e-01 3.0000000e+00 4.1000000e+01 
7.5000000e-01 3.0000000e+00 4.1500000e+01 
7.5000000e-01 3.0000000e+00 4.2000000e+01 
7.5000000e-01 3.0000000e+00 4.2500000e+01 
7.5000000e-01 3.0000000e+00 4.3000000e+01 
7.5000000e-01 3.0000000e+00 4.3500000e+01 
7.5000000e-01 3.0000000e+00 4.4000000e+01 
7.5000000e-01 3.0000000e+00 4.4500000e+01 
7.5000000e-01 3.0000000e+00 4.5000000e+01 
7.5000000e-01 3.0000000e+00 4.5500000e+01 
7.5000000e-01 3.0000000e+00 4.6000000e+01 
7.5000000e-01 3.0000000e+00 4.6500000e+01 
7.5000000e-01 3.0000000e+00 4.7000000e+01 
7.5000000e-01 3.0000000e+00 4.7500000e+01 
7.5000000e-01 3.0000000e+00 4.8000000e+01 
7.5000000e-01 3.0000000e+00 4.8500000e+01 
7.5000000e-01 3.0000000e+00 4.9000000e+01 
7.5000000e-01 3.0000000e+00 4.9500000e+01 
7.5000000e-01 3.0250001e+00 0.0000000e+00 
7.5000000e-01 3.0250001e+00 5.0000000e-01 
7.5000000e-01 3.0250001e+00 1.0000000e+00 
7.5000000e-01 3.0250001e+00 1.5000000e+00 
7.5000000e-01 3.0250001e+00 2.0000000e+00 
7.5000000e-01 3.0250001e+00 2.5000000e+00 
7.5000000e-01 3.0250001e+00 3.0000000e+00 
7.5000000e-01 3.0250001e+00 3.5000000e+00 
7.5000000e-01 3.0250001e+00 4.0000000e+00 
7.5000000e-01 3.0250001e+00 4.5000000e+00 
7.5000000e-01 3.0250001e+00 5.0000000e+00 
7.5000000e-01 3.0250001e+00 5.5000000e+00 
7.5000000e-01 3.0250001e+00 6.0000000e+00 
7.5000000e-01 3.0250001e+00 6.5000000e+00 
7.5000000e-01 3.0250001e+00 7.0000000e+00 
7.5000000e-01 3.0250001e+00 7.5000000e+00 
7.5000000e-01 3.0250001e+00 8.0000000e+00 
7.5000000e-01 3.0250001e+00 8.5000000e+00 
7.5000000e-01 3.0250001e+00 9.0000000e+00 
7.5000000e-01 3.0250001e+00 9.5000000e+00 
7.5000000e-01 3.0250001e+00 1.0000000e+01 
7.5000000e-01 3.0250001e+00 1.0500000e+01 
7.5000000e-01 3.0250001e+00 1.1000000e+01 
7.5000000e-01 3.0250001e+00 1.1500000e+01 
7.5000000e-01 3.0250001e+00 1.2000000e+01 
7.5000000e-01 3.0250001e+00 1.2500000e+01 
7.5000000e-01 3.0250001e+00 1.3000000e+01 
7.5000000e-01 3.0250001e+00 1.3500000e+01 
7.5000000e-01 3.0250001e+00 1.4000000e+01 
7.5000000e-01 3.0250001e+00 1.4500000e+01 
7.5000000e-01 3.0250001e+00 1.5000000e+01 
7.5000000e-01 3.0250001e+00 1.5500000e+01 
7.5000000e-01 3.0250001e+00 1.6000000e+01 
7.5000000e-01 3.0250001e+00 1.6500000e+01 
7.5000000e-01 3.0250001e+00 1.7000000e+01 
7.5000000e-01 3.0250001e+00 1.7500000e+01 
7.5000000e-01 3.0250001e+00 1.8000000e+01 
7.5000000e-01 3.0250001e+00 1.8500000e+01 
7.5000000e-01 3.0250001e+00 1.9000000e+01 
7.5000000e-01 3.0250001e+00 1.9500000e+01 
7.5000000e-01 3.0250001e+00 2.0000000e+01 
7.5000000e-01 3.0250001e+00 2.0500000e+01 
7.5000000e-01 3.0250001e+00 2.1000000e+01 
7.5000000e-01 3.0250001e+00 2.1500000e+01 
7.5000000e-01 3.0250001e+00 2.2000000e+01 
7.5000000e-01 3.0250001e+00 2.2500000e+01 
7.5000000e-01 3.0250001e+00 2.3000000e+01 
7.5000000e-01 3.0250001e+00 2.3500000e+01 
7.5000000e-01 3.0250001e+00 2.4000000e+01 
7.5000000e-01 3.0250001e+00 2.4500000e+01 
7.5000000e-01 3.0250001e+00 2.5000000e+01 
7.5000000e-01 3.0250001e+00 2.5500000e+01 
7.5000000e-01 3.0250001e+00 2.6000000e+01 
7.5000000e-01 3.0250001e+00 2.6500000e+01 
7.5000000e-01 3.0250001e+00 2.7000000e+01 
7.5000000e-01 3.0250001e+00 2.7500000e+01 
7.5000000e-01 3.0250001e+00 2.8000000e+01 
7.5000000e-01 3.0250001e+00 2.8500000e+01 
7.5000000e-01 3.0250001e+00 2.9000000e+01 
7.5000000e-01 3.0250001e+00 2.9500000e+01 
7.5000000e-01 3.0250001e+00 3.0000000e+01 
7.5000000e-01 3.0250001e+00 3.0500000e+01 
7.5000000e-01 3.0250001e+00 3.1000000e+01 
7.5000000e-01 3.0250001e+00 3.1500000e+01 
7.5000000e-01 3.0250001e+00 3.2000000e+01 
7.5000000e-01 3.0250001e+00 3.2500000e+01 
7.5000000e-01 3.0250001e+00 3.3000000e+01 
7.5000000e-01 3.0250001e+00 3.3500000e+01 
7.5000000e-01 3.0250001e+00 3.4000000e+01 
7.5000000e-01 3.0250001e+00 3.4500000e+01 
7.5000000e-01 3.0250001e+00 3.5000000e+01 
7.5000000e-01 3.0250001e+00 3.5500000e+01 
7.5000000e-01 3.0250001e+00 3.6000000e+01 
7.5000000e-01 3.0250001e+00 3.6500000e+01 
7.5000000e-01 3.0250001e+00 3.7000000e+01 
7.5000000e-01 3.0250001e+00 3.7500000e+01 
7.5000000e-01 3.0250001e+00 3.8000000e+01 
7.5000000e-01 3.0250001e+00 3.8500000e+01 
7.5000000e-01 3.0250001e+00 3.9000000e+01 
7.5000000e-01 3.0250001e+00 3.9500000e+01 
7.5000000e-01 3.0250001e+00 4.0000000e+01 
7.5000000e-01 3.0250001e+00 4.0500000e+01 
7.5000000e-01 3.0250001e+00 4.1000000e+01 
7.5000000e-01 3.0250001e+00 4.1500000e+01 
7.5000000e-01 3.0250001e+00 4.2000000e+01 
7.5000000e-01 3.0250001e+00 4.2500000e+01 
7.5000000e-01 3.0250001e+00 4.3000000e+01 
7.5000000e-01 3.0250001e+00 4.3500000e+01 
7.5000000e-01 3.0250001e+00 4.4000000e+01 
7.5000000e-01 3.0250001e+00 4.4500000e+01 
7.5000000e-01 3.0250001e+00 4.5000000e+01 
7.5000000e-01 3.0250001e+00 4.5500000e+01 
7.5000000e-01 3.0250001e+00 4.6000000e+01 
7.5000000e-01 3.0250001e+00 4.6500000e+01 
7.5000000e-01 3.0250001e+00 4.7000000e+01 
7.5000000e-01 3.0250001e+00 4.7500000e+01 
7.5000000e-01 3.0250001e+00 4.8000000e+01 
7.5000000e-01 3.0250001e+00 4.8500000e+01 
7.5000000e-01 3.0250001e+00 4.9000000e+01 
7.5000000e-01 3.0250001e+00 4.9500000e+01 
7.5000000e-01 3.0250001e+00 5.0000000e+01 
1.5000000e+00 3.0000000e+00 2.5000000e+01 
3.0000000e+00 2.0000000e+00 2.5000000e+01 
4.0000000e+00 2.0000000e+00 2.5000000e+01 
5.0000000e+00 2.0000000e+00 2.5000000e+01 
0.0000000e+00 3.0000000e+00 2.5000000e+01 
0.0000000e+00 0.0000000e+00 1.0000000e+00 
0.0000000e+00 0.0000000e+00 2.0000000e+00 
0.0000000e+00 0.0000000e+00 3.0000000e+00 
0.0000000e+00 0.0000000e+00 4.0000000e+00 
0.0000000e+00 0.0000000e+00 5.0000000e+00 
[...]
POINT_DATA 1919
FIELD FieldData 3
DISPLACEMENT 3 1919  float
0.0000000e+00 0.0000000e+00 0.0000000e+00 
0.0000000e+00 0.0000000e+00 0.0000000e+00 
0.0000000e+00 0.0000000e+00 0.0000000e+00 
0.0000000e+00 0.0000000e+00 0.0000000e+00 
-2.8404165e-06 1.2571246e-06 2.4471808e-06 
-3.3401648e-08 -5.8878805e-07 2.0401349e-07 
0.0000000e+00 4.4060203e-06 0.0000000e+00 
0.0000000e+00 5.6221506e-07 0.0000000e+00 
-2.1443916e-06 -1.7904827e-07 9.8978160e-07 
-1.9209175e-07 -1.3186599e-06 9.9474858e-07 
-3.0148831e-06 4.5957250e-07 2.3610583e-06 
4.2076459e-07 -1.4558167e-06 -6.2753855e-08 
0.0000000e+00 9.2129249e-06 0.0000000e+00 
0.0000000e+00 3.0565130e-07 0.0000000e+00 
-2.4304742e-07 -3.4710931e-07 5.0668850e-06 
9.4987018e-07 2.2056911e-06 4.6015743e-06 
-5.6031395e-06 -5.7823158e-06 -1.1177067e-06 
-2.0656400e-06 -5.0163494e-06 4.5424446e-07 
0.0000000e+00 4.4522671e-06 0.0000000e+00 
0.0000000e+00 1.3780257e-06 0.0000000e+00 
9.9014608e-07 -4.5480906e-06 -3.7645933e-07 
3.8306002e-06 -1.3681268e-06 3.9517345e-06 
4.4118920e-06 3.0991366e-06 6.5009067e-06 
9.2018136e-06 8.0137415e-06 5.1802508e-06 
1.4490244e-05 1.2095266e-05 1.2865540e-07 
1.6845695e-05 1.4234921e-05 -1.4502352e-06 
2.2189795e-05 1.5991656e-05 1.8460922e-06 
2.1324786e-05 2.0261401e-05 1.1232890e-05 
1.9826213e-05 2.6286109e-05 1.5566966e-05 
2.2134533e-05 3.0541785e-05 1.1408105e-05 
1.9737781e-05 3.0661355e-05 1.0988550e-05 
1.8798804e-05 2.6890946e-05 1.3225010e-05 
1.6802513e-05 2.3988610e-05 1.4947593e-05 
2.1502034e-05 2.8194769e-05 1.9856481e-05 
1.8897035e-05 3.7177699e-05 2.0966418e-05 
2.0219883e-05 4.0147614e-05 1.2108002e-05 
1.9512345e-05 3.0280928e-05 -4.4101844e-07 
1.3945685e-05 1.2258848e-05 -1.0911690e-05 
8.2452334e-06 1.4262008e-06 -2.1894206e-05 
1.4112436e-05 8.8072456e-06 -2.3436536e-05 
9.7490120e-06 2.8187455e-05 -2.8476614e-05 
7.4547561e-06 4.3737578e-05 -4.0814892e-05 
1.3077461e-05 4.4485452e-05 -4.7613306e-05 
1.4852947e-05 3.2946318e-05 -4.2961827e-05 
-9.6550060e-08 3.2969641e-05 -3.4850131e-05 
-2.4290080e-06 6.8508387e-05 -9.9617018e-06 
-6.5387263e-07 1.0657974e-04 2.0386276e-05 
-1.0577361e-05 5.1067418e-05 4.0982755e-05 
-4.2337564e-05 -1.7627070e-04 9.3416988e-05 
-6.6991088e-05 -6.0317648e-04 1.0667439e-04 
-1.0493940e-04 -1.2407054e-03 1.9444164e-04 
-1.3212298e-04 -2.0965729e-03 9.1582035e-05 
-2.3854453e-04 -3.2055494e-03 1.9845413e-04 
-6.1628007e-04 -4.4254540e-03 2.6128491e-04 
-2.9178566e-04 -5.1393257e-03 8.0471837e-05 
-2.2596905e-04 -4.8152399e-03 7.6485812e-05 
-2.0148905e-04 -4.2730449e-03 -2.3444260e-05 
-1.8915303e-04 -4.0902523e-03 -4.5179691e-05 
-1.8581128e-04 -4.2997277e-03 -2.6114376e-05 
-1.9866558e-04 -4.2496440e-03 -8.1469392e-05 
-1.4334558e-04 -3.2537226e-03 -1.9554344e-04 
-1.0781119e-04 -1.9242485e-03 -8.2105878e-05 
-4.3506214e-05 -8.5922150e-04 -1.4721656e-04 
-4.9550517e-06 -2.0298401e-04 -8.2881117e-05 
2.3522338e-05 1.1739662e-04 -5.1775358e-05 
1.7052009e-05 2.2980310e-04 -2.4350782e-05 
1.6366781e-05 2.3484518e-04 -4.7038779e-06 
1.2227636e-05 1.8206317e-04 -3.7559771e-06 
1.3867019e-05 1.1138704e-04 -4.7729509e-06 
1.5530701e-05 5.5927070e-05 -1.4262427e-05 
1.9842671e-05 3.3092820e-05 -1.9271625e-05 
1.8066721e-05 2.8220016e-05 -2.0094407e-05 
1.7063641e-05 2.0803835e-05 -1.7275679e-05 
1.8379318e-05 1.0819921e-05 -1.2646705e-05 
1.5450973e-05 9.5878213e-06 -1.2617004e-05 
2.0054598e-05 1.9543375e-05 -8.1479802e-06 
2.3192768e-05 2.9372843e-05 -4.4796570e-06 
2.1186557e-05 2.4197494e-05 -7.0072529e-06 
1.7739068e-05 8.2084316e-06 -1.0270556e-05 
2.0378360e-05 2.2781876e-06 -1.0301423e-05 
1.0396158e-05 1.8296098e-05 -1.1849493e-05 
1.1295682e-05 4.7440564e-05 -1.0812189e-05 
9.0962994e-06 6.7693538e-05 -9.8988976e-06 
2.9999267e-06 6.2601663e-05 -8.9158402e-06 
-6.5725071e-06 4.3916873e-05 -1.2350051e-05 
-7.2061439e-06 3.7379290e-05 5.1928837e-06 
-2.1528260e-05 4.6409503e-05 3.0394156e-05 
-2.4228371e-05 2.3551185e-05 5.6103010e-05 
-4.1657684e-05 -1.4186137e-04 1.2023334e-04 
-6.6136956e-05 -5.7708536e-04 1.2289869e-04 
-1.0607659e-04 -1.3275220e-03 2.1901626e-04 
-1.5253043e-04 -2.3338154e-03 1.3449747e-04 
-2.1816471e-04 -3.5076879e-03 2.6958375e-04 
-3.3802437e-04 -4.5831450e-03 2.8693768e-05 
-3.9301949e-04 -5.0975489e-03 1.5434714e-05 
-5.7522743e-04 -4.7851605e-03 -7.1676732e-05 
-2.4238497e-04 -4.3407264e-03 7.9555764e-07 
-1.7329854e-04 -4.2707529e-03 -3.1926178e-05 
-1.9806433e-04 -4.4135232e-03 -1.9077661e-05 
-1.9008956e-04 -4.0834062e-03 -7.7454635e-05 
-1.2584672e-04 -2.9573247e-03 -2.1215227e-04 
-8.8329689e-05 -1.6716042e-03 -9.7399556e-05 
-3.7000234e-05 -7.0937618e-04 -1.5741467e-04 
-2.4903489e-05 -1.3437803e-04 -7.1795432e-05 
-4.6570208e-06 1.4319859e-04 -6.3447747e-05 
-1.7441324e-06 2.2795289e-04 -3.5375931e-05 
4.2656097e-08 2.0233153e-04 -2.3067694e-05 
-4.0377963e-06 1.3260683e-04 -2.1117821e-05 
-5.0462936e-06 7.1139446e-05 -1.3180948e-05 
-2.0975071e-06 3.5855766e-05 -1.5638523e-05 
-2.7922247e-06 1.8922163e-05 -1.6447793e-05 
-1.9000217e-06 7.4142986e-06 -1.9123534e-05 
6.3524550e-07 -3.3383287e-06 -1.6740411e-05 
2.4818889e-06 -9.7298553e-06 -1.4159834e-05 
2.6487644e-06 -9.9350900e-06 -1.2467267e-05 
3.4085083e-06 -7.1172385e-06 -1.0420764e-05 
6.5892327e-06 -5.3173558e-06 -2.8368474e-06 
3.9492570e-06 -5.0688836e-06 4.7289186e-06 
3.1152470e-06 -5.0907493e-06 6.5048462e-06 
0.0000000e+00 -5.7719435e-06 0.0000000e+00 
0.0000000e+00 -4.5637721e-06 0.0000000e+00 
0.0000000e+00 -1.3619799e-06 0.0000000e+00 
0.0000000e+00 3.1501825e-06 0.0000000e+00 
0.0000000e+00 8.0473728e-06 0.0000000e+00 
0.0000000e+00 1.1993297e-05 0.0000000e+00 
0.0000000e+00 1.4151555e-05 0.0000000e+00 
0.0000000e+00 1.6117385e-05 0.0000000e+00 
0.0000000e+00 2.0398589e-05 0.0000000e+00 
0.0000000e+00 2.6325259e-05 0.0000000e+00 
0.0000000e+00 3.0504691e-05 0.0000000e+00 
0.0000000e+00 3.0490583e-05 0.0000000e+00 
0.0000000e+00 2.6778318e-05 0.0000000e+00 
0.0000000e+00 2.4256373e-05 0.0000000e+00 
0.0000000e+00 2.8561652e-05 0.0000000e+00 
0.0000000e+00 3.7215163e-05 0.0000000e+00 
0.0000000e+00 3.9853330e-05 0.0000000e+00 
0.0000000e+00 2.9789073e-05 0.0000000e+00 
0.0000000e+00 1.2234070e-05 0.0000000e+00 
0.0000000e+00 1.9872480e-06 0.0000000e+00 
0.0000000e+00 9.2582886e-06 0.0000000e+00 
0.0000000e+00 2.8293254e-05 0.0000000e+00 
0.0000000e+00 4.3480639e-05 0.0000000e+00 
0.0000000e+00 4.3559805e-05 0.0000000e+00 
0.0000000e+00 3.2463206e-05 0.0000000e+00 
0.0000000e+00 3.4690354e-05 0.0000000e+00 
0.0000000e+00 7.1128932e-05 0.0000000e+00 
0.0000000e+00 1.0688781e-04 0.0000000e+00 
0.0000000e+00 4.9813993e-05 0.0000000e+00 
0.0000000e+00 -1.7759104e-04 0.0000000e+00 
0.0000000e+00 -6.0448813e-04 0.0000000e+00 
0.0000000e+00 -1.2396490e-03 0.0000000e+00 
0.0000000e+00 -2.1024372e-03 0.0000000e+00 
0.0000000e+00 -3.2232464e-03 0.0000000e+00 
0.0000000e+00 -4.4452883e-03 0.0000000e+00 
0.0000000e+00 -5.1701837e-03 0.0000000e+00 
0.0000000e+00 -4.8449016e-03 0.0000000e+00 
0.0000000e+00 -4.2918026e-03 0.0000000e+00 
0.0000000e+00 -4.1147578e-03 0.0000000e+00 
0.0000000e+00 -4.3228455e-03 0.0000000e+00 
0.0000000e+00 -4.2795260e-03 0.0000000e+00 
0.0000000e+00 -3.2735011e-03 0.0000000e+00 
0.0000000e+00 -1.9404502e-03 0.0000000e+00 
0.0000000e+00 -8.6587365e-04 0.0000000e+00 
0.0000000e+00 -2.0370581e-04 0.0000000e+00 
0.0000000e+00 1.1877996e-04 0.0000000e+00 
0.0000000e+00 2.3135520e-04 0.0000000e+00 
0.0000000e+00 2.3498123e-04 0.0000000e+00 
0.0000000e+00 1.8255861e-04 0.0000000e+00 
0.0000000e+00 1.1223742e-04 0.0000000e+00 
0.0000000e+00 5.7102163e-05 0.0000000e+00 
0.0000000e+00 3.3109518e-05 0.0000000e+00 
0.0000000e+00 2.7329592e-05 0.0000000e+00 
0.0000000e+00 2.0447495e-05 0.0000000e+00 
0.0000000e+00 1.1260971e-05 0.0000000e+00 
0.0000000e+00 1.0122042e-05 0.0000000e+00 
0.0000000e+00 1.9705818e-05 0.0000000e+00 
0.0000000e+00 2.8811519e-05 0.0000000e+00 
0.0000000e+00 2.3650911e-05 0.0000000e+00 
0.0000000e+00 8.2807055e-06 0.0000000e+00 
0.0000000e+00 2.7913841e-06 0.0000000e+00 
0.0000000e+00 1.8984167e-05 0.0000000e+00 
0.0000000e+00 4.7629179e-05 0.0000000e+00 
0.0000000e+00 6.6844994e-05 0.0000000e+00 
0.0000000e+00 6.1992643e-05 0.0000000e+00 
0.0000000e+00 4.4132514e-05 0.0000000e+00 
0.0000000e+00 3.8611499e-05 0.0000000e+00 
0.0000000e+00 4.9226790e-05 0.0000000e+00 
0.0000000e+00 2.5471734e-05 0.0000000e+00 
0.0000000e+00 -1.4433297e-04 0.0000000e+00 
0.0000000e+00 -5.8162661e-04 0.0000000e+00 
0.0000000e+00 -1.3298005e-03 0.0000000e+00 
0.0000000e+00 -2.3409927e-03 0.0000000e+00 
0.0000000e+00 -3.5192147e-03 0.0000000e+00 
0.0000000e+00 -4.6128272e-03 0.0000000e+00 
0.0000000e+00 -5.1287245e-03 0.0000000e+00 
0.0000000e+00 -4.8065688e-03 0.0000000e+00 
0.0000000e+00 -4.3649031e-03 0.0000000e+00 
0.0000000e+00 -4.2945724e-03 0.0000000e+00 
0.0000000e+00 -4.4354759e-03 0.0000000e+00 
0.0000000e+00 -4.1133943e-03 0.0000000e+00 
0.0000000e+00 -2.9770967e-03 0.0000000e+00 
0.0000000e+00 -1.6853624e-03 0.0000000e+00 
0.0000000e+00 -7.1358791e-04 0.0000000e+00 
0.0000000e+00 -1.3444337e-04 0.0000000e+00 
0.0000000e+00 1.4387268e-04 0.0000000e+00 
0.0000000e+00 2.2859681e-04 0.0000000e+00 
0.0000000e+00 2.0313596e-04 0.0000000e+00 
0.0000000e+00 1.3408129e-04 0.0000000e+00 
0.0000000e+00 7.1929266e-05 0.0000000e+00 
0.0000000e+00 3.5725789e-05 0.0000000e+00 
0.0000000e+00 1.8552759e-05 0.0000000e+00 
0.0000000e+00 7.3140322e-06 0.0000000e+00 
0.0000000e+00 -3.1190291e-06 0.0000000e+00 
0.0000000e+00 -9.6298372e-06 0.0000000e+00 
0.0000000e+00 -1.0065755e-05 0.0000000e+00 
0.0000000e+00 -7.2796333e-06 0.0000000e+00 
0.0000000e+00 -5.2664468e-06 0.0000000e+00 
0.0000000e+00 -4.9146965e-06 0.0000000e+00 
0.0000000e+00 -5.0847439e-06 0.0000000e+00 
0.0000000e+00 -5.1329098e-06 0.0000000e+00 
3.1076066e-05 3.3375214e-05 -1.4244828e-05 
-5.3051153e-06 1.2565023e-06 5.0245403e-06 
-4.7291119e-06 -1.4478750e-06 3.2939483e-06 
-2.8286383e-06 1.9566985e-06 3.4557970e-06 
0.0000000e+00 1.6505970e-05 0.0000000e+00 
0.0000000e+00 0.0000000e+00 0.0000000e+00 
0.0000000e+00 0.0000000e+00 0.0000000e+00 
0.0000000e+00 0.0000000e+00 0.0000000e+00 
0.0000000e+00 0.0000000e+00 0.0000000e+00 
0.0000000e+00 0.0000000e+00 0.0000000e+00 
0.0000000e+00 0.0000000e+00 0.0000000e+00 
0.0000000e+00 0.0000000e+00 0.0000000e+00 
0.0000000e+00 0.0000000e+00 0.0000000e+00 
0.0000000e+00 0.0000000e+00 0.0000000e+00 
0.0000000e+00 0.0000000e+00 0.0000000e+00 
0.0000000e+00 0.0000000e+00 0.0000000e+00 
0.0000000e+00 0.0000000e+00 0.0000000e+00 
0.0000000e+00 0.0000000e+00 0.0000000e+00 
0.0000000e+00 0.0000000e+00 0.0000000e+00 
0.0000000e+00 0.0000000e+00 0.0000000e+00 
0.0000000e+00 0.0000000e+00 0.0000000e+00 
0.0000000e+00 0.0000000e+00 0.0000000e+00 
0.0000000e+00 0.0000000e+00 0.0000000e+00 
0.0000000e+00 0.0000000e+00 0.0000000e+00 
0.0000000e+00 0.0000000e+00 0.0000000e+00 
0.0000000e+00 0.0000000e+00 0.0000000e+00 
0.0000000e+00 0.0000000e+00 0.0000000e+00 
0.0000000e+00 0.0000000e+00 0.0000000e+00 
0.0000000e+00 0.0000000e+00 0.0000000e+00 
0.0000000e+00 0.0000000e+00 0.0000000e+00 
0.0000000e+00 0.0000000e+00 0.0000000e+00 
0.0000000e+00 0.0000000e+00 0.0000000e+00 
0.0000000e+00 0.0000000e+00 0.0000000e+00 
0.0000000e+00 0.0000000e+00 0.0000000e+00 
0.0000000e+00 0.0000000e+00 0.0000000e+00 
0.0000000e+00 0.0000000e+00 0.0000000e+00 
0.0000000e+00 0.0000000e+00 0.0000000e+00 
0.0000000e+00 0.0000000e+00 0.0000000e+00 
0.0000000e+00 0.0000000e+00 0.0000000e+00 
0.0000000e+00 0.0000000e+00 0.0000000e+00 
0.0000000e+00 0.0000000e+00 0.0000000e+00 
0.0000000e+00 0.0000000e+00 0.0000000e+00 
0.0000000e+00 0.0000000e+00 0.0000000e+00 
0.0000000e+00 0.0000000e+00 0.0000000e+00 
0.0000000e+00 0.0000000e+00 0.0000000e+00 
0.0000000e+00 0.0000000e+00 0.0000000e+00 
0.0000000e+00 0.0000000e+00 0.0000000e+00 
0.0000000e+00 0.0000000e+00 0.0000000e+00 
0.0000000e+00 0.0000000e+00 0.0000000e+00 
0.0000000e+00 0.0000000e+00 0.0000000e+00 
0.0000000e+00 0.0000000e+00 0.0000000e+00 
0.0000000e+00 0.0000000e+00 0.0000000e+00 
0.0000000e+00 0.0000000e+00 0.0000000e+00 
0.0000000e+00 0.0000000e+00 0.0000000e+00 
0.0000000e+00 0.0000000e+00 0.0000000e+00 
0.0000000e+00 0.0000000e+00 0.0000000e+00 
0.0000000e+00 0.0000000e+00 0.0000000e+00 
0.0000000e+00 0.0000000e+00 0.0000000e+00 
0.0000000e+00 0.0000000e+00 0.0000000e+00 
0.0000000e+00 0.0000000e+00 0.0000000e+00 
0.0000000e+00 0.0000000e+00 0.0000000e+00 
0.0000000e+00 0.0000000e+00 0.0000000e+00 
0.0000000e+00 0.0000000e+00 0.0000000e+00 
0.0000000e+00 0.0000000e+00 0.0000000e+00 
0.0000000e+00 0.0000000e+00 0.0000000e+00 
0.0000000e+00 0.0000000e+00 0.0000000e+00 
0.0000000e+00 0.0000000e+00 0.0000000e+00 
0.0000000e+00 0.0000000e+00 0.0000000e+00 
0.0000000e+00 0.0000000e+00 0.0000000e+00 
0.0000000e+00 0.0000000e+00 0.0000000e+00 
0.0000000e+00 0.0000000e+00 0.0000000e+00 
0.0000000e+00 0.0000000e+00 0.0000000e+00 
0.0000000e+00 0.0000000e+00 0.0000000e+00 
0.0000000e+00 0.0000000e+00 0.0000000e+00 
0.0000000e+00 0.0000000e+00 0.0000000e+00 
0.0000000e+00 0.0000000e+00 0.0000000e+00 
0.0000000e+00 0.0000000e+00 0.0000000e+00 
0.0000000e+00 0.0000000e+00 0.0000000e+00 
0.0000000e+00 0.0000000e+00 0.0000000e+00 
0.0000000e+00 0.0000000e+00 0.0000000e+00 
0.0000000e+00 0.0000000e+00 0.0000000e+00 
0.0000000e+00 0.0000000e+00 0.0000000e+00 
0.0000000e+00 0.0000000e+00 0.0000000e+00 
0.0000000e+00 0.0000000e+00 0.0000000e+00 
0.0000000e+00 0.0000000e+00 0.0000000e+00 
0.0000000e+00 0.0000000e+00 0.0000000e+00 
0.0000000e+00 0.0000000e+00 0.0000000e+00 
0.0000000e+00 0.0000000e+00 0.0000000e+00 
0.0000000e+00 0.0000000e+00 0.0000000e+00 
0.0000000e+00 0.0000000e+00 0.0000000e+00 
0.0000000e+00 0.0000000e+00 0.0000000e+00 
0.0000000e+00 0.0000000e+00 0.0000000e+00 
0.0000000e+00 0.0000000e+00 0.0000000e+00 
0.0000000e+00 0.0000000e+00 0.0000000e+00 
0.0000000e+00 0.0000000e+00 0.0000000e+00 
0.0000000e+00 0.0000000e+00 0.0000000e+00 
0.0000000e+00 0.0000000e+00 0.0000000e+00 
0.0000000e+00 0.0000000e+00 0.0000000e+00 
0.0000000e+00 0.0000000e+00 0.0000000e+00 
0.0000000e+00 0.0000000e+00 0.0000000e+00 
0.0000000e+00 0.0000000e+00 0.0000000e+00 
0.0000000e+00 0.0000000e+00 0.0000000e+00 
0.0000000e+00 0.0000000e+00 0.0000000e+00 
0.0000000e+00 0.0000000e+00 0.0000000e+00 
0.0000000e+00 0.0000000e+00 0.0000000e+00 
0.0000000e+00 0.0000000e+00 0.0000000e+00 
0.0000000e+00 0.0000000e+00 0.0000000e+00 
0.0000000e+00 0.0000000e+00 0.0000000e+00 
0.0000000e+00 0.0000000e+00 0.0000000e+00 
0.0000000e+00 0.0000000e+00 0.0000000e+00 
0.0000000e+00 0.0000000e+00 0.0000000e+00 
-1.3925966e-06 1.8496980e-06 1.7299408e-06 
-2.0182813e-06 2.4117630e-06 8.4035207e-07 
-1.0925957e-06 1.9022472e-06 3.3301005e-06 
-1.2570515e-06 3.2841181e-06 2.6136981e-06 
-1.7885711e-06 2.2470917e-06 1.4921796e-06 
-3.3282033e-06 3.8962012e-06 1.9611871e-06 
-1.2835437e-06 3.7273367e-06 -9.6295298e-07 
8.7068891e-08 -1.8797383e-06 -1.0105405e-06 
-1.8521707e-06 3.8029671e-06 2.3580941e-07 
-2.9568125e-07 7.0414228e-07 -7.5759981e-06 
1.8921949e-06 -8.9830528e-06 -1.0440745e-05 
1.0443799e-06 8.2384358e-06 -9.9373301e-06 
7.9040974e-06 -2.3504713e-06 -1.7885037e-05 
1.3309992e-05 -1.0944847e-05 -2.0086694e-05 
2.5330082e-05 -9.8121318e-06 -1.8343497e-05 
3.5348450e-05 -1.0220171e-05 -1.2463741e-05 
4.1161809e-05 -1.2541156e-05 -5.9667154e-06 
4.6143672e-05 -1.0209083e-05 4.9951427e-06 
4.0188224e-05 -1.3178550e-05 1.1800940e-05 
3.1381715e-05 -9.2349874e-06 2.2569597e-05 
2.3410457e-05 -8.6512591e-06 2.2035718e-05 
1.3099584e-05 -3.9769070e-06 1.5873315e-05 
5.1249776e-06 -2.7677135e-07 1.3274456e-05 
1.5946295e-06 -2.3392445e-06 5.4280222e-06 
-1.8945110e-07 1.9747245e-06 -5.2720779e-08 
-8.7510659e-07 4.9240339e-07 2.4173030e-06 
-3.2301646e-06 7.6698543e-06 -8.3871811e-07 
-2.8421739e-06 1.6772130e-06 -4.4348953e-06 
-4.7485128e-06 -1.7158022e-06 9.2375109e-07 
3.5582346e-07 5.8825135e-06 -5.7795432e-06 
-1.8803642e-06 1.2095422e-06 -5.9489344e-06 
-1.1754678e-07 -3.5380660e-06 -9.2918335e-06 
1.0687955e-05 3.5808100e-06 -1.0388054e-05 
1.2171040e-05 -1.5448899e-05 -1.5132904e-05 
2.3828874e-05 -4.0194118e-06 -1.9524647e-05 
4.1129264e-05 -6.4826354e-06 -1.3971702e-05 
4.4674314e-05 -1.3871575e-05 -7.3542983e-06 
4.5986602e-05 -1.3345100e-05 5.6622443e-06 
4.0661158e-05 -1.2015082e-05 1.2823346e-05 
3.2124706e-05 -1.0249891e-05 1.8519606e-05 
2.3010243e-05 -8.5555203e-06 1.9931782e-05 
1.2660674e-05 -5.8323521e-06 1.6817668e-05 
6.6789203e-06 -3.9304414e-06 1.0858296e-05 
2.9495061e-06 -1.3732136e-06 5.0707608e-06 
1.1260081e-06 3.8727495e-07 6.2907344e-07 
7.8984911e-08 1.2081417e-06 -1.3106290e-06 
-8.1268007e-07 1.6428149e-06 -2.4578897e-06 
-6.9915887e-07 5.1146270e-07 -2.1206135e-06 
-3.0495070e-07 -1.1032550e-07 -1.3487486e-06 
0.0000000e+00 -1.9874365e-08 0.0000000e+00 
0.0000000e+00 -9.2231430e-06 0.0000000e+00 
0.0000000e+00 -1.5976295e-05 0.0000000e+00 
0.0000000e+00 -2.0857933e-05 0.0000000e+00 
0.0000000e+00 -2.7460666e-05 0.0000000e+00 
0.0000000e+00 -3.0702326e-05 0.0000000e+00 
0.0000000e+00 -1.8764771e-05 0.0000000e+00 
0.0000000e+00 -2.4372086e-05 0.0000000e+00 
0.0000000e+00 -1.6555785e-05 0.0000000e+00 
0.0000000e+00 -5.7020766e-06 0.0000000e+00 
0.0000000e+00 -1.1495134e-05 0.0000000e+00 
0.0000000e+00 -1.5758364e-05 0.0000000e+00 
0.0000000e+00 3.9816903e-05 0.0000000e+00 
0.0000000e+00 -3.9246643e-05 0.0000000e+00 
0.0000000e+00 -1.1200271e-04 0.0000000e+00 
0.0000000e+00 -2.3725473e-04 0.0000000e+00 
0.0000000e+00 -4.6642276e-04 0.0000000e+00 
0.0000000e+00 -5.1176449e-04 0.0000000e+00 
0.0000000e+00 -4.8241997e-04 0.0000000e+00 
0.0000000e+00 -4.2060221e-04 0.0000000e+00 
0.0000000e+00 -2.3028327e-04 0.0000000e+00 
0.0000000e+00 -9.2827140e-05 0.0000000e+00 
0.0000000e+00 -1.5126452e-05 0.0000000e+00 
0.0000000e+00 8.6139340e-07 0.0000000e+00 
0.0000000e+00 -1.0892606e-05 0.0000000e+00 
0.0000000e+00 -2.4635301e-05 0.0000000e+00 
0.0000000e+00 -1.6298074e-05 0.0000000e+00 
0.0000000e+00 -2.7081562e-05 0.0000000e+00 
0.0000000e+00 -2.9931103e-05 0.0000000e+00 
0.0000000e+00 -1.0253682e-05 0.0000000e+00 
0.0000000e+00 -1.3360452e-05 0.0000000e+00 
0.0000000e+00 -1.1285792e-05 0.0000000e+00 
0.0000000e+00 2.1703669e-05 0.0000000e+00 
0.0000000e+00 -3.7360107e-05 0.0000000e+00 
0.0000000e+00 -1.4017765e-04 0.0000000e+00 
0.0000000e+00 -3.1348469e-04 0.0000000e+00 
0.0000000e+00 -4.4114355e-04 0.0000000e+00 
0.0000000e+00 -5.1679043e-04 0.0000000e+00 
0.0000000e+00 -4.8538670e-04 0.0000000e+00 
0.0000000e+00 -3.8741724e-04 0.0000000e+00 
0.0000000e+00 -2.1847751e-04 0.0000000e+00 
0.0000000e+00 -6.0589729e-05 0.0000000e+00 
0.0000000e+00 6.6229941e-06 0.0000000e+00 
0.0000000e+00 1.6464071e-05 0.0000000e+00 
0.0000000e+00 9.1139345e-06 0.0000000e+00 
0.0000000e+00 3.1183995e-06 0.0000000e+00 
0.0000000e+00 -1.0740878e-06 0.0000000e+00 
0.0000000e+00 -2.3514403e-07 0.0000000e+00 
0.0000000e+00 -1.9113502e-07 0.0000000e+00 
-1.0158265e-06 9.2674173e-07 1.4415550e-06 
-1.2816614e-06 2.9480759e-07 -8.3092495e-08 
-1.4554003e-06 2.3008217e-06 -8.9053941e-07 
-1.8467489e-06 2.7755643e-06 -2.3874728e-07 
1.6466763e-07 -7.0265736e-07 -8.0308627e-07 
-1.2146985e-07 -3.4593504e-07 -9.8478506e-07 
4.7257706e-07 -9.9306945e-08 -3.8835452e-07 
2.7991996e-07 5.6498521e-07 -4.7834294e-07 
-3.0021340e-06 2.1019850e-06 3.0436518e-06 
2.1103681e-07 -1.5573005e-06 -2.1856800e-07 
-1.0100279e-06 2.1350288e-06 2.3656330e-06 
-1.7687720e-06 2.9367029e-06 6.4886325e-07 
0.0000000e+00 -2.9824291e-06 0.0000000e+00 
0.0000000e+00 -1.3777545e-05 0.0000000e+00 
0.0000000e+00 -1.8510609e-05 0.0000000e+00 
0.0000000e+00 -3.3187796e-05 0.0000000e+00 
0.0000000e+00 -4.3471347e-05 0.0000000e+00 
0.0000000e+00 -3.4033117e-05 0.0000000e+00 
0.0000000e+00 -3.1956952e-05 0.0000000e+00 
0.0000000e+00 -3.5081983e-05 0.0000000e+00 
0.0000000e+00 -2.2021111e-05 0.0000000e+00 
0.0000000e+00 -9.8651453e-06 0.0000000e+00 
0.0000000e+00 -1.4844585e-05 0.0000000e+00 
0.0000000e+00 -1.1376617e-05 0.0000000e+00 
0.0000000e+00 4.1025327e-05 0.0000000e+00 
0.0000000e+00 -1.0955368e-04 0.0000000e+00 