# vtk DataFile Version 4.0
vtk output
ASCII
DATASET UNSTRUCTURED_GRID
POINTS 1919 float
0.0000000e+00 0.0000000e+00 0.0000000e+00 
0.0000000e+00 0.0000000e+00 5.0000000e+01 
5.0000000e+00 0.0000000e+00 0.0000000e+00 
5.0000000e+00 0.0000000e+00 5.0000000e+01 
5.0000000e+00 1.0000000e+00 0.0000000e+00 
5.0000000e+00 1.0000000e+00 5.0000000e+01 
0.0000000e+00 1.0000000e+00 0.0000000e+00 
0.0000000e+00 1.0000000e+00 5.0000000e+01 
5.0000000e+00 2.0000000e+00 0.0000000e+00 
5.0000000e+00 2.0000000e+00 5.0000000e+01 
3.0000000e+00 2.0000000e+00 0.0000000e+00 
3.0000000e+00 2.0000000e+00 5.0000000e+01 
0.0000000e+00 2.0000000e+00 0.0000000e+00 
0.0000000e+00 2.0000000e+00 5.0000000e+01 
1.5000000e+00 3.0000000e+00 0.0000000e+00 
1.5000000e+00 3.0000000e+00 5.0000000e+01 
7.5000000e-01 3.0000000e+00 0.0000000e+00 
7.5000000e-01 3.0000000e+00 5.0000000e+01 
0.0000000e+00 3.0000000e+00 0.0000000e+00 
0.0000000e+00 3.0000000e+00 5.0000000e+01 
7.5000000e-01 3.0000000e+00 5.0000000e-01 
7.5000000e-01 3.0000000e+00 1.0000000e+00 
7.5000000e-01 3.0000000e+00 1.5000000e+00 
7.5000000e-01 3.0000000e+00 2.0000000e+00 
7.5000000e-01 3.0000000e+00 2.5000000e+00 
7.5000000e-01 3.0000000e+00 3.0000000e+00 
7.5000000e-01 3.0000000e+00 3.5000000e+00 
7.5000000e-01 3.0000000e+00 4.0000000e+00 
7.5000000e-01 3.0000000e+00 4.5000000e+00 
7.5000000e-01 3.0000000e+00 5.0000000e+00 
7.5000000e-01 3.0000000e+00 5.5000000e+00 
7.5000000e-01 3.0000000e+00 6.0000000e+00 
7.5000000e-01 3.0000000e+00 6.5000000e+00 
7.5000000e-01 3.0000000e+00 7.0000000e+00 
7.5000000e-01 3.0000000e+00 7.5000000e+00 
7.5000000e-01 3.0000000e+00 8.0000000e+00 
7.5000000e-01 3.0000000e+00 8.5000000e+00 
7.5000000e-01 3.0000000e+00 9.0000000e+00 
7.5000000e-01 3.0000000e+00 9.5000000e+00 
7.5000000e-01 3.0000000e+00 1.0000000e+01 
7.5000000e-01 3.0000000e+00 1.0500000e+01 
7.5000000e-01 3.0000000e+00 1.1000000e+01 
7.5000000e-01 3.0000000e+00 1.1500000e+01 
7.5000000e-01 3.0000000e+00 1.2000000e+01 
7.5000000e-01 3.0000000e+00 1.2500000e+01 
7.5000000e-01 3.0000000e+00 1.3000000e+01 
7.5000000e-01 3.0000000e+00 1.3500000e+01 
7.5000000e-01 3.0000000e+00 1.4000000e+01 
7.5000000e-01 3.0000000e+00 1.4500000e+01 
7.5000000e-01 3.0000000e+00 1.5000000e+01 
7.5000000e-01 3.0000000e+00 1.5500000e+01 
7.5000000e-01 3.0000000e+00 1.6000000e+01 
7.5000000e-01 3.0000000e+00 1.6500000e+01 
7.5000000e-01 3.0000000e+00 1.7000000e+01 
7.5000000e-01 3.0000000e+00 1.7500000e+01 
7.5000000e-01 3.0000000e+00 1.8000000e+01 
7.5000000e-01 3.0000000e+00 1.8500000e+01 
7.5000000e-01 3.0000000e+00 1.9000000e+01 
7.5000000e-01 3.0000000e+00 1.9500000e+01 
7.5000000e-01 3.0000000e+00 2.0000000e+01 
7.5000000e-01 3.0000000e+00 2.0500000e+01 
7.5000000e-01 3.0000000e+00 2.1000000e+01 
7.5000000e-01 3.0000000e+00 2.1500000e+01 
7.5000000e-01 3.0000000e+00 2.2000000e+01 
7.5000000e-01 3.0000000e+00 2.2500000e+01 
7.5000000e-01 3.0000000e+00 2.3000000e+01 
7.5000000e-01 3.0000000e+00 2.3500000e+01 
7.5000000e-01 3.0000000e+00 2.4000000e+01 
7.5000000e-01 3.0000000e+00 2.4500000e+01 
7.5000000e-01 3.0000000e+00 2.5000000e+01 
7.5000000e-01 3.0000000e+00 2.5500000e+01 
7.5000000e-01 3.0000000e+00 2.6000000e+01 
7.5000000e-01 3.0000000e+00 2.6500000e+01 
7.5000000e-01 3.0000000e+00 2.7000000e+01 
7.5000000e-01 3.0000000e+00 2.7500000e+01 
7.5000000e-01 3.0000000e+00 2.8000000e+01 
7.5000000e-01 3.0000000e+00 2.8500000e+01 
7.5000000e-01 3.0000000e+00 2.9000000e+01 
7.5000000e-01 3.0000000e+00 2.9500000e+01 
7.5000000e-01 3.0000000e+00 3.0000000e+01 
7.5000000e-01 3.0000000e+00 3.0500000e+01 
7.5000000e-01 3.0000000e+00 3.1000000e+01 
7.5000000e-01 3.0000000e+00 3.1500000e+01 
7.5000000e-01 3.0000000e+00 3.2000000e+01 
7.5000000e-01 3.0000000e+00 3.2500000e+01 
7.5000000e-01 3.0000000e+00 3.3000000e+01 
7.5000000e-01 3.0000000e+00 3.3500000e+01 
7.5000000e-01 3.0000000e+00 3.4000000e+01 
7.5000000e-01 3.0000000e+00 3.4500000e+01 
7.5000000e-01 3.0000000e+00 3.5000000e+01 
7.5000000e-01 3.0000000e+00 3.5500000e+01 
7.5000000e-01 3.0000000e+00 3.6000000e+01 
7.5000000e-01 3.0000000e+00 3.6500000e+01 
7.5000000e-01 3.0000000e+00 3.7000000e+01 
7.5000000e-01 3.0000000e+00 3.7500000e+01 
7.5000000e-01 3.0000000e+00 3.8000000e+01 
7.5000000e-01 3.0000000e+00 3.8500000e+01 
7.5000000e-01 3.0000000e+00 3.9000000e+01 
7.5000000e-01 3.0000000e+00 3.9500000e+01 
7.5000000e-01 3.0000000e+00 4.0000000e+01 
7.5000000e-01 3.0000000e+00 4.0500000e+01 
7.5000000e-01 3.0000000e+00 4.1000000e+01 
7.5000000e-01 3.0000000e+00 4.1500000e+01 
7.5000000e-01 3.0000000e+00 4.2000000e+01 
7.5000000e-01 3.0000000e+00 4.2500000e+01 
7.5000000e-01 3.0000000e+00 4.3000000e+01 
7.5000000e-01 3.0000000e+00 4.3500000e+01 
7.5000000e-01 3.0000000e+00 4.4000000e+01 
7.5000000e-01 3.0000000e+00 4.4500000e+01 
7.5000000e-01 3.0000000e+00 4.5000000e+01 
7.5000000e-01 3.0000000e+00 4.5500000e+01 
7.5000000e-01 3.0000000e+00 4.6000000e+01 
7.5000000e-01 3.0000000e+00 4.6500000e+01 
7.5000000e-01 3.0000000e+00 4.7000000e+01 
7.5000000e-01 3.0000000e+00 4.7500000e+01 
7.5000000e-01 3.0000000e+00 4.8000000e+01 
7.5000000e-01 3.0000000e+00 4.8500000e+01 
7.5000000e-01 3.0000000e+00 4.9000000e+01 
7.5000000e-01 3.0000000e+00 4.9500000e+01 
7.5000000e-01 3.0250001e+00 0.0000000e+00 
7.5000000e-01 3.0250001e+00 5.0000000e-01 
7.5000000e-01 3.0250001e+00 1.0000000e+00 
7.5000000e-01 3.0250001e+00 1.5000000e+00 
7.5000000e-01 3.0250001e+00 2.0000000e+00 
7.5000000e-01 3.0250001e+00 2.5000000e+00 
7.5000000e-01 3.0250001e+00 3.0000000e+00 
7.5000000e-01 3.0250001e+00 3.5000000e+00 
7.5000000e-01 3.0250001e+00 4.0000000e+00 
7.5000000e-01 3.0250001e+00 4.5000000e+00 
7.5000000e-01 3.0250001e+00 5.0000000e+00 
7.5000000e-01 3.0250001e+00 5.5000000e+00 
7.5000000e-01 3.0250001e+00 6.0000000e+00 
7.5000000e-01 3.0250001e+00 6.5000000e+00 
7.5000000e-01 3.0250001e+00 7.0000000e+00 
7.5000000e-01 3.0250001e+00 7.5000000e+00 
7.5000000e-01 3.0250001e+00 8.0000000e+00 
7.5000000e-01 3.0250001e+00 8.5000000e+00 
7.5000000e-01 3.0250001e+00 9.0000000e+00 
7.5000000e-01 3.0250001e+00 9.5000000e+00 
7.5000000e-01 3.0250001e+00 1.0000000e+01 
7.5000000e-01 3.0250001e+00 1.0500000e+01 
7.5000000e-01 3.0250001e+00 1.1000000e+01 
7.5000000e-01 3.0250001e+00 1.1500000e+01 
7.5000000e-01 3.0250001e+00 1.2000000e+01 
7.5000000e-01 3.0250001e+00 1.2500000e+01 
7.5000000e-01 3.0250001e+00 1.3000000e+01 
7.5000000e-01 3.0250001e+00 1.3500000e+01 
7.5000000e-01 3.0250001e+00 1.4000000e+01 
7.5000000e-01 3.0250001e+00 1.4500000e+01 
7.5000000e-01 3.0250001e+00 1.5000000e+01 
7.5000000e-01 3.0250001e+00 1.5500000e+01 
7.5000000e-01 3.0250001e+00 1.6000000e+01 
7.5000000e-01 3.0250001e+00 1.6500000e+01 
7.5000000e-01 3.0250001e+00 1.7000000e+01 
7.5000000e-01 3.0250001e+00 1.7500000e+01 
7.5000000e-01 3.0250001e+00 1.8000000e+01 
7.5000000e-01 3.0250001e+00 1.8500000e+01 
7.5000000e-01 3.0250001e+00 1.9000000e+01 
7.5000000e-01 3.0250001e+00 1.9500000e+01 
7.5000000e-01 3.0250001e+00 2.0000000e+01 
7.5000000e-01 3.0250001e+00 2.0500000e+01 
7.5000000e-01 3.0250001e+00 2.1000000e+01 
7.5000000e-01 3.0250001e+00 2.1500000e+01 
7.5000000e-01 3.0250001e+00 2.2000000e+01 
7.5000000e-01 3.0250001e+00 2.2500000e+01 
7.5000000e-01 3.0250001e+00 2.3000000e+01 
7.5000000e-01 3.0250001e+00 2.3500000e+01 
7.5000000e-01 3.0250001e+00 2.4000000e+01 
7.5000000e-01 3.0250001e+00 2.4500000e+01 
7.5000000e-01 3.0250001e+00 2.5000000e+01 
7.5000000e-01 3.0250001e+00 2.5500000e+01 
7.5000000e-01 3.0250001e+00 2.6000000e+01 
7.5000000e-01 3.0250001e+00 2.6500000e+01 
7.5000000e-01 3.0250001e+00 2.7000000e+01 
7.5000000e-01 3.0250001e+00 2.7500000e+01 
7.5000000e-01 3.0250001e+00 2.8000000e+01 
7.5000000e-01 3.0250001e+00 2.8500000e+01 
7.5000000e-01 3.0250001e+00 2.9000000e+01 
7.5000000e-01 3.0250001e+00 2.9500000e+01 
7.5000000e-01 3.0250001e+00 3.0000000e+01 
7.5000000e-01 3.0250001e+00 3.0500000e+01 
7.5000000e-01 3.0250001e+00 3.1000000e+01 
7.5000000e-01 3.0250001e+00 3.1500000e+01 
7.5000000e-01 3.0250001e+00 3.2000000e+01 
7.5000000e-01 3.0250001e+00 3.2500000e+01 
7.5000000e-01 3.0250001e+00 3.3000000e+01 
7.5000000e-01 3.0250001e+00 3.3500000e+01 
7.5000000e-01 3.0250001e+00 3.4000000e+01 
7.5000000e-01 3.0250001e+00 3.4500000e+01 
7.5000000e-01 3.0250001e+00 3.5000000e+01 
7.5000000e-01 3.0250001e+00 3.5500000e+01 
7.5000000e-01 3.0250001e+00 3.6000000e+01 
7.5000000e-01 3.0250001e+00 3.6500000e+01 
7.5000000e-01 3.0250001e+00 3.7000000e+01 
7.5000000e-01 3.0250001e+00 3.7500000e+01 
7.5000000e-01 3.0250001e+00 3.8000000e+01 
7.5000000e-01 3.0250001e+00 3.8500000e+01 
7.5000000e-01 3.0250001e+00 3.9000000e+01 
7.5000000e-01 3.0250001e+00 3.9500000e+01 
7.5000000e-01 3.0250001e+00 4.0000000e+01 
7.5000000e-01 3.0250001e+00 4.0500000e+01 
7.5000000e-01 3.0250001e+00 4.1000000e+01 
7.5000000e-01 3.0250001e+00 4.1500000e+01 
7.5000000e-01 3.0250001e+00 4.2000000e+01 
7.5000000e-01 3.0250001e+00 4.2500000e+01 
7.5000000e-01 3.0250001e+00 4.3000000e+01 
7.5000000e-01 3.0250001e+00 4.3500000e+01 
7.5000000e-01 3.0250001e+00 4.4000000e+01 
7.5000000e-01 3.0250001e+00 4.4500000e+01 
7.5000000e-01 3.0250001e+00 4.5000000e+01 
7.5000000e-01 3.0250001e+00 4.5500000e+01 
7.5000000e-01 3.0250001e+00 4.6000000e+01 
7.5000000e-01 3.0250001e+00 4.6500000e+01 
7.5000000e-01 3.0250001e+00 4.7000000e+01 
7.5000000e-01 3.0250001e+00 4.7500000e+01 
7.5000000e-01 3.0250001e+00 4.8000000e+01 
7.5000000e-01 3.0250001e+00 4.8500000e+01 
7.5000000e-01 3.0250001e+00 4.9000000e+01 
7.5000000e-01 3.0250001e+00 4.9500000e+01 
7.5000000e-01 3.0250001e+00 5.0000000e+01 
1.5000000e+00 3.0000000e+00 2.5000000e+01 
3.0000000e+00 2.0000000e+00 2.5000000e+01 
4.0000000e+00 2.0000000e+00 2.5000000e+01 
5.0000000e+00 2.0000000e+00 2.5000000e+01 
0.0000000e+00 3.0000000e+00 2.5000000e+01 
0.0000000e+00 0.0000000e+00 1.0000000e+00 
0.0000000e+00 0.0000000e+00 2.0000000e+00 
0.0000000e+00 0.0000000e+00 3.0000000e+00 
0.0000000e+00 0.0000000e+00 4.0000000e+00 
0.0000000e+00 0.0000000e+00 5.0000000e+00 
[...]
POINT_DATA 1919
FIELD FieldData 3
DISPLACEMENT 3 1919  float
0.0000000e+00 0.0000000e+00 0.0000000e+00 
0.0000000e+00 0.0000000e+00 0.0000000e+00 
0.0000000e+00 0.0000000e+00 0.0000000e+00 
0.0000000e+00 0.0000000e+00 0.0000000e+00 
-2.9995423e-08 4.0576290e-07 -5.2011098e-09 
1.2375176e-15 -1.1024510e-16 4.2845939e-16 
0.0000000e+00 3.2273310e-06 0.0000000e+00 
0.0000000e+00 2.2748942e-15 0.0000000e+00 
2.0192574e-09 3.6212447e-07 -1.0790909e-07 
2.1263333e-15 1.0239187e-15 1.4801659e-15 
1.4856831e-06 3.7708619e-06 -2.3640227e-06 
2.9750563e-15 -9.7744776e-17 1.7418542e-15 
0.0000000e+00 -2.0888507e-05 0.0000000e+00 
0.0000000e+00 2.5402169e-14 0.0000000e+00 
1.0979751e-05 -5.2960022e-05 -1.1469738e-05 
-7.2480186e-16 -8.0993553e-15 7.5135555e-16 
1.5656782e-06 1.7195557e-04 -1.1985808e-05 
-4.5597779e-16 1.9094176e-13 1.2981800e-15 
0.0000000e+00 -1.3309447e-04 0.0000000e+00 
0.0000000e+00 5.8470739e-14 0.0000000e+00 
3.0377473e-06 1.2437628e-04 -4.9279220e-06 
-1.4305017e-05 3.9901384e-05 -2.8628765e-06 
-3.0570484e-06 1.1591514e-05 -6.1363353e-06 
9.5539763e-06 5.5431949e-05 -8.8513616e-06 
8.0578211e-06 6.1023875e-05 2.9310360e-05 
-5.9089043e-06 -1.2834147e-04 1.0367062e-05 
-1.0771148e-05 -5.8147131e-04 3.8112670e-05 
-7.0984541e-05 -1.2382547e-03 6.2603191e-05 
-1.1123035e-04 -2.0650025e-03 6.6193825e-05 
-1.8981878e-04 -3.0773389e-03 -6.2722669e-05 
-9.6034884e-05 -4.1924077e-03 1.0429270e-04 
-1.4530195e-04 -4.8855860e-03 -4.7543730e-05 
-6.1398176e-05 -4.6085990e-03 -4.1709682e-05 
-1.7972845e-04 -4.0719667e-03 4.5398159e-05 
-1.5313913e-04 -3.9177402e-03 -4.1862779e-05 
-2.2535406e-04 -4.0981784e-03 -1.0563801e-04 
-1.2727370e-04 -4.0485123e-03 -1.0704881e-04 
-9.7584816e-05 -2.9900230e-03 -8.4633110e-05 
-5.8792116e-06 -1.6642358e-03 -1.0180789e-04 
1.2814031e-07 -6.3355331e-04 3.6531117e-05 
-2.2813667e-06 -4.8214395e-05 -5.8092086e-05 
2.2440183e-05 2.0104555e-04 2.6749814e-05 
5.8416304e-06 2.7849554e-04 1.2486072e-05 
5.9626827e-06 2.7083964e-04 -1.3472494e-05 
1.0391181e-05 1.9978406e-04 2.3832055e-05 
3.3015394e-06 8.2354913e-05 -2.5869788e-06 
-2.1899637e-06 -3.8052654e-05 -3.0028730e-06 
-2.5119493e-06 -1.0417602e-04 4.0040422e-06 
-3.0977867e-07 -8.4356332e-05 -3.4581585e-06 
1.7044115e-07 -1.8581139e-05 -1.3830713e-06 
6.3803401e-07 3.1115531e-05 2.2192078e-06 
2.3386724e-07 4.5724275e-05 -1.3262628e-07 
3.9740894e-07 3.6717196e-05 6.6746111e-08 
1.9362178e-06 9.6492140e-06 -1.6335697e-06 
7.5452743e-07 -3.2518859e-05 4.2588672e-07 
-1.5847770e-06 -6.7653833e-05 -4.6087780e-07 
-1.1159535e-06 -5.5229088e-05 4.4798944e-06 
1.5789129e-07 1.1595624e-05 -1.9954464e-06 
3.1581337e-06 8.6492968e-05 -4.7180329e-06 
4.6176488e-06 1.1063917e-04 9.2079836e-06 
-5.7405446e-06 7.5835451e-05 -1.3393947e-05 
-7.2670587e-06 2.5850082e-05 -2.3902955e-06 
-1.0570780e-05 1.2360220e-05 4.8827228e-06 
7.4753352e-06 5.4908483e-05 -7.0665146e-06 
4.9441505e-06 7.3129435e-05 3.3165470e-05 
-1.0727873e-05 -1.0080054e-04 -1.1321680e-05 
4.0746014e-05 -5.9031229e-04 9.3826988e-05 
-6.7899644e-05 -1.3582238e-03 1.7969491e-04 
-3.1390711e-05 -2.3098430e-03 1.3119393e-04 
-3.9111961e-05 -3.3549736e-03 -4.4017223e-05 
-5.1447114e-05 -4.3119355e-03 1.1834149e-04 
-2.9754950e-04 -4.7388896e-03 -1.0944812e-04 
-1.5229016e-04 -4.4441973e-03 -1.6679200e-04 
-2.0638177e-04 -4.0627941e-03 3.3070457e-05 
-1.6764570e-04 -4.0475330e-03 -1.9305144e-05 
-2.5354361e-04 -4.1643325e-03 -9.5486641e-05 
-1.3282744e-04 -3.8463075e-03 -9.8107368e-05 
-1.2295974e-04 -2.6721696e-03 -6.9609392e-05 
-2.4859777e-05 -1.4240033e-03 -1.3905065e-04 
-1.4109198e-06 -5.1805069e-04 3.2460986e-05 
-4.7632079e-06 -1.6605120e-05 -5.4381399e-05 
2.1074933e-05 2.1458529e-04 1.9301669e-05 
7.9055371e-06 2.9349409e-04 1.4884407e-05 
4.7116014e-06 2.7273173e-04 -1.6793412e-05 
7.1042718e-06 1.7577880e-04 2.3024837e-05 
-1.5781217e-06 4.4304248e-05 -1.2685358e-06 
-4.3412947e-06 -6.5225155e-05 -6.6921070e-06 
-2.4415383e-06 -1.0973949e-04 4.4543626e-06 
-6.8185682e-07 -7.0171285e-05 -3.8054684e-06 
7.5076673e-07 6.1733299e-06 -1.2542434e-06 
5.4233618e-07 4.6405436e-05 1.7192502e-06 
2.7027863e-07 3.1709511e-05 1.2055570e-07 
-2.7328585e-07 -3.0094059e-06 -3.4287206e-07 
-3.4122826e-07 -1.7559572e-05 1.1226338e-07 
1.3514281e-07 -6.6548164e-06 -1.7707123e-07 
2.2940075e-07 5.5640148e-06 6.8079558e-08 
7.3660544e-08 5.7961456e-06 -1.1976645e-09 
-3.3019695e-08 7.2848330e-08 5.1606639e-09 
-8.0530960e-09 -2.0141408e-06 -2.0736998e-08 
1.7963803e-09 -6.0615196e-07 9.1097530e-10 
3.5560661e-09 4.5810967e-07 4.2598542e-09 
1.1478997e-09 2.8549175e-07 -1.0762640e-09 
-1.0072763e-09 -6.3748274e-08 -3.4055170e-10 
-5.9582933e-10 -9.0563773e-08 2.1810666e-10 
2.0816512e-10 -2.1735345e-09 -9.8314808e-11 
1.8119294e-10 2.2068276e-08 -2.0023445e-11 
-3.0797621e-11 4.5486290e-09 5.7365453e-11 
-3.7132349e-11 -4.3130965e-09 2.9360130e-13 
3.4040696e-12 -1.6900629e-09 -1.7463234e-11 
7.1291358e-12 6.8497402e-10 -1.0474161e-12 
-2.3984394e-14 4.4671494e-10 3.4992742e-12 
-1.1892101e-12 -8.0986433e-11 -3.4593435e-13 
-1.4438812e-13 -9.6822571e-11 -6.3055881e-13 
1.1508189e-13 4.2517899e-12 1.1445883e-13 
4.8593176e-14 1.8082910e-11 1.1099852e-13 
2.0049693e-14 1.3926302e-12 -9.3025961e-15 
-1.7356503e-14 -3.0443864e-12 -1.5159113e-14 
-2.2515406e-15 -6.4549256e-13 5.1023600e-15 
7.6365939e-16 3.3763744e-13 -5.6174505e-16 
0.0000000e+00 1.6841720e-04 0.0000000e+00 
0.0000000e+00 1.2343696e-04 0.0000000e+00 
0.0000000e+00 4.3853895e-05 0.0000000e+00 
0.0000000e+00 1.6986285e-05 0.0000000e+00 
0.0000000e+00 5.6631074e-05 0.0000000e+00 
0.0000000e+00 5.7111214e-05 0.0000000e+00 
0.0000000e+00 -1.3324032e-04 0.0000000e+00 
0.0000000e+00 -5.8065576e-04 0.0000000e+00 
0.0000000e+00 -1.2365697e-03 0.0000000e+00 
0.0000000e+00 -2.0680469e-03 0.0000000e+00 
0.0000000e+00 -3.0935502e-03 0.0000000e+00 
0.0000000e+00 -4.2143753e-03 0.0000000e+00 
0.0000000e+00 -4.9182735e-03 0.0000000e+00 
0.0000000e+00 -4.6309545e-03 0.0000000e+00 
0.0000000e+00 -4.0967329e-03 0.0000000e+00 
0.0000000e+00 -3.9353999e-03 0.0000000e+00 
0.0000000e+00 -4.1273017e-03 0.0000000e+00 
0.0000000e+00 -4.0707164e-03 0.0000000e+00 
0.0000000e+00 -3.0168013e-03 0.0000000e+00 
0.0000000e+00 -1.6789238e-03 0.0000000e+00 
0.0000000e+00 -6.4177421e-04 0.0000000e+00 
0.0000000e+00 -4.9182257e-05 0.0000000e+00 
0.0000000e+00 2.0439822e-04 0.0000000e+00 
0.0000000e+00 2.8063185e-04 0.0000000e+00 
0.0000000e+00 2.7040948e-04 0.0000000e+00 
0.0000000e+00 1.9888001e-04 0.0000000e+00 
0.0000000e+00 8.2663712e-05 0.0000000e+00 
0.0000000e+00 -3.6533580e-05 0.0000000e+00 
0.0000000e+00 -1.0153989e-04 0.0000000e+00 
0.0000000e+00 -8.4338048e-05 0.0000000e+00 
0.0000000e+00 -2.1308708e-05 0.0000000e+00 
0.0000000e+00 2.9963856e-05 0.0000000e+00 
0.0000000e+00 4.7222791e-05 0.0000000e+00 
0.0000000e+00 3.7844835e-05 0.0000000e+00 
0.0000000e+00 8.6136361e-06 0.0000000e+00 
0.0000000e+00 -3.4458037e-05 0.0000000e+00 
0.0000000e+00 -6.7168185e-05 0.0000000e+00 
0.0000000e+00 -5.2748899e-05 0.0000000e+00 
0.0000000e+00 1.3153213e-05 0.0000000e+00 
0.0000000e+00 8.5030661e-05 0.0000000e+00 
0.0000000e+00 1.0843117e-04 0.0000000e+00 
0.0000000e+00 7.5031399e-05 0.0000000e+00 
0.0000000e+00 2.6413887e-05 0.0000000e+00 
0.0000000e+00 1.5617426e-05 0.0000000e+00 
0.0000000e+00 5.8498357e-05 0.0000000e+00 
0.0000000e+00 7.2838760e-05 0.0000000e+00 
0.0000000e+00 -1.0588261e-04 0.0000000e+00 
0.0000000e+00 -5.9347914e-04 0.0000000e+00 
0.0000000e+00 -1.3598669e-03 0.0000000e+00 
0.0000000e+00 -2.3137638e-03 0.0000000e+00 
0.0000000e+00 -3.3678119e-03 0.0000000e+00 
0.0000000e+00 -4.3349070e-03 0.0000000e+00 
0.0000000e+00 -4.7764871e-03 0.0000000e+00 
0.0000000e+00 -4.4661132e-03 0.0000000e+00 
0.0000000e+00 -4.0872586e-03 0.0000000e+00 
0.0000000e+00 -4.0627904e-03 0.0000000e+00 
0.0000000e+00 -4.1923551e-03 0.0000000e+00 
0.0000000e+00 -3.8692756e-03 0.0000000e+00 
0.0000000e+00 -2.7011698e-03 0.0000000e+00 
0.0000000e+00 -1.4352716e-03 0.0000000e+00 
0.0000000e+00 -5.2352506e-04 0.0000000e+00 
0.0000000e+00 -1.5376809e-05 0.0000000e+00 
0.0000000e+00 2.1671654e-04 0.0000000e+00 
0.0000000e+00 2.9423446e-04 0.0000000e+00 
0.0000000e+00 2.7197355e-04 0.0000000e+00 
0.0000000e+00 1.7556969e-04 0.0000000e+00 
0.0000000e+00 4.5587043e-05 0.0000000e+00 
0.0000000e+00 -6.4098451e-05 0.0000000e+00 
0.0000000e+00 -1.0776699e-04 0.0000000e+00 
0.0000000e+00 -6.9967049e-05 0.0000000e+00 
0.0000000e+00 3.6913407e-06 0.0000000e+00 
0.0000000e+00 4.4860648e-05 0.0000000e+00 
0.0000000e+00 3.2355547e-05 0.0000000e+00 
0.0000000e+00 -1.6277116e-06 0.0000000e+00 
0.0000000e+00 -1.7026476e-05 0.0000000e+00 
0.0000000e+00 -7.3129509e-06 0.0000000e+00 
0.0000000e+00 5.0515887e-06 0.0000000e+00 
0.0000000e+00 5.8889032e-06 0.0000000e+00 
0.0000000e+00 4.0123649e-07 0.0000000e+00 
0.0000000e+00 -1.9808422e-06 0.0000000e+00 
0.0000000e+00 -7.2765914e-07 0.0000000e+00 
0.0000000e+00 4.2231014e-07 0.0000000e+00 
0.0000000e+00 3.1832866e-07 0.0000000e+00 
0.0000000e+00 -4.7448495e-08 0.0000000e+00 
0.0000000e+00 -9.7096105e-08 0.0000000e+00 
0.0000000e+00 -7.6033890e-09 0.0000000e+00 
0.0000000e+00 2.2872470e-08 0.0000000e+00 
0.0000000e+00 6.0181269e-09 0.0000000e+00 
0.0000000e+00 -4.2796104e-09 0.0000000e+00 
0.0000000e+00 -2.0268458e-09 0.0000000e+00 
0.0000000e+00 6.2975541e-10 0.0000000e+00 
0.0000000e+00 5.1364668e-10 0.0000000e+00 
0.0000000e+00 -6.0912796e-11 0.0000000e+00 
0.0000000e+00 -1.0845199e-10 0.0000000e+00 
0.0000000e+00 -1.0271920e-12 0.0000000e+00 
0.0000000e+00 1.9862428e-11 0.0000000e+00 
0.0000000e+00 2.4873673e-12 0.0000000e+00 
0.0000000e+00 -3.2429443e-12 0.0000000e+00 
0.0000000e+00 -8.6543424e-13 0.0000000e+00 
0.0000000e+00 3.4348246e-13 0.0000000e+00 
0.0000000e+00 2.3709664e-13 0.0000000e+00 
-4.5687007e-04 -1.4157222e-03 1.7025083e-04 
7.9088837e-05 9.2950992e-05 6.9842272e-06 
-3.8535841e-06 -2.0266129e-05 -1.0981421e-06 
-3.9876390e-06 2.7244423e-07 -3.6253820e-07 
0.0000000e+00 -1.5859690e-03 0.0000000e+00 
0.0000000e+00 0.0000000e+00 0.0000000e+00 
0.0000000e+00 0.0000000e+00 0.0000000e+00 
0.0000000e+00 0.0000000e+00 0.0000000e+00 
0.0000000e+00 0.0000000e+00 0.0000000e+00 
0.0000000e+00 0.0000000e+00 0.0000000e+00 
0.0000000e+00 0.0000000e+00 0.0000000e+00 
0.0000000e+00 0.0000000e+00 0.0000000e+00 
0.0000000e+00 0.0000000e+00 0.0000000e+00 
0.0000000e+00 0.0000000e+00 0.0000000e+00 
0.0000000e+00 0.0000000e+00 0.0000000e+00 
0.0000000e+00 0.0000000e+00 0.0000000e+00 
0.0000000e+00 0.0000000e+00 0.0000000e+00 
0.0000000e+00 0.0000000e+00 0.0000000e+00 
0.0000000e+00 0.0000000e+00 0.0000000e+00 
0.0000000e+00 0.0000000e+00 0.0000000e+00 
0.0000000e+00 0.0000000e+00 0.0000000e+00 
0.0000000e+00 0.0000000e+00 0.0000000e+00 
0.0000000e+00 0.0000000e+00 0.0000000e+00 
0.0000000e+00 0.0000000e+00 0.0000000e+00 
0.0000000e+00 0.0000000e+00 0.0000000e+00 
0.0000000e+00 0.0000000e+00 0.0000000e+00 
0.0000000e+00 0.0000000e+00 0.0000000e+00 
0.0000000e+00 0.0000000e+00 0.0000000e+00 
0.0000000e+00 0.0000000e+00 0.0000000e+00 
0.0000000e+00 0.0000000e+00 0.0000000e+00 
0.0000000e+00 0.0000000e+00 0.0000000e+00 
0.0000000e+00 0.0000000e+00 0.0000000e+00 
0.0000000e+00 0.0000000e+00 0.0000000e+00 
0.0000000e+00 0.0000000e+00 0.0000000e+00 
0.0000000e+00 0.0000000e+00 0.0000000e+00 
0.0000000e+00 0.0000000e+00 0.0000000e+00 
0.0000000e+00 0.0000000e+00 0.0000000e+00 
0.0000000e+00 0.0000000e+00 0.0000000e+00 
0.0000000e+00 0.0000000e+00 0.0000000e+00 
0.0000000e+00 0.0000000e+00 0.0000000e+00 
0.0000000e+00 0.0000000e+00 0.0000000e+00 
0.0000000e+00 0.0000000e+00 0.0000000e+00 
0.0000000e+00 0.0000000e+00 0.0000000e+00 
0.0000000e+00 0.0000000e+00 0.0000000e+00 
0.0000000e+00 0.0000000e+00 0.0000000e+00 
0.0000000e+00 0.0000000e+00 0.0000000e+00 
0.0000000e+00 0.0000000e+00 0.0000000e+00 
0.0000000e+00 0.0000000e+00 0.0000000e+00 
0.0000000e+00 0.0000000e+00 0.0000000e+00 
0.0000000e+00 0.0000000e+00 0.0000000e+00 
0.0000000e+00 0.0000000e+00 0.0000000e+00 
0.0000000e+00 0.0000000e+00 0.0000000e+00 
0.0000000e+00 0.0000000e+00 0.0000000e+00 
0.0000000e+00 0.0000000e+00 0.0000000e+00 
0.0000000e+00 0.0000000e+00 0.0000000e+00 
0.0000000e+00 0.0000000e+00 0.0000000e+00 
0.0000000e+00 0.0000000e+00 0.0000000e+00 
0.0000000e+00 0.0000000e+00 0.0000000e+00 
0.0000000e+00 0.0000000e+00 0.0000000e+00 
0.0000000e+00 0.0000000e+00 0.0000000e+00 
0.0000000e+00 0.0000000e+00 0.0000000e+00 
0.0000000e+00 0.0000000e+00 0.0000000e+00 
0.0000000e+00 0.0000000e+00 0.0000000e+00 
0.0000000e+00 0.0000000e+00 0.0000000e+00 
0.0000000e+00 0.0000000e+00 0.0000000e+00 
0.0000000e+00 0.0000000e+00 0.0000000e+00 
0.0000000e+00 0.0000000e+00 0.0000000e+00 
0.0000000e+00 0.0000000e+00 0.0000000e+00 
0.0000000e+00 0.0000000e+00 0.0000000e+00 
0.0000000e+00 0.0000000e+00 0.0000000e+00 
0.0000000e+00 0.0000000e+00 0.0000000e+00 
0.0000000e+00 0.0000000e+00 0.0000000e+00 
0.0000000e+00 0.0000000e+00 0.0000000e+00 
0.0000000e+00 0.0000000e+00 0.0000000e+00 
0.0000000e+00 0.0000000e+00 0.0000000e+00 
0.0000000e+00 0.0000000e+00 0.0000000e+00 
0.0000000e+00 0.0000000e+00 0.0000000e+00 
0.0000000e+00 0.0000000e+00 0.0000000e+00 
0.0000000e+00 0.0000000e+00 0.0000000e+00 
0.0000000e+00 0.0000000e+00 0.0000000e+00 
0.0000000e+00 0.0000000e+00 0.0000000e+00 
0.0000000e+00 0.0000000e+00 0.0000000e+00 
0.0000000e+00 0.0000000e+00 0.0000000e+00 
0.0000000e+00 0.0000000e+00 0.0000000e+00 
0.0000000e+00 0.0000000e+00 0.0000000e+00 
0.0000000e+00 0.0000000e+00 0.0000000e+00 
0.0000000e+00 0.0000000e+00 0.0000000e+00 
0.0000000e+00 0.0000000e+00 0.0000000e+00 
0.0000000e+00 0.0000000e+00 0.0000000e+00 
0.0000000e+00 0.0000000e+00 0.0000000e+00 
0.0000000e+00 0.0000000e+00 0.0000000e+00 
0.0000000e+00 0.0000000e+00 0.0000000e+00 
0.0000000e+00 0.0000000e+00 0.0000000e+00 
0.0000000e+00 0.0000000e+00 0.0000000e+00 
0.0000000e+00 0.0000000e+00 0.0000000e+00 
0.0000000e+00 0.0000000e+00 0.0000000e+00 
0.0000000e+00 0.0000000e+00 0.0000000e+00 
0.0000000e+00 0.0000000e+00 0.0000000e+00 
0.0000000e+00 0.0000000e+00 0.0000000e+00 
0.0000000e+00 0.0000000e+00 0.0000000e+00 
0.0000000e+00 0.0000000e+00 0.0000000e+00 
0.0000000e+00 0.0000000e+00 0.0000000e+00 
0.0000000e+00 0.0000000e+00 0.0000000e+00 
0.0000000e+00 0.0000000e+00 0.0000000e+00 
0.0000000e+00 0.0000000e+00 0.0000000e+00 
0.0000000e+00 0.0000000e+00 0.0000000e+00 
0.0000000e+00 0.0000000e+00 0.0000000e+00 
0.0000000e+00 0.0000000e+00 0.0000000e+00 
0.0000000e+00 0.0000000e+00 0.0000000e+00 
0.0000000e+00 0.0000000e+00 0.0000000e+00 
0.0000000e+00 0.0000000e+00 0.0000000e+00 
-4.5214637e-08 -1.0740698e-07 3.4046963e-08 
-1.6485615e-07 -1.3333745e-06 -5.6252397e-08 
-5.5742166e-08 4.8539960e-07 4.4075326e-09 
8.6134980e-07 2.2941551e-06 -9.4283173e-08 
1.2075909e-06 2.4348940e-06 3.3268566e-07 
5.2199624e-07 4.0187065e-06 -1.9473680e-07 
8.9411566e-07 3.8052285e-06 3.5067279e-07 
1.0394626e-06 2.4349461e-06 -4.2267627e-07 
4.0899693e-07 6.5934358e-07 2.7782741e-07 
2.2810148e-07 -5.6289963e-07 4.7515780e-07 
1.6011481e-07 -1.7555560e-07 -8.7289948e-08 
-7.8878628e-08 1.0439433e-07 -2.7845964e-08 
1.5543262e-09 1.5406238e-07 4.7841805e-08 
-8.7476764e-09 -9.6761589e-08 -4.4460776e-08 
2.4498668e-09 3.9670244e-08 1.7894235e-08 
3.9147952e-10 -1.1487432e-08 3.5491052e-09 
-3.8583026e-09 2.2815666e-08 -5.6981091e-09 
2.8979905e-09 -4.2665409e-08 1.1591389e-08 
-5.3250857e-09 6.2093148e-09 -1.1300661e-08 
4.2237414e-08 8.1115921e-08 -2.7772188e-08 
4.7293575e-08 -3.7900307e-07 1.2271845e-07 
2.1070647e-07 -5.4351005e-07 -1.4672874e-07 
7.5647444e-07 1.2781627e-06 -1.5959815e-08 
1.9105992e-06 2.9992686e-06 2.0703398e-08 
2.5789484e-06 2.1325357e-06 2.7090283e-07 
2.7475808e-06 4.9589585e-06 -5.6105165e-07 
1.4020294e-06 3.6589001e-06 4.6680023e-07 
2.2925228e-06 2.4804333e-06 8.1939859e-08 
3.6402514e-07 1.1183954e-06 4.1522034e-07 
-2.9645278e-07 -7.7345305e-07 -1.4148652e-07 
-2.0065249e-08 -5.0178642e-07 -2.2940684e-07 
2.7419532e-08 2.9323220e-07 5.9112939e-08 
-3.3209158e-08 6.3922457e-08 8.0487268e-08 
1.6972814e-08 -7.7533578e-08 -1.1302530e-08 
1.8043356e-09 2.2788230e-08 -1.2176508e-09 
5.6883359e-10 -1.1749529e-09 2.9222000e-09 
-2.7623484e-10 -1.9455431e-09 -1.2666639e-09 
1.5821566e-10 1.5116015e-09 5.7496169e-10 
-9.9834953e-11 -3.5594006e-10 -1.6781151e-10 
4.6346631e-11 1.8329319e-10 1.1914507e-10 
1.4209156e-12 -1.0677649e-11 -1.4738027e-11 
1.9167445e-12 -2.3992325e-11 -8.8526513e-12 
-7.0785782e-13 7.5068198e-12 1.8958140e-12 
1.7680650e-13 -2.8122099e-12 -6.8335750e-13 
4.1263630e-14 1.2152151e-12 3.5343674e-13 
-2.2462460e-14 -5.5657349e-14 2.6883122e-14 
-2.5956647e-15 -1.0292646e-13 -3.6453801e-14 
-2.3420177e-15 2.1528379e-14 2.8537946e-15 
2.0490208e-15 -1.0710885e-15 -6.1291209e-16 
0.0000000e+00 -1.9656305e-05 0.0000000e+00 
0.0000000e+00 7.3383810e-05 0.0000000e+00 
0.0000000e+00 -2.5187637e-05 0.0000000e+00 
0.0000000e+00 -1.6114503e-04 0.0000000e+00 
0.0000000e+00 -2.1823360e-04 0.0000000e+00 
0.0000000e+00 -2.5478838e-04 0.0000000e+00 
0.0000000e+00 -2.1125992e-04 0.0000000e+00 
0.0000000e+00 -1.9078534e-04 0.0000000e+00 
0.0000000e+00 -8.8676970e-05 0.0000000e+00 
0.0000000e+00 1.0336498e-04 0.0000000e+00 
0.0000000e+00 5.5085282e-05 0.0000000e+00 
0.0000000e+00 -5.3001222e-05 0.0000000e+00 
0.0000000e+00 -2.9446692e-06 0.0000000e+00 
0.0000000e+00 1.1950154e-05 0.0000000e+00 
0.0000000e+00 -6.6643952e-06 0.0000000e+00 
0.0000000e+00 3.1692132e-06 0.0000000e+00 
0.0000000e+00 -2.8069398e-06 0.0000000e+00 
0.0000000e+00 3.9832194e-06 0.0000000e+00 
0.0000000e+00 1.3880982e-05 0.0000000e+00 
0.0000000e+00 -3.3453634e-05 0.0000000e+00 
0.0000000e+00 3.9177880e-06 0.0000000e+00 
0.0000000e+00 3.8781083e-05 0.0000000e+00 
0.0000000e+00 2.1293490e-05 0.0000000e+00 
0.0000000e+00 -2.0106962e-04 0.0000000e+00 
0.0000000e+00 -2.5570873e-04 0.0000000e+00 
0.0000000e+00 -2.3051948e-04 0.0000000e+00 
0.0000000e+00 -1.6792290e-04 0.0000000e+00 
0.0000000e+00 -2.0582956e-04 0.0000000e+00 
0.0000000e+00 -7.8503108e-05 0.0000000e+00 
0.0000000e+00 1.4433854e-04 0.0000000e+00 
0.0000000e+00 2.1848638e-05 0.0000000e+00 
0.0000000e+00 -4.0687257e-05 0.0000000e+00 
0.0000000e+00 -1.1324098e-06 0.0000000e+00 
0.0000000e+00 1.0240017e-05 0.0000000e+00 
0.0000000e+00 -7.0166993e-06 0.0000000e+00 
0.0000000e+00 2.1699927e-06 0.0000000e+00 
0.0000000e+00 -7.9843936e-09 0.0000000e+00 
0.0000000e+00 -1.6781641e-07 0.0000000e+00 
0.0000000e+00 3.9265334e-08 0.0000000e+00 
0.0000000e+00 -3.1461745e-08 0.0000000e+00 
0.0000000e+00 1.9639119e-09 0.0000000e+00 
0.0000000e+00 -1.8980943e-09 0.0000000e+00 
0.0000000e+00 5.1451943e-10 0.0000000e+00 
0.0000000e+00 -3.6222168e-11 0.0000000e+00 
0.0000000e+00 -9.8577310e-12 0.0000000e+00 
0.0000000e+00 2.4326960e-12 0.0000000e+00 
0.0000000e+00 -1.6646730e-12 0.0000000e+00 
0.0000000e+00 1.3498688e-13 0.0000000e+00 
0.0000000e+00 -3.0341320e-14 0.0000000e+00 
2.6959736e-07 -1.0623710e-06 1.8774138e-08 
-6.2342406e-07 -6.1142924e-07 6.6080884e-07 
7.2020032e-07 2.8488939e-06 -2.1023675e-06 
-2.4687313e-07 1.7046764e-06 2.0473462e-06 
2.4437695e-15 3.8541198e-15 -1.8577078e-16 
4.0888970e-15 6.5147003e-16 -2.5773605e-15 
9.8343882e-16 4.6203013e-15 -3.1302371e-15 
-2.2525065e-16 4.8228590e-16 -1.3179232e-15 
-5.6578421e-07 -9.0826444e-07 4.0104214e-07 
3.4332024e-15 3.1782639e-15 1.0555080e-16 
3.0083543e-06 -1.3049389e-05 6.8750496e-06 
2.6356834e-06 1.2955762e-06 -2.6122061e-06 
0.0000000e+00 3.3099994e-05 0.0000000e+00 
0.0000000e+00 9.9261364e-05 0.0000000e+00 
0.0000000e+00 -3.3959255e-05 0.0000000e+00 
0.0000000e+00 -3.4019031e-04 0.0000000e+00 
0.0000000e+00 -7.1685831e-04 0.0000000e+00 
0.0000000e+00 -7.2077010e-04 0.0000000e+00 
0.0000000e+00 -5.6969764e-04 0.0000000e+00 
0.0000000e+00 -5.7682826e-04 0.0000000e+00 
0.0000000e+00 -2.2018526e-04 0.0000000e+00 
0.0000000e+00 1.4051737e-04 0.0000000e+00 
0.0000000e+00 1.0775581e-04 0.0000000e+00 
0.0000000e+00 -3.5243698e-05 0.0000000e+00 
0.0000000e+00 -3.6766618e-05 0.0000000e+00 
0.0000000e+00 2.4963480e-05 0.0000000e+00 