# vtk DataFile Version 4.0
vtk output
ASCII
DATASET UNSTRUCTURED_GRID
POINTS 1919 float
0.0000000e+00 0.0000000e+00 0.0000000e+00 
0.0000000e+00 0.0000000e+00 5.0000000e+01 
5.0000000e+00 0.0000000e+00 0.0000000e+00 
5.0000000e+00 0.0000000e+00 5.0000000e+01 
5.0000000e+00 1.0000000e+00 0.0000000e+00 
5.0000000e+00 1.0000000e+00 5.0000000e+01 
0.0000000e+00 1.0000000e+00 0.0000000e+00 
0.0000000e+00 1.0000000e+00 5.0000000e+01 
5.0000000e+00 2.0000000e+00 0.0000000e+00 
5.0000000e+00 2.0000000e+00 5.0000000e+01 
3.0000000e+00 2.0000000e+00 0.0000000e+00 
3.0000000e+00 2.0000000e+00 5.0000000e+01 
0.0000000e+00 2.0000000e+00 0.0000000e+00 
0.0000000e+00 2.0000000e+00 5.0000000e+01 
1.5000000e+00 3.0000000e+00 0.0000000e+00 
1.5000000e+00 3.0000000e+00 5.0000000e+01 
7.5000000e-01 3.0000000e+00 0.0000000e+00 
7.5000000e-01 3.0000000e+00 5.0000000e+01 
0.0000000e+00 3.0000000e+00 0.0000000e+00 
0.0000000e+00 3.0000000e+00 5.0000000e+01 
7.5000000e-01 3.0000000e+00 5.0000000e-01 
7.5000000e-01 3.0000000e+00 1.0000000e+00 
7.5000000e-01 3.0000000e+00 1.5000000e+00 
7.5000000e-01 3.0000000e+00 2.0000000e+00 
7.5000000e-01 3.0000000e+00 2.5000000e+00 
7.5000000e-01 3.0000000e+00 3.0000000e+00 
7.5000000e-01 3.0000000e+00 3.5000000e+00 
7.5000000e-01 3.0000000e+00 4.0000000e+00 
7.5000000e-01 3.0000000e+00 4.5000000e+00 
7.5000000e-01 3.0000000e+00 5.0000000e+00 
7.5000000e-01 3.0000000e+00 5.5000000e+00 
7.5000000e-01 3.0000000e+00 6.0000000e+00 
7.5000000e-01 3.0000000e+00 6.5000000e+00 
7.5000000e-01 3.0000000e+00 7.0000000e+00 
7.5000000e-01 3.0000000e+00 7.5000000e+00 
7.5000000e-01 3.0000000e+00 8.0000000e+00 
7.5000000e-01 3.0000000e+00 8.5000000e+00 
7.5000000e-01 3.0000000e+00 9.0000000e+00 
7.5000000e-01 3.0000000e+00 9.5000000e+00 
7.5000000e-01 3.0000000e+00 1.0000000e+01 
7.5000000e-01 3.0000000e+00 1.0500000e+01 
7.5000000e-01 3.0000000e+00 1.1000000e+01 
7.5000000e-01 3.0000000e+00 1.1500000e+01 
7.5000000e-01 3.0000000e+00 1.2000000e+01 
7.5000000e-01 3.0000000e+00 1.2500000e+01 
7.5000000e-01 3.0000000e+00 1.3000000e+01 
7.5000000e-01 3.0000000e+00 1.3500000e+01 
7.5000000e-01 3.0000000e+00 1.4000000e+01 
7.5000000e-01 3.0000000e+00 1.4500000e+01 
7.5000000e-01 3.0000000e+00 1.5000000e+01 
7.5000000e-01 3.0000000e+00 1.5500000e+01 
7.5000000e-01 3.0000000e+00 1.6000000e+01 
7.5000000e-01 3.0000000e+00 1.6500000e+01 
7.5000000e-01 3.0000000e+00 1.7000000e+01 
7.5000000e-01 3.0000000e+00 1.7500000e+01 
7.5000000e-01 3.0000000e+00 1.8000000e+01 
7.5000000e-01 3.0000000e+00 1.8500000e+01 
7.5000000e-01 3.0000000e+00 1.9000000e+01 
7.5000000e-01 3.0000000e+00 1.9500000e+01 
7.5000000e-01 3.0000000e+00 2.0000000e+01 
7.5000000e-01 3.0000000e+00 2.0500000e+01 
7.5000000e-01 3.0000000e+00 2.1000000e+01 
7.5000000e-01 3.0000000e+00 2.1500000e+01 
7.5000000e-01 3.0000000e+00 2.2000000e+01 
7.5000000e-01 3.0000000e+00 2.2500000e+01 
7.5000000e-01 3.0000000e+00 2.3000000e+01 
7.5000000e-01 3.0000000e+00 2.3500000e+01 
7.5000000e-01 3.0000000e+00 2.4000000e+01 
7.5000000e-01 3.0000000e+00 2.4500000e+01 
7.5000000e-01 3.0000000e+00 2.5000000e+01 
7.5000000e-01 3.0000000e+00 2.5500000e+01 
7.5000000e-01 3.0000000e+00 2.6000000e+01 
7.5000000e-01 3.0000000e+00 2.6500000e+01 
7.5000000e-01 3.0000000e+00 2.7000000e+01 
7.5000000e-01 3.0000000e+00 2.7500000e+01 
7.5000000e-01 3.0000000e+00 2.8000000e+01 
7.5000000e-01 3.0000000e+00 2.8500000e+01 
7.5000000e-01 3.0000000e+00 2.9000000e+01 
7.5000000e-01 3.0000000e+00 2.9500000e+01 
7.5000000e-01 3.0000000e+00 3.0000000e+01 
7.5000000e-01 3.0000000e+00 3.0500000e+01 
7.5000000e-01 3.0000000e+00 3.1000000e+01 
7.5000000e-01 3.0000000e+00 3.1500000e+01 
7.5000000e-01 3.0000000e+00 3.2000000e+01 
7.5000000e-01 3.0000000e+00 3.2500000e+01 
7.5000000e-01 3.0000000e+00 3.3000000e+01 
7.5000000e-01 3.0000000e+00 3.3500000e+01 
7.5000000e-01 3.0000000e+00 3.4000000e+01 
7.5000000e-01 3.0000000e+00 3.4500000e+01 
7.5000000e-01 3.0000000e+00 3.5000000e+01 
7.5000000e-01 3.0000000e+00 3.5500000e+01 
7.5000000e-01 3.0000000e+00 3.6000000e+01 
7.5000000e-01 3.0000000e+00 3.6500000e+01 
7.5000000e-01 3.0000000e+00 3.7000000e+01 
7.5000000e-01 3.0000000e+00 3.7500000e+01 
7.5000000e-01 3.0000000e+00 3.8000000e+01 
7.5000000e-01 3.0000000e+00 3.8500000e+01 
7.5000000e-01 3.0000000e+00 3.9000000e+01 
7.5000000e-01 3.0000000e+00 3.9500000e+01 
7.5000000e-01 3.0000000e+00 4.0000000e+01 
7.5000000e-01 3.0000000e+00 4.0500000e+01 
7.5000000e-01 3.0000000e+00 4.1000000e+01 
7.5000000e-01 3.0000000e+00 4.1500000e+01 
7.5000000e-01 3.0000000e+00 4.2000000e+01 
7.5000000e-01 3.0000000e+00 4.2500000e+01 
7.5000000e-01 3.0000000e+00 4.3000000e+01 
7.5000000e-01 3.0000000e+00 4.3500000e+01 
7.5000000e-01 3.0000000e+00 4.4000000e+01 
7.5000000e-01 3.0000000e+00 4.4500000e+01 
7.5000000e-01 3.0000000e+00 4.5000000e+01 
7.5000000e-01 3.0000000e+00 4.5500000e+01 
7.5000000e-01 3.0000000e+00 4.6000000e+01 
7.5000000e-01 3.0000000e+00 4.6500000e+01 
7.5000000e-01 3.0000000e+00 4.7000000e+01 
7.5000000e-01 3.0000000e+00 4.7500000e+01 
7.5000000e-01 3.0000000e+00 4.8000000e+01 
7.5000000e-01 3.0000000e+00 4.8500000e+01 
7.5000000e-01 3.0000000e+00 4.9000000e+01 
7.5000000e-01 3.0000000e+00 4.9500000e+01 
7.5000000e-01 3.0250001e+00 0.0000000e+00 
7.5000000e-01 3.0250001e+00 5.0000000e-01 
7.5000000e-01 3.0250001e+00 1.0000000e+00 
7.5000000e-01 3.0250001e+00 1.5000000e+00 
7.5000000e-01 3.0250001e+00 2.0000000e+00 
7.5000000e-01 3.0250001e+00 2.5000000e+00 
7.5000000e-01 3.0250001e+00 3.0000000e+00 
7.5000000e-01 3.0250001e+00 3.5000000e+00 
7.5000000e-01 3.0250001e+00 4.0000000e+00 
7.5000000e-01 3.0250001e+00 4.5000000e+00 
7.5000000e-01 3.0250001e+00 5.0000000e+00 
7.5000000e-01 3.0250001e+00 5.5000000e+00 
7.5000000e-01 3.0250001e+00 6.0000000e+00 
7.5000000e-01 3.0250001e+00 6.5000000e+00 
7.5000000e-01 3.0250001e+00 7.0000000e+00 
7.5000000e-01 3.0250001e+00 7.5000000e+00 
7.5000000e-01 3.0250001e+00 8.0000000e+00 
7.5000000e-01 3.0250001e+00 8.5000000e+00 
7.5000000e-01 3.0250001e+00 9.0000000e+00 
7.5000000e-01 3.0250001e+00 9.5000000e+00 
7.5000000e-01 3.0250001e+00 1.0000000e+01 
7.5000000e-01 3.0250001e+00 1.0500000e+01 
7.5000000e-01 3.0250001e+00 1.1000000e+01 
7.5000000e-01 3.0250001e+00 1.1500000e+01 
7.5000000e-01 3.0250001e+00 1.2000000e+01 
7.5000000e-01 3.0250001e+00 1.2500000e+01 
7.5000000e-01 3.0250001e+00 1.3000000e+01 
7.5000000e-01 3.0250001e+00 1.3500000e+01 
7.5000000e-01 3.0250001e+00 1.4000000e+01 
7.5000000e-01 3.0250001e+00 1.4500000e+01 
7.5000000e-01 3.0250001e+00 1.5000000e+01 
7.5000000e-01 3.0250001e+00 1.5500000e+01 
7.5000000e-01 3.0250001e+00 1.6000000e+01 
7.5000000e-01 3.0250001e+00 1.6500000e+01 
7.5000000e-01 3.0250001e+00 1.7000000e+01 
7.5000000e-01 3.0250001e+00 1.7500000e+01 
7.5000000e-01 3.0250001e+00 1.8000000e+01 
7.5000000e-01 3.0250001e+00 1.8500000e+01 
7.5000000e-01 3.0250001e+00 1.9000000e+01 
7.5000000e-01 3.0250001e+00 1.9500000e+01 
7.5000000e-01 3.0250001e+00 2.0000000e+01 
7.5000000e-01 3.0250001e+00 2.0500000e+01 
7.5000000e-01 3.0250001e+00 2.1000000e+01 
7.5000000e-01 3.0250001e+00 2.1500000e+01 
7.5000000e-01 3.0250001e+00 2.2000000e+01 
7.5000000e-01 3.0250001e+00 2.2500000e+01 
7.5000000e-01 3.0250001e+00 2.3000000e+01 
7.5000000e-01 3.0250001e+00 2.3500000e+01 
7.5000000e-01 3.0250001e+00 2.4000000e+01 
7.5000000e-01 3.0250001e+00 2.4500000e+01 
7.5000000e-01 3.0250001e+00 2.5000000e+01 
7.5000000e-01 3.0250001e+00 2.5500000e+01 
7.5000000e-01 3.0250001e+00 2.6000000e+01 
7.5000000e-01 3.0250001e+00 2.6500000e+01 
7.5000000e-01 3.0250001e+00 2.7000000e+01 
7.5000000e-01 3.0250001e+00 2.7500000e+01 
7.5000000e-01 3.0250001e+00 2.8000000e+01 
7.5000000e-01 3.0250001e+00 2.8500000e+01 
7.5000000e-01 3.0250001e+00 2.9000000e+01 
7.5000000e-01 3.0250001e+00 2.9500000e+01 
7.5000000e-01 3.0250001e+00 3.0000000e+01 
7.5000000e-01 3.0250001e+00 3.0500000e+01 
7.5000000e-01 3.0250001e+00 3.1000000e+01 
7.5000000e-01 3.0250001e+00 3.1500000e+01 
7.5000000e-01 3.0250001e+00 3.2000000e+01 
7.5000000e-01 3.0250001e+00 3.2500000e+01 
7.5000000e-01 3.0250001e+00 3.3000000e+01 
7.5000000e-01 3.0250001e+00 3.3500000e+01 
7.5000000e-01 3.0250001e+00 3.4000000e+01 
7.5000000e-01 3.0250001e+00 3.4500000e+01 
7.5000000e-01 3.0250001e+00 3.5000000e+01 
7.5000000e-01 3.0250001e+00 3.5500000e+01 
7.5000000e-01 3.0250001e+00 3.6000000e+01 
7.5000000e-01 3.0250001e+00 3.6500000e+01 
7.5000000e-01 3.0250001e+00 3.7000000e+01 
7.5000000e-01 3.0250001e+00 3.7500000e+01 
7.5000000e-01 3.0250001e+00 3.8000000e+01 
7.5000000e-01 3.0250001e+00 3.8500000e+01 
7.5000000e-01 3.0250001e+00 3.9000000e+01 
7.5000000e-01 3.0250001e+00 3.9500000e+01 
7.5000000e-01 3.0250001e+00 4.0000000e+01 
7.5000000e-01 3.0250001e+00 4.0500000e+01 
7.5000000e-01 3.0250001e+00 4.1000000e+01 
7.5000000e-01 3.0250001e+00 4.1500000e+01 
7.5000000e-01 3.0250001e+00 4.2000000e+01 
7.5000000e-01 3.0250001e+00 4.2500000e+01 
7.5000000e-01 3.0250001e+00 4.3000000e+01 
7.5000000e-01 3.0250001e+00 4.3500000e+01 
7.5000000e-01 3.0250001e+00 4.4000000e+01 
7.5000000e-01 3.0250001e+00 4.4500000e+01 
7.5000000e-01 3.0250001e+00 4.5000000e+01 
7.5000000e-01 3.0250001e+00 4.5500000e+01 
7.5000000e-01 3.0250001e+00 4.6000000e+01 
7.5000000e-01 3.0250001e+00 4.6500000e+01 
7.5000000e-01 3.0250001e+00 4.7000000e+01 
7.5000000e-01 3.0250001e+00 4.7500000e+01 
7.5000000e-01 3.0250001e+00 4.8000000e+01 
7.5000000e-01 3.0250001e+00 4.8500000e+01 
7.5000000e-01 3.0250001e+00 4.9000000e+01 
7.5000000e-01 3.0250001e+00 4.9500000e+01 
7.5000000e-01 3.0250001e+00 5.0000000e+01 
1.5000000e+00 3.0000000e+00 2.5000000e+01 
3.0000000e+00 2.0000000e+00 2.5000000e+01 
4.0000000e+00 2.0000000e+00 2.5000000e+01 
5.0000000e+00 2.0000000e+00 2.5000000e+01 
0.0000000e+00 3.0000000e+00 2.5000000e+01 
0.0000000e+00 0.0000000e+00 1.0000000e+00 
0.0000000e+00 0.0000000e+00 2.0000000e+00 
0.0000000e+00 0.0000000e+00 3.0000000e+00 
0.0000000e+00 0.0000000e+00 4.0000000e+00 
0.0000000e+00 0.0000000e+00 5.0000000e+00 
[...]
POINT_DATA 1919
FIELD FieldData 3
DISPLACEMENT 3 1919  float
0.0000000e+00 0.0000000e+00 0.0000000e+00 
0.0000000e+00 0.0000000e+00 0.0000000e+00 
0.0000000e+00 0.0000000e+00 0.0000000e+00 
0.0000000e+00 0.0000000e+00 0.0000000e+00 
-1.9093045e-06 6.4060856e-07 -5.6589780e-08 
-3.5685667e-07 8.2792656e-07 -4.8696495e-07 
0.0000000e+00 4.2539982e-06 0.0000000e+00 
0.0000000e+00 -1.0640363e-06 0.0000000e+00 
-1.3335278e-06 1.9892047e-06 5.5985138e-06 
-7.1209189e-07 4.2288190e-07 -5.2119469e-07 
5.8823673e-07 -2.4526364e-06 2.0085033e-06 
-2.3789717e-07 -4.0827044e-07 -1.7883718e-06 
0.0000000e+00 1.6252010e-05 0.0000000e+00 
0.0000000e+00 -8.2908031e-07 0.0000000e+00 
1.6629321e-05 3.3728513e-05 -2.1378737e-05 
-8.0128575e-07 -2.0404957e-07 5.2013877e-07 
-5.8919290e-05 2.3943307e-05 -1.7109754e-05 
-2.5378793e-07 -5.0008896e-07 -1.0833451e-08 
0.0000000e+00 1.1882044e-05 0.0000000e+00 
0.0000000e+00 2.6766764e-07 0.0000000e+00 
1.7554596e-05 2.3638015e-05 -4.4776229e-05 
4.2002473e-05 1.9721796e-05 -4.5353212e-05 
6.1471212e-05 7.4395643e-06 -6.1933810e-05 
3.7733946e-05 -1.3062045e-05 -5.5217552e-05 
4.8580132e-05 -3.2135762e-05 -4.7929057e-05 
3.6828453e-05 -4.0168456e-05 -4.4934011e-05 
5.6280867e-05 -3.7218786e-05 -3.5529636e-05 
4.6111694e-05 -2.9511102e-05 -3.2650998e-05 
6.7170076e-05 -3.0625579e-05 -3.7643862e-05 
4.0546009e-05 -4.4779488e-05 -2.5678633e-05 
7.0727147e-05 -5.6394230e-05 -2.2877499e-05 
4.2931679e-05 -3.7965412e-05 -1.2791589e-05 
7.3050345e-05 9.3101107e-06 1.1484422e-05 
4.3266198e-05 5.3361819e-05 1.1496575e-05 
7.5739503e-05 5.9427362e-05 1.8987581e-05 
4.9040049e-05 1.8312581e-05 3.9841776e-05 
7.1672090e-05 -5.3474570e-05 6.6774868e-05 
4.0124949e-05 -1.4692462e-04 9.6798947e-05 
5.1578456e-05 -3.2840259e-04 1.8498820e-04 
4.0257883e-06 -7.3767034e-04 1.5563771e-04 
-3.7132340e-05 -1.5320065e-03 2.7344443e-04 
-1.2590429e-04 -2.7445676e-03 1.7021122e-04 
-1.8042455e-04 -4.1600033e-03 2.8209214e-04 
-3.0461478e-04 -5.1437113e-03 9.2317496e-05 
-3.2705659e-04 -5.1336787e-03 4.1036838e-05 
-2.6277866e-04 -4.5758188e-03 7.9701051e-05 
-2.6251789e-04 -4.3331813e-03 2.7634725e-05 
-2.6182935e-04 -4.5254687e-03 -5.4653301e-05 
-2.7500818e-04 -4.6681501e-03 -1.0278267e-04 
-2.4128056e-04 -3.9571263e-03 -1.5333388e-04 
-1.8486627e-04 -2.6683977e-03 -3.1502618e-04 
-1.3334032e-04 -1.4137102e-03 -2.0192587e-04 
-6.5447945e-05 -5.0732045e-04 -2.2022903e-04 
-3.4159424e-05 2.0487483e-05 -1.9182611e-04 
5.9484256e-07 2.3831383e-04 -9.6375559e-05 
1.3515467e-05 2.5338714e-04 -7.6678720e-05 
1.9252702e-05 1.8188474e-04 -3.9328163e-05 
3.5825826e-05 1.0344562e-04 -3.9121864e-05 
3.1540796e-05 4.8520433e-05 -1.1851570e-05 
2.4484616e-05 1.1122577e-05 -5.0463291e-06 
2.8549455e-05 -1.6061684e-05 8.7783201e-06 
3.0120105e-05 -2.6376789e-05 5.7739203e-06 
4.6497677e-05 -1.8817431e-05 -2.7320159e-06 
4.0568073e-05 -9.3889576e-06 -1.2915442e-05 
4.9258713e-05 -1.0325381e-05 -3.6076530e-05 
3.2292872e-05 -1.9676290e-05 -2.8474313e-05 
7.1391980e-05 -1.9079387e-05 -3.1293504e-05 
6.9536261e-05 3.0230867e-06 -2.4257535e-05 
5.9395756e-05 3.3350330e-05 -2.6601740e-05 
5.5005330e-05 4.5351480e-05 -4.7080457e-06 
6.2524319e-05 2.8624205e-05 -1.1306322e-05 
5.9794133e-05 9.9875624e-06 -1.2582949e-05 
8.0588899e-05 2.4934297e-05 3.1114257e-06 
6.5471781e-05 7.9837191e-05 7.4994714e-06 
7.4297735e-05 1.2954119e-04 3.6224632e-05 
6.0250331e-05 1.1156125e-04 6.4332802e-05 
8.9123198e-05 1.2032789e-06 9.5616444e-05 
5.2675583e-05 -1.9057338e-04 1.2670038e-04 
5.2575804e-05 -4.7819634e-04 2.1048158e-04 
-9.5785099e-06 -9.3281828e-04 1.8600302e-04 
-5.1219449e-05 -1.7045470e-03 3.2827517e-04 
-1.3499231e-04 -2.8907338e-03 2.0203044e-04 
-2.0088285e-04 -4.3366035e-03 2.8991635e-04 
-3.2951389e-04 -5.3157844e-03 1.0701504e-04 
-3.6557997e-04 -5.1463875e-03 2.2255412e-05 
-3.2830384e-04 -4.5292834e-03 2.4379680e-05 
-3.2665802e-04 -4.3106060e-03 -3.9382398e-05 
-3.4629641e-04 -4.5691533e-03 -1.2785476e-04 
-3.5395517e-04 -4.7399597e-03 -2.3061900e-04 
-2.7685080e-04 -3.8634201e-03 -2.3369471e-04 
-1.9051650e-04 -2.4944616e-03 -4.0672530e-04 
-1.1841325e-04 -1.2344180e-03 -2.7750983e-04 
-2.0730902e-05 -3.6907941e-04 -2.7029542e-04 
7.1441236e-06 8.1926250e-05 -1.5211014e-04 
3.4608460e-05 2.2523777e-04 -1.1435759e-04 
5.5681900e-05 2.1060662e-04 -6.5687600e-05 
4.7836267e-05 1.4641891e-04 -3.8320257e-05 
4.4446948e-05 8.5833744e-05 -1.3974229e-05 
3.6634920e-05 3.4450575e-05 3.9073453e-05 
2.1125283e-05 -4.7780272e-06 6.3753323e-05 
4.9913237e-06 -2.3749037e-05 7.7613731e-05 
-1.9342540e-06 -2.2526639e-05 6.4974862e-05 
-1.6858858e-05 -1.2613302e-05 4.1283241e-05 
-1.2319796e-05 -5.4882221e-06 1.6832060e-05 
-1.2555929e-05 -1.8459231e-06 -2.4373480e-06 
-1.2310366e-05 2.3614664e-06 -7.8853491e-06 
-4.4083909e-06 8.4777312e-06 -7.0809292e-06 
-4.9597538e-06 1.1992837e-05 -2.8523757e-06 
-1.6669352e-06 9.3510298e-06 -4.2887809e-06 
1.3252783e-07 3.5669545e-06 -5.5102855e-06 
1.1986990e-07 -1.7631235e-07 -6.0645571e-06 
1.2371014e-06 -8.4715600e-07 -6.8576364e-06 
2.2400425e-06 -1.0576866e-06 -4.5062811e-06 
1.8068806e-06 -2.0076918e-06 -2.9176767e-06 
3.0902706e-06 -2.6759028e-06 -3.0525840e-08 
1.7984901e-06 -1.7499568e-06 2.1899307e-06 
4.2350868e-07 4.1201801e-08 1.8396858e-06 
-8.3763615e-07 8.1254893e-07 1.0027594e-06 
-1.2829927e-06 1.3389821e-07 7.0547848e-08 
0.0000000e+00 2.4060097e-05 0.0000000e+00 
0.0000000e+00 2.3716251e-05 0.0000000e+00 
0.0000000e+00 1.9574862e-05 0.0000000e+00 
0.0000000e+00 7.0532883e-06 0.0000000e+00 
0.0000000e+00 -1.3105028e-05 0.0000000e+00 
0.0000000e+00 -3.1898078e-05 0.0000000e+00 
0.0000000e+00 -4.0068870e-05 0.0000000e+00 
0.0000000e+00 -3.6871770e-05 0.0000000e+00 
0.0000000e+00 -2.9733992e-05 0.0000000e+00 
0.0000000e+00 -3.1402546e-05 0.0000000e+00 
0.0000000e+00 -4.5527126e-05 0.0000000e+00 
0.0000000e+00 -5.5735356e-05 0.0000000e+00 
0.0000000e+00 -3.6944188e-05 0.0000000e+00 
0.0000000e+00 9.8670762e-06 0.0000000e+00 
0.0000000e+00 5.2885287e-05 0.0000000e+00 
0.0000000e+00 5.8279682e-05 0.0000000e+00 
0.0000000e+00 1.7945325e-05 0.0000000e+00 
0.0000000e+00 -5.1397110e-05 0.0000000e+00 
0.0000000e+00 -1.4448253e-04 0.0000000e+00 
0.0000000e+00 -3.2654748e-04 0.0000000e+00 
0.0000000e+00 -7.4039568e-04 0.0000000e+00 
0.0000000e+00 -1.5412080e-03 0.0000000e+00 
0.0000000e+00 -2.7620811e-03 0.0000000e+00 
0.0000000e+00 -4.1729277e-03 0.0000000e+00 
0.0000000e+00 -5.1720827e-03 0.0000000e+00 
0.0000000e+00 -5.1591555e-03 0.0000000e+00 
0.0000000e+00 -4.6085110e-03 0.0000000e+00 
0.0000000e+00 -4.3550227e-03 0.0000000e+00 
0.0000000e+00 -4.5527257e-03 0.0000000e+00 
0.0000000e+00 -4.6923198e-03 0.0000000e+00 
0.0000000e+00 -3.9859666e-03 0.0000000e+00 
0.0000000e+00 -2.6843732e-03 0.0000000e+00 
0.0000000e+00 -1.4229757e-03 0.0000000e+00 
0.0000000e+00 -5.1075662e-04 0.0000000e+00 
0.0000000e+00 1.9286113e-05 0.0000000e+00 
0.0000000e+00 2.3858697e-04 0.0000000e+00 
0.0000000e+00 2.5534225e-04 0.0000000e+00 
0.0000000e+00 1.8377464e-04 0.0000000e+00 
0.0000000e+00 1.0443747e-04 0.0000000e+00 
0.0000000e+00 4.8267109e-05 0.0000000e+00 
0.0000000e+00 1.0605093e-05 0.0000000e+00 
0.0000000e+00 -1.5728430e-05 0.0000000e+00 
0.0000000e+00 -2.5725198e-05 0.0000000e+00 
0.0000000e+00 -1.8983776e-05 0.0000000e+00 
0.0000000e+00 -9.8771143e-06 0.0000000e+00 
0.0000000e+00 -1.1003081e-05 0.0000000e+00 
0.0000000e+00 -1.9619152e-05 0.0000000e+00 
0.0000000e+00 -1.8220986e-05 0.0000000e+00 
0.0000000e+00 3.6090787e-06 0.0000000e+00 
0.0000000e+00 3.2976644e-05 0.0000000e+00 
0.0000000e+00 4.4138193e-05 0.0000000e+00 
0.0000000e+00 2.7983970e-05 0.0000000e+00 
0.0000000e+00 1.0434695e-05 0.0000000e+00 
0.0000000e+00 2.6787231e-05 0.0000000e+00 
0.0000000e+00 8.1067243e-05 0.0000000e+00 
0.0000000e+00 1.2871831e-04 0.0000000e+00 
0.0000000e+00 1.1026713e-04 0.0000000e+00 
0.0000000e+00 1.2411264e-06 0.0000000e+00 
0.0000000e+00 -1.8947196e-04 0.0000000e+00 
0.0000000e+00 -4.7493822e-04 0.0000000e+00 
0.0000000e+00 -9.3331566e-04 0.0000000e+00 
0.0000000e+00 -1.7121667e-03 0.0000000e+00 
0.0000000e+00 -2.9117200e-03 0.0000000e+00 
0.0000000e+00 -4.3561491e-03 0.0000000e+00 
0.0000000e+00 -5.3469734e-03 0.0000000e+00 
0.0000000e+00 -5.1667332e-03 0.0000000e+00 
0.0000000e+00 -4.5576491e-03 0.0000000e+00 
0.0000000e+00 -4.3330733e-03 0.0000000e+00 
0.0000000e+00 -4.6038320e-03 0.0000000e+00 
0.0000000e+00 -4.7627711e-03 0.0000000e+00 
0.0000000e+00 -3.8880180e-03 0.0000000e+00 
0.0000000e+00 -2.5075185e-03 0.0000000e+00 
0.0000000e+00 -1.2441316e-03 0.0000000e+00 
0.0000000e+00 -3.7315005e-04 0.0000000e+00 
0.0000000e+00 8.1353348e-05 0.0000000e+00 
0.0000000e+00 2.2733469e-04 0.0000000e+00 
0.0000000e+00 2.1251706e-04 0.0000000e+00 
0.0000000e+00 1.4778924e-04 0.0000000e+00 
0.0000000e+00 8.5756968e-05 0.0000000e+00 
0.0000000e+00 3.4422676e-05 0.0000000e+00 
0.0000000e+00 -4.3005639e-06 0.0000000e+00 
0.0000000e+00 -2.3442664e-05 0.0000000e+00 
0.0000000e+00 -2.2748851e-05 0.0000000e+00 
0.0000000e+00 -1.3021547e-05 0.0000000e+00 
0.0000000e+00 -5.4816228e-06 0.0000000e+00 
0.0000000e+00 -1.6680890e-06 0.0000000e+00 
0.0000000e+00 2.4889416e-06 0.0000000e+00 
0.0000000e+00 8.3596078e-06 0.0000000e+00 
0.0000000e+00 1.1768345e-05 0.0000000e+00 
0.0000000e+00 9.3393892e-06 0.0000000e+00 
0.0000000e+00 3.7501845e-06 0.0000000e+00 
0.0000000e+00 -7.1177354e-08 0.0000000e+00 
0.0000000e+00 -9.3998557e-07 0.0000000e+00 
0.0000000e+00 -1.1356680e-06 0.0000000e+00 
0.0000000e+00 -1.9901479e-06 0.0000000e+00 
0.0000000e+00 -2.5929346e-06 0.0000000e+00 
0.0000000e+00 -1.7203970e-06 0.0000000e+00 
0.0000000e+00 -2.5908353e-08 0.0000000e+00 
0.0000000e+00 7.4059437e-07 0.0000000e+00 
0.0000000e+00 1.4146359e-07 0.0000000e+00 
0.0000000e+00 -4.3874391e-07 0.0000000e+00 
9.2997390e-05 -9.5504780e-05 -4.1759736e-06 
-1.3945153e-05 -3.4613578e-05 5.6449289e-06 
-1.9956011e-05 5.9743866e-06 1.9413842e-06 
-5.5307391e-06 -4.7273084e-06 -4.9064120e-06 
0.0000000e+00 8.6167413e-05 0.0000000e+00 
0.0000000e+00 0.0000000e+00 0.0000000e+00 
0.0000000e+00 0.0000000e+00 0.0000000e+00 
0.0000000e+00 0.0000000e+00 0.0000000e+00 
0.0000000e+00 0.0000000e+00 0.0000000e+00 
0.0000000e+00 0.0000000e+00 0.0000000e+00 
0.0000000e+00 0.0000000e+00 0.0000000e+00 
0.0000000e+00 0.0000000e+00 0.0000000e+00 
0.0000000e+00 0.0000000e+00 0.0000000e+00 
0.0000000e+00 0.0000000e+00 0.0000000e+00 
0.0000000e+00 0.0000000e+00 0.0000000e+00 
0.0000000e+00 0.0000000e+00 0.0000000e+00 
0.0000000e+00 0.0000000e+00 0.0000000e+00 
0.0000000e+00 0.0000000e+00 0.0000000e+00 
0.0000000e+00 0.0000000e+00 0.0000000e+00 
0.0000000e+00 0.0000000e+00 0.0000000e+00 
0.0000000e+00 0.0000000e+00 0.0000000e+00 
0.0000000e+00 0.0000000e+00 0.0000000e+00 
0.0000000e+00 0.0000000e+00 0.0000000e+00 
0.0000000e+00 0.0000000e+00 0.0000000e+00 
0.0000000e+00 0.0000000e+00 0.0000000e+00 
0.0000000e+00 0.0000000e+00 0.0000000e+00 
0.0000000e+00 0.0000000e+00 0.0000000e+00 
0.0000000e+00 0.0000000e+00 0.0000000e+00 
0.0000000e+00 0.0000000e+00 0.0000000e+00 
0.0000000e+00 0.0000000e+00 0.0000000e+00 
0.0000000e+00 0.0000000e+00 0.0000000e+00 
0.0000000e+00 0.0000000e+00 0.0000000e+00 
0.0000000e+00 0.0000000e+00 0.0000000e+00 
0.0000000e+00 0.0000000e+00 0.0000000e+00 
0.0000000e+00 0.0000000e+00 0.0000000e+00 
0.0000000e+00 0.0000000e+00 0.0000000e+00 
0.0000000e+00 0.0000000e+00 0.0000000e+00 
0.0000000e+00 0.0000000e+00 0.0000000e+00 
0.0000000e+00 0.0000000e+00 0.0000000e+00 
0.0000000e+00 0.0000000e+00 0.0000000e+00 
0.0000000e+00 0.0000000e+00 0.0000000e+00 
0.0000000e+00 0.0000000e+00 0.0000000e+00 
0.0000000e+00 0.0000000e+00 0.0000000e+00 
0.0000000e+00 0.0000000e+00 0.0000000e+00 
0.0000000e+00 0.0000000e+00 0.0000000e+00 
0.0000000e+00 0.0000000e+00 0.0000000e+00 
0.0000000e+00 0.0000000e+00 0.0000000e+00 
0.0000000e+00 0.0000000e+00 0.0000000e+00 
0.0000000e+00 0.0000000e+00 0.0000000e+00 
0.0000000e+00 0.0000000e+00 0.0000000e+00 
0.0000000e+00 0.0000000e+00 0.0000000e+00 
0.0000000e+00 0.0000000e+00 0.0000000e+00 
0.0000000e+00 0.0000000e+00 0.0000000e+00 
0.0000000e+00 0.0000000e+00 0.0000000e+00 
0.0000000e+00 0.0000000e+00 0.0000000e+00 
0.0000000e+00 0.0000000e+00 0.0000000e+00 
0.0000000e+00 0.0000000e+00 0.0000000e+00 
0.0000000e+00 0.0000000e+00 0.0000000e+00 
0.0000000e+00 0.0000000e+00 0.0000000e+00 
0.0000000e+00 0.0000000e+00 0.0000000e+00 
0.0000000e+00 0.0000000e+00 0.0000000e+00 
0.0000000e+00 0.0000000e+00 0.0000000e+00 
0.0000000e+00 0.0000000e+00 0.0000000e+00 
0.0000000e+00 0.0000000e+00 0.0000000e+00 
0.0000000e+00 0.0000000e+00 0.0000000e+00 
0.0000000e+00 0.0000000e+00 0.0000000e+00 
0.0000000e+00 0.0000000e+00 0.0000000e+00 
0.0000000e+00 0.0000000e+00 0.0000000e+00 
0.0000000e+00 0.0000000e+00 0.0000000e+00 
0.0000000e+00 0.0000000e+00 0.0000000e+00 
0.0000000e+00 0.0000000e+00 0.0000000e+00 
0.0000000e+00 0.0000000e+00 0.0000000e+00 
0.0000000e+00 0.0000000e+00 0.0000000e+00 
0.0000000e+00 0.0000000e+00 0.0000000e+00 
0.0000000e+00 0.0000000e+00 0.0000000e+00 
0.0000000e+00 0.0000000e+00 0.0000000e+00 
0.0000000e+00 0.0000000e+00 0.0000000e+00 
0.0000000e+00 0.0000000e+00 0.0000000e+00 
0.0000000e+00 0.0000000e+00 0.0000000e+00 
0.0000000e+00 0.0000000e+00 0.0000000e+00 
0.0000000e+00 0.0000000e+00 0.0000000e+00 
0.0000000e+00 0.0000000e+00 0.0000000e+00 
0.0000000e+00 0.0000000e+00 0.0000000e+00 
0.0000000e+00 0.0000000e+00 0.0000000e+00 
0.0000000e+00 0.0000000e+00 0.0000000e+00 
0.0000000e+00 0.0000000e+00 0.0000000e+00 
0.0000000e+00 0.0000000e+00 0.0000000e+00 
0.0000000e+00 0.0000000e+00 0.0000000e+00 
0.0000000e+00 0.0000000e+00 0.0000000e+00 
0.0000000e+00 0.0000000e+00 0.0000000e+00 
0.0000000e+00 0.0000000e+00 0.0000000e+00 
0.0000000e+00 0.0000000e+00 0.0000000e+00 
0.0000000e+00 0.0000000e+00 0.0000000e+00 
0.0000000e+00 0.0000000e+00 0.0000000e+00 
0.0000000e+00 0.0000000e+00 0.0000000e+00 
0.0000000e+00 0.0000000e+00 0.0000000e+00 
0.0000000e+00 0.0000000e+00 0.0000000e+00 
0.0000000e+00 0.0000000e+00 0.0000000e+00 
0.0000000e+00 0.0000000e+00 0.0000000e+00 
0.0000000e+00 0.0000000e+00 0.0000000e+00 
0.0000000e+00 0.0000000e+00 0.0000000e+00 
0.0000000e+00 0.0000000e+00 0.0000000e+00 
0.0000000e+00 0.0000000e+00 0.0000000e+00 
0.0000000e+00 0.0000000e+00 0.0000000e+00 
0.0000000e+00 0.0000000e+00 0.0000000e+00 
0.0000000e+00 0.0000000e+00 0.0000000e+00 
0.0000000e+00 0.0000000e+00 0.0000000e+00 
0.0000000e+00 0.0000000e+00 0.0000000e+00 
0.0000000e+00 0.0000000e+00 0.0000000e+00 
0.0000000e+00 0.0000000e+00 0.0000000e+00 
0.0000000e+00 0.0000000e+00 0.0000000e+00 
-1.3439931e-06 -3.1763034e-06 4.6076489e-06 
-5.0609865e-06 -3.1305776e-06 8.4771036e-06 
-8.9178066e-06 3.0205942e-07 1.7193264e-06 
-8.3917239e-06 -3.4552552e-06 -1.3776424e-06 
-1.1203985e-05 -1.6650419e-06 -1.9279123e-06 
-2.7287326e-06 9.1933962e-06 -5.1081424e-06 
-5.9687136e-06 -7.1874174e-06 -5.1929587e-06 
-3.2663318e-06 -6.1343067e-06 -9.8107512e-06 
7.9421288e-06 -8.2473171e-06 -1.6780239e-05 
2.0228694e-05 -1.7619621e-05 -1.8974528e-05 
3.4197990e-05 -1.7487560e-05 -1.6754673e-05 
4.8471429e-05 -2.0324609e-05 -1.0267745e-05 
5.3285399e-05 -1.8412698e-05 3.4664872e-06 
4.3740747e-05 -1.1929506e-05 1.2546504e-05 
2.9735729e-05 -5.1009356e-06 1.7246613e-05 
1.7217411e-05 -3.8365729e-06 1.5275131e-05 
9.5942014e-06 6.9510412e-07 1.1190531e-05 
5.2193946e-06 2.5006027e-06 4.3696405e-06 
1.5501369e-06 -1.3152707e-06 1.0411730e-06 
-1.7624523e-06 -5.4525831e-06 1.7776389e-07 
-8.6647879e-07 -7.8009689e-06 -8.2403108e-07 
-2.9740727e-06 -3.7793016e-06 6.7892838e-06 
-5.8607798e-06 -1.7626020e-06 6.8781428e-06 
-4.4271810e-06 -4.3189066e-06 3.9044435e-06 
-3.5556313e-06 5.4140389e-07 4.0113523e-06 
-5.7211505e-06 1.1759379e-05 -6.5606656e-07 
-4.5221185e-07 -3.7859645e-06 -4.4751164e-06 
1.8388736e-06 -5.5577170e-06 -1.2103224e-05 
1.5158858e-05 -4.2258825e-06 -1.7030714e-05 
2.8129980e-05 -2.0430522e-05 -1.8143275e-05 
3.8973634e-05 -2.4803894e-05 -1.9251065e-05 
5.2509065e-05 -1.9925877e-05 -1.0904251e-05 
4.9920021e-05 -1.8774945e-05 -4.2907764e-06 
4.6225909e-05 -1.1179511e-05 7.8129688e-06 
3.2937292e-05 -6.2529107e-06 1.1962837e-05 
1.6598298e-05 -2.0738469e-06 1.2256036e-05 
6.6314519e-06 -2.1003593e-06 6.7642777e-06 
1.0591750e-06 2.5009565e-06 2.8839929e-07 
-9.0469047e-07 9.1304014e-07 -2.0865018e-06 
1.6425760e-07 -8.3942678e-07 -3.3428682e-06 
9.3194183e-07 3.9534720e-07 -8.5232863e-08 
1.3344588e-07 1.2811389e-06 3.9085503e-06 
-9.4759645e-07 4.0425462e-07 4.2059869e-06 
4.2226356e-09 -3.6356739e-06 3.3785088e-06 
7.5129140e-07 -1.6292021e-06 2.6659461e-06 
7.5485343e-07 8.7502832e-07 1.1978136e-06 
6.9436373e-07 1.0971438e-06 3.3430331e-07 
-6.2473070e-08 -5.9816745e-07 -7.5667714e-07 
-4.5700968e-08 -2.7885372e-07 -1.0713788e-06 
0.0000000e+00 3.9112387e-05 0.0000000e+00 
0.0000000e+00 5.1479576e-05 0.0000000e+00 
0.0000000e+00 6.9455287e-05 0.0000000e+00 
0.0000000e+00 6.4042921e-05 0.0000000e+00 
0.0000000e+00 4.0952233e-05 0.0000000e+00 
0.0000000e+00 7.6663127e-05 0.0000000e+00 
0.0000000e+00 5.8973616e-05 0.0000000e+00 
0.0000000e+00 2.4226241e-05 0.0000000e+00 
0.0000000e+00 2.7460910e-05 0.0000000e+00 
0.0000000e+00 -1.0603089e-04 0.0000000e+00 
0.0000000e+00 -2.7753584e-04 0.0000000e+00 
0.0000000e+00 -4.4482417e-04 0.0000000e+00 
0.0000000e+00 -5.5053906e-04 0.0000000e+00 
0.0000000e+00 -5.0375349e-04 0.0000000e+00 
0.0000000e+00 -4.1339523e-04 0.0000000e+00 
0.0000000e+00 -2.3084274e-04 0.0000000e+00 
0.0000000e+00 -4.0847917e-05 0.0000000e+00 
0.0000000e+00 2.0777883e-05 0.0000000e+00 
0.0000000e+00 2.3166021e-05 0.0000000e+00 
0.0000000e+00 4.0333605e-05 0.0000000e+00 
0.0000000e+00 4.9343340e-05 0.0000000e+00 
0.0000000e+00 3.1684664e-05 0.0000000e+00 
0.0000000e+00 3.5397123e-05 0.0000000e+00 
0.0000000e+00 6.5002743e-05 0.0000000e+00 
0.0000000e+00 2.4930111e-07 0.0000000e+00 
0.0000000e+00 5.1327436e-07 0.0000000e+00 
0.0000000e+00 5.4363787e-05 0.0000000e+00 
0.0000000e+00 1.0419132e-06 0.0000000e+00 
0.0000000e+00 7.0457105e-07 0.0000000e+00 
0.0000000e+00 -7.2008937e-05 0.0000000e+00 
0.0000000e+00 -3.2070052e-04 0.0000000e+00 
0.0000000e+00 -4.9393089e-04 0.0000000e+00 
0.0000000e+00 -5.3032057e-04 0.0000000e+00 
0.0000000e+00 -5.3360488e-04 0.0000000e+00 
0.0000000e+00 -4.0924287e-04 0.0000000e+00 
0.0000000e+00 -1.6197264e-04 0.0000000e+00 
0.0000000e+00 -2.4791501e-05 0.0000000e+00 
0.0000000e+00 3.2890948e-05 0.0000000e+00 
0.0000000e+00 2.1086633e-05 0.0000000e+00 
0.0000000e+00 8.2175284e-06 0.0000000e+00 
0.0000000e+00 -3.9472206e-06 0.0000000e+00 
0.0000000e+00 -1.4587551e-05 0.0000000e+00 
0.0000000e+00 -6.3088946e-06 0.0000000e+00 
0.0000000e+00 6.7914916e-06 0.0000000e+00 
0.0000000e+00 4.8590309e-06 0.0000000e+00 
0.0000000e+00 -1.7783771e-06 0.0000000e+00 
0.0000000e+00 -1.7589754e-06 0.0000000e+00 
0.0000000e+00 1.3935797e-06 0.0000000e+00 
0.0000000e+00 1.0342195e-06 0.0000000e+00 
2.0214552e-06 -1.2534452e-06 7.6517489e-07 
8.2984576e-07 -2.1571707e-06 -3.3489932e-06 
-5.5928554e-06 -9.7290022e-06 -1.3901146e-05 
-1.0573895e-05 1.7340809e-06 -1.2316962e-05 
3.8185981e-08 3.8946717e-07 -9.4067224e-07 
-1.2866762e-08 -3.0739892e-07 -1.0135109e-06 
4.3690204e-07 8.9343381e-08 4.2325585e-08 
4.2376607e-07 -1.0605265e-07 6.0923179e-07 
-2.7257840e-06 -1.5586567e-06 5.4378938e-06 
-7.4165996e-07 5.9817967e-07 -1.9588954e-06 
2.3513865e-06 5.5336013e-06 -2.5655356e-05 
1.3259570e-06 -7.7948744e-06 -1.2349306e-05 
0.0000000e+00 5.2662002e-05 0.0000000e+00 
0.0000000e+00 1.0363993e-04 0.0000000e+00 
0.0000000e+00 1.2183773e-04 0.0000000e+00 
0.0000000e+00 1.1306394e-04 0.0000000e+00 
0.0000000e+00 9.6165561e-05 0.0000000e+00 
0.0000000e+00 1.3043295e-04 0.0000000e+00 
0.0000000e+00 1.1417958e-04 0.0000000e+00 
0.0000000e+00 8.6255699e-05 0.0000000e+00 
0.0000000e+00 4.7436057e-05 0.0000000e+00 
0.0000000e+00 -2.6950781e-04 0.0000000e+00 
0.0000000e+00 -6.5029395e-04 0.0000000e+00 
0.0000000e+00 -9.8263368e-04 0.0000000e+00 
0.0000000e+00 -1.1064509e-03 0.0000000e+00 
0.0000000e+00 -1.0385903e-03 0.0000000e+00 