# vtk DataFile Version 4.0
vtk output
ASCII
DATASET UNSTRUCTURED_GRID
POINTS 1919 float
0.0000000e+00 0.0000000e+00 0.0000000e+00 
0.0000000e+00 0.0000000e+00 5.0000000e+01 
5.0000000e+00 0.0000000e+00 0.0000000e+00 
5.0000000e+00 0.0000000e+00 5.0000000e+01 
5.0000000e+00 1.0000000e+00 0.0000000e+00 
5.0000000e+00 1.0000000e+00 5.0000000e+01 
0.0000000e+00 1.0000000e+00 0.0000000e+00 
0.0000000e+00 1.0000000e+00 5.0000000e+01 
5.0000000e+00 2.0000000e+00 0.0000000e+00 
5.0000000e+00 2.0000000e+00 5.0000000e+01 
3.0000000e+00 2.0000000e+00 0.0000000e+00 
3.0000000e+00 2.0000000e+00 5.0000000e+01 
0.0000000e+00 2.0000000e+00 0.0000000e+00 
0.0000000e+00 2.0000000e+00 5.0000000e+01 
1.5000000e+00 3.0000000e+00 0.0000000e+00 
1.5000000e+00 3.0000000e+00 5.0000000e+01 
7.5000000e-01 3.0000000e+00 0.0000000e+00 
7.5000000e-01 3.0000000e+00 5.0000000e+01 
0.0000000e+00 3.0000000e+00 0.0000000e+00 
0.0000000e+00 3.0000000e+00 5.0000000e+01 
7.5000000e-01 3.0000000e+00 5.0000000e-01 
7.5000000e-01 3.0000000e+00 1.0000000e+00 
7.5000000e-01 3.0000000e+00 1.5000000e+00 
7.5000000e-01 3.0000000e+00 2.0000000e+00 
7.5000000e-01 3.0000000e+00 2.5000000e+00 
7.5000000e-01 3.0000000e+00 3.0000000e+00 
7.5000000e-01 3.0000000e+00 3.5000000e+00 
7.5000000e-01 3.0000000e+00 4.0000000e+00 
7.5000000e-01 3.0000000e+00 4.5000000e+00 
7.5000000e-01 3.0000000e+00 5.0000000e+00 
7.5000000e-01 3.0000000e+00 5.5000000e+00 
7.5000000e-01 3.0000000e+00 6.0000000e+00 
7.5000000e-01 3.0000000e+00 6.5000000e+00 
7.5000000e-01 3.0000000e+00 7.0000000e+00 
7.5000000e-01 3.0000000e+00 7.5000000e+00 
7.5000000e-01 3.0000000e+00 8.0000000e+00 
7.5000000e-01 3.0000000e+00 8.5000000e+00 
7.5000000e-01 3.0000000e+00 9.0000000e+00 
7.5000000e-01 3.0000000e+00 9.5000000e+00 
7.5000000e-01 3.0000000e+00 1.0000000e+01 
7.5000000e-01 3.0000000e+00 1.0500000e+01 
7.5000000e-01 3.0000000e+00 1.1000000e+01 
7.5000000e-01 3.0000000e+00 1.1500000e+01 
7.5000000e-01 3.0000000e+00 1.2000000e+01 
7.5000000e-01 3.0000000e+00 1.2500000e+01 
7.5000000e-01 3.0000000e+00 1.3000000e+01 
7.5000000e-01 3.0000000e+00 1.3500000e+01 
7.5000000e-01 3.0000000e+00 1.4000000e+01 
7.5000000e-01 3.0000000e+00 1.4500000e+01 
7.5000000e-01 3.0000000e+00 1.5000000e+01 
7.5000000e-01 3.0000000e+00 1.5500000e+01 
7.5000000e-01 3.0000000e+00 1.6000000e+01 
7.5000000e-01 3.0000000e+00 1.6500000e+01 
7.5000000e-01 3.0000000e+00 1.7000000e+01 
7.5000000e-01 3.0000000e+00 1.7500000e+01 
7.5000000e-01 3.0000000e+00 1.8000000e+01 
7.5000000e-01 3.0000000e+00 1.8500000e+01 
7.5000000e-01 3.0000000e+00 1.9000000e+01 
7.5000000e-01 3.0000000e+00 1.9500000e+01 
7.5000000e-01 3.0000000e+00 2.0000000e+01 
7.5000000e-01 3.0000000e+00 2.0500000e+01 
7.5000000e-01 3.0000000e+00 2.1000000e+01 
7.5000000e-01 3.0000000e+00 2.1500000e+01 
7.5000000e-01 3.0000000e+00 2.2000000e+01 
7.5000000e-01 3.0000000e+00 2.2500000e+01 
7.5000000e-01 3.0000000e+00 2.3000000e+01 
7.5000000e-01 3.0000000e+00 2.3500000e+01 
7.5000000e-01 3.0000000e+00 2.4000000e+01 
7.5000000e-01 3.0000000e+00 2.4500000e+01 
7.5000000e-01 3.0000000e+00 2.5000000e+01 
7.5000000e-01 3.0000000e+00 2.5500000e+01 
7.5000000e-01 3.0000000e+00 2.6000000e+01 
7.5000000e-01 3.0000000e+00 2.6500000e+01 
7.5000000e-01 3.0000000e+00 2.7000000e+01 
7.5000000e-01 3.0000000e+00 2.7500000e+01 
7.5000000e-01 3.0000000e+00 2.8000000e+01 
7.5000000e-01 3.0000000e+00 2.8500000e+01 
7.5000000e-01 3.0000000e+00 2.9000000e+01 
7.5000000e-01 3.0000000e+00 2.9500000e+01 
7.5000000e-01 3.0000000e+00 3.0000000e+01 
7.5000000e-01 3.0000000e+00 3.0500000e+01 
7.5000000e-01 3.0000000e+00 3.1000000e+01 
7.5000000e-01 3.0000000e+00 3.1500000e+01 
7.5000000e-01 3.0000000e+00 3.2000000e+01 
7.5000000e-01 3.0000000e+00 3.2500000e+01 
7.5000000e-01 3.0000000e+00 3.3000000e+01 
7.5000000e-01 3.0000000e+00 3.3500000e+01 
7.5000000e-01 3.0000000e+00 3.4000000e+01 
7.5000000e-01 3.0000000e+00 3.4500000e+01 
7.5000000e-01 3.0000000e+00 3.5000000e+01 
7.5000000e-01 3.0000000e+00 3.5500000e+01 
7.5000000e-01 3.0000000e+00 3.6000000e+01 
7.5000000e-01 3.0000000e+00 3.6500000e+01 
7.5000000e-01 3.0000000e+00 3.7000000e+01 
7.5000000e-01 3.0000000e+00 3.7500000e+01 
7.5000000e-01 3.0000000e+00 3.8000000e+01 
7.5000000e-01 3.0000000e+00 3.8500000e+01 
7.5000000e-01 3.0000000e+00 3.9000000e+01 
7.5000000e-01 3.0000000e+00 3.9500000e+01 
7.5000000e-01 3.0000000e+00 4.0000000e+01 
7.5000000e-01 3.0000000e+00 4.0500000e+01 
7.5000000e-01 3.0000000e+00 4.1000000e+01 
7.5000000e-01 3.0000000e+00 4.1500000e+01 
7.5000000e-01 3.0000000e+00 4.2000000e+01 
7.5000000e-01 3.0000000e+00 4.2500000e+01 
7.5000000e-01 3.0000000e+00 4.3000000e+01 
7.5000000e-01 3.0000000e+00 4.3500000e+01 
7.5000000e-01 3.0000000e+00 4.4000000e+01 
7.5000000e-01 3.0000000e+00 4.4500000e+01 
7.5000000e-01 3.0000000e+00 4.5000000e+01 
7.5000000e-01 3.0000000e+00 4.5500000e+01 
7.5000000e-01 3.0000000e+00 4.6000000e+01 
7.5000000e-01 3.0000000e+00 4.6500000e+01 
7.5000000e-01 3.0000000e+00 4.7000000e+01 
7.5000000e-01 3.0000000e+00 4.7500000e+01 
7.5000000e-01 3.0000000e+00 4.8000000e+01 
7.5000000e-01 3.0000000e+00 4.8500000e+01 
7.5000000e-01 3.0000000e+00 4.9000000e+01 
7.5000000e-01 3.0000000e+00 4.9500000e+01 
7.5000000e-01 3.0250001e+00 0.0000000e+00 
7.5000000e-01 3.0250001e+00 5.0000000e-01 
7.5000000e-01 3.0250001e+00 1.0000000e+00 
7.5000000e-01 3.0250001e+00 1.5000000e+00 
7.5000000e-01 3.0250001e+00 2.0000000e+00 
7.5000000e-01 3.0250001e+00 2.5000000e+00 
7.5000000e-01 3.0250001e+00 3.0000000e+00 
7.5000000e-01 3.0250001e+00 3.5000000e+00 
7.5000000e-01 3.0250001e+00 4.0000000e+00 
7.5000000e-01 3.0250001e+00 4.5000000e+00 
7.5000000e-01 3.0250001e+00 5.0000000e+00 
7.5000000e-01 3.0250001e+00 5.5000000e+00 
7.5000000e-01 3.0250001e+00 6.0000000e+00 
7.5000000e-01 3.0250001e+00 6.5000000e+00 
7.5000000e-01 3.0250001e+00 7.0000000e+00 
7.5000000e-01 3.0250001e+00 7.5000000e+00 
7.5000000e-01 3.0250001e+00 8.0000000e+00 
7.5000000e-01 3.0250001e+00 8.5000000e+00 
7.5000000e-01 3.0250001e+00 9.0000000e+00 
7.5000000e-01 3.0250001e+00 9.5000000e+00 
7.5000000e-01 3.0250001e+00 1.0000000e+01 
7.5000000e-01 3.0250001e+00 1.0500000e+01 
7.5000000e-01 3.0250001e+00 1.1000000e+01 
7.5000000e-01 3.0250001e+00 1.1500000e+01 
7.5000000e-01 3.0250001e+00 1.2000000e+01 
7.5000000e-01 3.0250001e+00 1.2500000e+01 
7.5000000e-01 3.0250001e+00 1.3000000e+01 
7.5000000e-01 3.0250001e+00 1.3500000e+01 
7.5000000e-01 3.0250001e+00 1.4000000e+01 
7.5000000e-01 3.0250001e+00 1.4500000e+01 
7.5000000e-01 3.0250001e+00 1.5000000e+01 
7.5000000e-01 3.0250001e+00 1.5500000e+01 
7.5000000e-01 3.0250001e+00 1.6000000e+01 
7.5000000e-01 3.0250001e+00 1.6500000e+01 
7.5000000e-01 3.0250001e+00 1.7000000e+01 
7.5000000e-01 3.0250001e+00 1.7500000e+01 
7.5000000e-01 3.0250001e+00 1.8000000e+01 
7.5000000e-01 3.0250001e+00 1.8500000e+01 
7.5000000e-01 3.0250001e+00 1.9000000e+01 
7.5000000e-01 3.0250001e+00 1.9500000e+01 
7.5000000e-01 3.0250001e+00 2.0000000e+01 
7.5000000e-01 3.0250001e+00 2.0500000e+01 
7.5000000e-01 3.0250001e+00 2.1000000e+01 
7.5000000e-01 3.0250001e+00 2.1500000e+01 
7.5000000e-01 3.0250001e+00 2.2000000e+01 
7.5000000e-01 3.0250001e+00 2.2500000e+01 
7.5000000e-01 3.0250001e+00 2.3000000e+01 
7.5000000e-01 3.0250001e+00 2.3500000e+01 
7.5000000e-01 3.0250001e+00 2.4000000e+01 
7.5000000e-01 3.0250001e+00 2.4500000e+01 
7.5000000e-01 3.0250001e+00 2.5000000e+01 
7.5000000e-01 3.0250001e+00 2.5500000e+01 
7.5000000e-01 3.0250001e+00 2.6000000e+01 
7.5000000e-01 3.0250001e+00 2.6500000e+01 
7.5000000e-01 3.0250001e+00 2.7000000e+01 
7.5000000e-01 3.0250001e+00 2.7500000e+01 
7.5000000e-01 3.0250001e+00 2.8000000e+01 
7.5000000e-01 3.0250001e+00 2.8500000e+01 
7.5000000e-01 3.0250001e+00 2.9000000e+01 
7.5000000e-01 3.0250001e+00 2.9500000e+01 
7.5000000e-01 3.0250001e+00 3.0000000e+01 
7.5000000e-01 3.0250001e+00 3.0500000e+01 
7.5000000e-01 3.0250001e+00 3.1000000e+01 
7.5000000e-01 3.0250001e+00 3.1500000e+01 
7.5000000e-01 3.0250001e+00 3.2000000e+01 
7.5000000e-01 3.0250001e+00 3.2500000e+01 
7.5000000e-01 3.0250001e+00 3.3000000e+01 
7.5000000e-01 3.0250001e+00 3.3500000e+01 
7.5000000e-01 3.0250001e+00 3.4000000e+01 
7.5000000e-01 3.0250001e+00 3.4500000e+01 
7.5000000e-01 3.0250001e+00 3.5000000e+01 
7.5000000e-01 3.0250001e+00 3.5500000e+01 
7.5000000e-01 3.0250001e+00 3.6000000e+01 
7.5000000e-01 3.0250001e+00 3.6500000e+01 
7.5000000e-01 3.0250001e+00 3.7000000e+01 
7.5000000e-01 3.0250001e+00 3.7500000e+01 
7.5000000e-01 3.0250001e+00 3.8000000e+01 
7.5000000e-01 3.0250001e+00 3.8500000e+01 
7.5000000e-01 3.0250001e+00 3.9000000e+01 
7.5000000e-01 3.0250001e+00 3.9500000e+01 
7.5000000e-01 3.0250001e+00 4.0000000e+01 
7.5000000e-01 3.0250001e+00 4.0500000e+01 
7.5000000e-01 3.0250001e+00 4.1000000e+01 
7.5000000e-01 3.0250001e+00 4.1500000e+01 
7.5000000e-01 3.0250001e+00 4.2000000e+01 
7.5000000e-01 3.0250001e+00 4.2500000e+01 
7.5000000e-01 3.0250001e+00 4.3000000e+01 
7.5000000e-01 3.0250001e+00 4.3500000e+01 
7.5000000e-01 3.0250001e+00 4.4000000e+01 
7.5000000e-01 3.0250001e+00 4.4500000e+01 
7.5000000e-01 3.0250001e+00 4.5000000e+01 
7.5000000e-01 3.0250001e+00 4.5500000e+01 
7.5000000e-01 3.0250001e+00 4.6000000e+01 
7.5000000e-01 3.0250001e+00 4.6500000e+01 
7.5000000e-01 3.0250001e+00 4.7000000e+01 
7.5000000e-01 3.0250001e+00 4.7500000e+01 
7.5000000e-01 3.0250001e+00 4.8000000e+01 
7.5000000e-01 3.0250001e+00 4.8500000e+01 
7.5000000e-01 3.0250001e+00 4.9000000e+01 
7.5000000e-01 3.0250001e+00 4.9500000e+01 
7.5000000e-01 3.0250001e+00 5.0000000e+01 
1.5000000e+00 3.0000000e+00 2.5000000e+01 
3.0000000e+00 2.0000000e+00 2.5000000e+01 
4.0000000e+00 2.0000000e+00 2.5000000e+01 
5.0000000e+00 2.0000000e+00 2.5000000e+01 
0.0000000e+00 3.0000000e+00 2.5000000e+01 
0.0000000e+00 0.0000000e+00 1.0000000e+00 
0.0000000e+00 0.0000000e+00 2.0000000e+00 
0.0000000e+00 0.0000000e+00 3.0000000e+00 
0.0000000e+00 0.0000000e+00 4.0000000e+00 
0.0000000e+00 0.0000000e+00 5.0000000e+00 
[...]
POINT_DATA 1919
FIELD FieldData 3
DISPLACEMENT 3 1919  float
0.0000000e+00 0.0000000e+00 0.0000000e+00 
0.0000000e+00 0.0000000e+00 0.0000000e+00 
0.0000000e+00 0.0000000e+00 0.0000000e+00 
0.0000000e+00 0.0000000e+00 0.0000000e+00 
-5.1920611e-06 -6.0980028e-06 4.0979276e-07 
-2.2509641e-07 1.5186708e-07 -5.1080342e-08 
0.0000000e+00 -1.8789189e-05 0.0000000e+00 
0.0000000e+00 3.2455404e-07 0.0000000e+00 
-7.3717101e-06 -1.5087669e-05 4.3196601e-07 
-1.9434214e-07 1.5962577e-08 3.4008784e-07 
-1.7602186e-05 -8.5516322e-06 6.1401474e-06 
-5.9991571e-08 -1.1316513e-07 -8.9572680e-08 
0.0000000e+00 -2.9955694e-05 0.0000000e+00 
0.0000000e+00 5.2094441e-07 0.0000000e+00 
-5.0569442e-06 -4.3820772e-05 6.0113078e-05 
-1.8488933e-07 -7.3031521e-07 2.7833050e-07 
6.8026740e-05 -2.9046996e-05 3.9370982e-05 
1.5488391e-07 2.6109233e-06 2.3236646e-07 
0.0000000e+00 4.3839940e-05 0.0000000e+00 
0.0000000e+00 -1.6652629e-06 0.0000000e+00 
2.2403807e-05 -4.6657620e-05 8.0423772e-05 
1.9103218e-06 -9.0077709e-05 1.1056594e-04 
-3.6332345e-05 -1.3934457e-04 8.5327134e-05 
-7.1402144e-05 -1.8190929e-04 7.6905635e-05 
-1.1377672e-04 -2.1230603e-04 8.6948523e-05 
-1.2162889e-04 -2.2833144e-04 7.4724107e-05 
-1.3920154e-04 -2.3761643e-04 7.4743919e-05 
-1.3453166e-04 -2.5248644e-04 4.9672773e-05 
-1.6525311e-04 -2.6492315e-04 2.8476205e-05 
-1.3084113e-04 -2.5134065e-04 3.3243410e-05 
-1.7979923e-04 -2.0822931e-04 3.9948085e-05 
-1.2861693e-04 -1.5716990e-04 4.1845546e-05 
-1.6260044e-04 -1.5106752e-04 7.9560552e-05 
-1.4372435e-04 -2.4552940e-04 6.9762689e-05 
-2.1816861e-04 -4.5514360e-04 1.0859346e-04 
-2.0849108e-04 -7.7154080e-04 1.0571763e-04 
-2.5633999e-04 -1.2485007e-03 1.8828831e-04 
-2.5632198e-04 -1.9872885e-03 9.9927202e-05 
-2.8882554e-04 -3.0829001e-03 1.8406364e-04 
-3.1393926e-04 -4.3993443e-03 -1.7770359e-06 
-3.4717971e-04 -5.3474819e-03 -2.4466328e-05 
-3.8053349e-04 -5.1199328e-03 -1.5618509e-04 
-2.7294303e-04 -4.5269001e-03 -2.3500084e-04 
-2.1541903e-04 -4.2773392e-03 -2.0807487e-04 
-1.3145500e-04 -4.5610964e-03 -1.7060488e-04 
-1.4533047e-04 -4.6723727e-03 -1.3012957e-04 
-1.1305747e-04 -3.7543147e-03 -1.8979298e-04 
-1.0029884e-04 -2.3537409e-03 -5.9847527e-05 
-5.4408836e-05 -1.1179668e-03 -1.3090245e-04 
-2.2238379e-05 -2.8717867e-04 -3.4597480e-05 
-7.0200499e-06 1.2317447e-04 -3.8584021e-05 
-2.3378767e-05 2.4161985e-04 -3.5433070e-06 
-2.1646203e-05 2.2576685e-04 7.7903205e-06 
-3.9538932e-05 1.7197120e-04 2.6387048e-05 
-5.3146614e-05 1.1123107e-04 -4.0158222e-05 
-1.7304297e-05 5.3695687e-05 -6.9759430e-05 
3.4571640e-05 1.0602260e-05 -7.9294012e-05 
4.2895143e-05 -1.1287563e-05 -7.2674062e-05 
7.7107688e-05 -1.4896538e-05 -2.5680785e-05 
5.5136730e-05 -1.4084084e-05 1.5669357e-05 
2.3540109e-05 -2.7671887e-05 6.5642016e-05 
9.9075087e-06 -6.4911314e-05 8.3827130e-05 
-2.0216366e-05 -1.2342150e-04 9.3488205e-05 
-6.1186824e-05 -1.8897692e-04 1.1716616e-04 
-1.1448227e-04 -2.3647584e-04 9.1227885e-05 
-1.1771609e-04 -2.4162553e-04 8.1450089e-05 
-1.3630229e-04 -2.0469843e-04 5.3868796e-05 
-9.9515513e-05 -1.6784426e-04 5.8147838e-05 
-1.5184218e-04 -1.6449610e-04 1.9886373e-05 
-1.1941839e-04 -1.8558926e-04 1.0533369e-05 
-1.6426214e-04 -1.9612732e-04 3.7516336e-05 
-1.1377680e-04 -1.6715006e-04 3.7398240e-05 
-1.4856174e-04 -1.3320804e-04 6.2645042e-05 
-1.4469192e-04 -1.9252660e-04 6.4134656e-05 
-1.9694415e-04 -4.2655662e-04 1.0384397e-04 
-1.9548049e-04 -8.5621409e-04 1.0592780e-04 
-2.5319366e-04 -1.4901469e-03 1.7537977e-04 
-2.8611126e-04 -2.3331388e-03 7.3116076e-05 
-3.2541700e-04 -3.4224670e-03 1.5376843e-04 
-4.0441952e-04 -4.6266648e-03 -4.1779676e-05 
-3.9083551e-04 -5.4357774e-03 -1.0575226e-04 
-3.6826180e-04 -5.1369099e-03 -1.6034268e-04 
-2.8819733e-04 -4.5855790e-03 -2.4423021e-04 
-2.7103399e-04 -4.3759509e-03 -2.3324561e-04 
-2.1408113e-04 -4.6016779e-03 -1.9164577e-04 
-2.3097494e-04 -4.5681214e-03 -1.4624785e-04 
-1.5147506e-04 -3.5190294e-03 -2.5547176e-04 
-8.0902995e-05 -2.0755287e-03 -7.9023099e-05 
-5.0389910e-05 -9.2271145e-04 -1.4617630e-04 
-1.6935181e-05 -2.1084238e-04 -2.5909789e-05 
1.0047334e-05 1.2232950e-04 -1.8123093e-05 
-5.4472929e-07 2.2482613e-04 2.7382754e-05 
-1.1989610e-05 2.1348825e-04 6.0484919e-05 
-2.4510808e-05 1.4810752e-04 5.3518099e-05 
-5.8843449e-05 6.8142450e-05 2.1673393e-05 
-4.2012696e-05 8.6556538e-06 -9.8774537e-05 
-1.0636348e-05 -1.2482654e-05 -8.3773419e-05 
3.0401932e-06 -4.2713891e-06 -6.4812892e-05 
3.2725206e-05 8.2419465e-06 -3.5406611e-05 
3.2321601e-05 1.1912270e-05 -1.8192861e-05 
2.2124634e-05 7.1085069e-06 6.5975019e-06 
1.3232791e-05 1.2985116e-06 1.6495787e-05 
-1.3214370e-06 -3.7296413e-06 1.4159994e-05 
-4.8049733e-06 -8.8527859e-06 8.7613871e-06 
-6.5172471e-06 -1.2365369e-05 6.0388811e-06 
-4.9009336e-06 -1.0919585e-05 1.7628688e-06 
-3.2464363e-06 -3.7819098e-06 -6.1027134e-07 
-4.8911858e-07 3.7953985e-06 1.4831718e-06 
4.0995582e-07 6.4821079e-06 -1.1703629e-06 
-2.6276325e-08 4.8835673e-06 -4.4496576e-07 
1.1668851e-06 2.8333507e-06 3.0457494e-07 
2.8625595e-07 1.9161116e-06 -9.0649741e-07 
8.4267754e-08 1.0577858e-06 6.7286953e-07 
1.5322024e-07 -7.9613289e-07 3.3531913e-07 
-3.3073974e-08 -2.9865707e-06 -3.9766024e-07 
-5.5354334e-08 -3.7167022e-06 9.2576613e-07 
1.8565804e-07 -2.3798320e-06 -3.5734169e-07 
-6.2459020e-07 -3.8384741e-08 -4.8221548e-08 
5.4253345e-08 1.8911569e-06 -5.3644831e-09 
0.0000000e+00 -2.9272433e-05 0.0000000e+00 
0.0000000e+00 -4.6941335e-05 0.0000000e+00 
0.0000000e+00 -9.0007874e-05 0.0000000e+00 
0.0000000e+00 -1.3939393e-04 0.0000000e+00 
0.0000000e+00 -1.8194097e-04 0.0000000e+00 
0.0000000e+00 -2.1187210e-04 0.0000000e+00 
0.0000000e+00 -2.2800583e-04 0.0000000e+00 
0.0000000e+00 -2.3838833e-04 0.0000000e+00 
0.0000000e+00 -2.5336284e-04 0.0000000e+00 
0.0000000e+00 -2.6478895e-04 0.0000000e+00 
0.0000000e+00 -2.5086154e-04 0.0000000e+00 
0.0000000e+00 -2.0668311e-04 0.0000000e+00 
0.0000000e+00 -1.5636272e-04 0.0000000e+00 
0.0000000e+00 -1.5263734e-04 0.0000000e+00 
0.0000000e+00 -2.4713000e-04 0.0000000e+00 
0.0000000e+00 -4.5367036e-04 0.0000000e+00 
0.0000000e+00 -7.7014434e-04 0.0000000e+00 
0.0000000e+00 -1.2478188e-03 0.0000000e+00 
0.0000000e+00 -1.9941665e-03 0.0000000e+00 
0.0000000e+00 -3.0986292e-03 0.0000000e+00 
0.0000000e+00 -4.4287434e-03 0.0000000e+00 
0.0000000e+00 -5.3704442e-03 0.0000000e+00 
0.0000000e+00 -5.1468452e-03 0.0000000e+00 
0.0000000e+00 -4.5447275e-03 0.0000000e+00 
0.0000000e+00 -4.3088528e-03 0.0000000e+00 
0.0000000e+00 -4.5865607e-03 0.0000000e+00 
0.0000000e+00 -4.7043846e-03 0.0000000e+00 
0.0000000e+00 -3.7737146e-03 0.0000000e+00 
0.0000000e+00 -2.3696029e-03 0.0000000e+00 
0.0000000e+00 -1.1259208e-03 0.0000000e+00 
0.0000000e+00 -2.9144055e-04 0.0000000e+00 
0.0000000e+00 1.2310238e-04 0.0000000e+00 
0.0000000e+00 2.4428350e-04 0.0000000e+00 
0.0000000e+00 2.2784993e-04 0.0000000e+00 
0.0000000e+00 1.7236000e-04 0.0000000e+00 
0.0000000e+00 1.1131931e-04 0.0000000e+00 
0.0000000e+00 5.4237811e-05 0.0000000e+00 
0.0000000e+00 1.0981693e-05 0.0000000e+00 
0.0000000e+00 -1.1218923e-05 0.0000000e+00 
0.0000000e+00 -1.4969974e-05 0.0000000e+00 
0.0000000e+00 -1.4380897e-05 0.0000000e+00 
0.0000000e+00 -2.7723692e-05 0.0000000e+00 
0.0000000e+00 -6.5104650e-05 0.0000000e+00 
0.0000000e+00 -1.2409640e-04 0.0000000e+00 
0.0000000e+00 -1.8946113e-04 0.0000000e+00 
0.0000000e+00 -2.3586338e-04 0.0000000e+00 
0.0000000e+00 -2.3989266e-04 0.0000000e+00 
0.0000000e+00 -2.0477985e-04 0.0000000e+00 
0.0000000e+00 -1.6930563e-04 0.0000000e+00 
0.0000000e+00 -1.6567863e-04 0.0000000e+00 
0.0000000e+00 -1.8604036e-04 0.0000000e+00 
0.0000000e+00 -1.9419994e-04 0.0000000e+00 
0.0000000e+00 -1.6444895e-04 0.0000000e+00 
0.0000000e+00 -1.3302517e-04 0.0000000e+00 
0.0000000e+00 -1.9445665e-04 0.0000000e+00 
0.0000000e+00 -4.2788053e-04 0.0000000e+00 
0.0000000e+00 -8.5756840e-04 0.0000000e+00 
0.0000000e+00 -1.4889963e-03 0.0000000e+00 
0.0000000e+00 -2.3384262e-03 0.0000000e+00 
0.0000000e+00 -3.4357810e-03 0.0000000e+00 
0.0000000e+00 -4.6571330e-03 0.0000000e+00 
0.0000000e+00 -5.4607289e-03 0.0000000e+00 
0.0000000e+00 -5.1682154e-03 0.0000000e+00 
0.0000000e+00 -4.6026711e-03 0.0000000e+00 
0.0000000e+00 -4.4037551e-03 0.0000000e+00 
0.0000000e+00 -4.6254694e-03 0.0000000e+00 
0.0000000e+00 -4.6016430e-03 0.0000000e+00 
0.0000000e+00 -3.5374770e-03 0.0000000e+00 
0.0000000e+00 -2.0949817e-03 0.0000000e+00 
0.0000000e+00 -9.2914648e-04 0.0000000e+00 
0.0000000e+00 -2.1256575e-04 0.0000000e+00 
0.0000000e+00 1.2389018e-04 0.0000000e+00 
0.0000000e+00 2.2662630e-04 0.0000000e+00 
0.0000000e+00 2.1399304e-04 0.0000000e+00 
0.0000000e+00 1.4848009e-04 0.0000000e+00 
0.0000000e+00 6.8980255e-05 0.0000000e+00 
0.0000000e+00 9.5533314e-06 0.0000000e+00 
0.0000000e+00 -1.2147212e-05 0.0000000e+00 
0.0000000e+00 -4.8579859e-06 0.0000000e+00 
0.0000000e+00 7.8488856e-06 0.0000000e+00 
0.0000000e+00 1.1802462e-05 0.0000000e+00 
0.0000000e+00 7.3273786e-06 0.0000000e+00 
0.0000000e+00 1.2897177e-06 0.0000000e+00 
0.0000000e+00 -3.8551825e-06 0.0000000e+00 
0.0000000e+00 -8.8219185e-06 0.0000000e+00 
0.0000000e+00 -1.2220787e-05 0.0000000e+00 
0.0000000e+00 -1.0751959e-05 0.0000000e+00 
0.0000000e+00 -3.8505223e-06 0.0000000e+00 
0.0000000e+00 3.5653893e-06 0.0000000e+00 
0.0000000e+00 6.4084602e-06 0.0000000e+00 
0.0000000e+00 5.0054214e-06 0.0000000e+00 
0.0000000e+00 2.9239361e-06 0.0000000e+00 
0.0000000e+00 1.8919087e-06 0.0000000e+00 
0.0000000e+00 9.9728231e-07 0.0000000e+00 
0.0000000e+00 -8.1787954e-07 0.0000000e+00 
0.0000000e+00 -2.9370608e-06 0.0000000e+00 
0.0000000e+00 -3.6721069e-06 0.0000000e+00 
0.0000000e+00 -2.3911152e-06 0.0000000e+00 
0.0000000e+00 -7.4035114e-08 0.0000000e+00 
0.0000000e+00 1.8818802e-06 0.0000000e+00 
0.0000000e+00 2.6209227e-06 0.0000000e+00 
-1.9498287e-04 2.0098465e-05 1.1302413e-05 
4.7422640e-05 7.1330942e-05 -9.7881721e-06 
3.3045901e-05 4.8584454e-05 9.9851161e-07 
1.8296232e-05 4.4409186e-05 -1.0521293e-05 
0.0000000e+00 -1.3385319e-04 0.0000000e+00 
0.0000000e+00 0.0000000e+00 0.0000000e+00 
0.0000000e+00 0.0000000e+00 0.0000000e+00 
0.0000000e+00 0.0000000e+00 0.0000000e+00 
0.0000000e+00 0.0000000e+00 0.0000000e+00 
0.0000000e+00 0.0000000e+00 0.0000000e+00 
0.0000000e+00 0.0000000e+00 0.0000000e+00 
0.0000000e+00 0.0000000e+00 0.0000000e+00 
0.0000000e+00 0.0000000e+00 0.0000000e+00 
0.0000000e+00 0.0000000e+00 0.0000000e+00 
0.0000000e+00 0.0000000e+00 0.0000000e+00 
0.0000000e+00 0.0000000e+00 0.0000000e+00 
0.0000000e+00 0.0000000e+00 0.0000000e+00 
0.0000000e+00 0.0000000e+00 0.0000000e+00 
0.0000000e+00 0.0000000e+00 0.0000000e+00 
0.0000000e+00 0.0000000e+00 0.0000000e+00 
0.0000000e+00 0.0000000e+00 0.0000000e+00 
0.0000000e+00 0.0000000e+00 0.0000000e+00 
0.0000000e+00 0.0000000e+00 0.0000000e+00 
0.0000000e+00 0.0000000e+00 0.0000000e+00 
0.0000000e+00 0.0000000e+00 0.0000000e+00 
0.0000000e+00 0.0000000e+00 0.0000000e+00 
0.0000000e+00 0.0000000e+00 0.0000000e+00 
0.0000000e+00 0.0000000e+00 0.0000000e+00 
0.0000000e+00 0.0000000e+00 0.0000000e+00 
0.0000000e+00 0.0000000e+00 0.0000000e+00 
0.0000000e+00 0.0000000e+00 0.0000000e+00 
0.0000000e+00 0.0000000e+00 0.0000000e+00 
0.0000000e+00 0.0000000e+00 0.0000000e+00 
0.0000000e+00 0.0000000e+00 0.0000000e+00 
0.0000000e+00 0.0000000e+00 0.0000000e+00 
0.0000000e+00 0.0000000e+00 0.0000000e+00 
0.0000000e+00 0.0000000e+00 0.0000000e+00 
0.0000000e+00 0.0000000e+00 0.0000000e+00 
0.0000000e+00 0.0000000e+00 0.0000000e+00 
0.0000000e+00 0.0000000e+00 0.0000000e+00 
0.0000000e+00 0.0000000e+00 0.0000000e+00 
0.0000000e+00 0.0000000e+00 0.0000000e+00 
0.0000000e+00 0.0000000e+00 0.0000000e+00 
0.0000000e+00 0.0000000e+00 0.0000000e+00 
0.0000000e+00 0.0000000e+00 0.0000000e+00 
0.0000000e+00 0.0000000e+00 0.0000000e+00 
0.0000000e+00 0.0000000e+00 0.0000000e+00 
0.0000000e+00 0.0000000e+00 0.0000000e+00 
0.0000000e+00 0.0000000e+00 0.0000000e+00 
0.0000000e+00 0.0000000e+00 0.0000000e+00 
0.0000000e+00 0.0000000e+00 0.0000000e+00 
0.0000000e+00 0.0000000e+00 0.0000000e+00 
0.0000000e+00 0.0000000e+00 0.0000000e+00 
0.0000000e+00 0.0000000e+00 0.0000000e+00 
0.0000000e+00 0.0000000e+00 0.0000000e+00 
0.0000000e+00 0.0000000e+00 0.0000000e+00 
0.0000000e+00 0.0000000e+00 0.0000000e+00 
0.0000000e+00 0.0000000e+00 0.0000000e+00 
0.0000000e+00 0.0000000e+00 0.0000000e+00 
0.0000000e+00 0.0000000e+00 0.0000000e+00 
0.0000000e+00 0.0000000e+00 0.0000000e+00 
0.0000000e+00 0.0000000e+00 0.0000000e+00 
0.0000000e+00 0.0000000e+00 0.0000000e+00 
0.0000000e+00 0.0000000e+00 0.0000000e+00 
0.0000000e+00 0.0000000e+00 0.0000000e+00 
0.0000000e+00 0.0000000e+00 0.0000000e+00 
0.0000000e+00 0.0000000e+00 0.0000000e+00 
0.0000000e+00 0.0000000e+00 0.0000000e+00 
0.0000000e+00 0.0000000e+00 0.0000000e+00 
0.0000000e+00 0.0000000e+00 0.0000000e+00 
0.0000000e+00 0.0000000e+00 0.0000000e+00 
0.0000000e+00 0.0000000e+00 0.0000000e+00 
0.0000000e+00 0.0000000e+00 0.0000000e+00 
0.0000000e+00 0.0000000e+00 0.0000000e+00 
0.0000000e+00 0.0000000e+00 0.0000000e+00 
0.0000000e+00 0.0000000e+00 0.0000000e+00 
0.0000000e+00 0.0000000e+00 0.0000000e+00 
0.0000000e+00 0.0000000e+00 0.0000000e+00 
0.0000000e+00 0.0000000e+00 0.0000000e+00 
0.0000000e+00 0.0000000e+00 0.0000000e+00 
0.0000000e+00 0.0000000e+00 0.0000000e+00 
0.0000000e+00 0.0000000e+00 0.0000000e+00 
0.0000000e+00 0.0000000e+00 0.0000000e+00 
0.0000000e+00 0.0000000e+00 0.0000000e+00 
0.0000000e+00 0.0000000e+00 0.0000000e+00 
0.0000000e+00 0.0000000e+00 0.0000000e+00 
0.0000000e+00 0.0000000e+00 0.0000000e+00 
0.0000000e+00 0.0000000e+00 0.0000000e+00 
0.0000000e+00 0.0000000e+00 0.0000000e+00 
0.0000000e+00 0.0000000e+00 0.0000000e+00 
0.0000000e+00 0.0000000e+00 0.0000000e+00 
0.0000000e+00 0.0000000e+00 0.0000000e+00 
0.0000000e+00 0.0000000e+00 0.0000000e+00 
0.0000000e+00 0.0000000e+00 0.0000000e+00 
0.0000000e+00 0.0000000e+00 0.0000000e+00 
0.0000000e+00 0.0000000e+00 0.0000000e+00 
0.0000000e+00 0.0000000e+00 0.0000000e+00 
0.0000000e+00 0.0000000e+00 0.0000000e+00 
0.0000000e+00 0.0000000e+00 0.0000000e+00 
0.0000000e+00 0.0000000e+00 0.0000000e+00 
0.0000000e+00 0.0000000e+00 0.0000000e+00 
0.0000000e+00 0.0000000e+00 0.0000000e+00 
0.0000000e+00 0.0000000e+00 0.0000000e+00 
0.0000000e+00 0.0000000e+00 0.0000000e+00 
0.0000000e+00 0.0000000e+00 0.0000000e+00 
0.0000000e+00 0.0000000e+00 0.0000000e+00 
0.0000000e+00 0.0000000e+00 0.0000000e+00 
0.0000000e+00 0.0000000e+00 0.0000000e+00 
0.0000000e+00 0.0000000e+00 0.0000000e+00 
0.0000000e+00 0.0000000e+00 0.0000000e+00 
0.0000000e+00 0.0000000e+00 0.0000000e+00 
-1.0598871e-05 -7.8349728e-07 8.7061153e-06 
-1.2182250e-05 6.0566304e-06 6.9374946e-06 
-1.2433030e-05 1.1720239e-05 8.3311415e-06 
-8.4011126e-06 1.4238348e-05 7.6328643e-06 
1.0515645e-06 2.8761448e-05 -3.3180640e-06 
2.9341429e-06 1.0614586e-05 -6.5788690e-06 
7.6031279e-06 2.1939331e-05 -1.1598010e-05 
1.7757835e-05 2.4435780e-05 -1.7938639e-05 
1.8740100e-05 -7.3284241e-07 -1.9731628e-05 
2.3598070e-05 -9.8658511e-06 -1.4718436e-05 
3.1062606e-05 -8.5365773e-06 -8.0433338e-06 
2.5940753e-05 -1.7327739e-05 -3.5560590e-06 
2.4395405e-05 -1.4550399e-05 1.0053079e-05 
2.5152349e-05 -1.0068670e-05 1.4672308e-05 
2.0536267e-05 -8.9520254e-06 1.8825478e-05 
1.6615631e-05 -9.0125914e-06 1.5671894e-05 
1.1625832e-05 -3.1871541e-06 9.9880717e-06 
7.3604870e-06 -5.8391865e-06 8.0765585e-06 
-8.2521706e-07 -5.2458527e-06 6.3105826e-06 
-8.5111233e-06 6.7142224e-07 -2.4434371e-06 
-1.4548007e-05 2.5452978e-06 -3.4817085e-06 
-1.3710466e-05 8.8604847e-06 -2.5467966e-06 
-7.6241931e-06 1.0352260e-05 2.1649930e-06 
-2.0295497e-06 2.2132414e-05 1.1050258e-06 
6.9952798e-06 3.6803482e-05 -2.0998750e-06 
1.0370974e-05 2.6754895e-05 -9.5943706e-06 
1.0279204e-05 1.6988210e-05 -1.6497062e-05 
1.8454250e-05 1.5741962e-05 -1.8160375e-05 
2.5571771e-05 3.3376959e-06 -2.0830075e-05 
2.3967357e-05 -9.1256197e-06 -1.7998076e-05 
2.9301324e-05 -1.5095414e-05 -8.3074437e-06 
2.7580507e-05 -1.8497634e-05 -2.4248473e-07 
2.1289468e-05 -9.2766459e-06 1.2506551e-05 
2.1908616e-05 -1.1024415e-05 2.0444646e-05 
1.9736408e-05 -1.0289652e-05 2.5906640e-05 
1.5177126e-05 -3.4143695e-06 2.8345486e-05 
9.9923072e-06 -2.4217736e-06 2.3918461e-05 
6.4560004e-06 -5.6987751e-06 1.0907534e-05 
1.8247633e-06 -3.0931640e-06 4.8156189e-06 
-1.0188994e-06 2.0238374e-06 -5.9102121e-07 
-1.4440851e-06 1.5606026e-06 -6.3516645e-06 
-5.8305778e-07 6.5159099e-07 -7.6330098e-06 
-1.1879682e-06 5.8480521e-07 -2.3587131e-06 
-1.1638605e-06 2.8490450e-07 6.5361121e-07 
5.2870320e-07 -1.5366014e-07 7.9731245e-07 
5.8432835e-07 5.4163043e-09 7.9871091e-07 
1.7812729e-07 -3.0992777e-07 5.4821606e-07 
-5.7681000e-08 -3.7504641e-08 -4.1129368e-07 
1.9904445e-07 1.6893624e-07 -6.9725814e-08 
0.0000000e+00 -2.9959032e-05 0.0000000e+00 
0.0000000e+00 1.1417398e-05 0.0000000e+00 
0.0000000e+00 5.5822242e-05 0.0000000e+00 
0.0000000e+00 5.7121390e-05 0.0000000e+00 
0.0000000e+00 9.2224436e-05 0.0000000e+00 
0.0000000e+00 1.0689919e-04 0.0000000e+00 
0.0000000e+00 1.4570816e-05 0.0000000e+00 
0.0000000e+00 -2.6404667e-05 0.0000000e+00 
0.0000000e+00 -2.1987098e-04 0.0000000e+00 
0.0000000e+00 -4.5816798e-04 0.0000000e+00 
0.0000000e+00 -5.2917365e-04 0.0000000e+00 
0.0000000e+00 -5.4131035e-04 0.0000000e+00 
0.0000000e+00 -4.6814306e-04 0.0000000e+00 
0.0000000e+00 -2.6121197e-04 0.0000000e+00 
0.0000000e+00 -7.5891963e-05 0.0000000e+00 
0.0000000e+00 1.3659418e-06 0.0000000e+00 
0.0000000e+00 1.5659884e-05 0.0000000e+00 
0.0000000e+00 -4.3379823e-06 0.0000000e+00 
0.0000000e+00 -1.5745096e-05 0.0000000e+00 
0.0000000e+00 -3.4988543e-06 0.0000000e+00 
0.0000000e+00 -9.7537732e-06 0.0000000e+00 
0.0000000e+00 3.2564822e-06 0.0000000e+00 
0.0000000e+00 3.3807370e-05 0.0000000e+00 
0.0000000e+00 2.4807829e-05 0.0000000e+00 
0.0000000e+00 4.9407801e-05 0.0000000e+00 
0.0000000e+00 5.8453283e-05 0.0000000e+00 
0.0000000e+00 7.6836213e-06 0.0000000e+00 
0.0000000e+00 -7.9707643e-05 0.0000000e+00 
0.0000000e+00 -1.8607109e-04 0.0000000e+00 
0.0000000e+00 -4.6403240e-04 0.0000000e+00 
0.0000000e+00 -5.2874599e-04 0.0000000e+00 
0.0000000e+00 -5.4647343e-04 0.0000000e+00 
0.0000000e+00 -4.7460073e-04 0.0000000e+00 
0.0000000e+00 -2.3626389e-04 0.0000000e+00 
0.0000000e+00 -7.2192182e-05 0.0000000e+00 
0.0000000e+00 1.6706965e-05 0.0000000e+00 
0.0000000e+00 2.6621869e-05 0.0000000e+00 
0.0000000e+00 3.1218988e-06 0.0000000e+00 
0.0000000e+00 -5.3829053e-06 0.0000000e+00 
0.0000000e+00 -7.9146315e-07 0.0000000e+00 
0.0000000e+00 7.1711202e-07 0.0000000e+00 
0.0000000e+00 -3.7840616e-07 0.0000000e+00 
0.0000000e+00 2.4557025e-06 0.0000000e+00 
0.0000000e+00 -2.5834819e-07 0.0000000e+00 
0.0000000e+00 -1.8179646e-06 0.0000000e+00 
0.0000000e+00 -5.9668150e-07 0.0000000e+00 
0.0000000e+00 1.1557568e-06 0.0000000e+00 
0.0000000e+00 2.4959718e-07 0.0000000e+00 
0.0000000e+00 -6.8191099e-07 0.0000000e+00 
-1.1405164e-05 1.6861837e-07 9.3689641e-06 
-6.4981382e-06 -5.0458116e-06 1.0189746e-05 
2.2810725e-06 -1.6036585e-05 9.5980904e-06 
3.2305782e-06 -2.1751381e-05 3.6612958e-06 
1.5340447e-07 1.7501947e-07 -5.8754921e-08 
4.9710625e-08 -8.5697032e-08 2.2830989e-08 
-3.3548292e-07 2.8636248e-07 2.9957511e-07 
3.9619923e-08 -1.4435724e-07 1.9068388e-07 
-1.2828763e-05 -6.4959786e-06 -1.6291001e-06 
-1.0541731e-07 3.6050648e-07 -3.4229561e-07 
4.8338160e-07 -2.9471437e-05 -4.5174659e-07 
-1.5477139e-05 -3.2403343e-05 1.5488000e-05 
0.0000000e+00 -3.2944219e-05 0.0000000e+00 
0.0000000e+00 -2.6582115e-06 0.0000000e+00 
0.0000000e+00 1.9526989e-05 0.0000000e+00 
0.0000000e+00 6.8831308e-05 0.0000000e+00 
0.0000000e+00 1.2673636e-04 0.0000000e+00 
0.0000000e+00 8.1554572e-05 0.0000000e+00 
0.0000000e+00 1.0361632e-05 0.0000000e+00 
0.0000000e+00 -1.4166167e-04 0.0000000e+00 
0.0000000e+00 -5.6324474e-04 0.0000000e+00 
0.0000000e+00 -9.9587685e-04 0.0000000e+00 
0.0000000e+00 -1.1106688e-03 0.0000000e+00 
0.0000000e+00 -1.1235237e-03 0.0000000e+00 
0.0000000e+00 -9.1809977e-04 0.0000000e+00 