# vtk DataFile Version 4.0
vtk output
ASCII
DATASET UNSTRUCTURED_GRID
POINTS 1919 float
0.0000000e+00 0.0000000e+00 0.0000000e+00 
0.0000000e+00 0.0000000e+00 5.0000000e+01 
5.0000000e+00 0.0000000e+00 0.0000000e+00 
5.0000000e+00 0.0000000e+00 5.0000000e+01 
5.0000000e+00 1.0000000e+00 0.0000000e+00 
5.0000000e+00 1.0000000e+00 5.0000000e+01 
0.0000000e+00 1.0000000e+00 0.0000000e+00 
0.0000000e+00 1.0000000e+00 5.0000000e+01 
5.0000000e+00 2.0000000e+00 0.0000000e+00 
5.0000000e+00 2.0000000e+00 5.0000000e+01 
3.0000000e+00 2.0000000e+00 0.0000000e+00 
3.0000000e+00 2.0000000e+00 5.0000000e+01 
0.0000000e+00 2.0000000e+00 0.0000000e+00 
0.0000000e+00 2.0000000e+00 5.0000000e+01 
1.5000000e+00 3.0000000e+00 0.0000000e+00 
1.5000000e+00 3.0000000e+00 5.0000000e+01 
7.5000000e-01 3.0000000e+00 0.0000000e+00 
7.5000000e-01 3.0000000e+00 5.0000000e+01 
0.0000000e+00 3.0000000e+00 0.0000000e+00 
0.0000000e+00 3.0000000e+00 5.0000000e+01 
7.5000000e-01 3.0000000e+00 5.0000000e-01 
7.5000000e-01 3.0000000e+00 1.0000000e+00 
7.5000000e-01 3.0000000e+00 1.5000000e+00 
7.5000000e-01 3.0000000e+00 2.0000000e+00 
7.5000000e-01 3.0000000e+00 2.5000000e+00 
7.5000000e-01 3.0000000e+00 3.0000000e+00 
7.5000000e-01 3.0000000e+00 3.5000000e+00 
7.5000000e-01 3.0000000e+00 4.0000000e+00 
7.5000000e-01 3.0000000e+00 4.5000000e+00 
7.5000000e-01 3.0000000e+00 5.0000000e+00 
7.5000000e-01 3.0000000e+00 5.5000000e+00 
7.5000000e-01 3.0000000e+00 6.0000000e+00 
7.5000000e-01 3.0000000e+00 6.5000000e+00 
7.5000000e-01 3.0000000e+00 7.0000000e+00 
7.5000000e-01 3.0000000e+00 7.5000000e+00 
7.5000000e-01 3.0000000e+00 8.0000000e+00 
7.5000000e-01 3.0000000e+00 8.5000000e+00 
7.5000000e-01 3.0000000e+00 9.0000000e+00 
7.5000000e-01 3.0000000e+00 9.5000000e+00 
7.5000000e-01 3.0000000e+00 1.0000000e+01 
7.5000000e-01 3.0000000e+00 1.0500000e+01 
7.5000000e-01 3.0000000e+00 1.1000000e+01 
7.5000000e-01 3.0000000e+00 1.1500000e+01 
7.5000000e-01 3.0000000e+00 1.2000000e+01 
7.5000000e-01 3.0000000e+00 1.2500000e+01 
7.5000000e-01 3.0000000e+00 1.3000000e+01 
7.5000000e-01 3.0000000e+00 1.3500000e+01 
7.5000000e-01 3.0000000e+00 1.4000000e+01 
7.5000000e-01 3.0000000e+00 1.4500000e+01 
7.5000000e-01 3.0000000e+00 1.5000000e+01 
7.5000000e-01 3.0000000e+00 1.5500000e+01 
7.5000000e-01 3.0000000e+00 1.6000000e+01 
7.5000000e-01 3.0000000e+00 1.6500000e+01 
7.5000000e-01 3.0000000e+00 1.7000000e+01 
7.5000000e-01 3.0000000e+00 1.7500000e+01 
7.5000000e-01 3.0000000e+00 1.8000000e+01 
7.5000000e-01 3.0000000e+00 1.8500000e+01 
7.5000000e-01 3.0000000e+00 1.9000000e+01 
7.5000000e-01 3.0000000e+00 1.9500000e+01 
7.5000000e-01 3.0000000e+00 2.0000000e+01 
7.5000000e-01 3.0000000e+00 2.0500000e+01 
7.5000000e-01 3.0000000e+00 2.1000000e+01 
7.5000000e-01 3.0000000e+00 2.1500000e+01 
7.5000000e-01 3.0000000e+00 2.2000000e+01 
7.5000000e-01 3.0000000e+00 2.2500000e+01 
7.5000000e-01 3.0000000e+00 2.3000000e+01 
7.5000000e-01 3.0000000e+00 2.3500000e+01 
7.5000000e-01 3.0000000e+00 2.4000000e+01 
7.5000000e-01 3.0000000e+00 2.4500000e+01 
7.5000000e-01 3.0000000e+00 2.5000000e+01 
7.5000000e-01 3.0000000e+00 2.5500000e+01 
7.5000000e-01 3.0000000e+00 2.6000000e+01 
7.5000000e-01 3.0000000e+00 2.6500000e+01 
7.5000000e-01 3.0000000e+00 2.7000000e+01 
7.5000000e-01 3.0000000e+00 2.7500000e+01 
7.5000000e-01 3.0000000e+00 2.8000000e+01 
7.5000000e-01 3.0000000e+00 2.8500000e+01 
7.5000000e-01 3.0000000e+00 2.9000000e+01 
7.5000000e-01 3.0000000e+00 2.9500000e+01 
7.5000000e-01 3.0000000e+00 3.0000000e+01 
7.5000000e-01 3.0000000e+00 3.0500000e+01 
7.5000000e-01 3.0000000e+00 3.1000000e+01 
7.5000000e-01 3.0000000e+00 3.1500000e+01 
7.5000000e-01 3.0000000e+00 3.2000000e+01 
7.5000000e-01 3.0000000e+00 3.2500000e+01 
7.5000000e-01 3.0000000e+00 3.3000000e+01 
7.5000000e-01 3.0000000e+00 3.3500000e+01 
7.5000000e-01 3.0000000e+00 3.4000000e+01 
7.5000000e-01 3.0000000e+00 3.4500000e+01 
7.5000000e-01 3.0000000e+00 3.5000000e+01 
7.5000000e-01 3.0000000e+00 3.5500000e+01 
7.5000000e-01 3.0000000e+00 3.6000000e+01 
7.5000000e-01 3.0000000e+00 3.6500000e+01 
7.5000000e-01 3.0000000e+00 3.7000000e+01 
7.5000000e-01 3.0000000e+00 3.7500000e+01 
7.5000000e-01 3.0000000e+00 3.8000000e+01 
7.5000000e-01 3.0000000e+00 3.8500000e+01 
7.5000000e-01 3.0000000e+00 3.9000000e+01 
7.5000000e-01 3.0000000e+00 3.9500000e+01 
7.5000000e-01 3.0000000e+00 4.0000000e+01 
7.5000000e-01 3.0000000e+00 4.0500000e+01 
7.5000000e-01 3.0000000e+00 4.1000000e+01 
7.5000000e-01 3.0000000e+00 4.1500000e+01 
7.5000000e-01 3.0000000e+00 4.2000000e+01 
7.5000000e-01 3.0000000e+00 4.2500000e+01 
7.5000000e-01 3.0000000e+00 4.3000000e+01 
7.5000000e-01 3.0000000e+00 4.3500000e+01 
7.5000000e-01 3.0000000e+00 4.4000000e+01 
7.5000000e-01 3.0000000e+00 4.4500000e+01 
7.5000000e-01 3.0000000e+00 4.5000000e+01 
7.5000000e-01 3.0000000e+00 4.5500000e+01 
7.5000000e-01 3.0000000e+00 4.6000000e+01 
7.5000000e-01 3.0000000e+00 4.6500000e+01 
7.5000000e-01 3.0000000e+00 4.7000000e+01 
7.5000000e-01 3.0000000e+00 4.7500000e+01 
7.5000000e-01 3.0000000e+00 4.8000000e+01 
7.5000000e-01 3.0000000e+00 4.8500000e+01 
7.5000000e-01 3.0000000e+00 4.9000000e+01 
7.5000000e-01 3.0000000e+00 4.9500000e+01 
7.5000000e-01 3.0250001e+00 0.0000000e+00 
7.5000000e-01 3.0250001e+00 5.0000000e-01 
7.5000000e-01 3.0250001e+00 1.0000000e+00 
7.5000000e-01 3.0250001e+00 1.5000000e+00 
7.5000000e-01 3.0250001e+00 2.0000000e+00 
7.5000000e-01 3.0250001e+00 2.5000000e+00 
7.5000000e-01 3.0250001e+00 3.0000000e+00 
7.5000000e-01 3.0250001e+00 3.5000000e+00 
7.5000000e-01 3.0250001e+00 4.0000000e+00 
7.5000000e-01 3.0250001e+00 4.5000000e+00 
7.5000000e-01 3.0250001e+00 5.0000000e+00 
7.5000000e-01 3.0250001e+00 5.5000000e+00 
7.5000000e-01 3.0250001e+00 6.0000000e+00 
7.5000000e-01 3.0250001e+00 6.5000000e+00 
7.5000000e-01 3.0250001e+00 7.0000000e+00 
7.5000000e-01 3.0250001e+00 7.5000000e+00 
7.5000000e-01 3.0250001e+00 8.0000000e+00 
7.5000000e-01 3.0250001e+00 8.5000000e+00 
7.5000000e-01 3.0250001e+00 9.0000000e+00 
7.5000000e-01 3.0250001e+00 9.5000000e+00 
7.5000000e-01 3.0250001e+00 1.0000000e+01 
7.5000000e-01 3.0250001e+00 1.0500000e+01 
7.5000000e-01 3.0250001e+00 1.1000000e+01 
7.5000000e-01 3.0250001e+00 1.1500000e+01 
7.5000000e-01 3.0250001e+00 1.2000000e+01 
7.5000000e-01 3.0250001e+00 1.2500000e+01 
7.5000000e-01 3.0250001e+00 1.3000000e+01 
7.5000000e-01 3.0250001e+00 1.3500000e+01 
7.5000000e-01 3.0250001e+00 1.4000000e+01 
7.5000000e-01 3.0250001e+00 1.4500000e+01 
7.5000000e-01 3.0250001e+00 1.5000000e+01 
7.5000000e-01 3.0250001e+00 1.5500000e+01 
7.5000000e-01 3.0250001e+00 1.6000000e+01 
7.5000000e-01 3.0250001e+00 1.6500000e+01 
7.5000000e-01 3.0250001e+00 1.7000000e+01 
7.5000000e-01 3.0250001e+00 1.7500000e+01 
7.5000000e-01 3.0250001e+00 1.8000000e+01 
7.5000000e-01 3.0250001e+00 1.8500000e+01 
7.5000000e-01 3.0250001e+00 1.9000000e+01 
7.5000000e-01 3.0250001e+00 1.9500000e+01 
7.5000000e-01 3.0250001e+00 2.0000000e+01 
7.5000000e-01 3.0250001e+00 2.0500000e+01 
7.5000000e-01 3.0250001e+00 2.1000000e+01 
7.5000000e-01 3.0250001e+00 2.1500000e+01 
7.5000000e-01 3.0250001e+00 2.2000000e+01 
7.5000000e-01 3.0250001e+00 2.2500000e+01 
7.5000000e-01 3.0250001e+00 2.3000000e+01 
7.5000000e-01 3.0250001e+00 2.3500000e+01 
7.5000000e-01 3.0250001e+00 2.4000000e+01 
7.5000000e-01 3.0250001e+00 2.4500000e+01 
7.5000000e-01 3.0250001e+00 2.5000000e+01 
7.5000000e-01 3.0250001e+00 2.5500000e+01 
7.5000000e-01 3.0250001e+00 2.6000000e+01 
7.5000000e-01 3.0250001e+00 2.6500000e+01 
7.5000000e-01 3.0250001e+00 2.7000000e+01 
7.5000000e-01 3.0250001e+00 2.7500000e+01 
7.5000000e-01 3.0250001e+00 2.8000000e+01 
7.5000000e-01 3.0250001e+00 2.8500000e+01 
7.5000000e-01 3.0250001e+00 2.9000000e+01 
7.5000000e-01 3.0250001e+00 2.9500000e+01 
7.5000000e-01 3.0250001e+00 3.0000000e+01 
7.5000000e-01 3.0250001e+00 3.0500000e+01 
7.5000000e-01 3.0250001e+00 3.1000000e+01 
7.5000000e-01 3.0250001e+00 3.1500000e+01 
7.5000000e-01 3.0250001e+00 3.2000000e+01 
7.5000000e-01 3.0250001e+00 3.2500000e+01 
7.5000000e-01 3.0250001e+00 3.3000000e+01 
7.5000000e-01 3.0250001e+00 3.3500000e+01 
7.5000000e-01 3.0250001e+00 3.4000000e+01 
7.5000000e-01 3.0250001e+00 3.4500000e+01 
7.5000000e-01 3.0250001e+00 3.5000000e+01 
7.5000000e-01 3.0250001e+00 3.5500000e+01 
7.5000000e-01 3.0250001e+00 3.6000000e+01 
7.5000000e-01 3.0250001e+00 3.6500000e+01 
7.5000000e-01 3.0250001e+00 3.7000000e+01 
7.5000000e-01 3.0250001e+00 3.7500000e+01 
7.5000000e-01 3.0250001e+00 3.8000000e+01 
7.5000000e-01 3.0250001e+00 3.8500000e+01 
7.5000000e-01 3.0250001e+00 3.9000000e+01 
7.5000000e-01 3.0250001e+00 3.9500000e+01 
7.5000000e-01 3.0250001e+00 4.0000000e+01 
7.5000000e-01 3.0250001e+00 4.0500000e+01 
7.5000000e-01 3.0250001e+00 4.1000000e+01 
7.5000000e-01 3.0250001e+00 4.1500000e+01 
7.5000000e-01 3.0250001e+00 4.2000000e+01 
7.5000000e-01 3.0250001e+00 4.2500000e+01 
7.5000000e-01 3.0250001e+00 4.3000000e+01 
7.5000000e-01 3.0250001e+00 4.3500000e+01 
7.5000000e-01 3.0250001e+00 4.4000000e+01 
7.5000000e-01 3.0250001e+00 4.4500000e+01 
7.5000000e-01 3.0250001e+00 4.5000000e+01 
7.5000000e-01 3.0250001e+00 4.5500000e+01 
7.5000000e-01 3.0250001e+00 4.6000000e+01 
7.5000000e-01 3.0250001e+00 4.6500000e+01 
7.5000000e-01 3.0250001e+00 4.7000000e+01 
7.5000000e-01 3.0250001e+00 4.7500000e+01 
7.5000000e-01 3.0250001e+00 4.8000000e+01 
7.5000000e-01 3.0250001e+00 4.8500000e+01 
7.5000000e-01 3.0250001e+00 4.9000000e+01 
7.5000000e-01 3.0250001e+00 4.9500000e+01 
7.5000000e-01 3.0250001e+00 5.0000000e+01 
1.5000000e+00 3.0000000e+00 2.5000000e+01 
3.0000000e+00 2.0000000e+00 2.5000000e+01 
4.0000000e+00 2.0000000e+00 2.5000000e+01 
5.0000000e+00 2.0000000e+00 2.5000000e+01 
0.0000000e+00 3.0000000e+00 2.5000000e+01 
0.0000000e+00 0.0000000e+00 1.0000000e+00 
0.0000000e+00 0.0000000e+00 2.0000000e+00 
0.0000000e+00 0.0000000e+00 3.0000000e+00 
0.0000000e+00 0.0000000e+00 4.0000000e+00 
0.0000000e+00 0.0000000e+00 5.0000000e+00 
[...]
POINT_DATA 1919
FIELD FieldData 3
DISPLACEMENT 3 1919  float
0.0000000e+00 0.0000000e+00 0.0000000e+00 
0.0000000e+00 0.0000000e+00 0.0000000e+00 
0.0000000e+00 0.0000000e+00 0.0000000e+00 
0.0000000e+00 0.0000000e+00 0.0000000e+00 
-6.6001530e-06 1.2655306e-06 3.7601367e-06 
1.5072544e-07 -2.8657294e-07 -2.0141817e-07 
0.0000000e+00 3.9309630e-06 0.0000000e+00 
0.0000000e+00 2.1418549e-08 0.0000000e+00 
-9.1327638e-06 -3.2644095e-08 -2.4332022e-07 
3.5218659e-07 -4.8758591e-07 -1.0909776e-07 
-4.6850564e-06 1.5218235e-05 1.1471960e-05 
9.4252215e-08 2.1364691e-07 -5.5409731e-07 
0.0000000e+00 -4.8010486e-07 0.0000000e+00 
0.0000000e+00 -1.9439742e-08 0.0000000e+00 
-4.2552623e-05 -7.1098106e-07 6.8218382e-05 
-3.4074276e-07 1.2308482e-06 -3.1573731e-07 
6.5712164e-05 -1.1109487e-04 1.1255997e-04 
-8.3313758e-08 -1.4961427e-06 -2.0615701e-07 
0.0000000e+00 1.9739913e-05 0.0000000e+00 
0.0000000e+00 1.8764856e-06 0.0000000e+00 
-4.5027387e-05 -1.0039776e-04 5.7814381e-05 
-7.7321849e-05 -7.7549477e-05 3.8094360e-05 
-8.1853745e-05 -5.6383331e-05 4.2226187e-05 
-8.1823528e-05 -3.7715985e-05 3.1732630e-05 
-8.3447732e-05 -1.2394929e-05 1.3622112e-05 
-5.9352802e-05 2.8443985e-05 9.8111468e-06 
-5.9401151e-05 8.0605401e-05 1.9758597e-09 
-3.8325707e-05 1.2686274e-04 -9.3951769e-07 
-2.2895762e-05 1.5282833e-04 3.7168812e-07 
-2.2624576e-05 1.5984276e-04 9.4760599e-06 
-1.0596819e-05 1.7326043e-04 1.5359545e-05 
-2.7523231e-05 2.2016733e-04 2.3657703e-05 
-1.3288613e-05 2.8276051e-04 3.6947851e-05 
-2.2861483e-05 2.9264254e-04 7.0400049e-05 
-4.5211684e-05 1.8785887e-04 9.6151380e-05 
-6.3180480e-05 -4.8197318e-05 1.2890047e-04 
-1.1880839e-04 -4.1489126e-04 2.1413987e-04 
-1.4637760e-04 -9.4346289e-04 1.6153423e-04 
-2.2651967e-04 -1.7477418e-03 2.9376446e-04 
-2.5031436e-04 -2.9138993e-03 1.3578367e-04 
-3.5670510e-04 -4.3250951e-03 1.9904436e-04 
-4.5355945e-04 -5.3146384e-03 1.3035036e-07 
-4.5429479e-04 -5.1647243e-03 -1.2443574e-04 
-4.1257290e-04 -4.5912052e-03 -1.4144342e-04 
-3.2000843e-04 -4.3980549e-03 -1.8521876e-04 
-2.3411337e-04 -4.6491697e-03 -2.5630911e-04 
-1.9885124e-04 -4.7632805e-03 -2.8955651e-04 
-1.7160203e-04 -3.7786060e-03 -2.4628389e-04 
-5.6550954e-05 -2.3434027e-03 -3.1223672e-04 
-2.1100019e-05 -1.0803741e-03 -1.4680307e-04 
2.7902061e-05 -2.5705397e-04 -1.4249765e-04 
5.1340638e-05 1.4260453e-04 -5.1209092e-05 
6.1900515e-05 2.5755237e-04 -3.4330194e-06 
6.8091853e-05 2.3683599e-04 7.6219643e-05 
3.8451009e-05 1.7105753e-04 9.7854369e-05 
1.6396056e-05 9.6664808e-05 9.0936126e-05 
-2.6686219e-05 2.1471998e-05 7.0801892e-05 
-4.0780717e-05 -4.2006621e-05 5.9075814e-05 
-5.8553116e-05 -7.8573255e-05 2.3937600e-05 
-5.6610257e-05 -8.8326189e-05 2.0676254e-05 
-3.1159601e-05 -7.9061625e-05 2.5339552e-05 
-4.5527780e-05 -5.5221470e-05 3.3369073e-05 
-5.9023030e-05 -2.2430540e-05 4.6778052e-05 
-6.1699116e-05 7.1482305e-06 2.5032354e-05 
-6.0542417e-05 2.9306651e-05 1.1971896e-05 
-4.0420618e-05 5.4309596e-05 -8.7263406e-06 
-5.7262318e-05 9.4906492e-05 -2.1500664e-05 
-4.9184262e-05 1.4786111e-04 -3.8345632e-05 
2.6480382e-06 1.9449129e-04 -1.4969408e-05 
-2.0128642e-05 2.1613309e-04 -3.7939142e-07 
-1.6232636e-05 2.1036396e-04 -1.4069220e-05 
-1.5559477e-05 2.1485962e-04 1.2751952e-05 
-1.8717192e-05 2.5485930e-04 3.7356316e-05 
-8.4192197e-06 2.9518691e-04 5.1179060e-05 
-3.9476341e-05 2.4311693e-04 1.0527940e-04 
-5.1917861e-05 -6.5810073e-06 1.4344011e-04 
-1.3157087e-04 -4.9197767e-04 2.1718408e-04 
-1.7599747e-04 -1.1924048e-03 1.7016449e-04 
-2.6219655e-04 -2.1206590e-03 2.8827367e-04 
-3.1822329e-04 -3.2785272e-03 6.8191141e-05 
-4.1838130e-04 -4.5461738e-03 1.2469404e-04 
-4.5947521e-04 -5.3426786e-03 -3.1287931e-05 
-4.3230105e-04 -5.1257862e-03 -1.8635088e-04 
-4.0077063e-04 -4.6193753e-03 -1.9052094e-04 
-3.4419194e-04 -4.5167990e-03 -2.1257273e-04 
-3.3199822e-04 -4.7422280e-03 -3.0422863e-04 
-2.6184620e-04 -4.6903291e-03 -3.6921797e-04 
-1.9625656e-04 -3.5537737e-03 -2.2224186e-04 
-7.4673713e-05 -2.1032589e-03 -3.0303397e-04 
-5.1009924e-06 -9.1331493e-04 -9.3512637e-05 
2.4286946e-05 -1.9220544e-04 -8.2744154e-05 
3.5963090e-05 1.4226320e-04 -6.8353706e-06 
3.5124496e-05 2.4631544e-04 3.0600615e-05 
2.0146519e-05 2.3440510e-04 7.2241040e-05 
4.8225534e-06 1.6860724e-04 1.0518046e-04 
-3.8890437e-05 8.5824293e-05 1.4074310e-04 
-5.2698302e-05 1.9513973e-05 3.0027019e-05 
-4.6422392e-05 -1.1512765e-05 -1.4431085e-05 
-2.9711577e-05 -1.4646324e-05 -5.1864637e-05 
-1.8569157e-05 -8.1643739e-06 -5.2328603e-05 
9.9393656e-06 -1.9786644e-06 -4.7265839e-05 
1.6600123e-05 3.6828953e-06 -3.1345437e-05 
1.8352315e-05 8.7334920e-06 -7.6899187e-06 
1.6071283e-05 9.9073013e-06 2.3904411e-06 
6.6990387e-06 3.8762032e-06 5.0296976e-06 
1.5750911e-06 -4.8064153e-06 5.3831018e-06 
1.4808148e-07 -9.3642730e-06 4.5897773e-06 
-2.1081726e-06 -8.2645893e-06 1.9914394e-06 
-2.3795153e-06 -4.3656146e-06 1.7725274e-06 
-1.1016273e-06 -1.4097665e-06 1.3512462e-06 
-2.3290729e-06 -3.2617700e-07 3.0370813e-08 
-1.0181046e-06 3.6596208e-07 1.0085082e-06 
2.8684579e-07 1.6210035e-06 -4.8304804e-07 
3.4844970e-07 2.7129511e-06 2.6221412e-07 
7.2957715e-07 2.6903729e-06 -7.5874524e-09 
2.2008498e-07 1.6310379e-06 -8.6578945e-07 
-3.4707463e-07 3.4707637e-07 1.4562647e-07 
7.6476249e-07 -6.4488313e-07 1.2812160e-07 
3.5891123e-08 -1.2717801e-06 -1.5725095e-07 
0.0000000e+00 -1.1067730e-04 0.0000000e+00 
0.0000000e+00 -1.0029589e-04 0.0000000e+00 
0.0000000e+00 -7.8113626e-05 0.0000000e+00 
0.0000000e+00 -5.6880064e-05 0.0000000e+00 
0.0000000e+00 -3.7762136e-05 0.0000000e+00 
0.0000000e+00 -1.1934304e-05 0.0000000e+00 
0.0000000e+00 2.8996532e-05 0.0000000e+00 
0.0000000e+00 8.0778525e-05 0.0000000e+00 
0.0000000e+00 1.2655639e-04 0.0000000e+00 
0.0000000e+00 1.5194212e-04 0.0000000e+00 
0.0000000e+00 1.5949299e-04 0.0000000e+00 
0.0000000e+00 1.7465322e-04 0.0000000e+00 
0.0000000e+00 2.2230703e-04 0.0000000e+00 
0.0000000e+00 2.8349116e-04 0.0000000e+00 
0.0000000e+00 2.9165210e-04 0.0000000e+00 
0.0000000e+00 1.8674735e-04 0.0000000e+00 
0.0000000e+00 -4.7886642e-05 0.0000000e+00 
0.0000000e+00 -4.1200191e-04 0.0000000e+00 
0.0000000e+00 -9.4375352e-04 0.0000000e+00 
0.0000000e+00 -1.7533527e-03 0.0000000e+00 
0.0000000e+00 -2.9326321e-03 0.0000000e+00 
0.0000000e+00 -4.3481137e-03 0.0000000e+00 
0.0000000e+00 -5.3473949e-03 0.0000000e+00 
0.0000000e+00 -5.1833186e-03 0.0000000e+00 
0.0000000e+00 -4.6178973e-03 0.0000000e+00 
0.0000000e+00 -4.4194735e-03 0.0000000e+00 
0.0000000e+00 -4.6833502e-03 0.0000000e+00 
0.0000000e+00 -4.7886041e-03 0.0000000e+00 
0.0000000e+00 -3.8025985e-03 0.0000000e+00 
0.0000000e+00 -2.3569099e-03 0.0000000e+00 
0.0000000e+00 -1.0903022e-03 0.0000000e+00 
0.0000000e+00 -2.6044439e-04 0.0000000e+00 
0.0000000e+00 1.4333460e-04 0.0000000e+00 
0.0000000e+00 2.5993533e-04 0.0000000e+00 
0.0000000e+00 2.3843469e-04 0.0000000e+00 
0.0000000e+00 1.7182727e-04 0.0000000e+00 
0.0000000e+00 9.6682830e-05 0.0000000e+00 
0.0000000e+00 2.1690566e-05 0.0000000e+00 
0.0000000e+00 -4.1435935e-05 0.0000000e+00 
0.0000000e+00 -7.8666257e-05 0.0000000e+00 
0.0000000e+00 -8.8801717e-05 0.0000000e+00 
0.0000000e+00 -7.8974561e-05 0.0000000e+00 
0.0000000e+00 -5.4683242e-05 0.0000000e+00 
0.0000000e+00 -2.2523534e-05 0.0000000e+00 
0.0000000e+00 6.5564527e-06 0.0000000e+00 
0.0000000e+00 2.8934157e-05 0.0000000e+00 
0.0000000e+00 5.4745931e-05 0.0000000e+00 
0.0000000e+00 9.5757590e-05 0.0000000e+00 
0.0000000e+00 1.4835611e-04 0.0000000e+00 
0.0000000e+00 1.9428568e-04 0.0000000e+00 
0.0000000e+00 2.1461709e-04 0.0000000e+00 
0.0000000e+00 2.1043296e-04 0.0000000e+00 
0.0000000e+00 2.1668914e-04 0.0000000e+00 
0.0000000e+00 2.5743281e-04 0.0000000e+00 
0.0000000e+00 2.9680622e-04 0.0000000e+00 
0.0000000e+00 2.4125677e-04 0.0000000e+00 
0.0000000e+00 -9.0448475e-06 0.0000000e+00 
0.0000000e+00 -4.9171306e-04 0.0000000e+00 
0.0000000e+00 -1.1933229e-03 0.0000000e+00 
0.0000000e+00 -2.1238904e-03 0.0000000e+00 
0.0000000e+00 -3.2954141e-03 0.0000000e+00 
0.0000000e+00 -4.5690867e-03 0.0000000e+00 
0.0000000e+00 -5.3790458e-03 0.0000000e+00 
0.0000000e+00 -5.1471358e-03 0.0000000e+00 
0.0000000e+00 -4.6471315e-03 0.0000000e+00 
0.0000000e+00 -4.5352532e-03 0.0000000e+00 
0.0000000e+00 -4.7734720e-03 0.0000000e+00 
0.0000000e+00 -4.7142738e-03 0.0000000e+00 
0.0000000e+00 -3.5821195e-03 0.0000000e+00 
0.0000000e+00 -2.1158219e-03 0.0000000e+00 
0.0000000e+00 -9.2243985e-04 0.0000000e+00 
0.0000000e+00 -1.9374471e-04 0.0000000e+00 
0.0000000e+00 1.4419440e-04 0.0000000e+00 
0.0000000e+00 2.4795832e-04 0.0000000e+00 
0.0000000e+00 2.3519257e-04 0.0000000e+00 
0.0000000e+00 1.6896434e-04 0.0000000e+00 
0.0000000e+00 8.6545981e-05 0.0000000e+00 
0.0000000e+00 2.0337729e-05 0.0000000e+00 
0.0000000e+00 -1.1409266e-05 0.0000000e+00 
0.0000000e+00 -1.5019041e-05 0.0000000e+00 
0.0000000e+00 -8.3462473e-06 0.0000000e+00 
0.0000000e+00 -1.8882993e-06 0.0000000e+00 
0.0000000e+00 3.6962147e-06 0.0000000e+00 
0.0000000e+00 8.6411792e-06 0.0000000e+00 
0.0000000e+00 9.6402373e-06 0.0000000e+00 
0.0000000e+00 3.8878775e-06 0.0000000e+00 
0.0000000e+00 -4.5619868e-06 0.0000000e+00 
0.0000000e+00 -9.2510963e-06 0.0000000e+00 
0.0000000e+00 -8.2993220e-06 0.0000000e+00 
0.0000000e+00 -4.4719818e-06 0.0000000e+00 
0.0000000e+00 -1.4516329e-06 0.0000000e+00 
0.0000000e+00 -2.8785453e-07 0.0000000e+00 
0.0000000e+00 3.9031798e-07 0.0000000e+00 
0.0000000e+00 1.5950002e-06 0.0000000e+00 
0.0000000e+00 2.6909083e-06 0.0000000e+00 
0.0000000e+00 2.7035155e-06 0.0000000e+00 
0.0000000e+00 1.6587469e-06 0.0000000e+00 
0.0000000e+00 3.4272287e-07 0.0000000e+00 
0.0000000e+00 -6.7102962e-07 0.0000000e+00 
0.0000000e+00 -1.2732801e-06 0.0000000e+00 
0.0000000e+00 -1.4768891e-06 0.0000000e+00 
4.8380742e-05 1.5988435e-04 -1.6258691e-05 
2.4401930e-05 3.3849699e-07 4.2108818e-06 
2.1435195e-05 -9.7749326e-06 -2.0180721e-06 
2.1657585e-05 1.2332929e-05 -1.6776854e-05 
0.0000000e+00 -1.3242097e-04 0.0000000e+00 
0.0000000e+00 0.0000000e+00 0.0000000e+00 
0.0000000e+00 0.0000000e+00 0.0000000e+00 
0.0000000e+00 0.0000000e+00 0.0000000e+00 
0.0000000e+00 0.0000000e+00 0.0000000e+00 
0.0000000e+00 0.0000000e+00 0.0000000e+00 
0.0000000e+00 0.0000000e+00 0.0000000e+00 
0.0000000e+00 0.0000000e+00 0.0000000e+00 
0.0000000e+00 0.0000000e+00 0.0000000e+00 
0.0000000e+00 0.0000000e+00 0.0000000e+00 
0.0000000e+00 0.0000000e+00 0.0000000e+00 
0.0000000e+00 0.0000000e+00 0.0000000e+00 
0.0000000e+00 0.0000000e+00 0.0000000e+00 
0.0000000e+00 0.0000000e+00 0.0000000e+00 
0.0000000e+00 0.0000000e+00 0.0000000e+00 
0.0000000e+00 0.0000000e+00 0.0000000e+00 
0.0000000e+00 0.0000000e+00 0.0000000e+00 
0.0000000e+00 0.0000000e+00 0.0000000e+00 
0.0000000e+00 0.0000000e+00 0.0000000e+00 
0.0000000e+00 0.0000000e+00 0.0000000e+00 
0.0000000e+00 0.0000000e+00 0.0000000e+00 
0.0000000e+00 0.0000000e+00 0.0000000e+00 
0.0000000e+00 0.0000000e+00 0.0000000e+00 
0.0000000e+00 0.0000000e+00 0.0000000e+00 
0.0000000e+00 0.0000000e+00 0.0000000e+00 
0.0000000e+00 0.0000000e+00 0.0000000e+00 
0.0000000e+00 0.0000000e+00 0.0000000e+00 
0.0000000e+00 0.0000000e+00 0.0000000e+00 
0.0000000e+00 0.0000000e+00 0.0000000e+00 
0.0000000e+00 0.0000000e+00 0.0000000e+00 
0.0000000e+00 0.0000000e+00 0.0000000e+00 
0.0000000e+00 0.0000000e+00 0.0000000e+00 
0.0000000e+00 0.0000000e+00 0.0000000e+00 
0.0000000e+00 0.0000000e+00 0.0000000e+00 
0.0000000e+00 0.0000000e+00 0.0000000e+00 
0.0000000e+00 0.0000000e+00 0.0000000e+00 
0.0000000e+00 0.0000000e+00 0.0000000e+00 
0.0000000e+00 0.0000000e+00 0.0000000e+00 
0.0000000e+00 0.0000000e+00 0.0000000e+00 
0.0000000e+00 0.0000000e+00 0.0000000e+00 
0.0000000e+00 0.0000000e+00 0.0000000e+00 
0.0000000e+00 0.0000000e+00 0.0000000e+00 
0.0000000e+00 0.0000000e+00 0.0000000e+00 
0.0000000e+00 0.0000000e+00 0.0000000e+00 
0.0000000e+00 0.0000000e+00 0.0000000e+00 
0.0000000e+00 0.0000000e+00 0.0000000e+00 
0.0000000e+00 0.0000000e+00 0.0000000e+00 
0.0000000e+00 0.0000000e+00 0.0000000e+00 
0.0000000e+00 0.0000000e+00 0.0000000e+00 
0.0000000e+00 0.0000000e+00 0.0000000e+00 
0.0000000e+00 0.0000000e+00 0.0000000e+00 
0.0000000e+00 0.0000000e+00 0.0000000e+00 
0.0000000e+00 0.0000000e+00 0.0000000e+00 
0.0000000e+00 0.0000000e+00 0.0000000e+00 
0.0000000e+00 0.0000000e+00 0.0000000e+00 
0.0000000e+00 0.0000000e+00 0.0000000e+00 
0.0000000e+00 0.0000000e+00 0.0000000e+00 
0.0000000e+00 0.0000000e+00 0.0000000e+00 
0.0000000e+00 0.0000000e+00 0.0000000e+00 
0.0000000e+00 0.0000000e+00 0.0000000e+00 
0.0000000e+00 0.0000000e+00 0.0000000e+00 
0.0000000e+00 0.0000000e+00 0.0000000e+00 
0.0000000e+00 0.0000000e+00 0.0000000e+00 
0.0000000e+00 0.0000000e+00 0.0000000e+00 
0.0000000e+00 0.0000000e+00 0.0000000e+00 
0.0000000e+00 0.0000000e+00 0.0000000e+00 
0.0000000e+00 0.0000000e+00 0.0000000e+00 
0.0000000e+00 0.0000000e+00 0.0000000e+00 
0.0000000e+00 0.0000000e+00 0.0000000e+00 
0.0000000e+00 0.0000000e+00 0.0000000e+00 
0.0000000e+00 0.0000000e+00 0.0000000e+00 
0.0000000e+00 0.0000000e+00 0.0000000e+00 
0.0000000e+00 0.0000000e+00 0.0000000e+00 
0.0000000e+00 0.0000000e+00 0.0000000e+00 
0.0000000e+00 0.0000000e+00 0.0000000e+00 
0.0000000e+00 0.0000000e+00 0.0000000e+00 
0.0000000e+00 0.0000000e+00 0.0000000e+00 
0.0000000e+00 0.0000000e+00 0.0000000e+00 
0.0000000e+00 0.0000000e+00 0.0000000e+00 
0.0000000e+00 0.0000000e+00 0.0000000e+00 
0.0000000e+00 0.0000000e+00 0.0000000e+00 
0.0000000e+00 0.0000000e+00 0.0000000e+00 
0.0000000e+00 0.0000000e+00 0.0000000e+00 
0.0000000e+00 0.0000000e+00 0.0000000e+00 
0.0000000e+00 0.0000000e+00 0.0000000e+00 
0.0000000e+00 0.0000000e+00 0.0000000e+00 
0.0000000e+00 0.0000000e+00 0.0000000e+00 
0.0000000e+00 0.0000000e+00 0.0000000e+00 
0.0000000e+00 0.0000000e+00 0.0000000e+00 
0.0000000e+00 0.0000000e+00 0.0000000e+00 
0.0000000e+00 0.0000000e+00 0.0000000e+00 
0.0000000e+00 0.0000000e+00 0.0000000e+00 
0.0000000e+00 0.0000000e+00 0.0000000e+00 
0.0000000e+00 0.0000000e+00 0.0000000e+00 
0.0000000e+00 0.0000000e+00 0.0000000e+00 
0.0000000e+00 0.0000000e+00 0.0000000e+00 
0.0000000e+00 0.0000000e+00 0.0000000e+00 
0.0000000e+00 0.0000000e+00 0.0000000e+00 
0.0000000e+00 0.0000000e+00 0.0000000e+00 
0.0000000e+00 0.0000000e+00 0.0000000e+00 
0.0000000e+00 0.0000000e+00 0.0000000e+00 
0.0000000e+00 0.0000000e+00 0.0000000e+00 
0.0000000e+00 0.0000000e+00 0.0000000e+00 
0.0000000e+00 0.0000000e+00 0.0000000e+00 
0.0000000e+00 0.0000000e+00 0.0000000e+00 
0.0000000e+00 0.0000000e+00 0.0000000e+00 
0.0000000e+00 0.0000000e+00 0.0000000e+00 
-5.7089865e-06 6.7068031e-06 8.5716065e-06 
-5.4060627e-07 1.1877357e-05 5.0418744e-06 
6.8875838e-06 1.2992751e-05 -4.3254122e-06 
1.3878860e-05 4.9406426e-06 -5.6853164e-06 
1.9609062e-05 1.0313853e-05 -9.3603867e-06 
3.1307343e-05 8.9130581e-06 -1.1353502e-05 
2.7902359e-05 -1.2009687e-06 -8.3376381e-06 
3.7593767e-05 1.2165761e-05 -9.9239514e-06 
4.4224696e-05 6.0678103e-06 -7.7885015e-06 
4.3091521e-05 5.0764274e-06 -1.0622010e-05 
4.3379387e-05 1.8248041e-06 -1.3630541e-05 
4.1994121e-05 -6.7089663e-06 -1.6884200e-05 
3.4036195e-05 -1.3334621e-05 -1.2108916e-05 
1.9107620e-05 -1.0601781e-05 -8.0659174e-06 
1.0285482e-05 -2.8551312e-06 -1.6084441e-06 
8.1603857e-06 -1.5916465e-06 1.0346540e-05 
4.8586985e-06 5.7168608e-09 1.9433788e-05 
1.0576902e-06 -2.5402796e-06 2.6822883e-05 
-2.1567773e-06 -3.4462005e-06 2.5418272e-05 
-4.2140214e-06 3.1353741e-06 1.7509336e-05 
-1.6268303e-06 4.5573752e-06 9.6466129e-06 
3.2556179e-06 1.7262719e-05 4.0753243e-06 
8.1776634e-06 1.3124443e-05 -6.4137116e-06 
1.8217524e-05 2.0919988e-06 -1.2434831e-05 
1.8935478e-05 9.6160493e-06 -7.7794630e-06 
2.7012084e-05 1.0776183e-05 -7.8925759e-06 
3.7020818e-05 -2.6902535e-06 -7.7196237e-06 
4.0425330e-05 3.2250362e-06 -1.2475603e-05 
4.9863294e-05 5.7275279e-06 -1.1159058e-05 
4.5920417e-05 -2.7031174e-06 -1.0093797e-05 
4.1686024e-05 -1.3065503e-06 -9.6667936e-06 
3.5667952e-05 -7.0880042e-06 -7.3825595e-06 
2.3741572e-05 -6.3775924e-06 -5.0432004e-06 
1.9142430e-05 -4.4185444e-06 3.2700748e-06 
1.0956434e-05 -1.9029925e-06 7.1945756e-06 
7.2475054e-06 -4.8346328e-06 1.2366492e-05 
6.0614375e-06 -2.7468616e-06 1.7807424e-05 
4.1264502e-06 -5.1124226e-07 1.7851396e-05 
4.6428004e-06 -3.1902337e-06 1.3695751e-05 
4.3854652e-06 -5.3454523e-06 7.6040828e-06 
1.6236355e-06 -1.2525117e-06 2.8550351e-06 
-1.8901449e-07 2.5803356e-06 -1.0191599e-06 
-2.4547728e-07 1.2391624e-06 -4.6477267e-06 
-3.0750519e-07 -4.9474261e-07 -3.9269544e-06 
-1.0927400e-06 6.1979966e-07 -7.2096526e-07 
-3.6832904e-07 -5.4913247e-09 3.8055100e-07 
2.6316670e-07 -2.1491076e-08 6.7472297e-07 
1.8547124e-07 -1.5001365e-07 7.3123078e-07 
-1.7259863e-07 2.9686191e-07 2.5952713e-07 
0.0000000e+00 1.5549787e-05 0.0000000e+00 
0.0000000e+00 4.4706662e-06 0.0000000e+00 
0.0000000e+00 1.2680309e-06 0.0000000e+00 
0.0000000e+00 -3.6427598e-05 0.0000000e+00 
0.0000000e+00 -4.5643596e-05 0.0000000e+00 
0.0000000e+00 -4.0169261e-06 0.0000000e+00 
0.0000000e+00 -6.8248410e-05 0.0000000e+00 
0.0000000e+00 -1.4257534e-04 0.0000000e+00 
0.0000000e+00 -1.9826234e-04 0.0000000e+00 
0.0000000e+00 -3.9505734e-04 0.0000000e+00 
0.0000000e+00 -4.8797848e-04 0.0000000e+00 
0.0000000e+00 -4.9674901e-04 0.0000000e+00 
0.0000000e+00 -4.7672505e-04 0.0000000e+00 
0.0000000e+00 -3.3185366e-04 0.0000000e+00 
0.0000000e+00 -1.7768826e-04 0.0000000e+00 
0.0000000e+00 -5.7580099e-05 0.0000000e+00 
0.0000000e+00 5.7609473e-06 0.0000000e+00 
0.0000000e+00 2.1066337e-05 0.0000000e+00 
0.0000000e+00 8.5303654e-06 0.0000000e+00 
0.0000000e+00 1.2284363e-05 0.0000000e+00 
0.0000000e+00 1.0371155e-05 0.0000000e+00 
0.0000000e+00 -2.0311241e-05 0.0000000e+00 
0.0000000e+00 -2.3931903e-05 0.0000000e+00 
0.0000000e+00 -1.5560172e-05 0.0000000e+00 
0.0000000e+00 -7.2460651e-05 0.0000000e+00 
0.0000000e+00 -8.1768936e-05 0.0000000e+00 
0.0000000e+00 -6.1779414e-05 0.0000000e+00 
0.0000000e+00 -1.7666013e-04 0.0000000e+00 
0.0000000e+00 -2.0581092e-04 0.0000000e+00 
0.0000000e+00 -3.8698380e-04 0.0000000e+00 
0.0000000e+00 -5.2172778e-04 0.0000000e+00 
0.0000000e+00 -5.1403273e-04 0.0000000e+00 
0.0000000e+00 -4.6545838e-04 0.0000000e+00 
0.0000000e+00 -3.2452386e-04 0.0000000e+00 
0.0000000e+00 -1.4546140e-04 0.0000000e+00 
0.0000000e+00 -1.9609144e-05 0.0000000e+00 
0.0000000e+00 7.0373571e-06 0.0000000e+00 
0.0000000e+00 9.0294088e-06 0.0000000e+00 
0.0000000e+00 -6.1463072e-07 0.0000000e+00 
0.0000000e+00 3.5618043e-06 0.0000000e+00 
0.0000000e+00 7.3860192e-06 0.0000000e+00 
0.0000000e+00 -1.0779656e-06 0.0000000e+00 
0.0000000e+00 -3.7025363e-06 0.0000000e+00 
0.0000000e+00 5.2031925e-07 0.0000000e+00 
0.0000000e+00 1.5597277e-06 0.0000000e+00 
0.0000000e+00 -2.5906689e-07 0.0000000e+00 
0.0000000e+00 -5.4977534e-07 0.0000000e+00 
0.0000000e+00 -8.6182223e-07 0.0000000e+00 
0.0000000e+00 1.5995322e-07 0.0000000e+00 
-6.2734521e-06 4.1039930e-06 7.6616943e-06 
-4.6683140e-06 1.3191444e-05 1.3476591e-05 
-2.0538264e-06 8.4003859e-06 1.5630796e-05 
2.5064057e-06 9.7529537e-06 9.8803575e-06 
-1.4752504e-07 1.1729878e-07 7.6820669e-08 
1.9515517e-07 -8.4972733e-08 -1.8010809e-07 
1.8128726e-07 -5.6822813e-07 -2.8610324e-07 
-2.1177331e-07 -2.1865554e-07 -2.1802353e-07 
-5.5646710e-06 3.9328033e-06 -7.1502308e-07 
-1.5717939e-07 -1.0091618e-07 2.5728667e-07 
9.5162040e-06 -1.4478278e-05 8.0953159e-06 
2.2251797e-06 1.4781001e-05 2.9276307e-05 
0.0000000e+00 1.1073309e-06 0.0000000e+00 
0.0000000e+00 9.7119464e-06 0.0000000e+00 
0.0000000e+00 -1.6581967e-05 0.0000000e+00 
0.0000000e+00 -4.7989091e-05 0.0000000e+00 
0.0000000e+00 -5.2781037e-05 0.0000000e+00 
0.0000000e+00 -3.1490003e-05 0.0000000e+00 
0.0000000e+00 -7.9028425e-05 0.0000000e+00 
0.0000000e+00 -2.2892028e-04 0.0000000e+00 
0.0000000e+00 -4.3245548e-04 0.0000000e+00 
0.0000000e+00 -8.8030891e-04 0.0000000e+00 
0.0000000e+00 -1.0712418e-03 0.0000000e+00 
0.0000000e+00 -1.0512976e-03 0.0000000e+00 
0.0000000e+00 -9.9140848e-04 0.0000000e+00 