# vtk DataFile Version 4.0
vtk output
ASCII
DATASET UNSTRUCTURED_GRID
POINTS 1919 float
0.0000000e+00 0.0000000e+00 0.0000000e+00 
0.0000000e+00 0.0000000e+00 5.0000000e+01 
5.0000000e+00 0.0000000e+00 0.0000000e+00 
5.0000000e+00 0.0000000e+00 5.0000000e+01 
5.0000000e+00 1.0000000e+00 0.0000000e+00 
5.0000000e+00 1.0000000e+00 5.0000000e+01 
0.0000000e+00 1.0000000e+00 0.0000000e+00 
0.0000000e+00 1.0000000e+00 5.0000000e+01 
5.0000000e+00 2.0000000e+00 0.0000000e+00 
5.0000000e+00 2.0000000e+00 5.0000000e+01 
3.0000000e+00 2.0000000e+00 0.0000000e+00 
3.0000000e+00 2.0000000e+00 5.0000000e+01 
0.0000000e+00 2.0000000e+00 0.0000000e+00 
0.0000000e+00 2.0000000e+00 5.0000000e+01 
1.5000000e+00 3.0000000e+00 0.0000000e+00 
1.5000000e+00 3.0000000e+00 5.0000000e+01 
7.5000000e-01 3.0000000e+00 0.0000000e+00 
7.5000000e-01 3.0000000e+00 5.0000000e+01 
0.0000000e+00 3.0000000e+00 0.0000000e+00 
0.0000000e+00 3.0000000e+00 5.0000000e+01 
7.5000000e-01 3.0000000e+00 5.0000000e-01 
7.5000000e-01 3.0000000e+00 1.0000000e+00 
7.5000000e-01 3.0000000e+00 1.5000000e+00 
7.5000000e-01 3.0000000e+00 2.0000000e+00 
7.5000000e-01 3.0000000e+00 2.5000000e+00 
7.5000000e-01 3.0000000e+00 3.0000000e+00 
7.5000000e-01 3.0000000e+00 3.5000000e+00 
7.5000000e-01 3.0000000e+00 4.0000000e+00 
7.5000000e-01 3.0000000e+00 4.5000000e+00 
7.5000000e-01 3.0000000e+00 5.0000000e+00 
7.5000000e-01 3.0000000e+00 5.5000000e+00 
7.5000000e-01 3.0000000e+00 6.0000000e+00 
7.5000000e-01 3.0000000e+00 6.5000000e+00 
7.5000000e-01 3.0000000e+00 7.0000000e+00 
7.5000000e-01 3.0000000e+00 7.5000000e+00 
7.5000000e-01 3.0000000e+00 8.0000000e+00 
7.5000000e-01 3.0000000e+00 8.5000000e+00 
7.5000000e-01 3.0000000e+00 9.0000000e+00 
7.5000000e-01 3.0000000e+00 9.5000000e+00 
7.5000000e-01 3.0000000e+00 1.0000000e+01 
7.5000000e-01 3.0000000e+00 1.0500000e+01 
7.5000000e-01 3.0000000e+00 1.1000000e+01 
7.5000000e-01 3.0000000e+00 1.1500000e+01 
7.5000000e-01 3.0000000e+00 1.2000000e+01 
7.5000000e-01 3.0000000e+00 1.2500000e+01 
7.5000000e-01 3.0000000e+00 1.3000000e+01 
7.5000000e-01 3.0000000e+00 1.3500000e+01 
7.5000000e-01 3.0000000e+00 1.4000000e+01 
7.5000000e-01 3.0000000e+00 1.4500000e+01 
7.5000000e-01 3.0000000e+00 1.5000000e+01 
7.5000000e-01 3.0000000e+00 1.5500000e+01 
7.5000000e-01 3.0000000e+00 1.6000000e+01 
7.5000000e-01 3.0000000e+00 1.6500000e+01 
7.5000000e-01 3.0000000e+00 1.7000000e+01 
7.5000000e-01 3.0000000e+00 1.7500000e+01 
7.5000000e-01 3.0000000e+00 1.8000000e+01 
7.5000000e-01 3.0000000e+00 1.8500000e+01 
7.5000000e-01 3.0000000e+00 1.9000000e+01 
7.5000000e-01 3.0000000e+00 1.9500000e+01 
7.5000000e-01 3.0000000e+00 2.0000000e+01 
7.5000000e-01 3.0000000e+00 2.0500000e+01 
7.5000000e-01 3.0000000e+00 2.1000000e+01 
7.5000000e-01 3.0000000e+00 2.1500000e+01 
7.5000000e-01 3.0000000e+00 2.2000000e+01 
7.5000000e-01 3.0000000e+00 2.2500000e+01 
7.5000000e-01 3.0000000e+00 2.3000000e+01 
7.5000000e-01 3.0000000e+00 2.3500000e+01 
7.5000000e-01 3.0000000e+00 2.4000000e+01 
7.5000000e-01 3.0000000e+00 2.4500000e+01 
7.5000000e-01 3.0000000e+00 2.5000000e+01 
7.5000000e-01 3.0000000e+00 2.5500000e+01 
7.5000000e-01 3.0000000e+00 2.6000000e+01 
7.5000000e-01 3.0000000e+00 2.6500000e+01 
7.5000000e-01 3.0000000e+00 2.7000000e+01 
7.5000000e-01 3.0000000e+00 2.7500000e+01 
7.5000000e-01 3.0000000e+00 2.8000000e+01 
7.5000000e-01 3.0000000e+00 2.8500000e+01 
7.5000000e-01 3.0000000e+00 2.9000000e+01 
7.5000000e-01 3.0000000e+00 2.9500000e+01 
7.5000000e-01 3.0000000e+00 3.0000000e+01 
7.5000000e-01 3.0000000e+00 3.0500000e+01 
7.5000000e-01 3.0000000e+00 3.1000000e+01 
7.5000000e-01 3.0000000e+00 3.1500000e+01 
7.5000000e-01 3.0000000e+00 3.2000000e+01 
7.5000000e-01 3.0000000e+00 3.2500000e+01 
7.5000000e-01 3.0000000e+00 3.3000000e+01 
7.5000000e-01 3.0000000e+00 3.3500000e+01 
7.5000000e-01 3.0000000e+00 3.4000000e+01 
7.5000000e-01 3.0000000e+00 3.4500000e+01 
7.5000000e-01 3.0000000e+00 3.5000000e+01 
7.5000000e-01 3.0000000e+00 3.5500000e+01 
7.5000000e-01 3.0000000e+00 3.6000000e+01 
7.5000000e-01 3.0000000e+00 3.6500000e+01 
7.5000000e-01 3.0000000e+00 3.7000000e+01 
7.5000000e-01 3.0000000e+00 3.7500000e+01 
7.5000000e-01 3.0000000e+00 3.8000000e+01 
7.5000000e-01 3.0000000e+00 3.8500000e+01 
7.5000000e-01 3.0000000e+00 3.9000000e+01 
7.5000000e-01 3.0000000e+00 3.9500000e+01 
7.5000000e-01 3.0000000e+00 4.0000000e+01 
7.5000000e-01 3.0000000e+00 4.0500000e+01 
7.5000000e-01 3.0000000e+00 4.1000000e+01 
7.5000000e-01 3.0000000e+00 4.1500000e+01 
7.5000000e-01 3.0000000e+00 4.2000000e+01 
7.5000000e-01 3.0000000e+00 4.2500000e+01 
7.5000000e-01 3.0000000e+00 4.3000000e+01 
7.5000000e-01 3.0000000e+00 4.3500000e+01 
7.5000000e-01 3.0000000e+00 4.4000000e+01 
7.5000000e-01 3.0000000e+00 4.4500000e+01 
7.5000000e-01 3.0000000e+00 4.5000000e+01 
7.5000000e-01 3.0000000e+00 4.5500000e+01 
7.5000000e-01 3.0000000e+00 4.6000000e+01 
7.5000000e-01 3.0000000e+00 4.6500000e+01 
7.5000000e-01 3.0000000e+00 4.7000000e+01 
7.5000000e-01 3.0000000e+00 4.7500000e+01 
7.5000000e-01 3.0000000e+00 4.8000000e+01 
7.5000000e-01 3.0000000e+00 4.8500000e+01 
7.5000000e-01 3.0000000e+00 4.9000000e+01 
7.5000000e-01 3.0000000e+00 4.9500000e+01 
7.5000000e-01 3.0250001e+00 0.0000000e+00 
7.5000000e-01 3.0250001e+00 5.0000000e-01 
7.5000000e-01 3.0250001e+00 1.0000000e+00 
7.5000000e-01 3.0250001e+00 1.5000000e+00 
7.5000000e-01 3.0250001e+00 2.0000000e+00 
7.5000000e-01 3.0250001e+00 2.5000000e+00 
7.5000000e-01 3.0250001e+00 3.0000000e+00 
7.5000000e-01 3.0250001e+00 3.5000000e+00 
7.5000000e-01 3.0250001e+00 4.0000000e+00 
7.5000000e-01 3.0250001e+00 4.5000000e+00 
7.5000000e-01 3.0250001e+00 5.0000000e+00 
7.5000000e-01 3.0250001e+00 5.5000000e+00 
7.5000000e-01 3.0250001e+00 6.0000000e+00 
7.5000000e-01 3.0250001e+00 6.5000000e+00 
7.5000000e-01 3.0250001e+00 7.0000000e+00 
7.5000000e-01 3.0250001e+00 7.5000000e+00 
7.5000000e-01 3.0250001e+00 8.0000000e+00 
7.5000000e-01 3.0250001e+00 8.5000000e+00 
7.5000000e-01 3.0250001e+00 9.0000000e+00 
7.5000000e-01 3.0250001e+00 9.5000000e+00 
7.5000000e-01 3.0250001e+00 1.0000000e+01 
7.5000000e-01 3.0250001e+00 1.0500000e+01 
7.5000000e-01 3.0250001e+00 1.1000000e+01 
7.5000000e-01 3.0250001e+00 1.1500000e+01 
7.5000000e-01 3.0250001e+00 1.2000000e+01 
7.5000000e-01 3.0250001e+00 1.2500000e+01 
7.5000000e-01 3.0250001e+00 1.3000000e+01 
7.5000000e-01 3.0250001e+00 1.3500000e+01 
7.5000000e-01 3.0250001e+00 1.4000000e+01 
7.5000000e-01 3.0250001e+00 1.4500000e+01 
7.5000000e-01 3.0250001e+00 1.5000000e+01 
7.5000000e-01 3.0250001e+00 1.5500000e+01 
7.5000000e-01 3.0250001e+00 1.6000000e+01 
7.5000000e-01 3.0250001e+00 1.6500000e+01 
7.5000000e-01 3.0250001e+00 1.7000000e+01 
7.5000000e-01 3.0250001e+00 1.7500000e+01 
7.5000000e-01 3.0250001e+00 1.8000000e+01 
7.5000000e-01 3.0250001e+00 1.8500000e+01 
7.5000000e-01 3.0250001e+00 1.9000000e+01 
7.5000000e-01 3.0250001e+00 1.9500000e+01 
7.5000000e-01 3.0250001e+00 2.0000000e+01 
7.5000000e-01 3.0250001e+00 2.0500000e+01 
7.5000000e-01 3.0250001e+00 2.1000000e+01 
7.5000000e-01 3.0250001e+00 2.1500000e+01 
7.5000000e-01 3.0250001e+00 2.2000000e+01 
7.5000000e-01 3.0250001e+00 2.2500000e+01 
7.5000000e-01 3.0250001e+00 2.3000000e+01 
7.5000000e-01 3.0250001e+00 2.3500000e+01 
7.5000000e-01 3.0250001e+00 2.4000000e+01 
7.5000000e-01 3.0250001e+00 2.4500000e+01 
7.5000000e-01 3.0250001e+00 2.5000000e+01 
7.5000000e-01 3.0250001e+00 2.5500000e+01 
7.5000000e-01 3.0250001e+00 2.6000000e+01 
7.5000000e-01 3.0250001e+00 2.6500000e+01 
7.5000000e-01 3.0250001e+00 2.7000000e+01 
7.5000000e-01 3.0250001e+00 2.7500000e+01 
7.5000000e-01 3.0250001e+00 2.8000000e+01 
7.5000000e-01 3.0250001e+00 2.8500000e+01 
7.5000000e-01 3.0250001e+00 2.9000000e+01 
7.5000000e-01 3.0250001e+00 2.9500000e+01 
7.5000000e-01 3.0250001e+00 3.0000000e+01 
7.5000000e-01 3.0250001e+00 3.0500000e+01 
7.5000000e-01 3.0250001e+00 3.1000000e+01 
7.5000000e-01 3.0250001e+00 3.1500000e+01 
7.5000000e-01 3.0250001e+00 3.2000000e+01 
7.5000000e-01 3.0250001e+00 3.2500000e+01 
7.5000000e-01 3.0250001e+00 3.3000000e+01 
7.5000000e-01 3.0250001e+00 3.3500000e+01 
7.5000000e-01 3.0250001e+00 3.4000000e+01 
7.5000000e-01 3.0250001e+00 3.4500000e+01 
7.5000000e-01 3.0250001e+00 3.5000000e+01 
7.5000000e-01 3.0250001e+00 3.5500000e+01 
7.5000000e-01 3.0250001e+00 3.6000000e+01 
7.5000000e-01 3.0250001e+00 3.6500000e+01 
7.5000000e-01 3.0250001e+00 3.7000000e+01 
7.5000000e-01 3.0250001e+00 3.7500000e+01 
7.5000000e-01 3.0250001e+00 3.8000000e+01 
7.5000000e-01 3.0250001e+00 3.8500000e+01 
7.5000000e-01 3.0250001e+00 3.9000000e+01 
7.5000000e-01 3.0250001e+00 3.9500000e+01 
7.5000000e-01 3.0250001e+00 4.0000000e+01 
7.5000000e-01 3.0250001e+00 4.0500000e+01 
7.5000000e-01 3.0250001e+00 4.1000000e+01 
7.5000000e-01 3.0250001e+00 4.1500000e+01 
7.5000000e-01 3.0250001e+00 4.2000000e+01 
7.5000000e-01 3.0250001e+00 4.2500000e+01 
7.5000000e-01 3.0250001e+00 4.3000000e+01 
7.5000000e-01 3.0250001e+00 4.3500000e+01 
7.5000000e-01 3.0250001e+00 4.4000000e+01 
7.5000000e-01 3.0250001e+00 4.4500000e+01 
7.5000000e-01 3.0250001e+00 4.5000000e+01 
7.5000000e-01 3.0250001e+00 4.5500000e+01 
7.5000000e-01 3.0250001e+00 4.6000000e+01 
7.5000000e-01 3.0250001e+00 4.6500000e+01 
7.5000000e-01 3.0250001e+00 4.7000000e+01 
7.5000000e-01 3.0250001e+00 4.7500000e+01 
7.5000000e-01 3.0250001e+00 4.8000000e+01 
7.5000000e-01 3.0250001e+00 4.8500000e+01 
7.5000000e-01 3.0250001e+00 4.9000000e+01 
7.5000000e-01 3.0250001e+00 4.9500000e+01 
7.5000000e-01 3.0250001e+00 5.0000000e+01 
1.5000000e+00 3.0000000e+00 2.5000000e+01 
3.0000000e+00 2.0000000e+00 2.5000000e+01 
4.0000000e+00 2.0000000e+00 2.5000000e+01 
5.0000000e+00 2.0000000e+00 2.5000000e+01 
0.0000000e+00 3.0000000e+00 2.5000000e+01 
0.0000000e+00 0.0000000e+00 1.0000000e+00 
0.0000000e+00 0.0000000e+00 2.0000000e+00 
0.0000000e+00 0.0000000e+00 3.0000000e+00 
0.0000000e+00 0.0000000e+00 4.0000000e+00 
0.0000000e+00 0.0000000e+00 5.0000000e+00 
[...]
POINT_DATA 1919
FIELD FieldData 3
DISPLACEMENT 3 1919  float
0.0000000e+00 0.0000000e+00 0.0000000e+00 
0.0000000e+00 0.0000000e+00 0.0000000e+00 
0.0000000e+00 0.0000000e+00 0.0000000e+00 
0.0000000e+00 0.0000000e+00 0.0000000e+00 
2.0835896e-05 -2.2676311e-06 -1.8921412e-05 
-2.4795560e-10 -1.0248525e-09 3.3826988e-10 
0.0000000e+00 -2.6429396e-05 0.0000000e+00 
0.0000000e+00 -1.2179132e-08 0.0000000e+00 
2.5696128e-05 8.7433455e-06 -2.6412801e-05 
-1.2652772e-09 -1.8850338e-10 -1.5732305e-09 
-6.9153921e-06 -1.0908528e-06 5.9251170e-06 
-5.9680629e-09 4.5049182e-09 -7.6689712e-09 
0.0000000e+00 -1.4518131e-05 0.0000000e+00 
0.0000000e+00 8.6753410e-08 0.0000000e+00 
-4.9996302e-06 6.9431313e-05 7.3507203e-05 
-2.0979767e-08 1.2657473e-07 1.6236926e-08 
1.1788786e-05 -3.5718504e-06 4.9753303e-06 
-5.5064842e-09 -1.1076961e-06 2.4281930e-09 
0.0000000e+00 1.1262944e-04 0.0000000e+00 
0.0000000e+00 9.3481879e-07 0.0000000e+00 
4.8730590e-06 -5.3538647e-06 7.6900491e-05 
-1.9771117e-06 -2.2001697e-05 1.1320580e-04 
-1.6063197e-05 -7.0964605e-05 1.0479800e-04 
-3.6842353e-05 -1.5232484e-04 8.5277810e-05 
-3.2304793e-05 -2.3330616e-04 1.2138586e-04 
-6.0060593e-05 -2.8155113e-04 1.5229428e-04 
-5.3600375e-05 -3.2047328e-04 1.9276912e-04 
-1.1238508e-04 -4.3812874e-04 1.8400376e-04 
-1.8089205e-04 -7.1697030e-04 2.5446789e-04 
-2.3864274e-04 -1.1888180e-03 2.1930091e-04 
-2.6118476e-04 -1.8685949e-03 3.0347871e-04 
-3.1865473e-04 -2.7499518e-03 2.2938882e-04 
-3.2992315e-04 -3.8604494e-03 2.8903587e-04 
-4.8588053e-04 -5.0551044e-03 2.7290384e-05 
-4.9273792e-04 -5.8344835e-03 -6.0867911e-05 
-4.9269584e-04 -5.5306265e-03 -1.3512353e-04 
-3.8687099e-04 -4.9671805e-03 -2.9365346e-04 
-3.3165098e-04 -4.6952865e-03 -2.7652812e-04 
-2.6700797e-04 -4.7863373e-03 -2.3492394e-04 
-3.0157130e-04 -4.6176286e-03 -2.3115049e-04 
-2.1675932e-04 -3.5084600e-03 -3.7520326e-04 
-1.7210872e-04 -2.0715336e-03 -2.7985990e-04 
-5.8873738e-05 -9.0483105e-04 -3.5334734e-04 
7.9669553e-06 -1.5191206e-04 -1.8219555e-04 
3.7394529e-05 2.2359405e-04 -9.3088340e-05 
3.6128753e-05 3.3786157e-04 1.7835282e-05 
6.8496702e-06 2.9451164e-04 4.4528075e-05 
-4.5037191e-07 1.8497476e-04 5.1206480e-05 
-3.0923093e-06 7.9853118e-05 4.7237434e-05 
-3.3634522e-06 1.6380862e-05 5.4755074e-06 
5.4472266e-06 -4.5990600e-06 1.3838076e-05 
1.5107775e-06 -1.4632858e-05 -6.0491038e-06 
-9.2077840e-07 -3.5065670e-05 -1.8047920e-05 
3.0154390e-06 -5.1840532e-05 1.9774473e-06 
-3.5647554e-06 -4.1169726e-05 -1.8664590e-05 
2.3308273e-06 2.7265460e-06 -1.5526453e-05 
3.8449621e-06 5.4202195e-05 -2.8372383e-06 
-2.8622462e-06 7.2749368e-05 -1.6565020e-05 
-8.3540081e-06 4.6694051e-05 -4.1116650e-06 
7.5597877e-06 4.7212793e-06 1.7484263e-05 
1.3714925e-05 -2.5042720e-05 4.5003075e-05 
5.9918166e-06 -4.0471485e-05 8.2045102e-05 
8.0586888e-06 -6.7974586e-05 9.7891272e-05 
-4.5926616e-05 -1.4263917e-04 8.8535264e-05 
-6.1000133e-05 -2.5427129e-04 1.0697539e-04 
-8.0818747e-05 -3.4903281e-04 1.3605402e-04 
-8.3308165e-05 -3.9698955e-04 2.4524753e-04 
-4.9384562e-05 -4.6233129e-04 2.1768271e-04 
-1.6050290e-04 -6.7877787e-04 2.5756500e-04 
-1.4491531e-04 -1.1716611e-03 2.3340367e-04 
-2.5316741e-04 -1.9945253e-03 2.6055906e-04 
-3.1441991e-04 -3.0568219e-03 1.7270414e-04 
-3.9069544e-04 -4.2495560e-03 2.6339435e-04 
-5.0733966e-04 -5.2887434e-03 -3.0165481e-07 
-4.8707254e-04 -5.7388153e-03 -9.0610498e-05 
-4.7173063e-04 -5.3544128e-03 -1.4402719e-04 
-4.1223055e-04 -4.9505141e-03 -3.3731505e-04 
-4.0380680e-04 -4.8638242e-03 -3.4728373e-04 
-3.5591522e-04 -4.9408670e-03 -3.2698744e-04 
-3.4919631e-04 -4.4989293e-03 -2.6515778e-04 
-2.6569515e-04 -3.2660186e-03 -4.4658576e-04 
-1.6476488e-04 -1.8584996e-03 -2.9220115e-04 
-4.7392310e-05 -7.7801448e-04 -3.4534672e-04 
1.3299211e-05 -9.3395436e-05 -1.8079521e-04 
3.4376772e-05 2.5196263e-04 -7.6427954e-05 
3.6938800e-05 3.5218353e-04 3.8481336e-05 
6.8320765e-06 2.9199105e-04 6.1763880e-05 
4.2508686e-06 1.7305845e-04 5.2251617e-05 
5.8062301e-06 7.8347788e-05 4.2338335e-05 
-4.1005828e-07 2.5226724e-05 3.6899219e-06 
-1.4640862e-06 -2.7880535e-06 4.2561428e-06 
-3.3064539e-06 -2.4425733e-05 -7.4286454e-06 
-2.8729901e-06 -3.9757240e-05 -1.5240706e-05 
2.1238670e-06 -3.7327907e-05 -1.0771829e-06 
-2.0595655e-06 -1.6222821e-05 2.0114769e-06 
1.6401389e-06 7.2819316e-06 2.8510242e-06 
3.6661443e-06 1.8940595e-05 1.9412385e-06 
2.1276655e-06 1.6769340e-05 -6.0765581e-07 
-2.4782577e-07 7.0381366e-06 1.6591579e-06 
1.3909579e-07 -2.7882766e-06 1.0161209e-06 
-9.0061144e-07 -8.5600232e-06 -2.7090600e-06 
-3.5986875e-07 -9.1533493e-06 6.5253460e-07 
3.6999140e-07 -3.6586132e-06 2.9936473e-07 
2.5050684e-07 4.2007059e-06 -6.5761060e-07 
2.4109653e-07 8.0344571e-06 1.1496951e-06 
-7.1864875e-08 5.3771460e-06 2.9400805e-08 
-2.1438316e-07 -1.0435455e-06 -6.1886652e-07 
7.9118422e-08 -5.4770371e-06 4.8390416e-07 
-2.2214223e-08 -4.3990449e-06 -2.2639708e-07 
-1.0683594e-07 -1.5468433e-07 -3.1710690e-07 
8.4355477e-08 2.9318451e-06 3.3498765e-07 
7.7297187e-08 3.0172171e-06 -1.5389739e-08 
-1.8002272e-08 7.9229750e-07 -8.6688644e-08 
-6.7503740e-09 -1.5692945e-06 1.4565522e-07 
1.1620702e-08 -2.0575844e-06 -4.1146858e-08 
-5.5707591e-08 -5.6113623e-07 1.4788453e-08 
5.5125295e-08 1.2207781e-06 4.0498247e-08 
2.4900059e-08 1.3884253e-06 -3.5264931e-09 
-2.0619813e-08 -9.7281450e-08 -1.2693491e-08 
0.0000000e+00 -2.7363590e-06 0.0000000e+00 
0.0000000e+00 -5.0094209e-06 0.0000000e+00 
0.0000000e+00 -2.2829576e-05 0.0000000e+00 
0.0000000e+00 -7.2585673e-05 0.0000000e+00 
0.0000000e+00 -1.5264039e-04 0.0000000e+00 
0.0000000e+00 -2.3154145e-04 0.0000000e+00 
0.0000000e+00 -2.7891641e-04 0.0000000e+00 
0.0000000e+00 -3.1989455e-04 0.0000000e+00 
0.0000000e+00 -4.3977171e-04 0.0000000e+00 
0.0000000e+00 -7.1859406e-04 0.0000000e+00 
0.0000000e+00 -1.1908583e-03 0.0000000e+00 
0.0000000e+00 -1.8676169e-03 0.0000000e+00 
0.0000000e+00 -2.7557339e-03 0.0000000e+00 
0.0000000e+00 -3.8737177e-03 0.0000000e+00 
0.0000000e+00 -5.0855172e-03 0.0000000e+00 
0.0000000e+00 -5.8591752e-03 0.0000000e+00 
0.0000000e+00 -5.5614202e-03 0.0000000e+00 
0.0000000e+00 -4.9838065e-03 0.0000000e+00 
0.0000000e+00 -4.7205030e-03 0.0000000e+00 
0.0000000e+00 -4.8108352e-03 0.0000000e+00 
0.0000000e+00 -4.6485309e-03 0.0000000e+00 
0.0000000e+00 -3.5285035e-03 0.0000000e+00 
0.0000000e+00 -2.0878934e-03 0.0000000e+00 
0.0000000e+00 -9.1013673e-04 0.0000000e+00 
0.0000000e+00 -1.5361315e-04 0.0000000e+00 
0.0000000e+00 2.2459087e-04 0.0000000e+00 
0.0000000e+00 3.3815968e-04 0.0000000e+00 
0.0000000e+00 2.9513997e-04 0.0000000e+00 
0.0000000e+00 1.8641792e-04 0.0000000e+00 
0.0000000e+00 8.1258942e-05 0.0000000e+00 
0.0000000e+00 1.7417720e-05 0.0000000e+00 
0.0000000e+00 -5.0730532e-06 0.0000000e+00 
0.0000000e+00 -1.5885140e-05 0.0000000e+00 
0.0000000e+00 -3.5362908e-05 0.0000000e+00 
0.0000000e+00 -5.1278093e-05 0.0000000e+00 
0.0000000e+00 -4.0252165e-05 0.0000000e+00 
0.0000000e+00 3.2139171e-06 0.0000000e+00 
0.0000000e+00 5.3408472e-05 0.0000000e+00 
0.0000000e+00 7.1483053e-05 0.0000000e+00 
0.0000000e+00 4.6499139e-05 0.0000000e+00 
0.0000000e+00 5.3557283e-06 0.0000000e+00 
0.0000000e+00 -2.3823914e-05 0.0000000e+00 
0.0000000e+00 -3.9649189e-05 0.0000000e+00 
0.0000000e+00 -6.9365335e-05 0.0000000e+00 
0.0000000e+00 -1.4448573e-04 0.0000000e+00 
0.0000000e+00 -2.5428049e-04 0.0000000e+00 
0.0000000e+00 -3.4642339e-04 0.0000000e+00 
0.0000000e+00 -3.9413606e-04 0.0000000e+00 
0.0000000e+00 -4.6138058e-04 0.0000000e+00 
0.0000000e+00 -6.8080251e-04 0.0000000e+00 
0.0000000e+00 -1.1779618e-03 0.0000000e+00 
0.0000000e+00 -1.9966939e-03 0.0000000e+00 
0.0000000e+00 -3.0644159e-03 0.0000000e+00 
0.0000000e+00 -4.2600217e-03 0.0000000e+00 
0.0000000e+00 -5.3184810e-03 0.0000000e+00 
0.0000000e+00 -5.7658004e-03 0.0000000e+00 
0.0000000e+00 -5.3878245e-03 0.0000000e+00 
0.0000000e+00 -4.9677459e-03 0.0000000e+00 
0.0000000e+00 -4.8880973e-03 0.0000000e+00 
0.0000000e+00 -4.9615069e-03 0.0000000e+00 
0.0000000e+00 -4.5322077e-03 0.0000000e+00 
0.0000000e+00 -3.2843128e-03 0.0000000e+00 
0.0000000e+00 -1.8726296e-03 0.0000000e+00 
0.0000000e+00 -7.8126712e-04 0.0000000e+00 
0.0000000e+00 -9.4617615e-05 0.0000000e+00 
0.0000000e+00 2.5231121e-04 0.0000000e+00 
0.0000000e+00 3.5195868e-04 0.0000000e+00 
0.0000000e+00 2.9310110e-04 0.0000000e+00 
0.0000000e+00 1.7559767e-04 0.0000000e+00 
0.0000000e+00 7.9233825e-05 0.0000000e+00 
0.0000000e+00 2.4954577e-05 0.0000000e+00 
0.0000000e+00 -3.4029024e-06 0.0000000e+00 
0.0000000e+00 -2.4530487e-05 0.0000000e+00 
0.0000000e+00 -3.9261970e-05 0.0000000e+00 
0.0000000e+00 -3.6891630e-05 0.0000000e+00 
0.0000000e+00 -1.6525828e-05 0.0000000e+00 
0.0000000e+00 6.8222030e-06 0.0000000e+00 
0.0000000e+00 1.8797860e-05 0.0000000e+00 
0.0000000e+00 1.6819682e-05 0.0000000e+00 
0.0000000e+00 7.1454997e-06 0.0000000e+00 
0.0000000e+00 -2.6915764e-06 0.0000000e+00 
0.0000000e+00 -8.5453994e-06 0.0000000e+00 
0.0000000e+00 -8.9770492e-06 0.0000000e+00 
0.0000000e+00 -3.6073682e-06 0.0000000e+00 
0.0000000e+00 3.9805996e-06 0.0000000e+00 
0.0000000e+00 7.8616185e-06 0.0000000e+00 
0.0000000e+00 5.3631466e-06 0.0000000e+00 
0.0000000e+00 -9.1593222e-07 0.0000000e+00 
0.0000000e+00 -5.2955552e-06 0.0000000e+00 
0.0000000e+00 -4.3853424e-06 0.0000000e+00 
0.0000000e+00 -2.7384053e-07 0.0000000e+00 
0.0000000e+00 2.8623756e-06 0.0000000e+00 
0.0000000e+00 2.9970611e-06 0.0000000e+00 
0.0000000e+00 8.0558414e-07 0.0000000e+00 
0.0000000e+00 -1.5079493e-06 0.0000000e+00 
0.0000000e+00 -1.9995234e-06 0.0000000e+00 
0.0000000e+00 -5.5906798e-07 0.0000000e+00 
0.0000000e+00 1.1516011e-06 0.0000000e+00 
0.0000000e+00 1.3108825e-06 0.0000000e+00 
0.0000000e+00 -8.3168075e-08 0.0000000e+00 
0.0000000e+00 -1.0356347e-06 0.0000000e+00 
-9.7372897e-05 -5.1557278e-04 3.2943554e-04 
-1.2803407e-05 1.7612767e-05 1.2382745e-05 
-5.1949344e-05 -1.5588105e-04 1.4125293e-05 
-3.6786289e-05 -1.1025495e-04 -9.0625126e-06 
0.0000000e+00 -1.0579632e-03 0.0000000e+00 
0.0000000e+00 0.0000000e+00 0.0000000e+00 
0.0000000e+00 0.0000000e+00 0.0000000e+00 
0.0000000e+00 0.0000000e+00 0.0000000e+00 
0.0000000e+00 0.0000000e+00 0.0000000e+00 
0.0000000e+00 0.0000000e+00 0.0000000e+00 
0.0000000e+00 0.0000000e+00 0.0000000e+00 
0.0000000e+00 0.0000000e+00 0.0000000e+00 
0.0000000e+00 0.0000000e+00 0.0000000e+00 
0.0000000e+00 0.0000000e+00 0.0000000e+00 
0.0000000e+00 0.0000000e+00 0.0000000e+00 
0.0000000e+00 0.0000000e+00 0.0000000e+00 
0.0000000e+00 0.0000000e+00 0.0000000e+00 
0.0000000e+00 0.0000000e+00 0.0000000e+00 
0.0000000e+00 0.0000000e+00 0.0000000e+00 
0.0000000e+00 0.0000000e+00 0.0000000e+00 
0.0000000e+00 0.0000000e+00 0.0000000e+00 
0.0000000e+00 0.0000000e+00 0.0000000e+00 
0.0000000e+00 0.0000000e+00 0.0000000e+00 
0.0000000e+00 0.0000000e+00 0.0000000e+00 
0.0000000e+00 0.0000000e+00 0.0000000e+00 
0.0000000e+00 0.0000000e+00 0.0000000e+00 
0.0000000e+00 0.0000000e+00 0.0000000e+00 
0.0000000e+00 0.0000000e+00 0.0000000e+00 
0.0000000e+00 0.0000000e+00 0.0000000e+00 
0.0000000e+00 0.0000000e+00 0.0000000e+00 
0.0000000e+00 0.0000000e+00 0.0000000e+00 
0.0000000e+00 0.0000000e+00 0.0000000e+00 
0.0000000e+00 0.0000000e+00 0.0000000e+00 
0.0000000e+00 0.0000000e+00 0.0000000e+00 
0.0000000e+00 0.0000000e+00 0.0000000e+00 
0.0000000e+00 0.0000000e+00 0.0000000e+00 
0.0000000e+00 0.0000000e+00 0.0000000e+00 
0.0000000e+00 0.0000000e+00 0.0000000e+00 
0.0000000e+00 0.0000000e+00 0.0000000e+00 
0.0000000e+00 0.0000000e+00 0.0000000e+00 
0.0000000e+00 0.0000000e+00 0.0000000e+00 
0.0000000e+00 0.0000000e+00 0.0000000e+00 
0.0000000e+00 0.0000000e+00 0.0000000e+00 
0.0000000e+00 0.0000000e+00 0.0000000e+00 
0.0000000e+00 0.0000000e+00 0.0000000e+00 
0.0000000e+00 0.0000000e+00 0.0000000e+00 
0.0000000e+00 0.0000000e+00 0.0000000e+00 
0.0000000e+00 0.0000000e+00 0.0000000e+00 
0.0000000e+00 0.0000000e+00 0.0000000e+00 
0.0000000e+00 0.0000000e+00 0.0000000e+00 
0.0000000e+00 0.0000000e+00 0.0000000e+00 
0.0000000e+00 0.0000000e+00 0.0000000e+00 
0.0000000e+00 0.0000000e+00 0.0000000e+00 
0.0000000e+00 0.0000000e+00 0.0000000e+00 
0.0000000e+00 0.0000000e+00 0.0000000e+00 
0.0000000e+00 0.0000000e+00 0.0000000e+00 
0.0000000e+00 0.0000000e+00 0.0000000e+00 
0.0000000e+00 0.0000000e+00 0.0000000e+00 
0.0000000e+00 0.0000000e+00 0.0000000e+00 
0.0000000e+00 0.0000000e+00 0.0000000e+00 
0.0000000e+00 0.0000000e+00 0.0000000e+00 
0.0000000e+00 0.0000000e+00 0.0000000e+00 
0.0000000e+00 0.0000000e+00 0.0000000e+00 
0.0000000e+00 0.0000000e+00 0.0000000e+00 
0.0000000e+00 0.0000000e+00 0.0000000e+00 
0.0000000e+00 0.0000000e+00 0.0000000e+00 
0.0000000e+00 0.0000000e+00 0.0000000e+00 
0.0000000e+00 0.0000000e+00 0.0000000e+00 
0.0000000e+00 0.0000000e+00 0.0000000e+00 
0.0000000e+00 0.0000000e+00 0.0000000e+00 
0.0000000e+00 0.0000000e+00 0.0000000e+00 
0.0000000e+00 0.0000000e+00 0.0000000e+00 
0.0000000e+00 0.0000000e+00 0.0000000e+00 
0.0000000e+00 0.0000000e+00 0.0000000e+00 
0.0000000e+00 0.0000000e+00 0.0000000e+00 
0.0000000e+00 0.0000000e+00 0.0000000e+00 
0.0000000e+00 0.0000000e+00 0.0000000e+00 
0.0000000e+00 0.0000000e+00 0.0000000e+00 
0.0000000e+00 0.0000000e+00 0.0000000e+00 
0.0000000e+00 0.0000000e+00 0.0000000e+00 
0.0000000e+00 0.0000000e+00 0.0000000e+00 
0.0000000e+00 0.0000000e+00 0.0000000e+00 
0.0000000e+00 0.0000000e+00 0.0000000e+00 
0.0000000e+00 0.0000000e+00 0.0000000e+00 
0.0000000e+00 0.0000000e+00 0.0000000e+00 
0.0000000e+00 0.0000000e+00 0.0000000e+00 
0.0000000e+00 0.0000000e+00 0.0000000e+00 
0.0000000e+00 0.0000000e+00 0.0000000e+00 
0.0000000e+00 0.0000000e+00 0.0000000e+00 
0.0000000e+00 0.0000000e+00 0.0000000e+00 
0.0000000e+00 0.0000000e+00 0.0000000e+00 
0.0000000e+00 0.0000000e+00 0.0000000e+00 
0.0000000e+00 0.0000000e+00 0.0000000e+00 
0.0000000e+00 0.0000000e+00 0.0000000e+00 
0.0000000e+00 0.0000000e+00 0.0000000e+00 
0.0000000e+00 0.0000000e+00 0.0000000e+00 
0.0000000e+00 0.0000000e+00 0.0000000e+00 
0.0000000e+00 0.0000000e+00 0.0000000e+00 
0.0000000e+00 0.0000000e+00 0.0000000e+00 
0.0000000e+00 0.0000000e+00 0.0000000e+00 
0.0000000e+00 0.0000000e+00 0.0000000e+00 
0.0000000e+00 0.0000000e+00 0.0000000e+00 
0.0000000e+00 0.0000000e+00 0.0000000e+00 
0.0000000e+00 0.0000000e+00 0.0000000e+00 
0.0000000e+00 0.0000000e+00 0.0000000e+00 
0.0000000e+00 0.0000000e+00 0.0000000e+00 
0.0000000e+00 0.0000000e+00 0.0000000e+00 
0.0000000e+00 0.0000000e+00 0.0000000e+00 
0.0000000e+00 0.0000000e+00 0.0000000e+00 
0.0000000e+00 0.0000000e+00 0.0000000e+00 
0.0000000e+00 0.0000000e+00 0.0000000e+00 
2.5035790e-05 3.7353457e-06 -3.1013842e-05 
2.8784973e-05 2.9369373e-06 -4.2853761e-05 
3.1717529e-05 -7.9721449e-06 -5.0636041e-05 
2.9585883e-05 -2.6770807e-05 -4.7291855e-05 
2.9313594e-05 -5.3773045e-05 -3.7963193e-05 
3.3606429e-05 -7.5919073e-05 -2.4726529e-05 
3.9561357e-05 -8.6453729e-05 -1.0597235e-05 
6.4020285e-05 -6.2508523e-05 1.3666308e-05 
7.2537820e-05 -2.8742221e-05 4.4317534e-05 
7.5096075e-05 7.1441855e-07 7.1276881e-05 
6.2515341e-05 -1.0069880e-05 6.1691979e-05 
3.8303231e-05 1.1390112e-05 4.8495600e-05 
1.0151089e-05 3.6587060e-06 2.3768232e-05 
3.8890030e-06 -2.8280288e-05 1.4886858e-06 
5.8237083e-06 -7.8269227e-07 -1.7084220e-06 
-2.8495592e-06 1.1471995e-05 -3.5382971e-06 
1.0437329e-06 7.5399471e-06 4.8290717e-06 
3.1738368e-06 -1.8297666e-05 1.4635140e-06 
7.7408613e-06 3.1928980e-06 -1.2087622e-05 
1.7910756e-05 1.3245155e-05 -2.6693771e-05 
2.3482906e-05 -5.1457200e-06 -3.5653902e-05 
2.0850870e-05 -7.5135758e-06 -4.7094305e-05 
1.8682493e-05 -2.3767863e-05 -4.7911668e-05 
2.3674187e-05 -6.3744010e-05 -4.2701286e-05 
9.8463915e-06 -8.6925102e-05 -3.0493315e-05 
1.3780591e-05 -1.0895929e-04 -2.4254499e-05 
5.3447475e-05 -7.8644662e-05 -3.7450027e-06 
7.2755429e-05 -4.7679358e-05 2.6163780e-05 
7.8725141e-05 5.1647557e-06 5.3651824e-05 
6.4827385e-05 -1.0164737e-05 5.8915997e-05 
5.3129505e-05 -2.4187509e-06 5.6392830e-05 
3.4748813e-05 2.0553576e-05 4.7218411e-05 
1.8267783e-05 -6.5969534e-06 2.5923118e-05 
6.7291885e-06 -1.9674464e-05 6.4888209e-06 
2.9556793e-06 1.7590017e-06 -5.3670402e-07 
-3.6064976e-06 1.1281988e-05 -3.3407553e-06 
-2.9505722e-07 -4.3440145e-06 7.1232563e-07 
1.3413712e-06 -3.5001715e-06 7.2301236e-07 
2.6632520e-07 1.4399428e-06 -1.3018123e-07 
-3.3054283e-07 1.2772198e-07 2.5398650e-08 
1.5207254e-07 -5.2478907e-07 -1.9288725e-08 
-5.3175016e-09 2.3979257e-07 -2.5714556e-08 
-8.6527137e-08 1.1476434e-07 3.1620859e-09 
2.5211456e-08 -1.4889541e-07 -1.5776471e-09 
-9.8063779e-09 3.5054612e-08 -2.2365322e-08 
-7.1245596e-09 -1.1339254e-09 6.0205916e-09 
2.1596160e-09 3.3230805e-09 1.2594651e-08 
4.5465143e-10 -3.4176761e-09 -1.9587583e-09 
-7.9032347e-10 2.4628639e-09 -6.7035655e-10 
0.0000000e+00 -2.2122496e-05 0.0000000e+00 
0.0000000e+00 -7.8013527e-06 0.0000000e+00 
0.0000000e+00 5.4537173e-05 0.0000000e+00 
0.0000000e+00 3.9403927e-05 0.0000000e+00 
0.0000000e+00 -3.8571005e-05 0.0000000e+00 
0.0000000e+00 -1.3354189e-04 0.0000000e+00 
0.0000000e+00 -3.7488536e-04 0.0000000e+00 
0.0000000e+00 -4.7256541e-04 0.0000000e+00 
0.0000000e+00 -4.8090398e-04 0.0000000e+00 
0.0000000e+00 -4.4143348e-04 0.0000000e+00 
0.0000000e+00 -2.6047777e-04 0.0000000e+00 
0.0000000e+00 -1.0570129e-04 0.0000000e+00 
0.0000000e+00 -2.5454181e-05 0.0000000e+00 
0.0000000e+00 2.6227206e-05 0.0000000e+00 
0.0000000e+00 1.6998083e-05 0.0000000e+00 
0.0000000e+00 8.4398425e-06 0.0000000e+00 
0.0000000e+00 -3.1626424e-08 0.0000000e+00 
0.0000000e+00 8.7988419e-06 0.0000000e+00 
0.0000000e+00 -1.5385240e-05 0.0000000e+00 
0.0000000e+00 -1.5701071e-06 0.0000000e+00 
0.0000000e+00 -1.6957369e-05 0.0000000e+00 
0.0000000e+00 -6.7976785e-06 0.0000000e+00 
0.0000000e+00 2.1980699e-05 0.0000000e+00 
0.0000000e+00 4.9926963e-05 0.0000000e+00 
0.0000000e+00 -6.4778142e-05 0.0000000e+00 
0.0000000e+00 -2.3478280e-04 0.0000000e+00 
0.0000000e+00 -3.7306180e-04 0.0000000e+00 
0.0000000e+00 -4.9060473e-04 0.0000000e+00 
0.0000000e+00 -4.8478472e-04 0.0000000e+00 
0.0000000e+00 -3.9711807e-04 0.0000000e+00 
0.0000000e+00 -2.4203501e-04 0.0000000e+00 
0.0000000e+00 -6.5621789e-05 0.0000000e+00 
0.0000000e+00 -5.2175292e-06 0.0000000e+00 
0.0000000e+00 2.1339529e-05 0.0000000e+00 
0.0000000e+00 1.8975214e-05 0.0000000e+00 
0.0000000e+00 7.3427786e-06 0.0000000e+00 
0.0000000e+00 -8.8681163e-06 0.0000000e+00 
0.0000000e+00 -6.3293878e-06 0.0000000e+00 
0.0000000e+00 9.1563317e-07 0.0000000e+00 
0.0000000e+00 4.7306066e-06 0.0000000e+00 
0.0000000e+00 6.7118691e-07 0.0000000e+00 
0.0000000e+00 -2.4296319e-06 0.0000000e+00 
0.0000000e+00 6.9536657e-07 0.0000000e+00 
0.0000000e+00 7.2808723e-07 0.0000000e+00 
0.0000000e+00 -5.9800436e-07 0.0000000e+00 
0.0000000e+00 -6.6992015e-08 0.0000000e+00 
0.0000000e+00 5.7227038e-07 0.0000000e+00 
0.0000000e+00 -2.6687323e-07 0.0000000e+00 
0.0000000e+00 1.6467105e-07 0.0000000e+00 
2.2617895e-05 7.1232935e-06 -2.6548452e-05 
1.2635218e-05 4.4352282e-06 -2.8290449e-05 
8.2333199e-06 -1.2735991e-05 -2.2693886e-05 
3.9288602e-06 7.7112162e-07 -6.4225701e-06 
-2.5406202e-10 1.5438589e-09 -1.8930579e-10 
3.3022747e-09 7.5262369e-10 4.8462523e-09 
-1.2977702e-08 1.3518644e-08 -1.8123741e-08 
1.3980939e-08 -2.3176131e-08 1.0037161e-08 
1.1820246e-05 8.7163007e-06 -1.6727934e-05 
4.3463273e-09 4.9566545e-10 3.7871133e-09 
1.5414582e-05 -1.0513962e-05 -5.8810665e-06 
-5.3698645e-06 1.0827032e-06 2.0047848e-05 
0.0000000e+00 -7.0713606e-05 0.0000000e+00 
0.0000000e+00 1.6040934e-05 0.0000000e+00 
0.0000000e+00 3.7957943e-05 0.0000000e+00 
0.0000000e+00 -1.0134464e-05 0.0000000e+00 
0.0000000e+00 -1.1612786e-04 0.0000000e+00 
0.0000000e+00 -4.3934627e-04 0.0000000e+00 
0.0000000e+00 -8.9147961e-04 0.0000000e+00 
0.0000000e+00 -1.0259716e-03 0.0000000e+00 
0.0000000e+00 -1.0266468e-03 0.0000000e+00 
0.0000000e+00 -9.0412929e-04 0.0000000e+00 
0.0000000e+00 -4.8810369e-04 0.0000000e+00 
0.0000000e+00 -1.4293648e-04 0.0000000e+00 
0.0000000e+00 2.0068961e-05 0.0000000e+00 