# vtk DataFile Version 4.0
vtk output
ASCII
DATASET UNSTRUCTURED_GRID
POINTS 1919 float
0.0000000e+00 0.0000000e+00 0.0000000e+00 
0.0000000e+00 0.0000000e+00 5.0000000e+01 
5.0000000e+00 0.0000000e+00 0.0000000e+00 
5.0000000e+00 0.0000000e+00 5.0000000e+01 
5.0000000e+00 1.0000000e+00 0.0000000e+00 
5.0000000e+00 1.0000000e+00 5.0000000e+01 
0.0000000e+00 1.0000000e+00 0.0000000e+00 
0.0000000e+00 1.0000000e+00 5.0000000e+01 
5.0000000e+00 2.0000000e+00 0.0000000e+00 
5.0000000e+00 2.0000000e+00 5.0000000e+01 
3.0000000e+00 2.0000000e+00 0.0000000e+00 
3.0000000e+00 2.0000000e+00 5.0000000e+01 
0.0000000e+00 2.0000000e+00 0.0000000e+00 
0.0000000e+00 2.0000000e+00 5.0000000e+01 
1.5000000e+00 3.0000000e+00 0.0000000e+00 
1.5000000e+00 3.0000000e+00 5.0000000e+01 
7.5000000e-01 3.0000000e+00 0.0000000e+00 
7.5000000e-01 3.0000000e+00 5.0000000e+01 
0.0000000e+00 3.0000000e+00 0.0000000e+00 
0.0000000e+00 3.0000000e+00 5.0000000e+01 
7.5000000e-01 3.0000000e+00 5.0000000e-01 
7.5000000e-01 3.0000000e+00 1.0000000e+00 
7.5000000e-01 3.0000000e+00 1.5000000e+00 
7.5000000e-01 3.0000000e+00 2.0000000e+00 
7.5000000e-01 3.0000000e+00 2.5000000e+00 
7.5000000e-01 3.0000000e+00 3.0000000e+00 
7.5000000e-01 3.0000000e+00 3.5000000e+00 
7.5000000e-01 3.0000000e+00 4.0000000e+00 
7.5000000e-01 3.0000000e+00 4.5000000e+00 
7.5000000e-01 3.0000000e+00 5.0000000e+00 
7.5000000e-01 3.0000000e+00 5.5000000e+00 
7.5000000e-01 3.0000000e+00 6.0000000e+00 
7.5000000e-01 3.0000000e+00 6.5000000e+00 
7.5000000e-01 3.0000000e+00 7.0000000e+00 
7.5000000e-01 3.0000000e+00 7.5000000e+00 
7.5000000e-01 3.0000000e+00 8.0000000e+00 
7.5000000e-01 3.0000000e+00 8.5000000e+00 
7.5000000e-01 3.0000000e+00 9.0000000e+00 
7.5000000e-01 3.0000000e+00 9.5000000e+00 
7.5000000e-01 3.0000000e+00 1.0000000e+01 
7.5000000e-01 3.0000000e+00 1.0500000e+01 
7.5000000e-01 3.0000000e+00 1.1000000e+01 
7.5000000e-01 3.0000000e+00 1.1500000e+01 
7.5000000e-01 3.0000000e+00 1.2000000e+01 
7.5000000e-01 3.0000000e+00 1.2500000e+01 
7.5000000e-01 3.0000000e+00 1.3000000e+01 
7.5000000e-01 3.0000000e+00 1.3500000e+01 
7.5000000e-01 3.0000000e+00 1.4000000e+01 
7.5000000e-01 3.0000000e+00 1.4500000e+01 
7.5000000e-01 3.0000000e+00 1.5000000e+01 
7.5000000e-01 3.0000000e+00 1.5500000e+01 
7.5000000e-01 3.0000000e+00 1.6000000e+01 
7.5000000e-01 3.0000000e+00 1.6500000e+01 
7.5000000e-01 3.0000000e+00 1.7000000e+01 
7.5000000e-01 3.0000000e+00 1.7500000e+01 
7.5000000e-01 3.0000000e+00 1.8000000e+01 
7.5000000e-01 3.0000000e+00 1.8500000e+01 
7.5000000e-01 3.0000000e+00 1.9000000e+01 
7.5000000e-01 3.0000000e+00 1.9500000e+01 
7.5000000e-01 3.0000000e+00 2.0000000e+01 
7.5000000e-01 3.0000000e+00 2.0500000e+01 
7.5000000e-01 3.0000000e+00 2.1000000e+01 
7.5000000e-01 3.0000000e+00 2.1500000e+01 
7.5000000e-01 3.0000000e+00 2.2000000e+01 
7.5000000e-01 3.0000000e+00 2.2500000e+01 
7.5000000e-01 3.0000000e+00 2.3000000e+01 
7.5000000e-01 3.0000000e+00 2.3500000e+01 
7.5000000e-01 3.0000000e+00 2.4000000e+01 
7.5000000e-01 3.0000000e+00 2.4500000e+01 
7.5000000e-01 3.0000000e+00 2.5000000e+01 
7.5000000e-01 3.0000000e+00 2.5500000e+01 
7.5000000e-01 3.0000000e+00 2.6000000e+01 
7.5000000e-01 3.0000000e+00 2.6500000e+01 
7.5000000e-01 3.0000000e+00 2.7000000e+01 
7.5000000e-01 3.0000000e+00 2.7500000e+01 
7.5000000e-01 3.0000000e+00 2.8000000e+01 
7.5000000e-01 3.0000000e+00 2.8500000e+01 
7.5000000e-01 3.0000000e+00 2.9000000e+01 
7.5000000e-01 3.0000000e+00 2.9500000e+01 
7.5000000e-01 3.0000000e+00 3.0000000e+01 
7.5000000e-01 3.0000000e+00 3.0500000e+01 
7.5000000e-01 3.0000000e+00 3.1000000e+01 
7.5000000e-01 3.0000000e+00 3.1500000e+01 
7.5000000e-01 3.0000000e+00 3.2000000e+01 
7.5000000e-01 3.0000000e+00 3.2500000e+01 
7.5000000e-01 3.0000000e+00 3.3000000e+01 
7.5000000e-01 3.0000000e+00 3.3500000e+01 
7.5000000e-01 3.0000000e+00 3.4000000e+01 
7.5000000e-01 3.0000000e+00 3.4500000e+01 
7.5000000e-01 3.0000000e+00 3.5000000e+01 
7.5000000e-01 3.0000000e+00 3.5500000e+01 
7.5000000e-01 3.0000000e+00 3.6000000e+01 
7.5000000e-01 3.0000000e+00 3.6500000e+01 
7.5000000e-01 3.0000000e+00 3.7000000e+01 
7.5000000e-01 3.0000000e+00 3.7500000e+01 
7.5000000e-01 3.0000000e+00 3.8000000e+01 
7.5000000e-01 3.0000000e+00 3.8500000e+01 
7.5000000e-01 3.0000000e+00 3.9000000e+01 
7.5000000e-01 3.0000000e+00 3.9500000e+01 
7.5000000e-01 3.0000000e+00 4.0000000e+01 
7.5000000e-01 3.0000000e+00 4.0500000e+01 
7.5000000e-01 3.0000000e+00 4.1000000e+01 
7.5000000e-01 3.0000000e+00 4.1500000e+01 
7.5000000e-01 3.0000000e+00 4.2000000e+01 
7.5000000e-01 3.0000000e+00 4.2500000e+01 
7.5000000e-01 3.0000000e+00 4.3000000e+01 
7.5000000e-01 3.0000000e+00 4.3500000e+01 
7.5000000e-01 3.0000000e+00 4.4000000e+01 
7.5000000e-01 3.0000000e+00 4.4500000e+01 
7.5000000e-01 3.0000000e+00 4.5000000e+01 
7.5000000e-01 3.0000000e+00 4.5500000e+01 
7.5000000e-01 3.0000000e+00 4.6000000e+01 
7.5000000e-01 3.0000000e+00 4.6500000e+01 
7.5000000e-01 3.0000000e+00 4.7000000e+01 
7.5000000e-01 3.0000000e+00 4.7500000e+01 
7.5000000e-01 3.0000000e+00 4.8000000e+01 
7.5000000e-01 3.0000000e+00 4.8500000e+01 
7.5000000e-01 3.0000000e+00 4.9000000e+01 
7.5000000e-01 3.0000000e+00 4.9500000e+01 
7.5000000e-01 3.0250001e+00 0.0000000e+00 
7.5000000e-01 3.0250001e+00 5.0000000e-01 
7.5000000e-01 3.0250001e+00 1.0000000e+00 
7.5000000e-01 3.0250001e+00 1.5000000e+00 
7.5000000e-01 3.0250001e+00 2.0000000e+00 
7.5000000e-01 3.0250001e+00 2.5000000e+00 
7.5000000e-01 3.0250001e+00 3.0000000e+00 
7.5000000e-01 3.0250001e+00 3.5000000e+00 
7.5000000e-01 3.0250001e+00 4.0000000e+00 
7.5000000e-01 3.0250001e+00 4.5000000e+00 
7.5000000e-01 3.0250001e+00 5.0000000e+00 
7.5000000e-01 3.0250001e+00 5.5000000e+00 
7.5000000e-01 3.0250001e+00 6.0000000e+00 
7.5000000e-01 3.0250001e+00 6.5000000e+00 
7.5000000e-01 3.0250001e+00 7.0000000e+00 
7.5000000e-01 3.0250001e+00 7.5000000e+00 
7.5000000e-01 3.0250001e+00 8.0000000e+00 
7.5000000e-01 3.0250001e+00 8.5000000e+00 
7.5000000e-01 3.0250001e+00 9.0000000e+00 
7.5000000e-01 3.0250001e+00 9.5000000e+00 
7.5000000e-01 3.0250001e+00 1.0000000e+01 
7.5000000e-01 3.0250001e+00 1.0500000e+01 
7.5000000e-01 3.0250001e+00 1.1000000e+01 
7.5000000e-01 3.0250001e+00 1.1500000e+01 
7.5000000e-01 3.0250001e+00 1.2000000e+01 
7.5000000e-01 3.0250001e+00 1.2500000e+01 
7.5000000e-01 3.0250001e+00 1.3000000e+01 
7.5000000e-01 3.0250001e+00 1.3500000e+01 
7.5000000e-01 3.0250001e+00 1.4000000e+01 
7.5000000e-01 3.0250001e+00 1.4500000e+01 
7.5000000e-01 3.0250001e+00 1.5000000e+01 
7.5000000e-01 3.0250001e+00 1.5500000e+01 
7.5000000e-01 3.0250001e+00 1.6000000e+01 
7.5000000e-01 3.0250001e+00 1.6500000e+01 
7.5000000e-01 3.0250001e+00 1.7000000e+01 
7.5000000e-01 3.0250001e+00 1.7500000e+01 
7.5000000e-01 3.0250001e+00 1.8000000e+01 
7.5000000e-01 3.0250001e+00 1.8500000e+01 
7.5000000e-01 3.0250001e+00 1.9000000e+01 
7.5000000e-01 3.0250001e+00 1.9500000e+01 
7.5000000e-01 3.0250001e+00 2.0000000e+01 
7.5000000e-01 3.0250001e+00 2.0500000e+01 
7.5000000e-01 3.0250001e+00 2.1000000e+01 
7.5000000e-01 3.0250001e+00 2.1500000e+01 
7.5000000e-01 3.0250001e+00 2.2000000e+01 
7.5000000e-01 3.0250001e+00 2.2500000e+01 
7.5000000e-01 3.0250001e+00 2.3000000e+01 
7.5000000e-01 3.0250001e+00 2.3500000e+01 
7.5000000e-01 3.0250001e+00 2.4000000e+01 
7.5000000e-01 3.0250001e+00 2.4500000e+01 
7.5000000e-01 3.0250001e+00 2.5000000e+01 
7.5000000e-01 3.0250001e+00 2.5500000e+01 
7.5000000e-01 3.0250001e+00 2.6000000e+01 
7.5000000e-01 3.0250001e+00 2.6500000e+01 
7.5000000e-01 3.0250001e+00 2.7000000e+01 
7.5000000e-01 3.0250001e+00 2.7500000e+01 
7.5000000e-01 3.0250001e+00 2.8000000e+01 
7.5000000e-01 3.0250001e+00 2.8500000e+01 
7.5000000e-01 3.0250001e+00 2.9000000e+01 
7.5000000e-01 3.0250001e+00 2.9500000e+01 
7.5000000e-01 3.0250001e+00 3.0000000e+01 
7.5000000e-01 3.0250001e+00 3.0500000e+01 
7.5000000e-01 3.0250001e+00 3.1000000e+01 
7.5000000e-01 3.0250001e+00 3.1500000e+01 
7.5000000e-01 3.0250001e+00 3.2000000e+01 
7.5000000e-01 3.0250001e+00 3.2500000e+01 
7.5000000e-01 3.0250001e+00 3.3000000e+01 
7.5000000e-01 3.0250001e+00 3.3500000e+01 
7.5000000e-01 3.0250001e+00 3.4000000e+01 
7.5000000e-01 3.0250001e+00 3.4500000e+01 
7.5000000e-01 3.0250001e+00 3.5000000e+01 
7.5000000e-01 3.0250001e+00 3.5500000e+01 
7.5000000e-01 3.0250001e+00 3.6000000e+01 
7.5000000e-01 3.0250001e+00 3.6500000e+01 
7.5000000e-01 3.0250001e+00 3.7000000e+01 
7.5000000e-01 3.0250001e+00 3.7500000e+01 
7.5000000e-01 3.0250001e+00 3.8000000e+01 
7.5000000e-01 3.0250001e+00 3.8500000e+01 
7.5000000e-01 3.0250001e+00 3.9000000e+01 
7.5000000e-01 3.0250001e+00 3.9500000e+01 
7.5000000e-01 3.0250001e+00 4.0000000e+01 
7.5000000e-01 3.0250001e+00 4.0500000e+01 
7.5000000e-01 3.0250001e+00 4.1000000e+01 
7.5000000e-01 3.0250001e+00 4.1500000e+01 
7.5000000e-01 3.0250001e+00 4.2000000e+01 
7.5000000e-01 3.0250001e+00 4.2500000e+01 
7.5000000e-01 3.0250001e+00 4.3000000e+01 
7.5000000e-01 3.0250001e+00 4.3500000e+01 
7.5000000e-01 3.0250001e+00 4.4000000e+01 
7.5000000e-01 3.0250001e+00 4.4500000e+01 
7.5000000e-01 3.0250001e+00 4.5000000e+01 
7.5000000e-01 3.0250001e+00 4.5500000e+01 
7.5000000e-01 3.0250001e+00 4.6000000e+01 
7.5000000e-01 3.0250001e+00 4.6500000e+01 
7.5000000e-01 3.0250001e+00 4.7000000e+01 
7.5000000e-01 3.0250001e+00 4.7500000e+01 
7.5000000e-01 3.0250001e+00 4.8000000e+01 
7.5000000e-01 3.0250001e+00 4.8500000e+01 
7.5000000e-01 3.0250001e+00 4.9000000e+01 
7.5000000e-01 3.0250001e+00 4.9500000e+01 
7.5000000e-01 3.0250001e+00 5.0000000e+01 
1.5000000e+00 3.0000000e+00 2.5000000e+01 
3.0000000e+00 2.0000000e+00 2.5000000e+01 
4.0000000e+00 2.0000000e+00 2.5000000e+01 
5.0000000e+00 2.0000000e+00 2.5000000e+01 
0.0000000e+00 3.0000000e+00 2.5000000e+01 
0.0000000e+00 0.0000000e+00 1.0000000e+00 
0.0000000e+00 0.0000000e+00 2.0000000e+00 
0.0000000e+00 0.0000000e+00 3.0000000e+00 
0.0000000e+00 0.0000000e+00 4.0000000e+00 
0.0000000e+00 0.0000000e+00 5.0000000e+00 
[...]
POINT_DATA 1919
FIELD FieldData 3
DISPLACEMENT 3 1919  float
0.0000000e+00 0.0000000e+00 0.0000000e+00 
0.0000000e+00 0.0000000e+00 0.0000000e+00 
0.0000000e+00 0.0000000e+00 0.0000000e+00 
0.0000000e+00 0.0000000e+00 0.0000000e+00 
-3.7017929e-07 -3.1256939e-06 -2.8657317e-09 
6.5937185e-14 6.9041799e-13 5.9643324e-14 
0.0000000e+00 4.6390351e-06 0.0000000e+00 
0.0000000e+00 1.2634858e-11 0.0000000e+00 
3.2688361e-06 -3.2055304e-06 -2.0278280e-06 
-5.9850826e-14 4.7285342e-13 -5.4593550e-14 
-1.0920620e-06 -1.2345785e-05 1.3238894e-05 
6.7329016e-14 4.2445106e-12 7.6290824e-13 
0.0000000e+00 1.5472814e-06 0.0000000e+00 
0.0000000e+00 -6.5262185e-11 0.0000000e+00 
1.4750151e-05 5.9191061e-05 2.1030942e-06 
6.4067163e-12 -8.5667737e-11 8.3815138e-13 
-6.3005295e-06 1.0105118e-04 1.8158760e-05 
9.3392904e-13 9.4384089e-10 -1.0844045e-11 
0.0000000e+00 1.7246412e-05 0.0000000e+00 
0.0000000e+00 -4.4339932e-10 0.0000000e+00 
-2.7192623e-06 8.4829378e-05 -6.2623217e-06 
7.7474760e-06 5.4180553e-05 -2.6528513e-05 
8.2851539e-06 4.4668777e-05 -1.4392799e-05 
6.5229196e-06 6.5284956e-05 5.7416532e-06 
8.7515464e-06 6.6077140e-05 3.8724036e-05 
-2.1661373e-05 -4.0528143e-05 9.5776253e-05 
-6.3385734e-05 -3.3512796e-04 1.5119193e-04 
-9.3648370e-05 -8.4800960e-04 8.1638369e-05 
-1.3126002e-04 -1.5527644e-03 2.0528866e-04 
-1.9055100e-04 -2.4437816e-03 9.2149196e-05 
-2.6368164e-04 -3.5364395e-03 1.2203206e-04 
-3.2540216e-04 -4.6293987e-03 2.3893997e-05 
-3.4370695e-04 -5.2236794e-03 -1.0397110e-05 
-3.6621295e-04 -4.8482069e-03 -1.2274957e-04 
-2.6674024e-04 -4.3213470e-03 -1.0145884e-04 
-2.9054488e-04 -4.1512563e-03 -1.2093585e-04 
-2.8143439e-04 -4.3255975e-03 -1.8513220e-04 
-2.3358615e-04 -4.1272948e-03 -1.4166355e-04 
-1.1142758e-04 -2.9917059e-03 -2.7056018e-04 
-7.4098003e-05 -1.5897979e-03 -1.0673590e-04 
3.2159845e-05 -5.2707415e-04 -5.7176727e-05 
2.5457626e-05 6.6740497e-05 3.6634710e-06 
2.2221662e-05 2.7782153e-04 1.3095639e-05 
1.9341631e-05 2.6838799e-04 2.5495634e-05 
-1.9284930e-06 1.7005664e-04 3.4293114e-07 
-1.1521120e-06 7.4091658e-05 3.8096050e-06 
-1.4466261e-06 3.7553124e-05 3.5555513e-06 
-3.1864888e-06 4.5585595e-05 -1.3378447e-05 
2.4145090e-06 4.6229026e-05 8.5970769e-06 
1.0250693e-06 1.1071495e-05 3.3490132e-06 
-1.5335911e-06 -4.5152417e-05 -4.7009321e-06 
-2.1648430e-06 -7.9266269e-05 3.4836257e-06 
-4.2050137e-06 -5.9535960e-05 1.2272172e-06 
-4.0471596e-06 3.8290336e-06 5.4266420e-06 
6.8441614e-06 6.5229069e-05 1.4964108e-06 
1.4132982e-06 7.2286151e-05 6.1804412e-06 
-2.8221755e-06 1.1880535e-05 -7.1757017e-06 
-7.1368581e-06 -5.9280028e-05 4.4707526e-06 
-9.8557402e-06 -6.4910964e-05 8.2331590e-06 
1.1821135e-06 1.2379313e-05 -1.6818942e-05 
1.1624628e-05 1.1125117e-04 -3.2932765e-09 
8.7015633e-06 1.4511700e-04 -3.7024978e-07 
1.7095057e-05 8.9698769e-05 -2.2765416e-05 
-3.4510658e-06 -2.5586903e-06 1.3071592e-05 
-5.3155513e-06 -7.7390585e-05 6.6564724e-05 
-1.7893426e-05 -1.4425212e-04 1.2638944e-04 
-6.8098889e-05 -3.1740923e-04 1.9308922e-04 
-9.8483630e-05 -7.7327190e-04 1.0596030e-04 
-1.4348546e-04 -1.5893034e-03 2.0284283e-04 
-1.9022907e-04 -2.6900892e-03 1.2104495e-04 
-3.5432869e-04 -3.9096614e-03 8.9127629e-05 
-3.7527969e-04 -4.8821634e-03 -4.2347525e-05 
-4.2474412e-04 -5.1392321e-03 -1.0599659e-04 
-3.8937593e-04 -4.6688756e-03 -1.5655503e-04 
-3.0413119e-04 -4.3011406e-03 -1.0405219e-04 
-3.1672171e-04 -4.3097772e-03 -1.0304413e-04 
-3.2973199e-04 -4.4471053e-03 -1.8756525e-04 
-2.6766112e-04 -3.9649555e-03 -1.4377358e-04 
-1.4515985e-04 -2.7377561e-03 -3.2542800e-04 
-7.3087336e-05 -1.4044703e-03 -1.3544149e-04 
2.5395369e-05 -4.3953923e-04 -7.4839343e-05 
2.7972550e-05 1.0033017e-04 1.9261550e-05 
2.2969965e-05 2.7941327e-04 1.9678844e-05 
1.9223507e-05 2.4763137e-04 2.9166049e-05 
-2.5717352e-06 1.4518898e-04 -9.4757752e-06 
2.9024850e-06 6.1354214e-05 -1.6515602e-06 
-6.0272021e-07 3.6335590e-05 7.6738634e-06 
-2.6358673e-06 4.1567848e-05 -1.3151767e-05 
3.9513689e-06 3.1429929e-05 9.1569755e-06 
9.2964825e-07 -3.0692561e-06 2.9512912e-06 
-8.9372793e-07 -3.9921535e-05 -5.1470997e-06 
-2.5869139e-07 -5.2250954e-05 3.7331308e-06 
-3.8723377e-07 -2.9507735e-05 -1.5749781e-06 
-2.6712863e-07 8.9594523e-06 -1.9521369e-06 
2.3370817e-06 3.4182885e-05 1.1362067e-06 
-6.9763018e-07 3.1967764e-05 3.1182235e-08 
-8.0863214e-07 7.9797337e-06 -3.6719248e-07 
-7.7862558e-07 -1.4928256e-05 6.5681007e-07 
-6.8546285e-08 -1.6801887e-05 -3.2772905e-07 
9.7337242e-08 -2.5702439e-06 -2.0563601e-07 
1.3806698e-07 8.4114545e-06 2.7634758e-07 
7.7385756e-08 6.8562895e-06 1.8586936e-08 
-7.4289012e-08 -6.9126605e-07 -7.8481591e-08 
-7.1020281e-08 -4.0951732e-06 1.0518130e-08 
2.2024594e-08 -1.5876648e-06 -6.2788541e-10 
3.4001722e-08 1.3258101e-06 -3.3695697e-09 
-2.1045694e-09 1.2166090e-06 1.2552807e-08 
-9.0899137e-09 -1.5471952e-07 1.4495883e-09 
-1.1383338e-09 -5.3080487e-07 -6.6066415e-09 
1.9058295e-09 -9.3108255e-08 -6.0958882e-10 
8.8569524e-10 1.6311681e-07 1.9019226e-09 
-7.9910072e-11 7.3280269e-08 -1.8019553e-10 
-3.7808756e-10 -3.4725105e-08 -3.8575207e-10 
-1.7642247e-10 -3.0986886e-08 7.8812720e-11 
1.0493151e-10 3.9296228e-09 2.2678968e-11 
-3.6692496e-11 1.0778035e-08 -6.8449781e-11 
-3.8201737e-11 1.3060730e-09 2.8596894e-11 
4.0675423e-12 -2.9057756e-09 5.4630983e-12 
2.7245060e-12 -7.3847362e-10 -4.8070906e-13 
0.0000000e+00 1.0073389e-04 0.0000000e+00 
0.0000000e+00 8.4474894e-05 0.0000000e+00 
0.0000000e+00 5.4626555e-05 0.0000000e+00 
0.0000000e+00 4.5920311e-05 0.0000000e+00 
0.0000000e+00 6.6302156e-05 0.0000000e+00 
0.0000000e+00 6.6786204e-05 0.0000000e+00 
0.0000000e+00 -4.0953208e-05 0.0000000e+00 
0.0000000e+00 -3.3720507e-04 0.0000000e+00 
0.0000000e+00 -8.4828318e-04 0.0000000e+00 
0.0000000e+00 -1.5529535e-03 0.0000000e+00 
0.0000000e+00 -2.4519719e-03 0.0000000e+00 
0.0000000e+00 -3.5483802e-03 0.0000000e+00 
0.0000000e+00 -4.6549006e-03 0.0000000e+00 
0.0000000e+00 -5.2498416e-03 0.0000000e+00 
0.0000000e+00 -4.8786961e-03 0.0000000e+00 
0.0000000e+00 -4.3393718e-03 0.0000000e+00 
0.0000000e+00 -4.1779550e-03 0.0000000e+00 
0.0000000e+00 -4.3457793e-03 0.0000000e+00 
0.0000000e+00 -4.1553499e-03 0.0000000e+00 
0.0000000e+00 -3.0120125e-03 0.0000000e+00 
0.0000000e+00 -1.6066235e-03 0.0000000e+00 
0.0000000e+00 -5.3350447e-04 0.0000000e+00 
0.0000000e+00 6.5121261e-05 0.0000000e+00 
0.0000000e+00 2.7946077e-04 0.0000000e+00 
0.0000000e+00 2.6996579e-04 0.0000000e+00 
0.0000000e+00 1.7100340e-04 0.0000000e+00 
0.0000000e+00 7.6503195e-05 0.0000000e+00 
0.0000000e+00 3.8909318e-05 0.0000000e+00 
0.0000000e+00 4.4819335e-05 0.0000000e+00 
0.0000000e+00 4.4782242e-05 0.0000000e+00 
0.0000000e+00 1.0062299e-05 0.0000000e+00 
0.0000000e+00 -4.4808265e-05 0.0000000e+00 
0.0000000e+00 -7.7812023e-05 0.0000000e+00 
0.0000000e+00 -5.8400827e-05 0.0000000e+00 
0.0000000e+00 3.9769952e-06 0.0000000e+00 
0.0000000e+00 6.4085645e-05 0.0000000e+00 
0.0000000e+00 7.0207621e-05 0.0000000e+00 
0.0000000e+00 1.1049856e-05 0.0000000e+00 
0.0000000e+00 -5.7801273e-05 0.0000000e+00 
0.0000000e+00 -6.2361454e-05 0.0000000e+00 
0.0000000e+00 1.3673599e-05 0.0000000e+00 
0.0000000e+00 1.0968413e-04 0.0000000e+00 
0.0000000e+00 1.4277587e-04 0.0000000e+00 
0.0000000e+00 8.8999499e-05 0.0000000e+00 
0.0000000e+00 -1.6102681e-06 0.0000000e+00 
0.0000000e+00 -7.3797622e-05 0.0000000e+00 
0.0000000e+00 -1.4037846e-04 0.0000000e+00 
0.0000000e+00 -3.1977223e-04 0.0000000e+00 
0.0000000e+00 -7.7886530e-04 0.0000000e+00 
0.0000000e+00 -1.5937355e-03 0.0000000e+00 
0.0000000e+00 -2.6987840e-03 0.0000000e+00 
0.0000000e+00 -3.9204862e-03 0.0000000e+00 
0.0000000e+00 -4.9070609e-03 0.0000000e+00 
0.0000000e+00 -5.1654452e-03 0.0000000e+00 
0.0000000e+00 -4.7024204e-03 0.0000000e+00 
0.0000000e+00 -4.3192226e-03 0.0000000e+00 
0.0000000e+00 -4.3352991e-03 0.0000000e+00 
0.0000000e+00 -4.4664522e-03 0.0000000e+00 
0.0000000e+00 -3.9946553e-03 0.0000000e+00 
0.0000000e+00 -2.7551970e-03 0.0000000e+00 
0.0000000e+00 -1.4184997e-03 0.0000000e+00 
0.0000000e+00 -4.4274837e-04 0.0000000e+00 
0.0000000e+00 9.7450895e-05 0.0000000e+00 
0.0000000e+00 2.7999040e-04 0.0000000e+00 
0.0000000e+00 2.5017708e-04 0.0000000e+00 
0.0000000e+00 1.4708262e-04 0.0000000e+00 
0.0000000e+00 6.3452950e-05 0.0000000e+00 
0.0000000e+00 3.6539393e-05 0.0000000e+00 
0.0000000e+00 4.0074905e-05 0.0000000e+00 
0.0000000e+00 3.0586627e-05 0.0000000e+00 
0.0000000e+00 -2.8066872e-06 0.0000000e+00 
0.0000000e+00 -3.9266011e-05 0.0000000e+00 
0.0000000e+00 -5.1374507e-05 0.0000000e+00 
0.0000000e+00 -2.9405064e-05 0.0000000e+00 
0.0000000e+00 8.2344868e-06 0.0000000e+00 
0.0000000e+00 3.3507804e-05 0.0000000e+00 
0.0000000e+00 3.1589323e-05 0.0000000e+00 
0.0000000e+00 8.3451223e-06 0.0000000e+00 
0.0000000e+00 -1.4008595e-05 0.0000000e+00 
0.0000000e+00 -1.6537979e-05 0.0000000e+00 
0.0000000e+00 -3.1613038e-06 0.0000000e+00 
0.0000000e+00 7.9302272e-06 0.0000000e+00 
0.0000000e+00 6.9611438e-06 0.0000000e+00 
0.0000000e+00 -3.5218503e-07 0.0000000e+00 
0.0000000e+00 -3.9685506e-06 0.0000000e+00 
0.0000000e+00 -1.7312775e-06 0.0000000e+00 
0.0000000e+00 1.1887863e-06 0.0000000e+00 
0.0000000e+00 1.2484670e-06 0.0000000e+00 
0.0000000e+00 -7.5737425e-08 0.0000000e+00 
0.0000000e+00 -5.2622840e-07 0.0000000e+00 
0.0000000e+00 -1.2572190e-07 0.0000000e+00 
0.0000000e+00 1.5483828e-07 0.0000000e+00 
0.0000000e+00 8.3621728e-08 0.0000000e+00 
0.0000000e+00 -3.0009353e-08 0.0000000e+00 
0.0000000e+00 -3.3466886e-08 0.0000000e+00 
0.0000000e+00 2.0484514e-09 0.0000000e+00 
0.0000000e+00 1.1090116e-08 0.0000000e+00 
0.0000000e+00 1.9414375e-09 0.0000000e+00 
0.0000000e+00 -2.8536253e-09 0.0000000e+00 
0.0000000e+00 -8.7949797e-10 0.0000000e+00 
0.0000000e+00 8.9945273e-10 0.0000000e+00 
-1.9772007e-04 -9.2285703e-04 2.0779905e-04 
6.5702014e-05 -7.2847077e-05 -6.5503766e-05 
7.8384095e-05 6.4633059e-05 -5.0746221e-06 
2.5303669e-05 -1.2700441e-05 1.3883149e-06 
0.0000000e+00 -2.0130239e-03 0.0000000e+00 
0.0000000e+00 0.0000000e+00 0.0000000e+00 
0.0000000e+00 0.0000000e+00 0.0000000e+00 
0.0000000e+00 0.0000000e+00 0.0000000e+00 
0.0000000e+00 0.0000000e+00 0.0000000e+00 
0.0000000e+00 0.0000000e+00 0.0000000e+00 
0.0000000e+00 0.0000000e+00 0.0000000e+00 
0.0000000e+00 0.0000000e+00 0.0000000e+00 
0.0000000e+00 0.0000000e+00 0.0000000e+00 
0.0000000e+00 0.0000000e+00 0.0000000e+00 
0.0000000e+00 0.0000000e+00 0.0000000e+00 
0.0000000e+00 0.0000000e+00 0.0000000e+00 
0.0000000e+00 0.0000000e+00 0.0000000e+00 
0.0000000e+00 0.0000000e+00 0.0000000e+00 
0.0000000e+00 0.0000000e+00 0.0000000e+00 
0.0000000e+00 0.0000000e+00 0.0000000e+00 
0.0000000e+00 0.0000000e+00 0.0000000e+00 
0.0000000e+00 0.0000000e+00 0.0000000e+00 
0.0000000e+00 0.0000000e+00 0.0000000e+00 
0.0000000e+00 0.0000000e+00 0.0000000e+00 
0.0000000e+00 0.0000000e+00 0.0000000e+00 
0.0000000e+00 0.0000000e+00 0.0000000e+00 
0.0000000e+00 0.0000000e+00 0.0000000e+00 
0.0000000e+00 0.0000000e+00 0.0000000e+00 
0.0000000e+00 0.0000000e+00 0.0000000e+00 
0.0000000e+00 0.0000000e+00 0.0000000e+00 
0.0000000e+00 0.0000000e+00 0.0000000e+00 
0.0000000e+00 0.0000000e+00 0.0000000e+00 
0.0000000e+00 0.0000000e+00 0.0000000e+00 
0.0000000e+00 0.0000000e+00 0.0000000e+00 
0.0000000e+00 0.0000000e+00 0.0000000e+00 
0.0000000e+00 0.0000000e+00 0.0000000e+00 
0.0000000e+00 0.0000000e+00 0.0000000e+00 
0.0000000e+00 0.0000000e+00 0.0000000e+00 
0.0000000e+00 0.0000000e+00 0.0000000e+00 
0.0000000e+00 0.0000000e+00 0.0000000e+00 
0.0000000e+00 0.0000000e+00 0.0000000e+00 
0.0000000e+00 0.0000000e+00 0.0000000e+00 
0.0000000e+00 0.0000000e+00 0.0000000e+00 
0.0000000e+00 0.0000000e+00 0.0000000e+00 
0.0000000e+00 0.0000000e+00 0.0000000e+00 
0.0000000e+00 0.0000000e+00 0.0000000e+00 
0.0000000e+00 0.0000000e+00 0.0000000e+00 
0.0000000e+00 0.0000000e+00 0.0000000e+00 
0.0000000e+00 0.0000000e+00 0.0000000e+00 
0.0000000e+00 0.0000000e+00 0.0000000e+00 
0.0000000e+00 0.0000000e+00 0.0000000e+00 
0.0000000e+00 0.0000000e+00 0.0000000e+00 
0.0000000e+00 0.0000000e+00 0.0000000e+00 
0.0000000e+00 0.0000000e+00 0.0000000e+00 
0.0000000e+00 0.0000000e+00 0.0000000e+00 
0.0000000e+00 0.0000000e+00 0.0000000e+00 
0.0000000e+00 0.0000000e+00 0.0000000e+00 
0.0000000e+00 0.0000000e+00 0.0000000e+00 
0.0000000e+00 0.0000000e+00 0.0000000e+00 
0.0000000e+00 0.0000000e+00 0.0000000e+00 
0.0000000e+00 0.0000000e+00 0.0000000e+00 
0.0000000e+00 0.0000000e+00 0.0000000e+00 
0.0000000e+00 0.0000000e+00 0.0000000e+00 
0.0000000e+00 0.0000000e+00 0.0000000e+00 
0.0000000e+00 0.0000000e+00 0.0000000e+00 
0.0000000e+00 0.0000000e+00 0.0000000e+00 
0.0000000e+00 0.0000000e+00 0.0000000e+00 
0.0000000e+00 0.0000000e+00 0.0000000e+00 
0.0000000e+00 0.0000000e+00 0.0000000e+00 
0.0000000e+00 0.0000000e+00 0.0000000e+00 
0.0000000e+00 0.0000000e+00 0.0000000e+00 
0.0000000e+00 0.0000000e+00 0.0000000e+00 
0.0000000e+00 0.0000000e+00 0.0000000e+00 
0.0000000e+00 0.0000000e+00 0.0000000e+00 
0.0000000e+00 0.0000000e+00 0.0000000e+00 
0.0000000e+00 0.0000000e+00 0.0000000e+00 
0.0000000e+00 0.0000000e+00 0.0000000e+00 
0.0000000e+00 0.0000000e+00 0.0000000e+00 
0.0000000e+00 0.0000000e+00 0.0000000e+00 
0.0000000e+00 0.0000000e+00 0.0000000e+00 
0.0000000e+00 0.0000000e+00 0.0000000e+00 
0.0000000e+00 0.0000000e+00 0.0000000e+00 
0.0000000e+00 0.0000000e+00 0.0000000e+00 
0.0000000e+00 0.0000000e+00 0.0000000e+00 
0.0000000e+00 0.0000000e+00 0.0000000e+00 
0.0000000e+00 0.0000000e+00 0.0000000e+00 
0.0000000e+00 0.0000000e+00 0.0000000e+00 
0.0000000e+00 0.0000000e+00 0.0000000e+00 
0.0000000e+00 0.0000000e+00 0.0000000e+00 
0.0000000e+00 0.0000000e+00 0.0000000e+00 
0.0000000e+00 0.0000000e+00 0.0000000e+00 
0.0000000e+00 0.0000000e+00 0.0000000e+00 
0.0000000e+00 0.0000000e+00 0.0000000e+00 
0.0000000e+00 0.0000000e+00 0.0000000e+00 
0.0000000e+00 0.0000000e+00 0.0000000e+00 
0.0000000e+00 0.0000000e+00 0.0000000e+00 
0.0000000e+00 0.0000000e+00 0.0000000e+00 
0.0000000e+00 0.0000000e+00 0.0000000e+00 
0.0000000e+00 0.0000000e+00 0.0000000e+00 
0.0000000e+00 0.0000000e+00 0.0000000e+00 
0.0000000e+00 0.0000000e+00 0.0000000e+00 
0.0000000e+00 0.0000000e+00 0.0000000e+00 
0.0000000e+00 0.0000000e+00 0.0000000e+00 
0.0000000e+00 0.0000000e+00 0.0000000e+00 
0.0000000e+00 0.0000000e+00 0.0000000e+00 
0.0000000e+00 0.0000000e+00 0.0000000e+00 
0.0000000e+00 0.0000000e+00 0.0000000e+00 
0.0000000e+00 0.0000000e+00 0.0000000e+00 
0.0000000e+00 0.0000000e+00 0.0000000e+00 
0.0000000e+00 0.0000000e+00 0.0000000e+00 
0.0000000e+00 0.0000000e+00 0.0000000e+00 
6.0137486e-09 6.1574660e-06 9.3930186e-07 
-1.4290040e-07 3.5490073e-06 1.4700182e-06 
-3.5057444e-06 -9.9202380e-06 7.0580074e-07 
-4.8038037e-06 -1.1475833e-05 6.5663738e-07 
-6.3581228e-06 -1.8860832e-05 1.9456816e-06 
-9.5536716e-06 -2.9631969e-05 1.9272436e-06 
-6.6100224e-06 -2.7901910e-05 -3.6457636e-06 
-7.2726307e-06 -1.6992686e-05 -1.0011719e-06 
-5.6710574e-06 -7.4740492e-06 -2.2324782e-06 
-6.5090021e-06 -5.8326377e-06 -3.8376793e-06 
-1.7658972e-06 3.4656364e-06 -4.0654641e-07 
-7.1832011e-07 2.8056052e-06 -4.8212002e-07 
4.7739815e-07 -3.4651614e-06 -2.3852829e-07 
3.0586480e-07 7.4722766e-07 2.8002333e-07 
-8.5277755e-08 3.5467238e-07 2.5690846e-07 
3.0780313e-08 -1.4261632e-07 2.6984274e-08 
-6.4404261e-08 -2.2392777e-07 -8.1959804e-08 
-2.3313541e-07 7.9076574e-07 7.5095464e-08 
1.5799901e-07 -1.1054559e-06 -6.9691779e-08 
-6.8416136e-07 4.2734453e-07 9.0738723e-08 
-9.9082956e-07 4.3160853e-06 7.1887871e-07 
-5.6193840e-06 -4.4086523e-06 3.1627048e-06 
-3.8177118e-06 -5.2370710e-06 4.0846265e-07 
-1.1823457e-05 -1.6799762e-05 2.2327354e-06 
-1.6706132e-05 -1.9289389e-05 2.1511935e-06 
-1.7610455e-05 -3.2814507e-05 -6.0860049e-07 
-9.2824657e-06 -2.4255522e-05 -3.4385132e-06 
-9.5089554e-06 -1.5216665e-05 -2.3363132e-06 
-7.6647439e-06 -1.1226065e-05 -2.6065936e-06 
8.6128557e-07 1.0587445e-06 -2.0131722e-06 
-1.4294091e-06 4.9391492e-06 2.5386240e-07 
-4.2956788e-07 1.3828960e-06 1.2841783e-06 
4.5138600e-07 -1.7697361e-06 -5.3617202e-07 
-6.2080730e-08 2.9374129e-07 -3.1422277e-07 
-7.9377855e-08 4.4485557e-07 -3.9861259e-08 
5.6677806e-08 -3.0432608e-07 9.5924255e-09 
-7.0587771e-09 1.0612921e-07 -1.7255702e-09 
-1.6297662e-10 -1.2318880e-08 8.0037816e-09 
-3.8030237e-10 -4.9716191e-09 -6.7863970e-10 
9.5935893e-10 8.9331129e-09 4.5071702e-09 
4.7046089e-10 -1.9084201e-09 -4.7353704e-10 
-3.0518862e-11 -8.2433577e-10 -6.2896682e-10 
-6.0376273e-11 5.5301708e-10 1.9851509e-10 
-2.7010989e-13 -3.6915765e-10 -1.0241097e-10 
1.0086442e-11 1.0030492e-10 3.5213513e-11 
1.8417557e-12 1.0674464e-11 1.4056684e-11 
-3.3310375e-12 -2.8045673e-12 -8.9789482e-13 
9.0451713e-13 2.7988768e-12 -4.1942053e-14 
-1.4211288e-13 -1.6160300e-12 -8.8813200e-14 
0.0000000e+00 -3.2596304e-06 0.0000000e+00 
0.0000000e+00 -2.1165011e-05 0.0000000e+00 
0.0000000e+00 -1.6053749e-04 0.0000000e+00 
0.0000000e+00 -4.7577999e-04 0.0000000e+00 
0.0000000e+00 -7.5174979e-04 0.0000000e+00 
0.0000000e+00 -1.0951717e-03 0.0000000e+00 
0.0000000e+00 -1.0535903e-03 0.0000000e+00 
0.0000000e+00 -7.2343636e-04 0.0000000e+00 
0.0000000e+00 -5.0492416e-04 0.0000000e+00 
0.0000000e+00 -2.1042571e-04 0.0000000e+00 
0.0000000e+00 4.1791558e-05 0.0000000e+00 
0.0000000e+00 8.3275983e-05 0.0000000e+00 
0.0000000e+00 3.2715673e-06 0.0000000e+00 
0.0000000e+00 -3.1028099e-05 0.0000000e+00 
0.0000000e+00 9.1503421e-07 0.0000000e+00 
0.0000000e+00 9.2879927e-06 0.0000000e+00 
0.0000000e+00 5.7936663e-06 0.0000000e+00 
0.0000000e+00 -2.6804053e-05 0.0000000e+00 
0.0000000e+00 -8.0787895e-06 0.0000000e+00 
0.0000000e+00 2.7978342e-05 0.0000000e+00 
0.0000000e+00 2.2090722e-05 0.0000000e+00 
0.0000000e+00 -4.4573106e-05 0.0000000e+00 
0.0000000e+00 -1.6145829e-04 0.0000000e+00 
0.0000000e+00 -5.2239897e-04 0.0000000e+00 
0.0000000e+00 -8.3716772e-04 0.0000000e+00 
0.0000000e+00 -1.1782516e-03 0.0000000e+00 
0.0000000e+00 -1.0877236e-03 0.0000000e+00 
0.0000000e+00 -7.5413118e-04 0.0000000e+00 
0.0000000e+00 -4.8963423e-04 0.0000000e+00 
0.0000000e+00 -1.5632367e-04 0.0000000e+00 
0.0000000e+00 7.1376788e-05 0.0000000e+00 
0.0000000e+00 5.7896617e-05 0.0000000e+00 
0.0000000e+00 -8.0339296e-06 0.0000000e+00 
0.0000000e+00 -3.1897638e-05 0.0000000e+00 
0.0000000e+00 1.3190125e-05 0.0000000e+00 
0.0000000e+00 6.6850716e-06 0.0000000e+00 
0.0000000e+00 -7.8222583e-06 0.0000000e+00 
0.0000000e+00 4.2310742e-08 0.0000000e+00 
0.0000000e+00 8.7044413e-07 0.0000000e+00 
0.0000000e+00 -7.1089585e-07 0.0000000e+00 
0.0000000e+00 -4.8215110e-08 0.0000000e+00 
0.0000000e+00 3.6541902e-08 0.0000000e+00 
0.0000000e+00 -4.0369276e-08 0.0000000e+00 
0.0000000e+00 2.7632355e-08 0.0000000e+00 
0.0000000e+00 -1.4635196e-08 0.0000000e+00 
0.0000000e+00 4.8268007e-09 0.0000000e+00 
0.0000000e+00 -8.2466872e-10 0.0000000e+00 
0.0000000e+00 3.6998937e-10 0.0000000e+00 
0.0000000e+00 -8.4544462e-11 0.0000000e+00 
9.3193034e-07 8.4279072e-06 1.7878706e-07 
-2.0401976e-06 -6.8973859e-06 9.0061388e-07 
-6.6693940e-07 -1.5306712e-05 1.5078091e-06 
-1.1406087e-05 1.7638195e-05 -2.8676270e-06 
5.2194824e-14 -1.0868781e-12 -1.5140450e-13 
-2.1975344e-13 5.0522358e-13 -2.5921938e-13 
1.5664581e-12 9.2590519e-12 3.5641496e-12 
-1.6468375e-13 -1.0028292e-11 -3.6063283e-12 
-5.3231934e-06 4.3026048e-06 4.8059806e-06 
-1.5834231e-13 -8.9564608e-13 -2.6712524e-13 
9.0466383e-06 2.2121238e-05 -2.5526278e-05 
-1.8370749e-05 -1.8875155e-05 -5.9986405e-07 
0.0000000e+00 3.9844996e-05 0.0000000e+00 
0.0000000e+00 2.5225678e-05 0.0000000e+00 
0.0000000e+00 -3.0718715e-04 0.0000000e+00 
0.0000000e+00 -7.7984115e-04 0.0000000e+00 
0.0000000e+00 -1.3527425e-03 0.0000000e+00 
0.0000000e+00 -2.0176584e-03 0.0000000e+00 
0.0000000e+00 -1.9010360e-03 0.0000000e+00 
0.0000000e+00 -1.3762837e-03 0.0000000e+00 
0.0000000e+00 -9.3534624e-04 0.0000000e+00 
0.0000000e+00 -3.5617946e-04 0.0000000e+00 
0.0000000e+00 1.3850312e-04 0.0000000e+00 
0.0000000e+00 1.1935725e-04 0.0000000e+00 
0.0000000e+00 3.9667716e-06 0.0000000e+00 