# vtk DataFile Version 4.0
vtk output
ASCII
DATASET UNSTRUCTURED_GRID
POINTS 1919 float
0.0000000e+00 0.0000000e+00 0.0000000e+00 
0.0000000e+00 0.0000000e+00 5.0000000e+01 
5.0000000e+00 0.0000000e+00 0.0000000e+00 
5.0000000e+00 0.0000000e+00 5.0000000e+01 
5.0000000e+00 1.0000000e+00 0.0000000e+00 
5.0000000e+00 1.0000000e+00 5.0000000e+01 
0.0000000e+00 1.0000000e+00 0.0000000e+00 
0.0000000e+00 1.0000000e+00 5.0000000e+01 
5.0000000e+00 2.0000000e+00 0.0000000e+00 
5.0000000e+00 2.0000000e+00 5.0000000e+01 
3.0000000e+00 2.0000000e+00 0.0000000e+00 
3.0000000e+00 2.0000000e+00 5.0000000e+01 
0.0000000e+00 2.0000000e+00 0.0000000e+00 
0.0000000e+00 2.0000000e+00 5.0000000e+01 
1.5000000e+00 3.0000000e+00 0.0000000e+00 
1.5000000e+00 3.0000000e+00 5.0000000e+01 
7.5000000e-01 3.0000000e+00 0.0000000e+00 
7.5000000e-01 3.0000000e+00 5.0000000e+01 
0.0000000e+00 3.0000000e+00 0.0000000e+00 
0.0000000e+00 3.0000000e+00 5.0000000e+01 
7.5000000e-01 3.0000000e+00 5.0000000e-01 
7.5000000e-01 3.0000000e+00 1.0000000e+00 
7.5000000e-01 3.0000000e+00 1.5000000e+00 
7.5000000e-01 3.0000000e+00 2.0000000e+00 
7.5000000e-01 3.0000000e+00 2.5000000e+00 
7.5000000e-01 3.0000000e+00 3.0000000e+00 
7.5000000e-01 3.0000000e+00 3.5000000e+00 
7.5000000e-01 3.0000000e+00 4.0000000e+00 
7.5000000e-01 3.0000000e+00 4.5000000e+00 
7.5000000e-01 3.0000000e+00 5.0000000e+00 
7.5000000e-01 3.0000000e+00 5.5000000e+00 
7.5000000e-01 3.0000000e+00 6.0000000e+00 
7.5000000e-01 3.0000000e+00 6.5000000e+00 
7.5000000e-01 3.0000000e+00 7.0000000e+00 
7.5000000e-01 3.0000000e+00 7.5000000e+00 
7.5000000e-01 3.0000000e+00 8.0000000e+00 
7.5000000e-01 3.0000000e+00 8.5000000e+00 
7.5000000e-01 3.0000000e+00 9.0000000e+00 
7.5000000e-01 3.0000000e+00 9.5000000e+00 
7.5000000e-01 3.0000000e+00 1.0000000e+01 
7.5000000e-01 3.0000000e+00 1.0500000e+01 
7.5000000e-01 3.0000000e+00 1.1000000e+01 
7.5000000e-01 3.0000000e+00 1.1500000e+01 
7.5000000e-01 3.0000000e+00 1.2000000e+01 
7.5000000e-01 3.0000000e+00 1.2500000e+01 
7.5000000e-01 3.0000000e+00 1.3000000e+01 
7.5000000e-01 3.0000000e+00 1.3500000e+01 
7.5000000e-01 3.0000000e+00 1.4000000e+01 
7.5000000e-01 3.0000000e+00 1.4500000e+01 
7.5000000e-01 3.0000000e+00 1.5000000e+01 
7.5000000e-01 3.0000000e+00 1.5500000e+01 
7.5000000e-01 3.0000000e+00 1.6000000e+01 
7.5000000e-01 3.0000000e+00 1.6500000e+01 
7.5000000e-01 3.0000000e+00 1.7000000e+01 
7.5000000e-01 3.0000000e+00 1.7500000e+01 
7.5000000e-01 3.0000000e+00 1.8000000e+01 
7.5000000e-01 3.0000000e+00 1.8500000e+01 
7.5000000e-01 3.0000000e+00 1.9000000e+01 
7.5000000e-01 3.0000000e+00 1.9500000e+01 
7.5000000e-01 3.0000000e+00 2.0000000e+01 
7.5000000e-01 3.0000000e+00 2.0500000e+01 
7.5000000e-01 3.0000000e+00 2.1000000e+01 
7.5000000e-01 3.0000000e+00 2.1500000e+01 
7.5000000e-01 3.0000000e+00 2.2000000e+01 
7.5000000e-01 3.0000000e+00 2.2500000e+01 
7.5000000e-01 3.0000000e+00 2.3000000e+01 
7.5000000e-01 3.0000000e+00 2.3500000e+01 
7.5000000e-01 3.0000000e+00 2.4000000e+01 
7.5000000e-01 3.0000000e+00 2.4500000e+01 
7.5000000e-01 3.0000000e+00 2.5000000e+01 
7.5000000e-01 3.0000000e+00 2.5500000e+01 
7.5000000e-01 3.0000000e+00 2.6000000e+01 
7.5000000e-01 3.0000000e+00 2.6500000e+01 
7.5000000e-01 3.0000000e+00 2.7000000e+01 
7.5000000e-01 3.0000000e+00 2.7500000e+01 
7.5000000e-01 3.0000000e+00 2.8000000e+01 
7.5000000e-01 3.0000000e+00 2.8500000e+01 
7.5000000e-01 3.0000000e+00 2.9000000e+01 
7.5000000e-01 3.0000000e+00 2.9500000e+01 
7.5000000e-01 3.0000000e+00 3.0000000e+01 
7.5000000e-01 3.0000000e+00 3.0500000e+01 
7.5000000e-01 3.0000000e+00 3.1000000e+01 
7.5000000e-01 3.0000000e+00 3.1500000e+01 
7.5000000e-01 3.0000000e+00 3.2000000e+01 
7.5000000e-01 3.0000000e+00 3.2500000e+01 
7.5000000e-01 3.0000000e+00 3.3000000e+01 
7.5000000e-01 3.0000000e+00 3.3500000e+01 
7.5000000e-01 3.0000000e+00 3.4000000e+01 
7.5000000e-01 3.0000000e+00 3.4500000e+01 
7.5000000e-01 3.0000000e+00 3.5000000e+01 
7.5000000e-01 3.0000000e+00 3.5500000e+01 
7.5000000e-01 3.0000000e+00 3.6000000e+01 
7.5000000e-01 3.0000000e+00 3.6500000e+01 
7.5000000e-01 3.0000000e+00 3.7000000e+01 
7.5000000e-01 3.0000000e+00 3.7500000e+01 
7.5000000e-01 3.0000000e+00 3.8000000e+01 
7.5000000e-01 3.0000000e+00 3.8500000e+01 
7.5000000e-01 3.0000000e+00 3.9000000e+01 
7.5000000e-01 3.0000000e+00 3.9500000e+01 
7.5000000e-01 3.0000000e+00 4.0000000e+01 
7.5000000e-01 3.0000000e+00 4.0500000e+01 
7.5000000e-01 3.0000000e+00 4.1000000e+01 
7.5000000e-01 3.0000000e+00 4.1500000e+01 
7.5000000e-01 3.0000000e+00 4.2000000e+01 
7.5000000e-01 3.0000000e+00 4.2500000e+01 
7.5000000e-01 3.0000000e+00 4.3000000e+01 
7.5000000e-01 3.0000000e+00 4.3500000e+01 
7.5000000e-01 3.0000000e+00 4.4000000e+01 
7.5000000e-01 3.0000000e+00 4.4500000e+01 
7.5000000e-01 3.0000000e+00 4.5000000e+01 
7.5000000e-01 3.0000000e+00 4.5500000e+01 
7.5000000e-01 3.0000000e+00 4.6000000e+01 
7.5000000e-01 3.0000000e+00 4.6500000e+01 
7.5000000e-01 3.0000000e+00 4.7000000e+01 
7.5000000e-01 3.0000000e+00 4.7500000e+01 
7.5000000e-01 3.0000000e+00 4.8000000e+01 
7.5000000e-01 3.0000000e+00 4.8500000e+01 
7.5000000e-01 3.0000000e+00 4.9000000e+01 
7.5000000e-01 3.0000000e+00 4.9500000e+01 
7.5000000e-01 3.0250001e+00 0.0000000e+00 
7.5000000e-01 3.0250001e+00 5.0000000e-01 
7.5000000e-01 3.0250001e+00 1.0000000e+00 
7.5000000e-01 3.0250001e+00 1.5000000e+00 
7.5000000e-01 3.0250001e+00 2.0000000e+00 
7.5000000e-01 3.0250001e+00 2.5000000e+00 
7.5000000e-01 3.0250001e+00 3.0000000e+00 
7.5000000e-01 3.0250001e+00 3.5000000e+00 
7.5000000e-01 3.0250001e+00 4.0000000e+00 
7.5000000e-01 3.0250001e+00 4.5000000e+00 
7.5000000e-01 3.0250001e+00 5.0000000e+00 
7.5000000e-01 3.0250001e+00 5.5000000e+00 
7.5000000e-01 3.0250001e+00 6.0000000e+00 
7.5000000e-01 3.0250001e+00 6.5000000e+00 
7.5000000e-01 3.0250001e+00 7.0000000e+00 
7.5000000e-01 3.0250001e+00 7.5000000e+00 
7.5000000e-01 3.0250001e+00 8.0000000e+00 
7.5000000e-01 3.0250001e+00 8.5000000e+00 
7.5000000e-01 3.0250001e+00 9.0000000e+00 
7.5000000e-01 3.0250001e+00 9.5000000e+00 
7.5000000e-01 3.0250001e+00 1.0000000e+01 
7.5000000e-01 3.0250001e+00 1.0500000e+01 
7.5000000e-01 3.0250001e+00 1.1000000e+01 
7.5000000e-01 3.0250001e+00 1.1500000e+01 
7.5000000e-01 3.0250001e+00 1.2000000e+01 
7.5000000e-01 3.0250001e+00 1.2500000e+01 
7.5000000e-01 3.0250001e+00 1.3000000e+01 
7.5000000e-01 3.0250001e+00 1.3500000e+01 
7.5000000e-01 3.0250001e+00 1.4000000e+01 
7.5000000e-01 3.0250001e+00 1.4500000e+01 
7.5000000e-01 3.0250001e+00 1.5000000e+01 
7.5000000e-01 3.0250001e+00 1.5500000e+01 
7.5000000e-01 3.0250001e+00 1.6000000e+01 
7.5000000e-01 3.0250001e+00 1.6500000e+01 
7.5000000e-01 3.0250001e+00 1.7000000e+01 
7.5000000e-01 3.0250001e+00 1.7500000e+01 
7.5000000e-01 3.0250001e+00 1.8000000e+01 
7.5000000e-01 3.0250001e+00 1.8500000e+01 
7.5000000e-01 3.0250001e+00 1.9000000e+01 
7.5000000e-01 3.0250001e+00 1.9500000e+01 
7.5000000e-01 3.0250001e+00 2.0000000e+01 
7.5000000e-01 3.0250001e+00 2.0500000e+01 
7.5000000e-01 3.0250001e+00 2.1000000e+01 
7.5000000e-01 3.0250001e+00 2.1500000e+01 
7.5000000e-01 3.0250001e+00 2.2000000e+01 
7.5000000e-01 3.0250001e+00 2.2500000e+01 
7.5000000e-01 3.0250001e+00 2.3000000e+01 
7.5000000e-01 3.0250001e+00 2.3500000e+01 
7.5000000e-01 3.0250001e+00 2.4000000e+01 
7.5000000e-01 3.0250001e+00 2.4500000e+01 
7.5000000e-01 3.0250001e+00 2.5000000e+01 
7.5000000e-01 3.0250001e+00 2.5500000e+01 
7.5000000e-01 3.0250001e+00 2.6000000e+01 
7.5000000e-01 3.0250001e+00 2.6500000e+01 
7.5000000e-01 3.0250001e+00 2.7000000e+01 
7.5000000e-01 3.0250001e+00 2.7500000e+01 
7.5000000e-01 3.0250001e+00 2.8000000e+01 
7.5000000e-01 3.0250001e+00 2.8500000e+01 
7.5000000e-01 3.0250001e+00 2.9000000e+01 
7.5000000e-01 3.0250001e+00 2.9500000e+01 
7.5000000e-01 3.0250001e+00 3.0000000e+01 
7.5000000e-01 3.0250001e+00 3.0500000e+01 
7.5000000e-01 3.0250001e+00 3.1000000e+01 
7.5000000e-01 3.0250001e+00 3.1500000e+01 
7.5000000e-01 3.0250001e+00 3.2000000e+01 
7.5000000e-01 3.0250001e+00 3.2500000e+01 
7.5000000e-01 3.0250001e+00 3.3000000e+01 
7.5000000e-01 3.0250001e+00 3.3500000e+01 
7.5000000e-01 3.0250001e+00 3.4000000e+01 
7.5000000e-01 3.0250001e+00 3.4500000e+01 
7.5000000e-01 3.0250001e+00 3.5000000e+01 
7.5000000e-01 3.0250001e+00 3.5500000e+01 
7.5000000e-01 3.0250001e+00 3.6000000e+01 
7.5000000e-01 3.0250001e+00 3.6500000e+01 
7.5000000e-01 3.0250001e+00 3.7000000e+01 
7.5000000e-01 3.0250001e+00 3.7500000e+01 
7.5000000e-01 3.0250001e+00 3.8000000e+01 
7.5000000e-01 3.0250001e+00 3.8500000e+01 
7.5000000e-01 3.0250001e+00 3.9000000e+01 
7.5000000e-01 3.0250001e+00 3.9500000e+01 
7.5000000e-01 3.0250001e+00 4.0000000e+01 
7.5000000e-01 3.0250001e+00 4.0500000e+01 
7.5000000e-01 3.0250001e+00 4.1000000e+01 
7.5000000e-01 3.0250001e+00 4.1500000e+01 
7.5000000e-01 3.0250001e+00 4.2000000e+01 
7.5000000e-01 3.0250001e+00 4.2500000e+01 
7.5000000e-01 3.0250001e+00 4.3000000e+01 
7.5000000e-01 3.0250001e+00 4.3500000e+01 
7.5000000e-01 3.0250001e+00 4.4000000e+01 
7.5000000e-01 3.0250001e+00 4.4500000e+01 
7.5000000e-01 3.0250001e+00 4.5000000e+01 
7.5000000e-01 3.0250001e+00 4.5500000e+01 
7.5000000e-01 3.0250001e+00 4.6000000e+01 
7.5000000e-01 3.0250001e+00 4.6500000e+01 
7.5000000e-01 3.0250001e+00 4.7000000e+01 
7.5000000e-01 3.0250001e+00 4.7500000e+01 
7.5000000e-01 3.0250001e+00 4.8000000e+01 
7.5000000e-01 3.0250001e+00 4.8500000e+01 
7.5000000e-01 3.0250001e+00 4.9000000e+01 
7.5000000e-01 3.0250001e+00 4.9500000e+01 
7.5000000e-01 3.0250001e+00 5.0000000e+01 
1.5000000e+00 3.0000000e+00 2.5000000e+01 
3.0000000e+00 2.0000000e+00 2.5000000e+01 
4.0000000e+00 2.0000000e+00 2.5000000e+01 
5.0000000e+00 2.0000000e+00 2.5000000e+01 
0.0000000e+00 3.0000000e+00 2.5000000e+01 
0.0000000e+00 0.0000000e+00 1.0000000e+00 
0.0000000e+00 0.0000000e+00 2.0000000e+00 
0.0000000e+00 0.0000000e+00 3.0000000e+00 
0.0000000e+00 0.0000000e+00 4.0000000e+00 
0.0000000e+00 0.0000000e+00 5.0000000e+00 
[...]
POINT_DATA 1919
FIELD FieldData 3
DISPLACEMENT 3 1919  float
0.0000000e+00 0.0000000e+00 0.0000000e+00 
0.0000000e+00 0.0000000e+00 0.0000000e+00 
0.0000000e+00 0.0000000e+00 0.0000000e+00 
0.0000000e+00 0.0000000e+00 0.0000000e+00 
-3.6111460e-06 -2.2183781e-06 1.0304072e-06 
2.7758429e-07 -1.1920971e-06 2.3891559e-07 
0.0000000e+00 5.7269301e-07 0.0000000e+00 
0.0000000e+00 9.9026624e-07 0.0000000e+00 
2.3285895e-06 -4.8146708e-06 -5.1778902e-06 
4.8353075e-07 -1.4203831e-06 6.3520145e-07 
-3.3728579e-06 7.3292717e-06 1.0930009e-05 
-8.1067600e-07 -1.6876194e-06 1.8520751e-06 
0.0000000e+00 3.5144262e-06 0.0000000e+00 
0.0000000e+00 2.2364243e-06 0.0000000e+00 
-1.8587680e-05 9.2359160e-06 4.2616484e-05 
8.9706498e-07 -1.4016132e-06 2.7162780e-06 
-3.1850745e-05 -4.5271216e-05 3.7908147e-05 
-2.3126543e-06 1.9112424e-06 -5.2657390e-07 
0.0000000e+00 -1.0524390e-05 0.0000000e+00 
0.0000000e+00 -6.5851788e-07 0.0000000e+00 
-2.6887026e-05 -4.0605006e-05 1.6405200e-05 
-3.1748466e-05 -3.1574236e-05 1.3408404e-05 
-3.5634115e-05 -2.6475383e-05 8.0603495e-06 
-4.1253916e-05 -2.8260800e-05 1.0777047e-05 
-4.0289302e-05 -3.3047796e-05 1.0699056e-05 
-3.9188624e-05 -3.5841735e-05 6.1451360e-06 
-3.5094741e-05 -3.2856522e-05 9.7830653e-06 
-2.7880549e-05 -2.2040897e-05 9.1753836e-06 
-1.7305829e-05 -1.2361581e-05 4.6869836e-06 
-1.8695813e-05 -1.4547148e-05 8.4728235e-06 
-6.0127272e-06 -2.6799687e-05 1.0469772e-05 
-1.9086612e-05 -3.2865464e-05 9.3710469e-06 
-2.0448655e-05 -2.0908523e-05 5.8550290e-07 
-2.0091895e-05 8.3775021e-06 -9.0941580e-07 
-8.8385923e-06 3.5525554e-05 7.8305385e-07 
-1.8763947e-05 3.9391947e-05 3.5722601e-06 
-2.7673157e-05 2.2649125e-05 2.4566923e-06 
-3.4641304e-05 1.1245843e-05 2.7604774e-05 
-5.0220235e-05 2.8132841e-05 4.3619719e-05 
-5.5443732e-05 6.3115513e-05 3.9343286e-05 
-6.2600448e-05 3.2642249e-05 8.0434751e-05 
-7.5061726e-05 -1.8581329e-04 9.5276060e-05 
-1.1620056e-04 -6.4810534e-04 1.6209661e-04 
-1.5215385e-04 -1.3325209e-03 1.2576926e-04 
-2.0142163e-04 -2.2376226e-03 2.2580961e-04 
-2.0598639e-04 -3.3377733e-03 5.5152548e-05 
-2.6965127e-04 -4.5073810e-03 1.2942338e-04 
-2.8741939e-04 -5.1984671e-03 -1.9967718e-05 
-2.4840052e-04 -4.9203122e-03 -9.6511583e-05 
-2.1684536e-04 -4.4189896e-03 -8.5547326e-05 
-1.6242858e-04 -4.3345895e-03 -2.7762277e-05 
-1.7986410e-04 -4.5959968e-03 -1.3354734e-04 
-2.1259884e-04 -4.5785801e-03 -1.4701899e-04 
-3.3774521e-04 -3.5307312e-03 -3.1292159e-04 
-7.9380065e-05 -2.0871023e-03 -1.4313502e-04 
-1.5927126e-05 -9.3206012e-04 -2.2936152e-05 
-5.5222067e-06 -2.4104302e-04 -5.7610003e-05 
-2.6752748e-05 7.9741258e-05 5.9911772e-06 
-4.0015933e-05 1.8600727e-04 1.6584321e-05 
-4.7175025e-05 1.7943885e-04 2.5404395e-05 
-5.5365283e-05 1.1850029e-04 2.2709337e-05 
-5.7359302e-05 4.8557675e-05 1.0938857e-05 
-5.3402597e-05 8.0390309e-06 -2.8971733e-08 
-3.8988459e-05 3.6505573e-06 -7.7728600e-06 
-3.3606222e-05 1.4578157e-05 -2.4816705e-05 
-1.7952629e-05 1.6992213e-05 -3.6466896e-05 
-3.7242830e-06 7.8143439e-06 -3.5661778e-05 
1.2636032e-06 7.2341468e-06 -6.1659894e-06 
7.9484835e-06 2.3475326e-05 1.1038604e-05 
3.1034151e-06 4.1973286e-05 1.8592897e-05 
6.8206050e-06 4.0377730e-05 3.4816162e-06 
9.1867669e-06 2.0981834e-05 -1.0429039e-05 
6.8849613e-06 6.1025976e-06 -9.5202568e-06 
1.6008431e-06 1.7734636e-05 -8.1803655e-06 
-1.7061192e-06 4.8729493e-05 5.2314190e-06 
-1.3228892e-05 7.1564376e-05 1.1372096e-05 
-1.9228302e-05 6.8664005e-05 1.1836946e-05 
-2.8571520e-05 3.9181414e-05 4.8436877e-06 
-5.3494441e-05 6.9145271e-06 1.4738617e-05 
-5.0974311e-05 2.4903420e-07 2.7569167e-05 
-6.3162726e-05 -2.6767426e-05 8.6969485e-05 
-8.2336592e-05 -2.0412433e-04 9.1511407e-05 
-1.2949911e-04 -6.6322333e-04 1.7464858e-04 
-1.4556675e-04 -1.4613457e-03 1.2235840e-04 
-2.1293675e-04 -2.5560674e-03 2.0532425e-04 
-2.8855045e-04 -3.7618440e-03 3.3051409e-05 
-3.4980729e-04 -4.8050876e-03 1.2217404e-04 
-3.5927061e-04 -5.1603848e-03 -1.3611620e-06 
-3.0614014e-04 -4.8013502e-03 -1.2195718e-04 
-2.4106314e-04 -4.4248067e-03 -5.9864989e-05 
-1.9347949e-04 -4.4638887e-03 -1.8416993e-05 
-2.2049894e-04 -4.6183313e-03 -1.1217305e-04 
-1.8789902e-04 -4.2411089e-03 -1.4961368e-04 
-1.7051520e-04 -3.0341332e-03 -6.6131746e-05 
-1.0932470e-04 -1.7448278e-03 -1.6155677e-04 
-6.3305546e-05 -7.7295775e-04 -1.4543903e-04 
-1.4289330e-05 -1.7314253e-04 -4.5029556e-05 
-4.7480289e-06 1.2548042e-04 -1.5154381e-05 
-4.2469319e-06 2.2113467e-04 -1.2492040e-05 
-1.1016903e-05 1.9513203e-04 -3.9416450e-06 
-1.6199743e-05 1.2538326e-04 3.8423116e-07 
-1.6126049e-05 6.6478817e-05 -8.8217221e-06 
-1.9160811e-05 3.7913585e-05 -1.7932365e-05 
-1.2281562e-05 2.5173664e-05 -3.2432312e-05 
-2.4769190e-06 1.1341134e-05 -4.2292784e-05 
4.5627653e-06 -1.9677657e-06 -4.1188785e-05 
1.3528929e-05 -5.9517874e-06 -2.8474251e-05 
9.8356131e-06 -1.5796651e-06 -1.1568934e-05 
1.6525033e-06 1.3935011e-06 5.5591863e-06 
8.1478987e-07 -1.7680835e-06 8.2427478e-06 
1.3153787e-06 -7.9425936e-06 4.2251187e-07 
1.7734941e-06 -1.0936273e-05 -5.9866065e-06 
7.6154633e-06 -8.3935629e-06 -3.8631943e-06 
5.6130730e-06 -3.7345455e-06 1.2634720e-06 
4.3597976e-07 -8.4612674e-07 7.3811789e-06 
-6.7796003e-07 4.7875716e-08 9.5183077e-06 
-2.7310779e-07 4.1969949e-07 5.7787042e-06 
-2.3709372e-06 1.0034611e-06 3.9414344e-06 
-3.2152909e-07 1.6316859e-06 2.1749545e-06 
0.0000000e+00 -4.5134831e-05 0.0000000e+00 
0.0000000e+00 -4.0547278e-05 0.0000000e+00 
0.0000000e+00 -3.1735904e-05 0.0000000e+00 
0.0000000e+00 -2.6682847e-05 0.0000000e+00 
0.0000000e+00 -2.8291506e-05 0.0000000e+00 
0.0000000e+00 -3.3085096e-05 0.0000000e+00 
0.0000000e+00 -3.5898385e-05 0.0000000e+00 
0.0000000e+00 -3.2470361e-05 0.0000000e+00 
0.0000000e+00 -2.1889544e-05 0.0000000e+00 
0.0000000e+00 -1.2684975e-05 0.0000000e+00 
0.0000000e+00 -1.5094088e-05 0.0000000e+00 
0.0000000e+00 -2.6912343e-05 0.0000000e+00 
0.0000000e+00 -3.2684566e-05 0.0000000e+00 
0.0000000e+00 -2.0110256e-05 0.0000000e+00 
0.0000000e+00 8.7693325e-06 0.0000000e+00 
0.0000000e+00 3.4873057e-05 0.0000000e+00 
0.0000000e+00 3.8504106e-05 0.0000000e+00 
0.0000000e+00 2.2269493e-05 0.0000000e+00 
0.0000000e+00 1.1863448e-05 0.0000000e+00 
0.0000000e+00 3.0980238e-05 0.0000000e+00 
0.0000000e+00 6.5475651e-05 0.0000000e+00 
0.0000000e+00 3.0932912e-05 0.0000000e+00 
0.0000000e+00 -1.8886765e-04 0.0000000e+00 
0.0000000e+00 -6.4856012e-04 0.0000000e+00 
0.0000000e+00 -1.3343191e-03 0.0000000e+00 
0.0000000e+00 -2.2402685e-03 0.0000000e+00 
0.0000000e+00 -3.3539340e-03 0.0000000e+00 
0.0000000e+00 -4.5317262e-03 0.0000000e+00 
0.0000000e+00 -5.2339397e-03 0.0000000e+00 
0.0000000e+00 -4.9439366e-03 0.0000000e+00 
0.0000000e+00 -4.4443980e-03 0.0000000e+00 
0.0000000e+00 -4.3545691e-03 0.0000000e+00 
0.0000000e+00 -4.6265088e-03 0.0000000e+00 
0.0000000e+00 -4.6073114e-03 0.0000000e+00 
0.0000000e+00 -3.5477665e-03 0.0000000e+00 
0.0000000e+00 -2.1053315e-03 0.0000000e+00 
0.0000000e+00 -9.4055728e-04 0.0000000e+00 
0.0000000e+00 -2.4194157e-04 0.0000000e+00 
0.0000000e+00 8.2010592e-05 0.0000000e+00 
0.0000000e+00 1.8720370e-04 0.0000000e+00 
0.0000000e+00 1.7975128e-04 0.0000000e+00 
0.0000000e+00 1.1894442e-04 0.0000000e+00 
0.0000000e+00 4.9894796e-05 0.0000000e+00 
0.0000000e+00 8.9242303e-06 0.0000000e+00 
0.0000000e+00 3.5618855e-06 0.0000000e+00 
0.0000000e+00 1.3814900e-05 0.0000000e+00 
0.0000000e+00 1.6243859e-05 0.0000000e+00 
0.0000000e+00 8.2580973e-06 0.0000000e+00 
0.0000000e+00 7.9431857e-06 0.0000000e+00 
0.0000000e+00 2.3793395e-05 0.0000000e+00 
0.0000000e+00 4.1329804e-05 0.0000000e+00 
0.0000000e+00 3.9738530e-05 0.0000000e+00 
0.0000000e+00 2.0721869e-05 0.0000000e+00 
0.0000000e+00 6.9237371e-06 0.0000000e+00 
0.0000000e+00 1.8533588e-05 0.0000000e+00 
0.0000000e+00 4.8747461e-05 0.0000000e+00 
0.0000000e+00 7.1376853e-05 0.0000000e+00 
0.0000000e+00 6.7631423e-05 0.0000000e+00 
0.0000000e+00 3.8369530e-05 0.0000000e+00 
0.0000000e+00 9.0639714e-06 0.0000000e+00 
0.0000000e+00 3.4014604e-06 0.0000000e+00 
0.0000000e+00 -2.5555035e-05 0.0000000e+00 
0.0000000e+00 -2.0564794e-04 0.0000000e+00 
0.0000000e+00 -6.6739612e-04 0.0000000e+00 
0.0000000e+00 -1.4681879e-03 0.0000000e+00 
0.0000000e+00 -2.5598668e-03 0.0000000e+00 
0.0000000e+00 -3.7777727e-03 0.0000000e+00 
0.0000000e+00 -4.8273336e-03 0.0000000e+00 
0.0000000e+00 -5.1988373e-03 0.0000000e+00 
0.0000000e+00 -4.8250570e-03 0.0000000e+00 
0.0000000e+00 -4.4511924e-03 0.0000000e+00 
0.0000000e+00 -4.4823964e-03 0.0000000e+00 
0.0000000e+00 -4.6471581e-03 0.0000000e+00 
0.0000000e+00 -4.2671929e-03 0.0000000e+00 
0.0000000e+00 -3.0607656e-03 0.0000000e+00 
0.0000000e+00 -1.7554899e-03 0.0000000e+00 
0.0000000e+00 -7.7592244e-04 0.0000000e+00 
0.0000000e+00 -1.7396141e-04 0.0000000e+00 
0.0000000e+00 1.2580375e-04 0.0000000e+00 
0.0000000e+00 2.2140204e-04 0.0000000e+00 
0.0000000e+00 1.9651197e-04 0.0000000e+00 
0.0000000e+00 1.2679859e-04 0.0000000e+00 
0.0000000e+00 6.7383175e-05 0.0000000e+00 
0.0000000e+00 3.7715887e-05 0.0000000e+00 
0.0000000e+00 2.4547839e-05 0.0000000e+00 
0.0000000e+00 1.1298776e-05 0.0000000e+00 
0.0000000e+00 -1.5244270e-06 0.0000000e+00 
0.0000000e+00 -5.7498628e-06 0.0000000e+00 
0.0000000e+00 -1.9111665e-06 0.0000000e+00 
0.0000000e+00 1.1341593e-06 0.0000000e+00 
0.0000000e+00 -1.7469835e-06 0.0000000e+00 
0.0000000e+00 -7.7585064e-06 0.0000000e+00 
0.0000000e+00 -1.0798375e-05 0.0000000e+00 
0.0000000e+00 -8.4525454e-06 0.0000000e+00 
0.0000000e+00 -3.8618605e-06 0.0000000e+00 
0.0000000e+00 -8.4677964e-07 0.0000000e+00 
0.0000000e+00 9.9629887e-08 0.0000000e+00 
0.0000000e+00 4.0890751e-07 0.0000000e+00 
0.0000000e+00 9.6027486e-07 0.0000000e+00 
0.0000000e+00 1.6339685e-06 0.0000000e+00 
0.0000000e+00 1.9465278e-06 0.0000000e+00 
1.9852845e-05 2.4459679e-05 2.6394204e-05 
-2.9982697e-05 -3.2591165e-06 1.1687455e-05 
-1.2037733e-05 1.2155062e-05 3.5297421e-06 
8.8999213e-06 -2.6750445e-06 1.5714307e-06 
0.0000000e+00 -2.4604567e-05 0.0000000e+00 
0.0000000e+00 0.0000000e+00 0.0000000e+00 
0.0000000e+00 0.0000000e+00 0.0000000e+00 
0.0000000e+00 0.0000000e+00 0.0000000e+00 
0.0000000e+00 0.0000000e+00 0.0000000e+00 
0.0000000e+00 0.0000000e+00 0.0000000e+00 
0.0000000e+00 0.0000000e+00 0.0000000e+00 
0.0000000e+00 0.0000000e+00 0.0000000e+00 
0.0000000e+00 0.0000000e+00 0.0000000e+00 
0.0000000e+00 0.0000000e+00 0.0000000e+00 
0.0000000e+00 0.0000000e+00 0.0000000e+00 
0.0000000e+00 0.0000000e+00 0.0000000e+00 
0.0000000e+00 0.0000000e+00 0.0000000e+00 
0.0000000e+00 0.0000000e+00 0.0000000e+00 
0.0000000e+00 0.0000000e+00 0.0000000e+00 
0.0000000e+00 0.0000000e+00 0.0000000e+00 
0.0000000e+00 0.0000000e+00 0.0000000e+00 
0.0000000e+00 0.0000000e+00 0.0000000e+00 
0.0000000e+00 0.0000000e+00 0.0000000e+00 
0.0000000e+00 0.0000000e+00 0.0000000e+00 
0.0000000e+00 0.0000000e+00 0.0000000e+00 
0.0000000e+00 0.0000000e+00 0.0000000e+00 
0.0000000e+00 0.0000000e+00 0.0000000e+00 
0.0000000e+00 0.0000000e+00 0.0000000e+00 
0.0000000e+00 0.0000000e+00 0.0000000e+00 
0.0000000e+00 0.0000000e+00 0.0000000e+00 
0.0000000e+00 0.0000000e+00 0.0000000e+00 
0.0000000e+00 0.0000000e+00 0.0000000e+00 
0.0000000e+00 0.0000000e+00 0.0000000e+00 
0.0000000e+00 0.0000000e+00 0.0000000e+00 
0.0000000e+00 0.0000000e+00 0.0000000e+00 
0.0000000e+00 0.0000000e+00 0.0000000e+00 
0.0000000e+00 0.0000000e+00 0.0000000e+00 
0.0000000e+00 0.0000000e+00 0.0000000e+00 
0.0000000e+00 0.0000000e+00 0.0000000e+00 
0.0000000e+00 0.0000000e+00 0.0000000e+00 
0.0000000e+00 0.0000000e+00 0.0000000e+00 
0.0000000e+00 0.0000000e+00 0.0000000e+00 
0.0000000e+00 0.0000000e+00 0.0000000e+00 
0.0000000e+00 0.0000000e+00 0.0000000e+00 
0.0000000e+00 0.0000000e+00 0.0000000e+00 
0.0000000e+00 0.0000000e+00 0.0000000e+00 
0.0000000e+00 0.0000000e+00 0.0000000e+00 
0.0000000e+00 0.0000000e+00 0.0000000e+00 
0.0000000e+00 0.0000000e+00 0.0000000e+00 
0.0000000e+00 0.0000000e+00 0.0000000e+00 
0.0000000e+00 0.0000000e+00 0.0000000e+00 
0.0000000e+00 0.0000000e+00 0.0000000e+00 
0.0000000e+00 0.0000000e+00 0.0000000e+00 
0.0000000e+00 0.0000000e+00 0.0000000e+00 
0.0000000e+00 0.0000000e+00 0.0000000e+00 
0.0000000e+00 0.0000000e+00 0.0000000e+00 
0.0000000e+00 0.0000000e+00 0.0000000e+00 
0.0000000e+00 0.0000000e+00 0.0000000e+00 
0.0000000e+00 0.0000000e+00 0.0000000e+00 
0.0000000e+00 0.0000000e+00 0.0000000e+00 
0.0000000e+00 0.0000000e+00 0.0000000e+00 
0.0000000e+00 0.0000000e+00 0.0000000e+00 
0.0000000e+00 0.0000000e+00 0.0000000e+00 
0.0000000e+00 0.0000000e+00 0.0000000e+00 
0.0000000e+00 0.0000000e+00 0.0000000e+00 
0.0000000e+00 0.0000000e+00 0.0000000e+00 
0.0000000e+00 0.0000000e+00 0.0000000e+00 
0.0000000e+00 0.0000000e+00 0.0000000e+00 
0.0000000e+00 0.0000000e+00 0.0000000e+00 
0.0000000e+00 0.0000000e+00 0.0000000e+00 
0.0000000e+00 0.0000000e+00 0.0000000e+00 
0.0000000e+00 0.0000000e+00 0.0000000e+00 
0.0000000e+00 0.0000000e+00 0.0000000e+00 
0.0000000e+00 0.0000000e+00 0.0000000e+00 
0.0000000e+00 0.0000000e+00 0.0000000e+00 
0.0000000e+00 0.0000000e+00 0.0000000e+00 
0.0000000e+00 0.0000000e+00 0.0000000e+00 
0.0000000e+00 0.0000000e+00 0.0000000e+00 
0.0000000e+00 0.0000000e+00 0.0000000e+00 
0.0000000e+00 0.0000000e+00 0.0000000e+00 
0.0000000e+00 0.0000000e+00 0.0000000e+00 
0.0000000e+00 0.0000000e+00 0.0000000e+00 
0.0000000e+00 0.0000000e+00 0.0000000e+00 
0.0000000e+00 0.0000000e+00 0.0000000e+00 
0.0000000e+00 0.0000000e+00 0.0000000e+00 
0.0000000e+00 0.0000000e+00 0.0000000e+00 
0.0000000e+00 0.0000000e+00 0.0000000e+00 
0.0000000e+00 0.0000000e+00 0.0000000e+00 
0.0000000e+00 0.0000000e+00 0.0000000e+00 
0.0000000e+00 0.0000000e+00 0.0000000e+00 
0.0000000e+00 0.0000000e+00 0.0000000e+00 
0.0000000e+00 0.0000000e+00 0.0000000e+00 
0.0000000e+00 0.0000000e+00 0.0000000e+00 
0.0000000e+00 0.0000000e+00 0.0000000e+00 
0.0000000e+00 0.0000000e+00 0.0000000e+00 
0.0000000e+00 0.0000000e+00 0.0000000e+00 
0.0000000e+00 0.0000000e+00 0.0000000e+00 
0.0000000e+00 0.0000000e+00 0.0000000e+00 
0.0000000e+00 0.0000000e+00 0.0000000e+00 
0.0000000e+00 0.0000000e+00 0.0000000e+00 
0.0000000e+00 0.0000000e+00 0.0000000e+00 
0.0000000e+00 0.0000000e+00 0.0000000e+00 
0.0000000e+00 0.0000000e+00 0.0000000e+00 
0.0000000e+00 0.0000000e+00 0.0000000e+00 
0.0000000e+00 0.0000000e+00 0.0000000e+00 
0.0000000e+00 0.0000000e+00 0.0000000e+00 
0.0000000e+00 0.0000000e+00 0.0000000e+00 
0.0000000e+00 0.0000000e+00 0.0000000e+00 
0.0000000e+00 0.0000000e+00 0.0000000e+00 
0.0000000e+00 0.0000000e+00 0.0000000e+00 
0.0000000e+00 0.0000000e+00 0.0000000e+00 
-9.7719078e-07 6.2438556e-07 5.1454475e-07 
-2.5656154e-06 3.2535149e-06 5.4955794e-06 
-8.9189450e-07 4.6819650e-06 5.0826225e-06 
1.4341102e-06 6.1619430e-06 -4.2730196e-07 
-3.5258594e-07 -3.0170372e-06 1.4409144e-06 
3.0041003e-06 7.6351980e-06 -2.5420777e-06 
5.4542847e-06 -9.1652197e-07 -4.7081826e-06 
5.9435324e-06 -4.8807251e-06 -2.9080077e-06 
7.6924325e-06 9.6504200e-06 -1.0136327e-05 
1.7761518e-05 -2.6415394e-06 -1.6739898e-05 
2.2240114e-05 -1.0043563e-05 -1.9159734e-05 
3.8030386e-05 -2.9625239e-06 -1.8528883e-05 
4.5315141e-05 -1.4634204e-05 -1.3563557e-05 
4.4146505e-05 -1.7825800e-05 -5.8841979e-06 
4.2122549e-05 -1.6522610e-05 5.8244536e-06 
3.6030367e-05 -1.5504163e-05 8.5393576e-06 
3.0658339e-05 -1.1789643e-05 2.0044297e-05 
2.0170848e-05 -5.9686877e-06 1.9886555e-05 
1.3266574e-05 -2.8128691e-06 1.7961009e-05 
5.2663336e-06 -8.5476000e-07 1.5827840e-05 
2.8151512e-06 1.2001382e-07 9.1711372e-06 
5.3246008e-06 1.3392937e-06 2.8356756e-06 
2.6552486e-06 3.1737911e-06 4.5336398e-07 
2.4060412e-06 4.2683623e-06 -1.5077115e-06 
5.3418080e-06 4.2143199e-07 -2.7065378e-06 
5.2813762e-06 3.2857820e-06 -9.8407895e-08 
5.4056995e-06 5.6146359e-06 -3.2768439e-06 
7.2133403e-06 -1.5619852e-06 -9.1975053e-06 
9.1123075e-06 2.1266512e-06 -1.3250987e-05 
2.4323665e-05 -1.3762174e-06 -1.9155585e-05 
2.5031381e-05 -1.0816903e-05 -1.6020798e-05 
3.4457455e-05 -5.0691392e-06 -1.6334945e-05 
3.9672759e-05 -1.3342564e-05 -8.0007812e-06 
4.1419877e-05 -1.5227963e-05 1.8210745e-06 
4.2167023e-05 -1.3965343e-05 1.1574448e-05 
3.6262507e-05 -1.4149306e-05 2.1975080e-05 
2.7898928e-05 -9.8530718e-06 2.4371129e-05 
1.9238722e-05 -5.8022683e-06 2.1914702e-05 
1.2853733e-05 -5.4665179e-06 1.7401107e-05 
7.2902940e-06 -1.6243449e-06 1.0535478e-05 
2.4499195e-06 -2.5207819e-07 5.9586155e-06 
5.4327124e-08 -5.8591041e-07 1.3272310e-06 
-3.6251416e-07 -1.1622941e-06 -1.5245098e-06 
-7.4607175e-07 6.9287427e-07 -1.8581915e-06 
-8.0649613e-07 1.4078464e-09 -1.8979023e-06 
-1.8827919e-07 -5.1400423e-07 -1.5131795e-06 
2.4961986e-07 4.8851845e-08 -9.4276231e-07 
-2.7114129e-07 1.0335438e-06 -2.7861682e-07 
-6.2409856e-07 2.8670414e-07 3.0725568e-07 
0.0000000e+00 2.8718987e-05 0.0000000e+00 
0.0000000e+00 2.5924397e-05 0.0000000e+00 
0.0000000e+00 2.6474605e-05 0.0000000e+00 
0.0000000e+00 3.0368088e-05 0.0000000e+00 
0.0000000e+00 1.1016554e-05 0.0000000e+00 
0.0000000e+00 1.5921598e-05 0.0000000e+00 
0.0000000e+00 3.1248164e-05 0.0000000e+00 
0.0000000e+00 5.1846414e-06 0.0000000e+00 
0.0000000e+00 2.4904790e-05 0.0000000e+00 
0.0000000e+00 2.7952472e-05 0.0000000e+00 
0.0000000e+00 -3.5764155e-05 0.0000000e+00 
0.0000000e+00 -1.4007268e-04 0.0000000e+00 
0.0000000e+00 -3.6209862e-04 0.0000000e+00 
0.0000000e+00 -5.4492912e-04 0.0000000e+00 
0.0000000e+00 -5.4884562e-04 0.0000000e+00 
0.0000000e+00 -5.0664757e-04 0.0000000e+00 
0.0000000e+00 -3.3451160e-04 0.0000000e+00 
0.0000000e+00 -1.2539758e-04 0.0000000e+00 
0.0000000e+00 -9.0835074e-06 0.0000000e+00 
0.0000000e+00 3.2831333e-05 0.0000000e+00 
0.0000000e+00 3.8814236e-05 0.0000000e+00 
0.0000000e+00 1.6350494e-05 0.0000000e+00 
0.0000000e+00 -2.2865661e-06 0.0000000e+00 
0.0000000e+00 1.7235065e-05 0.0000000e+00 
0.0000000e+00 -2.0790099e-05 0.0000000e+00 
0.0000000e+00 -3.3272059e-05 0.0000000e+00 
0.0000000e+00 1.0115335e-05 0.0000000e+00 
0.0000000e+00 -5.2684240e-06 0.0000000e+00 
0.0000000e+00 -2.4367773e-05 0.0000000e+00 
0.0000000e+00 4.0438990e-05 0.0000000e+00 
0.0000000e+00 -6.3215186e-05 0.0000000e+00 
0.0000000e+00 -2.1910534e-04 0.0000000e+00 
0.0000000e+00 -3.4382069e-04 0.0000000e+00 
0.0000000e+00 -5.7757739e-04 0.0000000e+00 
0.0000000e+00 -5.3596235e-04 0.0000000e+00 
0.0000000e+00 -4.8788314e-04 0.0000000e+00 
0.0000000e+00 -3.4398888e-04 0.0000000e+00 
0.0000000e+00 -1.3226425e-04 0.0000000e+00 
0.0000000e+00 -1.0418742e-06 0.0000000e+00 
0.0000000e+00 1.3591063e-05 0.0000000e+00 
0.0000000e+00 1.1336542e-05 0.0000000e+00 
0.0000000e+00 4.9268842e-06 0.0000000e+00 
0.0000000e+00 -1.1922743e-06 0.0000000e+00 
0.0000000e+00 -1.0465417e-06 0.0000000e+00 
0.0000000e+00 1.2522514e-06 0.0000000e+00 
0.0000000e+00 1.2055723e-06 0.0000000e+00 
0.0000000e+00 1.5727069e-06 0.0000000e+00 
0.0000000e+00 -1.6377527e-06 0.0000000e+00 
0.0000000e+00 -1.7934788e-06 0.0000000e+00 
-1.4364905e-06 1.4111322e-06 2.3303535e-06 
-1.1582636e-06 7.5251514e-06 7.6277647e-06 
-2.2584125e-06 6.6224979e-06 6.2019162e-06 
-1.2296093e-06 5.1048114e-06 1.0015438e-06 
-5.2222464e-07 -8.9343280e-07 5.4290319e-07 
-4.9061339e-07 -7.8255300e-07 2.3030522e-07 
-5.1699868e-07 -8.8939419e-07 2.2516757e-07 
-5.1675750e-07 -5.2392056e-07 4.9623702e-07 
-6.5756518e-07 1.5474297e-06 1.6452977e-06 
-3.8755218e-07 -1.4711460e-06 1.8053743e-06 
1.9026938e-06 -1.6340560e-06 -2.1205817e-06 
3.6078976e-07 1.0188617e-05 1.2583654e-05 
0.0000000e+00 2.7379296e-05 0.0000000e+00 
0.0000000e+00 4.2322914e-05 0.0000000e+00 
0.0000000e+00 5.2414274e-05 0.0000000e+00 
0.0000000e+00 3.4296856e-05 0.0000000e+00 
0.0000000e+00 2.4357803e-05 0.0000000e+00 
0.0000000e+00 4.1847350e-05 0.0000000e+00 
0.0000000e+00 3.0345502e-05 0.0000000e+00 
0.0000000e+00 2.7128310e-05 0.0000000e+00 
0.0000000e+00 6.3367203e-05 0.0000000e+00 
0.0000000e+00 3.7572419e-05 0.0000000e+00 
0.0000000e+00 -1.2714376e-04 0.0000000e+00 
0.0000000e+00 -3.0460750e-04 0.0000000e+00 
0.0000000e+00 -8.8963844e-04 0.0000000e+00 
0.0000000e+00 -1.1685943e-03 0.0000000e+00 