# vtk DataFile Version 4.0
vtk output
ASCII
DATASET UNSTRUCTURED_GRID
POINTS 1919 float
0.0000000e+00 0.0000000e+00 0.0000000e+00 
0.0000000e+00 0.0000000e+00 5.0000000e+01 
5.0000000e+00 0.0000000e+00 0.0000000e+00 
5.0000000e+00 0.0000000e+00 5.0000000e+01 
5.0000000e+00 1.0000000e+00 0.0000000e+00 
5.0000000e+00 1.0000000e+00 5.0000000e+01 
0.0000000e+00 1.0000000e+00 0.0000000e+00 
0.0000000e+00 1.0000000e+00 5.0000000e+01 
5.0000000e+00 2.0000000e+00 0.0000000e+00 
5.0000000e+00 2.0000000e+00 5.0000000e+01 
3.0000000e+00 2.0000000e+00 0.0000000e+00 
3.0000000e+00 2.0000000e+00 5.0000000e+01 
0.0000000e+00 2.0000000e+00 0.0000000e+00 
0.0000000e+00 2.0000000e+00 5.0000000e+01 
1.5000000e+00 3.0000000e+00 0.0000000e+00 
1.5000000e+00 3.0000000e+00 5.0000000e+01 
7.5000000e-01 3.0000000e+00 0.0000000e+00 
7.5000000e-01 3.0000000e+00 5.0000000e+01 
0.0000000e+00 3.0000000e+00 0.0000000e+00 
0.0000000e+00 3.0000000e+00 5.0000000e+01 
7.5000000e-01 3.0000000e+00 5.0000000e-01 
7.5000000e-01 3.0000000e+00 1.0000000e+00 
7.5000000e-01 3.0000000e+00 1.5000000e+00 
7.5000000e-01 3.0000000e+00 2.0000000e+00 
7.5000000e-01 3.0000000e+00 2.5000000e+00 
7.5000000e-01 3.0000000e+00 3.0000000e+00 
7.5000000e-01 3.0000000e+00 3.5000000e+00 
7.5000000e-01 3.0000000e+00 4.0000000e+00 
7.5000000e-01 3.0000000e+00 4.5000000e+00 
7.5000000e-01 3.0000000e+00 5.0000000e+00 
7.5000000e-01 3.0000000e+00 5.5000000e+00 
7.5000000e-01 3.0000000e+00 6.0000000e+00 
7.5000000e-01 3.0000000e+00 6.5000000e+00 
7.5000000e-01 3.0000000e+00 7.0000000e+00 
7.5000000e-01 3.0000000e+00 7.5000000e+00 
7.5000000e-01 3.0000000e+00 8.0000000e+00 
7.5000000e-01 3.0000000e+00 8.5000000e+00 
7.5000000e-01 3.0000000e+00 9.0000000e+00 
7.5000000e-01 3.0000000e+00 9.5000000e+00 
7.5000000e-01 3.0000000e+00 1.0000000e+01 
7.5000000e-01 3.0000000e+00 1.0500000e+01 
7.5000000e-01 3.0000000e+00 1.1000000e+01 
7.5000000e-01 3.0000000e+00 1.1500000e+01 
7.5000000e-01 3.0000000e+00 1.2000000e+01 
7.5000000e-01 3.0000000e+00 1.2500000e+01 
7.5000000e-01 3.0000000e+00 1.3000000e+01 
7.5000000e-01 3.0000000e+00 1.3500000e+01 
7.5000000e-01 3.0000000e+00 1.4000000e+01 
7.5000000e-01 3.0000000e+00 1.4500000e+01 
7.5000000e-01 3.0000000e+00 1.5000000e+01 
7.5000000e-01 3.0000000e+00 1.5500000e+01 
7.5000000e-01 3.0000000e+00 1.6000000e+01 
7.5000000e-01 3.0000000e+00 1.6500000e+01 
7.5000000e-01 3.0000000e+00 1.7000000e+01 
7.5000000e-01 3.0000000e+00 1.7500000e+01 
7.5000000e-01 3.0000000e+00 1.8000000e+01 
7.5000000e-01 3.0000000e+00 1.8500000e+01 
7.5000000e-01 3.0000000e+00 1.9000000e+01 
7.5000000e-01 3.0000000e+00 1.9500000e+01 
7.5000000e-01 3.0000000e+00 2.0000000e+01 
7.5000000e-01 3.0000000e+00 2.0500000e+01 
7.5000000e-01 3.0000000e+00 2.1000000e+01 
7.5000000e-01 3.0000000e+00 2.1500000e+01 
7.5000000e-01 3.0000000e+00 2.2000000e+01 
7.5000000e-01 3.0000000e+00 2.2500000e+01 
7.5000000e-01 3.0000000e+00 2.3000000e+01 
7.5000000e-01 3.0000000e+00 2.3500000e+01 
7.5000000e-01 3.0000000e+00 2.4000000e+01 
7.5000000e-01 3.0000000e+00 2.4500000e+01 
7.5000000e-01 3.0000000e+00 2.5000000e+01 
7.5000000e-01 3.0000000e+00 2.5500000e+01 
7.5000000e-01 3.0000000e+00 2.6000000e+01 
7.5000000e-01 3.0000000e+00 2.6500000e+01 
7.5000000e-01 3.0000000e+00 2.7000000e+01 
7.5000000e-01 3.0000000e+00 2.7500000e+01 
7.5000000e-01 3.0000000e+00 2.8000000e+01 
7.5000000e-01 3.0000000e+00 2.8500000e+01 
7.5000000e-01 3.0000000e+00 2.9000000e+01 
7.5000000e-01 3.0000000e+00 2.9500000e+01 
7.5000000e-01 3.0000000e+00 3.0000000e+01 
7.5000000e-01 3.0000000e+00 3.0500000e+01 
7.5000000e-01 3.0000000e+00 3.1000000e+01 
7.5000000e-01 3.0000000e+00 3.1500000e+01 
7.5000000e-01 3.0000000e+00 3.2000000e+01 
7.5000000e-01 3.0000000e+00 3.2500000e+01 
7.5000000e-01 3.0000000e+00 3.3000000e+01 
7.5000000e-01 3.0000000e+00 3.3500000e+01 
7.5000000e-01 3.0000000e+00 3.4000000e+01 
7.5000000e-01 3.0000000e+00 3.4500000e+01 
7.5000000e-01 3.0000000e+00 3.5000000e+01 
7.5000000e-01 3.0000000e+00 3.5500000e+01 
7.5000000e-01 3.0000000e+00 3.6000000e+01 
7.5000000e-01 3.0000000e+00 3.6500000e+01 
7.5000000e-01 3.0000000e+00 3.7000000e+01 
7.5000000e-01 3.0000000e+00 3.7500000e+01 
7.5000000e-01 3.0000000e+00 3.8000000e+01 
7.5000000e-01 3.0000000e+00 3.8500000e+01 
7.5000000e-01 3.0000000e+00 3.9000000e+01 
7.5000000e-01 3.0000000e+00 3.9500000e+01 
7.5000000e-01 3.0000000e+00 4.0000000e+01 
7.5000000e-01 3.0000000e+00 4.0500000e+01 
7.5000000e-01 3.0000000e+00 4.1000000e+01 
7.5000000e-01 3.0000000e+00 4.1500000e+01 
7.5000000e-01 3.0000000e+00 4.2000000e+01 
7.5000000e-01 3.0000000e+00 4.2500000e+01 
7.5000000e-01 3.0000000e+00 4.3000000e+01 
7.5000000e-01 3.0000000e+00 4.3500000e+01 
7.5000000e-01 3.0000000e+00 4.4000000e+01 
7.5000000e-01 3.0000000e+00 4.4500000e+01 
7.5000000e-01 3.0000000e+00 4.5000000e+01 
7.5000000e-01 3.0000000e+00 4.5500000e+01 
7.5000000e-01 3.0000000e+00 4.6000000e+01 
7.5000000e-01 3.0000000e+00 4.6500000e+01 
7.5000000e-01 3.0000000e+00 4.7000000e+01 
7.5000000e-01 3.0000000e+00 4.7500000e+01 
7.5000000e-01 3.0000000e+00 4.8000000e+01 
7.5000000e-01 3.0000000e+00 4.8500000e+01 
7.5000000e-01 3.0000000e+00 4.9000000e+01 
7.5000000e-01 3.0000000e+00 4.9500000e+01 
7.5000000e-01 3.0250001e+00 0.0000000e+00 
7.5000000e-01 3.0250001e+00 5.0000000e-01 
7.5000000e-01 3.0250001e+00 1.0000000e+00 
7.5000000e-01 3.0250001e+00 1.5000000e+00 
7.5000000e-01 3.0250001e+00 2.0000000e+00 
7.5000000e-01 3.0250001e+00 2.5000000e+00 
7.5000000e-01 3.0250001e+00 3.0000000e+00 
7.5000000e-01 3.0250001e+00 3.5000000e+00 
7.5000000e-01 3.0250001e+00 4.0000000e+00 
7.5000000e-01 3.0250001e+00 4.5000000e+00 
7.5000000e-01 3.0250001e+00 5.0000000e+00 
7.5000000e-01 3.0250001e+00 5.5000000e+00 
7.5000000e-01 3.0250001e+00 6.0000000e+00 
7.5000000e-01 3.0250001e+00 6.5000000e+00 
7.5000000e-01 3.0250001e+00 7.0000000e+00 
7.5000000e-01 3.0250001e+00 7.5000000e+00 
7.5000000e-01 3.0250001e+00 8.0000000e+00 
7.5000000e-01 3.0250001e+00 8.5000000e+00 
7.5000000e-01 3.0250001e+00 9.0000000e+00 
7.5000000e-01 3.0250001e+00 9.5000000e+00 
7.5000000e-01 3.0250001e+00 1.0000000e+01 
7.5000000e-01 3.0250001e+00 1.0500000e+01 
7.5000000e-01 3.0250001e+00 1.1000000e+01 
7.5000000e-01 3.0250001e+00 1.1500000e+01 
7.5000000e-01 3.0250001e+00 1.2000000e+01 
7.5000000e-01 3.0250001e+00 1.2500000e+01 
7.5000000e-01 3.0250001e+00 1.3000000e+01 
7.5000000e-01 3.0250001e+00 1.3500000e+01 
7.5000000e-01 3.0250001e+00 1.4000000e+01 
7.5000000e-01 3.0250001e+00 1.4500000e+01 
7.5000000e-01 3.0250001e+00 1.5000000e+01 
7.5000000e-01 3.0250001e+00 1.5500000e+01 
7.5000000e-01 3.0250001e+00 1.6000000e+01 
7.5000000e-01 3.0250001e+00 1.6500000e+01 
7.5000000e-01 3.0250001e+00 1.7000000e+01 
7.5000000e-01 3.0250001e+00 1.7500000e+01 
7.5000000e-01 3.0250001e+00 1.8000000e+01 
7.5000000e-01 3.0250001e+00 1.8500000e+01 
7.5000000e-01 3.0250001e+00 1.9000000e+01 
7.5000000e-01 3.0250001e+00 1.9500000e+01 
7.5000000e-01 3.0250001e+00 2.0000000e+01 
7.5000000e-01 3.0250001e+00 2.0500000e+01 
7.5000000e-01 3.0250001e+00 2.1000000e+01 
7.5000000e-01 3.0250001e+00 2.1500000e+01 
7.5000000e-01 3.0250001e+00 2.2000000e+01 
7.5000000e-01 3.0250001e+00 2.2500000e+01 
7.5000000e-01 3.0250001e+00 2.3000000e+01 
7.5000000e-01 3.0250001e+00 2.3500000e+01 
7.5000000e-01 3.0250001e+00 2.4000000e+01 
7.5000000e-01 3.0250001e+00 2.4500000e+01 
7.5000000e-01 3.0250001e+00 2.5000000e+01 
7.5000000e-01 3.0250001e+00 2.5500000e+01 
7.5000000e-01 3.0250001e+00 2.6000000e+01 
7.5000000e-01 3.0250001e+00 2.6500000e+01 
7.5000000e-01 3.0250001e+00 2.7000000e+01 
7.5000000e-01 3.0250001e+00 2.7500000e+01 
7.5000000e-01 3.0250001e+00 2.8000000e+01 
7.5000000e-01 3.0250001e+00 2.8500000e+01 
7.5000000e-01 3.0250001e+00 2.9000000e+01 
7.5000000e-01 3.0250001e+00 2.9500000e+01 
7.5000000e-01 3.0250001e+00 3.0000000e+01 
7.5000000e-01 3.0250001e+00 3.0500000e+01 
7.5000000e-01 3.0250001e+00 3.1000000e+01 
7.5000000e-01 3.0250001e+00 3.1500000e+01 
7.5000000e-01 3.0250001e+00 3.2000000e+01 
7.5000000e-01 3.0250001e+00 3.2500000e+01 
7.5000000e-01 3.0250001e+00 3.3000000e+01 
7.5000000e-01 3.0250001e+00 3.3500000e+01 
7.5000000e-01 3.0250001e+00 3.4000000e+01 
7.5000000e-01 3.0250001e+00 3.4500000e+01 
7.5000000e-01 3.0250001e+00 3.5000000e+01 
7.5000000e-01 3.0250001e+00 3.5500000e+01 
7.5000000e-01 3.0250001e+00 3.6000000e+01 
7.5000000e-01 3.0250001e+00 3.6500000e+01 
7.5000000e-01 3.0250001e+00 3.7000000e+01 
7.5000000e-01 3.0250001e+00 3.7500000e+01 
7.5000000e-01 3.0250001e+00 3.8000000e+01 
7.5000000e-01 3.0250001e+00 3.8500000e+01 
7.5000000e-01 3.0250001e+00 3.9000000e+01 
7.5000000e-01 3.0250001e+00 3.9500000e+01 
7.5000000e-01 3.0250001e+00 4.0000000e+01 
7.5000000e-01 3.0250001e+00 4.0500000e+01 
7.5000000e-01 3.0250001e+00 4.1000000e+01 
7.5000000e-01 3.0250001e+00 4.1500000e+01 
7.5000000e-01 3.0250001e+00 4.2000000e+01 
7.5000000e-01 3.0250001e+00 4.2500000e+01 
7.5000000e-01 3.0250001e+00 4.3000000e+01 
7.5000000e-01 3.0250001e+00 4.3500000e+01 
7.5000000e-01 3.0250001e+00 4.4000000e+01 
7.5000000e-01 3.0250001e+00 4.4500000e+01 
7.5000000e-01 3.0250001e+00 4.5000000e+01 
7.5000000e-01 3.0250001e+00 4.5500000e+01 
7.5000000e-01 3.0250001e+00 4.6000000e+01 
7.5000000e-01 3.0250001e+00 4.6500000e+01 
7.5000000e-01 3.0250001e+00 4.7000000e+01 
7.5000000e-01 3.0250001e+00 4.7500000e+01 
7.5000000e-01 3.0250001e+00 4.8000000e+01 
7.5000000e-01 3.0250001e+00 4.8500000e+01 
7.5000000e-01 3.0250001e+00 4.9000000e+01 
7.5000000e-01 3.0250001e+00 4.9500000e+01 
7.5000000e-01 3.0250001e+00 5.0000000e+01 
1.5000000e+00 3.0000000e+00 2.5000000e+01 
3.0000000e+00 2.0000000e+00 2.5000000e+01 
4.0000000e+00 2.0000000e+00 2.5000000e+01 
5.0000000e+00 2.0000000e+00 2.5000000e+01 
0.0000000e+00 3.0000000e+00 2.5000000e+01 
0.0000000e+00 0.0000000e+00 1.0000000e+00 
0.0000000e+00 0.0000000e+00 2.0000000e+00 
0.0000000e+00 0.0000000e+00 3.0000000e+00 
0.0000000e+00 0.0000000e+00 4.0000000e+00 
0.0000000e+00 0.0000000e+00 5.0000000e+00 
[...]
POINT_DATA 1919
FIELD FieldData 3
DISPLACEMENT 3 1919  float
0.0000000e+00 0.0000000e+00 0.0000000e+00 
0.0000000e+00 0.0000000e+00 0.0000000e+00 
0.0000000e+00 0.0000000e+00 0.0000000e+00 
0.0000000e+00 0.0000000e+00 0.0000000e+00 
-1.1745639e-06 6.9194562e-06 1.0299304e-06 
-5.0651210e-13 -6.2165750e-12 -5.9384707e-13 
0.0000000e+00 4.1341285e-05 0.0000000e+00 
0.0000000e+00 -5.4012659e-11 0.0000000e+00 
-2.2796389e-06 3.8509647e-06 1.2390201e-07 
4.0975049e-13 -5.1054039e-12 3.0585826e-13 
-1.3334044e-06 -6.1429973e-06 -1.0655742e-05 
-2.4115566e-12 -3.5330964e-11 -7.1569348e-12 
0.0000000e+00 5.2179017e-05 0.0000000e+00 
0.0000000e+00 8.2216400e-10 0.0000000e+00 
3.1390480e-06 1.8393202e-05 2.0738056e-05 
-1.2371885e-10 1.0321488e-09 -9.8518858e-12 
-8.2951474e-06 5.4713390e-05 1.8682002e-05 
-1.0658179e-11 -8.8349434e-09 1.8844659e-10 
0.0000000e+00 -3.8464186e-05 0.0000000e+00 
0.0000000e+00 5.6755960e-09 0.0000000e+00 
2.4765475e-06 5.9420639e-05 -1.6052314e-05 
3.6046576e-06 7.9177458e-05 -2.2861175e-05 
1.2650346e-05 1.0370952e-04 -1.1536124e-05 
1.1466570e-05 1.0010134e-04 3.9838906e-05 
2.1659046e-06 2.9792081e-05 9.8265140e-05 
-1.9569203e-05 -1.2861330e-04 1.2461397e-04 
-7.3832191e-05 -3.7684804e-04 1.5885693e-04 
-8.1227518e-05 -7.3074159e-04 1.6634636e-04 
-1.1429354e-04 -1.2677435e-03 2.6676769e-04 
-1.3515179e-04 -2.0942308e-03 1.4900985e-04 
-2.6696359e-04 -3.2605743e-03 2.4389382e-04 
-2.8260029e-04 -4.5862212e-03 6.5340893e-05 
-4.3808058e-04 -5.5021783e-03 -2.0934418e-05 
-4.0300091e-04 -5.2667102e-03 -1.2520782e-04 
-3.2732749e-04 -4.6125948e-03 -2.0080422e-04 
-2.9430632e-04 -4.2570862e-03 -1.9292126e-04 
-2.6767064e-04 -4.4124913e-03 -1.5737637e-04 
-2.4207099e-04 -4.4472860e-03 -1.8163153e-04 
-1.8964705e-04 -3.5802801e-03 -3.2198415e-04 
-1.1566316e-04 -2.2336736e-03 -1.7065596e-04 
-4.4067797e-06 -9.9747698e-04 -1.7612100e-04 
4.4701264e-06 -1.4485815e-04 -3.4262059e-05 
4.5046334e-05 2.5703586e-04 2.5035983e-05 
2.5407366e-05 3.2864467e-04 2.8268259e-05 
5.1201587e-06 2.4185899e-04 2.3111312e-05 
4.2179709e-06 1.2851848e-04 1.5390182e-05 
-7.7440691e-06 4.7963509e-05 -9.6177264e-06 
-1.3603478e-06 2.0288780e-06 -5.1973198e-06 
1.7240507e-06 -1.5470996e-05 5.8170076e-07 
-3.4935354e-06 -1.5470869e-05 -9.1595830e-06 
7.9904902e-07 -9.1840948e-06 1.0839844e-05 
2.5808872e-06 2.5554145e-06 -8.5046560e-07 
4.7220929e-06 1.2523391e-05 -3.4367133e-06 
2.7483143e-06 5.4133220e-06 -2.5521833e-06 
-1.4609236e-07 -1.7950206e-05 -7.1311347e-06 
-2.0136988e-06 -3.8843707e-05 1.8084726e-06 
-3.5961962e-06 -3.2745553e-05 1.5829681e-05 
-2.8823677e-06 8.2595398e-06 -7.3094266e-06 
1.9450738e-06 5.7153429e-05 -1.0109973e-06 
1.0371876e-05 7.1889699e-05 -8.9040486e-06 
1.0374674e-05 4.6709392e-05 -2.9502573e-05 
-7.9063688e-07 1.8694647e-05 3.0100791e-06 
4.0620471e-06 2.4953386e-05 -1.1793812e-05 
1.1549593e-06 6.3731524e-05 2.4503974e-05 
1.5977295e-05 6.8423855e-05 1.3914926e-04 
3.7296340e-06 -6.4401211e-05 1.5014179e-04 
-9.8705059e-05 -3.8621400e-04 1.9784311e-04 
-8.9433001e-05 -8.7096373e-04 1.8800664e-04 
-1.8183974e-04 -1.5073512e-03 2.6399613e-04 
-1.5471148e-04 -2.3443995e-03 1.7330571e-04 
-3.6207828e-04 -3.4554892e-03 2.3360502e-04 
-3.7257245e-04 -4.7090924e-03 -5.4788443e-06 
-4.8394446e-04 -5.5747549e-03 -1.1648722e-04 
-4.2155254e-04 -5.2780784e-03 -1.6610185e-04 
-3.5861053e-04 -4.6277288e-03 -2.0918353e-04 
-3.3130377e-04 -4.2894813e-03 -1.9880559e-04 
-3.0511615e-04 -4.4362908e-03 -1.5017470e-04 
-3.0893052e-04 -4.4225324e-03 -1.9200213e-04 
-2.3508735e-04 -3.4468852e-03 -4.0652030e-04 
-1.2444746e-04 -2.0331135e-03 -2.0014362e-04 
-1.6782564e-05 -8.3118345e-04 -2.0539420e-04 
1.5932081e-05 -5.9437556e-05 -3.0345254e-05 
4.7543574e-05 2.7263325e-04 4.5729466e-05 
2.4571531e-05 3.1641402e-04 3.6030218e-05 
9.0308004e-06 2.2584274e-04 1.8387353e-05 
8.1224744e-06 1.0843448e-04 1.2035381e-05 
-1.0903444e-05 2.3418894e-05 -1.1626799e-05 
-2.9638122e-06 -1.3873796e-05 -3.2503181e-06 
2.6960895e-06 -5.6008730e-06 2.9127934e-06 
1.3479124e-07 1.7347769e-05 -8.6248037e-06 
6.5680968e-07 1.9823183e-05 6.9312605e-06 
-1.1282781e-07 -6.9246192e-07 4.2239926e-06 
-4.7532140e-07 -2.3938406e-05 -6.0731691e-06 
1.3479035e-06 -3.0158673e-05 3.0134970e-06 
-6.0400004e-07 -1.4265911e-05 3.6073354e-07 
2.8712759e-06 9.5513979e-06 1.4442904e-06 
3.2598841e-06 2.3780856e-05 5.6334721e-07 
1.2621899e-06 1.9651776e-05 -1.3387299e-07 
-1.9900986e-07 2.4583348e-06 -6.4954048e-07 
-4.0964611e-07 -1.2722516e-05 4.8299614e-07 
-1.1645952e-07 -1.3528830e-05 -3.3713124e-07 
-1.2720837e-08 -2.6820676e-06 -2.8228035e-07 
1.6894185e-07 7.0164147e-06 3.2919985e-07 
1.3677993e-07 7.1917761e-06 4.2335191e-08 
-9.0733231e-08 4.0919332e-07 -1.0940898e-07 
-1.1160120e-07 -4.3238324e-06 6.7534067e-09 
2.3384874e-08 -2.6256464e-06 -9.7128421e-09 
4.6497792e-08 1.1229951e-06 -1.3567809e-08 
9.9759812e-10 1.8415084e-06 2.5509312e-08 
-1.2473802e-08 1.9876222e-07 6.6848695e-09 
-4.5216244e-09 -7.5867570e-07 -1.2138011e-08 
1.0286141e-09 -3.5801034e-07 -1.1669390e-10 
2.8117599e-09 1.8963607e-07 3.6809968e-09 
1.5069637e-09 2.0356610e-07 -2.7558753e-10 
-9.2879637e-10 -1.4083884e-08 -4.2381065e-10 
3.4446213e-10 -8.5431211e-08 6.9779010e-10 
4.3507023e-10 -1.9643926e-08 -2.9855782e-10 
-5.1006796e-11 2.5516618e-08 -4.6517019e-11 
-1.0032949e-11 9.4494537e-09 -2.0363185e-11 
0.0000000e+00 5.3917098e-05 0.0000000e+00 
0.0000000e+00 5.9783470e-05 0.0000000e+00 
0.0000000e+00 8.0517726e-05 0.0000000e+00 
0.0000000e+00 1.0480088e-04 0.0000000e+00 
0.0000000e+00 9.9839694e-05 0.0000000e+00 
0.0000000e+00 2.8648419e-05 0.0000000e+00 
0.0000000e+00 -1.2891571e-04 0.0000000e+00 
0.0000000e+00 -3.7501781e-04 0.0000000e+00 
0.0000000e+00 -7.2918111e-04 0.0000000e+00 
0.0000000e+00 -1.2684448e-03 0.0000000e+00 
0.0000000e+00 -2.1012432e-03 0.0000000e+00 
0.0000000e+00 -3.2748322e-03 0.0000000e+00 
0.0000000e+00 -4.6131667e-03 0.0000000e+00 
0.0000000e+00 -5.5233659e-03 0.0000000e+00 
0.0000000e+00 -5.2914345e-03 0.0000000e+00 
0.0000000e+00 -4.6307622e-03 0.0000000e+00 
0.0000000e+00 -4.2880974e-03 0.0000000e+00 
0.0000000e+00 -4.4365441e-03 0.0000000e+00 
0.0000000e+00 -4.4781365e-03 0.0000000e+00 
0.0000000e+00 -3.5985408e-03 0.0000000e+00 
0.0000000e+00 -2.2465801e-03 0.0000000e+00 
0.0000000e+00 -1.0050690e-03 0.0000000e+00 
0.0000000e+00 -1.5159472e-04 0.0000000e+00 
0.0000000e+00 2.5600495e-04 0.0000000e+00 
0.0000000e+00 3.3093759e-04 0.0000000e+00 
0.0000000e+00 2.4470128e-04 0.0000000e+00 
0.0000000e+00 1.3052388e-04 0.0000000e+00 
0.0000000e+00 4.8047616e-05 0.0000000e+00 
0.0000000e+00 2.0744721e-06 0.0000000e+00 
0.0000000e+00 -1.5631611e-05 0.0000000e+00 
0.0000000e+00 -1.6167449e-05 0.0000000e+00 
0.0000000e+00 -8.9446312e-06 0.0000000e+00 
0.0000000e+00 3.3029671e-06 0.0000000e+00 
0.0000000e+00 1.2409147e-05 0.0000000e+00 
0.0000000e+00 4.8845077e-06 0.0000000e+00 
0.0000000e+00 -1.8660765e-05 0.0000000e+00 
0.0000000e+00 -3.9036269e-05 0.0000000e+00 
0.0000000e+00 -3.1616077e-05 0.0000000e+00 
0.0000000e+00 9.4538009e-06 0.0000000e+00 
0.0000000e+00 5.6574721e-05 0.0000000e+00 
0.0000000e+00 7.0591006e-05 0.0000000e+00 
0.0000000e+00 4.5993736e-05 0.0000000e+00 
0.0000000e+00 1.8937766e-05 0.0000000e+00 
0.0000000e+00 2.7249345e-05 0.0000000e+00 
0.0000000e+00 6.6244189e-05 0.0000000e+00 
0.0000000e+00 6.7606503e-05 0.0000000e+00 
0.0000000e+00 -6.7426619e-05 0.0000000e+00 
0.0000000e+00 -3.8678033e-04 0.0000000e+00 
0.0000000e+00 -8.6962059e-04 0.0000000e+00 
0.0000000e+00 -1.5060784e-03 0.0000000e+00 
0.0000000e+00 -2.3506412e-03 0.0000000e+00 
0.0000000e+00 -3.4689857e-03 0.0000000e+00 
0.0000000e+00 -4.7385660e-03 0.0000000e+00 
0.0000000e+00 -5.5971560e-03 0.0000000e+00 
0.0000000e+00 -5.3044450e-03 0.0000000e+00 
0.0000000e+00 -4.6447590e-03 0.0000000e+00 
0.0000000e+00 -4.3182317e-03 0.0000000e+00 
0.0000000e+00 -4.4606198e-03 0.0000000e+00 
0.0000000e+00 -4.4543222e-03 0.0000000e+00 
0.0000000e+00 -3.4624212e-03 0.0000000e+00 
0.0000000e+00 -2.0493523e-03 0.0000000e+00 
0.0000000e+00 -8.3828444e-04 0.0000000e+00 
0.0000000e+00 -6.4304622e-05 0.0000000e+00 
0.0000000e+00 2.7346166e-04 0.0000000e+00 
0.0000000e+00 3.1827221e-04 0.0000000e+00 
0.0000000e+00 2.2737923e-04 0.0000000e+00 
0.0000000e+00 1.1019023e-04 0.0000000e+00 
0.0000000e+00 2.4091378e-05 0.0000000e+00 
0.0000000e+00 -1.3073639e-05 0.0000000e+00 
0.0000000e+00 -5.7301909e-06 0.0000000e+00 
0.0000000e+00 1.6005728e-05 0.0000000e+00 
0.0000000e+00 1.9225337e-05 0.0000000e+00 
0.0000000e+00 -2.6610863e-07 0.0000000e+00 
0.0000000e+00 -2.3324319e-05 0.0000000e+00 
0.0000000e+00 -2.9688761e-05 0.0000000e+00 
0.0000000e+00 -1.4371433e-05 0.0000000e+00 
0.0000000e+00 9.1590946e-06 0.0000000e+00 
0.0000000e+00 2.3351486e-05 0.0000000e+00 
0.0000000e+00 1.9463607e-05 0.0000000e+00 
0.0000000e+00 2.6927987e-06 0.0000000e+00 
0.0000000e+00 -1.2149291e-05 0.0000000e+00 
0.0000000e+00 -1.3305214e-05 0.0000000e+00 
0.0000000e+00 -3.0367198e-06 0.0000000e+00 
0.0000000e+00 6.6325529e-06 0.0000000e+00 
0.0000000e+00 7.1461500e-06 0.0000000e+00 
0.0000000e+00 6.6114541e-07 0.0000000e+00 
0.0000000e+00 -4.0995474e-06 0.0000000e+00 
0.0000000e+00 -2.6968669e-06 0.0000000e+00 
0.0000000e+00 9.2966877e-07 0.0000000e+00 
0.0000000e+00 1.8183612e-06 0.0000000e+00 
0.0000000e+00 3.0091775e-07 0.0000000e+00 
0.0000000e+00 -7.1899882e-07 0.0000000e+00 
0.0000000e+00 -3.9489083e-07 0.0000000e+00 
0.0000000e+00 1.6304733e-07 0.0000000e+00 
0.0000000e+00 2.1142168e-07 0.0000000e+00 
0.0000000e+00 -1.6175988e-09 0.0000000e+00 
0.0000000e+00 -8.4690065e-08 0.0000000e+00 
0.0000000e+00 -2.4252310e-08 0.0000000e+00 
0.0000000e+00 2.3732133e-08 0.0000000e+00 
0.0000000e+00 1.0388449e-08 0.0000000e+00 
0.0000000e+00 -7.8353413e-09 0.0000000e+00 
-3.7356812e-04 -9.7785797e-04 3.0677445e-04 
3.0470821e-06 -2.9413187e-04 -4.3705375e-05 
1.0667620e-04 1.0083865e-04 -2.7863034e-05 
6.5217806e-05 1.1674248e-06 -4.5337079e-06 
0.0000000e+00 -1.9820572e-03 0.0000000e+00 
0.0000000e+00 0.0000000e+00 0.0000000e+00 
0.0000000e+00 0.0000000e+00 0.0000000e+00 
0.0000000e+00 0.0000000e+00 0.0000000e+00 
0.0000000e+00 0.0000000e+00 0.0000000e+00 
0.0000000e+00 0.0000000e+00 0.0000000e+00 
0.0000000e+00 0.0000000e+00 0.0000000e+00 
0.0000000e+00 0.0000000e+00 0.0000000e+00 
0.0000000e+00 0.0000000e+00 0.0000000e+00 
0.0000000e+00 0.0000000e+00 0.0000000e+00 
0.0000000e+00 0.0000000e+00 0.0000000e+00 
0.0000000e+00 0.0000000e+00 0.0000000e+00 
0.0000000e+00 0.0000000e+00 0.0000000e+00 
0.0000000e+00 0.0000000e+00 0.0000000e+00 
0.0000000e+00 0.0000000e+00 0.0000000e+00 
0.0000000e+00 0.0000000e+00 0.0000000e+00 
0.0000000e+00 0.0000000e+00 0.0000000e+00 
0.0000000e+00 0.0000000e+00 0.0000000e+00 
0.0000000e+00 0.0000000e+00 0.0000000e+00 
0.0000000e+00 0.0000000e+00 0.0000000e+00 
0.0000000e+00 0.0000000e+00 0.0000000e+00 
0.0000000e+00 0.0000000e+00 0.0000000e+00 
0.0000000e+00 0.0000000e+00 0.0000000e+00 
0.0000000e+00 0.0000000e+00 0.0000000e+00 
0.0000000e+00 0.0000000e+00 0.0000000e+00 
0.0000000e+00 0.0000000e+00 0.0000000e+00 
0.0000000e+00 0.0000000e+00 0.0000000e+00 
0.0000000e+00 0.0000000e+00 0.0000000e+00 
0.0000000e+00 0.0000000e+00 0.0000000e+00 
0.0000000e+00 0.0000000e+00 0.0000000e+00 
0.0000000e+00 0.0000000e+00 0.0000000e+00 
0.0000000e+00 0.0000000e+00 0.0000000e+00 
0.0000000e+00 0.0000000e+00 0.0000000e+00 
0.0000000e+00 0.0000000e+00 0.0000000e+00 
0.0000000e+00 0.0000000e+00 0.0000000e+00 
0.0000000e+00 0.0000000e+00 0.0000000e+00 
0.0000000e+00 0.0000000e+00 0.0000000e+00 
0.0000000e+00 0.0000000e+00 0.0000000e+00 
0.0000000e+00 0.0000000e+00 0.0000000e+00 
0.0000000e+00 0.0000000e+00 0.0000000e+00 
0.0000000e+00 0.0000000e+00 0.0000000e+00 
0.0000000e+00 0.0000000e+00 0.0000000e+00 
0.0000000e+00 0.0000000e+00 0.0000000e+00 
0.0000000e+00 0.0000000e+00 0.0000000e+00 
0.0000000e+00 0.0000000e+00 0.0000000e+00 
0.0000000e+00 0.0000000e+00 0.0000000e+00 
0.0000000e+00 0.0000000e+00 0.0000000e+00 
0.0000000e+00 0.0000000e+00 0.0000000e+00 
0.0000000e+00 0.0000000e+00 0.0000000e+00 
0.0000000e+00 0.0000000e+00 0.0000000e+00 
0.0000000e+00 0.0000000e+00 0.0000000e+00 
0.0000000e+00 0.0000000e+00 0.0000000e+00 
0.0000000e+00 0.0000000e+00 0.0000000e+00 
0.0000000e+00 0.0000000e+00 0.0000000e+00 
0.0000000e+00 0.0000000e+00 0.0000000e+00 
0.0000000e+00 0.0000000e+00 0.0000000e+00 
0.0000000e+00 0.0000000e+00 0.0000000e+00 
0.0000000e+00 0.0000000e+00 0.0000000e+00 
0.0000000e+00 0.0000000e+00 0.0000000e+00 
0.0000000e+00 0.0000000e+00 0.0000000e+00 
0.0000000e+00 0.0000000e+00 0.0000000e+00 
0.0000000e+00 0.0000000e+00 0.0000000e+00 
0.0000000e+00 0.0000000e+00 0.0000000e+00 
0.0000000e+00 0.0000000e+00 0.0000000e+00 
0.0000000e+00 0.0000000e+00 0.0000000e+00 
0.0000000e+00 0.0000000e+00 0.0000000e+00 
0.0000000e+00 0.0000000e+00 0.0000000e+00 
0.0000000e+00 0.0000000e+00 0.0000000e+00 
0.0000000e+00 0.0000000e+00 0.0000000e+00 
0.0000000e+00 0.0000000e+00 0.0000000e+00 
0.0000000e+00 0.0000000e+00 0.0000000e+00 
0.0000000e+00 0.0000000e+00 0.0000000e+00 
0.0000000e+00 0.0000000e+00 0.0000000e+00 
0.0000000e+00 0.0000000e+00 0.0000000e+00 
0.0000000e+00 0.0000000e+00 0.0000000e+00 
0.0000000e+00 0.0000000e+00 0.0000000e+00 
0.0000000e+00 0.0000000e+00 0.0000000e+00 
0.0000000e+00 0.0000000e+00 0.0000000e+00 
0.0000000e+00 0.0000000e+00 0.0000000e+00 
0.0000000e+00 0.0000000e+00 0.0000000e+00 
0.0000000e+00 0.0000000e+00 0.0000000e+00 
0.0000000e+00 0.0000000e+00 0.0000000e+00 
0.0000000e+00 0.0000000e+00 0.0000000e+00 
0.0000000e+00 0.0000000e+00 0.0000000e+00 
0.0000000e+00 0.0000000e+00 0.0000000e+00 
0.0000000e+00 0.0000000e+00 0.0000000e+00 
0.0000000e+00 0.0000000e+00 0.0000000e+00 
0.0000000e+00 0.0000000e+00 0.0000000e+00 
0.0000000e+00 0.0000000e+00 0.0000000e+00 
0.0000000e+00 0.0000000e+00 0.0000000e+00 
0.0000000e+00 0.0000000e+00 0.0000000e+00 
0.0000000e+00 0.0000000e+00 0.0000000e+00 
0.0000000e+00 0.0000000e+00 0.0000000e+00 
0.0000000e+00 0.0000000e+00 0.0000000e+00 
0.0000000e+00 0.0000000e+00 0.0000000e+00 
0.0000000e+00 0.0000000e+00 0.0000000e+00 
0.0000000e+00 0.0000000e+00 0.0000000e+00 
0.0000000e+00 0.0000000e+00 0.0000000e+00 
0.0000000e+00 0.0000000e+00 0.0000000e+00 
0.0000000e+00 0.0000000e+00 0.0000000e+00 
0.0000000e+00 0.0000000e+00 0.0000000e+00 
0.0000000e+00 0.0000000e+00 0.0000000e+00 
0.0000000e+00 0.0000000e+00 0.0000000e+00 
0.0000000e+00 0.0000000e+00 0.0000000e+00 
0.0000000e+00 0.0000000e+00 0.0000000e+00 
0.0000000e+00 0.0000000e+00 0.0000000e+00 
0.0000000e+00 0.0000000e+00 0.0000000e+00 
-6.0547779e-07 4.0704913e-07 3.3183312e-07 
-9.7524583e-07 -1.6138894e-05 -1.2632264e-06 
5.6588306e-06 -1.3081783e-05 -4.8180873e-06 
2.4303148e-05 -1.4533727e-05 -4.2219804e-06 
3.2584459e-05 -2.9613871e-05 -1.5219798e-06 
3.9879091e-05 -2.7898508e-05 8.0465304e-07 
5.3276835e-05 -2.6403064e-05 -2.7401395e-06 
4.2536536e-05 -1.6818467e-05 2.0024697e-06 
2.6326337e-05 -1.3980605e-05 7.1393824e-06 
-2.5828306e-06 -2.4876574e-05 1.2975596e-06 
1.5971897e-06 -4.0549430e-06 -8.5494503e-07 
-3.4884906e-06 5.1762336e-06 -6.8339449e-07 
-1.9714023e-06 3.8355051e-06 -2.0332044e-07 
9.4527415e-08 -3.7311213e-06 -1.2076122e-06 
7.3356453e-08 1.2222594e-06 1.1380129e-08 
-4.3014751e-08 -2.1130813e-07 1.0664424e-07 
-5.5973167e-08 1.3223614e-06 1.7827592e-08 
3.8543084e-07 -1.8112349e-06 2.7924125e-07 
6.0067214e-07 -9.8065004e-07 -7.3562751e-07 
-2.1590429e-06 4.4984131e-06 1.3577117e-06 
-2.0617745e-06 -1.9735269e-06 2.2621764e-06 
-2.1688227e-06 -1.5765485e-05 -6.7993045e-07 
1.8759796e-05 -7.0117840e-06 -4.4927219e-06 
3.2844935e-05 -9.2240271e-06 -2.5013744e-06 
4.2583924e-05 -1.3590328e-06 -8.2993065e-06 
4.9326220e-05 -1.1219440e-05 2.2800868e-06 
3.8577455e-05 -2.7952941e-05 1.5817336e-06 
2.9321904e-05 -2.7730477e-05 1.6464597e-06 
1.0012714e-05 -1.9631969e-05 6.5284930e-06 
2.0752930e-06 -1.8623354e-05 3.3314689e-07 
-1.3891039e-06 -4.3406467e-06 -1.6919786e-06 
-9.3625613e-07 7.9778238e-06 1.0350666e-06 
-5.5924312e-07 3.3266681e-07 8.6466918e-07 
9.3326230e-07 -2.3803859e-06 5.3191394e-07 
-2.8099198e-08 6.9209699e-07 -6.4548193e-09 
-1.1745808e-07 3.5091509e-07 4.8354160e-08 
4.2266549e-08 -3.9047404e-07 -2.6569378e-08 
-1.2553325e-08 2.1421910e-07 -2.3303637e-09 
-1.0990295e-08 -2.4705122e-08 -9.4307522e-09 
1.8735118e-09 -2.6984797e-08 -1.2040348e-08 
-1.3897385e-09 1.0305941e-08 4.2579793e-09 
6.7560069e-10 -5.6881000e-10 1.0907065e-09 
3.4507880e-10 -1.2762318e-09 -5.7709548e-10 
-6.4868853e-11 1.6752700e-09 4.6753768e-10 
-1.5107835e-11 -6.7250278e-10 -2.3780244e-10 
-1.9644297e-11 -3.4680911e-11 -9.6000603e-11 
1.8646669e-11 3.3742079e-11 6.4689564e-12 
-4.6292696e-12 -1.9200882e-11 1.4349133e-12 
9.3371567e-13 1.3772601e-11 7.5782821e-13 
0.0000000e+00 3.9131799e-05 0.0000000e+00 
0.0000000e+00 -6.2343031e-05 0.0000000e+00 
0.0000000e+00 -2.6250922e-04 0.0000000e+00 
0.0000000e+00 -4.3681805e-04 0.0000000e+00 
0.0000000e+00 -7.3935243e-04 0.0000000e+00 
0.0000000e+00 -1.0911404e-03 0.0000000e+00 
0.0000000e+00 -1.1083108e-03 0.0000000e+00 
0.0000000e+00 -9.3036715e-04 0.0000000e+00 
0.0000000e+00 -6.0295634e-04 0.0000000e+00 
0.0000000e+00 -3.5355639e-04 0.0000000e+00 
0.0000000e+00 -8.1308201e-05 0.0000000e+00 
0.0000000e+00 9.4705960e-05 0.0000000e+00 
0.0000000e+00 5.3139964e-05 0.0000000e+00 
0.0000000e+00 -2.5413508e-05 0.0000000e+00 
0.0000000e+00 -2.1719472e-05 0.0000000e+00 
0.0000000e+00 2.3375924e-05 0.0000000e+00 
0.0000000e+00 -1.0292411e-05 0.0000000e+00 
0.0000000e+00 -1.4484678e-05 0.0000000e+00 
0.0000000e+00 2.9843628e-05 0.0000000e+00 
0.0000000e+00 1.2444601e-05 0.0000000e+00 
0.0000000e+00 1.5014441e-05 0.0000000e+00 
0.0000000e+00 -5.0378221e-05 0.0000000e+00 
0.0000000e+00 -1.9084306e-04 0.0000000e+00 
0.0000000e+00 -4.7456802e-04 0.0000000e+00 
0.0000000e+00 -8.1033085e-04 0.0000000e+00 
0.0000000e+00 -1.1165268e-03 0.0000000e+00 
0.0000000e+00 -1.1547519e-03 0.0000000e+00 
0.0000000e+00 -8.7656331e-04 0.0000000e+00 
0.0000000e+00 -5.9779309e-04 0.0000000e+00 
0.0000000e+00 -2.9387636e-04 0.0000000e+00 
0.0000000e+00 -2.5902844e-05 0.0000000e+00 
0.0000000e+00 8.3987441e-05 0.0000000e+00 
0.0000000e+00 3.4103403e-05 0.0000000e+00 
0.0000000e+00 -1.8522793e-05 0.0000000e+00 
0.0000000e+00 -2.2277092e-05 0.0000000e+00 
0.0000000e+00 1.2658621e-05 0.0000000e+00 
0.0000000e+00 3.7809441e-06 0.0000000e+00 
0.0000000e+00 -1.5039864e-06 0.0000000e+00 
0.0000000e+00 -2.9182400e-08 0.0000000e+00 
0.0000000e+00 9.5335821e-07 0.0000000e+00 
0.0000000e+00 -6.9616016e-07 0.0000000e+00 
0.0000000e+00 2.5747369e-07 0.0000000e+00 
0.0000000e+00 2.0643420e-09 0.0000000e+00 
0.0000000e+00 -9.1641986e-08 0.0000000e+00 
0.0000000e+00 7.4742445e-08 0.0000000e+00 
0.0000000e+00 -2.9300169e-08 0.0000000e+00 
0.0000000e+00 4.8127444e-09 0.0000000e+00 
0.0000000e+00 -2.6227189e-09 0.0000000e+00 
0.0000000e+00 6.2506544e-10 0.0000000e+00 
-7.4466476e-07 -7.4466984e-06 8.0204364e-07 
-1.6530464e-06 -1.4985814e-05 2.2429128e-06 
-1.0205663e-05 7.9826605e-06 -3.5681007e-06 
-3.3126737e-06 1.2810976e-05 -8.3684781e-06 
-3.0224952e-13 1.1577930e-11 2.0229933e-12 
4.5228799e-12 -9.6076862e-12 2.7272314e-12 
-2.3824064e-11 -5.7546998e-11 -4.4583604e-11 
7.7248269e-12 8.4131535e-11 5.3094498e-11 
-7.0421397e-06 -4.2378369e-06 8.5079291e-06 
1.8837943e-12 8.1427712e-12 2.6108393e-12 
-1.2379474e-05 4.5548619e-05 2.6323678e-06 
2.6029511e-06 3.6457538e-06 -2.2418313e-05 
0.0000000e+00 1.0834904e-04 0.0000000e+00 
0.0000000e+00 -1.2712073e-04 0.0000000e+00 
0.0000000e+00 -3.5526080e-04 0.0000000e+00 
0.0000000e+00 -7.2693994e-04 0.0000000e+00 
0.0000000e+00 -1.4118040e-03 0.0000000e+00 
0.0000000e+00 -1.9752171e-03 0.0000000e+00 
0.0000000e+00 -2.0266541e-03 0.0000000e+00 
0.0000000e+00 -1.6409967e-03 0.0000000e+00 
0.0000000e+00 -1.1252913e-03 0.0000000e+00 
0.0000000e+00 -6.1264640e-04 0.0000000e+00 
0.0000000e+00 -5.3122167e-05 0.0000000e+00 
0.0000000e+00 1.8622348e-04 0.0000000e+00 
0.0000000e+00 6.1328283e-05 0.0000000e+00 