# vtk DataFile Version 4.0
vtk output
ASCII
DATASET UNSTRUCTURED_GRID
POINTS 1919 float
0.0000000e+00 0.0000000e+00 0.0000000e+00 
0.0000000e+00 0.0000000e+00 5.0000000e+01 
5.0000000e+00 0.0000000e+00 0.0000000e+00 
5.0000000e+00 0.0000000e+00 5.0000000e+01 
5.0000000e+00 1.0000000e+00 0.0000000e+00 
5.0000000e+00 1.0000000e+00 5.0000000e+01 
0.0000000e+00 1.0000000e+00 0.0000000e+00 
0.0000000e+00 1.0000000e+00 5.0000000e+01 
5.0000000e+00 2.0000000e+00 0.0000000e+00 
5.0000000e+00 2.0000000e+00 5.0000000e+01 
3.0000000e+00 2.0000000e+00 0.0000000e+00 
3.0000000e+00 2.0000000e+00 5.0000000e+01 
0.0000000e+00 2.0000000e+00 0.0000000e+00 
0.0000000e+00 2.0000000e+00 5.0000000e+01 
1.5000000e+00 3.0000000e+00 0.0000000e+00 
1.5000000e+00 3.0000000e+00 5.0000000e+01 
7.5000000e-01 3.0000000e+00 0.0000000e+00 
7.5000000e-01 3.0000000e+00 5.0000000e+01 
0.0000000e+00 3.0000000e+00 0.0000000e+00 
0.0000000e+00 3.0000000e+00 5.0000000e+01 
7.5000000e-01 3.0000000e+00 5.0000000e-01 
7.5000000e-01 3.0000000e+00 1.0000000e+00 
7.5000000e-01 3.0000000e+00 1.5000000e+00 
7.5000000e-01 3.0000000e+00 2.0000000e+00 
7.5000000e-01 3.0000000e+00 2.5000000e+00 
7.5000000e-01 3.0000000e+00 3.0000000e+00 
7.5000000e-01 3.0000000e+00 3.5000000e+00 
7.5000000e-01 3.0000000e+00 4.0000000e+00 
7.5000000e-01 3.0000000e+00 4.5000000e+00 
7.5000000e-01 3.0000000e+00 5.0000000e+00 
7.5000000e-01 3.0000000e+00 5.5000000e+00 
7.5000000e-01 3.0000000e+00 6.0000000e+00 
7.5000000e-01 3.0000000e+00 6.5000000e+00 
7.5000000e-01 3.0000000e+00 7.0000000e+00 
7.5000000e-01 3.0000000e+00 7.5000000e+00 
7.5000000e-01 3.0000000e+00 8.0000000e+00 
7.5000000e-01 3.0000000e+00 8.5000000e+00 
7.5000000e-01 3.0000000e+00 9.0000000e+00 
7.5000000e-01 3.0000000e+00 9.5000000e+00 
7.5000000e-01 3.0000000e+00 1.0000000e+01 
7.5000000e-01 3.0000000e+00 1.0500000e+01 
7.5000000e-01 3.0000000e+00 1.1000000e+01 
7.5000000e-01 3.0000000e+00 1.1500000e+01 
7.5000000e-01 3.0000000e+00 1.2000000e+01 
7.5000000e-01 3.0000000e+00 1.2500000e+01 
7.5000000e-01 3.0000000e+00 1.3000000e+01 
7.5000000e-01 3.0000000e+00 1.3500000e+01 
7.5000000e-01 3.0000000e+00 1.4000000e+01 
7.5000000e-01 3.0000000e+00 1.4500000e+01 
7.5000000e-01 3.0000000e+00 1.5000000e+01 
7.5000000e-01 3.0000000e+00 1.5500000e+01 
7.5000000e-01 3.0000000e+00 1.6000000e+01 
7.5000000e-01 3.0000000e+00 1.6500000e+01 
7.5000000e-01 3.0000000e+00 1.7000000e+01 
7.5000000e-01 3.0000000e+00 1.7500000e+01 
7.5000000e-01 3.0000000e+00 1.8000000e+01 
7.5000000e-01 3.0000000e+00 1.8500000e+01 
7.5000000e-01 3.0000000e+00 1.9000000e+01 
7.5000000e-01 3.0000000e+00 1.9500000e+01 
7.5000000e-01 3.0000000e+00 2.0000000e+01 
7.5000000e-01 3.0000000e+00 2.0500000e+01 
7.5000000e-01 3.0000000e+00 2.1000000e+01 
7.5000000e-01 3.0000000e+00 2.1500000e+01 
7.5000000e-01 3.0000000e+00 2.2000000e+01 
7.5000000e-01 3.0000000e+00 2.2500000e+01 
7.5000000e-01 3.0000000e+00 2.3000000e+01 
7.5000000e-01 3.0000000e+00 2.3500000e+01 
7.5000000e-01 3.0000000e+00 2.4000000e+01 
7.5000000e-01 3.0000000e+00 2.4500000e+01 
7.5000000e-01 3.0000000e+00 2.5000000e+01 
7.5000000e-01 3.0000000e+00 2.5500000e+01 
7.5000000e-01 3.0000000e+00 2.6000000e+01 
7.5000000e-01 3.0000000e+00 2.6500000e+01 
7.5000000e-01 3.0000000e+00 2.7000000e+01 
7.5000000e-01 3.0000000e+00 2.7500000e+01 
7.5000000e-01 3.0000000e+00 2.8000000e+01 
7.5000000e-01 3.0000000e+00 2.8500000e+01 
7.5000000e-01 3.0000000e+00 2.9000000e+01 
7.5000000e-01 3.0000000e+00 2.9500000e+01 
7.5000000e-01 3.0000000e+00 3.0000000e+01 
7.5000000e-01 3.0000000e+00 3.0500000e+01 
7.5000000e-01 3.0000000e+00 3.1000000e+01 
7.5000000e-01 3.0000000e+00 3.1500000e+01 
7.5000000e-01 3.0000000e+00 3.2000000e+01 
7.5000000e-01 3.0000000e+00 3.2500000e+01 
7.5000000e-01 3.0000000e+00 3.3000000e+01 
7.5000000e-01 3.0000000e+00 3.3500000e+01 
7.5000000e-01 3.0000000e+00 3.4000000e+01 
7.5000000e-01 3.0000000e+00 3.4500000e+01 
7.5000000e-01 3.0000000e+00 3.5000000e+01 
7.5000000e-01 3.0000000e+00 3.5500000e+01 
7.5000000e-01 3.0000000e+00 3.6000000e+01 
7.5000000e-01 3.0000000e+00 3.6500000e+01 
7.5000000e-01 3.0000000e+00 3.7000000e+01 
7.5000000e-01 3.0000000e+00 3.7500000e+01 
7.5000000e-01 3.0000000e+00 3.8000000e+01 
7.5000000e-01 3.0000000e+00 3.8500000e+01 
7.5000000e-01 3.0000000e+00 3.9000000e+01 
7.5000000e-01 3.0000000e+00 3.9500000e+01 
7.5000000e-01 3.0000000e+00 4.0000000e+01 
7.5000000e-01 3.0000000e+00 4.0500000e+01 
7.5000000e-01 3.0000000e+00 4.1000000e+01 
7.5000000e-01 3.0000000e+00 4.1500000e+01 
7.5000000e-01 3.0000000e+00 4.2000000e+01 
7.5000000e-01 3.0000000e+00 4.2500000e+01 
7.5000000e-01 3.0000000e+00 4.3000000e+01 
7.5000000e-01 3.0000000e+00 4.3500000e+01 
7.5000000e-01 3.0000000e+00 4.4000000e+01 
7.5000000e-01 3.0000000e+00 4.4500000e+01 
7.5000000e-01 3.0000000e+00 4.5000000e+01 
7.5000000e-01 3.0000000e+00 4.5500000e+01 
7.5000000e-01 3.0000000e+00 4.6000000e+01 
7.5000000e-01 3.0000000e+00 4.6500000e+01 
7.5000000e-01 3.0000000e+00 4.7000000e+01 
7.5000000e-01 3.0000000e+00 4.7500000e+01 
7.5000000e-01 3.0000000e+00 4.8000000e+01 
7.5000000e-01 3.0000000e+00 4.8500000e+01 
7.5000000e-01 3.0000000e+00 4.9000000e+01 
7.5000000e-01 3.0000000e+00 4.9500000e+01 
7.5000000e-01 3.0250001e+00 0.0000000e+00 
7.5000000e-01 3.0250001e+00 5.0000000e-01 
7.5000000e-01 3.0250001e+00 1.0000000e+00 
7.5000000e-01 3.0250001e+00 1.5000000e+00 
7.5000000e-01 3.0250001e+00 2.0000000e+00 
7.5000000e-01 3.0250001e+00 2.5000000e+00 
7.5000000e-01 3.0250001e+00 3.0000000e+00 
7.5000000e-01 3.0250001e+00 3.5000000e+00 
7.5000000e-01 3.0250001e+00 4.0000000e+00 
7.5000000e-01 3.0250001e+00 4.5000000e+00 
7.5000000e-01 3.0250001e+00 5.0000000e+00 
7.5000000e-01 3.0250001e+00 5.5000000e+00 
7.5000000e-01 3.0250001e+00 6.0000000e+00 
7.5000000e-01 3.0250001e+00 6.5000000e+00 
7.5000000e-01 3.0250001e+00 7.0000000e+00 
7.5000000e-01 3.0250001e+00 7.5000000e+00 
7.5000000e-01 3.0250001e+00 8.0000000e+00 
7.5000000e-01 3.0250001e+00 8.5000000e+00 
7.5000000e-01 3.0250001e+00 9.0000000e+00 
7.5000000e-01 3.0250001e+00 9.5000000e+00 
7.5000000e-01 3.0250001e+00 1.0000000e+01 
7.5000000e-01 3.0250001e+00 1.0500000e+01 
7.5000000e-01 3.0250001e+00 1.1000000e+01 
7.5000000e-01 3.0250001e+00 1.1500000e+01 
7.5000000e-01 3.0250001e+00 1.2000000e+01 
7.5000000e-01 3.0250001e+00 1.2500000e+01 
7.5000000e-01 3.0250001e+00 1.3000000e+01 
7.5000000e-01 3.0250001e+00 1.3500000e+01 
7.5000000e-01 3.0250001e+00 1.4000000e+01 
7.5000000e-01 3.0250001e+00 1.4500000e+01 
7.5000000e-01 3.0250001e+00 1.5000000e+01 
7.5000000e-01 3.0250001e+00 1.5500000e+01 
7.5000000e-01 3.0250001e+00 1.6000000e+01 
7.5000000e-01 3.0250001e+00 1.6500000e+01 
7.5000000e-01 3.0250001e+00 1.7000000e+01 
7.5000000e-01 3.0250001e+00 1.7500000e+01 
7.5000000e-01 3.0250001e+00 1.8000000e+01 
7.5000000e-01 3.0250001e+00 1.8500000e+01 
7.5000000e-01 3.0250001e+00 1.9000000e+01 
7.5000000e-01 3.0250001e+00 1.9500000e+01 
7.5000000e-01 3.0250001e+00 2.0000000e+01 
7.5000000e-01 3.0250001e+00 2.0500000e+01 
7.5000000e-01 3.0250001e+00 2.1000000e+01 
7.5000000e-01 3.0250001e+00 2.1500000e+01 
7.5000000e-01 3.0250001e+00 2.2000000e+01 
7.5000000e-01 3.0250001e+00 2.2500000e+01 
7.5000000e-01 3.0250001e+00 2.3000000e+01 
7.5000000e-01 3.0250001e+00 2.3500000e+01 
7.5000000e-01 3.0250001e+00 2.4000000e+01 
7.5000000e-01 3.0250001e+00 2.4500000e+01 
7.5000000e-01 3.0250001e+00 2.5000000e+01 
7.5000000e-01 3.0250001e+00 2.5500000e+01 
7.5000000e-01 3.0250001e+00 2.6000000e+01 
7.5000000e-01 3.0250001e+00 2.6500000e+01 
7.5000000e-01 3.0250001e+00 2.7000000e+01 
7.5000000e-01 3.0250001e+00 2.7500000e+01 
7.5000000e-01 3.0250001e+00 2.8000000e+01 
7.5000000e-01 3.0250001e+00 2.8500000e+01 
7.5000000e-01 3.0250001e+00 2.9000000e+01 
7.5000000e-01 3.0250001e+00 2.9500000e+01 
7.5000000e-01 3.0250001e+00 3.0000000e+01 
7.5000000e-01 3.0250001e+00 3.0500000e+01 
7.5000000e-01 3.0250001e+00 3.1000000e+01 
7.5000000e-01 3.0250001e+00 3.1500000e+01 
7.5000000e-01 3.0250001e+00 3.2000000e+01 
7.5000000e-01 3.0250001e+00 3.2500000e+01 
7.5000000e-01 3.0250001e+00 3.3000000e+01 
7.5000000e-01 3.0250001e+00 3.3500000e+01 
7.5000000e-01 3.0250001e+00 3.4000000e+01 
7.5000000e-01 3.0250001e+00 3.4500000e+01 
7.5000000e-01 3.0250001e+00 3.5000000e+01 
7.5000000e-01 3.0250001e+00 3.5500000e+01 
7.5000000e-01 3.0250001e+00 3.6000000e+01 
7.5000000e-01 3.0250001e+00 3.6500000e+01 
7.5000000e-01 3.0250001e+00 3.7000000e+01 
7.5000000e-01 3.0250001e+00 3.7500000e+01 
7.5000000e-01 3.0250001e+00 3.8000000e+01 
7.5000000e-01 3.0250001e+00 3.8500000e+01 
7.5000000e-01 3.0250001e+00 3.9000000e+01 
7.5000000e-01 3.0250001e+00 3.9500000e+01 
7.5000000e-01 3.0250001e+00 4.0000000e+01 
7.5000000e-01 3.0250001e+00 4.0500000e+01 
7.5000000e-01 3.0250001e+00 4.1000000e+01 
7.5000000e-01 3.0250001e+00 4.1500000e+01 
7.5000000e-01 3.0250001e+00 4.2000000e+01 
7.5000000e-01 3.0250001e+00 4.2500000e+01 
7.5000000e-01 3.0250001e+00 4.3000000e+01 
7.5000000e-01 3.0250001e+00 4.3500000e+01 
7.5000000e-01 3.0250001e+00 4.4000000e+01 
7.5000000e-01 3.0250001e+00 4.4500000e+01 
7.5000000e-01 3.0250001e+00 4.5000000e+01 
7.5000000e-01 3.0250001e+00 4.5500000e+01 
7.5000000e-01 3.0250001e+00 4.6000000e+01 
7.5000000e-01 3.0250001e+00 4.6500000e+01 
7.5000000e-01 3.0250001e+00 4.7000000e+01 
7.5000000e-01 3.0250001e+00 4.7500000e+01 
7.5000000e-01 3.0250001e+00 4.8000000e+01 
7.5000000e-01 3.0250001e+00 4.8500000e+01 
7.5000000e-01 3.0250001e+00 4.9000000e+01 
7.5000000e-01 3.0250001e+00 4.9500000e+01 
7.5000000e-01 3.0250001e+00 5.0000000e+01 
1.5000000e+00 3.0000000e+00 2.5000000e+01 
3.0000000e+00 2.0000000e+00 2.5000000e+01 
4.0000000e+00 2.0000000e+00 2.5000000e+01 
5.0000000e+00 2.0000000e+00 2.5000000e+01 
0.0000000e+00 3.0000000e+00 2.5000000e+01 
0.0000000e+00 0.0000000e+00 1.0000000e+00 
0.0000000e+00 0.0000000e+00 2.0000000e+00 
0.0000000e+00 0.0000000e+00 3.0000000e+00 
0.0000000e+00 0.0000000e+00 4.0000000e+00 
0.0000000e+00 0.0000000e+00 5.0000000e+00 
[...]
POINT_DATA 1919
FIELD FieldData 3
DISPLACEMENT 3 1919  float
0.0000000e+00 0.0000000e+00 0.0000000e+00 
0.0000000e+00 0.0000000e+00 0.0000000e+00 
0.0000000e+00 0.0000000e+00 0.0000000e+00 
0.0000000e+00 0.0000000e+00 0.0000000e+00 
-5.3988492e-07 -4.2012223e-07 -2.7924403e-07 
5.2345257e-07 -7.0100918e-07 2.0728526e-06 
0.0000000e+00 -4.3403038e-06 0.0000000e+00 
0.0000000e+00 -2.3928321e-06 0.0000000e+00 
5.2721454e-08 -1.4490181e-06 -6.5572959e-07 
6.2064053e-08 -6.9305872e-07 3.2762359e-06 
-2.3326313e-06 -4.3260408e-07 3.1000798e-07 
1.5987112e-07 -3.5233118e-06 5.1305783e-06 
0.0000000e+00 -4.2374240e-06 0.0000000e+00 
0.0000000e+00 -2.6583323e-06 0.0000000e+00 
-3.9627545e-07 5.6923445e-06 5.7274178e-07 
-3.2470728e-06 -6.8582503e-06 9.1256052e-06 
-3.2381963e-06 1.0325331e-05 3.1747957e-06 
-2.0319933e-06 -2.0033067e-06 8.7229246e-06 
0.0000000e+00 -4.8048432e-06 0.0000000e+00 
0.0000000e+00 4.4995700e-06 0.0000000e+00 
-2.7378237e-06 7.9026713e-06 -4.8453203e-06 
-3.8851190e-06 2.5036993e-06 -6.4772512e-06 
-2.0900427e-06 -3.7068921e-06 -4.5072698e-06 
-4.6487762e-06 -9.8890350e-06 -4.7901926e-06 
-7.1241830e-06 -1.5580898e-05 -5.1417433e-06 
-7.8868625e-06 -2.1070984e-05 -6.5855338e-06 
-6.7201063e-06 -2.5587826e-05 -6.8758959e-06 
-6.6510302e-06 -2.7762797e-05 -3.6057465e-06 
-6.5177210e-06 -2.7203567e-05 1.2054107e-07 
-8.7964563e-06 -2.4357232e-05 5.4456345e-06 
-9.0299854e-06 -2.1264894e-05 6.4237020e-06 
-1.1162415e-05 -1.9663074e-05 8.8876704e-06 
-1.1404117e-05 -1.8303768e-05 8.5546044e-06 
-1.2069870e-05 -1.3620705e-05 1.2399801e-05 
-1.0727097e-05 -5.5462233e-06 1.7039145e-05 
-9.3346034e-06 4.7975431e-07 2.0891905e-05 
-9.7481234e-06 -6.7780928e-07 1.9278914e-05 
-1.3975156e-05 -8.2445649e-06 1.5622047e-05 
-1.4881613e-05 -1.5698166e-05 8.4728736e-06 
-1.5103261e-05 -1.5949965e-05 1.9936090e-06 
-1.2847220e-05 -7.9721021e-06 3.4671879e-07 
-1.4707723e-05 4.6445300e-07 -5.5258811e-06 
-6.6065827e-06 -6.9451067e-07 -7.1829018e-06 
-6.2036202e-06 -1.2794728e-05 -7.4068303e-06 
-1.2603286e-05 -1.9504798e-05 -9.3796016e-06 
-9.2296168e-06 -7.6982957e-07 -6.2474978e-06 
3.2482524e-06 3.8758142e-05 -4.0950886e-06 
1.0693392e-05 7.1526294e-05 -3.4894192e-06 
1.2327997e-05 7.8214805e-05 8.6810778e-06 
4.8777347e-06 6.3136613e-05 2.7597624e-05 
3.4855228e-07 4.8248603e-05 2.7842661e-05 
8.9364494e-06 5.2322612e-05 4.6467809e-05 
-7.0928036e-06 3.6798770e-05 9.8528784e-05 
-4.8248556e-05 -1.1689246e-04 1.7531808e-04 
-4.0519630e-05 -5.4139306e-04 2.0291514e-04 
-5.6875066e-05 -1.3004178e-03 1.6860569e-04 
-1.3737516e-04 -2.3508775e-03 2.6849558e-04 
-1.7000856e-04 -3.5033743e-03 1.0960262e-04 
-2.4650211e-04 -4.4647777e-03 1.7725358e-04 
-2.6974178e-04 -4.7571980e-03 4.0895749e-05 
-2.5283487e-04 -4.4411831e-03 -3.9913946e-05 
-2.6116392e-04 -4.1897921e-03 -5.5489727e-05 
-2.5319660e-04 -4.3316116e-03 -6.3312531e-05 
-1.9229997e-04 -4.5134574e-03 -1.7893677e-04 
-3.0865436e-04 -4.0693553e-03 -2.5528538e-04 
-1.5159902e-04 -2.8503842e-03 -1.0330449e-04 
-8.9732406e-05 -1.5987213e-03 -3.2408201e-04 
-2.7861694e-05 -6.6096720e-04 -1.7457928e-04 
-3.0299134e-06 -1.0206566e-04 -1.4048941e-04 
3.8162439e-06 1.6372874e-04 -8.0218902e-05 
1.2328267e-05 2.2901838e-04 -3.8338931e-05 
1.1351959e-05 1.7802960e-04 -2.0225392e-05 
4.9625460e-06 9.1511632e-05 -1.9737492e-06 
-2.0491336e-06 2.1876220e-05 -4.9611099e-06 
-7.8578578e-06 -1.2593157e-05 5.2210930e-06 
-8.2600545e-06 -2.4527040e-05 1.0908293e-05 
-9.9885492e-06 -3.1109677e-05 1.4156650e-05 
-1.0417974e-05 -3.5831425e-05 1.6857544e-05 
-4.1374306e-06 -3.3989389e-05 1.4355423e-05 
-5.7800144e-06 -2.6315185e-05 1.1051983e-05 
-6.2611784e-06 -1.7732229e-05 1.0637921e-05 
-4.7359558e-06 -6.8524932e-06 1.8387833e-05 
-1.7528102e-06 4.6315254e-06 2.0322152e-05 
-9.3470308e-06 5.4341867e-06 1.6296734e-05 
-1.0383961e-05 -6.1471237e-06 7.5967528e-06 
-1.2369083e-05 -1.3227828e-05 5.0320532e-06 
-1.2800711e-05 5.0500266e-06 -4.8989580e-07 
-3.0078957e-06 5.4430609e-05 8.5988431e-06 
7.5121170e-06 1.0611983e-04 1.7906845e-05 
1.4011922e-05 1.1550271e-04 2.6228410e-05 
9.4098004e-06 7.8021738e-05 2.5002812e-05 
5.9133677e-06 1.7516426e-05 5.9655333e-05 
-8.8550896e-06 -6.1657251e-05 1.1014065e-04 
-1.2389712e-05 -2.1663003e-04 1.1652394e-04 
-4.6790163e-05 -5.9563632e-04 1.9352387e-04 
-1.9240209e-04 -1.3587754e-03 3.4790125e-04 
-1.5041236e-04 -2.4929252e-03 2.5377405e-04 
-1.7588395e-04 -3.7743279e-03 1.1734197e-04 
-2.4733506e-04 -4.7075776e-03 1.6587466e-04 
-2.5331418e-04 -4.6998016e-03 3.0143408e-05 
-2.2634656e-04 -4.2487490e-03 -3.0093630e-05 
-2.2637632e-04 -4.0605105e-03 -4.1981755e-05 
-2.0360004e-04 -4.3131351e-03 -3.9058308e-05 
-2.3541247e-04 -4.4618328e-03 -1.4753228e-04 
-1.9586651e-04 -3.8084409e-03 -2.5185270e-04 
-1.5728612e-04 -2.5549931e-03 -1.7880279e-04 
-8.1198385e-05 -1.3536231e-03 -2.6544670e-04 
-4.7609225e-05 -4.8141406e-04 -1.3915307e-04 
-1.8482029e-06 2.4649769e-05 -1.2591912e-04 
8.7318622e-06 2.3077089e-04 -6.6814064e-05 
1.5923155e-05 2.3982654e-04 -3.5371373e-05 
1.5886852e-05 1.6423744e-04 -1.9094619e-05 
9.6871499e-06 8.9272537e-05 4.7406179e-06 
7.1873928e-06 4.1221723e-05 3.9652346e-06 
5.1188463e-06 9.8504497e-06 6.8564450e-06 
4.5856814e-06 -1.5165419e-05 4.0303221e-06 
4.1165645e-06 -2.9633004e-05 6.0949124e-06 
2.5541922e-06 -2.6470094e-05 8.2879815e-06 
-8.9211045e-07 -1.1095300e-05 9.5509558e-06 
0.0000000e+00 1.0235594e-05 0.0000000e+00 
0.0000000e+00 7.9080364e-06 0.0000000e+00 
0.0000000e+00 2.5636691e-06 0.0000000e+00 
0.0000000e+00 -3.6792983e-06 0.0000000e+00 
0.0000000e+00 -9.8543451e-06 0.0000000e+00 
0.0000000e+00 -1.5636480e-05 0.0000000e+00 
0.0000000e+00 -2.1118116e-05 0.0000000e+00 
0.0000000e+00 -2.5586303e-05 0.0000000e+00 
0.0000000e+00 -2.7761185e-05 0.0000000e+00 
0.0000000e+00 -2.7142851e-05 0.0000000e+00 
0.0000000e+00 -2.4349927e-05 0.0000000e+00 
0.0000000e+00 -2.1376447e-05 0.0000000e+00 
0.0000000e+00 -1.9801992e-05 0.0000000e+00 
0.0000000e+00 -1.8255638e-05 0.0000000e+00 
0.0000000e+00 -1.3426204e-05 0.0000000e+00 
0.0000000e+00 -5.4851457e-06 0.0000000e+00 
0.0000000e+00 3.2330632e-07 0.0000000e+00 
0.0000000e+00 -9.1013749e-07 0.0000000e+00 
0.0000000e+00 -8.3506848e-06 0.0000000e+00 
0.0000000e+00 -1.5585110e-05 0.0000000e+00 
0.0000000e+00 -1.5662008e-05 0.0000000e+00 
0.0000000e+00 -7.7414370e-06 0.0000000e+00 
0.0000000e+00 3.4410334e-07 0.0000000e+00 
0.0000000e+00 -1.3917215e-06 0.0000000e+00 
0.0000000e+00 -1.3215297e-05 0.0000000e+00 
0.0000000e+00 -1.8857410e-05 0.0000000e+00 
0.0000000e+00 1.2943171e-07 0.0000000e+00 
0.0000000e+00 3.8892642e-05 0.0000000e+00 
0.0000000e+00 7.0987007e-05 0.0000000e+00 
0.0000000e+00 7.7430232e-05 0.0000000e+00 
0.0000000e+00 6.2785781e-05 0.0000000e+00 
0.0000000e+00 4.9787166e-05 0.0000000e+00 
0.0000000e+00 5.5341752e-05 0.0000000e+00 
0.0000000e+00 3.8488597e-05 0.0000000e+00 
0.0000000e+00 -1.1827603e-04 0.0000000e+00 
0.0000000e+00 -5.4526556e-04 0.0000000e+00 
0.0000000e+00 -1.3070785e-03 0.0000000e+00 
0.0000000e+00 -2.3555348e-03 0.0000000e+00 
0.0000000e+00 -3.5177029e-03 0.0000000e+00 
0.0000000e+00 -4.4864449e-03 0.0000000e+00 
0.0000000e+00 -4.7917254e-03 0.0000000e+00 
0.0000000e+00 -4.4657849e-03 0.0000000e+00 
0.0000000e+00 -4.2144344e-03 0.0000000e+00 
0.0000000e+00 -4.3501463e-03 0.0000000e+00 
0.0000000e+00 -4.5377440e-03 0.0000000e+00 
0.0000000e+00 -4.0951674e-03 0.0000000e+00 
0.0000000e+00 -2.8769972e-03 0.0000000e+00 
0.0000000e+00 -1.6069708e-03 0.0000000e+00 
0.0000000e+00 -6.6527852e-04 0.0000000e+00 
0.0000000e+00 -1.0221248e-04 0.0000000e+00 
0.0000000e+00 1.6390793e-04 0.0000000e+00 
0.0000000e+00 2.2942520e-04 0.0000000e+00 
0.0000000e+00 1.7956141e-04 0.0000000e+00 
0.0000000e+00 9.2709306e-05 0.0000000e+00 
0.0000000e+00 2.2527316e-05 0.0000000e+00 
0.0000000e+00 -1.2645515e-05 0.0000000e+00 
0.0000000e+00 -2.4782868e-05 0.0000000e+00 
0.0000000e+00 -3.1164545e-05 0.0000000e+00 
0.0000000e+00 -3.5737216e-05 0.0000000e+00 
0.0000000e+00 -3.4136217e-05 0.0000000e+00 
0.0000000e+00 -2.6711974e-05 0.0000000e+00 
0.0000000e+00 -1.7499189e-05 0.0000000e+00 
0.0000000e+00 -6.2505096e-06 0.0000000e+00 
0.0000000e+00 4.4314115e-06 0.0000000e+00 
0.0000000e+00 4.6818959e-06 0.0000000e+00 
0.0000000e+00 -6.6892489e-06 0.0000000e+00 
0.0000000e+00 -1.3013171e-05 0.0000000e+00 
0.0000000e+00 6.5804193e-06 0.0000000e+00 
0.0000000e+00 5.5568424e-05 0.0000000e+00 
0.0000000e+00 1.0490494e-04 0.0000000e+00 
0.0000000e+00 1.1433236e-04 0.0000000e+00 
0.0000000e+00 7.8141835e-05 0.0000000e+00 
0.0000000e+00 1.9136742e-05 0.0000000e+00 
0.0000000e+00 -5.7984620e-05 0.0000000e+00 
0.0000000e+00 -2.1497595e-04 0.0000000e+00 
0.0000000e+00 -6.0079998e-04 0.0000000e+00 
0.0000000e+00 -1.3661426e-03 0.0000000e+00 
0.0000000e+00 -2.5043453e-03 0.0000000e+00 
0.0000000e+00 -3.7931604e-03 0.0000000e+00 
0.0000000e+00 -4.7270078e-03 0.0000000e+00 
0.0000000e+00 -4.7301748e-03 0.0000000e+00 
0.0000000e+00 -4.2731743e-03 0.0000000e+00 
0.0000000e+00 -4.0873443e-03 0.0000000e+00 
0.0000000e+00 -4.3327380e-03 0.0000000e+00 
0.0000000e+00 -4.4902801e-03 0.0000000e+00 
0.0000000e+00 -3.8312098e-03 0.0000000e+00 
0.0000000e+00 -2.5738494e-03 0.0000000e+00 
0.0000000e+00 -1.3612474e-03 0.0000000e+00 
0.0000000e+00 -4.8500230e-04 0.0000000e+00 
0.0000000e+00 2.3508885e-05 0.0000000e+00 
0.0000000e+00 2.3114520e-04 0.0000000e+00 
0.0000000e+00 2.4130830e-04 0.0000000e+00 
0.0000000e+00 1.6628670e-04 0.0000000e+00 
0.0000000e+00 9.0221562e-05 0.0000000e+00 
0.0000000e+00 4.1077001e-05 0.0000000e+00 
0.0000000e+00 9.5015566e-06 0.0000000e+00 
0.0000000e+00 -1.5124774e-05 0.0000000e+00 
0.0000000e+00 -2.9302277e-05 0.0000000e+00 
0.0000000e+00 -2.6196305e-05 0.0000000e+00 
0.0000000e+00 -1.1263442e-05 0.0000000e+00 
0.0000000e+00 -2.3973148e-06 0.0000000e+00 
-4.6017262e-06 2.4794448e-05 -1.2030896e-04 
2.8732043e-06 3.6173671e-07 2.9862082e-07 
6.6405005e-06 3.3686110e-06 1.8259608e-06 
7.3204151e-06 2.1653086e-06 4.5594124e-06 
0.0000000e+00 1.1562905e-04 0.0000000e+00 
0.0000000e+00 0.0000000e+00 0.0000000e+00 
0.0000000e+00 0.0000000e+00 0.0000000e+00 
0.0000000e+00 0.0000000e+00 0.0000000e+00 
0.0000000e+00 0.0000000e+00 0.0000000e+00 
0.0000000e+00 0.0000000e+00 0.0000000e+00 
0.0000000e+00 0.0000000e+00 0.0000000e+00 
0.0000000e+00 0.0000000e+00 0.0000000e+00 
0.0000000e+00 0.0000000e+00 0.0000000e+00 
0.0000000e+00 0.0000000e+00 0.0000000e+00 
0.0000000e+00 0.0000000e+00 0.0000000e+00 
0.0000000e+00 0.0000000e+00 0.0000000e+00 
0.0000000e+00 0.0000000e+00 0.0000000e+00 
0.0000000e+00 0.0000000e+00 0.0000000e+00 
0.0000000e+00 0.0000000e+00 0.0000000e+00 
0.0000000e+00 0.0000000e+00 0.0000000e+00 
0.0000000e+00 0.0000000e+00 0.0000000e+00 
0.0000000e+00 0.0000000e+00 0.0000000e+00 
0.0000000e+00 0.0000000e+00 0.0000000e+00 
0.0000000e+00 0.0000000e+00 0.0000000e+00 
0.0000000e+00 0.0000000e+00 0.0000000e+00 
0.0000000e+00 0.0000000e+00 0.0000000e+00 
0.0000000e+00 0.0000000e+00 0.0000000e+00 
0.0000000e+00 0.0000000e+00 0.0000000e+00 
0.0000000e+00 0.0000000e+00 0.0000000e+00 
0.0000000e+00 0.0000000e+00 0.0000000e+00 
0.0000000e+00 0.0000000e+00 0.0000000e+00 
0.0000000e+00 0.0000000e+00 0.0000000e+00 
0.0000000e+00 0.0000000e+00 0.0000000e+00 
0.0000000e+00 0.0000000e+00 0.0000000e+00 
0.0000000e+00 0.0000000e+00 0.0000000e+00 
0.0000000e+00 0.0000000e+00 0.0000000e+00 
0.0000000e+00 0.0000000e+00 0.0000000e+00 
0.0000000e+00 0.0000000e+00 0.0000000e+00 
0.0000000e+00 0.0000000e+00 0.0000000e+00 
0.0000000e+00 0.0000000e+00 0.0000000e+00 
0.0000000e+00 0.0000000e+00 0.0000000e+00 
0.0000000e+00 0.0000000e+00 0.0000000e+00 
0.0000000e+00 0.0000000e+00 0.0000000e+00 
0.0000000e+00 0.0000000e+00 0.0000000e+00 
0.0000000e+00 0.0000000e+00 0.0000000e+00 
0.0000000e+00 0.0000000e+00 0.0000000e+00 
0.0000000e+00 0.0000000e+00 0.0000000e+00 
0.0000000e+00 0.0000000e+00 0.0000000e+00 
0.0000000e+00 0.0000000e+00 0.0000000e+00 
0.0000000e+00 0.0000000e+00 0.0000000e+00 
0.0000000e+00 0.0000000e+00 0.0000000e+00 
0.0000000e+00 0.0000000e+00 0.0000000e+00 
0.0000000e+00 0.0000000e+00 0.0000000e+00 
0.0000000e+00 0.0000000e+00 0.0000000e+00 
0.0000000e+00 0.0000000e+00 0.0000000e+00 
0.0000000e+00 0.0000000e+00 0.0000000e+00 
0.0000000e+00 0.0000000e+00 0.0000000e+00 
0.0000000e+00 0.0000000e+00 0.0000000e+00 
0.0000000e+00 0.0000000e+00 0.0000000e+00 
0.0000000e+00 0.0000000e+00 0.0000000e+00 
0.0000000e+00 0.0000000e+00 0.0000000e+00 
0.0000000e+00 0.0000000e+00 0.0000000e+00 
0.0000000e+00 0.0000000e+00 0.0000000e+00 
0.0000000e+00 0.0000000e+00 0.0000000e+00 
0.0000000e+00 0.0000000e+00 0.0000000e+00 
0.0000000e+00 0.0000000e+00 0.0000000e+00 
0.0000000e+00 0.0000000e+00 0.0000000e+00 
0.0000000e+00 0.0000000e+00 0.0000000e+00 
0.0000000e+00 0.0000000e+00 0.0000000e+00 
0.0000000e+00 0.0000000e+00 0.0000000e+00 
0.0000000e+00 0.0000000e+00 0.0000000e+00 
0.0000000e+00 0.0000000e+00 0.0000000e+00 
0.0000000e+00 0.0000000e+00 0.0000000e+00 
0.0000000e+00 0.0000000e+00 0.0000000e+00 
0.0000000e+00 0.0000000e+00 0.0000000e+00 
0.0000000e+00 0.0000000e+00 0.0000000e+00 
0.0000000e+00 0.0000000e+00 0.0000000e+00 
0.0000000e+00 0.0000000e+00 0.0000000e+00 
0.0000000e+00 0.0000000e+00 0.0000000e+00 
0.0000000e+00 0.0000000e+00 0.0000000e+00 
0.0000000e+00 0.0000000e+00 0.0000000e+00 
0.0000000e+00 0.0000000e+00 0.0000000e+00 
0.0000000e+00 0.0000000e+00 0.0000000e+00 
0.0000000e+00 0.0000000e+00 0.0000000e+00 
0.0000000e+00 0.0000000e+00 0.0000000e+00 
0.0000000e+00 0.0000000e+00 0.0000000e+00 
0.0000000e+00 0.0000000e+00 0.0000000e+00 
0.0000000e+00 0.0000000e+00 0.0000000e+00 
0.0000000e+00 0.0000000e+00 0.0000000e+00 
0.0000000e+00 0.0000000e+00 0.0000000e+00 
0.0000000e+00 0.0000000e+00 0.0000000e+00 
0.0000000e+00 0.0000000e+00 0.0000000e+00 
0.0000000e+00 0.0000000e+00 0.0000000e+00 
0.0000000e+00 0.0000000e+00 0.0000000e+00 
0.0000000e+00 0.0000000e+00 0.0000000e+00 
0.0000000e+00 0.0000000e+00 0.0000000e+00 
0.0000000e+00 0.0000000e+00 0.0000000e+00 
0.0000000e+00 0.0000000e+00 0.0000000e+00 
0.0000000e+00 0.0000000e+00 0.0000000e+00 
0.0000000e+00 0.0000000e+00 0.0000000e+00 
0.0000000e+00 0.0000000e+00 0.0000000e+00 
0.0000000e+00 0.0000000e+00 0.0000000e+00 
0.0000000e+00 0.0000000e+00 0.0000000e+00 
0.0000000e+00 0.0000000e+00 0.0000000e+00 
0.0000000e+00 0.0000000e+00 0.0000000e+00 
0.0000000e+00 0.0000000e+00 0.0000000e+00 
0.0000000e+00 0.0000000e+00 0.0000000e+00 
0.0000000e+00 0.0000000e+00 0.0000000e+00 
0.0000000e+00 0.0000000e+00 0.0000000e+00 
0.0000000e+00 0.0000000e+00 0.0000000e+00 
0.0000000e+00 0.0000000e+00 0.0000000e+00 
-8.1806434e-07 -4.2435207e-07 2.0132435e-07 
-2.4635403e-06 -2.7670870e-07 1.5179209e-07 
-4.0014215e-06 -2.8770859e-09 1.9137740e-06 
-4.6207565e-06 4.6017556e-07 2.4701337e-06 
-4.6724222e-06 6.6575859e-07 6.1126104e-07 
-5.1894690e-06 3.9106331e-07 2.2930060e-06 
-3.3919050e-06 1.6444343e-06 2.5884397e-06 
-3.8731146e-06 -3.8214797e-08 3.3124209e-07 
-3.7143122e-06 3.0910161e-07 2.0746561e-06 
-3.2685011e-06 9.7794020e-07 -1.7148977e-06 
-1.8687576e-06 -6.4770875e-06 -2.4884005e-06 
-1.6731269e-06 1.6867735e-06 -2.8062525e-06 
1.5162286e-06 -1.4467456e-06 -9.7208749e-06 
4.1839194e-06 -7.1277027e-06 -8.6515647e-06 
8.6803329e-06 -3.4542529e-06 -1.1445381e-05 
1.8816270e-05 -3.9556375e-07 -9.6471013e-06 
1.9468976e-05 -1.4757666e-05 -1.1683824e-05 
3.3373388e-05 -7.5479943e-06 -1.0484199e-05 
4.0394712e-05 -1.3354634e-05 -7.5465537e-06 
4.3868327e-05 -1.7924704e-05 -1.0949410e-07 
4.2494910e-05 -1.6667907e-05 5.6241802e-06 
3.2607368e-05 -1.0143382e-05 8.9700579e-06 
2.1056490e-05 -4.5951533e-06 9.5978530e-06 
1.0679110e-05 -7.8513335e-07 8.3593077e-06 
4.9105502e-06 2.0674431e-06 5.0019003e-06 
2.3151820e-07 -1.4518987e-06 4.1073131e-06 
-3.0697850e-06 4.3105078e-06 3.1466918e-06 
-4.0366940e-06 2.4603944e-06 -2.4783069e-06 
-4.0803311e-06 1.7032598e-07 4.0880059e-06 
-3.3528831e-06 2.1361369e-07 2.2528595e-06 
-8.8598745e-07 6.4672412e-07 -4.9100620e-08 
-2.0389414e-06 -4.8980364e-06 -2.8143058e-06 
1.5845426e-06 3.3242072e-06 -1.3015940e-06 
3.0227761e-06 -9.5628102e-06 -4.8306870e-06 
7.2963285e-06 -4.4717726e-06 -9.5620398e-06 
2.0112875e-05 2.1416106e-06 -1.1373812e-05 
2.9100511e-05 -8.9093828e-06 -1.0092185e-05 
3.5847675e-05 -9.6620061e-06 -7.3046408e-06 
4.0953662e-05 -1.1010278e-05 -5.0553122e-06 
4.5234516e-05 -1.8859977e-05 1.3954393e-06 
4.0149043e-05 -1.4417535e-05 6.0477996e-06 
3.4956680e-05 -1.1211391e-05 9.9098343e-06 
2.4379162e-05 -8.2738852e-06 1.2209697e-05 
1.4088461e-05 -2.7424210e-06 1.0537691e-05 
5.9156259e-06 -8.1010526e-08 4.8375678e-06 
2.8943498e-06 9.1403678e-07 2.9116286e-06 
1.2826777e-06 8.2126547e-07 2.2836150e-06 
1.5358975e-07 -1.5116669e-07 1.9609390e-06 
1.5325080e-07 -7.0726509e-07 1.6526411e-06 
0.0000000e+00 -6.6703456e-07 0.0000000e+00 
0.0000000e+00 2.7549738e-06 0.0000000e+00 
0.0000000e+00 7.5541343e-06 0.0000000e+00 
0.0000000e+00 1.4115983e-05 0.0000000e+00 
0.0000000e+00 1.2664615e-05 0.0000000e+00 
0.0000000e+00 1.1194487e-05 0.0000000e+00 
0.0000000e+00 1.5939939e-05 0.0000000e+00 
0.0000000e+00 7.2902535e-06 0.0000000e+00 
0.0000000e+00 5.0674184e-06 0.0000000e+00 
0.0000000e+00 1.4833759e-05 0.0000000e+00 
0.0000000e+00 9.8104329e-06 0.0000000e+00 
0.0000000e+00 -7.2855046e-06 0.0000000e+00 
0.0000000e+00 2.2472634e-05 0.0000000e+00 
0.0000000e+00 -7.7045624e-06 0.0000000e+00 
0.0000000e+00 -1.6632546e-05 0.0000000e+00 
0.0000000e+00 -2.5301211e-05 0.0000000e+00 
0.0000000e+00 -7.9940524e-05 0.0000000e+00 
0.0000000e+00 -2.5547904e-04 0.0000000e+00 
0.0000000e+00 -3.7033402e-04 0.0000000e+00 
0.0000000e+00 -5.2944035e-04 0.0000000e+00 
0.0000000e+00 -4.9267849e-04 0.0000000e+00 
0.0000000e+00 -4.5115771e-04 0.0000000e+00 
0.0000000e+00 -3.1475394e-04 0.0000000e+00 
0.0000000e+00 -1.0305172e-04 0.0000000e+00 
0.0000000e+00 7.0468664e-06 0.0000000e+00 
0.0000000e+00 2.3534962e-05 0.0000000e+00 
0.0000000e+00 2.2648312e-05 0.0000000e+00 
0.0000000e+00 1.3367250e-05 0.0000000e+00 
0.0000000e+00 4.4753215e-06 0.0000000e+00 
0.0000000e+00 1.3413680e-05 0.0000000e+00 
0.0000000e+00 6.8586401e-06 0.0000000e+00 
0.0000000e+00 -9.5151318e-06 0.0000000e+00 
0.0000000e+00 5.8838941e-06 0.0000000e+00 
0.0000000e+00 4.2106717e-06 0.0000000e+00 
0.0000000e+00 -1.6654902e-05 0.0000000e+00 
0.0000000e+00 -2.0677573e-05 0.0000000e+00 
0.0000000e+00 -5.7183734e-05 0.0000000e+00 
0.0000000e+00 -2.4161175e-04 0.0000000e+00 
0.0000000e+00 -4.3817275e-04 0.0000000e+00 
0.0000000e+00 -4.7740643e-04 0.0000000e+00 
0.0000000e+00 -5.0496170e-04 0.0000000e+00 
0.0000000e+00 -4.3074190e-04 0.0000000e+00 
0.0000000e+00 -2.7741917e-04 0.0000000e+00 
0.0000000e+00 -9.3546740e-05 0.0000000e+00 
0.0000000e+00 -1.8656397e-06 0.0000000e+00 
0.0000000e+00 1.7011400e-05 0.0000000e+00 
0.0000000e+00 7.9890087e-06 0.0000000e+00 
0.0000000e+00 3.9397778e-06 0.0000000e+00 
0.0000000e+00 -9.1714696e-07 0.0000000e+00 
-5.2424156e-07 -8.1214614e-07 -3.3654632e-07 
-7.1218176e-07 -9.9922283e-07 -1.5603421e-06 
2.6233681e-07 -5.5675423e-07 -2.0603604e-06 
-3.2444581e-07 -2.9505452e-06 -2.5751831e-06 
6.2473089e-07 -1.6367638e-06 2.3731902e-06 
4.1868486e-07 -2.5554450e-06 2.7359013e-06 
1.8480563e-08 -2.1144881e-06 3.3627996e-06 
-1.2807406e-07 -2.9541825e-06 2.1287076e-06 
-1.5639696e-06 -6.6827033e-07 9.6857164e-08 
9.9969519e-08 -1.8984277e-06 3.5298171e-06 
-1.4258962e-06 -9.2703840e-07 -2.7655988e-06 
-1.9990027e-06 2.1007583e-07 -6.7660966e-07 
0.0000000e+00 -9.7594716e-07 0.0000000e+00 
0.0000000e+00 2.3077714e-06 0.0000000e+00 
0.0000000e+00 8.8027482e-06 0.0000000e+00 
0.0000000e+00 1.7547682e-05 0.0000000e+00 
0.0000000e+00 1.5894655e-05 0.0000000e+00 
0.0000000e+00 1.9248038e-05 0.0000000e+00 
0.0000000e+00 2.0671387e-05 0.0000000e+00 
0.0000000e+00 1.4969606e-05 0.0000000e+00 
0.0000000e+00 9.6474014e-06 0.0000000e+00 
0.0000000e+00 1.7480852e-05 0.0000000e+00 
0.0000000e+00 1.0915765e-05 0.0000000e+00 
0.0000000e+00 -7.7786881e-06 0.0000000e+00 
0.0000000e+00 2.1552920e-05 0.0000000e+00 