# vtk DataFile Version 4.0
vtk output
ASCII
DATASET UNSTRUCTURED_GRID
POINTS 1919 float
0.0000000e+00 0.0000000e+00 0.0000000e+00 
0.0000000e+00 0.0000000e+00 5.0000000e+01 
5.0000000e+00 0.0000000e+00 0.0000000e+00 
5.0000000e+00 0.0000000e+00 5.0000000e+01 
5.0000000e+00 1.0000000e+00 0.0000000e+00 
5.0000000e+00 1.0000000e+00 5.0000000e+01 
0.0000000e+00 1.0000000e+00 0.0000000e+00 
0.0000000e+00 1.0000000e+00 5.0000000e+01 
5.0000000e+00 2.0000000e+00 0.0000000e+00 
5.0000000e+00 2.0000000e+00 5.0000000e+01 
3.0000000e+00 2.0000000e+00 0.0000000e+00 
3.0000000e+00 2.0000000e+00 5.0000000e+01 
0.0000000e+00 2.0000000e+00 0.0000000e+00 
0.0000000e+00 2.0000000e+00 5.0000000e+01 
1.5000000e+00 3.0000000e+00 0.0000000e+00 
1.5000000e+00 3.0000000e+00 5.0000000e+01 
7.5000000e-01 3.0000000e+00 0.0000000e+00 
7.5000000e-01 3.0000000e+00 5.0000000e+01 
0.0000000e+00 3.0000000e+00 0.0000000e+00 
0.0000000e+00 3.0000000e+00 5.0000000e+01 
7.5000000e-01 3.0000000e+00 5.0000000e-01 
7.5000000e-01 3.0000000e+00 1.0000000e+00 
7.5000000e-01 3.0000000e+00 1.5000000e+00 
7.5000000e-01 3.0000000e+00 2.0000000e+00 
7.5000000e-01 3.0000000e+00 2.5000000e+00 
7.5000000e-01 3.0000000e+00 3.0000000e+00 
7.5000000e-01 3.0000000e+00 3.5000000e+00 
7.5000000e-01 3.0000000e+00 4.0000000e+00 
7.5000000e-01 3.0000000e+00 4.5000000e+00 
7.5000000e-01 3.0000000e+00 5.0000000e+00 
7.5000000e-01 3.0000000e+00 5.5000000e+00 
7.5000000e-01 3.0000000e+00 6.0000000e+00 
7.5000000e-01 3.0000000e+00 6.5000000e+00 
7.5000000e-01 3.0000000e+00 7.0000000e+00 
7.5000000e-01 3.0000000e+00 7.5000000e+00 
7.5000000e-01 3.0000000e+00 8.0000000e+00 
7.5000000e-01 3.0000000e+00 8.5000000e+00 
7.5000000e-01 3.0000000e+00 9.0000000e+00 
7.5000000e-01 3.0000000e+00 9.5000000e+00 
7.5000000e-01 3.0000000e+00 1.0000000e+01 
7.5000000e-01 3.0000000e+00 1.0500000e+01 
7.5000000e-01 3.0000000e+00 1.1000000e+01 
7.5000000e-01 3.0000000e+00 1.1500000e+01 
7.5000000e-01 3.0000000e+00 1.2000000e+01 
7.5000000e-01 3.0000000e+00 1.2500000e+01 
7.5000000e-01 3.0000000e+00 1.3000000e+01 
7.5000000e-01 3.0000000e+00 1.3500000e+01 
7.5000000e-01 3.0000000e+00 1.4000000e+01 
7.5000000e-01 3.0000000e+00 1.4500000e+01 
7.5000000e-01 3.0000000e+00 1.5000000e+01 
7.5000000e-01 3.0000000e+00 1.5500000e+01 
7.5000000e-01 3.0000000e+00 1.6000000e+01 
7.5000000e-01 3.0000000e+00 1.6500000e+01 
7.5000000e-01 3.0000000e+00 1.7000000e+01 
7.5000000e-01 3.0000000e+00 1.7500000e+01 
7.5000000e-01 3.0000000e+00 1.8000000e+01 
7.5000000e-01 3.0000000e+00 1.8500000e+01 
7.5000000e-01 3.0000000e+00 1.9000000e+01 
7.5000000e-01 3.0000000e+00 1.9500000e+01 
7.5000000e-01 3.0000000e+00 2.0000000e+01 
7.5000000e-01 3.0000000e+00 2.0500000e+01 
7.5000000e-01 3.0000000e+00 2.1000000e+01 
7.5000000e-01 3.0000000e+00 2.1500000e+01 
7.5000000e-01 3.0000000e+00 2.2000000e+01 
7.5000000e-01 3.0000000e+00 2.2500000e+01 
7.5000000e-01 3.0000000e+00 2.3000000e+01 
7.5000000e-01 3.0000000e+00 2.3500000e+01 
7.5000000e-01 3.0000000e+00 2.4000000e+01 
7.5000000e-01 3.0000000e+00 2.4500000e+01 
7.5000000e-01 3.0000000e+00 2.5000000e+01 
7.5000000e-01 3.0000000e+00 2.5500000e+01 
7.5000000e-01 3.0000000e+00 2.6000000e+01 
7.5000000e-01 3.0000000e+00 2.6500000e+01 
7.5000000e-01 3.0000000e+00 2.7000000e+01 
7.5000000e-01 3.0000000e+00 2.7500000e+01 
7.5000000e-01 3.0000000e+00 2.8000000e+01 
7.5000000e-01 3.0000000e+00 2.8500000e+01 
7.5000000e-01 3.0000000e+00 2.9000000e+01 
7.5000000e-01 3.0000000e+00 2.9500000e+01 
7.5000000e-01 3.0000000e+00 3.0000000e+01 
7.5000000e-01 3.0000000e+00 3.0500000e+01 
7.5000000e-01 3.0000000e+00 3.1000000e+01 
7.5000000e-01 3.0000000e+00 3.1500000e+01 
7.5000000e-01 3.0000000e+00 3.2000000e+01 
7.5000000e-01 3.0000000e+00 3.2500000e+01 
7.5000000e-01 3.0000000e+00 3.3000000e+01 
7.5000000e-01 3.0000000e+00 3.3500000e+01 
7.5000000e-01 3.0000000e+00 3.4000000e+01 
7.5000000e-01 3.0000000e+00 3.4500000e+01 
7.5000000e-01 3.0000000e+00 3.5000000e+01 
7.5000000e-01 3.0000000e+00 3.5500000e+01 
7.5000000e-01 3.0000000e+00 3.6000000e+01 
7.5000000e-01 3.0000000e+00 3.6500000e+01 
7.5000000e-01 3.0000000e+00 3.7000000e+01 
7.5000000e-01 3.0000000e+00 3.7500000e+01 
7.5000000e-01 3.0000000e+00 3.8000000e+01 
7.5000000e-01 3.0000000e+00 3.8500000e+01 
7.5000000e-01 3.0000000e+00 3.9000000e+01 
7.5000000e-01 3.0000000e+00 3.9500000e+01 
7.5000000e-01 3.0000000e+00 4.0000000e+01 
7.5000000e-01 3.0000000e+00 4.0500000e+01 
7.5000000e-01 3.0000000e+00 4.1000000e+01 
7.5000000e-01 3.0000000e+00 4.1500000e+01 
7.5000000e-01 3.0000000e+00 4.2000000e+01 
7.5000000e-01 3.0000000e+00 4.2500000e+01 
7.5000000e-01 3.0000000e+00 4.3000000e+01 
7.5000000e-01 3.0000000e+00 4.3500000e+01 
7.5000000e-01 3.0000000e+00 4.4000000e+01 
7.5000000e-01 3.0000000e+00 4.4500000e+01 
7.5000000e-01 3.0000000e+00 4.5000000e+01 
7.5000000e-01 3.0000000e+00 4.5500000e+01 
7.5000000e-01 3.0000000e+00 4.6000000e+01 
7.5000000e-01 3.0000000e+00 4.6500000e+01 
7.5000000e-01 3.0000000e+00 4.7000000e+01 
7.5000000e-01 3.0000000e+00 4.7500000e+01 
7.5000000e-01 3.0000000e+00 4.8000000e+01 
7.5000000e-01 3.0000000e+00 4.8500000e+01 
7.5000000e-01 3.0000000e+00 4.9000000e+01 
7.5000000e-01 3.0000000e+00 4.9500000e+01 
7.5000000e-01 3.0250001e+00 0.0000000e+00 
7.5000000e-01 3.0250001e+00 5.0000000e-01 
7.5000000e-01 3.0250001e+00 1.0000000e+00 
7.5000000e-01 3.0250001e+00 1.5000000e+00 
7.5000000e-01 3.0250001e+00 2.0000000e+00 
7.5000000e-01 3.0250001e+00 2.5000000e+00 
7.5000000e-01 3.0250001e+00 3.0000000e+00 
7.5000000e-01 3.0250001e+00 3.5000000e+00 
7.5000000e-01 3.0250001e+00 4.0000000e+00 
7.5000000e-01 3.0250001e+00 4.5000000e+00 
7.5000000e-01 3.0250001e+00 5.0000000e+00 
7.5000000e-01 3.0250001e+00 5.5000000e+00 
7.5000000e-01 3.0250001e+00 6.0000000e+00 
7.5000000e-01 3.0250001e+00 6.5000000e+00 
7.5000000e-01 3.0250001e+00 7.0000000e+00 
7.5000000e-01 3.0250001e+00 7.5000000e+00 
7.5000000e-01 3.0250001e+00 8.0000000e+00 
7.5000000e-01 3.0250001e+00 8.5000000e+00 
7.5000000e-01 3.0250001e+00 9.0000000e+00 
7.5000000e-01 3.0250001e+00 9.5000000e+00 
7.5000000e-01 3.0250001e+00 1.0000000e+01 
7.5000000e-01 3.0250001e+00 1.0500000e+01 
7.5000000e-01 3.0250001e+00 1.1000000e+01 
7.5000000e-01 3.0250001e+00 1.1500000e+01 
7.5000000e-01 3.0250001e+00 1.2000000e+01 
7.5000000e-01 3.0250001e+00 1.2500000e+01 
7.5000000e-01 3.0250001e+00 1.3000000e+01 
7.5000000e-01 3.0250001e+00 1.3500000e+01 
7.5000000e-01 3.0250001e+00 1.4000000e+01 
7.5000000e-01 3.0250001e+00 1.4500000e+01 
7.5000000e-01 3.0250001e+00 1.5000000e+01 
7.5000000e-01 3.0250001e+00 1.5500000e+01 
7.5000000e-01 3.0250001e+00 1.6000000e+01 
7.5000000e-01 3.0250001e+00 1.6500000e+01 
7.5000000e-01 3.0250001e+00 1.7000000e+01 
7.5000000e-01 3.0250001e+00 1.7500000e+01 
7.5000000e-01 3.0250001e+00 1.8000000e+01 
7.5000000e-01 3.0250001e+00 1.8500000e+01 
7.5000000e-01 3.0250001e+00 1.9000000e+01 
7.5000000e-01 3.0250001e+00 1.9500000e+01 
7.5000000e-01 3.0250001e+00 2.0000000e+01 
7.5000000e-01 3.0250001e+00 2.0500000e+01 
7.5000000e-01 3.0250001e+00 2.1000000e+01 
7.5000000e-01 3.0250001e+00 2.1500000e+01 
7.5000000e-01 3.0250001e+00 2.2000000e+01 
7.5000000e-01 3.0250001e+00 2.2500000e+01 
7.5000000e-01 3.0250001e+00 2.3000000e+01 
7.5000000e-01 3.0250001e+00 2.3500000e+01 
7.5000000e-01 3.0250001e+00 2.4000000e+01 
7.5000000e-01 3.0250001e+00 2.4500000e+01 
7.5000000e-01 3.0250001e+00 2.5000000e+01 
7.5000000e-01 3.0250001e+00 2.5500000e+01 
7.5000000e-01 3.0250001e+00 2.6000000e+01 
7.5000000e-01 3.0250001e+00 2.6500000e+01 
7.5000000e-01 3.0250001e+00 2.7000000e+01 
7.5000000e-01 3.0250001e+00 2.7500000e+01 
7.5000000e-01 3.0250001e+00 2.8000000e+01 
7.5000000e-01 3.0250001e+00 2.8500000e+01 
7.5000000e-01 3.0250001e+00 2.9000000e+01 
7.5000000e-01 3.0250001e+00 2.9500000e+01 
7.5000000e-01 3.0250001e+00 3.0000000e+01 
7.5000000e-01 3.0250001e+00 3.0500000e+01 
7.5000000e-01 3.0250001e+00 3.1000000e+01 
7.5000000e-01 3.0250001e+00 3.1500000e+01 
7.5000000e-01 3.0250001e+00 3.2000000e+01 
7.5000000e-01 3.0250001e+00 3.2500000e+01 
7.5000000e-01 3.0250001e+00 3.3000000e+01 
7.5000000e-01 3.0250001e+00 3.3500000e+01 
7.5000000e-01 3.0250001e+00 3.4000000e+01 
7.5000000e-01 3.0250001e+00 3.4500000e+01 
7.5000000e-01 3.0250001e+00 3.5000000e+01 
7.5000000e-01 3.0250001e+00 3.5500000e+01 
7.5000000e-01 3.0250001e+00 3.6000000e+01 
7.5000000e-01 3.0250001e+00 3.6500000e+01 
7.5000000e-01 3.0250001e+00 3.7000000e+01 
7.5000000e-01 3.0250001e+00 3.7500000e+01 
7.5000000e-01 3.0250001e+00 3.8000000e+01 
7.5000000e-01 3.0250001e+00 3.8500000e+01 
7.5000000e-01 3.0250001e+00 3.9000000e+01 
7.5000000e-01 3.0250001e+00 3.9500000e+01 
7.5000000e-01 3.0250001e+00 4.0000000e+01 
7.5000000e-01 3.0250001e+00 4.0500000e+01 
7.5000000e-01 3.0250001e+00 4.1000000e+01 
7.5000000e-01 3.0250001e+00 4.1500000e+01 
7.5000000e-01 3.0250001e+00 4.2000000e+01 
7.5000000e-01 3.0250001e+00 4.2500000e+01 
7.5000000e-01 3.0250001e+00 4.3000000e+01 
7.5000000e-01 3.0250001e+00 4.3500000e+01 
7.5000000e-01 3.0250001e+00 4.4000000e+01 
7.5000000e-01 3.0250001e+00 4.4500000e+01 
7.5000000e-01 3.0250001e+00 4.5000000e+01 
7.5000000e-01 3.0250001e+00 4.5500000e+01 
7.5000000e-01 3.0250001e+00 4.6000000e+01 
7.5000000e-01 3.0250001e+00 4.6500000e+01 
7.5000000e-01 3.0250001e+00 4.7000000e+01 
7.5000000e-01 3.0250001e+00 4.7500000e+01 
7.5000000e-01 3.0250001e+00 4.8000000e+01 
7.5000000e-01 3.0250001e+00 4.8500000e+01 
7.5000000e-01 3.0250001e+00 4.9000000e+01 
7.5000000e-01 3.0250001e+00 4.9500000e+01 
7.5000000e-01 3.0250001e+00 5.0000000e+01 
1.5000000e+00 3.0000000e+00 2.5000000e+01 
3.0000000e+00 2.0000000e+00 2.5000000e+01 
4.0000000e+00 2.0000000e+00 2.5000000e+01 
5.0000000e+00 2.0000000e+00 2.5000000e+01 
0.0000000e+00 3.0000000e+00 2.5000000e+01 
0.0000000e+00 0.0000000e+00 1.0000000e+00 
0.0000000e+00 0.0000000e+00 2.0000000e+00 
0.0000000e+00 0.0000000e+00 3.0000000e+00 
0.0000000e+00 0.0000000e+00 4.0000000e+00 
0.0000000e+00 0.0000000e+00 5.0000000e+00 
[...]
POINT_DATA 1919
FIELD FieldData 3
DISPLACEMENT 3 1919  float
0.0000000e+00 0.0000000e+00 0.0000000e+00 
0.0000000e+00 0.0000000e+00 0.0000000e+00 
0.0000000e+00 0.0000000e+00 0.0000000e+00 
0.0000000e+00 0.0000000e+00 0.0000000e+00 
-3.7694840e-06 2.8726390e-06 3.4075347e-06 
-4.3038921e-07 6.6399599e-07 -4.5999298e-07 
0.0000000e+00 2.8635857e-06 0.0000000e+00 
0.0000000e+00 -1.3717003e-06 0.0000000e+00 
-2.7853707e-06 2.1442283e-06 3.7155005e-06 
-5.4814899e-07 5.2886878e-07 -1.8628707e-07 
-5.6809977e-06 1.5971892e-06 1.0077810e-05 
7.8133002e-07 8.7946177e-07 -1.5616696e-06 
0.0000000e+00 4.5888523e-06 0.0000000e+00 
0.0000000e+00 -3.2032444e-06 0.0000000e+00 
-2.4594485e-06 3.3681185e-06 -1.5111497e-05 
-7.4830604e-07 -4.2613847e-06 4.4927556e-06 
-1.3108123e-05 1.6367303e-05 -1.4695721e-05 
-2.2533131e-06 -1.3921107e-06 4.2518127e-06 
0.0000000e+00 -1.2401175e-05 0.0000000e+00 
0.0000000e+00 -2.3176423e-08 0.0000000e+00 
-4.4364533e-06 2.1430455e-05 -6.1087389e-06 
8.0994978e-06 3.2285985e-05 -7.7907844e-06 
1.5626527e-05 4.2449934e-05 -6.9159563e-07 
3.0878415e-05 4.9650269e-05 -6.0358566e-06 
3.7009439e-05 5.5094340e-05 -9.6103577e-06 
4.4175598e-05 6.0188948e-05 -1.2072746e-05 
4.7939571e-05 6.7418681e-05 -1.0114373e-05 
4.8363887e-05 7.7534954e-05 -1.4027324e-06 
4.5221990e-05 8.4173240e-05 9.4895349e-06 
5.5440385e-05 7.8999496e-05 8.4822614e-06 
5.2408275e-05 6.6094130e-05 8.4069015e-06 
5.2449624e-05 5.7645291e-05 2.3689281e-06 
3.5643341e-05 6.3639229e-05 5.1887855e-06 
5.7501980e-05 8.3506136e-05 1.8269864e-05 
6.0391860e-05 1.0175074e-04 2.7522292e-05 
5.5348075e-05 1.0079529e-04 2.2787017e-05 
4.2160707e-05 8.5924614e-05 1.0700232e-05 
4.1650255e-05 8.0564772e-05 5.7837669e-06 
3.0953364e-05 1.0796908e-04 4.2010056e-06 
3.8265051e-05 1.6485035e-04 4.8480632e-07 
2.7511389e-05 1.9526195e-04 1.9833960e-05 
2.5073048e-05 1.1654798e-04 3.8043236e-05 
-1.1763652e-05 -1.0632941e-04 7.2027149e-05 
-3.0155546e-05 -4.7020137e-04 7.8259181e-05 
-8.0220627e-05 -1.0103190e-03 1.7442404e-04 
-1.1723594e-04 -1.8000724e-03 1.0460633e-04 
-1.8372768e-04 -2.9216856e-03 2.3009736e-04 
-2.3922304e-04 -4.2465511e-03 4.2579119e-05 
-3.0596994e-04 -5.2074250e-03 3.5159424e-05 
-3.0852613e-04 -5.0080637e-03 -3.3740504e-05 
-2.6704659e-04 -4.4856919e-03 -6.6529887e-05 
-2.4563805e-04 -4.3377853e-03 -1.1895817e-04 
-2.9084645e-04 -4.6913610e-03 -9.9583987e-05 
-5.8538927e-04 -4.8566777e-03 -2.3695882e-04 
-1.9192774e-04 -3.8379093e-03 -2.0992322e-04 
-9.7122378e-05 -2.3592636e-03 -7.8591249e-05 
-2.8546707e-05 -1.0937302e-03 -1.6750589e-04 
-4.8062470e-06 -2.6947458e-04 -3.4012926e-05 
1.9946132e-05 1.2913480e-04 -1.3819779e-05 
1.9625226e-05 2.4971212e-04 3.1675347e-05 
1.7345181e-05 2.4477678e-04 5.7805933e-05 
2.3499599e-05 1.9813953e-04 5.9466933e-05 
1.1088531e-05 1.4148816e-04 6.1442421e-05 
1.6225265e-05 9.0408066e-05 3.7295562e-05 
2.3085544e-05 5.7865989e-05 2.5438580e-05 
2.2723532e-05 4.3734315e-05 7.4198824e-06 
2.2501905e-05 3.7382746e-05 -1.0989894e-05 
2.4499774e-05 3.4559249e-05 -2.2867191e-05 
3.0623654e-05 3.6074089e-05 -2.6236179e-05 
4.8383612e-05 4.0300078e-05 -1.8746699e-05 
4.6618148e-05 4.1284857e-05 -1.2021875e-05 
4.0767023e-05 3.3571490e-05 -4.5192451e-06 
3.7646027e-05 2.3188642e-05 -2.0805030e-06 
3.9851020e-05 2.9115741e-05 -1.7794451e-06 
4.6156434e-05 5.6972360e-05 -3.6681872e-06 
5.4496246e-05 8.7362620e-05 -9.2626333e-06 
5.2546100e-05 1.0066726e-04 -8.8262505e-06 
5.2666885e-05 9.0714653e-05 5.1760651e-07 
3.3010732e-05 8.3321807e-05 1.3988965e-05 
3.0674935e-05 1.1728966e-04 3.1336480e-05 
2.5511628e-05 1.6909564e-04 6.0828890e-05 
2.5591406e-05 1.3848257e-04 5.5986806e-05 
-1.6440436e-05 -7.5744829e-05 1.0100688e-04 
-4.2903805e-05 -5.3194881e-04 1.0839113e-04 
-1.0456614e-04 -1.2350754e-03 1.9758895e-04 
-1.7595367e-04 -2.1563286e-03 1.0262552e-04 
-2.4679006e-04 -3.2947357e-03 2.2634002e-04 
-3.4329115e-04 -4.4781952e-03 -1.3938823e-06 
-3.7286233e-04 -5.2158674e-03 -4.6681576e-05 
-3.2423367e-04 -4.9207732e-03 -4.3427524e-05 
-2.7950929e-04 -4.4458969e-03 -7.8327983e-05 
-2.6475612e-04 -4.3403441e-03 -1.3213033e-04 
-2.5855450e-04 -4.5981188e-03 -9.7851902e-05 
-3.0662701e-04 -4.5394781e-03 -1.7362293e-04 
-2.4591436e-04 -3.5068453e-03 -2.9938511e-04 
-1.9776079e-04 -2.1200066e-03 -3.7228048e-04 
-1.3859521e-05 -9.5944008e-04 -1.2558738e-04 
2.8393591e-05 -2.4306991e-04 -2.3304949e-05 
2.8051656e-05 1.0279826e-04 -7.3063006e-06 
2.2986431e-05 2.1714297e-04 2.3745637e-05 
1.2602472e-05 2.0925398e-04 3.9204177e-05 
2.8045490e-06 1.4321312e-04 3.5147146e-05 
-5.2876912e-06 6.8293091e-05 3.6437435e-05 
-1.1932855e-05 1.8000897e-05 2.6107606e-05 
-1.8143259e-05 2.3721225e-06 1.6739050e-05 
-1.6035759e-05 4.5582769e-06 2.2267659e-06 
-1.5004367e-05 4.9251717e-06 -1.7160870e-05 
-8.8563611e-06 3.0845217e-07 -2.5629570e-05 
4.3249379e-06 -1.7599752e-06 -3.0841591e-05 
4.2015813e-06 1.6734597e-06 -2.3830029e-05 
3.2190233e-06 5.4355560e-06 -7.3796509e-06 
2.6695172e-06 4.8703173e-06 1.1949533e-06 
-5.1302145e-06 7.1004820e-07 -6.9392439e-07 
-3.6343463e-06 -2.4893852e-06 -6.5170657e-06 
4.2231632e-06 -2.5763388e-06 -1.0583997e-05 
4.8250868e-06 -1.5704362e-06 -1.0227442e-05 
4.0140949e-06 -1.3238158e-06 -1.5897224e-06 
5.0846766e-06 -1.5486036e-06 1.4681500e-06 
-7.4883403e-08 -1.5186338e-06 4.2121328e-06 
0.0000000e+00 1.6549662e-05 0.0000000e+00 
0.0000000e+00 2.1486390e-05 0.0000000e+00 
0.0000000e+00 3.2166539e-05 0.0000000e+00 
0.0000000e+00 4.2397463e-05 0.0000000e+00 
0.0000000e+00 4.9701615e-05 0.0000000e+00 
0.0000000e+00 5.5030629e-05 0.0000000e+00 
0.0000000e+00 6.0202725e-05 0.0000000e+00 
0.0000000e+00 6.7729845e-05 0.0000000e+00 
0.0000000e+00 7.7763056e-05 0.0000000e+00 
0.0000000e+00 8.3896761e-05 0.0000000e+00 
0.0000000e+00 7.8749974e-05 0.0000000e+00 
0.0000000e+00 6.5993860e-05 0.0000000e+00 
0.0000000e+00 5.7867248e-05 0.0000000e+00 
0.0000000e+00 6.4341242e-05 0.0000000e+00 
0.0000000e+00 8.3919738e-05 0.0000000e+00 
0.0000000e+00 1.0116545e-04 0.0000000e+00 
0.0000000e+00 1.0014848e-04 0.0000000e+00 
0.0000000e+00 8.5511558e-05 0.0000000e+00 
0.0000000e+00 8.1112623e-05 0.0000000e+00 
0.0000000e+00 1.1015021e-04 0.0000000e+00 
0.0000000e+00 1.6660342e-04 0.0000000e+00 
0.0000000e+00 1.9407207e-04 0.0000000e+00 
0.0000000e+00 1.1502038e-04 0.0000000e+00 
0.0000000e+00 -1.0576355e-04 0.0000000e+00 
0.0000000e+00 -4.6940488e-04 0.0000000e+00 
0.0000000e+00 -1.0091321e-03 0.0000000e+00 
0.0000000e+00 -1.8061976e-03 0.0000000e+00 
0.0000000e+00 -2.9364950e-03 0.0000000e+00 
0.0000000e+00 -4.2761490e-03 0.0000000e+00 
0.0000000e+00 -5.2315113e-03 0.0000000e+00 
0.0000000e+00 -5.0354344e-03 0.0000000e+00 
0.0000000e+00 -4.5054229e-03 0.0000000e+00 
0.0000000e+00 -4.3663182e-03 0.0000000e+00 
0.0000000e+00 -4.7227698e-03 0.0000000e+00 
0.0000000e+00 -4.8769736e-03 0.0000000e+00 
0.0000000e+00 -3.8623097e-03 0.0000000e+00 
0.0000000e+00 -2.3765371e-03 0.0000000e+00 
0.0000000e+00 -1.1018827e-03 0.0000000e+00 
0.0000000e+00 -2.7293994e-04 0.0000000e+00 
0.0000000e+00 1.2991800e-04 0.0000000e+00 
0.0000000e+00 2.5233766e-04 0.0000000e+00 
0.0000000e+00 2.4624405e-04 0.0000000e+00 
0.0000000e+00 1.9854162e-04 0.0000000e+00 
0.0000000e+00 1.4189308e-04 0.0000000e+00 
0.0000000e+00 9.1235743e-05 0.0000000e+00 
0.0000000e+00 5.8210186e-05 0.0000000e+00 
0.0000000e+00 4.3122105e-05 0.0000000e+00 
0.0000000e+00 3.7055579e-05 0.0000000e+00 
0.0000000e+00 3.4828689e-05 0.0000000e+00 
0.0000000e+00 3.6501719e-05 0.0000000e+00 
0.0000000e+00 4.0421972e-05 0.0000000e+00 
0.0000000e+00 4.0733925e-05 0.0000000e+00 
0.0000000e+00 3.2817057e-05 0.0000000e+00 
0.0000000e+00 2.3606328e-05 0.0000000e+00 
0.0000000e+00 3.0213600e-05 0.0000000e+00 
0.0000000e+00 5.7241425e-05 0.0000000e+00 
0.0000000e+00 8.7133965e-05 0.0000000e+00 
0.0000000e+00 9.9452147e-05 0.0000000e+00 
0.0000000e+00 8.9832960e-05 0.0000000e+00 
0.0000000e+00 8.5125183e-05 0.0000000e+00 
0.0000000e+00 1.2014294e-04 0.0000000e+00 
0.0000000e+00 1.7015505e-04 0.0000000e+00 
0.0000000e+00 1.3796645e-04 0.0000000e+00 
0.0000000e+00 -7.8117613e-05 0.0000000e+00 
0.0000000e+00 -5.3433451e-04 0.0000000e+00 
0.0000000e+00 -1.2344243e-03 0.0000000e+00 
0.0000000e+00 -2.1621324e-03 0.0000000e+00 
0.0000000e+00 -3.3069544e-03 0.0000000e+00 
0.0000000e+00 -4.5081009e-03 0.0000000e+00 
0.0000000e+00 -5.2418457e-03 0.0000000e+00 
0.0000000e+00 -4.9521872e-03 0.0000000e+00 
0.0000000e+00 -4.4653560e-03 0.0000000e+00 
0.0000000e+00 -4.3652086e-03 0.0000000e+00 
0.0000000e+00 -4.6224673e-03 0.0000000e+00 
0.0000000e+00 -4.5728488e-03 0.0000000e+00 
0.0000000e+00 -3.5277267e-03 0.0000000e+00 
0.0000000e+00 -2.1320360e-03 0.0000000e+00 
0.0000000e+00 -9.6892321e-04 0.0000000e+00 
0.0000000e+00 -2.4432348e-04 0.0000000e+00 
0.0000000e+00 1.0418011e-04 0.0000000e+00 
0.0000000e+00 2.1849632e-04 0.0000000e+00 
0.0000000e+00 2.0976429e-04 0.0000000e+00 
0.0000000e+00 1.4414082e-04 0.0000000e+00 
0.0000000e+00 6.9277958e-05 0.0000000e+00 
0.0000000e+00 1.8754843e-05 0.0000000e+00 
0.0000000e+00 2.2191448e-06 0.0000000e+00 
0.0000000e+00 3.9227630e-06 0.0000000e+00 
0.0000000e+00 4.6912646e-06 0.0000000e+00 
0.0000000e+00 6.0568027e-07 0.0000000e+00 
0.0000000e+00 -1.5161448e-06 0.0000000e+00 
0.0000000e+00 1.5107612e-06 0.0000000e+00 
0.0000000e+00 5.2221048e-06 0.0000000e+00 
0.0000000e+00 4.8352267e-06 0.0000000e+00 
0.0000000e+00 8.6201754e-07 0.0000000e+00 
0.0000000e+00 -2.3748457e-06 0.0000000e+00 
0.0000000e+00 -2.6502744e-06 0.0000000e+00 
0.0000000e+00 -1.6597661e-06 0.0000000e+00 
0.0000000e+00 -1.2900072e-06 0.0000000e+00 
0.0000000e+00 -1.4714168e-06 0.0000000e+00 
0.0000000e+00 -1.5201533e-06 0.0000000e+00 
0.0000000e+00 -1.4508686e-06 0.0000000e+00 
5.1265586e-05 -9.5098867e-06 -1.8655752e-05 
-1.0363064e-05 -9.7324355e-06 1.4179581e-06 
-2.4873012e-05 -1.3577769e-05 5.0214257e-06 
-2.1807859e-05 -8.3128534e-06 6.1112210e-06 
0.0000000e+00 1.2120601e-05 0.0000000e+00 
0.0000000e+00 0.0000000e+00 0.0000000e+00 
0.0000000e+00 0.0000000e+00 0.0000000e+00 
0.0000000e+00 0.0000000e+00 0.0000000e+00 
0.0000000e+00 0.0000000e+00 0.0000000e+00 
0.0000000e+00 0.0000000e+00 0.0000000e+00 
0.0000000e+00 0.0000000e+00 0.0000000e+00 
0.0000000e+00 0.0000000e+00 0.0000000e+00 
0.0000000e+00 0.0000000e+00 0.0000000e+00 
0.0000000e+00 0.0000000e+00 0.0000000e+00 
0.0000000e+00 0.0000000e+00 0.0000000e+00 
0.0000000e+00 0.0000000e+00 0.0000000e+00 
0.0000000e+00 0.0000000e+00 0.0000000e+00 
0.0000000e+00 0.0000000e+00 0.0000000e+00 
0.0000000e+00 0.0000000e+00 0.0000000e+00 
0.0000000e+00 0.0000000e+00 0.0000000e+00 
0.0000000e+00 0.0000000e+00 0.0000000e+00 
0.0000000e+00 0.0000000e+00 0.0000000e+00 
0.0000000e+00 0.0000000e+00 0.0000000e+00 
0.0000000e+00 0.0000000e+00 0.0000000e+00 
0.0000000e+00 0.0000000e+00 0.0000000e+00 
0.0000000e+00 0.0000000e+00 0.0000000e+00 
0.0000000e+00 0.0000000e+00 0.0000000e+00 
0.0000000e+00 0.0000000e+00 0.0000000e+00 
0.0000000e+00 0.0000000e+00 0.0000000e+00 
0.0000000e+00 0.0000000e+00 0.0000000e+00 
0.0000000e+00 0.0000000e+00 0.0000000e+00 
0.0000000e+00 0.0000000e+00 0.0000000e+00 
0.0000000e+00 0.0000000e+00 0.0000000e+00 
0.0000000e+00 0.0000000e+00 0.0000000e+00 
0.0000000e+00 0.0000000e+00 0.0000000e+00 
0.0000000e+00 0.0000000e+00 0.0000000e+00 
0.0000000e+00 0.0000000e+00 0.0000000e+00 
0.0000000e+00 0.0000000e+00 0.0000000e+00 
0.0000000e+00 0.0000000e+00 0.0000000e+00 
0.0000000e+00 0.0000000e+00 0.0000000e+00 
0.0000000e+00 0.0000000e+00 0.0000000e+00 
0.0000000e+00 0.0000000e+00 0.0000000e+00 
0.0000000e+00 0.0000000e+00 0.0000000e+00 
0.0000000e+00 0.0000000e+00 0.0000000e+00 
0.0000000e+00 0.0000000e+00 0.0000000e+00 
0.0000000e+00 0.0000000e+00 0.0000000e+00 
0.0000000e+00 0.0000000e+00 0.0000000e+00 
0.0000000e+00 0.0000000e+00 0.0000000e+00 
0.0000000e+00 0.0000000e+00 0.0000000e+00 
0.0000000e+00 0.0000000e+00 0.0000000e+00 
0.0000000e+00 0.0000000e+00 0.0000000e+00 
0.0000000e+00 0.0000000e+00 0.0000000e+00 
0.0000000e+00 0.0000000e+00 0.0000000e+00 
0.0000000e+00 0.0000000e+00 0.0000000e+00 
0.0000000e+00 0.0000000e+00 0.0000000e+00 
0.0000000e+00 0.0000000e+00 0.0000000e+00 
0.0000000e+00 0.0000000e+00 0.0000000e+00 
0.0000000e+00 0.0000000e+00 0.0000000e+00 
0.0000000e+00 0.0000000e+00 0.0000000e+00 
0.0000000e+00 0.0000000e+00 0.0000000e+00 
0.0000000e+00 0.0000000e+00 0.0000000e+00 
0.0000000e+00 0.0000000e+00 0.0000000e+00 
0.0000000e+00 0.0000000e+00 0.0000000e+00 
0.0000000e+00 0.0000000e+00 0.0000000e+00 
0.0000000e+00 0.0000000e+00 0.0000000e+00 
0.0000000e+00 0.0000000e+00 0.0000000e+00 
0.0000000e+00 0.0000000e+00 0.0000000e+00 
0.0000000e+00 0.0000000e+00 0.0000000e+00 
0.0000000e+00 0.0000000e+00 0.0000000e+00 
0.0000000e+00 0.0000000e+00 0.0000000e+00 
0.0000000e+00 0.0000000e+00 0.0000000e+00 
0.0000000e+00 0.0000000e+00 0.0000000e+00 
0.0000000e+00 0.0000000e+00 0.0000000e+00 
0.0000000e+00 0.0000000e+00 0.0000000e+00 
0.0000000e+00 0.0000000e+00 0.0000000e+00 
0.0000000e+00 0.0000000e+00 0.0000000e+00 
0.0000000e+00 0.0000000e+00 0.0000000e+00 
0.0000000e+00 0.0000000e+00 0.0000000e+00 
0.0000000e+00 0.0000000e+00 0.0000000e+00 
0.0000000e+00 0.0000000e+00 0.0000000e+00 
0.0000000e+00 0.0000000e+00 0.0000000e+00 
0.0000000e+00 0.0000000e+00 0.0000000e+00 
0.0000000e+00 0.0000000e+00 0.0000000e+00 
0.0000000e+00 0.0000000e+00 0.0000000e+00 
0.0000000e+00 0.0000000e+00 0.0000000e+00 
0.0000000e+00 0.0000000e+00 0.0000000e+00 
0.0000000e+00 0.0000000e+00 0.0000000e+00 
0.0000000e+00 0.0000000e+00 0.0000000e+00 
0.0000000e+00 0.0000000e+00 0.0000000e+00 
0.0000000e+00 0.0000000e+00 0.0000000e+00 
0.0000000e+00 0.0000000e+00 0.0000000e+00 
0.0000000e+00 0.0000000e+00 0.0000000e+00 
0.0000000e+00 0.0000000e+00 0.0000000e+00 
0.0000000e+00 0.0000000e+00 0.0000000e+00 
0.0000000e+00 0.0000000e+00 0.0000000e+00 
0.0000000e+00 0.0000000e+00 0.0000000e+00 
0.0000000e+00 0.0000000e+00 0.0000000e+00 
0.0000000e+00 0.0000000e+00 0.0000000e+00 
0.0000000e+00 0.0000000e+00 0.0000000e+00 
0.0000000e+00 0.0000000e+00 0.0000000e+00 
0.0000000e+00 0.0000000e+00 0.0000000e+00 
0.0000000e+00 0.0000000e+00 0.0000000e+00 
0.0000000e+00 0.0000000e+00 0.0000000e+00 
0.0000000e+00 0.0000000e+00 0.0000000e+00 
0.0000000e+00 0.0000000e+00 0.0000000e+00 
0.0000000e+00 0.0000000e+00 0.0000000e+00 
0.0000000e+00 0.0000000e+00 0.0000000e+00 
0.0000000e+00 0.0000000e+00 0.0000000e+00 
0.0000000e+00 0.0000000e+00 0.0000000e+00 
0.0000000e+00 0.0000000e+00 0.0000000e+00 
0.0000000e+00 0.0000000e+00 0.0000000e+00 
-1.7418595e-06 2.3200307e-06 8.3601435e-07 
-2.6018188e-06 3.5528499e-06 3.3447320e-06 
-1.4292416e-06 6.8156652e-07 3.2170185e-06 
-1.8074491e-06 1.5532565e-06 -1.0001675e-06 
-3.8916123e-06 -5.7079460e-06 2.9017312e-06 
-3.9991596e-06 7.9223519e-06 1.8424342e-07 
-3.0853607e-06 2.4486945e-07 -4.4980752e-06 
-3.2186681e-06 -6.8623717e-06 -5.8662667e-06 
-6.3702015e-07 6.8618815e-06 -1.3515141e-05 
8.5596730e-06 -2.8942459e-06 -1.8533838e-05 
1.4794727e-05 -7.4373793e-06 -2.3365666e-05 
2.9483796e-05 -1.8292189e-07 -2.3364515e-05 
4.0378203e-05 -9.1209940e-06 -2.1548107e-05 
4.3577256e-05 -1.2852682e-05 -1.7598533e-05 
4.5447872e-05 -1.4852231e-05 -4.6077744e-06 
3.9396375e-05 -1.6429198e-05 2.9682167e-06 
3.3301632e-05 -1.0349684e-05 1.6068956e-05 
2.1502547e-05 -2.0509490e-06 2.1221302e-05 
1.3961845e-05 -1.1944195e-06 2.3371840e-05 
7.4220684e-06 -8.9743628e-07 2.2814438e-05 
5.9181189e-06 -1.7027877e-06 1.8530065e-05 
2.2632248e-06 4.8179101e-07 1.3876952e-05 
-3.9217321e-06 1.8358122e-06 8.8234929e-06 
-5.4960592e-06 -3.3003002e-06 2.3287560e-06 
-5.1369575e-06 -6.8362478e-06 1.3732296e-06 
-6.0367643e-06 5.2075171e-07 4.6569580e-06 
-6.1618071e-06 2.2998979e-06 -1.9039898e-06 
-3.9807701e-06 -7.5717098e-06 -9.2928449e-06 
4.8566754e-08 -2.0647244e-06 -1.1264867e-05 
1.3040313e-05 -5.7788259e-07 -1.8298959e-05 
1.3191583e-05 -8.0476193e-06 -2.0932979e-05 
2.7824601e-05 -5.9186419e-07 -2.4334211e-05 
3.9965100e-05 -8.6852433e-06 -2.1261772e-05 
4.4041415e-05 -1.2728477e-05 -1.4018805e-05 
4.5833312e-05 -1.1524822e-05 -5.9018789e-06 
4.0773622e-05 -1.3024567e-05 6.4791534e-06 
3.0542673e-05 -8.9861815e-06 1.3708533e-05 
1.9527561e-05 -5.9837830e-06 1.8847670e-05 
1.2648577e-05 -6.0897223e-06 1.7489434e-05 
7.8966523e-06 -2.8589211e-06 1.4253158e-05 
5.4230582e-06 -2.1800797e-06 1.1069886e-05 
3.6460174e-06 -1.2462574e-06 7.7877585e-06 
1.2527606e-06 9.1316181e-08 4.6693945e-06 
-4.1548120e-07 -7.9533670e-08 1.4662963e-06 
-4.0273389e-07 -5.1696094e-07 -4.1828474e-07 
-2.7991018e-07 3.4769278e-07 -8.4649542e-07 
-6.0743623e-08 1.1257361e-07 -9.5249555e-07 
9.6653892e-08 -3.0776036e-07 -9.2618279e-07 
3.2992742e-07 9.1031808e-08 -7.8566757e-07 
0.0000000e+00 -8.0333339e-06 0.0000000e+00 
0.0000000e+00 -3.0591069e-05 0.0000000e+00 
0.0000000e+00 -3.0222607e-05 0.0000000e+00 
0.0000000e+00 -2.9106717e-05 0.0000000e+00 
0.0000000e+00 -4.4414715e-05 0.0000000e+00 
0.0000000e+00 -3.7958638e-05 0.0000000e+00 
0.0000000e+00 -2.1895970e-05 0.0000000e+00 
0.0000000e+00 -3.7839716e-05 0.0000000e+00 
0.0000000e+00 -1.7571640e-05 0.0000000e+00 
0.0000000e+00 -1.7449807e-05 0.0000000e+00 
0.0000000e+00 -6.2838648e-05 0.0000000e+00 
0.0000000e+00 -1.0306253e-04 0.0000000e+00 
0.0000000e+00 -2.7084365e-04 0.0000000e+00 
0.0000000e+00 -4.7180694e-04 0.0000000e+00 
0.0000000e+00 -5.0689146e-04 0.0000000e+00 
0.0000000e+00 -4.7034270e-04 0.0000000e+00 
0.0000000e+00 -4.0326532e-04 0.0000000e+00 
0.0000000e+00 -2.3911044e-04 0.0000000e+00 
0.0000000e+00 -9.0433357e-05 0.0000000e+00 
0.0000000e+00 -2.3672017e-05 0.0000000e+00 
0.0000000e+00 -9.0345602e-06 0.0000000e+00 
0.0000000e+00 -1.8021856e-05 0.0000000e+00 
0.0000000e+00 -1.6515489e-05 0.0000000e+00 
0.0000000e+00 1.0542441e-05 0.0000000e+00 
0.0000000e+00 -1.0516384e-05 0.0000000e+00 
0.0000000e+00 -1.6362485e-05 0.0000000e+00 
0.0000000e+00 1.1198870e-05 0.0000000e+00 
0.0000000e+00 -1.8856621e-05 0.0000000e+00 
0.0000000e+00 -4.9899481e-05 0.0000000e+00 
0.0000000e+00 -7.6863216e-06 0.0000000e+00 
0.0000000e+00 -7.5640804e-05 0.0000000e+00 
0.0000000e+00 -1.5162399e-04 0.0000000e+00 
0.0000000e+00 -2.4709557e-04 0.0000000e+00 
0.0000000e+00 -5.3001638e-04 0.0000000e+00 
0.0000000e+00 -5.2201567e-04 0.0000000e+00 
0.0000000e+00 -4.9310381e-04 0.0000000e+00 
0.0000000e+00 -4.3620952e-04 0.0000000e+00 
0.0000000e+00 -2.4617923e-04 0.0000000e+00 
0.0000000e+00 -6.0772334e-05 0.0000000e+00 
0.0000000e+00 -1.1283551e-05 0.0000000e+00 
0.0000000e+00 6.8069348e-06 0.0000000e+00 
0.0000000e+00 5.3760436e-06 0.0000000e+00 
0.0000000e+00 5.4382831e-06 0.0000000e+00 
0.0000000e+00 1.8944054e-06 0.0000000e+00 
0.0000000e+00 -3.2693231e-07 0.0000000e+00 
0.0000000e+00 -2.0860770e-07 0.0000000e+00 
0.0000000e+00 -2.0972723e-06 0.0000000e+00 
0.0000000e+00 1.6759043e-06 0.0000000e+00 
0.0000000e+00 2.3489224e-06 0.0000000e+00 
-2.0226905e-06 1.1233063e-06 1.8447009e-06 
-3.6115725e-06 1.9560257e-06 2.8559527e-06 
-3.9613810e-06 5.4624466e-06 2.2902486e-06 
-7.9635078e-07 4.7818930e-06 5.9455265e-06 
2.4487252e-07 6.7759191e-07 -1.0504999e-06 
5.6726776e-07 5.4031159e-07 -1.0156674e-06 
1.1596219e-06 7.0996180e-07 -4.7887920e-07 
1.0470087e-06 -9.3635947e-08 -3.1435599e-07 
-7.7054565e-06 2.2743109e-06 9.0140638e-06 
-8.3435658e-08 9.6044266e-07 -1.6902455e-06 
-3.2713997e-06 1.7475694e-06 1.5446869e-05 
-4.7177273e-06 8.7979724e-06 5.9236563e-06 
0.0000000e+00 -2.0207524e-05 0.0000000e+00 
0.0000000e+00 -3.3192311e-05 0.0000000e+00 
0.0000000e+00 -3.1682797e-05 0.0000000e+00 
0.0000000e+00 -4.9640938e-05 0.0000000e+00 
0.0000000e+00 -6.2849715e-05 0.0000000e+00 
0.0000000e+00 -4.2417400e-05 0.0000000e+00 
0.0000000e+00 -4.7573492e-05 0.0000000e+00 
0.0000000e+00 -4.5040630e-05 0.0000000e+00 
0.0000000e+00 -3.7626564e-06 0.0000000e+00 
0.0000000e+00 -2.5357182e-05 0.0000000e+00 
0.0000000e+00 -1.2036429e-04 0.0000000e+00 
0.0000000e+00 -1.8069659e-04 0.0000000e+00 
0.0000000e+00 -6.3876167e-04 0.0000000e+00 
0.0000000e+00 -1.0349267e-03 0.0000000e+00 