# vtk DataFile Version 4.0
vtk output
ASCII
DATASET UNSTRUCTURED_GRID
POINTS 1919 float
0.0000000e+00 0.0000000e+00 0.0000000e+00 
0.0000000e+00 0.0000000e+00 5.0000000e+01 
5.0000000e+00 0.0000000e+00 0.0000000e+00 
5.0000000e+00 0.0000000e+00 5.0000000e+01 
5.0000000e+00 1.0000000e+00 0.0000000e+00 
5.0000000e+00 1.0000000e+00 5.0000000e+01 
0.0000000e+00 1.0000000e+00 0.0000000e+00 
0.0000000e+00 1.0000000e+00 5.0000000e+01 
5.0000000e+00 2.0000000e+00 0.0000000e+00 
5.0000000e+00 2.0000000e+00 5.0000000e+01 
3.0000000e+00 2.0000000e+00 0.0000000e+00 
3.0000000e+00 2.0000000e+00 5.0000000e+01 
0.0000000e+00 2.0000000e+00 0.0000000e+00 
0.0000000e+00 2.0000000e+00 5.0000000e+01 
1.5000000e+00 3.0000000e+00 0.0000000e+00 
1.5000000e+00 3.0000000e+00 5.0000000e+01 
7.5000000e-01 3.0000000e+00 0.0000000e+00 
7.5000000e-01 3.0000000e+00 5.0000000e+01 
0.0000000e+00 3.0000000e+00 0.0000000e+00 
0.0000000e+00 3.0000000e+00 5.0000000e+01 
7.5000000e-01 3.0000000e+00 5.0000000e-01 
7.5000000e-01 3.0000000e+00 1.0000000e+00 
7.5000000e-01 3.0000000e+00 1.5000000e+00 
7.5000000e-01 3.0000000e+00 2.0000000e+00 
7.5000000e-01 3.0000000e+00 2.5000000e+00 
7.5000000e-01 3.0000000e+00 3.0000000e+00 
7.5000000e-01 3.0000000e+00 3.5000000e+00 
7.5000000e-01 3.0000000e+00 4.0000000e+00 
7.5000000e-01 3.0000000e+00 4.5000000e+00 
7.5000000e-01 3.0000000e+00 5.0000000e+00 
7.5000000e-01 3.0000000e+00 5.5000000e+00 
7.5000000e-01 3.0000000e+00 6.0000000e+00 
7.5000000e-01 3.0000000e+00 6.5000000e+00 
7.5000000e-01 3.0000000e+00 7.0000000e+00 
7.5000000e-01 3.0000000e+00 7.5000000e+00 
7.5000000e-01 3.0000000e+00 8.0000000e+00 
7.5000000e-01 3.0000000e+00 8.5000000e+00 
7.5000000e-01 3.0000000e+00 9.0000000e+00 
7.5000000e-01 3.0000000e+00 9.5000000e+00 
7.5000000e-01 3.0000000e+00 1.0000000e+01 
7.5000000e-01 3.0000000e+00 1.0500000e+01 
7.5000000e-01 3.0000000e+00 1.1000000e+01 
7.5000000e-01 3.0000000e+00 1.1500000e+01 
7.5000000e-01 3.0000000e+00 1.2000000e+01 
7.5000000e-01 3.0000000e+00 1.2500000e+01 
7.5000000e-01 3.0000000e+00 1.3000000e+01 
7.5000000e-01 3.0000000e+00 1.3500000e+01 
7.5000000e-01 3.0000000e+00 1.4000000e+01 
7.5000000e-01 3.0000000e+00 1.4500000e+01 
7.5000000e-01 3.0000000e+00 1.5000000e+01 
7.5000000e-01 3.0000000e+00 1.5500000e+01 
7.5000000e-01 3.0000000e+00 1.6000000e+01 
7.5000000e-01 3.0000000e+00 1.6500000e+01 
7.5000000e-01 3.0000000e+00 1.7000000e+01 
7.5000000e-01 3.0000000e+00 1.7500000e+01 
7.5000000e-01 3.0000000e+00 1.8000000e+01 
7.5000000e-01 3.0000000e+00 1.8500000e+01 
7.5000000e-01 3.0000000e+00 1.9000000e+01 
7.5000000e-01 3.0000000e+00 1.9500000e+01 
7.5000000e-01 3.0000000e+00 2.0000000e+01 
7.5000000e-01 3.0000000e+00 2.0500000e+01 
7.5000000e-01 3.0000000e+00 2.1000000e+01 
7.5000000e-01 3.0000000e+00 2.1500000e+01 
7.5000000e-01 3.0000000e+00 2.2000000e+01 
7.5000000e-01 3.0000000e+00 2.2500000e+01 
7.5000000e-01 3.0000000e+00 2.3000000e+01 
7.5000000e-01 3.0000000e+00 2.3500000e+01 
7.5000000e-01 3.0000000e+00 2.4000000e+01 
7.5000000e-01 3.0000000e+00 2.4500000e+01 
7.5000000e-01 3.0000000e+00 2.5000000e+01 
7.5000000e-01 3.0000000e+00 2.5500000e+01 
7.5000000e-01 3.0000000e+00 2.6000000e+01 
7.5000000e-01 3.0000000e+00 2.6500000e+01 
7.5000000e-01 3.0000000e+00 2.7000000e+01 
7.5000000e-01 3.0000000e+00 2.7500000e+01 
7.5000000e-01 3.0000000e+00 2.8000000e+01 
7.5000000e-01 3.0000000e+00 2.8500000e+01 
7.5000000e-01 3.0000000e+00 2.9000000e+01 
7.5000000e-01 3.0000000e+00 2.9500000e+01 
7.5000000e-01 3.0000000e+00 3.0000000e+01 
7.5000000e-01 3.0000000e+00 3.0500000e+01 
7.5000000e-01 3.0000000e+00 3.1000000e+01 
7.5000000e-01 3.0000000e+00 3.1500000e+01 
7.5000000e-01 3.0000000e+00 3.2000000e+01 
7.5000000e-01 3.0000000e+00 3.2500000e+01 
7.5000000e-01 3.0000000e+00 3.3000000e+01 
7.5000000e-01 3.0000000e+00 3.3500000e+01 
7.5000000e-01 3.0000000e+00 3.4000000e+01 
7.5000000e-01 3.0000000e+00 3.4500000e+01 
7.5000000e-01 3.0000000e+00 3.5000000e+01 
7.5000000e-01 3.0000000e+00 3.5500000e+01 
7.5000000e-01 3.0000000e+00 3.6000000e+01 
7.5000000e-01 3.0000000e+00 3.6500000e+01 
7.5000000e-01 3.0000000e+00 3.7000000e+01 
7.5000000e-01 3.0000000e+00 3.7500000e+01 
7.5000000e-01 3.0000000e+00 3.8000000e+01 
7.5000000e-01 3.0000000e+00 3.8500000e+01 
7.5000000e-01 3.0000000e+00 3.9000000e+01 
7.5000000e-01 3.0000000e+00 3.9500000e+01 
7.5000000e-01 3.0000000e+00 4.0000000e+01 
7.5000000e-01 3.0000000e+00 4.0500000e+01 
7.5000000e-01 3.0000000e+00 4.1000000e+01 
7.5000000e-01 3.0000000e+00 4.1500000e+01 
7.5000000e-01 3.0000000e+00 4.2000000e+01 
7.5000000e-01 3.0000000e+00 4.2500000e+01 
7.5000000e-01 3.0000000e+00 4.3000000e+01 
7.5000000e-01 3.0000000e+00 4.3500000e+01 
7.5000000e-01 3.0000000e+00 4.4000000e+01 
7.5000000e-01 3.0000000e+00 4.4500000e+01 
7.5000000e-01 3.0000000e+00 4.5000000e+01 
7.5000000e-01 3.0000000e+00 4.5500000e+01 
7.5000000e-01 3.0000000e+00 4.6000000e+01 
7.5000000e-01 3.0000000e+00 4.6500000e+01 
7.5000000e-01 3.0000000e+00 4.7000000e+01 
7.5000000e-01 3.0000000e+00 4.7500000e+01 
7.5000000e-01 3.0000000e+00 4.8000000e+01 
7.5000000e-01 3.0000000e+00 4.8500000e+01 
7.5000000e-01 3.0000000e+00 4.9000000e+01 
7.5000000e-01 3.0000000e+00 4.9500000e+01 
7.5000000e-01 3.0250001e+00 0.0000000e+00 
7.5000000e-01 3.0250001e+00 5.0000000e-01 
7.5000000e-01 3.0250001e+00 1.0000000e+00 
7.5000000e-01 3.0250001e+00 1.5000000e+00 
7.5000000e-01 3.0250001e+00 2.0000000e+00 
7.5000000e-01 3.0250001e+00 2.5000000e+00 
7.5000000e-01 3.0250001e+00 3.0000000e+00 
7.5000000e-01 3.0250001e+00 3.5000000e+00 
7.5000000e-01 3.0250001e+00 4.0000000e+00 
7.5000000e-01 3.0250001e+00 4.5000000e+00 
7.5000000e-01 3.0250001e+00 5.0000000e+00 
7.5000000e-01 3.0250001e+00 5.5000000e+00 
7.5000000e-01 3.0250001e+00 6.0000000e+00 
7.5000000e-01 3.0250001e+00 6.5000000e+00 
7.5000000e-01 3.0250001e+00 7.0000000e+00 
7.5000000e-01 3.0250001e+00 7.5000000e+00 
7.5000000e-01 3.0250001e+00 8.0000000e+00 
7.5000000e-01 3.0250001e+00 8.5000000e+00 
7.5000000e-01 3.0250001e+00 9.0000000e+00 
7.5000000e-01 3.0250001e+00 9.5000000e+00 
7.5000000e-01 3.0250001e+00 1.0000000e+01 
7.5000000e-01 3.0250001e+00 1.0500000e+01 
7.5000000e-01 3.0250001e+00 1.1000000e+01 
7.5000000e-01 3.0250001e+00 1.1500000e+01 
7.5000000e-01 3.0250001e+00 1.2000000e+01 
7.5000000e-01 3.0250001e+00 1.2500000e+01 
7.5000000e-01 3.0250001e+00 1.3000000e+01 
7.5000000e-01 3.0250001e+00 1.3500000e+01 
7.5000000e-01 3.0250001e+00 1.4000000e+01 
7.5000000e-01 3.0250001e+00 1.4500000e+01 
7.5000000e-01 3.0250001e+00 1.5000000e+01 
7.5000000e-01 3.0250001e+00 1.5500000e+01 
7.5000000e-01 3.0250001e+00 1.6000000e+01 
7.5000000e-01 3.0250001e+00 1.6500000e+01 
7.5000000e-01 3.0250001e+00 1.7000000e+01 
7.5000000e-01 3.0250001e+00 1.7500000e+01 
7.5000000e-01 3.0250001e+00 1.8000000e+01 
7.5000000e-01 3.0250001e+00 1.8500000e+01 
7.5000000e-01 3.0250001e+00 1.9000000e+01 
7.5000000e-01 3.0250001e+00 1.9500000e+01 
7.5000000e-01 3.0250001e+00 2.0000000e+01 
7.5000000e-01 3.0250001e+00 2.0500000e+01 
7.5000000e-01 3.0250001e+00 2.1000000e+01 
7.5000000e-01 3.0250001e+00 2.1500000e+01 
7.5000000e-01 3.0250001e+00 2.2000000e+01 
7.5000000e-01 3.0250001e+00 2.2500000e+01 
7.5000000e-01 3.0250001e+00 2.3000000e+01 
7.5000000e-01 3.0250001e+00 2.3500000e+01 
7.5000000e-01 3.0250001e+00 2.4000000e+01 
7.5000000e-01 3.0250001e+00 2.4500000e+01 
7.5000000e-01 3.0250001e+00 2.5000000e+01 
7.5000000e-01 3.0250001e+00 2.5500000e+01 
7.5000000e-01 3.0250001e+00 2.6000000e+01 
7.5000000e-01 3.0250001e+00 2.6500000e+01 
7.5000000e-01 3.0250001e+00 2.7000000e+01 
7.5000000e-01 3.0250001e+00 2.7500000e+01 
7.5000000e-01 3.0250001e+00 2.8000000e+01 
7.5000000e-01 3.0250001e+00 2.8500000e+01 
7.5000000e-01 3.0250001e+00 2.9000000e+01 
7.5000000e-01 3.0250001e+00 2.9500000e+01 
7.5000000e-01 3.0250001e+00 3.0000000e+01 
7.5000000e-01 3.0250001e+00 3.0500000e+01 
7.5000000e-01 3.0250001e+00 3.1000000e+01 
7.5000000e-01 3.0250001e+00 3.1500000e+01 
7.5000000e-01 3.0250001e+00 3.2000000e+01 
7.5000000e-01 3.0250001e+00 3.2500000e+01 
7.5000000e-01 3.0250001e+00 3.3000000e+01 
7.5000000e-01 3.0250001e+00 3.3500000e+01 
7.5000000e-01 3.0250001e+00 3.4000000e+01 
7.5000000e-01 3.0250001e+00 3.4500000e+01 
7.5000000e-01 3.0250001e+00 3.5000000e+01 
7.5000000e-01 3.0250001e+00 3.5500000e+01 
7.5000000e-01 3.0250001e+00 3.6000000e+01 
7.5000000e-01 3.0250001e+00 3.6500000e+01 
7.5000000e-01 3.0250001e+00 3.7000000e+01 
7.5000000e-01 3.0250001e+00 3.7500000e+01 
7.5000000e-01 3.0250001e+00 3.8000000e+01 
7.5000000e-01 3.0250001e+00 3.8500000e+01 
7.5000000e-01 3.0250001e+00 3.9000000e+01 
7.5000000e-01 3.0250001e+00 3.9500000e+01 
7.5000000e-01 3.0250001e+00 4.0000000e+01 
7.5000000e-01 3.0250001e+00 4.0500000e+01 
7.5000000e-01 3.0250001e+00 4.1000000e+01 
7.5000000e-01 3.0250001e+00 4.1500000e+01 
7.5000000e-01 3.0250001e+00 4.2000000e+01 
7.5000000e-01 3.0250001e+00 4.2500000e+01 
7.5000000e-01 3.0250001e+00 4.3000000e+01 
7.5000000e-01 3.0250001e+00 4.3500000e+01 
7.5000000e-01 3.0250001e+00 4.4000000e+01 
7.5000000e-01 3.0250001e+00 4.4500000e+01 
7.5000000e-01 3.0250001e+00 4.5000000e+01 
7.5000000e-01 3.0250001e+00 4.5500000e+01 
7.5000000e-01 3.0250001e+00 4.6000000e+01 
7.5000000e-01 3.0250001e+00 4.6500000e+01 
7.5000000e-01 3.0250001e+00 4.7000000e+01 
7.5000000e-01 3.0250001e+00 4.7500000e+01 
7.5000000e-01 3.0250001e+00 4.8000000e+01 
7.5000000e-01 3.0250001e+00 4.8500000e+01 
7.5000000e-01 3.0250001e+00 4.9000000e+01 
7.5000000e-01 3.0250001e+00 4.9500000e+01 
7.5000000e-01 3.0250001e+00 5.0000000e+01 
1.5000000e+00 3.0000000e+00 2.5000000e+01 
3.0000000e+00 2.0000000e+00 2.5000000e+01 
4.0000000e+00 2.0000000e+00 2.5000000e+01 
5.0000000e+00 2.0000000e+00 2.5000000e+01 
0.0000000e+00 3.0000000e+00 2.5000000e+01 
0.0000000e+00 0.0000000e+00 1.0000000e+00 
0.0000000e+00 0.0000000e+00 2.0000000e+00 
0.0000000e+00 0.0000000e+00 3.0000000e+00 
0.0000000e+00 0.0000000e+00 4.0000000e+00 
0.0000000e+00 0.0000000e+00 5.0000000e+00 
[...]
POINT_DATA 1919
FIELD FieldData 3
DISPLACEMENT 3 1919  float
0.0000000e+00 0.0000000e+00 0.0000000e+00 
0.0000000e+00 0.0000000e+00 0.0000000e+00 
0.0000000e+00 0.0000000e+00 0.0000000e+00 
0.0000000e+00 0.0000000e+00 0.0000000e+00 
-6.7810322e-07 -2.7246207e-07 3.7183750e-07 
2.8154406e-07 -1.6956712e-06 1.5756418e-06 
0.0000000e+00 7.5466090e-07 0.0000000e+00 
0.0000000e+00 -1.6395286e-06 0.0000000e+00 
-1.1529610e-06 -7.4604810e-07 7.9315384e-07 
-7.4126078e-08 -1.9268330e-06 2.7004176e-06 
-7.1112902e-07 5.3431677e-07 -6.1105305e-07 
2.6040595e-07 -1.9001177e-06 2.1669516e-06 
0.0000000e+00 1.8644286e-06 0.0000000e+00 
0.0000000e+00 -1.9326694e-06 0.0000000e+00 
-5.4549614e-06 -6.3118705e-07 5.8274136e-06 
-2.6387759e-06 -7.5959215e-06 4.7703425e-06 
-7.6586521e-06 -9.7468155e-06 -1.9386948e-06 
8.1436713e-07 -2.2202952e-05 9.9716781e-06 
0.0000000e+00 7.9346946e-06 0.0000000e+00 
0.0000000e+00 6.7645456e-06 0.0000000e+00 
-2.6013458e-06 -1.0609872e-05 4.7747329e-07 
-2.0519790e-06 -1.3009207e-05 1.1364972e-06 
-4.5853235e-06 -1.6145803e-05 -1.4532543e-06 
-5.5414494e-06 -1.9306875e-05 -3.1678319e-06 
-3.3780252e-06 -2.1591590e-05 -2.4010637e-06 
-3.6708032e-06 -2.1959526e-05 1.5955725e-06 
-2.5775321e-06 -2.1017733e-05 5.7481211e-06 
-4.6072873e-06 -1.9976360e-05 1.0475882e-05 
-6.0204202e-06 -1.8876261e-05 1.3044732e-05 
-6.4383976e-06 -1.6036192e-05 1.5248302e-05 
-6.6814046e-06 -1.1314783e-05 1.3975521e-05 
-3.4005307e-06 -5.6290105e-06 1.3435822e-05 
-1.5596447e-06 -2.0930393e-06 1.6503362e-05 
-2.9988053e-06 -3.8456187e-06 1.9094978e-05 
-7.3753140e-06 -1.0239957e-05 1.9721345e-05 
-1.0591210e-05 -1.5613621e-05 1.4280438e-05 
-1.1466744e-05 -1.6268719e-05 1.0394567e-05 
-9.6332451e-06 -1.3862918e-05 -1.0376549e-06 
-6.8372929e-06 -1.4053953e-05 -7.5474536e-06 
-8.0915215e-06 -2.0396057e-05 -1.5047395e-05 
-7.3130414e-06 -2.7892853e-05 -1.6966836e-05 
-6.3591815e-06 -2.7755259e-05 -1.4672519e-05 
-1.1487620e-05 -1.6811324e-05 -1.5915055e-05 
-9.4271518e-06 -6.6151699e-07 -1.7947687e-05 
-1.6099055e-07 7.8032344e-06 -1.9696310e-05 
-1.2794989e-06 -2.3015821e-06 -2.1038575e-05 
-7.1758873e-06 -1.8482449e-05 -1.9880257e-05 
-6.5556906e-06 -8.3607774e-06 -1.1363963e-05 
-5.8694008e-07 3.7633938e-05 7.7990592e-08 
-9.5691928e-07 9.0992631e-05 3.5732062e-06 
2.7733226e-06 1.1378546e-04 1.8033421e-05 
-1.1849535e-06 7.7754783e-05 3.6795071e-05 
1.1729569e-07 -8.2669212e-06 5.5159617e-05 
-5.1468446e-06 -1.2712105e-04 1.2915730e-04 
-2.1572185e-05 -3.2464301e-04 1.6573512e-04 
-3.7122340e-05 -7.0389436e-04 1.4242515e-04 
-8.2105485e-05 -1.4179456e-03 2.5260079e-04 
-1.2216042e-04 -2.5256183e-03 1.6643837e-04 
-1.8849775e-04 -3.8441427e-03 2.5580879e-04 
-2.4057078e-04 -4.7576837e-03 6.9869893e-05 
-2.6604012e-04 -4.7002840e-03 4.0944986e-05 
-2.5402967e-04 -4.2284285e-03 9.6834710e-06 
-2.5054891e-04 -4.1034035e-03 -3.0552768e-05 
-1.9791334e-04 -4.3908488e-03 -9.3355775e-05 
-3.3987581e-04 -4.5462707e-03 -1.5883167e-04 
-1.8896440e-04 -3.7946664e-03 -8.9495741e-05 
-1.2804149e-04 -2.5543580e-03 -3.4183741e-04 
-3.4559605e-05 -1.3447976e-03 -1.9543486e-04 
-1.1900023e-05 -4.6910139e-04 -1.8081479e-04 
-3.4604352e-07 3.2488464e-05 -1.0464696e-04 
1.2291793e-05 2.2417252e-04 -7.1103066e-05 
1.7736329e-05 2.3141295e-04 -4.0578907e-05 
1.1569900e-05 1.7424538e-04 -2.0306768e-05 
1.0925089e-05 1.1135681e-04 -1.6773434e-05 
5.2866753e-06 5.7129797e-05 -1.3638344e-06 
2.2384736e-06 1.0559194e-05 -3.9573206e-06 
-2.4282822e-06 -2.0762973e-05 2.8335182e-07 
-5.8962513e-07 -2.8659648e-05 -1.0495851e-06 
1.6933988e-06 -1.9837493e-05 3.8917242e-06 
3.8994185e-06 -1.4520403e-05 6.4989131e-06 
2.8990651e-06 -2.4162335e-05 8.8034658e-06 
-6.5511058e-06 -3.7777329e-05 8.0937907e-06 
-1.3084085e-05 -3.7934708e-05 8.3475416e-06 
-1.1896114e-05 -1.9961786e-05 4.1116664e-06 
-1.1075320e-05 1.8081106e-06 5.9723557e-06 
-1.1677346e-05 9.0056974e-06 5.1845524e-07 
-8.2487950e-06 2.4730613e-07 -3.7234968e-06 
-1.2513713e-05 -8.6517239e-06 -5.3009162e-06 
-1.0445902e-05 8.5929614e-06 -4.9368182e-06 
-6.6672656e-06 6.6977547e-05 4.3368545e-06 
-2.2167017e-06 1.3237893e-04 3.3514021e-05 
-7.1469540e-06 1.4053653e-04 4.4080625e-05 
-2.4350604e-06 5.4334985e-05 5.7485919e-05 
-2.3773819e-06 -1.3019798e-04 9.3359457e-05 
-4.4388595e-05 -4.1705987e-04 1.6202917e-04 
-1.3182429e-04 -8.6323504e-04 3.1194329e-04 
-1.0815212e-04 -1.5883107e-03 2.8776072e-04 
-1.2593246e-04 -2.6638510e-03 1.6210711e-04 
-1.9915988e-04 -3.9694123e-03 2.3817034e-04 
-2.4510274e-04 -4.8739682e-03 8.8218898e-05 
-2.5768043e-04 -4.7109965e-03 3.5749497e-05 
-2.3152599e-04 -4.1760402e-03 7.9139863e-06 
-2.0544001e-04 -4.0059746e-03 -5.0511267e-06 
-2.0904411e-04 -4.2849765e-03 -1.0000913e-04 
-2.2448253e-04 -4.4459351e-03 -1.5880881e-04 
-2.0727928e-04 -3.5748368e-03 -1.6038596e-04 
-1.2347539e-04 -2.2605921e-03 -2.8572313e-04 
-8.2463368e-05 -1.0824437e-03 -1.5450375e-04 
-2.5159903e-05 -2.9360587e-04 -1.7048606e-04 
-8.3539471e-06 1.0752356e-04 -9.0113972e-05 
7.9352576e-06 2.3414794e-04 -6.5965891e-05 
9.9317467e-06 2.1912518e-04 -3.9834889e-05 
1.2166333e-05 1.6022506e-04 -1.5303456e-05 
1.2314055e-05 9.8575838e-05 -1.2279756e-05 
5.0682102e-06 4.4912700e-05 -3.6578758e-06 
3.4445613e-06 3.9177507e-06 -4.7722410e-06 
3.0809631e-06 -1.9667559e-05 -2.4621238e-06 
3.0988328e-06 -2.6511434e-05 -5.1470977e-07 
2.4949409e-06 -2.4316078e-05 3.3894769e-06 
0.0000000e+00 -9.7573075e-06 0.0000000e+00 
0.0000000e+00 -1.0631949e-05 0.0000000e+00 
0.0000000e+00 -1.3013890e-05 0.0000000e+00 
0.0000000e+00 -1.6181051e-05 0.0000000e+00 
0.0000000e+00 -1.9340179e-05 0.0000000e+00 
0.0000000e+00 -2.1531050e-05 0.0000000e+00 
0.0000000e+00 -2.1923925e-05 0.0000000e+00 
0.0000000e+00 -2.1064183e-05 0.0000000e+00 
0.0000000e+00 -2.0072586e-05 0.0000000e+00 
0.0000000e+00 -1.8861903e-05 0.0000000e+00 
0.0000000e+00 -1.6021728e-05 0.0000000e+00 
0.0000000e+00 -1.1219998e-05 0.0000000e+00 
0.0000000e+00 -5.5918376e-06 0.0000000e+00 
0.0000000e+00 -2.2087602e-06 0.0000000e+00 
0.0000000e+00 -4.0648229e-06 0.0000000e+00 
0.0000000e+00 -1.0243677e-05 0.0000000e+00 
0.0000000e+00 -1.5471256e-05 0.0000000e+00 
0.0000000e+00 -1.6072338e-05 0.0000000e+00 
0.0000000e+00 -1.3849297e-05 0.0000000e+00 
0.0000000e+00 -1.4367335e-05 0.0000000e+00 
0.0000000e+00 -2.0629141e-05 0.0000000e+00 
0.0000000e+00 -2.7823949e-05 0.0000000e+00 
0.0000000e+00 -2.7507318e-05 0.0000000e+00 
0.0000000e+00 -1.6451248e-05 0.0000000e+00 
0.0000000e+00 -5.3470757e-07 0.0000000e+00 
0.0000000e+00 7.0562919e-06 0.0000000e+00 
0.0000000e+00 -3.2067303e-06 0.0000000e+00 
0.0000000e+00 -1.8069124e-05 0.0000000e+00 
0.0000000e+00 -7.1494974e-06 0.0000000e+00 
0.0000000e+00 3.8389597e-05 0.0000000e+00 
0.0000000e+00 9.1260124e-05 0.0000000e+00 
0.0000000e+00 1.1250561e-04 0.0000000e+00 
0.0000000e+00 7.6937118e-05 0.0000000e+00 
0.0000000e+00 -6.6685798e-06 0.0000000e+00 
0.0000000e+00 -1.2533618e-04 0.0000000e+00 
0.0000000e+00 -3.2210766e-04 0.0000000e+00 
0.0000000e+00 -7.0577330e-04 0.0000000e+00 
0.0000000e+00 -1.4259721e-03 0.0000000e+00 
0.0000000e+00 -2.5428578e-03 0.0000000e+00 
0.0000000e+00 -3.8591889e-03 0.0000000e+00 
0.0000000e+00 -4.7829896e-03 0.0000000e+00 
0.0000000e+00 -4.7236262e-03 0.0000000e+00 
0.0000000e+00 -4.2563351e-03 0.0000000e+00 
0.0000000e+00 -4.1256887e-03 0.0000000e+00 
0.0000000e+00 -4.4162162e-03 0.0000000e+00 
0.0000000e+00 -4.5706034e-03 0.0000000e+00 
0.0000000e+00 -3.8243339e-03 0.0000000e+00 
0.0000000e+00 -2.5649858e-03 0.0000000e+00 
0.0000000e+00 -1.3539094e-03 0.0000000e+00 
0.0000000e+00 -4.7284277e-04 0.0000000e+00 
0.0000000e+00 3.0788477e-05 0.0000000e+00 
0.0000000e+00 2.2500473e-04 0.0000000e+00 
0.0000000e+00 2.3407313e-04 0.0000000e+00 
0.0000000e+00 1.7573866e-04 0.0000000e+00 
0.0000000e+00 1.1156392e-04 0.0000000e+00 
0.0000000e+00 5.6730150e-05 0.0000000e+00 
0.0000000e+00 1.0726039e-05 0.0000000e+00 
0.0000000e+00 -2.0186939e-05 0.0000000e+00 
0.0000000e+00 -2.8316543e-05 0.0000000e+00 
0.0000000e+00 -2.0146115e-05 0.0000000e+00 
0.0000000e+00 -1.5201960e-05 0.0000000e+00 
0.0000000e+00 -2.4447208e-05 0.0000000e+00 
0.0000000e+00 -3.7526774e-05 0.0000000e+00 
0.0000000e+00 -3.7336777e-05 0.0000000e+00 
0.0000000e+00 -1.9731217e-05 0.0000000e+00 
0.0000000e+00 1.4747555e-06 0.0000000e+00 
0.0000000e+00 8.6349537e-06 0.0000000e+00 
0.0000000e+00 -4.8113139e-07 0.0000000e+00 
0.0000000e+00 -8.9005534e-06 0.0000000e+00 
0.0000000e+00 1.0302694e-05 0.0000000e+00 
0.0000000e+00 6.8663510e-05 0.0000000e+00 
0.0000000e+00 1.3214271e-04 0.0000000e+00 
0.0000000e+00 1.3951665e-04 0.0000000e+00 
0.0000000e+00 5.3456963e-05 0.0000000e+00 
0.0000000e+00 -1.2913981e-04 0.0000000e+00 
0.0000000e+00 -4.1465470e-04 0.0000000e+00 
0.0000000e+00 -8.6398376e-04 0.0000000e+00 
0.0000000e+00 -1.5936400e-03 0.0000000e+00 
0.0000000e+00 -2.6817257e-03 0.0000000e+00 
0.0000000e+00 -3.9908090e-03 0.0000000e+00 
0.0000000e+00 -4.9033677e-03 0.0000000e+00 
0.0000000e+00 -4.7307555e-03 0.0000000e+00 
0.0000000e+00 -4.1992287e-03 0.0000000e+00 
0.0000000e+00 -4.0282058e-03 0.0000000e+00 
0.0000000e+00 -4.3172752e-03 0.0000000e+00 
0.0000000e+00 -4.4697062e-03 0.0000000e+00 
0.0000000e+00 -3.5975548e-03 0.0000000e+00 
0.0000000e+00 -2.2731815e-03 0.0000000e+00 
0.0000000e+00 -1.0916204e-03 0.0000000e+00 
0.0000000e+00 -2.9691460e-04 0.0000000e+00 
0.0000000e+00 1.0785030e-04 0.0000000e+00 
0.0000000e+00 2.3586833e-04 0.0000000e+00 
0.0000000e+00 2.2094828e-04 0.0000000e+00 
0.0000000e+00 1.6095147e-04 0.0000000e+00 
0.0000000e+00 9.8828015e-05 0.0000000e+00 
0.0000000e+00 4.5222292e-05 0.0000000e+00 
0.0000000e+00 4.2158163e-06 0.0000000e+00 
0.0000000e+00 -1.9661204e-05 0.0000000e+00 
0.0000000e+00 -2.6742438e-05 0.0000000e+00 
0.0000000e+00 -2.4453619e-05 0.0000000e+00 
0.0000000e+00 -2.2175895e-05 0.0000000e+00 
-1.5910904e-05 -2.5739953e-05 -1.5787843e-04 
1.3666773e-05 -3.0446026e-06 -3.2156374e-06 
1.1044956e-05 -5.8008942e-07 5.3550607e-06 
4.6117375e-06 4.2912857e-06 5.7638849e-06 
0.0000000e+00 8.9254121e-05 0.0000000e+00 
0.0000000e+00 0.0000000e+00 0.0000000e+00 
0.0000000e+00 0.0000000e+00 0.0000000e+00 
0.0000000e+00 0.0000000e+00 0.0000000e+00 
0.0000000e+00 0.0000000e+00 0.0000000e+00 
0.0000000e+00 0.0000000e+00 0.0000000e+00 
0.0000000e+00 0.0000000e+00 0.0000000e+00 
0.0000000e+00 0.0000000e+00 0.0000000e+00 
0.0000000e+00 0.0000000e+00 0.0000000e+00 
0.0000000e+00 0.0000000e+00 0.0000000e+00 
0.0000000e+00 0.0000000e+00 0.0000000e+00 
0.0000000e+00 0.0000000e+00 0.0000000e+00 
0.0000000e+00 0.0000000e+00 0.0000000e+00 
0.0000000e+00 0.0000000e+00 0.0000000e+00 
0.0000000e+00 0.0000000e+00 0.0000000e+00 
0.0000000e+00 0.0000000e+00 0.0000000e+00 
0.0000000e+00 0.0000000e+00 0.0000000e+00 
0.0000000e+00 0.0000000e+00 0.0000000e+00 
0.0000000e+00 0.0000000e+00 0.0000000e+00 
0.0000000e+00 0.0000000e+00 0.0000000e+00 
0.0000000e+00 0.0000000e+00 0.0000000e+00 
0.0000000e+00 0.0000000e+00 0.0000000e+00 
0.0000000e+00 0.0000000e+00 0.0000000e+00 
0.0000000e+00 0.0000000e+00 0.0000000e+00 
0.0000000e+00 0.0000000e+00 0.0000000e+00 
0.0000000e+00 0.0000000e+00 0.0000000e+00 
0.0000000e+00 0.0000000e+00 0.0000000e+00 
0.0000000e+00 0.0000000e+00 0.0000000e+00 
0.0000000e+00 0.0000000e+00 0.0000000e+00 
0.0000000e+00 0.0000000e+00 0.0000000e+00 
0.0000000e+00 0.0000000e+00 0.0000000e+00 
0.0000000e+00 0.0000000e+00 0.0000000e+00 
0.0000000e+00 0.0000000e+00 0.0000000e+00 
0.0000000e+00 0.0000000e+00 0.0000000e+00 
0.0000000e+00 0.0000000e+00 0.0000000e+00 
0.0000000e+00 0.0000000e+00 0.0000000e+00 
0.0000000e+00 0.0000000e+00 0.0000000e+00 
0.0000000e+00 0.0000000e+00 0.0000000e+00 
0.0000000e+00 0.0000000e+00 0.0000000e+00 
0.0000000e+00 0.0000000e+00 0.0000000e+00 
0.0000000e+00 0.0000000e+00 0.0000000e+00 
0.0000000e+00 0.0000000e+00 0.0000000e+00 
0.0000000e+00 0.0000000e+00 0.0000000e+00 
0.0000000e+00 0.0000000e+00 0.0000000e+00 
0.0000000e+00 0.0000000e+00 0.0000000e+00 
0.0000000e+00 0.0000000e+00 0.0000000e+00 
0.0000000e+00 0.0000000e+00 0.0000000e+00 
0.0000000e+00 0.0000000e+00 0.0000000e+00 
0.0000000e+00 0.0000000e+00 0.0000000e+00 
0.0000000e+00 0.0000000e+00 0.0000000e+00 
0.0000000e+00 0.0000000e+00 0.0000000e+00 
0.0000000e+00 0.0000000e+00 0.0000000e+00 
0.0000000e+00 0.0000000e+00 0.0000000e+00 
0.0000000e+00 0.0000000e+00 0.0000000e+00 
0.0000000e+00 0.0000000e+00 0.0000000e+00 
0.0000000e+00 0.0000000e+00 0.0000000e+00 
0.0000000e+00 0.0000000e+00 0.0000000e+00 
0.0000000e+00 0.0000000e+00 0.0000000e+00 
0.0000000e+00 0.0000000e+00 0.0000000e+00 
0.0000000e+00 0.0000000e+00 0.0000000e+00 
0.0000000e+00 0.0000000e+00 0.0000000e+00 
0.0000000e+00 0.0000000e+00 0.0000000e+00 
0.0000000e+00 0.0000000e+00 0.0000000e+00 
0.0000000e+00 0.0000000e+00 0.0000000e+00 
0.0000000e+00 0.0000000e+00 0.0000000e+00 
0.0000000e+00 0.0000000e+00 0.0000000e+00 
0.0000000e+00 0.0000000e+00 0.0000000e+00 
0.0000000e+00 0.0000000e+00 0.0000000e+00 
0.0000000e+00 0.0000000e+00 0.0000000e+00 
0.0000000e+00 0.0000000e+00 0.0000000e+00 
0.0000000e+00 0.0000000e+00 0.0000000e+00 
0.0000000e+00 0.0000000e+00 0.0000000e+00 
0.0000000e+00 0.0000000e+00 0.0000000e+00 
0.0000000e+00 0.0000000e+00 0.0000000e+00 
0.0000000e+00 0.0000000e+00 0.0000000e+00 
0.0000000e+00 0.0000000e+00 0.0000000e+00 
0.0000000e+00 0.0000000e+00 0.0000000e+00 
0.0000000e+00 0.0000000e+00 0.0000000e+00 
0.0000000e+00 0.0000000e+00 0.0000000e+00 
0.0000000e+00 0.0000000e+00 0.0000000e+00 
0.0000000e+00 0.0000000e+00 0.0000000e+00 
0.0000000e+00 0.0000000e+00 0.0000000e+00 
0.0000000e+00 0.0000000e+00 0.0000000e+00 
0.0000000e+00 0.0000000e+00 0.0000000e+00 
0.0000000e+00 0.0000000e+00 0.0000000e+00 
0.0000000e+00 0.0000000e+00 0.0000000e+00 
0.0000000e+00 0.0000000e+00 0.0000000e+00 
0.0000000e+00 0.0000000e+00 0.0000000e+00 
0.0000000e+00 0.0000000e+00 0.0000000e+00 
0.0000000e+00 0.0000000e+00 0.0000000e+00 
0.0000000e+00 0.0000000e+00 0.0000000e+00 
0.0000000e+00 0.0000000e+00 0.0000000e+00 
0.0000000e+00 0.0000000e+00 0.0000000e+00 
0.0000000e+00 0.0000000e+00 0.0000000e+00 
0.0000000e+00 0.0000000e+00 0.0000000e+00 
0.0000000e+00 0.0000000e+00 0.0000000e+00 
0.0000000e+00 0.0000000e+00 0.0000000e+00 
0.0000000e+00 0.0000000e+00 0.0000000e+00 
0.0000000e+00 0.0000000e+00 0.0000000e+00 
0.0000000e+00 0.0000000e+00 0.0000000e+00 
0.0000000e+00 0.0000000e+00 0.0000000e+00 
0.0000000e+00 0.0000000e+00 0.0000000e+00 
0.0000000e+00 0.0000000e+00 0.0000000e+00 
0.0000000e+00 0.0000000e+00 0.0000000e+00 
0.0000000e+00 0.0000000e+00 0.0000000e+00 
0.0000000e+00 0.0000000e+00 0.0000000e+00 
0.0000000e+00 0.0000000e+00 0.0000000e+00 
-1.7538523e-06 1.4274580e-07 1.3841675e-06 
-1.9561119e-06 9.2100538e-07 2.0722073e-06 
-2.6263883e-06 1.9531071e-06 1.3430208e-06 
-2.8443269e-06 1.8896122e-06 2.3643915e-06 
-2.5881268e-06 2.8392890e-06 3.5209425e-06 
-2.3405880e-06 1.4110748e-06 1.3702764e-06 
-3.0283684e-06 7.0797034e-07 1.5563702e-06 
-2.2658237e-06 1.7207431e-06 1.9344611e-06 
-2.0732521e-06 -8.0801846e-07 -1.4124960e-06 
-2.9867904e-06 3.0867187e-07 -3.1368802e-07 
-3.2426890e-06 5.8838191e-06 -3.5421745e-06 
-3.1743205e-06 -4.5447496e-06 -5.2000355e-06 
-2.4851167e-06 -4.7337934e-07 -3.4618406e-06 
1.6944006e-06 3.5685161e-06 -7.0320075e-06 
3.1121199e-06 -4.0435234e-06 -7.8219136e-06 
6.6076304e-06 -5.4066031e-06 -1.0330070e-05 
2.0823860e-05 -4.1884341e-06 -1.0261753e-05 
2.5167394e-05 -1.3247529e-05 -1.1664032e-05 
3.8156981e-05 -1.0706161e-05 -3.2894857e-06 
4.4241406e-05 -1.5066596e-05 -4.4213309e-07 
4.4377786e-05 -1.4109562e-05 1.1965011e-06 
3.7166541e-05 -8.2133138e-06 1.0271180e-05 
2.5172474e-05 -8.0053196e-06 1.1569018e-05 
1.8007240e-05 -4.5696906e-06 1.2025570e-05 
9.0894591e-06 -4.7949487e-07 7.9489473e-06 
8.1659164e-07 3.6981121e-06 2.6475716e-06 
-6.5127506e-07 -8.9842041e-07 2.4121055e-06 
-2.1388637e-06 2.5444990e-06 3.1686436e-06 
-1.3898992e-06 3.2203118e-06 -3.9323345e-06 
-3.9672541e-06 1.1649803e-06 2.8555843e-07 
-2.5219108e-06 -1.6069585e-07 7.2586397e-07 
3.0865721e-08 1.0070565e-06 -1.8040005e-07 
-8.5337018e-07 -6.4520800e-06 -3.2561968e-06 
2.4391552e-06 7.8892381e-06 -4.9306468e-06 
6.6613552e-06 -6.7591150e-06 -6.5000040e-06 
6.9857815e-06 -1.2915434e-05 -1.0394042e-05 
2.0860471e-05 -6.2504710e-06 -1.4824524e-05 
3.3895805e-05 -1.3262633e-05 -1.3796557e-05 
4.0808565e-05 -1.3635402e-05 -1.1224934e-05 
4.6143741e-05 -1.2706823e-05 -2.1883029e-06 
4.5697670e-05 -1.4945439e-05 4.9997684e-06 
3.7538415e-05 -1.3779521e-05 1.3770597e-05 
2.8419245e-05 -9.7356942e-06 1.4340697e-05 
1.6559858e-05 -4.3867121e-06 1.0092527e-05 
8.7192684e-06 -5.8982448e-07 8.6746932e-06 
5.1793363e-06 1.3390753e-07 5.4817933e-06 
1.4948598e-06 4.9686611e-07 1.8792790e-06 
8.5858183e-08 3.5563269e-07 3.3268199e-07 
4.3757829e-08 -2.0459971e-07 1.2481509e-06 
0.0000000e+00 4.8311122e-06 0.0000000e+00 
0.0000000e+00 9.5714095e-06 0.0000000e+00 
0.0000000e+00 1.0967846e-05 0.0000000e+00 
0.0000000e+00 1.0582992e-05 0.0000000e+00 
0.0000000e+00 1.1192571e-05 0.0000000e+00 
0.0000000e+00 8.5492247e-06 0.0000000e+00 
0.0000000e+00 4.0682603e-06 0.0000000e+00 
0.0000000e+00 1.0574807e-05 0.0000000e+00 
0.0000000e+00 5.4372413e-06 0.0000000e+00 
0.0000000e+00 2.4368060e-06 0.0000000e+00 
0.0000000e+00 1.2559123e-05 0.0000000e+00 
0.0000000e+00 1.2037446e-05 0.0000000e+00 
0.0000000e+00 -1.2822281e-05 0.0000000e+00 
0.0000000e+00 9.8050468e-06 0.0000000e+00 
0.0000000e+00 8.9033565e-06 0.0000000e+00 
0.0000000e+00 -7.0169190e-06 0.0000000e+00 
0.0000000e+00 -4.9043862e-05 0.0000000e+00 
0.0000000e+00 -1.4613736e-04 0.0000000e+00 
0.0000000e+00 -3.5669122e-04 0.0000000e+00 
0.0000000e+00 -4.6718208e-04 0.0000000e+00 
0.0000000e+00 -5.3349597e-04 0.0000000e+00 
0.0000000e+00 -5.1039649e-04 0.0000000e+00 
0.0000000e+00 -4.0561301e-04 0.0000000e+00 
0.0000000e+00 -1.8575296e-04 0.0000000e+00 
0.0000000e+00 -3.3766475e-05 0.0000000e+00 
0.0000000e+00 9.7374887e-06 0.0000000e+00 
0.0000000e+00 5.8256171e-07 0.0000000e+00 
0.0000000e+00 9.9101844e-06 0.0000000e+00 
0.0000000e+00 2.3971204e-06 0.0000000e+00 
0.0000000e+00 -4.3059972e-06 0.0000000e+00 
0.0000000e+00 1.1243079e-05 0.0000000e+00 
0.0000000e+00 1.5502656e-05 0.0000000e+00 
0.0000000e+00 -1.6828855e-06 0.0000000e+00 
0.0000000e+00 2.9346464e-05 0.0000000e+00 
0.0000000e+00 2.6981512e-05 0.0000000e+00 
0.0000000e+00 -9.7808806e-06 0.0000000e+00 
0.0000000e+00 -7.4592572e-05 0.0000000e+00 
0.0000000e+00 -1.5564647e-04 0.0000000e+00 
0.0000000e+00 -3.6755102e-04 0.0000000e+00 
0.0000000e+00 -4.8014076e-04 0.0000000e+00 
0.0000000e+00 -5.1818392e-04 0.0000000e+00 
0.0000000e+00 -4.7727491e-04 0.0000000e+00 
0.0000000e+00 -3.4248669e-04 0.0000000e+00 
0.0000000e+00 -1.4970719e-04 0.0000000e+00 
0.0000000e+00 -2.5455420e-05 0.0000000e+00 
0.0000000e+00 1.1939030e-05 0.0000000e+00 
0.0000000e+00 1.3254172e-05 0.0000000e+00 
0.0000000e+00 4.0934488e-06 0.0000000e+00 
0.0000000e+00 1.2473952e-06 0.0000000e+00 
-1.3823554e-06 2.6062386e-07 7.7610849e-07 
-4.4227349e-07 1.0352624e-07 3.5795526e-07 
-7.6182630e-07 -1.7778621e-06 -1.1495649e-06 
-1.0010958e-06 -1.5267413e-07 -1.8716825e-06 
-1.7993301e-07 -1.3530687e-06 9.7199052e-07 
3.8586074e-07 -1.1971526e-06 4.4786344e-07 
7.7207022e-07 -1.6788049e-06 -6.2686075e-07 
5.5117522e-07 -1.2087706e-06 -4.6610180e-07 
-3.0937650e-07 -1.4889092e-07 -9.0390188e-07 
4.7564890e-07 -2.2008094e-06 2.7919348e-06 
-1.2947467e-06 -4.2580271e-07 -5.9938116e-06 
-1.3989983e-06 -2.0486284e-06 -2.3182274e-06 
0.0000000e+00 7.9116826e-06 0.0000000e+00 
0.0000000e+00 1.1630221e-05 0.0000000e+00 
0.0000000e+00 1.4647324e-05 0.0000000e+00 
0.0000000e+00 1.6301990e-05 0.0000000e+00 
0.0000000e+00 1.7575900e-05 0.0000000e+00 
0.0000000e+00 1.0458706e-05 0.0000000e+00 
0.0000000e+00 1.0745418e-05 0.0000000e+00 
0.0000000e+00 1.4934865e-05 0.0000000e+00 
0.0000000e+00 1.1374855e-05 0.0000000e+00 
0.0000000e+00 1.0532048e-05 0.0000000e+00 
0.0000000e+00 1.6419179e-05 0.0000000e+00 
0.0000000e+00 1.4642037e-05 0.0000000e+00 