# vtk DataFile Version 4.0
vtk output
ASCII
DATASET UNSTRUCTURED_GRID
POINTS 1919 float
0.0000000e+00 0.0000000e+00 0.0000000e+00 
0.0000000e+00 0.0000000e+00 5.0000000e+01 
5.0000000e+00 0.0000000e+00 0.0000000e+00 
5.0000000e+00 0.0000000e+00 5.0000000e+01 
5.0000000e+00 1.0000000e+00 0.0000000e+00 
5.0000000e+00 1.0000000e+00 5.0000000e+01 
0.0000000e+00 1.0000000e+00 0.0000000e+00 
0.0000000e+00 1.0000000e+00 5.0000000e+01 
5.0000000e+00 2.0000000e+00 0.0000000e+00 
5.0000000e+00 2.0000000e+00 5.0000000e+01 
3.0000000e+00 2.0000000e+00 0.0000000e+00 
3.0000000e+00 2.0000000e+00 5.0000000e+01 
0.0000000e+00 2.0000000e+00 0.0000000e+00 
0.0000000e+00 2.0000000e+00 5.0000000e+01 
1.5000000e+00 3.0000000e+00 0.0000000e+00 
1.5000000e+00 3.0000000e+00 5.0000000e+01 
7.5000000e-01 3.0000000e+00 0.0000000e+00 
7.5000000e-01 3.0000000e+00 5.0000000e+01 
0.0000000e+00 3.0000000e+00 0.0000000e+00 
0.0000000e+00 3.0000000e+00 5.0000000e+01 
7.5000000e-01 3.0000000e+00 5.0000000e-01 
7.5000000e-01 3.0000000e+00 1.0000000e+00 
7.5000000e-01 3.0000000e+00 1.5000000e+00 
7.5000000e-01 3.0000000e+00 2.0000000e+00 
7.5000000e-01 3.0000000e+00 2.5000000e+00 
7.5000000e-01 3.0000000e+00 3.0000000e+00 
7.5000000e-01 3.0000000e+00 3.5000000e+00 
7.5000000e-01 3.0000000e+00 4.0000000e+00 
7.5000000e-01 3.0000000e+00 4.5000000e+00 
7.5000000e-01 3.0000000e+00 5.0000000e+00 
7.5000000e-01 3.0000000e+00 5.5000000e+00 
7.5000000e-01 3.0000000e+00 6.0000000e+00 
7.5000000e-01 3.0000000e+00 6.5000000e+00 
7.5000000e-01 3.0000000e+00 7.0000000e+00 
7.5000000e-01 3.0000000e+00 7.5000000e+00 
7.5000000e-01 3.0000000e+00 8.0000000e+00 
7.5000000e-01 3.0000000e+00 8.5000000e+00 
7.5000000e-01 3.0000000e+00 9.0000000e+00 
7.5000000e-01 3.0000000e+00 9.5000000e+00 
7.5000000e-01 3.0000000e+00 1.0000000e+01 
7.5000000e-01 3.0000000e+00 1.0500000e+01 
7.5000000e-01 3.0000000e+00 1.1000000e+01 
7.5000000e-01 3.0000000e+00 1.1500000e+01 
7.5000000e-01 3.0000000e+00 1.2000000e+01 
7.5000000e-01 3.0000000e+00 1.2500000e+01 
7.5000000e-01 3.0000000e+00 1.3000000e+01 
7.5000000e-01 3.0000000e+00 1.3500000e+01 
7.5000000e-01 3.0000000e+00 1.4000000e+01 
7.5000000e-01 3.0000000e+00 1.4500000e+01 
7.5000000e-01 3.0000000e+00 1.5000000e+01 
7.5000000e-01 3.0000000e+00 1.5500000e+01 
7.5000000e-01 3.0000000e+00 1.6000000e+01 
7.5000000e-01 3.0000000e+00 1.6500000e+01 
7.5000000e-01 3.0000000e+00 1.7000000e+01 
7.5000000e-01 3.0000000e+00 1.7500000e+01 
7.5000000e-01 3.0000000e+00 1.8000000e+01 
7.5000000e-01 3.0000000e+00 1.8500000e+01 
7.5000000e-01 3.0000000e+00 1.9000000e+01 
7.5000000e-01 3.0000000e+00 1.9500000e+01 
7.5000000e-01 3.0000000e+00 2.0000000e+01 
7.5000000e-01 3.0000000e+00 2.0500000e+01 
7.5000000e-01 3.0000000e+00 2.1000000e+01 
7.5000000e-01 3.0000000e+00 2.1500000e+01 
7.5000000e-01 3.0000000e+00 2.2000000e+01 
7.5000000e-01 3.0000000e+00 2.2500000e+01 
7.5000000e-01 3.0000000e+00 2.3000000e+01 
7.5000000e-01 3.0000000e+00 2.3500000e+01 
7.5000000e-01 3.0000000e+00 2.4000000e+01 
7.5000000e-01 3.0000000e+00 2.4500000e+01 
7.5000000e-01 3.0000000e+00 2.5000000e+01 
7.5000000e-01 3.0000000e+00 2.5500000e+01 
7.5000000e-01 3.0000000e+00 2.6000000e+01 
7.5000000e-01 3.0000000e+00 2.6500000e+01 
7.5000000e-01 3.0000000e+00 2.7000000e+01 
7.5000000e-01 3.0000000e+00 2.7500000e+01 
7.5000000e-01 3.0000000e+00 2.8000000e+01 
7.5000000e-01 3.0000000e+00 2.8500000e+01 
7.5000000e-01 3.0000000e+00 2.9000000e+01 
7.5000000e-01 3.0000000e+00 2.9500000e+01 
7.5000000e-01 3.0000000e+00 3.0000000e+01 
7.5000000e-01 3.0000000e+00 3.0500000e+01 
7.5000000e-01 3.0000000e+00 3.1000000e+01 
7.5000000e-01 3.0000000e+00 3.1500000e+01 
7.5000000e-01 3.0000000e+00 3.2000000e+01 
7.5000000e-01 3.0000000e+00 3.2500000e+01 
7.5000000e-01 3.0000000e+00 3.3000000e+01 
7.5000000e-01 3.0000000e+00 3.3500000e+01 
7.5000000e-01 3.0000000e+00 3.4000000e+01 
7.5000000e-01 3.0000000e+00 3.4500000e+01 
7.5000000e-01 3.0000000e+00 3.5000000e+01 
7.5000000e-01 3.0000000e+00 3.5500000e+01 
7.5000000e-01 3.0000000e+00 3.6000000e+01 
7.5000000e-01 3.0000000e+00 3.6500000e+01 
7.5000000e-01 3.0000000e+00 3.7000000e+01 
7.5000000e-01 3.0000000e+00 3.7500000e+01 
7.5000000e-01 3.0000000e+00 3.8000000e+01 
7.5000000e-01 3.0000000e+00 3.8500000e+01 
7.5000000e-01 3.0000000e+00 3.9000000e+01 
7.5000000e-01 3.0000000e+00 3.9500000e+01 
7.5000000e-01 3.0000000e+00 4.0000000e+01 
7.5000000e-01 3.0000000e+00 4.0500000e+01 
7.5000000e-01 3.0000000e+00 4.1000000e+01 
7.5000000e-01 3.0000000e+00 4.1500000e+01 
7.5000000e-01 3.0000000e+00 4.2000000e+01 
7.5000000e-01 3.0000000e+00 4.2500000e+01 
7.5000000e-01 3.0000000e+00 4.3000000e+01 
7.5000000e-01 3.0000000e+00 4.3500000e+01 
7.5000000e-01 3.0000000e+00 4.4000000e+01 
7.5000000e-01 3.0000000e+00 4.4500000e+01 
7.5000000e-01 3.0000000e+00 4.5000000e+01 
7.5000000e-01 3.0000000e+00 4.5500000e+01 
7.5000000e-01 3.0000000e+00 4.6000000e+01 
7.5000000e-01 3.0000000e+00 4.6500000e+01 
7.5000000e-01 3.0000000e+00 4.7000000e+01 
7.5000000e-01 3.0000000e+00 4.7500000e+01 
7.5000000e-01 3.0000000e+00 4.8000000e+01 
7.5000000e-01 3.0000000e+00 4.8500000e+01 
7.5000000e-01 3.0000000e+00 4.9000000e+01 
7.5000000e-01 3.0000000e+00 4.9500000e+01 
7.5000000e-01 3.0250001e+00 0.0000000e+00 
7.5000000e-01 3.0250001e+00 5.0000000e-01 
7.5000000e-01 3.0250001e+00 1.0000000e+00 
7.5000000e-01 3.0250001e+00 1.5000000e+00 
7.5000000e-01 3.0250001e+00 2.0000000e+00 
7.5000000e-01 3.0250001e+00 2.5000000e+00 
7.5000000e-01 3.0250001e+00 3.0000000e+00 
7.5000000e-01 3.0250001e+00 3.5000000e+00 
7.5000000e-01 3.0250001e+00 4.0000000e+00 
7.5000000e-01 3.0250001e+00 4.5000000e+00 
7.5000000e-01 3.0250001e+00 5.0000000e+00 
7.5000000e-01 3.0250001e+00 5.5000000e+00 
7.5000000e-01 3.0250001e+00 6.0000000e+00 
7.5000000e-01 3.0250001e+00 6.5000000e+00 
7.5000000e-01 3.0250001e+00 7.0000000e+00 
7.5000000e-01 3.0250001e+00 7.5000000e+00 
7.5000000e-01 3.0250001e+00 8.0000000e+00 
7.5000000e-01 3.0250001e+00 8.5000000e+00 
7.5000000e-01 3.0250001e+00 9.0000000e+00 
7.5000000e-01 3.0250001e+00 9.5000000e+00 
7.5000000e-01 3.0250001e+00 1.0000000e+01 
7.5000000e-01 3.0250001e+00 1.0500000e+01 
7.5000000e-01 3.0250001e+00 1.1000000e+01 
7.5000000e-01 3.0250001e+00 1.1500000e+01 
7.5000000e-01 3.0250001e+00 1.2000000e+01 
7.5000000e-01 3.0250001e+00 1.2500000e+01 
7.5000000e-01 3.0250001e+00 1.3000000e+01 
7.5000000e-01 3.0250001e+00 1.3500000e+01 
7.5000000e-01 3.0250001e+00 1.4000000e+01 
7.5000000e-01 3.0250001e+00 1.4500000e+01 
7.5000000e-01 3.0250001e+00 1.5000000e+01 
7.5000000e-01 3.0250001e+00 1.5500000e+01 
7.5000000e-01 3.0250001e+00 1.6000000e+01 
7.5000000e-01 3.0250001e+00 1.6500000e+01 
7.5000000e-01 3.0250001e+00 1.7000000e+01 
7.5000000e-01 3.0250001e+00 1.7500000e+01 
7.5000000e-01 3.0250001e+00 1.8000000e+01 
7.5000000e-01 3.0250001e+00 1.8500000e+01 
7.5000000e-01 3.0250001e+00 1.9000000e+01 
7.5000000e-01 3.0250001e+00 1.9500000e+01 
7.5000000e-01 3.0250001e+00 2.0000000e+01 
7.5000000e-01 3.0250001e+00 2.0500000e+01 
7.5000000e-01 3.0250001e+00 2.1000000e+01 
7.5000000e-01 3.0250001e+00 2.1500000e+01 
7.5000000e-01 3.0250001e+00 2.2000000e+01 
7.5000000e-01 3.0250001e+00 2.2500000e+01 
7.5000000e-01 3.0250001e+00 2.3000000e+01 
7.5000000e-01 3.0250001e+00 2.3500000e+01 
7.5000000e-01 3.0250001e+00 2.4000000e+01 
7.5000000e-01 3.0250001e+00 2.4500000e+01 
7.5000000e-01 3.0250001e+00 2.5000000e+01 
7.5000000e-01 3.0250001e+00 2.5500000e+01 
7.5000000e-01 3.0250001e+00 2.6000000e+01 
7.5000000e-01 3.0250001e+00 2.6500000e+01 
7.5000000e-01 3.0250001e+00 2.7000000e+01 
7.5000000e-01 3.0250001e+00 2.7500000e+01 
7.5000000e-01 3.0250001e+00 2.8000000e+01 
7.5000000e-01 3.0250001e+00 2.8500000e+01 
7.5000000e-01 3.0250001e+00 2.9000000e+01 
7.5000000e-01 3.0250001e+00 2.9500000e+01 
7.5000000e-01 3.0250001e+00 3.0000000e+01 
7.5000000e-01 3.0250001e+00 3.0500000e+01 
7.5000000e-01 3.0250001e+00 3.1000000e+01 
7.5000000e-01 3.0250001e+00 3.1500000e+01 
7.5000000e-01 3.0250001e+00 3.2000000e+01 
7.5000000e-01 3.0250001e+00 3.2500000e+01 
7.5000000e-01 3.0250001e+00 3.3000000e+01 
7.5000000e-01 3.0250001e+00 3.3500000e+01 
7.5000000e-01 3.0250001e+00 3.4000000e+01 
7.5000000e-01 3.0250001e+00 3.4500000e+01 
7.5000000e-01 3.0250001e+00 3.5000000e+01 
7.5000000e-01 3.0250001e+00 3.5500000e+01 
7.5000000e-01 3.0250001e+00 3.6000000e+01 
7.5000000e-01 3.0250001e+00 3.6500000e+01 
7.5000000e-01 3.0250001e+00 3.7000000e+01 
7.5000000e-01 3.0250001e+00 3.7500000e+01 
7.5000000e-01 3.0250001e+00 3.8000000e+01 
7.5000000e-01 3.0250001e+00 3.8500000e+01 
7.5000000e-01 3.0250001e+00 3.9000000e+01 
7.5000000e-01 3.0250001e+00 3.9500000e+01 
7.5000000e-01 3.0250001e+00 4.0000000e+01 
7.5000000e-01 3.0250001e+00 4.0500000e+01 
7.5000000e-01 3.0250001e+00 4.1000000e+01 
7.5000000e-01 3.0250001e+00 4.1500000e+01 
7.5000000e-01 3.0250001e+00 4.2000000e+01 
7.5000000e-01 3.0250001e+00 4.2500000e+01 
7.5000000e-01 3.0250001e+00 4.3000000e+01 
7.5000000e-01 3.0250001e+00 4.3500000e+01 
7.5000000e-01 3.0250001e+00 4.4000000e+01 
7.5000000e-01 3.0250001e+00 4.4500000e+01 
7.5000000e-01 3.0250001e+00 4.5000000e+01 
7.5000000e-01 3.0250001e+00 4.5500000e+01 
7.5000000e-01 3.0250001e+00 4.6000000e+01 
7.5000000e-01 3.0250001e+00 4.6500000e+01 
7.5000000e-01 3.0250001e+00 4.7000000e+01 
7.5000000e-01 3.0250001e+00 4.7500000e+01 
7.5000000e-01 3.0250001e+00 4.8000000e+01 
7.5000000e-01 3.0250001e+00 4.8500000e+01 
7.5000000e-01 3.0250001e+00 4.9000000e+01 
7.5000000e-01 3.0250001e+00 4.9500000e+01 
7.5000000e-01 3.0250001e+00 5.0000000e+01 
1.5000000e+00 3.0000000e+00 2.5000000e+01 
3.0000000e+00 2.0000000e+00 2.5000000e+01 
4.0000000e+00 2.0000000e+00 2.5000000e+01 
5.0000000e+00 2.0000000e+00 2.5000000e+01 
0.0000000e+00 3.0000000e+00 2.5000000e+01 
0.0000000e+00 0.0000000e+00 1.0000000e+00 
0.0000000e+00 0.0000000e+00 2.0000000e+00 
0.0000000e+00 0.0000000e+00 3.0000000e+00 
0.0000000e+00 0.0000000e+00 4.0000000e+00 
0.0000000e+00 0.0000000e+00 5.0000000e+00 
[...]
POINT_DATA 1919
FIELD FieldData 3
DISPLACEMENT 3 1919  float
0.0000000e+00 0.0000000e+00 0.0000000e+00 
0.0000000e+00 0.0000000e+00 0.0000000e+00 
0.0000000e+00 0.0000000e+00 0.0000000e+00 
0.0000000e+00 0.0000000e+00 0.0000000e+00 
1.7826464e-05 -3.6845399e-06 -1.3965228e-05 
-4.0460051e-08 3.4258699e-07 -7.0794171e-09 
0.0000000e+00 2.1473372e-05 0.0000000e+00 
0.0000000e+00 2.5356400e-07 0.0000000e+00 
6.0052157e-06 2.4273070e-06 2.0174782e-06 
-3.3207201e-07 7.4980591e-07 -9.6907463e-08 
3.0091005e-06 -1.9036641e-05 -1.5127067e-05 
-5.6681511e-08 -8.0403233e-08 1.5485614e-07 
0.0000000e+00 3.0577328e-05 0.0000000e+00 
0.0000000e+00 -4.4047322e-08 0.0000000e+00 
2.9238636e-05 1.2501386e-05 -9.5563693e-05 
-5.4373174e-08 -1.5793458e-06 4.1212760e-07 
-3.5053035e-05 2.9243714e-05 -1.0416477e-04 
3.7492761e-08 3.4125778e-06 1.2535169e-10 
0.0000000e+00 7.5404416e-05 0.0000000e+00 
0.0000000e+00 -2.2843180e-06 0.0000000e+00 
2.7427770e-05 3.7771068e-05 -5.6814417e-05 
7.4159783e-05 5.1136558e-05 -3.5167821e-05 
8.5723637e-05 5.3944994e-05 8.8138654e-07 
1.0158872e-04 4.3409753e-05 3.8872779e-05 
1.0481654e-04 2.8653583e-05 3.0673476e-05 
9.2426591e-05 2.3386734e-05 5.4721211e-05 
8.8204142e-05 2.4702387e-05 7.3081515e-05 
6.2020415e-05 9.4865236e-06 5.9329039e-05 
5.6399651e-05 -2.6693870e-05 5.8623991e-05 
2.9567254e-05 -7.0269714e-05 6.1570987e-05 
6.0813131e-06 -8.7995293e-05 4.2707365e-05 
7.7544682e-06 -7.0039459e-05 3.1760548e-05 
-1.0723215e-06 -7.6972472e-05 5.9514605e-05 
1.5435238e-05 -2.4680741e-04 4.7895697e-05 
1.9032153e-06 -6.6924206e-04 1.0308537e-04 
-1.2890678e-05 -1.3450375e-03 5.9217280e-05 
-3.4362762e-05 -2.2457093e-03 1.4891048e-04 
-3.7028243e-05 -3.2991758e-03 -1.2714102e-05 
-1.2026381e-04 -4.3501602e-03 6.7277026e-05 
-1.2369778e-04 -4.8979102e-03 -5.1668474e-05 
-1.0385195e-04 -4.6250294e-03 -7.1490693e-05 
-1.6031553e-04 -4.2465520e-03 -6.2223531e-05 
-1.6679577e-04 -4.2891405e-03 3.8823978e-06 
-2.6240948e-04 -4.5407359e-03 -4.3623229e-05 
-2.8742757e-04 -4.3821698e-03 -1.0882915e-04 
-1.8282926e-04 -3.2285547e-03 -2.6398297e-05 
-1.1751877e-04 -1.8531282e-03 -1.7207481e-04 
-7.9638441e-05 -7.8564323e-04 -5.6818357e-05 
-8.7219305e-06 -1.5394256e-04 -5.0152401e-05 
-2.2888527e-05 1.3633593e-04 1.9861207e-05 
-4.4135049e-05 2.1716060e-04 1.7177001e-05 
-4.0532770e-05 1.8378255e-04 -4.6547834e-06 
-4.4233147e-05 1.0874642e-04 -5.1591069e-05 
-6.0044463e-06 4.6360841e-05 -1.1901182e-04 
2.9655061e-05 2.2419628e-05 -8.9384455e-05 
1.9690038e-05 2.9562725e-05 -8.3405903e-05 
1.6571443e-05 3.6050951e-05 -4.7193531e-05 
3.3194754e-06 2.4699573e-05 -3.4852583e-05 
-1.2101749e-05 4.5657443e-06 -3.7009260e-05 
2.1196434e-05 -5.4416938e-07 -3.7449558e-05 
5.9215658e-05 1.9502562e-05 -2.9981575e-05 
6.5004300e-05 5.2205596e-05 -1.2708911e-05 
6.9403686e-05 7.1234848e-05 -1.4902344e-06 
8.0823345e-05 5.5420653e-05 2.2504151e-05 
9.9017227e-05 1.5251429e-05 3.3583558e-05 
8.3681713e-05 -1.7963186e-05 6.4150052e-05 
6.6438639e-05 -2.3759025e-05 1.0730494e-04 
1.1129059e-05 -2.4298371e-05 8.3388033e-05 
4.2309668e-05 -4.6312591e-05 9.0449721e-05 
-5.1973875e-06 -1.0045272e-04 7.3785544e-05 
1.4694681e-05 -1.6134641e-04 5.0476636e-05 
-2.1566482e-05 -1.9974855e-04 6.8537222e-05 
-1.6980421e-05 -2.2784385e-04 7.5325006e-05 
-1.4046463e-05 -3.5832846e-04 5.5185268e-05 
5.9434242e-06 -7.4372435e-04 1.1037057e-04 
-2.6285637e-05 -1.4919547e-03 4.5447916e-05 
-7.7372526e-05 -2.5730247e-03 1.2351522e-04 
-1.4759840e-04 -3.7574940e-03 -3.0207193e-05 
-1.9253774e-04 -4.6985289e-03 3.6941670e-05 
-2.0004372e-04 -4.8854277e-03 -7.5007563e-05 
-1.7688458e-04 -4.5077796e-03 -1.3721583e-04 
-1.9889872e-04 -4.2472710e-03 -5.8536047e-05 
-1.7619973e-04 -4.4266949e-03 1.1094615e-05 
-2.6737730e-04 -4.6129040e-03 -3.3954471e-05 
-2.8340847e-04 -4.1587674e-03 -9.0565969e-05 
-2.1424316e-04 -2.9178115e-03 -1.7735289e-05 
-1.4888262e-04 -1.6383458e-03 -2.1592225e-04 
-1.0466753e-04 -6.7925162e-04 -8.6527194e-05 
-3.0774005e-05 -1.0267965e-04 -9.3887669e-05 
-1.6866490e-05 1.7329240e-04 -9.9975096e-06 
-4.6604273e-05 2.3265567e-04 -6.8913000e-06 
-3.8023751e-05 1.7530935e-04 -3.4139401e-05 
-1.4132779e-05 9.8157863e-05 -7.5211145e-05 
4.9132263e-06 5.0010542e-05 -1.0530782e-04 
6.2014071e-05 3.2522967e-05 -9.6567834e-05 
4.9224916e-05 2.0777450e-05 2.9466476e-06 
3.0004308e-05 3.6350084e-06 1.5127390e-05 
1.2404414e-05 -1.2937169e-05 1.9579667e-05 
-8.1113694e-06 -1.9917608e-05 3.1592881e-05 
-1.3097483e-05 -1.8427385e-05 2.5137228e-05 
-1.5266716e-05 -1.4624433e-05 1.0672135e-05 
-1.0317360e-05 -1.0154317e-05 4.2442402e-06 
-2.2126899e-06 -2.4929877e-06 -3.7910031e-06 
9.7378620e-07 6.5952718e-06 -3.3392694e-06 
3.0097917e-06 1.2085325e-05 -2.8395852e-06 
1.5149374e-06 1.0441383e-05 -3.0088988e-06 
6.5170195e-07 3.2858429e-06 5.0438251e-07 
5.2233713e-07 -3.6341473e-06 7.1607167e-07 
-1.8686212e-07 -6.4257151e-06 1.6697869e-07 
8.6260727e-08 -5.2211280e-06 1.6060411e-06 
-3.6492941e-07 -2.0837824e-06 6.4038551e-07 
-5.2861088e-07 1.2170956e-06 -6.1800534e-07 
-1.0544441e-07 3.6841786e-06 2.3645094e-07 
-1.3458680e-07 3.9964780e-06 -5.6307255e-07 
2.6559144e-08 1.3525089e-06 -2.7025382e-07 
4.1599839e-07 -2.4094306e-06 1.1059468e-07 
1.7694174e-07 -4.1957956e-06 -2.9509888e-08 
-1.8218397e-07 -2.4235349e-06 1.2625605e-07 
-1.4203899e-07 1.3817001e-06 1.6812048e-07 
0.0000000e+00 2.9928589e-05 0.0000000e+00 
0.0000000e+00 3.7917751e-05 0.0000000e+00 
0.0000000e+00 5.0619845e-05 0.0000000e+00 
0.0000000e+00 5.3312520e-05 0.0000000e+00 
0.0000000e+00 4.3088767e-05 0.0000000e+00 
0.0000000e+00 2.9360026e-05 0.0000000e+00 
0.0000000e+00 2.4468138e-05 0.0000000e+00 
0.0000000e+00 2.4381259e-05 0.0000000e+00 
0.0000000e+00 9.0029598e-06 0.0000000e+00 
0.0000000e+00 -2.7697735e-05 0.0000000e+00 
0.0000000e+00 -6.9925358e-05 0.0000000e+00 
0.0000000e+00 -8.5570398e-05 0.0000000e+00 
0.0000000e+00 -6.6415647e-05 0.0000000e+00 
0.0000000e+00 -7.7622753e-05 0.0000000e+00 
0.0000000e+00 -2.4973307e-04 0.0000000e+00 
0.0000000e+00 -6.7135383e-04 0.0000000e+00 
0.0000000e+00 -1.3477674e-03 0.0000000e+00 
0.0000000e+00 -2.2481941e-03 0.0000000e+00 
0.0000000e+00 -3.3143770e-03 0.0000000e+00 
0.0000000e+00 -4.3739900e-03 0.0000000e+00 
0.0000000e+00 -4.9336720e-03 0.0000000e+00 
0.0000000e+00 -4.6493602e-03 0.0000000e+00 
0.0000000e+00 -4.2731273e-03 0.0000000e+00 
0.0000000e+00 -4.3057036e-03 0.0000000e+00 
0.0000000e+00 -4.5706555e-03 0.0000000e+00 
0.0000000e+00 -4.4060564e-03 0.0000000e+00 
0.0000000e+00 -3.2551228e-03 0.0000000e+00 
0.0000000e+00 -1.8666731e-03 0.0000000e+00 
0.0000000e+00 -7.9212053e-04 0.0000000e+00 
0.0000000e+00 -1.5443073e-04 0.0000000e+00 
0.0000000e+00 1.3764799e-04 0.0000000e+00 
0.0000000e+00 2.1779578e-04 0.0000000e+00 
0.0000000e+00 1.8469943e-04 0.0000000e+00 
0.0000000e+00 1.1001123e-04 0.0000000e+00 
0.0000000e+00 4.7435191e-05 0.0000000e+00 
0.0000000e+00 2.3014383e-05 0.0000000e+00 
0.0000000e+00 2.8919183e-05 0.0000000e+00 
0.0000000e+00 3.5300167e-05 0.0000000e+00 
0.0000000e+00 2.4374307e-05 0.0000000e+00 
0.0000000e+00 4.9149676e-06 0.0000000e+00 
0.0000000e+00 -4.6028610e-08 0.0000000e+00 
0.0000000e+00 2.0047739e-05 0.0000000e+00 
0.0000000e+00 5.2446587e-05 0.0000000e+00 
0.0000000e+00 7.0381975e-05 0.0000000e+00 
0.0000000e+00 5.4540509e-05 0.0000000e+00 
0.0000000e+00 1.5180276e-05 0.0000000e+00 
0.0000000e+00 -1.6581498e-05 0.0000000e+00 
0.0000000e+00 -2.3107446e-05 0.0000000e+00 
0.0000000e+00 -2.4190806e-05 0.0000000e+00 
0.0000000e+00 -4.7457197e-05 0.0000000e+00 
0.0000000e+00 -1.0106512e-04 0.0000000e+00 
0.0000000e+00 -1.6055485e-04 0.0000000e+00 
0.0000000e+00 -1.9635592e-04 0.0000000e+00 
0.0000000e+00 -2.2556479e-04 0.0000000e+00 
0.0000000e+00 -3.5848780e-04 0.0000000e+00 
0.0000000e+00 -7.4855407e-04 0.0000000e+00 
0.0000000e+00 -1.5004438e-03 0.0000000e+00 
0.0000000e+00 -2.5784036e-03 0.0000000e+00 
0.0000000e+00 -3.7731021e-03 0.0000000e+00 
0.0000000e+00 -4.7194916e-03 0.0000000e+00 
0.0000000e+00 -4.9229581e-03 0.0000000e+00 
0.0000000e+00 -4.5318925e-03 0.0000000e+00 
0.0000000e+00 -4.2746840e-03 0.0000000e+00 
0.0000000e+00 -4.4429633e-03 0.0000000e+00 
0.0000000e+00 -4.6438710e-03 0.0000000e+00 
0.0000000e+00 -4.1822647e-03 0.0000000e+00 
0.0000000e+00 -2.9427817e-03 0.0000000e+00 
0.0000000e+00 -1.6473085e-03 0.0000000e+00 
0.0000000e+00 -6.8365072e-04 0.0000000e+00 
0.0000000e+00 -1.0269276e-04 0.0000000e+00 
0.0000000e+00 1.7280421e-04 0.0000000e+00 
0.0000000e+00 2.3318933e-04 0.0000000e+00 
0.0000000e+00 1.7748901e-04 0.0000000e+00 
0.0000000e+00 9.9749450e-05 0.0000000e+00 
0.0000000e+00 5.0579347e-05 0.0000000e+00 
0.0000000e+00 3.1890253e-05 0.0000000e+00 
0.0000000e+00 2.0340822e-05 0.0000000e+00 
0.0000000e+00 3.6866581e-06 0.0000000e+00 
0.0000000e+00 -1.2643014e-05 0.0000000e+00 
0.0000000e+00 -1.9875013e-05 0.0000000e+00 
0.0000000e+00 -1.8606372e-05 0.0000000e+00 
0.0000000e+00 -1.4701769e-05 0.0000000e+00 
0.0000000e+00 -9.9501731e-06 0.0000000e+00 
0.0000000e+00 -2.4318522e-06 0.0000000e+00 
0.0000000e+00 6.4606138e-06 0.0000000e+00 
0.0000000e+00 1.1914269e-05 0.0000000e+00 
0.0000000e+00 1.0376713e-05 0.0000000e+00 
0.0000000e+00 3.4013894e-06 0.0000000e+00 
0.0000000e+00 -3.5202361e-06 0.0000000e+00 
0.0000000e+00 -6.4039864e-06 0.0000000e+00 
0.0000000e+00 -5.2372857e-06 0.0000000e+00 
0.0000000e+00 -2.0995387e-06 0.0000000e+00 
0.0000000e+00 1.2285381e-06 0.0000000e+00 
0.0000000e+00 3.6590268e-06 0.0000000e+00 
0.0000000e+00 3.9040774e-06 0.0000000e+00 
0.0000000e+00 1.3246722e-06 0.0000000e+00 
0.0000000e+00 -2.3470409e-06 0.0000000e+00 
0.0000000e+00 -4.0996338e-06 0.0000000e+00 
0.0000000e+00 -2.3607422e-06 0.0000000e+00 
0.0000000e+00 1.3421476e-06 0.0000000e+00 
0.0000000e+00 3.3250296e-06 0.0000000e+00 
6.1714502e-08 -2.4931217e-04 8.1966369e-05 
-1.1819331e-05 -1.5429428e-05 -1.1186055e-05 
-3.0926181e-05 -2.6797446e-05 -5.2032406e-06 
-4.5188066e-05 -2.4804072e-05 -1.9619180e-05 
0.0000000e+00 -1.3851655e-04 0.0000000e+00 
0.0000000e+00 0.0000000e+00 0.0000000e+00 
0.0000000e+00 0.0000000e+00 0.0000000e+00 
0.0000000e+00 0.0000000e+00 0.0000000e+00 
0.0000000e+00 0.0000000e+00 0.0000000e+00 
0.0000000e+00 0.0000000e+00 0.0000000e+00 
0.0000000e+00 0.0000000e+00 0.0000000e+00 
0.0000000e+00 0.0000000e+00 0.0000000e+00 
0.0000000e+00 0.0000000e+00 0.0000000e+00 
0.0000000e+00 0.0000000e+00 0.0000000e+00 
0.0000000e+00 0.0000000e+00 0.0000000e+00 
0.0000000e+00 0.0000000e+00 0.0000000e+00 
0.0000000e+00 0.0000000e+00 0.0000000e+00 
0.0000000e+00 0.0000000e+00 0.0000000e+00 
0.0000000e+00 0.0000000e+00 0.0000000e+00 
0.0000000e+00 0.0000000e+00 0.0000000e+00 
0.0000000e+00 0.0000000e+00 0.0000000e+00 
0.0000000e+00 0.0000000e+00 0.0000000e+00 
0.0000000e+00 0.0000000e+00 0.0000000e+00 
0.0000000e+00 0.0000000e+00 0.0000000e+00 
0.0000000e+00 0.0000000e+00 0.0000000e+00 
0.0000000e+00 0.0000000e+00 0.0000000e+00 
0.0000000e+00 0.0000000e+00 0.0000000e+00 
0.0000000e+00 0.0000000e+00 0.0000000e+00 
0.0000000e+00 0.0000000e+00 0.0000000e+00 
0.0000000e+00 0.0000000e+00 0.0000000e+00 
0.0000000e+00 0.0000000e+00 0.0000000e+00 
0.0000000e+00 0.0000000e+00 0.0000000e+00 
0.0000000e+00 0.0000000e+00 0.0000000e+00 
0.0000000e+00 0.0000000e+00 0.0000000e+00 
0.0000000e+00 0.0000000e+00 0.0000000e+00 
0.0000000e+00 0.0000000e+00 0.0000000e+00 
0.0000000e+00 0.0000000e+00 0.0000000e+00 
0.0000000e+00 0.0000000e+00 0.0000000e+00 
0.0000000e+00 0.0000000e+00 0.0000000e+00 
0.0000000e+00 0.0000000e+00 0.0000000e+00 
0.0000000e+00 0.0000000e+00 0.0000000e+00 
0.0000000e+00 0.0000000e+00 0.0000000e+00 
0.0000000e+00 0.0000000e+00 0.0000000e+00 
0.0000000e+00 0.0000000e+00 0.0000000e+00 
0.0000000e+00 0.0000000e+00 0.0000000e+00 
0.0000000e+00 0.0000000e+00 0.0000000e+00 
0.0000000e+00 0.0000000e+00 0.0000000e+00 
0.0000000e+00 0.0000000e+00 0.0000000e+00 
0.0000000e+00 0.0000000e+00 0.0000000e+00 
0.0000000e+00 0.0000000e+00 0.0000000e+00 
0.0000000e+00 0.0000000e+00 0.0000000e+00 
0.0000000e+00 0.0000000e+00 0.0000000e+00 
0.0000000e+00 0.0000000e+00 0.0000000e+00 
0.0000000e+00 0.0000000e+00 0.0000000e+00 
0.0000000e+00 0.0000000e+00 0.0000000e+00 
0.0000000e+00 0.0000000e+00 0.0000000e+00 
0.0000000e+00 0.0000000e+00 0.0000000e+00 
0.0000000e+00 0.0000000e+00 0.0000000e+00 
0.0000000e+00 0.0000000e+00 0.0000000e+00 
0.0000000e+00 0.0000000e+00 0.0000000e+00 
0.0000000e+00 0.0000000e+00 0.0000000e+00 
0.0000000e+00 0.0000000e+00 0.0000000e+00 
0.0000000e+00 0.0000000e+00 0.0000000e+00 
0.0000000e+00 0.0000000e+00 0.0000000e+00 
0.0000000e+00 0.0000000e+00 0.0000000e+00 
0.0000000e+00 0.0000000e+00 0.0000000e+00 
0.0000000e+00 0.0000000e+00 0.0000000e+00 
0.0000000e+00 0.0000000e+00 0.0000000e+00 
0.0000000e+00 0.0000000e+00 0.0000000e+00 
0.0000000e+00 0.0000000e+00 0.0000000e+00 
0.0000000e+00 0.0000000e+00 0.0000000e+00 
0.0000000e+00 0.0000000e+00 0.0000000e+00 
0.0000000e+00 0.0000000e+00 0.0000000e+00 
0.0000000e+00 0.0000000e+00 0.0000000e+00 
0.0000000e+00 0.0000000e+00 0.0000000e+00 
0.0000000e+00 0.0000000e+00 0.0000000e+00 
0.0000000e+00 0.0000000e+00 0.0000000e+00 
0.0000000e+00 0.0000000e+00 0.0000000e+00 
0.0000000e+00 0.0000000e+00 0.0000000e+00 
0.0000000e+00 0.0000000e+00 0.0000000e+00 
0.0000000e+00 0.0000000e+00 0.0000000e+00 
0.0000000e+00 0.0000000e+00 0.0000000e+00 
0.0000000e+00 0.0000000e+00 0.0000000e+00 
0.0000000e+00 0.0000000e+00 0.0000000e+00 
0.0000000e+00 0.0000000e+00 0.0000000e+00 
0.0000000e+00 0.0000000e+00 0.0000000e+00 
0.0000000e+00 0.0000000e+00 0.0000000e+00 
0.0000000e+00 0.0000000e+00 0.0000000e+00 
0.0000000e+00 0.0000000e+00 0.0000000e+00 
0.0000000e+00 0.0000000e+00 0.0000000e+00 
0.0000000e+00 0.0000000e+00 0.0000000e+00 
0.0000000e+00 0.0000000e+00 0.0000000e+00 
0.0000000e+00 0.0000000e+00 0.0000000e+00 
0.0000000e+00 0.0000000e+00 0.0000000e+00 
0.0000000e+00 0.0000000e+00 0.0000000e+00 
0.0000000e+00 0.0000000e+00 0.0000000e+00 
0.0000000e+00 0.0000000e+00 0.0000000e+00 
0.0000000e+00 0.0000000e+00 0.0000000e+00 
0.0000000e+00 0.0000000e+00 0.0000000e+00 
0.0000000e+00 0.0000000e+00 0.0000000e+00 
0.0000000e+00 0.0000000e+00 0.0000000e+00 
0.0000000e+00 0.0000000e+00 0.0000000e+00 
0.0000000e+00 0.0000000e+00 0.0000000e+00 
0.0000000e+00 0.0000000e+00 0.0000000e+00 
0.0000000e+00 0.0000000e+00 0.0000000e+00 
0.0000000e+00 0.0000000e+00 0.0000000e+00 
0.0000000e+00 0.0000000e+00 0.0000000e+00 
0.0000000e+00 0.0000000e+00 0.0000000e+00 
0.0000000e+00 0.0000000e+00 0.0000000e+00 
0.0000000e+00 0.0000000e+00 0.0000000e+00 
0.0000000e+00 0.0000000e+00 0.0000000e+00 
8.0377431e-06 -1.0492015e-05 -4.9665878e-06 
1.9718966e-06 -9.9324961e-06 -4.6926411e-06 
-7.1351978e-06 -1.2033621e-05 -5.0530743e-06 
-1.3967729e-05 -1.9031968e-05 -5.1608063e-06 
-1.2141234e-05 -7.1451309e-06 -1.1229034e-05 
-9.4937686e-06 -2.0761023e-05 -9.9698836e-06 
-1.4454086e-05 -2.7762979e-05 -1.4788816e-05 
4.3771815e-06 -2.1485486e-05 -1.9545570e-05 
2.1021833e-05 -3.0972620e-05 -1.4385096e-05 
3.6876947e-05 -2.2764056e-05 -1.9541610e-06 
4.8507914e-05 -2.3492714e-05 7.8784342e-06 
4.9880913e-05 -2.0771811e-05 2.5920828e-05 
4.2891945e-05 -7.2757698e-06 4.6606030e-05 
2.9420977e-05 -6.4475385e-06 4.2629876e-05 
1.6757172e-05 -6.6750035e-06 2.8667995e-05 
1.0982869e-05 -7.6742836e-06 1.4460294e-05 
7.1231098e-06 -3.2868109e-06 -6.8575523e-06 
3.7774382e-06 -3.0955134e-06 -2.3724480e-05 
6.9543225e-06 -1.9364820e-06 -2.9437741e-05 
6.8922418e-06 5.1398962e-07 -2.0532883e-05 
5.3706940e-06 -7.4909344e-06 -7.8991679e-06 
-7.0387669e-06 -4.6545388e-06 4.3952532e-06 
-1.4751375e-05 -1.4821422e-05 1.8591993e-06 
-1.9911973e-05 -2.3495819e-05 -5.9969580e-06 
-2.3838744e-05 -1.3251889e-05 -7.2085604e-06 
-2.0985755e-05 -1.8392740e-05 -1.5766211e-05 
-7.8967441e-06 -3.1470012e-05 -2.1155860e-05 
8.8552615e-06 -3.4380126e-05 -2.2225795e-05 
2.9641849e-05 -3.3186923e-05 -1.0474975e-05 
4.2336775e-05 -2.8075649e-05 4.2494353e-06 
4.7362268e-05 -2.2779679e-05 1.7452416e-05 
5.3833879e-05 -1.7617616e-05 3.2784345e-05 
4.6508798e-05 -9.9599229e-06 3.7359605e-05 
3.5313682e-05 -2.5366978e-06 3.7638230e-05 
1.7273887e-05 -6.2715862e-06 2.5461333e-05 
5.9343888e-06 -1.3627169e-06 9.0762787e-06 
-4.6141761e-07 -5.1991617e-07 -2.0495049e-06 
-3.6647832e-06 3.2620637e-06 -1.3400352e-05 
-3.0195122e-06 2.5323095e-06 -1.2574469e-05 
-1.4320040e-06 1.2288020e-06 -4.3276168e-06 
-1.2053731e-06 3.1112114e-07 1.3141996e-06 
9.0613792e-09 -3.8239088e-07 2.5492641e-06 
5.6184706e-07 -1.4465788e-07 2.7927567e-06 
-2.7132418e-07 -1.0428918e-06 1.2185004e-06 
8.2370370e-08 -4.3173628e-07 -3.7562734e-07 
2.2445595e-07 4.0304232e-07 -4.7453091e-07 
1.0029928e-07 7.6605176e-08 -1.1663255e-07 
-1.8563702e-07 -9.6889657e-08 -3.1999008e-07 
2.3260968e-07 -2.8713566e-07 9.5910998e-08 
0.0000000e+00 -2.8394652e-05 0.0000000e+00 
0.0000000e+00 -9.0584981e-05 0.0000000e+00 
0.0000000e+00 -1.2579576e-04 0.0000000e+00 
0.0000000e+00 -1.8410817e-04 0.0000000e+00 
0.0000000e+00 -1.8977198e-04 0.0000000e+00 
0.0000000e+00 -1.5432734e-04 0.0000000e+00 
0.0000000e+00 -2.8648725e-04 0.0000000e+00 
0.0000000e+00 -4.1408898e-04 0.0000000e+00 
0.0000000e+00 -5.5123150e-04 0.0000000e+00 
0.0000000e+00 -6.5293076e-04 0.0000000e+00 
0.0000000e+00 -5.6392199e-04 0.0000000e+00 
0.0000000e+00 -4.5760785e-04 0.0000000e+00 
0.0000000e+00 -2.9427063e-04 0.0000000e+00 
0.0000000e+00 -7.9529214e-05 0.0000000e+00 
0.0000000e+00 -1.3775983e-05 0.0000000e+00 
0.0000000e+00 -8.0994605e-06 0.0000000e+00 
0.0000000e+00 -2.5833315e-06 0.0000000e+00 
0.0000000e+00 2.3352135e-05 0.0000000e+00 
0.0000000e+00 2.1231504e-05 0.0000000e+00 
0.0000000e+00 1.0674075e-05 0.0000000e+00 
0.0000000e+00 -3.3037973e-05 0.0000000e+00 
0.0000000e+00 -7.0950293e-05 0.0000000e+00 
0.0000000e+00 -9.7330128e-05 0.0000000e+00 
0.0000000e+00 -1.0396038e-04 0.0000000e+00 
0.0000000e+00 -1.5665169e-04 0.0000000e+00 
0.0000000e+00 -1.8243447e-04 0.0000000e+00 
0.0000000e+00 -2.3781293e-04 0.0000000e+00 
0.0000000e+00 -4.5197259e-04 0.0000000e+00 
0.0000000e+00 -5.1920395e-04 0.0000000e+00 
0.0000000e+00 -6.3294888e-04 0.0000000e+00 
0.0000000e+00 -5.6725228e-04 0.0000000e+00 
0.0000000e+00 -4.2333285e-04 0.0000000e+00 
0.0000000e+00 -2.7660432e-04 0.0000000e+00 
0.0000000e+00 -7.1699076e-05 0.0000000e+00 
0.0000000e+00 1.3848803e-06 0.0000000e+00 
0.0000000e+00 -5.0661411e-06 0.0000000e+00 
0.0000000e+00 -1.4073737e-05 0.0000000e+00 
0.0000000e+00 -5.2575497e-06 0.0000000e+00 
0.0000000e+00 6.2285367e-06 0.0000000e+00 
0.0000000e+00 5.1519141e-06 0.0000000e+00 
0.0000000e+00 2.3845453e-06 0.0000000e+00 
0.0000000e+00 -5.2153987e-06 0.0000000e+00 
0.0000000e+00 -1.8059077e-06 0.0000000e+00 
0.0000000e+00 2.7968983e-06 0.0000000e+00 
0.0000000e+00 1.7041016e-06 0.0000000e+00 
0.0000000e+00 -1.0790139e-06 0.0000000e+00 
0.0000000e+00 -1.0315462e-06 0.0000000e+00 
0.0000000e+00 8.6233359e-07 0.0000000e+00 
0.0000000e+00 -1.9010798e-08 0.0000000e+00 
1.3013807e-05 -9.5975047e-06 -1.2679170e-05 
5.4045199e-07 -1.1720347e-05 -2.1532893e-05 
-7.0681890e-06 -7.8546800e-06 -2.3531045e-05 
-8.3370023e-06 1.3251785e-05 -1.1941663e-05 
1.7457980e-07 -4.4567379e-08 7.6315715e-08 
-4.3590852e-08 -9.7884090e-08 1.0842885e-07 
-2.2013538e-07 3.6795410e-07 3.2604969e-08 
2.4978024e-07 4.7683750e-09 -5.8680698e-08 
1.6664364e-06 -1.5977866e-05 -1.0527241e-05 
1.1006721e-08 1.6686097e-07 -3.9143549e-07 
1.9624647e-06 1.3062247e-05 -2.2794906e-05 
-4.5439037e-06 -1.1616287e-05 -2.4702740e-05 
0.0000000e+00 -2.8889628e-05 0.0000000e+00 
0.0000000e+00 -7.3166018e-05 0.0000000e+00 
0.0000000e+00 -1.8094602e-04 0.0000000e+00 
0.0000000e+00 -2.5254785e-04 0.0000000e+00 
0.0000000e+00 -2.3917478e-04 0.0000000e+00 
0.0000000e+00 -2.6166937e-04 0.0000000e+00 
0.0000000e+00 -4.3515320e-04 0.0000000e+00 
0.0000000e+00 -7.2606863e-04 0.0000000e+00 
0.0000000e+00 -1.0923874e-03 0.0000000e+00 
0.0000000e+00 -1.2764661e-03 0.0000000e+00 
0.0000000e+00 -1.0677342e-03 0.0000000e+00 
0.0000000e+00 -9.3881623e-04 0.0000000e+00 
0.0000000e+00 -5.4207415e-04 0.0000000e+00 