# vtk DataFile Version 4.0
vtk output
ASCII
DATASET UNSTRUCTURED_GRID
POINTS 1919 float
0.0000000e+00 0.0000000e+00 0.0000000e+00 
0.0000000e+00 0.0000000e+00 5.0000000e+01 
5.0000000e+00 0.0000000e+00 0.0000000e+00 
5.0000000e+00 0.0000000e+00 5.0000000e+01 
5.0000000e+00 1.0000000e+00 0.0000000e+00 
5.0000000e+00 1.0000000e+00 5.0000000e+01 
0.0000000e+00 1.0000000e+00 0.0000000e+00 
0.0000000e+00 1.0000000e+00 5.0000000e+01 
5.0000000e+00 2.0000000e+00 0.0000000e+00 
5.0000000e+00 2.0000000e+00 5.0000000e+01 
3.0000000e+00 2.0000000e+00 0.0000000e+00 
3.0000000e+00 2.0000000e+00 5.0000000e+01 
0.0000000e+00 2.0000000e+00 0.0000000e+00 
0.0000000e+00 2.0000000e+00 5.0000000e+01 
1.5000000e+00 3.0000000e+00 0.0000000e+00 
1.5000000e+00 3.0000000e+00 5.0000000e+01 
7.5000000e-01 3.0000000e+00 0.0000000e+00 
7.5000000e-01 3.0000000e+00 5.0000000e+01 
0.0000000e+00 3.0000000e+00 0.0000000e+00 
0.0000000e+00 3.0000000e+00 5.0000000e+01 
7.5000000e-01 3.0000000e+00 5.0000000e-01 
7.5000000e-01 3.0000000e+00 1.0000000e+00 
7.5000000e-01 3.0000000e+00 1.5000000e+00 
7.5000000e-01 3.0000000e+00 2.0000000e+00 
7.5000000e-01 3.0000000e+00 2.5000000e+00 
7.5000000e-01 3.0000000e+00 3.0000000e+00 
7.5000000e-01 3.0000000e+00 3.5000000e+00 
7.5000000e-01 3.0000000e+00 4.0000000e+00 
7.5000000e-01 3.0000000e+00 4.5000000e+00 
7.5000000e-01 3.0000000e+00 5.0000000e+00 
7.5000000e-01 3.0000000e+00 5.5000000e+00 
7.5000000e-01 3.0000000e+00 6.0000000e+00 
7.5000000e-01 3.0000000e+00 6.5000000e+00 
7.5000000e-01 3.0000000e+00 7.0000000e+00 
7.5000000e-01 3.0000000e+00 7.5000000e+00 
7.5000000e-01 3.0000000e+00 8.0000000e+00 
7.5000000e-01 3.0000000e+00 8.5000000e+00 
7.5000000e-01 3.0000000e+00 9.0000000e+00 
7.5000000e-01 3.0000000e+00 9.5000000e+00 
7.5000000e-01 3.0000000e+00 1.0000000e+01 
7.5000000e-01 3.0000000e+00 1.0500000e+01 
7.5000000e-01 3.0000000e+00 1.1000000e+01 
7.5000000e-01 3.0000000e+00 1.1500000e+01 
7.5000000e-01 3.0000000e+00 1.2000000e+01 
7.5000000e-01 3.0000000e+00 1.2500000e+01 
7.5000000e-01 3.0000000e+00 1.3000000e+01 
7.5000000e-01 3.0000000e+00 1.3500000e+01 
7.5000000e-01 3.0000000e+00 1.4000000e+01 
7.5000000e-01 3.0000000e+00 1.4500000e+01 
7.5000000e-01 3.0000000e+00 1.5000000e+01 
7.5000000e-01 3.0000000e+00 1.5500000e+01 
7.5000000e-01 3.0000000e+00 1.6000000e+01 
7.5000000e-01 3.0000000e+00 1.6500000e+01 
7.5000000e-01 3.0000000e+00 1.7000000e+01 
7.5000000e-01 3.0000000e+00 1.7500000e+01 
7.5000000e-01 3.0000000e+00 1.8000000e+01 
7.5000000e-01 3.0000000e+00 1.8500000e+01 
7.5000000e-01 3.0000000e+00 1.9000000e+01 
7.5000000e-01 3.0000000e+00 1.9500000e+01 
7.5000000e-01 3.0000000e+00 2.0000000e+01 
7.5000000e-01 3.0000000e+00 2.0500000e+01 
7.5000000e-01 3.0000000e+00 2.1000000e+01 
7.5000000e-01 3.0000000e+00 2.1500000e+01 
7.5000000e-01 3.0000000e+00 2.2000000e+01 
7.5000000e-01 3.0000000e+00 2.2500000e+01 
7.5000000e-01 3.0000000e+00 2.3000000e+01 
7.5000000e-01 3.0000000e+00 2.3500000e+01 
7.5000000e-01 3.0000000e+00 2.4000000e+01 
7.5000000e-01 3.0000000e+00 2.4500000e+01 
7.5000000e-01 3.0000000e+00 2.5000000e+01 
7.5000000e-01 3.0000000e+00 2.5500000e+01 
7.5000000e-01 3.0000000e+00 2.6000000e+01 
7.5000000e-01 3.0000000e+00 2.6500000e+01 
7.5000000e-01 3.0000000e+00 2.7000000e+01 
7.5000000e-01 3.0000000e+00 2.7500000e+01 
7.5000000e-01 3.0000000e+00 2.8000000e+01 
7.5000000e-01 3.0000000e+00 2.8500000e+01 
7.5000000e-01 3.0000000e+00 2.9000000e+01 
7.5000000e-01 3.0000000e+00 2.9500000e+01 
7.5000000e-01 3.0000000e+00 3.0000000e+01 
7.5000000e-01 3.0000000e+00 3.0500000e+01 
7.5000000e-01 3.0000000e+00 3.1000000e+01 
7.5000000e-01 3.0000000e+00 3.1500000e+01 
7.5000000e-01 3.0000000e+00 3.2000000e+01 
7.5000000e-01 3.0000000e+00 3.2500000e+01 
7.5000000e-01 3.0000000e+00 3.3000000e+01 
7.5000000e-01 3.0000000e+00 3.3500000e+01 
7.5000000e-01 3.0000000e+00 3.4000000e+01 
7.5000000e-01 3.0000000e+00 3.4500000e+01 
7.5000000e-01 3.0000000e+00 3.5000000e+01 
7.5000000e-01 3.0000000e+00 3.5500000e+01 
7.5000000e-01 3.0000000e+00 3.6000000e+01 
7.5000000e-01 3.0000000e+00 3.6500000e+01 
7.5000000e-01 3.0000000e+00 3.7000000e+01 
7.5000000e-01 3.0000000e+00 3.7500000e+01 
7.5000000e-01 3.0000000e+00 3.8000000e+01 
7.5000000e-01 3.0000000e+00 3.8500000e+01 
7.5000000e-01 3.0000000e+00 3.9000000e+01 
7.5000000e-01 3.0000000e+00 3.9500000e+01 
7.5000000e-01 3.0000000e+00 4.0000000e+01 
7.5000000e-01 3.0000000e+00 4.0500000e+01 
7.5000000e-01 3.0000000e+00 4.1000000e+01 
7.5000000e-01 3.0000000e+00 4.1500000e+01 
7.5000000e-01 3.0000000e+00 4.2000000e+01 
7.5000000e-01 3.0000000e+00 4.2500000e+01 
7.5000000e-01 3.0000000e+00 4.3000000e+01 
7.5000000e-01 3.0000000e+00 4.3500000e+01 
7.5000000e-01 3.0000000e+00 4.4000000e+01 
7.5000000e-01 3.0000000e+00 4.4500000e+01 
7.5000000e-01 3.0000000e+00 4.5000000e+01 
7.5000000e-01 3.0000000e+00 4.5500000e+01 
7.5000000e-01 3.0000000e+00 4.6000000e+01 
7.5000000e-01 3.0000000e+00 4.6500000e+01 
7.5000000e-01 3.0000000e+00 4.7000000e+01 
7.5000000e-01 3.0000000e+00 4.7500000e+01 
7.5000000e-01 3.0000000e+00 4.8000000e+01 
7.5000000e-01 3.0000000e+00 4.8500000e+01 
7.5000000e-01 3.0000000e+00 4.9000000e+01 
7.5000000e-01 3.0000000e+00 4.9500000e+01 
7.5000000e-01 3.0250001e+00 0.0000000e+00 
7.5000000e-01 3.0250001e+00 5.0000000e-01 
7.5000000e-01 3.0250001e+00 1.0000000e+00 
7.5000000e-01 3.0250001e+00 1.5000000e+00 
7.5000000e-01 3.0250001e+00 2.0000000e+00 
7.5000000e-01 3.0250001e+00 2.5000000e+00 
7.5000000e-01 3.0250001e+00 3.0000000e+00 
7.5000000e-01 3.0250001e+00 3.5000000e+00 
7.5000000e-01 3.0250001e+00 4.0000000e+00 
7.5000000e-01 3.0250001e+00 4.5000000e+00 
7.5000000e-01 3.0250001e+00 5.0000000e+00 
7.5000000e-01 3.0250001e+00 5.5000000e+00 
7.5000000e-01 3.0250001e+00 6.0000000e+00 
7.5000000e-01 3.0250001e+00 6.5000000e+00 
7.5000000e-01 3.0250001e+00 7.0000000e+00 
7.5000000e-01 3.0250001e+00 7.5000000e+00 
7.5000000e-01 3.0250001e+00 8.0000000e+00 
7.5000000e-01 3.0250001e+00 8.5000000e+00 
7.5000000e-01 3.0250001e+00 9.0000000e+00 
7.5000000e-01 3.0250001e+00 9.5000000e+00 
7.5000000e-01 3.0250001e+00 1.0000000e+01 
7.5000000e-01 3.0250001e+00 1.0500000e+01 
7.5000000e-01 3.0250001e+00 1.1000000e+01 
7.5000000e-01 3.0250001e+00 1.1500000e+01 
7.5000000e-01 3.0250001e+00 1.2000000e+01 
7.5000000e-01 3.0250001e+00 1.2500000e+01 
7.5000000e-01 3.0250001e+00 1.3000000e+01 
7.5000000e-01 3.0250001e+00 1.3500000e+01 
7.5000000e-01 3.0250001e+00 1.4000000e+01 
7.5000000e-01 3.0250001e+00 1.4500000e+01 
7.5000000e-01 3.0250001e+00 1.5000000e+01 
7.5000000e-01 3.0250001e+00 1.5500000e+01 
7.5000000e-01 3.0250001e+00 1.6000000e+01 
7.5000000e-01 3.0250001e+00 1.6500000e+01 
7.5000000e-01 3.0250001e+00 1.7000000e+01 
7.5000000e-01 3.0250001e+00 1.7500000e+01 
7.5000000e-01 3.0250001e+00 1.8000000e+01 
7.5000000e-01 3.0250001e+00 1.8500000e+01 
7.5000000e-01 3.0250001e+00 1.9000000e+01 
7.5000000e-01 3.0250001e+00 1.9500000e+01 
7.5000000e-01 3.0250001e+00 2.0000000e+01 
7.5000000e-01 3.0250001e+00 2.0500000e+01 
7.5000000e-01 3.0250001e+00 2.1000000e+01 
7.5000000e-01 3.0250001e+00 2.1500000e+01 
7.5000000e-01 3.0250001e+00 2.2000000e+01 
7.5000000e-01 3.0250001e+00 2.2500000e+01 
7.5000000e-01 3.0250001e+00 2.3000000e+01 
7.5000000e-01 3.0250001e+00 2.3500000e+01 
7.5000000e-01 3.0250001e+00 2.4000000e+01 
7.5000000e-01 3.0250001e+00 2.4500000e+01 
7.5000000e-01 3.0250001e+00 2.5000000e+01 
7.5000000e-01 3.0250001e+00 2.5500000e+01 
7.5000000e-01 3.0250001e+00 2.6000000e+01 
7.5000000e-01 3.0250001e+00 2.6500000e+01 
7.5000000e-01 3.0250001e+00 2.7000000e+01 
7.5000000e-01 3.0250001e+00 2.7500000e+01 
7.5000000e-01 3.0250001e+00 2.8000000e+01 
7.5000000e-01 3.0250001e+00 2.8500000e+01 
7.5000000e-01 3.0250001e+00 2.9000000e+01 
7.5000000e-01 3.0250001e+00 2.9500000e+01 
7.5000000e-01 3.0250001e+00 3.0000000e+01 
7.5000000e-01 3.0250001e+00 3.0500000e+01 
7.5000000e-01 3.0250001e+00 3.1000000e+01 
7.5000000e-01 3.0250001e+00 3.1500000e+01 
7.5000000e-01 3.0250001e+00 3.2000000e+01 
7.5000000e-01 3.0250001e+00 3.2500000e+01 
7.5000000e-01 3.0250001e+00 3.3000000e+01 
7.5000000e-01 3.0250001e+00 3.3500000e+01 
7.5000000e-01 3.0250001e+00 3.4000000e+01 
7.5000000e-01 3.0250001e+00 3.4500000e+01 
7.5000000e-01 3.0250001e+00 3.5000000e+01 
7.5000000e-01 3.0250001e+00 3.5500000e+01 
7.5000000e-01 3.0250001e+00 3.6000000e+01 
7.5000000e-01 3.0250001e+00 3.6500000e+01 
7.5000000e-01 3.0250001e+00 3.7000000e+01 
7.5000000e-01 3.0250001e+00 3.7500000e+01 
7.5000000e-01 3.0250001e+00 3.8000000e+01 
7.5000000e-01 3.0250001e+00 3.8500000e+01 
7.5000000e-01 3.0250001e+00 3.9000000e+01 
7.5000000e-01 3.0250001e+00 3.9500000e+01 
7.5000000e-01 3.0250001e+00 4.0000000e+01 
7.5000000e-01 3.0250001e+00 4.0500000e+01 
7.5000000e-01 3.0250001e+00 4.1000000e+01 
7.5000000e-01 3.0250001e+00 4.1500000e+01 
7.5000000e-01 3.0250001e+00 4.2000000e+01 
7.5000000e-01 3.0250001e+00 4.2500000e+01 
7.5000000e-01 3.0250001e+00 4.3000000e+01 
7.5000000e-01 3.0250001e+00 4.3500000e+01 
7.5000000e-01 3.0250001e+00 4.4000000e+01 
7.5000000e-01 3.0250001e+00 4.4500000e+01 
7.5000000e-01 3.0250001e+00 4.5000000e+01 
7.5000000e-01 3.0250001e+00 4.5500000e+01 
7.5000000e-01 3.0250001e+00 4.6000000e+01 
7.5000000e-01 3.0250001e+00 4.6500000e+01 
7.5000000e-01 3.0250001e+00 4.7000000e+01 
7.5000000e-01 3.0250001e+00 4.7500000e+01 
7.5000000e-01 3.0250001e+00 4.8000000e+01 
7.5000000e-01 3.0250001e+00 4.8500000e+01 
7.5000000e-01 3.0250001e+00 4.9000000e+01 
7.5000000e-01 3.0250001e+00 4.9500000e+01 
7.5000000e-01 3.0250001e+00 5.0000000e+01 
1.5000000e+00 3.0000000e+00 2.5000000e+01 
3.0000000e+00 2.0000000e+00 2.5000000e+01 
4.0000000e+00 2.0000000e+00 2.5000000e+01 
5.0000000e+00 2.0000000e+00 2.5000000e+01 
0.0000000e+00 3.0000000e+00 2.5000000e+01 
0.0000000e+00 0.0000000e+00 1.0000000e+00 
0.0000000e+00 0.0000000e+00 2.0000000e+00 
0.0000000e+00 0.0000000e+00 3.0000000e+00 
0.0000000e+00 0.0000000e+00 4.0000000e+00 
0.0000000e+00 0.0000000e+00 5.0000000e+00 
[...]
POINT_DATA 1919
FIELD FieldData 3
DISPLACEMENT 3 1919  float
0.0000000e+00 0.0000000e+00 0.0000000e+00 
0.0000000e+00 0.0000000e+00 0.0000000e+00 
0.0000000e+00 0.0000000e+00 0.0000000e+00 
0.0000000e+00 0.0000000e+00 0.0000000e+00 
1.6761573e-05 -3.5333128e-06 -1.7547480e-05 
-1.4999313e-07 2.0794022e-07 -1.9215443e-07 
0.0000000e+00 1.9801455e-05 0.0000000e+00 
0.0000000e+00 3.3829343e-07 0.0000000e+00 
9.4364095e-06 3.9244146e-06 -3.7307464e-06 
-1.7364876e-07 2.2589458e-07 2.1789934e-07 
3.3334688e-06 -2.0483016e-05 -2.0486565e-05 
1.4179738e-08 -1.2995326e-07 -1.1747702e-07 
0.0000000e+00 4.2704862e-05 0.0000000e+00 
0.0000000e+00 2.6608308e-07 0.0000000e+00 
3.2371856e-05 2.2176295e-05 -1.0107586e-04 
-4.1580813e-07 -5.2412673e-07 5.6494343e-09 
-3.8503000e-05 8.0262726e-06 -9.1493384e-05 
9.1961574e-08 3.2440653e-06 1.2819460e-07 
0.0000000e+00 7.2463212e-05 0.0000000e+00 
0.0000000e+00 -1.6061141e-06 0.0000000e+00 
1.2379265e-05 2.5447280e-05 -7.2739633e-05 
6.3822627e-05 5.9696882e-05 -5.3198091e-05 
7.7534889e-05 8.0118225e-05 -2.0829946e-05 
1.0572844e-04 7.2782626e-05 2.4013676e-05 
1.1331339e-04 5.0631726e-05 1.9151143e-05 
1.0835603e-04 4.0064508e-05 3.3877957e-05 
1.0832454e-04 5.0963412e-05 5.6696124e-05 
8.7598055e-05 6.2699706e-05 5.3034804e-05 
8.2494684e-05 5.2286796e-05 5.4012133e-05 
8.0153412e-05 1.1600914e-05 6.0551865e-05 
3.8192095e-05 -3.1217838e-05 4.2654250e-05 
5.3760428e-05 -4.9679707e-05 3.1337444e-05 
1.3804783e-05 -6.9202732e-05 6.5120395e-05 
5.4433574e-05 -2.1033175e-04 4.6853460e-05 
3.2610198e-05 -6.1640149e-04 1.1548117e-04 
2.6440794e-05 -1.3630752e-03 6.2532999e-05 
-9.1739503e-06 -2.4050816e-03 1.4192308e-04 
-2.2352364e-05 -3.5480272e-03 -1.2161713e-05 
-1.1464403e-04 -4.5040352e-03 7.1379072e-05 
-1.0897054e-04 -4.7827973e-03 -3.8509548e-05 
-9.6554060e-05 -4.4498537e-03 -4.5328146e-05 
-1.7020990e-04 -4.2072185e-03 -2.7847096e-05 
-1.9367672e-04 -4.3959413e-03 4.3780325e-05 
-2.9987088e-04 -4.6150242e-03 -2.4436980e-05 
-3.1107556e-04 -4.2182328e-03 -1.2199333e-04 
-1.9556082e-04 -2.9772699e-03 -3.6470912e-05 
-1.1208774e-04 -1.6565112e-03 -1.8648745e-04 
-7.8207348e-05 -6.7569606e-04 -6.8540765e-05 
-6.5573131e-06 -9.5791474e-05 -4.9728820e-05 
-1.4778893e-05 1.7181010e-04 1.4822451e-05 
-3.7389986e-05 2.2925729e-04 1.0364721e-05 
-3.6095673e-05 1.7288711e-04 -2.4545339e-05 
-2.2819335e-05 9.3405506e-05 -6.3263076e-05 
1.1992452e-05 4.1971496e-05 -9.6085336e-05 
3.1473373e-05 2.6016187e-05 -6.8542038e-05 
2.0690883e-05 2.6468171e-05 -6.4648731e-05 
5.9612748e-06 2.1988079e-05 -2.6278234e-05 
-1.9644129e-05 1.0373627e-05 -2.5033487e-05 
-2.8609495e-05 1.8757105e-07 -3.6711182e-05 
6.4110832e-06 -1.2936705e-06 -4.5810375e-05 
4.3861073e-05 1.0454405e-05 -4.9981471e-05 
6.1346254e-05 3.9419538e-05 -3.0502435e-05 
6.8778136e-05 7.5584292e-05 -2.0441812e-05 
8.6325585e-05 9.2016715e-05 4.4310241e-06 
1.0484119e-04 7.4162490e-05 1.8042789e-05 
1.0541444e-04 3.2993456e-05 5.0404535e-05 
8.6213469e-05 2.5425459e-06 7.4108699e-05 
5.0207211e-05 1.2135330e-06 8.6980435e-05 
5.6194436e-05 1.2535492e-05 8.0820791e-05 
4.7928879e-05 -3.1092084e-06 7.4756768e-05 
3.6634301e-05 -5.8356360e-05 5.1836781e-05 
2.1575886e-05 -1.3572356e-04 5.8664162e-05 
1.3477267e-05 -2.2346307e-04 7.0644361e-05 
1.8237195e-05 -3.8037897e-04 4.8076276e-05 
3.0993662e-05 -7.4675510e-04 1.2262269e-04 
5.1733360e-07 -1.4903125e-03 4.8615781e-05 
-5.7011850e-05 -2.6400287e-03 1.3984508e-04 
-1.2983345e-04 -3.9344616e-03 -2.1403339e-05 
-1.8499409e-04 -4.8703947e-03 2.2944512e-05 
-2.0283167e-04 -4.8347879e-03 -6.3390078e-05 
-1.7512606e-04 -4.3735495e-03 -1.0109915e-04 
-2.0732434e-04 -4.1901106e-03 -3.6486246e-05 
-1.9519329e-04 -4.4781454e-03 4.2039210e-05 
-2.8491241e-04 -4.6479800e-03 -7.6372389e-06 
-2.9884430e-04 -4.0035285e-03 -1.1006585e-04 
-2.2418666e-04 -2.7183960e-03 -3.2765260e-05 
-1.3965038e-04 -1.4796533e-03 -2.2345858e-04 
-9.5526455e-05 -5.6100963e-04 -9.1426249e-05 
-3.2348926e-05 -2.5038571e-05 -8.0779857e-05 
-1.6384862e-05 1.9988832e-04 -1.1166782e-05 
-4.8241436e-05 2.1962266e-04 -2.5313544e-05 
-3.5861496e-05 1.5431433e-04 -5.9845446e-05 
5.8112837e-06 9.2566559e-05 -9.0380752e-05 
2.3798137e-05 5.6304438e-05 -9.8975681e-05 
6.8145418e-05 3.2482385e-05 -7.6864686e-05 
4.0738782e-05 9.4449351e-06 2.4669547e-05 
1.8781235e-05 -8.9714258e-06 2.1977390e-05 
2.7292413e-06 -1.7565024e-05 2.6736961e-05 
-1.3529208e-05 -1.8816956e-05 3.2852891e-05 
-1.5726717e-05 -1.7563187e-05 2.2306169e-05 
-1.2968384e-05 -1.4285826e-05 5.0917420e-06 
-7.1402005e-06 -7.0866731e-06 1.3342963e-06 
2.1064750e-07 3.7994535e-06 -5.1208121e-06 
2.4426583e-06 1.1967815e-05 -4.5221254e-06 
2.8749469e-06 1.2033716e-05 -2.1179922e-06 
1.2354708e-06 5.6440354e-06 -2.2286326e-06 
2.0331026e-07 -1.4918403e-06 6.1907667e-07 
4.6821003e-07 -5.2171522e-06 1.9037983e-06 
-2.1761798e-07 -5.5089654e-06 1.4240680e-07 
-1.0069153e-07 -3.7372315e-06 1.3058619e-06 
-2.4124034e-07 -6.4488131e-07 6.9709711e-07 
-5.5566989e-07 2.5979343e-06 -8.7843233e-07 
-7.2085044e-08 4.3000286e-06 7.7797232e-08 
3.1890842e-08 3.2173973e-06 -1.5267192e-07 
2.6426045e-07 -2.4447820e-07 -6.7990186e-07 
2.8151621e-07 -3.5035325e-06 4.7213251e-07 
2.7633777e-07 -4.0984228e-06 -9.0910419e-08 
-3.9187697e-07 -1.7509667e-06 2.2234900e-07 
-6.2410635e-08 1.6223296e-06 -1.3365341e-08 
0.0000000e+00 8.7936969e-06 0.0000000e+00 
0.0000000e+00 2.5824482e-05 0.0000000e+00 
0.0000000e+00 5.9167000e-05 0.0000000e+00 
0.0000000e+00 7.9219186e-05 0.0000000e+00 
0.0000000e+00 7.2280891e-05 0.0000000e+00 
0.0000000e+00 5.1078812e-05 0.0000000e+00 
0.0000000e+00 4.1190651e-05 0.0000000e+00 
0.0000000e+00 5.1461931e-05 0.0000000e+00 
0.0000000e+00 6.2580519e-05 0.0000000e+00 
0.0000000e+00 5.1036892e-05 0.0000000e+00 
0.0000000e+00 1.1437985e-05 0.0000000e+00 
0.0000000e+00 -2.9924509e-05 0.0000000e+00 
0.0000000e+00 -4.6349429e-05 0.0000000e+00 
0.0000000e+00 -6.7184716e-05 0.0000000e+00 
0.0000000e+00 -2.1125235e-04 0.0000000e+00 
0.0000000e+00 -6.2094175e-04 0.0000000e+00 
0.0000000e+00 -1.3699738e-03 0.0000000e+00 
0.0000000e+00 -2.4092637e-03 0.0000000e+00 
0.0000000e+00 -3.5633480e-03 0.0000000e+00 
0.0000000e+00 -4.5267078e-03 0.0000000e+00 
0.0000000e+00 -4.8187850e-03 0.0000000e+00 
0.0000000e+00 -4.4756965e-03 0.0000000e+00 
0.0000000e+00 -4.2341324e-03 0.0000000e+00 
0.0000000e+00 -4.4118213e-03 0.0000000e+00 
0.0000000e+00 -4.6449932e-03 0.0000000e+00 
0.0000000e+00 -4.2417855e-03 0.0000000e+00 
0.0000000e+00 -3.0020203e-03 0.0000000e+00 
0.0000000e+00 -1.6679686e-03 0.0000000e+00 
0.0000000e+00 -6.7993393e-04 0.0000000e+00 
0.0000000e+00 -9.6082469e-05 0.0000000e+00 
0.0000000e+00 1.7195295e-04 0.0000000e+00 
0.0000000e+00 2.2981035e-04 0.0000000e+00 
0.0000000e+00 1.7486040e-04 0.0000000e+00 
0.0000000e+00 9.4924420e-05 0.0000000e+00 
0.0000000e+00 4.2466025e-05 0.0000000e+00 
0.0000000e+00 2.5806541e-05 0.0000000e+00 
0.0000000e+00 2.5940661e-05 0.0000000e+00 
0.0000000e+00 2.1974871e-05 0.0000000e+00 
0.0000000e+00 1.0546440e-05 0.0000000e+00 
0.0000000e+00 1.7638975e-09 0.0000000e+00 
0.0000000e+00 -1.6236914e-06 0.0000000e+00 
0.0000000e+00 1.0936780e-05 0.0000000e+00 
0.0000000e+00 4.0318937e-05 0.0000000e+00 
0.0000000e+00 7.5536467e-05 0.0000000e+00 
0.0000000e+00 9.1314127e-05 0.0000000e+00 
0.0000000e+00 7.2994044e-05 0.0000000e+00 
0.0000000e+00 3.3062857e-05 0.0000000e+00 
0.0000000e+00 4.0141445e-06 0.0000000e+00 
0.0000000e+00 2.7328474e-06 0.0000000e+00 
0.0000000e+00 1.2019535e-05 0.0000000e+00 
0.0000000e+00 -4.2288052e-06 0.0000000e+00 
0.0000000e+00 -5.8739501e-05 0.0000000e+00 
0.0000000e+00 -1.3387555e-04 0.0000000e+00 
0.0000000e+00 -2.2040961e-04 0.0000000e+00 
0.0000000e+00 -3.7811080e-04 0.0000000e+00 
0.0000000e+00 -7.5035449e-04 0.0000000e+00 
0.0000000e+00 -1.5006337e-03 0.0000000e+00 
0.0000000e+00 -2.6503413e-03 0.0000000e+00 
0.0000000e+00 -3.9545931e-03 0.0000000e+00 
0.0000000e+00 -4.8895013e-03 0.0000000e+00 
0.0000000e+00 -4.8684198e-03 0.0000000e+00 
0.0000000e+00 -4.3971599e-03 0.0000000e+00 
0.0000000e+00 -4.2192163e-03 0.0000000e+00 
0.0000000e+00 -4.4964096e-03 0.0000000e+00 
0.0000000e+00 -4.6801702e-03 0.0000000e+00 
0.0000000e+00 -4.0254476e-03 0.0000000e+00 
0.0000000e+00 -2.7389794e-03 0.0000000e+00 
0.0000000e+00 -1.4860696e-03 0.0000000e+00 
0.0000000e+00 -5.6583865e-04 0.0000000e+00 
0.0000000e+00 -2.6094140e-05 0.0000000e+00 
0.0000000e+00 2.0013101e-04 0.0000000e+00 
0.0000000e+00 2.2125235e-04 0.0000000e+00 
0.0000000e+00 1.5667205e-04 0.0000000e+00 
0.0000000e+00 9.3471121e-05 0.0000000e+00 
0.0000000e+00 5.6061639e-05 0.0000000e+00 
0.0000000e+00 3.2055901e-05 0.0000000e+00 
0.0000000e+00 9.5568457e-06 0.0000000e+00 
0.0000000e+00 -8.7485587e-06 0.0000000e+00 
0.0000000e+00 -1.7655919e-05 0.0000000e+00 
0.0000000e+00 -1.9009487e-05 0.0000000e+00 
0.0000000e+00 -1.7526121e-05 0.0000000e+00 
0.0000000e+00 -1.4158330e-05 0.0000000e+00 
0.0000000e+00 -6.9340499e-06 0.0000000e+00 
0.0000000e+00 3.6757731e-06 0.0000000e+00 
0.0000000e+00 1.1710003e-05 0.0000000e+00 
0.0000000e+00 1.1968721e-05 0.0000000e+00 
0.0000000e+00 5.7646994e-06 0.0000000e+00 
0.0000000e+00 -1.3540355e-06 0.0000000e+00 
0.0000000e+00 -5.2159780e-06 0.0000000e+00 
0.0000000e+00 -5.5519281e-06 0.0000000e+00 
0.0000000e+00 -3.7056950e-06 0.0000000e+00 
0.0000000e+00 -6.2555836e-07 0.0000000e+00 
0.0000000e+00 2.5589391e-06 0.0000000e+00 
0.0000000e+00 4.2406718e-06 0.0000000e+00 
0.0000000e+00 3.1712191e-06 0.0000000e+00 
0.0000000e+00 -2.1359394e-07 0.0000000e+00 
0.0000000e+00 -3.4345139e-06 0.0000000e+00 
0.0000000e+00 -4.0590789e-06 0.0000000e+00 
0.0000000e+00 -1.7514226e-06 0.0000000e+00 
0.0000000e+00 1.5953843e-06 0.0000000e+00 
0.0000000e+00 3.2096032e-06 0.0000000e+00 
4.1701016e-05 -2.3776272e-04 9.7356169e-05 
-3.1076546e-05 -4.8087102e-05 -1.0611313e-07 
-4.7740261e-05 -3.5413359e-05 -8.4940229e-06 
-5.1622435e-05 -3.4675846e-05 -1.7807159e-05 
0.0000000e+00 -1.2255440e-04 0.0000000e+00 
0.0000000e+00 0.0000000e+00 0.0000000e+00 
0.0000000e+00 0.0000000e+00 0.0000000e+00 
0.0000000e+00 0.0000000e+00 0.0000000e+00 
0.0000000e+00 0.0000000e+00 0.0000000e+00 
0.0000000e+00 0.0000000e+00 0.0000000e+00 
0.0000000e+00 0.0000000e+00 0.0000000e+00 
0.0000000e+00 0.0000000e+00 0.0000000e+00 
0.0000000e+00 0.0000000e+00 0.0000000e+00 
0.0000000e+00 0.0000000e+00 0.0000000e+00 
0.0000000e+00 0.0000000e+00 0.0000000e+00 
0.0000000e+00 0.0000000e+00 0.0000000e+00 
0.0000000e+00 0.0000000e+00 0.0000000e+00 
0.0000000e+00 0.0000000e+00 0.0000000e+00 
0.0000000e+00 0.0000000e+00 0.0000000e+00 
0.0000000e+00 0.0000000e+00 0.0000000e+00 
0.0000000e+00 0.0000000e+00 0.0000000e+00 
0.0000000e+00 0.0000000e+00 0.0000000e+00 
0.0000000e+00 0.0000000e+00 0.0000000e+00 
0.0000000e+00 0.0000000e+00 0.0000000e+00 
0.0000000e+00 0.0000000e+00 0.0000000e+00 
0.0000000e+00 0.0000000e+00 0.0000000e+00 
0.0000000e+00 0.0000000e+00 0.0000000e+00 
0.0000000e+00 0.0000000e+00 0.0000000e+00 
0.0000000e+00 0.0000000e+00 0.0000000e+00 
0.0000000e+00 0.0000000e+00 0.0000000e+00 
0.0000000e+00 0.0000000e+00 0.0000000e+00 
0.0000000e+00 0.0000000e+00 0.0000000e+00 
0.0000000e+00 0.0000000e+00 0.0000000e+00 
0.0000000e+00 0.0000000e+00 0.0000000e+00 
0.0000000e+00 0.0000000e+00 0.0000000e+00 
0.0000000e+00 0.0000000e+00 0.0000000e+00 
0.0000000e+00 0.0000000e+00 0.0000000e+00 
0.0000000e+00 0.0000000e+00 0.0000000e+00 
0.0000000e+00 0.0000000e+00 0.0000000e+00 
0.0000000e+00 0.0000000e+00 0.0000000e+00 
0.0000000e+00 0.0000000e+00 0.0000000e+00 
0.0000000e+00 0.0000000e+00 0.0000000e+00 
0.0000000e+00 0.0000000e+00 0.0000000e+00 
0.0000000e+00 0.0000000e+00 0.0000000e+00 
0.0000000e+00 0.0000000e+00 0.0000000e+00 
0.0000000e+00 0.0000000e+00 0.0000000e+00 
0.0000000e+00 0.0000000e+00 0.0000000e+00 
0.0000000e+00 0.0000000e+00 0.0000000e+00 
0.0000000e+00 0.0000000e+00 0.0000000e+00 
0.0000000e+00 0.0000000e+00 0.0000000e+00 
0.0000000e+00 0.0000000e+00 0.0000000e+00 
0.0000000e+00 0.0000000e+00 0.0000000e+00 
0.0000000e+00 0.0000000e+00 0.0000000e+00 
0.0000000e+00 0.0000000e+00 0.0000000e+00 
0.0000000e+00 0.0000000e+00 0.0000000e+00 
0.0000000e+00 0.0000000e+00 0.0000000e+00 
0.0000000e+00 0.0000000e+00 0.0000000e+00 
0.0000000e+00 0.0000000e+00 0.0000000e+00 
0.0000000e+00 0.0000000e+00 0.0000000e+00 
0.0000000e+00 0.0000000e+00 0.0000000e+00 
0.0000000e+00 0.0000000e+00 0.0000000e+00 
0.0000000e+00 0.0000000e+00 0.0000000e+00 
0.0000000e+00 0.0000000e+00 0.0000000e+00 
0.0000000e+00 0.0000000e+00 0.0000000e+00 
0.0000000e+00 0.0000000e+00 0.0000000e+00 
0.0000000e+00 0.0000000e+00 0.0000000e+00 
0.0000000e+00 0.0000000e+00 0.0000000e+00 
0.0000000e+00 0.0000000e+00 0.0000000e+00 
0.0000000e+00 0.0000000e+00 0.0000000e+00 
0.0000000e+00 0.0000000e+00 0.0000000e+00 
0.0000000e+00 0.0000000e+00 0.0000000e+00 
0.0000000e+00 0.0000000e+00 0.0000000e+00 
0.0000000e+00 0.0000000e+00 0.0000000e+00 
0.0000000e+00 0.0000000e+00 0.0000000e+00 
0.0000000e+00 0.0000000e+00 0.0000000e+00 
0.0000000e+00 0.0000000e+00 0.0000000e+00 
0.0000000e+00 0.0000000e+00 0.0000000e+00 
0.0000000e+00 0.0000000e+00 0.0000000e+00 
0.0000000e+00 0.0000000e+00 0.0000000e+00 
0.0000000e+00 0.0000000e+00 0.0000000e+00 
0.0000000e+00 0.0000000e+00 0.0000000e+00 
0.0000000e+00 0.0000000e+00 0.0000000e+00 
0.0000000e+00 0.0000000e+00 0.0000000e+00 
0.0000000e+00 0.0000000e+00 0.0000000e+00 
0.0000000e+00 0.0000000e+00 0.0000000e+00 
0.0000000e+00 0.0000000e+00 0.0000000e+00 
0.0000000e+00 0.0000000e+00 0.0000000e+00 
0.0000000e+00 0.0000000e+00 0.0000000e+00 
0.0000000e+00 0.0000000e+00 0.0000000e+00 
0.0000000e+00 0.0000000e+00 0.0000000e+00 
0.0000000e+00 0.0000000e+00 0.0000000e+00 
0.0000000e+00 0.0000000e+00 0.0000000e+00 
0.0000000e+00 0.0000000e+00 0.0000000e+00 
0.0000000e+00 0.0000000e+00 0.0000000e+00 
0.0000000e+00 0.0000000e+00 0.0000000e+00 
0.0000000e+00 0.0000000e+00 0.0000000e+00 
0.0000000e+00 0.0000000e+00 0.0000000e+00 
0.0000000e+00 0.0000000e+00 0.0000000e+00 
0.0000000e+00 0.0000000e+00 0.0000000e+00 
0.0000000e+00 0.0000000e+00 0.0000000e+00 
0.0000000e+00 0.0000000e+00 0.0000000e+00 
0.0000000e+00 0.0000000e+00 0.0000000e+00 
0.0000000e+00 0.0000000e+00 0.0000000e+00 
0.0000000e+00 0.0000000e+00 0.0000000e+00 
0.0000000e+00 0.0000000e+00 0.0000000e+00 
0.0000000e+00 0.0000000e+00 0.0000000e+00 
0.0000000e+00 0.0000000e+00 0.0000000e+00 
0.0000000e+00 0.0000000e+00 0.0000000e+00 
0.0000000e+00 0.0000000e+00 0.0000000e+00 
0.0000000e+00 0.0000000e+00 0.0000000e+00 
0.0000000e+00 0.0000000e+00 0.0000000e+00 
1.1935567e-05 -9.4075867e-06 -8.6726723e-06 
5.9085924e-06 -1.2358740e-05 -4.7908643e-06 
-1.0559603e-06 -1.0851596e-05 -6.0373086e-06 
-6.9430621e-06 -2.0802261e-05 -7.3870383e-06 
-8.8175184e-06 -1.8140443e-05 -1.2555162e-05 
-5.5864316e-08 -1.4956639e-05 -1.2427429e-05 
-6.1005499e-06 -3.2643595e-05 -1.3371929e-05 
8.2359320e-06 -2.7327178e-05 -1.8460321e-05 
2.9789835e-05 -2.8842818e-05 -1.3875698e-05 
4.5508314e-05 -2.2418881e-05 5.2153968e-07 
5.4961456e-05 -2.5740314e-05 1.4000366e-05 
5.2473977e-05 -1.6902157e-05 2.8490962e-05 
4.3941305e-05 -5.9578238e-06 4.8530706e-05 
2.7214483e-05 -8.7054132e-06 4.4713946e-05 
1.3656492e-05 -6.3961925e-06 2.7458587e-05 
5.8517389e-06 -4.0437321e-06 1.0623387e-05 
4.9648420e-06 -1.9547524e-06 -6.8591244e-06 
2.8408369e-06 -2.0253649e-06 -2.4334329e-05 
8.0515993e-06 -3.0403626e-06 -3.0547395e-05 
7.8516914e-06 5.9619663e-07 -1.9193260e-05 
9.9159279e-06 -8.5000183e-06 -1.2101689e-05 
-2.9501477e-08 -8.7613007e-06 6.3037243e-07 
-8.4888443e-06 -1.3992163e-05 1.4372374e-06 
-1.2278152e-05 -2.7158447e-05 -6.7336287e-06 
-2.0977848e-05 -2.3761308e-05 -9.0925514e-06 
-1.7575030e-05 -2.3068140e-05 -1.4388344e-05 
2.0131903e-07 -3.3834745e-05 -1.8091041e-05 
1.5362826e-05 -3.8751368e-05 -2.1092399e-05 
3.7178575e-05 -3.1586049e-05 -5.3023305e-06 
4.9830036e-05 -2.7882803e-05 8.7146364e-06 
5.1978204e-05 -2.3615989e-05 2.1214675e-05 
5.6685403e-05 -1.8051043e-05 3.6237609e-05 
4.6855883e-05 -8.9090599e-06 3.8554859e-05 
3.2785458e-05 -2.9628980e-06 3.5582241e-05 
1.3331659e-05 -6.8567410e-06 2.1011156e-05 
3.2136047e-06 -7.6212416e-07 5.3982317e-06 
-1.5964036e-06 1.1383371e-06 -6.9273842e-06 
-3.7590980e-06 3.5829410e-06 -1.5976826e-05 
-2.8772981e-06 2.9420880e-06 -1.0549060e-05 
-1.6261774e-06 8.0908802e-07 -1.7747711e-06 
-8.3142845e-07 -1.4247584e-08 1.9144054e-06 
4.4507999e-07 -3.0740418e-07 2.9642961e-06 
4.1324935e-07 -2.5895525e-07 2.6567320e-06 
-1.4584283e-07 -1.3185658e-06 4.4721943e-07 
2.9193384e-07 6.6880173e-09 -6.8094516e-07 
3.1750852e-07 4.2283847e-07 -4.1493095e-07 
1.9890859e-08 6.9165895e-09 -1.4905157e-07 
-8.8786834e-08 -1.3848617e-07 -3.1887211e-07 
2.5574184e-07 1.3646517e-08 2.0350963e-07 
0.0000000e+00 1.3592186e-06 0.0000000e+00 
0.0000000e+00 -7.4182281e-05 0.0000000e+00 
0.0000000e+00 -1.2318815e-04 0.0000000e+00 
0.0000000e+00 -1.8334860e-04 0.0000000e+00 
0.0000000e+00 -2.2711440e-04 0.0000000e+00 
0.0000000e+00 -1.9844038e-04 0.0000000e+00 
0.0000000e+00 -3.0599485e-04 0.0000000e+00 
0.0000000e+00 -4.7840236e-04 0.0000000e+00 
0.0000000e+00 -5.6191446e-04 0.0000000e+00 
0.0000000e+00 -6.3123443e-04 0.0000000e+00 
0.0000000e+00 -5.3700729e-04 0.0000000e+00 
0.0000000e+00 -4.3423960e-04 0.0000000e+00 
0.0000000e+00 -2.6230494e-04 0.0000000e+00 
0.0000000e+00 -6.6281529e-05 0.0000000e+00 
0.0000000e+00 -1.6815775e-05 0.0000000e+00 
0.0000000e+00 -2.2292519e-05 0.0000000e+00 
0.0000000e+00 -4.4412182e-06 0.0000000e+00 
0.0000000e+00 3.0203884e-05 0.0000000e+00 
0.0000000e+00 3.1098727e-05 0.0000000e+00 
0.0000000e+00 1.4231763e-05 0.0000000e+00 
0.0000000e+00 -1.3972592e-05 0.0000000e+00 
0.0000000e+00 -6.3674757e-05 0.0000000e+00 
0.0000000e+00 -1.0254706e-04 0.0000000e+00 
0.0000000e+00 -9.1081973e-05 0.0000000e+00 
0.0000000e+00 -2.0301683e-04 0.0000000e+00 
0.0000000e+00 -2.5237136e-04 0.0000000e+00 
0.0000000e+00 -2.6700681e-04 0.0000000e+00 
0.0000000e+00 -4.9464928e-04 0.0000000e+00 
0.0000000e+00 -5.5686536e-04 0.0000000e+00 
0.0000000e+00 -5.8914640e-04 0.0000000e+00 
0.0000000e+00 -5.4668036e-04 0.0000000e+00 
0.0000000e+00 -3.8987133e-04 0.0000000e+00 
0.0000000e+00 -2.5804248e-04 0.0000000e+00 
0.0000000e+00 -6.7222267e-05 0.0000000e+00 
0.0000000e+00 -1.6949542e-07 0.0000000e+00 
0.0000000e+00 -1.0988835e-05 0.0000000e+00 
0.0000000e+00 -1.4603442e-05 0.0000000e+00 
0.0000000e+00 -2.9799369e-06 0.0000000e+00 
0.0000000e+00 7.1915292e-06 0.0000000e+00 
0.0000000e+00 5.7744123e-06 0.0000000e+00 
0.0000000e+00 9.1365024e-07 0.0000000e+00 
0.0000000e+00 -5.8014111e-06 0.0000000e+00 
0.0000000e+00 8.6009791e-08 0.0000000e+00 
0.0000000e+00 2.6024170e-06 0.0000000e+00 
0.0000000e+00 6.7118322e-07 0.0000000e+00 
0.0000000e+00 -1.0808812e-06 0.0000000e+00 
0.0000000e+00 -2.4226588e-07 0.0000000e+00 
0.0000000e+00 1.3079348e-07 0.0000000e+00 
0.0000000e+00 -4.6120101e-07 0.0000000e+00 
1.9046494e-05 -1.0477178e-05 -1.5882442e-05 
6.4002493e-06 -9.6466229e-06 -2.4555848e-05 
-5.5579744e-06 -2.5529903e-06 -2.7045067e-05 
-7.5995335e-06 1.8073011e-05 -1.2862599e-05 
1.7272090e-07 9.5612279e-08 2.0883878e-08 
8.1905640e-08 -1.9565499e-07 2.7373899e-08 
-1.9917769e-07 6.5411847e-08 1.5654702e-07 
3.3333333e-08 -5.7716363e-08 7.9956088e-08 
3.4230939e-06 -1.3582167e-05 -7.5471771e-06 
-1.2445736e-07 4.0476758e-07 -4.4321681e-07 
1.6375122e-06 1.2698501e-05 -2.2413291e-05 
1.6899007e-06 3.2597907e-07 -2.8603699e-05 
0.0000000e+00 -8.7265234e-06 0.0000000e+00 
0.0000000e+00 -5.7460449e-05 0.0000000e+00 
0.0000000e+00 -1.5868523e-04 0.0000000e+00 
0.0000000e+00 -2.6346350e-04 0.0000000e+00 
0.0000000e+00 -3.0804804e-04 0.0000000e+00 
0.0000000e+00 -2.9503502e-04 0.0000000e+00 
0.0000000e+00 -4.7187757e-04 0.0000000e+00 
0.0000000e+00 -8.1001350e-04 0.0000000e+00 
0.0000000e+00 -1.0907922e-03 0.0000000e+00 
0.0000000e+00 -1.2594801e-03 0.0000000e+00 
0.0000000e+00 -1.0398135e-03 0.0000000e+00 
0.0000000e+00 -8.8935549e-04 0.0000000e+00 
0.0000000e+00 -4.9385411e-04 0.0000000e+00 