# vtk DataFile Version 4.0
vtk output
ASCII
DATASET UNSTRUCTURED_GRID
POINTS 1919 float
0.0000000e+00 0.0000000e+00 0.0000000e+00 
0.0000000e+00 0.0000000e+00 5.0000000e+01 
5.0000000e+00 0.0000000e+00 0.0000000e+00 
5.0000000e+00 0.0000000e+00 5.0000000e+01 
5.0000000e+00 1.0000000e+00 0.0000000e+00 
5.0000000e+00 1.0000000e+00 5.0000000e+01 
0.0000000e+00 1.0000000e+00 0.0000000e+00 
0.0000000e+00 1.0000000e+00 5.0000000e+01 
5.0000000e+00 2.0000000e+00 0.0000000e+00 
5.0000000e+00 2.0000000e+00 5.0000000e+01 
3.0000000e+00 2.0000000e+00 0.0000000e+00 
3.0000000e+00 2.0000000e+00 5.0000000e+01 
0.0000000e+00 2.0000000e+00 0.0000000e+00 
0.0000000e+00 2.0000000e+00 5.0000000e+01 
1.5000000e+00 3.0000000e+00 0.0000000e+00 
1.5000000e+00 3.0000000e+00 5.0000000e+01 
7.5000000e-01 3.0000000e+00 0.0000000e+00 
7.5000000e-01 3.0000000e+00 5.0000000e+01 
0.0000000e+00 3.0000000e+00 0.0000000e+00 
0.0000000e+00 3.0000000e+00 5.0000000e+01 
7.5000000e-01 3.0000000e+00 5.0000000e-01 
7.5000000e-01 3.0000000e+00 1.0000000e+00 
7.5000000e-01 3.0000000e+00 1.5000000e+00 
7.5000000e-01 3.0000000e+00 2.0000000e+00 
7.5000000e-01 3.0000000e+00 2.5000000e+00 
7.5000000e-01 3.0000000e+00 3.0000000e+00 
7.5000000e-01 3.0000000e+00 3.5000000e+00 
7.5000000e-01 3.0000000e+00 4.0000000e+00 
7.5000000e-01 3.0000000e+00 4.5000000e+00 
7.5000000e-01 3.0000000e+00 5.0000000e+00 
7.5000000e-01 3.0000000e+00 5.5000000e+00 
7.5000000e-01 3.0000000e+00 6.0000000e+00 
7.5000000e-01 3.0000000e+00 6.5000000e+00 
7.5000000e-01 3.0000000e+00 7.0000000e+00 
7.5000000e-01 3.0000000e+00 7.5000000e+00 
7.5000000e-01 3.0000000e+00 8.0000000e+00 
7.5000000e-01 3.0000000e+00 8.5000000e+00 
7.5000000e-01 3.0000000e+00 9.0000000e+00 
7.5000000e-01 3.0000000e+00 9.5000000e+00 
7.5000000e-01 3.0000000e+00 1.0000000e+01 
7.5000000e-01 3.0000000e+00 1.0500000e+01 
7.5000000e-01 3.0000000e+00 1.1000000e+01 
7.5000000e-01 3.0000000e+00 1.1500000e+01 
7.5000000e-01 3.0000000e+00 1.2000000e+01 
7.5000000e-01 3.0000000e+00 1.2500000e+01 
7.5000000e-01 3.0000000e+00 1.3000000e+01 
7.5000000e-01 3.0000000e+00 1.3500000e+01 
7.5000000e-01 3.0000000e+00 1.4000000e+01 
7.5000000e-01 3.0000000e+00 1.4500000e+01 
7.5000000e-01 3.0000000e+00 1.5000000e+01 
7.5000000e-01 3.0000000e+00 1.5500000e+01 
7.5000000e-01 3.0000000e+00 1.6000000e+01 
7.5000000e-01 3.0000000e+00 1.6500000e+01 
7.5000000e-01 3.0000000e+00 1.7000000e+01 
7.5000000e-01 3.0000000e+00 1.7500000e+01 
7.5000000e-01 3.0000000e+00 1.8000000e+01 
7.5000000e-01 3.0000000e+00 1.8500000e+01 
7.5000000e-01 3.0000000e+00 1.9000000e+01 
7.5000000e-01 3.0000000e+00 1.9500000e+01 
7.5000000e-01 3.0000000e+00 2.0000000e+01 
7.5000000e-01 3.0000000e+00 2.0500000e+01 
7.5000000e-01 3.0000000e+00 2.1000000e+01 
7.5000000e-01 3.0000000e+00 2.1500000e+01 
7.5000000e-01 3.0000000e+00 2.2000000e+01 
7.5000000e-01 3.0000000e+00 2.2500000e+01 
7.5000000e-01 3.0000000e+00 2.3000000e+01 
7.5000000e-01 3.0000000e+00 2.3500000e+01 
7.5000000e-01 3.0000000e+00 2.4000000e+01 
7.5000000e-01 3.0000000e+00 2.4500000e+01 
7.5000000e-01 3.0000000e+00 2.5000000e+01 
7.5000000e-01 3.0000000e+00 2.5500000e+01 
7.5000000e-01 3.0000000e+00 2.6000000e+01 
7.5000000e-01 3.0000000e+00 2.6500000e+01 
7.5000000e-01 3.0000000e+00 2.7000000e+01 
7.5000000e-01 3.0000000e+00 2.7500000e+01 
7.5000000e-01 3.0000000e+00 2.8000000e+01 
7.5000000e-01 3.0000000e+00 2.8500000e+01 
7.5000000e-01 3.0000000e+00 2.9000000e+01 
7.5000000e-01 3.0000000e+00 2.9500000e+01 
7.5000000e-01 3.0000000e+00 3.0000000e+01 
7.5000000e-01 3.0000000e+00 3.0500000e+01 
7.5000000e-01 3.0000000e+00 3.1000000e+01 
7.5000000e-01 3.0000000e+00 3.1500000e+01 
7.5000000e-01 3.0000000e+00 3.2000000e+01 
7.5000000e-01 3.0000000e+00 3.2500000e+01 
7.5000000e-01 3.0000000e+00 3.3000000e+01 
7.5000000e-01 3.0000000e+00 3.3500000e+01 
7.5000000e-01 3.0000000e+00 3.4000000e+01 
7.5000000e-01 3.0000000e+00 3.4500000e+01 
7.5000000e-01 3.0000000e+00 3.5000000e+01 
7.5000000e-01 3.0000000e+00 3.5500000e+01 
7.5000000e-01 3.0000000e+00 3.6000000e+01 
7.5000000e-01 3.0000000e+00 3.6500000e+01 
7.5000000e-01 3.0000000e+00 3.7000000e+01 
7.5000000e-01 3.0000000e+00 3.7500000e+01 
7.5000000e-01 3.0000000e+00 3.8000000e+01 
7.5000000e-01 3.0000000e+00 3.8500000e+01 
7.5000000e-01 3.0000000e+00 3.9000000e+01 
7.5000000e-01 3.0000000e+00 3.9500000e+01 
7.5000000e-01 3.0000000e+00 4.0000000e+01 
7.5000000e-01 3.0000000e+00 4.0500000e+01 
7.5000000e-01 3.0000000e+00 4.1000000e+01 
7.5000000e-01 3.0000000e+00 4.1500000e+01 
7.5000000e-01 3.0000000e+00 4.2000000e+01 
7.5000000e-01 3.0000000e+00 4.2500000e+01 
7.5000000e-01 3.0000000e+00 4.3000000e+01 
7.5000000e-01 3.0000000e+00 4.3500000e+01 
7.5000000e-01 3.0000000e+00 4.4000000e+01 
7.5000000e-01 3.0000000e+00 4.4500000e+01 
7.5000000e-01 3.0000000e+00 4.5000000e+01 
7.5000000e-01 3.0000000e+00 4.5500000e+01 
7.5000000e-01 3.0000000e+00 4.6000000e+01 
7.5000000e-01 3.0000000e+00 4.6500000e+01 
7.5000000e-01 3.0000000e+00 4.7000000e+01 
7.5000000e-01 3.0000000e+00 4.7500000e+01 
7.5000000e-01 3.0000000e+00 4.8000000e+01 
7.5000000e-01 3.0000000e+00 4.8500000e+01 
7.5000000e-01 3.0000000e+00 4.9000000e+01 
7.5000000e-01 3.0000000e+00 4.9500000e+01 
7.5000000e-01 3.0250001e+00 0.0000000e+00 
7.5000000e-01 3.0250001e+00 5.0000000e-01 
7.5000000e-01 3.0250001e+00 1.0000000e+00 
7.5000000e-01 3.0250001e+00 1.5000000e+00 
7.5000000e-01 3.0250001e+00 2.0000000e+00 
7.5000000e-01 3.0250001e+00 2.5000000e+00 
7.5000000e-01 3.0250001e+00 3.0000000e+00 
7.5000000e-01 3.0250001e+00 3.5000000e+00 
7.5000000e-01 3.0250001e+00 4.0000000e+00 
7.5000000e-01 3.0250001e+00 4.5000000e+00 
7.5000000e-01 3.0250001e+00 5.0000000e+00 
7.5000000e-01 3.0250001e+00 5.5000000e+00 
7.5000000e-01 3.0250001e+00 6.0000000e+00 
7.5000000e-01 3.0250001e+00 6.5000000e+00 
7.5000000e-01 3.0250001e+00 7.0000000e+00 
7.5000000e-01 3.0250001e+00 7.5000000e+00 
7.5000000e-01 3.0250001e+00 8.0000000e+00 
7.5000000e-01 3.0250001e+00 8.5000000e+00 
7.5000000e-01 3.0250001e+00 9.0000000e+00 
7.5000000e-01 3.0250001e+00 9.5000000e+00 
7.5000000e-01 3.0250001e+00 1.0000000e+01 
7.5000000e-01 3.0250001e+00 1.0500000e+01 
7.5000000e-01 3.0250001e+00 1.1000000e+01 
7.5000000e-01 3.0250001e+00 1.1500000e+01 
7.5000000e-01 3.0250001e+00 1.2000000e+01 
7.5000000e-01 3.0250001e+00 1.2500000e+01 
7.5000000e-01 3.0250001e+00 1.3000000e+01 
7.5000000e-01 3.0250001e+00 1.3500000e+01 
7.5000000e-01 3.0250001e+00 1.4000000e+01 
7.5000000e-01 3.0250001e+00 1.4500000e+01 
7.5000000e-01 3.0250001e+00 1.5000000e+01 
7.5000000e-01 3.0250001e+00 1.5500000e+01 
7.5000000e-01 3.0250001e+00 1.6000000e+01 
7.5000000e-01 3.0250001e+00 1.6500000e+01 
7.5000000e-01 3.0250001e+00 1.7000000e+01 
7.5000000e-01 3.0250001e+00 1.7500000e+01 
7.5000000e-01 3.0250001e+00 1.8000000e+01 
7.5000000e-01 3.0250001e+00 1.8500000e+01 
7.5000000e-01 3.0250001e+00 1.9000000e+01 
7.5000000e-01 3.0250001e+00 1.9500000e+01 
7.5000000e-01 3.0250001e+00 2.0000000e+01 
7.5000000e-01 3.0250001e+00 2.0500000e+01 
7.5000000e-01 3.0250001e+00 2.1000000e+01 
7.5000000e-01 3.0250001e+00 2.1500000e+01 
7.5000000e-01 3.0250001e+00 2.2000000e+01 
7.5000000e-01 3.0250001e+00 2.2500000e+01 
7.5000000e-01 3.0250001e+00 2.3000000e+01 
7.5000000e-01 3.0250001e+00 2.3500000e+01 
7.5000000e-01 3.0250001e+00 2.4000000e+01 
7.5000000e-01 3.0250001e+00 2.4500000e+01 
7.5000000e-01 3.0250001e+00 2.5000000e+01 
7.5000000e-01 3.0250001e+00 2.5500000e+01 
7.5000000e-01 3.0250001e+00 2.6000000e+01 
7.5000000e-01 3.0250001e+00 2.6500000e+01 
7.5000000e-01 3.0250001e+00 2.7000000e+01 
7.5000000e-01 3.0250001e+00 2.7500000e+01 
7.5000000e-01 3.0250001e+00 2.8000000e+01 
7.5000000e-01 3.0250001e+00 2.8500000e+01 
7.5000000e-01 3.0250001e+00 2.9000000e+01 
7.5000000e-01 3.0250001e+00 2.9500000e+01 
7.5000000e-01 3.0250001e+00 3.0000000e+01 
7.5000000e-01 3.0250001e+00 3.0500000e+01 
7.5000000e-01 3.0250001e+00 3.1000000e+01 
7.5000000e-01 3.0250001e+00 3.1500000e+01 
7.5000000e-01 3.0250001e+00 3.2000000e+01 
7.5000000e-01 3.0250001e+00 3.2500000e+01 
7.5000000e-01 3.0250001e+00 3.3000000e+01 
7.5000000e-01 3.0250001e+00 3.3500000e+01 
7.5000000e-01 3.0250001e+00 3.4000000e+01 
7.5000000e-01 3.0250001e+00 3.4500000e+01 
7.5000000e-01 3.0250001e+00 3.5000000e+01 
7.5000000e-01 3.0250001e+00 3.5500000e+01 
7.5000000e-01 3.0250001e+00 3.6000000e+01 
7.5000000e-01 3.0250001e+00 3.6500000e+01 
7.5000000e-01 3.0250001e+00 3.7000000e+01 
7.5000000e-01 3.0250001e+00 3.7500000e+01 
7.5000000e-01 3.0250001e+00 3.8000000e+01 
7.5000000e-01 3.0250001e+00 3.8500000e+01 
7.5000000e-01 3.0250001e+00 3.9000000e+01 
7.5000000e-01 3.0250001e+00 3.9500000e+01 
7.5000000e-01 3.0250001e+00 4.0000000e+01 
7.5000000e-01 3.0250001e+00 4.0500000e+01 
7.5000000e-01 3.0250001e+00 4.1000000e+01 
7.5000000e-01 3.0250001e+00 4.1500000e+01 
7.5000000e-01 3.0250001e+00 4.2000000e+01 
7.5000000e-01 3.0250001e+00 4.2500000e+01 
7.5000000e-01 3.0250001e+00 4.3000000e+01 
7.5000000e-01 3.0250001e+00 4.3500000e+01 
7.5000000e-01 3.0250001e+00 4.4000000e+01 
7.5000000e-01 3.0250001e+00 4.4500000e+01 
7.5000000e-01 3.0250001e+00 4.5000000e+01 
7.5000000e-01 3.0250001e+00 4.5500000e+01 
7.5000000e-01 3.0250001e+00 4.6000000e+01 
7.5000000e-01 3.0250001e+00 4.6500000e+01 
7.5000000e-01 3.0250001e+00 4.7000000e+01 
7.5000000e-01 3.0250001e+00 4.7500000e+01 
7.5000000e-01 3.0250001e+00 4.8000000e+01 
7.5000000e-01 3.0250001e+00 4.8500000e+01 
7.5000000e-01 3.0250001e+00 4.9000000e+01 
7.5000000e-01 3.0250001e+00 4.9500000e+01 
7.5000000e-01 3.0250001e+00 5.0000000e+01 
1.5000000e+00 3.0000000e+00 2.5000000e+01 
3.0000000e+00 2.0000000e+00 2.5000000e+01 
4.0000000e+00 2.0000000e+00 2.5000000e+01 
5.0000000e+00 2.0000000e+00 2.5000000e+01 
0.0000000e+00 3.0000000e+00 2.5000000e+01 
0.0000000e+00 0.0000000e+00 1.0000000e+00 
0.0000000e+00 0.0000000e+00 2.0000000e+00 
0.0000000e+00 0.0000000e+00 3.0000000e+00 
0.0000000e+00 0.0000000e+00 4.0000000e+00 
0.0000000e+00 0.0000000e+00 5.0000000e+00 
[...]
POINT_DATA 1919
FIELD FieldData 3
DISPLACEMENT 3 1919  float
0.0000000e+00 0.0000000e+00 0.0000000e+00 
0.0000000e+00 0.0000000e+00 0.0000000e+00 
0.0000000e+00 0.0000000e+00 0.0000000e+00 
0.0000000e+00 0.0000000e+00 0.0000000e+00 
-1.8735126e-06 3.1484412e-06 3.0622409e-06 
-2.9027571e-08 -1.2710814e-07 -8.2652782e-08 
0.0000000e+00 -7.1801160e-06 0.0000000e+00 
0.0000000e+00 1.9995437e-06 0.0000000e+00 
-4.5875831e-06 5.9248796e-06 6.1625647e-06 
3.0522540e-07 -5.6868885e-08 -5.6000221e-07 
2.1596386e-06 -2.8244735e-06 -3.1509878e-06 
-8.1033630e-07 7.2639537e-08 -9.7546524e-07 
0.0000000e+00 -4.8139786e-06 0.0000000e+00 
0.0000000e+00 3.6808647e-06 0.0000000e+00 
7.3459878e-06 8.2334209e-06 6.8700331e-08 
1.2166353e-06 4.6267533e-06 -6.2351432e-06 
4.1119911e-06 5.2196242e-06 6.6777634e-06 
2.9763819e-06 8.7139802e-07 1.0164360e-06 
0.0000000e+00 6.3017355e-06 0.0000000e+00 
0.0000000e+00 1.0408278e-06 0.0000000e+00 
1.0386851e-05 4.6303257e-06 -2.9764913e-06 
1.6002779e-05 1.9923230e-06 -6.9363077e-06 
1.8968016e-05 -5.2434734e-06 -1.1299328e-05 
1.1218670e-05 -1.8395367e-05 -1.4817664e-05 
1.1420608e-05 -3.3194548e-05 -1.2216026e-05 
4.4394392e-06 -4.3695891e-05 -1.0257268e-05 
4.1204712e-06 -4.7073161e-05 -9.9425688e-06 
5.9310037e-06 -4.5067231e-05 -1.4012282e-05 
8.9530640e-06 -4.5055531e-05 -1.7605194e-05 
3.0424587e-06 -5.1893996e-05 -1.8123959e-05 
8.0220798e-06 -6.1650317e-05 -1.1301224e-05 
2.6420396e-06 -6.4202373e-05 -1.5306031e-07 
-1.8138802e-06 -5.6174889e-05 4.6740684e-06 
-4.3660643e-06 -4.2093630e-05 6.0553691e-07 
5.1565451e-07 -3.5134337e-05 -6.5393492e-06 
2.2480142e-06 -4.4892655e-05 -1.3404004e-05 
1.3910581e-05 -6.0079346e-05 -1.7640186e-05 
1.4096643e-05 -5.3693067e-05 -3.0293752e-06 
2.7034701e-05 -1.4186915e-05 8.1447351e-06 
2.2044500e-05 4.4252323e-05 5.5858430e-07 
3.8858350e-05 8.3036968e-05 8.0320897e-06 
3.3952922e-05 6.0719016e-05 3.8417227e-05 
2.9254548e-05 -2.1272423e-05 6.9982634e-05 
1.1392302e-05 -1.4234628e-04 1.1469387e-04 
-8.3744480e-06 -3.3775312e-04 1.8519943e-04 
-3.9109040e-05 -7.2180742e-04 1.6905657e-04 
-8.4296677e-05 -1.4561912e-03 2.8513288e-04 
-1.3296794e-04 -2.6073137e-03 1.7470733e-04 
-2.0687316e-04 -3.9785355e-03 2.5232296e-04 
-2.6654245e-04 -4.9229017e-03 6.4609267e-05 
-3.0581970e-04 -4.8604608e-03 2.6933601e-05 
-2.8097452e-04 -4.3866509e-03 -3.4867884e-05 
-3.2070736e-04 -4.3003326e-03 -7.9023353e-05 
-5.9841882e-04 -4.6565388e-03 -9.3585841e-05 
-2.7823445e-04 -4.7908262e-03 -2.0289634e-04 
-1.9265442e-04 -3.9772349e-03 -1.8157539e-04 
-9.7348347e-05 -2.6420718e-03 -3.5316055e-04 
-5.5168817e-05 -1.3855929e-03 -1.8754367e-04 
1.0008710e-05 -4.9260986e-04 -1.9699891e-04 
2.4473331e-05 8.0605369e-06 -8.7478686e-05 
4.4612447e-05 1.9247663e-04 -4.7739504e-05 
3.9470582e-05 1.9044497e-04 -1.6134052e-05 
4.1551346e-05 1.2485833e-04 1.7006427e-05 
2.9033943e-05 6.0713646e-05 2.9096920e-05 
1.5215116e-05 1.2428967e-05 3.4037243e-05 
1.0759358e-06 -2.7950675e-05 3.1880041e-05 
1.3847049e-05 -5.7445981e-05 2.8983704e-05 
1.2016737e-05 -6.1266008e-05 1.7043734e-05 
-5.8621176e-06 -4.1102274e-05 8.6748514e-06 
-6.3163725e-06 -2.1161846e-05 1.7803038e-06 
3.7475372e-06 -2.2872231e-05 -1.1348968e-05 
9.5596724e-06 -3.7965012e-05 -1.3739649e-05 
4.3355667e-06 -4.5645000e-05 -8.6140271e-06 
4.1160906e-06 -3.5373654e-05 8.3010508e-07 
2.9253681e-06 -1.9611874e-05 1.3425559e-05 
2.6546479e-06 -1.6123198e-05 9.2066166e-06 
2.3232433e-05 -2.9797829e-05 3.6578917e-06 
1.1726976e-05 -4.7356200e-05 -4.5562592e-06 
1.4479796e-05 -4.0123385e-05 -1.6007339e-06 
1.4785814e-05 1.5720794e-05 1.8004728e-05 
3.4803579e-05 8.7714943e-05 4.1425792e-05 
2.6067217e-05 1.0459678e-04 5.3925611e-05 
2.4262365e-05 2.1936821e-05 7.7373836e-05 
9.7771144e-06 -1.6976208e-04 1.0772653e-04 
-1.8634171e-05 -4.7699554e-04 1.6353352e-04 
-6.1959858e-05 -9.4136788e-04 1.3731496e-04 
-1.2185665e-04 -1.6834434e-03 2.7073847e-04 
-1.9052545e-04 -2.7988323e-03 1.3056380e-04 
-2.4981145e-04 -4.1664797e-03 1.9736000e-04 
-2.8232011e-04 -5.1072687e-03 4.3565349e-05 
-3.0420959e-04 -4.9334317e-03 -1.9440356e-05 
-2.8423552e-04 -4.3838783e-03 -5.9178634e-05 
-2.8138151e-04 -4.2482340e-03 -7.3794603e-05 
-3.4646597e-04 -4.6177041e-03 -2.0458776e-04 
-3.8836227e-04 -4.8792982e-03 -2.6063612e-04 
-5.0223473e-04 -4.0210448e-03 -4.7053758e-04 
-1.4458528e-04 -2.5699944e-03 -3.1233844e-04 
-3.6431797e-05 -1.2562564e-03 -1.7795655e-04 
1.6280335e-05 -3.7389930e-04 -1.7331998e-04 
2.5096742e-05 7.1702067e-05 -6.2326137e-05 
3.4124649e-05 2.1125245e-04 -2.0452964e-05 
3.0185800e-05 2.0054261e-04 1.2393131e-05 
2.1791617e-05 1.4888478e-04 3.7097274e-05 
1.8106011e-05 9.3301154e-05 3.5934576e-05 
6.1436526e-06 4.0576331e-05 4.1455929e-05 
-9.9555450e-07 5.9882103e-07 3.7049049e-05 
-3.8207004e-06 -1.4285869e-05 3.3686032e-05 
-7.3016467e-06 -8.9014666e-06 2.5169702e-05 
-1.4722546e-05 4.9747916e-07 1.6726295e-05 
-9.2110440e-06 3.5167602e-06 5.5273454e-06 
-6.2744516e-06 1.6461705e-06 -1.0517308e-05 
-5.1908719e-06 7.6654368e-07 -1.5260559e-05 
5.5193377e-06 2.6245386e-06 -9.8658202e-06 
4.2504084e-06 4.0365680e-06 -2.2069748e-06 
-4.0872401e-06 2.5005920e-06 2.6684047e-06 
-2.9041694e-06 -2.5780091e-07 2.2271087e-07 
-3.1728712e-06 -1.7226170e-06 -6.6704738e-06 
-2.2553625e-06 -1.2233104e-06 -8.2881888e-06 
2.7245349e-06 1.7826751e-07 -6.4508740e-06 
0.0000000e+00 5.2351647e-06 0.0000000e+00 
0.0000000e+00 4.6897762e-06 0.0000000e+00 
0.0000000e+00 1.9774004e-06 0.0000000e+00 
0.0000000e+00 -5.4185020e-06 0.0000000e+00 
0.0000000e+00 -1.8453356e-05 0.0000000e+00 
0.0000000e+00 -3.3176344e-05 0.0000000e+00 
0.0000000e+00 -4.3631426e-05 0.0000000e+00 
0.0000000e+00 -4.6840749e-05 0.0000000e+00 
0.0000000e+00 -4.5091529e-05 0.0000000e+00 
0.0000000e+00 -4.5396144e-05 0.0000000e+00 
0.0000000e+00 -5.2237308e-05 0.0000000e+00 
0.0000000e+00 -6.1581799e-05 0.0000000e+00 
0.0000000e+00 -6.4065782e-05 0.0000000e+00 
0.0000000e+00 -5.5799621e-05 0.0000000e+00 
0.0000000e+00 -4.2021558e-05 0.0000000e+00 
0.0000000e+00 -3.5814432e-05 0.0000000e+00 
0.0000000e+00 -4.5665172e-05 0.0000000e+00 
0.0000000e+00 -5.9975813e-05 0.0000000e+00 
0.0000000e+00 -5.3023778e-05 0.0000000e+00 
0.0000000e+00 -1.2945825e-05 0.0000000e+00 
0.0000000e+00 4.4916174e-05 0.0000000e+00 
0.0000000e+00 8.1562386e-05 0.0000000e+00 
0.0000000e+00 5.9640162e-05 0.0000000e+00 
0.0000000e+00 -1.9922501e-05 0.0000000e+00 
0.0000000e+00 -1.3987838e-04 0.0000000e+00 
0.0000000e+00 -3.3511603e-04 0.0000000e+00 
0.0000000e+00 -7.2344195e-04 0.0000000e+00 
0.0000000e+00 -1.4650689e-03 0.0000000e+00 
0.0000000e+00 -2.6252919e-03 0.0000000e+00 
0.0000000e+00 -3.9937319e-03 0.0000000e+00 
0.0000000e+00 -4.9493415e-03 0.0000000e+00 
0.0000000e+00 -4.8850356e-03 0.0000000e+00 
0.0000000e+00 -4.4166711e-03 0.0000000e+00 
0.0000000e+00 -4.3271529e-03 0.0000000e+00 
0.0000000e+00 -4.6755043e-03 0.0000000e+00 
0.0000000e+00 -4.8196316e-03 0.0000000e+00 
0.0000000e+00 -4.0053809e-03 0.0000000e+00 
0.0000000e+00 -2.6566023e-03 0.0000000e+00 
0.0000000e+00 -1.3944093e-03 0.0000000e+00 
0.0000000e+00 -4.9628416e-04 0.0000000e+00 
0.0000000e+00 6.6158332e-06 0.0000000e+00 
0.0000000e+00 1.9336164e-04 0.0000000e+00 
0.0000000e+00 1.9291889e-04 0.0000000e+00 
0.0000000e+00 1.2653158e-04 0.0000000e+00 
0.0000000e+00 6.1203522e-05 0.0000000e+00 
0.0000000e+00 1.1937268e-05 0.0000000e+00 
0.0000000e+00 -2.8258648e-05 0.0000000e+00 
0.0000000e+00 -5.6837496e-05 0.0000000e+00 
0.0000000e+00 -6.0608076e-05 0.0000000e+00 
0.0000000e+00 -4.1282248e-05 0.0000000e+00 
0.0000000e+00 -2.2141090e-05 0.0000000e+00 
0.0000000e+00 -2.3319137e-05 0.0000000e+00 
0.0000000e+00 -3.7793478e-05 0.0000000e+00 
0.0000000e+00 -4.4961907e-05 0.0000000e+00 
0.0000000e+00 -3.5195375e-05 0.0000000e+00 
0.0000000e+00 -1.9864852e-05 0.0000000e+00 
0.0000000e+00 -1.6485226e-05 0.0000000e+00 
0.0000000e+00 -3.0591229e-05 0.0000000e+00 
0.0000000e+00 -4.7873415e-05 0.0000000e+00 
0.0000000e+00 -3.8368500e-05 0.0000000e+00 
0.0000000e+00 1.7518892e-05 0.0000000e+00 
0.0000000e+00 8.7507113e-05 0.0000000e+00 
0.0000000e+00 1.0368637e-04 0.0000000e+00 
0.0000000e+00 2.1082789e-05 0.0000000e+00 
0.0000000e+00 -1.6940862e-04 0.0000000e+00 
0.0000000e+00 -4.7406906e-04 0.0000000e+00 
0.0000000e+00 -9.4128936e-04 0.0000000e+00 
0.0000000e+00 -1.6896428e-03 0.0000000e+00 
0.0000000e+00 -2.8184108e-03 0.0000000e+00 
0.0000000e+00 -4.1875560e-03 0.0000000e+00 
0.0000000e+00 -5.1373905e-03 0.0000000e+00 
0.0000000e+00 -4.9537225e-03 0.0000000e+00 
0.0000000e+00 -4.4088047e-03 0.0000000e+00 
0.0000000e+00 -4.2722882e-03 0.0000000e+00 
0.0000000e+00 -4.6530562e-03 0.0000000e+00 
0.0000000e+00 -4.9050059e-03 0.0000000e+00 
0.0000000e+00 -4.0358645e-03 0.0000000e+00 
0.0000000e+00 -2.5874176e-03 0.0000000e+00 
0.0000000e+00 -1.2670866e-03 0.0000000e+00 
0.0000000e+00 -3.7785832e-04 0.0000000e+00 
0.0000000e+00 7.1972107e-05 0.0000000e+00 
0.0000000e+00 2.1340117e-04 0.0000000e+00 
0.0000000e+00 2.0292240e-04 0.0000000e+00 
0.0000000e+00 1.4960460e-04 0.0000000e+00 
0.0000000e+00 9.3194300e-05 0.0000000e+00 
0.0000000e+00 4.0739938e-05 0.0000000e+00 
0.0000000e+00 1.3279348e-06 0.0000000e+00 
0.0000000e+00 -1.4054661e-05 0.0000000e+00 
0.0000000e+00 -9.3207891e-06 0.0000000e+00 
0.0000000e+00 1.0334399e-07 0.0000000e+00 
0.0000000e+00 3.5352293e-06 0.0000000e+00 
0.0000000e+00 1.8488232e-06 0.0000000e+00 
0.0000000e+00 8.4052721e-07 0.0000000e+00 
0.0000000e+00 2.5131756e-06 0.0000000e+00 
0.0000000e+00 3.9119950e-06 0.0000000e+00 
0.0000000e+00 2.5588254e-06 0.0000000e+00 
0.0000000e+00 -1.6192611e-07 0.0000000e+00 
0.0000000e+00 -1.7189640e-06 0.0000000e+00 
0.0000000e+00 -1.2720757e-06 0.0000000e+00 
0.0000000e+00 1.5578101e-07 0.0000000e+00 
0.0000000e+00 9.0041408e-07 0.0000000e+00 
1.4800175e-05 -2.6823995e-05 1.9797952e-05 
9.2171967e-06 4.4682888e-06 1.0793631e-05 
9.8003529e-06 1.4519132e-05 2.1565579e-06 
6.8079207e-06 -2.1587684e-06 2.2716320e-06 
0.0000000e+00 2.3251354e-05 0.0000000e+00 
0.0000000e+00 0.0000000e+00 0.0000000e+00 
0.0000000e+00 0.0000000e+00 0.0000000e+00 
0.0000000e+00 0.0000000e+00 0.0000000e+00 
0.0000000e+00 0.0000000e+00 0.0000000e+00 
0.0000000e+00 0.0000000e+00 0.0000000e+00 
0.0000000e+00 0.0000000e+00 0.0000000e+00 
0.0000000e+00 0.0000000e+00 0.0000000e+00 
0.0000000e+00 0.0000000e+00 0.0000000e+00 
0.0000000e+00 0.0000000e+00 0.0000000e+00 
0.0000000e+00 0.0000000e+00 0.0000000e+00 
0.0000000e+00 0.0000000e+00 0.0000000e+00 
0.0000000e+00 0.0000000e+00 0.0000000e+00 
0.0000000e+00 0.0000000e+00 0.0000000e+00 
0.0000000e+00 0.0000000e+00 0.0000000e+00 
0.0000000e+00 0.0000000e+00 0.0000000e+00 
0.0000000e+00 0.0000000e+00 0.0000000e+00 
0.0000000e+00 0.0000000e+00 0.0000000e+00 
0.0000000e+00 0.0000000e+00 0.0000000e+00 
0.0000000e+00 0.0000000e+00 0.0000000e+00 
0.0000000e+00 0.0000000e+00 0.0000000e+00 
0.0000000e+00 0.0000000e+00 0.0000000e+00 
0.0000000e+00 0.0000000e+00 0.0000000e+00 
0.0000000e+00 0.0000000e+00 0.0000000e+00 
0.0000000e+00 0.0000000e+00 0.0000000e+00 
0.0000000e+00 0.0000000e+00 0.0000000e+00 
0.0000000e+00 0.0000000e+00 0.0000000e+00 
0.0000000e+00 0.0000000e+00 0.0000000e+00 
0.0000000e+00 0.0000000e+00 0.0000000e+00 
0.0000000e+00 0.0000000e+00 0.0000000e+00 
0.0000000e+00 0.0000000e+00 0.0000000e+00 
0.0000000e+00 0.0000000e+00 0.0000000e+00 
0.0000000e+00 0.0000000e+00 0.0000000e+00 
0.0000000e+00 0.0000000e+00 0.0000000e+00 
0.0000000e+00 0.0000000e+00 0.0000000e+00 
0.0000000e+00 0.0000000e+00 0.0000000e+00 
0.0000000e+00 0.0000000e+00 0.0000000e+00 
0.0000000e+00 0.0000000e+00 0.0000000e+00 
0.0000000e+00 0.0000000e+00 0.0000000e+00 
0.0000000e+00 0.0000000e+00 0.0000000e+00 
0.0000000e+00 0.0000000e+00 0.0000000e+00 
0.0000000e+00 0.0000000e+00 0.0000000e+00 
0.0000000e+00 0.0000000e+00 0.0000000e+00 
0.0000000e+00 0.0000000e+00 0.0000000e+00 
0.0000000e+00 0.0000000e+00 0.0000000e+00 
0.0000000e+00 0.0000000e+00 0.0000000e+00 
0.0000000e+00 0.0000000e+00 0.0000000e+00 
0.0000000e+00 0.0000000e+00 0.0000000e+00 
0.0000000e+00 0.0000000e+00 0.0000000e+00 
0.0000000e+00 0.0000000e+00 0.0000000e+00 
0.0000000e+00 0.0000000e+00 0.0000000e+00 
0.0000000e+00 0.0000000e+00 0.0000000e+00 
0.0000000e+00 0.0000000e+00 0.0000000e+00 
0.0000000e+00 0.0000000e+00 0.0000000e+00 
0.0000000e+00 0.0000000e+00 0.0000000e+00 
0.0000000e+00 0.0000000e+00 0.0000000e+00 
0.0000000e+00 0.0000000e+00 0.0000000e+00 
0.0000000e+00 0.0000000e+00 0.0000000e+00 
0.0000000e+00 0.0000000e+00 0.0000000e+00 
0.0000000e+00 0.0000000e+00 0.0000000e+00 
0.0000000e+00 0.0000000e+00 0.0000000e+00 
0.0000000e+00 0.0000000e+00 0.0000000e+00 
0.0000000e+00 0.0000000e+00 0.0000000e+00 
0.0000000e+00 0.0000000e+00 0.0000000e+00 
0.0000000e+00 0.0000000e+00 0.0000000e+00 
0.0000000e+00 0.0000000e+00 0.0000000e+00 
0.0000000e+00 0.0000000e+00 0.0000000e+00 
0.0000000e+00 0.0000000e+00 0.0000000e+00 
0.0000000e+00 0.0000000e+00 0.0000000e+00 
0.0000000e+00 0.0000000e+00 0.0000000e+00 
0.0000000e+00 0.0000000e+00 0.0000000e+00 
0.0000000e+00 0.0000000e+00 0.0000000e+00 
0.0000000e+00 0.0000000e+00 0.0000000e+00 
0.0000000e+00 0.0000000e+00 0.0000000e+00 
0.0000000e+00 0.0000000e+00 0.0000000e+00 
0.0000000e+00 0.0000000e+00 0.0000000e+00 
0.0000000e+00 0.0000000e+00 0.0000000e+00 
0.0000000e+00 0.0000000e+00 0.0000000e+00 
0.0000000e+00 0.0000000e+00 0.0000000e+00 
0.0000000e+00 0.0000000e+00 0.0000000e+00 
0.0000000e+00 0.0000000e+00 0.0000000e+00 
0.0000000e+00 0.0000000e+00 0.0000000e+00 
0.0000000e+00 0.0000000e+00 0.0000000e+00 
0.0000000e+00 0.0000000e+00 0.0000000e+00 
0.0000000e+00 0.0000000e+00 0.0000000e+00 
0.0000000e+00 0.0000000e+00 0.0000000e+00 
0.0000000e+00 0.0000000e+00 0.0000000e+00 
0.0000000e+00 0.0000000e+00 0.0000000e+00 
0.0000000e+00 0.0000000e+00 0.0000000e+00 
0.0000000e+00 0.0000000e+00 0.0000000e+00 
0.0000000e+00 0.0000000e+00 0.0000000e+00 
0.0000000e+00 0.0000000e+00 0.0000000e+00 
0.0000000e+00 0.0000000e+00 0.0000000e+00 
0.0000000e+00 0.0000000e+00 0.0000000e+00 
0.0000000e+00 0.0000000e+00 0.0000000e+00 
0.0000000e+00 0.0000000e+00 0.0000000e+00 
0.0000000e+00 0.0000000e+00 0.0000000e+00 
0.0000000e+00 0.0000000e+00 0.0000000e+00 
0.0000000e+00 0.0000000e+00 0.0000000e+00 
0.0000000e+00 0.0000000e+00 0.0000000e+00 
0.0000000e+00 0.0000000e+00 0.0000000e+00 
0.0000000e+00 0.0000000e+00 0.0000000e+00 
0.0000000e+00 0.0000000e+00 0.0000000e+00 
0.0000000e+00 0.0000000e+00 0.0000000e+00 
0.0000000e+00 0.0000000e+00 0.0000000e+00 
0.0000000e+00 0.0000000e+00 0.0000000e+00 
0.0000000e+00 0.0000000e+00 0.0000000e+00 
-1.1027416e-06 -9.1472322e-07 -3.1021162e-07 
-1.6233333e-06 -3.2697105e-06 1.8036233e-06 
-1.2927475e-06 -4.0292653e-06 7.2596913e-07 
-2.9044525e-06 -2.1028789e-06 -2.7930096e-06 
-5.5336777e-06 -6.1512983e-06 4.7336147e-07 
-2.9915379e-06 2.6808666e-06 -1.3309901e-06 
-6.5164289e-07 -4.7180833e-06 -2.9926975e-06 
-1.4365710e-06 -6.4066262e-06 1.6258574e-07 
-1.3305508e-06 2.7003655e-06 -5.8816681e-06 
2.8581285e-06 -9.4611141e-06 -7.7021796e-06 
4.8949437e-06 -9.9972749e-06 -1.1134729e-05 
1.7057928e-05 -5.6329018e-06 -1.3821500e-05 
2.6761438e-05 -1.1100788e-05 -1.2541011e-05 
3.5536283e-05 -1.0453182e-05 -1.5876274e-05 
4.6934387e-05 -1.1680651e-05 -7.4969730e-06 
4.5664725e-05 -1.5018700e-05 -2.3727828e-06 
4.4739420e-05 -8.2324887e-06 8.1256740e-06 
2.9570308e-05 -3.1390730e-06 1.4358768e-05 
1.5965021e-05 -5.3865851e-06 1.7505001e-05 
3.8141557e-06 -6.3565312e-06 1.4994746e-05 
1.7065707e-06 -6.3280245e-06 9.1032271e-06 
1.5417920e-06 -5.1867305e-06 6.8243430e-06 
1.0457848e-06 -3.0906820e-06 4.3500836e-06 
3.0917349e-06 -2.5344295e-06 1.2910449e-06 
4.4260996e-06 -1.6079659e-06 2.6524858e-06 
2.9268582e-08 3.1495604e-06 4.5944043e-06 
-1.9695506e-06 -1.2484741e-06 1.2256751e-07 
-2.6660368e-07 -7.2673301e-06 -2.2944103e-06 
6.2435089e-07 -1.5459075e-06 -4.8996985e-06 
9.4333454e-06 -6.4166029e-06 -9.4567849e-06 
6.9818175e-06 -1.3351922e-05 -1.1726285e-05 
1.6675582e-05 -5.7998377e-06 -1.3985354e-05 
2.4942428e-05 -1.4588046e-05 -1.9007481e-05 
3.5980633e-05 -1.2883349e-05 -2.0145846e-05 
4.6649249e-05 -1.2072728e-05 -1.3973431e-05 
4.6104444e-05 -1.1613553e-05 -5.2917967e-06 
3.8087077e-05 -6.2779941e-06 2.9950440e-06 
2.6282312e-05 -4.2925590e-06 1.0518472e-05 
1.5905260e-05 -5.2122150e-06 1.2214154e-05 
7.6501019e-06 -3.5583946e-06 1.1984046e-05 
3.8920434e-06 -2.6653472e-06 1.0471153e-05 
2.8642428e-06 -2.4720089e-06 8.8484985e-06 
2.9739576e-06 -1.8405200e-06 6.1333662e-06 
2.3315445e-06 -7.3848565e-07 3.7685170e-06 
6.3198121e-07 2.5830644e-07 2.4546205e-06 
-3.2416128e-07 2.6402461e-07 1.3179206e-06 
-7.2090756e-07 -9.4228305e-08 3.5173323e-07 
-2.0949929e-07 -2.1149826e-07 -3.1167616e-07 
3.4162127e-07 -8.1722192e-08 -4.7653035e-08 
0.0000000e+00 1.3369056e-05 0.0000000e+00 
0.0000000e+00 1.9739298e-05 0.0000000e+00 
0.0000000e+00 3.3353346e-05 0.0000000e+00 
0.0000000e+00 4.1236261e-05 0.0000000e+00 
0.0000000e+00 3.6269055e-05 0.0000000e+00 
0.0000000e+00 5.3756987e-05 0.0000000e+00 
0.0000000e+00 5.0034509e-05 0.0000000e+00 
0.0000000e+00 2.7105101e-05 0.0000000e+00 
0.0000000e+00 3.7235019e-05 0.0000000e+00 
0.0000000e+00 3.1802498e-05 0.0000000e+00 
0.0000000e+00 6.5004892e-06 0.0000000e+00 
0.0000000e+00 -3.8128160e-06 0.0000000e+00 
0.0000000e+00 -1.5862315e-04 0.0000000e+00 
0.0000000e+00 -3.7457093e-04 0.0000000e+00 
0.0000000e+00 -5.0352048e-04 0.0000000e+00 
0.0000000e+00 -5.4119295e-04 0.0000000e+00 
0.0000000e+00 -5.0804892e-04 0.0000000e+00 
0.0000000e+00 -3.5756669e-04 0.0000000e+00 
0.0000000e+00 -1.5565539e-04 0.0000000e+00 
0.0000000e+00 -1.3943896e-05 0.0000000e+00 
0.0000000e+00 4.1528976e-05 0.0000000e+00 
0.0000000e+00 2.7531380e-05 0.0000000e+00 
0.0000000e+00 1.9715162e-05 0.0000000e+00 
0.0000000e+00 4.3044809e-05 0.0000000e+00 
0.0000000e+00 2.3364228e-05 0.0000000e+00 
0.0000000e+00 2.6640786e-05 0.0000000e+00 
0.0000000e+00 5.5522014e-05 0.0000000e+00 
0.0000000e+00 2.4267083e-05 0.0000000e+00 
0.0000000e+00 2.5032556e-05 0.0000000e+00 
0.0000000e+00 7.3985095e-05 0.0000000e+00 
0.0000000e+00 2.3894377e-06 0.0000000e+00 
0.0000000e+00 -4.5772369e-05 0.0000000e+00 
0.0000000e+00 -1.3786388e-04 0.0000000e+00 
0.0000000e+00 -4.4553194e-04 0.0000000e+00 
0.0000000e+00 -5.1872525e-04 0.0000000e+00 
0.0000000e+00 -5.4847723e-04 0.0000000e+00 
0.0000000e+00 -5.2060856e-04 0.0000000e+00 
0.0000000e+00 -3.5765072e-04 0.0000000e+00 
0.0000000e+00 -1.3761861e-04 0.0000000e+00 
0.0000000e+00 -2.1502075e-05 0.0000000e+00 
0.0000000e+00 1.2245690e-05 0.0000000e+00 
0.0000000e+00 1.8075809e-06 0.0000000e+00 
0.0000000e+00 -5.6019203e-06 0.0000000e+00 
0.0000000e+00 -2.6523148e-06 0.0000000e+00 
0.0000000e+00 2.0446932e-06 0.0000000e+00 
0.0000000e+00 1.7578707e-06 0.0000000e+00 
0.0000000e+00 2.0568866e-06 0.0000000e+00 
0.0000000e+00 -1.3752938e-06 0.0000000e+00 
0.0000000e+00 -1.9041543e-06 0.0000000e+00 
7.1660872e-07 -2.0540456e-06 -2.2948882e-06 
1.4175168e-06 -2.0428233e-06 -2.5579654e-06 
-2.3208354e-08 -3.6273912e-06 -4.8845877e-06 
-1.7543498e-06 -3.4154600e-06 -3.1390800e-06 
1.8091565e-07 8.2863636e-08 1.0839233e-07 
-1.9542605e-07 -1.2618922e-07 2.8565142e-07 
-7.4245906e-07 -2.3111467e-07 -5.6601755e-07 
-5.2514883e-07 7.6124667e-07 -7.0671723e-07 
-1.3090330e-06 -1.9116082e-07 -4.0357210e-07 
-3.9380119e-08 -1.5140996e-08 -1.2091982e-07 
1.7681715e-06 -5.1986312e-06 -6.2559511e-06 
2.6528473e-06 -3.4682389e-06 -6.0349239e-06 
0.0000000e+00 1.0351067e-05 0.0000000e+00 
0.0000000e+00 3.4512665e-05 0.0000000e+00 
0.0000000e+00 5.3568230e-05 0.0000000e+00 
0.0000000e+00 5.3443506e-05 0.0000000e+00 
0.0000000e+00 6.1700222e-05 0.0000000e+00 
0.0000000e+00 8.1970029e-05 0.0000000e+00 
0.0000000e+00 6.5929496e-05 0.0000000e+00 
0.0000000e+00 5.1508759e-05 0.0000000e+00 
0.0000000e+00 6.7500914e-05 0.0000000e+00 
0.0000000e+00 4.0238570e-05 0.0000000e+00 
0.0000000e+00 2.9373662e-06 0.0000000e+00 
0.0000000e+00 -1.6242535e-06 0.0000000e+00 
0.0000000e+00 -3.6431657e-04 0.0000000e+00 