# vtk DataFile Version 4.0
vtk output
ASCII
DATASET UNSTRUCTURED_GRID
POINTS 1919 float
0.0000000e+00 0.0000000e+00 0.0000000e+00 
0.0000000e+00 0.0000000e+00 5.0000000e+01 
5.0000000e+00 0.0000000e+00 0.0000000e+00 
5.0000000e+00 0.0000000e+00 5.0000000e+01 
5.0000000e+00 1.0000000e+00 0.0000000e+00 
5.0000000e+00 1.0000000e+00 5.0000000e+01 
0.0000000e+00 1.0000000e+00 0.0000000e+00 
0.0000000e+00 1.0000000e+00 5.0000000e+01 
5.0000000e+00 2.0000000e+00 0.0000000e+00 
5.0000000e+00 2.0000000e+00 5.0000000e+01 
3.0000000e+00 2.0000000e+00 0.0000000e+00 
3.0000000e+00 2.0000000e+00 5.0000000e+01 
0.0000000e+00 2.0000000e+00 0.0000000e+00 
0.0000000e+00 2.0000000e+00 5.0000000e+01 
1.5000000e+00 3.0000000e+00 0.0000000e+00 
1.5000000e+00 3.0000000e+00 5.0000000e+01 
7.5000000e-01 3.0000000e+00 0.0000000e+00 
7.5000000e-01 3.0000000e+00 5.0000000e+01 
0.0000000e+00 3.0000000e+00 0.0000000e+00 
0.0000000e+00 3.0000000e+00 5.0000000e+01 
7.5000000e-01 3.0000000e+00 5.0000000e-01 
7.5000000e-01 3.0000000e+00 1.0000000e+00 
7.5000000e-01 3.0000000e+00 1.5000000e+00 
7.5000000e-01 3.0000000e+00 2.0000000e+00 
7.5000000e-01 3.0000000e+00 2.5000000e+00 
7.5000000e-01 3.0000000e+00 3.0000000e+00 
7.5000000e-01 3.0000000e+00 3.5000000e+00 
7.5000000e-01 3.0000000e+00 4.0000000e+00 
7.5000000e-01 3.0000000e+00 4.5000000e+00 
7.5000000e-01 3.0000000e+00 5.0000000e+00 
7.5000000e-01 3.0000000e+00 5.5000000e+00 
7.5000000e-01 3.0000000e+00 6.0000000e+00 
7.5000000e-01 3.0000000e+00 6.5000000e+00 
7.5000000e-01 3.0000000e+00 7.0000000e+00 
7.5000000e-01 3.0000000e+00 7.5000000e+00 
7.5000000e-01 3.0000000e+00 8.0000000e+00 
7.5000000e-01 3.0000000e+00 8.5000000e+00 
7.5000000e-01 3.0000000e+00 9.0000000e+00 
7.5000000e-01 3.0000000e+00 9.5000000e+00 
7.5000000e-01 3.0000000e+00 1.0000000e+01 
7.5000000e-01 3.0000000e+00 1.0500000e+01 
7.5000000e-01 3.0000000e+00 1.1000000e+01 
7.5000000e-01 3.0000000e+00 1.1500000e+01 
7.5000000e-01 3.0000000e+00 1.2000000e+01 
7.5000000e-01 3.0000000e+00 1.2500000e+01 
7.5000000e-01 3.0000000e+00 1.3000000e+01 
7.5000000e-01 3.0000000e+00 1.3500000e+01 
7.5000000e-01 3.0000000e+00 1.4000000e+01 
7.5000000e-01 3.0000000e+00 1.4500000e+01 
7.5000000e-01 3.0000000e+00 1.5000000e+01 
7.5000000e-01 3.0000000e+00 1.5500000e+01 
7.5000000e-01 3.0000000e+00 1.6000000e+01 
7.5000000e-01 3.0000000e+00 1.6500000e+01 
7.5000000e-01 3.0000000e+00 1.7000000e+01 
7.5000000e-01 3.0000000e+00 1.7500000e+01 
7.5000000e-01 3.0000000e+00 1.8000000e+01 
7.5000000e-01 3.0000000e+00 1.8500000e+01 
7.5000000e-01 3.0000000e+00 1.9000000e+01 
7.5000000e-01 3.0000000e+00 1.9500000e+01 
7.5000000e-01 3.0000000e+00 2.0000000e+01 
7.5000000e-01 3.0000000e+00 2.0500000e+01 
7.5000000e-01 3.0000000e+00 2.1000000e+01 
7.5000000e-01 3.0000000e+00 2.1500000e+01 
7.5000000e-01 3.0000000e+00 2.2000000e+01 
7.5000000e-01 3.0000000e+00 2.2500000e+01 
7.5000000e-01 3.0000000e+00 2.3000000e+01 
7.5000000e-01 3.0000000e+00 2.3500000e+01 
7.5000000e-01 3.0000000e+00 2.4000000e+01 
7.5000000e-01 3.0000000e+00 2.4500000e+01 
7.5000000e-01 3.0000000e+00 2.5000000e+01 
7.5000000e-01 3.0000000e+00 2.5500000e+01 
7.5000000e-01 3.0000000e+00 2.6000000e+01 
7.5000000e-01 3.0000000e+00 2.6500000e+01 
7.5000000e-01 3.0000000e+00 2.7000000e+01 
7.5000000e-01 3.0000000e+00 2.7500000e+01 
7.5000000e-01 3.0000000e+00 2.8000000e+01 
7.5000000e-01 3.0000000e+00 2.8500000e+01 
7.5000000e-01 3.0000000e+00 2.9000000e+01 
7.5000000e-01 3.0000000e+00 2.9500000e+01 
7.5000000e-01 3.0000000e+00 3.0000000e+01 
7.5000000e-01 3.0000000e+00 3.0500000e+01 
7.5000000e-01 3.0000000e+00 3.1000000e+01 
7.5000000e-01 3.0000000e+00 3.1500000e+01 
7.5000000e-01 3.0000000e+00 3.2000000e+01 
7.5000000e-01 3.0000000e+00 3.2500000e+01 
7.5000000e-01 3.0000000e+00 3.3000000e+01 
7.5000000e-01 3.0000000e+00 3.3500000e+01 
7.5000000e-01 3.0000000e+00 3.4000000e+01 
7.5000000e-01 3.0000000e+00 3.4500000e+01 
7.5000000e-01 3.0000000e+00 3.5000000e+01 
7.5000000e-01 3.0000000e+00 3.5500000e+01 
7.5000000e-01 3.0000000e+00 3.6000000e+01 
7.5000000e-01 3.0000000e+00 3.6500000e+01 
7.5000000e-01 3.0000000e+00 3.7000000e+01 
7.5000000e-01 3.0000000e+00 3.7500000e+01 
7.5000000e-01 3.0000000e+00 3.8000000e+01 
7.5000000e-01 3.0000000e+00 3.8500000e+01 
7.5000000e-01 3.0000000e+00 3.9000000e+01 
7.5000000e-01 3.0000000e+00 3.9500000e+01 
7.5000000e-01 3.0000000e+00 4.0000000e+01 
7.5000000e-01 3.0000000e+00 4.0500000e+01 
7.5000000e-01 3.0000000e+00 4.1000000e+01 
7.5000000e-01 3.0000000e+00 4.1500000e+01 
7.5000000e-01 3.0000000e+00 4.2000000e+01 
7.5000000e-01 3.0000000e+00 4.2500000e+01 
7.5000000e-01 3.0000000e+00 4.3000000e+01 
7.5000000e-01 3.0000000e+00 4.3500000e+01 
7.5000000e-01 3.0000000e+00 4.4000000e+01 
7.5000000e-01 3.0000000e+00 4.4500000e+01 
7.5000000e-01 3.0000000e+00 4.5000000e+01 
7.5000000e-01 3.0000000e+00 4.5500000e+01 
7.5000000e-01 3.0000000e+00 4.6000000e+01 
7.5000000e-01 3.0000000e+00 4.6500000e+01 
7.5000000e-01 3.0000000e+00 4.7000000e+01 
7.5000000e-01 3.0000000e+00 4.7500000e+01 
7.5000000e-01 3.0000000e+00 4.8000000e+01 
7.5000000e-01 3.0000000e+00 4.8500000e+01 
7.5000000e-01 3.0000000e+00 4.9000000e+01 
7.5000000e-01 3.0000000e+00 4.9500000e+01 
7.5000000e-01 3.0250001e+00 0.0000000e+00 
7.5000000e-01 3.0250001e+00 5.0000000e-01 
7.5000000e-01 3.0250001e+00 1.0000000e+00 
7.5000000e-01 3.0250001e+00 1.5000000e+00 
7.5000000e-01 3.0250001e+00 2.0000000e+00 
7.5000000e-01 3.0250001e+00 2.5000000e+00 
7.5000000e-01 3.0250001e+00 3.0000000e+00 
7.5000000e-01 3.0250001e+00 3.5000000e+00 
7.5000000e-01 3.0250001e+00 4.0000000e+00 
7.5000000e-01 3.0250001e+00 4.5000000e+00 
7.5000000e-01 3.0250001e+00 5.0000000e+00 
7.5000000e-01 3.0250001e+00 5.5000000e+00 
7.5000000e-01 3.0250001e+00 6.0000000e+00 
7.5000000e-01 3.0250001e+00 6.5000000e+00 
7.5000000e-01 3.0250001e+00 7.0000000e+00 
7.5000000e-01 3.0250001e+00 7.5000000e+00 
7.5000000e-01 3.0250001e+00 8.0000000e+00 
7.5000000e-01 3.0250001e+00 8.5000000e+00 
7.5000000e-01 3.0250001e+00 9.0000000e+00 
7.5000000e-01 3.0250001e+00 9.5000000e+00 
7.5000000e-01 3.0250001e+00 1.0000000e+01 
7.5000000e-01 3.0250001e+00 1.0500000e+01 
7.5000000e-01 3.0250001e+00 1.1000000e+01 
7.5000000e-01 3.0250001e+00 1.1500000e+01 
7.5000000e-01 3.0250001e+00 1.2000000e+01 
7.5000000e-01 3.0250001e+00 1.2500000e+01 
7.5000000e-01 3.0250001e+00 1.3000000e+01 
7.5000000e-01 3.0250001e+00 1.3500000e+01 
7.5000000e-01 3.0250001e+00 1.4000000e+01 
7.5000000e-01 3.0250001e+00 1.4500000e+01 
7.5000000e-01 3.0250001e+00 1.5000000e+01 
7.5000000e-01 3.0250001e+00 1.5500000e+01 
7.5000000e-01 3.0250001e+00 1.6000000e+01 
7.5000000e-01 3.0250001e+00 1.6500000e+01 
7.5000000e-01 3.0250001e+00 1.7000000e+01 
7.5000000e-01 3.0250001e+00 1.7500000e+01 
7.5000000e-01 3.0250001e+00 1.8000000e+01 
7.5000000e-01 3.0250001e+00 1.8500000e+01 
7.5000000e-01 3.0250001e+00 1.9000000e+01 
7.5000000e-01 3.0250001e+00 1.9500000e+01 
7.5000000e-01 3.0250001e+00 2.0000000e+01 
7.5000000e-01 3.0250001e+00 2.0500000e+01 
7.5000000e-01 3.0250001e+00 2.1000000e+01 
7.5000000e-01 3.0250001e+00 2.1500000e+01 
7.5000000e-01 3.0250001e+00 2.2000000e+01 
7.5000000e-01 3.0250001e+00 2.2500000e+01 
7.5000000e-01 3.0250001e+00 2.3000000e+01 
7.5000000e-01 3.0250001e+00 2.3500000e+01 
7.5000000e-01 3.0250001e+00 2.4000000e+01 
7.5000000e-01 3.0250001e+00 2.4500000e+01 
7.5000000e-01 3.0250001e+00 2.5000000e+01 
7.5000000e-01 3.0250001e+00 2.5500000e+01 
7.5000000e-01 3.0250001e+00 2.6000000e+01 
7.5000000e-01 3.0250001e+00 2.6500000e+01 
7.5000000e-01 3.0250001e+00 2.7000000e+01 
7.5000000e-01 3.0250001e+00 2.7500000e+01 
7.5000000e-01 3.0250001e+00 2.8000000e+01 
7.5000000e-01 3.0250001e+00 2.8500000e+01 
7.5000000e-01 3.0250001e+00 2.9000000e+01 
7.5000000e-01 3.0250001e+00 2.9500000e+01 
7.5000000e-01 3.0250001e+00 3.0000000e+01 
7.5000000e-01 3.0250001e+00 3.0500000e+01 
7.5000000e-01 3.0250001e+00 3.1000000e+01 
7.5000000e-01 3.0250001e+00 3.1500000e+01 
7.5000000e-01 3.0250001e+00 3.2000000e+01 
7.5000000e-01 3.0250001e+00 3.2500000e+01 
7.5000000e-01 3.0250001e+00 3.3000000e+01 
7.5000000e-01 3.0250001e+00 3.3500000e+01 
7.5000000e-01 3.0250001e+00 3.4000000e+01 
7.5000000e-01 3.0250001e+00 3.4500000e+01 
7.5000000e-01 3.0250001e+00 3.5000000e+01 
7.5000000e-01 3.0250001e+00 3.5500000e+01 
7.5000000e-01 3.0250001e+00 3.6000000e+01 
7.5000000e-01 3.0250001e+00 3.6500000e+01 
7.5000000e-01 3.0250001e+00 3.7000000e+01 
7.5000000e-01 3.0250001e+00 3.7500000e+01 
7.5000000e-01 3.0250001e+00 3.8000000e+01 
7.5000000e-01 3.0250001e+00 3.8500000e+01 
7.5000000e-01 3.0250001e+00 3.9000000e+01 
7.5000000e-01 3.0250001e+00 3.9500000e+01 
7.5000000e-01 3.0250001e+00 4.0000000e+01 
7.5000000e-01 3.0250001e+00 4.0500000e+01 
7.5000000e-01 3.0250001e+00 4.1000000e+01 
7.5000000e-01 3.0250001e+00 4.1500000e+01 
7.5000000e-01 3.0250001e+00 4.2000000e+01 
7.5000000e-01 3.0250001e+00 4.2500000e+01 
7.5000000e-01 3.0250001e+00 4.3000000e+01 
7.5000000e-01 3.0250001e+00 4.3500000e+01 
7.5000000e-01 3.0250001e+00 4.4000000e+01 
7.5000000e-01 3.0250001e+00 4.4500000e+01 
7.5000000e-01 3.0250001e+00 4.5000000e+01 
7.5000000e-01 3.0250001e+00 4.5500000e+01 
7.5000000e-01 3.0250001e+00 4.6000000e+01 
7.5000000e-01 3.0250001e+00 4.6500000e+01 
7.5000000e-01 3.0250001e+00 4.7000000e+01 
7.5000000e-01 3.0250001e+00 4.7500000e+01 
7.5000000e-01 3.0250001e+00 4.8000000e+01 
7.5000000e-01 3.0250001e+00 4.8500000e+01 
7.5000000e-01 3.0250001e+00 4.9000000e+01 
7.5000000e-01 3.0250001e+00 4.9500000e+01 
7.5000000e-01 3.0250001e+00 5.0000000e+01 
1.5000000e+00 3.0000000e+00 2.5000000e+01 
3.0000000e+00 2.0000000e+00 2.5000000e+01 
4.0000000e+00 2.0000000e+00 2.5000000e+01 
5.0000000e+00 2.0000000e+00 2.5000000e+01 
0.0000000e+00 3.0000000e+00 2.5000000e+01 
0.0000000e+00 0.0000000e+00 1.0000000e+00 
0.0000000e+00 0.0000000e+00 2.0000000e+00 
0.0000000e+00 0.0000000e+00 3.0000000e+00 
0.0000000e+00 0.0000000e+00 4.0000000e+00 
0.0000000e+00 0.0000000e+00 5.0000000e+00 
[...]
POINT_DATA 1919
FIELD FieldData 3
DISPLACEMENT 3 1919  float
0.0000000e+00 0.0000000e+00 0.0000000e+00 
0.0000000e+00 0.0000000e+00 0.0000000e+00 
0.0000000e+00 0.0000000e+00 0.0000000e+00 
0.0000000e+00 0.0000000e+00 0.0000000e+00 
3.3698925e-06 2.4636163e-06 -8.4358935e-06 
3.2351429e-07 -6.5999041e-07 5.2401924e-07 
0.0000000e+00 -7.5139483e-06 0.0000000e+00 
0.0000000e+00 2.7429400e-07 0.0000000e+00 
-3.9747997e-06 8.1973276e-06 -3.9545660e-07 
4.2813315e-07 -3.8930344e-07 4.4806640e-07 
7.5660510e-06 1.7668714e-05 1.3004488e-05 
3.3747799e-07 1.5881150e-07 1.0471023e-06 
0.0000000e+00 -3.0644464e-05 0.0000000e+00 
0.0000000e+00 -4.0770149e-07 0.0000000e+00 
-1.3985358e-05 4.8974653e-05 -3.3589688e-05 
-1.2238687e-07 9.2145939e-08 8.9720714e-07 
-8.4031839e-05 8.4599764e-05 -3.5237372e-05 
1.5477454e-07 5.6308727e-07 1.6620714e-07 
0.0000000e+00 -5.4253233e-05 0.0000000e+00 
0.0000000e+00 2.9326466e-07 0.0000000e+00 
-2.3125152e-05 8.3837404e-05 -2.0086623e-05 
1.2047426e-05 8.2520150e-05 -4.2704269e-05 
1.1968592e-05 8.2723636e-05 -4.3946678e-05 
3.8736180e-05 8.5814478e-05 -5.7909641e-05 
5.3337371e-05 9.1923896e-05 -6.1079008e-05 
6.8507077e-05 1.0198077e-04 -4.5625173e-05 
7.9667261e-05 1.0844200e-04 -3.4612596e-05 
7.7592347e-05 9.8666860e-05 -3.6221940e-05 
8.3783634e-05 7.7191551e-05 -2.8481863e-05 
8.2607461e-05 6.5667955e-05 -2.7903518e-05 
7.1223629e-05 8.1539889e-05 -1.7602548e-05 
8.9829482e-05 1.2330328e-04 -7.7929162e-06 
9.6439187e-05 1.6374726e-04 9.2188129e-06 
9.7024080e-05 1.6775400e-04 3.4621895e-05 
8.2357605e-05 1.3141659e-04 5.0846447e-05 
8.8152119e-05 7.7464807e-05 8.5575557e-05 
5.6804434e-05 1.0911798e-06 1.5071606e-04 
4.0590883e-05 -1.6424338e-04 1.5659347e-04 
-2.6104519e-05 -5.6872843e-04 2.6897877e-04 
-4.7732025e-05 -1.3731908e-03 2.2787733e-04 
-1.6165338e-04 -2.5923741e-03 3.2451432e-04 
-2.7097249e-04 -3.9526373e-03 1.2944576e-04 
-3.7259542e-04 -4.9613351e-03 1.7937136e-04 
-3.8954031e-04 -5.0088665e-03 3.3823995e-05 
-3.7553106e-04 -4.5687910e-03 -1.1475938e-04 
-3.1503514e-04 -4.3555633e-03 -1.1859353e-04 
-2.8365161e-04 -4.5913528e-03 -1.4554677e-04 
-2.9247749e-04 -4.7411700e-03 -2.7410110e-04 
-2.2300168e-04 -4.0942519e-03 -3.8567244e-04 
-1.5672401e-04 -2.7874848e-03 -2.8189563e-04 
-3.8225244e-05 -1.5188076e-03 -3.3382006e-04 
-1.4612227e-05 -5.9469929e-04 -1.4805280e-04 
5.4866126e-05 -4.9726717e-05 -1.0864055e-04 
9.3530420e-05 1.8992554e-04 -1.6898146e-05 
4.0934458e-05 2.2428510e-04 5.0064238e-05 
2.1096217e-05 1.6684594e-04 8.0072248e-05 
9.1065003e-06 1.0460582e-04 1.2486542e-04 
-2.0299734e-05 6.5729138e-05 1.3035274e-04 
-4.2704985e-05 4.4651781e-05 1.2092735e-04 
-3.9395312e-05 3.4872450e-05 7.8616569e-05 
-6.5830260e-05 3.8761103e-05 1.9818455e-05 
-3.7521404e-05 5.3935008e-05 -3.5724825e-05 
-2.1404792e-05 6.7915185e-05 -7.1194147e-05 
3.4251357e-06 6.5584834e-05 -8.0869570e-05 
2.5843085e-05 5.0185725e-05 -7.9688740e-05 
4.3578882e-05 4.3234333e-05 -6.5570290e-05 
5.5683548e-05 5.7708850e-05 -4.0430779e-05 
5.9253307e-05 7.5591961e-05 -3.6772057e-05 
6.9173329e-05 7.2914692e-05 -2.1755552e-05 
7.2110932e-05 4.7088870e-05 -3.7489925e-05 
8.6258304e-05 2.6425138e-05 -1.5907171e-05 
8.5009822e-05 4.7613812e-05 1.5888902e-05 
9.2445342e-05 1.0840934e-04 3.0416537e-05 
7.5650380e-05 1.6087919e-04 4.7891339e-05 
9.0905029e-05 1.5547042e-04 7.1860311e-05 
8.9886751e-05 7.3980082e-05 1.0125563e-04 
5.4498250e-05 -8.2511135e-05 1.4766332e-04 
4.4826218e-05 -3.2507020e-04 1.7502393e-04 
-3.0706466e-05 -7.5239484e-04 2.9897908e-04 
-8.1096172e-05 -1.5275681e-03 2.3892897e-04 
-1.7765586e-04 -2.7422640e-03 3.3363755e-04 
-2.7876848e-04 -4.1753603e-03 1.2643171e-04 
-3.8053482e-04 -5.2075656e-03 1.1591388e-04 
-4.0111676e-04 -5.0577796e-03 8.7863664e-06 
-3.9306816e-04 -4.5117526e-03 -9.4428986e-05 
-3.8796343e-04 -4.3144105e-03 -1.1819822e-04 
-3.4872582e-04 -4.6457830e-03 -1.8101581e-04 
-3.7972559e-04 -4.8073460e-03 -3.0618568e-04 
-3.0740994e-04 -3.9944686e-03 -4.8379996e-04 
-1.9233814e-04 -2.6229199e-03 -3.2133420e-04 
-4.6385758e-05 -1.3551889e-03 -3.4040990e-04 
-1.4303351e-05 -4.5003524e-04 -1.6786979e-04 
4.3373238e-05 4.5007535e-05 -1.1348490e-04 
6.1519553e-05 2.2314544e-04 -4.4423483e-05 
6.2579376e-05 2.2734358e-04 -7.2398179e-06 
7.3856740e-05 1.7187984e-04 2.5096208e-05 
4.3517248e-05 1.1042899e-04 8.5585751e-05 
1.4783198e-05 5.7311747e-05 9.9772216e-05 
-9.0301855e-06 1.3346059e-05 9.6975891e-05 
-1.4099443e-05 -1.3923804e-05 6.2853265e-05 
-3.2433476e-05 -1.8895713e-05 2.4654095e-05 
-2.6821552e-05 -1.0705832e-05 -8.4776997e-07 
-1.7905491e-05 -1.9335630e-06 -2.3771538e-05 
-1.5634536e-05 2.4499886e-06 -2.5102314e-05 
-4.4912198e-07 5.2278515e-06 -2.0602407e-05 
3.2519536e-06 8.3620644e-06 -1.1875378e-05 
4.2332540e-06 9.3975586e-06 -6.3923549e-06 
6.9348553e-06 6.0414072e-06 -6.2542522e-06 
3.1233351e-06 -5.5025504e-07 -3.9554534e-06 
2.3209259e-06 -5.1866955e-06 -2.4862702e-06 
3.3316578e-06 -4.9348123e-06 -1.8495246e-07 
2.2656398e-06 -2.1136675e-06 1.5459889e-06 
1.3805183e-06 -6.5986762e-07 1.9941624e-06 
2.3286509e-07 -1.4101225e-06 1.5437972e-06 
-2.1902315e-06 -2.1230896e-06 1.5858760e-06 
-9.2073049e-07 -1.1982339e-06 1.7253042e-07 
-7.0826957e-07 6.2569706e-07 5.5047824e-08 
-4.6579281e-08 1.5470747e-06 5.0275497e-07 
7.3288447e-08 1.0761731e-06 4.2933914e-07 
0.0000000e+00 8.4739717e-05 0.0000000e+00 
0.0000000e+00 8.3897670e-05 0.0000000e+00 
0.0000000e+00 8.2474435e-05 0.0000000e+00 
0.0000000e+00 8.2667510e-05 0.0000000e+00 
0.0000000e+00 8.5757965e-05 0.0000000e+00 
0.0000000e+00 9.2300557e-05 0.0000000e+00 
0.0000000e+00 1.0234119e-04 0.0000000e+00 
0.0000000e+00 1.0802862e-04 0.0000000e+00 
0.0000000e+00 9.8064877e-05 0.0000000e+00 
0.0000000e+00 7.6995471e-05 0.0000000e+00 
0.0000000e+00 6.6040186e-05 0.0000000e+00 
0.0000000e+00 8.2687198e-05 0.0000000e+00 
0.0000000e+00 1.2411842e-04 0.0000000e+00 
0.0000000e+00 1.6288896e-04 0.0000000e+00 
0.0000000e+00 1.6659615e-04 0.0000000e+00 
0.0000000e+00 1.3182971e-04 0.0000000e+00 
0.0000000e+00 7.9174904e-05 0.0000000e+00 
0.0000000e+00 4.4517669e-06 0.0000000e+00 
0.0000000e+00 -1.6261848e-04 0.0000000e+00 
0.0000000e+00 -5.7281676e-04 0.0000000e+00 
0.0000000e+00 -1.3838526e-03 0.0000000e+00 
0.0000000e+00 -2.6019688e-03 0.0000000e+00 
0.0000000e+00 -3.9719995e-03 0.0000000e+00 
0.0000000e+00 -4.9815751e-03 0.0000000e+00 
0.0000000e+00 -5.0448854e-03 0.0000000e+00 
0.0000000e+00 -4.5934985e-03 0.0000000e+00 
0.0000000e+00 -4.3835137e-03 0.0000000e+00 
0.0000000e+00 -4.6111094e-03 0.0000000e+00 
0.0000000e+00 -4.7710119e-03 0.0000000e+00 
0.0000000e+00 -4.1187648e-03 0.0000000e+00 
0.0000000e+00 -2.8084212e-03 0.0000000e+00 
0.0000000e+00 -1.5272347e-03 0.0000000e+00 
0.0000000e+00 -5.9826113e-04 0.0000000e+00 
0.0000000e+00 -5.0700000e-05 0.0000000e+00 
0.0000000e+00 1.8978275e-04 0.0000000e+00 
0.0000000e+00 2.2584177e-04 0.0000000e+00 
0.0000000e+00 1.6919254e-04 0.0000000e+00 
0.0000000e+00 1.0554071e-04 0.0000000e+00 
0.0000000e+00 6.5434848e-05 0.0000000e+00 
0.0000000e+00 4.4307581e-05 0.0000000e+00 
0.0000000e+00 3.5269266e-05 0.0000000e+00 
0.0000000e+00 3.9340568e-05 0.0000000e+00 
0.0000000e+00 5.4102315e-05 0.0000000e+00 
0.0000000e+00 6.7190012e-05 0.0000000e+00 
0.0000000e+00 6.4823929e-05 0.0000000e+00 
0.0000000e+00 5.0395040e-05 0.0000000e+00 
0.0000000e+00 4.4337583e-05 0.0000000e+00 
0.0000000e+00 5.8084195e-05 0.0000000e+00 
0.0000000e+00 7.5117670e-05 0.0000000e+00 
0.0000000e+00 7.1868999e-05 0.0000000e+00 
0.0000000e+00 4.6384830e-05 0.0000000e+00 
0.0000000e+00 2.7390633e-05 0.0000000e+00 
0.0000000e+00 4.9251768e-05 0.0000000e+00 
0.0000000e+00 1.0902761e-04 0.0000000e+00 
0.0000000e+00 1.6023681e-04 0.0000000e+00 
0.0000000e+00 1.5446119e-04 0.0000000e+00 
0.0000000e+00 7.3641320e-05 0.0000000e+00 
0.0000000e+00 -7.9809921e-05 0.0000000e+00 
0.0000000e+00 -3.2242073e-04 0.0000000e+00 
0.0000000e+00 -7.5341499e-04 0.0000000e+00 
0.0000000e+00 -1.5372649e-03 0.0000000e+00 
0.0000000e+00 -2.7570615e-03 0.0000000e+00 
0.0000000e+00 -4.2025121e-03 0.0000000e+00 
0.0000000e+00 -5.2278494e-03 0.0000000e+00 
0.0000000e+00 -5.0877514e-03 0.0000000e+00 
0.0000000e+00 -4.5326110e-03 0.0000000e+00 
0.0000000e+00 -4.3463595e-03 0.0000000e+00 
0.0000000e+00 -4.6687336e-03 0.0000000e+00 
0.0000000e+00 -4.8397169e-03 0.0000000e+00 
0.0000000e+00 -4.0134792e-03 0.0000000e+00 
0.0000000e+00 -2.6398872e-03 0.0000000e+00 
0.0000000e+00 -1.3627727e-03 0.0000000e+00 
0.0000000e+00 -4.5480567e-04 0.0000000e+00 
0.0000000e+00 4.3970147e-05 0.0000000e+00 
0.0000000e+00 2.2499145e-04 0.0000000e+00 
0.0000000e+00 2.2960170e-04 0.0000000e+00 
0.0000000e+00 1.7291083e-04 0.0000000e+00 
0.0000000e+00 1.1075111e-04 0.0000000e+00 
0.0000000e+00 5.7272759e-05 0.0000000e+00 
0.0000000e+00 1.3582073e-05 0.0000000e+00 
0.0000000e+00 -1.3466472e-05 0.0000000e+00 
0.0000000e+00 -1.8948986e-05 0.0000000e+00 
0.0000000e+00 -1.1022119e-05 0.0000000e+00 
0.0000000e+00 -2.1119138e-06 0.0000000e+00 
0.0000000e+00 2.5710372e-06 0.0000000e+00 
0.0000000e+00 5.3482545e-06 0.0000000e+00 
0.0000000e+00 8.2434181e-06 0.0000000e+00 
0.0000000e+00 9.2660903e-06 0.0000000e+00 
0.0000000e+00 5.9864501e-06 0.0000000e+00 
0.0000000e+00 -4.1622815e-07 0.0000000e+00 
0.0000000e+00 -5.0383937e-06 0.0000000e+00 
0.0000000e+00 -4.9359378e-06 0.0000000e+00 
0.0000000e+00 -2.2263800e-06 0.0000000e+00 
0.0000000e+00 -7.3248049e-07 0.0000000e+00 
0.0000000e+00 -1.3695874e-06 0.0000000e+00 
0.0000000e+00 -2.0621071e-06 0.0000000e+00 
0.0000000e+00 -1.1827480e-06 0.0000000e+00 
0.0000000e+00 5.8810923e-07 0.0000000e+00 
0.0000000e+00 1.5030678e-06 0.0000000e+00 
0.0000000e+00 1.0825721e-06 0.0000000e+00 
0.0000000e+00 5.9696026e-07 0.0000000e+00 
6.3673622e-05 -7.0173839e-05 -2.6246451e-05 
2.6070734e-06 -2.0834026e-05 -1.2743571e-05 
-4.8429220e-06 -1.4722205e-05 5.0630638e-06 
3.5234052e-06 -2.2868120e-05 -7.4976338e-06 
0.0000000e+00 1.2868681e-04 0.0000000e+00 
0.0000000e+00 0.0000000e+00 0.0000000e+00 
0.0000000e+00 0.0000000e+00 0.0000000e+00 
0.0000000e+00 0.0000000e+00 0.0000000e+00 
0.0000000e+00 0.0000000e+00 0.0000000e+00 
0.0000000e+00 0.0000000e+00 0.0000000e+00 
0.0000000e+00 0.0000000e+00 0.0000000e+00 
0.0000000e+00 0.0000000e+00 0.0000000e+00 
0.0000000e+00 0.0000000e+00 0.0000000e+00 
0.0000000e+00 0.0000000e+00 0.0000000e+00 
0.0000000e+00 0.0000000e+00 0.0000000e+00 
0.0000000e+00 0.0000000e+00 0.0000000e+00 
0.0000000e+00 0.0000000e+00 0.0000000e+00 
0.0000000e+00 0.0000000e+00 0.0000000e+00 
0.0000000e+00 0.0000000e+00 0.0000000e+00 
0.0000000e+00 0.0000000e+00 0.0000000e+00 
0.0000000e+00 0.0000000e+00 0.0000000e+00 
0.0000000e+00 0.0000000e+00 0.0000000e+00 
0.0000000e+00 0.0000000e+00 0.0000000e+00 
0.0000000e+00 0.0000000e+00 0.0000000e+00 
0.0000000e+00 0.0000000e+00 0.0000000e+00 
0.0000000e+00 0.0000000e+00 0.0000000e+00 
0.0000000e+00 0.0000000e+00 0.0000000e+00 
0.0000000e+00 0.0000000e+00 0.0000000e+00 
0.0000000e+00 0.0000000e+00 0.0000000e+00 
0.0000000e+00 0.0000000e+00 0.0000000e+00 
0.0000000e+00 0.0000000e+00 0.0000000e+00 
0.0000000e+00 0.0000000e+00 0.0000000e+00 
0.0000000e+00 0.0000000e+00 0.0000000e+00 
0.0000000e+00 0.0000000e+00 0.0000000e+00 
0.0000000e+00 0.0000000e+00 0.0000000e+00 
0.0000000e+00 0.0000000e+00 0.0000000e+00 
0.0000000e+00 0.0000000e+00 0.0000000e+00 
0.0000000e+00 0.0000000e+00 0.0000000e+00 
0.0000000e+00 0.0000000e+00 0.0000000e+00 
0.0000000e+00 0.0000000e+00 0.0000000e+00 
0.0000000e+00 0.0000000e+00 0.0000000e+00 
0.0000000e+00 0.0000000e+00 0.0000000e+00 
0.0000000e+00 0.0000000e+00 0.0000000e+00 
0.0000000e+00 0.0000000e+00 0.0000000e+00 
0.0000000e+00 0.0000000e+00 0.0000000e+00 
0.0000000e+00 0.0000000e+00 0.0000000e+00 
0.0000000e+00 0.0000000e+00 0.0000000e+00 
0.0000000e+00 0.0000000e+00 0.0000000e+00 
0.0000000e+00 0.0000000e+00 0.0000000e+00 
0.0000000e+00 0.0000000e+00 0.0000000e+00 
0.0000000e+00 0.0000000e+00 0.0000000e+00 
0.0000000e+00 0.0000000e+00 0.0000000e+00 
0.0000000e+00 0.0000000e+00 0.0000000e+00 
0.0000000e+00 0.0000000e+00 0.0000000e+00 
0.0000000e+00 0.0000000e+00 0.0000000e+00 
0.0000000e+00 0.0000000e+00 0.0000000e+00 
0.0000000e+00 0.0000000e+00 0.0000000e+00 
0.0000000e+00 0.0000000e+00 0.0000000e+00 
0.0000000e+00 0.0000000e+00 0.0000000e+00 
0.0000000e+00 0.0000000e+00 0.0000000e+00 
0.0000000e+00 0.0000000e+00 0.0000000e+00 
0.0000000e+00 0.0000000e+00 0.0000000e+00 
0.0000000e+00 0.0000000e+00 0.0000000e+00 
0.0000000e+00 0.0000000e+00 0.0000000e+00 
0.0000000e+00 0.0000000e+00 0.0000000e+00 
0.0000000e+00 0.0000000e+00 0.0000000e+00 
0.0000000e+00 0.0000000e+00 0.0000000e+00 
0.0000000e+00 0.0000000e+00 0.0000000e+00 
0.0000000e+00 0.0000000e+00 0.0000000e+00 
0.0000000e+00 0.0000000e+00 0.0000000e+00 
0.0000000e+00 0.0000000e+00 0.0000000e+00 
0.0000000e+00 0.0000000e+00 0.0000000e+00 
0.0000000e+00 0.0000000e+00 0.0000000e+00 
0.0000000e+00 0.0000000e+00 0.0000000e+00 
0.0000000e+00 0.0000000e+00 0.0000000e+00 
0.0000000e+00 0.0000000e+00 0.0000000e+00 
0.0000000e+00 0.0000000e+00 0.0000000e+00 
0.0000000e+00 0.0000000e+00 0.0000000e+00 
0.0000000e+00 0.0000000e+00 0.0000000e+00 
0.0000000e+00 0.0000000e+00 0.0000000e+00 
0.0000000e+00 0.0000000e+00 0.0000000e+00 
0.0000000e+00 0.0000000e+00 0.0000000e+00 
0.0000000e+00 0.0000000e+00 0.0000000e+00 
0.0000000e+00 0.0000000e+00 0.0000000e+00 
0.0000000e+00 0.0000000e+00 0.0000000e+00 
0.0000000e+00 0.0000000e+00 0.0000000e+00 
0.0000000e+00 0.0000000e+00 0.0000000e+00 
0.0000000e+00 0.0000000e+00 0.0000000e+00 
0.0000000e+00 0.0000000e+00 0.0000000e+00 
0.0000000e+00 0.0000000e+00 0.0000000e+00 
0.0000000e+00 0.0000000e+00 0.0000000e+00 
0.0000000e+00 0.0000000e+00 0.0000000e+00 
0.0000000e+00 0.0000000e+00 0.0000000e+00 
0.0000000e+00 0.0000000e+00 0.0000000e+00 
0.0000000e+00 0.0000000e+00 0.0000000e+00 
0.0000000e+00 0.0000000e+00 0.0000000e+00 
0.0000000e+00 0.0000000e+00 0.0000000e+00 
0.0000000e+00 0.0000000e+00 0.0000000e+00 
0.0000000e+00 0.0000000e+00 0.0000000e+00 
0.0000000e+00 0.0000000e+00 0.0000000e+00 
0.0000000e+00 0.0000000e+00 0.0000000e+00 
0.0000000e+00 0.0000000e+00 0.0000000e+00 
0.0000000e+00 0.0000000e+00 0.0000000e+00 
0.0000000e+00 0.0000000e+00 0.0000000e+00 
0.0000000e+00 0.0000000e+00 0.0000000e+00 
0.0000000e+00 0.0000000e+00 0.0000000e+00 
0.0000000e+00 0.0000000e+00 0.0000000e+00 
0.0000000e+00 0.0000000e+00 0.0000000e+00 
0.0000000e+00 0.0000000e+00 0.0000000e+00 
0.0000000e+00 0.0000000e+00 0.0000000e+00 
0.0000000e+00 0.0000000e+00 0.0000000e+00 
3.4424713e-06 -8.6715767e-07 -2.3523669e-06 
3.2673781e-06 -5.1138350e-06 -1.4225614e-06 
-9.3797797e-07 -8.8894303e-06 -7.8568854e-07 
-3.5271637e-06 -1.5161474e-05 3.4483155e-06 
-3.3781716e-06 -5.3351437e-06 -2.1031835e-06 
8.0726090e-07 -2.1254005e-05 -3.3168997e-06 
-5.0060066e-06 -2.0043066e-05 -4.7630501e-06 
8.0602340e-06 -8.6904238e-06 -1.7779779e-05 
2.2737946e-05 -2.7784155e-05 -2.2551001e-05 
4.0746661e-05 -2.0769186e-05 -2.2116312e-05 
5.1154562e-05 -1.2328598e-05 -1.6693339e-05 
5.5651126e-05 -1.6878428e-05 -7.2283065e-06 
5.3004631e-05 -9.3807112e-06 1.1366682e-05 
3.3779252e-05 -7.4009645e-06 1.7598084e-05 
1.9728681e-05 -4.9009600e-06 1.5288657e-05 
1.0327355e-05 -2.5874804e-06 1.3297833e-05 
-1.8418318e-07 3.9657689e-06 4.6110413e-06 
-4.5737914e-07 4.1830071e-06 3.2535727e-06 
5.2463897e-06 2.0941320e-06 6.6777070e-06 
6.2136496e-06 4.0298542e-06 7.0238270e-06 
6.4319061e-06 4.2674708e-07 7.9974325e-06 
2.6671428e-06 -7.3717174e-06 1.2313136e-05 
1.7638487e-06 -1.5874479e-05 7.2239568e-06 
3.3564206e-07 -1.6935808e-05 1.5906579e-06 
-3.3713588e-06 -1.1583333e-05 1.9753650e-06 
-4.0034838e-06 -1.6430678e-05 -9.0327276e-06 
-6.9443951e-07 -2.7697042e-05 -1.5028364e-05 
8.1022408e-06 -2.1799176e-05 -1.7884749e-05 
2.6782382e-05 -2.4154751e-05 -1.9726816e-05 
4.0448460e-05 -2.6608015e-05 -1.5266265e-05 
5.5056975e-05 -1.9381734e-05 -9.5436235e-06 
6.2478110e-05 -1.5134148e-05 4.1085312e-07 
4.7788661e-05 -4.6318100e-06 5.5743603e-06 
3.6128640e-05 -4.0063010e-06 9.4953784e-06 
2.1342565e-05 -7.8306512e-06 7.1044037e-06 
1.0660558e-05 -5.4209647e-07 1.5408509e-06 
2.4208055e-06 2.1199610e-06 -6.6752540e-07 
1.3345511e-06 -1.4723216e-06 -1.5197272e-06 
1.7088229e-06 4.2165550e-07 2.2102870e-06 
1.0113273e-07 4.1955880e-07 7.4712698e-06 
5.2393101e-08 -5.2314829e-07 8.1689132e-06 
8.5916088e-07 -3.1508732e-06 7.0662977e-06 
1.8965362e-06 -3.8907210e-06 5.6082754e-06 
1.5623970e-06 1.4231399e-06 2.3498685e-06 
9.3841612e-07 1.7209775e-06 -9.8638077e-07 
-3.4316695e-08 -1.6264516e-07 -1.7701956e-06 
-6.7304279e-07 -4.0288108e-07 -2.2637630e-06 
-4.6396565e-07 5.4765945e-07 -8.4324790e-07 
-2.3487293e-07 3.3647336e-07 2.1781908e-07 
0.0000000e+00 -2.9608140e-05 0.0000000e+00 
0.0000000e+00 -6.2687209e-06 0.0000000e+00 
0.0000000e+00 3.6748010e-05 0.0000000e+00 
0.0000000e+00 4.0566167e-05 0.0000000e+00 
0.0000000e+00 7.4594187e-05 0.0000000e+00 
0.0000000e+00 1.1903297e-04 0.0000000e+00 
0.0000000e+00 6.1139479e-05 0.0000000e+00 
0.0000000e+00 5.1924944e-05 0.0000000e+00 
0.0000000e+00 -2.3176943e-05 0.0000000e+00 
0.0000000e+00 -2.5453037e-04 0.0000000e+00 
0.0000000e+00 -4.2818676e-04 0.0000000e+00 
0.0000000e+00 -5.7501410e-04 0.0000000e+00 
0.0000000e+00 -5.8875937e-04 0.0000000e+00 
0.0000000e+00 -4.6323016e-04 0.0000000e+00 
0.0000000e+00 -2.8243047e-04 0.0000000e+00 
0.0000000e+00 -8.0388432e-05 0.0000000e+00 
0.0000000e+00 1.9266303e-05 0.0000000e+00 
0.0000000e+00 8.4958074e-06 0.0000000e+00 
0.0000000e+00 -1.7088874e-05 0.0000000e+00 
0.0000000e+00 -2.8854094e-05 0.0000000e+00 
0.0000000e+00 -2.6987678e-05 0.0000000e+00 
0.0000000e+00 2.1734619e-05 0.0000000e+00 
0.0000000e+00 7.2633193e-05 0.0000000e+00 
0.0000000e+00 8.8282512e-05 0.0000000e+00 
0.0000000e+00 1.0615062e-04 0.0000000e+00 
0.0000000e+00 1.4210786e-04 0.0000000e+00 
0.0000000e+00 1.1504853e-04 0.0000000e+00 
0.0000000e+00 4.0235453e-05 0.0000000e+00 
0.0000000e+00 1.9462412e-05 0.0000000e+00 
0.0000000e+00 -2.7564054e-04 0.0000000e+00 
0.0000000e+00 -4.7108586e-04 0.0000000e+00 
0.0000000e+00 -5.9109280e-04 0.0000000e+00 
0.0000000e+00 -5.6902075e-04 0.0000000e+00 
0.0000000e+00 -4.5305531e-04 0.0000000e+00 
0.0000000e+00 -2.7769755e-04 0.0000000e+00 
0.0000000e+00 -4.5406206e-05 0.0000000e+00 
0.0000000e+00 1.0477508e-05 0.0000000e+00 
0.0000000e+00 1.5928215e-05 0.0000000e+00 
0.0000000e+00 3.6505505e-06 0.0000000e+00 
0.0000000e+00 -8.7282160e-06 0.0000000e+00 
0.0000000e+00 -1.5119891e-05 0.0000000e+00 
0.0000000e+00 4.8941142e-06 0.0000000e+00 
0.0000000e+00 9.3724257e-06 0.0000000e+00 
0.0000000e+00 -1.5623804e-07 0.0000000e+00 
0.0000000e+00 -4.1434782e-06 0.0000000e+00 
0.0000000e+00 -6.8669198e-07 0.0000000e+00 
0.0000000e+00 1.7916013e-06 0.0000000e+00 
0.0000000e+00 -8.1413603e-08 0.0000000e+00 
0.0000000e+00 -1.2457863e-07 0.0000000e+00 
1.7277755e-07 2.7077156e-06 1.6811318e-06 
-1.2167081e-06 1.0110502e-05 5.2831097e-06 
3.2963878e-06 1.1750364e-05 1.0010483e-05 
7.5171024e-06 5.8350975e-06 1.1042882e-05 
-1.3743693e-07 -2.9767691e-07 4.6951689e-07 
-2.9381855e-08 3.8515986e-07 4.7388616e-07 
1.5984445e-07 -3.5225091e-07 7.3261340e-08 
-1.1360951e-08 1.2120281e-08 -2.3316008e-07 
5.4971792e-07 7.2362286e-07 4.7646677e-06 
4.2876061e-07 -7.9452508e-07 1.1853369e-06 
-2.4179888e-06 1.9172940e-05 1.2580476e-05 
-2.2700392e-06 2.3021037e-05 1.2811947e-05 
0.0000000e+00 -2.9532004e-05 0.0000000e+00 
0.0000000e+00 1.4138249e-05 0.0000000e+00 
0.0000000e+00 4.8080969e-05 0.0000000e+00 
0.0000000e+00 9.4197232e-05 0.0000000e+00 
0.0000000e+00 1.4655366e-04 0.0000000e+00 
0.0000000e+00 1.6419937e-04 0.0000000e+00 
0.0000000e+00 1.5793303e-04 0.0000000e+00 
0.0000000e+00 9.2985203e-05 0.0000000e+00 
0.0000000e+00 -9.1227805e-05 0.0000000e+00 
0.0000000e+00 -5.2933057e-04 0.0000000e+00 
0.0000000e+00 -9.2274050e-04 0.0000000e+00 
0.0000000e+00 -1.2337714e-03 0.0000000e+00 
0.0000000e+00 -1.1449943e-03 0.0000000e+00 
0.0000000e+00 -9.8093797e-04 0.0000000e+00 
0.0000000e+00 -5.0956843e-04 0.0000000e+00 