# vtk DataFile Version 4.0
vtk output
ASCII
DATASET UNSTRUCTURED_GRID
POINTS 1919 float
0.0000000e+00 0.0000000e+00 0.0000000e+00 
0.0000000e+00 0.0000000e+00 5.0000000e+01 
5.0000000e+00 0.0000000e+00 0.0000000e+00 
5.0000000e+00 0.0000000e+00 5.0000000e+01 
5.0000000e+00 1.0000000e+00 0.0000000e+00 
5.0000000e+00 1.0000000e+00 5.0000000e+01 
0.0000000e+00 1.0000000e+00 0.0000000e+00 
0.0000000e+00 1.0000000e+00 5.0000000e+01 
5.0000000e+00 2.0000000e+00 0.0000000e+00 
5.0000000e+00 2.0000000e+00 5.0000000e+01 
3.0000000e+00 2.0000000e+00 0.0000000e+00 
3.0000000e+00 2.0000000e+00 5.0000000e+01 
0.0000000e+00 2.0000000e+00 0.0000000e+00 
0.0000000e+00 2.0000000e+00 5.0000000e+01 
1.5000000e+00 3.0000000e+00 0.0000000e+00 
1.5000000e+00 3.0000000e+00 5.0000000e+01 
7.5000000e-01 3.0000000e+00 0.0000000e+00 
7.5000000e-01 3.0000000e+00 5.0000000e+01 
0.0000000e+00 3.0000000e+00 0.0000000e+00 
0.0000000e+00 3.0000000e+00 5.0000000e+01 
7.5000000e-01 3.0000000e+00 5.0000000e-01 
7.5000000e-01 3.0000000e+00 1.0000000e+00 
7.5000000e-01 3.0000000e+00 1.5000000e+00 
7.5000000e-01 3.0000000e+00 2.0000000e+00 
7.5000000e-01 3.0000000e+00 2.5000000e+00 
7.5000000e-01 3.0000000e+00 3.0000000e+00 
7.5000000e-01 3.0000000e+00 3.5000000e+00 
7.5000000e-01 3.0000000e+00 4.0000000e+00 
7.5000000e-01 3.0000000e+00 4.5000000e+00 
7.5000000e-01 3.0000000e+00 5.0000000e+00 
7.5000000e-01 3.0000000e+00 5.5000000e+00 
7.5000000e-01 3.0000000e+00 6.0000000e+00 
7.5000000e-01 3.0000000e+00 6.5000000e+00 
7.5000000e-01 3.0000000e+00 7.0000000e+00 
7.5000000e-01 3.0000000e+00 7.5000000e+00 
7.5000000e-01 3.0000000e+00 8.0000000e+00 
7.5000000e-01 3.0000000e+00 8.5000000e+00 
7.5000000e-01 3.0000000e+00 9.0000000e+00 
7.5000000e-01 3.0000000e+00 9.5000000e+00 
7.5000000e-01 3.0000000e+00 1.0000000e+01 
7.5000000e-01 3.0000000e+00 1.0500000e+01 
7.5000000e-01 3.0000000e+00 1.1000000e+01 
7.5000000e-01 3.0000000e+00 1.1500000e+01 
7.5000000e-01 3.0000000e+00 1.2000000e+01 
7.5000000e-01 3.0000000e+00 1.2500000e+01 
7.5000000e-01 3.0000000e+00 1.3000000e+01 
7.5000000e-01 3.0000000e+00 1.3500000e+01 
7.5000000e-01 3.0000000e+00 1.4000000e+01 
7.5000000e-01 3.0000000e+00 1.4500000e+01 
7.5000000e-01 3.0000000e+00 1.5000000e+01 
7.5000000e-01 3.0000000e+00 1.5500000e+01 
7.5000000e-01 3.0000000e+00 1.6000000e+01 
7.5000000e-01 3.0000000e+00 1.6500000e+01 
7.5000000e-01 3.0000000e+00 1.7000000e+01 
7.5000000e-01 3.0000000e+00 1.7500000e+01 
7.5000000e-01 3.0000000e+00 1.8000000e+01 
7.5000000e-01 3.0000000e+00 1.8500000e+01 
7.5000000e-01 3.0000000e+00 1.9000000e+01 
7.5000000e-01 3.0000000e+00 1.9500000e+01 
7.5000000e-01 3.0000000e+00 2.0000000e+01 
7.5000000e-01 3.0000000e+00 2.0500000e+01 
7.5000000e-01 3.0000000e+00 2.1000000e+01 
7.5000000e-01 3.0000000e+00 2.1500000e+01 
7.5000000e-01 3.0000000e+00 2.2000000e+01 
7.5000000e-01 3.0000000e+00 2.2500000e+01 
7.5000000e-01 3.0000000e+00 2.3000000e+01 
7.5000000e-01 3.0000000e+00 2.3500000e+01 
7.5000000e-01 3.0000000e+00 2.4000000e+01 
7.5000000e-01 3.0000000e+00 2.4500000e+01 
7.5000000e-01 3.0000000e+00 2.5000000e+01 
7.5000000e-01 3.0000000e+00 2.5500000e+01 
7.5000000e-01 3.0000000e+00 2.6000000e+01 
7.5000000e-01 3.0000000e+00 2.6500000e+01 
7.5000000e-01 3.0000000e+00 2.7000000e+01 
7.5000000e-01 3.0000000e+00 2.7500000e+01 
7.5000000e-01 3.0000000e+00 2.8000000e+01 
7.5000000e-01 3.0000000e+00 2.8500000e+01 
7.5000000e-01 3.0000000e+00 2.9000000e+01 
7.5000000e-01 3.0000000e+00 2.9500000e+01 
7.5000000e-01 3.0000000e+00 3.0000000e+01 
7.5000000e-01 3.0000000e+00 3.0500000e+01 
7.5000000e-01 3.0000000e+00 3.1000000e+01 
7.5000000e-01 3.0000000e+00 3.1500000e+01 
7.5000000e-01 3.0000000e+00 3.2000000e+01 
7.5000000e-01 3.0000000e+00 3.2500000e+01 
7.5000000e-01 3.0000000e+00 3.3000000e+01 
7.5000000e-01 3.0000000e+00 3.3500000e+01 
7.5000000e-01 3.0000000e+00 3.4000000e+01 
7.5000000e-01 3.0000000e+00 3.4500000e+01 
7.5000000e-01 3.0000000e+00 3.5000000e+01 
7.5000000e-01 3.0000000e+00 3.5500000e+01 
7.5000000e-01 3.0000000e+00 3.6000000e+01 
7.5000000e-01 3.0000000e+00 3.6500000e+01 
7.5000000e-01 3.0000000e+00 3.7000000e+01 
7.5000000e-01 3.0000000e+00 3.7500000e+01 
7.5000000e-01 3.0000000e+00 3.8000000e+01 
7.5000000e-01 3.0000000e+00 3.8500000e+01 
7.5000000e-01 3.0000000e+00 3.9000000e+01 
7.5000000e-01 3.0000000e+00 3.9500000e+01 
7.5000000e-01 3.0000000e+00 4.0000000e+01 
7.5000000e-01 3.0000000e+00 4.0500000e+01 
7.5000000e-01 3.0000000e+00 4.1000000e+01 
7.5000000e-01 3.0000000e+00 4.1500000e+01 
7.5000000e-01 3.0000000e+00 4.2000000e+01 
7.5000000e-01 3.0000000e+00 4.2500000e+01 
7.5000000e-01 3.0000000e+00 4.3000000e+01 
7.5000000e-01 3.0000000e+00 4.3500000e+01 
7.5000000e-01 3.0000000e+00 4.4000000e+01 
7.5000000e-01 3.0000000e+00 4.4500000e+01 
7.5000000e-01 3.0000000e+00 4.5000000e+01 
7.5000000e-01 3.0000000e+00 4.5500000e+01 
7.5000000e-01 3.0000000e+00 4.6000000e+01 
7.5000000e-01 3.0000000e+00 4.6500000e+01 
7.5000000e-01 3.0000000e+00 4.7000000e+01 
7.5000000e-01 3.0000000e+00 4.7500000e+01 
7.5000000e-01 3.0000000e+00 4.8000000e+01 
7.5000000e-01 3.0000000e+00 4.8500000e+01 
7.5000000e-01 3.0000000e+00 4.9000000e+01 
7.5000000e-01 3.0000000e+00 4.9500000e+01 
7.5000000e-01 3.0250001e+00 0.0000000e+00 
7.5000000e-01 3.0250001e+00 5.0000000e-01 
7.5000000e-01 3.0250001e+00 1.0000000e+00 
7.5000000e-01 3.0250001e+00 1.5000000e+00 
7.5000000e-01 3.0250001e+00 2.0000000e+00 
7.5000000e-01 3.0250001e+00 2.5000000e+00 
7.5000000e-01 3.0250001e+00 3.0000000e+00 
7.5000000e-01 3.0250001e+00 3.5000000e+00 
7.5000000e-01 3.0250001e+00 4.0000000e+00 
7.5000000e-01 3.0250001e+00 4.5000000e+00 
7.5000000e-01 3.0250001e+00 5.0000000e+00 
7.5000000e-01 3.0250001e+00 5.5000000e+00 
7.5000000e-01 3.0250001e+00 6.0000000e+00 
7.5000000e-01 3.0250001e+00 6.5000000e+00 
7.5000000e-01 3.0250001e+00 7.0000000e+00 
7.5000000e-01 3.0250001e+00 7.5000000e+00 
7.5000000e-01 3.0250001e+00 8.0000000e+00 
7.5000000e-01 3.0250001e+00 8.5000000e+00 
7.5000000e-01 3.0250001e+00 9.0000000e+00 
7.5000000e-01 3.0250001e+00 9.5000000e+00 
7.5000000e-01 3.0250001e+00 1.0000000e+01 
7.5000000e-01 3.0250001e+00 1.0500000e+01 
7.5000000e-01 3.0250001e+00 1.1000000e+01 
7.5000000e-01 3.0250001e+00 1.1500000e+01 
7.5000000e-01 3.0250001e+00 1.2000000e+01 
7.5000000e-01 3.0250001e+00 1.2500000e+01 
7.5000000e-01 3.0250001e+00 1.3000000e+01 
7.5000000e-01 3.0250001e+00 1.3500000e+01 
7.5000000e-01 3.0250001e+00 1.4000000e+01 
7.5000000e-01 3.0250001e+00 1.4500000e+01 
7.5000000e-01 3.0250001e+00 1.5000000e+01 
7.5000000e-01 3.0250001e+00 1.5500000e+01 
7.5000000e-01 3.0250001e+00 1.6000000e+01 
7.5000000e-01 3.0250001e+00 1.6500000e+01 
7.5000000e-01 3.0250001e+00 1.7000000e+01 
7.5000000e-01 3.0250001e+00 1.7500000e+01 
7.5000000e-01 3.0250001e+00 1.8000000e+01 
7.5000000e-01 3.0250001e+00 1.8500000e+01 
7.5000000e-01 3.0250001e+00 1.9000000e+01 
7.5000000e-01 3.0250001e+00 1.9500000e+01 
7.5000000e-01 3.0250001e+00 2.0000000e+01 
7.5000000e-01 3.0250001e+00 2.0500000e+01 
7.5000000e-01 3.0250001e+00 2.1000000e+01 
7.5000000e-01 3.0250001e+00 2.1500000e+01 
7.5000000e-01 3.0250001e+00 2.2000000e+01 
7.5000000e-01 3.0250001e+00 2.2500000e+01 
7.5000000e-01 3.0250001e+00 2.3000000e+01 
7.5000000e-01 3.0250001e+00 2.3500000e+01 
7.5000000e-01 3.0250001e+00 2.4000000e+01 
7.5000000e-01 3.0250001e+00 2.4500000e+01 
7.5000000e-01 3.0250001e+00 2.5000000e+01 
7.5000000e-01 3.0250001e+00 2.5500000e+01 
7.5000000e-01 3.0250001e+00 2.6000000e+01 
7.5000000e-01 3.0250001e+00 2.6500000e+01 
7.5000000e-01 3.0250001e+00 2.7000000e+01 
7.5000000e-01 3.0250001e+00 2.7500000e+01 
7.5000000e-01 3.0250001e+00 2.8000000e+01 
7.5000000e-01 3.0250001e+00 2.8500000e+01 
7.5000000e-01 3.0250001e+00 2.9000000e+01 
7.5000000e-01 3.0250001e+00 2.9500000e+01 
7.5000000e-01 3.0250001e+00 3.0000000e+01 
7.5000000e-01 3.0250001e+00 3.0500000e+01 
7.5000000e-01 3.0250001e+00 3.1000000e+01 
7.5000000e-01 3.0250001e+00 3.1500000e+01 
7.5000000e-01 3.0250001e+00 3.2000000e+01 
7.5000000e-01 3.0250001e+00 3.2500000e+01 
7.5000000e-01 3.0250001e+00 3.3000000e+01 
7.5000000e-01 3.0250001e+00 3.3500000e+01 
7.5000000e-01 3.0250001e+00 3.4000000e+01 
7.5000000e-01 3.0250001e+00 3.4500000e+01 
7.5000000e-01 3.0250001e+00 3.5000000e+01 
7.5000000e-01 3.0250001e+00 3.5500000e+01 
7.5000000e-01 3.0250001e+00 3.6000000e+01 
7.5000000e-01 3.0250001e+00 3.6500000e+01 
7.5000000e-01 3.0250001e+00 3.7000000e+01 
7.5000000e-01 3.0250001e+00 3.7500000e+01 
7.5000000e-01 3.0250001e+00 3.8000000e+01 
7.5000000e-01 3.0250001e+00 3.8500000e+01 
7.5000000e-01 3.0250001e+00 3.9000000e+01 
7.5000000e-01 3.0250001e+00 3.9500000e+01 
7.5000000e-01 3.0250001e+00 4.0000000e+01 
7.5000000e-01 3.0250001e+00 4.0500000e+01 
7.5000000e-01 3.0250001e+00 4.1000000e+01 
7.5000000e-01 3.0250001e+00 4.1500000e+01 
7.5000000e-01 3.0250001e+00 4.2000000e+01 
7.5000000e-01 3.0250001e+00 4.2500000e+01 
7.5000000e-01 3.0250001e+00 4.3000000e+01 
7.5000000e-01 3.0250001e+00 4.3500000e+01 
7.5000000e-01 3.0250001e+00 4.4000000e+01 
7.5000000e-01 3.0250001e+00 4.4500000e+01 
7.5000000e-01 3.0250001e+00 4.5000000e+01 
7.5000000e-01 3.0250001e+00 4.5500000e+01 
7.5000000e-01 3.0250001e+00 4.6000000e+01 
7.5000000e-01 3.0250001e+00 4.6500000e+01 
7.5000000e-01 3.0250001e+00 4.7000000e+01 
7.5000000e-01 3.0250001e+00 4.7500000e+01 
7.5000000e-01 3.0250001e+00 4.8000000e+01 
7.5000000e-01 3.0250001e+00 4.8500000e+01 
7.5000000e-01 3.0250001e+00 4.9000000e+01 
7.5000000e-01 3.0250001e+00 4.9500000e+01 
7.5000000e-01 3.0250001e+00 5.0000000e+01 
1.5000000e+00 3.0000000e+00 2.5000000e+01 
3.0000000e+00 2.0000000e+00 2.5000000e+01 
4.0000000e+00 2.0000000e+00 2.5000000e+01 
5.0000000e+00 2.0000000e+00 2.5000000e+01 
0.0000000e+00 3.0000000e+00 2.5000000e+01 
0.0000000e+00 0.0000000e+00 1.0000000e+00 
0.0000000e+00 0.0000000e+00 2.0000000e+00 
0.0000000e+00 0.0000000e+00 3.0000000e+00 
0.0000000e+00 0.0000000e+00 4.0000000e+00 
0.0000000e+00 0.0000000e+00 5.0000000e+00 
[...]
POINT_DATA 1919
FIELD FieldData 3
DISPLACEMENT 3 1919  float
0.0000000e+00 0.0000000e+00 0.0000000e+00 
0.0000000e+00 0.0000000e+00 0.0000000e+00 
0.0000000e+00 0.0000000e+00 0.0000000e+00 
0.0000000e+00 0.0000000e+00 0.0000000e+00 
-4.6821797e-06 5.1397801e-06 7.8516814e-06 
-8.7509008e-08 1.8469625e-07 -1.4157848e-07 
0.0000000e+00 -1.0266325e-05 0.0000000e+00 
0.0000000e+00 2.6461697e-07 0.0000000e+00 
5.4161051e-06 7.6065085e-06 -2.6441992e-06 
-4.4663395e-08 -1.1607818e-07 6.0227151e-08 
1.4510473e-05 2.4318595e-05 -1.3889277e-05 
6.0690515e-09 -5.0243838e-08 -1.5405210e-07 
0.0000000e+00 -1.0923176e-05 0.0000000e+00 
0.0000000e+00 4.4271169e-07 0.0000000e+00 
1.6997485e-05 2.0730424e-05 -2.6489915e-06 
-5.2293274e-07 1.3811447e-07 -3.2926854e-07 
-2.3626542e-05 6.1748724e-05 -2.1679598e-05 
4.9388650e-08 1.5300041e-06 2.1293951e-07 
0.0000000e+00 -9.1702379e-05 0.0000000e+00 
0.0000000e+00 -1.8832000e-07 0.0000000e+00 
-1.9910487e-05 5.9526668e-05 -2.8471206e-05 
-3.7032511e-05 5.9528073e-05 -7.6191158e-05 
-4.4274482e-05 6.7985035e-05 -1.0130502e-04 
-4.1901618e-05 8.3021492e-05 -1.3426207e-04 
-2.5637783e-05 9.5015668e-05 -1.5687212e-04 
-1.0891048e-05 8.9773079e-05 -1.2173884e-04 
-7.5403923e-06 7.9095276e-05 -1.1397152e-04 
-7.9329147e-06 9.9870667e-05 -9.7719610e-05 
1.4165647e-05 1.5042210e-04 -7.7907440e-05 
-3.4264626e-06 1.8073458e-04 -3.4394947e-05 
2.6750213e-05 1.2030658e-04 -3.6273725e-06 
8.7131484e-06 -8.9853391e-05 6.5590830e-05 
-1.4406239e-05 -4.7184675e-04 1.5732231e-04 
-6.7752138e-05 -1.0273028e-03 1.2406491e-04 
-1.0314377e-04 -1.8238625e-03 2.9465987e-04 
-1.9794861e-04 -2.9143784e-03 1.6889194e-04 
-2.6924978e-04 -4.1969973e-03 2.9339085e-04 
-2.8756110e-04 -5.0489055e-03 2.1946557e-04 
-3.2267804e-04 -4.8140609e-03 1.9970906e-04 
-3.2267816e-04 -4.2358977e-03 1.8787853e-04 
-3.4931739e-04 -4.0530912e-03 1.9254183e-04 
-3.9632345e-04 -4.3219756e-03 1.7760715e-06 
-3.5108055e-04 -4.4539287e-03 -1.4717197e-04 
-2.7751960e-04 -3.5115599e-03 -1.4776520e-04 
-1.5691663e-04 -2.1686081e-03 -3.2229113e-04 
-7.1006318e-05 -1.0012802e-03 -1.4723203e-04 
-4.9760019e-05 -2.6635797e-04 -1.7195984e-04 
-2.7603359e-05 7.7315759e-05 -1.3129081e-04 
-3.5042888e-06 1.7800670e-04 -1.5786020e-04 
1.2037071e-05 1.6821083e-04 -1.6001554e-04 
5.9908201e-05 1.2482837e-04 -9.5588912e-05 
6.2461870e-05 7.3231095e-05 -2.2384653e-05 
4.1858959e-05 2.3535924e-05 6.2841005e-05 
1.6467626e-05 -8.8483112e-06 9.0752204e-05 
6.1043384e-06 -1.8499280e-05 9.6170392e-05 
-1.6267972e-05 -1.5128613e-05 6.3894062e-05 
-2.3499109e-05 -5.7002453e-06 3.1099949e-05 
-1.1534783e-05 1.1480856e-05 -3.7421553e-06 
-1.2074580e-05 3.4150558e-05 -1.5053203e-05 
-2.0397647e-05 4.6284207e-05 -1.9957051e-05 
-2.9657833e-05 3.8036178e-05 -4.4507407e-05 
-4.6016943e-05 2.2844448e-05 -6.6426204e-05 
-5.1231113e-05 2.5222334e-05 -1.0119689e-04 
-1.3261370e-05 6.0810209e-05 -1.1273157e-04 
-2.9448636e-05 1.1143430e-04 -1.2354027e-04 
-2.8973998e-05 1.3429057e-04 -1.1767584e-04 
5.0924878e-05 1.1116060e-04 -1.0348138e-04 
1.8751831e-05 8.9983492e-05 -1.0795502e-04 
7.3962634e-05 1.1825646e-04 -4.7643818e-05 
-9.6357689e-06 1.8342889e-04 -2.5617855e-05 
5.9301568e-05 1.9913660e-04 1.9901019e-05 
1.5766716e-05 2.3280943e-05 7.3465526e-05 
7.9594001e-06 -4.2896997e-04 1.6307307e-04 
-5.8008703e-05 -1.1424030e-03 1.5168390e-04 
-1.3437364e-04 -2.0958793e-03 3.3503139e-04 
-2.2393325e-04 -3.2243633e-03 1.7000755e-04 
-2.8781273e-04 -4.3757623e-03 2.9646911e-04 
-3.6216641e-04 -5.0117229e-03 2.0380421e-04 
-3.7079692e-04 -4.7523840e-03 1.1592884e-04 
-3.5252236e-04 -4.2955438e-03 1.5511675e-04 
-3.6187499e-04 -4.2462917e-03 1.4607496e-04 
-3.8053960e-04 -4.4566421e-03 -6.0006996e-06 
-3.3000219e-04 -4.3307096e-03 -1.8763375e-04 
-2.6576364e-04 -3.2211777e-03 -1.7831754e-04 
-1.5182533e-04 -1.8837202e-03 -3.2266972e-04 
-7.0879796e-05 -8.2724734e-04 -1.5315427e-04 
-4.7420068e-05 -2.0231039e-04 -1.8572579e-04 
-1.9422385e-05 9.4359108e-05 -1.2733170e-04 
2.1347863e-05 1.9477926e-04 -1.5330772e-04 
2.6128955e-05 1.8809606e-04 -1.3664838e-04 
6.2370425e-05 1.3054755e-04 -5.8973703e-05 
5.1637973e-05 6.4183747e-05 -5.3096082e-06 
1.4867140e-05 1.7864226e-05 5.6254696e-05 
-7.5544726e-06 -2.2354666e-06 6.5636814e-05 
-2.6989968e-05 -6.9555736e-06 5.0210750e-05 
-2.1009731e-05 -5.4632387e-06 1.9829356e-05 
-1.1201944e-05 2.9300153e-07 4.1623980e-06 
-5.5396913e-06 8.3582790e-06 -1.2658062e-05 
2.9835132e-06 1.1827626e-05 -1.0419983e-05 
4.7868198e-06 5.7482307e-06 -5.2316077e-06 
2.5251156e-06 -6.9400462e-06 -3.2423959e-06 
8.5888240e-07 -1.4780348e-05 1.7768130e-06 
1.5939777e-08 -1.0626773e-05 1.9370184e-06 
1.4243473e-07 2.9799222e-07 1.4964592e-06 
-4.5692832e-07 8.3030291e-06 1.8319173e-06 
-6.4224264e-07 8.3100331e-06 -2.0728355e-07 
-5.2661329e-07 2.5135889e-06 -1.3806585e-06 
7.7825604e-08 -3.0276919e-06 3.2472659e-07 
3.4513320e-07 -4.5619463e-06 -8.1543112e-07 
3.2689266e-07 -2.5850497e-06 1.9821299e-07 
1.2875464e-07 4.5668534e-07 1.0917387e-06 
-2.3905915e-07 2.3186792e-06 -3.7341076e-07 
-8.9430891e-08 2.1707510e-06 3.9082774e-08 
5.5181943e-08 6.6893585e-07 3.9110836e-07 
1.4955766e-07 -1.0855767e-06 -6.7090070e-07 
4.9462283e-09 -2.1389278e-06 2.6348516e-07 
2.6420616e-07 -1.9333854e-06 -5.5986920e-08 
-2.9785906e-07 -6.4841748e-07 5.6539136e-08 
9.8295246e-08 8.3906150e-07 -1.4913002e-07 
0.0000000e+00 6.1173683e-05 0.0000000e+00 
0.0000000e+00 5.9529597e-05 0.0000000e+00 
0.0000000e+00 6.0117378e-05 0.0000000e+00 
0.0000000e+00 6.8617359e-05 0.0000000e+00 
0.0000000e+00 8.3353145e-05 0.0000000e+00 
0.0000000e+00 9.3921488e-05 0.0000000e+00 
0.0000000e+00 8.8374734e-05 0.0000000e+00 
0.0000000e+00 7.9945588e-05 0.0000000e+00 
0.0000000e+00 1.0154724e-04 0.0000000e+00 
0.0000000e+00 1.5184667e-04 0.0000000e+00 
0.0000000e+00 1.8098269e-04 0.0000000e+00 
0.0000000e+00 1.1856590e-04 0.0000000e+00 
0.0000000e+00 -9.1715090e-05 0.0000000e+00 
0.0000000e+00 -4.7007116e-04 0.0000000e+00 
0.0000000e+00 -1.0275760e-03 0.0000000e+00 
0.0000000e+00 -1.8282342e-03 0.0000000e+00 
0.0000000e+00 -2.9326219e-03 0.0000000e+00 
0.0000000e+00 -4.2189355e-03 0.0000000e+00 
0.0000000e+00 -5.0819539e-03 0.0000000e+00 
0.0000000e+00 -4.8356229e-03 0.0000000e+00 
0.0000000e+00 -4.2604525e-03 0.0000000e+00 
0.0000000e+00 -4.0747421e-03 0.0000000e+00 
0.0000000e+00 -4.3542474e-03 0.0000000e+00 
0.0000000e+00 -4.4769766e-03 0.0000000e+00 
0.0000000e+00 -3.5369864e-03 0.0000000e+00 
0.0000000e+00 -2.1801118e-03 0.0000000e+00 
0.0000000e+00 -1.0113759e-03 0.0000000e+00 
0.0000000e+00 -2.6913488e-04 0.0000000e+00 
0.0000000e+00 7.8835081e-05 0.0000000e+00 
0.0000000e+00 1.8002521e-04 0.0000000e+00 
0.0000000e+00 1.6964847e-04 0.0000000e+00 
0.0000000e+00 1.2522218e-04 0.0000000e+00 
0.0000000e+00 7.3246687e-05 0.0000000e+00 
0.0000000e+00 2.4122563e-05 0.0000000e+00 
0.0000000e+00 -8.3803770e-06 0.0000000e+00 
0.0000000e+00 -1.8863546e-05 0.0000000e+00 
0.0000000e+00 -1.5540065e-05 0.0000000e+00 
0.0000000e+00 -5.4923880e-06 0.0000000e+00 
0.0000000e+00 1.2137368e-05 0.0000000e+00 
0.0000000e+00 3.4142671e-05 0.0000000e+00 
0.0000000e+00 4.5527067e-05 0.0000000e+00 
0.0000000e+00 3.7436017e-05 0.0000000e+00 
0.0000000e+00 2.2867673e-05 0.0000000e+00 
0.0000000e+00 2.6375234e-05 0.0000000e+00 
0.0000000e+00 6.1896484e-05 0.0000000e+00 
0.0000000e+00 1.1089364e-04 0.0000000e+00 
0.0000000e+00 1.3196238e-04 0.0000000e+00 
0.0000000e+00 1.1071379e-04 0.0000000e+00 
0.0000000e+00 9.1324982e-05 0.0000000e+00 
0.0000000e+00 1.2057168e-04 0.0000000e+00 
0.0000000e+00 1.8633477e-04 0.0000000e+00 
0.0000000e+00 1.9790725e-04 0.0000000e+00 
0.0000000e+00 1.9566291e-05 0.0000000e+00 
0.0000000e+00 -4.3026451e-04 0.0000000e+00 
0.0000000e+00 -1.1451332e-03 0.0000000e+00 
0.0000000e+00 -2.0984681e-03 0.0000000e+00 
0.0000000e+00 -3.2402559e-03 0.0000000e+00 
0.0000000e+00 -4.3980582e-03 0.0000000e+00 
0.0000000e+00 -5.0492212e-03 0.0000000e+00 
0.0000000e+00 -4.7741272e-03 0.0000000e+00 
0.0000000e+00 -4.3227198e-03 0.0000000e+00 
0.0000000e+00 -4.2634401e-03 0.0000000e+00 
0.0000000e+00 -4.4862437e-03 0.0000000e+00 
0.0000000e+00 -4.3543717e-03 0.0000000e+00 
0.0000000e+00 -3.2487612e-03 0.0000000e+00 
0.0000000e+00 -1.8956097e-03 0.0000000e+00 
0.0000000e+00 -8.3491998e-04 0.0000000e+00 
0.0000000e+00 -2.0236699e-04 0.0000000e+00 
0.0000000e+00 9.5968884e-05 0.0000000e+00 
0.0000000e+00 1.9571534e-04 0.0000000e+00 
0.0000000e+00 1.8878350e-04 0.0000000e+00 
0.0000000e+00 1.3131263e-04 0.0000000e+00 
0.0000000e+00 6.4962129e-05 0.0000000e+00 
0.0000000e+00 1.8213015e-05 0.0000000e+00 
0.0000000e+00 -2.4301496e-06 0.0000000e+00 
0.0000000e+00 -7.1355043e-06 0.0000000e+00 
0.0000000e+00 -5.3392123e-06 0.0000000e+00 
0.0000000e+00 4.4804304e-07 0.0000000e+00 
0.0000000e+00 8.1293128e-06 0.0000000e+00 
0.0000000e+00 1.1532627e-05 0.0000000e+00 
0.0000000e+00 5.5855594e-06 0.0000000e+00 
0.0000000e+00 -6.6846137e-06 0.0000000e+00 
0.0000000e+00 -1.4365567e-05 0.0000000e+00 
0.0000000e+00 -1.0593616e-05 0.0000000e+00 
0.0000000e+00 4.6369536e-08 0.0000000e+00 
0.0000000e+00 8.0837890e-06 0.0000000e+00 
0.0000000e+00 8.2612496e-06 0.0000000e+00 
0.0000000e+00 2.6364066e-06 0.0000000e+00 
0.0000000e+00 -2.8982033e-06 0.0000000e+00 
0.0000000e+00 -4.5322340e-06 0.0000000e+00 
0.0000000e+00 -2.6067698e-06 0.0000000e+00 
0.0000000e+00 4.0795359e-07 0.0000000e+00 
0.0000000e+00 2.2611403e-06 0.0000000e+00 
0.0000000e+00 2.1630078e-06 0.0000000e+00 
0.0000000e+00 7.0191709e-07 0.0000000e+00 
0.0000000e+00 -1.0570160e-06 0.0000000e+00 
0.0000000e+00 -2.1278220e-06 0.0000000e+00 
0.0000000e+00 -1.9426025e-06 0.0000000e+00 
0.0000000e+00 -6.6930244e-07 0.0000000e+00 
0.0000000e+00 8.3847630e-07 0.0000000e+00 
0.0000000e+00 1.5329708e-06 0.0000000e+00 
3.9604303e-05 -2.3438461e-05 3.3870558e-05 
-1.7791654e-05 -1.2304030e-04 7.8998000e-06 
5.6878507e-05 -3.5869540e-05 -1.4303492e-05 
8.0451420e-05 -2.5231846e-05 -1.7877570e-05 
0.0000000e+00 4.5025963e-04 0.0000000e+00 
0.0000000e+00 0.0000000e+00 0.0000000e+00 
0.0000000e+00 0.0000000e+00 0.0000000e+00 
0.0000000e+00 0.0000000e+00 0.0000000e+00 
0.0000000e+00 0.0000000e+00 0.0000000e+00 
0.0000000e+00 0.0000000e+00 0.0000000e+00 
0.0000000e+00 0.0000000e+00 0.0000000e+00 
0.0000000e+00 0.0000000e+00 0.0000000e+00 
0.0000000e+00 0.0000000e+00 0.0000000e+00 
0.0000000e+00 0.0000000e+00 0.0000000e+00 
0.0000000e+00 0.0000000e+00 0.0000000e+00 
0.0000000e+00 0.0000000e+00 0.0000000e+00 
0.0000000e+00 0.0000000e+00 0.0000000e+00 
0.0000000e+00 0.0000000e+00 0.0000000e+00 
0.0000000e+00 0.0000000e+00 0.0000000e+00 
0.0000000e+00 0.0000000e+00 0.0000000e+00 
0.0000000e+00 0.0000000e+00 0.0000000e+00 
0.0000000e+00 0.0000000e+00 0.0000000e+00 
0.0000000e+00 0.0000000e+00 0.0000000e+00 
0.0000000e+00 0.0000000e+00 0.0000000e+00 
0.0000000e+00 0.0000000e+00 0.0000000e+00 
0.0000000e+00 0.0000000e+00 0.0000000e+00 
0.0000000e+00 0.0000000e+00 0.0000000e+00 
0.0000000e+00 0.0000000e+00 0.0000000e+00 
0.0000000e+00 0.0000000e+00 0.0000000e+00 
0.0000000e+00 0.0000000e+00 0.0000000e+00 
0.0000000e+00 0.0000000e+00 0.0000000e+00 
0.0000000e+00 0.0000000e+00 0.0000000e+00 
0.0000000e+00 0.0000000e+00 0.0000000e+00 
0.0000000e+00 0.0000000e+00 0.0000000e+00 
0.0000000e+00 0.0000000e+00 0.0000000e+00 
0.0000000e+00 0.0000000e+00 0.0000000e+00 
0.0000000e+00 0.0000000e+00 0.0000000e+00 
0.0000000e+00 0.0000000e+00 0.0000000e+00 
0.0000000e+00 0.0000000e+00 0.0000000e+00 
0.0000000e+00 0.0000000e+00 0.0000000e+00 
0.0000000e+00 0.0000000e+00 0.0000000e+00 
0.0000000e+00 0.0000000e+00 0.0000000e+00 
0.0000000e+00 0.0000000e+00 0.0000000e+00 
0.0000000e+00 0.0000000e+00 0.0000000e+00 
0.0000000e+00 0.0000000e+00 0.0000000e+00 
0.0000000e+00 0.0000000e+00 0.0000000e+00 
0.0000000e+00 0.0000000e+00 0.0000000e+00 
0.0000000e+00 0.0000000e+00 0.0000000e+00 
0.0000000e+00 0.0000000e+00 0.0000000e+00 
0.0000000e+00 0.0000000e+00 0.0000000e+00 
0.0000000e+00 0.0000000e+00 0.0000000e+00 
0.0000000e+00 0.0000000e+00 0.0000000e+00 
0.0000000e+00 0.0000000e+00 0.0000000e+00 
0.0000000e+00 0.0000000e+00 0.0000000e+00 
0.0000000e+00 0.0000000e+00 0.0000000e+00 
0.0000000e+00 0.0000000e+00 0.0000000e+00 
0.0000000e+00 0.0000000e+00 0.0000000e+00 
0.0000000e+00 0.0000000e+00 0.0000000e+00 
0.0000000e+00 0.0000000e+00 0.0000000e+00 
0.0000000e+00 0.0000000e+00 0.0000000e+00 
0.0000000e+00 0.0000000e+00 0.0000000e+00 
0.0000000e+00 0.0000000e+00 0.0000000e+00 
0.0000000e+00 0.0000000e+00 0.0000000e+00 
0.0000000e+00 0.0000000e+00 0.0000000e+00 
0.0000000e+00 0.0000000e+00 0.0000000e+00 
0.0000000e+00 0.0000000e+00 0.0000000e+00 
0.0000000e+00 0.0000000e+00 0.0000000e+00 
0.0000000e+00 0.0000000e+00 0.0000000e+00 
0.0000000e+00 0.0000000e+00 0.0000000e+00 
0.0000000e+00 0.0000000e+00 0.0000000e+00 
0.0000000e+00 0.0000000e+00 0.0000000e+00 
0.0000000e+00 0.0000000e+00 0.0000000e+00 
0.0000000e+00 0.0000000e+00 0.0000000e+00 
0.0000000e+00 0.0000000e+00 0.0000000e+00 
0.0000000e+00 0.0000000e+00 0.0000000e+00 
0.0000000e+00 0.0000000e+00 0.0000000e+00 
0.0000000e+00 0.0000000e+00 0.0000000e+00 
0.0000000e+00 0.0000000e+00 0.0000000e+00 
0.0000000e+00 0.0000000e+00 0.0000000e+00 
0.0000000e+00 0.0000000e+00 0.0000000e+00 
0.0000000e+00 0.0000000e+00 0.0000000e+00 
0.0000000e+00 0.0000000e+00 0.0000000e+00 
0.0000000e+00 0.0000000e+00 0.0000000e+00 
0.0000000e+00 0.0000000e+00 0.0000000e+00 
0.0000000e+00 0.0000000e+00 0.0000000e+00 
0.0000000e+00 0.0000000e+00 0.0000000e+00 
0.0000000e+00 0.0000000e+00 0.0000000e+00 
0.0000000e+00 0.0000000e+00 0.0000000e+00 
0.0000000e+00 0.0000000e+00 0.0000000e+00 
0.0000000e+00 0.0000000e+00 0.0000000e+00 
0.0000000e+00 0.0000000e+00 0.0000000e+00 
0.0000000e+00 0.0000000e+00 0.0000000e+00 
0.0000000e+00 0.0000000e+00 0.0000000e+00 
0.0000000e+00 0.0000000e+00 0.0000000e+00 
0.0000000e+00 0.0000000e+00 0.0000000e+00 
0.0000000e+00 0.0000000e+00 0.0000000e+00 
0.0000000e+00 0.0000000e+00 0.0000000e+00 
0.0000000e+00 0.0000000e+00 0.0000000e+00 
0.0000000e+00 0.0000000e+00 0.0000000e+00 
0.0000000e+00 0.0000000e+00 0.0000000e+00 
0.0000000e+00 0.0000000e+00 0.0000000e+00 
0.0000000e+00 0.0000000e+00 0.0000000e+00 
0.0000000e+00 0.0000000e+00 0.0000000e+00 
0.0000000e+00 0.0000000e+00 0.0000000e+00 
0.0000000e+00 0.0000000e+00 0.0000000e+00 
0.0000000e+00 0.0000000e+00 0.0000000e+00 
0.0000000e+00 0.0000000e+00 0.0000000e+00 
0.0000000e+00 0.0000000e+00 0.0000000e+00 
0.0000000e+00 0.0000000e+00 0.0000000e+00 
0.0000000e+00 0.0000000e+00 0.0000000e+00 
0.0000000e+00 0.0000000e+00 0.0000000e+00 
7.6715023e-06 1.0239054e-05 -8.3538052e-06 
1.5281366e-05 1.5706944e-06 -1.7444097e-05 
2.1814531e-05 -1.8115178e-06 -2.4761521e-05 
2.5868723e-05 -9.7801885e-06 -2.5818121e-05 
3.0580057e-05 -2.8800567e-05 -2.0357716e-05 
4.3596247e-05 -1.7508226e-05 -1.8105349e-05 
5.8472731e-05 -2.6648611e-05 -6.0949369e-06 
6.1004881e-05 -3.4499481e-05 6.9143957e-06 
6.7605462e-05 -1.0012619e-05 2.0009804e-05 
6.9314381e-05 5.8214182e-06 2.8066495e-05 
5.6064036e-05 2.1926874e-06 2.2195783e-05 
3.7895712e-05 -2.6681648e-06 7.2456273e-06 
1.4532292e-05 -4.1254320e-06 -9.1388483e-06 
5.1050215e-06 2.3510202e-06 -1.8647894e-05 
-7.6229508e-06 2.0737637e-06 -1.8131504e-05 
-1.1305113e-05 -1.7422145e-06 -2.5932973e-06 
-8.3569257e-06 -1.8065925e-06 1.6703481e-05 
-1.8600787e-06 1.2263932e-05 2.3332805e-05 
6.6056549e-07 3.0880017e-06 2.0491352e-05 
1.5235959e-06 -4.6091263e-06 1.0522715e-05 
8.5786696e-06 2.4719943e-06 -5.8803498e-06 
1.7248647e-05 2.7354483e-06 -2.3804389e-05 
2.6341735e-05 7.1477029e-06 -2.7097743e-05 
4.1263746e-05 -6.5951526e-06 -2.4355804e-05 
5.2018080e-05 -2.5306104e-05 -2.3094983e-05 
6.4436463e-05 -1.5695308e-05 -1.1651231e-05 
6.5430715e-05 -1.4215802e-05 2.1826979e-06 
7.0455062e-05 -2.2515263e-05 1.4522195e-05 
7.4425378e-05 -1.5408992e-05 2.2773527e-05 
6.8240828e-05 2.1398114e-07 2.5760597e-05 
4.9449562e-05 3.8870712e-06 1.9179310e-05 
2.8374798e-05 -7.8347057e-06 1.0745930e-05 
1.1167903e-05 -1.8062810e-06 -6.4348178e-06 
9.8349051e-07 3.0292451e-06 -1.9653306e-05 
-7.5450976e-06 1.4207465e-07 -2.0238233e-05 
-8.6874097e-06 -1.4221819e-06 -9.0573540e-06 
-6.6955840e-07 3.3497840e-06 -2.4484896e-06 
3.1694283e-06 3.6814233e-06 5.9488093e-06 
6.3789963e-07 -1.6444413e-06 8.6281088e-06 
-5.9567162e-07 -4.7828262e-06 5.7625821e-06 
1.0498992e-06 -8.8894262e-07 1.3063143e-07 
1.0137130e-06 1.3926480e-06 -1.5039684e-07 
-8.9370792e-07 1.7445390e-06 -5.0699219e-07 
-3.5169060e-07 -1.1316279e-06 -1.8612415e-07 
5.3291427e-07 -6.2533451e-07 2.9180066e-07 
2.0469496e-07 2.2146884e-07 -2.7185692e-07 
-4.7525202e-08 2.9410785e-07 -4.3756049e-07 
-2.1591886e-08 -9.0813366e-08 -4.8608957e-08 
1.0797230e-07 -8.0220161e-08 1.5311304e-07 
0.0000000e+00 4.9445549e-05 0.0000000e+00 
0.0000000e+00 1.1279684e-04 0.0000000e+00 
0.0000000e+00 1.4141496e-04 0.0000000e+00 
0.0000000e+00 2.0133154e-04 0.0000000e+00 
0.0000000e+00 1.7616285e-04 0.0000000e+00 
0.0000000e+00 8.9681598e-05 0.0000000e+00 
0.0000000e+00 2.2457280e-05 0.0000000e+00 
0.0000000e+00 -1.8286527e-04 0.0000000e+00 
0.0000000e+00 -3.2704871e-04 0.0000000e+00 
0.0000000e+00 -3.7994995e-04 0.0000000e+00 
0.0000000e+00 -4.0149764e-04 0.0000000e+00 
0.0000000e+00 -3.5129057e-04 0.0000000e+00 
0.0000000e+00 -1.8401990e-04 0.0000000e+00 
0.0000000e+00 -5.4442047e-05 0.0000000e+00 
0.0000000e+00 -1.0774742e-05 0.0000000e+00 
0.0000000e+00 3.9940573e-05 0.0000000e+00 
0.0000000e+00 3.6396130e-05 0.0000000e+00 
0.0000000e+00 -3.6204503e-05 0.0000000e+00 
0.0000000e+00 -2.4860234e-05 0.0000000e+00 
0.0000000e+00 -3.7822660e-06 0.0000000e+00 
0.0000000e+00 6.2648338e-05 0.0000000e+00 
0.0000000e+00 8.9934969e-05 0.0000000e+00 
0.0000000e+00 1.2236618e-04 0.0000000e+00 
0.0000000e+00 1.5566009e-04 0.0000000e+00 
0.0000000e+00 1.5208399e-04 0.0000000e+00 
0.0000000e+00 8.7170476e-05 0.0000000e+00 
0.0000000e+00 -4.2434618e-05 0.0000000e+00 
0.0000000e+00 -1.7843467e-04 0.0000000e+00 
0.0000000e+00 -3.3401081e-04 0.0000000e+00 
0.0000000e+00 -3.3304701e-04 0.0000000e+00 
0.0000000e+00 -4.0205795e-04 0.0000000e+00 
0.0000000e+00 -3.0357396e-04 0.0000000e+00 
0.0000000e+00 -1.7514959e-04 0.0000000e+00 
0.0000000e+00 -5.3300373e-05 0.0000000e+00 
0.0000000e+00 -1.9316751e-05 0.0000000e+00 
0.0000000e+00 3.2654145e-05 0.0000000e+00 
0.0000000e+00 3.5783916e-05 0.0000000e+00 
0.0000000e+00 -6.0816201e-06 0.0000000e+00 
0.0000000e+00 -1.6398102e-05 0.0000000e+00 
0.0000000e+00 -1.0759628e-06 0.0000000e+00 
0.0000000e+00 7.8976591e-06 0.0000000e+00 
0.0000000e+00 -1.7032612e-06 0.0000000e+00 
0.0000000e+00 -5.0702124e-07 0.0000000e+00 
0.0000000e+00 1.2799065e-07 0.0000000e+00 
0.0000000e+00 -1.9692342e-07 0.0000000e+00 
0.0000000e+00 1.8109228e-08 0.0000000e+00 
0.0000000e+00 3.7123999e-07 0.0000000e+00 
0.0000000e+00 -6.6966879e-07 0.0000000e+00 
0.0000000e+00 -3.1185800e-07 0.0000000e+00 
2.8683378e-06 8.1103608e-06 -5.1597631e-06 
9.5516534e-06 1.2511730e-05 1.1799003e-06 
9.0158683e-06 1.5148938e-05 4.2328616e-06 
3.1194852e-06 -3.8022233e-06 -1.4757110e-06 
4.5210740e-08 1.5758753e-08 -8.3088672e-08 
9.5376734e-08 -2.9178929e-07 2.7333352e-08 
-7.5807208e-08 -1.2067777e-08 1.9206064e-07 
-1.5272914e-08 5.9970347e-08 6.7288319e-08 
1.5501930e-05 1.9840458e-05 -1.0640117e-05 
-1.0896714e-07 2.5927193e-07 -1.6945408e-07 
-6.3106536e-06 1.5012984e-05 -1.5161954e-06 
1.2756283e-05 2.1532376e-05 -1.1654639e-05 
0.0000000e+00 6.5106549e-05 0.0000000e+00 
0.0000000e+00 1.2544023e-04 0.0000000e+00 
0.0000000e+00 2.5175925e-04 0.0000000e+00 
0.0000000e+00 3.4134445e-04 0.0000000e+00 
0.0000000e+00 2.7674873e-04 0.0000000e+00 
0.0000000e+00 1.7645069e-04 0.0000000e+00 
0.0000000e+00 -2.7318438e-05 0.0000000e+00 
0.0000000e+00 -4.6364835e-04 0.0000000e+00 
0.0000000e+00 -7.2249188e-04 0.0000000e+00 
0.0000000e+00 -8.3003915e-04 0.0000000e+00 
0.0000000e+00 -9.0687122e-04 0.0000000e+00 
0.0000000e+00 -7.0589542e-04 0.0000000e+00 
0.0000000e+00 -2.5789719e-04 0.0000000e+00 
0.0000000e+00 -9.6667085e-05 0.0000000e+00 