# vtk DataFile Version 4.0
vtk output
ASCII
DATASET UNSTRUCTURED_GRID
POINTS 1919 float
0.0000000e+00 0.0000000e+00 0.0000000e+00 
0.0000000e+00 0.0000000e+00 5.0000000e+01 
5.0000000e+00 0.0000000e+00 0.0000000e+00 
5.0000000e+00 0.0000000e+00 5.0000000e+01 
5.0000000e+00 1.0000000e+00 0.0000000e+00 
5.0000000e+00 1.0000000e+00 5.0000000e+01 
0.0000000e+00 1.0000000e+00 0.0000000e+00 
0.0000000e+00 1.0000000e+00 5.0000000e+01 
5.0000000e+00 2.0000000e+00 0.0000000e+00 
5.0000000e+00 2.0000000e+00 5.0000000e+01 
3.0000000e+00 2.0000000e+00 0.0000000e+00 
3.0000000e+00 2.0000000e+00 5.0000000e+01 
0.0000000e+00 2.0000000e+00 0.0000000e+00 
0.0000000e+00 2.0000000e+00 5.0000000e+01 
1.5000000e+00 3.0000000e+00 0.0000000e+00 
1.5000000e+00 3.0000000e+00 5.0000000e+01 
7.5000000e-01 3.0000000e+00 0.0000000e+00 
7.5000000e-01 3.0000000e+00 5.0000000e+01 
0.0000000e+00 3.0000000e+00 0.0000000e+00 
0.0000000e+00 3.0000000e+00 5.0000000e+01 
7.5000000e-01 3.0000000e+00 5.0000000e-01 
7.5000000e-01 3.0000000e+00 1.0000000e+00 
7.5000000e-01 3.0000000e+00 1.5000000e+00 
7.5000000e-01 3.0000000e+00 2.0000000e+00 
7.5000000e-01 3.0000000e+00 2.5000000e+00 
7.5000000e-01 3.0000000e+00 3.0000000e+00 
7.5000000e-01 3.0000000e+00 3.5000000e+00 
7.5000000e-01 3.0000000e+00 4.0000000e+00 
7.5000000e-01 3.0000000e+00 4.5000000e+00 
7.5000000e-01 3.0000000e+00 5.0000000e+00 
7.5000000e-01 3.0000000e+00 5.5000000e+00 
7.5000000e-01 3.0000000e+00 6.0000000e+00 
7.5000000e-01 3.0000000e+00 6.5000000e+00 
7.5000000e-01 3.0000000e+00 7.0000000e+00 
7.5000000e-01 3.0000000e+00 7.5000000e+00 
7.5000000e-01 3.0000000e+00 8.0000000e+00 
7.5000000e-01 3.0000000e+00 8.5000000e+00 
7.5000000e-01 3.0000000e+00 9.0000000e+00 
7.5000000e-01 3.0000000e+00 9.5000000e+00 
7.5000000e-01 3.0000000e+00 1.0000000e+01 
7.5000000e-01 3.0000000e+00 1.0500000e+01 
7.5000000e-01 3.0000000e+00 1.1000000e+01 
7.5000000e-01 3.0000000e+00 1.1500000e+01 
7.5000000e-01 3.0000000e+00 1.2000000e+01 
7.5000000e-01 3.0000000e+00 1.2500000e+01 
7.5000000e-01 3.0000000e+00 1.3000000e+01 
7.5000000e-01 3.0000000e+00 1.3500000e+01 
7.5000000e-01 3.0000000e+00 1.4000000e+01 
7.5000000e-01 3.0000000e+00 1.4500000e+01 
7.5000000e-01 3.0000000e+00 1.5000000e+01 
7.5000000e-01 3.0000000e+00 1.5500000e+01 
7.5000000e-01 3.0000000e+00 1.6000000e+01 
7.5000000e-01 3.0000000e+00 1.6500000e+01 
7.5000000e-01 3.0000000e+00 1.7000000e+01 
7.5000000e-01 3.0000000e+00 1.7500000e+01 
7.5000000e-01 3.0000000e+00 1.8000000e+01 
7.5000000e-01 3.0000000e+00 1.8500000e+01 
7.5000000e-01 3.0000000e+00 1.9000000e+01 
7.5000000e-01 3.0000000e+00 1.9500000e+01 
7.5000000e-01 3.0000000e+00 2.0000000e+01 
7.5000000e-01 3.0000000e+00 2.0500000e+01 
7.5000000e-01 3.0000000e+00 2.1000000e+01 
7.5000000e-01 3.0000000e+00 2.1500000e+01 
7.5000000e-01 3.0000000e+00 2.2000000e+01 
7.5000000e-01 3.0000000e+00 2.2500000e+01 
7.5000000e-01 3.0000000e+00 2.3000000e+01 
7.5000000e-01 3.0000000e+00 2.3500000e+01 
7.5000000e-01 3.0000000e+00 2.4000000e+01 
7.5000000e-01 3.0000000e+00 2.4500000e+01 
7.5000000e-01 3.0000000e+00 2.5000000e+01 
7.5000000e-01 3.0000000e+00 2.5500000e+01 
7.5000000e-01 3.0000000e+00 2.6000000e+01 
7.5000000e-01 3.0000000e+00 2.6500000e+01 
7.5000000e-01 3.0000000e+00 2.7000000e+01 
7.5000000e-01 3.0000000e+00 2.7500000e+01 
7.5000000e-01 3.0000000e+00 2.8000000e+01 
7.5000000e-01 3.0000000e+00 2.8500000e+01 
7.5000000e-01 3.0000000e+00 2.9000000e+01 
7.5000000e-01 3.0000000e+00 2.9500000e+01 
7.5000000e-01 3.0000000e+00 3.0000000e+01 
7.5000000e-01 3.0000000e+00 3.0500000e+01 
7.5000000e-01 3.0000000e+00 3.1000000e+01 
7.5000000e-01 3.0000000e+00 3.1500000e+01 
7.5000000e-01 3.0000000e+00 3.2000000e+01 
7.5000000e-01 3.0000000e+00 3.2500000e+01 
7.5000000e-01 3.0000000e+00 3.3000000e+01 
7.5000000e-01 3.0000000e+00 3.3500000e+01 
7.5000000e-01 3.0000000e+00 3.4000000e+01 
7.5000000e-01 3.0000000e+00 3.4500000e+01 
7.5000000e-01 3.0000000e+00 3.5000000e+01 
7.5000000e-01 3.0000000e+00 3.5500000e+01 
7.5000000e-01 3.0000000e+00 3.6000000e+01 
7.5000000e-01 3.0000000e+00 3.6500000e+01 
7.5000000e-01 3.0000000e+00 3.7000000e+01 
7.5000000e-01 3.0000000e+00 3.7500000e+01 
7.5000000e-01 3.0000000e+00 3.8000000e+01 
7.5000000e-01 3.0000000e+00 3.8500000e+01 
7.5000000e-01 3.0000000e+00 3.9000000e+01 
7.5000000e-01 3.0000000e+00 3.9500000e+01 
7.5000000e-01 3.0000000e+00 4.0000000e+01 
7.5000000e-01 3.0000000e+00 4.0500000e+01 
7.5000000e-01 3.0000000e+00 4.1000000e+01 
7.5000000e-01 3.0000000e+00 4.1500000e+01 
7.5000000e-01 3.0000000e+00 4.2000000e+01 
7.5000000e-01 3.0000000e+00 4.2500000e+01 
7.5000000e-01 3.0000000e+00 4.3000000e+01 
7.5000000e-01 3.0000000e+00 4.3500000e+01 
7.5000000e-01 3.0000000e+00 4.4000000e+01 
7.5000000e-01 3.0000000e+00 4.4500000e+01 
7.5000000e-01 3.0000000e+00 4.5000000e+01 
7.5000000e-01 3.0000000e+00 4.5500000e+01 
7.5000000e-01 3.0000000e+00 4.6000000e+01 
7.5000000e-01 3.0000000e+00 4.6500000e+01 
7.5000000e-01 3.0000000e+00 4.7000000e+01 
7.5000000e-01 3.0000000e+00 4.7500000e+01 
7.5000000e-01 3.0000000e+00 4.8000000e+01 
7.5000000e-01 3.0000000e+00 4.8500000e+01 
7.5000000e-01 3.0000000e+00 4.9000000e+01 
7.5000000e-01 3.0000000e+00 4.9500000e+01 
7.5000000e-01 3.0250001e+00 0.0000000e+00 
7.5000000e-01 3.0250001e+00 5.0000000e-01 
7.5000000e-01 3.0250001e+00 1.0000000e+00 
7.5000000e-01 3.0250001e+00 1.5000000e+00 
7.5000000e-01 3.0250001e+00 2.0000000e+00 
7.5000000e-01 3.0250001e+00 2.5000000e+00 
7.5000000e-01 3.0250001e+00 3.0000000e+00 
7.5000000e-01 3.0250001e+00 3.5000000e+00 
7.5000000e-01 3.0250001e+00 4.0000000e+00 
7.5000000e-01 3.0250001e+00 4.5000000e+00 
7.5000000e-01 3.0250001e+00 5.0000000e+00 
7.5000000e-01 3.0250001e+00 5.5000000e+00 
7.5000000e-01 3.0250001e+00 6.0000000e+00 
7.5000000e-01 3.0250001e+00 6.5000000e+00 
7.5000000e-01 3.0250001e+00 7.0000000e+00 
7.5000000e-01 3.0250001e+00 7.5000000e+00 
7.5000000e-01 3.0250001e+00 8.0000000e+00 
7.5000000e-01 3.0250001e+00 8.5000000e+00 
7.5000000e-01 3.0250001e+00 9.0000000e+00 
7.5000000e-01 3.0250001e+00 9.5000000e+00 
7.5000000e-01 3.0250001e+00 1.0000000e+01 
7.5000000e-01 3.0250001e+00 1.0500000e+01 
7.5000000e-01 3.0250001e+00 1.1000000e+01 
7.5000000e-01 3.0250001e+00 1.1500000e+01 
7.5000000e-01 3.0250001e+00 1.2000000e+01 
7.5000000e-01 3.0250001e+00 1.2500000e+01 
7.5000000e-01 3.0250001e+00 1.3000000e+01 
7.5000000e-01 3.0250001e+00 1.3500000e+01 
7.5000000e-01 3.0250001e+00 1.4000000e+01 
7.5000000e-01 3.0250001e+00 1.4500000e+01 
7.5000000e-01 3.0250001e+00 1.5000000e+01 
7.5000000e-01 3.0250001e+00 1.5500000e+01 
7.5000000e-01 3.0250001e+00 1.6000000e+01 
7.5000000e-01 3.0250001e+00 1.6500000e+01 
7.5000000e-01 3.0250001e+00 1.7000000e+01 
7.5000000e-01 3.0250001e+00 1.7500000e+01 
7.5000000e-01 3.0250001e+00 1.8000000e+01 
7.5000000e-01 3.0250001e+00 1.8500000e+01 
7.5000000e-01 3.0250001e+00 1.9000000e+01 
7.5000000e-01 3.0250001e+00 1.9500000e+01 
7.5000000e-01 3.0250001e+00 2.0000000e+01 
7.5000000e-01 3.0250001e+00 2.0500000e+01 
7.5000000e-01 3.0250001e+00 2.1000000e+01 
7.5000000e-01 3.0250001e+00 2.1500000e+01 
7.5000000e-01 3.0250001e+00 2.2000000e+01 
7.5000000e-01 3.0250001e+00 2.2500000e+01 
7.5000000e-01 3.0250001e+00 2.3000000e+01 
7.5000000e-01 3.0250001e+00 2.3500000e+01 
7.5000000e-01 3.0250001e+00 2.4000000e+01 
7.5000000e-01 3.0250001e+00 2.4500000e+01 
7.5000000e-01 3.0250001e+00 2.5000000e+01 
7.5000000e-01 3.0250001e+00 2.5500000e+01 
7.5000000e-01 3.0250001e+00 2.6000000e+01 
7.5000000e-01 3.0250001e+00 2.6500000e+01 
7.5000000e-01 3.0250001e+00 2.7000000e+01 
7.5000000e-01 3.0250001e+00 2.7500000e+01 
7.5000000e-01 3.0250001e+00 2.8000000e+01 
7.5000000e-01 3.0250001e+00 2.8500000e+01 
7.5000000e-01 3.0250001e+00 2.9000000e+01 
7.5000000e-01 3.0250001e+00 2.9500000e+01 
7.5000000e-01 3.0250001e+00 3.0000000e+01 
7.5000000e-01 3.0250001e+00 3.0500000e+01 
7.5000000e-01 3.0250001e+00 3.1000000e+01 
7.5000000e-01 3.0250001e+00 3.1500000e+01 
7.5000000e-01 3.0250001e+00 3.2000000e+01 
7.5000000e-01 3.0250001e+00 3.2500000e+01 
7.5000000e-01 3.0250001e+00 3.3000000e+01 
7.5000000e-01 3.0250001e+00 3.3500000e+01 
7.5000000e-01 3.0250001e+00 3.4000000e+01 
7.5000000e-01 3.0250001e+00 3.4500000e+01 
7.5000000e-01 3.0250001e+00 3.5000000e+01 
7.5000000e-01 3.0250001e+00 3.5500000e+01 
7.5000000e-01 3.0250001e+00 3.6000000e+01 
7.5000000e-01 3.0250001e+00 3.6500000e+01 
7.5000000e-01 3.0250001e+00 3.7000000e+01 
7.5000000e-01 3.0250001e+00 3.7500000e+01 
7.5000000e-01 3.0250001e+00 3.8000000e+01 
7.5000000e-01 3.0250001e+00 3.8500000e+01 
7.5000000e-01 3.0250001e+00 3.9000000e+01 
7.5000000e-01 3.0250001e+00 3.9500000e+01 
7.5000000e-01 3.0250001e+00 4.0000000e+01 
7.5000000e-01 3.0250001e+00 4.0500000e+01 
7.5000000e-01 3.0250001e+00 4.1000000e+01 
7.5000000e-01 3.0250001e+00 4.1500000e+01 
7.5000000e-01 3.0250001e+00 4.2000000e+01 
7.5000000e-01 3.0250001e+00 4.2500000e+01 
7.5000000e-01 3.0250001e+00 4.3000000e+01 
7.5000000e-01 3.0250001e+00 4.3500000e+01 
7.5000000e-01 3.0250001e+00 4.4000000e+01 
7.5000000e-01 3.0250001e+00 4.4500000e+01 
7.5000000e-01 3.0250001e+00 4.5000000e+01 
7.5000000e-01 3.0250001e+00 4.5500000e+01 
7.5000000e-01 3.0250001e+00 4.6000000e+01 
7.5000000e-01 3.0250001e+00 4.6500000e+01 
7.5000000e-01 3.0250001e+00 4.7000000e+01 
7.5000000e-01 3.0250001e+00 4.7500000e+01 
7.5000000e-01 3.0250001e+00 4.8000000e+01 
7.5000000e-01 3.0250001e+00 4.8500000e+01 
7.5000000e-01 3.0250001e+00 4.9000000e+01 
7.5000000e-01 3.0250001e+00 4.9500000e+01 
7.5000000e-01 3.0250001e+00 5.0000000e+01 
1.5000000e+00 3.0000000e+00 2.5000000e+01 
3.0000000e+00 2.0000000e+00 2.5000000e+01 
4.0000000e+00 2.0000000e+00 2.5000000e+01 
5.0000000e+00 2.0000000e+00 2.5000000e+01 
0.0000000e+00 3.0000000e+00 2.5000000e+01 
0.0000000e+00 0.0000000e+00 1.0000000e+00 
0.0000000e+00 0.0000000e+00 2.0000000e+00 
0.0000000e+00 0.0000000e+00 3.0000000e+00 
0.0000000e+00 0.0000000e+00 4.0000000e+00 
0.0000000e+00 0.0000000e+00 5.0000000e+00 
[...]
POINT_DATA 1919
FIELD FieldData 3
DISPLACEMENT 3 1919  float
0.0000000e+00 0.0000000e+00 0.0000000e+00 
0.0000000e+00 0.0000000e+00 0.0000000e+00 
0.0000000e+00 0.0000000e+00 0.0000000e+00 
0.0000000e+00 0.0000000e+00 0.0000000e+00 
2.3479001e-06 -1.6159300e-06 -1.8909152e-06 
-2.3492363e-07 1.2428968e-07 -5.2804012e-07 
0.0000000e+00 1.1168576e-05 0.0000000e+00 
0.0000000e+00 -2.3971479e-06 0.0000000e+00 
4.9343798e-06 1.5454390e-07 -3.2500866e-06 
-1.6957168e-07 -1.8919728e-07 -5.0888832e-07 
5.2857813e-06 -4.7763933e-06 -9.8476148e-06 
-4.0072970e-07 -8.3967012e-07 1.3540604e-07 
0.0000000e+00 1.7956983e-05 0.0000000e+00 
0.0000000e+00 -3.8046605e-06 0.0000000e+00 
9.2650098e-06 -1.1366800e-05 -1.1122044e-05 
-1.0273872e-06 -6.5668874e-06 1.2060835e-06 
1.3397584e-05 -2.4413897e-05 -2.6899108e-06 
3.3127312e-06 -1.7368042e-06 -1.0103558e-05 
0.0000000e+00 1.5220135e-05 0.0000000e+00 
0.0000000e+00 -6.2648940e-07 0.0000000e+00 
6.1757905e-06 -2.0347583e-05 -2.8329512e-06 
2.4959381e-06 -1.2108332e-05 -1.1493542e-07 
3.0527001e-06 -5.0321078e-06 2.3614004e-06 
-9.5169952e-07 -1.1755394e-06 3.0248666e-06 
-1.3249651e-06 1.5923681e-06 -5.8749509e-07 
1.7992987e-06 6.7534374e-06 -6.8140826e-06 
2.7047702e-06 1.5488058e-05 -7.6062738e-06 
1.1555759e-06 2.5361582e-05 -4.4254657e-06 
-5.8955413e-07 3.1047624e-05 -3.1220416e-06 
-1.4468940e-06 2.9344252e-05 1.5005062e-07 
3.0859162e-06 2.4539748e-05 -5.6249082e-06 
-3.9281795e-06 2.3537528e-05 -1.7215534e-05 
-5.0583403e-06 2.9856119e-05 -2.3295725e-05 
6.2439640e-06 3.9937182e-05 -1.6571466e-05 
2.1874164e-05 4.1481944e-05 -6.4578271e-06 
1.1523331e-05 2.5137120e-05 -2.7581088e-06 
3.4818231e-06 1.7438189e-06 -4.4539770e-06 
2.5851780e-06 -5.9513850e-06 -7.3101955e-06 
2.8328222e-06 1.1837183e-05 3.1159811e-06 
1.3070610e-05 4.5430268e-05 9.8536420e-06 
2.4909765e-05 6.8509602e-05 3.2250686e-05 
1.7778540e-05 5.7865956e-05 5.8167938e-05 
6.8767881e-06 2.2793944e-05 7.8386045e-05 
8.0961445e-06 -1.1801061e-05 1.0311357e-04 
1.3847036e-06 -6.3234809e-05 1.4594386e-04 
-4.1485464e-06 -2.1833937e-04 1.5131957e-04 
-4.2624226e-05 -6.2170683e-04 2.4633406e-04 
-7.5166303e-05 -1.3926366e-03 2.1537252e-04 
-1.4573980e-04 -2.5120743e-03 2.9280101e-04 
-1.8353632e-04 -3.7477894e-03 1.0500471e-04 
-2.6080801e-04 -4.7232239e-03 1.8352602e-04 
-2.8428019e-04 -4.9203411e-03 3.4035933e-05 
-3.0630184e-04 -4.5909905e-03 -2.8131224e-05 
-5.3227338e-04 -4.4236244e-03 -4.6121444e-05 
-2.6539067e-04 -4.5715738e-03 -5.0524020e-05 
-2.4661981e-04 -4.6882927e-03 -1.4328843e-04 
-1.9731242e-04 -4.1132108e-03 -3.1444314e-04 
-1.4527241e-04 -2.8278865e-03 -2.2586672e-04 
-6.5148255e-05 -1.5469471e-03 -3.3864964e-04 
-3.8292324e-05 -6.1289954e-04 -2.0259223e-04 
2.0547817e-05 -5.8204751e-05 -1.7916833e-04 
3.4253200e-05 1.9946076e-04 -9.5694733e-05 
3.5207449e-05 2.5292957e-04 -4.6970334e-05 
2.8775048e-05 1.9915207e-04 -2.9298430e-05 
3.0809912e-05 1.2123277e-04 2.6738708e-06 
2.1842745e-05 6.4244639e-05 -1.8252933e-06 
8.2499773e-06 3.4411863e-05 1.3825314e-05 
4.3326958e-07 2.1721242e-05 2.2946653e-05 
8.7047229e-06 1.8028788e-05 2.6547612e-05 
7.5665293e-06 2.0242634e-05 2.7993206e-05 
-1.9610357e-06 2.5222722e-05 1.7126800e-05 
-5.3560429e-06 2.7856649e-05 9.2366672e-06 
-6.6995581e-06 2.8035340e-05 4.3894482e-07 
-5.6841745e-06 3.3397657e-05 -2.5815382e-06 
4.7296567e-06 4.6502428e-05 5.1741398e-07 
5.5864380e-06 5.3336295e-05 9.7197415e-07 
3.3964416e-06 4.1994510e-05 6.4970864e-06 
7.6061251e-06 1.8385021e-05 3.2199237e-06 
3.1499485e-06 1.0417510e-05 5.8793053e-06 
9.7768689e-06 4.3691976e-05 9.6317635e-06 
2.1688202e-05 9.6944350e-05 2.4377567e-05 
2.1602651e-05 1.1734733e-04 2.7016209e-05 
7.4006771e-06 7.7958815e-05 4.5769051e-05 
1.1784088e-05 -1.7111164e-05 7.5567892e-05 
-5.0908120e-06 -1.5866445e-04 1.2040322e-04 
-1.3457263e-05 -3.7160626e-04 1.3553115e-04 
-5.0253566e-05 -7.7315303e-04 2.4732336e-04 
-8.6364817e-05 -1.5288860e-03 1.8636535e-04 
-1.4361207e-04 -2.7019428e-03 2.8957872e-04 
-1.8410527e-04 -4.0455037e-03 1.2595631e-04 
-2.6549076e-04 -5.0038532e-03 1.5980797e-04 
-2.8575401e-04 -4.9160221e-03 2.4041950e-05 
-2.6778193e-04 -4.4382373e-03 -4.9018960e-05 
-3.1630584e-04 -4.3127933e-03 -1.0120470e-04 
-3.4274859e-04 -4.6801763e-03 -1.4527756e-04 
-6.2106474e-04 -4.8817722e-03 -2.1113992e-04 
-2.4122582e-04 -4.0558320e-03 -2.7515515e-04 
-1.3562673e-04 -2.6715517e-03 -1.9723608e-04 
-6.9494126e-05 -1.3846598e-03 -3.0401285e-04 
-3.9564162e-05 -4.6531673e-04 -1.7777027e-04 
1.1323377e-05 4.4088236e-05 -1.5575373e-04 
2.3078504e-05 2.2866431e-04 -8.1295795e-05 
2.9385432e-05 2.2266667e-04 -3.2852313e-05 
2.4400595e-05 1.4979638e-04 -8.4479861e-06 
1.8262546e-05 8.3487357e-05 1.6663718e-05 
1.5828491e-05 3.6484955e-05 1.6270560e-05 
7.3621886e-06 7.0851434e-07 2.2513268e-05 
5.5460719e-06 -2.2549564e-05 2.3666822e-05 
4.8944848e-06 -2.5992473e-05 2.2814342e-05 
-1.7672854e-06 -1.3982513e-05 2.3130080e-05 
-4.5152487e-06 -2.4394001e-07 2.2768132e-05 
-2.9021935e-06 5.7748675e-06 1.7753329e-05 
-1.0047087e-05 4.8877801e-06 5.3225353e-06 
-7.0682163e-06 3.0179335e-06 -2.7892820e-06 
2.0028197e-06 3.2328123e-06 -4.7188455e-06 
5.1159907e-07 3.4973214e-06 -8.5264924e-07 
7.2378145e-07 1.9475965e-06 5.8655942e-06 
-6.8231213e-07 -2.8818405e-07 6.0281177e-06 
-3.3853730e-06 -1.5541418e-06 4.6338354e-07 
0.0000000e+00 -2.4243438e-05 0.0000000e+00 
0.0000000e+00 -2.0345156e-05 0.0000000e+00 
0.0000000e+00 -1.2248578e-05 0.0000000e+00 
0.0000000e+00 -5.1721458e-06 0.0000000e+00 
0.0000000e+00 -1.2064271e-06 0.0000000e+00 
0.0000000e+00 1.6370709e-06 0.0000000e+00 
0.0000000e+00 6.8469935e-06 0.0000000e+00 
0.0000000e+00 1.5656169e-05 0.0000000e+00 
0.0000000e+00 2.5371010e-05 0.0000000e+00 
0.0000000e+00 3.0814354e-05 0.0000000e+00 
0.0000000e+00 2.9233215e-05 0.0000000e+00 
0.0000000e+00 2.4581432e-05 0.0000000e+00 
0.0000000e+00 2.3713865e-05 0.0000000e+00 
0.0000000e+00 3.0287156e-05 0.0000000e+00 
0.0000000e+00 4.0082996e-05 0.0000000e+00 
0.0000000e+00 4.0879368e-05 0.0000000e+00 
0.0000000e+00 2.4557228e-05 0.0000000e+00 
0.0000000e+00 1.8769756e-06 0.0000000e+00 
0.0000000e+00 -5.3698814e-06 0.0000000e+00 
0.0000000e+00 1.2782896e-05 0.0000000e+00 
0.0000000e+00 4.5717159e-05 0.0000000e+00 
0.0000000e+00 6.7395187e-05 0.0000000e+00 
0.0000000e+00 5.7035206e-05 0.0000000e+00 
0.0000000e+00 2.3744497e-05 0.0000000e+00 
0.0000000e+00 -9.7044322e-06 0.0000000e+00 
0.0000000e+00 -6.0368457e-05 0.0000000e+00 
0.0000000e+00 -2.1776104e-04 0.0000000e+00 
0.0000000e+00 -6.2638533e-04 0.0000000e+00 
0.0000000e+00 -1.4015628e-03 0.0000000e+00 
0.0000000e+00 -2.5185843e-03 0.0000000e+00 
0.0000000e+00 -3.7640270e-03 0.0000000e+00 
0.0000000e+00 -4.7451016e-03 0.0000000e+00 
0.0000000e+00 -4.9558179e-03 0.0000000e+00 
0.0000000e+00 -4.6207989e-03 0.0000000e+00 
0.0000000e+00 -4.4406420e-03 0.0000000e+00 
0.0000000e+00 -4.5937207e-03 0.0000000e+00 
0.0000000e+00 -4.7178110e-03 0.0000000e+00 
0.0000000e+00 -4.1384399e-03 0.0000000e+00 
0.0000000e+00 -2.8506028e-03 0.0000000e+00 
0.0000000e+00 -1.5564604e-03 0.0000000e+00 
0.0000000e+00 -6.1632309e-04 0.0000000e+00 
0.0000000e+00 -5.8675974e-05 0.0000000e+00 
0.0000000e+00 1.9941633e-04 0.0000000e+00 
0.0000000e+00 2.5397047e-04 0.0000000e+00 
0.0000000e+00 2.0097633e-04 0.0000000e+00 
0.0000000e+00 1.2253945e-04 0.0000000e+00 
0.0000000e+00 6.4340944e-05 0.0000000e+00 
0.0000000e+00 3.4191289e-05 0.0000000e+00 
0.0000000e+00 2.1816280e-05 0.0000000e+00 
0.0000000e+00 1.8318986e-05 0.0000000e+00 
0.0000000e+00 2.0301448e-05 0.0000000e+00 
0.0000000e+00 2.4839863e-05 0.0000000e+00 
0.0000000e+00 2.7428163e-05 0.0000000e+00 
0.0000000e+00 2.8295695e-05 0.0000000e+00 
0.0000000e+00 3.4193938e-05 0.0000000e+00 
0.0000000e+00 4.6614343e-05 0.0000000e+00 
0.0000000e+00 5.2827472e-05 0.0000000e+00 
0.0000000e+00 4.1014708e-05 0.0000000e+00 
0.0000000e+00 1.8085602e-05 0.0000000e+00 
0.0000000e+00 1.2030066e-05 0.0000000e+00 
0.0000000e+00 4.5124663e-05 0.0000000e+00 
0.0000000e+00 9.6525444e-05 0.0000000e+00 
0.0000000e+00 1.1650159e-04 0.0000000e+00 
0.0000000e+00 7.7292279e-05 0.0000000e+00 
0.0000000e+00 -1.6600769e-05 0.0000000e+00 
0.0000000e+00 -1.5548094e-04 0.0000000e+00 
0.0000000e+00 -3.6919423e-04 0.0000000e+00 
0.0000000e+00 -7.7537174e-04 0.0000000e+00 
0.0000000e+00 -1.5392879e-03 0.0000000e+00 
0.0000000e+00 -2.7143317e-03 0.0000000e+00 
0.0000000e+00 -4.0679486e-03 0.0000000e+00 
0.0000000e+00 -5.0242865e-03 0.0000000e+00 
0.0000000e+00 -4.9453429e-03 0.0000000e+00 
0.0000000e+00 -4.4625746e-03 0.0000000e+00 
0.0000000e+00 -4.3427446e-03 0.0000000e+00 
0.0000000e+00 -4.7049616e-03 0.0000000e+00 
0.0000000e+00 -4.9015959e-03 0.0000000e+00 
0.0000000e+00 -4.0831873e-03 0.0000000e+00 
0.0000000e+00 -2.6893653e-03 0.0000000e+00 
0.0000000e+00 -1.3921608e-03 0.0000000e+00 
0.0000000e+00 -4.6984456e-04 0.0000000e+00 
0.0000000e+00 4.2801654e-05 0.0000000e+00 
0.0000000e+00 2.2992179e-04 0.0000000e+00 
0.0000000e+00 2.2482569e-04 0.0000000e+00 
0.0000000e+00 1.5170513e-04 0.0000000e+00 
0.0000000e+00 8.3869425e-05 0.0000000e+00 
0.0000000e+00 3.6124606e-05 0.0000000e+00 
0.0000000e+00 7.0323983e-07 0.0000000e+00 
0.0000000e+00 -2.2015836e-05 0.0000000e+00 
0.0000000e+00 -2.5786880e-05 0.0000000e+00 
0.0000000e+00 -1.4327027e-05 0.0000000e+00 
0.0000000e+00 -6.1714559e-07 0.0000000e+00 
0.0000000e+00 5.7395264e-06 0.0000000e+00 
0.0000000e+00 5.0807412e-06 0.0000000e+00 
0.0000000e+00 3.1550280e-06 0.0000000e+00 
0.0000000e+00 3.1320087e-06 0.0000000e+00 
0.0000000e+00 3.3643089e-06 0.0000000e+00 
0.0000000e+00 1.9926304e-06 0.0000000e+00 
0.0000000e+00 -1.6528908e-07 0.0000000e+00 
0.0000000e+00 -1.5295059e-06 0.0000000e+00 
0.0000000e+00 -1.8275775e-06 0.0000000e+00 
4.9966725e-06 1.8207612e-06 3.8256916e-05 
-7.5630264e-06 -8.9463504e-07 9.8120372e-06 
-2.4971989e-06 -1.0909337e-07 7.1295144e-06 
5.2296118e-06 -3.9780252e-06 3.0230667e-06 
0.0000000e+00 -3.2022625e-05 0.0000000e+00 
0.0000000e+00 0.0000000e+00 0.0000000e+00 
0.0000000e+00 0.0000000e+00 0.0000000e+00 
0.0000000e+00 0.0000000e+00 0.0000000e+00 
0.0000000e+00 0.0000000e+00 0.0000000e+00 
0.0000000e+00 0.0000000e+00 0.0000000e+00 
0.0000000e+00 0.0000000e+00 0.0000000e+00 
0.0000000e+00 0.0000000e+00 0.0000000e+00 
0.0000000e+00 0.0000000e+00 0.0000000e+00 
0.0000000e+00 0.0000000e+00 0.0000000e+00 
0.0000000e+00 0.0000000e+00 0.0000000e+00 
0.0000000e+00 0.0000000e+00 0.0000000e+00 
0.0000000e+00 0.0000000e+00 0.0000000e+00 
0.0000000e+00 0.0000000e+00 0.0000000e+00 
0.0000000e+00 0.0000000e+00 0.0000000e+00 
0.0000000e+00 0.0000000e+00 0.0000000e+00 
0.0000000e+00 0.0000000e+00 0.0000000e+00 
0.0000000e+00 0.0000000e+00 0.0000000e+00 
0.0000000e+00 0.0000000e+00 0.0000000e+00 
0.0000000e+00 0.0000000e+00 0.0000000e+00 
0.0000000e+00 0.0000000e+00 0.0000000e+00 
0.0000000e+00 0.0000000e+00 0.0000000e+00 
0.0000000e+00 0.0000000e+00 0.0000000e+00 
0.0000000e+00 0.0000000e+00 0.0000000e+00 
0.0000000e+00 0.0000000e+00 0.0000000e+00 
0.0000000e+00 0.0000000e+00 0.0000000e+00 
0.0000000e+00 0.0000000e+00 0.0000000e+00 
0.0000000e+00 0.0000000e+00 0.0000000e+00 
0.0000000e+00 0.0000000e+00 0.0000000e+00 
0.0000000e+00 0.0000000e+00 0.0000000e+00 
0.0000000e+00 0.0000000e+00 0.0000000e+00 
0.0000000e+00 0.0000000e+00 0.0000000e+00 
0.0000000e+00 0.0000000e+00 0.0000000e+00 
0.0000000e+00 0.0000000e+00 0.0000000e+00 
0.0000000e+00 0.0000000e+00 0.0000000e+00 
0.0000000e+00 0.0000000e+00 0.0000000e+00 
0.0000000e+00 0.0000000e+00 0.0000000e+00 
0.0000000e+00 0.0000000e+00 0.0000000e+00 
0.0000000e+00 0.0000000e+00 0.0000000e+00 
0.0000000e+00 0.0000000e+00 0.0000000e+00 
0.0000000e+00 0.0000000e+00 0.0000000e+00 
0.0000000e+00 0.0000000e+00 0.0000000e+00 
0.0000000e+00 0.0000000e+00 0.0000000e+00 
0.0000000e+00 0.0000000e+00 0.0000000e+00 
0.0000000e+00 0.0000000e+00 0.0000000e+00 
0.0000000e+00 0.0000000e+00 0.0000000e+00 
0.0000000e+00 0.0000000e+00 0.0000000e+00 
0.0000000e+00 0.0000000e+00 0.0000000e+00 
0.0000000e+00 0.0000000e+00 0.0000000e+00 
0.0000000e+00 0.0000000e+00 0.0000000e+00 
0.0000000e+00 0.0000000e+00 0.0000000e+00 
0.0000000e+00 0.0000000e+00 0.0000000e+00 
0.0000000e+00 0.0000000e+00 0.0000000e+00 
0.0000000e+00 0.0000000e+00 0.0000000e+00 
0.0000000e+00 0.0000000e+00 0.0000000e+00 
0.0000000e+00 0.0000000e+00 0.0000000e+00 
0.0000000e+00 0.0000000e+00 0.0000000e+00 
0.0000000e+00 0.0000000e+00 0.0000000e+00 
0.0000000e+00 0.0000000e+00 0.0000000e+00 
0.0000000e+00 0.0000000e+00 0.0000000e+00 
0.0000000e+00 0.0000000e+00 0.0000000e+00 
0.0000000e+00 0.0000000e+00 0.0000000e+00 
0.0000000e+00 0.0000000e+00 0.0000000e+00 
0.0000000e+00 0.0000000e+00 0.0000000e+00 
0.0000000e+00 0.0000000e+00 0.0000000e+00 
0.0000000e+00 0.0000000e+00 0.0000000e+00 
0.0000000e+00 0.0000000e+00 0.0000000e+00 
0.0000000e+00 0.0000000e+00 0.0000000e+00 
0.0000000e+00 0.0000000e+00 0.0000000e+00 
0.0000000e+00 0.0000000e+00 0.0000000e+00 
0.0000000e+00 0.0000000e+00 0.0000000e+00 
0.0000000e+00 0.0000000e+00 0.0000000e+00 
0.0000000e+00 0.0000000e+00 0.0000000e+00 
0.0000000e+00 0.0000000e+00 0.0000000e+00 
0.0000000e+00 0.0000000e+00 0.0000000e+00 
0.0000000e+00 0.0000000e+00 0.0000000e+00 
0.0000000e+00 0.0000000e+00 0.0000000e+00 
0.0000000e+00 0.0000000e+00 0.0000000e+00 
0.0000000e+00 0.0000000e+00 0.0000000e+00 
0.0000000e+00 0.0000000e+00 0.0000000e+00 
0.0000000e+00 0.0000000e+00 0.0000000e+00 
0.0000000e+00 0.0000000e+00 0.0000000e+00 
0.0000000e+00 0.0000000e+00 0.0000000e+00 
0.0000000e+00 0.0000000e+00 0.0000000e+00 
0.0000000e+00 0.0000000e+00 0.0000000e+00 
0.0000000e+00 0.0000000e+00 0.0000000e+00 
0.0000000e+00 0.0000000e+00 0.0000000e+00 
0.0000000e+00 0.0000000e+00 0.0000000e+00 
0.0000000e+00 0.0000000e+00 0.0000000e+00 
0.0000000e+00 0.0000000e+00 0.0000000e+00 
0.0000000e+00 0.0000000e+00 0.0000000e+00 
0.0000000e+00 0.0000000e+00 0.0000000e+00 
0.0000000e+00 0.0000000e+00 0.0000000e+00 
0.0000000e+00 0.0000000e+00 0.0000000e+00 
0.0000000e+00 0.0000000e+00 0.0000000e+00 
0.0000000e+00 0.0000000e+00 0.0000000e+00 
0.0000000e+00 0.0000000e+00 0.0000000e+00 
0.0000000e+00 0.0000000e+00 0.0000000e+00 
0.0000000e+00 0.0000000e+00 0.0000000e+00 
0.0000000e+00 0.0000000e+00 0.0000000e+00 
0.0000000e+00 0.0000000e+00 0.0000000e+00 
0.0000000e+00 0.0000000e+00 0.0000000e+00 
0.0000000e+00 0.0000000e+00 0.0000000e+00 
0.0000000e+00 0.0000000e+00 0.0000000e+00 
0.0000000e+00 0.0000000e+00 0.0000000e+00 
0.0000000e+00 0.0000000e+00 0.0000000e+00 
0.0000000e+00 0.0000000e+00 0.0000000e+00 
4.1740896e-06 -1.0068136e-06 -4.5652482e-06 
4.7880517e-06 1.8601550e-06 -2.0940674e-06 
8.1004209e-06 3.0232309e-06 -2.3579964e-06 
9.1262955e-06 3.2575688e-06 -6.0718808e-06 
8.0550753e-06 -2.0233729e-06 -1.5855074e-06 
8.6774708e-06 6.8674840e-06 -2.1602614e-06 
9.5532923e-06 1.0214350e-06 -3.9947040e-06 
9.9890085e-06 -2.3457792e-06 4.2104881e-07 
7.9434658e-06 6.6607163e-06 -1.3809492e-06 
8.6760738e-06 -7.8042950e-07 1.1070903e-06 
7.6247197e-06 9.7874545e-07 3.2232572e-07 
1.7842614e-05 3.4600980e-06 -1.0822557e-06 
2.4072293e-05 -7.3288384e-06 -1.4102130e-06 
3.0511339e-05 -1.3406953e-05 -7.6986298e-06 
4.2738990e-05 -1.9037017e-05 -3.0523966e-06 
4.3368062e-05 -2.5453117e-05 -3.8813023e-06 
4.7361522e-05 -1.9403751e-05 1.2381809e-06 
3.9265458e-05 -1.1086267e-05 1.5970044e-06 
3.0669846e-05 -5.1958123e-06 3.7562174e-06 
1.6250426e-05 -2.5071165e-06 3.2031342e-06 
1.1193918e-05 -1.1919967e-06 -1.0933247e-06 
8.3022687e-06 1.7799946e-06 8.6041734e-07 
4.7924759e-06 1.5634803e-06 1.4456441e-06 
6.9312573e-06 -1.7137050e-06 -3.4743775e-07 
1.0379712e-05 -2.9593386e-06 2.2022675e-06 
1.0111573e-05 4.1429466e-06 6.1041101e-06 
7.6534961e-06 2.8999104e-06 2.0367186e-06 
8.4463336e-06 -3.8960366e-06 2.5227891e-07 
8.8051811e-06 1.3127697e-06 -8.0680104e-07 
1.5082268e-05 8.3950266e-07 -2.6896112e-06 
1.0869830e-05 -6.7249880e-06 -2.9021260e-06 
1.6134964e-05 7.8935471e-07 -5.7773782e-06 
2.4284558e-05 -1.1811198e-05 -1.0464817e-05 
3.1755979e-05 -1.4702738e-05 -1.2012600e-05 
4.1402847e-05 -1.7924971e-05 -9.2230630e-06 
4.6649446e-05 -1.9561845e-05 -4.8364777e-06 
4.5065583e-05 -1.4736748e-05 -1.6252275e-06 
3.6242996e-05 -7.6561837e-06 4.5576739e-06 
2.5158237e-05 -5.1831080e-06 7.5559337e-06 
1.2162907e-05 4.1186158e-07 7.2893722e-06 
4.3751438e-06 -5.6130364e-07 6.6715284e-06 
4.0499771e-07 -1.2232587e-07 5.8180635e-06 
1.0604894e-07 -1.1858746e-06 5.4540519e-06 
8.5649691e-07 -2.1615529e-06 4.9582291e-06 
2.2268678e-06 -1.0865382e-06 4.0128789e-06 
2.0930515e-06 -4.8923494e-07 3.0109723e-06 
1.2762291e-06 9.8754072e-08 2.2466581e-06 
-1.4141962e-07 2.5260815e-07 6.9916177e-07 
-7.4546853e-07 1.5482632e-07 -4.1240034e-07 
0.0000000e+00 1.1130108e-05 0.0000000e+00 
0.0000000e+00 -4.3249761e-06 0.0000000e+00 
0.0000000e+00 -7.8770627e-06 0.0000000e+00 
0.0000000e+00 -1.6504842e-05 0.0000000e+00 
0.0000000e+00 -3.0907595e-05 0.0000000e+00 
0.0000000e+00 -2.6357857e-05 0.0000000e+00 
0.0000000e+00 -2.6597361e-05 0.0000000e+00 
0.0000000e+00 -3.1494445e-05 0.0000000e+00 
0.0000000e+00 -5.6027588e-06 0.0000000e+00 
0.0000000e+00 1.8223629e-06 0.0000000e+00 
0.0000000e+00 -3.0311287e-06 0.0000000e+00 
0.0000000e+00 2.9826064e-05 0.0000000e+00 
0.0000000e+00 -6.6659610e-05 0.0000000e+00 
0.0000000e+00 -2.4272344e-04 0.0000000e+00 
0.0000000e+00 -3.9495627e-04 0.0000000e+00 
0.0000000e+00 -4.9356022e-04 0.0000000e+00 
0.0000000e+00 -5.3815567e-04 0.0000000e+00 
0.0000000e+00 -4.6557444e-04 0.0000000e+00 
0.0000000e+00 -2.8566117e-04 0.0000000e+00 
0.0000000e+00 -9.7274395e-05 0.0000000e+00 
0.0000000e+00 5.1963357e-06 0.0000000e+00 
0.0000000e+00 2.7262405e-07 0.0000000e+00 
0.0000000e+00 -1.4016930e-05 0.0000000e+00 
0.0000000e+00 -1.5480062e-05 0.0000000e+00 
0.0000000e+00 -4.5899033e-05 0.0000000e+00 
0.0000000e+00 -4.8352660e-05 0.0000000e+00 
0.0000000e+00 -1.9323581e-05 0.0000000e+00 
0.0000000e+00 -4.0635863e-05 0.0000000e+00 
0.0000000e+00 -3.4126297e-05 0.0000000e+00 
0.0000000e+00 1.0845913e-05 0.0000000e+00 
0.0000000e+00 -1.5569549e-05 0.0000000e+00 
0.0000000e+00 1.0670560e-05 0.0000000e+00 
0.0000000e+00 -2.4114657e-05 0.0000000e+00 
0.0000000e+00 -2.8672037e-04 0.0000000e+00 
0.0000000e+00 -4.1211126e-04 0.0000000e+00 
0.0000000e+00 -5.3061818e-04 0.0000000e+00 
0.0000000e+00 -5.5944821e-04 0.0000000e+00 
0.0000000e+00 -4.6173148e-04 0.0000000e+00 
0.0000000e+00 -2.8337093e-04 0.0000000e+00 
0.0000000e+00 -9.6753982e-05 0.0000000e+00 
0.0000000e+00 9.4609422e-06 0.0000000e+00 
0.0000000e+00 2.3395831e-05 0.0000000e+00 
0.0000000e+00 1.1546033e-05 0.0000000e+00 
0.0000000e+00 -3.2260650e-06 0.0000000e+00 
0.0000000e+00 -6.3598627e-06 0.0000000e+00 
0.0000000e+00 -1.7702486e-06 0.0000000e+00 
0.0000000e+00 -2.4063957e-07 0.0000000e+00 
0.0000000e+00 2.2689003e-06 0.0000000e+00 
0.0000000e+00 9.6581709e-07 0.0000000e+00 
4.6979717e-06 -1.8317842e-06 -4.7565127e-06 
3.8715630e-06 -9.6271526e-07 -3.5903859e-06 
6.4150521e-07 4.3742574e-07 -3.2743003e-06 
-1.6470996e-06 6.4965302e-06 3.2795825e-07 
-6.5587949e-07 -1.0621059e-07 -6.6142013e-07 
-2.0536709e-07 -7.9339252e-08 -1.4000739e-06 
5.4890467e-07 -5.3933078e-08 -7.3801971e-07 
6.9986999e-07 -1.2785281e-06 3.3932679e-07 
4.7498347e-06 -1.1987371e-06 -6.7009933e-06 
-4.3674575e-07 -1.2232360e-07 -2.7863405e-07 
4.0365517e-06 -1.4892540e-06 -1.2757623e-06 
6.4458686e-06 -2.8159150e-06 -1.0976743e-05 
0.0000000e+00 8.2629786e-06 0.0000000e+00 
0.0000000e+00 -2.2402289e-06 0.0000000e+00 
0.0000000e+00 -9.3848503e-06 0.0000000e+00 
0.0000000e+00 -2.9432093e-05 0.0000000e+00 
0.0000000e+00 -4.3858516e-05 0.0000000e+00 
0.0000000e+00 -3.9427359e-05 0.0000000e+00 
0.0000000e+00 -4.8559279e-05 0.0000000e+00 
0.0000000e+00 -4.4210698e-05 0.0000000e+00 
0.0000000e+00 -5.7931052e-06 0.0000000e+00 
0.0000000e+00 -7.1426907e-06 0.0000000e+00 
0.0000000e+00 -4.7957669e-06 0.0000000e+00 
0.0000000e+00 5.8004571e-05 0.0000000e+00 
0.0000000e+00 -1.5511471e-04 0.0000000e+00 
0.0000000e+00 -5.0364685e-04 0.0000000e+00 