# vtk DataFile Version 4.0
vtk output
ASCII
DATASET UNSTRUCTURED_GRID
POINTS 1919 float
0.0000000e+00 0.0000000e+00 0.0000000e+00 
0.0000000e+00 0.0000000e+00 5.0000000e+01 
5.0000000e+00 0.0000000e+00 0.0000000e+00 
5.0000000e+00 0.0000000e+00 5.0000000e+01 
5.0000000e+00 1.0000000e+00 0.0000000e+00 
5.0000000e+00 1.0000000e+00 5.0000000e+01 
0.0000000e+00 1.0000000e+00 0.0000000e+00 
0.0000000e+00 1.0000000e+00 5.0000000e+01 
5.0000000e+00 2.0000000e+00 0.0000000e+00 
5.0000000e+00 2.0000000e+00 5.0000000e+01 
3.0000000e+00 2.0000000e+00 0.0000000e+00 
3.0000000e+00 2.0000000e+00 5.0000000e+01 
0.0000000e+00 2.0000000e+00 0.0000000e+00 
0.0000000e+00 2.0000000e+00 5.0000000e+01 
1.5000000e+00 3.0000000e+00 0.0000000e+00 
1.5000000e+00 3.0000000e+00 5.0000000e+01 
7.5000000e-01 3.0000000e+00 0.0000000e+00 
7.5000000e-01 3.0000000e+00 5.0000000e+01 
0.0000000e+00 3.0000000e+00 0.0000000e+00 
0.0000000e+00 3.0000000e+00 5.0000000e+01 
7.5000000e-01 3.0000000e+00 5.0000000e-01 
7.5000000e-01 3.0000000e+00 1.0000000e+00 
7.5000000e-01 3.0000000e+00 1.5000000e+00 
7.5000000e-01 3.0000000e+00 2.0000000e+00 
7.5000000e-01 3.0000000e+00 2.5000000e+00 
7.5000000e-01 3.0000000e+00 3.0000000e+00 
7.5000000e-01 3.0000000e+00 3.5000000e+00 
7.5000000e-01 3.0000000e+00 4.0000000e+00 
7.5000000e-01 3.0000000e+00 4.5000000e+00 
7.5000000e-01 3.0000000e+00 5.0000000e+00 
7.5000000e-01 3.0000000e+00 5.5000000e+00 
7.5000000e-01 3.0000000e+00 6.0000000e+00 
7.5000000e-01 3.0000000e+00 6.5000000e+00 
7.5000000e-01 3.0000000e+00 7.0000000e+00 
7.5000000e-01 3.0000000e+00 7.5000000e+00 
7.5000000e-01 3.0000000e+00 8.0000000e+00 
7.5000000e-01 3.0000000e+00 8.5000000e+00 
7.5000000e-01 3.0000000e+00 9.0000000e+00 
7.5000000e-01 3.0000000e+00 9.5000000e+00 
7.5000000e-01 3.0000000e+00 1.0000000e+01 
7.5000000e-01 3.0000000e+00 1.0500000e+01 
7.5000000e-01 3.0000000e+00 1.1000000e+01 
7.5000000e-01 3.0000000e+00 1.1500000e+01 
7.5000000e-01 3.0000000e+00 1.2000000e+01 
7.5000000e-01 3.0000000e+00 1.2500000e+01 
7.5000000e-01 3.0000000e+00 1.3000000e+01 
7.5000000e-01 3.0000000e+00 1.3500000e+01 
7.5000000e-01 3.0000000e+00 1.4000000e+01 
7.5000000e-01 3.0000000e+00 1.4500000e+01 
7.5000000e-01 3.0000000e+00 1.5000000e+01 
7.5000000e-01 3.0000000e+00 1.5500000e+01 
7.5000000e-01 3.0000000e+00 1.6000000e+01 
7.5000000e-01 3.0000000e+00 1.6500000e+01 
7.5000000e-01 3.0000000e+00 1.7000000e+01 
7.5000000e-01 3.0000000e+00 1.7500000e+01 
7.5000000e-01 3.0000000e+00 1.8000000e+01 
7.5000000e-01 3.0000000e+00 1.8500000e+01 
7.5000000e-01 3.0000000e+00 1.9000000e+01 
7.5000000e-01 3.0000000e+00 1.9500000e+01 
7.5000000e-01 3.0000000e+00 2.0000000e+01 
7.5000000e-01 3.0000000e+00 2.0500000e+01 
7.5000000e-01 3.0000000e+00 2.1000000e+01 
7.5000000e-01 3.0000000e+00 2.1500000e+01 
7.5000000e-01 3.0000000e+00 2.2000000e+01 
7.5000000e-01 3.0000000e+00 2.2500000e+01 
7.5000000e-01 3.0000000e+00 2.3000000e+01 
7.5000000e-01 3.0000000e+00 2.3500000e+01 
7.5000000e-01 3.0000000e+00 2.4000000e+01 
7.5000000e-01 3.0000000e+00 2.4500000e+01 
7.5000000e-01 3.0000000e+00 2.5000000e+01 
7.5000000e-01 3.0000000e+00 2.5500000e+01 
7.5000000e-01 3.0000000e+00 2.6000000e+01 
7.5000000e-01 3.0000000e+00 2.6500000e+01 
7.5000000e-01 3.0000000e+00 2.7000000e+01 
7.5000000e-01 3.0000000e+00 2.7500000e+01 
7.5000000e-01 3.0000000e+00 2.8000000e+01 
7.5000000e-01 3.0000000e+00 2.8500000e+01 
7.5000000e-01 3.0000000e+00 2.9000000e+01 
7.5000000e-01 3.0000000e+00 2.9500000e+01 
7.5000000e-01 3.0000000e+00 3.0000000e+01 
7.5000000e-01 3.0000000e+00 3.0500000e+01 
7.5000000e-01 3.0000000e+00 3.1000000e+01 
7.5000000e-01 3.0000000e+00 3.1500000e+01 
7.5000000e-01 3.0000000e+00 3.2000000e+01 
7.5000000e-01 3.0000000e+00 3.2500000e+01 
7.5000000e-01 3.0000000e+00 3.3000000e+01 
7.5000000e-01 3.0000000e+00 3.3500000e+01 
7.5000000e-01 3.0000000e+00 3.4000000e+01 
7.5000000e-01 3.0000000e+00 3.4500000e+01 
7.5000000e-01 3.0000000e+00 3.5000000e+01 
7.5000000e-01 3.0000000e+00 3.5500000e+01 
7.5000000e-01 3.0000000e+00 3.6000000e+01 
7.5000000e-01 3.0000000e+00 3.6500000e+01 
7.5000000e-01 3.0000000e+00 3.7000000e+01 
7.5000000e-01 3.0000000e+00 3.7500000e+01 
7.5000000e-01 3.0000000e+00 3.8000000e+01 
7.5000000e-01 3.0000000e+00 3.8500000e+01 
7.5000000e-01 3.0000000e+00 3.9000000e+01 
7.5000000e-01 3.0000000e+00 3.9500000e+01 
7.5000000e-01 3.0000000e+00 4.0000000e+01 
7.5000000e-01 3.0000000e+00 4.0500000e+01 
7.5000000e-01 3.0000000e+00 4.1000000e+01 
7.5000000e-01 3.0000000e+00 4.1500000e+01 
7.5000000e-01 3.0000000e+00 4.2000000e+01 
7.5000000e-01 3.0000000e+00 4.2500000e+01 
7.5000000e-01 3.0000000e+00 4.3000000e+01 
7.5000000e-01 3.0000000e+00 4.3500000e+01 
7.5000000e-01 3.0000000e+00 4.4000000e+01 
7.5000000e-01 3.0000000e+00 4.4500000e+01 
7.5000000e-01 3.0000000e+00 4.5000000e+01 
7.5000000e-01 3.0000000e+00 4.5500000e+01 
7.5000000e-01 3.0000000e+00 4.6000000e+01 
7.5000000e-01 3.0000000e+00 4.6500000e+01 
7.5000000e-01 3.0000000e+00 4.7000000e+01 
7.5000000e-01 3.0000000e+00 4.7500000e+01 
7.5000000e-01 3.0000000e+00 4.8000000e+01 
7.5000000e-01 3.0000000e+00 4.8500000e+01 
7.5000000e-01 3.0000000e+00 4.9000000e+01 
7.5000000e-01 3.0000000e+00 4.9500000e+01 
7.5000000e-01 3.0250001e+00 0.0000000e+00 
7.5000000e-01 3.0250001e+00 5.0000000e-01 
7.5000000e-01 3.0250001e+00 1.0000000e+00 
7.5000000e-01 3.0250001e+00 1.5000000e+00 
7.5000000e-01 3.0250001e+00 2.0000000e+00 
7.5000000e-01 3.0250001e+00 2.5000000e+00 
7.5000000e-01 3.0250001e+00 3.0000000e+00 
7.5000000e-01 3.0250001e+00 3.5000000e+00 
7.5000000e-01 3.0250001e+00 4.0000000e+00 
7.5000000e-01 3.0250001e+00 4.5000000e+00 
7.5000000e-01 3.0250001e+00 5.0000000e+00 
7.5000000e-01 3.0250001e+00 5.5000000e+00 
7.5000000e-01 3.0250001e+00 6.0000000e+00 
7.5000000e-01 3.0250001e+00 6.5000000e+00 
7.5000000e-01 3.0250001e+00 7.0000000e+00 
7.5000000e-01 3.0250001e+00 7.5000000e+00 
7.5000000e-01 3.0250001e+00 8.0000000e+00 
7.5000000e-01 3.0250001e+00 8.5000000e+00 
7.5000000e-01 3.0250001e+00 9.0000000e+00 
7.5000000e-01 3.0250001e+00 9.5000000e+00 
7.5000000e-01 3.0250001e+00 1.0000000e+01 
7.5000000e-01 3.0250001e+00 1.0500000e+01 
7.5000000e-01 3.0250001e+00 1.1000000e+01 
7.5000000e-01 3.0250001e+00 1.1500000e+01 
7.5000000e-01 3.0250001e+00 1.2000000e+01 
7.5000000e-01 3.0250001e+00 1.2500000e+01 
7.5000000e-01 3.0250001e+00 1.3000000e+01 
7.5000000e-01 3.0250001e+00 1.3500000e+01 
7.5000000e-01 3.0250001e+00 1.4000000e+01 
7.5000000e-01 3.0250001e+00 1.4500000e+01 
7.5000000e-01 3.0250001e+00 1.5000000e+01 
7.5000000e-01 3.0250001e+00 1.5500000e+01 
7.5000000e-01 3.0250001e+00 1.6000000e+01 
7.5000000e-01 3.0250001e+00 1.6500000e+01 
7.5000000e-01 3.0250001e+00 1.7000000e+01 
7.5000000e-01 3.0250001e+00 1.7500000e+01 
7.5000000e-01 3.0250001e+00 1.8000000e+01 
7.5000000e-01 3.0250001e+00 1.8500000e+01 
7.5000000e-01 3.0250001e+00 1.9000000e+01 
7.5000000e-01 3.0250001e+00 1.9500000e+01 
7.5000000e-01 3.0250001e+00 2.0000000e+01 
7.5000000e-01 3.0250001e+00 2.0500000e+01 
7.5000000e-01 3.0250001e+00 2.1000000e+01 
7.5000000e-01 3.0250001e+00 2.1500000e+01 
7.5000000e-01 3.0250001e+00 2.2000000e+01 
7.5000000e-01 3.0250001e+00 2.2500000e+01 
7.5000000e-01 3.0250001e+00 2.3000000e+01 
7.5000000e-01 3.0250001e+00 2.3500000e+01 
7.5000000e-01 3.0250001e+00 2.4000000e+01 
7.5000000e-01 3.0250001e+00 2.4500000e+01 
7.5000000e-01 3.0250001e+00 2.5000000e+01 
7.5000000e-01 3.0250001e+00 2.5500000e+01 
7.5000000e-01 3.0250001e+00 2.6000000e+01 
7.5000000e-01 3.0250001e+00 2.6500000e+01 
7.5000000e-01 3.0250001e+00 2.7000000e+01 
7.5000000e-01 3.0250001e+00 2.7500000e+01 
7.5000000e-01 3.0250001e+00 2.8000000e+01 
7.5000000e-01 3.0250001e+00 2.8500000e+01 
7.5000000e-01 3.0250001e+00 2.9000000e+01 
7.5000000e-01 3.0250001e+00 2.9500000e+01 
7.5000000e-01 3.0250001e+00 3.0000000e+01 
7.5000000e-01 3.0250001e+00 3.0500000e+01 
7.5000000e-01 3.0250001e+00 3.1000000e+01 
7.5000000e-01 3.0250001e+00 3.1500000e+01 
7.5000000e-01 3.0250001e+00 3.2000000e+01 
7.5000000e-01 3.0250001e+00 3.2500000e+01 
7.5000000e-01 3.0250001e+00 3.3000000e+01 
7.5000000e-01 3.0250001e+00 3.3500000e+01 
7.5000000e-01 3.0250001e+00 3.4000000e+01 
7.5000000e-01 3.0250001e+00 3.4500000e+01 
7.5000000e-01 3.0250001e+00 3.5000000e+01 
7.5000000e-01 3.0250001e+00 3.5500000e+01 
7.5000000e-01 3.0250001e+00 3.6000000e+01 
7.5000000e-01 3.0250001e+00 3.6500000e+01 
7.5000000e-01 3.0250001e+00 3.7000000e+01 
7.5000000e-01 3.0250001e+00 3.7500000e+01 
7.5000000e-01 3.0250001e+00 3.8000000e+01 
7.5000000e-01 3.0250001e+00 3.8500000e+01 
7.5000000e-01 3.0250001e+00 3.9000000e+01 
7.5000000e-01 3.0250001e+00 3.9500000e+01 
7.5000000e-01 3.0250001e+00 4.0000000e+01 
7.5000000e-01 3.0250001e+00 4.0500000e+01 
7.5000000e-01 3.0250001e+00 4.1000000e+01 
7.5000000e-01 3.0250001e+00 4.1500000e+01 
7.5000000e-01 3.0250001e+00 4.2000000e+01 
7.5000000e-01 3.0250001e+00 4.2500000e+01 
7.5000000e-01 3.0250001e+00 4.3000000e+01 
7.5000000e-01 3.0250001e+00 4.3500000e+01 
7.5000000e-01 3.0250001e+00 4.4000000e+01 
7.5000000e-01 3.0250001e+00 4.4500000e+01 
7.5000000e-01 3.0250001e+00 4.5000000e+01 
7.5000000e-01 3.0250001e+00 4.5500000e+01 
7.5000000e-01 3.0250001e+00 4.6000000e+01 
7.5000000e-01 3.0250001e+00 4.6500000e+01 
7.5000000e-01 3.0250001e+00 4.7000000e+01 
7.5000000e-01 3.0250001e+00 4.7500000e+01 
7.5000000e-01 3.0250001e+00 4.8000000e+01 
7.5000000e-01 3.0250001e+00 4.8500000e+01 
7.5000000e-01 3.0250001e+00 4.9000000e+01 
7.5000000e-01 3.0250001e+00 4.9500000e+01 
7.5000000e-01 3.0250001e+00 5.0000000e+01 
1.5000000e+00 3.0000000e+00 2.5000000e+01 
3.0000000e+00 2.0000000e+00 2.5000000e+01 
4.0000000e+00 2.0000000e+00 2.5000000e+01 
5.0000000e+00 2.0000000e+00 2.5000000e+01 
0.0000000e+00 3.0000000e+00 2.5000000e+01 
0.0000000e+00 0.0000000e+00 1.0000000e+00 
0.0000000e+00 0.0000000e+00 2.0000000e+00 
0.0000000e+00 0.0000000e+00 3.0000000e+00 
0.0000000e+00 0.0000000e+00 4.0000000e+00 
0.0000000e+00 0.0000000e+00 5.0000000e+00 
[...]
POINT_DATA 1919
FIELD FieldData 3
DISPLACEMENT 3 1919  float
0.0000000e+00 0.0000000e+00 0.0000000e+00 
0.0000000e+00 0.0000000e+00 0.0000000e+00 
0.0000000e+00 0.0000000e+00 0.0000000e+00 
0.0000000e+00 0.0000000e+00 0.0000000e+00 
-6.9780322e-06 -8.5067904e-06 -9.8629698e-06 
6.2321646e-09 -4.4568452e-08 2.5495415e-09 
0.0000000e+00 6.7870492e-06 0.0000000e+00 
0.0000000e+00 -9.7288911e-08 0.0000000e+00 
-1.7878876e-05 -1.2939396e-05 -1.0037927e-06 
1.0727164e-08 -2.5706699e-08 1.0588078e-08 
-1.7553255e-05 -2.1471631e-05 2.7922795e-05 
-2.8578384e-08 -8.9448491e-08 -1.9651184e-08 
0.0000000e+00 1.4025505e-05 0.0000000e+00 
0.0000000e+00 1.5112295e-07 0.0000000e+00 
-6.0265984e-06 -2.1293579e-05 5.6950455e-05 
-8.0921687e-08 7.2224424e-07 -7.2048479e-08 
3.3182863e-05 -1.0098420e-04 9.2631897e-05 
-1.7496887e-08 -1.8162630e-06 8.5422522e-09 
0.0000000e+00 5.3572679e-05 0.0000000e+00 
0.0000000e+00 1.4895819e-06 0.0000000e+00 
-1.1830372e-05 -9.0697693e-05 5.2232601e-05 
6.3207408e-06 -6.9478003e-05 2.7989587e-05 
9.5589257e-06 -4.4781838e-05 4.6784720e-05 
2.8164302e-05 -5.3854128e-06 5.2995892e-05 
1.8329718e-05 7.2187693e-05 1.7883218e-05 
4.6772439e-05 2.0260333e-04 2.9969835e-05 
2.6581925e-05 3.5519831e-04 4.1198011e-05 
8.4508640e-05 4.5823801e-04 1.7033171e-05 
9.9306861e-05 4.6478643e-04 6.6883396e-05 
1.5229033e-04 3.5552340e-04 1.2703100e-04 
1.1421572e-04 1.0655848e-04 1.8662655e-04 
8.5183121e-05 -3.3681604e-04 1.6939851e-04 
-4.4009576e-06 -1.0986216e-03 3.3593923e-04 
-4.6939978e-05 -2.2794751e-03 1.8625373e-04 
-1.6598497e-04 -3.7528190e-03 3.1213471e-04 
-2.3650614e-04 -4.8072939e-03 1.2135814e-04 
-3.0211356e-04 -4.7380715e-03 1.2485437e-05 
-2.2073093e-04 -4.2291391e-03 -3.8616599e-06 
-2.1258659e-04 -4.0892824e-03 -8.0414276e-05 
-1.8367254e-04 -4.4204602e-03 -1.8821916e-04 
-2.1632464e-04 -4.6475022e-03 -2.1943211e-04 
-2.3556918e-04 -3.8341200e-03 -2.3842818e-04 
-1.9790210e-04 -2.5281003e-03 -3.7815879e-04 
-1.4234490e-04 -1.2983867e-03 -2.4473376e-04 
-4.1932330e-05 -4.5222131e-04 -3.1636460e-04 
-1.7798524e-06 2.8079855e-06 -1.9399644e-04 
5.9877457e-05 1.7214195e-04 -1.0926350e-04 
5.1200146e-05 1.9854025e-04 -2.3380548e-05 
1.5910276e-05 1.8385609e-04 4.7607216e-05 
4.7923072e-06 1.5631957e-04 4.6006484e-05 
-1.7274888e-05 1.1201807e-04 4.5597986e-05 
-1.4752707e-05 5.4878255e-05 2.6414058e-05 
-7.9195788e-06 5.7723123e-06 -9.6229078e-06 
-5.9163090e-06 -1.4362729e-05 -3.3862736e-05 
-1.5233766e-06 -8.3031409e-06 -2.3989975e-05 
2.2402048e-07 4.4068083e-06 -1.3587215e-05 
1.1768544e-05 1.0976458e-06 4.6793725e-06 
1.5906357e-05 -2.9343944e-05 2.0198720e-05 
1.2721665e-05 -7.3080213e-05 4.3131033e-05 
-8.4120020e-06 -9.8574616e-05 5.6085646e-05 
-7.2682460e-06 -8.6133019e-05 3.6479920e-05 
5.4139527e-06 -4.1599182e-05 2.3581488e-05 
5.3678737e-06 1.3200433e-05 2.4750592e-05 
1.0597988e-05 5.3347430e-05 3.7766084e-05 
4.2122057e-05 9.3564115e-05 1.5047525e-05 
5.2476960e-05 1.8484287e-04 1.2883054e-05 
3.4669494e-05 3.4466738e-04 -2.0417259e-05 
-8.4197136e-06 4.9210503e-04 -3.6293492e-05 
1.2103091e-04 5.1911990e-04 5.3461779e-05 
6.6561086e-05 3.5820503e-04 8.1352482e-05 
8.5316227e-05 -1.4408987e-05 1.5106036e-04 
6.1087871e-05 -5.8272586e-04 1.7367366e-04 
-2.3236718e-05 -1.4000136e-03 3.3093133e-04 
-5.7595327e-05 -2.5277233e-03 1.5808053e-04 
-2.0708186e-04 -3.8730579e-03 3.1138162e-04 
-2.5026783e-04 -4.8259301e-03 1.3152653e-04 
-3.1325119e-04 -4.7380817e-03 -2.0704615e-06 
-2.8285602e-04 -4.3072351e-03 -1.8130189e-05 
-2.7815328e-04 -4.2518964e-03 -1.2243750e-04 
-2.8350722e-04 -4.5623295e-03 -2.7592233e-04 
-2.7157622e-04 -4.6603261e-03 -3.4587082e-04 
-2.3944869e-04 -3.6642633e-03 -2.6753463e-04 
-1.8674874e-04 -2.2800071e-03 -3.8297093e-04 
-1.3027003e-04 -1.0923672e-03 -2.2916627e-04 
-3.5304478e-05 -3.4778734e-04 -2.8726514e-04 
8.7139060e-06 2.6007181e-05 -1.6408734e-04 
5.3220760e-05 1.7789951e-04 -9.4607771e-05 
5.0788778e-05 2.2204976e-04 9.6269662e-07 
9.9615299e-06 2.0873704e-04 6.1644030e-05 
-4.1315898e-06 1.5650611e-04 5.4820284e-05 
-1.9887217e-05 8.8646615e-05 3.5937603e-05 
-1.0994478e-05 2.8497319e-05 1.5700891e-05 
2.3734874e-06 -1.2197651e-05 1.1280016e-08 
2.8147158e-06 -3.2156397e-05 -2.4762053e-06 
2.1779958e-06 -3.3971734e-05 -2.4485537e-06 
-2.5619684e-06 -2.2357683e-05 -1.0004174e-05 
5.1242605e-06 -5.4681286e-06 -2.8085607e-08 
7.6905866e-07 5.1592920e-06 1.6067789e-07 
-1.5728502e-06 3.1013183e-06 -3.6335441e-06 
3.4044476e-07 -4.0532468e-06 2.3588793e-06 
-1.5986313e-07 -5.3985104e-06 3.0080199e-07 
-2.6420057e-07 5.9462633e-07 -5.1402321e-07 
8.5447391e-07 7.6238489e-06 2.3379330e-06 
4.3900093e-07 8.4142393e-06 -3.9886879e-07 
-1.8679766e-07 1.8697730e-06 -3.3926310e-07 
-1.7440004e-07 -5.2941700e-06 3.7198666e-07 
-3.8820852e-07 -6.8698673e-06 -1.3794393e-06 
-1.6811461e-07 -3.1722764e-06 -1.0167563e-07 
1.6873486e-07 1.6531474e-06 3.8948892e-07 
5.9554790e-08 3.9683887e-06 -2.8671136e-07 
1.6094374e-07 3.0914039e-06 5.7539080e-07 
2.1826503e-08 7.3601183e-07 1.1872263e-07 
-1.6367031e-07 -1.4840911e-06 -4.4602615e-07 
-5.5756267e-08 -2.4367666e-06 2.2545605e-07 
1.0293811e-07 -1.4340886e-06 -8.7147477e-08 
-1.4888141e-07 6.9801285e-07 -1.5178140e-08 
9.3198295e-08 2.1150959e-06 1.7893809e-07 
-3.5713374e-08 1.4861007e-06 5.3225108e-08 
1.3184382e-08 -6.1367797e-07 -9.9300230e-08 
0.0000000e+00 -1.0024496e-04 0.0000000e+00 
0.0000000e+00 -9.0705333e-05 0.0000000e+00 
0.0000000e+00 -7.0448157e-05 0.0000000e+00 
0.0000000e+00 -4.5796827e-05 0.0000000e+00 
0.0000000e+00 -5.5151072e-06 0.0000000e+00 
0.0000000e+00 7.3973926e-05 0.0000000e+00 
0.0000000e+00 2.0488145e-04 0.0000000e+00 
0.0000000e+00 3.5510614e-04 0.0000000e+00 
0.0000000e+00 4.5744565e-04 0.0000000e+00 
0.0000000e+00 4.6443826e-04 0.0000000e+00 
0.0000000e+00 3.5615687e-04 0.0000000e+00 
0.0000000e+00 1.0955859e-04 0.0000000e+00 
0.0000000e+00 -3.3612197e-04 0.0000000e+00 
0.0000000e+00 -1.1048025e-03 0.0000000e+00 
0.0000000e+00 -2.3000990e-03 0.0000000e+00 
0.0000000e+00 -3.7731160e-03 0.0000000e+00 
0.0000000e+00 -4.8376839e-03 0.0000000e+00 
0.0000000e+00 -4.7566229e-03 0.0000000e+00 
0.0000000e+00 -4.2546820e-03 0.0000000e+00 
0.0000000e+00 -4.1126036e-03 0.0000000e+00 
0.0000000e+00 -4.4530197e-03 0.0000000e+00 
0.0000000e+00 -4.6709259e-03 0.0000000e+00 
0.0000000e+00 -3.8573979e-03 0.0000000e+00 
0.0000000e+00 -2.5386214e-03 0.0000000e+00 
0.0000000e+00 -1.3094307e-03 0.0000000e+00 
0.0000000e+00 -4.5549838e-04 0.0000000e+00 
0.0000000e+00 2.6136538e-06 0.0000000e+00 
0.0000000e+00 1.7400798e-04 0.0000000e+00 
0.0000000e+00 2.0090603e-04 0.0000000e+00 
0.0000000e+00 1.8457806e-04 0.0000000e+00 
0.0000000e+00 1.5600723e-04 0.0000000e+00 
0.0000000e+00 1.1180247e-04 0.0000000e+00 
0.0000000e+00 5.5154247e-05 0.0000000e+00 
0.0000000e+00 6.4469823e-06 0.0000000e+00 
0.0000000e+00 -1.4051558e-05 0.0000000e+00 
0.0000000e+00 -8.1932476e-06 0.0000000e+00 
0.0000000e+00 4.2564825e-06 0.0000000e+00 
0.0000000e+00 3.1686102e-07 0.0000000e+00 
0.0000000e+00 -3.0201694e-05 0.0000000e+00 
0.0000000e+00 -7.2964373e-05 0.0000000e+00 
0.0000000e+00 -9.7761404e-05 0.0000000e+00 
0.0000000e+00 -8.5343876e-05 0.0000000e+00 
0.0000000e+00 -4.1111223e-05 0.0000000e+00 
0.0000000e+00 1.1911958e-05 0.0000000e+00 
0.0000000e+00 5.1746316e-05 0.0000000e+00 
0.0000000e+00 9.4218085e-05 0.0000000e+00 
0.0000000e+00 1.8833704e-04 0.0000000e+00 
0.0000000e+00 3.4648363e-04 0.0000000e+00 
0.0000000e+00 4.9188425e-04 0.0000000e+00 
0.0000000e+00 5.1808002e-04 0.0000000e+00 
0.0000000e+00 3.5606875e-04 0.0000000e+00 
0.0000000e+00 -1.2249882e-05 0.0000000e+00 
0.0000000e+00 -5.8196508e-04 0.0000000e+00 
0.0000000e+00 -1.4040978e-03 0.0000000e+00 
0.0000000e+00 -2.5455309e-03 0.0000000e+00 
0.0000000e+00 -3.8955249e-03 0.0000000e+00 
0.0000000e+00 -4.8606349e-03 0.0000000e+00 
0.0000000e+00 -4.7580395e-03 0.0000000e+00 
0.0000000e+00 -4.3334104e-03 0.0000000e+00 
0.0000000e+00 -4.2706500e-03 0.0000000e+00 
0.0000000e+00 -4.5932769e-03 0.0000000e+00 
0.0000000e+00 -4.6828426e-03 0.0000000e+00 
0.0000000e+00 -3.6902537e-03 0.0000000e+00 
0.0000000e+00 -2.2921662e-03 0.0000000e+00 
0.0000000e+00 -1.1030298e-03 0.0000000e+00 
0.0000000e+00 -3.4934856e-04 0.0000000e+00 
0.0000000e+00 2.7977540e-05 0.0000000e+00 
0.0000000e+00 1.8005776e-04 0.0000000e+00 
0.0000000e+00 2.2280787e-04 0.0000000e+00 
0.0000000e+00 2.0853156e-04 0.0000000e+00 
0.0000000e+00 1.5680907e-04 0.0000000e+00 
0.0000000e+00 8.9220004e-05 0.0000000e+00 
0.0000000e+00 2.8766897e-05 0.0000000e+00 
0.0000000e+00 -1.2158643e-05 0.0000000e+00 
0.0000000e+00 -3.2044125e-05 0.0000000e+00 
0.0000000e+00 -3.3842629e-05 0.0000000e+00 
0.0000000e+00 -2.2326476e-05 0.0000000e+00 
0.0000000e+00 -5.7445886e-06 0.0000000e+00 
0.0000000e+00 4.6822306e-06 0.0000000e+00 
0.0000000e+00 3.1152213e-06 0.0000000e+00 
0.0000000e+00 -3.6322506e-06 0.0000000e+00 
0.0000000e+00 -5.2046466e-06 0.0000000e+00 
0.0000000e+00 4.9152146e-07 0.0000000e+00 
0.0000000e+00 7.3919846e-06 0.0000000e+00 
0.0000000e+00 8.2287570e-06 0.0000000e+00 
0.0000000e+00 1.9676434e-06 0.0000000e+00 
0.0000000e+00 -5.0634512e-06 0.0000000e+00 
0.0000000e+00 -6.8010540e-06 0.0000000e+00 
0.0000000e+00 -3.2328942e-06 0.0000000e+00 
0.0000000e+00 1.5650618e-06 0.0000000e+00 
0.0000000e+00 3.9074635e-06 0.0000000e+00 
0.0000000e+00 3.1006682e-06 0.0000000e+00 
0.0000000e+00 7.5088559e-07 0.0000000e+00 
0.0000000e+00 -1.4654931e-06 0.0000000e+00 
0.0000000e+00 -2.3744235e-06 0.0000000e+00 
0.0000000e+00 -1.4037514e-06 0.0000000e+00 
0.0000000e+00 6.6417789e-07 0.0000000e+00 
0.0000000e+00 2.0457510e-06 0.0000000e+00 
0.0000000e+00 1.4341746e-06 0.0000000e+00 
0.0000000e+00 -5.8773588e-07 0.0000000e+00 
0.0000000e+00 -1.7552054e-06 0.0000000e+00 
1.9282375e-05 5.2465120e-04 -3.2179396e-05 
5.8271784e-05 1.8798708e-04 -1.5791387e-05 
4.0189716e-05 1.3984527e-04 4.8862871e-06 
6.3497988e-05 4.3554330e-05 -1.8637927e-05 
0.0000000e+00 -4.8895634e-04 0.0000000e+00 
0.0000000e+00 0.0000000e+00 0.0000000e+00 
0.0000000e+00 0.0000000e+00 0.0000000e+00 
0.0000000e+00 0.0000000e+00 0.0000000e+00 
0.0000000e+00 0.0000000e+00 0.0000000e+00 
0.0000000e+00 0.0000000e+00 0.0000000e+00 
0.0000000e+00 0.0000000e+00 0.0000000e+00 
0.0000000e+00 0.0000000e+00 0.0000000e+00 
0.0000000e+00 0.0000000e+00 0.0000000e+00 
0.0000000e+00 0.0000000e+00 0.0000000e+00 
0.0000000e+00 0.0000000e+00 0.0000000e+00 
0.0000000e+00 0.0000000e+00 0.0000000e+00 
0.0000000e+00 0.0000000e+00 0.0000000e+00 
0.0000000e+00 0.0000000e+00 0.0000000e+00 
0.0000000e+00 0.0000000e+00 0.0000000e+00 
0.0000000e+00 0.0000000e+00 0.0000000e+00 
0.0000000e+00 0.0000000e+00 0.0000000e+00 
0.0000000e+00 0.0000000e+00 0.0000000e+00 
0.0000000e+00 0.0000000e+00 0.0000000e+00 
0.0000000e+00 0.0000000e+00 0.0000000e+00 
0.0000000e+00 0.0000000e+00 0.0000000e+00 
0.0000000e+00 0.0000000e+00 0.0000000e+00 
0.0000000e+00 0.0000000e+00 0.0000000e+00 
0.0000000e+00 0.0000000e+00 0.0000000e+00 
0.0000000e+00 0.0000000e+00 0.0000000e+00 
0.0000000e+00 0.0000000e+00 0.0000000e+00 
0.0000000e+00 0.0000000e+00 0.0000000e+00 
0.0000000e+00 0.0000000e+00 0.0000000e+00 
0.0000000e+00 0.0000000e+00 0.0000000e+00 
0.0000000e+00 0.0000000e+00 0.0000000e+00 
0.0000000e+00 0.0000000e+00 0.0000000e+00 
0.0000000e+00 0.0000000e+00 0.0000000e+00 
0.0000000e+00 0.0000000e+00 0.0000000e+00 
0.0000000e+00 0.0000000e+00 0.0000000e+00 
0.0000000e+00 0.0000000e+00 0.0000000e+00 
0.0000000e+00 0.0000000e+00 0.0000000e+00 
0.0000000e+00 0.0000000e+00 0.0000000e+00 
0.0000000e+00 0.0000000e+00 0.0000000e+00 
0.0000000e+00 0.0000000e+00 0.0000000e+00 
0.0000000e+00 0.0000000e+00 0.0000000e+00 
0.0000000e+00 0.0000000e+00 0.0000000e+00 
0.0000000e+00 0.0000000e+00 0.0000000e+00 
0.0000000e+00 0.0000000e+00 0.0000000e+00 
0.0000000e+00 0.0000000e+00 0.0000000e+00 
0.0000000e+00 0.0000000e+00 0.0000000e+00 
0.0000000e+00 0.0000000e+00 0.0000000e+00 
0.0000000e+00 0.0000000e+00 0.0000000e+00 
0.0000000e+00 0.0000000e+00 0.0000000e+00 
0.0000000e+00 0.0000000e+00 0.0000000e+00 
0.0000000e+00 0.0000000e+00 0.0000000e+00 
0.0000000e+00 0.0000000e+00 0.0000000e+00 
0.0000000e+00 0.0000000e+00 0.0000000e+00 
0.0000000e+00 0.0000000e+00 0.0000000e+00 
0.0000000e+00 0.0000000e+00 0.0000000e+00 
0.0000000e+00 0.0000000e+00 0.0000000e+00 
0.0000000e+00 0.0000000e+00 0.0000000e+00 
0.0000000e+00 0.0000000e+00 0.0000000e+00 
0.0000000e+00 0.0000000e+00 0.0000000e+00 
0.0000000e+00 0.0000000e+00 0.0000000e+00 
0.0000000e+00 0.0000000e+00 0.0000000e+00 
0.0000000e+00 0.0000000e+00 0.0000000e+00 
0.0000000e+00 0.0000000e+00 0.0000000e+00 
0.0000000e+00 0.0000000e+00 0.0000000e+00 
0.0000000e+00 0.0000000e+00 0.0000000e+00 
0.0000000e+00 0.0000000e+00 0.0000000e+00 
0.0000000e+00 0.0000000e+00 0.0000000e+00 
0.0000000e+00 0.0000000e+00 0.0000000e+00 
0.0000000e+00 0.0000000e+00 0.0000000e+00 
0.0000000e+00 0.0000000e+00 0.0000000e+00 
0.0000000e+00 0.0000000e+00 0.0000000e+00 
0.0000000e+00 0.0000000e+00 0.0000000e+00 
0.0000000e+00 0.0000000e+00 0.0000000e+00 
0.0000000e+00 0.0000000e+00 0.0000000e+00 
0.0000000e+00 0.0000000e+00 0.0000000e+00 
0.0000000e+00 0.0000000e+00 0.0000000e+00 
0.0000000e+00 0.0000000e+00 0.0000000e+00 
0.0000000e+00 0.0000000e+00 0.0000000e+00 
0.0000000e+00 0.0000000e+00 0.0000000e+00 
0.0000000e+00 0.0000000e+00 0.0000000e+00 
0.0000000e+00 0.0000000e+00 0.0000000e+00 
0.0000000e+00 0.0000000e+00 0.0000000e+00 
0.0000000e+00 0.0000000e+00 0.0000000e+00 
0.0000000e+00 0.0000000e+00 0.0000000e+00 
0.0000000e+00 0.0000000e+00 0.0000000e+00 
0.0000000e+00 0.0000000e+00 0.0000000e+00 
0.0000000e+00 0.0000000e+00 0.0000000e+00 
0.0000000e+00 0.0000000e+00 0.0000000e+00 
0.0000000e+00 0.0000000e+00 0.0000000e+00 
0.0000000e+00 0.0000000e+00 0.0000000e+00 
0.0000000e+00 0.0000000e+00 0.0000000e+00 
0.0000000e+00 0.0000000e+00 0.0000000e+00 
0.0000000e+00 0.0000000e+00 0.0000000e+00 
0.0000000e+00 0.0000000e+00 0.0000000e+00 
0.0000000e+00 0.0000000e+00 0.0000000e+00 
0.0000000e+00 0.0000000e+00 0.0000000e+00 
0.0000000e+00 0.0000000e+00 0.0000000e+00 
0.0000000e+00 0.0000000e+00 0.0000000e+00 
0.0000000e+00 0.0000000e+00 0.0000000e+00 
0.0000000e+00 0.0000000e+00 0.0000000e+00 
0.0000000e+00 0.0000000e+00 0.0000000e+00 
0.0000000e+00 0.0000000e+00 0.0000000e+00 
0.0000000e+00 0.0000000e+00 0.0000000e+00 
0.0000000e+00 0.0000000e+00 0.0000000e+00 
0.0000000e+00 0.0000000e+00 0.0000000e+00 
0.0000000e+00 0.0000000e+00 0.0000000e+00 
0.0000000e+00 0.0000000e+00 0.0000000e+00 
0.0000000e+00 0.0000000e+00 0.0000000e+00 
-1.9332843e-05 -1.0431025e-05 1.5603355e-05 
-3.3592652e-05 -8.1135749e-06 3.5365669e-05 
-4.4784920e-05 -9.5869814e-07 4.0116502e-05 
-3.9027705e-05 3.2557080e-06 3.0105251e-05 
-2.5761701e-05 2.5822708e-05 1.1772191e-05 
-1.1329249e-05 2.9041654e-05 -3.1888387e-06 
-8.1886210e-06 4.3210937e-05 -2.3369883e-05 
6.2003546e-06 8.3319637e-06 -3.1327003e-05 
-6.7291776e-06 -2.5836405e-05 -4.2843363e-05 
-4.5488737e-06 -5.1270908e-05 -4.7369285e-05 
1.7730221e-06 -1.8039182e-05 -2.2756429e-05 
3.5492794e-06 -1.3827093e-05 1.8655591e-06 
9.1700190e-07 -1.3201675e-05 2.0706655e-05 
1.6346386e-05 2.0168734e-05 2.9382247e-05 
7.6760534e-06 8.6388636e-06 2.5320283e-05 
2.0578341e-06 -2.2584962e-05 4.0884138e-06 
6.8641507e-06 -4.3042581e-07 -8.3038922e-06 
8.4902304e-06 8.7337212e-06 -1.3393633e-05 
-5.0947710e-06 -2.6206549e-06 -1.0795573e-05 
-1.1842893e-05 -4.7953299e-06 5.8229298e-06 
-2.0862573e-05 -6.2717736e-06 1.9428995e-05 
-2.2938590e-05 -2.9450830e-06 3.3230346e-05 
-3.0851930e-05 3.4498845e-07 3.4642195e-05 
-3.1838546e-05 2.4888010e-05 2.2095222e-05 
-5.7403136e-06 5.5755427e-05 2.3296341e-06 
-2.1387777e-06 5.3839580e-05 -1.3507844e-05 
-8.8814049e-06 2.2263994e-05 -3.3063308e-05 
3.6479080e-06 -1.0497980e-05 -4.8268746e-05 
-1.0053072e-05 -4.3086475e-05 -5.2912008e-05 
-7.9271149e-06 -3.6190439e-05 -4.4930406e-05 
2.9812379e-06 -1.6602366e-05 -1.7040835e-05 
8.7297650e-07 -9.8865430e-06 8.3886107e-06 
3.5240462e-06 -6.9858734e-06 2.5617637e-05 
1.4883181e-05 1.2576389e-05 2.6221531e-05 
8.5462752e-06 9.9032004e-06 2.6090413e-05 
7.3160459e-07 -1.3875191e-05 1.6997092e-05 
5.2575397e-06 -1.0105839e-05 2.8220281e-06 
1.4773674e-06 7.0275678e-06 -2.5967308e-06 
-1.4600765e-06 2.0553919e-06 -1.8641160e-06 
-7.2165130e-07 -2.9543635e-06 3.9664985e-07 
8.8587029e-07 -1.0222742e-06 7.2495607e-07 
-1.8380088e-07 1.8178454e-06 -4.1629252e-07 
-4.7655010e-07 1.5182327e-07 -1.8902698e-07 
2.1156727e-07 -8.2928841e-07 2.0912246e-07 
5.8243121e-09 2.2430005e-07 -2.4041839e-07 
-1.4859998e-08 1.6650887e-08 -3.9142552e-08 
-4.4508383e-08 1.5056411e-08 5.6664597e-08 
2.0135985e-08 -3.3354635e-08 3.2711192e-08 
-9.0308241e-09 5.7226735e-08 -1.4171011e-08 
0.0000000e+00 -1.5854144e-05 0.0000000e+00 
0.0000000e+00 -1.9525023e-05 0.0000000e+00 
0.0000000e+00 2.8307945e-06 0.0000000e+00 
0.0000000e+00 -5.6000350e-05 0.0000000e+00 
0.0000000e+00 -9.0351961e-05 0.0000000e+00 
0.0000000e+00 -1.7375633e-04 0.0000000e+00 
0.0000000e+00 -4.6100450e-04 0.0000000e+00 
0.0000000e+00 -5.6345278e-04 0.0000000e+00 
0.0000000e+00 -5.8497669e-04 0.0000000e+00 
0.0000000e+00 -5.3426402e-04 0.0000000e+00 
0.0000000e+00 -3.8817400e-04 0.0000000e+00 
0.0000000e+00 -1.8439066e-04 0.0000000e+00 
0.0000000e+00 -1.1036081e-05 0.0000000e+00 
0.0000000e+00 2.9901061e-05 0.0000000e+00 
0.0000000e+00 -8.8168315e-07 0.0000000e+00 
0.0000000e+00 -3.1477055e-06 0.0000000e+00 
0.0000000e+00 -6.4431665e-06 0.0000000e+00 
0.0000000e+00 4.2416200e-06 0.0000000e+00 
0.0000000e+00 4.9863579e-06 0.0000000e+00 
0.0000000e+00 2.0401063e-05 0.0000000e+00 
0.0000000e+00 -1.0343435e-05 0.0000000e+00 
0.0000000e+00 -2.3443405e-05 0.0000000e+00 
0.0000000e+00 -8.1558619e-06 0.0000000e+00 
0.0000000e+00 -2.5292591e-05 0.0000000e+00 
0.0000000e+00 -1.0852757e-04 0.0000000e+00 
0.0000000e+00 -2.6296661e-04 0.0000000e+00 
0.0000000e+00 -4.3926420e-04 0.0000000e+00 
0.0000000e+00 -6.0993485e-04 0.0000000e+00 
0.0000000e+00 -5.5721839e-04 0.0000000e+00 
0.0000000e+00 -4.7799625e-04 0.0000000e+00 
0.0000000e+00 -3.5369545e-04 0.0000000e+00 
0.0000000e+00 -1.2520952e-04 0.0000000e+00 
0.0000000e+00 -1.8316441e-05 0.0000000e+00 
0.0000000e+00 3.1870466e-05 0.0000000e+00 
0.0000000e+00 4.9025965e-07 0.0000000e+00 
0.0000000e+00 9.8718272e-07 0.0000000e+00 
0.0000000e+00 4.3215096e-06 0.0000000e+00 
0.0000000e+00 2.0263180e-06 0.0000000e+00 
0.0000000e+00 6.7280737e-08 0.0000000e+00 
0.0000000e+00 1.0280244e-06 0.0000000e+00 
0.0000000e+00 -1.5831163e-06 0.0000000e+00 
0.0000000e+00 -3.0276689e-07 0.0000000e+00 
0.0000000e+00 1.4522919e-06 0.0000000e+00 
0.0000000e+00 -4.7101585e-07 0.0000000e+00 
0.0000000e+00 -5.3883264e-07 0.0000000e+00 
0.0000000e+00 4.3524670e-07 0.0000000e+00 
0.0000000e+00 5.3402198e-07 0.0000000e+00 
0.0000000e+00 -4.4565547e-07 0.0000000e+00 
0.0000000e+00 6.3098980e-08 0.0000000e+00 
-1.8400509e-05 -8.7370754e-06 1.3891698e-05 
-1.9963847e-05 -2.2800507e-06 2.6050573e-05 
-1.4546619e-05 -9.1404518e-06 2.5630514e-05 
-9.7319962e-06 9.1671727e-06 1.5953143e-05 
5.4371960e-09 4.0074426e-08 1.9316136e-08 
-3.3649044e-08 1.4658722e-08 -3.9939309e-08 
4.4064798e-08 3.2131020e-09 -4.4103189e-08 
-5.0493387e-08 -2.9092556e-08 3.1840969e-08 
-2.1794753e-05 -2.0959049e-05 6.0215166e-06 
8.9287377e-09 2.2664066e-08 1.1986181e-08 
1.0936612e-05 -2.3725590e-05 1.2144359e-05 
-1.0393965e-05 -2.0301735e-05 3.3874061e-05 
0.0000000e+00 -3.6031091e-05 0.0000000e+00 
0.0000000e+00 -1.9875106e-06 0.0000000e+00 
0.0000000e+00 -2.6833761e-05 0.0000000e+00 
0.0000000e+00 -1.0354954e-04 0.0000000e+00 
0.0000000e+00 -1.7716817e-04 0.0000000e+00 
0.0000000e+00 -4.8857852e-04 0.0000000e+00 
0.0000000e+00 -9.5796498e-04 0.0000000e+00 
0.0000000e+00 -1.2283809e-03 0.0000000e+00 
0.0000000e+00 -1.1956815e-03 0.0000000e+00 
0.0000000e+00 -1.0860203e-03 0.0000000e+00 
0.0000000e+00 -7.7850220e-04 0.0000000e+00 
0.0000000e+00 -3.0723884e-04 0.0000000e+00 
0.0000000e+00 2.0279516e-05 0.0000000e+00 
0.0000000e+00 6.5155735e-05 0.0000000e+00 