# vtk DataFile Version 4.0
vtk output
ASCII
DATASET UNSTRUCTURED_GRID
POINTS 1919 float
0.0000000e+00 0.0000000e+00 0.0000000e+00 
0.0000000e+00 0.0000000e+00 5.0000000e+01 
5.0000000e+00 0.0000000e+00 0.0000000e+00 
5.0000000e+00 0.0000000e+00 5.0000000e+01 
5.0000000e+00 1.0000000e+00 0.0000000e+00 
5.0000000e+00 1.0000000e+00 5.0000000e+01 
0.0000000e+00 1.0000000e+00 0.0000000e+00 
0.0000000e+00 1.0000000e+00 5.0000000e+01 
5.0000000e+00 2.0000000e+00 0.0000000e+00 
5.0000000e+00 2.0000000e+00 5.0000000e+01 
3.0000000e+00 2.0000000e+00 0.0000000e+00 
3.0000000e+00 2.0000000e+00 5.0000000e+01 
0.0000000e+00 2.0000000e+00 0.0000000e+00 
0.0000000e+00 2.0000000e+00 5.0000000e+01 
1.5000000e+00 3.0000000e+00 0.0000000e+00 
1.5000000e+00 3.0000000e+00 5.0000000e+01 
7.5000000e-01 3.0000000e+00 0.0000000e+00 
7.5000000e-01 3.0000000e+00 5.0000000e+01 
0.0000000e+00 3.0000000e+00 0.0000000e+00 
0.0000000e+00 3.0000000e+00 5.0000000e+01 
7.5000000e-01 3.0000000e+00 5.0000000e-01 
7.5000000e-01 3.0000000e+00 1.0000000e+00 
7.5000000e-01 3.0000000e+00 1.5000000e+00 
7.5000000e-01 3.0000000e+00 2.0000000e+00 
7.5000000e-01 3.0000000e+00 2.5000000e+00 
7.5000000e-01 3.0000000e+00 3.0000000e+00 
7.5000000e-01 3.0000000e+00 3.5000000e+00 
7.5000000e-01 3.0000000e+00 4.0000000e+00 
7.5000000e-01 3.0000000e+00 4.5000000e+00 
7.5000000e-01 3.0000000e+00 5.0000000e+00 
7.5000000e-01 3.0000000e+00 5.5000000e+00 
7.5000000e-01 3.0000000e+00 6.0000000e+00 
7.5000000e-01 3.0000000e+00 6.5000000e+00 
7.5000000e-01 3.0000000e+00 7.0000000e+00 
7.5000000e-01 3.0000000e+00 7.5000000e+00 
7.5000000e-01 3.0000000e+00 8.0000000e+00 
7.5000000e-01 3.0000000e+00 8.5000000e+00 
7.5000000e-01 3.0000000e+00 9.0000000e+00 
7.5000000e-01 3.0000000e+00 9.5000000e+00 
7.5000000e-01 3.0000000e+00 1.0000000e+01 
7.5000000e-01 3.0000000e+00 1.0500000e+01 
7.5000000e-01 3.0000000e+00 1.1000000e+01 
7.5000000e-01 3.0000000e+00 1.1500000e+01 
7.5000000e-01 3.0000000e+00 1.2000000e+01 
7.5000000e-01 3.0000000e+00 1.2500000e+01 
7.5000000e-01 3.0000000e+00 1.3000000e+01 
7.5000000e-01 3.0000000e+00 1.3500000e+01 
7.5000000e-01 3.0000000e+00 1.4000000e+01 
7.5000000e-01 3.0000000e+00 1.4500000e+01 
7.5000000e-01 3.0000000e+00 1.5000000e+01 
7.5000000e-01 3.0000000e+00 1.5500000e+01 
7.5000000e-01 3.0000000e+00 1.6000000e+01 
7.5000000e-01 3.0000000e+00 1.6500000e+01 
7.5000000e-01 3.0000000e+00 1.7000000e+01 
7.5000000e-01 3.0000000e+00 1.7500000e+01 
7.5000000e-01 3.0000000e+00 1.8000000e+01 
7.5000000e-01 3.0000000e+00 1.8500000e+01 
7.5000000e-01 3.0000000e+00 1.9000000e+01 
7.5000000e-01 3.0000000e+00 1.9500000e+01 
7.5000000e-01 3.0000000e+00 2.0000000e+01 
7.5000000e-01 3.0000000e+00 2.0500000e+01 
7.5000000e-01 3.0000000e+00 2.1000000e+01 
7.5000000e-01 3.0000000e+00 2.1500000e+01 
7.5000000e-01 3.0000000e+00 2.2000000e+01 
7.5000000e-01 3.0000000e+00 2.2500000e+01 
7.5000000e-01 3.0000000e+00 2.3000000e+01 
7.5000000e-01 3.0000000e+00 2.3500000e+01 
7.5000000e-01 3.0000000e+00 2.4000000e+01 
7.5000000e-01 3.0000000e+00 2.4500000e+01 
7.5000000e-01 3.0000000e+00 2.5000000e+01 
7.5000000e-01 3.0000000e+00 2.5500000e+01 
7.5000000e-01 3.0000000e+00 2.6000000e+01 
7.5000000e-01 3.0000000e+00 2.6500000e+01 
7.5000000e-01 3.0000000e+00 2.7000000e+01 
7.5000000e-01 3.0000000e+00 2.7500000e+01 
7.5000000e-01 3.0000000e+00 2.8000000e+01 
7.5000000e-01 3.0000000e+00 2.8500000e+01 
7.5000000e-01 3.0000000e+00 2.9000000e+01 
7.5000000e-01 3.0000000e+00 2.9500000e+01 
7.5000000e-01 3.0000000e+00 3.0000000e+01 
7.5000000e-01 3.0000000e+00 3.0500000e+01 
7.5000000e-01 3.0000000e+00 3.1000000e+01 
7.5000000e-01 3.0000000e+00 3.1500000e+01 
7.5000000e-01 3.0000000e+00 3.2000000e+01 
7.5000000e-01 3.0000000e+00 3.2500000e+01 
7.5000000e-01 3.0000000e+00 3.3000000e+01 
7.5000000e-01 3.0000000e+00 3.3500000e+01 
7.5000000e-01 3.0000000e+00 3.4000000e+01 
7.5000000e-01 3.0000000e+00 3.4500000e+01 
7.5000000e-01 3.0000000e+00 3.5000000e+01 
7.5000000e-01 3.0000000e+00 3.5500000e+01 
7.5000000e-01 3.0000000e+00 3.6000000e+01 
7.5000000e-01 3.0000000e+00 3.6500000e+01 
7.5000000e-01 3.0000000e+00 3.7000000e+01 
7.5000000e-01 3.0000000e+00 3.7500000e+01 
7.5000000e-01 3.0000000e+00 3.8000000e+01 
7.5000000e-01 3.0000000e+00 3.8500000e+01 
7.5000000e-01 3.0000000e+00 3.9000000e+01 
7.5000000e-01 3.0000000e+00 3.9500000e+01 
7.5000000e-01 3.0000000e+00 4.0000000e+01 
7.5000000e-01 3.0000000e+00 4.0500000e+01 
7.5000000e-01 3.0000000e+00 4.1000000e+01 
7.5000000e-01 3.0000000e+00 4.1500000e+01 
7.5000000e-01 3.0000000e+00 4.2000000e+01 
7.5000000e-01 3.0000000e+00 4.2500000e+01 
7.5000000e-01 3.0000000e+00 4.3000000e+01 
7.5000000e-01 3.0000000e+00 4.3500000e+01 
7.5000000e-01 3.0000000e+00 4.4000000e+01 
7.5000000e-01 3.0000000e+00 4.4500000e+01 
7.5000000e-01 3.0000000e+00 4.5000000e+01 
7.5000000e-01 3.0000000e+00 4.5500000e+01 
7.5000000e-01 3.0000000e+00 4.6000000e+01 
7.5000000e-01 3.0000000e+00 4.6500000e+01 
7.5000000e-01 3.0000000e+00 4.7000000e+01 
7.5000000e-01 3.0000000e+00 4.7500000e+01 
7.5000000e-01 3.0000000e+00 4.8000000e+01 
7.5000000e-01 3.0000000e+00 4.8500000e+01 
7.5000000e-01 3.0000000e+00 4.9000000e+01 
7.5000000e-01 3.0000000e+00 4.9500000e+01 
7.5000000e-01 3.0250001e+00 0.0000000e+00 
7.5000000e-01 3.0250001e+00 5.0000000e-01 
7.5000000e-01 3.0250001e+00 1.0000000e+00 
7.5000000e-01 3.0250001e+00 1.5000000e+00 
7.5000000e-01 3.0250001e+00 2.0000000e+00 
7.5000000e-01 3.0250001e+00 2.5000000e+00 
7.5000000e-01 3.0250001e+00 3.0000000e+00 
7.5000000e-01 3.0250001e+00 3.5000000e+00 
7.5000000e-01 3.0250001e+00 4.0000000e+00 
7.5000000e-01 3.0250001e+00 4.5000000e+00 
7.5000000e-01 3.0250001e+00 5.0000000e+00 
7.5000000e-01 3.0250001e+00 5.5000000e+00 
7.5000000e-01 3.0250001e+00 6.0000000e+00 
7.5000000e-01 3.0250001e+00 6.5000000e+00 
7.5000000e-01 3.0250001e+00 7.0000000e+00 
7.5000000e-01 3.0250001e+00 7.5000000e+00 
7.5000000e-01 3.0250001e+00 8.0000000e+00 
7.5000000e-01 3.0250001e+00 8.5000000e+00 
7.5000000e-01 3.0250001e+00 9.0000000e+00 
7.5000000e-01 3.0250001e+00 9.5000000e+00 
7.5000000e-01 3.0250001e+00 1.0000000e+01 
7.5000000e-01 3.0250001e+00 1.0500000e+01 
7.5000000e-01 3.0250001e+00 1.1000000e+01 
7.5000000e-01 3.0250001e+00 1.1500000e+01 
7.5000000e-01 3.0250001e+00 1.2000000e+01 
7.5000000e-01 3.0250001e+00 1.2500000e+01 
7.5000000e-01 3.0250001e+00 1.3000000e+01 
7.5000000e-01 3.0250001e+00 1.3500000e+01 
7.5000000e-01 3.0250001e+00 1.4000000e+01 
7.5000000e-01 3.0250001e+00 1.4500000e+01 
7.5000000e-01 3.0250001e+00 1.5000000e+01 
7.5000000e-01 3.0250001e+00 1.5500000e+01 
7.5000000e-01 3.0250001e+00 1.6000000e+01 
7.5000000e-01 3.0250001e+00 1.6500000e+01 
7.5000000e-01 3.0250001e+00 1.7000000e+01 
7.5000000e-01 3.0250001e+00 1.7500000e+01 
7.5000000e-01 3.0250001e+00 1.8000000e+01 
7.5000000e-01 3.0250001e+00 1.8500000e+01 
7.5000000e-01 3.0250001e+00 1.9000000e+01 
7.5000000e-01 3.0250001e+00 1.9500000e+01 
7.5000000e-01 3.0250001e+00 2.0000000e+01 
7.5000000e-01 3.0250001e+00 2.0500000e+01 
7.5000000e-01 3.0250001e+00 2.1000000e+01 
7.5000000e-01 3.0250001e+00 2.1500000e+01 
7.5000000e-01 3.0250001e+00 2.2000000e+01 
7.5000000e-01 3.0250001e+00 2.2500000e+01 
7.5000000e-01 3.0250001e+00 2.3000000e+01 
7.5000000e-01 3.0250001e+00 2.3500000e+01 
7.5000000e-01 3.0250001e+00 2.4000000e+01 
7.5000000e-01 3.0250001e+00 2.4500000e+01 
7.5000000e-01 3.0250001e+00 2.5000000e+01 
7.5000000e-01 3.0250001e+00 2.5500000e+01 
7.5000000e-01 3.0250001e+00 2.6000000e+01 
7.5000000e-01 3.0250001e+00 2.6500000e+01 
7.5000000e-01 3.0250001e+00 2.7000000e+01 
7.5000000e-01 3.0250001e+00 2.7500000e+01 
7.5000000e-01 3.0250001e+00 2.8000000e+01 
7.5000000e-01 3.0250001e+00 2.8500000e+01 
7.5000000e-01 3.0250001e+00 2.9000000e+01 
7.5000000e-01 3.0250001e+00 2.9500000e+01 
7.5000000e-01 3.0250001e+00 3.0000000e+01 
7.5000000e-01 3.0250001e+00 3.0500000e+01 
7.5000000e-01 3.0250001e+00 3.1000000e+01 
7.5000000e-01 3.0250001e+00 3.1500000e+01 
7.5000000e-01 3.0250001e+00 3.2000000e+01 
7.5000000e-01 3.0250001e+00 3.2500000e+01 
7.5000000e-01 3.0250001e+00 3.3000000e+01 
7.5000000e-01 3.0250001e+00 3.3500000e+01 
7.5000000e-01 3.0250001e+00 3.4000000e+01 
7.5000000e-01 3.0250001e+00 3.4500000e+01 
7.5000000e-01 3.0250001e+00 3.5000000e+01 
7.5000000e-01 3.0250001e+00 3.5500000e+01 
7.5000000e-01 3.0250001e+00 3.6000000e+01 
7.5000000e-01 3.0250001e+00 3.6500000e+01 
7.5000000e-01 3.0250001e+00 3.7000000e+01 
7.5000000e-01 3.0250001e+00 3.7500000e+01 
7.5000000e-01 3.0250001e+00 3.8000000e+01 
7.5000000e-01 3.0250001e+00 3.8500000e+01 
7.5000000e-01 3.0250001e+00 3.9000000e+01 
7.5000000e-01 3.0250001e+00 3.9500000e+01 
7.5000000e-01 3.0250001e+00 4.0000000e+01 
7.5000000e-01 3.0250001e+00 4.0500000e+01 
7.5000000e-01 3.0250001e+00 4.1000000e+01 
7.5000000e-01 3.0250001e+00 4.1500000e+01 
7.5000000e-01 3.0250001e+00 4.2000000e+01 
7.5000000e-01 3.0250001e+00 4.2500000e+01 
7.5000000e-01 3.0250001e+00 4.3000000e+01 
7.5000000e-01 3.0250001e+00 4.3500000e+01 
7.5000000e-01 3.0250001e+00 4.4000000e+01 
7.5000000e-01 3.0250001e+00 4.4500000e+01 
7.5000000e-01 3.0250001e+00 4.5000000e+01 
7.5000000e-01 3.0250001e+00 4.5500000e+01 
7.5000000e-01 3.0250001e+00 4.6000000e+01 
7.5000000e-01 3.0250001e+00 4.6500000e+01 
7.5000000e-01 3.0250001e+00 4.7000000e+01 
7.5000000e-01 3.0250001e+00 4.7500000e+01 
7.5000000e-01 3.0250001e+00 4.8000000e+01 
7.5000000e-01 3.0250001e+00 4.8500000e+01 
7.5000000e-01 3.0250001e+00 4.9000000e+01 
7.5000000e-01 3.0250001e+00 4.9500000e+01 
7.5000000e-01 3.0250001e+00 5.0000000e+01 
1.5000000e+00 3.0000000e+00 2.5000000e+01 
3.0000000e+00 2.0000000e+00 2.5000000e+01 
4.0000000e+00 2.0000000e+00 2.5000000e+01 
5.0000000e+00 2.0000000e+00 2.5000000e+01 
0.0000000e+00 3.0000000e+00 2.5000000e+01 
0.0000000e+00 0.0000000e+00 1.0000000e+00 
0.0000000e+00 0.0000000e+00 2.0000000e+00 
0.0000000e+00 0.0000000e+00 3.0000000e+00 
0.0000000e+00 0.0000000e+00 4.0000000e+00 
0.0000000e+00 0.0000000e+00 5.0000000e+00 
[...]
POINT_DATA 1919
FIELD FieldData 3
DISPLACEMENT 3 1919  float
0.0000000e+00 0.0000000e+00 0.0000000e+00 
0.0000000e+00 0.0000000e+00 0.0000000e+00 
0.0000000e+00 0.0000000e+00 0.0000000e+00 
0.0000000e+00 0.0000000e+00 0.0000000e+00 
1.1569750e-06 -5.3083284e-07 -1.1599903e-06 
9.9223905e-07 -1.0476518e-06 2.1967337e-06 
0.0000000e+00 -3.7306952e-06 0.0000000e+00 
0.0000000e+00 -2.1246803e-06 0.0000000e+00 
1.0916817e-06 -7.8515239e-07 6.0900014e-08 
1.0667889e-06 -9.0953807e-07 2.9307391e-06 
-1.5830021e-06 -1.8083460e-07 -1.2343190e-07 
1.3378867e-07 -3.1509041e-06 5.7343259e-06 
0.0000000e+00 -6.4320511e-06 0.0000000e+00 
0.0000000e+00 -1.9321581e-06 0.0000000e+00 
-1.3219678e-06 5.8710943e-06 -7.0313836e-06 
-3.1726181e-06 -2.5198594e-06 9.2275741e-06 
9.4782189e-07 1.7484726e-05 1.8235623e-07 
-4.7931840e-06 -7.8313460e-06 7.8007770e-06 
0.0000000e+00 -6.4749788e-06 0.0000000e+00 
0.0000000e+00 8.5936708e-06 0.0000000e+00 
-3.6245538e-06 1.5429838e-05 -5.4085785e-06 
-3.4891787e-06 1.0965227e-05 -7.4119630e-06 
-6.9004153e-07 6.2727263e-06 -6.3686412e-06 
-1.9612776e-06 2.5647398e-06 -4.6103578e-06 
-3.5026092e-06 -1.3583823e-07 -4.1231879e-06 
-4.1643839e-06 -2.5973820e-06 -7.2505418e-06 
-3.5557587e-06 -5.5752607e-06 -8.9023943e-06 
-3.5790420e-06 -9.9700846e-06 -8.8597753e-06 
-1.3263935e-06 -1.4007569e-05 -8.4818239e-06 
-4.8312550e-06 -1.5109629e-05 -2.7179656e-06 
-6.7048518e-06 -1.2498338e-05 9.8061867e-07 
-7.9820384e-06 -7.7028335e-06 5.1062907e-06 
-5.4396819e-06 -3.4733810e-06 5.7085717e-06 
-1.0969806e-05 -2.3488492e-06 6.7025617e-06 
-7.5559246e-06 -1.8959661e-06 6.8492382e-06 
-6.7423466e-06 2.7646868e-06 1.2152861e-05 
-5.2297455e-06 1.2199332e-05 1.8896355e-05 
-6.1132669e-06 1.9981780e-05 2.1290662e-05 
-7.3507667e-06 1.8548701e-05 1.8010600e-05 
-1.3739164e-05 7.1389227e-06 9.0924614e-06 
-1.2771746e-05 -4.0548011e-06 4.0636960e-06 
-9.0791536e-06 -3.6274489e-06 1.8524872e-06 
-9.5132809e-06 9.0087378e-06 1.2840118e-06 
-7.7044242e-06 2.2143637e-05 -1.0287296e-06 
-2.2268554e-07 2.2977285e-05 1.1709960e-06 
-1.1934387e-06 7.7455124e-06 3.2755449e-06 
-1.1741998e-05 -1.4772183e-06 3.3016572e-06 
-5.1478673e-07 2.8664819e-05 2.4112276e-06 
1.1679010e-05 9.1103633e-05 1.7582608e-05 
1.6171785e-05 1.3632583e-04 2.3735876e-05 
8.8981606e-06 1.2066832e-04 4.0613715e-05 
8.3264540e-06 2.2431383e-05 6.7242596e-05 
-9.9374820e-06 -1.4945223e-04 1.0558862e-04 
-5.5557975e-05 -4.0142663e-04 1.9450915e-04 
-6.2827072e-05 -8.2518614e-04 2.1394364e-04 
-8.2822502e-05 -1.5429314e-03 1.5610657e-04 
-1.5302189e-04 -2.6435312e-03 2.5678118e-04 
-1.9021166e-04 -3.9497404e-03 1.0436841e-04 
-2.6778787e-04 -4.8864903e-03 1.1622458e-04 
-2.8278003e-04 -4.7318013e-03 3.9744291e-06 
-2.4300434e-04 -4.2217365e-03 -4.8021651e-05 
-2.4832174e-04 -4.0557720e-03 -9.0976391e-05 
-2.4787110e-04 -4.3712952e-03 -1.0692185e-04 
-1.8016073e-04 -4.5202640e-03 -2.0303619e-04 
-2.7520713e-04 -3.6788133e-03 -2.9168758e-04 
-1.3700021e-04 -2.3604315e-03 -1.1951802e-04 
-6.6174602e-05 -1.1846452e-03 -2.9336152e-04 
-1.7234519e-05 -3.5964549e-04 -1.5107302e-04 
1.9911938e-06 6.7472887e-05 -1.1515788e-04 
3.1252744e-06 2.0007572e-04 -6.3958323e-05 
1.2887381e-05 1.8689432e-04 -1.9721914e-05 
6.3878201e-06 1.2974344e-04 -7.8253852e-06 
3.9356446e-06 7.2172974e-05 1.0354308e-05 
-2.8545294e-06 1.8333523e-05 7.1561535e-06 
-6.8753943e-06 -2.6137701e-05 1.1915028e-05 
-1.1194415e-05 -4.8282021e-05 1.1638382e-05 
-9.1967249e-06 -4.0811992e-05 1.4622889e-05 
-7.1676618e-06 -1.6951260e-05 2.0087966e-05 
-7.6845954e-06 2.5471437e-08 2.1188107e-05 
-7.7275954e-06 4.7452187e-07 1.8249164e-05 
-2.5844031e-06 -5.7260650e-06 1.0741235e-05 
-4.1310177e-06 -5.3516083e-06 6.7794012e-06 
-5.5605951e-06 6.1310138e-06 1.0344497e-05 
-3.2063945e-06 2.4748715e-05 1.1749769e-05 
-4.6386276e-06 3.9343115e-05 1.3990504e-05 
-2.6501643e-06 3.6723988e-05 1.1201002e-05 
4.1403223e-06 2.2478624e-05 5.8495571e-06 
5.5831638e-06 2.0293866e-05 5.0773788e-06 
-1.1862561e-06 5.2579835e-05 1.5078148e-05 
1.4364049e-05 1.1308162e-04 1.9981970e-05 
1.8739162e-05 1.4546211e-04 5.0668918e-05 
1.2553246e-05 7.1787101e-05 7.5576929e-05 
-8.2022007e-06 -1.4401828e-04 1.0528789e-04 
-1.5055167e-05 -4.9924740e-04 1.2496230e-04 
-8.1593411e-05 -1.0210188e-03 2.0059584e-04 
-2.6679513e-04 -1.7857281e-03 3.6346028e-04 
-1.7283096e-04 -2.8466771e-03 2.6533287e-04 
-1.9218175e-04 -4.0800790e-03 1.0335370e-04 
-2.5522447e-04 -4.9462179e-03 8.1400598e-05 
-2.6461165e-04 -4.7095646e-03 1.6977046e-05 
-2.3227745e-04 -4.1753021e-03 -3.5420799e-05 
-2.1910341e-04 -3.9916453e-03 -8.2595769e-05 
-2.0958189e-04 -4.2637209e-03 -8.0748818e-05 
-2.2398008e-04 -4.3407003e-03 -1.5657487e-04 
-1.6941516e-04 -3.4115270e-03 -2.7875978e-04 
-1.3735981e-04 -2.0607312e-03 -1.7541868e-04 
-5.7754172e-05 -9.2553889e-04 -2.3711038e-04 
-2.2084414e-05 -2.0732173e-04 -1.2197762e-04 
6.0242078e-06 1.2461614e-04 -1.0194408e-04 
1.1341574e-05 2.1391064e-04 -5.1354476e-05 
1.8902354e-05 1.9797942e-04 -1.3844917e-05 
1.7033750e-05 1.4443482e-04 -3.2535606e-06 
8.7198678e-06 7.6740042e-05 1.2980291e-05 
6.0215671e-06 1.3682981e-05 1.0665009e-05 
3.6857812e-06 -2.2815149e-05 1.3791159e-05 
2.5508921e-06 -2.7171875e-05 1.1833512e-05 
3.1705049e-06 -1.4047275e-05 1.0338821e-05 
1.4780868e-06 -4.1004655e-06 1.0358880e-05 
-2.1277122e-06 -4.8720949e-06 9.4565494e-06 
0.0000000e+00 1.7428523e-05 0.0000000e+00 
0.0000000e+00 1.5442272e-05 0.0000000e+00 
0.0000000e+00 1.1002659e-05 0.0000000e+00 
0.0000000e+00 6.3020070e-06 0.0000000e+00 
0.0000000e+00 2.5804561e-06 0.0000000e+00 
0.0000000e+00 -1.1985418e-07 0.0000000e+00 
0.0000000e+00 -2.5602867e-06 0.0000000e+00 
0.0000000e+00 -5.6782515e-06 0.0000000e+00 
0.0000000e+00 -1.0025388e-05 0.0000000e+00 
0.0000000e+00 -1.3975865e-05 0.0000000e+00 
0.0000000e+00 -1.5036856e-05 0.0000000e+00 
0.0000000e+00 -1.2433607e-05 0.0000000e+00 
0.0000000e+00 -7.6690094e-06 0.0000000e+00 
0.0000000e+00 -3.6487409e-06 0.0000000e+00 
0.0000000e+00 -2.4903647e-06 0.0000000e+00 
0.0000000e+00 -1.8163834e-06 0.0000000e+00 
0.0000000e+00 3.0097399e-06 0.0000000e+00 
0.0000000e+00 1.2353266e-05 0.0000000e+00 
0.0000000e+00 1.9852750e-05 0.0000000e+00 
0.0000000e+00 1.8116487e-05 0.0000000e+00 
0.0000000e+00 6.9573725e-06 0.0000000e+00 
0.0000000e+00 -3.7763841e-06 0.0000000e+00 
0.0000000e+00 -3.1673349e-06 0.0000000e+00 
0.0000000e+00 9.2383543e-06 0.0000000e+00 
0.0000000e+00 2.2056578e-05 0.0000000e+00 
0.0000000e+00 2.1992710e-05 0.0000000e+00 
0.0000000e+00 6.9506800e-06 0.0000000e+00 
0.0000000e+00 -3.5746115e-07 0.0000000e+00 
0.0000000e+00 3.0314197e-05 0.0000000e+00 
0.0000000e+00 9.1510927e-05 0.0000000e+00 
0.0000000e+00 1.3611004e-04 0.0000000e+00 
0.0000000e+00 1.1928639e-04 0.0000000e+00 
0.0000000e+00 2.2236489e-05 0.0000000e+00 
0.0000000e+00 -1.4681258e-04 0.0000000e+00 
0.0000000e+00 -4.0011198e-04 0.0000000e+00 
0.0000000e+00 -8.2519010e-04 0.0000000e+00 
0.0000000e+00 -1.5511665e-03 0.0000000e+00 
0.0000000e+00 -2.6579471e-03 0.0000000e+00 
0.0000000e+00 -3.9752359e-03 0.0000000e+00 
0.0000000e+00 -4.9073235e-03 0.0000000e+00 
0.0000000e+00 -4.7573019e-03 0.0000000e+00 
0.0000000e+00 -4.2420533e-03 0.0000000e+00 
0.0000000e+00 -4.0840800e-03 0.0000000e+00 
0.0000000e+00 -4.3968195e-03 0.0000000e+00 
0.0000000e+00 -4.5467825e-03 0.0000000e+00 
0.0000000e+00 -3.7000042e-03 0.0000000e+00 
0.0000000e+00 -2.3772472e-03 0.0000000e+00 
0.0000000e+00 -1.1900113e-03 0.0000000e+00 
0.0000000e+00 -3.6462749e-04 0.0000000e+00 
0.0000000e+00 6.6560497e-05 0.0000000e+00 
0.0000000e+00 2.0254157e-04 0.0000000e+00 
0.0000000e+00 1.8898702e-04 0.0000000e+00 
0.0000000e+00 1.3075651e-04 0.0000000e+00 
0.0000000e+00 7.1983086e-05 0.0000000e+00 
0.0000000e+00 1.8333780e-05 0.0000000e+00 
0.0000000e+00 -2.5850815e-05 0.0000000e+00 
0.0000000e+00 -4.7816226e-05 0.0000000e+00 
0.0000000e+00 -4.0668627e-05 0.0000000e+00 
0.0000000e+00 -1.7334412e-05 0.0000000e+00 
0.0000000e+00 -4.0165210e-07 0.0000000e+00 
0.0000000e+00 4.4355627e-07 0.0000000e+00 
0.0000000e+00 -5.6924646e-06 0.0000000e+00 
0.0000000e+00 -5.3432905e-06 0.0000000e+00 
0.0000000e+00 6.4969859e-06 0.0000000e+00 
0.0000000e+00 2.5173247e-05 0.0000000e+00 
0.0000000e+00 3.8925235e-05 0.0000000e+00 
0.0000000e+00 3.6068606e-05 0.0000000e+00 
0.0000000e+00 2.2014650e-05 0.0000000e+00 
0.0000000e+00 2.0799731e-05 0.0000000e+00 
0.0000000e+00 5.4688011e-05 0.0000000e+00 
0.0000000e+00 1.1473305e-04 0.0000000e+00 
0.0000000e+00 1.4453397e-04 0.0000000e+00 
0.0000000e+00 7.0160786e-05 0.0000000e+00 
0.0000000e+00 -1.4392358e-04 0.0000000e+00 
0.0000000e+00 -4.9816235e-04 0.0000000e+00 
0.0000000e+00 -1.0213301e-03 0.0000000e+00 
0.0000000e+00 -1.7906715e-03 0.0000000e+00 
0.0000000e+00 -2.8606730e-03 0.0000000e+00 
0.0000000e+00 -4.1076839e-03 0.0000000e+00 
0.0000000e+00 -4.9702665e-03 0.0000000e+00 
0.0000000e+00 -4.7365329e-03 0.0000000e+00 
0.0000000e+00 -4.1940869e-03 0.0000000e+00 
0.0000000e+00 -4.0174020e-03 0.0000000e+00 
0.0000000e+00 -4.2884476e-03 0.0000000e+00 
0.0000000e+00 -4.3706005e-03 0.0000000e+00 
0.0000000e+00 -3.4303272e-03 0.0000000e+00 
0.0000000e+00 -2.0770428e-03 0.0000000e+00 
0.0000000e+00 -9.3321840e-04 0.0000000e+00 
0.0000000e+00 -2.1007750e-04 0.0000000e+00 
0.0000000e+00 1.2559214e-04 0.0000000e+00 
0.0000000e+00 2.1637432e-04 0.0000000e+00 
0.0000000e+00 1.9923315e-04 0.0000000e+00 
0.0000000e+00 1.4460116e-04 0.0000000e+00 
0.0000000e+00 7.6882920e-05 0.0000000e+00 
0.0000000e+00 1.4372956e-05 0.0000000e+00 
0.0000000e+00 -2.2288188e-05 0.0000000e+00 
0.0000000e+00 -2.7150143e-05 0.0000000e+00 
0.0000000e+00 -1.4479404e-05 0.0000000e+00 
0.0000000e+00 -4.5312195e-06 0.0000000e+00 
0.0000000e+00 -4.8811862e-06 0.0000000e+00 
0.0000000e+00 -7.5525259e-06 0.0000000e+00 
9.0888097e-06 6.0501468e-05 -8.3489773e-05 
1.2130650e-05 6.8429922e-06 -9.6252998e-06 
8.4588701e-06 1.9345764e-06 -3.3073690e-07 
3.0450383e-06 2.3254981e-06 5.4025177e-06 
0.0000000e+00 1.3726260e-04 0.0000000e+00 
0.0000000e+00 0.0000000e+00 0.0000000e+00 
0.0000000e+00 0.0000000e+00 0.0000000e+00 
0.0000000e+00 0.0000000e+00 0.0000000e+00 
0.0000000e+00 0.0000000e+00 0.0000000e+00 
0.0000000e+00 0.0000000e+00 0.0000000e+00 
0.0000000e+00 0.0000000e+00 0.0000000e+00 
0.0000000e+00 0.0000000e+00 0.0000000e+00 
0.0000000e+00 0.0000000e+00 0.0000000e+00 
0.0000000e+00 0.0000000e+00 0.0000000e+00 
0.0000000e+00 0.0000000e+00 0.0000000e+00 
0.0000000e+00 0.0000000e+00 0.0000000e+00 
0.0000000e+00 0.0000000e+00 0.0000000e+00 
0.0000000e+00 0.0000000e+00 0.0000000e+00 
0.0000000e+00 0.0000000e+00 0.0000000e+00 
0.0000000e+00 0.0000000e+00 0.0000000e+00 
0.0000000e+00 0.0000000e+00 0.0000000e+00 
0.0000000e+00 0.0000000e+00 0.0000000e+00 
0.0000000e+00 0.0000000e+00 0.0000000e+00 
0.0000000e+00 0.0000000e+00 0.0000000e+00 
0.0000000e+00 0.0000000e+00 0.0000000e+00 
0.0000000e+00 0.0000000e+00 0.0000000e+00 
0.0000000e+00 0.0000000e+00 0.0000000e+00 
0.0000000e+00 0.0000000e+00 0.0000000e+00 
0.0000000e+00 0.0000000e+00 0.0000000e+00 
0.0000000e+00 0.0000000e+00 0.0000000e+00 
0.0000000e+00 0.0000000e+00 0.0000000e+00 
0.0000000e+00 0.0000000e+00 0.0000000e+00 
0.0000000e+00 0.0000000e+00 0.0000000e+00 
0.0000000e+00 0.0000000e+00 0.0000000e+00 
0.0000000e+00 0.0000000e+00 0.0000000e+00 
0.0000000e+00 0.0000000e+00 0.0000000e+00 
0.0000000e+00 0.0000000e+00 0.0000000e+00 
0.0000000e+00 0.0000000e+00 0.0000000e+00 
0.0000000e+00 0.0000000e+00 0.0000000e+00 
0.0000000e+00 0.0000000e+00 0.0000000e+00 
0.0000000e+00 0.0000000e+00 0.0000000e+00 
0.0000000e+00 0.0000000e+00 0.0000000e+00 
0.0000000e+00 0.0000000e+00 0.0000000e+00 
0.0000000e+00 0.0000000e+00 0.0000000e+00 
0.0000000e+00 0.0000000e+00 0.0000000e+00 
0.0000000e+00 0.0000000e+00 0.0000000e+00 
0.0000000e+00 0.0000000e+00 0.0000000e+00 
0.0000000e+00 0.0000000e+00 0.0000000e+00 
0.0000000e+00 0.0000000e+00 0.0000000e+00 
0.0000000e+00 0.0000000e+00 0.0000000e+00 
0.0000000e+00 0.0000000e+00 0.0000000e+00 
0.0000000e+00 0.0000000e+00 0.0000000e+00 
0.0000000e+00 0.0000000e+00 0.0000000e+00 
0.0000000e+00 0.0000000e+00 0.0000000e+00 
0.0000000e+00 0.0000000e+00 0.0000000e+00 
0.0000000e+00 0.0000000e+00 0.0000000e+00 
0.0000000e+00 0.0000000e+00 0.0000000e+00 
0.0000000e+00 0.0000000e+00 0.0000000e+00 
0.0000000e+00 0.0000000e+00 0.0000000e+00 
0.0000000e+00 0.0000000e+00 0.0000000e+00 
0.0000000e+00 0.0000000e+00 0.0000000e+00 
0.0000000e+00 0.0000000e+00 0.0000000e+00 
0.0000000e+00 0.0000000e+00 0.0000000e+00 
0.0000000e+00 0.0000000e+00 0.0000000e+00 
0.0000000e+00 0.0000000e+00 0.0000000e+00 
0.0000000e+00 0.0000000e+00 0.0000000e+00 
0.0000000e+00 0.0000000e+00 0.0000000e+00 
0.0000000e+00 0.0000000e+00 0.0000000e+00 
0.0000000e+00 0.0000000e+00 0.0000000e+00 
0.0000000e+00 0.0000000e+00 0.0000000e+00 
0.0000000e+00 0.0000000e+00 0.0000000e+00 
0.0000000e+00 0.0000000e+00 0.0000000e+00 
0.0000000e+00 0.0000000e+00 0.0000000e+00 
0.0000000e+00 0.0000000e+00 0.0000000e+00 
0.0000000e+00 0.0000000e+00 0.0000000e+00 
0.0000000e+00 0.0000000e+00 0.0000000e+00 
0.0000000e+00 0.0000000e+00 0.0000000e+00 
0.0000000e+00 0.0000000e+00 0.0000000e+00 
0.0000000e+00 0.0000000e+00 0.0000000e+00 
0.0000000e+00 0.0000000e+00 0.0000000e+00 
0.0000000e+00 0.0000000e+00 0.0000000e+00 
0.0000000e+00 0.0000000e+00 0.0000000e+00 
0.0000000e+00 0.0000000e+00 0.0000000e+00 
0.0000000e+00 0.0000000e+00 0.0000000e+00 
0.0000000e+00 0.0000000e+00 0.0000000e+00 
0.0000000e+00 0.0000000e+00 0.0000000e+00 
0.0000000e+00 0.0000000e+00 0.0000000e+00 
0.0000000e+00 0.0000000e+00 0.0000000e+00 
0.0000000e+00 0.0000000e+00 0.0000000e+00 
0.0000000e+00 0.0000000e+00 0.0000000e+00 
0.0000000e+00 0.0000000e+00 0.0000000e+00 
0.0000000e+00 0.0000000e+00 0.0000000e+00 
0.0000000e+00 0.0000000e+00 0.0000000e+00 
0.0000000e+00 0.0000000e+00 0.0000000e+00 
0.0000000e+00 0.0000000e+00 0.0000000e+00 
0.0000000e+00 0.0000000e+00 0.0000000e+00 
0.0000000e+00 0.0000000e+00 0.0000000e+00 
0.0000000e+00 0.0000000e+00 0.0000000e+00 
0.0000000e+00 0.0000000e+00 0.0000000e+00 
0.0000000e+00 0.0000000e+00 0.0000000e+00 
0.0000000e+00 0.0000000e+00 0.0000000e+00 
0.0000000e+00 0.0000000e+00 0.0000000e+00 
0.0000000e+00 0.0000000e+00 0.0000000e+00 
0.0000000e+00 0.0000000e+00 0.0000000e+00 
0.0000000e+00 0.0000000e+00 0.0000000e+00 
0.0000000e+00 0.0000000e+00 0.0000000e+00 
0.0000000e+00 0.0000000e+00 0.0000000e+00 
0.0000000e+00 0.0000000e+00 0.0000000e+00 
0.0000000e+00 0.0000000e+00 0.0000000e+00 
0.0000000e+00 0.0000000e+00 0.0000000e+00 
0.0000000e+00 0.0000000e+00 0.0000000e+00 
-5.2416362e-07 -6.2285505e-07 -4.4623508e-07 
-1.0558164e-06 -5.2832735e-07 -2.9042224e-07 
-3.0845304e-06 -2.4381922e-07 -1.0442718e-06 
-3.9466818e-06 -8.5717062e-07 6.2884271e-07 
-3.2933315e-06 9.6857730e-07 9.2034469e-07 
-3.3907179e-06 -6.0383672e-07 -1.4907448e-08 
-4.2245074e-06 1.7131117e-07 2.2888366e-06 
-3.8619164e-06 1.8983591e-06 1.5753349e-06 
-2.4029205e-06 -2.5538666e-06 -1.7740861e-06 
-2.2173890e-06 -9.5054554e-07 8.4205129e-07 
-1.8659441e-06 2.6546618e-06 -6.6119230e-07 
-1.6648986e-06 -8.4694566e-06 -2.6602529e-06 
1.3223552e-06 -1.8185432e-06 -4.7314174e-06 
8.3539881e-06 2.1973581e-06 -7.4265736e-06 
9.2543323e-06 -4.2329302e-06 -9.9915587e-06 
1.5848094e-05 -1.3344431e-06 -1.2543655e-05 
2.7676042e-05 -1.0093199e-05 -1.2582001e-05 
3.1500669e-05 -1.5349877e-05 -1.3061941e-05 
4.3185424e-05 -1.3070830e-05 -2.4842186e-06 
4.5170167e-05 -1.8154051e-05 -1.2279811e-06 
4.0954023e-05 -1.4864476e-05 1.9756214e-06 
3.1880536e-05 -8.9483092e-06 9.3726958e-06 
1.8341252e-05 -6.1880146e-06 8.0224363e-06 
9.5661562e-06 -1.2701990e-06 9.6682361e-06 
3.1634117e-06 -1.1415847e-06 5.6065010e-06 
-3.1060495e-06 6.0676757e-07 1.8777489e-06 
-3.3903243e-06 -2.7049698e-06 5.0847648e-06 
-4.7596332e-06 1.1000957e-06 3.0098793e-06 
-1.8735991e-06 1.4210070e-06 -3.6762881e-06 
-4.7054700e-06 -2.4265603e-06 2.1228714e-06 
2.5852916e-07 -1.8877219e-06 1.0710081e-06 
3.1432380e-06 -1.8188591e-06 -1.1117120e-06 
2.4836788e-06 -6.6911161e-06 -3.1079078e-06 
8.0777127e-06 7.2245184e-06 -5.3008880e-06 
1.3474001e-05 -1.0274503e-05 -6.6150442e-06 
1.3991475e-05 -1.1129742e-05 -9.2976552e-06 
2.8277225e-05 -8.0008940e-06 -1.0777535e-05 
3.6753299e-05 -1.6270047e-05 -8.5303082e-06 
4.1085936e-05 -1.5652282e-05 -6.8150721e-06 
4.4688237e-05 -1.5175387e-05 1.1811014e-06 
4.0091007e-05 -1.4825538e-05 5.0605308e-06 
3.2487194e-05 -1.1382424e-05 1.1157707e-05 
2.2981896e-05 -6.0584980e-06 1.1931081e-05 
1.1957893e-05 -1.5233015e-06 7.3721249e-06 
5.5574310e-06 1.8869494e-07 6.2202262e-06 
3.3281467e-06 5.3605845e-07 5.5787382e-06 
1.2324256e-06 3.6811386e-08 3.5996372e-06 
-9.0671413e-08 -1.7107885e-07 2.1287392e-06 
2.2631136e-07 -9.7963415e-08 2.6228722e-06 
0.0000000e+00 -6.8867730e-06 0.0000000e+00 
0.0000000e+00 -6.2975764e-06 0.0000000e+00 
0.0000000e+00 -4.7060894e-06 0.0000000e+00 
0.0000000e+00 -1.7364705e-07 0.0000000e+00 
0.0000000e+00 4.3818200e-06 0.0000000e+00 
0.0000000e+00 4.8791085e-06 0.0000000e+00 
0.0000000e+00 3.3988665e-06 0.0000000e+00 
0.0000000e+00 7.9726506e-06 0.0000000e+00 
0.0000000e+00 -5.1262996e-06 0.0000000e+00 
0.0000000e+00 -9.3845329e-06 0.0000000e+00 
0.0000000e+00 1.2302960e-06 0.0000000e+00 
0.0000000e+00 -3.7551069e-06 0.0000000e+00 
0.0000000e+00 -2.0690375e-05 0.0000000e+00 
0.0000000e+00 1.0344534e-06 0.0000000e+00 
0.0000000e+00 -8.4121839e-06 0.0000000e+00 
0.0000000e+00 -4.0018938e-05 0.0000000e+00 
0.0000000e+00 -9.6545591e-05 0.0000000e+00 
0.0000000e+00 -2.7586272e-04 0.0000000e+00 
0.0000000e+00 -4.3921964e-04 0.0000000e+00 
0.0000000e+00 -5.0061772e-04 0.0000000e+00 
0.0000000e+00 -5.1007746e-04 0.0000000e+00 
0.0000000e+00 -4.4118351e-04 0.0000000e+00 
0.0000000e+00 -2.7016763e-04 0.0000000e+00 
0.0000000e+00 -8.1449878e-05 0.0000000e+00 
0.0000000e+00 1.6322889e-05 0.0000000e+00 
0.0000000e+00 2.7150747e-05 0.0000000e+00 
0.0000000e+00 1.4206709e-05 0.0000000e+00 
0.0000000e+00 1.7465973e-05 0.0000000e+00 
0.0000000e+00 3.8955150e-06 0.0000000e+00 
0.0000000e+00 -1.2636756e-05 0.0000000e+00 
0.0000000e+00 6.7669612e-06 0.0000000e+00 
0.0000000e+00 -1.5645412e-06 0.0000000e+00 
0.0000000e+00 -2.7194330e-05 0.0000000e+00 
0.0000000e+00 1.4263274e-05 0.0000000e+00 
0.0000000e+00 -5.7452235e-07 0.0000000e+00 
0.0000000e+00 -4.4467146e-05 0.0000000e+00 
0.0000000e+00 -1.2052189e-04 0.0000000e+00 
0.0000000e+00 -2.5391937e-04 0.0000000e+00 
0.0000000e+00 -4.6531559e-04 0.0000000e+00 
0.0000000e+00 -4.9567671e-04 0.0000000e+00 
0.0000000e+00 -4.9576332e-04 0.0000000e+00 
0.0000000e+00 -4.1496448e-04 0.0000000e+00 
0.0000000e+00 -2.3692595e-04 0.0000000e+00 
0.0000000e+00 -6.6245957e-05 0.0000000e+00 
0.0000000e+00 5.9781491e-06 0.0000000e+00 
0.0000000e+00 1.4566806e-05 0.0000000e+00 
0.0000000e+00 8.0563368e-06 0.0000000e+00 
0.0000000e+00 -9.0174854e-07 0.0000000e+00 
0.0000000e+00 -2.7500118e-06 0.0000000e+00 
-8.5272865e-07 -1.5241986e-07 -2.5986495e-07 
-1.0267473e-06 -6.6557993e-07 -6.6867426e-07 
-8.2134726e-08 -1.0304818e-06 -8.1813994e-07 
8.5460704e-07 -2.5225988e-06 -6.8950465e-07 
6.5653916e-07 -1.3043964e-06 2.7488804e-06 
4.4258923e-07 -2.2792692e-06 3.6062868e-06 
8.8797059e-08 -3.7309846e-06 4.8006773e-06 
-9.5385155e-07 -2.6917132e-06 4.0507875e-06 
-4.8000072e-07 -9.4422148e-07 -9.4422734e-07 
5.2117475e-08 -1.4139067e-06 3.9630459e-06 
-1.9047995e-06 5.8250089e-07 -4.8688827e-07 
-2.8045099e-06 1.4896448e-06 7.0313945e-08 
0.0000000e+00 -6.8353634e-06 0.0000000e+00 
0.0000000e+00 -8.6482169e-06 0.0000000e+00 
0.0000000e+00 -9.6616286e-06 0.0000000e+00 
0.0000000e+00 -1.4623071e-06 0.0000000e+00 
0.0000000e+00 5.8526985e-06 0.0000000e+00 
0.0000000e+00 2.8626516e-06 0.0000000e+00 
0.0000000e+00 6.1643764e-06 0.0000000e+00 
0.0000000e+00 1.1662853e-05 0.0000000e+00 
0.0000000e+00 -1.7707379e-06 0.0000000e+00 
0.0000000e+00 -7.7293571e-06 0.0000000e+00 
0.0000000e+00 -3.1870909e-06 0.0000000e+00 
0.0000000e+00 -1.0694185e-05 0.0000000e+00 
0.0000000e+00 -2.0013025e-05 0.0000000e+00 