# vtk DataFile Version 4.0
vtk output
ASCII
DATASET UNSTRUCTURED_GRID
POINTS 1919 float
0.0000000e+00 0.0000000e+00 0.0000000e+00 
0.0000000e+00 0.0000000e+00 5.0000000e+01 
5.0000000e+00 0.0000000e+00 0.0000000e+00 
5.0000000e+00 0.0000000e+00 5.0000000e+01 
5.0000000e+00 1.0000000e+00 0.0000000e+00 
5.0000000e+00 1.0000000e+00 5.0000000e+01 
0.0000000e+00 1.0000000e+00 0.0000000e+00 
0.0000000e+00 1.0000000e+00 5.0000000e+01 
5.0000000e+00 2.0000000e+00 0.0000000e+00 
5.0000000e+00 2.0000000e+00 5.0000000e+01 
3.0000000e+00 2.0000000e+00 0.0000000e+00 
3.0000000e+00 2.0000000e+00 5.0000000e+01 
0.0000000e+00 2.0000000e+00 0.0000000e+00 
0.0000000e+00 2.0000000e+00 5.0000000e+01 
1.5000000e+00 3.0000000e+00 0.0000000e+00 
1.5000000e+00 3.0000000e+00 5.0000000e+01 
7.5000000e-01 3.0000000e+00 0.0000000e+00 
7.5000000e-01 3.0000000e+00 5.0000000e+01 
0.0000000e+00 3.0000000e+00 0.0000000e+00 
0.0000000e+00 3.0000000e+00 5.0000000e+01 
7.5000000e-01 3.0000000e+00 5.0000000e-01 
7.5000000e-01 3.0000000e+00 1.0000000e+00 
7.5000000e-01 3.0000000e+00 1.5000000e+00 
7.5000000e-01 3.0000000e+00 2.0000000e+00 
7.5000000e-01 3.0000000e+00 2.5000000e+00 
7.5000000e-01 3.0000000e+00 3.0000000e+00 
7.5000000e-01 3.0000000e+00 3.5000000e+00 
7.5000000e-01 3.0000000e+00 4.0000000e+00 
7.5000000e-01 3.0000000e+00 4.5000000e+00 
7.5000000e-01 3.0000000e+00 5.0000000e+00 
7.5000000e-01 3.0000000e+00 5.5000000e+00 
7.5000000e-01 3.0000000e+00 6.0000000e+00 
7.5000000e-01 3.0000000e+00 6.5000000e+00 
7.5000000e-01 3.0000000e+00 7.0000000e+00 
7.5000000e-01 3.0000000e+00 7.5000000e+00 
7.5000000e-01 3.0000000e+00 8.0000000e+00 
7.5000000e-01 3.0000000e+00 8.5000000e+00 
7.5000000e-01 3.0000000e+00 9.0000000e+00 
7.5000000e-01 3.0000000e+00 9.5000000e+00 
7.5000000e-01 3.0000000e+00 1.0000000e+01 
7.5000000e-01 3.0000000e+00 1.0500000e+01 
7.5000000e-01 3.0000000e+00 1.1000000e+01 
7.5000000e-01 3.0000000e+00 1.1500000e+01 
7.5000000e-01 3.0000000e+00 1.2000000e+01 
7.5000000e-01 3.0000000e+00 1.2500000e+01 
7.5000000e-01 3.0000000e+00 1.3000000e+01 
7.5000000e-01 3.0000000e+00 1.3500000e+01 
7.5000000e-01 3.0000000e+00 1.4000000e+01 
7.5000000e-01 3.0000000e+00 1.4500000e+01 
7.5000000e-01 3.0000000e+00 1.5000000e+01 
7.5000000e-01 3.0000000e+00 1.5500000e+01 
7.5000000e-01 3.0000000e+00 1.6000000e+01 
7.5000000e-01 3.0000000e+00 1.6500000e+01 
7.5000000e-01 3.0000000e+00 1.7000000e+01 
7.5000000e-01 3.0000000e+00 1.7500000e+01 
7.5000000e-01 3.0000000e+00 1.8000000e+01 
7.5000000e-01 3.0000000e+00 1.8500000e+01 
7.5000000e-01 3.0000000e+00 1.9000000e+01 
7.5000000e-01 3.0000000e+00 1.9500000e+01 
7.5000000e-01 3.0000000e+00 2.0000000e+01 
7.5000000e-01 3.0000000e+00 2.0500000e+01 
7.5000000e-01 3.0000000e+00 2.1000000e+01 
7.5000000e-01 3.0000000e+00 2.1500000e+01 
7.5000000e-01 3.0000000e+00 2.2000000e+01 
7.5000000e-01 3.0000000e+00 2.2500000e+01 
7.5000000e-01 3.0000000e+00 2.3000000e+01 
7.5000000e-01 3.0000000e+00 2.3500000e+01 
7.5000000e-01 3.0000000e+00 2.4000000e+01 
7.5000000e-01 3.0000000e+00 2.4500000e+01 
7.5000000e-01 3.0000000e+00 2.5000000e+01 
7.5000000e-01 3.0000000e+00 2.5500000e+01 
7.5000000e-01 3.0000000e+00 2.6000000e+01 
7.5000000e-01 3.0000000e+00 2.6500000e+01 
7.5000000e-01 3.0000000e+00 2.7000000e+01 
7.5000000e-01 3.0000000e+00 2.7500000e+01 
7.5000000e-01 3.0000000e+00 2.8000000e+01 
7.5000000e-01 3.0000000e+00 2.8500000e+01 
7.5000000e-01 3.0000000e+00 2.9000000e+01 
7.5000000e-01 3.0000000e+00 2.9500000e+01 
7.5000000e-01 3.0000000e+00 3.0000000e+01 
7.5000000e-01 3.0000000e+00 3.0500000e+01 
7.5000000e-01 3.0000000e+00 3.1000000e+01 
7.5000000e-01 3.0000000e+00 3.1500000e+01 
7.5000000e-01 3.0000000e+00 3.2000000e+01 
7.5000000e-01 3.0000000e+00 3.2500000e+01 
7.5000000e-01 3.0000000e+00 3.3000000e+01 
7.5000000e-01 3.0000000e+00 3.3500000e+01 
7.5000000e-01 3.0000000e+00 3.4000000e+01 
7.5000000e-01 3.0000000e+00 3.4500000e+01 
7.5000000e-01 3.0000000e+00 3.5000000e+01 
7.5000000e-01 3.0000000e+00 3.5500000e+01 
7.5000000e-01 3.0000000e+00 3.6000000e+01 
7.5000000e-01 3.0000000e+00 3.6500000e+01 
7.5000000e-01 3.0000000e+00 3.7000000e+01 
7.5000000e-01 3.0000000e+00 3.7500000e+01 
7.5000000e-01 3.0000000e+00 3.8000000e+01 
7.5000000e-01 3.0000000e+00 3.8500000e+01 
7.5000000e-01 3.0000000e+00 3.9000000e+01 
7.5000000e-01 3.0000000e+00 3.9500000e+01 
7.5000000e-01 3.0000000e+00 4.0000000e+01 
7.5000000e-01 3.0000000e+00 4.0500000e+01 
7.5000000e-01 3.0000000e+00 4.1000000e+01 
7.5000000e-01 3.0000000e+00 4.1500000e+01 
7.5000000e-01 3.0000000e+00 4.2000000e+01 
7.5000000e-01 3.0000000e+00 4.2500000e+01 
7.5000000e-01 3.0000000e+00 4.3000000e+01 
7.5000000e-01 3.0000000e+00 4.3500000e+01 
7.5000000e-01 3.0000000e+00 4.4000000e+01 
7.5000000e-01 3.0000000e+00 4.4500000e+01 
7.5000000e-01 3.0000000e+00 4.5000000e+01 
7.5000000e-01 3.0000000e+00 4.5500000e+01 
7.5000000e-01 3.0000000e+00 4.6000000e+01 
7.5000000e-01 3.0000000e+00 4.6500000e+01 
7.5000000e-01 3.0000000e+00 4.7000000e+01 
7.5000000e-01 3.0000000e+00 4.7500000e+01 
7.5000000e-01 3.0000000e+00 4.8000000e+01 
7.5000000e-01 3.0000000e+00 4.8500000e+01 
7.5000000e-01 3.0000000e+00 4.9000000e+01 
7.5000000e-01 3.0000000e+00 4.9500000e+01 
7.5000000e-01 3.0250001e+00 0.0000000e+00 
7.5000000e-01 3.0250001e+00 5.0000000e-01 
7.5000000e-01 3.0250001e+00 1.0000000e+00 
7.5000000e-01 3.0250001e+00 1.5000000e+00 
7.5000000e-01 3.0250001e+00 2.0000000e+00 
7.5000000e-01 3.0250001e+00 2.5000000e+00 
7.5000000e-01 3.0250001e+00 3.0000000e+00 
7.5000000e-01 3.0250001e+00 3.5000000e+00 
7.5000000e-01 3.0250001e+00 4.0000000e+00 
7.5000000e-01 3.0250001e+00 4.5000000e+00 
7.5000000e-01 3.0250001e+00 5.0000000e+00 
7.5000000e-01 3.0250001e+00 5.5000000e+00 
7.5000000e-01 3.0250001e+00 6.0000000e+00 
7.5000000e-01 3.0250001e+00 6.5000000e+00 
7.5000000e-01 3.0250001e+00 7.0000000e+00 
7.5000000e-01 3.0250001e+00 7.5000000e+00 
7.5000000e-01 3.0250001e+00 8.0000000e+00 
7.5000000e-01 3.0250001e+00 8.5000000e+00 
7.5000000e-01 3.0250001e+00 9.0000000e+00 
7.5000000e-01 3.0250001e+00 9.5000000e+00 
7.5000000e-01 3.0250001e+00 1.0000000e+01 
7.5000000e-01 3.0250001e+00 1.0500000e+01 
7.5000000e-01 3.0250001e+00 1.1000000e+01 
7.5000000e-01 3.0250001e+00 1.1500000e+01 
7.5000000e-01 3.0250001e+00 1.2000000e+01 
7.5000000e-01 3.0250001e+00 1.2500000e+01 
7.5000000e-01 3.0250001e+00 1.3000000e+01 
7.5000000e-01 3.0250001e+00 1.3500000e+01 
7.5000000e-01 3.0250001e+00 1.4000000e+01 
7.5000000e-01 3.0250001e+00 1.4500000e+01 
7.5000000e-01 3.0250001e+00 1.5000000e+01 
7.5000000e-01 3.0250001e+00 1.5500000e+01 
7.5000000e-01 3.0250001e+00 1.6000000e+01 
7.5000000e-01 3.0250001e+00 1.6500000e+01 
7.5000000e-01 3.0250001e+00 1.7000000e+01 
7.5000000e-01 3.0250001e+00 1.7500000e+01 
7.5000000e-01 3.0250001e+00 1.8000000e+01 
7.5000000e-01 3.0250001e+00 1.8500000e+01 
7.5000000e-01 3.0250001e+00 1.9000000e+01 
7.5000000e-01 3.0250001e+00 1.9500000e+01 
7.5000000e-01 3.0250001e+00 2.0000000e+01 
7.5000000e-01 3.0250001e+00 2.0500000e+01 
7.5000000e-01 3.0250001e+00 2.1000000e+01 
7.5000000e-01 3.0250001e+00 2.1500000e+01 
7.5000000e-01 3.0250001e+00 2.2000000e+01 
7.5000000e-01 3.0250001e+00 2.2500000e+01 
7.5000000e-01 3.0250001e+00 2.3000000e+01 
7.5000000e-01 3.0250001e+00 2.3500000e+01 
7.5000000e-01 3.0250001e+00 2.4000000e+01 
7.5000000e-01 3.0250001e+00 2.4500000e+01 
7.5000000e-01 3.0250001e+00 2.5000000e+01 
7.5000000e-01 3.0250001e+00 2.5500000e+01 
7.5000000e-01 3.0250001e+00 2.6000000e+01 
7.5000000e-01 3.0250001e+00 2.6500000e+01 
7.5000000e-01 3.0250001e+00 2.7000000e+01 
7.5000000e-01 3.0250001e+00 2.7500000e+01 
7.5000000e-01 3.0250001e+00 2.8000000e+01 
7.5000000e-01 3.0250001e+00 2.8500000e+01 
7.5000000e-01 3.0250001e+00 2.9000000e+01 
7.5000000e-01 3.0250001e+00 2.9500000e+01 
7.5000000e-01 3.0250001e+00 3.0000000e+01 
7.5000000e-01 3.0250001e+00 3.0500000e+01 
7.5000000e-01 3.0250001e+00 3.1000000e+01 
7.5000000e-01 3.0250001e+00 3.1500000e+01 
7.5000000e-01 3.0250001e+00 3.2000000e+01 
7.5000000e-01 3.0250001e+00 3.2500000e+01 
7.5000000e-01 3.0250001e+00 3.3000000e+01 
7.5000000e-01 3.0250001e+00 3.3500000e+01 
7.5000000e-01 3.0250001e+00 3.4000000e+01 
7.5000000e-01 3.0250001e+00 3.4500000e+01 
7.5000000e-01 3.0250001e+00 3.5000000e+01 
7.5000000e-01 3.0250001e+00 3.5500000e+01 
7.5000000e-01 3.0250001e+00 3.6000000e+01 
7.5000000e-01 3.0250001e+00 3.6500000e+01 
7.5000000e-01 3.0250001e+00 3.7000000e+01 
7.5000000e-01 3.0250001e+00 3.7500000e+01 
7.5000000e-01 3.0250001e+00 3.8000000e+01 
7.5000000e-01 3.0250001e+00 3.8500000e+01 
7.5000000e-01 3.0250001e+00 3.9000000e+01 
7.5000000e-01 3.0250001e+00 3.9500000e+01 
7.5000000e-01 3.0250001e+00 4.0000000e+01 
7.5000000e-01 3.0250001e+00 4.0500000e+01 
7.5000000e-01 3.0250001e+00 4.1000000e+01 
7.5000000e-01 3.0250001e+00 4.1500000e+01 
7.5000000e-01 3.0250001e+00 4.2000000e+01 
7.5000000e-01 3.0250001e+00 4.2500000e+01 
7.5000000e-01 3.0250001e+00 4.3000000e+01 
7.5000000e-01 3.0250001e+00 4.3500000e+01 
7.5000000e-01 3.0250001e+00 4.4000000e+01 
7.5000000e-01 3.0250001e+00 4.4500000e+01 
7.5000000e-01 3.0250001e+00 4.5000000e+01 
7.5000000e-01 3.0250001e+00 4.5500000e+01 
7.5000000e-01 3.0250001e+00 4.6000000e+01 
7.5000000e-01 3.0250001e+00 4.6500000e+01 
7.5000000e-01 3.0250001e+00 4.7000000e+01 
7.5000000e-01 3.0250001e+00 4.7500000e+01 
7.5000000e-01 3.0250001e+00 4.8000000e+01 
7.5000000e-01 3.0250001e+00 4.8500000e+01 
7.5000000e-01 3.0250001e+00 4.9000000e+01 
7.5000000e-01 3.0250001e+00 4.9500000e+01 
7.5000000e-01 3.0250001e+00 5.0000000e+01 
1.5000000e+00 3.0000000e+00 2.5000000e+01 
3.0000000e+00 2.0000000e+00 2.5000000e+01 
4.0000000e+00 2.0000000e+00 2.5000000e+01 
5.0000000e+00 2.0000000e+00 2.5000000e+01 
0.0000000e+00 3.0000000e+00 2.5000000e+01 
0.0000000e+00 0.0000000e+00 1.0000000e+00 
0.0000000e+00 0.0000000e+00 2.0000000e+00 
0.0000000e+00 0.0000000e+00 3.0000000e+00 
0.0000000e+00 0.0000000e+00 4.0000000e+00 
0.0000000e+00 0.0000000e+00 5.0000000e+00 
[...]
POINT_DATA 1919
FIELD FieldData 3
DISPLACEMENT 3 1919  float
0.0000000e+00 0.0000000e+00 0.0000000e+00 
0.0000000e+00 0.0000000e+00 0.0000000e+00 
0.0000000e+00 0.0000000e+00 0.0000000e+00 
0.0000000e+00 0.0000000e+00 0.0000000e+00 
2.5046947e-06 2.3745856e-06 -6.6317975e-06 
1.6931831e-07 -8.1062245e-07 4.2503729e-07 
0.0000000e+00 -1.0174201e-05 0.0000000e+00 
0.0000000e+00 3.6429336e-07 0.0000000e+00 
-4.0741697e-06 4.8172560e-06 5.3068680e-07 
6.1405672e-07 -9.5088984e-07 9.2062635e-07 
6.6522371e-06 1.5902524e-05 1.2675381e-05 
2.4232219e-07 1.5134150e-07 5.1154882e-07 
0.0000000e+00 -3.3893339e-05 0.0000000e+00 
0.0000000e+00 -1.9560034e-07 0.0000000e+00 
-3.2192693e-06 4.4281947e-05 -2.7489286e-05 
-5.8487956e-07 4.2855945e-07 1.6878149e-06 
-9.0320435e-05 9.6047435e-05 -3.8427814e-05 
1.9068207e-07 1.1543400e-06 2.0369822e-07 
0.0000000e+00 -5.9675363e-05 0.0000000e+00 
0.0000000e+00 2.7568589e-07 0.0000000e+00 
-1.4643319e-05 8.8657987e-05 -2.3634877e-05 
2.0561098e-05 7.4550910e-05 -5.1256251e-05 
2.6415746e-05 6.6227374e-05 -5.1194002e-05 
4.2668180e-05 6.8009722e-05 -6.3183703e-05 
5.7175483e-05 7.4455405e-05 -6.1752740e-05 
6.9209964e-05 7.8838581e-05 -4.4808283e-05 
8.5166408e-05 7.2185197e-05 -3.8017610e-05 
7.5432923e-05 5.0833598e-05 -3.7051821e-05 
8.8267239e-05 3.0633248e-05 -3.1271069e-05 
7.4611140e-05 3.4121647e-05 -3.0652132e-05 
8.2123363e-05 6.0777922e-05 -2.0154439e-05 
8.4123836e-05 9.1089416e-05 -5.0140370e-06 
1.0174239e-04 1.0414761e-04 3.9210609e-06 
8.7994784e-05 9.1209564e-05 3.0646886e-05 
8.4649779e-05 7.0560374e-05 4.6101221e-05 
7.9347883e-05 6.5804088e-05 7.9442521e-05 
6.6449975e-05 4.0693150e-05 1.4689134e-04 
4.9229002e-05 -1.1603854e-04 1.5230938e-04 
-1.1197976e-05 -5.4519658e-04 2.4904124e-04 
-3.7028800e-05 -1.3395807e-03 2.2798717e-04 
-1.4160050e-04 -2.4687708e-03 3.2868580e-04 
-2.4687481e-04 -3.7169766e-03 1.3498316e-04 
-3.4259021e-04 -4.7572101e-03 2.0312465e-04 
-3.6309351e-04 -5.0591873e-03 4.8614736e-05 
-3.6557217e-04 -4.7060419e-03 -9.5807081e-05 
-3.0781107e-04 -4.3988344e-03 -8.5919753e-05 
-2.8607858e-04 -4.5146663e-03 -1.0642144e-04 
-2.9316594e-04 -4.6883896e-03 -2.4592009e-04 
-2.3876350e-04 -4.2509153e-03 -3.5288979e-04 
-1.7457821e-04 -2.9952370e-03 -2.6901849e-04 
-5.9661052e-05 -1.6725977e-03 -3.4331981e-04 
-3.6887199e-05 -6.9679419e-04 -1.6264134e-04 
3.7981103e-05 -1.2037728e-04 -1.3040328e-04 
7.0635600e-05 1.5677695e-04 -3.7281327e-05 
3.4653065e-05 2.3306752e-04 2.5211963e-05 
2.2829632e-05 1.9437738e-04 5.2090454e-05 
1.3472890e-05 1.2034304e-04 9.8443415e-05 
-1.0183358e-05 6.4400519e-05 1.1242964e-04 
-3.0712177e-05 4.4656390e-05 1.1139357e-04 
-2.7081229e-05 4.7286041e-05 7.2581977e-05 
-5.1208906e-05 5.1885203e-05 2.3600187e-05 
-2.8441700e-05 4.8489088e-05 -3.0495235e-05 
-1.2348921e-05 4.0074425e-05 -7.2842282e-05 
1.3072888e-05 3.0274994e-05 -7.8987265e-05 
2.7358943e-05 2.3814404e-05 -7.5172022e-05 
4.4934946e-05 2.8965287e-05 -6.0292929e-05 
6.8634945e-05 4.3467317e-05 -3.8040915e-05 
5.6282130e-05 4.7706377e-05 -3.8822403e-05 
8.3975370e-05 3.1702177e-05 -2.5016188e-05 
6.6041706e-05 1.0760978e-05 -3.7133526e-05 
9.5439893e-05 1.4437374e-05 -1.3149680e-05 
7.9073347e-05 5.3288244e-05 1.6441089e-05 
1.0310340e-04 1.0363535e-04 2.9110899e-05 
7.9422462e-05 1.2319256e-04 4.5129222e-05 
9.1988317e-05 9.3857401e-05 5.8768914e-05 
8.2356062e-05 3.1305004e-05 9.5634656e-05 
6.9461203e-05 -6.3510328e-05 1.4599091e-04 
5.6225763e-05 -2.3864482e-04 1.7095744e-04 
-1.0816725e-05 -6.3669321e-04 2.9268878e-04 
-5.3382653e-05 -1.4350230e-03 2.4430224e-04 
-1.5525037e-04 -2.6668715e-03 3.2787726e-04 
-2.5868104e-04 -4.0487265e-03 1.3668225e-04 
-3.5884840e-04 -5.0519225e-03 1.5991459e-04 
-3.8346986e-04 -5.0353492e-03 3.5030851e-05 
-3.8731282e-04 -4.5638094e-03 -7.6802666e-05 
-3.7447628e-04 -4.3675550e-03 -8.2898237e-05 
-3.4192967e-04 -4.6457583e-03 -1.5076950e-04 
-3.9040350e-04 -4.7999932e-03 -2.9103606e-04 
-3.2739274e-04 -4.1213017e-03 -4.5356323e-04 
-2.0940248e-04 -2.7927833e-03 -3.2022339e-04 
-7.2047413e-05 -1.5118675e-03 -3.7162090e-04 
-3.4993693e-05 -5.7384960e-04 -2.0053306e-04 
3.8788854e-05 -2.2528960e-05 -1.4236159e-04 
5.6924793e-05 2.1163387e-04 -5.7323636e-05 
6.1205399e-05 2.3819690e-04 -2.4330695e-05 
7.4831296e-05 1.7557714e-04 4.9777547e-08 
5.3415468e-05 1.0427771e-04 6.2452775e-05 
2.2121929e-05 5.5740169e-05 8.8539717e-05 
2.5420052e-06 2.1408878e-05 1.0077536e-04 
-5.4164466e-06 -5.1545276e-06 7.5344542e-05 
-3.0180214e-05 -1.8537386e-05 4.0521150e-05 
-2.4305355e-05 -1.6544322e-05 1.2416558e-05 
-2.0426220e-05 -5.4876650e-06 -1.5271959e-05 
-1.8377668e-05 3.7920720e-06 -2.1199847e-05 
-3.5235628e-06 6.9132434e-06 -2.1359820e-05 
-1.0967780e-06 7.1024538e-06 -1.2333866e-05 
3.0754024e-06 7.6742617e-06 -7.3771639e-06 
6.1729993e-06 7.2785092e-06 -6.8929999e-06 
2.6349219e-06 3.1449820e-06 -5.4034285e-06 
2.8912998e-06 -2.4213973e-06 -4.0514901e-06 
3.1760226e-06 -5.2105670e-06 -1.8348408e-06 
2.3118275e-06 -4.1064668e-06 5.5478353e-07 
2.5015261e-06 -1.8087402e-06 1.7213106e-06 
1.0989025e-06 -9.9910551e-07 2.0783202e-06 
-1.4830657e-06 -1.4222692e-06 1.8057825e-06 
-7.5015731e-07 -1.3023056e-06 2.5603180e-07 
-1.2736516e-06 -8.0503540e-08 9.2924822e-08 
-2.4819329e-08 1.0585394e-06 5.9016600e-07 
-1.0235743e-07 1.2822272e-06 5.3817075e-07 
0.0000000e+00 9.5834752e-05 0.0000000e+00 
0.0000000e+00 8.8630986e-05 0.0000000e+00 
0.0000000e+00 7.4807816e-05 0.0000000e+00 
0.0000000e+00 6.6472581e-05 0.0000000e+00 
0.0000000e+00 6.7989371e-05 0.0000000e+00 
0.0000000e+00 7.4693635e-05 0.0000000e+00 
0.0000000e+00 7.8882913e-05 0.0000000e+00 
0.0000000e+00 7.1454349e-05 0.0000000e+00 
0.0000000e+00 5.0341765e-05 0.0000000e+00 
0.0000000e+00 3.1223703e-05 0.0000000e+00 
0.0000000e+00 3.4801000e-05 0.0000000e+00 
0.0000000e+00 6.1181316e-05 0.0000000e+00 
0.0000000e+00 9.1018715e-05 0.0000000e+00 
0.0000000e+00 1.0303530e-04 0.0000000e+00 
0.0000000e+00 9.0473768e-05 0.0000000e+00 
0.0000000e+00 7.2179100e-05 0.0000000e+00 
0.0000000e+00 6.8444933e-05 0.0000000e+00 
0.0000000e+00 4.2801155e-05 0.0000000e+00 
0.0000000e+00 -1.1646999e-04 0.0000000e+00 
0.0000000e+00 -5.4984959e-04 0.0000000e+00 
0.0000000e+00 -1.3477913e-03 0.0000000e+00 
0.0000000e+00 -2.4737068e-03 0.0000000e+00 
0.0000000e+00 -3.7326994e-03 0.0000000e+00 
0.0000000e+00 -4.7794208e-03 0.0000000e+00 
0.0000000e+00 -5.0984188e-03 0.0000000e+00 
0.0000000e+00 -4.7306847e-03 0.0000000e+00 
0.0000000e+00 -4.4255769e-03 0.0000000e+00 
0.0000000e+00 -4.5330264e-03 0.0000000e+00 
0.0000000e+00 -4.7169779e-03 0.0000000e+00 
0.0000000e+00 -4.2765620e-03 0.0000000e+00 
0.0000000e+00 -3.0198889e-03 0.0000000e+00 
0.0000000e+00 -1.6839646e-03 0.0000000e+00 
0.0000000e+00 -7.0105150e-04 0.0000000e+00 
0.0000000e+00 -1.2015730e-04 0.0000000e+00 
0.0000000e+00 1.5703395e-04 0.0000000e+00 
0.0000000e+00 2.3358062e-04 0.0000000e+00 
0.0000000e+00 1.9588834e-04 0.0000000e+00 
0.0000000e+00 1.2164870e-04 0.0000000e+00 
0.0000000e+00 6.5125976e-05 0.0000000e+00 
0.0000000e+00 4.4651402e-05 0.0000000e+00 
0.0000000e+00 4.7126417e-05 0.0000000e+00 
0.0000000e+00 5.1792118e-05 0.0000000e+00 
0.0000000e+00 4.8607861e-05 0.0000000e+00 
0.0000000e+00 3.9799546e-05 0.0000000e+00 
0.0000000e+00 2.9819283e-05 0.0000000e+00 
0.0000000e+00 2.4147643e-05 0.0000000e+00 
0.0000000e+00 2.9879353e-05 0.0000000e+00 
0.0000000e+00 4.3359276e-05 0.0000000e+00 
0.0000000e+00 4.6782970e-05 0.0000000e+00 
0.0000000e+00 3.0843083e-05 0.0000000e+00 
0.0000000e+00 1.1028815e-05 0.0000000e+00 
0.0000000e+00 1.5733163e-05 0.0000000e+00 
0.0000000e+00 5.4402673e-05 0.0000000e+00 
0.0000000e+00 1.0305666e-04 0.0000000e+00 
0.0000000e+00 1.2186075e-04 0.0000000e+00 
0.0000000e+00 9.3812916e-05 0.0000000e+00 
0.0000000e+00 3.2332609e-05 0.0000000e+00 
0.0000000e+00 -5.9977338e-05 0.0000000e+00 
0.0000000e+00 -2.3614429e-04 0.0000000e+00 
0.0000000e+00 -6.4052414e-04 0.0000000e+00 
0.0000000e+00 -1.4464433e-03 0.0000000e+00 
0.0000000e+00 -2.6773419e-03 0.0000000e+00 
0.0000000e+00 -4.0694717e-03 0.0000000e+00 
0.0000000e+00 -5.0717508e-03 0.0000000e+00 
0.0000000e+00 -5.0703166e-03 0.0000000e+00 
0.0000000e+00 -4.5883991e-03 0.0000000e+00 
0.0000000e+00 -4.3971338e-03 0.0000000e+00 
0.0000000e+00 -4.6643671e-03 0.0000000e+00 
0.0000000e+00 -4.8319031e-03 0.0000000e+00 
0.0000000e+00 -4.1434220e-03 0.0000000e+00 
0.0000000e+00 -2.8129430e-03 0.0000000e+00 
0.0000000e+00 -1.5199117e-03 0.0000000e+00 
0.0000000e+00 -5.7778344e-04 0.0000000e+00 
0.0000000e+00 -2.3861101e-05 0.0000000e+00 
0.0000000e+00 2.1195580e-04 0.0000000e+00 
0.0000000e+00 2.4006002e-04 0.0000000e+00 
0.0000000e+00 1.7726969e-04 0.0000000e+00 
0.0000000e+00 1.0539458e-04 0.0000000e+00 
0.0000000e+00 5.5496839e-05 0.0000000e+00 
0.0000000e+00 2.1117476e-05 0.0000000e+00 
0.0000000e+00 -4.8414863e-06 0.0000000e+00 
0.0000000e+00 -1.8282029e-05 0.0000000e+00 
0.0000000e+00 -1.6553720e-05 0.0000000e+00 
0.0000000e+00 -5.7609154e-06 0.0000000e+00 
0.0000000e+00 3.6220997e-06 0.0000000e+00 
0.0000000e+00 6.9810058e-06 0.0000000e+00 
0.0000000e+00 7.2250409e-06 0.0000000e+00 
0.0000000e+00 7.6587185e-06 0.0000000e+00 
0.0000000e+00 7.0872525e-06 0.0000000e+00 
0.0000000e+00 3.1353859e-06 0.0000000e+00 
0.0000000e+00 -2.2632130e-06 0.0000000e+00 
0.0000000e+00 -5.0967824e-06 0.0000000e+00 
0.0000000e+00 -4.1603466e-06 0.0000000e+00 
0.0000000e+00 -1.9294112e-06 0.0000000e+00 
0.0000000e+00 -1.0255029e-06 0.0000000e+00 
0.0000000e+00 -1.3553347e-06 0.0000000e+00 
0.0000000e+00 -1.2438408e-06 0.0000000e+00 
0.0000000e+00 -1.1140368e-07 0.0000000e+00 
0.0000000e+00 9.9695853e-07 0.0000000e+00 
0.0000000e+00 1.2824430e-06 0.0000000e+00 
0.0000000e+00 1.1933673e-06 0.0000000e+00 
4.7191559e-05 -5.2989220e-05 -3.4646186e-05 
1.2620919e-06 -2.1271171e-05 -1.9144789e-05 
7.5759452e-08 -1.1583189e-05 2.9586397e-06 
3.1779664e-06 -1.5658661e-05 -1.9166478e-06 
0.0000000e+00 1.5172857e-04 0.0000000e+00 
0.0000000e+00 0.0000000e+00 0.0000000e+00 
0.0000000e+00 0.0000000e+00 0.0000000e+00 
0.0000000e+00 0.0000000e+00 0.0000000e+00 
0.0000000e+00 0.0000000e+00 0.0000000e+00 
0.0000000e+00 0.0000000e+00 0.0000000e+00 
0.0000000e+00 0.0000000e+00 0.0000000e+00 
0.0000000e+00 0.0000000e+00 0.0000000e+00 
0.0000000e+00 0.0000000e+00 0.0000000e+00 
0.0000000e+00 0.0000000e+00 0.0000000e+00 
0.0000000e+00 0.0000000e+00 0.0000000e+00 
0.0000000e+00 0.0000000e+00 0.0000000e+00 
0.0000000e+00 0.0000000e+00 0.0000000e+00 
0.0000000e+00 0.0000000e+00 0.0000000e+00 
0.0000000e+00 0.0000000e+00 0.0000000e+00 
0.0000000e+00 0.0000000e+00 0.0000000e+00 
0.0000000e+00 0.0000000e+00 0.0000000e+00 
0.0000000e+00 0.0000000e+00 0.0000000e+00 
0.0000000e+00 0.0000000e+00 0.0000000e+00 
0.0000000e+00 0.0000000e+00 0.0000000e+00 
0.0000000e+00 0.0000000e+00 0.0000000e+00 
0.0000000e+00 0.0000000e+00 0.0000000e+00 
0.0000000e+00 0.0000000e+00 0.0000000e+00 
0.0000000e+00 0.0000000e+00 0.0000000e+00 
0.0000000e+00 0.0000000e+00 0.0000000e+00 
0.0000000e+00 0.0000000e+00 0.0000000e+00 
0.0000000e+00 0.0000000e+00 0.0000000e+00 
0.0000000e+00 0.0000000e+00 0.0000000e+00 
0.0000000e+00 0.0000000e+00 0.0000000e+00 
0.0000000e+00 0.0000000e+00 0.0000000e+00 
0.0000000e+00 0.0000000e+00 0.0000000e+00 
0.0000000e+00 0.0000000e+00 0.0000000e+00 
0.0000000e+00 0.0000000e+00 0.0000000e+00 
0.0000000e+00 0.0000000e+00 0.0000000e+00 
0.0000000e+00 0.0000000e+00 0.0000000e+00 
0.0000000e+00 0.0000000e+00 0.0000000e+00 
0.0000000e+00 0.0000000e+00 0.0000000e+00 
0.0000000e+00 0.0000000e+00 0.0000000e+00 
0.0000000e+00 0.0000000e+00 0.0000000e+00 
0.0000000e+00 0.0000000e+00 0.0000000e+00 
0.0000000e+00 0.0000000e+00 0.0000000e+00 
0.0000000e+00 0.0000000e+00 0.0000000e+00 
0.0000000e+00 0.0000000e+00 0.0000000e+00 
0.0000000e+00 0.0000000e+00 0.0000000e+00 
0.0000000e+00 0.0000000e+00 0.0000000e+00 
0.0000000e+00 0.0000000e+00 0.0000000e+00 
0.0000000e+00 0.0000000e+00 0.0000000e+00 
0.0000000e+00 0.0000000e+00 0.0000000e+00 
0.0000000e+00 0.0000000e+00 0.0000000e+00 
0.0000000e+00 0.0000000e+00 0.0000000e+00 
0.0000000e+00 0.0000000e+00 0.0000000e+00 
0.0000000e+00 0.0000000e+00 0.0000000e+00 
0.0000000e+00 0.0000000e+00 0.0000000e+00 
0.0000000e+00 0.0000000e+00 0.0000000e+00 
0.0000000e+00 0.0000000e+00 0.0000000e+00 
0.0000000e+00 0.0000000e+00 0.0000000e+00 
0.0000000e+00 0.0000000e+00 0.0000000e+00 
0.0000000e+00 0.0000000e+00 0.0000000e+00 
0.0000000e+00 0.0000000e+00 0.0000000e+00 
0.0000000e+00 0.0000000e+00 0.0000000e+00 
0.0000000e+00 0.0000000e+00 0.0000000e+00 
0.0000000e+00 0.0000000e+00 0.0000000e+00 
0.0000000e+00 0.0000000e+00 0.0000000e+00 
0.0000000e+00 0.0000000e+00 0.0000000e+00 
0.0000000e+00 0.0000000e+00 0.0000000e+00 
0.0000000e+00 0.0000000e+00 0.0000000e+00 
0.0000000e+00 0.0000000e+00 0.0000000e+00 
0.0000000e+00 0.0000000e+00 0.0000000e+00 
0.0000000e+00 0.0000000e+00 0.0000000e+00 
0.0000000e+00 0.0000000e+00 0.0000000e+00 
0.0000000e+00 0.0000000e+00 0.0000000e+00 
0.0000000e+00 0.0000000e+00 0.0000000e+00 
0.0000000e+00 0.0000000e+00 0.0000000e+00 
0.0000000e+00 0.0000000e+00 0.0000000e+00 
0.0000000e+00 0.0000000e+00 0.0000000e+00 
0.0000000e+00 0.0000000e+00 0.0000000e+00 
0.0000000e+00 0.0000000e+00 0.0000000e+00 
0.0000000e+00 0.0000000e+00 0.0000000e+00 
0.0000000e+00 0.0000000e+00 0.0000000e+00 
0.0000000e+00 0.0000000e+00 0.0000000e+00 
0.0000000e+00 0.0000000e+00 0.0000000e+00 
0.0000000e+00 0.0000000e+00 0.0000000e+00 
0.0000000e+00 0.0000000e+00 0.0000000e+00 
0.0000000e+00 0.0000000e+00 0.0000000e+00 
0.0000000e+00 0.0000000e+00 0.0000000e+00 
0.0000000e+00 0.0000000e+00 0.0000000e+00 
0.0000000e+00 0.0000000e+00 0.0000000e+00 
0.0000000e+00 0.0000000e+00 0.0000000e+00 
0.0000000e+00 0.0000000e+00 0.0000000e+00 
0.0000000e+00 0.0000000e+00 0.0000000e+00 
0.0000000e+00 0.0000000e+00 0.0000000e+00 
0.0000000e+00 0.0000000e+00 0.0000000e+00 
0.0000000e+00 0.0000000e+00 0.0000000e+00 
0.0000000e+00 0.0000000e+00 0.0000000e+00 
0.0000000e+00 0.0000000e+00 0.0000000e+00 
0.0000000e+00 0.0000000e+00 0.0000000e+00 
0.0000000e+00 0.0000000e+00 0.0000000e+00 
0.0000000e+00 0.0000000e+00 0.0000000e+00 
0.0000000e+00 0.0000000e+00 0.0000000e+00 
0.0000000e+00 0.0000000e+00 0.0000000e+00 
0.0000000e+00 0.0000000e+00 0.0000000e+00 
0.0000000e+00 0.0000000e+00 0.0000000e+00 
0.0000000e+00 0.0000000e+00 0.0000000e+00 
0.0000000e+00 0.0000000e+00 0.0000000e+00 
0.0000000e+00 0.0000000e+00 0.0000000e+00 
0.0000000e+00 0.0000000e+00 0.0000000e+00 
0.0000000e+00 0.0000000e+00 0.0000000e+00 
1.9363188e-06 -2.1585445e-06 -7.1258580e-07 
1.2848949e-06 -6.6859211e-06 -1.1267551e-06 
-4.6887767e-06 -9.7954471e-06 2.1583733e-06 
-9.2920518e-06 -1.1343329e-05 5.3027607e-06 
-5.5711857e-06 -3.8826174e-06 -9.9106842e-07 
-7.1573668e-06 -2.4878458e-05 -1.6310141e-06 
-8.2746647e-06 -1.2964121e-05 -5.4678421e-06 
3.7148707e-06 -1.0310650e-05 -1.7668981e-05 
1.5373756e-05 -2.9062021e-05 -2.2941880e-05 
3.5031560e-05 -2.2467448e-05 -2.4334477e-05 
4.7321195e-05 -1.6883607e-05 -1.8824485e-05 
5.4635922e-05 -1.9151654e-05 -8.0976761e-06 
5.5018212e-05 -1.0655226e-05 9.2617447e-06 
3.6737481e-05 -7.9222928e-06 1.8072713e-05 
1.9505764e-05 -5.3862955e-06 1.8672443e-05 
1.1724773e-05 -1.8395164e-06 1.4934505e-05 
1.7279858e-06 2.6548278e-06 5.6126155e-06 
4.4783880e-07 4.2719803e-06 3.2837286e-06 
5.0421072e-06 3.4879502e-06 3.6427475e-06 
7.3657188e-06 1.6689492e-06 4.4469575e-06 
4.4277185e-06 3.0988716e-07 9.6979729e-06 
-3.2304067e-07 -8.7857934e-06 1.2857273e-05 
-8.5965183e-07 -1.7725954e-05 9.0049698e-06 
-5.1681773e-06 -1.3250290e-05 5.0070566e-06 
-6.4119336e-06 -6.9774360e-06 2.2334445e-06 
-5.4808429e-06 -1.8033539e-05 -8.0400914e-06 
-6.2308659e-06 -2.0343216e-05 -1.4953361e-05 
4.7334302e-06 -1.6759341e-05 -1.7549955e-05 
2.0993419e-05 -2.5460105e-05 -2.1767795e-05 
3.5743346e-05 -2.4352470e-05 -2.0278354e-05 
5.3184689e-05 -1.9829689e-05 -1.2084488e-05 
6.0820632e-05 -1.9936786e-05 -1.8440710e-06 
5.0027251e-05 -5.2724386e-06 6.9665048e-06 
3.8248199e-05 -4.3253472e-06 1.0293673e-05 
2.3396009e-05 -7.8498315e-06 9.7505244e-06 
1.1952860e-05 -1.6310227e-06 2.8964471e-06 
2.9868240e-06 2.8178263e-06 -4.0116703e-07 
5.0042837e-07 -7.7821475e-08 -2.1185999e-06 
1.4677580e-06 4.2380793e-07 -2.7622283e-07 
1.0031040e-06 2.0828081e-07 5.2036635e-06 
-1.4572980e-07 -1.6941430e-08 7.5602038e-06 
1.1637421e-07 -1.8217778e-06 7.0470851e-06 
1.5469947e-06 -4.3288028e-06 5.8088585e-06 
1.5781835e-06 7.9616875e-08 3.3875356e-06 
1.2317986e-06 2.3166028e-06 1.1541081e-07 
4.6023294e-07 7.5764902e-08 -1.0865799e-06 
-4.1069026e-07 -5.7871813e-07 -1.9817614e-06 
-5.2007016e-07 3.5577429e-07 -1.2886138e-06 
-3.5953056e-07 8.7158332e-07 -9.1597748e-08 
0.0000000e+00 -2.1412399e-05 0.0000000e+00 
0.0000000e+00 1.7587006e-05 0.0000000e+00 
0.0000000e+00 5.2940894e-05 0.0000000e+00 
0.0000000e+00 6.5251523e-05 0.0000000e+00 
0.0000000e+00 1.0721612e-04 0.0000000e+00 
0.0000000e+00 1.1304267e-04 0.0000000e+00 
0.0000000e+00 8.0664700e-05 0.0000000e+00 
0.0000000e+00 9.8899356e-05 0.0000000e+00 
0.0000000e+00 -1.5377400e-05 0.0000000e+00 
0.0000000e+00 -2.2219992e-04 0.0000000e+00 
0.0000000e+00 -3.9250383e-04 0.0000000e+00 
0.0000000e+00 -5.7555945e-04 0.0000000e+00 
0.0000000e+00 -5.7298859e-04 0.0000000e+00 
0.0000000e+00 -4.8248970e-04 0.0000000e+00 
0.0000000e+00 -2.9706428e-04 0.0000000e+00 
0.0000000e+00 -1.0087621e-04 0.0000000e+00 
0.0000000e+00 1.3771828e-05 0.0000000e+00 
0.0000000e+00 6.3157877e-06 0.0000000e+00 
0.0000000e+00 -1.4687667e-05 0.0000000e+00 
0.0000000e+00 -2.1803336e-05 0.0000000e+00 
0.0000000e+00 -2.0261972e-05 0.0000000e+00 
0.0000000e+00 3.4335859e-05 0.0000000e+00 
0.0000000e+00 8.7535824e-05 0.0000000e+00 
0.0000000e+00 7.7063713e-05 0.0000000e+00 
0.0000000e+00 1.2586113e-04 0.0000000e+00 
0.0000000e+00 1.5590362e-04 0.0000000e+00 
0.0000000e+00 1.0229362e-04 0.0000000e+00 
0.0000000e+00 9.2503280e-05 0.0000000e+00 
0.0000000e+00 3.9255112e-05 0.0000000e+00 
0.0000000e+00 -2.6561861e-04 0.0000000e+00 
0.0000000e+00 -4.2542111e-04 0.0000000e+00 
0.0000000e+00 -5.8944477e-04 0.0000000e+00 
0.0000000e+00 -5.7814800e-04 0.0000000e+00 
0.0000000e+00 -4.7386959e-04 0.0000000e+00 
0.0000000e+00 -2.9796342e-04 0.0000000e+00 
0.0000000e+00 -6.0239006e-05 0.0000000e+00 
0.0000000e+00 1.4415004e-05 0.0000000e+00 
0.0000000e+00 1.9675999e-05 0.0000000e+00 
0.0000000e+00 6.2618064e-06 0.0000000e+00 
0.0000000e+00 -5.7901575e-06 0.0000000e+00 
0.0000000e+00 -1.5351225e-05 0.0000000e+00 
0.0000000e+00 8.0815575e-08 0.0000000e+00 
0.0000000e+00 9.6022695e-06 0.0000000e+00 
0.0000000e+00 2.0282130e-06 0.0000000e+00 
0.0000000e+00 -3.9727506e-06 0.0000000e+00 
0.0000000e+00 -1.8587776e-06 0.0000000e+00 
0.0000000e+00 2.1122935e-06 0.0000000e+00 
0.0000000e+00 6.7927083e-08 0.0000000e+00 
0.0000000e+00 -5.6156807e-07 0.0000000e+00 
-2.4152585e-06 3.5152200e-06 4.0333980e-06 
-1.1984700e-06 6.0692819e-06 3.6254967e-06 
3.8225940e-06 7.2357193e-06 5.8656797e-06 
5.4130792e-06 1.5676795e-06 5.6486369e-06 
-1.4548675e-07 6.8162144e-08 2.9478792e-07 
2.1720010e-07 4.0142930e-07 1.9522462e-07 
2.0933970e-07 -4.1996429e-07 -2.8672025e-07 
-8.7353285e-08 -3.3251683e-07 -6.0627718e-07 
1.6410074e-06 2.4658007e-06 5.4954121e-06 
2.7544738e-07 -5.8171980e-07 1.0185481e-06 
-5.2870055e-06 2.5893372e-05 4.3523578e-06 
-3.0301990e-06 1.6083735e-05 7.2711764e-06 
0.0000000e+00 -9.1145275e-06 0.0000000e+00 
0.0000000e+00 3.0857289e-05 0.0000000e+00 
0.0000000e+00 7.4066549e-05 0.0000000e+00 
0.0000000e+00 1.2926386e-04 0.0000000e+00 
0.0000000e+00 1.8390449e-04 0.0000000e+00 
0.0000000e+00 1.6817635e-04 0.0000000e+00 
0.0000000e+00 1.8181697e-04 0.0000000e+00 
0.0000000e+00 1.5005264e-04 0.0000000e+00 
0.0000000e+00 -6.6099557e-05 0.0000000e+00 
0.0000000e+00 -4.2453632e-04 0.0000000e+00 
0.0000000e+00 -8.7133172e-04 0.0000000e+00 
0.0000000e+00 -1.2558998e-03 0.0000000e+00 
0.0000000e+00 -1.1363446e-03 0.0000000e+00 
0.0000000e+00 -1.0125319e-03 0.0000000e+00 
0.0000000e+00 -5.5741414e-04 0.0000000e+00 