# vtk DataFile Version 4.0
vtk output
ASCII
DATASET UNSTRUCTURED_GRID
POINTS 1919 float
0.0000000e+00 0.0000000e+00 0.0000000e+00 
0.0000000e+00 0.0000000e+00 5.0000000e+01 
5.0000000e+00 0.0000000e+00 0.0000000e+00 
5.0000000e+00 0.0000000e+00 5.0000000e+01 
5.0000000e+00 1.0000000e+00 0.0000000e+00 
5.0000000e+00 1.0000000e+00 5.0000000e+01 
0.0000000e+00 1.0000000e+00 0.0000000e+00 
0.0000000e+00 1.0000000e+00 5.0000000e+01 
5.0000000e+00 2.0000000e+00 0.0000000e+00 
5.0000000e+00 2.0000000e+00 5.0000000e+01 
3.0000000e+00 2.0000000e+00 0.0000000e+00 
3.0000000e+00 2.0000000e+00 5.0000000e+01 
0.0000000e+00 2.0000000e+00 0.0000000e+00 
0.0000000e+00 2.0000000e+00 5.0000000e+01 
1.5000000e+00 3.0000000e+00 0.0000000e+00 
1.5000000e+00 3.0000000e+00 5.0000000e+01 
7.5000000e-01 3.0000000e+00 0.0000000e+00 
7.5000000e-01 3.0000000e+00 5.0000000e+01 
0.0000000e+00 3.0000000e+00 0.0000000e+00 
0.0000000e+00 3.0000000e+00 5.0000000e+01 
7.5000000e-01 3.0000000e+00 5.0000000e-01 
7.5000000e-01 3.0000000e+00 1.0000000e+00 
7.5000000e-01 3.0000000e+00 1.5000000e+00 
7.5000000e-01 3.0000000e+00 2.0000000e+00 
7.5000000e-01 3.0000000e+00 2.5000000e+00 
7.5000000e-01 3.0000000e+00 3.0000000e+00 
7.5000000e-01 3.0000000e+00 3.5000000e+00 
7.5000000e-01 3.0000000e+00 4.0000000e+00 
7.5000000e-01 3.0000000e+00 4.5000000e+00 
7.5000000e-01 3.0000000e+00 5.0000000e+00 
7.5000000e-01 3.0000000e+00 5.5000000e+00 
7.5000000e-01 3.0000000e+00 6.0000000e+00 
7.5000000e-01 3.0000000e+00 6.5000000e+00 
7.5000000e-01 3.0000000e+00 7.0000000e+00 
7.5000000e-01 3.0000000e+00 7.5000000e+00 
7.5000000e-01 3.0000000e+00 8.0000000e+00 
7.5000000e-01 3.0000000e+00 8.5000000e+00 
7.5000000e-01 3.0000000e+00 9.0000000e+00 
7.5000000e-01 3.0000000e+00 9.5000000e+00 
7.5000000e-01 3.0000000e+00 1.0000000e+01 
7.5000000e-01 3.0000000e+00 1.0500000e+01 
7.5000000e-01 3.0000000e+00 1.1000000e+01 
7.5000000e-01 3.0000000e+00 1.1500000e+01 
7.5000000e-01 3.0000000e+00 1.2000000e+01 
7.5000000e-01 3.0000000e+00 1.2500000e+01 
7.5000000e-01 3.0000000e+00 1.3000000e+01 
7.5000000e-01 3.0000000e+00 1.3500000e+01 
7.5000000e-01 3.0000000e+00 1.4000000e+01 
7.5000000e-01 3.0000000e+00 1.4500000e+01 
7.5000000e-01 3.0000000e+00 1.5000000e+01 
7.5000000e-01 3.0000000e+00 1.5500000e+01 
7.5000000e-01 3.0000000e+00 1.6000000e+01 
7.5000000e-01 3.0000000e+00 1.6500000e+01 
7.5000000e-01 3.0000000e+00 1.7000000e+01 
7.5000000e-01 3.0000000e+00 1.7500000e+01 
7.5000000e-01 3.0000000e+00 1.8000000e+01 
7.5000000e-01 3.0000000e+00 1.8500000e+01 
7.5000000e-01 3.0000000e+00 1.9000000e+01 
7.5000000e-01 3.0000000e+00 1.9500000e+01 
7.5000000e-01 3.0000000e+00 2.0000000e+01 
7.5000000e-01 3.0000000e+00 2.0500000e+01 
7.5000000e-01 3.0000000e+00 2.1000000e+01 
7.5000000e-01 3.0000000e+00 2.1500000e+01 
7.5000000e-01 3.0000000e+00 2.2000000e+01 
7.5000000e-01 3.0000000e+00 2.2500000e+01 
7.5000000e-01 3.0000000e+00 2.3000000e+01 
7.5000000e-01 3.0000000e+00 2.3500000e+01 
7.5000000e-01 3.0000000e+00 2.4000000e+01 
7.5000000e-01 3.0000000e+00 2.4500000e+01 
7.5000000e-01 3.0000000e+00 2.5000000e+01 
7.5000000e-01 3.0000000e+00 2.5500000e+01 
7.5000000e-01 3.0000000e+00 2.6000000e+01 
7.5000000e-01 3.0000000e+00 2.6500000e+01 
7.5000000e-01 3.0000000e+00 2.7000000e+01 
7.5000000e-01 3.0000000e+00 2.7500000e+01 
7.5000000e-01 3.0000000e+00 2.8000000e+01 
7.5000000e-01 3.0000000e+00 2.8500000e+01 
7.5000000e-01 3.0000000e+00 2.9000000e+01 
7.5000000e-01 3.0000000e+00 2.9500000e+01 
7.5000000e-01 3.0000000e+00 3.0000000e+01 
7.5000000e-01 3.0000000e+00 3.0500000e+01 
7.5000000e-01 3.0000000e+00 3.1000000e+01 
7.5000000e-01 3.0000000e+00 3.1500000e+01 
7.5000000e-01 3.0000000e+00 3.2000000e+01 
7.5000000e-01 3.0000000e+00 3.2500000e+01 
7.5000000e-01 3.0000000e+00 3.3000000e+01 
7.5000000e-01 3.0000000e+00 3.3500000e+01 
7.5000000e-01 3.0000000e+00 3.4000000e+01 
7.5000000e-01 3.0000000e+00 3.4500000e+01 
7.5000000e-01 3.0000000e+00 3.5000000e+01 
7.5000000e-01 3.0000000e+00 3.5500000e+01 
7.5000000e-01 3.0000000e+00 3.6000000e+01 
7.5000000e-01 3.0000000e+00 3.6500000e+01 
7.5000000e-01 3.0000000e+00 3.7000000e+01 
7.5000000e-01 3.0000000e+00 3.7500000e+01 
7.5000000e-01 3.0000000e+00 3.8000000e+01 
7.5000000e-01 3.0000000e+00 3.8500000e+01 
7.5000000e-01 3.0000000e+00 3.9000000e+01 
7.5000000e-01 3.0000000e+00 3.9500000e+01 
7.5000000e-01 3.0000000e+00 4.0000000e+01 
7.5000000e-01 3.0000000e+00 4.0500000e+01 
7.5000000e-01 3.0000000e+00 4.1000000e+01 
7.5000000e-01 3.0000000e+00 4.1500000e+01 
7.5000000e-01 3.0000000e+00 4.2000000e+01 
7.5000000e-01 3.0000000e+00 4.2500000e+01 
7.5000000e-01 3.0000000e+00 4.3000000e+01 
7.5000000e-01 3.0000000e+00 4.3500000e+01 
7.5000000e-01 3.0000000e+00 4.4000000e+01 
7.5000000e-01 3.0000000e+00 4.4500000e+01 
7.5000000e-01 3.0000000e+00 4.5000000e+01 
7.5000000e-01 3.0000000e+00 4.5500000e+01 
7.5000000e-01 3.0000000e+00 4.6000000e+01 
7.5000000e-01 3.0000000e+00 4.6500000e+01 
7.5000000e-01 3.0000000e+00 4.7000000e+01 
7.5000000e-01 3.0000000e+00 4.7500000e+01 
7.5000000e-01 3.0000000e+00 4.8000000e+01 
7.5000000e-01 3.0000000e+00 4.8500000e+01 
7.5000000e-01 3.0000000e+00 4.9000000e+01 
7.5000000e-01 3.0000000e+00 4.9500000e+01 
7.5000000e-01 3.0250001e+00 0.0000000e+00 
7.5000000e-01 3.0250001e+00 5.0000000e-01 
7.5000000e-01 3.0250001e+00 1.0000000e+00 
7.5000000e-01 3.0250001e+00 1.5000000e+00 
7.5000000e-01 3.0250001e+00 2.0000000e+00 
7.5000000e-01 3.0250001e+00 2.5000000e+00 
7.5000000e-01 3.0250001e+00 3.0000000e+00 
7.5000000e-01 3.0250001e+00 3.5000000e+00 
7.5000000e-01 3.0250001e+00 4.0000000e+00 
7.5000000e-01 3.0250001e+00 4.5000000e+00 
7.5000000e-01 3.0250001e+00 5.0000000e+00 
7.5000000e-01 3.0250001e+00 5.5000000e+00 
7.5000000e-01 3.0250001e+00 6.0000000e+00 
7.5000000e-01 3.0250001e+00 6.5000000e+00 
7.5000000e-01 3.0250001e+00 7.0000000e+00 
7.5000000e-01 3.0250001e+00 7.5000000e+00 
7.5000000e-01 3.0250001e+00 8.0000000e+00 
7.5000000e-01 3.0250001e+00 8.5000000e+00 
7.5000000e-01 3.0250001e+00 9.0000000e+00 
7.5000000e-01 3.0250001e+00 9.5000000e+00 
7.5000000e-01 3.0250001e+00 1.0000000e+01 
7.5000000e-01 3.0250001e+00 1.0500000e+01 
7.5000000e-01 3.0250001e+00 1.1000000e+01 
7.5000000e-01 3.0250001e+00 1.1500000e+01 
7.5000000e-01 3.0250001e+00 1.2000000e+01 
7.5000000e-01 3.0250001e+00 1.2500000e+01 
7.5000000e-01 3.0250001e+00 1.3000000e+01 
7.5000000e-01 3.0250001e+00 1.3500000e+01 
7.5000000e-01 3.0250001e+00 1.4000000e+01 
7.5000000e-01 3.0250001e+00 1.4500000e+01 
7.5000000e-01 3.0250001e+00 1.5000000e+01 
7.5000000e-01 3.0250001e+00 1.5500000e+01 
7.5000000e-01 3.0250001e+00 1.6000000e+01 
7.5000000e-01 3.0250001e+00 1.6500000e+01 
7.5000000e-01 3.0250001e+00 1.7000000e+01 
7.5000000e-01 3.0250001e+00 1.7500000e+01 
7.5000000e-01 3.0250001e+00 1.8000000e+01 
7.5000000e-01 3.0250001e+00 1.8500000e+01 
7.5000000e-01 3.0250001e+00 1.9000000e+01 
7.5000000e-01 3.0250001e+00 1.9500000e+01 
7.5000000e-01 3.0250001e+00 2.0000000e+01 
7.5000000e-01 3.0250001e+00 2.0500000e+01 
7.5000000e-01 3.0250001e+00 2.1000000e+01 
7.5000000e-01 3.0250001e+00 2.1500000e+01 
7.5000000e-01 3.0250001e+00 2.2000000e+01 
7.5000000e-01 3.0250001e+00 2.2500000e+01 
7.5000000e-01 3.0250001e+00 2.3000000e+01 
7.5000000e-01 3.0250001e+00 2.3500000e+01 
7.5000000e-01 3.0250001e+00 2.4000000e+01 
7.5000000e-01 3.0250001e+00 2.4500000e+01 
7.5000000e-01 3.0250001e+00 2.5000000e+01 
7.5000000e-01 3.0250001e+00 2.5500000e+01 
7.5000000e-01 3.0250001e+00 2.6000000e+01 
7.5000000e-01 3.0250001e+00 2.6500000e+01 
7.5000000e-01 3.0250001e+00 2.7000000e+01 
7.5000000e-01 3.0250001e+00 2.7500000e+01 
7.5000000e-01 3.0250001e+00 2.8000000e+01 
7.5000000e-01 3.0250001e+00 2.8500000e+01 
7.5000000e-01 3.0250001e+00 2.9000000e+01 
7.5000000e-01 3.0250001e+00 2.9500000e+01 
7.5000000e-01 3.0250001e+00 3.0000000e+01 
7.5000000e-01 3.0250001e+00 3.0500000e+01 
7.5000000e-01 3.0250001e+00 3.1000000e+01 
7.5000000e-01 3.0250001e+00 3.1500000e+01 
7.5000000e-01 3.0250001e+00 3.2000000e+01 
7.5000000e-01 3.0250001e+00 3.2500000e+01 
7.5000000e-01 3.0250001e+00 3.3000000e+01 
7.5000000e-01 3.0250001e+00 3.3500000e+01 
7.5000000e-01 3.0250001e+00 3.4000000e+01 
7.5000000e-01 3.0250001e+00 3.4500000e+01 
7.5000000e-01 3.0250001e+00 3.5000000e+01 
7.5000000e-01 3.0250001e+00 3.5500000e+01 
7.5000000e-01 3.0250001e+00 3.6000000e+01 
7.5000000e-01 3.0250001e+00 3.6500000e+01 
7.5000000e-01 3.0250001e+00 3.7000000e+01 
7.5000000e-01 3.0250001e+00 3.7500000e+01 
7.5000000e-01 3.0250001e+00 3.8000000e+01 
7.5000000e-01 3.0250001e+00 3.8500000e+01 
7.5000000e-01 3.0250001e+00 3.9000000e+01 
7.5000000e-01 3.0250001e+00 3.9500000e+01 
7.5000000e-01 3.0250001e+00 4.0000000e+01 
7.5000000e-01 3.0250001e+00 4.0500000e+01 
7.5000000e-01 3.0250001e+00 4.1000000e+01 
7.5000000e-01 3.0250001e+00 4.1500000e+01 
7.5000000e-01 3.0250001e+00 4.2000000e+01 
7.5000000e-01 3.0250001e+00 4.2500000e+01 
7.5000000e-01 3.0250001e+00 4.3000000e+01 
7.5000000e-01 3.0250001e+00 4.3500000e+01 
7.5000000e-01 3.0250001e+00 4.4000000e+01 
7.5000000e-01 3.0250001e+00 4.4500000e+01 
7.5000000e-01 3.0250001e+00 4.5000000e+01 
7.5000000e-01 3.0250001e+00 4.5500000e+01 
7.5000000e-01 3.0250001e+00 4.6000000e+01 
7.5000000e-01 3.0250001e+00 4.6500000e+01 
7.5000000e-01 3.0250001e+00 4.7000000e+01 
7.5000000e-01 3.0250001e+00 4.7500000e+01 
7.5000000e-01 3.0250001e+00 4.8000000e+01 
7.5000000e-01 3.0250001e+00 4.8500000e+01 
7.5000000e-01 3.0250001e+00 4.9000000e+01 
7.5000000e-01 3.0250001e+00 4.9500000e+01 
7.5000000e-01 3.0250001e+00 5.0000000e+01 
1.5000000e+00 3.0000000e+00 2.5000000e+01 
3.0000000e+00 2.0000000e+00 2.5000000e+01 
4.0000000e+00 2.0000000e+00 2.5000000e+01 
5.0000000e+00 2.0000000e+00 2.5000000e+01 
0.0000000e+00 3.0000000e+00 2.5000000e+01 
0.0000000e+00 0.0000000e+00 1.0000000e+00 
0.0000000e+00 0.0000000e+00 2.0000000e+00 
0.0000000e+00 0.0000000e+00 3.0000000e+00 
0.0000000e+00 0.0000000e+00 4.0000000e+00 
0.0000000e+00 0.0000000e+00 5.0000000e+00 
[...]
POINT_DATA 1919
FIELD FieldData 3
DISPLACEMENT 3 1919  float
0.0000000e+00 0.0000000e+00 0.0000000e+00 
0.0000000e+00 0.0000000e+00 0.0000000e+00 
0.0000000e+00 0.0000000e+00 0.0000000e+00 
0.0000000e+00 0.0000000e+00 0.0000000e+00 
2.4108249e-05 -1.4683739e-06 -2.2004693e-05 
9.6162321e-11 -4.7907083e-09 -2.9688829e-10 
0.0000000e+00 -1.2440541e-05 0.0000000e+00 
0.0000000e+00 -1.8106508e-08 0.0000000e+00 
2.1689710e-05 1.3144270e-05 -2.2475251e-05 
-6.2208655e-10 -3.8939945e-09 2.9654076e-10 
-6.3423290e-06 -4.7039875e-06 1.3360832e-05 
-1.1591341e-08 -2.3957037e-08 -7.3063777e-09 
0.0000000e+00 -2.3671473e-05 0.0000000e+00 
0.0000000e+00 1.3519983e-07 0.0000000e+00 
-2.0473482e-05 5.0421168e-05 1.0116061e-04 
-6.8722493e-08 1.3439411e-07 -1.3498733e-08 
1.5871659e-05 1.0093406e-05 1.9532165e-05 
7.8290774e-10 3.4832888e-07 7.6073398e-08 
0.0000000e+00 8.4445281e-05 0.0000000e+00 
0.0000000e+00 6.1638639e-07 0.0000000e+00 
6.2557569e-07 -1.4714516e-05 8.7144763e-05 
-7.3806232e-06 -7.3778516e-05 1.1599750e-04 
-2.5443294e-05 -1.3580604e-04 9.4294170e-05 
-4.1821044e-05 -1.7936209e-04 7.6125347e-05 
-2.6572279e-05 -1.9854793e-04 1.2380200e-04 
-4.5310702e-05 -2.0585809e-04 1.4322589e-04 
-4.8748076e-05 -2.4904610e-04 1.5884168e-04 
-9.2975744e-05 -3.8782306e-04 1.7698188e-04 
-1.6329857e-04 -6.4364844e-04 2.1256245e-04 
-1.9527964e-04 -1.0175344e-03 1.9164757e-04 
-2.4219687e-04 -1.5659920e-03 3.0868634e-04 
-2.4836455e-04 -2.3590650e-03 2.2695164e-04 
-3.1062844e-04 -3.4821196e-03 2.9203953e-04 
-4.2538901e-04 -4.8032966e-03 6.4741136e-05 
-4.6655582e-04 -5.7644546e-03 -6.6541038e-06 
-4.7921337e-04 -5.5365465e-03 -1.1059259e-04 
-3.8519752e-04 -4.9390243e-03 -2.4795218e-04 
-3.2224110e-04 -4.6266154e-03 -2.6177056e-04 
-2.5687367e-04 -4.7690137e-03 -2.2237176e-04 
-3.0022062e-04 -4.7488683e-03 -2.3049464e-04 
-2.3471267e-04 -3.7532486e-03 -3.6830481e-04 
-2.0282746e-04 -2.3357994e-03 -2.6564888e-04 
-8.1267004e-05 -1.1071112e-03 -3.7774397e-04 
-7.3884012e-06 -2.6384511e-04 -2.1068270e-04 
3.4456130e-05 1.7395955e-04 -1.2953008e-04 
3.8562346e-05 3.1631018e-04 -9.3158660e-06 
4.5864340e-06 2.9285366e-04 3.5530575e-05 
1.7853786e-07 2.0538473e-04 5.4862525e-05 
-3.3901965e-06 1.0999482e-04 5.1407882e-05 
-3.3997126e-06 3.6752816e-05 1.8155240e-05 
4.2376773e-06 -1.9705865e-06 1.6258977e-05 
1.1146200e-06 -2.0939573e-05 -7.7810246e-06 
-2.5532886e-06 -3.4995075e-05 -1.5927977e-05 
-8.1214017e-07 -3.9559738e-05 -3.6277324e-06 
-3.9553893e-06 -2.5828496e-05 -1.5967787e-05 
1.4750475e-06 7.7377863e-06 -1.7701552e-05 
-1.2066539e-06 4.4770713e-05 -6.9680282e-06 
-4.6644077e-06 5.6029148e-05 -1.2640845e-05 
-9.1156326e-06 3.4647455e-05 2.7170399e-06 
1.1169337e-05 4.7261146e-06 2.4930379e-05 
1.9648412e-05 -2.0526835e-05 6.0197413e-05 
1.0589869e-07 -5.1910185e-05 8.1185004e-05 
-5.2510113e-06 -1.0719713e-04 7.9350335e-05 
-4.7263580e-05 -1.9309334e-04 7.5085030e-05 
-6.2659863e-05 -2.7317356e-04 1.0525889e-04 
-5.6140278e-05 -2.9179800e-04 1.3452017e-04 
-7.5585631e-05 -2.6111183e-04 2.1643937e-04 
-1.5399004e-05 -3.0039929e-04 2.0315425e-04 
-1.4469202e-04 -5.3104974e-04 2.1842608e-04 
-1.0161718e-04 -1.0035411e-03 2.1418244e-04 
-2.3732323e-04 -1.7252623e-03 2.7154433e-04 
-2.5001509e-04 -2.6584810e-03 1.5973391e-04 
-3.5167136e-04 -3.7990571e-03 2.6927365e-04 
-4.5248953e-04 -4.9755345e-03 4.4100540e-05 
-4.6150503e-04 -5.7185180e-03 -5.1920324e-05 
-4.6013959e-04 -5.4331636e-03 -1.1292660e-04 
-4.0127081e-04 -4.9463860e-03 -2.7698313e-04 
-3.9476357e-04 -4.7557512e-03 -3.3715676e-04 
-3.4323099e-04 -4.8819217e-03 -3.1582217e-04 
-3.6161704e-04 -4.6759285e-03 -2.6935150e-04 
-2.8906681e-04 -3.5470517e-03 -4.4752163e-04 
-1.9312986e-04 -2.0992234e-03 -2.7946878e-04 
-6.4323664e-05 -9.4371021e-04 -3.6564964e-04 
3.9441070e-06 -1.9920440e-04 -2.0887301e-04 
3.6622678e-05 1.9119133e-04 -1.1043268e-04 
4.1222196e-05 3.3481387e-04 1.0440595e-05 
8.3807618e-06 3.1301373e-04 5.4668853e-05 
5.3146000e-06 2.0831129e-04 5.9575945e-05 
2.7985598e-06 9.7651180e-05 4.6592897e-05 
-1.2006304e-06 2.4099349e-05 1.0864303e-05 
2.9776740e-07 -4.8064903e-06 9.8488490e-06 
-2.4742812e-06 -1.4307542e-05 -8.4399508e-06 
-2.1664166e-06 -2.5560645e-05 -1.2327029e-05 
1.8055172e-06 -3.4326786e-05 -3.3147392e-06 
-3.4632444e-06 -2.8411912e-05 -2.6136263e-06 
1.7652377e-06 -8.9531932e-06 4.2504730e-06 
3.0814971e-07 1.1127930e-05 1.8854827e-06 
1.0929041e-06 1.9088708e-05 -1.1619985e-06 
3.6350886e-07 1.3255593e-05 3.6980955e-06 
3.9505443e-07 2.4119579e-06 4.9859199e-07 
-5.0673975e-07 -5.6228855e-06 -2.0704772e-06 
-3.2626528e-07 -8.7649360e-06 8.1280069e-07 
-3.2029232e-07 -6.7650312e-06 -1.0666014e-06 
9.7629478e-09 -1.1407926e-06 -3.2636990e-07 
5.2067674e-07 4.9982991e-06 1.4486747e-06 
7.9624400e-08 7.3072524e-06 -2.5382164e-07 
-1.3847686e-07 3.4226198e-06 -1.3340724e-07 
6.4882570e-08 -2.7151780e-06 4.9316014e-07 
-1.0569904e-07 -5.2438545e-06 -5.4253883e-07 
7.6870093e-09 -2.9821538e-06 -4.2724963e-08 
8.4741281e-08 1.0256887e-06 3.1114217e-07 
-2.6573913e-08 3.0426274e-06 -1.8481055e-07 
3.1172760e-08 1.8894199e-06 5.6589840e-08 
8.3606459e-08 -2.7527284e-07 1.8307959e-07 
-9.7817310e-09 -1.2348902e-06 -1.2214703e-07 
-2.1686663e-08 -9.7917700e-07 4.6914760e-08 
7.4605985e-08 -3.9548630e-07 2.1478769e-08 
-2.4528200e-08 1.2502689e-08 1.2741070e-08 
2.3546928e-08 2.4012871e-07 -5.0709623e-08 
0.0000000e+00 9.8923401e-06 0.0000000e+00 
0.0000000e+00 -1.4950066e-05 0.0000000e+00 
0.0000000e+00 -7.3800722e-05 0.0000000e+00 
0.0000000e+00 -1.3608439e-04 0.0000000e+00 
0.0000000e+00 -1.7922641e-04 0.0000000e+00 
0.0000000e+00 -1.9690645e-04 0.0000000e+00 
0.0000000e+00 -2.0453776e-04 0.0000000e+00 
0.0000000e+00 -2.5016684e-04 0.0000000e+00 
0.0000000e+00 -3.8921140e-04 0.0000000e+00 
0.0000000e+00 -6.4273068e-04 0.0000000e+00 
0.0000000e+00 -1.0178594e-03 0.0000000e+00 
0.0000000e+00 -1.5648602e-03 0.0000000e+00 
0.0000000e+00 -2.3656767e-03 0.0000000e+00 
0.0000000e+00 -3.4967354e-03 0.0000000e+00 
0.0000000e+00 -4.8344149e-03 0.0000000e+00 
0.0000000e+00 -5.7866294e-03 0.0000000e+00 
0.0000000e+00 -5.5647553e-03 0.0000000e+00 
0.0000000e+00 -4.9557313e-03 0.0000000e+00 
0.0000000e+00 -4.6539186e-03 0.0000000e+00 
0.0000000e+00 -4.7953166e-03 0.0000000e+00 
0.0000000e+00 -4.7800480e-03 0.0000000e+00 
0.0000000e+00 -3.7721375e-03 0.0000000e+00 
0.0000000e+00 -2.3515213e-03 0.0000000e+00 
0.0000000e+00 -1.1129525e-03 0.0000000e+00 
0.0000000e+00 -2.6745774e-04 0.0000000e+00 
0.0000000e+00 1.7405878e-04 0.0000000e+00 
0.0000000e+00 3.1737186e-04 0.0000000e+00 
0.0000000e+00 2.9427596e-04 0.0000000e+00 
0.0000000e+00 2.0634160e-04 0.0000000e+00 
0.0000000e+00 1.1085309e-04 0.0000000e+00 
0.0000000e+00 3.7927999e-05 0.0000000e+00 
0.0000000e+00 -2.1244239e-06 0.0000000e+00 
0.0000000e+00 -2.1971518e-05 0.0000000e+00 
0.0000000e+00 -3.5245106e-05 0.0000000e+00 
0.0000000e+00 -3.9192393e-05 0.0000000e+00 
0.0000000e+00 -2.4988100e-05 0.0000000e+00 
0.0000000e+00 8.3215427e-06 0.0000000e+00 
0.0000000e+00 4.3805136e-05 0.0000000e+00 
0.0000000e+00 5.4646040e-05 0.0000000e+00 
0.0000000e+00 3.4988407e-05 0.0000000e+00 
0.0000000e+00 5.7416046e-06 0.0000000e+00 
0.0000000e+00 -1.9896821e-05 0.0000000e+00 
0.0000000e+00 -5.1912295e-05 0.0000000e+00 
0.0000000e+00 -1.0896254e-04 0.0000000e+00 
0.0000000e+00 -1.9460291e-04 0.0000000e+00 
0.0000000e+00 -2.7147622e-04 0.0000000e+00 
0.0000000e+00 -2.8781712e-04 0.0000000e+00 
0.0000000e+00 -2.6014974e-04 0.0000000e+00 
0.0000000e+00 -3.0213952e-04 0.0000000e+00 
0.0000000e+00 -5.3296477e-04 0.0000000e+00 
0.0000000e+00 -1.0066682e-03 0.0000000e+00 
0.0000000e+00 -1.7246123e-03 0.0000000e+00 
0.0000000e+00 -2.6643102e-03 0.0000000e+00 
0.0000000e+00 -3.8107999e-03 0.0000000e+00 
0.0000000e+00 -5.0063771e-03 0.0000000e+00 
0.0000000e+00 -5.7439869e-03 0.0000000e+00 
0.0000000e+00 -5.4653599e-03 0.0000000e+00 
0.0000000e+00 -4.9629752e-03 0.0000000e+00 
0.0000000e+00 -4.7807684e-03 0.0000000e+00 
0.0000000e+00 -4.9040369e-03 0.0000000e+00 
0.0000000e+00 -4.7090957e-03 0.0000000e+00 
0.0000000e+00 -3.5652469e-03 0.0000000e+00 
0.0000000e+00 -2.1164413e-03 0.0000000e+00 
0.0000000e+00 -9.4877341e-04 0.0000000e+00 
0.0000000e+00 -2.0014240e-04 0.0000000e+00 
0.0000000e+00 1.9230264e-04 0.0000000e+00 
0.0000000e+00 3.3457507e-04 0.0000000e+00 
0.0000000e+00 3.1341997e-04 0.0000000e+00 
0.0000000e+00 2.1006801e-04 0.0000000e+00 
0.0000000e+00 9.8921060e-05 0.0000000e+00 
0.0000000e+00 2.4887011e-05 0.0000000e+00 
0.0000000e+00 -5.2023015e-06 0.0000000e+00 
0.0000000e+00 -1.5123330e-05 0.0000000e+00 
0.0000000e+00 -2.5577794e-05 0.0000000e+00 
0.0000000e+00 -3.3748816e-05 0.0000000e+00 
0.0000000e+00 -2.8191458e-05 0.0000000e+00 
0.0000000e+00 -9.1565689e-06 0.0000000e+00 
0.0000000e+00 1.0752422e-05 0.0000000e+00 
0.0000000e+00 1.8850633e-05 0.0000000e+00 
0.0000000e+00 1.3374566e-05 0.0000000e+00 
0.0000000e+00 2.6058449e-06 0.0000000e+00 
0.0000000e+00 -5.5993651e-06 0.0000000e+00 
0.0000000e+00 -8.6823884e-06 0.0000000e+00 
0.0000000e+00 -6.7053379e-06 0.0000000e+00 
0.0000000e+00 -1.1584651e-06 0.0000000e+00 
0.0000000e+00 4.8916459e-06 0.0000000e+00 
0.0000000e+00 7.1119898e-06 0.0000000e+00 
0.0000000e+00 3.4165803e-06 0.0000000e+00 
0.0000000e+00 -2.5103852e-06 0.0000000e+00 
0.0000000e+00 -5.1256193e-06 0.0000000e+00 
0.0000000e+00 -3.0118561e-06 0.0000000e+00 
0.0000000e+00 9.2617222e-07 0.0000000e+00 
0.0000000e+00 2.9436617e-06 0.0000000e+00 
0.0000000e+00 1.9003268e-06 0.0000000e+00 
0.0000000e+00 -1.8882612e-07 0.0000000e+00 
0.0000000e+00 -1.1936158e-06 0.0000000e+00 
0.0000000e+00 -9.9229192e-07 0.0000000e+00 
0.0000000e+00 -4.3505429e-07 0.0000000e+00 
0.0000000e+00 -1.6719829e-08 0.0000000e+00 
0.0000000e+00 2.5054206e-07 0.0000000e+00 
0.0000000e+00 3.7073988e-07 0.0000000e+00 
-6.9516114e-05 -2.7832898e-04 2.5543207e-04 
3.8803364e-06 7.4362724e-05 8.5639249e-06 
-3.3183383e-05 -9.7995602e-05 1.7411372e-05 
-2.7355414e-05 -1.2393185e-04 -7.2328398e-06 
0.0000000e+00 -9.7711582e-04 0.0000000e+00 
0.0000000e+00 0.0000000e+00 0.0000000e+00 
0.0000000e+00 0.0000000e+00 0.0000000e+00 
0.0000000e+00 0.0000000e+00 0.0000000e+00 
0.0000000e+00 0.0000000e+00 0.0000000e+00 
0.0000000e+00 0.0000000e+00 0.0000000e+00 
0.0000000e+00 0.0000000e+00 0.0000000e+00 
0.0000000e+00 0.0000000e+00 0.0000000e+00 
0.0000000e+00 0.0000000e+00 0.0000000e+00 
0.0000000e+00 0.0000000e+00 0.0000000e+00 
0.0000000e+00 0.0000000e+00 0.0000000e+00 
0.0000000e+00 0.0000000e+00 0.0000000e+00 
0.0000000e+00 0.0000000e+00 0.0000000e+00 
0.0000000e+00 0.0000000e+00 0.0000000e+00 
0.0000000e+00 0.0000000e+00 0.0000000e+00 
0.0000000e+00 0.0000000e+00 0.0000000e+00 
0.0000000e+00 0.0000000e+00 0.0000000e+00 
0.0000000e+00 0.0000000e+00 0.0000000e+00 
0.0000000e+00 0.0000000e+00 0.0000000e+00 
0.0000000e+00 0.0000000e+00 0.0000000e+00 
0.0000000e+00 0.0000000e+00 0.0000000e+00 
0.0000000e+00 0.0000000e+00 0.0000000e+00 
0.0000000e+00 0.0000000e+00 0.0000000e+00 
0.0000000e+00 0.0000000e+00 0.0000000e+00 
0.0000000e+00 0.0000000e+00 0.0000000e+00 
0.0000000e+00 0.0000000e+00 0.0000000e+00 
0.0000000e+00 0.0000000e+00 0.0000000e+00 
0.0000000e+00 0.0000000e+00 0.0000000e+00 
0.0000000e+00 0.0000000e+00 0.0000000e+00 
0.0000000e+00 0.0000000e+00 0.0000000e+00 
0.0000000e+00 0.0000000e+00 0.0000000e+00 
0.0000000e+00 0.0000000e+00 0.0000000e+00 
0.0000000e+00 0.0000000e+00 0.0000000e+00 
0.0000000e+00 0.0000000e+00 0.0000000e+00 
0.0000000e+00 0.0000000e+00 0.0000000e+00 
0.0000000e+00 0.0000000e+00 0.0000000e+00 
0.0000000e+00 0.0000000e+00 0.0000000e+00 
0.0000000e+00 0.0000000e+00 0.0000000e+00 
0.0000000e+00 0.0000000e+00 0.0000000e+00 
0.0000000e+00 0.0000000e+00 0.0000000e+00 
0.0000000e+00 0.0000000e+00 0.0000000e+00 
0.0000000e+00 0.0000000e+00 0.0000000e+00 
0.0000000e+00 0.0000000e+00 0.0000000e+00 
0.0000000e+00 0.0000000e+00 0.0000000e+00 
0.0000000e+00 0.0000000e+00 0.0000000e+00 
0.0000000e+00 0.0000000e+00 0.0000000e+00 
0.0000000e+00 0.0000000e+00 0.0000000e+00 
0.0000000e+00 0.0000000e+00 0.0000000e+00 
0.0000000e+00 0.0000000e+00 0.0000000e+00 
0.0000000e+00 0.0000000e+00 0.0000000e+00 
0.0000000e+00 0.0000000e+00 0.0000000e+00 
0.0000000e+00 0.0000000e+00 0.0000000e+00 
0.0000000e+00 0.0000000e+00 0.0000000e+00 
0.0000000e+00 0.0000000e+00 0.0000000e+00 
0.0000000e+00 0.0000000e+00 0.0000000e+00 
0.0000000e+00 0.0000000e+00 0.0000000e+00 
0.0000000e+00 0.0000000e+00 0.0000000e+00 
0.0000000e+00 0.0000000e+00 0.0000000e+00 
0.0000000e+00 0.0000000e+00 0.0000000e+00 
0.0000000e+00 0.0000000e+00 0.0000000e+00 
0.0000000e+00 0.0000000e+00 0.0000000e+00 
0.0000000e+00 0.0000000e+00 0.0000000e+00 
0.0000000e+00 0.0000000e+00 0.0000000e+00 
0.0000000e+00 0.0000000e+00 0.0000000e+00 
0.0000000e+00 0.0000000e+00 0.0000000e+00 
0.0000000e+00 0.0000000e+00 0.0000000e+00 
0.0000000e+00 0.0000000e+00 0.0000000e+00 
0.0000000e+00 0.0000000e+00 0.0000000e+00 
0.0000000e+00 0.0000000e+00 0.0000000e+00 
0.0000000e+00 0.0000000e+00 0.0000000e+00 
0.0000000e+00 0.0000000e+00 0.0000000e+00 
0.0000000e+00 0.0000000e+00 0.0000000e+00 
0.0000000e+00 0.0000000e+00 0.0000000e+00 
0.0000000e+00 0.0000000e+00 0.0000000e+00 
0.0000000e+00 0.0000000e+00 0.0000000e+00 
0.0000000e+00 0.0000000e+00 0.0000000e+00 
0.0000000e+00 0.0000000e+00 0.0000000e+00 
0.0000000e+00 0.0000000e+00 0.0000000e+00 
0.0000000e+00 0.0000000e+00 0.0000000e+00 
0.0000000e+00 0.0000000e+00 0.0000000e+00 
0.0000000e+00 0.0000000e+00 0.0000000e+00 
0.0000000e+00 0.0000000e+00 0.0000000e+00 
0.0000000e+00 0.0000000e+00 0.0000000e+00 
0.0000000e+00 0.0000000e+00 0.0000000e+00 
0.0000000e+00 0.0000000e+00 0.0000000e+00 
0.0000000e+00 0.0000000e+00 0.0000000e+00 
0.0000000e+00 0.0000000e+00 0.0000000e+00 
0.0000000e+00 0.0000000e+00 0.0000000e+00 
0.0000000e+00 0.0000000e+00 0.0000000e+00 
0.0000000e+00 0.0000000e+00 0.0000000e+00 
0.0000000e+00 0.0000000e+00 0.0000000e+00 
0.0000000e+00 0.0000000e+00 0.0000000e+00 
0.0000000e+00 0.0000000e+00 0.0000000e+00 
0.0000000e+00 0.0000000e+00 0.0000000e+00 
0.0000000e+00 0.0000000e+00 0.0000000e+00 
0.0000000e+00 0.0000000e+00 0.0000000e+00 
0.0000000e+00 0.0000000e+00 0.0000000e+00 
0.0000000e+00 0.0000000e+00 0.0000000e+00 
0.0000000e+00 0.0000000e+00 0.0000000e+00 
0.0000000e+00 0.0000000e+00 0.0000000e+00 
0.0000000e+00 0.0000000e+00 0.0000000e+00 
0.0000000e+00 0.0000000e+00 0.0000000e+00 
0.0000000e+00 0.0000000e+00 0.0000000e+00 
0.0000000e+00 0.0000000e+00 0.0000000e+00 
0.0000000e+00 0.0000000e+00 0.0000000e+00 
0.0000000e+00 0.0000000e+00 0.0000000e+00 
0.0000000e+00 0.0000000e+00 0.0000000e+00 
2.1187461e-05 1.1388381e-06 -3.1832664e-05 
1.9942379e-05 -1.1752298e-06 -4.1303680e-05 
1.5621834e-05 -1.7043303e-05 -4.1233689e-05 
5.1459338e-06 -3.4793022e-05 -3.4474731e-05 
-9.1457031e-07 -6.6295142e-05 -2.6424605e-05 
-1.0917073e-06 -9.4791962e-05 -2.2655222e-05 
5.6425483e-06 -9.8769749e-05 -1.7472274e-05 
3.3950571e-05 -7.8637400e-05 -1.0656340e-07 
4.8756603e-05 -4.1789033e-05 2.9074225e-05 
6.2520499e-05 -1.8822801e-06 6.4764630e-05 
5.7691377e-05 -1.4159097e-05 6.0575599e-05 
4.0713425e-05 5.8001870e-06 5.2163734e-05 
1.6379887e-05 1.5991600e-05 3.1633863e-05 
3.2544517e-06 -2.8538310e-05 6.1685419e-06 
5.9516569e-06 -1.0168672e-05 -5.6420623e-07 
-1.0926117e-06 1.5344007e-05 -6.8410469e-07 
9.8838268e-07 1.4734494e-06 2.6617822e-06 
3.2598116e-06 -1.7939890e-05 -4.0765949e-06 
9.2047567e-06 1.0617250e-05 -1.4256490e-05 
1.8789504e-05 8.4323456e-06 -3.0215284e-05 
1.5795284e-05 -8.1753424e-06 -3.4333527e-05 
9.9458375e-06 -9.7556567e-06 -4.0876996e-05 
1.8944525e-06 -2.8356728e-05 -3.7476653e-05 
-3.9441466e-06 -7.0191614e-05 -2.8000888e-05 
-1.5080976e-05 -9.2827897e-05 -2.0603100e-05 
-1.2703605e-05 -1.1397379e-04 -2.5890293e-05 
1.7064620e-05 -9.5249619e-05 -1.3801424e-05 
4.5233086e-05 -7.4761629e-05 1.3198845e-05 
6.2195511e-05 -1.1486447e-05 4.0239480e-05 
5.4534634e-05 -5.8369164e-06 5.4775359e-05 
4.7951176e-05 -8.6893260e-06 5.6611145e-05 
3.8036938e-05 1.8993593e-05 5.0654304e-05 
1.9940078e-05 4.6994005e-06 3.3130382e-05 
7.0773340e-06 -1.9924493e-05 1.2069068e-05 
4.9866549e-06 -7.9324991e-06 9.4032771e-07 
-2.1511869e-06 1.1888898e-05 -4.3122454e-06 
-2.0818970e-06 6.7078946e-07 -4.6123682e-07 
1.3796139e-06 -6.0535958e-06 1.7128999e-06 
5.8667882e-07 8.3146278e-07 3.3853857e-07 
-5.0958516e-07 1.4211176e-06 -1.3995057e-07 
1.6459352e-07 -7.1110810e-07 1.8524917e-08 
1.8069639e-07 -1.2375800e-07 -1.6404710e-08 
-1.2565145e-07 3.2223761e-07 -1.6514161e-08 
1.1712270e-09 -1.3551328e-07 1.8921735e-08 
1.1587827e-08 -4.0004114e-08 -4.7574705e-08 
-3.3984132e-10 3.2000974e-10 -1.3826943e-08 
-5.8613692e-09 1.3756512e-08 5.5881118e-09 
2.2815676e-09 -7.8997449e-09 3.2803955e-09 
-3.6429204e-10 7.6240392e-09 -4.1710721e-10 
0.0000000e+00 -3.3211483e-05 0.0000000e+00 
0.0000000e+00 4.9240275e-06 0.0000000e+00 
0.0000000e+00 5.6711837e-05 0.0000000e+00 
0.0000000e+00 2.6327312e-05 0.0000000e+00 
0.0000000e+00 -3.5808895e-05 0.0000000e+00 
0.0000000e+00 -1.6048108e-04 0.0000000e+00 
0.0000000e+00 -3.9493715e-04 0.0000000e+00 
0.0000000e+00 -4.4488307e-04 0.0000000e+00 
0.0000000e+00 -4.8451085e-04 0.0000000e+00 
0.0000000e+00 -4.4705477e-04 0.0000000e+00 
0.0000000e+00 -2.6668166e-04 0.0000000e+00 
0.0000000e+00 -1.0644896e-04 0.0000000e+00 
0.0000000e+00 -2.7461345e-05 0.0000000e+00 
0.0000000e+00 1.7029803e-05 0.0000000e+00 
0.0000000e+00 1.3602050e-05 0.0000000e+00 
0.0000000e+00 9.7647371e-06 0.0000000e+00 
0.0000000e+00 8.4594767e-06 0.0000000e+00 
0.0000000e+00 -6.3393727e-06 0.0000000e+00 
0.0000000e+00 -2.0429308e-05 0.0000000e+00 
0.0000000e+00 1.3957009e-06 0.0000000e+00 
0.0000000e+00 -1.5577754e-05 0.0000000e+00 
0.0000000e+00 1.3897570e-06 0.0000000e+00 
0.0000000e+00 2.6230218e-05 0.0000000e+00 
0.0000000e+00 -4.1916887e-06 0.0000000e+00 
0.0000000e+00 -6.9828900e-05 0.0000000e+00 
0.0000000e+00 -2.5719815e-04 0.0000000e+00 
0.0000000e+00 -4.2783475e-04 0.0000000e+00 
0.0000000e+00 -4.7851363e-04 0.0000000e+00 
0.0000000e+00 -4.8494854e-04 0.0000000e+00 
0.0000000e+00 -3.9998628e-04 0.0000000e+00 
0.0000000e+00 -2.4821435e-04 0.0000000e+00 
0.0000000e+00 -6.4636537e-05 0.0000000e+00 
0.0000000e+00 -1.4261199e-05 0.0000000e+00 
0.0000000e+00 2.2280814e-05 0.0000000e+00 
0.0000000e+00 1.3066755e-05 0.0000000e+00 
0.0000000e+00 6.8547174e-06 0.0000000e+00 
0.0000000e+00 -4.8721990e-06 0.0000000e+00 
0.0000000e+00 -8.0543059e-06 0.0000000e+00 
0.0000000e+00 -1.3128077e-06 0.0000000e+00 
0.0000000e+00 3.9974730e-06 0.0000000e+00 
0.0000000e+00 1.5680138e-06 0.0000000e+00 
0.0000000e+00 -1.8451952e-06 0.0000000e+00 
0.0000000e+00 -1.1474102e-06 0.0000000e+00 
0.0000000e+00 1.5187029e-06 0.0000000e+00 
0.0000000e+00 -1.2422340e-08 0.0000000e+00 
0.0000000e+00 -4.2902681e-07 0.0000000e+00 
0.0000000e+00 4.2438924e-07 0.0000000e+00 
0.0000000e+00 -2.0698837e-07 0.0000000e+00 
0.0000000e+00 1.5441069e-08 0.0000000e+00 
1.7821227e-05 6.1912151e-06 -2.5462130e-05 
6.4324568e-06 -5.0900794e-06 -2.3846722e-05 
3.7509085e-06 -1.7886627e-05 -1.6826656e-05 
-3.8151668e-07 1.5569561e-06 -6.0552829e-06 
1.3734438e-09 9.6540136e-09 2.9896665e-09 
-1.4064094e-09 -1.5643481e-08 -4.0539514e-09 
-5.0809663e-09 3.5488863e-08 -1.1229734e-08 
-7.1821482e-10 -3.0786868e-08 1.3806988e-08 
4.0778373e-06 2.4232486e-06 -1.1416849e-05 
3.8021453e-09 8.0029343e-09 2.4895859e-09 
1.6266787e-05 -6.3968150e-06 -1.4334008e-05 
-1.1455728e-05 -1.3058196e-05 1.8588509e-05 
0.0000000e+00 -4.8628943e-05 0.0000000e+00 
0.0000000e+00 4.7578498e-05 0.0000000e+00 
0.0000000e+00 2.8922819e-05 0.0000000e+00 
0.0000000e+00 9.0734466e-06 0.0000000e+00 
0.0000000e+00 -5.7378660e-05 0.0000000e+00 
0.0000000e+00 -4.7628913e-04 0.0000000e+00 
0.0000000e+00 -8.8077993e-04 0.0000000e+00 
0.0000000e+00 -9.8925666e-04 0.0000000e+00 
0.0000000e+00 -1.0231828e-03 0.0000000e+00 
0.0000000e+00 -9.1328647e-04 0.0000000e+00 
0.0000000e+00 -4.8841891e-04 0.0000000e+00 
0.0000000e+00 -1.7070574e-04 0.0000000e+00 
0.0000000e+00 7.7400964e-06 0.0000000e+00 