# vtk DataFile Version 4.0
vtk output
ASCII
DATASET UNSTRUCTURED_GRID
POINTS 1919 float
0.0000000e+00 0.0000000e+00 0.0000000e+00 
0.0000000e+00 0.0000000e+00 5.0000000e+01 
5.0000000e+00 0.0000000e+00 0.0000000e+00 
5.0000000e+00 0.0000000e+00 5.0000000e+01 
5.0000000e+00 1.0000000e+00 0.0000000e+00 
5.0000000e+00 1.0000000e+00 5.0000000e+01 
0.0000000e+00 1.0000000e+00 0.0000000e+00 
0.0000000e+00 1.0000000e+00 5.0000000e+01 
5.0000000e+00 2.0000000e+00 0.0000000e+00 
5.0000000e+00 2.0000000e+00 5.0000000e+01 
3.0000000e+00 2.0000000e+00 0.0000000e+00 
3.0000000e+00 2.0000000e+00 5.0000000e+01 
0.0000000e+00 2.0000000e+00 0.0000000e+00 
0.0000000e+00 2.0000000e+00 5.0000000e+01 
1.5000000e+00 3.0000000e+00 0.0000000e+00 
1.5000000e+00 3.0000000e+00 5.0000000e+01 
7.5000000e-01 3.0000000e+00 0.0000000e+00 
7.5000000e-01 3.0000000e+00 5.0000000e+01 
0.0000000e+00 3.0000000e+00 0.0000000e+00 
0.0000000e+00 3.0000000e+00 5.0000000e+01 
7.5000000e-01 3.0000000e+00 5.0000000e-01 
7.5000000e-01 3.0000000e+00 1.0000000e+00 
7.5000000e-01 3.0000000e+00 1.5000000e+00 
7.5000000e-01 3.0000000e+00 2.0000000e+00 
7.5000000e-01 3.0000000e+00 2.5000000e+00 
7.5000000e-01 3.0000000e+00 3.0000000e+00 
7.5000000e-01 3.0000000e+00 3.5000000e+00 
7.5000000e-01 3.0000000e+00 4.0000000e+00 
7.5000000e-01 3.0000000e+00 4.5000000e+00 
7.5000000e-01 3.0000000e+00 5.0000000e+00 
7.5000000e-01 3.0000000e+00 5.5000000e+00 
7.5000000e-01 3.0000000e+00 6.0000000e+00 
7.5000000e-01 3.0000000e+00 6.5000000e+00 
7.5000000e-01 3.0000000e+00 7.0000000e+00 
7.5000000e-01 3.0000000e+00 7.5000000e+00 
7.5000000e-01 3.0000000e+00 8.0000000e+00 
7.5000000e-01 3.0000000e+00 8.5000000e+00 
7.5000000e-01 3.0000000e+00 9.0000000e+00 
7.5000000e-01 3.0000000e+00 9.5000000e+00 
7.5000000e-01 3.0000000e+00 1.0000000e+01 
7.5000000e-01 3.0000000e+00 1.0500000e+01 
7.5000000e-01 3.0000000e+00 1.1000000e+01 
7.5000000e-01 3.0000000e+00 1.1500000e+01 
7.5000000e-01 3.0000000e+00 1.2000000e+01 
7.5000000e-01 3.0000000e+00 1.2500000e+01 
7.5000000e-01 3.0000000e+00 1.3000000e+01 
7.5000000e-01 3.0000000e+00 1.3500000e+01 
7.5000000e-01 3.0000000e+00 1.4000000e+01 
7.5000000e-01 3.0000000e+00 1.4500000e+01 
7.5000000e-01 3.0000000e+00 1.5000000e+01 
7.5000000e-01 3.0000000e+00 1.5500000e+01 
7.5000000e-01 3.0000000e+00 1.6000000e+01 
7.5000000e-01 3.0000000e+00 1.6500000e+01 
7.5000000e-01 3.0000000e+00 1.7000000e+01 
7.5000000e-01 3.0000000e+00 1.7500000e+01 
7.5000000e-01 3.0000000e+00 1.8000000e+01 
7.5000000e-01 3.0000000e+00 1.8500000e+01 
7.5000000e-01 3.0000000e+00 1.9000000e+01 
7.5000000e-01 3.0000000e+00 1.9500000e+01 
7.5000000e-01 3.0000000e+00 2.0000000e+01 
7.5000000e-01 3.0000000e+00 2.0500000e+01 
7.5000000e-01 3.0000000e+00 2.1000000e+01 
7.5000000e-01 3.0000000e+00 2.1500000e+01 
7.5000000e-01 3.0000000e+00 2.2000000e+01 
7.5000000e-01 3.0000000e+00 2.2500000e+01 
7.5000000e-01 3.0000000e+00 2.3000000e+01 
7.5000000e-01 3.0000000e+00 2.3500000e+01 
7.5000000e-01 3.0000000e+00 2.4000000e+01 
7.5000000e-01 3.0000000e+00 2.4500000e+01 
7.5000000e-01 3.0000000e+00 2.5000000e+01 
7.5000000e-01 3.0000000e+00 2.5500000e+01 
7.5000000e-01 3.0000000e+00 2.6000000e+01 
7.5000000e-01 3.0000000e+00 2.6500000e+01 
7.5000000e-01 3.0000000e+00 2.7000000e+01 
7.5000000e-01 3.0000000e+00 2.7500000e+01 
7.5000000e-01 3.0000000e+00 2.8000000e+01 
7.5000000e-01 3.0000000e+00 2.8500000e+01 
7.5000000e-01 3.0000000e+00 2.9000000e+01 
7.5000000e-01 3.0000000e+00 2.9500000e+01 
7.5000000e-01 3.0000000e+00 3.0000000e+01 
7.5000000e-01 3.0000000e+00 3.0500000e+01 
7.5000000e-01 3.0000000e+00 3.1000000e+01 
7.5000000e-01 3.0000000e+00 3.1500000e+01 
7.5000000e-01 3.0000000e+00 3.2000000e+01 
7.5000000e-01 3.0000000e+00 3.2500000e+01 
7.5000000e-01 3.0000000e+00 3.3000000e+01 
7.5000000e-01 3.0000000e+00 3.3500000e+01 
7.5000000e-01 3.0000000e+00 3.4000000e+01 
7.5000000e-01 3.0000000e+00 3.4500000e+01 
7.5000000e-01 3.0000000e+00 3.5000000e+01 
7.5000000e-01 3.0000000e+00 3.5500000e+01 
7.5000000e-01 3.0000000e+00 3.6000000e+01 
7.5000000e-01 3.0000000e+00 3.6500000e+01 
7.5000000e-01 3.0000000e+00 3.7000000e+01 
7.5000000e-01 3.0000000e+00 3.7500000e+01 
7.5000000e-01 3.0000000e+00 3.8000000e+01 
7.5000000e-01 3.0000000e+00 3.8500000e+01 
7.5000000e-01 3.0000000e+00 3.9000000e+01 
7.5000000e-01 3.0000000e+00 3.9500000e+01 
7.5000000e-01 3.0000000e+00 4.0000000e+01 
7.5000000e-01 3.0000000e+00 4.0500000e+01 
7.5000000e-01 3.0000000e+00 4.1000000e+01 
7.5000000e-01 3.0000000e+00 4.1500000e+01 
7.5000000e-01 3.0000000e+00 4.2000000e+01 
7.5000000e-01 3.0000000e+00 4.2500000e+01 
7.5000000e-01 3.0000000e+00 4.3000000e+01 
7.5000000e-01 3.0000000e+00 4.3500000e+01 
7.5000000e-01 3.0000000e+00 4.4000000e+01 
7.5000000e-01 3.0000000e+00 4.4500000e+01 
7.5000000e-01 3.0000000e+00 4.5000000e+01 
7.5000000e-01 3.0000000e+00 4.5500000e+01 
7.5000000e-01 3.0000000e+00 4.6000000e+01 
7.5000000e-01 3.0000000e+00 4.6500000e+01 
7.5000000e-01 3.0000000e+00 4.7000000e+01 
7.5000000e-01 3.0000000e+00 4.7500000e+01 
7.5000000e-01 3.0000000e+00 4.8000000e+01 
7.5000000e-01 3.0000000e+00 4.8500000e+01 
7.5000000e-01 3.0000000e+00 4.9000000e+01 
7.5000000e-01 3.0000000e+00 4.9500000e+01 
7.5000000e-01 3.0250001e+00 0.0000000e+00 
7.5000000e-01 3.0250001e+00 5.0000000e-01 
7.5000000e-01 3.0250001e+00 1.0000000e+00 
7.5000000e-01 3.0250001e+00 1.5000000e+00 
7.5000000e-01 3.0250001e+00 2.0000000e+00 
7.5000000e-01 3.0250001e+00 2.5000000e+00 
7.5000000e-01 3.0250001e+00 3.0000000e+00 
7.5000000e-01 3.0250001e+00 3.5000000e+00 
7.5000000e-01 3.0250001e+00 4.0000000e+00 
7.5000000e-01 3.0250001e+00 4.5000000e+00 
7.5000000e-01 3.0250001e+00 5.0000000e+00 
7.5000000e-01 3.0250001e+00 5.5000000e+00 
7.5000000e-01 3.0250001e+00 6.0000000e+00 
7.5000000e-01 3.0250001e+00 6.5000000e+00 
7.5000000e-01 3.0250001e+00 7.0000000e+00 
7.5000000e-01 3.0250001e+00 7.5000000e+00 
7.5000000e-01 3.0250001e+00 8.0000000e+00 
7.5000000e-01 3.0250001e+00 8.5000000e+00 
7.5000000e-01 3.0250001e+00 9.0000000e+00 
7.5000000e-01 3.0250001e+00 9.5000000e+00 
7.5000000e-01 3.0250001e+00 1.0000000e+01 
7.5000000e-01 3.0250001e+00 1.0500000e+01 
7.5000000e-01 3.0250001e+00 1.1000000e+01 
7.5000000e-01 3.0250001e+00 1.1500000e+01 
7.5000000e-01 3.0250001e+00 1.2000000e+01 
7.5000000e-01 3.0250001e+00 1.2500000e+01 
7.5000000e-01 3.0250001e+00 1.3000000e+01 
7.5000000e-01 3.0250001e+00 1.3500000e+01 
7.5000000e-01 3.0250001e+00 1.4000000e+01 
7.5000000e-01 3.0250001e+00 1.4500000e+01 
7.5000000e-01 3.0250001e+00 1.5000000e+01 
7.5000000e-01 3.0250001e+00 1.5500000e+01 
7.5000000e-01 3.0250001e+00 1.6000000e+01 
7.5000000e-01 3.0250001e+00 1.6500000e+01 
7.5000000e-01 3.0250001e+00 1.7000000e+01 
7.5000000e-01 3.0250001e+00 1.7500000e+01 
7.5000000e-01 3.0250001e+00 1.8000000e+01 
7.5000000e-01 3.0250001e+00 1.8500000e+01 
7.5000000e-01 3.0250001e+00 1.9000000e+01 
7.5000000e-01 3.0250001e+00 1.9500000e+01 
7.5000000e-01 3.0250001e+00 2.0000000e+01 
7.5000000e-01 3.0250001e+00 2.0500000e+01 
7.5000000e-01 3.0250001e+00 2.1000000e+01 
7.5000000e-01 3.0250001e+00 2.1500000e+01 
7.5000000e-01 3.0250001e+00 2.2000000e+01 
7.5000000e-01 3.0250001e+00 2.2500000e+01 
7.5000000e-01 3.0250001e+00 2.3000000e+01 
7.5000000e-01 3.0250001e+00 2.3500000e+01 
7.5000000e-01 3.0250001e+00 2.4000000e+01 
7.5000000e-01 3.0250001e+00 2.4500000e+01 
7.5000000e-01 3.0250001e+00 2.5000000e+01 
7.5000000e-01 3.0250001e+00 2.5500000e+01 
7.5000000e-01 3.0250001e+00 2.6000000e+01 
7.5000000e-01 3.0250001e+00 2.6500000e+01 
7.5000000e-01 3.0250001e+00 2.7000000e+01 
7.5000000e-01 3.0250001e+00 2.7500000e+01 
7.5000000e-01 3.0250001e+00 2.8000000e+01 
7.5000000e-01 3.0250001e+00 2.8500000e+01 
7.5000000e-01 3.0250001e+00 2.9000000e+01 
7.5000000e-01 3.0250001e+00 2.9500000e+01 
7.5000000e-01 3.0250001e+00 3.0000000e+01 
7.5000000e-01 3.0250001e+00 3.0500000e+01 
7.5000000e-01 3.0250001e+00 3.1000000e+01 
7.5000000e-01 3.0250001e+00 3.1500000e+01 
7.5000000e-01 3.0250001e+00 3.2000000e+01 
7.5000000e-01 3.0250001e+00 3.2500000e+01 
7.5000000e-01 3.0250001e+00 3.3000000e+01 
7.5000000e-01 3.0250001e+00 3.3500000e+01 
7.5000000e-01 3.0250001e+00 3.4000000e+01 
7.5000000e-01 3.0250001e+00 3.4500000e+01 
7.5000000e-01 3.0250001e+00 3.5000000e+01 
7.5000000e-01 3.0250001e+00 3.5500000e+01 
7.5000000e-01 3.0250001e+00 3.6000000e+01 
7.5000000e-01 3.0250001e+00 3.6500000e+01 
7.5000000e-01 3.0250001e+00 3.7000000e+01 
7.5000000e-01 3.0250001e+00 3.7500000e+01 
7.5000000e-01 3.0250001e+00 3.8000000e+01 
7.5000000e-01 3.0250001e+00 3.8500000e+01 
7.5000000e-01 3.0250001e+00 3.9000000e+01 
7.5000000e-01 3.0250001e+00 3.9500000e+01 
7.5000000e-01 3.0250001e+00 4.0000000e+01 
7.5000000e-01 3.0250001e+00 4.0500000e+01 
7.5000000e-01 3.0250001e+00 4.1000000e+01 
7.5000000e-01 3.0250001e+00 4.1500000e+01 
7.5000000e-01 3.0250001e+00 4.2000000e+01 
7.5000000e-01 3.0250001e+00 4.2500000e+01 
7.5000000e-01 3.0250001e+00 4.3000000e+01 
7.5000000e-01 3.0250001e+00 4.3500000e+01 
7.5000000e-01 3.0250001e+00 4.4000000e+01 
7.5000000e-01 3.0250001e+00 4.4500000e+01 
7.5000000e-01 3.0250001e+00 4.5000000e+01 
7.5000000e-01 3.0250001e+00 4.5500000e+01 
7.5000000e-01 3.0250001e+00 4.6000000e+01 
7.5000000e-01 3.0250001e+00 4.6500000e+01 
7.5000000e-01 3.0250001e+00 4.7000000e+01 
7.5000000e-01 3.0250001e+00 4.7500000e+01 
7.5000000e-01 3.0250001e+00 4.8000000e+01 
7.5000000e-01 3.0250001e+00 4.8500000e+01 
7.5000000e-01 3.0250001e+00 4.9000000e+01 
7.5000000e-01 3.0250001e+00 4.9500000e+01 
7.5000000e-01 3.0250001e+00 5.0000000e+01 
1.5000000e+00 3.0000000e+00 2.5000000e+01 
3.0000000e+00 2.0000000e+00 2.5000000e+01 
4.0000000e+00 2.0000000e+00 2.5000000e+01 
5.0000000e+00 2.0000000e+00 2.5000000e+01 
0.0000000e+00 3.0000000e+00 2.5000000e+01 
0.0000000e+00 0.0000000e+00 1.0000000e+00 
0.0000000e+00 0.0000000e+00 2.0000000e+00 
0.0000000e+00 0.0000000e+00 3.0000000e+00 
0.0000000e+00 0.0000000e+00 4.0000000e+00 
0.0000000e+00 0.0000000e+00 5.0000000e+00 
[...]
POINT_DATA 1919
FIELD FieldData 3
DISPLACEMENT 3 1919  float
0.0000000e+00 0.0000000e+00 0.0000000e+00 
0.0000000e+00 0.0000000e+00 0.0000000e+00 
0.0000000e+00 0.0000000e+00 0.0000000e+00 
0.0000000e+00 0.0000000e+00 0.0000000e+00 
-7.8299723e-07 -7.2639591e-06 -3.1753984e-06 
-1.9621493e-07 -2.6608842e-07 -1.9115983e-07 
0.0000000e+00 -2.5609897e-05 0.0000000e+00 
0.0000000e+00 5.1803460e-07 0.0000000e+00 
-3.5826508e-06 -1.1825594e-05 -8.8304733e-07 
1.7239475e-07 -6.9857407e-07 5.6025056e-07 
-2.1799668e-05 -2.0335410e-05 1.2235616e-06 
1.0943909e-07 -9.3274878e-08 -3.5529786e-07 
0.0000000e+00 -1.9951418e-05 0.0000000e+00 
0.0000000e+00 8.6495584e-07 0.0000000e+00 
1.3911625e-05 -3.8595721e-05 1.9807698e-05 
-4.0691089e-07 1.1484534e-06 -4.7436572e-07 
4.5616398e-05 -7.7008253e-06 -4.1105818e-06 
1.2145316e-07 -1.3829234e-08 2.3354826e-07 
0.0000000e+00 4.5537552e-05 0.0000000e+00 
0.0000000e+00 -3.7619262e-07 0.0000000e+00 
4.3071035e-05 -1.5267489e-05 5.8099838e-05 
2.6645461e-05 -4.2907443e-05 1.1012667e-04 
6.7351566e-06 -9.3965071e-05 8.9840338e-05 
-4.5379085e-05 -1.6157444e-04 7.8923789e-05 
-7.9997066e-05 -2.2237351e-04 9.8579651e-05 
-1.0763334e-04 -2.5670053e-04 8.0106132e-05 
-1.2667381e-04 -2.6529899e-04 8.4810519e-05 
-1.3231342e-04 -2.6886005e-04 6.2877691e-05 
-1.5776262e-04 -2.8334107e-04 3.9956289e-05 
-1.4284541e-04 -3.0557733e-04 3.7852555e-05 
-1.7332555e-04 -3.1171157e-04 4.0207618e-05 
-1.5300109e-04 -2.7726591e-04 4.1473872e-05 
-1.5348847e-04 -2.3595702e-04 8.2320352e-05 
-1.6920432e-04 -2.8321290e-04 7.6904653e-05 
-2.0896488e-04 -5.0178263e-04 1.0397641e-04 
-2.1008846e-04 -9.1867871e-04 1.0419331e-04 
-2.3783346e-04 -1.5371181e-03 1.6259102e-04 
-2.6347811e-04 -2.3558163e-03 6.6119246e-05 
-2.5877490e-04 -3.4063256e-03 1.7321877e-04 
-2.9826383e-04 -4.5493715e-03 -4.0792951e-05 
-3.0203341e-04 -5.2820202e-03 -8.7006745e-05 
-3.2296026e-04 -4.9768961e-03 -1.6037481e-04 
-2.2488038e-04 -4.4685267e-03 -2.2395040e-04 
-1.8882709e-04 -4.3078596e-03 -2.0634761e-04 
-1.2392303e-04 -4.5467080e-03 -1.4363411e-04 
-1.2893364e-04 -4.4843783e-03 -9.5960662e-05 
-1.0184832e-04 -3.4150546e-03 -1.6698548e-04 
-9.1420938e-05 -1.9945626e-03 -2.9220026e-05 
-6.0810878e-05 -8.6458935e-04 -1.0617555e-04 
-3.0859173e-05 -1.7916692e-04 -2.1028565e-05 
-1.8389259e-05 1.3912158e-04 -1.4578051e-05 
-3.0494079e-05 2.3498418e-04 7.3976653e-06 
-3.9298084e-05 2.2038653e-04 7.4766531e-06 
-4.5514622e-05 1.5445933e-04 -2.0726744e-05 
-5.6222641e-05 7.8057703e-05 -7.7502744e-05 
-1.9684247e-05 2.9115532e-05 -8.9927315e-05 
4.1969237e-05 1.9182273e-05 -9.6505915e-05 
6.5867127e-05 2.6953032e-05 -8.5744687e-05 
9.9578152e-05 2.5071462e-05 -2.7939926e-05 
7.4232928e-05 5.7012803e-06 1.9776911e-05 
3.3473571e-05 -2.4224060e-05 5.8839858e-05 
1.9004241e-05 -5.4138804e-05 7.7354831e-05 
3.5891273e-06 -9.1541406e-05 1.0244791e-04 
-3.8917944e-05 -1.5152380e-04 1.2024507e-04 
-7.4711956e-05 -2.2364121e-04 9.6916832e-05 
-1.1689224e-04 -2.7497869e-04 9.0444984e-05 
-1.2001162e-04 -2.7668898e-04 8.3142739e-05 
-9.2669965e-05 -2.4586549e-04 8.7036446e-05 
-1.5671973e-04 -2.2271542e-04 3.3939810e-05 
-1.3190955e-04 -2.3423207e-04 2.9295094e-05 
-1.6385807e-04 -2.7484976e-04 4.6215435e-05 
-1.2600576e-04 -3.0582820e-04 3.4432291e-05 
-1.5622612e-04 -3.1031019e-04 7.3945361e-05 
-1.7134796e-04 -3.3735202e-04 6.7036650e-05 
-2.0562584e-04 -5.0778227e-04 1.0598579e-04 
-1.9770428e-04 -9.4976812e-04 9.7631615e-05 
-2.3366121e-04 -1.7068587e-03 1.3960060e-04 
-2.8973707e-04 -2.7057871e-03 3.5286670e-05 
-3.0267335e-04 -3.8443590e-03 1.2278350e-04 
-3.9675922e-04 -4.8438287e-03 -7.1486982e-05 
-3.6022105e-04 -5.2613383e-03 -1.4103374e-04 
-3.0873049e-04 -4.8656776e-03 -1.5369323e-04 
-2.4246528e-04 -4.4944230e-03 -2.3457699e-04 
-2.4502058e-04 -4.4840067e-03 -2.2466101e-04 
-2.0223789e-04 -4.6616145e-03 -1.5961462e-04 
-2.0895083e-04 -4.2976672e-03 -1.0310105e-04 
-1.4985426e-04 -3.1038888e-03 -2.2029203e-04 
-7.2385308e-05 -1.7386947e-03 -6.0892173e-05 
-5.2127081e-05 -7.3174672e-04 -1.4088480e-04 
-3.1123334e-05 -1.2827340e-04 -3.3110766e-05 
6.9890807e-06 1.6002099e-04 3.0926028e-08 
2.9385149e-07 2.4157407e-04 4.3958367e-05 
-3.1856252e-05 2.0166504e-04 4.8781301e-05 
-3.7039732e-05 1.1464358e-04 2.1856371e-05 
-6.0087561e-05 4.2525069e-05 -2.1825377e-05 
-1.7203496e-05 7.6522319e-06 -1.2891126e-04 
1.0381740e-05 1.9406702e-06 -7.8793950e-05 
2.5586440e-05 6.0071934e-06 -5.0212475e-05 
3.6374571e-05 7.3553269e-06 -2.0150337e-05 
3.1822055e-05 6.8402110e-06 -1.6954060e-06 
1.4091529e-05 4.9479281e-06 1.6614211e-05 
4.5285315e-06 8.1170031e-09 1.9136487e-05 
-7.0455944e-06 -8.8593924e-06 1.2686833e-05 
-8.2109227e-06 -1.5824777e-05 6.4684718e-06 
-6.2881868e-06 -1.4058328e-05 3.4278326e-06 
-3.0298690e-06 -5.3036647e-06 1.5804521e-06 
-1.3421565e-06 3.4919749e-06 -1.9149020e-06 
-1.4469322e-07 7.3256715e-06 5.7820182e-07 
1.2013521e-06 6.4027336e-06 -9.5219127e-07 
3.3937329e-07 3.8422618e-06 -9.4609806e-07 
9.7902569e-07 1.7871075e-06 4.4625068e-07 
4.0326867e-07 1.1463821e-07 -1.0368364e-07 
-2.4256164e-07 -1.6382683e-06 2.5530755e-07 
1.2391828e-07 -2.7574165e-06 9.1815241e-07 
2.9325506e-07 -2.3809700e-06 -7.6582353e-07 
-4.3320085e-07 -8.5653107e-07 6.5022516e-07 
9.5544436e-08 5.9272406e-07 -3.3458304e-07 
-3.8682481e-07 9.9672229e-07 -2.8698897e-08 
3.1610085e-07 4.2685656e-07 -2.0045191e-07 
0.0000000e+00 -7.4466648e-06 0.0000000e+00 
0.0000000e+00 -1.5265141e-05 0.0000000e+00 
0.0000000e+00 -4.3225056e-05 0.0000000e+00 
0.0000000e+00 -9.4699935e-05 0.0000000e+00 
0.0000000e+00 -1.6162012e-04 0.0000000e+00 
0.0000000e+00 -2.2180763e-04 0.0000000e+00 
0.0000000e+00 -2.5600012e-04 0.0000000e+00 
0.0000000e+00 -2.6535528e-04 0.0000000e+00 
0.0000000e+00 -2.6954585e-04 0.0000000e+00 
0.0000000e+00 -2.8440956e-04 0.0000000e+00 
0.0000000e+00 -3.0616744e-04 0.0000000e+00 
0.0000000e+00 -3.1012317e-04 0.0000000e+00 
0.0000000e+00 -2.7493216e-04 0.0000000e+00 
0.0000000e+00 -2.3562156e-04 0.0000000e+00 
0.0000000e+00 -2.8473642e-04 0.0000000e+00 
0.0000000e+00 -5.0347828e-04 0.0000000e+00 
0.0000000e+00 -9.2008954e-04 0.0000000e+00 
0.0000000e+00 -1.5361757e-03 0.0000000e+00 
0.0000000e+00 -2.3615812e-03 0.0000000e+00 
0.0000000e+00 -3.4197078e-03 0.0000000e+00 
0.0000000e+00 -4.5780800e-03 0.0000000e+00 
0.0000000e+00 -5.3092134e-03 0.0000000e+00 
0.0000000e+00 -5.0083683e-03 0.0000000e+00 
0.0000000e+00 -4.4855238e-03 0.0000000e+00 
0.0000000e+00 -4.3349615e-03 0.0000000e+00 
0.0000000e+00 -4.5699580e-03 0.0000000e+00 
0.0000000e+00 -4.5167506e-03 0.0000000e+00 
0.0000000e+00 -3.4359992e-03 0.0000000e+00 
0.0000000e+00 -2.0118994e-03 0.0000000e+00 
0.0000000e+00 -8.7164325e-04 0.0000000e+00 
0.0000000e+00 -1.8027269e-04 0.0000000e+00 
0.0000000e+00 1.4067497e-04 0.0000000e+00 
0.0000000e+00 2.3660705e-04 0.0000000e+00 
0.0000000e+00 2.2083981e-04 0.0000000e+00 
0.0000000e+00 1.5472165e-04 0.0000000e+00 
0.0000000e+00 7.9282276e-05 0.0000000e+00 
0.0000000e+00 3.0283894e-05 0.0000000e+00 
0.0000000e+00 1.9221903e-05 0.0000000e+00 
0.0000000e+00 2.6156089e-05 0.0000000e+00 
0.0000000e+00 2.4576848e-05 0.0000000e+00 
0.0000000e+00 5.5621117e-06 0.0000000e+00 
0.0000000e+00 -2.3547351e-05 0.0000000e+00 
0.0000000e+00 -5.3755168e-05 0.0000000e+00 
0.0000000e+00 -9.2291390e-05 0.0000000e+00 
0.0000000e+00 -1.5232568e-04 0.0000000e+00 
0.0000000e+00 -2.2397653e-04 0.0000000e+00 
0.0000000e+00 -2.7384626e-04 0.0000000e+00 
0.0000000e+00 -2.7580213e-04 0.0000000e+00 
0.0000000e+00 -2.4590403e-04 0.0000000e+00 
0.0000000e+00 -2.2368197e-04 0.0000000e+00 
0.0000000e+00 -2.3575861e-04 0.0000000e+00 
0.0000000e+00 -2.7485614e-04 0.0000000e+00 
0.0000000e+00 -3.0424804e-04 0.0000000e+00 
0.0000000e+00 -3.0746229e-04 0.0000000e+00 
0.0000000e+00 -3.3595975e-04 0.0000000e+00 
0.0000000e+00 -5.1039224e-04 0.0000000e+00 
0.0000000e+00 -9.5471955e-04 0.0000000e+00 
0.0000000e+00 -1.7093155e-03 0.0000000e+00 
0.0000000e+00 -2.7133243e-03 0.0000000e+00 
0.0000000e+00 -3.8550803e-03 0.0000000e+00 
0.0000000e+00 -4.8732022e-03 0.0000000e+00 
0.0000000e+00 -5.2890349e-03 0.0000000e+00 
0.0000000e+00 -4.9001495e-03 0.0000000e+00 
0.0000000e+00 -4.5120693e-03 0.0000000e+00 
0.0000000e+00 -4.5092246e-03 0.0000000e+00 
0.0000000e+00 -4.6827849e-03 0.0000000e+00 
0.0000000e+00 -4.3320116e-03 0.0000000e+00 
0.0000000e+00 -3.1232722e-03 0.0000000e+00 
0.0000000e+00 -1.7546270e-03 0.0000000e+00 
0.0000000e+00 -7.3509297e-04 0.0000000e+00 
0.0000000e+00 -1.2866865e-04 0.0000000e+00 
0.0000000e+00 1.6067052e-04 0.0000000e+00 
0.0000000e+00 2.4212495e-04 0.0000000e+00 
0.0000000e+00 2.0247373e-04 0.0000000e+00 
0.0000000e+00 1.1630145e-04 0.0000000e+00 
0.0000000e+00 4.3415483e-05 0.0000000e+00 
0.0000000e+00 7.7816503e-06 0.0000000e+00 
0.0000000e+00 1.6593061e-06 0.0000000e+00 
0.0000000e+00 5.6833046e-06 0.0000000e+00 
0.0000000e+00 7.4592062e-06 0.0000000e+00 
0.0000000e+00 6.8101713e-06 0.0000000e+00 
0.0000000e+00 4.8335960e-06 0.0000000e+00 
0.0000000e+00 -1.6536340e-07 0.0000000e+00 
0.0000000e+00 -8.7902336e-06 0.0000000e+00 
0.0000000e+00 -1.5501806e-05 0.0000000e+00 
0.0000000e+00 -1.3964297e-05 0.0000000e+00 
0.0000000e+00 -5.4539887e-06 0.0000000e+00 
0.0000000e+00 3.3287210e-06 0.0000000e+00 
0.0000000e+00 7.2976600e-06 0.0000000e+00 
0.0000000e+00 6.4578103e-06 0.0000000e+00 
0.0000000e+00 3.8799767e-06 0.0000000e+00 
0.0000000e+00 1.7730247e-06 0.0000000e+00 
0.0000000e+00 9.5477496e-08 0.0000000e+00 
0.0000000e+00 -1.6072941e-06 0.0000000e+00 
0.0000000e+00 -2.7075446e-06 0.0000000e+00 
0.0000000e+00 -2.3803411e-06 0.0000000e+00 
0.0000000e+00 -8.9300681e-07 0.0000000e+00 
0.0000000e+00 5.5783829e-07 0.0000000e+00 
0.0000000e+00 9.7530994e-07 0.0000000e+00 
0.0000000e+00 4.4134583e-07 0.0000000e+00 
0.0000000e+00 1.6200278e-08 0.0000000e+00 
-1.8688389e-04 -1.0776585e-04 3.6597412e-05 
2.4852186e-05 5.9843125e-05 4.9649866e-06 
1.9757592e-05 7.1936658e-05 1.8237891e-06 
1.9286153e-05 2.7351891e-05 -1.8542120e-05 
0.0000000e+00 -1.3764192e-04 0.0000000e+00 
0.0000000e+00 0.0000000e+00 0.0000000e+00 
0.0000000e+00 0.0000000e+00 0.0000000e+00 
0.0000000e+00 0.0000000e+00 0.0000000e+00 
0.0000000e+00 0.0000000e+00 0.0000000e+00 
0.0000000e+00 0.0000000e+00 0.0000000e+00 
0.0000000e+00 0.0000000e+00 0.0000000e+00 
0.0000000e+00 0.0000000e+00 0.0000000e+00 
0.0000000e+00 0.0000000e+00 0.0000000e+00 
0.0000000e+00 0.0000000e+00 0.0000000e+00 
0.0000000e+00 0.0000000e+00 0.0000000e+00 
0.0000000e+00 0.0000000e+00 0.0000000e+00 
0.0000000e+00 0.0000000e+00 0.0000000e+00 
0.0000000e+00 0.0000000e+00 0.0000000e+00 
0.0000000e+00 0.0000000e+00 0.0000000e+00 
0.0000000e+00 0.0000000e+00 0.0000000e+00 
0.0000000e+00 0.0000000e+00 0.0000000e+00 
0.0000000e+00 0.0000000e+00 0.0000000e+00 
0.0000000e+00 0.0000000e+00 0.0000000e+00 
0.0000000e+00 0.0000000e+00 0.0000000e+00 
0.0000000e+00 0.0000000e+00 0.0000000e+00 
0.0000000e+00 0.0000000e+00 0.0000000e+00 
0.0000000e+00 0.0000000e+00 0.0000000e+00 
0.0000000e+00 0.0000000e+00 0.0000000e+00 
0.0000000e+00 0.0000000e+00 0.0000000e+00 
0.0000000e+00 0.0000000e+00 0.0000000e+00 
0.0000000e+00 0.0000000e+00 0.0000000e+00 
0.0000000e+00 0.0000000e+00 0.0000000e+00 
0.0000000e+00 0.0000000e+00 0.0000000e+00 
0.0000000e+00 0.0000000e+00 0.0000000e+00 
0.0000000e+00 0.0000000e+00 0.0000000e+00 
0.0000000e+00 0.0000000e+00 0.0000000e+00 
0.0000000e+00 0.0000000e+00 0.0000000e+00 
0.0000000e+00 0.0000000e+00 0.0000000e+00 
0.0000000e+00 0.0000000e+00 0.0000000e+00 
0.0000000e+00 0.0000000e+00 0.0000000e+00 
0.0000000e+00 0.0000000e+00 0.0000000e+00 
0.0000000e+00 0.0000000e+00 0.0000000e+00 
0.0000000e+00 0.0000000e+00 0.0000000e+00 
0.0000000e+00 0.0000000e+00 0.0000000e+00 
0.0000000e+00 0.0000000e+00 0.0000000e+00 
0.0000000e+00 0.0000000e+00 0.0000000e+00 
0.0000000e+00 0.0000000e+00 0.0000000e+00 
0.0000000e+00 0.0000000e+00 0.0000000e+00 
0.0000000e+00 0.0000000e+00 0.0000000e+00 
0.0000000e+00 0.0000000e+00 0.0000000e+00 
0.0000000e+00 0.0000000e+00 0.0000000e+00 
0.0000000e+00 0.0000000e+00 0.0000000e+00 
0.0000000e+00 0.0000000e+00 0.0000000e+00 
0.0000000e+00 0.0000000e+00 0.0000000e+00 
0.0000000e+00 0.0000000e+00 0.0000000e+00 
0.0000000e+00 0.0000000e+00 0.0000000e+00 
0.0000000e+00 0.0000000e+00 0.0000000e+00 
0.0000000e+00 0.0000000e+00 0.0000000e+00 
0.0000000e+00 0.0000000e+00 0.0000000e+00 
0.0000000e+00 0.0000000e+00 0.0000000e+00 
0.0000000e+00 0.0000000e+00 0.0000000e+00 
0.0000000e+00 0.0000000e+00 0.0000000e+00 
0.0000000e+00 0.0000000e+00 0.0000000e+00 
0.0000000e+00 0.0000000e+00 0.0000000e+00 
0.0000000e+00 0.0000000e+00 0.0000000e+00 
0.0000000e+00 0.0000000e+00 0.0000000e+00 
0.0000000e+00 0.0000000e+00 0.0000000e+00 
0.0000000e+00 0.0000000e+00 0.0000000e+00 
0.0000000e+00 0.0000000e+00 0.0000000e+00 
0.0000000e+00 0.0000000e+00 0.0000000e+00 
0.0000000e+00 0.0000000e+00 0.0000000e+00 
0.0000000e+00 0.0000000e+00 0.0000000e+00 
0.0000000e+00 0.0000000e+00 0.0000000e+00 
0.0000000e+00 0.0000000e+00 0.0000000e+00 
0.0000000e+00 0.0000000e+00 0.0000000e+00 
0.0000000e+00 0.0000000e+00 0.0000000e+00 
0.0000000e+00 0.0000000e+00 0.0000000e+00 
0.0000000e+00 0.0000000e+00 0.0000000e+00 
0.0000000e+00 0.0000000e+00 0.0000000e+00 
0.0000000e+00 0.0000000e+00 0.0000000e+00 
0.0000000e+00 0.0000000e+00 0.0000000e+00 
0.0000000e+00 0.0000000e+00 0.0000000e+00 
0.0000000e+00 0.0000000e+00 0.0000000e+00 
0.0000000e+00 0.0000000e+00 0.0000000e+00 
0.0000000e+00 0.0000000e+00 0.0000000e+00 
0.0000000e+00 0.0000000e+00 0.0000000e+00 
0.0000000e+00 0.0000000e+00 0.0000000e+00 
0.0000000e+00 0.0000000e+00 0.0000000e+00 
0.0000000e+00 0.0000000e+00 0.0000000e+00 
0.0000000e+00 0.0000000e+00 0.0000000e+00 
0.0000000e+00 0.0000000e+00 0.0000000e+00 
0.0000000e+00 0.0000000e+00 0.0000000e+00 
0.0000000e+00 0.0000000e+00 0.0000000e+00 
0.0000000e+00 0.0000000e+00 0.0000000e+00 
0.0000000e+00 0.0000000e+00 0.0000000e+00 
0.0000000e+00 0.0000000e+00 0.0000000e+00 
0.0000000e+00 0.0000000e+00 0.0000000e+00 
0.0000000e+00 0.0000000e+00 0.0000000e+00 
0.0000000e+00 0.0000000e+00 0.0000000e+00 
0.0000000e+00 0.0000000e+00 0.0000000e+00 
0.0000000e+00 0.0000000e+00 0.0000000e+00 
0.0000000e+00 0.0000000e+00 0.0000000e+00 
0.0000000e+00 0.0000000e+00 0.0000000e+00 
0.0000000e+00 0.0000000e+00 0.0000000e+00 
0.0000000e+00 0.0000000e+00 0.0000000e+00 
0.0000000e+00 0.0000000e+00 0.0000000e+00 
0.0000000e+00 0.0000000e+00 0.0000000e+00 
0.0000000e+00 0.0000000e+00 0.0000000e+00 
0.0000000e+00 0.0000000e+00 0.0000000e+00 
0.0000000e+00 0.0000000e+00 0.0000000e+00 
0.0000000e+00 0.0000000e+00 0.0000000e+00 
-1.0360473e-05 -3.9653178e-06 5.5820342e-06 
-1.4958951e-05 1.4167709e-06 8.2950737e-06 
-1.7041968e-05 1.0931110e-05 6.8063714e-06 
-1.2379681e-05 6.7396550e-06 5.7190559e-06 
-9.7348757e-06 1.7927607e-05 -2.9800315e-06 
1.8345114e-06 1.9022593e-05 -9.2426526e-06 
1.1067750e-06 1.3317212e-05 -1.1718927e-05 
1.1808246e-05 1.6670419e-05 -1.6226953e-05 
1.4917299e-05 -4.2796114e-06 -1.9040221e-05 
1.9463992e-05 -1.7487746e-05 -1.3494021e-05 
2.9532779e-05 -1.3404030e-05 -2.2262088e-06 
2.5432169e-05 -1.6551661e-05 3.6378917e-06 
2.5733929e-05 -1.4182628e-05 1.8015422e-05 
2.5933743e-05 -9.3587869e-06 2.1569771e-05 
2.4503172e-05 -7.8560188e-06 2.0941345e-05 
1.9342560e-05 -1.1280311e-05 1.4841337e-05 
1.2756208e-05 -3.8412832e-06 5.2604482e-06 
8.1811522e-06 -3.7027914e-06 -1.0252775e-06 
5.8240001e-08 -6.3523489e-06 -5.3943597e-07 
-1.0968915e-05 8.8710993e-07 -4.6661917e-06 
-1.4448497e-05 -9.1119745e-07 -1.0152971e-05 
-1.7081948e-05 2.8615095e-06 -3.2268497e-06 
-1.3866862e-05 8.5072434e-06 3.9564211e-06 
-5.7279340e-06 1.2349555e-05 -4.9764242e-07 
-2.9199194e-07 2.7298243e-05 -4.2510733e-06 
7.5835021e-07 2.8178851e-05 -7.9902611e-06 
4.0297541e-06 1.1332484e-05 -1.2779615e-05 
1.0024109e-05 4.8835404e-06 -2.0851372e-05 
2.0608761e-05 -3.0573549e-06 -1.9863637e-05 
2.1996666e-05 -1.9241417e-05 -1.5358733e-05 
2.6816409e-05 -2.0247337e-05 -4.3166806e-06 
2.7293921e-05 -1.5636297e-05 5.4650855e-06 
2.3836879e-05 -1.0178711e-05 1.5747324e-05 
2.5870579e-05 -1.2525793e-05 2.5416108e-05 
2.2126789e-05 -8.8222841e-06 3.0859443e-05 
1.5239894e-05 -3.2019204e-06 3.0988427e-05 
1.0284465e-05 -4.6067566e-06 2.1035921e-05 
4.9016571e-06 -5.4693642e-06 7.1256213e-06 
2.5964675e-07 -1.1662647e-06 2.4616772e-06 
-2.2683712e-06 3.3528640e-06 -4.9139885e-06 
-1.3949528e-06 1.5697520e-06 -8.8561819e-06 
-6.8960287e-07 4.9204039e-07 -5.9620234e-06 
-1.3362986e-06 7.3977003e-07 -3.4410888e-07 
-2.3442557e-07 1.3873493e-07 9.1267606e-07 
7.9841561e-07 -2.5512858e-07 1.0511250e-06 
4.5543706e-07 -2.1220855e-07 8.9193497e-07 
6.7907372e-08 -2.0704080e-07 1.7630474e-07 
7.3252451e-08 3.8704524e-08 -3.2527961e-07 
9.3658112e-09 5.6739515e-07 1.2877385e-07 
0.0000000e+00 -3.1806299e-05 0.0000000e+00 
0.0000000e+00 -2.0612310e-05 0.0000000e+00 
0.0000000e+00 3.6477446e-05 0.0000000e+00 
0.0000000e+00 5.5214303e-05 0.0000000e+00 
0.0000000e+00 6.8076828e-05 0.0000000e+00 
0.0000000e+00 1.2772025e-04 0.0000000e+00 
0.0000000e+00 2.1627115e-05 0.0000000e+00 
0.0000000e+00 -1.0607203e-04 0.0000000e+00 
0.0000000e+00 -2.4415529e-04 0.0000000e+00 
0.0000000e+00 -4.9807510e-04 0.0000000e+00 
0.0000000e+00 -5.6406803e-04 0.0000000e+00 
0.0000000e+00 -5.4836931e-04 0.0000000e+00 
0.0000000e+00 -4.6146376e-04 0.0000000e+00 
0.0000000e+00 -2.2369820e-04 0.0000000e+00 
0.0000000e+00 -5.8131653e-05 0.0000000e+00 
0.0000000e+00 2.3904324e-05 0.0000000e+00 
0.0000000e+00 1.8337892e-05 0.0000000e+00 
0.0000000e+00 -3.2239952e-06 0.0000000e+00 
0.0000000e+00 -1.9184350e-05 0.0000000e+00 
0.0000000e+00 -1.2413438e-05 0.0000000e+00 
0.0000000e+00 -1.0914557e-05 0.0000000e+00 
0.0000000e+00 -1.2663939e-05 0.0000000e+00 
0.0000000e+00 2.2176151e-05 0.0000000e+00 
0.0000000e+00 7.6932985e-05 0.0000000e+00 
0.0000000e+00 5.2617637e-05 0.0000000e+00 
0.0000000e+00 6.4099826e-05 0.0000000e+00 
0.0000000e+00 6.6804765e-05 0.0000000e+00 
0.0000000e+00 -1.2308944e-04 0.0000000e+00 
0.0000000e+00 -2.3073379e-04 0.0000000e+00 
0.0000000e+00 -4.6087441e-04 0.0000000e+00 
0.0000000e+00 -5.7747477e-04 0.0000000e+00 
0.0000000e+00 -5.5191730e-04 0.0000000e+00 
0.0000000e+00 -4.5307423e-04 0.0000000e+00 
0.0000000e+00 -1.9286611e-04 0.0000000e+00 
0.0000000e+00 -5.5994115e-05 0.0000000e+00 
0.0000000e+00 2.9076969e-05 0.0000000e+00 
0.0000000e+00 2.1454349e-05 0.0000000e+00 
0.0000000e+00 -3.1945619e-06 0.0000000e+00 
0.0000000e+00 -5.1054226e-06 0.0000000e+00 
0.0000000e+00 1.1623822e-06 0.0000000e+00 
0.0000000e+00 7.9935785e-07 0.0000000e+00 
0.0000000e+00 6.5552121e-07 0.0000000e+00 
0.0000000e+00 2.2520239e-06 0.0000000e+00 
0.0000000e+00 -2.2820896e-06 0.0000000e+00 
0.0000000e+00 -2.4765329e-06 0.0000000e+00 
0.0000000e+00 9.8511964e-07 0.0000000e+00 
0.0000000e+00 1.4501047e-06 0.0000000e+00 
0.0000000e+00 -1.0874692e-06 0.0000000e+00 
0.0000000e+00 -1.2910214e-06 0.0000000e+00 
-6.6261441e-06 -6.3192902e-06 2.4324663e-06 
-7.0212354e-06 -6.1933833e-06 7.8522362e-06 
-3.3174429e-06 -1.9237228e-05 6.6843963e-06 
-9.8167686e-07 -2.2796765e-05 4.0693326e-06 
3.5215589e-08 2.5429361e-07 5.0562523e-08 
2.2707108e-07 -1.7854153e-07 -7.1069991e-08 
-2.0807920e-07 -3.0135539e-07 4.0252317e-07 
-4.0783362e-07 -1.5299490e-07 2.7822651e-07 
-1.3370359e-05 -1.4233869e-05 -3.0529475e-06 
-2.3189698e-07 2.5406931e-07 -8.3763609e-08 
1.7886755e-06 -3.8698017e-05 1.1981369e-05 
-1.6133532e-05 -3.4666511e-05 1.4829063e-05 
0.0000000e+00 -5.7622674e-05 0.0000000e+00 
0.0000000e+00 -2.7298269e-05 0.0000000e+00 
0.0000000e+00 4.9273267e-06 0.0000000e+00 
0.0000000e+00 3.9287570e-05 0.0000000e+00 
0.0000000e+00 7.6693490e-05 0.0000000e+00 
0.0000000e+00 1.0725933e-04 0.0000000e+00 
0.0000000e+00 2.6655248e-06 0.0000000e+00 
0.0000000e+00 -2.4096551e-04 0.0000000e+00 
0.0000000e+00 -5.9530133e-04 0.0000000e+00 
0.0000000e+00 -1.1080945e-03 0.0000000e+00 
0.0000000e+00 -1.1472426e-03 0.0000000e+00 
0.0000000e+00 -1.0899308e-03 0.0000000e+00 
0.0000000e+00 -8.7230583e-04 0.0000000e+00 