# vtk DataFile Version 4.0
vtk output
ASCII
DATASET UNSTRUCTURED_GRID
POINTS 1919 float
0.0000000e+00 0.0000000e+00 0.0000000e+00 
0.0000000e+00 0.0000000e+00 5.0000000e+01 
5.0000000e+00 0.0000000e+00 0.0000000e+00 
5.0000000e+00 0.0000000e+00 5.0000000e+01 
5.0000000e+00 1.0000000e+00 0.0000000e+00 
5.0000000e+00 1.0000000e+00 5.0000000e+01 
0.0000000e+00 1.0000000e+00 0.0000000e+00 
0.0000000e+00 1.0000000e+00 5.0000000e+01 
5.0000000e+00 2.0000000e+00 0.0000000e+00 
5.0000000e+00 2.0000000e+00 5.0000000e+01 
3.0000000e+00 2.0000000e+00 0.0000000e+00 
3.0000000e+00 2.0000000e+00 5.0000000e+01 
0.0000000e+00 2.0000000e+00 0.0000000e+00 
0.0000000e+00 2.0000000e+00 5.0000000e+01 
1.5000000e+00 3.0000000e+00 0.0000000e+00 
1.5000000e+00 3.0000000e+00 5.0000000e+01 
7.5000000e-01 3.0000000e+00 0.0000000e+00 
7.5000000e-01 3.0000000e+00 5.0000000e+01 
0.0000000e+00 3.0000000e+00 0.0000000e+00 
0.0000000e+00 3.0000000e+00 5.0000000e+01 
7.5000000e-01 3.0000000e+00 5.0000000e-01 
7.5000000e-01 3.0000000e+00 1.0000000e+00 
7.5000000e-01 3.0000000e+00 1.5000000e+00 
7.5000000e-01 3.0000000e+00 2.0000000e+00 
7.5000000e-01 3.0000000e+00 2.5000000e+00 
7.5000000e-01 3.0000000e+00 3.0000000e+00 
7.5000000e-01 3.0000000e+00 3.5000000e+00 
7.5000000e-01 3.0000000e+00 4.0000000e+00 
7.5000000e-01 3.0000000e+00 4.5000000e+00 
7.5000000e-01 3.0000000e+00 5.0000000e+00 
7.5000000e-01 3.0000000e+00 5.5000000e+00 
7.5000000e-01 3.0000000e+00 6.0000000e+00 
7.5000000e-01 3.0000000e+00 6.5000000e+00 
7.5000000e-01 3.0000000e+00 7.0000000e+00 
7.5000000e-01 3.0000000e+00 7.5000000e+00 
7.5000000e-01 3.0000000e+00 8.0000000e+00 
7.5000000e-01 3.0000000e+00 8.5000000e+00 
7.5000000e-01 3.0000000e+00 9.0000000e+00 
7.5000000e-01 3.0000000e+00 9.5000000e+00 
7.5000000e-01 3.0000000e+00 1.0000000e+01 
7.5000000e-01 3.0000000e+00 1.0500000e+01 
7.5000000e-01 3.0000000e+00 1.1000000e+01 
7.5000000e-01 3.0000000e+00 1.1500000e+01 
7.5000000e-01 3.0000000e+00 1.2000000e+01 
7.5000000e-01 3.0000000e+00 1.2500000e+01 
7.5000000e-01 3.0000000e+00 1.3000000e+01 
7.5000000e-01 3.0000000e+00 1.3500000e+01 
7.5000000e-01 3.0000000e+00 1.4000000e+01 
7.5000000e-01 3.0000000e+00 1.4500000e+01 
7.5000000e-01 3.0000000e+00 1.5000000e+01 
7.5000000e-01 3.0000000e+00 1.5500000e+01 
7.5000000e-01 3.0000000e+00 1.6000000e+01 
7.5000000e-01 3.0000000e+00 1.6500000e+01 
7.5000000e-01 3.0000000e+00 1.7000000e+01 
7.5000000e-01 3.0000000e+00 1.7500000e+01 
7.5000000e-01 3.0000000e+00 1.8000000e+01 
7.5000000e-01 3.0000000e+00 1.8500000e+01 
7.5000000e-01 3.0000000e+00 1.9000000e+01 
7.5000000e-01 3.0000000e+00 1.9500000e+01 
7.5000000e-01 3.0000000e+00 2.0000000e+01 
7.5000000e-01 3.0000000e+00 2.0500000e+01 
7.5000000e-01 3.0000000e+00 2.1000000e+01 
7.5000000e-01 3.0000000e+00 2.1500000e+01 
7.5000000e-01 3.0000000e+00 2.2000000e+01 
7.5000000e-01 3.0000000e+00 2.2500000e+01 
7.5000000e-01 3.0000000e+00 2.3000000e+01 
7.5000000e-01 3.0000000e+00 2.3500000e+01 
7.5000000e-01 3.0000000e+00 2.4000000e+01 
7.5000000e-01 3.0000000e+00 2.4500000e+01 
7.5000000e-01 3.0000000e+00 2.5000000e+01 
7.5000000e-01 3.0000000e+00 2.5500000e+01 
7.5000000e-01 3.0000000e+00 2.6000000e+01 
7.5000000e-01 3.0000000e+00 2.6500000e+01 
7.5000000e-01 3.0000000e+00 2.7000000e+01 
7.5000000e-01 3.0000000e+00 2.7500000e+01 
7.5000000e-01 3.0000000e+00 2.8000000e+01 
7.5000000e-01 3.0000000e+00 2.8500000e+01 
7.5000000e-01 3.0000000e+00 2.9000000e+01 
7.5000000e-01 3.0000000e+00 2.9500000e+01 
7.5000000e-01 3.0000000e+00 3.0000000e+01 
7.5000000e-01 3.0000000e+00 3.0500000e+01 
7.5000000e-01 3.0000000e+00 3.1000000e+01 
7.5000000e-01 3.0000000e+00 3.1500000e+01 
7.5000000e-01 3.0000000e+00 3.2000000e+01 
7.5000000e-01 3.0000000e+00 3.2500000e+01 
7.5000000e-01 3.0000000e+00 3.3000000e+01 
7.5000000e-01 3.0000000e+00 3.3500000e+01 
7.5000000e-01 3.0000000e+00 3.4000000e+01 
7.5000000e-01 3.0000000e+00 3.4500000e+01 
7.5000000e-01 3.0000000e+00 3.5000000e+01 
7.5000000e-01 3.0000000e+00 3.5500000e+01 
7.5000000e-01 3.0000000e+00 3.6000000e+01 
7.5000000e-01 3.0000000e+00 3.6500000e+01 
7.5000000e-01 3.0000000e+00 3.7000000e+01 
7.5000000e-01 3.0000000e+00 3.7500000e+01 
7.5000000e-01 3.0000000e+00 3.8000000e+01 
7.5000000e-01 3.0000000e+00 3.8500000e+01 
7.5000000e-01 3.0000000e+00 3.9000000e+01 
7.5000000e-01 3.0000000e+00 3.9500000e+01 
7.5000000e-01 3.0000000e+00 4.0000000e+01 
7.5000000e-01 3.0000000e+00 4.0500000e+01 
7.5000000e-01 3.0000000e+00 4.1000000e+01 
7.5000000e-01 3.0000000e+00 4.1500000e+01 
7.5000000e-01 3.0000000e+00 4.2000000e+01 
7.5000000e-01 3.0000000e+00 4.2500000e+01 
7.5000000e-01 3.0000000e+00 4.3000000e+01 
7.5000000e-01 3.0000000e+00 4.3500000e+01 
7.5000000e-01 3.0000000e+00 4.4000000e+01 
7.5000000e-01 3.0000000e+00 4.4500000e+01 
7.5000000e-01 3.0000000e+00 4.5000000e+01 
7.5000000e-01 3.0000000e+00 4.5500000e+01 
7.5000000e-01 3.0000000e+00 4.6000000e+01 
7.5000000e-01 3.0000000e+00 4.6500000e+01 
7.5000000e-01 3.0000000e+00 4.7000000e+01 
7.5000000e-01 3.0000000e+00 4.7500000e+01 
7.5000000e-01 3.0000000e+00 4.8000000e+01 
7.5000000e-01 3.0000000e+00 4.8500000e+01 
7.5000000e-01 3.0000000e+00 4.9000000e+01 
7.5000000e-01 3.0000000e+00 4.9500000e+01 
7.5000000e-01 3.0250001e+00 0.0000000e+00 
7.5000000e-01 3.0250001e+00 5.0000000e-01 
7.5000000e-01 3.0250001e+00 1.0000000e+00 
7.5000000e-01 3.0250001e+00 1.5000000e+00 
7.5000000e-01 3.0250001e+00 2.0000000e+00 
7.5000000e-01 3.0250001e+00 2.5000000e+00 
7.5000000e-01 3.0250001e+00 3.0000000e+00 
7.5000000e-01 3.0250001e+00 3.5000000e+00 
7.5000000e-01 3.0250001e+00 4.0000000e+00 
7.5000000e-01 3.0250001e+00 4.5000000e+00 
7.5000000e-01 3.0250001e+00 5.0000000e+00 
7.5000000e-01 3.0250001e+00 5.5000000e+00 
7.5000000e-01 3.0250001e+00 6.0000000e+00 
7.5000000e-01 3.0250001e+00 6.5000000e+00 
7.5000000e-01 3.0250001e+00 7.0000000e+00 
7.5000000e-01 3.0250001e+00 7.5000000e+00 
7.5000000e-01 3.0250001e+00 8.0000000e+00 
7.5000000e-01 3.0250001e+00 8.5000000e+00 
7.5000000e-01 3.0250001e+00 9.0000000e+00 
7.5000000e-01 3.0250001e+00 9.5000000e+00 
7.5000000e-01 3.0250001e+00 1.0000000e+01 
7.5000000e-01 3.0250001e+00 1.0500000e+01 
7.5000000e-01 3.0250001e+00 1.1000000e+01 
7.5000000e-01 3.0250001e+00 1.1500000e+01 
7.5000000e-01 3.0250001e+00 1.2000000e+01 
7.5000000e-01 3.0250001e+00 1.2500000e+01 
7.5000000e-01 3.0250001e+00 1.3000000e+01 
7.5000000e-01 3.0250001e+00 1.3500000e+01 
7.5000000e-01 3.0250001e+00 1.4000000e+01 
7.5000000e-01 3.0250001e+00 1.4500000e+01 
7.5000000e-01 3.0250001e+00 1.5000000e+01 
7.5000000e-01 3.0250001e+00 1.5500000e+01 
7.5000000e-01 3.0250001e+00 1.6000000e+01 
7.5000000e-01 3.0250001e+00 1.6500000e+01 
7.5000000e-01 3.0250001e+00 1.7000000e+01 
7.5000000e-01 3.0250001e+00 1.7500000e+01 
7.5000000e-01 3.0250001e+00 1.8000000e+01 
7.5000000e-01 3.0250001e+00 1.8500000e+01 
7.5000000e-01 3.0250001e+00 1.9000000e+01 
7.5000000e-01 3.0250001e+00 1.9500000e+01 
7.5000000e-01 3.0250001e+00 2.0000000e+01 
7.5000000e-01 3.0250001e+00 2.0500000e+01 
7.5000000e-01 3.0250001e+00 2.1000000e+01 
7.5000000e-01 3.0250001e+00 2.1500000e+01 
7.5000000e-01 3.0250001e+00 2.2000000e+01 
7.5000000e-01 3.0250001e+00 2.2500000e+01 
7.5000000e-01 3.0250001e+00 2.3000000e+01 
7.5000000e-01 3.0250001e+00 2.3500000e+01 
7.5000000e-01 3.0250001e+00 2.4000000e+01 
7.5000000e-01 3.0250001e+00 2.4500000e+01 
7.5000000e-01 3.0250001e+00 2.5000000e+01 
7.5000000e-01 3.0250001e+00 2.5500000e+01 
7.5000000e-01 3.0250001e+00 2.6000000e+01 
7.5000000e-01 3.0250001e+00 2.6500000e+01 
7.5000000e-01 3.0250001e+00 2.7000000e+01 
7.5000000e-01 3.0250001e+00 2.7500000e+01 
7.5000000e-01 3.0250001e+00 2.8000000e+01 
7.5000000e-01 3.0250001e+00 2.8500000e+01 
7.5000000e-01 3.0250001e+00 2.9000000e+01 
7.5000000e-01 3.0250001e+00 2.9500000e+01 
7.5000000e-01 3.0250001e+00 3.0000000e+01 
7.5000000e-01 3.0250001e+00 3.0500000e+01 
7.5000000e-01 3.0250001e+00 3.1000000e+01 
7.5000000e-01 3.0250001e+00 3.1500000e+01 
7.5000000e-01 3.0250001e+00 3.2000000e+01 
7.5000000e-01 3.0250001e+00 3.2500000e+01 
7.5000000e-01 3.0250001e+00 3.3000000e+01 
7.5000000e-01 3.0250001e+00 3.3500000e+01 
7.5000000e-01 3.0250001e+00 3.4000000e+01 
7.5000000e-01 3.0250001e+00 3.4500000e+01 
7.5000000e-01 3.0250001e+00 3.5000000e+01 
7.5000000e-01 3.0250001e+00 3.5500000e+01 
7.5000000e-01 3.0250001e+00 3.6000000e+01 
7.5000000e-01 3.0250001e+00 3.6500000e+01 
7.5000000e-01 3.0250001e+00 3.7000000e+01 
7.5000000e-01 3.0250001e+00 3.7500000e+01 
7.5000000e-01 3.0250001e+00 3.8000000e+01 
7.5000000e-01 3.0250001e+00 3.8500000e+01 
7.5000000e-01 3.0250001e+00 3.9000000e+01 
7.5000000e-01 3.0250001e+00 3.9500000e+01 
7.5000000e-01 3.0250001e+00 4.0000000e+01 
7.5000000e-01 3.0250001e+00 4.0500000e+01 
7.5000000e-01 3.0250001e+00 4.1000000e+01 
7.5000000e-01 3.0250001e+00 4.1500000e+01 
7.5000000e-01 3.0250001e+00 4.2000000e+01 
7.5000000e-01 3.0250001e+00 4.2500000e+01 
7.5000000e-01 3.0250001e+00 4.3000000e+01 
7.5000000e-01 3.0250001e+00 4.3500000e+01 
7.5000000e-01 3.0250001e+00 4.4000000e+01 
7.5000000e-01 3.0250001e+00 4.4500000e+01 
7.5000000e-01 3.0250001e+00 4.5000000e+01 
7.5000000e-01 3.0250001e+00 4.5500000e+01 
7.5000000e-01 3.0250001e+00 4.6000000e+01 
7.5000000e-01 3.0250001e+00 4.6500000e+01 
7.5000000e-01 3.0250001e+00 4.7000000e+01 
7.5000000e-01 3.0250001e+00 4.7500000e+01 
7.5000000e-01 3.0250001e+00 4.8000000e+01 
7.5000000e-01 3.0250001e+00 4.8500000e+01 
7.5000000e-01 3.0250001e+00 4.9000000e+01 
7.5000000e-01 3.0250001e+00 4.9500000e+01 
7.5000000e-01 3.0250001e+00 5.0000000e+01 
1.5000000e+00 3.0000000e+00 2.5000000e+01 
3.0000000e+00 2.0000000e+00 2.5000000e+01 
4.0000000e+00 2.0000000e+00 2.5000000e+01 
5.0000000e+00 2.0000000e+00 2.5000000e+01 
0.0000000e+00 3.0000000e+00 2.5000000e+01 
0.0000000e+00 0.0000000e+00 1.0000000e+00 
0.0000000e+00 0.0000000e+00 2.0000000e+00 
0.0000000e+00 0.0000000e+00 3.0000000e+00 
0.0000000e+00 0.0000000e+00 4.0000000e+00 
0.0000000e+00 0.0000000e+00 5.0000000e+00 
[...]
POINT_DATA 1919
FIELD FieldData 3
DISPLACEMENT 3 1919  float
0.0000000e+00 0.0000000e+00 0.0000000e+00 
0.0000000e+00 0.0000000e+00 0.0000000e+00 
0.0000000e+00 0.0000000e+00 0.0000000e+00 
0.0000000e+00 0.0000000e+00 0.0000000e+00 
8.7242167e-12 6.3179906e-11 -2.2213651e-11 
2.6158470e-18 -1.1459154e-18 3.0289673e-18 
0.0000000e+00 -1.3191553e-08 0.0000000e+00 
0.0000000e+00 5.1123471e-17 0.0000000e+00 
-1.2594019e-11 2.4629417e-11 6.5436298e-12 
1.0551259e-19 1.4526514e-17 -2.2980920e-18 
-5.4794714e-11 -9.5196862e-10 8.2375640e-10 
-7.3506958e-18 -1.4671087e-17 7.1671081e-18 
0.0000000e+00 5.9204535e-08 0.0000000e+00 
0.0000000e+00 -2.0885900e-17 0.0000000e+00 
7.9040197e-10 8.4931209e-09 1.3000562e-09 
2.9886730e-18 4.2181897e-17 -5.8989405e-18 
-1.4225679e-10 -1.5444385e-07 -2.2467435e-09 
-1.6105199e-18 -3.5978129e-16 7.5947178e-17 
0.0000000e+00 1.2443478e-09 0.0000000e+00 
0.0000000e+00 1.0688261e-17 0.0000000e+00 
1.4417137e-09 3.3625778e-07 -2.9672087e-10 
1.8011553e-09 1.2111306e-06 -2.7063145e-09 
-7.6195059e-09 -1.7299890e-06 2.3542853e-08 
-1.0538361e-07 -1.0406184e-05 -8.0635012e-08 
-7.5633437e-08 -2.5340798e-08 -2.0795501e-07 
1.0125822e-06 6.9041926e-05 1.0010853e-06 
1.3855260e-06 1.0564553e-04 9.7355746e-07 
-4.9981154e-06 -1.8835817e-04 -6.3836223e-06 
-8.3048835e-06 -8.7738020e-04 4.9450405e-06 
-3.5118806e-05 -1.3307434e-03 -9.7292395e-06 
-1.2786027e-05 -8.8630308e-04 -1.8966834e-05 
-9.9288786e-07 -1.2391094e-04 2.8053562e-06 
1.2967222e-06 -9.4135932e-05 4.3223222e-06 
-2.2213111e-05 -7.9985562e-04 -1.5926558e-05 
-2.0599206e-05 -1.3508461e-03 -8.9878977e-06 
-1.7820423e-05 -9.4115571e-04 5.1824298e-07 
-2.4288552e-06 -2.3583505e-04 -9.2487635e-06 
1.2589011e-06 1.0781761e-04 6.4295233e-07 
2.3720000e-07 8.2431201e-05 6.2906793e-07 
2.8099354e-08 1.0851121e-06 -1.7420041e-08 
-4.7008498e-08 -1.2576220e-05 -2.8274195e-08 
-1.8755888e-08 -1.9171173e-06 1.1242236e-08 
8.0876310e-09 1.3715365e-06 -2.8603545e-10 
3.1086804e-09 3.5628003e-07 -1.5259921e-09 
-5.1551546e-10 -1.2040137e-07 6.6845812e-10 
-2.8049449e-10 -4.7232160e-08 1.0708864e-10 
3.1967765e-11 8.1034717e-09 -6.5148921e-11 
1.7323289e-11 4.9217763e-09 1.1395700e-12 
-1.7926383e-12 -4.1428830e-10 7.7323824e-12 
-1.5290267e-12 -4.5254900e-10 5.3997085e-13 
4.8939277e-14 8.5561818e-12 -8.7933643e-13 
1.1359986e-13 4.8119415e-11 -2.2268063e-13 
3.5496955e-13 2.6846907e-11 -1.4749869e-13 
-7.2999939e-13 -1.1835456e-10 6.0804150e-13 
-1.9424319e-12 -4.4358203e-10 -1.3674087e-12 
3.4005106e-12 6.6868616e-10 2.0966928e-12 
1.5075580e-11 5.3555649e-09 2.0943575e-12 
-2.2535952e-11 -2.9495739e-09 -5.5490775e-11 
-1.4264082e-10 -5.6402456e-08 9.9071487e-11 
-1.6693125e-10 -2.0690706e-08 7.3215628e-10 
1.1567918e-09 4.9673997e-07 -1.7078586e-09 
5.6414620e-09 7.1154312e-07 -2.7398759e-09 
-2.9692507e-10 -3.1835784e-06 2.7644859e-08 
3.6210674e-09 -9.8055898e-06 -9.9066799e-09 
1.9288063e-08 6.4948927e-06 -2.5192921e-07 
2.9703560e-07 6.5148546e-05 4.9185809e-07 
-6.7673817e-08 6.7761794e-05 -2.2894115e-07 
9.2792664e-07 -2.4842113e-04 -2.8231777e-06 
-4.0790328e-06 -8.9972973e-04 9.4061679e-06 
4.5551897e-06 -1.2989535e-03 -2.2155343e-06 
-4.7828594e-06 -7.6449703e-04 -7.8441308e-06 
-7.6775774e-07 -6.9448914e-05 1.5327580e-06 
5.1564035e-07 -1.2255710e-04 4.6969349e-06 
-2.2978744e-05 -8.5290085e-04 -1.5083246e-05 
-2.0147076e-05 -1.3865661e-03 -9.6965487e-06 
-1.6026726e-05 -8.7225257e-04 8.5044906e-07 
-2.0486132e-06 -1.8034478e-04 -8.3993145e-06 
1.7339985e-06 1.0856970e-04 6.0135864e-07 
6.1025122e-07 7.0834845e-05 1.1061808e-06 
8.3725205e-09 -1.8543710e-06 -1.1533051e-07 
-8.1933415e-08 -1.1239531e-05 -9.9489313e-08 
-2.0664162e-08 -1.3173891e-06 -9.3681063e-09 
6.6682286e-09 1.2748144e-06 4.9471871e-09 
1.8240671e-09 2.7197186e-07 1.8074555e-09 
-3.5030770e-10 -1.1895158e-07 1.4870810e-10 
-1.5980404e-10 -3.6463813e-08 -1.1721378e-10 
9.1759335e-12 9.6217825e-09 -6.1338899e-11 
2.0100827e-11 4.0121466e-09 1.2673151e-11 
2.3247055e-12 -7.0144685e-10 9.4444756e-12 
6.6821039e-13 -4.1808221e-10 -5.3102081e-13 
-2.1350397e-14 3.7500898e-11 -6.8519496e-13 
-1.3117607e-14 3.8115844e-11 -1.2495528e-13 
8.2205157e-15 -1.0852934e-12 6.2663829e-14 
-4.9043352e-15 -3.1664413e-12 1.4820081e-14 
-3.6416420e-15 -3.0419786e-14 -1.2499276e-14 
1.7589118e-15 3.3619933e-13 5.1837178e-16 
3.6253111e-16 3.9295603e-14 -2.3107829e-16 
-1.3283351e-16 -2.1172942e-14 9.8451837e-17 
-1.8886838e-17 -4.2933102e-15 -2.0368325e-17 
1.7458494e-17 1.5719656e-15 -8.8656573e-18 
5.6889797e-18 8.9971427e-16 3.9043264e-18 
9.6402193e-19 -1.5505937e-16 -1.5840517e-17 
-1.5277556e-17 -1.6916427e-16 5.5587943e-18 
-4.3944116e-17 -2.5646988e-17 -7.0653218e-18 
-7.3552420e-18 -2.1151066e-16 -8.9419994e-18 
1.4849303e-17 9.8679550e-17 5.4196816e-18 
2.3562352e-17 3.9421085e-16 3.2424705e-18 
1.0402239e-17 2.4052329e-16 4.4314220e-18 
-1.4847047e-17 -1.1021202e-16 2.9225732e-18 
-2.5006065e-17 -3.8154755e-16 -4.9520069e-18 
-1.2548281e-17 -2.8296216e-16 -3.4517887e-18 
-4.7931862e-18 -3.6564986e-17 1.1733386e-17 
1.6007617e-17 1.2030025e-16 5.7402840e-18 
1.4011789e-17 -2.7307786e-16 -5.1434111e-18 
-9.2704944e-18 -7.1034420e-17 2.7063515e-18 
2.0677329e-18 1.6288154e-16 6.8126120e-18 
8.2167597e-18 4.6421768e-16 -1.1129230e-17 
-3.0277381e-18 1.4431952e-16 1.6394442e-17 
1.3949567e-17 -1.7982554e-16 -1.5884644e-17 
0.0000000e+00 -1.6088786e-07 0.0000000e+00 
0.0000000e+00 4.2820432e-07 0.0000000e+00 
0.0000000e+00 1.3026574e-06 0.0000000e+00 
0.0000000e+00 -2.3190903e-06 0.0000000e+00 
0.0000000e+00 -1.1645093e-05 0.0000000e+00 
0.0000000e+00 2.5025386e-06 0.0000000e+00 
0.0000000e+00 7.7471806e-05 0.0000000e+00 
0.0000000e+00 1.0305428e-04 0.0000000e+00 
0.0000000e+00 -2.1131482e-04 0.0000000e+00 
0.0000000e+00 -8.9788408e-04 0.0000000e+00 
0.0000000e+00 -1.3585619e-03 0.0000000e+00 
0.0000000e+00 -9.0346835e-04 0.0000000e+00 
0.0000000e+00 -1.5506572e-04 0.0000000e+00 
0.0000000e+00 -1.1824086e-04 0.0000000e+00 
0.0000000e+00 -8.1633357e-04 0.0000000e+00 
0.0000000e+00 -1.3669450e-03 0.0000000e+00 
0.0000000e+00 -9.7849022e-04 0.0000000e+00 
0.0000000e+00 -2.6024497e-04 0.0000000e+00 
0.0000000e+00 1.0444640e-04 0.0000000e+00 
0.0000000e+00 9.0418616e-05 0.0000000e+00 
0.0000000e+00 4.4506573e-06 0.0000000e+00 
0.0000000e+00 -1.3782994e-05 0.0000000e+00 
0.0000000e+00 -2.7227488e-06 0.0000000e+00 
0.0000000e+00 1.4915624e-06 0.0000000e+00 
0.0000000e+00 4.7911374e-07 0.0000000e+00 
0.0000000e+00 -1.2824884e-07 0.0000000e+00 
0.0000000e+00 -6.1771530e-08 0.0000000e+00 
0.0000000e+00 8.2071550e-09 0.0000000e+00 
0.0000000e+00 6.4108736e-09 0.0000000e+00 
0.0000000e+00 -3.5710962e-10 0.0000000e+00 
0.0000000e+00 -5.8685612e-10 0.0000000e+00 
0.0000000e+00 -2.4980840e-12 0.0000000e+00 
0.0000000e+00 6.2658018e-11 0.0000000e+00 
0.0000000e+00 3.2334087e-11 0.0000000e+00 
0.0000000e+00 -1.5059273e-10 0.0000000e+00 
0.0000000e+00 -5.2746929e-10 0.0000000e+00 
0.0000000e+00 1.0037450e-09 0.0000000e+00 
0.0000000e+00 6.3455579e-09 0.0000000e+00 
0.0000000e+00 -5.4740705e-09 0.0000000e+00 
0.0000000e+00 -6.7017268e-08 0.0000000e+00 
0.0000000e+00 -7.9460412e-09 0.0000000e+00 
0.0000000e+00 5.9204490e-07 0.0000000e+00 
0.0000000e+00 7.1013284e-07 0.0000000e+00 
0.0000000e+00 -3.8265621e-06 0.0000000e+00 
0.0000000e+00 -1.0389430e-05 0.0000000e+00 
0.0000000e+00 9.0792555e-06 0.0000000e+00 
0.0000000e+00 7.2246177e-05 0.0000000e+00 
0.0000000e+00 6.3770392e-05 0.0000000e+00 
0.0000000e+00 -2.6692104e-04 0.0000000e+00 
0.0000000e+00 -9.2442101e-04 0.0000000e+00 
0.0000000e+00 -1.3315924e-03 0.0000000e+00 
0.0000000e+00 -7.8213768e-04 0.0000000e+00 
0.0000000e+00 -9.4886935e-05 0.0000000e+00 
0.0000000e+00 -1.4373584e-04 0.0000000e+00 
0.0000000e+00 -8.7479281e-04 0.0000000e+00 
0.0000000e+00 -1.4054637e-03 0.0000000e+00 
0.0000000e+00 -9.0808870e-04 0.0000000e+00 
0.0000000e+00 -2.0120082e-04 0.0000000e+00 
0.0000000e+00 1.0787066e-04 0.0000000e+00 
0.0000000e+00 7.8307603e-05 0.0000000e+00 
0.0000000e+00 7.9219757e-07 0.0000000e+00 
0.0000000e+00 -1.2445279e-05 0.0000000e+00 
0.0000000e+00 -1.9784763e-06 0.0000000e+00 
0.0000000e+00 1.4048763e-06 0.0000000e+00 
0.0000000e+00 3.7600836e-07 0.0000000e+00 
0.0000000e+00 -1.2937132e-07 0.0000000e+00 
0.0000000e+00 -4.9290627e-08 0.0000000e+00 
0.0000000e+00 1.0200177e-08 0.0000000e+00 
0.0000000e+00 5.3702314e-09 0.0000000e+00 
0.0000000e+00 -7.0924011e-10 0.0000000e+00 
0.0000000e+00 -5.4499977e-10 0.0000000e+00 
0.0000000e+00 3.2970966e-11 0.0000000e+00 
0.0000000e+00 4.9424603e-11 0.0000000e+00 
0.0000000e+00 -2.3373436e-13 0.0000000e+00 
0.0000000e+00 -4.1011626e-12 0.0000000e+00 
0.0000000e+00 -1.3604959e-13 0.0000000e+00 
0.0000000e+00 3.9803837e-13 0.0000000e+00 
0.0000000e+00 5.4963121e-14 0.0000000e+00 
0.0000000e+00 -2.6381766e-14 0.0000000e+00 
0.0000000e+00 -5.9081895e-15 0.0000000e+00 
0.0000000e+00 1.8457398e-15 0.0000000e+00 
0.0000000e+00 9.6540623e-16 0.0000000e+00 
0.0000000e+00 -6.9392334e-17 0.0000000e+00 
0.0000000e+00 -1.6445213e-16 0.0000000e+00 
0.0000000e+00 -9.0856989e-17 0.0000000e+00 
0.0000000e+00 -2.2999591e-16 0.0000000e+00 
0.0000000e+00 7.4608389e-17 0.0000000e+00 
0.0000000e+00 4.1188388e-16 0.0000000e+00 
0.0000000e+00 3.0853077e-16 0.0000000e+00 
0.0000000e+00 -8.7398673e-17 0.0000000e+00 
0.0000000e+00 -3.4498776e-16 0.0000000e+00 
0.0000000e+00 -3.7300753e-16 0.0000000e+00 
0.0000000e+00 -1.0931135e-17 0.0000000e+00 
0.0000000e+00 -2.4573114e-17 0.0000000e+00 
0.0000000e+00 -1.4195769e-16 0.0000000e+00 
0.0000000e+00 -1.1907265e-16 0.0000000e+00 
0.0000000e+00 2.6992534e-16 0.0000000e+00 
0.0000000e+00 4.1451590e-16 0.0000000e+00 
0.0000000e+00 1.9661018e-16 0.0000000e+00 
0.0000000e+00 -1.8011684e-16 0.0000000e+00 
0.0000000e+00 -2.9775601e-16 0.0000000e+00 
-1.3419783e-05 7.9118443e-05 6.6054884e-07 
3.5249715e-07 1.9506456e-06 -7.9769769e-08 
-1.1655064e-08 -1.0193682e-07 2.4361204e-09 
-1.2005926e-08 -9.0931715e-09 -1.3239579e-09 
0.0000000e+00 2.5144697e-04 0.0000000e+00 
0.0000000e+00 0.0000000e+00 0.0000000e+00 
0.0000000e+00 0.0000000e+00 0.0000000e+00 
0.0000000e+00 0.0000000e+00 0.0000000e+00 
0.0000000e+00 0.0000000e+00 0.0000000e+00 
0.0000000e+00 0.0000000e+00 0.0000000e+00 
0.0000000e+00 0.0000000e+00 0.0000000e+00 
0.0000000e+00 0.0000000e+00 0.0000000e+00 
0.0000000e+00 0.0000000e+00 0.0000000e+00 
0.0000000e+00 0.0000000e+00 0.0000000e+00 
0.0000000e+00 0.0000000e+00 0.0000000e+00 
0.0000000e+00 0.0000000e+00 0.0000000e+00 
0.0000000e+00 0.0000000e+00 0.0000000e+00 
0.0000000e+00 0.0000000e+00 0.0000000e+00 
0.0000000e+00 0.0000000e+00 0.0000000e+00 
0.0000000e+00 0.0000000e+00 0.0000000e+00 
0.0000000e+00 0.0000000e+00 0.0000000e+00 
0.0000000e+00 0.0000000e+00 0.0000000e+00 
0.0000000e+00 0.0000000e+00 0.0000000e+00 
0.0000000e+00 0.0000000e+00 0.0000000e+00 
0.0000000e+00 0.0000000e+00 0.0000000e+00 
0.0000000e+00 0.0000000e+00 0.0000000e+00 
0.0000000e+00 0.0000000e+00 0.0000000e+00 
0.0000000e+00 0.0000000e+00 0.0000000e+00 
0.0000000e+00 0.0000000e+00 0.0000000e+00 
0.0000000e+00 0.0000000e+00 0.0000000e+00 
0.0000000e+00 0.0000000e+00 0.0000000e+00 
0.0000000e+00 0.0000000e+00 0.0000000e+00 
0.0000000e+00 0.0000000e+00 0.0000000e+00 
0.0000000e+00 0.0000000e+00 0.0000000e+00 
0.0000000e+00 0.0000000e+00 0.0000000e+00 
0.0000000e+00 0.0000000e+00 0.0000000e+00 
0.0000000e+00 0.0000000e+00 0.0000000e+00 
0.0000000e+00 0.0000000e+00 0.0000000e+00 
0.0000000e+00 0.0000000e+00 0.0000000e+00 
0.0000000e+00 0.0000000e+00 0.0000000e+00 
0.0000000e+00 0.0000000e+00 0.0000000e+00 
0.0000000e+00 0.0000000e+00 0.0000000e+00 
0.0000000e+00 0.0000000e+00 0.0000000e+00 
0.0000000e+00 0.0000000e+00 0.0000000e+00 
0.0000000e+00 0.0000000e+00 0.0000000e+00 
0.0000000e+00 0.0000000e+00 0.0000000e+00 
0.0000000e+00 0.0000000e+00 0.0000000e+00 
0.0000000e+00 0.0000000e+00 0.0000000e+00 
0.0000000e+00 0.0000000e+00 0.0000000e+00 
0.0000000e+00 0.0000000e+00 0.0000000e+00 
0.0000000e+00 0.0000000e+00 0.0000000e+00 
0.0000000e+00 0.0000000e+00 0.0000000e+00 
0.0000000e+00 0.0000000e+00 0.0000000e+00 
0.0000000e+00 0.0000000e+00 0.0000000e+00 
0.0000000e+00 0.0000000e+00 0.0000000e+00 
0.0000000e+00 0.0000000e+00 0.0000000e+00 
0.0000000e+00 0.0000000e+00 0.0000000e+00 
0.0000000e+00 0.0000000e+00 0.0000000e+00 
0.0000000e+00 0.0000000e+00 0.0000000e+00 
0.0000000e+00 0.0000000e+00 0.0000000e+00 
0.0000000e+00 0.0000000e+00 0.0000000e+00 
0.0000000e+00 0.0000000e+00 0.0000000e+00 
0.0000000e+00 0.0000000e+00 0.0000000e+00 
0.0000000e+00 0.0000000e+00 0.0000000e+00 
0.0000000e+00 0.0000000e+00 0.0000000e+00 
0.0000000e+00 0.0000000e+00 0.0000000e+00 
0.0000000e+00 0.0000000e+00 0.0000000e+00 
0.0000000e+00 0.0000000e+00 0.0000000e+00 
0.0000000e+00 0.0000000e+00 0.0000000e+00 
0.0000000e+00 0.0000000e+00 0.0000000e+00 
0.0000000e+00 0.0000000e+00 0.0000000e+00 
0.0000000e+00 0.0000000e+00 0.0000000e+00 
0.0000000e+00 0.0000000e+00 0.0000000e+00 
0.0000000e+00 0.0000000e+00 0.0000000e+00 
0.0000000e+00 0.0000000e+00 0.0000000e+00 
0.0000000e+00 0.0000000e+00 0.0000000e+00 
0.0000000e+00 0.0000000e+00 0.0000000e+00 
0.0000000e+00 0.0000000e+00 0.0000000e+00 
0.0000000e+00 0.0000000e+00 0.0000000e+00 
0.0000000e+00 0.0000000e+00 0.0000000e+00 
0.0000000e+00 0.0000000e+00 0.0000000e+00 
0.0000000e+00 0.0000000e+00 0.0000000e+00 
0.0000000e+00 0.0000000e+00 0.0000000e+00 
0.0000000e+00 0.0000000e+00 0.0000000e+00 
0.0000000e+00 0.0000000e+00 0.0000000e+00 
0.0000000e+00 0.0000000e+00 0.0000000e+00 
0.0000000e+00 0.0000000e+00 0.0000000e+00 
0.0000000e+00 0.0000000e+00 0.0000000e+00 
0.0000000e+00 0.0000000e+00 0.0000000e+00 
0.0000000e+00 0.0000000e+00 0.0000000e+00 
0.0000000e+00 0.0000000e+00 0.0000000e+00 
0.0000000e+00 0.0000000e+00 0.0000000e+00 
0.0000000e+00 0.0000000e+00 0.0000000e+00 
0.0000000e+00 0.0000000e+00 0.0000000e+00 
0.0000000e+00 0.0000000e+00 0.0000000e+00 
0.0000000e+00 0.0000000e+00 0.0000000e+00 
0.0000000e+00 0.0000000e+00 0.0000000e+00 
0.0000000e+00 0.0000000e+00 0.0000000e+00 
0.0000000e+00 0.0000000e+00 0.0000000e+00 
0.0000000e+00 0.0000000e+00 0.0000000e+00 
0.0000000e+00 0.0000000e+00 0.0000000e+00 
0.0000000e+00 0.0000000e+00 0.0000000e+00 
0.0000000e+00 0.0000000e+00 0.0000000e+00 
0.0000000e+00 0.0000000e+00 0.0000000e+00 
0.0000000e+00 0.0000000e+00 0.0000000e+00 
0.0000000e+00 0.0000000e+00 0.0000000e+00 
0.0000000e+00 0.0000000e+00 0.0000000e+00 
0.0000000e+00 0.0000000e+00 0.0000000e+00 
0.0000000e+00 0.0000000e+00 0.0000000e+00 
0.0000000e+00 0.0000000e+00 0.0000000e+00 
0.0000000e+00 0.0000000e+00 0.0000000e+00 
-2.3575118e-11 -2.0594335e-10 2.0168225e-11 
-1.5275368e-11 3.1676312e-10 1.8749830e-11 
1.6368434e-10 1.6396717e-10 -2.3103979e-11 
-1.1698312e-09 -4.3558859e-09 6.2668776e-10 
-2.1193673e-09 -5.5740141e-09 7.8424878e-11 
-1.6191118e-09 -4.5531277e-09 -3.0180822e-10 
-1.2404544e-09 -4.0480455e-09 1.2593189e-10 
-1.5857327e-09 -5.2962941e-09 -7.3100248e-11 
-3.9082793e-10 -1.3912960e-09 -4.0027423e-10 
3.4616671e-10 6.9632938e-10 1.8424492e-10 
1.6119724e-11 1.0539106e-11 7.5118127e-11 
-1.7964946e-11 -6.8915484e-11 -3.6677345e-11 
7.7076071e-12 3.3152162e-11 9.2899967e-12 
-1.4772603e-12 -5.1461370e-12 -2.1212433e-12 
3.5601638e-13 1.1024533e-12 7.0649286e-13 
-4.0845209e-14 -1.3318444e-13 9.2260247e-16 
4.9753046e-13 1.3570026e-12 -2.7714560e-13 
-1.6145223e-12 -3.1042226e-12 -3.2224877e-13 
3.8219753e-12 4.8010113e-11 2.3719919e-12 
-1.1186902e-11 -9.2820994e-11 1.2752516e-11 
3.8677644e-11 2.5848024e-10 -4.6335945e-11 
2.7913041e-10 4.7446080e-10 -1.7893781e-10 
-8.2750959e-11 -1.8075932e-09 2.7058522e-10 
-6.0882144e-10 1.1751380e-09 5.6919872e-11 
6.1221028e-09 1.7559607e-08 -2.0988654e-10 
-1.2377919e-09 3.9451153e-10 4.1435064e-10 
-1.7785924e-09 -8.1384446e-09 2.7623429e-10 
-9.7513853e-10 -6.0090914e-09 -3.2252787e-10 
-1.3500649e-10 -4.5993953e-10 -9.1183089e-11 
1.1417973e-10 2.7125255e-10 8.2960624e-11 
-1.2724331e-11 6.4377018e-11 -2.6890599e-13 
-1.8539116e-11 -1.0626113e-10 -4.2825514e-11 
8.2179142e-12 1.4408846e-11 5.1690948e-12 
-1.9654077e-12 -2.5543576e-12 -1.0134821e-12 
5.0272937e-13 -1.6634404e-12 -4.2662136e-13 
-1.1297318e-13 2.4178991e-13 1.3941575e-14 
2.0085667e-14 1.0098694e-14 1.7884723e-14 
-4.3195017e-15 -9.9621883e-15 -4.2981412e-15 
6.9411078e-16 1.8492108e-15 5.6157061e-16 
-5.2351851e-17 -2.6706981e-16 -6.5370985e-17 
3.0488157e-17 3.3863342e-17 -4.4137216e-18 
1.6278785e-17 -1.7544226e-17 -1.1514248e-17 
4.1298415e-18 3.8358768e-18 3.3059889e-19 
-8.3266060e-18 6.0463863e-18 -1.6886018e-18 
-2.0221227e-17 7.7057284e-18 -6.5249945e-19 
-4.4865751e-18 9.1536204e-18 -8.9295520e-18 
4.4230161e-17 1.5989554e-19 1.9013437e-18 
-7.0065134e-18 -2.8979657e-17 -4.7655314e-18 
1.0339493e-17 -2.7881800e-17 7.3978377e-18 
0.0000000e+00 4.9697011e-08 0.0000000e+00 
0.0000000e+00 -4.2788528e-07 0.0000000e+00 
0.0000000e+00 1.8288792e-06 0.0000000e+00 
0.0000000e+00 -2.8654524e-06 0.0000000e+00 
0.0000000e+00 -4.4463209e-06 0.0000000e+00 
0.0000000e+00 -2.8604263e-06 0.0000000e+00 
0.0000000e+00 -1.9469471e-06 0.0000000e+00 
0.0000000e+00 -6.6038242e-06 0.0000000e+00 
0.0000000e+00 7.5254030e-07 0.0000000e+00 
0.0000000e+00 7.8898140e-08 0.0000000e+00 
0.0000000e+00 -1.3764914e-07 0.0000000e+00 
0.0000000e+00 2.8170531e-08 0.0000000e+00 
0.0000000e+00 -4.7006852e-09 0.0000000e+00 
0.0000000e+00 5.8769173e-10 0.0000000e+00 
0.0000000e+00 -4.7322285e-11 0.0000000e+00 
0.0000000e+00 7.4603006e-12 0.0000000e+00 
0.0000000e+00 2.9414251e-12 0.0000000e+00 
0.0000000e+00 1.5983448e-10 0.0000000e+00 
0.0000000e+00 -1.6583335e-09 0.0000000e+00 
0.0000000e+00 8.2454896e-09 0.0000000e+00 
0.0000000e+00 -8.3351210e-08 0.0000000e+00 
0.0000000e+00 2.3750056e-07 0.0000000e+00 
0.0000000e+00 5.9549188e-07 0.0000000e+00 
0.0000000e+00 -1.8131477e-06 0.0000000e+00 
0.0000000e+00 -1.0146883e-05 0.0000000e+00 
0.0000000e+00 -1.4867221e-05 0.0000000e+00 
0.0000000e+00 -6.5946492e-06 0.0000000e+00 
0.0000000e+00 -1.1298634e-05 0.0000000e+00 
0.0000000e+00 1.6848392e-06 0.0000000e+00 
0.0000000e+00 1.3104672e-07 0.0000000e+00 
0.0000000e+00 -5.6720875e-08 0.0000000e+00 
0.0000000e+00 2.2197018e-08 0.0000000e+00 
0.0000000e+00 -2.8790583e-09 0.0000000e+00 
0.0000000e+00 3.1543665e-10 0.0000000e+00 
0.0000000e+00 -3.7227995e-11 0.0000000e+00 
0.0000000e+00 6.1407429e-12 0.0000000e+00 
0.0000000e+00 -5.3504054e-13 0.0000000e+00 
0.0000000e+00 2.6435326e-14 0.0000000e+00 
0.0000000e+00 -1.3412651e-15 0.0000000e+00 
0.0000000e+00 4.4546146e-16 0.0000000e+00 
0.0000000e+00 6.8629186e-18 0.0000000e+00 
0.0000000e+00 -2.6645200e-16 0.0000000e+00 
0.0000000e+00 -7.2190580e-17 0.0000000e+00 
0.0000000e+00 5.6652793e-17 0.0000000e+00 
0.0000000e+00 1.0199523e-16 0.0000000e+00 
0.0000000e+00 -1.6572443e-16 0.0000000e+00 
0.0000000e+00 -1.1735062e-16 0.0000000e+00 
0.0000000e+00 8.9191279e-17 0.0000000e+00 
0.0000000e+00 9.7485876e-17 0.0000000e+00 
-4.3724763e-11 -1.9264862e-10 8.8017114e-11 
-1.1301678e-10 1.2773547e-09 -3.4288700e-10 
-3.1098252e-10 -2.9226417e-09 6.3020728e-10 
-4.3566845e-10 6.6411490e-09 -1.4896078e-09 
4.7862879e-18 -1.9303967e-17 1.7963830e-17 
1.0442348e-17 -8.8681120e-17 7.6620061e-18 
2.4558991e-17 -1.3431712e-17 -4.6788003e-18 
1.0847353e-17 4.7053335e-17 3.0248155e-18 
1.2805207e-10 -4.7488662e-11 -1.0953925e-10 
-1.1575786e-18 1.5853037e-17 2.8784208e-19 
-1.3653889e-09 1.4320515e-08 2.5419428e-10 
-7.1855544e-10 5.7794711e-09 -8.6150441e-11 
0.0000000e+00 -2.8406168e-07 0.0000000e+00 
0.0000000e+00 2.3118569e-06 0.0000000e+00 
0.0000000e+00 -6.6268808e-06 0.0000000e+00 
0.0000000e+00 1.1657811e-06 0.0000000e+00 
0.0000000e+00 9.9945777e-05 0.0000000e+00 
0.0000000e+00 -1.9049739e-05 0.0000000e+00 
0.0000000e+00 4.7991743e-05 0.0000000e+00 
0.0000000e+00 6.2277213e-05 0.0000000e+00 
0.0000000e+00 -2.0132182e-05 0.0000000e+00 
0.0000000e+00 2.3750101e-06 0.0000000e+00 
0.0000000e+00 -1.8384837e-07 0.0000000e+00 
0.0000000e+00 -3.1838766e-08 0.0000000e+00 
0.0000000e+00 1.0416366e-08 0.0000000e+00 
0.0000000e+00 -1.3259014e-09 0.0000000e+00 