# vtk DataFile Version 4.0
vtk output
ASCII
DATASET UNSTRUCTURED_GRID
POINTS 1919 float
0.0000000e+00 0.0000000e+00 0.0000000e+00 
0.0000000e+00 0.0000000e+00 5.0000000e+01 
5.0000000e+00 0.0000000e+00 0.0000000e+00 
5.0000000e+00 0.0000000e+00 5.0000000e+01 
5.0000000e+00 1.0000000e+00 0.0000000e+00 
5.0000000e+00 1.0000000e+00 5.0000000e+01 
0.0000000e+00 1.0000000e+00 0.0000000e+00 
0.0000000e+00 1.0000000e+00 5.0000000e+01 
5.0000000e+00 2.0000000e+00 0.0000000e+00 
5.0000000e+00 2.0000000e+00 5.0000000e+01 
3.0000000e+00 2.0000000e+00 0.0000000e+00 
3.0000000e+00 2.0000000e+00 5.0000000e+01 
0.0000000e+00 2.0000000e+00 0.0000000e+00 
0.0000000e+00 2.0000000e+00 5.0000000e+01 
1.5000000e+00 3.0000000e+00 0.0000000e+00 
1.5000000e+00 3.0000000e+00 5.0000000e+01 
7.5000000e-01 3.0000000e+00 0.0000000e+00 
7.5000000e-01 3.0000000e+00 5.0000000e+01 
0.0000000e+00 3.0000000e+00 0.0000000e+00 
0.0000000e+00 3.0000000e+00 5.0000000e+01 
7.5000000e-01 3.0000000e+00 5.0000000e-01 
7.5000000e-01 3.0000000e+00 1.0000000e+00 
7.5000000e-01 3.0000000e+00 1.5000000e+00 
7.5000000e-01 3.0000000e+00 2.0000000e+00 
7.5000000e-01 3.0000000e+00 2.5000000e+00 
7.5000000e-01 3.0000000e+00 3.0000000e+00 
7.5000000e-01 3.0000000e+00 3.5000000e+00 
7.5000000e-01 3.0000000e+00 4.0000000e+00 
7.5000000e-01 3.0000000e+00 4.5000000e+00 
7.5000000e-01 3.0000000e+00 5.0000000e+00 
7.5000000e-01 3.0000000e+00 5.5000000e+00 
7.5000000e-01 3.0000000e+00 6.0000000e+00 
7.5000000e-01 3.0000000e+00 6.5000000e+00 
7.5000000e-01 3.0000000e+00 7.0000000e+00 
7.5000000e-01 3.0000000e+00 7.5000000e+00 
7.5000000e-01 3.0000000e+00 8.0000000e+00 
7.5000000e-01 3.0000000e+00 8.5000000e+00 
7.5000000e-01 3.0000000e+00 9.0000000e+00 
7.5000000e-01 3.0000000e+00 9.5000000e+00 
7.5000000e-01 3.0000000e+00 1.0000000e+01 
7.5000000e-01 3.0000000e+00 1.0500000e+01 
7.5000000e-01 3.0000000e+00 1.1000000e+01 
7.5000000e-01 3.0000000e+00 1.1500000e+01 
7.5000000e-01 3.0000000e+00 1.2000000e+01 
7.5000000e-01 3.0000000e+00 1.2500000e+01 
7.5000000e-01 3.0000000e+00 1.3000000e+01 
7.5000000e-01 3.0000000e+00 1.3500000e+01 
7.5000000e-01 3.0000000e+00 1.4000000e+01 
7.5000000e-01 3.0000000e+00 1.4500000e+01 
7.5000000e-01 3.0000000e+00 1.5000000e+01 
7.5000000e-01 3.0000000e+00 1.5500000e+01 
7.5000000e-01 3.0000000e+00 1.6000000e+01 
7.5000000e-01 3.0000000e+00 1.6500000e+01 
7.5000000e-01 3.0000000e+00 1.7000000e+01 
7.5000000e-01 3.0000000e+00 1.7500000e+01 
7.5000000e-01 3.0000000e+00 1.8000000e+01 
7.5000000e-01 3.0000000e+00 1.8500000e+01 
7.5000000e-01 3.0000000e+00 1.9000000e+01 
7.5000000e-01 3.0000000e+00 1.9500000e+01 
7.5000000e-01 3.0000000e+00 2.0000000e+01 
7.5000000e-01 3.0000000e+00 2.0500000e+01 
7.5000000e-01 3.0000000e+00 2.1000000e+01 
7.5000000e-01 3.0000000e+00 2.1500000e+01 
7.5000000e-01 3.0000000e+00 2.2000000e+01 
7.5000000e-01 3.0000000e+00 2.2500000e+01 
7.5000000e-01 3.0000000e+00 2.3000000e+01 
7.5000000e-01 3.0000000e+00 2.3500000e+01 
7.5000000e-01 3.0000000e+00 2.4000000e+01 
7.5000000e-01 3.0000000e+00 2.4500000e+01 
7.5000000e-01 3.0000000e+00 2.5000000e+01 
7.5000000e-01 3.0000000e+00 2.5500000e+01 
7.5000000e-01 3.0000000e+00 2.6000000e+01 
7.5000000e-01 3.0000000e+00 2.6500000e+01 
7.5000000e-01 3.0000000e+00 2.7000000e+01 
7.5000000e-01 3.0000000e+00 2.7500000e+01 
7.5000000e-01 3.0000000e+00 2.8000000e+01 
7.5000000e-01 3.0000000e+00 2.8500000e+01 
7.5000000e-01 3.0000000e+00 2.9000000e+01 
7.5000000e-01 3.0000000e+00 2.9500000e+01 
7.5000000e-01 3.0000000e+00 3.0000000e+01 
7.5000000e-01 3.0000000e+00 3.0500000e+01 
7.5000000e-01 3.0000000e+00 3.1000000e+01 
7.5000000e-01 3.0000000e+00 3.1500000e+01 
7.5000000e-01 3.0000000e+00 3.2000000e+01 
7.5000000e-01 3.0000000e+00 3.2500000e+01 
7.5000000e-01 3.0000000e+00 3.3000000e+01 
7.5000000e-01 3.0000000e+00 3.3500000e+01 
7.5000000e-01 3.0000000e+00 3.4000000e+01 
7.5000000e-01 3.0000000e+00 3.4500000e+01 
7.5000000e-01 3.0000000e+00 3.5000000e+01 
7.5000000e-01 3.0000000e+00 3.5500000e+01 
7.5000000e-01 3.0000000e+00 3.6000000e+01 
7.5000000e-01 3.0000000e+00 3.6500000e+01 
7.5000000e-01 3.0000000e+00 3.7000000e+01 
7.5000000e-01 3.0000000e+00 3.7500000e+01 
7.5000000e-01 3.0000000e+00 3.8000000e+01 
7.5000000e-01 3.0000000e+00 3.8500000e+01 
7.5000000e-01 3.0000000e+00 3.9000000e+01 
7.5000000e-01 3.0000000e+00 3.9500000e+01 
7.5000000e-01 3.0000000e+00 4.0000000e+01 
7.5000000e-01 3.0000000e+00 4.0500000e+01 
7.5000000e-01 3.0000000e+00 4.1000000e+01 
7.5000000e-01 3.0000000e+00 4.1500000e+01 
7.5000000e-01 3.0000000e+00 4.2000000e+01 
7.5000000e-01 3.0000000e+00 4.2500000e+01 
7.5000000e-01 3.0000000e+00 4.3000000e+01 
7.5000000e-01 3.0000000e+00 4.3500000e+01 
7.5000000e-01 3.0000000e+00 4.4000000e+01 
7.5000000e-01 3.0000000e+00 4.4500000e+01 
7.5000000e-01 3.0000000e+00 4.5000000e+01 
7.5000000e-01 3.0000000e+00 4.5500000e+01 
7.5000000e-01 3.0000000e+00 4.6000000e+01 
7.5000000e-01 3.0000000e+00 4.6500000e+01 
7.5000000e-01 3.0000000e+00 4.7000000e+01 
7.5000000e-01 3.0000000e+00 4.7500000e+01 
7.5000000e-01 3.0000000e+00 4.8000000e+01 
7.5000000e-01 3.0000000e+00 4.8500000e+01 
7.5000000e-01 3.0000000e+00 4.9000000e+01 
7.5000000e-01 3.0000000e+00 4.9500000e+01 
7.5000000e-01 3.0250001e+00 0.0000000e+00 
7.5000000e-01 3.0250001e+00 5.0000000e-01 
7.5000000e-01 3.0250001e+00 1.0000000e+00 
7.5000000e-01 3.0250001e+00 1.5000000e+00 
7.5000000e-01 3.0250001e+00 2.0000000e+00 
7.5000000e-01 3.0250001e+00 2.5000000e+00 
7.5000000e-01 3.0250001e+00 3.0000000e+00 
7.5000000e-01 3.0250001e+00 3.5000000e+00 
7.5000000e-01 3.0250001e+00 4.0000000e+00 
7.5000000e-01 3.0250001e+00 4.5000000e+00 
7.5000000e-01 3.0250001e+00 5.0000000e+00 
7.5000000e-01 3.0250001e+00 5.5000000e+00 
7.5000000e-01 3.0250001e+00 6.0000000e+00 
7.5000000e-01 3.0250001e+00 6.5000000e+00 
7.5000000e-01 3.0250001e+00 7.0000000e+00 
7.5000000e-01 3.0250001e+00 7.5000000e+00 
7.5000000e-01 3.0250001e+00 8.0000000e+00 
7.5000000e-01 3.0250001e+00 8.5000000e+00 
7.5000000e-01 3.0250001e+00 9.0000000e+00 
7.5000000e-01 3.0250001e+00 9.5000000e+00 
7.5000000e-01 3.0250001e+00 1.0000000e+01 
7.5000000e-01 3.0250001e+00 1.0500000e+01 
7.5000000e-01 3.0250001e+00 1.1000000e+01 
7.5000000e-01 3.0250001e+00 1.1500000e+01 
7.5000000e-01 3.0250001e+00 1.2000000e+01 
7.5000000e-01 3.0250001e+00 1.2500000e+01 
7.5000000e-01 3.0250001e+00 1.3000000e+01 
7.5000000e-01 3.0250001e+00 1.3500000e+01 
7.5000000e-01 3.0250001e+00 1.4000000e+01 
7.5000000e-01 3.0250001e+00 1.4500000e+01 
7.5000000e-01 3.0250001e+00 1.5000000e+01 
7.5000000e-01 3.0250001e+00 1.5500000e+01 
7.5000000e-01 3.0250001e+00 1.6000000e+01 
7.5000000e-01 3.0250001e+00 1.6500000e+01 
7.5000000e-01 3.0250001e+00 1.7000000e+01 
7.5000000e-01 3.0250001e+00 1.7500000e+01 
7.5000000e-01 3.0250001e+00 1.8000000e+01 
7.5000000e-01 3.0250001e+00 1.8500000e+01 
7.5000000e-01 3.0250001e+00 1.9000000e+01 
7.5000000e-01 3.0250001e+00 1.9500000e+01 
7.5000000e-01 3.0250001e+00 2.0000000e+01 
7.5000000e-01 3.0250001e+00 2.0500000e+01 
7.5000000e-01 3.0250001e+00 2.1000000e+01 
7.5000000e-01 3.0250001e+00 2.1500000e+01 
7.5000000e-01 3.0250001e+00 2.2000000e+01 
7.5000000e-01 3.0250001e+00 2.2500000e+01 
7.5000000e-01 3.0250001e+00 2.3000000e+01 
7.5000000e-01 3.0250001e+00 2.3500000e+01 
7.5000000e-01 3.0250001e+00 2.4000000e+01 
7.5000000e-01 3.0250001e+00 2.4500000e+01 
7.5000000e-01 3.0250001e+00 2.5000000e+01 
7.5000000e-01 3.0250001e+00 2.5500000e+01 
7.5000000e-01 3.0250001e+00 2.6000000e+01 
7.5000000e-01 3.0250001e+00 2.6500000e+01 
7.5000000e-01 3.0250001e+00 2.7000000e+01 
7.5000000e-01 3.0250001e+00 2.7500000e+01 
7.5000000e-01 3.0250001e+00 2.8000000e+01 
7.5000000e-01 3.0250001e+00 2.8500000e+01 
7.5000000e-01 3.0250001e+00 2.9000000e+01 
7.5000000e-01 3.0250001e+00 2.9500000e+01 
7.5000000e-01 3.0250001e+00 3.0000000e+01 
7.5000000e-01 3.0250001e+00 3.0500000e+01 
7.5000000e-01 3.0250001e+00 3.1000000e+01 
7.5000000e-01 3.0250001e+00 3.1500000e+01 
7.5000000e-01 3.0250001e+00 3.2000000e+01 
7.5000000e-01 3.0250001e+00 3.2500000e+01 
7.5000000e-01 3.0250001e+00 3.3000000e+01 
7.5000000e-01 3.0250001e+00 3.3500000e+01 
7.5000000e-01 3.0250001e+00 3.4000000e+01 
7.5000000e-01 3.0250001e+00 3.4500000e+01 
7.5000000e-01 3.0250001e+00 3.5000000e+01 
7.5000000e-01 3.0250001e+00 3.5500000e+01 
7.5000000e-01 3.0250001e+00 3.6000000e+01 
7.5000000e-01 3.0250001e+00 3.6500000e+01 
7.5000000e-01 3.0250001e+00 3.7000000e+01 
7.5000000e-01 3.0250001e+00 3.7500000e+01 
7.5000000e-01 3.0250001e+00 3.8000000e+01 
7.5000000e-01 3.0250001e+00 3.8500000e+01 
7.5000000e-01 3.0250001e+00 3.9000000e+01 
7.5000000e-01 3.0250001e+00 3.9500000e+01 
7.5000000e-01 3.0250001e+00 4.0000000e+01 
7.5000000e-01 3.0250001e+00 4.0500000e+01 
7.5000000e-01 3.0250001e+00 4.1000000e+01 
7.5000000e-01 3.0250001e+00 4.1500000e+01 
7.5000000e-01 3.0250001e+00 4.2000000e+01 
7.5000000e-01 3.0250001e+00 4.2500000e+01 
7.5000000e-01 3.0250001e+00 4.3000000e+01 
7.5000000e-01 3.0250001e+00 4.3500000e+01 
7.5000000e-01 3.0250001e+00 4.4000000e+01 
7.5000000e-01 3.0250001e+00 4.4500000e+01 
7.5000000e-01 3.0250001e+00 4.5000000e+01 
7.5000000e-01 3.0250001e+00 4.5500000e+01 
7.5000000e-01 3.0250001e+00 4.6000000e+01 
7.5000000e-01 3.0250001e+00 4.6500000e+01 
7.5000000e-01 3.0250001e+00 4.7000000e+01 
7.5000000e-01 3.0250001e+00 4.7500000e+01 
7.5000000e-01 3.0250001e+00 4.8000000e+01 
7.5000000e-01 3.0250001e+00 4.8500000e+01 
7.5000000e-01 3.0250001e+00 4.9000000e+01 
7.5000000e-01 3.0250001e+00 4.9500000e+01 
7.5000000e-01 3.0250001e+00 5.0000000e+01 
1.5000000e+00 3.0000000e+00 2.5000000e+01 
3.0000000e+00 2.0000000e+00 2.5000000e+01 
4.0000000e+00 2.0000000e+00 2.5000000e+01 
5.0000000e+00 2.0000000e+00 2.5000000e+01 
0.0000000e+00 3.0000000e+00 2.5000000e+01 
0.0000000e+00 0.0000000e+00 1.0000000e+00 
0.0000000e+00 0.0000000e+00 2.0000000e+00 
0.0000000e+00 0.0000000e+00 3.0000000e+00 
0.0000000e+00 0.0000000e+00 4.0000000e+00 
0.0000000e+00 0.0000000e+00 5.0000000e+00 
[...]
POINT_DATA 1919
FIELD FieldData 3
DISPLACEMENT 3 1919  float
0.0000000e+00 0.0000000e+00 0.0000000e+00 
0.0000000e+00 0.0000000e+00 0.0000000e+00 
0.0000000e+00 0.0000000e+00 0.0000000e+00 
0.0000000e+00 0.0000000e+00 0.0000000e+00 
1.5231726e-05 -3.6818547e-06 -1.4476152e-05 
-1.7607507e-10 1.3208892e-09 3.8008646e-10 
0.0000000e+00 -3.3316890e-05 0.0000000e+00 
0.0000000e+00 -5.6053509e-09 0.0000000e+00 
2.7318716e-05 2.5182624e-06 -2.9079985e-05 
-5.2104526e-10 1.5818128e-09 -1.1546205e-09 
-3.7815187e-06 6.8825202e-06 -4.7607818e-06 
1.3306768e-09 1.5391375e-08 -2.1878990e-09 
0.0000000e+00 -3.7139544e-06 0.0000000e+00 
0.0000000e+00 -1.7026332e-08 0.0000000e+00 
1.0266109e-05 6.6210734e-05 5.3321088e-05 
2.6680421e-08 5.9414248e-08 1.8041687e-08 
8.6993259e-06 -1.1367087e-05 -5.1484681e-06 
-5.4630793e-09 -1.4703696e-06 -5.1990849e-08 
0.0000000e+00 1.0498109e-04 0.0000000e+00 
0.0000000e+00 3.9469222e-07 0.0000000e+00 
1.0439934e-05 4.3841465e-06 6.1916922e-05 
-9.9530361e-08 2.1300737e-05 1.0287362e-04 
-6.9034822e-06 -1.1647805e-05 1.1280056e-04 
-2.8008442e-05 -1.1014984e-04 9.7559452e-05 
-3.3928107e-05 -2.3295432e-04 1.1968115e-04 
-6.7078501e-05 -3.3268781e-04 1.5744744e-04 
-5.8595124e-05 -4.0127800e-04 2.2106236e-04 
-1.2411660e-04 -5.0531578e-04 1.9183688e-04 
-1.8797681e-04 -7.6877966e-04 2.9628674e-04 
-2.6465231e-04 -1.2917438e-03 2.4526165e-04 
-2.6794081e-04 -2.0917968e-03 2.9983095e-04 
-3.6504626e-04 -3.1009661e-03 2.3055165e-04 
-3.4595819e-04 -4.2517190e-03 2.8125092e-04 
-5.3271977e-04 -5.3101974e-03 -1.5768441e-05 
-5.1048596e-04 -5.8174361e-03 -1.0845580e-04 
-4.9070152e-04 -5.4262751e-03 -1.5482107e-04 
-3.8214886e-04 -4.9499949e-03 -3.3370615e-04 
-3.3343476e-04 -4.7832960e-03 -2.8209903e-04 
-2.7328962e-04 -4.8314589e-03 -2.4444595e-04 
-2.9134843e-04 -4.4387798e-03 -2.3483568e-04 
-1.9619109e-04 -3.2131802e-03 -3.7630339e-04 
-1.4078993e-04 -1.8046708e-03 -2.8921277e-04 
-3.9094917e-05 -7.2942412e-04 -3.2589468e-04 
1.8815792e-05 -6.2315477e-05 -1.4771993e-04 
3.7395763e-05 2.6313675e-04 -5.7247540e-05 
3.2689844e-05 3.5226982e-04 3.8407536e-05 
1.0213395e-05 2.8940797e-04 5.3795862e-05 
-3.7176690e-07 1.6505159e-04 4.2859156e-05 
-2.8168031e-06 5.9950336e-05 3.9296865e-05 
-3.3350789e-06 4.4433273e-06 -1.7434595e-06 
3.7662755e-06 -1.4005108e-05 7.8325120e-06 
1.0547228e-06 -2.4072035e-05 -4.5594252e-06 
1.0348589e-06 -3.8875864e-05 -1.5011765e-05 
4.7210883e-06 -4.6922010e-05 6.9483581e-06 
-1.6204201e-06 -3.2205066e-05 -1.7733037e-05 
1.9755068e-06 4.7374638e-06 -1.0879207e-05 
6.0291472e-06 4.6164569e-05 -2.5724960e-06 
-1.2962578e-06 6.8312816e-05 -1.8246077e-05 
-4.0669793e-06 5.6833505e-05 -8.8662109e-06 
3.9293482e-06 1.8212992e-05 8.1640956e-06 
7.5777375e-06 -2.1592265e-05 3.0486541e-05 
1.0134732e-05 -3.8555816e-05 7.8305842e-05 
1.5755439e-05 -4.7078258e-05 1.0971772e-04 
-3.5069097e-05 -9.3941817e-05 1.0402145e-04 
-5.4101147e-05 -2.0217893e-04 1.1321990e-04 
-9.5065938e-05 -3.5182416e-04 1.3809159e-04 
-8.2249870e-05 -5.0045596e-04 2.6032716e-04 
-9.4625684e-05 -6.4284913e-04 2.3575807e-04 
-1.5861793e-04 -8.6821051e-04 2.8771360e-04 
-1.7907826e-04 -1.3383146e-03 2.5087039e-04 
-2.5233749e-04 -2.1845254e-03 2.5972771e-04 
-3.6607101e-04 -3.3485247e-03 1.8224778e-04 
-4.1520156e-04 -4.6377820e-03 2.4624681e-04 
-5.4057653e-04 -5.5879364e-03 -4.1337240e-05 
-5.0728518e-04 -5.7340893e-03 -1.2746773e-04 
-4.7721859e-04 -5.2372389e-03 -1.8009970e-04 
-4.1396808e-04 -4.9093734e-03 -3.8296345e-04 
-4.0133536e-04 -4.9308753e-03 -3.4262286e-04 
-3.6068042e-04 -4.9736141e-03 -3.3659965e-04 
-3.3100168e-04 -4.3042046e-03 -2.6885344e-04 
-2.4081305e-04 -2.9959127e-03 -4.4376391e-04 
-1.3955084e-04 -1.6407699e-03 -3.0106629e-04 
-3.2694024e-05 -6.2075863e-04 -3.2077814e-04 
2.1366661e-05 1.5349924e-05 -1.4152250e-04 
3.0790765e-05 3.0162808e-04 -4.3866137e-05 
3.2347034e-05 3.4363155e-04 5.6808723e-05 
8.5521215e-06 2.5912159e-04 6.8315596e-05 
3.5682813e-06 1.5042399e-04 4.1253006e-05 
7.0394817e-06 7.4156393e-05 3.6310084e-05 
3.0090956e-08 2.4731820e-05 -3.2140056e-07 
-3.0307783e-06 -1.4811629e-05 -2.4012784e-06 
-3.3181868e-06 -4.3247335e-05 -5.8568471e-06 
-2.9177181e-06 -4.7528007e-05 -1.5319685e-05 
1.3263538e-06 -2.7387579e-05 5.7601090e-07 
-2.6784210e-07 6.5809098e-07 5.3109616e-06 
1.1497332e-06 1.7796525e-05 7.4275022e-07 
5.7815769e-06 1.9097137e-05 1.5847937e-06 
2.5016066e-06 1.1302586e-05 5.2572898e-07 
-7.1314702e-07 9.2674821e-07 -8.6164761e-07 
-1.8894552e-07 -7.6806591e-06 1.1981632e-06 
-8.2324277e-07 -1.0608393e-05 -2.1975379e-06 
-1.4679949e-07 -6.6595489e-06 1.4606410e-07 
7.3315442e-07 2.1731566e-06 1.3322157e-06 
2.0333349e-07 8.9267432e-06 -7.6758408e-07 
-4.3697053e-08 7.4318068e-06 3.9608526e-07 
-2.3668438e-08 3.3915384e-07 3.8368637e-07 
-2.0306511e-07 -5.1573516e-06 -7.2937513e-07 
-5.3302255e-08 -5.3260565e-06 1.7928565e-07 
5.2407156e-08 -1.4301690e-06 1.2688257e-07 
-9.3215192e-08 2.3960720e-06 -3.4958984e-07 
5.8040332e-08 3.2548921e-06 1.9313771e-07 
1.1488666e-07 1.6551977e-06 1.3014883e-07 
-6.5283054e-08 -6.1517090e-07 -1.5366813e-07 
-9.8969949e-08 -2.0445448e-06 1.7073662e-08 
2.5723375e-08 -1.6061098e-06 3.0658619e-08 
-4.8845969e-08 2.8714268e-07 -2.7243022e-08 
3.1282654e-09 1.8354737e-06 3.5648029e-08 
3.3455848e-08 1.4942274e-06 -1.1754044e-08 
-3.4078656e-08 -3.4678962e-07 2.0599336e-08 
0.0000000e+00 -1.0150113e-05 0.0000000e+00 
0.0000000e+00 5.0086705e-06 0.0000000e+00 
0.0000000e+00 2.0275178e-05 0.0000000e+00 
0.0000000e+00 -1.3511613e-05 0.0000000e+00 
0.0000000e+00 -1.1037927e-04 0.0000000e+00 
0.0000000e+00 -2.3217792e-04 0.0000000e+00 
0.0000000e+00 -3.3055843e-04 0.0000000e+00 
0.0000000e+00 -3.9867382e-04 0.0000000e+00 
0.0000000e+00 -5.0526299e-04 0.0000000e+00 
0.0000000e+00 -7.7183434e-04 0.0000000e+00 
0.0000000e+00 -1.2958330e-03 0.0000000e+00 
0.0000000e+00 -2.0930062e-03 0.0000000e+00 
0.0000000e+00 -3.1077985e-03 0.0000000e+00 
0.0000000e+00 -4.2637112e-03 0.0000000e+00 
0.0000000e+00 -5.3395424e-03 0.0000000e+00 
0.0000000e+00 -5.8440007e-03 0.0000000e+00 
0.0000000e+00 -5.4588583e-03 0.0000000e+00 
0.0000000e+00 -4.9670977e-03 0.0000000e+00 
0.0000000e+00 -4.8073307e-03 0.0000000e+00 
0.0000000e+00 -4.8543299e-03 0.0000000e+00 
0.0000000e+00 -4.4692019e-03 0.0000000e+00 
0.0000000e+00 -3.2336935e-03 0.0000000e+00 
0.0000000e+00 -1.8195307e-03 0.0000000e+00 
0.0000000e+00 -7.3309400e-04 0.0000000e+00 
0.0000000e+00 -6.3184467e-05 0.0000000e+00 
0.0000000e+00 2.6409875e-04 0.0000000e+00 
0.0000000e+00 3.5233688e-04 0.0000000e+00 
0.0000000e+00 2.9000442e-04 0.0000000e+00 
0.0000000e+00 1.6694705e-04 0.0000000e+00 
0.0000000e+00 6.1182196e-05 0.0000000e+00 
0.0000000e+00 4.7051317e-06 0.0000000e+00 
0.0000000e+00 -1.4386290e-05 0.0000000e+00 
0.0000000e+00 -2.4563013e-05 0.0000000e+00 
0.0000000e+00 -3.9014780e-05 0.0000000e+00 
0.0000000e+00 -4.6641992e-05 0.0000000e+00 
0.0000000e+00 -3.2018375e-05 0.0000000e+00 
0.0000000e+00 4.8309148e-06 0.0000000e+00 
0.0000000e+00 4.6280838e-05 0.0000000e+00 
0.0000000e+00 6.8081164e-05 0.0000000e+00 
0.0000000e+00 5.5988196e-05 0.0000000e+00 
0.0000000e+00 1.7759254e-05 0.0000000e+00 
0.0000000e+00 -2.0397152e-05 0.0000000e+00 
0.0000000e+00 -3.7108446e-05 0.0000000e+00 
0.0000000e+00 -4.7347246e-05 0.0000000e+00 
0.0000000e+00 -9.5138392e-05 0.0000000e+00 
0.0000000e+00 -2.0357837e-04 0.0000000e+00 
0.0000000e+00 -3.5160306e-04 0.0000000e+00 
0.0000000e+00 -4.9749023e-04 0.0000000e+00 
0.0000000e+00 -6.3958124e-04 0.0000000e+00 
0.0000000e+00 -8.6824637e-04 0.0000000e+00 
0.0000000e+00 -1.3449352e-03 0.0000000e+00 
0.0000000e+00 -2.1908816e-03 0.0000000e+00 
0.0000000e+00 -3.3607937e-03 0.0000000e+00 
0.0000000e+00 -4.6482817e-03 0.0000000e+00 
0.0000000e+00 -5.6155249e-03 0.0000000e+00 
0.0000000e+00 -5.7607945e-03 0.0000000e+00 
0.0000000e+00 -5.2704806e-03 0.0000000e+00 
0.0000000e+00 -4.9274238e-03 0.0000000e+00 
0.0000000e+00 -4.9565788e-03 0.0000000e+00 
0.0000000e+00 -4.9942732e-03 0.0000000e+00 
0.0000000e+00 -4.3360209e-03 0.0000000e+00 
0.0000000e+00 -3.0122628e-03 0.0000000e+00 
0.0000000e+00 -1.6514736e-03 0.0000000e+00 
0.0000000e+00 -6.2306225e-04 0.0000000e+00 
0.0000000e+00 1.2680073e-05 0.0000000e+00 
0.0000000e+00 3.0157639e-04 0.0000000e+00 
0.0000000e+00 3.4498656e-04 0.0000000e+00 
0.0000000e+00 2.6096875e-04 0.0000000e+00 
0.0000000e+00 1.5233330e-04 0.0000000e+00 
0.0000000e+00 7.4203825e-05 0.0000000e+00 
0.0000000e+00 2.4091485e-05 0.0000000e+00 
0.0000000e+00 -1.4935279e-05 0.0000000e+00 
0.0000000e+00 -4.2598866e-05 0.0000000e+00 
0.0000000e+00 -4.7108042e-05 0.0000000e+00 
0.0000000e+00 -2.7588387e-05 0.0000000e+00 
0.0000000e+00 1.1884687e-07 0.0000000e+00 
0.0000000e+00 1.7510611e-05 0.0000000e+00 
0.0000000e+00 1.9212508e-05 0.0000000e+00 
0.0000000e+00 1.1370026e-05 0.0000000e+00 
0.0000000e+00 9.2538028e-07 0.0000000e+00 
0.0000000e+00 -7.5313537e-06 0.0000000e+00 
0.0000000e+00 -1.0484660e-05 0.0000000e+00 
0.0000000e+00 -6.5587756e-06 0.0000000e+00 
0.0000000e+00 2.0757120e-06 0.0000000e+00 
0.0000000e+00 8.6085283e-06 0.0000000e+00 
0.0000000e+00 7.3440565e-06 0.0000000e+00 
0.0000000e+00 5.4227996e-07 0.0000000e+00 
0.0000000e+00 -4.9906489e-06 0.0000000e+00 
0.0000000e+00 -5.2865644e-06 0.0000000e+00 
0.0000000e+00 -1.5078542e-06 0.0000000e+00 
0.0000000e+00 2.2754823e-06 0.0000000e+00 
0.0000000e+00 3.2306341e-06 0.0000000e+00 
0.0000000e+00 1.6932310e-06 0.0000000e+00 
0.0000000e+00 -5.8355232e-07 0.0000000e+00 
0.0000000e+00 -2.0032248e-06 0.0000000e+00 
0.0000000e+00 -1.5875808e-06 0.0000000e+00 
0.0000000e+00 2.5944490e-07 0.0000000e+00 
0.0000000e+00 1.7898060e-06 0.0000000e+00 
0.0000000e+00 1.4671184e-06 0.0000000e+00 
0.0000000e+00 -3.3155010e-07 0.0000000e+00 
0.0000000e+00 -1.4319922e-06 0.0000000e+00 
-1.5911197e-04 -6.9536158e-04 4.1065770e-04 
-3.3346318e-05 -5.8368965e-05 2.0166668e-05 
-5.8771198e-05 -1.9772963e-04 5.1154993e-06 
-3.5595251e-05 -8.4708008e-05 -8.2847773e-06 
0.0000000e+00 -1.1016650e-03 0.0000000e+00 
0.0000000e+00 0.0000000e+00 0.0000000e+00 
0.0000000e+00 0.0000000e+00 0.0000000e+00 
0.0000000e+00 0.0000000e+00 0.0000000e+00 
0.0000000e+00 0.0000000e+00 0.0000000e+00 
0.0000000e+00 0.0000000e+00 0.0000000e+00 
0.0000000e+00 0.0000000e+00 0.0000000e+00 
0.0000000e+00 0.0000000e+00 0.0000000e+00 
0.0000000e+00 0.0000000e+00 0.0000000e+00 
0.0000000e+00 0.0000000e+00 0.0000000e+00 
0.0000000e+00 0.0000000e+00 0.0000000e+00 
0.0000000e+00 0.0000000e+00 0.0000000e+00 
0.0000000e+00 0.0000000e+00 0.0000000e+00 
0.0000000e+00 0.0000000e+00 0.0000000e+00 
0.0000000e+00 0.0000000e+00 0.0000000e+00 
0.0000000e+00 0.0000000e+00 0.0000000e+00 
0.0000000e+00 0.0000000e+00 0.0000000e+00 
0.0000000e+00 0.0000000e+00 0.0000000e+00 
0.0000000e+00 0.0000000e+00 0.0000000e+00 
0.0000000e+00 0.0000000e+00 0.0000000e+00 
0.0000000e+00 0.0000000e+00 0.0000000e+00 
0.0000000e+00 0.0000000e+00 0.0000000e+00 
0.0000000e+00 0.0000000e+00 0.0000000e+00 
0.0000000e+00 0.0000000e+00 0.0000000e+00 
0.0000000e+00 0.0000000e+00 0.0000000e+00 
0.0000000e+00 0.0000000e+00 0.0000000e+00 
0.0000000e+00 0.0000000e+00 0.0000000e+00 
0.0000000e+00 0.0000000e+00 0.0000000e+00 
0.0000000e+00 0.0000000e+00 0.0000000e+00 
0.0000000e+00 0.0000000e+00 0.0000000e+00 
0.0000000e+00 0.0000000e+00 0.0000000e+00 
0.0000000e+00 0.0000000e+00 0.0000000e+00 
0.0000000e+00 0.0000000e+00 0.0000000e+00 
0.0000000e+00 0.0000000e+00 0.0000000e+00 
0.0000000e+00 0.0000000e+00 0.0000000e+00 
0.0000000e+00 0.0000000e+00 0.0000000e+00 
0.0000000e+00 0.0000000e+00 0.0000000e+00 
0.0000000e+00 0.0000000e+00 0.0000000e+00 
0.0000000e+00 0.0000000e+00 0.0000000e+00 
0.0000000e+00 0.0000000e+00 0.0000000e+00 
0.0000000e+00 0.0000000e+00 0.0000000e+00 
0.0000000e+00 0.0000000e+00 0.0000000e+00 
0.0000000e+00 0.0000000e+00 0.0000000e+00 
0.0000000e+00 0.0000000e+00 0.0000000e+00 
0.0000000e+00 0.0000000e+00 0.0000000e+00 
0.0000000e+00 0.0000000e+00 0.0000000e+00 
0.0000000e+00 0.0000000e+00 0.0000000e+00 
0.0000000e+00 0.0000000e+00 0.0000000e+00 
0.0000000e+00 0.0000000e+00 0.0000000e+00 
0.0000000e+00 0.0000000e+00 0.0000000e+00 
0.0000000e+00 0.0000000e+00 0.0000000e+00 
0.0000000e+00 0.0000000e+00 0.0000000e+00 
0.0000000e+00 0.0000000e+00 0.0000000e+00 
0.0000000e+00 0.0000000e+00 0.0000000e+00 
0.0000000e+00 0.0000000e+00 0.0000000e+00 
0.0000000e+00 0.0000000e+00 0.0000000e+00 
0.0000000e+00 0.0000000e+00 0.0000000e+00 
0.0000000e+00 0.0000000e+00 0.0000000e+00 
0.0000000e+00 0.0000000e+00 0.0000000e+00 
0.0000000e+00 0.0000000e+00 0.0000000e+00 
0.0000000e+00 0.0000000e+00 0.0000000e+00 
0.0000000e+00 0.0000000e+00 0.0000000e+00 
0.0000000e+00 0.0000000e+00 0.0000000e+00 
0.0000000e+00 0.0000000e+00 0.0000000e+00 
0.0000000e+00 0.0000000e+00 0.0000000e+00 
0.0000000e+00 0.0000000e+00 0.0000000e+00 
0.0000000e+00 0.0000000e+00 0.0000000e+00 
0.0000000e+00 0.0000000e+00 0.0000000e+00 
0.0000000e+00 0.0000000e+00 0.0000000e+00 
0.0000000e+00 0.0000000e+00 0.0000000e+00 
0.0000000e+00 0.0000000e+00 0.0000000e+00 
0.0000000e+00 0.0000000e+00 0.0000000e+00 
0.0000000e+00 0.0000000e+00 0.0000000e+00 
0.0000000e+00 0.0000000e+00 0.0000000e+00 
0.0000000e+00 0.0000000e+00 0.0000000e+00 
0.0000000e+00 0.0000000e+00 0.0000000e+00 
0.0000000e+00 0.0000000e+00 0.0000000e+00 
0.0000000e+00 0.0000000e+00 0.0000000e+00 
0.0000000e+00 0.0000000e+00 0.0000000e+00 
0.0000000e+00 0.0000000e+00 0.0000000e+00 
0.0000000e+00 0.0000000e+00 0.0000000e+00 
0.0000000e+00 0.0000000e+00 0.0000000e+00 
0.0000000e+00 0.0000000e+00 0.0000000e+00 
0.0000000e+00 0.0000000e+00 0.0000000e+00 
0.0000000e+00 0.0000000e+00 0.0000000e+00 
0.0000000e+00 0.0000000e+00 0.0000000e+00 
0.0000000e+00 0.0000000e+00 0.0000000e+00 
0.0000000e+00 0.0000000e+00 0.0000000e+00 
0.0000000e+00 0.0000000e+00 0.0000000e+00 
0.0000000e+00 0.0000000e+00 0.0000000e+00 
0.0000000e+00 0.0000000e+00 0.0000000e+00 
0.0000000e+00 0.0000000e+00 0.0000000e+00 
0.0000000e+00 0.0000000e+00 0.0000000e+00 
0.0000000e+00 0.0000000e+00 0.0000000e+00 
0.0000000e+00 0.0000000e+00 0.0000000e+00 
0.0000000e+00 0.0000000e+00 0.0000000e+00 
0.0000000e+00 0.0000000e+00 0.0000000e+00 
0.0000000e+00 0.0000000e+00 0.0000000e+00 
0.0000000e+00 0.0000000e+00 0.0000000e+00 
0.0000000e+00 0.0000000e+00 0.0000000e+00 
0.0000000e+00 0.0000000e+00 0.0000000e+00 
0.0000000e+00 0.0000000e+00 0.0000000e+00 
0.0000000e+00 0.0000000e+00 0.0000000e+00 
0.0000000e+00 0.0000000e+00 0.0000000e+00 
0.0000000e+00 0.0000000e+00 0.0000000e+00 
0.0000000e+00 0.0000000e+00 0.0000000e+00 
0.0000000e+00 0.0000000e+00 0.0000000e+00 
2.6373216e-05 7.3816782e-06 -2.9111347e-05 
3.6220292e-05 4.3063164e-06 -4.2488326e-05 
4.5689812e-05 -1.6173278e-06 -5.4923232e-05 
5.3481279e-05 -1.7079114e-05 -5.5373705e-05 
5.9747199e-05 -3.8005488e-05 -4.6315479e-05 
6.9136287e-05 -5.2022631e-05 -2.6534794e-05 
7.6501543e-05 -6.8289177e-05 -3.1271220e-06 
9.0950183e-05 -4.2893713e-05 2.5338177e-05 
9.4408228e-05 -1.6278318e-05 5.4739274e-05 
8.4423009e-05 9.2871528e-07 7.2046700e-05 
6.3052947e-05 -3.7743293e-06 5.8819060e-05 
3.3784967e-05 1.4833563e-05 4.1899526e-05 
5.7804759e-06 -1.0325120e-05 1.6092908e-05 
4.5770998e-06 -2.1361240e-05 -5.2999314e-07 
3.3863673e-06 7.9340234e-06 -2.0522480e-06 
-3.0690176e-06 4.6651789e-06 -4.2565275e-06 
5.5299290e-07 1.0314818e-05 4.8328761e-06 
2.2490874e-06 -1.2752231e-05 5.0403241e-06 
6.1501273e-06 -5.8610053e-06 -9.3552690e-06 
1.5267015e-05 1.3276368e-05 -2.1840615e-05 
2.9201514e-05 1.5461252e-06 -3.4646910e-05 
3.2087428e-05 -6.3206053e-06 -4.9258055e-05 
3.6563368e-05 -1.7030661e-05 -5.4701497e-05 
5.2700590e-05 -4.7992246e-05 -5.2979703e-05 
3.7760015e-05 -7.5610507e-05 -3.7997004e-05 
4.7887363e-05 -9.3247254e-05 -2.1906693e-05 
9.0822345e-05 -5.4438991e-05 4.9103301e-06 
9.7369310e-05 -1.6701813e-05 3.7997241e-05 
9.2372895e-05 1.3382832e-05 6.1347993e-05 
7.4246040e-05 -1.2531871e-05 6.0472627e-05 
5.3999178e-05 4.9912919e-06 5.3952481e-05 
2.9707087e-05 1.4806310e-05 4.1109906e-05 
1.6524806e-05 -1.6612652e-05 1.7981578e-05 
5.5568703e-06 -1.4238501e-05 2.1850738e-06 
1.2866049e-07 9.1387510e-06 -1.6786805e-06 
-3.3025199e-06 7.0724109e-06 -1.6810852e-06 
1.0521127e-06 -6.5051804e-06 1.1668391e-06 
7.2949058e-07 -7.8404128e-08 -2.3414881e-07 
-5.8240790e-08 1.1811881e-06 -3.5547620e-07 
-7.7091023e-08 -7.6859982e-07 6.4019467e-08 
5.0845390e-08 -1.3789619e-07 -3.3122337e-08 
-1.1150534e-07 3.3215812e-07 -4.0821257e-09 
-1.6153942e-08 -6.7887221e-08 6.0842003e-09 
2.2105667e-08 -7.3852668e-08 -1.2081204e-08 
-1.3754445e-08 5.6396097e-08 6.8353625e-09 
-5.0876445e-09 -1.1462115e-09 1.2378130e-08 
3.9215480e-09 -3.8834873e-09 7.1240862e-09 
-6.1719613e-10 1.1484870e-09 -2.8847191e-09 
-4.9660476e-10 -1.6019466e-09 -4.2781079e-10 
0.0000000e+00 -3.7011571e-06 0.0000000e+00 
0.0000000e+00 -1.4470138e-05 0.0000000e+00 
0.0000000e+00 2.7616668e-05 0.0000000e+00 
0.0000000e+00 3.5598085e-05 0.0000000e+00 
0.0000000e+00 -4.2741212e-05 0.0000000e+00 
0.0000000e+00 -1.4247948e-04 0.0000000e+00 
0.0000000e+00 -3.6844783e-04 0.0000000e+00 
0.0000000e+00 -5.0828990e-04 0.0000000e+00 
0.0000000e+00 -4.9632334e-04 0.0000000e+00 
0.0000000e+00 -4.3647713e-04 0.0000000e+00 
0.0000000e+00 -2.6723830e-04 0.0000000e+00 
0.0000000e+00 -1.0078062e-04 0.0000000e+00 
0.0000000e+00 -1.2044451e-05 0.0000000e+00 
0.0000000e+00 3.3588454e-05 0.0000000e+00 
0.0000000e+00 2.0827052e-05 0.0000000e+00 
0.0000000e+00 4.4143180e-06 0.0000000e+00 
0.0000000e+00 -8.4019830e-06 0.0000000e+00 
0.0000000e+00 1.8558796e-05 0.0000000e+00 
0.0000000e+00 -2.3256555e-06 0.0000000e+00 
0.0000000e+00 -1.2581033e-05 0.0000000e+00 
0.0000000e+00 -1.7915971e-05 0.0000000e+00 
0.0000000e+00 -1.3061009e-05 0.0000000e+00 
0.0000000e+00 6.2363597e-06 0.0000000e+00 
0.0000000e+00 6.8315821e-05 0.0000000e+00 
0.0000000e+00 -6.9438734e-05 0.0000000e+00 
0.0000000e+00 -2.1729528e-04 0.0000000e+00 
0.0000000e+00 -3.4770663e-04 0.0000000e+00 
0.0000000e+00 -5.0717330e-04 0.0000000e+00 
0.0000000e+00 -4.9955014e-04 0.0000000e+00 
0.0000000e+00 -3.9874899e-04 0.0000000e+00 
0.0000000e+00 -2.3938858e-04 0.0000000e+00 
0.0000000e+00 -6.1640254e-05 0.0000000e+00 
0.0000000e+00 4.0504265e-06 0.0000000e+00 
0.0000000e+00 2.2201115e-05 0.0000000e+00 
0.0000000e+00 2.3661723e-05 0.0000000e+00 
0.0000000e+00 2.0098437e-06 0.0000000e+00 
0.0000000e+00 -1.0170541e-05 0.0000000e+00 
0.0000000e+00 -2.2272729e-06 0.0000000e+00 
0.0000000e+00 3.3689560e-06 0.0000000e+00 
0.0000000e+00 3.6593603e-06 0.0000000e+00 
0.0000000e+00 -6.6328914e-07 0.0000000e+00 
0.0000000e+00 -2.0252241e-06 0.0000000e+00 
0.0000000e+00 2.2001084e-06 0.0000000e+00 
0.0000000e+00 -2.4734803e-07 0.0000000e+00 
0.0000000e+00 -8.3198864e-07 0.0000000e+00 
0.0000000e+00 3.1771472e-07 0.0000000e+00 
0.0000000e+00 2.8518886e-07 0.0000000e+00 
0.0000000e+00 -1.1330157e-07 0.0000000e+00 
0.0000000e+00 1.2849983e-07 0.0000000e+00 
2.4434754e-05 7.7912700e-06 -2.7161785e-05 
1.8310076e-05 1.0557951e-05 -3.0939034e-05 
1.1250215e-05 -4.1737130e-06 -2.7463837e-05 
8.1356047e-06 -4.8577322e-06 -1.0028684e-05 
-7.8084017e-10 -3.6451506e-09 -1.4876912e-09 
2.2324300e-09 9.9649524e-09 5.1254303e-09 
-4.8457873e-09 -1.2993149e-08 -7.3808977e-09 
8.2546059e-09 5.0287619e-09 3.1614106e-10 
1.9371788e-05 1.2757592e-05 -2.0934454e-05 
1.2372903e-09 -3.5178644e-09 1.4343513e-09 
6.5061954e-06 -5.8953715e-06 8.7138542e-06 
2.5584161e-06 1.3154743e-05 1.4667798e-05 
0.0000000e+00 -6.5508662e-05 0.0000000e+00 
0.0000000e+00 -3.5959089e-05 0.0000000e+00 
0.0000000e+00 2.5065630e-05 0.0000000e+00 
0.0000000e+00 -3.4465746e-05 0.0000000e+00 
0.0000000e+00 -2.1041355e-04 0.0000000e+00 
0.0000000e+00 -4.6645125e-04 0.0000000e+00 
0.0000000e+00 -9.2907489e-04 0.0000000e+00 
0.0000000e+00 -1.0912202e-03 0.0000000e+00 
0.0000000e+00 -1.0419296e-03 0.0000000e+00 
0.0000000e+00 -8.9805480e-04 0.0000000e+00 
0.0000000e+00 -4.8289739e-04 0.0000000e+00 
0.0000000e+00 -1.1274469e-04 0.0000000e+00 
0.0000000e+00 3.5106492e-05 0.0000000e+00 