# vtk DataFile Version 4.0
vtk output
ASCII
DATASET UNSTRUCTURED_GRID
POINTS 1919 float
0.0000000e+00 0.0000000e+00 0.0000000e+00 
0.0000000e+00 0.0000000e+00 5.0000000e+01 
5.0000000e+00 0.0000000e+00 0.0000000e+00 
5.0000000e+00 0.0000000e+00 5.0000000e+01 
5.0000000e+00 1.0000000e+00 0.0000000e+00 
5.0000000e+00 1.0000000e+00 5.0000000e+01 
0.0000000e+00 1.0000000e+00 0.0000000e+00 
0.0000000e+00 1.0000000e+00 5.0000000e+01 
5.0000000e+00 2.0000000e+00 0.0000000e+00 
5.0000000e+00 2.0000000e+00 5.0000000e+01 
3.0000000e+00 2.0000000e+00 0.0000000e+00 
3.0000000e+00 2.0000000e+00 5.0000000e+01 
0.0000000e+00 2.0000000e+00 0.0000000e+00 
0.0000000e+00 2.0000000e+00 5.0000000e+01 
1.5000000e+00 3.0000000e+00 0.0000000e+00 
1.5000000e+00 3.0000000e+00 5.0000000e+01 
7.5000000e-01 3.0000000e+00 0.0000000e+00 
7.5000000e-01 3.0000000e+00 5.0000000e+01 
0.0000000e+00 3.0000000e+00 0.0000000e+00 
0.0000000e+00 3.0000000e+00 5.0000000e+01 
7.5000000e-01 3.0000000e+00 5.0000000e-01 
7.5000000e-01 3.0000000e+00 1.0000000e+00 
7.5000000e-01 3.0000000e+00 1.5000000e+00 
7.5000000e-01 3.0000000e+00 2.0000000e+00 
7.5000000e-01 3.0000000e+00 2.5000000e+00 
7.5000000e-01 3.0000000e+00 3.0000000e+00 
7.5000000e-01 3.0000000e+00 3.5000000e+00 
7.5000000e-01 3.0000000e+00 4.0000000e+00 
7.5000000e-01 3.0000000e+00 4.5000000e+00 
7.5000000e-01 3.0000000e+00 5.0000000e+00 
7.5000000e-01 3.0000000e+00 5.5000000e+00 
7.5000000e-01 3.0000000e+00 6.0000000e+00 
7.5000000e-01 3.0000000e+00 6.5000000e+00 
7.5000000e-01 3.0000000e+00 7.0000000e+00 
7.5000000e-01 3.0000000e+00 7.5000000e+00 
7.5000000e-01 3.0000000e+00 8.0000000e+00 
7.5000000e-01 3.0000000e+00 8.5000000e+00 
7.5000000e-01 3.0000000e+00 9.0000000e+00 
7.5000000e-01 3.0000000e+00 9.5000000e+00 
7.5000000e-01 3.0000000e+00 1.0000000e+01 
7.5000000e-01 3.0000000e+00 1.0500000e+01 
7.5000000e-01 3.0000000e+00 1.1000000e+01 
7.5000000e-01 3.0000000e+00 1.1500000e+01 
7.5000000e-01 3.0000000e+00 1.2000000e+01 
7.5000000e-01 3.0000000e+00 1.2500000e+01 
7.5000000e-01 3.0000000e+00 1.3000000e+01 
7.5000000e-01 3.0000000e+00 1.3500000e+01 
7.5000000e-01 3.0000000e+00 1.4000000e+01 
7.5000000e-01 3.0000000e+00 1.4500000e+01 
7.5000000e-01 3.0000000e+00 1.5000000e+01 
7.5000000e-01 3.0000000e+00 1.5500000e+01 
7.5000000e-01 3.0000000e+00 1.6000000e+01 
7.5000000e-01 3.0000000e+00 1.6500000e+01 
7.5000000e-01 3.0000000e+00 1.7000000e+01 
7.5000000e-01 3.0000000e+00 1.7500000e+01 
7.5000000e-01 3.0000000e+00 1.8000000e+01 
7.5000000e-01 3.0000000e+00 1.8500000e+01 
7.5000000e-01 3.0000000e+00 1.9000000e+01 
7.5000000e-01 3.0000000e+00 1.9500000e+01 
7.5000000e-01 3.0000000e+00 2.0000000e+01 
7.5000000e-01 3.0000000e+00 2.0500000e+01 
7.5000000e-01 3.0000000e+00 2.1000000e+01 
7.5000000e-01 3.0000000e+00 2.1500000e+01 
7.5000000e-01 3.0000000e+00 2.2000000e+01 
7.5000000e-01 3.0000000e+00 2.2500000e+01 
7.5000000e-01 3.0000000e+00 2.3000000e+01 
7.5000000e-01 3.0000000e+00 2.3500000e+01 
7.5000000e-01 3.0000000e+00 2.4000000e+01 
7.5000000e-01 3.0000000e+00 2.4500000e+01 
7.5000000e-01 3.0000000e+00 2.5000000e+01 
7.5000000e-01 3.0000000e+00 2.5500000e+01 
7.5000000e-01 3.0000000e+00 2.6000000e+01 
7.5000000e-01 3.0000000e+00 2.6500000e+01 
7.5000000e-01 3.0000000e+00 2.7000000e+01 
7.5000000e-01 3.0000000e+00 2.7500000e+01 
7.5000000e-01 3.0000000e+00 2.8000000e+01 
7.5000000e-01 3.0000000e+00 2.8500000e+01 
7.5000000e-01 3.0000000e+00 2.9000000e+01 
7.5000000e-01 3.0000000e+00 2.9500000e+01 
7.5000000e-01 3.0000000e+00 3.0000000e+01 
7.5000000e-01 3.0000000e+00 3.0500000e+01 
7.5000000e-01 3.0000000e+00 3.1000000e+01 
7.5000000e-01 3.0000000e+00 3.1500000e+01 
7.5000000e-01 3.0000000e+00 3.2000000e+01 
7.5000000e-01 3.0000000e+00 3.2500000e+01 
7.5000000e-01 3.0000000e+00 3.3000000e+01 
7.5000000e-01 3.0000000e+00 3.3500000e+01 
7.5000000e-01 3.0000000e+00 3.4000000e+01 
7.5000000e-01 3.0000000e+00 3.4500000e+01 
7.5000000e-01 3.0000000e+00 3.5000000e+01 
7.5000000e-01 3.0000000e+00 3.5500000e+01 
7.5000000e-01 3.0000000e+00 3.6000000e+01 
7.5000000e-01 3.0000000e+00 3.6500000e+01 
7.5000000e-01 3.0000000e+00 3.7000000e+01 
7.5000000e-01 3.0000000e+00 3.7500000e+01 
7.5000000e-01 3.0000000e+00 3.8000000e+01 
7.5000000e-01 3.0000000e+00 3.8500000e+01 
7.5000000e-01 3.0000000e+00 3.9000000e+01 
7.5000000e-01 3.0000000e+00 3.9500000e+01 
7.5000000e-01 3.0000000e+00 4.0000000e+01 
7.5000000e-01 3.0000000e+00 4.0500000e+01 
7.5000000e-01 3.0000000e+00 4.1000000e+01 
7.5000000e-01 3.0000000e+00 4.1500000e+01 
7.5000000e-01 3.0000000e+00 4.2000000e+01 
7.5000000e-01 3.0000000e+00 4.2500000e+01 
7.5000000e-01 3.0000000e+00 4.3000000e+01 
7.5000000e-01 3.0000000e+00 4.3500000e+01 
7.5000000e-01 3.0000000e+00 4.4000000e+01 
7.5000000e-01 3.0000000e+00 4.4500000e+01 
7.5000000e-01 3.0000000e+00 4.5000000e+01 
7.5000000e-01 3.0000000e+00 4.5500000e+01 
7.5000000e-01 3.0000000e+00 4.6000000e+01 
7.5000000e-01 3.0000000e+00 4.6500000e+01 
7.5000000e-01 3.0000000e+00 4.7000000e+01 
7.5000000e-01 3.0000000e+00 4.7500000e+01 
7.5000000e-01 3.0000000e+00 4.8000000e+01 
7.5000000e-01 3.0000000e+00 4.8500000e+01 
7.5000000e-01 3.0000000e+00 4.9000000e+01 
7.5000000e-01 3.0000000e+00 4.9500000e+01 
7.5000000e-01 3.0250001e+00 0.0000000e+00 
7.5000000e-01 3.0250001e+00 5.0000000e-01 
7.5000000e-01 3.0250001e+00 1.0000000e+00 
7.5000000e-01 3.0250001e+00 1.5000000e+00 
7.5000000e-01 3.0250001e+00 2.0000000e+00 
7.5000000e-01 3.0250001e+00 2.5000000e+00 
7.5000000e-01 3.0250001e+00 3.0000000e+00 
7.5000000e-01 3.0250001e+00 3.5000000e+00 
7.5000000e-01 3.0250001e+00 4.0000000e+00 
7.5000000e-01 3.0250001e+00 4.5000000e+00 
7.5000000e-01 3.0250001e+00 5.0000000e+00 
7.5000000e-01 3.0250001e+00 5.5000000e+00 
7.5000000e-01 3.0250001e+00 6.0000000e+00 
7.5000000e-01 3.0250001e+00 6.5000000e+00 
7.5000000e-01 3.0250001e+00 7.0000000e+00 
7.5000000e-01 3.0250001e+00 7.5000000e+00 
7.5000000e-01 3.0250001e+00 8.0000000e+00 
7.5000000e-01 3.0250001e+00 8.5000000e+00 
7.5000000e-01 3.0250001e+00 9.0000000e+00 
7.5000000e-01 3.0250001e+00 9.5000000e+00 
7.5000000e-01 3.0250001e+00 1.0000000e+01 
7.5000000e-01 3.0250001e+00 1.0500000e+01 
7.5000000e-01 3.0250001e+00 1.1000000e+01 
7.5000000e-01 3.0250001e+00 1.1500000e+01 
7.5000000e-01 3.0250001e+00 1.2000000e+01 
7.5000000e-01 3.0250001e+00 1.2500000e+01 
7.5000000e-01 3.0250001e+00 1.3000000e+01 
7.5000000e-01 3.0250001e+00 1.3500000e+01 
7.5000000e-01 3.0250001e+00 1.4000000e+01 
7.5000000e-01 3.0250001e+00 1.4500000e+01 
7.5000000e-01 3.0250001e+00 1.5000000e+01 
7.5000000e-01 3.0250001e+00 1.5500000e+01 
7.5000000e-01 3.0250001e+00 1.6000000e+01 
7.5000000e-01 3.0250001e+00 1.6500000e+01 
7.5000000e-01 3.0250001e+00 1.7000000e+01 
7.5000000e-01 3.0250001e+00 1.7500000e+01 
7.5000000e-01 3.0250001e+00 1.8000000e+01 
7.5000000e-01 3.0250001e+00 1.8500000e+01 
7.5000000e-01 3.0250001e+00 1.9000000e+01 
7.5000000e-01 3.0250001e+00 1.9500000e+01 
7.5000000e-01 3.0250001e+00 2.0000000e+01 
7.5000000e-01 3.0250001e+00 2.0500000e+01 
7.5000000e-01 3.0250001e+00 2.1000000e+01 
7.5000000e-01 3.0250001e+00 2.1500000e+01 
7.5000000e-01 3.0250001e+00 2.2000000e+01 
7.5000000e-01 3.0250001e+00 2.2500000e+01 
7.5000000e-01 3.0250001e+00 2.3000000e+01 
7.5000000e-01 3.0250001e+00 2.3500000e+01 
7.5000000e-01 3.0250001e+00 2.4000000e+01 
7.5000000e-01 3.0250001e+00 2.4500000e+01 
7.5000000e-01 3.0250001e+00 2.5000000e+01 
7.5000000e-01 3.0250001e+00 2.5500000e+01 
7.5000000e-01 3.0250001e+00 2.6000000e+01 
7.5000000e-01 3.0250001e+00 2.6500000e+01 
7.5000000e-01 3.0250001e+00 2.7000000e+01 
7.5000000e-01 3.0250001e+00 2.7500000e+01 
7.5000000e-01 3.0250001e+00 2.8000000e+01 
7.5000000e-01 3.0250001e+00 2.8500000e+01 
7.5000000e-01 3.0250001e+00 2.9000000e+01 
7.5000000e-01 3.0250001e+00 2.9500000e+01 
7.5000000e-01 3.0250001e+00 3.0000000e+01 
7.5000000e-01 3.0250001e+00 3.0500000e+01 
7.5000000e-01 3.0250001e+00 3.1000000e+01 
7.5000000e-01 3.0250001e+00 3.1500000e+01 
7.5000000e-01 3.0250001e+00 3.2000000e+01 
7.5000000e-01 3.0250001e+00 3.2500000e+01 
7.5000000e-01 3.0250001e+00 3.3000000e+01 
7.5000000e-01 3.0250001e+00 3.3500000e+01 
7.5000000e-01 3.0250001e+00 3.4000000e+01 
7.5000000e-01 3.0250001e+00 3.4500000e+01 
7.5000000e-01 3.0250001e+00 3.5000000e+01 
7.5000000e-01 3.0250001e+00 3.5500000e+01 
7.5000000e-01 3.0250001e+00 3.6000000e+01 
7.5000000e-01 3.0250001e+00 3.6500000e+01 
7.5000000e-01 3.0250001e+00 3.7000000e+01 
7.5000000e-01 3.0250001e+00 3.7500000e+01 
7.5000000e-01 3.0250001e+00 3.8000000e+01 
7.5000000e-01 3.0250001e+00 3.8500000e+01 
7.5000000e-01 3.0250001e+00 3.9000000e+01 
7.5000000e-01 3.0250001e+00 3.9500000e+01 
7.5000000e-01 3.0250001e+00 4.0000000e+01 
7.5000000e-01 3.0250001e+00 4.0500000e+01 
7.5000000e-01 3.0250001e+00 4.1000000e+01 
7.5000000e-01 3.0250001e+00 4.1500000e+01 
7.5000000e-01 3.0250001e+00 4.2000000e+01 
7.5000000e-01 3.0250001e+00 4.2500000e+01 
7.5000000e-01 3.0250001e+00 4.3000000e+01 
7.5000000e-01 3.0250001e+00 4.3500000e+01 
7.5000000e-01 3.0250001e+00 4.4000000e+01 
7.5000000e-01 3.0250001e+00 4.4500000e+01 
7.5000000e-01 3.0250001e+00 4.5000000e+01 
7.5000000e-01 3.0250001e+00 4.5500000e+01 
7.5000000e-01 3.0250001e+00 4.6000000e+01 
7.5000000e-01 3.0250001e+00 4.6500000e+01 
7.5000000e-01 3.0250001e+00 4.7000000e+01 
7.5000000e-01 3.0250001e+00 4.7500000e+01 
7.5000000e-01 3.0250001e+00 4.8000000e+01 
7.5000000e-01 3.0250001e+00 4.8500000e+01 
7.5000000e-01 3.0250001e+00 4.9000000e+01 
7.5000000e-01 3.0250001e+00 4.9500000e+01 
7.5000000e-01 3.0250001e+00 5.0000000e+01 
1.5000000e+00 3.0000000e+00 2.5000000e+01 
3.0000000e+00 2.0000000e+00 2.5000000e+01 
4.0000000e+00 2.0000000e+00 2.5000000e+01 
5.0000000e+00 2.0000000e+00 2.5000000e+01 
0.0000000e+00 3.0000000e+00 2.5000000e+01 
0.0000000e+00 0.0000000e+00 1.0000000e+00 
0.0000000e+00 0.0000000e+00 2.0000000e+00 
0.0000000e+00 0.0000000e+00 3.0000000e+00 
0.0000000e+00 0.0000000e+00 4.0000000e+00 
0.0000000e+00 0.0000000e+00 5.0000000e+00 
[...]
POINT_DATA 1919
FIELD FieldData 3
DISPLACEMENT 3 1919  float
0.0000000e+00 0.0000000e+00 0.0000000e+00 
0.0000000e+00 0.0000000e+00 0.0000000e+00 
0.0000000e+00 0.0000000e+00 0.0000000e+00 
0.0000000e+00 0.0000000e+00 0.0000000e+00 
7.0714812e-08 7.3651870e-07 -4.0551306e-08 
2.4583594e-15 7.2814806e-15 1.5919705e-15 
0.0000000e+00 -9.1520287e-06 0.0000000e+00 
0.0000000e+00 3.8074571e-14 0.0000000e+00 
-6.2685183e-07 9.0001373e-07 2.8431322e-07 
1.7039303e-15 2.2378222e-17 -7.9850892e-16 
7.9380627e-08 1.0332798e-05 -2.0381210e-06 
-3.8154684e-16 5.6115665e-14 -3.8094921e-15 
0.0000000e+00 -3.2675143e-05 0.0000000e+00 
0.0000000e+00 -4.7794212e-13 0.0000000e+00 
2.1637296e-05 -6.2997911e-05 -2.2491709e-05 
1.2509232e-14 -1.7495617e-13 9.3733445e-15 
-3.9849002e-07 6.5547065e-05 2.9979799e-06 
-3.8843202e-16 1.2148180e-12 -5.6804086e-14 
0.0000000e+00 -1.1898447e-04 0.0000000e+00 
0.0000000e+00 -1.7000705e-12 0.0000000e+00 
2.3719415e-06 9.4987328e-05 -9.4396737e-06 
-8.2487641e-06 1.4520971e-04 -2.9849834e-06 
-6.9121384e-06 1.4635538e-04 -6.3690260e-07 
6.5095583e-06 7.0831142e-05 -1.0810520e-05 
1.1412045e-05 -5.6611429e-05 8.6821910e-06 
-5.8959872e-06 -2.3217173e-04 3.2918462e-05 
-2.5999519e-05 -5.1042123e-04 6.1133200e-05 
-8.8820052e-05 -9.7557326e-04 6.5056141e-05 
-1.5693017e-04 -1.7372170e-03 8.2096893e-05 
-1.9953928e-04 -2.8289335e-03 4.5247359e-07 
-1.2758715e-04 -4.0867771e-03 9.3077862e-05 
-2.1494176e-04 -4.9060602e-03 -5.3425374e-05 
-1.2994965e-04 -4.6752640e-03 -1.6882339e-05 
-2.2745992e-04 -4.1010324e-03 2.0245025e-05 
-2.0656307e-04 -3.9153374e-03 -5.2400155e-05 
-2.5680489e-04 -4.1525853e-03 -1.0157439e-04 
-1.7171864e-04 -4.2475224e-03 -1.2706174e-04 
-1.3242141e-04 -3.3229587e-03 -1.2228549e-04 
-7.8263656e-06 -1.9904617e-03 -1.0620055e-04 
-1.3946995e-05 -8.4469281e-04 -1.9753880e-07 
2.9862683e-06 -1.3720230e-04 -5.2740979e-05 
2.4198482e-05 1.7612640e-04 3.5738958e-05 
1.1390450e-07 2.5133681e-04 -9.9857025e-06 
1.0326630e-05 2.2674406e-04 3.2234084e-06 
8.9289488e-06 1.8401598e-04 2.4755711e-05 
1.1800413e-06 1.3177816e-04 -1.2569849e-05 
2.1126480e-06 5.3769141e-05 4.9284758e-06 
1.8869889e-06 -3.8725935e-05 5.5845094e-06 
-2.3269536e-06 -1.0002565e-04 -6.6851544e-06 
-2.6112568e-06 -8.6382141e-05 -1.5460773e-07 
6.8926693e-07 -2.3174641e-06 6.3469827e-07 
2.1232129e-06 7.3115203e-05 -4.7429401e-07 
2.4237638e-06 6.0124949e-05 -9.1407895e-07 
2.0394687e-06 -2.3510498e-05 -7.4286754e-07 
-3.1677569e-06 -8.4954736e-05 -3.8872250e-07 
-1.4336676e-06 -6.0981954e-05 -3.0404913e-06 
2.0270779e-06 1.8960225e-05 2.5180191e-06 
5.9565587e-06 7.9805570e-05 2.8585705e-06 
1.6514890e-06 8.0053243e-05 -1.1293890e-05 
-7.1255954e-06 3.4362667e-05 5.9958925e-06 
-1.0854478e-05 -7.8725488e-06 -4.3250593e-06 
-4.5020187e-07 8.6796026e-06 -1.6525661e-05 
-1.0500285e-06 8.8558947e-05 1.8296139e-05 
1.9489007e-05 1.6027351e-04 1.9805136e-06 
2.1934104e-06 1.1329210e-04 1.7713876e-06 
-2.0479707e-05 -1.4684926e-04 2.6951797e-05 
4.2466247e-05 -6.2832155e-04 1.0043324e-04 
-9.8729848e-05 -1.2604202e-03 1.9087667e-04 
-6.1053732e-05 -2.0364381e-03 1.3019909e-04 
-1.2074958e-04 -3.0272615e-03 1.4179209e-05 
-1.2874772e-04 -4.1735447e-03 8.9372508e-05 
-3.4881299e-04 -4.9180635e-03 -1.1451220e-04 
-2.2572231e-04 -4.6594888e-03 -1.4645717e-04 
-2.6440044e-04 -4.0989746e-03 -1.0154477e-05 
-2.3272805e-04 -3.9401520e-03 -2.9212097e-05 
-2.8118133e-04 -4.1546091e-03 -8.2339939e-05 
-1.8398991e-04 -4.1504512e-03 -1.1916546e-04 
-1.6344087e-04 -3.1066108e-03 -1.1199900e-04 
-2.9971761e-05 -1.7598248e-03 -1.5271983e-04 
-1.0559866e-05 -6.7696010e-04 -6.1020096e-06 
3.5111898e-06 -7.4764277e-05 -5.2160696e-05 
2.2465125e-05 1.6559375e-04 3.5215769e-05 
1.0950646e-06 2.2858333e-04 -9.3946692e-06 
9.5572741e-06 2.2648287e-04 -5.8358287e-06 
7.0196947e-06 1.9180296e-04 2.6464235e-05 
-1.8678212e-06 1.2136245e-04 -1.0571590e-05 
1.6080290e-06 2.3475528e-05 4.9935461e-06 
-9.9319323e-07 -6.3591724e-05 4.9934379e-06 
-4.4588096e-06 -9.4556402e-05 -9.0875183e-06 
-1.5832875e-06 -6.4676009e-05 1.9736247e-07 
7.4152581e-07 -2.7028907e-06 9.5352448e-07 
1.2245964e-06 4.2711428e-05 -1.0391824e-06 
1.3848795e-07 3.7559541e-05 8.5257273e-07 
-3.5381800e-07 1.4565397e-06 3.5499991e-07 
-6.7972491e-07 -2.1219130e-05 -3.3114327e-07 
2.3194266e-07 -1.5356296e-05 -1.3167710e-07 
3.5619865e-07 1.4980106e-06 1.6473888e-07 
9.7526950e-08 7.5652724e-06 -8.3856207e-08 
-2.7930986e-08 2.4453570e-06 1.3999351e-08 
-4.6151072e-08 -2.3844973e-06 8.3935019e-09 
2.4346372e-09 -1.8418846e-06 -1.9829818e-08 
1.1448511e-08 3.2094874e-07 -1.1365393e-09 
1.4268087e-09 7.3038228e-07 7.3568631e-09 
-2.1061133e-09 7.8639090e-08 -6.2180983e-10 
-8.9619512e-10 -2.0575479e-07 -1.8707025e-09 
1.2196118e-10 -6.7449349e-08 3.0677574e-10 
3.2056677e-10 4.2845567e-08 3.2324732e-10 
1.2390038e-10 2.6143690e-08 -8.2747628e-11 
-7.6896670e-11 -5.9457634e-09 -2.6381440e-11 
-4.0605481e-11 -7.4764355e-09 8.4863418e-12 
1.5412359e-11 1.0274240e-10 -7.1167772e-12 
1.2136661e-11 1.7338002e-09 -2.1995600e-12 
-2.3805743e-12 2.5393027e-10 3.8367048e-12 
-2.8308647e-12 -3.3655326e-10 1.6433984e-13 
2.4380292e-13 -9.8703677e-11 -1.2190127e-12 
-4.4128202e-13 6.0114379e-11 -2.8548919e-13 
1.3556580e-14 2.9717978e-11 3.1253361e-13 
5.7723254e-15 -7.8663890e-12 -1.5717313e-14 
-3.2417272e-14 -5.6311496e-12 9.3653443e-15 
0.0000000e+00 6.6288034e-05 0.0000000e+00 
0.0000000e+00 9.5550051e-05 0.0000000e+00 
0.0000000e+00 1.4463645e-04 0.0000000e+00 
0.0000000e+00 1.4605258e-04 0.0000000e+00 
0.0000000e+00 7.2204115e-05 0.0000000e+00 
0.0000000e+00 -5.5880013e-05 0.0000000e+00 
0.0000000e+00 -2.3309141e-04 0.0000000e+00 
0.0000000e+00 -5.0934398e-04 0.0000000e+00 
0.0000000e+00 -9.7626483e-04 0.0000000e+00 
0.0000000e+00 -1.7424152e-03 0.0000000e+00 
0.0000000e+00 -2.8448268e-03 0.0000000e+00 
0.0000000e+00 -4.1070213e-03 0.0000000e+00 
0.0000000e+00 -4.9348082e-03 0.0000000e+00 
0.0000000e+00 -4.6963240e-03 0.0000000e+00 
0.0000000e+00 -4.1262307e-03 0.0000000e+00 
0.0000000e+00 -3.9358549e-03 0.0000000e+00 
0.0000000e+00 -4.1830880e-03 0.0000000e+00 
0.0000000e+00 -4.2689759e-03 0.0000000e+00 
0.0000000e+00 -3.3472888e-03 0.0000000e+00 
0.0000000e+00 -2.0040970e-03 0.0000000e+00 
0.0000000e+00 -8.5514126e-04 0.0000000e+00 
0.0000000e+00 -1.4043867e-04 0.0000000e+00 
0.0000000e+00 1.7785124e-04 0.0000000e+00 
0.0000000e+00 2.5365758e-04 0.0000000e+00 
0.0000000e+00 2.2894182e-04 0.0000000e+00 
0.0000000e+00 1.8448776e-04 0.0000000e+00 
0.0000000e+00 1.3084254e-04 0.0000000e+00 
0.0000000e+00 5.3123818e-05 0.0000000e+00 
0.0000000e+00 -3.8094888e-05 0.0000000e+00 
0.0000000e+00 -9.8641343e-05 0.0000000e+00 
0.0000000e+00 -8.4497864e-05 0.0000000e+00 
0.0000000e+00 -2.4144249e-06 0.0000000e+00 
0.0000000e+00 7.0164031e-05 0.0000000e+00 
0.0000000e+00 5.7808156e-05 0.0000000e+00 
0.0000000e+00 -2.2749586e-05 0.0000000e+00 
0.0000000e+00 -8.2247527e-05 0.0000000e+00 
0.0000000e+00 -5.9450016e-05 0.0000000e+00 
0.0000000e+00 1.8311963e-05 0.0000000e+00 
0.0000000e+00 7.8417215e-05 0.0000000e+00 
0.0000000e+00 7.8856938e-05 0.0000000e+00 
0.0000000e+00 3.3598848e-05 0.0000000e+00 
0.0000000e+00 -6.8404834e-06 0.0000000e+00 
0.0000000e+00 1.1010258e-05 0.0000000e+00 
0.0000000e+00 9.0879184e-05 0.0000000e+00 
0.0000000e+00 1.6121425e-04 0.0000000e+00 
0.0000000e+00 1.1028620e-04 0.0000000e+00 
0.0000000e+00 -1.5126595e-04 0.0000000e+00 
0.0000000e+00 -6.2689540e-04 0.0000000e+00 
0.0000000e+00 -1.2572752e-03 0.0000000e+00 
0.0000000e+00 -2.0403042e-03 0.0000000e+00 
0.0000000e+00 -3.0446385e-03 0.0000000e+00 
0.0000000e+00 -4.1956115e-03 0.0000000e+00 
0.0000000e+00 -4.9507432e-03 0.0000000e+00 
0.0000000e+00 -4.6790196e-03 0.0000000e+00 
0.0000000e+00 -4.1249008e-03 0.0000000e+00 
0.0000000e+00 -3.9587077e-03 0.0000000e+00 
0.0000000e+00 -4.1824398e-03 0.0000000e+00 
0.0000000e+00 -4.1726376e-03 0.0000000e+00 
0.0000000e+00 -3.1342905e-03 0.0000000e+00 
0.0000000e+00 -1.7721335e-03 0.0000000e+00 
0.0000000e+00 -6.8782509e-04 0.0000000e+00 
0.0000000e+00 -7.5877593e-05 0.0000000e+00 
0.0000000e+00 1.6885338e-04 0.0000000e+00 
0.0000000e+00 2.3114166e-04 0.0000000e+00 
0.0000000e+00 2.2719818e-04 0.0000000e+00 
0.0000000e+00 1.9137187e-04 0.0000000e+00 
0.0000000e+00 1.2065071e-04 0.0000000e+00 
0.0000000e+00 2.3549524e-05 0.0000000e+00 
0.0000000e+00 -6.1766150e-05 0.0000000e+00 
0.0000000e+00 -9.3498449e-05 0.0000000e+00 
0.0000000e+00 -6.4664098e-05 0.0000000e+00 
0.0000000e+00 -3.6760132e-06 0.0000000e+00 
0.0000000e+00 4.0965329e-05 0.0000000e+00 
0.0000000e+00 3.7272621e-05 0.0000000e+00 
0.0000000e+00 2.8741281e-06 0.0000000e+00 
0.0000000e+00 -2.0356907e-05 0.0000000e+00 
0.0000000e+00 -1.5612713e-05 0.0000000e+00 
0.0000000e+00 7.2754540e-07 0.0000000e+00 
0.0000000e+00 7.4164836e-06 0.0000000e+00 
0.0000000e+00 2.7698190e-06 0.0000000e+00 
0.0000000e+00 -2.1822041e-06 0.0000000e+00 
0.0000000e+00 -1.9304837e-06 0.0000000e+00 
0.0000000e+00 2.0447548e-07 0.0000000e+00 
0.0000000e+00 7.4052201e-07 0.0000000e+00 
0.0000000e+00 1.2493406e-07 0.0000000e+00 
0.0000000e+00 -2.0115060e-07 0.0000000e+00 
0.0000000e+00 -8.1666258e-08 0.0000000e+00 
0.0000000e+00 3.9326441e-08 0.0000000e+00 
0.0000000e+00 2.9657928e-08 0.0000000e+00 
0.0000000e+00 -4.5159285e-09 0.0000000e+00 
0.0000000e+00 -8.1700078e-09 0.0000000e+00 
0.0000000e+00 -3.4072800e-10 0.0000000e+00 
0.0000000e+00 1.8356061e-09 0.0000000e+00 
0.0000000e+00 3.6860406e-10 0.0000000e+00 
0.0000000e+00 -3.4351094e-10 0.0000000e+00 
0.0000000e+00 -1.2431180e-10 0.0000000e+00 
0.0000000e+00 5.8014024e-11 0.0000000e+00 
0.0000000e+00 3.4849571e-11 0.0000000e+00 
0.0000000e+00 -6.6919426e-12 0.0000000e+00 
0.0000000e+00 -6.3947007e-12 0.0000000e+00 
0.0000000e+00 8.4050198e-13 0.0000000e+00 
-3.7509116e-04 -1.4758336e-03 2.2200863e-04 
9.7905067e-05 1.1184948e-04 -3.8323255e-06 
3.9150482e-06 -2.2095588e-05 1.6479784e-07 
-4.2119364e-06 -8.6571418e-08 -1.4712705e-06 
0.0000000e+00 -1.9544365e-03 0.0000000e+00 
0.0000000e+00 0.0000000e+00 0.0000000e+00 
0.0000000e+00 0.0000000e+00 0.0000000e+00 
0.0000000e+00 0.0000000e+00 0.0000000e+00 
0.0000000e+00 0.0000000e+00 0.0000000e+00 
0.0000000e+00 0.0000000e+00 0.0000000e+00 
0.0000000e+00 0.0000000e+00 0.0000000e+00 
0.0000000e+00 0.0000000e+00 0.0000000e+00 
0.0000000e+00 0.0000000e+00 0.0000000e+00 
0.0000000e+00 0.0000000e+00 0.0000000e+00 
0.0000000e+00 0.0000000e+00 0.0000000e+00 
0.0000000e+00 0.0000000e+00 0.0000000e+00 
0.0000000e+00 0.0000000e+00 0.0000000e+00 
0.0000000e+00 0.0000000e+00 0.0000000e+00 
0.0000000e+00 0.0000000e+00 0.0000000e+00 
0.0000000e+00 0.0000000e+00 0.0000000e+00 
0.0000000e+00 0.0000000e+00 0.0000000e+00 
0.0000000e+00 0.0000000e+00 0.0000000e+00 
0.0000000e+00 0.0000000e+00 0.0000000e+00 
0.0000000e+00 0.0000000e+00 0.0000000e+00 
0.0000000e+00 0.0000000e+00 0.0000000e+00 
0.0000000e+00 0.0000000e+00 0.0000000e+00 
0.0000000e+00 0.0000000e+00 0.0000000e+00 
0.0000000e+00 0.0000000e+00 0.0000000e+00 
0.0000000e+00 0.0000000e+00 0.0000000e+00 
0.0000000e+00 0.0000000e+00 0.0000000e+00 
0.0000000e+00 0.0000000e+00 0.0000000e+00 
0.0000000e+00 0.0000000e+00 0.0000000e+00 
0.0000000e+00 0.0000000e+00 0.0000000e+00 
0.0000000e+00 0.0000000e+00 0.0000000e+00 
0.0000000e+00 0.0000000e+00 0.0000000e+00 
0.0000000e+00 0.0000000e+00 0.0000000e+00 
0.0000000e+00 0.0000000e+00 0.0000000e+00 
0.0000000e+00 0.0000000e+00 0.0000000e+00 
0.0000000e+00 0.0000000e+00 0.0000000e+00 
0.0000000e+00 0.0000000e+00 0.0000000e+00 
0.0000000e+00 0.0000000e+00 0.0000000e+00 
0.0000000e+00 0.0000000e+00 0.0000000e+00 
0.0000000e+00 0.0000000e+00 0.0000000e+00 
0.0000000e+00 0.0000000e+00 0.0000000e+00 
0.0000000e+00 0.0000000e+00 0.0000000e+00 
0.0000000e+00 0.0000000e+00 0.0000000e+00 
0.0000000e+00 0.0000000e+00 0.0000000e+00 
0.0000000e+00 0.0000000e+00 0.0000000e+00 
0.0000000e+00 0.0000000e+00 0.0000000e+00 
0.0000000e+00 0.0000000e+00 0.0000000e+00 
0.0000000e+00 0.0000000e+00 0.0000000e+00 
0.0000000e+00 0.0000000e+00 0.0000000e+00 
0.0000000e+00 0.0000000e+00 0.0000000e+00 
0.0000000e+00 0.0000000e+00 0.0000000e+00 
0.0000000e+00 0.0000000e+00 0.0000000e+00 
0.0000000e+00 0.0000000e+00 0.0000000e+00 
0.0000000e+00 0.0000000e+00 0.0000000e+00 
0.0000000e+00 0.0000000e+00 0.0000000e+00 
0.0000000e+00 0.0000000e+00 0.0000000e+00 
0.0000000e+00 0.0000000e+00 0.0000000e+00 
0.0000000e+00 0.0000000e+00 0.0000000e+00 
0.0000000e+00 0.0000000e+00 0.0000000e+00 
0.0000000e+00 0.0000000e+00 0.0000000e+00 
0.0000000e+00 0.0000000e+00 0.0000000e+00 
0.0000000e+00 0.0000000e+00 0.0000000e+00 
0.0000000e+00 0.0000000e+00 0.0000000e+00 
0.0000000e+00 0.0000000e+00 0.0000000e+00 
0.0000000e+00 0.0000000e+00 0.0000000e+00 
0.0000000e+00 0.0000000e+00 0.0000000e+00 
0.0000000e+00 0.0000000e+00 0.0000000e+00 
0.0000000e+00 0.0000000e+00 0.0000000e+00 
0.0000000e+00 0.0000000e+00 0.0000000e+00 
0.0000000e+00 0.0000000e+00 0.0000000e+00 
0.0000000e+00 0.0000000e+00 0.0000000e+00 
0.0000000e+00 0.0000000e+00 0.0000000e+00 
0.0000000e+00 0.0000000e+00 0.0000000e+00 
0.0000000e+00 0.0000000e+00 0.0000000e+00 
0.0000000e+00 0.0000000e+00 0.0000000e+00 
0.0000000e+00 0.0000000e+00 0.0000000e+00 
0.0000000e+00 0.0000000e+00 0.0000000e+00 
0.0000000e+00 0.0000000e+00 0.0000000e+00 
0.0000000e+00 0.0000000e+00 0.0000000e+00 
0.0000000e+00 0.0000000e+00 0.0000000e+00 
0.0000000e+00 0.0000000e+00 0.0000000e+00 
0.0000000e+00 0.0000000e+00 0.0000000e+00 
0.0000000e+00 0.0000000e+00 0.0000000e+00 
0.0000000e+00 0.0000000e+00 0.0000000e+00 
0.0000000e+00 0.0000000e+00 0.0000000e+00 
0.0000000e+00 0.0000000e+00 0.0000000e+00 
0.0000000e+00 0.0000000e+00 0.0000000e+00 
0.0000000e+00 0.0000000e+00 0.0000000e+00 
0.0000000e+00 0.0000000e+00 0.0000000e+00 
0.0000000e+00 0.0000000e+00 0.0000000e+00 
0.0000000e+00 0.0000000e+00 0.0000000e+00 
0.0000000e+00 0.0000000e+00 0.0000000e+00 
0.0000000e+00 0.0000000e+00 0.0000000e+00 
0.0000000e+00 0.0000000e+00 0.0000000e+00 
0.0000000e+00 0.0000000e+00 0.0000000e+00 
0.0000000e+00 0.0000000e+00 0.0000000e+00 
0.0000000e+00 0.0000000e+00 0.0000000e+00 
0.0000000e+00 0.0000000e+00 0.0000000e+00 
0.0000000e+00 0.0000000e+00 0.0000000e+00 
0.0000000e+00 0.0000000e+00 0.0000000e+00 
0.0000000e+00 0.0000000e+00 0.0000000e+00 
0.0000000e+00 0.0000000e+00 0.0000000e+00 
0.0000000e+00 0.0000000e+00 0.0000000e+00 
0.0000000e+00 0.0000000e+00 0.0000000e+00 
0.0000000e+00 0.0000000e+00 0.0000000e+00 
0.0000000e+00 0.0000000e+00 0.0000000e+00 
0.0000000e+00 0.0000000e+00 0.0000000e+00 
0.0000000e+00 0.0000000e+00 0.0000000e+00 
-2.5532373e-07 -1.5206189e-06 2.0566986e-09 
-2.2934685e-07 -5.0927520e-07 -1.2470902e-07 
-2.9662985e-07 3.6734500e-06 5.1955521e-07 
-2.3150997e-06 3.4167620e-06 6.6093963e-07 
-3.4906066e-06 4.4418630e-06 3.8622037e-08 
-3.3964832e-06 8.1508069e-06 -1.0290020e-06 
-4.7493836e-06 6.3556708e-06 1.1161194e-06 
-4.8657812e-06 3.0994829e-06 -7.9256154e-07 
-1.5854700e-06 1.9529175e-06 -9.3087402e-07 
1.6117428e-06 3.1266511e-06 9.7875989e-07 
1.1266192e-07 -7.8441934e-07 6.0321867e-08 
6.5811633e-08 -5.1024733e-07 1.7928027e-09 
-4.1396554e-08 5.7709622e-07 6.1808436e-08 
-3.1188677e-08 -1.4228370e-07 -4.8588124e-08 
8.2548475e-09 -2.3431104e-08 -3.1274180e-08 
1.0787652e-09 4.0016745e-09 4.9195799e-09 
2.1248399e-09 5.3350089e-08 3.8923140e-09 
2.6424276e-08 -1.2785465e-07 3.7603379e-10 
-1.1029599e-08 2.0350144e-07 -6.1958874e-09 
2.3527362e-07 -2.4614914e-07 -5.6392402e-08 
-6.8604528e-08 -8.7066269e-07 7.5972025e-08 
9.5175182e-07 2.3721257e-06 -7.7537300e-07 
-1.9218842e-06 5.4632216e-07 1.1937325e-06 
-1.1031099e-06 3.2257542e-06 1.1445727e-07 
-5.4347511e-06 -2.0029138e-06 8.6291379e-07 
-3.3658146e-06 5.3400477e-06 -8.9873566e-07 
-2.1898752e-06 6.2141939e-06 1.0700865e-06 
-8.8124074e-07 4.8325887e-06 -2.8656427e-07 
1.0061749e-06 4.1024323e-06 -1.9185478e-07 
-4.7640674e-07 4.6164575e-07 2.9936956e-07 
9.8463261e-08 -9.9436443e-07 -2.2273390e-07 
1.8183048e-08 -3.8348847e-07 -4.4022747e-07 
-1.0078175e-07 3.0469960e-07 1.3906406e-07 
1.2424318e-08 -3.7043307e-08 6.1936319e-08 
2.2347562e-09 -6.1735683e-08 -1.4463007e-08 
-2.2106712e-09 3.4182570e-08 5.0591424e-09 
-6.8004963e-10 -1.3140149e-08 -2.4926043e-09 
2.8252226e-10 3.5780621e-09 4.9474558e-10 
-8.6515795e-11 -5.9602445e-10 -2.3452829e-10 
6.5349226e-11 -4.2916384e-10 -1.4320034e-10 
3.1049094e-11 1.2456219e-10 1.3656593e-10 
-1.1922550e-11 -1.9054569e-11 -3.0423750e-11 
3.1683510e-12 8.5901885e-12 5.5674293e-12 
-1.5069167e-12 -2.4984275e-12 -1.2548901e-12 
3.4480250e-13 -3.1671618e-12 -9.0451350e-13 
7.2982554e-14 4.6716016e-13 1.0150106e-13 
-6.9535781e-14 4.7262650e-13 1.4360679e-13 
1.6870611e-14 -4.5705427e-14 -2.0897253e-14 
-5.5884587e-15 -7.4077681e-15 -3.8199826e-15 
0.0000000e+00 3.8287482e-05 0.0000000e+00 
0.0000000e+00 6.0059043e-05 0.0000000e+00 
0.0000000e+00 -9.1263377e-05 0.0000000e+00 
0.0000000e+00 -2.5187817e-04 0.0000000e+00 
0.0000000e+00 -4.5447150e-04 0.0000000e+00 
0.0000000e+00 -5.5239932e-04 0.0000000e+00 
0.0000000e+00 -4.7067349e-04 0.0000000e+00 
0.0000000e+00 -3.8294905e-04 0.0000000e+00 
0.0000000e+00 -2.0818418e-04 0.0000000e+00 
0.0000000e+00 6.1525425e-05 0.0000000e+00 
0.0000000e+00 1.0591150e-04 0.0000000e+00 
0.0000000e+00 -2.2686998e-05 0.0000000e+00 
0.0000000e+00 -3.9104547e-05 0.0000000e+00 
0.0000000e+00 1.7280841e-05 0.0000000e+00 
0.0000000e+00 7.4852053e-08 0.0000000e+00 
0.0000000e+00 -1.0131557e-06 0.0000000e+00 
0.0000000e+00 -2.2271322e-06 0.0000000e+00 
0.0000000e+00 1.4434305e-05 0.0000000e+00 
0.0000000e+00 -5.5761739e-06 0.0000000e+00 
0.0000000e+00 -1.3314448e-05 0.0000000e+00 
0.0000000e+00 4.0424013e-05 0.0000000e+00 
0.0000000e+00 5.5689765e-05 0.0000000e+00 
0.0000000e+00 -5.3305554e-05 0.0000000e+00 
0.0000000e+00 -2.4303304e-04 0.0000000e+00 
0.0000000e+00 -5.4731441e-04 0.0000000e+00 
0.0000000e+00 -5.8749533e-04 0.0000000e+00 
0.0000000e+00 -4.3537800e-04 0.0000000e+00 
0.0000000e+00 -3.8728814e-04 0.0000000e+00 
0.0000000e+00 -2.0601480e-04 0.0000000e+00 
0.0000000e+00 1.0202052e-04 0.0000000e+00 
0.0000000e+00 9.1182592e-05 0.0000000e+00 
0.0000000e+00 -3.0744308e-05 0.0000000e+00 
0.0000000e+00 -2.3595432e-05 0.0000000e+00 
0.0000000e+00 2.1913078e-05 0.0000000e+00 
0.0000000e+00 -5.1300003e-06 0.0000000e+00 
0.0000000e+00 -2.1196033e-06 0.0000000e+00 
0.0000000e+00 2.1207914e-06 0.0000000e+00 
0.0000000e+00 1.8928064e-07 0.0000000e+00 
0.0000000e+00 -2.3244958e-07 0.0000000e+00 
0.0000000e+00 9.1009071e-08 0.0000000e+00 
0.0000000e+00 -4.9987889e-08 0.0000000e+00 
0.0000000e+00 1.9559224e-08 0.0000000e+00 
0.0000000e+00 -5.5073208e-09 0.0000000e+00 
0.0000000e+00 1.0391086e-09 0.0000000e+00 
0.0000000e+00 -1.8243575e-10 0.0000000e+00 
0.0000000e+00 4.1081499e-11 0.0000000e+00 
0.0000000e+00 3.4317557e-12 0.0000000e+00 
0.0000000e+00 1.9244029e-12 0.0000000e+00 
0.0000000e+00 -2.6982222e-13 0.0000000e+00 
-4.8202958e-07 -2.4038545e-06 2.7475770e-07 
2.7041011e-07 4.2240304e-06 -3.5401465e-07 
3.8049581e-07 1.3774736e-06 1.5295004e-06 
5.3068575e-06 -1.1364029e-05 3.0701442e-06 
2.4849651e-15 -1.2775033e-14 -4.3417401e-15 
-2.2760874e-15 2.8023634e-14 2.2179854e-15 
1.2223739e-14 6.3760344e-14 1.3350198e-14 
1.9850198e-15 -2.7166032e-14 -9.8760255e-15 
1.2616242e-06 -2.3083760e-06 -1.2411423e-06 
5.2840465e-15 -7.2371740e-15 -3.0281063e-16 
-8.4289277e-06 -5.5659200e-07 1.5432935e-05 
6.7390288e-06 -1.2315082e-05 4.9588584e-06 
0.0000000e+00 7.9259356e-05 0.0000000e+00 
0.0000000e+00 5.3590153e-05 0.0000000e+00 
0.0000000e+00 -5.0779658e-05 0.0000000e+00 
0.0000000e+00 -4.9684802e-04 0.0000000e+00 
0.0000000e+00 -9.8201632e-04 0.0000000e+00 
0.0000000e+00 -1.1521956e-03 0.0000000e+00 
0.0000000e+00 -1.0056653e-03 0.0000000e+00 
0.0000000e+00 -7.8568509e-04 0.0000000e+00 
0.0000000e+00 -4.6439120e-04 0.0000000e+00 
0.0000000e+00 6.8733018e-05 0.0000000e+00 
0.0000000e+00 1.5590512e-04 0.0000000e+00 
0.0000000e+00 7.3798492e-06 0.0000000e+00 
0.0000000e+00 -6.6477063e-05 0.0000000e+00 