# vtk DataFile Version 4.0
vtk output
ASCII
DATASET UNSTRUCTURED_GRID
POINTS 1919 float
0.0000000e+00 0.0000000e+00 0.0000000e+00 
0.0000000e+00 0.0000000e+00 5.0000000e+01 
5.0000000e+00 0.0000000e+00 0.0000000e+00 
5.0000000e+00 0.0000000e+00 5.0000000e+01 
5.0000000e+00 1.0000000e+00 0.0000000e+00 
5.0000000e+00 1.0000000e+00 5.0000000e+01 
0.0000000e+00 1.0000000e+00 0.0000000e+00 
0.0000000e+00 1.0000000e+00 5.0000000e+01 
5.0000000e+00 2.0000000e+00 0.0000000e+00 
5.0000000e+00 2.0000000e+00 5.0000000e+01 
3.0000000e+00 2.0000000e+00 0.0000000e+00 
3.0000000e+00 2.0000000e+00 5.0000000e+01 
0.0000000e+00 2.0000000e+00 0.0000000e+00 
0.0000000e+00 2.0000000e+00 5.0000000e+01 
1.5000000e+00 3.0000000e+00 0.0000000e+00 
1.5000000e+00 3.0000000e+00 5.0000000e+01 
7.5000000e-01 3.0000000e+00 0.0000000e+00 
7.5000000e-01 3.0000000e+00 5.0000000e+01 
0.0000000e+00 3.0000000e+00 0.0000000e+00 
0.0000000e+00 3.0000000e+00 5.0000000e+01 
7.5000000e-01 3.0000000e+00 5.0000000e-01 
7.5000000e-01 3.0000000e+00 1.0000000e+00 
7.5000000e-01 3.0000000e+00 1.5000000e+00 
7.5000000e-01 3.0000000e+00 2.0000000e+00 
7.5000000e-01 3.0000000e+00 2.5000000e+00 
7.5000000e-01 3.0000000e+00 3.0000000e+00 
7.5000000e-01 3.0000000e+00 3.5000000e+00 
7.5000000e-01 3.0000000e+00 4.0000000e+00 
7.5000000e-01 3.0000000e+00 4.5000000e+00 
7.5000000e-01 3.0000000e+00 5.0000000e+00 
7.5000000e-01 3.0000000e+00 5.5000000e+00 
7.5000000e-01 3.0000000e+00 6.0000000e+00 
7.5000000e-01 3.0000000e+00 6.5000000e+00 
7.5000000e-01 3.0000000e+00 7.0000000e+00 
7.5000000e-01 3.0000000e+00 7.5000000e+00 
7.5000000e-01 3.0000000e+00 8.0000000e+00 
7.5000000e-01 3.0000000e+00 8.5000000e+00 
7.5000000e-01 3.0000000e+00 9.0000000e+00 
7.5000000e-01 3.0000000e+00 9.5000000e+00 
7.5000000e-01 3.0000000e+00 1.0000000e+01 
7.5000000e-01 3.0000000e+00 1.0500000e+01 
7.5000000e-01 3.0000000e+00 1.1000000e+01 
7.5000000e-01 3.0000000e+00 1.1500000e+01 
7.5000000e-01 3.0000000e+00 1.2000000e+01 
7.5000000e-01 3.0000000e+00 1.2500000e+01 
7.5000000e-01 3.0000000e+00 1.3000000e+01 
7.5000000e-01 3.0000000e+00 1.3500000e+01 
7.5000000e-01 3.0000000e+00 1.4000000e+01 
7.5000000e-01 3.0000000e+00 1.4500000e+01 
7.5000000e-01 3.0000000e+00 1.5000000e+01 
7.5000000e-01 3.0000000e+00 1.5500000e+01 
7.5000000e-01 3.0000000e+00 1.6000000e+01 
7.5000000e-01 3.0000000e+00 1.6500000e+01 
7.5000000e-01 3.0000000e+00 1.7000000e+01 
7.5000000e-01 3.0000000e+00 1.7500000e+01 
7.5000000e-01 3.0000000e+00 1.8000000e+01 
7.5000000e-01 3.0000000e+00 1.8500000e+01 
7.5000000e-01 3.0000000e+00 1.9000000e+01 
7.5000000e-01 3.0000000e+00 1.9500000e+01 
7.5000000e-01 3.0000000e+00 2.0000000e+01 
7.5000000e-01 3.0000000e+00 2.0500000e+01 
7.5000000e-01 3.0000000e+00 2.1000000e+01 
7.5000000e-01 3.0000000e+00 2.1500000e+01 
7.5000000e-01 3.0000000e+00 2.2000000e+01 
7.5000000e-01 3.0000000e+00 2.2500000e+01 
7.5000000e-01 3.0000000e+00 2.3000000e+01 
7.5000000e-01 3.0000000e+00 2.3500000e+01 
7.5000000e-01 3.0000000e+00 2.4000000e+01 
7.5000000e-01 3.0000000e+00 2.4500000e+01 
7.5000000e-01 3.0000000e+00 2.5000000e+01 
7.5000000e-01 3.0000000e+00 2.5500000e+01 
7.5000000e-01 3.0000000e+00 2.6000000e+01 
7.5000000e-01 3.0000000e+00 2.6500000e+01 
7.5000000e-01 3.0000000e+00 2.7000000e+01 
7.5000000e-01 3.0000000e+00 2.7500000e+01 
7.5000000e-01 3.0000000e+00 2.8000000e+01 
7.5000000e-01 3.0000000e+00 2.8500000e+01 
7.5000000e-01 3.0000000e+00 2.9000000e+01 
7.5000000e-01 3.0000000e+00 2.9500000e+01 
7.5000000e-01 3.0000000e+00 3.0000000e+01 
7.5000000e-01 3.0000000e+00 3.0500000e+01 
7.5000000e-01 3.0000000e+00 3.1000000e+01 
7.5000000e-01 3.0000000e+00 3.1500000e+01 
7.5000000e-01 3.0000000e+00 3.2000000e+01 
7.5000000e-01 3.0000000e+00 3.2500000e+01 
7.5000000e-01 3.0000000e+00 3.3000000e+01 
7.5000000e-01 3.0000000e+00 3.3500000e+01 
7.5000000e-01 3.0000000e+00 3.4000000e+01 
7.5000000e-01 3.0000000e+00 3.4500000e+01 
7.5000000e-01 3.0000000e+00 3.5000000e+01 
7.5000000e-01 3.0000000e+00 3.5500000e+01 
7.5000000e-01 3.0000000e+00 3.6000000e+01 
7.5000000e-01 3.0000000e+00 3.6500000e+01 
7.5000000e-01 3.0000000e+00 3.7000000e+01 
7.5000000e-01 3.0000000e+00 3.7500000e+01 
7.5000000e-01 3.0000000e+00 3.8000000e+01 
7.5000000e-01 3.0000000e+00 3.8500000e+01 
7.5000000e-01 3.0000000e+00 3.9000000e+01 
7.5000000e-01 3.0000000e+00 3.9500000e+01 
7.5000000e-01 3.0000000e+00 4.0000000e+01 
7.5000000e-01 3.0000000e+00 4.0500000e+01 
7.5000000e-01 3.0000000e+00 4.1000000e+01 
7.5000000e-01 3.0000000e+00 4.1500000e+01 
7.5000000e-01 3.0000000e+00 4.2000000e+01 
7.5000000e-01 3.0000000e+00 4.2500000e+01 
7.5000000e-01 3.0000000e+00 4.3000000e+01 
7.5000000e-01 3.0000000e+00 4.3500000e+01 
7.5000000e-01 3.0000000e+00 4.4000000e+01 
7.5000000e-01 3.0000000e+00 4.4500000e+01 
7.5000000e-01 3.0000000e+00 4.5000000e+01 
7.5000000e-01 3.0000000e+00 4.5500000e+01 
7.5000000e-01 3.0000000e+00 4.6000000e+01 
7.5000000e-01 3.0000000e+00 4.6500000e+01 
7.5000000e-01 3.0000000e+00 4.7000000e+01 
7.5000000e-01 3.0000000e+00 4.7500000e+01 
7.5000000e-01 3.0000000e+00 4.8000000e+01 
7.5000000e-01 3.0000000e+00 4.8500000e+01 
7.5000000e-01 3.0000000e+00 4.9000000e+01 
7.5000000e-01 3.0000000e+00 4.9500000e+01 
7.5000000e-01 3.0250001e+00 0.0000000e+00 
7.5000000e-01 3.0250001e+00 5.0000000e-01 
7.5000000e-01 3.0250001e+00 1.0000000e+00 
7.5000000e-01 3.0250001e+00 1.5000000e+00 
7.5000000e-01 3.0250001e+00 2.0000000e+00 
7.5000000e-01 3.0250001e+00 2.5000000e+00 
7.5000000e-01 3.0250001e+00 3.0000000e+00 
7.5000000e-01 3.0250001e+00 3.5000000e+00 
7.5000000e-01 3.0250001e+00 4.0000000e+00 
7.5000000e-01 3.0250001e+00 4.5000000e+00 
7.5000000e-01 3.0250001e+00 5.0000000e+00 
7.5000000e-01 3.0250001e+00 5.5000000e+00 
7.5000000e-01 3.0250001e+00 6.0000000e+00 
7.5000000e-01 3.0250001e+00 6.5000000e+00 
7.5000000e-01 3.0250001e+00 7.0000000e+00 
7.5000000e-01 3.0250001e+00 7.5000000e+00 
7.5000000e-01 3.0250001e+00 8.0000000e+00 
7.5000000e-01 3.0250001e+00 8.5000000e+00 
7.5000000e-01 3.0250001e+00 9.0000000e+00 
7.5000000e-01 3.0250001e+00 9.5000000e+00 
7.5000000e-01 3.0250001e+00 1.0000000e+01 
7.5000000e-01 3.0250001e+00 1.0500000e+01 
7.5000000e-01 3.0250001e+00 1.1000000e+01 
7.5000000e-01 3.0250001e+00 1.1500000e+01 
7.5000000e-01 3.0250001e+00 1.2000000e+01 
7.5000000e-01 3.0250001e+00 1.2500000e+01 
7.5000000e-01 3.0250001e+00 1.3000000e+01 
7.5000000e-01 3.0250001e+00 1.3500000e+01 
7.5000000e-01 3.0250001e+00 1.4000000e+01 
7.5000000e-01 3.0250001e+00 1.4500000e+01 
7.5000000e-01 3.0250001e+00 1.5000000e+01 
7.5000000e-01 3.0250001e+00 1.5500000e+01 
7.5000000e-01 3.0250001e+00 1.6000000e+01 
7.5000000e-01 3.0250001e+00 1.6500000e+01 
7.5000000e-01 3.0250001e+00 1.7000000e+01 
7.5000000e-01 3.0250001e+00 1.7500000e+01 
7.5000000e-01 3.0250001e+00 1.8000000e+01 
7.5000000e-01 3.0250001e+00 1.8500000e+01 
7.5000000e-01 3.0250001e+00 1.9000000e+01 
7.5000000e-01 3.0250001e+00 1.9500000e+01 
7.5000000e-01 3.0250001e+00 2.0000000e+01 
7.5000000e-01 3.0250001e+00 2.0500000e+01 
7.5000000e-01 3.0250001e+00 2.1000000e+01 
7.5000000e-01 3.0250001e+00 2.1500000e+01 
7.5000000e-01 3.0250001e+00 2.2000000e+01 
7.5000000e-01 3.0250001e+00 2.2500000e+01 
7.5000000e-01 3.0250001e+00 2.3000000e+01 
7.5000000e-01 3.0250001e+00 2.3500000e+01 
7.5000000e-01 3.0250001e+00 2.4000000e+01 
7.5000000e-01 3.0250001e+00 2.4500000e+01 
7.5000000e-01 3.0250001e+00 2.5000000e+01 
7.5000000e-01 3.0250001e+00 2.5500000e+01 
7.5000000e-01 3.0250001e+00 2.6000000e+01 
7.5000000e-01 3.0250001e+00 2.6500000e+01 
7.5000000e-01 3.0250001e+00 2.7000000e+01 
7.5000000e-01 3.0250001e+00 2.7500000e+01 
7.5000000e-01 3.0250001e+00 2.8000000e+01 
7.5000000e-01 3.0250001e+00 2.8500000e+01 
7.5000000e-01 3.0250001e+00 2.9000000e+01 
7.5000000e-01 3.0250001e+00 2.9500000e+01 
7.5000000e-01 3.0250001e+00 3.0000000e+01 
7.5000000e-01 3.0250001e+00 3.0500000e+01 
7.5000000e-01 3.0250001e+00 3.1000000e+01 
7.5000000e-01 3.0250001e+00 3.1500000e+01 
7.5000000e-01 3.0250001e+00 3.2000000e+01 
7.5000000e-01 3.0250001e+00 3.2500000e+01 
7.5000000e-01 3.0250001e+00 3.3000000e+01 
7.5000000e-01 3.0250001e+00 3.3500000e+01 
7.5000000e-01 3.0250001e+00 3.4000000e+01 
7.5000000e-01 3.0250001e+00 3.4500000e+01 
7.5000000e-01 3.0250001e+00 3.5000000e+01 
7.5000000e-01 3.0250001e+00 3.5500000e+01 
7.5000000e-01 3.0250001e+00 3.6000000e+01 
7.5000000e-01 3.0250001e+00 3.6500000e+01 
7.5000000e-01 3.0250001e+00 3.7000000e+01 
7.5000000e-01 3.0250001e+00 3.7500000e+01 
7.5000000e-01 3.0250001e+00 3.8000000e+01 
7.5000000e-01 3.0250001e+00 3.8500000e+01 
7.5000000e-01 3.0250001e+00 3.9000000e+01 
7.5000000e-01 3.0250001e+00 3.9500000e+01 
7.5000000e-01 3.0250001e+00 4.0000000e+01 
7.5000000e-01 3.0250001e+00 4.0500000e+01 
7.5000000e-01 3.0250001e+00 4.1000000e+01 
7.5000000e-01 3.0250001e+00 4.1500000e+01 
7.5000000e-01 3.0250001e+00 4.2000000e+01 
7.5000000e-01 3.0250001e+00 4.2500000e+01 
7.5000000e-01 3.0250001e+00 4.3000000e+01 
7.5000000e-01 3.0250001e+00 4.3500000e+01 
7.5000000e-01 3.0250001e+00 4.4000000e+01 
7.5000000e-01 3.0250001e+00 4.4500000e+01 
7.5000000e-01 3.0250001e+00 4.5000000e+01 
7.5000000e-01 3.0250001e+00 4.5500000e+01 
7.5000000e-01 3.0250001e+00 4.6000000e+01 
7.5000000e-01 3.0250001e+00 4.6500000e+01 
7.5000000e-01 3.0250001e+00 4.7000000e+01 
7.5000000e-01 3.0250001e+00 4.7500000e+01 
7.5000000e-01 3.0250001e+00 4.8000000e+01 
7.5000000e-01 3.0250001e+00 4.8500000e+01 
7.5000000e-01 3.0250001e+00 4.9000000e+01 
7.5000000e-01 3.0250001e+00 4.9500000e+01 
7.5000000e-01 3.0250001e+00 5.0000000e+01 
1.5000000e+00 3.0000000e+00 2.5000000e+01 
3.0000000e+00 2.0000000e+00 2.5000000e+01 
4.0000000e+00 2.0000000e+00 2.5000000e+01 
5.0000000e+00 2.0000000e+00 2.5000000e+01 
0.0000000e+00 3.0000000e+00 2.5000000e+01 
0.0000000e+00 0.0000000e+00 1.0000000e+00 
0.0000000e+00 0.0000000e+00 2.0000000e+00 
0.0000000e+00 0.0000000e+00 3.0000000e+00 
0.0000000e+00 0.0000000e+00 4.0000000e+00 
0.0000000e+00 0.0000000e+00 5.0000000e+00 
[...]
POINT_DATA 1919
FIELD FieldData 3
DISPLACEMENT 3 1919  float
0.0000000e+00 0.0000000e+00 0.0000000e+00 
0.0000000e+00 0.0000000e+00 0.0000000e+00 
0.0000000e+00 0.0000000e+00 0.0000000e+00 
0.0000000e+00 0.0000000e+00 0.0000000e+00 
-5.6419123e-07 7.4863107e-07 3.9272055e-07 
-7.1139385e-07 -6.6896962e-07 -6.1611601e-08 
0.0000000e+00 -8.3372362e-07 0.0000000e+00 
0.0000000e+00 -1.4401222e-06 0.0000000e+00 
-5.5799626e-07 5.8299418e-07 2.7430573e-07 
-2.4241297e-07 -1.0973073e-06 9.4994829e-07 
-5.5014914e-07 -8.5566813e-07 1.7731282e-06 
-3.7666058e-07 1.4913660e-06 -2.2336610e-06 
0.0000000e+00 -2.9155835e-06 0.0000000e+00 
0.0000000e+00 -4.6717555e-06 0.0000000e+00 
1.8673817e-06 -4.8927373e-06 -6.1005790e-06 
3.5831786e-07 -5.4800198e-06 8.3657670e-07 
4.0633736e-06 3.4448419e-06 -3.0978364e-07 
3.5378796e-06 -2.0145839e-05 -1.6265326e-06 
0.0000000e+00 -6.9481466e-06 0.0000000e+00 
0.0000000e+00 -9.7420434e-06 0.0000000e+00 
3.3044457e-06 3.7367918e-06 7.0201537e-07 
5.1090528e-06 5.0695216e-06 2.7734900e-06 
8.1933467e-06 7.8813691e-06 6.8823829e-06 
1.0067035e-05 1.2098914e-05 1.0977925e-05 
8.2205970e-06 1.6316499e-05 1.2897674e-05 
9.0215754e-06 1.9028481e-05 1.1620306e-05 
7.6035521e-06 1.9876619e-05 1.0198923e-05 
8.4084522e-06 1.9131914e-05 6.9869834e-06 
7.9060492e-06 1.7870103e-05 6.2912623e-06 
8.4865987e-06 1.6813936e-05 5.9490949e-06 
6.2613854e-06 1.5259388e-05 6.5974864e-06 
7.3121678e-06 1.1607061e-05 3.5747953e-06 
5.3312533e-06 6.2400604e-06 -1.2415226e-06 
5.7426823e-06 1.8198490e-06 -7.4619797e-06 
5.7313468e-06 1.7581733e-06 -1.2509103e-05 
1.0018377e-05 5.4149764e-06 -1.5887061e-05 
1.2113782e-05 9.5050646e-06 -1.4143407e-05 
1.3532244e-05 1.0278416e-05 -1.0237743e-05 
1.1247927e-05 7.3016072e-06 -1.0070829e-05 
1.0898042e-05 3.6777296e-06 -9.5826654e-06 
9.2221735e-06 4.0512923e-06 -9.3061872e-06 
1.3752881e-05 1.0285044e-05 -8.7207573e-06 
1.5635464e-05 1.5313346e-05 -9.3742774e-06 
1.5460382e-05 9.2452419e-06 -8.1001235e-06 
1.0902419e-05 -4.7758367e-06 -5.0401400e-06 
3.6931233e-06 -1.2538143e-05 -2.7192273e-06 
-1.9298382e-06 -3.8641379e-06 -5.0399858e-06 
2.9813361e-06 1.9103943e-05 -1.0180466e-05 
5.0062358e-06 3.9296796e-05 -3.8376797e-06 
-3.1023046e-06 4.0356616e-05 -1.5746596e-06 
-2.6028563e-06 2.8178338e-05 -9.7005395e-06 
2.7068122e-06 2.8634977e-05 1.0278511e-05 
-9.1824586e-06 6.2693827e-05 3.1075764e-05 
-1.8914730e-05 1.0679077e-04 4.9099439e-05 
-9.9668187e-06 7.0497321e-05 8.2267878e-05 
-1.2899879e-05 -1.3567075e-04 9.9660938e-05 
-4.9894217e-05 -5.5549416e-04 1.7736928e-04 
-6.8496352e-05 -1.1783895e-03 1.6060125e-04 
-1.1251485e-04 -2.0132405e-03 2.8126442e-04 
-1.3761548e-04 -3.0551157e-03 1.1900465e-04 
-2.1060974e-04 -4.1835890e-03 2.1475281e-04 
-2.6028915e-04 -4.8712632e-03 7.5616612e-05 
-2.7553778e-04 -4.6509951e-03 3.6561158e-07 
-2.3007872e-04 -4.2194189e-03 2.2021310e-05 
-3.2915786e-04 -4.1488735e-03 4.7321755e-05 
-2.2075149e-04 -4.3936991e-03 -5.3641474e-05 
-2.1768163e-04 -4.3828753e-03 -2.0087890e-04 
-9.3011251e-05 -3.3324074e-03 -1.6900327e-04 
-8.2823128e-05 -1.9631726e-03 -2.2822554e-04 
-3.1558669e-05 -8.5518905e-04 -1.3870772e-04 
-1.5265363e-06 -1.9157252e-04 -1.3631165e-04 
1.2198996e-05 1.1903291e-04 -6.1514256e-05 
1.8572877e-05 2.2351797e-04 -3.6476573e-05 
1.8148630e-05 2.1796601e-04 -1.8515038e-05 
1.4048649e-05 1.5579154e-04 -3.7589596e-06 
1.2992367e-05 8.1594299e-05 -9.0138165e-06 
9.5766081e-06 3.4453951e-05 -5.2449864e-06 
7.1659483e-06 1.6460652e-05 -7.9199490e-06 
4.5012002e-06 7.8853263e-06 -8.9953010e-06 
3.1378800e-06 -4.2986658e-06 -1.3954666e-05 
2.0930897e-06 -1.4265751e-05 -2.0171781e-05 
5.7709831e-06 -9.4536172e-06 -1.8782623e-05 
9.3012841e-06 9.3191720e-06 -1.3601400e-05 
1.1890211e-05 2.3743822e-05 -1.2585690e-05 
1.1055559e-05 1.9191633e-05 -9.9066538e-06 
9.6917984e-06 7.5090065e-07 -6.7950746e-06 
7.8545572e-06 -8.0925802e-06 -1.2184382e-05 
7.3622778e-07 1.4017241e-05 -6.0171055e-06 
-1.9461620e-06 5.4922613e-05 2.1587842e-07 
4.2928614e-06 7.9470788e-05 -7.7935385e-07 
6.9795092e-06 7.2188152e-05 -3.5050218e-06 
-5.0355015e-06 4.5027777e-05 2.0208123e-05 
-1.6455815e-05 2.8476285e-05 2.0702053e-05 
-9.5827199e-06 4.3956359e-05 4.5022138e-05 
-2.4515737e-05 3.9933988e-05 7.5561016e-05 
-6.5305067e-05 -1.1586996e-04 1.4868131e-04 
-6.2259533e-05 -5.4416189e-04 1.8554238e-04 
-7.6929435e-05 -1.2917316e-03 1.6348575e-04 
-1.2907881e-04 -2.3096232e-03 2.7686040e-04 
-1.5969947e-04 -3.4294587e-03 1.0430330e-04 
-2.3615573e-04 -4.3973411e-03 1.9935303e-04 
-2.4547579e-04 -4.7399169e-03 7.1421753e-05 
-2.1914202e-04 -4.4247354e-03 -9.5997200e-07 
-2.1690373e-04 -4.1292673e-03 -1.0306234e-06 
-1.9071535e-04 -4.2275065e-03 1.2849261e-05 
-2.1895993e-04 -4.4144713e-03 -1.0624880e-04 
-1.9793275e-04 -4.0635648e-03 -1.8638879e-04 
-1.5323782e-04 -2.8927117e-03 -1.2907581e-04 
-8.7151173e-05 -1.6232036e-03 -2.3561128e-04 
-6.2397390e-05 -6.7534513e-04 -1.1861205e-04 
-1.2449877e-05 -1.1068209e-04 -1.2668806e-04 
-6.4469612e-07 1.6137255e-04 -6.1064733e-05 
7.0286396e-06 2.3827798e-04 -3.4972294e-05 
7.3017127e-06 2.0110133e-04 -1.9865549e-05 
4.2022534e-06 1.2557620e-04 -5.3478720e-06 
1.0840505e-07 6.2578205e-05 -5.5567884e-06 
-2.3076785e-07 2.6300069e-05 1.2192508e-07 
-7.2297333e-08 4.9425662e-06 -4.4650471e-07 
-3.1097551e-07 -1.2133232e-05 -4.8602050e-07 
0.0000000e+00 3.4323828e-06 0.0000000e+00 
0.0000000e+00 3.7421905e-06 0.0000000e+00 
0.0000000e+00 5.0869348e-06 0.0000000e+00 
0.0000000e+00 7.9395459e-06 0.0000000e+00 
0.0000000e+00 1.2111408e-05 0.0000000e+00 
0.0000000e+00 1.6290034e-05 0.0000000e+00 
0.0000000e+00 1.9025265e-05 0.0000000e+00 
0.0000000e+00 1.9852276e-05 0.0000000e+00 
0.0000000e+00 1.9146190e-05 0.0000000e+00 
0.0000000e+00 1.7930486e-05 0.0000000e+00 
0.0000000e+00 1.6868849e-05 0.0000000e+00 
0.0000000e+00 1.5224220e-05 0.0000000e+00 
0.0000000e+00 1.1539838e-05 0.0000000e+00 
0.0000000e+00 6.1715641e-06 0.0000000e+00 
0.0000000e+00 1.9347863e-06 0.0000000e+00 
0.0000000e+00 1.8821196e-06 0.0000000e+00 
0.0000000e+00 5.4963953e-06 0.0000000e+00 
0.0000000e+00 9.4268426e-06 0.0000000e+00 
0.0000000e+00 1.0157426e-05 0.0000000e+00 
0.0000000e+00 7.1927229e-06 0.0000000e+00 
0.0000000e+00 3.7023553e-06 0.0000000e+00 
0.0000000e+00 4.4060685e-06 0.0000000e+00 
0.0000000e+00 1.0540153e-05 0.0000000e+00 
0.0000000e+00 1.4969492e-05 0.0000000e+00 
0.0000000e+00 8.7957160e-06 0.0000000e+00 
0.0000000e+00 -4.9096598e-06 0.0000000e+00 
0.0000000e+00 -1.2293243e-05 0.0000000e+00 
0.0000000e+00 -3.1110735e-06 0.0000000e+00 
0.0000000e+00 1.9406409e-05 0.0000000e+00 
0.0000000e+00 3.8623919e-05 0.0000000e+00 
0.0000000e+00 3.9560317e-05 0.0000000e+00 
0.0000000e+00 2.7839769e-05 0.0000000e+00 
0.0000000e+00 2.9786652e-05 0.0000000e+00 
0.0000000e+00 6.5518216e-05 0.0000000e+00 
0.0000000e+00 1.0759226e-04 0.0000000e+00 
0.0000000e+00 6.9555077e-05 0.0000000e+00 
0.0000000e+00 -1.3796364e-04 0.0000000e+00 
0.0000000e+00 -5.5589434e-04 0.0000000e+00 
0.0000000e+00 -1.1795588e-03 0.0000000e+00 
0.0000000e+00 -2.0166195e-03 0.0000000e+00 
0.0000000e+00 -3.0707547e-03 0.0000000e+00 
0.0000000e+00 -4.2062267e-03 0.0000000e+00 
0.0000000e+00 -4.9049282e-03 0.0000000e+00 
0.0000000e+00 -4.6743266e-03 0.0000000e+00 
0.0000000e+00 -4.2411359e-03 0.0000000e+00 
0.0000000e+00 -4.1680713e-03 0.0000000e+00 
0.0000000e+00 -4.4264952e-03 0.0000000e+00 
0.0000000e+00 -4.4031646e-03 0.0000000e+00 
0.0000000e+00 -3.3566875e-03 0.0000000e+00 
0.0000000e+00 -1.9771345e-03 0.0000000e+00 
0.0000000e+00 -8.6361507e-04 0.0000000e+00 
0.0000000e+00 -1.9235974e-04 0.0000000e+00 
0.0000000e+00 1.2111874e-04 0.0000000e+00 
0.0000000e+00 2.2471428e-04 0.0000000e+00 
0.0000000e+00 2.1819252e-04 0.0000000e+00 
0.0000000e+00 1.5621968e-04 0.0000000e+00 
0.0000000e+00 8.3181418e-05 0.0000000e+00 
0.0000000e+00 3.5157962e-05 0.0000000e+00 
0.0000000e+00 1.5962489e-05 0.0000000e+00 
0.0000000e+00 7.1510940e-06 0.0000000e+00 
0.0000000e+00 -4.3930631e-06 0.0000000e+00 
0.0000000e+00 -1.3768261e-05 0.0000000e+00 
0.0000000e+00 -8.9620326e-06 0.0000000e+00 
0.0000000e+00 9.2552345e-06 0.0000000e+00 
0.0000000e+00 2.3303179e-05 0.0000000e+00 
0.0000000e+00 1.8516233e-05 0.0000000e+00 
0.0000000e+00 5.0633952e-07 0.0000000e+00 
0.0000000e+00 -7.0912693e-06 0.0000000e+00 
0.0000000e+00 1.4986491e-05 0.0000000e+00 
0.0000000e+00 5.4660279e-05 0.0000000e+00 
0.0000000e+00 7.8822988e-05 0.0000000e+00 
0.0000000e+00 7.1320297e-05 0.0000000e+00 
0.0000000e+00 4.4708246e-05 0.0000000e+00 
0.0000000e+00 3.0591658e-05 0.0000000e+00 
0.0000000e+00 4.7192258e-05 0.0000000e+00 
0.0000000e+00 4.0694420e-05 0.0000000e+00 
0.0000000e+00 -1.1762504e-04 0.0000000e+00 
0.0000000e+00 -5.4794253e-04 0.0000000e+00 
0.0000000e+00 -1.2974421e-03 0.0000000e+00 
0.0000000e+00 -2.3133762e-03 0.0000000e+00 
0.0000000e+00 -3.4438767e-03 0.0000000e+00 
0.0000000e+00 -4.4197855e-03 0.0000000e+00 
0.0000000e+00 -4.7752773e-03 0.0000000e+00 
0.0000000e+00 -4.4492660e-03 0.0000000e+00 
0.0000000e+00 -4.1537420e-03 0.0000000e+00 
0.0000000e+00 -4.2448114e-03 0.0000000e+00 
0.0000000e+00 -4.4415756e-03 0.0000000e+00 
0.0000000e+00 -4.0882328e-03 0.0000000e+00 
0.0000000e+00 -2.9168613e-03 0.0000000e+00 
0.0000000e+00 -1.6347030e-03 0.0000000e+00 
0.0000000e+00 -6.7943597e-04 0.0000000e+00 
0.0000000e+00 -1.1049702e-04 0.0000000e+00 
0.0000000e+00 1.6178467e-04 0.0000000e+00 
0.0000000e+00 2.3847877e-04 0.0000000e+00 
0.0000000e+00 2.0236548e-04 0.0000000e+00 
0.0000000e+00 1.2709352e-04 0.0000000e+00 
0.0000000e+00 6.3400374e-05 0.0000000e+00 
0.0000000e+00 2.6047352e-05 0.0000000e+00 
0.0000000e+00 4.2591000e-06 0.0000000e+00 
0.0000000e+00 -1.2219452e-05 0.0000000e+00 
0.0000000e+00 -1.9718296e-05 0.0000000e+00 
-1.3746928e-04 -3.4488385e-04 -2.4393252e-04 
2.6544501e-05 -2.5645182e-05 1.1446539e-05 
2.2937436e-05 -7.4084646e-06 1.2069273e-05 
1.6475340e-05 1.1096952e-06 1.4822839e-05 
0.0000000e+00 -1.4599301e-04 0.0000000e+00 
0.0000000e+00 0.0000000e+00 0.0000000e+00 
0.0000000e+00 0.0000000e+00 0.0000000e+00 
0.0000000e+00 0.0000000e+00 0.0000000e+00 
0.0000000e+00 0.0000000e+00 0.0000000e+00 
0.0000000e+00 0.0000000e+00 0.0000000e+00 
0.0000000e+00 0.0000000e+00 0.0000000e+00 
0.0000000e+00 0.0000000e+00 0.0000000e+00 
0.0000000e+00 0.0000000e+00 0.0000000e+00 
0.0000000e+00 0.0000000e+00 0.0000000e+00 
0.0000000e+00 0.0000000e+00 0.0000000e+00 
0.0000000e+00 0.0000000e+00 0.0000000e+00 
0.0000000e+00 0.0000000e+00 0.0000000e+00 
0.0000000e+00 0.0000000e+00 0.0000000e+00 
0.0000000e+00 0.0000000e+00 0.0000000e+00 
0.0000000e+00 0.0000000e+00 0.0000000e+00 
0.0000000e+00 0.0000000e+00 0.0000000e+00 
0.0000000e+00 0.0000000e+00 0.0000000e+00 
0.0000000e+00 0.0000000e+00 0.0000000e+00 
0.0000000e+00 0.0000000e+00 0.0000000e+00 
0.0000000e+00 0.0000000e+00 0.0000000e+00 
0.0000000e+00 0.0000000e+00 0.0000000e+00 
0.0000000e+00 0.0000000e+00 0.0000000e+00 
0.0000000e+00 0.0000000e+00 0.0000000e+00 
0.0000000e+00 0.0000000e+00 0.0000000e+00 
0.0000000e+00 0.0000000e+00 0.0000000e+00 
0.0000000e+00 0.0000000e+00 0.0000000e+00 
0.0000000e+00 0.0000000e+00 0.0000000e+00 
0.0000000e+00 0.0000000e+00 0.0000000e+00 
0.0000000e+00 0.0000000e+00 0.0000000e+00 
0.0000000e+00 0.0000000e+00 0.0000000e+00 
0.0000000e+00 0.0000000e+00 0.0000000e+00 
0.0000000e+00 0.0000000e+00 0.0000000e+00 
0.0000000e+00 0.0000000e+00 0.0000000e+00 
0.0000000e+00 0.0000000e+00 0.0000000e+00 
0.0000000e+00 0.0000000e+00 0.0000000e+00 
0.0000000e+00 0.0000000e+00 0.0000000e+00 
0.0000000e+00 0.0000000e+00 0.0000000e+00 
0.0000000e+00 0.0000000e+00 0.0000000e+00 
0.0000000e+00 0.0000000e+00 0.0000000e+00 
0.0000000e+00 0.0000000e+00 0.0000000e+00 
0.0000000e+00 0.0000000e+00 0.0000000e+00 
0.0000000e+00 0.0000000e+00 0.0000000e+00 
0.0000000e+00 0.0000000e+00 0.0000000e+00 
0.0000000e+00 0.0000000e+00 0.0000000e+00 
0.0000000e+00 0.0000000e+00 0.0000000e+00 
0.0000000e+00 0.0000000e+00 0.0000000e+00 
0.0000000e+00 0.0000000e+00 0.0000000e+00 
0.0000000e+00 0.0000000e+00 0.0000000e+00 
0.0000000e+00 0.0000000e+00 0.0000000e+00 
0.0000000e+00 0.0000000e+00 0.0000000e+00 
0.0000000e+00 0.0000000e+00 0.0000000e+00 
0.0000000e+00 0.0000000e+00 0.0000000e+00 
0.0000000e+00 0.0000000e+00 0.0000000e+00 
0.0000000e+00 0.0000000e+00 0.0000000e+00 
0.0000000e+00 0.0000000e+00 0.0000000e+00 
0.0000000e+00 0.0000000e+00 0.0000000e+00 
0.0000000e+00 0.0000000e+00 0.0000000e+00 
0.0000000e+00 0.0000000e+00 0.0000000e+00 
0.0000000e+00 0.0000000e+00 0.0000000e+00 
0.0000000e+00 0.0000000e+00 0.0000000e+00 
0.0000000e+00 0.0000000e+00 0.0000000e+00 
0.0000000e+00 0.0000000e+00 0.0000000e+00 
0.0000000e+00 0.0000000e+00 0.0000000e+00 
0.0000000e+00 0.0000000e+00 0.0000000e+00 
0.0000000e+00 0.0000000e+00 0.0000000e+00 
0.0000000e+00 0.0000000e+00 0.0000000e+00 
0.0000000e+00 0.0000000e+00 0.0000000e+00 
0.0000000e+00 0.0000000e+00 0.0000000e+00 
0.0000000e+00 0.0000000e+00 0.0000000e+00 
0.0000000e+00 0.0000000e+00 0.0000000e+00 
0.0000000e+00 0.0000000e+00 0.0000000e+00 
0.0000000e+00 0.0000000e+00 0.0000000e+00 
0.0000000e+00 0.0000000e+00 0.0000000e+00 
0.0000000e+00 0.0000000e+00 0.0000000e+00 
0.0000000e+00 0.0000000e+00 0.0000000e+00 
0.0000000e+00 0.0000000e+00 0.0000000e+00 
0.0000000e+00 0.0000000e+00 0.0000000e+00 
0.0000000e+00 0.0000000e+00 0.0000000e+00 
0.0000000e+00 0.0000000e+00 0.0000000e+00 
0.0000000e+00 0.0000000e+00 0.0000000e+00 
0.0000000e+00 0.0000000e+00 0.0000000e+00 
0.0000000e+00 0.0000000e+00 0.0000000e+00 
0.0000000e+00 0.0000000e+00 0.0000000e+00 
0.0000000e+00 0.0000000e+00 0.0000000e+00 
0.0000000e+00 0.0000000e+00 0.0000000e+00 
0.0000000e+00 0.0000000e+00 0.0000000e+00 
0.0000000e+00 0.0000000e+00 0.0000000e+00 
0.0000000e+00 0.0000000e+00 0.0000000e+00 
0.0000000e+00 0.0000000e+00 0.0000000e+00 
0.0000000e+00 0.0000000e+00 0.0000000e+00 
0.0000000e+00 0.0000000e+00 0.0000000e+00 
0.0000000e+00 0.0000000e+00 0.0000000e+00 
0.0000000e+00 0.0000000e+00 0.0000000e+00 
0.0000000e+00 0.0000000e+00 0.0000000e+00 
0.0000000e+00 0.0000000e+00 0.0000000e+00 
0.0000000e+00 0.0000000e+00 0.0000000e+00 
0.0000000e+00 0.0000000e+00 0.0000000e+00 
0.0000000e+00 0.0000000e+00 0.0000000e+00 
0.0000000e+00 0.0000000e+00 0.0000000e+00 
0.0000000e+00 0.0000000e+00 0.0000000e+00 
0.0000000e+00 0.0000000e+00 0.0000000e+00 
0.0000000e+00 0.0000000e+00 0.0000000e+00 
0.0000000e+00 0.0000000e+00 0.0000000e+00 
0.0000000e+00 0.0000000e+00 0.0000000e+00 
0.0000000e+00 0.0000000e+00 0.0000000e+00 
0.0000000e+00 0.0000000e+00 0.0000000e+00 
3.3716628e-08 6.3716692e-07 3.9935944e-07 
6.3862512e-07 4.1079130e-07 -7.5798738e-08 
1.1563435e-06 -3.8788650e-07 2.3274208e-07 
1.3511784e-06 -4.5895231e-07 1.6088070e-06 
1.8844930e-06 3.2974788e-07 4.4376048e-08 
7.9768978e-07 -1.5897980e-06 -2.3911974e-07 
1.8016256e-06 1.3129849e-07 6.0991295e-07 
1.2794517e-06 3.3311949e-07 -1.0784212e-06 
1.4997991e-06 -9.3232887e-07 -1.3572333e-06 
1.8113161e-06 8.0903874e-07 -1.1605432e-07 
1.3988920e-06 -8.9769333e-07 1.4623488e-06 
-5.9172305e-07 -1.9671966e-06 4.3433629e-06 
7.2583816e-07 3.8478387e-07 -2.3045541e-06 
1.7015261e-06 -5.9344632e-07 -1.2635363e-06 
-2.0516686e-06 -1.9956797e-06 -4.3199211e-06 
5.5680666e-06 7.9756046e-06 -6.0506486e-06 
6.8221511e-06 -1.2788321e-05 -1.0684871e-05 
1.6288443e-05 -5.6993608e-06 -1.4984209e-05 
3.2148695e-05 -5.2016849e-06 -9.3342614e-06 
4.3093129e-05 -1.8076067e-05 -8.4011017e-06 
4.6421097e-05 -1.5071005e-05 -2.4872409e-06 
4.6752968e-05 -1.0484835e-05 7.6321394e-06 
3.7344569e-05 -9.5962250e-06 1.2041972e-05 
2.7793114e-05 -8.6792434e-06 1.7374658e-05 
1.9003126e-05 -4.5010279e-06 1.2409136e-05 
9.2994997e-06 -4.2072343e-06 7.6367396e-06 
5.4508519e-06 -2.1381641e-06 9.1575630e-06 
1.0800304e-06 4.6890787e-07 -4.4775561e-07 
2.0319237e-06 -1.3158051e-07 -1.8868708e-06 
-1.7347485e-06 -7.8094706e-07 1.8537745e-06 
8.3474288e-07 1.5361944e-06 1.0594666e-06 
-3.2706954e-08 -5.1616001e-07 -1.6821602e-06 
-4.7462510e-07 3.2999455e-06 1.5238899e-06 
-3.7866718e-07 3.4511827e-06 -1.1983292e-06 
1.5226350e-06 -6.0577836e-06 -3.3595843e-06 
3.4830505e-06 2.7544979e-06 -7.2091225e-06 
1.5049890e-05 -5.7252510e-06 -8.7310809e-06 
2.1622249e-05 -1.1825956e-05 -1.0877959e-05 
2.9683159e-05 -1.0239210e-05 -1.4794941e-05 
4.3534794e-05 -1.7276572e-05 -8.9319519e-06 
4.4309611e-05 -1.6033533e-05 -3.9492465e-06 
4.7148682e-05 -1.2959436e-05 6.4872452e-06 
3.8499915e-05 -1.3232165e-05 1.4144362e-05 
2.6714142e-05 -8.0225054e-06 1.4310208e-05 
1.4376714e-05 -3.2598489e-06 1.2539636e-05 
9.1020365e-06 -1.3476998e-06 1.0063037e-05 
4.5763923e-06 -8.5020002e-07 7.0327351e-06 
5.0230153e-07 7.8657806e-08 1.6354260e-06 
-3.8878011e-07 8.1045278e-07 3.7473492e-07 
0.0000000e+00 -5.2698983e-06 0.0000000e+00 
0.0000000e+00 -8.0377395e-06 0.0000000e+00 
0.0000000e+00 -9.1152087e-06 0.0000000e+00 
0.0000000e+00 -7.0232572e-06 0.0000000e+00 
0.0000000e+00 -7.1212298e-06 0.0000000e+00 
0.0000000e+00 -9.3299695e-06 0.0000000e+00 
0.0000000e+00 -7.2455437e-06 0.0000000e+00 
0.0000000e+00 -9.2673445e-06 0.0000000e+00 
0.0000000e+00 -1.5018482e-05 0.0000000e+00 
0.0000000e+00 -8.0544223e-06 0.0000000e+00 
0.0000000e+00 -4.5854313e-06 0.0000000e+00 
0.0000000e+00 -1.6183260e-05 0.0000000e+00 
0.0000000e+00 1.9357846e-07 0.0000000e+00 
0.0000000e+00 -5.3736944e-06 0.0000000e+00 
0.0000000e+00 -6.9818780e-06 0.0000000e+00 
0.0000000e+00 -3.6696804e-06 0.0000000e+00 
0.0000000e+00 2.0842199e-05 0.0000000e+00 
0.0000000e+00 -1.1790247e-04 0.0000000e+00 
0.0000000e+00 -1.8306264e-04 0.0000000e+00 
0.0000000e+00 -3.9448318e-04 0.0000000e+00 
0.0000000e+00 -5.1647524e-04 0.0000000e+00 
0.0000000e+00 -5.3336855e-04 0.0000000e+00 
0.0000000e+00 -5.1885156e-04 0.0000000e+00 
0.0000000e+00 -3.6082460e-04 0.0000000e+00 
0.0000000e+00 -1.2058226e-04 0.0000000e+00 
0.0000000e+00 -1.0847460e-05 0.0000000e+00 
0.0000000e+00 2.0247497e-05 0.0000000e+00 
0.0000000e+00 1.8153039e-05 0.0000000e+00 
0.0000000e+00 -3.8316816e-06 0.0000000e+00 
0.0000000e+00 -1.2363692e-05 0.0000000e+00 
0.0000000e+00 -1.5319418e-06 0.0000000e+00 
0.0000000e+00 -1.3889685e-05 0.0000000e+00 
0.0000000e+00 -1.6614322e-05 0.0000000e+00 
0.0000000e+00 1.0040849e-05 0.0000000e+00 
0.0000000e+00 -1.1790980e-05 0.0000000e+00 
0.0000000e+00 -5.5548348e-06 0.0000000e+00 
0.0000000e+00 -3.6377696e-06 0.0000000e+00 
0.0000000e+00 -9.2609058e-05 0.0000000e+00 
0.0000000e+00 -2.3823972e-04 0.0000000e+00 
0.0000000e+00 -3.5996261e-04 0.0000000e+00 
0.0000000e+00 -5.0481420e-04 0.0000000e+00 
0.0000000e+00 -5.2031036e-04 0.0000000e+00 
0.0000000e+00 -4.4343606e-04 0.0000000e+00 
0.0000000e+00 -2.9235845e-04 0.0000000e+00 
0.0000000e+00 -1.1795016e-04 0.0000000e+00 
0.0000000e+00 -1.6091306e-05 0.0000000e+00 
0.0000000e+00 1.7429593e-05 0.0000000e+00 
0.0000000e+00 9.0269505e-06 0.0000000e+00 
0.0000000e+00 3.9516767e-06 0.0000000e+00 
-4.2409008e-07 3.2503735e-07 6.1292172e-07 
-1.4481279e-07 -5.3071739e-07 4.8370657e-07 
8.4132330e-07 8.6028734e-07 1.8649762e-06 
1.4714597e-06 -3.8153294e-07 2.2297293e-06 
-1.3271678e-06 4.8576015e-07 -7.7830759e-07 
-7.3866556e-07 7.2298155e-07 -1.8758672e-06 
-2.7248640e-07 1.0320641e-06 -2.6618077e-06 
6.7482409e-07 7.7980658e-08 -1.9107704e-06 
-9.9498334e-07 5.4132289e-07 8.5682780e-07 
-1.0945989e-06 3.5657914e-07 -2.1895391e-07 
7.5599172e-07 -1.2677866e-06 4.2826064e-06 
2.6275103e-07 2.0529586e-07 2.5415118e-06 
0.0000000e+00 -7.8984458e-06 0.0000000e+00 
0.0000000e+00 -1.1783258e-05 0.0000000e+00 
0.0000000e+00 -1.4739888e-05 0.0000000e+00 
0.0000000e+00 -1.1664196e-05 0.0000000e+00 
0.0000000e+00 -1.0535688e-05 0.0000000e+00 
0.0000000e+00 -1.3995765e-05 0.0000000e+00 
0.0000000e+00 -1.5541069e-05 0.0000000e+00 
0.0000000e+00 -1.4208027e-05 0.0000000e+00 
0.0000000e+00 -1.9892321e-05 0.0000000e+00 
0.0000000e+00 -1.3463940e-05 0.0000000e+00 
0.0000000e+00 -1.3954983e-05 0.0000000e+00 
0.0000000e+00 -2.6823256e-05 0.0000000e+00 
0.0000000e+00 -3.4232926e-06 0.0000000e+00 
0.0000000e+00 -9.5584273e-06 0.0000000e+00 