# vtk DataFile Version 4.0
vtk output
ASCII
DATASET UNSTRUCTURED_GRID
POINTS 1919 float
0.0000000e+00 0.0000000e+00 0.0000000e+00 
0.0000000e+00 0.0000000e+00 5.0000000e+01 
5.0000000e+00 0.0000000e+00 0.0000000e+00 
5.0000000e+00 0.0000000e+00 5.0000000e+01 
5.0000000e+00 1.0000000e+00 0.0000000e+00 
5.0000000e+00 1.0000000e+00 5.0000000e+01 
0.0000000e+00 1.0000000e+00 0.0000000e+00 
0.0000000e+00 1.0000000e+00 5.0000000e+01 
5.0000000e+00 2.0000000e+00 0.0000000e+00 
5.0000000e+00 2.0000000e+00 5.0000000e+01 
3.0000000e+00 2.0000000e+00 0.0000000e+00 
3.0000000e+00 2.0000000e+00 5.0000000e+01 
0.0000000e+00 2.0000000e+00 0.0000000e+00 
0.0000000e+00 2.0000000e+00 5.0000000e+01 
1.5000000e+00 3.0000000e+00 0.0000000e+00 
1.5000000e+00 3.0000000e+00 5.0000000e+01 
7.5000000e-01 3.0000000e+00 0.0000000e+00 
7.5000000e-01 3.0000000e+00 5.0000000e+01 
0.0000000e+00 3.0000000e+00 0.0000000e+00 
0.0000000e+00 3.0000000e+00 5.0000000e+01 
7.5000000e-01 3.0000000e+00 5.0000000e-01 
7.5000000e-01 3.0000000e+00 1.0000000e+00 
7.5000000e-01 3.0000000e+00 1.5000000e+00 
7.5000000e-01 3.0000000e+00 2.0000000e+00 
7.5000000e-01 3.0000000e+00 2.5000000e+00 
7.5000000e-01 3.0000000e+00 3.0000000e+00 
7.5000000e-01 3.0000000e+00 3.5000000e+00 
7.5000000e-01 3.0000000e+00 4.0000000e+00 
7.5000000e-01 3.0000000e+00 4.5000000e+00 
7.5000000e-01 3.0000000e+00 5.0000000e+00 
7.5000000e-01 3.0000000e+00 5.5000000e+00 
7.5000000e-01 3.0000000e+00 6.0000000e+00 
7.5000000e-01 3.0000000e+00 6.5000000e+00 
7.5000000e-01 3.0000000e+00 7.0000000e+00 
7.5000000e-01 3.0000000e+00 7.5000000e+00 
7.5000000e-01 3.0000000e+00 8.0000000e+00 
7.5000000e-01 3.0000000e+00 8.5000000e+00 
7.5000000e-01 3.0000000e+00 9.0000000e+00 
7.5000000e-01 3.0000000e+00 9.5000000e+00 
7.5000000e-01 3.0000000e+00 1.0000000e+01 
7.5000000e-01 3.0000000e+00 1.0500000e+01 
7.5000000e-01 3.0000000e+00 1.1000000e+01 
7.5000000e-01 3.0000000e+00 1.1500000e+01 
7.5000000e-01 3.0000000e+00 1.2000000e+01 
7.5000000e-01 3.0000000e+00 1.2500000e+01 
7.5000000e-01 3.0000000e+00 1.3000000e+01 
7.5000000e-01 3.0000000e+00 1.3500000e+01 
7.5000000e-01 3.0000000e+00 1.4000000e+01 
7.5000000e-01 3.0000000e+00 1.4500000e+01 
7.5000000e-01 3.0000000e+00 1.5000000e+01 
7.5000000e-01 3.0000000e+00 1.5500000e+01 
7.5000000e-01 3.0000000e+00 1.6000000e+01 
7.5000000e-01 3.0000000e+00 1.6500000e+01 
7.5000000e-01 3.0000000e+00 1.7000000e+01 
7.5000000e-01 3.0000000e+00 1.7500000e+01 
7.5000000e-01 3.0000000e+00 1.8000000e+01 
7.5000000e-01 3.0000000e+00 1.8500000e+01 
7.5000000e-01 3.0000000e+00 1.9000000e+01 
7.5000000e-01 3.0000000e+00 1.9500000e+01 
7.5000000e-01 3.0000000e+00 2.0000000e+01 
7.5000000e-01 3.0000000e+00 2.0500000e+01 
7.5000000e-01 3.0000000e+00 2.1000000e+01 
7.5000000e-01 3.0000000e+00 2.1500000e+01 
7.5000000e-01 3.0000000e+00 2.2000000e+01 
7.5000000e-01 3.0000000e+00 2.2500000e+01 
7.5000000e-01 3.0000000e+00 2.3000000e+01 
7.5000000e-01 3.0000000e+00 2.3500000e+01 
7.5000000e-01 3.0000000e+00 2.4000000e+01 
7.5000000e-01 3.0000000e+00 2.4500000e+01 
7.5000000e-01 3.0000000e+00 2.5000000e+01 
7.5000000e-01 3.0000000e+00 2.5500000e+01 
7.5000000e-01 3.0000000e+00 2.6000000e+01 
7.5000000e-01 3.0000000e+00 2.6500000e+01 
7.5000000e-01 3.0000000e+00 2.7000000e+01 
7.5000000e-01 3.0000000e+00 2.7500000e+01 
7.5000000e-01 3.0000000e+00 2.8000000e+01 
7.5000000e-01 3.0000000e+00 2.8500000e+01 
7.5000000e-01 3.0000000e+00 2.9000000e+01 
7.5000000e-01 3.0000000e+00 2.9500000e+01 
7.5000000e-01 3.0000000e+00 3.0000000e+01 
7.5000000e-01 3.0000000e+00 3.0500000e+01 
7.5000000e-01 3.0000000e+00 3.1000000e+01 
7.5000000e-01 3.0000000e+00 3.1500000e+01 
7.5000000e-01 3.0000000e+00 3.2000000e+01 
7.5000000e-01 3.0000000e+00 3.2500000e+01 
7.5000000e-01 3.0000000e+00 3.3000000e+01 
7.5000000e-01 3.0000000e+00 3.3500000e+01 
7.5000000e-01 3.0000000e+00 3.4000000e+01 
7.5000000e-01 3.0000000e+00 3.4500000e+01 
7.5000000e-01 3.0000000e+00 3.5000000e+01 
7.5000000e-01 3.0000000e+00 3.5500000e+01 
7.5000000e-01 3.0000000e+00 3.6000000e+01 
7.5000000e-01 3.0000000e+00 3.6500000e+01 
7.5000000e-01 3.0000000e+00 3.7000000e+01 
7.5000000e-01 3.0000000e+00 3.7500000e+01 
7.5000000e-01 3.0000000e+00 3.8000000e+01 
7.5000000e-01 3.0000000e+00 3.8500000e+01 
7.5000000e-01 3.0000000e+00 3.9000000e+01 
7.5000000e-01 3.0000000e+00 3.9500000e+01 
7.5000000e-01 3.0000000e+00 4.0000000e+01 
7.5000000e-01 3.0000000e+00 4.0500000e+01 
7.5000000e-01 3.0000000e+00 4.1000000e+01 
7.5000000e-01 3.0000000e+00 4.1500000e+01 
7.5000000e-01 3.0000000e+00 4.2000000e+01 
7.5000000e-01 3.0000000e+00 4.2500000e+01 
7.5000000e-01 3.0000000e+00 4.3000000e+01 
7.5000000e-01 3.0000000e+00 4.3500000e+01 
7.5000000e-01 3.0000000e+00 4.4000000e+01 
7.5000000e-01 3.0000000e+00 4.4500000e+01 
7.5000000e-01 3.0000000e+00 4.5000000e+01 
7.5000000e-01 3.0000000e+00 4.5500000e+01 
7.5000000e-01 3.0000000e+00 4.6000000e+01 
7.5000000e-01 3.0000000e+00 4.6500000e+01 
7.5000000e-01 3.0000000e+00 4.7000000e+01 
7.5000000e-01 3.0000000e+00 4.7500000e+01 
7.5000000e-01 3.0000000e+00 4.8000000e+01 
7.5000000e-01 3.0000000e+00 4.8500000e+01 
7.5000000e-01 3.0000000e+00 4.9000000e+01 
7.5000000e-01 3.0000000e+00 4.9500000e+01 
7.5000000e-01 3.0250001e+00 0.0000000e+00 
7.5000000e-01 3.0250001e+00 5.0000000e-01 
7.5000000e-01 3.0250001e+00 1.0000000e+00 
7.5000000e-01 3.0250001e+00 1.5000000e+00 
7.5000000e-01 3.0250001e+00 2.0000000e+00 
7.5000000e-01 3.0250001e+00 2.5000000e+00 
7.5000000e-01 3.0250001e+00 3.0000000e+00 
7.5000000e-01 3.0250001e+00 3.5000000e+00 
7.5000000e-01 3.0250001e+00 4.0000000e+00 
7.5000000e-01 3.0250001e+00 4.5000000e+00 
7.5000000e-01 3.0250001e+00 5.0000000e+00 
7.5000000e-01 3.0250001e+00 5.5000000e+00 
7.5000000e-01 3.0250001e+00 6.0000000e+00 
7.5000000e-01 3.0250001e+00 6.5000000e+00 
7.5000000e-01 3.0250001e+00 7.0000000e+00 
7.5000000e-01 3.0250001e+00 7.5000000e+00 
7.5000000e-01 3.0250001e+00 8.0000000e+00 
7.5000000e-01 3.0250001e+00 8.5000000e+00 
7.5000000e-01 3.0250001e+00 9.0000000e+00 
7.5000000e-01 3.0250001e+00 9.5000000e+00 
7.5000000e-01 3.0250001e+00 1.0000000e+01 
7.5000000e-01 3.0250001e+00 1.0500000e+01 
7.5000000e-01 3.0250001e+00 1.1000000e+01 
7.5000000e-01 3.0250001e+00 1.1500000e+01 
7.5000000e-01 3.0250001e+00 1.2000000e+01 
7.5000000e-01 3.0250001e+00 1.2500000e+01 
7.5000000e-01 3.0250001e+00 1.3000000e+01 
7.5000000e-01 3.0250001e+00 1.3500000e+01 
7.5000000e-01 3.0250001e+00 1.4000000e+01 
7.5000000e-01 3.0250001e+00 1.4500000e+01 
7.5000000e-01 3.0250001e+00 1.5000000e+01 
7.5000000e-01 3.0250001e+00 1.5500000e+01 
7.5000000e-01 3.0250001e+00 1.6000000e+01 
7.5000000e-01 3.0250001e+00 1.6500000e+01 
7.5000000e-01 3.0250001e+00 1.7000000e+01 
7.5000000e-01 3.0250001e+00 1.7500000e+01 
7.5000000e-01 3.0250001e+00 1.8000000e+01 
7.5000000e-01 3.0250001e+00 1.8500000e+01 
7.5000000e-01 3.0250001e+00 1.9000000e+01 
7.5000000e-01 3.0250001e+00 1.9500000e+01 
7.5000000e-01 3.0250001e+00 2.0000000e+01 
7.5000000e-01 3.0250001e+00 2.0500000e+01 
7.5000000e-01 3.0250001e+00 2.1000000e+01 
7.5000000e-01 3.0250001e+00 2.1500000e+01 
7.5000000e-01 3.0250001e+00 2.2000000e+01 
7.5000000e-01 3.0250001e+00 2.2500000e+01 
7.5000000e-01 3.0250001e+00 2.3000000e+01 
7.5000000e-01 3.0250001e+00 2.3500000e+01 
7.5000000e-01 3.0250001e+00 2.4000000e+01 
7.5000000e-01 3.0250001e+00 2.4500000e+01 
7.5000000e-01 3.0250001e+00 2.5000000e+01 
7.5000000e-01 3.0250001e+00 2.5500000e+01 
7.5000000e-01 3.0250001e+00 2.6000000e+01 
7.5000000e-01 3.0250001e+00 2.6500000e+01 
7.5000000e-01 3.0250001e+00 2.7000000e+01 
7.5000000e-01 3.0250001e+00 2.7500000e+01 
7.5000000e-01 3.0250001e+00 2.8000000e+01 
7.5000000e-01 3.0250001e+00 2.8500000e+01 
7.5000000e-01 3.0250001e+00 2.9000000e+01 
7.5000000e-01 3.0250001e+00 2.9500000e+01 
7.5000000e-01 3.0250001e+00 3.0000000e+01 
7.5000000e-01 3.0250001e+00 3.0500000e+01 
7.5000000e-01 3.0250001e+00 3.1000000e+01 
7.5000000e-01 3.0250001e+00 3.1500000e+01 
7.5000000e-01 3.0250001e+00 3.2000000e+01 
7.5000000e-01 3.0250001e+00 3.2500000e+01 
7.5000000e-01 3.0250001e+00 3.3000000e+01 
7.5000000e-01 3.0250001e+00 3.3500000e+01 
7.5000000e-01 3.0250001e+00 3.4000000e+01 
7.5000000e-01 3.0250001e+00 3.4500000e+01 
7.5000000e-01 3.0250001e+00 3.5000000e+01 
7.5000000e-01 3.0250001e+00 3.5500000e+01 
7.5000000e-01 3.0250001e+00 3.6000000e+01 
7.5000000e-01 3.0250001e+00 3.6500000e+01 
7.5000000e-01 3.0250001e+00 3.7000000e+01 
7.5000000e-01 3.0250001e+00 3.7500000e+01 
7.5000000e-01 3.0250001e+00 3.8000000e+01 
7.5000000e-01 3.0250001e+00 3.8500000e+01 
7.5000000e-01 3.0250001e+00 3.9000000e+01 
7.5000000e-01 3.0250001e+00 3.9500000e+01 
7.5000000e-01 3.0250001e+00 4.0000000e+01 
7.5000000e-01 3.0250001e+00 4.0500000e+01 
7.5000000e-01 3.0250001e+00 4.1000000e+01 
7.5000000e-01 3.0250001e+00 4.1500000e+01 
7.5000000e-01 3.0250001e+00 4.2000000e+01 
7.5000000e-01 3.0250001e+00 4.2500000e+01 
7.5000000e-01 3.0250001e+00 4.3000000e+01 
7.5000000e-01 3.0250001e+00 4.3500000e+01 
7.5000000e-01 3.0250001e+00 4.4000000e+01 
7.5000000e-01 3.0250001e+00 4.4500000e+01 
7.5000000e-01 3.0250001e+00 4.5000000e+01 
7.5000000e-01 3.0250001e+00 4.5500000e+01 
7.5000000e-01 3.0250001e+00 4.6000000e+01 
7.5000000e-01 3.0250001e+00 4.6500000e+01 
7.5000000e-01 3.0250001e+00 4.7000000e+01 
7.5000000e-01 3.0250001e+00 4.7500000e+01 
7.5000000e-01 3.0250001e+00 4.8000000e+01 
7.5000000e-01 3.0250001e+00 4.8500000e+01 
7.5000000e-01 3.0250001e+00 4.9000000e+01 
7.5000000e-01 3.0250001e+00 4.9500000e+01 
7.5000000e-01 3.0250001e+00 5.0000000e+01 
1.5000000e+00 3.0000000e+00 2.5000000e+01 
3.0000000e+00 2.0000000e+00 2.5000000e+01 
4.0000000e+00 2.0000000e+00 2.5000000e+01 
5.0000000e+00 2.0000000e+00 2.5000000e+01 
0.0000000e+00 3.0000000e+00 2.5000000e+01 
0.0000000e+00 0.0000000e+00 1.0000000e+00 
0.0000000e+00 0.0000000e+00 2.0000000e+00 
0.0000000e+00 0.0000000e+00 3.0000000e+00 
0.0000000e+00 0.0000000e+00 4.0000000e+00 
0.0000000e+00 0.0000000e+00 5.0000000e+00 
[...]
POINT_DATA 1919
FIELD FieldData 3
DISPLACEMENT 3 1919  float
0.0000000e+00 0.0000000e+00 0.0000000e+00 
0.0000000e+00 0.0000000e+00 0.0000000e+00 
0.0000000e+00 0.0000000e+00 0.0000000e+00 
0.0000000e+00 0.0000000e+00 0.0000000e+00 
-3.8340690e-06 -2.1816743e-06 1.1070225e-06 
3.7181948e-07 -1.1150680e-06 2.7813516e-07 
0.0000000e+00 -2.8378681e-06 0.0000000e+00 
0.0000000e+00 1.1854964e-06 0.0000000e+00 
2.6379430e-06 -5.9999825e-06 -6.0982907e-06 
5.4560047e-07 -1.2526455e-06 3.3645807e-07 
-3.8361377e-06 6.5174868e-06 9.8816436e-06 
-8.1524485e-07 -1.8500863e-06 2.0117200e-06 
0.0000000e+00 -2.4707700e-07 0.0000000e+00 
0.0000000e+00 2.2764591e-06 0.0000000e+00 
-1.5358955e-05 6.7091437e-06 4.5080909e-05 
1.1978294e-06 -1.1399757e-06 1.7676507e-06 
-3.0826846e-05 -4.2756721e-05 4.0271127e-05 
-1.9629019e-06 4.7075767e-07 -1.0964598e-06 
0.0000000e+00 -1.5415681e-05 0.0000000e+00 
0.0000000e+00 -6.7201233e-07 0.0000000e+00 
-2.4996551e-05 -3.9609797e-05 1.8452969e-05 
-3.3229684e-05 -3.3391661e-05 1.3743575e-05 
-3.7969832e-05 -3.0280806e-05 9.4922161e-06 
-4.3537555e-05 -3.2908312e-05 1.2238388e-05 
-4.5549790e-05 -3.8644652e-05 1.3162839e-05 
-4.5907917e-05 -4.3923355e-05 8.5156025e-06 
-4.0087001e-05 -4.4607848e-05 1.0426569e-05 
-3.4916324e-05 -3.6397094e-05 9.7892707e-06 
-2.5866912e-05 -2.5882986e-05 4.8017228e-06 
-2.6915934e-05 -2.3955597e-05 7.1294544e-06 
-1.4117208e-05 -3.3909022e-05 9.5208525e-06 
-2.6504837e-05 -4.4625660e-05 9.6282338e-06 
-2.9701421e-05 -4.1006639e-05 -1.6275123e-06 
-2.9211817e-05 -1.4197361e-05 -1.7182040e-06 
-2.0903837e-05 2.0620753e-05 1.2612883e-06 
-2.8497310e-05 3.7023394e-05 3.7200839e-06 
-3.4519093e-05 2.6790500e-05 1.1142514e-06 
-3.9554037e-05 6.4868314e-06 2.8467151e-05 
-5.9093822e-05 4.8352576e-06 4.3080967e-05 
-6.2031446e-05 3.0589817e-05 4.5250421e-05 
-7.0277703e-05 1.1559039e-05 9.1070164e-05 
-8.1072300e-05 -1.8798893e-04 9.6352189e-05 
-1.1866802e-04 -6.5702305e-04 1.6659194e-04 
-1.4939489e-04 -1.3938344e-03 1.3266083e-04 
-2.0579799e-04 -2.3680178e-03 2.2889746e-04 
-2.1127849e-04 -3.4902529e-03 5.4068099e-05 
-2.7173405e-04 -4.5924336e-03 1.2604523e-04 
-2.8184941e-04 -5.1548714e-03 -2.1776161e-05 
-2.3916426e-04 -4.8480127e-03 -9.9841280e-05 
-2.1379777e-04 -4.4078319e-03 -8.3604478e-05 
-1.5925810e-04 -4.3873866e-03 -2.4865561e-05 
-1.8093684e-04 -4.6257037e-03 -1.3316843e-04 
-2.0718740e-04 -4.4878735e-03 -1.4882736e-04 
-3.2376457e-04 -3.3835324e-03 -3.1537662e-04 
-7.6113887e-05 -1.9648720e-03 -1.4388692e-04 
-1.4972363e-05 -8.6563826e-04 -2.4306957e-05 
-3.7406942e-06 -2.1505961e-04 -5.7377816e-05 
-2.5272788e-05 9.1910937e-05 3.2434084e-06 
-3.9532140e-05 1.9492272e-04 1.5327765e-05 
-4.8103590e-05 1.8034810e-04 2.3072904e-05 
-5.8469253e-05 1.0848819e-04 1.9143779e-05 
-6.0800161e-05 3.4206041e-05 5.8468731e-06 
-5.7656449e-05 -2.4345043e-06 -5.9478348e-06 
-4.0078347e-05 -2.3089949e-06 -1.2648857e-05 
-3.7568909e-05 7.9043275e-06 -2.6100804e-05 
-2.4108007e-05 6.6319776e-06 -3.4509540e-05 
-9.4946254e-06 -4.8353959e-06 -3.0599625e-05 
-5.5215273e-06 -6.8457971e-06 -1.0045459e-06 
6.4745016e-08 7.5415769e-06 1.1914308e-05 
-5.2086539e-06 2.6629043e-05 1.8319732e-05 
1.0031125e-06 3.0920262e-05 4.2634433e-06 
1.1343294e-06 1.6657599e-05 -8.0840691e-06 
2.1942536e-07 -1.1341837e-06 -7.6415454e-06 
-7.6747556e-06 1.9067164e-06 -6.5403647e-06 
-1.3131818e-05 2.8388118e-05 4.9680762e-06 
-2.2483464e-05 5.7985460e-05 1.2392733e-05 
-2.7074308e-05 6.8505702e-05 1.5185055e-05 
-3.4134366e-05 4.5033328e-05 6.8062632e-06 
-6.0146249e-05 1.7247062e-06 1.4207157e-05 
-5.6573870e-05 -2.9592198e-05 2.9150031e-05 
-7.2011957e-05 -7.4746706e-05 8.7636115e-05 
-8.8981775e-05 -2.4261698e-04 9.2702234e-05 
-1.3509339e-04 -6.8199338e-04 1.8201882e-04 
-1.4599039e-04 -1.4952333e-03 1.2534548e-04 
-2.1523674e-04 -2.6495056e-03 2.0310018e-04 
-2.9195991e-04 -3.9070072e-03 3.1609507e-05 
-3.5052272e-04 -4.9119699e-03 1.1275032e-04 
-3.5477936e-04 -5.1233540e-03 -1.7729451e-06 
-2.9808684e-04 -4.7210320e-03 -1.1725250e-04 
-2.3460691e-04 -4.4015278e-03 -5.7513946e-05 
-1.8641747e-04 -4.5058527e-03 -1.9285759e-05 
-2.1928428e-04 -4.6428260e-03 -1.0825058e-04 
-1.8278215e-04 -4.1508074e-03 -1.4976044e-04 
-1.6397818e-04 -2.9128010e-03 -5.9722479e-05 
-1.0620863e-04 -1.6560627e-03 -1.5502425e-04 
-6.1315186e-05 -7.1953452e-04 -1.4196959e-04 
-1.5370433e-05 -1.3794063e-04 -4.6718891e-05 
-7.6679125e-06 1.4837272e-04 -1.9282996e-05 
-5.2266410e-06 2.2602372e-04 -1.5507774e-05 
-1.2510826e-05 1.8588665e-04 -7.5906983e-06 
-1.6803977e-05 1.1687801e-04 -2.2288873e-06 
-1.5627342e-05 6.6957829e-05 -1.2714068e-05 
-1.8087334e-05 4.1971507e-05 -2.2636397e-05 
-1.0537556e-05 2.5110052e-05 -3.6176127e-05 
3.2539566e-07 7.0658562e-06 -4.3799348e-05 
6.2137915e-06 -5.1851766e-06 -4.0350147e-05 
1.3752628e-05 -5.2705427e-06 -2.4653173e-05 
9.7585544e-06 3.8962742e-07 -7.3293672e-06 
9.2339485e-07 6.9491534e-07 7.4709051e-06 
1.8696653e-07 -5.1090242e-06 7.7567347e-06 
2.3496905e-06 -1.0430102e-05 -4.0751300e-07 
2.7619742e-06 -1.0601322e-05 -5.9410859e-06 
7.3731617e-06 -6.7504275e-06 -2.5334170e-06 
5.1560532e-06 -3.0005701e-06 2.9395696e-06 
-2.8877793e-07 -1.1428257e-06 8.3112009e-06 
-1.3498212e-06 1.9232675e-07 9.6219874e-06 
-1.1726927e-07 1.6481972e-06 5.5075411e-06 
-2.0523478e-06 2.1080511e-06 3.3363763e-06 
-5.4940807e-07 1.1961278e-06 1.9832894e-06 
0.0000000e+00 -4.2719996e-05 0.0000000e+00 
0.0000000e+00 -3.9560782e-05 0.0000000e+00 
0.0000000e+00 -3.3466193e-05 0.0000000e+00 
0.0000000e+00 -3.0409245e-05 0.0000000e+00 
0.0000000e+00 -3.2935914e-05 0.0000000e+00 
0.0000000e+00 -3.8744554e-05 0.0000000e+00 
0.0000000e+00 -4.4047989e-05 0.0000000e+00 
0.0000000e+00 -4.4281922e-05 0.0000000e+00 
0.0000000e+00 -3.6215588e-05 0.0000000e+00 
0.0000000e+00 -2.5987856e-05 0.0000000e+00 
0.0000000e+00 -2.4402640e-05 0.0000000e+00 
0.0000000e+00 -3.4309622e-05 0.0000000e+00 
0.0000000e+00 -4.4766075e-05 0.0000000e+00 
0.0000000e+00 -4.0141265e-05 0.0000000e+00 
0.0000000e+00 -1.3503583e-05 0.0000000e+00 
0.0000000e+00 2.0233636e-05 0.0000000e+00 
0.0000000e+00 3.6196427e-05 0.0000000e+00 
0.0000000e+00 2.6008624e-05 0.0000000e+00 
0.0000000e+00 6.6260795e-06 0.0000000e+00 
0.0000000e+00 7.5492062e-06 0.0000000e+00 
0.0000000e+00 3.3499440e-05 0.0000000e+00 
0.0000000e+00 1.0976014e-05 0.0000000e+00 
0.0000000e+00 -1.9085652e-04 0.0000000e+00 
0.0000000e+00 -6.5924140e-04 0.0000000e+00 
0.0000000e+00 -1.3974567e-03 0.0000000e+00 
0.0000000e+00 -2.3704243e-03 0.0000000e+00 
0.0000000e+00 -3.5056968e-03 0.0000000e+00 
0.0000000e+00 -4.6168389e-03 0.0000000e+00 
0.0000000e+00 -5.1913420e-03 0.0000000e+00 
0.0000000e+00 -4.8726378e-03 0.0000000e+00 
0.0000000e+00 -4.4334014e-03 0.0000000e+00 
0.0000000e+00 -4.4064233e-03 0.0000000e+00 
0.0000000e+00 -4.6553472e-03 0.0000000e+00 
0.0000000e+00 -4.5167380e-03 0.0000000e+00 
0.0000000e+00 -3.4010021e-03 0.0000000e+00 
0.0000000e+00 -1.9824519e-03 0.0000000e+00 
0.0000000e+00 -8.7265548e-04 0.0000000e+00 
0.0000000e+00 -2.1523482e-04 0.0000000e+00 
0.0000000e+00 9.3777111e-05 0.0000000e+00 
0.0000000e+00 1.9556624e-04 0.0000000e+00 
0.0000000e+00 1.8072539e-04 0.0000000e+00 
0.0000000e+00 1.0927605e-04 0.0000000e+00 
0.0000000e+00 3.5628353e-05 0.0000000e+00 
0.0000000e+00 -1.7704892e-06 0.0000000e+00 
0.0000000e+00 -2.6128071e-06 0.0000000e+00 
0.0000000e+00 7.2374746e-06 0.0000000e+00 
0.0000000e+00 6.1223459e-06 0.0000000e+00 
0.0000000e+00 -4.4731864e-06 0.0000000e+00 
0.0000000e+00 -6.4328315e-06 0.0000000e+00 
0.0000000e+00 7.8143648e-06 0.0000000e+00 
0.0000000e+00 2.6408476e-05 0.0000000e+00 
0.0000000e+00 3.0456787e-05 0.0000000e+00 
0.0000000e+00 1.6069387e-05 0.0000000e+00 
0.0000000e+00 -7.3243808e-07 0.0000000e+00 
0.0000000e+00 2.6518130e-06 0.0000000e+00 
0.0000000e+00 2.8854287e-05 0.0000000e+00 
0.0000000e+00 5.8224567e-05 0.0000000e+00 
0.0000000e+00 6.7446919e-05 0.0000000e+00 
0.0000000e+00 4.3903179e-05 0.0000000e+00 
0.0000000e+00 3.1488125e-06 0.0000000e+00 
0.0000000e+00 -2.6869420e-05 0.0000000e+00 
0.0000000e+00 -7.2367853e-05 0.0000000e+00 
0.0000000e+00 -2.4283909e-04 0.0000000e+00 
0.0000000e+00 -6.8680214e-04 0.0000000e+00 
0.0000000e+00 -1.5040755e-03 0.0000000e+00 
0.0000000e+00 -2.6549986e-03 0.0000000e+00 
0.0000000e+00 -3.9237291e-03 0.0000000e+00 
0.0000000e+00 -4.9332725e-03 0.0000000e+00 
0.0000000e+00 -5.1612868e-03 0.0000000e+00 
0.0000000e+00 -4.7453484e-03 0.0000000e+00 
0.0000000e+00 -4.4281003e-03 0.0000000e+00 
0.0000000e+00 -4.5244968e-03 0.0000000e+00 
0.0000000e+00 -4.6721324e-03 0.0000000e+00 
0.0000000e+00 -4.1766171e-03 0.0000000e+00 
0.0000000e+00 -2.9379625e-03 0.0000000e+00 
0.0000000e+00 -1.6651661e-03 0.0000000e+00 
0.0000000e+00 -7.2177348e-04 0.0000000e+00 
0.0000000e+00 -1.3904442e-04 0.0000000e+00 
0.0000000e+00 1.4814688e-04 0.0000000e+00 
0.0000000e+00 2.2651658e-04 0.0000000e+00 
0.0000000e+00 1.8784933e-04 0.0000000e+00 
0.0000000e+00 1.1832528e-04 0.0000000e+00 
0.0000000e+00 6.7368142e-05 0.0000000e+00 
0.0000000e+00 4.1541571e-05 0.0000000e+00 
0.0000000e+00 2.4706136e-05 0.0000000e+00 
0.0000000e+00 7.2730445e-06 0.0000000e+00 
0.0000000e+00 -4.7591657e-06 0.0000000e+00 
0.0000000e+00 -5.2439923e-06 0.0000000e+00 
0.0000000e+00 -5.5460035e-08 0.0000000e+00 
0.0000000e+00 5.0394971e-07 0.0000000e+00 
0.0000000e+00 -4.9362216e-06 0.0000000e+00 
0.0000000e+00 -1.0224602e-05 0.0000000e+00 
0.0000000e+00 -1.0571167e-05 0.0000000e+00 
0.0000000e+00 -6.8767231e-06 0.0000000e+00 
0.0000000e+00 -3.0872122e-06 0.0000000e+00 
0.0000000e+00 -1.0743308e-06 0.0000000e+00 
0.0000000e+00 2.5828439e-07 0.0000000e+00 
0.0000000e+00 1.5873741e-06 0.0000000e+00 
0.0000000e+00 2.0111386e-06 0.0000000e+00 
0.0000000e+00 1.2083962e-06 0.0000000e+00 
0.0000000e+00 5.5440313e-07 0.0000000e+00 
7.3143829e-06 2.3764082e-05 2.9420176e-05 
-2.9926137e-05 1.9130880e-06 1.0572015e-05 
-7.5192493e-06 1.4035683e-05 3.0200586e-06 
1.2254929e-05 -1.6750794e-06 2.8713762e-06 
0.0000000e+00 -1.2975104e-05 0.0000000e+00 
0.0000000e+00 0.0000000e+00 0.0000000e+00 
0.0000000e+00 0.0000000e+00 0.0000000e+00 
0.0000000e+00 0.0000000e+00 0.0000000e+00 
0.0000000e+00 0.0000000e+00 0.0000000e+00 
0.0000000e+00 0.0000000e+00 0.0000000e+00 
0.0000000e+00 0.0000000e+00 0.0000000e+00 
0.0000000e+00 0.0000000e+00 0.0000000e+00 
0.0000000e+00 0.0000000e+00 0.0000000e+00 
0.0000000e+00 0.0000000e+00 0.0000000e+00 
0.0000000e+00 0.0000000e+00 0.0000000e+00 
0.0000000e+00 0.0000000e+00 0.0000000e+00 
0.0000000e+00 0.0000000e+00 0.0000000e+00 
0.0000000e+00 0.0000000e+00 0.0000000e+00 
0.0000000e+00 0.0000000e+00 0.0000000e+00 
0.0000000e+00 0.0000000e+00 0.0000000e+00 
0.0000000e+00 0.0000000e+00 0.0000000e+00 
0.0000000e+00 0.0000000e+00 0.0000000e+00 
0.0000000e+00 0.0000000e+00 0.0000000e+00 
0.0000000e+00 0.0000000e+00 0.0000000e+00 
0.0000000e+00 0.0000000e+00 0.0000000e+00 
0.0000000e+00 0.0000000e+00 0.0000000e+00 
0.0000000e+00 0.0000000e+00 0.0000000e+00 
0.0000000e+00 0.0000000e+00 0.0000000e+00 
0.0000000e+00 0.0000000e+00 0.0000000e+00 
0.0000000e+00 0.0000000e+00 0.0000000e+00 
0.0000000e+00 0.0000000e+00 0.0000000e+00 
0.0000000e+00 0.0000000e+00 0.0000000e+00 
0.0000000e+00 0.0000000e+00 0.0000000e+00 
0.0000000e+00 0.0000000e+00 0.0000000e+00 
0.0000000e+00 0.0000000e+00 0.0000000e+00 
0.0000000e+00 0.0000000e+00 0.0000000e+00 
0.0000000e+00 0.0000000e+00 0.0000000e+00 
0.0000000e+00 0.0000000e+00 0.0000000e+00 
0.0000000e+00 0.0000000e+00 0.0000000e+00 
0.0000000e+00 0.0000000e+00 0.0000000e+00 
0.0000000e+00 0.0000000e+00 0.0000000e+00 
0.0000000e+00 0.0000000e+00 0.0000000e+00 
0.0000000e+00 0.0000000e+00 0.0000000e+00 
0.0000000e+00 0.0000000e+00 0.0000000e+00 
0.0000000e+00 0.0000000e+00 0.0000000e+00 
0.0000000e+00 0.0000000e+00 0.0000000e+00 
0.0000000e+00 0.0000000e+00 0.0000000e+00 
0.0000000e+00 0.0000000e+00 0.0000000e+00 
0.0000000e+00 0.0000000e+00 0.0000000e+00 
0.0000000e+00 0.0000000e+00 0.0000000e+00 
0.0000000e+00 0.0000000e+00 0.0000000e+00 
0.0000000e+00 0.0000000e+00 0.0000000e+00 
0.0000000e+00 0.0000000e+00 0.0000000e+00 
0.0000000e+00 0.0000000e+00 0.0000000e+00 
0.0000000e+00 0.0000000e+00 0.0000000e+00 
0.0000000e+00 0.0000000e+00 0.0000000e+00 
0.0000000e+00 0.0000000e+00 0.0000000e+00 
0.0000000e+00 0.0000000e+00 0.0000000e+00 
0.0000000e+00 0.0000000e+00 0.0000000e+00 
0.0000000e+00 0.0000000e+00 0.0000000e+00 
0.0000000e+00 0.0000000e+00 0.0000000e+00 
0.0000000e+00 0.0000000e+00 0.0000000e+00 
0.0000000e+00 0.0000000e+00 0.0000000e+00 
0.0000000e+00 0.0000000e+00 0.0000000e+00 
0.0000000e+00 0.0000000e+00 0.0000000e+00 
0.0000000e+00 0.0000000e+00 0.0000000e+00 
0.0000000e+00 0.0000000e+00 0.0000000e+00 
0.0000000e+00 0.0000000e+00 0.0000000e+00 
0.0000000e+00 0.0000000e+00 0.0000000e+00 
0.0000000e+00 0.0000000e+00 0.0000000e+00 
0.0000000e+00 0.0000000e+00 0.0000000e+00 
0.0000000e+00 0.0000000e+00 0.0000000e+00 
0.0000000e+00 0.0000000e+00 0.0000000e+00 
0.0000000e+00 0.0000000e+00 0.0000000e+00 
0.0000000e+00 0.0000000e+00 0.0000000e+00 
0.0000000e+00 0.0000000e+00 0.0000000e+00 
0.0000000e+00 0.0000000e+00 0.0000000e+00 
0.0000000e+00 0.0000000e+00 0.0000000e+00 
0.0000000e+00 0.0000000e+00 0.0000000e+00 
0.0000000e+00 0.0000000e+00 0.0000000e+00 
0.0000000e+00 0.0000000e+00 0.0000000e+00 
0.0000000e+00 0.0000000e+00 0.0000000e+00 
0.0000000e+00 0.0000000e+00 0.0000000e+00 
0.0000000e+00 0.0000000e+00 0.0000000e+00 
0.0000000e+00 0.0000000e+00 0.0000000e+00 
0.0000000e+00 0.0000000e+00 0.0000000e+00 
0.0000000e+00 0.0000000e+00 0.0000000e+00 
0.0000000e+00 0.0000000e+00 0.0000000e+00 
0.0000000e+00 0.0000000e+00 0.0000000e+00 
0.0000000e+00 0.0000000e+00 0.0000000e+00 
0.0000000e+00 0.0000000e+00 0.0000000e+00 
0.0000000e+00 0.0000000e+00 0.0000000e+00 
0.0000000e+00 0.0000000e+00 0.0000000e+00 
0.0000000e+00 0.0000000e+00 0.0000000e+00 
0.0000000e+00 0.0000000e+00 0.0000000e+00 
0.0000000e+00 0.0000000e+00 0.0000000e+00 
0.0000000e+00 0.0000000e+00 0.0000000e+00 
0.0000000e+00 0.0000000e+00 0.0000000e+00 
0.0000000e+00 0.0000000e+00 0.0000000e+00 
0.0000000e+00 0.0000000e+00 0.0000000e+00 
0.0000000e+00 0.0000000e+00 0.0000000e+00 
0.0000000e+00 0.0000000e+00 0.0000000e+00 
0.0000000e+00 0.0000000e+00 0.0000000e+00 
0.0000000e+00 0.0000000e+00 0.0000000e+00 
0.0000000e+00 0.0000000e+00 0.0000000e+00 
0.0000000e+00 0.0000000e+00 0.0000000e+00 
0.0000000e+00 0.0000000e+00 0.0000000e+00 
0.0000000e+00 0.0000000e+00 0.0000000e+00 
0.0000000e+00 0.0000000e+00 0.0000000e+00 
0.0000000e+00 0.0000000e+00 0.0000000e+00 
0.0000000e+00 0.0000000e+00 0.0000000e+00 
-8.3955865e-07 2.1710484e-07 1.7909503e-07 
-2.2005668e-06 2.7122826e-06 4.4714347e-06 
-1.0639718e-06 3.9305082e-06 5.6128574e-06 
9.7337409e-07 6.2276040e-06 4.0252672e-08 
5.9770275e-07 -3.5831831e-06 1.1600879e-06 
2.1415196e-06 6.0090447e-06 -2.0250677e-06 
6.2919248e-06 1.1009138e-06 -5.2245350e-06 
7.2408593e-06 -6.8244171e-06 -2.7790400e-06 
7.0920232e-06 1.0216178e-05 -9.0574331e-06 
1.7966995e-05 -2.4830360e-06 -1.6968967e-05 
2.2659673e-05 -1.2756859e-05 -1.8879058e-05 
3.7585956e-05 -2.0016721e-06 -1.6602671e-05 
4.5786863e-05 -1.5557905e-05 -1.3050068e-05 
4.4729779e-05 -1.8926021e-05 -4.1710914e-06 
4.1340751e-05 -1.7634797e-05 7.6687875e-06 
3.6423102e-05 -1.5630343e-05 9.1891970e-06 
3.1065229e-05 -1.2006553e-05 1.9832352e-05 
2.0257665e-05 -6.4238970e-06 1.9056211e-05 
1.2638185e-05 -2.8019281e-06 1.5500720e-05 
5.2789151e-06 -7.5009808e-07 1.4418035e-05 
2.3305004e-06 3.8218637e-08 8.8956995e-06 
5.3341405e-06 5.2530038e-07 1.3238629e-06 
2.9484220e-06 3.1237394e-06 8.1138012e-08 
2.0694745e-06 4.9449845e-06 -1.2543827e-06 
5.8866990e-06 5.0602915e-07 -4.8903294e-06 
6.6165289e-06 1.3803683e-06 1.0135174e-07 
5.5649798e-06 9.3246954e-06 -2.6813864e-06 
7.7160494e-06 -5.2087393e-07 -9.5002761e-06 
9.2460214e-06 2.9643309e-07 -1.2927772e-05 
2.4727551e-05 7.6090856e-07 -1.9877096e-05 
2.5427291e-05 -1.0040721e-05 -1.5049626e-05 
3.3630113e-05 -7.6227620e-06 -1.5895583e-05 
4.0795949e-05 -1.2264525e-05 -5.6427907e-06 
4.0670817e-05 -1.6336411e-05 3.0006925e-06 
4.1954201e-05 -1.4064127e-05 1.2856871e-05 
3.7244874e-05 -1.3751756e-05 2.2711720e-05 
2.8132776e-05 -9.8341052e-06 2.4590421e-05 
1.9225094e-05 -6.1876681e-06 2.1861493e-05 
1.2565317e-05 -5.4116244e-06 1.6664155e-05 
7.0863666e-06 -1.1887280e-06 1.0029794e-05 
2.2155245e-06 -2.2011722e-07 5.5277646e-06 
-3.7464815e-08 -9.0528772e-07 6.4930549e-07 
-3.7670117e-07 -9.3270927e-07 -1.7559551e-06 
-8.7380681e-07 8.5475438e-07 -1.9076554e-06 
-8.1116406e-07 -1.9513274e-07 -1.9137578e-06 
-2.1032986e-07 -4.9642665e-07 -1.4617729e-06 
1.9270888e-07 2.3197272e-07 -9.0583171e-07 
-2.6013592e-07 1.0459677e-06 -1.4219361e-07 
-5.6825911e-07 -3.8087784e-08 4.1188912e-07 
0.0000000e+00 2.9279381e-05 0.0000000e+00 
0.0000000e+00 2.9582805e-05 0.0000000e+00 
0.0000000e+00 2.8788891e-05 0.0000000e+00 
0.0000000e+00 3.8493348e-05 0.0000000e+00 
0.0000000e+00 2.1304382e-05 0.0000000e+00 
0.0000000e+00 1.5580417e-05 0.0000000e+00 
0.0000000e+00 4.1941654e-05 0.0000000e+00 
0.0000000e+00 1.6551581e-05 0.0000000e+00 
0.0000000e+00 2.3806049e-05 0.0000000e+00 
0.0000000e+00 3.2554148e-05 0.0000000e+00 
0.0000000e+00 -3.2544485e-05 0.0000000e+00 
0.0000000e+00 -1.6001746e-04 0.0000000e+00 
0.0000000e+00 -3.5793486e-04 0.0000000e+00 
0.0000000e+00 -5.5617077e-04 0.0000000e+00 
0.0000000e+00 -5.5016502e-04 0.0000000e+00 
0.0000000e+00 -5.0133903e-04 0.0000000e+00 
0.0000000e+00 -3.2948263e-04 0.0000000e+00 
0.0000000e+00 -1.1993864e-04 0.0000000e+00 
0.0000000e+00 -6.4504707e-06 0.0000000e+00 
0.0000000e+00 3.1791147e-05 0.0000000e+00 
0.0000000e+00 3.8687318e-05 0.0000000e+00 
0.0000000e+00 2.2104203e-05 0.0000000e+00 
0.0000000e+00 7.9678313e-07 0.0000000e+00 
0.0000000e+00 1.8045392e-05 0.0000000e+00 
0.0000000e+00 -9.1071070e-06 0.0000000e+00 
0.0000000e+00 -2.7685193e-05 0.0000000e+00 
0.0000000e+00 1.2620410e-05 0.0000000e+00 
0.0000000e+00 1.4653524e-05 0.0000000e+00 
0.0000000e+00 -2.3297120e-05 0.0000000e+00 
0.0000000e+00 3.2976513e-05 0.0000000e+00 
0.0000000e+00 -5.7283552e-05 0.0000000e+00 
0.0000000e+00 -2.3763612e-04 0.0000000e+00 
0.0000000e+00 -3.5655187e-04 0.0000000e+00 
0.0000000e+00 -5.7853130e-04 0.0000000e+00 
0.0000000e+00 -5.4370129e-04 0.0000000e+00 
0.0000000e+00 -4.8132139e-04 0.0000000e+00 
0.0000000e+00 -3.3437458e-04 0.0000000e+00 
0.0000000e+00 -1.2345957e-04 0.0000000e+00 
0.0000000e+00 1.0689225e-06 0.0000000e+00 
0.0000000e+00 1.3460002e-05 0.0000000e+00 
0.0000000e+00 1.0072223e-05 0.0000000e+00 
0.0000000e+00 4.6221617e-06 0.0000000e+00 
0.0000000e+00 -2.0131238e-06 0.0000000e+00 
0.0000000e+00 -6.0410508e-07 0.0000000e+00 
0.0000000e+00 1.4584911e-06 0.0000000e+00 
0.0000000e+00 9.9387455e-07 0.0000000e+00 
0.0000000e+00 1.3449725e-06 0.0000000e+00 
0.0000000e+00 -2.1082258e-06 0.0000000e+00 
0.0000000e+00 -1.5255862e-06 0.0000000e+00 
-1.7430114e-06 1.2642631e-06 2.6383993e-06 
-5.2500133e-07 6.4914457e-06 7.2133366e-06 
-5.7087760e-07 6.1446449e-06 5.7442903e-06 
-2.4284523e-07 2.6139421e-06 6.3944174e-07 
-4.2985377e-07 -1.0540468e-06 6.0342336e-07 
-5.4180362e-07 -9.5109766e-07 3.9693276e-07 
-6.3293942e-07 -9.2754362e-07 2.6850088e-07 
-5.5015613e-07 -2.2614087e-07 4.1241518e-07 
-6.6079593e-08 2.0910570e-06 1.4220376e-06 
-3.2585220e-07 -1.5271322e-06 1.7295348e-06 
1.6304258e-06 -1.8734746e-06 -2.7516276e-06 
4.0859629e-07 9.5474334e-06 1.3004887e-05 
0.0000000e+00 2.8556111e-05 0.0000000e+00 
0.0000000e+00 4.1219686e-05 0.0000000e+00 
0.0000000e+00 5.7428184e-05 0.0000000e+00 
0.0000000e+00 4.3090018e-05 0.0000000e+00 
0.0000000e+00 3.2552194e-05 0.0000000e+00 
0.0000000e+00 4.7727659e-05 0.0000000e+00 
0.0000000e+00 4.0524850e-05 0.0000000e+00 
0.0000000e+00 3.6890106e-05 0.0000000e+00 
0.0000000e+00 6.3734449e-05 0.0000000e+00 
0.0000000e+00 5.4060481e-05 0.0000000e+00 
0.0000000e+00 -1.3504221e-04 0.0000000e+00 
0.0000000e+00 -3.4997385e-04 0.0000000e+00 
0.0000000e+00 -8.9494715e-04 0.0000000e+00 