# vtk DataFile Version 4.0
vtk output
ASCII
DATASET UNSTRUCTURED_GRID
POINTS 1919 float
0.0000000e+00 0.0000000e+00 0.0000000e+00 
0.0000000e+00 0.0000000e+00 5.0000000e+01 
5.0000000e+00 0.0000000e+00 0.0000000e+00 
5.0000000e+00 0.0000000e+00 5.0000000e+01 
5.0000000e+00 1.0000000e+00 0.0000000e+00 
5.0000000e+00 1.0000000e+00 5.0000000e+01 
0.0000000e+00 1.0000000e+00 0.0000000e+00 
0.0000000e+00 1.0000000e+00 5.0000000e+01 
5.0000000e+00 2.0000000e+00 0.0000000e+00 
5.0000000e+00 2.0000000e+00 5.0000000e+01 
3.0000000e+00 2.0000000e+00 0.0000000e+00 
3.0000000e+00 2.0000000e+00 5.0000000e+01 
0.0000000e+00 2.0000000e+00 0.0000000e+00 
0.0000000e+00 2.0000000e+00 5.0000000e+01 
1.5000000e+00 3.0000000e+00 0.0000000e+00 
1.5000000e+00 3.0000000e+00 5.0000000e+01 
7.5000000e-01 3.0000000e+00 0.0000000e+00 
7.5000000e-01 3.0000000e+00 5.0000000e+01 
0.0000000e+00 3.0000000e+00 0.0000000e+00 
0.0000000e+00 3.0000000e+00 5.0000000e+01 
7.5000000e-01 3.0000000e+00 5.0000000e-01 
7.5000000e-01 3.0000000e+00 1.0000000e+00 
7.5000000e-01 3.0000000e+00 1.5000000e+00 
7.5000000e-01 3.0000000e+00 2.0000000e+00 
7.5000000e-01 3.0000000e+00 2.5000000e+00 
7.5000000e-01 3.0000000e+00 3.0000000e+00 
7.5000000e-01 3.0000000e+00 3.5000000e+00 
7.5000000e-01 3.0000000e+00 4.0000000e+00 
7.5000000e-01 3.0000000e+00 4.5000000e+00 
7.5000000e-01 3.0000000e+00 5.0000000e+00 
7.5000000e-01 3.0000000e+00 5.5000000e+00 
7.5000000e-01 3.0000000e+00 6.0000000e+00 
7.5000000e-01 3.0000000e+00 6.5000000e+00 
7.5000000e-01 3.0000000e+00 7.0000000e+00 
7.5000000e-01 3.0000000e+00 7.5000000e+00 
7.5000000e-01 3.0000000e+00 8.0000000e+00 
7.5000000e-01 3.0000000e+00 8.5000000e+00 
7.5000000e-01 3.0000000e+00 9.0000000e+00 
7.5000000e-01 3.0000000e+00 9.5000000e+00 
7.5000000e-01 3.0000000e+00 1.0000000e+01 
7.5000000e-01 3.0000000e+00 1.0500000e+01 
7.5000000e-01 3.0000000e+00 1.1000000e+01 
7.5000000e-01 3.0000000e+00 1.1500000e+01 
7.5000000e-01 3.0000000e+00 1.2000000e+01 
7.5000000e-01 3.0000000e+00 1.2500000e+01 
7.5000000e-01 3.0000000e+00 1.3000000e+01 
7.5000000e-01 3.0000000e+00 1.3500000e+01 
7.5000000e-01 3.0000000e+00 1.4000000e+01 
7.5000000e-01 3.0000000e+00 1.4500000e+01 
7.5000000e-01 3.0000000e+00 1.5000000e+01 
7.5000000e-01 3.0000000e+00 1.5500000e+01 
7.5000000e-01 3.0000000e+00 1.6000000e+01 
7.5000000e-01 3.0000000e+00 1.6500000e+01 
7.5000000e-01 3.0000000e+00 1.7000000e+01 
7.5000000e-01 3.0000000e+00 1.7500000e+01 
7.5000000e-01 3.0000000e+00 1.8000000e+01 
7.5000000e-01 3.0000000e+00 1.8500000e+01 
7.5000000e-01 3.0000000e+00 1.9000000e+01 
7.5000000e-01 3.0000000e+00 1.9500000e+01 
7.5000000e-01 3.0000000e+00 2.0000000e+01 
7.5000000e-01 3.0000000e+00 2.0500000e+01 
7.5000000e-01 3.0000000e+00 2.1000000e+01 
7.5000000e-01 3.0000000e+00 2.1500000e+01 
7.5000000e-01 3.0000000e+00 2.2000000e+01 
7.5000000e-01 3.0000000e+00 2.2500000e+01 
7.5000000e-01 3.0000000e+00 2.3000000e+01 
7.5000000e-01 3.0000000e+00 2.3500000e+01 
7.5000000e-01 3.0000000e+00 2.4000000e+01 
7.5000000e-01 3.0000000e+00 2.4500000e+01 
7.5000000e-01 3.0000000e+00 2.5000000e+01 
7.5000000e-01 3.0000000e+00 2.5500000e+01 
7.5000000e-01 3.0000000e+00 2.6000000e+01 
7.5000000e-01 3.0000000e+00 2.6500000e+01 
7.5000000e-01 3.0000000e+00 2.7000000e+01 
7.5000000e-01 3.0000000e+00 2.7500000e+01 
7.5000000e-01 3.0000000e+00 2.8000000e+01 
7.5000000e-01 3.0000000e+00 2.8500000e+01 
7.5000000e-01 3.0000000e+00 2.9000000e+01 
7.5000000e-01 3.0000000e+00 2.9500000e+01 
7.5000000e-01 3.0000000e+00 3.0000000e+01 
7.5000000e-01 3.0000000e+00 3.0500000e+01 
7.5000000e-01 3.0000000e+00 3.1000000e+01 
7.5000000e-01 3.0000000e+00 3.1500000e+01 
7.5000000e-01 3.0000000e+00 3.2000000e+01 
7.5000000e-01 3.0000000e+00 3.2500000e+01 
7.5000000e-01 3.0000000e+00 3.3000000e+01 
7.5000000e-01 3.0000000e+00 3.3500000e+01 
7.5000000e-01 3.0000000e+00 3.4000000e+01 
7.5000000e-01 3.0000000e+00 3.4500000e+01 
7.5000000e-01 3.0000000e+00 3.5000000e+01 
7.5000000e-01 3.0000000e+00 3.5500000e+01 
7.5000000e-01 3.0000000e+00 3.6000000e+01 
7.5000000e-01 3.0000000e+00 3.6500000e+01 
7.5000000e-01 3.0000000e+00 3.7000000e+01 
7.5000000e-01 3.0000000e+00 3.7500000e+01 
7.5000000e-01 3.0000000e+00 3.8000000e+01 
7.5000000e-01 3.0000000e+00 3.8500000e+01 
7.5000000e-01 3.0000000e+00 3.9000000e+01 
7.5000000e-01 3.0000000e+00 3.9500000e+01 
7.5000000e-01 3.0000000e+00 4.0000000e+01 
7.5000000e-01 3.0000000e+00 4.0500000e+01 
7.5000000e-01 3.0000000e+00 4.1000000e+01 
7.5000000e-01 3.0000000e+00 4.1500000e+01 
7.5000000e-01 3.0000000e+00 4.2000000e+01 
7.5000000e-01 3.0000000e+00 4.2500000e+01 
7.5000000e-01 3.0000000e+00 4.3000000e+01 
7.5000000e-01 3.0000000e+00 4.3500000e+01 
7.5000000e-01 3.0000000e+00 4.4000000e+01 
7.5000000e-01 3.0000000e+00 4.4500000e+01 
7.5000000e-01 3.0000000e+00 4.5000000e+01 
7.5000000e-01 3.0000000e+00 4.5500000e+01 
7.5000000e-01 3.0000000e+00 4.6000000e+01 
7.5000000e-01 3.0000000e+00 4.6500000e+01 
7.5000000e-01 3.0000000e+00 4.7000000e+01 
7.5000000e-01 3.0000000e+00 4.7500000e+01 
7.5000000e-01 3.0000000e+00 4.8000000e+01 
7.5000000e-01 3.0000000e+00 4.8500000e+01 
7.5000000e-01 3.0000000e+00 4.9000000e+01 
7.5000000e-01 3.0000000e+00 4.9500000e+01 
7.5000000e-01 3.0250001e+00 0.0000000e+00 
7.5000000e-01 3.0250001e+00 5.0000000e-01 
7.5000000e-01 3.0250001e+00 1.0000000e+00 
7.5000000e-01 3.0250001e+00 1.5000000e+00 
7.5000000e-01 3.0250001e+00 2.0000000e+00 
7.5000000e-01 3.0250001e+00 2.5000000e+00 
7.5000000e-01 3.0250001e+00 3.0000000e+00 
7.5000000e-01 3.0250001e+00 3.5000000e+00 
7.5000000e-01 3.0250001e+00 4.0000000e+00 
7.5000000e-01 3.0250001e+00 4.5000000e+00 
7.5000000e-01 3.0250001e+00 5.0000000e+00 
7.5000000e-01 3.0250001e+00 5.5000000e+00 
7.5000000e-01 3.0250001e+00 6.0000000e+00 
7.5000000e-01 3.0250001e+00 6.5000000e+00 
7.5000000e-01 3.0250001e+00 7.0000000e+00 
7.5000000e-01 3.0250001e+00 7.5000000e+00 
7.5000000e-01 3.0250001e+00 8.0000000e+00 
7.5000000e-01 3.0250001e+00 8.5000000e+00 
7.5000000e-01 3.0250001e+00 9.0000000e+00 
7.5000000e-01 3.0250001e+00 9.5000000e+00 
7.5000000e-01 3.0250001e+00 1.0000000e+01 
7.5000000e-01 3.0250001e+00 1.0500000e+01 
7.5000000e-01 3.0250001e+00 1.1000000e+01 
7.5000000e-01 3.0250001e+00 1.1500000e+01 
7.5000000e-01 3.0250001e+00 1.2000000e+01 
7.5000000e-01 3.0250001e+00 1.2500000e+01 
7.5000000e-01 3.0250001e+00 1.3000000e+01 
7.5000000e-01 3.0250001e+00 1.3500000e+01 
7.5000000e-01 3.0250001e+00 1.4000000e+01 
7.5000000e-01 3.0250001e+00 1.4500000e+01 
7.5000000e-01 3.0250001e+00 1.5000000e+01 
7.5000000e-01 3.0250001e+00 1.5500000e+01 
7.5000000e-01 3.0250001e+00 1.6000000e+01 
7.5000000e-01 3.0250001e+00 1.6500000e+01 
7.5000000e-01 3.0250001e+00 1.7000000e+01 
7.5000000e-01 3.0250001e+00 1.7500000e+01 
7.5000000e-01 3.0250001e+00 1.8000000e+01 
7.5000000e-01 3.0250001e+00 1.8500000e+01 
7.5000000e-01 3.0250001e+00 1.9000000e+01 
7.5000000e-01 3.0250001e+00 1.9500000e+01 
7.5000000e-01 3.0250001e+00 2.0000000e+01 
7.5000000e-01 3.0250001e+00 2.0500000e+01 
7.5000000e-01 3.0250001e+00 2.1000000e+01 
7.5000000e-01 3.0250001e+00 2.1500000e+01 
7.5000000e-01 3.0250001e+00 2.2000000e+01 
7.5000000e-01 3.0250001e+00 2.2500000e+01 
7.5000000e-01 3.0250001e+00 2.3000000e+01 
7.5000000e-01 3.0250001e+00 2.3500000e+01 
7.5000000e-01 3.0250001e+00 2.4000000e+01 
7.5000000e-01 3.0250001e+00 2.4500000e+01 
7.5000000e-01 3.0250001e+00 2.5000000e+01 
7.5000000e-01 3.0250001e+00 2.5500000e+01 
7.5000000e-01 3.0250001e+00 2.6000000e+01 
7.5000000e-01 3.0250001e+00 2.6500000e+01 
7.5000000e-01 3.0250001e+00 2.7000000e+01 
7.5000000e-01 3.0250001e+00 2.7500000e+01 
7.5000000e-01 3.0250001e+00 2.8000000e+01 
7.5000000e-01 3.0250001e+00 2.8500000e+01 
7.5000000e-01 3.0250001e+00 2.9000000e+01 
7.5000000e-01 3.0250001e+00 2.9500000e+01 
7.5000000e-01 3.0250001e+00 3.0000000e+01 
7.5000000e-01 3.0250001e+00 3.0500000e+01 
7.5000000e-01 3.0250001e+00 3.1000000e+01 
7.5000000e-01 3.0250001e+00 3.1500000e+01 
7.5000000e-01 3.0250001e+00 3.2000000e+01 
7.5000000e-01 3.0250001e+00 3.2500000e+01 
7.5000000e-01 3.0250001e+00 3.3000000e+01 
7.5000000e-01 3.0250001e+00 3.3500000e+01 
7.5000000e-01 3.0250001e+00 3.4000000e+01 
7.5000000e-01 3.0250001e+00 3.4500000e+01 
7.5000000e-01 3.0250001e+00 3.5000000e+01 
7.5000000e-01 3.0250001e+00 3.5500000e+01 
7.5000000e-01 3.0250001e+00 3.6000000e+01 
7.5000000e-01 3.0250001e+00 3.6500000e+01 
7.5000000e-01 3.0250001e+00 3.7000000e+01 
7.5000000e-01 3.0250001e+00 3.7500000e+01 
7.5000000e-01 3.0250001e+00 3.8000000e+01 
7.5000000e-01 3.0250001e+00 3.8500000e+01 
7.5000000e-01 3.0250001e+00 3.9000000e+01 
7.5000000e-01 3.0250001e+00 3.9500000e+01 
7.5000000e-01 3.0250001e+00 4.0000000e+01 
7.5000000e-01 3.0250001e+00 4.0500000e+01 
7.5000000e-01 3.0250001e+00 4.1000000e+01 
7.5000000e-01 3.0250001e+00 4.1500000e+01 
7.5000000e-01 3.0250001e+00 4.2000000e+01 
7.5000000e-01 3.0250001e+00 4.2500000e+01 
7.5000000e-01 3.0250001e+00 4.3000000e+01 
7.5000000e-01 3.0250001e+00 4.3500000e+01 
7.5000000e-01 3.0250001e+00 4.4000000e+01 
7.5000000e-01 3.0250001e+00 4.4500000e+01 
7.5000000e-01 3.0250001e+00 4.5000000e+01 
7.5000000e-01 3.0250001e+00 4.5500000e+01 
7.5000000e-01 3.0250001e+00 4.6000000e+01 
7.5000000e-01 3.0250001e+00 4.6500000e+01 
7.5000000e-01 3.0250001e+00 4.7000000e+01 
7.5000000e-01 3.0250001e+00 4.7500000e+01 
7.5000000e-01 3.0250001e+00 4.8000000e+01 
7.5000000e-01 3.0250001e+00 4.8500000e+01 
7.5000000e-01 3.0250001e+00 4.9000000e+01 
7.5000000e-01 3.0250001e+00 4.9500000e+01 
7.5000000e-01 3.0250001e+00 5.0000000e+01 
1.5000000e+00 3.0000000e+00 2.5000000e+01 
3.0000000e+00 2.0000000e+00 2.5000000e+01 
4.0000000e+00 2.0000000e+00 2.5000000e+01 
5.0000000e+00 2.0000000e+00 2.5000000e+01 
0.0000000e+00 3.0000000e+00 2.5000000e+01 
0.0000000e+00 0.0000000e+00 1.0000000e+00 
0.0000000e+00 0.0000000e+00 2.0000000e+00 
0.0000000e+00 0.0000000e+00 3.0000000e+00 
0.0000000e+00 0.0000000e+00 4.0000000e+00 
0.0000000e+00 0.0000000e+00 5.0000000e+00 
[...]
POINT_DATA 1919
FIELD FieldData 3
DISPLACEMENT 3 1919  float
0.0000000e+00 0.0000000e+00 0.0000000e+00 
0.0000000e+00 0.0000000e+00 0.0000000e+00 
0.0000000e+00 0.0000000e+00 0.0000000e+00 
0.0000000e+00 0.0000000e+00 0.0000000e+00 
-2.3827572e-05 2.5372622e-06 1.8532379e-05 
9.3801802e-09 9.4520267e-09 1.9459952e-08 
0.0000000e+00 -1.7003324e-05 0.0000000e+00 
0.0000000e+00 -7.6517338e-08 0.0000000e+00 
-1.6517304e-05 -1.1226840e-05 9.8651262e-06 
-6.3515238e-08 1.2824198e-07 -8.2222201e-08 
-1.3390533e-05 1.5729471e-05 1.0822117e-05 
-5.1582212e-08 -4.3796455e-09 1.1111173e-07 
0.0000000e+00 -1.9243615e-05 0.0000000e+00 
0.0000000e+00 -9.6419392e-08 0.0000000e+00 
5.2590635e-06 1.1171205e-05 -4.4996577e-05 
3.0147734e-07 -1.0318562e-06 6.4402258e-07 
4.7252852e-06 -2.9623872e-05 1.3724098e-05 
-1.4625150e-09 3.0291270e-07 -1.4326834e-07 
0.0000000e+00 -2.6901949e-05 0.0000000e+00 
0.0000000e+00 -2.0192975e-07 0.0000000e+00 
1.2168357e-05 3.4697021e-06 -5.8213129e-07 
6.2842300e-06 7.5818163e-05 3.0600638e-06 
1.2495501e-06 1.3999056e-04 -2.4293078e-05 
-7.2521602e-06 1.7377861e-04 -4.2422420e-05 
-2.8948589e-05 1.9515624e-04 -6.1544080e-05 
-2.4228659e-05 2.4153045e-04 -1.0720750e-04 
7.1390409e-06 3.3221414e-04 -1.1642943e-04 
1.8395753e-05 4.3175125e-04 -8.4956271e-05 
4.3567466e-06 4.6968044e-04 -6.6066226e-05 
-3.6718488e-06 3.8914045e-04 -3.5229939e-05 
-4.9576051e-05 1.8552958e-04 5.9418286e-05 
-5.6679615e-05 -1.2797222e-04 9.7513119e-05 
-8.0400721e-05 -6.0360617e-04 2.3944229e-04 
-1.4395724e-04 -1.3586621e-03 2.3598963e-04 
-2.1822884e-04 -2.4983338e-03 3.8134260e-04 
-2.9518761e-04 -3.8612236e-03 2.3915361e-04 
-3.5485506e-04 -4.8507540e-03 2.6257447e-04 
-3.3329663e-04 -4.6465984e-03 1.8902216e-04 
-3.1681004e-04 -4.0852684e-03 1.3195233e-04 
-2.9129224e-04 -3.8992087e-03 5.1518335e-05 
-2.5542200e-04 -4.2427615e-03 -3.5135356e-05 
-2.9087032e-04 -4.4452278e-03 -1.6933582e-04 
-2.2451920e-04 -3.6581066e-03 -3.4265747e-04 
-1.5146735e-04 -2.3725796e-03 -2.1068094e-04 
-9.9247743e-05 -1.2254502e-03 -2.9874573e-04 
-4.8305006e-05 -4.2608095e-04 -1.8825251e-04 
1.5667620e-06 -3.8995895e-06 -2.1154720e-04 
1.4170886e-05 1.5186222e-04 -1.5799467e-04 
6.1104423e-05 1.7795509e-04 -8.4882857e-05 
4.6534602e-05 1.5648491e-04 -1.2940514e-05 
1.0993208e-05 1.1560671e-04 3.7847236e-05 
-6.4296219e-06 6.6613364e-05 3.4687306e-05 
-2.3965809e-05 2.4468021e-05 3.1999087e-05 
-1.1297934e-05 -4.9809378e-06 2.4241512e-05 
-6.0570000e-07 -2.2026343e-05 8.6006676e-06 
1.2430910e-05 -3.1793843e-05 1.9640009e-05 
2.2118555e-05 -3.7751932e-05 2.7579012e-05 
6.7899791e-06 -3.8420811e-05 3.6938320e-05 
2.3784808e-06 -3.2409604e-05 1.9604300e-05 
8.7191947e-06 -2.0249361e-05 4.2134493e-06 
-8.0454447e-06 5.1720999e-06 1.8819197e-06 
-2.3846806e-06 5.4098982e-05 -3.0022818e-06 
-7.6516108e-06 1.1957339e-04 -1.0664020e-05 
-2.5535423e-05 1.7730983e-04 -6.8401168e-05 
-2.6523070e-05 2.0734093e-04 -1.0234812e-04 
-1.5775460e-05 2.1588671e-04 -1.2845782e-04 
-6.1083563e-05 2.4018066e-04 -1.3237445e-04 
7.6011497e-06 3.0720848e-04 -7.3843730e-05 
-6.7279798e-05 3.7867820e-04 -1.0245523e-04 
1.2359475e-05 3.5518190e-04 -2.9788744e-05 
-3.8794697e-05 1.4797895e-04 6.0431739e-05 
-5.4961678e-05 -2.5929254e-04 9.6733587e-05 
-1.1508786e-04 -8.7514712e-04 2.5817903e-04 
-1.8768229e-04 -1.7138727e-03 2.3764058e-04 
-2.1922367e-04 -2.8233295e-03 3.6764384e-04 
-3.1444951e-04 -4.0587629e-03 2.3616475e-04 
-3.7996261e-04 -4.9044429e-03 2.3136320e-04 
-3.6286947e-04 -4.6537304e-03 1.7714182e-04 
-3.3777431e-04 -4.1667796e-03 8.4130785e-05 
-3.2587757e-04 -4.0333266e-03 7.3904425e-06 
-2.9526660e-04 -4.3373834e-03 -8.6036249e-05 
-2.9662196e-04 -4.3937061e-03 -1.9919995e-04 
-2.2155387e-04 -3.4517350e-03 -3.8112982e-04 
-1.3980648e-04 -2.1032358e-03 -2.1636345e-04 
-9.6059339e-05 -1.0060071e-03 -2.8560369e-04 
-4.8932390e-05 -3.1098141e-04 -1.7959248e-04 
7.0663432e-06 3.3973793e-05 -1.9962034e-04 
2.7041826e-05 1.6466019e-04 -1.5520933e-04 
6.0136805e-05 1.8216930e-04 -6.8747067e-05 
5.0586157e-05 1.4176755e-04 8.9424257e-06 
1.1550813e-05 8.1321785e-05 6.0753748e-05 
-5.9810768e-06 3.5909707e-05 6.5133150e-05 
-2.6475693e-05 2.3123026e-05 4.0379211e-05 
-1.9110044e-05 2.6320906e-05 1.1574682e-05 
-3.6914937e-06 2.0864301e-05 -4.4912849e-06 
4.0439681e-06 1.8046907e-06 -9.0459334e-06 
1.6144695e-06 -1.8192419e-05 -1.2539384e-05 
3.4472928e-06 -2.4563400e-05 -3.4257503e-06 
3.2311809e-06 -1.5944423e-05 1.1561048e-06 
-7.7418463e-08 -2.3293405e-06 -2.1461751e-07 
-1.0486335e-06 6.7386286e-06 2.4714791e-06 
-8.0029832e-07 8.4776630e-06 -1.4046535e-07 
-6.2942541e-07 4.6593905e-06 -1.2796338e-06 
9.5577368e-09 -6.3145984e-07 8.6700533e-07 
6.2561696e-08 -3.9118690e-06 -5.7629313e-07 
-8.8548681e-08 -3.2851376e-06 -2.6854590e-07 
3.9425569e-07 7.1767874e-07 1.4290351e-06 
1.0744982e-08 4.0333189e-06 -5.3738370e-07 
-6.9672296e-08 3.2609632e-06 1.4512936e-07 
3.4709686e-09 -3.6607128e-07 1.7767788e-07 
-2.3287643e-07 -3.2911082e-06 -9.0597700e-07 
-6.1984238e-08 -3.2118244e-06 2.4351268e-08 
6.8939535e-08 -5.4326705e-07 2.4084235e-07 
-1.6576036e-10 1.9526842e-06 -2.8338482e-07 
-9.7431169e-08 2.2025586e-06 5.1642053e-07 
1.7387413e-07 8.5539921e-07 -9.9746849e-08 
-2.2340564e-07 -4.4835082e-07 3.6726249e-08 
1.3534293e-07 -7.1661270e-07 -7.8623664e-08 
-4.4841880e-08 -1.1119565e-07 1.3437956e-07 
0.0000000e+00 -2.8566783e-05 0.0000000e+00 
0.0000000e+00 4.0062773e-06 0.0000000e+00 
0.0000000e+00 7.5058182e-05 0.0000000e+00 
0.0000000e+00 1.3890894e-04 0.0000000e+00 
0.0000000e+00 1.7329151e-04 0.0000000e+00 
0.0000000e+00 1.9538731e-04 0.0000000e+00 
0.0000000e+00 2.4313731e-04 0.0000000e+00 
0.0000000e+00 3.3398229e-04 0.0000000e+00 
0.0000000e+00 4.3206627e-04 0.0000000e+00 
0.0000000e+00 4.6799873e-04 0.0000000e+00 
0.0000000e+00 3.8812860e-04 0.0000000e+00 
0.0000000e+00 1.8713824e-04 0.0000000e+00 
0.0000000e+00 -1.2593926e-04 0.0000000e+00 
0.0000000e+00 -6.0290634e-04 0.0000000e+00 
0.0000000e+00 -1.3665226e-03 0.0000000e+00 
0.0000000e+00 -2.5132217e-03 0.0000000e+00 
0.0000000e+00 -3.8909570e-03 0.0000000e+00 
0.0000000e+00 -4.8720269e-03 0.0000000e+00 
0.0000000e+00 -4.6734270e-03 0.0000000e+00 
0.0000000e+00 -4.1053761e-03 0.0000000e+00 
0.0000000e+00 -3.9277254e-03 0.0000000e+00 
0.0000000e+00 -4.2685256e-03 0.0000000e+00 
0.0000000e+00 -4.4765444e-03 0.0000000e+00 
0.0000000e+00 -3.6746671e-03 0.0000000e+00 
0.0000000e+00 -2.3893511e-03 0.0000000e+00 
0.0000000e+00 -1.2317061e-03 0.0000000e+00 
0.0000000e+00 -4.3026663e-04 0.0000000e+00 
0.0000000e+00 -4.0732821e-06 0.0000000e+00 
0.0000000e+00 1.5414230e-04 0.0000000e+00 
0.0000000e+00 1.7967036e-04 0.0000000e+00 
0.0000000e+00 1.5685521e-04 0.0000000e+00 
0.0000000e+00 1.1563342e-04 0.0000000e+00 
0.0000000e+00 6.7247725e-05 0.0000000e+00 
0.0000000e+00 2.4579687e-05 0.0000000e+00 
0.0000000e+00 -5.1477314e-06 0.0000000e+00 
0.0000000e+00 -2.2338960e-05 0.0000000e+00 
0.0000000e+00 -3.1886259e-05 0.0000000e+00 
0.0000000e+00 -3.7327500e-05 0.0000000e+00 
0.0000000e+00 -3.8069025e-05 0.0000000e+00 
0.0000000e+00 -3.2994903e-05 0.0000000e+00 
0.0000000e+00 -2.0865258e-05 0.0000000e+00 
0.0000000e+00 5.6788085e-06 0.0000000e+00 
0.0000000e+00 5.5018387e-05 0.0000000e+00 
0.0000000e+00 1.2001533e-04 0.0000000e+00 
0.0000000e+00 1.7684052e-04 0.0000000e+00 
0.0000000e+00 2.0592916e-04 0.0000000e+00 
0.0000000e+00 2.1536845e-04 0.0000000e+00 
0.0000000e+00 2.4229760e-04 0.0000000e+00 
0.0000000e+00 3.1012576e-04 0.0000000e+00 
0.0000000e+00 3.7928112e-04 0.0000000e+00 
0.0000000e+00 3.5283456e-04 0.0000000e+00 
0.0000000e+00 1.4685711e-04 0.0000000e+00 
0.0000000e+00 -2.6033670e-04 0.0000000e+00 
0.0000000e+00 -8.7388325e-04 0.0000000e+00 
0.0000000e+00 -1.7199221e-03 0.0000000e+00 
0.0000000e+00 -2.8362228e-03 0.0000000e+00 
0.0000000e+00 -4.0885364e-03 0.0000000e+00 
0.0000000e+00 -4.9292864e-03 0.0000000e+00 
0.0000000e+00 -4.6853428e-03 0.0000000e+00 
0.0000000e+00 -4.1839140e-03 0.0000000e+00 
0.0000000e+00 -4.0601729e-03 0.0000000e+00 
0.0000000e+00 -4.3603834e-03 0.0000000e+00 
0.0000000e+00 -4.4253292e-03 0.0000000e+00 
0.0000000e+00 -3.4693379e-03 0.0000000e+00 
0.0000000e+00 -2.1217298e-03 0.0000000e+00 
0.0000000e+00 -1.0122587e-03 0.0000000e+00 
0.0000000e+00 -3.1275870e-04 0.0000000e+00 
0.0000000e+00 3.5624063e-05 0.0000000e+00 
0.0000000e+00 1.6598045e-04 0.0000000e+00 
0.0000000e+00 1.8263872e-04 0.0000000e+00 
0.0000000e+00 1.4218947e-04 0.0000000e+00 
0.0000000e+00 8.2151018e-05 0.0000000e+00 
0.0000000e+00 3.7001395e-05 0.0000000e+00 
0.0000000e+00 2.3123368e-05 0.0000000e+00 
0.0000000e+00 2.5485228e-05 0.0000000e+00 
0.0000000e+00 2.0421676e-05 0.0000000e+00 
0.0000000e+00 1.9489062e-06 0.0000000e+00 
0.0000000e+00 -1.7706305e-05 0.0000000e+00 
0.0000000e+00 -2.4300447e-05 0.0000000e+00 
0.0000000e+00 -1.6073922e-05 0.0000000e+00 
0.0000000e+00 -2.5602901e-06 0.0000000e+00 
0.0000000e+00 6.6365346e-06 0.0000000e+00 
0.0000000e+00 8.4037283e-06 0.0000000e+00 
0.0000000e+00 4.6856339e-06 0.0000000e+00 
0.0000000e+00 -5.4092681e-07 0.0000000e+00 
0.0000000e+00 -3.8188309e-06 0.0000000e+00 
0.0000000e+00 -3.1882487e-06 0.0000000e+00 
0.0000000e+00 6.5139557e-07 0.0000000e+00 
0.0000000e+00 3.8457997e-06 0.0000000e+00 
0.0000000e+00 3.2171081e-06 0.0000000e+00 
0.0000000e+00 -2.6191523e-07 0.0000000e+00 
0.0000000e+00 -3.1888251e-06 0.0000000e+00 
0.0000000e+00 -3.1691709e-06 0.0000000e+00 
0.0000000e+00 -6.0830928e-07 0.0000000e+00 
0.0000000e+00 1.8478423e-06 0.0000000e+00 
0.0000000e+00 2.1988992e-06 0.0000000e+00 
0.0000000e+00 9.0742276e-07 0.0000000e+00 
0.0000000e+00 -4.0936496e-07 0.0000000e+00 
0.0000000e+00 -7.0067216e-07 0.0000000e+00 
0.0000000e+00 -1.2866823e-07 0.0000000e+00 
0.0000000e+00 2.8004121e-07 0.0000000e+00 
5.8374986e-05 3.6671230e-05 3.7520019e-07 
1.2997846e-04 9.2563154e-05 -2.2616372e-05 
8.1677877e-05 4.3472734e-05 -1.9999907e-05 
2.3341288e-05 5.6125795e-05 -1.5471107e-05 
0.0000000e+00 2.3017672e-04 0.0000000e+00 
0.0000000e+00 0.0000000e+00 0.0000000e+00 
0.0000000e+00 0.0000000e+00 0.0000000e+00 
0.0000000e+00 0.0000000e+00 0.0000000e+00 
0.0000000e+00 0.0000000e+00 0.0000000e+00 
0.0000000e+00 0.0000000e+00 0.0000000e+00 
0.0000000e+00 0.0000000e+00 0.0000000e+00 
0.0000000e+00 0.0000000e+00 0.0000000e+00 
0.0000000e+00 0.0000000e+00 0.0000000e+00 
0.0000000e+00 0.0000000e+00 0.0000000e+00 
0.0000000e+00 0.0000000e+00 0.0000000e+00 
0.0000000e+00 0.0000000e+00 0.0000000e+00 
0.0000000e+00 0.0000000e+00 0.0000000e+00 
0.0000000e+00 0.0000000e+00 0.0000000e+00 
0.0000000e+00 0.0000000e+00 0.0000000e+00 
0.0000000e+00 0.0000000e+00 0.0000000e+00 
0.0000000e+00 0.0000000e+00 0.0000000e+00 
0.0000000e+00 0.0000000e+00 0.0000000e+00 
0.0000000e+00 0.0000000e+00 0.0000000e+00 
0.0000000e+00 0.0000000e+00 0.0000000e+00 
0.0000000e+00 0.0000000e+00 0.0000000e+00 
0.0000000e+00 0.0000000e+00 0.0000000e+00 
0.0000000e+00 0.0000000e+00 0.0000000e+00 
0.0000000e+00 0.0000000e+00 0.0000000e+00 
0.0000000e+00 0.0000000e+00 0.0000000e+00 
0.0000000e+00 0.0000000e+00 0.0000000e+00 
0.0000000e+00 0.0000000e+00 0.0000000e+00 
0.0000000e+00 0.0000000e+00 0.0000000e+00 
0.0000000e+00 0.0000000e+00 0.0000000e+00 
0.0000000e+00 0.0000000e+00 0.0000000e+00 
0.0000000e+00 0.0000000e+00 0.0000000e+00 
0.0000000e+00 0.0000000e+00 0.0000000e+00 
0.0000000e+00 0.0000000e+00 0.0000000e+00 
0.0000000e+00 0.0000000e+00 0.0000000e+00 
0.0000000e+00 0.0000000e+00 0.0000000e+00 
0.0000000e+00 0.0000000e+00 0.0000000e+00 
0.0000000e+00 0.0000000e+00 0.0000000e+00 
0.0000000e+00 0.0000000e+00 0.0000000e+00 
0.0000000e+00 0.0000000e+00 0.0000000e+00 
0.0000000e+00 0.0000000e+00 0.0000000e+00 
0.0000000e+00 0.0000000e+00 0.0000000e+00 
0.0000000e+00 0.0000000e+00 0.0000000e+00 
0.0000000e+00 0.0000000e+00 0.0000000e+00 
0.0000000e+00 0.0000000e+00 0.0000000e+00 
0.0000000e+00 0.0000000e+00 0.0000000e+00 
0.0000000e+00 0.0000000e+00 0.0000000e+00 
0.0000000e+00 0.0000000e+00 0.0000000e+00 
0.0000000e+00 0.0000000e+00 0.0000000e+00 
0.0000000e+00 0.0000000e+00 0.0000000e+00 
0.0000000e+00 0.0000000e+00 0.0000000e+00 
0.0000000e+00 0.0000000e+00 0.0000000e+00 
0.0000000e+00 0.0000000e+00 0.0000000e+00 
0.0000000e+00 0.0000000e+00 0.0000000e+00 
0.0000000e+00 0.0000000e+00 0.0000000e+00 
0.0000000e+00 0.0000000e+00 0.0000000e+00 
0.0000000e+00 0.0000000e+00 0.0000000e+00 
0.0000000e+00 0.0000000e+00 0.0000000e+00 
0.0000000e+00 0.0000000e+00 0.0000000e+00 
0.0000000e+00 0.0000000e+00 0.0000000e+00 
0.0000000e+00 0.0000000e+00 0.0000000e+00 
0.0000000e+00 0.0000000e+00 0.0000000e+00 
0.0000000e+00 0.0000000e+00 0.0000000e+00 
0.0000000e+00 0.0000000e+00 0.0000000e+00 
0.0000000e+00 0.0000000e+00 0.0000000e+00 
0.0000000e+00 0.0000000e+00 0.0000000e+00 
0.0000000e+00 0.0000000e+00 0.0000000e+00 
0.0000000e+00 0.0000000e+00 0.0000000e+00 
0.0000000e+00 0.0000000e+00 0.0000000e+00 
0.0000000e+00 0.0000000e+00 0.0000000e+00 
0.0000000e+00 0.0000000e+00 0.0000000e+00 
0.0000000e+00 0.0000000e+00 0.0000000e+00 
0.0000000e+00 0.0000000e+00 0.0000000e+00 
0.0000000e+00 0.0000000e+00 0.0000000e+00 
0.0000000e+00 0.0000000e+00 0.0000000e+00 
0.0000000e+00 0.0000000e+00 0.0000000e+00 
0.0000000e+00 0.0000000e+00 0.0000000e+00 
0.0000000e+00 0.0000000e+00 0.0000000e+00 
0.0000000e+00 0.0000000e+00 0.0000000e+00 
0.0000000e+00 0.0000000e+00 0.0000000e+00 
0.0000000e+00 0.0000000e+00 0.0000000e+00 
0.0000000e+00 0.0000000e+00 0.0000000e+00 
0.0000000e+00 0.0000000e+00 0.0000000e+00 
0.0000000e+00 0.0000000e+00 0.0000000e+00 
0.0000000e+00 0.0000000e+00 0.0000000e+00 
0.0000000e+00 0.0000000e+00 0.0000000e+00 
0.0000000e+00 0.0000000e+00 0.0000000e+00 
0.0000000e+00 0.0000000e+00 0.0000000e+00 
0.0000000e+00 0.0000000e+00 0.0000000e+00 
0.0000000e+00 0.0000000e+00 0.0000000e+00 
0.0000000e+00 0.0000000e+00 0.0000000e+00 
0.0000000e+00 0.0000000e+00 0.0000000e+00 
0.0000000e+00 0.0000000e+00 0.0000000e+00 
0.0000000e+00 0.0000000e+00 0.0000000e+00 
0.0000000e+00 0.0000000e+00 0.0000000e+00 
0.0000000e+00 0.0000000e+00 0.0000000e+00 
0.0000000e+00 0.0000000e+00 0.0000000e+00 
0.0000000e+00 0.0000000e+00 0.0000000e+00 
0.0000000e+00 0.0000000e+00 0.0000000e+00 
0.0000000e+00 0.0000000e+00 0.0000000e+00 
0.0000000e+00 0.0000000e+00 0.0000000e+00 
0.0000000e+00 0.0000000e+00 0.0000000e+00 
0.0000000e+00 0.0000000e+00 0.0000000e+00 
0.0000000e+00 0.0000000e+00 0.0000000e+00 
0.0000000e+00 0.0000000e+00 0.0000000e+00 
0.0000000e+00 0.0000000e+00 0.0000000e+00 
0.0000000e+00 0.0000000e+00 0.0000000e+00 
0.0000000e+00 0.0000000e+00 0.0000000e+00 
-1.3168004e-05 1.9740976e-06 2.1552078e-05 
-3.3528408e-06 1.6965734e-05 1.8280467e-05 
1.2457656e-05 3.0028797e-05 6.3268230e-06 
2.3695702e-05 2.8236509e-05 -4.4845747e-06 
3.2616386e-05 3.3582899e-05 -1.0276887e-05 
4.5746252e-05 3.6913891e-05 -7.9982201e-06 
5.1875151e-05 2.2014012e-05 -5.1415200e-06 
5.4957731e-05 4.4131153e-05 -5.8797659e-06 
5.6545035e-05 3.6437308e-05 -6.1102364e-06 
3.4014207e-05 1.2348061e-05 -1.5808761e-05 
2.2520966e-05 -5.7268894e-06 -2.5117088e-05 
9.9591498e-06 -3.7708271e-06 -2.8623967e-05 
1.1926726e-06 -4.3794776e-06 -2.4790927e-05 
-8.6605924e-06 -1.1711136e-05 -1.2206563e-05 
-4.6031491e-07 -7.3287617e-07 -2.9092869e-06 
5.4005200e-06 1.3428663e-05 5.0043059e-06 
-5.2793303e-07 4.6692771e-06 1.2329030e-05 
-1.1350905e-05 -1.2242246e-05 2.0792466e-05 
-9.1068659e-06 -6.8014674e-06 2.4173074e-05 
-1.1372264e-05 1.1137644e-05 2.8560673e-05 
-8.7429262e-06 3.3785104e-06 2.7856599e-05 
-5.7257212e-06 1.4134152e-05 2.0550822e-05 
4.5445518e-06 2.2861605e-05 9.6412150e-06 
1.8384131e-05 2.2366265e-05 -5.3333702e-06 
2.1615504e-05 2.8042610e-05 -8.8188208e-06 
3.4393070e-05 2.2251153e-05 -3.5193370e-06 
5.1754138e-05 2.9262521e-05 -2.4507617e-06 
4.9276605e-05 3.6237754e-05 -9.4669122e-06 
5.4017299e-05 2.7998143e-05 -6.6485463e-06 
3.6075926e-05 -3.6636668e-06 -1.3205126e-05 
1.5896065e-05 -8.1814851e-06 -2.3635879e-05 
2.0808877e-06 -4.7806002e-06 -3.5292200e-05 
-3.4753848e-06 -5.4681612e-07 -2.8482891e-05 
-8.6000091e-06 -7.1575291e-06 -7.0420556e-06 
-3.4582797e-06 8.8486121e-07 2.6315117e-06 
5.9187828e-06 9.4420284e-06 8.2320003e-06 
1.4442921e-06 2.6060306e-06 1.6312630e-05 
-1.3943674e-06 -1.0940314e-05 9.4198604e-06 
1.9363204e-06 -1.5870660e-06 1.6534173e-06 
2.6419618e-06 3.1117738e-06 -1.4113509e-06 
-9.3362416e-07 1.4150980e-06 -1.0140390e-06 
-1.0302654e-06 -1.3035454e-06 -3.7743339e-07 
8.9428806e-07 -1.4349475e-06 9.5316699e-07 
1.0614490e-07 1.0259715e-06 -2.3036135e-07 
-4.5579623e-07 4.4045132e-07 -1.2620025e-07 
1.9642950e-08 -2.0813609e-07 4.1435635e-07 
1.0217595e-07 -1.8023887e-07 2.6446486e-07 
-3.9885851e-08 1.1170426e-07 -1.4124802e-07 
-2.1642615e-08 -9.3189847e-08 -4.8723887e-09 
0.0000000e+00 -3.7629277e-06 0.0000000e+00 
0.0000000e+00 -1.6799182e-05 0.0000000e+00 
0.0000000e+00 5.0593368e-05 0.0000000e+00 
0.0000000e+00 1.3433812e-04 0.0000000e+00 
0.0000000e+00 1.3834573e-04 0.0000000e+00 
0.0000000e+00 1.6324232e-04 0.0000000e+00 
0.0000000e+00 -4.1539093e-05 0.0000000e+00 
0.0000000e+00 -3.2743800e-04 0.0000000e+00 
0.0000000e+00 -4.5051138e-04 0.0000000e+00 
0.0000000e+00 -5.2368251e-04 0.0000000e+00 
0.0000000e+00 -4.7657688e-04 0.0000000e+00 
0.0000000e+00 -3.0777467e-04 0.0000000e+00 
0.0000000e+00 -1.3008110e-04 0.0000000e+00 
0.0000000e+00 7.8198836e-06 0.0000000e+00 
0.0000000e+00 4.9318183e-05 0.0000000e+00 
0.0000000e+00 2.2506978e-05 0.0000000e+00 
0.0000000e+00 -1.2777469e-05 0.0000000e+00 
0.0000000e+00 2.1083544e-05 0.0000000e+00 
0.0000000e+00 -1.3286532e-05 0.0000000e+00 
0.0000000e+00 -2.1515791e-05 0.0000000e+00 
0.0000000e+00 -7.7783661e-06 0.0000000e+00 
0.0000000e+00 1.7618362e-05 0.0000000e+00 
0.0000000e+00 5.6006767e-05 0.0000000e+00 
0.0000000e+00 2.1597443e-04 0.0000000e+00 
0.0000000e+00 1.9782688e-04 0.0000000e+00 
0.0000000e+00 1.4713184e-04 0.0000000e+00 
0.0000000e+00 1.7491224e-05 0.0000000e+00 
0.0000000e+00 -3.2257344e-04 0.0000000e+00 
0.0000000e+00 -4.3777024e-04 0.0000000e+00 
0.0000000e+00 -4.8008497e-04 0.0000000e+00 
0.0000000e+00 -4.4107690e-04 0.0000000e+00 
0.0000000e+00 -2.3414621e-04 0.0000000e+00 
0.0000000e+00 -1.1227998e-04 0.0000000e+00 
0.0000000e+00 -3.3318981e-06 0.0000000e+00 
0.0000000e+00 5.6552853e-05 0.0000000e+00 
0.0000000e+00 1.1686714e-05 0.0000000e+00 
0.0000000e+00 -2.1773461e-05 0.0000000e+00 
0.0000000e+00 -6.9784187e-06 0.0000000e+00 
0.0000000e+00 7.0510600e-06 0.0000000e+00 
0.0000000e+00 -6.5542201e-07 0.0000000e+00 
0.0000000e+00 -2.7490892e-06 0.0000000e+00 
0.0000000e+00 2.2638990e-06 0.0000000e+00 
0.0000000e+00 -1.3305013e-06 0.0000000e+00 
0.0000000e+00 1.1212309e-07 0.0000000e+00 
0.0000000e+00 8.0172504e-07 0.0000000e+00 
0.0000000e+00 -3.6682573e-07 0.0000000e+00 
0.0000000e+00 -3.0877965e-07 0.0000000e+00 
0.0000000e+00 5.7462790e-07 0.0000000e+00 
0.0000000e+00 4.6502251e-07 0.0000000e+00 
-1.5634558e-05 2.2315905e-06 2.4663743e-05 
-1.0217841e-05 1.8641387e-05 2.7191400e-05 
5.7261138e-07 2.0319043e-05 3.3934113e-05 
1.3869194e-05 8.3691684e-06 3.7183014e-05 
1.8842769e-08 -1.0153111e-07 3.8933592e-08 
-2.1057518e-08 1.2458496e-07 7.0934171e-08 
1.0411296e-09 2.4580643e-07 -1.7219091e-07 
1.1419383e-07 -2.3941524e-07 -8.1691326e-08 
-1.2616282e-05 8.6342779e-06 1.6902160e-05 
1.3852456e-07 -1.9289585e-08 8.2635466e-08 
1.0005146e-05 -1.3603101e-05 4.0177736e-05 
-4.4016383e-06 3.5474808e-05 4.1029674e-05 
0.0000000e+00 -4.6217061e-05 0.0000000e+00 
0.0000000e+00 -5.6701811e-06 0.0000000e+00 
0.0000000e+00 9.6044314e-05 0.0000000e+00 
0.0000000e+00 2.1052313e-04 0.0000000e+00 
0.0000000e+00 2.3652845e-04 0.0000000e+00 
0.0000000e+00 2.2461553e-04 0.0000000e+00 
0.0000000e+00 -1.9956469e-04 0.0000000e+00 
0.0000000e+00 -7.6535903e-04 0.0000000e+00 
0.0000000e+00 -9.7194599e-04 0.0000000e+00 
0.0000000e+00 -1.1008198e-03 0.0000000e+00 
0.0000000e+00 -9.7664678e-04 0.0000000e+00 
0.0000000e+00 -5.4975034e-04 0.0000000e+00 
0.0000000e+00 -1.7533089e-04 0.0000000e+00 
0.0000000e+00 2.5716883e-05 0.0000000e+00 