# vtk DataFile Version 4.0
vtk output
ASCII
DATASET UNSTRUCTURED_GRID
POINTS 1919 float
0.0000000e+00 0.0000000e+00 0.0000000e+00 
0.0000000e+00 0.0000000e+00 5.0000000e+01 
5.0000000e+00 0.0000000e+00 0.0000000e+00 
5.0000000e+00 0.0000000e+00 5.0000000e+01 
5.0000000e+00 1.0000000e+00 0.0000000e+00 
5.0000000e+00 1.0000000e+00 5.0000000e+01 
0.0000000e+00 1.0000000e+00 0.0000000e+00 
0.0000000e+00 1.0000000e+00 5.0000000e+01 
5.0000000e+00 2.0000000e+00 0.0000000e+00 
5.0000000e+00 2.0000000e+00 5.0000000e+01 
3.0000000e+00 2.0000000e+00 0.0000000e+00 
3.0000000e+00 2.0000000e+00 5.0000000e+01 
0.0000000e+00 2.0000000e+00 0.0000000e+00 
0.0000000e+00 2.0000000e+00 5.0000000e+01 
1.5000000e+00 3.0000000e+00 0.0000000e+00 
1.5000000e+00 3.0000000e+00 5.0000000e+01 
7.5000000e-01 3.0000000e+00 0.0000000e+00 
7.5000000e-01 3.0000000e+00 5.0000000e+01 
0.0000000e+00 3.0000000e+00 0.0000000e+00 
0.0000000e+00 3.0000000e+00 5.0000000e+01 
7.5000000e-01 3.0000000e+00 5.0000000e-01 
7.5000000e-01 3.0000000e+00 1.0000000e+00 
7.5000000e-01 3.0000000e+00 1.5000000e+00 
7.5000000e-01 3.0000000e+00 2.0000000e+00 
7.5000000e-01 3.0000000e+00 2.5000000e+00 
7.5000000e-01 3.0000000e+00 3.0000000e+00 
7.5000000e-01 3.0000000e+00 3.5000000e+00 
7.5000000e-01 3.0000000e+00 4.0000000e+00 
7.5000000e-01 3.0000000e+00 4.5000000e+00 
7.5000000e-01 3.0000000e+00 5.0000000e+00 
7.5000000e-01 3.0000000e+00 5.5000000e+00 
7.5000000e-01 3.0000000e+00 6.0000000e+00 
7.5000000e-01 3.0000000e+00 6.5000000e+00 
7.5000000e-01 3.0000000e+00 7.0000000e+00 
7.5000000e-01 3.0000000e+00 7.5000000e+00 
7.5000000e-01 3.0000000e+00 8.0000000e+00 
7.5000000e-01 3.0000000e+00 8.5000000e+00 
7.5000000e-01 3.0000000e+00 9.0000000e+00 
7.5000000e-01 3.0000000e+00 9.5000000e+00 
7.5000000e-01 3.0000000e+00 1.0000000e+01 
7.5000000e-01 3.0000000e+00 1.0500000e+01 
7.5000000e-01 3.0000000e+00 1.1000000e+01 
7.5000000e-01 3.0000000e+00 1.1500000e+01 
7.5000000e-01 3.0000000e+00 1.2000000e+01 
7.5000000e-01 3.0000000e+00 1.2500000e+01 
7.5000000e-01 3.0000000e+00 1.3000000e+01 
7.5000000e-01 3.0000000e+00 1.3500000e+01 
7.5000000e-01 3.0000000e+00 1.4000000e+01 
7.5000000e-01 3.0000000e+00 1.4500000e+01 
7.5000000e-01 3.0000000e+00 1.5000000e+01 
7.5000000e-01 3.0000000e+00 1.5500000e+01 
7.5000000e-01 3.0000000e+00 1.6000000e+01 
7.5000000e-01 3.0000000e+00 1.6500000e+01 
7.5000000e-01 3.0000000e+00 1.7000000e+01 
7.5000000e-01 3.0000000e+00 1.7500000e+01 
7.5000000e-01 3.0000000e+00 1.8000000e+01 
7.5000000e-01 3.0000000e+00 1.8500000e+01 
7.5000000e-01 3.0000000e+00 1.9000000e+01 
7.5000000e-01 3.0000000e+00 1.9500000e+01 
7.5000000e-01 3.0000000e+00 2.0000000e+01 
7.5000000e-01 3.0000000e+00 2.0500000e+01 
7.5000000e-01 3.0000000e+00 2.1000000e+01 
7.5000000e-01 3.0000000e+00 2.1500000e+01 
7.5000000e-01 3.0000000e+00 2.2000000e+01 
7.5000000e-01 3.0000000e+00 2.2500000e+01 
7.5000000e-01 3.0000000e+00 2.3000000e+01 
7.5000000e-01 3.0000000e+00 2.3500000e+01 
7.5000000e-01 3.0000000e+00 2.4000000e+01 
7.5000000e-01 3.0000000e+00 2.4500000e+01 
7.5000000e-01 3.0000000e+00 2.5000000e+01 
7.5000000e-01 3.0000000e+00 2.5500000e+01 
7.5000000e-01 3.0000000e+00 2.6000000e+01 
7.5000000e-01 3.0000000e+00 2.6500000e+01 
7.5000000e-01 3.0000000e+00 2.7000000e+01 
7.5000000e-01 3.0000000e+00 2.7500000e+01 
7.5000000e-01 3.0000000e+00 2.8000000e+01 
7.5000000e-01 3.0000000e+00 2.8500000e+01 
7.5000000e-01 3.0000000e+00 2.9000000e+01 
7.5000000e-01 3.0000000e+00 2.9500000e+01 
7.5000000e-01 3.0000000e+00 3.0000000e+01 
7.5000000e-01 3.0000000e+00 3.0500000e+01 
7.5000000e-01 3.0000000e+00 3.1000000e+01 
7.5000000e-01 3.0000000e+00 3.1500000e+01 
7.5000000e-01 3.0000000e+00 3.2000000e+01 
7.5000000e-01 3.0000000e+00 3.2500000e+01 
7.5000000e-01 3.0000000e+00 3.3000000e+01 
7.5000000e-01 3.0000000e+00 3.3500000e+01 
7.5000000e-01 3.0000000e+00 3.4000000e+01 
7.5000000e-01 3.0000000e+00 3.4500000e+01 
7.5000000e-01 3.0000000e+00 3.5000000e+01 
7.5000000e-01 3.0000000e+00 3.5500000e+01 
7.5000000e-01 3.0000000e+00 3.6000000e+01 
7.5000000e-01 3.0000000e+00 3.6500000e+01 
7.5000000e-01 3.0000000e+00 3.7000000e+01 
7.5000000e-01 3.0000000e+00 3.7500000e+01 
7.5000000e-01 3.0000000e+00 3.8000000e+01 
7.5000000e-01 3.0000000e+00 3.8500000e+01 
7.5000000e-01 3.0000000e+00 3.9000000e+01 
7.5000000e-01 3.0000000e+00 3.9500000e+01 
7.5000000e-01 3.0000000e+00 4.0000000e+01 
7.5000000e-01 3.0000000e+00 4.0500000e+01 
7.5000000e-01 3.0000000e+00 4.1000000e+01 
7.5000000e-01 3.0000000e+00 4.1500000e+01 
7.5000000e-01 3.0000000e+00 4.2000000e+01 
7.5000000e-01 3.0000000e+00 4.2500000e+01 
7.5000000e-01 3.0000000e+00 4.3000000e+01 
7.5000000e-01 3.0000000e+00 4.3500000e+01 
7.5000000e-01 3.0000000e+00 4.4000000e+01 
7.5000000e-01 3.0000000e+00 4.4500000e+01 
7.5000000e-01 3.0000000e+00 4.5000000e+01 
7.5000000e-01 3.0000000e+00 4.5500000e+01 
7.5000000e-01 3.0000000e+00 4.6000000e+01 
7.5000000e-01 3.0000000e+00 4.6500000e+01 
7.5000000e-01 3.0000000e+00 4.7000000e+01 
7.5000000e-01 3.0000000e+00 4.7500000e+01 
7.5000000e-01 3.0000000e+00 4.8000000e+01 
7.5000000e-01 3.0000000e+00 4.8500000e+01 
7.5000000e-01 3.0000000e+00 4.9000000e+01 
7.5000000e-01 3.0000000e+00 4.9500000e+01 
7.5000000e-01 3.0250001e+00 0.0000000e+00 
7.5000000e-01 3.0250001e+00 5.0000000e-01 
7.5000000e-01 3.0250001e+00 1.0000000e+00 
7.5000000e-01 3.0250001e+00 1.5000000e+00 
7.5000000e-01 3.0250001e+00 2.0000000e+00 
7.5000000e-01 3.0250001e+00 2.5000000e+00 
7.5000000e-01 3.0250001e+00 3.0000000e+00 
7.5000000e-01 3.0250001e+00 3.5000000e+00 
7.5000000e-01 3.0250001e+00 4.0000000e+00 
7.5000000e-01 3.0250001e+00 4.5000000e+00 
7.5000000e-01 3.0250001e+00 5.0000000e+00 
7.5000000e-01 3.0250001e+00 5.5000000e+00 
7.5000000e-01 3.0250001e+00 6.0000000e+00 
7.5000000e-01 3.0250001e+00 6.5000000e+00 
7.5000000e-01 3.0250001e+00 7.0000000e+00 
7.5000000e-01 3.0250001e+00 7.5000000e+00 
7.5000000e-01 3.0250001e+00 8.0000000e+00 
7.5000000e-01 3.0250001e+00 8.5000000e+00 
7.5000000e-01 3.0250001e+00 9.0000000e+00 
7.5000000e-01 3.0250001e+00 9.5000000e+00 
7.5000000e-01 3.0250001e+00 1.0000000e+01 
7.5000000e-01 3.0250001e+00 1.0500000e+01 
7.5000000e-01 3.0250001e+00 1.1000000e+01 
7.5000000e-01 3.0250001e+00 1.1500000e+01 
7.5000000e-01 3.0250001e+00 1.2000000e+01 
7.5000000e-01 3.0250001e+00 1.2500000e+01 
7.5000000e-01 3.0250001e+00 1.3000000e+01 
7.5000000e-01 3.0250001e+00 1.3500000e+01 
7.5000000e-01 3.0250001e+00 1.4000000e+01 
7.5000000e-01 3.0250001e+00 1.4500000e+01 
7.5000000e-01 3.0250001e+00 1.5000000e+01 
7.5000000e-01 3.0250001e+00 1.5500000e+01 
7.5000000e-01 3.0250001e+00 1.6000000e+01 
7.5000000e-01 3.0250001e+00 1.6500000e+01 
7.5000000e-01 3.0250001e+00 1.7000000e+01 
7.5000000e-01 3.0250001e+00 1.7500000e+01 
7.5000000e-01 3.0250001e+00 1.8000000e+01 
7.5000000e-01 3.0250001e+00 1.8500000e+01 
7.5000000e-01 3.0250001e+00 1.9000000e+01 
7.5000000e-01 3.0250001e+00 1.9500000e+01 
7.5000000e-01 3.0250001e+00 2.0000000e+01 
7.5000000e-01 3.0250001e+00 2.0500000e+01 
7.5000000e-01 3.0250001e+00 2.1000000e+01 
7.5000000e-01 3.0250001e+00 2.1500000e+01 
7.5000000e-01 3.0250001e+00 2.2000000e+01 
7.5000000e-01 3.0250001e+00 2.2500000e+01 
7.5000000e-01 3.0250001e+00 2.3000000e+01 
7.5000000e-01 3.0250001e+00 2.3500000e+01 
7.5000000e-01 3.0250001e+00 2.4000000e+01 
7.5000000e-01 3.0250001e+00 2.4500000e+01 
7.5000000e-01 3.0250001e+00 2.5000000e+01 
7.5000000e-01 3.0250001e+00 2.5500000e+01 
7.5000000e-01 3.0250001e+00 2.6000000e+01 
7.5000000e-01 3.0250001e+00 2.6500000e+01 
7.5000000e-01 3.0250001e+00 2.7000000e+01 
7.5000000e-01 3.0250001e+00 2.7500000e+01 
7.5000000e-01 3.0250001e+00 2.8000000e+01 
7.5000000e-01 3.0250001e+00 2.8500000e+01 
7.5000000e-01 3.0250001e+00 2.9000000e+01 
7.5000000e-01 3.0250001e+00 2.9500000e+01 
7.5000000e-01 3.0250001e+00 3.0000000e+01 
7.5000000e-01 3.0250001e+00 3.0500000e+01 
7.5000000e-01 3.0250001e+00 3.1000000e+01 
7.5000000e-01 3.0250001e+00 3.1500000e+01 
7.5000000e-01 3.0250001e+00 3.2000000e+01 
7.5000000e-01 3.0250001e+00 3.2500000e+01 
7.5000000e-01 3.0250001e+00 3.3000000e+01 
7.5000000e-01 3.0250001e+00 3.3500000e+01 
7.5000000e-01 3.0250001e+00 3.4000000e+01 
7.5000000e-01 3.0250001e+00 3.4500000e+01 
7.5000000e-01 3.0250001e+00 3.5000000e+01 
7.5000000e-01 3.0250001e+00 3.5500000e+01 
7.5000000e-01 3.0250001e+00 3.6000000e+01 
7.5000000e-01 3.0250001e+00 3.6500000e+01 
7.5000000e-01 3.0250001e+00 3.7000000e+01 
7.5000000e-01 3.0250001e+00 3.7500000e+01 
7.5000000e-01 3.0250001e+00 3.8000000e+01 
7.5000000e-01 3.0250001e+00 3.8500000e+01 
7.5000000e-01 3.0250001e+00 3.9000000e+01 
7.5000000e-01 3.0250001e+00 3.9500000e+01 
7.5000000e-01 3.0250001e+00 4.0000000e+01 
7.5000000e-01 3.0250001e+00 4.0500000e+01 
7.5000000e-01 3.0250001e+00 4.1000000e+01 
7.5000000e-01 3.0250001e+00 4.1500000e+01 
7.5000000e-01 3.0250001e+00 4.2000000e+01 
7.5000000e-01 3.0250001e+00 4.2500000e+01 
7.5000000e-01 3.0250001e+00 4.3000000e+01 
7.5000000e-01 3.0250001e+00 4.3500000e+01 
7.5000000e-01 3.0250001e+00 4.4000000e+01 
7.5000000e-01 3.0250001e+00 4.4500000e+01 
7.5000000e-01 3.0250001e+00 4.5000000e+01 
7.5000000e-01 3.0250001e+00 4.5500000e+01 
7.5000000e-01 3.0250001e+00 4.6000000e+01 
7.5000000e-01 3.0250001e+00 4.6500000e+01 
7.5000000e-01 3.0250001e+00 4.7000000e+01 
7.5000000e-01 3.0250001e+00 4.7500000e+01 
7.5000000e-01 3.0250001e+00 4.8000000e+01 
7.5000000e-01 3.0250001e+00 4.8500000e+01 
7.5000000e-01 3.0250001e+00 4.9000000e+01 
7.5000000e-01 3.0250001e+00 4.9500000e+01 
7.5000000e-01 3.0250001e+00 5.0000000e+01 
1.5000000e+00 3.0000000e+00 2.5000000e+01 
3.0000000e+00 2.0000000e+00 2.5000000e+01 
4.0000000e+00 2.0000000e+00 2.5000000e+01 
5.0000000e+00 2.0000000e+00 2.5000000e+01 
0.0000000e+00 3.0000000e+00 2.5000000e+01 
0.0000000e+00 0.0000000e+00 1.0000000e+00 
0.0000000e+00 0.0000000e+00 2.0000000e+00 
0.0000000e+00 0.0000000e+00 3.0000000e+00 
0.0000000e+00 0.0000000e+00 4.0000000e+00 
0.0000000e+00 0.0000000e+00 5.0000000e+00 
[...]
POINT_DATA 1919
FIELD FieldData 3
DISPLACEMENT 3 1919  float
0.0000000e+00 0.0000000e+00 0.0000000e+00 
0.0000000e+00 0.0000000e+00 0.0000000e+00 
0.0000000e+00 0.0000000e+00 0.0000000e+00 
0.0000000e+00 0.0000000e+00 0.0000000e+00 
-2.3935731e-06 3.1332211e-06 -2.7801307e-06 
1.8530874e-07 1.4086044e-07 4.6751424e-07 
0.0000000e+00 -3.1681936e-06 0.0000000e+00 
0.0000000e+00 -1.9968165e-07 0.0000000e+00 
1.4507751e-06 8.8362058e-06 -7.2039566e-06 
-2.2956331e-07 7.8146803e-07 -1.4931265e-07 
6.2532845e-06 1.3297509e-05 7.8114545e-06 
1.2393481e-08 -1.1673470e-07 1.3892164e-06 
0.0000000e+00 -9.0016374e-06 0.0000000e+00 
0.0000000e+00 2.2669782e-08 0.0000000e+00 
-2.4093395e-05 3.2305721e-05 -1.3734601e-05 
6.4751197e-07 -6.9528926e-07 -7.4212363e-07 
-5.0539831e-05 2.6403444e-05 -1.1041091e-06 
7.4324163e-08 8.8402436e-07 9.9423865e-08 
0.0000000e+00 -6.6226290e-05 0.0000000e+00 
0.0000000e+00 -6.8281793e-08 0.0000000e+00 
-3.4745728e-05 3.9452476e-05 -9.5221558e-06 
-2.4395566e-05 6.9858732e-05 -1.6567268e-05 
-2.2829165e-05 1.0032699e-04 -2.4070308e-05 
1.9643510e-05 1.2062042e-04 -3.1316027e-05 
3.4977154e-05 1.3159875e-04 -4.0767580e-05 
4.9687613e-05 1.4012845e-04 -4.7223984e-05 
5.0209030e-05 1.5459793e-04 -3.8771497e-05 
6.8499357e-05 1.7720842e-04 -3.0697342e-05 
6.0002316e-05 1.9598781e-04 -1.8718692e-05 
8.7771470e-05 1.9614487e-04 -1.4590820e-05 
6.2378094e-05 1.8366305e-04 -1.0141889e-05 
8.7070955e-05 1.8280624e-04 -4.9781124e-06 
6.0459199e-05 2.1659594e-04 1.4135582e-05 
9.3222967e-05 2.7792776e-04 3.9318020e-05 
7.7179226e-05 3.0851326e-04 8.2700513e-05 
8.8384011e-05 2.3109870e-04 1.0866711e-04 
2.9750059e-05 1.4090320e-05 1.5621801e-04 
2.6199541e-07 -3.4935787e-04 1.8474025e-04 
-6.8300556e-05 -9.0371876e-04 2.9613977e-04 
-1.0661839e-04 -1.7212126e-03 2.0678309e-04 
-2.1691098e-04 -2.8814129e-03 3.3527147e-04 
-3.2999928e-04 -4.2548776e-03 1.1769604e-04 
-4.3106673e-04 -5.2626519e-03 9.1543632e-05 
-4.4284819e-04 -5.0600814e-03 -7.4127438e-06 
-3.9486567e-04 -4.5067663e-03 -1.5207370e-04 
-3.2084470e-04 -4.2899996e-03 -1.9443441e-04 
-2.7488728e-04 -4.5745568e-03 -2.2690475e-04 
-2.6963558e-04 -4.6812226e-03 -3.2088449e-04 
-1.7094868e-04 -3.7327928e-03 -4.3538804e-04 
-1.1192341e-04 -2.3174973e-03 -2.8394605e-04 
4.4974531e-06 -1.0985108e-03 -2.8392641e-04 
4.0670646e-05 -3.0072889e-04 -1.1533009e-04 
7.8537909e-05 8.6707703e-05 -5.5541015e-05 
1.2779578e-04 2.0457810e-04 1.7415585e-05 
6.3170264e-05 1.9330233e-04 9.8710836e-05 
2.0800477e-05 1.4252993e-04 1.3052809e-04 
-1.6729251e-05 8.3850522e-05 1.6748981e-04 
-4.2337699e-05 3.2814271e-05 1.4648528e-04 
-6.4965665e-05 4.3270747e-06 1.2100254e-04 
-6.4118423e-05 -2.7449516e-08 7.5393778e-05 
-8.3807361e-05 1.4324369e-05 9.1906541e-06 
-5.6763132e-05 4.1697589e-05 -2.9247745e-05 
-3.8201259e-05 7.7919052e-05 -5.3611933e-05 
-1.4269658e-05 1.1445958e-04 -7.4415009e-05 
2.3893323e-05 1.3531547e-04 -6.5711953e-05 
3.9126240e-05 1.2826569e-04 -6.3370229e-05 
2.8147979e-05 1.0187703e-04 -5.1221639e-05 
6.0364950e-05 9.1150381e-05 -2.7214550e-05 
2.7272241e-05 1.1172501e-04 -2.2312886e-05 
8.1772021e-05 1.4394484e-04 -1.7289492e-05 
6.8711270e-05 1.5775215e-04 -8.4488192e-06 
8.7316352e-05 1.4914678e-04 6.3296347e-06 
6.0055518e-05 1.4313211e-04 2.0905825e-05 
6.6911474e-05 1.7588459e-04 5.6260113e-05 
6.7905588e-05 2.2811927e-04 1.0057576e-04 
7.6415883e-05 2.0628264e-04 1.0723827e-04 
2.1610775e-05 8.4283738e-06 1.6987158e-04 
-1.5550820e-06 -4.3307175e-04 1.8550326e-04 
-8.3483901e-05 -1.1335670e-03 2.8470095e-04 
-1.6296479e-04 -2.0643852e-03 2.0614939e-04 
-2.4283107e-04 -3.2260458e-03 3.3241743e-04 
-3.4488656e-04 -4.4481284e-03 7.3338990e-05 
-4.2683657e-04 -5.2302987e-03 2.3681800e-05 
-4.2220985e-04 -4.9727121e-03 -3.8672839e-05 
-3.9443609e-04 -4.5410548e-03 -1.6133716e-04 
-4.0389920e-04 -4.4540120e-03 -2.1548508e-04 
-3.7544838e-04 -4.7167982e-03 -2.5190137e-04 
-3.4391624e-04 -4.6196980e-03 -3.2700849e-04 
-2.2939201e-04 -3.5237810e-03 -5.0529704e-04 
-1.2569208e-04 -2.0728870e-03 -2.7856318e-04 
-6.5238390e-07 -9.2224538e-04 -2.4739903e-04 
2.1597141e-05 -2.1612682e-04 -9.2773887e-05 
4.7361780e-05 1.2682583e-04 -5.2737530e-05 
6.2645871e-05 2.4432607e-04 -1.2853462e-05 
5.5412700e-05 2.3973187e-04 3.4754550e-05 
5.7846206e-05 1.7266434e-04 9.9506629e-05 
7.6082979e-06 8.9623420e-05 1.2037884e-04 
-4.5560714e-06 2.9090435e-05 9.9613047e-05 
-3.4958553e-05 1.0761394e-06 6.3797845e-05 
-3.1448948e-05 -8.2104370e-06 2.3295699e-05 
-3.1188811e-05 -1.2607439e-05 -1.5079109e-05 
-2.7894455e-05 -1.3443257e-05 -2.9561779e-05 
-5.5993055e-06 -5.6621566e-06 -3.5555742e-05 
-7.6268293e-07 6.8138820e-06 -2.6261940e-05 
6.7524925e-06 1.3814212e-05 -1.3410139e-05 
1.0369675e-05 1.1044800e-05 -8.1130693e-06 
5.1984457e-06 2.4556932e-06 -3.3166179e-06 
4.7778949e-06 -3.7726716e-06 -2.0495590e-06 
3.7480577e-06 -4.5529832e-06 5.6311575e-07 
1.3710495e-06 -2.9069602e-06 9.5307234e-07 
1.7980946e-06 -2.3869650e-06 2.1393464e-06 
4.2781721e-07 -2.8480044e-06 1.4703581e-06 
-1.5419005e-06 -2.1251544e-06 1.7159226e-06 
-1.2578826e-06 -1.1665087e-07 6.3957424e-07 
-1.7803674e-06 1.3111963e-06 6.4416605e-07 
-8.2819776e-07 9.8095779e-07 8.4631807e-07 
6.1998350e-07 -2.4723585e-07 8.0299770e-08 
-4.8940893e-07 -6.2088100e-07 -1.2000518e-07 
2.1751468e-07 2.2230263e-07 -1.1213762e-07 
0.0000000e+00 2.6729118e-05 0.0000000e+00 
0.0000000e+00 3.9720282e-05 0.0000000e+00 
0.0000000e+00 6.9726586e-05 0.0000000e+00 
0.0000000e+00 1.0013241e-04 0.0000000e+00 
0.0000000e+00 1.2050939e-04 0.0000000e+00 
0.0000000e+00 1.3142383e-04 0.0000000e+00 
0.0000000e+00 1.4024592e-04 0.0000000e+00 
0.0000000e+00 1.5526885e-04 0.0000000e+00 
0.0000000e+00 1.7759448e-04 0.0000000e+00 
0.0000000e+00 1.9550078e-04 0.0000000e+00 
0.0000000e+00 1.9557695e-04 0.0000000e+00 
0.0000000e+00 1.8328794e-04 0.0000000e+00 
0.0000000e+00 1.8340317e-04 0.0000000e+00 
0.0000000e+00 2.1881209e-04 0.0000000e+00 
0.0000000e+00 2.7958324e-04 0.0000000e+00 
0.0000000e+00 3.0732958e-04 0.0000000e+00 
0.0000000e+00 2.2997893e-04 0.0000000e+00 
0.0000000e+00 1.4660719e-05 0.0000000e+00 
0.0000000e+00 -3.4884209e-04 0.0000000e+00 
0.0000000e+00 -9.0254867e-04 0.0000000e+00 
0.0000000e+00 -1.7272040e-03 0.0000000e+00 
0.0000000e+00 -2.8965238e-03 0.0000000e+00 
0.0000000e+00 -4.2862371e-03 0.0000000e+00 
0.0000000e+00 -5.2858857e-03 0.0000000e+00 
0.0000000e+00 -5.0892476e-03 0.0000000e+00 
0.0000000e+00 -4.5244242e-03 0.0000000e+00 
0.0000000e+00 -4.3190131e-03 0.0000000e+00 
0.0000000e+00 -4.6016960e-03 0.0000000e+00 
0.0000000e+00 -4.7126240e-03 0.0000000e+00 
0.0000000e+00 -3.7519888e-03 0.0000000e+00 
0.0000000e+00 -2.3341232e-03 0.0000000e+00 
0.0000000e+00 -1.1066379e-03 0.0000000e+00 
0.0000000e+00 -3.0431731e-04 0.0000000e+00 
0.0000000e+00 8.7594875e-05 0.0000000e+00 
0.0000000e+00 2.0649670e-04 0.0000000e+00 
0.0000000e+00 1.9504160e-04 0.0000000e+00 
0.0000000e+00 1.4293061e-04 0.0000000e+00 
0.0000000e+00 8.4092979e-05 0.0000000e+00 
0.0000000e+00 3.3581786e-05 0.0000000e+00 
0.0000000e+00 4.5024690e-06 0.0000000e+00 
0.0000000e+00 -2.8323848e-07 0.0000000e+00 
0.0000000e+00 1.4110018e-05 0.0000000e+00 
0.0000000e+00 4.1961390e-05 0.0000000e+00 
0.0000000e+00 7.8526522e-05 0.0000000e+00 
0.0000000e+00 1.1460674e-04 0.0000000e+00 
0.0000000e+00 1.3452982e-04 0.0000000e+00 
0.0000000e+00 1.2695363e-04 0.0000000e+00 
0.0000000e+00 1.0249027e-04 0.0000000e+00 
0.0000000e+00 9.2627233e-05 0.0000000e+00 
0.0000000e+00 1.1236819e-04 0.0000000e+00 
0.0000000e+00 1.4320062e-04 0.0000000e+00 
0.0000000e+00 1.5664219e-04 0.0000000e+00 
0.0000000e+00 1.4826686e-04 0.0000000e+00 
0.0000000e+00 1.4466044e-04 0.0000000e+00 
0.0000000e+00 1.7869554e-04 0.0000000e+00 
0.0000000e+00 2.2938622e-04 0.0000000e+00 
0.0000000e+00 2.0605819e-04 0.0000000e+00 
0.0000000e+00 6.0951279e-06 0.0000000e+00 
0.0000000e+00 -4.3587937e-04 0.0000000e+00 
0.0000000e+00 -1.1327650e-03 0.0000000e+00 
0.0000000e+00 -2.0700120e-03 0.0000000e+00 
0.0000000e+00 -3.2386384e-03 0.0000000e+00 
0.0000000e+00 -4.4786381e-03 0.0000000e+00 
0.0000000e+00 -5.2571706e-03 0.0000000e+00 
0.0000000e+00 -5.0062123e-03 0.0000000e+00 
0.0000000e+00 -4.5586736e-03 0.0000000e+00 
0.0000000e+00 -4.4804686e-03 0.0000000e+00 
0.0000000e+00 -4.7394056e-03 0.0000000e+00 
0.0000000e+00 -4.6531656e-03 0.0000000e+00 
0.0000000e+00 -3.5427641e-03 0.0000000e+00 
0.0000000e+00 -2.0908499e-03 0.0000000e+00 
0.0000000e+00 -9.2910451e-04 0.0000000e+00 
0.0000000e+00 -2.1707434e-04 0.0000000e+00 
0.0000000e+00 1.2820997e-04 0.0000000e+00 
0.0000000e+00 2.4569369e-04 0.0000000e+00 
0.0000000e+00 2.4028873e-04 0.0000000e+00 
0.0000000e+00 1.7326303e-04 0.0000000e+00 
0.0000000e+00 9.0790745e-05 0.0000000e+00 
0.0000000e+00 2.9711431e-05 0.0000000e+00 
0.0000000e+00 8.4552096e-07 0.0000000e+00 
0.0000000e+00 -8.6202172e-06 0.0000000e+00 
0.0000000e+00 -1.2670332e-05 0.0000000e+00 
0.0000000e+00 -1.3046632e-05 0.0000000e+00 
0.0000000e+00 -5.5507262e-06 0.0000000e+00 
0.0000000e+00 6.4578021e-06 0.0000000e+00 
0.0000000e+00 1.3553406e-05 0.0000000e+00 
0.0000000e+00 1.1021668e-05 0.0000000e+00 
0.0000000e+00 2.6789207e-06 0.0000000e+00 
0.0000000e+00 -3.6271858e-06 0.0000000e+00 
0.0000000e+00 -4.5904362e-06 0.0000000e+00 
0.0000000e+00 -3.0107333e-06 0.0000000e+00 
0.0000000e+00 -2.4149590e-06 0.0000000e+00 
0.0000000e+00 -2.7738995e-06 0.0000000e+00 
0.0000000e+00 -2.0867092e-06 0.0000000e+00 
0.0000000e+00 -1.5735552e-07 0.0000000e+00 
0.0000000e+00 1.2553259e-06 0.0000000e+00 
0.0000000e+00 9.6446786e-07 0.0000000e+00 
0.0000000e+00 -2.0606565e-07 0.0000000e+00 
0.0000000e+00 -5.7527137e-07 0.0000000e+00 
0.0000000e+00 2.1989759e-07 0.0000000e+00 
0.0000000e+00 8.4689714e-07 0.0000000e+00 
9.3487164e-05 8.2112174e-06 -7.8704943e-06 
-9.3557937e-06 -4.6712257e-06 1.1142169e-05 
-8.1351645e-06 -1.5197247e-05 1.4560690e-06 
9.2825876e-06 -3.2480250e-05 -3.6635988e-06 
0.0000000e+00 1.1041638e-04 0.0000000e+00 
0.0000000e+00 0.0000000e+00 0.0000000e+00 
0.0000000e+00 0.0000000e+00 0.0000000e+00 
0.0000000e+00 0.0000000e+00 0.0000000e+00 
0.0000000e+00 0.0000000e+00 0.0000000e+00 
0.0000000e+00 0.0000000e+00 0.0000000e+00 
0.0000000e+00 0.0000000e+00 0.0000000e+00 
0.0000000e+00 0.0000000e+00 0.0000000e+00 
0.0000000e+00 0.0000000e+00 0.0000000e+00 
0.0000000e+00 0.0000000e+00 0.0000000e+00 
0.0000000e+00 0.0000000e+00 0.0000000e+00 
0.0000000e+00 0.0000000e+00 0.0000000e+00 
0.0000000e+00 0.0000000e+00 0.0000000e+00 
0.0000000e+00 0.0000000e+00 0.0000000e+00 
0.0000000e+00 0.0000000e+00 0.0000000e+00 
0.0000000e+00 0.0000000e+00 0.0000000e+00 
0.0000000e+00 0.0000000e+00 0.0000000e+00 
0.0000000e+00 0.0000000e+00 0.0000000e+00 
0.0000000e+00 0.0000000e+00 0.0000000e+00 
0.0000000e+00 0.0000000e+00 0.0000000e+00 
0.0000000e+00 0.0000000e+00 0.0000000e+00 
0.0000000e+00 0.0000000e+00 0.0000000e+00 
0.0000000e+00 0.0000000e+00 0.0000000e+00 
0.0000000e+00 0.0000000e+00 0.0000000e+00 
0.0000000e+00 0.0000000e+00 0.0000000e+00 
0.0000000e+00 0.0000000e+00 0.0000000e+00 
0.0000000e+00 0.0000000e+00 0.0000000e+00 
0.0000000e+00 0.0000000e+00 0.0000000e+00 
0.0000000e+00 0.0000000e+00 0.0000000e+00 
0.0000000e+00 0.0000000e+00 0.0000000e+00 
0.0000000e+00 0.0000000e+00 0.0000000e+00 
0.0000000e+00 0.0000000e+00 0.0000000e+00 
0.0000000e+00 0.0000000e+00 0.0000000e+00 
0.0000000e+00 0.0000000e+00 0.0000000e+00 
0.0000000e+00 0.0000000e+00 0.0000000e+00 
0.0000000e+00 0.0000000e+00 0.0000000e+00 
0.0000000e+00 0.0000000e+00 0.0000000e+00 
0.0000000e+00 0.0000000e+00 0.0000000e+00 
0.0000000e+00 0.0000000e+00 0.0000000e+00 
0.0000000e+00 0.0000000e+00 0.0000000e+00 
0.0000000e+00 0.0000000e+00 0.0000000e+00 
0.0000000e+00 0.0000000e+00 0.0000000e+00 
0.0000000e+00 0.0000000e+00 0.0000000e+00 
0.0000000e+00 0.0000000e+00 0.0000000e+00 
0.0000000e+00 0.0000000e+00 0.0000000e+00 
0.0000000e+00 0.0000000e+00 0.0000000e+00 
0.0000000e+00 0.0000000e+00 0.0000000e+00 
0.0000000e+00 0.0000000e+00 0.0000000e+00 
0.0000000e+00 0.0000000e+00 0.0000000e+00 
0.0000000e+00 0.0000000e+00 0.0000000e+00 
0.0000000e+00 0.0000000e+00 0.0000000e+00 
0.0000000e+00 0.0000000e+00 0.0000000e+00 
0.0000000e+00 0.0000000e+00 0.0000000e+00 
0.0000000e+00 0.0000000e+00 0.0000000e+00 
0.0000000e+00 0.0000000e+00 0.0000000e+00 
0.0000000e+00 0.0000000e+00 0.0000000e+00 
0.0000000e+00 0.0000000e+00 0.0000000e+00 
0.0000000e+00 0.0000000e+00 0.0000000e+00 
0.0000000e+00 0.0000000e+00 0.0000000e+00 
0.0000000e+00 0.0000000e+00 0.0000000e+00 
0.0000000e+00 0.0000000e+00 0.0000000e+00 
0.0000000e+00 0.0000000e+00 0.0000000e+00 
0.0000000e+00 0.0000000e+00 0.0000000e+00 
0.0000000e+00 0.0000000e+00 0.0000000e+00 
0.0000000e+00 0.0000000e+00 0.0000000e+00 
0.0000000e+00 0.0000000e+00 0.0000000e+00 
0.0000000e+00 0.0000000e+00 0.0000000e+00 
0.0000000e+00 0.0000000e+00 0.0000000e+00 
0.0000000e+00 0.0000000e+00 0.0000000e+00 
0.0000000e+00 0.0000000e+00 0.0000000e+00 
0.0000000e+00 0.0000000e+00 0.0000000e+00 
0.0000000e+00 0.0000000e+00 0.0000000e+00 
0.0000000e+00 0.0000000e+00 0.0000000e+00 
0.0000000e+00 0.0000000e+00 0.0000000e+00 
0.0000000e+00 0.0000000e+00 0.0000000e+00 
0.0000000e+00 0.0000000e+00 0.0000000e+00 
0.0000000e+00 0.0000000e+00 0.0000000e+00 
0.0000000e+00 0.0000000e+00 0.0000000e+00 
0.0000000e+00 0.0000000e+00 0.0000000e+00 
0.0000000e+00 0.0000000e+00 0.0000000e+00 
0.0000000e+00 0.0000000e+00 0.0000000e+00 
0.0000000e+00 0.0000000e+00 0.0000000e+00 
0.0000000e+00 0.0000000e+00 0.0000000e+00 
0.0000000e+00 0.0000000e+00 0.0000000e+00 
0.0000000e+00 0.0000000e+00 0.0000000e+00 
0.0000000e+00 0.0000000e+00 0.0000000e+00 
0.0000000e+00 0.0000000e+00 0.0000000e+00 
0.0000000e+00 0.0000000e+00 0.0000000e+00 
0.0000000e+00 0.0000000e+00 0.0000000e+00 
0.0000000e+00 0.0000000e+00 0.0000000e+00 
0.0000000e+00 0.0000000e+00 0.0000000e+00 
0.0000000e+00 0.0000000e+00 0.0000000e+00 
0.0000000e+00 0.0000000e+00 0.0000000e+00 
0.0000000e+00 0.0000000e+00 0.0000000e+00 
0.0000000e+00 0.0000000e+00 0.0000000e+00 
0.0000000e+00 0.0000000e+00 0.0000000e+00 
0.0000000e+00 0.0000000e+00 0.0000000e+00 
0.0000000e+00 0.0000000e+00 0.0000000e+00 
0.0000000e+00 0.0000000e+00 0.0000000e+00 
0.0000000e+00 0.0000000e+00 0.0000000e+00 
0.0000000e+00 0.0000000e+00 0.0000000e+00 
0.0000000e+00 0.0000000e+00 0.0000000e+00 
0.0000000e+00 0.0000000e+00 0.0000000e+00 
0.0000000e+00 0.0000000e+00 0.0000000e+00 
0.0000000e+00 0.0000000e+00 0.0000000e+00 
0.0000000e+00 0.0000000e+00 0.0000000e+00 
0.0000000e+00 0.0000000e+00 0.0000000e+00 
5.5949622e-06 3.4834923e-06 -9.2054524e-06 
8.5233296e-06 -9.3404691e-07 -4.6174632e-06 
1.1423548e-05 -6.0790130e-06 -4.6100668e-06 
1.3053012e-05 -1.1410904e-05 -5.8350211e-06 
6.4811438e-06 -2.1317090e-05 -2.8143468e-06 
1.4272091e-05 -5.1620145e-06 -6.9071248e-06 
1.5483107e-05 -2.0515246e-05 -7.8077583e-06 
2.1691521e-05 -2.2220536e-05 -1.2498039e-05 
3.5508929e-05 -8.8897968e-06 -1.8199004e-05 
5.5884833e-05 -1.4027646e-05 -1.6792337e-05 
5.6179131e-05 -1.2712382e-05 -1.1211358e-05 
5.7140733e-05 -7.2778130e-06 -2.4615620e-06 
4.5232009e-05 -8.2665565e-06 8.2864935e-06 
2.8708660e-05 -8.2354591e-06 1.1500991e-05 
1.7852173e-05 -5.3208232e-06 8.5219317e-06 
5.9833842e-06 -2.8071802e-06 6.7722813e-06 
-2.4571998e-06 1.0188088e-06 8.7674343e-06 
-3.6292518e-06 3.7382792e-06 7.6979668e-06 
-1.0916211e-07 3.8102946e-06 1.1213354e-05 
3.1803083e-06 4.5653292e-06 1.5528949e-05 
9.4403922e-06 -7.5294190e-07 9.3891877e-06 
1.3073127e-05 -7.4554459e-06 4.0375312e-06 
9.7170450e-06 -4.3551199e-06 1.8248464e-06 
1.1334980e-05 -1.3212535e-05 -1.9705451e-06 
9.2808614e-06 -2.6990847e-05 -5.9390036e-06 
7.8265057e-06 -1.8519702e-05 -7.8505027e-06 
1.6929320e-05 -1.9285748e-05 -9.7403690e-06 
2.4941550e-05 -2.6893085e-05 -1.4974273e-05 
4.2134405e-05 -2.0236466e-05 -1.2997001e-05 
5.8545502e-05 -1.9063371e-05 -8.4774792e-06 
5.5467011e-05 -1.4873911e-05 -4.1588551e-06 
5.7683112e-05 -5.8345177e-06 5.3115718e-07 
4.3128632e-05 -5.4037064e-06 3.5205107e-06 
2.7149219e-05 -5.7121624e-06 4.1547491e-06 
1.6308641e-05 -3.5824721e-06 6.9633995e-07 
7.3547299e-06 6.9501613e-07 1.4595204e-06 
2.3218113e-06 -1.3715850e-06 4.8087355e-07 
2.9640250e-06 -2.9477237e-06 4.4150643e-06 
1.3561859e-06 -1.8261243e-08 9.1530201e-06 
-1.3077494e-07 1.5351168e-07 1.1162021e-05 
1.6501651e-06 -2.4263315e-06 8.5847014e-06 
2.4112221e-06 -4.8177963e-06 6.1282390e-06 
1.5320115e-06 -6.5369511e-07 3.1368147e-06 
6.3483390e-07 2.4421690e-06 -1.0501211e-06 
-1.1225301e-07 -4.7687911e-07 -3.1845575e-06 
-8.9948253e-07 -7.1037618e-08 -2.6667387e-06 
-8.2768560e-07 2.9456669e-07 -1.7218217e-06 
-1.2707953e-07 3.6823951e-07 1.1884605e-07 
2.4161625e-07 -7.5956365e-07 4.9563880e-07 
0.0000000e+00 -1.2648289e-05 0.0000000e+00 
0.0000000e+00 -3.6484111e-05 0.0000000e+00 
0.0000000e+00 -2.4080873e-05 0.0000000e+00 
0.0000000e+00 4.2154038e-06 0.0000000e+00 
0.0000000e+00 -9.3313283e-06 0.0000000e+00 
0.0000000e+00 2.2366448e-05 0.0000000e+00 
0.0000000e+00 4.0460935e-05 0.0000000e+00 
0.0000000e+00 -6.3855441e-05 0.0000000e+00 
0.0000000e+00 -1.3107801e-04 0.0000000e+00 
0.0000000e+00 -3.0414911e-04 0.0000000e+00 
0.0000000e+00 -4.9732474e-04 0.0000000e+00 
0.0000000e+00 -5.6162768e-04 0.0000000e+00 
0.0000000e+00 -5.5544451e-04 0.0000000e+00 
0.0000000e+00 -4.1513040e-04 0.0000000e+00 
0.0000000e+00 -2.3751709e-04 0.0000000e+00 
0.0000000e+00 -5.2697651e-05 0.0000000e+00 
0.0000000e+00 2.2973845e-05 0.0000000e+00 
0.0000000e+00 1.3449680e-05 0.0000000e+00 
0.0000000e+00 -8.8497600e-06 0.0000000e+00 
0.0000000e+00 -3.6093366e-05 0.0000000e+00 
0.0000000e+00 -1.7864224e-05 0.0000000e+00 
0.0000000e+00 9.6268806e-08 0.0000000e+00 
0.0000000e+00 1.5811095e-06 0.0000000e+00 
0.0000000e+00 6.5806104e-05 0.0000000e+00 
0.0000000e+00 5.2953757e-05 0.0000000e+00 
0.0000000e+00 6.2722029e-05 0.0000000e+00 
0.0000000e+00 9.1351336e-05 0.0000000e+00 
0.0000000e+00 -1.1113382e-05 0.0000000e+00 
0.0000000e+00 -1.7044631e-04 0.0000000e+00 
0.0000000e+00 -3.0391879e-04 0.0000000e+00 
0.0000000e+00 -5.2863400e-04 0.0000000e+00 
0.0000000e+00 -5.7272002e-04 0.0000000e+00 
0.0000000e+00 -5.2385317e-04 0.0000000e+00 
0.0000000e+00 -4.2720046e-04 0.0000000e+00 
0.0000000e+00 -2.1033619e-04 0.0000000e+00 
0.0000000e+00 -3.2886426e-05 0.0000000e+00 
0.0000000e+00 -3.4184811e-07 0.0000000e+00 
0.0000000e+00 7.5456373e-06 0.0000000e+00 
0.0000000e+00 -1.5375781e-06 0.0000000e+00 
0.0000000e+00 -1.2539988e-05 0.0000000e+00 
0.0000000e+00 -5.0512917e-06 0.0000000e+00 
0.0000000e+00 1.0971220e-05 0.0000000e+00 
0.0000000e+00 4.1992535e-06 0.0000000e+00 
0.0000000e+00 -3.7221876e-06 0.0000000e+00 
0.0000000e+00 -1.4083786e-06 0.0000000e+00 
0.0000000e+00 1.8029118e-06 0.0000000e+00 
0.0000000e+00 2.5282012e-07 0.0000000e+00 
0.0000000e+00 1.1367090e-07 0.0000000e+00 
0.0000000e+00 4.5923812e-07 0.0000000e+00 
3.7875664e-06 2.2561426e-06 -4.2248571e-06 
9.9459021e-07 1.2677608e-05 6.3010630e-06 
2.2994166e-06 2.2510587e-05 1.4568556e-05 
9.1210659e-06 9.7556376e-06 1.7429753e-05 
1.2812596e-07 -5.6634155e-07 4.7174274e-07 
-3.5569678e-07 -5.1350547e-08 8.0272548e-07 
-2.7828062e-07 3.9556650e-07 7.2051745e-07 
1.0094742e-07 4.2067765e-07 6.0512406e-07 
9.1657319e-07 4.8382858e-06 5.1651436e-06 
3.9973347e-07 -3.5181512e-07 5.3516186e-07 
1.9584445e-07 2.2515519e-06 3.3533583e-05 
3.9802958e-06 3.7773701e-05 1.8875211e-05 
0.0000000e+00 -3.9861592e-05 0.0000000e+00 
0.0000000e+00 -3.4442561e-05 0.0000000e+00 
0.0000000e+00 -1.1744712e-05 0.0000000e+00 
0.0000000e+00 4.7381513e-06 0.0000000e+00 
0.0000000e+00 -8.0659134e-07 0.0000000e+00 
0.0000000e+00 7.0508999e-05 0.0000000e+00 
0.0000000e+00 4.9846483e-05 0.0000000e+00 
0.0000000e+00 -6.9991511e-05 0.0000000e+00 
0.0000000e+00 -2.2504413e-04 0.0000000e+00 
0.0000000e+00 -6.4577273e-04 0.0000000e+00 
0.0000000e+00 -1.1043611e-03 0.0000000e+00 
0.0000000e+00 -1.1432241e-03 0.0000000e+00 
0.0000000e+00 -1.1197310e-03 0.0000000e+00 
0.0000000e+00 -9.1583712e-04 0.0000000e+00 