# vtk DataFile Version 4.0
vtk output
ASCII
DATASET UNSTRUCTURED_GRID
POINTS 1919 float
0.0000000e+00 0.0000000e+00 0.0000000e+00 
0.0000000e+00 0.0000000e+00 5.0000000e+01 
5.0000000e+00 0.0000000e+00 0.0000000e+00 
5.0000000e+00 0.0000000e+00 5.0000000e+01 
5.0000000e+00 1.0000000e+00 0.0000000e+00 
5.0000000e+00 1.0000000e+00 5.0000000e+01 
0.0000000e+00 1.0000000e+00 0.0000000e+00 
0.0000000e+00 1.0000000e+00 5.0000000e+01 
5.0000000e+00 2.0000000e+00 0.0000000e+00 
5.0000000e+00 2.0000000e+00 5.0000000e+01 
3.0000000e+00 2.0000000e+00 0.0000000e+00 
3.0000000e+00 2.0000000e+00 5.0000000e+01 
0.0000000e+00 2.0000000e+00 0.0000000e+00 
0.0000000e+00 2.0000000e+00 5.0000000e+01 
1.5000000e+00 3.0000000e+00 0.0000000e+00 
1.5000000e+00 3.0000000e+00 5.0000000e+01 
7.5000000e-01 3.0000000e+00 0.0000000e+00 
7.5000000e-01 3.0000000e+00 5.0000000e+01 
0.0000000e+00 3.0000000e+00 0.0000000e+00 
0.0000000e+00 3.0000000e+00 5.0000000e+01 
7.5000000e-01 3.0000000e+00 5.0000000e-01 
7.5000000e-01 3.0000000e+00 1.0000000e+00 
7.5000000e-01 3.0000000e+00 1.5000000e+00 
7.5000000e-01 3.0000000e+00 2.0000000e+00 
7.5000000e-01 3.0000000e+00 2.5000000e+00 
7.5000000e-01 3.0000000e+00 3.0000000e+00 
7.5000000e-01 3.0000000e+00 3.5000000e+00 
7.5000000e-01 3.0000000e+00 4.0000000e+00 
7.5000000e-01 3.0000000e+00 4.5000000e+00 
7.5000000e-01 3.0000000e+00 5.0000000e+00 
7.5000000e-01 3.0000000e+00 5.5000000e+00 
7.5000000e-01 3.0000000e+00 6.0000000e+00 
7.5000000e-01 3.0000000e+00 6.5000000e+00 
7.5000000e-01 3.0000000e+00 7.0000000e+00 
7.5000000e-01 3.0000000e+00 7.5000000e+00 
7.5000000e-01 3.0000000e+00 8.0000000e+00 
7.5000000e-01 3.0000000e+00 8.5000000e+00 
7.5000000e-01 3.0000000e+00 9.0000000e+00 
7.5000000e-01 3.0000000e+00 9.5000000e+00 
7.5000000e-01 3.0000000e+00 1.0000000e+01 
7.5000000e-01 3.0000000e+00 1.0500000e+01 
7.5000000e-01 3.0000000e+00 1.1000000e+01 
7.5000000e-01 3.0000000e+00 1.1500000e+01 
7.5000000e-01 3.0000000e+00 1.2000000e+01 
7.5000000e-01 3.0000000e+00 1.2500000e+01 
7.5000000e-01 3.0000000e+00 1.3000000e+01 
7.5000000e-01 3.0000000e+00 1.3500000e+01 
7.5000000e-01 3.0000000e+00 1.4000000e+01 
7.5000000e-01 3.0000000e+00 1.4500000e+01 
7.5000000e-01 3.0000000e+00 1.5000000e+01 
7.5000000e-01 3.0000000e+00 1.5500000e+01 
7.5000000e-01 3.0000000e+00 1.6000000e+01 
7.5000000e-01 3.0000000e+00 1.6500000e+01 
7.5000000e-01 3.0000000e+00 1.7000000e+01 
7.5000000e-01 3.0000000e+00 1.7500000e+01 
7.5000000e-01 3.0000000e+00 1.8000000e+01 
7.5000000e-01 3.0000000e+00 1.8500000e+01 
7.5000000e-01 3.0000000e+00 1.9000000e+01 
7.5000000e-01 3.0000000e+00 1.9500000e+01 
7.5000000e-01 3.0000000e+00 2.0000000e+01 
7.5000000e-01 3.0000000e+00 2.0500000e+01 
7.5000000e-01 3.0000000e+00 2.1000000e+01 
7.5000000e-01 3.0000000e+00 2.1500000e+01 
7.5000000e-01 3.0000000e+00 2.2000000e+01 
7.5000000e-01 3.0000000e+00 2.2500000e+01 
7.5000000e-01 3.0000000e+00 2.3000000e+01 
7.5000000e-01 3.0000000e+00 2.3500000e+01 
7.5000000e-01 3.0000000e+00 2.4000000e+01 
7.5000000e-01 3.0000000e+00 2.4500000e+01 
7.5000000e-01 3.0000000e+00 2.5000000e+01 
7.5000000e-01 3.0000000e+00 2.5500000e+01 
7.5000000e-01 3.0000000e+00 2.6000000e+01 
7.5000000e-01 3.0000000e+00 2.6500000e+01 
7.5000000e-01 3.0000000e+00 2.7000000e+01 
7.5000000e-01 3.0000000e+00 2.7500000e+01 
7.5000000e-01 3.0000000e+00 2.8000000e+01 
7.5000000e-01 3.0000000e+00 2.8500000e+01 
7.5000000e-01 3.0000000e+00 2.9000000e+01 
7.5000000e-01 3.0000000e+00 2.9500000e+01 
7.5000000e-01 3.0000000e+00 3.0000000e+01 
7.5000000e-01 3.0000000e+00 3.0500000e+01 
7.5000000e-01 3.0000000e+00 3.1000000e+01 
7.5000000e-01 3.0000000e+00 3.1500000e+01 
7.5000000e-01 3.0000000e+00 3.2000000e+01 
7.5000000e-01 3.0000000e+00 3.2500000e+01 
7.5000000e-01 3.0000000e+00 3.3000000e+01 
7.5000000e-01 3.0000000e+00 3.3500000e+01 
7.5000000e-01 3.0000000e+00 3.4000000e+01 
7.5000000e-01 3.0000000e+00 3.4500000e+01 
7.5000000e-01 3.0000000e+00 3.5000000e+01 
7.5000000e-01 3.0000000e+00 3.5500000e+01 
7.5000000e-01 3.0000000e+00 3.6000000e+01 
7.5000000e-01 3.0000000e+00 3.6500000e+01 
7.5000000e-01 3.0000000e+00 3.7000000e+01 
7.5000000e-01 3.0000000e+00 3.7500000e+01 
7.5000000e-01 3.0000000e+00 3.8000000e+01 
7.5000000e-01 3.0000000e+00 3.8500000e+01 
7.5000000e-01 3.0000000e+00 3.9000000e+01 
7.5000000e-01 3.0000000e+00 3.9500000e+01 
7.5000000e-01 3.0000000e+00 4.0000000e+01 
7.5000000e-01 3.0000000e+00 4.0500000e+01 
7.5000000e-01 3.0000000e+00 4.1000000e+01 
7.5000000e-01 3.0000000e+00 4.1500000e+01 
7.5000000e-01 3.0000000e+00 4.2000000e+01 
7.5000000e-01 3.0000000e+00 4.2500000e+01 
7.5000000e-01 3.0000000e+00 4.3000000e+01 
7.5000000e-01 3.0000000e+00 4.3500000e+01 
7.5000000e-01 3.0000000e+00 4.4000000e+01 
7.5000000e-01 3.0000000e+00 4.4500000e+01 
7.5000000e-01 3.0000000e+00 4.5000000e+01 
7.5000000e-01 3.0000000e+00 4.5500000e+01 
7.5000000e-01 3.0000000e+00 4.6000000e+01 
7.5000000e-01 3.0000000e+00 4.6500000e+01 
7.5000000e-01 3.0000000e+00 4.7000000e+01 
7.5000000e-01 3.0000000e+00 4.7500000e+01 
7.5000000e-01 3.0000000e+00 4.8000000e+01 
7.5000000e-01 3.0000000e+00 4.8500000e+01 
7.5000000e-01 3.0000000e+00 4.9000000e+01 
7.5000000e-01 3.0000000e+00 4.9500000e+01 
7.5000000e-01 3.0250001e+00 0.0000000e+00 
7.5000000e-01 3.0250001e+00 5.0000000e-01 
7.5000000e-01 3.0250001e+00 1.0000000e+00 
7.5000000e-01 3.0250001e+00 1.5000000e+00 
7.5000000e-01 3.0250001e+00 2.0000000e+00 
7.5000000e-01 3.0250001e+00 2.5000000e+00 
7.5000000e-01 3.0250001e+00 3.0000000e+00 
7.5000000e-01 3.0250001e+00 3.5000000e+00 
7.5000000e-01 3.0250001e+00 4.0000000e+00 
7.5000000e-01 3.0250001e+00 4.5000000e+00 
7.5000000e-01 3.0250001e+00 5.0000000e+00 
7.5000000e-01 3.0250001e+00 5.5000000e+00 
7.5000000e-01 3.0250001e+00 6.0000000e+00 
7.5000000e-01 3.0250001e+00 6.5000000e+00 
7.5000000e-01 3.0250001e+00 7.0000000e+00 
7.5000000e-01 3.0250001e+00 7.5000000e+00 
7.5000000e-01 3.0250001e+00 8.0000000e+00 
7.5000000e-01 3.0250001e+00 8.5000000e+00 
7.5000000e-01 3.0250001e+00 9.0000000e+00 
7.5000000e-01 3.0250001e+00 9.5000000e+00 
7.5000000e-01 3.0250001e+00 1.0000000e+01 
7.5000000e-01 3.0250001e+00 1.0500000e+01 
7.5000000e-01 3.0250001e+00 1.1000000e+01 
7.5000000e-01 3.0250001e+00 1.1500000e+01 
7.5000000e-01 3.0250001e+00 1.2000000e+01 
7.5000000e-01 3.0250001e+00 1.2500000e+01 
7.5000000e-01 3.0250001e+00 1.3000000e+01 
7.5000000e-01 3.0250001e+00 1.3500000e+01 
7.5000000e-01 3.0250001e+00 1.4000000e+01 
7.5000000e-01 3.0250001e+00 1.4500000e+01 
7.5000000e-01 3.0250001e+00 1.5000000e+01 
7.5000000e-01 3.0250001e+00 1.5500000e+01 
7.5000000e-01 3.0250001e+00 1.6000000e+01 
7.5000000e-01 3.0250001e+00 1.6500000e+01 
7.5000000e-01 3.0250001e+00 1.7000000e+01 
7.5000000e-01 3.0250001e+00 1.7500000e+01 
7.5000000e-01 3.0250001e+00 1.8000000e+01 
7.5000000e-01 3.0250001e+00 1.8500000e+01 
7.5000000e-01 3.0250001e+00 1.9000000e+01 
7.5000000e-01 3.0250001e+00 1.9500000e+01 
7.5000000e-01 3.0250001e+00 2.0000000e+01 
7.5000000e-01 3.0250001e+00 2.0500000e+01 
7.5000000e-01 3.0250001e+00 2.1000000e+01 
7.5000000e-01 3.0250001e+00 2.1500000e+01 
7.5000000e-01 3.0250001e+00 2.2000000e+01 
7.5000000e-01 3.0250001e+00 2.2500000e+01 
7.5000000e-01 3.0250001e+00 2.3000000e+01 
7.5000000e-01 3.0250001e+00 2.3500000e+01 
7.5000000e-01 3.0250001e+00 2.4000000e+01 
7.5000000e-01 3.0250001e+00 2.4500000e+01 
7.5000000e-01 3.0250001e+00 2.5000000e+01 
7.5000000e-01 3.0250001e+00 2.5500000e+01 
7.5000000e-01 3.0250001e+00 2.6000000e+01 
7.5000000e-01 3.0250001e+00 2.6500000e+01 
7.5000000e-01 3.0250001e+00 2.7000000e+01 
7.5000000e-01 3.0250001e+00 2.7500000e+01 
7.5000000e-01 3.0250001e+00 2.8000000e+01 
7.5000000e-01 3.0250001e+00 2.8500000e+01 
7.5000000e-01 3.0250001e+00 2.9000000e+01 
7.5000000e-01 3.0250001e+00 2.9500000e+01 
7.5000000e-01 3.0250001e+00 3.0000000e+01 
7.5000000e-01 3.0250001e+00 3.0500000e+01 
7.5000000e-01 3.0250001e+00 3.1000000e+01 
7.5000000e-01 3.0250001e+00 3.1500000e+01 
7.5000000e-01 3.0250001e+00 3.2000000e+01 
7.5000000e-01 3.0250001e+00 3.2500000e+01 
7.5000000e-01 3.0250001e+00 3.3000000e+01 
7.5000000e-01 3.0250001e+00 3.3500000e+01 
7.5000000e-01 3.0250001e+00 3.4000000e+01 
7.5000000e-01 3.0250001e+00 3.4500000e+01 
7.5000000e-01 3.0250001e+00 3.5000000e+01 
7.5000000e-01 3.0250001e+00 3.5500000e+01 
7.5000000e-01 3.0250001e+00 3.6000000e+01 
7.5000000e-01 3.0250001e+00 3.6500000e+01 
7.5000000e-01 3.0250001e+00 3.7000000e+01 
7.5000000e-01 3.0250001e+00 3.7500000e+01 
7.5000000e-01 3.0250001e+00 3.8000000e+01 
7.5000000e-01 3.0250001e+00 3.8500000e+01 
7.5000000e-01 3.0250001e+00 3.9000000e+01 
7.5000000e-01 3.0250001e+00 3.9500000e+01 
7.5000000e-01 3.0250001e+00 4.0000000e+01 
7.5000000e-01 3.0250001e+00 4.0500000e+01 
7.5000000e-01 3.0250001e+00 4.1000000e+01 
7.5000000e-01 3.0250001e+00 4.1500000e+01 
7.5000000e-01 3.0250001e+00 4.2000000e+01 
7.5000000e-01 3.0250001e+00 4.2500000e+01 
7.5000000e-01 3.0250001e+00 4.3000000e+01 
7.5000000e-01 3.0250001e+00 4.3500000e+01 
7.5000000e-01 3.0250001e+00 4.4000000e+01 
7.5000000e-01 3.0250001e+00 4.4500000e+01 
7.5000000e-01 3.0250001e+00 4.5000000e+01 
7.5000000e-01 3.0250001e+00 4.5500000e+01 
7.5000000e-01 3.0250001e+00 4.6000000e+01 
7.5000000e-01 3.0250001e+00 4.6500000e+01 
7.5000000e-01 3.0250001e+00 4.7000000e+01 
7.5000000e-01 3.0250001e+00 4.7500000e+01 
7.5000000e-01 3.0250001e+00 4.8000000e+01 
7.5000000e-01 3.0250001e+00 4.8500000e+01 
7.5000000e-01 3.0250001e+00 4.9000000e+01 
7.5000000e-01 3.0250001e+00 4.9500000e+01 
7.5000000e-01 3.0250001e+00 5.0000000e+01 
1.5000000e+00 3.0000000e+00 2.5000000e+01 
3.0000000e+00 2.0000000e+00 2.5000000e+01 
4.0000000e+00 2.0000000e+00 2.5000000e+01 
5.0000000e+00 2.0000000e+00 2.5000000e+01 
0.0000000e+00 3.0000000e+00 2.5000000e+01 
0.0000000e+00 0.0000000e+00 1.0000000e+00 
0.0000000e+00 0.0000000e+00 2.0000000e+00 
0.0000000e+00 0.0000000e+00 3.0000000e+00 
0.0000000e+00 0.0000000e+00 4.0000000e+00 
0.0000000e+00 0.0000000e+00 5.0000000e+00 
[...]
POINT_DATA 1919
FIELD FieldData 3
DISPLACEMENT 3 1919  float
0.0000000e+00 0.0000000e+00 0.0000000e+00 
0.0000000e+00 0.0000000e+00 0.0000000e+00 
0.0000000e+00 0.0000000e+00 0.0000000e+00 
0.0000000e+00 0.0000000e+00 0.0000000e+00 
7.5165893e-08 -3.2635883e-06 -8.5563066e-08 
4.0511243e-16 8.0355093e-15 -3.6489000e-14 
0.0000000e+00 -1.5064668e-05 0.0000000e+00 
0.0000000e+00 5.4855018e-12 0.0000000e+00 
1.6186173e-06 -2.4803844e-06 -6.9143300e-07 
2.7637743e-14 2.8108687e-14 5.5720843e-14 
-2.7370343e-06 -9.5987325e-06 1.1867191e-05 
6.9822539e-14 -7.7299191e-13 5.4884217e-13 
0.0000000e+00 -5.2293926e-06 0.0000000e+00 
0.0000000e+00 1.4006143e-11 0.0000000e+00 
2.5367850e-05 4.1941519e-05 -2.2222092e-05 
-1.0278487e-12 -1.2437141e-11 -4.0697101e-14 
-5.2769997e-06 7.5955686e-05 1.5461446e-05 
3.5054877e-13 2.9685179e-10 3.6688729e-12 
0.0000000e+00 4.4321398e-05 0.0000000e+00 
0.0000000e+00 6.8193871e-12 0.0000000e+00 
-1.6309314e-06 8.0670769e-05 -4.6025984e-06 
1.3032834e-05 8.7708839e-05 -2.0099556e-05 
9.1816919e-06 8.5854874e-05 -7.9988422e-06 
8.9350606e-06 6.4531036e-05 -1.4290832e-06 
9.9053050e-06 1.0122737e-05 1.1164398e-05 
-1.9380801e-05 -1.0399102e-04 7.8568126e-05 
-5.9437225e-05 -3.4475286e-04 1.4319387e-04 
-1.0176577e-04 -8.1550895e-04 6.0879400e-05 
-1.4292983e-04 -1.5662698e-03 1.7253279e-04 
-1.9688996e-04 -2.5721041e-03 8.7087996e-05 
-2.4482061e-04 -3.7350650e-03 8.9682799e-05 
-3.2529299e-04 -4.7074286e-03 -1.4031325e-05 
-2.9181852e-04 -5.0091548e-03 2.0006062e-06 
-3.4015719e-04 -4.5631779e-03 -9.2170820e-05 
-2.5468910e-04 -4.1957535e-03 -8.0550810e-05 
-2.8451320e-04 -4.2072623e-03 -9.9145655e-05 
-2.7014551e-04 -4.3636733e-03 -1.8556222e-04 
-2.1839479e-04 -3.9244895e-03 -1.4470442e-04 
-7.2717972e-05 -2.6856207e-03 -2.2409597e-04 
-5.1328614e-05 -1.3445426e-03 -7.4801916e-05 
3.1131847e-05 -3.9951876e-04 -3.6071582e-05 
2.7251421e-05 1.0005911e-04 1.2926074e-05 
1.0938592e-05 2.6652927e-04 -2.1168457e-06 
1.4909535e-05 2.4989786e-04 2.3784723e-05 
-1.7121432e-06 1.6551249e-04 3.5969913e-06 
-1.3473959e-06 8.1660648e-05 -2.4730916e-06 
1.8495060e-06 4.1275187e-05 9.0241083e-06 
-3.1469776e-06 3.8700393e-05 -1.2003024e-05 
7.4468244e-07 3.4753404e-05 5.3692170e-06 
3.2030455e-06 2.8742811e-06 7.2956454e-06 
-1.5060519e-06 -4.7112560e-05 -8.1606295e-06 
-3.0429981e-06 -7.7202327e-05 1.5047466e-06 
-4.1678813e-06 -5.6822504e-05 1.5899863e-06 
-3.7173195e-06 1.8587531e-06 5.5397109e-06 
3.5765427e-06 5.4978675e-05 3.0829940e-06 
1.7985440e-06 6.5666958e-05 2.8526085e-06 
4.5645433e-07 2.9187297e-05 -1.0352939e-05 
-4.6268428e-06 -2.7085105e-05 7.8379853e-06 
-9.8640521e-06 -5.4624848e-05 3.2162413e-06 
-3.2066259e-06 -1.6135322e-05 -1.1612970e-05 
3.8418179e-06 7.0637434e-05 5.9066015e-06 
1.0243049e-05 1.4095889e-04 -1.1059251e-05 
2.1171199e-05 1.4178273e-04 -6.2402087e-06 
1.3706161e-06 5.9439455e-05 1.6330006e-05 
-6.9862704e-06 -7.3814670e-05 2.8522369e-05 
-2.2623331e-05 -2.1079333e-04 1.0978969e-04 
-3.6811889e-05 -3.8825287e-04 1.7516906e-04 
-1.0067837e-04 -7.8976381e-04 1.1381263e-04 
-1.2286835e-04 -1.5773308e-03 1.7242026e-04 
-1.9776339e-04 -2.7419138e-03 1.0503342e-04 
-3.1577505e-04 -4.0610298e-03 5.7888552e-05 
-3.8110136e-04 -4.9767951e-03 -7.0243594e-05 
-3.8645582e-04 -4.9656522e-03 -9.6723910e-05 
-3.7458059e-04 -4.4132527e-03 -1.2982432e-04 
-2.9120379e-04 -4.1571641e-03 -7.4015843e-05 
-3.0293607e-04 -4.3071359e-03 -7.3330353e-05 
-3.1366668e-04 -4.4395798e-03 -1.8856821e-04 
-2.5264936e-04 -3.7608615e-03 -1.4430072e-04 
-1.0545674e-04 -2.4765204e-03 -2.7287350e-04 
-5.1479339e-05 -1.2037918e-03 -1.0260715e-04 
2.7905518e-05 -3.2319740e-04 -4.9179591e-05 
2.7592143e-05 1.4380342e-04 3.0524669e-05 
1.0967910e-05 2.6922976e-04 -8.1012496e-07 
1.5904174e-05 2.1316772e-04 2.3355247e-05 
-1.4883751e-06 1.2847185e-04 -3.5934763e-06 
2.6860407e-06 7.8463228e-05 -6.5221793e-06 
3.6431366e-06 6.3142666e-05 1.4571335e-05 
-3.4866382e-06 4.8110895e-05 -1.2560038e-05 
9.4685652e-07 9.4059096e-06 4.0266209e-06 
6.7370269e-07 -3.6924612e-05 6.3019042e-06 
-1.2265020e-06 -5.8777216e-05 -6.2231143e-06 
-1.0899388e-06 -4.5572287e-05 4.1095157e-07 
1.8396365e-07 -7.9523825e-06 1.2383585e-06 
3.2860689e-07 2.7092825e-05 -1.8254404e-06 
1.1724966e-06 3.4305187e-05 7.9250168e-07 
-1.5660258e-06 1.4344738e-05 -3.0222787e-07 
-1.5119640e-06 -1.1323687e-05 -4.9851866e-07 
-4.4631000e-07 -1.8944163e-05 2.6509721e-07 
1.2398870e-07 -6.1966361e-06 7.9825156e-08 
2.4505903e-07 7.8983176e-06 -7.9381181e-08 
5.4517946e-10 8.0853079e-06 1.0995051e-07 
-6.5014675e-08 -5.8841426e-08 3.1865827e-08 
-2.4113454e-08 -3.9349775e-06 -6.7130848e-08 
4.5219166e-09 -1.6359958e-06 -9.0892538e-10 
1.4758677e-08 1.0445020e-06 2.1232076e-08 
6.9498904e-09 1.0669335e-06 -1.8530182e-09 
-5.4981584e-09 -3.8873431e-08 -2.9066003e-09 
-4.7859197e-09 -4.2003302e-07 9.7681263e-10 
1.3637985e-09 -1.1091260e-07 -7.3401535e-10 
1.6419207e-09 1.1826891e-07 -2.7454805e-10 
-2.1864724e-10 6.6987404e-08 5.8215488e-10 
-4.8494969e-10 -2.2824063e-08 2.9150298e-12 
-9.7255728e-12 -2.5352147e-08 -2.2863934e-10 
9.8444038e-11 1.7186349e-09 1.1725990e-11 
1.7217321e-11 7.3985249e-09 6.6322059e-11 
1.7578175e-11 1.0022666e-09 -2.2403581e-12 
-1.2703684e-11 -1.7940867e-09 -1.3358453e-11 
-2.4652489e-13 -6.6379519e-10 3.8860391e-12 
4.3272061e-12 2.4292160e-10 -1.7995679e-12 
0.0000000e+00 7.6795113e-05 0.0000000e+00 
0.0000000e+00 8.1048471e-05 0.0000000e+00 
0.0000000e+00 8.7231994e-05 0.0000000e+00 
0.0000000e+00 8.4997751e-05 0.0000000e+00 
0.0000000e+00 6.4334265e-05 0.0000000e+00 
0.0000000e+00 1.2150606e-05 0.0000000e+00 
0.0000000e+00 -1.0091210e-04 0.0000000e+00 
0.0000000e+00 -3.4583814e-04 0.0000000e+00 
0.0000000e+00 -8.1925944e-04 0.0000000e+00 
0.0000000e+00 -1.5704407e-03 0.0000000e+00 
0.0000000e+00 -2.5817957e-03 0.0000000e+00 
0.0000000e+00 -3.7450767e-03 0.0000000e+00 
0.0000000e+00 -4.7310651e-03 0.0000000e+00 
0.0000000e+00 -5.0372868e-03 0.0000000e+00 
0.0000000e+00 -4.5967959e-03 0.0000000e+00 
0.0000000e+00 -4.2138170e-03 0.0000000e+00 
0.0000000e+00 -4.2311805e-03 0.0000000e+00 
0.0000000e+00 -4.3827659e-03 0.0000000e+00 
0.0000000e+00 -3.9530187e-03 0.0000000e+00 
0.0000000e+00 -2.7057563e-03 0.0000000e+00 
0.0000000e+00 -1.3594059e-03 0.0000000e+00 
0.0000000e+00 -4.0409059e-04 0.0000000e+00 
0.0000000e+00 9.9134821e-05 0.0000000e+00 
0.0000000e+00 2.6801971e-04 0.0000000e+00 
0.0000000e+00 2.5219648e-04 0.0000000e+00 
0.0000000e+00 1.6646684e-04 0.0000000e+00 
0.0000000e+00 8.2834129e-05 0.0000000e+00 
0.0000000e+00 4.2038690e-05 0.0000000e+00 
0.0000000e+00 3.8392140e-05 0.0000000e+00 
0.0000000e+00 3.4041335e-05 0.0000000e+00 
0.0000000e+00 2.2654474e-06 0.0000000e+00 
0.0000000e+00 -4.7102068e-05 0.0000000e+00 
0.0000000e+00 -7.6205179e-05 0.0000000e+00 
0.0000000e+00 -5.6041612e-05 0.0000000e+00 
0.0000000e+00 1.5219840e-06 0.0000000e+00 
0.0000000e+00 5.4288452e-05 0.0000000e+00 
0.0000000e+00 6.5401444e-05 0.0000000e+00 
0.0000000e+00 2.8580400e-05 0.0000000e+00 
0.0000000e+00 -2.7621008e-05 0.0000000e+00 
0.0000000e+00 -5.3524556e-05 0.0000000e+00 
0.0000000e+00 -1.4347705e-05 0.0000000e+00 
0.0000000e+00 7.1247923e-05 0.0000000e+00 
0.0000000e+00 1.4053563e-04 0.0000000e+00 
0.0000000e+00 1.3980498e-04 0.0000000e+00 
0.0000000e+00 5.7625850e-05 0.0000000e+00 
0.0000000e+00 -7.1576003e-05 0.0000000e+00 
0.0000000e+00 -2.0487887e-04 0.0000000e+00 
0.0000000e+00 -3.8763948e-04 0.0000000e+00 
0.0000000e+00 -7.9444714e-04 0.0000000e+00 
0.0000000e+00 -1.5851804e-03 0.0000000e+00 
0.0000000e+00 -2.7562012e-03 0.0000000e+00 
0.0000000e+00 -4.0726899e-03 0.0000000e+00 
0.0000000e+00 -4.9997289e-03 0.0000000e+00 
0.0000000e+00 -4.9907262e-03 0.0000000e+00 
0.0000000e+00 -4.4468469e-03 0.0000000e+00 
0.0000000e+00 -4.1758674e-03 0.0000000e+00 
0.0000000e+00 -4.3337406e-03 0.0000000e+00 
0.0000000e+00 -4.4597825e-03 0.0000000e+00 
0.0000000e+00 -3.7883690e-03 0.0000000e+00 
0.0000000e+00 -2.4912895e-03 0.0000000e+00 
0.0000000e+00 -1.2163806e-03 0.0000000e+00 
0.0000000e+00 -3.2602987e-04 0.0000000e+00 
0.0000000e+00 1.4124057e-04 0.0000000e+00 
0.0000000e+00 2.7010147e-04 0.0000000e+00 
0.0000000e+00 2.1695651e-04 0.0000000e+00 
0.0000000e+00 1.3052994e-04 0.0000000e+00 
0.0000000e+00 7.9068122e-05 0.0000000e+00 
0.0000000e+00 6.2528714e-05 0.0000000e+00 
0.0000000e+00 4.6907939e-05 0.0000000e+00 
0.0000000e+00 9.2149903e-06 0.0000000e+00 
0.0000000e+00 -3.5860761e-05 0.0000000e+00 
0.0000000e+00 -5.8142075e-05 0.0000000e+00 
0.0000000e+00 -4.5343124e-05 0.0000000e+00 
0.0000000e+00 -8.2807846e-06 0.0000000e+00 
0.0000000e+00 2.6076241e-05 0.0000000e+00 
0.0000000e+00 3.3795437e-05 0.0000000e+00 
0.0000000e+00 1.4619704e-05 0.0000000e+00 
0.0000000e+00 -1.0471671e-05 0.0000000e+00 
0.0000000e+00 -1.8503775e-05 0.0000000e+00 
0.0000000e+00 -6.5934205e-06 0.0000000e+00 
0.0000000e+00 7.2471598e-06 0.0000000e+00 
0.0000000e+00 8.0627433e-06 0.0000000e+00 
0.0000000e+00 3.7684612e-07 0.0000000e+00 
0.0000000e+00 -3.7780978e-06 0.0000000e+00 
0.0000000e+00 -1.8118428e-06 0.0000000e+00 
0.0000000e+00 9.2000727e-07 0.0000000e+00 
0.0000000e+00 1.1061246e-06 0.0000000e+00 
0.0000000e+00 2.3563409e-08 0.0000000e+00 
0.0000000e+00 -4.1715418e-07 0.0000000e+00 
0.0000000e+00 -1.3429502e-07 0.0000000e+00 
0.0000000e+00 1.1085089e-07 0.0000000e+00 
0.0000000e+00 7.3825909e-08 0.0000000e+00 
0.0000000e+00 -1.8670988e-08 0.0000000e+00 
0.0000000e+00 -2.6885109e-08 0.0000000e+00 
0.0000000e+00 1.0077035e-10 0.0000000e+00 
0.0000000e+00 7.6397857e-09 0.0000000e+00 
0.0000000e+00 1.4718224e-09 0.0000000e+00 
0.0000000e+00 -1.7799747e-09 0.0000000e+00 
0.0000000e+00 -7.9209861e-10 0.0000000e+00 
0.0000000e+00 2.2033914e-10 0.0000000e+00 
0.0000000e+00 3.3364464e-10 0.0000000e+00 
-1.8366758e-04 -1.0678357e-03 1.8168028e-04 
8.6701271e-05 9.5117157e-06 -5.8893449e-05 
5.6799203e-05 3.3391527e-05 6.2381662e-07 
1.1427530e-05 -9.3417211e-06 1.1158068e-07 
0.0000000e+00 -2.0937186e-03 0.0000000e+00 
0.0000000e+00 0.0000000e+00 0.0000000e+00 
0.0000000e+00 0.0000000e+00 0.0000000e+00 
0.0000000e+00 0.0000000e+00 0.0000000e+00 
0.0000000e+00 0.0000000e+00 0.0000000e+00 
0.0000000e+00 0.0000000e+00 0.0000000e+00 
0.0000000e+00 0.0000000e+00 0.0000000e+00 
0.0000000e+00 0.0000000e+00 0.0000000e+00 
0.0000000e+00 0.0000000e+00 0.0000000e+00 
0.0000000e+00 0.0000000e+00 0.0000000e+00 
0.0000000e+00 0.0000000e+00 0.0000000e+00 
0.0000000e+00 0.0000000e+00 0.0000000e+00 
0.0000000e+00 0.0000000e+00 0.0000000e+00 
0.0000000e+00 0.0000000e+00 0.0000000e+00 
0.0000000e+00 0.0000000e+00 0.0000000e+00 
0.0000000e+00 0.0000000e+00 0.0000000e+00 
0.0000000e+00 0.0000000e+00 0.0000000e+00 
0.0000000e+00 0.0000000e+00 0.0000000e+00 
0.0000000e+00 0.0000000e+00 0.0000000e+00 
0.0000000e+00 0.0000000e+00 0.0000000e+00 
0.0000000e+00 0.0000000e+00 0.0000000e+00 
0.0000000e+00 0.0000000e+00 0.0000000e+00 
0.0000000e+00 0.0000000e+00 0.0000000e+00 
0.0000000e+00 0.0000000e+00 0.0000000e+00 
0.0000000e+00 0.0000000e+00 0.0000000e+00 
0.0000000e+00 0.0000000e+00 0.0000000e+00 
0.0000000e+00 0.0000000e+00 0.0000000e+00 
0.0000000e+00 0.0000000e+00 0.0000000e+00 
0.0000000e+00 0.0000000e+00 0.0000000e+00 
0.0000000e+00 0.0000000e+00 0.0000000e+00 
0.0000000e+00 0.0000000e+00 0.0000000e+00 
0.0000000e+00 0.0000000e+00 0.0000000e+00 
0.0000000e+00 0.0000000e+00 0.0000000e+00 
0.0000000e+00 0.0000000e+00 0.0000000e+00 
0.0000000e+00 0.0000000e+00 0.0000000e+00 
0.0000000e+00 0.0000000e+00 0.0000000e+00 
0.0000000e+00 0.0000000e+00 0.0000000e+00 
0.0000000e+00 0.0000000e+00 0.0000000e+00 
0.0000000e+00 0.0000000e+00 0.0000000e+00 
0.0000000e+00 0.0000000e+00 0.0000000e+00 
0.0000000e+00 0.0000000e+00 0.0000000e+00 
0.0000000e+00 0.0000000e+00 0.0000000e+00 
0.0000000e+00 0.0000000e+00 0.0000000e+00 
0.0000000e+00 0.0000000e+00 0.0000000e+00 
0.0000000e+00 0.0000000e+00 0.0000000e+00 
0.0000000e+00 0.0000000e+00 0.0000000e+00 
0.0000000e+00 0.0000000e+00 0.0000000e+00 
0.0000000e+00 0.0000000e+00 0.0000000e+00 
0.0000000e+00 0.0000000e+00 0.0000000e+00 
0.0000000e+00 0.0000000e+00 0.0000000e+00 
0.0000000e+00 0.0000000e+00 0.0000000e+00 
0.0000000e+00 0.0000000e+00 0.0000000e+00 
0.0000000e+00 0.0000000e+00 0.0000000e+00 
0.0000000e+00 0.0000000e+00 0.0000000e+00 
0.0000000e+00 0.0000000e+00 0.0000000e+00 
0.0000000e+00 0.0000000e+00 0.0000000e+00 
0.0000000e+00 0.0000000e+00 0.0000000e+00 
0.0000000e+00 0.0000000e+00 0.0000000e+00 
0.0000000e+00 0.0000000e+00 0.0000000e+00 
0.0000000e+00 0.0000000e+00 0.0000000e+00 
0.0000000e+00 0.0000000e+00 0.0000000e+00 
0.0000000e+00 0.0000000e+00 0.0000000e+00 
0.0000000e+00 0.0000000e+00 0.0000000e+00 
0.0000000e+00 0.0000000e+00 0.0000000e+00 
0.0000000e+00 0.0000000e+00 0.0000000e+00 
0.0000000e+00 0.0000000e+00 0.0000000e+00 
0.0000000e+00 0.0000000e+00 0.0000000e+00 
0.0000000e+00 0.0000000e+00 0.0000000e+00 
0.0000000e+00 0.0000000e+00 0.0000000e+00 
0.0000000e+00 0.0000000e+00 0.0000000e+00 
0.0000000e+00 0.0000000e+00 0.0000000e+00 
0.0000000e+00 0.0000000e+00 0.0000000e+00 
0.0000000e+00 0.0000000e+00 0.0000000e+00 
0.0000000e+00 0.0000000e+00 0.0000000e+00 
0.0000000e+00 0.0000000e+00 0.0000000e+00 
0.0000000e+00 0.0000000e+00 0.0000000e+00 
0.0000000e+00 0.0000000e+00 0.0000000e+00 
0.0000000e+00 0.0000000e+00 0.0000000e+00 
0.0000000e+00 0.0000000e+00 0.0000000e+00 
0.0000000e+00 0.0000000e+00 0.0000000e+00 
0.0000000e+00 0.0000000e+00 0.0000000e+00 
0.0000000e+00 0.0000000e+00 0.0000000e+00 
0.0000000e+00 0.0000000e+00 0.0000000e+00 
0.0000000e+00 0.0000000e+00 0.0000000e+00 
0.0000000e+00 0.0000000e+00 0.0000000e+00 
0.0000000e+00 0.0000000e+00 0.0000000e+00 
0.0000000e+00 0.0000000e+00 0.0000000e+00 
0.0000000e+00 0.0000000e+00 0.0000000e+00 
0.0000000e+00 0.0000000e+00 0.0000000e+00 
0.0000000e+00 0.0000000e+00 0.0000000e+00 
0.0000000e+00 0.0000000e+00 0.0000000e+00 
0.0000000e+00 0.0000000e+00 0.0000000e+00 
0.0000000e+00 0.0000000e+00 0.0000000e+00 
0.0000000e+00 0.0000000e+00 0.0000000e+00 
0.0000000e+00 0.0000000e+00 0.0000000e+00 
0.0000000e+00 0.0000000e+00 0.0000000e+00 
0.0000000e+00 0.0000000e+00 0.0000000e+00 
0.0000000e+00 0.0000000e+00 0.0000000e+00 
0.0000000e+00 0.0000000e+00 0.0000000e+00 
0.0000000e+00 0.0000000e+00 0.0000000e+00 
0.0000000e+00 0.0000000e+00 0.0000000e+00 
0.0000000e+00 0.0000000e+00 0.0000000e+00 
0.0000000e+00 0.0000000e+00 0.0000000e+00 
0.0000000e+00 0.0000000e+00 0.0000000e+00 
0.0000000e+00 0.0000000e+00 0.0000000e+00 
0.0000000e+00 0.0000000e+00 0.0000000e+00 
0.0000000e+00 0.0000000e+00 0.0000000e+00 
1.0831122e-08 2.7868293e-06 3.4940439e-07 
-1.9699600e-07 6.8657173e-06 1.5217036e-06 
-3.0048323e-06 -3.2332382e-06 1.3476664e-06 
-8.3857867e-06 -7.4193617e-06 1.1578119e-06 
-1.1285675e-05 -8.9713949e-06 8.3619597e-07 
-1.3525254e-05 -1.6683920e-05 8.8414328e-07 
-1.4662531e-05 -1.6604716e-05 -2.0157302e-06 
-1.4318302e-05 -1.0407333e-05 -6.3677822e-07 
-8.4447065e-06 -3.0289848e-06 -3.3153726e-06 
-3.2152511e-06 3.3124195e-06 -2.9924729e-06 
-1.3462283e-06 2.2122972e-06 1.2670131e-07 
2.0209150e-07 6.9959206e-08 -1.5563394e-07 
4.8035804e-07 -2.1650551e-06 -1.8083109e-07 
1.0878061e-07 9.9370880e-07 3.8497228e-07 
-3.1886543e-08 -1.5771356e-07 4.5348951e-08 
-1.4573418e-09 3.2990609e-08 -3.5108272e-08 
4.1257087e-09 -3.2048248e-07 2.7399352e-09 
-1.1061477e-07 5.9739858e-07 -5.7976880e-08 
-3.3762717e-08 -2.6662474e-07 1.1179220e-07 
-1.5096818e-07 -5.6831578e-07 1.2576009e-08 
-6.4049567e-07 2.7148326e-06 -1.2244610e-07 
-3.0517970e-06 2.0387604e-06 2.0740124e-06 
-7.1916274e-06 -3.9108145e-06 1.6457200e-06 
-1.5460482e-05 -1.2428834e-05 1.5973126e-06 
-2.2784316e-05 -1.7105587e-05 2.6183986e-06 
-2.3389788e-05 -2.3619172e-05 -1.4069933e-07 
-1.2718518e-05 -1.3685902e-05 -2.3729754e-06 
-1.3461772e-05 -6.4360584e-06 -1.7699672e-06 
-5.4677516e-06 -3.8499752e-06 -3.2073283e-06 
4.7887596e-07 4.6573832e-06 -8.2907627e-07 
-5.6284881e-07 3.6423776e-06 6.8990778e-07 
-2.6313347e-07 -1.1145928e-06 1.9128892e-07 
3.4008985e-07 -8.6133304e-07 -5.5943423e-07 
-1.8321937e-07 5.6421356e-07 -1.7325199e-07 
-1.5448496e-08 1.5211478e-08 1.8695358e-08 
1.7619232e-08 -1.2268717e-07 -2.1665652e-08 
-1.8793402e-09 7.7637083e-08 1.1548376e-08 
2.3999217e-10 -3.3689108e-08 -2.3298206e-09 
1.0619652e-09 5.3457052e-09 1.5760775e-09 
-2.7677888e-10 3.2145164e-09 1.4186220e-09 
-2.4214294e-11 -1.1230010e-09 -9.2321290e-10 
-3.7727502e-11 1.5570548e-10 8.2338268e-11 
-1.9912454e-11 -1.3399485e-11 5.0016805e-12 
1.6273245e-11 -6.3341513e-11 -2.3232995e-11 
2.4485589e-12 7.1861093e-11 2.8075878e-11 
-1.2519106e-12 3.0053462e-12 2.0340034e-12 
3.6965212e-14 -9.1863886e-12 -3.8410100e-12 
-6.0349085e-14 2.3509300e-12 5.8528058e-13 
1.3512870e-13 -3.2769528e-13 7.4134512e-14 
0.0000000e+00 2.0716192e-05 0.0000000e+00 
0.0000000e+00 -1.4850021e-05 0.0000000e+00 
0.0000000e+00 -1.1050132e-04 0.0000000e+00 
0.0000000e+00 -4.5743879e-04 0.0000000e+00 
0.0000000e+00 -7.2527595e-04 0.0000000e+00 
0.0000000e+00 -1.0048769e-03 0.0000000e+00 
0.0000000e+00 -9.5579459e-04 0.0000000e+00 
0.0000000e+00 -6.4232823e-04 0.0000000e+00 
0.0000000e+00 -4.4827277e-04 0.0000000e+00 
0.0000000e+00 -1.3546208e-04 0.0000000e+00 
0.0000000e+00 7.4499607e-05 0.0000000e+00 
0.0000000e+00 7.2563569e-05 0.0000000e+00 
0.0000000e+00 -2.0498566e-05 0.0000000e+00 
0.0000000e+00 -2.2295004e-05 0.0000000e+00 
0.0000000e+00 1.6119688e-05 0.0000000e+00 
0.0000000e+00 -6.5475533e-06 0.0000000e+00 
0.0000000e+00 8.8056568e-06 0.0000000e+00 
0.0000000e+00 -1.1380123e-05 0.0000000e+00 
0.0000000e+00 -2.8264893e-05 0.0000000e+00 
0.0000000e+00 3.6040416e-05 0.0000000e+00 
0.0000000e+00 3.4915451e-05 0.0000000e+00 
0.0000000e+00 -2.0525662e-05 0.0000000e+00 
0.0000000e+00 -1.4185897e-04 0.0000000e+00 
0.0000000e+00 -4.6382830e-04 0.0000000e+00 
0.0000000e+00 -8.3305244e-04 0.0000000e+00 
0.0000000e+00 -1.1087372e-03 0.0000000e+00 
0.0000000e+00 -9.6895784e-04 0.0000000e+00 
0.0000000e+00 -6.9033081e-04 0.0000000e+00 
0.0000000e+00 -4.3095028e-04 0.0000000e+00 
0.0000000e+00 -9.5350690e-05 0.0000000e+00 
0.0000000e+00 9.9179117e-05 0.0000000e+00 
0.0000000e+00 4.2596148e-05 0.0000000e+00 
0.0000000e+00 -2.1915041e-05 0.0000000e+00 
0.0000000e+00 -2.4711895e-05 0.0000000e+00 
0.0000000e+00 2.1513993e-05 0.0000000e+00 
0.0000000e+00 -2.1840219e-06 0.0000000e+00 
0.0000000e+00 -4.8482930e-06 0.0000000e+00 
0.0000000e+00 1.1277606e-07 0.0000000e+00 
0.0000000e+00 6.1915870e-07 0.0000000e+00 
0.0000000e+00 -4.2287957e-07 0.0000000e+00 
0.0000000e+00 3.0836568e-07 0.0000000e+00 
0.0000000e+00 -1.3553066e-07 0.0000000e+00 
0.0000000e+00 4.9190355e-08 0.0000000e+00 
0.0000000e+00 -5.8158118e-09 0.0000000e+00 
0.0000000e+00 -2.8886435e-09 0.0000000e+00 
0.0000000e+00 1.1052116e-09 0.0000000e+00 
0.0000000e+00 -6.7402944e-10 0.0000000e+00 
0.0000000e+00 9.8756746e-11 0.0000000e+00 
0.0000000e+00 -2.8843514e-11 0.0000000e+00 
1.0965817e-07 7.1643262e-06 -8.6441069e-08 
-7.3864743e-07 1.5272593e-07 4.4126773e-07 
1.3070807e-07 -1.2933121e-05 3.6596718e-06 
-6.8370982e-06 3.9723250e-06 2.1105691e-07 
4.0751629e-14 3.4013019e-13 1.2745141e-13 
2.7045220e-13 -1.3410606e-12 -3.3290100e-13 
-3.2728188e-13 2.5293973e-12 4.6944270e-14 
4.7029987e-14 -2.0204251e-12 -5.4654855e-14 
-1.4954043e-07 4.0491732e-06 4.1764793e-07 
-1.1345674e-13 1.6677842e-13 -1.3648536e-13 
4.9912533e-06 1.2254223e-05 -1.9943685e-05 
-1.1107778e-05 -1.7497439e-05 1.1761422e-05 
0.0000000e+00 9.5488494e-06 0.0000000e+00 
0.0000000e+00 5.2793348e-05 0.0000000e+00 
0.0000000e+00 -2.3310789e-04 0.0000000e+00 
0.0000000e+00 -7.6121779e-04 0.0000000e+00 
0.0000000e+00 -1.2818370e-03 0.0000000e+00 
0.0000000e+00 -1.8786532e-03 0.0000000e+00 
0.0000000e+00 -1.7462024e-03 0.0000000e+00 
0.0000000e+00 -1.2185690e-03 0.0000000e+00 
0.0000000e+00 -8.4400678e-04 0.0000000e+00 
0.0000000e+00 -2.2459647e-04 0.0000000e+00 
0.0000000e+00 1.7367487e-04 0.0000000e+00 
0.0000000e+00 7.8752302e-05 0.0000000e+00 
0.0000000e+00 -2.3050650e-05 0.0000000e+00 