# vtk DataFile Version 4.0
vtk output
ASCII
DATASET UNSTRUCTURED_GRID
POINTS 1919 float
0.0000000e+00 0.0000000e+00 0.0000000e+00 
0.0000000e+00 0.0000000e+00 5.0000000e+01 
5.0000000e+00 0.0000000e+00 0.0000000e+00 
5.0000000e+00 0.0000000e+00 5.0000000e+01 
5.0000000e+00 1.0000000e+00 0.0000000e+00 
5.0000000e+00 1.0000000e+00 5.0000000e+01 
0.0000000e+00 1.0000000e+00 0.0000000e+00 
0.0000000e+00 1.0000000e+00 5.0000000e+01 
5.0000000e+00 2.0000000e+00 0.0000000e+00 
5.0000000e+00 2.0000000e+00 5.0000000e+01 
3.0000000e+00 2.0000000e+00 0.0000000e+00 
3.0000000e+00 2.0000000e+00 5.0000000e+01 
0.0000000e+00 2.0000000e+00 0.0000000e+00 
0.0000000e+00 2.0000000e+00 5.0000000e+01 
1.5000000e+00 3.0000000e+00 0.0000000e+00 
1.5000000e+00 3.0000000e+00 5.0000000e+01 
7.5000000e-01 3.0000000e+00 0.0000000e+00 
7.5000000e-01 3.0000000e+00 5.0000000e+01 
0.0000000e+00 3.0000000e+00 0.0000000e+00 
0.0000000e+00 3.0000000e+00 5.0000000e+01 
7.5000000e-01 3.0000000e+00 5.0000000e-01 
7.5000000e-01 3.0000000e+00 1.0000000e+00 
7.5000000e-01 3.0000000e+00 1.5000000e+00 
7.5000000e-01 3.0000000e+00 2.0000000e+00 
7.5000000e-01 3.0000000e+00 2.5000000e+00 
7.5000000e-01 3.0000000e+00 3.0000000e+00 
7.5000000e-01 3.0000000e+00 3.5000000e+00 
7.5000000e-01 3.0000000e+00 4.0000000e+00 
7.5000000e-01 3.0000000e+00 4.5000000e+00 
7.5000000e-01 3.0000000e+00 5.0000000e+00 
7.5000000e-01 3.0000000e+00 5.5000000e+00 
7.5000000e-01 3.0000000e+00 6.0000000e+00 
7.5000000e-01 3.0000000e+00 6.5000000e+00 
7.5000000e-01 3.0000000e+00 7.0000000e+00 
7.5000000e-01 3.0000000e+00 7.5000000e+00 
7.5000000e-01 3.0000000e+00 8.0000000e+00 
7.5000000e-01 3.0000000e+00 8.5000000e+00 
7.5000000e-01 3.0000000e+00 9.0000000e+00 
7.5000000e-01 3.0000000e+00 9.5000000e+00 
7.5000000e-01 3.0000000e+00 1.0000000e+01 
7.5000000e-01 3.0000000e+00 1.0500000e+01 
7.5000000e-01 3.0000000e+00 1.1000000e+01 
7.5000000e-01 3.0000000e+00 1.1500000e+01 
7.5000000e-01 3.0000000e+00 1.2000000e+01 
7.5000000e-01 3.0000000e+00 1.2500000e+01 
7.5000000e-01 3.0000000e+00 1.3000000e+01 
7.5000000e-01 3.0000000e+00 1.3500000e+01 
7.5000000e-01 3.0000000e+00 1.4000000e+01 
7.5000000e-01 3.0000000e+00 1.4500000e+01 
7.5000000e-01 3.0000000e+00 1.5000000e+01 
7.5000000e-01 3.0000000e+00 1.5500000e+01 
7.5000000e-01 3.0000000e+00 1.6000000e+01 
7.5000000e-01 3.0000000e+00 1.6500000e+01 
7.5000000e-01 3.0000000e+00 1.7000000e+01 
7.5000000e-01 3.0000000e+00 1.7500000e+01 
7.5000000e-01 3.0000000e+00 1.8000000e+01 
7.5000000e-01 3.0000000e+00 1.8500000e+01 
7.5000000e-01 3.0000000e+00 1.9000000e+01 
7.5000000e-01 3.0000000e+00 1.9500000e+01 
7.5000000e-01 3.0000000e+00 2.0000000e+01 
7.5000000e-01 3.0000000e+00 2.0500000e+01 
7.5000000e-01 3.0000000e+00 2.1000000e+01 
7.5000000e-01 3.0000000e+00 2.1500000e+01 
7.5000000e-01 3.0000000e+00 2.2000000e+01 
7.5000000e-01 3.0000000e+00 2.2500000e+01 
7.5000000e-01 3.0000000e+00 2.3000000e+01 
7.5000000e-01 3.0000000e+00 2.3500000e+01 
7.5000000e-01 3.0000000e+00 2.4000000e+01 
7.5000000e-01 3.0000000e+00 2.4500000e+01 
7.5000000e-01 3.0000000e+00 2.5000000e+01 
7.5000000e-01 3.0000000e+00 2.5500000e+01 
7.5000000e-01 3.0000000e+00 2.6000000e+01 
7.5000000e-01 3.0000000e+00 2.6500000e+01 
7.5000000e-01 3.0000000e+00 2.7000000e+01 
7.5000000e-01 3.0000000e+00 2.7500000e+01 
7.5000000e-01 3.0000000e+00 2.8000000e+01 
7.5000000e-01 3.0000000e+00 2.8500000e+01 
7.5000000e-01 3.0000000e+00 2.9000000e+01 
7.5000000e-01 3.0000000e+00 2.9500000e+01 
7.5000000e-01 3.0000000e+00 3.0000000e+01 
7.5000000e-01 3.0000000e+00 3.0500000e+01 
7.5000000e-01 3.0000000e+00 3.1000000e+01 
7.5000000e-01 3.0000000e+00 3.1500000e+01 
7.5000000e-01 3.0000000e+00 3.2000000e+01 
7.5000000e-01 3.0000000e+00 3.2500000e+01 
7.5000000e-01 3.0000000e+00 3.3000000e+01 
7.5000000e-01 3.0000000e+00 3.3500000e+01 
7.5000000e-01 3.0000000e+00 3.4000000e+01 
7.5000000e-01 3.0000000e+00 3.4500000e+01 
7.5000000e-01 3.0000000e+00 3.5000000e+01 
7.5000000e-01 3.0000000e+00 3.5500000e+01 
7.5000000e-01 3.0000000e+00 3.6000000e+01 
7.5000000e-01 3.0000000e+00 3.6500000e+01 
7.5000000e-01 3.0000000e+00 3.7000000e+01 
7.5000000e-01 3.0000000e+00 3.7500000e+01 
7.5000000e-01 3.0000000e+00 3.8000000e+01 
7.5000000e-01 3.0000000e+00 3.8500000e+01 
7.5000000e-01 3.0000000e+00 3.9000000e+01 
7.5000000e-01 3.0000000e+00 3.9500000e+01 
7.5000000e-01 3.0000000e+00 4.0000000e+01 
7.5000000e-01 3.0000000e+00 4.0500000e+01 
7.5000000e-01 3.0000000e+00 4.1000000e+01 
7.5000000e-01 3.0000000e+00 4.1500000e+01 
7.5000000e-01 3.0000000e+00 4.2000000e+01 
7.5000000e-01 3.0000000e+00 4.2500000e+01 
7.5000000e-01 3.0000000e+00 4.3000000e+01 
7.5000000e-01 3.0000000e+00 4.3500000e+01 
7.5000000e-01 3.0000000e+00 4.4000000e+01 
7.5000000e-01 3.0000000e+00 4.4500000e+01 
7.5000000e-01 3.0000000e+00 4.5000000e+01 
7.5000000e-01 3.0000000e+00 4.5500000e+01 
7.5000000e-01 3.0000000e+00 4.6000000e+01 
7.5000000e-01 3.0000000e+00 4.6500000e+01 
7.5000000e-01 3.0000000e+00 4.7000000e+01 
7.5000000e-01 3.0000000e+00 4.7500000e+01 
7.5000000e-01 3.0000000e+00 4.8000000e+01 
7.5000000e-01 3.0000000e+00 4.8500000e+01 
7.5000000e-01 3.0000000e+00 4.9000000e+01 
7.5000000e-01 3.0000000e+00 4.9500000e+01 
7.5000000e-01 3.0250001e+00 0.0000000e+00 
7.5000000e-01 3.0250001e+00 5.0000000e-01 
7.5000000e-01 3.0250001e+00 1.0000000e+00 
7.5000000e-01 3.0250001e+00 1.5000000e+00 
7.5000000e-01 3.0250001e+00 2.0000000e+00 
7.5000000e-01 3.0250001e+00 2.5000000e+00 
7.5000000e-01 3.0250001e+00 3.0000000e+00 
7.5000000e-01 3.0250001e+00 3.5000000e+00 
7.5000000e-01 3.0250001e+00 4.0000000e+00 
7.5000000e-01 3.0250001e+00 4.5000000e+00 
7.5000000e-01 3.0250001e+00 5.0000000e+00 
7.5000000e-01 3.0250001e+00 5.5000000e+00 
7.5000000e-01 3.0250001e+00 6.0000000e+00 
7.5000000e-01 3.0250001e+00 6.5000000e+00 
7.5000000e-01 3.0250001e+00 7.0000000e+00 
7.5000000e-01 3.0250001e+00 7.5000000e+00 
7.5000000e-01 3.0250001e+00 8.0000000e+00 
7.5000000e-01 3.0250001e+00 8.5000000e+00 
7.5000000e-01 3.0250001e+00 9.0000000e+00 
7.5000000e-01 3.0250001e+00 9.5000000e+00 
7.5000000e-01 3.0250001e+00 1.0000000e+01 
7.5000000e-01 3.0250001e+00 1.0500000e+01 
7.5000000e-01 3.0250001e+00 1.1000000e+01 
7.5000000e-01 3.0250001e+00 1.1500000e+01 
7.5000000e-01 3.0250001e+00 1.2000000e+01 
7.5000000e-01 3.0250001e+00 1.2500000e+01 
7.5000000e-01 3.0250001e+00 1.3000000e+01 
7.5000000e-01 3.0250001e+00 1.3500000e+01 
7.5000000e-01 3.0250001e+00 1.4000000e+01 
7.5000000e-01 3.0250001e+00 1.4500000e+01 
7.5000000e-01 3.0250001e+00 1.5000000e+01 
7.5000000e-01 3.0250001e+00 1.5500000e+01 
7.5000000e-01 3.0250001e+00 1.6000000e+01 
7.5000000e-01 3.0250001e+00 1.6500000e+01 
7.5000000e-01 3.0250001e+00 1.7000000e+01 
7.5000000e-01 3.0250001e+00 1.7500000e+01 
7.5000000e-01 3.0250001e+00 1.8000000e+01 
7.5000000e-01 3.0250001e+00 1.8500000e+01 
7.5000000e-01 3.0250001e+00 1.9000000e+01 
7.5000000e-01 3.0250001e+00 1.9500000e+01 
7.5000000e-01 3.0250001e+00 2.0000000e+01 
7.5000000e-01 3.0250001e+00 2.0500000e+01 
7.5000000e-01 3.0250001e+00 2.1000000e+01 
7.5000000e-01 3.0250001e+00 2.1500000e+01 
7.5000000e-01 3.0250001e+00 2.2000000e+01 
7.5000000e-01 3.0250001e+00 2.2500000e+01 
7.5000000e-01 3.0250001e+00 2.3000000e+01 
7.5000000e-01 3.0250001e+00 2.3500000e+01 
7.5000000e-01 3.0250001e+00 2.4000000e+01 
7.5000000e-01 3.0250001e+00 2.4500000e+01 
7.5000000e-01 3.0250001e+00 2.5000000e+01 
7.5000000e-01 3.0250001e+00 2.5500000e+01 
7.5000000e-01 3.0250001e+00 2.6000000e+01 
7.5000000e-01 3.0250001e+00 2.6500000e+01 
7.5000000e-01 3.0250001e+00 2.7000000e+01 
7.5000000e-01 3.0250001e+00 2.7500000e+01 
7.5000000e-01 3.0250001e+00 2.8000000e+01 
7.5000000e-01 3.0250001e+00 2.8500000e+01 
7.5000000e-01 3.0250001e+00 2.9000000e+01 
7.5000000e-01 3.0250001e+00 2.9500000e+01 
7.5000000e-01 3.0250001e+00 3.0000000e+01 
7.5000000e-01 3.0250001e+00 3.0500000e+01 
7.5000000e-01 3.0250001e+00 3.1000000e+01 
7.5000000e-01 3.0250001e+00 3.1500000e+01 
7.5000000e-01 3.0250001e+00 3.2000000e+01 
7.5000000e-01 3.0250001e+00 3.2500000e+01 
7.5000000e-01 3.0250001e+00 3.3000000e+01 
7.5000000e-01 3.0250001e+00 3.3500000e+01 
7.5000000e-01 3.0250001e+00 3.4000000e+01 
7.5000000e-01 3.0250001e+00 3.4500000e+01 
7.5000000e-01 3.0250001e+00 3.5000000e+01 
7.5000000e-01 3.0250001e+00 3.5500000e+01 
7.5000000e-01 3.0250001e+00 3.6000000e+01 
7.5000000e-01 3.0250001e+00 3.6500000e+01 
7.5000000e-01 3.0250001e+00 3.7000000e+01 
7.5000000e-01 3.0250001e+00 3.7500000e+01 
7.5000000e-01 3.0250001e+00 3.8000000e+01 
7.5000000e-01 3.0250001e+00 3.8500000e+01 
7.5000000e-01 3.0250001e+00 3.9000000e+01 
7.5000000e-01 3.0250001e+00 3.9500000e+01 
7.5000000e-01 3.0250001e+00 4.0000000e+01 
7.5000000e-01 3.0250001e+00 4.0500000e+01 
7.5000000e-01 3.0250001e+00 4.1000000e+01 
7.5000000e-01 3.0250001e+00 4.1500000e+01 
7.5000000e-01 3.0250001e+00 4.2000000e+01 
7.5000000e-01 3.0250001e+00 4.2500000e+01 
7.5000000e-01 3.0250001e+00 4.3000000e+01 
7.5000000e-01 3.0250001e+00 4.3500000e+01 
7.5000000e-01 3.0250001e+00 4.4000000e+01 
7.5000000e-01 3.0250001e+00 4.4500000e+01 
7.5000000e-01 3.0250001e+00 4.5000000e+01 
7.5000000e-01 3.0250001e+00 4.5500000e+01 
7.5000000e-01 3.0250001e+00 4.6000000e+01 
7.5000000e-01 3.0250001e+00 4.6500000e+01 
7.5000000e-01 3.0250001e+00 4.7000000e+01 
7.5000000e-01 3.0250001e+00 4.7500000e+01 
7.5000000e-01 3.0250001e+00 4.8000000e+01 
7.5000000e-01 3.0250001e+00 4.8500000e+01 
7.5000000e-01 3.0250001e+00 4.9000000e+01 
7.5000000e-01 3.0250001e+00 4.9500000e+01 
7.5000000e-01 3.0250001e+00 5.0000000e+01 
1.5000000e+00 3.0000000e+00 2.5000000e+01 
3.0000000e+00 2.0000000e+00 2.5000000e+01 
4.0000000e+00 2.0000000e+00 2.5000000e+01 
5.0000000e+00 2.0000000e+00 2.5000000e+01 
0.0000000e+00 3.0000000e+00 2.5000000e+01 
0.0000000e+00 0.0000000e+00 1.0000000e+00 
0.0000000e+00 0.0000000e+00 2.0000000e+00 
0.0000000e+00 0.0000000e+00 3.0000000e+00 
0.0000000e+00 0.0000000e+00 4.0000000e+00 
0.0000000e+00 0.0000000e+00 5.0000000e+00 
[...]
POINT_DATA 1919
FIELD FieldData 3
DISPLACEMENT 3 1919  float
0.0000000e+00 0.0000000e+00 0.0000000e+00 
0.0000000e+00 0.0000000e+00 0.0000000e+00 
0.0000000e+00 0.0000000e+00 0.0000000e+00 
0.0000000e+00 0.0000000e+00 0.0000000e+00 
-3.1216132e-06 3.8753296e-06 3.7204466e-06 
1.3944325e-08 3.4846778e-08 -2.6027021e-07 
0.0000000e+00 -1.3837529e-05 0.0000000e+00 
0.0000000e+00 2.5589827e-06 0.0000000e+00 
-5.9502850e-06 3.1566778e-06 5.4075117e-06 
9.0420997e-08 2.0677359e-07 -1.0665381e-06 
-2.7954356e-06 -2.2745944e-06 -8.4982605e-07 
4.7880842e-08 2.6056162e-07 -6.5491929e-07 
0.0000000e+00 -1.2080221e-05 0.0000000e+00 
0.0000000e+00 3.4068387e-06 0.0000000e+00 
1.3617730e-05 6.0713946e-06 -4.4358480e-06 
2.4874705e-06 5.6104177e-06 -6.1104706e-06 
1.6739084e-07 2.7812594e-05 -3.2856229e-07 
1.1109224e-06 -2.8522527e-06 2.6648779e-06 
0.0000000e+00 -1.0817568e-05 0.0000000e+00 
0.0000000e+00 -2.9597936e-06 0.0000000e+00 
1.5397291e-05 2.4442033e-05 -4.9884302e-06 
1.4431875e-05 1.7631874e-05 -9.4942025e-06 
2.5430463e-05 1.0764171e-05 -1.4072473e-05 
2.3626202e-05 3.7818775e-06 -1.3573480e-05 
2.3727749e-05 -4.6616897e-06 -1.1751024e-05 
1.6082962e-05 -1.5944835e-05 -1.2910935e-05 
1.8796120e-05 -2.6894164e-05 -1.1687887e-05 
1.5773285e-05 -3.1635391e-05 -1.1668802e-05 
1.9959552e-05 -2.9179802e-05 -1.5114363e-05 
1.0900307e-05 -2.5005813e-05 -1.4736762e-05 
2.1045769e-05 -2.7808168e-05 -8.8863335e-06 
1.0429195e-05 -4.0667321e-05 4.6841724e-06 
1.4969410e-05 -5.4042910e-05 4.8549218e-06 
1.1502274e-07 -5.1756822e-05 8.6731088e-06 
4.4002168e-06 -3.1707175e-05 6.1653946e-06 
5.5817504e-06 -9.1985739e-06 -7.1670070e-07 
2.7947768e-05 -1.8391152e-07 -1.2206594e-05 
2.3400062e-05 -6.8814811e-06 -1.7598608e-06 
2.9904420e-05 -6.3737275e-06 -2.8177901e-06 
2.7660873e-05 2.8763017e-05 1.1744220e-05 
3.6535253e-05 9.1904483e-05 1.8907904e-05 
3.1363867e-05 1.3071396e-04 2.1220032e-05 
3.9822393e-05 7.4316609e-05 5.7596968e-05 
3.1764514e-05 -1.3427493e-04 1.0527371e-04 
-1.9562311e-05 -5.0676183e-04 1.8200427e-04 
-5.4408429e-05 -1.0439531e-03 1.6360213e-04 
-1.0806026e-04 -1.8203912e-03 2.8453890e-04 
-1.4276490e-04 -2.9074477e-03 1.2993862e-04 
-2.4041907e-04 -4.2052050e-03 2.0870239e-04 
-2.9036347e-04 -5.0986600e-03 5.3945245e-05 
-3.0110744e-04 -4.9150195e-03 -1.2613370e-05 
-2.8660696e-04 -4.3951776e-03 -6.0132603e-05 
-3.2502552e-04 -4.2819879e-03 -8.0586673e-05 
-6.3503312e-04 -4.6238434e-03 -1.2250758e-04 
-2.7230399e-04 -4.6933512e-03 -2.3060259e-04 
-1.7217369e-04 -3.6715602e-03 -1.6236524e-04 
-7.1174989e-05 -2.2406073e-03 -3.1606350e-04 
-3.0160618e-05 -1.0206684e-03 -1.5448617e-04 
2.5109426e-05 -2.5326238e-04 -1.4116855e-04 
3.5395085e-05 1.0802886e-04 -4.5588324e-05 
4.5631623e-05 2.1229200e-04 -7.4021923e-06 
3.7791768e-05 1.9420334e-04 9.9586750e-06 
3.9132370e-05 1.3404184e-04 2.8723789e-05 
2.9330562e-05 6.3705964e-05 3.5054731e-05 
1.6945534e-05 1.7010698e-06 3.6801750e-05 
6.6993857e-07 -3.7548580e-05 3.2256670e-05 
1.0442192e-05 -5.1797877e-05 3.5064157e-05 
8.1834405e-06 -5.2700834e-05 1.3654810e-05 
-1.1438331e-06 -5.0664745e-05 -4.2327156e-06 
-8.6669115e-06 -4.4629574e-05 -1.6595639e-05 
1.4624108e-05 -3.0981497e-05 -1.6789087e-05 
1.1999285e-05 -2.2601887e-05 -9.1001502e-06 
1.2703407e-05 -3.1611944e-05 -1.3852164e-06 
4.8935030e-06 -4.7062455e-05 8.1053695e-06 
5.8840283e-06 -4.9701765e-05 3.9954111e-06 
4.8451520e-06 -2.9737121e-05 4.5747693e-06 
3.3765024e-05 1.5006827e-06 6.3041612e-06 
2.2060791e-05 1.8253033e-05 5.5072164e-06 
2.5942149e-05 1.3461291e-05 6.1880279e-08 
2.5365645e-05 1.0676822e-05 2.6149488e-05 
2.7596398e-05 3.7282021e-05 3.5785550e-05 
2.3608995e-05 8.6754124e-05 5.5985973e-05 
2.6014735e-05 7.8535457e-05 9.5833435e-05 
1.7296334e-05 -1.1359217e-04 1.1152102e-04 
-3.2207132e-05 -5.5730704e-04 1.7003593e-04 
-7.4329808e-05 -1.2464852e-03 1.4525362e-04 
-1.5237914e-04 -2.1711383e-03 2.5052525e-04 
-2.3031075e-04 -3.2769863e-03 8.0786049e-05 
-2.9810562e-04 -4.4174800e-03 1.6066470e-04 
-2.9461546e-04 -5.0573028e-03 2.3127583e-05 
-2.9020413e-04 -4.8030145e-03 -6.9707174e-05 
-2.8592264e-04 -4.3875012e-03 -7.9083213e-05 
-2.8132464e-04 -4.3940051e-03 -6.4392836e-05 
-3.6004270e-04 -4.6929861e-03 -2.1618050e-04 
-3.6505825e-04 -4.6440042e-03 -2.9450402e-04 
-4.3218781e-04 -3.5507670e-03 -4.9357151e-04 
-1.0365005e-04 -2.0814971e-03 -2.8188049e-04 
-1.5721318e-05 -9.1568957e-04 -1.4164322e-04 
2.9920773e-05 -2.1717916e-04 -1.2223035e-04 
3.2288961e-05 1.1091147e-04 -2.8796723e-05 
3.2436492e-05 2.1992963e-04 8.9812420e-06 
3.0460607e-05 2.1087920e-04 2.8270950e-05 
1.5188218e-05 1.4406879e-04 4.3777574e-05 
9.3818462e-06 6.6456574e-05 3.9182116e-05 
2.1891256e-06 1.5513468e-05 4.1044241e-05 
-5.1099451e-06 -2.3230648e-06 3.4911714e-05 
-1.1011676e-05 -2.6306632e-06 2.9539880e-05 
-1.0065224e-05 -1.6486943e-06 1.7778444e-05 
-1.4660479e-05 -3.0275476e-06 2.1750336e-06 
-1.0059297e-05 -2.3448538e-06 -8.8567722e-06 
2.9158997e-07 2.2123036e-06 -1.9084515e-05 
7.6011332e-08 6.2283543e-06 -1.6344289e-05 
3.4869779e-06 5.5255164e-06 -5.9240574e-06 
2.8632594e-06 1.6992071e-06 1.0545643e-06 
-5.5684945e-06 -9.9741419e-07 -3.9001043e-07 
-4.7960161e-06 -5.4025821e-07 -4.5967067e-06 
1.5229145e-06 1.1507402e-06 -1.0567735e-05 
5.0555161e-07 1.0238135e-06 -9.4067054e-06 
4.1176058e-06 -1.2756088e-06 -3.4405168e-06 
0.0000000e+00 2.7618855e-05 0.0000000e+00 
0.0000000e+00 2.4461877e-05 0.0000000e+00 
0.0000000e+00 1.7825079e-05 0.0000000e+00 
0.0000000e+00 1.0883529e-05 0.0000000e+00 
0.0000000e+00 3.8088504e-06 0.0000000e+00 
0.0000000e+00 -4.8521338e-06 0.0000000e+00 
0.0000000e+00 -1.6105761e-05 0.0000000e+00 
0.0000000e+00 -2.6827829e-05 0.0000000e+00 
0.0000000e+00 -3.1452422e-05 0.0000000e+00 
0.0000000e+00 -2.8950828e-05 0.0000000e+00 
0.0000000e+00 -2.5081035e-05 0.0000000e+00 
0.0000000e+00 -2.8352122e-05 0.0000000e+00 
0.0000000e+00 -4.1152729e-05 0.0000000e+00 
0.0000000e+00 -5.3717395e-05 0.0000000e+00 
0.0000000e+00 -5.1109335e-05 0.0000000e+00 
0.0000000e+00 -3.1504540e-05 0.0000000e+00 
0.0000000e+00 -9.5252544e-06 0.0000000e+00 
0.0000000e+00 -1.0970454e-06 0.0000000e+00 
0.0000000e+00 -7.2792714e-06 0.0000000e+00 
0.0000000e+00 -5.6807421e-06 0.0000000e+00 
0.0000000e+00 3.0215226e-05 0.0000000e+00 
0.0000000e+00 9.3391311e-05 0.0000000e+00 
0.0000000e+00 1.3117233e-04 0.0000000e+00 
0.0000000e+00 7.2392126e-05 0.0000000e+00 
0.0000000e+00 -1.3563546e-04 0.0000000e+00 
0.0000000e+00 -5.0456362e-04 0.0000000e+00 
0.0000000e+00 -1.0436636e-03 0.0000000e+00 
0.0000000e+00 -1.8251149e-03 0.0000000e+00 
0.0000000e+00 -2.9251371e-03 0.0000000e+00 
0.0000000e+00 -4.2280890e-03 0.0000000e+00 
0.0000000e+00 -5.1310509e-03 0.0000000e+00 
0.0000000e+00 -4.9359719e-03 0.0000000e+00 
0.0000000e+00 -4.4201897e-03 0.0000000e+00 
0.0000000e+00 -4.3086312e-03 0.0000000e+00 
0.0000000e+00 -4.6461071e-03 0.0000000e+00 
0.0000000e+00 -4.7232113e-03 0.0000000e+00 
0.0000000e+00 -3.6962721e-03 0.0000000e+00 
0.0000000e+00 -2.2543943e-03 0.0000000e+00 
0.0000000e+00 -1.0304829e-03 0.0000000e+00 
0.0000000e+00 -2.5579109e-04 0.0000000e+00 
0.0000000e+00 1.0949678e-04 0.0000000e+00 
0.0000000e+00 2.1425942e-04 0.0000000e+00 
0.0000000e+00 1.9551883e-04 0.0000000e+00 
0.0000000e+00 1.3439258e-04 0.0000000e+00 
0.0000000e+00 6.4116604e-05 0.0000000e+00 
0.0000000e+00 2.3597327e-06 0.0000000e+00 
0.0000000e+00 -3.7203197e-05 0.0000000e+00 
0.0000000e+00 -5.2149378e-05 0.0000000e+00 
0.0000000e+00 -5.3290940e-05 0.0000000e+00 
0.0000000e+00 -5.0719820e-05 0.0000000e+00 
0.0000000e+00 -4.3825927e-05 0.0000000e+00 
0.0000000e+00 -3.0930969e-05 0.0000000e+00 
0.0000000e+00 -2.3584527e-05 0.0000000e+00 
0.0000000e+00 -3.2163975e-05 0.0000000e+00 
0.0000000e+00 -4.6878307e-05 0.0000000e+00 
0.0000000e+00 -4.8867361e-05 0.0000000e+00 
0.0000000e+00 -2.9041576e-05 0.0000000e+00 
0.0000000e+00 1.0312954e-06 0.0000000e+00 
0.0000000e+00 1.7235956e-05 0.0000000e+00 
0.0000000e+00 1.2849540e-05 0.0000000e+00 
0.0000000e+00 1.1220087e-05 0.0000000e+00 
0.0000000e+00 4.0014547e-05 0.0000000e+00 
0.0000000e+00 8.9307221e-05 0.0000000e+00 
0.0000000e+00 7.7296376e-05 0.0000000e+00 
0.0000000e+00 -1.1621043e-04 0.0000000e+00 
0.0000000e+00 -5.5860390e-04 0.0000000e+00 
0.0000000e+00 -1.2492125e-03 0.0000000e+00 
0.0000000e+00 -2.1737360e-03 0.0000000e+00 
0.0000000e+00 -3.2927685e-03 0.0000000e+00 
0.0000000e+00 -4.4402513e-03 0.0000000e+00 
0.0000000e+00 -5.0927987e-03 0.0000000e+00 
0.0000000e+00 -4.8270659e-03 0.0000000e+00 
0.0000000e+00 -4.4129463e-03 0.0000000e+00 
0.0000000e+00 -4.4133943e-03 0.0000000e+00 
0.0000000e+00 -4.7235382e-03 0.0000000e+00 
0.0000000e+00 -4.6709101e-03 0.0000000e+00 
0.0000000e+00 -3.5683350e-03 0.0000000e+00 
0.0000000e+00 -2.0998649e-03 0.0000000e+00 
0.0000000e+00 -9.2374091e-04 0.0000000e+00 
0.0000000e+00 -2.1792993e-04 0.0000000e+00 
0.0000000e+00 1.1283340e-04 0.0000000e+00 
0.0000000e+00 2.2108048e-04 0.0000000e+00 
0.0000000e+00 2.1144414e-04 0.0000000e+00 
0.0000000e+00 1.4475065e-04 0.0000000e+00 
0.0000000e+00 6.7717221e-05 0.0000000e+00 
0.0000000e+00 1.6078920e-05 0.0000000e+00 
0.0000000e+00 -2.5620275e-06 0.0000000e+00 
0.0000000e+00 -3.0590907e-06 0.0000000e+00 
0.0000000e+00 -1.7449319e-06 0.0000000e+00 
0.0000000e+00 -2.8876868e-06 0.0000000e+00 
0.0000000e+00 -2.2529407e-06 0.0000000e+00 
0.0000000e+00 2.1187520e-06 0.0000000e+00 
0.0000000e+00 6.0858993e-06 0.0000000e+00 
0.0000000e+00 5.5314508e-06 0.0000000e+00 
0.0000000e+00 1.7802867e-06 0.0000000e+00 
0.0000000e+00 -9.3563142e-07 0.0000000e+00 
0.0000000e+00 -5.4154270e-07 0.0000000e+00 
0.0000000e+00 1.1004638e-06 0.0000000e+00 
0.0000000e+00 9.7413101e-07 0.0000000e+00 
0.0000000e+00 -1.2756427e-06 0.0000000e+00 
0.0000000e+00 -2.7942701e-06 0.0000000e+00 
4.2307006e-06 -2.3342520e-05 -3.2099870e-06 
1.0548696e-05 8.3616951e-06 3.3713068e-06 
1.2608849e-05 9.6925987e-06 -3.4719825e-08 
4.7199796e-06 -9.6367648e-07 6.2749559e-06 
0.0000000e+00 6.2869316e-05 0.0000000e+00 
0.0000000e+00 0.0000000e+00 0.0000000e+00 
0.0000000e+00 0.0000000e+00 0.0000000e+00 
0.0000000e+00 0.0000000e+00 0.0000000e+00 
0.0000000e+00 0.0000000e+00 0.0000000e+00 
0.0000000e+00 0.0000000e+00 0.0000000e+00 
0.0000000e+00 0.0000000e+00 0.0000000e+00 
0.0000000e+00 0.0000000e+00 0.0000000e+00 
0.0000000e+00 0.0000000e+00 0.0000000e+00 
0.0000000e+00 0.0000000e+00 0.0000000e+00 
0.0000000e+00 0.0000000e+00 0.0000000e+00 
0.0000000e+00 0.0000000e+00 0.0000000e+00 
0.0000000e+00 0.0000000e+00 0.0000000e+00 
0.0000000e+00 0.0000000e+00 0.0000000e+00 
0.0000000e+00 0.0000000e+00 0.0000000e+00 
0.0000000e+00 0.0000000e+00 0.0000000e+00 
0.0000000e+00 0.0000000e+00 0.0000000e+00 
0.0000000e+00 0.0000000e+00 0.0000000e+00 
0.0000000e+00 0.0000000e+00 0.0000000e+00 
0.0000000e+00 0.0000000e+00 0.0000000e+00 
0.0000000e+00 0.0000000e+00 0.0000000e+00 
0.0000000e+00 0.0000000e+00 0.0000000e+00 
0.0000000e+00 0.0000000e+00 0.0000000e+00 
0.0000000e+00 0.0000000e+00 0.0000000e+00 
0.0000000e+00 0.0000000e+00 0.0000000e+00 
0.0000000e+00 0.0000000e+00 0.0000000e+00 
0.0000000e+00 0.0000000e+00 0.0000000e+00 
0.0000000e+00 0.0000000e+00 0.0000000e+00 
0.0000000e+00 0.0000000e+00 0.0000000e+00 
0.0000000e+00 0.0000000e+00 0.0000000e+00 
0.0000000e+00 0.0000000e+00 0.0000000e+00 
0.0000000e+00 0.0000000e+00 0.0000000e+00 
0.0000000e+00 0.0000000e+00 0.0000000e+00 
0.0000000e+00 0.0000000e+00 0.0000000e+00 
0.0000000e+00 0.0000000e+00 0.0000000e+00 
0.0000000e+00 0.0000000e+00 0.0000000e+00 
0.0000000e+00 0.0000000e+00 0.0000000e+00 
0.0000000e+00 0.0000000e+00 0.0000000e+00 
0.0000000e+00 0.0000000e+00 0.0000000e+00 
0.0000000e+00 0.0000000e+00 0.0000000e+00 
0.0000000e+00 0.0000000e+00 0.0000000e+00 
0.0000000e+00 0.0000000e+00 0.0000000e+00 
0.0000000e+00 0.0000000e+00 0.0000000e+00 
0.0000000e+00 0.0000000e+00 0.0000000e+00 
0.0000000e+00 0.0000000e+00 0.0000000e+00 
0.0000000e+00 0.0000000e+00 0.0000000e+00 
0.0000000e+00 0.0000000e+00 0.0000000e+00 
0.0000000e+00 0.0000000e+00 0.0000000e+00 
0.0000000e+00 0.0000000e+00 0.0000000e+00 
0.0000000e+00 0.0000000e+00 0.0000000e+00 
0.0000000e+00 0.0000000e+00 0.0000000e+00 
0.0000000e+00 0.0000000e+00 0.0000000e+00 
0.0000000e+00 0.0000000e+00 0.0000000e+00 
0.0000000e+00 0.0000000e+00 0.0000000e+00 
0.0000000e+00 0.0000000e+00 0.0000000e+00 
0.0000000e+00 0.0000000e+00 0.0000000e+00 
0.0000000e+00 0.0000000e+00 0.0000000e+00 
0.0000000e+00 0.0000000e+00 0.0000000e+00 
0.0000000e+00 0.0000000e+00 0.0000000e+00 
0.0000000e+00 0.0000000e+00 0.0000000e+00 
0.0000000e+00 0.0000000e+00 0.0000000e+00 
0.0000000e+00 0.0000000e+00 0.0000000e+00 
0.0000000e+00 0.0000000e+00 0.0000000e+00 
0.0000000e+00 0.0000000e+00 0.0000000e+00 
0.0000000e+00 0.0000000e+00 0.0000000e+00 
0.0000000e+00 0.0000000e+00 0.0000000e+00 
0.0000000e+00 0.0000000e+00 0.0000000e+00 
0.0000000e+00 0.0000000e+00 0.0000000e+00 
0.0000000e+00 0.0000000e+00 0.0000000e+00 
0.0000000e+00 0.0000000e+00 0.0000000e+00 
0.0000000e+00 0.0000000e+00 0.0000000e+00 
0.0000000e+00 0.0000000e+00 0.0000000e+00 
0.0000000e+00 0.0000000e+00 0.0000000e+00 
0.0000000e+00 0.0000000e+00 0.0000000e+00 
0.0000000e+00 0.0000000e+00 0.0000000e+00 
0.0000000e+00 0.0000000e+00 0.0000000e+00 
0.0000000e+00 0.0000000e+00 0.0000000e+00 
0.0000000e+00 0.0000000e+00 0.0000000e+00 
0.0000000e+00 0.0000000e+00 0.0000000e+00 
0.0000000e+00 0.0000000e+00 0.0000000e+00 
0.0000000e+00 0.0000000e+00 0.0000000e+00 
0.0000000e+00 0.0000000e+00 0.0000000e+00 
0.0000000e+00 0.0000000e+00 0.0000000e+00 
0.0000000e+00 0.0000000e+00 0.0000000e+00 
0.0000000e+00 0.0000000e+00 0.0000000e+00 
0.0000000e+00 0.0000000e+00 0.0000000e+00 
0.0000000e+00 0.0000000e+00 0.0000000e+00 
0.0000000e+00 0.0000000e+00 0.0000000e+00 
0.0000000e+00 0.0000000e+00 0.0000000e+00 
0.0000000e+00 0.0000000e+00 0.0000000e+00 
0.0000000e+00 0.0000000e+00 0.0000000e+00 
0.0000000e+00 0.0000000e+00 0.0000000e+00 
0.0000000e+00 0.0000000e+00 0.0000000e+00 
0.0000000e+00 0.0000000e+00 0.0000000e+00 
0.0000000e+00 0.0000000e+00 0.0000000e+00 
0.0000000e+00 0.0000000e+00 0.0000000e+00 
0.0000000e+00 0.0000000e+00 0.0000000e+00 
0.0000000e+00 0.0000000e+00 0.0000000e+00 
0.0000000e+00 0.0000000e+00 0.0000000e+00 
0.0000000e+00 0.0000000e+00 0.0000000e+00 
0.0000000e+00 0.0000000e+00 0.0000000e+00 
0.0000000e+00 0.0000000e+00 0.0000000e+00 
0.0000000e+00 0.0000000e+00 0.0000000e+00 
0.0000000e+00 0.0000000e+00 0.0000000e+00 
0.0000000e+00 0.0000000e+00 0.0000000e+00 
0.0000000e+00 0.0000000e+00 0.0000000e+00 
0.0000000e+00 0.0000000e+00 0.0000000e+00 
-2.1459455e-06 1.6098456e-07 1.5383803e-06 
-2.3128321e-06 -3.4344121e-06 -5.7216809e-08 
-3.6701822e-06 -6.0496900e-06 2.8592447e-06 
-5.9100566e-06 -4.0086570e-06 1.1867180e-06 
-4.9581890e-06 -5.0662575e-06 -8.9280206e-07 
-8.2038459e-06 -3.5378271e-06 1.1622397e-07 
-3.9349416e-06 -1.4100094e-07 -3.1680804e-06 
-1.8135725e-06 -1.0150632e-05 -2.2238037e-06 
-5.0572316e-06 2.5497122e-09 -4.6854739e-06 
2.1391911e-06 -6.3022976e-06 -1.2930277e-05 
8.8005754e-06 -1.8037053e-05 -1.6295351e-05 
1.4852461e-05 -3.9454681e-06 -1.5581454e-05 
3.1994932e-05 -1.3108383e-05 -1.9724030e-05 
4.0481973e-05 -1.5705778e-05 -1.6434919e-05 
4.5167515e-05 -1.3480373e-05 -6.9997322e-06 
4.7990481e-05 -8.1052622e-06 1.1756533e-07 
4.2507651e-05 -6.7546598e-06 8.4585527e-06 
2.7638785e-05 -4.4052490e-06 1.7239534e-05 
1.3247535e-05 -4.8257057e-06 1.6799408e-05 
5.1774164e-06 -4.6580417e-06 1.8511862e-05 
6.2620728e-07 -5.7117240e-06 1.6320195e-05 
-8.1958387e-07 -5.9934973e-06 7.8135699e-06 
-7.3550541e-07 -3.0036181e-06 7.8489102e-06 
-2.6203902e-06 -3.8288454e-06 5.6485410e-06 
-2.7112940e-06 -1.7950265e-06 -2.5121503e-06 
-3.3800720e-06 -6.3097882e-06 2.7135782e-06 
-4.3231598e-06 5.6460744e-06 1.8158182e-06 
-3.2417461e-06 -2.4256294e-06 -4.1867474e-06 
-3.3688686e-06 -9.2867467e-06 -5.2059918e-06 
4.6247201e-06 -8.5599675e-07 -1.3602007e-05 
7.4486038e-06 -6.7017395e-06 -1.5065557e-05 
1.6780688e-05 -1.5508687e-05 -1.9736986e-05 
3.2463591e-05 -6.6510206e-06 -1.8417930e-05 
3.7142687e-05 -1.6456182e-05 -2.0259415e-05 
4.7545836e-05 -8.2408123e-06 -1.4676809e-05 
4.8451606e-05 -7.4865889e-06 -3.0394269e-06 
3.6132071e-05 -8.0330310e-06 5.9047452e-06 
2.3550147e-05 -6.8081295e-06 1.3411557e-05 
1.3826289e-05 -5.3851954e-06 1.2770170e-05 
7.6849201e-06 -3.0617455e-06 1.3216810e-05 
4.6358050e-06 -2.8525715e-06 1.1190721e-05 
3.4860684e-06 -2.3554576e-06 8.3615387e-06 
2.9488247e-06 -1.4163199e-06 5.6945660e-06 
1.4750153e-06 5.4257502e-08 3.5370085e-06 
-9.0693455e-08 2.5677537e-07 2.1218952e-06 
-5.0304391e-07 -2.5925317e-07 8.0464054e-07 
-6.2015368e-07 -1.6284109e-07 9.5271702e-09 
8.8797051e-08 -1.1280362e-07 -1.9267169e-07 
3.1875611e-08 -2.7845894e-07 4.6527298e-08 
0.0000000e+00 1.8800566e-06 0.0000000e+00 
0.0000000e+00 1.1185539e-05 0.0000000e+00 
0.0000000e+00 1.6587317e-05 0.0000000e+00 
0.0000000e+00 3.5149493e-05 0.0000000e+00 
0.0000000e+00 3.7379734e-05 0.0000000e+00 
0.0000000e+00 2.6877035e-05 0.0000000e+00 
0.0000000e+00 4.9329479e-05 0.0000000e+00 
0.0000000e+00 3.5273773e-05 0.0000000e+00 
0.0000000e+00 1.7207927e-05 0.0000000e+00 
0.0000000e+00 2.5626770e-05 0.0000000e+00 
0.0000000e+00 3.3440415e-06 0.0000000e+00 
0.0000000e+00 -8.5272244e-05 0.0000000e+00 
0.0000000e+00 -1.4675414e-04 0.0000000e+00 
0.0000000e+00 -4.2185799e-04 0.0000000e+00 
0.0000000e+00 -5.2321953e-04 0.0000000e+00 
0.0000000e+00 -5.1037729e-04 0.0000000e+00 
0.0000000e+00 -4.7653253e-04 0.0000000e+00 
0.0000000e+00 -3.3950529e-04 0.0000000e+00 
0.0000000e+00 -1.3663092e-04 0.0000000e+00 
0.0000000e+00 -2.1254873e-05 0.0000000e+00 
0.0000000e+00 1.9648834e-05 0.0000000e+00 
0.0000000e+00 2.4971227e-05 0.0000000e+00 
0.0000000e+00 1.9754940e-05 0.0000000e+00 
0.0000000e+00 3.4299570e-05 0.0000000e+00 
0.0000000e+00 5.1707222e-05 0.0000000e+00 
0.0000000e+00 4.1238007e-05 0.0000000e+00 
0.0000000e+00 5.0696621e-05 0.0000000e+00 
0.0000000e+00 6.0677368e-05 0.0000000e+00 
0.0000000e+00 2.0506992e-05 0.0000000e+00 
0.0000000e+00 2.5993444e-05 0.0000000e+00 
0.0000000e+00 3.0642182e-06 0.0000000e+00 
0.0000000e+00 -1.1663785e-04 0.0000000e+00 
0.0000000e+00 -1.9395158e-04 0.0000000e+00 
0.0000000e+00 -4.4652322e-04 0.0000000e+00 
0.0000000e+00 -5.6239468e-04 0.0000000e+00 
0.0000000e+00 -5.3282571e-04 0.0000000e+00 
0.0000000e+00 -4.8563615e-04 0.0000000e+00 
0.0000000e+00 -3.2572600e-04 0.0000000e+00 
0.0000000e+00 -1.0774403e-04 0.0000000e+00 
0.0000000e+00 -1.7877370e-05 0.0000000e+00 
0.0000000e+00 5.8096316e-06 0.0000000e+00 
0.0000000e+00 -1.8084734e-06 0.0000000e+00 
0.0000000e+00 -3.0914539e-06 0.0000000e+00 
0.0000000e+00 7.3324838e-07 0.0000000e+00 
0.0000000e+00 2.2012214e-06 0.0000000e+00 
0.0000000e+00 1.4023105e-06 0.0000000e+00 
0.0000000e+00 5.6170620e-07 0.0000000e+00 
0.0000000e+00 -2.1316446e-06 0.0000000e+00 
0.0000000e+00 -6.3184405e-07 0.0000000e+00 
-1.7095070e-06 -3.0370222e-07 1.0903532e-06 
5.3229606e-08 -3.3253275e-06 -2.7515741e-06 
1.7755202e-06 -2.3233422e-06 -3.7129741e-06 
-4.3736208e-08 -7.7237037e-06 -1.8640386e-06 
-5.2945403e-08 -1.3276131e-07 6.2353465e-08 
-4.6552285e-07 2.9598624e-07 1.3071147e-07 
-8.8297196e-07 8.4669716e-07 -6.8918945e-07 
-5.6403701e-07 2.1236369e-06 -7.2619861e-07 
-3.1035916e-06 2.6857883e-06 3.5748774e-06 
2.7593316e-07 -3.4469547e-08 -3.7266275e-07 
-1.7523785e-06 -9.2577761e-07 -3.3939358e-07 
-1.5493680e-06 -8.7872365e-07 1.3427744e-07 
0.0000000e+00 -1.1575240e-06 0.0000000e+00 
0.0000000e+00 9.0794456e-06 0.0000000e+00 
0.0000000e+00 3.1115189e-05 0.0000000e+00 
0.0000000e+00 4.3437485e-05 0.0000000e+00 
0.0000000e+00 4.5819972e-05 0.0000000e+00 
0.0000000e+00 5.9747817e-05 0.0000000e+00 
0.0000000e+00 5.9978513e-05 0.0000000e+00 
0.0000000e+00 4.8280588e-05 0.0000000e+00 
0.0000000e+00 4.2609357e-05 0.0000000e+00 
0.0000000e+00 5.6853867e-05 0.0000000e+00 
0.0000000e+00 -1.4365774e-05 0.0000000e+00 
0.0000000e+00 -1.6109344e-04 0.0000000e+00 
0.0000000e+00 -3.8690222e-04 0.0000000e+00 