# vtk DataFile Version 4.0
vtk output
ASCII
DATASET UNSTRUCTURED_GRID
POINTS 1919 float
0.0000000e+00 0.0000000e+00 0.0000000e+00 
0.0000000e+00 0.0000000e+00 5.0000000e+01 
5.0000000e+00 0.0000000e+00 0.0000000e+00 
5.0000000e+00 0.0000000e+00 5.0000000e+01 
5.0000000e+00 1.0000000e+00 0.0000000e+00 
5.0000000e+00 1.0000000e+00 5.0000000e+01 
0.0000000e+00 1.0000000e+00 0.0000000e+00 
0.0000000e+00 1.0000000e+00 5.0000000e+01 
5.0000000e+00 2.0000000e+00 0.0000000e+00 
5.0000000e+00 2.0000000e+00 5.0000000e+01 
3.0000000e+00 2.0000000e+00 0.0000000e+00 
3.0000000e+00 2.0000000e+00 5.0000000e+01 
0.0000000e+00 2.0000000e+00 0.0000000e+00 
0.0000000e+00 2.0000000e+00 5.0000000e+01 
1.5000000e+00 3.0000000e+00 0.0000000e+00 
1.5000000e+00 3.0000000e+00 5.0000000e+01 
7.5000000e-01 3.0000000e+00 0.0000000e+00 
7.5000000e-01 3.0000000e+00 5.0000000e+01 
0.0000000e+00 3.0000000e+00 0.0000000e+00 
0.0000000e+00 3.0000000e+00 5.0000000e+01 
7.5000000e-01 3.0000000e+00 5.0000000e-01 
7.5000000e-01 3.0000000e+00 1.0000000e+00 
7.5000000e-01 3.0000000e+00 1.5000000e+00 
7.5000000e-01 3.0000000e+00 2.0000000e+00 
7.5000000e-01 3.0000000e+00 2.5000000e+00 
7.5000000e-01 3.0000000e+00 3.0000000e+00 
7.5000000e-01 3.0000000e+00 3.5000000e+00 
7.5000000e-01 3.0000000e+00 4.0000000e+00 
7.5000000e-01 3.0000000e+00 4.5000000e+00 
7.5000000e-01 3.0000000e+00 5.0000000e+00 
7.5000000e-01 3.0000000e+00 5.5000000e+00 
7.5000000e-01 3.0000000e+00 6.0000000e+00 
7.5000000e-01 3.0000000e+00 6.5000000e+00 
7.5000000e-01 3.0000000e+00 7.0000000e+00 
7.5000000e-01 3.0000000e+00 7.5000000e+00 
7.5000000e-01 3.0000000e+00 8.0000000e+00 
7.5000000e-01 3.0000000e+00 8.5000000e+00 
7.5000000e-01 3.0000000e+00 9.0000000e+00 
7.5000000e-01 3.0000000e+00 9.5000000e+00 
7.5000000e-01 3.0000000e+00 1.0000000e+01 
7.5000000e-01 3.0000000e+00 1.0500000e+01 
7.5000000e-01 3.0000000e+00 1.1000000e+01 
7.5000000e-01 3.0000000e+00 1.1500000e+01 
7.5000000e-01 3.0000000e+00 1.2000000e+01 
7.5000000e-01 3.0000000e+00 1.2500000e+01 
7.5000000e-01 3.0000000e+00 1.3000000e+01 
7.5000000e-01 3.0000000e+00 1.3500000e+01 
7.5000000e-01 3.0000000e+00 1.4000000e+01 
7.5000000e-01 3.0000000e+00 1.4500000e+01 
7.5000000e-01 3.0000000e+00 1.5000000e+01 
7.5000000e-01 3.0000000e+00 1.5500000e+01 
7.5000000e-01 3.0000000e+00 1.6000000e+01 
7.5000000e-01 3.0000000e+00 1.6500000e+01 
7.5000000e-01 3.0000000e+00 1.7000000e+01 
7.5000000e-01 3.0000000e+00 1.7500000e+01 
7.5000000e-01 3.0000000e+00 1.8000000e+01 
7.5000000e-01 3.0000000e+00 1.8500000e+01 
7.5000000e-01 3.0000000e+00 1.9000000e+01 
7.5000000e-01 3.0000000e+00 1.9500000e+01 
7.5000000e-01 3.0000000e+00 2.0000000e+01 
7.5000000e-01 3.0000000e+00 2.0500000e+01 
7.5000000e-01 3.0000000e+00 2.1000000e+01 
7.5000000e-01 3.0000000e+00 2.1500000e+01 
7.5000000e-01 3.0000000e+00 2.2000000e+01 
7.5000000e-01 3.0000000e+00 2.2500000e+01 
7.5000000e-01 3.0000000e+00 2.3000000e+01 
7.5000000e-01 3.0000000e+00 2.3500000e+01 
7.5000000e-01 3.0000000e+00 2.4000000e+01 
7.5000000e-01 3.0000000e+00 2.4500000e+01 
7.5000000e-01 3.0000000e+00 2.5000000e+01 
7.5000000e-01 3.0000000e+00 2.5500000e+01 
7.5000000e-01 3.0000000e+00 2.6000000e+01 
7.5000000e-01 3.0000000e+00 2.6500000e+01 
7.5000000e-01 3.0000000e+00 2.7000000e+01 
7.5000000e-01 3.0000000e+00 2.7500000e+01 
7.5000000e-01 3.0000000e+00 2.8000000e+01 
7.5000000e-01 3.0000000e+00 2.8500000e+01 
7.5000000e-01 3.0000000e+00 2.9000000e+01 
7.5000000e-01 3.0000000e+00 2.9500000e+01 
7.5000000e-01 3.0000000e+00 3.0000000e+01 
7.5000000e-01 3.0000000e+00 3.0500000e+01 
7.5000000e-01 3.0000000e+00 3.1000000e+01 
7.5000000e-01 3.0000000e+00 3.1500000e+01 
7.5000000e-01 3.0000000e+00 3.2000000e+01 
7.5000000e-01 3.0000000e+00 3.2500000e+01 
7.5000000e-01 3.0000000e+00 3.3000000e+01 
7.5000000e-01 3.0000000e+00 3.3500000e+01 
7.5000000e-01 3.0000000e+00 3.4000000e+01 
7.5000000e-01 3.0000000e+00 3.4500000e+01 
7.5000000e-01 3.0000000e+00 3.5000000e+01 
7.5000000e-01 3.0000000e+00 3.5500000e+01 
7.5000000e-01 3.0000000e+00 3.6000000e+01 
7.5000000e-01 3.0000000e+00 3.6500000e+01 
7.5000000e-01 3.0000000e+00 3.7000000e+01 
7.5000000e-01 3.0000000e+00 3.7500000e+01 
7.5000000e-01 3.0000000e+00 3.8000000e+01 
7.5000000e-01 3.0000000e+00 3.8500000e+01 
7.5000000e-01 3.0000000e+00 3.9000000e+01 
7.5000000e-01 3.0000000e+00 3.9500000e+01 
7.5000000e-01 3.0000000e+00 4.0000000e+01 
7.5000000e-01 3.0000000e+00 4.0500000e+01 
7.5000000e-01 3.0000000e+00 4.1000000e+01 
7.5000000e-01 3.0000000e+00 4.1500000e+01 
7.5000000e-01 3.0000000e+00 4.2000000e+01 
7.5000000e-01 3.0000000e+00 4.2500000e+01 
7.5000000e-01 3.0000000e+00 4.3000000e+01 
7.5000000e-01 3.0000000e+00 4.3500000e+01 
7.5000000e-01 3.0000000e+00 4.4000000e+01 
7.5000000e-01 3.0000000e+00 4.4500000e+01 
7.5000000e-01 3.0000000e+00 4.5000000e+01 
7.5000000e-01 3.0000000e+00 4.5500000e+01 
7.5000000e-01 3.0000000e+00 4.6000000e+01 
7.5000000e-01 3.0000000e+00 4.6500000e+01 
7.5000000e-01 3.0000000e+00 4.7000000e+01 
7.5000000e-01 3.0000000e+00 4.7500000e+01 
7.5000000e-01 3.0000000e+00 4.8000000e+01 
7.5000000e-01 3.0000000e+00 4.8500000e+01 
7.5000000e-01 3.0000000e+00 4.9000000e+01 
7.5000000e-01 3.0000000e+00 4.9500000e+01 
7.5000000e-01 3.0250001e+00 0.0000000e+00 
7.5000000e-01 3.0250001e+00 5.0000000e-01 
7.5000000e-01 3.0250001e+00 1.0000000e+00 
7.5000000e-01 3.0250001e+00 1.5000000e+00 
7.5000000e-01 3.0250001e+00 2.0000000e+00 
7.5000000e-01 3.0250001e+00 2.5000000e+00 
7.5000000e-01 3.0250001e+00 3.0000000e+00 
7.5000000e-01 3.0250001e+00 3.5000000e+00 
7.5000000e-01 3.0250001e+00 4.0000000e+00 
7.5000000e-01 3.0250001e+00 4.5000000e+00 
7.5000000e-01 3.0250001e+00 5.0000000e+00 
7.5000000e-01 3.0250001e+00 5.5000000e+00 
7.5000000e-01 3.0250001e+00 6.0000000e+00 
7.5000000e-01 3.0250001e+00 6.5000000e+00 
7.5000000e-01 3.0250001e+00 7.0000000e+00 
7.5000000e-01 3.0250001e+00 7.5000000e+00 
7.5000000e-01 3.0250001e+00 8.0000000e+00 
7.5000000e-01 3.0250001e+00 8.5000000e+00 
7.5000000e-01 3.0250001e+00 9.0000000e+00 
7.5000000e-01 3.0250001e+00 9.5000000e+00 
7.5000000e-01 3.0250001e+00 1.0000000e+01 
7.5000000e-01 3.0250001e+00 1.0500000e+01 
7.5000000e-01 3.0250001e+00 1.1000000e+01 
7.5000000e-01 3.0250001e+00 1.1500000e+01 
7.5000000e-01 3.0250001e+00 1.2000000e+01 
7.5000000e-01 3.0250001e+00 1.2500000e+01 
7.5000000e-01 3.0250001e+00 1.3000000e+01 
7.5000000e-01 3.0250001e+00 1.3500000e+01 
7.5000000e-01 3.0250001e+00 1.4000000e+01 
7.5000000e-01 3.0250001e+00 1.4500000e+01 
7.5000000e-01 3.0250001e+00 1.5000000e+01 
7.5000000e-01 3.0250001e+00 1.5500000e+01 
7.5000000e-01 3.0250001e+00 1.6000000e+01 
7.5000000e-01 3.0250001e+00 1.6500000e+01 
7.5000000e-01 3.0250001e+00 1.7000000e+01 
7.5000000e-01 3.0250001e+00 1.7500000e+01 
7.5000000e-01 3.0250001e+00 1.8000000e+01 
7.5000000e-01 3.0250001e+00 1.8500000e+01 
7.5000000e-01 3.0250001e+00 1.9000000e+01 
7.5000000e-01 3.0250001e+00 1.9500000e+01 
7.5000000e-01 3.0250001e+00 2.0000000e+01 
7.5000000e-01 3.0250001e+00 2.0500000e+01 
7.5000000e-01 3.0250001e+00 2.1000000e+01 
7.5000000e-01 3.0250001e+00 2.1500000e+01 
7.5000000e-01 3.0250001e+00 2.2000000e+01 
7.5000000e-01 3.0250001e+00 2.2500000e+01 
7.5000000e-01 3.0250001e+00 2.3000000e+01 
7.5000000e-01 3.0250001e+00 2.3500000e+01 
7.5000000e-01 3.0250001e+00 2.4000000e+01 
7.5000000e-01 3.0250001e+00 2.4500000e+01 
7.5000000e-01 3.0250001e+00 2.5000000e+01 
7.5000000e-01 3.0250001e+00 2.5500000e+01 
7.5000000e-01 3.0250001e+00 2.6000000e+01 
7.5000000e-01 3.0250001e+00 2.6500000e+01 
7.5000000e-01 3.0250001e+00 2.7000000e+01 
7.5000000e-01 3.0250001e+00 2.7500000e+01 
7.5000000e-01 3.0250001e+00 2.8000000e+01 
7.5000000e-01 3.0250001e+00 2.8500000e+01 
7.5000000e-01 3.0250001e+00 2.9000000e+01 
7.5000000e-01 3.0250001e+00 2.9500000e+01 
7.5000000e-01 3.0250001e+00 3.0000000e+01 
7.5000000e-01 3.0250001e+00 3.0500000e+01 
7.5000000e-01 3.0250001e+00 3.1000000e+01 
7.5000000e-01 3.0250001e+00 3.1500000e+01 
7.5000000e-01 3.0250001e+00 3.2000000e+01 
7.5000000e-01 3.0250001e+00 3.2500000e+01 
7.5000000e-01 3.0250001e+00 3.3000000e+01 
7.5000000e-01 3.0250001e+00 3.3500000e+01 
7.5000000e-01 3.0250001e+00 3.4000000e+01 
7.5000000e-01 3.0250001e+00 3.4500000e+01 
7.5000000e-01 3.0250001e+00 3.5000000e+01 
7.5000000e-01 3.0250001e+00 3.5500000e+01 
7.5000000e-01 3.0250001e+00 3.6000000e+01 
7.5000000e-01 3.0250001e+00 3.6500000e+01 
7.5000000e-01 3.0250001e+00 3.7000000e+01 
7.5000000e-01 3.0250001e+00 3.7500000e+01 
7.5000000e-01 3.0250001e+00 3.8000000e+01 
7.5000000e-01 3.0250001e+00 3.8500000e+01 
7.5000000e-01 3.0250001e+00 3.9000000e+01 
7.5000000e-01 3.0250001e+00 3.9500000e+01 
7.5000000e-01 3.0250001e+00 4.0000000e+01 
7.5000000e-01 3.0250001e+00 4.0500000e+01 
7.5000000e-01 3.0250001e+00 4.1000000e+01 
7.5000000e-01 3.0250001e+00 4.1500000e+01 
7.5000000e-01 3.0250001e+00 4.2000000e+01 
7.5000000e-01 3.0250001e+00 4.2500000e+01 
7.5000000e-01 3.0250001e+00 4.3000000e+01 
7.5000000e-01 3.0250001e+00 4.3500000e+01 
7.5000000e-01 3.0250001e+00 4.4000000e+01 
7.5000000e-01 3.0250001e+00 4.4500000e+01 
7.5000000e-01 3.0250001e+00 4.5000000e+01 
7.5000000e-01 3.0250001e+00 4.5500000e+01 
7.5000000e-01 3.0250001e+00 4.6000000e+01 
7.5000000e-01 3.0250001e+00 4.6500000e+01 
7.5000000e-01 3.0250001e+00 4.7000000e+01 
7.5000000e-01 3.0250001e+00 4.7500000e+01 
7.5000000e-01 3.0250001e+00 4.8000000e+01 
7.5000000e-01 3.0250001e+00 4.8500000e+01 
7.5000000e-01 3.0250001e+00 4.9000000e+01 
7.5000000e-01 3.0250001e+00 4.9500000e+01 
7.5000000e-01 3.0250001e+00 5.0000000e+01 
1.5000000e+00 3.0000000e+00 2.5000000e+01 
3.0000000e+00 2.0000000e+00 2.5000000e+01 
4.0000000e+00 2.0000000e+00 2.5000000e+01 
5.0000000e+00 2.0000000e+00 2.5000000e+01 
0.0000000e+00 3.0000000e+00 2.5000000e+01 
0.0000000e+00 0.0000000e+00 1.0000000e+00 
0.0000000e+00 0.0000000e+00 2.0000000e+00 
0.0000000e+00 0.0000000e+00 3.0000000e+00 
0.0000000e+00 0.0000000e+00 4.0000000e+00 
0.0000000e+00 0.0000000e+00 5.0000000e+00 
[...]
POINT_DATA 1919
FIELD FieldData 3
DISPLACEMENT 3 1919  float
0.0000000e+00 0.0000000e+00 0.0000000e+00 
0.0000000e+00 0.0000000e+00 0.0000000e+00 
0.0000000e+00 0.0000000e+00 0.0000000e+00 
0.0000000e+00 0.0000000e+00 0.0000000e+00 
1.0381937e-05 3.2734615e-06 -2.0577943e-05 
-2.4718332e-09 1.9115870e-08 1.3887317e-09 
0.0000000e+00 -7.0224537e-06 0.0000000e+00 
0.0000000e+00 1.2701201e-08 0.0000000e+00 
-2.6485009e-06 7.6437691e-06 -1.1880756e-05 
-7.0782611e-09 1.6652073e-08 -9.6557375e-09 
-1.6906326e-05 -3.0843330e-05 8.5907350e-06 
9.4890664e-09 7.5579983e-08 2.9324341e-09 
0.0000000e+00 1.3179984e-05 0.0000000e+00 
0.0000000e+00 -1.4135684e-07 0.0000000e+00 
1.1643314e-05 -5.7014833e-05 1.4056408e-04 
1.2654343e-07 -4.5727285e-07 1.1889907e-07 
3.0005678e-05 -1.2617616e-04 9.2963790e-05 
-6.1933297e-10 -9.6786231e-08 -1.1031094e-07 
0.0000000e+00 -1.2622330e-06 0.0000000e+00 
0.0000000e+00 -4.1396154e-07 0.0000000e+00 
-1.2160149e-05 -1.1164804e-04 7.9035701e-05 
-2.0196607e-05 -8.1027691e-05 7.2064046e-05 
-1.9973621e-05 -5.9900452e-05 6.2584448e-05 
-1.2990094e-07 -5.9524522e-05 7.1815033e-05 
1.6364516e-05 -6.6714325e-05 7.3748306e-05 
3.0262541e-05 -5.8487134e-05 6.3576990e-05 
-2.2718777e-05 -1.0104246e-05 7.7144417e-05 
1.3734023e-05 8.1410588e-05 9.6306780e-05 
-3.8080795e-08 1.3812876e-04 1.0835006e-04 
8.4236730e-05 2.2365730e-05 1.4030188e-04 
-2.2025388e-05 -3.8681805e-04 2.6445609e-04 
4.5459423e-05 -1.1346436e-03 2.1603784e-04 
-1.6726213e-04 -2.1945101e-03 3.3215014e-04 
-1.5483904e-04 -3.4087219e-03 1.4666675e-04 
-2.8665311e-04 -4.5364965e-03 2.1709134e-04 
-3.0490829e-04 -5.0504813e-03 3.3795714e-05 
-3.2753096e-04 -4.8166937e-03 -1.0653604e-04 
-2.4923283e-04 -4.5046485e-03 -1.2236927e-04 
-2.2966760e-04 -4.5654965e-03 -1.3606736e-04 
-2.2535077e-04 -4.7324379e-03 -2.5244040e-04 
-2.3853318e-04 -4.3837037e-03 -2.9966020e-04 
-2.4812334e-04 -3.1715198e-03 -2.3061466e-04 
-1.6487956e-04 -1.8509130e-03 -4.0511938e-04 
-9.7131633e-05 -8.4225857e-04 -2.5495599e-04 
-4.6525988e-06 -2.2031146e-04 -2.6918796e-04 
3.4534409e-05 1.2400308e-04 -1.3212550e-04 
3.9413266e-05 2.7835596e-04 -1.6150192e-05 
2.9373654e-05 2.9159398e-04 3.1045001e-05 
-1.0884309e-05 2.1230127e-04 5.2030071e-05 
-1.2862222e-05 1.0314619e-04 4.8427431e-05 
-1.0953226e-05 1.6914635e-05 1.9560604e-05 
-4.6381429e-06 -2.2516151e-05 6.5240652e-06 
3.5661490e-06 -2.2440301e-05 6.2089603e-06 
-3.1976350e-07 -6.8756544e-06 -2.7288645e-05 
-7.4107425e-07 9.7205530e-06 -9.7169413e-06 
-7.7569375e-06 1.9321191e-05 -1.0969532e-05 
-5.5460437e-06 1.8178664e-05 -1.5340753e-05 
5.8635846e-06 1.0065453e-05 8.3299119e-06 
2.2238244e-05 -8.9695022e-06 3.2215165e-05 
7.0253009e-06 -4.8932114e-05 4.8181399e-05 
-3.6934002e-06 -1.0173956e-04 6.4046842e-05 
-2.0881094e-05 -1.3767325e-04 3.7936567e-05 
-2.8277309e-05 -1.2935147e-04 4.6655750e-05 
1.4705199e-05 -6.8777095e-05 5.9230551e-05 
-5.4041980e-06 1.4930277e-05 7.2449475e-05 
4.8170055e-05 7.1013237e-05 8.9597328e-05 
2.1126838e-05 8.1293532e-05 4.4804066e-05 
2.2162259e-05 7.9257523e-05 1.1516359e-04 
5.0827894e-05 6.8366062e-05 9.7799595e-05 
7.1087132e-05 -2.8973927e-05 1.5083712e-04 
-2.6858839e-05 -3.8426073e-04 2.4677857e-04 
1.4334610e-05 -1.1486938e-03 1.4737065e-04 
-1.1983059e-04 -2.3402490e-03 2.8054521e-04 
-1.7511993e-04 -3.6962577e-03 1.1688556e-04 
-3.2119380e-04 -4.7730235e-03 1.8290417e-04 
-3.1489471e-04 -4.9870145e-03 3.3113625e-05 
-3.1515580e-04 -4.6846168e-03 -9.3720198e-05 
-3.1657185e-04 -4.5315581e-03 -1.6441244e-04 
-2.8632043e-04 -4.7659567e-03 -2.3941269e-04 
-3.3828546e-04 -4.8892084e-03 -3.2678770e-04 
-3.0342399e-04 -4.2697233e-03 -4.0157480e-04 
-2.4924602e-04 -2.9605082e-03 -2.4776426e-04 
-1.5455601e-04 -1.6796252e-03 -4.0205062e-04 
-8.1469720e-05 -7.2140346e-04 -2.3986131e-04 
1.8376919e-05 -1.2528279e-04 -2.4052068e-04 
5.2430449e-05 1.8616393e-04 -1.0695314e-04 
3.7853682e-05 2.8893375e-04 -4.0280634e-06 
2.2178268e-05 2.6646579e-04 4.3447501e-05 
-7.8511430e-06 1.9319053e-04 6.3709791e-05 
-9.0758067e-06 1.1023690e-04 4.2488689e-05 
-1.1308149e-06 3.5501453e-05 1.7518059e-05 
2.1231433e-06 -1.6627695e-05 5.5624710e-06 
1.9419510e-06 -3.4992303e-05 3.9563452e-06 
-3.9890851e-06 -2.6740361e-05 -1.0285486e-05 
1.1633134e-06 -1.0929031e-05 -1.1543480e-05 
-1.9485937e-07 -3.9857932e-06 -1.4303938e-06 
-4.5474776e-06 -7.7362902e-06 -1.8081223e-06 
-2.3660912e-06 -1.1483428e-05 1.1316323e-06 
9.0616760e-07 -4.9499008e-06 2.4701677e-07 
-2.2832677e-07 6.9545281e-06 -3.6042229e-07 
4.9590687e-07 1.2973442e-05 3.0485639e-06 
2.2411761e-07 9.0106932e-06 -5.4880974e-07 
-5.1834899e-08 -3.6721895e-07 -2.2113549e-07 
-1.3103241e-08 -6.9832904e-06 4.6029555e-07 
-6.0821651e-07 -7.0473102e-06 -1.6790436e-06 
-2.0939200e-07 -3.0444407e-06 -1.5125181e-07 
3.5251384e-07 1.4720833e-06 6.8648848e-07 
8.8629704e-08 4.0404516e-06 -3.9359131e-07 
1.2215337e-07 3.6561382e-06 6.2915706e-07 
-5.1429829e-08 1.1829696e-06 9.3325319e-08 
-2.1335403e-07 -1.7375907e-06 -6.0196288e-07 
-1.3843214e-08 -3.1004133e-06 1.5630573e-07 
4.4788386e-08 -1.8193737e-06 1.4548842e-08 
-1.1821562e-08 5.5024248e-07 -2.1758254e-07 
-1.4438042e-08 1.7545078e-06 2.5856889e-07 
5.9544167e-08 1.3502597e-06 -3.0305856e-08 
-1.1195149e-07 2.6113909e-07 -6.1507031e-08 
9.9213530e-08 -3.8136213e-07 -3.2371197e-08 
-5.6415640e-08 -2.7900717e-07 8.3597669e-08 
0.0000000e+00 -1.2621922e-04 0.0000000e+00 
0.0000000e+00 -1.1146052e-04 0.0000000e+00 
0.0000000e+00 -8.1020742e-05 0.0000000e+00 
0.0000000e+00 -6.0170350e-05 0.0000000e+00 
0.0000000e+00 -5.9719845e-05 0.0000000e+00 
0.0000000e+00 -6.7213528e-05 0.0000000e+00 
0.0000000e+00 -5.8495767e-05 0.0000000e+00 
0.0000000e+00 -7.6027018e-06 0.0000000e+00 
0.0000000e+00 8.3986095e-05 0.0000000e+00 
0.0000000e+00 1.3881308e-04 0.0000000e+00 
0.0000000e+00 2.0634930e-05 0.0000000e+00 
0.0000000e+00 -3.8995792e-04 0.0000000e+00 
0.0000000e+00 -1.1409610e-03 0.0000000e+00 
0.0000000e+00 -2.1976312e-03 0.0000000e+00 
0.0000000e+00 -3.4241420e-03 0.0000000e+00 
0.0000000e+00 -4.5585781e-03 0.0000000e+00 
0.0000000e+00 -5.0886041e-03 0.0000000e+00 
0.0000000e+00 -4.8395493e-03 0.0000000e+00 
0.0000000e+00 -4.5303847e-03 0.0000000e+00 
0.0000000e+00 -4.5829373e-03 0.0000000e+00 
0.0000000e+00 -4.7589662e-03 0.0000000e+00 
0.0000000e+00 -4.4086725e-03 0.0000000e+00 
0.0000000e+00 -3.1985557e-03 0.0000000e+00 
0.0000000e+00 -1.8618625e-03 0.0000000e+00 
0.0000000e+00 -8.4745145e-04 0.0000000e+00 
0.0000000e+00 -2.1902965e-04 0.0000000e+00 
0.0000000e+00 1.2515220e-04 0.0000000e+00 
0.0000000e+00 2.7830430e-04 0.0000000e+00 
0.0000000e+00 2.9152300e-04 0.0000000e+00 
0.0000000e+00 2.1296859e-04 0.0000000e+00 
0.0000000e+00 1.0403826e-04 0.0000000e+00 
0.0000000e+00 1.7803166e-05 0.0000000e+00 
0.0000000e+00 -2.1897795e-05 0.0000000e+00 
0.0000000e+00 -2.2680197e-05 0.0000000e+00 
0.0000000e+00 -7.0836018e-06 0.0000000e+00 
0.0000000e+00 9.4010529e-06 0.0000000e+00 
0.0000000e+00 1.8864595e-05 0.0000000e+00 
0.0000000e+00 1.8603050e-05 0.0000000e+00 
0.0000000e+00 1.0657022e-05 0.0000000e+00 
0.0000000e+00 -9.4376883e-06 0.0000000e+00 
0.0000000e+00 -4.9949900e-05 0.0000000e+00 
0.0000000e+00 -1.0222643e-04 0.0000000e+00 
0.0000000e+00 -1.3740311e-04 0.0000000e+00 
0.0000000e+00 -1.2772117e-04 0.0000000e+00 
0.0000000e+00 -6.7327390e-05 0.0000000e+00 
0.0000000e+00 1.4032669e-05 0.0000000e+00 
0.0000000e+00 6.8761387e-05 0.0000000e+00 
0.0000000e+00 8.1737417e-05 0.0000000e+00 
0.0000000e+00 8.1672217e-05 0.0000000e+00 
0.0000000e+00 7.2274917e-05 0.0000000e+00 
0.0000000e+00 -2.8088372e-05 0.0000000e+00 
0.0000000e+00 -3.8798703e-04 0.0000000e+00 
0.0000000e+00 -1.1595637e-03 0.0000000e+00 
0.0000000e+00 -2.3480584e-03 0.0000000e+00 
0.0000000e+00 -3.7141026e-03 0.0000000e+00 
0.0000000e+00 -4.7931289e-03 0.0000000e+00 
0.0000000e+00 -5.0228531e-03 0.0000000e+00 
0.0000000e+00 -4.7083609e-03 0.0000000e+00 
0.0000000e+00 -4.5586922e-03 0.0000000e+00 
0.0000000e+00 -4.7820681e-03 0.0000000e+00 
0.0000000e+00 -4.9192491e-03 0.0000000e+00 
0.0000000e+00 -4.2922618e-03 0.0000000e+00 
0.0000000e+00 -2.9837757e-03 0.0000000e+00 
0.0000000e+00 -1.6871998e-03 0.0000000e+00 
0.0000000e+00 -7.2514161e-04 0.0000000e+00 
0.0000000e+00 -1.2525011e-04 0.0000000e+00 
0.0000000e+00 1.8621515e-04 0.0000000e+00 
0.0000000e+00 2.8965328e-04 0.0000000e+00 
0.0000000e+00 2.6779229e-04 0.0000000e+00 
0.0000000e+00 1.9392540e-04 0.0000000e+00 
0.0000000e+00 1.1030415e-04 0.0000000e+00 
0.0000000e+00 3.5720986e-05 0.0000000e+00 
0.0000000e+00 -1.5845430e-05 0.0000000e+00 
0.0000000e+00 -3.4690758e-05 0.0000000e+00 
0.0000000e+00 -2.7072294e-05 0.0000000e+00 
0.0000000e+00 -1.1462810e-05 0.0000000e+00 
0.0000000e+00 -4.2667598e-06 0.0000000e+00 
0.0000000e+00 -7.5924499e-06 0.0000000e+00 
0.0000000e+00 -1.0956157e-05 0.0000000e+00 
0.0000000e+00 -4.8758120e-06 0.0000000e+00 
0.0000000e+00 6.5838931e-06 0.0000000e+00 
0.0000000e+00 1.2736767e-05 0.0000000e+00 
0.0000000e+00 9.0121957e-06 0.0000000e+00 
0.0000000e+00 -1.7656346e-07 0.0000000e+00 
0.0000000e+00 -6.8109425e-06 0.0000000e+00 
0.0000000e+00 -7.0653227e-06 0.0000000e+00 
0.0000000e+00 -3.0847773e-06 0.0000000e+00 
0.0000000e+00 1.4397968e-06 0.0000000e+00 
0.0000000e+00 3.9616275e-06 0.0000000e+00 
0.0000000e+00 3.6192116e-06 0.0000000e+00 
0.0000000e+00 1.1949455e-06 0.0000000e+00 
0.0000000e+00 -1.6756358e-06 0.0000000e+00 
0.0000000e+00 -3.0027934e-06 0.0000000e+00 
0.0000000e+00 -1.8279048e-06 0.0000000e+00 
0.0000000e+00 4.4787956e-07 0.0000000e+00 
0.0000000e+00 1.7138307e-06 0.0000000e+00 
0.0000000e+00 1.3776975e-06 0.0000000e+00 
0.0000000e+00 3.0719733e-07 0.0000000e+00 
0.0000000e+00 -3.5593681e-07 0.0000000e+00 
0.0000000e+00 -2.9467176e-07 0.0000000e+00 
0.0000000e+00 -1.1771906e-07 0.0000000e+00 
-7.1725823e-05 3.9230098e-04 8.2282400e-05 
1.5146976e-06 9.5962670e-05 2.1390588e-05 
4.5355660e-05 1.4531033e-04 -4.3742355e-07 
5.7301953e-05 -6.8108973e-05 -1.0858241e-05 
0.0000000e+00 -6.1683333e-04 0.0000000e+00 
0.0000000e+00 0.0000000e+00 0.0000000e+00 
0.0000000e+00 0.0000000e+00 0.0000000e+00 
0.0000000e+00 0.0000000e+00 0.0000000e+00 
0.0000000e+00 0.0000000e+00 0.0000000e+00 
0.0000000e+00 0.0000000e+00 0.0000000e+00 
0.0000000e+00 0.0000000e+00 0.0000000e+00 
0.0000000e+00 0.0000000e+00 0.0000000e+00 
0.0000000e+00 0.0000000e+00 0.0000000e+00 
0.0000000e+00 0.0000000e+00 0.0000000e+00 
0.0000000e+00 0.0000000e+00 0.0000000e+00 
0.0000000e+00 0.0000000e+00 0.0000000e+00 
0.0000000e+00 0.0000000e+00 0.0000000e+00 
0.0000000e+00 0.0000000e+00 0.0000000e+00 
0.0000000e+00 0.0000000e+00 0.0000000e+00 
0.0000000e+00 0.0000000e+00 0.0000000e+00 
0.0000000e+00 0.0000000e+00 0.0000000e+00 
0.0000000e+00 0.0000000e+00 0.0000000e+00 
0.0000000e+00 0.0000000e+00 0.0000000e+00 
0.0000000e+00 0.0000000e+00 0.0000000e+00 
0.0000000e+00 0.0000000e+00 0.0000000e+00 
0.0000000e+00 0.0000000e+00 0.0000000e+00 
0.0000000e+00 0.0000000e+00 0.0000000e+00 
0.0000000e+00 0.0000000e+00 0.0000000e+00 
0.0000000e+00 0.0000000e+00 0.0000000e+00 
0.0000000e+00 0.0000000e+00 0.0000000e+00 
0.0000000e+00 0.0000000e+00 0.0000000e+00 
0.0000000e+00 0.0000000e+00 0.0000000e+00 
0.0000000e+00 0.0000000e+00 0.0000000e+00 
0.0000000e+00 0.0000000e+00 0.0000000e+00 
0.0000000e+00 0.0000000e+00 0.0000000e+00 
0.0000000e+00 0.0000000e+00 0.0000000e+00 
0.0000000e+00 0.0000000e+00 0.0000000e+00 
0.0000000e+00 0.0000000e+00 0.0000000e+00 
0.0000000e+00 0.0000000e+00 0.0000000e+00 
0.0000000e+00 0.0000000e+00 0.0000000e+00 
0.0000000e+00 0.0000000e+00 0.0000000e+00 
0.0000000e+00 0.0000000e+00 0.0000000e+00 
0.0000000e+00 0.0000000e+00 0.0000000e+00 
0.0000000e+00 0.0000000e+00 0.0000000e+00 
0.0000000e+00 0.0000000e+00 0.0000000e+00 
0.0000000e+00 0.0000000e+00 0.0000000e+00 
0.0000000e+00 0.0000000e+00 0.0000000e+00 
0.0000000e+00 0.0000000e+00 0.0000000e+00 
0.0000000e+00 0.0000000e+00 0.0000000e+00 
0.0000000e+00 0.0000000e+00 0.0000000e+00 
0.0000000e+00 0.0000000e+00 0.0000000e+00 
0.0000000e+00 0.0000000e+00 0.0000000e+00 
0.0000000e+00 0.0000000e+00 0.0000000e+00 
0.0000000e+00 0.0000000e+00 0.0000000e+00 
0.0000000e+00 0.0000000e+00 0.0000000e+00 
0.0000000e+00 0.0000000e+00 0.0000000e+00 
0.0000000e+00 0.0000000e+00 0.0000000e+00 
0.0000000e+00 0.0000000e+00 0.0000000e+00 
0.0000000e+00 0.0000000e+00 0.0000000e+00 
0.0000000e+00 0.0000000e+00 0.0000000e+00 
0.0000000e+00 0.0000000e+00 0.0000000e+00 
0.0000000e+00 0.0000000e+00 0.0000000e+00 
0.0000000e+00 0.0000000e+00 0.0000000e+00 
0.0000000e+00 0.0000000e+00 0.0000000e+00 
0.0000000e+00 0.0000000e+00 0.0000000e+00 
0.0000000e+00 0.0000000e+00 0.0000000e+00 
0.0000000e+00 0.0000000e+00 0.0000000e+00 
0.0000000e+00 0.0000000e+00 0.0000000e+00 
0.0000000e+00 0.0000000e+00 0.0000000e+00 
0.0000000e+00 0.0000000e+00 0.0000000e+00 
0.0000000e+00 0.0000000e+00 0.0000000e+00 
0.0000000e+00 0.0000000e+00 0.0000000e+00 
0.0000000e+00 0.0000000e+00 0.0000000e+00 
0.0000000e+00 0.0000000e+00 0.0000000e+00 
0.0000000e+00 0.0000000e+00 0.0000000e+00 
0.0000000e+00 0.0000000e+00 0.0000000e+00 
0.0000000e+00 0.0000000e+00 0.0000000e+00 
0.0000000e+00 0.0000000e+00 0.0000000e+00 
0.0000000e+00 0.0000000e+00 0.0000000e+00 
0.0000000e+00 0.0000000e+00 0.0000000e+00 
0.0000000e+00 0.0000000e+00 0.0000000e+00 
0.0000000e+00 0.0000000e+00 0.0000000e+00 
0.0000000e+00 0.0000000e+00 0.0000000e+00 
0.0000000e+00 0.0000000e+00 0.0000000e+00 
0.0000000e+00 0.0000000e+00 0.0000000e+00 
0.0000000e+00 0.0000000e+00 0.0000000e+00 
0.0000000e+00 0.0000000e+00 0.0000000e+00 
0.0000000e+00 0.0000000e+00 0.0000000e+00 
0.0000000e+00 0.0000000e+00 0.0000000e+00 
0.0000000e+00 0.0000000e+00 0.0000000e+00 
0.0000000e+00 0.0000000e+00 0.0000000e+00 
0.0000000e+00 0.0000000e+00 0.0000000e+00 
0.0000000e+00 0.0000000e+00 0.0000000e+00 
0.0000000e+00 0.0000000e+00 0.0000000e+00 
0.0000000e+00 0.0000000e+00 0.0000000e+00 
0.0000000e+00 0.0000000e+00 0.0000000e+00 
0.0000000e+00 0.0000000e+00 0.0000000e+00 
0.0000000e+00 0.0000000e+00 0.0000000e+00 
0.0000000e+00 0.0000000e+00 0.0000000e+00 
0.0000000e+00 0.0000000e+00 0.0000000e+00 
0.0000000e+00 0.0000000e+00 0.0000000e+00 
0.0000000e+00 0.0000000e+00 0.0000000e+00 
0.0000000e+00 0.0000000e+00 0.0000000e+00 
0.0000000e+00 0.0000000e+00 0.0000000e+00 
0.0000000e+00 0.0000000e+00 0.0000000e+00 
0.0000000e+00 0.0000000e+00 0.0000000e+00 
0.0000000e+00 0.0000000e+00 0.0000000e+00 
0.0000000e+00 0.0000000e+00 0.0000000e+00 
0.0000000e+00 0.0000000e+00 0.0000000e+00 
0.0000000e+00 0.0000000e+00 0.0000000e+00 
0.0000000e+00 0.0000000e+00 0.0000000e+00 
-2.8935196e-06 -1.2515738e-05 -1.7228002e-05 
-2.0120700e-05 -2.0395251e-05 4.9321347e-06 
-4.4603399e-05 -2.4284895e-05 2.0836376e-05 
-5.6375153e-05 -4.4222128e-05 1.8921639e-05 
-6.2951556e-05 -5.6670011e-05 8.9630494e-06 
-4.9314498e-05 -5.5056247e-05 -7.6524220e-06 
-4.3203789e-05 -6.4407548e-05 -2.9676648e-05 
-3.2959761e-05 -7.2252587e-05 -3.8887832e-05 
-1.4452257e-05 -6.2787811e-05 -3.2819622e-05 
1.2010356e-05 -4.5573801e-05 -1.3551965e-05 
1.5836171e-05 -9.7270586e-06 1.8543140e-05 
1.8041414e-05 -1.6448001e-05 3.6190206e-05 
2.7952228e-05 1.2859916e-05 4.0433413e-05 
1.1708381e-05 1.8477886e-05 3.6337657e-05 
-7.2463678e-08 -1.5235362e-05 1.7457784e-05 
3.2542637e-06 -1.6941216e-05 7.5143294e-06 
1.3895607e-06 -9.4333145e-06 -1.0110086e-05 
6.7087681e-06 1.6984837e-05 -1.9507183e-05 
5.9628096e-06 -3.0939971e-06 -2.2225378e-05 
-2.9020393e-07 -9.3106319e-06 -1.7174261e-05 
-1.0490790e-05 -2.6527284e-06 -1.0521908e-05 
-1.7339553e-05 -2.2344495e-05 5.1235156e-06 
-2.8514160e-05 -2.3641547e-05 1.9959016e-05 
-4.8969723e-05 -2.1872604e-05 2.0644678e-05 
-3.9812126e-05 -3.7040405e-05 3.6775674e-08 
-3.5890014e-05 -3.6516682e-05 -1.6406299e-05 
-4.1662734e-05 -5.7618119e-05 -3.8132865e-05 
-2.2935741e-05 -8.9717039e-05 -4.2587159e-05 
-9.3767949e-06 -7.2418967e-05 -2.7719325e-05 
1.5479518e-05 -2.1956288e-05 -1.4852817e-06 
1.6290536e-05 -1.0446694e-05 2.6821739e-05 
1.6539640e-05 -1.5199021e-05 4.0793751e-05 
2.0917607e-05 1.1545376e-05 3.8988070e-05 
1.5346928e-05 1.3516790e-05 3.2777651e-05 
2.2855284e-06 -1.8843841e-05 1.7376722e-05 
5.7176680e-06 -1.2353563e-05 3.3317451e-06 
1.0478622e-06 8.8235402e-06 -3.1795371e-06 
-3.0908989e-06 5.6405647e-06 -2.3241848e-06 
-5.6724957e-07 -2.1638114e-06 3.1085176e-07 
1.3046372e-06 -1.6207563e-06 5.3944001e-07 
-3.5587755e-07 1.4642233e-06 -2.8622526e-07 
-4.0088239e-07 -6.7119665e-09 -2.0597138e-08 
3.2427877e-07 -7.3108413e-07 1.5449554e-07 
1.4604219e-10 3.5764549e-07 -9.1429676e-08 
-6.4338970e-08 1.1690194e-07 1.0791323e-07 
-9.3596935e-09 -1.3245054e-08 6.3074992e-08 
3.1440006e-08 -4.0682021e-08 9.2243679e-09 
-1.0282760e-08 2.2156232e-08 -2.2728628e-08 
6.0161476e-10 -2.7436691e-08 2.4851359e-09 
0.0000000e+00 3.9440700e-05 0.0000000e+00 
0.0000000e+00 2.1206901e-05 0.0000000e+00 
0.0000000e+00 -1.1740072e-05 0.0000000e+00 
0.0000000e+00 -1.5304826e-05 0.0000000e+00 
0.0000000e+00 -9.5643140e-05 0.0000000e+00 
0.0000000e+00 -2.7471426e-04 0.0000000e+00 
0.0000000e+00 -4.4663055e-04 0.0000000e+00 
0.0000000e+00 -5.7531591e-04 0.0000000e+00 
0.0000000e+00 -5.2813243e-04 0.0000000e+00 
0.0000000e+00 -4.5856179e-04 0.0000000e+00 
0.0000000e+00 -3.3729654e-04 0.0000000e+00 
0.0000000e+00 -1.2795450e-04 0.0000000e+00 
0.0000000e+00 -1.0273901e-05 0.0000000e+00 
0.0000000e+00 1.1837787e-05 0.0000000e+00 
0.0000000e+00 8.5759802e-06 0.0000000e+00 
0.0000000e+00 9.0521462e-06 0.0000000e+00 
0.0000000e+00 -6.1531296e-06 0.0000000e+00 
0.0000000e+00 -4.0298651e-06 0.0000000e+00 
0.0000000e+00 9.4510153e-07 0.0000000e+00 
0.0000000e+00 -1.4921411e-06 0.0000000e+00 
0.0000000e+00 2.9459552e-05 0.0000000e+00 
0.0000000e+00 1.6491636e-05 0.0000000e+00 
0.0000000e+00 -1.4242187e-05 0.0000000e+00 
0.0000000e+00 -1.4001675e-05 0.0000000e+00 
0.0000000e+00 -1.6655974e-04 0.0000000e+00 
0.0000000e+00 -3.6019983e-04 0.0000000e+00 
0.0000000e+00 -5.1764445e-04 0.0000000e+00 
0.0000000e+00 -5.7541381e-04 0.0000000e+00 
0.0000000e+00 -5.2418915e-04 0.0000000e+00 
0.0000000e+00 -4.2251751e-04 0.0000000e+00 
0.0000000e+00 -2.8976024e-04 0.0000000e+00 
0.0000000e+00 -8.7409440e-05 0.0000000e+00 
0.0000000e+00 -4.3147315e-06 0.0000000e+00 
0.0000000e+00 3.2994908e-06 0.0000000e+00 
0.0000000e+00 4.3640243e-06 0.0000000e+00 
0.0000000e+00 1.4224889e-06 0.0000000e+00 
0.0000000e+00 1.1599112e-06 0.0000000e+00 
0.0000000e+00 -2.4292438e-08 0.0000000e+00 
0.0000000e+00 -6.4792226e-07 0.0000000e+00 
0.0000000e+00 -2.5117693e-06 0.0000000e+00 
0.0000000e+00 1.2644374e-07 0.0000000e+00 
0.0000000e+00 2.0273885e-06 0.0000000e+00 
0.0000000e+00 -1.7139013e-07 0.0000000e+00 
0.0000000e+00 -1.3869002e-06 0.0000000e+00 
0.0000000e+00 2.6764968e-07 0.0000000e+00 
0.0000000e+00 3.8134525e-07 0.0000000e+00 
0.0000000e+00 -4.1779629e-07 0.0000000e+00 
0.0000000e+00 2.4409331e-07 0.0000000e+00 
0.0000000e+00 2.2258919e-07 0.0000000e+00 
-4.1379926e-06 -2.0683283e-05 -1.1888483e-05 
-1.1355316e-05 -1.8265735e-05 6.4815194e-06 
-1.0285888e-05 -1.0952340e-05 9.2226956e-06 
-3.1234063e-06 -1.3244080e-05 -7.5085695e-06 
-4.0906043e-09 -2.6273499e-08 -1.0436180e-08 
2.1042311e-08 2.0364885e-08 3.0828847e-08 
-3.3329549e-08 4.2764938e-09 -7.3431745e-09 
5.1393609e-08 -2.7608284e-08 -2.7908170e-08 
-1.2717524e-05 -2.2074895e-05 3.3305180e-06 
6.6006809e-09 -1.9331939e-08 4.8269917e-09 
-1.1400080e-05 -9.6909926e-06 2.0509038e-05 
4.4884570e-07 -2.6251215e-05 3.1668333e-05 
0.0000000e+00 4.2845153e-05 0.0000000e+00 
0.0000000e+00 -1.5170719e-05 0.0000000e+00 
0.0000000e+00 1.1723705e-05 0.0000000e+00 
0.0000000e+00 -2.6536522e-05 0.0000000e+00 
0.0000000e+00 -2.7589255e-04 0.0000000e+00 
0.0000000e+00 -5.9205736e-04 0.0000000e+00 
0.0000000e+00 -9.7456318e-04 0.0000000e+00 
0.0000000e+00 -1.1897167e-03 0.0000000e+00 
0.0000000e+00 -1.0588629e-03 0.0000000e+00 
0.0000000e+00 -9.8898017e-04 0.0000000e+00 
0.0000000e+00 -6.4882252e-04 0.0000000e+00 
0.0000000e+00 -1.7594713e-04 0.0000000e+00 
0.0000000e+00 1.6604814e-05 0.0000000e+00 