# vtk DataFile Version 4.0
vtk output
ASCII
DATASET UNSTRUCTURED_GRID
POINTS 1919 float
0.0000000e+00 0.0000000e+00 0.0000000e+00 
0.0000000e+00 0.0000000e+00 5.0000000e+01 
5.0000000e+00 0.0000000e+00 0.0000000e+00 
5.0000000e+00 0.0000000e+00 5.0000000e+01 
5.0000000e+00 1.0000000e+00 0.0000000e+00 
5.0000000e+00 1.0000000e+00 5.0000000e+01 
0.0000000e+00 1.0000000e+00 0.0000000e+00 
0.0000000e+00 1.0000000e+00 5.0000000e+01 
5.0000000e+00 2.0000000e+00 0.0000000e+00 
5.0000000e+00 2.0000000e+00 5.0000000e+01 
3.0000000e+00 2.0000000e+00 0.0000000e+00 
3.0000000e+00 2.0000000e+00 5.0000000e+01 
0.0000000e+00 2.0000000e+00 0.0000000e+00 
0.0000000e+00 2.0000000e+00 5.0000000e+01 
1.5000000e+00 3.0000000e+00 0.0000000e+00 
1.5000000e+00 3.0000000e+00 5.0000000e+01 
7.5000000e-01 3.0000000e+00 0.0000000e+00 
7.5000000e-01 3.0000000e+00 5.0000000e+01 
0.0000000e+00 3.0000000e+00 0.0000000e+00 
0.0000000e+00 3.0000000e+00 5.0000000e+01 
7.5000000e-01 3.0000000e+00 5.0000000e-01 
7.5000000e-01 3.0000000e+00 1.0000000e+00 
7.5000000e-01 3.0000000e+00 1.5000000e+00 
7.5000000e-01 3.0000000e+00 2.0000000e+00 
7.5000000e-01 3.0000000e+00 2.5000000e+00 
7.5000000e-01 3.0000000e+00 3.0000000e+00 
7.5000000e-01 3.0000000e+00 3.5000000e+00 
7.5000000e-01 3.0000000e+00 4.0000000e+00 
7.5000000e-01 3.0000000e+00 4.5000000e+00 
7.5000000e-01 3.0000000e+00 5.0000000e+00 
7.5000000e-01 3.0000000e+00 5.5000000e+00 
7.5000000e-01 3.0000000e+00 6.0000000e+00 
7.5000000e-01 3.0000000e+00 6.5000000e+00 
7.5000000e-01 3.0000000e+00 7.0000000e+00 
7.5000000e-01 3.0000000e+00 7.5000000e+00 
7.5000000e-01 3.0000000e+00 8.0000000e+00 
7.5000000e-01 3.0000000e+00 8.5000000e+00 
7.5000000e-01 3.0000000e+00 9.0000000e+00 
7.5000000e-01 3.0000000e+00 9.5000000e+00 
7.5000000e-01 3.0000000e+00 1.0000000e+01 
7.5000000e-01 3.0000000e+00 1.0500000e+01 
7.5000000e-01 3.0000000e+00 1.1000000e+01 
7.5000000e-01 3.0000000e+00 1.1500000e+01 
7.5000000e-01 3.0000000e+00 1.2000000e+01 
7.5000000e-01 3.0000000e+00 1.2500000e+01 
7.5000000e-01 3.0000000e+00 1.3000000e+01 
7.5000000e-01 3.0000000e+00 1.3500000e+01 
7.5000000e-01 3.0000000e+00 1.4000000e+01 
7.5000000e-01 3.0000000e+00 1.4500000e+01 
7.5000000e-01 3.0000000e+00 1.5000000e+01 
7.5000000e-01 3.0000000e+00 1.5500000e+01 
7.5000000e-01 3.0000000e+00 1.6000000e+01 
7.5000000e-01 3.0000000e+00 1.6500000e+01 
7.5000000e-01 3.0000000e+00 1.7000000e+01 
7.5000000e-01 3.0000000e+00 1.7500000e+01 
7.5000000e-01 3.0000000e+00 1.8000000e+01 
7.5000000e-01 3.0000000e+00 1.8500000e+01 
7.5000000e-01 3.0000000e+00 1.9000000e+01 
7.5000000e-01 3.0000000e+00 1.9500000e+01 
7.5000000e-01 3.0000000e+00 2.0000000e+01 
7.5000000e-01 3.0000000e+00 2.0500000e+01 
7.5000000e-01 3.0000000e+00 2.1000000e+01 
7.5000000e-01 3.0000000e+00 2.1500000e+01 
7.5000000e-01 3.0000000e+00 2.2000000e+01 
7.5000000e-01 3.0000000e+00 2.2500000e+01 
7.5000000e-01 3.0000000e+00 2.3000000e+01 
7.5000000e-01 3.0000000e+00 2.3500000e+01 
7.5000000e-01 3.0000000e+00 2.4000000e+01 
7.5000000e-01 3.0000000e+00 2.4500000e+01 
7.5000000e-01 3.0000000e+00 2.5000000e+01 
7.5000000e-01 3.0000000e+00 2.5500000e+01 
7.5000000e-01 3.0000000e+00 2.6000000e+01 
7.5000000e-01 3.0000000e+00 2.6500000e+01 
7.5000000e-01 3.0000000e+00 2.7000000e+01 
7.5000000e-01 3.0000000e+00 2.7500000e+01 
7.5000000e-01 3.0000000e+00 2.8000000e+01 
7.5000000e-01 3.0000000e+00 2.8500000e+01 
7.5000000e-01 3.0000000e+00 2.9000000e+01 
7.5000000e-01 3.0000000e+00 2.9500000e+01 
7.5000000e-01 3.0000000e+00 3.0000000e+01 
7.5000000e-01 3.0000000e+00 3.0500000e+01 
7.5000000e-01 3.0000000e+00 3.1000000e+01 
7.5000000e-01 3.0000000e+00 3.1500000e+01 
7.5000000e-01 3.0000000e+00 3.2000000e+01 
7.5000000e-01 3.0000000e+00 3.2500000e+01 
7.5000000e-01 3.0000000e+00 3.3000000e+01 
7.5000000e-01 3.0000000e+00 3.3500000e+01 
7.5000000e-01 3.0000000e+00 3.4000000e+01 
7.5000000e-01 3.0000000e+00 3.4500000e+01 
7.5000000e-01 3.0000000e+00 3.5000000e+01 
7.5000000e-01 3.0000000e+00 3.5500000e+01 
7.5000000e-01 3.0000000e+00 3.6000000e+01 
7.5000000e-01 3.0000000e+00 3.6500000e+01 
7.5000000e-01 3.0000000e+00 3.7000000e+01 
7.5000000e-01 3.0000000e+00 3.7500000e+01 
7.5000000e-01 3.0000000e+00 3.8000000e+01 
7.5000000e-01 3.0000000e+00 3.8500000e+01 
7.5000000e-01 3.0000000e+00 3.9000000e+01 
7.5000000e-01 3.0000000e+00 3.9500000e+01 
7.5000000e-01 3.0000000e+00 4.0000000e+01 
7.5000000e-01 3.0000000e+00 4.0500000e+01 
7.5000000e-01 3.0000000e+00 4.1000000e+01 
7.5000000e-01 3.0000000e+00 4.1500000e+01 
7.5000000e-01 3.0000000e+00 4.2000000e+01 
7.5000000e-01 3.0000000e+00 4.2500000e+01 
7.5000000e-01 3.0000000e+00 4.3000000e+01 
7.5000000e-01 3.0000000e+00 4.3500000e+01 
7.5000000e-01 3.0000000e+00 4.4000000e+01 
7.5000000e-01 3.0000000e+00 4.4500000e+01 
7.5000000e-01 3.0000000e+00 4.5000000e+01 
7.5000000e-01 3.0000000e+00 4.5500000e+01 
7.5000000e-01 3.0000000e+00 4.6000000e+01 
7.5000000e-01 3.0000000e+00 4.6500000e+01 
7.5000000e-01 3.0000000e+00 4.7000000e+01 
7.5000000e-01 3.0000000e+00 4.7500000e+01 
7.5000000e-01 3.0000000e+00 4.8000000e+01 
7.5000000e-01 3.0000000e+00 4.8500000e+01 
7.5000000e-01 3.0000000e+00 4.9000000e+01 
7.5000000e-01 3.0000000e+00 4.9500000e+01 
7.5000000e-01 3.0250001e+00 0.0000000e+00 
7.5000000e-01 3.0250001e+00 5.0000000e-01 
7.5000000e-01 3.0250001e+00 1.0000000e+00 
7.5000000e-01 3.0250001e+00 1.5000000e+00 
7.5000000e-01 3.0250001e+00 2.0000000e+00 
7.5000000e-01 3.0250001e+00 2.5000000e+00 
7.5000000e-01 3.0250001e+00 3.0000000e+00 
7.5000000e-01 3.0250001e+00 3.5000000e+00 
7.5000000e-01 3.0250001e+00 4.0000000e+00 
7.5000000e-01 3.0250001e+00 4.5000000e+00 
7.5000000e-01 3.0250001e+00 5.0000000e+00 
7.5000000e-01 3.0250001e+00 5.5000000e+00 
7.5000000e-01 3.0250001e+00 6.0000000e+00 
7.5000000e-01 3.0250001e+00 6.5000000e+00 
7.5000000e-01 3.0250001e+00 7.0000000e+00 
7.5000000e-01 3.0250001e+00 7.5000000e+00 
7.5000000e-01 3.0250001e+00 8.0000000e+00 
7.5000000e-01 3.0250001e+00 8.5000000e+00 
7.5000000e-01 3.0250001e+00 9.0000000e+00 
7.5000000e-01 3.0250001e+00 9.5000000e+00 
7.5000000e-01 3.0250001e+00 1.0000000e+01 
7.5000000e-01 3.0250001e+00 1.0500000e+01 
7.5000000e-01 3.0250001e+00 1.1000000e+01 
7.5000000e-01 3.0250001e+00 1.1500000e+01 
7.5000000e-01 3.0250001e+00 1.2000000e+01 
7.5000000e-01 3.0250001e+00 1.2500000e+01 
7.5000000e-01 3.0250001e+00 1.3000000e+01 
7.5000000e-01 3.0250001e+00 1.3500000e+01 
7.5000000e-01 3.0250001e+00 1.4000000e+01 
7.5000000e-01 3.0250001e+00 1.4500000e+01 
7.5000000e-01 3.0250001e+00 1.5000000e+01 
7.5000000e-01 3.0250001e+00 1.5500000e+01 
7.5000000e-01 3.0250001e+00 1.6000000e+01 
7.5000000e-01 3.0250001e+00 1.6500000e+01 
7.5000000e-01 3.0250001e+00 1.7000000e+01 
7.5000000e-01 3.0250001e+00 1.7500000e+01 
7.5000000e-01 3.0250001e+00 1.8000000e+01 
7.5000000e-01 3.0250001e+00 1.8500000e+01 
7.5000000e-01 3.0250001e+00 1.9000000e+01 
7.5000000e-01 3.0250001e+00 1.9500000e+01 
7.5000000e-01 3.0250001e+00 2.0000000e+01 
7.5000000e-01 3.0250001e+00 2.0500000e+01 
7.5000000e-01 3.0250001e+00 2.1000000e+01 
7.5000000e-01 3.0250001e+00 2.1500000e+01 
7.5000000e-01 3.0250001e+00 2.2000000e+01 
7.5000000e-01 3.0250001e+00 2.2500000e+01 
7.5000000e-01 3.0250001e+00 2.3000000e+01 
7.5000000e-01 3.0250001e+00 2.3500000e+01 
7.5000000e-01 3.0250001e+00 2.4000000e+01 
7.5000000e-01 3.0250001e+00 2.4500000e+01 
7.5000000e-01 3.0250001e+00 2.5000000e+01 
7.5000000e-01 3.0250001e+00 2.5500000e+01 
7.5000000e-01 3.0250001e+00 2.6000000e+01 
7.5000000e-01 3.0250001e+00 2.6500000e+01 
7.5000000e-01 3.0250001e+00 2.7000000e+01 
7.5000000e-01 3.0250001e+00 2.7500000e+01 
7.5000000e-01 3.0250001e+00 2.8000000e+01 
7.5000000e-01 3.0250001e+00 2.8500000e+01 
7.5000000e-01 3.0250001e+00 2.9000000e+01 
7.5000000e-01 3.0250001e+00 2.9500000e+01 
7.5000000e-01 3.0250001e+00 3.0000000e+01 
7.5000000e-01 3.0250001e+00 3.0500000e+01 
7.5000000e-01 3.0250001e+00 3.1000000e+01 
7.5000000e-01 3.0250001e+00 3.1500000e+01 
7.5000000e-01 3.0250001e+00 3.2000000e+01 
7.5000000e-01 3.0250001e+00 3.2500000e+01 
7.5000000e-01 3.0250001e+00 3.3000000e+01 
7.5000000e-01 3.0250001e+00 3.3500000e+01 
7.5000000e-01 3.0250001e+00 3.4000000e+01 
7.5000000e-01 3.0250001e+00 3.4500000e+01 
7.5000000e-01 3.0250001e+00 3.5000000e+01 
7.5000000e-01 3.0250001e+00 3.5500000e+01 
7.5000000e-01 3.0250001e+00 3.6000000e+01 
7.5000000e-01 3.0250001e+00 3.6500000e+01 
7.5000000e-01 3.0250001e+00 3.7000000e+01 
7.5000000e-01 3.0250001e+00 3.7500000e+01 
7.5000000e-01 3.0250001e+00 3.8000000e+01 
7.5000000e-01 3.0250001e+00 3.8500000e+01 
7.5000000e-01 3.0250001e+00 3.9000000e+01 
7.5000000e-01 3.0250001e+00 3.9500000e+01 
7.5000000e-01 3.0250001e+00 4.0000000e+01 
7.5000000e-01 3.0250001e+00 4.0500000e+01 
7.5000000e-01 3.0250001e+00 4.1000000e+01 
7.5000000e-01 3.0250001e+00 4.1500000e+01 
7.5000000e-01 3.0250001e+00 4.2000000e+01 
7.5000000e-01 3.0250001e+00 4.2500000e+01 
7.5000000e-01 3.0250001e+00 4.3000000e+01 
7.5000000e-01 3.0250001e+00 4.3500000e+01 
7.5000000e-01 3.0250001e+00 4.4000000e+01 
7.5000000e-01 3.0250001e+00 4.4500000e+01 
7.5000000e-01 3.0250001e+00 4.5000000e+01 
7.5000000e-01 3.0250001e+00 4.5500000e+01 
7.5000000e-01 3.0250001e+00 4.6000000e+01 
7.5000000e-01 3.0250001e+00 4.6500000e+01 
7.5000000e-01 3.0250001e+00 4.7000000e+01 
7.5000000e-01 3.0250001e+00 4.7500000e+01 
7.5000000e-01 3.0250001e+00 4.8000000e+01 
7.5000000e-01 3.0250001e+00 4.8500000e+01 
7.5000000e-01 3.0250001e+00 4.9000000e+01 
7.5000000e-01 3.0250001e+00 4.9500000e+01 
7.5000000e-01 3.0250001e+00 5.0000000e+01 
1.5000000e+00 3.0000000e+00 2.5000000e+01 
3.0000000e+00 2.0000000e+00 2.5000000e+01 
4.0000000e+00 2.0000000e+00 2.5000000e+01 
5.0000000e+00 2.0000000e+00 2.5000000e+01 
0.0000000e+00 3.0000000e+00 2.5000000e+01 
0.0000000e+00 0.0000000e+00 1.0000000e+00 
0.0000000e+00 0.0000000e+00 2.0000000e+00 
0.0000000e+00 0.0000000e+00 3.0000000e+00 
0.0000000e+00 0.0000000e+00 4.0000000e+00 
0.0000000e+00 0.0000000e+00 5.0000000e+00 
[...]
POINT_DATA 1919
FIELD FieldData 3
DISPLACEMENT 3 1919  float
0.0000000e+00 0.0000000e+00 0.0000000e+00 
0.0000000e+00 0.0000000e+00 0.0000000e+00 
0.0000000e+00 0.0000000e+00 0.0000000e+00 
0.0000000e+00 0.0000000e+00 0.0000000e+00 
-1.0698845e-05 1.1219308e-06 1.4324664e-05 
-4.3375525e-09 -1.1693346e-07 -3.8812784e-09 
0.0000000e+00 4.4464988e-07 0.0000000e+00 
0.0000000e+00 -1.5282443e-07 0.0000000e+00 
-7.9578685e-06 -7.2648822e-07 1.0608806e-05 
1.3009353e-07 -2.8916270e-07 1.3660890e-07 
8.7208837e-06 4.0689185e-05 2.6460741e-06 
2.8126212e-08 5.1468458e-08 -2.3929871e-07 
0.0000000e+00 -3.0275369e-05 0.0000000e+00 
0.0000000e+00 -6.8524728e-09 0.0000000e+00 
-4.3669479e-06 2.1288655e-05 -5.3553745e-06 
-2.1306700e-07 1.6940726e-06 -7.1048066e-07 
-1.4457798e-05 8.2617138e-05 -2.5289344e-05 
-2.9014162e-08 -2.4751178e-06 1.3333113e-08 
0.0000000e+00 -8.2280043e-05 0.0000000e+00 
0.0000000e+00 1.6758614e-06 0.0000000e+00 
-5.1099482e-06 6.8570254e-05 -1.0010307e-05 
-1.8892631e-05 4.7547132e-05 -3.8972335e-05 
-4.5661767e-05 5.4503955e-05 -8.6708191e-05 
-4.6834291e-05 9.9128847e-05 -1.1455375e-04 
-4.1995285e-05 1.5708589e-04 -1.3320915e-04 
-2.5092471e-05 1.9483471e-04 -1.3829711e-04 
-1.0156065e-05 1.9542669e-04 -1.2167246e-04 
-1.3918367e-05 1.7026495e-04 -1.0764538e-04 
-2.4689605e-05 1.5599297e-04 -1.0705701e-04 
-3.7301361e-05 1.6945454e-04 -4.6281861e-05 
-5.9807357e-05 1.5054291e-04 9.7719858e-06 
-2.0435500e-05 -2.5488636e-05 5.8770307e-05 
-8.3356106e-05 -4.7645150e-04 1.9058671e-04 
-1.0435990e-04 -1.2369753e-03 1.6644230e-04 
-1.8557650e-04 -2.2652731e-03 3.2389685e-04 
-2.7667161e-04 -3.4105673e-03 1.9483561e-04 
-3.5257376e-04 -4.4459137e-03 3.2563796e-04 
-3.2129014e-04 -4.8490288e-03 2.5589392e-04 
-3.4438592e-04 -4.4988552e-03 1.9176950e-04 
-3.3393528e-04 -4.1286633e-03 1.7441090e-04 
-3.3891125e-04 -4.1931989e-03 1.3850709e-04 
-3.8840962e-04 -4.4239387e-03 -8.3495186e-05 
-2.9229341e-04 -4.1706581e-03 -2.4179033e-04 
-2.0851486e-04 -3.0229758e-03 -1.8630117e-04 
-1.2785399e-04 -1.7392481e-03 -3.1291941e-04 
-5.1367202e-05 -7.5622671e-04 -1.4632085e-04 
-4.3739088e-05 -1.7099288e-04 -1.8686231e-04 
-1.8004530e-05 1.1208309e-04 -1.5159375e-04 
2.8015613e-05 2.0354411e-04 -1.5127915e-04 
2.5304753e-05 1.8102876e-04 -1.3103608e-04 
4.8166763e-05 1.0979635e-04 -4.7195153e-05 
3.6096451e-05 4.1047941e-05 2.8521069e-06 
9.0103167e-06 1.4385460e-06 6.2803854e-05 
-6.3085508e-07 -9.3327808e-06 7.2086477e-05 
1.0202270e-05 -9.1610136e-06 7.2585528e-05 
-7.4190698e-06 -1.0487287e-05 4.7581358e-05 
-3.6219644e-06 -1.0324816e-05 2.5017009e-05 
-1.2969467e-07 -6.2325162e-06 8.9048490e-06 
-1.2802807e-05 4.0614791e-06 -6.7531978e-06 
-9.7111524e-06 2.5827407e-05 -1.2722267e-05 
-9.6827525e-06 5.2527248e-05 -1.1807219e-05 
-3.0447993e-05 6.6751789e-05 -3.1035393e-05 
-5.5704153e-05 6.4943299e-05 -8.6941436e-05 
-2.3129358e-05 6.4663043e-05 -1.0281464e-04 
-5.6217945e-05 8.6056287e-05 -1.3893427e-04 
-3.8050137e-05 1.3621399e-04 -1.2719614e-04 
-1.4268214e-05 1.9074378e-04 -1.1652226e-04 
-1.3382744e-06 2.1071470e-04 -9.5159325e-05 
-2.9191428e-06 1.8944107e-04 -9.3079616e-05 
-2.9050341e-05 1.4637868e-04 -4.7353089e-05 
-1.0045546e-06 8.8323141e-05 3.8951064e-05 
-3.9090530e-05 -6.9175694e-05 7.0086797e-05 
-6.7054403e-05 -4.8043253e-04 2.1418069e-04 
-1.1778393e-04 -1.2797930e-03 2.0710603e-04 
-1.8339138e-04 -2.4625526e-03 3.4511209e-04 
-2.8918852e-04 -3.7560898e-03 1.9278849e-04 
-3.5400054e-04 -4.7298945e-03 3.0054656e-04 
-3.9255299e-04 -4.8154173e-03 2.3499613e-04 
-3.8474251e-04 -4.3926267e-03 1.2074715e-04 
-3.5214319e-04 -4.1596214e-03 1.4819269e-04 
-3.3214787e-04 -4.3737954e-03 9.0029891e-05 
-3.7675377e-04 -4.5351814e-03 -9.3696079e-05 
-2.8773045e-04 -3.9861663e-03 -2.7807863e-04 
-2.0505000e-04 -2.7492824e-03 -2.0288622e-04 
-1.2638273e-04 -1.5293428e-03 -3.1818938e-04 
-5.3800017e-05 -6.2908762e-04 -1.5004454e-04 
-2.8793364e-05 -9.7642049e-05 -1.9031201e-04 
-1.0788176e-05 1.4550032e-04 -1.6229185e-04 
4.5993253e-05 1.9488744e-04 -1.4747978e-04 
4.7970774e-05 1.5181303e-04 -1.0202077e-04 
5.3771331e-05 9.6042430e-05 -1.4743313e-06 
3.4826764e-05 5.5723191e-05 4.7475300e-05 
-8.5619022e-06 2.5644562e-05 6.4813532e-05 
-2.0731379e-05 3.0559220e-06 5.3988289e-05 
-2.1631322e-05 -4.3279715e-06 2.4816944e-05 
-9.6511876e-06 2.1108469e-06 8.1213166e-06 
-1.3091491e-06 1.1454844e-05 -1.0418831e-05 
4.3889887e-07 1.0797201e-05 -1.4381738e-05 
4.0604054e-06 -2.6216301e-06 -7.7473896e-06 
3.3013939e-06 -1.5865840e-05 -1.6127052e-07 
1.2403125e-06 -1.6660555e-05 3.5246774e-07 
6.5281995e-07 -6.3089888e-06 1.6249702e-06 
-4.0272008e-07 5.4755096e-06 3.1019717e-06 
-4.3116174e-07 9.9218896e-06 -1.0699498e-07 
-7.7032411e-07 6.0279203e-06 -9.4077592e-07 
-1.4833823e-07 -3.7561080e-07 5.9558733e-08 
2.2118910e-07 -4.1102462e-06 -1.2566122e-06 
2.0995506e-07 -3.7793129e-06 2.6321457e-08 
2.8348796e-07 -7.8095326e-07 9.0460384e-07 
-7.7114521e-08 2.1281605e-06 -2.5724231e-07 
-2.4441519e-08 2.9633786e-06 3.8586501e-07 
4.5395204e-08 1.4434620e-06 2.7329435e-07 
-1.0740398e-07 -1.3378803e-06 -7.0401796e-07 
-2.3794426e-08 -2.9648832e-06 2.7423272e-07 
2.3307734e-07 -1.7146710e-06 -1.8928078e-07 
-2.7490120e-07 1.1355535e-06 7.4405847e-08 
1.4212530e-07 2.8619727e-06 5.9091466e-08 
-1.0549981e-08 1.8600753e-06 1.1592560e-07 
1.0705102e-08 -9.2326036e-07 -2.0546703e-07 
0.0000000e+00 8.2005732e-05 0.0000000e+00 
0.0000000e+00 6.8259520e-05 0.0000000e+00 
0.0000000e+00 4.8177702e-05 0.0000000e+00 
0.0000000e+00 5.5447526e-05 0.0000000e+00 
0.0000000e+00 9.9440200e-05 0.0000000e+00 
0.0000000e+00 1.5688129e-04 0.0000000e+00 
0.0000000e+00 1.9420670e-04 0.0000000e+00 
0.0000000e+00 1.9428691e-04 0.0000000e+00 
0.0000000e+00 1.7039069e-04 0.0000000e+00 
0.0000000e+00 1.5821947e-04 0.0000000e+00 
0.0000000e+00 1.7184881e-04 0.0000000e+00 
0.0000000e+00 1.5145562e-04 0.0000000e+00 
0.0000000e+00 -2.7570959e-05 0.0000000e+00 
0.0000000e+00 -4.8017738e-04 0.0000000e+00 
0.0000000e+00 -1.2427502e-03 0.0000000e+00 
0.0000000e+00 -2.2682953e-03 0.0000000e+00 
0.0000000e+00 -3.4266114e-03 0.0000000e+00 
0.0000000e+00 -4.4678580e-03 0.0000000e+00 
0.0000000e+00 -4.8852237e-03 0.0000000e+00 
0.0000000e+00 -4.5243660e-03 0.0000000e+00 
0.0000000e+00 -4.1545299e-03 0.0000000e+00 
0.0000000e+00 -4.2113867e-03 0.0000000e+00 
0.0000000e+00 -4.4521126e-03 0.0000000e+00 
0.0000000e+00 -4.1936883e-03 0.0000000e+00 
0.0000000e+00 -3.0496307e-03 0.0000000e+00 
0.0000000e+00 -1.7499781e-03 0.0000000e+00 
0.0000000e+00 -7.6170970e-04 0.0000000e+00 
0.0000000e+00 -1.7101420e-04 0.0000000e+00 
0.0000000e+00 1.1315969e-04 0.0000000e+00 
0.0000000e+00 2.0399287e-04 0.0000000e+00 
0.0000000e+00 1.8188926e-04 0.0000000e+00 
0.0000000e+00 1.1077731e-04 0.0000000e+00 
0.0000000e+00 4.1746836e-05 0.0000000e+00 
0.0000000e+00 1.8595664e-06 0.0000000e+00 
0.0000000e+00 -9.4883608e-06 0.0000000e+00 
0.0000000e+00 -9.4979732e-06 0.0000000e+00 
0.0000000e+00 -1.0355740e-05 0.0000000e+00 
0.0000000e+00 -1.0548018e-05 0.0000000e+00 
0.0000000e+00 -6.6528369e-06 0.0000000e+00 
0.0000000e+00 4.5889037e-06 0.0000000e+00 
0.0000000e+00 2.6655161e-05 0.0000000e+00 
0.0000000e+00 5.2353022e-05 0.0000000e+00 
0.0000000e+00 6.5908964e-05 0.0000000e+00 
0.0000000e+00 6.4261716e-05 0.0000000e+00 
0.0000000e+00 6.4593194e-05 0.0000000e+00 
0.0000000e+00 8.7513305e-05 0.0000000e+00 
0.0000000e+00 1.3759598e-04 0.0000000e+00 
0.0000000e+00 1.8971156e-04 0.0000000e+00 
0.0000000e+00 2.0926539e-04 0.0000000e+00 
0.0000000e+00 1.8912842e-04 0.0000000e+00 
0.0000000e+00 1.4920617e-04 0.0000000e+00 
0.0000000e+00 9.1332324e-05 0.0000000e+00 
0.0000000e+00 -6.8468187e-05 0.0000000e+00 
0.0000000e+00 -4.8467453e-04 0.0000000e+00 
0.0000000e+00 -1.2905154e-03 0.0000000e+00 
0.0000000e+00 -2.4699208e-03 0.0000000e+00 
0.0000000e+00 -3.7743305e-03 0.0000000e+00 
0.0000000e+00 -4.7495724e-03 0.0000000e+00 
0.0000000e+00 -4.8512840e-03 0.0000000e+00 
0.0000000e+00 -4.4169100e-03 0.0000000e+00 
0.0000000e+00 -4.1875341e-03 0.0000000e+00 
0.0000000e+00 -4.3908274e-03 0.0000000e+00 
0.0000000e+00 -4.5659160e-03 0.0000000e+00 
0.0000000e+00 -4.0084957e-03 0.0000000e+00 
0.0000000e+00 -2.7716358e-03 0.0000000e+00 
0.0000000e+00 -1.5368611e-03 0.0000000e+00 
0.0000000e+00 -6.3342293e-04 0.0000000e+00 
0.0000000e+00 -9.8171426e-05 0.0000000e+00 
0.0000000e+00 1.4572579e-04 0.0000000e+00 
0.0000000e+00 1.9614726e-04 0.0000000e+00 
0.0000000e+00 1.5372582e-04 0.0000000e+00 
0.0000000e+00 9.6947522e-05 0.0000000e+00 
0.0000000e+00 5.5398283e-05 0.0000000e+00 
0.0000000e+00 2.5351585e-05 0.0000000e+00 
0.0000000e+00 3.6218280e-06 0.0000000e+00 
0.0000000e+00 -4.0415621e-06 0.0000000e+00 
0.0000000e+00 1.9771010e-06 0.0000000e+00 
0.0000000e+00 1.1031159e-05 0.0000000e+00 
0.0000000e+00 1.0368394e-05 0.0000000e+00 
0.0000000e+00 -2.4375820e-06 0.0000000e+00 
0.0000000e+00 -1.5359074e-05 0.0000000e+00 
0.0000000e+00 -1.6495671e-05 0.0000000e+00 
0.0000000e+00 -6.4604169e-06 0.0000000e+00 
0.0000000e+00 5.2085497e-06 0.0000000e+00 
0.0000000e+00 9.7529710e-06 0.0000000e+00 
0.0000000e+00 6.1044766e-06 0.0000000e+00 
0.0000000e+00 -2.4503126e-07 0.0000000e+00 
0.0000000e+00 -4.0349705e-06 0.0000000e+00 
0.0000000e+00 -3.7348202e-06 0.0000000e+00 
0.0000000e+00 -8.1904852e-07 0.0000000e+00 
0.0000000e+00 2.0438467e-06 0.0000000e+00 
0.0000000e+00 2.9180317e-06 0.0000000e+00 
0.0000000e+00 1.4255138e-06 0.0000000e+00 
0.0000000e+00 -1.2916400e-06 0.0000000e+00 
0.0000000e+00 -2.8611330e-06 0.0000000e+00 
0.0000000e+00 -1.6888145e-06 0.0000000e+00 
0.0000000e+00 1.0796226e-06 0.0000000e+00 
0.0000000e+00 2.7816959e-06 0.0000000e+00 
0.0000000e+00 1.8039410e-06 0.0000000e+00 
0.0000000e+00 -8.9227052e-07 0.0000000e+00 
0.0000000e+00 -2.4020203e-06 0.0000000e+00 
-1.5475896e-05 -2.4959114e-05 3.0235531e-06 
7.9796868e-05 -2.6597954e-05 -1.4184459e-05 
1.0624871e-04 -2.7432410e-05 -2.1098225e-05 
6.5589040e-05 1.3455486e-05 -1.8803632e-05 
0.0000000e+00 4.5592219e-04 0.0000000e+00 
0.0000000e+00 0.0000000e+00 0.0000000e+00 
0.0000000e+00 0.0000000e+00 0.0000000e+00 
0.0000000e+00 0.0000000e+00 0.0000000e+00 
0.0000000e+00 0.0000000e+00 0.0000000e+00 
0.0000000e+00 0.0000000e+00 0.0000000e+00 
0.0000000e+00 0.0000000e+00 0.0000000e+00 
0.0000000e+00 0.0000000e+00 0.0000000e+00 
0.0000000e+00 0.0000000e+00 0.0000000e+00 
0.0000000e+00 0.0000000e+00 0.0000000e+00 
0.0000000e+00 0.0000000e+00 0.0000000e+00 
0.0000000e+00 0.0000000e+00 0.0000000e+00 
0.0000000e+00 0.0000000e+00 0.0000000e+00 
0.0000000e+00 0.0000000e+00 0.0000000e+00 
0.0000000e+00 0.0000000e+00 0.0000000e+00 
0.0000000e+00 0.0000000e+00 0.0000000e+00 
0.0000000e+00 0.0000000e+00 0.0000000e+00 
0.0000000e+00 0.0000000e+00 0.0000000e+00 
0.0000000e+00 0.0000000e+00 0.0000000e+00 
0.0000000e+00 0.0000000e+00 0.0000000e+00 
0.0000000e+00 0.0000000e+00 0.0000000e+00 
0.0000000e+00 0.0000000e+00 0.0000000e+00 
0.0000000e+00 0.0000000e+00 0.0000000e+00 
0.0000000e+00 0.0000000e+00 0.0000000e+00 
0.0000000e+00 0.0000000e+00 0.0000000e+00 
0.0000000e+00 0.0000000e+00 0.0000000e+00 
0.0000000e+00 0.0000000e+00 0.0000000e+00 
0.0000000e+00 0.0000000e+00 0.0000000e+00 
0.0000000e+00 0.0000000e+00 0.0000000e+00 
0.0000000e+00 0.0000000e+00 0.0000000e+00 
0.0000000e+00 0.0000000e+00 0.0000000e+00 
0.0000000e+00 0.0000000e+00 0.0000000e+00 
0.0000000e+00 0.0000000e+00 0.0000000e+00 
0.0000000e+00 0.0000000e+00 0.0000000e+00 
0.0000000e+00 0.0000000e+00 0.0000000e+00 
0.0000000e+00 0.0000000e+00 0.0000000e+00 
0.0000000e+00 0.0000000e+00 0.0000000e+00 
0.0000000e+00 0.0000000e+00 0.0000000e+00 
0.0000000e+00 0.0000000e+00 0.0000000e+00 
0.0000000e+00 0.0000000e+00 0.0000000e+00 
0.0000000e+00 0.0000000e+00 0.0000000e+00 
0.0000000e+00 0.0000000e+00 0.0000000e+00 
0.0000000e+00 0.0000000e+00 0.0000000e+00 
0.0000000e+00 0.0000000e+00 0.0000000e+00 
0.0000000e+00 0.0000000e+00 0.0000000e+00 
0.0000000e+00 0.0000000e+00 0.0000000e+00 
0.0000000e+00 0.0000000e+00 0.0000000e+00 
0.0000000e+00 0.0000000e+00 0.0000000e+00 
0.0000000e+00 0.0000000e+00 0.0000000e+00 
0.0000000e+00 0.0000000e+00 0.0000000e+00 
0.0000000e+00 0.0000000e+00 0.0000000e+00 
0.0000000e+00 0.0000000e+00 0.0000000e+00 
0.0000000e+00 0.0000000e+00 0.0000000e+00 
0.0000000e+00 0.0000000e+00 0.0000000e+00 
0.0000000e+00 0.0000000e+00 0.0000000e+00 
0.0000000e+00 0.0000000e+00 0.0000000e+00 
0.0000000e+00 0.0000000e+00 0.0000000e+00 
0.0000000e+00 0.0000000e+00 0.0000000e+00 
0.0000000e+00 0.0000000e+00 0.0000000e+00 
0.0000000e+00 0.0000000e+00 0.0000000e+00 
0.0000000e+00 0.0000000e+00 0.0000000e+00 
0.0000000e+00 0.0000000e+00 0.0000000e+00 
0.0000000e+00 0.0000000e+00 0.0000000e+00 
0.0000000e+00 0.0000000e+00 0.0000000e+00 
0.0000000e+00 0.0000000e+00 0.0000000e+00 
0.0000000e+00 0.0000000e+00 0.0000000e+00 
0.0000000e+00 0.0000000e+00 0.0000000e+00 
0.0000000e+00 0.0000000e+00 0.0000000e+00 
0.0000000e+00 0.0000000e+00 0.0000000e+00 
0.0000000e+00 0.0000000e+00 0.0000000e+00 
0.0000000e+00 0.0000000e+00 0.0000000e+00 
0.0000000e+00 0.0000000e+00 0.0000000e+00 
0.0000000e+00 0.0000000e+00 0.0000000e+00 
0.0000000e+00 0.0000000e+00 0.0000000e+00 
0.0000000e+00 0.0000000e+00 0.0000000e+00 
0.0000000e+00 0.0000000e+00 0.0000000e+00 
0.0000000e+00 0.0000000e+00 0.0000000e+00 
0.0000000e+00 0.0000000e+00 0.0000000e+00 
0.0000000e+00 0.0000000e+00 0.0000000e+00 
0.0000000e+00 0.0000000e+00 0.0000000e+00 
0.0000000e+00 0.0000000e+00 0.0000000e+00 
0.0000000e+00 0.0000000e+00 0.0000000e+00 
0.0000000e+00 0.0000000e+00 0.0000000e+00 
0.0000000e+00 0.0000000e+00 0.0000000e+00 
0.0000000e+00 0.0000000e+00 0.0000000e+00 
0.0000000e+00 0.0000000e+00 0.0000000e+00 
0.0000000e+00 0.0000000e+00 0.0000000e+00 
0.0000000e+00 0.0000000e+00 0.0000000e+00 
0.0000000e+00 0.0000000e+00 0.0000000e+00 
0.0000000e+00 0.0000000e+00 0.0000000e+00 
0.0000000e+00 0.0000000e+00 0.0000000e+00 
0.0000000e+00 0.0000000e+00 0.0000000e+00 
0.0000000e+00 0.0000000e+00 0.0000000e+00 
0.0000000e+00 0.0000000e+00 0.0000000e+00 
0.0000000e+00 0.0000000e+00 0.0000000e+00 
0.0000000e+00 0.0000000e+00 0.0000000e+00 
0.0000000e+00 0.0000000e+00 0.0000000e+00 
0.0000000e+00 0.0000000e+00 0.0000000e+00 
0.0000000e+00 0.0000000e+00 0.0000000e+00 
0.0000000e+00 0.0000000e+00 0.0000000e+00 
0.0000000e+00 0.0000000e+00 0.0000000e+00 
0.0000000e+00 0.0000000e+00 0.0000000e+00 
0.0000000e+00 0.0000000e+00 0.0000000e+00 
0.0000000e+00 0.0000000e+00 0.0000000e+00 
0.0000000e+00 0.0000000e+00 0.0000000e+00 
0.0000000e+00 0.0000000e+00 0.0000000e+00 
0.0000000e+00 0.0000000e+00 0.0000000e+00 
6.6000342e-07 1.2387291e-05 4.4826324e-06 
1.3384412e-05 1.4125640e-05 -1.0644082e-05 
2.0321837e-05 1.7045028e-06 -1.9620877e-05 
2.5775213e-05 4.5526899e-06 -1.8597484e-05 
3.6506259e-05 -1.7182313e-06 -1.4278129e-05 
3.6215490e-05 -1.8407738e-05 -1.3382567e-05 
5.4366647e-05 -1.1095113e-05 -8.5546726e-06 
6.2189858e-05 -6.6405469e-06 4.5467350e-06 
6.3112107e-05 5.4401276e-06 1.3618128e-05 
5.8056379e-05 1.9876392e-05 1.5378873e-05 
4.8069884e-05 4.4122089e-06 7.5871039e-06 
2.6707241e-05 -8.9301375e-06 -4.6944215e-06 
9.2940718e-06 -3.1622849e-06 -2.4929041e-05 
1.8220956e-07 -7.8562914e-07 -2.7243574e-05 
-9.0892900e-06 -1.5378495e-06 -1.3405403e-05 
-7.7726572e-06 3.1218342e-06 -4.5824547e-07 
-5.1794655e-06 7.0309852e-07 1.7873894e-05 
-3.0531994e-06 4.1554999e-06 3.0520889e-05 
-5.3052454e-06 5.2514774e-06 3.0348598e-05 
1.5315898e-06 -7.0834953e-06 1.7271290e-05 
3.0844599e-06 4.4566636e-06 9.6526146e-06 
7.6325196e-06 1.8948460e-05 -7.9399733e-06 
2.0422402e-05 1.0638252e-05 -1.9035060e-05 
3.1736061e-05 -1.1546310e-06 -2.0256024e-05 
4.5111388e-05 -1.1727685e-06 -1.5498315e-05 
5.8381102e-05 -5.2913156e-06 -8.8482830e-06 
5.7739577e-05 -9.1954871e-06 -1.9343461e-06 
6.8983965e-05 -5.7556672e-06 1.1717680e-05 
6.7823748e-05 -1.1726707e-06 1.5425689e-05 
6.0544855e-05 5.9022004e-06 1.5739291e-05 
4.1319367e-05 4.8307006e-06 5.6551312e-06 
1.6803873e-05 -7.5523708e-06 -4.7204144e-06 
6.1351516e-06 4.6743426e-07 -2.1948550e-05 
-2.3910259e-06 9.1239036e-07 -2.3164048e-05 
-1.1013019e-05 -9.3727436e-07 -1.3572690e-05 
-7.3507335e-06 -1.4911235e-06 -3.8190701e-06 
3.0815879e-06 5.6418044e-06 3.0698664e-06 
2.1605413e-06 1.2895373e-06 1.2558759e-05 
-2.6504006e-07 -5.8618007e-06 8.7509034e-06 
1.6228420e-06 -3.0634928e-06 1.3801773e-06 
1.4883360e-06 1.4394925e-06 -3.4213519e-07 
-5.4565595e-07 2.8158374e-06 -5.7944891e-07 
-9.5914379e-07 -5.7167597e-07 -8.5499101e-07 
4.4997148e-07 -1.3773023e-06 4.6295335e-07 
3.6926335e-07 4.6898913e-07 -1.6480863e-07 
-1.6735684e-07 2.4500528e-07 -4.9215299e-07 
-1.8109829e-07 5.8156861e-08 -1.4597411e-07 
9.9779285e-08 -1.6708174e-07 2.8938732e-07 
-1.4194901e-08 2.6389387e-07 -6.5185787e-08 
0.0000000e+00 -1.0335849e-05 0.0000000e+00 
0.0000000e+00 7.3419884e-05 0.0000000e+00 
0.0000000e+00 1.4650187e-04 0.0000000e+00 
0.0000000e+00 2.1066754e-04 0.0000000e+00 
0.0000000e+00 2.5814798e-04 0.0000000e+00 
0.0000000e+00 1.8460708e-04 0.0000000e+00 
0.0000000e+00 4.1890085e-05 0.0000000e+00 
0.0000000e+00 -1.2172591e-04 0.0000000e+00 
0.0000000e+00 -3.5096862e-04 0.0000000e+00 
0.0000000e+00 -4.3178909e-04 0.0000000e+00 
0.0000000e+00 -4.4519725e-04 0.0000000e+00 
0.0000000e+00 -3.3954537e-04 0.0000000e+00 
0.0000000e+00 -1.6068316e-04 0.0000000e+00 
0.0000000e+00 -5.2278676e-05 0.0000000e+00 
0.0000000e+00 2.9194841e-06 0.0000000e+00 
0.0000000e+00 6.4103522e-05 0.0000000e+00 
0.0000000e+00 2.5138710e-05 0.0000000e+00 
0.0000000e+00 -5.1583571e-05 0.0000000e+00 
0.0000000e+00 -3.2264084e-05 0.0000000e+00 
0.0000000e+00 -1.0155557e-05 0.0000000e+00 
0.0000000e+00 7.7373033e-06 0.0000000e+00 
0.0000000e+00 6.9369584e-05 0.0000000e+00 
0.0000000e+00 1.4153696e-04 0.0000000e+00 
0.0000000e+00 1.5662561e-04 0.0000000e+00 
0.0000000e+00 2.6642642e-04 0.0000000e+00 
0.0000000e+00 2.3431241e-04 0.0000000e+00 
0.0000000e+00 1.4037316e-05 0.0000000e+00 
0.0000000e+00 -1.4295061e-04 0.0000000e+00 
0.0000000e+00 -3.0835668e-04 0.0000000e+00 
0.0000000e+00 -4.1245847e-04 0.0000000e+00 
0.0000000e+00 -4.2301317e-04 0.0000000e+00 
0.0000000e+00 -2.8622246e-04 0.0000000e+00 
0.0000000e+00 -1.5748649e-04 0.0000000e+00 
0.0000000e+00 -3.8977236e-05 0.0000000e+00 
0.0000000e+00 4.1311323e-06 0.0000000e+00 
0.0000000e+00 4.6090401e-05 0.0000000e+00 
0.0000000e+00 1.4097140e-05 0.0000000e+00 
0.0000000e+00 -1.6404523e-05 0.0000000e+00 
0.0000000e+00 -9.7217599e-06 0.0000000e+00 
0.0000000e+00 6.9224589e-06 0.0000000e+00 
0.0000000e+00 1.7023190e-06 0.0000000e+00 
0.0000000e+00 -2.8224272e-06 0.0000000e+00 
0.0000000e+00 1.1154519e-06 0.0000000e+00 
0.0000000e+00 -6.3433356e-07 0.0000000e+00 
0.0000000e+00 -5.0472903e-07 0.0000000e+00 
0.0000000e+00 6.8953466e-07 0.0000000e+00 
0.0000000e+00 3.6113298e-07 0.0000000e+00 
0.0000000e+00 -6.6990822e-07 0.0000000e+00 
0.0000000e+00 -1.1477801e-07 0.0000000e+00 
-8.2771157e-06 1.3413955e-05 8.0732852e-06 
2.2508764e-06 1.5870843e-05 8.6302343e-06 
1.1353073e-05 1.6718381e-05 1.8681108e-05 
9.4741390e-06 1.9365557e-06 1.3614135e-05 
-4.7069168e-08 1.9902068e-07 -5.5814066e-08 
2.4701286e-08 -6.5371189e-08 -1.3762696e-07 
4.1098872e-08 -3.2092262e-07 1.3894261e-07 
-1.4741708e-07 1.4528956e-07 8.7215398e-08 
4.9286145e-06 1.8789529e-05 -2.8339857e-06 
-1.5784961e-07 -1.4620413e-08 -3.2286398e-08 
-6.1062406e-06 2.1362535e-05 5.4596826e-06 
1.8630136e-07 1.9495430e-05 4.9392082e-07 
0.0000000e+00 1.6824539e-05 0.0000000e+00 
0.0000000e+00 9.8914228e-05 0.0000000e+00 
0.0000000e+00 2.0793082e-04 0.0000000e+00 
0.0000000e+00 3.6442137e-04 0.0000000e+00 
0.0000000e+00 4.5246247e-04 0.0000000e+00 
0.0000000e+00 2.6861945e-04 0.0000000e+00 
0.0000000e+00 1.3378659e-05 0.0000000e+00 
0.0000000e+00 -4.1376910e-04 0.0000000e+00 
0.0000000e+00 -7.9531153e-04 0.0000000e+00 
0.0000000e+00 -8.8510796e-04 0.0000000e+00 
0.0000000e+00 -9.4328326e-04 0.0000000e+00 
0.0000000e+00 -6.9209753e-04 0.0000000e+00 
0.0000000e+00 -2.2349085e-04 0.0000000e+00 
0.0000000e+00 -7.5559874e-05 0.0000000e+00 