# vtk DataFile Version 4.0
vtk output
ASCII
DATASET UNSTRUCTURED_GRID
POINTS 1919 float
0.0000000e+00 0.0000000e+00 0.0000000e+00 
0.0000000e+00 0.0000000e+00 5.0000000e+01 
5.0000000e+00 0.0000000e+00 0.0000000e+00 
5.0000000e+00 0.0000000e+00 5.0000000e+01 
5.0000000e+00 1.0000000e+00 0.0000000e+00 
5.0000000e+00 1.0000000e+00 5.0000000e+01 
0.0000000e+00 1.0000000e+00 0.0000000e+00 
0.0000000e+00 1.0000000e+00 5.0000000e+01 
5.0000000e+00 2.0000000e+00 0.0000000e+00 
5.0000000e+00 2.0000000e+00 5.0000000e+01 
3.0000000e+00 2.0000000e+00 0.0000000e+00 
3.0000000e+00 2.0000000e+00 5.0000000e+01 
0.0000000e+00 2.0000000e+00 0.0000000e+00 
0.0000000e+00 2.0000000e+00 5.0000000e+01 
1.5000000e+00 3.0000000e+00 0.0000000e+00 
1.5000000e+00 3.0000000e+00 5.0000000e+01 
7.5000000e-01 3.0000000e+00 0.0000000e+00 
7.5000000e-01 3.0000000e+00 5.0000000e+01 
0.0000000e+00 3.0000000e+00 0.0000000e+00 
0.0000000e+00 3.0000000e+00 5.0000000e+01 
7.5000000e-01 3.0000000e+00 5.0000000e-01 
7.5000000e-01 3.0000000e+00 1.0000000e+00 
7.5000000e-01 3.0000000e+00 1.5000000e+00 
7.5000000e-01 3.0000000e+00 2.0000000e+00 
7.5000000e-01 3.0000000e+00 2.5000000e+00 
7.5000000e-01 3.0000000e+00 3.0000000e+00 
7.5000000e-01 3.0000000e+00 3.5000000e+00 
7.5000000e-01 3.0000000e+00 4.0000000e+00 
7.5000000e-01 3.0000000e+00 4.5000000e+00 
7.5000000e-01 3.0000000e+00 5.0000000e+00 
7.5000000e-01 3.0000000e+00 5.5000000e+00 
7.5000000e-01 3.0000000e+00 6.0000000e+00 
7.5000000e-01 3.0000000e+00 6.5000000e+00 
7.5000000e-01 3.0000000e+00 7.0000000e+00 
7.5000000e-01 3.0000000e+00 7.5000000e+00 
7.5000000e-01 3.0000000e+00 8.0000000e+00 
7.5000000e-01 3.0000000e+00 8.5000000e+00 
7.5000000e-01 3.0000000e+00 9.0000000e+00 
7.5000000e-01 3.0000000e+00 9.5000000e+00 
7.5000000e-01 3.0000000e+00 1.0000000e+01 
7.5000000e-01 3.0000000e+00 1.0500000e+01 
7.5000000e-01 3.0000000e+00 1.1000000e+01 
7.5000000e-01 3.0000000e+00 1.1500000e+01 
7.5000000e-01 3.0000000e+00 1.2000000e+01 
7.5000000e-01 3.0000000e+00 1.2500000e+01 
7.5000000e-01 3.0000000e+00 1.3000000e+01 
7.5000000e-01 3.0000000e+00 1.3500000e+01 
7.5000000e-01 3.0000000e+00 1.4000000e+01 
7.5000000e-01 3.0000000e+00 1.4500000e+01 
7.5000000e-01 3.0000000e+00 1.5000000e+01 
7.5000000e-01 3.0000000e+00 1.5500000e+01 
7.5000000e-01 3.0000000e+00 1.6000000e+01 
7.5000000e-01 3.0000000e+00 1.6500000e+01 
7.5000000e-01 3.0000000e+00 1.7000000e+01 
7.5000000e-01 3.0000000e+00 1.7500000e+01 
7.5000000e-01 3.0000000e+00 1.8000000e+01 
7.5000000e-01 3.0000000e+00 1.8500000e+01 
7.5000000e-01 3.0000000e+00 1.9000000e+01 
7.5000000e-01 3.0000000e+00 1.9500000e+01 
7.5000000e-01 3.0000000e+00 2.0000000e+01 
7.5000000e-01 3.0000000e+00 2.0500000e+01 
7.5000000e-01 3.0000000e+00 2.1000000e+01 
7.5000000e-01 3.0000000e+00 2.1500000e+01 
7.5000000e-01 3.0000000e+00 2.2000000e+01 
7.5000000e-01 3.0000000e+00 2.2500000e+01 
7.5000000e-01 3.0000000e+00 2.3000000e+01 
7.5000000e-01 3.0000000e+00 2.3500000e+01 
7.5000000e-01 3.0000000e+00 2.4000000e+01 
7.5000000e-01 3.0000000e+00 2.4500000e+01 
7.5000000e-01 3.0000000e+00 2.5000000e+01 
7.5000000e-01 3.0000000e+00 2.5500000e+01 
7.5000000e-01 3.0000000e+00 2.6000000e+01 
7.5000000e-01 3.0000000e+00 2.6500000e+01 
7.5000000e-01 3.0000000e+00 2.7000000e+01 
7.5000000e-01 3.0000000e+00 2.7500000e+01 
7.5000000e-01 3.0000000e+00 2.8000000e+01 
7.5000000e-01 3.0000000e+00 2.8500000e+01 
7.5000000e-01 3.0000000e+00 2.9000000e+01 
7.5000000e-01 3.0000000e+00 2.9500000e+01 
7.5000000e-01 3.0000000e+00 3.0000000e+01 
7.5000000e-01 3.0000000e+00 3.0500000e+01 
7.5000000e-01 3.0000000e+00 3.1000000e+01 
7.5000000e-01 3.0000000e+00 3.1500000e+01 
7.5000000e-01 3.0000000e+00 3.2000000e+01 
7.5000000e-01 3.0000000e+00 3.2500000e+01 
7.5000000e-01 3.0000000e+00 3.3000000e+01 
7.5000000e-01 3.0000000e+00 3.3500000e+01 
7.5000000e-01 3.0000000e+00 3.4000000e+01 
7.5000000e-01 3.0000000e+00 3.4500000e+01 
7.5000000e-01 3.0000000e+00 3.5000000e+01 
7.5000000e-01 3.0000000e+00 3.5500000e+01 
7.5000000e-01 3.0000000e+00 3.6000000e+01 
7.5000000e-01 3.0000000e+00 3.6500000e+01 
7.5000000e-01 3.0000000e+00 3.7000000e+01 
7.5000000e-01 3.0000000e+00 3.7500000e+01 
7.5000000e-01 3.0000000e+00 3.8000000e+01 
7.5000000e-01 3.0000000e+00 3.8500000e+01 
7.5000000e-01 3.0000000e+00 3.9000000e+01 
7.5000000e-01 3.0000000e+00 3.9500000e+01 
7.5000000e-01 3.0000000e+00 4.0000000e+01 
7.5000000e-01 3.0000000e+00 4.0500000e+01 
7.5000000e-01 3.0000000e+00 4.1000000e+01 
7.5000000e-01 3.0000000e+00 4.1500000e+01 
7.5000000e-01 3.0000000e+00 4.2000000e+01 
7.5000000e-01 3.0000000e+00 4.2500000e+01 
7.5000000e-01 3.0000000e+00 4.3000000e+01 
7.5000000e-01 3.0000000e+00 4.3500000e+01 
7.5000000e-01 3.0000000e+00 4.4000000e+01 
7.5000000e-01 3.0000000e+00 4.4500000e+01 
7.5000000e-01 3.0000000e+00 4.5000000e+01 
7.5000000e-01 3.0000000e+00 4.5500000e+01 
7.5000000e-01 3.0000000e+00 4.6000000e+01 
7.5000000e-01 3.0000000e+00 4.6500000e+01 
7.5000000e-01 3.0000000e+00 4.7000000e+01 
7.5000000e-01 3.0000000e+00 4.7500000e+01 
7.5000000e-01 3.0000000e+00 4.8000000e+01 
7.5000000e-01 3.0000000e+00 4.8500000e+01 
7.5000000e-01 3.0000000e+00 4.9000000e+01 
7.5000000e-01 3.0000000e+00 4.9500000e+01 
7.5000000e-01 3.0250001e+00 0.0000000e+00 
7.5000000e-01 3.0250001e+00 5.0000000e-01 
7.5000000e-01 3.0250001e+00 1.0000000e+00 
7.5000000e-01 3.0250001e+00 1.5000000e+00 
7.5000000e-01 3.0250001e+00 2.0000000e+00 
7.5000000e-01 3.0250001e+00 2.5000000e+00 
7.5000000e-01 3.0250001e+00 3.0000000e+00 
7.5000000e-01 3.0250001e+00 3.5000000e+00 
7.5000000e-01 3.0250001e+00 4.0000000e+00 
7.5000000e-01 3.0250001e+00 4.5000000e+00 
7.5000000e-01 3.0250001e+00 5.0000000e+00 
7.5000000e-01 3.0250001e+00 5.5000000e+00 
7.5000000e-01 3.0250001e+00 6.0000000e+00 
7.5000000e-01 3.0250001e+00 6.5000000e+00 
7.5000000e-01 3.0250001e+00 7.0000000e+00 
7.5000000e-01 3.0250001e+00 7.5000000e+00 
7.5000000e-01 3.0250001e+00 8.0000000e+00 
7.5000000e-01 3.0250001e+00 8.5000000e+00 
7.5000000e-01 3.0250001e+00 9.0000000e+00 
7.5000000e-01 3.0250001e+00 9.5000000e+00 
7.5000000e-01 3.0250001e+00 1.0000000e+01 
7.5000000e-01 3.0250001e+00 1.0500000e+01 
7.5000000e-01 3.0250001e+00 1.1000000e+01 
7.5000000e-01 3.0250001e+00 1.1500000e+01 
7.5000000e-01 3.0250001e+00 1.2000000e+01 
7.5000000e-01 3.0250001e+00 1.2500000e+01 
7.5000000e-01 3.0250001e+00 1.3000000e+01 
7.5000000e-01 3.0250001e+00 1.3500000e+01 
7.5000000e-01 3.0250001e+00 1.4000000e+01 
7.5000000e-01 3.0250001e+00 1.4500000e+01 
7.5000000e-01 3.0250001e+00 1.5000000e+01 
7.5000000e-01 3.0250001e+00 1.5500000e+01 
7.5000000e-01 3.0250001e+00 1.6000000e+01 
7.5000000e-01 3.0250001e+00 1.6500000e+01 
7.5000000e-01 3.0250001e+00 1.7000000e+01 
7.5000000e-01 3.0250001e+00 1.7500000e+01 
7.5000000e-01 3.0250001e+00 1.8000000e+01 
7.5000000e-01 3.0250001e+00 1.8500000e+01 
7.5000000e-01 3.0250001e+00 1.9000000e+01 
7.5000000e-01 3.0250001e+00 1.9500000e+01 
7.5000000e-01 3.0250001e+00 2.0000000e+01 
7.5000000e-01 3.0250001e+00 2.0500000e+01 
7.5000000e-01 3.0250001e+00 2.1000000e+01 
7.5000000e-01 3.0250001e+00 2.1500000e+01 
7.5000000e-01 3.0250001e+00 2.2000000e+01 
7.5000000e-01 3.0250001e+00 2.2500000e+01 
7.5000000e-01 3.0250001e+00 2.3000000e+01 
7.5000000e-01 3.0250001e+00 2.3500000e+01 
7.5000000e-01 3.0250001e+00 2.4000000e+01 
7.5000000e-01 3.0250001e+00 2.4500000e+01 
7.5000000e-01 3.0250001e+00 2.5000000e+01 
7.5000000e-01 3.0250001e+00 2.5500000e+01 
7.5000000e-01 3.0250001e+00 2.6000000e+01 
7.5000000e-01 3.0250001e+00 2.6500000e+01 
7.5000000e-01 3.0250001e+00 2.7000000e+01 
7.5000000e-01 3.0250001e+00 2.7500000e+01 
7.5000000e-01 3.0250001e+00 2.8000000e+01 
7.5000000e-01 3.0250001e+00 2.8500000e+01 
7.5000000e-01 3.0250001e+00 2.9000000e+01 
7.5000000e-01 3.0250001e+00 2.9500000e+01 
7.5000000e-01 3.0250001e+00 3.0000000e+01 
7.5000000e-01 3.0250001e+00 3.0500000e+01 
7.5000000e-01 3.0250001e+00 3.1000000e+01 
7.5000000e-01 3.0250001e+00 3.1500000e+01 
7.5000000e-01 3.0250001e+00 3.2000000e+01 
7.5000000e-01 3.0250001e+00 3.2500000e+01 
7.5000000e-01 3.0250001e+00 3.3000000e+01 
7.5000000e-01 3.0250001e+00 3.3500000e+01 
7.5000000e-01 3.0250001e+00 3.4000000e+01 
7.5000000e-01 3.0250001e+00 3.4500000e+01 
7.5000000e-01 3.0250001e+00 3.5000000e+01 
7.5000000e-01 3.0250001e+00 3.5500000e+01 
7.5000000e-01 3.0250001e+00 3.6000000e+01 
7.5000000e-01 3.0250001e+00 3.6500000e+01 
7.5000000e-01 3.0250001e+00 3.7000000e+01 
7.5000000e-01 3.0250001e+00 3.7500000e+01 
7.5000000e-01 3.0250001e+00 3.8000000e+01 
7.5000000e-01 3.0250001e+00 3.8500000e+01 
7.5000000e-01 3.0250001e+00 3.9000000e+01 
7.5000000e-01 3.0250001e+00 3.9500000e+01 
7.5000000e-01 3.0250001e+00 4.0000000e+01 
7.5000000e-01 3.0250001e+00 4.0500000e+01 
7.5000000e-01 3.0250001e+00 4.1000000e+01 
7.5000000e-01 3.0250001e+00 4.1500000e+01 
7.5000000e-01 3.0250001e+00 4.2000000e+01 
7.5000000e-01 3.0250001e+00 4.2500000e+01 
7.5000000e-01 3.0250001e+00 4.3000000e+01 
7.5000000e-01 3.0250001e+00 4.3500000e+01 
7.5000000e-01 3.0250001e+00 4.4000000e+01 
7.5000000e-01 3.0250001e+00 4.4500000e+01 
7.5000000e-01 3.0250001e+00 4.5000000e+01 
7.5000000e-01 3.0250001e+00 4.5500000e+01 
7.5000000e-01 3.0250001e+00 4.6000000e+01 
7.5000000e-01 3.0250001e+00 4.6500000e+01 
7.5000000e-01 3.0250001e+00 4.7000000e+01 
7.5000000e-01 3.0250001e+00 4.7500000e+01 
7.5000000e-01 3.0250001e+00 4.8000000e+01 
7.5000000e-01 3.0250001e+00 4.8500000e+01 
7.5000000e-01 3.0250001e+00 4.9000000e+01 
7.5000000e-01 3.0250001e+00 4.9500000e+01 
7.5000000e-01 3.0250001e+00 5.0000000e+01 
1.5000000e+00 3.0000000e+00 2.5000000e+01 
3.0000000e+00 2.0000000e+00 2.5000000e+01 
4.0000000e+00 2.0000000e+00 2.5000000e+01 
5.0000000e+00 2.0000000e+00 2.5000000e+01 
0.0000000e+00 3.0000000e+00 2.5000000e+01 
0.0000000e+00 0.0000000e+00 1.0000000e+00 
0.0000000e+00 0.0000000e+00 2.0000000e+00 
0.0000000e+00 0.0000000e+00 3.0000000e+00 
0.0000000e+00 0.0000000e+00 4.0000000e+00 
0.0000000e+00 0.0000000e+00 5.0000000e+00 
[...]
POINT_DATA 1919
FIELD FieldData 3
DISPLACEMENT 3 1919  float
0.0000000e+00 0.0000000e+00 0.0000000e+00 
0.0000000e+00 0.0000000e+00 0.0000000e+00 
0.0000000e+00 0.0000000e+00 0.0000000e+00 
0.0000000e+00 0.0000000e+00 0.0000000e+00 
-3.2870198e-06 4.9740260e-07 1.7702357e-06 
-8.3901256e-07 -2.3605682e-07 -3.8027235e-08 
0.0000000e+00 1.2168104e-05 0.0000000e+00 
0.0000000e+00 -1.9275953e-06 0.0000000e+00 
-2.6627947e-07 -3.8373892e-06 -1.0772793e-06 
-4.3428489e-07 -1.2249865e-06 1.9370934e-06 
-4.2035153e-06 7.4257387e-06 1.2716292e-05 
1.6961625e-08 4.7575267e-07 -7.7889126e-07 
0.0000000e+00 1.1565414e-05 0.0000000e+00 
0.0000000e+00 -2.3995437e-06 0.0000000e+00 
-2.0212550e-05 4.8854813e-06 2.1232858e-05 
-2.9854177e-06 -3.5006703e-06 7.7582445e-06 
-2.3508572e-05 -1.2316284e-05 1.2394806e-06 
-3.1453073e-06 2.0194391e-06 3.5654666e-06 
0.0000000e+00 -1.0304484e-05 0.0000000e+00 
0.0000000e+00 2.8451743e-06 0.0000000e+00 
-2.1376662e-05 -1.0218350e-05 1.8667954e-06 
-1.0756382e-05 -3.5168471e-06 -1.1522400e-07 
-7.7537625e-06 9.0621552e-06 2.2277275e-06 
4.7066501e-06 2.7101374e-05 1.8999284e-06 
1.5197974e-05 4.4384931e-05 -2.0607770e-06 
2.7437896e-05 5.5649205e-05 -1.9135357e-06 
2.4937019e-05 5.9571419e-05 -4.6550822e-06 
3.4989836e-05 5.9327278e-05 2.1646997e-07 
3.3585293e-05 6.1627383e-05 1.1543899e-05 
4.6358884e-05 7.2659364e-05 1.5646157e-05 
4.0005110e-05 8.6898595e-05 1.7272436e-05 
4.7563262e-05 9.0311201e-05 1.3200443e-05 
4.5380861e-05 7.8287900e-05 3.6220465e-06 
5.4116415e-05 6.4234649e-05 1.4664904e-06 
4.2961681e-05 6.9766866e-05 8.5590373e-06 
5.0769326e-05 1.0230962e-04 2.1874519e-05 
4.0386985e-05 1.3992567e-04 3.2309850e-05 
2.3837139e-05 1.5245908e-04 1.8121558e-05 
1.1163446e-05 1.3324618e-04 2.3751054e-06 
9.2319251e-06 9.1441791e-05 2.1103477e-05 
-7.1802242e-06 4.5102421e-05 4.3714812e-05 
-2.3907440e-05 -1.0533637e-05 5.0442221e-05 
-5.7659989e-05 -1.7416771e-04 1.1135384e-04 
-7.3186355e-05 -6.1422406e-04 8.3957202e-05 
-1.2628146e-04 -1.4270225e-03 1.7386119e-04 
-1.7318827e-04 -2.5465391e-03 8.1391918e-05 
-2.2310021e-04 -3.8008154e-03 2.0030365e-04 
-2.7858341e-04 -4.7860532e-03 -1.8145309e-05 
-3.0135462e-04 -5.0371694e-03 -2.3383187e-05 
-2.6818286e-04 -4.6419487e-03 -4.1341955e-05 
-2.3301237e-04 -4.4164755e-03 -9.1129259e-05 
-2.1669704e-04 -4.5957961e-03 -1.4883453e-04 
-2.7456632e-04 -4.8376569e-03 -9.8411780e-05 
-5.0376600e-04 -4.3801605e-03 -2.7967838e-04 
-1.3674085e-04 -3.0692043e-03 -1.6745167e-04 
-5.6379115e-05 -1.7026084e-03 -3.6928701e-05 
-2.1679825e-05 -7.0152926e-04 -1.0298767e-04 
-1.6401500e-05 -1.0047580e-04 -1.4851488e-06 
-1.2881649e-05 1.8607819e-04 1.2327011e-05 
-6.5993045e-06 2.5884178e-04 3.8786719e-05 
-1.1240491e-05 2.1486523e-04 5.2798081e-05 
-1.0733188e-05 1.3812473e-04 5.1934214e-05 
-6.7741921e-06 8.5109823e-05 4.5054356e-05 
-1.1309857e-05 6.6108048e-05 2.4241786e-05 
1.3477733e-06 6.5949695e-05 3.2226535e-06 
2.8687764e-05 7.0482667e-05 -1.4951894e-05 
2.4105382e-05 7.3522417e-05 -4.0638290e-05 
3.3441785e-05 7.2983516e-05 -3.2390311e-05 
4.5169381e-05 6.9530644e-05 -1.4200398e-05 
5.6570487e-05 6.6925233e-05 -5.3905273e-06 
3.7059432e-05 6.9185575e-05 5.1454986e-06 
4.2121708e-05 7.7667610e-05 1.6187063e-06 
4.3619191e-05 8.4200365e-05 -1.1955689e-05 
5.8512280e-05 7.6331424e-05 -1.2234504e-05 
5.0115483e-05 6.2483312e-05 -1.3823568e-05 
5.1216928e-05 7.0365677e-05 -4.5405241e-06 
3.5250450e-05 1.1102159e-04 8.8875377e-06 
2.5188981e-05 1.6133563e-04 1.7041568e-05 
2.9938779e-05 1.8120256e-04 1.3521623e-05 
2.4289518e-05 1.3606883e-04 3.0073370e-05 
-6.8857380e-06 3.7444559e-05 4.7235768e-05 
-2.7648413e-05 -9.2809438e-05 7.2512463e-05 
-5.3813535e-05 -3.0245748e-04 1.4153308e-04 
-9.4253228e-05 -7.2533695e-04 1.0429159e-04 
-1.5530060e-04 -1.5222646e-03 2.1150768e-04 
-2.2507827e-04 -2.7334087e-03 9.3076800e-05 
-2.8806255e-04 -4.1468842e-03 1.7334089e-04 
-3.8608172e-04 -5.1134075e-03 -2.5534295e-05 
-3.8308106e-04 -5.0693271e-03 -8.2453822e-05 
-2.9341556e-04 -4.5260047e-03 -5.6261171e-05 
-2.5059385e-04 -4.3236408e-03 -7.4830590e-05 
-2.3969452e-04 -4.5638834e-03 -1.2922107e-04 
-2.4236336e-04 -4.7384882e-03 -1.1420048e-04 
-2.4875652e-04 -4.0243180e-03 -1.3327456e-04 
-1.7947919e-04 -2.7641526e-03 -2.4917952e-04 
-1.1487731e-04 -1.5208717e-03 -2.5356424e-04 
-3.8028675e-06 -5.7942921e-04 -6.5775057e-05 
2.5381021e-05 -2.7448592e-05 -5.5254560e-07 
1.2257968e-05 1.9634716e-04 5.5569758e-06 
7.8343728e-06 2.1471221e-04 1.9791296e-05 
-2.6575226e-06 1.5583223e-04 2.5848809e-05 
-1.1627273e-05 9.4953488e-05 2.3247654e-05 
-1.4532997e-05 5.5375498e-05 1.9898056e-05 
-1.6027545e-05 2.8475106e-05 7.0817346e-06 
-2.0586773e-05 7.5568323e-06 -1.0518601e-05 
-1.3390005e-05 -3.3136271e-06 -2.3880444e-05 
-1.8297599e-06 -1.3588799e-06 -3.6252790e-05 
2.4679616e-06 5.1867987e-06 -3.5265861e-05 
8.6644950e-06 6.3140151e-06 -2.2329517e-05 
6.7773130e-06 2.5831589e-06 -7.3065457e-06 
-2.3105536e-06 -3.2096057e-07 3.2640608e-06 
-2.0142197e-06 -5.7745001e-07 2.0447992e-06 
2.0582412e-07 -1.3875803e-06 -5.9142867e-06 
1.8356493e-06 -4.2840302e-06 -9.7339234e-06 
6.6452799e-06 -6.6046819e-06 -5.8379956e-06 
6.6233270e-06 -5.5879536e-06 -1.7092460e-06 
2.9700095e-08 -2.0429884e-06 4.8377533e-06 
2.3927532e-07 1.0391769e-06 7.0684628e-06 
-8.6192989e-07 2.0446389e-06 4.2783454e-06 
0.0000000e+00 -1.2315678e-05 0.0000000e+00 
0.0000000e+00 -1.0269188e-05 0.0000000e+00 
0.0000000e+00 -3.5009164e-06 0.0000000e+00 
0.0000000e+00 9.2608861e-06 0.0000000e+00 
0.0000000e+00 2.7084783e-05 0.0000000e+00 
0.0000000e+00 4.4323522e-05 0.0000000e+00 
0.0000000e+00 5.5550496e-05 0.0000000e+00 
0.0000000e+00 5.9424128e-05 0.0000000e+00 
0.0000000e+00 5.9296413e-05 0.0000000e+00 
0.0000000e+00 6.2048304e-05 0.0000000e+00 
0.0000000e+00 7.3060350e-05 0.0000000e+00 
0.0000000e+00 8.6834509e-05 0.0000000e+00 
0.0000000e+00 8.9878529e-05 0.0000000e+00 
0.0000000e+00 7.7774595e-05 0.0000000e+00 
0.0000000e+00 6.4378553e-05 0.0000000e+00 
0.0000000e+00 7.0895927e-05 0.0000000e+00 
0.0000000e+00 1.0301991e-04 0.0000000e+00 
0.0000000e+00 1.3952026e-04 0.0000000e+00 
0.0000000e+00 1.5206024e-04 0.0000000e+00 
0.0000000e+00 1.3248163e-04 0.0000000e+00 
0.0000000e+00 9.1572540e-05 0.0000000e+00 
0.0000000e+00 4.8439651e-05 0.0000000e+00 
0.0000000e+00 -7.1069303e-06 0.0000000e+00 
0.0000000e+00 -1.7550873e-04 0.0000000e+00 
0.0000000e+00 -6.1977125e-04 0.0000000e+00 
0.0000000e+00 -1.4321766e-03 0.0000000e+00 
0.0000000e+00 -2.5568060e-03 0.0000000e+00 
0.0000000e+00 -3.8119596e-03 0.0000000e+00 
0.0000000e+00 -4.8136679e-03 0.0000000e+00 
0.0000000e+00 -5.0665736e-03 0.0000000e+00 
0.0000000e+00 -4.6750833e-03 0.0000000e+00 
0.0000000e+00 -4.4366214e-03 0.0000000e+00 
0.0000000e+00 -4.6206205e-03 0.0000000e+00 
0.0000000e+00 -4.8645176e-03 0.0000000e+00 
0.0000000e+00 -4.4012973e-03 0.0000000e+00 
0.0000000e+00 -3.0939833e-03 0.0000000e+00 
0.0000000e+00 -1.7150900e-03 0.0000000e+00 
0.0000000e+00 -7.0477970e-04 0.0000000e+00 
0.0000000e+00 -1.0108653e-04 0.0000000e+00 
0.0000000e+00 1.8623259e-04 0.0000000e+00 
0.0000000e+00 2.5988236e-04 0.0000000e+00 
0.0000000e+00 2.1630606e-04 0.0000000e+00 
0.0000000e+00 1.3976180e-04 0.0000000e+00 
0.0000000e+00 8.5612475e-05 0.0000000e+00 
0.0000000e+00 6.5779845e-05 0.0000000e+00 
0.0000000e+00 6.5874330e-05 0.0000000e+00 
0.0000000e+00 7.0803610e-05 0.0000000e+00 
0.0000000e+00 7.3477713e-05 0.0000000e+00 
0.0000000e+00 7.2594921e-05 0.0000000e+00 
0.0000000e+00 6.9378118e-05 0.0000000e+00 
0.0000000e+00 6.7140289e-05 0.0000000e+00 
0.0000000e+00 6.9798385e-05 0.0000000e+00 
0.0000000e+00 7.8110614e-05 0.0000000e+00 
0.0000000e+00 8.3495412e-05 0.0000000e+00 
0.0000000e+00 7.5431599e-05 0.0000000e+00 
0.0000000e+00 6.2800551e-05 0.0000000e+00 
0.0000000e+00 7.1515082e-05 0.0000000e+00 
0.0000000e+00 1.1216346e-04 0.0000000e+00 
0.0000000e+00 1.6182302e-04 0.0000000e+00 
0.0000000e+00 1.7948706e-04 0.0000000e+00 
0.0000000e+00 1.3521541e-04 0.0000000e+00 
0.0000000e+00 3.9420302e-05 0.0000000e+00 
0.0000000e+00 -8.9895824e-05 0.0000000e+00 
0.0000000e+00 -3.0046012e-04 0.0000000e+00 
0.0000000e+00 -7.2801323e-04 0.0000000e+00 
0.0000000e+00 -1.5310742e-03 0.0000000e+00 
0.0000000e+00 -2.7511786e-03 0.0000000e+00 
0.0000000e+00 -4.1603572e-03 0.0000000e+00 
0.0000000e+00 -5.1413001e-03 0.0000000e+00 
0.0000000e+00 -5.0932555e-03 0.0000000e+00 
0.0000000e+00 -4.5569269e-03 0.0000000e+00 
0.0000000e+00 -4.3458045e-03 0.0000000e+00 
0.0000000e+00 -4.5922864e-03 0.0000000e+00 
0.0000000e+00 -4.7631161e-03 0.0000000e+00 
0.0000000e+00 -4.0542283e-03 0.0000000e+00 
0.0000000e+00 -2.7783816e-03 0.0000000e+00 
0.0000000e+00 -1.5269693e-03 0.0000000e+00 
0.0000000e+00 -5.8493885e-04 0.0000000e+00 
0.0000000e+00 -2.9307988e-05 0.0000000e+00 
0.0000000e+00 1.9688434e-04 0.0000000e+00 
0.0000000e+00 2.1712262e-04 0.0000000e+00 
0.0000000e+00 1.5759317e-04 0.0000000e+00 
0.0000000e+00 9.5697906e-05 0.0000000e+00 
0.0000000e+00 5.5149372e-05 0.0000000e+00 
0.0000000e+00 2.8286235e-05 0.0000000e+00 
0.0000000e+00 7.7598570e-06 0.0000000e+00 
0.0000000e+00 -3.0172773e-06 0.0000000e+00 
0.0000000e+00 -1.4514649e-06 0.0000000e+00 
0.0000000e+00 4.7957092e-06 0.0000000e+00 
0.0000000e+00 6.2450777e-06 0.0000000e+00 
0.0000000e+00 2.7948720e-06 0.0000000e+00 
0.0000000e+00 -1.8037318e-07 0.0000000e+00 
0.0000000e+00 -7.1187975e-07 0.0000000e+00 
0.0000000e+00 -1.5447680e-06 0.0000000e+00 
0.0000000e+00 -4.2358506e-06 0.0000000e+00 
0.0000000e+00 -6.4479646e-06 0.0000000e+00 
0.0000000e+00 -5.5299183e-06 0.0000000e+00 
0.0000000e+00 -2.1270616e-06 0.0000000e+00 
0.0000000e+00 9.2744210e-07 0.0000000e+00 
0.0000000e+00 2.0481948e-06 0.0000000e+00 
0.0000000e+00 2.0898838e-06 0.0000000e+00 
3.2348111e-05 7.4829230e-05 -3.1461444e-05 
-1.2796616e-05 -2.0160229e-05 -5.5449482e-06 
-1.6413045e-05 -1.9556737e-05 3.3302954e-06 
-1.2150720e-05 4.8457600e-06 3.1415482e-06 
0.0000000e+00 -6.8675240e-06 0.0000000e+00 
0.0000000e+00 0.0000000e+00 0.0000000e+00 
0.0000000e+00 0.0000000e+00 0.0000000e+00 
0.0000000e+00 0.0000000e+00 0.0000000e+00 
0.0000000e+00 0.0000000e+00 0.0000000e+00 
0.0000000e+00 0.0000000e+00 0.0000000e+00 
0.0000000e+00 0.0000000e+00 0.0000000e+00 
0.0000000e+00 0.0000000e+00 0.0000000e+00 
0.0000000e+00 0.0000000e+00 0.0000000e+00 
0.0000000e+00 0.0000000e+00 0.0000000e+00 
0.0000000e+00 0.0000000e+00 0.0000000e+00 
0.0000000e+00 0.0000000e+00 0.0000000e+00 
0.0000000e+00 0.0000000e+00 0.0000000e+00 
0.0000000e+00 0.0000000e+00 0.0000000e+00 
0.0000000e+00 0.0000000e+00 0.0000000e+00 
0.0000000e+00 0.0000000e+00 0.0000000e+00 
0.0000000e+00 0.0000000e+00 0.0000000e+00 
0.0000000e+00 0.0000000e+00 0.0000000e+00 
0.0000000e+00 0.0000000e+00 0.0000000e+00 
0.0000000e+00 0.0000000e+00 0.0000000e+00 
0.0000000e+00 0.0000000e+00 0.0000000e+00 
0.0000000e+00 0.0000000e+00 0.0000000e+00 
0.0000000e+00 0.0000000e+00 0.0000000e+00 
0.0000000e+00 0.0000000e+00 0.0000000e+00 
0.0000000e+00 0.0000000e+00 0.0000000e+00 
0.0000000e+00 0.0000000e+00 0.0000000e+00 
0.0000000e+00 0.0000000e+00 0.0000000e+00 
0.0000000e+00 0.0000000e+00 0.0000000e+00 
0.0000000e+00 0.0000000e+00 0.0000000e+00 
0.0000000e+00 0.0000000e+00 0.0000000e+00 
0.0000000e+00 0.0000000e+00 0.0000000e+00 
0.0000000e+00 0.0000000e+00 0.0000000e+00 
0.0000000e+00 0.0000000e+00 0.0000000e+00 
0.0000000e+00 0.0000000e+00 0.0000000e+00 
0.0000000e+00 0.0000000e+00 0.0000000e+00 
0.0000000e+00 0.0000000e+00 0.0000000e+00 
0.0000000e+00 0.0000000e+00 0.0000000e+00 
0.0000000e+00 0.0000000e+00 0.0000000e+00 
0.0000000e+00 0.0000000e+00 0.0000000e+00 
0.0000000e+00 0.0000000e+00 0.0000000e+00 
0.0000000e+00 0.0000000e+00 0.0000000e+00 
0.0000000e+00 0.0000000e+00 0.0000000e+00 
0.0000000e+00 0.0000000e+00 0.0000000e+00 
0.0000000e+00 0.0000000e+00 0.0000000e+00 
0.0000000e+00 0.0000000e+00 0.0000000e+00 
0.0000000e+00 0.0000000e+00 0.0000000e+00 
0.0000000e+00 0.0000000e+00 0.0000000e+00 
0.0000000e+00 0.0000000e+00 0.0000000e+00 
0.0000000e+00 0.0000000e+00 0.0000000e+00 
0.0000000e+00 0.0000000e+00 0.0000000e+00 
0.0000000e+00 0.0000000e+00 0.0000000e+00 
0.0000000e+00 0.0000000e+00 0.0000000e+00 
0.0000000e+00 0.0000000e+00 0.0000000e+00 
0.0000000e+00 0.0000000e+00 0.0000000e+00 
0.0000000e+00 0.0000000e+00 0.0000000e+00 
0.0000000e+00 0.0000000e+00 0.0000000e+00 
0.0000000e+00 0.0000000e+00 0.0000000e+00 
0.0000000e+00 0.0000000e+00 0.0000000e+00 
0.0000000e+00 0.0000000e+00 0.0000000e+00 
0.0000000e+00 0.0000000e+00 0.0000000e+00 
0.0000000e+00 0.0000000e+00 0.0000000e+00 
0.0000000e+00 0.0000000e+00 0.0000000e+00 
0.0000000e+00 0.0000000e+00 0.0000000e+00 
0.0000000e+00 0.0000000e+00 0.0000000e+00 
0.0000000e+00 0.0000000e+00 0.0000000e+00 
0.0000000e+00 0.0000000e+00 0.0000000e+00 
0.0000000e+00 0.0000000e+00 0.0000000e+00 
0.0000000e+00 0.0000000e+00 0.0000000e+00 
0.0000000e+00 0.0000000e+00 0.0000000e+00 
0.0000000e+00 0.0000000e+00 0.0000000e+00 
0.0000000e+00 0.0000000e+00 0.0000000e+00 
0.0000000e+00 0.0000000e+00 0.0000000e+00 
0.0000000e+00 0.0000000e+00 0.0000000e+00 
0.0000000e+00 0.0000000e+00 0.0000000e+00 
0.0000000e+00 0.0000000e+00 0.0000000e+00 
0.0000000e+00 0.0000000e+00 0.0000000e+00 
0.0000000e+00 0.0000000e+00 0.0000000e+00 
0.0000000e+00 0.0000000e+00 0.0000000e+00 
0.0000000e+00 0.0000000e+00 0.0000000e+00 
0.0000000e+00 0.0000000e+00 0.0000000e+00 
0.0000000e+00 0.0000000e+00 0.0000000e+00 
0.0000000e+00 0.0000000e+00 0.0000000e+00 
0.0000000e+00 0.0000000e+00 0.0000000e+00 
0.0000000e+00 0.0000000e+00 0.0000000e+00 
0.0000000e+00 0.0000000e+00 0.0000000e+00 
0.0000000e+00 0.0000000e+00 0.0000000e+00 
0.0000000e+00 0.0000000e+00 0.0000000e+00 
0.0000000e+00 0.0000000e+00 0.0000000e+00 
0.0000000e+00 0.0000000e+00 0.0000000e+00 
0.0000000e+00 0.0000000e+00 0.0000000e+00 
0.0000000e+00 0.0000000e+00 0.0000000e+00 
0.0000000e+00 0.0000000e+00 0.0000000e+00 
0.0000000e+00 0.0000000e+00 0.0000000e+00 
0.0000000e+00 0.0000000e+00 0.0000000e+00 
0.0000000e+00 0.0000000e+00 0.0000000e+00 
0.0000000e+00 0.0000000e+00 0.0000000e+00 
0.0000000e+00 0.0000000e+00 0.0000000e+00 
0.0000000e+00 0.0000000e+00 0.0000000e+00 
0.0000000e+00 0.0000000e+00 0.0000000e+00 
0.0000000e+00 0.0000000e+00 0.0000000e+00 
0.0000000e+00 0.0000000e+00 0.0000000e+00 
0.0000000e+00 0.0000000e+00 0.0000000e+00 
0.0000000e+00 0.0000000e+00 0.0000000e+00 
0.0000000e+00 0.0000000e+00 0.0000000e+00 
0.0000000e+00 0.0000000e+00 0.0000000e+00 
0.0000000e+00 0.0000000e+00 0.0000000e+00 
0.0000000e+00 0.0000000e+00 0.0000000e+00 
-2.7944518e-06 2.6274133e-06 4.1058038e-06 
-1.3223628e-06 3.5588066e-06 3.5640861e-07 
-1.7198968e-06 4.8903839e-06 1.7406632e-06 
-2.4092690e-06 4.3337832e-06 4.1345211e-06 
7.3155104e-07 6.2489303e-06 -7.1161719e-07 
-3.1883133e-06 -5.3966764e-06 7.4483404e-07 
-3.8664693e-06 4.9754130e-06 -9.8067039e-07 
1.3056369e-06 1.6667165e-06 -8.8674469e-06 
5.0648309e-06 -7.4006184e-06 -1.0214194e-05 
1.1427177e-05 1.5472530e-06 -1.8004488e-05 
2.1820762e-05 -5.0274334e-06 -2.3220337e-05 
2.8800079e-05 -8.8024753e-06 -2.5469953e-05 
4.4421518e-05 -1.4443679e-05 -2.3664672e-05 
4.6092453e-05 -1.7914679e-05 -1.3348932e-05 
4.0163879e-05 -1.5751870e-05 -2.3370967e-06 
3.9911331e-05 -9.4976631e-06 8.5302245e-06 
3.0353607e-05 -1.0852767e-05 1.5724298e-05 
1.9720364e-05 -6.7278829e-06 2.4903968e-05 
1.2146408e-05 -1.9553479e-06 2.2449103e-05 
1.0381153e-05 4.6902599e-07 1.8405522e-05 
5.7079019e-06 1.3921474e-06 1.8361960e-05 
1.9141614e-06 1.7321698e-06 1.1797524e-05 
6.2815246e-08 8.6844665e-07 8.6338187e-06 
-3.2994781e-06 1.9366171e-06 6.3253697e-06 
-5.3169988e-06 3.4798711e-06 -1.3000582e-06 
-3.2250675e-06 -5.1228271e-06 -5.7081093e-06 
-1.0123919e-06 1.1164722e-06 -5.4384391e-06 
-1.1742198e-07 6.0623615e-06 -7.4788459e-06 
3.2779994e-06 -1.3002050e-06 -1.0840377e-05 
6.4425508e-06 5.7765897e-07 -1.6134280e-05 
2.3331979e-05 -5.4041703e-07 -2.0441301e-05 
3.5184294e-05 -1.2278232e-05 -2.3457093e-05 
4.3520806e-05 -5.2765781e-06 -1.5506814e-05 
4.5759214e-05 -1.3194860e-05 -8.2430470e-06 
4.6488338e-05 -1.2557591e-05 -1.7536915e-07 
4.0484061e-05 -1.1011032e-05 1.0724767e-05 
2.7903268e-05 -1.0487143e-05 1.9656669e-05 
1.7721728e-05 -7.1392619e-06 2.1555492e-05 
1.3118783e-05 -5.0365870e-06 1.7883103e-05 
8.5566571e-06 -2.9944883e-06 1.4611027e-05 
5.5886567e-06 -1.9786864e-06 1.0418905e-05 
2.0105956e-06 -5.9404979e-08 5.9634049e-06 
-2.2843743e-07 -1.8865556e-07 2.2451563e-06 
-3.1740026e-07 -1.1868790e-06 -3.7081060e-07 
-7.2805712e-08 4.6306235e-07 -1.2089433e-06 
-4.1375475e-08 3.8712605e-07 -1.4734276e-06 
1.2623968e-07 -4.8101026e-07 -1.2543127e-06 
1.0285314e-07 -2.0757392e-08 -1.0349841e-06 
2.3091176e-09 1.3199040e-06 -9.8900500e-07 
0.0000000e+00 1.3680612e-06 0.0000000e+00 
0.0000000e+00 -5.3135618e-06 0.0000000e+00 
0.0000000e+00 -2.4153087e-05 0.0000000e+00 
0.0000000e+00 -2.9943731e-05 0.0000000e+00 
0.0000000e+00 -2.3354933e-05 0.0000000e+00 
0.0000000e+00 -4.8964794e-05 0.0000000e+00 
0.0000000e+00 -4.1601612e-05 0.0000000e+00 
0.0000000e+00 -1.4430622e-05 0.0000000e+00 
0.0000000e+00 -2.6077836e-05 0.0000000e+00 
0.0000000e+00 -1.6533981e-05 0.0000000e+00 
0.0000000e+00 -2.8915605e-05 0.0000000e+00 
0.0000000e+00 -1.5430254e-04 0.0000000e+00 
0.0000000e+00 -2.7897203e-04 0.0000000e+00 
0.0000000e+00 -4.9254607e-04 0.0000000e+00 
0.0000000e+00 -5.2695419e-04 0.0000000e+00 
0.0000000e+00 -4.8671186e-04 0.0000000e+00 
0.0000000e+00 -3.8741369e-04 0.0000000e+00 
0.0000000e+00 -1.9141591e-04 0.0000000e+00 
0.0000000e+00 -4.9699680e-05 0.0000000e+00 
0.0000000e+00 6.9702537e-07 0.0000000e+00 
0.0000000e+00 -6.6145863e-06 0.0000000e+00 
0.0000000e+00 -1.0108412e-05 0.0000000e+00 
0.0000000e+00 -1.9092626e-05 0.0000000e+00 
0.0000000e+00 -4.9123100e-05 0.0000000e+00 
0.0000000e+00 -2.0964817e-05 0.0000000e+00 
0.0000000e+00 -2.9344652e-05 0.0000000e+00 
0.0000000e+00 -5.2610438e-05 0.0000000e+00 
0.0000000e+00 -1.0232103e-05 0.0000000e+00 
0.0000000e+00 -1.5226335e-05 0.0000000e+00 
0.0000000e+00 -7.6648968e-05 0.0000000e+00 
0.0000000e+00 -5.1243638e-05 0.0000000e+00 
0.0000000e+00 -1.9770725e-04 0.0000000e+00 
0.0000000e+00 -3.0402225e-04 0.0000000e+00 
0.0000000e+00 -4.4505246e-04 0.0000000e+00 
0.0000000e+00 -5.3823605e-04 0.0000000e+00 
0.0000000e+00 -5.2004796e-04 0.0000000e+00 
0.0000000e+00 -4.0219858e-04 0.0000000e+00 
0.0000000e+00 -2.1505672e-04 0.0000000e+00 
0.0000000e+00 -3.7599169e-05 0.0000000e+00 
0.0000000e+00 3.8986427e-06 0.0000000e+00 
0.0000000e+00 1.1434910e-05 0.0000000e+00 
0.0000000e+00 8.0714353e-06 0.0000000e+00 
0.0000000e+00 2.4588098e-06 0.0000000e+00 
0.0000000e+00 2.5043298e-07 0.0000000e+00 
0.0000000e+00 1.5489779e-07 0.0000000e+00 
0.0000000e+00 -5.6828901e-07 0.0000000e+00 
0.0000000e+00 6.4652210e-07 0.0000000e+00 
0.0000000e+00 2.3886871e-06 0.0000000e+00 
0.0000000e+00 4.2933408e-08 0.0000000e+00 
-5.1942789e-06 6.0610118e-06 6.7073183e-06 
-5.3079298e-06 3.6056717e-06 5.3274225e-06 
-4.9265777e-06 5.6804829e-06 5.6576769e-06 
-3.0075573e-06 8.9779960e-06 3.8219059e-06 
-2.1138300e-07 7.6460054e-07 -9.2331612e-07 
5.3383178e-07 7.8664613e-07 -1.1737652e-06 
9.2736292e-07 -3.4659701e-07 -4.6678304e-07 
5.3270003e-07 -1.4764375e-06 1.0244813e-08 
-2.8559555e-06 5.5090459e-06 7.4975696e-06 
-1.1615722e-07 3.0473970e-07 -2.5662658e-07 
-4.1647750e-06 1.4036304e-05 6.9290254e-06 
-3.8136984e-06 9.2259079e-06 1.1717040e-05 
0.0000000e+00 1.1823842e-05 0.0000000e+00 
0.0000000e+00 -1.2467260e-05 0.0000000e+00 
0.0000000e+00 -3.3478929e-05 0.0000000e+00 
0.0000000e+00 -3.0424986e-05 0.0000000e+00 
0.0000000e+00 -3.7258025e-05 0.0000000e+00 
0.0000000e+00 -6.4891516e-05 0.0000000e+00 
0.0000000e+00 -4.6813599e-05 0.0000000e+00 
0.0000000e+00 -2.7972867e-05 0.0000000e+00 
0.0000000e+00 -3.7896036e-05 0.0000000e+00 
0.0000000e+00 8.0589716e-06 0.0000000e+00 
0.0000000e+00 -4.7278223e-05 0.0000000e+00 
0.0000000e+00 -3.4986221e-04 0.0000000e+00 
0.0000000e+00 -6.9488282e-04 0.0000000e+00 
0.0000000e+00 -1.0488087e-03 0.0000000e+00 