# vtk DataFile Version 4.0
vtk output
ASCII
DATASET UNSTRUCTURED_GRID
POINTS 1919 float
0.0000000e+00 0.0000000e+00 0.0000000e+00 
0.0000000e+00 0.0000000e+00 5.0000000e+01 
5.0000000e+00 0.0000000e+00 0.0000000e+00 
5.0000000e+00 0.0000000e+00 5.0000000e+01 
5.0000000e+00 1.0000000e+00 0.0000000e+00 
5.0000000e+00 1.0000000e+00 5.0000000e+01 
0.0000000e+00 1.0000000e+00 0.0000000e+00 
0.0000000e+00 1.0000000e+00 5.0000000e+01 
5.0000000e+00 2.0000000e+00 0.0000000e+00 
5.0000000e+00 2.0000000e+00 5.0000000e+01 
3.0000000e+00 2.0000000e+00 0.0000000e+00 
3.0000000e+00 2.0000000e+00 5.0000000e+01 
0.0000000e+00 2.0000000e+00 0.0000000e+00 
0.0000000e+00 2.0000000e+00 5.0000000e+01 
1.5000000e+00 3.0000000e+00 0.0000000e+00 
1.5000000e+00 3.0000000e+00 5.0000000e+01 
7.5000000e-01 3.0000000e+00 0.0000000e+00 
7.5000000e-01 3.0000000e+00 5.0000000e+01 
0.0000000e+00 3.0000000e+00 0.0000000e+00 
0.0000000e+00 3.0000000e+00 5.0000000e+01 
7.5000000e-01 3.0000000e+00 5.0000000e-01 
7.5000000e-01 3.0000000e+00 1.0000000e+00 
7.5000000e-01 3.0000000e+00 1.5000000e+00 
7.5000000e-01 3.0000000e+00 2.0000000e+00 
7.5000000e-01 3.0000000e+00 2.5000000e+00 
7.5000000e-01 3.0000000e+00 3.0000000e+00 
7.5000000e-01 3.0000000e+00 3.5000000e+00 
7.5000000e-01 3.0000000e+00 4.0000000e+00 
7.5000000e-01 3.0000000e+00 4.5000000e+00 
7.5000000e-01 3.0000000e+00 5.0000000e+00 
7.5000000e-01 3.0000000e+00 5.5000000e+00 
7.5000000e-01 3.0000000e+00 6.0000000e+00 
7.5000000e-01 3.0000000e+00 6.5000000e+00 
7.5000000e-01 3.0000000e+00 7.0000000e+00 
7.5000000e-01 3.0000000e+00 7.5000000e+00 
7.5000000e-01 3.0000000e+00 8.0000000e+00 
7.5000000e-01 3.0000000e+00 8.5000000e+00 
7.5000000e-01 3.0000000e+00 9.0000000e+00 
7.5000000e-01 3.0000000e+00 9.5000000e+00 
7.5000000e-01 3.0000000e+00 1.0000000e+01 
7.5000000e-01 3.0000000e+00 1.0500000e+01 
7.5000000e-01 3.0000000e+00 1.1000000e+01 
7.5000000e-01 3.0000000e+00 1.1500000e+01 
7.5000000e-01 3.0000000e+00 1.2000000e+01 
7.5000000e-01 3.0000000e+00 1.2500000e+01 
7.5000000e-01 3.0000000e+00 1.3000000e+01 
7.5000000e-01 3.0000000e+00 1.3500000e+01 
7.5000000e-01 3.0000000e+00 1.4000000e+01 
7.5000000e-01 3.0000000e+00 1.4500000e+01 
7.5000000e-01 3.0000000e+00 1.5000000e+01 
7.5000000e-01 3.0000000e+00 1.5500000e+01 
7.5000000e-01 3.0000000e+00 1.6000000e+01 
7.5000000e-01 3.0000000e+00 1.6500000e+01 
7.5000000e-01 3.0000000e+00 1.7000000e+01 
7.5000000e-01 3.0000000e+00 1.7500000e+01 
7.5000000e-01 3.0000000e+00 1.8000000e+01 
7.5000000e-01 3.0000000e+00 1.8500000e+01 
7.5000000e-01 3.0000000e+00 1.9000000e+01 
7.5000000e-01 3.0000000e+00 1.9500000e+01 
7.5000000e-01 3.0000000e+00 2.0000000e+01 
7.5000000e-01 3.0000000e+00 2.0500000e+01 
7.5000000e-01 3.0000000e+00 2.1000000e+01 
7.5000000e-01 3.0000000e+00 2.1500000e+01 
7.5000000e-01 3.0000000e+00 2.2000000e+01 
7.5000000e-01 3.0000000e+00 2.2500000e+01 
7.5000000e-01 3.0000000e+00 2.3000000e+01 
7.5000000e-01 3.0000000e+00 2.3500000e+01 
7.5000000e-01 3.0000000e+00 2.4000000e+01 
7.5000000e-01 3.0000000e+00 2.4500000e+01 
7.5000000e-01 3.0000000e+00 2.5000000e+01 
7.5000000e-01 3.0000000e+00 2.5500000e+01 
7.5000000e-01 3.0000000e+00 2.6000000e+01 
7.5000000e-01 3.0000000e+00 2.6500000e+01 
7.5000000e-01 3.0000000e+00 2.7000000e+01 
7.5000000e-01 3.0000000e+00 2.7500000e+01 
7.5000000e-01 3.0000000e+00 2.8000000e+01 
7.5000000e-01 3.0000000e+00 2.8500000e+01 
7.5000000e-01 3.0000000e+00 2.9000000e+01 
7.5000000e-01 3.0000000e+00 2.9500000e+01 
7.5000000e-01 3.0000000e+00 3.0000000e+01 
7.5000000e-01 3.0000000e+00 3.0500000e+01 
7.5000000e-01 3.0000000e+00 3.1000000e+01 
7.5000000e-01 3.0000000e+00 3.1500000e+01 
7.5000000e-01 3.0000000e+00 3.2000000e+01 
7.5000000e-01 3.0000000e+00 3.2500000e+01 
7.5000000e-01 3.0000000e+00 3.3000000e+01 
7.5000000e-01 3.0000000e+00 3.3500000e+01 
7.5000000e-01 3.0000000e+00 3.4000000e+01 
7.5000000e-01 3.0000000e+00 3.4500000e+01 
7.5000000e-01 3.0000000e+00 3.5000000e+01 
7.5000000e-01 3.0000000e+00 3.5500000e+01 
7.5000000e-01 3.0000000e+00 3.6000000e+01 
7.5000000e-01 3.0000000e+00 3.6500000e+01 
7.5000000e-01 3.0000000e+00 3.7000000e+01 
7.5000000e-01 3.0000000e+00 3.7500000e+01 
7.5000000e-01 3.0000000e+00 3.8000000e+01 
7.5000000e-01 3.0000000e+00 3.8500000e+01 
7.5000000e-01 3.0000000e+00 3.9000000e+01 
7.5000000e-01 3.0000000e+00 3.9500000e+01 
7.5000000e-01 3.0000000e+00 4.0000000e+01 
7.5000000e-01 3.0000000e+00 4.0500000e+01 
7.5000000e-01 3.0000000e+00 4.1000000e+01 
7.5000000e-01 3.0000000e+00 4.1500000e+01 
7.5000000e-01 3.0000000e+00 4.2000000e+01 
7.5000000e-01 3.0000000e+00 4.2500000e+01 
7.5000000e-01 3.0000000e+00 4.3000000e+01 
7.5000000e-01 3.0000000e+00 4.3500000e+01 
7.5000000e-01 3.0000000e+00 4.4000000e+01 
7.5000000e-01 3.0000000e+00 4.4500000e+01 
7.5000000e-01 3.0000000e+00 4.5000000e+01 
7.5000000e-01 3.0000000e+00 4.5500000e+01 
7.5000000e-01 3.0000000e+00 4.6000000e+01 
7.5000000e-01 3.0000000e+00 4.6500000e+01 
7.5000000e-01 3.0000000e+00 4.7000000e+01 
7.5000000e-01 3.0000000e+00 4.7500000e+01 
7.5000000e-01 3.0000000e+00 4.8000000e+01 
7.5000000e-01 3.0000000e+00 4.8500000e+01 
7.5000000e-01 3.0000000e+00 4.9000000e+01 
7.5000000e-01 3.0000000e+00 4.9500000e+01 
7.5000000e-01 3.0250001e+00 0.0000000e+00 
7.5000000e-01 3.0250001e+00 5.0000000e-01 
7.5000000e-01 3.0250001e+00 1.0000000e+00 
7.5000000e-01 3.0250001e+00 1.5000000e+00 
7.5000000e-01 3.0250001e+00 2.0000000e+00 
7.5000000e-01 3.0250001e+00 2.5000000e+00 
7.5000000e-01 3.0250001e+00 3.0000000e+00 
7.5000000e-01 3.0250001e+00 3.5000000e+00 
7.5000000e-01 3.0250001e+00 4.0000000e+00 
7.5000000e-01 3.0250001e+00 4.5000000e+00 
7.5000000e-01 3.0250001e+00 5.0000000e+00 
7.5000000e-01 3.0250001e+00 5.5000000e+00 
7.5000000e-01 3.0250001e+00 6.0000000e+00 
7.5000000e-01 3.0250001e+00 6.5000000e+00 
7.5000000e-01 3.0250001e+00 7.0000000e+00 
7.5000000e-01 3.0250001e+00 7.5000000e+00 
7.5000000e-01 3.0250001e+00 8.0000000e+00 
7.5000000e-01 3.0250001e+00 8.5000000e+00 
7.5000000e-01 3.0250001e+00 9.0000000e+00 
7.5000000e-01 3.0250001e+00 9.5000000e+00 
7.5000000e-01 3.0250001e+00 1.0000000e+01 
7.5000000e-01 3.0250001e+00 1.0500000e+01 
7.5000000e-01 3.0250001e+00 1.1000000e+01 
7.5000000e-01 3.0250001e+00 1.1500000e+01 
7.5000000e-01 3.0250001e+00 1.2000000e+01 
7.5000000e-01 3.0250001e+00 1.2500000e+01 
7.5000000e-01 3.0250001e+00 1.3000000e+01 
7.5000000e-01 3.0250001e+00 1.3500000e+01 
7.5000000e-01 3.0250001e+00 1.4000000e+01 
7.5000000e-01 3.0250001e+00 1.4500000e+01 
7.5000000e-01 3.0250001e+00 1.5000000e+01 
7.5000000e-01 3.0250001e+00 1.5500000e+01 
7.5000000e-01 3.0250001e+00 1.6000000e+01 
7.5000000e-01 3.0250001e+00 1.6500000e+01 
7.5000000e-01 3.0250001e+00 1.7000000e+01 
7.5000000e-01 3.0250001e+00 1.7500000e+01 
7.5000000e-01 3.0250001e+00 1.8000000e+01 
7.5000000e-01 3.0250001e+00 1.8500000e+01 
7.5000000e-01 3.0250001e+00 1.9000000e+01 
7.5000000e-01 3.0250001e+00 1.9500000e+01 
7.5000000e-01 3.0250001e+00 2.0000000e+01 
7.5000000e-01 3.0250001e+00 2.0500000e+01 
7.5000000e-01 3.0250001e+00 2.1000000e+01 
7.5000000e-01 3.0250001e+00 2.1500000e+01 
7.5000000e-01 3.0250001e+00 2.2000000e+01 
7.5000000e-01 3.0250001e+00 2.2500000e+01 
7.5000000e-01 3.0250001e+00 2.3000000e+01 
7.5000000e-01 3.0250001e+00 2.3500000e+01 
7.5000000e-01 3.0250001e+00 2.4000000e+01 
7.5000000e-01 3.0250001e+00 2.4500000e+01 
7.5000000e-01 3.0250001e+00 2.5000000e+01 
7.5000000e-01 3.0250001e+00 2.5500000e+01 
7.5000000e-01 3.0250001e+00 2.6000000e+01 
7.5000000e-01 3.0250001e+00 2.6500000e+01 
7.5000000e-01 3.0250001e+00 2.7000000e+01 
7.5000000e-01 3.0250001e+00 2.7500000e+01 
7.5000000e-01 3.0250001e+00 2.8000000e+01 
7.5000000e-01 3.0250001e+00 2.8500000e+01 
7.5000000e-01 3.0250001e+00 2.9000000e+01 
7.5000000e-01 3.0250001e+00 2.9500000e+01 
7.5000000e-01 3.0250001e+00 3.0000000e+01 
7.5000000e-01 3.0250001e+00 3.0500000e+01 
7.5000000e-01 3.0250001e+00 3.1000000e+01 
7.5000000e-01 3.0250001e+00 3.1500000e+01 
7.5000000e-01 3.0250001e+00 3.2000000e+01 
7.5000000e-01 3.0250001e+00 3.2500000e+01 
7.5000000e-01 3.0250001e+00 3.3000000e+01 
7.5000000e-01 3.0250001e+00 3.3500000e+01 
7.5000000e-01 3.0250001e+00 3.4000000e+01 
7.5000000e-01 3.0250001e+00 3.4500000e+01 
7.5000000e-01 3.0250001e+00 3.5000000e+01 
7.5000000e-01 3.0250001e+00 3.5500000e+01 
7.5000000e-01 3.0250001e+00 3.6000000e+01 
7.5000000e-01 3.0250001e+00 3.6500000e+01 
7.5000000e-01 3.0250001e+00 3.7000000e+01 
7.5000000e-01 3.0250001e+00 3.7500000e+01 
7.5000000e-01 3.0250001e+00 3.8000000e+01 
7.5000000e-01 3.0250001e+00 3.8500000e+01 
7.5000000e-01 3.0250001e+00 3.9000000e+01 
7.5000000e-01 3.0250001e+00 3.9500000e+01 
7.5000000e-01 3.0250001e+00 4.0000000e+01 
7.5000000e-01 3.0250001e+00 4.0500000e+01 
7.5000000e-01 3.0250001e+00 4.1000000e+01 
7.5000000e-01 3.0250001e+00 4.1500000e+01 
7.5000000e-01 3.0250001e+00 4.2000000e+01 
7.5000000e-01 3.0250001e+00 4.2500000e+01 
7.5000000e-01 3.0250001e+00 4.3000000e+01 
7.5000000e-01 3.0250001e+00 4.3500000e+01 
7.5000000e-01 3.0250001e+00 4.4000000e+01 
7.5000000e-01 3.0250001e+00 4.4500000e+01 
7.5000000e-01 3.0250001e+00 4.5000000e+01 
7.5000000e-01 3.0250001e+00 4.5500000e+01 
7.5000000e-01 3.0250001e+00 4.6000000e+01 
7.5000000e-01 3.0250001e+00 4.6500000e+01 
7.5000000e-01 3.0250001e+00 4.7000000e+01 
7.5000000e-01 3.0250001e+00 4.7500000e+01 
7.5000000e-01 3.0250001e+00 4.8000000e+01 
7.5000000e-01 3.0250001e+00 4.8500000e+01 
7.5000000e-01 3.0250001e+00 4.9000000e+01 
7.5000000e-01 3.0250001e+00 4.9500000e+01 
7.5000000e-01 3.0250001e+00 5.0000000e+01 
1.5000000e+00 3.0000000e+00 2.5000000e+01 
3.0000000e+00 2.0000000e+00 2.5000000e+01 
4.0000000e+00 2.0000000e+00 2.5000000e+01 
5.0000000e+00 2.0000000e+00 2.5000000e+01 
0.0000000e+00 3.0000000e+00 2.5000000e+01 
0.0000000e+00 0.0000000e+00 1.0000000e+00 
0.0000000e+00 0.0000000e+00 2.0000000e+00 
0.0000000e+00 0.0000000e+00 3.0000000e+00 
0.0000000e+00 0.0000000e+00 4.0000000e+00 
0.0000000e+00 0.0000000e+00 5.0000000e+00 
[...]
POINT_DATA 1919
FIELD FieldData 3
DISPLACEMENT 3 1919  float
0.0000000e+00 0.0000000e+00 0.0000000e+00 
0.0000000e+00 0.0000000e+00 0.0000000e+00 
0.0000000e+00 0.0000000e+00 0.0000000e+00 
0.0000000e+00 0.0000000e+00 0.0000000e+00 
-7.2118939e-07 2.9867056e-06 -4.8680049e-06 
2.6041141e-07 -7.9077171e-09 5.1664188e-07 
0.0000000e+00 -4.4981034e-06 0.0000000e+00 
0.0000000e+00 -1.5206415e-07 0.0000000e+00 
3.7386175e-07 9.9385625e-06 -5.9440927e-06 
-1.3180501e-07 6.5925070e-07 -1.3939338e-07 
6.5476511e-06 1.4176530e-05 8.8685192e-06 
1.0045119e-07 -5.6685504e-08 1.4528825e-06 
0.0000000e+00 -1.2918485e-05 0.0000000e+00 
0.0000000e+00 -1.7620559e-07 0.0000000e+00 
-2.2491409e-05 3.8398357e-05 -2.2864031e-05 
5.7718415e-07 -6.1630584e-07 -5.0706171e-07 
-5.9030554e-05 3.8357968e-05 -1.0393996e-05 
8.8326679e-08 1.0352793e-06 1.2429547e-07 
0.0000000e+00 -6.1667721e-05 0.0000000e+00 
0.0000000e+00 -1.3843952e-07 0.0000000e+00 
-3.3478147e-05 5.0845170e-05 -1.2459482e-05 
-1.5760019e-05 7.8338548e-05 -2.1899008e-05 
-1.5816711e-05 1.0311958e-04 -2.7921718e-05 
2.4979436e-05 1.1706825e-04 -3.7722475e-05 
3.9893952e-05 1.2445128e-04 -4.6691821e-05 
5.4958819e-05 1.3346183e-04 -4.8194193e-05 
5.6887300e-05 1.4903938e-04 -3.7132122e-05 
7.2106144e-05 1.6829789e-04 -3.2174808e-05 
6.6037363e-05 1.7874823e-04 -2.0576805e-05 
8.9760237e-05 1.6989063e-04 -1.7857434e-05 
6.2493629e-05 1.5565044e-04 -1.2150746e-05 
8.9783607e-05 1.6619824e-04 -7.1215281e-06 
6.7309898e-05 2.1424585e-04 1.4377315e-05 
9.6788470e-05 2.7277716e-04 3.9416773e-05 
7.9668280e-05 2.8355175e-04 7.6229313e-05 
9.2563132e-05 1.9476202e-04 1.0384652e-04 
3.5575409e-05 -4.0403188e-06 1.5258377e-04 
9.6587764e-06 -3.1920843e-04 1.7806164e-04 
-5.9196063e-05 -8.2000281e-04 2.9508286e-04 
-9.1567592e-05 -1.6136357e-03 2.1040313e-04 
-2.0432015e-04 -2.7912180e-03 3.3139426e-04 
-3.1626777e-04 -4.2036227e-03 1.2298979e-04 
-4.2109864e-04 -5.2442527e-03 1.1058890e-04 
-4.3680522e-04 -5.0614816e-03 5.8698930e-07 
-3.9263672e-04 -4.4979914e-03 -1.4474797e-04 
-3.2092756e-04 -4.2744591e-03 -1.8028555e-04 
-2.7614014e-04 -4.5760260e-03 -2.1309640e-04 
-2.7581968e-04 -4.7164317e-03 -3.1380213e-04 
-1.8355307e-04 -3.8180193e-03 -4.3044536e-04 
-1.2275737e-04 -2.4264494e-03 -2.8871823e-04 
-2.0357534e-06 -1.1915436e-03 -2.9557239e-04 
3.1997886e-05 -3.5352143e-04 -1.2038450e-04 
7.5594762e-05 6.9805465e-05 -6.5026150e-05 
1.2414603e-04 2.0265451e-04 1.2028564e-05 
5.8595946e-05 1.9153448e-04 9.1203838e-05 
2.0889449e-05 1.4227556e-04 1.2307639e-04 
-1.0441159e-05 9.1773523e-05 1.6276521e-04 
-3.8795108e-05 4.6596935e-05 1.4665510e-04 
-6.1085120e-05 1.4704457e-05 1.2351881e-04 
-6.0426588e-05 3.5794392e-06 7.7913704e-05 
-8.3004525e-05 1.6485232e-05 1.0720177e-05 
-5.3394313e-05 4.7720721e-05 -3.2679451e-05 
-3.5435667e-05 8.4603198e-05 -5.7574747e-05 
-1.0900819e-05 1.1207523e-04 -7.6857599e-05 
2.5028145e-05 1.1998740e-04 -7.0724760e-05 
4.0263556e-05 1.0856454e-04 -6.5977576e-05 
3.3510394e-05 9.1030364e-05 -4.9558250e-05 
6.2257190e-05 9.0045127e-05 -2.8994727e-05 
3.3927136e-05 1.0918034e-04 -2.0968533e-05 
8.2409832e-05 1.2841032e-04 -2.1916374e-05 
7.2279683e-05 1.2779242e-04 -1.1875431e-05 
8.9806723e-05 1.1637536e-04 7.8509720e-06 
6.5877597e-05 1.2380908e-04 2.2660559e-05 
6.8096684e-05 1.7449974e-04 5.3878714e-05 
7.4166470e-05 2.3010404e-04 9.7738768e-05 
8.3115432e-05 1.9301064e-04 1.0647137e-04 
2.8662760e-05 -1.5484366e-05 1.6264434e-04 
1.0399259e-05 -4.2974469e-04 1.8291635e-04 
-7.2826428e-05 -1.0667355e-03 2.8829576e-04 
-1.4798093e-04 -1.9387426e-03 2.1297301e-04 
-2.2882287e-04 -3.0881718e-03 3.3813450e-04 
-3.2868327e-04 -4.3720263e-03 8.7168613e-05 
-4.1834687e-04 -5.2604671e-03 3.8312857e-05 
-4.2168045e-04 -5.0246329e-03 -3.1484738e-05 
-3.9484698e-04 -4.5360141e-03 -1.4578612e-04 
-4.0304338e-04 -4.3919412e-03 -1.9660838e-04 
-3.7213296e-04 -4.6744905e-03 -2.3843349e-04 
-3.5207998e-04 -4.6811854e-03 -3.2486607e-04 
-2.4600356e-04 -3.6482792e-03 -5.0775480e-04 
-1.4024632e-04 -2.1925578e-03 -2.9120684e-04 
-7.4161380e-06 -9.9944032e-04 -2.6598334e-04 
1.6459857e-05 -2.5108643e-04 -1.0616330e-04 
4.6624747e-05 1.1192024e-04 -6.3570951e-05 
6.2790750e-05 2.3501401e-04 -2.0073085e-05 
5.8451045e-05 2.3755241e-04 2.6526948e-05 
6.2666477e-05 1.7956788e-04 8.4312349e-05 
1.5132775e-05 9.9214783e-05 1.1675445e-04 
-9.3271950e-07 3.3193006e-05 1.0285763e-04 
-3.0514966e-05 -4.6055891e-07 7.2764677e-05 
-2.8472625e-05 -1.0031335e-05 3.1889616e-05 
-3.2271844e-05 -1.1395431e-05 -7.6268016e-06 
-2.8683044e-05 -1.1254803e-05 -2.4774423e-05 
-8.6423970e-06 -6.1744868e-06 -3.4407858e-05 
-4.4004482e-06 3.8151902e-06 -2.7090093e-05 
5.5631658e-06 1.2135715e-05 -1.5203891e-05 
9.7258817e-06 1.2490338e-05 -9.1037336e-06 
5.1439370e-06 4.8986335e-06 -4.0658174e-06 
5.3835174e-06 -2.8212928e-06 -3.1910149e-06 
3.7895193e-06 -5.0567810e-06 -2.4131617e-07 
1.6177986e-06 -3.3303270e-06 4.9302122e-07 
2.2856739e-06 -2.0553964e-06 1.9240915e-06 
8.8145339e-07 -2.3716923e-06 1.6483319e-06 
-1.0623605e-06 -2.2532340e-06 1.8299934e-06 
-1.1129608e-06 -7.9517127e-07 6.8782754e-07 
-2.0949119e-06 6.9255992e-07 8.8140888e-07 
-8.7399656e-07 7.7228594e-07 6.7278910e-07 
4.3596961e-07 -1.2609742e-07 1.0257979e-07 
-4.2113879e-07 -3.9716079e-07 2.4293485e-08 
2.2624783e-07 4.0980979e-07 -1.4559228e-08 
0.0000000e+00 3.8769253e-05 0.0000000e+00 
0.0000000e+00 5.1112362e-05 0.0000000e+00 
0.0000000e+00 7.8112425e-05 0.0000000e+00 
0.0000000e+00 1.0280863e-04 0.0000000e+00 
0.0000000e+00 1.1697359e-04 0.0000000e+00 
0.0000000e+00 1.2446879e-04 0.0000000e+00 
0.0000000e+00 1.3370345e-04 0.0000000e+00 
0.0000000e+00 1.4959287e-04 0.0000000e+00 
0.0000000e+00 1.6851351e-04 0.0000000e+00 
0.0000000e+00 1.7803806e-04 0.0000000e+00 
0.0000000e+00 1.6922872e-04 0.0000000e+00 
0.0000000e+00 1.5581200e-04 0.0000000e+00 
0.0000000e+00 1.6734601e-04 0.0000000e+00 
0.0000000e+00 2.1600208e-04 0.0000000e+00 
0.0000000e+00 2.7346128e-04 0.0000000e+00 
0.0000000e+00 2.8213591e-04 0.0000000e+00 
0.0000000e+00 1.9410042e-04 0.0000000e+00 
0.0000000e+00 -2.4201506e-06 0.0000000e+00 
0.0000000e+00 -3.1801956e-04 0.0000000e+00 
0.0000000e+00 -8.1937975e-04 0.0000000e+00 
0.0000000e+00 -1.6204898e-03 0.0000000e+00 
0.0000000e+00 -2.8069655e-03 0.0000000e+00 
0.0000000e+00 -4.2345654e-03 0.0000000e+00 
0.0000000e+00 -5.2660657e-03 0.0000000e+00 
0.0000000e+00 -5.0896402e-03 0.0000000e+00 
0.0000000e+00 -4.5163180e-03 0.0000000e+00 
0.0000000e+00 -4.3049008e-03 0.0000000e+00 
0.0000000e+00 -4.6031959e-03 0.0000000e+00 
0.0000000e+00 -4.7475426e-03 0.0000000e+00 
0.0000000e+00 -3.8371889e-03 0.0000000e+00 
0.0000000e+00 -2.4424456e-03 0.0000000e+00 
0.0000000e+00 -1.1995247e-03 0.0000000e+00 
0.0000000e+00 -3.5787019e-04 0.0000000e+00 
0.0000000e+00 6.9932750e-05 0.0000000e+00 
0.0000000e+00 2.0448257e-04 0.0000000e+00 
0.0000000e+00 1.9379384e-04 0.0000000e+00 
0.0000000e+00 1.4302558e-04 0.0000000e+00 
0.0000000e+00 9.1793219e-05 0.0000000e+00 
0.0000000e+00 4.6965553e-05 0.0000000e+00 
0.0000000e+00 1.4894224e-05 0.0000000e+00 
0.0000000e+00 3.6300287e-06 0.0000000e+00 
0.0000000e+00 1.6519971e-05 0.0000000e+00 
0.0000000e+00 4.7925216e-05 0.0000000e+00 
0.0000000e+00 8.4836567e-05 0.0000000e+00 
0.0000000e+00 1.1199748e-04 0.0000000e+00 
0.0000000e+00 1.1935983e-04 0.0000000e+00 
0.0000000e+00 1.0776585e-04 0.0000000e+00 
0.0000000e+00 9.1715265e-05 0.0000000e+00 
0.0000000e+00 9.1265130e-05 0.0000000e+00 
0.0000000e+00 1.0949830e-04 0.0000000e+00 
0.0000000e+00 1.2743688e-04 0.0000000e+00 
0.0000000e+00 1.2677556e-04 0.0000000e+00 
0.0000000e+00 1.1595218e-04 0.0000000e+00 
0.0000000e+00 1.2582276e-04 0.0000000e+00 
0.0000000e+00 1.7714340e-04 0.0000000e+00 
0.0000000e+00 2.3031194e-04 0.0000000e+00 
0.0000000e+00 1.9194333e-04 0.0000000e+00 
0.0000000e+00 -1.6888545e-05 0.0000000e+00 
0.0000000e+00 -4.3104257e-04 0.0000000e+00 
0.0000000e+00 -1.0653952e-03 0.0000000e+00 
0.0000000e+00 -1.9443927e-03 0.0000000e+00 
0.0000000e+00 -3.1015896e-03 0.0000000e+00 
0.0000000e+00 -4.4027069e-03 0.0000000e+00 
0.0000000e+00 -5.2861688e-03 0.0000000e+00 
0.0000000e+00 -5.0568227e-03 0.0000000e+00 
0.0000000e+00 -4.5535802e-03 0.0000000e+00 
0.0000000e+00 -4.4195433e-03 0.0000000e+00 
0.0000000e+00 -4.6982057e-03 0.0000000e+00 
0.0000000e+00 -4.7144243e-03 0.0000000e+00 
0.0000000e+00 -3.6665725e-03 0.0000000e+00 
0.0000000e+00 -2.2108750e-03 0.0000000e+00 
0.0000000e+00 -1.0071907e-03 0.0000000e+00 
0.0000000e+00 -2.5290548e-04 0.0000000e+00 
0.0000000e+00 1.1331955e-04 0.0000000e+00 
0.0000000e+00 2.3698591e-04 0.0000000e+00 
0.0000000e+00 2.3820685e-04 0.0000000e+00 
0.0000000e+00 1.7981858e-04 0.0000000e+00 
0.0000000e+00 1.0015533e-04 0.0000000e+00 
0.0000000e+00 3.4067500e-05 0.0000000e+00 
0.0000000e+00 -4.3994538e-07 0.0000000e+00 
0.0000000e+00 -1.0457406e-05 0.0000000e+00 
0.0000000e+00 -1.1643255e-05 0.0000000e+00 
0.0000000e+00 -1.0976025e-05 0.0000000e+00 
0.0000000e+00 -5.9747890e-06 0.0000000e+00 
0.0000000e+00 3.6429562e-06 0.0000000e+00 
0.0000000e+00 1.1873004e-05 0.0000000e+00 
0.0000000e+00 1.2309312e-05 0.0000000e+00 
0.0000000e+00 5.0599301e-06 0.0000000e+00 
0.0000000e+00 -2.5918532e-06 0.0000000e+00 
0.0000000e+00 -5.0188105e-06 0.0000000e+00 
0.0000000e+00 -3.4610639e-06 0.0000000e+00 
0.0000000e+00 -2.1361557e-06 0.0000000e+00 
0.0000000e+00 -2.3058137e-06 0.0000000e+00 
0.0000000e+00 -2.1855478e-06 0.0000000e+00 
0.0000000e+00 -8.1385917e-07 0.0000000e+00 
0.0000000e+00 6.2275063e-07 0.0000000e+00 
0.0000000e+00 7.3891175e-07 0.0000000e+00 
0.0000000e+00 -8.0518056e-08 0.0000000e+00 
0.0000000e+00 -3.3827692e-07 0.0000000e+00 
0.0000000e+00 4.0812421e-07 0.0000000e+00 
0.0000000e+00 9.8917064e-07 0.0000000e+00 
9.1799418e-05 -2.4294735e-05 -6.6460225e-06 
-7.9203037e-06 -9.3956969e-06 8.7506178e-06 
-9.9333602e-06 -1.3711770e-05 2.9692505e-06 
8.1186445e-06 -3.3228705e-05 -6.3149323e-06 
0.0000000e+00 1.1144623e-04 0.0000000e+00 
0.0000000e+00 0.0000000e+00 0.0000000e+00 
0.0000000e+00 0.0000000e+00 0.0000000e+00 
0.0000000e+00 0.0000000e+00 0.0000000e+00 
0.0000000e+00 0.0000000e+00 0.0000000e+00 
0.0000000e+00 0.0000000e+00 0.0000000e+00 
0.0000000e+00 0.0000000e+00 0.0000000e+00 
0.0000000e+00 0.0000000e+00 0.0000000e+00 
0.0000000e+00 0.0000000e+00 0.0000000e+00 
0.0000000e+00 0.0000000e+00 0.0000000e+00 
0.0000000e+00 0.0000000e+00 0.0000000e+00 
0.0000000e+00 0.0000000e+00 0.0000000e+00 
0.0000000e+00 0.0000000e+00 0.0000000e+00 
0.0000000e+00 0.0000000e+00 0.0000000e+00 
0.0000000e+00 0.0000000e+00 0.0000000e+00 
0.0000000e+00 0.0000000e+00 0.0000000e+00 
0.0000000e+00 0.0000000e+00 0.0000000e+00 
0.0000000e+00 0.0000000e+00 0.0000000e+00 
0.0000000e+00 0.0000000e+00 0.0000000e+00 
0.0000000e+00 0.0000000e+00 0.0000000e+00 
0.0000000e+00 0.0000000e+00 0.0000000e+00 
0.0000000e+00 0.0000000e+00 0.0000000e+00 
0.0000000e+00 0.0000000e+00 0.0000000e+00 
0.0000000e+00 0.0000000e+00 0.0000000e+00 
0.0000000e+00 0.0000000e+00 0.0000000e+00 
0.0000000e+00 0.0000000e+00 0.0000000e+00 
0.0000000e+00 0.0000000e+00 0.0000000e+00 
0.0000000e+00 0.0000000e+00 0.0000000e+00 
0.0000000e+00 0.0000000e+00 0.0000000e+00 
0.0000000e+00 0.0000000e+00 0.0000000e+00 
0.0000000e+00 0.0000000e+00 0.0000000e+00 
0.0000000e+00 0.0000000e+00 0.0000000e+00 
0.0000000e+00 0.0000000e+00 0.0000000e+00 
0.0000000e+00 0.0000000e+00 0.0000000e+00 
0.0000000e+00 0.0000000e+00 0.0000000e+00 
0.0000000e+00 0.0000000e+00 0.0000000e+00 
0.0000000e+00 0.0000000e+00 0.0000000e+00 
0.0000000e+00 0.0000000e+00 0.0000000e+00 
0.0000000e+00 0.0000000e+00 0.0000000e+00 
0.0000000e+00 0.0000000e+00 0.0000000e+00 
0.0000000e+00 0.0000000e+00 0.0000000e+00 
0.0000000e+00 0.0000000e+00 0.0000000e+00 
0.0000000e+00 0.0000000e+00 0.0000000e+00 
0.0000000e+00 0.0000000e+00 0.0000000e+00 
0.0000000e+00 0.0000000e+00 0.0000000e+00 
0.0000000e+00 0.0000000e+00 0.0000000e+00 
0.0000000e+00 0.0000000e+00 0.0000000e+00 
0.0000000e+00 0.0000000e+00 0.0000000e+00 
0.0000000e+00 0.0000000e+00 0.0000000e+00 
0.0000000e+00 0.0000000e+00 0.0000000e+00 
0.0000000e+00 0.0000000e+00 0.0000000e+00 
0.0000000e+00 0.0000000e+00 0.0000000e+00 
0.0000000e+00 0.0000000e+00 0.0000000e+00 
0.0000000e+00 0.0000000e+00 0.0000000e+00 
0.0000000e+00 0.0000000e+00 0.0000000e+00 
0.0000000e+00 0.0000000e+00 0.0000000e+00 
0.0000000e+00 0.0000000e+00 0.0000000e+00 
0.0000000e+00 0.0000000e+00 0.0000000e+00 
0.0000000e+00 0.0000000e+00 0.0000000e+00 
0.0000000e+00 0.0000000e+00 0.0000000e+00 
0.0000000e+00 0.0000000e+00 0.0000000e+00 
0.0000000e+00 0.0000000e+00 0.0000000e+00 
0.0000000e+00 0.0000000e+00 0.0000000e+00 
0.0000000e+00 0.0000000e+00 0.0000000e+00 
0.0000000e+00 0.0000000e+00 0.0000000e+00 
0.0000000e+00 0.0000000e+00 0.0000000e+00 
0.0000000e+00 0.0000000e+00 0.0000000e+00 
0.0000000e+00 0.0000000e+00 0.0000000e+00 
0.0000000e+00 0.0000000e+00 0.0000000e+00 
0.0000000e+00 0.0000000e+00 0.0000000e+00 
0.0000000e+00 0.0000000e+00 0.0000000e+00 
0.0000000e+00 0.0000000e+00 0.0000000e+00 
0.0000000e+00 0.0000000e+00 0.0000000e+00 
0.0000000e+00 0.0000000e+00 0.0000000e+00 
0.0000000e+00 0.0000000e+00 0.0000000e+00 
0.0000000e+00 0.0000000e+00 0.0000000e+00 
0.0000000e+00 0.0000000e+00 0.0000000e+00 
0.0000000e+00 0.0000000e+00 0.0000000e+00 
0.0000000e+00 0.0000000e+00 0.0000000e+00 
0.0000000e+00 0.0000000e+00 0.0000000e+00 
0.0000000e+00 0.0000000e+00 0.0000000e+00 
0.0000000e+00 0.0000000e+00 0.0000000e+00 
0.0000000e+00 0.0000000e+00 0.0000000e+00 
0.0000000e+00 0.0000000e+00 0.0000000e+00 
0.0000000e+00 0.0000000e+00 0.0000000e+00 
0.0000000e+00 0.0000000e+00 0.0000000e+00 
0.0000000e+00 0.0000000e+00 0.0000000e+00 
0.0000000e+00 0.0000000e+00 0.0000000e+00 
0.0000000e+00 0.0000000e+00 0.0000000e+00 
0.0000000e+00 0.0000000e+00 0.0000000e+00 
0.0000000e+00 0.0000000e+00 0.0000000e+00 
0.0000000e+00 0.0000000e+00 0.0000000e+00 
0.0000000e+00 0.0000000e+00 0.0000000e+00 
0.0000000e+00 0.0000000e+00 0.0000000e+00 
0.0000000e+00 0.0000000e+00 0.0000000e+00 
0.0000000e+00 0.0000000e+00 0.0000000e+00 
0.0000000e+00 0.0000000e+00 0.0000000e+00 
0.0000000e+00 0.0000000e+00 0.0000000e+00 
0.0000000e+00 0.0000000e+00 0.0000000e+00 
0.0000000e+00 0.0000000e+00 0.0000000e+00 
0.0000000e+00 0.0000000e+00 0.0000000e+00 
0.0000000e+00 0.0000000e+00 0.0000000e+00 
0.0000000e+00 0.0000000e+00 0.0000000e+00 
0.0000000e+00 0.0000000e+00 0.0000000e+00 
0.0000000e+00 0.0000000e+00 0.0000000e+00 
0.0000000e+00 0.0000000e+00 0.0000000e+00 
0.0000000e+00 0.0000000e+00 0.0000000e+00 
5.6388585e-06 2.6206781e-06 -8.2382867e-06 
7.5987236e-06 -1.7513177e-06 -3.2582439e-06 
9.0320682e-06 -6.4722253e-06 -4.0695231e-06 
1.0277226e-05 -1.3682585e-05 -4.1970916e-06 
3.5794415e-06 -1.8905677e-05 -2.6566374e-06 
1.2965121e-05 -6.4890128e-06 -6.5267582e-06 
1.0851043e-05 -2.2817392e-05 -6.9558951e-06 
1.8569741e-05 -1.9271412e-05 -1.3785322e-05 
3.3833730e-05 -1.2485641e-05 -1.9443843e-05 
5.3444390e-05 -1.5816528e-05 -1.7920091e-05 
5.5727174e-05 -1.1992814e-05 -1.2165557e-05 
5.7425634e-05 -8.5993424e-06 -3.1617169e-06 
4.6936078e-05 -8.0472219e-06 1.0020331e-05 
2.9342191e-05 -7.8528064e-06 1.3442417e-05 
1.8820738e-05 -5.1275169e-06 9.4290435e-06 
6.7192104e-06 -3.0927886e-06 7.8038802e-06 
-2.4148201e-06 2.1366677e-06 7.6137217e-06 
-2.9139828e-06 4.0311002e-06 6.0370126e-06 
1.4892929e-06 2.8581219e-06 1.0327335e-05 
3.4009720e-06 5.0994745e-06 1.4201380e-05 
9.2469254e-06 -7.7825291e-07 8.2944080e-06 
1.1428868e-05 -7.5594066e-06 5.8835244e-06 
8.2130518e-06 -6.5510180e-06 2.8713850e-06 
1.0018106e-05 -1.5510976e-05 -1.7863014e-06 
6.7955775e-06 -2.5293404e-05 -4.0166856e-06 
4.6754399e-06 -1.6844657e-05 -7.9687206e-06 
1.3591206e-05 -2.3040457e-05 -1.0615934e-05 
2.0947607e-05 -2.7731714e-05 -1.6166661e-05 
3.9301045e-05 -2.0890271e-05 -1.4183835e-05 
5.5476965e-05 -2.2031074e-05 -8.8901543e-06 
5.5555458e-05 -1.6564840e-05 -4.9510204e-06 
5.9490158e-05 -6.5852114e-06 1.0343291e-06 
4.4111308e-05 -5.2828423e-06 3.6053543e-06 
2.9059080e-05 -5.4250208e-06 5.5610794e-06 
1.7193599e-05 -4.6794298e-06 1.6623133e-06 
7.8701632e-06 7.2330653e-07 1.2921968e-06 
2.1979665e-06 -6.6938753e-07 -7.2743617e-08 
2.7582153e-06 -2.9037155e-06 2.7798394e-06 
1.4288768e-06 1.3090387e-07 7.8773965e-06 
-4.0368303e-07 3.6526717e-07 1.0694833e-05 
1.2916779e-06 -2.0030320e-06 8.6172031e-06 
2.2279526e-06 -4.8059974e-06 6.4613823e-06 
1.7337699e-06 -1.4283645e-06 3.8223584e-06 
8.7334018e-07 2.5390748e-06 -3.6829627e-07 
9.1618269e-08 -8.0055855e-08 -2.8708973e-06 
-8.0090200e-07 -1.5176134e-07 -2.6219243e-06 
-8.7092451e-07 1.7528114e-07 -1.9555621e-06 
-2.0967798e-07 4.6147824e-07 -1.0635977e-08 
1.6386366e-07 -6.4438012e-07 4.8799416e-07 
0.0000000e+00 -1.7427919e-05 0.0000000e+00 
0.0000000e+00 -3.5468071e-05 0.0000000e+00 
0.0000000e+00 -1.1787112e-05 0.0000000e+00 
0.0000000e+00 1.0228991e-05 0.0000000e+00 
0.0000000e+00 2.2656914e-06 0.0000000e+00 
0.0000000e+00 5.1050876e-05 0.0000000e+00 
0.0000000e+00 4.5815370e-05 0.0000000e+00 
0.0000000e+00 -5.0452236e-05 0.0000000e+00 
0.0000000e+00 -1.0103000e-04 0.0000000e+00 
0.0000000e+00 -2.9464290e-04 0.0000000e+00 
0.0000000e+00 -4.8894563e-04 0.0000000e+00 
0.0000000e+00 -5.6301436e-04 0.0000000e+00 
0.0000000e+00 -5.7073042e-04 0.0000000e+00 
0.0000000e+00 -4.2273983e-04 0.0000000e+00 
0.0000000e+00 -2.4908653e-04 0.0000000e+00 
0.0000000e+00 -5.4065436e-05 0.0000000e+00 
0.0000000e+00 2.3323633e-05 0.0000000e+00 
0.0000000e+00 1.3267064e-05 0.0000000e+00 
0.0000000e+00 -1.1671799e-05 0.0000000e+00 
0.0000000e+00 -3.6433132e-05 0.0000000e+00 
0.0000000e+00 -1.9720503e-05 0.0000000e+00 
0.0000000e+00 2.9333485e-06 0.0000000e+00 
0.0000000e+00 1.5697313e-05 0.0000000e+00 
0.0000000e+00 8.1978826e-05 0.0000000e+00 
0.0000000e+00 6.0976978e-05 0.0000000e+00 
0.0000000e+00 7.8099947e-05 0.0000000e+00 
0.0000000e+00 1.0857903e-04 0.0000000e+00 
0.0000000e+00 -1.1758962e-05 0.0000000e+00 
0.0000000e+00 -1.3034130e-04 0.0000000e+00 
0.0000000e+00 -2.8935663e-04 0.0000000e+00 
0.0000000e+00 -5.2662450e-04 0.0000000e+00 
0.0000000e+00 -5.7721668e-04 0.0000000e+00 
0.0000000e+00 -5.3115096e-04 0.0000000e+00 
0.0000000e+00 -4.3547034e-04 0.0000000e+00 
0.0000000e+00 -2.2367231e-04 0.0000000e+00 
0.0000000e+00 -3.1911419e-05 0.0000000e+00 
0.0000000e+00 9.0722631e-07 0.0000000e+00 
0.0000000e+00 8.9453615e-06 0.0000000e+00 
0.0000000e+00 -2.7894782e-07 0.0000000e+00 
0.0000000e+00 -1.2552693e-05 0.0000000e+00 
0.0000000e+00 -7.6378928e-06 0.0000000e+00 
0.0000000e+00 1.0414624e-05 0.0000000e+00 
0.0000000e+00 5.7854777e-06 0.0000000e+00 
0.0000000e+00 -3.3173785e-06 0.0000000e+00 
0.0000000e+00 -2.1579453e-06 0.0000000e+00 
0.0000000e+00 1.5405826e-06 0.0000000e+00 
0.0000000e+00 4.4726070e-07 0.0000000e+00 
0.0000000e+00 1.5512985e-07 0.0000000e+00 
0.0000000e+00 4.3693021e-07 0.0000000e+00 
4.1749531e-06 1.7363308e-06 -3.8850690e-06 
6.7016117e-07 1.3251328e-05 6.4440519e-06 
2.1744977e-06 2.1087219e-05 1.4145870e-05 
9.0300919e-06 9.7766078e-06 1.7192404e-05 
7.0389525e-08 -6.0207032e-07 5.1283865e-07 
-3.5432464e-07 5.3050005e-08 7.9641546e-07 
-1.6932520e-07 2.6517097e-07 6.5735651e-07 
1.0797037e-07 4.1249956e-07 4.9670257e-07 
2.4012945e-07 2.9723453e-06 5.2179944e-06 
4.5767868e-07 -5.2678320e-07 7.2872899e-07 
4.1742828e-07 3.5053599e-06 3.0786709e-05 
2.8495733e-06 3.6174461e-05 1.8762208e-05 
0.0000000e+00 -4.3259213e-05 0.0000000e+00 
0.0000000e+00 -2.4806350e-05 0.0000000e+00 
0.0000000e+00 5.7360438e-07 0.0000000e+00 
0.0000000e+00 2.0745643e-05 0.0000000e+00 
0.0000000e+00 2.4794725e-05 0.0000000e+00 
0.0000000e+00 9.9944751e-05 0.0000000e+00 
0.0000000e+00 7.4898089e-05 0.0000000e+00 
0.0000000e+00 -4.3669515e-05 0.0000000e+00 
0.0000000e+00 -1.8653196e-04 0.0000000e+00 
0.0000000e+00 -6.3862820e-04 0.0000000e+00 
0.0000000e+00 -1.0735234e-03 0.0000000e+00 
0.0000000e+00 -1.1502416e-03 0.0000000e+00 
0.0000000e+00 -1.1325869e-03 0.0000000e+00 
0.0000000e+00 -9.2941691e-04 0.0000000e+00 