# vtk DataFile Version 4.0
vtk output
ASCII
DATASET UNSTRUCTURED_GRID
POINTS 1919 float
0.0000000e+00 0.0000000e+00 0.0000000e+00 
0.0000000e+00 0.0000000e+00 5.0000000e+01 
5.0000000e+00 0.0000000e+00 0.0000000e+00 
5.0000000e+00 0.0000000e+00 5.0000000e+01 
5.0000000e+00 1.0000000e+00 0.0000000e+00 
5.0000000e+00 1.0000000e+00 5.0000000e+01 
0.0000000e+00 1.0000000e+00 0.0000000e+00 
0.0000000e+00 1.0000000e+00 5.0000000e+01 
5.0000000e+00 2.0000000e+00 0.0000000e+00 
5.0000000e+00 2.0000000e+00 5.0000000e+01 
3.0000000e+00 2.0000000e+00 0.0000000e+00 
3.0000000e+00 2.0000000e+00 5.0000000e+01 
0.0000000e+00 2.0000000e+00 0.0000000e+00 
0.0000000e+00 2.0000000e+00 5.0000000e+01 
1.5000000e+00 3.0000000e+00 0.0000000e+00 
1.5000000e+00 3.0000000e+00 5.0000000e+01 
7.5000000e-01 3.0000000e+00 0.0000000e+00 
7.5000000e-01 3.0000000e+00 5.0000000e+01 
0.0000000e+00 3.0000000e+00 0.0000000e+00 
0.0000000e+00 3.0000000e+00 5.0000000e+01 
7.5000000e-01 3.0000000e+00 5.0000000e-01 
7.5000000e-01 3.0000000e+00 1.0000000e+00 
7.5000000e-01 3.0000000e+00 1.5000000e+00 
7.5000000e-01 3.0000000e+00 2.0000000e+00 
7.5000000e-01 3.0000000e+00 2.5000000e+00 
7.5000000e-01 3.0000000e+00 3.0000000e+00 
7.5000000e-01 3.0000000e+00 3.5000000e+00 
7.5000000e-01 3.0000000e+00 4.0000000e+00 
7.5000000e-01 3.0000000e+00 4.5000000e+00 
7.5000000e-01 3.0000000e+00 5.0000000e+00 
7.5000000e-01 3.0000000e+00 5.5000000e+00 
7.5000000e-01 3.0000000e+00 6.0000000e+00 
7.5000000e-01 3.0000000e+00 6.5000000e+00 
7.5000000e-01 3.0000000e+00 7.0000000e+00 
7.5000000e-01 3.0000000e+00 7.5000000e+00 
7.5000000e-01 3.0000000e+00 8.0000000e+00 
7.5000000e-01 3.0000000e+00 8.5000000e+00 
7.5000000e-01 3.0000000e+00 9.0000000e+00 
7.5000000e-01 3.0000000e+00 9.5000000e+00 
7.5000000e-01 3.0000000e+00 1.0000000e+01 
7.5000000e-01 3.0000000e+00 1.0500000e+01 
7.5000000e-01 3.0000000e+00 1.1000000e+01 
7.5000000e-01 3.0000000e+00 1.1500000e+01 
7.5000000e-01 3.0000000e+00 1.2000000e+01 
7.5000000e-01 3.0000000e+00 1.2500000e+01 
7.5000000e-01 3.0000000e+00 1.3000000e+01 
7.5000000e-01 3.0000000e+00 1.3500000e+01 
7.5000000e-01 3.0000000e+00 1.4000000e+01 
7.5000000e-01 3.0000000e+00 1.4500000e+01 
7.5000000e-01 3.0000000e+00 1.5000000e+01 
7.5000000e-01 3.0000000e+00 1.5500000e+01 
7.5000000e-01 3.0000000e+00 1.6000000e+01 
7.5000000e-01 3.0000000e+00 1.6500000e+01 
7.5000000e-01 3.0000000e+00 1.7000000e+01 
7.5000000e-01 3.0000000e+00 1.7500000e+01 
7.5000000e-01 3.0000000e+00 1.8000000e+01 
7.5000000e-01 3.0000000e+00 1.8500000e+01 
7.5000000e-01 3.0000000e+00 1.9000000e+01 
7.5000000e-01 3.0000000e+00 1.9500000e+01 
7.5000000e-01 3.0000000e+00 2.0000000e+01 
7.5000000e-01 3.0000000e+00 2.0500000e+01 
7.5000000e-01 3.0000000e+00 2.1000000e+01 
7.5000000e-01 3.0000000e+00 2.1500000e+01 
7.5000000e-01 3.0000000e+00 2.2000000e+01 
7.5000000e-01 3.0000000e+00 2.2500000e+01 
7.5000000e-01 3.0000000e+00 2.3000000e+01 
7.5000000e-01 3.0000000e+00 2.3500000e+01 
7.5000000e-01 3.0000000e+00 2.4000000e+01 
7.5000000e-01 3.0000000e+00 2.4500000e+01 
7.5000000e-01 3.0000000e+00 2.5000000e+01 
7.5000000e-01 3.0000000e+00 2.5500000e+01 
7.5000000e-01 3.0000000e+00 2.6000000e+01 
7.5000000e-01 3.0000000e+00 2.6500000e+01 
7.5000000e-01 3.0000000e+00 2.7000000e+01 
7.5000000e-01 3.0000000e+00 2.7500000e+01 
7.5000000e-01 3.0000000e+00 2.8000000e+01 
7.5000000e-01 3.0000000e+00 2.8500000e+01 
7.5000000e-01 3.0000000e+00 2.9000000e+01 
7.5000000e-01 3.0000000e+00 2.9500000e+01 
7.5000000e-01 3.0000000e+00 3.0000000e+01 
7.5000000e-01 3.0000000e+00 3.0500000e+01 
7.5000000e-01 3.0000000e+00 3.1000000e+01 
7.5000000e-01 3.0000000e+00 3.1500000e+01 
7.5000000e-01 3.0000000e+00 3.2000000e+01 
7.5000000e-01 3.0000000e+00 3.2500000e+01 
7.5000000e-01 3.0000000e+00 3.3000000e+01 
7.5000000e-01 3.0000000e+00 3.3500000e+01 
7.5000000e-01 3.0000000e+00 3.4000000e+01 
7.5000000e-01 3.0000000e+00 3.4500000e+01 
7.5000000e-01 3.0000000e+00 3.5000000e+01 
7.5000000e-01 3.0000000e+00 3.5500000e+01 
7.5000000e-01 3.0000000e+00 3.6000000e+01 
7.5000000e-01 3.0000000e+00 3.6500000e+01 
7.5000000e-01 3.0000000e+00 3.7000000e+01 
7.5000000e-01 3.0000000e+00 3.7500000e+01 
7.5000000e-01 3.0000000e+00 3.8000000e+01 
7.5000000e-01 3.0000000e+00 3.8500000e+01 
7.5000000e-01 3.0000000e+00 3.9000000e+01 
7.5000000e-01 3.0000000e+00 3.9500000e+01 
7.5000000e-01 3.0000000e+00 4.0000000e+01 
7.5000000e-01 3.0000000e+00 4.0500000e+01 
7.5000000e-01 3.0000000e+00 4.1000000e+01 
7.5000000e-01 3.0000000e+00 4.1500000e+01 
7.5000000e-01 3.0000000e+00 4.2000000e+01 
7.5000000e-01 3.0000000e+00 4.2500000e+01 
7.5000000e-01 3.0000000e+00 4.3000000e+01 
7.5000000e-01 3.0000000e+00 4.3500000e+01 
7.5000000e-01 3.0000000e+00 4.4000000e+01 
7.5000000e-01 3.0000000e+00 4.4500000e+01 
7.5000000e-01 3.0000000e+00 4.5000000e+01 
7.5000000e-01 3.0000000e+00 4.5500000e+01 
7.5000000e-01 3.0000000e+00 4.6000000e+01 
7.5000000e-01 3.0000000e+00 4.6500000e+01 
7.5000000e-01 3.0000000e+00 4.7000000e+01 
7.5000000e-01 3.0000000e+00 4.7500000e+01 
7.5000000e-01 3.0000000e+00 4.8000000e+01 
7.5000000e-01 3.0000000e+00 4.8500000e+01 
7.5000000e-01 3.0000000e+00 4.9000000e+01 
7.5000000e-01 3.0000000e+00 4.9500000e+01 
7.5000000e-01 3.0250001e+00 0.0000000e+00 
7.5000000e-01 3.0250001e+00 5.0000000e-01 
7.5000000e-01 3.0250001e+00 1.0000000e+00 
7.5000000e-01 3.0250001e+00 1.5000000e+00 
7.5000000e-01 3.0250001e+00 2.0000000e+00 
7.5000000e-01 3.0250001e+00 2.5000000e+00 
7.5000000e-01 3.0250001e+00 3.0000000e+00 
7.5000000e-01 3.0250001e+00 3.5000000e+00 
7.5000000e-01 3.0250001e+00 4.0000000e+00 
7.5000000e-01 3.0250001e+00 4.5000000e+00 
7.5000000e-01 3.0250001e+00 5.0000000e+00 
7.5000000e-01 3.0250001e+00 5.5000000e+00 
7.5000000e-01 3.0250001e+00 6.0000000e+00 
7.5000000e-01 3.0250001e+00 6.5000000e+00 
7.5000000e-01 3.0250001e+00 7.0000000e+00 
7.5000000e-01 3.0250001e+00 7.5000000e+00 
7.5000000e-01 3.0250001e+00 8.0000000e+00 
7.5000000e-01 3.0250001e+00 8.5000000e+00 
7.5000000e-01 3.0250001e+00 9.0000000e+00 
7.5000000e-01 3.0250001e+00 9.5000000e+00 
7.5000000e-01 3.0250001e+00 1.0000000e+01 
7.5000000e-01 3.0250001e+00 1.0500000e+01 
7.5000000e-01 3.0250001e+00 1.1000000e+01 
7.5000000e-01 3.0250001e+00 1.1500000e+01 
7.5000000e-01 3.0250001e+00 1.2000000e+01 
7.5000000e-01 3.0250001e+00 1.2500000e+01 
7.5000000e-01 3.0250001e+00 1.3000000e+01 
7.5000000e-01 3.0250001e+00 1.3500000e+01 
7.5000000e-01 3.0250001e+00 1.4000000e+01 
7.5000000e-01 3.0250001e+00 1.4500000e+01 
7.5000000e-01 3.0250001e+00 1.5000000e+01 
7.5000000e-01 3.0250001e+00 1.5500000e+01 
7.5000000e-01 3.0250001e+00 1.6000000e+01 
7.5000000e-01 3.0250001e+00 1.6500000e+01 
7.5000000e-01 3.0250001e+00 1.7000000e+01 
7.5000000e-01 3.0250001e+00 1.7500000e+01 
7.5000000e-01 3.0250001e+00 1.8000000e+01 
7.5000000e-01 3.0250001e+00 1.8500000e+01 
7.5000000e-01 3.0250001e+00 1.9000000e+01 
7.5000000e-01 3.0250001e+00 1.9500000e+01 
7.5000000e-01 3.0250001e+00 2.0000000e+01 
7.5000000e-01 3.0250001e+00 2.0500000e+01 
7.5000000e-01 3.0250001e+00 2.1000000e+01 
7.5000000e-01 3.0250001e+00 2.1500000e+01 
7.5000000e-01 3.0250001e+00 2.2000000e+01 
7.5000000e-01 3.0250001e+00 2.2500000e+01 
7.5000000e-01 3.0250001e+00 2.3000000e+01 
7.5000000e-01 3.0250001e+00 2.3500000e+01 
7.5000000e-01 3.0250001e+00 2.4000000e+01 
7.5000000e-01 3.0250001e+00 2.4500000e+01 
7.5000000e-01 3.0250001e+00 2.5000000e+01 
7.5000000e-01 3.0250001e+00 2.5500000e+01 
7.5000000e-01 3.0250001e+00 2.6000000e+01 
7.5000000e-01 3.0250001e+00 2.6500000e+01 
7.5000000e-01 3.0250001e+00 2.7000000e+01 
7.5000000e-01 3.0250001e+00 2.7500000e+01 
7.5000000e-01 3.0250001e+00 2.8000000e+01 
7.5000000e-01 3.0250001e+00 2.8500000e+01 
7.5000000e-01 3.0250001e+00 2.9000000e+01 
7.5000000e-01 3.0250001e+00 2.9500000e+01 
7.5000000e-01 3.0250001e+00 3.0000000e+01 
7.5000000e-01 3.0250001e+00 3.0500000e+01 
7.5000000e-01 3.0250001e+00 3.1000000e+01 
7.5000000e-01 3.0250001e+00 3.1500000e+01 
7.5000000e-01 3.0250001e+00 3.2000000e+01 
7.5000000e-01 3.0250001e+00 3.2500000e+01 
7.5000000e-01 3.0250001e+00 3.3000000e+01 
7.5000000e-01 3.0250001e+00 3.3500000e+01 
7.5000000e-01 3.0250001e+00 3.4000000e+01 
7.5000000e-01 3.0250001e+00 3.4500000e+01 
7.5000000e-01 3.0250001e+00 3.5000000e+01 
7.5000000e-01 3.0250001e+00 3.5500000e+01 
7.5000000e-01 3.0250001e+00 3.6000000e+01 
7.5000000e-01 3.0250001e+00 3.6500000e+01 
7.5000000e-01 3.0250001e+00 3.7000000e+01 
7.5000000e-01 3.0250001e+00 3.7500000e+01 
7.5000000e-01 3.0250001e+00 3.8000000e+01 
7.5000000e-01 3.0250001e+00 3.8500000e+01 
7.5000000e-01 3.0250001e+00 3.9000000e+01 
7.5000000e-01 3.0250001e+00 3.9500000e+01 
7.5000000e-01 3.0250001e+00 4.0000000e+01 
7.5000000e-01 3.0250001e+00 4.0500000e+01 
7.5000000e-01 3.0250001e+00 4.1000000e+01 
7.5000000e-01 3.0250001e+00 4.1500000e+01 
7.5000000e-01 3.0250001e+00 4.2000000e+01 
7.5000000e-01 3.0250001e+00 4.2500000e+01 
7.5000000e-01 3.0250001e+00 4.3000000e+01 
7.5000000e-01 3.0250001e+00 4.3500000e+01 
7.5000000e-01 3.0250001e+00 4.4000000e+01 
7.5000000e-01 3.0250001e+00 4.4500000e+01 
7.5000000e-01 3.0250001e+00 4.5000000e+01 
7.5000000e-01 3.0250001e+00 4.5500000e+01 
7.5000000e-01 3.0250001e+00 4.6000000e+01 
7.5000000e-01 3.0250001e+00 4.6500000e+01 
7.5000000e-01 3.0250001e+00 4.7000000e+01 
7.5000000e-01 3.0250001e+00 4.7500000e+01 
7.5000000e-01 3.0250001e+00 4.8000000e+01 
7.5000000e-01 3.0250001e+00 4.8500000e+01 
7.5000000e-01 3.0250001e+00 4.9000000e+01 
7.5000000e-01 3.0250001e+00 4.9500000e+01 
7.5000000e-01 3.0250001e+00 5.0000000e+01 
1.5000000e+00 3.0000000e+00 2.5000000e+01 
3.0000000e+00 2.0000000e+00 2.5000000e+01 
4.0000000e+00 2.0000000e+00 2.5000000e+01 
5.0000000e+00 2.0000000e+00 2.5000000e+01 
0.0000000e+00 3.0000000e+00 2.5000000e+01 
0.0000000e+00 0.0000000e+00 1.0000000e+00 
0.0000000e+00 0.0000000e+00 2.0000000e+00 
0.0000000e+00 0.0000000e+00 3.0000000e+00 
0.0000000e+00 0.0000000e+00 4.0000000e+00 
0.0000000e+00 0.0000000e+00 5.0000000e+00 
[...]
POINT_DATA 1919
FIELD FieldData 3
DISPLACEMENT 3 1919  float
0.0000000e+00 0.0000000e+00 0.0000000e+00 
0.0000000e+00 0.0000000e+00 0.0000000e+00 
0.0000000e+00 0.0000000e+00 0.0000000e+00 
0.0000000e+00 0.0000000e+00 0.0000000e+00 
-2.6382675e-06 9.0326500e-07 1.9433196e-07 
-4.1322735e-07 6.5883296e-07 -4.0492122e-07 
0.0000000e+00 -7.5436651e-07 0.0000000e+00 
0.0000000e+00 -1.0005268e-06 0.0000000e+00 
-6.5123612e-07 1.8932527e-06 4.0901641e-06 
-5.2206371e-07 6.3209583e-08 -6.9546360e-08 
3.2584660e-07 -2.5663921e-06 2.7250837e-06 
-3.2033790e-07 -4.2153451e-07 -1.7196288e-06 
0.0000000e+00 1.1619414e-05 0.0000000e+00 
0.0000000e+00 -7.6574509e-07 0.0000000e+00 
2.1376040e-05 3.4059092e-05 -2.2404998e-05 
-9.9262013e-07 1.0974947e-07 9.6001975e-07 
-6.6406632e-05 3.2094304e-05 -1.8218829e-05 
-1.4034568e-07 -7.7281243e-07 5.3595937e-09 
0.0000000e+00 -1.5850193e-06 0.0000000e+00 
0.0000000e+00 -2.4579330e-07 0.0000000e+00 
1.5916175e-05 3.2003307e-05 -4.4492837e-05 
4.0925483e-05 2.8706165e-05 -4.8225033e-05 
6.3743275e-05 1.6403945e-05 -6.3334075e-05 
3.9230312e-05 -5.7041993e-06 -5.8135978e-05 
5.0836337e-05 -2.7632270e-05 -4.9879545e-05 
3.9762061e-05 -3.9623301e-05 -4.7898204e-05 
6.0012120e-05 -3.9783568e-05 -3.8626862e-05 
4.9043563e-05 -3.0966527e-05 -3.3134827e-05 
7.3334057e-05 -2.7538457e-05 -3.8044462e-05 
4.3621832e-05 -3.9096991e-05 -2.7667178e-05 
8.0132493e-05 -5.5357068e-05 -2.4890491e-05 
4.4653243e-05 -4.8090547e-05 -1.2259564e-05 
7.4640804e-05 -7.7676823e-06 1.0306535e-05 
4.3234035e-05 4.5020155e-05 1.4750814e-05 
8.3400875e-05 6.9398811e-05 2.6673031e-05 
5.1983112e-05 3.6242713e-05 4.6035184e-05 
7.4228585e-05 -4.9741262e-05 7.1174181e-05 
4.0517847e-05 -1.7644830e-04 1.0593973e-04 
4.8007907e-05 -3.8983327e-04 1.9461468e-04 
-2.8772936e-07 -8.0067827e-04 1.5796296e-04 
-4.4071741e-05 -1.5715022e-03 2.8298466e-04 
-1.3381970e-04 -2.7810289e-03 1.7413746e-04 
-1.9121043e-04 -4.2308699e-03 2.7433579e-04 
-3.0898722e-04 -5.2183997e-03 8.9616653e-05 
-3.3519961e-04 -5.1251850e-03 2.6103568e-05 
-2.6885720e-04 -4.5301723e-03 6.2100538e-05 
-2.6434325e-04 -4.2946320e-03 1.9272962e-05 
-2.6136581e-04 -4.5199213e-03 -6.7620014e-05 
-2.7632571e-04 -4.6716086e-03 -1.3061303e-04 
-2.3970229e-04 -3.8947461e-03 -1.6946153e-04 
-1.7472559e-04 -2.5859152e-03 -3.2210190e-04 
-1.2565714e-04 -1.3386257e-03 -2.0345817e-04 
-5.4486238e-05 -4.4631804e-04 -2.1214038e-04 
-2.6568499e-05 5.4786651e-05 -1.7490650e-04 
3.8337148e-06 2.4112423e-04 -8.6130596e-05 
1.4571121e-05 2.3894300e-04 -6.5322129e-05 
1.8578899e-05 1.7094504e-04 -2.5738993e-05 
3.4341840e-05 1.0526037e-04 -2.2991042e-05 
2.7557999e-05 5.6922730e-05 3.3076137e-06 
1.9649269e-05 1.6743614e-05 4.6406085e-06 
2.0262463e-05 -1.4934170e-05 1.1508605e-05 
2.3031011e-05 -2.5754583e-05 3.1936740e-06 
4.1623400e-05 -1.5607526e-05 -1.0388590e-05 
4.0841311e-05 -3.7625580e-06 -2.1914866e-05 
4.7370399e-05 -5.0354624e-06 -4.0565028e-05 
3.2624059e-05 -1.8672112e-05 -3.3423814e-05 
7.7822559e-05 -2.5664325e-05 -3.4029588e-05 
6.8807924e-05 -9.3908120e-06 -2.6543779e-05 
6.5734741e-05 2.1285570e-05 -2.9129529e-05 
5.7631005e-05 4.0927498e-05 -4.1714675e-06 
7.4065218e-05 3.3786968e-05 -1.2164912e-05 
6.2864929e-05 1.4279607e-05 -1.2789611e-05 
8.6742519e-05 1.5330908e-05 4.6190203e-06 
6.7578891e-05 5.9796625e-05 1.1469158e-05 
7.5749937e-05 1.1689641e-04 4.0586419e-05 
5.9008242e-05 1.1808394e-04 6.8120855e-05 
9.5833333e-05 1.6532304e-05 1.0067672e-04 
5.7758738e-05 -1.9797984e-04 1.3082562e-04 
4.8638893e-05 -5.3254602e-04 2.1695848e-04 
-1.4511614e-05 -1.0240134e-03 1.9089412e-04 
-6.0011138e-05 -1.7992879e-03 3.3513369e-04 
-1.4366466e-04 -2.9567792e-03 1.9733100e-04 
-2.1594443e-04 -4.3730135e-03 2.8013650e-04 
-3.3239389e-04 -5.3406889e-03 1.0586720e-04 
-3.6909024e-04 -5.1435409e-03 1.0402772e-05 
-3.3332867e-04 -4.5155147e-03 1.2267810e-05 
-3.2954800e-04 -4.2926767e-03 -4.2322732e-05 
-3.5070599e-04 -4.5539262e-03 -1.4099124e-04 
-3.5542515e-04 -4.7184019e-03 -2.5833549e-04 
-2.7522849e-04 -3.7925288e-03 -2.4906659e-04 
-1.8230532e-04 -2.3968846e-03 -4.1160104e-04 
-1.0981125e-04 -1.1450849e-03 -2.7668985e-04 
-1.2635887e-05 -3.1527071e-04 -2.6108674e-04 
1.2639482e-05 9.6140517e-05 -1.4170814e-04 
3.8322076e-05 2.1894161e-04 -1.0512595e-04 
5.9154379e-05 2.0376069e-04 -6.2150946e-05 
5.2086947e-05 1.4554341e-04 -3.2116281e-05 
4.3607550e-05 8.5317653e-05 -3.7106156e-06 
3.4814304e-05 3.0150917e-05 4.9257065e-05 
1.8776593e-05 -9.2013015e-06 7.0219816e-05 
8.4029858e-07 -2.3028520e-05 7.8801095e-05 
-3.6660538e-06 -1.7983766e-05 6.3033658e-05 
-1.8384155e-05 -9.7807633e-06 3.6176745e-05 
-1.4130347e-05 -6.1877095e-06 1.1731445e-05 
-1.2225639e-05 -2.8503441e-06 -5.7849597e-06 
-1.2247743e-05 3.5540186e-06 -8.7921981e-06 
-3.7378159e-06 1.0478258e-05 -7.5975240e-06 
-4.0354112e-06 1.2469631e-05 -3.4411842e-06 
-1.2760030e-06 8.1177732e-06 -4.9800892e-06 
7.5679390e-07 2.1967733e-06 -6.1769119e-06 
5.4064202e-07 -5.4833157e-07 -6.1407495e-06 
1.4763024e-06 -5.6718960e-07 -6.4628975e-06 
2.5639324e-06 -1.1189796e-06 -3.8128751e-06 
1.8482120e-06 -2.6256769e-06 -2.0427117e-06 
2.9179005e-06 -3.1586308e-06 4.9037072e-07 
1.5213559e-06 -1.5691412e-06 2.2187603e-06 
-3.5979287e-08 7.0811308e-07 1.7120963e-06 
-9.5509574e-07 1.3534202e-06 8.1360861e-07 
-1.2962906e-06 1.6075697e-07 1.0454976e-07 
0.0000000e+00 3.2166321e-05 0.0000000e+00 
0.0000000e+00 3.2114065e-05 0.0000000e+00 
0.0000000e+00 2.8614626e-05 0.0000000e+00 
0.0000000e+00 1.6035710e-05 0.0000000e+00 
0.0000000e+00 -5.7298762e-06 0.0000000e+00 
0.0000000e+00 -2.7493465e-05 0.0000000e+00 
0.0000000e+00 -3.9613951e-05 0.0000000e+00 
0.0000000e+00 -3.9334867e-05 0.0000000e+00 
0.0000000e+00 -3.1038715e-05 0.0000000e+00 
0.0000000e+00 -2.8204078e-05 0.0000000e+00 
0.0000000e+00 -3.9927680e-05 0.0000000e+00 
0.0000000e+00 -5.5158918e-05 0.0000000e+00 
0.0000000e+00 -4.7352463e-05 0.0000000e+00 
0.0000000e+00 -6.6711846e-06 0.0000000e+00 
0.0000000e+00 4.5193559e-05 0.0000000e+00 
0.0000000e+00 6.8176480e-05 0.0000000e+00 
0.0000000e+00 3.5447025e-05 0.0000000e+00 
0.0000000e+00 -4.8390473e-05 0.0000000e+00 
0.0000000e+00 -1.7459755e-04 0.0000000e+00 
0.0000000e+00 -3.8712821e-04 0.0000000e+00 
0.0000000e+00 -8.0189842e-04 0.0000000e+00 
0.0000000e+00 -1.5808444e-03 0.0000000e+00 
0.0000000e+00 -2.8009994e-03 0.0000000e+00 
0.0000000e+00 -4.2461725e-03 0.0000000e+00 
0.0000000e+00 -5.2473326e-03 0.0000000e+00 
0.0000000e+00 -5.1483950e-03 0.0000000e+00 
0.0000000e+00 -4.5606070e-03 0.0000000e+00 
0.0000000e+00 -4.3176739e-03 0.0000000e+00 
0.0000000e+00 -4.5497199e-03 0.0000000e+00 
0.0000000e+00 -4.6961233e-03 0.0000000e+00 
0.0000000e+00 -3.9216904e-03 0.0000000e+00 
0.0000000e+00 -2.6000836e-03 0.0000000e+00 
0.0000000e+00 -1.3474600e-03 0.0000000e+00 
0.0000000e+00 -4.5026751e-04 0.0000000e+00 
0.0000000e+00 5.3476575e-05 0.0000000e+00 
0.0000000e+00 2.4197060e-04 0.0000000e+00 
0.0000000e+00 2.4137029e-04 0.0000000e+00 
0.0000000e+00 1.7277061e-04 0.0000000e+00 
0.0000000e+00 1.0580071e-04 0.0000000e+00 
0.0000000e+00 5.6468733e-05 0.0000000e+00 
0.0000000e+00 1.6442829e-05 0.0000000e+00 
0.0000000e+00 -1.4483447e-05 0.0000000e+00 
0.0000000e+00 -2.5218435e-05 0.0000000e+00 
0.0000000e+00 -1.5774593e-05 0.0000000e+00 
0.0000000e+00 -4.1224398e-06 0.0000000e+00 
0.0000000e+00 -5.6809599e-06 0.0000000e+00 
0.0000000e+00 -1.8870656e-05 0.0000000e+00 
0.0000000e+00 -2.4911315e-05 0.0000000e+00 
0.0000000e+00 -8.7649360e-06 0.0000000e+00 
0.0000000e+00 2.1149610e-05 0.0000000e+00 
0.0000000e+00 4.0105082e-05 0.0000000e+00 
0.0000000e+00 3.2926284e-05 0.0000000e+00 
0.0000000e+00 1.3976943e-05 0.0000000e+00 
0.0000000e+00 1.6972739e-05 0.0000000e+00 
0.0000000e+00 6.1571380e-05 0.0000000e+00 
0.0000000e+00 1.1686725e-04 0.0000000e+00 
0.0000000e+00 1.1713070e-04 0.0000000e+00 
0.0000000e+00 1.5616175e-05 0.0000000e+00 
0.0000000e+00 -1.9806503e-04 0.0000000e+00 
0.0000000e+00 -5.2923919e-04 0.0000000e+00 
0.0000000e+00 -1.0240203e-03 0.0000000e+00 
0.0000000e+00 -1.8057056e-03 0.0000000e+00 
0.0000000e+00 -2.9773156e-03 0.0000000e+00 
0.0000000e+00 -4.3949457e-03 0.0000000e+00 
0.0000000e+00 -5.3733699e-03 0.0000000e+00 
0.0000000e+00 -5.1626926e-03 0.0000000e+00 
0.0000000e+00 -4.5429608e-03 0.0000000e+00 
0.0000000e+00 -4.3149577e-03 0.0000000e+00 
0.0000000e+00 -4.5893095e-03 0.0000000e+00 
0.0000000e+00 -4.7413846e-03 0.0000000e+00 
0.0000000e+00 -3.8163112e-03 0.0000000e+00 
0.0000000e+00 -2.4099976e-03 0.0000000e+00 
0.0000000e+00 -1.1551917e-03 0.0000000e+00 
0.0000000e+00 -3.1900711e-04 0.0000000e+00 
0.0000000e+00 9.6450793e-05 0.0000000e+00 
0.0000000e+00 2.2134277e-04 0.0000000e+00 
0.0000000e+00 2.0541227e-04 0.0000000e+00 
0.0000000e+00 1.4645074e-04 0.0000000e+00 
0.0000000e+00 8.5239757e-05 0.0000000e+00 
0.0000000e+00 3.0417037e-05 0.0000000e+00 
0.0000000e+00 -8.5820984e-06 0.0000000e+00 
0.0000000e+00 -2.2914839e-05 0.0000000e+00 
0.0000000e+00 -1.8419216e-05 0.0000000e+00 
0.0000000e+00 -1.0131478e-05 0.0000000e+00 
0.0000000e+00 -5.9722584e-06 0.0000000e+00 
0.0000000e+00 -2.6332086e-06 0.0000000e+00 
0.0000000e+00 3.5309408e-06 0.0000000e+00 
0.0000000e+00 1.0284623e-05 0.0000000e+00 
0.0000000e+00 1.2314248e-05 0.0000000e+00 
0.0000000e+00 8.1827457e-06 0.0000000e+00 
0.0000000e+00 2.3718035e-06 0.0000000e+00 
0.0000000e+00 -4.9100822e-07 0.0000000e+00 
0.0000000e+00 -6.8485565e-07 0.0000000e+00 
0.0000000e+00 -1.1756173e-06 0.0000000e+00 
0.0000000e+00 -2.5755646e-06 0.0000000e+00 
0.0000000e+00 -3.0821514e-06 0.0000000e+00 
0.0000000e+00 -1.5593690e-06 0.0000000e+00 
0.0000000e+00 6.3557883e-07 0.0000000e+00 
0.0000000e+00 1.2903616e-06 0.0000000e+00 
0.0000000e+00 1.7210496e-07 0.0000000e+00 
0.0000000e+00 -7.1236275e-07 0.0000000e+00 
8.9632937e-05 -9.3977062e-05 -1.6952509e-06 
-1.8799326e-05 -3.3506178e-05 7.7414979e-06 
-1.9617099e-05 1.0687492e-05 9.6022188e-07 
-2.6641064e-06 -7.5682970e-06 -2.7425438e-06 
0.0000000e+00 1.1109332e-04 0.0000000e+00 
0.0000000e+00 0.0000000e+00 0.0000000e+00 
0.0000000e+00 0.0000000e+00 0.0000000e+00 
0.0000000e+00 0.0000000e+00 0.0000000e+00 
0.0000000e+00 0.0000000e+00 0.0000000e+00 
0.0000000e+00 0.0000000e+00 0.0000000e+00 
0.0000000e+00 0.0000000e+00 0.0000000e+00 
0.0000000e+00 0.0000000e+00 0.0000000e+00 
0.0000000e+00 0.0000000e+00 0.0000000e+00 
0.0000000e+00 0.0000000e+00 0.0000000e+00 
0.0000000e+00 0.0000000e+00 0.0000000e+00 
0.0000000e+00 0.0000000e+00 0.0000000e+00 
0.0000000e+00 0.0000000e+00 0.0000000e+00 
0.0000000e+00 0.0000000e+00 0.0000000e+00 
0.0000000e+00 0.0000000e+00 0.0000000e+00 
0.0000000e+00 0.0000000e+00 0.0000000e+00 
0.0000000e+00 0.0000000e+00 0.0000000e+00 
0.0000000e+00 0.0000000e+00 0.0000000e+00 
0.0000000e+00 0.0000000e+00 0.0000000e+00 
0.0000000e+00 0.0000000e+00 0.0000000e+00 
0.0000000e+00 0.0000000e+00 0.0000000e+00 
0.0000000e+00 0.0000000e+00 0.0000000e+00 
0.0000000e+00 0.0000000e+00 0.0000000e+00 
0.0000000e+00 0.0000000e+00 0.0000000e+00 
0.0000000e+00 0.0000000e+00 0.0000000e+00 
0.0000000e+00 0.0000000e+00 0.0000000e+00 
0.0000000e+00 0.0000000e+00 0.0000000e+00 
0.0000000e+00 0.0000000e+00 0.0000000e+00 
0.0000000e+00 0.0000000e+00 0.0000000e+00 
0.0000000e+00 0.0000000e+00 0.0000000e+00 
0.0000000e+00 0.0000000e+00 0.0000000e+00 
0.0000000e+00 0.0000000e+00 0.0000000e+00 
0.0000000e+00 0.0000000e+00 0.0000000e+00 
0.0000000e+00 0.0000000e+00 0.0000000e+00 
0.0000000e+00 0.0000000e+00 0.0000000e+00 
0.0000000e+00 0.0000000e+00 0.0000000e+00 
0.0000000e+00 0.0000000e+00 0.0000000e+00 
0.0000000e+00 0.0000000e+00 0.0000000e+00 
0.0000000e+00 0.0000000e+00 0.0000000e+00 
0.0000000e+00 0.0000000e+00 0.0000000e+00 
0.0000000e+00 0.0000000e+00 0.0000000e+00 
0.0000000e+00 0.0000000e+00 0.0000000e+00 
0.0000000e+00 0.0000000e+00 0.0000000e+00 
0.0000000e+00 0.0000000e+00 0.0000000e+00 
0.0000000e+00 0.0000000e+00 0.0000000e+00 
0.0000000e+00 0.0000000e+00 0.0000000e+00 
0.0000000e+00 0.0000000e+00 0.0000000e+00 
0.0000000e+00 0.0000000e+00 0.0000000e+00 
0.0000000e+00 0.0000000e+00 0.0000000e+00 
0.0000000e+00 0.0000000e+00 0.0000000e+00 
0.0000000e+00 0.0000000e+00 0.0000000e+00 
0.0000000e+00 0.0000000e+00 0.0000000e+00 
0.0000000e+00 0.0000000e+00 0.0000000e+00 
0.0000000e+00 0.0000000e+00 0.0000000e+00 
0.0000000e+00 0.0000000e+00 0.0000000e+00 
0.0000000e+00 0.0000000e+00 0.0000000e+00 
0.0000000e+00 0.0000000e+00 0.0000000e+00 
0.0000000e+00 0.0000000e+00 0.0000000e+00 
0.0000000e+00 0.0000000e+00 0.0000000e+00 
0.0000000e+00 0.0000000e+00 0.0000000e+00 
0.0000000e+00 0.0000000e+00 0.0000000e+00 
0.0000000e+00 0.0000000e+00 0.0000000e+00 
0.0000000e+00 0.0000000e+00 0.0000000e+00 
0.0000000e+00 0.0000000e+00 0.0000000e+00 
0.0000000e+00 0.0000000e+00 0.0000000e+00 
0.0000000e+00 0.0000000e+00 0.0000000e+00 
0.0000000e+00 0.0000000e+00 0.0000000e+00 
0.0000000e+00 0.0000000e+00 0.0000000e+00 
0.0000000e+00 0.0000000e+00 0.0000000e+00 
0.0000000e+00 0.0000000e+00 0.0000000e+00 
0.0000000e+00 0.0000000e+00 0.0000000e+00 
0.0000000e+00 0.0000000e+00 0.0000000e+00 
0.0000000e+00 0.0000000e+00 0.0000000e+00 
0.0000000e+00 0.0000000e+00 0.0000000e+00 
0.0000000e+00 0.0000000e+00 0.0000000e+00 
0.0000000e+00 0.0000000e+00 0.0000000e+00 
0.0000000e+00 0.0000000e+00 0.0000000e+00 
0.0000000e+00 0.0000000e+00 0.0000000e+00 
0.0000000e+00 0.0000000e+00 0.0000000e+00 
0.0000000e+00 0.0000000e+00 0.0000000e+00 
0.0000000e+00 0.0000000e+00 0.0000000e+00 
0.0000000e+00 0.0000000e+00 0.0000000e+00 
0.0000000e+00 0.0000000e+00 0.0000000e+00 
0.0000000e+00 0.0000000e+00 0.0000000e+00 
0.0000000e+00 0.0000000e+00 0.0000000e+00 
0.0000000e+00 0.0000000e+00 0.0000000e+00 
0.0000000e+00 0.0000000e+00 0.0000000e+00 
0.0000000e+00 0.0000000e+00 0.0000000e+00 
0.0000000e+00 0.0000000e+00 0.0000000e+00 
0.0000000e+00 0.0000000e+00 0.0000000e+00 
0.0000000e+00 0.0000000e+00 0.0000000e+00 
0.0000000e+00 0.0000000e+00 0.0000000e+00 
0.0000000e+00 0.0000000e+00 0.0000000e+00 
0.0000000e+00 0.0000000e+00 0.0000000e+00 
0.0000000e+00 0.0000000e+00 0.0000000e+00 
0.0000000e+00 0.0000000e+00 0.0000000e+00 
0.0000000e+00 0.0000000e+00 0.0000000e+00 
0.0000000e+00 0.0000000e+00 0.0000000e+00 
0.0000000e+00 0.0000000e+00 0.0000000e+00 
0.0000000e+00 0.0000000e+00 0.0000000e+00 
0.0000000e+00 0.0000000e+00 0.0000000e+00 
0.0000000e+00 0.0000000e+00 0.0000000e+00 
0.0000000e+00 0.0000000e+00 0.0000000e+00 
0.0000000e+00 0.0000000e+00 0.0000000e+00 
0.0000000e+00 0.0000000e+00 0.0000000e+00 
0.0000000e+00 0.0000000e+00 0.0000000e+00 
0.0000000e+00 0.0000000e+00 0.0000000e+00 
-1.0953767e-06 -3.2822124e-06 3.3295928e-06 
-5.1005027e-06 -3.9527245e-06 9.2535211e-06 
-9.3713461e-06 -6.8816581e-07 3.6070380e-06 
-9.2680039e-06 -3.2559531e-06 -1.5025813e-06 
-1.2747581e-05 -6.3036819e-06 -7.6868071e-07 
-4.7328890e-06 1.0408530e-05 -4.6914774e-06 
-5.7497573e-06 -6.8019590e-06 -6.2510185e-06 
-4.5079573e-06 -1.1176808e-05 -9.7564134e-06 
6.4407100e-06 -6.7462324e-06 -1.7990526e-05 
2.1163793e-05 -1.9553214e-05 -2.1182639e-05 
3.4400306e-05 -2.0883013e-05 -1.8133680e-05 
5.0075108e-05 -1.8352945e-05 -9.5159694e-06 
5.4048931e-05 -1.7098153e-05 3.5082583e-06 
4.3380176e-05 -1.1283955e-05 1.3635115e-05 
2.8531096e-05 -5.3120893e-06 1.8163375e-05 
1.6064074e-05 -3.5314088e-06 1.4787537e-05 
8.8454981e-06 9.5394988e-08 1.2191475e-05 
4.5791567e-06 3.5071525e-06 3.8598955e-06 
1.7823833e-06 -2.2894156e-08 -2.7508528e-07 
-1.1835252e-06 -5.5822375e-06 1.4792553e-06 
-9.1464938e-07 -8.0395057e-06 9.5091502e-07 
-2.3645605e-06 -5.7530815e-06 6.8856680e-06 
-6.0697839e-06 -2.6297419e-06 7.6572705e-06 
-5.2669843e-06 -4.7999820e-06 5.2186524e-06 
-3.3690503e-06 -2.3223322e-06 2.9742439e-06 
-6.0378961e-06 9.6379872e-06 1.4897610e-07 
-1.7667302e-06 -1.6009482e-06 -3.9876413e-06 
1.3902102e-06 -7.8656622e-06 -1.3151091e-05 
1.4458853e-05 -6.5931731e-06 -1.8304159e-05 
3.0402472e-05 -2.0489742e-05 -1.9983107e-05 
3.9094124e-05 -2.6094696e-05 -1.9264338e-05 
5.2305106e-05 -1.9388983e-05 -1.0990936e-05 
5.0756142e-05 -1.7979681e-05 -2.7852186e-06 
4.4902263e-05 -1.0708253e-05 8.7029484e-06 
3.1469768e-05 -5.7770712e-06 1.2185211e-05 
1.5812755e-05 -2.4113308e-06 1.2197439e-05 
6.4351620e-06 -1.6390657e-06 5.7063494e-06 
7.8288679e-07 2.8815323e-06 -7.1631547e-08 
-8.5933829e-07 7.3578531e-07 -2.3442421e-06 
6.7631765e-07 -8.1572745e-07 -3.1951465e-06 
8.9298425e-07 5.5798830e-07 8.2266013e-07 
-6.5641203e-08 1.3466114e-06 4.5665151e-06 
-8.6117012e-07 -1.5307798e-07 4.3049890e-06 
1.4206307e-07 -3.9959846e-06 3.5526868e-06 
8.4055046e-07 -9.6749864e-07 2.6602181e-06 
9.0319446e-07 1.0272462e-06 1.0931087e-06 
6.4350576e-07 8.9322532e-07 2.1184827e-07 
-1.4850208e-07 -6.6676103e-07 -9.5270883e-07 
-5.1057039e-08 4.4004832e-08 -1.1334080e-06 
0.0000000e+00 4.1596937e-05 0.0000000e+00 
0.0000000e+00 5.3927506e-05 0.0000000e+00 
0.0000000e+00 7.2407202e-05 0.0000000e+00 
0.0000000e+00 8.0896127e-05 0.0000000e+00 
0.0000000e+00 5.0754661e-05 0.0000000e+00 
0.0000000e+00 7.8148063e-05 0.0000000e+00 
0.0000000e+00 8.0486061e-05 0.0000000e+00 
0.0000000e+00 3.1759224e-05 0.0000000e+00 
0.0000000e+00 2.5342322e-05 0.0000000e+00 
0.0000000e+00 -1.0153090e-04 0.0000000e+00 
0.0000000e+00 -2.8611423e-04 0.0000000e+00 
0.0000000e+00 -4.5432689e-04 0.0000000e+00 
0.0000000e+00 -5.5226992e-04 0.0000000e+00 
0.0000000e+00 -5.0535705e-04 0.0000000e+00 
0.0000000e+00 -4.0601075e-04 0.0000000e+00 
0.0000000e+00 -2.1825510e-04 0.0000000e+00 
0.0000000e+00 -3.4343269e-05 0.0000000e+00 
0.0000000e+00 1.9520456e-05 0.0000000e+00 
0.0000000e+00 1.8514214e-05 0.0000000e+00 
0.0000000e+00 3.5445457e-05 0.0000000e+00 
0.0000000e+00 4.8875543e-05 0.0000000e+00 
0.0000000e+00 3.6647692e-05 0.0000000e+00 
0.0000000e+00 4.2458541e-05 0.0000000e+00 
0.0000000e+00 8.1354628e-05 0.0000000e+00 
0.0000000e+00 1.7869959e-05 0.0000000e+00 
0.0000000e+00 1.4659873e-05 0.0000000e+00 
0.0000000e+00 7.5969780e-05 0.0000000e+00 
0.0000000e+00 2.6015747e-05 0.0000000e+00 
0.0000000e+00 -1.5524407e-05 0.0000000e+00 
0.0000000e+00 -6.9192080e-05 0.0000000e+00 
0.0000000e+00 -3.2442543e-04 0.0000000e+00 
0.0000000e+00 -5.0280575e-04 0.0000000e+00 
0.0000000e+00 -5.3258997e-04 0.0000000e+00 
0.0000000e+00 -5.3937332e-04 0.0000000e+00 
0.0000000e+00 -4.0387554e-04 0.0000000e+00 
0.0000000e+00 -1.4694670e-04 0.0000000e+00 
0.0000000e+00 -1.8113011e-05 0.0000000e+00 
0.0000000e+00 3.3772641e-05 0.0000000e+00 
0.0000000e+00 1.9081901e-05 0.0000000e+00 
0.0000000e+00 7.0129158e-06 0.0000000e+00 
0.0000000e+00 -5.7135317e-06 0.0000000e+00 
0.0000000e+00 -1.5059823e-05 0.0000000e+00 
0.0000000e+00 -4.3072573e-06 0.0000000e+00 
0.0000000e+00 7.5285889e-06 0.0000000e+00 
0.0000000e+00 3.7876575e-06 0.0000000e+00 
0.0000000e+00 -2.2821903e-06 0.0000000e+00 
0.0000000e+00 -1.3123567e-06 0.0000000e+00 
0.0000000e+00 1.6080779e-06 0.0000000e+00 
0.0000000e+00 5.7143944e-07 0.0000000e+00 
2.0732084e-06 -1.2853412e-06 3.6977204e-07 
1.1378424e-06 -1.6855664e-06 -2.5201039e-06 
-5.1369498e-06 -7.6876568e-06 -1.2965495e-05 
-9.9852214e-06 1.8877842e-07 -1.1392824e-05 
9.0843912e-08 5.5109450e-07 -8.8783128e-07 
6.3877927e-08 -2.0829579e-07 -9.6959616e-07 
4.2937316e-07 9.7114075e-08 -5.9807235e-08 
3.4934456e-07 -2.3086243e-07 3.6335209e-07 
-2.6301616e-06 -7.4180730e-07 6.6536522e-06 
-7.1444236e-07 6.7761073e-07 -1.7914385e-06 
1.1169337e-06 5.1439220e-06 -2.1696995e-05 
1.7790060e-06 -4.8753432e-06 -1.0727200e-05 
0.0000000e+00 5.0438466e-05 0.0000000e+00 
0.0000000e+00 1.0285957e-04 0.0000000e+00 
0.0000000e+00 1.3296196e-04 0.0000000e+00 
0.0000000e+00 1.2892115e-04 0.0000000e+00 
0.0000000e+00 1.0544086e-04 0.0000000e+00 
0.0000000e+00 1.4695576e-04 0.0000000e+00 
0.0000000e+00 1.3289935e-04 0.0000000e+00 
0.0000000e+00 1.0134956e-04 0.0000000e+00 
0.0000000e+00 5.6391924e-05 0.0000000e+00 
0.0000000e+00 -2.5706601e-04 0.0000000e+00 
0.0000000e+00 -6.8910478e-04 0.0000000e+00 
0.0000000e+00 -9.9125050e-04 0.0000000e+00 
0.0000000e+00 -1.1114402e-03 0.0000000e+00 