# vtk DataFile Version 4.0
vtk output
ASCII
DATASET UNSTRUCTURED_GRID
POINTS 1919 float
0.0000000e+00 0.0000000e+00 0.0000000e+00 
0.0000000e+00 0.0000000e+00 5.0000000e+01 
5.0000000e+00 0.0000000e+00 0.0000000e+00 
5.0000000e+00 0.0000000e+00 5.0000000e+01 
5.0000000e+00 1.0000000e+00 0.0000000e+00 
5.0000000e+00 1.0000000e+00 5.0000000e+01 
0.0000000e+00 1.0000000e+00 0.0000000e+00 
0.0000000e+00 1.0000000e+00 5.0000000e+01 
5.0000000e+00 2.0000000e+00 0.0000000e+00 
5.0000000e+00 2.0000000e+00 5.0000000e+01 
3.0000000e+00 2.0000000e+00 0.0000000e+00 
3.0000000e+00 2.0000000e+00 5.0000000e+01 
0.0000000e+00 2.0000000e+00 0.0000000e+00 
0.0000000e+00 2.0000000e+00 5.0000000e+01 
1.5000000e+00 3.0000000e+00 0.0000000e+00 
1.5000000e+00 3.0000000e+00 5.0000000e+01 
7.5000000e-01 3.0000000e+00 0.0000000e+00 
7.5000000e-01 3.0000000e+00 5.0000000e+01 
0.0000000e+00 3.0000000e+00 0.0000000e+00 
0.0000000e+00 3.0000000e+00 5.0000000e+01 
7.5000000e-01 3.0000000e+00 5.0000000e-01 
7.5000000e-01 3.0000000e+00 1.0000000e+00 
7.5000000e-01 3.0000000e+00 1.5000000e+00 
7.5000000e-01 3.0000000e+00 2.0000000e+00 
7.5000000e-01 3.0000000e+00 2.5000000e+00 
7.5000000e-01 3.0000000e+00 3.0000000e+00 
7.5000000e-01 3.0000000e+00 3.5000000e+00 
7.5000000e-01 3.0000000e+00 4.0000000e+00 
7.5000000e-01 3.0000000e+00 4.5000000e+00 
7.5000000e-01 3.0000000e+00 5.0000000e+00 
7.5000000e-01 3.0000000e+00 5.5000000e+00 
7.5000000e-01 3.0000000e+00 6.0000000e+00 
7.5000000e-01 3.0000000e+00 6.5000000e+00 
7.5000000e-01 3.0000000e+00 7.0000000e+00 
7.5000000e-01 3.0000000e+00 7.5000000e+00 
7.5000000e-01 3.0000000e+00 8.0000000e+00 
7.5000000e-01 3.0000000e+00 8.5000000e+00 
7.5000000e-01 3.0000000e+00 9.0000000e+00 
7.5000000e-01 3.0000000e+00 9.5000000e+00 
7.5000000e-01 3.0000000e+00 1.0000000e+01 
7.5000000e-01 3.0000000e+00 1.0500000e+01 
7.5000000e-01 3.0000000e+00 1.1000000e+01 
7.5000000e-01 3.0000000e+00 1.1500000e+01 
7.5000000e-01 3.0000000e+00 1.2000000e+01 
7.5000000e-01 3.0000000e+00 1.2500000e+01 
7.5000000e-01 3.0000000e+00 1.3000000e+01 
7.5000000e-01 3.0000000e+00 1.3500000e+01 
7.5000000e-01 3.0000000e+00 1.4000000e+01 
7.5000000e-01 3.0000000e+00 1.4500000e+01 
7.5000000e-01 3.0000000e+00 1.5000000e+01 
7.5000000e-01 3.0000000e+00 1.5500000e+01 
7.5000000e-01 3.0000000e+00 1.6000000e+01 
7.5000000e-01 3.0000000e+00 1.6500000e+01 
7.5000000e-01 3.0000000e+00 1.7000000e+01 
7.5000000e-01 3.0000000e+00 1.7500000e+01 
7.5000000e-01 3.0000000e+00 1.8000000e+01 
7.5000000e-01 3.0000000e+00 1.8500000e+01 
7.5000000e-01 3.0000000e+00 1.9000000e+01 
7.5000000e-01 3.0000000e+00 1.9500000e+01 
7.5000000e-01 3.0000000e+00 2.0000000e+01 
7.5000000e-01 3.0000000e+00 2.0500000e+01 
7.5000000e-01 3.0000000e+00 2.1000000e+01 
7.5000000e-01 3.0000000e+00 2.1500000e+01 
7.5000000e-01 3.0000000e+00 2.2000000e+01 
7.5000000e-01 3.0000000e+00 2.2500000e+01 
7.5000000e-01 3.0000000e+00 2.3000000e+01 
7.5000000e-01 3.0000000e+00 2.3500000e+01 
7.5000000e-01 3.0000000e+00 2.4000000e+01 
7.5000000e-01 3.0000000e+00 2.4500000e+01 
7.5000000e-01 3.0000000e+00 2.5000000e+01 
7.5000000e-01 3.0000000e+00 2.5500000e+01 
7.5000000e-01 3.0000000e+00 2.6000000e+01 
7.5000000e-01 3.0000000e+00 2.6500000e+01 
7.5000000e-01 3.0000000e+00 2.7000000e+01 
7.5000000e-01 3.0000000e+00 2.7500000e+01 
7.5000000e-01 3.0000000e+00 2.8000000e+01 
7.5000000e-01 3.0000000e+00 2.8500000e+01 
7.5000000e-01 3.0000000e+00 2.9000000e+01 
7.5000000e-01 3.0000000e+00 2.9500000e+01 
7.5000000e-01 3.0000000e+00 3.0000000e+01 
7.5000000e-01 3.0000000e+00 3.0500000e+01 
7.5000000e-01 3.0000000e+00 3.1000000e+01 
7.5000000e-01 3.0000000e+00 3.1500000e+01 
7.5000000e-01 3.0000000e+00 3.2000000e+01 
7.5000000e-01 3.0000000e+00 3.2500000e+01 
7.5000000e-01 3.0000000e+00 3.3000000e+01 
7.5000000e-01 3.0000000e+00 3.3500000e+01 
7.5000000e-01 3.0000000e+00 3.4000000e+01 
7.5000000e-01 3.0000000e+00 3.4500000e+01 
7.5000000e-01 3.0000000e+00 3.5000000e+01 
7.5000000e-01 3.0000000e+00 3.5500000e+01 
7.5000000e-01 3.0000000e+00 3.6000000e+01 
7.5000000e-01 3.0000000e+00 3.6500000e+01 
7.5000000e-01 3.0000000e+00 3.7000000e+01 
7.5000000e-01 3.0000000e+00 3.7500000e+01 
7.5000000e-01 3.0000000e+00 3.8000000e+01 
7.5000000e-01 3.0000000e+00 3.8500000e+01 
7.5000000e-01 3.0000000e+00 3.9000000e+01 
7.5000000e-01 3.0000000e+00 3.9500000e+01 
7.5000000e-01 3.0000000e+00 4.0000000e+01 
7.5000000e-01 3.0000000e+00 4.0500000e+01 
7.5000000e-01 3.0000000e+00 4.1000000e+01 
7.5000000e-01 3.0000000e+00 4.1500000e+01 
7.5000000e-01 3.0000000e+00 4.2000000e+01 
7.5000000e-01 3.0000000e+00 4.2500000e+01 
7.5000000e-01 3.0000000e+00 4.3000000e+01 
7.5000000e-01 3.0000000e+00 4.3500000e+01 
7.5000000e-01 3.0000000e+00 4.4000000e+01 
7.5000000e-01 3.0000000e+00 4.4500000e+01 
7.5000000e-01 3.0000000e+00 4.5000000e+01 
7.5000000e-01 3.0000000e+00 4.5500000e+01 
7.5000000e-01 3.0000000e+00 4.6000000e+01 
7.5000000e-01 3.0000000e+00 4.6500000e+01 
7.5000000e-01 3.0000000e+00 4.7000000e+01 
7.5000000e-01 3.0000000e+00 4.7500000e+01 
7.5000000e-01 3.0000000e+00 4.8000000e+01 
7.5000000e-01 3.0000000e+00 4.8500000e+01 
7.5000000e-01 3.0000000e+00 4.9000000e+01 
7.5000000e-01 3.0000000e+00 4.9500000e+01 
7.5000000e-01 3.0250001e+00 0.0000000e+00 
7.5000000e-01 3.0250001e+00 5.0000000e-01 
7.5000000e-01 3.0250001e+00 1.0000000e+00 
7.5000000e-01 3.0250001e+00 1.5000000e+00 
7.5000000e-01 3.0250001e+00 2.0000000e+00 
7.5000000e-01 3.0250001e+00 2.5000000e+00 
7.5000000e-01 3.0250001e+00 3.0000000e+00 
7.5000000e-01 3.0250001e+00 3.5000000e+00 
7.5000000e-01 3.0250001e+00 4.0000000e+00 
7.5000000e-01 3.0250001e+00 4.5000000e+00 
7.5000000e-01 3.0250001e+00 5.0000000e+00 
7.5000000e-01 3.0250001e+00 5.5000000e+00 
7.5000000e-01 3.0250001e+00 6.0000000e+00 
7.5000000e-01 3.0250001e+00 6.5000000e+00 
7.5000000e-01 3.0250001e+00 7.0000000e+00 
7.5000000e-01 3.0250001e+00 7.5000000e+00 
7.5000000e-01 3.0250001e+00 8.0000000e+00 
7.5000000e-01 3.0250001e+00 8.5000000e+00 
7.5000000e-01 3.0250001e+00 9.0000000e+00 
7.5000000e-01 3.0250001e+00 9.5000000e+00 
7.5000000e-01 3.0250001e+00 1.0000000e+01 
7.5000000e-01 3.0250001e+00 1.0500000e+01 
7.5000000e-01 3.0250001e+00 1.1000000e+01 
7.5000000e-01 3.0250001e+00 1.1500000e+01 
7.5000000e-01 3.0250001e+00 1.2000000e+01 
7.5000000e-01 3.0250001e+00 1.2500000e+01 
7.5000000e-01 3.0250001e+00 1.3000000e+01 
7.5000000e-01 3.0250001e+00 1.3500000e+01 
7.5000000e-01 3.0250001e+00 1.4000000e+01 
7.5000000e-01 3.0250001e+00 1.4500000e+01 
7.5000000e-01 3.0250001e+00 1.5000000e+01 
7.5000000e-01 3.0250001e+00 1.5500000e+01 
7.5000000e-01 3.0250001e+00 1.6000000e+01 
7.5000000e-01 3.0250001e+00 1.6500000e+01 
7.5000000e-01 3.0250001e+00 1.7000000e+01 
7.5000000e-01 3.0250001e+00 1.7500000e+01 
7.5000000e-01 3.0250001e+00 1.8000000e+01 
7.5000000e-01 3.0250001e+00 1.8500000e+01 
7.5000000e-01 3.0250001e+00 1.9000000e+01 
7.5000000e-01 3.0250001e+00 1.9500000e+01 
7.5000000e-01 3.0250001e+00 2.0000000e+01 
7.5000000e-01 3.0250001e+00 2.0500000e+01 
7.5000000e-01 3.0250001e+00 2.1000000e+01 
7.5000000e-01 3.0250001e+00 2.1500000e+01 
7.5000000e-01 3.0250001e+00 2.2000000e+01 
7.5000000e-01 3.0250001e+00 2.2500000e+01 
7.5000000e-01 3.0250001e+00 2.3000000e+01 
7.5000000e-01 3.0250001e+00 2.3500000e+01 
7.5000000e-01 3.0250001e+00 2.4000000e+01 
7.5000000e-01 3.0250001e+00 2.4500000e+01 
7.5000000e-01 3.0250001e+00 2.5000000e+01 
7.5000000e-01 3.0250001e+00 2.5500000e+01 
7.5000000e-01 3.0250001e+00 2.6000000e+01 
7.5000000e-01 3.0250001e+00 2.6500000e+01 
7.5000000e-01 3.0250001e+00 2.7000000e+01 
7.5000000e-01 3.0250001e+00 2.7500000e+01 
7.5000000e-01 3.0250001e+00 2.8000000e+01 
7.5000000e-01 3.0250001e+00 2.8500000e+01 
7.5000000e-01 3.0250001e+00 2.9000000e+01 
7.5000000e-01 3.0250001e+00 2.9500000e+01 
7.5000000e-01 3.0250001e+00 3.0000000e+01 
7.5000000e-01 3.0250001e+00 3.0500000e+01 
7.5000000e-01 3.0250001e+00 3.1000000e+01 
7.5000000e-01 3.0250001e+00 3.1500000e+01 
7.5000000e-01 3.0250001e+00 3.2000000e+01 
7.5000000e-01 3.0250001e+00 3.2500000e+01 
7.5000000e-01 3.0250001e+00 3.3000000e+01 
7.5000000e-01 3.0250001e+00 3.3500000e+01 
7.5000000e-01 3.0250001e+00 3.4000000e+01 
7.5000000e-01 3.0250001e+00 3.4500000e+01 
7.5000000e-01 3.0250001e+00 3.5000000e+01 
7.5000000e-01 3.0250001e+00 3.5500000e+01 
7.5000000e-01 3.0250001e+00 3.6000000e+01 
7.5000000e-01 3.0250001e+00 3.6500000e+01 
7.5000000e-01 3.0250001e+00 3.7000000e+01 
7.5000000e-01 3.0250001e+00 3.7500000e+01 
7.5000000e-01 3.0250001e+00 3.8000000e+01 
7.5000000e-01 3.0250001e+00 3.8500000e+01 
7.5000000e-01 3.0250001e+00 3.9000000e+01 
7.5000000e-01 3.0250001e+00 3.9500000e+01 
7.5000000e-01 3.0250001e+00 4.0000000e+01 
7.5000000e-01 3.0250001e+00 4.0500000e+01 
7.5000000e-01 3.0250001e+00 4.1000000e+01 
7.5000000e-01 3.0250001e+00 4.1500000e+01 
7.5000000e-01 3.0250001e+00 4.2000000e+01 
7.5000000e-01 3.0250001e+00 4.2500000e+01 
7.5000000e-01 3.0250001e+00 4.3000000e+01 
7.5000000e-01 3.0250001e+00 4.3500000e+01 
7.5000000e-01 3.0250001e+00 4.4000000e+01 
7.5000000e-01 3.0250001e+00 4.4500000e+01 
7.5000000e-01 3.0250001e+00 4.5000000e+01 
7.5000000e-01 3.0250001e+00 4.5500000e+01 
7.5000000e-01 3.0250001e+00 4.6000000e+01 
7.5000000e-01 3.0250001e+00 4.6500000e+01 
7.5000000e-01 3.0250001e+00 4.7000000e+01 
7.5000000e-01 3.0250001e+00 4.7500000e+01 
7.5000000e-01 3.0250001e+00 4.8000000e+01 
7.5000000e-01 3.0250001e+00 4.8500000e+01 
7.5000000e-01 3.0250001e+00 4.9000000e+01 
7.5000000e-01 3.0250001e+00 4.9500000e+01 
7.5000000e-01 3.0250001e+00 5.0000000e+01 
1.5000000e+00 3.0000000e+00 2.5000000e+01 
3.0000000e+00 2.0000000e+00 2.5000000e+01 
4.0000000e+00 2.0000000e+00 2.5000000e+01 
5.0000000e+00 2.0000000e+00 2.5000000e+01 
0.0000000e+00 3.0000000e+00 2.5000000e+01 
0.0000000e+00 0.0000000e+00 1.0000000e+00 
0.0000000e+00 0.0000000e+00 2.0000000e+00 
0.0000000e+00 0.0000000e+00 3.0000000e+00 
0.0000000e+00 0.0000000e+00 4.0000000e+00 
0.0000000e+00 0.0000000e+00 5.0000000e+00 
[...]
POINT_DATA 1919
FIELD FieldData 3
DISPLACEMENT 3 1919  float
0.0000000e+00 0.0000000e+00 0.0000000e+00 
0.0000000e+00 0.0000000e+00 0.0000000e+00 
0.0000000e+00 0.0000000e+00 0.0000000e+00 
0.0000000e+00 0.0000000e+00 0.0000000e+00 
2.9824719e-06 -1.8971665e-06 -2.3683147e-06 
-3.3625460e-07 1.0029824e-07 -5.6927723e-07 
0.0000000e+00 1.1846970e-05 0.0000000e+00 
0.0000000e+00 -2.1845326e-06 0.0000000e+00 
4.9978908e-06 4.0562375e-07 -3.1651207e-06 
-1.4879296e-07 -2.4035492e-07 -4.6927616e-07 
5.8003134e-06 -3.9007155e-06 -9.5784017e-06 
-2.5892734e-07 -6.0951049e-07 2.1647462e-07 
0.0000000e+00 1.6936947e-05 0.0000000e+00 
0.0000000e+00 -3.8092942e-06 0.0000000e+00 
6.5939589e-06 -9.8027240e-06 -1.4313025e-05 
-1.0420010e-06 -5.9610379e-06 1.3741856e-06 
1.3263071e-05 -2.0587182e-05 -4.5473535e-06 
2.5931752e-06 -2.8872603e-06 -9.9712543e-06 
0.0000000e+00 1.6211199e-05 0.0000000e+00 
0.0000000e+00 -1.2167869e-06 0.0000000e+00 
6.2525887e-06 -1.6814183e-05 -3.4242987e-06 
1.9810063e-06 -9.1089642e-06 2.2396824e-07 
2.4809210e-06 -2.1771609e-06 2.4434328e-06 
-7.4597210e-07 2.2602956e-06 3.1475402e-06 
-1.3702705e-06 6.3641428e-06 -9.7631084e-07 
2.7078024e-06 1.3480726e-05 -6.0088491e-06 
2.2486208e-06 2.3497527e-05 -6.0345833e-06 
1.1346856e-06 3.2468386e-05 -2.3728162e-06 
-1.1842749e-06 3.6104822e-05 -1.7445763e-06 
-2.7890114e-06 3.3174103e-05 5.8723487e-07 
1.2595234e-06 2.9218321e-05 -6.3499519e-06 
-4.1236726e-06 3.0977360e-05 -1.9059458e-05 
-3.5436069e-06 3.9666356e-05 -2.2027716e-05 
5.8101127e-06 4.7389134e-05 -1.4604970e-05 
2.1379183e-05 4.2197495e-05 -6.5293139e-06 
9.7521133e-06 2.1785581e-05 -5.1950883e-06 
9.1733580e-07 2.8122781e-06 -4.6648233e-06 
1.9708655e-06 4.9136793e-06 -7.7037630e-06 
4.7025114e-06 2.7318052e-05 5.7550683e-06 
1.1461399e-05 5.3926949e-05 1.1512489e-05 
2.1515054e-05 6.4858417e-05 2.9485145e-05 
1.6842096e-05 4.8391459e-05 5.8046640e-05 
5.7681741e-06 2.1408743e-05 7.7446624e-05 
6.2625254e-06 8.8545748e-06 9.9683035e-05 
5.5709602e-06 -2.1997592e-05 1.4346931e-04 
-1.6672028e-06 -1.8105831e-04 1.4847176e-04 
-4.4703673e-05 -6.0301641e-04 2.3914927e-04 
-7.6031654e-05 -1.3640792e-03 2.1300322e-04 
-1.4116381e-04 -2.4302669e-03 2.9293494e-04 
-1.7555009e-04 -3.6156641e-03 1.0499146e-04 
-2.5417583e-04 -4.6252268e-03 1.9273136e-04 
-2.8208239e-04 -4.9615842e-03 4.2232361e-05 
-3.0583329e-04 -4.6760966e-03 -2.2632827e-05 
-5.3289061e-04 -4.4549117e-03 -4.5277167e-05 
-2.6601949e-04 -4.5381985e-03 -4.1827781e-05 
-2.4717610e-04 -4.6659247e-03 -1.3657969e-04 
-2.0141956e-04 -4.1960841e-03 -3.0432880e-04 
-1.4812525e-04 -2.9359034e-03 -2.2242848e-04 
-7.0801325e-05 -1.6240237e-03 -3.4078606e-04 
-4.2698146e-05 -6.5918313e-04 -2.0416071e-04 
1.6842603e-05 -8.7438944e-05 -1.8546630e-04 
3.0353058e-05 1.8697034e-04 -1.0108648e-04 
3.3602442e-05 2.6086878e-04 -5.2207986e-05 
2.6223499e-05 2.1795809e-04 -3.4394205e-05 
3.1121406e-05 1.3432112e-04 -2.4781139e-06 
2.1327900e-05 6.5752640e-05 -5.3169606e-06 
5.4516172e-06 3.3561482e-05 1.4249361e-05 
-1.3043007e-06 2.5671785e-05 2.2004291e-05 
5.8159535e-06 2.3596534e-05 2.5533083e-05 
4.2859574e-06 2.0316573e-05 2.6809310e-05 
-3.5701869e-06 1.9164596e-05 1.6492577e-05 
-6.6191947e-06 2.2380495e-05 1.0428307e-05 
-1.0075033e-05 2.9645744e-05 3.4171085e-06 
-7.5702592e-06 4.0529001e-05 5.9552483e-09 
4.0407708e-06 5.1634524e-05 5.6229709e-07 
2.9709818e-06 5.1061386e-05 -2.0988084e-06 
1.3860443e-06 3.5403304e-05 3.3653673e-06 
7.0911306e-06 1.8264083e-05 3.3538167e-06 
2.4383389e-06 2.2716846e-05 9.7519569e-06 
8.0667014e-06 6.0321287e-05 1.1683237e-05 
2.1725629e-05 1.0462973e-04 2.3073295e-05 
2.0960069e-05 1.1017083e-04 2.4316656e-05 
6.0125385e-06 6.5262517e-05 4.0912830e-05 
1.0038667e-05 -1.3836126e-05 7.1797069e-05 
-3.0359583e-06 -1.2377018e-04 1.2317562e-04 
-9.8091732e-06 -3.1006700e-04 1.3387024e-04 
-4.4222714e-05 -7.0683775e-04 2.4323321e-04 
-7.9410107e-05 -1.4779089e-03 1.8614731e-04 
-1.4009191e-04 -2.6536284e-03 2.8533171e-04 
-1.7969616e-04 -3.9657699e-03 1.2409130e-04 
-2.6114166e-04 -4.9161837e-03 1.7514001e-04 
-2.8137880e-04 -4.9100667e-03 3.2131211e-05 
-2.6552437e-04 -4.4749305e-03 -4.8095615e-05 
-3.1503898e-04 -4.3414719e-03 -9.3285802e-05 
-3.4334409e-04 -4.6732626e-03 -1.3939106e-04 
-6.2347262e-04 -4.8714536e-03 -1.9130993e-04 
-2.4349804e-04 -4.1198181e-03 -2.6517047e-04 
-1.3823393e-04 -2.7570585e-03 -1.9196954e-04 
-7.5971919e-05 -1.4613605e-03 -3.0674168e-04 
-4.7003952e-05 -5.2582956e-04 -1.8240487e-04 
7.9070469e-06 1.1663516e-05 -1.6422036e-04 
2.2388871e-05 2.2698680e-04 -8.7278793e-05 
2.8915840e-05 2.3545598e-04 -3.8771112e-05 
2.4317544e-05 1.5875584e-04 -1.2603794e-05 
1.9039358e-05 8.4174892e-05 1.3509100e-05 
1.5749898e-05 3.5667548e-05 1.3869405e-05 
7.9785405e-06 3.9063348e-06 2.1706326e-05 
7.2155217e-06 -1.8150396e-05 2.2676015e-05 
5.1638153e-06 -2.6365842e-05 2.1620997e-05 
-1.8304711e-06 -1.9069825e-05 2.2439042e-05 
-2.8879326e-06 -4.1533872e-06 2.2852180e-05 
-1.9784975e-06 6.4560750e-06 1.8859650e-05 
-1.0347673e-05 7.5467233e-06 7.3416709e-06 
-7.0645397e-06 3.6895262e-06 -1.1431329e-06 
8.4868412e-07 1.5720447e-06 -4.5321458e-06 
-2.1368594e-07 2.3410971e-06 -1.7466239e-06 
1.6743810e-06 3.1048646e-06 5.0795320e-06 
-1.2179727e-07 1.6363376e-06 6.1478481e-06 
-3.0091539e-06 -1.3506028e-06 1.6094855e-06 
0.0000000e+00 -2.0420659e-05 0.0000000e+00 
0.0000000e+00 -1.6810563e-05 0.0000000e+00 
0.0000000e+00 -9.2385380e-06 0.0000000e+00 
0.0000000e+00 -2.3234963e-06 0.0000000e+00 
0.0000000e+00 2.2171271e-06 0.0000000e+00 
0.0000000e+00 6.4645283e-06 0.0000000e+00 
0.0000000e+00 1.3619970e-05 0.0000000e+00 
0.0000000e+00 2.3593930e-05 0.0000000e+00 
0.0000000e+00 3.2433549e-05 0.0000000e+00 
0.0000000e+00 3.5867110e-05 0.0000000e+00 
0.0000000e+00 3.3102002e-05 0.0000000e+00 
0.0000000e+00 2.9354142e-05 0.0000000e+00 
0.0000000e+00 3.1279596e-05 0.0000000e+00 
0.0000000e+00 3.9996066e-05 0.0000000e+00 
0.0000000e+00 4.7293626e-05 0.0000000e+00 
0.0000000e+00 4.1518288e-05 0.0000000e+00 
0.0000000e+00 2.1436052e-05 0.0000000e+00 
0.0000000e+00 3.3128999e-06 0.0000000e+00 
0.0000000e+00 5.5052146e-06 0.0000000e+00 
0.0000000e+00 2.7849090e-05 0.0000000e+00 
0.0000000e+00 5.3958905e-05 0.0000000e+00 
0.0000000e+00 6.3717947e-05 0.0000000e+00 
0.0000000e+00 4.7692200e-05 0.0000000e+00 
0.0000000e+00 2.2988754e-05 0.0000000e+00 
0.0000000e+00 1.1543863e-05 0.0000000e+00 
0.0000000e+00 -2.0029307e-05 0.0000000e+00 
0.0000000e+00 -1.8186716e-04 0.0000000e+00 
0.0000000e+00 -6.0734904e-04 0.0000000e+00 
0.0000000e+00 -1.3711327e-03 0.0000000e+00 
0.0000000e+00 -2.4349729e-03 0.0000000e+00 
0.0000000e+00 -3.6309191e-03 0.0000000e+00 
0.0000000e+00 -4.6480200e-03 0.0000000e+00 
0.0000000e+00 -4.9979002e-03 0.0000000e+00 
0.0000000e+00 -4.7055031e-03 0.0000000e+00 
0.0000000e+00 -4.4717616e-03 0.0000000e+00 
0.0000000e+00 -4.5598228e-03 0.0000000e+00 
0.0000000e+00 -4.6947924e-03 0.0000000e+00 
0.0000000e+00 -4.2217653e-03 0.0000000e+00 
0.0000000e+00 -2.9603699e-03 0.0000000e+00 
0.0000000e+00 -1.6350466e-03 0.0000000e+00 
0.0000000e+00 -6.6311151e-04 0.0000000e+00 
0.0000000e+00 -8.7361361e-05 0.0000000e+00 
0.0000000e+00 1.8729069e-04 0.0000000e+00 
0.0000000e+00 2.6148924e-04 0.0000000e+00 
0.0000000e+00 2.1924572e-04 0.0000000e+00 
0.0000000e+00 1.3564604e-04 0.0000000e+00 
0.0000000e+00 6.6519497e-05 0.0000000e+00 
0.0000000e+00 3.3557233e-05 0.0000000e+00 
0.0000000e+00 2.5469539e-05 0.0000000e+00 
0.0000000e+00 2.3547142e-05 0.0000000e+00 
0.0000000e+00 2.0417754e-05 0.0000000e+00 
0.0000000e+00 1.9046920e-05 0.0000000e+00 
0.0000000e+00 2.2171322e-05 0.0000000e+00 
0.0000000e+00 2.9832447e-05 0.0000000e+00 
0.0000000e+00 4.1139472e-05 0.0000000e+00 
0.0000000e+00 5.1562558e-05 0.0000000e+00 
0.0000000e+00 5.0459395e-05 0.0000000e+00 
0.0000000e+00 3.4710014e-05 0.0000000e+00 
0.0000000e+00 1.8329083e-05 0.0000000e+00 
0.0000000e+00 2.4294199e-05 0.0000000e+00 
0.0000000e+00 6.1476989e-05 0.0000000e+00 
0.0000000e+00 1.0371468e-04 0.0000000e+00 
0.0000000e+00 1.0915461e-04 0.0000000e+00 
0.0000000e+00 6.5191591e-05 0.0000000e+00 
0.0000000e+00 -1.2700199e-05 0.0000000e+00 
0.0000000e+00 -1.2040661e-04 0.0000000e+00 
0.0000000e+00 -3.0790249e-04 0.0000000e+00 
0.0000000e+00 -7.1039906e-04 0.0000000e+00 
0.0000000e+00 -1.4887506e-03 0.0000000e+00 
0.0000000e+00 -2.6635162e-03 0.0000000e+00 
0.0000000e+00 -3.9852820e-03 0.0000000e+00 
0.0000000e+00 -4.9366783e-03 0.0000000e+00 
0.0000000e+00 -4.9418551e-03 0.0000000e+00 
0.0000000e+00 -4.5007467e-03 0.0000000e+00 
0.0000000e+00 -4.3701171e-03 0.0000000e+00 
0.0000000e+00 -4.6959897e-03 0.0000000e+00 
0.0000000e+00 -4.8911176e-03 0.0000000e+00 
0.0000000e+00 -4.1484740e-03 0.0000000e+00 
0.0000000e+00 -2.7767674e-03 0.0000000e+00 
0.0000000e+00 -1.4693438e-03 0.0000000e+00 
0.0000000e+00 -5.2979711e-04 0.0000000e+00 
0.0000000e+00 1.0422654e-05 0.0000000e+00 
0.0000000e+00 2.2747142e-04 0.0000000e+00 
0.0000000e+00 2.3721806e-04 0.0000000e+00 
0.0000000e+00 1.6100277e-04 0.0000000e+00 
0.0000000e+00 8.4990541e-05 0.0000000e+00 
0.0000000e+00 3.5362686e-05 0.0000000e+00 
0.0000000e+00 3.6422314e-06 0.0000000e+00 
0.0000000e+00 -1.7833001e-05 0.0000000e+00 
0.0000000e+00 -2.6057740e-05 0.0000000e+00 
0.0000000e+00 -1.9148842e-05 0.0000000e+00 
0.0000000e+00 -4.4791377e-06 0.0000000e+00 
0.0000000e+00 6.2311351e-06 0.0000000e+00 
0.0000000e+00 7.6074107e-06 0.0000000e+00 
0.0000000e+00 3.8832777e-06 0.0000000e+00 
0.0000000e+00 1.6061823e-06 0.0000000e+00 
0.0000000e+00 2.2579707e-06 0.0000000e+00 
0.0000000e+00 3.0647213e-06 0.0000000e+00 
0.0000000e+00 1.6488002e-06 0.0000000e+00 
0.0000000e+00 -1.3157064e-06 0.0000000e+00 
0.0000000e+00 -2.8899212e-06 0.0000000e+00 
5.4063503e-06 -2.7828119e-06 3.6174024e-05 
-4.0579012e-06 -1.5422254e-06 7.8498624e-06 
-2.2548727e-06 -2.0486448e-06 6.3391744e-06 
3.4367456e-06 -4.0169198e-06 1.7449893e-06 
0.0000000e+00 -3.4582386e-05 0.0000000e+00 
0.0000000e+00 0.0000000e+00 0.0000000e+00 
0.0000000e+00 0.0000000e+00 0.0000000e+00 
0.0000000e+00 0.0000000e+00 0.0000000e+00 
0.0000000e+00 0.0000000e+00 0.0000000e+00 
0.0000000e+00 0.0000000e+00 0.0000000e+00 
0.0000000e+00 0.0000000e+00 0.0000000e+00 
0.0000000e+00 0.0000000e+00 0.0000000e+00 
0.0000000e+00 0.0000000e+00 0.0000000e+00 
0.0000000e+00 0.0000000e+00 0.0000000e+00 
0.0000000e+00 0.0000000e+00 0.0000000e+00 
0.0000000e+00 0.0000000e+00 0.0000000e+00 
0.0000000e+00 0.0000000e+00 0.0000000e+00 
0.0000000e+00 0.0000000e+00 0.0000000e+00 
0.0000000e+00 0.0000000e+00 0.0000000e+00 
0.0000000e+00 0.0000000e+00 0.0000000e+00 
0.0000000e+00 0.0000000e+00 0.0000000e+00 
0.0000000e+00 0.0000000e+00 0.0000000e+00 
0.0000000e+00 0.0000000e+00 0.0000000e+00 
0.0000000e+00 0.0000000e+00 0.0000000e+00 
0.0000000e+00 0.0000000e+00 0.0000000e+00 
0.0000000e+00 0.0000000e+00 0.0000000e+00 
0.0000000e+00 0.0000000e+00 0.0000000e+00 
0.0000000e+00 0.0000000e+00 0.0000000e+00 
0.0000000e+00 0.0000000e+00 0.0000000e+00 
0.0000000e+00 0.0000000e+00 0.0000000e+00 
0.0000000e+00 0.0000000e+00 0.0000000e+00 
0.0000000e+00 0.0000000e+00 0.0000000e+00 
0.0000000e+00 0.0000000e+00 0.0000000e+00 
0.0000000e+00 0.0000000e+00 0.0000000e+00 
0.0000000e+00 0.0000000e+00 0.0000000e+00 
0.0000000e+00 0.0000000e+00 0.0000000e+00 
0.0000000e+00 0.0000000e+00 0.0000000e+00 
0.0000000e+00 0.0000000e+00 0.0000000e+00 
0.0000000e+00 0.0000000e+00 0.0000000e+00 
0.0000000e+00 0.0000000e+00 0.0000000e+00 
0.0000000e+00 0.0000000e+00 0.0000000e+00 
0.0000000e+00 0.0000000e+00 0.0000000e+00 
0.0000000e+00 0.0000000e+00 0.0000000e+00 
0.0000000e+00 0.0000000e+00 0.0000000e+00 
0.0000000e+00 0.0000000e+00 0.0000000e+00 
0.0000000e+00 0.0000000e+00 0.0000000e+00 
0.0000000e+00 0.0000000e+00 0.0000000e+00 
0.0000000e+00 0.0000000e+00 0.0000000e+00 
0.0000000e+00 0.0000000e+00 0.0000000e+00 
0.0000000e+00 0.0000000e+00 0.0000000e+00 
0.0000000e+00 0.0000000e+00 0.0000000e+00 
0.0000000e+00 0.0000000e+00 0.0000000e+00 
0.0000000e+00 0.0000000e+00 0.0000000e+00 
0.0000000e+00 0.0000000e+00 0.0000000e+00 
0.0000000e+00 0.0000000e+00 0.0000000e+00 
0.0000000e+00 0.0000000e+00 0.0000000e+00 
0.0000000e+00 0.0000000e+00 0.0000000e+00 
0.0000000e+00 0.0000000e+00 0.0000000e+00 
0.0000000e+00 0.0000000e+00 0.0000000e+00 
0.0000000e+00 0.0000000e+00 0.0000000e+00 
0.0000000e+00 0.0000000e+00 0.0000000e+00 
0.0000000e+00 0.0000000e+00 0.0000000e+00 
0.0000000e+00 0.0000000e+00 0.0000000e+00 
0.0000000e+00 0.0000000e+00 0.0000000e+00 
0.0000000e+00 0.0000000e+00 0.0000000e+00 
0.0000000e+00 0.0000000e+00 0.0000000e+00 
0.0000000e+00 0.0000000e+00 0.0000000e+00 
0.0000000e+00 0.0000000e+00 0.0000000e+00 
0.0000000e+00 0.0000000e+00 0.0000000e+00 
0.0000000e+00 0.0000000e+00 0.0000000e+00 
0.0000000e+00 0.0000000e+00 0.0000000e+00 
0.0000000e+00 0.0000000e+00 0.0000000e+00 
0.0000000e+00 0.0000000e+00 0.0000000e+00 
0.0000000e+00 0.0000000e+00 0.0000000e+00 
0.0000000e+00 0.0000000e+00 0.0000000e+00 
0.0000000e+00 0.0000000e+00 0.0000000e+00 
0.0000000e+00 0.0000000e+00 0.0000000e+00 
0.0000000e+00 0.0000000e+00 0.0000000e+00 
0.0000000e+00 0.0000000e+00 0.0000000e+00 
0.0000000e+00 0.0000000e+00 0.0000000e+00 
0.0000000e+00 0.0000000e+00 0.0000000e+00 
0.0000000e+00 0.0000000e+00 0.0000000e+00 
0.0000000e+00 0.0000000e+00 0.0000000e+00 
0.0000000e+00 0.0000000e+00 0.0000000e+00 
0.0000000e+00 0.0000000e+00 0.0000000e+00 
0.0000000e+00 0.0000000e+00 0.0000000e+00 
0.0000000e+00 0.0000000e+00 0.0000000e+00 
0.0000000e+00 0.0000000e+00 0.0000000e+00 
0.0000000e+00 0.0000000e+00 0.0000000e+00 
0.0000000e+00 0.0000000e+00 0.0000000e+00 
0.0000000e+00 0.0000000e+00 0.0000000e+00 
0.0000000e+00 0.0000000e+00 0.0000000e+00 
0.0000000e+00 0.0000000e+00 0.0000000e+00 
0.0000000e+00 0.0000000e+00 0.0000000e+00 
0.0000000e+00 0.0000000e+00 0.0000000e+00 
0.0000000e+00 0.0000000e+00 0.0000000e+00 
0.0000000e+00 0.0000000e+00 0.0000000e+00 
0.0000000e+00 0.0000000e+00 0.0000000e+00 
0.0000000e+00 0.0000000e+00 0.0000000e+00 
0.0000000e+00 0.0000000e+00 0.0000000e+00 
0.0000000e+00 0.0000000e+00 0.0000000e+00 
0.0000000e+00 0.0000000e+00 0.0000000e+00 
0.0000000e+00 0.0000000e+00 0.0000000e+00 
0.0000000e+00 0.0000000e+00 0.0000000e+00 
0.0000000e+00 0.0000000e+00 0.0000000e+00 
0.0000000e+00 0.0000000e+00 0.0000000e+00 
0.0000000e+00 0.0000000e+00 0.0000000e+00 
0.0000000e+00 0.0000000e+00 0.0000000e+00 
0.0000000e+00 0.0000000e+00 0.0000000e+00 
0.0000000e+00 0.0000000e+00 0.0000000e+00 
0.0000000e+00 0.0000000e+00 0.0000000e+00 
4.1124235e-06 -6.6313299e-07 -4.3232949e-06 
4.9997361e-06 2.0802038e-06 -1.7047940e-06 
8.1812204e-06 2.9229236e-06 -3.2727276e-06 
9.4528477e-06 2.7768353e-06 -6.3141310e-06 
8.2330926e-06 -9.9362580e-07 -1.5485438e-06 
9.7042293e-06 6.5847762e-06 -2.6931818e-06 
9.2259215e-06 -2.7016037e-07 -3.4369539e-06 
8.8603847e-06 -3.2981845e-07 -2.7026607e-07 
8.6327373e-06 4.9135315e-06 -2.3976381e-06 
8.5373495e-06 -3.3571078e-07 2.3472080e-06 
7.3286960e-06 4.7724725e-06 1.4804189e-06 
1.7773473e-05 -3.8070834e-07 -1.5820950e-06 
2.3462799e-05 -6.5128229e-06 -4.7945065e-08 
3.0435431e-05 -1.1082263e-05 -6.9298749e-06 
4.2915126e-05 -1.8252955e-05 -3.4113771e-06 
4.3011645e-05 -2.6444557e-05 -4.1584958e-06 
4.7704085e-05 -2.0335927e-05 6.2249137e-07 
3.9309125e-05 -1.1627904e-05 1.0455124e-06 
3.1731939e-05 -5.5578689e-06 4.4773342e-06 
1.7421307e-05 -2.5450497e-06 2.3664377e-06 
1.2109625e-05 -3.2137859e-07 -1.8237671e-06 
7.7572058e-06 2.6973021e-06 1.5294781e-06 
4.1576172e-06 1.2733855e-06 5.0378833e-07 
6.6100133e-06 -1.7273641e-06 -4.5642625e-07 
9.5492660e-06 -3.4154421e-06 4.4595968e-06 
9.2036726e-06 4.9529594e-06 5.0825079e-06 
7.7603236e-06 -5.5126458e-07 1.1101355e-06 
8.3367386e-06 -4.0840678e-06 9.9565136e-07 
9.4280385e-06 2.4992173e-06 -1.6044688e-06 
1.3906058e-05 -1.3560477e-06 -1.4229133e-06 
1.1366540e-05 -6.0308353e-06 -2.8071217e-06 
1.7559787e-05 2.1492999e-06 -4.6420873e-06 
2.2990218e-05 -1.3272837e-05 -1.0690148e-05 
3.3096232e-05 -1.1095872e-05 -1.1554130e-05 
4.1660747e-05 -1.8582401e-05 -8.2513225e-06 
4.5391647e-05 -2.1120826e-05 -4.6165242e-06 
4.5413610e-05 -1.5028851e-05 -1.2425211e-06 
3.6705806e-05 -8.2492688e-06 4.0690820e-06 
2.6350326e-05 -5.5242549e-06 7.5849443e-06 
1.3013853e-05 1.9970386e-07 7.0656833e-06 
4.7482431e-06 -5.2827414e-07 6.3334260e-06 
1.6774659e-07 1.0668758e-07 5.2979949e-06 
-1.0799888e-07 -8.0767171e-07 5.1483885e-06 
6.4003348e-07 -2.1370925e-06 4.9052883e-06 
2.0224622e-06 -1.2837248e-06 4.0947612e-06 
2.0333330e-06 -6.7281707e-07 3.1237296e-06 
1.4403515e-06 5.7363772e-09 2.4577466e-06 
2.3290536e-09 2.5368101e-07 8.5411421e-07 
-7.3015519e-07 2.0347515e-07 -3.5515055e-07 
0.0000000e+00 6.1345759e-06 0.0000000e+00 
0.0000000e+00 -8.8125007e-06 0.0000000e+00 
0.0000000e+00 -1.1625154e-05 0.0000000e+00 
0.0000000e+00 -2.4122453e-05 0.0000000e+00 
0.0000000e+00 -3.5458026e-05 0.0000000e+00 
0.0000000e+00 -2.6972702e-05 0.0000000e+00 
0.0000000e+00 -3.3537322e-05 0.0000000e+00 
0.0000000e+00 -3.3042201e-05 0.0000000e+00 
0.0000000e+00 -7.9370984e-06 0.0000000e+00 
0.0000000e+00 -7.2579760e-06 0.0000000e+00 
0.0000000e+00 -9.7285711e-06 0.0000000e+00 
0.0000000e+00 3.3202210e-05 0.0000000e+00 
0.0000000e+00 -8.5590400e-05 0.0000000e+00 
0.0000000e+00 -2.2878931e-04 0.0000000e+00 
0.0000000e+00 -3.8438718e-04 0.0000000e+00 
0.0000000e+00 -4.9211137e-04 0.0000000e+00 
0.0000000e+00 -5.3762033e-04 0.0000000e+00 
0.0000000e+00 -4.7132830e-04 0.0000000e+00 
0.0000000e+00 -2.9682557e-04 0.0000000e+00 
0.0000000e+00 -1.0519028e-04 0.0000000e+00 
0.0000000e+00 -3.4886889e-06 0.0000000e+00 
0.0000000e+00 -1.8891975e-06 0.0000000e+00 
0.0000000e+00 -1.2430271e-05 0.0000000e+00 
0.0000000e+00 -1.8479659e-05 0.0000000e+00 
0.0000000e+00 -4.7663743e-05 0.0000000e+00 
0.0000000e+00 -4.5210880e-05 0.0000000e+00 
0.0000000e+00 -2.3764396e-05 0.0000000e+00 
0.0000000e+00 -4.6929192e-05 0.0000000e+00 
0.0000000e+00 -2.9229293e-05 0.0000000e+00 
0.0000000e+00 4.4010567e-06 0.0000000e+00 
0.0000000e+00 -1.9847417e-05 0.0000000e+00 
0.0000000e+00 1.4192171e-05 0.0000000e+00 
0.0000000e+00 -3.0953761e-05 0.0000000e+00 
0.0000000e+00 -2.7420546e-04 0.0000000e+00 
0.0000000e+00 -3.9746106e-04 0.0000000e+00 
0.0000000e+00 -5.3181924e-04 0.0000000e+00 
0.0000000e+00 -5.6054862e-04 0.0000000e+00 
0.0000000e+00 -4.6619540e-04 0.0000000e+00 
0.0000000e+00 -2.9373166e-04 0.0000000e+00 
0.0000000e+00 -1.0446749e-04 0.0000000e+00 
0.0000000e+00 5.6031413e-06 0.0000000e+00 
0.0000000e+00 2.4619996e-05 0.0000000e+00 
0.0000000e+00 1.2232847e-05 0.0000000e+00 
0.0000000e+00 -2.1413225e-06 0.0000000e+00 
0.0000000e+00 -6.4681722e-06 0.0000000e+00 
0.0000000e+00 -2.4843789e-06 0.0000000e+00 
0.0000000e+00 -2.6775726e-07 0.0000000e+00 
0.0000000e+00 2.0149923e-06 0.0000000e+00 
0.0000000e+00 1.5856302e-06 0.0000000e+00 
4.6418186e-06 -1.6832528e-06 -4.8218531e-06 
3.7288969e-06 -4.9794073e-07 -3.1167790e-06 
7.6275626e-07 2.4972539e-07 -2.6173541e-06 
-9.2686531e-07 6.4226615e-06 3.6603802e-07 
-6.7459621e-07 -8.1232109e-08 -6.9149814e-07 
-2.6760341e-07 1.1940182e-07 -1.3491741e-06 
4.3563546e-07 2.7639041e-07 -8.3360487e-07 
7.1135901e-07 -8.4467939e-07 2.9108259e-07 
4.7357812e-06 -1.8583906e-06 -7.0413375e-06 
-4.4158901e-07 -9.1240530e-08 -1.7714056e-07 
4.2506504e-06 -1.6395726e-06 -1.0513437e-06 
6.0965831e-06 -2.6835307e-06 -1.0511637e-05 
0.0000000e+00 3.3127340e-06 0.0000000e+00 
0.0000000e+00 -7.2274320e-06 0.0000000e+00 
0.0000000e+00 -1.6844697e-05 0.0000000e+00 
0.0000000e+00 -3.7028683e-05 0.0000000e+00 
0.0000000e+00 -4.7705540e-05 0.0000000e+00 
0.0000000e+00 -4.6175115e-05 0.0000000e+00 
0.0000000e+00 -5.3860113e-05 0.0000000e+00 
0.0000000e+00 -4.4728582e-05 0.0000000e+00 
0.0000000e+00 -1.2824855e-05 0.0000000e+00 
0.0000000e+00 -2.1835272e-05 0.0000000e+00 
0.0000000e+00 -7.9670945e-06 0.0000000e+00 
0.0000000e+00 6.2190527e-05 0.0000000e+00 
0.0000000e+00 -1.7163838e-04 0.0000000e+00 
0.0000000e+00 -4.5497940e-04 0.0000000e+00 