# vtk DataFile Version 4.0
vtk output
ASCII
DATASET UNSTRUCTURED_GRID
POINTS 1919 float
0.0000000e+00 0.0000000e+00 0.0000000e+00 
0.0000000e+00 0.0000000e+00 5.0000000e+01 
5.0000000e+00 0.0000000e+00 0.0000000e+00 
5.0000000e+00 0.0000000e+00 5.0000000e+01 
5.0000000e+00 1.0000000e+00 0.0000000e+00 
5.0000000e+00 1.0000000e+00 5.0000000e+01 
0.0000000e+00 1.0000000e+00 0.0000000e+00 
0.0000000e+00 1.0000000e+00 5.0000000e+01 
5.0000000e+00 2.0000000e+00 0.0000000e+00 
5.0000000e+00 2.0000000e+00 5.0000000e+01 
3.0000000e+00 2.0000000e+00 0.0000000e+00 
3.0000000e+00 2.0000000e+00 5.0000000e+01 
0.0000000e+00 2.0000000e+00 0.0000000e+00 
0.0000000e+00 2.0000000e+00 5.0000000e+01 
1.5000000e+00 3.0000000e+00 0.0000000e+00 
1.5000000e+00 3.0000000e+00 5.0000000e+01 
7.5000000e-01 3.0000000e+00 0.0000000e+00 
7.5000000e-01 3.0000000e+00 5.0000000e+01 
0.0000000e+00 3.0000000e+00 0.0000000e+00 
0.0000000e+00 3.0000000e+00 5.0000000e+01 
7.5000000e-01 3.0000000e+00 5.0000000e-01 
7.5000000e-01 3.0000000e+00 1.0000000e+00 
7.5000000e-01 3.0000000e+00 1.5000000e+00 
7.5000000e-01 3.0000000e+00 2.0000000e+00 
7.5000000e-01 3.0000000e+00 2.5000000e+00 
7.5000000e-01 3.0000000e+00 3.0000000e+00 
7.5000000e-01 3.0000000e+00 3.5000000e+00 
7.5000000e-01 3.0000000e+00 4.0000000e+00 
7.5000000e-01 3.0000000e+00 4.5000000e+00 
7.5000000e-01 3.0000000e+00 5.0000000e+00 
7.5000000e-01 3.0000000e+00 5.5000000e+00 
7.5000000e-01 3.0000000e+00 6.0000000e+00 
7.5000000e-01 3.0000000e+00 6.5000000e+00 
7.5000000e-01 3.0000000e+00 7.0000000e+00 
7.5000000e-01 3.0000000e+00 7.5000000e+00 
7.5000000e-01 3.0000000e+00 8.0000000e+00 
7.5000000e-01 3.0000000e+00 8.5000000e+00 
7.5000000e-01 3.0000000e+00 9.0000000e+00 
7.5000000e-01 3.0000000e+00 9.5000000e+00 
7.5000000e-01 3.0000000e+00 1.0000000e+01 
7.5000000e-01 3.0000000e+00 1.0500000e+01 
7.5000000e-01 3.0000000e+00 1.1000000e+01 
7.5000000e-01 3.0000000e+00 1.1500000e+01 
7.5000000e-01 3.0000000e+00 1.2000000e+01 
7.5000000e-01 3.0000000e+00 1.2500000e+01 
7.5000000e-01 3.0000000e+00 1.3000000e+01 
7.5000000e-01 3.0000000e+00 1.3500000e+01 
7.5000000e-01 3.0000000e+00 1.4000000e+01 
7.5000000e-01 3.0000000e+00 1.4500000e+01 
7.5000000e-01 3.0000000e+00 1.5000000e+01 
7.5000000e-01 3.0000000e+00 1.5500000e+01 
7.5000000e-01 3.0000000e+00 1.6000000e+01 
7.5000000e-01 3.0000000e+00 1.6500000e+01 
7.5000000e-01 3.0000000e+00 1.7000000e+01 
7.5000000e-01 3.0000000e+00 1.7500000e+01 
7.5000000e-01 3.0000000e+00 1.8000000e+01 
7.5000000e-01 3.0000000e+00 1.8500000e+01 
7.5000000e-01 3.0000000e+00 1.9000000e+01 
7.5000000e-01 3.0000000e+00 1.9500000e+01 
7.5000000e-01 3.0000000e+00 2.0000000e+01 
7.5000000e-01 3.0000000e+00 2.0500000e+01 
7.5000000e-01 3.0000000e+00 2.1000000e+01 
7.5000000e-01 3.0000000e+00 2.1500000e+01 
7.5000000e-01 3.0000000e+00 2.2000000e+01 
7.5000000e-01 3.0000000e+00 2.2500000e+01 
7.5000000e-01 3.0000000e+00 2.3000000e+01 
7.5000000e-01 3.0000000e+00 2.3500000e+01 
7.5000000e-01 3.0000000e+00 2.4000000e+01 
7.5000000e-01 3.0000000e+00 2.4500000e+01 
7.5000000e-01 3.0000000e+00 2.5000000e+01 
7.5000000e-01 3.0000000e+00 2.5500000e+01 
7.5000000e-01 3.0000000e+00 2.6000000e+01 
7.5000000e-01 3.0000000e+00 2.6500000e+01 
7.5000000e-01 3.0000000e+00 2.7000000e+01 
7.5000000e-01 3.0000000e+00 2.7500000e+01 
7.5000000e-01 3.0000000e+00 2.8000000e+01 
7.5000000e-01 3.0000000e+00 2.8500000e+01 
7.5000000e-01 3.0000000e+00 2.9000000e+01 
7.5000000e-01 3.0000000e+00 2.9500000e+01 
7.5000000e-01 3.0000000e+00 3.0000000e+01 
7.5000000e-01 3.0000000e+00 3.0500000e+01 
7.5000000e-01 3.0000000e+00 3.1000000e+01 
7.5000000e-01 3.0000000e+00 3.1500000e+01 
7.5000000e-01 3.0000000e+00 3.2000000e+01 
7.5000000e-01 3.0000000e+00 3.2500000e+01 
7.5000000e-01 3.0000000e+00 3.3000000e+01 
7.5000000e-01 3.0000000e+00 3.3500000e+01 
7.5000000e-01 3.0000000e+00 3.4000000e+01 
7.5000000e-01 3.0000000e+00 3.4500000e+01 
7.5000000e-01 3.0000000e+00 3.5000000e+01 
7.5000000e-01 3.0000000e+00 3.5500000e+01 
7.5000000e-01 3.0000000e+00 3.6000000e+01 
7.5000000e-01 3.0000000e+00 3.6500000e+01 
7.5000000e-01 3.0000000e+00 3.7000000e+01 
7.5000000e-01 3.0000000e+00 3.7500000e+01 
7.5000000e-01 3.0000000e+00 3.8000000e+01 
7.5000000e-01 3.0000000e+00 3.8500000e+01 
7.5000000e-01 3.0000000e+00 3.9000000e+01 
7.5000000e-01 3.0000000e+00 3.9500000e+01 
7.5000000e-01 3.0000000e+00 4.0000000e+01 
7.5000000e-01 3.0000000e+00 4.0500000e+01 
7.5000000e-01 3.0000000e+00 4.1000000e+01 
7.5000000e-01 3.0000000e+00 4.1500000e+01 
7.5000000e-01 3.0000000e+00 4.2000000e+01 
7.5000000e-01 3.0000000e+00 4.2500000e+01 
7.5000000e-01 3.0000000e+00 4.3000000e+01 
7.5000000e-01 3.0000000e+00 4.3500000e+01 
7.5000000e-01 3.0000000e+00 4.4000000e+01 
7.5000000e-01 3.0000000e+00 4.4500000e+01 
7.5000000e-01 3.0000000e+00 4.5000000e+01 
7.5000000e-01 3.0000000e+00 4.5500000e+01 
7.5000000e-01 3.0000000e+00 4.6000000e+01 
7.5000000e-01 3.0000000e+00 4.6500000e+01 
7.5000000e-01 3.0000000e+00 4.7000000e+01 
7.5000000e-01 3.0000000e+00 4.7500000e+01 
7.5000000e-01 3.0000000e+00 4.8000000e+01 
7.5000000e-01 3.0000000e+00 4.8500000e+01 
7.5000000e-01 3.0000000e+00 4.9000000e+01 
7.5000000e-01 3.0000000e+00 4.9500000e+01 
7.5000000e-01 3.0250001e+00 0.0000000e+00 
7.5000000e-01 3.0250001e+00 5.0000000e-01 
7.5000000e-01 3.0250001e+00 1.0000000e+00 
7.5000000e-01 3.0250001e+00 1.5000000e+00 
7.5000000e-01 3.0250001e+00 2.0000000e+00 
7.5000000e-01 3.0250001e+00 2.5000000e+00 
7.5000000e-01 3.0250001e+00 3.0000000e+00 
7.5000000e-01 3.0250001e+00 3.5000000e+00 
7.5000000e-01 3.0250001e+00 4.0000000e+00 
7.5000000e-01 3.0250001e+00 4.5000000e+00 
7.5000000e-01 3.0250001e+00 5.0000000e+00 
7.5000000e-01 3.0250001e+00 5.5000000e+00 
7.5000000e-01 3.0250001e+00 6.0000000e+00 
7.5000000e-01 3.0250001e+00 6.5000000e+00 
7.5000000e-01 3.0250001e+00 7.0000000e+00 
7.5000000e-01 3.0250001e+00 7.5000000e+00 
7.5000000e-01 3.0250001e+00 8.0000000e+00 
7.5000000e-01 3.0250001e+00 8.5000000e+00 
7.5000000e-01 3.0250001e+00 9.0000000e+00 
7.5000000e-01 3.0250001e+00 9.5000000e+00 
7.5000000e-01 3.0250001e+00 1.0000000e+01 
7.5000000e-01 3.0250001e+00 1.0500000e+01 
7.5000000e-01 3.0250001e+00 1.1000000e+01 
7.5000000e-01 3.0250001e+00 1.1500000e+01 
7.5000000e-01 3.0250001e+00 1.2000000e+01 
7.5000000e-01 3.0250001e+00 1.2500000e+01 
7.5000000e-01 3.0250001e+00 1.3000000e+01 
7.5000000e-01 3.0250001e+00 1.3500000e+01 
7.5000000e-01 3.0250001e+00 1.4000000e+01 
7.5000000e-01 3.0250001e+00 1.4500000e+01 
7.5000000e-01 3.0250001e+00 1.5000000e+01 
7.5000000e-01 3.0250001e+00 1.5500000e+01 
7.5000000e-01 3.0250001e+00 1.6000000e+01 
7.5000000e-01 3.0250001e+00 1.6500000e+01 
7.5000000e-01 3.0250001e+00 1.7000000e+01 
7.5000000e-01 3.0250001e+00 1.7500000e+01 
7.5000000e-01 3.0250001e+00 1.8000000e+01 
7.5000000e-01 3.0250001e+00 1.8500000e+01 
7.5000000e-01 3.0250001e+00 1.9000000e+01 
7.5000000e-01 3.0250001e+00 1.9500000e+01 
7.5000000e-01 3.0250001e+00 2.0000000e+01 
7.5000000e-01 3.0250001e+00 2.0500000e+01 
7.5000000e-01 3.0250001e+00 2.1000000e+01 
7.5000000e-01 3.0250001e+00 2.1500000e+01 
7.5000000e-01 3.0250001e+00 2.2000000e+01 
7.5000000e-01 3.0250001e+00 2.2500000e+01 
7.5000000e-01 3.0250001e+00 2.3000000e+01 
7.5000000e-01 3.0250001e+00 2.3500000e+01 
7.5000000e-01 3.0250001e+00 2.4000000e+01 
7.5000000e-01 3.0250001e+00 2.4500000e+01 
7.5000000e-01 3.0250001e+00 2.5000000e+01 
7.5000000e-01 3.0250001e+00 2.5500000e+01 
7.5000000e-01 3.0250001e+00 2.6000000e+01 
7.5000000e-01 3.0250001e+00 2.6500000e+01 
7.5000000e-01 3.0250001e+00 2.7000000e+01 
7.5000000e-01 3.0250001e+00 2.7500000e+01 
7.5000000e-01 3.0250001e+00 2.8000000e+01 
7.5000000e-01 3.0250001e+00 2.8500000e+01 
7.5000000e-01 3.0250001e+00 2.9000000e+01 
7.5000000e-01 3.0250001e+00 2.9500000e+01 
7.5000000e-01 3.0250001e+00 3.0000000e+01 
7.5000000e-01 3.0250001e+00 3.0500000e+01 
7.5000000e-01 3.0250001e+00 3.1000000e+01 
7.5000000e-01 3.0250001e+00 3.1500000e+01 
7.5000000e-01 3.0250001e+00 3.2000000e+01 
7.5000000e-01 3.0250001e+00 3.2500000e+01 
7.5000000e-01 3.0250001e+00 3.3000000e+01 
7.5000000e-01 3.0250001e+00 3.3500000e+01 
7.5000000e-01 3.0250001e+00 3.4000000e+01 
7.5000000e-01 3.0250001e+00 3.4500000e+01 
7.5000000e-01 3.0250001e+00 3.5000000e+01 
7.5000000e-01 3.0250001e+00 3.5500000e+01 
7.5000000e-01 3.0250001e+00 3.6000000e+01 
7.5000000e-01 3.0250001e+00 3.6500000e+01 
7.5000000e-01 3.0250001e+00 3.7000000e+01 
7.5000000e-01 3.0250001e+00 3.7500000e+01 
7.5000000e-01 3.0250001e+00 3.8000000e+01 
7.5000000e-01 3.0250001e+00 3.8500000e+01 
7.5000000e-01 3.0250001e+00 3.9000000e+01 
7.5000000e-01 3.0250001e+00 3.9500000e+01 
7.5000000e-01 3.0250001e+00 4.0000000e+01 
7.5000000e-01 3.0250001e+00 4.0500000e+01 
7.5000000e-01 3.0250001e+00 4.1000000e+01 
7.5000000e-01 3.0250001e+00 4.1500000e+01 
7.5000000e-01 3.0250001e+00 4.2000000e+01 
7.5000000e-01 3.0250001e+00 4.2500000e+01 
7.5000000e-01 3.0250001e+00 4.3000000e+01 
7.5000000e-01 3.0250001e+00 4.3500000e+01 
7.5000000e-01 3.0250001e+00 4.4000000e+01 
7.5000000e-01 3.0250001e+00 4.4500000e+01 
7.5000000e-01 3.0250001e+00 4.5000000e+01 
7.5000000e-01 3.0250001e+00 4.5500000e+01 
7.5000000e-01 3.0250001e+00 4.6000000e+01 
7.5000000e-01 3.0250001e+00 4.6500000e+01 
7.5000000e-01 3.0250001e+00 4.7000000e+01 
7.5000000e-01 3.0250001e+00 4.7500000e+01 
7.5000000e-01 3.0250001e+00 4.8000000e+01 
7.5000000e-01 3.0250001e+00 4.8500000e+01 
7.5000000e-01 3.0250001e+00 4.9000000e+01 
7.5000000e-01 3.0250001e+00 4.9500000e+01 
7.5000000e-01 3.0250001e+00 5.0000000e+01 
1.5000000e+00 3.0000000e+00 2.5000000e+01 
3.0000000e+00 2.0000000e+00 2.5000000e+01 
4.0000000e+00 2.0000000e+00 2.5000000e+01 
5.0000000e+00 2.0000000e+00 2.5000000e+01 
0.0000000e+00 3.0000000e+00 2.5000000e+01 
0.0000000e+00 0.0000000e+00 1.0000000e+00 
0.0000000e+00 0.0000000e+00 2.0000000e+00 
0.0000000e+00 0.0000000e+00 3.0000000e+00 
0.0000000e+00 0.0000000e+00 4.0000000e+00 
0.0000000e+00 0.0000000e+00 5.0000000e+00 
[...]
POINT_DATA 1919
FIELD FieldData 3
DISPLACEMENT 3 1919  float
0.0000000e+00 0.0000000e+00 0.0000000e+00 
0.0000000e+00 0.0000000e+00 0.0000000e+00 
0.0000000e+00 0.0000000e+00 0.0000000e+00 
0.0000000e+00 0.0000000e+00 0.0000000e+00 
3.2019300e-06 -1.9775143e-06 -2.1188998e-06 
2.1547463e-07 -3.9621298e-08 5.3617129e-07 
0.0000000e+00 -1.0444879e-05 0.0000000e+00 
0.0000000e+00 2.1268427e-06 0.0000000e+00 
2.7011831e-06 -1.1309412e-06 -3.0246019e-06 
3.4924989e-07 4.8537891e-07 9.8100577e-07 
1.0214653e-06 5.8009615e-08 1.2996360e-06 
2.6801806e-07 2.2847476e-06 1.3136613e-06 
0.0000000e+00 -1.5019548e-05 0.0000000e+00 
0.0000000e+00 3.7649820e-06 0.0000000e+00 
3.0963745e-06 1.7346781e-06 -1.1266376e-05 
9.8967291e-08 9.3047038e-06 -1.5697735e-06 
1.4659020e-06 1.7715276e-05 -7.4154527e-06 
-5.2402315e-06 3.1522227e-06 8.7689159e-06 
0.0000000e+00 -3.7564519e-06 0.0000000e+00 
0.0000000e+00 -6.0708618e-07 0.0000000e+00 
-4.8589318e-06 1.7957951e-05 -4.2133656e-06 
-6.2519421e-06 1.8510624e-05 -7.3994107e-07 
-9.3709932e-06 1.7785418e-05 -1.9721267e-06 
-1.0251610e-05 1.4650201e-05 -1.5301473e-06 
-1.5485670e-05 1.0835356e-05 1.2375226e-06 
-2.0980729e-05 8.7768512e-06 6.8529384e-06 
-2.5109281e-05 8.9922696e-06 1.0947803e-05 
-2.4233668e-05 8.5516431e-06 7.4118066e-06 
-2.5595518e-05 4.6721825e-06 3.8015142e-07 
-2.2936551e-05 -4.3470764e-06 -8.9053419e-06 
-2.5943707e-05 -1.3602897e-05 -8.9519044e-06 
-2.2517037e-05 -1.6548063e-05 -2.3611465e-06 
-2.9717925e-05 -1.0950109e-05 3.0357392e-06 
-2.7572385e-05 -3.0582114e-06 -3.1981184e-08 
-3.0240071e-05 -2.3648997e-06 -6.2931199e-06 
-2.6465677e-05 -1.1095484e-05 -8.3408886e-06 
-2.7168262e-05 -1.6426662e-05 -5.3817880e-06 
-2.1886963e-05 -4.0772147e-06 1.2524010e-05 
-2.3433673e-05 2.4727879e-05 2.6013713e-05 
-2.1641206e-05 5.6989924e-05 2.2551007e-05 
-2.0164629e-05 7.6116921e-05 2.0322075e-05 
-1.0701320e-05 7.0901020e-05 2.9045954e-05 
-1.6744598e-05 6.0165454e-05 3.4054119e-05 
-1.3428443e-05 7.7137833e-05 5.1256473e-05 
-1.2694928e-05 1.1098754e-04 7.8887439e-05 
-1.6350887e-05 8.0738464e-05 8.9794368e-05 
-2.8100429e-05 -1.1734546e-04 1.3505953e-04 
-3.8071827e-05 -5.5631832e-04 1.3702405e-04 
-6.8134650e-05 -1.2472826e-03 2.2460058e-04 
-1.0248618e-04 -2.1621662e-03 1.4414292e-04 
-1.5303900e-04 -3.2939832e-03 3.0619788e-04 
-2.0195557e-04 -4.4695167e-03 8.4165753e-05 
-3.0039847e-04 -5.2014468e-03 8.3507817e-05 
-5.6276971e-04 -4.9697752e-03 -5.7231679e-05 
-2.6337538e-04 -4.4643600e-03 -1.5248769e-05 
-2.1205448e-04 -4.3154964e-03 -5.8052585e-05 
-2.3121036e-04 -4.4915071e-03 -9.0681337e-05 
-2.1854654e-04 -4.3200348e-03 -1.2340031e-04 
-1.6587706e-04 -3.2255116e-03 -2.8965101e-04 
-1.3801608e-04 -1.8550456e-03 -1.7519966e-04 
-7.6167409e-05 -7.8789954e-04 -2.4431807e-04 
-5.1031930e-05 -1.4219969e-04 -1.4200516e-04 
-2.0962796e-05 1.6456193e-04 -1.2162565e-04 
-1.1058860e-05 2.5727681e-04 -8.9431662e-05 
-3.4987193e-06 2.2715007e-04 -4.5677400e-05 
-1.9140627e-05 1.3727050e-04 -3.6866826e-05 
-1.4241725e-05 4.3552478e-05 -6.4315554e-06 
-1.6806227e-05 -1.6200547e-05 -5.0430995e-06 
-2.8515318e-05 -3.5074692e-05 -1.5222561e-09 
-2.9376564e-05 -3.7385289e-05 2.1226795e-06 
-2.2442180e-05 -4.6406632e-05 6.9115667e-06 
-2.2959050e-05 -5.6633678e-05 1.2231644e-05 
-2.8314800e-05 -5.1833227e-05 1.7160975e-05 
-3.2284232e-05 -3.0060812e-05 1.6372413e-05 
-3.4282653e-05 -8.1283360e-06 1.2993831e-05 
-2.7876315e-05 -3.9663360e-06 7.6465506e-07 
-2.3045501e-05 -1.6364196e-05 -1.3154086e-05 
-2.5942350e-05 -2.6486965e-05 -1.0634793e-05 
-3.6258512e-05 -1.3847070e-05 1.9139791e-06 
-2.9625577e-05 2.6468138e-05 1.4004439e-05 
-2.1499674e-05 7.0942471e-05 2.0992044e-05 
-1.1835489e-05 9.0224072e-05 1.7358085e-05 
-1.0168304e-05 8.4151536e-05 1.7200264e-05 
1.4669782e-06 6.9731082e-05 4.6287052e-05 
1.8961226e-06 5.8359376e-05 7.6674973e-05 
5.1456796e-06 2.5337853e-05 1.0088582e-04 
-1.0194681e-05 -1.3283310e-04 1.7594843e-04 
-2.4270301e-05 -5.7002064e-04 1.6174569e-04 
-6.6443412e-05 -1.3576034e-03 2.4865099e-04 
-1.1429869e-04 -2.4216706e-03 1.5987337e-04 
-1.6528682e-04 -3.6204748e-03 2.9197909e-04 
-2.2748703e-04 -4.6096551e-03 7.4602503e-05 
-2.6907271e-04 -4.9456088e-03 5.1674084e-05 
-2.9567495e-04 -4.6169735e-03 1.4663211e-05 
-3.2558123e-04 -4.4133584e-03 -5.9589613e-05 
-5.4133963e-04 -4.5577371e-03 -9.9252220e-06 
-2.4908534e-04 -4.6828380e-03 -9.0191672e-05 
-1.8152042e-04 -4.1791918e-03 -1.1336432e-04 
-1.5082427e-04 -2.9342396e-03 -2.8095098e-04 
-1.2405861e-04 -1.6118509e-03 -1.6867794e-04 
-5.8562207e-05 -6.4399088e-04 -2.4054355e-04 
-3.2012442e-05 -6.8034096e-05 -1.4927996e-04 
6.6522798e-06 2.0410997e-04 -1.2212318e-04 
1.7700504e-05 2.7029685e-04 -7.6394768e-05 
1.6409658e-05 2.1788129e-04 -3.6297341e-05 
1.4873900e-05 1.2622563e-04 -2.3110386e-05 
1.5373320e-05 5.2124586e-05 -4.3218029e-06 
1.0744208e-05 9.7423754e-06 -3.7762218e-06 
6.6671323e-06 -1.2246258e-05 4.7183157e-06 
9.0207232e-06 -2.4693694e-05 5.4997872e-06 
5.8355049e-06 -2.9068948e-05 7.2822336e-06 
1.7740782e-06 -2.3711162e-05 1.0776287e-05 
5.7121665e-06 -1.2072300e-05 1.5621166e-05 
2.6726655e-06 -1.6603270e-06 1.8330116e-05 
-4.3704040e-06 3.4513844e-06 1.2217077e-05 
-3.3359747e-06 4.6572395e-06 6.2496256e-06 
-3.2329499e-06 4.7163112e-06 -2.2937838e-06 
-1.5353994e-06 4.4014764e-06 -3.5745672e-06 
1.3815834e-06 3.6539946e-06 -4.4537725e-08 
0.0000000e+00 1.7726219e-05 0.0000000e+00 
0.0000000e+00 1.8030431e-05 0.0000000e+00 
0.0000000e+00 1.8525263e-05 0.0000000e+00 
0.0000000e+00 1.7705303e-05 0.0000000e+00 
0.0000000e+00 1.4630167e-05 0.0000000e+00 
0.0000000e+00 1.0873149e-05 0.0000000e+00 
0.0000000e+00 8.9009236e-06 0.0000000e+00 
0.0000000e+00 9.0488365e-06 0.0000000e+00 
0.0000000e+00 8.5746369e-06 0.0000000e+00 
0.0000000e+00 4.4217331e-06 0.0000000e+00 
0.0000000e+00 -4.4459757e-06 0.0000000e+00 
0.0000000e+00 -1.3541363e-05 0.0000000e+00 
0.0000000e+00 -1.6297756e-05 0.0000000e+00 
0.0000000e+00 -1.0703698e-05 0.0000000e+00 
0.0000000e+00 -3.1386319e-06 0.0000000e+00 
0.0000000e+00 -2.9521432e-06 0.0000000e+00 
0.0000000e+00 -1.1358471e-05 0.0000000e+00 
0.0000000e+00 -1.6052940e-05 0.0000000e+00 
0.0000000e+00 -3.6389474e-06 0.0000000e+00 
0.0000000e+00 2.5129444e-05 0.0000000e+00 
0.0000000e+00 5.7084580e-05 0.0000000e+00 
0.0000000e+00 7.5053460e-05 0.0000000e+00 
0.0000000e+00 7.0086935e-05 0.0000000e+00 
0.0000000e+00 6.1230356e-05 0.0000000e+00 
0.0000000e+00 7.9555844e-05 0.0000000e+00 
0.0000000e+00 1.1280772e-04 0.0000000e+00 
0.0000000e+00 8.0799793e-05 0.0000000e+00 
0.0000000e+00 -1.1995200e-04 0.0000000e+00 
0.0000000e+00 -5.5898546e-04 0.0000000e+00 
0.0000000e+00 -1.2470122e-03 0.0000000e+00 
0.0000000e+00 -2.1678545e-03 0.0000000e+00 
0.0000000e+00 -3.3066673e-03 0.0000000e+00 
0.0000000e+00 -4.4993553e-03 0.0000000e+00 
0.0000000e+00 -5.2332268e-03 0.0000000e+00 
0.0000000e+00 -4.9897097e-03 0.0000000e+00 
0.0000000e+00 -4.4881878e-03 0.0000000e+00 
0.0000000e+00 -4.3403357e-03 0.0000000e+00 
0.0000000e+00 -4.5147343e-03 0.0000000e+00 
0.0000000e+00 -4.3506669e-03 0.0000000e+00 
0.0000000e+00 -3.2460329e-03 0.0000000e+00 
0.0000000e+00 -1.8709713e-03 0.0000000e+00 
0.0000000e+00 -7.9375692e-04 0.0000000e+00 
0.0000000e+00 -1.4270874e-04 0.0000000e+00 
0.0000000e+00 1.6593082e-04 0.0000000e+00 
0.0000000e+00 2.5811139e-04 0.0000000e+00 
0.0000000e+00 2.2748024e-04 0.0000000e+00 
0.0000000e+00 1.3823005e-04 0.0000000e+00 
0.0000000e+00 4.4694203e-05 0.0000000e+00 
0.0000000e+00 -1.5296755e-05 0.0000000e+00 
0.0000000e+00 -3.5298373e-05 0.0000000e+00 
0.0000000e+00 -3.8407143e-05 0.0000000e+00 
0.0000000e+00 -4.6713612e-05 0.0000000e+00 
0.0000000e+00 -5.6189496e-05 0.0000000e+00 
0.0000000e+00 -5.1301246e-05 0.0000000e+00 
0.0000000e+00 -3.0044219e-05 0.0000000e+00 
0.0000000e+00 -8.6237233e-06 0.0000000e+00 
0.0000000e+00 -4.4074332e-06 0.0000000e+00 
0.0000000e+00 -1.6704767e-05 0.0000000e+00 
0.0000000e+00 -2.6380752e-05 0.0000000e+00 
0.0000000e+00 -1.2756848e-05 0.0000000e+00 
0.0000000e+00 2.7096781e-05 0.0000000e+00 
0.0000000e+00 7.0215734e-05 0.0000000e+00 
0.0000000e+00 8.9657893e-05 0.0000000e+00 
0.0000000e+00 8.3859028e-05 0.0000000e+00 
0.0000000e+00 7.0403148e-05 0.0000000e+00 
0.0000000e+00 6.1362021e-05 0.0000000e+00 
0.0000000e+00 2.8249127e-05 0.0000000e+00 
0.0000000e+00 -1.3477178e-04 0.0000000e+00 
0.0000000e+00 -5.7534227e-04 0.0000000e+00 
0.0000000e+00 -1.3613580e-03 0.0000000e+00 
0.0000000e+00 -2.4304828e-03 0.0000000e+00 
0.0000000e+00 -3.6313676e-03 0.0000000e+00 
0.0000000e+00 -4.6371366e-03 0.0000000e+00 
0.0000000e+00 -4.9752300e-03 0.0000000e+00 
0.0000000e+00 -4.6513751e-03 0.0000000e+00 
0.0000000e+00 -4.4342843e-03 0.0000000e+00 
0.0000000e+00 -4.5728041e-03 0.0000000e+00 
0.0000000e+00 -4.7088447e-03 0.0000000e+00 
0.0000000e+00 -4.2105848e-03 0.0000000e+00 
0.0000000e+00 -2.9542611e-03 0.0000000e+00 
0.0000000e+00 -1.6243313e-03 0.0000000e+00 
0.0000000e+00 -6.4736122e-04 0.0000000e+00 
0.0000000e+00 -6.8253757e-05 0.0000000e+00 
0.0000000e+00 2.0441305e-04 0.0000000e+00 
0.0000000e+00 2.7091082e-04 0.0000000e+00 
0.0000000e+00 2.1907267e-04 0.0000000e+00 
0.0000000e+00 1.2784568e-04 0.0000000e+00 
0.0000000e+00 5.2799307e-05 0.0000000e+00 
0.0000000e+00 9.4681254e-06 0.0000000e+00 
0.0000000e+00 -1.2557622e-05 0.0000000e+00 
0.0000000e+00 -2.4610976e-05 0.0000000e+00 
0.0000000e+00 -2.8843189e-05 0.0000000e+00 
0.0000000e+00 -2.3723045e-05 0.0000000e+00 
0.0000000e+00 -1.2314692e-05 0.0000000e+00 
0.0000000e+00 -1.7974090e-06 0.0000000e+00 
0.0000000e+00 3.5286696e-06 0.0000000e+00 
0.0000000e+00 4.7637791e-06 0.0000000e+00 
0.0000000e+00 4.6675777e-06 0.0000000e+00 
0.0000000e+00 4.2899587e-06 0.0000000e+00 
0.0000000e+00 3.6583278e-06 0.0000000e+00 
0.0000000e+00 3.2584560e-06 0.0000000e+00 
-2.7149772e-05 -3.6351306e-05 1.5742785e-06 
-1.0517796e-05 5.1919328e-06 -3.5497678e-07 
-9.5361729e-06 4.2080433e-06 -1.5930683e-06 
-4.4711983e-06 -6.8524669e-06 -2.7979118e-07 
0.0000000e+00 -1.9850895e-05 0.0000000e+00 
0.0000000e+00 0.0000000e+00 0.0000000e+00 
0.0000000e+00 0.0000000e+00 0.0000000e+00 
0.0000000e+00 0.0000000e+00 0.0000000e+00 
0.0000000e+00 0.0000000e+00 0.0000000e+00 
0.0000000e+00 0.0000000e+00 0.0000000e+00 
0.0000000e+00 0.0000000e+00 0.0000000e+00 
0.0000000e+00 0.0000000e+00 0.0000000e+00 
0.0000000e+00 0.0000000e+00 0.0000000e+00 
0.0000000e+00 0.0000000e+00 0.0000000e+00 
0.0000000e+00 0.0000000e+00 0.0000000e+00 
0.0000000e+00 0.0000000e+00 0.0000000e+00 
0.0000000e+00 0.0000000e+00 0.0000000e+00 
0.0000000e+00 0.0000000e+00 0.0000000e+00 
0.0000000e+00 0.0000000e+00 0.0000000e+00 
0.0000000e+00 0.0000000e+00 0.0000000e+00 
0.0000000e+00 0.0000000e+00 0.0000000e+00 
0.0000000e+00 0.0000000e+00 0.0000000e+00 
0.0000000e+00 0.0000000e+00 0.0000000e+00 
0.0000000e+00 0.0000000e+00 0.0000000e+00 
0.0000000e+00 0.0000000e+00 0.0000000e+00 
0.0000000e+00 0.0000000e+00 0.0000000e+00 
0.0000000e+00 0.0000000e+00 0.0000000e+00 
0.0000000e+00 0.0000000e+00 0.0000000e+00 
0.0000000e+00 0.0000000e+00 0.0000000e+00 
0.0000000e+00 0.0000000e+00 0.0000000e+00 
0.0000000e+00 0.0000000e+00 0.0000000e+00 
0.0000000e+00 0.0000000e+00 0.0000000e+00 
0.0000000e+00 0.0000000e+00 0.0000000e+00 
0.0000000e+00 0.0000000e+00 0.0000000e+00 
0.0000000e+00 0.0000000e+00 0.0000000e+00 
0.0000000e+00 0.0000000e+00 0.0000000e+00 
0.0000000e+00 0.0000000e+00 0.0000000e+00 
0.0000000e+00 0.0000000e+00 0.0000000e+00 
0.0000000e+00 0.0000000e+00 0.0000000e+00 
0.0000000e+00 0.0000000e+00 0.0000000e+00 
0.0000000e+00 0.0000000e+00 0.0000000e+00 
0.0000000e+00 0.0000000e+00 0.0000000e+00 
0.0000000e+00 0.0000000e+00 0.0000000e+00 
0.0000000e+00 0.0000000e+00 0.0000000e+00 
0.0000000e+00 0.0000000e+00 0.0000000e+00 
0.0000000e+00 0.0000000e+00 0.0000000e+00 
0.0000000e+00 0.0000000e+00 0.0000000e+00 
0.0000000e+00 0.0000000e+00 0.0000000e+00 
0.0000000e+00 0.0000000e+00 0.0000000e+00 
0.0000000e+00 0.0000000e+00 0.0000000e+00 
0.0000000e+00 0.0000000e+00 0.0000000e+00 
0.0000000e+00 0.0000000e+00 0.0000000e+00 
0.0000000e+00 0.0000000e+00 0.0000000e+00 
0.0000000e+00 0.0000000e+00 0.0000000e+00 
0.0000000e+00 0.0000000e+00 0.0000000e+00 
0.0000000e+00 0.0000000e+00 0.0000000e+00 
0.0000000e+00 0.0000000e+00 0.0000000e+00 
0.0000000e+00 0.0000000e+00 0.0000000e+00 
0.0000000e+00 0.0000000e+00 0.0000000e+00 
0.0000000e+00 0.0000000e+00 0.0000000e+00 
0.0000000e+00 0.0000000e+00 0.0000000e+00 
0.0000000e+00 0.0000000e+00 0.0000000e+00 
0.0000000e+00 0.0000000e+00 0.0000000e+00 
0.0000000e+00 0.0000000e+00 0.0000000e+00 
0.0000000e+00 0.0000000e+00 0.0000000e+00 
0.0000000e+00 0.0000000e+00 0.0000000e+00 
0.0000000e+00 0.0000000e+00 0.0000000e+00 
0.0000000e+00 0.0000000e+00 0.0000000e+00 
0.0000000e+00 0.0000000e+00 0.0000000e+00 
0.0000000e+00 0.0000000e+00 0.0000000e+00 
0.0000000e+00 0.0000000e+00 0.0000000e+00 
0.0000000e+00 0.0000000e+00 0.0000000e+00 
0.0000000e+00 0.0000000e+00 0.0000000e+00 
0.0000000e+00 0.0000000e+00 0.0000000e+00 
0.0000000e+00 0.0000000e+00 0.0000000e+00 
0.0000000e+00 0.0000000e+00 0.0000000e+00 
0.0000000e+00 0.0000000e+00 0.0000000e+00 
0.0000000e+00 0.0000000e+00 0.0000000e+00 
0.0000000e+00 0.0000000e+00 0.0000000e+00 
0.0000000e+00 0.0000000e+00 0.0000000e+00 
0.0000000e+00 0.0000000e+00 0.0000000e+00 
0.0000000e+00 0.0000000e+00 0.0000000e+00 
0.0000000e+00 0.0000000e+00 0.0000000e+00 
0.0000000e+00 0.0000000e+00 0.0000000e+00 
0.0000000e+00 0.0000000e+00 0.0000000e+00 
0.0000000e+00 0.0000000e+00 0.0000000e+00 
0.0000000e+00 0.0000000e+00 0.0000000e+00 
0.0000000e+00 0.0000000e+00 0.0000000e+00 
0.0000000e+00 0.0000000e+00 0.0000000e+00 
0.0000000e+00 0.0000000e+00 0.0000000e+00 
0.0000000e+00 0.0000000e+00 0.0000000e+00 
0.0000000e+00 0.0000000e+00 0.0000000e+00 
0.0000000e+00 0.0000000e+00 0.0000000e+00 
0.0000000e+00 0.0000000e+00 0.0000000e+00 
0.0000000e+00 0.0000000e+00 0.0000000e+00 
0.0000000e+00 0.0000000e+00 0.0000000e+00 
0.0000000e+00 0.0000000e+00 0.0000000e+00 
0.0000000e+00 0.0000000e+00 0.0000000e+00 
0.0000000e+00 0.0000000e+00 0.0000000e+00 
0.0000000e+00 0.0000000e+00 0.0000000e+00 
0.0000000e+00 0.0000000e+00 0.0000000e+00 
0.0000000e+00 0.0000000e+00 0.0000000e+00 
0.0000000e+00 0.0000000e+00 0.0000000e+00 
0.0000000e+00 0.0000000e+00 0.0000000e+00 
0.0000000e+00 0.0000000e+00 0.0000000e+00 
0.0000000e+00 0.0000000e+00 0.0000000e+00 
0.0000000e+00 0.0000000e+00 0.0000000e+00 
0.0000000e+00 0.0000000e+00 0.0000000e+00 
0.0000000e+00 0.0000000e+00 0.0000000e+00 
0.0000000e+00 0.0000000e+00 0.0000000e+00 
0.0000000e+00 0.0000000e+00 0.0000000e+00 
1.4202822e-06 -9.5606640e-07 -2.8256288e-06 
6.4456273e-08 -1.2744637e-06 -3.4416863e-07 
3.6138471e-07 -2.6448272e-06 -1.4297431e-06 
3.6165983e-07 -2.1532637e-06 -4.6264122e-06 
-2.9742338e-07 -4.5618581e-06 -8.6538711e-07 
1.1482267e-06 1.5452817e-06 -1.1913529e-06 
-6.9723842e-07 -4.0806317e-06 -5.6959351e-07 
-1.8897929e-06 -2.3010775e-06 1.9447984e-06 
-1.2869003e-06 3.9959700e-06 -3.0743204e-06 
2.7598526e-06 -3.3862689e-06 -8.5608724e-07 
4.0892082e-06 1.4798129e-06 6.8912641e-08 
1.5615249e-05 -1.0356658e-06 -2.9070829e-06 
2.2661892e-05 -4.7642707e-06 -2.9213231e-06 
3.0171725e-05 -5.7773532e-06 -8.0556874e-06 
4.1768151e-05 -1.2214889e-05 -4.7408753e-06 
4.1580493e-05 -2.2868846e-05 -6.7893388e-06 
4.8665341e-05 -1.6052036e-05 -8.3854121e-07 
4.4275555e-05 -1.2963131e-05 1.9119764e-06 
3.7975788e-05 -1.1893867e-05 7.9811743e-06 
2.4906180e-05 -7.7809736e-06 7.6737288e-06 
1.7576405e-05 -4.0173109e-06 3.1937536e-06 
8.3306131e-06 6.3990336e-07 3.2910357e-06 
-1.0563482e-06 9.6665849e-07 -6.2232010e-07 
-2.8582508e-06 -1.7825608e-06 -3.9382585e-06 
-1.5093954e-06 -3.6172346e-06 6.9496501e-08 
-2.1378630e-06 5.0855294e-07 2.3398359e-06 
-1.6228308e-06 -4.7355834e-06 -2.3424140e-07 
6.6428856e-07 -7.0970700e-06 1.8788003e-06 
1.4951129e-06 5.3592811e-07 -2.6069549e-06 
6.5730342e-06 -3.0721199e-06 -3.9470028e-06 
5.0185718e-06 -8.1604785e-06 -3.6572656e-06 
1.2582481e-05 2.6851585e-06 -3.7744974e-06 
1.9405355e-05 -9.2676173e-06 -7.1828904e-06 
3.0762065e-05 -5.3342378e-06 -7.0323558e-06 
4.1682819e-05 -9.8831815e-06 -1.9573133e-06 
4.6120014e-05 -1.7854672e-05 2.9873422e-06 
4.6899524e-05 -1.7446093e-05 5.7733323e-06 
4.3260170e-05 -1.5201365e-05 1.0665726e-05 
3.4571804e-05 -1.3721598e-05 1.2556329e-05 
2.2147498e-05 -7.2585294e-06 9.7631937e-06 
1.3049441e-05 -2.8433114e-06 6.9344378e-06 
4.6754799e-06 2.5249622e-06 3.3512235e-06 
-1.4808869e-07 1.9862885e-06 -2.7578707e-07 
-2.1564781e-06 2.9388826e-07 -1.3325248e-06 
-1.6553718e-06 -3.8909059e-07 4.7200433e-07 
-7.1042069e-07 -9.9128749e-07 1.5245520e-06 
4.4090197e-07 -1.2693529e-06 2.5390482e-06 
1.0578793e-06 -3.1824354e-07 2.4797632e-06 
9.8059002e-07 7.4448188e-08 1.7828057e-06 
0.0000000e+00 -1.2741482e-05 0.0000000e+00 
0.0000000e+00 -1.3794380e-05 0.0000000e+00 
0.0000000e+00 -7.8136591e-06 0.0000000e+00 
0.0000000e+00 -9.0415797e-06 0.0000000e+00 
0.0000000e+00 -7.1771501e-06 0.0000000e+00 
0.0000000e+00 1.0570765e-05 0.0000000e+00 
0.0000000e+00 4.6685536e-06 0.0000000e+00 
0.0000000e+00 -3.2255080e-06 0.0000000e+00 
0.0000000e+00 7.3220076e-06 0.0000000e+00 
0.0000000e+00 -9.2953360e-06 0.0000000e+00 
0.0000000e+00 -2.1638813e-05 0.0000000e+00 
0.0000000e+00 1.1577466e-05 0.0000000e+00 
0.0000000e+00 -6.6860106e-05 0.0000000e+00 
0.0000000e+00 -1.5201495e-04 0.0000000e+00 
0.0000000e+00 -2.8378103e-04 0.0000000e+00 
0.0000000e+00 -4.4420219e-04 0.0000000e+00 
0.0000000e+00 -5.5047951e-04 0.0000000e+00 
0.0000000e+00 -4.8983179e-04 0.0000000e+00 
0.0000000e+00 -4.1098028e-04 0.0000000e+00 
0.0000000e+00 -2.2591525e-04 0.0000000e+00 
0.0000000e+00 -4.9611554e-05 0.0000000e+00 
0.0000000e+00 9.5642736e-06 0.0000000e+00 
0.0000000e+00 2.9415522e-05 0.0000000e+00 
0.0000000e+00 3.7289512e-05 0.0000000e+00 
0.0000000e+00 1.6282844e-05 0.0000000e+00 
0.0000000e+00 1.8233046e-05 0.0000000e+00 
0.0000000e+00 2.5697873e-05 0.0000000e+00 
0.0000000e+00 -2.7426333e-07 0.0000000e+00 
0.0000000e+00 6.7888004e-06 0.0000000e+00 
0.0000000e+00 2.1750275e-05 0.0000000e+00 
0.0000000e+00 -2.0550651e-05 0.0000000e+00 
0.0000000e+00 -2.1659698e-06 0.0000000e+00 
0.0000000e+00 -3.2503398e-05 0.0000000e+00 
0.0000000e+00 -2.1619028e-04 0.0000000e+00 
0.0000000e+00 -3.1029221e-04 0.0000000e+00 
0.0000000e+00 -4.9698364e-04 0.0000000e+00 
0.0000000e+00 -5.4506114e-04 0.0000000e+00 
0.0000000e+00 -4.6752667e-04 0.0000000e+00 
0.0000000e+00 -3.8467208e-04 0.0000000e+00 
0.0000000e+00 -2.0789148e-04 0.0000000e+00 
0.0000000e+00 -5.6219094e-05 0.0000000e+00 
0.0000000e+00 1.2174983e-05 0.0000000e+00 
0.0000000e+00 1.7068920e-05 0.0000000e+00 
0.0000000e+00 9.8681239e-06 0.0000000e+00 
0.0000000e+00 2.5974236e-06 0.0000000e+00 
0.0000000e+00 -2.4887891e-06 0.0000000e+00 
0.0000000e+00 -1.4167251e-06 0.0000000e+00 
0.0000000e+00 -2.3357973e-06 0.0000000e+00 
0.0000000e+00 -6.9574901e-07 0.0000000e+00 
1.6308152e-06 -1.8569897e-06 -2.4484223e-06 
5.2560690e-08 1.7519768e-06 1.6500537e-06 
7.2427304e-07 1.3921546e-06 1.7371203e-06 
3.0754966e-06 -4.4110488e-06 6.8826097e-07 
5.2682395e-07 2.6646575e-07 1.4512624e-06 
6.7131936e-08 7.0059855e-07 2.3071379e-06 
-8.5070053e-07 8.9975771e-07 1.5184878e-06 
-8.7883393e-07 1.3068473e-06 2.2757155e-07 
1.1214702e-06 -3.7681723e-06 -1.5284351e-06 
8.5409482e-07 7.4660710e-07 1.4149055e-06 
6.3280467e-08 -6.8567865e-06 3.1200389e-06 
-6.7177922e-07 1.6432363e-06 1.5246579e-06 
0.0000000e+00 -2.4025176e-05 0.0000000e+00 
0.0000000e+00 -1.3971904e-05 0.0000000e+00 
0.0000000e+00 -1.1112493e-05 0.0000000e+00 
0.0000000e+00 -1.6944829e-05 0.0000000e+00 
0.0000000e+00 -5.7868697e-06 0.0000000e+00 
0.0000000e+00 1.0484652e-05 0.0000000e+00 
0.0000000e+00 2.8977020e-06 0.0000000e+00 
0.0000000e+00 -3.3539477e-06 0.0000000e+00 
0.0000000e+00 8.6897708e-06 0.0000000e+00 
0.0000000e+00 -1.9786683e-05 0.0000000e+00 
0.0000000e+00 -2.4682968e-05 0.0000000e+00 
0.0000000e+00 2.9558707e-05 0.0000000e+00 
0.0000000e+00 -1.0866763e-04 0.0000000e+00 