# vtk DataFile Version 4.0
vtk output
ASCII
DATASET UNSTRUCTURED_GRID
POINTS 1919 float
0.0000000e+00 0.0000000e+00 0.0000000e+00 
0.0000000e+00 0.0000000e+00 5.0000000e+01 
5.0000000e+00 0.0000000e+00 0.0000000e+00 
5.0000000e+00 0.0000000e+00 5.0000000e+01 
5.0000000e+00 1.0000000e+00 0.0000000e+00 
5.0000000e+00 1.0000000e+00 5.0000000e+01 
0.0000000e+00 1.0000000e+00 0.0000000e+00 
0.0000000e+00 1.0000000e+00 5.0000000e+01 
5.0000000e+00 2.0000000e+00 0.0000000e+00 
5.0000000e+00 2.0000000e+00 5.0000000e+01 
3.0000000e+00 2.0000000e+00 0.0000000e+00 
3.0000000e+00 2.0000000e+00 5.0000000e+01 
0.0000000e+00 2.0000000e+00 0.0000000e+00 
0.0000000e+00 2.0000000e+00 5.0000000e+01 
1.5000000e+00 3.0000000e+00 0.0000000e+00 
1.5000000e+00 3.0000000e+00 5.0000000e+01 
7.5000000e-01 3.0000000e+00 0.0000000e+00 
7.5000000e-01 3.0000000e+00 5.0000000e+01 
0.0000000e+00 3.0000000e+00 0.0000000e+00 
0.0000000e+00 3.0000000e+00 5.0000000e+01 
7.5000000e-01 3.0000000e+00 5.0000000e-01 
7.5000000e-01 3.0000000e+00 1.0000000e+00 
7.5000000e-01 3.0000000e+00 1.5000000e+00 
7.5000000e-01 3.0000000e+00 2.0000000e+00 
7.5000000e-01 3.0000000e+00 2.5000000e+00 
7.5000000e-01 3.0000000e+00 3.0000000e+00 
7.5000000e-01 3.0000000e+00 3.5000000e+00 
7.5000000e-01 3.0000000e+00 4.0000000e+00 
7.5000000e-01 3.0000000e+00 4.5000000e+00 
7.5000000e-01 3.0000000e+00 5.0000000e+00 
7.5000000e-01 3.0000000e+00 5.5000000e+00 
7.5000000e-01 3.0000000e+00 6.0000000e+00 
7.5000000e-01 3.0000000e+00 6.5000000e+00 
7.5000000e-01 3.0000000e+00 7.0000000e+00 
7.5000000e-01 3.0000000e+00 7.5000000e+00 
7.5000000e-01 3.0000000e+00 8.0000000e+00 
7.5000000e-01 3.0000000e+00 8.5000000e+00 
7.5000000e-01 3.0000000e+00 9.0000000e+00 
7.5000000e-01 3.0000000e+00 9.5000000e+00 
7.5000000e-01 3.0000000e+00 1.0000000e+01 
7.5000000e-01 3.0000000e+00 1.0500000e+01 
7.5000000e-01 3.0000000e+00 1.1000000e+01 
7.5000000e-01 3.0000000e+00 1.1500000e+01 
7.5000000e-01 3.0000000e+00 1.2000000e+01 
7.5000000e-01 3.0000000e+00 1.2500000e+01 
7.5000000e-01 3.0000000e+00 1.3000000e+01 
7.5000000e-01 3.0000000e+00 1.3500000e+01 
7.5000000e-01 3.0000000e+00 1.4000000e+01 
7.5000000e-01 3.0000000e+00 1.4500000e+01 
7.5000000e-01 3.0000000e+00 1.5000000e+01 
7.5000000e-01 3.0000000e+00 1.5500000e+01 
7.5000000e-01 3.0000000e+00 1.6000000e+01 
7.5000000e-01 3.0000000e+00 1.6500000e+01 
7.5000000e-01 3.0000000e+00 1.7000000e+01 
7.5000000e-01 3.0000000e+00 1.7500000e+01 
7.5000000e-01 3.0000000e+00 1.8000000e+01 
7.5000000e-01 3.0000000e+00 1.8500000e+01 
7.5000000e-01 3.0000000e+00 1.9000000e+01 
7.5000000e-01 3.0000000e+00 1.9500000e+01 
7.5000000e-01 3.0000000e+00 2.0000000e+01 
7.5000000e-01 3.0000000e+00 2.0500000e+01 
7.5000000e-01 3.0000000e+00 2.1000000e+01 
7.5000000e-01 3.0000000e+00 2.1500000e+01 
7.5000000e-01 3.0000000e+00 2.2000000e+01 
7.5000000e-01 3.0000000e+00 2.2500000e+01 
7.5000000e-01 3.0000000e+00 2.3000000e+01 
7.5000000e-01 3.0000000e+00 2.3500000e+01 
7.5000000e-01 3.0000000e+00 2.4000000e+01 
7.5000000e-01 3.0000000e+00 2.4500000e+01 
7.5000000e-01 3.0000000e+00 2.5000000e+01 
7.5000000e-01 3.0000000e+00 2.5500000e+01 
7.5000000e-01 3.0000000e+00 2.6000000e+01 
7.5000000e-01 3.0000000e+00 2.6500000e+01 
7.5000000e-01 3.0000000e+00 2.7000000e+01 
7.5000000e-01 3.0000000e+00 2.7500000e+01 
7.5000000e-01 3.0000000e+00 2.8000000e+01 
7.5000000e-01 3.0000000e+00 2.8500000e+01 
7.5000000e-01 3.0000000e+00 2.9000000e+01 
7.5000000e-01 3.0000000e+00 2.9500000e+01 
7.5000000e-01 3.0000000e+00 3.0000000e+01 
7.5000000e-01 3.0000000e+00 3.0500000e+01 
7.5000000e-01 3.0000000e+00 3.1000000e+01 
7.5000000e-01 3.0000000e+00 3.1500000e+01 
7.5000000e-01 3.0000000e+00 3.2000000e+01 
7.5000000e-01 3.0000000e+00 3.2500000e+01 
7.5000000e-01 3.0000000e+00 3.3000000e+01 
7.5000000e-01 3.0000000e+00 3.3500000e+01 
7.5000000e-01 3.0000000e+00 3.4000000e+01 
7.5000000e-01 3.0000000e+00 3.4500000e+01 
7.5000000e-01 3.0000000e+00 3.5000000e+01 
7.5000000e-01 3.0000000e+00 3.5500000e+01 
7.5000000e-01 3.0000000e+00 3.6000000e+01 
7.5000000e-01 3.0000000e+00 3.6500000e+01 
7.5000000e-01 3.0000000e+00 3.7000000e+01 
7.5000000e-01 3.0000000e+00 3.7500000e+01 
7.5000000e-01 3.0000000e+00 3.8000000e+01 
7.5000000e-01 3.0000000e+00 3.8500000e+01 
7.5000000e-01 3.0000000e+00 3.9000000e+01 
7.5000000e-01 3.0000000e+00 3.9500000e+01 
7.5000000e-01 3.0000000e+00 4.0000000e+01 
7.5000000e-01 3.0000000e+00 4.0500000e+01 
7.5000000e-01 3.0000000e+00 4.1000000e+01 
7.5000000e-01 3.0000000e+00 4.1500000e+01 
7.5000000e-01 3.0000000e+00 4.2000000e+01 
7.5000000e-01 3.0000000e+00 4.2500000e+01 
7.5000000e-01 3.0000000e+00 4.3000000e+01 
7.5000000e-01 3.0000000e+00 4.3500000e+01 
7.5000000e-01 3.0000000e+00 4.4000000e+01 
7.5000000e-01 3.0000000e+00 4.4500000e+01 
7.5000000e-01 3.0000000e+00 4.5000000e+01 
7.5000000e-01 3.0000000e+00 4.5500000e+01 
7.5000000e-01 3.0000000e+00 4.6000000e+01 
7.5000000e-01 3.0000000e+00 4.6500000e+01 
7.5000000e-01 3.0000000e+00 4.7000000e+01 
7.5000000e-01 3.0000000e+00 4.7500000e+01 
7.5000000e-01 3.0000000e+00 4.8000000e+01 
7.5000000e-01 3.0000000e+00 4.8500000e+01 
7.5000000e-01 3.0000000e+00 4.9000000e+01 
7.5000000e-01 3.0000000e+00 4.9500000e+01 
7.5000000e-01 3.0250001e+00 0.0000000e+00 
7.5000000e-01 3.0250001e+00 5.0000000e-01 
7.5000000e-01 3.0250001e+00 1.0000000e+00 
7.5000000e-01 3.0250001e+00 1.5000000e+00 
7.5000000e-01 3.0250001e+00 2.0000000e+00 
7.5000000e-01 3.0250001e+00 2.5000000e+00 
7.5000000e-01 3.0250001e+00 3.0000000e+00 
7.5000000e-01 3.0250001e+00 3.5000000e+00 
7.5000000e-01 3.0250001e+00 4.0000000e+00 
7.5000000e-01 3.0250001e+00 4.5000000e+00 
7.5000000e-01 3.0250001e+00 5.0000000e+00 
7.5000000e-01 3.0250001e+00 5.5000000e+00 
7.5000000e-01 3.0250001e+00 6.0000000e+00 
7.5000000e-01 3.0250001e+00 6.5000000e+00 
7.5000000e-01 3.0250001e+00 7.0000000e+00 
7.5000000e-01 3.0250001e+00 7.5000000e+00 
7.5000000e-01 3.0250001e+00 8.0000000e+00 
7.5000000e-01 3.0250001e+00 8.5000000e+00 
7.5000000e-01 3.0250001e+00 9.0000000e+00 
7.5000000e-01 3.0250001e+00 9.5000000e+00 
7.5000000e-01 3.0250001e+00 1.0000000e+01 
7.5000000e-01 3.0250001e+00 1.0500000e+01 
7.5000000e-01 3.0250001e+00 1.1000000e+01 
7.5000000e-01 3.0250001e+00 1.1500000e+01 
7.5000000e-01 3.0250001e+00 1.2000000e+01 
7.5000000e-01 3.0250001e+00 1.2500000e+01 
7.5000000e-01 3.0250001e+00 1.3000000e+01 
7.5000000e-01 3.0250001e+00 1.3500000e+01 
7.5000000e-01 3.0250001e+00 1.4000000e+01 
7.5000000e-01 3.0250001e+00 1.4500000e+01 
7.5000000e-01 3.0250001e+00 1.5000000e+01 
7.5000000e-01 3.0250001e+00 1.5500000e+01 
7.5000000e-01 3.0250001e+00 1.6000000e+01 
7.5000000e-01 3.0250001e+00 1.6500000e+01 
7.5000000e-01 3.0250001e+00 1.7000000e+01 
7.5000000e-01 3.0250001e+00 1.7500000e+01 
7.5000000e-01 3.0250001e+00 1.8000000e+01 
7.5000000e-01 3.0250001e+00 1.8500000e+01 
7.5000000e-01 3.0250001e+00 1.9000000e+01 
7.5000000e-01 3.0250001e+00 1.9500000e+01 
7.5000000e-01 3.0250001e+00 2.0000000e+01 
7.5000000e-01 3.0250001e+00 2.0500000e+01 
7.5000000e-01 3.0250001e+00 2.1000000e+01 
7.5000000e-01 3.0250001e+00 2.1500000e+01 
7.5000000e-01 3.0250001e+00 2.2000000e+01 
7.5000000e-01 3.0250001e+00 2.2500000e+01 
7.5000000e-01 3.0250001e+00 2.3000000e+01 
7.5000000e-01 3.0250001e+00 2.3500000e+01 
7.5000000e-01 3.0250001e+00 2.4000000e+01 
7.5000000e-01 3.0250001e+00 2.4500000e+01 
7.5000000e-01 3.0250001e+00 2.5000000e+01 
7.5000000e-01 3.0250001e+00 2.5500000e+01 
7.5000000e-01 3.0250001e+00 2.6000000e+01 
7.5000000e-01 3.0250001e+00 2.6500000e+01 
7.5000000e-01 3.0250001e+00 2.7000000e+01 
7.5000000e-01 3.0250001e+00 2.7500000e+01 
7.5000000e-01 3.0250001e+00 2.8000000e+01 
7.5000000e-01 3.0250001e+00 2.8500000e+01 
7.5000000e-01 3.0250001e+00 2.9000000e+01 
7.5000000e-01 3.0250001e+00 2.9500000e+01 
7.5000000e-01 3.0250001e+00 3.0000000e+01 
7.5000000e-01 3.0250001e+00 3.0500000e+01 
7.5000000e-01 3.0250001e+00 3.1000000e+01 
7.5000000e-01 3.0250001e+00 3.1500000e+01 
7.5000000e-01 3.0250001e+00 3.2000000e+01 
7.5000000e-01 3.0250001e+00 3.2500000e+01 
7.5000000e-01 3.0250001e+00 3.3000000e+01 
7.5000000e-01 3.0250001e+00 3.3500000e+01 
7.5000000e-01 3.0250001e+00 3.4000000e+01 
7.5000000e-01 3.0250001e+00 3.4500000e+01 
7.5000000e-01 3.0250001e+00 3.5000000e+01 
7.5000000e-01 3.0250001e+00 3.5500000e+01 
7.5000000e-01 3.0250001e+00 3.6000000e+01 
7.5000000e-01 3.0250001e+00 3.6500000e+01 
7.5000000e-01 3.0250001e+00 3.7000000e+01 
7.5000000e-01 3.0250001e+00 3.7500000e+01 
7.5000000e-01 3.0250001e+00 3.8000000e+01 
7.5000000e-01 3.0250001e+00 3.8500000e+01 
7.5000000e-01 3.0250001e+00 3.9000000e+01 
7.5000000e-01 3.0250001e+00 3.9500000e+01 
7.5000000e-01 3.0250001e+00 4.0000000e+01 
7.5000000e-01 3.0250001e+00 4.0500000e+01 
7.5000000e-01 3.0250001e+00 4.1000000e+01 
7.5000000e-01 3.0250001e+00 4.1500000e+01 
7.5000000e-01 3.0250001e+00 4.2000000e+01 
7.5000000e-01 3.0250001e+00 4.2500000e+01 
7.5000000e-01 3.0250001e+00 4.3000000e+01 
7.5000000e-01 3.0250001e+00 4.3500000e+01 
7.5000000e-01 3.0250001e+00 4.4000000e+01 
7.5000000e-01 3.0250001e+00 4.4500000e+01 
7.5000000e-01 3.0250001e+00 4.5000000e+01 
7.5000000e-01 3.0250001e+00 4.5500000e+01 
7.5000000e-01 3.0250001e+00 4.6000000e+01 
7.5000000e-01 3.0250001e+00 4.6500000e+01 
7.5000000e-01 3.0250001e+00 4.7000000e+01 
7.5000000e-01 3.0250001e+00 4.7500000e+01 
7.5000000e-01 3.0250001e+00 4.8000000e+01 
7.5000000e-01 3.0250001e+00 4.8500000e+01 
7.5000000e-01 3.0250001e+00 4.9000000e+01 
7.5000000e-01 3.0250001e+00 4.9500000e+01 
7.5000000e-01 3.0250001e+00 5.0000000e+01 
1.5000000e+00 3.0000000e+00 2.5000000e+01 
3.0000000e+00 2.0000000e+00 2.5000000e+01 
4.0000000e+00 2.0000000e+00 2.5000000e+01 
5.0000000e+00 2.0000000e+00 2.5000000e+01 
0.0000000e+00 3.0000000e+00 2.5000000e+01 
0.0000000e+00 0.0000000e+00 1.0000000e+00 
0.0000000e+00 0.0000000e+00 2.0000000e+00 
0.0000000e+00 0.0000000e+00 3.0000000e+00 
0.0000000e+00 0.0000000e+00 4.0000000e+00 
0.0000000e+00 0.0000000e+00 5.0000000e+00 
[...]
POINT_DATA 1919
FIELD FieldData 3
DISPLACEMENT 3 1919  float
0.0000000e+00 0.0000000e+00 0.0000000e+00 
0.0000000e+00 0.0000000e+00 0.0000000e+00 
0.0000000e+00 0.0000000e+00 0.0000000e+00 
0.0000000e+00 0.0000000e+00 0.0000000e+00 
-1.9962813e-06 1.4753180e-06 2.4042301e-06 
-9.7711499e-08 -5.0059947e-07 -2.2487974e-07 
0.0000000e+00 2.7415576e-06 0.0000000e+00 
0.0000000e+00 7.1347836e-07 0.0000000e+00 
-2.5743245e-06 1.3652327e-06 1.8760410e-06 
-2.2019182e-07 -1.2689826e-06 4.7869719e-07 
-2.2634351e-06 7.8840407e-07 1.4654735e-06 
-2.3276812e-07 -7.6457894e-07 -9.5186056e-07 
0.0000000e+00 6.1387768e-06 0.0000000e+00 
0.0000000e+00 7.1215914e-07 0.0000000e+00 
1.3065559e-06 -2.2522468e-07 1.0557688e-06 
1.8737402e-06 6.8467182e-07 3.3465644e-06 
-3.5206094e-06 -2.7009694e-06 -3.1361346e-06 
-2.6335242e-06 -1.0168278e-05 3.5962578e-06 
0.0000000e+00 7.0121769e-06 0.0000000e+00 
0.0000000e+00 4.7409044e-06 0.0000000e+00 
2.3839716e-06 -8.5224593e-07 7.6738537e-08 
5.6463746e-06 3.6383865e-06 4.6836499e-06 
7.3295191e-06 8.8297502e-06 5.9799286e-06 
1.2210620e-05 1.2958752e-05 3.4903064e-06 
1.7349734e-05 1.5738049e-05 -7.0086770e-07 
1.9285500e-05 1.8186121e-05 -1.1316767e-07 
2.3445424e-05 2.1835336e-05 5.1181855e-06 
2.3117442e-05 2.7154909e-05 1.2335531e-05 
2.1610265e-05 3.1860374e-05 1.3892005e-05 
2.2737981e-05 3.2575437e-05 8.3152354e-06 
2.1720180e-05 2.9924651e-05 9.9954350e-06 
1.8867615e-05 2.7102586e-05 1.3524693e-05 
1.5994283e-05 2.8585824e-05 1.6008116e-05 
2.0227615e-05 3.5640733e-05 1.8999381e-05 
2.1990831e-05 4.0669260e-05 1.6329679e-05 
2.1367316e-05 3.4622721e-05 6.6042121e-06 
2.1944275e-05 2.0232617e-05 -5.5778769e-06 
1.7548211e-05 8.5676857e-06 -1.3930207e-05 
1.1986626e-05 9.2446044e-06 -2.0201791e-05 
1.8690782e-05 2.2934462e-05 -2.4654046e-05 
1.7251010e-05 3.7930105e-05 -3.2754033e-05 
1.2874608e-05 3.8790615e-05 -4.2715874e-05 
1.5285239e-05 2.7628013e-05 -4.9626386e-05 
1.6112695e-05 2.6234664e-05 -3.9376235e-05 
6.1023275e-06 5.5136017e-05 -2.9408839e-05 
4.2730885e-06 1.0680313e-04 -7.8924013e-06 
2.1609010e-07 1.2601174e-04 1.6289046e-05 
-1.0572028e-05 3.5891397e-05 4.3118907e-05 
-4.2265561e-05 -1.9000674e-04 7.8008045e-05 
-6.1183440e-05 -5.4546300e-04 9.2807109e-05 
-9.9393881e-05 -1.0704397e-03 1.9794580e-04 
-1.2409709e-04 -1.8497315e-03 9.4473544e-05 
-2.2137594e-04 -2.9735209e-03 1.9578886e-04 
-5.7637860e-04 -4.3096356e-03 2.7771541e-04 
-2.9103915e-04 -5.1756683e-03 8.4655359e-05 
-2.3960856e-04 -4.8870659e-03 6.7459005e-05 
-1.9921538e-04 -4.2687980e-03 -2.7668824e-05 
-1.8507593e-04 -4.0116371e-03 -3.2994150e-05 
-1.7365805e-04 -4.2559016e-03 -2.0096824e-05 
-1.9856977e-04 -4.3506832e-03 -8.1331818e-05 
-1.5298001e-04 -3.4644427e-03 -1.8916717e-04 
-1.1727870e-04 -2.1454876e-03 -8.5917112e-05 
-4.7136095e-05 -1.0109664e-03 -1.5430151e-04 
-3.3441243e-06 -2.6932632e-04 -8.7538137e-05 
2.3557299e-05 9.7649914e-05 -5.4624066e-05 
1.4466535e-05 2.1370547e-04 -2.1761281e-05 
2.0694783e-05 2.1672843e-04 -3.3711817e-07 
1.2376857e-05 1.7675670e-04 8.0401549e-07 
1.2420835e-05 1.2274155e-04 -2.3640450e-07 
1.2838963e-05 6.8066671e-05 -1.1109842e-05 
1.7305025e-05 2.9746858e-05 -1.7876513e-05 
1.5904203e-05 1.3178329e-05 -1.9264120e-05 
1.5746902e-05 1.1241913e-05 -1.6649779e-05 
1.3728511e-05 1.5044972e-05 -1.1484783e-05 
1.3381349e-05 1.8852981e-05 -1.1101970e-05 
1.9915786e-05 2.0437941e-05 -1.1995182e-05 
2.6295866e-05 1.8515912e-05 -1.0683846e-05 
2.3209488e-05 9.9561821e-06 -1.2563442e-05 
1.6467468e-05 2.2411859e-06 -1.0354415e-05 
2.0531890e-05 1.0880078e-05 -5.4312854e-06 
1.6976255e-05 3.5166311e-05 -5.9672043e-06 
1.5637714e-05 5.6663088e-05 -1.3441191e-05 
9.5820787e-06 6.0000672e-05 -1.8232560e-05 
6.2444537e-06 4.4744349e-05 -1.1643765e-05 
-3.9845741e-06 3.5995086e-05 -1.3474248e-05 
-2.8815632e-06 6.4051084e-05 2.6602497e-06 
-1.4308921e-05 1.0501954e-04 3.1726911e-05 
-1.3766979e-05 6.7562032e-05 4.9713872e-05 
-3.8150578e-05 -1.3972014e-04 9.7609867e-05 
-6.4893080e-05 -5.6586188e-04 1.1184417e-04 
-1.0493242e-04 -1.2214326e-03 2.1851659e-04 
-1.4514929e-04 -2.1001352e-03 1.2759755e-04 
-2.0902031e-04 -3.2202019e-03 2.6664589e-04 
-3.2308893e-04 -4.4254074e-03 2.9598819e-05 
-3.9704968e-04 -5.2091815e-03 2.5672594e-05 
-5.9370359e-04 -4.9573155e-03 -7.5848759e-05 
-2.4761548e-04 -4.3823496e-03 3.6257497e-06 
-1.7261959e-04 -4.1656713e-03 -3.0522486e-05 
-1.9227601e-04 -4.3301000e-03 -9.6070817e-06 
-1.9756611e-04 -4.2223711e-03 -7.5432312e-05 
-1.3609481e-04 -3.1992747e-03 -2.0588578e-04 
-9.6880314e-05 -1.8735480e-03 -9.7310847e-05 
-3.7760026e-05 -8.2675443e-04 -1.6222298e-04 
-2.1508497e-05 -1.9060374e-04 -6.8946458e-05 
-5.0515537e-06 1.1116023e-04 -6.3427600e-05 
-3.1842458e-06 2.0977929e-04 -3.3375476e-05 
1.6722165e-06 2.0477219e-04 -1.9454772e-05 
-2.7979786e-06 1.4948894e-04 -1.6667578e-05 
-5.7009802e-06 8.3198240e-05 -1.0392071e-05 
-3.5384587e-06 3.4748176e-05 -1.4480535e-05 
-4.0394020e-06 1.4559995e-05 -1.5303784e-05 
-2.8925463e-06 1.0352391e-05 -1.7757115e-05 
4.3047953e-07 4.8727925e-06 -1.6660300e-05 
1.5996062e-06 -4.8077309e-06 -1.5213011e-05 
1.7056476e-06 -1.0934657e-05 -1.4101598e-05 
2.4404339e-06 -8.6377277e-06 -1.2841368e-05 
5.9642052e-06 -3.0766012e-06 -6.1599048e-06 
4.2685419e-06 -2.1373498e-06 1.2856485e-06 
4.0863197e-06 -6.8308027e-06 4.6485843e-06 
0.0000000e+00 -2.6671223e-06 0.0000000e+00 
0.0000000e+00 -8.3693385e-07 0.0000000e+00 
0.0000000e+00 3.6450076e-06 0.0000000e+00 
0.0000000e+00 8.8154729e-06 0.0000000e+00 
0.0000000e+00 1.2940133e-05 0.0000000e+00 
0.0000000e+00 1.5697222e-05 0.0000000e+00 
0.0000000e+00 1.8201159e-05 0.0000000e+00 
0.0000000e+00 2.1973867e-05 0.0000000e+00 
0.0000000e+00 2.7258469e-05 0.0000000e+00 
0.0000000e+00 3.1775115e-05 0.0000000e+00 
0.0000000e+00 3.2514090e-05 0.0000000e+00 
0.0000000e+00 2.9833302e-05 0.0000000e+00 
0.0000000e+00 2.7150279e-05 0.0000000e+00 
0.0000000e+00 2.8962848e-05 0.0000000e+00 
0.0000000e+00 3.5857469e-05 0.0000000e+00 
0.0000000e+00 4.0356867e-05 0.0000000e+00 
0.0000000e+00 3.4280965e-05 0.0000000e+00 
0.0000000e+00 2.0122880e-05 0.0000000e+00 
0.0000000e+00 8.8108236e-06 0.0000000e+00 
0.0000000e+00 9.7878146e-06 0.0000000e+00 
0.0000000e+00 2.3248358e-05 0.0000000e+00 
0.0000000e+00 3.7514696e-05 0.0000000e+00 
0.0000000e+00 3.8140024e-05 0.0000000e+00 
0.0000000e+00 2.7267874e-05 0.0000000e+00 
0.0000000e+00 2.6766989e-05 0.0000000e+00 
0.0000000e+00 5.7163394e-05 0.0000000e+00 
0.0000000e+00 1.0846294e-04 0.0000000e+00 
0.0000000e+00 1.2456143e-04 0.0000000e+00 
0.0000000e+00 3.4345278e-05 0.0000000e+00 
0.0000000e+00 -1.8916726e-04 0.0000000e+00 
0.0000000e+00 -5.4441957e-04 0.0000000e+00 
0.0000000e+00 -1.0693036e-03 0.0000000e+00 
0.0000000e+00 -1.8565970e-03 0.0000000e+00 
0.0000000e+00 -2.9928726e-03 0.0000000e+00 
0.0000000e+00 -4.3295189e-03 0.0000000e+00 
0.0000000e+00 -5.2037891e-03 0.0000000e+00 
0.0000000e+00 -4.9140994e-03 0.0000000e+00 
0.0000000e+00 -4.2876834e-03 0.0000000e+00 
0.0000000e+00 -4.0387888e-03 0.0000000e+00 
0.0000000e+00 -4.2810105e-03 0.0000000e+00 
0.0000000e+00 -4.3802201e-03 0.0000000e+00 
0.0000000e+00 -3.4826552e-03 0.0000000e+00 
0.0000000e+00 -2.1609934e-03 0.0000000e+00 
0.0000000e+00 -1.0186833e-03 0.0000000e+00 
0.0000000e+00 -2.7191639e-04 0.0000000e+00 
0.0000000e+00 9.8018223e-05 0.0000000e+00 
0.0000000e+00 2.1631154e-04 0.0000000e+00 
0.0000000e+00 2.1783535e-04 0.0000000e+00 
0.0000000e+00 1.7715912e-04 0.0000000e+00 
0.0000000e+00 1.2286626e-04 0.0000000e+00 
0.0000000e+00 6.8847956e-05 0.0000000e+00 
0.0000000e+00 3.0136871e-05 0.0000000e+00 
0.0000000e+00 1.2881398e-05 0.0000000e+00 
0.0000000e+00 1.0993247e-05 0.0000000e+00 
0.0000000e+00 1.5111957e-05 0.0000000e+00 
0.0000000e+00 1.9085142e-05 0.0000000e+00 
0.0000000e+00 2.0620539e-05 0.0000000e+00 
0.0000000e+00 1.7984024e-05 0.0000000e+00 
0.0000000e+00 9.4477828e-06 0.0000000e+00 
0.0000000e+00 2.7670192e-06 0.0000000e+00 
0.0000000e+00 1.1636479e-05 0.0000000e+00 
0.0000000e+00 3.5313940e-05 0.0000000e+00 
0.0000000e+00 5.6351251e-05 0.0000000e+00 
0.0000000e+00 5.9013775e-05 0.0000000e+00 
0.0000000e+00 4.4202468e-05 0.0000000e+00 
0.0000000e+00 3.7493515e-05 0.0000000e+00 
0.0000000e+00 6.6505949e-05 0.0000000e+00 
0.0000000e+00 1.0599812e-04 0.0000000e+00 
0.0000000e+00 6.6938541e-05 0.0000000e+00 
0.0000000e+00 -1.4169086e-04 0.0000000e+00 
0.0000000e+00 -5.6772266e-04 0.0000000e+00 
0.0000000e+00 -1.2208601e-03 0.0000000e+00 
0.0000000e+00 -2.1058316e-03 0.0000000e+00 
0.0000000e+00 -3.2334391e-03 0.0000000e+00 
0.0000000e+00 -4.4556824e-03 0.0000000e+00 
0.0000000e+00 -5.2383733e-03 0.0000000e+00 
0.0000000e+00 -4.9769618e-03 0.0000000e+00 
0.0000000e+00 -4.4061681e-03 0.0000000e+00 
0.0000000e+00 -4.1909744e-03 0.0000000e+00 
0.0000000e+00 -4.3534366e-03 0.0000000e+00 
0.0000000e+00 -4.2521437e-03 0.0000000e+00 
0.0000000e+00 -3.2189174e-03 0.0000000e+00 
0.0000000e+00 -1.8893790e-03 0.0000000e+00 
0.0000000e+00 -8.3301309e-04 0.0000000e+00 
0.0000000e+00 -1.9147503e-04 0.0000000e+00 
0.0000000e+00 1.1251619e-04 0.0000000e+00 
0.0000000e+00 2.1118981e-04 0.0000000e+00 
0.0000000e+00 2.0524868e-04 0.0000000e+00 
0.0000000e+00 1.5018268e-04 0.0000000e+00 
0.0000000e+00 8.3984385e-05 0.0000000e+00 
0.0000000e+00 3.5350458e-05 0.0000000e+00 
0.0000000e+00 1.4532599e-05 0.0000000e+00 
0.0000000e+00 9.8649298e-06 0.0000000e+00 
0.0000000e+00 4.6542677e-06 0.0000000e+00 
0.0000000e+00 -4.6455734e-06 0.0000000e+00 
0.0000000e+00 -1.0676234e-05 0.0000000e+00 
0.0000000e+00 -8.6298733e-06 0.0000000e+00 
0.0000000e+00 -3.2679563e-06 0.0000000e+00 
0.0000000e+00 -2.3134380e-06 0.0000000e+00 
0.0000000e+00 -6.8012164e-06 0.0000000e+00 
0.0000000e+00 -1.0015986e-05 0.0000000e+00 
3.3953344e-05 2.4236366e-05 -7.3663055e-06 
-3.6439985e-06 2.1915475e-06 8.8188590e-06 
-6.3534167e-06 -4.4742427e-07 4.5642782e-06 
-5.0493313e-06 -5.1834235e-07 3.6127601e-06 
0.0000000e+00 1.6768956e-05 0.0000000e+00 
0.0000000e+00 0.0000000e+00 0.0000000e+00 
0.0000000e+00 0.0000000e+00 0.0000000e+00 
0.0000000e+00 0.0000000e+00 0.0000000e+00 
0.0000000e+00 0.0000000e+00 0.0000000e+00 
0.0000000e+00 0.0000000e+00 0.0000000e+00 
0.0000000e+00 0.0000000e+00 0.0000000e+00 
0.0000000e+00 0.0000000e+00 0.0000000e+00 
0.0000000e+00 0.0000000e+00 0.0000000e+00 
0.0000000e+00 0.0000000e+00 0.0000000e+00 
0.0000000e+00 0.0000000e+00 0.0000000e+00 
0.0000000e+00 0.0000000e+00 0.0000000e+00 
0.0000000e+00 0.0000000e+00 0.0000000e+00 
0.0000000e+00 0.0000000e+00 0.0000000e+00 
0.0000000e+00 0.0000000e+00 0.0000000e+00 
0.0000000e+00 0.0000000e+00 0.0000000e+00 
0.0000000e+00 0.0000000e+00 0.0000000e+00 
0.0000000e+00 0.0000000e+00 0.0000000e+00 
0.0000000e+00 0.0000000e+00 0.0000000e+00 
0.0000000e+00 0.0000000e+00 0.0000000e+00 
0.0000000e+00 0.0000000e+00 0.0000000e+00 
0.0000000e+00 0.0000000e+00 0.0000000e+00 
0.0000000e+00 0.0000000e+00 0.0000000e+00 
0.0000000e+00 0.0000000e+00 0.0000000e+00 
0.0000000e+00 0.0000000e+00 0.0000000e+00 
0.0000000e+00 0.0000000e+00 0.0000000e+00 
0.0000000e+00 0.0000000e+00 0.0000000e+00 
0.0000000e+00 0.0000000e+00 0.0000000e+00 
0.0000000e+00 0.0000000e+00 0.0000000e+00 
0.0000000e+00 0.0000000e+00 0.0000000e+00 
0.0000000e+00 0.0000000e+00 0.0000000e+00 
0.0000000e+00 0.0000000e+00 0.0000000e+00 
0.0000000e+00 0.0000000e+00 0.0000000e+00 
0.0000000e+00 0.0000000e+00 0.0000000e+00 
0.0000000e+00 0.0000000e+00 0.0000000e+00 
0.0000000e+00 0.0000000e+00 0.0000000e+00 
0.0000000e+00 0.0000000e+00 0.0000000e+00 
0.0000000e+00 0.0000000e+00 0.0000000e+00 
0.0000000e+00 0.0000000e+00 0.0000000e+00 
0.0000000e+00 0.0000000e+00 0.0000000e+00 
0.0000000e+00 0.0000000e+00 0.0000000e+00 
0.0000000e+00 0.0000000e+00 0.0000000e+00 
0.0000000e+00 0.0000000e+00 0.0000000e+00 
0.0000000e+00 0.0000000e+00 0.0000000e+00 
0.0000000e+00 0.0000000e+00 0.0000000e+00 
0.0000000e+00 0.0000000e+00 0.0000000e+00 
0.0000000e+00 0.0000000e+00 0.0000000e+00 
0.0000000e+00 0.0000000e+00 0.0000000e+00 
0.0000000e+00 0.0000000e+00 0.0000000e+00 
0.0000000e+00 0.0000000e+00 0.0000000e+00 
0.0000000e+00 0.0000000e+00 0.0000000e+00 
0.0000000e+00 0.0000000e+00 0.0000000e+00 
0.0000000e+00 0.0000000e+00 0.0000000e+00 
0.0000000e+00 0.0000000e+00 0.0000000e+00 
0.0000000e+00 0.0000000e+00 0.0000000e+00 
0.0000000e+00 0.0000000e+00 0.0000000e+00 
0.0000000e+00 0.0000000e+00 0.0000000e+00 
0.0000000e+00 0.0000000e+00 0.0000000e+00 
0.0000000e+00 0.0000000e+00 0.0000000e+00 
0.0000000e+00 0.0000000e+00 0.0000000e+00 
0.0000000e+00 0.0000000e+00 0.0000000e+00 
0.0000000e+00 0.0000000e+00 0.0000000e+00 
0.0000000e+00 0.0000000e+00 0.0000000e+00 
0.0000000e+00 0.0000000e+00 0.0000000e+00 
0.0000000e+00 0.0000000e+00 0.0000000e+00 
0.0000000e+00 0.0000000e+00 0.0000000e+00 
0.0000000e+00 0.0000000e+00 0.0000000e+00 
0.0000000e+00 0.0000000e+00 0.0000000e+00 
0.0000000e+00 0.0000000e+00 0.0000000e+00 
0.0000000e+00 0.0000000e+00 0.0000000e+00 
0.0000000e+00 0.0000000e+00 0.0000000e+00 
0.0000000e+00 0.0000000e+00 0.0000000e+00 
0.0000000e+00 0.0000000e+00 0.0000000e+00 
0.0000000e+00 0.0000000e+00 0.0000000e+00 
0.0000000e+00 0.0000000e+00 0.0000000e+00 
0.0000000e+00 0.0000000e+00 0.0000000e+00 
0.0000000e+00 0.0000000e+00 0.0000000e+00 
0.0000000e+00 0.0000000e+00 0.0000000e+00 
0.0000000e+00 0.0000000e+00 0.0000000e+00 
0.0000000e+00 0.0000000e+00 0.0000000e+00 
0.0000000e+00 0.0000000e+00 0.0000000e+00 
0.0000000e+00 0.0000000e+00 0.0000000e+00 
0.0000000e+00 0.0000000e+00 0.0000000e+00 
0.0000000e+00 0.0000000e+00 0.0000000e+00 
0.0000000e+00 0.0000000e+00 0.0000000e+00 
0.0000000e+00 0.0000000e+00 0.0000000e+00 
0.0000000e+00 0.0000000e+00 0.0000000e+00 
0.0000000e+00 0.0000000e+00 0.0000000e+00 
0.0000000e+00 0.0000000e+00 0.0000000e+00 
0.0000000e+00 0.0000000e+00 0.0000000e+00 
0.0000000e+00 0.0000000e+00 0.0000000e+00 
0.0000000e+00 0.0000000e+00 0.0000000e+00 
0.0000000e+00 0.0000000e+00 0.0000000e+00 
0.0000000e+00 0.0000000e+00 0.0000000e+00 
0.0000000e+00 0.0000000e+00 0.0000000e+00 
0.0000000e+00 0.0000000e+00 0.0000000e+00 
0.0000000e+00 0.0000000e+00 0.0000000e+00 
0.0000000e+00 0.0000000e+00 0.0000000e+00 
0.0000000e+00 0.0000000e+00 0.0000000e+00 
0.0000000e+00 0.0000000e+00 0.0000000e+00 
0.0000000e+00 0.0000000e+00 0.0000000e+00 
0.0000000e+00 0.0000000e+00 0.0000000e+00 
0.0000000e+00 0.0000000e+00 0.0000000e+00 
0.0000000e+00 0.0000000e+00 0.0000000e+00 
0.0000000e+00 0.0000000e+00 0.0000000e+00 
0.0000000e+00 0.0000000e+00 0.0000000e+00 
0.0000000e+00 0.0000000e+00 0.0000000e+00 
-1.2983575e-06 1.9270483e-06 9.2633138e-07 
-1.7505594e-06 2.3053153e-06 1.4839286e-06 
-1.4058662e-07 1.6633494e-06 3.0117003e-06 
-5.9565252e-07 3.5257885e-06 5.4418695e-07 
-1.5373153e-06 1.0178909e-06 1.9420891e-06 
-1.7938841e-06 5.5438954e-06 1.7193463e-06 
-8.7727710e-07 2.1583494e-06 -1.4323307e-06 
4.8999061e-07 -2.0390778e-06 6.0642861e-08 
-1.0050189e-06 4.8307188e-06 -2.0922416e-06 
3.2842061e-07 -1.3283545e-06 -6.9134639e-06 
5.6800599e-07 -3.8936369e-06 -8.6496138e-06 
2.1446149e-06 9.1167976e-06 -9.8384262e-06 
7.0652363e-06 -8.0061108e-07 -1.4302215e-05 
1.1144242e-05 -6.0407428e-06 -1.9403538e-05 
2.5156070e-05 -7.9352285e-06 -1.6144961e-05 
3.0409259e-05 -1.5489906e-05 -1.3282375e-05 
4.1034316e-05 -9.4165780e-06 -6.3481853e-06 
4.5923065e-05 -9.2461669e-06 3.4525799e-06 
4.1412957e-05 -1.3726312e-05 1.1548616e-05 
3.1028951e-05 -9.5134346e-06 2.2142180e-05 
2.4791043e-05 -8.5040347e-06 1.9549241e-05 
1.4415657e-05 -3.7849227e-06 1.6076128e-05 
4.9844052e-06 -1.0800672e-06 1.3374411e-05 
2.6361042e-06 -3.8392350e-06 4.9849755e-06 
1.2439242e-06 -3.4338186e-07 2.0452610e-06 
-3.9540379e-07 2.7201525e-06 4.0362179e-06 
-3.2884168e-06 5.3001741e-06 -1.2320769e-06 
-2.8223560e-06 -1.0344706e-06 -2.0308266e-06 
-4.0142882e-06 -2.1939579e-07 -1.0465496e-06 
2.5193788e-06 5.1296711e-06 -6.6277435e-06 
-2.9326370e-06 -1.9331915e-06 -5.6202807e-06 
7.7518777e-08 1.1977046e-06 -6.8051395e-06 
9.0096810e-06 -7.1422841e-07 -1.0836098e-05 
1.1336009e-05 -1.2213340e-05 -1.5768326e-05 
2.2812050e-05 -1.5657668e-06 -1.8197839e-05 
3.8112121e-05 -9.5844289e-06 -1.4701041e-05 
4.2989723e-05 -1.3070738e-05 -1.0117263e-05 
4.7149599e-05 -1.3280646e-05 3.1836425e-06 
4.1460124e-05 -1.2866150e-05 1.1389536e-05 
3.2071930e-05 -1.0036627e-05 1.7618526e-05 
2.3837893e-05 -8.7369845e-06 1.9829993e-05 
1.3228047e-05 -5.6997592e-06 1.7919516e-05 
6.9701409e-06 -4.1208446e-06 1.1828531e-05 
3.1332045e-06 -1.7969718e-06 5.7502998e-06 
1.4962593e-06 -8.3455440e-08 1.5513650e-06 
2.7274996e-07 1.0732090e-06 -7.6759022e-07 
-6.1284260e-07 1.6414731e-06 -2.1818776e-06 
-6.8880735e-07 7.1208848e-07 -2.1286046e-06 
-4.6109673e-07 -8.2848373e-08 -1.5546848e-06 
0.0000000e+00 -3.6548206e-06 0.0000000e+00 
0.0000000e+00 -1.4214959e-05 0.0000000e+00 
0.0000000e+00 -1.9545068e-05 0.0000000e+00 
0.0000000e+00 -2.6745294e-05 0.0000000e+00 
0.0000000e+00 -3.1416792e-05 0.0000000e+00 
0.0000000e+00 -2.5950463e-05 0.0000000e+00 
0.0000000e+00 -2.2108450e-05 0.0000000e+00 
0.0000000e+00 -2.8177752e-05 0.0000000e+00 
0.0000000e+00 -1.4197809e-05 0.0000000e+00 
0.0000000e+00 -1.6546897e-05 0.0000000e+00 
0.0000000e+00 -2.4831723e-05 0.0000000e+00 
0.0000000e+00 -4.1966621e-07 0.0000000e+00 
0.0000000e+00 1.6669363e-05 0.0000000e+00 
0.0000000e+00 -3.4241861e-05 0.0000000e+00 
0.0000000e+00 -9.0779511e-05 0.0000000e+00 
0.0000000e+00 -2.1229785e-04 0.0000000e+00 
0.0000000e+00 -4.6369070e-04 0.0000000e+00 
0.0000000e+00 -4.8337990e-04 0.0000000e+00 
0.0000000e+00 -4.9365906e-04 0.0000000e+00 
0.0000000e+00 -4.3132310e-04 0.0000000e+00 
0.0000000e+00 -2.5314174e-04 0.0000000e+00 
0.0000000e+00 -1.0300106e-04 0.0000000e+00 
0.0000000e+00 -1.8155408e-05 0.0000000e+00 
0.0000000e+00 7.0929095e-06 0.0000000e+00 
0.0000000e+00 -9.3652006e-06 0.0000000e+00 
0.0000000e+00 -1.9136176e-05 0.0000000e+00 
0.0000000e+00 -1.0462733e-05 0.0000000e+00 
0.0000000e+00 -3.1497828e-05 0.0000000e+00 
0.0000000e+00 -2.6068810e-05 0.0000000e+00 
0.0000000e+00 -5.2192063e-06 0.0000000e+00 
0.0000000e+00 -2.6622913e-05 0.0000000e+00 
0.0000000e+00 -2.1426349e-06 0.0000000e+00 
0.0000000e+00 2.4303468e-05 0.0000000e+00 
0.0000000e+00 -6.7646208e-05 0.0000000e+00 
0.0000000e+00 -1.1808631e-04 0.0000000e+00 
0.0000000e+00 -2.8397155e-04 0.0000000e+00 
0.0000000e+00 -4.5249250e-04 0.0000000e+00 
0.0000000e+00 -4.9996056e-04 0.0000000e+00 
0.0000000e+00 -4.8220984e-04 0.0000000e+00 
0.0000000e+00 -3.9694383e-04 0.0000000e+00 
0.0000000e+00 -2.3716438e-04 0.0000000e+00 
0.0000000e+00 -6.8681329e-05 0.0000000e+00 
0.0000000e+00 -4.9948289e-07 0.0000000e+00 
0.0000000e+00 1.6335203e-05 0.0000000e+00 
0.0000000e+00 1.0491182e-05 0.0000000e+00 
0.0000000e+00 2.9580560e-06 0.0000000e+00 
0.0000000e+00 4.1556771e-07 0.0000000e+00 
0.0000000e+00 -1.0664999e-06 0.0000000e+00 
0.0000000e+00 -1.5665351e-07 0.0000000e+00 
-6.6277596e-07 4.1939970e-07 5.2320570e-07 
-1.1728283e-06 1.0010310e-06 4.5413699e-07 
-1.6650032e-06 2.1596009e-06 -5.9361031e-07 
-1.3138763e-06 2.4908547e-06 4.9493718e-07 
-1.8658436e-07 -5.4435714e-07 -1.2074597e-06 
-3.8128451e-07 9.5280562e-08 -1.4480994e-06 
2.9499097e-07 -3.1572833e-07 -1.1871697e-06 
3.9529027e-07 7.2336826e-07 -8.4708012e-07 
-2.8870866e-06 1.0036097e-06 2.4843196e-06 
-1.0442112e-07 -1.4245297e-06 -6.2675610e-07 
-9.9916167e-07 4.7661797e-07 3.9096512e-06 
-1.8787201e-06 2.5133727e-06 -8.1646526e-08 
0.0000000e+00 -9.6004833e-06 0.0000000e+00 
0.0000000e+00 -1.7831309e-05 0.0000000e+00 
0.0000000e+00 -2.3592624e-05 0.0000000e+00 
0.0000000e+00 -4.1763866e-05 0.0000000e+00 
0.0000000e+00 -4.6615460e-05 0.0000000e+00 
0.0000000e+00 -3.2151216e-05 0.0000000e+00 
0.0000000e+00 -3.6107376e-05 0.0000000e+00 
0.0000000e+00 -4.1063289e-05 0.0000000e+00 
0.0000000e+00 -2.2427859e-05 0.0000000e+00 
0.0000000e+00 -2.7844930e-05 0.0000000e+00 
0.0000000e+00 -2.8909073e-05 0.0000000e+00 
0.0000000e+00 1.3952462e-05 0.0000000e+00 
0.0000000e+00 2.4244948e-05 0.0000000e+00 
0.0000000e+00 -9.3752162e-05 0.0000000e+00 