# vtk DataFile Version 4.0
vtk output
ASCII
DATASET UNSTRUCTURED_GRID
POINTS 1919 float
0.0000000e+00 0.0000000e+00 0.0000000e+00 
0.0000000e+00 0.0000000e+00 5.0000000e+01 
5.0000000e+00 0.0000000e+00 0.0000000e+00 
5.0000000e+00 0.0000000e+00 5.0000000e+01 
5.0000000e+00 1.0000000e+00 0.0000000e+00 
5.0000000e+00 1.0000000e+00 5.0000000e+01 
0.0000000e+00 1.0000000e+00 0.0000000e+00 
0.0000000e+00 1.0000000e+00 5.0000000e+01 
5.0000000e+00 2.0000000e+00 0.0000000e+00 
5.0000000e+00 2.0000000e+00 5.0000000e+01 
3.0000000e+00 2.0000000e+00 0.0000000e+00 
3.0000000e+00 2.0000000e+00 5.0000000e+01 
0.0000000e+00 2.0000000e+00 0.0000000e+00 
0.0000000e+00 2.0000000e+00 5.0000000e+01 
1.5000000e+00 3.0000000e+00 0.0000000e+00 
1.5000000e+00 3.0000000e+00 5.0000000e+01 
7.5000000e-01 3.0000000e+00 0.0000000e+00 
7.5000000e-01 3.0000000e+00 5.0000000e+01 
0.0000000e+00 3.0000000e+00 0.0000000e+00 
0.0000000e+00 3.0000000e+00 5.0000000e+01 
7.5000000e-01 3.0000000e+00 5.0000000e-01 
7.5000000e-01 3.0000000e+00 1.0000000e+00 
7.5000000e-01 3.0000000e+00 1.5000000e+00 
7.5000000e-01 3.0000000e+00 2.0000000e+00 
7.5000000e-01 3.0000000e+00 2.5000000e+00 
7.5000000e-01 3.0000000e+00 3.0000000e+00 
7.5000000e-01 3.0000000e+00 3.5000000e+00 
7.5000000e-01 3.0000000e+00 4.0000000e+00 
7.5000000e-01 3.0000000e+00 4.5000000e+00 
7.5000000e-01 3.0000000e+00 5.0000000e+00 
7.5000000e-01 3.0000000e+00 5.5000000e+00 
7.5000000e-01 3.0000000e+00 6.0000000e+00 
7.5000000e-01 3.0000000e+00 6.5000000e+00 
7.5000000e-01 3.0000000e+00 7.0000000e+00 
7.5000000e-01 3.0000000e+00 7.5000000e+00 
7.5000000e-01 3.0000000e+00 8.0000000e+00 
7.5000000e-01 3.0000000e+00 8.5000000e+00 
7.5000000e-01 3.0000000e+00 9.0000000e+00 
7.5000000e-01 3.0000000e+00 9.5000000e+00 
7.5000000e-01 3.0000000e+00 1.0000000e+01 
7.5000000e-01 3.0000000e+00 1.0500000e+01 
7.5000000e-01 3.0000000e+00 1.1000000e+01 
7.5000000e-01 3.0000000e+00 1.1500000e+01 
7.5000000e-01 3.0000000e+00 1.2000000e+01 
7.5000000e-01 3.0000000e+00 1.2500000e+01 
7.5000000e-01 3.0000000e+00 1.3000000e+01 
7.5000000e-01 3.0000000e+00 1.3500000e+01 
7.5000000e-01 3.0000000e+00 1.4000000e+01 
7.5000000e-01 3.0000000e+00 1.4500000e+01 
7.5000000e-01 3.0000000e+00 1.5000000e+01 
7.5000000e-01 3.0000000e+00 1.5500000e+01 
7.5000000e-01 3.0000000e+00 1.6000000e+01 
7.5000000e-01 3.0000000e+00 1.6500000e+01 
7.5000000e-01 3.0000000e+00 1.7000000e+01 
7.5000000e-01 3.0000000e+00 1.7500000e+01 
7.5000000e-01 3.0000000e+00 1.8000000e+01 
7.5000000e-01 3.0000000e+00 1.8500000e+01 
7.5000000e-01 3.0000000e+00 1.9000000e+01 
7.5000000e-01 3.0000000e+00 1.9500000e+01 
7.5000000e-01 3.0000000e+00 2.0000000e+01 
7.5000000e-01 3.0000000e+00 2.0500000e+01 
7.5000000e-01 3.0000000e+00 2.1000000e+01 
7.5000000e-01 3.0000000e+00 2.1500000e+01 
7.5000000e-01 3.0000000e+00 2.2000000e+01 
7.5000000e-01 3.0000000e+00 2.2500000e+01 
7.5000000e-01 3.0000000e+00 2.3000000e+01 
7.5000000e-01 3.0000000e+00 2.3500000e+01 
7.5000000e-01 3.0000000e+00 2.4000000e+01 
7.5000000e-01 3.0000000e+00 2.4500000e+01 
7.5000000e-01 3.0000000e+00 2.5000000e+01 
7.5000000e-01 3.0000000e+00 2.5500000e+01 
7.5000000e-01 3.0000000e+00 2.6000000e+01 
7.5000000e-01 3.0000000e+00 2.6500000e+01 
7.5000000e-01 3.0000000e+00 2.7000000e+01 
7.5000000e-01 3.0000000e+00 2.7500000e+01 
7.5000000e-01 3.0000000e+00 2.8000000e+01 
7.5000000e-01 3.0000000e+00 2.8500000e+01 
7.5000000e-01 3.0000000e+00 2.9000000e+01 
7.5000000e-01 3.0000000e+00 2.9500000e+01 
7.5000000e-01 3.0000000e+00 3.0000000e+01 
7.5000000e-01 3.0000000e+00 3.0500000e+01 
7.5000000e-01 3.0000000e+00 3.1000000e+01 
7.5000000e-01 3.0000000e+00 3.1500000e+01 
7.5000000e-01 3.0000000e+00 3.2000000e+01 
7.5000000e-01 3.0000000e+00 3.2500000e+01 
7.5000000e-01 3.0000000e+00 3.3000000e+01 
7.5000000e-01 3.0000000e+00 3.3500000e+01 
7.5000000e-01 3.0000000e+00 3.4000000e+01 
7.5000000e-01 3.0000000e+00 3.4500000e+01 
7.5000000e-01 3.0000000e+00 3.5000000e+01 
7.5000000e-01 3.0000000e+00 3.5500000e+01 
7.5000000e-01 3.0000000e+00 3.6000000e+01 
7.5000000e-01 3.0000000e+00 3.6500000e+01 
7.5000000e-01 3.0000000e+00 3.7000000e+01 
7.5000000e-01 3.0000000e+00 3.7500000e+01 
7.5000000e-01 3.0000000e+00 3.8000000e+01 
7.5000000e-01 3.0000000e+00 3.8500000e+01 
7.5000000e-01 3.0000000e+00 3.9000000e+01 
7.5000000e-01 3.0000000e+00 3.9500000e+01 
7.5000000e-01 3.0000000e+00 4.0000000e+01 
7.5000000e-01 3.0000000e+00 4.0500000e+01 
7.5000000e-01 3.0000000e+00 4.1000000e+01 
7.5000000e-01 3.0000000e+00 4.1500000e+01 
7.5000000e-01 3.0000000e+00 4.2000000e+01 
7.5000000e-01 3.0000000e+00 4.2500000e+01 
7.5000000e-01 3.0000000e+00 4.3000000e+01 
7.5000000e-01 3.0000000e+00 4.3500000e+01 
7.5000000e-01 3.0000000e+00 4.4000000e+01 
7.5000000e-01 3.0000000e+00 4.4500000e+01 
7.5000000e-01 3.0000000e+00 4.5000000e+01 
7.5000000e-01 3.0000000e+00 4.5500000e+01 
7.5000000e-01 3.0000000e+00 4.6000000e+01 
7.5000000e-01 3.0000000e+00 4.6500000e+01 
7.5000000e-01 3.0000000e+00 4.7000000e+01 
7.5000000e-01 3.0000000e+00 4.7500000e+01 
7.5000000e-01 3.0000000e+00 4.8000000e+01 
7.5000000e-01 3.0000000e+00 4.8500000e+01 
7.5000000e-01 3.0000000e+00 4.9000000e+01 
7.5000000e-01 3.0000000e+00 4.9500000e+01 
7.5000000e-01 3.0250001e+00 0.0000000e+00 
7.5000000e-01 3.0250001e+00 5.0000000e-01 
7.5000000e-01 3.0250001e+00 1.0000000e+00 
7.5000000e-01 3.0250001e+00 1.5000000e+00 
7.5000000e-01 3.0250001e+00 2.0000000e+00 
7.5000000e-01 3.0250001e+00 2.5000000e+00 
7.5000000e-01 3.0250001e+00 3.0000000e+00 
7.5000000e-01 3.0250001e+00 3.5000000e+00 
7.5000000e-01 3.0250001e+00 4.0000000e+00 
7.5000000e-01 3.0250001e+00 4.5000000e+00 
7.5000000e-01 3.0250001e+00 5.0000000e+00 
7.5000000e-01 3.0250001e+00 5.5000000e+00 
7.5000000e-01 3.0250001e+00 6.0000000e+00 
7.5000000e-01 3.0250001e+00 6.5000000e+00 
7.5000000e-01 3.0250001e+00 7.0000000e+00 
7.5000000e-01 3.0250001e+00 7.5000000e+00 
7.5000000e-01 3.0250001e+00 8.0000000e+00 
7.5000000e-01 3.0250001e+00 8.5000000e+00 
7.5000000e-01 3.0250001e+00 9.0000000e+00 
7.5000000e-01 3.0250001e+00 9.5000000e+00 
7.5000000e-01 3.0250001e+00 1.0000000e+01 
7.5000000e-01 3.0250001e+00 1.0500000e+01 
7.5000000e-01 3.0250001e+00 1.1000000e+01 
7.5000000e-01 3.0250001e+00 1.1500000e+01 
7.5000000e-01 3.0250001e+00 1.2000000e+01 
7.5000000e-01 3.0250001e+00 1.2500000e+01 
7.5000000e-01 3.0250001e+00 1.3000000e+01 
7.5000000e-01 3.0250001e+00 1.3500000e+01 
7.5000000e-01 3.0250001e+00 1.4000000e+01 
7.5000000e-01 3.0250001e+00 1.4500000e+01 
7.5000000e-01 3.0250001e+00 1.5000000e+01 
7.5000000e-01 3.0250001e+00 1.5500000e+01 
7.5000000e-01 3.0250001e+00 1.6000000e+01 
7.5000000e-01 3.0250001e+00 1.6500000e+01 
7.5000000e-01 3.0250001e+00 1.7000000e+01 
7.5000000e-01 3.0250001e+00 1.7500000e+01 
7.5000000e-01 3.0250001e+00 1.8000000e+01 
7.5000000e-01 3.0250001e+00 1.8500000e+01 
7.5000000e-01 3.0250001e+00 1.9000000e+01 
7.5000000e-01 3.0250001e+00 1.9500000e+01 
7.5000000e-01 3.0250001e+00 2.0000000e+01 
7.5000000e-01 3.0250001e+00 2.0500000e+01 
7.5000000e-01 3.0250001e+00 2.1000000e+01 
7.5000000e-01 3.0250001e+00 2.1500000e+01 
7.5000000e-01 3.0250001e+00 2.2000000e+01 
7.5000000e-01 3.0250001e+00 2.2500000e+01 
7.5000000e-01 3.0250001e+00 2.3000000e+01 
7.5000000e-01 3.0250001e+00 2.3500000e+01 
7.5000000e-01 3.0250001e+00 2.4000000e+01 
7.5000000e-01 3.0250001e+00 2.4500000e+01 
7.5000000e-01 3.0250001e+00 2.5000000e+01 
7.5000000e-01 3.0250001e+00 2.5500000e+01 
7.5000000e-01 3.0250001e+00 2.6000000e+01 
7.5000000e-01 3.0250001e+00 2.6500000e+01 
7.5000000e-01 3.0250001e+00 2.7000000e+01 
7.5000000e-01 3.0250001e+00 2.7500000e+01 
7.5000000e-01 3.0250001e+00 2.8000000e+01 
7.5000000e-01 3.0250001e+00 2.8500000e+01 
7.5000000e-01 3.0250001e+00 2.9000000e+01 
7.5000000e-01 3.0250001e+00 2.9500000e+01 
7.5000000e-01 3.0250001e+00 3.0000000e+01 
7.5000000e-01 3.0250001e+00 3.0500000e+01 
7.5000000e-01 3.0250001e+00 3.1000000e+01 
7.5000000e-01 3.0250001e+00 3.1500000e+01 
7.5000000e-01 3.0250001e+00 3.2000000e+01 
7.5000000e-01 3.0250001e+00 3.2500000e+01 
7.5000000e-01 3.0250001e+00 3.3000000e+01 
7.5000000e-01 3.0250001e+00 3.3500000e+01 
7.5000000e-01 3.0250001e+00 3.4000000e+01 
7.5000000e-01 3.0250001e+00 3.4500000e+01 
7.5000000e-01 3.0250001e+00 3.5000000e+01 
7.5000000e-01 3.0250001e+00 3.5500000e+01 
7.5000000e-01 3.0250001e+00 3.6000000e+01 
7.5000000e-01 3.0250001e+00 3.6500000e+01 
7.5000000e-01 3.0250001e+00 3.7000000e+01 
7.5000000e-01 3.0250001e+00 3.7500000e+01 
7.5000000e-01 3.0250001e+00 3.8000000e+01 
7.5000000e-01 3.0250001e+00 3.8500000e+01 
7.5000000e-01 3.0250001e+00 3.9000000e+01 
7.5000000e-01 3.0250001e+00 3.9500000e+01 
7.5000000e-01 3.0250001e+00 4.0000000e+01 
7.5000000e-01 3.0250001e+00 4.0500000e+01 
7.5000000e-01 3.0250001e+00 4.1000000e+01 
7.5000000e-01 3.0250001e+00 4.1500000e+01 
7.5000000e-01 3.0250001e+00 4.2000000e+01 
7.5000000e-01 3.0250001e+00 4.2500000e+01 
7.5000000e-01 3.0250001e+00 4.3000000e+01 
7.5000000e-01 3.0250001e+00 4.3500000e+01 
7.5000000e-01 3.0250001e+00 4.4000000e+01 
7.5000000e-01 3.0250001e+00 4.4500000e+01 
7.5000000e-01 3.0250001e+00 4.5000000e+01 
7.5000000e-01 3.0250001e+00 4.5500000e+01 
7.5000000e-01 3.0250001e+00 4.6000000e+01 
7.5000000e-01 3.0250001e+00 4.6500000e+01 
7.5000000e-01 3.0250001e+00 4.7000000e+01 
7.5000000e-01 3.0250001e+00 4.7500000e+01 
7.5000000e-01 3.0250001e+00 4.8000000e+01 
7.5000000e-01 3.0250001e+00 4.8500000e+01 
7.5000000e-01 3.0250001e+00 4.9000000e+01 
7.5000000e-01 3.0250001e+00 4.9500000e+01 
7.5000000e-01 3.0250001e+00 5.0000000e+01 
1.5000000e+00 3.0000000e+00 2.5000000e+01 
3.0000000e+00 2.0000000e+00 2.5000000e+01 
4.0000000e+00 2.0000000e+00 2.5000000e+01 
5.0000000e+00 2.0000000e+00 2.5000000e+01 
0.0000000e+00 3.0000000e+00 2.5000000e+01 
0.0000000e+00 0.0000000e+00 1.0000000e+00 
0.0000000e+00 0.0000000e+00 2.0000000e+00 
0.0000000e+00 0.0000000e+00 3.0000000e+00 
0.0000000e+00 0.0000000e+00 4.0000000e+00 
0.0000000e+00 0.0000000e+00 5.0000000e+00 
[...]
POINT_DATA 1919
FIELD FieldData 3
DISPLACEMENT 3 1919  float
0.0000000e+00 0.0000000e+00 0.0000000e+00 
0.0000000e+00 0.0000000e+00 0.0000000e+00 
0.0000000e+00 0.0000000e+00 0.0000000e+00 
0.0000000e+00 0.0000000e+00 0.0000000e+00 
9.5857990e-07 -1.6010964e-06 -1.7254409e-06 
9.6656038e-07 -1.5799357e-07 1.4770025e-06 
0.0000000e+00 -8.2728075e-06 0.0000000e+00 
0.0000000e+00 3.9710906e-07 0.0000000e+00 
1.2443861e-06 -2.8645961e-06 -1.6012963e-06 
9.3522840e-07 6.0031522e-07 1.2554289e-06 
-2.3321329e-06 1.8040726e-06 4.0046425e-06 
5.0090144e-08 -8.4858627e-08 2.6914329e-06 
0.0000000e+00 -1.4695798e-05 0.0000000e+00 
0.0000000e+00 1.3368392e-06 0.0000000e+00 
-5.2709247e-06 3.4412412e-06 7.0254318e-06 
2.9541292e-07 1.1472731e-06 1.1289886e-06 
-5.9910476e-06 9.1262218e-06 -8.5126402e-07 
-2.7163894e-06 2.9468786e-06 8.2846627e-06 
0.0000000e+00 -8.0388772e-06 0.0000000e+00 
0.0000000e+00 1.1420976e-06 0.0000000e+00 
-9.3817807e-06 6.3960688e-06 1.6674907e-06 
-1.1432347e-05 9.3638158e-07 1.4820672e-06 
-1.4813278e-05 -3.9456427e-06 -3.0671292e-06 
-1.7564189e-05 -7.7437080e-06 -3.4764446e-07 
-2.0106418e-05 -1.2103968e-05 4.8637639e-06 
-2.4493824e-05 -1.7781587e-05 9.4804018e-06 
-2.5263562e-05 -2.4705589e-05 8.6500058e-06 
-2.7637296e-05 -3.2944230e-05 5.3796794e-07 
-2.2805636e-05 -3.9599778e-05 -4.9453693e-06 
-2.3613133e-05 -4.0426607e-05 -1.3687634e-06 
-2.1985574e-05 -3.6686244e-05 2.5607765e-06 
-2.3283401e-05 -3.3889046e-05 8.5605107e-06 
-1.6604492e-05 -3.6270387e-05 7.2480652e-06 
-3.0010813e-05 -4.2700180e-05 -6.1340404e-07 
-3.3557593e-05 -4.4450469e-05 -5.6737663e-06 
-3.3177035e-05 -3.3662913e-05 1.9797330e-06 
-2.7145925e-05 -1.3579755e-05 1.2606511e-05 
-2.4254628e-05 4.0142336e-06 1.8090635e-05 
-2.5606227e-05 7.6697643e-06 1.4902186e-05 
-3.0928713e-05 -2.6401844e-06 1.5595488e-05 
-3.5006589e-05 -4.3333303e-06 1.2526472e-05 
-2.6678899e-05 2.7765509e-05 1.4858319e-05 
-2.4930303e-05 8.1602469e-05 1.7209106e-05 
-2.0748832e-05 1.1227760e-04 2.0076784e-05 
-2.9778086e-05 8.9365458e-05 3.7120459e-05 
-2.2878601e-05 6.3340444e-06 4.9284194e-05 
-3.5180303e-05 -1.2966651e-04 9.3055540e-05 
-2.9812443e-05 -3.4070201e-04 9.3453797e-05 
-5.4093707e-05 -7.4331032e-04 2.2382587e-04 
-7.2643925e-05 -1.5043229e-03 1.6099008e-04 
-1.2735250e-04 -2.7016893e-03 2.6751001e-04 
-1.6846279e-04 -4.1082664e-03 9.7784265e-05 
-3.1739339e-04 -5.1296321e-03 1.4365510e-04 
-6.2917924e-04 -5.0529460e-03 -1.4697168e-05 
-2.6190348e-04 -4.4713821e-03 9.4312863e-06 
-1.9705729e-04 -4.2270590e-03 8.5054143e-07 
-2.0357188e-04 -4.4716229e-03 -3.8479655e-05 
-2.3666782e-04 -4.5863534e-03 -9.8931690e-05 
-2.0820770e-04 -3.8062402e-03 -2.2633701e-04 
-1.8340473e-04 -2.5064077e-03 -1.5244242e-04 
-1.0547162e-04 -1.3022160e-03 -2.4943589e-04 
-7.3023461e-05 -4.3897828e-04 -1.3555078e-04 
-3.3651584e-05 4.2020023e-05 -1.3290471e-04 
-2.5563755e-05 2.1857033e-04 -8.7573324e-05 
-1.9800809e-05 2.1684423e-04 -5.1191000e-05 
-1.7848146e-05 1.5371128e-04 -4.6137273e-05 
-8.5052116e-06 9.3757742e-05 -2.0345729e-05 
-1.5100629e-05 4.0538071e-05 -2.0309697e-05 
-1.4602419e-05 -1.0266595e-05 -1.1765959e-05 
-1.5754731e-05 -4.8102058e-05 -7.5819494e-06 
-1.8163471e-05 -5.7827747e-05 3.4710154e-06 
-2.0298192e-05 -4.6401288e-05 6.9153102e-06 
-7.5238204e-06 -3.5967299e-05 5.1711909e-06 
-1.7439714e-05 -4.0022591e-05 6.8781142e-06 
-1.9792016e-05 -5.1112504e-05 6.6387415e-06 
-2.2824788e-05 -5.1640389e-05 5.9675767e-06 
-3.2694843e-05 -3.5847363e-05 2.1165060e-06 
-3.0667234e-05 -1.1069787e-05 4.2454217e-06 
-2.5321204e-05 5.9044860e-06 1.4356688e-06 
-2.7656219e-05 1.6671545e-06 -5.2832638e-07 
-3.4953147e-05 -1.0514429e-05 -4.3608261e-06 
-2.2848999e-05 -6.2242958e-07 1.4436140e-05 
-2.0094018e-05 4.5671306e-05 2.4770763e-05 
-8.0321788e-06 1.0946310e-04 2.9787254e-05 
-8.9115501e-06 1.3579373e-04 5.8781810e-05 
-4.1957537e-06 5.8510559e-05 7.9433798e-05 
-2.4898151e-05 -1.4159948e-04 1.2281214e-04 
-3.1385145e-05 -4.5995761e-04 1.3644125e-04 
-6.9909016e-05 -9.4754505e-04 2.4647568e-04 
-8.5478925e-05 -1.7020004e-03 1.6665399e-04 
-1.4066909e-04 -2.8124482e-03 2.8672919e-04 
-1.9195249e-04 -4.1394834e-03 1.0627778e-04 
-2.6457669e-04 -5.1076645e-03 1.1446865e-04 
-3.2425756e-04 -4.9231541e-03 3.0036757e-05 
-3.3154266e-04 -4.4058845e-03 -4.0388320e-05 
-5.2229856e-04 -4.2307568e-03 7.9304109e-06 
-2.3122178e-04 -4.4646924e-03 -2.8892093e-05 
-1.9643767e-04 -4.5516803e-03 -8.8252418e-05 
-1.7403404e-04 -3.6387711e-03 -2.3623399e-04 
-1.5006626e-04 -2.2708445e-03 -1.4626954e-04 
-8.0111618e-05 -1.0743827e-03 -2.4333555e-04 
-4.7485857e-05 -2.7531767e-04 -1.4099554e-04 
-1.1462052e-05 1.2005038e-04 -1.4174286e-04 
-1.6348940e-06 2.3940798e-04 -9.2662201e-05 
1.0221545e-05 2.2957432e-04 -5.6647517e-05 
1.4471131e-05 1.7582174e-04 -3.9302642e-05 
1.0195325e-05 1.1021989e-04 -1.5939211e-05 
7.9033634e-06 4.6574973e-05 -1.4002372e-05 
8.3950217e-06 -5.8279585e-07 -5.7407574e-06 
7.9169586e-06 -2.3129491e-05 -5.8906767e-06 
5.4803022e-06 -2.5932022e-05 4.6659011e-07 
5.7518328e-06 -2.1186610e-05 4.9793739e-06 
6.6568705e-06 -1.7410444e-05 8.6185519e-06 
1.7560980e-06 -1.4109753e-05 1.0980068e-05 
2.9410630e-06 -7.9051524e-06 1.3764113e-05 
8.0576592e-07 -2.8291449e-08 1.3720413e-05 
-4.7802655e-06 5.5400101e-06 5.3571148e-06 
-3.1345617e-06 6.5006138e-06 -4.6502814e-07 
-1.9948402e-06 4.4458834e-06 -2.4058602e-06 
0.0000000e+00 9.0176154e-06 0.0000000e+00 
0.0000000e+00 6.4003270e-06 0.0000000e+00 
0.0000000e+00 1.0311138e-06 0.0000000e+00 
0.0000000e+00 -3.8839689e-06 0.0000000e+00 
0.0000000e+00 -7.7906843e-06 0.0000000e+00 
0.0000000e+00 -1.2120905e-05 0.0000000e+00 
0.0000000e+00 -1.7753811e-05 0.0000000e+00 
0.0000000e+00 -2.4841976e-05 0.0000000e+00 
0.0000000e+00 -3.3061173e-05 0.0000000e+00 
0.0000000e+00 -3.9486513e-05 0.0000000e+00 
0.0000000e+00 -4.0297127e-05 0.0000000e+00 
0.0000000e+00 -3.6643127e-05 0.0000000e+00 
0.0000000e+00 -3.4010758e-05 0.0000000e+00 
0.0000000e+00 -3.6662568e-05 0.0000000e+00 
0.0000000e+00 -4.2848445e-05 0.0000000e+00 
0.0000000e+00 -4.4130698e-05 0.0000000e+00 
0.0000000e+00 -3.3326149e-05 0.0000000e+00 
0.0000000e+00 -1.3419262e-05 0.0000000e+00 
0.0000000e+00 3.7803327e-06 0.0000000e+00 
0.0000000e+00 6.7416090e-06 0.0000000e+00 
0.0000000e+00 -3.1086588e-06 0.0000000e+00 
0.0000000e+00 -3.2701787e-06 0.0000000e+00 
0.0000000e+00 2.9140045e-05 0.0000000e+00 
0.0000000e+00 8.1693724e-05 0.0000000e+00 
0.0000000e+00 1.1179822e-04 0.0000000e+00 
0.0000000e+00 8.8327768e-05 0.0000000e+00 
0.0000000e+00 6.5514205e-06 0.0000000e+00 
0.0000000e+00 -1.2638821e-04 0.0000000e+00 
0.0000000e+00 -3.3816465e-04 0.0000000e+00 
0.0000000e+00 -7.4499974e-04 0.0000000e+00 
0.0000000e+00 -1.5142352e-03 0.0000000e+00 
0.0000000e+00 -2.7158556e-03 0.0000000e+00 
0.0000000e+00 -4.1324398e-03 0.0000000e+00 
0.0000000e+00 -5.1537664e-03 0.0000000e+00 
0.0000000e+00 -5.0723711e-03 0.0000000e+00 
0.0000000e+00 -4.4984589e-03 0.0000000e+00 
0.0000000e+00 -4.2557293e-03 0.0000000e+00 
0.0000000e+00 -4.4946452e-03 0.0000000e+00 
0.0000000e+00 -4.6160524e-03 0.0000000e+00 
0.0000000e+00 -3.8272848e-03 0.0000000e+00 
0.0000000e+00 -2.5224076e-03 0.0000000e+00 
0.0000000e+00 -1.3092133e-03 0.0000000e+00 
0.0000000e+00 -4.4314834e-04 0.0000000e+00 
0.0000000e+00 4.0773655e-05 0.0000000e+00 
0.0000000e+00 2.1957236e-04 0.0000000e+00 
0.0000000e+00 2.1898247e-04 0.0000000e+00 
0.0000000e+00 1.5568594e-04 0.0000000e+00 
0.0000000e+00 9.3780684e-05 0.0000000e+00 
0.0000000e+00 4.0070077e-05 0.0000000e+00 
0.0000000e+00 -1.0292819e-05 0.0000000e+00 
0.0000000e+00 -4.7389567e-05 0.0000000e+00 
0.0000000e+00 -5.7464556e-05 0.0000000e+00 
0.0000000e+00 -4.6730293e-05 0.0000000e+00 
0.0000000e+00 -3.6600130e-05 0.0000000e+00 
0.0000000e+00 -4.0332401e-05 0.0000000e+00 
0.0000000e+00 -5.0868926e-05 0.0000000e+00 
0.0000000e+00 -5.1457100e-05 0.0000000e+00 
0.0000000e+00 -3.5477926e-05 0.0000000e+00 
0.0000000e+00 -1.0877375e-05 0.0000000e+00 
0.0000000e+00 5.1707480e-06 0.0000000e+00 
0.0000000e+00 9.6702365e-07 0.0000000e+00 
0.0000000e+00 -1.0497419e-05 0.0000000e+00 
0.0000000e+00 1.2783062e-07 0.0000000e+00 
0.0000000e+00 4.7396719e-05 0.0000000e+00 
0.0000000e+00 1.1071479e-04 0.0000000e+00 
0.0000000e+00 1.3431656e-04 0.0000000e+00 
0.0000000e+00 5.7209607e-05 0.0000000e+00 
0.0000000e+00 -1.4035442e-04 0.0000000e+00 
0.0000000e+00 -4.5856449e-04 0.0000000e+00 
0.0000000e+00 -9.4680977e-04 0.0000000e+00 
0.0000000e+00 -1.7087418e-03 0.0000000e+00 
0.0000000e+00 -2.8272378e-03 0.0000000e+00 
0.0000000e+00 -4.1684695e-03 0.0000000e+00 
0.0000000e+00 -5.1307860e-03 0.0000000e+00 
0.0000000e+00 -4.9509900e-03 0.0000000e+00 
0.0000000e+00 -4.4271825e-03 0.0000000e+00 
0.0000000e+00 -4.2509604e-03 0.0000000e+00 
0.0000000e+00 -4.4950079e-03 0.0000000e+00 
0.0000000e+00 -4.5816894e-03 0.0000000e+00 
0.0000000e+00 -3.6571613e-03 0.0000000e+00 
0.0000000e+00 -2.2863748e-03 0.0000000e+00 
0.0000000e+00 -1.0821179e-03 0.0000000e+00 
0.0000000e+00 -2.7915640e-04 0.0000000e+00 
0.0000000e+00 1.2030292e-04 0.0000000e+00 
0.0000000e+00 2.4200145e-04 0.0000000e+00 
0.0000000e+00 2.3122020e-04 0.0000000e+00 
0.0000000e+00 1.7618650e-04 0.0000000e+00 
0.0000000e+00 1.1031202e-04 0.0000000e+00 
0.0000000e+00 4.7087793e-05 0.0000000e+00 
0.0000000e+00 -1.2555793e-07 0.0000000e+00 
0.0000000e+00 -2.3126480e-05 0.0000000e+00 
0.0000000e+00 -2.6195072e-05 0.0000000e+00 
0.0000000e+00 -2.1398766e-05 0.0000000e+00 
0.0000000e+00 -1.7368633e-05 0.0000000e+00 
0.0000000e+00 -1.3954770e-05 0.0000000e+00 
0.0000000e+00 -7.9438087e-06 0.0000000e+00 
0.0000000e+00 -1.5531488e-07 0.0000000e+00 
0.0000000e+00 5.4884595e-06 0.0000000e+00 
0.0000000e+00 6.5484760e-06 0.0000000e+00 
0.0000000e+00 4.4661729e-06 0.0000000e+00 
0.0000000e+00 2.9700129e-06 0.0000000e+00 
-3.0300615e-05 -1.9119432e-07 -1.7364126e-05 
-1.4225202e-06 3.6545553e-06 -1.1684068e-05 
-2.3068536e-07 1.5205044e-06 -4.6352807e-06 
-3.1244301e-07 2.3636414e-06 -2.8847121e-06 
0.0000000e+00 1.3760949e-05 0.0000000e+00 
0.0000000e+00 0.0000000e+00 0.0000000e+00 
0.0000000e+00 0.0000000e+00 0.0000000e+00 
0.0000000e+00 0.0000000e+00 0.0000000e+00 
0.0000000e+00 0.0000000e+00 0.0000000e+00 
0.0000000e+00 0.0000000e+00 0.0000000e+00 
0.0000000e+00 0.0000000e+00 0.0000000e+00 
0.0000000e+00 0.0000000e+00 0.0000000e+00 
0.0000000e+00 0.0000000e+00 0.0000000e+00 
0.0000000e+00 0.0000000e+00 0.0000000e+00 
0.0000000e+00 0.0000000e+00 0.0000000e+00 
0.0000000e+00 0.0000000e+00 0.0000000e+00 
0.0000000e+00 0.0000000e+00 0.0000000e+00 
0.0000000e+00 0.0000000e+00 0.0000000e+00 
0.0000000e+00 0.0000000e+00 0.0000000e+00 
0.0000000e+00 0.0000000e+00 0.0000000e+00 
0.0000000e+00 0.0000000e+00 0.0000000e+00 
0.0000000e+00 0.0000000e+00 0.0000000e+00 
0.0000000e+00 0.0000000e+00 0.0000000e+00 
0.0000000e+00 0.0000000e+00 0.0000000e+00 
0.0000000e+00 0.0000000e+00 0.0000000e+00 
0.0000000e+00 0.0000000e+00 0.0000000e+00 
0.0000000e+00 0.0000000e+00 0.0000000e+00 
0.0000000e+00 0.0000000e+00 0.0000000e+00 
0.0000000e+00 0.0000000e+00 0.0000000e+00 
0.0000000e+00 0.0000000e+00 0.0000000e+00 
0.0000000e+00 0.0000000e+00 0.0000000e+00 
0.0000000e+00 0.0000000e+00 0.0000000e+00 
0.0000000e+00 0.0000000e+00 0.0000000e+00 
0.0000000e+00 0.0000000e+00 0.0000000e+00 
0.0000000e+00 0.0000000e+00 0.0000000e+00 
0.0000000e+00 0.0000000e+00 0.0000000e+00 
0.0000000e+00 0.0000000e+00 0.0000000e+00 
0.0000000e+00 0.0000000e+00 0.0000000e+00 
0.0000000e+00 0.0000000e+00 0.0000000e+00 
0.0000000e+00 0.0000000e+00 0.0000000e+00 
0.0000000e+00 0.0000000e+00 0.0000000e+00 
0.0000000e+00 0.0000000e+00 0.0000000e+00 
0.0000000e+00 0.0000000e+00 0.0000000e+00 
0.0000000e+00 0.0000000e+00 0.0000000e+00 
0.0000000e+00 0.0000000e+00 0.0000000e+00 
0.0000000e+00 0.0000000e+00 0.0000000e+00 
0.0000000e+00 0.0000000e+00 0.0000000e+00 
0.0000000e+00 0.0000000e+00 0.0000000e+00 
0.0000000e+00 0.0000000e+00 0.0000000e+00 
0.0000000e+00 0.0000000e+00 0.0000000e+00 
0.0000000e+00 0.0000000e+00 0.0000000e+00 
0.0000000e+00 0.0000000e+00 0.0000000e+00 
0.0000000e+00 0.0000000e+00 0.0000000e+00 
0.0000000e+00 0.0000000e+00 0.0000000e+00 
0.0000000e+00 0.0000000e+00 0.0000000e+00 
0.0000000e+00 0.0000000e+00 0.0000000e+00 
0.0000000e+00 0.0000000e+00 0.0000000e+00 
0.0000000e+00 0.0000000e+00 0.0000000e+00 
0.0000000e+00 0.0000000e+00 0.0000000e+00 
0.0000000e+00 0.0000000e+00 0.0000000e+00 
0.0000000e+00 0.0000000e+00 0.0000000e+00 
0.0000000e+00 0.0000000e+00 0.0000000e+00 
0.0000000e+00 0.0000000e+00 0.0000000e+00 
0.0000000e+00 0.0000000e+00 0.0000000e+00 
0.0000000e+00 0.0000000e+00 0.0000000e+00 
0.0000000e+00 0.0000000e+00 0.0000000e+00 
0.0000000e+00 0.0000000e+00 0.0000000e+00 
0.0000000e+00 0.0000000e+00 0.0000000e+00 
0.0000000e+00 0.0000000e+00 0.0000000e+00 
0.0000000e+00 0.0000000e+00 0.0000000e+00 
0.0000000e+00 0.0000000e+00 0.0000000e+00 
0.0000000e+00 0.0000000e+00 0.0000000e+00 
0.0000000e+00 0.0000000e+00 0.0000000e+00 
0.0000000e+00 0.0000000e+00 0.0000000e+00 
0.0000000e+00 0.0000000e+00 0.0000000e+00 
0.0000000e+00 0.0000000e+00 0.0000000e+00 
0.0000000e+00 0.0000000e+00 0.0000000e+00 
0.0000000e+00 0.0000000e+00 0.0000000e+00 
0.0000000e+00 0.0000000e+00 0.0000000e+00 
0.0000000e+00 0.0000000e+00 0.0000000e+00 
0.0000000e+00 0.0000000e+00 0.0000000e+00 
0.0000000e+00 0.0000000e+00 0.0000000e+00 
0.0000000e+00 0.0000000e+00 0.0000000e+00 
0.0000000e+00 0.0000000e+00 0.0000000e+00 
0.0000000e+00 0.0000000e+00 0.0000000e+00 
0.0000000e+00 0.0000000e+00 0.0000000e+00 
0.0000000e+00 0.0000000e+00 0.0000000e+00 
0.0000000e+00 0.0000000e+00 0.0000000e+00 
0.0000000e+00 0.0000000e+00 0.0000000e+00 
0.0000000e+00 0.0000000e+00 0.0000000e+00 
0.0000000e+00 0.0000000e+00 0.0000000e+00 
0.0000000e+00 0.0000000e+00 0.0000000e+00 
0.0000000e+00 0.0000000e+00 0.0000000e+00 
0.0000000e+00 0.0000000e+00 0.0000000e+00 
0.0000000e+00 0.0000000e+00 0.0000000e+00 
0.0000000e+00 0.0000000e+00 0.0000000e+00 
0.0000000e+00 0.0000000e+00 0.0000000e+00 
0.0000000e+00 0.0000000e+00 0.0000000e+00 
0.0000000e+00 0.0000000e+00 0.0000000e+00 
0.0000000e+00 0.0000000e+00 0.0000000e+00 
0.0000000e+00 0.0000000e+00 0.0000000e+00 
0.0000000e+00 0.0000000e+00 0.0000000e+00 
0.0000000e+00 0.0000000e+00 0.0000000e+00 
0.0000000e+00 0.0000000e+00 0.0000000e+00 
0.0000000e+00 0.0000000e+00 0.0000000e+00 
0.0000000e+00 0.0000000e+00 0.0000000e+00 
0.0000000e+00 0.0000000e+00 0.0000000e+00 
0.0000000e+00 0.0000000e+00 0.0000000e+00 
0.0000000e+00 0.0000000e+00 0.0000000e+00 
0.0000000e+00 0.0000000e+00 0.0000000e+00 
0.0000000e+00 0.0000000e+00 0.0000000e+00 
-1.0614727e-06 -1.2304665e-06 7.6843583e-07 
-1.8872732e-06 -2.1961507e-06 -6.0917955e-08 
-4.7989884e-06 -1.5917730e-06 -3.4854440e-07 
-4.8682800e-06 -2.9769369e-06 2.7945121e-06 
-4.2861370e-06 6.9899033e-07 -2.3140903e-08 
-4.2233301e-06 -6.1693499e-06 3.5454838e-07 
-5.1880470e-06 -1.6230825e-06 3.2368578e-06 
-5.5629152e-06 3.3795473e-06 -1.0685769e-06 
-2.3790765e-06 -6.3873099e-06 -4.8649298e-07 
-1.2675607e-06 -9.0139153e-08 -2.8540703e-06 
4.4813528e-06 -2.5248055e-06 -5.6843837e-06 
6.8830423e-06 -1.3128181e-05 -9.6664371e-06 
1.7279008e-05 -8.2985616e-06 -1.2730427e-05 
3.0542338e-05 -9.0761660e-06 -1.1207720e-05 
3.7263766e-05 -1.1402087e-05 -1.2652059e-05 
4.7052872e-05 -8.7171447e-06 -7.2192302e-06 
4.8764759e-05 -1.7052149e-05 -2.1203673e-06 
4.3067266e-05 -1.6050999e-05 6.4125466e-06 
3.6833357e-05 -1.4561143e-05 1.2484826e-05 
2.8714876e-05 -1.1176252e-05 1.0706219e-05 
1.7712200e-05 -6.5742433e-06 1.1382702e-05 
6.4734954e-06 -2.5582672e-06 7.5125622e-06 
3.3571663e-07 1.0666511e-06 6.0364084e-07 
-4.4956032e-06 3.7815676e-06 4.6490067e-07 
-6.2661125e-06 2.2031643e-06 -1.1596953e-06 
-5.9822082e-06 -3.0804742e-06 -6.4159444e-06 
-3.4432687e-06 -4.4062840e-06 -1.7374473e-06 
-3.4125242e-06 2.3666942e-06 -5.9750437e-07 
-1.8868532e-06 -8.3875898e-07 -2.0430268e-06 
-4.7039830e-06 -5.1101647e-06 -1.6461933e-06 
6.3681323e-06 3.0973288e-07 -6.6317866e-06 
1.1810576e-05 -8.2101978e-06 -1.0285580e-05 
1.5779115e-05 -3.6702727e-06 -9.9209192e-06 
3.0097191e-05 -3.0126564e-06 -8.1211356e-06 
4.0762028e-05 -1.3268689e-05 -5.1753341e-06 
4.5514029e-05 -1.4303794e-05 1.7177750e-06 
4.8499103e-05 -1.5356451e-05 1.0035043e-05 
4.0865492e-05 -1.5823449e-05 1.4023517e-05 
3.6188139e-05 -1.4097169e-05 1.5049808e-05 
2.6825912e-05 -9.7607799e-06 1.4148208e-05 
1.6225187e-05 -5.6629233e-06 1.0425860e-05 
6.6396897e-06 -4.4736419e-07 4.6369182e-06 
1.8577600e-06 2.1482228e-06 9.3679625e-07 
-1.0171924e-06 1.5167976e-06 -1.3063501e-06 
-1.8653375e-06 3.3422381e-07 -1.6952433e-06 
-1.4524021e-06 3.5446573e-07 -8.1761306e-07 
-6.1182430e-07 -6.8630959e-07 5.1966384e-07 
3.3234446e-07 -7.6908537e-07 1.9820350e-06 
9.0775427e-07 -4.8389688e-07 2.2457743e-06 
0.0000000e+00 -3.4273135e-06 0.0000000e+00 
0.0000000e+00 9.4206343e-06 0.0000000e+00 
0.0000000e+00 1.2518448e-05 0.0000000e+00 
0.0000000e+00 2.1167809e-05 0.0000000e+00 
0.0000000e+00 3.0868643e-05 0.0000000e+00 
0.0000000e+00 2.6309646e-05 0.0000000e+00 
0.0000000e+00 2.4691662e-05 0.0000000e+00 
0.0000000e+00 3.0766554e-05 0.0000000e+00 
0.0000000e+00 1.3091431e-05 0.0000000e+00 
0.0000000e+00 1.5209408e-05 0.0000000e+00 
0.0000000e+00 2.1188604e-05 0.0000000e+00 
0.0000000e+00 -1.2913975e-05 0.0000000e+00 
0.0000000e+00 -3.5333425e-05 0.0000000e+00 
0.0000000e+00 -1.0733143e-04 0.0000000e+00 
0.0000000e+00 -2.7267955e-04 0.0000000e+00 
0.0000000e+00 -4.5167760e-04 0.0000000e+00 
0.0000000e+00 -5.4333836e-04 0.0000000e+00 
0.0000000e+00 -5.4131256e-04 0.0000000e+00 
0.0000000e+00 -4.2088257e-04 0.0000000e+00 
0.0000000e+00 -2.5495846e-04 0.0000000e+00 
0.0000000e+00 -6.8993984e-05 0.0000000e+00 
0.0000000e+00 1.7882476e-05 0.0000000e+00 
0.0000000e+00 3.9728704e-05 0.0000000e+00 
0.0000000e+00 1.8267167e-05 0.0000000e+00 
0.0000000e+00 3.1619755e-05 0.0000000e+00 
0.0000000e+00 3.2296506e-05 0.0000000e+00 
0.0000000e+00 1.3977351e-05 0.0000000e+00 
0.0000000e+00 3.3251734e-05 0.0000000e+00 
0.0000000e+00 3.2848424e-05 0.0000000e+00 
0.0000000e+00 5.9649979e-06 0.0000000e+00 
0.0000000e+00 3.1387572e-05 0.0000000e+00 
0.0000000e+00 -1.2847358e-05 0.0000000e+00 
0.0000000e+00 -5.7055724e-05 0.0000000e+00 
0.0000000e+00 -7.8698460e-05 0.0000000e+00 
0.0000000e+00 -2.8810397e-04 0.0000000e+00 
0.0000000e+00 -5.2086753e-04 0.0000000e+00 
0.0000000e+00 -5.1560206e-04 0.0000000e+00 
0.0000000e+00 -5.0486147e-04 0.0000000e+00 
0.0000000e+00 -4.1537365e-04 0.0000000e+00 
0.0000000e+00 -2.4655642e-04 0.0000000e+00 
0.0000000e+00 -8.3515442e-05 0.0000000e+00 
0.0000000e+00 9.8854764e-07 0.0000000e+00 
0.0000000e+00 1.6610971e-05 0.0000000e+00 
0.0000000e+00 1.0538146e-05 0.0000000e+00 
0.0000000e+00 3.4178647e-06 0.0000000e+00 
0.0000000e+00 2.6923340e-07 0.0000000e+00 
0.0000000e+00 -2.0911989e-06 0.0000000e+00 
0.0000000e+00 -1.1938179e-06 0.0000000e+00 
0.0000000e+00 -2.5907493e-06 0.0000000e+00 
-1.7123439e-06 3.8741595e-07 1.5253379e-06 
-1.8851476e-06 3.8200056e-07 1.8761062e-06 
5.3436207e-09 -7.9950314e-07 2.6919429e-06 
1.7313578e-06 -4.9898254e-06 -1.1919177e-08 
9.1541608e-07 -2.3426385e-07 2.3727146e-06 
5.0066296e-07 -5.8492037e-07 2.8576858e-06 
-1.4076630e-07 -1.5506549e-06 3.0435656e-06 
-8.2468375e-07 -6.2653254e-07 1.7513634e-06 
-2.5476956e-07 -1.1387170e-06 9.0122251e-07 
7.7496236e-07 3.4217308e-07 1.9275931e-06 
-2.1929018e-06 -1.3921323e-06 -1.1158681e-06 
-3.5382150e-06 -4.4171156e-07 5.9076110e-06 
0.0000000e+00 3.9643817e-07 0.0000000e+00 
0.0000000e+00 1.0871166e-05 0.0000000e+00 
0.0000000e+00 1.3018109e-05 0.0000000e+00 
0.0000000e+00 3.4008532e-05 0.0000000e+00 
0.0000000e+00 4.4144283e-05 0.0000000e+00 
0.0000000e+00 3.3847056e-05 0.0000000e+00 
0.0000000e+00 4.1125717e-05 0.0000000e+00 
0.0000000e+00 4.3310400e-05 0.0000000e+00 
0.0000000e+00 1.8977213e-05 0.0000000e+00 
0.0000000e+00 2.8040457e-05 0.0000000e+00 
0.0000000e+00 3.3971060e-05 0.0000000e+00 
0.0000000e+00 -2.9906570e-05 0.0000000e+00 
0.0000000e+00 -6.7287685e-05 0.0000000e+00 