# vtk DataFile Version 4.0
vtk output
ASCII
DATASET UNSTRUCTURED_GRID
POINTS 1919 float
0.0000000e+00 0.0000000e+00 0.0000000e+00 
0.0000000e+00 0.0000000e+00 5.0000000e+01 
5.0000000e+00 0.0000000e+00 0.0000000e+00 
5.0000000e+00 0.0000000e+00 5.0000000e+01 
5.0000000e+00 1.0000000e+00 0.0000000e+00 
5.0000000e+00 1.0000000e+00 5.0000000e+01 
0.0000000e+00 1.0000000e+00 0.0000000e+00 
0.0000000e+00 1.0000000e+00 5.0000000e+01 
5.0000000e+00 2.0000000e+00 0.0000000e+00 
5.0000000e+00 2.0000000e+00 5.0000000e+01 
3.0000000e+00 2.0000000e+00 0.0000000e+00 
3.0000000e+00 2.0000000e+00 5.0000000e+01 
0.0000000e+00 2.0000000e+00 0.0000000e+00 
0.0000000e+00 2.0000000e+00 5.0000000e+01 
1.5000000e+00 3.0000000e+00 0.0000000e+00 
1.5000000e+00 3.0000000e+00 5.0000000e+01 
7.5000000e-01 3.0000000e+00 0.0000000e+00 
7.5000000e-01 3.0000000e+00 5.0000000e+01 
0.0000000e+00 3.0000000e+00 0.0000000e+00 
0.0000000e+00 3.0000000e+00 5.0000000e+01 
7.5000000e-01 3.0000000e+00 5.0000000e-01 
7.5000000e-01 3.0000000e+00 1.0000000e+00 
7.5000000e-01 3.0000000e+00 1.5000000e+00 
7.5000000e-01 3.0000000e+00 2.0000000e+00 
7.5000000e-01 3.0000000e+00 2.5000000e+00 
7.5000000e-01 3.0000000e+00 3.0000000e+00 
7.5000000e-01 3.0000000e+00 3.5000000e+00 
7.5000000e-01 3.0000000e+00 4.0000000e+00 
7.5000000e-01 3.0000000e+00 4.5000000e+00 
7.5000000e-01 3.0000000e+00 5.0000000e+00 
7.5000000e-01 3.0000000e+00 5.5000000e+00 
7.5000000e-01 3.0000000e+00 6.0000000e+00 
7.5000000e-01 3.0000000e+00 6.5000000e+00 
7.5000000e-01 3.0000000e+00 7.0000000e+00 
7.5000000e-01 3.0000000e+00 7.5000000e+00 
7.5000000e-01 3.0000000e+00 8.0000000e+00 
7.5000000e-01 3.0000000e+00 8.5000000e+00 
7.5000000e-01 3.0000000e+00 9.0000000e+00 
7.5000000e-01 3.0000000e+00 9.5000000e+00 
7.5000000e-01 3.0000000e+00 1.0000000e+01 
7.5000000e-01 3.0000000e+00 1.0500000e+01 
7.5000000e-01 3.0000000e+00 1.1000000e+01 
7.5000000e-01 3.0000000e+00 1.1500000e+01 
7.5000000e-01 3.0000000e+00 1.2000000e+01 
7.5000000e-01 3.0000000e+00 1.2500000e+01 
7.5000000e-01 3.0000000e+00 1.3000000e+01 
7.5000000e-01 3.0000000e+00 1.3500000e+01 
7.5000000e-01 3.0000000e+00 1.4000000e+01 
7.5000000e-01 3.0000000e+00 1.4500000e+01 
7.5000000e-01 3.0000000e+00 1.5000000e+01 
7.5000000e-01 3.0000000e+00 1.5500000e+01 
7.5000000e-01 3.0000000e+00 1.6000000e+01 
7.5000000e-01 3.0000000e+00 1.6500000e+01 
7.5000000e-01 3.0000000e+00 1.7000000e+01 
7.5000000e-01 3.0000000e+00 1.7500000e+01 
7.5000000e-01 3.0000000e+00 1.8000000e+01 
7.5000000e-01 3.0000000e+00 1.8500000e+01 
7.5000000e-01 3.0000000e+00 1.9000000e+01 
7.5000000e-01 3.0000000e+00 1.9500000e+01 
7.5000000e-01 3.0000000e+00 2.0000000e+01 
7.5000000e-01 3.0000000e+00 2.0500000e+01 
7.5000000e-01 3.0000000e+00 2.1000000e+01 
7.5000000e-01 3.0000000e+00 2.1500000e+01 
7.5000000e-01 3.0000000e+00 2.2000000e+01 
7.5000000e-01 3.0000000e+00 2.2500000e+01 
7.5000000e-01 3.0000000e+00 2.3000000e+01 
7.5000000e-01 3.0000000e+00 2.3500000e+01 
7.5000000e-01 3.0000000e+00 2.4000000e+01 
7.5000000e-01 3.0000000e+00 2.4500000e+01 
7.5000000e-01 3.0000000e+00 2.5000000e+01 
7.5000000e-01 3.0000000e+00 2.5500000e+01 
7.5000000e-01 3.0000000e+00 2.6000000e+01 
7.5000000e-01 3.0000000e+00 2.6500000e+01 
7.5000000e-01 3.0000000e+00 2.7000000e+01 
7.5000000e-01 3.0000000e+00 2.7500000e+01 
7.5000000e-01 3.0000000e+00 2.8000000e+01 
7.5000000e-01 3.0000000e+00 2.8500000e+01 
7.5000000e-01 3.0000000e+00 2.9000000e+01 
7.5000000e-01 3.0000000e+00 2.9500000e+01 
7.5000000e-01 3.0000000e+00 3.0000000e+01 
7.5000000e-01 3.0000000e+00 3.0500000e+01 
7.5000000e-01 3.0000000e+00 3.1000000e+01 
7.5000000e-01 3.0000000e+00 3.1500000e+01 
7.5000000e-01 3.0000000e+00 3.2000000e+01 
7.5000000e-01 3.0000000e+00 3.2500000e+01 
7.5000000e-01 3.0000000e+00 3.3000000e+01 
7.5000000e-01 3.0000000e+00 3.3500000e+01 
7.5000000e-01 3.0000000e+00 3.4000000e+01 
7.5000000e-01 3.0000000e+00 3.4500000e+01 
7.5000000e-01 3.0000000e+00 3.5000000e+01 
7.5000000e-01 3.0000000e+00 3.5500000e+01 
7.5000000e-01 3.0000000e+00 3.6000000e+01 
7.5000000e-01 3.0000000e+00 3.6500000e+01 
7.5000000e-01 3.0000000e+00 3.7000000e+01 
7.5000000e-01 3.0000000e+00 3.7500000e+01 
7.5000000e-01 3.0000000e+00 3.8000000e+01 
7.5000000e-01 3.0000000e+00 3.8500000e+01 
7.5000000e-01 3.0000000e+00 3.9000000e+01 
7.5000000e-01 3.0000000e+00 3.9500000e+01 
7.5000000e-01 3.0000000e+00 4.0000000e+01 
7.5000000e-01 3.0000000e+00 4.0500000e+01 
7.5000000e-01 3.0000000e+00 4.1000000e+01 
7.5000000e-01 3.0000000e+00 4.1500000e+01 
7.5000000e-01 3.0000000e+00 4.2000000e+01 
7.5000000e-01 3.0000000e+00 4.2500000e+01 
7.5000000e-01 3.0000000e+00 4.3000000e+01 
7.5000000e-01 3.0000000e+00 4.3500000e+01 
7.5000000e-01 3.0000000e+00 4.4000000e+01 
7.5000000e-01 3.0000000e+00 4.4500000e+01 
7.5000000e-01 3.0000000e+00 4.5000000e+01 
7.5000000e-01 3.0000000e+00 4.5500000e+01 
7.5000000e-01 3.0000000e+00 4.6000000e+01 
7.5000000e-01 3.0000000e+00 4.6500000e+01 
7.5000000e-01 3.0000000e+00 4.7000000e+01 
7.5000000e-01 3.0000000e+00 4.7500000e+01 
7.5000000e-01 3.0000000e+00 4.8000000e+01 
7.5000000e-01 3.0000000e+00 4.8500000e+01 
7.5000000e-01 3.0000000e+00 4.9000000e+01 
7.5000000e-01 3.0000000e+00 4.9500000e+01 
7.5000000e-01 3.0250001e+00 0.0000000e+00 
7.5000000e-01 3.0250001e+00 5.0000000e-01 
7.5000000e-01 3.0250001e+00 1.0000000e+00 
7.5000000e-01 3.0250001e+00 1.5000000e+00 
7.5000000e-01 3.0250001e+00 2.0000000e+00 
7.5000000e-01 3.0250001e+00 2.5000000e+00 
7.5000000e-01 3.0250001e+00 3.0000000e+00 
7.5000000e-01 3.0250001e+00 3.5000000e+00 
7.5000000e-01 3.0250001e+00 4.0000000e+00 
7.5000000e-01 3.0250001e+00 4.5000000e+00 
7.5000000e-01 3.0250001e+00 5.0000000e+00 
7.5000000e-01 3.0250001e+00 5.5000000e+00 
7.5000000e-01 3.0250001e+00 6.0000000e+00 
7.5000000e-01 3.0250001e+00 6.5000000e+00 
7.5000000e-01 3.0250001e+00 7.0000000e+00 
7.5000000e-01 3.0250001e+00 7.5000000e+00 
7.5000000e-01 3.0250001e+00 8.0000000e+00 
7.5000000e-01 3.0250001e+00 8.5000000e+00 
7.5000000e-01 3.0250001e+00 9.0000000e+00 
7.5000000e-01 3.0250001e+00 9.5000000e+00 
7.5000000e-01 3.0250001e+00 1.0000000e+01 
7.5000000e-01 3.0250001e+00 1.0500000e+01 
7.5000000e-01 3.0250001e+00 1.1000000e+01 
7.5000000e-01 3.0250001e+00 1.1500000e+01 
7.5000000e-01 3.0250001e+00 1.2000000e+01 
7.5000000e-01 3.0250001e+00 1.2500000e+01 
7.5000000e-01 3.0250001e+00 1.3000000e+01 
7.5000000e-01 3.0250001e+00 1.3500000e+01 
7.5000000e-01 3.0250001e+00 1.4000000e+01 
7.5000000e-01 3.0250001e+00 1.4500000e+01 
7.5000000e-01 3.0250001e+00 1.5000000e+01 
7.5000000e-01 3.0250001e+00 1.5500000e+01 
7.5000000e-01 3.0250001e+00 1.6000000e+01 
7.5000000e-01 3.0250001e+00 1.6500000e+01 
7.5000000e-01 3.0250001e+00 1.7000000e+01 
7.5000000e-01 3.0250001e+00 1.7500000e+01 
7.5000000e-01 3.0250001e+00 1.8000000e+01 
7.5000000e-01 3.0250001e+00 1.8500000e+01 
7.5000000e-01 3.0250001e+00 1.9000000e+01 
7.5000000e-01 3.0250001e+00 1.9500000e+01 
7.5000000e-01 3.0250001e+00 2.0000000e+01 
7.5000000e-01 3.0250001e+00 2.0500000e+01 
7.5000000e-01 3.0250001e+00 2.1000000e+01 
7.5000000e-01 3.0250001e+00 2.1500000e+01 
7.5000000e-01 3.0250001e+00 2.2000000e+01 
7.5000000e-01 3.0250001e+00 2.2500000e+01 
7.5000000e-01 3.0250001e+00 2.3000000e+01 
7.5000000e-01 3.0250001e+00 2.3500000e+01 
7.5000000e-01 3.0250001e+00 2.4000000e+01 
7.5000000e-01 3.0250001e+00 2.4500000e+01 
7.5000000e-01 3.0250001e+00 2.5000000e+01 
7.5000000e-01 3.0250001e+00 2.5500000e+01 
7.5000000e-01 3.0250001e+00 2.6000000e+01 
7.5000000e-01 3.0250001e+00 2.6500000e+01 
7.5000000e-01 3.0250001e+00 2.7000000e+01 
7.5000000e-01 3.0250001e+00 2.7500000e+01 
7.5000000e-01 3.0250001e+00 2.8000000e+01 
7.5000000e-01 3.0250001e+00 2.8500000e+01 
7.5000000e-01 3.0250001e+00 2.9000000e+01 
7.5000000e-01 3.0250001e+00 2.9500000e+01 
7.5000000e-01 3.0250001e+00 3.0000000e+01 
7.5000000e-01 3.0250001e+00 3.0500000e+01 
7.5000000e-01 3.0250001e+00 3.1000000e+01 
7.5000000e-01 3.0250001e+00 3.1500000e+01 
7.5000000e-01 3.0250001e+00 3.2000000e+01 
7.5000000e-01 3.0250001e+00 3.2500000e+01 
7.5000000e-01 3.0250001e+00 3.3000000e+01 
7.5000000e-01 3.0250001e+00 3.3500000e+01 
7.5000000e-01 3.0250001e+00 3.4000000e+01 
7.5000000e-01 3.0250001e+00 3.4500000e+01 
7.5000000e-01 3.0250001e+00 3.5000000e+01 
7.5000000e-01 3.0250001e+00 3.5500000e+01 
7.5000000e-01 3.0250001e+00 3.6000000e+01 
7.5000000e-01 3.0250001e+00 3.6500000e+01 
7.5000000e-01 3.0250001e+00 3.7000000e+01 
7.5000000e-01 3.0250001e+00 3.7500000e+01 
7.5000000e-01 3.0250001e+00 3.8000000e+01 
7.5000000e-01 3.0250001e+00 3.8500000e+01 
7.5000000e-01 3.0250001e+00 3.9000000e+01 
7.5000000e-01 3.0250001e+00 3.9500000e+01 
7.5000000e-01 3.0250001e+00 4.0000000e+01 
7.5000000e-01 3.0250001e+00 4.0500000e+01 
7.5000000e-01 3.0250001e+00 4.1000000e+01 
7.5000000e-01 3.0250001e+00 4.1500000e+01 
7.5000000e-01 3.0250001e+00 4.2000000e+01 
7.5000000e-01 3.0250001e+00 4.2500000e+01 
7.5000000e-01 3.0250001e+00 4.3000000e+01 
7.5000000e-01 3.0250001e+00 4.3500000e+01 
7.5000000e-01 3.0250001e+00 4.4000000e+01 
7.5000000e-01 3.0250001e+00 4.4500000e+01 
7.5000000e-01 3.0250001e+00 4.5000000e+01 
7.5000000e-01 3.0250001e+00 4.5500000e+01 
7.5000000e-01 3.0250001e+00 4.6000000e+01 
7.5000000e-01 3.0250001e+00 4.6500000e+01 
7.5000000e-01 3.0250001e+00 4.7000000e+01 
7.5000000e-01 3.0250001e+00 4.7500000e+01 
7.5000000e-01 3.0250001e+00 4.8000000e+01 
7.5000000e-01 3.0250001e+00 4.8500000e+01 
7.5000000e-01 3.0250001e+00 4.9000000e+01 
7.5000000e-01 3.0250001e+00 4.9500000e+01 
7.5000000e-01 3.0250001e+00 5.0000000e+01 
1.5000000e+00 3.0000000e+00 2.5000000e+01 
3.0000000e+00 2.0000000e+00 2.5000000e+01 
4.0000000e+00 2.0000000e+00 2.5000000e+01 
5.0000000e+00 2.0000000e+00 2.5000000e+01 
0.0000000e+00 3.0000000e+00 2.5000000e+01 
0.0000000e+00 0.0000000e+00 1.0000000e+00 
0.0000000e+00 0.0000000e+00 2.0000000e+00 
0.0000000e+00 0.0000000e+00 3.0000000e+00 
0.0000000e+00 0.0000000e+00 4.0000000e+00 
0.0000000e+00 0.0000000e+00 5.0000000e+00 
[...]
POINT_DATA 1919
FIELD FieldData 3
DISPLACEMENT 3 1919  float
0.0000000e+00 0.0000000e+00 0.0000000e+00 
0.0000000e+00 0.0000000e+00 0.0000000e+00 
0.0000000e+00 0.0000000e+00 0.0000000e+00 
0.0000000e+00 0.0000000e+00 0.0000000e+00 
-4.5311908e-06 2.1873336e-06 3.5192827e-06 
-7.6663235e-07 3.0942937e-07 -2.7121254e-07 
0.0000000e+00 6.4572473e-06 0.0000000e+00 
0.0000000e+00 -2.0703797e-06 0.0000000e+00 
-6.0227092e-07 -2.1411684e-06 1.6732244e-07 
-5.4830753e-07 -3.7783053e-07 1.0088972e-06 
-5.9706445e-06 2.9066930e-06 1.1519151e-05 
3.3408716e-07 8.0797895e-07 -1.4438187e-06 
0.0000000e+00 9.4728139e-06 0.0000000e+00 
0.0000000e+00 -3.2412113e-06 0.0000000e+00 
-7.9029487e-06 -6.4237845e-08 3.7560808e-06 
-2.4751178e-06 -4.5270167e-06 6.9003431e-06 
-1.7941662e-05 1.4702565e-06 -8.2488405e-06 
-2.7398662e-06 2.5147683e-06 4.2110864e-06 
0.0000000e+00 -1.6687565e-05 0.0000000e+00 
0.0000000e+00 1.9538802e-06 0.0000000e+00 
-1.2990288e-05 5.5034861e-06 -2.6854125e-06 
-1.4962155e-06 1.5986467e-05 -5.5281225e-06 
5.2493924e-06 2.9858922e-05 2.0510140e-06 
2.1051217e-05 4.4537963e-05 -1.4121694e-06 
2.8623588e-05 5.6416640e-05 -4.9487512e-06 
3.8725222e-05 6.3085616e-05 -7.6587903e-06 
3.9485705e-05 6.6601518e-05 -1.0028731e-05 
4.5437533e-05 7.2010684e-05 -1.3590223e-06 
4.0770472e-05 8.0941827e-05 1.2831690e-05 
5.6392862e-05 8.9645946e-05 1.3304855e-05 
5.0765735e-05 9.0205111e-05 1.4402766e-05 
5.4359567e-05 7.7673132e-05 9.5485902e-06 
3.8583617e-05 6.4215470e-05 8.7674033e-07 
6.0800612e-05 7.0963913e-05 9.1322036e-06 
5.4549841e-05 9.9470119e-05 2.2566330e-05 
5.9547408e-05 1.2767123e-04 2.8046743e-05 
4.7508067e-05 1.3455440e-04 2.3666291e-05 
3.5585392e-05 1.1615665e-04 1.3732311e-05 
1.8678556e-05 9.9070639e-05 -8.0286895e-07 
2.5690622e-05 1.1328181e-04 9.4312663e-06 
1.3835380e-05 1.4205728e-04 3.7582751e-05 
2.3736859e-06 1.0629840e-04 4.1860527e-05 
-3.1834730e-05 -9.9673656e-05 8.7510882e-05 
-4.5675773e-05 -5.5434898e-04 8.2638602e-05 
-1.0426942e-04 -1.2698035e-03 1.6792773e-04 
-1.5054672e-04 -2.2016664e-03 9.0063615e-05 
-2.0008086e-04 -3.3306216e-03 2.2247658e-04 
-2.5779376e-04 -4.4786055e-03 7.5773542e-06 
-3.0638449e-04 -5.1611997e-03 -3.0732585e-06 
-2.9464407e-04 -4.8803845e-03 -3.3981069e-05 
-2.5481815e-04 -4.4728890e-03 -8.0492646e-05 
-2.2994034e-04 -4.4476716e-03 -1.4260900e-04 
-2.8345900e-04 -4.7449893e-03 -9.3845782e-05 
-5.4841209e-04 -4.6519884e-03 -2.6214507e-04 
-1.5995691e-04 -3.4637027e-03 -1.8771015e-04 
-7.3310272e-05 -1.9960995e-03 -5.6862653e-05 
-2.6963078e-05 -8.6349662e-04 -1.3327105e-04 
-1.2140627e-05 -1.8282424e-04 -1.3919548e-05 
4.8523957e-06 1.4564497e-04 1.9462620e-06 
8.3988216e-06 2.5797161e-04 3.7129153e-05 
4.1390567e-06 2.4913519e-04 5.8233760e-05 
8.3065270e-06 1.8014698e-04 5.9937280e-05 
3.1812735e-06 1.0705178e-04 5.6007022e-05 
4.4189642e-06 6.8438661e-05 3.1180392e-05 
1.4705571e-05 6.6650842e-05 1.8389701e-05 
2.9532790e-05 7.4480282e-05 -1.8466169e-06 
2.6216847e-05 6.5880587e-05 -2.8552880e-05 
3.1473926e-05 4.8637416e-05 -2.9008199e-05 
4.0161201e-05 4.2949017e-05 -2.1482832e-05 
5.8774614e-05 5.4951506e-05 -1.1620084e-05 
4.6487261e-05 7.0548653e-05 -1.3235414e-06 
4.4218930e-05 7.1273083e-05 5.5806350e-07 
4.1697811e-05 5.4672226e-05 -9.5530413e-06 
5.2478521e-05 4.1813757e-05 -8.2631732e-06 
4.8199370e-05 5.4836866e-05 -9.7227921e-06 
5.7516132e-05 9.2582632e-05 -7.1418622e-06 
5.0880812e-05 1.3247463e-04 3.7027628e-06 
4.2641801e-05 1.4533666e-04 8.7632434e-06 
3.3810134e-05 1.2905018e-04 7.3474157e-06 
3.0308889e-05 1.0407557e-04 2.9760402e-05 
9.9087902e-06 8.5098094e-05 5.5270782e-05 
-7.4650393e-07 4.5466051e-05 6.2828010e-05 
-3.2531178e-05 -1.2283675e-04 1.2451381e-04 
-6.4779779e-05 -5.7885330e-04 1.1073987e-04 
-1.2814690e-04 -1.4007560e-03 1.9696286e-04 
-2.0230707e-04 -2.5171943e-03 9.8728997e-05 
-2.6980226e-04 -3.7726103e-03 2.0368499e-04 
-3.7407820e-04 -4.7876630e-03 -2.0276646e-05 
-3.8028037e-04 -5.1068165e-03 -6.4171611e-05 
-3.0637797e-04 -4.6999599e-03 -4.2339820e-05 
-2.6940092e-04 -4.4048321e-03 -8.4104096e-05 
-2.5703109e-04 -4.5040604e-03 -1.3911593e-04 
-2.5473878e-04 -4.7072168e-03 -1.0260178e-04 
-2.7730226e-04 -4.2813634e-03 -1.5341329e-04 
-2.0999811e-04 -3.0945202e-03 -2.7888492e-04 
-1.5193106e-04 -1.7836295e-03 -3.1237921e-04 
-7.7664972e-06 -7.6554168e-04 -9.1368893e-05 
2.8287855e-05 -1.4501713e-04 -8.7991239e-06 
2.1358055e-05 1.5581668e-04 2.9483358e-06 
1.8570554e-05 2.3567177e-04 2.5180323e-05 
4.0147047e-06 1.9128583e-04 3.3827826e-05 
-7.4082059e-06 1.0894139e-04 2.9222703e-05 
-9.7520551e-06 4.9286307e-05 2.8877495e-05 
-1.3737536e-05 2.2932023e-05 1.7993199e-05 
-2.0798638e-05 1.3143661e-05 4.0401483e-06 
-1.5862870e-05 4.8763391e-06 -1.0906973e-05 
-9.4824227e-06 -2.3932942e-06 -2.8877444e-05 
-4.0522891e-06 -2.9037274e-06 -3.3447679e-05 
8.0856844e-06 2.9633889e-06 -2.8616676e-05 
7.2474259e-06 7.5804351e-06 -1.6196060e-05 
-1.6559505e-07 5.1882107e-06 -1.0646353e-06 
-5.1510551e-07 -5.2554230e-07 2.7514545e-06 
-3.1398570e-06 -3.4783691e-06 -3.2406836e-06 
-1.1871075e-06 -2.7741182e-06 -8.9879450e-06 
6.2474114e-06 -1.8050556e-06 -9.0952663e-06 
6.7748747e-06 -2.7847343e-06 -6.7330684e-06 
1.8488805e-06 -4.0555160e-06 2.2011545e-06 
2.9017465e-06 -2.8469153e-06 5.0300400e-06 
-7.5626008e-07 5.2954277e-07 4.4720632e-06 
0.0000000e+00 1.5060043e-06 0.0000000e+00 
0.0000000e+00 5.5251498e-06 0.0000000e+00 
0.0000000e+00 1.6002708e-05 0.0000000e+00 
0.0000000e+00 2.9975567e-05 0.0000000e+00 
0.0000000e+00 4.4536344e-05 0.0000000e+00 
0.0000000e+00 5.6276145e-05 0.0000000e+00 
0.0000000e+00 6.2981999e-05 0.0000000e+00 
0.0000000e+00 6.6683337e-05 0.0000000e+00 
0.0000000e+00 7.2197683e-05 0.0000000e+00 
0.0000000e+00 8.1284183e-05 0.0000000e+00 
0.0000000e+00 8.9792513e-05 0.0000000e+00 
0.0000000e+00 8.9608584e-05 0.0000000e+00 
0.0000000e+00 7.7142933e-05 0.0000000e+00 
0.0000000e+00 6.4755863e-05 0.0000000e+00 
0.0000000e+00 7.1919589e-05 0.0000000e+00 
0.0000000e+00 9.9797136e-05 0.0000000e+00 
0.0000000e+00 1.2737521e-04 0.0000000e+00 
0.0000000e+00 1.3348369e-04 0.0000000e+00 
0.0000000e+00 1.1579208e-04 0.0000000e+00 
0.0000000e+00 1.0019421e-04 0.0000000e+00 
0.0000000e+00 1.1536255e-04 0.0000000e+00 
0.0000000e+00 1.4408502e-04 0.0000000e+00 
0.0000000e+00 1.0653066e-04 0.0000000e+00 
0.0000000e+00 -1.0242082e-04 0.0000000e+00 
0.0000000e+00 -5.5761711e-04 0.0000000e+00 
0.0000000e+00 -1.2693744e-03 0.0000000e+00 
0.0000000e+00 -2.2071553e-03 0.0000000e+00 
0.0000000e+00 -3.3433202e-03 0.0000000e+00 
0.0000000e+00 -4.5078513e-03 0.0000000e+00 
0.0000000e+00 -5.1889862e-03 0.0000000e+00 
0.0000000e+00 -4.9117133e-03 0.0000000e+00 
0.0000000e+00 -4.4926181e-03 0.0000000e+00 
0.0000000e+00 -4.4731679e-03 0.0000000e+00 
0.0000000e+00 -4.7728424e-03 0.0000000e+00 
0.0000000e+00 -4.6724491e-03 0.0000000e+00 
0.0000000e+00 -3.4902410e-03 0.0000000e+00 
0.0000000e+00 -2.0135946e-03 0.0000000e+00 
0.0000000e+00 -8.6961809e-04 0.0000000e+00 
0.0000000e+00 -1.8304147e-04 0.0000000e+00 
0.0000000e+00 1.4722228e-04 0.0000000e+00 
0.0000000e+00 2.5896993e-04 0.0000000e+00 
0.0000000e+00 2.4939168e-04 0.0000000e+00 
0.0000000e+00 1.8112143e-04 0.0000000e+00 
0.0000000e+00 1.0843511e-04 0.0000000e+00 
0.0000000e+00 6.9304995e-05 0.0000000e+00 
0.0000000e+00 6.6507120e-05 0.0000000e+00 
0.0000000e+00 7.3344323e-05 0.0000000e+00 
0.0000000e+00 6.5555912e-05 0.0000000e+00 
0.0000000e+00 4.9118964e-05 0.0000000e+00 
0.0000000e+00 4.3551543e-05 0.0000000e+00 
0.0000000e+00 5.5112192e-05 0.0000000e+00 
0.0000000e+00 7.0252012e-05 0.0000000e+00 
0.0000000e+00 7.0654154e-05 0.0000000e+00 
0.0000000e+00 5.4419408e-05 0.0000000e+00 
0.0000000e+00 4.2294661e-05 0.0000000e+00 
0.0000000e+00 5.5676854e-05 0.0000000e+00 
0.0000000e+00 9.3273222e-05 0.0000000e+00 
0.0000000e+00 1.3193120e-04 0.0000000e+00 
0.0000000e+00 1.4463760e-04 0.0000000e+00 
0.0000000e+00 1.2869279e-04 0.0000000e+00 
0.0000000e+00 1.0487327e-04 0.0000000e+00 
0.0000000e+00 8.8221816e-05 0.0000000e+00 
0.0000000e+00 4.8470367e-05 0.0000000e+00 
0.0000000e+00 -1.2462631e-04 0.0000000e+00 
0.0000000e+00 -5.8424642e-04 0.0000000e+00 
0.0000000e+00 -1.4051745e-03 0.0000000e+00 
0.0000000e+00 -2.5269354e-03 0.0000000e+00 
0.0000000e+00 -3.7827913e-03 0.0000000e+00 
0.0000000e+00 -4.8162960e-03 0.0000000e+00 
0.0000000e+00 -5.1346049e-03 0.0000000e+00 
0.0000000e+00 -4.7335592e-03 0.0000000e+00 
0.0000000e+00 -4.4250381e-03 0.0000000e+00 
0.0000000e+00 -4.5279036e-03 0.0000000e+00 
0.0000000e+00 -4.7301962e-03 0.0000000e+00 
0.0000000e+00 -4.3147071e-03 0.0000000e+00 
0.0000000e+00 -3.1143783e-03 0.0000000e+00 
0.0000000e+00 -1.7927958e-03 0.0000000e+00 
0.0000000e+00 -7.7133189e-04 0.0000000e+00 
0.0000000e+00 -1.4573634e-04 0.0000000e+00 
0.0000000e+00 1.5593445e-04 0.0000000e+00 
0.0000000e+00 2.3646580e-04 0.0000000e+00 
0.0000000e+00 1.9258677e-04 0.0000000e+00 
0.0000000e+00 1.1076893e-04 0.0000000e+00 
0.0000000e+00 4.9971422e-05 0.0000000e+00 
0.0000000e+00 2.2615495e-05 0.0000000e+00 
0.0000000e+00 1.2678292e-05 0.0000000e+00 
0.0000000e+00 4.8641668e-06 0.0000000e+00 
0.0000000e+00 -2.1398307e-06 0.0000000e+00 
0.0000000e+00 -2.8056293e-06 0.0000000e+00 
0.0000000e+00 2.8198601e-06 0.0000000e+00 
0.0000000e+00 7.3305405e-06 0.0000000e+00 
0.0000000e+00 5.2006876e-06 0.0000000e+00 
0.0000000e+00 -3.6244506e-07 0.0000000e+00 
0.0000000e+00 -3.4059181e-06 0.0000000e+00 
0.0000000e+00 -2.8312631e-06 0.0000000e+00 
0.0000000e+00 -1.8871742e-06 0.0000000e+00 
0.0000000e+00 -2.7903955e-06 0.0000000e+00 
0.0000000e+00 -3.9783085e-06 0.0000000e+00 
0.0000000e+00 -2.7807500e-06 0.0000000e+00 
0.0000000e+00 5.1076006e-07 0.0000000e+00 
0.0000000e+00 2.4356011e-06 0.0000000e+00 
3.8327813e-05 4.3921213e-05 -2.3598004e-05 
-1.8442059e-05 -1.3907907e-05 -1.6757778e-06 
-2.2622562e-05 -1.6898801e-05 4.6740033e-06 
-1.6734046e-05 -2.0576617e-06 8.0491855e-06 
0.0000000e+00 7.2679181e-06 0.0000000e+00 
0.0000000e+00 0.0000000e+00 0.0000000e+00 
0.0000000e+00 0.0000000e+00 0.0000000e+00 
0.0000000e+00 0.0000000e+00 0.0000000e+00 
0.0000000e+00 0.0000000e+00 0.0000000e+00 
0.0000000e+00 0.0000000e+00 0.0000000e+00 
0.0000000e+00 0.0000000e+00 0.0000000e+00 
0.0000000e+00 0.0000000e+00 0.0000000e+00 
0.0000000e+00 0.0000000e+00 0.0000000e+00 
0.0000000e+00 0.0000000e+00 0.0000000e+00 
0.0000000e+00 0.0000000e+00 0.0000000e+00 
0.0000000e+00 0.0000000e+00 0.0000000e+00 
0.0000000e+00 0.0000000e+00 0.0000000e+00 
0.0000000e+00 0.0000000e+00 0.0000000e+00 
0.0000000e+00 0.0000000e+00 0.0000000e+00 
0.0000000e+00 0.0000000e+00 0.0000000e+00 
0.0000000e+00 0.0000000e+00 0.0000000e+00 
0.0000000e+00 0.0000000e+00 0.0000000e+00 
0.0000000e+00 0.0000000e+00 0.0000000e+00 
0.0000000e+00 0.0000000e+00 0.0000000e+00 
0.0000000e+00 0.0000000e+00 0.0000000e+00 
0.0000000e+00 0.0000000e+00 0.0000000e+00 
0.0000000e+00 0.0000000e+00 0.0000000e+00 
0.0000000e+00 0.0000000e+00 0.0000000e+00 
0.0000000e+00 0.0000000e+00 0.0000000e+00 
0.0000000e+00 0.0000000e+00 0.0000000e+00 
0.0000000e+00 0.0000000e+00 0.0000000e+00 
0.0000000e+00 0.0000000e+00 0.0000000e+00 
0.0000000e+00 0.0000000e+00 0.0000000e+00 
0.0000000e+00 0.0000000e+00 0.0000000e+00 
0.0000000e+00 0.0000000e+00 0.0000000e+00 
0.0000000e+00 0.0000000e+00 0.0000000e+00 
0.0000000e+00 0.0000000e+00 0.0000000e+00 
0.0000000e+00 0.0000000e+00 0.0000000e+00 
0.0000000e+00 0.0000000e+00 0.0000000e+00 
0.0000000e+00 0.0000000e+00 0.0000000e+00 
0.0000000e+00 0.0000000e+00 0.0000000e+00 
0.0000000e+00 0.0000000e+00 0.0000000e+00 
0.0000000e+00 0.0000000e+00 0.0000000e+00 
0.0000000e+00 0.0000000e+00 0.0000000e+00 
0.0000000e+00 0.0000000e+00 0.0000000e+00 
0.0000000e+00 0.0000000e+00 0.0000000e+00 
0.0000000e+00 0.0000000e+00 0.0000000e+00 
0.0000000e+00 0.0000000e+00 0.0000000e+00 
0.0000000e+00 0.0000000e+00 0.0000000e+00 
0.0000000e+00 0.0000000e+00 0.0000000e+00 
0.0000000e+00 0.0000000e+00 0.0000000e+00 
0.0000000e+00 0.0000000e+00 0.0000000e+00 
0.0000000e+00 0.0000000e+00 0.0000000e+00 
0.0000000e+00 0.0000000e+00 0.0000000e+00 
0.0000000e+00 0.0000000e+00 0.0000000e+00 
0.0000000e+00 0.0000000e+00 0.0000000e+00 
0.0000000e+00 0.0000000e+00 0.0000000e+00 
0.0000000e+00 0.0000000e+00 0.0000000e+00 
0.0000000e+00 0.0000000e+00 0.0000000e+00 
0.0000000e+00 0.0000000e+00 0.0000000e+00 
0.0000000e+00 0.0000000e+00 0.0000000e+00 
0.0000000e+00 0.0000000e+00 0.0000000e+00 
0.0000000e+00 0.0000000e+00 0.0000000e+00 
0.0000000e+00 0.0000000e+00 0.0000000e+00 
0.0000000e+00 0.0000000e+00 0.0000000e+00 
0.0000000e+00 0.0000000e+00 0.0000000e+00 
0.0000000e+00 0.0000000e+00 0.0000000e+00 
0.0000000e+00 0.0000000e+00 0.0000000e+00 
0.0000000e+00 0.0000000e+00 0.0000000e+00 
0.0000000e+00 0.0000000e+00 0.0000000e+00 
0.0000000e+00 0.0000000e+00 0.0000000e+00 
0.0000000e+00 0.0000000e+00 0.0000000e+00 
0.0000000e+00 0.0000000e+00 0.0000000e+00 
0.0000000e+00 0.0000000e+00 0.0000000e+00 
0.0000000e+00 0.0000000e+00 0.0000000e+00 
0.0000000e+00 0.0000000e+00 0.0000000e+00 
0.0000000e+00 0.0000000e+00 0.0000000e+00 
0.0000000e+00 0.0000000e+00 0.0000000e+00 
0.0000000e+00 0.0000000e+00 0.0000000e+00 
0.0000000e+00 0.0000000e+00 0.0000000e+00 
0.0000000e+00 0.0000000e+00 0.0000000e+00 
0.0000000e+00 0.0000000e+00 0.0000000e+00 
0.0000000e+00 0.0000000e+00 0.0000000e+00 
0.0000000e+00 0.0000000e+00 0.0000000e+00 
0.0000000e+00 0.0000000e+00 0.0000000e+00 
0.0000000e+00 0.0000000e+00 0.0000000e+00 
0.0000000e+00 0.0000000e+00 0.0000000e+00 
0.0000000e+00 0.0000000e+00 0.0000000e+00 
0.0000000e+00 0.0000000e+00 0.0000000e+00 
0.0000000e+00 0.0000000e+00 0.0000000e+00 
0.0000000e+00 0.0000000e+00 0.0000000e+00 
0.0000000e+00 0.0000000e+00 0.0000000e+00 
0.0000000e+00 0.0000000e+00 0.0000000e+00 
0.0000000e+00 0.0000000e+00 0.0000000e+00 
0.0000000e+00 0.0000000e+00 0.0000000e+00 
0.0000000e+00 0.0000000e+00 0.0000000e+00 
0.0000000e+00 0.0000000e+00 0.0000000e+00 
0.0000000e+00 0.0000000e+00 0.0000000e+00 
0.0000000e+00 0.0000000e+00 0.0000000e+00 
0.0000000e+00 0.0000000e+00 0.0000000e+00 
0.0000000e+00 0.0000000e+00 0.0000000e+00 
0.0000000e+00 0.0000000e+00 0.0000000e+00 
0.0000000e+00 0.0000000e+00 0.0000000e+00 
0.0000000e+00 0.0000000e+00 0.0000000e+00 
0.0000000e+00 0.0000000e+00 0.0000000e+00 
0.0000000e+00 0.0000000e+00 0.0000000e+00 
0.0000000e+00 0.0000000e+00 0.0000000e+00 
0.0000000e+00 0.0000000e+00 0.0000000e+00 
0.0000000e+00 0.0000000e+00 0.0000000e+00 
0.0000000e+00 0.0000000e+00 0.0000000e+00 
0.0000000e+00 0.0000000e+00 0.0000000e+00 
-2.0244429e-06 2.3374057e-06 1.8459340e-06 
-1.6062380e-06 3.7181351e-06 8.0349821e-07 
-1.2575737e-06 2.6940781e-06 3.5764642e-06 
-2.2700926e-06 4.0979980e-06 1.6361251e-06 
-9.4437809e-07 -1.8145186e-06 1.1313529e-06 
-5.5353717e-06 1.5784628e-06 1.4791513e-06 
-2.9031214e-06 6.0509542e-06 -3.9918805e-06 
3.5240666e-07 -7.0024448e-06 -6.9565353e-06 
7.3951367e-07 3.0006229e-06 -1.0747665e-05 
1.0564414e-05 -1.6605263e-08 -1.9666941e-05 
1.9150137e-05 -1.1363803e-05 -2.4543460e-05 
2.9691979e-05 3.4536609e-07 -2.3002160e-05 
4.3318083e-05 -1.2212859e-05 -2.4054831e-05 
4.5518780e-05 -1.7589837e-05 -1.6019290e-05 
4.1760843e-05 -1.7389038e-05 -2.6280161e-06 
3.9788833e-05 -1.2932993e-05 5.6118233e-06 
3.1853870e-05 -1.0682229e-05 1.6750811e-05 
2.0631342e-05 -4.3640498e-06 2.3274193e-05 
1.2483996e-05 -1.1133985e-06 2.1342452e-05 
9.4164652e-06 2.4919345e-07 2.1309643e-05 
5.9664471e-06 -4.9036589e-07 2.0153568e-05 
3.1156435e-06 2.2332404e-07 1.2251676e-05 
-1.8414324e-06 2.1409307e-06 9.8272840e-06 
-5.3486647e-06 -3.3487865e-07 5.1607017e-06 
-4.9865030e-06 -2.2530560e-06 -3.2562079e-06 
-4.0006266e-06 -4.6808486e-06 1.2977308e-06 
-4.2949214e-06 8.1516409e-06 -2.0654059e-06 
-1.9208364e-06 -5.1766710e-07 -9.6014001e-06 
7.8847904e-07 -3.7108061e-06 -1.0116178e-05 
1.1438698e-05 4.1925923e-06 -1.9213603e-05 
1.8017910e-05 -3.9070578e-06 -2.0269032e-05 
2.9755345e-05 -7.8595785e-06 -2.5159858e-05 
4.4431643e-05 -4.2342772e-06 -1.6818276e-05 
4.3534059e-05 -1.5873446e-05 -1.1554044e-05 
4.5390447e-05 -1.1836220e-05 -3.6315589e-06 
4.1827621e-05 -1.0950084e-05 8.5188622e-06 
2.9042943e-05 -9.5218566e-06 1.6489215e-05 
1.8289684e-05 -6.9633456e-06 2.0934498e-05 
1.2475095e-05 -5.7583457e-06 1.7452530e-05 
8.4277235e-06 -2.5346503e-06 1.4601121e-05 
5.7130642e-06 -2.0892537e-06 1.1148710e-05 
3.1188754e-06 -8.2445354e-07 7.1463478e-06 
4.3940531e-07 1.3946081e-07 3.5617506e-06 
-4.9314957e-07 -7.4910577e-07 4.4512080e-07 
-1.6902248e-07 -1.0101698e-07 -8.2092970e-07 
-1.2451811e-07 5.4997628e-07 -1.1529216e-06 
1.5298358e-08 -1.8666078e-07 -1.1579341e-06 
1.2754921e-07 -2.6632051e-07 -1.0618218e-06 
2.8438495e-07 7.6636491e-07 -1.0099371e-06 
0.0000000e+00 -6.0555728e-08 0.0000000e+00 
0.0000000e+00 -1.9697085e-05 0.0000000e+00 
0.0000000e+00 -3.3682983e-05 0.0000000e+00 
0.0000000e+00 -2.8434131e-05 0.0000000e+00 
0.0000000e+00 -3.7333288e-05 0.0000000e+00 
0.0000000e+00 -6.1016326e-05 0.0000000e+00 
0.0000000e+00 -2.9201241e-05 0.0000000e+00 
0.0000000e+00 -2.9967236e-05 0.0000000e+00 
0.0000000e+00 -3.2465570e-05 0.0000000e+00 
0.0000000e+00 -1.0717780e-05 0.0000000e+00 
0.0000000e+00 -4.0492541e-05 0.0000000e+00 
0.0000000e+00 -1.4549505e-04 0.0000000e+00 
0.0000000e+00 -2.4525588e-04 0.0000000e+00 
0.0000000e+00 -4.9523357e-04 0.0000000e+00 
0.0000000e+00 -5.1247055e-04 0.0000000e+00 
0.0000000e+00 -4.7320052e-04 0.0000000e+00 
0.0000000e+00 -3.8988522e-04 0.0000000e+00 
0.0000000e+00 -2.1400256e-04 0.0000000e+00 
0.0000000e+00 -6.9210859e-05 0.0000000e+00 
0.0000000e+00 -1.6637521e-05 0.0000000e+00 
0.0000000e+00 -6.0676812e-06 0.0000000e+00 
0.0000000e+00 -1.4858577e-05 0.0000000e+00 
0.0000000e+00 -2.4112069e-05 0.0000000e+00 
0.0000000e+00 -2.0570013e-05 0.0000000e+00 
0.0000000e+00 -1.2490836e-05 0.0000000e+00 
0.0000000e+00 -3.1615360e-05 0.0000000e+00 
0.0000000e+00 -2.1638018e-05 0.0000000e+00 
0.0000000e+00 -1.3013661e-06 0.0000000e+00 
0.0000000e+00 -5.6096855e-05 0.0000000e+00 
0.0000000e+00 -4.9618902e-05 0.0000000e+00 
0.0000000e+00 -5.8700880e-05 0.0000000e+00 
0.0000000e+00 -1.8292094e-04 0.0000000e+00 
0.0000000e+00 -2.6801365e-04 0.0000000e+00 
0.0000000e+00 -4.9557851e-04 0.0000000e+00 
0.0000000e+00 -5.3337472e-04 0.0000000e+00 
0.0000000e+00 -5.0476519e-04 0.0000000e+00 
0.0000000e+00 -4.1855191e-04 0.0000000e+00 
0.0000000e+00 -2.3095070e-04 0.0000000e+00 
0.0000000e+00 -4.9031616e-05 0.0000000e+00 
0.0000000e+00 -4.3444456e-06 0.0000000e+00 
0.0000000e+00 1.1236597e-05 0.0000000e+00 
0.0000000e+00 6.8560967e-06 0.0000000e+00 
0.0000000e+00 4.8856350e-06 0.0000000e+00 
0.0000000e+00 8.3214661e-07 0.0000000e+00 
0.0000000e+00 1.4735831e-07 0.0000000e+00 
0.0000000e+00 -3.9837698e-07 0.0000000e+00 
0.0000000e+00 -1.1296211e-06 0.0000000e+00 
0.0000000e+00 2.6332741e-06 0.0000000e+00 
0.0000000e+00 1.3994865e-06 0.0000000e+00 
-3.7915693e-06 3.7897073e-06 4.6337859e-06 
-4.3366231e-06 1.7173569e-06 3.5362109e-06 
-4.2093116e-06 6.5794757e-06 3.2462908e-06 
-2.2354041e-06 6.5582626e-06 5.5406722e-06 
9.2209127e-08 8.9517522e-07 -1.1594025e-06 
7.0234461e-07 6.7045613e-07 -1.2110428e-06 
1.1954818e-06 2.6268003e-07 -5.5578153e-07 
9.4733650e-07 -1.0690176e-06 -2.1272920e-07 
-5.2440532e-06 5.4162515e-06 9.3284334e-06 
-4.9623843e-08 8.3272249e-07 -1.1890055e-06 
-4.6222308e-06 8.5610209e-06 1.3339601e-05 
-3.9088022e-06 1.0078622e-05 9.1495922e-06 
0.0000000e+00 -2.6028938e-06 0.0000000e+00 
0.0000000e+00 -3.0016730e-05 0.0000000e+00 
0.0000000e+00 -3.6006353e-05 0.0000000e+00 
0.0000000e+00 -4.5027689e-05 0.0000000e+00 
0.0000000e+00 -6.3283092e-05 0.0000000e+00 
0.0000000e+00 -6.5216896e-05 0.0000000e+00 
0.0000000e+00 -5.6318975e-05 0.0000000e+00 
0.0000000e+00 -4.7710295e-05 0.0000000e+00 
0.0000000e+00 -2.7341030e-05 0.0000000e+00 
0.0000000e+00 1.1912160e-05 0.0000000e+00 
0.0000000e+00 -9.6210890e-05 0.0000000e+00 
0.0000000e+00 -2.8668900e-04 0.0000000e+00 
0.0000000e+00 -6.3572213e-04 0.0000000e+00 
0.0000000e+00 -1.0858618e-03 0.0000000e+00 