# vtk DataFile Version 4.0
vtk output
ASCII
DATASET UNSTRUCTURED_GRID
POINTS 21 float
0.0000000e+00 0.0000000e+00 0.0000000e+00 
1.0000000e+00 0.0000000e+00 0.0000000e+00 
5.0000001e-02 0.0000000e+00 0.0000000e+00 
1.0000000e-01 0.0000000e+00 0.0000000e+00 
1.5000001e-01 0.0000000e+00 0.0000000e+00 
2.0000000e-01 0.0000000e+00 0.0000000e+00 
2.5000000e-01 0.0000000e+00 0.0000000e+00 
3.0000001e-01 0.0000000e+00 0.0000000e+00 
3.4999999e-01 0.0000000e+00 0.0000000e+00 
4.0000001e-01 0.0000000e+00 0.0000000e+00 
4.4999999e-01 0.0000000e+00 0.0000000e+00 
5.0000000e-01 0.0000000e+00 0.0000000e+00 
5.5000001e-01 0.0000000e+00 0.0000000e+00 
6.0000002e-01 0.0000000e+00 0.0000000e+00 
6.4999998e-01 0.0000000e+00 0.0000000e+00 
6.9999999e-01 0.0000000e+00 0.0000000e+00 
7.5000000e-01 0.0000000e+00 0.0000000e+00 
8.0000001e-01 0.0000000e+00 0.0000000e+00 
8.5000002e-01 0.0000000e+00 0.0000000e+00 
8.9999998e-01 0.0000000e+00 0.0000000e+00 
9.4999999e-01 0.0000000e+00 0.0000000e+00 

CELLS 20 60
2 0 2
2 2 3
2 3 4
2 4 5
2 5 6
2 6 7
2 7 8
2 8 9
2 9 10
2 10 11
2 11 12
2 12 13
2 13 14
2 14 15
2 15 16
2 16 17
2 17 18
2 18 19
2 19 20
2 20 1

CELL_TYPES 20
3
3
3
3
3
3
3
3
3
3
3
3
3
3
3
3
3
3
3
3
POINT_DATA 21
FIELD FieldData 1
DISPLACEMENT 3 21  float
0.0000000e+00 0.0000000e+00 0.0000000e+00 
0.0000000e+00 0.0000000e+00 0.0000000e+00 
-4.5177257e-13 -2.7637006e-07 0.0000000e+00 
-8.7628055e-13 -5.4732948e-07 0.0000000e+00 
-1.2480013e-12 -8.0746753e-07 0.0000000e+00 
-1.5449247e-12 -1.0513737e-06 0.0000000e+00 
-1.7503264e-12 -1.2736372e-06 0.0000000e+00 
-1.8545018e-12 -1.4688475e-06 0.0000000e+00 
-1.8565165e-12 -1.6315938e-06 0.0000000e+00 
-1.7659959e-12 -1.7564655e-06 0.0000000e+00 
-1.6048460e-12 -1.8380521e-06 0.0000000e+00 
-1.4090263e-12 -1.8709427e-06 0.0000000e+00 
-1.2303088e-12 -1.8497268e-06 0.0000000e+00 
-1.1380562e-12 -1.7689939e-06 0.0000000e+00 
-1.2205755e-12 -1.6233325e-06 0.0000000e+00 
-1.4976459e-12 -1.4074068e-06 0.0000000e+00 
-1.2763605e-12 -1.1281845e-06 0.0000000e+00 
-1.1460374e-12 -8.1856211e-07 0.0000000e+00 
-9.9694797e-13 -5.1473592e-07 0.0000000e+00 
-7.3191930e-13 -2.5290254e-07 0.0000000e+00 
-3.4498869e-13 -6.9258384e-08 0.0000000e+00 
CELL_DATA 20
FIELD FieldData 1
FORCE 3 20  float
1.3105184e-02 3.2579553e+03 0.0000000e+00 
1.3006679e-02 2.2022297e+03 0.0000000e+00 
1.2809961e-02 1.2859392e+03 0.0000000e+00 
1.2515031e-02 5.0185608e+02 0.0000000e+00 
1.2121304e-02 -1.5866080e+02 0.0000000e+00 
1.1629656e-02 -7.0510083e+02 0.0000000e+00 
1.1039503e-02 -1.1474246e+03 0.0000000e+00 
1.0350845e-02 -1.4956334e+03 0.0000000e+00 
9.5639750e-03 -1.7594463e+03 0.0000000e+00 
8.6788908e-03 -1.9485435e+03 0.0000000e+00 
7.6953028e-03 -2.0676746e+03 0.0000000e+00 
6.6120443e-03 -2.1556636e+03 0.0000000e+00 
5.4457271e-03 -1.9630609e+03 0.0000000e+00 
7.9447702e-03 -1.0396942e+03 0.0000000e+00 
4.2039581e-02 4.9960571e+03 0.0000000e+00 
4.5737289e-02 5.1135015e+03 0.0000000e+00 
4.5032021e-02 5.2677261e+03 0.0000000e+00 
3.9924938e-02 5.4574268e+03 0.0000000e+00 
3.0415753e-02 5.6821499e+03 0.0000000e+00 
1.6504172e-02 5.9421357e+03 0.0000000e+00 
