# vtk DataFile Version 4.0
vtk output
ASCII
DATASET UNSTRUCTURED_GRID
POINTS 21 float
0.0000000e+00 0.0000000e+00 0.0000000e+00 
1.0000000e+00 0.0000000e+00 0.0000000e+00 
5.0000001e-02 0.0000000e+00 0.0000000e+00 
1.0000000e-01 0.0000000e+00 0.0000000e+00 
1.5000001e-01 0.0000000e+00 0.0000000e+00 
2.0000000e-01 0.0000000e+00 0.0000000e+00 
2.5000000e-01 0.0000000e+00 0.0000000e+00 
3.0000001e-01 0.0000000e+00 0.0000000e+00 
3.4999999e-01 0.0000000e+00 0.0000000e+00 
4.0000001e-01 0.0000000e+00 0.0000000e+00 
4.4999999e-01 0.0000000e+00 0.0000000e+00 
5.0000000e-01 0.0000000e+00 0.0000000e+00 
5.5000001e-01 0.0000000e+00 0.0000000e+00 
6.0000002e-01 0.0000000e+00 0.0000000e+00 
6.4999998e-01 0.0000000e+00 0.0000000e+00 
6.9999999e-01 0.0000000e+00 0.0000000e+00 
7.5000000e-01 0.0000000e+00 0.0000000e+00 
8.0000001e-01 0.0000000e+00 0.0000000e+00 
8.5000002e-01 0.0000000e+00 0.0000000e+00 
8.9999998e-01 0.0000000e+00 0.0000000e+00 
9.4999999e-01 0.0000000e+00 0.0000000e+00 

CELLS 20 60
2 0 2
2 2 3
2 3 4
2 4 5
2 5 6
2 6 7
2 7 8
2 8 9
2 9 10
2 10 11
2 11 12
2 12 13
2 13 14
2 14 15
2 15 16
2 16 17
2 17 18
2 18 19
2 19 20
2 20 1

CELL_TYPES 20
3
3
3
3
3
3
3
3
3
3
3
3
3
3
3
3
3
3
3
3
POINT_DATA 21
FIELD FieldData 1
DISPLACEMENT 3 21  float
0.0000000e+00 0.0000000e+00 0.0000000e+00 
0.0000000e+00 0.0000000e+00 0.0000000e+00 
-7.8486572e-13 -3.7765267e-07 0.0000000e+00 
-1.5052100e-12 -7.4565315e-07 0.0000000e+00 
-2.1021030e-12 -1.0943493e-06 0.0000000e+00 
-2.5277978e-12 -1.4140887e-06 0.0000000e+00 
-2.7513248e-12 -1.6952195e-06 0.0000000e+00 
-2.7640505e-12 -1.9280892e-06 0.0000000e+00 
-2.5853109e-12 -2.1030457e-06 0.0000000e+00 
-2.2679721e-12 -2.2104368e-06 0.0000000e+00 
-1.9040576e-12 -2.2406100e-06 0.0000000e+00 
-1.6132639e-12 -2.1839664e-06 0.0000000e+00 
-1.2402618e-12 -2.0396903e-06 0.0000000e+00 
-1.0057998e-12 -1.8254760e-06 0.0000000e+00 
-9.2993202e-13 -1.5613733e-06 0.0000000e+00 
-9.7272331e-13 -1.2674326e-06 0.0000000e+00 
-1.0583074e-12 -9.6370400e-07 0.0000000e+00 
-1.0990628e-12 -6.7023774e-07 0.0000000e+00 
-1.0197127e-12 -4.0708400e-07 0.0000000e+00 
-7.8145867e-13 -1.9429302e-07 0.0000000e+00 
-4.0605412e-13 -5.1914956e-08 0.0000000e+00 
CELL_DATA 20
FIELD FieldData 1
FORCE 3 20  float
2.6936620e-02 2.8702344e+03 0.0000000e+00 
2.6623620e-02 1.7996721e+03 0.0000000e+00 
2.5997913e-02 8.5512482e+02 0.0000000e+00 
2.5058914e-02 3.1443970e+01 0.0000000e+00 
2.3806332e-02 -6.7754529e+02 0.0000000e+00 
2.2241333e-02 -1.2789712e+03 0.0000000e+00 
2.0363044e-02 -1.7776128e+03 0.0000000e+00 
1.8172339e-02 -2.2019355e+03 0.0000000e+00 
1.5666593e-02 -2.3792573e+03 0.0000000e+00 
1.3560985e-02 -1.9918101e+03 0.0000000e+00 
2.4408434e-02 2.1072925e+03 0.0000000e+00 
2.9120622e-02 2.0057720e+03 0.0000000e+00 
3.2481726e-02 1.9666707e+03 0.0000000e+00 
3.4491159e-02 1.9858414e+03 0.0000000e+00 
3.5150964e-02 2.0599568e+03 0.0000000e+00 
3.4459684e-02 2.1865068e+03 0.0000000e+00 
3.2417610e-02 2.3637717e+03 0.0000000e+00 
2.9024450e-02 2.5907600e+03 0.0000000e+00 
2.4280787e-02 2.8671228e+03 0.0000000e+00 
1.8186620e-02 3.1930369e+03 0.0000000e+00 
