# vtk DataFile Version 4.0
vtk output
ASCII
DATASET UNSTRUCTURED_GRID
POINTS 21 float
0.0000000e+00 0.0000000e+00 0.0000000e+00 
1.0000000e+00 0.0000000e+00 0.0000000e+00 
5.0000001e-02 0.0000000e+00 0.0000000e+00 
1.0000000e-01 0.0000000e+00 0.0000000e+00 
1.5000001e-01 0.0000000e+00 0.0000000e+00 
2.0000000e-01 0.0000000e+00 0.0000000e+00 
2.5000000e-01 0.0000000e+00 0.0000000e+00 
3.0000001e-01 0.0000000e+00 0.0000000e+00 
3.4999999e-01 0.0000000e+00 0.0000000e+00 
4.0000001e-01 0.0000000e+00 0.0000000e+00 
4.4999999e-01 0.0000000e+00 0.0000000e+00 
5.0000000e-01 0.0000000e+00 0.0000000e+00 
5.5000001e-01 0.0000000e+00 0.0000000e+00 
6.0000002e-01 0.0000000e+00 0.0000000e+00 
6.4999998e-01 0.0000000e+00 0.0000000e+00 
6.9999999e-01 0.0000000e+00 0.0000000e+00 
7.5000000e-01 0.0000000e+00 0.0000000e+00 
8.0000001e-01 0.0000000e+00 0.0000000e+00 
8.5000002e-01 0.0000000e+00 0.0000000e+00 
8.9999998e-01 0.0000000e+00 0.0000000e+00 
9.4999999e-01 0.0000000e+00 0.0000000e+00 

CELLS 20 60
2 0 2
2 2 3
2 3 4
2 4 5
2 5 6
2 6 7
2 7 8
2 8 9
2 9 10
2 10 11
2 11 12
2 12 13
2 13 14
2 14 15
2 15 16
2 16 17
2 17 18
2 18 19
2 19 20
2 20 1

CELL_TYPES 20
3
3
3
3
3
3
3
3
3
3
3
3
3
3
3
3
3
3
3
3
POINT_DATA 21
FIELD FieldData 1
DISPLACEMENT 3 21  float
0.0000000e+00 0.0000000e+00 0.0000000e+00 
0.0000000e+00 0.0000000e+00 0.0000000e+00 
0.0000000e+00 -3.5344328e-07 0.0000000e+00 
0.0000000e+00 -6.9908998e-07 0.0000000e+00 
0.0000000e+00 -1.0291436e-06 0.0000000e+00 
0.0000000e+00 -1.3358076e-06 0.0000000e+00 
0.0000000e+00 -1.6112855e-06 0.0000000e+00 
0.0000000e+00 -1.8477806e-06 0.0000000e+00 
0.0000000e+00 -2.0374964e-06 0.0000000e+00 
0.0000000e+00 -2.1726364e-06 0.0000000e+00 
0.0000000e+00 -2.2454042e-06 0.0000000e+00 
0.0000000e+00 -2.2480031e-06 0.0000000e+00 
0.0000000e+00 -2.1726360e-06 0.0000000e+00 
0.0000000e+00 -2.0115704e-06 0.0000000e+00 
0.0000000e+00 -1.7676174e-06 0.0000000e+00 
0.0000000e+00 -1.4658070e-06 0.0000000e+00 
0.0000000e+00 -1.1339976e-06 0.0000000e+00 
0.0000000e+00 -8.0004702e-07 0.0000000e+00 
0.0000000e+00 -4.9181381e-07 0.0000000e+00 
0.0000000e+00 -2.3715606e-07 0.0000000e+00 
0.0000000e+00 -6.3932056e-08 0.0000000e+00 
CELL_DATA 20
FIELD FieldData 1
FORCE 3 20  float
0.0000000e+00 -1.3098196e+03 0.0000000e+00 
0.0000000e+00 -1.3098196e+03 0.0000000e+00 
0.0000000e+00 -1.3098195e+03 0.0000000e+00 
0.0000000e+00 -1.3098195e+03 0.0000000e+00 
0.0000000e+00 -1.3098193e+03 0.0000000e+00 
0.0000000e+00 -1.3098193e+03 0.0000000e+00 
0.0000000e+00 -1.3098185e+03 0.0000000e+00 
0.0000000e+00 -1.3098245e+03 0.0000000e+00 
0.0000000e+00 -1.3097716e+03 0.0000000e+00 
0.0000000e+00 -1.3102137e+03 0.0000000e+00 
0.0000000e+00 -1.3065327e+03 0.0000000e+00 
0.0000000e+00 -5.5692926e+02 0.0000000e+00 
0.0000000e+00 4.6801821e+03 0.0000000e+00 
0.0000000e+00 4.6801821e+03 0.0000000e+00 
0.0000000e+00 4.6801826e+03 0.0000000e+00 
0.0000000e+00 4.6801826e+03 0.0000000e+00 
0.0000000e+00 4.6801826e+03 0.0000000e+00 
0.0000000e+00 4.6801826e+03 0.0000000e+00 
0.0000000e+00 4.6801826e+03 0.0000000e+00 
0.0000000e+00 4.6801826e+03 0.0000000e+00 
