# vtk DataFile Version 4.0
vtk output
ASCII
DATASET UNSTRUCTURED_GRID
POINTS 21 float
0.0000000e+00 0.0000000e+00 0.0000000e+00 
1.0000000e+00 0.0000000e+00 0.0000000e+00 
5.0000001e-02 0.0000000e+00 0.0000000e+00 
1.0000000e-01 0.0000000e+00 0.0000000e+00 
1.5000001e-01 0.0000000e+00 0.0000000e+00 
2.0000000e-01 0.0000000e+00 0.0000000e+00 
2.5000000e-01 0.0000000e+00 0.0000000e+00 
3.0000001e-01 0.0000000e+00 0.0000000e+00 
3.4999999e-01 0.0000000e+00 0.0000000e+00 
4.0000001e-01 0.0000000e+00 0.0000000e+00 
4.4999999e-01 0.0000000e+00 0.0000000e+00 
5.0000000e-01 0.0000000e+00 0.0000000e+00 
5.5000001e-01 0.0000000e+00 0.0000000e+00 
6.0000002e-01 0.0000000e+00 0.0000000e+00 
6.4999998e-01 0.0000000e+00 0.0000000e+00 
6.9999999e-01 0.0000000e+00 0.0000000e+00 
7.5000000e-01 0.0000000e+00 0.0000000e+00 
8.0000001e-01 0.0000000e+00 0.0000000e+00 
8.5000002e-01 0.0000000e+00 0.0000000e+00 
8.9999998e-01 0.0000000e+00 0.0000000e+00 
9.4999999e-01 0.0000000e+00 0.0000000e+00 

CELLS 20 60
2 0 2
2 2 3
2 3 4
2 4 5
2 5 6
2 6 7
2 7 8
2 8 9
2 9 10
2 10 11
2 11 12
2 12 13
2 13 14
2 14 15
2 15 16
2 16 17
2 17 18
2 18 19
2 19 20
2 20 1

CELL_TYPES 20
3
3
3
3
3
3
3
3
3
3
3
3
3
3
3
3
3
3
3
3
POINT_DATA 21
FIELD FieldData 1
DISPLACEMENT 3 21  float
0.0000000e+00 0.0000000e+00 0.0000000e+00 
0.0000000e+00 0.0000000e+00 0.0000000e+00 
0.0000000e+00 -2.7637006e-07 0.0000000e+00 
0.0000000e+00 -5.4732948e-07 0.0000000e+00 
0.0000000e+00 -8.0746753e-07 0.0000000e+00 
0.0000000e+00 -1.0513737e-06 0.0000000e+00 
0.0000000e+00 -1.2736372e-06 0.0000000e+00 
0.0000000e+00 -1.4688475e-06 0.0000000e+00 
0.0000000e+00 -1.6315938e-06 0.0000000e+00 
0.0000000e+00 -1.7564655e-06 0.0000000e+00 
0.0000000e+00 -1.8380521e-06 0.0000000e+00 
0.0000000e+00 -1.8709427e-06 0.0000000e+00 
0.0000000e+00 -1.8497268e-06 0.0000000e+00 
0.0000000e+00 -1.7689939e-06 0.0000000e+00 
0.0000000e+00 -1.6233325e-06 0.0000000e+00 
0.0000000e+00 -1.4074068e-06 0.0000000e+00 
0.0000000e+00 -1.1281845e-06 0.0000000e+00 
0.0000000e+00 -8.1856211e-07 0.0000000e+00 
0.0000000e+00 -5.1473592e-07 0.0000000e+00 
0.0000000e+00 -2.5290254e-07 0.0000000e+00 
0.0000000e+00 -6.9258384e-08 0.0000000e+00 
CELL_DATA 20
FIELD FieldData 1
FORCE 3 20  float
0.0000000e+00 -9.0898987e+02 0.0000000e+00 
0.0000000e+00 -9.0898987e+02 0.0000000e+00 
0.0000000e+00 -9.0898981e+02 0.0000000e+00 
0.0000000e+00 -9.0898975e+02 0.0000000e+00 
0.0000000e+00 -9.0898969e+02 0.0000000e+00 
0.0000000e+00 -9.0898962e+02 0.0000000e+00 
0.0000000e+00 -9.0898950e+02 0.0000000e+00 
0.0000000e+00 -9.0898950e+02 0.0000000e+00 
0.0000000e+00 -9.0898853e+02 0.0000000e+00 
0.0000000e+00 -9.0899603e+02 0.0000000e+00 
0.0000000e+00 -9.0893207e+02 0.0000000e+00 
0.0000000e+00 -9.0945905e+02 0.0000000e+00 
0.0000000e+00 -9.0513403e+02 0.0000000e+00 
0.0000000e+00 -3.0420624e+01 0.0000000e+00 
0.0000000e+00 6.0810117e+03 0.0000000e+00 
0.0000000e+00 6.0810117e+03 0.0000000e+00 
0.0000000e+00 6.0810117e+03 0.0000000e+00 
0.0000000e+00 6.0810117e+03 0.0000000e+00 
0.0000000e+00 6.0810117e+03 0.0000000e+00 
0.0000000e+00 6.0810117e+03 0.0000000e+00 
