# vtk DataFile Version 4.0
vtk output
ASCII
DATASET UNSTRUCTURED_GRID
POINTS 21 float
0.0000000e+00 0.0000000e+00 0.0000000e+00 
1.0000000e+00 0.0000000e+00 0.0000000e+00 
5.0000001e-02 0.0000000e+00 0.0000000e+00 
1.0000000e-01 0.0000000e+00 0.0000000e+00 
1.5000001e-01 0.0000000e+00 0.0000000e+00 
2.0000000e-01 0.0000000e+00 0.0000000e+00 
2.5000000e-01 0.0000000e+00 0.0000000e+00 
3.0000001e-01 0.0000000e+00 0.0000000e+00 
3.4999999e-01 0.0000000e+00 0.0000000e+00 
4.0000001e-01 0.0000000e+00 0.0000000e+00 
4.4999999e-01 0.0000000e+00 0.0000000e+00 
5.0000000e-01 0.0000000e+00 0.0000000e+00 
5.5000001e-01 0.0000000e+00 0.0000000e+00 
6.0000002e-01 0.0000000e+00 0.0000000e+00 
6.4999998e-01 0.0000000e+00 0.0000000e+00 
6.9999999e-01 0.0000000e+00 0.0000000e+00 
7.5000000e-01 0.0000000e+00 0.0000000e+00 
8.0000001e-01 0.0000000e+00 0.0000000e+00 
8.5000002e-01 0.0000000e+00 0.0000000e+00 
8.9999998e-01 0.0000000e+00 0.0000000e+00 
9.4999999e-01 0.0000000e+00 0.0000000e+00 

CELLS 20 60
2 0 2
2 2 3
2 3 4
2 4 5
2 5 6
2 6 7
2 7 8
2 8 9
2 9 10
2 10 11
2 11 12
2 12 13
2 13 14
2 14 15
2 15 16
2 16 17
2 17 18
2 18 19
2 19 20
2 20 1

CELL_TYPES 20
3
3
3
3
3
3
3
3
3
3
3
3
3
3
3
3
3
3
3
3
POINT_DATA 21
FIELD FieldData 1
DISPLACEMENT 3 21  float
0.0000000e+00 0.0000000e+00 0.0000000e+00 
0.0000000e+00 0.0000000e+00 0.0000000e+00 
0.0000000e+00 -3.7765267e-07 0.0000000e+00 
0.0000000e+00 -7.4565315e-07 0.0000000e+00 
0.0000000e+00 -1.0943493e-06 0.0000000e+00 
0.0000000e+00 -1.4140887e-06 0.0000000e+00 
0.0000000e+00 -1.6952195e-06 0.0000000e+00 
0.0000000e+00 -1.9280892e-06 0.0000000e+00 
0.0000000e+00 -2.1030457e-06 0.0000000e+00 
0.0000000e+00 -2.2104368e-06 0.0000000e+00 
0.0000000e+00 -2.2406100e-06 0.0000000e+00 
0.0000000e+00 -2.1839664e-06 0.0000000e+00 
0.0000000e+00 -2.0396903e-06 0.0000000e+00 
0.0000000e+00 -1.8254760e-06 0.0000000e+00 
0.0000000e+00 -1.5613733e-06 0.0000000e+00 
0.0000000e+00 -1.2674326e-06 0.0000000e+00 
0.0000000e+00 -9.6370400e-07 0.0000000e+00 
0.0000000e+00 -6.7023774e-07 0.0000000e+00 
0.0000000e+00 -4.0708400e-07 0.0000000e+00 
0.0000000e+00 -1.9429302e-07 0.0000000e+00 
0.0000000e+00 -5.1914956e-08 0.0000000e+00 
CELL_DATA 20
FIELD FieldData 1
FORCE 3 20  float
0.0000000e+00 -1.6215692e+03 0.0000000e+00 
0.0000000e+00 -1.6215692e+03 0.0000000e+00 
0.0000000e+00 -1.6215692e+03 0.0000000e+00 
0.0000000e+00 -1.6215691e+03 0.0000000e+00 
0.0000000e+00 -1.6215685e+03 0.0000000e+00 
0.0000000e+00 -1.6215731e+03 0.0000000e+00 
0.0000000e+00 -1.6215315e+03 0.0000000e+00 
0.0000000e+00 -1.6218888e+03 0.0000000e+00 
0.0000000e+00 -1.6188517e+03 0.0000000e+00 
0.0000000e+00 -9.9435828e+02 0.0000000e+00 
0.0000000e+00 3.3684321e+03 0.0000000e+00 
0.0000000e+00 3.3684324e+03 0.0000000e+00 
0.0000000e+00 3.3684324e+03 0.0000000e+00 
0.0000000e+00 3.3684324e+03 0.0000000e+00 
0.0000000e+00 3.3684324e+03 0.0000000e+00 
0.0000000e+00 3.3684324e+03 0.0000000e+00 
0.0000000e+00 3.3684324e+03 0.0000000e+00 
0.0000000e+00 3.3684324e+03 0.0000000e+00 
0.0000000e+00 3.3684324e+03 0.0000000e+00 
0.0000000e+00 3.3684324e+03 0.0000000e+00 
