# vtk DataFile Version 4.0
vtk output
ASCII
DATASET UNSTRUCTURED_GRID
POINTS 21 float
0.0000000e+00 0.0000000e+00 0.0000000e+00 
1.0000000e+00 0.0000000e+00 0.0000000e+00 
5.0000001e-02 0.0000000e+00 0.0000000e+00 
1.0000000e-01 0.0000000e+00 0.0000000e+00 
1.5000001e-01 0.0000000e+00 0.0000000e+00 
2.0000000e-01 0.0000000e+00 0.0000000e+00 
2.5000000e-01 0.0000000e+00 0.0000000e+00 
3.0000001e-01 0.0000000e+00 0.0000000e+00 
3.4999999e-01 0.0000000e+00 0.0000000e+00 
4.0000001e-01 0.0000000e+00 0.0000000e+00 
4.4999999e-01 0.0000000e+00 0.0000000e+00 
5.0000000e-01 0.0000000e+00 0.0000000e+00 
5.5000001e-01 0.0000000e+00 0.0000000e+00 
6.0000002e-01 0.0000000e+00 0.0000000e+00 
6.4999998e-01 0.0000000e+00 0.0000000e+00 
6.9999999e-01 0.0000000e+00 0.0000000e+00 
7.5000000e-01 0.0000000e+00 0.0000000e+00 
8.0000001e-01 0.0000000e+00 0.0000000e+00 
8.5000002e-01 0.0000000e+00 0.0000000e+00 
8.9999998e-01 0.0000000e+00 0.0000000e+00 
9.4999999e-01 0.0000000e+00 0.0000000e+00 

CELLS 20 60
2 0 2
2 2 3
2 3 4
2 4 5
2 5 6
2 6 7
2 7 8
2 8 9
2 9 10
2 10 11
2 11 12
2 12 13
2 13 14
2 14 15
2 15 16
2 16 17
2 17 18
2 18 19
2 19 20
2 20 1

CELL_TYPES 20
3
3
3
3
3
3
3
3
3
3
3
3
3
3
3
3
3
3
3
3
POINT_DATA 21
FIELD FieldData 1
DISPLACEMENT 3 21  float
0.0000000e+00 0.0000000e+00 0.0000000e+00 
0.0000000e+00 0.0000000e+00 0.0000000e+00 
-1.9120775e-13 -1.6657094e-07 0.0000000e+00 
-3.7336448e-13 -3.3018912e-07 0.0000000e+00 
-5.3793927e-13 -4.8790184e-07 0.0000000e+00 
-6.7745695e-13 -6.3675634e-07 0.0000000e+00 
-7.8598705e-13 -7.7379991e-07 0.0000000e+00 
-8.5972326e-13 -8.9607977e-07 0.0000000e+00 
-8.9745632e-13 -1.0006432e-06 0.0000000e+00 
-9.0112043e-13 -1.0845374e-06 0.0000000e+00 
-8.7630950e-13 -1.1448097e-06 0.0000000e+00 
-8.3280328e-13 -1.1785074e-06 0.0000000e+00 
-7.8508868e-13 -1.1826778e-06 0.0000000e+00 
-7.5288679e-13 -1.1543680e-06 0.0000000e+00 
-7.6167344e-13 -1.0906252e-06 0.0000000e+00 
-8.4323759e-13 -9.8849705e-07 0.0000000e+00 
-1.0356875e-12 -8.4502989e-07 0.0000000e+00 
-1.2957491e-12 -6.5735628e-07 0.0000000e+00 
-9.4835056e-13 -4.3667310e-07 0.0000000e+00 
-5.9495003e-13 -2.2381479e-07 0.0000000e+00 
-2.3292403e-13 -6.3388164e-08 0.0000000e+00 
CELL_DATA 20
FIELD FieldData 1
FORCE 3 20  float
3.6225189e-03 3.5249539e+03 0.0000000e+00 
3.5933757e-03 2.4760312e+03 0.0000000e+00 
3.5347973e-03 1.5726660e+03 0.0000000e+00 
3.4464931e-03 8.0664148e+02 0.0000000e+00 
3.3296281e-03 1.6817476e+02 0.0000000e+00 
3.1833285e-03 -3.5344849e+02 0.0000000e+00 
3.0073028e-03 -7.6944037e+02 0.0000000e+00 
2.8021336e-03 -1.0910260e+03 0.0000000e+00 
2.5675294e-03 -1.3291494e+03 0.0000000e+00 
2.3040737e-03 -1.4941305e+03 0.0000000e+00 
2.0114742e-03 -1.5954128e+03 0.0000000e+00 
1.6891488e-03 -1.6420067e+03 0.0000000e+00 
1.3373885e-03 -1.6368368e+03 0.0000000e+00 
9.5502770e-04 -1.6222625e+03 0.0000000e+00 
5.6188385e-04 -1.3090022e+03 0.0000000e+00 
3.8705289e-03 -1.7944984e+02 0.0000000e+00 
3.5045177e-02 6.7663721e+03 0.0000000e+00 
3.3872738e-02 6.9392939e+03 0.0000000e+00 
2.6014233e-02 7.1408745e+03 0.0000000e+00 
1.1470533e-02 7.3713809e+03 0.0000000e+00 
