# vtk DataFile Version 4.0
vtk output
ASCII
DATASET UNSTRUCTURED_GRID
POINTS 21 float
0.0000000e+00 0.0000000e+00 0.0000000e+00 
1.0000000e+00 0.0000000e+00 0.0000000e+00 
5.0000001e-02 0.0000000e+00 0.0000000e+00 
1.0000000e-01 0.0000000e+00 0.0000000e+00 
1.5000001e-01 0.0000000e+00 0.0000000e+00 
2.0000000e-01 0.0000000e+00 0.0000000e+00 
2.5000000e-01 0.0000000e+00 0.0000000e+00 
3.0000001e-01 0.0000000e+00 0.0000000e+00 
3.4999999e-01 0.0000000e+00 0.0000000e+00 
4.0000001e-01 0.0000000e+00 0.0000000e+00 
4.4999999e-01 0.0000000e+00 0.0000000e+00 
5.0000000e-01 0.0000000e+00 0.0000000e+00 
5.5000001e-01 0.0000000e+00 0.0000000e+00 
6.0000002e-01 0.0000000e+00 0.0000000e+00 
6.4999998e-01 0.0000000e+00 0.0000000e+00 
6.9999999e-01 0.0000000e+00 0.0000000e+00 
7.5000000e-01 0.0000000e+00 0.0000000e+00 
8.0000001e-01 0.0000000e+00 0.0000000e+00 
8.5000002e-01 0.0000000e+00 0.0000000e+00 
8.9999998e-01 0.0000000e+00 0.0000000e+00 
9.4999999e-01 0.0000000e+00 0.0000000e+00 

CELLS 20 60
2 0 2
2 2 3
2 3 4
2 4 5
2 5 6
2 6 7
2 7 8
2 8 9
2 9 10
2 10 11
2 11 12
2 12 13
2 13 14
2 14 15
2 15 16
2 16 17
2 17 18
2 18 19
2 19 20
2 20 1

CELL_TYPES 20
3
3
3
3
3
3
3
3
3
3
3
3
3
3
3
3
3
3
3
3
POINT_DATA 21
FIELD FieldData 1
DISPLACEMENT 3 21  float
0.0000000e+00 0.0000000e+00 0.0000000e+00 
0.0000000e+00 0.0000000e+00 0.0000000e+00 
0.0000000e+00 -7.1573780e-10 0.0000000e+00 
0.0000000e+00 -1.4206384e-09 0.0000000e+00 
0.0000000e+00 -2.1038644e-09 0.0000000e+00 
0.0000000e+00 -2.7545777e-09 0.0000000e+00 
0.0000000e+00 -3.3619396e-09 0.0000000e+00 
0.0000000e+00 -3.9151105e-09 0.0000000e+00 
0.0000000e+00 -4.4032493e-09 0.0000000e+00 
0.0000000e+00 -4.8155142e-09 0.0000000e+00 
0.0000000e+00 -5.1410609e-09 0.0000000e+00 
0.0000000e+00 -5.3690443e-09 0.0000000e+00 
0.0000000e+00 -5.4886171e-09 0.0000000e+00 
0.0000000e+00 -5.4889298e-09 0.0000000e+00 
0.0000000e+00 -5.3591314e-09 0.0000000e+00 
0.0000000e+00 -5.0883684e-09 0.0000000e+00 
0.0000000e+00 -4.6657860e-09 0.0000000e+00 
0.0000000e+00 -4.0805297e-09 0.0000000e+00 
0.0000000e+00 -3.3217256e-09 0.0000000e+00 
0.0000000e+00 -2.3786308e-09 0.0000000e+00 
0.0000000e+00 -1.2394505e-09 0.0000000e+00 
CELL_DATA 20
FIELD FieldData 1
FORCE 3 20  float
0.0000000e+00 -1.8206476e+00 0.0000000e+00 
0.0000000e+00 -1.8206900e+00 0.0000000e+00 
0.0000000e+00 -1.8207743e+00 0.0000000e+00 
0.0000000e+00 -1.8208991e+00 0.0000000e+00 
0.0000000e+00 -1.8210627e+00 0.0000000e+00 
0.0000000e+00 -1.8212624e+00 0.0000000e+00 
0.0000000e+00 -1.8214949e+00 0.0000000e+00 
0.0000000e+00 -1.8217568e+00 0.0000000e+00 
0.0000000e+00 -1.8220433e+00 0.0000000e+00 
0.0000000e+00 -1.8223492e+00 0.0000000e+00 
0.0000000e+00 -1.8226684e+00 0.0000000e+00 
0.0000000e+00 -1.8229977e+00 0.0000000e+00 
0.0000000e+00 -1.8233014e+00 0.0000000e+00 
0.0000000e+00 -1.8238035e+00 0.0000000e+00 
0.0000000e+00 -1.8226104e+00 0.0000000e+00 
0.0000000e+00 -1.8349676e+00 0.0000000e+00 
0.0000000e+00 -1.7378724e+00 0.0000000e+00 
0.0000000e+00 -2.5195909e+00 0.0000000e+00 
0.0000000e+00 3.7369764e+00 0.0000000e+00 
0.0000000e+00 1.2537802e+03 0.0000000e+00 
