# vtk DataFile Version 4.0
vtk output
ASCII
DATASET UNSTRUCTURED_GRID
POINTS 1920 float
0.0000000e+00 0.0000000e+00 0.0000000e+00 
0.0000000e+00 0.0000000e+00 5.0000000e+01 
5.0000000e+00 0.0000000e+00 0.0000000e+00 
5.0000000e+00 0.0000000e+00 5.0000000e+01 
5.0000000e+00 1.0000000e+00 0.0000000e+00 
5.0000000e+00 1.0000000e+00 5.0000000e+01 
0.0000000e+00 1.0000000e+00 0.0000000e+00 
0.0000000e+00 1.0000000e+00 5.0000000e+01 
5.0000000e+00 2.0000000e+00 0.0000000e+00 
5.0000000e+00 2.0000000e+00 5.0000000e+01 
3.0000000e+00 2.0000000e+00 0.0000000e+00 
3.0000000e+00 2.0000000e+00 5.0000000e+01 
0.0000000e+00 2.0000000e+00 0.0000000e+00 
0.0000000e+00 2.0000000e+00 5.0000000e+01 
1.5000000e+00 3.0000000e+00 0.0000000e+00 
1.5000000e+00 3.0000000e+00 5.0000000e+01 
7.5000000e-01 3.0000000e+00 0.0000000e+00 
7.5000000e-01 3.0000000e+00 5.0000000e+01 
0.0000000e+00 3.0000000e+00 0.0000000e+00 
0.0000000e+00 3.0000000e+00 5.0000000e+01 
7.5000000e-01 3.0000000e+00 5.0000000e-01 
7.5000000e-01 3.0000000e+00 1.0000000e+00 
7.5000000e-01 3.0000000e+00 1.5000000e+00 
7.5000000e-01 3.0000000e+00 2.0000000e+00 
7.5000000e-01 3.0000000e+00 2.5000000e+00 
7.5000000e-01 3.0000000e+00 3.0000000e+00 
7.5000000e-01 3.0000000e+00 3.5000000e+00 
7.5000000e-01 3.0000000e+00 4.0000000e+00 
7.5000000e-01 3.0000000e+00 4.5000000e+00 
7.5000000e-01 3.0000000e+00 5.0000000e+00 
7.5000000e-01 3.0000000e+00 5.5000000e+00 
7.5000000e-01 3.0000000e+00 6.0000000e+00 
7.5000000e-01 3.0000000e+00 6.5000000e+00 
7.5000000e-01 3.0000000e+00 7.0000000e+00 
7.5000000e-01 3.0000000e+00 7.5000000e+00 
7.5000000e-01 3.0000000e+00 8.0000000e+00 
7.5000000e-01 3.0000000e+00 8.5000000e+00 
7.5000000e-01 3.0000000e+00 9.0000000e+00 
7.5000000e-01 3.0000000e+00 9.5000000e+00 
7.5000000e-01 3.0000000e+00 1.0000000e+01 
7.5000000e-01 3.0000000e+00 1.0500000e+01 
7.5000000e-01 3.0000000e+00 1.1000000e+01 
7.5000000e-01 3.0000000e+00 1.1500000e+01 
7.5000000e-01 3.0000000e+00 1.2000000e+01 
7.5000000e-01 3.0000000e+00 1.2500000e+01 
7.5000000e-01 3.0000000e+00 1.3000000e+01 
7.5000000e-01 3.0000000e+00 1.3500000e+01 
7.5000000e-01 3.0000000e+00 1.4000000e+01 
7.5000000e-01 3.0000000e+00 1.4500000e+01 
7.5000000e-01 3.0000000e+00 1.5000000e+01 
7.5000000e-01 3.0000000e+00 1.5500000e+01 
7.5000000e-01 3.0000000e+00 1.6000000e+01 
7.5000000e-01 3.0000000e+00 1.6500000e+01 
7.5000000e-01 3.0000000e+00 1.7000000e+01 
7.5000000e-01 3.0000000e+00 1.7500000e+01 
7.5000000e-01 3.0000000e+00 1.8000000e+01 
7.5000000e-01 3.0000000e+00 1.8500000e+01 
7.5000000e-01 3.0000000e+00 1.9000000e+01 
7.5000000e-01 3.0000000e+00 1.9500000e+01 
7.5000000e-01 3.0000000e+00 2.0000000e+01 
7.5000000e-01 3.0000000e+00 2.0500000e+01 
7.5000000e-01 3.0000000e+00 2.1000000e+01 
7.5000000e-01 3.0000000e+00 2.1500000e+01 
7.5000000e-01 3.0000000e+00 2.2000000e+01 
7.5000000e-01 3.0000000e+00 2.2500000e+01 
7.5000000e-01 3.0000000e+00 2.3000000e+01 
7.5000000e-01 3.0000000e+00 2.3500000e+01 
7.5000000e-01 3.0000000e+00 2.4000000e+01 
7.5000000e-01 3.0000000e+00 2.4500000e+01 
7.5000000e-01 3.0000000e+00 2.5000000e+01 
7.5000000e-01 3.0000000e+00 2.5500000e+01 
7.5000000e-01 3.0000000e+00 2.6000000e+01 
7.5000000e-01 3.0000000e+00 2.6500000e+01 
7.5000000e-01 3.0000000e+00 2.7000000e+01 
7.5000000e-01 3.0000000e+00 2.7500000e+01 
7.5000000e-01 3.0000000e+00 2.8000000e+01 
7.5000000e-01 3.0000000e+00 2.8500000e+01 
7.5000000e-01 3.0000000e+00 2.9000000e+01 
7.5000000e-01 3.0000000e+00 2.9500000e+01 
7.5000000e-01 3.0000000e+00 3.0000000e+01 
7.5000000e-01 3.0000000e+00 3.0500000e+01 
7.5000000e-01 3.0000000e+00 3.1000000e+01 
7.5000000e-01 3.0000000e+00 3.1500000e+01 
7.5000000e-01 3.0000000e+00 3.2000000e+01 
7.5000000e-01 3.0000000e+00 3.2500000e+01 
7.5000000e-01 3.0000000e+00 3.3000000e+01 
7.5000000e-01 3.0000000e+00 3.3500000e+01 
7.5000000e-01 3.0000000e+00 3.4000000e+01 
7.5000000e-01 3.0000000e+00 3.4500000e+01 
7.5000000e-01 3.0000000e+00 3.5000000e+01 
7.5000000e-01 3.0000000e+00 3.5500000e+01 
7.5000000e-01 3.0000000e+00 3.6000000e+01 
7.5000000e-01 3.0000000e+00 3.6500000e+01 
7.5000000e-01 3.0000000e+00 3.7000000e+01 
7.5000000e-01 3.0000000e+00 3.7500000e+01 
7.5000000e-01 3.0000000e+00 3.8000000e+01 
7.5000000e-01 3.0000000e+00 3.8500000e+01 
7.5000000e-01 3.0000000e+00 3.9000000e+01 
7.5000000e-01 3.0000000e+00 3.9500000e+01 
7.5000000e-01 3.0000000e+00 4.0000000e+01 
7.5000000e-01 3.0000000e+00 4.0500000e+01 
7.5000000e-01 3.0000000e+00 4.1000000e+01 
7.5000000e-01 3.0000000e+00 4.1500000e+01 
7.5000000e-01 3.0000000e+00 4.2000000e+01 
7.5000000e-01 3.0000000e+00 4.2500000e+01 
7.5000000e-01 3.0000000e+00 4.3000000e+01 
7.5000000e-01 3.0000000e+00 4.3500000e+01 
7.5000000e-01 3.0000000e+00 4.4000000e+01 
7.5000000e-01 3.0000000e+00 4.4500000e+01 
7.5000000e-01 3.0000000e+00 4.5000000e+01 
7.5000000e-01 3.0000000e+00 4.5500000e+01 
7.5000000e-01 3.0000000e+00 4.6000000e+01 
7.5000000e-01 3.0000000e+00 4.6500000e+01 
7.5000000e-01 3.0000000e+00 4.7000000e+01 
7.5000000e-01 3.0000000e+00 4.7500000e+01 
7.5000000e-01 3.0000000e+00 4.8000000e+01 
7.5000000e-01 3.0000000e+00 4.8500000e+01 
7.5000000e-01 3.0000000e+00 4.9000000e+01 
7.5000000e-01 3.0000000e+00 4.9500000e+01 
7.5000000e-01 3.0250001e+00 0.0000000e+00 
7.5000000e-01 3.0250001e+00 5.0000000e-01 
7.5000000e-01 3.0250001e+00 1.0000000e+00 
7.5000000e-01 3.0250001e+00 1.5000000e+00 
7.5000000e-01 3.0250001e+00 2.0000000e+00 
7.5000000e-01 3.0250001e+00 2.5000000e+00 
7.5000000e-01 3.0250001e+00 3.0000000e+00 
7.5000000e-01 3.0250001e+00 3.5000000e+00 
7.5000000e-01 3.0250001e+00 4.0000000e+00 
7.5000000e-01 3.0250001e+00 4.5000000e+00 
7.5000000e-01 3.0250001e+00 5.0000000e+00 
7.5000000e-01 3.0250001e+00 5.5000000e+00 
7.5000000e-01 3.0250001e+00 6.0000000e+00 
7.5000000e-01 3.0250001e+00 6.5000000e+00 
7.5000000e-01 3.0250001e+00 7.0000000e+00 
7.5000000e-01 3.0250001e+00 7.5000000e+00 
7.5000000e-01 3.0250001e+00 8.0000000e+00 
7.5000000e-01 3.0250001e+00 8.5000000e+00 
7.5000000e-01 3.0250001e+00 9.0000000e+00 
7.5000000e-01 3.0250001e+00 9.5000000e+00 
7.5000000e-01 3.0250001e+00 1.0000000e+01 
7.5000000e-01 3.0250001e+00 1.0500000e+01 
7.5000000e-01 3.0250001e+00 1.1000000e+01 
7.5000000e-01 3.0250001e+00 1.1500000e+01 
7.5000000e-01 3.0250001e+00 1.2000000e+01 
7.5000000e-01 3.0250001e+00 1.2500000e+01 
7.5000000e-01 3.0250001e+00 1.3000000e+01 
7.5000000e-01 3.0250001e+00 1.3500000e+01 
7.5000000e-01 3.0250001e+00 1.4000000e+01 
7.5000000e-01 3.0250001e+00 1.4500000e+01 
7.5000000e-01 3.0250001e+00 1.5000000e+01 
7.5000000e-01 3.0250001e+00 1.5500000e+01 
7.5000000e-01 3.0250001e+00 1.6000000e+01 
7.5000000e-01 3.0250001e+00 1.6500000e+01 
7.5000000e-01 3.0250001e+00 1.7000000e+01 
7.5000000e-01 3.0250001e+00 1.7500000e+01 
7.5000000e-01 3.0250001e+00 1.8000000e+01 
7.5000000e-01 3.0250001e+00 1.8500000e+01 
7.5000000e-01 3.0250001e+00 1.9000000e+01 
7.5000000e-01 3.0250001e+00 1.9500000e+01 
7.5000000e-01 3.0250001e+00 2.0000000e+01 
7.5000000e-01 3.0250001e+00 2.0500000e+01 
7.5000000e-01 3.0250001e+00 2.1000000e+01 
7.5000000e-01 3.0250001e+00 2.1500000e+01 
7.5000000e-01 3.0250001e+00 2.2000000e+01 
7.5000000e-01 3.0250001e+00 2.2500000e+01 
7.5000000e-01 3.0250001e+00 2.3000000e+01 
7.5000000e-01 3.0250001e+00 2.3500000e+01 
7.5000000e-01 3.0250001e+00 2.4000000e+01 
7.5000000e-01 3.0250001e+00 2.4500000e+01 
7.5000000e-01 3.0250001e+00 2.5000000e+01 
7.5000000e-01 3.0250001e+00 2.5500000e+01 
7.5000000e-01 3.0250001e+00 2.6000000e+01 
7.5000000e-01 3.0250001e+00 2.6500000e+01 
7.5000000e-01 3.0250001e+00 2.7000000e+01 
7.5000000e-01 3.0250001e+00 2.7500000e+01 
7.5000000e-01 3.0250001e+00 2.8000000e+01 
7.5000000e-01 3.0250001e+00 2.8500000e+01 
7.5000000e-01 3.0250001e+00 2.9000000e+01 
7.5000000e-01 3.0250001e+00 2.9500000e+01 
7.5000000e-01 3.0250001e+00 3.0000000e+01 
7.5000000e-01 3.0250001e+00 3.0500000e+01 
7.5000000e-01 3.0250001e+00 3.1000000e+01 
7.5000000e-01 3.0250001e+00 3.1500000e+01 
7.5000000e-01 3.0250001e+00 3.2000000e+01 
7.5000000e-01 3.0250001e+00 3.2500000e+01 
7.5000000e-01 3.0250001e+00 3.3000000e+01 
7.5000000e-01 3.0250001e+00 3.3500000e+01 
7.5000000e-01 3.0250001e+00 3.4000000e+01 
7.5000000e-01 3.0250001e+00 3.4500000e+01 
7.5000000e-01 3.0250001e+00 3.5000000e+01 
7.5000000e-01 3.0250001e+00 3.5500000e+01 
7.5000000e-01 3.0250001e+00 3.6000000e+01 
7.5000000e-01 3.0250001e+00 3.6500000e+01 
7.5000000e-01 3.0250001e+00 3.7000000e+01 
7.5000000e-01 3.0250001e+00 3.7500000e+01 
7.5000000e-01 3.0250001e+00 3.8000000e+01 
7.5000000e-01 3.0250001e+00 3.8500000e+01 
7.5000000e-01 3.0250001e+00 3.9000000e+01 
7.5000000e-01 3.0250001e+00 3.9500000e+01 
7.5000000e-01 3.0250001e+00 4.0000000e+01 
7.5000000e-01 3.0250001e+00 4.0500000e+01 
7.5000000e-01 3.0250001e+00 4.1000000e+01 
7.5000000e-01 3.0250001e+00 4.1500000e+01 
7.5000000e-01 3.0250001e+00 4.2000000e+01 
7.5000000e-01 3.0250001e+00 4.2500000e+01 
7.5000000e-01 3.0250001e+00 4.3000000e+01 
7.5000000e-01 3.0250001e+00 4.3500000e+01 
7.5000000e-01 3.0250001e+00 4.4000000e+01 
7.5000000e-01 3.0250001e+00 4.4500000e+01 
7.5000000e-01 3.0250001e+00 4.5000000e+01 
7.5000000e-01 3.0250001e+00 4.5500000e+01 
7.5000000e-01 3.0250001e+00 4.6000000e+01 
7.5000000e-01 3.0250001e+00 4.6500000e+01 
7.5000000e-01 3.0250001e+00 4.7000000e+01 
7.5000000e-01 3.0250001e+00 4.7500000e+01 
7.5000000e-01 3.0250001e+00 4.8000000e+01 
7.5000000e-01 3.0250001e+00 4.8500000e+01 
7.5000000e-01 3.0250001e+00 4.9000000e+01 
7.5000000e-01 3.0250001e+00 4.9500000e+01 
7.5000000e-01 3.0250001e+00 5.0000000e+01 
1.5000000e+00 3.0000000e+00 2.5000000e+01 
3.0000000e+00 2.0000000e+00 2.5000000e+01 
4.0000000e+00 2.0000000e+00 2.5000000e+01 
5.0000000e+00 2.0000000e+00 2.5000000e+01 
0.0000000e+00 3.0000000e+00 2.5000000e+01 
0.0000000e+00 0.0000000e+00 1.0000000e+00 
0.0000000e+00 0.0000000e+00 2.0000000e+00 
0.0000000e+00 0.0000000e+00 3.0000000e+00 
0.0000000e+00 0.0000000e+00 4.0000000e+00 
0.0000000e+00 0.0000000e+00 5.0000000e+00 
[...]
POINT_DATA 1920
FIELD FieldData 3
DISPLACEMENT 3 1920  float
0.0000000e+00 0.0000000e+00 0.0000000e+00 
0.0000000e+00 0.0000000e+00 0.0000000e+00 
0.0000000e+00 0.0000000e+00 0.0000000e+00 
0.0000000e+00 0.0000000e+00 0.0000000e+00 
-1.8607510e-06 3.3495003e-06 2.7718684e-06 
1.2359813e-07 3.1014571e-07 -1.6888997e-07 
0.0000000e+00 -1.2494794e-05 0.0000000e+00 
0.0000000e+00 1.6935616e-06 0.0000000e+00 
-7.1308023e-06 4.5383727e-06 7.0668893e-06 
1.2497156e-07 7.6683796e-07 -1.2168075e-06 
-3.2130133e-06 -1.9812590e-07 1.3669974e-06 
3.4788545e-07 1.2240857e-07 -1.0207156e-06 
0.0000000e+00 -1.4863090e-05 0.0000000e+00 
0.0000000e+00 1.6910612e-06 0.0000000e+00 
9.9431227e-06 8.0366981e-06 -1.5798378e-05 
2.7369335e-06 2.9129790e-06 -4.3608297e-06 
-3.2533958e-06 3.6740716e-05 -4.2408442e-06 
2.8665244e-08 -4.2433790e-06 3.9536876e-06 
0.0000000e+00 -6.5490390e-06 0.0000000e+00 
0.0000000e+00 -1.3394254e-06 0.0000000e+00 
1.4607666e-05 3.4005850e-05 -7.9665897e-06 
1.7513832e-05 2.7725999e-05 -1.1678940e-05 
2.8878050e-05 2.0260130e-05 -1.5064931e-05 
2.8679429e-05 1.2739335e-05 -1.3415899e-05 
3.1496606e-05 5.8947135e-06 -1.2172911e-05 
2.3812072e-05 -4.9615636e-07 -1.3018133e-05 
2.8017152e-05 -6.2949221e-06 -1.0215907e-05 
2.2652444e-05 -1.1256282e-05 -9.5334008e-06 
2.9093724e-05 -1.4833619e-05 -1.2076730e-05 
1.7336008e-05 -1.7096309e-05 -6.2717722e-06 
2.4852850e-05 -1.8312521e-05 -9.0991102e-07 
1.3947250e-05 -1.8585235e-05 7.0449169e-06 
2.1804901e-05 -1.7664705e-05 1.0266758e-05 
8.4250441e-06 -1.5046006e-05 1.1781680e-05 
1.5162092e-05 -9.5044024e-06 5.4317447e-06 
1.1975204e-05 3.1034293e-07 -9.4938224e-07 
2.8938442e-05 1.5965315e-05 -7.2924331e-06 
2.7830289e-05 3.8012124e-05 -2.3053008e-06 
3.3729484e-05 6.5913591e-05 -5.1948177e-06 
3.0376314e-05 9.3679002e-05 -8.1626723e-07 
3.4529196e-05 1.1022624e-04 2.6093746e-06 
3.9644441e-05 9.2677205e-05 1.8666060e-05 
3.2193304e-05 7.7463192e-06 5.9431706e-05 
1.5261772e-05 -1.9255551e-04 8.7613516e-05 
-2.2823149e-05 -5.6657230e-04 1.7694014e-04 
-4.6157762e-05 -1.1688273e-03 1.5145299e-04 
-1.1141263e-04 -2.0389464e-03 2.5816698e-04 
-1.5325744e-04 -3.1250522e-03 1.2297604e-04 
-2.3728660e-04 -4.2519602e-03 2.0515145e-04 
-2.8454384e-04 -4.9256030e-03 5.0082479e-05 
-3.0053832e-04 -4.8124236e-03 -1.0898541e-05 
-2.9565979e-04 -4.5238798e-03 -6.7206347e-05 
-3.3704750e-04 -4.5128670e-03 -1.0103713e-04 
-6.3165108e-04 -4.6919417e-03 -1.4330249e-04 
-2.6394741e-04 -4.4803959e-03 -2.1401705e-04 
-1.5581337e-04 -3.4449121e-03 -1.4800420e-04 
-6.7692505e-05 -2.1769989e-03 -2.8830909e-04 
-3.5860674e-05 -1.0965056e-03 -1.4072456e-04 
2.3559420e-05 -3.6247156e-04 -1.2302503e-04 
3.8555161e-05 4.7515467e-05 -2.4941573e-05 
4.8448273e-05 2.1700090e-04 8.7345097e-06 
4.0879419e-05 2.3908970e-04 2.3581135e-05 
3.4415338e-05 1.9131579e-04 3.7616312e-05 
2.9734272e-05 1.2166055e-04 3.7701135e-05 
2.9948547e-05 5.7445308e-05 3.4986599e-05 
7.2466642e-06 9.8957325e-06 2.8725210e-05 
9.4121206e-06 -1.8989545e-05 3.4473094e-05 
5.4129937e-06 -3.3644588e-05 7.2327775e-06 
7.3508755e-07 -3.9280847e-05 -1.0607382e-05 
-8.9506892e-07 -4.1192296e-05 -2.4457424e-05 
2.2905615e-05 -4.1594409e-05 -2.2336051e-05 
1.4014231e-05 -4.1483141e-05 -9.4123106e-06 
1.5495409e-05 -4.0867624e-05 2.0854618e-06 
9.1628954e-06 -3.7615624e-05 1.0852605e-05 
1.5358159e-05 -3.0021807e-05 -6.8246976e-07 
1.3177118e-05 -1.5876945e-05 -7.5574867e-06 
3.0495208e-05 5.6861259e-06 -7.1486274e-06 
2.6760654e-05 3.3550827e-05 5.5716005e-06 
3.2347303e-05 6.4228079e-05 1.3440635e-05 
3.3896707e-05 9.1008973e-05 2.9008572e-05 
3.7060170e-05 1.0199542e-04 3.5930676e-05 
3.0320529e-05 7.3980111e-05 5.4631866e-05 
1.8171182e-05 -2.8147198e-05 9.6474287e-05 
5.8176997e-06 -2.5658961e-04 1.0712364e-04 
-4.5830311e-05 -6.7377638e-04 1.8637956e-04 
-9.2152237e-05 -1.3329874e-03 1.3127430e-04 
-1.6366655e-04 -2.2646107e-03 2.2506535e-04 
-2.3375443e-04 -3.3858900e-03 7.5934702e-05 
-2.9828327e-04 -4.4772625e-03 1.3548267e-04 
-2.9572623e-04 -4.9700830e-03 1.1439867e-05 
-2.9418804e-04 -4.7491156e-03 -4.7834921e-05 
-2.9627682e-04 -4.4785291e-03 -8.1192768e-05 
-2.8284470e-04 -4.5214687e-03 -9.3472430e-05 
-3.5188373e-04 -4.6962281e-03 -2.1732097e-04 
-3.4189149e-04 -4.4213934e-03 -3.0004533e-04 
-3.9184027e-04 -3.3452061e-03 -4.6643670e-04 
-8.7465443e-05 -2.0627440e-03 -2.5785342e-04 
-1.1033802e-05 -1.0107758e-03 -1.2063920e-04 
2.9775802e-05 -3.1228876e-04 -1.0658964e-04 
3.2446416e-05 6.5990309e-05 -1.7503136e-05 
3.0023959e-05 2.1398906e-04 1.0240256e-05 
2.6202879e-05 2.2580725e-04 3.1736519e-05 
1.1828952e-05 1.7764143e-04 4.6429024e-05 
7.1368322e-06 1.1447871e-04 4.3523742e-05 
-5.3553885e-07 6.0933908e-05 4.3964617e-05 
-7.9843676e-06 2.4265415e-05 3.2063672e-05 
-1.4895525e-05 4.2653132e-06 2.2961165e-05 
-1.2887586e-05 -3.9505348e-06 7.4061595e-06 
-1.2984768e-05 -5.5288560e-06 -9.6121648e-06 
-9.8712335e-06 -4.2040551e-06 -1.8172510e-05 
1.6578273e-06 -1.9161819e-06 -2.3477545e-05 
2.3451717e-06 5.4316843e-07 -1.6931826e-05 
1.7908262e-06 2.4077224e-06 -5.0013828e-06 
2.3545865e-06 3.1970089e-06 9.1262427e-07 
-3.9324659e-06 2.5276665e-06 -2.9657140e-06 
-3.6723939e-06 9.2559975e-07 -6.8493346e-06 
3.9801175e-06 -8.5338007e-07 -1.0219614e-05 
3.6344018e-06 -2.4525041e-06 -8.2165498e-06 
4.2784854e-06 -3.6954898e-06 -1.4427093e-06 
0.0000000e+00 3.6638234e-05 0.0000000e+00 
0.0000000e+00 3.4025503e-05 0.0000000e+00 
0.0000000e+00 2.7817608e-05 0.0000000e+00 
0.0000000e+00 2.0307869e-05 0.0000000e+00 
0.0000000e+00 1.2800296e-05 0.0000000e+00 
0.0000000e+00 5.8770115e-06 0.0000000e+00 
0.0000000e+00 -5.1620265e-07 0.0000000e+00 
0.0000000e+00 -6.3276575e-06 0.0000000e+00 
0.0000000e+00 -1.1238443e-05 0.0000000e+00 
0.0000000e+00 -1.4834038e-05 0.0000000e+00 
0.0000000e+00 -1.7114178e-05 0.0000000e+00 
0.0000000e+00 -1.8352035e-05 0.0000000e+00 
0.0000000e+00 -1.8624070e-05 0.0000000e+00 
0.0000000e+00 -1.7722119e-05 0.0000000e+00 
0.0000000e+00 -1.5070273e-05 0.0000000e+00 
0.0000000e+00 -9.5335172e-06 0.0000000e+00 
0.0000000e+00 3.3999586e-07 0.0000000e+00 
0.0000000e+00 1.6008227e-05 0.0000000e+00 
0.0000000e+00 3.8275539e-05 0.0000000e+00 
0.0000000e+00 6.6191169e-05 0.0000000e+00 
0.0000000e+00 9.4307143e-05 0.0000000e+00 
0.0000000e+00 1.1083813e-04 0.0000000e+00 
0.0000000e+00 9.3531387e-05 0.0000000e+00 
0.0000000e+00 8.3745754e-06 0.0000000e+00 
0.0000000e+00 -1.9256822e-04 0.0000000e+00 
0.0000000e+00 -5.6728104e-04 0.0000000e+00 
0.0000000e+00 -1.1733028e-03 0.0000000e+00 
0.0000000e+00 -2.0456540e-03 0.0000000e+00 
0.0000000e+00 -3.1418211e-03 0.0000000e+00 
0.0000000e+00 -4.2713722e-03 0.0000000e+00 
0.0000000e+00 -4.9561900e-03 0.0000000e+00 
0.0000000e+00 -4.8362277e-03 0.0000000e+00 
0.0000000e+00 -4.5520817e-03 0.0000000e+00 
0.0000000e+00 -4.5385272e-03 0.0000000e+00 
0.0000000e+00 -4.7114952e-03 0.0000000e+00 
0.0000000e+00 -4.5089428e-03 0.0000000e+00 
0.0000000e+00 -3.4696725e-03 0.0000000e+00 
0.0000000e+00 -2.1902218e-03 0.0000000e+00 
0.0000000e+00 -1.1050771e-03 0.0000000e+00 
0.0000000e+00 -3.6513101e-04 0.0000000e+00 
0.0000000e+00 4.7499605e-05 0.0000000e+00 
0.0000000e+00 2.1807080e-04 0.0000000e+00 
0.0000000e+00 2.4074754e-04 0.0000000e+00 
0.0000000e+00 1.9244433e-04 0.0000000e+00 
0.0000000e+00 1.2246403e-04 0.0000000e+00 
0.0000000e+00 5.7891801e-05 0.0000000e+00 
0.0000000e+00 1.0177845e-05 0.0000000e+00 
0.0000000e+00 -1.8988014e-05 0.0000000e+00 
0.0000000e+00 -3.3688833e-05 0.0000000e+00 
0.0000000e+00 -3.9477105e-05 0.0000000e+00 
0.0000000e+00 -4.1297353e-05 0.0000000e+00 
0.0000000e+00 -4.1693816e-05 0.0000000e+00 
0.0000000e+00 -4.1645108e-05 0.0000000e+00 
0.0000000e+00 -4.0899944e-05 0.0000000e+00 
0.0000000e+00 -3.7671929e-05 0.0000000e+00 
0.0000000e+00 -2.9990973e-05 0.0000000e+00 
0.0000000e+00 -1.5801717e-05 0.0000000e+00 
0.0000000e+00 5.7785278e-06 0.0000000e+00 
0.0000000e+00 3.3691627e-05 0.0000000e+00 
0.0000000e+00 6.4499320e-05 0.0000000e+00 
0.0000000e+00 9.1611022e-05 0.0000000e+00 
0.0000000e+00 1.0266176e-04 0.0000000e+00 
0.0000000e+00 7.4948752e-05 0.0000000e+00 
0.0000000e+00 -2.7522066e-05 0.0000000e+00 
0.0000000e+00 -2.5686657e-04 0.0000000e+00 
0.0000000e+00 -6.7494711e-04 0.0000000e+00 
0.0000000e+00 -1.3385696e-03 0.0000000e+00 
0.0000000e+00 -2.2721540e-03 0.0000000e+00 
0.0000000e+00 -3.4047542e-03 0.0000000e+00 
0.0000000e+00 -4.4968403e-03 0.0000000e+00 
0.0000000e+00 -5.0014118e-03 0.0000000e+00 
0.0000000e+00 -4.7726757e-03 0.0000000e+00 
0.0000000e+00 -4.5061382e-03 0.0000000e+00 
0.0000000e+00 -4.5434339e-03 0.0000000e+00 
0.0000000e+00 -4.7275811e-03 0.0000000e+00 
0.0000000e+00 -4.4456776e-03 0.0000000e+00 
0.0000000e+00 -3.3603900e-03 0.0000000e+00 
0.0000000e+00 -2.0785865e-03 0.0000000e+00 
0.0000000e+00 -1.0186577e-03 0.0000000e+00 
0.0000000e+00 -3.1457550e-04 0.0000000e+00 
0.0000000e+00 6.6229266e-05 0.0000000e+00 
0.0000000e+00 2.1517531e-04 0.0000000e+00 
0.0000000e+00 2.2752916e-04 0.0000000e+00 
0.0000000e+00 1.7874400e-04 0.0000000e+00 
0.0000000e+00 1.1534309e-04 0.0000000e+00 
0.0000000e+00 6.1302264e-05 0.0000000e+00 
0.0000000e+00 2.4474475e-05 0.0000000e+00 
0.0000000e+00 4.2586507e-06 0.0000000e+00 
0.0000000e+00 -4.0466480e-06 0.0000000e+00 
0.0000000e+00 -5.6311496e-06 0.0000000e+00 
0.0000000e+00 -4.2606889e-06 0.0000000e+00 
0.0000000e+00 -1.9141062e-06 0.0000000e+00 
0.0000000e+00 5.2804137e-07 0.0000000e+00 
0.0000000e+00 2.3978737e-06 0.0000000e+00 
0.0000000e+00 3.1525392e-06 0.0000000e+00 
0.0000000e+00 2.5218390e-06 0.0000000e+00 
0.0000000e+00 9.5435007e-07 0.0000000e+00 
0.0000000e+00 -8.4345595e-07 0.0000000e+00 
0.0000000e+00 -2.4683525e-06 0.0000000e+00 
0.0000000e+00 -3.7050486e-06 0.0000000e+00 
0.0000000e+00 -4.2171177e-06 0.0000000e+00 
1.2877653e-05 -4.2952677e-05 -9.7021093e-06 
2.0933086e-05 3.7850411e-06 -1.6444144e-06 
7.0972560e-06 -1.6369983e-06 -7.3309405e-07 
-7.2825455e-06 -3.0718936e-06 3.8523654e-06 
0.0000000e+00 3.7756447e-05 0.0000000e+00 
0.0000000e+00 0.0000000e+00 0.0000000e+00 
0.0000000e+00 0.0000000e+00 0.0000000e+00 
0.0000000e+00 0.0000000e+00 0.0000000e+00 
0.0000000e+00 0.0000000e+00 0.0000000e+00 
0.0000000e+00 0.0000000e+00 0.0000000e+00 
0.0000000e+00 0.0000000e+00 0.0000000e+00 
0.0000000e+00 0.0000000e+00 0.0000000e+00 
0.0000000e+00 0.0000000e+00 0.0000000e+00 
0.0000000e+00 0.0000000e+00 0.0000000e+00 
0.0000000e+00 0.0000000e+00 0.0000000e+00 
0.0000000e+00 0.0000000e+00 0.0000000e+00 
0.0000000e+00 0.0000000e+00 0.0000000e+00 
0.0000000e+00 0.0000000e+00 0.0000000e+00 
0.0000000e+00 0.0000000e+00 0.0000000e+00 
0.0000000e+00 0.0000000e+00 0.0000000e+00 
0.0000000e+00 0.0000000e+00 0.0000000e+00 
0.0000000e+00 0.0000000e+00 0.0000000e+00 
0.0000000e+00 0.0000000e+00 0.0000000e+00 
0.0000000e+00 0.0000000e+00 0.0000000e+00 
0.0000000e+00 0.0000000e+00 0.0000000e+00 
0.0000000e+00 0.0000000e+00 0.0000000e+00 
0.0000000e+00 0.0000000e+00 0.0000000e+00 
0.0000000e+00 0.0000000e+00 0.0000000e+00 
0.0000000e+00 0.0000000e+00 0.0000000e+00 
0.0000000e+00 0.0000000e+00 0.0000000e+00 
0.0000000e+00 0.0000000e+00 0.0000000e+00 
0.0000000e+00 0.0000000e+00 0.0000000e+00 
0.0000000e+00 0.0000000e+00 0.0000000e+00 
0.0000000e+00 0.0000000e+00 0.0000000e+00 
0.0000000e+00 0.0000000e+00 0.0000000e+00 
0.0000000e+00 0.0000000e+00 0.0000000e+00 
0.0000000e+00 0.0000000e+00 0.0000000e+00 
0.0000000e+00 0.0000000e+00 0.0000000e+00 
0.0000000e+00 0.0000000e+00 0.0000000e+00 
0.0000000e+00 0.0000000e+00 0.0000000e+00 
0.0000000e+00 0.0000000e+00 0.0000000e+00 
0.0000000e+00 0.0000000e+00 0.0000000e+00 
0.0000000e+00 0.0000000e+00 0.0000000e+00 
0.0000000e+00 0.0000000e+00 0.0000000e+00 
0.0000000e+00 0.0000000e+00 0.0000000e+00 
0.0000000e+00 0.0000000e+00 0.0000000e+00 
0.0000000e+00 0.0000000e+00 0.0000000e+00 
0.0000000e+00 0.0000000e+00 0.0000000e+00 
0.0000000e+00 0.0000000e+00 0.0000000e+00 
0.0000000e+00 0.0000000e+00 0.0000000e+00 
0.0000000e+00 0.0000000e+00 0.0000000e+00 
0.0000000e+00 0.0000000e+00 0.0000000e+00 
0.0000000e+00 0.0000000e+00 0.0000000e+00 
0.0000000e+00 0.0000000e+00 0.0000000e+00 
0.0000000e+00 0.0000000e+00 0.0000000e+00 
0.0000000e+00 0.0000000e+00 0.0000000e+00 
0.0000000e+00 0.0000000e+00 0.0000000e+00 
0.0000000e+00 0.0000000e+00 0.0000000e+00 
0.0000000e+00 0.0000000e+00 0.0000000e+00 
0.0000000e+00 0.0000000e+00 0.0000000e+00 
0.0000000e+00 0.0000000e+00 0.0000000e+00 
0.0000000e+00 0.0000000e+00 0.0000000e+00 
0.0000000e+00 0.0000000e+00 0.0000000e+00 
0.0000000e+00 0.0000000e+00 0.0000000e+00 
0.0000000e+00 0.0000000e+00 0.0000000e+00 
0.0000000e+00 0.0000000e+00 0.0000000e+00 
0.0000000e+00 0.0000000e+00 0.0000000e+00 
0.0000000e+00 0.0000000e+00 0.0000000e+00 
0.0000000e+00 0.0000000e+00 0.0000000e+00 
0.0000000e+00 0.0000000e+00 0.0000000e+00 
0.0000000e+00 0.0000000e+00 0.0000000e+00 
0.0000000e+00 0.0000000e+00 0.0000000e+00 
0.0000000e+00 0.0000000e+00 0.0000000e+00 
0.0000000e+00 0.0000000e+00 0.0000000e+00 
0.0000000e+00 0.0000000e+00 0.0000000e+00 
0.0000000e+00 0.0000000e+00 0.0000000e+00 
0.0000000e+00 0.0000000e+00 0.0000000e+00 
0.0000000e+00 0.0000000e+00 0.0000000e+00 
0.0000000e+00 0.0000000e+00 0.0000000e+00 
0.0000000e+00 0.0000000e+00 0.0000000e+00 
0.0000000e+00 0.0000000e+00 0.0000000e+00 
0.0000000e+00 0.0000000e+00 0.0000000e+00 
0.0000000e+00 0.0000000e+00 0.0000000e+00 
0.0000000e+00 0.0000000e+00 0.0000000e+00 
0.0000000e+00 0.0000000e+00 0.0000000e+00 
0.0000000e+00 0.0000000e+00 0.0000000e+00 
0.0000000e+00 0.0000000e+00 0.0000000e+00 
0.0000000e+00 0.0000000e+00 0.0000000e+00 
0.0000000e+00 0.0000000e+00 0.0000000e+00 
0.0000000e+00 0.0000000e+00 0.0000000e+00 
0.0000000e+00 0.0000000e+00 0.0000000e+00 
0.0000000e+00 0.0000000e+00 0.0000000e+00 
0.0000000e+00 0.0000000e+00 0.0000000e+00 
0.0000000e+00 0.0000000e+00 0.0000000e+00 
0.0000000e+00 0.0000000e+00 0.0000000e+00 
0.0000000e+00 0.0000000e+00 0.0000000e+00 
0.0000000e+00 0.0000000e+00 0.0000000e+00 
0.0000000e+00 0.0000000e+00 0.0000000e+00 
0.0000000e+00 0.0000000e+00 0.0000000e+00 
0.0000000e+00 0.0000000e+00 0.0000000e+00 
0.0000000e+00 0.0000000e+00 0.0000000e+00 
0.0000000e+00 0.0000000e+00 0.0000000e+00 
0.0000000e+00 0.0000000e+00 0.0000000e+00 
0.0000000e+00 0.0000000e+00 0.0000000e+00 
0.0000000e+00 0.0000000e+00 0.0000000e+00 
0.0000000e+00 0.0000000e+00 0.0000000e+00 
0.0000000e+00 0.0000000e+00 0.0000000e+00 
0.0000000e+00 0.0000000e+00 0.0000000e+00 
0.0000000e+00 0.0000000e+00 0.0000000e+00 
0.0000000e+00 0.0000000e+00 0.0000000e+00 
0.0000000e+00 0.0000000e+00 0.0000000e+00 
-2.6945290e-06 9.8265673e-07 2.5445261e-06 
-2.9866801e-06 -2.4579651e-06 1.8614340e-06 
-4.3238460e-06 -5.1104303e-06 1.8410869e-06 
-6.2285794e-06 -5.1718835e-06 1.3232203e-06 
-6.5221757e-06 -3.3723886e-06 1.9104463e-07 
-6.1987453e-06 -2.2112283e-06 -8.6940304e-07 
-5.7849261e-06 -3.4872924e-06 -1.5747989e-06 
-5.0777703e-06 -4.3425862e-06 -4.0724667e-06 
-3.3266165e-06 -3.2354774e-06 -9.0924841e-06 
1.4654637e-06 -6.2028671e-06 -1.3935077e-05 
8.1967291e-06 -8.7275812e-06 -1.8858547e-05 
1.6418173e-05 -1.0541790e-05 -1.9679601e-05 
2.9591001e-05 -1.0767818e-05 -2.1188216e-05 
4.0212683e-05 -1.0409097e-05 -1.7304928e-05 
4.6819063e-05 -1.1514091e-05 -9.8087521e-06 
4.8759721e-05 -1.0223547e-05 7.1133519e-07 
3.7573041e-05 -7.7118430e-06 1.2370361e-05 
2.4404255e-05 -5.1226198e-06 1.9051615e-05 
1.7318080e-05 -4.3255327e-06 1.9212594e-05 
8.2287615e-06 -4.0644882e-06 1.9421346e-05 
2.2484510e-06 -4.4917547e-06 1.6054519e-05 
-1.0516221e-06 -2.3450289e-06 1.2274753e-05 
-2.1004937e-06 -3.4214906e-06 7.8379244e-06 
-4.0212240e-06 -4.3119699e-06 5.1368265e-06 
-6.3722377e-06 -4.3235823e-06 3.6205677e-06 
-8.0770960e-06 -4.3145496e-06 1.1921684e-06 
-6.4036826e-06 -3.9334836e-06 -1.2116236e-06 
-4.4820258e-06 -4.6605442e-06 -3.5448436e-06 
-2.9726516e-06 -4.8557040e-06 -6.9283437e-06 
-8.1908432e-08 -5.5925302e-06 -1.2564002e-05 
8.2026008e-06 -6.3947286e-06 -1.7746215e-05 
2.0189338e-05 -1.0406930e-05 -2.1229718e-05 
3.0954157e-05 -1.1494502e-05 -2.2133385e-05 
4.2991582e-05 -1.1107781e-05 -1.8921854e-05 
4.8997728e-05 -1.2851435e-05 -1.2744264e-05 
4.6191133e-05 -1.1744702e-05 -2.4535600e-06 
3.7427741e-05 -1.0122405e-05 5.6842555e-06 
2.5188150e-05 -8.1175895e-06 1.2699682e-05 
1.5711632e-05 -5.7818875e-06 1.4017059e-05 
9.4410225e-06 -3.5162896e-06 1.3567986e-05 
4.7019562e-06 -2.1967151e-06 1.1811480e-05 
3.3460683e-06 -1.8271483e-06 8.4915782e-06 
2.8002523e-06 -9.4162732e-07 5.3176200e-06 
8.5030621e-07 6.3603956e-08 2.6221012e-06 
-8.3152435e-07 -3.6527447e-07 1.1902880e-06 
-9.2337137e-07 -3.4342034e-07 1.0364913e-07 
-4.9049754e-07 1.6079467e-07 -4.1016796e-07 
-9.1345580e-09 -2.0971694e-08 -4.2246592e-07 
1.8947746e-07 -4.4905121e-07 1.7939582e-08 
0.0000000e+00 -1.0021332e-05 0.0000000e+00 
0.0000000e+00 -1.2223721e-06 0.0000000e+00 
0.0000000e+00 1.0012688e-05 0.0000000e+00 
0.0000000e+00 1.7946342e-05 0.0000000e+00 
0.0000000e+00 2.5930871e-05 0.0000000e+00 
0.0000000e+00 2.9152485e-05 0.0000000e+00 
0.0000000e+00 2.9059647e-05 0.0000000e+00 
0.0000000e+00 2.4853747e-05 0.0000000e+00 
0.0000000e+00 1.7893288e-05 0.0000000e+00 
0.0000000e+00 9.7229804e-06 0.0000000e+00 
0.0000000e+00 -1.0622359e-05 0.0000000e+00 
0.0000000e+00 -8.8992652e-05 0.0000000e+00 
0.0000000e+00 -2.2545412e-04 0.0000000e+00 
0.0000000e+00 -4.0368995e-04 0.0000000e+00 
0.0000000e+00 -5.1410269e-04 0.0000000e+00 
0.0000000e+00 -5.4275006e-04 0.0000000e+00 
0.0000000e+00 -4.7448082e-04 0.0000000e+00 
0.0000000e+00 -3.1296190e-04 0.0000000e+00 
0.0000000e+00 -1.5784566e-04 0.0000000e+00 
0.0000000e+00 -2.2654684e-05 0.0000000e+00 
0.0000000e+00 6.1334117e-06 0.0000000e+00 
0.0000000e+00 1.3967860e-05 0.0000000e+00 
0.0000000e+00 1.7650784e-05 0.0000000e+00 
0.0000000e+00 3.0949432e-05 0.0000000e+00 
0.0000000e+00 4.4775257e-05 0.0000000e+00 
0.0000000e+00 5.1571591e-05 0.0000000e+00 
0.0000000e+00 4.3738622e-05 0.0000000e+00 
0.0000000e+00 3.9306680e-05 0.0000000e+00 
0.0000000e+00 4.0135517e-05 0.0000000e+00 
0.0000000e+00 2.0472007e-05 0.0000000e+00 
0.0000000e+00 -1.9101260e-05 0.0000000e+00 
0.0000000e+00 -8.8357025e-05 0.0000000e+00 
0.0000000e+00 -2.3087661e-04 0.0000000e+00 
0.0000000e+00 -4.3891370e-04 0.0000000e+00 
0.0000000e+00 -5.3931109e-04 0.0000000e+00 
0.0000000e+00 -5.2226952e-04 0.0000000e+00 
0.0000000e+00 -4.5645217e-04 0.0000000e+00 
0.0000000e+00 -3.3760100e-04 0.0000000e+00 
0.0000000e+00 -9.9850127e-05 0.0000000e+00 
0.0000000e+00 -2.7092035e-05 0.0000000e+00 
0.0000000e+00 1.2399106e-06 0.0000000e+00 
0.0000000e+00 8.9672784e-07 0.0000000e+00 
0.0000000e+00 4.8575333e-07 0.0000000e+00 
0.0000000e+00 2.5166953e-06 0.0000000e+00 
0.0000000e+00 3.5667563e-06 0.0000000e+00 
0.0000000e+00 1.6683100e-06 0.0000000e+00 
0.0000000e+00 2.3262102e-07 0.0000000e+00 
0.0000000e+00 -1.9740307e-06 0.0000000e+00 
0.0000000e+00 5.5445764e-08 0.0000000e+00 
-1.9977115e-06 -4.0960720e-07 1.3256364e-06 
-1.0323987e-06 -1.8610313e-06 -1.0442675e-06 
5.7403565e-07 -2.8473819e-06 -2.1182464e-06 
9.1351382e-07 -7.0672399e-06 -1.6853924e-06 
2.0439821e-07 6.7803136e-08 1.2157254e-07 
-1.3010356e-07 5.0482889e-08 2.0510431e-07 
-5.3178553e-07 1.0458035e-06 -5.6717181e-07 
-2.9968380e-08 1.7679113e-06 -7.5711773e-07 
-4.8814127e-06 5.9647806e-07 4.3593941e-06 
2.1283495e-07 3.8108649e-07 -8.6537608e-07 
-2.1743695e-06 -1.2142601e-06 7.6255088e-07 
-3.5026210e-06 -9.2192624e-07 1.2310798e-06 
0.0000000e+00 -1.3611704e-05 0.0000000e+00 
0.0000000e+00 -6.9630852e-07 0.0000000e+00 
0.0000000e+00 1.4839989e-05 0.0000000e+00 
0.0000000e+00 2.6698899e-05 0.0000000e+00 
0.0000000e+00 3.8603692e-05 0.0000000e+00 
0.0000000e+00 4.4614546e-05 0.0000000e+00 
0.0000000e+00 4.5518398e-05 0.0000000e+00 
0.0000000e+00 4.1286585e-05 0.0000000e+00 
0.0000000e+00 3.4018598e-05 0.0000000e+00 
0.0000000e+00 2.4661960e-05 0.0000000e+00 
0.0000000e+00 -1.5284197e-05 0.0000000e+00 
0.0000000e+00 -1.6360429e-04 0.0000000e+00 
0.0000000e+00 -4.3180535e-04 0.0000000e+00 
0.0000000e+00 -8.2812662e-04 0.0000000e+00 