# vtk DataFile Version 4.0
vtk output
ASCII
DATASET UNSTRUCTURED_GRID
POINTS 1920 float
0.0000000e+00 0.0000000e+00 0.0000000e+00 
0.0000000e+00 0.0000000e+00 5.0000000e+01 
5.0000000e+00 0.0000000e+00 0.0000000e+00 
5.0000000e+00 0.0000000e+00 5.0000000e+01 
5.0000000e+00 1.0000000e+00 0.0000000e+00 
5.0000000e+00 1.0000000e+00 5.0000000e+01 
0.0000000e+00 1.0000000e+00 0.0000000e+00 
0.0000000e+00 1.0000000e+00 5.0000000e+01 
5.0000000e+00 2.0000000e+00 0.0000000e+00 
5.0000000e+00 2.0000000e+00 5.0000000e+01 
3.0000000e+00 2.0000000e+00 0.0000000e+00 
3.0000000e+00 2.0000000e+00 5.0000000e+01 
0.0000000e+00 2.0000000e+00 0.0000000e+00 
0.0000000e+00 2.0000000e+00 5.0000000e+01 
1.5000000e+00 3.0000000e+00 0.0000000e+00 
1.5000000e+00 3.0000000e+00 5.0000000e+01 
7.5000000e-01 3.0000000e+00 0.0000000e+00 
7.5000000e-01 3.0000000e+00 5.0000000e+01 
0.0000000e+00 3.0000000e+00 0.0000000e+00 
0.0000000e+00 3.0000000e+00 5.0000000e+01 
7.5000000e-01 3.0000000e+00 5.0000000e-01 
7.5000000e-01 3.0000000e+00 1.0000000e+00 
7.5000000e-01 3.0000000e+00 1.5000000e+00 
7.5000000e-01 3.0000000e+00 2.0000000e+00 
7.5000000e-01 3.0000000e+00 2.5000000e+00 
7.5000000e-01 3.0000000e+00 3.0000000e+00 
7.5000000e-01 3.0000000e+00 3.5000000e+00 
7.5000000e-01 3.0000000e+00 4.0000000e+00 
7.5000000e-01 3.0000000e+00 4.5000000e+00 
7.5000000e-01 3.0000000e+00 5.0000000e+00 
7.5000000e-01 3.0000000e+00 5.5000000e+00 
7.5000000e-01 3.0000000e+00 6.0000000e+00 
7.5000000e-01 3.0000000e+00 6.5000000e+00 
7.5000000e-01 3.0000000e+00 7.0000000e+00 
7.5000000e-01 3.0000000e+00 7.5000000e+00 
7.5000000e-01 3.0000000e+00 8.0000000e+00 
7.5000000e-01 3.0000000e+00 8.5000000e+00 
7.5000000e-01 3.0000000e+00 9.0000000e+00 
7.5000000e-01 3.0000000e+00 9.5000000e+00 
7.5000000e-01 3.0000000e+00 1.0000000e+01 
7.5000000e-01 3.0000000e+00 1.0500000e+01 
7.5000000e-01 3.0000000e+00 1.1000000e+01 
7.5000000e-01 3.0000000e+00 1.1500000e+01 
7.5000000e-01 3.0000000e+00 1.2000000e+01 
7.5000000e-01 3.0000000e+00 1.2500000e+01 
7.5000000e-01 3.0000000e+00 1.3000000e+01 
7.5000000e-01 3.0000000e+00 1.3500000e+01 
7.5000000e-01 3.0000000e+00 1.4000000e+01 
7.5000000e-01 3.0000000e+00 1.4500000e+01 
7.5000000e-01 3.0000000e+00 1.5000000e+01 
7.5000000e-01 3.0000000e+00 1.5500000e+01 
7.5000000e-01 3.0000000e+00 1.6000000e+01 
7.5000000e-01 3.0000000e+00 1.6500000e+01 
7.5000000e-01 3.0000000e+00 1.7000000e+01 
7.5000000e-01 3.0000000e+00 1.7500000e+01 
7.5000000e-01 3.0000000e+00 1.8000000e+01 
7.5000000e-01 3.0000000e+00 1.8500000e+01 
7.5000000e-01 3.0000000e+00 1.9000000e+01 
7.5000000e-01 3.0000000e+00 1.9500000e+01 
7.5000000e-01 3.0000000e+00 2.0000000e+01 
7.5000000e-01 3.0000000e+00 2.0500000e+01 
7.5000000e-01 3.0000000e+00 2.1000000e+01 
7.5000000e-01 3.0000000e+00 2.1500000e+01 
7.5000000e-01 3.0000000e+00 2.2000000e+01 
7.5000000e-01 3.0000000e+00 2.2500000e+01 
7.5000000e-01 3.0000000e+00 2.3000000e+01 
7.5000000e-01 3.0000000e+00 2.3500000e+01 
7.5000000e-01 3.0000000e+00 2.4000000e+01 
7.5000000e-01 3.0000000e+00 2.4500000e+01 
7.5000000e-01 3.0000000e+00 2.5000000e+01 
7.5000000e-01 3.0000000e+00 2.5500000e+01 
7.5000000e-01 3.0000000e+00 2.6000000e+01 
7.5000000e-01 3.0000000e+00 2.6500000e+01 
7.5000000e-01 3.0000000e+00 2.7000000e+01 
7.5000000e-01 3.0000000e+00 2.7500000e+01 
7.5000000e-01 3.0000000e+00 2.8000000e+01 
7.5000000e-01 3.0000000e+00 2.8500000e+01 
7.5000000e-01 3.0000000e+00 2.9000000e+01 
7.5000000e-01 3.0000000e+00 2.9500000e+01 
7.5000000e-01 3.0000000e+00 3.0000000e+01 
7.5000000e-01 3.0000000e+00 3.0500000e+01 
7.5000000e-01 3.0000000e+00 3.1000000e+01 
7.5000000e-01 3.0000000e+00 3.1500000e+01 
7.5000000e-01 3.0000000e+00 3.2000000e+01 
7.5000000e-01 3.0000000e+00 3.2500000e+01 
7.5000000e-01 3.0000000e+00 3.3000000e+01 
7.5000000e-01 3.0000000e+00 3.3500000e+01 
7.5000000e-01 3.0000000e+00 3.4000000e+01 
7.5000000e-01 3.0000000e+00 3.4500000e+01 
7.5000000e-01 3.0000000e+00 3.5000000e+01 
7.5000000e-01 3.0000000e+00 3.5500000e+01 
7.5000000e-01 3.0000000e+00 3.6000000e+01 
7.5000000e-01 3.0000000e+00 3.6500000e+01 
7.5000000e-01 3.0000000e+00 3.7000000e+01 
7.5000000e-01 3.0000000e+00 3.7500000e+01 
7.5000000e-01 3.0000000e+00 3.8000000e+01 
7.5000000e-01 3.0000000e+00 3.8500000e+01 
7.5000000e-01 3.0000000e+00 3.9000000e+01 
7.5000000e-01 3.0000000e+00 3.9500000e+01 
7.5000000e-01 3.0000000e+00 4.0000000e+01 
7.5000000e-01 3.0000000e+00 4.0500000e+01 
7.5000000e-01 3.0000000e+00 4.1000000e+01 
7.5000000e-01 3.0000000e+00 4.1500000e+01 
7.5000000e-01 3.0000000e+00 4.2000000e+01 
7.5000000e-01 3.0000000e+00 4.2500000e+01 
7.5000000e-01 3.0000000e+00 4.3000000e+01 
7.5000000e-01 3.0000000e+00 4.3500000e+01 
7.5000000e-01 3.0000000e+00 4.4000000e+01 
7.5000000e-01 3.0000000e+00 4.4500000e+01 
7.5000000e-01 3.0000000e+00 4.5000000e+01 
7.5000000e-01 3.0000000e+00 4.5500000e+01 
7.5000000e-01 3.0000000e+00 4.6000000e+01 
7.5000000e-01 3.0000000e+00 4.6500000e+01 
7.5000000e-01 3.0000000e+00 4.7000000e+01 
7.5000000e-01 3.0000000e+00 4.7500000e+01 
7.5000000e-01 3.0000000e+00 4.8000000e+01 
7.5000000e-01 3.0000000e+00 4.8500000e+01 
7.5000000e-01 3.0000000e+00 4.9000000e+01 
7.5000000e-01 3.0000000e+00 4.9500000e+01 
7.5000000e-01 3.0250001e+00 0.0000000e+00 
7.5000000e-01 3.0250001e+00 5.0000000e-01 
7.5000000e-01 3.0250001e+00 1.0000000e+00 
7.5000000e-01 3.0250001e+00 1.5000000e+00 
7.5000000e-01 3.0250001e+00 2.0000000e+00 
7.5000000e-01 3.0250001e+00 2.5000000e+00 
7.5000000e-01 3.0250001e+00 3.0000000e+00 
7.5000000e-01 3.0250001e+00 3.5000000e+00 
7.5000000e-01 3.0250001e+00 4.0000000e+00 
7.5000000e-01 3.0250001e+00 4.5000000e+00 
7.5000000e-01 3.0250001e+00 5.0000000e+00 
7.5000000e-01 3.0250001e+00 5.5000000e+00 
7.5000000e-01 3.0250001e+00 6.0000000e+00 
7.5000000e-01 3.0250001e+00 6.5000000e+00 
7.5000000e-01 3.0250001e+00 7.0000000e+00 
7.5000000e-01 3.0250001e+00 7.5000000e+00 
7.5000000e-01 3.0250001e+00 8.0000000e+00 
7.5000000e-01 3.0250001e+00 8.5000000e+00 
7.5000000e-01 3.0250001e+00 9.0000000e+00 
7.5000000e-01 3.0250001e+00 9.5000000e+00 
7.5000000e-01 3.0250001e+00 1.0000000e+01 
7.5000000e-01 3.0250001e+00 1.0500000e+01 
7.5000000e-01 3.0250001e+00 1.1000000e+01 
7.5000000e-01 3.0250001e+00 1.1500000e+01 
7.5000000e-01 3.0250001e+00 1.2000000e+01 
7.5000000e-01 3.0250001e+00 1.2500000e+01 
7.5000000e-01 3.0250001e+00 1.3000000e+01 
7.5000000e-01 3.0250001e+00 1.3500000e+01 
7.5000000e-01 3.0250001e+00 1.4000000e+01 
7.5000000e-01 3.0250001e+00 1.4500000e+01 
7.5000000e-01 3.0250001e+00 1.5000000e+01 
7.5000000e-01 3.0250001e+00 1.5500000e+01 
7.5000000e-01 3.0250001e+00 1.6000000e+01 
7.5000000e-01 3.0250001e+00 1.6500000e+01 
7.5000000e-01 3.0250001e+00 1.7000000e+01 
7.5000000e-01 3.0250001e+00 1.7500000e+01 
7.5000000e-01 3.0250001e+00 1.8000000e+01 
7.5000000e-01 3.0250001e+00 1.8500000e+01 
7.5000000e-01 3.0250001e+00 1.9000000e+01 
7.5000000e-01 3.0250001e+00 1.9500000e+01 
7.5000000e-01 3.0250001e+00 2.0000000e+01 
7.5000000e-01 3.0250001e+00 2.0500000e+01 
7.5000000e-01 3.0250001e+00 2.1000000e+01 
7.5000000e-01 3.0250001e+00 2.1500000e+01 
7.5000000e-01 3.0250001e+00 2.2000000e+01 
7.5000000e-01 3.0250001e+00 2.2500000e+01 
7.5000000e-01 3.0250001e+00 2.3000000e+01 
7.5000000e-01 3.0250001e+00 2.3500000e+01 
7.5000000e-01 3.0250001e+00 2.4000000e+01 
7.5000000e-01 3.0250001e+00 2.4500000e+01 
7.5000000e-01 3.0250001e+00 2.5000000e+01 
7.5000000e-01 3.0250001e+00 2.5500000e+01 
7.5000000e-01 3.0250001e+00 2.6000000e+01 
7.5000000e-01 3.0250001e+00 2.6500000e+01 
7.5000000e-01 3.0250001e+00 2.7000000e+01 
7.5000000e-01 3.0250001e+00 2.7500000e+01 
7.5000000e-01 3.0250001e+00 2.8000000e+01 
7.5000000e-01 3.0250001e+00 2.8500000e+01 
7.5000000e-01 3.0250001e+00 2.9000000e+01 
7.5000000e-01 3.0250001e+00 2.9500000e+01 
7.5000000e-01 3.0250001e+00 3.0000000e+01 
7.5000000e-01 3.0250001e+00 3.0500000e+01 
7.5000000e-01 3.0250001e+00 3.1000000e+01 
7.5000000e-01 3.0250001e+00 3.1500000e+01 
7.5000000e-01 3.0250001e+00 3.2000000e+01 
7.5000000e-01 3.0250001e+00 3.2500000e+01 
7.5000000e-01 3.0250001e+00 3.3000000e+01 
7.5000000e-01 3.0250001e+00 3.3500000e+01 
7.5000000e-01 3.0250001e+00 3.4000000e+01 
7.5000000e-01 3.0250001e+00 3.4500000e+01 
7.5000000e-01 3.0250001e+00 3.5000000e+01 
7.5000000e-01 3.0250001e+00 3.5500000e+01 
7.5000000e-01 3.0250001e+00 3.6000000e+01 
7.5000000e-01 3.0250001e+00 3.6500000e+01 
7.5000000e-01 3.0250001e+00 3.7000000e+01 
7.5000000e-01 3.0250001e+00 3.7500000e+01 
7.5000000e-01 3.0250001e+00 3.8000000e+01 
7.5000000e-01 3.0250001e+00 3.8500000e+01 
7.5000000e-01 3.0250001e+00 3.9000000e+01 
7.5000000e-01 3.0250001e+00 3.9500000e+01 
7.5000000e-01 3.0250001e+00 4.0000000e+01 
7.5000000e-01 3.0250001e+00 4.0500000e+01 
7.5000000e-01 3.0250001e+00 4.1000000e+01 
7.5000000e-01 3.0250001e+00 4.1500000e+01 
7.5000000e-01 3.0250001e+00 4.2000000e+01 
7.5000000e-01 3.0250001e+00 4.2500000e+01 
7.5000000e-01 3.0250001e+00 4.3000000e+01 
7.5000000e-01 3.0250001e+00 4.3500000e+01 
7.5000000e-01 3.0250001e+00 4.4000000e+01 
7.5000000e-01 3.0250001e+00 4.4500000e+01 
7.5000000e-01 3.0250001e+00 4.5000000e+01 
7.5000000e-01 3.0250001e+00 4.5500000e+01 
7.5000000e-01 3.0250001e+00 4.6000000e+01 
7.5000000e-01 3.0250001e+00 4.6500000e+01 
7.5000000e-01 3.0250001e+00 4.7000000e+01 
7.5000000e-01 3.0250001e+00 4.7500000e+01 
7.5000000e-01 3.0250001e+00 4.8000000e+01 
7.5000000e-01 3.0250001e+00 4.8500000e+01 
7.5000000e-01 3.0250001e+00 4.9000000e+01 
7.5000000e-01 3.0250001e+00 4.9500000e+01 
7.5000000e-01 3.0250001e+00 5.0000000e+01 
1.5000000e+00 3.0000000e+00 2.5000000e+01 
3.0000000e+00 2.0000000e+00 2.5000000e+01 
4.0000000e+00 2.0000000e+00 2.5000000e+01 
5.0000000e+00 2.0000000e+00 2.5000000e+01 
0.0000000e+00 3.0000000e+00 2.5000000e+01 
0.0000000e+00 0.0000000e+00 1.0000000e+00 
0.0000000e+00 0.0000000e+00 2.0000000e+00 
0.0000000e+00 0.0000000e+00 3.0000000e+00 
0.0000000e+00 0.0000000e+00 4.0000000e+00 
0.0000000e+00 0.0000000e+00 5.0000000e+00 
[...]
POINT_DATA 1920
FIELD FieldData 3
DISPLACEMENT 3 1920  float
0.0000000e+00 0.0000000e+00 0.0000000e+00 
0.0000000e+00 0.0000000e+00 0.0000000e+00 
0.0000000e+00 0.0000000e+00 0.0000000e+00 
0.0000000e+00 0.0000000e+00 0.0000000e+00 
-1.5077758e-06 -7.3597204e-07 5.4297567e-07 
1.3256630e-06 -4.3924459e-07 2.0771192e-06 
0.0000000e+00 5.7413905e-07 0.0000000e+00 
0.0000000e+00 -1.4054708e-06 0.0000000e+00 
-7.3941737e-07 -2.3465018e-06 7.7680625e-07 
1.3312638e-06 2.5353867e-07 1.7567103e-06 
-4.4707576e-06 2.3714335e-06 5.4634761e-06 
7.6707005e-07 -2.7161450e-06 4.2543811e-06 
0.0000000e+00 4.8831419e-07 0.0000000e+00 
0.0000000e+00 -5.9846997e-07 0.0000000e+00 
-1.0444282e-05 6.2280424e-06 1.6767881e-05 
-1.9690776e-06 -1.1058847e-06 4.5138336e-06 
-1.1483991e-05 -1.0912428e-05 4.3755895e-06 
9.6707583e-07 7.7710547e-06 -2.6478567e-06 
0.0000000e+00 -4.2830929e-06 0.0000000e+00 
0.0000000e+00 4.1894882e-06 0.0000000e+00 
-1.1641210e-05 -1.1579190e-05 4.8964671e-06 
-1.3013373e-05 -1.3773977e-05 3.3699416e-06 
-1.3419694e-05 -1.7408340e-05 2.3880423e-06 
-1.6652890e-05 -2.2154989e-05 -2.9566751e-08 
-1.4810825e-05 -2.7128423e-05 -2.1379493e-07 
-1.3691780e-05 -3.1418953e-05 -1.3621221e-06 
-1.1535091e-05 -3.4927816e-05 -1.1973343e-06 
-1.0662437e-05 -3.7341310e-05 3.8796117e-07 
-7.9061228e-06 -3.8954673e-05 3.3407227e-06 
-1.0099275e-05 -3.9329025e-05 7.4383320e-06 
-4.3523669e-06 -3.8921498e-05 9.7242819e-06 
-8.7303624e-06 -3.7304952e-05 8.7318704e-06 
-7.0026344e-06 -3.4854660e-05 7.4765089e-06 
-9.1708562e-06 -3.1714462e-05 9.7925595e-06 
-9.3802710e-06 -2.8250666e-05 1.3270042e-05 
-1.5960988e-05 -2.4082263e-05 1.7949373e-05 
-2.3201612e-05 -1.9579746e-05 1.6789203e-05 
-2.8605285e-05 -1.4213547e-05 1.1384634e-05 
-2.5868399e-05 -7.9053743e-06 3.7277234e-06 
-2.5034795e-05 1.1166524e-07 -3.3581896e-06 
-2.0565203e-05 1.1037686e-05 -3.3430874e-06 
-2.7297854e-05 2.5993462e-05 -4.3269238e-06 
-2.9215360e-05 4.5311317e-05 -6.6387611e-06 
-2.6047415e-05 6.4933927e-05 -5.6175331e-06 
-2.4755818e-05 7.4509895e-05 -6.0221112e-07 
-1.7555902e-05 5.1962907e-05 1.4337841e-05 
-1.6153608e-05 -3.6619273e-05 6.4094667e-05 
-2.3291299e-05 -2.4127804e-04 8.3926316e-05 
-4.3922126e-05 -6.2485033e-04 1.7257777e-04 
-6.1998602e-05 -1.2476097e-03 1.3724790e-04 
-1.1759855e-04 -2.1540604e-03 2.5200090e-04 
-1.5935773e-04 -3.2921087e-03 9.2299859e-05 
-2.8664782e-04 -4.4740303e-03 1.5120691e-04 
-6.5195403e-04 -5.1864279e-03 8.1095241e-05 
-2.8792422e-04 -4.9821078e-03 2.9112056e-05 
-2.1651512e-04 -4.5907376e-03 3.3798049e-05 
-2.0543521e-04 -4.4809603e-03 -2.5809053e-05 
-2.2090088e-04 -4.5765713e-03 -8.0554164e-05 
-2.2173376e-04 -4.3893429e-03 -1.5442651e-04 
-2.0086496e-04 -3.3841899e-03 -1.2303986e-04 
-1.2411042e-04 -2.1476739e-03 -2.3662034e-04 
-9.4148920e-05 -1.0912685e-03 -1.2262369e-04 
-4.4923894e-05 -3.7068562e-04 -1.4566486e-04 
-3.0984451e-05 3.4303077e-05 -8.8275097e-05 
-1.2831146e-05 2.0577868e-04 -6.1268795e-05 
-1.2819996e-05 2.3328212e-04 -5.1848681e-05 
-3.9395900e-06 1.9274752e-04 -3.6098361e-05 
-6.7396945e-07 1.2832196e-04 -2.6053376e-05 
4.3744894e-06 6.7781002e-05 -1.3334809e-05 
7.9909996e-06 2.1297992e-05 -1.2961881e-05 
2.2132972e-06 -9.7689990e-06 -4.7236831e-06 
1.7110909e-06 -2.7518427e-05 -6.8360368e-06 
4.3350110e-06 -3.5878398e-05 -1.7912247e-06 
3.0788353e-06 -3.7651305e-05 6.1600858e-08 
3.2406240e-07 -3.5770936e-05 4.2505985e-06 
-7.5315925e-06 -3.1455005e-05 6.9995663e-06 
-1.3489667e-05 -2.5908617e-05 5.5777086e-06 
-1.6001750e-05 -1.8757342e-05 -7.9106155e-07 
-1.4386518e-05 -9.6193226e-06 -9.2672599e-06 
-2.1148831e-05 2.3233392e-06 -9.9967165e-06 
-1.8220553e-05 1.7394344e-05 -5.4772709e-06 
-1.8884344e-05 3.5683999e-05 3.0280275e-06 
-1.8706887e-05 5.5770688e-05 7.4619202e-06 
-1.5513719e-05 7.2933573e-05 1.8979956e-05 
-1.8601701e-05 7.6321558e-05 3.2765260e-05 
-1.9145609e-05 4.3150929e-05 5.2963140e-05 
-3.2924159e-05 -6.2321385e-05 1.0314968e-04 
-4.1663847e-05 -2.9191488e-04 1.2553661e-04 
-7.6365679e-05 -7.0826238e-04 2.1583652e-04 
-8.9405657e-05 -1.3668108e-03 1.7252183e-04 
-1.4208718e-04 -2.3035496e-03 2.7900341e-04 
-1.7432726e-04 -3.4446630e-03 1.2324034e-04 
-2.5142630e-04 -4.5699137e-03 2.0578815e-04 
-3.3534062e-04 -5.1063728e-03 5.0525898e-05 
-3.5437627e-04 -4.9160137e-03 -1.4313779e-05 
-5.4946530e-04 -4.6421788e-03 -7.6005163e-06 
-2.2941909e-04 -4.5805825e-03 6.1143955e-06 
-1.9496144e-04 -4.6484810e-03 -7.1771879e-05 
-1.8901276e-04 -4.2768307e-03 -1.6753383e-04 
-1.6477201e-04 -3.1488289e-03 -1.1748629e-04 
-1.0276294e-04 -1.9108434e-03 -2.3169635e-04 
-7.5638229e-05 -9.0587739e-04 -1.2785672e-04 
-3.2668286e-05 -2.4550513e-04 -1.5785087e-04 
-1.8451583e-05 1.0926310e-04 -9.4278490e-05 
3.0516674e-07 2.4566759e-04 -8.0166181e-05 
4.4332619e-06 2.5213649e-04 -5.4212294e-05 
5.7869024e-06 1.9972427e-04 -2.9862895e-05 
8.9545556e-06 1.3122740e-04 -2.4387027e-05 
8.0970303e-06 6.9917027e-05 -1.3991377e-05 
7.2342013e-06 2.4297879e-05 -1.4902216e-05 
8.6429491e-06 -4.6612672e-06 -6.3792622e-06 
9.1824140e-06 -1.9703051e-05 -4.1924400e-06 
5.0808358e-06 -2.5052932e-05 2.5389513e-06 
3.4956101e-06 -2.4094046e-05 6.2147187e-06 
4.7178701e-06 -1.9475390e-05 1.2427622e-05 
2.6652756e-06 -1.2902526e-05 1.5451622e-05 
-1.4161628e-06 -5.5014948e-06 1.2433931e-05 
-2.2783197e-06 1.1788769e-06 7.7443519e-06 
-4.9301775e-06 5.9724130e-06 1.4215394e-06 
0.0000000e+00 -1.0911248e-05 0.0000000e+00 
0.0000000e+00 -1.1603404e-05 0.0000000e+00 
0.0000000e+00 -1.3800152e-05 0.0000000e+00 
0.0000000e+00 -1.7457452e-05 0.0000000e+00 
0.0000000e+00 -2.2176360e-05 0.0000000e+00 
0.0000000e+00 -2.7109943e-05 0.0000000e+00 
0.0000000e+00 -3.1450665e-05 0.0000000e+00 
0.0000000e+00 -3.4931847e-05 0.0000000e+00 
0.0000000e+00 -3.7407586e-05 0.0000000e+00 
0.0000000e+00 -3.8949311e-05 0.0000000e+00 
0.0000000e+00 -3.9406208e-05 0.0000000e+00 
0.0000000e+00 -3.8916471e-05 0.0000000e+00 
0.0000000e+00 -3.7341299e-05 0.0000000e+00 
0.0000000e+00 -3.4880228e-05 0.0000000e+00 
0.0000000e+00 -3.1779990e-05 0.0000000e+00 
0.0000000e+00 -2.8245935e-05 0.0000000e+00 
0.0000000e+00 -2.4150642e-05 0.0000000e+00 
0.0000000e+00 -1.9579256e-05 0.0000000e+00 
0.0000000e+00 -1.4263828e-05 0.0000000e+00 
0.0000000e+00 -7.9516249e-06 0.0000000e+00 
0.0000000e+00 8.5427445e-08 0.0000000e+00 
0.0000000e+00 1.1047931e-05 0.0000000e+00 
0.0000000e+00 2.6183343e-05 0.0000000e+00 
0.0000000e+00 4.5618348e-05 0.0000000e+00 
0.0000000e+00 6.5532957e-05 0.0000000e+00 
0.0000000e+00 7.5161697e-05 0.0000000e+00 
0.0000000e+00 5.2870080e-05 0.0000000e+00 
0.0000000e+00 -3.5889039e-05 0.0000000e+00 
0.0000000e+00 -2.4125342e-04 0.0000000e+00 
0.0000000e+00 -6.2563340e-04 0.0000000e+00 
0.0000000e+00 -1.2523438e-03 0.0000000e+00 
0.0000000e+00 -2.1612276e-03 0.0000000e+00 
0.0000000e+00 -3.3100117e-03 0.0000000e+00 
0.0000000e+00 -4.4984510e-03 0.0000000e+00 
0.0000000e+00 -5.2070180e-03 0.0000000e+00 
0.0000000e+00 -5.0112768e-03 0.0000000e+00 
0.0000000e+00 -4.6192165e-03 0.0000000e+00 
0.0000000e+00 -4.5026676e-03 0.0000000e+00 
0.0000000e+00 -4.6061962e-03 0.0000000e+00 
0.0000000e+00 -4.4134199e-03 0.0000000e+00 
0.0000000e+00 -3.4083913e-03 0.0000000e+00 
0.0000000e+00 -2.1608358e-03 0.0000000e+00 
0.0000000e+00 -1.0996202e-03 0.0000000e+00 
0.0000000e+00 -3.7341719e-04 0.0000000e+00 
0.0000000e+00 3.4331861e-05 0.0000000e+00 
0.0000000e+00 2.0675805e-04 0.0000000e+00 
0.0000000e+00 2.3503322e-04 0.0000000e+00 
0.0000000e+00 1.9364049e-04 0.0000000e+00 
0.0000000e+00 1.2917843e-04 0.0000000e+00 
0.0000000e+00 6.8209112e-05 0.0000000e+00 
0.0000000e+00 2.1441389e-05 0.0000000e+00 
0.0000000e+00 -9.7064058e-06 0.0000000e+00 
0.0000000e+00 -2.7597463e-05 0.0000000e+00 
0.0000000e+00 -3.5901721e-05 0.0000000e+00 
0.0000000e+00 -3.7758124e-05 0.0000000e+00 
0.0000000e+00 -3.5799931e-05 0.0000000e+00 
0.0000000e+00 -3.1557789e-05 0.0000000e+00 
0.0000000e+00 -2.5939005e-05 0.0000000e+00 
0.0000000e+00 -1.8799376e-05 0.0000000e+00 
0.0000000e+00 -9.6130461e-06 0.0000000e+00 
0.0000000e+00 2.3183225e-06 0.0000000e+00 
0.0000000e+00 1.7452441e-05 0.0000000e+00 
0.0000000e+00 3.5835274e-05 0.0000000e+00 
0.0000000e+00 5.6079818e-05 0.0000000e+00 
0.0000000e+00 7.3546376e-05 0.0000000e+00 
0.0000000e+00 7.7018209e-05 0.0000000e+00 
0.0000000e+00 4.4048327e-05 0.0000000e+00 
0.0000000e+00 -6.1692255e-05 0.0000000e+00 
0.0000000e+00 -2.9210895e-04 0.0000000e+00 
0.0000000e+00 -7.0925365e-04 0.0000000e+00 
0.0000000e+00 -1.3722553e-03 0.0000000e+00 
0.0000000e+00 -2.3115356e-03 0.0000000e+00 
0.0000000e+00 -3.4637190e-03 0.0000000e+00 
0.0000000e+00 -4.5914873e-03 0.0000000e+00 
0.0000000e+00 -5.1399572e-03 0.0000000e+00 
0.0000000e+00 -4.9415971e-03 0.0000000e+00 
0.0000000e+00 -4.6610935e-03 0.0000000e+00 
0.0000000e+00 -4.6066428e-03 0.0000000e+00 
0.0000000e+00 -4.6789753e-03 0.0000000e+00 
0.0000000e+00 -4.3007694e-03 0.0000000e+00 
0.0000000e+00 -3.1715455e-03 0.0000000e+00 
0.0000000e+00 -1.9226350e-03 0.0000000e+00 
0.0000000e+00 -9.1290375e-04 0.0000000e+00 
0.0000000e+00 -2.4752261e-04 0.0000000e+00 
0.0000000e+00 1.0963170e-04 0.0000000e+00 
0.0000000e+00 2.4681311e-04 0.0000000e+00 
0.0000000e+00 2.5368956e-04 0.0000000e+00 
0.0000000e+00 2.0077034e-04 0.0000000e+00 
0.0000000e+00 1.3197087e-04 0.0000000e+00 
0.0000000e+00 7.0294605e-05 0.0000000e+00 
0.0000000e+00 2.4473949e-05 0.0000000e+00 
0.0000000e+00 -4.6041109e-06 0.0000000e+00 
0.0000000e+00 -1.9768022e-05 0.0000000e+00 
0.0000000e+00 -2.5109728e-05 0.0000000e+00 
0.0000000e+00 -2.4149584e-05 0.0000000e+00 
0.0000000e+00 -1.9511295e-05 0.0000000e+00 
0.0000000e+00 -1.2890481e-05 0.0000000e+00 
0.0000000e+00 -5.5269929e-06 0.0000000e+00 
0.0000000e+00 1.1742534e-06 0.0000000e+00 
0.0000000e+00 5.9590889e-06 0.0000000e+00 
0.0000000e+00 7.7422619e-06 0.0000000e+00 
1.3412271e-06 1.2575236e-05 -1.7291688e-05 
-7.9497304e-06 9.2378224e-07 -8.9233135e-06 
-6.6619923e-06 6.8995473e-06 -4.2835300e-06 
-4.9924856e-06 3.4242437e-06 -2.4854421e-06 
0.0000000e+00 5.0918711e-06 0.0000000e+00 
0.0000000e+00 0.0000000e+00 0.0000000e+00 
0.0000000e+00 0.0000000e+00 0.0000000e+00 
0.0000000e+00 0.0000000e+00 0.0000000e+00 
0.0000000e+00 0.0000000e+00 0.0000000e+00 
0.0000000e+00 0.0000000e+00 0.0000000e+00 
0.0000000e+00 0.0000000e+00 0.0000000e+00 
0.0000000e+00 0.0000000e+00 0.0000000e+00 
0.0000000e+00 0.0000000e+00 0.0000000e+00 
0.0000000e+00 0.0000000e+00 0.0000000e+00 
0.0000000e+00 0.0000000e+00 0.0000000e+00 
0.0000000e+00 0.0000000e+00 0.0000000e+00 
0.0000000e+00 0.0000000e+00 0.0000000e+00 
0.0000000e+00 0.0000000e+00 0.0000000e+00 
0.0000000e+00 0.0000000e+00 0.0000000e+00 
0.0000000e+00 0.0000000e+00 0.0000000e+00 
0.0000000e+00 0.0000000e+00 0.0000000e+00 
0.0000000e+00 0.0000000e+00 0.0000000e+00 
0.0000000e+00 0.0000000e+00 0.0000000e+00 
0.0000000e+00 0.0000000e+00 0.0000000e+00 
0.0000000e+00 0.0000000e+00 0.0000000e+00 
0.0000000e+00 0.0000000e+00 0.0000000e+00 
0.0000000e+00 0.0000000e+00 0.0000000e+00 
0.0000000e+00 0.0000000e+00 0.0000000e+00 
0.0000000e+00 0.0000000e+00 0.0000000e+00 
0.0000000e+00 0.0000000e+00 0.0000000e+00 
0.0000000e+00 0.0000000e+00 0.0000000e+00 
0.0000000e+00 0.0000000e+00 0.0000000e+00 
0.0000000e+00 0.0000000e+00 0.0000000e+00 
0.0000000e+00 0.0000000e+00 0.0000000e+00 
0.0000000e+00 0.0000000e+00 0.0000000e+00 
0.0000000e+00 0.0000000e+00 0.0000000e+00 
0.0000000e+00 0.0000000e+00 0.0000000e+00 
0.0000000e+00 0.0000000e+00 0.0000000e+00 
0.0000000e+00 0.0000000e+00 0.0000000e+00 
0.0000000e+00 0.0000000e+00 0.0000000e+00 
0.0000000e+00 0.0000000e+00 0.0000000e+00 
0.0000000e+00 0.0000000e+00 0.0000000e+00 
0.0000000e+00 0.0000000e+00 0.0000000e+00 
0.0000000e+00 0.0000000e+00 0.0000000e+00 
0.0000000e+00 0.0000000e+00 0.0000000e+00 
0.0000000e+00 0.0000000e+00 0.0000000e+00 
0.0000000e+00 0.0000000e+00 0.0000000e+00 
0.0000000e+00 0.0000000e+00 0.0000000e+00 
0.0000000e+00 0.0000000e+00 0.0000000e+00 
0.0000000e+00 0.0000000e+00 0.0000000e+00 
0.0000000e+00 0.0000000e+00 0.0000000e+00 
0.0000000e+00 0.0000000e+00 0.0000000e+00 
0.0000000e+00 0.0000000e+00 0.0000000e+00 
0.0000000e+00 0.0000000e+00 0.0000000e+00 
0.0000000e+00 0.0000000e+00 0.0000000e+00 
0.0000000e+00 0.0000000e+00 0.0000000e+00 
0.0000000e+00 0.0000000e+00 0.0000000e+00 
0.0000000e+00 0.0000000e+00 0.0000000e+00 
0.0000000e+00 0.0000000e+00 0.0000000e+00 
0.0000000e+00 0.0000000e+00 0.0000000e+00 
0.0000000e+00 0.0000000e+00 0.0000000e+00 
0.0000000e+00 0.0000000e+00 0.0000000e+00 
0.0000000e+00 0.0000000e+00 0.0000000e+00 
0.0000000e+00 0.0000000e+00 0.0000000e+00 
0.0000000e+00 0.0000000e+00 0.0000000e+00 
0.0000000e+00 0.0000000e+00 0.0000000e+00 
0.0000000e+00 0.0000000e+00 0.0000000e+00 
0.0000000e+00 0.0000000e+00 0.0000000e+00 
0.0000000e+00 0.0000000e+00 0.0000000e+00 
0.0000000e+00 0.0000000e+00 0.0000000e+00 
0.0000000e+00 0.0000000e+00 0.0000000e+00 
0.0000000e+00 0.0000000e+00 0.0000000e+00 
0.0000000e+00 0.0000000e+00 0.0000000e+00 
0.0000000e+00 0.0000000e+00 0.0000000e+00 
0.0000000e+00 0.0000000e+00 0.0000000e+00 
0.0000000e+00 0.0000000e+00 0.0000000e+00 
0.0000000e+00 0.0000000e+00 0.0000000e+00 
0.0000000e+00 0.0000000e+00 0.0000000e+00 
0.0000000e+00 0.0000000e+00 0.0000000e+00 
0.0000000e+00 0.0000000e+00 0.0000000e+00 
0.0000000e+00 0.0000000e+00 0.0000000e+00 
0.0000000e+00 0.0000000e+00 0.0000000e+00 
0.0000000e+00 0.0000000e+00 0.0000000e+00 
0.0000000e+00 0.0000000e+00 0.0000000e+00 
0.0000000e+00 0.0000000e+00 0.0000000e+00 
0.0000000e+00 0.0000000e+00 0.0000000e+00 
0.0000000e+00 0.0000000e+00 0.0000000e+00 
0.0000000e+00 0.0000000e+00 0.0000000e+00 
0.0000000e+00 0.0000000e+00 0.0000000e+00 
0.0000000e+00 0.0000000e+00 0.0000000e+00 
0.0000000e+00 0.0000000e+00 0.0000000e+00 
0.0000000e+00 0.0000000e+00 0.0000000e+00 
0.0000000e+00 0.0000000e+00 0.0000000e+00 
0.0000000e+00 0.0000000e+00 0.0000000e+00 
0.0000000e+00 0.0000000e+00 0.0000000e+00 
0.0000000e+00 0.0000000e+00 0.0000000e+00 
0.0000000e+00 0.0000000e+00 0.0000000e+00 
0.0000000e+00 0.0000000e+00 0.0000000e+00 
0.0000000e+00 0.0000000e+00 0.0000000e+00 
0.0000000e+00 0.0000000e+00 0.0000000e+00 
0.0000000e+00 0.0000000e+00 0.0000000e+00 
0.0000000e+00 0.0000000e+00 0.0000000e+00 
0.0000000e+00 0.0000000e+00 0.0000000e+00 
0.0000000e+00 0.0000000e+00 0.0000000e+00 
0.0000000e+00 0.0000000e+00 0.0000000e+00 
0.0000000e+00 0.0000000e+00 0.0000000e+00 
0.0000000e+00 0.0000000e+00 0.0000000e+00 
0.0000000e+00 0.0000000e+00 0.0000000e+00 
0.0000000e+00 0.0000000e+00 0.0000000e+00 
0.0000000e+00 0.0000000e+00 0.0000000e+00 
0.0000000e+00 0.0000000e+00 0.0000000e+00 
-2.3232792e-06 -6.2381207e-07 1.6519448e-06 
-3.6938025e-06 -5.6090215e-08 2.4753861e-06 
-5.0787830e-06 9.1195790e-07 2.6891094e-06 
-6.4258566e-06 6.5016962e-07 2.3472135e-06 
-6.8689401e-06 -5.0694331e-07 2.1667067e-06 
-6.4553751e-06 -3.6738797e-07 2.4304752e-06 
-5.8853248e-06 4.6735306e-07 2.2694519e-06 
-5.0654835e-06 8.4291065e-07 1.5017829e-06 
-3.0816843e-06 -4.0678006e-07 -5.1923837e-07 
-1.9100205e-06 -1.5068292e-06 -4.7499584e-06 
1.4395872e-06 -3.4994175e-06 -8.9200585e-06 
4.3696141e-06 -3.8882295e-06 -1.3788125e-05 
1.2549498e-05 -5.8739874e-06 -1.7747332e-05 
2.1965347e-05 -8.2828501e-06 -1.9024761e-05 
3.2894339e-05 -1.0294770e-05 -1.7734779e-05 
4.4256965e-05 -1.2660593e-05 -1.0666477e-05 
4.8851907e-05 -1.4735147e-05 1.1843310e-06 
4.6615343e-05 -1.4790691e-05 1.1220943e-05 
4.3695673e-05 -1.7092301e-05 1.6755755e-05 
3.1392985e-05 -1.2272814e-05 2.0691636e-05 
2.0659832e-05 -8.1299313e-06 1.7293039e-05 
9.1476213e-06 -4.0599020e-06 1.0920204e-05 
1.8915897e-06 -6.7862453e-07 6.5802642e-06 
-3.0197023e-06 2.5549723e-06 1.5561641e-06 
-5.5014939e-06 3.4787802e-06 -2.1852836e-06 
-5.7259244e-06 2.6967664e-06 -3.2600738e-06 
-5.2136061e-06 1.3776616e-06 -2.9477842e-06 
-4.4991225e-06 8.9176547e-07 -2.4036472e-06 
-3.7602272e-06 5.3637187e-08 -2.6026962e-06 
-2.0706821e-06 -1.1479119e-06 -4.2431361e-06 
8.2084466e-07 -1.6148264e-06 -7.0617680e-06 
5.3193257e-06 -2.2986028e-06 -1.0616041e-05 
1.3076083e-05 -5.4502038e-06 -1.2427168e-05 
2.5030235e-05 -8.8375746e-06 -1.2147954e-05 
3.4055760e-05 -1.1790650e-05 -1.0189292e-05 
4.3174834e-05 -1.4449145e-05 -2.9204548e-06 
4.9775066e-05 -1.5388707e-05 5.7708380e-06 
4.6760262e-05 -1.5393713e-05 1.5217242e-05 
3.9336817e-05 -1.5381167e-05 1.8144307e-05 
2.9953248e-05 -1.2536977e-05 1.7727627e-05 
1.9681807e-05 -9.3495082e-06 1.4799336e-05 
1.1129900e-05 -4.4562744e-06 9.1284583e-06 
4.9243472e-06 -3.7421864e-07 3.4056018e-06 
7.4131134e-07 2.5509573e-06 -8.4637531e-07 
-1.2954804e-06 1.9259085e-06 -2.1379135e-06 
-1.7348958e-06 9.5214540e-07 -2.0576319e-06 
-1.4760703e-06 -2.0039602e-07 -1.0830768e-06 
-5.1112363e-07 -8.2376624e-07 5.5118471e-07 
5.9718650e-07 -8.7242870e-07 2.1563294e-06 
0.0000000e+00 1.1820312e-05 0.0000000e+00 
0.0000000e+00 1.8869179e-05 0.0000000e+00 
0.0000000e+00 2.2523236e-05 0.0000000e+00 
0.0000000e+00 2.5637775e-05 0.0000000e+00 
0.0000000e+00 2.5348694e-05 0.0000000e+00 
0.0000000e+00 2.4039606e-05 0.0000000e+00 
0.0000000e+00 2.3738246e-05 0.0000000e+00 
0.0000000e+00 2.3663319e-05 0.0000000e+00 
0.0000000e+00 2.4860092e-05 0.0000000e+00 
0.0000000e+00 2.7912243e-05 0.0000000e+00 
0.0000000e+00 3.0972064e-05 0.0000000e+00 
0.0000000e+00 2.5331989e-05 0.0000000e+00 
0.0000000e+00 -2.2698973e-06 0.0000000e+00 
0.0000000e+00 -8.1816550e-05 0.0000000e+00 
0.0000000e+00 -2.1291657e-04 0.0000000e+00 
0.0000000e+00 -4.1493983e-04 0.0000000e+00 
0.0000000e+00 -5.2786164e-04 0.0000000e+00 
0.0000000e+00 -5.2623701e-04 0.0000000e+00 
0.0000000e+00 -4.7232650e-04 0.0000000e+00 
0.0000000e+00 -3.0233056e-04 0.0000000e+00 
0.0000000e+00 -1.1518299e-04 0.0000000e+00 
0.0000000e+00 -2.9214234e-06 0.0000000e+00 
0.0000000e+00 3.2880947e-05 0.0000000e+00 
0.0000000e+00 3.1771000e-05 0.0000000e+00 
0.0000000e+00 1.7902676e-05 0.0000000e+00 
0.0000000e+00 9.9557019e-06 0.0000000e+00 
0.0000000e+00 7.8816711e-06 0.0000000e+00 
0.0000000e+00 1.0227302e-05 0.0000000e+00 
0.0000000e+00 1.7096378e-05 0.0000000e+00 
0.0000000e+00 2.1516111e-05 0.0000000e+00 
0.0000000e+00 2.7959190e-05 0.0000000e+00 
0.0000000e+00 2.6120468e-05 0.0000000e+00 
0.0000000e+00 6.0341046e-07 0.0000000e+00 
0.0000000e+00 -8.3959465e-05 0.0000000e+00 
0.0000000e+00 -2.5023770e-04 0.0000000e+00 
0.0000000e+00 -4.3893416e-04 0.0000000e+00 
0.0000000e+00 -5.4789474e-04 0.0000000e+00 
0.0000000e+00 -5.4879417e-04 0.0000000e+00 
0.0000000e+00 -4.4505854e-04 0.0000000e+00 
0.0000000e+00 -3.2766158e-04 0.0000000e+00 
0.0000000e+00 -1.2876742e-04 0.0000000e+00 
0.0000000e+00 -1.3332596e-05 0.0000000e+00 
0.0000000e+00 1.6752965e-05 0.0000000e+00 
0.0000000e+00 1.3695894e-05 0.0000000e+00 
0.0000000e+00 4.6484970e-06 0.0000000e+00 
0.0000000e+00 1.0037260e-06 0.0000000e+00 
0.0000000e+00 -2.1314449e-07 0.0000000e+00 
0.0000000e+00 -2.8929011e-07 0.0000000e+00 
0.0000000e+00 -1.0020071e-06 0.0000000e+00 
-2.6834341e-06 6.7291063e-07 1.9150998e-06 
-2.6800944e-06 1.3298579e-06 2.2591175e-06 
-2.5169188e-06 -2.4582712e-07 1.4474805e-06 
-2.2934860e-06 1.0099595e-06 -2.2660316e-08 
1.0838837e-06 -8.4506496e-07 2.6752853e-06 
1.1652419e-06 -1.9490910e-06 3.2438973e-06 
5.0164061e-07 -2.2177580e-06 3.8297153e-06 
-5.4663150e-07 -2.0910243e-06 3.1562549e-06 
-2.6551932e-06 9.5426095e-08 2.4989297e-06 
9.6939061e-07 -6.7046642e-07 2.5380316e-06 
-1.6275701e-06 2.1711180e-06 -2.4445653e-06 
-3.6857973e-06 8.9656584e-07 4.5447628e-06 
0.0000000e+00 1.9309098e-05 0.0000000e+00 
0.0000000e+00 2.7468368e-05 0.0000000e+00 
0.0000000e+00 3.4409950e-05 0.0000000e+00 
0.0000000e+00 3.9434624e-05 0.0000000e+00 
0.0000000e+00 3.9949427e-05 0.0000000e+00 
0.0000000e+00 3.7998754e-05 0.0000000e+00 
0.0000000e+00 3.8063052e-05 0.0000000e+00 
0.0000000e+00 3.9595056e-05 0.0000000e+00 
0.0000000e+00 4.1241703e-05 0.0000000e+00 
0.0000000e+00 4.7911337e-05 0.0000000e+00 
0.0000000e+00 4.9231468e-05 0.0000000e+00 
0.0000000e+00 4.6227542e-05 0.0000000e+00 
0.0000000e+00 -3.1162526e-06 0.0000000e+00 