# vtk DataFile Version 4.0
vtk output
ASCII
DATASET UNSTRUCTURED_GRID
POINTS 1920 float
0.0000000e+00 0.0000000e+00 0.0000000e+00 
0.0000000e+00 0.0000000e+00 5.0000000e+01 
5.0000000e+00 0.0000000e+00 0.0000000e+00 
5.0000000e+00 0.0000000e+00 5.0000000e+01 
5.0000000e+00 1.0000000e+00 0.0000000e+00 
5.0000000e+00 1.0000000e+00 5.0000000e+01 
0.0000000e+00 1.0000000e+00 0.0000000e+00 
0.0000000e+00 1.0000000e+00 5.0000000e+01 
5.0000000e+00 2.0000000e+00 0.0000000e+00 
5.0000000e+00 2.0000000e+00 5.0000000e+01 
3.0000000e+00 2.0000000e+00 0.0000000e+00 
3.0000000e+00 2.0000000e+00 5.0000000e+01 
0.0000000e+00 2.0000000e+00 0.0000000e+00 
0.0000000e+00 2.0000000e+00 5.0000000e+01 
1.5000000e+00 3.0000000e+00 0.0000000e+00 
1.5000000e+00 3.0000000e+00 5.0000000e+01 
7.5000000e-01 3.0000000e+00 0.0000000e+00 
7.5000000e-01 3.0000000e+00 5.0000000e+01 
0.0000000e+00 3.0000000e+00 0.0000000e+00 
0.0000000e+00 3.0000000e+00 5.0000000e+01 
7.5000000e-01 3.0000000e+00 5.0000000e-01 
7.5000000e-01 3.0000000e+00 1.0000000e+00 
7.5000000e-01 3.0000000e+00 1.5000000e+00 
7.5000000e-01 3.0000000e+00 2.0000000e+00 
7.5000000e-01 3.0000000e+00 2.5000000e+00 
7.5000000e-01 3.0000000e+00 3.0000000e+00 
7.5000000e-01 3.0000000e+00 3.5000000e+00 
7.5000000e-01 3.0000000e+00 4.0000000e+00 
7.5000000e-01 3.0000000e+00 4.5000000e+00 
7.5000000e-01 3.0000000e+00 5.0000000e+00 
7.5000000e-01 3.0000000e+00 5.5000000e+00 
7.5000000e-01 3.0000000e+00 6.0000000e+00 
7.5000000e-01 3.0000000e+00 6.5000000e+00 
7.5000000e-01 3.0000000e+00 7.0000000e+00 
7.5000000e-01 3.0000000e+00 7.5000000e+00 
7.5000000e-01 3.0000000e+00 8.0000000e+00 
7.5000000e-01 3.0000000e+00 8.5000000e+00 
7.5000000e-01 3.0000000e+00 9.0000000e+00 
7.5000000e-01 3.0000000e+00 9.5000000e+00 
7.5000000e-01 3.0000000e+00 1.0000000e+01 
7.5000000e-01 3.0000000e+00 1.0500000e+01 
7.5000000e-01 3.0000000e+00 1.1000000e+01 
7.5000000e-01 3.0000000e+00 1.1500000e+01 
7.5000000e-01 3.0000000e+00 1.2000000e+01 
7.5000000e-01 3.0000000e+00 1.2500000e+01 
7.5000000e-01 3.0000000e+00 1.3000000e+01 
7.5000000e-01 3.0000000e+00 1.3500000e+01 
7.5000000e-01 3.0000000e+00 1.4000000e+01 
7.5000000e-01 3.0000000e+00 1.4500000e+01 
7.5000000e-01 3.0000000e+00 1.5000000e+01 
7.5000000e-01 3.0000000e+00 1.5500000e+01 
7.5000000e-01 3.0000000e+00 1.6000000e+01 
7.5000000e-01 3.0000000e+00 1.6500000e+01 
7.5000000e-01 3.0000000e+00 1.7000000e+01 
7.5000000e-01 3.0000000e+00 1.7500000e+01 
7.5000000e-01 3.0000000e+00 1.8000000e+01 
7.5000000e-01 3.0000000e+00 1.8500000e+01 
7.5000000e-01 3.0000000e+00 1.9000000e+01 
7.5000000e-01 3.0000000e+00 1.9500000e+01 
7.5000000e-01 3.0000000e+00 2.0000000e+01 
7.5000000e-01 3.0000000e+00 2.0500000e+01 
7.5000000e-01 3.0000000e+00 2.1000000e+01 
7.5000000e-01 3.0000000e+00 2.1500000e+01 
7.5000000e-01 3.0000000e+00 2.2000000e+01 
7.5000000e-01 3.0000000e+00 2.2500000e+01 
7.5000000e-01 3.0000000e+00 2.3000000e+01 
7.5000000e-01 3.0000000e+00 2.3500000e+01 
7.5000000e-01 3.0000000e+00 2.4000000e+01 
7.5000000e-01 3.0000000e+00 2.4500000e+01 
7.5000000e-01 3.0000000e+00 2.5000000e+01 
7.5000000e-01 3.0000000e+00 2.5500000e+01 
7.5000000e-01 3.0000000e+00 2.6000000e+01 
7.5000000e-01 3.0000000e+00 2.6500000e+01 
7.5000000e-01 3.0000000e+00 2.7000000e+01 
7.5000000e-01 3.0000000e+00 2.7500000e+01 
7.5000000e-01 3.0000000e+00 2.8000000e+01 
7.5000000e-01 3.0000000e+00 2.8500000e+01 
7.5000000e-01 3.0000000e+00 2.9000000e+01 
7.5000000e-01 3.0000000e+00 2.9500000e+01 
7.5000000e-01 3.0000000e+00 3.0000000e+01 
7.5000000e-01 3.0000000e+00 3.0500000e+01 
7.5000000e-01 3.0000000e+00 3.1000000e+01 
7.5000000e-01 3.0000000e+00 3.1500000e+01 
7.5000000e-01 3.0000000e+00 3.2000000e+01 
7.5000000e-01 3.0000000e+00 3.2500000e+01 
7.5000000e-01 3.0000000e+00 3.3000000e+01 
7.5000000e-01 3.0000000e+00 3.3500000e+01 
7.5000000e-01 3.0000000e+00 3.4000000e+01 
7.5000000e-01 3.0000000e+00 3.4500000e+01 
7.5000000e-01 3.0000000e+00 3.5000000e+01 
7.5000000e-01 3.0000000e+00 3.5500000e+01 
7.5000000e-01 3.0000000e+00 3.6000000e+01 
7.5000000e-01 3.0000000e+00 3.6500000e+01 
7.5000000e-01 3.0000000e+00 3.7000000e+01 
7.5000000e-01 3.0000000e+00 3.7500000e+01 
7.5000000e-01 3.0000000e+00 3.8000000e+01 
7.5000000e-01 3.0000000e+00 3.8500000e+01 
7.5000000e-01 3.0000000e+00 3.9000000e+01 
7.5000000e-01 3.0000000e+00 3.9500000e+01 
7.5000000e-01 3.0000000e+00 4.0000000e+01 
7.5000000e-01 3.0000000e+00 4.0500000e+01 
7.5000000e-01 3.0000000e+00 4.1000000e+01 
7.5000000e-01 3.0000000e+00 4.1500000e+01 
7.5000000e-01 3.0000000e+00 4.2000000e+01 
7.5000000e-01 3.0000000e+00 4.2500000e+01 
7.5000000e-01 3.0000000e+00 4.3000000e+01 
7.5000000e-01 3.0000000e+00 4.3500000e+01 
7.5000000e-01 3.0000000e+00 4.4000000e+01 
7.5000000e-01 3.0000000e+00 4.4500000e+01 
7.5000000e-01 3.0000000e+00 4.5000000e+01 
7.5000000e-01 3.0000000e+00 4.5500000e+01 
7.5000000e-01 3.0000000e+00 4.6000000e+01 
7.5000000e-01 3.0000000e+00 4.6500000e+01 
7.5000000e-01 3.0000000e+00 4.7000000e+01 
7.5000000e-01 3.0000000e+00 4.7500000e+01 
7.5000000e-01 3.0000000e+00 4.8000000e+01 
7.5000000e-01 3.0000000e+00 4.8500000e+01 
7.5000000e-01 3.0000000e+00 4.9000000e+01 
7.5000000e-01 3.0000000e+00 4.9500000e+01 
7.5000000e-01 3.0250001e+00 0.0000000e+00 
7.5000000e-01 3.0250001e+00 5.0000000e-01 
7.5000000e-01 3.0250001e+00 1.0000000e+00 
7.5000000e-01 3.0250001e+00 1.5000000e+00 
7.5000000e-01 3.0250001e+00 2.0000000e+00 
7.5000000e-01 3.0250001e+00 2.5000000e+00 
7.5000000e-01 3.0250001e+00 3.0000000e+00 
7.5000000e-01 3.0250001e+00 3.5000000e+00 
7.5000000e-01 3.0250001e+00 4.0000000e+00 
7.5000000e-01 3.0250001e+00 4.5000000e+00 
7.5000000e-01 3.0250001e+00 5.0000000e+00 
7.5000000e-01 3.0250001e+00 5.5000000e+00 
7.5000000e-01 3.0250001e+00 6.0000000e+00 
7.5000000e-01 3.0250001e+00 6.5000000e+00 
7.5000000e-01 3.0250001e+00 7.0000000e+00 
7.5000000e-01 3.0250001e+00 7.5000000e+00 
7.5000000e-01 3.0250001e+00 8.0000000e+00 
7.5000000e-01 3.0250001e+00 8.5000000e+00 
7.5000000e-01 3.0250001e+00 9.0000000e+00 
7.5000000e-01 3.0250001e+00 9.5000000e+00 
7.5000000e-01 3.0250001e+00 1.0000000e+01 
7.5000000e-01 3.0250001e+00 1.0500000e+01 
7.5000000e-01 3.0250001e+00 1.1000000e+01 
7.5000000e-01 3.0250001e+00 1.1500000e+01 
7.5000000e-01 3.0250001e+00 1.2000000e+01 
7.5000000e-01 3.0250001e+00 1.2500000e+01 
7.5000000e-01 3.0250001e+00 1.3000000e+01 
7.5000000e-01 3.0250001e+00 1.3500000e+01 
7.5000000e-01 3.0250001e+00 1.4000000e+01 
7.5000000e-01 3.0250001e+00 1.4500000e+01 
7.5000000e-01 3.0250001e+00 1.5000000e+01 
7.5000000e-01 3.0250001e+00 1.5500000e+01 
7.5000000e-01 3.0250001e+00 1.6000000e+01 
7.5000000e-01 3.0250001e+00 1.6500000e+01 
7.5000000e-01 3.0250001e+00 1.7000000e+01 
7.5000000e-01 3.0250001e+00 1.7500000e+01 
7.5000000e-01 3.0250001e+00 1.8000000e+01 
7.5000000e-01 3.0250001e+00 1.8500000e+01 
7.5000000e-01 3.0250001e+00 1.9000000e+01 
7.5000000e-01 3.0250001e+00 1.9500000e+01 
7.5000000e-01 3.0250001e+00 2.0000000e+01 
7.5000000e-01 3.0250001e+00 2.0500000e+01 
7.5000000e-01 3.0250001e+00 2.1000000e+01 
7.5000000e-01 3.0250001e+00 2.1500000e+01 
7.5000000e-01 3.0250001e+00 2.2000000e+01 
7.5000000e-01 3.0250001e+00 2.2500000e+01 
7.5000000e-01 3.0250001e+00 2.3000000e+01 
7.5000000e-01 3.0250001e+00 2.3500000e+01 
7.5000000e-01 3.0250001e+00 2.4000000e+01 
7.5000000e-01 3.0250001e+00 2.4500000e+01 
7.5000000e-01 3.0250001e+00 2.5000000e+01 
7.5000000e-01 3.0250001e+00 2.5500000e+01 
7.5000000e-01 3.0250001e+00 2.6000000e+01 
7.5000000e-01 3.0250001e+00 2.6500000e+01 
7.5000000e-01 3.0250001e+00 2.7000000e+01 
7.5000000e-01 3.0250001e+00 2.7500000e+01 
7.5000000e-01 3.0250001e+00 2.8000000e+01 
7.5000000e-01 3.0250001e+00 2.8500000e+01 
7.5000000e-01 3.0250001e+00 2.9000000e+01 
7.5000000e-01 3.0250001e+00 2.9500000e+01 
7.5000000e-01 3.0250001e+00 3.0000000e+01 
7.5000000e-01 3.0250001e+00 3.0500000e+01 
7.5000000e-01 3.0250001e+00 3.1000000e+01 
7.5000000e-01 3.0250001e+00 3.1500000e+01 
7.5000000e-01 3.0250001e+00 3.2000000e+01 
7.5000000e-01 3.0250001e+00 3.2500000e+01 
7.5000000e-01 3.0250001e+00 3.3000000e+01 
7.5000000e-01 3.0250001e+00 3.3500000e+01 
7.5000000e-01 3.0250001e+00 3.4000000e+01 
7.5000000e-01 3.0250001e+00 3.4500000e+01 
7.5000000e-01 3.0250001e+00 3.5000000e+01 
7.5000000e-01 3.0250001e+00 3.5500000e+01 
7.5000000e-01 3.0250001e+00 3.6000000e+01 
7.5000000e-01 3.0250001e+00 3.6500000e+01 
7.5000000e-01 3.0250001e+00 3.7000000e+01 
7.5000000e-01 3.0250001e+00 3.7500000e+01 
7.5000000e-01 3.0250001e+00 3.8000000e+01 
7.5000000e-01 3.0250001e+00 3.8500000e+01 
7.5000000e-01 3.0250001e+00 3.9000000e+01 
7.5000000e-01 3.0250001e+00 3.9500000e+01 
7.5000000e-01 3.0250001e+00 4.0000000e+01 
7.5000000e-01 3.0250001e+00 4.0500000e+01 
7.5000000e-01 3.0250001e+00 4.1000000e+01 
7.5000000e-01 3.0250001e+00 4.1500000e+01 
7.5000000e-01 3.0250001e+00 4.2000000e+01 
7.5000000e-01 3.0250001e+00 4.2500000e+01 
7.5000000e-01 3.0250001e+00 4.3000000e+01 
7.5000000e-01 3.0250001e+00 4.3500000e+01 
7.5000000e-01 3.0250001e+00 4.4000000e+01 
7.5000000e-01 3.0250001e+00 4.4500000e+01 
7.5000000e-01 3.0250001e+00 4.5000000e+01 
7.5000000e-01 3.0250001e+00 4.5500000e+01 
7.5000000e-01 3.0250001e+00 4.6000000e+01 
7.5000000e-01 3.0250001e+00 4.6500000e+01 
7.5000000e-01 3.0250001e+00 4.7000000e+01 
7.5000000e-01 3.0250001e+00 4.7500000e+01 
7.5000000e-01 3.0250001e+00 4.8000000e+01 
7.5000000e-01 3.0250001e+00 4.8500000e+01 
7.5000000e-01 3.0250001e+00 4.9000000e+01 
7.5000000e-01 3.0250001e+00 4.9500000e+01 
7.5000000e-01 3.0250001e+00 5.0000000e+01 
1.5000000e+00 3.0000000e+00 2.5000000e+01 
3.0000000e+00 2.0000000e+00 2.5000000e+01 
4.0000000e+00 2.0000000e+00 2.5000000e+01 
5.0000000e+00 2.0000000e+00 2.5000000e+01 
0.0000000e+00 3.0000000e+00 2.5000000e+01 
0.0000000e+00 0.0000000e+00 1.0000000e+00 
0.0000000e+00 0.0000000e+00 2.0000000e+00 
0.0000000e+00 0.0000000e+00 3.0000000e+00 
0.0000000e+00 0.0000000e+00 4.0000000e+00 
0.0000000e+00 0.0000000e+00 5.0000000e+00 
[...]
POINT_DATA 1920
FIELD FieldData 3
DISPLACEMENT 3 1920  float
0.0000000e+00 0.0000000e+00 0.0000000e+00 
0.0000000e+00 0.0000000e+00 0.0000000e+00 
0.0000000e+00 0.0000000e+00 0.0000000e+00 
0.0000000e+00 0.0000000e+00 0.0000000e+00 
-1.7704878e-07 -6.6576367e-06 -1.2531768e-06 
2.6748390e-11 3.3844452e-10 -3.5447405e-11 
0.0000000e+00 2.6729840e-05 0.0000000e+00 
0.0000000e+00 -3.8573624e-09 0.0000000e+00 
-9.2830055e-07 -4.6514874e-06 3.3118943e-06 
2.2336530e-10 2.7271158e-10 2.8734995e-10 
2.0426292e-05 2.0206468e-05 -3.4931501e-05 
1.1301221e-09 3.8404537e-09 5.6460175e-10 
0.0000000e+00 4.5200068e-05 0.0000000e+00 
0.0000000e+00 -7.0599427e-08 0.0000000e+00 
5.1938341e-06 4.9143830e-05 -6.4779138e-05 
2.6789149e-08 6.7891883e-09 2.9370495e-09 
4.8209419e-08 7.7197343e-05 -1.2469642e-05 
-1.3827288e-09 -7.6527670e-07 -4.0243382e-08 
0.0000000e+00 9.4810246e-05 0.0000000e+00 
0.0000000e+00 -1.9950917e-07 0.0000000e+00 
9.3571634e-06 7.7042139e-05 -5.1795882e-06 
1.7563667e-05 7.1186805e-05 2.5875488e-05 
1.7689266e-05 5.2066884e-05 6.8350950e-05 
2.2258873e-06 9.7819275e-06 1.0531249e-04 
-3.7704758e-05 -6.8529989e-05 1.3831320e-04 
-3.6177054e-05 -1.9784841e-04 1.5468488e-04 
-6.9670838e-05 -4.0083294e-04 2.2465680e-04 
-7.5909695e-05 -7.1673439e-04 2.6983320e-04 
-1.3246595e-04 -1.1912852e-03 3.3474402e-04 
-2.0209169e-04 -1.8735102e-03 2.8497571e-04 
-3.0217855e-04 -2.7889295e-03 3.4583695e-04 
-3.0438017e-04 -3.8720286e-03 1.1512107e-04 
-3.9289668e-04 -4.9386597e-03 1.2098513e-04 
-4.7657531e-04 -5.5251070e-03 -1.1193073e-04 
-4.5291576e-04 -5.3106900e-03 -2.5317146e-04 
-3.8878128e-04 -4.8704320e-03 -2.4871365e-04 
-3.2194905e-04 -4.6631391e-03 -2.7002991e-04 
-2.6832428e-04 -4.6069473e-03 -2.7977902e-04 
-2.5238251e-04 -4.2777741e-03 -2.9014167e-04 
-1.8431207e-04 -3.2025233e-03 -2.5532211e-04 
-9.0540707e-05 -1.9450467e-03 -3.1972193e-04 
-4.4390057e-05 -8.9978456e-04 -1.5247677e-04 
5.5287705e-06 -2.1262624e-04 -1.3705539e-04 
2.5445241e-05 1.5775370e-04 1.1150935e-06 
2.7091668e-05 2.9319283e-04 2.9354364e-05 
1.4578127e-05 2.8981411e-04 3.5671543e-05 
1.1151020e-05 2.2323577e-04 4.4669894e-05 
5.8064302e-06 1.3724912e-04 6.3977664e-06 
-8.9267971e-08 5.7855967e-05 3.9722622e-06 
1.4269588e-07 -2.5523564e-06 1.3873753e-06 
-8.3295608e-06 -4.0079431e-05 -1.5333033e-05 
-4.8132024e-06 -5.3113803e-05 4.9242288e-07 
-4.4991430e-06 -4.3103446e-05 2.1005201e-06 
-4.0207615e-06 -1.8018683e-05 3.6602648e-06 
1.5244359e-06 1.0682545e-05 8.5273432e-06 
3.3706732e-07 2.9541503e-05 1.2133510e-06 
-1.0045727e-06 3.0652751e-05 -1.4656714e-05 
2.3444138e-06 2.1195636e-05 -9.3471308e-06 
5.5020391e-06 1.6027499e-05 -1.9904030e-05 
1.4262232e-06 2.6524323e-05 -1.3699968e-05 
2.2783272e-06 5.1176670e-05 -7.2277281e-08 
7.3115361e-06 7.0632195e-05 7.4566215e-06 
3.5995008e-06 6.3979271e-05 6.1663486e-05 
1.1325707e-05 1.8585835e-05 1.1895604e-04 
-1.6631233e-05 -7.5126671e-05 1.5601021e-04 
-5.0055063e-05 -2.2919077e-04 1.7287041e-04 
-9.5909905e-05 -4.6201126e-04 2.3049299e-04 
-2.1386708e-04 -8.1426970e-04 3.1100260e-04 
-1.5454597e-04 -1.3272517e-03 2.9843164e-04 
-2.4419936e-04 -2.0537905e-03 2.8325678e-04 
-2.7009399e-04 -3.0170945e-03 3.5815363e-04 
-4.4789899e-04 -4.1318969e-03 8.2955739e-05 
-4.6101192e-04 -5.1653381e-03 7.0309070e-05 
-4.7905551e-04 -5.5840965e-03 -1.0791131e-04 
-4.6788401e-04 -5.2752281e-03 -3.0766544e-04 
-4.1623443e-04 -4.8623639e-03 -2.8201289e-04 
-3.3253297e-04 -4.7178804e-03 -2.8121800e-04 
-3.3756270e-04 -4.6702013e-03 -3.0050968e-04 
-3.0135023e-04 -4.2108595e-03 -3.6611158e-04 
-2.2085260e-04 -3.0391966e-03 -2.8240087e-04 
-1.1665570e-04 -1.7916192e-03 -3.7038221e-04 
-4.3829619e-05 -7.8361359e-04 -1.7393696e-04 
1.4250134e-05 -1.3924626e-04 -1.3391864e-04 
3.5591020e-05 1.9682439e-04 1.2908602e-05 
2.7397758e-05 3.0959951e-04 4.3432763e-05 
1.9246729e-05 2.9123997e-04 3.8939226e-05 
1.8287952e-05 2.1516642e-04 4.8540860e-05 
4.5367169e-06 1.2184202e-04 6.1131414e-06 
-9.0660012e-07 3.8820053e-05 3.4447453e-06 
-9.0224626e-07 -1.8169643e-05 -1.2475606e-06 
-4.9217042e-06 -4.2050295e-05 -1.2735596e-05 
-3.4340692e-06 -3.8415135e-05 -3.2574383e-06 
-5.8717978e-07 -1.8452880e-05 -6.9714122e-07 
-1.8727305e-06 2.7226829e-06 8.7373496e-07 
3.1542363e-06 1.3806677e-05 2.8818861e-06 
-2.2131171e-06 1.3198148e-05 -3.0861033e-06 
9.8545991e-07 3.9313072e-06 7.6730214e-07 
-3.5814426e-07 -7.4571358e-06 2.0548164e-06 
-3.6442700e-08 -1.3088943e-05 -3.1346526e-06 
5.0494481e-07 -9.8690052e-06 7.5009171e-07 
4.0370422e-11 -7.0158984e-07 4.6267411e-07 
-3.5481449e-07 7.6225342e-06 -1.3975488e-06 
3.6313014e-07 9.4965098e-06 1.0804813e-06 
3.0552303e-07 5.7775592e-06 -1.0855254e-07 
-1.1483933e-07 1.9201888e-08 -4.5907268e-07 
3.5283090e-08 -4.6378645e-06 5.6076743e-07 
-1.7793081e-07 -6.0077455e-06 -4.3888429e-07 
-3.2504329e-07 -3.7345840e-06 -3.6130021e-07 
1.4752392e-07 8.9292917e-07 3.6703568e-07 
2.2668466e-07 4.5587317e-06 -3.3643603e-09 
-1.0930787e-08 3.9951738e-06 -9.8809405e-10 
-5.8122041e-08 1.6976746e-07 1.0035335e-07 
-5.9510796e-08 -2.8740105e-06 -1.2621796e-07 
-5.1333917e-08 -2.6516309e-06 -6.1549009e-08 
2.9528817e-08 -1.3446734e-07 5.1604012e-08 
-1.2936691e-08 1.7556578e-06 -3.9924185e-08 
-2.8802489e-08 1.5548657e-06 1.6345943e-08 
1.0129752e-08 2.9125178e-07 -3.5804486e-09 
-1.2310793e-08 -5.6061691e-07 1.5600060e-08 
0.0000000e+00 7.7397504e-05 0.0000000e+00 
0.0000000e+00 7.7038669e-05 0.0000000e+00 
0.0000000e+00 7.1381597e-05 0.0000000e+00 
0.0000000e+00 5.2448006e-05 0.0000000e+00 
0.0000000e+00 1.0095050e-05 0.0000000e+00 
0.0000000e+00 -6.8117253e-05 0.0000000e+00 
0.0000000e+00 -1.9710518e-04 0.0000000e+00 
0.0000000e+00 -4.0051076e-04 0.0000000e+00 
0.0000000e+00 -7.1643380e-04 0.0000000e+00 
0.0000000e+00 -1.1924097e-03 0.0000000e+00 
0.0000000e+00 -1.8780781e-03 0.0000000e+00 
0.0000000e+00 -2.7953521e-03 0.0000000e+00 
0.0000000e+00 -3.8867004e-03 0.0000000e+00 
0.0000000e+00 -4.9577565e-03 0.0000000e+00 
0.0000000e+00 -5.5546998e-03 0.0000000e+00 
0.0000000e+00 -5.3318804e-03 0.0000000e+00 
0.0000000e+00 -4.8977872e-03 0.0000000e+00 
0.0000000e+00 -4.6815118e-03 0.0000000e+00 
0.0000000e+00 -4.6349671e-03 0.0000000e+00 
0.0000000e+00 -4.3013413e-03 0.0000000e+00 
0.0000000e+00 -3.2254918e-03 0.0000000e+00 
0.0000000e+00 -1.9576342e-03 0.0000000e+00 
0.0000000e+00 -9.0840866e-04 0.0000000e+00 
0.0000000e+00 -2.1424082e-04 0.0000000e+00 
0.0000000e+00 1.5732295e-04 0.0000000e+00 
0.0000000e+00 2.9425422e-04 0.0000000e+00 
0.0000000e+00 2.9161363e-04 0.0000000e+00 
0.0000000e+00 2.2439253e-04 0.0000000e+00 
0.0000000e+00 1.3807401e-04 0.0000000e+00 
0.0000000e+00 5.8315443e-05 0.0000000e+00 
0.0000000e+00 -2.4908211e-06 0.0000000e+00 
0.0000000e+00 -4.0070234e-05 0.0000000e+00 
0.0000000e+00 -5.2931784e-05 0.0000000e+00 
0.0000000e+00 -4.2994940e-05 0.0000000e+00 
0.0000000e+00 -1.7946379e-05 0.0000000e+00 
0.0000000e+00 1.0451555e-05 0.0000000e+00 
0.0000000e+00 2.8926772e-05 0.0000000e+00 
0.0000000e+00 3.0370018e-05 0.0000000e+00 
0.0000000e+00 2.1376700e-05 0.0000000e+00 
0.0000000e+00 1.6556820e-05 0.0000000e+00 
0.0000000e+00 2.7238462e-05 0.0000000e+00 
0.0000000e+00 5.1248484e-05 0.0000000e+00 
0.0000000e+00 7.0395290e-05 0.0000000e+00 
0.0000000e+00 6.3983905e-05 0.0000000e+00 
0.0000000e+00 1.8754954e-05 0.0000000e+00 
0.0000000e+00 -7.4732372e-05 0.0000000e+00 
0.0000000e+00 -2.2802595e-04 0.0000000e+00 
0.0000000e+00 -4.6181327e-04 0.0000000e+00 
0.0000000e+00 -8.1353768e-04 0.0000000e+00 
0.0000000e+00 -1.3287847e-03 0.0000000e+00 
0.0000000e+00 -2.0594669e-03 0.0000000e+00 
0.0000000e+00 -3.0251162e-03 0.0000000e+00 
0.0000000e+00 -4.1480958e-03 0.0000000e+00 
0.0000000e+00 -5.1845140e-03 0.0000000e+00 
0.0000000e+00 -5.6142253e-03 0.0000000e+00 
0.0000000e+00 -5.2959467e-03 0.0000000e+00 
0.0000000e+00 -4.8897853e-03 0.0000000e+00 
0.0000000e+00 -4.7367197e-03 0.0000000e+00 
0.0000000e+00 -4.6994896e-03 0.0000000e+00 
0.0000000e+00 -4.2319805e-03 0.0000000e+00 
0.0000000e+00 -3.0621814e-03 0.0000000e+00 
0.0000000e+00 -1.8013909e-03 0.0000000e+00 
0.0000000e+00 -7.9189066e-04 0.0000000e+00 
0.0000000e+00 -1.4040951e-04 0.0000000e+00 
0.0000000e+00 1.9697683e-04 0.0000000e+00 
0.0000000e+00 3.1069157e-04 0.0000000e+00 
0.0000000e+00 2.9295622e-04 0.0000000e+00 
0.0000000e+00 2.1590991e-04 0.0000000e+00 
0.0000000e+00 1.2251307e-04 0.0000000e+00 
0.0000000e+00 3.9357888e-05 0.0000000e+00 
0.0000000e+00 -1.7539107e-05 0.0000000e+00 
0.0000000e+00 -4.1889551e-05 0.0000000e+00 
0.0000000e+00 -3.8351496e-05 0.0000000e+00 
0.0000000e+00 -1.8694727e-05 0.0000000e+00 
0.0000000e+00 2.2166353e-06 0.0000000e+00 
0.0000000e+00 1.3600944e-05 0.0000000e+00 
0.0000000e+00 1.3088289e-05 0.0000000e+00 
0.0000000e+00 3.9457695e-06 0.0000000e+00 
0.0000000e+00 -7.1462719e-06 0.0000000e+00 
0.0000000e+00 -1.2821733e-05 0.0000000e+00 
0.0000000e+00 -9.7963421e-06 0.0000000e+00 
0.0000000e+00 -8.3340723e-07 0.0000000e+00 
0.0000000e+00 7.3169731e-06 0.0000000e+00 
0.0000000e+00 9.4138804e-06 0.0000000e+00 
0.0000000e+00 5.8382079e-06 0.0000000e+00 
0.0000000e+00 7.9434635e-08 0.0000000e+00 
0.0000000e+00 -4.5270767e-06 0.0000000e+00 
0.0000000e+00 -5.9171880e-06 0.0000000e+00 
0.0000000e+00 -3.6829863e-06 0.0000000e+00 
0.0000000e+00 8.2118441e-07 0.0000000e+00 
0.0000000e+00 4.3322316e-06 0.0000000e+00 
0.0000000e+00 3.9078245e-06 0.0000000e+00 
0.0000000e+00 3.3326978e-07 0.0000000e+00 
0.0000000e+00 -2.7028464e-06 0.0000000e+00 
0.0000000e+00 -2.6367698e-06 0.0000000e+00 
0.0000000e+00 -2.5770362e-07 0.0000000e+00 
0.0000000e+00 1.6557707e-06 0.0000000e+00 
0.0000000e+00 1.5881286e-06 0.0000000e+00 
0.0000000e+00 3.8128556e-07 0.0000000e+00 
0.0000000e+00 -5.4984389e-07 0.0000000e+00 
0.0000000e+00 -8.1102036e-07 0.0000000e+00 
-5.8380020e-04 -1.1839067e-03 4.1486046e-04 
-2.2787430e-05 -3.4187536e-04 1.9921667e-05 
3.6095957e-05 -1.1163731e-04 -3.7241527e-05 
4.5124481e-05 6.0083501e-05 -3.3286095e-05 
0.0000000e+00 -1.7568631e-03 0.0000000e+00 
0.0000000e+00 0.0000000e+00 0.0000000e+00 
0.0000000e+00 0.0000000e+00 0.0000000e+00 
0.0000000e+00 0.0000000e+00 0.0000000e+00 
0.0000000e+00 0.0000000e+00 0.0000000e+00 
0.0000000e+00 0.0000000e+00 0.0000000e+00 
0.0000000e+00 0.0000000e+00 0.0000000e+00 
0.0000000e+00 0.0000000e+00 0.0000000e+00 
0.0000000e+00 0.0000000e+00 0.0000000e+00 
0.0000000e+00 0.0000000e+00 0.0000000e+00 
0.0000000e+00 0.0000000e+00 0.0000000e+00 
0.0000000e+00 0.0000000e+00 0.0000000e+00 
0.0000000e+00 0.0000000e+00 0.0000000e+00 
0.0000000e+00 0.0000000e+00 0.0000000e+00 
0.0000000e+00 0.0000000e+00 0.0000000e+00 
0.0000000e+00 0.0000000e+00 0.0000000e+00 
0.0000000e+00 0.0000000e+00 0.0000000e+00 
0.0000000e+00 0.0000000e+00 0.0000000e+00 
0.0000000e+00 0.0000000e+00 0.0000000e+00 
0.0000000e+00 0.0000000e+00 0.0000000e+00 
0.0000000e+00 0.0000000e+00 0.0000000e+00 
0.0000000e+00 0.0000000e+00 0.0000000e+00 
0.0000000e+00 0.0000000e+00 0.0000000e+00 
0.0000000e+00 0.0000000e+00 0.0000000e+00 
0.0000000e+00 0.0000000e+00 0.0000000e+00 
0.0000000e+00 0.0000000e+00 0.0000000e+00 
0.0000000e+00 0.0000000e+00 0.0000000e+00 
0.0000000e+00 0.0000000e+00 0.0000000e+00 
0.0000000e+00 0.0000000e+00 0.0000000e+00 
0.0000000e+00 0.0000000e+00 0.0000000e+00 
0.0000000e+00 0.0000000e+00 0.0000000e+00 
0.0000000e+00 0.0000000e+00 0.0000000e+00 
0.0000000e+00 0.0000000e+00 0.0000000e+00 
0.0000000e+00 0.0000000e+00 0.0000000e+00 
0.0000000e+00 0.0000000e+00 0.0000000e+00 
0.0000000e+00 0.0000000e+00 0.0000000e+00 
0.0000000e+00 0.0000000e+00 0.0000000e+00 
0.0000000e+00 0.0000000e+00 0.0000000e+00 
0.0000000e+00 0.0000000e+00 0.0000000e+00 
0.0000000e+00 0.0000000e+00 0.0000000e+00 
0.0000000e+00 0.0000000e+00 0.0000000e+00 
0.0000000e+00 0.0000000e+00 0.0000000e+00 
0.0000000e+00 0.0000000e+00 0.0000000e+00 
0.0000000e+00 0.0000000e+00 0.0000000e+00 
0.0000000e+00 0.0000000e+00 0.0000000e+00 
0.0000000e+00 0.0000000e+00 0.0000000e+00 
0.0000000e+00 0.0000000e+00 0.0000000e+00 
0.0000000e+00 0.0000000e+00 0.0000000e+00 
0.0000000e+00 0.0000000e+00 0.0000000e+00 
0.0000000e+00 0.0000000e+00 0.0000000e+00 
0.0000000e+00 0.0000000e+00 0.0000000e+00 
0.0000000e+00 0.0000000e+00 0.0000000e+00 
0.0000000e+00 0.0000000e+00 0.0000000e+00 
0.0000000e+00 0.0000000e+00 0.0000000e+00 
0.0000000e+00 0.0000000e+00 0.0000000e+00 
0.0000000e+00 0.0000000e+00 0.0000000e+00 
0.0000000e+00 0.0000000e+00 0.0000000e+00 
0.0000000e+00 0.0000000e+00 0.0000000e+00 
0.0000000e+00 0.0000000e+00 0.0000000e+00 
0.0000000e+00 0.0000000e+00 0.0000000e+00 
0.0000000e+00 0.0000000e+00 0.0000000e+00 
0.0000000e+00 0.0000000e+00 0.0000000e+00 
0.0000000e+00 0.0000000e+00 0.0000000e+00 
0.0000000e+00 0.0000000e+00 0.0000000e+00 
0.0000000e+00 0.0000000e+00 0.0000000e+00 
0.0000000e+00 0.0000000e+00 0.0000000e+00 
0.0000000e+00 0.0000000e+00 0.0000000e+00 
0.0000000e+00 0.0000000e+00 0.0000000e+00 
0.0000000e+00 0.0000000e+00 0.0000000e+00 
0.0000000e+00 0.0000000e+00 0.0000000e+00 
0.0000000e+00 0.0000000e+00 0.0000000e+00 
0.0000000e+00 0.0000000e+00 0.0000000e+00 
0.0000000e+00 0.0000000e+00 0.0000000e+00 
0.0000000e+00 0.0000000e+00 0.0000000e+00 
0.0000000e+00 0.0000000e+00 0.0000000e+00 
0.0000000e+00 0.0000000e+00 0.0000000e+00 
0.0000000e+00 0.0000000e+00 0.0000000e+00 
0.0000000e+00 0.0000000e+00 0.0000000e+00 
0.0000000e+00 0.0000000e+00 0.0000000e+00 
0.0000000e+00 0.0000000e+00 0.0000000e+00 
0.0000000e+00 0.0000000e+00 0.0000000e+00 
0.0000000e+00 0.0000000e+00 0.0000000e+00 
0.0000000e+00 0.0000000e+00 0.0000000e+00 
0.0000000e+00 0.0000000e+00 0.0000000e+00 
0.0000000e+00 0.0000000e+00 0.0000000e+00 
0.0000000e+00 0.0000000e+00 0.0000000e+00 
0.0000000e+00 0.0000000e+00 0.0000000e+00 
0.0000000e+00 0.0000000e+00 0.0000000e+00 
0.0000000e+00 0.0000000e+00 0.0000000e+00 
0.0000000e+00 0.0000000e+00 0.0000000e+00 
0.0000000e+00 0.0000000e+00 0.0000000e+00 
0.0000000e+00 0.0000000e+00 0.0000000e+00 
0.0000000e+00 0.0000000e+00 0.0000000e+00 
0.0000000e+00 0.0000000e+00 0.0000000e+00 
0.0000000e+00 0.0000000e+00 0.0000000e+00 
0.0000000e+00 0.0000000e+00 0.0000000e+00 
0.0000000e+00 0.0000000e+00 0.0000000e+00 
0.0000000e+00 0.0000000e+00 0.0000000e+00 
0.0000000e+00 0.0000000e+00 0.0000000e+00 
0.0000000e+00 0.0000000e+00 0.0000000e+00 
0.0000000e+00 0.0000000e+00 0.0000000e+00 
0.0000000e+00 0.0000000e+00 0.0000000e+00 
0.0000000e+00 0.0000000e+00 0.0000000e+00 
0.0000000e+00 0.0000000e+00 0.0000000e+00 
0.0000000e+00 0.0000000e+00 0.0000000e+00 
0.0000000e+00 0.0000000e+00 0.0000000e+00 
0.0000000e+00 0.0000000e+00 0.0000000e+00 
5.0843237e-06 -9.0352396e-06 -5.0309150e-06 
2.4658890e-05 5.3515314e-06 -1.7549128e-05 
5.8752270e-05 -1.4033325e-06 -3.1767791e-05 
9.3489689e-05 8.6692815e-08 -3.7755082e-05 
1.3003581e-04 2.6364463e-05 -3.2598531e-05 
1.5347924e-04 2.5435475e-05 -1.3831628e-05 
1.6384652e-04 4.2281616e-05 1.9169634e-05 
1.4082958e-04 2.1436757e-05 2.9321447e-05 
1.1085342e-04 3.5108701e-06 4.0242281e-05 
5.4816366e-05 1.0146299e-05 3.3388547e-05 
2.8709248e-05 -4.8133397e-06 1.8672064e-05 
4.8406978e-06 -1.6203585e-05 6.4721453e-06 
-2.1375272e-06 -3.0080814e-06 -1.8133406e-07 
-2.7345427e-06 1.1860310e-05 -1.3926827e-06 
-8.6891745e-08 6.8979477e-07 7.8367589e-07 
2.6255265e-07 -4.4292419e-06 1.5590948e-07 
-6.3718352e-07 -1.4782969e-06 -6.0283895e-07 
-1.0790892e-06 4.6384325e-06 1.1173112e-06 
-1.4750013e-06 3.3068527e-06 3.7520026e-06 
-2.5605857e-07 -1.0459121e-05 -2.7365943e-06 
9.2663158e-06 -8.0014315e-06 -1.0626245e-05 
3.3063465e-05 9.2763894e-06 -2.0484729e-05 
6.9294314e-05 5.5292612e-06 -3.2168886e-05 
1.1355049e-04 1.7174923e-05 -3.8068421e-05 
1.4819777e-04 3.5200552e-05 -2.9936396e-05 
1.6958751e-04 5.3046639e-05 -1.0057674e-05 
1.7062871e-04 3.9880440e-05 2.2565511e-05 
1.3502745e-04 1.3266012e-05 3.6044472e-05 
9.5055795e-05 -8.8222878e-06 3.3634136e-05 
5.1380335e-05 -1.3048219e-07 2.8422857e-05 
1.7988650e-05 -3.4940708e-06 1.4928272e-05 
2.3101659e-06 -2.2538479e-05 3.6381632e-06 
-3.9083402e-06 8.3180396e-07 -3.9337715e-06 
2.6437098e-07 1.3921190e-05 -1.3966428e-07 
-1.3447659e-06 -2.3157716e-06 -1.2011499e-07 
1.3120190e-07 -2.6749078e-06 2.9006202e-07 
1.0107100e-07 1.6606668e-06 1.4087161e-07 
-4.1276800e-07 6.0386674e-07 9.6336827e-08 
-9.7894040e-09 -4.8542222e-07 -3.3999697e-08 
-2.4352804e-08 1.0407908e-07 -5.1688051e-08 
1.3089046e-08 1.4624683e-07 5.3356796e-08 
2.0475241e-08 -6.6669024e-08 1.4070964e-08 
3.2992049e-09 -3.0017524e-08 -1.9815490e-08 
-1.2391116e-09 3.8724622e-08 1.0341579e-08 
2.8185858e-09 -9.0011207e-09 1.8735236e-09 
9.4968444e-10 1.9480986e-09 -5.8907296e-10 
-9.1930341e-10 -1.8913262e-09 -2.8177878e-09 
2.4178401e-11 8.7806062e-10 6.8596145e-10 
1.9601952e-11 -8.6965374e-10 -1.5922673e-10 
0.0000000e+00 -3.6840371e-05 0.0000000e+00 
0.0000000e+00 -9.9133387e-05 0.0000000e+00 
0.0000000e+00 -1.5086586e-04 0.0000000e+00 
0.0000000e+00 -2.4651291e-04 0.0000000e+00 
0.0000000e+00 -4.1749631e-04 0.0000000e+00 
0.0000000e+00 -5.5225869e-04 0.0000000e+00 
0.0000000e+00 -7.3457829e-04 0.0000000e+00 
0.0000000e+00 -7.4849610e-04 0.0000000e+00 
0.0000000e+00 -6.5293041e-04 0.0000000e+00 
0.0000000e+00 -4.6000292e-04 0.0000000e+00 
0.0000000e+00 -2.6124276e-04 0.0000000e+00 
0.0000000e+00 1.8951990e-06 0.0000000e+00 
0.0000000e+00 6.6674394e-05 0.0000000e+00 
0.0000000e+00 3.4435619e-05 0.0000000e+00 
0.0000000e+00 -2.7949050e-06 0.0000000e+00 
0.0000000e+00 -1.6095039e-05 0.0000000e+00 
0.0000000e+00 -6.5242652e-06 0.0000000e+00 
0.0000000e+00 8.1427443e-06 0.0000000e+00 
0.0000000e+00 2.3258010e-05 0.0000000e+00 
0.0000000e+00 1.1588714e-05 0.0000000e+00 
0.0000000e+00 -3.8659964e-05 0.0000000e+00 
0.0000000e+00 -8.6612148e-05 0.0000000e+00 
0.0000000e+00 -1.5323325e-04 0.0000000e+00 
0.0000000e+00 -2.7633429e-04 0.0000000e+00 
0.0000000e+00 -3.8356351e-04 0.0000000e+00 
0.0000000e+00 -5.6669326e-04 0.0000000e+00 
0.0000000e+00 -7.3585456e-04 0.0000000e+00 
0.0000000e+00 -7.5065996e-04 0.0000000e+00 
0.0000000e+00 -6.2794774e-04 0.0000000e+00 
0.0000000e+00 -4.0922911e-04 0.0000000e+00 
0.0000000e+00 -1.6397332e-04 0.0000000e+00 
0.0000000e+00 -9.7474485e-06 0.0000000e+00 
0.0000000e+00 6.5110085e-05 0.0000000e+00 
0.0000000e+00 3.2105898e-05 0.0000000e+00 
0.0000000e+00 -3.9877864e-06 0.0000000e+00 
0.0000000e+00 -1.4130574e-05 0.0000000e+00 
0.0000000e+00 -4.3770588e-06 0.0000000e+00 
0.0000000e+00 7.4814998e-06 0.0000000e+00 
0.0000000e+00 3.7902646e-06 0.0000000e+00 
0.0000000e+00 -3.6631466e-06 0.0000000e+00 
0.0000000e+00 -2.8471361e-06 0.0000000e+00 
0.0000000e+00 1.3432656e-06 0.0000000e+00 
0.0000000e+00 9.5883445e-07 0.0000000e+00 
0.0000000e+00 -9.6384269e-07 0.0000000e+00 
0.0000000e+00 -1.9852628e-07 0.0000000e+00 
0.0000000e+00 3.6403682e-07 0.0000000e+00 
0.0000000e+00 -2.6414628e-07 0.0000000e+00 
0.0000000e+00 1.0627151e-07 0.0000000e+00 
0.0000000e+00 -1.1506626e-08 0.0000000e+00 
3.5578980e-06 -4.6344430e-06 -5.8644750e-06 
8.1684830e-06 1.3935729e-05 -2.1043816e-05 
8.5127449e-06 2.1525779e-05 -2.4803319e-05 
-4.2387928e-06 2.0593059e-05 -1.3785521e-05 
-1.0834808e-10 -1.1214296e-09 -7.4185526e-11 
-8.4193891e-10 2.8372384e-09 -5.6693866e-10 
3.6091075e-09 -8.5219289e-09 4.9086668e-09 
-2.2884261e-09 8.0220470e-09 -4.9919118e-09 
1.6576447e-05 2.9833868e-07 -2.3005499e-05 
-4.9149801e-10 -8.2753571e-10 -3.1790226e-10 
-8.2528038e-07 3.9284401e-05 3.4360762e-06 
3.4503835e-06 4.7888774e-05 -2.4124069e-05 
0.0000000e+00 -3.7856938e-05 0.0000000e+00 
0.0000000e+00 -1.2272841e-04 0.0000000e+00 
0.0000000e+00 -2.4791789e-04 0.0000000e+00 
0.0000000e+00 -4.6560826e-04 0.0000000e+00 
0.0000000e+00 -8.2620053e-04 0.0000000e+00 
0.0000000e+00 -1.2637979e-03 0.0000000e+00 
0.0000000e+00 -1.5390466e-03 0.0000000e+00 
0.0000000e+00 -1.4814424e-03 0.0000000e+00 
0.0000000e+00 -1.2843022e-03 0.0000000e+00 
0.0000000e+00 -8.7733311e-04 0.0000000e+00 
0.0000000e+00 -3.2030648e-04 0.0000000e+00 
0.0000000e+00 2.7342949e-05 0.0000000e+00 
0.0000000e+00 1.2573194e-04 0.0000000e+00 
0.0000000e+00 4.8419795e-05 0.0000000e+00 