# vtk DataFile Version 4.0
vtk output
ASCII
DATASET UNSTRUCTURED_GRID
POINTS 1920 float
0.0000000e+00 0.0000000e+00 0.0000000e+00 
0.0000000e+00 0.0000000e+00 5.0000000e+01 
5.0000000e+00 0.0000000e+00 0.0000000e+00 
5.0000000e+00 0.0000000e+00 5.0000000e+01 
5.0000000e+00 1.0000000e+00 0.0000000e+00 
5.0000000e+00 1.0000000e+00 5.0000000e+01 
0.0000000e+00 1.0000000e+00 0.0000000e+00 
0.0000000e+00 1.0000000e+00 5.0000000e+01 
5.0000000e+00 2.0000000e+00 0.0000000e+00 
5.0000000e+00 2.0000000e+00 5.0000000e+01 
3.0000000e+00 2.0000000e+00 0.0000000e+00 
3.0000000e+00 2.0000000e+00 5.0000000e+01 
0.0000000e+00 2.0000000e+00 0.0000000e+00 
0.0000000e+00 2.0000000e+00 5.0000000e+01 
1.5000000e+00 3.0000000e+00 0.0000000e+00 
1.5000000e+00 3.0000000e+00 5.0000000e+01 
7.5000000e-01 3.0000000e+00 0.0000000e+00 
7.5000000e-01 3.0000000e+00 5.0000000e+01 
0.0000000e+00 3.0000000e+00 0.0000000e+00 
0.0000000e+00 3.0000000e+00 5.0000000e+01 
7.5000000e-01 3.0000000e+00 5.0000000e-01 
7.5000000e-01 3.0000000e+00 1.0000000e+00 
7.5000000e-01 3.0000000e+00 1.5000000e+00 
7.5000000e-01 3.0000000e+00 2.0000000e+00 
7.5000000e-01 3.0000000e+00 2.5000000e+00 
7.5000000e-01 3.0000000e+00 3.0000000e+00 
7.5000000e-01 3.0000000e+00 3.5000000e+00 
7.5000000e-01 3.0000000e+00 4.0000000e+00 
7.5000000e-01 3.0000000e+00 4.5000000e+00 
7.5000000e-01 3.0000000e+00 5.0000000e+00 
7.5000000e-01 3.0000000e+00 5.5000000e+00 
7.5000000e-01 3.0000000e+00 6.0000000e+00 
7.5000000e-01 3.0000000e+00 6.5000000e+00 
7.5000000e-01 3.0000000e+00 7.0000000e+00 
7.5000000e-01 3.0000000e+00 7.5000000e+00 
7.5000000e-01 3.0000000e+00 8.0000000e+00 
7.5000000e-01 3.0000000e+00 8.5000000e+00 
7.5000000e-01 3.0000000e+00 9.0000000e+00 
7.5000000e-01 3.0000000e+00 9.5000000e+00 
7.5000000e-01 3.0000000e+00 1.0000000e+01 
7.5000000e-01 3.0000000e+00 1.0500000e+01 
7.5000000e-01 3.0000000e+00 1.1000000e+01 
7.5000000e-01 3.0000000e+00 1.1500000e+01 
7.5000000e-01 3.0000000e+00 1.2000000e+01 
7.5000000e-01 3.0000000e+00 1.2500000e+01 
7.5000000e-01 3.0000000e+00 1.3000000e+01 
7.5000000e-01 3.0000000e+00 1.3500000e+01 
7.5000000e-01 3.0000000e+00 1.4000000e+01 
7.5000000e-01 3.0000000e+00 1.4500000e+01 
7.5000000e-01 3.0000000e+00 1.5000000e+01 
7.5000000e-01 3.0000000e+00 1.5500000e+01 
7.5000000e-01 3.0000000e+00 1.6000000e+01 
7.5000000e-01 3.0000000e+00 1.6500000e+01 
7.5000000e-01 3.0000000e+00 1.7000000e+01 
7.5000000e-01 3.0000000e+00 1.7500000e+01 
7.5000000e-01 3.0000000e+00 1.8000000e+01 
7.5000000e-01 3.0000000e+00 1.8500000e+01 
7.5000000e-01 3.0000000e+00 1.9000000e+01 
7.5000000e-01 3.0000000e+00 1.9500000e+01 
7.5000000e-01 3.0000000e+00 2.0000000e+01 
7.5000000e-01 3.0000000e+00 2.0500000e+01 
7.5000000e-01 3.0000000e+00 2.1000000e+01 
7.5000000e-01 3.0000000e+00 2.1500000e+01 
7.5000000e-01 3.0000000e+00 2.2000000e+01 
7.5000000e-01 3.0000000e+00 2.2500000e+01 
7.5000000e-01 3.0000000e+00 2.3000000e+01 
7.5000000e-01 3.0000000e+00 2.3500000e+01 
7.5000000e-01 3.0000000e+00 2.4000000e+01 
7.5000000e-01 3.0000000e+00 2.4500000e+01 
7.5000000e-01 3.0000000e+00 2.5000000e+01 
7.5000000e-01 3.0000000e+00 2.5500000e+01 
7.5000000e-01 3.0000000e+00 2.6000000e+01 
7.5000000e-01 3.0000000e+00 2.6500000e+01 
7.5000000e-01 3.0000000e+00 2.7000000e+01 
7.5000000e-01 3.0000000e+00 2.7500000e+01 
7.5000000e-01 3.0000000e+00 2.8000000e+01 
7.5000000e-01 3.0000000e+00 2.8500000e+01 
7.5000000e-01 3.0000000e+00 2.9000000e+01 
7.5000000e-01 3.0000000e+00 2.9500000e+01 
7.5000000e-01 3.0000000e+00 3.0000000e+01 
7.5000000e-01 3.0000000e+00 3.0500000e+01 
7.5000000e-01 3.0000000e+00 3.1000000e+01 
7.5000000e-01 3.0000000e+00 3.1500000e+01 
7.5000000e-01 3.0000000e+00 3.2000000e+01 
7.5000000e-01 3.0000000e+00 3.2500000e+01 
7.5000000e-01 3.0000000e+00 3.3000000e+01 
7.5000000e-01 3.0000000e+00 3.3500000e+01 
7.5000000e-01 3.0000000e+00 3.4000000e+01 
7.5000000e-01 3.0000000e+00 3.4500000e+01 
7.5000000e-01 3.0000000e+00 3.5000000e+01 
7.5000000e-01 3.0000000e+00 3.5500000e+01 
7.5000000e-01 3.0000000e+00 3.6000000e+01 
7.5000000e-01 3.0000000e+00 3.6500000e+01 
7.5000000e-01 3.0000000e+00 3.7000000e+01 
7.5000000e-01 3.0000000e+00 3.7500000e+01 
7.5000000e-01 3.0000000e+00 3.8000000e+01 
7.5000000e-01 3.0000000e+00 3.8500000e+01 
7.5000000e-01 3.0000000e+00 3.9000000e+01 
7.5000000e-01 3.0000000e+00 3.9500000e+01 
7.5000000e-01 3.0000000e+00 4.0000000e+01 
7.5000000e-01 3.0000000e+00 4.0500000e+01 
7.5000000e-01 3.0000000e+00 4.1000000e+01 
7.5000000e-01 3.0000000e+00 4.1500000e+01 
7.5000000e-01 3.0000000e+00 4.2000000e+01 
7.5000000e-01 3.0000000e+00 4.2500000e+01 
7.5000000e-01 3.0000000e+00 4.3000000e+01 
7.5000000e-01 3.0000000e+00 4.3500000e+01 
7.5000000e-01 3.0000000e+00 4.4000000e+01 
7.5000000e-01 3.0000000e+00 4.4500000e+01 
7.5000000e-01 3.0000000e+00 4.5000000e+01 
7.5000000e-01 3.0000000e+00 4.5500000e+01 
7.5000000e-01 3.0000000e+00 4.6000000e+01 
7.5000000e-01 3.0000000e+00 4.6500000e+01 
7.5000000e-01 3.0000000e+00 4.7000000e+01 
7.5000000e-01 3.0000000e+00 4.7500000e+01 
7.5000000e-01 3.0000000e+00 4.8000000e+01 
7.5000000e-01 3.0000000e+00 4.8500000e+01 
7.5000000e-01 3.0000000e+00 4.9000000e+01 
7.5000000e-01 3.0000000e+00 4.9500000e+01 
7.5000000e-01 3.0250001e+00 0.0000000e+00 
7.5000000e-01 3.0250001e+00 5.0000000e-01 
7.5000000e-01 3.0250001e+00 1.0000000e+00 
7.5000000e-01 3.0250001e+00 1.5000000e+00 
7.5000000e-01 3.0250001e+00 2.0000000e+00 
7.5000000e-01 3.0250001e+00 2.5000000e+00 
7.5000000e-01 3.0250001e+00 3.0000000e+00 
7.5000000e-01 3.0250001e+00 3.5000000e+00 
7.5000000e-01 3.0250001e+00 4.0000000e+00 
7.5000000e-01 3.0250001e+00 4.5000000e+00 
7.5000000e-01 3.0250001e+00 5.0000000e+00 
7.5000000e-01 3.0250001e+00 5.5000000e+00 
7.5000000e-01 3.0250001e+00 6.0000000e+00 
7.5000000e-01 3.0250001e+00 6.5000000e+00 
7.5000000e-01 3.0250001e+00 7.0000000e+00 
7.5000000e-01 3.0250001e+00 7.5000000e+00 
7.5000000e-01 3.0250001e+00 8.0000000e+00 
7.5000000e-01 3.0250001e+00 8.5000000e+00 
7.5000000e-01 3.0250001e+00 9.0000000e+00 
7.5000000e-01 3.0250001e+00 9.5000000e+00 
7.5000000e-01 3.0250001e+00 1.0000000e+01 
7.5000000e-01 3.0250001e+00 1.0500000e+01 
7.5000000e-01 3.0250001e+00 1.1000000e+01 
7.5000000e-01 3.0250001e+00 1.1500000e+01 
7.5000000e-01 3.0250001e+00 1.2000000e+01 
7.5000000e-01 3.0250001e+00 1.2500000e+01 
7.5000000e-01 3.0250001e+00 1.3000000e+01 
7.5000000e-01 3.0250001e+00 1.3500000e+01 
7.5000000e-01 3.0250001e+00 1.4000000e+01 
7.5000000e-01 3.0250001e+00 1.4500000e+01 
7.5000000e-01 3.0250001e+00 1.5000000e+01 
7.5000000e-01 3.0250001e+00 1.5500000e+01 
7.5000000e-01 3.0250001e+00 1.6000000e+01 
7.5000000e-01 3.0250001e+00 1.6500000e+01 
7.5000000e-01 3.0250001e+00 1.7000000e+01 
7.5000000e-01 3.0250001e+00 1.7500000e+01 
7.5000000e-01 3.0250001e+00 1.8000000e+01 
7.5000000e-01 3.0250001e+00 1.8500000e+01 
7.5000000e-01 3.0250001e+00 1.9000000e+01 
7.5000000e-01 3.0250001e+00 1.9500000e+01 
7.5000000e-01 3.0250001e+00 2.0000000e+01 
7.5000000e-01 3.0250001e+00 2.0500000e+01 
7.5000000e-01 3.0250001e+00 2.1000000e+01 
7.5000000e-01 3.0250001e+00 2.1500000e+01 
7.5000000e-01 3.0250001e+00 2.2000000e+01 
7.5000000e-01 3.0250001e+00 2.2500000e+01 
7.5000000e-01 3.0250001e+00 2.3000000e+01 
7.5000000e-01 3.0250001e+00 2.3500000e+01 
7.5000000e-01 3.0250001e+00 2.4000000e+01 
7.5000000e-01 3.0250001e+00 2.4500000e+01 
7.5000000e-01 3.0250001e+00 2.5000000e+01 
7.5000000e-01 3.0250001e+00 2.5500000e+01 
7.5000000e-01 3.0250001e+00 2.6000000e+01 
7.5000000e-01 3.0250001e+00 2.6500000e+01 
7.5000000e-01 3.0250001e+00 2.7000000e+01 
7.5000000e-01 3.0250001e+00 2.7500000e+01 
7.5000000e-01 3.0250001e+00 2.8000000e+01 
7.5000000e-01 3.0250001e+00 2.8500000e+01 
7.5000000e-01 3.0250001e+00 2.9000000e+01 
7.5000000e-01 3.0250001e+00 2.9500000e+01 
7.5000000e-01 3.0250001e+00 3.0000000e+01 
7.5000000e-01 3.0250001e+00 3.0500000e+01 
7.5000000e-01 3.0250001e+00 3.1000000e+01 
7.5000000e-01 3.0250001e+00 3.1500000e+01 
7.5000000e-01 3.0250001e+00 3.2000000e+01 
7.5000000e-01 3.0250001e+00 3.2500000e+01 
7.5000000e-01 3.0250001e+00 3.3000000e+01 
7.5000000e-01 3.0250001e+00 3.3500000e+01 
7.5000000e-01 3.0250001e+00 3.4000000e+01 
7.5000000e-01 3.0250001e+00 3.4500000e+01 
7.5000000e-01 3.0250001e+00 3.5000000e+01 
7.5000000e-01 3.0250001e+00 3.5500000e+01 
7.5000000e-01 3.0250001e+00 3.6000000e+01 
7.5000000e-01 3.0250001e+00 3.6500000e+01 
7.5000000e-01 3.0250001e+00 3.7000000e+01 
7.5000000e-01 3.0250001e+00 3.7500000e+01 
7.5000000e-01 3.0250001e+00 3.8000000e+01 
7.5000000e-01 3.0250001e+00 3.8500000e+01 
7.5000000e-01 3.0250001e+00 3.9000000e+01 
7.5000000e-01 3.0250001e+00 3.9500000e+01 
7.5000000e-01 3.0250001e+00 4.0000000e+01 
7.5000000e-01 3.0250001e+00 4.0500000e+01 
7.5000000e-01 3.0250001e+00 4.1000000e+01 
7.5000000e-01 3.0250001e+00 4.1500000e+01 
7.5000000e-01 3.0250001e+00 4.2000000e+01 
7.5000000e-01 3.0250001e+00 4.2500000e+01 
7.5000000e-01 3.0250001e+00 4.3000000e+01 
7.5000000e-01 3.0250001e+00 4.3500000e+01 
7.5000000e-01 3.0250001e+00 4.4000000e+01 
7.5000000e-01 3.0250001e+00 4.4500000e+01 
7.5000000e-01 3.0250001e+00 4.5000000e+01 
7.5000000e-01 3.0250001e+00 4.5500000e+01 
7.5000000e-01 3.0250001e+00 4.6000000e+01 
7.5000000e-01 3.0250001e+00 4.6500000e+01 
7.5000000e-01 3.0250001e+00 4.7000000e+01 
7.5000000e-01 3.0250001e+00 4.7500000e+01 
7.5000000e-01 3.0250001e+00 4.8000000e+01 
7.5000000e-01 3.0250001e+00 4.8500000e+01 
7.5000000e-01 3.0250001e+00 4.9000000e+01 
7.5000000e-01 3.0250001e+00 4.9500000e+01 
7.5000000e-01 3.0250001e+00 5.0000000e+01 
1.5000000e+00 3.0000000e+00 2.5000000e+01 
3.0000000e+00 2.0000000e+00 2.5000000e+01 
4.0000000e+00 2.0000000e+00 2.5000000e+01 
5.0000000e+00 2.0000000e+00 2.5000000e+01 
0.0000000e+00 3.0000000e+00 2.5000000e+01 
0.0000000e+00 0.0000000e+00 1.0000000e+00 
0.0000000e+00 0.0000000e+00 2.0000000e+00 
0.0000000e+00 0.0000000e+00 3.0000000e+00 
0.0000000e+00 0.0000000e+00 4.0000000e+00 
0.0000000e+00 0.0000000e+00 5.0000000e+00 
[...]
POINT_DATA 1920
FIELD FieldData 3
DISPLACEMENT 3 1920  float
0.0000000e+00 0.0000000e+00 0.0000000e+00 
0.0000000e+00 0.0000000e+00 0.0000000e+00 
0.0000000e+00 0.0000000e+00 0.0000000e+00 
0.0000000e+00 0.0000000e+00 0.0000000e+00 
-4.6410541e-06 5.4770080e-06 8.5015918e-06 
-7.3704869e-09 8.5283027e-08 -5.7229115e-09 
0.0000000e+00 -1.2317284e-05 0.0000000e+00 
0.0000000e+00 -2.5338326e-07 0.0000000e+00 
-1.6710901e-06 9.2909258e-06 5.6533154e-06 
-2.7791771e-07 3.1997632e-07 -3.0788394e-07 
1.2302179e-05 2.9090292e-05 -2.3825310e-06 
1.8996224e-07 2.1525119e-08 5.2164120e-07 
0.0000000e+00 -2.6538642e-05 0.0000000e+00 
0.0000000e+00 -3.8965234e-07 0.0000000e+00 
-1.3718078e-06 2.3928111e-05 -1.6610891e-05 
4.4349963e-07 -5.7369260e-07 7.5884896e-07 
-1.4521451e-05 6.1753475e-05 -2.3991226e-05 
8.0608986e-09 -1.4627971e-06 -2.8055729e-07 
0.0000000e+00 -5.8284688e-05 0.0000000e+00 
0.0000000e+00 -9.2778780e-09 0.0000000e+00 
-2.2611110e-05 6.5481574e-05 -1.5498057e-05 
-3.2357442e-05 7.5237091e-05 -5.8962170e-05 
-5.0616789e-05 8.7146167e-05 -1.0667301e-04 
-4.6918936e-05 9.7981800e-05 -1.4011047e-04 
-3.1624721e-05 1.0874774e-04 -1.6395873e-04 
-1.0701228e-05 1.2275454e-04 -1.2962340e-04 
-1.0064099e-05 1.4191328e-04 -1.1546903e-04 
-1.8411365e-05 1.6255630e-04 -1.0345384e-04 
-8.4498706e-06 1.7198484e-04 -8.3741521e-05 
-1.4864362e-05 1.4732886e-04 -3.9038707e-05 
-9.5520973e-06 5.4403332e-05 9.1603479e-06 
-9.0318226e-06 -1.4804596e-04 6.7918321e-05 
-3.3496886e-05 -5.1621348e-04 1.7037291e-04 
-8.3303778e-05 -1.1040396e-03 1.3689575e-04 
-1.3682603e-04 -1.9541199e-03 2.8543174e-04 
-2.2369003e-04 -3.0126020e-03 1.7535049e-04 
-2.9169067e-04 -4.1115400e-03 2.9616314e-04 
-2.9213773e-04 -4.7430089e-03 2.3283318e-04 
-3.2689935e-04 -4.5821629e-03 2.2214002e-04 
-3.2813620e-04 -4.2363112e-03 1.8615750e-04 
-3.4370393e-04 -4.1630720e-03 1.6297806e-04 
-3.8845473e-04 -4.2899633e-03 -8.5769134e-06 
-3.3018782e-04 -4.1527725e-03 -1.5962769e-04 
-2.5422688e-04 -3.2206653e-03 -1.4827494e-04 
-1.4968390e-04 -2.0678858e-03 -3.0257567e-04 
-8.3194813e-05 -1.0669022e-03 -1.5299435e-04 
-4.3363609e-05 -3.8066509e-04 -1.8727698e-04 
-2.0218491e-05 6.9526150e-06 -1.4183897e-04 
1.2450541e-05 1.6981720e-04 -1.5947399e-04 
3.0968669e-05 1.9332136e-04 -1.4164645e-04 
5.7143974e-05 1.5108167e-04 -8.0802136e-05 
5.2090516e-05 9.0460017e-05 -2.4029790e-05 
2.8115570e-05 3.7717429e-05 6.2719548e-05 
1.4122304e-05 2.8646020e-06 7.9145160e-05 
9.1104503e-06 -1.3159673e-05 8.7025350e-05 
-8.4931062e-06 -1.4337999e-05 7.0500486e-05 
-1.0881209e-05 -5.6750546e-06 4.1794061e-05 
-1.4216652e-05 7.2500156e-06 9.4498700e-06 
-2.0149399e-05 2.1495131e-05 -1.1049235e-05 
-1.4744682e-05 3.6003210e-05 -2.2511296e-05 
-2.6298725e-05 4.9331349e-05 -3.8765855e-05 
-4.2763393e-05 6.0442322e-05 -4.9972296e-05 
-5.2402964e-05 6.9738700e-05 -7.6422832e-05 
-1.7853830e-05 8.1654733e-05 -9.6200914e-05 
-2.2507085e-05 1.0048107e-04 -1.4003203e-04 
-2.8566612e-05 1.2697170e-04 -1.4237344e-04 
3.5185298e-05 1.5697947e-04 -1.2088633e-04 
6.8525164e-06 1.8223634e-04 -9.7016557e-05 
3.9672050e-05 1.8882735e-04 -4.9550337e-05 
-3.3196735e-05 1.5349085e-04 -3.1607018e-05 
3.8138467e-05 4.8403872e-05 1.8001589e-05 
-2.2903596e-05 -1.7660837e-04 6.1339168e-05 
-4.4067907e-05 -5.8543059e-04 1.8169693e-04 
-8.5189131e-05 -1.2300297e-03 1.7494957e-04 
-1.5494146e-04 -2.1448012e-03 3.1393068e-04 
-2.3645873e-04 -3.2452554e-03 1.4949219e-04 
-3.0466201e-04 -4.3184645e-03 2.7055127e-04 
-3.8177040e-04 -4.7955140e-03 2.1094478e-04 
-3.7734440e-04 -4.5640250e-03 1.4719905e-04 
-3.5435465e-04 -4.2520841e-03 1.5738087e-04 
-3.5193315e-04 -4.2415517e-03 1.1057925e-04 
-3.7442462e-04 -4.3491847e-03 -1.5685617e-05 
-3.1932144e-04 -4.0469719e-03 -1.8873632e-04 
-2.4850536e-04 -3.0056748e-03 -1.6982741e-04 
-1.4380332e-04 -1.8570154e-03 -3.0370909e-04 
-6.7078443e-05 -9.1203552e-04 -1.5944436e-04 
-3.1385742e-05 -2.9447424e-04 -1.9008598e-04 
-1.0045118e-05 3.8371065e-05 -1.3166908e-04 
2.3352963e-05 1.6663240e-04 -1.4912004e-04 
3.3880809e-05 1.7807177e-04 -1.2176064e-04 
5.2971787e-05 1.4170162e-04 -5.4632710e-05 
4.2933338e-05 9.5288240e-05 -8.8651068e-06 
9.4434054e-06 5.5323784e-05 5.0099938e-05 
-4.3228724e-06 2.7120037e-05 5.6665296e-05 
-1.4514516e-05 1.0835611e-05 4.8607631e-05 
-1.6366888e-05 3.7525981e-06 2.4607518e-05 
-1.0618892e-05 1.9660256e-06 1.2543749e-05 
-6.7556175e-06 1.7446437e-06 -6.2373306e-06 
9.3545276e-07 1.4879357e-06 -7.8583007e-06 
3.3444451e-06 5.1880642e-07 -1.1188852e-05 
2.3417545e-06 -1.9090432e-06 -3.9749175e-06 
8.3285607e-07 -4.8507573e-06 -1.1051080e-06 
9.3430873e-07 -7.2237412e-06 -1.0707138e-06 
6.9949294e-08 -7.2161647e-06 2.6661201e-06 
-3.9106851e-07 -3.9113133e-06 1.3399413e-06 
-5.1161226e-07 1.0664477e-06 2.5603853e-07 
-7.2899149e-07 5.3383442e-06 1.3919187e-06 
-1.2579692e-07 6.5827458e-06 -1.3472530e-06 
4.6946215e-07 4.0748591e-06 -6.5484846e-07 
5.2962821e-07 -1.5027746e-07 4.8663310e-07 
5.2378148e-08 -3.4208574e-06 -6.4294142e-07 
-2.4508046e-07 -4.1168691e-06 3.7961615e-07 
-1.5211135e-07 -2.2135862e-06 4.1633959e-07 
-1.5641345e-07 5.5666521e-07 -6.8926732e-07 
-2.9831020e-07 2.3744935e-06 6.2739031e-07 
2.5602429e-07 2.6089408e-06 -3.9658326e-07 
-2.0457965e-07 1.5729547e-06 -3.3162983e-08 
2.4982350e-07 9.8170752e-08 9.3673592e-08 
-1.8573483e-07 -1.0340627e-06 2.7148323e-07 
0.0000000e+00 6.1873834e-05 0.0000000e+00 
0.0000000e+00 6.5638305e-05 0.0000000e+00 
0.0000000e+00 7.5250551e-05 0.0000000e+00 
0.0000000e+00 8.6944936e-05 0.0000000e+00 
0.0000000e+00 9.7848788e-05 0.0000000e+00 
0.0000000e+00 1.0875773e-04 0.0000000e+00 
0.0000000e+00 1.2295206e-04 0.0000000e+00 
0.0000000e+00 1.4228876e-04 0.0000000e+00 
0.0000000e+00 1.6303596e-04 0.0000000e+00 
0.0000000e+00 1.7249056e-04 0.0000000e+00 
0.0000000e+00 1.4765123e-04 0.0000000e+00 
0.0000000e+00 5.5094388e-05 0.0000000e+00 
0.0000000e+00 -1.4814713e-04 0.0000000e+00 
0.0000000e+00 -5.1702163e-04 0.0000000e+00 
0.0000000e+00 -1.1089284e-03 0.0000000e+00 
0.0000000e+00 -1.9605651e-03 0.0000000e+00 
0.0000000e+00 -3.0304466e-03 0.0000000e+00 
0.0000000e+00 -4.1296729e-03 0.0000000e+00 
0.0000000e+00 -4.7736955e-03 0.0000000e+00 
0.0000000e+00 -4.6057743e-03 0.0000000e+00 
0.0000000e+00 -4.2633074e-03 0.0000000e+00 
0.0000000e+00 -4.1840537e-03 0.0000000e+00 
0.0000000e+00 -4.3191938e-03 0.0000000e+00 
0.0000000e+00 -4.1740262e-03 0.0000000e+00 
0.0000000e+00 -3.2452825e-03 0.0000000e+00 
0.0000000e+00 -2.0787446e-03 0.0000000e+00 
0.0000000e+00 -1.0753162e-03 0.0000000e+00 
0.0000000e+00 -3.8329331e-04 0.0000000e+00 
0.0000000e+00 6.8605118e-06 0.0000000e+00 
0.0000000e+00 1.7072551e-04 0.0000000e+00 
0.0000000e+00 1.9481133e-04 0.0000000e+00 
0.0000000e+00 1.5217486e-04 0.0000000e+00 
0.0000000e+00 9.1182119e-05 0.0000000e+00 
0.0000000e+00 3.8082599e-05 0.0000000e+00 
0.0000000e+00 3.0507167e-06 0.0000000e+00 
0.0000000e+00 -1.3117527e-05 0.0000000e+00 
0.0000000e+00 -1.4281823e-05 0.0000000e+00 
0.0000000e+00 -5.7803627e-06 0.0000000e+00 
0.0000000e+00 7.1715226e-06 0.0000000e+00 
0.0000000e+00 2.1540523e-05 0.0000000e+00 
0.0000000e+00 3.6009544e-05 0.0000000e+00 
0.0000000e+00 4.9290909e-05 0.0000000e+00 
0.0000000e+00 6.0280592e-05 0.0000000e+00 
0.0000000e+00 6.9740614e-05 0.0000000e+00 
0.0000000e+00 8.1787701e-05 0.0000000e+00 
0.0000000e+00 1.0067847e-04 0.0000000e+00 
0.0000000e+00 1.2712344e-04 0.0000000e+00 
0.0000000e+00 1.5720809e-04 0.0000000e+00 
0.0000000e+00 1.8262054e-04 0.0000000e+00 
0.0000000e+00 1.8901116e-04 0.0000000e+00 
0.0000000e+00 1.5464998e-04 0.0000000e+00 
0.0000000e+00 4.9091093e-05 0.0000000e+00 
0.0000000e+00 -1.7721573e-04 0.0000000e+00 
0.0000000e+00 -5.8657827e-04 0.0000000e+00 
0.0000000e+00 -1.2360491e-03 0.0000000e+00 
0.0000000e+00 -2.1520853e-03 0.0000000e+00 
0.0000000e+00 -3.2644849e-03 0.0000000e+00 
0.0000000e+00 -4.3376884e-03 0.0000000e+00 
0.0000000e+00 -4.8279432e-03 0.0000000e+00 
0.0000000e+00 -4.5849346e-03 0.0000000e+00 
0.0000000e+00 -4.2806095e-03 0.0000000e+00 
0.0000000e+00 -4.2608697e-03 0.0000000e+00 
0.0000000e+00 -4.3795560e-03 0.0000000e+00 
0.0000000e+00 -4.0680263e-03 0.0000000e+00 
0.0000000e+00 -3.0286335e-03 0.0000000e+00 
0.0000000e+00 -1.8666540e-03 0.0000000e+00 
0.0000000e+00 -9.1977627e-04 0.0000000e+00 
0.0000000e+00 -2.9607385e-04 0.0000000e+00 
0.0000000e+00 3.8488422e-05 0.0000000e+00 
0.0000000e+00 1.6782616e-04 0.0000000e+00 
0.0000000e+00 1.7975752e-04 0.0000000e+00 
0.0000000e+00 1.4276386e-04 0.0000000e+00 
0.0000000e+00 9.5767165e-05 0.0000000e+00 
0.0000000e+00 5.5533998e-05 0.0000000e+00 
0.0000000e+00 2.7270900e-05 0.0000000e+00 
0.0000000e+00 1.0906016e-05 0.0000000e+00 
0.0000000e+00 3.7461696e-06 0.0000000e+00 
0.0000000e+00 1.8576952e-06 0.0000000e+00 
0.0000000e+00 1.6907733e-06 0.0000000e+00 
0.0000000e+00 1.4884050e-06 0.0000000e+00 
0.0000000e+00 4.3766124e-07 0.0000000e+00 
0.0000000e+00 -1.9055501e-06 0.0000000e+00 
0.0000000e+00 -4.8622442e-06 0.0000000e+00 
0.0000000e+00 -7.1703548e-06 0.0000000e+00 
0.0000000e+00 -7.0965361e-06 0.0000000e+00 
0.0000000e+00 -3.9032016e-06 0.0000000e+00 
0.0000000e+00 1.0259887e-06 0.0000000e+00 
0.0000000e+00 5.2495557e-06 0.0000000e+00 
0.0000000e+00 6.4622764e-06 0.0000000e+00 
0.0000000e+00 4.0814111e-06 0.0000000e+00 
0.0000000e+00 -5.9020152e-08 0.0000000e+00 
0.0000000e+00 -3.3414490e-06 0.0000000e+00 
0.0000000e+00 -4.0617815e-06 0.0000000e+00 
0.0000000e+00 -2.2457964e-06 0.0000000e+00 
0.0000000e+00 4.7534513e-07 0.0000000e+00 
0.0000000e+00 2.3410767e-06 0.0000000e+00 
0.0000000e+00 2.6194991e-06 0.0000000e+00 
0.0000000e+00 1.6045159e-06 0.0000000e+00 
0.0000000e+00 1.2639948e-07 0.0000000e+00 
0.0000000e+00 -1.0398701e-06 0.0000000e+00 
0.0000000e+00 -1.4761769e-06 0.0000000e+00 
6.5901618e-06 -8.9783854e-05 2.0597288e-05 
3.9344548e-05 -9.2636103e-05 -6.9002399e-06 
8.3284125e-05 -3.8345199e-05 -1.8213113e-05 
7.5292613e-05 -1.2186991e-05 -1.9574270e-05 
0.0000000e+00 4.1242564e-04 0.0000000e+00 
0.0000000e+00 0.0000000e+00 0.0000000e+00 
0.0000000e+00 0.0000000e+00 0.0000000e+00 
0.0000000e+00 0.0000000e+00 0.0000000e+00 
0.0000000e+00 0.0000000e+00 0.0000000e+00 
0.0000000e+00 0.0000000e+00 0.0000000e+00 
0.0000000e+00 0.0000000e+00 0.0000000e+00 
0.0000000e+00 0.0000000e+00 0.0000000e+00 
0.0000000e+00 0.0000000e+00 0.0000000e+00 
0.0000000e+00 0.0000000e+00 0.0000000e+00 
0.0000000e+00 0.0000000e+00 0.0000000e+00 
0.0000000e+00 0.0000000e+00 0.0000000e+00 
0.0000000e+00 0.0000000e+00 0.0000000e+00 
0.0000000e+00 0.0000000e+00 0.0000000e+00 
0.0000000e+00 0.0000000e+00 0.0000000e+00 
0.0000000e+00 0.0000000e+00 0.0000000e+00 
0.0000000e+00 0.0000000e+00 0.0000000e+00 
0.0000000e+00 0.0000000e+00 0.0000000e+00 
0.0000000e+00 0.0000000e+00 0.0000000e+00 
0.0000000e+00 0.0000000e+00 0.0000000e+00 
0.0000000e+00 0.0000000e+00 0.0000000e+00 
0.0000000e+00 0.0000000e+00 0.0000000e+00 
0.0000000e+00 0.0000000e+00 0.0000000e+00 
0.0000000e+00 0.0000000e+00 0.0000000e+00 
0.0000000e+00 0.0000000e+00 0.0000000e+00 
0.0000000e+00 0.0000000e+00 0.0000000e+00 
0.0000000e+00 0.0000000e+00 0.0000000e+00 
0.0000000e+00 0.0000000e+00 0.0000000e+00 
0.0000000e+00 0.0000000e+00 0.0000000e+00 
0.0000000e+00 0.0000000e+00 0.0000000e+00 
0.0000000e+00 0.0000000e+00 0.0000000e+00 
0.0000000e+00 0.0000000e+00 0.0000000e+00 
0.0000000e+00 0.0000000e+00 0.0000000e+00 
0.0000000e+00 0.0000000e+00 0.0000000e+00 
0.0000000e+00 0.0000000e+00 0.0000000e+00 
0.0000000e+00 0.0000000e+00 0.0000000e+00 
0.0000000e+00 0.0000000e+00 0.0000000e+00 
0.0000000e+00 0.0000000e+00 0.0000000e+00 
0.0000000e+00 0.0000000e+00 0.0000000e+00 
0.0000000e+00 0.0000000e+00 0.0000000e+00 
0.0000000e+00 0.0000000e+00 0.0000000e+00 
0.0000000e+00 0.0000000e+00 0.0000000e+00 
0.0000000e+00 0.0000000e+00 0.0000000e+00 
0.0000000e+00 0.0000000e+00 0.0000000e+00 
0.0000000e+00 0.0000000e+00 0.0000000e+00 
0.0000000e+00 0.0000000e+00 0.0000000e+00 
0.0000000e+00 0.0000000e+00 0.0000000e+00 
0.0000000e+00 0.0000000e+00 0.0000000e+00 
0.0000000e+00 0.0000000e+00 0.0000000e+00 
0.0000000e+00 0.0000000e+00 0.0000000e+00 
0.0000000e+00 0.0000000e+00 0.0000000e+00 
0.0000000e+00 0.0000000e+00 0.0000000e+00 
0.0000000e+00 0.0000000e+00 0.0000000e+00 
0.0000000e+00 0.0000000e+00 0.0000000e+00 
0.0000000e+00 0.0000000e+00 0.0000000e+00 
0.0000000e+00 0.0000000e+00 0.0000000e+00 
0.0000000e+00 0.0000000e+00 0.0000000e+00 
0.0000000e+00 0.0000000e+00 0.0000000e+00 
0.0000000e+00 0.0000000e+00 0.0000000e+00 
0.0000000e+00 0.0000000e+00 0.0000000e+00 
0.0000000e+00 0.0000000e+00 0.0000000e+00 
0.0000000e+00 0.0000000e+00 0.0000000e+00 
0.0000000e+00 0.0000000e+00 0.0000000e+00 
0.0000000e+00 0.0000000e+00 0.0000000e+00 
0.0000000e+00 0.0000000e+00 0.0000000e+00 
0.0000000e+00 0.0000000e+00 0.0000000e+00 
0.0000000e+00 0.0000000e+00 0.0000000e+00 
0.0000000e+00 0.0000000e+00 0.0000000e+00 
0.0000000e+00 0.0000000e+00 0.0000000e+00 
0.0000000e+00 0.0000000e+00 0.0000000e+00 
0.0000000e+00 0.0000000e+00 0.0000000e+00 
0.0000000e+00 0.0000000e+00 0.0000000e+00 
0.0000000e+00 0.0000000e+00 0.0000000e+00 
0.0000000e+00 0.0000000e+00 0.0000000e+00 
0.0000000e+00 0.0000000e+00 0.0000000e+00 
0.0000000e+00 0.0000000e+00 0.0000000e+00 
0.0000000e+00 0.0000000e+00 0.0000000e+00 
0.0000000e+00 0.0000000e+00 0.0000000e+00 
0.0000000e+00 0.0000000e+00 0.0000000e+00 
0.0000000e+00 0.0000000e+00 0.0000000e+00 
0.0000000e+00 0.0000000e+00 0.0000000e+00 
0.0000000e+00 0.0000000e+00 0.0000000e+00 
0.0000000e+00 0.0000000e+00 0.0000000e+00 
0.0000000e+00 0.0000000e+00 0.0000000e+00 
0.0000000e+00 0.0000000e+00 0.0000000e+00 
0.0000000e+00 0.0000000e+00 0.0000000e+00 
0.0000000e+00 0.0000000e+00 0.0000000e+00 
0.0000000e+00 0.0000000e+00 0.0000000e+00 
0.0000000e+00 0.0000000e+00 0.0000000e+00 
0.0000000e+00 0.0000000e+00 0.0000000e+00 
0.0000000e+00 0.0000000e+00 0.0000000e+00 
0.0000000e+00 0.0000000e+00 0.0000000e+00 
0.0000000e+00 0.0000000e+00 0.0000000e+00 
0.0000000e+00 0.0000000e+00 0.0000000e+00 
0.0000000e+00 0.0000000e+00 0.0000000e+00 
0.0000000e+00 0.0000000e+00 0.0000000e+00 
0.0000000e+00 0.0000000e+00 0.0000000e+00 
0.0000000e+00 0.0000000e+00 0.0000000e+00 
0.0000000e+00 0.0000000e+00 0.0000000e+00 
0.0000000e+00 0.0000000e+00 0.0000000e+00 
0.0000000e+00 0.0000000e+00 0.0000000e+00 
0.0000000e+00 0.0000000e+00 0.0000000e+00 
0.0000000e+00 0.0000000e+00 0.0000000e+00 
0.0000000e+00 0.0000000e+00 0.0000000e+00 
0.0000000e+00 0.0000000e+00 0.0000000e+00 
0.0000000e+00 0.0000000e+00 0.0000000e+00 
0.0000000e+00 0.0000000e+00 0.0000000e+00 
6.0072989e-06 7.2898415e-06 -1.2559228e-06 
1.4370810e-05 6.7261954e-06 -1.3396479e-05 
1.9532950e-05 5.3851331e-06 -2.2413067e-05 
2.6242487e-05 -7.8077419e-06 -2.6147758e-05 
3.4003508e-05 -1.7859616e-05 -2.0013382e-05 
4.3580709e-05 -2.0811398e-05 -1.3901119e-05 
5.4706332e-05 -2.2099171e-05 -4.6994646e-06 
6.1951039e-05 -2.1801257e-05 6.1971768e-06 
6.6804365e-05 -8.0105610e-06 1.8874569e-05 
6.5411579e-05 8.5607744e-06 2.2487169e-05 
5.2400181e-05 3.4308796e-06 1.3694096e-05 
3.4464614e-05 -4.2744573e-06 1.9950533e-06 
1.3575190e-05 -3.5044043e-06 -1.6566521e-05 
1.7640172e-06 7.6624588e-07 -2.4150839e-05 
-9.2186947e-06 -2.0318453e-06 -1.7434697e-05 
-1.0694526e-05 5.5943525e-07 -9.1015221e-07 
-8.4232670e-06 1.1234544e-06 1.9686562e-05 
-4.3240020e-06 4.4523385e-06 2.7643324e-05 
-1.3680856e-06 5.3994554e-06 2.5515496e-05 
3.1433410e-06 -5.5315371e-07 1.4565003e-05 
6.5975205e-06 2.2590489e-06 -1.2914417e-06 
1.0387528e-05 7.7399645e-06 -1.4328630e-05 
2.1317104e-05 3.4951026e-06 -2.3703125e-05 
4.0441733e-05 -3.5626144e-06 -2.4767769e-05 
5.2958796e-05 -1.4519816e-05 -1.7942028e-05 
5.8059322e-05 -1.5779338e-05 -9.2822529e-06 
6.0503262e-05 -1.5678890e-05 1.9553331e-06 
6.3239640e-05 -1.8952609e-05 1.2827304e-05 
6.5692715e-05 -1.2292173e-05 1.7628698e-05 
6.2242259e-05 2.3616471e-06 2.1374968e-05 
4.8027796e-05 9.4245543e-06 1.3111247e-05 
2.6600293e-05 -6.3396706e-06 1.9930367e-06 
8.7482631e-06 -3.2357113e-06 -1.1969276e-05 
-4.2260308e-06 -1.9893689e-06 -2.2439743e-05 
-8.4153971e-06 -1.1256394e-06 -1.9707337e-05 
-8.6358250e-06 1.6942006e-06 -7.1466361e-06 
-1.0113118e-06 5.2573146e-06 1.4131306e-06 
2.3593102e-06 6.4677027e-07 8.1220178e-06 
2.2817094e-06 -1.6398086e-06 9.2223017e-06 
7.6532638e-07 -2.4545093e-06 4.1587905e-06 
-1.6208134e-07 -2.0898483e-06 -9.8383532e-07 
7.7202668e-07 -2.2197840e-07 -1.0922301e-06 
-4.8438363e-07 1.8176222e-06 2.3068885e-07 
-5.3399793e-07 4.2678823e-07 3.4479032e-07 
2.9261113e-07 -1.0066340e-06 4.5612569e-07 
1.7710761e-07 -3.5018263e-07 3.5553331e-08 
-3.2639218e-09 1.8065495e-07 -4.4139006e-07 
-1.3032303e-07 3.0786876e-07 -1.6771203e-07 
9.5723578e-08 -4.0042806e-07 1.5422775e-07 
0.0000000e+00 2.2570361e-05 0.0000000e+00 
0.0000000e+00 9.9094847e-05 0.0000000e+00 
0.0000000e+00 1.6478672e-04 0.0000000e+00 
0.0000000e+00 2.0259392e-04 0.0000000e+00 
0.0000000e+00 2.1169228e-04 0.0000000e+00 
0.0000000e+00 1.6810255e-04 0.0000000e+00 
0.0000000e+00 2.4495408e-05 0.0000000e+00 
0.0000000e+00 -1.4943513e-04 0.0000000e+00 
0.0000000e+00 -2.9195368e-04 0.0000000e+00 
0.0000000e+00 -3.8477071e-04 0.0000000e+00 
0.0000000e+00 -3.9042978e-04 0.0000000e+00 
0.0000000e+00 -3.2103280e-04 0.0000000e+00 
0.0000000e+00 -1.6359299e-04 0.0000000e+00 
0.0000000e+00 -5.5039833e-05 0.0000000e+00 
0.0000000e+00 -2.2453737e-06 0.0000000e+00 
0.0000000e+00 4.5577035e-05 0.0000000e+00 
0.0000000e+00 3.7915554e-05 0.0000000e+00 
0.0000000e+00 -1.9709540e-05 0.0000000e+00 
0.0000000e+00 -3.4398017e-05 0.0000000e+00 
0.0000000e+00 -1.0771946e-05 0.0000000e+00 
0.0000000e+00 4.3727483e-05 0.0000000e+00 
0.0000000e+00 9.5462878e-05 0.0000000e+00 
0.0000000e+00 1.3968596e-04 0.0000000e+00 
0.0000000e+00 1.8391425e-04 0.0000000e+00 
0.0000000e+00 1.8366288e-04 0.0000000e+00 
0.0000000e+00 1.5148366e-04 0.0000000e+00 
0.0000000e+00 1.5581012e-05 0.0000000e+00 
0.0000000e+00 -1.3767941e-04 0.0000000e+00 
0.0000000e+00 -2.4446569e-04 0.0000000e+00 
0.0000000e+00 -3.3025668e-04 0.0000000e+00 
0.0000000e+00 -3.9747747e-04 0.0000000e+00 
0.0000000e+00 -3.3971778e-04 0.0000000e+00 
0.0000000e+00 -1.7106951e-04 0.0000000e+00 
0.0000000e+00 -4.3066404e-05 0.0000000e+00 
0.0000000e+00 4.8096773e-08 0.0000000e+00 
0.0000000e+00 3.8161681e-05 0.0000000e+00 
0.0000000e+00 2.2930293e-05 0.0000000e+00 
0.0000000e+00 6.8024821e-07 0.0000000e+00 
0.0000000e+00 -1.0221464e-05 0.0000000e+00 
0.0000000e+00 -7.0669798e-06 0.0000000e+00 
0.0000000e+00 4.8363227e-06 0.0000000e+00 
0.0000000e+00 2.2385964e-06 0.0000000e+00 
0.0000000e+00 -9.7373413e-07 0.0000000e+00 
0.0000000e+00 -4.1471478e-07 0.0000000e+00 
0.0000000e+00 6.7933058e-07 0.0000000e+00 
0.0000000e+00 -5.5813498e-08 0.0000000e+00 
0.0000000e+00 -4.4161195e-07 0.0000000e+00 
0.0000000e+00 9.2045349e-07 0.0000000e+00 
0.0000000e+00 5.3595198e-07 0.0000000e+00 
1.8506691e-07 9.8537075e-06 9.4257490e-07 
6.4862415e-06 1.4808744e-05 3.8273652e-06 
1.0385742e-05 1.2666213e-05 1.1044701e-05 
5.1691977e-06 4.8531092e-07 7.6955503e-06 
9.8215423e-08 -1.9330390e-07 6.7895201e-08 
-2.3163594e-08 2.1445288e-07 1.4550119e-07 
-7.4914517e-08 2.5602313e-07 -1.7325564e-07 
1.0027853e-07 2.7963445e-09 -5.1718445e-08 
9.3339631e-06 1.8200437e-05 -6.5002291e-06 
1.6669448e-07 3.9458424e-08 1.0522906e-08 
-4.3548840e-07 1.2879185e-05 -5.6088024e-06 
7.1373529e-06 1.9786352e-05 -1.7224259e-07 
0.0000000e+00 3.3509099e-05 0.0000000e+00 
0.0000000e+00 1.4244669e-04 0.0000000e+00 
0.0000000e+00 2.6822131e-04 0.0000000e+00 
0.0000000e+00 3.4790428e-04 0.0000000e+00 
0.0000000e+00 3.7517087e-04 0.0000000e+00 
0.0000000e+00 2.6654458e-04 0.0000000e+00 
0.0000000e+00 -1.7010283e-05 0.0000000e+00 
0.0000000e+00 -4.0670182e-04 0.0000000e+00 
0.0000000e+00 -7.1439461e-04 0.0000000e+00 
0.0000000e+00 -8.4494264e-04 0.0000000e+00 
0.0000000e+00 -9.0517523e-04 0.0000000e+00 
0.0000000e+00 -6.8248558e-04 0.0000000e+00 
0.0000000e+00 -3.0490287e-04 0.0000000e+00 
0.0000000e+00 -9.0323010e-05 0.0000000e+00 