# vtk DataFile Version 4.0
vtk output
ASCII
DATASET UNSTRUCTURED_GRID
POINTS 1920 float
0.0000000e+00 0.0000000e+00 0.0000000e+00 
0.0000000e+00 0.0000000e+00 5.0000000e+01 
5.0000000e+00 0.0000000e+00 0.0000000e+00 
5.0000000e+00 0.0000000e+00 5.0000000e+01 
5.0000000e+00 1.0000000e+00 0.0000000e+00 
5.0000000e+00 1.0000000e+00 5.0000000e+01 
0.0000000e+00 1.0000000e+00 0.0000000e+00 
0.0000000e+00 1.0000000e+00 5.0000000e+01 
5.0000000e+00 2.0000000e+00 0.0000000e+00 
5.0000000e+00 2.0000000e+00 5.0000000e+01 
3.0000000e+00 2.0000000e+00 0.0000000e+00 
3.0000000e+00 2.0000000e+00 5.0000000e+01 
0.0000000e+00 2.0000000e+00 0.0000000e+00 
0.0000000e+00 2.0000000e+00 5.0000000e+01 
1.5000000e+00 3.0000000e+00 0.0000000e+00 
1.5000000e+00 3.0000000e+00 5.0000000e+01 
7.5000000e-01 3.0000000e+00 0.0000000e+00 
7.5000000e-01 3.0000000e+00 5.0000000e+01 
0.0000000e+00 3.0000000e+00 0.0000000e+00 
0.0000000e+00 3.0000000e+00 5.0000000e+01 
7.5000000e-01 3.0000000e+00 5.0000000e-01 
7.5000000e-01 3.0000000e+00 1.0000000e+00 
7.5000000e-01 3.0000000e+00 1.5000000e+00 
7.5000000e-01 3.0000000e+00 2.0000000e+00 
7.5000000e-01 3.0000000e+00 2.5000000e+00 
7.5000000e-01 3.0000000e+00 3.0000000e+00 
7.5000000e-01 3.0000000e+00 3.5000000e+00 
7.5000000e-01 3.0000000e+00 4.0000000e+00 
7.5000000e-01 3.0000000e+00 4.5000000e+00 
7.5000000e-01 3.0000000e+00 5.0000000e+00 
7.5000000e-01 3.0000000e+00 5.5000000e+00 
7.5000000e-01 3.0000000e+00 6.0000000e+00 
7.5000000e-01 3.0000000e+00 6.5000000e+00 
7.5000000e-01 3.0000000e+00 7.0000000e+00 
7.5000000e-01 3.0000000e+00 7.5000000e+00 
7.5000000e-01 3.0000000e+00 8.0000000e+00 
7.5000000e-01 3.0000000e+00 8.5000000e+00 
7.5000000e-01 3.0000000e+00 9.0000000e+00 
7.5000000e-01 3.0000000e+00 9.5000000e+00 
7.5000000e-01 3.0000000e+00 1.0000000e+01 
7.5000000e-01 3.0000000e+00 1.0500000e+01 
7.5000000e-01 3.0000000e+00 1.1000000e+01 
7.5000000e-01 3.0000000e+00 1.1500000e+01 
7.5000000e-01 3.0000000e+00 1.2000000e+01 
7.5000000e-01 3.0000000e+00 1.2500000e+01 
7.5000000e-01 3.0000000e+00 1.3000000e+01 
7.5000000e-01 3.0000000e+00 1.3500000e+01 
7.5000000e-01 3.0000000e+00 1.4000000e+01 
7.5000000e-01 3.0000000e+00 1.4500000e+01 
7.5000000e-01 3.0000000e+00 1.5000000e+01 
7.5000000e-01 3.0000000e+00 1.5500000e+01 
7.5000000e-01 3.0000000e+00 1.6000000e+01 
7.5000000e-01 3.0000000e+00 1.6500000e+01 
7.5000000e-01 3.0000000e+00 1.7000000e+01 
7.5000000e-01 3.0000000e+00 1.7500000e+01 
7.5000000e-01 3.0000000e+00 1.8000000e+01 
7.5000000e-01 3.0000000e+00 1.8500000e+01 
7.5000000e-01 3.0000000e+00 1.9000000e+01 
7.5000000e-01 3.0000000e+00 1.9500000e+01 
7.5000000e-01 3.0000000e+00 2.0000000e+01 
7.5000000e-01 3.0000000e+00 2.0500000e+01 
7.5000000e-01 3.0000000e+00 2.1000000e+01 
7.5000000e-01 3.0000000e+00 2.1500000e+01 
7.5000000e-01 3.0000000e+00 2.2000000e+01 
7.5000000e-01 3.0000000e+00 2.2500000e+01 
7.5000000e-01 3.0000000e+00 2.3000000e+01 
7.5000000e-01 3.0000000e+00 2.3500000e+01 
7.5000000e-01 3.0000000e+00 2.4000000e+01 
7.5000000e-01 3.0000000e+00 2.4500000e+01 
7.5000000e-01 3.0000000e+00 2.5000000e+01 
7.5000000e-01 3.0000000e+00 2.5500000e+01 
7.5000000e-01 3.0000000e+00 2.6000000e+01 
7.5000000e-01 3.0000000e+00 2.6500000e+01 
7.5000000e-01 3.0000000e+00 2.7000000e+01 
7.5000000e-01 3.0000000e+00 2.7500000e+01 
7.5000000e-01 3.0000000e+00 2.8000000e+01 
7.5000000e-01 3.0000000e+00 2.8500000e+01 
7.5000000e-01 3.0000000e+00 2.9000000e+01 
7.5000000e-01 3.0000000e+00 2.9500000e+01 
7.5000000e-01 3.0000000e+00 3.0000000e+01 
7.5000000e-01 3.0000000e+00 3.0500000e+01 
7.5000000e-01 3.0000000e+00 3.1000000e+01 
7.5000000e-01 3.0000000e+00 3.1500000e+01 
7.5000000e-01 3.0000000e+00 3.2000000e+01 
7.5000000e-01 3.0000000e+00 3.2500000e+01 
7.5000000e-01 3.0000000e+00 3.3000000e+01 
7.5000000e-01 3.0000000e+00 3.3500000e+01 
7.5000000e-01 3.0000000e+00 3.4000000e+01 
7.5000000e-01 3.0000000e+00 3.4500000e+01 
7.5000000e-01 3.0000000e+00 3.5000000e+01 
7.5000000e-01 3.0000000e+00 3.5500000e+01 
7.5000000e-01 3.0000000e+00 3.6000000e+01 
7.5000000e-01 3.0000000e+00 3.6500000e+01 
7.5000000e-01 3.0000000e+00 3.7000000e+01 
7.5000000e-01 3.0000000e+00 3.7500000e+01 
7.5000000e-01 3.0000000e+00 3.8000000e+01 
7.5000000e-01 3.0000000e+00 3.8500000e+01 
7.5000000e-01 3.0000000e+00 3.9000000e+01 
7.5000000e-01 3.0000000e+00 3.9500000e+01 
7.5000000e-01 3.0000000e+00 4.0000000e+01 
7.5000000e-01 3.0000000e+00 4.0500000e+01 
7.5000000e-01 3.0000000e+00 4.1000000e+01 
7.5000000e-01 3.0000000e+00 4.1500000e+01 
7.5000000e-01 3.0000000e+00 4.2000000e+01 
7.5000000e-01 3.0000000e+00 4.2500000e+01 
7.5000000e-01 3.0000000e+00 4.3000000e+01 
7.5000000e-01 3.0000000e+00 4.3500000e+01 
7.5000000e-01 3.0000000e+00 4.4000000e+01 
7.5000000e-01 3.0000000e+00 4.4500000e+01 
7.5000000e-01 3.0000000e+00 4.5000000e+01 
7.5000000e-01 3.0000000e+00 4.5500000e+01 
7.5000000e-01 3.0000000e+00 4.6000000e+01 
7.5000000e-01 3.0000000e+00 4.6500000e+01 
7.5000000e-01 3.0000000e+00 4.7000000e+01 
7.5000000e-01 3.0000000e+00 4.7500000e+01 
7.5000000e-01 3.0000000e+00 4.8000000e+01 
7.5000000e-01 3.0000000e+00 4.8500000e+01 
7.5000000e-01 3.0000000e+00 4.9000000e+01 
7.5000000e-01 3.0000000e+00 4.9500000e+01 
7.5000000e-01 3.0250001e+00 0.0000000e+00 
7.5000000e-01 3.0250001e+00 5.0000000e-01 
7.5000000e-01 3.0250001e+00 1.0000000e+00 
7.5000000e-01 3.0250001e+00 1.5000000e+00 
7.5000000e-01 3.0250001e+00 2.0000000e+00 
7.5000000e-01 3.0250001e+00 2.5000000e+00 
7.5000000e-01 3.0250001e+00 3.0000000e+00 
7.5000000e-01 3.0250001e+00 3.5000000e+00 
7.5000000e-01 3.0250001e+00 4.0000000e+00 
7.5000000e-01 3.0250001e+00 4.5000000e+00 
7.5000000e-01 3.0250001e+00 5.0000000e+00 
7.5000000e-01 3.0250001e+00 5.5000000e+00 
7.5000000e-01 3.0250001e+00 6.0000000e+00 
7.5000000e-01 3.0250001e+00 6.5000000e+00 
7.5000000e-01 3.0250001e+00 7.0000000e+00 
7.5000000e-01 3.0250001e+00 7.5000000e+00 
7.5000000e-01 3.0250001e+00 8.0000000e+00 
7.5000000e-01 3.0250001e+00 8.5000000e+00 
7.5000000e-01 3.0250001e+00 9.0000000e+00 
7.5000000e-01 3.0250001e+00 9.5000000e+00 
7.5000000e-01 3.0250001e+00 1.0000000e+01 
7.5000000e-01 3.0250001e+00 1.0500000e+01 
7.5000000e-01 3.0250001e+00 1.1000000e+01 
7.5000000e-01 3.0250001e+00 1.1500000e+01 
7.5000000e-01 3.0250001e+00 1.2000000e+01 
7.5000000e-01 3.0250001e+00 1.2500000e+01 
7.5000000e-01 3.0250001e+00 1.3000000e+01 
7.5000000e-01 3.0250001e+00 1.3500000e+01 
7.5000000e-01 3.0250001e+00 1.4000000e+01 
7.5000000e-01 3.0250001e+00 1.4500000e+01 
7.5000000e-01 3.0250001e+00 1.5000000e+01 
7.5000000e-01 3.0250001e+00 1.5500000e+01 
7.5000000e-01 3.0250001e+00 1.6000000e+01 
7.5000000e-01 3.0250001e+00 1.6500000e+01 
7.5000000e-01 3.0250001e+00 1.7000000e+01 
7.5000000e-01 3.0250001e+00 1.7500000e+01 
7.5000000e-01 3.0250001e+00 1.8000000e+01 
7.5000000e-01 3.0250001e+00 1.8500000e+01 
7.5000000e-01 3.0250001e+00 1.9000000e+01 
7.5000000e-01 3.0250001e+00 1.9500000e+01 
7.5000000e-01 3.0250001e+00 2.0000000e+01 
7.5000000e-01 3.0250001e+00 2.0500000e+01 
7.5000000e-01 3.0250001e+00 2.1000000e+01 
7.5000000e-01 3.0250001e+00 2.1500000e+01 
7.5000000e-01 3.0250001e+00 2.2000000e+01 
7.5000000e-01 3.0250001e+00 2.2500000e+01 
7.5000000e-01 3.0250001e+00 2.3000000e+01 
7.5000000e-01 3.0250001e+00 2.3500000e+01 
7.5000000e-01 3.0250001e+00 2.4000000e+01 
7.5000000e-01 3.0250001e+00 2.4500000e+01 
7.5000000e-01 3.0250001e+00 2.5000000e+01 
7.5000000e-01 3.0250001e+00 2.5500000e+01 
7.5000000e-01 3.0250001e+00 2.6000000e+01 
7.5000000e-01 3.0250001e+00 2.6500000e+01 
7.5000000e-01 3.0250001e+00 2.7000000e+01 
7.5000000e-01 3.0250001e+00 2.7500000e+01 
7.5000000e-01 3.0250001e+00 2.8000000e+01 
7.5000000e-01 3.0250001e+00 2.8500000e+01 
7.5000000e-01 3.0250001e+00 2.9000000e+01 
7.5000000e-01 3.0250001e+00 2.9500000e+01 
7.5000000e-01 3.0250001e+00 3.0000000e+01 
7.5000000e-01 3.0250001e+00 3.0500000e+01 
7.5000000e-01 3.0250001e+00 3.1000000e+01 
7.5000000e-01 3.0250001e+00 3.1500000e+01 
7.5000000e-01 3.0250001e+00 3.2000000e+01 
7.5000000e-01 3.0250001e+00 3.2500000e+01 
7.5000000e-01 3.0250001e+00 3.3000000e+01 
7.5000000e-01 3.0250001e+00 3.3500000e+01 
7.5000000e-01 3.0250001e+00 3.4000000e+01 
7.5000000e-01 3.0250001e+00 3.4500000e+01 
7.5000000e-01 3.0250001e+00 3.5000000e+01 
7.5000000e-01 3.0250001e+00 3.5500000e+01 
7.5000000e-01 3.0250001e+00 3.6000000e+01 
7.5000000e-01 3.0250001e+00 3.6500000e+01 
7.5000000e-01 3.0250001e+00 3.7000000e+01 
7.5000000e-01 3.0250001e+00 3.7500000e+01 
7.5000000e-01 3.0250001e+00 3.8000000e+01 
7.5000000e-01 3.0250001e+00 3.8500000e+01 
7.5000000e-01 3.0250001e+00 3.9000000e+01 
7.5000000e-01 3.0250001e+00 3.9500000e+01 
7.5000000e-01 3.0250001e+00 4.0000000e+01 
7.5000000e-01 3.0250001e+00 4.0500000e+01 
7.5000000e-01 3.0250001e+00 4.1000000e+01 
7.5000000e-01 3.0250001e+00 4.1500000e+01 
7.5000000e-01 3.0250001e+00 4.2000000e+01 
7.5000000e-01 3.0250001e+00 4.2500000e+01 
7.5000000e-01 3.0250001e+00 4.3000000e+01 
7.5000000e-01 3.0250001e+00 4.3500000e+01 
7.5000000e-01 3.0250001e+00 4.4000000e+01 
7.5000000e-01 3.0250001e+00 4.4500000e+01 
7.5000000e-01 3.0250001e+00 4.5000000e+01 
7.5000000e-01 3.0250001e+00 4.5500000e+01 
7.5000000e-01 3.0250001e+00 4.6000000e+01 
7.5000000e-01 3.0250001e+00 4.6500000e+01 
7.5000000e-01 3.0250001e+00 4.7000000e+01 
7.5000000e-01 3.0250001e+00 4.7500000e+01 
7.5000000e-01 3.0250001e+00 4.8000000e+01 
7.5000000e-01 3.0250001e+00 4.8500000e+01 
7.5000000e-01 3.0250001e+00 4.9000000e+01 
7.5000000e-01 3.0250001e+00 4.9500000e+01 
7.5000000e-01 3.0250001e+00 5.0000000e+01 
1.5000000e+00 3.0000000e+00 2.5000000e+01 
3.0000000e+00 2.0000000e+00 2.5000000e+01 
4.0000000e+00 2.0000000e+00 2.5000000e+01 
5.0000000e+00 2.0000000e+00 2.5000000e+01 
0.0000000e+00 3.0000000e+00 2.5000000e+01 
0.0000000e+00 0.0000000e+00 1.0000000e+00 
0.0000000e+00 0.0000000e+00 2.0000000e+00 
0.0000000e+00 0.0000000e+00 3.0000000e+00 
0.0000000e+00 0.0000000e+00 4.0000000e+00 
0.0000000e+00 0.0000000e+00 5.0000000e+00 
[...]
POINT_DATA 1920
FIELD FieldData 3
DISPLACEMENT 3 1920  float
0.0000000e+00 0.0000000e+00 0.0000000e+00 
0.0000000e+00 0.0000000e+00 0.0000000e+00 
0.0000000e+00 0.0000000e+00 0.0000000e+00 
0.0000000e+00 0.0000000e+00 0.0000000e+00 
5.0449472e-07 -3.1633084e-07 -7.4838732e-07 
2.2197626e-06 -3.5378698e-06 7.7170371e-06 
0.0000000e+00 -3.7873733e-06 0.0000000e+00 
0.0000000e+00 1.4463333e-05 0.0000000e+00 
1.0513060e-07 -1.2650179e-07 -6.3108780e-07 
2.9194493e-06 -2.7963270e-06 1.1109239e-05 
-6.9699496e-08 -1.0543533e-06 -2.0853763e-06 
3.4648072e-06 1.1569227e-07 1.1010856e-05 
0.0000000e+00 -4.2122820e-06 0.0000000e+00 
0.0000000e+00 2.7014536e-05 0.0000000e+00 
-2.7982645e-07 5.5802860e-07 -3.5998264e-06 
2.0959927e-05 2.4225132e-05 -1.4494510e-07 
-4.0828763e-06 3.1582356e-06 -6.4099149e-06 
2.0465738e-07 2.1247487e-04 -1.2262644e-05 
0.0000000e+00 1.5465997e-06 0.0000000e+00 
0.0000000e+00 -1.2764353e-06 0.0000000e+00 
-6.2732278e-07 2.0342434e-06 -4.0568889e-06 
4.4274992e-07 -7.7305981e-07 -2.8832062e-06 
8.0246446e-07 -4.2081178e-06 -3.7970283e-06 
-4.3609822e-07 -7.4682494e-06 -5.1498059e-06 
-1.2194957e-06 -9.7051243e-06 -5.8221144e-06 
-2.0312038e-06 -1.0586011e-05 -5.2842302e-06 
-3.0150281e-06 -1.0028502e-05 -4.0611412e-06 
-2.4957355e-06 -8.4908734e-06 -5.9078633e-07 
-1.2903905e-06 -6.5677632e-06 1.1326508e-06 
-1.6061595e-06 -4.7432131e-06 4.5479728e-06 
-3.4169279e-06 -3.4469792e-06 6.0986613e-06 
-5.6390600e-06 -2.8632976e-06 8.0741747e-06 
-7.8741923e-06 -3.1106231e-06 9.0071744e-06 
-9.3173076e-06 -4.1979965e-06 8.9240712e-06 
-1.0442143e-05 -5.8310293e-06 8.6931195e-06 
-1.0559341e-05 -7.5734106e-06 7.9112933e-06 
-1.0576298e-05 -8.8342913e-06 7.2124749e-06 
-9.9364070e-06 -9.2617302e-06 5.6303243e-06 
-7.5799139e-06 -8.6958380e-06 3.6957777e-06 
-6.3847592e-06 -7.5389989e-06 1.7750630e-06 
-3.3306999e-06 -6.1647920e-06 2.4720209e-06 
-2.4570252e-06 -5.0429967e-06 3.5527155e-06 
-2.1059780e-06 -4.2919451e-06 3.6273389e-06 
-2.6405257e-06 -3.6541069e-06 2.8299528e-06 
-2.5911877e-06 -2.8416935e-06 8.7216750e-07 
-4.0043946e-07 -1.6853475e-06 -1.5816811e-06 
2.6929247e-06 -8.0936616e-08 -1.6332148e-06 
2.0396310e-06 2.0099235e-06 -2.5751203e-07 
2.0608145e-06 4.8838756e-06 1.6733151e-06 
1.5180145e-06 9.0894646e-06 3.0550405e-06 
2.4202407e-06 1.5364005e-05 1.5932109e-06 
3.6319479e-06 2.4410056e-05 2.5046262e-07 
5.3523977e-06 3.6769983e-05 -6.8934975e-07 
1.1414407e-05 5.2145082e-05 -3.0477517e-07 
8.7241415e-06 6.8712819e-05 1.1423518e-05 
5.9591384e-06 8.2585648e-05 2.0832595e-05 
2.4506573e-06 8.4645792e-05 3.4490244e-05 
-2.2967261e-06 5.5450248e-05 4.7447469e-05 
-1.0429692e-05 -3.6361158e-05 8.4443578e-05 
-2.0396103e-05 -2.3813041e-04 9.4045390e-05 
-5.1091887e-05 -6.1000895e-04 1.7364639e-04 
-7.9809601e-05 -1.2098780e-03 1.3581270e-04 
-1.5027401e-04 -2.0798782e-03 2.4291135e-04 
-1.7797468e-04 -3.1690919e-03 1.6742838e-04 
-3.5199703e-04 -4.2934706e-03 1.8619464e-04 
-2.6228029e-04 -4.9589481e-03 6.1236402e-05 
-3.0804687e-04 -4.8459121e-03 -4.7957408e-05 
-2.3377581e-04 -4.5090690e-03 2.0287754e-07 
-2.4752168e-04 -4.4164648e-03 -1.1446870e-05 
-1.5070107e-04 -4.5130919e-03 -1.2195710e-04 
-2.2130979e-04 -4.3504573e-03 -1.9435388e-04 
-2.2127604e-04 -3.3724303e-03 -1.7278030e-04 
-1.5208102e-04 -2.1628367e-03 -3.0248630e-04 
-9.0884023e-05 -1.1129729e-03 -1.5674600e-04 
-3.1407173e-05 -3.9683242e-04 -1.8169965e-04 
1.8788604e-07 1.1197557e-05 -8.0404359e-05 
1.5816031e-05 1.8363395e-04 -5.0330516e-05 
1.8877707e-05 2.1182615e-04 -1.2420212e-05 
1.4054473e-05 1.7104203e-04 1.2315815e-05 
7.6094821e-06 1.0870538e-04 1.5790554e-05 
7.4437719e-07 5.3442411e-05 2.5514732e-05 
-3.2512187e-06 1.4165602e-05 2.1432908e-05 
-5.8903233e-06 -7.6149445e-06 2.1727130e-05 
-6.1362693e-06 -1.6027230e-05 1.7532851e-05 
-8.0227082e-06 -1.5617890e-05 1.3110197e-05 
-8.1099670e-06 -1.0658820e-05 8.7295548e-06 
-6.0847310e-06 -4.1967087e-06 4.2579563e-06 
-3.8072149e-06 1.9511531e-06 2.8140112e-06 
-2.7384735e-06 7.3450369e-06 1.0833719e-06 
-3.1301463e-06 1.2691112e-05 1.5099450e-06 
-1.9444919e-06 1.9426447e-05 -1.4683087e-06 
-5.4564191e-07 2.8986296e-05 -3.2089590e-06 
4.0113391e-06 4.2502415e-05 -5.0918743e-06 
7.9209613e-06 5.9834674e-05 5.8097061e-07 
9.7445791e-06 7.8987308e-05 7.5957155e-06 
1.6808364e-05 9.3878596e-05 2.2030985e-05 
4.0979371e-06 9.1337308e-05 3.7616075e-05 
8.4226616e-07 5.0839011e-05 4.8679194e-05 
-1.2051220e-05 -6.2634695e-05 9.1600035e-05 
-2.4028421e-05 -2.9929561e-04 1.0001926e-04 
-5.9161899e-05 -7.2133058e-04 1.8771370e-04 
-8.3196697e-05 -1.3825623e-03 1.4640109e-04 
-1.4258453e-04 -2.3139869e-03 2.5547447e-04 
-1.7431895e-04 -3.4352990e-03 1.0708417e-04 
-2.4519369e-04 -4.5206295e-03 1.7546218e-04 
-2.7248161e-04 -5.0011207e-03 3.1117652e-05 
-2.5965847e-04 -4.7476529e-03 -1.5667554e-05 
-2.5338339e-04 -4.4302982e-03 -3.8071394e-05 
-2.2584749e-04 -4.4165566e-03 -4.1228021e-05 
-2.3418646e-04 -4.5310152e-03 -1.3823072e-04 
-2.0527482e-04 -4.2016441e-03 -2.1830424e-04 
-1.6550976e-04 -3.1071440e-03 -1.6615933e-04 
-8.7999695e-05 -1.8948767e-03 -2.5588967e-04 
-5.8813672e-05 -9.1056700e-04 -1.3574431e-04 
-9.2055861e-06 -2.6722881e-04 -1.3758858e-04 
4.8176671e-06 7.6937271e-05 -7.4818388e-05 
1.8736804e-05 2.1407627e-04 -4.1768712e-05 
1.1382546e-05 2.3789528e-04 -2.0843783e-05 
1.0106610e-05 2.2187081e-04 -9.3346252e-06 
0.0000000e+00 3.1229622e-06 0.0000000e+00 
0.0000000e+00 2.0187069e-06 0.0000000e+00 
0.0000000e+00 -7.5737233e-07 0.0000000e+00 
0.0000000e+00 -4.2092934e-06 0.0000000e+00 
0.0000000e+00 -7.4466116e-06 0.0000000e+00 
0.0000000e+00 -9.6968770e-06 0.0000000e+00 
0.0000000e+00 -1.0563932e-05 0.0000000e+00 
0.0000000e+00 -1.0027846e-05 0.0000000e+00 
0.0000000e+00 -8.5023785e-06 0.0000000e+00 
0.0000000e+00 -6.5772624e-06 0.0000000e+00 
0.0000000e+00 -4.7605854e-06 0.0000000e+00 
0.0000000e+00 -3.4540740e-06 0.0000000e+00 
0.0000000e+00 -2.8706174e-06 0.0000000e+00 
0.0000000e+00 -3.1288143e-06 0.0000000e+00 
0.0000000e+00 -4.2108945e-06 0.0000000e+00 
0.0000000e+00 -5.8469286e-06 0.0000000e+00 
0.0000000e+00 -7.5708954e-06 0.0000000e+00 
0.0000000e+00 -8.8325605e-06 0.0000000e+00 
0.0000000e+00 -9.2411328e-06 0.0000000e+00 
0.0000000e+00 -8.7029166e-06 0.0000000e+00 
0.0000000e+00 -7.5392427e-06 0.0000000e+00 
0.0000000e+00 -6.1875803e-06 0.0000000e+00 
0.0000000e+00 -5.0685999e-06 0.0000000e+00 
0.0000000e+00 -4.2996999e-06 0.0000000e+00 
0.0000000e+00 -3.6518650e-06 0.0000000e+00 
0.0000000e+00 -2.8393531e-06 0.0000000e+00 
0.0000000e+00 -1.6819828e-06 0.0000000e+00 
0.0000000e+00 -9.4039436e-08 0.0000000e+00 
0.0000000e+00 1.9974091e-06 0.0000000e+00 
0.0000000e+00 4.8772868e-06 0.0000000e+00 
0.0000000e+00 9.0939475e-06 0.0000000e+00 
0.0000000e+00 1.5379692e-05 0.0000000e+00 
0.0000000e+00 2.4471094e-05 0.0000000e+00 
0.0000000e+00 3.6866029e-05 0.0000000e+00 
0.0000000e+00 5.2255069e-05 0.0000000e+00 
0.0000000e+00 6.8988134e-05 0.0000000e+00 
0.0000000e+00 8.3132247e-05 0.0000000e+00 
0.0000000e+00 8.5310247e-05 0.0000000e+00 
0.0000000e+00 5.6353816e-05 0.0000000e+00 
0.0000000e+00 -3.5624391e-05 0.0000000e+00 
0.0000000e+00 -2.3808589e-04 0.0000000e+00 
0.0000000e+00 -6.1078387e-04 0.0000000e+00 
0.0000000e+00 -1.2145363e-03 0.0000000e+00 
0.0000000e+00 -2.0871081e-03 0.0000000e+00 
0.0000000e+00 -3.1851206e-03 0.0000000e+00 
0.0000000e+00 -4.3129520e-03 0.0000000e+00 
0.0000000e+00 -4.9946778e-03 0.0000000e+00 
0.0000000e+00 -4.8665009e-03 0.0000000e+00 
0.0000000e+00 -4.5350106e-03 0.0000000e+00 
0.0000000e+00 -4.4377237e-03 0.0000000e+00 
0.0000000e+00 -4.5459853e-03 0.0000000e+00 
0.0000000e+00 -4.3737045e-03 0.0000000e+00 
0.0000000e+00 -3.3971944e-03 0.0000000e+00 
0.0000000e+00 -2.1741057e-03 0.0000000e+00 
0.0000000e+00 -1.1223862e-03 0.0000000e+00 
0.0000000e+00 -3.9891645e-04 0.0000000e+00 
0.0000000e+00 1.0753258e-05 0.0000000e+00 
0.0000000e+00 1.8466741e-04 0.0000000e+00 
0.0000000e+00 2.1338294e-04 0.0000000e+00 
0.0000000e+00 1.7205480e-04 0.0000000e+00 
0.0000000e+00 1.0967971e-04 0.0000000e+00 
0.0000000e+00 5.3801799e-05 0.0000000e+00 
0.0000000e+00 1.4407095e-05 0.0000000e+00 
0.0000000e+00 -7.6162696e-06 0.0000000e+00 
0.0000000e+00 -1.6064736e-05 0.0000000e+00 
0.0000000e+00 -1.5686592e-05 0.0000000e+00 
0.0000000e+00 -1.0720339e-05 0.0000000e+00 
0.0000000e+00 -4.2635456e-06 0.0000000e+00 
0.0000000e+00 1.8942637e-06 0.0000000e+00 
0.0000000e+00 7.3111914e-06 0.0000000e+00 
0.0000000e+00 1.2697419e-05 0.0000000e+00 
0.0000000e+00 1.9452376e-05 0.0000000e+00 
0.0000000e+00 2.9057361e-05 0.0000000e+00 
0.0000000e+00 4.2607760e-05 0.0000000e+00 
0.0000000e+00 6.0069706e-05 0.0000000e+00 
0.0000000e+00 7.9365651e-05 0.0000000e+00 
0.0000000e+00 9.4273324e-05 0.0000000e+00 
0.0000000e+00 9.2117698e-05 0.0000000e+00 
0.0000000e+00 5.1720494e-05 0.0000000e+00 
0.0000000e+00 -6.1933577e-05 0.0000000e+00 
0.0000000e+00 -2.9954518e-04 0.0000000e+00 
0.0000000e+00 -7.2251132e-04 0.0000000e+00 
0.0000000e+00 -1.3881181e-03 0.0000000e+00 
0.0000000e+00 -2.3219662e-03 0.0000000e+00 
0.0000000e+00 -3.4539611e-03 0.0000000e+00 
0.0000000e+00 -4.5416206e-03 0.0000000e+00 
0.0000000e+00 -5.0326190e-03 0.0000000e+00 
0.0000000e+00 -4.7713513e-03 0.0000000e+00 
0.0000000e+00 -4.4578630e-03 0.0000000e+00 
0.0000000e+00 -4.4382880e-03 0.0000000e+00 
0.0000000e+00 -4.5608100e-03 0.0000000e+00 
0.0000000e+00 -4.2252750e-03 0.0000000e+00 
0.0000000e+00 -3.1297507e-03 0.0000000e+00 
0.0000000e+00 -1.9067208e-03 0.0000000e+00 
0.0000000e+00 -9.1780018e-04 0.0000000e+00 
0.0000000e+00 -2.6936000e-04 0.0000000e+00 
0.0000000e+00 7.7281409e-05 0.0000000e+00 
0.0000000e+00 2.1532906e-04 0.0000000e+00 
0.0000000e+00 2.3939433e-04 0.0000000e+00 
0.0000000e+00 2.2347058e-04 0.0000000e+00 
0.0000000e+00 2.1319855e-04 0.0000000e+00 
-5.8741187e-04 -1.3945873e-03 -1.4281430e-04 
3.9801409e-05 -7.1163966e-05 1.2514824e-06 
4.0253515e-05 -1.4380473e-05 3.6671677e-06 
3.3902044e-05 -9.6904560e-06 6.1847827e-06 
0.0000000e+00 -2.1895943e-03 0.0000000e+00 
0.0000000e+00 0.0000000e+00 0.0000000e+00 
0.0000000e+00 0.0000000e+00 0.0000000e+00 
0.0000000e+00 0.0000000e+00 0.0000000e+00 
0.0000000e+00 0.0000000e+00 0.0000000e+00 
0.0000000e+00 0.0000000e+00 0.0000000e+00 
0.0000000e+00 0.0000000e+00 0.0000000e+00 
0.0000000e+00 0.0000000e+00 0.0000000e+00 
0.0000000e+00 0.0000000e+00 0.0000000e+00 
0.0000000e+00 0.0000000e+00 0.0000000e+00 
0.0000000e+00 0.0000000e+00 0.0000000e+00 
0.0000000e+00 0.0000000e+00 0.0000000e+00 
0.0000000e+00 0.0000000e+00 0.0000000e+00 
0.0000000e+00 0.0000000e+00 0.0000000e+00 
0.0000000e+00 0.0000000e+00 0.0000000e+00 
0.0000000e+00 0.0000000e+00 0.0000000e+00 
0.0000000e+00 0.0000000e+00 0.0000000e+00 
0.0000000e+00 0.0000000e+00 0.0000000e+00 
0.0000000e+00 0.0000000e+00 0.0000000e+00 
0.0000000e+00 0.0000000e+00 0.0000000e+00 
0.0000000e+00 0.0000000e+00 0.0000000e+00 
0.0000000e+00 0.0000000e+00 0.0000000e+00 
0.0000000e+00 0.0000000e+00 0.0000000e+00 
0.0000000e+00 0.0000000e+00 0.0000000e+00 
0.0000000e+00 0.0000000e+00 0.0000000e+00 
0.0000000e+00 0.0000000e+00 0.0000000e+00 
0.0000000e+00 0.0000000e+00 0.0000000e+00 
0.0000000e+00 0.0000000e+00 0.0000000e+00 
0.0000000e+00 0.0000000e+00 0.0000000e+00 
0.0000000e+00 0.0000000e+00 0.0000000e+00 
0.0000000e+00 0.0000000e+00 0.0000000e+00 
0.0000000e+00 0.0000000e+00 0.0000000e+00 
0.0000000e+00 0.0000000e+00 0.0000000e+00 
0.0000000e+00 0.0000000e+00 0.0000000e+00 
0.0000000e+00 0.0000000e+00 0.0000000e+00 
0.0000000e+00 0.0000000e+00 0.0000000e+00 
0.0000000e+00 0.0000000e+00 0.0000000e+00 
0.0000000e+00 0.0000000e+00 0.0000000e+00 
0.0000000e+00 0.0000000e+00 0.0000000e+00 
0.0000000e+00 0.0000000e+00 0.0000000e+00 
0.0000000e+00 0.0000000e+00 0.0000000e+00 
0.0000000e+00 0.0000000e+00 0.0000000e+00 
0.0000000e+00 0.0000000e+00 0.0000000e+00 
0.0000000e+00 0.0000000e+00 0.0000000e+00 
0.0000000e+00 0.0000000e+00 0.0000000e+00 
0.0000000e+00 0.0000000e+00 0.0000000e+00 
0.0000000e+00 0.0000000e+00 0.0000000e+00 
0.0000000e+00 0.0000000e+00 0.0000000e+00 
0.0000000e+00 0.0000000e+00 0.0000000e+00 
0.0000000e+00 0.0000000e+00 0.0000000e+00 
0.0000000e+00 0.0000000e+00 0.0000000e+00 
0.0000000e+00 0.0000000e+00 0.0000000e+00 
0.0000000e+00 0.0000000e+00 0.0000000e+00 
0.0000000e+00 0.0000000e+00 0.0000000e+00 
0.0000000e+00 0.0000000e+00 0.0000000e+00 
0.0000000e+00 0.0000000e+00 0.0000000e+00 
0.0000000e+00 0.0000000e+00 0.0000000e+00 
0.0000000e+00 0.0000000e+00 0.0000000e+00 
0.0000000e+00 0.0000000e+00 0.0000000e+00 
0.0000000e+00 0.0000000e+00 0.0000000e+00 
0.0000000e+00 0.0000000e+00 0.0000000e+00 
0.0000000e+00 0.0000000e+00 0.0000000e+00 
0.0000000e+00 0.0000000e+00 0.0000000e+00 
0.0000000e+00 0.0000000e+00 0.0000000e+00 
0.0000000e+00 0.0000000e+00 0.0000000e+00 
0.0000000e+00 0.0000000e+00 0.0000000e+00 
0.0000000e+00 0.0000000e+00 0.0000000e+00 
0.0000000e+00 0.0000000e+00 0.0000000e+00 
0.0000000e+00 0.0000000e+00 0.0000000e+00 
0.0000000e+00 0.0000000e+00 0.0000000e+00 
0.0000000e+00 0.0000000e+00 0.0000000e+00 
0.0000000e+00 0.0000000e+00 0.0000000e+00 
0.0000000e+00 0.0000000e+00 0.0000000e+00 
0.0000000e+00 0.0000000e+00 0.0000000e+00 
0.0000000e+00 0.0000000e+00 0.0000000e+00 
0.0000000e+00 0.0000000e+00 0.0000000e+00 
0.0000000e+00 0.0000000e+00 0.0000000e+00 
0.0000000e+00 0.0000000e+00 0.0000000e+00 
0.0000000e+00 0.0000000e+00 0.0000000e+00 
0.0000000e+00 0.0000000e+00 0.0000000e+00 
0.0000000e+00 0.0000000e+00 0.0000000e+00 
0.0000000e+00 0.0000000e+00 0.0000000e+00 
0.0000000e+00 0.0000000e+00 0.0000000e+00 
0.0000000e+00 0.0000000e+00 0.0000000e+00 
0.0000000e+00 0.0000000e+00 0.0000000e+00 
0.0000000e+00 0.0000000e+00 0.0000000e+00 
0.0000000e+00 0.0000000e+00 0.0000000e+00 
0.0000000e+00 0.0000000e+00 0.0000000e+00 
0.0000000e+00 0.0000000e+00 0.0000000e+00 
0.0000000e+00 0.0000000e+00 0.0000000e+00 
0.0000000e+00 0.0000000e+00 0.0000000e+00 
0.0000000e+00 0.0000000e+00 0.0000000e+00 
0.0000000e+00 0.0000000e+00 0.0000000e+00 
0.0000000e+00 0.0000000e+00 0.0000000e+00 
0.0000000e+00 0.0000000e+00 0.0000000e+00 
0.0000000e+00 0.0000000e+00 0.0000000e+00 
0.0000000e+00 0.0000000e+00 0.0000000e+00 
0.0000000e+00 0.0000000e+00 0.0000000e+00 
0.0000000e+00 0.0000000e+00 0.0000000e+00 
0.0000000e+00 0.0000000e+00 0.0000000e+00 
0.0000000e+00 0.0000000e+00 0.0000000e+00 
0.0000000e+00 0.0000000e+00 0.0000000e+00 
0.0000000e+00 0.0000000e+00 0.0000000e+00 
0.0000000e+00 0.0000000e+00 0.0000000e+00 
0.0000000e+00 0.0000000e+00 0.0000000e+00 
0.0000000e+00 0.0000000e+00 0.0000000e+00 
0.0000000e+00 0.0000000e+00 0.0000000e+00 
-1.6270340e-07 -3.5647702e-07 -6.7565867e-07 
-7.3572824e-07 -3.9440911e-07 -3.1198471e-07 
-1.3717513e-06 -2.7871656e-07 1.6368045e-07 
-1.8410364e-06 2.3106207e-08 5.6173826e-07 
-1.9555416e-06 3.7061136e-07 8.3173779e-07 
-1.9303739e-06 5.9042202e-07 1.1461544e-06 
-2.1803394e-06 5.3566981e-07 1.4498802e-06 
-2.5005208e-06 3.2273161e-07 1.4660334e-06 
-2.5700442e-06 1.8276893e-07 1.0066317e-06 
-2.3765986e-06 5.4167817e-08 9.6971604e-08 
-1.8866722e-06 -1.2684123e-07 -3.9364892e-07 
-1.0947317e-06 4.8983875e-08 -4.1255217e-07 
-2.2099280e-07 -2.5011435e-08 -4.6855001e-07 
3.2034773e-08 -8.6829272e-07 -1.0490705e-06 
1.1706426e-06 -1.3494415e-06 -1.9549739e-06 
2.1930152e-06 -1.3288966e-06 -2.6703992e-06 
4.3319128e-06 -1.3054699e-06 -4.4640374e-06 
7.0131564e-06 -2.4657979e-06 -6.9351599e-06 
1.0869935e-05 -5.5903056e-06 -9.5999230e-06 
1.8750439e-05 -8.3989034e-06 -1.2452906e-05 
2.7739115e-05 -1.0792493e-05 -1.3946108e-05 
3.6458448e-05 -1.3520989e-05 -1.0943227e-05 
4.2333919e-05 -1.5571901e-05 -6.0347870e-06 
4.4125878e-05 -1.4070411e-05 1.4054333e-06 
3.9025435e-05 -1.1399595e-05 7.0228384e-06 
2.9604129e-05 -8.1289672e-06 1.1715462e-05 
1.8844712e-05 -5.3176436e-06 1.2724347e-05 
8.3632121e-06 -2.8659474e-06 1.0925943e-05 
2.9900864e-06 -1.1890835e-06 8.1475728e-06 
-5.8494044e-07 -6.9303422e-07 5.1694947e-06 
-9.4511205e-07 -6.4984408e-07 3.2138628e-06 
-5.9069617e-07 -6.5295245e-07 1.9995925e-06 
2.5176442e-07 -6.1123086e-07 8.6872797e-07 
9.2400740e-07 -1.1101985e-06 -7.3928760e-07 
1.8195826e-06 -1.8236630e-06 -2.1238527e-06 
3.1386830e-06 -1.7056423e-06 -3.8524449e-06 
4.7272165e-06 -1.7048144e-06 -6.1749101e-06 
8.5323754e-06 -3.1138984e-06 -9.2700466e-06 
1.4249282e-05 -6.0541497e-06 -1.1723984e-05 
2.2132774e-05 -9.7059210e-06 -1.3586275e-05 
3.2453241e-05 -1.2027115e-05 -1.3902134e-05 
4.0977455e-05 -1.4439467e-05 -1.0552669e-05 
4.6761645e-05 -1.5718228e-05 -4.6149248e-06 
4.7422873e-05 -1.6123227e-05 4.6968080e-06 
3.7168520e-05 -1.1811750e-05 1.1943405e-05 
3.1668849e-05 -1.0257365e-05 1.2990381e-05 
2.1996284e-05 -5.7167940e-06 1.5207516e-05 
1.1309750e-05 -2.8738204e-06 1.2825597e-05 
4.1527437e-06 -1.3856281e-06 9.2392866e-06 
0.0000000e+00 -2.3615912e-06 0.0000000e+00 
0.0000000e+00 1.3002250e-07 0.0000000e+00 
0.0000000e+00 3.4553036e-06 0.0000000e+00 
0.0000000e+00 5.8129044e-06 0.0000000e+00 
0.0000000e+00 5.9179765e-06 0.0000000e+00 
0.0000000e+00 4.6367450e-06 0.0000000e+00 
0.0000000e+00 4.1724206e-06 0.0000000e+00 
0.0000000e+00 4.4275607e-06 0.0000000e+00 
0.0000000e+00 5.1230145e-06 0.0000000e+00 
0.0000000e+00 5.7718566e-06 0.0000000e+00 
0.0000000e+00 5.1390871e-06 0.0000000e+00 
0.0000000e+00 1.2292767e-06 0.0000000e+00 
0.0000000e+00 -8.6043684e-07 0.0000000e+00 
0.0000000e+00 -2.3656694e-06 0.0000000e+00 
0.0000000e+00 -5.1727602e-06 0.0000000e+00 
0.0000000e+00 -5.0334966e-06 0.0000000e+00 
0.0000000e+00 -2.7165802e-06 0.0000000e+00 
0.0000000e+00 -1.6869582e-06 0.0000000e+00 
0.0000000e+00 -1.3005242e-05 0.0000000e+00 
0.0000000e+00 -7.3950803e-05 0.0000000e+00 
0.0000000e+00 -2.1231656e-04 0.0000000e+00 
0.0000000e+00 -3.9807925e-04 0.0000000e+00 
0.0000000e+00 -5.4561859e-04 0.0000000e+00 
0.0000000e+00 -5.4661394e-04 0.0000000e+00 
0.0000000e+00 -4.6032149e-04 0.0000000e+00 
0.0000000e+00 -3.3901629e-04 0.0000000e+00 
0.0000000e+00 -1.4615292e-04 0.0000000e+00 
0.0000000e+00 -1.9980393e-05 0.0000000e+00 
0.0000000e+00 2.2024864e-05 0.0000000e+00 
0.0000000e+00 1.7678865e-05 0.0000000e+00 
0.0000000e+00 5.7348902e-06 0.0000000e+00 
0.0000000e+00 -1.5597693e-06 0.0000000e+00 
0.0000000e+00 -3.9213373e-06 0.0000000e+00 
0.0000000e+00 -3.2982991e-06 0.0000000e+00 
0.0000000e+00 -1.8664651e-06 0.0000000e+00 
0.0000000e+00 5.5738229e-07 0.0000000e+00 
0.0000000e+00 3.7400600e-06 0.0000000e+00 
0.0000000e+00 3.6977906e-06 0.0000000e+00 
0.0000000e+00 -1.9946627e-05 0.0000000e+00 
0.0000000e+00 -6.9984468e-05 0.0000000e+00 
0.0000000e+00 -2.2538890e-04 0.0000000e+00 
0.0000000e+00 -4.1554082e-04 0.0000000e+00 
0.0000000e+00 -5.2334223e-04 0.0000000e+00 
0.0000000e+00 -5.2769994e-04 0.0000000e+00 
0.0000000e+00 -4.7649816e-04 0.0000000e+00 
0.0000000e+00 -3.0780496e-04 0.0000000e+00 
0.0000000e+00 -1.2349570e-04 0.0000000e+00 
0.0000000e+00 -2.1695090e-05 0.0000000e+00 
0.0000000e+00 1.4603529e-05 0.0000000e+00 
2.1369810e-07 -7.4562257e-07 -1.0273337e-06 
1.7480735e-07 -8.4908908e-07 -1.4404762e-06 
2.6398843e-07 -1.4206815e-06 -2.2915181e-06 
-1.0160914e-07 -2.8187312e-06 -2.3383479e-06 
2.7946455e-06 -2.6034927e-06 7.8392732e-06 
1.6799751e-06 -1.8797597e-07 8.8220595e-06 
-1.4430251e-06 5.8800742e-06 7.7082759e-06 
-3.1784980e-06 1.1611119e-05 4.2113511e-06 
1.1735811e-07 -8.8540321e-07 -1.2987980e-06 
3.9256306e-06 -2.2098777e-06 1.0773691e-05 
-1.4145503e-06 -2.2091203e-06 -3.2111298e-06 
-9.0605215e-07 -1.6794697e-06 -3.2148387e-06 
0.0000000e+00 -3.8025589e-06 0.0000000e+00 
0.0000000e+00 -1.4422674e-06 0.0000000e+00 
0.0000000e+00 3.0530048e-06 0.0000000e+00 
0.0000000e+00 7.4757313e-06 0.0000000e+00 
0.0000000e+00 8.2895131e-06 0.0000000e+00 
0.0000000e+00 6.7228352e-06 0.0000000e+00 
0.0000000e+00 5.9561216e-06 0.0000000e+00 
0.0000000e+00 6.0713674e-06 0.0000000e+00 
0.0000000e+00 6.9581279e-06 0.0000000e+00 
0.0000000e+00 8.6465607e-06 0.0000000e+00 
0.0000000e+00 6.8959171e-06 0.0000000e+00 
0.0000000e+00 1.7689388e-06 0.0000000e+00 
0.0000000e+00 -1.7840747e-06 0.0000000e+00 