# vtk DataFile Version 4.0
vtk output
ASCII
DATASET UNSTRUCTURED_GRID
POINTS 1920 float
0.0000000e+00 0.0000000e+00 0.0000000e+00 
0.0000000e+00 0.0000000e+00 5.0000000e+01 
5.0000000e+00 0.0000000e+00 0.0000000e+00 
5.0000000e+00 0.0000000e+00 5.0000000e+01 
5.0000000e+00 1.0000000e+00 0.0000000e+00 
5.0000000e+00 1.0000000e+00 5.0000000e+01 
0.0000000e+00 1.0000000e+00 0.0000000e+00 
0.0000000e+00 1.0000000e+00 5.0000000e+01 
5.0000000e+00 2.0000000e+00 0.0000000e+00 
5.0000000e+00 2.0000000e+00 5.0000000e+01 
3.0000000e+00 2.0000000e+00 0.0000000e+00 
3.0000000e+00 2.0000000e+00 5.0000000e+01 
0.0000000e+00 2.0000000e+00 0.0000000e+00 
0.0000000e+00 2.0000000e+00 5.0000000e+01 
1.5000000e+00 3.0000000e+00 0.0000000e+00 
1.5000000e+00 3.0000000e+00 5.0000000e+01 
7.5000000e-01 3.0000000e+00 0.0000000e+00 
7.5000000e-01 3.0000000e+00 5.0000000e+01 
0.0000000e+00 3.0000000e+00 0.0000000e+00 
0.0000000e+00 3.0000000e+00 5.0000000e+01 
7.5000000e-01 3.0000000e+00 5.0000000e-01 
7.5000000e-01 3.0000000e+00 1.0000000e+00 
7.5000000e-01 3.0000000e+00 1.5000000e+00 
7.5000000e-01 3.0000000e+00 2.0000000e+00 
7.5000000e-01 3.0000000e+00 2.5000000e+00 
7.5000000e-01 3.0000000e+00 3.0000000e+00 
7.5000000e-01 3.0000000e+00 3.5000000e+00 
7.5000000e-01 3.0000000e+00 4.0000000e+00 
7.5000000e-01 3.0000000e+00 4.5000000e+00 
7.5000000e-01 3.0000000e+00 5.0000000e+00 
7.5000000e-01 3.0000000e+00 5.5000000e+00 
7.5000000e-01 3.0000000e+00 6.0000000e+00 
7.5000000e-01 3.0000000e+00 6.5000000e+00 
7.5000000e-01 3.0000000e+00 7.0000000e+00 
7.5000000e-01 3.0000000e+00 7.5000000e+00 
7.5000000e-01 3.0000000e+00 8.0000000e+00 
7.5000000e-01 3.0000000e+00 8.5000000e+00 
7.5000000e-01 3.0000000e+00 9.0000000e+00 
7.5000000e-01 3.0000000e+00 9.5000000e+00 
7.5000000e-01 3.0000000e+00 1.0000000e+01 
7.5000000e-01 3.0000000e+00 1.0500000e+01 
7.5000000e-01 3.0000000e+00 1.1000000e+01 
7.5000000e-01 3.0000000e+00 1.1500000e+01 
7.5000000e-01 3.0000000e+00 1.2000000e+01 
7.5000000e-01 3.0000000e+00 1.2500000e+01 
7.5000000e-01 3.0000000e+00 1.3000000e+01 
7.5000000e-01 3.0000000e+00 1.3500000e+01 
7.5000000e-01 3.0000000e+00 1.4000000e+01 
7.5000000e-01 3.0000000e+00 1.4500000e+01 
7.5000000e-01 3.0000000e+00 1.5000000e+01 
7.5000000e-01 3.0000000e+00 1.5500000e+01 
7.5000000e-01 3.0000000e+00 1.6000000e+01 
7.5000000e-01 3.0000000e+00 1.6500000e+01 
7.5000000e-01 3.0000000e+00 1.7000000e+01 
7.5000000e-01 3.0000000e+00 1.7500000e+01 
7.5000000e-01 3.0000000e+00 1.8000000e+01 
7.5000000e-01 3.0000000e+00 1.8500000e+01 
7.5000000e-01 3.0000000e+00 1.9000000e+01 
7.5000000e-01 3.0000000e+00 1.9500000e+01 
7.5000000e-01 3.0000000e+00 2.0000000e+01 
7.5000000e-01 3.0000000e+00 2.0500000e+01 
7.5000000e-01 3.0000000e+00 2.1000000e+01 
7.5000000e-01 3.0000000e+00 2.1500000e+01 
7.5000000e-01 3.0000000e+00 2.2000000e+01 
7.5000000e-01 3.0000000e+00 2.2500000e+01 
7.5000000e-01 3.0000000e+00 2.3000000e+01 
7.5000000e-01 3.0000000e+00 2.3500000e+01 
7.5000000e-01 3.0000000e+00 2.4000000e+01 
7.5000000e-01 3.0000000e+00 2.4500000e+01 
7.5000000e-01 3.0000000e+00 2.5000000e+01 
7.5000000e-01 3.0000000e+00 2.5500000e+01 
7.5000000e-01 3.0000000e+00 2.6000000e+01 
7.5000000e-01 3.0000000e+00 2.6500000e+01 
7.5000000e-01 3.0000000e+00 2.7000000e+01 
7.5000000e-01 3.0000000e+00 2.7500000e+01 
7.5000000e-01 3.0000000e+00 2.8000000e+01 
7.5000000e-01 3.0000000e+00 2.8500000e+01 
7.5000000e-01 3.0000000e+00 2.9000000e+01 
7.5000000e-01 3.0000000e+00 2.9500000e+01 
7.5000000e-01 3.0000000e+00 3.0000000e+01 
7.5000000e-01 3.0000000e+00 3.0500000e+01 
7.5000000e-01 3.0000000e+00 3.1000000e+01 
7.5000000e-01 3.0000000e+00 3.1500000e+01 
7.5000000e-01 3.0000000e+00 3.2000000e+01 
7.5000000e-01 3.0000000e+00 3.2500000e+01 
7.5000000e-01 3.0000000e+00 3.3000000e+01 
7.5000000e-01 3.0000000e+00 3.3500000e+01 
7.5000000e-01 3.0000000e+00 3.4000000e+01 
7.5000000e-01 3.0000000e+00 3.4500000e+01 
7.5000000e-01 3.0000000e+00 3.5000000e+01 
7.5000000e-01 3.0000000e+00 3.5500000e+01 
7.5000000e-01 3.0000000e+00 3.6000000e+01 
7.5000000e-01 3.0000000e+00 3.6500000e+01 
7.5000000e-01 3.0000000e+00 3.7000000e+01 
7.5000000e-01 3.0000000e+00 3.7500000e+01 
7.5000000e-01 3.0000000e+00 3.8000000e+01 
7.5000000e-01 3.0000000e+00 3.8500000e+01 
7.5000000e-01 3.0000000e+00 3.9000000e+01 
7.5000000e-01 3.0000000e+00 3.9500000e+01 
7.5000000e-01 3.0000000e+00 4.0000000e+01 
7.5000000e-01 3.0000000e+00 4.0500000e+01 
7.5000000e-01 3.0000000e+00 4.1000000e+01 
7.5000000e-01 3.0000000e+00 4.1500000e+01 
7.5000000e-01 3.0000000e+00 4.2000000e+01 
7.5000000e-01 3.0000000e+00 4.2500000e+01 
7.5000000e-01 3.0000000e+00 4.3000000e+01 
7.5000000e-01 3.0000000e+00 4.3500000e+01 
7.5000000e-01 3.0000000e+00 4.4000000e+01 
7.5000000e-01 3.0000000e+00 4.4500000e+01 
7.5000000e-01 3.0000000e+00 4.5000000e+01 
7.5000000e-01 3.0000000e+00 4.5500000e+01 
7.5000000e-01 3.0000000e+00 4.6000000e+01 
7.5000000e-01 3.0000000e+00 4.6500000e+01 
7.5000000e-01 3.0000000e+00 4.7000000e+01 
7.5000000e-01 3.0000000e+00 4.7500000e+01 
7.5000000e-01 3.0000000e+00 4.8000000e+01 
7.5000000e-01 3.0000000e+00 4.8500000e+01 
7.5000000e-01 3.0000000e+00 4.9000000e+01 
7.5000000e-01 3.0000000e+00 4.9500000e+01 
7.5000000e-01 3.0250001e+00 0.0000000e+00 
7.5000000e-01 3.0250001e+00 5.0000000e-01 
7.5000000e-01 3.0250001e+00 1.0000000e+00 
7.5000000e-01 3.0250001e+00 1.5000000e+00 
7.5000000e-01 3.0250001e+00 2.0000000e+00 
7.5000000e-01 3.0250001e+00 2.5000000e+00 
7.5000000e-01 3.0250001e+00 3.0000000e+00 
7.5000000e-01 3.0250001e+00 3.5000000e+00 
7.5000000e-01 3.0250001e+00 4.0000000e+00 
7.5000000e-01 3.0250001e+00 4.5000000e+00 
7.5000000e-01 3.0250001e+00 5.0000000e+00 
7.5000000e-01 3.0250001e+00 5.5000000e+00 
7.5000000e-01 3.0250001e+00 6.0000000e+00 
7.5000000e-01 3.0250001e+00 6.5000000e+00 
7.5000000e-01 3.0250001e+00 7.0000000e+00 
7.5000000e-01 3.0250001e+00 7.5000000e+00 
7.5000000e-01 3.0250001e+00 8.0000000e+00 
7.5000000e-01 3.0250001e+00 8.5000000e+00 
7.5000000e-01 3.0250001e+00 9.0000000e+00 
7.5000000e-01 3.0250001e+00 9.5000000e+00 
7.5000000e-01 3.0250001e+00 1.0000000e+01 
7.5000000e-01 3.0250001e+00 1.0500000e+01 
7.5000000e-01 3.0250001e+00 1.1000000e+01 
7.5000000e-01 3.0250001e+00 1.1500000e+01 
7.5000000e-01 3.0250001e+00 1.2000000e+01 
7.5000000e-01 3.0250001e+00 1.2500000e+01 
7.5000000e-01 3.0250001e+00 1.3000000e+01 
7.5000000e-01 3.0250001e+00 1.3500000e+01 
7.5000000e-01 3.0250001e+00 1.4000000e+01 
7.5000000e-01 3.0250001e+00 1.4500000e+01 
7.5000000e-01 3.0250001e+00 1.5000000e+01 
7.5000000e-01 3.0250001e+00 1.5500000e+01 
7.5000000e-01 3.0250001e+00 1.6000000e+01 
7.5000000e-01 3.0250001e+00 1.6500000e+01 
7.5000000e-01 3.0250001e+00 1.7000000e+01 
7.5000000e-01 3.0250001e+00 1.7500000e+01 
7.5000000e-01 3.0250001e+00 1.8000000e+01 
7.5000000e-01 3.0250001e+00 1.8500000e+01 
7.5000000e-01 3.0250001e+00 1.9000000e+01 
7.5000000e-01 3.0250001e+00 1.9500000e+01 
7.5000000e-01 3.0250001e+00 2.0000000e+01 
7.5000000e-01 3.0250001e+00 2.0500000e+01 
7.5000000e-01 3.0250001e+00 2.1000000e+01 
7.5000000e-01 3.0250001e+00 2.1500000e+01 
7.5000000e-01 3.0250001e+00 2.2000000e+01 
7.5000000e-01 3.0250001e+00 2.2500000e+01 
7.5000000e-01 3.0250001e+00 2.3000000e+01 
7.5000000e-01 3.0250001e+00 2.3500000e+01 
7.5000000e-01 3.0250001e+00 2.4000000e+01 
7.5000000e-01 3.0250001e+00 2.4500000e+01 
7.5000000e-01 3.0250001e+00 2.5000000e+01 
7.5000000e-01 3.0250001e+00 2.5500000e+01 
7.5000000e-01 3.0250001e+00 2.6000000e+01 
7.5000000e-01 3.0250001e+00 2.6500000e+01 
7.5000000e-01 3.0250001e+00 2.7000000e+01 
7.5000000e-01 3.0250001e+00 2.7500000e+01 
7.5000000e-01 3.0250001e+00 2.8000000e+01 
7.5000000e-01 3.0250001e+00 2.8500000e+01 
7.5000000e-01 3.0250001e+00 2.9000000e+01 
7.5000000e-01 3.0250001e+00 2.9500000e+01 
7.5000000e-01 3.0250001e+00 3.0000000e+01 
7.5000000e-01 3.0250001e+00 3.0500000e+01 
7.5000000e-01 3.0250001e+00 3.1000000e+01 
7.5000000e-01 3.0250001e+00 3.1500000e+01 
7.5000000e-01 3.0250001e+00 3.2000000e+01 
7.5000000e-01 3.0250001e+00 3.2500000e+01 
7.5000000e-01 3.0250001e+00 3.3000000e+01 
7.5000000e-01 3.0250001e+00 3.3500000e+01 
7.5000000e-01 3.0250001e+00 3.4000000e+01 
7.5000000e-01 3.0250001e+00 3.4500000e+01 
7.5000000e-01 3.0250001e+00 3.5000000e+01 
7.5000000e-01 3.0250001e+00 3.5500000e+01 
7.5000000e-01 3.0250001e+00 3.6000000e+01 
7.5000000e-01 3.0250001e+00 3.6500000e+01 
7.5000000e-01 3.0250001e+00 3.7000000e+01 
7.5000000e-01 3.0250001e+00 3.7500000e+01 
7.5000000e-01 3.0250001e+00 3.8000000e+01 
7.5000000e-01 3.0250001e+00 3.8500000e+01 
7.5000000e-01 3.0250001e+00 3.9000000e+01 
7.5000000e-01 3.0250001e+00 3.9500000e+01 
7.5000000e-01 3.0250001e+00 4.0000000e+01 
7.5000000e-01 3.0250001e+00 4.0500000e+01 
7.5000000e-01 3.0250001e+00 4.1000000e+01 
7.5000000e-01 3.0250001e+00 4.1500000e+01 
7.5000000e-01 3.0250001e+00 4.2000000e+01 
7.5000000e-01 3.0250001e+00 4.2500000e+01 
7.5000000e-01 3.0250001e+00 4.3000000e+01 
7.5000000e-01 3.0250001e+00 4.3500000e+01 
7.5000000e-01 3.0250001e+00 4.4000000e+01 
7.5000000e-01 3.0250001e+00 4.4500000e+01 
7.5000000e-01 3.0250001e+00 4.5000000e+01 
7.5000000e-01 3.0250001e+00 4.5500000e+01 
7.5000000e-01 3.0250001e+00 4.6000000e+01 
7.5000000e-01 3.0250001e+00 4.6500000e+01 
7.5000000e-01 3.0250001e+00 4.7000000e+01 
7.5000000e-01 3.0250001e+00 4.7500000e+01 
7.5000000e-01 3.0250001e+00 4.8000000e+01 
7.5000000e-01 3.0250001e+00 4.8500000e+01 
7.5000000e-01 3.0250001e+00 4.9000000e+01 
7.5000000e-01 3.0250001e+00 4.9500000e+01 
7.5000000e-01 3.0250001e+00 5.0000000e+01 
1.5000000e+00 3.0000000e+00 2.5000000e+01 
3.0000000e+00 2.0000000e+00 2.5000000e+01 
4.0000000e+00 2.0000000e+00 2.5000000e+01 
5.0000000e+00 2.0000000e+00 2.5000000e+01 
0.0000000e+00 3.0000000e+00 2.5000000e+01 
0.0000000e+00 0.0000000e+00 1.0000000e+00 
0.0000000e+00 0.0000000e+00 2.0000000e+00 
0.0000000e+00 0.0000000e+00 3.0000000e+00 
0.0000000e+00 0.0000000e+00 4.0000000e+00 
0.0000000e+00 0.0000000e+00 5.0000000e+00 
[...]
POINT_DATA 1920
FIELD FieldData 3
DISPLACEMENT 3 1920  float
0.0000000e+00 0.0000000e+00 0.0000000e+00 
0.0000000e+00 0.0000000e+00 0.0000000e+00 
0.0000000e+00 0.0000000e+00 0.0000000e+00 
0.0000000e+00 0.0000000e+00 0.0000000e+00 
-4.5256570e-07 -8.1060762e-06 -1.6456224e-06 
3.2006031e-09 -1.2932139e-09 2.5125175e-09 
0.0000000e+00 3.1689146e-05 0.0000000e+00 
0.0000000e+00 -1.0228783e-09 0.0000000e+00 
1.6888927e-06 -6.5057011e-06 9.0828109e-07 
3.8371373e-09 -7.0392697e-10 6.8099310e-10 
1.9384532e-05 2.1871532e-05 -2.9124190e-05 
1.2402760e-08 6.7933339e-09 -3.3753957e-09 
0.0000000e+00 3.3974135e-05 0.0000000e+00 
0.0000000e+00 -6.0018486e-08 0.0000000e+00 
4.4512494e-06 5.4168650e-05 -4.2888918e-05 
2.3660942e-08 4.1256110e-09 1.2398104e-08 
6.6556197e-07 1.2124242e-04 -1.2472299e-05 
6.8127282e-10 -8.4159177e-07 -4.0643208e-08 
0.0000000e+00 6.3473177e-05 0.0000000e+00 
0.0000000e+00 -1.1933254e-07 0.0000000e+00 
1.0595413e-05 9.7436263e-05 -2.2061345e-06 
1.2850022e-05 4.3871452e-05 2.6705964e-05 
1.3889110e-05 -2.2256143e-06 6.6006709e-05 
-1.5295394e-06 -2.3679819e-05 1.0160881e-04 
-3.5724697e-05 -4.8531110e-05 1.4706788e-04 
-3.5509715e-05 -1.4333481e-04 1.5726617e-04 
-6.9137001e-05 -3.7072931e-04 2.2552065e-04 
-7.5831966e-05 -7.5502193e-04 2.7228711e-04 
-1.3414687e-04 -1.2873254e-03 3.2725849e-04 
-2.1288547e-04 -1.9683109e-03 2.8116288e-04 
-3.0632535e-04 -2.8293505e-03 3.4691094e-04 
-3.0288141e-04 -3.8589360e-03 1.1237960e-04 
-3.9292008e-04 -4.9271826e-03 1.1887234e-04 
-4.7357444e-04 -5.5980287e-03 -1.1397648e-04 
-4.5614608e-04 -5.4515349e-03 -2.5426270e-04 
-3.9614600e-04 -4.9771224e-03 -2.5338496e-04 
-3.2994102e-04 -4.6887523e-03 -2.6961748e-04 
-2.6915644e-04 -4.5810519e-03 -2.7779213e-04 
-2.4937640e-04 -4.2852866e-03 -2.9207190e-04 
-1.8788838e-04 -3.2563123e-03 -2.5865287e-04 
-9.1608301e-05 -1.9896447e-03 -3.1729208e-04 
-4.4910106e-05 -9.1854710e-04 -1.5065448e-04 
3.8306839e-06 -2.2369703e-04 -1.3922757e-04 
2.4254439e-05 1.3790019e-04 4.0495106e-08 
2.6331058e-05 2.7002936e-04 2.6542117e-05 
1.4297201e-05 2.7988604e-04 3.3816585e-05 
1.1894365e-05 2.3373100e-04 4.4776407e-05 
7.2124913e-06 1.5637836e-04 7.1601967e-06 
-3.1909156e-08 6.5750821e-05 3.5177013e-06 
-1.4133798e-06 -1.3023418e-05 1.4841086e-06 
-9.2101454e-06 -5.7679219e-05 -1.5278139e-05 
-4.7256226e-06 -6.0036760e-05 5.0219961e-07 
-4.1380326e-06 -3.1084666e-05 2.4120347e-06 
-6.2105555e-06 4.0336749e-06 3.6348729e-06 
2.1083417e-06 2.5065698e-05 8.4282901e-06 
6.5584868e-07 2.4287650e-05 2.8095722e-06 
-1.5321230e-06 9.6391850e-06 -1.6590189e-05 
1.2301222e-06 2.7195642e-06 -1.0763455e-05 
4.5357506e-06 1.7658935e-05 -1.6639475e-05 
1.9131664e-06 4.8977479e-05 -1.5477304e-05 
4.7854437e-06 7.7584373e-05 1.4876828e-06 
7.8555231e-06 7.6484757e-05 1.2339950e-05 
1.9589097e-06 3.6563168e-05 5.8485712e-05 
8.2941970e-06 -2.5977499e-05 1.1851798e-04 
-2.0794016e-05 -1.0279533e-04 1.5869970e-04 
-5.1603893e-05 -2.1450176e-04 1.7664520e-04 
-9.9914389e-05 -4.1589915e-04 2.3682094e-04 
-2.1949294e-04 -7.8786083e-04 3.0682108e-04 
-1.5469879e-04 -1.3656017e-03 2.9816784e-04 
-2.4820902e-04 -2.1499787e-03 2.7799793e-04 
-2.7471888e-04 -3.1132123e-03 3.5690711e-04 
-4.5449988e-04 -4.1744625e-03 8.1614671e-05 
-4.6634302e-04 -5.1427186e-03 7.1132665e-05 
-4.7570225e-04 -5.6067011e-03 -1.0338749e-04 
-4.6557633e-04 -5.3921649e-03 -3.0429955e-04 
-4.2117559e-04 -4.9861427e-03 -2.8319881e-04 
-3.4242836e-04 -4.7922847e-03 -2.8622430e-04 
-3.4133962e-04 -4.6641203e-03 -3.0080180e-04 
-2.9770014e-04 -4.1979956e-03 -3.6647363e-04 
-2.2119659e-04 -3.0637966e-03 -2.8158352e-04 
-1.1683954e-04 -1.8113995e-03 -3.6762585e-04 
-4.4208107e-05 -8.0006476e-04 -1.7143961e-04 
1.1037238e-05 -1.6247376e-04 -1.3716689e-04 
3.2911099e-05 1.7174023e-04 8.6459113e-06 
2.7947062e-05 2.9803396e-04 4.1062398e-05 
2.0120662e-05 2.9691175e-04 3.8713999e-05 
1.8149987e-05 2.2448256e-04 4.7871399e-05 
4.8921665e-06 1.2312771e-04 7.0074148e-06 
-9.1302365e-07 3.4170098e-05 3.7027946e-06 
-1.1814864e-06 -2.0533287e-05 -1.6811478e-06 
-4.5511861e-06 -3.8277300e-05 -1.2080411e-05 
-2.7731030e-06 -3.2313750e-05 -2.7294011e-06 
-8.1311151e-07 -1.6540369e-05 -9.2761076e-07 
-2.1856947e-06 -7.8761599e-07 6.0564065e-07 
3.1794664e-06 9.8813480e-06 2.7983244e-06 
-2.0362982e-06 1.3176228e-05 -2.9929356e-06 
1.0975035e-06 7.3223187e-06 8.3291377e-07 
-4.0049997e-07 -4.5977804e-06 2.0509660e-06 
-1.3367243e-07 -1.3260242e-05 -3.0366214e-06 
3.0098892e-07 -1.1973175e-05 5.9740557e-07 
7.3424054e-08 -1.8588523e-06 4.8404149e-07 
-1.6621783e-07 8.4725480e-06 -1.2525742e-06 
3.3937323e-07 1.0799821e-05 1.0308701e-06 
2.1269783e-07 5.7831530e-06 -1.1534826e-07 
-1.3333884e-07 -1.1715139e-06 -4.3632357e-07 
1.7450764e-08 -5.5425471e-06 5.1594168e-07 
-1.5535231e-07 -5.6162144e-06 -4.0022221e-07 
-2.7344214e-07 -2.6634195e-06 -3.0796295e-07 
1.2459620e-07 1.2469476e-06 3.2544560e-07 
1.7787575e-07 3.8617586e-06 -2.4451149e-08 
-1.2850406e-08 3.2854989e-06 5.0455695e-10 
-5.1204349e-08 2.9239999e-07 9.1751630e-08 
-7.5778004e-08 -2.2279746e-06 -1.1553760e-07 
-7.1459596e-08 -2.2791580e-06 -4.9875034e-08 
1.7161216e-08 -3.1014685e-07 5.5451558e-08 
-1.5751676e-08 1.4200674e-06 -2.6380579e-08 
-1.9345865e-08 1.4737074e-06 2.5717586e-08 
1.6281776e-08 4.0954060e-07 3.2353753e-09 
-9.9800861e-09 -5.2742433e-07 1.8160872e-08 
0.0000000e+00 1.2016098e-04 0.0000000e+00 
0.0000000e+00 9.6611955e-05 0.0000000e+00 
0.0000000e+00 4.4744545e-05 0.0000000e+00 
0.0000000e+00 -3.6778275e-08 0.0000000e+00 
0.0000000e+00 -2.1576525e-05 0.0000000e+00 
0.0000000e+00 -4.8171609e-05 0.0000000e+00 
0.0000000e+00 -1.4486039e-04 0.0000000e+00 
0.0000000e+00 -3.7272234e-04 0.0000000e+00 
0.0000000e+00 -7.5513939e-04 0.0000000e+00 
0.0000000e+00 -1.2861785e-03 0.0000000e+00 
0.0000000e+00 -1.9703198e-03 0.0000000e+00 
0.0000000e+00 -2.8350516e-03 0.0000000e+00 
0.0000000e+00 -3.8747706e-03 0.0000000e+00 
0.0000000e+00 -4.9487734e-03 0.0000000e+00 
0.0000000e+00 -5.6286734e-03 0.0000000e+00 
0.0000000e+00 -5.4710717e-03 0.0000000e+00 
0.0000000e+00 -5.0035561e-03 0.0000000e+00 
0.0000000e+00 -4.7079991e-03 0.0000000e+00 
0.0000000e+00 -4.6104752e-03 0.0000000e+00 
0.0000000e+00 -4.3092049e-03 0.0000000e+00 
0.0000000e+00 -3.2792552e-03 0.0000000e+00 
0.0000000e+00 -2.0030148e-03 0.0000000e+00 
0.0000000e+00 -9.2905748e-04 0.0000000e+00 
0.0000000e+00 -2.2604596e-04 0.0000000e+00 
0.0000000e+00 1.3831408e-04 0.0000000e+00 
0.0000000e+00 2.7204861e-04 0.0000000e+00 
0.0000000e+00 2.8183887e-04 0.0000000e+00 
0.0000000e+00 2.3425925e-04 0.0000000e+00 
0.0000000e+00 1.5640410e-04 0.0000000e+00 
0.0000000e+00 6.6092485e-05 0.0000000e+00 
0.0000000e+00 -1.2484162e-05 0.0000000e+00 
0.0000000e+00 -5.7109588e-05 0.0000000e+00 
0.0000000e+00 -5.9561204e-05 0.0000000e+00 
0.0000000e+00 -3.1154010e-05 0.0000000e+00 
0.0000000e+00 3.6882341e-06 0.0000000e+00 
0.0000000e+00 2.4379753e-05 0.0000000e+00 
0.0000000e+00 2.3420538e-05 0.0000000e+00 
0.0000000e+00 9.7693428e-06 0.0000000e+00 
0.0000000e+00 3.6894494e-06 0.0000000e+00 
0.0000000e+00 1.8586359e-05 0.0000000e+00 
0.0000000e+00 4.9604925e-05 0.0000000e+00 
0.0000000e+00 7.6757387e-05 0.0000000e+00 
0.0000000e+00 7.5102384e-05 0.0000000e+00 
0.0000000e+00 3.6524070e-05 0.0000000e+00 
0.0000000e+00 -2.4948946e-05 0.0000000e+00 
0.0000000e+00 -1.0066414e-04 0.0000000e+00 
0.0000000e+00 -2.1211067e-04 0.0000000e+00 
0.0000000e+00 -4.1749462e-04 0.0000000e+00 
0.0000000e+00 -7.8988133e-04 0.0000000e+00 
0.0000000e+00 -1.3680897e-03 0.0000000e+00 
0.0000000e+00 -2.1536730e-03 0.0000000e+00 
0.0000000e+00 -3.1189169e-03 0.0000000e+00 
0.0000000e+00 -4.1891951e-03 0.0000000e+00 
0.0000000e+00 -5.1634661e-03 0.0000000e+00 
0.0000000e+00 -5.6394055e-03 0.0000000e+00 
0.0000000e+00 -5.4138242e-03 0.0000000e+00 
0.0000000e+00 -5.0140265e-03 0.0000000e+00 
0.0000000e+00 -4.8100231e-03 0.0000000e+00 
0.0000000e+00 -4.6917917e-03 0.0000000e+00 
0.0000000e+00 -4.2195669e-03 0.0000000e+00 
0.0000000e+00 -3.0890293e-03 0.0000000e+00 
0.0000000e+00 -1.8228182e-03 0.0000000e+00 
0.0000000e+00 -8.0885732e-04 0.0000000e+00 
0.0000000e+00 -1.6308149e-04 0.0000000e+00 
0.0000000e+00 1.7268704e-04 0.0000000e+00 
0.0000000e+00 2.9902474e-04 0.0000000e+00 
0.0000000e+00 2.9766053e-04 0.0000000e+00 
0.0000000e+00 2.2489822e-04 0.0000000e+00 
0.0000000e+00 1.2439923e-04 0.0000000e+00 
0.0000000e+00 3.5154178e-05 0.0000000e+00 
0.0000000e+00 -1.9994199e-05 0.0000000e+00 
0.0000000e+00 -3.8444348e-05 0.0000000e+00 
0.0000000e+00 -3.2492739e-05 0.0000000e+00 
0.0000000e+00 -1.6668200e-05 0.0000000e+00 
0.0000000e+00 -9.4625494e-07 0.0000000e+00 
0.0000000e+00 9.7658212e-06 0.0000000e+00 
0.0000000e+00 1.2913290e-05 0.0000000e+00 
0.0000000e+00 7.1297404e-06 0.0000000e+00 
0.0000000e+00 -4.2945103e-06 0.0000000e+00 
0.0000000e+00 -1.2860736e-05 0.0000000e+00 
0.0000000e+00 -1.1765859e-05 0.0000000e+00 
0.0000000e+00 -2.0121686e-06 0.0000000e+00 
0.0000000e+00 8.0302179e-06 0.0000000e+00 
0.0000000e+00 1.0654777e-05 0.0000000e+00 
0.0000000e+00 5.9155700e-06 0.0000000e+00 
0.0000000e+00 -1.0247107e-06 0.0000000e+00 
0.0000000e+00 -5.4235884e-06 0.0000000e+00 
0.0000000e+00 -5.5916557e-06 0.0000000e+00 
0.0000000e+00 -2.6761745e-06 0.0000000e+00 
0.0000000e+00 1.1931548e-06 0.0000000e+00 
0.0000000e+00 3.7148216e-06 0.0000000e+00 
0.0000000e+00 3.2201219e-06 0.0000000e+00 
0.0000000e+00 4.0449646e-07 0.0000000e+00 
0.0000000e+00 -2.0972775e-06 0.0000000e+00 
0.0000000e+00 -2.2505026e-06 0.0000000e+00 
0.0000000e+00 -3.9890998e-07 0.0000000e+00 
0.0000000e+00 1.3334444e-06 0.0000000e+00 
0.0000000e+00 1.4876132e-06 0.0000000e+00 
0.0000000e+00 4.7830264e-07 0.0000000e+00 
0.0000000e+00 -5.1451951e-07 0.0000000e+00 
0.0000000e+00 -8.7208497e-07 0.0000000e+00 
-5.8029935e-04 -1.1786547e-03 4.0714536e-04 
-1.4764241e-05 -3.2587195e-04 1.4709004e-05 
3.5663696e-05 -1.1618878e-04 -3.5925652e-05 
4.4655222e-05 6.0676510e-05 -3.3678432e-05 
0.0000000e+00 -1.7603973e-03 0.0000000e+00 
0.0000000e+00 0.0000000e+00 0.0000000e+00 
0.0000000e+00 0.0000000e+00 0.0000000e+00 
0.0000000e+00 0.0000000e+00 0.0000000e+00 
0.0000000e+00 0.0000000e+00 0.0000000e+00 
0.0000000e+00 0.0000000e+00 0.0000000e+00 
0.0000000e+00 0.0000000e+00 0.0000000e+00 
0.0000000e+00 0.0000000e+00 0.0000000e+00 
0.0000000e+00 0.0000000e+00 0.0000000e+00 
0.0000000e+00 0.0000000e+00 0.0000000e+00 
0.0000000e+00 0.0000000e+00 0.0000000e+00 
0.0000000e+00 0.0000000e+00 0.0000000e+00 
0.0000000e+00 0.0000000e+00 0.0000000e+00 
0.0000000e+00 0.0000000e+00 0.0000000e+00 
0.0000000e+00 0.0000000e+00 0.0000000e+00 
0.0000000e+00 0.0000000e+00 0.0000000e+00 
0.0000000e+00 0.0000000e+00 0.0000000e+00 
0.0000000e+00 0.0000000e+00 0.0000000e+00 
0.0000000e+00 0.0000000e+00 0.0000000e+00 
0.0000000e+00 0.0000000e+00 0.0000000e+00 
0.0000000e+00 0.0000000e+00 0.0000000e+00 
0.0000000e+00 0.0000000e+00 0.0000000e+00 
0.0000000e+00 0.0000000e+00 0.0000000e+00 
0.0000000e+00 0.0000000e+00 0.0000000e+00 
0.0000000e+00 0.0000000e+00 0.0000000e+00 
0.0000000e+00 0.0000000e+00 0.0000000e+00 
0.0000000e+00 0.0000000e+00 0.0000000e+00 
0.0000000e+00 0.0000000e+00 0.0000000e+00 
0.0000000e+00 0.0000000e+00 0.0000000e+00 
0.0000000e+00 0.0000000e+00 0.0000000e+00 
0.0000000e+00 0.0000000e+00 0.0000000e+00 
0.0000000e+00 0.0000000e+00 0.0000000e+00 
0.0000000e+00 0.0000000e+00 0.0000000e+00 
0.0000000e+00 0.0000000e+00 0.0000000e+00 
0.0000000e+00 0.0000000e+00 0.0000000e+00 
0.0000000e+00 0.0000000e+00 0.0000000e+00 
0.0000000e+00 0.0000000e+00 0.0000000e+00 
0.0000000e+00 0.0000000e+00 0.0000000e+00 
0.0000000e+00 0.0000000e+00 0.0000000e+00 
0.0000000e+00 0.0000000e+00 0.0000000e+00 
0.0000000e+00 0.0000000e+00 0.0000000e+00 
0.0000000e+00 0.0000000e+00 0.0000000e+00 
0.0000000e+00 0.0000000e+00 0.0000000e+00 
0.0000000e+00 0.0000000e+00 0.0000000e+00 
0.0000000e+00 0.0000000e+00 0.0000000e+00 
0.0000000e+00 0.0000000e+00 0.0000000e+00 
0.0000000e+00 0.0000000e+00 0.0000000e+00 
0.0000000e+00 0.0000000e+00 0.0000000e+00 
0.0000000e+00 0.0000000e+00 0.0000000e+00 
0.0000000e+00 0.0000000e+00 0.0000000e+00 
0.0000000e+00 0.0000000e+00 0.0000000e+00 
0.0000000e+00 0.0000000e+00 0.0000000e+00 
0.0000000e+00 0.0000000e+00 0.0000000e+00 
0.0000000e+00 0.0000000e+00 0.0000000e+00 
0.0000000e+00 0.0000000e+00 0.0000000e+00 
0.0000000e+00 0.0000000e+00 0.0000000e+00 
0.0000000e+00 0.0000000e+00 0.0000000e+00 
0.0000000e+00 0.0000000e+00 0.0000000e+00 
0.0000000e+00 0.0000000e+00 0.0000000e+00 
0.0000000e+00 0.0000000e+00 0.0000000e+00 
0.0000000e+00 0.0000000e+00 0.0000000e+00 
0.0000000e+00 0.0000000e+00 0.0000000e+00 
0.0000000e+00 0.0000000e+00 0.0000000e+00 
0.0000000e+00 0.0000000e+00 0.0000000e+00 
0.0000000e+00 0.0000000e+00 0.0000000e+00 
0.0000000e+00 0.0000000e+00 0.0000000e+00 
0.0000000e+00 0.0000000e+00 0.0000000e+00 
0.0000000e+00 0.0000000e+00 0.0000000e+00 
0.0000000e+00 0.0000000e+00 0.0000000e+00 
0.0000000e+00 0.0000000e+00 0.0000000e+00 
0.0000000e+00 0.0000000e+00 0.0000000e+00 
0.0000000e+00 0.0000000e+00 0.0000000e+00 
0.0000000e+00 0.0000000e+00 0.0000000e+00 
0.0000000e+00 0.0000000e+00 0.0000000e+00 
0.0000000e+00 0.0000000e+00 0.0000000e+00 
0.0000000e+00 0.0000000e+00 0.0000000e+00 
0.0000000e+00 0.0000000e+00 0.0000000e+00 
0.0000000e+00 0.0000000e+00 0.0000000e+00 
0.0000000e+00 0.0000000e+00 0.0000000e+00 
0.0000000e+00 0.0000000e+00 0.0000000e+00 
0.0000000e+00 0.0000000e+00 0.0000000e+00 
0.0000000e+00 0.0000000e+00 0.0000000e+00 
0.0000000e+00 0.0000000e+00 0.0000000e+00 
0.0000000e+00 0.0000000e+00 0.0000000e+00 
0.0000000e+00 0.0000000e+00 0.0000000e+00 
0.0000000e+00 0.0000000e+00 0.0000000e+00 
0.0000000e+00 0.0000000e+00 0.0000000e+00 
0.0000000e+00 0.0000000e+00 0.0000000e+00 
0.0000000e+00 0.0000000e+00 0.0000000e+00 
0.0000000e+00 0.0000000e+00 0.0000000e+00 
0.0000000e+00 0.0000000e+00 0.0000000e+00 
0.0000000e+00 0.0000000e+00 0.0000000e+00 
0.0000000e+00 0.0000000e+00 0.0000000e+00 
0.0000000e+00 0.0000000e+00 0.0000000e+00 
0.0000000e+00 0.0000000e+00 0.0000000e+00 
0.0000000e+00 0.0000000e+00 0.0000000e+00 
0.0000000e+00 0.0000000e+00 0.0000000e+00 
0.0000000e+00 0.0000000e+00 0.0000000e+00 
0.0000000e+00 0.0000000e+00 0.0000000e+00 
0.0000000e+00 0.0000000e+00 0.0000000e+00 
0.0000000e+00 0.0000000e+00 0.0000000e+00 
0.0000000e+00 0.0000000e+00 0.0000000e+00 
0.0000000e+00 0.0000000e+00 0.0000000e+00 
0.0000000e+00 0.0000000e+00 0.0000000e+00 
0.0000000e+00 0.0000000e+00 0.0000000e+00 
0.0000000e+00 0.0000000e+00 0.0000000e+00 
0.0000000e+00 0.0000000e+00 0.0000000e+00 
6.0684765e-06 -4.6856030e-06 -4.9984096e-06 
2.6309241e-05 5.0970893e-06 -1.7669250e-05 
5.8363523e-05 -4.7492863e-06 -3.2179243e-05 
9.3825271e-05 2.9817099e-06 -3.7690679e-05 
1.3085887e-04 2.6035697e-05 -3.1459800e-05 
1.5191162e-04 2.3178207e-05 -1.3324729e-05 
1.6296818e-04 4.2162501e-05 1.8637153e-05 
1.4154313e-04 2.2194350e-05 2.9510029e-05 
1.1031428e-04 3.4550674e-06 3.9977673e-05 
5.4744691e-05 1.0213268e-05 3.3186832e-05 
2.8826420e-05 -4.8691950e-06 1.8574499e-05 
4.9099995e-06 -1.6243346e-05 6.5113541e-06 
-2.1026860e-06 -2.9762102e-06 -1.2343193e-07 
-2.7602821e-06 1.1796811e-05 -1.4391068e-06 
-1.1107079e-07 8.1525002e-07 7.5426090e-07 
2.7091943e-07 -4.4059011e-06 1.5387667e-07 
-7.6284590e-07 -1.9479530e-06 -5.6522583e-07 
-1.1920104e-06 5.1457209e-06 1.0830128e-06 
-1.4684204e-06 3.4616257e-06 4.4910180e-06 
-5.1082509e-07 -1.2094968e-05 -3.0207841e-06 
9.6258409e-06 -6.7426204e-06 -1.1468525e-05 
3.3251177e-05 1.0792563e-05 -1.9962190e-05 
6.9669419e-05 3.6549720e-06 -3.1674401e-05 
1.1203191e-04 1.6980706e-05 -3.8411385e-05 
1.4836687e-04 3.8666476e-05 -2.8811060e-05 
1.6903669e-04 5.2345560e-05 -9.9397894e-06 
1.6953611e-04 3.8914935e-05 2.1453208e-05 
1.3509580e-04 1.3128683e-05 3.6205030e-05 
9.5064541e-05 -8.8183369e-06 3.3369903e-05 
5.1451669e-05 -8.3695988e-07 2.7989157e-05 
1.8375305e-05 -3.8857620e-06 1.5112395e-05 
2.3477344e-06 -2.1666037e-05 3.8229268e-06 
-3.7420855e-06 6.6659851e-07 -3.7668628e-06 
2.3406270e-07 1.3316681e-05 -1.8090121e-07 
-1.2840466e-06 -2.0661678e-06 -1.2249819e-07 
1.1666108e-07 -2.5398676e-06 2.6171966e-07 
1.3116586e-07 1.4621869e-06 1.2968930e-07 
-3.7192612e-07 6.0324840e-07 7.5815848e-08 
7.9304113e-10 -4.7313449e-07 -2.5058014e-08 
-2.1278501e-08 7.2420853e-08 -4.4528839e-08 
1.1028443e-08 1.4150820e-07 4.7386099e-08 
2.1839321e-08 -6.5414604e-08 1.5083563e-08 
6.5195240e-09 -4.1922490e-08 -1.1968896e-08 
-9.5271639e-09 3.6665959e-08 1.4349715e-08 
-1.6447986e-08 7.8672082e-09 7.3709185e-09 
-1.9900343e-08 2.0305423e-08 -2.4582405e-09 
-7.2928219e-09 6.2432499e-09 -8.8711349e-09 
3.1080045e-09 -7.7440099e-09 -4.9009041e-09 
5.7267076e-09 -9.8130464e-09 4.9287702e-10 
0.0000000e+00 -5.4150783e-05 0.0000000e+00 
0.0000000e+00 -8.9437250e-05 0.0000000e+00 
0.0000000e+00 -1.5281381e-04 0.0000000e+00 
0.0000000e+00 -2.6598055e-04 0.0000000e+00 
0.0000000e+00 -4.0440736e-04 0.0000000e+00 
0.0000000e+00 -5.6258671e-04 0.0000000e+00 
0.0000000e+00 -7.5084245e-04 0.0000000e+00 
0.0000000e+00 -7.3977944e-04 0.0000000e+00 
0.0000000e+00 -6.5987988e-04 0.0000000e+00 
0.0000000e+00 -4.6352367e-04 0.0000000e+00 
0.0000000e+00 -2.6364523e-04 0.0000000e+00 
0.0000000e+00 3.0222916e-06 0.0000000e+00 
0.0000000e+00 6.5981665e-05 0.0000000e+00 
0.0000000e+00 3.5478773e-05 0.0000000e+00 
0.0000000e+00 -4.2657348e-06 0.0000000e+00 
0.0000000e+00 -1.6497121e-05 0.0000000e+00 
0.0000000e+00 2.7023415e-08 0.0000000e+00 
0.0000000e+00 -5.3809822e-06 0.0000000e+00 
0.0000000e+00 3.1828800e-05 0.0000000e+00 
0.0000000e+00 1.2636035e-05 0.0000000e+00 
0.0000000e+00 -5.3917254e-05 0.0000000e+00 
0.0000000e+00 -9.2963346e-05 0.0000000e+00 
0.0000000e+00 -1.4950414e-04 0.0000000e+00 
0.0000000e+00 -3.0390336e-04 0.0000000e+00 
0.0000000e+00 -3.8260099e-04 0.0000000e+00 
0.0000000e+00 -5.7258015e-04 0.0000000e+00 
0.0000000e+00 -7.5742218e-04 0.0000000e+00 
0.0000000e+00 -7.5430161e-04 0.0000000e+00 
0.0000000e+00 -6.2588748e-04 0.0000000e+00 
0.0000000e+00 -4.1058077e-04 0.0000000e+00 
0.0000000e+00 -1.6559154e-04 0.0000000e+00 
0.0000000e+00 -1.2105749e-05 0.0000000e+00 
0.0000000e+00 6.3736807e-05 0.0000000e+00 
0.0000000e+00 3.1769174e-05 0.0000000e+00 
0.0000000e+00 -3.8762564e-06 0.0000000e+00 
0.0000000e+00 -1.3165794e-05 0.0000000e+00 
0.0000000e+00 -4.8343131e-06 0.0000000e+00 
0.0000000e+00 6.5417926e-06 0.0000000e+00 
0.0000000e+00 3.7773423e-06 0.0000000e+00 
0.0000000e+00 -3.5611397e-06 0.0000000e+00 
0.0000000e+00 -2.6386563e-06 0.0000000e+00 
0.0000000e+00 1.2919361e-06 0.0000000e+00 
0.0000000e+00 8.7041070e-07 0.0000000e+00 
0.0000000e+00 -8.4520565e-07 0.0000000e+00 
0.0000000e+00 -2.0730913e-07 0.0000000e+00 
0.0000000e+00 3.3135228e-07 0.0000000e+00 
0.0000000e+00 -2.0562469e-07 0.0000000e+00 
0.0000000e+00 9.5241099e-08 0.0000000e+00 
0.0000000e+00 1.0215552e-08 0.0000000e+00 
4.8505258e-06 -4.5926092e-07 -6.4552310e-06 
8.7585486e-06 1.1209068e-05 -2.1349968e-05 
8.6736927e-06 1.8362123e-05 -2.7976857e-05 
-4.4546737e-06 2.3449329e-05 -1.5161186e-05 
3.0187701e-09 -4.6631810e-09 -6.3798661e-10 
2.8221350e-09 5.9202501e-09 -6.7310686e-09 
6.3121521e-09 -1.9680146e-09 -1.4242469e-09 
5.2225502e-10 1.3439841e-08 -5.8437846e-09 
1.4601709e-05 1.5339230e-06 -2.0941490e-05 
6.5919941e-09 -4.2585899e-09 -4.1498058e-09 
-1.0557472e-06 4.0806608e-05 1.2486912e-06 
6.6081270e-07 4.1997628e-05 -2.9460523e-05 
0.0000000e+00 -2.8519658e-05 0.0000000e+00 
0.0000000e+00 -1.0045077e-04 0.0000000e+00 
0.0000000e+00 -2.6776810e-04 0.0000000e+00 
0.0000000e+00 -4.7551922e-04 0.0000000e+00 
0.0000000e+00 -7.9755031e-04 0.0000000e+00 
0.0000000e+00 -1.3104016e-03 0.0000000e+00 
0.0000000e+00 -1.5546250e-03 0.0000000e+00 
0.0000000e+00 -1.4858444e-03 0.0000000e+00 
0.0000000e+00 -1.2974690e-03 0.0000000e+00 
0.0000000e+00 -8.8558759e-04 0.0000000e+00 
0.0000000e+00 -3.2578284e-04 0.0000000e+00 
0.0000000e+00 2.4605140e-05 0.0000000e+00 
0.0000000e+00 1.2790135e-04 0.0000000e+00 