# vtk DataFile Version 4.0
vtk output
ASCII
DATASET UNSTRUCTURED_GRID
POINTS 1920 float
0.0000000e+00 0.0000000e+00 0.0000000e+00 
0.0000000e+00 0.0000000e+00 5.0000000e+01 
5.0000000e+00 0.0000000e+00 0.0000000e+00 
5.0000000e+00 0.0000000e+00 5.0000000e+01 
5.0000000e+00 1.0000000e+00 0.0000000e+00 
5.0000000e+00 1.0000000e+00 5.0000000e+01 
0.0000000e+00 1.0000000e+00 0.0000000e+00 
0.0000000e+00 1.0000000e+00 5.0000000e+01 
5.0000000e+00 2.0000000e+00 0.0000000e+00 
5.0000000e+00 2.0000000e+00 5.0000000e+01 
3.0000000e+00 2.0000000e+00 0.0000000e+00 
3.0000000e+00 2.0000000e+00 5.0000000e+01 
0.0000000e+00 2.0000000e+00 0.0000000e+00 
0.0000000e+00 2.0000000e+00 5.0000000e+01 
1.5000000e+00 3.0000000e+00 0.0000000e+00 
1.5000000e+00 3.0000000e+00 5.0000000e+01 
7.5000000e-01 3.0000000e+00 0.0000000e+00 
7.5000000e-01 3.0000000e+00 5.0000000e+01 
0.0000000e+00 3.0000000e+00 0.0000000e+00 
0.0000000e+00 3.0000000e+00 5.0000000e+01 
7.5000000e-01 3.0000000e+00 5.0000000e-01 
7.5000000e-01 3.0000000e+00 1.0000000e+00 
7.5000000e-01 3.0000000e+00 1.5000000e+00 
7.5000000e-01 3.0000000e+00 2.0000000e+00 
7.5000000e-01 3.0000000e+00 2.5000000e+00 
7.5000000e-01 3.0000000e+00 3.0000000e+00 
7.5000000e-01 3.0000000e+00 3.5000000e+00 
7.5000000e-01 3.0000000e+00 4.0000000e+00 
7.5000000e-01 3.0000000e+00 4.5000000e+00 
7.5000000e-01 3.0000000e+00 5.0000000e+00 
7.5000000e-01 3.0000000e+00 5.5000000e+00 
7.5000000e-01 3.0000000e+00 6.0000000e+00 
7.5000000e-01 3.0000000e+00 6.5000000e+00 
7.5000000e-01 3.0000000e+00 7.0000000e+00 
7.5000000e-01 3.0000000e+00 7.5000000e+00 
7.5000000e-01 3.0000000e+00 8.0000000e+00 
7.5000000e-01 3.0000000e+00 8.5000000e+00 
7.5000000e-01 3.0000000e+00 9.0000000e+00 
7.5000000e-01 3.0000000e+00 9.5000000e+00 
7.5000000e-01 3.0000000e+00 1.0000000e+01 
7.5000000e-01 3.0000000e+00 1.0500000e+01 
7.5000000e-01 3.0000000e+00 1.1000000e+01 
7.5000000e-01 3.0000000e+00 1.1500000e+01 
7.5000000e-01 3.0000000e+00 1.2000000e+01 
7.5000000e-01 3.0000000e+00 1.2500000e+01 
7.5000000e-01 3.0000000e+00 1.3000000e+01 
7.5000000e-01 3.0000000e+00 1.3500000e+01 
7.5000000e-01 3.0000000e+00 1.4000000e+01 
7.5000000e-01 3.0000000e+00 1.4500000e+01 
7.5000000e-01 3.0000000e+00 1.5000000e+01 
7.5000000e-01 3.0000000e+00 1.5500000e+01 
7.5000000e-01 3.0000000e+00 1.6000000e+01 
7.5000000e-01 3.0000000e+00 1.6500000e+01 
7.5000000e-01 3.0000000e+00 1.7000000e+01 
7.5000000e-01 3.0000000e+00 1.7500000e+01 
7.5000000e-01 3.0000000e+00 1.8000000e+01 
7.5000000e-01 3.0000000e+00 1.8500000e+01 
7.5000000e-01 3.0000000e+00 1.9000000e+01 
7.5000000e-01 3.0000000e+00 1.9500000e+01 
7.5000000e-01 3.0000000e+00 2.0000000e+01 
7.5000000e-01 3.0000000e+00 2.0500000e+01 
7.5000000e-01 3.0000000e+00 2.1000000e+01 
7.5000000e-01 3.0000000e+00 2.1500000e+01 
7.5000000e-01 3.0000000e+00 2.2000000e+01 
7.5000000e-01 3.0000000e+00 2.2500000e+01 
7.5000000e-01 3.0000000e+00 2.3000000e+01 
7.5000000e-01 3.0000000e+00 2.3500000e+01 
7.5000000e-01 3.0000000e+00 2.4000000e+01 
7.5000000e-01 3.0000000e+00 2.4500000e+01 
7.5000000e-01 3.0000000e+00 2.5000000e+01 
7.5000000e-01 3.0000000e+00 2.5500000e+01 
7.5000000e-01 3.0000000e+00 2.6000000e+01 
7.5000000e-01 3.0000000e+00 2.6500000e+01 
7.5000000e-01 3.0000000e+00 2.7000000e+01 
7.5000000e-01 3.0000000e+00 2.7500000e+01 
7.5000000e-01 3.0000000e+00 2.8000000e+01 
7.5000000e-01 3.0000000e+00 2.8500000e+01 
7.5000000e-01 3.0000000e+00 2.9000000e+01 
7.5000000e-01 3.0000000e+00 2.9500000e+01 
7.5000000e-01 3.0000000e+00 3.0000000e+01 
7.5000000e-01 3.0000000e+00 3.0500000e+01 
7.5000000e-01 3.0000000e+00 3.1000000e+01 
7.5000000e-01 3.0000000e+00 3.1500000e+01 
7.5000000e-01 3.0000000e+00 3.2000000e+01 
7.5000000e-01 3.0000000e+00 3.2500000e+01 
7.5000000e-01 3.0000000e+00 3.3000000e+01 
7.5000000e-01 3.0000000e+00 3.3500000e+01 
7.5000000e-01 3.0000000e+00 3.4000000e+01 
7.5000000e-01 3.0000000e+00 3.4500000e+01 
7.5000000e-01 3.0000000e+00 3.5000000e+01 
7.5000000e-01 3.0000000e+00 3.5500000e+01 
7.5000000e-01 3.0000000e+00 3.6000000e+01 
7.5000000e-01 3.0000000e+00 3.6500000e+01 
7.5000000e-01 3.0000000e+00 3.7000000e+01 
7.5000000e-01 3.0000000e+00 3.7500000e+01 
7.5000000e-01 3.0000000e+00 3.8000000e+01 
7.5000000e-01 3.0000000e+00 3.8500000e+01 
7.5000000e-01 3.0000000e+00 3.9000000e+01 
7.5000000e-01 3.0000000e+00 3.9500000e+01 
7.5000000e-01 3.0000000e+00 4.0000000e+01 
7.5000000e-01 3.0000000e+00 4.0500000e+01 
7.5000000e-01 3.0000000e+00 4.1000000e+01 
7.5000000e-01 3.0000000e+00 4.1500000e+01 
7.5000000e-01 3.0000000e+00 4.2000000e+01 
7.5000000e-01 3.0000000e+00 4.2500000e+01 
7.5000000e-01 3.0000000e+00 4.3000000e+01 
7.5000000e-01 3.0000000e+00 4.3500000e+01 
7.5000000e-01 3.0000000e+00 4.4000000e+01 
7.5000000e-01 3.0000000e+00 4.4500000e+01 
7.5000000e-01 3.0000000e+00 4.5000000e+01 
7.5000000e-01 3.0000000e+00 4.5500000e+01 
7.5000000e-01 3.0000000e+00 4.6000000e+01 
7.5000000e-01 3.0000000e+00 4.6500000e+01 
7.5000000e-01 3.0000000e+00 4.7000000e+01 
7.5000000e-01 3.0000000e+00 4.7500000e+01 
7.5000000e-01 3.0000000e+00 4.8000000e+01 
7.5000000e-01 3.0000000e+00 4.8500000e+01 
7.5000000e-01 3.0000000e+00 4.9000000e+01 
7.5000000e-01 3.0000000e+00 4.9500000e+01 
7.5000000e-01 3.0250001e+00 0.0000000e+00 
7.5000000e-01 3.0250001e+00 5.0000000e-01 
7.5000000e-01 3.0250001e+00 1.0000000e+00 
7.5000000e-01 3.0250001e+00 1.5000000e+00 
7.5000000e-01 3.0250001e+00 2.0000000e+00 
7.5000000e-01 3.0250001e+00 2.5000000e+00 
7.5000000e-01 3.0250001e+00 3.0000000e+00 
7.5000000e-01 3.0250001e+00 3.5000000e+00 
7.5000000e-01 3.0250001e+00 4.0000000e+00 
7.5000000e-01 3.0250001e+00 4.5000000e+00 
7.5000000e-01 3.0250001e+00 5.0000000e+00 
7.5000000e-01 3.0250001e+00 5.5000000e+00 
7.5000000e-01 3.0250001e+00 6.0000000e+00 
7.5000000e-01 3.0250001e+00 6.5000000e+00 
7.5000000e-01 3.0250001e+00 7.0000000e+00 
7.5000000e-01 3.0250001e+00 7.5000000e+00 
7.5000000e-01 3.0250001e+00 8.0000000e+00 
7.5000000e-01 3.0250001e+00 8.5000000e+00 
7.5000000e-01 3.0250001e+00 9.0000000e+00 
7.5000000e-01 3.0250001e+00 9.5000000e+00 
7.5000000e-01 3.0250001e+00 1.0000000e+01 
7.5000000e-01 3.0250001e+00 1.0500000e+01 
7.5000000e-01 3.0250001e+00 1.1000000e+01 
7.5000000e-01 3.0250001e+00 1.1500000e+01 
7.5000000e-01 3.0250001e+00 1.2000000e+01 
7.5000000e-01 3.0250001e+00 1.2500000e+01 
7.5000000e-01 3.0250001e+00 1.3000000e+01 
7.5000000e-01 3.0250001e+00 1.3500000e+01 
7.5000000e-01 3.0250001e+00 1.4000000e+01 
7.5000000e-01 3.0250001e+00 1.4500000e+01 
7.5000000e-01 3.0250001e+00 1.5000000e+01 
7.5000000e-01 3.0250001e+00 1.5500000e+01 
7.5000000e-01 3.0250001e+00 1.6000000e+01 
7.5000000e-01 3.0250001e+00 1.6500000e+01 
7.5000000e-01 3.0250001e+00 1.7000000e+01 
7.5000000e-01 3.0250001e+00 1.7500000e+01 
7.5000000e-01 3.0250001e+00 1.8000000e+01 
7.5000000e-01 3.0250001e+00 1.8500000e+01 
7.5000000e-01 3.0250001e+00 1.9000000e+01 
7.5000000e-01 3.0250001e+00 1.9500000e+01 
7.5000000e-01 3.0250001e+00 2.0000000e+01 
7.5000000e-01 3.0250001e+00 2.0500000e+01 
7.5000000e-01 3.0250001e+00 2.1000000e+01 
7.5000000e-01 3.0250001e+00 2.1500000e+01 
7.5000000e-01 3.0250001e+00 2.2000000e+01 
7.5000000e-01 3.0250001e+00 2.2500000e+01 
7.5000000e-01 3.0250001e+00 2.3000000e+01 
7.5000000e-01 3.0250001e+00 2.3500000e+01 
7.5000000e-01 3.0250001e+00 2.4000000e+01 
7.5000000e-01 3.0250001e+00 2.4500000e+01 
7.5000000e-01 3.0250001e+00 2.5000000e+01 
7.5000000e-01 3.0250001e+00 2.5500000e+01 
7.5000000e-01 3.0250001e+00 2.6000000e+01 
7.5000000e-01 3.0250001e+00 2.6500000e+01 
7.5000000e-01 3.0250001e+00 2.7000000e+01 
7.5000000e-01 3.0250001e+00 2.7500000e+01 
7.5000000e-01 3.0250001e+00 2.8000000e+01 
7.5000000e-01 3.0250001e+00 2.8500000e+01 
7.5000000e-01 3.0250001e+00 2.9000000e+01 
7.5000000e-01 3.0250001e+00 2.9500000e+01 
7.5000000e-01 3.0250001e+00 3.0000000e+01 
7.5000000e-01 3.0250001e+00 3.0500000e+01 
7.5000000e-01 3.0250001e+00 3.1000000e+01 
7.5000000e-01 3.0250001e+00 3.1500000e+01 
7.5000000e-01 3.0250001e+00 3.2000000e+01 
7.5000000e-01 3.0250001e+00 3.2500000e+01 
7.5000000e-01 3.0250001e+00 3.3000000e+01 
7.5000000e-01 3.0250001e+00 3.3500000e+01 
7.5000000e-01 3.0250001e+00 3.4000000e+01 
7.5000000e-01 3.0250001e+00 3.4500000e+01 
7.5000000e-01 3.0250001e+00 3.5000000e+01 
7.5000000e-01 3.0250001e+00 3.5500000e+01 
7.5000000e-01 3.0250001e+00 3.6000000e+01 
7.5000000e-01 3.0250001e+00 3.6500000e+01 
7.5000000e-01 3.0250001e+00 3.7000000e+01 
7.5000000e-01 3.0250001e+00 3.7500000e+01 
7.5000000e-01 3.0250001e+00 3.8000000e+01 
7.5000000e-01 3.0250001e+00 3.8500000e+01 
7.5000000e-01 3.0250001e+00 3.9000000e+01 
7.5000000e-01 3.0250001e+00 3.9500000e+01 
7.5000000e-01 3.0250001e+00 4.0000000e+01 
7.5000000e-01 3.0250001e+00 4.0500000e+01 
7.5000000e-01 3.0250001e+00 4.1000000e+01 
7.5000000e-01 3.0250001e+00 4.1500000e+01 
7.5000000e-01 3.0250001e+00 4.2000000e+01 
7.5000000e-01 3.0250001e+00 4.2500000e+01 
7.5000000e-01 3.0250001e+00 4.3000000e+01 
7.5000000e-01 3.0250001e+00 4.3500000e+01 
7.5000000e-01 3.0250001e+00 4.4000000e+01 
7.5000000e-01 3.0250001e+00 4.4500000e+01 
7.5000000e-01 3.0250001e+00 4.5000000e+01 
7.5000000e-01 3.0250001e+00 4.5500000e+01 
7.5000000e-01 3.0250001e+00 4.6000000e+01 
7.5000000e-01 3.0250001e+00 4.6500000e+01 
7.5000000e-01 3.0250001e+00 4.7000000e+01 
7.5000000e-01 3.0250001e+00 4.7500000e+01 
7.5000000e-01 3.0250001e+00 4.8000000e+01 
7.5000000e-01 3.0250001e+00 4.8500000e+01 
7.5000000e-01 3.0250001e+00 4.9000000e+01 
7.5000000e-01 3.0250001e+00 4.9500000e+01 
7.5000000e-01 3.0250001e+00 5.0000000e+01 
1.5000000e+00 3.0000000e+00 2.5000000e+01 
3.0000000e+00 2.0000000e+00 2.5000000e+01 
4.0000000e+00 2.0000000e+00 2.5000000e+01 
5.0000000e+00 2.0000000e+00 2.5000000e+01 
0.0000000e+00 3.0000000e+00 2.5000000e+01 
0.0000000e+00 0.0000000e+00 1.0000000e+00 
0.0000000e+00 0.0000000e+00 2.0000000e+00 
0.0000000e+00 0.0000000e+00 3.0000000e+00 
0.0000000e+00 0.0000000e+00 4.0000000e+00 
0.0000000e+00 0.0000000e+00 5.0000000e+00 
[...]
POINT_DATA 1920
FIELD FieldData 3
DISPLACEMENT 3 1920  float
0.0000000e+00 0.0000000e+00 0.0000000e+00 
0.0000000e+00 0.0000000e+00 0.0000000e+00 
0.0000000e+00 0.0000000e+00 0.0000000e+00 
0.0000000e+00 0.0000000e+00 0.0000000e+00 
-4.6341806e-06 5.4713519e-06 8.3951072e-06 
-6.1511023e-09 8.9233538e-08 -7.3626443e-09 
0.0000000e+00 -1.2210503e-05 0.0000000e+00 
0.0000000e+00 -2.5108213e-07 0.0000000e+00 
-1.6957399e-06 9.3217077e-06 5.5571372e-06 
-2.7423528e-07 3.2376988e-07 -3.1120737e-07 
1.2173499e-05 2.9072367e-05 -2.1531921e-06 
1.9521919e-07 2.8145879e-08 5.2166081e-07 
0.0000000e+00 -2.6610407e-05 0.0000000e+00 
0.0000000e+00 -3.9137200e-07 0.0000000e+00 
-1.5101865e-06 2.3901741e-05 -1.6188793e-05 
4.4655209e-07 -5.7708462e-07 7.5401118e-07 
-1.4350047e-05 6.1368235e-05 -2.3724897e-05 
2.6237903e-09 -1.4725057e-06 -2.8573521e-07 
0.0000000e+00 -5.8026370e-05 0.0000000e+00 
0.0000000e+00 -2.2351022e-08 0.0000000e+00 
-2.2618471e-05 6.5017841e-05 -1.5051194e-05 
-3.2342661e-05 7.4675168e-05 -5.8489964e-05 
-5.0648887e-05 8.6728913e-05 -1.0628424e-04 
-4.6883579e-05 9.8078279e-05 -1.3980153e-04 
-3.1537835e-05 1.0960067e-04 -1.6363470e-04 
-1.0552967e-05 1.2431794e-04 -1.2909142e-04 
-1.0008737e-05 1.4377806e-04 -1.1474211e-04 
-1.8212215e-05 1.6406117e-04 -1.0237610e-04 
-8.3922805e-06 1.7248365e-04 -8.2178500e-05 
-1.4689807e-05 1.4625904e-04 -3.7065445e-05 
-1.0245450e-05 5.0927552e-05 1.2457392e-05 
-9.7704069e-06 -1.5549840e-04 7.1720511e-05 
-3.5570254e-05 -5.3037313e-04 1.7580974e-04 
-8.5294363e-05 -1.1285997e-03 1.4183670e-04 
-1.4105641e-04 -1.9929023e-03 2.9177038e-04 
-2.2792438e-04 -3.0677458e-03 1.7910263e-04 
-2.9869488e-04 -4.1823033e-03 2.9940932e-04 
-2.9874651e-04 -4.8232032e-03 2.3228282e-04 
-3.3424489e-04 -4.6626260e-03 2.1925315e-04 
-3.3427691e-04 -4.3145944e-03 1.8168081e-04 
-3.4844136e-04 -4.2422512e-03 1.5876019e-04 
-3.9381802e-04 -4.3716016e-03 -1.4070245e-05 
-3.3461879e-04 -4.2301523e-03 -1.6580705e-04 
-2.5770202e-04 -3.2776755e-03 -1.5206961e-04 
-1.5189765e-04 -2.1012111e-03 -3.0798733e-04 
-8.4265201e-05 -1.0811676e-03 -1.5548183e-04 
-4.3492859e-05 -3.8354931e-04 -1.9008476e-04 
-2.0127105e-05 9.2411392e-06 -1.4352573e-04 
1.3038669e-05 1.7375650e-04 -1.6044399e-04 
3.1491491e-05 1.9735268e-04 -1.4195676e-04 
5.7423124e-05 1.5458908e-04 -8.0504462e-05 
5.2251129e-05 9.3101124e-05 -2.3599585e-05 
2.7999426e-05 3.9402479e-05 6.3171901e-05 
1.4081883e-05 3.7408429e-06 7.9540769e-05 
9.0183530e-06 -1.2862296e-05 8.7133456e-05 
-8.5316942e-06 -1.4462563e-05 7.0475406e-05 
-1.0878437e-05 -6.2083873e-06 4.1768231e-05 
-1.4221117e-05 6.3774996e-06 9.4309989e-06 
-2.0115000e-05 2.0526493e-05 -1.0931947e-05 
-1.4736959e-05 3.5290876e-05 -2.2268065e-05 
-2.6291735e-05 4.9085651e-05 -3.8452417e-05 
-4.2787542e-05 6.0557235e-05 -4.9552022e-05 
-5.2510077e-05 6.9987844e-05 -7.6133336e-05 
-1.8077781e-05 8.1984988e-05 -9.5977797e-05 
-2.2616256e-05 1.0112756e-04 -1.3977617e-04 
-2.8630810e-05 1.2827822e-04 -1.4193490e-04 
3.5023491e-05 1.5899877e-04 -1.1999947e-04 
6.6487746e-06 1.8436507e-04 -9.6019918e-05 
3.9540850e-05 1.9001485e-04 -4.8022499e-05 
-3.3497461e-05 1.5257462e-04 -2.9545881e-05 
3.7292797e-05 4.4177603e-05 2.1242384e-05 
-2.3400666e-05 -1.8566544e-04 6.5332162e-05 
-4.6188950e-05 -6.0174981e-04 1.8746473e-04 
-8.7293440e-05 -1.2571918e-03 1.7978242e-04 
-1.5969371e-04 -2.1870134e-03 3.2036746e-04 
-2.4133187e-04 -3.3053071e-03 1.5298907e-04 
-3.1248396e-04 -4.3954779e-03 2.7325883e-04 
-3.8953373e-04 -4.8808903e-03 2.0974492e-04 
-3.8543565e-04 -4.6474882e-03 1.4319221e-04 
-3.6133424e-04 -4.3320600e-03 1.5192571e-04 
-3.5731727e-04 -4.3221563e-03 1.0511893e-04 
-3.7992498e-04 -4.4314004e-03 -2.1337664e-05 
-3.2354068e-04 -4.1214335e-03 -1.9518824e-04 
-2.5164580e-04 -3.0573693e-03 -1.7340395e-04 
-1.4590732e-04 -1.8858421e-03 -3.0892494e-04 
-6.8147267e-05 -9.2405139e-04 -1.6198489e-04 
-3.1658692e-05 -2.9679021e-04 -1.9303767e-04 
-9.9282897e-06 4.0762232e-05 -1.3333390e-04 
2.3887254e-05 1.7071668e-04 -1.5003262e-04 
3.4376775e-05 1.8206130e-04 -1.2200638e-04 
5.3159416e-05 1.4464608e-04 -5.4239026e-05 
4.3006294e-05 9.7018950e-05 -8.3695313e-06 
9.3028821e-06 5.6270768e-05 5.0558621e-05 
-4.4305143e-06 2.7758229e-05 5.6951903e-05 
-1.4585868e-05 1.1346932e-05 4.8761722e-05 
-1.6431799e-05 4.0303971e-06 2.4608420e-05 
-1.0610120e-05 1.8986481e-06 1.2494454e-05 
-6.7495621e-06 1.4274997e-06 -6.2893105e-06 
9.5165541e-07 1.1665990e-06 -7.8691528e-06 
3.3672675e-06 3.5283651e-07 -1.1189320e-05 
2.3504172e-06 -1.9627457e-06 -3.9775164e-06 
8.3527908e-07 -4.8941042e-06 -1.0792851e-06 
9.2644501e-07 -7.2936923e-06 -1.0655702e-06 
5.9222980e-08 -7.2582015e-06 2.6788271e-06 
-3.8983967e-07 -3.8686244e-06 1.3568614e-06 
-5.0918612e-07 1.1643431e-06 2.5933576e-07 
-7.3232326e-07 5.4082825e-06 1.3993468e-06 
-1.3515321e-07 6.5760328e-06 -1.3450606e-06 
4.6229999e-07 4.0162458e-06 -6.4840719e-07 
5.2217985e-07 -2.0412195e-07 5.0083025e-07 
4.1660911e-08 -3.4382454e-06 -6.3814730e-07 
-2.5731418e-07 -4.1130006e-06 3.7827641e-07 
-1.6856359e-07 -2.2187423e-06 4.0796212e-07 
-1.7267857e-07 5.3437026e-07 -7.0764685e-07 
-3.0722811e-07 2.3479772e-06 6.1813137e-07 
2.5382172e-07 2.5994386e-06 -4.0645165e-07 
-2.0458873e-07 1.5790087e-06 -3.8063561e-08 
2.5329999e-07 1.0757682e-07 8.8495732e-08 
-1.8330817e-07 -1.0361618e-06 2.6862531e-07 
0.0000000e+00 6.1479164e-05 0.0000000e+00 
0.0000000e+00 6.5169843e-05 0.0000000e+00 
0.0000000e+00 7.4695898e-05 0.0000000e+00 
0.0000000e+00 8.6538625e-05 0.0000000e+00 
0.0000000e+00 9.7950309e-05 0.0000000e+00 
0.0000000e+00 1.0961574e-04 0.0000000e+00 
0.0000000e+00 1.2451741e-04 0.0000000e+00 
0.0000000e+00 1.4414590e-04 0.0000000e+00 
0.0000000e+00 1.6453766e-04 0.0000000e+00 
0.0000000e+00 1.7300459e-04 0.0000000e+00 
0.0000000e+00 1.4660065e-04 0.0000000e+00 
0.0000000e+00 5.1643550e-05 0.0000000e+00 
0.0000000e+00 -1.5559660e-04 0.0000000e+00 
0.0000000e+00 -5.3121609e-04 0.0000000e+00 
0.0000000e+00 -1.1335847e-03 0.0000000e+00 
0.0000000e+00 -1.9994327e-03 0.0000000e+00 
0.0000000e+00 -3.0857478e-03 0.0000000e+00 
0.0000000e+00 -4.2005717e-03 0.0000000e+00 
0.0000000e+00 -4.8541157e-03 0.0000000e+00 
0.0000000e+00 -4.6864636e-03 0.0000000e+00 
0.0000000e+00 -4.3419749e-03 0.0000000e+00 
0.0000000e+00 -4.2636204e-03 0.0000000e+00 
0.0000000e+00 -4.4014202e-03 0.0000000e+00 
0.0000000e+00 -4.2518321e-03 0.0000000e+00 
0.0000000e+00 -3.3028394e-03 0.0000000e+00 
0.0000000e+00 -2.1123276e-03 0.0000000e+00 
0.0000000e+00 -1.0897813e-03 0.0000000e+00 
0.0000000e+00 -3.8621289e-04 0.0000000e+00 
0.0000000e+00 9.2037862e-06 0.0000000e+00 
0.0000000e+00 1.7471558e-04 0.0000000e+00 
0.0000000e+00 1.9886610e-04 0.0000000e+00 
0.0000000e+00 1.5568221e-04 0.0000000e+00 
0.0000000e+00 9.3834497e-05 0.0000000e+00 
0.0000000e+00 3.9784511e-05 0.0000000e+00 
0.0000000e+00 3.9379647e-06 0.0000000e+00 
0.0000000e+00 -1.2817993e-05 0.0000000e+00 
0.0000000e+00 -1.4418137e-05 0.0000000e+00 
0.0000000e+00 -6.3219559e-06 0.0000000e+00 
0.0000000e+00 6.2977283e-06 0.0000000e+00 
0.0000000e+00 2.0580017e-05 0.0000000e+00 
0.0000000e+00 3.5304201e-05 0.0000000e+00 
0.0000000e+00 4.9036338e-05 0.0000000e+00 
0.0000000e+00 6.0385206e-05 0.0000000e+00 
0.0000000e+00 6.9983915e-05 0.0000000e+00 
0.0000000e+00 8.2123988e-05 0.0000000e+00 
0.0000000e+00 1.0134575e-04 0.0000000e+00 
0.0000000e+00 1.2845607e-04 0.0000000e+00 
0.0000000e+00 1.5922759e-04 0.0000000e+00 
0.0000000e+00 1.8474011e-04 0.0000000e+00 
0.0000000e+00 1.9019606e-04 0.0000000e+00 
0.0000000e+00 1.5374058e-04 0.0000000e+00 
0.0000000e+00 4.4892135e-05 0.0000000e+00 
0.0000000e+00 -1.8625274e-04 0.0000000e+00 
0.0000000e+00 -6.0291175e-04 0.0000000e+00 
0.0000000e+00 -1.2633075e-03 0.0000000e+00 
0.0000000e+00 -2.1944274e-03 0.0000000e+00 
0.0000000e+00 -3.3247781e-03 0.0000000e+00 
0.0000000e+00 -4.4149016e-03 0.0000000e+00 
0.0000000e+00 -4.9136155e-03 0.0000000e+00 
0.0000000e+00 -4.6686577e-03 0.0000000e+00 
0.0000000e+00 -4.3610269e-03 0.0000000e+00 
0.0000000e+00 -4.3418705e-03 0.0000000e+00 
0.0000000e+00 -4.4624149e-03 0.0000000e+00 
0.0000000e+00 -4.1429647e-03 0.0000000e+00 
0.0000000e+00 -3.0809110e-03 0.0000000e+00 
0.0000000e+00 -1.8957210e-03 0.0000000e+00 
0.0000000e+00 -9.3190896e-04 0.0000000e+00 
0.0000000e+00 -2.9837087e-04 0.0000000e+00 
0.0000000e+00 4.0910156e-05 0.0000000e+00 
0.0000000e+00 1.7192551e-04 0.0000000e+00 
0.0000000e+00 1.8375530e-04 0.0000000e+00 
0.0000000e+00 1.4572733e-04 0.0000000e+00 
0.0000000e+00 9.7530101e-05 0.0000000e+00 
0.0000000e+00 5.6495672e-05 0.0000000e+00 
0.0000000e+00 2.7905146e-05 0.0000000e+00 
0.0000000e+00 1.1404644e-05 0.0000000e+00 
0.0000000e+00 4.0195482e-06 0.0000000e+00 
0.0000000e+00 1.7956207e-06 0.0000000e+00 
0.0000000e+00 1.3808367e-06 0.0000000e+00 
0.0000000e+00 1.1671136e-06 0.0000000e+00 
0.0000000e+00 2.6183275e-07 0.0000000e+00 
0.0000000e+00 -1.9630922e-06 0.0000000e+00 
0.0000000e+00 -4.9041000e-06 0.0000000e+00 
0.0000000e+00 -7.2352937e-06 0.0000000e+00 
0.0000000e+00 -7.1363420e-06 0.0000000e+00 
0.0000000e+00 -3.8645994e-06 0.0000000e+00 
0.0000000e+00 1.1208282e-06 0.0000000e+00 
0.0000000e+00 5.3199547e-06 0.0000000e+00 
0.0000000e+00 6.4580358e-06 0.0000000e+00 
0.0000000e+00 4.0246246e-06 0.0000000e+00 
0.0000000e+00 -1.1272477e-07 0.0000000e+00 
0.0000000e+00 -3.3608615e-06 0.0000000e+00 
0.0000000e+00 -4.0589507e-06 0.0000000e+00 
0.0000000e+00 -2.2499378e-06 0.0000000e+00 
0.0000000e+00 4.5285853e-07 0.0000000e+00 
0.0000000e+00 2.3156970e-06 0.0000000e+00 
0.0000000e+00 2.6089995e-06 0.0000000e+00 
0.0000000e+00 1.6112306e-06 0.0000000e+00 
0.0000000e+00 1.3489233e-07 0.0000000e+00 
0.0000000e+00 -1.0419003e-06 0.0000000e+00 
0.0000000e+00 -1.4855094e-06 0.0000000e+00 
6.0292209e-06 -8.8688750e-05 2.2081544e-05 
4.0044564e-05 -9.1696507e-05 -7.1598492e-06 
8.3806473e-05 -3.7646256e-05 -1.8428220e-05 
7.5836229e-05 -1.2248179e-05 -1.9868987e-05 
0.0000000e+00 4.0659239e-04 0.0000000e+00 
0.0000000e+00 0.0000000e+00 0.0000000e+00 
0.0000000e+00 0.0000000e+00 0.0000000e+00 
0.0000000e+00 0.0000000e+00 0.0000000e+00 
0.0000000e+00 0.0000000e+00 0.0000000e+00 
0.0000000e+00 0.0000000e+00 0.0000000e+00 
0.0000000e+00 0.0000000e+00 0.0000000e+00 
0.0000000e+00 0.0000000e+00 0.0000000e+00 
0.0000000e+00 0.0000000e+00 0.0000000e+00 
0.0000000e+00 0.0000000e+00 0.0000000e+00 
0.0000000e+00 0.0000000e+00 0.0000000e+00 
0.0000000e+00 0.0000000e+00 0.0000000e+00 
0.0000000e+00 0.0000000e+00 0.0000000e+00 
0.0000000e+00 0.0000000e+00 0.0000000e+00 
0.0000000e+00 0.0000000e+00 0.0000000e+00 
0.0000000e+00 0.0000000e+00 0.0000000e+00 
0.0000000e+00 0.0000000e+00 0.0000000e+00 
0.0000000e+00 0.0000000e+00 0.0000000e+00 
0.0000000e+00 0.0000000e+00 0.0000000e+00 
0.0000000e+00 0.0000000e+00 0.0000000e+00 
0.0000000e+00 0.0000000e+00 0.0000000e+00 
0.0000000e+00 0.0000000e+00 0.0000000e+00 
0.0000000e+00 0.0000000e+00 0.0000000e+00 
0.0000000e+00 0.0000000e+00 0.0000000e+00 
0.0000000e+00 0.0000000e+00 0.0000000e+00 
0.0000000e+00 0.0000000e+00 0.0000000e+00 
0.0000000e+00 0.0000000e+00 0.0000000e+00 
0.0000000e+00 0.0000000e+00 0.0000000e+00 
0.0000000e+00 0.0000000e+00 0.0000000e+00 
0.0000000e+00 0.0000000e+00 0.0000000e+00 
0.0000000e+00 0.0000000e+00 0.0000000e+00 
0.0000000e+00 0.0000000e+00 0.0000000e+00 
0.0000000e+00 0.0000000e+00 0.0000000e+00 
0.0000000e+00 0.0000000e+00 0.0000000e+00 
0.0000000e+00 0.0000000e+00 0.0000000e+00 
0.0000000e+00 0.0000000e+00 0.0000000e+00 
0.0000000e+00 0.0000000e+00 0.0000000e+00 
0.0000000e+00 0.0000000e+00 0.0000000e+00 
0.0000000e+00 0.0000000e+00 0.0000000e+00 
0.0000000e+00 0.0000000e+00 0.0000000e+00 
0.0000000e+00 0.0000000e+00 0.0000000e+00 
0.0000000e+00 0.0000000e+00 0.0000000e+00 
0.0000000e+00 0.0000000e+00 0.0000000e+00 
0.0000000e+00 0.0000000e+00 0.0000000e+00 
0.0000000e+00 0.0000000e+00 0.0000000e+00 
0.0000000e+00 0.0000000e+00 0.0000000e+00 
0.0000000e+00 0.0000000e+00 0.0000000e+00 
0.0000000e+00 0.0000000e+00 0.0000000e+00 
0.0000000e+00 0.0000000e+00 0.0000000e+00 
0.0000000e+00 0.0000000e+00 0.0000000e+00 
0.0000000e+00 0.0000000e+00 0.0000000e+00 
0.0000000e+00 0.0000000e+00 0.0000000e+00 
0.0000000e+00 0.0000000e+00 0.0000000e+00 
0.0000000e+00 0.0000000e+00 0.0000000e+00 
0.0000000e+00 0.0000000e+00 0.0000000e+00 
0.0000000e+00 0.0000000e+00 0.0000000e+00 
0.0000000e+00 0.0000000e+00 0.0000000e+00 
0.0000000e+00 0.0000000e+00 0.0000000e+00 
0.0000000e+00 0.0000000e+00 0.0000000e+00 
0.0000000e+00 0.0000000e+00 0.0000000e+00 
0.0000000e+00 0.0000000e+00 0.0000000e+00 
0.0000000e+00 0.0000000e+00 0.0000000e+00 
0.0000000e+00 0.0000000e+00 0.0000000e+00 
0.0000000e+00 0.0000000e+00 0.0000000e+00 
0.0000000e+00 0.0000000e+00 0.0000000e+00 
0.0000000e+00 0.0000000e+00 0.0000000e+00 
0.0000000e+00 0.0000000e+00 0.0000000e+00 
0.0000000e+00 0.0000000e+00 0.0000000e+00 
0.0000000e+00 0.0000000e+00 0.0000000e+00 
0.0000000e+00 0.0000000e+00 0.0000000e+00 
0.0000000e+00 0.0000000e+00 0.0000000e+00 
0.0000000e+00 0.0000000e+00 0.0000000e+00 
0.0000000e+00 0.0000000e+00 0.0000000e+00 
0.0000000e+00 0.0000000e+00 0.0000000e+00 
0.0000000e+00 0.0000000e+00 0.0000000e+00 
0.0000000e+00 0.0000000e+00 0.0000000e+00 
0.0000000e+00 0.0000000e+00 0.0000000e+00 
0.0000000e+00 0.0000000e+00 0.0000000e+00 
0.0000000e+00 0.0000000e+00 0.0000000e+00 
0.0000000e+00 0.0000000e+00 0.0000000e+00 
0.0000000e+00 0.0000000e+00 0.0000000e+00 
0.0000000e+00 0.0000000e+00 0.0000000e+00 
0.0000000e+00 0.0000000e+00 0.0000000e+00 
0.0000000e+00 0.0000000e+00 0.0000000e+00 
0.0000000e+00 0.0000000e+00 0.0000000e+00 
0.0000000e+00 0.0000000e+00 0.0000000e+00 
0.0000000e+00 0.0000000e+00 0.0000000e+00 
0.0000000e+00 0.0000000e+00 0.0000000e+00 
0.0000000e+00 0.0000000e+00 0.0000000e+00 
0.0000000e+00 0.0000000e+00 0.0000000e+00 
0.0000000e+00 0.0000000e+00 0.0000000e+00 
0.0000000e+00 0.0000000e+00 0.0000000e+00 
0.0000000e+00 0.0000000e+00 0.0000000e+00 
0.0000000e+00 0.0000000e+00 0.0000000e+00 
0.0000000e+00 0.0000000e+00 0.0000000e+00 
0.0000000e+00 0.0000000e+00 0.0000000e+00 
0.0000000e+00 0.0000000e+00 0.0000000e+00 
0.0000000e+00 0.0000000e+00 0.0000000e+00 
0.0000000e+00 0.0000000e+00 0.0000000e+00 
0.0000000e+00 0.0000000e+00 0.0000000e+00 
0.0000000e+00 0.0000000e+00 0.0000000e+00 
0.0000000e+00 0.0000000e+00 0.0000000e+00 
0.0000000e+00 0.0000000e+00 0.0000000e+00 
0.0000000e+00 0.0000000e+00 0.0000000e+00 
0.0000000e+00 0.0000000e+00 0.0000000e+00 
0.0000000e+00 0.0000000e+00 0.0000000e+00 
0.0000000e+00 0.0000000e+00 0.0000000e+00 
5.9688650e-06 7.3146366e-06 -1.2735223e-06 
1.4272981e-05 6.7462274e-06 -1.3378681e-05 
1.9423045e-05 5.2852856e-06 -2.2392531e-05 
2.6245512e-05 -7.9491847e-06 -2.6165044e-05 
3.4190314e-05 -1.7899398e-05 -2.0135380e-05 
4.4099423e-05 -2.0914043e-05 -1.4127794e-05 
5.5471370e-05 -2.2286476e-05 -4.9985724e-06 
6.2931729e-05 -2.1994292e-05 5.9640947e-06 
6.7907553e-05 -8.2575034e-06 1.8826160e-05 
6.6217326e-05 8.1771113e-06 2.2521855e-05 
5.3063555e-05 3.1343313e-06 1.3810940e-05 
3.4917321e-05 -4.4805433e-06 2.1347009e-06 
1.3809041e-05 -3.6565784e-06 -1.6351531e-05 
1.8762131e-06 6.1638320e-07 -2.3933009e-05 
-9.1104976e-06 -2.0218283e-06 -1.7214998e-05 
-1.0636374e-05 5.8378077e-07 -7.4574859e-07 
-8.3985196e-06 1.0687327e-06 1.9747573e-05 
-4.3017894e-06 4.4157805e-06 2.7603370e-05 
-1.3869906e-06 5.4994653e-06 2.5484098e-05 
3.1042732e-06 -5.0793017e-07 1.4518432e-05 
6.5586210e-06 2.2645904e-06 -1.3119416e-06 
1.0306792e-05 7.7880904e-06 -1.4322425e-05 
2.1171320e-05 3.5253145e-06 -2.3680766e-05 
4.0413099e-05 -3.6549493e-06 -2.4858795e-05 
5.3071955e-05 -1.4531488e-05 -1.8109369e-05 
5.8469432e-05 -1.5754524e-05 -9.5466958e-06 
6.1222461e-05 -1.5755399e-05 1.5876559e-06 
6.4216176e-05 -1.9208803e-05 1.2518291e-05 
6.6699278e-05 -1.2597457e-05 1.7467322e-05 
6.2908060e-05 1.9888409e-06 2.1357513e-05 
4.8510086e-05 9.1110633e-06 1.3196286e-05 
2.6902637e-05 -6.5500453e-06 2.1226986e-06 
8.9337927e-06 -3.3887470e-06 -1.1785060e-05 
-4.1074068e-06 -2.0443399e-06 -2.2190236e-05 
-8.2920851e-06 -1.0924531e-06 -1.9449893e-05 
-8.5568327e-06 1.6948317e-06 -6.9380653e-06 
-9.6279757e-07 5.1721067e-06 1.5499400e-06 
2.3923442e-06 5.9621061e-07 8.1926573e-06 
2.2782133e-06 -1.6359211e-06 9.2459313e-06 
7.4662847e-07 -2.4355820e-06 4.1669214e-06 
-1.7601995e-07 -2.0469890e-06 -9.8270027e-07 
7.7155943e-07 -1.6631788e-07 -1.0890661e-06 
-4.8098491e-07 1.8521930e-06 2.3274322e-07 
-5.3364846e-07 4.3268497e-07 3.4256880e-07 
2.8840927e-07 -1.0242528e-06 4.5041477e-07 
1.6919165e-07 -3.6968052e-07 2.3467912e-08 
-1.1646442e-08 1.7194120e-07 -4.5220321e-07 
-1.3283955e-07 3.0767407e-07 -1.7388012e-07 
9.8218635e-08 -3.9923455e-07 1.5059788e-07 
0.0000000e+00 2.2450944e-05 0.0000000e+00 
0.0000000e+00 9.9196943e-05 0.0000000e+00 
0.0000000e+00 1.6525498e-04 0.0000000e+00 
0.0000000e+00 2.0247337e-04 0.0000000e+00 
0.0000000e+00 2.1035117e-04 0.0000000e+00 
0.0000000e+00 1.6539184e-04 0.0000000e+00 
0.0000000e+00 1.6688438e-05 0.0000000e+00 
0.0000000e+00 -1.6285924e-04 0.0000000e+00 
0.0000000e+00 -3.0834193e-04 0.0000000e+00 
0.0000000e+00 -3.9960287e-04 0.0000000e+00 
0.0000000e+00 -4.0117450e-04 0.0000000e+00 
0.0000000e+00 -3.2611817e-04 0.0000000e+00 
0.0000000e+00 -1.6541137e-04 0.0000000e+00 
0.0000000e+00 -5.4961263e-05 0.0000000e+00 
0.0000000e+00 -1.6864266e-06 0.0000000e+00 
0.0000000e+00 4.5978206e-05 0.0000000e+00 
0.0000000e+00 3.8132082e-05 0.0000000e+00 
0.0000000e+00 -1.9875319e-05 0.0000000e+00 
0.0000000e+00 -3.4388853e-05 0.0000000e+00 
0.0000000e+00 -1.0765676e-05 0.0000000e+00 
0.0000000e+00 4.3583841e-05 0.0000000e+00 
0.0000000e+00 9.5519012e-05 0.0000000e+00 
0.0000000e+00 1.3997599e-04 0.0000000e+00 
0.0000000e+00 1.8380310e-04 0.0000000e+00 
0.0000000e+00 1.8248288e-04 0.0000000e+00 
0.0000000e+00 1.4796558e-04 0.0000000e+00 
0.0000000e+00 8.2161105e-06 0.0000000e+00 
0.0000000e+00 -1.5034432e-04 0.0000000e+00 
0.0000000e+00 -2.6110094e-04 0.0000000e+00 
0.0000000e+00 -3.4400320e-04 0.0000000e+00 
0.0000000e+00 -4.0611543e-04 0.0000000e+00 
0.0000000e+00 -3.4479494e-04 0.0000000e+00 
0.0000000e+00 -1.7308244e-04 0.0000000e+00 
0.0000000e+00 -4.3104970e-05 0.0000000e+00 
0.0000000e+00 5.8598084e-07 0.0000000e+00 
0.0000000e+00 3.8365262e-05 0.0000000e+00 
0.0000000e+00 2.2939914e-05 0.0000000e+00 
0.0000000e+00 6.5117155e-07 0.0000000e+00 
0.0000000e+00 -1.0195906e-05 0.0000000e+00 
0.0000000e+00 -7.0468182e-06 0.0000000e+00 
0.0000000e+00 4.8601155e-06 0.0000000e+00 
0.0000000e+00 2.2282063e-06 0.0000000e+00 
0.0000000e+00 -9.6817348e-07 0.0000000e+00 
0.0000000e+00 -4.0103689e-07 0.0000000e+00 
0.0000000e+00 6.8165593e-07 0.0000000e+00 
0.0000000e+00 -7.1495798e-08 0.0000000e+00 
0.0000000e+00 -4.5783216e-07 0.0000000e+00 
0.0000000e+00 9.2277207e-07 0.0000000e+00 
0.0000000e+00 5.3728672e-07 0.0000000e+00 
1.4154628e-07 9.9098170e-06 9.5485973e-07 
6.3968141e-06 1.4847402e-05 3.9298075e-06 
1.0333433e-05 1.2672649e-05 1.1170090e-05 
5.1573752e-06 5.9822275e-07 7.7965851e-06 
1.0190177e-07 -1.8914780e-07 6.5892628e-08 
-1.7793532e-08 2.2043838e-07 1.4587378e-07 
-6.9705493e-08 2.5841132e-07 -1.7285352e-07 
1.0355717e-07 5.2800715e-09 -5.1821843e-08 
9.2079872e-06 1.8175830e-05 -6.4875426e-06 
1.7175773e-07 4.6084747e-08 6.1454228e-09 
-3.6117169e-07 1.2864855e-05 -5.5627884e-06 
7.0448782e-06 1.9712348e-05 1.0593428e-07 
0.0000000e+00 3.3463599e-05 0.0000000e+00 
0.0000000e+00 1.4290665e-04 0.0000000e+00 
0.0000000e+00 2.6852216e-04 0.0000000e+00 
0.0000000e+00 3.4769360e-04 0.0000000e+00 
0.0000000e+00 3.7322546e-04 0.0000000e+00 
0.0000000e+00 2.5966283e-04 0.0000000e+00 
0.0000000e+00 -3.2311407e-05 0.0000000e+00 
0.0000000e+00 -4.3301060e-04 0.0000000e+00 
0.0000000e+00 -7.4748922e-04 0.0000000e+00 
0.0000000e+00 -8.7492861e-04 0.0000000e+00 
0.0000000e+00 -9.2483347e-04 0.0000000e+00 
0.0000000e+00 -6.9219450e-04 0.0000000e+00 
0.0000000e+00 -3.0807542e-04 0.0000000e+00 
0.0000000e+00 -9.0102207e-05 0.0000000e+00 