# vtk DataFile Version 4.0
vtk output
ASCII
DATASET UNSTRUCTURED_GRID
POINTS 1920 float
0.0000000e+00 0.0000000e+00 0.0000000e+00 
0.0000000e+00 0.0000000e+00 5.0000000e+01 
5.0000000e+00 0.0000000e+00 0.0000000e+00 
5.0000000e+00 0.0000000e+00 5.0000000e+01 
5.0000000e+00 1.0000000e+00 0.0000000e+00 
5.0000000e+00 1.0000000e+00 5.0000000e+01 
0.0000000e+00 1.0000000e+00 0.0000000e+00 
0.0000000e+00 1.0000000e+00 5.0000000e+01 
5.0000000e+00 2.0000000e+00 0.0000000e+00 
5.0000000e+00 2.0000000e+00 5.0000000e+01 
3.0000000e+00 2.0000000e+00 0.0000000e+00 
3.0000000e+00 2.0000000e+00 5.0000000e+01 
0.0000000e+00 2.0000000e+00 0.0000000e+00 
0.0000000e+00 2.0000000e+00 5.0000000e+01 
1.5000000e+00 3.0000000e+00 0.0000000e+00 
1.5000000e+00 3.0000000e+00 5.0000000e+01 
7.5000000e-01 3.0000000e+00 0.0000000e+00 
7.5000000e-01 3.0000000e+00 5.0000000e+01 
0.0000000e+00 3.0000000e+00 0.0000000e+00 
0.0000000e+00 3.0000000e+00 5.0000000e+01 
7.5000000e-01 3.0000000e+00 5.0000000e-01 
7.5000000e-01 3.0000000e+00 1.0000000e+00 
7.5000000e-01 3.0000000e+00 1.5000000e+00 
7.5000000e-01 3.0000000e+00 2.0000000e+00 
7.5000000e-01 3.0000000e+00 2.5000000e+00 
7.5000000e-01 3.0000000e+00 3.0000000e+00 
7.5000000e-01 3.0000000e+00 3.5000000e+00 
7.5000000e-01 3.0000000e+00 4.0000000e+00 
7.5000000e-01 3.0000000e+00 4.5000000e+00 
7.5000000e-01 3.0000000e+00 5.0000000e+00 
7.5000000e-01 3.0000000e+00 5.5000000e+00 
7.5000000e-01 3.0000000e+00 6.0000000e+00 
7.5000000e-01 3.0000000e+00 6.5000000e+00 
7.5000000e-01 3.0000000e+00 7.0000000e+00 
7.5000000e-01 3.0000000e+00 7.5000000e+00 
7.5000000e-01 3.0000000e+00 8.0000000e+00 
7.5000000e-01 3.0000000e+00 8.5000000e+00 
7.5000000e-01 3.0000000e+00 9.0000000e+00 
7.5000000e-01 3.0000000e+00 9.5000000e+00 
7.5000000e-01 3.0000000e+00 1.0000000e+01 
7.5000000e-01 3.0000000e+00 1.0500000e+01 
7.5000000e-01 3.0000000e+00 1.1000000e+01 
7.5000000e-01 3.0000000e+00 1.1500000e+01 
7.5000000e-01 3.0000000e+00 1.2000000e+01 
7.5000000e-01 3.0000000e+00 1.2500000e+01 
7.5000000e-01 3.0000000e+00 1.3000000e+01 
7.5000000e-01 3.0000000e+00 1.3500000e+01 
7.5000000e-01 3.0000000e+00 1.4000000e+01 
7.5000000e-01 3.0000000e+00 1.4500000e+01 
7.5000000e-01 3.0000000e+00 1.5000000e+01 
7.5000000e-01 3.0000000e+00 1.5500000e+01 
7.5000000e-01 3.0000000e+00 1.6000000e+01 
7.5000000e-01 3.0000000e+00 1.6500000e+01 
7.5000000e-01 3.0000000e+00 1.7000000e+01 
7.5000000e-01 3.0000000e+00 1.7500000e+01 
7.5000000e-01 3.0000000e+00 1.8000000e+01 
7.5000000e-01 3.0000000e+00 1.8500000e+01 
7.5000000e-01 3.0000000e+00 1.9000000e+01 
7.5000000e-01 3.0000000e+00 1.9500000e+01 
7.5000000e-01 3.0000000e+00 2.0000000e+01 
7.5000000e-01 3.0000000e+00 2.0500000e+01 
7.5000000e-01 3.0000000e+00 2.1000000e+01 
7.5000000e-01 3.0000000e+00 2.1500000e+01 
7.5000000e-01 3.0000000e+00 2.2000000e+01 
7.5000000e-01 3.0000000e+00 2.2500000e+01 
7.5000000e-01 3.0000000e+00 2.3000000e+01 
7.5000000e-01 3.0000000e+00 2.3500000e+01 
7.5000000e-01 3.0000000e+00 2.4000000e+01 
7.5000000e-01 3.0000000e+00 2.4500000e+01 
7.5000000e-01 3.0000000e+00 2.5000000e+01 
7.5000000e-01 3.0000000e+00 2.5500000e+01 
7.5000000e-01 3.0000000e+00 2.6000000e+01 
7.5000000e-01 3.0000000e+00 2.6500000e+01 
7.5000000e-01 3.0000000e+00 2.7000000e+01 
7.5000000e-01 3.0000000e+00 2.7500000e+01 
7.5000000e-01 3.0000000e+00 2.8000000e+01 
7.5000000e-01 3.0000000e+00 2.8500000e+01 
7.5000000e-01 3.0000000e+00 2.9000000e+01 
7.5000000e-01 3.0000000e+00 2.9500000e+01 
7.5000000e-01 3.0000000e+00 3.0000000e+01 
7.5000000e-01 3.0000000e+00 3.0500000e+01 
7.5000000e-01 3.0000000e+00 3.1000000e+01 
7.5000000e-01 3.0000000e+00 3.1500000e+01 
7.5000000e-01 3.0000000e+00 3.2000000e+01 
7.5000000e-01 3.0000000e+00 3.2500000e+01 
7.5000000e-01 3.0000000e+00 3.3000000e+01 
7.5000000e-01 3.0000000e+00 3.3500000e+01 
7.5000000e-01 3.0000000e+00 3.4000000e+01 
7.5000000e-01 3.0000000e+00 3.4500000e+01 
7.5000000e-01 3.0000000e+00 3.5000000e+01 
7.5000000e-01 3.0000000e+00 3.5500000e+01 
7.5000000e-01 3.0000000e+00 3.6000000e+01 
7.5000000e-01 3.0000000e+00 3.6500000e+01 
7.5000000e-01 3.0000000e+00 3.7000000e+01 
7.5000000e-01 3.0000000e+00 3.7500000e+01 
7.5000000e-01 3.0000000e+00 3.8000000e+01 
7.5000000e-01 3.0000000e+00 3.8500000e+01 
7.5000000e-01 3.0000000e+00 3.9000000e+01 
7.5000000e-01 3.0000000e+00 3.9500000e+01 
7.5000000e-01 3.0000000e+00 4.0000000e+01 
7.5000000e-01 3.0000000e+00 4.0500000e+01 
7.5000000e-01 3.0000000e+00 4.1000000e+01 
7.5000000e-01 3.0000000e+00 4.1500000e+01 
7.5000000e-01 3.0000000e+00 4.2000000e+01 
7.5000000e-01 3.0000000e+00 4.2500000e+01 
7.5000000e-01 3.0000000e+00 4.3000000e+01 
7.5000000e-01 3.0000000e+00 4.3500000e+01 
7.5000000e-01 3.0000000e+00 4.4000000e+01 
7.5000000e-01 3.0000000e+00 4.4500000e+01 
7.5000000e-01 3.0000000e+00 4.5000000e+01 
7.5000000e-01 3.0000000e+00 4.5500000e+01 
7.5000000e-01 3.0000000e+00 4.6000000e+01 
7.5000000e-01 3.0000000e+00 4.6500000e+01 
7.5000000e-01 3.0000000e+00 4.7000000e+01 
7.5000000e-01 3.0000000e+00 4.7500000e+01 
7.5000000e-01 3.0000000e+00 4.8000000e+01 
7.5000000e-01 3.0000000e+00 4.8500000e+01 
7.5000000e-01 3.0000000e+00 4.9000000e+01 
7.5000000e-01 3.0000000e+00 4.9500000e+01 
7.5000000e-01 3.0250001e+00 0.0000000e+00 
7.5000000e-01 3.0250001e+00 5.0000000e-01 
7.5000000e-01 3.0250001e+00 1.0000000e+00 
7.5000000e-01 3.0250001e+00 1.5000000e+00 
7.5000000e-01 3.0250001e+00 2.0000000e+00 
7.5000000e-01 3.0250001e+00 2.5000000e+00 
7.5000000e-01 3.0250001e+00 3.0000000e+00 
7.5000000e-01 3.0250001e+00 3.5000000e+00 
7.5000000e-01 3.0250001e+00 4.0000000e+00 
7.5000000e-01 3.0250001e+00 4.5000000e+00 
7.5000000e-01 3.0250001e+00 5.0000000e+00 
7.5000000e-01 3.0250001e+00 5.5000000e+00 
7.5000000e-01 3.0250001e+00 6.0000000e+00 
7.5000000e-01 3.0250001e+00 6.5000000e+00 
7.5000000e-01 3.0250001e+00 7.0000000e+00 
7.5000000e-01 3.0250001e+00 7.5000000e+00 
7.5000000e-01 3.0250001e+00 8.0000000e+00 
7.5000000e-01 3.0250001e+00 8.5000000e+00 
7.5000000e-01 3.0250001e+00 9.0000000e+00 
7.5000000e-01 3.0250001e+00 9.5000000e+00 
7.5000000e-01 3.0250001e+00 1.0000000e+01 
7.5000000e-01 3.0250001e+00 1.0500000e+01 
7.5000000e-01 3.0250001e+00 1.1000000e+01 
7.5000000e-01 3.0250001e+00 1.1500000e+01 
7.5000000e-01 3.0250001e+00 1.2000000e+01 
7.5000000e-01 3.0250001e+00 1.2500000e+01 
7.5000000e-01 3.0250001e+00 1.3000000e+01 
7.5000000e-01 3.0250001e+00 1.3500000e+01 
7.5000000e-01 3.0250001e+00 1.4000000e+01 
7.5000000e-01 3.0250001e+00 1.4500000e+01 
7.5000000e-01 3.0250001e+00 1.5000000e+01 
7.5000000e-01 3.0250001e+00 1.5500000e+01 
7.5000000e-01 3.0250001e+00 1.6000000e+01 
7.5000000e-01 3.0250001e+00 1.6500000e+01 
7.5000000e-01 3.0250001e+00 1.7000000e+01 
7.5000000e-01 3.0250001e+00 1.7500000e+01 
7.5000000e-01 3.0250001e+00 1.8000000e+01 
7.5000000e-01 3.0250001e+00 1.8500000e+01 
7.5000000e-01 3.0250001e+00 1.9000000e+01 
7.5000000e-01 3.0250001e+00 1.9500000e+01 
7.5000000e-01 3.0250001e+00 2.0000000e+01 
7.5000000e-01 3.0250001e+00 2.0500000e+01 
7.5000000e-01 3.0250001e+00 2.1000000e+01 
7.5000000e-01 3.0250001e+00 2.1500000e+01 
7.5000000e-01 3.0250001e+00 2.2000000e+01 
7.5000000e-01 3.0250001e+00 2.2500000e+01 
7.5000000e-01 3.0250001e+00 2.3000000e+01 
7.5000000e-01 3.0250001e+00 2.3500000e+01 
7.5000000e-01 3.0250001e+00 2.4000000e+01 
7.5000000e-01 3.0250001e+00 2.4500000e+01 
7.5000000e-01 3.0250001e+00 2.5000000e+01 
7.5000000e-01 3.0250001e+00 2.5500000e+01 
7.5000000e-01 3.0250001e+00 2.6000000e+01 
7.5000000e-01 3.0250001e+00 2.6500000e+01 
7.5000000e-01 3.0250001e+00 2.7000000e+01 
7.5000000e-01 3.0250001e+00 2.7500000e+01 
7.5000000e-01 3.0250001e+00 2.8000000e+01 
7.5000000e-01 3.0250001e+00 2.8500000e+01 
7.5000000e-01 3.0250001e+00 2.9000000e+01 
7.5000000e-01 3.0250001e+00 2.9500000e+01 
7.5000000e-01 3.0250001e+00 3.0000000e+01 
7.5000000e-01 3.0250001e+00 3.0500000e+01 
7.5000000e-01 3.0250001e+00 3.1000000e+01 
7.5000000e-01 3.0250001e+00 3.1500000e+01 
7.5000000e-01 3.0250001e+00 3.2000000e+01 
7.5000000e-01 3.0250001e+00 3.2500000e+01 
7.5000000e-01 3.0250001e+00 3.3000000e+01 
7.5000000e-01 3.0250001e+00 3.3500000e+01 
7.5000000e-01 3.0250001e+00 3.4000000e+01 
7.5000000e-01 3.0250001e+00 3.4500000e+01 
7.5000000e-01 3.0250001e+00 3.5000000e+01 
7.5000000e-01 3.0250001e+00 3.5500000e+01 
7.5000000e-01 3.0250001e+00 3.6000000e+01 
7.5000000e-01 3.0250001e+00 3.6500000e+01 
7.5000000e-01 3.0250001e+00 3.7000000e+01 
7.5000000e-01 3.0250001e+00 3.7500000e+01 
7.5000000e-01 3.0250001e+00 3.8000000e+01 
7.5000000e-01 3.0250001e+00 3.8500000e+01 
7.5000000e-01 3.0250001e+00 3.9000000e+01 
7.5000000e-01 3.0250001e+00 3.9500000e+01 
7.5000000e-01 3.0250001e+00 4.0000000e+01 
7.5000000e-01 3.0250001e+00 4.0500000e+01 
7.5000000e-01 3.0250001e+00 4.1000000e+01 
7.5000000e-01 3.0250001e+00 4.1500000e+01 
7.5000000e-01 3.0250001e+00 4.2000000e+01 
7.5000000e-01 3.0250001e+00 4.2500000e+01 
7.5000000e-01 3.0250001e+00 4.3000000e+01 
7.5000000e-01 3.0250001e+00 4.3500000e+01 
7.5000000e-01 3.0250001e+00 4.4000000e+01 
7.5000000e-01 3.0250001e+00 4.4500000e+01 
7.5000000e-01 3.0250001e+00 4.5000000e+01 
7.5000000e-01 3.0250001e+00 4.5500000e+01 
7.5000000e-01 3.0250001e+00 4.6000000e+01 
7.5000000e-01 3.0250001e+00 4.6500000e+01 
7.5000000e-01 3.0250001e+00 4.7000000e+01 
7.5000000e-01 3.0250001e+00 4.7500000e+01 
7.5000000e-01 3.0250001e+00 4.8000000e+01 
7.5000000e-01 3.0250001e+00 4.8500000e+01 
7.5000000e-01 3.0250001e+00 4.9000000e+01 
7.5000000e-01 3.0250001e+00 4.9500000e+01 
7.5000000e-01 3.0250001e+00 5.0000000e+01 
1.5000000e+00 3.0000000e+00 2.5000000e+01 
3.0000000e+00 2.0000000e+00 2.5000000e+01 
4.0000000e+00 2.0000000e+00 2.5000000e+01 
5.0000000e+00 2.0000000e+00 2.5000000e+01 
0.0000000e+00 3.0000000e+00 2.5000000e+01 
0.0000000e+00 0.0000000e+00 1.0000000e+00 
0.0000000e+00 0.0000000e+00 2.0000000e+00 
0.0000000e+00 0.0000000e+00 3.0000000e+00 
0.0000000e+00 0.0000000e+00 4.0000000e+00 
0.0000000e+00 0.0000000e+00 5.0000000e+00 
[...]
POINT_DATA 1920
FIELD FieldData 3
DISPLACEMENT 3 1920  float
0.0000000e+00 0.0000000e+00 0.0000000e+00 
0.0000000e+00 0.0000000e+00 0.0000000e+00 
0.0000000e+00 0.0000000e+00 0.0000000e+00 
0.0000000e+00 0.0000000e+00 0.0000000e+00 
5.0510994e-07 -3.1589616e-07 -7.4760851e-07 
2.2181198e-06 -3.5398609e-06 7.7126379e-06 
0.0000000e+00 -3.7762252e-06 0.0000000e+00 
0.0000000e+00 1.4493085e-05 0.0000000e+00 
1.0308432e-07 -1.2626241e-07 -6.2847357e-07 
2.9152193e-06 -2.8001607e-06 1.1110588e-05 
-6.4252113e-08 -1.0495072e-06 -2.0852608e-06 
3.4624200e-06 9.3167486e-08 1.1016416e-05 
0.0000000e+00 -4.2076758e-06 0.0000000e+00 
0.0000000e+00 2.7009210e-05 0.0000000e+00 
-2.8777615e-07 5.5386545e-07 -3.5831868e-06 
2.0955595e-05 2.4243442e-05 -1.2704199e-07 
-4.0757336e-06 3.1402781e-06 -6.3940711e-06 
1.9478364e-07 2.1272492e-04 -1.2256147e-05 
0.0000000e+00 1.5432129e-06 0.0000000e+00 
0.0000000e+00 -1.5683978e-06 0.0000000e+00 
-6.2624963e-07 2.0180203e-06 -4.0486270e-06 
4.3987544e-07 -7.8440132e-07 -2.8784314e-06 
7.9838770e-07 -4.2120646e-06 -3.7926186e-06 
-4.3474074e-07 -7.4630584e-06 -5.1420643e-06 
-1.2117263e-06 -9.6907606e-06 -5.8140786e-06 
-2.0202144e-06 -1.0565775e-05 -5.2696241e-06 
-3.0047581e-06 -1.0007756e-05 -4.0451000e-06 
-2.4861936e-06 -8.4723251e-06 -5.7594315e-07 
-1.2822711e-06 -6.5502049e-06 1.1554520e-06 
-1.6061032e-06 -4.7221733e-06 4.5701445e-06 
-3.4204172e-06 -3.4221596e-06 6.1112924e-06 
-5.6386461e-06 -2.8453603e-06 8.0807804e-06 
-7.8738485e-06 -3.1140637e-06 9.0106505e-06 
-9.3233284e-06 -4.2263441e-06 8.9148834e-06 
-1.0445107e-05 -5.8673108e-06 8.6623832e-06 
-1.0562702e-05 -7.5875805e-06 7.8685616e-06 
-1.0572836e-05 -8.8091838e-06 7.1833374e-06 
-9.9176632e-06 -9.2129021e-06 5.5927326e-06 
-7.5495022e-06 -8.6644523e-06 3.6554288e-06 
-6.3447587e-06 -7.5636854e-06 1.7629942e-06 
-3.2985058e-06 -6.2399286e-06 2.4531748e-06 
-2.4537176e-06 -5.1049392e-06 3.5244159e-06 
-2.1015537e-06 -4.2750780e-06 3.6145636e-06 
-2.6163477e-06 -3.5579028e-06 2.8284605e-06 
-2.5795487e-06 -2.7496676e-06 8.7779870e-07 
-4.0726451e-07 -1.7070054e-06 -1.5626804e-06 
2.6834950e-06 -2.4356240e-07 -1.6361580e-06 
2.0220223e-06 1.8175314e-06 -2.4902889e-07 
2.0402551e-06 4.8268348e-06 1.6694921e-06 
1.5135740e-06 9.2333084e-06 3.0095405e-06 
2.4171607e-06 1.5590083e-05 1.6479895e-06 
3.6129952e-06 2.4480207e-05 2.6496576e-07 
5.3498743e-06 3.6517475e-05 -6.7661881e-07 
1.1449963e-05 5.1662599e-05 -2.6731507e-07 
8.7015760e-06 6.8326379e-05 1.1417739e-05 
5.9177396e-06 8.2597289e-05 2.0778600e-05 
2.4433184e-06 8.5061285e-05 3.4597986e-05 
-2.3164398e-06 5.5903092e-05 4.7469097e-05 
-1.0426827e-05 -3.6362977e-05 8.4413907e-05 
-2.0397789e-05 -2.3878548e-04 9.4169933e-05 
-5.1150968e-05 -6.1106932e-04 1.7369681e-04 
-7.9831079e-05 -1.2108330e-03 1.3580790e-04 
-1.5034017e-04 -2.0805048e-03 2.4315983e-04 
-1.7804174e-04 -3.1698090e-03 1.6743889e-04 
-3.5210073e-04 -4.2950036e-03 1.8635533e-04 
-2.6227784e-04 -4.9614976e-03 6.1327555e-05 
-3.0811969e-04 -4.8488462e-03 -4.7991063e-05 
-2.3393973e-04 -4.5121000e-03 2.0896420e-07 
-2.4759976e-04 -4.4193738e-03 -1.1358871e-05 
-1.5072450e-04 -4.5154579e-03 -1.2199859e-04 
-2.2139179e-04 -4.3520080e-03 -1.9445275e-04 
-2.2131873e-04 -3.3734068e-03 -1.7277244e-04 
-1.5220536e-04 -2.1638342e-03 -3.0267387e-04 
-9.0983420e-05 -1.1140656e-03 -1.5685480e-04 
-3.1403830e-05 -3.9749025e-04 -1.8181629e-04 
1.8905028e-07 1.1273637e-05 -8.0476595e-05 
1.5833270e-05 1.8407189e-04 -5.0369021e-05 
1.8906909e-05 2.1212715e-04 -1.2433187e-05 
1.4032135e-05 1.7108252e-04 1.2288385e-05 
7.5848034e-06 1.0867275e-04 1.5750073e-05 
7.7529882e-07 5.3515007e-05 2.5521782e-05 
-3.2361506e-06 1.4285729e-05 2.1438093e-05 
-5.9110880e-06 -7.6240572e-06 2.1698301e-05 
-6.1493415e-06 -1.6155183e-05 1.7502663e-05 
-8.0422815e-06 -1.5668176e-05 1.3101105e-05 
-8.1202488e-06 -1.0539118e-05 8.7022654e-06 
-6.0545913e-06 -4.0530945e-06 4.2186648e-06 
-3.7629497e-06 1.9132221e-06 2.8286854e-06 
-2.7275623e-06 7.1069517e-06 1.0719317e-06 
-3.1446471e-06 1.2486454e-05 1.4933355e-06 
-1.9620411e-06 1.9506144e-05 -1.4731346e-06 
-5.1455100e-07 2.9331477e-05 -3.2190862e-06 
4.0756308e-06 4.2816744e-05 -5.0995150e-06 
7.9924175e-06 5.9818969e-05 5.9440271e-07 
9.8013852e-06 7.8651145e-05 7.5842754e-06 
1.6918177e-05 9.3550749e-05 2.2042512e-05 
4.0927143e-06 9.1359470e-05 3.7696780e-05 
8.1655969e-07 5.1302071e-05 4.8699691e-05 
-1.2013997e-05 -6.2089362e-05 9.1666698e-05 
-2.4012479e-05 -2.9928749e-04 1.0014644e-04 
-5.9135098e-05 -7.2224945e-04 1.8774657e-04 
-8.3237122e-05 -1.3842701e-03 1.4658362e-04 
-1.4271608e-04 -2.3159771e-03 2.5571522e-04 
-1.7441994e-04 -3.4371060e-03 1.0711255e-04 
-2.4527500e-04 -4.5222742e-03 1.7563875e-04 
-2.7256002e-04 -5.0031566e-03 3.1198728e-05 
-2.5982471e-04 -4.7505484e-03 -1.5761185e-05 
-2.5368686e-04 -4.4339071e-03 -3.8028254e-05 
-2.2603430e-04 -4.4200453e-03 -4.1238003e-05 
-2.3432696e-04 -4.5336094e-03 -1.3826977e-04 
-2.0547454e-04 -4.2035603e-03 -2.1842985e-04 
-1.6570202e-04 -3.1090090e-03 -1.6633945e-04 
-8.8055313e-05 -1.8963033e-03 -2.5606476e-04 
-5.8836758e-05 -9.1108697e-04 -1.3586337e-04 
-9.1752008e-06 -2.6703061e-04 -1.3770722e-04 
4.8510865e-06 7.7226287e-05 -7.4900927e-05 
1.8736660e-05 2.1407957e-04 -4.1791438e-05 
1.1376002e-05 2.3778826e-04 -2.0844287e-05 
1.0131587e-05 2.2196560e-04 -9.3265498e-06 
0.0000000e+00 3.1049340e-06 0.0000000e+00 
0.0000000e+00 2.0024211e-06 0.0000000e+00 
0.0000000e+00 -7.6868685e-07 0.0000000e+00 
0.0000000e+00 -4.2131028e-06 0.0000000e+00 
0.0000000e+00 -7.4412487e-06 0.0000000e+00 
0.0000000e+00 -9.6825406e-06 0.0000000e+00 
0.0000000e+00 -1.0543980e-05 0.0000000e+00 
0.0000000e+00 -1.0007236e-05 0.0000000e+00 
0.0000000e+00 -8.4838384e-06 0.0000000e+00 
0.0000000e+00 -6.5593231e-06 0.0000000e+00 
0.0000000e+00 -4.7391009e-06 0.0000000e+00 
0.0000000e+00 -3.4293896e-06 0.0000000e+00 
0.0000000e+00 -2.8532720e-06 0.0000000e+00 
0.0000000e+00 -3.1329146e-06 0.0000000e+00 
0.0000000e+00 -4.2393085e-06 0.0000000e+00 
0.0000000e+00 -5.8822748e-06 0.0000000e+00 
0.0000000e+00 -7.5839507e-06 0.0000000e+00 
0.0000000e+00 -8.8070710e-06 0.0000000e+00 
0.0000000e+00 -9.1930469e-06 0.0000000e+00 
0.0000000e+00 -8.6737346e-06 0.0000000e+00 
0.0000000e+00 -7.5655630e-06 0.0000000e+00 
0.0000000e+00 -6.2612025e-06 0.0000000e+00 
0.0000000e+00 -5.1275151e-06 0.0000000e+00 
0.0000000e+00 -4.2803813e-06 0.0000000e+00 
0.0000000e+00 -3.5565522e-06 0.0000000e+00 
0.0000000e+00 -2.7524889e-06 0.0000000e+00 
0.0000000e+00 -1.7084182e-06 0.0000000e+00 
0.0000000e+00 -2.5544446e-07 0.0000000e+00 
0.0000000e+00 1.8115348e-06 0.0000000e+00 
0.0000000e+00 4.8270895e-06 0.0000000e+00 
0.0000000e+00 9.2385135e-06 0.0000000e+00 
0.0000000e+00 1.5598154e-05 0.0000000e+00 
0.0000000e+00 2.4529420e-05 0.0000000e+00 
0.0000000e+00 3.6609214e-05 0.0000000e+00 
0.0000000e+00 5.1781884e-05 0.0000000e+00 
0.0000000e+00 6.8615605e-05 0.0000000e+00 
0.0000000e+00 8.3152423e-05 0.0000000e+00 
0.0000000e+00 8.5719781e-05 0.0000000e+00 
0.0000000e+00 5.6787154e-05 0.0000000e+00 
0.0000000e+00 -3.5641060e-05 0.0000000e+00 
0.0000000e+00 -2.3874071e-04 0.0000000e+00 
0.0000000e+00 -6.1181991e-04 0.0000000e+00 
0.0000000e+00 -1.2154679e-03 0.0000000e+00 
0.0000000e+00 -2.0877367e-03 0.0000000e+00 
0.0000000e+00 -3.1858652e-03 0.0000000e+00 
0.0000000e+00 -4.3145497e-03 0.0000000e+00 
0.0000000e+00 -4.9973233e-03 0.0000000e+00 
0.0000000e+00 -4.8694685e-03 0.0000000e+00 
0.0000000e+00 -4.5380373e-03 0.0000000e+00 
0.0000000e+00 -4.4406024e-03 0.0000000e+00 
0.0000000e+00 -4.5483378e-03 0.0000000e+00 
0.0000000e+00 -4.3752925e-03 0.0000000e+00 
0.0000000e+00 -3.3981979e-03 0.0000000e+00 
0.0000000e+00 -2.1750920e-03 0.0000000e+00 
0.0000000e+00 -1.1234427e-03 0.0000000e+00 
0.0000000e+00 -3.9956675e-04 0.0000000e+00 
0.0000000e+00 1.0794782e-05 0.0000000e+00 
0.0000000e+00 1.8508734e-04 0.0000000e+00 
0.0000000e+00 2.1369939e-04 0.0000000e+00 
0.0000000e+00 1.7211262e-04 0.0000000e+00 
0.0000000e+00 1.0964981e-04 0.0000000e+00 
0.0000000e+00 5.3863532e-05 0.0000000e+00 
0.0000000e+00 1.4514724e-05 0.0000000e+00 
0.0000000e+00 -7.6210831e-06 0.0000000e+00 
0.0000000e+00 -1.6176922e-05 0.0000000e+00 
0.0000000e+00 -1.5731513e-05 0.0000000e+00 
0.0000000e+00 -1.0611550e-05 0.0000000e+00 
0.0000000e+00 -4.1327012e-06 0.0000000e+00 
0.0000000e+00 1.8539977e-06 0.0000000e+00 
0.0000000e+00 7.0840101e-06 0.0000000e+00 
0.0000000e+00 1.2505530e-05 0.0000000e+00 
0.0000000e+00 1.9533987e-05 0.0000000e+00 
0.0000000e+00 2.9392571e-05 0.0000000e+00 
0.0000000e+00 4.2907664e-05 0.0000000e+00 
0.0000000e+00 6.0049719e-05 0.0000000e+00 
0.0000000e+00 7.9038873e-05 0.0000000e+00 
0.0000000e+00 9.3956791e-05 0.0000000e+00 
0.0000000e+00 9.2154296e-05 0.0000000e+00 
0.0000000e+00 5.2182422e-05 0.0000000e+00 
0.0000000e+00 -6.1408522e-05 0.0000000e+00 
0.0000000e+00 -2.9955612e-04 0.0000000e+00 
0.0000000e+00 -7.2343432e-04 0.0000000e+00 
0.0000000e+00 -1.3898150e-03 0.0000000e+00 
0.0000000e+00 -2.3239276e-03 0.0000000e+00 
0.0000000e+00 -3.4557479e-03 0.0000000e+00 
0.0000000e+00 -4.5432975e-03 0.0000000e+00 
0.0000000e+00 -5.0347014e-03 0.0000000e+00 
0.0000000e+00 -4.7742506e-03 0.0000000e+00 
0.0000000e+00 -4.4614421e-03 0.0000000e+00 
0.0000000e+00 -4.4417419e-03 0.0000000e+00 
0.0000000e+00 -4.5633893e-03 0.0000000e+00 
0.0000000e+00 -4.2271684e-03 0.0000000e+00 
0.0000000e+00 -3.1315552e-03 0.0000000e+00 
0.0000000e+00 -1.9081186e-03 0.0000000e+00 
0.0000000e+00 -9.1834913e-04 0.0000000e+00 
0.0000000e+00 -2.6920391e-04 0.0000000e+00 
0.0000000e+00 7.7563251e-05 0.0000000e+00 
0.0000000e+00 2.1536430e-04 0.0000000e+00 
0.0000000e+00 2.3931608e-04 0.0000000e+00 
0.0000000e+00 2.2355946e-04 0.0000000e+00 
0.0000000e+00 2.1342580e-04 0.0000000e+00 
-5.8795355e-04 -1.3953850e-03 -1.4288166e-04 
3.9813163e-05 -7.1209884e-05 1.2856917e-06 
4.0288818e-05 -1.4347423e-05 3.6538365e-06 
3.3964290e-05 -9.7129259e-06 6.1865289e-06 
0.0000000e+00 -2.1914041e-03 0.0000000e+00 
0.0000000e+00 0.0000000e+00 0.0000000e+00 
0.0000000e+00 0.0000000e+00 0.0000000e+00 
0.0000000e+00 0.0000000e+00 0.0000000e+00 
0.0000000e+00 0.0000000e+00 0.0000000e+00 
0.0000000e+00 0.0000000e+00 0.0000000e+00 
0.0000000e+00 0.0000000e+00 0.0000000e+00 
0.0000000e+00 0.0000000e+00 0.0000000e+00 
0.0000000e+00 0.0000000e+00 0.0000000e+00 
0.0000000e+00 0.0000000e+00 0.0000000e+00 
0.0000000e+00 0.0000000e+00 0.0000000e+00 
0.0000000e+00 0.0000000e+00 0.0000000e+00 
0.0000000e+00 0.0000000e+00 0.0000000e+00 
0.0000000e+00 0.0000000e+00 0.0000000e+00 
0.0000000e+00 0.0000000e+00 0.0000000e+00 
0.0000000e+00 0.0000000e+00 0.0000000e+00 
0.0000000e+00 0.0000000e+00 0.0000000e+00 
0.0000000e+00 0.0000000e+00 0.0000000e+00 
0.0000000e+00 0.0000000e+00 0.0000000e+00 
0.0000000e+00 0.0000000e+00 0.0000000e+00 
0.0000000e+00 0.0000000e+00 0.0000000e+00 
0.0000000e+00 0.0000000e+00 0.0000000e+00 
0.0000000e+00 0.0000000e+00 0.0000000e+00 
0.0000000e+00 0.0000000e+00 0.0000000e+00 
0.0000000e+00 0.0000000e+00 0.0000000e+00 
0.0000000e+00 0.0000000e+00 0.0000000e+00 
0.0000000e+00 0.0000000e+00 0.0000000e+00 
0.0000000e+00 0.0000000e+00 0.0000000e+00 
0.0000000e+00 0.0000000e+00 0.0000000e+00 
0.0000000e+00 0.0000000e+00 0.0000000e+00 
0.0000000e+00 0.0000000e+00 0.0000000e+00 
0.0000000e+00 0.0000000e+00 0.0000000e+00 
0.0000000e+00 0.0000000e+00 0.0000000e+00 
0.0000000e+00 0.0000000e+00 0.0000000e+00 
0.0000000e+00 0.0000000e+00 0.0000000e+00 
0.0000000e+00 0.0000000e+00 0.0000000e+00 
0.0000000e+00 0.0000000e+00 0.0000000e+00 
0.0000000e+00 0.0000000e+00 0.0000000e+00 
0.0000000e+00 0.0000000e+00 0.0000000e+00 
0.0000000e+00 0.0000000e+00 0.0000000e+00 
0.0000000e+00 0.0000000e+00 0.0000000e+00 
0.0000000e+00 0.0000000e+00 0.0000000e+00 
0.0000000e+00 0.0000000e+00 0.0000000e+00 
0.0000000e+00 0.0000000e+00 0.0000000e+00 
0.0000000e+00 0.0000000e+00 0.0000000e+00 
0.0000000e+00 0.0000000e+00 0.0000000e+00 
0.0000000e+00 0.0000000e+00 0.0000000e+00 
0.0000000e+00 0.0000000e+00 0.0000000e+00 
0.0000000e+00 0.0000000e+00 0.0000000e+00 
0.0000000e+00 0.0000000e+00 0.0000000e+00 
0.0000000e+00 0.0000000e+00 0.0000000e+00 
0.0000000e+00 0.0000000e+00 0.0000000e+00 
0.0000000e+00 0.0000000e+00 0.0000000e+00 
0.0000000e+00 0.0000000e+00 0.0000000e+00 
0.0000000e+00 0.0000000e+00 0.0000000e+00 
0.0000000e+00 0.0000000e+00 0.0000000e+00 
0.0000000e+00 0.0000000e+00 0.0000000e+00 
0.0000000e+00 0.0000000e+00 0.0000000e+00 
0.0000000e+00 0.0000000e+00 0.0000000e+00 
0.0000000e+00 0.0000000e+00 0.0000000e+00 
0.0000000e+00 0.0000000e+00 0.0000000e+00 
0.0000000e+00 0.0000000e+00 0.0000000e+00 
0.0000000e+00 0.0000000e+00 0.0000000e+00 
0.0000000e+00 0.0000000e+00 0.0000000e+00 
0.0000000e+00 0.0000000e+00 0.0000000e+00 
0.0000000e+00 0.0000000e+00 0.0000000e+00 
0.0000000e+00 0.0000000e+00 0.0000000e+00 
0.0000000e+00 0.0000000e+00 0.0000000e+00 
0.0000000e+00 0.0000000e+00 0.0000000e+00 
0.0000000e+00 0.0000000e+00 0.0000000e+00 
0.0000000e+00 0.0000000e+00 0.0000000e+00 
0.0000000e+00 0.0000000e+00 0.0000000e+00 
0.0000000e+00 0.0000000e+00 0.0000000e+00 
0.0000000e+00 0.0000000e+00 0.0000000e+00 
0.0000000e+00 0.0000000e+00 0.0000000e+00 
0.0000000e+00 0.0000000e+00 0.0000000e+00 
0.0000000e+00 0.0000000e+00 0.0000000e+00 
0.0000000e+00 0.0000000e+00 0.0000000e+00 
0.0000000e+00 0.0000000e+00 0.0000000e+00 
0.0000000e+00 0.0000000e+00 0.0000000e+00 
0.0000000e+00 0.0000000e+00 0.0000000e+00 
0.0000000e+00 0.0000000e+00 0.0000000e+00 
0.0000000e+00 0.0000000e+00 0.0000000e+00 
0.0000000e+00 0.0000000e+00 0.0000000e+00 
0.0000000e+00 0.0000000e+00 0.0000000e+00 
0.0000000e+00 0.0000000e+00 0.0000000e+00 
0.0000000e+00 0.0000000e+00 0.0000000e+00 
0.0000000e+00 0.0000000e+00 0.0000000e+00 
0.0000000e+00 0.0000000e+00 0.0000000e+00 
0.0000000e+00 0.0000000e+00 0.0000000e+00 
0.0000000e+00 0.0000000e+00 0.0000000e+00 
0.0000000e+00 0.0000000e+00 0.0000000e+00 
0.0000000e+00 0.0000000e+00 0.0000000e+00 
0.0000000e+00 0.0000000e+00 0.0000000e+00 
0.0000000e+00 0.0000000e+00 0.0000000e+00 
0.0000000e+00 0.0000000e+00 0.0000000e+00 
0.0000000e+00 0.0000000e+00 0.0000000e+00 
0.0000000e+00 0.0000000e+00 0.0000000e+00 
0.0000000e+00 0.0000000e+00 0.0000000e+00 
0.0000000e+00 0.0000000e+00 0.0000000e+00 
0.0000000e+00 0.0000000e+00 0.0000000e+00 
0.0000000e+00 0.0000000e+00 0.0000000e+00 
0.0000000e+00 0.0000000e+00 0.0000000e+00 
0.0000000e+00 0.0000000e+00 0.0000000e+00 
0.0000000e+00 0.0000000e+00 0.0000000e+00 
0.0000000e+00 0.0000000e+00 0.0000000e+00 
0.0000000e+00 0.0000000e+00 0.0000000e+00 
-1.6354240e-07 -3.5527449e-07 -6.7092014e-07 
-7.3279784e-07 -3.9491709e-07 -3.1138521e-07 
-1.3703725e-06 -2.7860492e-07 1.6380275e-07 
-1.8406413e-06 2.5424658e-08 5.5838740e-07 
-1.9528018e-06 3.7875930e-07 8.3685296e-07 
-1.9260981e-06 5.7998852e-07 1.1511996e-06 
-2.1749609e-06 5.3151149e-07 1.4330209e-06 
-2.4926590e-06 3.2812659e-07 1.4706575e-06 
-2.5714994e-06 1.7811405e-07 1.0060656e-06 
-2.3649222e-06 5.0454982e-08 9.5431076e-08 
-1.8814404e-06 -1.1463553e-07 -3.8258156e-07 
-1.1059640e-06 3.4719328e-08 -4.2586510e-07 
-2.1193195e-07 -3.5092164e-08 -4.8460959e-07 
2.1890804e-08 -8.6283706e-07 -1.0284917e-06 
1.1803842e-06 -1.3387938e-06 -1.9588017e-06 
2.1926044e-06 -1.3637082e-06 -2.6742655e-06 
4.3286509e-06 -1.2687320e-06 -4.4384428e-06 
7.0168039e-06 -2.4215592e-06 -6.9115090e-06 
1.0872440e-05 -5.6749582e-06 -9.6327831e-06 
1.8743314e-05 -8.4037101e-06 -1.2459011e-05 
2.7784970e-05 -1.0720860e-05 -1.3927604e-05 
3.6451172e-05 -1.3568532e-05 -1.0940219e-05 
4.2372278e-05 -1.5607124e-05 -6.0502357e-06 
4.4179389e-05 -1.4081352e-05 1.4032639e-06 
3.9026345e-05 -1.1405989e-05 7.0328342e-06 
2.9642761e-05 -8.1548405e-06 1.1751305e-05 
1.8857159e-05 -5.3306671e-06 1.2726267e-05 
8.3701289e-06 -2.8518120e-06 1.0918192e-05 
2.9966852e-06 -1.1865643e-06 8.1625649e-06 
-5.8203233e-07 -6.9223887e-07 5.1642041e-06 
-9.4687505e-07 -6.5148424e-07 3.2035277e-06 
-5.9792660e-07 -6.3529944e-07 2.0193363e-06 
2.5968248e-07 -6.4465979e-07 8.5199292e-07 
9.3240567e-07 -1.1368218e-06 -7.3682099e-07 
1.8256857e-06 -1.7869892e-06 -2.1166290e-06 
3.1468326e-06 -1.7568675e-06 -3.8695775e-06 
4.7225617e-06 -1.7376536e-06 -6.1832811e-06 
8.5472093e-06 -3.0901354e-06 -9.2786204e-06 
1.4265112e-05 -6.0379807e-06 -1.1732847e-05 
2.2110731e-05 -9.7959364e-06 -1.3603545e-05 
3.2486365e-05 -1.1987003e-05 -1.3891993e-05 
4.1018386e-05 -1.4423265e-05 -1.0557463e-05 
4.6795038e-05 -1.5773830e-05 -4.6111554e-06 
4.7455429e-05 -1.6166603e-05 4.7214749e-06 
3.7197486e-05 -1.1817985e-05 1.1962844e-05 
3.1687159e-05 -1.0269094e-05 1.3005856e-05 
2.2011640e-05 -5.7227726e-06 1.5219105e-05 
1.1310190e-05 -2.8683030e-06 1.2824338e-05 
4.1510252e-06 -1.3860671e-06 9.2425807e-06 
0.0000000e+00 -2.3597618e-06 0.0000000e+00 
0.0000000e+00 1.4796009e-07 0.0000000e+00 
0.0000000e+00 3.4454695e-06 0.0000000e+00 
0.0000000e+00 5.7882471e-06 0.0000000e+00 
0.0000000e+00 5.9417116e-06 0.0000000e+00 
0.0000000e+00 4.6280297e-06 0.0000000e+00 
0.0000000e+00 4.1499802e-06 0.0000000e+00 
0.0000000e+00 4.4433777e-06 0.0000000e+00 
0.0000000e+00 5.1355496e-06 0.0000000e+00 
0.0000000e+00 5.7458315e-06 0.0000000e+00 
0.0000000e+00 5.1334455e-06 0.0000000e+00 
0.0000000e+00 1.2841996e-06 0.0000000e+00 
0.0000000e+00 -8.5215731e-07 0.0000000e+00 
0.0000000e+00 -2.4146093e-06 0.0000000e+00 
0.0000000e+00 -5.0916410e-06 0.0000000e+00 
0.0000000e+00 -4.9631835e-06 0.0000000e+00 
0.0000000e+00 -3.0725109e-06 0.0000000e+00 
0.0000000e+00 -1.1569069e-06 0.0000000e+00 
0.0000000e+00 -1.3221122e-05 0.0000000e+00 
0.0000000e+00 -7.4279509e-05 0.0000000e+00 
0.0000000e+00 -2.1188772e-04 0.0000000e+00 
0.0000000e+00 -3.9825932e-04 0.0000000e+00 
0.0000000e+00 -5.4598314e-04 0.0000000e+00 
0.0000000e+00 -5.4695411e-04 0.0000000e+00 
0.0000000e+00 -4.6071151e-04 0.0000000e+00 
0.0000000e+00 -3.3909531e-04 0.0000000e+00 
0.0000000e+00 -1.4632771e-04 0.0000000e+00 
0.0000000e+00 -1.9983250e-05 0.0000000e+00 
0.0000000e+00 2.2090815e-05 0.0000000e+00 
0.0000000e+00 1.7652324e-05 0.0000000e+00 
0.0000000e+00 5.7358270e-06 0.0000000e+00 
0.0000000e+00 -1.5553925e-06 0.0000000e+00 
0.0000000e+00 -3.8643998e-06 0.0000000e+00 
0.0000000e+00 -3.3259798e-06 0.0000000e+00 
0.0000000e+00 -1.8970005e-06 0.0000000e+00 
0.0000000e+00 6.5218165e-07 0.0000000e+00 
0.0000000e+00 3.5654771e-06 0.0000000e+00 
0.0000000e+00 3.7251059e-06 0.0000000e+00 
0.0000000e+00 -2.0014193e-05 0.0000000e+00 
0.0000000e+00 -7.0070855e-05 0.0000000e+00 
0.0000000e+00 -2.2567040e-04 0.0000000e+00 
0.0000000e+00 -4.1550829e-04 0.0000000e+00 
0.0000000e+00 -5.2380684e-04 0.0000000e+00 
0.0000000e+00 -5.2824640e-04 0.0000000e+00 
0.0000000e+00 -4.7701740e-04 0.0000000e+00 
0.0000000e+00 -3.0787382e-04 0.0000000e+00 
0.0000000e+00 -1.2369434e-04 0.0000000e+00 
0.0000000e+00 -2.1652364e-05 0.0000000e+00 
0.0000000e+00 1.4556612e-05 0.0000000e+00 
2.1159634e-07 -7.4278648e-07 -1.0239942e-06 
1.7536257e-07 -8.4837848e-07 -1.4332112e-06 
2.6470605e-07 -1.4186328e-06 -2.2880965e-06 
-1.0008851e-07 -2.8160500e-06 -2.3357875e-06 
2.7941987e-06 -2.6023238e-06 7.8429903e-06 
1.6771505e-06 -1.9502986e-07 8.8205943e-06 
-1.4354653e-06 5.8888286e-06 7.7231762e-06 
-3.1875727e-06 1.1620315e-05 4.2003098e-06 
1.1646065e-07 -8.8720469e-07 -1.2966217e-06 
3.9325382e-06 -2.2015511e-06 1.0773463e-05 
-1.4153977e-06 -2.1999026e-06 -3.2142400e-06 
-9.0235022e-07 -1.6792729e-06 -3.2114724e-06 
0.0000000e+00 -3.7789841e-06 0.0000000e+00 
0.0000000e+00 -1.4378998e-06 0.0000000e+00 
0.0000000e+00 3.0530894e-06 0.0000000e+00 
0.0000000e+00 7.4714662e-06 0.0000000e+00 
0.0000000e+00 8.2979495e-06 0.0000000e+00 
0.0000000e+00 6.6679718e-06 0.0000000e+00 
0.0000000e+00 5.9785202e-06 0.0000000e+00 
0.0000000e+00 6.0544253e-06 0.0000000e+00 
0.0000000e+00 6.9487742e-06 0.0000000e+00 
0.0000000e+00 8.6113514e-06 0.0000000e+00 
0.0000000e+00 6.9324333e-06 0.0000000e+00 
0.0000000e+00 1.7231067e-06 0.0000000e+00 
0.0000000e+00 -1.8925862e-06 0.0000000e+00 