# vtk DataFile Version 4.0
vtk output
ASCII
DATASET UNSTRUCTURED_GRID
POINTS 1920 float
0.0000000e+00 0.0000000e+00 0.0000000e+00 
0.0000000e+00 0.0000000e+00 5.0000000e+01 
5.0000000e+00 0.0000000e+00 0.0000000e+00 
5.0000000e+00 0.0000000e+00 5.0000000e+01 
5.0000000e+00 1.0000000e+00 0.0000000e+00 
5.0000000e+00 1.0000000e+00 5.0000000e+01 
0.0000000e+00 1.0000000e+00 0.0000000e+00 
0.0000000e+00 1.0000000e+00 5.0000000e+01 
5.0000000e+00 2.0000000e+00 0.0000000e+00 
5.0000000e+00 2.0000000e+00 5.0000000e+01 
3.0000000e+00 2.0000000e+00 0.0000000e+00 
3.0000000e+00 2.0000000e+00 5.0000000e+01 
0.0000000e+00 2.0000000e+00 0.0000000e+00 
0.0000000e+00 2.0000000e+00 5.0000000e+01 
1.5000000e+00 3.0000000e+00 0.0000000e+00 
1.5000000e+00 3.0000000e+00 5.0000000e+01 
7.5000000e-01 3.0000000e+00 0.0000000e+00 
7.5000000e-01 3.0000000e+00 5.0000000e+01 
0.0000000e+00 3.0000000e+00 0.0000000e+00 
0.0000000e+00 3.0000000e+00 5.0000000e+01 
7.5000000e-01 3.0000000e+00 5.0000000e-01 
7.5000000e-01 3.0000000e+00 1.0000000e+00 
7.5000000e-01 3.0000000e+00 1.5000000e+00 
7.5000000e-01 3.0000000e+00 2.0000000e+00 
7.5000000e-01 3.0000000e+00 2.5000000e+00 
7.5000000e-01 3.0000000e+00 3.0000000e+00 
7.5000000e-01 3.0000000e+00 3.5000000e+00 
7.5000000e-01 3.0000000e+00 4.0000000e+00 
7.5000000e-01 3.0000000e+00 4.5000000e+00 
7.5000000e-01 3.0000000e+00 5.0000000e+00 
7.5000000e-01 3.0000000e+00 5.5000000e+00 
7.5000000e-01 3.0000000e+00 6.0000000e+00 
7.5000000e-01 3.0000000e+00 6.5000000e+00 
7.5000000e-01 3.0000000e+00 7.0000000e+00 
7.5000000e-01 3.0000000e+00 7.5000000e+00 
7.5000000e-01 3.0000000e+00 8.0000000e+00 
7.5000000e-01 3.0000000e+00 8.5000000e+00 
7.5000000e-01 3.0000000e+00 9.0000000e+00 
7.5000000e-01 3.0000000e+00 9.5000000e+00 
7.5000000e-01 3.0000000e+00 1.0000000e+01 
7.5000000e-01 3.0000000e+00 1.0500000e+01 
7.5000000e-01 3.0000000e+00 1.1000000e+01 
7.5000000e-01 3.0000000e+00 1.1500000e+01 
7.5000000e-01 3.0000000e+00 1.2000000e+01 
7.5000000e-01 3.0000000e+00 1.2500000e+01 
7.5000000e-01 3.0000000e+00 1.3000000e+01 
7.5000000e-01 3.0000000e+00 1.3500000e+01 
7.5000000e-01 3.0000000e+00 1.4000000e+01 
7.5000000e-01 3.0000000e+00 1.4500000e+01 
7.5000000e-01 3.0000000e+00 1.5000000e+01 
7.5000000e-01 3.0000000e+00 1.5500000e+01 
7.5000000e-01 3.0000000e+00 1.6000000e+01 
7.5000000e-01 3.0000000e+00 1.6500000e+01 
7.5000000e-01 3.0000000e+00 1.7000000e+01 
7.5000000e-01 3.0000000e+00 1.7500000e+01 
7.5000000e-01 3.0000000e+00 1.8000000e+01 
7.5000000e-01 3.0000000e+00 1.8500000e+01 
7.5000000e-01 3.0000000e+00 1.9000000e+01 
7.5000000e-01 3.0000000e+00 1.9500000e+01 
7.5000000e-01 3.0000000e+00 2.0000000e+01 
7.5000000e-01 3.0000000e+00 2.0500000e+01 
7.5000000e-01 3.0000000e+00 2.1000000e+01 
7.5000000e-01 3.0000000e+00 2.1500000e+01 
7.5000000e-01 3.0000000e+00 2.2000000e+01 
7.5000000e-01 3.0000000e+00 2.2500000e+01 
7.5000000e-01 3.0000000e+00 2.3000000e+01 
7.5000000e-01 3.0000000e+00 2.3500000e+01 
7.5000000e-01 3.0000000e+00 2.4000000e+01 
7.5000000e-01 3.0000000e+00 2.4500000e+01 
7.5000000e-01 3.0000000e+00 2.5000000e+01 
7.5000000e-01 3.0000000e+00 2.5500000e+01 
7.5000000e-01 3.0000000e+00 2.6000000e+01 
7.5000000e-01 3.0000000e+00 2.6500000e+01 
7.5000000e-01 3.0000000e+00 2.7000000e+01 
7.5000000e-01 3.0000000e+00 2.7500000e+01 
7.5000000e-01 3.0000000e+00 2.8000000e+01 
7.5000000e-01 3.0000000e+00 2.8500000e+01 
7.5000000e-01 3.0000000e+00 2.9000000e+01 
7.5000000e-01 3.0000000e+00 2.9500000e+01 
7.5000000e-01 3.0000000e+00 3.0000000e+01 
7.5000000e-01 3.0000000e+00 3.0500000e+01 
7.5000000e-01 3.0000000e+00 3.1000000e+01 
7.5000000e-01 3.0000000e+00 3.1500000e+01 
7.5000000e-01 3.0000000e+00 3.2000000e+01 
7.5000000e-01 3.0000000e+00 3.2500000e+01 
7.5000000e-01 3.0000000e+00 3.3000000e+01 
7.5000000e-01 3.0000000e+00 3.3500000e+01 
7.5000000e-01 3.0000000e+00 3.4000000e+01 
7.5000000e-01 3.0000000e+00 3.4500000e+01 
7.5000000e-01 3.0000000e+00 3.5000000e+01 
7.5000000e-01 3.0000000e+00 3.5500000e+01 
7.5000000e-01 3.0000000e+00 3.6000000e+01 
7.5000000e-01 3.0000000e+00 3.6500000e+01 
7.5000000e-01 3.0000000e+00 3.7000000e+01 
7.5000000e-01 3.0000000e+00 3.7500000e+01 
7.5000000e-01 3.0000000e+00 3.8000000e+01 
7.5000000e-01 3.0000000e+00 3.8500000e+01 
7.5000000e-01 3.0000000e+00 3.9000000e+01 
7.5000000e-01 3.0000000e+00 3.9500000e+01 
7.5000000e-01 3.0000000e+00 4.0000000e+01 
7.5000000e-01 3.0000000e+00 4.0500000e+01 
7.5000000e-01 3.0000000e+00 4.1000000e+01 
7.5000000e-01 3.0000000e+00 4.1500000e+01 
7.5000000e-01 3.0000000e+00 4.2000000e+01 
7.5000000e-01 3.0000000e+00 4.2500000e+01 
7.5000000e-01 3.0000000e+00 4.3000000e+01 
7.5000000e-01 3.0000000e+00 4.3500000e+01 
7.5000000e-01 3.0000000e+00 4.4000000e+01 
7.5000000e-01 3.0000000e+00 4.4500000e+01 
7.5000000e-01 3.0000000e+00 4.5000000e+01 
7.5000000e-01 3.0000000e+00 4.5500000e+01 
7.5000000e-01 3.0000000e+00 4.6000000e+01 
7.5000000e-01 3.0000000e+00 4.6500000e+01 
7.5000000e-01 3.0000000e+00 4.7000000e+01 
7.5000000e-01 3.0000000e+00 4.7500000e+01 
7.5000000e-01 3.0000000e+00 4.8000000e+01 
7.5000000e-01 3.0000000e+00 4.8500000e+01 
7.5000000e-01 3.0000000e+00 4.9000000e+01 
7.5000000e-01 3.0000000e+00 4.9500000e+01 
7.5000000e-01 3.0250001e+00 0.0000000e+00 
7.5000000e-01 3.0250001e+00 5.0000000e-01 
7.5000000e-01 3.0250001e+00 1.0000000e+00 
7.5000000e-01 3.0250001e+00 1.5000000e+00 
7.5000000e-01 3.0250001e+00 2.0000000e+00 
7.5000000e-01 3.0250001e+00 2.5000000e+00 
7.5000000e-01 3.0250001e+00 3.0000000e+00 
7.5000000e-01 3.0250001e+00 3.5000000e+00 
7.5000000e-01 3.0250001e+00 4.0000000e+00 
7.5000000e-01 3.0250001e+00 4.5000000e+00 
7.5000000e-01 3.0250001e+00 5.0000000e+00 
7.5000000e-01 3.0250001e+00 5.5000000e+00 
7.5000000e-01 3.0250001e+00 6.0000000e+00 
7.5000000e-01 3.0250001e+00 6.5000000e+00 
7.5000000e-01 3.0250001e+00 7.0000000e+00 
7.5000000e-01 3.0250001e+00 7.5000000e+00 
7.5000000e-01 3.0250001e+00 8.0000000e+00 
7.5000000e-01 3.0250001e+00 8.5000000e+00 
7.5000000e-01 3.0250001e+00 9.0000000e+00 
7.5000000e-01 3.0250001e+00 9.5000000e+00 
7.5000000e-01 3.0250001e+00 1.0000000e+01 
7.5000000e-01 3.0250001e+00 1.0500000e+01 
7.5000000e-01 3.0250001e+00 1.1000000e+01 
7.5000000e-01 3.0250001e+00 1.1500000e+01 
7.5000000e-01 3.0250001e+00 1.2000000e+01 
7.5000000e-01 3.0250001e+00 1.2500000e+01 
7.5000000e-01 3.0250001e+00 1.3000000e+01 
7.5000000e-01 3.0250001e+00 1.3500000e+01 
7.5000000e-01 3.0250001e+00 1.4000000e+01 
7.5000000e-01 3.0250001e+00 1.4500000e+01 
7.5000000e-01 3.0250001e+00 1.5000000e+01 
7.5000000e-01 3.0250001e+00 1.5500000e+01 
7.5000000e-01 3.0250001e+00 1.6000000e+01 
7.5000000e-01 3.0250001e+00 1.6500000e+01 
7.5000000e-01 3.0250001e+00 1.7000000e+01 
7.5000000e-01 3.0250001e+00 1.7500000e+01 
7.5000000e-01 3.0250001e+00 1.8000000e+01 
7.5000000e-01 3.0250001e+00 1.8500000e+01 
7.5000000e-01 3.0250001e+00 1.9000000e+01 
7.5000000e-01 3.0250001e+00 1.9500000e+01 
7.5000000e-01 3.0250001e+00 2.0000000e+01 
7.5000000e-01 3.0250001e+00 2.0500000e+01 
7.5000000e-01 3.0250001e+00 2.1000000e+01 
7.5000000e-01 3.0250001e+00 2.1500000e+01 
7.5000000e-01 3.0250001e+00 2.2000000e+01 
7.5000000e-01 3.0250001e+00 2.2500000e+01 
7.5000000e-01 3.0250001e+00 2.3000000e+01 
7.5000000e-01 3.0250001e+00 2.3500000e+01 
7.5000000e-01 3.0250001e+00 2.4000000e+01 
7.5000000e-01 3.0250001e+00 2.4500000e+01 
7.5000000e-01 3.0250001e+00 2.5000000e+01 
7.5000000e-01 3.0250001e+00 2.5500000e+01 
7.5000000e-01 3.0250001e+00 2.6000000e+01 
7.5000000e-01 3.0250001e+00 2.6500000e+01 
7.5000000e-01 3.0250001e+00 2.7000000e+01 
7.5000000e-01 3.0250001e+00 2.7500000e+01 
7.5000000e-01 3.0250001e+00 2.8000000e+01 
7.5000000e-01 3.0250001e+00 2.8500000e+01 
7.5000000e-01 3.0250001e+00 2.9000000e+01 
7.5000000e-01 3.0250001e+00 2.9500000e+01 
7.5000000e-01 3.0250001e+00 3.0000000e+01 
7.5000000e-01 3.0250001e+00 3.0500000e+01 
7.5000000e-01 3.0250001e+00 3.1000000e+01 
7.5000000e-01 3.0250001e+00 3.1500000e+01 
7.5000000e-01 3.0250001e+00 3.2000000e+01 
7.5000000e-01 3.0250001e+00 3.2500000e+01 
7.5000000e-01 3.0250001e+00 3.3000000e+01 
7.5000000e-01 3.0250001e+00 3.3500000e+01 
7.5000000e-01 3.0250001e+00 3.4000000e+01 
7.5000000e-01 3.0250001e+00 3.4500000e+01 
7.5000000e-01 3.0250001e+00 3.5000000e+01 
7.5000000e-01 3.0250001e+00 3.5500000e+01 
7.5000000e-01 3.0250001e+00 3.6000000e+01 
7.5000000e-01 3.0250001e+00 3.6500000e+01 
7.5000000e-01 3.0250001e+00 3.7000000e+01 
7.5000000e-01 3.0250001e+00 3.7500000e+01 
7.5000000e-01 3.0250001e+00 3.8000000e+01 
7.5000000e-01 3.0250001e+00 3.8500000e+01 
7.5000000e-01 3.0250001e+00 3.9000000e+01 
7.5000000e-01 3.0250001e+00 3.9500000e+01 
7.5000000e-01 3.0250001e+00 4.0000000e+01 
7.5000000e-01 3.0250001e+00 4.0500000e+01 
7.5000000e-01 3.0250001e+00 4.1000000e+01 
7.5000000e-01 3.0250001e+00 4.1500000e+01 
7.5000000e-01 3.0250001e+00 4.2000000e+01 
7.5000000e-01 3.0250001e+00 4.2500000e+01 
7.5000000e-01 3.0250001e+00 4.3000000e+01 
7.5000000e-01 3.0250001e+00 4.3500000e+01 
7.5000000e-01 3.0250001e+00 4.4000000e+01 
7.5000000e-01 3.0250001e+00 4.4500000e+01 
7.5000000e-01 3.0250001e+00 4.5000000e+01 
7.5000000e-01 3.0250001e+00 4.5500000e+01 
7.5000000e-01 3.0250001e+00 4.6000000e+01 
7.5000000e-01 3.0250001e+00 4.6500000e+01 
7.5000000e-01 3.0250001e+00 4.7000000e+01 
7.5000000e-01 3.0250001e+00 4.7500000e+01 
7.5000000e-01 3.0250001e+00 4.8000000e+01 
7.5000000e-01 3.0250001e+00 4.8500000e+01 
7.5000000e-01 3.0250001e+00 4.9000000e+01 
7.5000000e-01 3.0250001e+00 4.9500000e+01 
7.5000000e-01 3.0250001e+00 5.0000000e+01 
1.5000000e+00 3.0000000e+00 2.5000000e+01 
3.0000000e+00 2.0000000e+00 2.5000000e+01 
4.0000000e+00 2.0000000e+00 2.5000000e+01 
5.0000000e+00 2.0000000e+00 2.5000000e+01 
0.0000000e+00 3.0000000e+00 2.5000000e+01 
0.0000000e+00 0.0000000e+00 1.0000000e+00 
0.0000000e+00 0.0000000e+00 2.0000000e+00 
0.0000000e+00 0.0000000e+00 3.0000000e+00 
0.0000000e+00 0.0000000e+00 4.0000000e+00 
0.0000000e+00 0.0000000e+00 5.0000000e+00 
[...]
POINT_DATA 1920
FIELD FieldData 3
DISPLACEMENT 3 1920  float
0.0000000e+00 0.0000000e+00 0.0000000e+00 
0.0000000e+00 0.0000000e+00 0.0000000e+00 
0.0000000e+00 0.0000000e+00 0.0000000e+00 
0.0000000e+00 0.0000000e+00 0.0000000e+00 
-1.1439087e-06 -9.3394783e-07 5.7956328e-07 
1.3605686e-06 -4.8771983e-07 2.0793082e-06 
0.0000000e+00 2.5086015e-06 0.0000000e+00 
0.0000000e+00 -1.1984081e-06 0.0000000e+00 
-1.1456641e-06 -2.2276236e-06 1.2071687e-06 
1.4045489e-06 2.9197929e-07 1.7323528e-06 
-3.8490598e-06 3.1048594e-06 6.2116846e-06 
9.8586247e-07 -2.5527049e-06 4.2644974e-06 
0.0000000e+00 -5.5339666e-07 0.0000000e+00 
0.0000000e+00 -7.5082590e-07 0.0000000e+00 
-1.1686702e-05 7.4294344e-06 1.6863771e-05 
-1.7966447e-06 -4.8934976e-07 4.2332058e-06 
-1.1748836e-05 -7.3572619e-06 3.6251402e-06 
7.7838695e-07 5.5813703e-06 -2.5174725e-06 
0.0000000e+00 -4.4476255e-06 0.0000000e+00 
0.0000000e+00 4.7703325e-06 0.0000000e+00 
-1.2059400e-05 -9.6153180e-06 4.7128710e-06 
-1.2609506e-05 -1.5078871e-05 4.4143835e-06 
-1.3696987e-05 -2.0513726e-05 2.3181622e-06 
-1.7367220e-05 -2.3964772e-05 -9.9032457e-07 
-1.4783479e-05 -2.5570509e-05 -4.9293067e-07 
-1.3195285e-05 -2.7144284e-05 -8.4896163e-07 
-1.0980634e-05 -3.1187868e-05 1.2299590e-07 
-1.0619035e-05 -3.7253485e-05 1.4597891e-06 
-8.5812871e-06 -4.2883457e-05 3.5554212e-06 
-1.1325648e-05 -4.4063698e-05 8.0001155e-06 
-4.4919789e-06 -3.9831943e-05 9.2592154e-06 
-7.6861133e-06 -3.2121981e-05 7.4187747e-06 
-6.8644454e-06 -2.6587084e-05 8.4476969e-06 
-8.8307916e-06 -2.8002156e-05 1.1834331e-05 
-8.4028634e-06 -3.4036391e-05 1.2973580e-05 
-1.6743892e-05 -3.5461468e-05 1.6787277e-05 
-2.5648242e-05 -2.6894870e-05 1.6164900e-05 
-2.9192070e-05 -1.0149605e-05 1.0310367e-05 
-2.4141091e-05 4.7703779e-06 4.7824196e-06 
-2.2409566e-05 1.0259517e-05 -2.3233631e-06 
-1.7099896e-05 7.5713174e-06 -2.6892367e-06 
-2.9124551e-05 5.2116593e-06 -4.4039925e-06 
-3.2548134e-05 1.7630966e-05 -1.0000241e-05 
-2.7597544e-05 5.3472661e-05 -4.4239009e-06 
-2.5601337e-05 9.1488233e-05 6.7478377e-06 
-1.7820978e-05 8.0393715e-05 1.5053480e-05 
-1.3561291e-05 -2.8108958e-05 5.6631390e-05 
-2.0648018e-05 -2.7146979e-04 8.3909777e-05 
-4.5616431e-05 -6.7475555e-04 1.6273571e-04 
-6.5705339e-05 -1.2611288e-03 1.2474108e-04 
-1.1455399e-04 -2.0812738e-03 2.4883315e-04 
-1.5381290e-04 -3.1310064e-03 8.4408086e-05 
-2.6957170e-04 -4.2750766e-03 1.3552462e-04 
-6.1354373e-04 -5.0436412e-03 7.7032833e-05 
-2.7488597e-04 -4.9045505e-03 2.4902452e-05 
-2.0972574e-04 -4.4797929e-03 2.7960728e-05 
-1.9957297e-04 -4.2796033e-03 -1.8199338e-05 
-2.1078548e-04 -4.3127225e-03 -6.5461762e-05 
-2.1490842e-04 -4.1767587e-03 -1.4474924e-04 
-2.0143471e-04 -3.2866839e-03 -1.1668566e-04 
-1.2672901e-04 -2.1147202e-03 -2.2427959e-04 
-9.5625946e-05 -1.0838456e-03 -1.1908427e-04 
-4.7794623e-05 -3.7947754e-04 -1.4623007e-04 
-3.3196749e-05 8.3641753e-06 -9.2228431e-05 
-1.4483258e-05 1.7108442e-04 -6.7501045e-05 
-1.5237201e-05 2.0827178e-04 -5.6734247e-05 
-3.7520851e-06 1.9006265e-04 -3.7918162e-05 
2.0345240e-07 1.4133017e-04 -2.5865065e-05 
4.6422924e-06 7.8749159e-05 -1.1753402e-05 
7.0879323e-06 2.0752916e-05 -1.2261828e-05 
9.7627856e-07 -1.5556798e-05 -3.7595041e-06 
1.2313933e-06 -2.8040227e-05 -5.9290328e-06 
3.2121079e-06 -2.7470587e-05 -9.7534007e-07 
4.7209951e-06 -2.7174125e-05 2.5514605e-06 
1.0458151e-06 -3.3311673e-05 4.9395312e-06 
-8.0723021e-06 -4.0511179e-05 5.2926616e-06 
-1.1906767e-05 -3.8590642e-05 4.5375486e-06 
-1.6741573e-05 -2.3051665e-05 -5.2065066e-06 
-1.7705024e-05 -1.0889200e-06 -7.6660463e-06 
-2.1781527e-05 1.8551335e-05 -7.9669153e-06 
-1.4764155e-05 2.9748267e-05 -2.9235648e-06 
-1.7272925e-05 3.0666160e-05 7.6467950e-06 
-1.8746410e-05 2.9658893e-05 5.1368834e-06 
-1.7695213e-05 3.9361679e-05 1.5938907e-05 
-2.2326105e-05 5.8125581e-05 3.3763296e-05 
-2.2824310e-05 5.8711474e-05 4.8595299e-05 
-3.1652282e-05 -2.2214666e-05 1.0354348e-04 
-3.7527920e-05 -2.6936241e-04 1.2621909e-04 
-7.3450174e-05 -7.3319947e-04 2.0364622e-04 
-9.0548710e-05 -1.4119548e-03 1.6533464e-04 
-1.4381942e-04 -2.2974778e-03 2.7035360e-04 
-1.7069810e-04 -3.3216660e-03 1.0974039e-04 
-2.4210619e-04 -4.3215551e-03 1.9633335e-04 
-3.1329656e-04 -4.8799911e-03 5.1879670e-05 
-3.3833092e-04 -4.8027737e-03 -1.1562095e-05 
-5.3272612e-04 -4.5567420e-03 -2.0940065e-06 
-2.2485678e-04 -4.4456474e-03 1.1885173e-05 
-1.8995121e-04 -4.4196523e-03 -6.3675769e-05 
-1.8088726e-04 -4.0540379e-03 -1.5356859e-04 
-1.5975010e-04 -3.0209755e-03 -1.0558098e-04 
-1.0425156e-04 -1.8432322e-03 -2.1840414e-04 
-7.8242738e-05 -8.9060288e-04 -1.2295422e-04 
-3.7040507e-05 -2.7400113e-04 -1.5874188e-04 
-2.2164280e-05 6.2294552e-05 -9.8262273e-05 
-1.3081512e-07 2.1191860e-04 -8.4527426e-05 
5.1376414e-06 2.4447436e-04 -5.7242905e-05 
7.4113682e-06 2.0646508e-04 -3.2520195e-05 
9.9239078e-06 1.3561080e-04 -2.5188543e-05 
8.0267873e-06 6.6451990e-05 -1.4008533e-05 
6.8355344e-06 1.9272007e-05 -1.4213035e-05 
8.8193556e-06 -3.2838752e-06 -4.5397774e-06 
9.6926424e-06 -1.2474227e-05 -2.5896538e-06 
4.7516050e-06 -1.9769934e-05 2.9159605e-06 
2.9770301e-06 -2.5421083e-05 6.0302377e-06 
4.3661307e-06 -2.4056493e-05 1.1925426e-05 
2.4347212e-06 -1.4803371e-05 1.4852411e-05 
-1.1915408e-06 -3.0755102e-06 1.1755885e-05 
-1.9654778e-06 4.2664738e-06 7.5456760e-06 
-4.8466190e-06 5.9334379e-06 1.7016117e-06 
0.0000000e+00 -7.4289769e-06 0.0000000e+00 
0.0000000e+00 -9.7024376e-06 0.0000000e+00 
0.0000000e+00 -1.5053530e-05 0.0000000e+00 
0.0000000e+00 -2.0456193e-05 0.0000000e+00 
0.0000000e+00 -2.3896899e-05 0.0000000e+00 
0.0000000e+00 -2.5526069e-05 0.0000000e+00 
0.0000000e+00 -2.7288017e-05 0.0000000e+00 
0.0000000e+00 -3.1323885e-05 0.0000000e+00 
0.0000000e+00 -3.7380894e-05 0.0000000e+00 
0.0000000e+00 -4.2824453e-05 0.0000000e+00 
0.0000000e+00 -4.4001434e-05 0.0000000e+00 
0.0000000e+00 -3.9635448e-05 0.0000000e+00 
0.0000000e+00 -3.2068419e-05 0.0000000e+00 
0.0000000e+00 -2.6898422e-05 0.0000000e+00 
0.0000000e+00 -2.8449494e-05 0.0000000e+00 
0.0000000e+00 -3.4067645e-05 0.0000000e+00 
0.0000000e+00 -3.5209643e-05 0.0000000e+00 
0.0000000e+00 -2.6416870e-05 0.0000000e+00 
0.0000000e+00 -1.0135183e-05 0.0000000e+00 
0.0000000e+00 4.4474973e-06 0.0000000e+00 
0.0000000e+00 9.9094532e-06 0.0000000e+00 
0.0000000e+00 7.0365058e-06 0.0000000e+00 
0.0000000e+00 5.1216080e-06 0.0000000e+00 
0.0000000e+00 1.8925683e-05 0.0000000e+00 
0.0000000e+00 5.5228775e-05 0.0000000e+00 
0.0000000e+00 9.2046772e-05 0.0000000e+00 
0.0000000e+00 8.0314334e-05 0.0000000e+00 
0.0000000e+00 -2.9180601e-05 0.0000000e+00 
0.0000000e+00 -2.7227803e-04 0.0000000e+00 
0.0000000e+00 -6.7367865e-04 0.0000000e+00 
0.0000000e+00 -1.2634497e-03 0.0000000e+00 
0.0000000e+00 -2.0874515e-03 0.0000000e+00 
0.0000000e+00 -3.1492177e-03 0.0000000e+00 
0.0000000e+00 -4.3006297e-03 0.0000000e+00 
0.0000000e+00 -5.0632996e-03 0.0000000e+00 
0.0000000e+00 -4.9311677e-03 0.0000000e+00 
0.0000000e+00 -4.5063416e-03 0.0000000e+00 
0.0000000e+00 -4.3010032e-03 0.0000000e+00 
0.0000000e+00 -4.3424251e-03 0.0000000e+00 
0.0000000e+00 -4.1997093e-03 0.0000000e+00 
0.0000000e+00 -3.3089812e-03 0.0000000e+00 
0.0000000e+00 -2.1277005e-03 0.0000000e+00 
0.0000000e+00 -1.0934597e-03 0.0000000e+00 
0.0000000e+00 -3.8292605e-04 0.0000000e+00 
0.0000000e+00 8.7411036e-06 0.0000000e+00 
0.0000000e+00 1.7287229e-04 0.0000000e+00 
0.0000000e+00 2.1034993e-04 0.0000000e+00 
0.0000000e+00 1.9037581e-04 0.0000000e+00 
0.0000000e+00 1.4136694e-04 0.0000000e+00 
0.0000000e+00 7.9018180e-05 0.0000000e+00 
0.0000000e+00 2.1499001e-05 0.0000000e+00 
0.0000000e+00 -1.5078510e-05 0.0000000e+00 
0.0000000e+00 -2.8051483e-05 0.0000000e+00 
0.0000000e+00 -2.7724285e-05 0.0000000e+00 
0.0000000e+00 -2.7532991e-05 0.0000000e+00 
0.0000000e+00 -3.3583830e-05 0.0000000e+00 
0.0000000e+00 -4.0532879e-05 0.0000000e+00 
0.0000000e+00 -3.8284630e-05 0.0000000e+00 
0.0000000e+00 -2.2934428e-05 0.0000000e+00 
0.0000000e+00 -8.9148443e-07 0.0000000e+00 
0.0000000e+00 1.8581230e-05 0.0000000e+00 
0.0000000e+00 2.9172954e-05 0.0000000e+00 
0.0000000e+00 3.0198395e-05 0.0000000e+00 
0.0000000e+00 2.9978839e-05 0.0000000e+00 
0.0000000e+00 4.0363535e-05 0.0000000e+00 
0.0000000e+00 6.0262275e-05 0.0000000e+00 
0.0000000e+00 6.0593673e-05 0.0000000e+00 
0.0000000e+00 -2.3411290e-05 0.0000000e+00 
0.0000000e+00 -2.7216339e-04 0.0000000e+00 
0.0000000e+00 -7.3458470e-04 0.0000000e+00 
0.0000000e+00 -1.4156844e-03 0.0000000e+00 
0.0000000e+00 -2.3025563e-03 0.0000000e+00 
0.0000000e+00 -3.3385244e-03 0.0000000e+00 
0.0000000e+00 -4.3438268e-03 0.0000000e+00 
0.0000000e+00 -4.9146325e-03 0.0000000e+00 
0.0000000e+00 -4.8281373e-03 0.0000000e+00 
0.0000000e+00 -4.5744604e-03 0.0000000e+00 
0.0000000e+00 -4.4690319e-03 0.0000000e+00 
0.0000000e+00 -4.4472381e-03 0.0000000e+00 
0.0000000e+00 -4.0771109e-03 0.0000000e+00 
0.0000000e+00 -3.0445606e-03 0.0000000e+00 
0.0000000e+00 -1.8562034e-03 0.0000000e+00 
0.0000000e+00 -8.9774060e-04 0.0000000e+00 
0.0000000e+00 -2.7515594e-04 0.0000000e+00 
0.0000000e+00 6.3598985e-05 0.0000000e+00 
0.0000000e+00 2.1287570e-04 0.0000000e+00 
0.0000000e+00 2.4492075e-04 0.0000000e+00 
0.0000000e+00 2.0693761e-04 0.0000000e+00 
0.0000000e+00 1.3662972e-04 0.0000000e+00 
0.0000000e+00 6.7350360e-05 0.0000000e+00 
0.0000000e+00 1.9746125e-05 0.0000000e+00 
0.0000000e+00 -3.4251818e-06 0.0000000e+00 
0.0000000e+00 -1.2997391e-05 0.0000000e+00 
0.0000000e+00 -1.9940242e-05 0.0000000e+00 
0.0000000e+00 -2.5156078e-05 0.0000000e+00 
0.0000000e+00 -2.3809627e-05 0.0000000e+00 
0.0000000e+00 -1.4804751e-05 0.0000000e+00 
0.0000000e+00 -3.3505364e-06 0.0000000e+00 
0.0000000e+00 4.0603468e-06 0.0000000e+00 
0.0000000e+00 5.9710324e-06 0.0000000e+00 
0.0000000e+00 5.7418411e-06 0.0000000e+00 
8.4731446e-06 9.7124794e-06 -1.2590906e-05 
-9.1446364e-06 1.5751426e-06 -1.0993265e-05 
-8.7710850e-06 6.9115135e-06 -4.1231983e-06 
-4.1837793e-06 2.4048679e-06 -1.1410542e-06 
0.0000000e+00 8.6749724e-06 0.0000000e+00 
0.0000000e+00 0.0000000e+00 0.0000000e+00 
0.0000000e+00 0.0000000e+00 0.0000000e+00 
0.0000000e+00 0.0000000e+00 0.0000000e+00 
0.0000000e+00 0.0000000e+00 0.0000000e+00 
0.0000000e+00 0.0000000e+00 0.0000000e+00 
0.0000000e+00 0.0000000e+00 0.0000000e+00 
0.0000000e+00 0.0000000e+00 0.0000000e+00 
0.0000000e+00 0.0000000e+00 0.0000000e+00 
0.0000000e+00 0.0000000e+00 0.0000000e+00 
0.0000000e+00 0.0000000e+00 0.0000000e+00 
0.0000000e+00 0.0000000e+00 0.0000000e+00 
0.0000000e+00 0.0000000e+00 0.0000000e+00 
0.0000000e+00 0.0000000e+00 0.0000000e+00 
0.0000000e+00 0.0000000e+00 0.0000000e+00 
0.0000000e+00 0.0000000e+00 0.0000000e+00 
0.0000000e+00 0.0000000e+00 0.0000000e+00 
0.0000000e+00 0.0000000e+00 0.0000000e+00 
0.0000000e+00 0.0000000e+00 0.0000000e+00 
0.0000000e+00 0.0000000e+00 0.0000000e+00 
0.0000000e+00 0.0000000e+00 0.0000000e+00 
0.0000000e+00 0.0000000e+00 0.0000000e+00 
0.0000000e+00 0.0000000e+00 0.0000000e+00 
0.0000000e+00 0.0000000e+00 0.0000000e+00 
0.0000000e+00 0.0000000e+00 0.0000000e+00 
0.0000000e+00 0.0000000e+00 0.0000000e+00 
0.0000000e+00 0.0000000e+00 0.0000000e+00 
0.0000000e+00 0.0000000e+00 0.0000000e+00 
0.0000000e+00 0.0000000e+00 0.0000000e+00 
0.0000000e+00 0.0000000e+00 0.0000000e+00 
0.0000000e+00 0.0000000e+00 0.0000000e+00 
0.0000000e+00 0.0000000e+00 0.0000000e+00 
0.0000000e+00 0.0000000e+00 0.0000000e+00 
0.0000000e+00 0.0000000e+00 0.0000000e+00 
0.0000000e+00 0.0000000e+00 0.0000000e+00 
0.0000000e+00 0.0000000e+00 0.0000000e+00 
0.0000000e+00 0.0000000e+00 0.0000000e+00 
0.0000000e+00 0.0000000e+00 0.0000000e+00 
0.0000000e+00 0.0000000e+00 0.0000000e+00 
0.0000000e+00 0.0000000e+00 0.0000000e+00 
0.0000000e+00 0.0000000e+00 0.0000000e+00 
0.0000000e+00 0.0000000e+00 0.0000000e+00 
0.0000000e+00 0.0000000e+00 0.0000000e+00 
0.0000000e+00 0.0000000e+00 0.0000000e+00 
0.0000000e+00 0.0000000e+00 0.0000000e+00 
0.0000000e+00 0.0000000e+00 0.0000000e+00 
0.0000000e+00 0.0000000e+00 0.0000000e+00 
0.0000000e+00 0.0000000e+00 0.0000000e+00 
0.0000000e+00 0.0000000e+00 0.0000000e+00 
0.0000000e+00 0.0000000e+00 0.0000000e+00 
0.0000000e+00 0.0000000e+00 0.0000000e+00 
0.0000000e+00 0.0000000e+00 0.0000000e+00 
0.0000000e+00 0.0000000e+00 0.0000000e+00 
0.0000000e+00 0.0000000e+00 0.0000000e+00 
0.0000000e+00 0.0000000e+00 0.0000000e+00 
0.0000000e+00 0.0000000e+00 0.0000000e+00 
0.0000000e+00 0.0000000e+00 0.0000000e+00 
0.0000000e+00 0.0000000e+00 0.0000000e+00 
0.0000000e+00 0.0000000e+00 0.0000000e+00 
0.0000000e+00 0.0000000e+00 0.0000000e+00 
0.0000000e+00 0.0000000e+00 0.0000000e+00 
0.0000000e+00 0.0000000e+00 0.0000000e+00 
0.0000000e+00 0.0000000e+00 0.0000000e+00 
0.0000000e+00 0.0000000e+00 0.0000000e+00 
0.0000000e+00 0.0000000e+00 0.0000000e+00 
0.0000000e+00 0.0000000e+00 0.0000000e+00 
0.0000000e+00 0.0000000e+00 0.0000000e+00 
0.0000000e+00 0.0000000e+00 0.0000000e+00 
0.0000000e+00 0.0000000e+00 0.0000000e+00 
0.0000000e+00 0.0000000e+00 0.0000000e+00 
0.0000000e+00 0.0000000e+00 0.0000000e+00 
0.0000000e+00 0.0000000e+00 0.0000000e+00 
0.0000000e+00 0.0000000e+00 0.0000000e+00 
0.0000000e+00 0.0000000e+00 0.0000000e+00 
0.0000000e+00 0.0000000e+00 0.0000000e+00 
0.0000000e+00 0.0000000e+00 0.0000000e+00 
0.0000000e+00 0.0000000e+00 0.0000000e+00 
0.0000000e+00 0.0000000e+00 0.0000000e+00 
0.0000000e+00 0.0000000e+00 0.0000000e+00 
0.0000000e+00 0.0000000e+00 0.0000000e+00 
0.0000000e+00 0.0000000e+00 0.0000000e+00 
0.0000000e+00 0.0000000e+00 0.0000000e+00 
0.0000000e+00 0.0000000e+00 0.0000000e+00 
0.0000000e+00 0.0000000e+00 0.0000000e+00 
0.0000000e+00 0.0000000e+00 0.0000000e+00 
0.0000000e+00 0.0000000e+00 0.0000000e+00 
0.0000000e+00 0.0000000e+00 0.0000000e+00 
0.0000000e+00 0.0000000e+00 0.0000000e+00 
0.0000000e+00 0.0000000e+00 0.0000000e+00 
0.0000000e+00 0.0000000e+00 0.0000000e+00 
0.0000000e+00 0.0000000e+00 0.0000000e+00 
0.0000000e+00 0.0000000e+00 0.0000000e+00 
0.0000000e+00 0.0000000e+00 0.0000000e+00 
0.0000000e+00 0.0000000e+00 0.0000000e+00 
0.0000000e+00 0.0000000e+00 0.0000000e+00 
0.0000000e+00 0.0000000e+00 0.0000000e+00 
0.0000000e+00 0.0000000e+00 0.0000000e+00 
0.0000000e+00 0.0000000e+00 0.0000000e+00 
0.0000000e+00 0.0000000e+00 0.0000000e+00 
0.0000000e+00 0.0000000e+00 0.0000000e+00 
0.0000000e+00 0.0000000e+00 0.0000000e+00 
0.0000000e+00 0.0000000e+00 0.0000000e+00 
0.0000000e+00 0.0000000e+00 0.0000000e+00 
0.0000000e+00 0.0000000e+00 0.0000000e+00 
0.0000000e+00 0.0000000e+00 0.0000000e+00 
0.0000000e+00 0.0000000e+00 0.0000000e+00 
0.0000000e+00 0.0000000e+00 0.0000000e+00 
-2.3381965e-06 -7.5663326e-07 1.6233330e-06 
-3.6577037e-06 1.4069208e-07 2.7681021e-06 
-4.9918758e-06 1.2792278e-06 2.5840432e-06 
-6.7259325e-06 1.0880307e-06 1.0828285e-06 
-6.8389804e-06 6.5068015e-08 2.5565078e-06 
-5.7041407e-06 -5.2787723e-08 3.3483805e-06 
-5.2679547e-06 -4.3931016e-07 1.4636556e-06 
-6.1784790e-06 8.4637782e-07 2.1991971e-06 
-3.1925683e-06 2.5614579e-06 6.0653531e-07 
-5.6123618e-08 -3.7985324e-06 -5.5808246e-06 
2.1033513e-07 -2.3259258e-06 -8.5038009e-06 
3.6437245e-06 3.3347646e-07 -1.3094347e-05 
1.1467088e-05 -1.1611707e-05 -1.7939692e-05 
2.0927031e-05 -6.6454386e-06 -1.9948584e-05 
3.2283544e-05 -8.3744089e-06 -1.6011874e-05 
4.2331503e-05 -1.4415423e-05 -9.5090054e-06 
4.6679241e-05 -1.2451103e-05 1.8984553e-06 
4.7076112e-05 -1.3270715e-05 9.5200321e-06 
4.2253974e-05 -1.6227637e-05 1.5831216e-05 
3.1662599e-05 -1.3688615e-05 2.2074370e-05 
2.0465788e-05 -7.5692733e-06 1.5014793e-05 
9.2338360e-06 -3.4580748e-06 1.1511824e-05 
8.8872326e-07 -2.6658029e-07 7.6188712e-06 
-1.3307034e-06 1.4208325e-06 -6.6322519e-07 
-6.5939967e-06 3.8426419e-06 -1.4743458e-06 
-6.1698042e-06 4.2461415e-06 -5.8395159e-07 
-6.6778762e-06 -2.3584519e-07 -3.3369386e-06 
-3.4270513e-06 -2.5477905e-06 -3.6390027e-06 
-3.2660889e-06 3.6879198e-06 -1.1041496e-06 
-1.4212090e-06 -4.3320813e-07 -5.6793569e-06 
-2.7626317e-07 -3.6130562e-06 -5.2132673e-06 
2.7225399e-06 2.8271290e-06 -9.3459385e-06 
1.3084541e-05 -8.2986726e-06 -1.4039440e-05 
2.7214815e-05 -1.1909847e-05 -1.1553161e-05 
3.4229946e-05 -5.8543746e-06 -7.8790754e-06 
4.1967814e-05 -1.6831676e-05 -3.5690987e-06 
4.7532641e-05 -1.4720095e-05 5.1323282e-06 
4.6284422e-05 -1.5303320e-05 1.5497924e-05 
3.7709538e-05 -1.5697462e-05 1.6666245e-05 
2.8963164e-05 -1.2667483e-05 1.6365088e-05 
2.0060868e-05 -9.2110686e-06 1.4519076e-05 
1.1112527e-05 -4.0797431e-06 9.5046744e-06 
4.7977733e-06 -5.6265606e-07 3.2240143e-06 
7.0644444e-07 2.6822713e-06 -6.2889472e-07 
-1.2497644e-06 1.9571746e-06 -1.9485797e-06 
-1.7085713e-06 9.2202527e-07 -1.9675783e-06 
-1.4184928e-06 -2.4038221e-07 -9.6203121e-07 
-4.6837076e-07 -8.6366794e-07 5.6284892e-07 
5.5032581e-07 -7.3616229e-07 2.0577500e-06 
0.0000000e+00 9.3450353e-06 0.0000000e+00 
0.0000000e+00 1.8082379e-05 0.0000000e+00 
0.0000000e+00 2.5987514e-05 0.0000000e+00 
0.0000000e+00 2.1836631e-05 0.0000000e+00 
0.0000000e+00 2.3423861e-05 0.0000000e+00 
0.0000000e+00 2.8807366e-05 0.0000000e+00 
0.0000000e+00 2.0015970e-05 0.0000000e+00 
0.0000000e+00 1.8944895e-05 0.0000000e+00 
0.0000000e+00 2.8456438e-05 0.0000000e+00 
0.0000000e+00 2.5993440e-05 0.0000000e+00 
0.0000000e+00 2.5893514e-05 0.0000000e+00 
0.0000000e+00 2.3132334e-05 0.0000000e+00 
0.0000000e+00 2.5245363e-05 0.0000000e+00 
0.0000000e+00 -9.9268567e-05 0.0000000e+00 
0.0000000e+00 -1.8982736e-04 0.0000000e+00 
0.0000000e+00 -4.0123591e-04 0.0000000e+00 
0.0000000e+00 -5.1775738e-04 0.0000000e+00 
0.0000000e+00 -4.8859499e-04 0.0000000e+00 
0.0000000e+00 -4.5250970e-04 0.0000000e+00 
0.0000000e+00 -2.9953665e-04 0.0000000e+00 
0.0000000e+00 -1.1639346e-04 0.0000000e+00 
0.0000000e+00 -9.3353901e-06 0.0000000e+00 
0.0000000e+00 3.2923384e-05 0.0000000e+00 
0.0000000e+00 3.1928481e-05 0.0000000e+00 
0.0000000e+00 1.1239767e-05 0.0000000e+00 
0.0000000e+00 1.7073529e-05 0.0000000e+00 
0.0000000e+00 7.9707306e-06 0.0000000e+00 
0.0000000e+00 -3.0363567e-06 0.0000000e+00 
0.0000000e+00 2.6097729e-05 0.0000000e+00 
0.0000000e+00 3.4049321e-05 0.0000000e+00 
0.0000000e+00 1.6800353e-05 0.0000000e+00 
0.0000000e+00 1.9893247e-05 0.0000000e+00 
0.0000000e+00 2.7551889e-05 0.0000000e+00 
0.0000000e+00 -9.1457070e-05 0.0000000e+00 
0.0000000e+00 -2.4957044e-04 0.0000000e+00 
0.0000000e+00 -4.0526415e-04 0.0000000e+00 
0.0000000e+00 -5.4039073e-04 0.0000000e+00 
0.0000000e+00 -5.2628812e-04 0.0000000e+00 
0.0000000e+00 -4.2252470e-04 0.0000000e+00 
0.0000000e+00 -3.1711854e-04 0.0000000e+00 
0.0000000e+00 -1.2704001e-04 0.0000000e+00 
0.0000000e+00 -1.9462836e-05 0.0000000e+00 
0.0000000e+00 1.6221651e-05 0.0000000e+00 
0.0000000e+00 1.4645608e-05 0.0000000e+00 
0.0000000e+00 4.9142081e-06 0.0000000e+00 
0.0000000e+00 9.4903749e-07 0.0000000e+00 
0.0000000e+00 -3.2147969e-07 0.0000000e+00 
0.0000000e+00 -9.7734096e-07 0.0000000e+00 
0.0000000e+00 -9.8287296e-07 0.0000000e+00 
-2.5060463e-06 6.7281582e-07 1.4010640e-06 
-2.9729308e-06 1.9407771e-06 2.7140463e-06 
-2.7514966e-06 -1.3112427e-07 1.1140554e-06 
-2.4612457e-06 2.3539612e-06 -8.3869352e-08 
1.0536035e-06 -8.2235101e-07 2.6170878e-06 
1.0574198e-06 -1.6725792e-06 3.0891676e-06 
4.6746615e-07 -2.3618345e-06 3.7806203e-06 
-5.3319104e-07 -1.6822630e-06 3.1340485e-06 
-2.8774841e-06 -4.5443929e-07 2.5405304e-06 
9.7166196e-07 -7.3149295e-07 2.5582847e-06 
-1.8129518e-06 2.2257443e-06 -4.1425706e-06 
-3.8802705e-06 3.6488532e-07 3.5045173e-06 
0.0000000e+00 1.8708010e-05 0.0000000e+00 
0.0000000e+00 2.9659694e-05 0.0000000e+00 
0.0000000e+00 3.3476183e-05 0.0000000e+00 
0.0000000e+00 3.8882641e-05 0.0000000e+00 
0.0000000e+00 4.1929870e-05 0.0000000e+00 
0.0000000e+00 3.3280052e-05 0.0000000e+00 
0.0000000e+00 3.7646059e-05 0.0000000e+00 
0.0000000e+00 3.8663398e-05 0.0000000e+00 
0.0000000e+00 4.6350939e-05 0.0000000e+00 
0.0000000e+00 2.3267034e-05 0.0000000e+00 
0.0000000e+00 5.8473743e-05 0.0000000e+00 
0.0000000e+00 4.5813420e-05 0.0000000e+00 
0.0000000e+00 -1.3916643e-05 0.0000000e+00 