# vtk DataFile Version 4.0
vtk output
ASCII
DATASET UNSTRUCTURED_GRID
POINTS 1920 float
0.0000000e+00 0.0000000e+00 0.0000000e+00 
0.0000000e+00 0.0000000e+00 5.0000000e+01 
5.0000000e+00 0.0000000e+00 0.0000000e+00 
5.0000000e+00 0.0000000e+00 5.0000000e+01 
5.0000000e+00 1.0000000e+00 0.0000000e+00 
5.0000000e+00 1.0000000e+00 5.0000000e+01 
0.0000000e+00 1.0000000e+00 0.0000000e+00 
0.0000000e+00 1.0000000e+00 5.0000000e+01 
5.0000000e+00 2.0000000e+00 0.0000000e+00 
5.0000000e+00 2.0000000e+00 5.0000000e+01 
3.0000000e+00 2.0000000e+00 0.0000000e+00 
3.0000000e+00 2.0000000e+00 5.0000000e+01 
0.0000000e+00 2.0000000e+00 0.0000000e+00 
0.0000000e+00 2.0000000e+00 5.0000000e+01 
1.5000000e+00 3.0000000e+00 0.0000000e+00 
1.5000000e+00 3.0000000e+00 5.0000000e+01 
7.5000000e-01 3.0000000e+00 0.0000000e+00 
7.5000000e-01 3.0000000e+00 5.0000000e+01 
0.0000000e+00 3.0000000e+00 0.0000000e+00 
0.0000000e+00 3.0000000e+00 5.0000000e+01 
7.5000000e-01 3.0000000e+00 5.0000000e-01 
7.5000000e-01 3.0000000e+00 1.0000000e+00 
7.5000000e-01 3.0000000e+00 1.5000000e+00 
7.5000000e-01 3.0000000e+00 2.0000000e+00 
7.5000000e-01 3.0000000e+00 2.5000000e+00 
7.5000000e-01 3.0000000e+00 3.0000000e+00 
7.5000000e-01 3.0000000e+00 3.5000000e+00 
7.5000000e-01 3.0000000e+00 4.0000000e+00 
7.5000000e-01 3.0000000e+00 4.5000000e+00 
7.5000000e-01 3.0000000e+00 5.0000000e+00 
7.5000000e-01 3.0000000e+00 5.5000000e+00 
7.5000000e-01 3.0000000e+00 6.0000000e+00 
7.5000000e-01 3.0000000e+00 6.5000000e+00 
7.5000000e-01 3.0000000e+00 7.0000000e+00 
7.5000000e-01 3.0000000e+00 7.5000000e+00 
7.5000000e-01 3.0000000e+00 8.0000000e+00 
7.5000000e-01 3.0000000e+00 8.5000000e+00 
7.5000000e-01 3.0000000e+00 9.0000000e+00 
7.5000000e-01 3.0000000e+00 9.5000000e+00 
7.5000000e-01 3.0000000e+00 1.0000000e+01 
7.5000000e-01 3.0000000e+00 1.0500000e+01 
7.5000000e-01 3.0000000e+00 1.1000000e+01 
7.5000000e-01 3.0000000e+00 1.1500000e+01 
7.5000000e-01 3.0000000e+00 1.2000000e+01 
7.5000000e-01 3.0000000e+00 1.2500000e+01 
7.5000000e-01 3.0000000e+00 1.3000000e+01 
7.5000000e-01 3.0000000e+00 1.3500000e+01 
7.5000000e-01 3.0000000e+00 1.4000000e+01 
7.5000000e-01 3.0000000e+00 1.4500000e+01 
7.5000000e-01 3.0000000e+00 1.5000000e+01 
7.5000000e-01 3.0000000e+00 1.5500000e+01 
7.5000000e-01 3.0000000e+00 1.6000000e+01 
7.5000000e-01 3.0000000e+00 1.6500000e+01 
7.5000000e-01 3.0000000e+00 1.7000000e+01 
7.5000000e-01 3.0000000e+00 1.7500000e+01 
7.5000000e-01 3.0000000e+00 1.8000000e+01 
7.5000000e-01 3.0000000e+00 1.8500000e+01 
7.5000000e-01 3.0000000e+00 1.9000000e+01 
7.5000000e-01 3.0000000e+00 1.9500000e+01 
7.5000000e-01 3.0000000e+00 2.0000000e+01 
7.5000000e-01 3.0000000e+00 2.0500000e+01 
7.5000000e-01 3.0000000e+00 2.1000000e+01 
7.5000000e-01 3.0000000e+00 2.1500000e+01 
7.5000000e-01 3.0000000e+00 2.2000000e+01 
7.5000000e-01 3.0000000e+00 2.2500000e+01 
7.5000000e-01 3.0000000e+00 2.3000000e+01 
7.5000000e-01 3.0000000e+00 2.3500000e+01 
7.5000000e-01 3.0000000e+00 2.4000000e+01 
7.5000000e-01 3.0000000e+00 2.4500000e+01 
7.5000000e-01 3.0000000e+00 2.5000000e+01 
7.5000000e-01 3.0000000e+00 2.5500000e+01 
7.5000000e-01 3.0000000e+00 2.6000000e+01 
7.5000000e-01 3.0000000e+00 2.6500000e+01 
7.5000000e-01 3.0000000e+00 2.7000000e+01 
7.5000000e-01 3.0000000e+00 2.7500000e+01 
7.5000000e-01 3.0000000e+00 2.8000000e+01 
7.5000000e-01 3.0000000e+00 2.8500000e+01 
7.5000000e-01 3.0000000e+00 2.9000000e+01 
7.5000000e-01 3.0000000e+00 2.9500000e+01 
7.5000000e-01 3.0000000e+00 3.0000000e+01 
7.5000000e-01 3.0000000e+00 3.0500000e+01 
7.5000000e-01 3.0000000e+00 3.1000000e+01 
7.5000000e-01 3.0000000e+00 3.1500000e+01 
7.5000000e-01 3.0000000e+00 3.2000000e+01 
7.5000000e-01 3.0000000e+00 3.2500000e+01 
7.5000000e-01 3.0000000e+00 3.3000000e+01 
7.5000000e-01 3.0000000e+00 3.3500000e+01 
7.5000000e-01 3.0000000e+00 3.4000000e+01 
7.5000000e-01 3.0000000e+00 3.4500000e+01 
7.5000000e-01 3.0000000e+00 3.5000000e+01 
7.5000000e-01 3.0000000e+00 3.5500000e+01 
7.5000000e-01 3.0000000e+00 3.6000000e+01 
7.5000000e-01 3.0000000e+00 3.6500000e+01 
7.5000000e-01 3.0000000e+00 3.7000000e+01 
7.5000000e-01 3.0000000e+00 3.7500000e+01 
7.5000000e-01 3.0000000e+00 3.8000000e+01 
7.5000000e-01 3.0000000e+00 3.8500000e+01 
7.5000000e-01 3.0000000e+00 3.9000000e+01 
7.5000000e-01 3.0000000e+00 3.9500000e+01 
7.5000000e-01 3.0000000e+00 4.0000000e+01 
7.5000000e-01 3.0000000e+00 4.0500000e+01 
7.5000000e-01 3.0000000e+00 4.1000000e+01 
7.5000000e-01 3.0000000e+00 4.1500000e+01 
7.5000000e-01 3.0000000e+00 4.2000000e+01 
7.5000000e-01 3.0000000e+00 4.2500000e+01 
7.5000000e-01 3.0000000e+00 4.3000000e+01 
7.5000000e-01 3.0000000e+00 4.3500000e+01 
7.5000000e-01 3.0000000e+00 4.4000000e+01 
7.5000000e-01 3.0000000e+00 4.4500000e+01 
7.5000000e-01 3.0000000e+00 4.5000000e+01 
7.5000000e-01 3.0000000e+00 4.5500000e+01 
7.5000000e-01 3.0000000e+00 4.6000000e+01 
7.5000000e-01 3.0000000e+00 4.6500000e+01 
7.5000000e-01 3.0000000e+00 4.7000000e+01 
7.5000000e-01 3.0000000e+00 4.7500000e+01 
7.5000000e-01 3.0000000e+00 4.8000000e+01 
7.5000000e-01 3.0000000e+00 4.8500000e+01 
7.5000000e-01 3.0000000e+00 4.9000000e+01 
7.5000000e-01 3.0000000e+00 4.9500000e+01 
7.5000000e-01 3.0250001e+00 0.0000000e+00 
7.5000000e-01 3.0250001e+00 5.0000000e-01 
7.5000000e-01 3.0250001e+00 1.0000000e+00 
7.5000000e-01 3.0250001e+00 1.5000000e+00 
7.5000000e-01 3.0250001e+00 2.0000000e+00 
7.5000000e-01 3.0250001e+00 2.5000000e+00 
7.5000000e-01 3.0250001e+00 3.0000000e+00 
7.5000000e-01 3.0250001e+00 3.5000000e+00 
7.5000000e-01 3.0250001e+00 4.0000000e+00 
7.5000000e-01 3.0250001e+00 4.5000000e+00 
7.5000000e-01 3.0250001e+00 5.0000000e+00 
7.5000000e-01 3.0250001e+00 5.5000000e+00 
7.5000000e-01 3.0250001e+00 6.0000000e+00 
7.5000000e-01 3.0250001e+00 6.5000000e+00 
7.5000000e-01 3.0250001e+00 7.0000000e+00 
7.5000000e-01 3.0250001e+00 7.5000000e+00 
7.5000000e-01 3.0250001e+00 8.0000000e+00 
7.5000000e-01 3.0250001e+00 8.5000000e+00 
7.5000000e-01 3.0250001e+00 9.0000000e+00 
7.5000000e-01 3.0250001e+00 9.5000000e+00 
7.5000000e-01 3.0250001e+00 1.0000000e+01 
7.5000000e-01 3.0250001e+00 1.0500000e+01 
7.5000000e-01 3.0250001e+00 1.1000000e+01 
7.5000000e-01 3.0250001e+00 1.1500000e+01 
7.5000000e-01 3.0250001e+00 1.2000000e+01 
7.5000000e-01 3.0250001e+00 1.2500000e+01 
7.5000000e-01 3.0250001e+00 1.3000000e+01 
7.5000000e-01 3.0250001e+00 1.3500000e+01 
7.5000000e-01 3.0250001e+00 1.4000000e+01 
7.5000000e-01 3.0250001e+00 1.4500000e+01 
7.5000000e-01 3.0250001e+00 1.5000000e+01 
7.5000000e-01 3.0250001e+00 1.5500000e+01 
7.5000000e-01 3.0250001e+00 1.6000000e+01 
7.5000000e-01 3.0250001e+00 1.6500000e+01 
7.5000000e-01 3.0250001e+00 1.7000000e+01 
7.5000000e-01 3.0250001e+00 1.7500000e+01 
7.5000000e-01 3.0250001e+00 1.8000000e+01 
7.5000000e-01 3.0250001e+00 1.8500000e+01 
7.5000000e-01 3.0250001e+00 1.9000000e+01 
7.5000000e-01 3.0250001e+00 1.9500000e+01 
7.5000000e-01 3.0250001e+00 2.0000000e+01 
7.5000000e-01 3.0250001e+00 2.0500000e+01 
7.5000000e-01 3.0250001e+00 2.1000000e+01 
7.5000000e-01 3.0250001e+00 2.1500000e+01 
7.5000000e-01 3.0250001e+00 2.2000000e+01 
7.5000000e-01 3.0250001e+00 2.2500000e+01 
7.5000000e-01 3.0250001e+00 2.3000000e+01 
7.5000000e-01 3.0250001e+00 2.3500000e+01 
7.5000000e-01 3.0250001e+00 2.4000000e+01 
7.5000000e-01 3.0250001e+00 2.4500000e+01 
7.5000000e-01 3.0250001e+00 2.5000000e+01 
7.5000000e-01 3.0250001e+00 2.5500000e+01 
7.5000000e-01 3.0250001e+00 2.6000000e+01 
7.5000000e-01 3.0250001e+00 2.6500000e+01 
7.5000000e-01 3.0250001e+00 2.7000000e+01 
7.5000000e-01 3.0250001e+00 2.7500000e+01 
7.5000000e-01 3.0250001e+00 2.8000000e+01 
7.5000000e-01 3.0250001e+00 2.8500000e+01 
7.5000000e-01 3.0250001e+00 2.9000000e+01 
7.5000000e-01 3.0250001e+00 2.9500000e+01 
7.5000000e-01 3.0250001e+00 3.0000000e+01 
7.5000000e-01 3.0250001e+00 3.0500000e+01 
7.5000000e-01 3.0250001e+00 3.1000000e+01 
7.5000000e-01 3.0250001e+00 3.1500000e+01 
7.5000000e-01 3.0250001e+00 3.2000000e+01 
7.5000000e-01 3.0250001e+00 3.2500000e+01 
7.5000000e-01 3.0250001e+00 3.3000000e+01 
7.5000000e-01 3.0250001e+00 3.3500000e+01 
7.5000000e-01 3.0250001e+00 3.4000000e+01 
7.5000000e-01 3.0250001e+00 3.4500000e+01 
7.5000000e-01 3.0250001e+00 3.5000000e+01 
7.5000000e-01 3.0250001e+00 3.5500000e+01 
7.5000000e-01 3.0250001e+00 3.6000000e+01 
7.5000000e-01 3.0250001e+00 3.6500000e+01 
7.5000000e-01 3.0250001e+00 3.7000000e+01 
7.5000000e-01 3.0250001e+00 3.7500000e+01 
7.5000000e-01 3.0250001e+00 3.8000000e+01 
7.5000000e-01 3.0250001e+00 3.8500000e+01 
7.5000000e-01 3.0250001e+00 3.9000000e+01 
7.5000000e-01 3.0250001e+00 3.9500000e+01 
7.5000000e-01 3.0250001e+00 4.0000000e+01 
7.5000000e-01 3.0250001e+00 4.0500000e+01 
7.5000000e-01 3.0250001e+00 4.1000000e+01 
7.5000000e-01 3.0250001e+00 4.1500000e+01 
7.5000000e-01 3.0250001e+00 4.2000000e+01 
7.5000000e-01 3.0250001e+00 4.2500000e+01 
7.5000000e-01 3.0250001e+00 4.3000000e+01 
7.5000000e-01 3.0250001e+00 4.3500000e+01 
7.5000000e-01 3.0250001e+00 4.4000000e+01 
7.5000000e-01 3.0250001e+00 4.4500000e+01 
7.5000000e-01 3.0250001e+00 4.5000000e+01 
7.5000000e-01 3.0250001e+00 4.5500000e+01 
7.5000000e-01 3.0250001e+00 4.6000000e+01 
7.5000000e-01 3.0250001e+00 4.6500000e+01 
7.5000000e-01 3.0250001e+00 4.7000000e+01 
7.5000000e-01 3.0250001e+00 4.7500000e+01 
7.5000000e-01 3.0250001e+00 4.8000000e+01 
7.5000000e-01 3.0250001e+00 4.8500000e+01 
7.5000000e-01 3.0250001e+00 4.9000000e+01 
7.5000000e-01 3.0250001e+00 4.9500000e+01 
7.5000000e-01 3.0250001e+00 5.0000000e+01 
1.5000000e+00 3.0000000e+00 2.5000000e+01 
3.0000000e+00 2.0000000e+00 2.5000000e+01 
4.0000000e+00 2.0000000e+00 2.5000000e+01 
5.0000000e+00 2.0000000e+00 2.5000000e+01 
0.0000000e+00 3.0000000e+00 2.5000000e+01 
0.0000000e+00 0.0000000e+00 1.0000000e+00 
0.0000000e+00 0.0000000e+00 2.0000000e+00 
0.0000000e+00 0.0000000e+00 3.0000000e+00 
0.0000000e+00 0.0000000e+00 4.0000000e+00 
0.0000000e+00 0.0000000e+00 5.0000000e+00 
[...]
POINT_DATA 1920
FIELD FieldData 3
DISPLACEMENT 3 1920  float
0.0000000e+00 0.0000000e+00 0.0000000e+00 
0.0000000e+00 0.0000000e+00 0.0000000e+00 
0.0000000e+00 0.0000000e+00 0.0000000e+00 
0.0000000e+00 0.0000000e+00 0.0000000e+00 
-1.4834443e-07 5.4876659e-07 2.5256563e-07 
-6.8730628e-07 -3.6882432e-07 3.0352362e-07 
0.0000000e+00 -1.1758594e-06 0.0000000e+00 
0.0000000e+00 -1.0521056e-06 0.0000000e+00 
-9.4947632e-07 7.3631520e-07 2.6541380e-07 
-4.9469634e-07 -9.4517435e-07 1.5447100e-06 
-3.3296672e-07 -8.7037989e-07 1.0355557e-06 
-8.3450442e-07 1.2713615e-06 -3.0412675e-06 
0.0000000e+00 -3.5718681e-06 0.0000000e+00 
0.0000000e+00 -6.2750260e-06 0.0000000e+00 
1.5022251e-06 -6.6753873e-06 -8.0682330e-06 
1.7058599e-06 -9.2132204e-06 7.8243756e-06 
3.7631632e-06 7.4787732e-07 -1.9332881e-06 
3.1568045e-06 -1.4923062e-05 3.6124984e-06 
0.0000000e+00 -5.7397715e-06 0.0000000e+00 
0.0000000e+00 -2.3924533e-05 0.0000000e+00 
3.7355308e-06 1.6792775e-06 -4.6379125e-07 
4.9612781e-06 4.2211141e-06 2.8236625e-06 
7.8049470e-06 7.7360482e-06 7.4811455e-06 
1.0324319e-05 1.1831699e-05 1.2908734e-05 
8.8951574e-06 1.5792590e-05 1.5121950e-05 
9.7038410e-06 1.9060519e-05 1.3723182e-05 
8.1760018e-06 2.1278669e-05 1.1470858e-05 
8.7087474e-06 2.2030941e-05 7.4869013e-06 
7.1915797e-06 2.1337180e-05 7.6234219e-06 
7.5337484e-06 1.9280060e-05 7.9379661e-06 
5.5505138e-06 1.6459540e-05 8.8544357e-06 
5.1356792e-06 1.3367030e-05 5.3217832e-06 
2.0631237e-06 1.0740867e-05 2.5573186e-07 
5.2737746e-06 8.8582428e-06 -6.4609658e-06 
7.1131522e-06 8.1334283e-06 -1.1491753e-05 
1.1636822e-05 8.1435992e-06 -1.3549248e-05 
1.3368515e-05 8.6570872e-06 -1.3618512e-05 
1.4519076e-05 8.8781080e-06 -1.2405316e-05 
1.3664594e-05 8.5241827e-06 -1.1908576e-05 
1.4691514e-05 7.5448493e-06 -1.0119871e-05 
1.3144686e-05 6.0314142e-06 -9.7566281e-06 
1.2533614e-05 4.2379529e-06 -9.1418924e-06 
1.0427309e-05 2.5464553e-06 -1.0108295e-05 
9.4060842e-06 1.4159366e-06 -9.8800328e-06 
8.1635962e-06 1.7001508e-06 -1.0083827e-05 
2.7395756e-06 3.9646984e-06 -9.0145568e-06 
-2.8088909e-06 8.9602790e-06 -1.1534734e-05 
-3.2420139e-06 1.7324355e-05 -1.1736164e-05 
-1.2665726e-06 2.9737494e-05 -1.3420840e-05 
-3.3006086e-06 4.6407127e-05 -7.7925206e-06 
-4.9275427e-06 6.6517496e-05 -1.8724813e-06 
-4.9798859e-06 8.5357082e-05 1.2608964e-05 
-3.9614638e-06 9.2188828e-05 2.9776758e-05 
-8.9071391e-06 6.5153610e-05 6.3451866e-05 
-1.8327593e-05 -3.1125524e-05 9.4639676e-05 
-2.9465557e-05 -2.4104380e-04 1.0509679e-04 
-5.7295612e-05 -6.2486558e-04 1.9864911e-04 
-7.3836782e-05 -1.2394554e-03 1.6953850e-04 
-1.2403294e-04 -2.1267759e-03 2.8115604e-04 
-1.5624322e-04 -3.2342321e-03 1.3798727e-04 
-2.2073045e-04 -4.3795868e-03 2.2392985e-04 
-2.7200542e-04 -5.0512645e-03 6.3019957e-05 
-2.9348271e-04 -4.9003018e-03 1.1758874e-05 
-2.3502864e-04 -4.5547751e-03 4.8125180e-06 
-3.3449434e-04 -4.4650938e-03 1.0731496e-05 
-2.1954536e-04 -4.5797066e-03 -5.7483689e-05 
-2.1838087e-04 -4.4366522e-03 -1.8739632e-04 
-9.7063450e-05 -3.4396027e-03 -1.5978226e-04 
-9.2608978e-05 -2.1897904e-03 -2.1904838e-04 
-3.5565005e-05 -1.1128618e-03 -1.3851907e-04 
-9.2864948e-06 -3.7808312e-04 -1.5249639e-04 
7.3789729e-06 3.6648533e-05 -7.4487638e-05 
1.5050158e-05 2.1276288e-04 -5.6848985e-05 
1.7273464e-05 2.4255439e-04 -2.9041516e-05 
1.6226411e-05 2.0275041e-04 -1.2825407e-05 
1.5559312e-05 1.4040986e-04 -1.3922773e-05 
1.2381324e-05 8.3827035e-05 -6.9494113e-06 
9.0017329e-06 4.1274132e-05 -9.6248032e-06 
5.1134361e-06 1.4175417e-05 -7.7173108e-06 
4.4666740e-06 -6.5096810e-07 -1.0901728e-05 
5.5495475e-06 -6.5415184e-06 -1.4091000e-05 
6.8643276e-06 -6.9105836e-06 -1.6478494e-05 
6.2791264e-06 -4.4753679e-06 -1.6047747e-05 
8.3633213e-06 -1.0166157e-06 -1.2937782e-05 
7.4243599e-06 2.9672710e-06 -1.0872032e-05 
7.8637868e-06 8.2608403e-06 -8.6019345e-06 
7.8459161e-06 1.6064983e-05 -8.4956746e-06 
3.2743724e-06 2.7273518e-05 -4.8481993e-06 
-1.2081334e-07 4.2474323e-05 -4.8355332e-06 
2.3158279e-06 6.0979593e-05 -1.4164955e-06 
1.0791248e-06 8.1080208e-05 2.7926214e-06 
-5.7907810e-06 9.7124466e-05 1.5751952e-05 
-1.2015958e-05 9.7843280e-05 3.0512840e-05 
-1.0978169e-05 5.9872709e-05 4.8147020e-05 
-2.4033650e-05 -5.2951356e-05 8.5792934e-05 
-6.4104119e-05 -2.9358745e-04 1.6723435e-04 
-6.7431043e-05 -7.2293531e-04 1.9859192e-04 
-8.7563967e-05 -1.3928200e-03 1.6623588e-04 
-1.4084547e-04 -2.3342681e-03 2.8032155e-04 
-1.7222381e-04 -3.4667302e-03 1.2298662e-04 
-2.4206578e-04 -4.5632082e-03 1.9677942e-04 
-2.6057314e-04 -5.0487886e-03 5.7974525e-05 
-2.4184947e-04 -4.7907275e-03 1.0520636e-05 
-2.3662485e-04 -4.4652391e-03 -1.0064868e-05 
-2.0336748e-04 -4.4433833e-03 -1.3502560e-05 
-2.1790809e-04 -4.5501376e-03 -1.1080675e-04 
-2.0466204e-04 -4.2148950e-03 -1.8477079e-04 
-1.6888074e-04 -3.1158770e-03 -1.3366636e-04 
-1.0048734e-04 -1.8985585e-03 -2.3220984e-04 
-7.2010931e-05 -9.0795959e-04 -1.2204648e-04 
-2.1990478e-05 -2.5771721e-04 -1.4016884e-04 
-7.3374317e-06 9.0769943e-05 -6.9517293e-05 
5.6293761e-06 2.2453435e-04 -4.9391001e-05 
5.9707768e-06 2.3149760e-04 -2.7855363e-05 
6.3468879e-06 1.8217605e-04 -1.1479267e-05 
2.4056824e-06 1.1814972e-04 -1.0966683e-05 
2.3912039e-06 6.0991122e-05 -8.5594934e-08 
8.3918337e-07 1.9027670e-05 -3.3793420e-08 
1.0842659e-06 -6.3200710e-06 2.4312226e-06 
0.0000000e+00 7.7031660e-07 0.0000000e+00 
0.0000000e+00 1.6990066e-06 0.0000000e+00 
0.0000000e+00 4.2133461e-06 0.0000000e+00 
0.0000000e+00 7.7595096e-06 0.0000000e+00 
0.0000000e+00 1.1834003e-05 0.0000000e+00 
0.0000000e+00 1.5795205e-05 0.0000000e+00 
0.0000000e+00 1.9078017e-05 0.0000000e+00 
0.0000000e+00 2.1275222e-05 0.0000000e+00 
0.0000000e+00 2.2043780e-05 0.0000000e+00 
0.0000000e+00 2.1328062e-05 0.0000000e+00 
0.0000000e+00 1.9297529e-05 0.0000000e+00 
0.0000000e+00 1.6460559e-05 0.0000000e+00 
0.0000000e+00 1.3398158e-05 0.0000000e+00 
0.0000000e+00 1.0748289e-05 0.0000000e+00 
0.0000000e+00 8.9114519e-06 0.0000000e+00 
0.0000000e+00 8.1411681e-06 0.0000000e+00 
0.0000000e+00 8.1871067e-06 0.0000000e+00 
0.0000000e+00 8.6467953e-06 0.0000000e+00 
0.0000000e+00 8.8774077e-06 0.0000000e+00 
0.0000000e+00 8.5303518e-06 0.0000000e+00 
0.0000000e+00 7.5497296e-06 0.0000000e+00 
0.0000000e+00 6.0394827e-06 0.0000000e+00 
0.0000000e+00 4.2425422e-06 0.0000000e+00 
0.0000000e+00 2.5297932e-06 0.0000000e+00 
0.0000000e+00 1.4310959e-06 0.0000000e+00 
0.0000000e+00 1.6955435e-06 0.0000000e+00 
0.0000000e+00 3.9729389e-06 0.0000000e+00 
0.0000000e+00 8.9634786e-06 0.0000000e+00 
0.0000000e+00 1.7350647e-05 0.0000000e+00 
0.0000000e+00 2.9794268e-05 0.0000000e+00 
0.0000000e+00 4.6603145e-05 0.0000000e+00 
0.0000000e+00 6.6830624e-05 0.0000000e+00 
0.0000000e+00 8.5962347e-05 0.0000000e+00 
0.0000000e+00 9.2918359e-05 0.0000000e+00 
0.0000000e+00 6.5695509e-05 0.0000000e+00 
0.0000000e+00 -3.0245623e-05 0.0000000e+00 
0.0000000e+00 -2.4103843e-04 0.0000000e+00 
0.0000000e+00 -6.2562386e-04 0.0000000e+00 
0.0000000e+00 -1.2441149e-03 0.0000000e+00 
0.0000000e+00 -2.1338302e-03 0.0000000e+00 
0.0000000e+00 -3.2515486e-03 0.0000000e+00 
0.0000000e+00 -4.3996992e-03 0.0000000e+00 
0.0000000e+00 -5.0828778e-03 0.0000000e+00 
0.0000000e+00 -4.9256384e-03 0.0000000e+00 
0.0000000e+00 -4.5799771e-03 0.0000000e+00 
0.0000000e+00 -4.4871871e-03 0.0000000e+00 
0.0000000e+00 -4.6139527e-03 0.0000000e+00 
0.0000000e+00 -4.4565899e-03 0.0000000e+00 
0.0000000e+00 -3.4633491e-03 0.0000000e+00 
0.0000000e+00 -2.2032105e-03 0.0000000e+00 
0.0000000e+00 -1.1220146e-03 0.0000000e+00 
0.0000000e+00 -3.8068864e-04 0.0000000e+00 
0.0000000e+00 3.6582009e-05 0.0000000e+00 
0.0000000e+00 2.1383258e-04 0.0000000e+00 
0.0000000e+00 2.4421464e-04 0.0000000e+00 
0.0000000e+00 2.0378183e-04 0.0000000e+00 
0.0000000e+00 1.4140470e-04 0.0000000e+00 
0.0000000e+00 8.4169682e-05 0.0000000e+00 
0.0000000e+00 4.1480325e-05 0.0000000e+00 
0.0000000e+00 1.4181685e-05 0.0000000e+00 
0.0000000e+00 -6.5265380e-07 0.0000000e+00 
0.0000000e+00 -6.5727058e-06 0.0000000e+00 
0.0000000e+00 -6.9526382e-06 0.0000000e+00 
0.0000000e+00 -4.5338966e-06 0.0000000e+00 
0.0000000e+00 -1.0754295e-06 0.0000000e+00 
0.0000000e+00 2.9499752e-06 0.0000000e+00 
0.0000000e+00 8.2787847e-06 0.0000000e+00 
0.0000000e+00 1.6089258e-05 0.0000000e+00 
0.0000000e+00 2.7344708e-05 0.0000000e+00 
0.0000000e+00 4.2539821e-05 0.0000000e+00 
0.0000000e+00 6.1186976e-05 0.0000000e+00 
0.0000000e+00 8.1387443e-05 0.0000000e+00 
0.0000000e+00 9.7758020e-05 0.0000000e+00 
0.0000000e+00 9.8560704e-05 0.0000000e+00 
0.0000000e+00 6.0821767e-05 0.0000000e+00 
0.0000000e+00 -5.2467843e-05 0.0000000e+00 
0.0000000e+00 -2.9387887e-04 0.0000000e+00 
0.0000000e+00 -7.2401331e-04 0.0000000e+00 
0.0000000e+00 -1.3983898e-03 0.0000000e+00 
0.0000000e+00 -2.3422926e-03 0.0000000e+00 
0.0000000e+00 -3.4856438e-03 0.0000000e+00 
0.0000000e+00 -4.5846128e-03 0.0000000e+00 
0.0000000e+00 -5.0806985e-03 0.0000000e+00 
0.0000000e+00 -4.8146495e-03 0.0000000e+00 
0.0000000e+00 -4.4929590e-03 0.0000000e+00 
0.0000000e+00 -4.4650603e-03 0.0000000e+00 
0.0000000e+00 -4.5800111e-03 0.0000000e+00 
0.0000000e+00 -4.2385762e-03 0.0000000e+00 
0.0000000e+00 -3.1384199e-03 0.0000000e+00 
0.0000000e+00 -1.9103492e-03 0.0000000e+00 
0.0000000e+00 -9.1508118e-04 0.0000000e+00 
0.0000000e+00 -2.5974296e-04 0.0000000e+00 
0.0000000e+00 9.1160051e-05 0.0000000e+00 
0.0000000e+00 2.2567440e-04 0.0000000e+00 
0.0000000e+00 2.3307526e-04 0.0000000e+00 
0.0000000e+00 1.8322996e-04 0.0000000e+00 
0.0000000e+00 1.1880363e-04 0.0000000e+00 
0.0000000e+00 6.1326507e-05 0.0000000e+00 
0.0000000e+00 1.9071467e-05 0.0000000e+00 
0.0000000e+00 -6.3589760e-06 0.0000000e+00 
0.0000000e+00 -1.4902496e-05 0.0000000e+00 
-1.6362607e-04 -4.1997552e-04 -2.4914034e-04 
2.1987666e-05 -3.3100987e-05 1.7706980e-05 
2.1391405e-05 -9.0883022e-06 1.4481620e-05 
1.5269268e-05 -2.4580265e-06 1.4488029e-05 
0.0000000e+00 -2.4429371e-04 0.0000000e+00 
0.0000000e+00 0.0000000e+00 0.0000000e+00 
0.0000000e+00 0.0000000e+00 0.0000000e+00 
0.0000000e+00 0.0000000e+00 0.0000000e+00 
0.0000000e+00 0.0000000e+00 0.0000000e+00 
0.0000000e+00 0.0000000e+00 0.0000000e+00 
0.0000000e+00 0.0000000e+00 0.0000000e+00 
0.0000000e+00 0.0000000e+00 0.0000000e+00 
0.0000000e+00 0.0000000e+00 0.0000000e+00 
0.0000000e+00 0.0000000e+00 0.0000000e+00 
0.0000000e+00 0.0000000e+00 0.0000000e+00 
0.0000000e+00 0.0000000e+00 0.0000000e+00 
0.0000000e+00 0.0000000e+00 0.0000000e+00 
0.0000000e+00 0.0000000e+00 0.0000000e+00 
0.0000000e+00 0.0000000e+00 0.0000000e+00 
0.0000000e+00 0.0000000e+00 0.0000000e+00 
0.0000000e+00 0.0000000e+00 0.0000000e+00 
0.0000000e+00 0.0000000e+00 0.0000000e+00 
0.0000000e+00 0.0000000e+00 0.0000000e+00 
0.0000000e+00 0.0000000e+00 0.0000000e+00 
0.0000000e+00 0.0000000e+00 0.0000000e+00 
0.0000000e+00 0.0000000e+00 0.0000000e+00 
0.0000000e+00 0.0000000e+00 0.0000000e+00 
0.0000000e+00 0.0000000e+00 0.0000000e+00 
0.0000000e+00 0.0000000e+00 0.0000000e+00 
0.0000000e+00 0.0000000e+00 0.0000000e+00 
0.0000000e+00 0.0000000e+00 0.0000000e+00 
0.0000000e+00 0.0000000e+00 0.0000000e+00 
0.0000000e+00 0.0000000e+00 0.0000000e+00 
0.0000000e+00 0.0000000e+00 0.0000000e+00 
0.0000000e+00 0.0000000e+00 0.0000000e+00 
0.0000000e+00 0.0000000e+00 0.0000000e+00 
0.0000000e+00 0.0000000e+00 0.0000000e+00 
0.0000000e+00 0.0000000e+00 0.0000000e+00 
0.0000000e+00 0.0000000e+00 0.0000000e+00 
0.0000000e+00 0.0000000e+00 0.0000000e+00 
0.0000000e+00 0.0000000e+00 0.0000000e+00 
0.0000000e+00 0.0000000e+00 0.0000000e+00 
0.0000000e+00 0.0000000e+00 0.0000000e+00 
0.0000000e+00 0.0000000e+00 0.0000000e+00 
0.0000000e+00 0.0000000e+00 0.0000000e+00 
0.0000000e+00 0.0000000e+00 0.0000000e+00 
0.0000000e+00 0.0000000e+00 0.0000000e+00 
0.0000000e+00 0.0000000e+00 0.0000000e+00 
0.0000000e+00 0.0000000e+00 0.0000000e+00 
0.0000000e+00 0.0000000e+00 0.0000000e+00 
0.0000000e+00 0.0000000e+00 0.0000000e+00 
0.0000000e+00 0.0000000e+00 0.0000000e+00 
0.0000000e+00 0.0000000e+00 0.0000000e+00 
0.0000000e+00 0.0000000e+00 0.0000000e+00 
0.0000000e+00 0.0000000e+00 0.0000000e+00 
0.0000000e+00 0.0000000e+00 0.0000000e+00 
0.0000000e+00 0.0000000e+00 0.0000000e+00 
0.0000000e+00 0.0000000e+00 0.0000000e+00 
0.0000000e+00 0.0000000e+00 0.0000000e+00 
0.0000000e+00 0.0000000e+00 0.0000000e+00 
0.0000000e+00 0.0000000e+00 0.0000000e+00 
0.0000000e+00 0.0000000e+00 0.0000000e+00 
0.0000000e+00 0.0000000e+00 0.0000000e+00 
0.0000000e+00 0.0000000e+00 0.0000000e+00 
0.0000000e+00 0.0000000e+00 0.0000000e+00 
0.0000000e+00 0.0000000e+00 0.0000000e+00 
0.0000000e+00 0.0000000e+00 0.0000000e+00 
0.0000000e+00 0.0000000e+00 0.0000000e+00 
0.0000000e+00 0.0000000e+00 0.0000000e+00 
0.0000000e+00 0.0000000e+00 0.0000000e+00 
0.0000000e+00 0.0000000e+00 0.0000000e+00 
0.0000000e+00 0.0000000e+00 0.0000000e+00 
0.0000000e+00 0.0000000e+00 0.0000000e+00 
0.0000000e+00 0.0000000e+00 0.0000000e+00 
0.0000000e+00 0.0000000e+00 0.0000000e+00 
0.0000000e+00 0.0000000e+00 0.0000000e+00 
0.0000000e+00 0.0000000e+00 0.0000000e+00 
0.0000000e+00 0.0000000e+00 0.0000000e+00 
0.0000000e+00 0.0000000e+00 0.0000000e+00 
0.0000000e+00 0.0000000e+00 0.0000000e+00 
0.0000000e+00 0.0000000e+00 0.0000000e+00 
0.0000000e+00 0.0000000e+00 0.0000000e+00 
0.0000000e+00 0.0000000e+00 0.0000000e+00 
0.0000000e+00 0.0000000e+00 0.0000000e+00 
0.0000000e+00 0.0000000e+00 0.0000000e+00 
0.0000000e+00 0.0000000e+00 0.0000000e+00 
0.0000000e+00 0.0000000e+00 0.0000000e+00 
0.0000000e+00 0.0000000e+00 0.0000000e+00 
0.0000000e+00 0.0000000e+00 0.0000000e+00 
0.0000000e+00 0.0000000e+00 0.0000000e+00 
0.0000000e+00 0.0000000e+00 0.0000000e+00 
0.0000000e+00 0.0000000e+00 0.0000000e+00 
0.0000000e+00 0.0000000e+00 0.0000000e+00 
0.0000000e+00 0.0000000e+00 0.0000000e+00 
0.0000000e+00 0.0000000e+00 0.0000000e+00 
0.0000000e+00 0.0000000e+00 0.0000000e+00 
0.0000000e+00 0.0000000e+00 0.0000000e+00 
0.0000000e+00 0.0000000e+00 0.0000000e+00 
0.0000000e+00 0.0000000e+00 0.0000000e+00 
0.0000000e+00 0.0000000e+00 0.0000000e+00 
0.0000000e+00 0.0000000e+00 0.0000000e+00 
0.0000000e+00 0.0000000e+00 0.0000000e+00 
0.0000000e+00 0.0000000e+00 0.0000000e+00 
0.0000000e+00 0.0000000e+00 0.0000000e+00 
0.0000000e+00 0.0000000e+00 0.0000000e+00 
0.0000000e+00 0.0000000e+00 0.0000000e+00 
0.0000000e+00 0.0000000e+00 0.0000000e+00 
0.0000000e+00 0.0000000e+00 0.0000000e+00 
0.0000000e+00 0.0000000e+00 0.0000000e+00 
0.0000000e+00 0.0000000e+00 0.0000000e+00 
0.0000000e+00 0.0000000e+00 0.0000000e+00 
-3.4131109e-08 5.0138209e-07 1.1984527e-07 
5.2151836e-07 3.5481258e-07 3.7111556e-07 
1.1428391e-06 2.0312504e-07 8.0578855e-07 
1.5323909e-06 1.5547197e-07 9.5021420e-07 
1.6822697e-06 -7.4603619e-08 8.6740630e-07 
1.6349679e-06 -2.1393618e-07 5.9728075e-07 
1.5881276e-06 2.6205013e-08 5.8841071e-08 
1.3733461e-06 2.3952333e-07 -8.6799218e-07 
1.3063009e-06 2.7655776e-07 -1.1511351e-06 
1.4821758e-06 2.4430489e-07 -3.9191062e-07 
1.2423761e-06 1.3753446e-07 4.7531177e-07 
7.4409013e-07 -1.1378170e-07 4.2970206e-07 
1.1554939e-07 -6.4400734e-07 -4.7448248e-07 
-1.1858033e-08 2.9648561e-07 -1.8872175e-06 
7.4163262e-07 4.5973255e-07 -4.4657213e-06 
2.6032228e-06 -5.6523163e-07 -7.9594138e-06 
1.0042579e-05 -4.8357952e-06 -1.2522682e-05 
2.1028236e-05 -7.3137198e-06 -1.4965942e-05 
3.0095511e-05 -1.0330670e-05 -1.4729481e-05 
4.1434239e-05 -1.4744754e-05 -1.1118877e-05 
4.8155616e-05 -1.5147987e-05 -4.4735220e-06 
4.7938822e-05 -1.5316875e-05 5.7458133e-06 
4.2244967e-05 -1.4510598e-05 1.3077159e-05 
3.2858810e-05 -1.0494300e-05 1.6704180e-05 
2.2014248e-05 -5.9052368e-06 1.5214413e-05 
1.1817267e-05 -3.3375682e-06 1.1593733e-05 
4.9655978e-06 -2.0308109e-06 7.0033998e-06 
1.7319800e-06 -8.3001657e-07 2.3673124e-06 
8.1862856e-07 2.0240270e-07 3.0255981e-07 
-5.8337413e-08 5.2429141e-07 -2.6894025e-07 
-8.6807097e-07 5.4048570e-07 -1.0723540e-07 
-1.0982453e-06 5.8354914e-07 -9.7492020e-08 
-1.0340522e-06 7.2809036e-07 -5.2780393e-07 
-6.9787397e-08 8.3298494e-07 -1.6972332e-06 
1.2267541e-06 2.6057890e-07 -3.1557338e-06 
4.7856997e-06 -8.1647249e-07 -6.6436510e-06 
1.1141037e-05 -4.3627460e-06 -1.0960225e-05 
2.2160484e-05 -9.5091045e-06 -1.4156703e-05 
3.3541699e-05 -1.4157549e-05 -1.3468926e-05 
4.2749263e-05 -1.7448981e-05 -9.5026080e-06 
5.0112121e-05 -1.8073742e-05 -2.9203848e-06 
4.9350900e-05 -1.6519116e-05 6.7735805e-06 
4.1757623e-05 -1.3724463e-05 1.3114020e-05 
2.9725110e-05 -9.4311790e-06 1.6372114e-05 
1.5969110e-05 -4.8776274e-06 1.5120709e-05 
1.0854521e-05 -3.4948066e-06 1.1096557e-05 
4.4078633e-06 -1.1706405e-06 6.7529659e-06 
1.2797542e-06 -3.7038305e-07 2.8225825e-06 
-1.1749322e-07 2.8464427e-07 5.4777246e-07 
0.0000000e+00 -4.4821181e-06 0.0000000e+00 
0.0000000e+00 -7.6436318e-06 0.0000000e+00 
0.0000000e+00 -8.7268218e-06 0.0000000e+00 
0.0000000e+00 -8.9357009e-06 0.0000000e+00 
0.0000000e+00 -8.7640265e-06 0.0000000e+00 
0.0000000e+00 -9.7227903e-06 0.0000000e+00 
0.0000000e+00 -1.2150726e-05 0.0000000e+00 
0.0000000e+00 -1.3520603e-05 0.0000000e+00 
0.0000000e+00 -1.2624875e-05 0.0000000e+00 
0.0000000e+00 -1.0783761e-05 0.0000000e+00 
0.0000000e+00 -9.4323523e-06 0.0000000e+00 
0.0000000e+00 -5.4700017e-06 0.0000000e+00 
0.0000000e+00 -3.2907049e-06 0.0000000e+00 
0.0000000e+00 -2.6594245e-07 0.0000000e+00 
0.0000000e+00 2.7687747e-06 0.0000000e+00 
0.0000000e+00 4.1256812e-06 0.0000000e+00 
0.0000000e+00 -1.2833481e-05 0.0000000e+00 
0.0000000e+00 -7.9334168e-05 0.0000000e+00 
0.0000000e+00 -2.0115489e-04 0.0000000e+00 
0.0000000e+00 -4.2819715e-04 0.0000000e+00 
0.0000000e+00 -5.2865344e-04 0.0000000e+00 
0.0000000e+00 -5.4982543e-04 0.0000000e+00 
0.0000000e+00 -5.3506094e-04 0.0000000e+00 
0.0000000e+00 -3.5644465e-04 0.0000000e+00 
0.0000000e+00 -1.5007194e-04 0.0000000e+00 
0.0000000e+00 -2.7621760e-05 0.0000000e+00 
0.0000000e+00 1.6482538e-05 0.0000000e+00 
0.0000000e+00 1.5601901e-05 0.0000000e+00 
0.0000000e+00 1.1718463e-06 0.0000000e+00 
0.0000000e+00 -6.7566816e-06 0.0000000e+00 
0.0000000e+00 -9.1860538e-06 0.0000000e+00 
0.0000000e+00 -8.0237360e-06 0.0000000e+00 
0.0000000e+00 -5.5148166e-06 0.0000000e+00 
0.0000000e+00 -2.5723652e-06 0.0000000e+00 
0.0000000e+00 2.6330258e-06 0.0000000e+00 
0.0000000e+00 1.5404953e-06 0.0000000e+00 
0.0000000e+00 -2.1151331e-05 0.0000000e+00 
0.0000000e+00 -7.2171984e-05 0.0000000e+00 
0.0000000e+00 -2.5288161e-04 0.0000000e+00 
0.0000000e+00 -3.9031380e-04 0.0000000e+00 
0.0000000e+00 -5.2689458e-04 0.0000000e+00 
0.0000000e+00 -5.3777848e-04 0.0000000e+00 
0.0000000e+00 -4.6989779e-04 0.0000000e+00 
0.0000000e+00 -3.1107682e-04 0.0000000e+00 
0.0000000e+00 -1.3621664e-04 0.0000000e+00 
0.0000000e+00 -2.0076668e-05 0.0000000e+00 
0.0000000e+00 1.8031164e-05 0.0000000e+00 
0.0000000e+00 1.4208883e-05 0.0000000e+00 
0.0000000e+00 5.6061072e-06 0.0000000e+00 
-2.6235679e-07 -6.0862575e-08 2.7568916e-07 
-1.7798909e-07 -1.1489531e-07 9.8762212e-07 
6.2991222e-07 4.8521332e-07 2.2876641e-06 
1.4095556e-06 -4.9173588e-07 2.4140611e-06 
-1.1085582e-06 2.9520029e-07 -7.0118608e-07 
-1.1997284e-06 1.2074838e-06 -2.9210134e-06 
-4.0755293e-07 2.2521288e-06 -4.6748055e-06 
9.4887196e-07 7.1654193e-07 -4.3581954e-06 
-9.4241750e-07 -2.1272170e-07 8.9394604e-07 
-1.0433338e-06 9.1718334e-08 -6.4004223e-07 
9.7212558e-07 -2.3250129e-06 4.0526766e-06 
4.6905126e-07 -9.1467257e-07 2.4053170e-06 
0.0000000e+00 -7.5997837e-06 0.0000000e+00 
0.0000000e+00 -1.0594365e-05 0.0000000e+00 
0.0000000e+00 -1.3263319e-05 0.0000000e+00 
0.0000000e+00 -1.2689687e-05 0.0000000e+00 
0.0000000e+00 -1.2645766e-05 0.0000000e+00 
0.0000000e+00 -1.5385653e-05 0.0000000e+00 
0.0000000e+00 -2.0409188e-05 0.0000000e+00 
0.0000000e+00 -2.2727327e-05 0.0000000e+00 
0.0000000e+00 -2.1229804e-05 0.0000000e+00 
0.0000000e+00 -1.8844907e-05 0.0000000e+00 
0.0000000e+00 -1.4530515e-05 0.0000000e+00 
0.0000000e+00 -9.3323124e-06 0.0000000e+00 
0.0000000e+00 -4.3944656e-06 0.0000000e+00 
0.0000000e+00 9.3614233e-07 0.0000000e+00 