# vtk DataFile Version 4.0
vtk output
ASCII
DATASET UNSTRUCTURED_GRID
POINTS 1920 float
0.0000000e+00 0.0000000e+00 0.0000000e+00 
0.0000000e+00 0.0000000e+00 5.0000000e+01 
5.0000000e+00 0.0000000e+00 0.0000000e+00 
5.0000000e+00 0.0000000e+00 5.0000000e+01 
5.0000000e+00 1.0000000e+00 0.0000000e+00 
5.0000000e+00 1.0000000e+00 5.0000000e+01 
0.0000000e+00 1.0000000e+00 0.0000000e+00 
0.0000000e+00 1.0000000e+00 5.0000000e+01 
5.0000000e+00 2.0000000e+00 0.0000000e+00 
5.0000000e+00 2.0000000e+00 5.0000000e+01 
3.0000000e+00 2.0000000e+00 0.0000000e+00 
3.0000000e+00 2.0000000e+00 5.0000000e+01 
0.0000000e+00 2.0000000e+00 0.0000000e+00 
0.0000000e+00 2.0000000e+00 5.0000000e+01 
1.5000000e+00 3.0000000e+00 0.0000000e+00 
1.5000000e+00 3.0000000e+00 5.0000000e+01 
7.5000000e-01 3.0000000e+00 0.0000000e+00 
7.5000000e-01 3.0000000e+00 5.0000000e+01 
0.0000000e+00 3.0000000e+00 0.0000000e+00 
0.0000000e+00 3.0000000e+00 5.0000000e+01 
7.5000000e-01 3.0000000e+00 5.0000000e-01 
7.5000000e-01 3.0000000e+00 1.0000000e+00 
7.5000000e-01 3.0000000e+00 1.5000000e+00 
7.5000000e-01 3.0000000e+00 2.0000000e+00 
7.5000000e-01 3.0000000e+00 2.5000000e+00 
7.5000000e-01 3.0000000e+00 3.0000000e+00 
7.5000000e-01 3.0000000e+00 3.5000000e+00 
7.5000000e-01 3.0000000e+00 4.0000000e+00 
7.5000000e-01 3.0000000e+00 4.5000000e+00 
7.5000000e-01 3.0000000e+00 5.0000000e+00 
7.5000000e-01 3.0000000e+00 5.5000000e+00 
7.5000000e-01 3.0000000e+00 6.0000000e+00 
7.5000000e-01 3.0000000e+00 6.5000000e+00 
7.5000000e-01 3.0000000e+00 7.0000000e+00 
7.5000000e-01 3.0000000e+00 7.5000000e+00 
7.5000000e-01 3.0000000e+00 8.0000000e+00 
7.5000000e-01 3.0000000e+00 8.5000000e+00 
7.5000000e-01 3.0000000e+00 9.0000000e+00 
7.5000000e-01 3.0000000e+00 9.5000000e+00 
7.5000000e-01 3.0000000e+00 1.0000000e+01 
7.5000000e-01 3.0000000e+00 1.0500000e+01 
7.5000000e-01 3.0000000e+00 1.1000000e+01 
7.5000000e-01 3.0000000e+00 1.1500000e+01 
7.5000000e-01 3.0000000e+00 1.2000000e+01 
7.5000000e-01 3.0000000e+00 1.2500000e+01 
7.5000000e-01 3.0000000e+00 1.3000000e+01 
7.5000000e-01 3.0000000e+00 1.3500000e+01 
7.5000000e-01 3.0000000e+00 1.4000000e+01 
7.5000000e-01 3.0000000e+00 1.4500000e+01 
7.5000000e-01 3.0000000e+00 1.5000000e+01 
7.5000000e-01 3.0000000e+00 1.5500000e+01 
7.5000000e-01 3.0000000e+00 1.6000000e+01 
7.5000000e-01 3.0000000e+00 1.6500000e+01 
7.5000000e-01 3.0000000e+00 1.7000000e+01 
7.5000000e-01 3.0000000e+00 1.7500000e+01 
7.5000000e-01 3.0000000e+00 1.8000000e+01 
7.5000000e-01 3.0000000e+00 1.8500000e+01 
7.5000000e-01 3.0000000e+00 1.9000000e+01 
7.5000000e-01 3.0000000e+00 1.9500000e+01 
7.5000000e-01 3.0000000e+00 2.0000000e+01 
7.5000000e-01 3.0000000e+00 2.0500000e+01 
7.5000000e-01 3.0000000e+00 2.1000000e+01 
7.5000000e-01 3.0000000e+00 2.1500000e+01 
7.5000000e-01 3.0000000e+00 2.2000000e+01 
7.5000000e-01 3.0000000e+00 2.2500000e+01 
7.5000000e-01 3.0000000e+00 2.3000000e+01 
7.5000000e-01 3.0000000e+00 2.3500000e+01 
7.5000000e-01 3.0000000e+00 2.4000000e+01 
7.5000000e-01 3.0000000e+00 2.4500000e+01 
7.5000000e-01 3.0000000e+00 2.5000000e+01 
7.5000000e-01 3.0000000e+00 2.5500000e+01 
7.5000000e-01 3.0000000e+00 2.6000000e+01 
7.5000000e-01 3.0000000e+00 2.6500000e+01 
7.5000000e-01 3.0000000e+00 2.7000000e+01 
7.5000000e-01 3.0000000e+00 2.7500000e+01 
7.5000000e-01 3.0000000e+00 2.8000000e+01 
7.5000000e-01 3.0000000e+00 2.8500000e+01 
7.5000000e-01 3.0000000e+00 2.9000000e+01 
7.5000000e-01 3.0000000e+00 2.9500000e+01 
7.5000000e-01 3.0000000e+00 3.0000000e+01 
7.5000000e-01 3.0000000e+00 3.0500000e+01 
7.5000000e-01 3.0000000e+00 3.1000000e+01 
7.5000000e-01 3.0000000e+00 3.1500000e+01 
7.5000000e-01 3.0000000e+00 3.2000000e+01 
7.5000000e-01 3.0000000e+00 3.2500000e+01 
7.5000000e-01 3.0000000e+00 3.3000000e+01 
7.5000000e-01 3.0000000e+00 3.3500000e+01 
7.5000000e-01 3.0000000e+00 3.4000000e+01 
7.5000000e-01 3.0000000e+00 3.4500000e+01 
7.5000000e-01 3.0000000e+00 3.5000000e+01 
7.5000000e-01 3.0000000e+00 3.5500000e+01 
7.5000000e-01 3.0000000e+00 3.6000000e+01 
7.5000000e-01 3.0000000e+00 3.6500000e+01 
7.5000000e-01 3.0000000e+00 3.7000000e+01 
7.5000000e-01 3.0000000e+00 3.7500000e+01 
7.5000000e-01 3.0000000e+00 3.8000000e+01 
7.5000000e-01 3.0000000e+00 3.8500000e+01 
7.5000000e-01 3.0000000e+00 3.9000000e+01 
7.5000000e-01 3.0000000e+00 3.9500000e+01 
7.5000000e-01 3.0000000e+00 4.0000000e+01 
7.5000000e-01 3.0000000e+00 4.0500000e+01 
7.5000000e-01 3.0000000e+00 4.1000000e+01 
7.5000000e-01 3.0000000e+00 4.1500000e+01 
7.5000000e-01 3.0000000e+00 4.2000000e+01 
7.5000000e-01 3.0000000e+00 4.2500000e+01 
7.5000000e-01 3.0000000e+00 4.3000000e+01 
7.5000000e-01 3.0000000e+00 4.3500000e+01 
7.5000000e-01 3.0000000e+00 4.4000000e+01 
7.5000000e-01 3.0000000e+00 4.4500000e+01 
7.5000000e-01 3.0000000e+00 4.5000000e+01 
7.5000000e-01 3.0000000e+00 4.5500000e+01 
7.5000000e-01 3.0000000e+00 4.6000000e+01 
7.5000000e-01 3.0000000e+00 4.6500000e+01 
7.5000000e-01 3.0000000e+00 4.7000000e+01 
7.5000000e-01 3.0000000e+00 4.7500000e+01 
7.5000000e-01 3.0000000e+00 4.8000000e+01 
7.5000000e-01 3.0000000e+00 4.8500000e+01 
7.5000000e-01 3.0000000e+00 4.9000000e+01 
7.5000000e-01 3.0000000e+00 4.9500000e+01 
7.5000000e-01 3.0250001e+00 0.0000000e+00 
7.5000000e-01 3.0250001e+00 5.0000000e-01 
7.5000000e-01 3.0250001e+00 1.0000000e+00 
7.5000000e-01 3.0250001e+00 1.5000000e+00 
7.5000000e-01 3.0250001e+00 2.0000000e+00 
7.5000000e-01 3.0250001e+00 2.5000000e+00 
7.5000000e-01 3.0250001e+00 3.0000000e+00 
7.5000000e-01 3.0250001e+00 3.5000000e+00 
7.5000000e-01 3.0250001e+00 4.0000000e+00 
7.5000000e-01 3.0250001e+00 4.5000000e+00 
7.5000000e-01 3.0250001e+00 5.0000000e+00 
7.5000000e-01 3.0250001e+00 5.5000000e+00 
7.5000000e-01 3.0250001e+00 6.0000000e+00 
7.5000000e-01 3.0250001e+00 6.5000000e+00 
7.5000000e-01 3.0250001e+00 7.0000000e+00 
7.5000000e-01 3.0250001e+00 7.5000000e+00 
7.5000000e-01 3.0250001e+00 8.0000000e+00 
7.5000000e-01 3.0250001e+00 8.5000000e+00 
7.5000000e-01 3.0250001e+00 9.0000000e+00 
7.5000000e-01 3.0250001e+00 9.5000000e+00 
7.5000000e-01 3.0250001e+00 1.0000000e+01 
7.5000000e-01 3.0250001e+00 1.0500000e+01 
7.5000000e-01 3.0250001e+00 1.1000000e+01 
7.5000000e-01 3.0250001e+00 1.1500000e+01 
7.5000000e-01 3.0250001e+00 1.2000000e+01 
7.5000000e-01 3.0250001e+00 1.2500000e+01 
7.5000000e-01 3.0250001e+00 1.3000000e+01 
7.5000000e-01 3.0250001e+00 1.3500000e+01 
7.5000000e-01 3.0250001e+00 1.4000000e+01 
7.5000000e-01 3.0250001e+00 1.4500000e+01 
7.5000000e-01 3.0250001e+00 1.5000000e+01 
7.5000000e-01 3.0250001e+00 1.5500000e+01 
7.5000000e-01 3.0250001e+00 1.6000000e+01 
7.5000000e-01 3.0250001e+00 1.6500000e+01 
7.5000000e-01 3.0250001e+00 1.7000000e+01 
7.5000000e-01 3.0250001e+00 1.7500000e+01 
7.5000000e-01 3.0250001e+00 1.8000000e+01 
7.5000000e-01 3.0250001e+00 1.8500000e+01 
7.5000000e-01 3.0250001e+00 1.9000000e+01 
7.5000000e-01 3.0250001e+00 1.9500000e+01 
7.5000000e-01 3.0250001e+00 2.0000000e+01 
7.5000000e-01 3.0250001e+00 2.0500000e+01 
7.5000000e-01 3.0250001e+00 2.1000000e+01 
7.5000000e-01 3.0250001e+00 2.1500000e+01 
7.5000000e-01 3.0250001e+00 2.2000000e+01 
7.5000000e-01 3.0250001e+00 2.2500000e+01 
7.5000000e-01 3.0250001e+00 2.3000000e+01 
7.5000000e-01 3.0250001e+00 2.3500000e+01 
7.5000000e-01 3.0250001e+00 2.4000000e+01 
7.5000000e-01 3.0250001e+00 2.4500000e+01 
7.5000000e-01 3.0250001e+00 2.5000000e+01 
7.5000000e-01 3.0250001e+00 2.5500000e+01 
7.5000000e-01 3.0250001e+00 2.6000000e+01 
7.5000000e-01 3.0250001e+00 2.6500000e+01 
7.5000000e-01 3.0250001e+00 2.7000000e+01 
7.5000000e-01 3.0250001e+00 2.7500000e+01 
7.5000000e-01 3.0250001e+00 2.8000000e+01 
7.5000000e-01 3.0250001e+00 2.8500000e+01 
7.5000000e-01 3.0250001e+00 2.9000000e+01 
7.5000000e-01 3.0250001e+00 2.9500000e+01 
7.5000000e-01 3.0250001e+00 3.0000000e+01 
7.5000000e-01 3.0250001e+00 3.0500000e+01 
7.5000000e-01 3.0250001e+00 3.1000000e+01 
7.5000000e-01 3.0250001e+00 3.1500000e+01 
7.5000000e-01 3.0250001e+00 3.2000000e+01 
7.5000000e-01 3.0250001e+00 3.2500000e+01 
7.5000000e-01 3.0250001e+00 3.3000000e+01 
7.5000000e-01 3.0250001e+00 3.3500000e+01 
7.5000000e-01 3.0250001e+00 3.4000000e+01 
7.5000000e-01 3.0250001e+00 3.4500000e+01 
7.5000000e-01 3.0250001e+00 3.5000000e+01 
7.5000000e-01 3.0250001e+00 3.5500000e+01 
7.5000000e-01 3.0250001e+00 3.6000000e+01 
7.5000000e-01 3.0250001e+00 3.6500000e+01 
7.5000000e-01 3.0250001e+00 3.7000000e+01 
7.5000000e-01 3.0250001e+00 3.7500000e+01 
7.5000000e-01 3.0250001e+00 3.8000000e+01 
7.5000000e-01 3.0250001e+00 3.8500000e+01 
7.5000000e-01 3.0250001e+00 3.9000000e+01 
7.5000000e-01 3.0250001e+00 3.9500000e+01 
7.5000000e-01 3.0250001e+00 4.0000000e+01 
7.5000000e-01 3.0250001e+00 4.0500000e+01 
7.5000000e-01 3.0250001e+00 4.1000000e+01 
7.5000000e-01 3.0250001e+00 4.1500000e+01 
7.5000000e-01 3.0250001e+00 4.2000000e+01 
7.5000000e-01 3.0250001e+00 4.2500000e+01 
7.5000000e-01 3.0250001e+00 4.3000000e+01 
7.5000000e-01 3.0250001e+00 4.3500000e+01 
7.5000000e-01 3.0250001e+00 4.4000000e+01 
7.5000000e-01 3.0250001e+00 4.4500000e+01 
7.5000000e-01 3.0250001e+00 4.5000000e+01 
7.5000000e-01 3.0250001e+00 4.5500000e+01 
7.5000000e-01 3.0250001e+00 4.6000000e+01 
7.5000000e-01 3.0250001e+00 4.6500000e+01 
7.5000000e-01 3.0250001e+00 4.7000000e+01 
7.5000000e-01 3.0250001e+00 4.7500000e+01 
7.5000000e-01 3.0250001e+00 4.8000000e+01 
7.5000000e-01 3.0250001e+00 4.8500000e+01 
7.5000000e-01 3.0250001e+00 4.9000000e+01 
7.5000000e-01 3.0250001e+00 4.9500000e+01 
7.5000000e-01 3.0250001e+00 5.0000000e+01 
1.5000000e+00 3.0000000e+00 2.5000000e+01 
3.0000000e+00 2.0000000e+00 2.5000000e+01 
4.0000000e+00 2.0000000e+00 2.5000000e+01 
5.0000000e+00 2.0000000e+00 2.5000000e+01 
0.0000000e+00 3.0000000e+00 2.5000000e+01 
0.0000000e+00 0.0000000e+00 1.0000000e+00 
0.0000000e+00 0.0000000e+00 2.0000000e+00 
0.0000000e+00 0.0000000e+00 3.0000000e+00 
0.0000000e+00 0.0000000e+00 4.0000000e+00 
0.0000000e+00 0.0000000e+00 5.0000000e+00 
[...]
POINT_DATA 1920
FIELD FieldData 3
DISPLACEMENT 3 1920  float
0.0000000e+00 0.0000000e+00 0.0000000e+00 
0.0000000e+00 0.0000000e+00 0.0000000e+00 
0.0000000e+00 0.0000000e+00 0.0000000e+00 
0.0000000e+00 0.0000000e+00 0.0000000e+00 
-1.8667752e-06 3.3697802e-06 2.7658718e-06 
1.2284544e-07 3.0577641e-07 -1.7363892e-07 
0.0000000e+00 -1.2518144e-05 0.0000000e+00 
0.0000000e+00 1.6962184e-06 0.0000000e+00 
-7.1278369e-06 4.5736197e-06 7.0575347e-06 
1.2611262e-07 7.6333322e-07 -1.2260530e-06 
-3.2275952e-06 -2.3663362e-07 1.3265362e-06 
3.4601445e-07 1.1865836e-07 -1.0183977e-06 
0.0000000e+00 -1.4826651e-05 0.0000000e+00 
0.0000000e+00 1.6761511e-06 0.0000000e+00 
9.9776198e-06 7.9395168e-06 -1.5773810e-05 
2.7577316e-06 2.8846530e-06 -4.3873833e-06 
-2.7838926e-06 3.6667887e-05 -4.0492769e-06 
4.8458180e-08 -4.2377169e-06 3.9372594e-06 
0.0000000e+00 -6.5495738e-06 0.0000000e+00 
0.0000000e+00 -1.4359023e-06 0.0000000e+00 
1.4655415e-05 3.3960630e-05 -7.6910637e-06 
1.7444549e-05 2.7739645e-05 -1.1407429e-05 
2.8790302e-05 2.0326823e-05 -1.4818562e-05 
2.8598870e-05 1.2844831e-05 -1.3278060e-05 
3.1352785e-05 6.0465604e-06 -1.2137525e-05 
2.3753535e-05 -2.6690370e-07 -1.3101947e-05 
2.8047874e-05 -5.9491040e-06 -1.0331417e-05 
2.2835420e-05 -1.0809584e-05 -9.5091791e-06 
2.9361629e-05 -1.4379706e-05 -1.1805405e-05 
1.7560911e-05 -1.6778880e-05 -5.8165288e-06 
2.4893750e-05 -1.8238976e-05 -3.7931480e-07 
1.3858814e-05 -1.8762425e-05 7.4166783e-06 
2.1706119e-05 -1.8038992e-05 1.0672985e-05 
8.4029689e-06 -1.5611231e-05 1.2265268e-05 
1.5148982e-05 -1.0420939e-05 6.3985908e-06 
1.1780749e-05 -1.2755660e-06 3.4151279e-07 
2.8338723e-05 1.3394073e-05 -5.7784441e-06 
2.6911777e-05 3.4324712e-05 -7.2551813e-07 
3.2415359e-05 6.1184837e-05 -3.1484694e-06 
2.8983008e-05 8.8064655e-05 1.3309264e-06 
3.2948632e-05 1.0367481e-04 5.1455772e-06 
3.7942969e-05 8.4832755e-05 2.0960080e-05 
3.0127489e-05 -1.7724676e-06 6.1072722e-05 
1.2892075e-05 -2.0380622e-04 8.8141445e-05 
-2.5203182e-05 -5.7893060e-04 1.7576851e-04 
-4.8712875e-05 -1.1811898e-03 1.4870102e-04 
-1.1315330e-04 -2.0501963e-03 2.5322768e-04 
-1.5535881e-04 -3.1344830e-03 1.1584964e-04 
-2.3663224e-04 -4.2579970e-03 1.9628850e-04 
-2.8368831e-04 -4.9233669e-03 4.1719042e-05 
-2.9540685e-04 -4.7942582e-03 -1.9186105e-05 
-2.9020212e-04 -4.4878954e-03 -7.1131821e-05 
-3.2957143e-04 -4.4617979e-03 -1.0173430e-04 
-6.2203873e-04 -4.6315603e-03 -1.3923101e-04 
-2.5962884e-04 -4.4210474e-03 -2.0635492e-04 
-1.5349481e-04 -3.3988901e-03 -1.4134891e-04 
-6.8587215e-05 -2.1489209e-03 -2.8097766e-04 
-3.7183734e-05 -1.0843696e-03 -1.3707273e-04 
2.2078613e-05 -3.6079957e-04 -1.2156409e-04 
3.7598504e-05 4.4068154e-05 -2.5957383e-05 
4.8432114e-05 2.1214165e-04 6.7225178e-06 
4.1086587e-05 2.3477884e-04 2.1635184e-05 
3.5007735e-05 1.8846015e-04 3.6560308e-05 
3.0242612e-05 1.2055664e-04 3.7596466e-05 
3.0189576e-05 5.7819194e-05 3.5970221e-05 
7.4931245e-06 1.1019728e-05 3.0005000e-05 
9.2351220e-06 -1.7964085e-05 3.5693189e-05 
5.2280252e-06 -3.3148022e-05 8.0180562e-06 
5.5009406e-07 -3.9254217e-05 -1.0119305e-05 
-1.0765339e-06 -4.1413641e-05 -2.3983976e-05 
2.2885075e-05 -4.1972111e-05 -2.1902375e-05 
1.3961700e-05 -4.2086784e-05 -9.0498834e-06 
1.5510506e-05 -4.1768119e-05 2.5784016e-06 
9.1633556e-06 -3.8736787e-05 1.1456759e-05 
1.5264479e-05 -3.1289866e-05 3.8208091e-07 
1.2948355e-05 -1.7438591e-05 -6.1364512e-06 
2.9945235e-05 3.3987872e-06 -5.4676343e-06 
2.6127225e-05 3.0076519e-05 7.2432558e-06 
3.1418786e-05 5.9356225e-05 1.5256516e-05 
3.2770175e-05 8.4882900e-05 3.0854506e-05 
3.5333400e-05 9.4831390e-05 3.8065980e-05 
2.8381512e-05 6.5772620e-05 5.6553836e-05 
1.5748839e-05 -3.7755235e-05 9.7914031e-05 
2.8952638e-06 -2.6818478e-04 1.0742521e-04 
-4.8791197e-05 -6.8755139e-04 1.8492932e-04 
-9.5893280e-05 -1.3484199e-03 1.2797640e-04 
-1.6650451e-04 -2.2803207e-03 2.1890804e-04 
-2.3735297e-04 -3.3998613e-03 6.7178749e-05 
-2.9873400e-04 -4.4865045e-03 1.2446713e-04 
-2.9506677e-04 -4.9690898e-03 1.8161159e-06 
-2.8929528e-04 -4.7324528e-03 -5.6753455e-05 
-2.9124171e-04 -4.4460362e-03 -8.5342472e-05 
-2.7615469e-04 -4.4762171e-03 -9.3720162e-05 
-3.4529142e-04 -4.6437741e-03 -2.1251944e-04 
-3.3659529e-04 -4.3710954e-03 -2.9186590e-04 
-3.8801890e-04 -3.3068785e-03 -4.5438553e-04 
-8.8373701e-05 -2.0393862e-03 -2.5076297e-04 
-1.2965322e-05 -9.9998247e-04 -1.1731873e-04 
2.7815691e-05 -3.0996132e-04 -1.0578191e-04 
3.1209653e-05 6.3562744e-05 -1.9114446e-05 
2.9954754e-05 2.0973953e-04 7.7381865e-06 
2.6525637e-05 2.2187371e-04 2.9382638e-05 
1.2792740e-05 1.7528712e-04 4.5006094e-05 
7.8989224e-06 1.1390795e-04 4.3280459e-05 
-8.1804101e-09 6.1442523e-05 4.4707373e-05 
-7.6691367e-06 2.4998106e-05 3.3254142e-05 
-1.5065099e-05 4.7001399e-06 2.4125497e-05 
-1.3097162e-05 -3.8700846e-06 8.2396318e-06 
-1.3274542e-05 -5.6148069e-06 -9.2553237e-06 
-1.0099898e-05 -4.3394921e-06 -1.8174207e-05 
1.5721705e-06 -2.0990067e-06 -2.3720226e-05 
2.2959744e-06 3.2616092e-07 -1.7205382e-05 
1.8323939e-06 2.2530155e-06 -5.1871402e-06 
2.3901880e-06 3.1844836e-06 8.3575281e-07 
-3.9262459e-06 2.6319392e-06 -2.9630648e-06 
-3.6727533e-06 1.0544267e-06 -6.8190257e-06 
3.9760143e-06 -7.7376325e-07 -1.0210028e-05 
3.6275962e-06 -2.4261362e-06 -8.2204933e-06 
4.2925753e-06 -3.6889542e-06 -1.4512570e-06 
0.0000000e+00 3.6567410e-05 0.0000000e+00 
0.0000000e+00 3.3981003e-05 0.0000000e+00 
0.0000000e+00 2.7829570e-05 0.0000000e+00 
0.0000000e+00 2.0372716e-05 0.0000000e+00 
0.0000000e+00 1.2905337e-05 0.0000000e+00 
0.0000000e+00 6.0294074e-06 0.0000000e+00 
0.0000000e+00 -2.8342808e-07 0.0000000e+00 
0.0000000e+00 -5.9795939e-06 0.0000000e+00 
0.0000000e+00 -1.0791975e-05 0.0000000e+00 
0.0000000e+00 -1.4383772e-05 0.0000000e+00 
0.0000000e+00 -1.6800464e-05 0.0000000e+00 
0.0000000e+00 -1.8278386e-05 0.0000000e+00 
0.0000000e+00 -1.8797346e-05 0.0000000e+00 
0.0000000e+00 -1.8089620e-05 0.0000000e+00 
0.0000000e+00 -1.5633132e-05 0.0000000e+00 
0.0000000e+00 -1.0455829e-05 0.0000000e+00 
0.0000000e+00 -1.2560637e-06 0.0000000e+00 
0.0000000e+00 1.3430726e-05 0.0000000e+00 
0.0000000e+00 3.4589135e-05 0.0000000e+00 
0.0000000e+00 6.1474559e-05 0.0000000e+00 
0.0000000e+00 8.8699919e-05 0.0000000e+00 
0.0000000e+00 1.0427846e-04 0.0000000e+00 
0.0000000e+00 8.5671170e-05 0.0000000e+00 
0.0000000e+00 -1.1708086e-06 0.0000000e+00 
0.0000000e+00 -2.0382350e-04 0.0000000e+00 
0.0000000e+00 -5.7962490e-04 0.0000000e+00 
0.0000000e+00 -1.1856427e-03 0.0000000e+00 
0.0000000e+00 -2.0569540e-03 0.0000000e+00 
0.0000000e+00 -3.1513602e-03 0.0000000e+00 
0.0000000e+00 -4.2776219e-03 0.0000000e+00 
0.0000000e+00 -4.9542398e-03 0.0000000e+00 
0.0000000e+00 -4.8182392e-03 0.0000000e+00 
0.0000000e+00 -4.5161317e-03 0.0000000e+00 
0.0000000e+00 -4.4873310e-03 0.0000000e+00 
0.0000000e+00 -4.6509844e-03 0.0000000e+00 
0.0000000e+00 -4.4493838e-03 0.0000000e+00 
0.0000000e+00 -3.4234154e-03 0.0000000e+00 
0.0000000e+00 -2.1619555e-03 0.0000000e+00 
0.0000000e+00 -1.0927662e-03 0.0000000e+00 
0.0000000e+00 -3.6340309e-04 0.0000000e+00 
0.0000000e+00 4.4042881e-05 0.0000000e+00 
0.0000000e+00 2.1318054e-04 0.0000000e+00 
0.0000000e+00 2.3642241e-04 0.0000000e+00 
0.0000000e+00 1.8958421e-04 0.0000000e+00 
0.0000000e+00 1.2134405e-04 0.0000000e+00 
0.0000000e+00 5.8242113e-05 0.0000000e+00 
0.0000000e+00 1.1277875e-05 0.0000000e+00 
0.0000000e+00 -1.7958922e-05 0.0000000e+00 
0.0000000e+00 -3.3170294e-05 0.0000000e+00 
0.0000000e+00 -3.9436472e-05 0.0000000e+00 
0.0000000e+00 -4.1522238e-05 0.0000000e+00 
0.0000000e+00 -4.2082651e-05 0.0000000e+00 
0.0000000e+00 -4.2256037e-05 0.0000000e+00 
0.0000000e+00 -4.1792875e-05 0.0000000e+00 
0.0000000e+00 -3.8782589e-05 0.0000000e+00 
0.0000000e+00 -3.1255342e-05 0.0000000e+00 
0.0000000e+00 -1.7374956e-05 0.0000000e+00 
0.0000000e+00 3.4769489e-06 0.0000000e+00 
0.0000000e+00 3.0209674e-05 0.0000000e+00 
0.0000000e+00 5.9634433e-05 0.0000000e+00 
0.0000000e+00 8.5493950e-05 0.0000000e+00 
0.0000000e+00 9.5506555e-05 0.0000000e+00 
0.0000000e+00 6.6741355e-05 0.0000000e+00 
0.0000000e+00 -3.7158668e-05 0.0000000e+00 
0.0000000e+00 -2.6848435e-04 0.0000000e+00 
0.0000000e+00 -6.8874506e-04 0.0000000e+00 
0.0000000e+00 -1.3540052e-03 0.0000000e+00 
0.0000000e+00 -2.2878801e-03 0.0000000e+00 
0.0000000e+00 -3.4187916e-03 0.0000000e+00 
0.0000000e+00 -4.5062373e-03 0.0000000e+00 
0.0000000e+00 -5.0006541e-03 0.0000000e+00 
0.0000000e+00 -4.7561540e-03 0.0000000e+00 
0.0000000e+00 -4.4736704e-03 0.0000000e+00 
0.0000000e+00 -4.4980948e-03 0.0000000e+00 
0.0000000e+00 -4.6749655e-03 0.0000000e+00 
0.0000000e+00 -4.3952018e-03 0.0000000e+00 
0.0000000e+00 -3.3219135e-03 0.0000000e+00 
0.0000000e+00 -2.0550389e-03 0.0000000e+00 
0.0000000e+00 -1.0077710e-03 0.0000000e+00 
0.0000000e+00 -3.1223407e-04 0.0000000e+00 
0.0000000e+00 6.3811778e-05 0.0000000e+00 
0.0000000e+00 2.1093423e-04 0.0000000e+00 
0.0000000e+00 2.2359501e-04 0.0000000e+00 
0.0000000e+00 1.7636953e-04 0.0000000e+00 
0.0000000e+00 1.1472951e-04 0.0000000e+00 
0.0000000e+00 6.1791201e-05 0.0000000e+00 
0.0000000e+00 2.5209551e-05 0.0000000e+00 
0.0000000e+00 4.7075132e-06 0.0000000e+00 
0.0000000e+00 -3.9542388e-06 0.0000000e+00 
0.0000000e+00 -5.7188417e-06 0.0000000e+00 
0.0000000e+00 -4.4023282e-06 0.0000000e+00 
0.0000000e+00 -2.0975278e-06 0.0000000e+00 
0.0000000e+00 3.1815281e-07 0.0000000e+00 
0.0000000e+00 2.2466963e-06 0.0000000e+00 
0.0000000e+00 3.1353070e-06 0.0000000e+00 
0.0000000e+00 2.6202997e-06 0.0000000e+00 
0.0000000e+00 1.0814715e-06 0.0000000e+00 
0.0000000e+00 -7.6026242e-07 0.0000000e+00 
0.0000000e+00 -2.4381686e-06 0.0000000e+00 
0.0000000e+00 -3.6986924e-06 0.0000000e+00 
0.0000000e+00 -4.2138613e-06 0.0000000e+00 
1.2662952e-05 -4.3708871e-05 -8.6929158e-06 
2.0968719e-05 3.7703619e-06 -1.2691632e-06 
7.1536219e-06 -1.6325411e-06 -4.7266229e-07 
-7.2440962e-06 -3.1736706e-06 3.9636516e-06 
0.0000000e+00 3.7334525e-05 0.0000000e+00 
0.0000000e+00 0.0000000e+00 0.0000000e+00 
0.0000000e+00 0.0000000e+00 0.0000000e+00 
0.0000000e+00 0.0000000e+00 0.0000000e+00 
0.0000000e+00 0.0000000e+00 0.0000000e+00 
0.0000000e+00 0.0000000e+00 0.0000000e+00 
0.0000000e+00 0.0000000e+00 0.0000000e+00 
0.0000000e+00 0.0000000e+00 0.0000000e+00 
0.0000000e+00 0.0000000e+00 0.0000000e+00 
0.0000000e+00 0.0000000e+00 0.0000000e+00 
0.0000000e+00 0.0000000e+00 0.0000000e+00 
0.0000000e+00 0.0000000e+00 0.0000000e+00 
0.0000000e+00 0.0000000e+00 0.0000000e+00 
0.0000000e+00 0.0000000e+00 0.0000000e+00 
0.0000000e+00 0.0000000e+00 0.0000000e+00 
0.0000000e+00 0.0000000e+00 0.0000000e+00 
0.0000000e+00 0.0000000e+00 0.0000000e+00 
0.0000000e+00 0.0000000e+00 0.0000000e+00 
0.0000000e+00 0.0000000e+00 0.0000000e+00 
0.0000000e+00 0.0000000e+00 0.0000000e+00 
0.0000000e+00 0.0000000e+00 0.0000000e+00 
0.0000000e+00 0.0000000e+00 0.0000000e+00 
0.0000000e+00 0.0000000e+00 0.0000000e+00 
0.0000000e+00 0.0000000e+00 0.0000000e+00 
0.0000000e+00 0.0000000e+00 0.0000000e+00 
0.0000000e+00 0.0000000e+00 0.0000000e+00 
0.0000000e+00 0.0000000e+00 0.0000000e+00 
0.0000000e+00 0.0000000e+00 0.0000000e+00 
0.0000000e+00 0.0000000e+00 0.0000000e+00 
0.0000000e+00 0.0000000e+00 0.0000000e+00 
0.0000000e+00 0.0000000e+00 0.0000000e+00 
0.0000000e+00 0.0000000e+00 0.0000000e+00 
0.0000000e+00 0.0000000e+00 0.0000000e+00 
0.0000000e+00 0.0000000e+00 0.0000000e+00 
0.0000000e+00 0.0000000e+00 0.0000000e+00 
0.0000000e+00 0.0000000e+00 0.0000000e+00 
0.0000000e+00 0.0000000e+00 0.0000000e+00 
0.0000000e+00 0.0000000e+00 0.0000000e+00 
0.0000000e+00 0.0000000e+00 0.0000000e+00 
0.0000000e+00 0.0000000e+00 0.0000000e+00 
0.0000000e+00 0.0000000e+00 0.0000000e+00 
0.0000000e+00 0.0000000e+00 0.0000000e+00 
0.0000000e+00 0.0000000e+00 0.0000000e+00 
0.0000000e+00 0.0000000e+00 0.0000000e+00 
0.0000000e+00 0.0000000e+00 0.0000000e+00 
0.0000000e+00 0.0000000e+00 0.0000000e+00 
0.0000000e+00 0.0000000e+00 0.0000000e+00 
0.0000000e+00 0.0000000e+00 0.0000000e+00 
0.0000000e+00 0.0000000e+00 0.0000000e+00 
0.0000000e+00 0.0000000e+00 0.0000000e+00 
0.0000000e+00 0.0000000e+00 0.0000000e+00 
0.0000000e+00 0.0000000e+00 0.0000000e+00 
0.0000000e+00 0.0000000e+00 0.0000000e+00 
0.0000000e+00 0.0000000e+00 0.0000000e+00 
0.0000000e+00 0.0000000e+00 0.0000000e+00 
0.0000000e+00 0.0000000e+00 0.0000000e+00 
0.0000000e+00 0.0000000e+00 0.0000000e+00 
0.0000000e+00 0.0000000e+00 0.0000000e+00 
0.0000000e+00 0.0000000e+00 0.0000000e+00 
0.0000000e+00 0.0000000e+00 0.0000000e+00 
0.0000000e+00 0.0000000e+00 0.0000000e+00 
0.0000000e+00 0.0000000e+00 0.0000000e+00 
0.0000000e+00 0.0000000e+00 0.0000000e+00 
0.0000000e+00 0.0000000e+00 0.0000000e+00 
0.0000000e+00 0.0000000e+00 0.0000000e+00 
0.0000000e+00 0.0000000e+00 0.0000000e+00 
0.0000000e+00 0.0000000e+00 0.0000000e+00 
0.0000000e+00 0.0000000e+00 0.0000000e+00 
0.0000000e+00 0.0000000e+00 0.0000000e+00 
0.0000000e+00 0.0000000e+00 0.0000000e+00 
0.0000000e+00 0.0000000e+00 0.0000000e+00 
0.0000000e+00 0.0000000e+00 0.0000000e+00 
0.0000000e+00 0.0000000e+00 0.0000000e+00 
0.0000000e+00 0.0000000e+00 0.0000000e+00 
0.0000000e+00 0.0000000e+00 0.0000000e+00 
0.0000000e+00 0.0000000e+00 0.0000000e+00 
0.0000000e+00 0.0000000e+00 0.0000000e+00 
0.0000000e+00 0.0000000e+00 0.0000000e+00 
0.0000000e+00 0.0000000e+00 0.0000000e+00 
0.0000000e+00 0.0000000e+00 0.0000000e+00 
0.0000000e+00 0.0000000e+00 0.0000000e+00 
0.0000000e+00 0.0000000e+00 0.0000000e+00 
0.0000000e+00 0.0000000e+00 0.0000000e+00 
0.0000000e+00 0.0000000e+00 0.0000000e+00 
0.0000000e+00 0.0000000e+00 0.0000000e+00 
0.0000000e+00 0.0000000e+00 0.0000000e+00 
0.0000000e+00 0.0000000e+00 0.0000000e+00 
0.0000000e+00 0.0000000e+00 0.0000000e+00 
0.0000000e+00 0.0000000e+00 0.0000000e+00 
0.0000000e+00 0.0000000e+00 0.0000000e+00 
0.0000000e+00 0.0000000e+00 0.0000000e+00 
0.0000000e+00 0.0000000e+00 0.0000000e+00 
0.0000000e+00 0.0000000e+00 0.0000000e+00 
0.0000000e+00 0.0000000e+00 0.0000000e+00 
0.0000000e+00 0.0000000e+00 0.0000000e+00 
0.0000000e+00 0.0000000e+00 0.0000000e+00 
0.0000000e+00 0.0000000e+00 0.0000000e+00 
0.0000000e+00 0.0000000e+00 0.0000000e+00 
0.0000000e+00 0.0000000e+00 0.0000000e+00 
0.0000000e+00 0.0000000e+00 0.0000000e+00 
0.0000000e+00 0.0000000e+00 0.0000000e+00 
0.0000000e+00 0.0000000e+00 0.0000000e+00 
0.0000000e+00 0.0000000e+00 0.0000000e+00 
0.0000000e+00 0.0000000e+00 0.0000000e+00 
0.0000000e+00 0.0000000e+00 0.0000000e+00 
0.0000000e+00 0.0000000e+00 0.0000000e+00 
0.0000000e+00 0.0000000e+00 0.0000000e+00 
-2.6892546e-06 9.7503232e-07 2.4952537e-06 
-2.9709033e-06 -2.4768437e-06 1.8113703e-06 
-4.2972065e-06 -5.1034517e-06 1.8261086e-06 
-6.2105614e-06 -5.1694624e-06 1.3290841e-06 
-6.5292061e-06 -3.4336515e-06 2.2220668e-07 
-6.2082404e-06 -2.2566815e-06 -7.8007224e-07 
-5.8012324e-06 -3.4784864e-06 -1.4516422e-06 
-5.1379102e-06 -4.3465093e-06 -3.9719334e-06 
-3.4066445e-06 -3.1449902e-06 -9.0097492e-06 
1.3971936e-06 -6.1261135e-06 -1.3890684e-05 
8.0284890e-06 -8.6324953e-06 -1.8815912e-05 
1.6223525e-05 -1.0478867e-05 -1.9679474e-05 
2.9168130e-05 -1.0566824e-05 -2.1146472e-05 
3.9493436e-05 -1.0197472e-05 -1.7197592e-05 
4.5990393e-05 -1.1107307e-05 -9.7139728e-06 
4.7851390e-05 -9.7432767e-06 6.8993904e-07 
3.6889447e-05 -7.3983551e-06 1.2224607e-05 
2.4004828e-05 -5.0483859e-06 1.8893244e-05 
1.7070539e-05 -4.3233317e-06 1.9066707e-05 
8.1322705e-06 -4.1121807e-06 1.9357236e-05 
2.1795727e-06 -4.5131083e-06 1.6060949e-05 
-1.0560105e-06 -2.3381576e-06 1.2265833e-05 
-2.0703385e-06 -3.4067716e-06 7.8662852e-06 
-4.0167411e-06 -4.3082614e-06 5.2209971e-06 
-6.3376551e-06 -4.4487060e-06 3.6646907e-06 
-8.1195440e-06 -4.4221879e-06 1.2475094e-06 
-6.4148094e-06 -3.9047650e-06 -1.1222395e-06 
-4.4816788e-06 -4.6518853e-06 -3.4948007e-06 
-2.9668251e-06 -4.8603379e-06 -6.9120174e-06 
-6.7586477e-08 -5.4978732e-06 -1.2527513e-05 
8.1244725e-06 -6.2964223e-06 -1.7743620e-05 
1.9987170e-05 -1.0352052e-05 -2.1258194e-05 
3.0557094e-05 -1.1330662e-05 -2.2060925e-05 
4.2251719e-05 -1.0837945e-05 -1.8801520e-05 
4.8236623e-05 -1.2513214e-05 -1.2662791e-05 
4.5393936e-05 -1.1314997e-05 -2.5033585e-06 
3.6757749e-05 -9.6999129e-06 5.5029236e-06 
2.4805808e-05 -7.9921947e-06 1.2425532e-05 
1.5555730e-05 -5.8045894e-06 1.3841291e-05 
9.3784811e-06 -3.5575258e-06 1.3500372e-05 
4.6651112e-06 -2.2077945e-06 1.1801784e-05 
3.3302260e-06 -1.7944423e-06 8.4770063e-06 
2.8051511e-06 -9.1369714e-07 5.3105546e-06 
8.6449154e-07 6.3781457e-08 2.6322555e-06 
-8.2047842e-07 -3.8489424e-07 1.2035571e-06 
-9.2050925e-07 -3.5963956e-07 1.1142784e-07 
-4.9210428e-07 1.5595791e-07 -4.0891348e-07 
-8.8782768e-09 -1.0374715e-08 -4.2337084e-07 
1.9068614e-07 -4.4605352e-07 1.4995440e-08 
0.0000000e+00 -1.0067070e-05 0.0000000e+00 
0.0000000e+00 -1.4704633e-06 0.0000000e+00 
0.0000000e+00 9.8982564e-06 0.0000000e+00 
0.0000000e+00 1.8036242e-05 0.0000000e+00 
0.0000000e+00 2.5854637e-05 0.0000000e+00 
0.0000000e+00 2.9288442e-05 0.0000000e+00 
0.0000000e+00 2.9550096e-05 0.0000000e+00 
0.0000000e+00 2.5186864e-05 0.0000000e+00 
0.0000000e+00 1.7945356e-05 0.0000000e+00 
0.0000000e+00 9.3472672e-06 0.0000000e+00 
0.0000000e+00 -1.1941851e-05 0.0000000e+00 
0.0000000e+00 -9.1678390e-05 0.0000000e+00 
0.0000000e+00 -2.2828749e-04 0.0000000e+00 
0.0000000e+00 -4.0455320e-04 0.0000000e+00 
0.0000000e+00 -5.1001151e-04 0.0000000e+00 
0.0000000e+00 -5.3293467e-04 0.0000000e+00 
0.0000000e+00 -4.6449935e-04 0.0000000e+00 
0.0000000e+00 -3.0713089e-04 0.0000000e+00 
0.0000000e+00 -1.5684527e-04 0.0000000e+00 
0.0000000e+00 -2.4197094e-05 0.0000000e+00 
0.0000000e+00 5.7129546e-06 0.0000000e+00 
0.0000000e+00 1.4438997e-05 0.0000000e+00 
0.0000000e+00 1.7932649e-05 0.0000000e+00 
0.0000000e+00 3.1129388e-05 0.0000000e+00 
0.0000000e+00 4.4905304e-05 0.0000000e+00 
0.0000000e+00 5.1805651e-05 0.0000000e+00 
0.0000000e+00 4.4385964e-05 0.0000000e+00 
0.0000000e+00 4.0031384e-05 0.0000000e+00 
0.0000000e+00 4.0119801e-05 0.0000000e+00 
0.0000000e+00 2.0198364e-05 0.0000000e+00 
0.0000000e+00 -2.0380350e-05 0.0000000e+00 
0.0000000e+00 -9.0953683e-05 0.0000000e+00 
0.0000000e+00 -2.3444879e-04 0.0000000e+00 
0.0000000e+00 -4.4028775e-04 0.0000000e+00 
0.0000000e+00 -5.3513452e-04 0.0000000e+00 
0.0000000e+00 -5.1304844e-04 0.0000000e+00 
0.0000000e+00 -4.4658696e-04 0.0000000e+00 
0.0000000e+00 -3.3084201e-04 0.0000000e+00 
0.0000000e+00 -9.9685771e-05 0.0000000e+00 
0.0000000e+00 -2.8363633e-05 0.0000000e+00 
0.0000000e+00 7.0474516e-07 0.0000000e+00 
0.0000000e+00 1.4105975e-06 0.0000000e+00 
0.0000000e+00 8.1673102e-07 0.0000000e+00 
0.0000000e+00 2.4377493e-06 0.0000000e+00 
0.0000000e+00 3.3640626e-06 0.0000000e+00 
0.0000000e+00 1.6359376e-06 0.0000000e+00 
0.0000000e+00 2.8331181e-07 0.0000000e+00 
0.0000000e+00 -1.9395159e-06 0.0000000e+00 
0.0000000e+00 3.5057941e-08 0.0000000e+00 
-1.9977881e-06 -4.2968850e-07 1.2943902e-06 
-1.0358183e-06 -1.8704019e-06 -1.0656759e-06 
5.7112368e-07 -2.8204340e-06 -2.0764987e-06 
9.2880117e-07 -7.0578567e-06 -1.6039046e-06 
2.0493154e-07 6.5545031e-08 1.1893177e-07 
-1.3197605e-07 4.7531913e-08 2.0527652e-07 
-5.3426095e-07 1.0392779e-06 -5.6925518e-07 
-3.3585433e-08 1.7636112e-06 -7.6503761e-07 
-4.8808429e-06 6.0509473e-07 4.3235509e-06 
2.1563716e-07 3.7943707e-07 -8.6535078e-07 
-2.1599378e-06 -1.2692005e-06 9.3950450e-07 
-3.4961633e-06 -8.7227795e-07 1.3015162e-06 
0.0000000e+00 -1.3840359e-05 0.0000000e+00 
0.0000000e+00 -1.0327000e-06 0.0000000e+00 
0.0000000e+00 1.4621964e-05 0.0000000e+00 
0.0000000e+00 2.6663078e-05 0.0000000e+00 
0.0000000e+00 3.8588518e-05 0.0000000e+00 
0.0000000e+00 4.4979595e-05 0.0000000e+00 
0.0000000e+00 4.5900826e-05 0.0000000e+00 
0.0000000e+00 4.1677707e-05 0.0000000e+00 
0.0000000e+00 3.3767672e-05 0.0000000e+00 
0.0000000e+00 2.3674627e-05 0.0000000e+00 
0.0000000e+00 -1.8630531e-05 0.0000000e+00 
0.0000000e+00 -1.6870006e-04 0.0000000e+00 
0.0000000e+00 -4.3600620e-04 0.0000000e+00 
0.0000000e+00 -8.2959747e-04 0.0000000e+00 