# vtk DataFile Version 4.0
vtk output
ASCII
DATASET UNSTRUCTURED_GRID
POINTS 1920 float
0.0000000e+00 0.0000000e+00 0.0000000e+00 
0.0000000e+00 0.0000000e+00 5.0000000e+01 
5.0000000e+00 0.0000000e+00 0.0000000e+00 
5.0000000e+00 0.0000000e+00 5.0000000e+01 
5.0000000e+00 1.0000000e+00 0.0000000e+00 
5.0000000e+00 1.0000000e+00 5.0000000e+01 
0.0000000e+00 1.0000000e+00 0.0000000e+00 
0.0000000e+00 1.0000000e+00 5.0000000e+01 
5.0000000e+00 2.0000000e+00 0.0000000e+00 
5.0000000e+00 2.0000000e+00 5.0000000e+01 
3.0000000e+00 2.0000000e+00 0.0000000e+00 
3.0000000e+00 2.0000000e+00 5.0000000e+01 
0.0000000e+00 2.0000000e+00 0.0000000e+00 
0.0000000e+00 2.0000000e+00 5.0000000e+01 
1.5000000e+00 3.0000000e+00 0.0000000e+00 
1.5000000e+00 3.0000000e+00 5.0000000e+01 
7.5000000e-01 3.0000000e+00 0.0000000e+00 
7.5000000e-01 3.0000000e+00 5.0000000e+01 
0.0000000e+00 3.0000000e+00 0.0000000e+00 
0.0000000e+00 3.0000000e+00 5.0000000e+01 
7.5000000e-01 3.0000000e+00 5.0000000e-01 
7.5000000e-01 3.0000000e+00 1.0000000e+00 
7.5000000e-01 3.0000000e+00 1.5000000e+00 
7.5000000e-01 3.0000000e+00 2.0000000e+00 
7.5000000e-01 3.0000000e+00 2.5000000e+00 
7.5000000e-01 3.0000000e+00 3.0000000e+00 
7.5000000e-01 3.0000000e+00 3.5000000e+00 
7.5000000e-01 3.0000000e+00 4.0000000e+00 
7.5000000e-01 3.0000000e+00 4.5000000e+00 
7.5000000e-01 3.0000000e+00 5.0000000e+00 
7.5000000e-01 3.0000000e+00 5.5000000e+00 
7.5000000e-01 3.0000000e+00 6.0000000e+00 
7.5000000e-01 3.0000000e+00 6.5000000e+00 
7.5000000e-01 3.0000000e+00 7.0000000e+00 
7.5000000e-01 3.0000000e+00 7.5000000e+00 
7.5000000e-01 3.0000000e+00 8.0000000e+00 
7.5000000e-01 3.0000000e+00 8.5000000e+00 
7.5000000e-01 3.0000000e+00 9.0000000e+00 
7.5000000e-01 3.0000000e+00 9.5000000e+00 
7.5000000e-01 3.0000000e+00 1.0000000e+01 
7.5000000e-01 3.0000000e+00 1.0500000e+01 
7.5000000e-01 3.0000000e+00 1.1000000e+01 
7.5000000e-01 3.0000000e+00 1.1500000e+01 
7.5000000e-01 3.0000000e+00 1.2000000e+01 
7.5000000e-01 3.0000000e+00 1.2500000e+01 
7.5000000e-01 3.0000000e+00 1.3000000e+01 
7.5000000e-01 3.0000000e+00 1.3500000e+01 
7.5000000e-01 3.0000000e+00 1.4000000e+01 
7.5000000e-01 3.0000000e+00 1.4500000e+01 
7.5000000e-01 3.0000000e+00 1.5000000e+01 
7.5000000e-01 3.0000000e+00 1.5500000e+01 
7.5000000e-01 3.0000000e+00 1.6000000e+01 
7.5000000e-01 3.0000000e+00 1.6500000e+01 
7.5000000e-01 3.0000000e+00 1.7000000e+01 
7.5000000e-01 3.0000000e+00 1.7500000e+01 
7.5000000e-01 3.0000000e+00 1.8000000e+01 
7.5000000e-01 3.0000000e+00 1.8500000e+01 
7.5000000e-01 3.0000000e+00 1.9000000e+01 
7.5000000e-01 3.0000000e+00 1.9500000e+01 
7.5000000e-01 3.0000000e+00 2.0000000e+01 
7.5000000e-01 3.0000000e+00 2.0500000e+01 
7.5000000e-01 3.0000000e+00 2.1000000e+01 
7.5000000e-01 3.0000000e+00 2.1500000e+01 
7.5000000e-01 3.0000000e+00 2.2000000e+01 
7.5000000e-01 3.0000000e+00 2.2500000e+01 
7.5000000e-01 3.0000000e+00 2.3000000e+01 
7.5000000e-01 3.0000000e+00 2.3500000e+01 
7.5000000e-01 3.0000000e+00 2.4000000e+01 
7.5000000e-01 3.0000000e+00 2.4500000e+01 
7.5000000e-01 3.0000000e+00 2.5000000e+01 
7.5000000e-01 3.0000000e+00 2.5500000e+01 
7.5000000e-01 3.0000000e+00 2.6000000e+01 
7.5000000e-01 3.0000000e+00 2.6500000e+01 
7.5000000e-01 3.0000000e+00 2.7000000e+01 
7.5000000e-01 3.0000000e+00 2.7500000e+01 
7.5000000e-01 3.0000000e+00 2.8000000e+01 
7.5000000e-01 3.0000000e+00 2.8500000e+01 
7.5000000e-01 3.0000000e+00 2.9000000e+01 
7.5000000e-01 3.0000000e+00 2.9500000e+01 
7.5000000e-01 3.0000000e+00 3.0000000e+01 
7.5000000e-01 3.0000000e+00 3.0500000e+01 
7.5000000e-01 3.0000000e+00 3.1000000e+01 
7.5000000e-01 3.0000000e+00 3.1500000e+01 
7.5000000e-01 3.0000000e+00 3.2000000e+01 
7.5000000e-01 3.0000000e+00 3.2500000e+01 
7.5000000e-01 3.0000000e+00 3.3000000e+01 
7.5000000e-01 3.0000000e+00 3.3500000e+01 
7.5000000e-01 3.0000000e+00 3.4000000e+01 
7.5000000e-01 3.0000000e+00 3.4500000e+01 
7.5000000e-01 3.0000000e+00 3.5000000e+01 
7.5000000e-01 3.0000000e+00 3.5500000e+01 
7.5000000e-01 3.0000000e+00 3.6000000e+01 
7.5000000e-01 3.0000000e+00 3.6500000e+01 
7.5000000e-01 3.0000000e+00 3.7000000e+01 
7.5000000e-01 3.0000000e+00 3.7500000e+01 
7.5000000e-01 3.0000000e+00 3.8000000e+01 
7.5000000e-01 3.0000000e+00 3.8500000e+01 
7.5000000e-01 3.0000000e+00 3.9000000e+01 
7.5000000e-01 3.0000000e+00 3.9500000e+01 
7.5000000e-01 3.0000000e+00 4.0000000e+01 
7.5000000e-01 3.0000000e+00 4.0500000e+01 
7.5000000e-01 3.0000000e+00 4.1000000e+01 
7.5000000e-01 3.0000000e+00 4.1500000e+01 
7.5000000e-01 3.0000000e+00 4.2000000e+01 
7.5000000e-01 3.0000000e+00 4.2500000e+01 
7.5000000e-01 3.0000000e+00 4.3000000e+01 
7.5000000e-01 3.0000000e+00 4.3500000e+01 
7.5000000e-01 3.0000000e+00 4.4000000e+01 
7.5000000e-01 3.0000000e+00 4.4500000e+01 
7.5000000e-01 3.0000000e+00 4.5000000e+01 
7.5000000e-01 3.0000000e+00 4.5500000e+01 
7.5000000e-01 3.0000000e+00 4.6000000e+01 
7.5000000e-01 3.0000000e+00 4.6500000e+01 
7.5000000e-01 3.0000000e+00 4.7000000e+01 
7.5000000e-01 3.0000000e+00 4.7500000e+01 
7.5000000e-01 3.0000000e+00 4.8000000e+01 
7.5000000e-01 3.0000000e+00 4.8500000e+01 
7.5000000e-01 3.0000000e+00 4.9000000e+01 
7.5000000e-01 3.0000000e+00 4.9500000e+01 
7.5000000e-01 3.0250001e+00 0.0000000e+00 
7.5000000e-01 3.0250001e+00 5.0000000e-01 
7.5000000e-01 3.0250001e+00 1.0000000e+00 
7.5000000e-01 3.0250001e+00 1.5000000e+00 
7.5000000e-01 3.0250001e+00 2.0000000e+00 
7.5000000e-01 3.0250001e+00 2.5000000e+00 
7.5000000e-01 3.0250001e+00 3.0000000e+00 
7.5000000e-01 3.0250001e+00 3.5000000e+00 
7.5000000e-01 3.0250001e+00 4.0000000e+00 
7.5000000e-01 3.0250001e+00 4.5000000e+00 
7.5000000e-01 3.0250001e+00 5.0000000e+00 
7.5000000e-01 3.0250001e+00 5.5000000e+00 
7.5000000e-01 3.0250001e+00 6.0000000e+00 
7.5000000e-01 3.0250001e+00 6.5000000e+00 
7.5000000e-01 3.0250001e+00 7.0000000e+00 
7.5000000e-01 3.0250001e+00 7.5000000e+00 
7.5000000e-01 3.0250001e+00 8.0000000e+00 
7.5000000e-01 3.0250001e+00 8.5000000e+00 
7.5000000e-01 3.0250001e+00 9.0000000e+00 
7.5000000e-01 3.0250001e+00 9.5000000e+00 
7.5000000e-01 3.0250001e+00 1.0000000e+01 
7.5000000e-01 3.0250001e+00 1.0500000e+01 
7.5000000e-01 3.0250001e+00 1.1000000e+01 
7.5000000e-01 3.0250001e+00 1.1500000e+01 
7.5000000e-01 3.0250001e+00 1.2000000e+01 
7.5000000e-01 3.0250001e+00 1.2500000e+01 
7.5000000e-01 3.0250001e+00 1.3000000e+01 
7.5000000e-01 3.0250001e+00 1.3500000e+01 
7.5000000e-01 3.0250001e+00 1.4000000e+01 
7.5000000e-01 3.0250001e+00 1.4500000e+01 
7.5000000e-01 3.0250001e+00 1.5000000e+01 
7.5000000e-01 3.0250001e+00 1.5500000e+01 
7.5000000e-01 3.0250001e+00 1.6000000e+01 
7.5000000e-01 3.0250001e+00 1.6500000e+01 
7.5000000e-01 3.0250001e+00 1.7000000e+01 
7.5000000e-01 3.0250001e+00 1.7500000e+01 
7.5000000e-01 3.0250001e+00 1.8000000e+01 
7.5000000e-01 3.0250001e+00 1.8500000e+01 
7.5000000e-01 3.0250001e+00 1.9000000e+01 
7.5000000e-01 3.0250001e+00 1.9500000e+01 
7.5000000e-01 3.0250001e+00 2.0000000e+01 
7.5000000e-01 3.0250001e+00 2.0500000e+01 
7.5000000e-01 3.0250001e+00 2.1000000e+01 
7.5000000e-01 3.0250001e+00 2.1500000e+01 
7.5000000e-01 3.0250001e+00 2.2000000e+01 
7.5000000e-01 3.0250001e+00 2.2500000e+01 
7.5000000e-01 3.0250001e+00 2.3000000e+01 
7.5000000e-01 3.0250001e+00 2.3500000e+01 
7.5000000e-01 3.0250001e+00 2.4000000e+01 
7.5000000e-01 3.0250001e+00 2.4500000e+01 
7.5000000e-01 3.0250001e+00 2.5000000e+01 
7.5000000e-01 3.0250001e+00 2.5500000e+01 
7.5000000e-01 3.0250001e+00 2.6000000e+01 
7.5000000e-01 3.0250001e+00 2.6500000e+01 
7.5000000e-01 3.0250001e+00 2.7000000e+01 
7.5000000e-01 3.0250001e+00 2.7500000e+01 
7.5000000e-01 3.0250001e+00 2.8000000e+01 
7.5000000e-01 3.0250001e+00 2.8500000e+01 
7.5000000e-01 3.0250001e+00 2.9000000e+01 
7.5000000e-01 3.0250001e+00 2.9500000e+01 
7.5000000e-01 3.0250001e+00 3.0000000e+01 
7.5000000e-01 3.0250001e+00 3.0500000e+01 
7.5000000e-01 3.0250001e+00 3.1000000e+01 
7.5000000e-01 3.0250001e+00 3.1500000e+01 
7.5000000e-01 3.0250001e+00 3.2000000e+01 
7.5000000e-01 3.0250001e+00 3.2500000e+01 
7.5000000e-01 3.0250001e+00 3.3000000e+01 
7.5000000e-01 3.0250001e+00 3.3500000e+01 
7.5000000e-01 3.0250001e+00 3.4000000e+01 
7.5000000e-01 3.0250001e+00 3.4500000e+01 
7.5000000e-01 3.0250001e+00 3.5000000e+01 
7.5000000e-01 3.0250001e+00 3.5500000e+01 
7.5000000e-01 3.0250001e+00 3.6000000e+01 
7.5000000e-01 3.0250001e+00 3.6500000e+01 
7.5000000e-01 3.0250001e+00 3.7000000e+01 
7.5000000e-01 3.0250001e+00 3.7500000e+01 
7.5000000e-01 3.0250001e+00 3.8000000e+01 
7.5000000e-01 3.0250001e+00 3.8500000e+01 
7.5000000e-01 3.0250001e+00 3.9000000e+01 
7.5000000e-01 3.0250001e+00 3.9500000e+01 
7.5000000e-01 3.0250001e+00 4.0000000e+01 
7.5000000e-01 3.0250001e+00 4.0500000e+01 
7.5000000e-01 3.0250001e+00 4.1000000e+01 
7.5000000e-01 3.0250001e+00 4.1500000e+01 
7.5000000e-01 3.0250001e+00 4.2000000e+01 
7.5000000e-01 3.0250001e+00 4.2500000e+01 
7.5000000e-01 3.0250001e+00 4.3000000e+01 
7.5000000e-01 3.0250001e+00 4.3500000e+01 
7.5000000e-01 3.0250001e+00 4.4000000e+01 
7.5000000e-01 3.0250001e+00 4.4500000e+01 
7.5000000e-01 3.0250001e+00 4.5000000e+01 
7.5000000e-01 3.0250001e+00 4.5500000e+01 
7.5000000e-01 3.0250001e+00 4.6000000e+01 
7.5000000e-01 3.0250001e+00 4.6500000e+01 
7.5000000e-01 3.0250001e+00 4.7000000e+01 
7.5000000e-01 3.0250001e+00 4.7500000e+01 
7.5000000e-01 3.0250001e+00 4.8000000e+01 
7.5000000e-01 3.0250001e+00 4.8500000e+01 
7.5000000e-01 3.0250001e+00 4.9000000e+01 
7.5000000e-01 3.0250001e+00 4.9500000e+01 
7.5000000e-01 3.0250001e+00 5.0000000e+01 
1.5000000e+00 3.0000000e+00 2.5000000e+01 
3.0000000e+00 2.0000000e+00 2.5000000e+01 
4.0000000e+00 2.0000000e+00 2.5000000e+01 
5.0000000e+00 2.0000000e+00 2.5000000e+01 
0.0000000e+00 3.0000000e+00 2.5000000e+01 
0.0000000e+00 0.0000000e+00 1.0000000e+00 
0.0000000e+00 0.0000000e+00 2.0000000e+00 
0.0000000e+00 0.0000000e+00 3.0000000e+00 
0.0000000e+00 0.0000000e+00 4.0000000e+00 
0.0000000e+00 0.0000000e+00 5.0000000e+00 
[...]
POINT_DATA 1920
FIELD FieldData 3
DISPLACEMENT 3 1920  float
0.0000000e+00 0.0000000e+00 0.0000000e+00 
0.0000000e+00 0.0000000e+00 0.0000000e+00 
0.0000000e+00 0.0000000e+00 0.0000000e+00 
0.0000000e+00 0.0000000e+00 0.0000000e+00 
7.0032302e-06 -1.0184700e-06 -2.2030158e-06 
2.2370088e-07 1.3249640e-08 -3.0205442e-07 
0.0000000e+00 9.1532193e-06 0.0000000e+00 
0.0000000e+00 1.1801222e-07 0.0000000e+00 
2.4273802e-06 3.1191212e-06 -6.0829296e-07 
5.1021550e-07 1.3818131e-07 1.6947048e-07 
6.5606400e-06 -1.2915258e-05 -2.0456528e-05 
-8.7553991e-07 6.6527735e-07 -2.1507678e-07 
0.0000000e+00 1.0706795e-05 0.0000000e+00 
0.0000000e+00 1.9137001e-07 0.0000000e+00 
1.6824943e-05 -4.2616972e-05 -3.2012562e-05 
1.3221240e-06 9.7675240e-08 -1.4836780e-06 
6.8286368e-05 -4.2688453e-06 -4.3795269e-05 
6.5642766e-08 5.0933829e-07 1.3522389e-06 
0.0000000e+00 3.6530171e-05 0.0000000e+00 
0.0000000e+00 -1.7712072e-06 0.0000000e+00 
2.1826847e-05 -2.7334709e-06 -4.3804444e-06 
1.3167910e-05 1.2852818e-06 1.7233535e-05 
9.9114113e-06 8.4043249e-06 2.0064928e-05 
7.8717749e-06 1.7908744e-05 2.8542685e-05 
1.3289301e-05 2.5660642e-05 2.1089969e-05 
1.1783128e-05 2.5944011e-05 1.7975128e-05 
-9.4571860e-06 2.0264271e-05 1.7379902e-05 
-1.8481594e-05 1.5340083e-05 1.7054987e-05 
-2.5631294e-05 1.8868295e-05 1.4928449e-05 
-2.7697200e-05 3.0208475e-05 1.1736662e-05 
-2.6153508e-05 4.2919753e-05 3.8889498e-06 
-2.7340555e-05 4.6457619e-05 -8.3613195e-06 
-1.2980660e-05 4.1834934e-05 -1.2161630e-05 
-2.0226125e-05 3.7880593e-05 -1.6119458e-05 
-1.5240613e-05 5.2137711e-05 -1.8835815e-05 
-7.6836523e-06 9.0453505e-05 -1.2547671e-05 
-1.2197648e-05 1.2955560e-04 2.7222720e-06 
-4.7891131e-06 1.1250284e-04 1.3069384e-05 
-1.9246227e-06 -1.1312000e-05 4.9068309e-05 
2.0254417e-06 -2.7870099e-04 7.7583485e-05 
-2.0746997e-05 -7.1018405e-04 1.6060447e-04 
-4.9929997e-05 -1.3225938e-03 1.3174942e-04 
-1.0554523e-04 -2.1606127e-03 2.7098533e-04 
-1.6308887e-04 -3.2130969e-03 1.3597863e-04 
-2.0569198e-04 -4.3486622e-03 2.3115681e-04 
-2.1186155e-04 -5.0811046e-03 1.3889479e-04 
-2.2681884e-04 -4.9788570e-03 1.0744134e-04 
-2.3948340e-04 -4.5761629e-03 8.2119441e-05 
-2.3125806e-04 -4.3983092e-03 7.6299686e-05 
-2.4672673e-04 -4.4512739e-03 -2.3045861e-05 
-2.4625185e-04 -4.3195654e-03 -1.0598684e-04 
-2.2970812e-04 -3.4045239e-03 -1.0334652e-04 
-1.8458343e-04 -2.2020398e-03 -2.2541465e-04 
-1.6839922e-04 -1.1470774e-03 -3.5481440e-04 
-5.4150732e-05 -4.0144695e-04 -2.3934855e-04 
-7.1145391e-06 1.4485231e-05 -1.8041668e-04 
2.3952722e-05 1.9367821e-04 -1.6435930e-04 
3.3265176e-05 2.3785786e-04 -1.2914362e-04 
5.1386021e-05 2.1845629e-04 -1.0136660e-04 
6.2786181e-05 1.6668355e-04 -7.8144942e-05 
6.3454114e-05 1.0062200e-04 -4.9687413e-05 
5.3720287e-05 4.0104343e-05 -2.4942508e-05 
4.0323117e-05 2.0449856e-06 4.7881595e-06 
2.2440536e-05 -9.6876038e-06 2.8421442e-05 
-4.1618648e-07 -6.3725315e-06 4.2331249e-05 
4.7133626e-06 -3.7589193e-06 4.1306565e-05 
-8.4736585e-06 -9.5134574e-06 2.5315054e-05 
-4.2925993e-05 -1.9585965e-05 2.1312837e-05 
-1.9073916e-05 -2.1466542e-05 1.3600310e-05 
-4.3114353e-05 -7.6287470e-06 9.2865866e-06 
-3.1619933e-05 1.8657576e-05 4.6736191e-06 
-4.3393138e-05 4.1434294e-05 1.8596240e-06 
-3.1560990e-05 5.0852879e-05 -7.2179146e-06 
-2.6643491e-05 4.6198918e-05 -1.1573441e-05 
-2.6574629e-05 4.3179571e-05 -9.7512539e-06 
-1.1653899e-05 5.4594195e-05 8.4429075e-06 
-1.4198569e-05 7.8885852e-05 1.4592941e-05 
-1.0941412e-05 8.3388222e-05 3.0691055e-05 
-2.2782910e-05 -7.6805350e-07 8.1232676e-05 
-7.7427421e-06 -2.6766167e-04 8.8314540e-05 
-3.3924978e-05 -7.6872908e-04 1.6927069e-04 
-6.5531902e-05 -1.4996243e-03 1.3746279e-04 
-1.2003682e-04 -2.4444768e-03 2.5170928e-04 
-1.8791766e-04 -3.5164184e-03 1.0094442e-04 
-2.5404143e-04 -4.5433389e-03 1.9048087e-04 
-2.9443382e-04 -5.0825872e-03 7.4097683e-05 
-2.7152890e-04 -4.9513392e-03 -7.8149151e-06 
-2.7609192e-04 -4.6406370e-03 2.0297195e-05 
-2.3717448e-04 -4.5614722e-03 1.0929753e-05 
-2.2246179e-04 -4.5507648e-03 -3.9184109e-05 
-2.2142215e-04 -4.1830898e-03 -1.2309180e-04 
-2.0225035e-04 -3.1162908e-03 -9.1017027e-05 
-1.3951078e-04 -1.8941896e-03 -2.3173916e-04 
-1.1263029e-04 -9.0411672e-04 -1.5420474e-04 
-6.2136030e-05 -2.6558287e-04 -2.1454673e-04 
-1.0860485e-05 8.3945488e-05 -1.9976919e-04 
3.2131147e-06 2.3255624e-04 -1.1351956e-04 
2.9992655e-06 2.5558122e-04 -8.6924665e-05 
1.6033155e-05 2.0527246e-04 -6.5564316e-05 
1.9692392e-05 1.2490046e-04 -6.2760992e-05 
2.6027283e-05 5.1858289e-05 -3.4770237e-05 
2.8605293e-05 5.6583535e-06 -1.8695864e-05 
2.7291206e-05 -1.4527568e-05 1.2442963e-05 
1.5549287e-05 -2.1223343e-05 2.8170809e-05 
3.9865167e-06 -2.5936179e-05 3.9162765e-05 
8.1360076e-07 -2.8691244e-05 3.3520195e-05 
-4.3550667e-06 -2.4442870e-05 2.0047983e-05 
-4.1984304e-06 -1.3368390e-05 1.2201794e-05 
-5.6428130e-06 -8.6870432e-07 6.3260240e-06 
-4.9789901e-06 6.9716675e-06 6.2182553e-06 
-4.6170276e-06 8.7711205e-06 4.0856098e-06 
-3.5271469e-06 7.5875064e-06 8.5698804e-07 
-2.0218247e-06 6.6556390e-06 1.7106335e-07 
-1.5903313e-06 5.8354854e-06 -6.8563781e-07 
-2.2349811e-06 3.3815547e-06 -2.4897777e-06 
-1.5038305e-06 -4.2129309e-07 -4.8958932e-06 
1.2249890e-06 -3.1803791e-06 -4.1526014e-06 
6.1308998e-07 -3.0319623e-06 -4.4185622e-06 
2.3509110e-06 -8.0497671e-07 -1.6179572e-06 
0.0000000e+00 -4.2793340e-06 0.0000000e+00 
0.0000000e+00 -2.8437757e-06 0.0000000e+00 
0.0000000e+00 1.3662002e-06 0.0000000e+00 
0.0000000e+00 8.6863029e-06 0.0000000e+00 
0.0000000e+00 1.8129560e-05 0.0000000e+00 
0.0000000e+00 2.5399984e-05 0.0000000e+00 
0.0000000e+00 2.5614116e-05 0.0000000e+00 
0.0000000e+00 2.0074158e-05 0.0000000e+00 
0.0000000e+00 1.5701164e-05 0.0000000e+00 
0.0000000e+00 1.9327737e-05 0.0000000e+00 
0.0000000e+00 3.0646952e-05 0.0000000e+00 
0.0000000e+00 4.2589058e-05 0.0000000e+00 
0.0000000e+00 4.6159937e-05 0.0000000e+00 
0.0000000e+00 4.1251213e-05 0.0000000e+00 
0.0000000e+00 3.8110415e-05 0.0000000e+00 
0.0000000e+00 5.3448897e-05 0.0000000e+00 
0.0000000e+00 9.2451628e-05 0.0000000e+00 
0.0000000e+00 1.3008500e-04 0.0000000e+00 
0.0000000e+00 1.1237875e-04 0.0000000e+00 
0.0000000e+00 -1.2454355e-05 0.0000000e+00 
0.0000000e+00 -2.7957908e-04 0.0000000e+00 
0.0000000e+00 -7.0929056e-04 0.0000000e+00 
0.0000000e+00 -1.3250924e-03 0.0000000e+00 
0.0000000e+00 -2.1664193e-03 0.0000000e+00 
0.0000000e+00 -3.2313934e-03 0.0000000e+00 
0.0000000e+00 -4.3696370e-03 0.0000000e+00 
0.0000000e+00 -5.1137768e-03 0.0000000e+00 
0.0000000e+00 -5.0015221e-03 0.0000000e+00 
0.0000000e+00 -4.6027792e-03 0.0000000e+00 
0.0000000e+00 -4.4205231e-03 0.0000000e+00 
0.0000000e+00 -4.4819112e-03 0.0000000e+00 
0.0000000e+00 -4.3436415e-03 0.0000000e+00 
0.0000000e+00 -3.4283521e-03 0.0000000e+00 
0.0000000e+00 -2.2166388e-03 0.0000000e+00 
0.0000000e+00 -1.1538512e-03 0.0000000e+00 
0.0000000e+00 -4.0626925e-04 0.0000000e+00 
0.0000000e+00 1.4721597e-05 0.0000000e+00 
0.0000000e+00 1.9552889e-04 0.0000000e+00 
0.0000000e+00 2.3968323e-04 0.0000000e+00 
0.0000000e+00 2.1902994e-04 0.0000000e+00 
0.0000000e+00 1.6679674e-04 0.0000000e+00 
0.0000000e+00 1.0102445e-04 0.0000000e+00 
0.0000000e+00 4.0788513e-05 0.0000000e+00 
0.0000000e+00 2.5848678e-06 0.0000000e+00 
0.0000000e+00 -9.6656913e-06 0.0000000e+00 
0.0000000e+00 -6.6521034e-06 0.0000000e+00 
0.0000000e+00 -3.9714791e-06 0.0000000e+00 
0.0000000e+00 -9.8428773e-06 0.0000000e+00 
0.0000000e+00 -1.9624978e-05 0.0000000e+00 
0.0000000e+00 -2.1206990e-05 0.0000000e+00 
0.0000000e+00 -6.9932744e-06 0.0000000e+00 
0.0000000e+00 1.8729437e-05 0.0000000e+00 
0.0000000e+00 4.1379943e-05 0.0000000e+00 
0.0000000e+00 5.0155908e-05 0.0000000e+00 
0.0000000e+00 4.6133464e-05 0.0000000e+00 
0.0000000e+00 4.3492353e-05 0.0000000e+00 
0.0000000e+00 5.5826447e-05 0.0000000e+00 
0.0000000e+00 8.1092607e-05 0.0000000e+00 
0.0000000e+00 8.5588719e-05 0.0000000e+00 
0.0000000e+00 -2.1595154e-06 0.0000000e+00 
0.0000000e+00 -2.7053565e-04 0.0000000e+00 
0.0000000e+00 -7.7045016e-04 0.0000000e+00 
0.0000000e+00 -1.5039985e-03 0.0000000e+00 
0.0000000e+00 -2.4492010e-03 0.0000000e+00 
0.0000000e+00 -3.5342383e-03 0.0000000e+00 
0.0000000e+00 -4.5651714e-03 0.0000000e+00 
0.0000000e+00 -5.1184995e-03 0.0000000e+00 
0.0000000e+00 -4.9738945e-03 0.0000000e+00 
0.0000000e+00 -4.6698004e-03 0.0000000e+00 
0.0000000e+00 -4.5796619e-03 0.0000000e+00 
0.0000000e+00 -4.5794509e-03 0.0000000e+00 
0.0000000e+00 -4.2071473e-03 0.0000000e+00 
0.0000000e+00 -3.1405301e-03 0.0000000e+00 
0.0000000e+00 -1.9076994e-03 0.0000000e+00 
0.0000000e+00 -9.1210339e-04 0.0000000e+00 
0.0000000e+00 -2.6613736e-04 0.0000000e+00 
0.0000000e+00 8.4810235e-05 0.0000000e+00 
0.0000000e+00 2.3351396e-04 0.0000000e+00 
0.0000000e+00 2.5610600e-04 0.0000000e+00 
0.0000000e+00 2.0591574e-04 0.0000000e+00 
0.0000000e+00 1.2609763e-04 0.0000000e+00 
0.0000000e+00 5.2839743e-05 0.0000000e+00 
0.0000000e+00 5.9582653e-06 0.0000000e+00 
0.0000000e+00 -1.4758039e-05 0.0000000e+00 
0.0000000e+00 -2.1734961e-05 0.0000000e+00 
0.0000000e+00 -2.6049849e-05 0.0000000e+00 
0.0000000e+00 -2.8381693e-05 0.0000000e+00 
0.0000000e+00 -2.4271318e-05 0.0000000e+00 
0.0000000e+00 -1.3450265e-05 0.0000000e+00 
0.0000000e+00 -1.1065390e-06 0.0000000e+00 
0.0000000e+00 6.8302375e-06 0.0000000e+00 
0.0000000e+00 8.8155384e-06 0.0000000e+00 
0.0000000e+00 7.7403056e-06 0.0000000e+00 
0.0000000e+00 6.6995899e-06 0.0000000e+00 
0.0000000e+00 5.7242150e-06 0.0000000e+00 
0.0000000e+00 3.2970877e-06 0.0000000e+00 
0.0000000e+00 -3.7446318e-07 0.0000000e+00 
0.0000000e+00 -3.0513188e-06 0.0000000e+00 
0.0000000e+00 -2.9446660e-06 0.0000000e+00 
0.0000000e+00 -8.5759916e-07 0.0000000e+00 
0.0000000e+00 4.1014923e-07 0.0000000e+00 
-7.4052135e-05 6.4655331e-05 -1.6655548e-06 
1.7821274e-05 1.4475456e-05 -6.6399043e-06 
5.1254733e-06 -7.7852947e-06 -1.2474595e-05 
-6.3254074e-06 3.9804263e-06 -8.4620897e-06 
0.0000000e+00 -4.6559202e-05 0.0000000e+00 
0.0000000e+00 0.0000000e+00 0.0000000e+00 
0.0000000e+00 0.0000000e+00 0.0000000e+00 
0.0000000e+00 0.0000000e+00 0.0000000e+00 
0.0000000e+00 0.0000000e+00 0.0000000e+00 
0.0000000e+00 0.0000000e+00 0.0000000e+00 
0.0000000e+00 0.0000000e+00 0.0000000e+00 
0.0000000e+00 0.0000000e+00 0.0000000e+00 
0.0000000e+00 0.0000000e+00 0.0000000e+00 
0.0000000e+00 0.0000000e+00 0.0000000e+00 
0.0000000e+00 0.0000000e+00 0.0000000e+00 
0.0000000e+00 0.0000000e+00 0.0000000e+00 
0.0000000e+00 0.0000000e+00 0.0000000e+00 
0.0000000e+00 0.0000000e+00 0.0000000e+00 
0.0000000e+00 0.0000000e+00 0.0000000e+00 
0.0000000e+00 0.0000000e+00 0.0000000e+00 
0.0000000e+00 0.0000000e+00 0.0000000e+00 
0.0000000e+00 0.0000000e+00 0.0000000e+00 
0.0000000e+00 0.0000000e+00 0.0000000e+00 
0.0000000e+00 0.0000000e+00 0.0000000e+00 
0.0000000e+00 0.0000000e+00 0.0000000e+00 
0.0000000e+00 0.0000000e+00 0.0000000e+00 
0.0000000e+00 0.0000000e+00 0.0000000e+00 
0.0000000e+00 0.0000000e+00 0.0000000e+00 
0.0000000e+00 0.0000000e+00 0.0000000e+00 
0.0000000e+00 0.0000000e+00 0.0000000e+00 
0.0000000e+00 0.0000000e+00 0.0000000e+00 
0.0000000e+00 0.0000000e+00 0.0000000e+00 
0.0000000e+00 0.0000000e+00 0.0000000e+00 
0.0000000e+00 0.0000000e+00 0.0000000e+00 
0.0000000e+00 0.0000000e+00 0.0000000e+00 
0.0000000e+00 0.0000000e+00 0.0000000e+00 
0.0000000e+00 0.0000000e+00 0.0000000e+00 
0.0000000e+00 0.0000000e+00 0.0000000e+00 
0.0000000e+00 0.0000000e+00 0.0000000e+00 
0.0000000e+00 0.0000000e+00 0.0000000e+00 
0.0000000e+00 0.0000000e+00 0.0000000e+00 
0.0000000e+00 0.0000000e+00 0.0000000e+00 
0.0000000e+00 0.0000000e+00 0.0000000e+00 
0.0000000e+00 0.0000000e+00 0.0000000e+00 
0.0000000e+00 0.0000000e+00 0.0000000e+00 
0.0000000e+00 0.0000000e+00 0.0000000e+00 
0.0000000e+00 0.0000000e+00 0.0000000e+00 
0.0000000e+00 0.0000000e+00 0.0000000e+00 
0.0000000e+00 0.0000000e+00 0.0000000e+00 
0.0000000e+00 0.0000000e+00 0.0000000e+00 
0.0000000e+00 0.0000000e+00 0.0000000e+00 
0.0000000e+00 0.0000000e+00 0.0000000e+00 
0.0000000e+00 0.0000000e+00 0.0000000e+00 
0.0000000e+00 0.0000000e+00 0.0000000e+00 
0.0000000e+00 0.0000000e+00 0.0000000e+00 
0.0000000e+00 0.0000000e+00 0.0000000e+00 
0.0000000e+00 0.0000000e+00 0.0000000e+00 
0.0000000e+00 0.0000000e+00 0.0000000e+00 
0.0000000e+00 0.0000000e+00 0.0000000e+00 
0.0000000e+00 0.0000000e+00 0.0000000e+00 
0.0000000e+00 0.0000000e+00 0.0000000e+00 
0.0000000e+00 0.0000000e+00 0.0000000e+00 
0.0000000e+00 0.0000000e+00 0.0000000e+00 
0.0000000e+00 0.0000000e+00 0.0000000e+00 
0.0000000e+00 0.0000000e+00 0.0000000e+00 
0.0000000e+00 0.0000000e+00 0.0000000e+00 
0.0000000e+00 0.0000000e+00 0.0000000e+00 
0.0000000e+00 0.0000000e+00 0.0000000e+00 
0.0000000e+00 0.0000000e+00 0.0000000e+00 
0.0000000e+00 0.0000000e+00 0.0000000e+00 
0.0000000e+00 0.0000000e+00 0.0000000e+00 
0.0000000e+00 0.0000000e+00 0.0000000e+00 
0.0000000e+00 0.0000000e+00 0.0000000e+00 
0.0000000e+00 0.0000000e+00 0.0000000e+00 
0.0000000e+00 0.0000000e+00 0.0000000e+00 
0.0000000e+00 0.0000000e+00 0.0000000e+00 
0.0000000e+00 0.0000000e+00 0.0000000e+00 
0.0000000e+00 0.0000000e+00 0.0000000e+00 
0.0000000e+00 0.0000000e+00 0.0000000e+00 
0.0000000e+00 0.0000000e+00 0.0000000e+00 
0.0000000e+00 0.0000000e+00 0.0000000e+00 
0.0000000e+00 0.0000000e+00 0.0000000e+00 
0.0000000e+00 0.0000000e+00 0.0000000e+00 
0.0000000e+00 0.0000000e+00 0.0000000e+00 
0.0000000e+00 0.0000000e+00 0.0000000e+00 
0.0000000e+00 0.0000000e+00 0.0000000e+00 
0.0000000e+00 0.0000000e+00 0.0000000e+00 
0.0000000e+00 0.0000000e+00 0.0000000e+00 
0.0000000e+00 0.0000000e+00 0.0000000e+00 
0.0000000e+00 0.0000000e+00 0.0000000e+00 
0.0000000e+00 0.0000000e+00 0.0000000e+00 
0.0000000e+00 0.0000000e+00 0.0000000e+00 
0.0000000e+00 0.0000000e+00 0.0000000e+00 
0.0000000e+00 0.0000000e+00 0.0000000e+00 
0.0000000e+00 0.0000000e+00 0.0000000e+00 
0.0000000e+00 0.0000000e+00 0.0000000e+00 
0.0000000e+00 0.0000000e+00 0.0000000e+00 
0.0000000e+00 0.0000000e+00 0.0000000e+00 
0.0000000e+00 0.0000000e+00 0.0000000e+00 
0.0000000e+00 0.0000000e+00 0.0000000e+00 
0.0000000e+00 0.0000000e+00 0.0000000e+00 
0.0000000e+00 0.0000000e+00 0.0000000e+00 
0.0000000e+00 0.0000000e+00 0.0000000e+00 
0.0000000e+00 0.0000000e+00 0.0000000e+00 
0.0000000e+00 0.0000000e+00 0.0000000e+00 
0.0000000e+00 0.0000000e+00 0.0000000e+00 
0.0000000e+00 0.0000000e+00 0.0000000e+00 
0.0000000e+00 0.0000000e+00 0.0000000e+00 
0.0000000e+00 0.0000000e+00 0.0000000e+00 
0.0000000e+00 0.0000000e+00 0.0000000e+00 
0.0000000e+00 0.0000000e+00 0.0000000e+00 
2.5303002e-06 3.6028055e-07 -4.9394184e-06 
3.8947942e-06 -7.8775955e-09 -8.7007265e-06 
5.6836866e-06 -2.0684631e-06 -8.2383094e-06 
5.1615098e-06 -8.5864133e-07 -4.6608288e-06 
5.5160199e-06 3.0824012e-06 -5.8111505e-06 
1.0178466e-06 -2.7703388e-06 -5.4618595e-06 
-3.3923109e-07 -9.8988880e-07 -5.5013074e-06 
8.3628811e-06 6.7107135e-06 -3.2704318e-06 
1.3081176e-05 -9.0488475e-06 -4.0442396e-06 
2.0376188e-05 -1.0926834e-06 -2.5933281e-07 
3.0732237e-05 -5.3393765e-06 -1.1615026e-06 
3.8867965e-05 -1.8675344e-05 2.0525563e-06 
4.8223057e-05 -1.4903197e-05 6.8306881e-06 
5.0990868e-05 -1.6430195e-05 1.0296577e-05 
4.8441158e-05 -1.7812181e-05 1.1243626e-05 
4.3621374e-05 -1.5335601e-05 1.3560804e-05 
2.6822630e-05 -1.1112395e-05 1.1419714e-05 
1.1709280e-05 -4.1115482e-06 8.1475191e-06 
4.0828663e-06 -1.2904064e-06 -3.5320920e-07 
6.3065482e-07 2.5548903e-07 -8.5040192e-06 
1.8042860e-07 2.3138034e-06 -9.4698971e-06 
-1.0211207e-06 2.2948379e-06 -9.5064925e-06 
1.4571364e-06 3.3605534e-07 -1.0275026e-05 
-9.2777515e-07 4.4143638e-07 -4.1715703e-06 
-2.4359217e-06 6.2308341e-06 -1.5824630e-06 
2.4817934e-06 -3.5923449e-06 -4.1347357e-06 
6.0231167e-07 -4.9647256e-06 -5.2655373e-06 
5.9720796e-06 4.6085565e-06 -2.8975794e-06 
1.5109183e-05 -9.4180550e-06 -5.6771282e-06 
2.0817148e-05 -8.6847213e-06 -4.8355028e-06 
3.4482295e-05 -8.6574082e-06 -2.4437318e-06 
4.5675730e-05 -1.8423430e-05 1.9293270e-06 
4.9044327e-05 -1.6364298e-05 3.6319398e-06 
4.9161008e-05 -1.4985199e-05 6.6923430e-06 
4.9122918e-05 -1.9211315e-05 9.9894760e-06 
3.6951184e-05 -1.1813260e-05 1.2197191e-05 
2.1682792e-05 -6.8281474e-06 1.1550044e-05 
8.3508421e-06 -1.1453540e-06 7.7917521e-06 
1.3961586e-06 2.5362178e-07 3.2344033e-06 
-1.7971802e-06 1.2789434e-06 7.0762937e-08 
-2.6673024e-06 1.6923913e-06 -2.1579804e-06 
-4.1123164e-07 2.5402224e-07 -3.1997777e-06 
1.3235162e-06 1.9935091e-07 -2.6094185e-06 
4.6288957e-07 7.5872782e-07 1.4395839e-08 
-5.8681525e-07 1.1657506e-06 2.1715389e-06 
-3.4680420e-07 -4.6473423e-07 1.8517928e-06 
-2.3494387e-07 -1.6733319e-06 1.8488337e-06 
2.1820914e-07 -1.8987519e-07 1.4197528e-06 
4.0059240e-07 5.6039408e-07 5.0979878e-07 
0.0000000e+00 -2.6314945e-05 0.0000000e+00 
0.0000000e+00 -4.1050585e-05 0.0000000e+00 
0.0000000e+00 -7.4320298e-05 0.0000000e+00 
0.0000000e+00 -9.1630412e-05 0.0000000e+00 
0.0000000e+00 -5.6952998e-05 0.0000000e+00 
0.0000000e+00 -8.0013815e-05 0.0000000e+00 
0.0000000e+00 -9.0459878e-05 0.0000000e+00 
0.0000000e+00 -4.9350710e-05 0.0000000e+00 
0.0000000e+00 -9.4991141e-05 0.0000000e+00 
0.0000000e+00 -1.5817875e-04 0.0000000e+00 
0.0000000e+00 -2.2159911e-04 0.0000000e+00 
0.0000000e+00 -4.3301622e-04 0.0000000e+00 
0.0000000e+00 -5.5279635e-04 0.0000000e+00 
0.0000000e+00 -4.9719872e-04 0.0000000e+00 
0.0000000e+00 -4.6880898e-04 0.0000000e+00 
0.0000000e+00 -3.1593887e-04 0.0000000e+00 
0.0000000e+00 -1.5739625e-04 0.0000000e+00 
0.0000000e+00 -2.3501445e-05 0.0000000e+00 
0.0000000e+00 7.9871052e-06 0.0000000e+00 
0.0000000e+00 5.9533301e-07 0.0000000e+00 
0.0000000e+00 -2.7330962e-05 0.0000000e+00 
0.0000000e+00 -3.4711760e-05 0.0000000e+00 
0.0000000e+00 -4.9740691e-05 0.0000000e+00 
0.0000000e+00 -8.7636858e-05 0.0000000e+00 
0.0000000e+00 -6.1302089e-05 0.0000000e+00 
0.0000000e+00 -6.1092018e-05 0.0000000e+00 
0.0000000e+00 -7.6234057e-05 0.0000000e+00 
0.0000000e+00 -5.7607849e-05 0.0000000e+00 
0.0000000e+00 -6.7055349e-05 0.0000000e+00 
0.0000000e+00 -1.8589762e-04 0.0000000e+00 
0.0000000e+00 -2.9717915e-04 0.0000000e+00 
0.0000000e+00 -4.2491069e-04 0.0000000e+00 
0.0000000e+00 -5.5315287e-04 0.0000000e+00 
0.0000000e+00 -4.9458578e-04 0.0000000e+00 
0.0000000e+00 -4.2858571e-04 0.0000000e+00 
0.0000000e+00 -2.8391389e-04 0.0000000e+00 
0.0000000e+00 -1.2945152e-04 0.0000000e+00 
0.0000000e+00 -3.6391095e-05 0.0000000e+00 
0.0000000e+00 1.0528977e-05 0.0000000e+00 
0.0000000e+00 1.6191523e-05 0.0000000e+00 
0.0000000e+00 1.0524726e-05 0.0000000e+00 
0.0000000e+00 1.2143232e-05 0.0000000e+00 
0.0000000e+00 2.3459249e-07 0.0000000e+00 
0.0000000e+00 -8.6414748e-06 0.0000000e+00 
0.0000000e+00 -5.4336069e-06 0.0000000e+00 
0.0000000e+00 1.1933978e-06 0.0000000e+00 
0.0000000e+00 2.8938869e-06 0.0000000e+00 
0.0000000e+00 2.0095376e-07 0.0000000e+00 
0.0000000e+00 -1.0697559e-06 0.0000000e+00 
4.0516238e-06 -3.7398934e-06 -7.5919806e-06 
1.0403686e-06 -8.5821030e-06 -8.3040386e-06 
-7.9428150e-07 -4.1653266e-06 -6.3587490e-06 
-1.7133302e-06 -2.5634779e-06 -2.1571768e-06 
9.7429314e-08 1.9755100e-07 2.5567087e-07 
-1.4426074e-07 2.9261764e-07 1.4888212e-07 
1.2465011e-07 5.2896002e-08 -4.5249362e-07 
6.3148057e-08 -2.7089260e-07 -3.5614752e-07 
4.5538313e-06 -5.6429258e-06 -1.0744759e-05 
-1.0593624e-07 2.7429647e-07 3.6167475e-07 
-4.4311796e-06 -2.8578622e-06 2.4381384e-06 
1.2533975e-06 -1.7526041e-05 -2.1557755e-05 
0.0000000e+00 -2.5826344e-05 0.0000000e+00 
0.0000000e+00 -7.7282384e-05 0.0000000e+00 
0.0000000e+00 -1.1199524e-04 0.0000000e+00 
0.0000000e+00 -1.2431413e-04 0.0000000e+00 
0.0000000e+00 -1.2009741e-04 0.0000000e+00 
0.0000000e+00 -1.4731480e-04 0.0000000e+00 
0.0000000e+00 -1.1813286e-04 0.0000000e+00 
0.0000000e+00 -1.2084100e-04 0.0000000e+00 
0.0000000e+00 -1.5906509e-04 0.0000000e+00 
0.0000000e+00 -2.6418589e-04 0.0000000e+00 
0.0000000e+00 -5.3003547e-04 0.0000000e+00 
0.0000000e+00 -9.2403981e-04 0.0000000e+00 
0.0000000e+00 -1.1256048e-03 0.0000000e+00 