# vtk DataFile Version 4.0
vtk output
ASCII
DATASET UNSTRUCTURED_GRID
POINTS 1920 float
0.0000000e+00 0.0000000e+00 0.0000000e+00 
0.0000000e+00 0.0000000e+00 5.0000000e+01 
5.0000000e+00 0.0000000e+00 0.0000000e+00 
5.0000000e+00 0.0000000e+00 5.0000000e+01 
5.0000000e+00 1.0000000e+00 0.0000000e+00 
5.0000000e+00 1.0000000e+00 5.0000000e+01 
0.0000000e+00 1.0000000e+00 0.0000000e+00 
0.0000000e+00 1.0000000e+00 5.0000000e+01 
5.0000000e+00 2.0000000e+00 0.0000000e+00 
5.0000000e+00 2.0000000e+00 5.0000000e+01 
3.0000000e+00 2.0000000e+00 0.0000000e+00 
3.0000000e+00 2.0000000e+00 5.0000000e+01 
0.0000000e+00 2.0000000e+00 0.0000000e+00 
0.0000000e+00 2.0000000e+00 5.0000000e+01 
1.5000000e+00 3.0000000e+00 0.0000000e+00 
1.5000000e+00 3.0000000e+00 5.0000000e+01 
7.5000000e-01 3.0000000e+00 0.0000000e+00 
7.5000000e-01 3.0000000e+00 5.0000000e+01 
0.0000000e+00 3.0000000e+00 0.0000000e+00 
0.0000000e+00 3.0000000e+00 5.0000000e+01 
7.5000000e-01 3.0000000e+00 5.0000000e-01 
7.5000000e-01 3.0000000e+00 1.0000000e+00 
7.5000000e-01 3.0000000e+00 1.5000000e+00 
7.5000000e-01 3.0000000e+00 2.0000000e+00 
7.5000000e-01 3.0000000e+00 2.5000000e+00 
7.5000000e-01 3.0000000e+00 3.0000000e+00 
7.5000000e-01 3.0000000e+00 3.5000000e+00 
7.5000000e-01 3.0000000e+00 4.0000000e+00 
7.5000000e-01 3.0000000e+00 4.5000000e+00 
7.5000000e-01 3.0000000e+00 5.0000000e+00 
7.5000000e-01 3.0000000e+00 5.5000000e+00 
7.5000000e-01 3.0000000e+00 6.0000000e+00 
7.5000000e-01 3.0000000e+00 6.5000000e+00 
7.5000000e-01 3.0000000e+00 7.0000000e+00 
7.5000000e-01 3.0000000e+00 7.5000000e+00 
7.5000000e-01 3.0000000e+00 8.0000000e+00 
7.5000000e-01 3.0000000e+00 8.5000000e+00 
7.5000000e-01 3.0000000e+00 9.0000000e+00 
7.5000000e-01 3.0000000e+00 9.5000000e+00 
7.5000000e-01 3.0000000e+00 1.0000000e+01 
7.5000000e-01 3.0000000e+00 1.0500000e+01 
7.5000000e-01 3.0000000e+00 1.1000000e+01 
7.5000000e-01 3.0000000e+00 1.1500000e+01 
7.5000000e-01 3.0000000e+00 1.2000000e+01 
7.5000000e-01 3.0000000e+00 1.2500000e+01 
7.5000000e-01 3.0000000e+00 1.3000000e+01 
7.5000000e-01 3.0000000e+00 1.3500000e+01 
7.5000000e-01 3.0000000e+00 1.4000000e+01 
7.5000000e-01 3.0000000e+00 1.4500000e+01 
7.5000000e-01 3.0000000e+00 1.5000000e+01 
7.5000000e-01 3.0000000e+00 1.5500000e+01 
7.5000000e-01 3.0000000e+00 1.6000000e+01 
7.5000000e-01 3.0000000e+00 1.6500000e+01 
7.5000000e-01 3.0000000e+00 1.7000000e+01 
7.5000000e-01 3.0000000e+00 1.7500000e+01 
7.5000000e-01 3.0000000e+00 1.8000000e+01 
7.5000000e-01 3.0000000e+00 1.8500000e+01 
7.5000000e-01 3.0000000e+00 1.9000000e+01 
7.5000000e-01 3.0000000e+00 1.9500000e+01 
7.5000000e-01 3.0000000e+00 2.0000000e+01 
7.5000000e-01 3.0000000e+00 2.0500000e+01 
7.5000000e-01 3.0000000e+00 2.1000000e+01 
7.5000000e-01 3.0000000e+00 2.1500000e+01 
7.5000000e-01 3.0000000e+00 2.2000000e+01 
7.5000000e-01 3.0000000e+00 2.2500000e+01 
7.5000000e-01 3.0000000e+00 2.3000000e+01 
7.5000000e-01 3.0000000e+00 2.3500000e+01 
7.5000000e-01 3.0000000e+00 2.4000000e+01 
7.5000000e-01 3.0000000e+00 2.4500000e+01 
7.5000000e-01 3.0000000e+00 2.5000000e+01 
7.5000000e-01 3.0000000e+00 2.5500000e+01 
7.5000000e-01 3.0000000e+00 2.6000000e+01 
7.5000000e-01 3.0000000e+00 2.6500000e+01 
7.5000000e-01 3.0000000e+00 2.7000000e+01 
7.5000000e-01 3.0000000e+00 2.7500000e+01 
7.5000000e-01 3.0000000e+00 2.8000000e+01 
7.5000000e-01 3.0000000e+00 2.8500000e+01 
7.5000000e-01 3.0000000e+00 2.9000000e+01 
7.5000000e-01 3.0000000e+00 2.9500000e+01 
7.5000000e-01 3.0000000e+00 3.0000000e+01 
7.5000000e-01 3.0000000e+00 3.0500000e+01 
7.5000000e-01 3.0000000e+00 3.1000000e+01 
7.5000000e-01 3.0000000e+00 3.1500000e+01 
7.5000000e-01 3.0000000e+00 3.2000000e+01 
7.5000000e-01 3.0000000e+00 3.2500000e+01 
7.5000000e-01 3.0000000e+00 3.3000000e+01 
7.5000000e-01 3.0000000e+00 3.3500000e+01 
7.5000000e-01 3.0000000e+00 3.4000000e+01 
7.5000000e-01 3.0000000e+00 3.4500000e+01 
7.5000000e-01 3.0000000e+00 3.5000000e+01 
7.5000000e-01 3.0000000e+00 3.5500000e+01 
7.5000000e-01 3.0000000e+00 3.6000000e+01 
7.5000000e-01 3.0000000e+00 3.6500000e+01 
7.5000000e-01 3.0000000e+00 3.7000000e+01 
7.5000000e-01 3.0000000e+00 3.7500000e+01 
7.5000000e-01 3.0000000e+00 3.8000000e+01 
7.5000000e-01 3.0000000e+00 3.8500000e+01 
7.5000000e-01 3.0000000e+00 3.9000000e+01 
7.5000000e-01 3.0000000e+00 3.9500000e+01 
7.5000000e-01 3.0000000e+00 4.0000000e+01 
7.5000000e-01 3.0000000e+00 4.0500000e+01 
7.5000000e-01 3.0000000e+00 4.1000000e+01 
7.5000000e-01 3.0000000e+00 4.1500000e+01 
7.5000000e-01 3.0000000e+00 4.2000000e+01 
7.5000000e-01 3.0000000e+00 4.2500000e+01 
7.5000000e-01 3.0000000e+00 4.3000000e+01 
7.5000000e-01 3.0000000e+00 4.3500000e+01 
7.5000000e-01 3.0000000e+00 4.4000000e+01 
7.5000000e-01 3.0000000e+00 4.4500000e+01 
7.5000000e-01 3.0000000e+00 4.5000000e+01 
7.5000000e-01 3.0000000e+00 4.5500000e+01 
7.5000000e-01 3.0000000e+00 4.6000000e+01 
7.5000000e-01 3.0000000e+00 4.6500000e+01 
7.5000000e-01 3.0000000e+00 4.7000000e+01 
7.5000000e-01 3.0000000e+00 4.7500000e+01 
7.5000000e-01 3.0000000e+00 4.8000000e+01 
7.5000000e-01 3.0000000e+00 4.8500000e+01 
7.5000000e-01 3.0000000e+00 4.9000000e+01 
7.5000000e-01 3.0000000e+00 4.9500000e+01 
7.5000000e-01 3.0250001e+00 0.0000000e+00 
7.5000000e-01 3.0250001e+00 5.0000000e-01 
7.5000000e-01 3.0250001e+00 1.0000000e+00 
7.5000000e-01 3.0250001e+00 1.5000000e+00 
7.5000000e-01 3.0250001e+00 2.0000000e+00 
7.5000000e-01 3.0250001e+00 2.5000000e+00 
7.5000000e-01 3.0250001e+00 3.0000000e+00 
7.5000000e-01 3.0250001e+00 3.5000000e+00 
7.5000000e-01 3.0250001e+00 4.0000000e+00 
7.5000000e-01 3.0250001e+00 4.5000000e+00 
7.5000000e-01 3.0250001e+00 5.0000000e+00 
7.5000000e-01 3.0250001e+00 5.5000000e+00 
7.5000000e-01 3.0250001e+00 6.0000000e+00 
7.5000000e-01 3.0250001e+00 6.5000000e+00 
7.5000000e-01 3.0250001e+00 7.0000000e+00 
7.5000000e-01 3.0250001e+00 7.5000000e+00 
7.5000000e-01 3.0250001e+00 8.0000000e+00 
7.5000000e-01 3.0250001e+00 8.5000000e+00 
7.5000000e-01 3.0250001e+00 9.0000000e+00 
7.5000000e-01 3.0250001e+00 9.5000000e+00 
7.5000000e-01 3.0250001e+00 1.0000000e+01 
7.5000000e-01 3.0250001e+00 1.0500000e+01 
7.5000000e-01 3.0250001e+00 1.1000000e+01 
7.5000000e-01 3.0250001e+00 1.1500000e+01 
7.5000000e-01 3.0250001e+00 1.2000000e+01 
7.5000000e-01 3.0250001e+00 1.2500000e+01 
7.5000000e-01 3.0250001e+00 1.3000000e+01 
7.5000000e-01 3.0250001e+00 1.3500000e+01 
7.5000000e-01 3.0250001e+00 1.4000000e+01 
7.5000000e-01 3.0250001e+00 1.4500000e+01 
7.5000000e-01 3.0250001e+00 1.5000000e+01 
7.5000000e-01 3.0250001e+00 1.5500000e+01 
7.5000000e-01 3.0250001e+00 1.6000000e+01 
7.5000000e-01 3.0250001e+00 1.6500000e+01 
7.5000000e-01 3.0250001e+00 1.7000000e+01 
7.5000000e-01 3.0250001e+00 1.7500000e+01 
7.5000000e-01 3.0250001e+00 1.8000000e+01 
7.5000000e-01 3.0250001e+00 1.8500000e+01 
7.5000000e-01 3.0250001e+00 1.9000000e+01 
7.5000000e-01 3.0250001e+00 1.9500000e+01 
7.5000000e-01 3.0250001e+00 2.0000000e+01 
7.5000000e-01 3.0250001e+00 2.0500000e+01 
7.5000000e-01 3.0250001e+00 2.1000000e+01 
7.5000000e-01 3.0250001e+00 2.1500000e+01 
7.5000000e-01 3.0250001e+00 2.2000000e+01 
7.5000000e-01 3.0250001e+00 2.2500000e+01 
7.5000000e-01 3.0250001e+00 2.3000000e+01 
7.5000000e-01 3.0250001e+00 2.3500000e+01 
7.5000000e-01 3.0250001e+00 2.4000000e+01 
7.5000000e-01 3.0250001e+00 2.4500000e+01 
7.5000000e-01 3.0250001e+00 2.5000000e+01 
7.5000000e-01 3.0250001e+00 2.5500000e+01 
7.5000000e-01 3.0250001e+00 2.6000000e+01 
7.5000000e-01 3.0250001e+00 2.6500000e+01 
7.5000000e-01 3.0250001e+00 2.7000000e+01 
7.5000000e-01 3.0250001e+00 2.7500000e+01 
7.5000000e-01 3.0250001e+00 2.8000000e+01 
7.5000000e-01 3.0250001e+00 2.8500000e+01 
7.5000000e-01 3.0250001e+00 2.9000000e+01 
7.5000000e-01 3.0250001e+00 2.9500000e+01 
7.5000000e-01 3.0250001e+00 3.0000000e+01 
7.5000000e-01 3.0250001e+00 3.0500000e+01 
7.5000000e-01 3.0250001e+00 3.1000000e+01 
7.5000000e-01 3.0250001e+00 3.1500000e+01 
7.5000000e-01 3.0250001e+00 3.2000000e+01 
7.5000000e-01 3.0250001e+00 3.2500000e+01 
7.5000000e-01 3.0250001e+00 3.3000000e+01 
7.5000000e-01 3.0250001e+00 3.3500000e+01 
7.5000000e-01 3.0250001e+00 3.4000000e+01 
7.5000000e-01 3.0250001e+00 3.4500000e+01 
7.5000000e-01 3.0250001e+00 3.5000000e+01 
7.5000000e-01 3.0250001e+00 3.5500000e+01 
7.5000000e-01 3.0250001e+00 3.6000000e+01 
7.5000000e-01 3.0250001e+00 3.6500000e+01 
7.5000000e-01 3.0250001e+00 3.7000000e+01 
7.5000000e-01 3.0250001e+00 3.7500000e+01 
7.5000000e-01 3.0250001e+00 3.8000000e+01 
7.5000000e-01 3.0250001e+00 3.8500000e+01 
7.5000000e-01 3.0250001e+00 3.9000000e+01 
7.5000000e-01 3.0250001e+00 3.9500000e+01 
7.5000000e-01 3.0250001e+00 4.0000000e+01 
7.5000000e-01 3.0250001e+00 4.0500000e+01 
7.5000000e-01 3.0250001e+00 4.1000000e+01 
7.5000000e-01 3.0250001e+00 4.1500000e+01 
7.5000000e-01 3.0250001e+00 4.2000000e+01 
7.5000000e-01 3.0250001e+00 4.2500000e+01 
7.5000000e-01 3.0250001e+00 4.3000000e+01 
7.5000000e-01 3.0250001e+00 4.3500000e+01 
7.5000000e-01 3.0250001e+00 4.4000000e+01 
7.5000000e-01 3.0250001e+00 4.4500000e+01 
7.5000000e-01 3.0250001e+00 4.5000000e+01 
7.5000000e-01 3.0250001e+00 4.5500000e+01 
7.5000000e-01 3.0250001e+00 4.6000000e+01 
7.5000000e-01 3.0250001e+00 4.6500000e+01 
7.5000000e-01 3.0250001e+00 4.7000000e+01 
7.5000000e-01 3.0250001e+00 4.7500000e+01 
7.5000000e-01 3.0250001e+00 4.8000000e+01 
7.5000000e-01 3.0250001e+00 4.8500000e+01 
7.5000000e-01 3.0250001e+00 4.9000000e+01 
7.5000000e-01 3.0250001e+00 4.9500000e+01 
7.5000000e-01 3.0250001e+00 5.0000000e+01 
1.5000000e+00 3.0000000e+00 2.5000000e+01 
3.0000000e+00 2.0000000e+00 2.5000000e+01 
4.0000000e+00 2.0000000e+00 2.5000000e+01 
5.0000000e+00 2.0000000e+00 2.5000000e+01 
0.0000000e+00 3.0000000e+00 2.5000000e+01 
0.0000000e+00 0.0000000e+00 1.0000000e+00 
0.0000000e+00 0.0000000e+00 2.0000000e+00 
0.0000000e+00 0.0000000e+00 3.0000000e+00 
0.0000000e+00 0.0000000e+00 4.0000000e+00 
0.0000000e+00 0.0000000e+00 5.0000000e+00 
[...]
POINT_DATA 1920
FIELD FieldData 3
DISPLACEMENT 3 1920  float
0.0000000e+00 0.0000000e+00 0.0000000e+00 
0.0000000e+00 0.0000000e+00 0.0000000e+00 
0.0000000e+00 0.0000000e+00 0.0000000e+00 
0.0000000e+00 0.0000000e+00 0.0000000e+00 
-1.5172282e-07 5.4756839e-07 2.5687976e-07 
-6.6460206e-07 -3.9962009e-07 2.8533785e-07 
0.0000000e+00 -1.2047626e-06 0.0000000e+00 
0.0000000e+00 -1.4159378e-06 0.0000000e+00 
-9.5847065e-07 7.2529980e-07 2.7242615e-07 
-4.5837791e-07 -9.9447550e-07 1.5397889e-06 
-3.4046073e-07 -8.6807250e-07 1.0476344e-06 
-7.2866095e-07 1.0904788e-06 -2.8154598e-06 
0.0000000e+00 -3.6066201e-06 0.0000000e+00 
0.0000000e+00 -6.9080797e-06 0.0000000e+00 
1.5395907e-06 -6.6729335e-06 -8.0428108e-06 
1.4273795e-06 -1.0104499e-05 8.8039042e-06 
3.7099041e-06 8.0115177e-07 -1.8984612e-06 
2.5582142e-06 -1.4811934e-05 3.8132855e-06 
0.0000000e+00 -5.7566822e-06 0.0000000e+00 
0.0000000e+00 -2.4749637e-05 0.0000000e+00 
3.7596030e-06 1.7218034e-06 -4.8153447e-07 
4.9928194e-06 4.2371980e-06 2.7930450e-06 
7.8331668e-06 7.7135019e-06 7.4604582e-06 
1.0278108e-05 1.1757706e-05 1.2924759e-05 
8.7738335e-06 1.5656846e-05 1.5178680e-05 
9.5389933e-06 1.8859466e-05 1.3808546e-05 
8.0005602e-06 2.1024478e-05 1.1574433e-05 
8.5434194e-06 2.1756230e-05 7.5929574e-06 
7.0784390e-06 2.1082975e-05 7.7308869e-06 
7.4595951e-06 1.9076959e-05 8.0262835e-06 
5.5465603e-06 1.6305374e-05 8.9303312e-06 
5.1992042e-06 1.3232985e-05 5.4332008e-06 
2.1742301e-06 1.0596257e-05 3.9078677e-07 
5.3476560e-06 8.7086482e-06 -6.2906993e-06 
7.1637191e-06 8.0105619e-06 -1.1313677e-05 
1.1634079e-05 8.0799664e-06 -1.3402781e-05 
1.3360687e-05 8.6372429e-06 -1.3484253e-05 
1.4530592e-05 8.8469651e-06 -1.2374614e-05 
1.3738260e-05 8.4366620e-06 -1.1932842e-05 
1.4815563e-05 7.4180862e-06 -1.0172316e-05 
1.3280571e-05 5.9552490e-06 -9.8777200e-06 
1.2663867e-05 4.3300720e-06 -9.2994333e-06 
1.0571812e-05 2.8279228e-06 -1.0223118e-05 
9.5807027e-06 1.7476451e-06 -9.9874833e-06 
8.4181165e-06 1.8470764e-06 -1.0148933e-05 
3.0510244e-06 3.7385271e-06 -8.9930536e-06 
-2.3755870e-06 8.2805527e-06 -1.1347686e-05 
-2.8287147e-06 1.6193570e-05 -1.1513696e-05 
-9.2659144e-07 2.8070101e-05 -1.3334861e-05 
-2.9300074e-06 4.3968801e-05 -8.1890839e-06 
-4.4232061e-06 6.3088832e-05 -2.9105358e-06 
-4.4129483e-06 8.1172773e-05 1.0600285e-05 
-3.0435799e-06 8.8557397e-05 2.6296440e-05 
-7.0576525e-06 6.5221357e-05 5.7464418e-05 
-1.6230533e-05 -2.1849051e-05 8.6085303e-05 
-2.6402997e-05 -2.1459222e-04 9.5893825e-05 
-5.1025781e-05 -5.7022454e-04 1.8344335e-04 
-6.6172099e-05 -1.1432389e-03 1.5724683e-04 
-1.1162882e-04 -1.9739931e-03 2.6395911e-04 
-1.4238754e-04 -3.0140637e-03 1.3222119e-04 
-2.0259025e-04 -4.0935013e-03 2.1772506e-04 
-2.5229400e-04 -4.7329534e-03 6.9045411e-05 
-2.7508722e-04 -4.6059694e-03 2.6122420e-05 
-2.2275666e-04 -4.3028174e-03 2.0082314e-05 
-3.2088271e-04 -4.2446926e-03 2.3434517e-05 
-2.1205693e-04 -4.3766755e-03 -4.8335678e-05 
-2.1349119e-04 -4.2545786e-03 -1.7634701e-04 
-9.6180651e-05 -3.3085011e-03 -1.5696640e-04 
-9.1110211e-05 -2.1135169e-03 -2.1630248e-04 
-3.5044341e-05 -1.0790882e-03 -1.4053393e-04 
-7.4736517e-06 -3.7012863e-04 -1.5322190e-04 
8.7752005e-06 3.2380452e-05 -7.6189055e-05 
1.6754228e-05 2.0528962e-04 -5.7037039e-05 
1.8722492e-05 2.3655230e-04 -2.7820042e-05 
1.7153719e-05 1.9921469e-04 -1.0683159e-05 
1.6097403e-05 1.3870490e-04 -1.1160547e-05 
1.2150817e-05 8.2817751e-05 -4.2348479e-06 
8.5813535e-06 4.0345880e-05 -7.3806254e-06 
4.4634066e-06 1.3251645e-05 -6.0656280e-06 
3.8865783e-06 -1.5320152e-06 -1.0001966e-05 
5.1572906e-06 -7.3550477e-06 -1.3825442e-05 
6.6647840e-06 -7.5857884e-06 -1.6646700e-05 
6.4386722e-06 -4.8080637e-06 -1.6484031e-05 
8.6717682e-06 -8.6126727e-07 -1.3317101e-05 
7.9532902e-06 3.4630264e-06 -1.1006941e-05 
8.3897894e-06 8.6215978e-06 -8.4499407e-06 
8.3665273e-06 1.5706824e-05 -8.1717362e-06 
3.7379116e-06 2.5876734e-05 -4.5009247e-06 
2.1158233e-07 4.0033057e-05 -4.4948433e-06 
2.3914033e-06 5.7660727e-05 -1.5239541e-06 
9.9866838e-07 7.6994416e-05 2.0387647e-06 
-5.6163694e-06 9.2490482e-05 1.4028074e-05 
-1.1307053e-05 9.3610317e-05 2.7224600e-05 
-1.0263821e-05 5.8789617e-05 4.3625969e-05 
-2.2139964e-05 -4.5418059e-05 7.8394631e-05 
-5.8667694e-05 -2.6871939e-04 1.5380832e-04 
-6.1714301e-05 -6.6903228e-04 1.8387687e-04 
-8.0503538e-05 -1.2962335e-03 1.5434696e-04 
-1.2933055e-04 -2.1807852e-03 2.6326437e-04 
-1.5939682e-04 -3.2479248e-03 1.1678724e-04 
-2.2452105e-04 -4.2843623e-03 1.8927947e-04 
-2.4265051e-04 -4.7483719e-03 6.0284303e-05 
-2.2624708e-04 -4.5157745e-03 1.9751740e-05 
-2.2251632e-04 -4.2246990e-03 -4.8057836e-07 
-1.9431408e-04 -4.2236429e-03 -3.0340655e-06 
-2.0917208e-04 -4.3419320e-03 -9.9798810e-05 
-1.9859720e-04 -4.0321806e-03 -1.7360461e-04 
-1.6431751e-04 -2.9868549e-03 -1.2812983e-04 
-9.8407050e-05 -1.8242338e-03 -2.2503258e-04 
-7.0648959e-05 -8.7583729e-04 -1.2079584e-04 
-2.1218128e-05 -2.5138163e-04 -1.3863487e-04 
-6.7884544e-06 8.5207692e-05 -7.0194576e-05 
6.5689442e-06 2.1624830e-04 -4.9839244e-05 
6.8318200e-06 2.2487571e-04 -2.8018449e-05 
7.0161732e-06 1.7797502e-04 -1.1173841e-05 
3.0038573e-06 1.1571521e-04 -1.0006999e-05 
2.5274319e-06 5.9573740e-05 1.0262593e-06 
7.9789481e-07 1.8309944e-05 1.2541624e-06 
8.2956899e-07 -6.4692217e-06 3.3387994e-06 
0.0000000e+00 8.2304922e-07 0.0000000e+00 
0.0000000e+00 1.7416220e-06 0.0000000e+00 
0.0000000e+00 4.2298202e-06 0.0000000e+00 
0.0000000e+00 7.7370769e-06 0.0000000e+00 
0.0000000e+00 1.1759976e-05 0.0000000e+00 
0.0000000e+00 1.5658907e-05 0.0000000e+00 
0.0000000e+00 1.8876290e-05 0.0000000e+00 
0.0000000e+00 2.1021062e-05 0.0000000e+00 
0.0000000e+00 2.1769665e-05 0.0000000e+00 
0.0000000e+00 2.1075020e-05 0.0000000e+00 
0.0000000e+00 1.9094477e-05 0.0000000e+00 
0.0000000e+00 1.6305199e-05 0.0000000e+00 
0.0000000e+00 1.3261788e-05 0.0000000e+00 
0.0000000e+00 1.0603224e-05 0.0000000e+00 
0.0000000e+00 8.7624194e-06 0.0000000e+00 
0.0000000e+00 8.0207019e-06 0.0000000e+00 
0.0000000e+00 8.1236840e-06 0.0000000e+00 
0.0000000e+00 8.6252039e-06 0.0000000e+00 
0.0000000e+00 8.8436063e-06 0.0000000e+00 
0.0000000e+00 8.4408857e-06 0.0000000e+00 
0.0000000e+00 7.4235654e-06 0.0000000e+00 
0.0000000e+00 5.9689996e-06 0.0000000e+00 
0.0000000e+00 4.3391574e-06 0.0000000e+00 
0.0000000e+00 2.8104546e-06 0.0000000e+00 
0.0000000e+00 1.7568310e-06 0.0000000e+00 
0.0000000e+00 1.8374385e-06 0.0000000e+00 
0.0000000e+00 3.7450156e-06 0.0000000e+00 
0.0000000e+00 8.2903562e-06 0.0000000e+00 
0.0000000e+00 1.6223961e-05 0.0000000e+00 
0.0000000e+00 2.8122469e-05 0.0000000e+00 
0.0000000e+00 4.4146134e-05 0.0000000e+00 
0.0000000e+00 6.3369145e-05 0.0000000e+00 
0.0000000e+00 8.1730628e-05 0.0000000e+00 
0.0000000e+00 8.9250570e-05 0.0000000e+00 
0.0000000e+00 6.5751468e-05 0.0000000e+00 
0.0000000e+00 -2.0998637e-05 0.0000000e+00 
0.0000000e+00 -2.1455520e-04 0.0000000e+00 
0.0000000e+00 -5.7093549e-04 0.0000000e+00 
0.0000000e+00 -1.1476115e-03 0.0000000e+00 
0.0000000e+00 -1.9806102e-03 0.0000000e+00 
0.0000000e+00 -3.0303295e-03 0.0000000e+00 
0.0000000e+00 -4.1123992e-03 0.0000000e+00 
0.0000000e+00 -4.7627524e-03 0.0000000e+00 
0.0000000e+00 -4.6298853e-03 0.0000000e+00 
0.0000000e+00 -4.3267156e-03 0.0000000e+00 
0.0000000e+00 -4.2656614e-03 0.0000000e+00 
0.0000000e+00 -4.4092480e-03 0.0000000e+00 
0.0000000e+00 -4.2735306e-03 0.0000000e+00 
0.0000000e+00 -3.3311113e-03 0.0000000e+00 
0.0000000e+00 -2.1263529e-03 0.0000000e+00 
0.0000000e+00 -1.0879005e-03 0.0000000e+00 
0.0000000e+00 -3.7267280e-04 0.0000000e+00 
0.0000000e+00 3.2284632e-05 0.0000000e+00 
0.0000000e+00 2.0630646e-04 0.0000000e+00 
0.0000000e+00 2.3809444e-04 0.0000000e+00 
0.0000000e+00 2.0018779e-04 0.0000000e+00 
0.0000000e+00 1.3966311e-04 0.0000000e+00 
0.0000000e+00 8.3167535e-05 0.0000000e+00 
0.0000000e+00 4.0572406e-05 0.0000000e+00 
0.0000000e+00 1.3259848e-05 0.0000000e+00 
0.0000000e+00 -1.5389792e-06 0.0000000e+00 
0.0000000e+00 -7.3895476e-06 0.0000000e+00 
0.0000000e+00 -7.6163806e-06 0.0000000e+00 
0.0000000e+00 -4.8547199e-06 0.0000000e+00 
0.0000000e+00 -9.2042961e-07 0.0000000e+00 
0.0000000e+00 3.4349916e-06 0.0000000e+00 
0.0000000e+00 8.6232221e-06 0.0000000e+00 
0.0000000e+00 1.5727215e-05 0.0000000e+00 
0.0000000e+00 2.5951231e-05 0.0000000e+00 
0.0000000e+00 4.0107891e-05 0.0000000e+00 
0.0000000e+00 5.7862049e-05 0.0000000e+00 
0.0000000e+00 7.7274490e-05 0.0000000e+00 
0.0000000e+00 9.3071620e-05 0.0000000e+00 
0.0000000e+00 9.4272014e-05 0.0000000e+00 
0.0000000e+00 5.9695540e-05 0.0000000e+00 
0.0000000e+00 -4.4930515e-05 0.0000000e+00 
0.0000000e+00 -2.6896337e-04 0.0000000e+00 
0.0000000e+00 -6.7002414e-04 0.0000000e+00 
0.0000000e+00 -1.3014722e-03 0.0000000e+00 
0.0000000e+00 -2.1883720e-03 0.0000000e+00 
0.0000000e+00 -3.2657848e-03 0.0000000e+00 
0.0000000e+00 -4.3045520e-03 0.0000000e+00 
0.0000000e+00 -4.7785314e-03 0.0000000e+00 
0.0000000e+00 -4.5384197e-03 0.0000000e+00 
0.0000000e+00 -4.2510270e-03 0.0000000e+00 
0.0000000e+00 -4.2442721e-03 0.0000000e+00 
0.0000000e+00 -4.3703830e-03 0.0000000e+00 
0.0000000e+00 -4.0547634e-03 0.0000000e+00 
0.0000000e+00 -3.0083959e-03 0.0000000e+00 
0.0000000e+00 -1.8355327e-03 0.0000000e+00 
0.0000000e+00 -8.8264851e-04 0.0000000e+00 
0.0000000e+00 -2.5331989e-04 0.0000000e+00 
0.0000000e+00 8.5562977e-05 0.0000000e+00 
0.0000000e+00 2.1730897e-04 0.0000000e+00 
0.0000000e+00 2.2634570e-04 0.0000000e+00 
0.0000000e+00 1.7897377e-04 0.0000000e+00 
0.0000000e+00 1.1634774e-04 0.0000000e+00 
0.0000000e+00 5.9915379e-05 0.0000000e+00 
0.0000000e+00 1.8365919e-05 0.0000000e+00 
0.0000000e+00 -6.5033009e-06 0.0000000e+00 
0.0000000e+00 -1.4798572e-05 0.0000000e+00 
-1.5890067e-04 -4.1371252e-04 -2.4843047e-04 
2.0561138e-05 -3.3759581e-05 1.5999654e-05 
2.0151138e-05 -9.2043738e-06 1.3489549e-05 
1.4116144e-05 -2.2808094e-06 1.3527498e-05 
0.0000000e+00 -2.3874776e-04 0.0000000e+00 
0.0000000e+00 0.0000000e+00 0.0000000e+00 
0.0000000e+00 0.0000000e+00 0.0000000e+00 
0.0000000e+00 0.0000000e+00 0.0000000e+00 
0.0000000e+00 0.0000000e+00 0.0000000e+00 
0.0000000e+00 0.0000000e+00 0.0000000e+00 
0.0000000e+00 0.0000000e+00 0.0000000e+00 
0.0000000e+00 0.0000000e+00 0.0000000e+00 
0.0000000e+00 0.0000000e+00 0.0000000e+00 
0.0000000e+00 0.0000000e+00 0.0000000e+00 
0.0000000e+00 0.0000000e+00 0.0000000e+00 
0.0000000e+00 0.0000000e+00 0.0000000e+00 
0.0000000e+00 0.0000000e+00 0.0000000e+00 
0.0000000e+00 0.0000000e+00 0.0000000e+00 
0.0000000e+00 0.0000000e+00 0.0000000e+00 
0.0000000e+00 0.0000000e+00 0.0000000e+00 
0.0000000e+00 0.0000000e+00 0.0000000e+00 
0.0000000e+00 0.0000000e+00 0.0000000e+00 
0.0000000e+00 0.0000000e+00 0.0000000e+00 
0.0000000e+00 0.0000000e+00 0.0000000e+00 
0.0000000e+00 0.0000000e+00 0.0000000e+00 
0.0000000e+00 0.0000000e+00 0.0000000e+00 
0.0000000e+00 0.0000000e+00 0.0000000e+00 
0.0000000e+00 0.0000000e+00 0.0000000e+00 
0.0000000e+00 0.0000000e+00 0.0000000e+00 
0.0000000e+00 0.0000000e+00 0.0000000e+00 
0.0000000e+00 0.0000000e+00 0.0000000e+00 
0.0000000e+00 0.0000000e+00 0.0000000e+00 
0.0000000e+00 0.0000000e+00 0.0000000e+00 
0.0000000e+00 0.0000000e+00 0.0000000e+00 
0.0000000e+00 0.0000000e+00 0.0000000e+00 
0.0000000e+00 0.0000000e+00 0.0000000e+00 
0.0000000e+00 0.0000000e+00 0.0000000e+00 
0.0000000e+00 0.0000000e+00 0.0000000e+00 
0.0000000e+00 0.0000000e+00 0.0000000e+00 
0.0000000e+00 0.0000000e+00 0.0000000e+00 
0.0000000e+00 0.0000000e+00 0.0000000e+00 
0.0000000e+00 0.0000000e+00 0.0000000e+00 
0.0000000e+00 0.0000000e+00 0.0000000e+00 
0.0000000e+00 0.0000000e+00 0.0000000e+00 
0.0000000e+00 0.0000000e+00 0.0000000e+00 
0.0000000e+00 0.0000000e+00 0.0000000e+00 
0.0000000e+00 0.0000000e+00 0.0000000e+00 
0.0000000e+00 0.0000000e+00 0.0000000e+00 
0.0000000e+00 0.0000000e+00 0.0000000e+00 
0.0000000e+00 0.0000000e+00 0.0000000e+00 
0.0000000e+00 0.0000000e+00 0.0000000e+00 
0.0000000e+00 0.0000000e+00 0.0000000e+00 
0.0000000e+00 0.0000000e+00 0.0000000e+00 
0.0000000e+00 0.0000000e+00 0.0000000e+00 
0.0000000e+00 0.0000000e+00 0.0000000e+00 
0.0000000e+00 0.0000000e+00 0.0000000e+00 
0.0000000e+00 0.0000000e+00 0.0000000e+00 
0.0000000e+00 0.0000000e+00 0.0000000e+00 
0.0000000e+00 0.0000000e+00 0.0000000e+00 
0.0000000e+00 0.0000000e+00 0.0000000e+00 
0.0000000e+00 0.0000000e+00 0.0000000e+00 
0.0000000e+00 0.0000000e+00 0.0000000e+00 
0.0000000e+00 0.0000000e+00 0.0000000e+00 
0.0000000e+00 0.0000000e+00 0.0000000e+00 
0.0000000e+00 0.0000000e+00 0.0000000e+00 
0.0000000e+00 0.0000000e+00 0.0000000e+00 
0.0000000e+00 0.0000000e+00 0.0000000e+00 
0.0000000e+00 0.0000000e+00 0.0000000e+00 
0.0000000e+00 0.0000000e+00 0.0000000e+00 
0.0000000e+00 0.0000000e+00 0.0000000e+00 
0.0000000e+00 0.0000000e+00 0.0000000e+00 
0.0000000e+00 0.0000000e+00 0.0000000e+00 
0.0000000e+00 0.0000000e+00 0.0000000e+00 
0.0000000e+00 0.0000000e+00 0.0000000e+00 
0.0000000e+00 0.0000000e+00 0.0000000e+00 
0.0000000e+00 0.0000000e+00 0.0000000e+00 
0.0000000e+00 0.0000000e+00 0.0000000e+00 
0.0000000e+00 0.0000000e+00 0.0000000e+00 
0.0000000e+00 0.0000000e+00 0.0000000e+00 
0.0000000e+00 0.0000000e+00 0.0000000e+00 
0.0000000e+00 0.0000000e+00 0.0000000e+00 
0.0000000e+00 0.0000000e+00 0.0000000e+00 
0.0000000e+00 0.0000000e+00 0.0000000e+00 
0.0000000e+00 0.0000000e+00 0.0000000e+00 
0.0000000e+00 0.0000000e+00 0.0000000e+00 
0.0000000e+00 0.0000000e+00 0.0000000e+00 
0.0000000e+00 0.0000000e+00 0.0000000e+00 
0.0000000e+00 0.0000000e+00 0.0000000e+00 
0.0000000e+00 0.0000000e+00 0.0000000e+00 
0.0000000e+00 0.0000000e+00 0.0000000e+00 
0.0000000e+00 0.0000000e+00 0.0000000e+00 
0.0000000e+00 0.0000000e+00 0.0000000e+00 
0.0000000e+00 0.0000000e+00 0.0000000e+00 
0.0000000e+00 0.0000000e+00 0.0000000e+00 
0.0000000e+00 0.0000000e+00 0.0000000e+00 
0.0000000e+00 0.0000000e+00 0.0000000e+00 
0.0000000e+00 0.0000000e+00 0.0000000e+00 
0.0000000e+00 0.0000000e+00 0.0000000e+00 
0.0000000e+00 0.0000000e+00 0.0000000e+00 
0.0000000e+00 0.0000000e+00 0.0000000e+00 
0.0000000e+00 0.0000000e+00 0.0000000e+00 
0.0000000e+00 0.0000000e+00 0.0000000e+00 
0.0000000e+00 0.0000000e+00 0.0000000e+00 
0.0000000e+00 0.0000000e+00 0.0000000e+00 
0.0000000e+00 0.0000000e+00 0.0000000e+00 
0.0000000e+00 0.0000000e+00 0.0000000e+00 
0.0000000e+00 0.0000000e+00 0.0000000e+00 
0.0000000e+00 0.0000000e+00 0.0000000e+00 
0.0000000e+00 0.0000000e+00 0.0000000e+00 
0.0000000e+00 0.0000000e+00 0.0000000e+00 
0.0000000e+00 0.0000000e+00 0.0000000e+00 
-4.7653725e-08 5.0267062e-07 1.3772744e-07 
5.0370465e-07 3.6232402e-07 3.9723088e-07 
1.1128757e-06 2.1408155e-07 8.3801206e-07 
1.4978958e-06 1.6362770e-07 9.9375222e-07 
1.6622271e-06 -6.7382764e-08 9.2805135e-07 
1.6280193e-06 -2.2958795e-07 6.4773434e-07 
1.5937502e-06 2.7753243e-08 9.6471744e-08 
1.4022587e-06 2.4011280e-07 -7.8753442e-07 
1.3602955e-06 2.4998971e-07 -1.1001241e-06 
1.5454423e-06 2.3311136e-07 -3.3440261e-07 
1.3079841e-06 1.3425380e-07 5.2591025e-07 
7.9043406e-07 -1.6316928e-07 4.6650732e-07 
1.4514849e-07 -6.0002827e-07 -3.0970494e-07 
-7.1987763e-08 3.3479205e-07 -1.6156630e-06 
5.0305397e-07 5.0108673e-07 -4.0412824e-06 
2.1054973e-06 -5.0134230e-07 -7.3611391e-06 
8.9811210e-06 -4.3369955e-06 -1.1674216e-05 
1.9242834e-05 -6.6806983e-06 -1.4068197e-05 
2.7761545e-05 -9.5373407e-06 -1.3963825e-05 
3.8641308e-05 -1.3554601e-05 -1.0760220e-05 
4.5301233e-05 -1.4087357e-05 -4.6322234e-06 
4.5371111e-05 -1.4569767e-05 4.9650121e-06 
4.0332365e-05 -1.3953120e-05 1.2040980e-05 
3.1519376e-05 -1.0124450e-05 1.5749705e-05 
2.1064532e-05 -5.6358617e-06 1.4496700e-05 
1.1272449e-05 -3.1282718e-06 1.1120894e-05 
4.7062113e-06 -1.8641841e-06 6.7249907e-06 
1.6541690e-06 -7.3165808e-07 2.2760983e-06 
8.4598321e-07 2.0039259e-07 3.1284364e-07 
4.1775202e-08 4.8977819e-07 -1.9088712e-07 
-7.7487920e-07 5.1852601e-07 1.9506373e-08 
-1.0371959e-06 5.8068031e-07 6.3533598e-08 
-9.8363807e-07 7.1436534e-07 -3.6016448e-07 
-1.4667316e-07 8.3275256e-07 -1.3921906e-06 
1.0741178e-06 3.6058879e-07 -2.7477140e-06 
4.3174064e-06 -8.1587530e-07 -6.0723964e-06 
1.0181317e-05 -4.0520249e-06 -1.0161590e-05 
2.0553893e-05 -8.8404131e-06 -1.3258522e-05 
3.1311320e-05 -1.3264759e-05 -1.2740229e-05 
4.0121009e-05 -1.6391203e-05 -9.1376342e-06 
4.7322312e-05 -1.6962640e-05 -3.0067336e-06 
4.6786521e-05 -1.5612284e-05 6.1073506e-06 
3.9735216e-05 -1.3140772e-05 1.2162121e-05 
2.8315615e-05 -9.0937283e-06 1.5406473e-05 
1.5086402e-05 -4.5994066e-06 1.4268807e-05 
1.0233470e-05 -3.2904934e-06 1.0408371e-05 
4.0751997e-06 -1.0082855e-06 6.2647414e-06 
1.1504749e-06 -2.7549734e-07 2.5394522e-06 
-1.2634503e-07 2.7543322e-07 4.2936520e-07 
0.0000000e+00 -4.4719468e-06 0.0000000e+00 
0.0000000e+00 -7.5643966e-06 0.0000000e+00 
0.0000000e+00 -8.6513282e-06 0.0000000e+00 
0.0000000e+00 -8.8080606e-06 0.0000000e+00 
0.0000000e+00 -8.4718231e-06 0.0000000e+00 
0.0000000e+00 -9.4844918e-06 0.0000000e+00 
0.0000000e+00 -1.1948920e-05 0.0000000e+00 
0.0000000e+00 -1.3289636e-05 0.0000000e+00 
0.0000000e+00 -1.2495240e-05 0.0000000e+00 
0.0000000e+00 -1.0667379e-05 0.0000000e+00 
0.0000000e+00 -9.2724322e-06 0.0000000e+00 
0.0000000e+00 -5.2825908e-06 0.0000000e+00 
0.0000000e+00 -3.4261980e-06 0.0000000e+00 
0.0000000e+00 -3.0664683e-07 0.0000000e+00 
0.0000000e+00 2.5190959e-06 0.0000000e+00 
0.0000000e+00 3.9323049e-06 0.0000000e+00 
0.0000000e+00 -1.1571855e-05 0.0000000e+00 
0.0000000e+00 -7.1638657e-05 0.0000000e+00 
0.0000000e+00 -1.8469716e-04 0.0000000e+00 
0.0000000e+00 -3.9486948e-04 0.0000000e+00 
0.0000000e+00 -4.9068080e-04 0.0000000e+00 
0.0000000e+00 -5.1895907e-04 0.0000000e+00 
0.0000000e+00 -5.1463343e-04 0.0000000e+00 
0.0000000e+00 -3.4803906e-04 0.0000000e+00 
0.0000000e+00 -1.4800351e-04 0.0000000e+00 
0.0000000e+00 -2.6521122e-05 0.0000000e+00 
0.0000000e+00 1.7618773e-05 0.0000000e+00 
0.0000000e+00 1.6473274e-05 0.0000000e+00 
0.0000000e+00 1.1272713e-06 0.0000000e+00 
0.0000000e+00 -7.1777872e-06 0.0000000e+00 
0.0000000e+00 -9.3184308e-06 0.0000000e+00 
0.0000000e+00 -7.8723169e-06 0.0000000e+00 
0.0000000e+00 -5.3594176e-06 0.0000000e+00 
0.0000000e+00 -2.7213641e-06 0.0000000e+00 
0.0000000e+00 2.3549760e-06 0.0000000e+00 
0.0000000e+00 1.3890915e-06 0.0000000e+00 
0.0000000e+00 -1.9594092e-05 0.0000000e+00 
0.0000000e+00 -6.6265748e-05 0.0000000e+00 
0.0000000e+00 -2.3445452e-04 0.0000000e+00 
0.0000000e+00 -3.6253006e-04 0.0000000e+00 
0.0000000e+00 -4.9204123e-04 0.0000000e+00 
0.0000000e+00 -5.0751923e-04 0.0000000e+00 
0.0000000e+00 -4.4929417e-04 0.0000000e+00 
0.0000000e+00 -3.0068649e-04 0.0000000e+00 
0.0000000e+00 -1.3271288e-04 0.0000000e+00 
0.0000000e+00 -1.9232773e-05 0.0000000e+00 
0.0000000e+00 1.8639910e-05 0.0000000e+00 
0.0000000e+00 1.4672762e-05 0.0000000e+00 
0.0000000e+00 5.6211034e-06 0.0000000e+00 
-2.7904079e-07 -5.9136209e-08 2.9374294e-07 
-1.8264268e-07 -1.1494573e-07 1.0083680e-06 
6.3530382e-07 4.7909282e-07 2.2914869e-06 
1.4145676e-06 -5.1627472e-07 2.4033493e-06 
-1.0754835e-06 2.5758106e-07 -7.4995882e-07 
-1.1341508e-06 1.0915903e-06 -2.9338569e-06 
-3.2454230e-07 2.0998414e-06 -4.6543232e-06 
9.9319311e-07 4.0022121e-07 -4.3369846e-06 
-9.5330051e-07 -2.1826126e-07 9.0801814e-07 
-9.5550968e-07 1.3335896e-09 -6.1135921e-07 
9.7144596e-07 -2.3164091e-06 4.0260552e-06 
4.7050975e-07 -9.2255198e-07 2.4273286e-06 
0.0000000e+00 -7.5609396e-06 0.0000000e+00 
0.0000000e+00 -1.0545882e-05 0.0000000e+00 
0.0000000e+00 -1.3131195e-05 0.0000000e+00 
0.0000000e+00 -1.2486627e-05 0.0000000e+00 
0.0000000e+00 -1.2288227e-05 0.0000000e+00 
0.0000000e+00 -1.5045829e-05 0.0000000e+00 
0.0000000e+00 -1.9979616e-05 0.0000000e+00 
0.0000000e+00 -2.2427448e-05 0.0000000e+00 
0.0000000e+00 -2.1038200e-05 0.0000000e+00 
0.0000000e+00 -1.8562734e-05 0.0000000e+00 
0.0000000e+00 -1.4291049e-05 0.0000000e+00 
0.0000000e+00 -9.2174978e-06 0.0000000e+00 
0.0000000e+00 -4.4250078e-06 0.0000000e+00 
0.0000000e+00 1.0313448e-06 0.0000000e+00 