# vtk DataFile Version 4.0
vtk output
ASCII
DATASET UNSTRUCTURED_GRID
POINTS 1920 float
0.0000000e+00 0.0000000e+00 0.0000000e+00 
0.0000000e+00 0.0000000e+00 5.0000000e+01 
5.0000000e+00 0.0000000e+00 0.0000000e+00 
5.0000000e+00 0.0000000e+00 5.0000000e+01 
5.0000000e+00 1.0000000e+00 0.0000000e+00 
5.0000000e+00 1.0000000e+00 5.0000000e+01 
0.0000000e+00 1.0000000e+00 0.0000000e+00 
0.0000000e+00 1.0000000e+00 5.0000000e+01 
5.0000000e+00 2.0000000e+00 0.0000000e+00 
5.0000000e+00 2.0000000e+00 5.0000000e+01 
3.0000000e+00 2.0000000e+00 0.0000000e+00 
3.0000000e+00 2.0000000e+00 5.0000000e+01 
0.0000000e+00 2.0000000e+00 0.0000000e+00 
0.0000000e+00 2.0000000e+00 5.0000000e+01 
1.5000000e+00 3.0000000e+00 0.0000000e+00 
1.5000000e+00 3.0000000e+00 5.0000000e+01 
7.5000000e-01 3.0000000e+00 0.0000000e+00 
7.5000000e-01 3.0000000e+00 5.0000000e+01 
0.0000000e+00 3.0000000e+00 0.0000000e+00 
0.0000000e+00 3.0000000e+00 5.0000000e+01 
7.5000000e-01 3.0000000e+00 5.0000000e-01 
7.5000000e-01 3.0000000e+00 1.0000000e+00 
7.5000000e-01 3.0000000e+00 1.5000000e+00 
7.5000000e-01 3.0000000e+00 2.0000000e+00 
7.5000000e-01 3.0000000e+00 2.5000000e+00 
7.5000000e-01 3.0000000e+00 3.0000000e+00 
7.5000000e-01 3.0000000e+00 3.5000000e+00 
7.5000000e-01 3.0000000e+00 4.0000000e+00 
7.5000000e-01 3.0000000e+00 4.5000000e+00 
7.5000000e-01 3.0000000e+00 5.0000000e+00 
7.5000000e-01 3.0000000e+00 5.5000000e+00 
7.5000000e-01 3.0000000e+00 6.0000000e+00 
7.5000000e-01 3.0000000e+00 6.5000000e+00 
7.5000000e-01 3.0000000e+00 7.0000000e+00 
7.5000000e-01 3.0000000e+00 7.5000000e+00 
7.5000000e-01 3.0000000e+00 8.0000000e+00 
7.5000000e-01 3.0000000e+00 8.5000000e+00 
7.5000000e-01 3.0000000e+00 9.0000000e+00 
7.5000000e-01 3.0000000e+00 9.5000000e+00 
7.5000000e-01 3.0000000e+00 1.0000000e+01 
7.5000000e-01 3.0000000e+00 1.0500000e+01 
7.5000000e-01 3.0000000e+00 1.1000000e+01 
7.5000000e-01 3.0000000e+00 1.1500000e+01 
7.5000000e-01 3.0000000e+00 1.2000000e+01 
7.5000000e-01 3.0000000e+00 1.2500000e+01 
7.5000000e-01 3.0000000e+00 1.3000000e+01 
7.5000000e-01 3.0000000e+00 1.3500000e+01 
7.5000000e-01 3.0000000e+00 1.4000000e+01 
7.5000000e-01 3.0000000e+00 1.4500000e+01 
7.5000000e-01 3.0000000e+00 1.5000000e+01 
7.5000000e-01 3.0000000e+00 1.5500000e+01 
7.5000000e-01 3.0000000e+00 1.6000000e+01 
7.5000000e-01 3.0000000e+00 1.6500000e+01 
7.5000000e-01 3.0000000e+00 1.7000000e+01 
7.5000000e-01 3.0000000e+00 1.7500000e+01 
7.5000000e-01 3.0000000e+00 1.8000000e+01 
7.5000000e-01 3.0000000e+00 1.8500000e+01 
7.5000000e-01 3.0000000e+00 1.9000000e+01 
7.5000000e-01 3.0000000e+00 1.9500000e+01 
7.5000000e-01 3.0000000e+00 2.0000000e+01 
7.5000000e-01 3.0000000e+00 2.0500000e+01 
7.5000000e-01 3.0000000e+00 2.1000000e+01 
7.5000000e-01 3.0000000e+00 2.1500000e+01 
7.5000000e-01 3.0000000e+00 2.2000000e+01 
7.5000000e-01 3.0000000e+00 2.2500000e+01 
7.5000000e-01 3.0000000e+00 2.3000000e+01 
7.5000000e-01 3.0000000e+00 2.3500000e+01 
7.5000000e-01 3.0000000e+00 2.4000000e+01 
7.5000000e-01 3.0000000e+00 2.4500000e+01 
7.5000000e-01 3.0000000e+00 2.5000000e+01 
7.5000000e-01 3.0000000e+00 2.5500000e+01 
7.5000000e-01 3.0000000e+00 2.6000000e+01 
7.5000000e-01 3.0000000e+00 2.6500000e+01 
7.5000000e-01 3.0000000e+00 2.7000000e+01 
7.5000000e-01 3.0000000e+00 2.7500000e+01 
7.5000000e-01 3.0000000e+00 2.8000000e+01 
7.5000000e-01 3.0000000e+00 2.8500000e+01 
7.5000000e-01 3.0000000e+00 2.9000000e+01 
7.5000000e-01 3.0000000e+00 2.9500000e+01 
7.5000000e-01 3.0000000e+00 3.0000000e+01 
7.5000000e-01 3.0000000e+00 3.0500000e+01 
7.5000000e-01 3.0000000e+00 3.1000000e+01 
7.5000000e-01 3.0000000e+00 3.1500000e+01 
7.5000000e-01 3.0000000e+00 3.2000000e+01 
7.5000000e-01 3.0000000e+00 3.2500000e+01 
7.5000000e-01 3.0000000e+00 3.3000000e+01 
7.5000000e-01 3.0000000e+00 3.3500000e+01 
7.5000000e-01 3.0000000e+00 3.4000000e+01 
7.5000000e-01 3.0000000e+00 3.4500000e+01 
7.5000000e-01 3.0000000e+00 3.5000000e+01 
7.5000000e-01 3.0000000e+00 3.5500000e+01 
7.5000000e-01 3.0000000e+00 3.6000000e+01 
7.5000000e-01 3.0000000e+00 3.6500000e+01 
7.5000000e-01 3.0000000e+00 3.7000000e+01 
7.5000000e-01 3.0000000e+00 3.7500000e+01 
7.5000000e-01 3.0000000e+00 3.8000000e+01 
7.5000000e-01 3.0000000e+00 3.8500000e+01 
7.5000000e-01 3.0000000e+00 3.9000000e+01 
7.5000000e-01 3.0000000e+00 3.9500000e+01 
7.5000000e-01 3.0000000e+00 4.0000000e+01 
7.5000000e-01 3.0000000e+00 4.0500000e+01 
7.5000000e-01 3.0000000e+00 4.1000000e+01 
7.5000000e-01 3.0000000e+00 4.1500000e+01 
7.5000000e-01 3.0000000e+00 4.2000000e+01 
7.5000000e-01 3.0000000e+00 4.2500000e+01 
7.5000000e-01 3.0000000e+00 4.3000000e+01 
7.5000000e-01 3.0000000e+00 4.3500000e+01 
7.5000000e-01 3.0000000e+00 4.4000000e+01 
7.5000000e-01 3.0000000e+00 4.4500000e+01 
7.5000000e-01 3.0000000e+00 4.5000000e+01 
7.5000000e-01 3.0000000e+00 4.5500000e+01 
7.5000000e-01 3.0000000e+00 4.6000000e+01 
7.5000000e-01 3.0000000e+00 4.6500000e+01 
7.5000000e-01 3.0000000e+00 4.7000000e+01 
7.5000000e-01 3.0000000e+00 4.7500000e+01 
7.5000000e-01 3.0000000e+00 4.8000000e+01 
7.5000000e-01 3.0000000e+00 4.8500000e+01 
7.5000000e-01 3.0000000e+00 4.9000000e+01 
7.5000000e-01 3.0000000e+00 4.9500000e+01 
7.5000000e-01 3.0250001e+00 0.0000000e+00 
7.5000000e-01 3.0250001e+00 5.0000000e-01 
7.5000000e-01 3.0250001e+00 1.0000000e+00 
7.5000000e-01 3.0250001e+00 1.5000000e+00 
7.5000000e-01 3.0250001e+00 2.0000000e+00 
7.5000000e-01 3.0250001e+00 2.5000000e+00 
7.5000000e-01 3.0250001e+00 3.0000000e+00 
7.5000000e-01 3.0250001e+00 3.5000000e+00 
7.5000000e-01 3.0250001e+00 4.0000000e+00 
7.5000000e-01 3.0250001e+00 4.5000000e+00 
7.5000000e-01 3.0250001e+00 5.0000000e+00 
7.5000000e-01 3.0250001e+00 5.5000000e+00 
7.5000000e-01 3.0250001e+00 6.0000000e+00 
7.5000000e-01 3.0250001e+00 6.5000000e+00 
7.5000000e-01 3.0250001e+00 7.0000000e+00 
7.5000000e-01 3.0250001e+00 7.5000000e+00 
7.5000000e-01 3.0250001e+00 8.0000000e+00 
7.5000000e-01 3.0250001e+00 8.5000000e+00 
7.5000000e-01 3.0250001e+00 9.0000000e+00 
7.5000000e-01 3.0250001e+00 9.5000000e+00 
7.5000000e-01 3.0250001e+00 1.0000000e+01 
7.5000000e-01 3.0250001e+00 1.0500000e+01 
7.5000000e-01 3.0250001e+00 1.1000000e+01 
7.5000000e-01 3.0250001e+00 1.1500000e+01 
7.5000000e-01 3.0250001e+00 1.2000000e+01 
7.5000000e-01 3.0250001e+00 1.2500000e+01 
7.5000000e-01 3.0250001e+00 1.3000000e+01 
7.5000000e-01 3.0250001e+00 1.3500000e+01 
7.5000000e-01 3.0250001e+00 1.4000000e+01 
7.5000000e-01 3.0250001e+00 1.4500000e+01 
7.5000000e-01 3.0250001e+00 1.5000000e+01 
7.5000000e-01 3.0250001e+00 1.5500000e+01 
7.5000000e-01 3.0250001e+00 1.6000000e+01 
7.5000000e-01 3.0250001e+00 1.6500000e+01 
7.5000000e-01 3.0250001e+00 1.7000000e+01 
7.5000000e-01 3.0250001e+00 1.7500000e+01 
7.5000000e-01 3.0250001e+00 1.8000000e+01 
7.5000000e-01 3.0250001e+00 1.8500000e+01 
7.5000000e-01 3.0250001e+00 1.9000000e+01 
7.5000000e-01 3.0250001e+00 1.9500000e+01 
7.5000000e-01 3.0250001e+00 2.0000000e+01 
7.5000000e-01 3.0250001e+00 2.0500000e+01 
7.5000000e-01 3.0250001e+00 2.1000000e+01 
7.5000000e-01 3.0250001e+00 2.1500000e+01 
7.5000000e-01 3.0250001e+00 2.2000000e+01 
7.5000000e-01 3.0250001e+00 2.2500000e+01 
7.5000000e-01 3.0250001e+00 2.3000000e+01 
7.5000000e-01 3.0250001e+00 2.3500000e+01 
7.5000000e-01 3.0250001e+00 2.4000000e+01 
7.5000000e-01 3.0250001e+00 2.4500000e+01 
7.5000000e-01 3.0250001e+00 2.5000000e+01 
7.5000000e-01 3.0250001e+00 2.5500000e+01 
7.5000000e-01 3.0250001e+00 2.6000000e+01 
7.5000000e-01 3.0250001e+00 2.6500000e+01 
7.5000000e-01 3.0250001e+00 2.7000000e+01 
7.5000000e-01 3.0250001e+00 2.7500000e+01 
7.5000000e-01 3.0250001e+00 2.8000000e+01 
7.5000000e-01 3.0250001e+00 2.8500000e+01 
7.5000000e-01 3.0250001e+00 2.9000000e+01 
7.5000000e-01 3.0250001e+00 2.9500000e+01 
7.5000000e-01 3.0250001e+00 3.0000000e+01 
7.5000000e-01 3.0250001e+00 3.0500000e+01 
7.5000000e-01 3.0250001e+00 3.1000000e+01 
7.5000000e-01 3.0250001e+00 3.1500000e+01 
7.5000000e-01 3.0250001e+00 3.2000000e+01 
7.5000000e-01 3.0250001e+00 3.2500000e+01 
7.5000000e-01 3.0250001e+00 3.3000000e+01 
7.5000000e-01 3.0250001e+00 3.3500000e+01 
7.5000000e-01 3.0250001e+00 3.4000000e+01 
7.5000000e-01 3.0250001e+00 3.4500000e+01 
7.5000000e-01 3.0250001e+00 3.5000000e+01 
7.5000000e-01 3.0250001e+00 3.5500000e+01 
7.5000000e-01 3.0250001e+00 3.6000000e+01 
7.5000000e-01 3.0250001e+00 3.6500000e+01 
7.5000000e-01 3.0250001e+00 3.7000000e+01 
7.5000000e-01 3.0250001e+00 3.7500000e+01 
7.5000000e-01 3.0250001e+00 3.8000000e+01 
7.5000000e-01 3.0250001e+00 3.8500000e+01 
7.5000000e-01 3.0250001e+00 3.9000000e+01 
7.5000000e-01 3.0250001e+00 3.9500000e+01 
7.5000000e-01 3.0250001e+00 4.0000000e+01 
7.5000000e-01 3.0250001e+00 4.0500000e+01 
7.5000000e-01 3.0250001e+00 4.1000000e+01 
7.5000000e-01 3.0250001e+00 4.1500000e+01 
7.5000000e-01 3.0250001e+00 4.2000000e+01 
7.5000000e-01 3.0250001e+00 4.2500000e+01 
7.5000000e-01 3.0250001e+00 4.3000000e+01 
7.5000000e-01 3.0250001e+00 4.3500000e+01 
7.5000000e-01 3.0250001e+00 4.4000000e+01 
7.5000000e-01 3.0250001e+00 4.4500000e+01 
7.5000000e-01 3.0250001e+00 4.5000000e+01 
7.5000000e-01 3.0250001e+00 4.5500000e+01 
7.5000000e-01 3.0250001e+00 4.6000000e+01 
7.5000000e-01 3.0250001e+00 4.6500000e+01 
7.5000000e-01 3.0250001e+00 4.7000000e+01 
7.5000000e-01 3.0250001e+00 4.7500000e+01 
7.5000000e-01 3.0250001e+00 4.8000000e+01 
7.5000000e-01 3.0250001e+00 4.8500000e+01 
7.5000000e-01 3.0250001e+00 4.9000000e+01 
7.5000000e-01 3.0250001e+00 4.9500000e+01 
7.5000000e-01 3.0250001e+00 5.0000000e+01 
1.5000000e+00 3.0000000e+00 2.5000000e+01 
3.0000000e+00 2.0000000e+00 2.5000000e+01 
4.0000000e+00 2.0000000e+00 2.5000000e+01 
5.0000000e+00 2.0000000e+00 2.5000000e+01 
0.0000000e+00 3.0000000e+00 2.5000000e+01 
0.0000000e+00 0.0000000e+00 1.0000000e+00 
0.0000000e+00 0.0000000e+00 2.0000000e+00 
0.0000000e+00 0.0000000e+00 3.0000000e+00 
0.0000000e+00 0.0000000e+00 4.0000000e+00 
0.0000000e+00 0.0000000e+00 5.0000000e+00 
[...]
POINT_DATA 1920
FIELD FieldData 3
DISPLACEMENT 3 1920  float
0.0000000e+00 0.0000000e+00 0.0000000e+00 
0.0000000e+00 0.0000000e+00 0.0000000e+00 
0.0000000e+00 0.0000000e+00 0.0000000e+00 
0.0000000e+00 0.0000000e+00 0.0000000e+00 
-1.1138535e-07 5.2879579e-07 2.5163675e-07 
-6.4519156e-07 -3.6908466e-07 2.9634174e-07 
0.0000000e+00 -1.1629184e-06 0.0000000e+00 
0.0000000e+00 -1.4471949e-06 0.0000000e+00 
-9.0660342e-07 7.0767686e-07 2.8317677e-07 
-4.4825006e-07 -9.5070556e-07 1.5360530e-06 
-2.9684315e-07 -9.0470422e-07 1.0547770e-06 
-7.1827520e-07 1.0375711e-06 -2.7972760e-06 
0.0000000e+00 -3.5321780e-06 0.0000000e+00 
0.0000000e+00 -6.9935281e-06 0.0000000e+00 
1.5617333e-06 -6.6450134e-06 -8.0747777e-06 
1.4256464e-06 -1.0240198e-05 8.8636252e-06 
3.7957343e-06 6.0351755e-07 -1.8870966e-06 
2.5601707e-06 -1.5108728e-05 3.8749909e-06 
0.0000000e+00 -5.6984063e-06 0.0000000e+00 
0.0000000e+00 -2.4857536e-05 0.0000000e+00 
3.7814168e-06 1.5637453e-06 -4.7969053e-07 
5.0178273e-06 4.1881499e-06 2.7573521e-06 
7.8796093e-06 7.7933391e-06 7.4132731e-06 
1.0335279e-05 1.1960310e-05 1.2894899e-05 
8.8412307e-06 1.5947708e-05 1.5150106e-05 
9.5939740e-06 1.9175521e-05 1.3808310e-05 
8.0777945e-06 2.1295529e-05 1.1588348e-05 
8.6215523e-06 2.1902686e-05 7.6046067e-06 
7.1915078e-06 2.1051823e-05 7.7525565e-06 
7.5403154e-06 1.8827592e-05 8.0202817e-06 
5.6074996e-06 1.5847736e-05 8.9082841e-06 
5.2260007e-06 1.2602993e-05 5.3910358e-06 
2.2144679e-06 9.8642249e-06 3.8851806e-07 
5.3770459e-06 7.9396477e-06 -6.2003437e-06 
7.2333091e-06 7.2934276e-06 -1.1248005e-05 
1.1691706e-05 7.4933746e-06 -1.3299686e-05 
1.3421515e-05 8.2080896e-06 -1.3430142e-05 
1.4640838e-05 8.5216643e-06 -1.2337961e-05 
1.3829609e-05 8.1340040e-06 -1.1922595e-05 
1.4917836e-05 7.0378228e-06 -1.0145780e-05 
1.3355878e-05 5.3988902e-06 -9.8368537e-06 
1.2613792e-05 3.5758967e-06 -9.3180370e-06 
1.0468762e-05 1.9092454e-06 -1.0175370e-05 
9.4861934e-06 7.3888583e-07 -1.0001889e-05 
8.2428460e-06 8.6084066e-07 -1.0179261e-05 
2.9552391e-06 2.8845809e-06 -9.0390085e-06 
-2.4257467e-06 7.6378055e-06 -1.1414524e-05 
-2.8420939e-06 1.5819851e-05 -1.1589113e-05 
-9.0995229e-07 2.7974471e-05 -1.3421612e-05 
-2.8896645e-06 4.4131710e-05 -8.2218512e-06 
-4.3694117e-06 6.3439555e-05 -2.9364805e-06 
-4.3630298e-06 8.1586775e-05 1.0604663e-05 
-2.9991218e-06 8.8915251e-05 2.6329977e-05 
-7.0248593e-06 6.5396598e-05 5.7571036e-05 
-1.6236896e-05 -2.1935397e-05 8.6189364e-05 
-2.6422875e-05 -2.1494878e-04 9.5993935e-05 
-5.1092407e-05 -5.7077012e-04 1.8356410e-04 
-6.6228902e-05 -1.1438535e-03 1.5732333e-04 
-1.1174396e-04 -1.9745675e-03 2.6404439e-04 
-1.4247076e-04 -3.0144884e-03 1.3229775e-04 
-2.0267614e-04 -4.0937094e-03 2.1776069e-04 
-2.5235736e-04 -4.7329627e-03 6.9064816e-05 
-2.7513984e-04 -4.6058614e-03 2.6100617e-05 
-2.2279850e-04 -4.3026935e-03 2.0069001e-05 
-3.2095367e-04 -4.2446367e-03 2.3403720e-05 
-2.1218433e-04 -4.3767104e-03 -4.8399252e-05 
-2.1354265e-04 -4.2546699e-03 -1.7631288e-04 
-9.6215947e-05 -3.3086175e-03 -1.5699478e-04 
-9.1175541e-05 -2.1136361e-03 -2.1630952e-04 
-3.5092944e-05 -1.0792185e-03 -1.4059588e-04 
-7.4724362e-06 -3.7029877e-04 -1.5328365e-04 
8.8078204e-06 3.2150074e-05 -7.6218494e-05 
1.6829355e-05 2.0502073e-04 -5.7078705e-05 
1.8749522e-05 2.3628934e-04 -2.7789574e-05 
1.7215421e-05 1.9899798e-04 -1.0680357e-05 
1.6120539e-05 1.3858124e-04 -1.1123709e-05 
1.2208996e-05 8.2774262e-05 -4.2292600e-06 
8.5579450e-06 4.0316478e-05 -7.3493939e-06 
4.5039747e-06 1.3162626e-05 -5.9961662e-06 
3.8962648e-06 -1.7352903e-06 -9.9246126e-06 
5.1818997e-06 -7.6843571e-06 -1.3700788e-05 
6.6279772e-06 -7.9981264e-06 -1.6572654e-05 
6.3991984e-06 -5.2686214e-06 -1.6383156e-05 
8.6457003e-06 -1.3092930e-06 -1.3307573e-05 
7.9100519e-06 3.0496112e-06 -1.1015433e-05 
8.3922860e-06 8.2716406e-06 -8.5209413e-06 
8.3410296e-06 1.5428284e-05 -8.2472388e-06 
3.7449397e-06 2.5667714e-05 -4.5781526e-06 
1.9828825e-07 3.9877898e-05 -4.5704883e-06 
2.4094893e-06 5.7563691e-05 -1.5781820e-06 
1.0247752e-06 7.6951379e-05 1.9889185e-06 
-5.5908431e-06 9.2518392e-05 1.3993754e-05 
-1.1306718e-05 9.3712319e-05 2.7204942e-05 
-1.0256293e-05 5.8931273e-05 4.3623666e-05 
-2.2148490e-05 -4.5281195e-05 7.8397417e-05 
-5.8668902e-05 -2.6863834e-04 1.5384864e-04 
-6.1675491e-05 -6.6904369e-04 1.8391502e-04 
-8.0471953e-05 -1.2963486e-03 1.5440334e-04 
-1.2933240e-04 -2.1809912e-03 2.6336903e-04 
-1.5940121e-04 -3.2481796e-03 1.1687083e-04 
-2.2453051e-04 -4.2846212e-03 1.8935783e-04 
-2.4266251e-04 -4.7486075e-03 6.0341434e-05 
-2.2626843e-04 -4.5159711e-03 1.9784671e-05 
-2.2254052e-04 -4.2248610e-03 -4.5702922e-07 
-1.9434941e-04 -4.2237923e-03 -3.0358351e-06 
-2.0921809e-04 -4.3420983e-03 -9.9821918e-05 
-1.9865317e-04 -4.0323646e-03 -1.7365206e-04 
-1.6437500e-04 -2.9870614e-03 -1.2818353e-04 
-9.8464363e-05 -1.8244504e-03 -2.2509565e-04 
-7.0685928e-05 -8.7604998e-04 -1.2084395e-04 
-2.1243688e-05 -2.5157776e-04 -1.3867870e-04 
-6.7970122e-06 8.5030071e-05 -7.0220136e-05 
6.5621662e-06 2.1608948e-04 -4.9851631e-05 
6.8357417e-06 2.2472683e-04 -2.8016328e-05 
7.0299880e-06 1.7783255e-04 -1.1156070e-05 
3.0261772e-06 1.1557122e-04 -9.9798617e-06 
2.5530612e-06 5.9405786e-05 1.0714640e-06 
8.2207652e-07 1.8093438e-05 1.3028391e-06 
8.4325131e-07 -6.7402570e-06 3.3961246e-06 
0.0000000e+00 6.2454302e-07 0.0000000e+00 
0.0000000e+00 1.5867726e-06 0.0000000e+00 
0.0000000e+00 4.1820153e-06 0.0000000e+00 
0.0000000e+00 7.8188805e-06 0.0000000e+00 
0.0000000e+00 1.1962520e-05 0.0000000e+00 
0.0000000e+00 1.5947695e-05 0.0000000e+00 
0.0000000e+00 1.9193374e-05 0.0000000e+00 
0.0000000e+00 2.1291607e-05 0.0000000e+00 
0.0000000e+00 2.1919064e-05 0.0000000e+00 
0.0000000e+00 2.1044749e-05 0.0000000e+00 
0.0000000e+00 1.8847768e-05 0.0000000e+00 
0.0000000e+00 1.5844624e-05 0.0000000e+00 
0.0000000e+00 1.2632634e-05 0.0000000e+00 
0.0000000e+00 9.8663022e-06 0.0000000e+00 
0.0000000e+00 7.9917309e-06 0.0000000e+00 
0.0000000e+00 7.3053320e-06 0.0000000e+00 
0.0000000e+00 7.5400353e-06 0.0000000e+00 
0.0000000e+00 8.1943990e-06 0.0000000e+00 
0.0000000e+00 8.5199190e-06 0.0000000e+00 
0.0000000e+00 8.1359676e-06 0.0000000e+00 
0.0000000e+00 7.0389583e-06 0.0000000e+00 
0.0000000e+00 5.4156280e-06 0.0000000e+00 
0.0000000e+00 3.5829989e-06 0.0000000e+00 
0.0000000e+00 1.8858989e-06 0.0000000e+00 
0.0000000e+00 7.4957933e-07 0.0000000e+00 
0.0000000e+00 8.5212127e-07 0.0000000e+00 
0.0000000e+00 2.8871189e-06 0.0000000e+00 
0.0000000e+00 7.6452734e-06 0.0000000e+00 
0.0000000e+00 1.5846636e-05 0.0000000e+00 
0.0000000e+00 2.8027969e-05 0.0000000e+00 
0.0000000e+00 4.4309643e-05 0.0000000e+00 
0.0000000e+00 6.3718457e-05 0.0000000e+00 
0.0000000e+00 8.2149614e-05 0.0000000e+00 
0.0000000e+00 8.9609421e-05 0.0000000e+00 
0.0000000e+00 6.5929387e-05 0.0000000e+00 
0.0000000e+00 -2.1082276e-05 0.0000000e+00 
0.0000000e+00 -2.1490430e-04 0.0000000e+00 
0.0000000e+00 -5.7147886e-04 0.0000000e+00 
0.0000000e+00 -1.1482327e-03 0.0000000e+00 
0.0000000e+00 -1.9811871e-03 0.0000000e+00 
0.0000000e+00 -3.0307518e-03 0.0000000e+00 
0.0000000e+00 -4.1126059e-03 0.0000000e+00 
0.0000000e+00 -4.7627608e-03 0.0000000e+00 
0.0000000e+00 -4.6297768e-03 0.0000000e+00 
0.0000000e+00 -4.3265936e-03 0.0000000e+00 
0.0000000e+00 -4.2656055e-03 0.0000000e+00 
0.0000000e+00 -4.4092778e-03 0.0000000e+00 
0.0000000e+00 -4.2736186e-03 0.0000000e+00 
0.0000000e+00 -3.3312244e-03 0.0000000e+00 
0.0000000e+00 -2.1264695e-03 0.0000000e+00 
0.0000000e+00 -1.0880330e-03 0.0000000e+00 
0.0000000e+00 -3.7284693e-04 0.0000000e+00 
0.0000000e+00 3.2054664e-05 0.0000000e+00 
0.0000000e+00 2.0604044e-04 0.0000000e+00 
0.0000000e+00 2.3782878e-04 0.0000000e+00 
0.0000000e+00 1.9997204e-04 0.0000000e+00 
0.0000000e+00 1.3953852e-04 0.0000000e+00 
0.0000000e+00 8.3122628e-05 0.0000000e+00 
0.0000000e+00 4.0539850e-05 0.0000000e+00 
0.0000000e+00 1.3165325e-05 0.0000000e+00 
0.0000000e+00 -1.7410468e-06 0.0000000e+00 
0.0000000e+00 -7.7178511e-06 0.0000000e+00 
0.0000000e+00 -8.0355849e-06 0.0000000e+00 
0.0000000e+00 -5.3156064e-06 0.0000000e+00 
0.0000000e+00 -1.3720041e-06 0.0000000e+00 
0.0000000e+00 3.0216661e-06 0.0000000e+00 
0.0000000e+00 8.2718216e-06 0.0000000e+00 
0.0000000e+00 1.5447627e-05 0.0000000e+00 
0.0000000e+00 2.5737956e-05 0.0000000e+00 
0.0000000e+00 3.9953236e-05 0.0000000e+00 
0.0000000e+00 5.7761714e-05 0.0000000e+00 
0.0000000e+00 7.7234916e-05 0.0000000e+00 
0.0000000e+00 9.3102863e-05 0.0000000e+00 
0.0000000e+00 9.4372401e-05 0.0000000e+00 
0.0000000e+00 5.9837323e-05 0.0000000e+00 
0.0000000e+00 -4.4793342e-05 0.0000000e+00 
0.0000000e+00 -2.6888176e-04 0.0000000e+00 
0.0000000e+00 -6.7003648e-04 0.0000000e+00 
0.0000000e+00 -1.3015893e-03 0.0000000e+00 
0.0000000e+00 -2.1885780e-03 0.0000000e+00 
0.0000000e+00 -3.2660386e-03 0.0000000e+00 
0.0000000e+00 -4.3048118e-03 0.0000000e+00 
0.0000000e+00 -4.7787665e-03 0.0000000e+00 
0.0000000e+00 -4.5386166e-03 0.0000000e+00 
0.0000000e+00 -4.2511886e-03 0.0000000e+00 
0.0000000e+00 -4.2444244e-03 0.0000000e+00 
0.0000000e+00 -4.3705464e-03 0.0000000e+00 
0.0000000e+00 -4.0549468e-03 0.0000000e+00 
0.0000000e+00 -3.0086010e-03 0.0000000e+00 
0.0000000e+00 -1.8357495e-03 0.0000000e+00 
0.0000000e+00 -8.8285992e-04 0.0000000e+00 
0.0000000e+00 -2.5351637e-04 0.0000000e+00 
0.0000000e+00 8.5387030e-05 0.0000000e+00 
0.0000000e+00 2.1715055e-04 0.0000000e+00 
0.0000000e+00 2.2619820e-04 0.0000000e+00 
0.0000000e+00 1.7883102e-04 0.0000000e+00 
0.0000000e+00 1.1620129e-04 0.0000000e+00 
0.0000000e+00 5.9745616e-05 0.0000000e+00 
0.0000000e+00 1.8148905e-05 0.0000000e+00 
0.0000000e+00 -6.7743122e-06 0.0000000e+00 
0.0000000e+00 -1.5094809e-05 0.0000000e+00 
-1.5895463e-04 -4.1384273e-04 -2.4848510e-04 
2.0505055e-05 -3.3773762e-05 1.5955109e-05 
2.0068048e-05 -9.2305081e-06 1.3455829e-05 
1.4033771e-05 -2.2560562e-06 1.3518798e-05 
0.0000000e+00 -2.3891337e-04 0.0000000e+00 
0.0000000e+00 0.0000000e+00 0.0000000e+00 
0.0000000e+00 0.0000000e+00 0.0000000e+00 
0.0000000e+00 0.0000000e+00 0.0000000e+00 
0.0000000e+00 0.0000000e+00 0.0000000e+00 
0.0000000e+00 0.0000000e+00 0.0000000e+00 
0.0000000e+00 0.0000000e+00 0.0000000e+00 
0.0000000e+00 0.0000000e+00 0.0000000e+00 
0.0000000e+00 0.0000000e+00 0.0000000e+00 
0.0000000e+00 0.0000000e+00 0.0000000e+00 
0.0000000e+00 0.0000000e+00 0.0000000e+00 
0.0000000e+00 0.0000000e+00 0.0000000e+00 
0.0000000e+00 0.0000000e+00 0.0000000e+00 
0.0000000e+00 0.0000000e+00 0.0000000e+00 
0.0000000e+00 0.0000000e+00 0.0000000e+00 
0.0000000e+00 0.0000000e+00 0.0000000e+00 
0.0000000e+00 0.0000000e+00 0.0000000e+00 
0.0000000e+00 0.0000000e+00 0.0000000e+00 
0.0000000e+00 0.0000000e+00 0.0000000e+00 
0.0000000e+00 0.0000000e+00 0.0000000e+00 
0.0000000e+00 0.0000000e+00 0.0000000e+00 
0.0000000e+00 0.0000000e+00 0.0000000e+00 
0.0000000e+00 0.0000000e+00 0.0000000e+00 
0.0000000e+00 0.0000000e+00 0.0000000e+00 
0.0000000e+00 0.0000000e+00 0.0000000e+00 
0.0000000e+00 0.0000000e+00 0.0000000e+00 
0.0000000e+00 0.0000000e+00 0.0000000e+00 
0.0000000e+00 0.0000000e+00 0.0000000e+00 
0.0000000e+00 0.0000000e+00 0.0000000e+00 
0.0000000e+00 0.0000000e+00 0.0000000e+00 
0.0000000e+00 0.0000000e+00 0.0000000e+00 
0.0000000e+00 0.0000000e+00 0.0000000e+00 
0.0000000e+00 0.0000000e+00 0.0000000e+00 
0.0000000e+00 0.0000000e+00 0.0000000e+00 
0.0000000e+00 0.0000000e+00 0.0000000e+00 
0.0000000e+00 0.0000000e+00 0.0000000e+00 
0.0000000e+00 0.0000000e+00 0.0000000e+00 
0.0000000e+00 0.0000000e+00 0.0000000e+00 
0.0000000e+00 0.0000000e+00 0.0000000e+00 
0.0000000e+00 0.0000000e+00 0.0000000e+00 
0.0000000e+00 0.0000000e+00 0.0000000e+00 
0.0000000e+00 0.0000000e+00 0.0000000e+00 
0.0000000e+00 0.0000000e+00 0.0000000e+00 
0.0000000e+00 0.0000000e+00 0.0000000e+00 
0.0000000e+00 0.0000000e+00 0.0000000e+00 
0.0000000e+00 0.0000000e+00 0.0000000e+00 
0.0000000e+00 0.0000000e+00 0.0000000e+00 
0.0000000e+00 0.0000000e+00 0.0000000e+00 
0.0000000e+00 0.0000000e+00 0.0000000e+00 
0.0000000e+00 0.0000000e+00 0.0000000e+00 
0.0000000e+00 0.0000000e+00 0.0000000e+00 
0.0000000e+00 0.0000000e+00 0.0000000e+00 
0.0000000e+00 0.0000000e+00 0.0000000e+00 
0.0000000e+00 0.0000000e+00 0.0000000e+00 
0.0000000e+00 0.0000000e+00 0.0000000e+00 
0.0000000e+00 0.0000000e+00 0.0000000e+00 
0.0000000e+00 0.0000000e+00 0.0000000e+00 
0.0000000e+00 0.0000000e+00 0.0000000e+00 
0.0000000e+00 0.0000000e+00 0.0000000e+00 
0.0000000e+00 0.0000000e+00 0.0000000e+00 
0.0000000e+00 0.0000000e+00 0.0000000e+00 
0.0000000e+00 0.0000000e+00 0.0000000e+00 
0.0000000e+00 0.0000000e+00 0.0000000e+00 
0.0000000e+00 0.0000000e+00 0.0000000e+00 
0.0000000e+00 0.0000000e+00 0.0000000e+00 
0.0000000e+00 0.0000000e+00 0.0000000e+00 
0.0000000e+00 0.0000000e+00 0.0000000e+00 
0.0000000e+00 0.0000000e+00 0.0000000e+00 
0.0000000e+00 0.0000000e+00 0.0000000e+00 
0.0000000e+00 0.0000000e+00 0.0000000e+00 
0.0000000e+00 0.0000000e+00 0.0000000e+00 
0.0000000e+00 0.0000000e+00 0.0000000e+00 
0.0000000e+00 0.0000000e+00 0.0000000e+00 
0.0000000e+00 0.0000000e+00 0.0000000e+00 
0.0000000e+00 0.0000000e+00 0.0000000e+00 
0.0000000e+00 0.0000000e+00 0.0000000e+00 
0.0000000e+00 0.0000000e+00 0.0000000e+00 
0.0000000e+00 0.0000000e+00 0.0000000e+00 
0.0000000e+00 0.0000000e+00 0.0000000e+00 
0.0000000e+00 0.0000000e+00 0.0000000e+00 
0.0000000e+00 0.0000000e+00 0.0000000e+00 
0.0000000e+00 0.0000000e+00 0.0000000e+00 
0.0000000e+00 0.0000000e+00 0.0000000e+00 
0.0000000e+00 0.0000000e+00 0.0000000e+00 
0.0000000e+00 0.0000000e+00 0.0000000e+00 
0.0000000e+00 0.0000000e+00 0.0000000e+00 
0.0000000e+00 0.0000000e+00 0.0000000e+00 
0.0000000e+00 0.0000000e+00 0.0000000e+00 
0.0000000e+00 0.0000000e+00 0.0000000e+00 
0.0000000e+00 0.0000000e+00 0.0000000e+00 
0.0000000e+00 0.0000000e+00 0.0000000e+00 
0.0000000e+00 0.0000000e+00 0.0000000e+00 
0.0000000e+00 0.0000000e+00 0.0000000e+00 
0.0000000e+00 0.0000000e+00 0.0000000e+00 
0.0000000e+00 0.0000000e+00 0.0000000e+00 
0.0000000e+00 0.0000000e+00 0.0000000e+00 
0.0000000e+00 0.0000000e+00 0.0000000e+00 
0.0000000e+00 0.0000000e+00 0.0000000e+00 
0.0000000e+00 0.0000000e+00 0.0000000e+00 
0.0000000e+00 0.0000000e+00 0.0000000e+00 
0.0000000e+00 0.0000000e+00 0.0000000e+00 
0.0000000e+00 0.0000000e+00 0.0000000e+00 
0.0000000e+00 0.0000000e+00 0.0000000e+00 
0.0000000e+00 0.0000000e+00 0.0000000e+00 
0.0000000e+00 0.0000000e+00 0.0000000e+00 
0.0000000e+00 0.0000000e+00 0.0000000e+00 
0.0000000e+00 0.0000000e+00 0.0000000e+00 
-1.5926169e-09 4.6240334e-07 1.2914600e-07 
5.4642533e-07 2.8510684e-07 3.7872056e-07 
1.1618341e-06 1.3110964e-07 8.1077815e-07 
1.5761268e-06 1.1220821e-07 9.6215172e-07 
1.7469781e-06 -9.6672409e-08 9.0268315e-07 
1.7152749e-06 -2.7491009e-07 6.2643727e-07 
1.6898414e-06 -6.0463414e-08 8.1919509e-08 
1.5034014e-06 1.3047885e-07 -7.7817361e-07 
1.4564977e-06 1.6640251e-07 -1.0676130e-06 
1.6406117e-06 2.1700903e-07 -2.9990244e-07 
1.3858116e-06 1.4633034e-07 5.5346004e-07 
8.4550032e-07 -1.6483847e-07 4.7618542e-07 
1.9922304e-07 -6.2634564e-07 -3.0144417e-07 
-3.6478891e-08 2.8832181e-07 -1.6029987e-06 
5.2306831e-07 4.6951212e-07 -4.0252635e-06 
2.1012127e-06 -5.1733588e-07 -7.3442898e-06 
8.9575251e-06 -4.3360878e-06 -1.1660421e-05 
1.9235744e-05 -6.6500525e-06 -1.4050235e-05 
2.7761849e-05 -9.4733114e-06 -1.3942984e-05 
3.8641607e-05 -1.3499440e-05 -1.0748753e-05 
4.5282908e-05 -1.4036023e-05 -4.6181685e-06 
4.5333043e-05 -1.4473793e-05 4.9668288e-06 
4.0289684e-05 -1.3854225e-05 1.2014477e-05 
3.1493310e-05 -1.0052433e-05 1.5712058e-05 
2.1039608e-05 -5.6104900e-06 1.4466733e-05 
1.1234882e-05 -3.1258407e-06 1.1106024e-05 
4.6572882e-06 -1.8360819e-06 6.7264491e-06 
1.6053880e-06 -6.5029496e-07 2.2923500e-06 
8.0535602e-07 3.0259858e-07 3.2820665e-07 
1.5717708e-08 5.6372414e-07 -1.8663449e-07 
-7.7720694e-07 5.5552459e-07 1.5694924e-08 
-1.0268540e-06 5.9408461e-07 5.1087103e-08 
-9.6300357e-07 7.1025636e-07 -3.7798304e-07 
-9.7487693e-08 8.3987089e-07 -1.4045662e-06 
1.1331495e-06 3.9139812e-07 -2.7580450e-06 
4.3689824e-06 -7.7434044e-07 -6.0802490e-06 
1.0232041e-05 -4.0206232e-06 -1.0162306e-05 
2.0603507e-05 -8.8217221e-06 -1.3248183e-05 
3.1326796e-05 -1.3263725e-05 -1.2729904e-05 
4.0103540e-05 -1.6382801e-05 -9.1326838e-06 
4.7301128e-05 -1.6901935e-05 -3.0068759e-06 
4.6776669e-05 -1.5532823e-05 6.1002720e-06 
3.9732160e-05 -1.3088593e-05 1.2159729e-05 
2.8307757e-05 -9.0473568e-06 1.5407308e-05 
1.5072152e-05 -4.5723386e-06 1.4266025e-05 
1.0227503e-05 -3.2984103e-06 1.0398823e-05 
4.0819191e-06 -1.0610870e-06 6.2577824e-06 
1.1695527e-06 -3.2668930e-07 2.5449215e-06 
-1.0439708e-07 2.8895118e-07 4.4602979e-07 
0.0000000e+00 -4.4265757e-06 0.0000000e+00 
0.0000000e+00 -7.5022813e-06 0.0000000e+00 
0.0000000e+00 -8.5676147e-06 0.0000000e+00 
0.0000000e+00 -8.7649569e-06 0.0000000e+00 
0.0000000e+00 -8.5039565e-06 0.0000000e+00 
0.0000000e+00 -9.5175574e-06 0.0000000e+00 
0.0000000e+00 -1.2012835e-05 0.0000000e+00 
0.0000000e+00 -1.3548321e-05 0.0000000e+00 
0.0000000e+00 -1.2766782e-05 0.0000000e+00 
0.0000000e+00 -1.0826358e-05 0.0000000e+00 
0.0000000e+00 -9.3914205e-06 0.0000000e+00 
0.0000000e+00 -5.4512475e-06 0.0000000e+00 
0.0000000e+00 -3.6406898e-06 0.0000000e+00 
0.0000000e+00 -3.2918271e-07 0.0000000e+00 
0.0000000e+00 2.5475349e-06 0.0000000e+00 
0.0000000e+00 3.9986062e-06 0.0000000e+00 
0.0000000e+00 -1.1527022e-05 0.0000000e+00 
0.0000000e+00 -7.1665178e-05 0.0000000e+00 
0.0000000e+00 -1.8472753e-04 0.0000000e+00 
0.0000000e+00 -3.9486072e-04 0.0000000e+00 
0.0000000e+00 -4.9066439e-04 0.0000000e+00 
0.0000000e+00 -5.1898399e-04 0.0000000e+00 
0.0000000e+00 -5.1464757e-04 0.0000000e+00 
0.0000000e+00 -3.4803222e-04 0.0000000e+00 
0.0000000e+00 -1.4794564e-04 0.0000000e+00 
0.0000000e+00 -2.6502743e-05 0.0000000e+00 
0.0000000e+00 1.7640676e-05 0.0000000e+00 
0.0000000e+00 1.6550319e-05 0.0000000e+00 
0.0000000e+00 1.2874698e-06 0.0000000e+00 
0.0000000e+00 -7.1112263e-06 0.0000000e+00 
0.0000000e+00 -9.3635754e-06 0.0000000e+00 
0.0000000e+00 -8.0247546e-06 0.0000000e+00 
0.0000000e+00 -5.3728804e-06 0.0000000e+00 
0.0000000e+00 -2.7121814e-06 0.0000000e+00 
0.0000000e+00 2.3662308e-06 0.0000000e+00 
0.0000000e+00 1.4569057e-06 0.0000000e+00 
0.0000000e+00 -1.9562856e-05 0.0000000e+00 
0.0000000e+00 -6.6217392e-05 0.0000000e+00 
0.0000000e+00 -2.3440357e-04 0.0000000e+00 
0.0000000e+00 -3.6249083e-04 0.0000000e+00 
0.0000000e+00 -4.9197773e-04 0.0000000e+00 
0.0000000e+00 -5.0750480e-04 0.0000000e+00 
0.0000000e+00 -4.4931838e-04 0.0000000e+00 
0.0000000e+00 -3.0071742e-04 0.0000000e+00 
0.0000000e+00 -1.3276037e-04 0.0000000e+00 
0.0000000e+00 -1.9286987e-05 0.0000000e+00 
0.0000000e+00 1.8603167e-05 0.0000000e+00 
0.0000000e+00 1.4656266e-05 0.0000000e+00 
0.0000000e+00 5.5907722e-06 0.0000000e+00 
-2.4299374e-07 -7.5097049e-08 2.9723500e-07 
-1.5628710e-07 -1.2776012e-07 1.0166965e-06 
6.5075920e-07 4.8496639e-07 2.3023538e-06 
1.4248908e-06 -4.8967399e-07 2.4133981e-06 
-1.0474087e-06 2.7449900e-07 -7.2839782e-07 
-1.1087352e-06 1.0440634e-06 -2.9003256e-06 
-3.0827204e-07 2.0405096e-06 -4.6256964e-06 
9.9761030e-07 3.5876195e-07 -4.3227224e-06 
-9.0466585e-07 -2.3585719e-07 9.2473329e-07 
-9.5283417e-07 1.5585712e-08 -6.0828324e-07 
1.0029241e-06 -2.2580352e-06 4.0372092e-06 
5.1024062e-07 -9.1794317e-07 2.4490446e-06 
0.0000000e+00 -7.4513528e-06 0.0000000e+00 
0.0000000e+00 -1.0503084e-05 0.0000000e+00 
0.0000000e+00 -1.2998390e-05 0.0000000e+00 
0.0000000e+00 -1.2418799e-05 0.0000000e+00 
0.0000000e+00 -1.2386423e-05 0.0000000e+00 
0.0000000e+00 -1.5167822e-05 0.0000000e+00 
0.0000000e+00 -2.0219211e-05 0.0000000e+00 
0.0000000e+00 -2.2851837e-05 0.0000000e+00 
0.0000000e+00 -2.1500551e-05 0.0000000e+00 
0.0000000e+00 -1.8911003e-05 0.0000000e+00 
0.0000000e+00 -1.4435286e-05 0.0000000e+00 
0.0000000e+00 -9.5157093e-06 0.0000000e+00 
0.0000000e+00 -4.7037206e-06 0.0000000e+00 
0.0000000e+00 9.1386590e-07 0.0000000e+00 