# vtk DataFile Version 4.0
vtk output
ASCII
DATASET UNSTRUCTURED_GRID
POINTS 1920 float
0.0000000e+00 0.0000000e+00 0.0000000e+00 
0.0000000e+00 0.0000000e+00 5.0000000e+01 
5.0000000e+00 0.0000000e+00 0.0000000e+00 
5.0000000e+00 0.0000000e+00 5.0000000e+01 
5.0000000e+00 1.0000000e+00 0.0000000e+00 
5.0000000e+00 1.0000000e+00 5.0000000e+01 
0.0000000e+00 1.0000000e+00 0.0000000e+00 
0.0000000e+00 1.0000000e+00 5.0000000e+01 
5.0000000e+00 2.0000000e+00 0.0000000e+00 
5.0000000e+00 2.0000000e+00 5.0000000e+01 
3.0000000e+00 2.0000000e+00 0.0000000e+00 
3.0000000e+00 2.0000000e+00 5.0000000e+01 
0.0000000e+00 2.0000000e+00 0.0000000e+00 
0.0000000e+00 2.0000000e+00 5.0000000e+01 
1.5000000e+00 3.0000000e+00 0.0000000e+00 
1.5000000e+00 3.0000000e+00 5.0000000e+01 
7.5000000e-01 3.0000000e+00 0.0000000e+00 
7.5000000e-01 3.0000000e+00 5.0000000e+01 
0.0000000e+00 3.0000000e+00 0.0000000e+00 
0.0000000e+00 3.0000000e+00 5.0000000e+01 
7.5000000e-01 3.0000000e+00 5.0000000e-01 
7.5000000e-01 3.0000000e+00 1.0000000e+00 
7.5000000e-01 3.0000000e+00 1.5000000e+00 
7.5000000e-01 3.0000000e+00 2.0000000e+00 
7.5000000e-01 3.0000000e+00 2.5000000e+00 
7.5000000e-01 3.0000000e+00 3.0000000e+00 
7.5000000e-01 3.0000000e+00 3.5000000e+00 
7.5000000e-01 3.0000000e+00 4.0000000e+00 
7.5000000e-01 3.0000000e+00 4.5000000e+00 
7.5000000e-01 3.0000000e+00 5.0000000e+00 
7.5000000e-01 3.0000000e+00 5.5000000e+00 
7.5000000e-01 3.0000000e+00 6.0000000e+00 
7.5000000e-01 3.0000000e+00 6.5000000e+00 
7.5000000e-01 3.0000000e+00 7.0000000e+00 
7.5000000e-01 3.0000000e+00 7.5000000e+00 
7.5000000e-01 3.0000000e+00 8.0000000e+00 
7.5000000e-01 3.0000000e+00 8.5000000e+00 
7.5000000e-01 3.0000000e+00 9.0000000e+00 
7.5000000e-01 3.0000000e+00 9.5000000e+00 
7.5000000e-01 3.0000000e+00 1.0000000e+01 
7.5000000e-01 3.0000000e+00 1.0500000e+01 
7.5000000e-01 3.0000000e+00 1.1000000e+01 
7.5000000e-01 3.0000000e+00 1.1500000e+01 
7.5000000e-01 3.0000000e+00 1.2000000e+01 
7.5000000e-01 3.0000000e+00 1.2500000e+01 
7.5000000e-01 3.0000000e+00 1.3000000e+01 
7.5000000e-01 3.0000000e+00 1.3500000e+01 
7.5000000e-01 3.0000000e+00 1.4000000e+01 
7.5000000e-01 3.0000000e+00 1.4500000e+01 
7.5000000e-01 3.0000000e+00 1.5000000e+01 
7.5000000e-01 3.0000000e+00 1.5500000e+01 
7.5000000e-01 3.0000000e+00 1.6000000e+01 
7.5000000e-01 3.0000000e+00 1.6500000e+01 
7.5000000e-01 3.0000000e+00 1.7000000e+01 
7.5000000e-01 3.0000000e+00 1.7500000e+01 
7.5000000e-01 3.0000000e+00 1.8000000e+01 
7.5000000e-01 3.0000000e+00 1.8500000e+01 
7.5000000e-01 3.0000000e+00 1.9000000e+01 
7.5000000e-01 3.0000000e+00 1.9500000e+01 
7.5000000e-01 3.0000000e+00 2.0000000e+01 
7.5000000e-01 3.0000000e+00 2.0500000e+01 
7.5000000e-01 3.0000000e+00 2.1000000e+01 
7.5000000e-01 3.0000000e+00 2.1500000e+01 
7.5000000e-01 3.0000000e+00 2.2000000e+01 
7.5000000e-01 3.0000000e+00 2.2500000e+01 
7.5000000e-01 3.0000000e+00 2.3000000e+01 
7.5000000e-01 3.0000000e+00 2.3500000e+01 
7.5000000e-01 3.0000000e+00 2.4000000e+01 
7.5000000e-01 3.0000000e+00 2.4500000e+01 
7.5000000e-01 3.0000000e+00 2.5000000e+01 
7.5000000e-01 3.0000000e+00 2.5500000e+01 
7.5000000e-01 3.0000000e+00 2.6000000e+01 
7.5000000e-01 3.0000000e+00 2.6500000e+01 
7.5000000e-01 3.0000000e+00 2.7000000e+01 
7.5000000e-01 3.0000000e+00 2.7500000e+01 
7.5000000e-01 3.0000000e+00 2.8000000e+01 
7.5000000e-01 3.0000000e+00 2.8500000e+01 
7.5000000e-01 3.0000000e+00 2.9000000e+01 
7.5000000e-01 3.0000000e+00 2.9500000e+01 
7.5000000e-01 3.0000000e+00 3.0000000e+01 
7.5000000e-01 3.0000000e+00 3.0500000e+01 
7.5000000e-01 3.0000000e+00 3.1000000e+01 
7.5000000e-01 3.0000000e+00 3.1500000e+01 
7.5000000e-01 3.0000000e+00 3.2000000e+01 
7.5000000e-01 3.0000000e+00 3.2500000e+01 
7.5000000e-01 3.0000000e+00 3.3000000e+01 
7.5000000e-01 3.0000000e+00 3.3500000e+01 
7.5000000e-01 3.0000000e+00 3.4000000e+01 
7.5000000e-01 3.0000000e+00 3.4500000e+01 
7.5000000e-01 3.0000000e+00 3.5000000e+01 
7.5000000e-01 3.0000000e+00 3.5500000e+01 
7.5000000e-01 3.0000000e+00 3.6000000e+01 
7.5000000e-01 3.0000000e+00 3.6500000e+01 
7.5000000e-01 3.0000000e+00 3.7000000e+01 
7.5000000e-01 3.0000000e+00 3.7500000e+01 
7.5000000e-01 3.0000000e+00 3.8000000e+01 
7.5000000e-01 3.0000000e+00 3.8500000e+01 
7.5000000e-01 3.0000000e+00 3.9000000e+01 
7.5000000e-01 3.0000000e+00 3.9500000e+01 
7.5000000e-01 3.0000000e+00 4.0000000e+01 
7.5000000e-01 3.0000000e+00 4.0500000e+01 
7.5000000e-01 3.0000000e+00 4.1000000e+01 
7.5000000e-01 3.0000000e+00 4.1500000e+01 
7.5000000e-01 3.0000000e+00 4.2000000e+01 
7.5000000e-01 3.0000000e+00 4.2500000e+01 
7.5000000e-01 3.0000000e+00 4.3000000e+01 
7.5000000e-01 3.0000000e+00 4.3500000e+01 
7.5000000e-01 3.0000000e+00 4.4000000e+01 
7.5000000e-01 3.0000000e+00 4.4500000e+01 
7.5000000e-01 3.0000000e+00 4.5000000e+01 
7.5000000e-01 3.0000000e+00 4.5500000e+01 
7.5000000e-01 3.0000000e+00 4.6000000e+01 
7.5000000e-01 3.0000000e+00 4.6500000e+01 
7.5000000e-01 3.0000000e+00 4.7000000e+01 
7.5000000e-01 3.0000000e+00 4.7500000e+01 
7.5000000e-01 3.0000000e+00 4.8000000e+01 
7.5000000e-01 3.0000000e+00 4.8500000e+01 
7.5000000e-01 3.0000000e+00 4.9000000e+01 
7.5000000e-01 3.0000000e+00 4.9500000e+01 
7.5000000e-01 3.0250001e+00 0.0000000e+00 
7.5000000e-01 3.0250001e+00 5.0000000e-01 
7.5000000e-01 3.0250001e+00 1.0000000e+00 
7.5000000e-01 3.0250001e+00 1.5000000e+00 
7.5000000e-01 3.0250001e+00 2.0000000e+00 
7.5000000e-01 3.0250001e+00 2.5000000e+00 
7.5000000e-01 3.0250001e+00 3.0000000e+00 
7.5000000e-01 3.0250001e+00 3.5000000e+00 
7.5000000e-01 3.0250001e+00 4.0000000e+00 
7.5000000e-01 3.0250001e+00 4.5000000e+00 
7.5000000e-01 3.0250001e+00 5.0000000e+00 
7.5000000e-01 3.0250001e+00 5.5000000e+00 
7.5000000e-01 3.0250001e+00 6.0000000e+00 
7.5000000e-01 3.0250001e+00 6.5000000e+00 
7.5000000e-01 3.0250001e+00 7.0000000e+00 
7.5000000e-01 3.0250001e+00 7.5000000e+00 
7.5000000e-01 3.0250001e+00 8.0000000e+00 
7.5000000e-01 3.0250001e+00 8.5000000e+00 
7.5000000e-01 3.0250001e+00 9.0000000e+00 
7.5000000e-01 3.0250001e+00 9.5000000e+00 
7.5000000e-01 3.0250001e+00 1.0000000e+01 
7.5000000e-01 3.0250001e+00 1.0500000e+01 
7.5000000e-01 3.0250001e+00 1.1000000e+01 
7.5000000e-01 3.0250001e+00 1.1500000e+01 
7.5000000e-01 3.0250001e+00 1.2000000e+01 
7.5000000e-01 3.0250001e+00 1.2500000e+01 
7.5000000e-01 3.0250001e+00 1.3000000e+01 
7.5000000e-01 3.0250001e+00 1.3500000e+01 
7.5000000e-01 3.0250001e+00 1.4000000e+01 
7.5000000e-01 3.0250001e+00 1.4500000e+01 
7.5000000e-01 3.0250001e+00 1.5000000e+01 
7.5000000e-01 3.0250001e+00 1.5500000e+01 
7.5000000e-01 3.0250001e+00 1.6000000e+01 
7.5000000e-01 3.0250001e+00 1.6500000e+01 
7.5000000e-01 3.0250001e+00 1.7000000e+01 
7.5000000e-01 3.0250001e+00 1.7500000e+01 
7.5000000e-01 3.0250001e+00 1.8000000e+01 
7.5000000e-01 3.0250001e+00 1.8500000e+01 
7.5000000e-01 3.0250001e+00 1.9000000e+01 
7.5000000e-01 3.0250001e+00 1.9500000e+01 
7.5000000e-01 3.0250001e+00 2.0000000e+01 
7.5000000e-01 3.0250001e+00 2.0500000e+01 
7.5000000e-01 3.0250001e+00 2.1000000e+01 
7.5000000e-01 3.0250001e+00 2.1500000e+01 
7.5000000e-01 3.0250001e+00 2.2000000e+01 
7.5000000e-01 3.0250001e+00 2.2500000e+01 
7.5000000e-01 3.0250001e+00 2.3000000e+01 
7.5000000e-01 3.0250001e+00 2.3500000e+01 
7.5000000e-01 3.0250001e+00 2.4000000e+01 
7.5000000e-01 3.0250001e+00 2.4500000e+01 
7.5000000e-01 3.0250001e+00 2.5000000e+01 
7.5000000e-01 3.0250001e+00 2.5500000e+01 
7.5000000e-01 3.0250001e+00 2.6000000e+01 
7.5000000e-01 3.0250001e+00 2.6500000e+01 
7.5000000e-01 3.0250001e+00 2.7000000e+01 
7.5000000e-01 3.0250001e+00 2.7500000e+01 
7.5000000e-01 3.0250001e+00 2.8000000e+01 
7.5000000e-01 3.0250001e+00 2.8500000e+01 
7.5000000e-01 3.0250001e+00 2.9000000e+01 
7.5000000e-01 3.0250001e+00 2.9500000e+01 
7.5000000e-01 3.0250001e+00 3.0000000e+01 
7.5000000e-01 3.0250001e+00 3.0500000e+01 
7.5000000e-01 3.0250001e+00 3.1000000e+01 
7.5000000e-01 3.0250001e+00 3.1500000e+01 
7.5000000e-01 3.0250001e+00 3.2000000e+01 
7.5000000e-01 3.0250001e+00 3.2500000e+01 
7.5000000e-01 3.0250001e+00 3.3000000e+01 
7.5000000e-01 3.0250001e+00 3.3500000e+01 
7.5000000e-01 3.0250001e+00 3.4000000e+01 
7.5000000e-01 3.0250001e+00 3.4500000e+01 
7.5000000e-01 3.0250001e+00 3.5000000e+01 
7.5000000e-01 3.0250001e+00 3.5500000e+01 
7.5000000e-01 3.0250001e+00 3.6000000e+01 
7.5000000e-01 3.0250001e+00 3.6500000e+01 
7.5000000e-01 3.0250001e+00 3.7000000e+01 
7.5000000e-01 3.0250001e+00 3.7500000e+01 
7.5000000e-01 3.0250001e+00 3.8000000e+01 
7.5000000e-01 3.0250001e+00 3.8500000e+01 
7.5000000e-01 3.0250001e+00 3.9000000e+01 
7.5000000e-01 3.0250001e+00 3.9500000e+01 
7.5000000e-01 3.0250001e+00 4.0000000e+01 
7.5000000e-01 3.0250001e+00 4.0500000e+01 
7.5000000e-01 3.0250001e+00 4.1000000e+01 
7.5000000e-01 3.0250001e+00 4.1500000e+01 
7.5000000e-01 3.0250001e+00 4.2000000e+01 
7.5000000e-01 3.0250001e+00 4.2500000e+01 
7.5000000e-01 3.0250001e+00 4.3000000e+01 
7.5000000e-01 3.0250001e+00 4.3500000e+01 
7.5000000e-01 3.0250001e+00 4.4000000e+01 
7.5000000e-01 3.0250001e+00 4.4500000e+01 
7.5000000e-01 3.0250001e+00 4.5000000e+01 
7.5000000e-01 3.0250001e+00 4.5500000e+01 
7.5000000e-01 3.0250001e+00 4.6000000e+01 
7.5000000e-01 3.0250001e+00 4.6500000e+01 
7.5000000e-01 3.0250001e+00 4.7000000e+01 
7.5000000e-01 3.0250001e+00 4.7500000e+01 
7.5000000e-01 3.0250001e+00 4.8000000e+01 
7.5000000e-01 3.0250001e+00 4.8500000e+01 
7.5000000e-01 3.0250001e+00 4.9000000e+01 
7.5000000e-01 3.0250001e+00 4.9500000e+01 
7.5000000e-01 3.0250001e+00 5.0000000e+01 
1.5000000e+00 3.0000000e+00 2.5000000e+01 
3.0000000e+00 2.0000000e+00 2.5000000e+01 
4.0000000e+00 2.0000000e+00 2.5000000e+01 
5.0000000e+00 2.0000000e+00 2.5000000e+01 
0.0000000e+00 3.0000000e+00 2.5000000e+01 
0.0000000e+00 0.0000000e+00 1.0000000e+00 
0.0000000e+00 0.0000000e+00 2.0000000e+00 
0.0000000e+00 0.0000000e+00 3.0000000e+00 
0.0000000e+00 0.0000000e+00 4.0000000e+00 
0.0000000e+00 0.0000000e+00 5.0000000e+00 
[...]
POINT_DATA 1920
FIELD FieldData 3
DISPLACEMENT 3 1920  float
0.0000000e+00 0.0000000e+00 0.0000000e+00 
0.0000000e+00 0.0000000e+00 0.0000000e+00 
0.0000000e+00 0.0000000e+00 0.0000000e+00 
0.0000000e+00 0.0000000e+00 0.0000000e+00 
-9.3975050e-06 1.3212986e-06 7.8363892e-06 
-1.8042188e-08 2.7277892e-08 -6.9971087e-08 
0.0000000e+00 -1.6458904e-06 0.0000000e+00 
0.0000000e+00 4.8786347e-07 0.0000000e+00 
-8.6379987e-06 -4.6327514e-06 -9.6008910e-07 
-5.8736553e-08 -1.3948672e-07 1.0312073e-07 
-8.5235342e-06 1.2262723e-05 7.6707165e-06 
-1.8712593e-07 -5.2227318e-07 -3.7896316e-07 
0.0000000e+00 -8.9541709e-06 0.0000000e+00 
0.0000000e+00 5.5731380e-07 0.0000000e+00 
-3.2400581e-05 -2.3656388e-05 8.7754794e-05 
-5.8844580e-07 1.5130648e-07 1.5496431e-07 
8.0822552e-05 -1.2053061e-04 1.2608604e-04 
-1.2861791e-07 -1.6731965e-06 -1.3572210e-07 
0.0000000e+00 1.4348178e-05 0.0000000e+00 
0.0000000e+00 -3.7678895e-08 0.0000000e+00 
-3.7289970e-05 -1.1717400e-04 6.9883128e-05 
-7.2428134e-05 -1.0842710e-04 4.6312653e-05 
-8.0180398e-05 -9.6999713e-05 5.5863002e-05 
-8.4969928e-05 -8.2265753e-05 4.5596444e-05 
-1.0632894e-04 -6.2498737e-05 3.6534821e-05 
-9.0958914e-05 -3.6054618e-05 2.9018993e-05 
-9.9091230e-05 -3.2508326e-06 8.9623081e-06 
-7.0112750e-05 3.3823468e-05 -5.3801799e-08 
-6.4014042e-05 7.1916977e-05 1.3998080e-07 
-4.9659277e-05 1.0898172e-04 1.0860365e-05 
-4.6901907e-05 1.4187000e-04 2.4509221e-05 
-4.7179059e-05 1.6521418e-04 3.7955448e-05 
-6.7886089e-05 1.6840278e-04 4.5620076e-05 
-5.8025737e-05 1.3225304e-04 7.5969736e-05 
-9.7046024e-05 2.3127513e-05 1.1576842e-04 
-1.1491203e-04 -2.0534653e-04 1.2318740e-04 
-1.8132383e-04 -6.0990901e-04 2.1530649e-04 
-1.8129619e-04 -1.2423062e-03 1.6385737e-04 
-2.7061909e-04 -2.1399665e-03 2.6045268e-04 
-2.8108651e-04 -3.2459830e-03 9.0784408e-05 
-3.6177805e-04 -4.3814019e-03 1.5321487e-04 
-4.3229098e-04 -5.0486508e-03 -3.1930143e-05 
-4.0618921e-04 -4.9124788e-03 -1.5393335e-04 
-3.6951885e-04 -4.5582685e-03 -1.6972877e-04 
-2.8829795e-04 -4.4607748e-03 -2.0623709e-04 
-2.2853588e-04 -4.5248126e-03 -2.2858816e-04 
-1.7523146e-04 -4.3022512e-03 -2.4941724e-04 
-1.5442347e-04 -3.2874453e-03 -1.8645774e-04 
-6.0575301e-05 -2.0562301e-03 -2.3990552e-04 
-2.5498268e-05 -1.0107370e-03 -1.0633401e-04 
1.7713812e-05 -3.0238021e-04 -1.2694822e-04 
3.6952944e-05 9.1662652e-05 -5.1902491e-05 
5.1045896e-05 2.5236313e-04 -2.3455430e-05 
5.4259188e-05 2.6751601e-04 6.0185772e-05 
2.2145481e-05 2.0623297e-04 7.4279262e-05 
1.8259298e-05 1.2032404e-04 5.5918703e-05 
-1.1801104e-05 3.8978415e-05 3.2879412e-05 
-3.1162308e-05 -2.4343937e-05 2.5344698e-05 
-3.2995042e-05 -6.4907304e-05 1.0799400e-05 
-4.1079118e-05 -8.6033979e-05 2.0616695e-05 
-3.2735617e-05 -9.2726303e-05 4.4636447e-05 
-3.8667768e-05 -8.9487214e-05 4.6681773e-05 
-5.9419839e-05 -7.8377729e-05 5.3309388e-05 
-5.9822389e-05 -5.8967824e-05 3.7936436e-05 
-7.8223260e-05 -3.1703774e-05 3.1378037e-05 
-5.5981072e-05 1.5779950e-06 1.4876956e-05 
-7.6564953e-05 3.7021578e-05 -4.8241627e-06 
-7.1277289e-05 7.1825045e-05 -1.7766348e-05 
-1.9812131e-05 1.0515647e-04 -4.8417592e-06 
-4.1878760e-05 1.4002126e-04 2.1345998e-06 
-4.2608259e-05 1.7341958e-04 -6.3070206e-06 
-5.2970532e-05 1.9944565e-04 2.7434833e-05 
-5.3994787e-05 2.0314907e-04 4.2347107e-05 
-3.0160778e-05 1.5690635e-04 5.4771059e-05 
-8.8531335e-05 2.3318806e-05 1.1543791e-04 
-9.9274126e-05 -2.4634181e-04 1.3543371e-04 
-1.7553907e-04 -7.0868747e-04 2.2205566e-04 
-2.0837685e-04 -1.4112300e-03 1.5661397e-04 
-3.0561548e-04 -2.3791068e-03 2.4416059e-04 
-3.5410613e-04 -3.5265239e-03 3.9764313e-05 
-4.3177017e-04 -4.6331072e-03 8.4487569e-05 
-4.5587827e-04 -5.1292335e-03 -5.4978282e-05 
-4.1346933e-04 -4.8962170e-03 -1.9590162e-04 
-3.8468128e-04 -4.5669344e-03 -2.0520536e-04 
-3.0639675e-04 -4.5222905e-03 -2.3397167e-04 
-2.9069098e-04 -4.5789639e-03 -2.7624422e-04 
-2.1135823e-04 -4.2104372e-03 -3.3270492e-04 
-1.5675838e-04 -3.0922613e-03 -1.8169876e-04 
-5.7222129e-05 -1.8770068e-03 -2.5019739e-04 
1.6397456e-06 -8.8187377e-04 -6.9907037e-05 
1.8342962e-05 -2.3102849e-04 -6.5741762e-05 
2.4448012e-05 1.1417530e-04 8.4776302e-06 
2.0313752e-05 2.4137864e-04 3.1067295e-05 
2.5742725e-06 2.4067714e-04 6.8190886e-05 
-1.2691171e-05 1.8355944e-04 8.8853063e-05 
-4.9121521e-05 1.1172355e-04 9.8174613e-05 
-4.9975493e-05 4.8899386e-05 1.2975980e-06 
-4.9232163e-05 7.6688502e-06 -2.8625014e-05 
-1.5208162e-05 -9.8897526e-06 -5.8723868e-05 
-4.4443141e-06 -1.0600324e-05 -5.6287372e-05 
1.7343096e-05 -3.9198808e-06 -4.4608718e-05 
2.2176022e-05 2.5126351e-06 -2.6242858e-05 
1.9325984e-05 4.1761282e-06 -5.0866443e-06 
1.3952959e-05 2.4215053e-06 3.8047667e-06 
5.2889800e-06 -6.3877360e-07 8.9107180e-06 
5.1512040e-07 -3.1956658e-06 9.9807612e-06 
-2.7552367e-06 -4.4712160e-06 6.5948429e-06 
-4.0448749e-06 -4.8235934e-06 4.1565672e-06 
-3.6801932e-06 -4.4418011e-06 1.0290117e-06 
-2.4108647e-06 -3.3526890e-06 -1.4251944e-07 
-1.7070276e-06 -1.5848746e-06 -1.5609352e-07 
-2.4820230e-07 4.4902407e-07 -9.9607985e-07 
8.8980534e-07 2.1972510e-06 -4.3664949e-07 
1.0266649e-06 3.0794761e-06 5.8388116e-07 
9.5771316e-07 2.7800888e-06 -3.7518629e-07 
-2.7208367e-07 1.6496335e-06 -3.0483906e-07 
-6.8687747e-08 2.8574891e-07 1.2898266e-07 
5.5858123e-07 -8.2745839e-07 -1.6443444e-07 
-5.7078580e-08 -1.4716177e-06 1.0163700e-07 
0.0000000e+00 -1.2052106e-04 0.0000000e+00 
0.0000000e+00 -1.1720748e-04 0.0000000e+00 
0.0000000e+00 -1.0866507e-04 0.0000000e+00 
0.0000000e+00 -9.7114433e-05 0.0000000e+00 
0.0000000e+00 -8.2279883e-05 0.0000000e+00 
0.0000000e+00 -6.2406216e-05 0.0000000e+00 
0.0000000e+00 -3.5960336e-05 0.0000000e+00 
0.0000000e+00 -3.1778177e-06 0.0000000e+00 
0.0000000e+00 3.3794629e-05 0.0000000e+00 
0.0000000e+00 7.2035364e-05 0.0000000e+00 
0.0000000e+00 1.0916657e-04 0.0000000e+00 
0.0000000e+00 1.4221207e-04 0.0000000e+00 
0.0000000e+00 1.6574287e-04 0.0000000e+00 
0.0000000e+00 1.6926990e-04 0.0000000e+00 
0.0000000e+00 1.3307002e-04 0.0000000e+00 
0.0000000e+00 2.3788612e-05 0.0000000e+00 
0.0000000e+00 -2.0538746e-04 0.0000000e+00 
0.0000000e+00 -6.1058486e-04 0.0000000e+00 
0.0000000e+00 -1.2469466e-03 0.0000000e+00 
0.0000000e+00 -2.1466643e-03 0.0000000e+00 
0.0000000e+00 -3.2627413e-03 0.0000000e+00 
0.0000000e+00 -4.4007939e-03 0.0000000e+00 
0.0000000e+00 -5.0800187e-03 0.0000000e+00 
0.0000000e+00 -4.9341046e-03 0.0000000e+00 
0.0000000e+00 -4.5871711e-03 0.0000000e+00 
0.0000000e+00 -4.4798604e-03 0.0000000e+00 
0.0000000e+00 -4.5539998e-03 0.0000000e+00 
0.0000000e+00 -4.3257331e-03 0.0000000e+00 
0.0000000e+00 -3.3110592e-03 0.0000000e+00 
0.0000000e+00 -2.0691189e-03 0.0000000e+00 
0.0000000e+00 -1.0189509e-03 0.0000000e+00 
0.0000000e+00 -3.0485223e-04 0.0000000e+00 
0.0000000e+00 9.1854592e-05 0.0000000e+00 
0.0000000e+00 2.5358744e-04 0.0000000e+00 
0.0000000e+00 2.6853423e-04 0.0000000e+00 
0.0000000e+00 2.0744580e-04 0.0000000e+00 
0.0000000e+00 1.2115941e-04 0.0000000e+00 
0.0000000e+00 3.9402657e-05 0.0000000e+00 
0.0000000e+00 -2.3987965e-05 0.0000000e+00 
0.0000000e+00 -6.4902160e-05 0.0000000e+00 
0.0000000e+00 -8.6181411e-05 0.0000000e+00 
0.0000000e+00 -9.2942966e-05 0.0000000e+00 
0.0000000e+00 -8.9670844e-05 0.0000000e+00 
0.0000000e+00 -7.8355086e-05 0.0000000e+00 
0.0000000e+00 -5.8878253e-05 0.0000000e+00 
0.0000000e+00 -3.1581909e-05 0.0000000e+00 
0.0000000e+00 1.5621290e-06 0.0000000e+00 
0.0000000e+00 3.6940412e-05 0.0000000e+00 
0.0000000e+00 7.1683062e-05 0.0000000e+00 
0.0000000e+00 1.0554513e-04 0.0000000e+00 
0.0000000e+00 1.4030241e-04 0.0000000e+00 
0.0000000e+00 1.7402663e-04 0.0000000e+00 
0.0000000e+00 2.0024934e-04 0.0000000e+00 
0.0000000e+00 2.0380973e-04 0.0000000e+00 
0.0000000e+00 1.5765443e-04 0.0000000e+00 
0.0000000e+00 2.3904715e-05 0.0000000e+00 
0.0000000e+00 -2.4654873e-04 0.0000000e+00 
0.0000000e+00 -7.0978742e-04 0.0000000e+00 
0.0000000e+00 -1.4166951e-03 0.0000000e+00 
0.0000000e+00 -2.3865693e-03 0.0000000e+00 
0.0000000e+00 -3.5454421e-03 0.0000000e+00 
0.0000000e+00 -4.6527870e-03 0.0000000e+00 
0.0000000e+00 -5.1614684e-03 0.0000000e+00 
0.0000000e+00 -4.9173962e-03 0.0000000e+00 
0.0000000e+00 -4.5954124e-03 0.0000000e+00 
0.0000000e+00 -4.5415903e-03 0.0000000e+00 
0.0000000e+00 -4.6097580e-03 0.0000000e+00 
0.0000000e+00 -4.2316732e-03 0.0000000e+00 
0.0000000e+00 -3.1161951e-03 0.0000000e+00 
0.0000000e+00 -1.8869394e-03 0.0000000e+00 
0.0000000e+00 -8.8935223e-04 0.0000000e+00 
0.0000000e+00 -2.3316585e-04 0.0000000e+00 
0.0000000e+00 1.1451435e-04 0.0000000e+00 
0.0000000e+00 2.4260662e-04 0.0000000e+00 
0.0000000e+00 2.4232283e-04 0.0000000e+00 
0.0000000e+00 1.8450241e-04 0.0000000e+00 
0.0000000e+00 1.1225152e-04 0.0000000e+00 
0.0000000e+00 4.9425755e-05 0.0000000e+00 
0.0000000e+00 8.1191811e-06 0.0000000e+00 
0.0000000e+00 -9.7958928e-06 0.0000000e+00 
0.0000000e+00 -1.0754346e-05 0.0000000e+00 
0.0000000e+00 -4.1149415e-06 0.0000000e+00 
0.0000000e+00 2.2212128e-06 0.0000000e+00 
0.0000000e+00 4.1623539e-06 0.0000000e+00 
0.0000000e+00 2.4727949e-06 0.0000000e+00 
0.0000000e+00 -5.8068747e-07 0.0000000e+00 
0.0000000e+00 -3.1476011e-06 0.0000000e+00 
0.0000000e+00 -4.4890285e-06 0.0000000e+00 
0.0000000e+00 -4.8386628e-06 0.0000000e+00 
0.0000000e+00 -4.4385483e-06 0.0000000e+00 
0.0000000e+00 -3.3298691e-06 0.0000000e+00 
0.0000000e+00 -1.5813980e-06 0.0000000e+00 
0.0000000e+00 4.4183292e-07 0.0000000e+00 
0.0000000e+00 2.1765106e-06 0.0000000e+00 
0.0000000e+00 3.0440733e-06 0.0000000e+00 
0.0000000e+00 2.7755482e-06 0.0000000e+00 
0.0000000e+00 1.6685883e-06 0.0000000e+00 
0.0000000e+00 3.0707565e-07 0.0000000e+00 
0.0000000e+00 -8.1496597e-07 0.0000000e+00 
0.0000000e+00 -1.4766504e-06 0.0000000e+00 
0.0000000e+00 -1.6834772e-06 0.0000000e+00 
-2.4646348e-05 1.9322576e-04 -4.0089544e-06 
3.3022639e-05 2.6729027e-05 6.6877205e-06 
4.0291343e-05 4.2464885e-06 -6.4830219e-06 
2.4302324e-05 2.7724260e-05 -9.7410812e-06 
0.0000000e+00 -1.1004895e-04 0.0000000e+00 
0.0000000e+00 0.0000000e+00 0.0000000e+00 
0.0000000e+00 0.0000000e+00 0.0000000e+00 
0.0000000e+00 0.0000000e+00 0.0000000e+00 
0.0000000e+00 0.0000000e+00 0.0000000e+00 
0.0000000e+00 0.0000000e+00 0.0000000e+00 
0.0000000e+00 0.0000000e+00 0.0000000e+00 
0.0000000e+00 0.0000000e+00 0.0000000e+00 
0.0000000e+00 0.0000000e+00 0.0000000e+00 
0.0000000e+00 0.0000000e+00 0.0000000e+00 
0.0000000e+00 0.0000000e+00 0.0000000e+00 
0.0000000e+00 0.0000000e+00 0.0000000e+00 
0.0000000e+00 0.0000000e+00 0.0000000e+00 
0.0000000e+00 0.0000000e+00 0.0000000e+00 
0.0000000e+00 0.0000000e+00 0.0000000e+00 
0.0000000e+00 0.0000000e+00 0.0000000e+00 
0.0000000e+00 0.0000000e+00 0.0000000e+00 
0.0000000e+00 0.0000000e+00 0.0000000e+00 
0.0000000e+00 0.0000000e+00 0.0000000e+00 
0.0000000e+00 0.0000000e+00 0.0000000e+00 
0.0000000e+00 0.0000000e+00 0.0000000e+00 
0.0000000e+00 0.0000000e+00 0.0000000e+00 
0.0000000e+00 0.0000000e+00 0.0000000e+00 
0.0000000e+00 0.0000000e+00 0.0000000e+00 
0.0000000e+00 0.0000000e+00 0.0000000e+00 
0.0000000e+00 0.0000000e+00 0.0000000e+00 
0.0000000e+00 0.0000000e+00 0.0000000e+00 
0.0000000e+00 0.0000000e+00 0.0000000e+00 
0.0000000e+00 0.0000000e+00 0.0000000e+00 
0.0000000e+00 0.0000000e+00 0.0000000e+00 
0.0000000e+00 0.0000000e+00 0.0000000e+00 
0.0000000e+00 0.0000000e+00 0.0000000e+00 
0.0000000e+00 0.0000000e+00 0.0000000e+00 
0.0000000e+00 0.0000000e+00 0.0000000e+00 
0.0000000e+00 0.0000000e+00 0.0000000e+00 
0.0000000e+00 0.0000000e+00 0.0000000e+00 
0.0000000e+00 0.0000000e+00 0.0000000e+00 
0.0000000e+00 0.0000000e+00 0.0000000e+00 
0.0000000e+00 0.0000000e+00 0.0000000e+00 
0.0000000e+00 0.0000000e+00 0.0000000e+00 
0.0000000e+00 0.0000000e+00 0.0000000e+00 
0.0000000e+00 0.0000000e+00 0.0000000e+00 
0.0000000e+00 0.0000000e+00 0.0000000e+00 
0.0000000e+00 0.0000000e+00 0.0000000e+00 
0.0000000e+00 0.0000000e+00 0.0000000e+00 
0.0000000e+00 0.0000000e+00 0.0000000e+00 
0.0000000e+00 0.0000000e+00 0.0000000e+00 
0.0000000e+00 0.0000000e+00 0.0000000e+00 
0.0000000e+00 0.0000000e+00 0.0000000e+00 
0.0000000e+00 0.0000000e+00 0.0000000e+00 
0.0000000e+00 0.0000000e+00 0.0000000e+00 
0.0000000e+00 0.0000000e+00 0.0000000e+00 
0.0000000e+00 0.0000000e+00 0.0000000e+00 
0.0000000e+00 0.0000000e+00 0.0000000e+00 
0.0000000e+00 0.0000000e+00 0.0000000e+00 
0.0000000e+00 0.0000000e+00 0.0000000e+00 
0.0000000e+00 0.0000000e+00 0.0000000e+00 
0.0000000e+00 0.0000000e+00 0.0000000e+00 
0.0000000e+00 0.0000000e+00 0.0000000e+00 
0.0000000e+00 0.0000000e+00 0.0000000e+00 
0.0000000e+00 0.0000000e+00 0.0000000e+00 
0.0000000e+00 0.0000000e+00 0.0000000e+00 
0.0000000e+00 0.0000000e+00 0.0000000e+00 
0.0000000e+00 0.0000000e+00 0.0000000e+00 
0.0000000e+00 0.0000000e+00 0.0000000e+00 
0.0000000e+00 0.0000000e+00 0.0000000e+00 
0.0000000e+00 0.0000000e+00 0.0000000e+00 
0.0000000e+00 0.0000000e+00 0.0000000e+00 
0.0000000e+00 0.0000000e+00 0.0000000e+00 
0.0000000e+00 0.0000000e+00 0.0000000e+00 
0.0000000e+00 0.0000000e+00 0.0000000e+00 
0.0000000e+00 0.0000000e+00 0.0000000e+00 
0.0000000e+00 0.0000000e+00 0.0000000e+00 
0.0000000e+00 0.0000000e+00 0.0000000e+00 
0.0000000e+00 0.0000000e+00 0.0000000e+00 
0.0000000e+00 0.0000000e+00 0.0000000e+00 
0.0000000e+00 0.0000000e+00 0.0000000e+00 
0.0000000e+00 0.0000000e+00 0.0000000e+00 
0.0000000e+00 0.0000000e+00 0.0000000e+00 
0.0000000e+00 0.0000000e+00 0.0000000e+00 
0.0000000e+00 0.0000000e+00 0.0000000e+00 
0.0000000e+00 0.0000000e+00 0.0000000e+00 
0.0000000e+00 0.0000000e+00 0.0000000e+00 
0.0000000e+00 0.0000000e+00 0.0000000e+00 
0.0000000e+00 0.0000000e+00 0.0000000e+00 
0.0000000e+00 0.0000000e+00 0.0000000e+00 
0.0000000e+00 0.0000000e+00 0.0000000e+00 
0.0000000e+00 0.0000000e+00 0.0000000e+00 
0.0000000e+00 0.0000000e+00 0.0000000e+00 
0.0000000e+00 0.0000000e+00 0.0000000e+00 
0.0000000e+00 0.0000000e+00 0.0000000e+00 
0.0000000e+00 0.0000000e+00 0.0000000e+00 
0.0000000e+00 0.0000000e+00 0.0000000e+00 
0.0000000e+00 0.0000000e+00 0.0000000e+00 
0.0000000e+00 0.0000000e+00 0.0000000e+00 
0.0000000e+00 0.0000000e+00 0.0000000e+00 
0.0000000e+00 0.0000000e+00 0.0000000e+00 
0.0000000e+00 0.0000000e+00 0.0000000e+00 
0.0000000e+00 0.0000000e+00 0.0000000e+00 
0.0000000e+00 0.0000000e+00 0.0000000e+00 
0.0000000e+00 0.0000000e+00 0.0000000e+00 
0.0000000e+00 0.0000000e+00 0.0000000e+00 
0.0000000e+00 0.0000000e+00 0.0000000e+00 
0.0000000e+00 0.0000000e+00 0.0000000e+00 
0.0000000e+00 0.0000000e+00 0.0000000e+00 
0.0000000e+00 0.0000000e+00 0.0000000e+00 
0.0000000e+00 0.0000000e+00 0.0000000e+00 
-6.5924041e-06 6.4665014e-06 9.5941650e-06 
-2.7460665e-06 1.1702799e-05 5.9232843e-06 
3.1356401e-06 1.3606433e-05 1.2710311e-06 
9.4171401e-06 1.4871654e-05 -3.3828480e-06 
1.6574331e-05 1.2599483e-05 -7.6198853e-06 
2.3350412e-05 9.7089287e-06 -9.9916942e-06 
2.8982104e-05 1.0789952e-05 -1.0857330e-05 
3.2329095e-05 1.1332286e-05 -1.1012989e-05 
3.6720197e-05 1.0972631e-05 -1.0596397e-05 
3.8216938e-05 2.0842640e-06 -1.2986889e-05 
3.7944636e-05 -4.6107207e-06 -1.3313369e-05 
3.9230865e-05 -1.0108226e-05 -1.4704032e-05 
3.2124208e-05 -1.1163855e-05 -1.1687468e-05 
2.0258827e-05 -1.0851540e-05 -4.9650594e-06 
1.2721534e-05 -6.8317358e-06 2.2769564e-06 
1.0742772e-05 -7.3703069e-07 1.1928849e-05 
7.4821783e-06 -1.2047590e-06 2.1097267e-05 
2.5694678e-06 -4.2737083e-06 2.3399043e-05 
-4.2763413e-06 -4.6451623e-06 2.1297234e-05 
-5.1160755e-06 -1.3641796e-06 1.7381652e-05 
-4.8379266e-06 7.6805190e-06 1.0509788e-05 
-8.3341030e-07 1.4528410e-05 7.6685768e-07 
5.4541324e-06 1.5397933e-05 -4.1823132e-06 
1.2112298e-05 1.3333364e-05 -7.3457813e-06 
1.8333863e-05 1.3594807e-05 -7.2168314e-06 
2.6442527e-05 1.3143522e-05 -6.8010049e-06 
3.4502686e-05 1.2847870e-05 -6.6224898e-06 
3.9663762e-05 1.0425983e-05 -1.0352528e-05 
4.1240070e-05 7.2252678e-06 -1.3470896e-05 
3.9608069e-05 3.7071829e-06 -1.3710778e-05 
3.6674348e-05 -3.3036767e-06 -1.0539704e-05 
3.0436158e-05 -1.2096338e-05 -1.0666830e-05 
2.3684279e-05 -8.1169210e-06 -2.7408664e-06 
1.6196325e-05 -2.6361636e-06 8.4065887e-06 
1.4151386e-05 -5.9158724e-06 1.3020467e-05 
1.0246607e-05 -6.7106139e-06 1.8631928e-05 
8.5045267e-06 -4.0592313e-06 2.2097953e-05 
5.8512333e-06 -1.5424471e-06 1.9840978e-05 
5.0200551e-06 -3.6516517e-06 1.2191188e-05 
3.0391934e-06 -3.4777847e-06 5.1666257e-06 
1.1780668e-06 -1.0168139e-07 1.3711350e-07 
-1.5356625e-07 2.3901275e-06 -3.5177616e-06 
-1.1902951e-06 1.0924360e-06 -5.6422004e-06 
-1.6580022e-06 -6.1685614e-07 -3.1463758e-06 
-2.9886579e-07 1.3307881e-07 -1.1890695e-07 
5.5236762e-07 1.9975914e-07 1.1213967e-06 
2.3304497e-07 -3.0641921e-08 1.2382669e-06 
-2.3055769e-08 -2.7287197e-07 3.0717266e-07 
3.3087240e-08 7.2166294e-08 -2.8190005e-08 
0.0000000e+00 1.9666270e-05 0.0000000e+00 
0.0000000e+00 2.5604746e-05 0.0000000e+00 
0.0000000e+00 1.3297969e-05 0.0000000e+00 
0.0000000e+00 8.2677366e-07 0.0000000e+00 
0.0000000e+00 -1.2249900e-05 0.0000000e+00 
0.0000000e+00 -1.3429808e-05 0.0000000e+00 
0.0000000e+00 -3.3622531e-05 0.0000000e+00 
0.0000000e+00 -1.0271407e-04 0.0000000e+00 
0.0000000e+00 -2.2585680e-04 0.0000000e+00 
0.0000000e+00 -3.9394628e-04 0.0000000e+00 
0.0000000e+00 -4.7383091e-04 0.0000000e+00 
0.0000000e+00 -5.0223415e-04 0.0000000e+00 
0.0000000e+00 -4.2421615e-04 0.0000000e+00 
0.0000000e+00 -3.0215003e-04 0.0000000e+00 
0.0000000e+00 -1.7028803e-04 0.0000000e+00 
0.0000000e+00 -3.9196551e-05 0.0000000e+00 
0.0000000e+00 -2.5284703e-06 0.0000000e+00 
0.0000000e+00 1.2604047e-05 0.0000000e+00 
0.0000000e+00 1.0879688e-05 0.0000000e+00 
0.0000000e+00 1.5547932e-05 0.0000000e+00 
0.0000000e+00 1.4425987e-05 0.0000000e+00 
0.0000000e+00 -9.1331728e-08 0.0000000e+00 
0.0000000e+00 -1.1341687e-05 0.0000000e+00 
0.0000000e+00 -1.9531888e-05 0.0000000e+00 
0.0000000e+00 -3.9648952e-05 0.0000000e+00 
0.0000000e+00 -5.6806490e-05 0.0000000e+00 
0.0000000e+00 -5.7315803e-05 0.0000000e+00 
0.0000000e+00 -1.1672321e-04 0.0000000e+00 
0.0000000e+00 -2.9035268e-04 0.0000000e+00 
0.0000000e+00 -3.9971096e-04 0.0000000e+00 
0.0000000e+00 -4.9814425e-04 0.0000000e+00 
0.0000000e+00 -4.8773937e-04 0.0000000e+00 
0.0000000e+00 -4.5068382e-04 0.0000000e+00 
0.0000000e+00 -3.0092581e-04 0.0000000e+00 
0.0000000e+00 -1.2048032e-04 0.0000000e+00 
0.0000000e+00 -1.5541731e-05 0.0000000e+00 
0.0000000e+00 1.4039583e-05 0.0000000e+00 
0.0000000e+00 1.6771921e-05 0.0000000e+00 
0.0000000e+00 2.8224681e-06 0.0000000e+00 
0.0000000e+00 2.5937306e-06 0.0000000e+00 
0.0000000e+00 4.0993527e-06 0.0000000e+00 
0.0000000e+00 -2.7516478e-06 0.0000000e+00 
0.0000000e+00 -2.8841375e-06 0.0000000e+00 
0.0000000e+00 6.9916854e-07 0.0000000e+00 
0.0000000e+00 1.5496857e-06 0.0000000e+00 
0.0000000e+00 1.8064149e-08 0.0000000e+00 
0.0000000e+00 -6.5102699e-07 0.0000000e+00 
0.0000000e+00 -9.1462425e-07 0.0000000e+00 
0.0000000e+00 -3.9933963e-07 0.0000000e+00 
-8.2968027e-06 3.7132154e-06 1.0171021e-05 
-3.6605077e-06 8.3591458e-06 1.2888398e-05 
2.2545280e-06 4.4235753e-06 1.4950733e-05 
4.7777216e-06 -3.6063111e-07 6.2975628e-06 
-1.3125415e-08 -1.2991960e-07 1.0746508e-07 
1.1002349e-07 -3.1112123e-07 -2.5770365e-07 
-1.1985654e-07 3.0011648e-08 -5.7378963e-07 
-1.3487787e-08 6.5943366e-09 -3.8669364e-07 
-6.0474076e-06 4.4320259e-06 5.2510183e-07 
-4.3899340e-07 -1.1572836e-07 -3.9289071e-07 
6.7241654e-06 -1.7998729e-05 3.9980405e-06 
-3.7618878e-07 5.2145497e-06 2.4192719e-05 
0.0000000e+00 1.6329454e-05 0.0000000e+00 
0.0000000e+00 1.4147312e-05 0.0000000e+00 
0.0000000e+00 1.9888357e-06 0.0000000e+00 
0.0000000e+00 -6.6358489e-06 0.0000000e+00 
0.0000000e+00 -2.0520945e-05 0.0000000e+00 
0.0000000e+00 -3.1778727e-05 0.0000000e+00 
0.0000000e+00 -6.7011199e-05 0.0000000e+00 
0.0000000e+00 -2.1103653e-04 0.0000000e+00 
0.0000000e+00 -4.8690566e-04 0.0000000e+00 
0.0000000e+00 -8.5339113e-04 0.0000000e+00 
0.0000000e+00 -1.1409089e-03 0.0000000e+00 
0.0000000e+00 -1.0825458e-03 0.0000000e+00 
0.0000000e+00 -9.3659858e-04 0.0000000e+00 