# vtk DataFile Version 4.0
vtk output
ASCII
DATASET UNSTRUCTURED_GRID
POINTS 1920 float
0.0000000e+00 0.0000000e+00 0.0000000e+00 
0.0000000e+00 0.0000000e+00 5.0000000e+01 
5.0000000e+00 0.0000000e+00 0.0000000e+00 
5.0000000e+00 0.0000000e+00 5.0000000e+01 
5.0000000e+00 1.0000000e+00 0.0000000e+00 
5.0000000e+00 1.0000000e+00 5.0000000e+01 
0.0000000e+00 1.0000000e+00 0.0000000e+00 
0.0000000e+00 1.0000000e+00 5.0000000e+01 
5.0000000e+00 2.0000000e+00 0.0000000e+00 
5.0000000e+00 2.0000000e+00 5.0000000e+01 
3.0000000e+00 2.0000000e+00 0.0000000e+00 
3.0000000e+00 2.0000000e+00 5.0000000e+01 
0.0000000e+00 2.0000000e+00 0.0000000e+00 
0.0000000e+00 2.0000000e+00 5.0000000e+01 
1.5000000e+00 3.0000000e+00 0.0000000e+00 
1.5000000e+00 3.0000000e+00 5.0000000e+01 
7.5000000e-01 3.0000000e+00 0.0000000e+00 
7.5000000e-01 3.0000000e+00 5.0000000e+01 
0.0000000e+00 3.0000000e+00 0.0000000e+00 
0.0000000e+00 3.0000000e+00 5.0000000e+01 
7.5000000e-01 3.0000000e+00 5.0000000e-01 
7.5000000e-01 3.0000000e+00 1.0000000e+00 
7.5000000e-01 3.0000000e+00 1.5000000e+00 
7.5000000e-01 3.0000000e+00 2.0000000e+00 
7.5000000e-01 3.0000000e+00 2.5000000e+00 
7.5000000e-01 3.0000000e+00 3.0000000e+00 
7.5000000e-01 3.0000000e+00 3.5000000e+00 
7.5000000e-01 3.0000000e+00 4.0000000e+00 
7.5000000e-01 3.0000000e+00 4.5000000e+00 
7.5000000e-01 3.0000000e+00 5.0000000e+00 
7.5000000e-01 3.0000000e+00 5.5000000e+00 
7.5000000e-01 3.0000000e+00 6.0000000e+00 
7.5000000e-01 3.0000000e+00 6.5000000e+00 
7.5000000e-01 3.0000000e+00 7.0000000e+00 
7.5000000e-01 3.0000000e+00 7.5000000e+00 
7.5000000e-01 3.0000000e+00 8.0000000e+00 
7.5000000e-01 3.0000000e+00 8.5000000e+00 
7.5000000e-01 3.0000000e+00 9.0000000e+00 
7.5000000e-01 3.0000000e+00 9.5000000e+00 
7.5000000e-01 3.0000000e+00 1.0000000e+01 
7.5000000e-01 3.0000000e+00 1.0500000e+01 
7.5000000e-01 3.0000000e+00 1.1000000e+01 
7.5000000e-01 3.0000000e+00 1.1500000e+01 
7.5000000e-01 3.0000000e+00 1.2000000e+01 
7.5000000e-01 3.0000000e+00 1.2500000e+01 
7.5000000e-01 3.0000000e+00 1.3000000e+01 
7.5000000e-01 3.0000000e+00 1.3500000e+01 
7.5000000e-01 3.0000000e+00 1.4000000e+01 
7.5000000e-01 3.0000000e+00 1.4500000e+01 
7.5000000e-01 3.0000000e+00 1.5000000e+01 
7.5000000e-01 3.0000000e+00 1.5500000e+01 
7.5000000e-01 3.0000000e+00 1.6000000e+01 
7.5000000e-01 3.0000000e+00 1.6500000e+01 
7.5000000e-01 3.0000000e+00 1.7000000e+01 
7.5000000e-01 3.0000000e+00 1.7500000e+01 
7.5000000e-01 3.0000000e+00 1.8000000e+01 
7.5000000e-01 3.0000000e+00 1.8500000e+01 
7.5000000e-01 3.0000000e+00 1.9000000e+01 
7.5000000e-01 3.0000000e+00 1.9500000e+01 
7.5000000e-01 3.0000000e+00 2.0000000e+01 
7.5000000e-01 3.0000000e+00 2.0500000e+01 
7.5000000e-01 3.0000000e+00 2.1000000e+01 
7.5000000e-01 3.0000000e+00 2.1500000e+01 
7.5000000e-01 3.0000000e+00 2.2000000e+01 
7.5000000e-01 3.0000000e+00 2.2500000e+01 
7.5000000e-01 3.0000000e+00 2.3000000e+01 
7.5000000e-01 3.0000000e+00 2.3500000e+01 
7.5000000e-01 3.0000000e+00 2.4000000e+01 
7.5000000e-01 3.0000000e+00 2.4500000e+01 
7.5000000e-01 3.0000000e+00 2.5000000e+01 
7.5000000e-01 3.0000000e+00 2.5500000e+01 
7.5000000e-01 3.0000000e+00 2.6000000e+01 
7.5000000e-01 3.0000000e+00 2.6500000e+01 
7.5000000e-01 3.0000000e+00 2.7000000e+01 
7.5000000e-01 3.0000000e+00 2.7500000e+01 
7.5000000e-01 3.0000000e+00 2.8000000e+01 
7.5000000e-01 3.0000000e+00 2.8500000e+01 
7.5000000e-01 3.0000000e+00 2.9000000e+01 
7.5000000e-01 3.0000000e+00 2.9500000e+01 
7.5000000e-01 3.0000000e+00 3.0000000e+01 
7.5000000e-01 3.0000000e+00 3.0500000e+01 
7.5000000e-01 3.0000000e+00 3.1000000e+01 
7.5000000e-01 3.0000000e+00 3.1500000e+01 
7.5000000e-01 3.0000000e+00 3.2000000e+01 
7.5000000e-01 3.0000000e+00 3.2500000e+01 
7.5000000e-01 3.0000000e+00 3.3000000e+01 
7.5000000e-01 3.0000000e+00 3.3500000e+01 
7.5000000e-01 3.0000000e+00 3.4000000e+01 
7.5000000e-01 3.0000000e+00 3.4500000e+01 
7.5000000e-01 3.0000000e+00 3.5000000e+01 
7.5000000e-01 3.0000000e+00 3.5500000e+01 
7.5000000e-01 3.0000000e+00 3.6000000e+01 
7.5000000e-01 3.0000000e+00 3.6500000e+01 
7.5000000e-01 3.0000000e+00 3.7000000e+01 
7.5000000e-01 3.0000000e+00 3.7500000e+01 
7.5000000e-01 3.0000000e+00 3.8000000e+01 
7.5000000e-01 3.0000000e+00 3.8500000e+01 
7.5000000e-01 3.0000000e+00 3.9000000e+01 
7.5000000e-01 3.0000000e+00 3.9500000e+01 
7.5000000e-01 3.0000000e+00 4.0000000e+01 
7.5000000e-01 3.0000000e+00 4.0500000e+01 
7.5000000e-01 3.0000000e+00 4.1000000e+01 
7.5000000e-01 3.0000000e+00 4.1500000e+01 
7.5000000e-01 3.0000000e+00 4.2000000e+01 
7.5000000e-01 3.0000000e+00 4.2500000e+01 
7.5000000e-01 3.0000000e+00 4.3000000e+01 
7.5000000e-01 3.0000000e+00 4.3500000e+01 
7.5000000e-01 3.0000000e+00 4.4000000e+01 
7.5000000e-01 3.0000000e+00 4.4500000e+01 
7.5000000e-01 3.0000000e+00 4.5000000e+01 
7.5000000e-01 3.0000000e+00 4.5500000e+01 
7.5000000e-01 3.0000000e+00 4.6000000e+01 
7.5000000e-01 3.0000000e+00 4.6500000e+01 
7.5000000e-01 3.0000000e+00 4.7000000e+01 
7.5000000e-01 3.0000000e+00 4.7500000e+01 
7.5000000e-01 3.0000000e+00 4.8000000e+01 
7.5000000e-01 3.0000000e+00 4.8500000e+01 
7.5000000e-01 3.0000000e+00 4.9000000e+01 
7.5000000e-01 3.0000000e+00 4.9500000e+01 
7.5000000e-01 3.0250001e+00 0.0000000e+00 
7.5000000e-01 3.0250001e+00 5.0000000e-01 
7.5000000e-01 3.0250001e+00 1.0000000e+00 
7.5000000e-01 3.0250001e+00 1.5000000e+00 
7.5000000e-01 3.0250001e+00 2.0000000e+00 
7.5000000e-01 3.0250001e+00 2.5000000e+00 
7.5000000e-01 3.0250001e+00 3.0000000e+00 
7.5000000e-01 3.0250001e+00 3.5000000e+00 
7.5000000e-01 3.0250001e+00 4.0000000e+00 
7.5000000e-01 3.0250001e+00 4.5000000e+00 
7.5000000e-01 3.0250001e+00 5.0000000e+00 
7.5000000e-01 3.0250001e+00 5.5000000e+00 
7.5000000e-01 3.0250001e+00 6.0000000e+00 
7.5000000e-01 3.0250001e+00 6.5000000e+00 
7.5000000e-01 3.0250001e+00 7.0000000e+00 
7.5000000e-01 3.0250001e+00 7.5000000e+00 
7.5000000e-01 3.0250001e+00 8.0000000e+00 
7.5000000e-01 3.0250001e+00 8.5000000e+00 
7.5000000e-01 3.0250001e+00 9.0000000e+00 
7.5000000e-01 3.0250001e+00 9.5000000e+00 
7.5000000e-01 3.0250001e+00 1.0000000e+01 
7.5000000e-01 3.0250001e+00 1.0500000e+01 
7.5000000e-01 3.0250001e+00 1.1000000e+01 
7.5000000e-01 3.0250001e+00 1.1500000e+01 
7.5000000e-01 3.0250001e+00 1.2000000e+01 
7.5000000e-01 3.0250001e+00 1.2500000e+01 
7.5000000e-01 3.0250001e+00 1.3000000e+01 
7.5000000e-01 3.0250001e+00 1.3500000e+01 
7.5000000e-01 3.0250001e+00 1.4000000e+01 
7.5000000e-01 3.0250001e+00 1.4500000e+01 
7.5000000e-01 3.0250001e+00 1.5000000e+01 
7.5000000e-01 3.0250001e+00 1.5500000e+01 
7.5000000e-01 3.0250001e+00 1.6000000e+01 
7.5000000e-01 3.0250001e+00 1.6500000e+01 
7.5000000e-01 3.0250001e+00 1.7000000e+01 
7.5000000e-01 3.0250001e+00 1.7500000e+01 
7.5000000e-01 3.0250001e+00 1.8000000e+01 
7.5000000e-01 3.0250001e+00 1.8500000e+01 
7.5000000e-01 3.0250001e+00 1.9000000e+01 
7.5000000e-01 3.0250001e+00 1.9500000e+01 
7.5000000e-01 3.0250001e+00 2.0000000e+01 
7.5000000e-01 3.0250001e+00 2.0500000e+01 
7.5000000e-01 3.0250001e+00 2.1000000e+01 
7.5000000e-01 3.0250001e+00 2.1500000e+01 
7.5000000e-01 3.0250001e+00 2.2000000e+01 
7.5000000e-01 3.0250001e+00 2.2500000e+01 
7.5000000e-01 3.0250001e+00 2.3000000e+01 
7.5000000e-01 3.0250001e+00 2.3500000e+01 
7.5000000e-01 3.0250001e+00 2.4000000e+01 
7.5000000e-01 3.0250001e+00 2.4500000e+01 
7.5000000e-01 3.0250001e+00 2.5000000e+01 
7.5000000e-01 3.0250001e+00 2.5500000e+01 
7.5000000e-01 3.0250001e+00 2.6000000e+01 
7.5000000e-01 3.0250001e+00 2.6500000e+01 
7.5000000e-01 3.0250001e+00 2.7000000e+01 
7.5000000e-01 3.0250001e+00 2.7500000e+01 
7.5000000e-01 3.0250001e+00 2.8000000e+01 
7.5000000e-01 3.0250001e+00 2.8500000e+01 
7.5000000e-01 3.0250001e+00 2.9000000e+01 
7.5000000e-01 3.0250001e+00 2.9500000e+01 
7.5000000e-01 3.0250001e+00 3.0000000e+01 
7.5000000e-01 3.0250001e+00 3.0500000e+01 
7.5000000e-01 3.0250001e+00 3.1000000e+01 
7.5000000e-01 3.0250001e+00 3.1500000e+01 
7.5000000e-01 3.0250001e+00 3.2000000e+01 
7.5000000e-01 3.0250001e+00 3.2500000e+01 
7.5000000e-01 3.0250001e+00 3.3000000e+01 
7.5000000e-01 3.0250001e+00 3.3500000e+01 
7.5000000e-01 3.0250001e+00 3.4000000e+01 
7.5000000e-01 3.0250001e+00 3.4500000e+01 
7.5000000e-01 3.0250001e+00 3.5000000e+01 
7.5000000e-01 3.0250001e+00 3.5500000e+01 
7.5000000e-01 3.0250001e+00 3.6000000e+01 
7.5000000e-01 3.0250001e+00 3.6500000e+01 
7.5000000e-01 3.0250001e+00 3.7000000e+01 
7.5000000e-01 3.0250001e+00 3.7500000e+01 
7.5000000e-01 3.0250001e+00 3.8000000e+01 
7.5000000e-01 3.0250001e+00 3.8500000e+01 
7.5000000e-01 3.0250001e+00 3.9000000e+01 
7.5000000e-01 3.0250001e+00 3.9500000e+01 
7.5000000e-01 3.0250001e+00 4.0000000e+01 
7.5000000e-01 3.0250001e+00 4.0500000e+01 
7.5000000e-01 3.0250001e+00 4.1000000e+01 
7.5000000e-01 3.0250001e+00 4.1500000e+01 
7.5000000e-01 3.0250001e+00 4.2000000e+01 
7.5000000e-01 3.0250001e+00 4.2500000e+01 
7.5000000e-01 3.0250001e+00 4.3000000e+01 
7.5000000e-01 3.0250001e+00 4.3500000e+01 
7.5000000e-01 3.0250001e+00 4.4000000e+01 
7.5000000e-01 3.0250001e+00 4.4500000e+01 
7.5000000e-01 3.0250001e+00 4.5000000e+01 
7.5000000e-01 3.0250001e+00 4.5500000e+01 
7.5000000e-01 3.0250001e+00 4.6000000e+01 
7.5000000e-01 3.0250001e+00 4.6500000e+01 
7.5000000e-01 3.0250001e+00 4.7000000e+01 
7.5000000e-01 3.0250001e+00 4.7500000e+01 
7.5000000e-01 3.0250001e+00 4.8000000e+01 
7.5000000e-01 3.0250001e+00 4.8500000e+01 
7.5000000e-01 3.0250001e+00 4.9000000e+01 
7.5000000e-01 3.0250001e+00 4.9500000e+01 
7.5000000e-01 3.0250001e+00 5.0000000e+01 
1.5000000e+00 3.0000000e+00 2.5000000e+01 
3.0000000e+00 2.0000000e+00 2.5000000e+01 
4.0000000e+00 2.0000000e+00 2.5000000e+01 
5.0000000e+00 2.0000000e+00 2.5000000e+01 
0.0000000e+00 3.0000000e+00 2.5000000e+01 
0.0000000e+00 0.0000000e+00 1.0000000e+00 
0.0000000e+00 0.0000000e+00 2.0000000e+00 
0.0000000e+00 0.0000000e+00 3.0000000e+00 
0.0000000e+00 0.0000000e+00 4.0000000e+00 
0.0000000e+00 0.0000000e+00 5.0000000e+00 
[...]
POINT_DATA 1920
FIELD FieldData 3
DISPLACEMENT 3 1920  float
0.0000000e+00 0.0000000e+00 0.0000000e+00 
0.0000000e+00 0.0000000e+00 0.0000000e+00 
0.0000000e+00 0.0000000e+00 0.0000000e+00 
0.0000000e+00 0.0000000e+00 0.0000000e+00 
-4.6772018e-07 -8.1063090e-06 -1.6512033e-06 
2.3140413e-11 3.5843928e-10 -2.6249648e-11 
0.0000000e+00 3.1679716e-05 0.0000000e+00 
0.0000000e+00 -3.6624401e-09 0.0000000e+00 
1.6793565e-06 -6.5078498e-06 8.9895019e-07 
2.0197036e-10 3.1345654e-10 2.4924690e-10 
1.9371899e-05 2.1906353e-05 -2.9120134e-05 
1.1323947e-09 4.2316732e-09 3.4231251e-10 
0.0000000e+00 3.3920474e-05 0.0000000e+00 
0.0000000e+00 -6.0329548e-08 0.0000000e+00 
4.4284780e-06 5.4224151e-05 -4.2929198e-05 
2.3533676e-08 1.6438113e-08 3.3613283e-09 
6.1752803e-07 1.2108726e-04 -1.2517094e-05 
-1.6401521e-09 -8.0645890e-07 -3.6232461e-08 
0.0000000e+00 6.3449013e-05 0.0000000e+00 
0.0000000e+00 -1.1944996e-07 0.0000000e+00 
1.0560178e-05 9.7305536e-05 -2.2256227e-06 
1.2816977e-05 4.3794855e-05 2.6705973e-05 
1.3845022e-05 -2.2395172e-06 6.5995926e-05 
-1.5804212e-06 -2.3647020e-05 1.0160349e-04 
-3.5762263e-05 -4.8464441e-05 1.4706880e-04 
-3.5531080e-05 -1.4322047e-04 1.5727618e-04 
-6.9128582e-05 -3.7055573e-04 2.2551561e-04 
-7.5799100e-05 -7.5480971e-04 2.7228688e-04 
-1.3413446e-04 -1.2871062e-03 3.2728133e-04 
-2.1286886e-04 -1.9681216e-03 2.8119219e-04 
-3.0631511e-04 -2.8292111e-03 3.4693407e-04 
-3.0286156e-04 -3.8588501e-03 1.1237547e-04 
-3.9294217e-04 -4.9271598e-03 1.1884104e-04 
-4.7360046e-04 -5.5980720e-03 -1.1400061e-04 
-4.5616730e-04 -5.4516173e-03 -2.5426314e-04 
-3.9616259e-04 -4.9771965e-03 -2.5338214e-04 
-3.2995039e-04 -4.6887887e-03 -2.6962618e-04 
-2.6914573e-04 -4.5810221e-03 -2.7778983e-04 
-2.4934422e-04 -4.2851865e-03 -2.9207379e-04 
-1.8791245e-04 -3.2561743e-03 -2.5864391e-04 
-9.1622853e-05 -1.9895043e-03 -3.1726217e-04 
-4.4934397e-05 -9.1842888e-04 -1.5064381e-04 
3.8008150e-06 -2.2361337e-04 -1.3921708e-04 
2.4219235e-05 1.3794338e-04 3.5912525e-08 
2.6319833e-05 2.7005252e-04 2.6532516e-05 
1.4291457e-05 2.7992376e-04 3.3788561e-05 
1.1895288e-05 2.3382709e-04 4.4740871e-05 
7.2219359e-06 1.5654384e-04 7.1460358e-06 
-1.5686723e-08 6.5956963e-05 3.5047517e-06 
-1.3889534e-06 -1.2818047e-05 1.4830499e-06 
-9.1829397e-06 -5.7491405e-05 -1.5268130e-05 
-4.6982186e-06 -5.9875776e-05 5.1014410e-07 
-4.1252811e-06 -3.0985240e-05 2.4306844e-06 
-6.1856535e-06 4.0212817e-06 3.6601764e-06 
2.1302369e-06 2.4914125e-05 8.4413841e-06 
6.7288516e-07 2.4021223e-05 2.8088068e-06 
-1.5050258e-06 9.3329008e-06 -1.6596103e-05 
1.2438176e-06 2.4575979e-06 -1.0770129e-05 
4.5511315e-06 1.7486369e-05 -1.6653732e-05 
1.9227050e-06 4.8902974e-05 -1.5490266e-05 
4.7821977e-06 7.7605306e-05 1.4635450e-06 
7.8395706e-06 7.6594013e-05 1.2335546e-05 
1.9504193e-06 3.6727135e-05 5.8473252e-05 
8.2949364e-06 -2.5808697e-05 1.1852662e-04 
-2.0802876e-05 -1.0266845e-04 1.5871246e-04 
-5.1575309e-05 -2.1443263e-04 1.7664353e-04 
-9.9901306e-05 -4.1589438e-04 2.3679761e-04 
-2.1948415e-04 -7.8791816e-04 3.0679684e-04 
-1.5471988e-04 -1.3657021e-03 2.9813184e-04 
-2.4817619e-04 -2.1500937e-03 2.7798669e-04 
-2.7474746e-04 -3.1133178e-03 3.5690560e-04 
-4.5454875e-04 -4.1745310e-03 8.1640785e-05 
-4.6636746e-04 -5.1427586e-03 7.1152441e-05 
-4.7571294e-04 -5.6067184e-03 -1.0337069e-04 
-4.6557790e-04 -5.3921472e-03 -3.0429134e-04 
-4.2117466e-04 -4.9860785e-03 -2.8315143e-04 
-3.4244813e-04 -4.7921664e-03 -2.8620736e-04 
-3.4137824e-04 -4.6639577e-03 -3.0079292e-04 
-2.9774499e-04 -4.1978108e-03 -3.6647843e-04 
-2.2124652e-04 -3.0636289e-03 -2.8161390e-04 
-1.1685883e-04 -1.8112718e-03 -3.6764293e-04 
-4.4217919e-05 -7.9997675e-04 -1.7144524e-04 
1.1020999e-05 -1.6242066e-04 -1.3715794e-04 
3.2894997e-05 1.7175576e-04 8.6619266e-06 
2.7937538e-05 2.9802235e-04 4.1085023e-05 
2.0126427e-05 2.9689854e-04 3.8730581e-05 
1.8171222e-05 2.2449448e-04 4.7877118e-05 
4.9259602e-06 1.2316694e-04 7.0092824e-06 
-8.8372218e-07 3.4218567e-05 3.7007294e-06 
-1.1618226e-06 -2.0501722e-05 -1.6820574e-06 
-4.5354595e-06 -3.8264254e-05 -1.2078304e-05 
-2.7646245e-06 -3.2306845e-05 -2.7351102e-06 
-8.0753694e-07 -1.6540309e-05 -9.3634077e-07 
-2.1802521e-06 -8.1652786e-07 5.9017316e-07 
3.1890404e-06 9.8030305e-06 2.7957180e-06 
-2.0214286e-06 1.3052752e-05 -2.9821683e-06 
1.1090240e-06 7.1758777e-06 8.2902807e-07 
-4.0526029e-07 -4.7345984e-06 2.0470341e-06 
-1.5239746e-07 -1.3370868e-05 -3.0459860e-06 
2.7588914e-07 -1.2047924e-05 5.9304006e-07 
5.3703079e-08 -1.8934696e-06 4.7782970e-07 
-1.7871977e-07 8.4821095e-06 -1.2509728e-06 
3.3468453e-07 1.0856933e-05 1.0257434e-06 
2.1992929e-07 5.8769315e-06 -1.1748227e-07 
-1.2095447e-07 -1.0665565e-06 -4.3718367e-07 
3.1739557e-08 -5.4491966e-06 5.1235264e-07 
-1.4913481e-07 -5.5514170e-06 -4.0088628e-07 
-2.7131281e-07 -2.6327214e-06 -3.0979754e-07 
1.2256464e-07 1.2393675e-06 3.2724219e-07 
1.7922476e-07 3.8248240e-06 -2.1267315e-08 
-2.8383065e-09 3.2271853e-06 8.2636058e-09 
-3.3895624e-08 2.3042034e-07 9.5027836e-08 
-5.5148320e-08 -2.2819818e-06 -1.1684105e-07 
-5.4927732e-08 -2.3169412e-06 -5.3848797e-08 
2.5645251e-08 -3.3272300e-07 4.4556334e-08 
-1.4788799e-08 1.4133482e-06 -3.5459628e-08 
-2.2357979e-08 1.4816344e-06 1.6492301e-08 
1.0471863e-08 4.3274022e-07 -4.1298032e-09 
-1.3256053e-08 -4.9530149e-07 1.4503167e-08 
0.0000000e+00 1.2000659e-04 0.0000000e+00 
0.0000000e+00 9.6479875e-05 0.0000000e+00 
0.0000000e+00 4.4666114e-05 0.0000000e+00 
0.0000000e+00 -5.1740308e-08 0.0000000e+00 
0.0000000e+00 -2.1543545e-05 0.0000000e+00 
0.0000000e+00 -4.8105016e-05 0.0000000e+00 
0.0000000e+00 -1.4474588e-04 0.0000000e+00 
0.0000000e+00 -3.7254835e-04 0.0000000e+00 
0.0000000e+00 -7.5492536e-04 0.0000000e+00 
0.0000000e+00 -1.2859587e-03 0.0000000e+00 
0.0000000e+00 -1.9701300e-03 0.0000000e+00 
0.0000000e+00 -2.8349124e-03 0.0000000e+00 
0.0000000e+00 -3.8746851e-03 0.0000000e+00 
0.0000000e+00 -4.9487506e-03 0.0000000e+00 
0.0000000e+00 -5.6287171e-03 0.0000000e+00 
0.0000000e+00 -5.4711527e-03 0.0000000e+00 
0.0000000e+00 -5.0036306e-03 0.0000000e+00 
0.0000000e+00 -4.7080354e-03 0.0000000e+00 
0.0000000e+00 -4.6104454e-03 0.0000000e+00 
0.0000000e+00 -4.3091038e-03 0.0000000e+00 
0.0000000e+00 -3.2791165e-03 0.0000000e+00 
0.0000000e+00 -2.0028739e-03 0.0000000e+00 
0.0000000e+00 -9.2893792e-04 0.0000000e+00 
0.0000000e+00 -2.2596322e-04 0.0000000e+00 
0.0000000e+00 1.3835830e-04 0.0000000e+00 
0.0000000e+00 2.7207279e-04 0.0000000e+00 
0.0000000e+00 2.8187805e-04 0.0000000e+00 
0.0000000e+00 2.3435570e-04 0.0000000e+00 
0.0000000e+00 1.5657084e-04 0.0000000e+00 
0.0000000e+00 6.6298606e-05 0.0000000e+00 
0.0000000e+00 -1.2277719e-05 0.0000000e+00 
0.0000000e+00 -5.6920460e-05 0.0000000e+00 
0.0000000e+00 -5.9400187e-05 0.0000000e+00 
0.0000000e+00 -3.1054795e-05 0.0000000e+00 
0.0000000e+00 3.6759584e-06 0.0000000e+00 
0.0000000e+00 2.4227780e-05 0.0000000e+00 
0.0000000e+00 2.3153412e-05 0.0000000e+00 
0.0000000e+00 9.4625957e-06 0.0000000e+00 
0.0000000e+00 3.4269888e-06 0.0000000e+00 
0.0000000e+00 1.8412791e-05 0.0000000e+00 
0.0000000e+00 4.9529561e-05 0.0000000e+00 
0.0000000e+00 7.6778299e-05 0.0000000e+00 
0.0000000e+00 7.5210679e-05 0.0000000e+00 
0.0000000e+00 3.6688827e-05 0.0000000e+00 
0.0000000e+00 -2.4780655e-05 0.0000000e+00 
0.0000000e+00 -1.0053554e-04 0.0000000e+00 
0.0000000e+00 -2.1204101e-04 0.0000000e+00 
0.0000000e+00 -4.1749023e-04 0.0000000e+00 
0.0000000e+00 -7.8993855e-04 0.0000000e+00 
0.0000000e+00 -1.3681891e-03 0.0000000e+00 
0.0000000e+00 -2.1537896e-03 0.0000000e+00 
0.0000000e+00 -3.1190217e-03 0.0000000e+00 
0.0000000e+00 -4.1892654e-03 0.0000000e+00 
0.0000000e+00 -5.1635057e-03 0.0000000e+00 
0.0000000e+00 -5.6394222e-03 0.0000000e+00 
0.0000000e+00 -5.4138079e-03 0.0000000e+00 
0.0000000e+00 -5.0139613e-03 0.0000000e+00 
0.0000000e+00 -4.8099030e-03 0.0000000e+00 
0.0000000e+00 -4.6916269e-03 0.0000000e+00 
0.0000000e+00 -4.2193825e-03 0.0000000e+00 
0.0000000e+00 -3.0888617e-03 0.0000000e+00 
0.0000000e+00 -1.8226906e-03 0.0000000e+00 
0.0000000e+00 -8.0876873e-04 0.0000000e+00 
0.0000000e+00 -1.6302837e-04 0.0000000e+00 
0.0000000e+00 1.7270322e-04 0.0000000e+00 
0.0000000e+00 2.9901366e-04 0.0000000e+00 
0.0000000e+00 2.9764787e-04 0.0000000e+00 
0.0000000e+00 2.2491008e-04 0.0000000e+00 
0.0000000e+00 1.2443961e-04 0.0000000e+00 
0.0000000e+00 3.5202596e-05 0.0000000e+00 
0.0000000e+00 -1.9962490e-05 0.0000000e+00 
0.0000000e+00 -3.8431408e-05 0.0000000e+00 
0.0000000e+00 -3.2485914e-05 0.0000000e+00 
0.0000000e+00 -1.6669326e-05 0.0000000e+00 
0.0000000e+00 -9.7589202e-07 0.0000000e+00 
0.0000000e+00 9.6880794e-06 0.0000000e+00 
0.0000000e+00 1.2788813e-05 0.0000000e+00 
0.0000000e+00 6.9832699e-06 0.0000000e+00 
0.0000000e+00 -4.4326821e-06 0.0000000e+00 
0.0000000e+00 -1.2970589e-05 0.0000000e+00 
0.0000000e+00 -1.1840732e-05 0.0000000e+00 
0.0000000e+00 -2.0477946e-06 0.0000000e+00 
0.0000000e+00 8.0405380e-06 0.0000000e+00 
0.0000000e+00 1.0712826e-05 0.0000000e+00 
0.0000000e+00 6.0089551e-06 0.0000000e+00 
0.0000000e+00 -9.1920572e-07 0.0000000e+00 
0.0000000e+00 -5.3302151e-06 0.0000000e+00 
0.0000000e+00 -5.5259029e-06 0.0000000e+00 
0.0000000e+00 -2.6466471e-06 0.0000000e+00 
0.0000000e+00 1.1863501e-06 0.0000000e+00 
0.0000000e+00 3.6764829e-06 0.0000000e+00 
0.0000000e+00 3.1629381e-06 0.0000000e+00 
0.0000000e+00 3.4243502e-07 0.0000000e+00 
0.0000000e+00 -2.1512749e-06 0.0000000e+00 
0.0000000e+00 -2.2897152e-06 0.0000000e+00 
0.0000000e+00 -4.2144657e-07 0.0000000e+00 
0.0000000e+00 1.3268291e-06 0.0000000e+00 
0.0000000e+00 1.4967264e-06 0.0000000e+00 
0.0000000e+00 5.0062152e-07 0.0000000e+00 
0.0000000e+00 -4.8263280e-07 0.0000000e+00 
0.0000000e+00 -8.3681789e-07 0.0000000e+00 
-5.8025453e-04 -1.1786385e-03 4.0714280e-04 
-1.4755828e-05 -3.2586671e-04 1.4690462e-05 
3.5686164e-05 -1.1623463e-04 -3.5937923e-05 
4.4667322e-05 6.0642549e-05 -3.3688160e-05 
0.0000000e+00 -1.7604771e-03 0.0000000e+00 
0.0000000e+00 0.0000000e+00 0.0000000e+00 
0.0000000e+00 0.0000000e+00 0.0000000e+00 
0.0000000e+00 0.0000000e+00 0.0000000e+00 
0.0000000e+00 0.0000000e+00 0.0000000e+00 
0.0000000e+00 0.0000000e+00 0.0000000e+00 
0.0000000e+00 0.0000000e+00 0.0000000e+00 
0.0000000e+00 0.0000000e+00 0.0000000e+00 
0.0000000e+00 0.0000000e+00 0.0000000e+00 
0.0000000e+00 0.0000000e+00 0.0000000e+00 
0.0000000e+00 0.0000000e+00 0.0000000e+00 
0.0000000e+00 0.0000000e+00 0.0000000e+00 
0.0000000e+00 0.0000000e+00 0.0000000e+00 
0.0000000e+00 0.0000000e+00 0.0000000e+00 
0.0000000e+00 0.0000000e+00 0.0000000e+00 
0.0000000e+00 0.0000000e+00 0.0000000e+00 
0.0000000e+00 0.0000000e+00 0.0000000e+00 
0.0000000e+00 0.0000000e+00 0.0000000e+00 
0.0000000e+00 0.0000000e+00 0.0000000e+00 
0.0000000e+00 0.0000000e+00 0.0000000e+00 
0.0000000e+00 0.0000000e+00 0.0000000e+00 
0.0000000e+00 0.0000000e+00 0.0000000e+00 
0.0000000e+00 0.0000000e+00 0.0000000e+00 
0.0000000e+00 0.0000000e+00 0.0000000e+00 
0.0000000e+00 0.0000000e+00 0.0000000e+00 
0.0000000e+00 0.0000000e+00 0.0000000e+00 
0.0000000e+00 0.0000000e+00 0.0000000e+00 
0.0000000e+00 0.0000000e+00 0.0000000e+00 
0.0000000e+00 0.0000000e+00 0.0000000e+00 
0.0000000e+00 0.0000000e+00 0.0000000e+00 
0.0000000e+00 0.0000000e+00 0.0000000e+00 
0.0000000e+00 0.0000000e+00 0.0000000e+00 
0.0000000e+00 0.0000000e+00 0.0000000e+00 
0.0000000e+00 0.0000000e+00 0.0000000e+00 
0.0000000e+00 0.0000000e+00 0.0000000e+00 
0.0000000e+00 0.0000000e+00 0.0000000e+00 
0.0000000e+00 0.0000000e+00 0.0000000e+00 
0.0000000e+00 0.0000000e+00 0.0000000e+00 
0.0000000e+00 0.0000000e+00 0.0000000e+00 
0.0000000e+00 0.0000000e+00 0.0000000e+00 
0.0000000e+00 0.0000000e+00 0.0000000e+00 
0.0000000e+00 0.0000000e+00 0.0000000e+00 
0.0000000e+00 0.0000000e+00 0.0000000e+00 
0.0000000e+00 0.0000000e+00 0.0000000e+00 
0.0000000e+00 0.0000000e+00 0.0000000e+00 
0.0000000e+00 0.0000000e+00 0.0000000e+00 
0.0000000e+00 0.0000000e+00 0.0000000e+00 
0.0000000e+00 0.0000000e+00 0.0000000e+00 
0.0000000e+00 0.0000000e+00 0.0000000e+00 
0.0000000e+00 0.0000000e+00 0.0000000e+00 
0.0000000e+00 0.0000000e+00 0.0000000e+00 
0.0000000e+00 0.0000000e+00 0.0000000e+00 
0.0000000e+00 0.0000000e+00 0.0000000e+00 
0.0000000e+00 0.0000000e+00 0.0000000e+00 
0.0000000e+00 0.0000000e+00 0.0000000e+00 
0.0000000e+00 0.0000000e+00 0.0000000e+00 
0.0000000e+00 0.0000000e+00 0.0000000e+00 
0.0000000e+00 0.0000000e+00 0.0000000e+00 
0.0000000e+00 0.0000000e+00 0.0000000e+00 
0.0000000e+00 0.0000000e+00 0.0000000e+00 
0.0000000e+00 0.0000000e+00 0.0000000e+00 
0.0000000e+00 0.0000000e+00 0.0000000e+00 
0.0000000e+00 0.0000000e+00 0.0000000e+00 
0.0000000e+00 0.0000000e+00 0.0000000e+00 
0.0000000e+00 0.0000000e+00 0.0000000e+00 
0.0000000e+00 0.0000000e+00 0.0000000e+00 
0.0000000e+00 0.0000000e+00 0.0000000e+00 
0.0000000e+00 0.0000000e+00 0.0000000e+00 
0.0000000e+00 0.0000000e+00 0.0000000e+00 
0.0000000e+00 0.0000000e+00 0.0000000e+00 
0.0000000e+00 0.0000000e+00 0.0000000e+00 
0.0000000e+00 0.0000000e+00 0.0000000e+00 
0.0000000e+00 0.0000000e+00 0.0000000e+00 
0.0000000e+00 0.0000000e+00 0.0000000e+00 
0.0000000e+00 0.0000000e+00 0.0000000e+00 
0.0000000e+00 0.0000000e+00 0.0000000e+00 
0.0000000e+00 0.0000000e+00 0.0000000e+00 
0.0000000e+00 0.0000000e+00 0.0000000e+00 
0.0000000e+00 0.0000000e+00 0.0000000e+00 
0.0000000e+00 0.0000000e+00 0.0000000e+00 
0.0000000e+00 0.0000000e+00 0.0000000e+00 
0.0000000e+00 0.0000000e+00 0.0000000e+00 
0.0000000e+00 0.0000000e+00 0.0000000e+00 
0.0000000e+00 0.0000000e+00 0.0000000e+00 
0.0000000e+00 0.0000000e+00 0.0000000e+00 
0.0000000e+00 0.0000000e+00 0.0000000e+00 
0.0000000e+00 0.0000000e+00 0.0000000e+00 
0.0000000e+00 0.0000000e+00 0.0000000e+00 
0.0000000e+00 0.0000000e+00 0.0000000e+00 
0.0000000e+00 0.0000000e+00 0.0000000e+00 
0.0000000e+00 0.0000000e+00 0.0000000e+00 
0.0000000e+00 0.0000000e+00 0.0000000e+00 
0.0000000e+00 0.0000000e+00 0.0000000e+00 
0.0000000e+00 0.0000000e+00 0.0000000e+00 
0.0000000e+00 0.0000000e+00 0.0000000e+00 
0.0000000e+00 0.0000000e+00 0.0000000e+00 
0.0000000e+00 0.0000000e+00 0.0000000e+00 
0.0000000e+00 0.0000000e+00 0.0000000e+00 
0.0000000e+00 0.0000000e+00 0.0000000e+00 
0.0000000e+00 0.0000000e+00 0.0000000e+00 
0.0000000e+00 0.0000000e+00 0.0000000e+00 
0.0000000e+00 0.0000000e+00 0.0000000e+00 
0.0000000e+00 0.0000000e+00 0.0000000e+00 
0.0000000e+00 0.0000000e+00 0.0000000e+00 
0.0000000e+00 0.0000000e+00 0.0000000e+00 
0.0000000e+00 0.0000000e+00 0.0000000e+00 
0.0000000e+00 0.0000000e+00 0.0000000e+00 
6.0456541e-06 -4.6677419e-06 -5.0087833e-06 
2.6296342e-05 5.1248562e-06 -1.7679902e-05 
5.8367514e-05 -4.7222584e-06 -3.2186457e-05 
9.3841722e-05 2.9898886e-06 -3.7691858e-05 
1.3087098e-04 2.6031559e-05 -3.1458127e-05 
1.5191817e-04 2.3179749e-05 -1.3322343e-05 
1.6297222e-04 4.2176827e-05 1.8643530e-05 
1.4155346e-04 2.2213762e-05 2.9516003e-05 
1.1033075e-04 3.4681245e-06 3.9985258e-05 
5.4757209e-05 1.0204976e-05 3.3192297e-05 
2.8832999e-05 -4.8809729e-06 1.8577470e-05 
4.9145629e-06 -1.6254733e-05 6.5126433e-06 
-2.0922430e-06 -2.9925850e-06 -1.2381562e-07 
-2.7490773e-06 1.1780440e-05 -1.4367192e-06 
-1.0801565e-07 8.0788010e-07 7.5655942e-07 
2.6191245e-07 -4.4059561e-06 1.6005973e-07 
-7.8774775e-07 -1.9366689e-06 -5.5547730e-07 
-1.2269750e-06 5.1621773e-06 1.0886620e-06 
-1.5044164e-06 3.4773705e-06 4.4877152e-06 
-5.2435252e-07 -1.2093185e-05 -3.0274286e-06 
9.6302019e-06 -6.7439628e-06 -1.1471150e-05 
3.3267614e-05 1.0790803e-05 -1.9963274e-05 
6.9686699e-05 3.6311919e-06 -3.1677315e-05 
1.1204537e-04 1.6933011e-05 -3.8413029e-05 
1.4837737e-04 3.8636994e-05 -2.8806242e-05 
1.6905244e-04 5.2340514e-05 -9.9383096e-06 
1.6955534e-04 3.8912269e-05 2.1452795e-05 
1.3510900e-04 1.3110394e-05 3.6210298e-05 
9.5059040e-05 -8.8345760e-06 3.3381235e-05 
5.1437884e-05 -8.3619835e-07 2.7996681e-05 
1.8373532e-05 -3.8874045e-06 1.5114113e-05 
2.3582529e-06 -2.1693404e-05 3.8191679e-06 
-3.7302052e-06 6.3225951e-07 -3.7694836e-06 
2.4334594e-07 1.3293435e-05 -1.8100452e-07 
-1.2725880e-06 -2.0779005e-06 -1.2131977e-07 
1.2303680e-07 -2.5402517e-06 2.6649619e-07 
1.1918440e-07 1.4672537e-06 1.3686596e-07 
-3.9100624e-07 6.1997355e-07 7.7242873e-08 
-8.9537293e-09 -4.5483748e-07 -2.8554377e-08 
-2.2571232e-08 8.1157552e-08 -4.7849781e-08 
9.9942064e-09 1.4138067e-07 4.7389705e-08 
1.5973299e-08 -5.7414983e-08 1.3738847e-08 
3.5674126e-09 -3.1080450e-08 -1.8214013e-08 
-1.6261686e-09 3.4812668e-08 8.1832976e-09 
2.3745876e-09 -6.6008230e-09 2.7805438e-09 
5.7572963e-10 1.6923309e-09 -4.8944726e-10 
-7.3699935e-10 -1.8829445e-09 -2.6620777e-09 
2.9462519e-11 9.0360802e-10 6.0483990e-10 
9.7432973e-12 -8.7808905e-10 -1.5697568e-10 
0.0000000e+00 -5.4170225e-05 0.0000000e+00 
0.0000000e+00 -8.9409958e-05 0.0000000e+00 
0.0000000e+00 -1.5278536e-04 0.0000000e+00 
0.0000000e+00 -2.6592560e-04 0.0000000e+00 
0.0000000e+00 -4.0439886e-04 0.0000000e+00 
0.0000000e+00 -5.6254759e-04 0.0000000e+00 
0.0000000e+00 -7.5082306e-04 0.0000000e+00 
0.0000000e+00 -7.3975412e-04 0.0000000e+00 
0.0000000e+00 -6.5983826e-04 0.0000000e+00 
0.0000000e+00 -4.6348103e-04 0.0000000e+00 
0.0000000e+00 -2.6364299e-04 0.0000000e+00 
0.0000000e+00 3.0111371e-06 0.0000000e+00 
0.0000000e+00 6.5982022e-05 0.0000000e+00 
0.0000000e+00 3.5497702e-05 0.0000000e+00 
0.0000000e+00 -4.2373417e-06 0.0000000e+00 
0.0000000e+00 -1.6471680e-05 0.0000000e+00 
0.0000000e+00 3.8775177e-08 0.0000000e+00 
0.0000000e+00 -5.4193570e-06 0.0000000e+00 
0.0000000e+00 3.1809595e-05 0.0000000e+00 
0.0000000e+00 1.2644893e-05 0.0000000e+00 
0.0000000e+00 -5.3887547e-05 0.0000000e+00 
0.0000000e+00 -9.2948845e-05 0.0000000e+00 
0.0000000e+00 -1.4949872e-04 0.0000000e+00 
0.0000000e+00 -3.0397164e-04 0.0000000e+00 
0.0000000e+00 -3.8265676e-04 0.0000000e+00 
0.0000000e+00 -5.7260133e-04 0.0000000e+00 
0.0000000e+00 -7.5740361e-04 0.0000000e+00 
0.0000000e+00 -7.5432850e-04 0.0000000e+00 
0.0000000e+00 -6.2592147e-04 0.0000000e+00 
0.0000000e+00 -4.1060129e-04 0.0000000e+00 
0.0000000e+00 -1.6559770e-04 0.0000000e+00 
0.0000000e+00 -1.2137326e-05 0.0000000e+00 
0.0000000e+00 6.3739571e-05 0.0000000e+00 
0.0000000e+00 3.1774434e-05 0.0000000e+00 
0.0000000e+00 -3.8828894e-06 0.0000000e+00 
0.0000000e+00 -1.3179592e-05 0.0000000e+00 
0.0000000e+00 -4.8364018e-06 0.0000000e+00 
0.0000000e+00 6.5405875e-06 0.0000000e+00 
0.0000000e+00 3.7570658e-06 0.0000000e+00 
0.0000000e+00 -3.5756404e-06 0.0000000e+00 
0.0000000e+00 -2.6318053e-06 0.0000000e+00 
0.0000000e+00 1.2941250e-06 0.0000000e+00 
0.0000000e+00 8.6789504e-07 0.0000000e+00 
0.0000000e+00 -8.4532070e-07 0.0000000e+00 
0.0000000e+00 -2.0880618e-07 0.0000000e+00 
0.0000000e+00 3.2606442e-07 0.0000000e+00 
0.0000000e+00 -2.1033347e-07 0.0000000e+00 
0.0000000e+00 8.5937991e-08 0.0000000e+00 
0.0000000e+00 -2.7433427e-09 0.0000000e+00 
4.8286147e-06 -4.4927373e-07 -6.4643600e-06 
8.7410353e-06 1.1237552e-05 -2.1345611e-05 
8.6686005e-06 1.8395058e-05 -2.7971713e-05 
-4.4448193e-06 2.3453933e-05 -1.5154118e-05 
-1.3473785e-10 -1.1506778e-09 -1.1201232e-10 
-6.3282879e-10 3.1030791e-09 -2.7676272e-10 
2.9712843e-09 -8.6369356e-09 3.9079060e-09 
-1.8207807e-09 8.2043075e-09 -4.1777271e-09 
1.4585350e-05 1.5419529e-06 -2.0953365e-05 
-4.5036078e-10 -9.1079982e-10 -2.6195121e-10 
-1.0608667e-06 4.0797830e-05 1.2537290e-06 
6.6285543e-07 4.2067109e-05 -2.9449591e-05 
0.0000000e+00 -2.8569741e-05 0.0000000e+00 
0.0000000e+00 -1.0041813e-04 0.0000000e+00 
0.0000000e+00 -2.6769258e-04 0.0000000e+00 
0.0000000e+00 -4.7540909e-04 0.0000000e+00 
0.0000000e+00 -7.9751696e-04 0.0000000e+00 
0.0000000e+00 -1.3103841e-03 0.0000000e+00 
0.0000000e+00 -1.5546243e-03 0.0000000e+00 
0.0000000e+00 -1.4858407e-03 0.0000000e+00 
0.0000000e+00 -1.2974285e-03 0.0000000e+00 
0.0000000e+00 -8.8553544e-04 0.0000000e+00 
0.0000000e+00 -3.2575714e-04 0.0000000e+00 
0.0000000e+00 2.4591758e-05 0.0000000e+00 
0.0000000e+00 1.2788904e-04 0.0000000e+00 