# vtk DataFile Version 4.0
vtk output
ASCII
DATASET UNSTRUCTURED_GRID
POINTS 1920 float
0.0000000e+00 0.0000000e+00 0.0000000e+00 
0.0000000e+00 0.0000000e+00 5.0000000e+01 
5.0000000e+00 0.0000000e+00 0.0000000e+00 
5.0000000e+00 0.0000000e+00 5.0000000e+01 
5.0000000e+00 1.0000000e+00 0.0000000e+00 
5.0000000e+00 1.0000000e+00 5.0000000e+01 
0.0000000e+00 1.0000000e+00 0.0000000e+00 
0.0000000e+00 1.0000000e+00 5.0000000e+01 
5.0000000e+00 2.0000000e+00 0.0000000e+00 
5.0000000e+00 2.0000000e+00 5.0000000e+01 
3.0000000e+00 2.0000000e+00 0.0000000e+00 
3.0000000e+00 2.0000000e+00 5.0000000e+01 
0.0000000e+00 2.0000000e+00 0.0000000e+00 
0.0000000e+00 2.0000000e+00 5.0000000e+01 
1.5000000e+00 3.0000000e+00 0.0000000e+00 
1.5000000e+00 3.0000000e+00 5.0000000e+01 
7.5000000e-01 3.0000000e+00 0.0000000e+00 
7.5000000e-01 3.0000000e+00 5.0000000e+01 
0.0000000e+00 3.0000000e+00 0.0000000e+00 
0.0000000e+00 3.0000000e+00 5.0000000e+01 
7.5000000e-01 3.0000000e+00 5.0000000e-01 
7.5000000e-01 3.0000000e+00 1.0000000e+00 
7.5000000e-01 3.0000000e+00 1.5000000e+00 
7.5000000e-01 3.0000000e+00 2.0000000e+00 
7.5000000e-01 3.0000000e+00 2.5000000e+00 
7.5000000e-01 3.0000000e+00 3.0000000e+00 
7.5000000e-01 3.0000000e+00 3.5000000e+00 
7.5000000e-01 3.0000000e+00 4.0000000e+00 
7.5000000e-01 3.0000000e+00 4.5000000e+00 
7.5000000e-01 3.0000000e+00 5.0000000e+00 
7.5000000e-01 3.0000000e+00 5.5000000e+00 
7.5000000e-01 3.0000000e+00 6.0000000e+00 
7.5000000e-01 3.0000000e+00 6.5000000e+00 
7.5000000e-01 3.0000000e+00 7.0000000e+00 
7.5000000e-01 3.0000000e+00 7.5000000e+00 
7.5000000e-01 3.0000000e+00 8.0000000e+00 
7.5000000e-01 3.0000000e+00 8.5000000e+00 
7.5000000e-01 3.0000000e+00 9.0000000e+00 
7.5000000e-01 3.0000000e+00 9.5000000e+00 
7.5000000e-01 3.0000000e+00 1.0000000e+01 
7.5000000e-01 3.0000000e+00 1.0500000e+01 
7.5000000e-01 3.0000000e+00 1.1000000e+01 
7.5000000e-01 3.0000000e+00 1.1500000e+01 
7.5000000e-01 3.0000000e+00 1.2000000e+01 
7.5000000e-01 3.0000000e+00 1.2500000e+01 
7.5000000e-01 3.0000000e+00 1.3000000e+01 
7.5000000e-01 3.0000000e+00 1.3500000e+01 
7.5000000e-01 3.0000000e+00 1.4000000e+01 
7.5000000e-01 3.0000000e+00 1.4500000e+01 
7.5000000e-01 3.0000000e+00 1.5000000e+01 
7.5000000e-01 3.0000000e+00 1.5500000e+01 
7.5000000e-01 3.0000000e+00 1.6000000e+01 
7.5000000e-01 3.0000000e+00 1.6500000e+01 
7.5000000e-01 3.0000000e+00 1.7000000e+01 
7.5000000e-01 3.0000000e+00 1.7500000e+01 
7.5000000e-01 3.0000000e+00 1.8000000e+01 
7.5000000e-01 3.0000000e+00 1.8500000e+01 
7.5000000e-01 3.0000000e+00 1.9000000e+01 
7.5000000e-01 3.0000000e+00 1.9500000e+01 
7.5000000e-01 3.0000000e+00 2.0000000e+01 
7.5000000e-01 3.0000000e+00 2.0500000e+01 
7.5000000e-01 3.0000000e+00 2.1000000e+01 
7.5000000e-01 3.0000000e+00 2.1500000e+01 
7.5000000e-01 3.0000000e+00 2.2000000e+01 
7.5000000e-01 3.0000000e+00 2.2500000e+01 
7.5000000e-01 3.0000000e+00 2.3000000e+01 
7.5000000e-01 3.0000000e+00 2.3500000e+01 
7.5000000e-01 3.0000000e+00 2.4000000e+01 
7.5000000e-01 3.0000000e+00 2.4500000e+01 
7.5000000e-01 3.0000000e+00 2.5000000e+01 
7.5000000e-01 3.0000000e+00 2.5500000e+01 
7.5000000e-01 3.0000000e+00 2.6000000e+01 
7.5000000e-01 3.0000000e+00 2.6500000e+01 
7.5000000e-01 3.0000000e+00 2.7000000e+01 
7.5000000e-01 3.0000000e+00 2.7500000e+01 
7.5000000e-01 3.0000000e+00 2.8000000e+01 
7.5000000e-01 3.0000000e+00 2.8500000e+01 
7.5000000e-01 3.0000000e+00 2.9000000e+01 
7.5000000e-01 3.0000000e+00 2.9500000e+01 
7.5000000e-01 3.0000000e+00 3.0000000e+01 
7.5000000e-01 3.0000000e+00 3.0500000e+01 
7.5000000e-01 3.0000000e+00 3.1000000e+01 
7.5000000e-01 3.0000000e+00 3.1500000e+01 
7.5000000e-01 3.0000000e+00 3.2000000e+01 
7.5000000e-01 3.0000000e+00 3.2500000e+01 
7.5000000e-01 3.0000000e+00 3.3000000e+01 
7.5000000e-01 3.0000000e+00 3.3500000e+01 
7.5000000e-01 3.0000000e+00 3.4000000e+01 
7.5000000e-01 3.0000000e+00 3.4500000e+01 
7.5000000e-01 3.0000000e+00 3.5000000e+01 
7.5000000e-01 3.0000000e+00 3.5500000e+01 
7.5000000e-01 3.0000000e+00 3.6000000e+01 
7.5000000e-01 3.0000000e+00 3.6500000e+01 
7.5000000e-01 3.0000000e+00 3.7000000e+01 
7.5000000e-01 3.0000000e+00 3.7500000e+01 
7.5000000e-01 3.0000000e+00 3.8000000e+01 
7.5000000e-01 3.0000000e+00 3.8500000e+01 
7.5000000e-01 3.0000000e+00 3.9000000e+01 
7.5000000e-01 3.0000000e+00 3.9500000e+01 
7.5000000e-01 3.0000000e+00 4.0000000e+01 
7.5000000e-01 3.0000000e+00 4.0500000e+01 
7.5000000e-01 3.0000000e+00 4.1000000e+01 
7.5000000e-01 3.0000000e+00 4.1500000e+01 
7.5000000e-01 3.0000000e+00 4.2000000e+01 
7.5000000e-01 3.0000000e+00 4.2500000e+01 
7.5000000e-01 3.0000000e+00 4.3000000e+01 
7.5000000e-01 3.0000000e+00 4.3500000e+01 
7.5000000e-01 3.0000000e+00 4.4000000e+01 
7.5000000e-01 3.0000000e+00 4.4500000e+01 
7.5000000e-01 3.0000000e+00 4.5000000e+01 
7.5000000e-01 3.0000000e+00 4.5500000e+01 
7.5000000e-01 3.0000000e+00 4.6000000e+01 
7.5000000e-01 3.0000000e+00 4.6500000e+01 
7.5000000e-01 3.0000000e+00 4.7000000e+01 
7.5000000e-01 3.0000000e+00 4.7500000e+01 
7.5000000e-01 3.0000000e+00 4.8000000e+01 
7.5000000e-01 3.0000000e+00 4.8500000e+01 
7.5000000e-01 3.0000000e+00 4.9000000e+01 
7.5000000e-01 3.0000000e+00 4.9500000e+01 
7.5000000e-01 3.0250001e+00 0.0000000e+00 
7.5000000e-01 3.0250001e+00 5.0000000e-01 
7.5000000e-01 3.0250001e+00 1.0000000e+00 
7.5000000e-01 3.0250001e+00 1.5000000e+00 
7.5000000e-01 3.0250001e+00 2.0000000e+00 
7.5000000e-01 3.0250001e+00 2.5000000e+00 
7.5000000e-01 3.0250001e+00 3.0000000e+00 
7.5000000e-01 3.0250001e+00 3.5000000e+00 
7.5000000e-01 3.0250001e+00 4.0000000e+00 
7.5000000e-01 3.0250001e+00 4.5000000e+00 
7.5000000e-01 3.0250001e+00 5.0000000e+00 
7.5000000e-01 3.0250001e+00 5.5000000e+00 
7.5000000e-01 3.0250001e+00 6.0000000e+00 
7.5000000e-01 3.0250001e+00 6.5000000e+00 
7.5000000e-01 3.0250001e+00 7.0000000e+00 
7.5000000e-01 3.0250001e+00 7.5000000e+00 
7.5000000e-01 3.0250001e+00 8.0000000e+00 
7.5000000e-01 3.0250001e+00 8.5000000e+00 
7.5000000e-01 3.0250001e+00 9.0000000e+00 
7.5000000e-01 3.0250001e+00 9.5000000e+00 
7.5000000e-01 3.0250001e+00 1.0000000e+01 
7.5000000e-01 3.0250001e+00 1.0500000e+01 
7.5000000e-01 3.0250001e+00 1.1000000e+01 
7.5000000e-01 3.0250001e+00 1.1500000e+01 
7.5000000e-01 3.0250001e+00 1.2000000e+01 
7.5000000e-01 3.0250001e+00 1.2500000e+01 
7.5000000e-01 3.0250001e+00 1.3000000e+01 
7.5000000e-01 3.0250001e+00 1.3500000e+01 
7.5000000e-01 3.0250001e+00 1.4000000e+01 
7.5000000e-01 3.0250001e+00 1.4500000e+01 
7.5000000e-01 3.0250001e+00 1.5000000e+01 
7.5000000e-01 3.0250001e+00 1.5500000e+01 
7.5000000e-01 3.0250001e+00 1.6000000e+01 
7.5000000e-01 3.0250001e+00 1.6500000e+01 
7.5000000e-01 3.0250001e+00 1.7000000e+01 
7.5000000e-01 3.0250001e+00 1.7500000e+01 
7.5000000e-01 3.0250001e+00 1.8000000e+01 
7.5000000e-01 3.0250001e+00 1.8500000e+01 
7.5000000e-01 3.0250001e+00 1.9000000e+01 
7.5000000e-01 3.0250001e+00 1.9500000e+01 
7.5000000e-01 3.0250001e+00 2.0000000e+01 
7.5000000e-01 3.0250001e+00 2.0500000e+01 
7.5000000e-01 3.0250001e+00 2.1000000e+01 
7.5000000e-01 3.0250001e+00 2.1500000e+01 
7.5000000e-01 3.0250001e+00 2.2000000e+01 
7.5000000e-01 3.0250001e+00 2.2500000e+01 
7.5000000e-01 3.0250001e+00 2.3000000e+01 
7.5000000e-01 3.0250001e+00 2.3500000e+01 
7.5000000e-01 3.0250001e+00 2.4000000e+01 
7.5000000e-01 3.0250001e+00 2.4500000e+01 
7.5000000e-01 3.0250001e+00 2.5000000e+01 
7.5000000e-01 3.0250001e+00 2.5500000e+01 
7.5000000e-01 3.0250001e+00 2.6000000e+01 
7.5000000e-01 3.0250001e+00 2.6500000e+01 
7.5000000e-01 3.0250001e+00 2.7000000e+01 
7.5000000e-01 3.0250001e+00 2.7500000e+01 
7.5000000e-01 3.0250001e+00 2.8000000e+01 
7.5000000e-01 3.0250001e+00 2.8500000e+01 
7.5000000e-01 3.0250001e+00 2.9000000e+01 
7.5000000e-01 3.0250001e+00 2.9500000e+01 
7.5000000e-01 3.0250001e+00 3.0000000e+01 
7.5000000e-01 3.0250001e+00 3.0500000e+01 
7.5000000e-01 3.0250001e+00 3.1000000e+01 
7.5000000e-01 3.0250001e+00 3.1500000e+01 
7.5000000e-01 3.0250001e+00 3.2000000e+01 
7.5000000e-01 3.0250001e+00 3.2500000e+01 
7.5000000e-01 3.0250001e+00 3.3000000e+01 
7.5000000e-01 3.0250001e+00 3.3500000e+01 
7.5000000e-01 3.0250001e+00 3.4000000e+01 
7.5000000e-01 3.0250001e+00 3.4500000e+01 
7.5000000e-01 3.0250001e+00 3.5000000e+01 
7.5000000e-01 3.0250001e+00 3.5500000e+01 
7.5000000e-01 3.0250001e+00 3.6000000e+01 
7.5000000e-01 3.0250001e+00 3.6500000e+01 
7.5000000e-01 3.0250001e+00 3.7000000e+01 
7.5000000e-01 3.0250001e+00 3.7500000e+01 
7.5000000e-01 3.0250001e+00 3.8000000e+01 
7.5000000e-01 3.0250001e+00 3.8500000e+01 
7.5000000e-01 3.0250001e+00 3.9000000e+01 
7.5000000e-01 3.0250001e+00 3.9500000e+01 
7.5000000e-01 3.0250001e+00 4.0000000e+01 
7.5000000e-01 3.0250001e+00 4.0500000e+01 
7.5000000e-01 3.0250001e+00 4.1000000e+01 
7.5000000e-01 3.0250001e+00 4.1500000e+01 
7.5000000e-01 3.0250001e+00 4.2000000e+01 
7.5000000e-01 3.0250001e+00 4.2500000e+01 
7.5000000e-01 3.0250001e+00 4.3000000e+01 
7.5000000e-01 3.0250001e+00 4.3500000e+01 
7.5000000e-01 3.0250001e+00 4.4000000e+01 
7.5000000e-01 3.0250001e+00 4.4500000e+01 
7.5000000e-01 3.0250001e+00 4.5000000e+01 
7.5000000e-01 3.0250001e+00 4.5500000e+01 
7.5000000e-01 3.0250001e+00 4.6000000e+01 
7.5000000e-01 3.0250001e+00 4.6500000e+01 
7.5000000e-01 3.0250001e+00 4.7000000e+01 
7.5000000e-01 3.0250001e+00 4.7500000e+01 
7.5000000e-01 3.0250001e+00 4.8000000e+01 
7.5000000e-01 3.0250001e+00 4.8500000e+01 
7.5000000e-01 3.0250001e+00 4.9000000e+01 
7.5000000e-01 3.0250001e+00 4.9500000e+01 
7.5000000e-01 3.0250001e+00 5.0000000e+01 
1.5000000e+00 3.0000000e+00 2.5000000e+01 
3.0000000e+00 2.0000000e+00 2.5000000e+01 
4.0000000e+00 2.0000000e+00 2.5000000e+01 
5.0000000e+00 2.0000000e+00 2.5000000e+01 
0.0000000e+00 3.0000000e+00 2.5000000e+01 
0.0000000e+00 0.0000000e+00 1.0000000e+00 
0.0000000e+00 0.0000000e+00 2.0000000e+00 
0.0000000e+00 0.0000000e+00 3.0000000e+00 
0.0000000e+00 0.0000000e+00 4.0000000e+00 
0.0000000e+00 0.0000000e+00 5.0000000e+00 
[...]
POINT_DATA 1920
FIELD FieldData 3
DISPLACEMENT 3 1920  float
0.0000000e+00 0.0000000e+00 0.0000000e+00 
0.0000000e+00 0.0000000e+00 0.0000000e+00 
0.0000000e+00 0.0000000e+00 0.0000000e+00 
0.0000000e+00 0.0000000e+00 0.0000000e+00 
-5.0582952e-07 4.0717197e-07 7.7083598e-07 
1.0162011e-05 -5.1238999e-06 1.4226314e-05 
0.0000000e+00 2.3254304e-06 0.0000000e+00 
0.0000000e+00 -9.0868471e-06 0.0000000e+00 
-2.2637907e-07 4.0536787e-07 1.1236948e-06 
1.0147157e-05 -9.5954420e-07 1.5072569e-05 
-6.2665753e-09 1.4048320e-06 8.3031131e-07 
9.9707040e-06 4.5894940e-06 8.7282051e-06 
0.0000000e+00 3.8482908e-06 0.0000000e+00 
0.0000000e+00 4.3488097e-05 0.0000000e+00 
-5.0304959e-07 6.3662665e-06 8.1929193e-06 
-3.0908046e-05 1.0255228e-04 -2.4341677e-04 
-9.4163433e-08 -1.2578070e-06 4.6246064e-06 
3.5312845e-05 1.9254831e-04 -2.2970483e-04 
0.0000000e+00 3.5110097e-06 0.0000000e+00 
0.0000000e+00 2.6329732e-04 0.0000000e+00 
-1.2494824e-06 -1.4954156e-06 3.5859409e-06 
-1.7826715e-06 -2.1856831e-06 2.0935786e-06 
-2.9048699e-06 -3.1606842e-06 5.8350707e-07 
-4.3827490e-06 -4.3259515e-06 -2.2435224e-06 
-4.0450673e-06 -5.4775146e-06 -4.3397877e-06 
-3.6746749e-06 -6.4895630e-06 -5.7459201e-06 
-1.9503386e-06 -7.2941302e-06 -5.6603390e-06 
-1.7392460e-06 -7.7956902e-06 -5.4846705e-06 
-8.5222598e-07 -8.0680638e-06 -5.7450552e-06 
-1.3036148e-06 -8.1585977e-06 -6.9316097e-06 
-1.8555710e-07 -8.2504184e-06 -7.1478166e-06 
1.0714654e-07 -8.2638708e-06 -6.2763506e-06 
6.8195192e-07 -8.1988828e-06 -4.4913536e-06 
-1.0906713e-06 -7.8738130e-06 -2.6613077e-06 
-1.9684956e-06 -7.2805051e-06 -2.0303021e-06 
-3.1837501e-06 -6.3716780e-06 -2.6335329e-06 
-3.8240792e-06 -5.3798735e-06 -3.5363717e-06 
-4.7120107e-06 -4.4048147e-06 -3.3246033e-06 
-4.3234404e-06 -3.6287686e-06 -2.2555375e-06 
-4.3332034e-06 -2.9586813e-06 -7.0515853e-07 
-3.5757296e-06 -2.3098276e-06 5.5756965e-07 
-3.3046517e-06 -1.5786997e-06 5.2447746e-07 
-1.9507190e-06 -8.4873199e-07 -3.4033352e-08 
-4.6504215e-07 -4.0509065e-07 -2.6766762e-07 
4.3781330e-09 -6.3451813e-07 7.0706682e-07 
3.4067014e-07 -1.5386812e-06 2.6420910e-06 
3.8286217e-07 -2.8917677e-06 3.7098876e-06 
-4.9621605e-07 -4.1408312e-06 3.2839687e-06 
9.1326393e-07 -4.7870431e-06 1.3460156e-06 
1.9156651e-06 -4.7721287e-06 -2.2361353e-06 
3.7056514e-06 -4.1085850e-06 -4.3821901e-06 
4.4207623e-06 -2.8630152e-06 -4.4213425e-06 
4.8986462e-06 -9.1284278e-07 -3.5903233e-06 
5.2311780e-06 2.3396308e-06 -2.0784325e-06 
3.1979982e-06 7.6983670e-06 -2.8321510e-06 
2.6458088e-06 1.5933394e-05 -1.8845710e-06 
4.7864050e-06 2.7894497e-05 -1.0736181e-06 
7.8195382e-07 4.3950447e-05 4.6601949e-06 
-7.2830329e-07 6.3756786e-05 8.8224042e-06 
-1.8290416e-06 8.3462633e-05 1.7793200e-05 
-1.0621239e-06 9.4102521e-05 2.8320557e-05 
-5.7971698e-07 7.5558492e-05 4.3737571e-05 
-4.7873386e-06 -4.3140171e-06 8.5911619e-05 
-2.3144055e-05 -1.9338402e-04 1.1279999e-04 
-5.4405959e-05 -5.5564917e-04 1.8807947e-04 
-5.8855945e-05 -1.1469281e-03 1.3483354e-04 
-1.5388532e-04 -2.0160773e-03 2.9052651e-04 
-1.9206293e-04 -3.1003212e-03 2.2840600e-04 
-2.4030433e-04 -4.2049279e-03 2.4668980e-04 
-1.6448801e-04 -4.8575397e-03 9.2220733e-05 
-2.7067590e-04 -4.7567291e-03 1.2092383e-05 
-3.1746391e-04 -4.4820141e-03 -4.3472686e-05 
-2.9875728e-04 -4.4784844e-03 -8.1363214e-05 
-3.2499171e-04 -4.6329661e-03 -1.5806605e-04 
-2.9437314e-04 -4.4750338e-03 -2.4202194e-04 
-2.3770242e-04 -3.4609509e-03 -1.7876923e-04 
-1.5051133e-04 -2.2102480e-03 -3.1669272e-04 
-8.0457023e-05 -1.1256444e-03 -1.6033518e-04 
-2.0125704e-05 -3.8664869e-04 -1.8327880e-04 
5.9481940e-06 3.3903183e-05 -7.8138408e-05 
1.5179895e-05 2.1092981e-04 -4.8016824e-05 
1.5549742e-05 2.3864236e-04 -1.5462778e-05 
9.0964249e-06 1.9468367e-04 2.8897368e-06 
4.9275745e-06 1.2795751e-04 -1.4721073e-07 
2.0738698e-06 6.8198882e-05 6.2721851e-06 
-2.4887356e-07 2.4496350e-05 8.8582260e-07 
-2.6071543e-06 -1.7709172e-06 1.7129643e-06 
-3.9049601e-06 -1.4649130e-05 -2.4267065e-06 
-2.8322818e-06 -1.8672545e-05 -5.6217950e-06 
-5.4120972e-07 -1.7611792e-05 -8.4596431e-06 
4.3191717e-06 -1.4309021e-05 -8.6441833e-06 
4.8093684e-06 -1.0290163e-05 -6.9697635e-06 
5.9325666e-06 -6.0505204e-06 -2.8346476e-06 
4.4178855e-06 -8.9235397e-07 3.4456099e-07 
3.4668033e-06 6.3492885e-06 -1.6134641e-07 
4.4979556e-06 1.6992764e-05 -4.0284358e-06 
6.1671258e-06 3.1740870e-05 -9.5729570e-07 
5.0360491e-06 5.0378028e-05 3.9813003e-06 
3.7552311e-06 7.1032402e-05 9.2206546e-06 
1.1138563e-06 8.7565692e-05 2.0232706e-05 
-5.0316380e-06 8.8615452e-05 3.4111988e-05 
-9.9705812e-06 5.2066614e-05 4.9156130e-05 
-2.2878596e-05 -5.6312998e-05 9.6258809e-05 
-3.2261403e-05 -2.8589970e-04 1.1172653e-04 
-6.4548585e-05 -6.9762202e-04 2.0225732e-04 
-8.5819251e-05 -1.3453993e-03 1.5939696e-04 
-1.3718050e-04 -2.2614696e-03 2.6660520e-04 
-1.6666469e-04 -3.3686992e-03 1.1505951e-04 
-2.3294638e-04 -4.4471961e-03 1.9026123e-04 
-2.5475098e-04 -4.9362178e-03 5.3548796e-05 
-2.4075522e-04 -4.7059553e-03 6.0283055e-06 
-2.3665221e-04 -4.4138473e-03 -2.3390739e-05 
-2.0618281e-04 -4.4166092e-03 -3.4167071e-05 
-2.2674893e-04 -4.5323041e-03 -1.4165184e-04 
-2.1246736e-04 -4.1847089e-03 -2.2511290e-04 
-8.3583065e-05 -3.0501354e-03 -1.9592873e-04 
-9.8731165e-05 -1.7596792e-03 -2.7319297e-04 
-2.6215988e-05 -7.0396805e-04 -2.0856094e-04 
-1.2651951e-05 -3.6244950e-05 -2.0894523e-04 
0.0000000e+00 -1.2630833e-06 0.0000000e+00 
0.0000000e+00 -1.5060967e-06 0.0000000e+00 
0.0000000e+00 -2.1862686e-06 0.0000000e+00 
0.0000000e+00 -3.1692537e-06 0.0000000e+00 
0.0000000e+00 -4.3244800e-06 0.0000000e+00 
0.0000000e+00 -5.4779366e-06 0.0000000e+00 
0.0000000e+00 -6.4955152e-06 0.0000000e+00 
0.0000000e+00 -7.2910598e-06 0.0000000e+00 
0.0000000e+00 -7.8009389e-06 0.0000000e+00 
0.0000000e+00 -8.0671080e-06 0.0000000e+00 
0.0000000e+00 -8.1778135e-06 0.0000000e+00 
0.0000000e+00 -8.2557181e-06 0.0000000e+00 
0.0000000e+00 -8.2814822e-06 0.0000000e+00 
0.0000000e+00 -8.2000224e-06 0.0000000e+00 
0.0000000e+00 -7.8820640e-06 0.0000000e+00 
0.0000000e+00 -7.2723778e-06 0.0000000e+00 
0.0000000e+00 -6.3819248e-06 0.0000000e+00 
0.0000000e+00 -5.3812805e-06 0.0000000e+00 
0.0000000e+00 -4.4237786e-06 0.0000000e+00 
0.0000000e+00 -3.6354443e-06 0.0000000e+00 
0.0000000e+00 -2.9650369e-06 0.0000000e+00 
0.0000000e+00 -2.3039202e-06 0.0000000e+00 
0.0000000e+00 -1.5685619e-06 0.0000000e+00 
0.0000000e+00 -8.4348289e-07 0.0000000e+00 
0.0000000e+00 -4.2401197e-07 0.0000000e+00 
0.0000000e+00 -6.4815191e-07 0.0000000e+00 
0.0000000e+00 -1.5588295e-06 0.0000000e+00 
0.0000000e+00 -2.8922032e-06 0.0000000e+00 
0.0000000e+00 -4.1205994e-06 0.0000000e+00 
0.0000000e+00 -4.7847957e-06 0.0000000e+00 
0.0000000e+00 -4.7720519e-06 0.0000000e+00 
0.0000000e+00 -4.1234443e-06 0.0000000e+00 
0.0000000e+00 -2.8924696e-06 0.0000000e+00 
0.0000000e+00 -9.2624413e-07 0.0000000e+00 
0.0000000e+00 2.3381260e-06 0.0000000e+00 
0.0000000e+00 7.6917640e-06 0.0000000e+00 
0.0000000e+00 1.5954351e-05 0.0000000e+00 
0.0000000e+00 2.7934806e-05 0.0000000e+00 
0.0000000e+00 4.4125307e-05 0.0000000e+00 
0.0000000e+00 6.4028907e-05 0.0000000e+00 
0.0000000e+00 8.4050283e-05 0.0000000e+00 
0.0000000e+00 9.4770090e-05 0.0000000e+00 
0.0000000e+00 7.6470424e-05 0.0000000e+00 
0.0000000e+00 -3.4233121e-06 0.0000000e+00 
0.0000000e+00 -1.9356387e-04 0.0000000e+00 
0.0000000e+00 -5.5601593e-04 0.0000000e+00 
0.0000000e+00 -1.1526510e-03 0.0000000e+00 
0.0000000e+00 -2.0232347e-03 0.0000000e+00 
0.0000000e+00 -3.1146095e-03 0.0000000e+00 
0.0000000e+00 -4.2238301e-03 0.0000000e+00 
0.0000000e+00 -4.8915958e-03 0.0000000e+00 
0.0000000e+00 -4.7797323e-03 0.0000000e+00 
0.0000000e+00 -4.5100451e-03 0.0000000e+00 
0.0000000e+00 -4.4977441e-03 0.0000000e+00 
0.0000000e+00 -4.6637766e-03 0.0000000e+00 
0.0000000e+00 -4.4972864e-03 0.0000000e+00 
0.0000000e+00 -3.4871295e-03 0.0000000e+00 
0.0000000e+00 -2.2219522e-03 0.0000000e+00 
0.0000000e+00 -1.1353651e-03 0.0000000e+00 
0.0000000e+00 -3.8875517e-04 0.0000000e+00 
0.0000000e+00 3.3460998e-05 0.0000000e+00 
0.0000000e+00 2.1200418e-04 0.0000000e+00 
0.0000000e+00 2.4026170e-04 0.0000000e+00 
0.0000000e+00 1.9573145e-04 0.0000000e+00 
0.0000000e+00 1.2898934e-04 0.0000000e+00 
0.0000000e+00 6.8578585e-05 0.0000000e+00 
0.0000000e+00 2.4724910e-05 0.0000000e+00 
0.0000000e+00 -1.7712241e-06 0.0000000e+00 
0.0000000e+00 -1.4712371e-05 0.0000000e+00 
0.0000000e+00 -1.8732218e-05 0.0000000e+00 
0.0000000e+00 -1.7684437e-05 0.0000000e+00 
0.0000000e+00 -1.4368909e-05 0.0000000e+00 
0.0000000e+00 -1.0356779e-05 0.0000000e+00 
0.0000000e+00 -6.0795796e-06 0.0000000e+00 
0.0000000e+00 -8.9883758e-07 0.0000000e+00 
0.0000000e+00 6.3825760e-06 0.0000000e+00 
0.0000000e+00 1.7038919e-05 0.0000000e+00 
0.0000000e+00 3.1832500e-05 0.0000000e+00 
0.0000000e+00 5.0605158e-05 0.0000000e+00 
0.0000000e+00 7.1323804e-05 0.0000000e+00 
0.0000000e+00 8.8136920e-05 0.0000000e+00 
0.0000000e+00 8.9281719e-05 0.0000000e+00 
0.0000000e+00 5.2926414e-05 0.0000000e+00 
0.0000000e+00 -5.5627417e-05 0.0000000e+00 
0.0000000e+00 -2.8607453e-04 0.0000000e+00 
0.0000000e+00 -6.9873390e-04 0.0000000e+00 
0.0000000e+00 -1.3508429e-03 0.0000000e+00 
0.0000000e+00 -2.2692843e-03 0.0000000e+00 
0.0000000e+00 -3.3872330e-03 0.0000000e+00 
0.0000000e+00 -4.4680634e-03 0.0000000e+00 
0.0000000e+00 -4.9673584e-03 0.0000000e+00 
0.0000000e+00 -4.7294348e-03 0.0000000e+00 
0.0000000e+00 -4.4411779e-03 0.0000000e+00 
0.0000000e+00 -4.4381949e-03 0.0000000e+00 
0.0000000e+00 -4.5621861e-03 0.0000000e+00 
0.0000000e+00 -4.2089387e-03 0.0000000e+00 
0.0000000e+00 -3.0696923e-03 0.0000000e+00 
0.0000000e+00 -1.7715715e-03 0.0000000e+00 
0.0000000e+00 -7.0846581e-04 0.0000000e+00 
0.0000000e+00 -3.7022579e-05 0.0000000e+00 
0.0000000e+00 1.9182150e-04 0.0000000e+00 
-6.0700125e-04 -1.4242755e-03 1.3306462e-04 
5.0651637e-05 -7.7990902e-05 -2.6621613e-06 
4.9813298e-05 -1.7914972e-05 -2.4292947e-06 
4.5766839e-05 -1.4758413e-05 -1.2555613e-06 
0.0000000e+00 -2.5500201e-03 0.0000000e+00 
0.0000000e+00 0.0000000e+00 0.0000000e+00 
0.0000000e+00 0.0000000e+00 0.0000000e+00 
0.0000000e+00 0.0000000e+00 0.0000000e+00 
0.0000000e+00 0.0000000e+00 0.0000000e+00 
0.0000000e+00 0.0000000e+00 0.0000000e+00 
0.0000000e+00 0.0000000e+00 0.0000000e+00 
0.0000000e+00 0.0000000e+00 0.0000000e+00 
0.0000000e+00 0.0000000e+00 0.0000000e+00 
0.0000000e+00 0.0000000e+00 0.0000000e+00 
0.0000000e+00 0.0000000e+00 0.0000000e+00 
0.0000000e+00 0.0000000e+00 0.0000000e+00 
0.0000000e+00 0.0000000e+00 0.0000000e+00 
0.0000000e+00 0.0000000e+00 0.0000000e+00 
0.0000000e+00 0.0000000e+00 0.0000000e+00 
0.0000000e+00 0.0000000e+00 0.0000000e+00 
0.0000000e+00 0.0000000e+00 0.0000000e+00 
0.0000000e+00 0.0000000e+00 0.0000000e+00 
0.0000000e+00 0.0000000e+00 0.0000000e+00 
0.0000000e+00 0.0000000e+00 0.0000000e+00 
0.0000000e+00 0.0000000e+00 0.0000000e+00 
0.0000000e+00 0.0000000e+00 0.0000000e+00 
0.0000000e+00 0.0000000e+00 0.0000000e+00 
0.0000000e+00 0.0000000e+00 0.0000000e+00 
0.0000000e+00 0.0000000e+00 0.0000000e+00 
0.0000000e+00 0.0000000e+00 0.0000000e+00 
0.0000000e+00 0.0000000e+00 0.0000000e+00 
0.0000000e+00 0.0000000e+00 0.0000000e+00 
0.0000000e+00 0.0000000e+00 0.0000000e+00 
0.0000000e+00 0.0000000e+00 0.0000000e+00 
0.0000000e+00 0.0000000e+00 0.0000000e+00 
0.0000000e+00 0.0000000e+00 0.0000000e+00 
0.0000000e+00 0.0000000e+00 0.0000000e+00 
0.0000000e+00 0.0000000e+00 0.0000000e+00 
0.0000000e+00 0.0000000e+00 0.0000000e+00 
0.0000000e+00 0.0000000e+00 0.0000000e+00 
0.0000000e+00 0.0000000e+00 0.0000000e+00 
0.0000000e+00 0.0000000e+00 0.0000000e+00 
0.0000000e+00 0.0000000e+00 0.0000000e+00 
0.0000000e+00 0.0000000e+00 0.0000000e+00 
0.0000000e+00 0.0000000e+00 0.0000000e+00 
0.0000000e+00 0.0000000e+00 0.0000000e+00 
0.0000000e+00 0.0000000e+00 0.0000000e+00 
0.0000000e+00 0.0000000e+00 0.0000000e+00 
0.0000000e+00 0.0000000e+00 0.0000000e+00 
0.0000000e+00 0.0000000e+00 0.0000000e+00 
0.0000000e+00 0.0000000e+00 0.0000000e+00 
0.0000000e+00 0.0000000e+00 0.0000000e+00 
0.0000000e+00 0.0000000e+00 0.0000000e+00 
0.0000000e+00 0.0000000e+00 0.0000000e+00 
0.0000000e+00 0.0000000e+00 0.0000000e+00 
0.0000000e+00 0.0000000e+00 0.0000000e+00 
0.0000000e+00 0.0000000e+00 0.0000000e+00 
0.0000000e+00 0.0000000e+00 0.0000000e+00 
0.0000000e+00 0.0000000e+00 0.0000000e+00 
0.0000000e+00 0.0000000e+00 0.0000000e+00 
0.0000000e+00 0.0000000e+00 0.0000000e+00 
0.0000000e+00 0.0000000e+00 0.0000000e+00 
0.0000000e+00 0.0000000e+00 0.0000000e+00 
0.0000000e+00 0.0000000e+00 0.0000000e+00 
0.0000000e+00 0.0000000e+00 0.0000000e+00 
0.0000000e+00 0.0000000e+00 0.0000000e+00 
0.0000000e+00 0.0000000e+00 0.0000000e+00 
0.0000000e+00 0.0000000e+00 0.0000000e+00 
0.0000000e+00 0.0000000e+00 0.0000000e+00 
0.0000000e+00 0.0000000e+00 0.0000000e+00 
0.0000000e+00 0.0000000e+00 0.0000000e+00 
0.0000000e+00 0.0000000e+00 0.0000000e+00 
0.0000000e+00 0.0000000e+00 0.0000000e+00 
0.0000000e+00 0.0000000e+00 0.0000000e+00 
0.0000000e+00 0.0000000e+00 0.0000000e+00 
0.0000000e+00 0.0000000e+00 0.0000000e+00 
0.0000000e+00 0.0000000e+00 0.0000000e+00 
0.0000000e+00 0.0000000e+00 0.0000000e+00 
0.0000000e+00 0.0000000e+00 0.0000000e+00 
0.0000000e+00 0.0000000e+00 0.0000000e+00 
0.0000000e+00 0.0000000e+00 0.0000000e+00 
0.0000000e+00 0.0000000e+00 0.0000000e+00 
0.0000000e+00 0.0000000e+00 0.0000000e+00 
0.0000000e+00 0.0000000e+00 0.0000000e+00 
0.0000000e+00 0.0000000e+00 0.0000000e+00 
0.0000000e+00 0.0000000e+00 0.0000000e+00 
0.0000000e+00 0.0000000e+00 0.0000000e+00 
0.0000000e+00 0.0000000e+00 0.0000000e+00 
0.0000000e+00 0.0000000e+00 0.0000000e+00 
0.0000000e+00 0.0000000e+00 0.0000000e+00 
0.0000000e+00 0.0000000e+00 0.0000000e+00 
0.0000000e+00 0.0000000e+00 0.0000000e+00 
0.0000000e+00 0.0000000e+00 0.0000000e+00 
0.0000000e+00 0.0000000e+00 0.0000000e+00 
0.0000000e+00 0.0000000e+00 0.0000000e+00 
0.0000000e+00 0.0000000e+00 0.0000000e+00 
0.0000000e+00 0.0000000e+00 0.0000000e+00 
0.0000000e+00 0.0000000e+00 0.0000000e+00 
0.0000000e+00 0.0000000e+00 0.0000000e+00 
0.0000000e+00 0.0000000e+00 0.0000000e+00 
0.0000000e+00 0.0000000e+00 0.0000000e+00 
0.0000000e+00 0.0000000e+00 0.0000000e+00 
0.0000000e+00 0.0000000e+00 0.0000000e+00 
0.0000000e+00 0.0000000e+00 0.0000000e+00 
0.0000000e+00 0.0000000e+00 0.0000000e+00 
0.0000000e+00 0.0000000e+00 0.0000000e+00 
0.0000000e+00 0.0000000e+00 0.0000000e+00 
0.0000000e+00 0.0000000e+00 0.0000000e+00 
0.0000000e+00 0.0000000e+00 0.0000000e+00 
0.0000000e+00 0.0000000e+00 0.0000000e+00 
0.0000000e+00 0.0000000e+00 0.0000000e+00 
-6.2909898e-08 3.5460289e-08 5.0075437e-07 
2.1686455e-07 -1.2335647e-07 7.1847555e-09 
3.8469085e-07 -4.6103175e-08 -4.4955667e-07 
4.5388234e-07 -1.3961660e-07 -7.4747965e-07 
4.6803399e-07 -5.2317955e-07 -8.1774209e-07 
4.9925416e-07 -8.1822975e-07 -7.8453860e-07 
5.7798593e-07 -6.9414648e-07 -8.3420070e-07 
7.0862626e-07 -4.3894843e-07 -6.9764423e-07 
5.4681567e-07 -1.1050319e-07 -6.8059535e-07 
3.1864883e-07 -1.7492657e-07 -6.3786325e-07 
1.5511948e-07 1.0657708e-07 -7.5198255e-07 
-1.2578050e-07 -1.0474633e-07 -9.8917894e-07 
-2.3816203e-07 -3.3995801e-07 -1.1190265e-06 
-1.1060320e-07 -3.5783557e-07 -8.9571193e-07 
-9.4808598e-08 -3.1116377e-07 -6.2049264e-07 
-1.3810281e-07 -5.0940037e-07 -6.6815124e-07 
-1.5651455e-08 -7.5236659e-07 -8.7109333e-07 
3.1006098e-07 -3.4146311e-07 -1.3332059e-06 
9.5359474e-07 2.9581980e-07 -2.2135957e-06 
3.4186523e-06 -1.3284795e-06 -5.0332269e-06 
8.6554846e-06 -4.4422454e-06 -8.5347183e-06 
1.8319222e-05 -7.3734277e-06 -1.1387627e-05 
2.9297307e-05 -1.0874592e-05 -1.2751764e-05 
4.0377090e-05 -1.2610509e-05 -1.0228349e-05 
4.6741654e-05 -1.4841200e-05 -4.5559386e-06 
4.7874986e-05 -1.4944491e-05 4.0604523e-06 
4.2301985e-05 -1.3574254e-05 1.0186924e-05 
3.0251827e-05 -1.0706088e-05 1.4361366e-05 
2.0217636e-05 -7.1268018e-06 1.3614041e-05 
9.5980422e-06 -2.1881654e-06 1.0659356e-05 
4.3785058e-06 -6.7892984e-07 6.3232519e-06 
1.5562115e-06 -1.0542308e-06 2.7096467e-06 
4.4523762e-07 -5.8725533e-07 3.2453553e-07 
5.7316136e-08 -2.9703202e-07 -8.1601274e-07 
-1.4441441e-07 -4.4349910e-08 -1.1389577e-06 
-3.4315477e-07 -2.6561423e-07 -1.4042650e-06 
-2.5316035e-07 -5.0566621e-07 -1.7775060e-06 
5.7711412e-07 -7.8231909e-07 -2.4988813e-06 
2.4649310e-06 -9.2214214e-07 -4.0069908e-06 
5.7337238e-06 -1.7701406e-06 -6.6440807e-06 
1.1539993e-05 -4.0511904e-06 -9.7791308e-06 
2.1319653e-05 -7.8249395e-06 -1.2493566e-05 
3.2986940e-05 -1.1606038e-05 -1.2276185e-05 
4.5471043e-05 -1.6868547e-05 -6.3404414e-06 
4.8155471e-05 -1.6814523e-05 1.6445829e-06 
4.7744910e-05 -1.5925916e-05 6.3314797e-06 
4.4021050e-05 -1.4212656e-05 1.5861235e-05 
3.0504960e-05 -1.0818325e-05 1.9239966e-05 
1.6992564e-05 -4.5811062e-06 1.7762897e-05 
0.0000000e+00 2.9680682e-06 0.0000000e+00 
0.0000000e+00 2.6225700e-06 0.0000000e+00 
0.0000000e+00 2.3173905e-06 0.0000000e+00 
0.0000000e+00 3.1944526e-06 0.0000000e+00 
0.0000000e+00 5.1887496e-06 0.0000000e+00 
0.0000000e+00 6.1576284e-06 0.0000000e+00 
0.0000000e+00 5.9273789e-06 0.0000000e+00 
0.0000000e+00 5.1402462e-06 0.0000000e+00 
0.0000000e+00 4.2656447e-06 0.0000000e+00 
0.0000000e+00 2.8343648e-06 0.0000000e+00 
0.0000000e+00 2.4074959e-06 0.0000000e+00 
0.0000000e+00 2.3159673e-06 0.0000000e+00 
0.0000000e+00 1.5204528e-06 0.0000000e+00 
0.0000000e+00 8.3865211e-07 0.0000000e+00 
0.0000000e+00 3.5842600e-06 0.0000000e+00 
0.0000000e+00 6.5299082e-06 0.0000000e+00 
0.0000000e+00 6.5901418e-06 0.0000000e+00 
0.0000000e+00 5.0978442e-06 0.0000000e+00 
0.0000000e+00 4.1078310e-06 0.0000000e+00 
0.0000000e+00 4.1220451e-06 0.0000000e+00 
0.0000000e+00 -1.1403891e-05 0.0000000e+00 
0.0000000e+00 -7.0589493e-05 0.0000000e+00 
0.0000000e+00 -1.9764107e-04 0.0000000e+00 
0.0000000e+00 -4.0361853e-04 0.0000000e+00 
0.0000000e+00 -5.0156168e-04 0.0000000e+00 
0.0000000e+00 -5.5327074e-04 0.0000000e+00 
0.0000000e+00 -4.9207063e-04 0.0000000e+00 
0.0000000e+00 -3.4361947e-04 0.0000000e+00 
0.0000000e+00 -1.2051283e-04 0.0000000e+00 
0.0000000e+00 -2.0579573e-05 0.0000000e+00 
0.0000000e+00 1.8135652e-05 0.0000000e+00 
0.0000000e+00 1.9411911e-05 0.0000000e+00 
0.0000000e+00 1.0608023e-05 0.0000000e+00 
0.0000000e+00 4.0306068e-06 0.0000000e+00 
0.0000000e+00 2.9208943e-06 0.0000000e+00 
0.0000000e+00 3.2346652e-06 0.0000000e+00 
0.0000000e+00 2.1845935e-06 0.0000000e+00 
0.0000000e+00 1.6212729e-06 0.0000000e+00 
0.0000000e+00 2.3450887e-06 0.0000000e+00 
0.0000000e+00 1.2356581e-06 0.0000000e+00 
0.0000000e+00 -1.7741189e-05 0.0000000e+00 
0.0000000e+00 -8.6483196e-05 0.0000000e+00 
0.0000000e+00 -2.3110113e-04 0.0000000e+00 
0.0000000e+00 -4.0521496e-04 0.0000000e+00 
0.0000000e+00 -5.2432722e-04 0.0000000e+00 
0.0000000e+00 -5.2888301e-04 0.0000000e+00 
0.0000000e+00 -4.7262310e-04 0.0000000e+00 
0.0000000e+00 -3.0914598e-04 0.0000000e+00 
0.0000000e+00 -1.2123327e-04 0.0000000e+00 
-2.0095203e-07 5.8492532e-07 6.1130919e-07 
-8.8222862e-08 5.9058260e-07 2.6955956e-07 
-3.6000174e-07 6.6998444e-07 2.2572021e-07 
-4.1414023e-07 1.8861654e-06 5.1186612e-07 
1.5518131e-05 -3.4476807e-06 1.7228704e-05 
2.0362486e-05 -1.4231531e-06 2.9433188e-05 
2.0401823e-05 -1.7877694e-05 4.7683894e-05 
5.6728327e-06 -1.5883621e-05 5.9483966e-05 
7.0631536e-08 9.6902693e-07 6.9867156e-07 
1.3350888e-05 3.9840805e-07 1.4079659e-05 
5.0111191e-07 3.0977028e-06 9.3588102e-07 
9.6723895e-08 2.2661711e-06 1.1569532e-06 
0.0000000e+00 4.9956179e-06 0.0000000e+00 
0.0000000e+00 3.7979078e-06 0.0000000e+00 
0.0000000e+00 3.4566960e-06 0.0000000e+00 
0.0000000e+00 4.5409834e-06 0.0000000e+00 
0.0000000e+00 7.7734503e-06 0.0000000e+00 
0.0000000e+00 9.4325560e-06 0.0000000e+00 
0.0000000e+00 9.3059371e-06 0.0000000e+00 
0.0000000e+00 8.2393926e-06 0.0000000e+00 
0.0000000e+00 7.0891911e-06 0.0000000e+00 
0.0000000e+00 5.0299400e-06 0.0000000e+00 
0.0000000e+00 3.3524061e-06 0.0000000e+00 
0.0000000e+00 4.0442910e-06 0.0000000e+00 
0.0000000e+00 2.7848253e-06 0.0000000e+00 