# vtk DataFile Version 4.0
vtk output
ASCII
DATASET UNSTRUCTURED_GRID
POINTS 1920 float
0.0000000e+00 0.0000000e+00 0.0000000e+00 
0.0000000e+00 0.0000000e+00 5.0000000e+01 
5.0000000e+00 0.0000000e+00 0.0000000e+00 
5.0000000e+00 0.0000000e+00 5.0000000e+01 
5.0000000e+00 1.0000000e+00 0.0000000e+00 
5.0000000e+00 1.0000000e+00 5.0000000e+01 
0.0000000e+00 1.0000000e+00 0.0000000e+00 
0.0000000e+00 1.0000000e+00 5.0000000e+01 
5.0000000e+00 2.0000000e+00 0.0000000e+00 
5.0000000e+00 2.0000000e+00 5.0000000e+01 
3.0000000e+00 2.0000000e+00 0.0000000e+00 
3.0000000e+00 2.0000000e+00 5.0000000e+01 
0.0000000e+00 2.0000000e+00 0.0000000e+00 
0.0000000e+00 2.0000000e+00 5.0000000e+01 
1.5000000e+00 3.0000000e+00 0.0000000e+00 
1.5000000e+00 3.0000000e+00 5.0000000e+01 
7.5000000e-01 3.0000000e+00 0.0000000e+00 
7.5000000e-01 3.0000000e+00 5.0000000e+01 
0.0000000e+00 3.0000000e+00 0.0000000e+00 
0.0000000e+00 3.0000000e+00 5.0000000e+01 
7.5000000e-01 3.0000000e+00 5.0000000e-01 
7.5000000e-01 3.0000000e+00 1.0000000e+00 
7.5000000e-01 3.0000000e+00 1.5000000e+00 
7.5000000e-01 3.0000000e+00 2.0000000e+00 
7.5000000e-01 3.0000000e+00 2.5000000e+00 
7.5000000e-01 3.0000000e+00 3.0000000e+00 
7.5000000e-01 3.0000000e+00 3.5000000e+00 
7.5000000e-01 3.0000000e+00 4.0000000e+00 
7.5000000e-01 3.0000000e+00 4.5000000e+00 
7.5000000e-01 3.0000000e+00 5.0000000e+00 
7.5000000e-01 3.0000000e+00 5.5000000e+00 
7.5000000e-01 3.0000000e+00 6.0000000e+00 
7.5000000e-01 3.0000000e+00 6.5000000e+00 
7.5000000e-01 3.0000000e+00 7.0000000e+00 
7.5000000e-01 3.0000000e+00 7.5000000e+00 
7.5000000e-01 3.0000000e+00 8.0000000e+00 
7.5000000e-01 3.0000000e+00 8.5000000e+00 
7.5000000e-01 3.0000000e+00 9.0000000e+00 
7.5000000e-01 3.0000000e+00 9.5000000e+00 
7.5000000e-01 3.0000000e+00 1.0000000e+01 
7.5000000e-01 3.0000000e+00 1.0500000e+01 
7.5000000e-01 3.0000000e+00 1.1000000e+01 
7.5000000e-01 3.0000000e+00 1.1500000e+01 
7.5000000e-01 3.0000000e+00 1.2000000e+01 
7.5000000e-01 3.0000000e+00 1.2500000e+01 
7.5000000e-01 3.0000000e+00 1.3000000e+01 
7.5000000e-01 3.0000000e+00 1.3500000e+01 
7.5000000e-01 3.0000000e+00 1.4000000e+01 
7.5000000e-01 3.0000000e+00 1.4500000e+01 
7.5000000e-01 3.0000000e+00 1.5000000e+01 
7.5000000e-01 3.0000000e+00 1.5500000e+01 
7.5000000e-01 3.0000000e+00 1.6000000e+01 
7.5000000e-01 3.0000000e+00 1.6500000e+01 
7.5000000e-01 3.0000000e+00 1.7000000e+01 
7.5000000e-01 3.0000000e+00 1.7500000e+01 
7.5000000e-01 3.0000000e+00 1.8000000e+01 
7.5000000e-01 3.0000000e+00 1.8500000e+01 
7.5000000e-01 3.0000000e+00 1.9000000e+01 
7.5000000e-01 3.0000000e+00 1.9500000e+01 
7.5000000e-01 3.0000000e+00 2.0000000e+01 
7.5000000e-01 3.0000000e+00 2.0500000e+01 
7.5000000e-01 3.0000000e+00 2.1000000e+01 
7.5000000e-01 3.0000000e+00 2.1500000e+01 
7.5000000e-01 3.0000000e+00 2.2000000e+01 
7.5000000e-01 3.0000000e+00 2.2500000e+01 
7.5000000e-01 3.0000000e+00 2.3000000e+01 
7.5000000e-01 3.0000000e+00 2.3500000e+01 
7.5000000e-01 3.0000000e+00 2.4000000e+01 
7.5000000e-01 3.0000000e+00 2.4500000e+01 
7.5000000e-01 3.0000000e+00 2.5000000e+01 
7.5000000e-01 3.0000000e+00 2.5500000e+01 
7.5000000e-01 3.0000000e+00 2.6000000e+01 
7.5000000e-01 3.0000000e+00 2.6500000e+01 
7.5000000e-01 3.0000000e+00 2.7000000e+01 
7.5000000e-01 3.0000000e+00 2.7500000e+01 
7.5000000e-01 3.0000000e+00 2.8000000e+01 
7.5000000e-01 3.0000000e+00 2.8500000e+01 
7.5000000e-01 3.0000000e+00 2.9000000e+01 
7.5000000e-01 3.0000000e+00 2.9500000e+01 
7.5000000e-01 3.0000000e+00 3.0000000e+01 
7.5000000e-01 3.0000000e+00 3.0500000e+01 
7.5000000e-01 3.0000000e+00 3.1000000e+01 
7.5000000e-01 3.0000000e+00 3.1500000e+01 
7.5000000e-01 3.0000000e+00 3.2000000e+01 
7.5000000e-01 3.0000000e+00 3.2500000e+01 
7.5000000e-01 3.0000000e+00 3.3000000e+01 
7.5000000e-01 3.0000000e+00 3.3500000e+01 
7.5000000e-01 3.0000000e+00 3.4000000e+01 
7.5000000e-01 3.0000000e+00 3.4500000e+01 
7.5000000e-01 3.0000000e+00 3.5000000e+01 
7.5000000e-01 3.0000000e+00 3.5500000e+01 
7.5000000e-01 3.0000000e+00 3.6000000e+01 
7.5000000e-01 3.0000000e+00 3.6500000e+01 
7.5000000e-01 3.0000000e+00 3.7000000e+01 
7.5000000e-01 3.0000000e+00 3.7500000e+01 
7.5000000e-01 3.0000000e+00 3.8000000e+01 
7.5000000e-01 3.0000000e+00 3.8500000e+01 
7.5000000e-01 3.0000000e+00 3.9000000e+01 
7.5000000e-01 3.0000000e+00 3.9500000e+01 
7.5000000e-01 3.0000000e+00 4.0000000e+01 
7.5000000e-01 3.0000000e+00 4.0500000e+01 
7.5000000e-01 3.0000000e+00 4.1000000e+01 
7.5000000e-01 3.0000000e+00 4.1500000e+01 
7.5000000e-01 3.0000000e+00 4.2000000e+01 
7.5000000e-01 3.0000000e+00 4.2500000e+01 
7.5000000e-01 3.0000000e+00 4.3000000e+01 
7.5000000e-01 3.0000000e+00 4.3500000e+01 
7.5000000e-01 3.0000000e+00 4.4000000e+01 
7.5000000e-01 3.0000000e+00 4.4500000e+01 
7.5000000e-01 3.0000000e+00 4.5000000e+01 
7.5000000e-01 3.0000000e+00 4.5500000e+01 
7.5000000e-01 3.0000000e+00 4.6000000e+01 
7.5000000e-01 3.0000000e+00 4.6500000e+01 
7.5000000e-01 3.0000000e+00 4.7000000e+01 
7.5000000e-01 3.0000000e+00 4.7500000e+01 
7.5000000e-01 3.0000000e+00 4.8000000e+01 
7.5000000e-01 3.0000000e+00 4.8500000e+01 
7.5000000e-01 3.0000000e+00 4.9000000e+01 
7.5000000e-01 3.0000000e+00 4.9500000e+01 
7.5000000e-01 3.0250001e+00 0.0000000e+00 
7.5000000e-01 3.0250001e+00 5.0000000e-01 
7.5000000e-01 3.0250001e+00 1.0000000e+00 
7.5000000e-01 3.0250001e+00 1.5000000e+00 
7.5000000e-01 3.0250001e+00 2.0000000e+00 
7.5000000e-01 3.0250001e+00 2.5000000e+00 
7.5000000e-01 3.0250001e+00 3.0000000e+00 
7.5000000e-01 3.0250001e+00 3.5000000e+00 
7.5000000e-01 3.0250001e+00 4.0000000e+00 
7.5000000e-01 3.0250001e+00 4.5000000e+00 
7.5000000e-01 3.0250001e+00 5.0000000e+00 
7.5000000e-01 3.0250001e+00 5.5000000e+00 
7.5000000e-01 3.0250001e+00 6.0000000e+00 
7.5000000e-01 3.0250001e+00 6.5000000e+00 
7.5000000e-01 3.0250001e+00 7.0000000e+00 
7.5000000e-01 3.0250001e+00 7.5000000e+00 
7.5000000e-01 3.0250001e+00 8.0000000e+00 
7.5000000e-01 3.0250001e+00 8.5000000e+00 
7.5000000e-01 3.0250001e+00 9.0000000e+00 
7.5000000e-01 3.0250001e+00 9.5000000e+00 
7.5000000e-01 3.0250001e+00 1.0000000e+01 
7.5000000e-01 3.0250001e+00 1.0500000e+01 
7.5000000e-01 3.0250001e+00 1.1000000e+01 
7.5000000e-01 3.0250001e+00 1.1500000e+01 
7.5000000e-01 3.0250001e+00 1.2000000e+01 
7.5000000e-01 3.0250001e+00 1.2500000e+01 
7.5000000e-01 3.0250001e+00 1.3000000e+01 
7.5000000e-01 3.0250001e+00 1.3500000e+01 
7.5000000e-01 3.0250001e+00 1.4000000e+01 
7.5000000e-01 3.0250001e+00 1.4500000e+01 
7.5000000e-01 3.0250001e+00 1.5000000e+01 
7.5000000e-01 3.0250001e+00 1.5500000e+01 
7.5000000e-01 3.0250001e+00 1.6000000e+01 
7.5000000e-01 3.0250001e+00 1.6500000e+01 
7.5000000e-01 3.0250001e+00 1.7000000e+01 
7.5000000e-01 3.0250001e+00 1.7500000e+01 
7.5000000e-01 3.0250001e+00 1.8000000e+01 
7.5000000e-01 3.0250001e+00 1.8500000e+01 
7.5000000e-01 3.0250001e+00 1.9000000e+01 
7.5000000e-01 3.0250001e+00 1.9500000e+01 
7.5000000e-01 3.0250001e+00 2.0000000e+01 
7.5000000e-01 3.0250001e+00 2.0500000e+01 
7.5000000e-01 3.0250001e+00 2.1000000e+01 
7.5000000e-01 3.0250001e+00 2.1500000e+01 
7.5000000e-01 3.0250001e+00 2.2000000e+01 
7.5000000e-01 3.0250001e+00 2.2500000e+01 
7.5000000e-01 3.0250001e+00 2.3000000e+01 
7.5000000e-01 3.0250001e+00 2.3500000e+01 
7.5000000e-01 3.0250001e+00 2.4000000e+01 
7.5000000e-01 3.0250001e+00 2.4500000e+01 
7.5000000e-01 3.0250001e+00 2.5000000e+01 
7.5000000e-01 3.0250001e+00 2.5500000e+01 
7.5000000e-01 3.0250001e+00 2.6000000e+01 
7.5000000e-01 3.0250001e+00 2.6500000e+01 
7.5000000e-01 3.0250001e+00 2.7000000e+01 
7.5000000e-01 3.0250001e+00 2.7500000e+01 
7.5000000e-01 3.0250001e+00 2.8000000e+01 
7.5000000e-01 3.0250001e+00 2.8500000e+01 
7.5000000e-01 3.0250001e+00 2.9000000e+01 
7.5000000e-01 3.0250001e+00 2.9500000e+01 
7.5000000e-01 3.0250001e+00 3.0000000e+01 
7.5000000e-01 3.0250001e+00 3.0500000e+01 
7.5000000e-01 3.0250001e+00 3.1000000e+01 
7.5000000e-01 3.0250001e+00 3.1500000e+01 
7.5000000e-01 3.0250001e+00 3.2000000e+01 
7.5000000e-01 3.0250001e+00 3.2500000e+01 
7.5000000e-01 3.0250001e+00 3.3000000e+01 
7.5000000e-01 3.0250001e+00 3.3500000e+01 
7.5000000e-01 3.0250001e+00 3.4000000e+01 
7.5000000e-01 3.0250001e+00 3.4500000e+01 
7.5000000e-01 3.0250001e+00 3.5000000e+01 
7.5000000e-01 3.0250001e+00 3.5500000e+01 
7.5000000e-01 3.0250001e+00 3.6000000e+01 
7.5000000e-01 3.0250001e+00 3.6500000e+01 
7.5000000e-01 3.0250001e+00 3.7000000e+01 
7.5000000e-01 3.0250001e+00 3.7500000e+01 
7.5000000e-01 3.0250001e+00 3.8000000e+01 
7.5000000e-01 3.0250001e+00 3.8500000e+01 
7.5000000e-01 3.0250001e+00 3.9000000e+01 
7.5000000e-01 3.0250001e+00 3.9500000e+01 
7.5000000e-01 3.0250001e+00 4.0000000e+01 
7.5000000e-01 3.0250001e+00 4.0500000e+01 
7.5000000e-01 3.0250001e+00 4.1000000e+01 
7.5000000e-01 3.0250001e+00 4.1500000e+01 
7.5000000e-01 3.0250001e+00 4.2000000e+01 
7.5000000e-01 3.0250001e+00 4.2500000e+01 
7.5000000e-01 3.0250001e+00 4.3000000e+01 
7.5000000e-01 3.0250001e+00 4.3500000e+01 
7.5000000e-01 3.0250001e+00 4.4000000e+01 
7.5000000e-01 3.0250001e+00 4.4500000e+01 
7.5000000e-01 3.0250001e+00 4.5000000e+01 
7.5000000e-01 3.0250001e+00 4.5500000e+01 
7.5000000e-01 3.0250001e+00 4.6000000e+01 
7.5000000e-01 3.0250001e+00 4.6500000e+01 
7.5000000e-01 3.0250001e+00 4.7000000e+01 
7.5000000e-01 3.0250001e+00 4.7500000e+01 
7.5000000e-01 3.0250001e+00 4.8000000e+01 
7.5000000e-01 3.0250001e+00 4.8500000e+01 
7.5000000e-01 3.0250001e+00 4.9000000e+01 
7.5000000e-01 3.0250001e+00 4.9500000e+01 
7.5000000e-01 3.0250001e+00 5.0000000e+01 
1.5000000e+00 3.0000000e+00 2.5000000e+01 
3.0000000e+00 2.0000000e+00 2.5000000e+01 
4.0000000e+00 2.0000000e+00 2.5000000e+01 
5.0000000e+00 2.0000000e+00 2.5000000e+01 
0.0000000e+00 3.0000000e+00 2.5000000e+01 
0.0000000e+00 0.0000000e+00 1.0000000e+00 
0.0000000e+00 0.0000000e+00 2.0000000e+00 
0.0000000e+00 0.0000000e+00 3.0000000e+00 
0.0000000e+00 0.0000000e+00 4.0000000e+00 
0.0000000e+00 0.0000000e+00 5.0000000e+00 
[...]
POINT_DATA 1920
FIELD FieldData 3
DISPLACEMENT 3 1920  float
0.0000000e+00 0.0000000e+00 0.0000000e+00 
0.0000000e+00 0.0000000e+00 0.0000000e+00 
0.0000000e+00 0.0000000e+00 0.0000000e+00 
0.0000000e+00 0.0000000e+00 0.0000000e+00 
-5.4350863e-07 4.3598905e-07 8.3864120e-07 
1.0159560e-05 -5.2000510e-06 1.4757839e-05 
0.0000000e+00 1.9539823e-06 0.0000000e+00 
0.0000000e+00 -1.0884528e-05 0.0000000e+00 
-1.6847470e-07 2.7692974e-07 1.0347522e-06 
1.0430768e-05 -6.1787193e-07 1.5623034e-05 
-1.1574615e-07 1.2458289e-06 8.5105967e-07 
1.1303120e-05 5.0690783e-06 9.4286925e-06 
0.0000000e+00 3.8940138e-06 0.0000000e+00 
0.0000000e+00 3.6950110e-05 0.0000000e+00 
-5.8288908e-08 6.0353623e-06 7.9130841e-06 
-2.9275232e-05 9.9474506e-05 -2.4687377e-04 
2.9284069e-08 -1.6713991e-06 4.7433186e-06 
3.4519020e-05 1.3731788e-04 -2.2727756e-04 
0.0000000e+00 3.5404828e-06 0.0000000e+00 
0.0000000e+00 2.6644600e-04 0.0000000e+00 
-1.2121316e-06 -1.6857392e-06 3.5146284e-06 
-1.8436489e-06 -1.9051297e-06 1.8559622e-06 
-2.6313464e-06 -2.6018288e-06 4.4099465e-07 
-4.1406606e-06 -3.9591150e-06 -2.1029630e-06 
-4.1221560e-06 -5.6580734e-06 -4.0970258e-06 
-3.8382841e-06 -7.0296360e-06 -5.5083297e-06 
-1.9350248e-06 -7.5644898e-06 -5.4596740e-06 
-1.8532897e-06 -7.4350237e-06 -5.4631541e-06 
-1.1064732e-06 -7.3583028e-06 -5.7872626e-06 
-1.2124433e-06 -7.7633786e-06 -6.9327943e-06 
9.6909062e-08 -8.6085956e-06 -7.0361630e-06 
-8.3302105e-08 -9.1928578e-06 -6.0290586e-06 
3.1058661e-07 -9.0017447e-06 -4.7909389e-06 
-1.1930761e-06 -7.7620434e-06 -3.2729465e-06 
-2.0529915e-06 -6.1058472e-06 -2.0422885e-06 
-3.0640413e-06 -5.0289018e-06 -2.4029735e-06 
-3.4024740e-06 -5.1956149e-06 -3.7526420e-06 
-4.2658935e-06 -5.9744461e-06 -3.2592861e-06 
-4.1240278e-06 -5.8192754e-06 -1.9172508e-06 
-5.0470239e-06 -3.4941515e-06 -1.0981918e-06 
-4.1332773e-06 -4.5662798e-08 2.4216857e-07 
-2.4929220e-06 2.2325760e-06 8.7427969e-07 
-1.7326360e-06 1.7163552e-06 5.2698960e-07 
-1.0049152e-06 -1.4950679e-06 -2.1765844e-08 
5.1620333e-07 -5.2711821e-06 -1.2896389e-07 
2.7397405e-07 -6.1170117e-06 1.3884826e-06 
-1.1051925e-06 -2.8308532e-06 4.2082270e-06 
-1.5012291e-06 2.0339394e-06 2.3123587e-06 
1.0201391e-06 3.3336421e-06 1.5318003e-06 
2.6513519e-06 -2.7623657e-06 1.2606698e-06 
4.5970028e-06 -1.1871129e-05 -5.8200571e-06 
3.6450763e-06 -1.4304067e-05 -4.2015217e-06 
3.3244683e-06 -3.9109841e-06 -5.0005110e-06 
4.1943963e-06 1.4962036e-05 -3.7004770e-06 
3.1204527e-06 2.9488669e-05 -1.7660587e-06 
3.0735143e-06 3.2292417e-05 1.8977141e-06 
5.9702916e-06 2.5090614e-05 -4.8968850e-06 
1.0256418e-06 1.9257068e-05 4.4349508e-06 
-3.7801142e-06 3.4653898e-05 1.0043435e-05 
-4.8483976e-06 7.9336103e-05 1.5916627e-05 
-3.5846975e-07 1.2770738e-04 3.2403586e-05 
1.4783245e-06 1.2087698e-04 4.5100038e-05 
-3.1462523e-06 5.8132287e-06 8.4454063e-05 
-3.0995798e-05 -2.4676166e-04 1.1867160e-04 
-5.7693280e-05 -6.5115764e-04 1.8203584e-04 
-6.3956009e-05 -1.2146750e-03 1.3298068e-04 
-1.6427565e-04 -1.9927244e-03 2.9610813e-04 
-1.9094745e-04 -2.9970743e-03 2.2524854e-04 
-2.4233387e-04 -4.0955716e-03 2.3391073e-04 
-1.6622333e-04 -4.8417258e-03 9.2422881e-05 
-2.7172980e-04 -4.8281518e-03 1.4659949e-05 
-3.2140326e-04 -4.5344839e-03 -4.9009683e-05 
-3.0259858e-04 -4.4511119e-03 -7.6638658e-05 
-3.1946567e-04 -4.5479140e-03 -1.4847024e-04 
-2.8821692e-04 -4.4249725e-03 -2.4339856e-04 
-2.3742192e-04 -3.4737790e-03 -1.8014219e-04 
-1.5154594e-04 -2.2333544e-03 -3.1127763e-04 
-8.2549428e-05 -1.1376085e-03 -1.5829083e-04 
-2.0841557e-05 -3.9796394e-04 -1.8380860e-04 
6.0794787e-06 1.2477794e-05 -7.8554323e-05 
1.3059713e-05 1.8711202e-04 -5.0993123e-05 
1.2767136e-05 2.2807614e-04 -1.9463672e-05 
1.0154426e-05 2.0214567e-04 2.5285146e-06 
7.3628958e-06 1.4222485e-04 1.2359907e-06 
1.9271279e-06 7.3173411e-05 5.9374097e-06 
-7.9883796e-07 1.5736772e-05 1.4669646e-06 
-1.9062719e-06 -1.3118202e-05 1.7029896e-06 
-5.1134257e-06 -1.5920634e-05 -4.7822391e-06 
-4.2983052e-06 -8.5228930e-06 -5.8729274e-06 
-1.6158627e-07 -4.8277511e-06 -8.5269412e-06 
6.6804278e-06 -9.6756394e-06 -7.0935889e-06 
4.5606730e-06 -1.8083798e-05 -5.6994877e-06 
4.4857011e-06 -1.9692916e-05 -4.7228727e-06 
2.6881678e-06 -7.6089200e-06 -1.9377628e-06 
6.1188308e-07 1.4380731e-05 -4.6129506e-07 
1.2813659e-07 3.5723031e-05 -3.0447895e-06 
8.1530316e-06 4.8188806e-05 -2.5329089e-07 
8.7606732e-06 5.0435196e-05 4.2489723e-06 
3.8078133e-06 5.1186362e-05 7.0838678e-06 
-5.2467215e-07 5.9786740e-05 2.0376143e-05 
-8.3758850e-06 7.4428739e-05 3.8243925e-05 
-1.2206937e-05 6.8434776e-05 4.3462274e-05 
-1.8398427e-05 -1.9915284e-05 9.8402459e-05 
-3.1161027e-05 -2.7383532e-04 1.1464663e-04 
-6.7394198e-05 -7.4582943e-04 1.9549715e-04 
-9.1155809e-05 -1.4327983e-03 1.6020839e-04 
-1.4050603e-04 -2.3254191e-03 2.7001626e-04 
-1.6748202e-04 -3.3506653e-03 1.0527630e-04 
-2.3382269e-04 -4.3374337e-03 1.8918613e-04 
-2.5130025e-04 -4.8645497e-03 5.8848331e-05 
-2.3844551e-04 -4.7428505e-03 6.6333391e-06 
-2.3567273e-04 -4.4740564e-03 -2.4610337e-05 
-2.0977067e-04 -4.4350927e-03 -3.3708853e-05 
-2.2737255e-04 -4.4719395e-03 -1.4426852e-04 
-2.0750357e-04 -4.1233245e-03 -2.2396592e-04 
-8.3207953e-05 -3.0342450e-03 -1.9332323e-04 
-9.9642188e-05 -1.7427063e-03 -2.7090494e-04 
-2.7078004e-05 -7.0087530e-04 -2.0779352e-04 
-1.5136334e-05 -6.9766895e-05 -2.0697236e-04 
0.0000000e+00 -1.6642872e-06 0.0000000e+00 
0.0000000e+00 -1.6862691e-06 0.0000000e+00 
0.0000000e+00 -1.9129543e-06 0.0000000e+00 
0.0000000e+00 -2.6280693e-06 0.0000000e+00 
0.0000000e+00 -3.9785878e-06 0.0000000e+00 
0.0000000e+00 -5.6589874e-06 0.0000000e+00 
0.0000000e+00 -7.0062606e-06 0.0000000e+00 
0.0000000e+00 -7.5395519e-06 0.0000000e+00 
0.0000000e+00 -7.4429322e-06 0.0000000e+00 
0.0000000e+00 -7.3800211e-06 0.0000000e+00 
0.0000000e+00 -7.8056528e-06 0.0000000e+00 
0.0000000e+00 -8.6226746e-06 0.0000000e+00 
0.0000000e+00 -9.2020036e-06 0.0000000e+00 
0.0000000e+00 -8.9653031e-06 0.0000000e+00 
0.0000000e+00 -7.7350987e-06 0.0000000e+00 
0.0000000e+00 -6.1046017e-06 0.0000000e+00 
0.0000000e+00 -5.0876583e-06 0.0000000e+00 
0.0000000e+00 -5.2726173e-06 0.0000000e+00 
0.0000000e+00 -6.0023476e-06 0.0000000e+00 
0.0000000e+00 -5.7266211e-06 0.0000000e+00 
0.0000000e+00 -3.4084335e-06 0.0000000e+00 
0.0000000e+00 -2.7099706e-08 0.0000000e+00 
0.0000000e+00 2.1740736e-06 0.0000000e+00 
0.0000000e+00 1.5906976e-06 0.0000000e+00 
0.0000000e+00 -1.6110679e-06 0.0000000e+00 
0.0000000e+00 -5.2114206e-06 0.0000000e+00 
0.0000000e+00 -5.9584081e-06 0.0000000e+00 
0.0000000e+00 -2.6265068e-06 0.0000000e+00 
0.0000000e+00 2.1001886e-06 0.0000000e+00 
0.0000000e+00 2.9613557e-06 0.0000000e+00 
0.0000000e+00 -3.1371076e-06 0.0000000e+00 
0.0000000e+00 -1.1873937e-05 0.0000000e+00 
0.0000000e+00 -1.3860230e-05 0.0000000e+00 
0.0000000e+00 -3.3851761e-06 0.0000000e+00 
0.0000000e+00 1.4874831e-05 0.0000000e+00 
0.0000000e+00 2.9233131e-05 0.0000000e+00 
0.0000000e+00 3.1911892e-05 0.0000000e+00 
0.0000000e+00 2.4444953e-05 0.0000000e+00 
0.0000000e+00 1.9370447e-05 0.0000000e+00 
0.0000000e+00 3.6120728e-05 0.0000000e+00 
0.0000000e+00 8.1364247e-05 0.0000000e+00 
0.0000000e+00 1.2829248e-04 0.0000000e+00 
0.0000000e+00 1.2030954e-04 0.0000000e+00 
0.0000000e+00 4.5692127e-06 0.0000000e+00 
0.0000000e+00 -2.4797127e-04 0.0000000e+00 
0.0000000e+00 -6.4925797e-04 0.0000000e+00 
0.0000000e+00 -1.2165601e-03 0.0000000e+00 
0.0000000e+00 -1.9995999e-03 0.0000000e+00 
0.0000000e+00 -3.0129824e-03 0.0000000e+00 
0.0000000e+00 -4.1163280e-03 0.0000000e+00 
0.0000000e+00 -4.8756357e-03 0.0000000e+00 
0.0000000e+00 -4.8491661e-03 0.0000000e+00 
0.0000000e+00 -4.5608273e-03 0.0000000e+00 
0.0000000e+00 -4.4708150e-03 0.0000000e+00 
0.0000000e+00 -4.5798868e-03 0.0000000e+00 
0.0000000e+00 -4.4474886e-03 0.0000000e+00 
0.0000000e+00 -3.4997764e-03 0.0000000e+00 
0.0000000e+00 -2.2456010e-03 0.0000000e+00 
0.0000000e+00 -1.1489226e-03 0.0000000e+00 
0.0000000e+00 -4.0068885e-04 0.0000000e+00 
0.0000000e+00 1.2870137e-05 0.0000000e+00 
0.0000000e+00 1.8902468e-04 0.0000000e+00 
0.0000000e+00 2.2954197e-04 0.0000000e+00 
0.0000000e+00 2.0253078e-04 0.0000000e+00 
0.0000000e+00 1.4275103e-04 0.0000000e+00 
0.0000000e+00 7.3595133e-05 0.0000000e+00 
0.0000000e+00 1.6560132e-05 0.0000000e+00 
0.0000000e+00 -1.2753333e-05 0.0000000e+00 
0.0000000e+00 -1.6193606e-05 0.0000000e+00 
0.0000000e+00 -8.7807002e-06 0.0000000e+00 
0.0000000e+00 -4.9705873e-06 0.0000000e+00 
0.0000000e+00 -9.9376748e-06 0.0000000e+00 
0.0000000e+00 -1.8277860e-05 0.0000000e+00 
0.0000000e+00 -1.9445542e-05 0.0000000e+00 
0.0000000e+00 -7.1500658e-06 0.0000000e+00 
0.0000000e+00 1.4593658e-05 0.0000000e+00 
0.0000000e+00 3.5567806e-05 0.0000000e+00 
0.0000000e+00 4.7714409e-05 0.0000000e+00 
0.0000000e+00 5.0237311e-05 0.0000000e+00 
0.0000000e+00 5.1397514e-05 0.0000000e+00 
0.0000000e+00 6.0779264e-05 0.0000000e+00 
0.0000000e+00 7.6493343e-05 0.0000000e+00 
0.0000000e+00 7.0305701e-05 0.0000000e+00 
0.0000000e+00 -2.0910735e-05 0.0000000e+00 
0.0000000e+00 -2.7675071e-04 0.0000000e+00 
0.0000000e+00 -7.4723776e-04 0.0000000e+00 
0.0000000e+00 -1.4367420e-03 0.0000000e+00 
0.0000000e+00 -2.3306825e-03 0.0000000e+00 
0.0000000e+00 -3.3675407e-03 0.0000000e+00 
0.0000000e+00 -4.3596076e-03 0.0000000e+00 
0.0000000e+00 -4.8974911e-03 0.0000000e+00 
0.0000000e+00 -4.7666198e-03 0.0000000e+00 
0.0000000e+00 -4.5010517e-03 0.0000000e+00 
0.0000000e+00 -4.4555590e-03 0.0000000e+00 
0.0000000e+00 -4.5001395e-03 0.0000000e+00 
0.0000000e+00 -4.1470509e-03 0.0000000e+00 
0.0000000e+00 -3.0547353e-03 0.0000000e+00 
0.0000000e+00 -1.7568095e-03 0.0000000e+00 
0.0000000e+00 -7.0712919e-04 0.0000000e+00 
0.0000000e+00 -7.0327740e-05 0.0000000e+00 
0.0000000e+00 1.3803849e-04 0.0000000e+00 
-5.9374655e-04 -1.4358892e-03 1.1473481e-04 
5.3524807e-05 -6.9420043e-05 -5.4082343e-06 
4.6976646e-05 -2.0930494e-05 5.3919825e-07 
4.3449112e-05 -1.5133798e-05 -3.0582551e-06 
0.0000000e+00 -2.5420692e-03 0.0000000e+00 
0.0000000e+00 0.0000000e+00 0.0000000e+00 
0.0000000e+00 0.0000000e+00 0.0000000e+00 
0.0000000e+00 0.0000000e+00 0.0000000e+00 
0.0000000e+00 0.0000000e+00 0.0000000e+00 
0.0000000e+00 0.0000000e+00 0.0000000e+00 
0.0000000e+00 0.0000000e+00 0.0000000e+00 
0.0000000e+00 0.0000000e+00 0.0000000e+00 
0.0000000e+00 0.0000000e+00 0.0000000e+00 
0.0000000e+00 0.0000000e+00 0.0000000e+00 
0.0000000e+00 0.0000000e+00 0.0000000e+00 
0.0000000e+00 0.0000000e+00 0.0000000e+00 
0.0000000e+00 0.0000000e+00 0.0000000e+00 
0.0000000e+00 0.0000000e+00 0.0000000e+00 
0.0000000e+00 0.0000000e+00 0.0000000e+00 
0.0000000e+00 0.0000000e+00 0.0000000e+00 
0.0000000e+00 0.0000000e+00 0.0000000e+00 
0.0000000e+00 0.0000000e+00 0.0000000e+00 
0.0000000e+00 0.0000000e+00 0.0000000e+00 
0.0000000e+00 0.0000000e+00 0.0000000e+00 
0.0000000e+00 0.0000000e+00 0.0000000e+00 
0.0000000e+00 0.0000000e+00 0.0000000e+00 
0.0000000e+00 0.0000000e+00 0.0000000e+00 
0.0000000e+00 0.0000000e+00 0.0000000e+00 
0.0000000e+00 0.0000000e+00 0.0000000e+00 
0.0000000e+00 0.0000000e+00 0.0000000e+00 
0.0000000e+00 0.0000000e+00 0.0000000e+00 
0.0000000e+00 0.0000000e+00 0.0000000e+00 
0.0000000e+00 0.0000000e+00 0.0000000e+00 
0.0000000e+00 0.0000000e+00 0.0000000e+00 
0.0000000e+00 0.0000000e+00 0.0000000e+00 
0.0000000e+00 0.0000000e+00 0.0000000e+00 
0.0000000e+00 0.0000000e+00 0.0000000e+00 
0.0000000e+00 0.0000000e+00 0.0000000e+00 
0.0000000e+00 0.0000000e+00 0.0000000e+00 
0.0000000e+00 0.0000000e+00 0.0000000e+00 
0.0000000e+00 0.0000000e+00 0.0000000e+00 
0.0000000e+00 0.0000000e+00 0.0000000e+00 
0.0000000e+00 0.0000000e+00 0.0000000e+00 
0.0000000e+00 0.0000000e+00 0.0000000e+00 
0.0000000e+00 0.0000000e+00 0.0000000e+00 
0.0000000e+00 0.0000000e+00 0.0000000e+00 
0.0000000e+00 0.0000000e+00 0.0000000e+00 
0.0000000e+00 0.0000000e+00 0.0000000e+00 
0.0000000e+00 0.0000000e+00 0.0000000e+00 
0.0000000e+00 0.0000000e+00 0.0000000e+00 
0.0000000e+00 0.0000000e+00 0.0000000e+00 
0.0000000e+00 0.0000000e+00 0.0000000e+00 
0.0000000e+00 0.0000000e+00 0.0000000e+00 
0.0000000e+00 0.0000000e+00 0.0000000e+00 
0.0000000e+00 0.0000000e+00 0.0000000e+00 
0.0000000e+00 0.0000000e+00 0.0000000e+00 
0.0000000e+00 0.0000000e+00 0.0000000e+00 
0.0000000e+00 0.0000000e+00 0.0000000e+00 
0.0000000e+00 0.0000000e+00 0.0000000e+00 
0.0000000e+00 0.0000000e+00 0.0000000e+00 
0.0000000e+00 0.0000000e+00 0.0000000e+00 
0.0000000e+00 0.0000000e+00 0.0000000e+00 
0.0000000e+00 0.0000000e+00 0.0000000e+00 
0.0000000e+00 0.0000000e+00 0.0000000e+00 
0.0000000e+00 0.0000000e+00 0.0000000e+00 
0.0000000e+00 0.0000000e+00 0.0000000e+00 
0.0000000e+00 0.0000000e+00 0.0000000e+00 
0.0000000e+00 0.0000000e+00 0.0000000e+00 
0.0000000e+00 0.0000000e+00 0.0000000e+00 
0.0000000e+00 0.0000000e+00 0.0000000e+00 
0.0000000e+00 0.0000000e+00 0.0000000e+00 
0.0000000e+00 0.0000000e+00 0.0000000e+00 
0.0000000e+00 0.0000000e+00 0.0000000e+00 
0.0000000e+00 0.0000000e+00 0.0000000e+00 
0.0000000e+00 0.0000000e+00 0.0000000e+00 
0.0000000e+00 0.0000000e+00 0.0000000e+00 
0.0000000e+00 0.0000000e+00 0.0000000e+00 
0.0000000e+00 0.0000000e+00 0.0000000e+00 
0.0000000e+00 0.0000000e+00 0.0000000e+00 
0.0000000e+00 0.0000000e+00 0.0000000e+00 
0.0000000e+00 0.0000000e+00 0.0000000e+00 
0.0000000e+00 0.0000000e+00 0.0000000e+00 
0.0000000e+00 0.0000000e+00 0.0000000e+00 
0.0000000e+00 0.0000000e+00 0.0000000e+00 
0.0000000e+00 0.0000000e+00 0.0000000e+00 
0.0000000e+00 0.0000000e+00 0.0000000e+00 
0.0000000e+00 0.0000000e+00 0.0000000e+00 
0.0000000e+00 0.0000000e+00 0.0000000e+00 
0.0000000e+00 0.0000000e+00 0.0000000e+00 
0.0000000e+00 0.0000000e+00 0.0000000e+00 
0.0000000e+00 0.0000000e+00 0.0000000e+00 
0.0000000e+00 0.0000000e+00 0.0000000e+00 
0.0000000e+00 0.0000000e+00 0.0000000e+00 
0.0000000e+00 0.0000000e+00 0.0000000e+00 
0.0000000e+00 0.0000000e+00 0.0000000e+00 
0.0000000e+00 0.0000000e+00 0.0000000e+00 
0.0000000e+00 0.0000000e+00 0.0000000e+00 
0.0000000e+00 0.0000000e+00 0.0000000e+00 
0.0000000e+00 0.0000000e+00 0.0000000e+00 
0.0000000e+00 0.0000000e+00 0.0000000e+00 
0.0000000e+00 0.0000000e+00 0.0000000e+00 
0.0000000e+00 0.0000000e+00 0.0000000e+00 
0.0000000e+00 0.0000000e+00 0.0000000e+00 
0.0000000e+00 0.0000000e+00 0.0000000e+00 
0.0000000e+00 0.0000000e+00 0.0000000e+00 
0.0000000e+00 0.0000000e+00 0.0000000e+00 
0.0000000e+00 0.0000000e+00 0.0000000e+00 
0.0000000e+00 0.0000000e+00 0.0000000e+00 
0.0000000e+00 0.0000000e+00 0.0000000e+00 
0.0000000e+00 0.0000000e+00 0.0000000e+00 
0.0000000e+00 0.0000000e+00 0.0000000e+00 
-4.0132672e-08 -1.5438157e-08 3.5302520e-07 
1.3623865e-07 -3.8705362e-08 1.7986409e-08 
3.1373287e-07 -3.7626886e-08 -3.7055315e-07 
5.3782992e-07 -2.5230656e-07 -4.6811340e-07 
6.0695095e-07 -8.0908626e-07 -6.9204231e-07 
5.2985359e-07 -7.4325226e-07 -1.3710359e-06 
5.1995767e-07 -2.7945126e-07 -5.0412666e-07 
5.3770151e-07 -6.4280897e-07 -5.8624107e-07 
8.5561845e-07 -8.1785338e-08 -1.3643611e-06 
-2.2094314e-07 7.7778871e-08 5.3678136e-08 
3.4211624e-08 -4.3102315e-07 -1.4229071e-06 
2.1614066e-07 -4.2976052e-07 -1.9816055e-06 
-3.0261646e-07 5.1033732e-07 9.3086175e-07 
4.0484923e-07 1.9552019e-07 -1.8458782e-06 
-9.0423225e-07 -5.5227576e-07 -8.2970723e-07 
2.3056215e-07 -6.3327491e-07 1.8057399e-07 
6.4032412e-07 8.5340344e-07 -2.0186603e-06 
7.3359109e-07 -4.1113499e-06 -3.1825589e-06 
-3.9171147e-07 2.3067573e-06 -8.1931637e-07 
5.5655378e-06 6.6721196e-07 -5.9553481e-06 
9.2028322e-06 -7.5216908e-06 -1.0535136e-05 
1.8542951e-05 -4.4834828e-06 -1.2092042e-05 
2.7797967e-05 -8.4606418e-06 -1.1104483e-05 
4.0696781e-05 -1.6424723e-05 -1.1315167e-05 
4.8376667e-05 -1.3185773e-05 -5.1192528e-06 
4.8245431e-05 -1.3124484e-05 3.1952600e-06 
4.0870811e-05 -1.3812064e-05 9.4175957e-06 
3.1020169e-05 -1.0674793e-05 1.4920784e-05 
2.0258920e-05 -7.5080675e-06 1.3157130e-05 
9.6780504e-06 -1.7392427e-06 1.0142651e-05 
4.4040280e-06 -6.8501186e-07 7.3566771e-06 
2.0409429e-06 -2.2643380e-06 1.8460424e-06 
6.8593391e-07 6.7784356e-07 -1.8979995e-07 
-3.9061661e-07 4.1350810e-07 2.7170032e-07 
6.7837266e-07 -9.0082483e-07 -1.6666252e-06 
1.1600449e-06 -9.0300000e-07 -3.5429554e-07 
-1.9897855e-06 2.4251726e-06 -1.9425931e-06 
1.0156256e-06 3.3675451e-07 -3.2745179e-06 
1.3470893e-06 -5.0779195e-06 -3.4203615e-06 
7.1319546e-06 2.7071569e-06 -7.3218007e-06 
1.3064818e-05 -4.3045852e-06 -9.1496004e-06 
2.0896126e-05 -1.2063135e-05 -1.3056067e-05 
3.3443906e-05 -7.7229879e-06 -1.3596554e-05 
4.5971829e-05 -1.4620213e-05 -6.1672649e-06 
4.6930207e-05 -1.8817704e-05 1.1387946e-07 
4.8136921e-05 -1.4196666e-05 5.5692640e-06 
4.2532287e-05 -1.5274829e-05 1.5135967e-05 
3.0914049e-05 -1.0756950e-05 1.9474268e-05 
1.7171469e-05 -3.9878769e-06 1.7482682e-05 
0.0000000e+00 3.3761125e-06 0.0000000e+00 
0.0000000e+00 2.4557573e-06 0.0000000e+00 
0.0000000e+00 1.9805311e-06 0.0000000e+00 
0.0000000e+00 4.0141103e-06 0.0000000e+00 
0.0000000e+00 4.9328373e-06 0.0000000e+00 
0.0000000e+00 5.5686764e-06 0.0000000e+00 
0.0000000e+00 6.6729340e-06 0.0000000e+00 
0.0000000e+00 5.2942100e-06 0.0000000e+00 
0.0000000e+00 3.3044935e-06 0.0000000e+00 
0.0000000e+00 3.8430944e-06 0.0000000e+00 
0.0000000e+00 3.3662341e-06 0.0000000e+00 
0.0000000e+00 8.4264917e-07 0.0000000e+00 
0.0000000e+00 -5.9078666e-06 0.0000000e+00 
0.0000000e+00 7.9924448e-06 0.0000000e+00 
0.0000000e+00 2.7198523e-06 0.0000000e+00 
0.0000000e+00 6.2316104e-07 0.0000000e+00 
0.0000000e+00 2.2535889e-05 0.0000000e+00 
0.0000000e+00 -5.3227554e-06 0.0000000e+00 
0.0000000e+00 1.0053591e-07 0.0000000e+00 
0.0000000e+00 2.8448387e-05 0.0000000e+00 
0.0000000e+00 -2.9476103e-05 0.0000000e+00 
0.0000000e+00 -7.4961441e-05 0.0000000e+00 
0.0000000e+00 -1.9431431e-04 0.0000000e+00 
0.0000000e+00 -4.0825160e-04 0.0000000e+00 
0.0000000e+00 -5.0000357e-04 0.0000000e+00 
0.0000000e+00 -5.5687968e-04 0.0000000e+00 
0.0000000e+00 -4.8705965e-04 0.0000000e+00 
0.0000000e+00 -3.4065178e-04 0.0000000e+00 
0.0000000e+00 -1.2126237e-04 0.0000000e+00 
0.0000000e+00 -2.5718295e-05 0.0000000e+00 
0.0000000e+00 1.8213948e-05 0.0000000e+00 
0.0000000e+00 2.2764989e-05 0.0000000e+00 
0.0000000e+00 3.5762148e-06 0.0000000e+00 
0.0000000e+00 3.4406355e-06 0.0000000e+00 
0.0000000e+00 8.0273549e-06 0.0000000e+00 
0.0000000e+00 -1.9538368e-06 0.0000000e+00 
0.0000000e+00 4.0019850e-06 0.0000000e+00 
0.0000000e+00 3.4919053e-06 0.0000000e+00 
0.0000000e+00 -3.9622128e-06 0.0000000e+00 
0.0000000e+00 1.6282996e-06 0.0000000e+00 
0.0000000e+00 3.2620568e-07 0.0000000e+00 
0.0000000e+00 -1.1166369e-04 0.0000000e+00 
0.0000000e+00 -2.3405941e-04 0.0000000e+00 
0.0000000e+00 -3.9533901e-04 0.0000000e+00 
0.0000000e+00 -5.2346429e-04 0.0000000e+00 
0.0000000e+00 -5.2131846e-04 0.0000000e+00 
0.0000000e+00 -4.6962724e-04 0.0000000e+00 
0.0000000e+00 -3.0986173e-04 0.0000000e+00 
0.0000000e+00 -1.2276153e-04 0.0000000e+00 
-2.2624468e-07 5.2011853e-07 6.8235926e-07 
-7.5313288e-08 5.3823879e-07 2.0259961e-07 
-3.1406137e-07 6.0804956e-07 2.7505638e-07 
-3.9106183e-07 1.7077805e-06 6.6451582e-07 
1.6083248e-05 -3.8366666e-06 1.7671608e-05 
2.0020623e-05 -5.5780197e-07 2.9602197e-05 
2.1032149e-05 -2.0563584e-05 4.6442572e-05 
6.8368599e-06 -1.5719195e-05 5.9988331e-05 
1.9283252e-07 1.1277971e-06 6.9657261e-07 
1.2694670e-05 -8.2774653e-07 1.3379090e-05 
6.0206861e-07 2.8555801e-06 1.0765023e-06 
1.2185239e-07 2.3412260e-06 1.3944108e-06 
0.0000000e+00 4.8815118e-06 0.0000000e+00 
0.0000000e+00 3.4885136e-06 0.0000000e+00 
0.0000000e+00 3.7388515e-06 0.0000000e+00 
0.0000000e+00 4.6147597e-06 0.0000000e+00 
0.0000000e+00 7.0616352e-06 0.0000000e+00 
0.0000000e+00 1.0585264e-05 0.0000000e+00 
0.0000000e+00 8.6852315e-06 0.0000000e+00 
0.0000000e+00 8.9447722e-06 0.0000000e+00 
0.0000000e+00 5.9477702e-06 0.0000000e+00 
0.0000000e+00 9.6384192e-06 0.0000000e+00 
0.0000000e+00 1.7067013e-06 0.0000000e+00 
0.0000000e+00 3.5985827e-06 0.0000000e+00 
0.0000000e+00 4.5007368e-06 0.0000000e+00 