# vtk DataFile Version 4.0
vtk output
ASCII
DATASET UNSTRUCTURED_GRID
POINTS 1920 float
0.0000000e+00 0.0000000e+00 0.0000000e+00 
0.0000000e+00 0.0000000e+00 5.0000000e+01 
5.0000000e+00 0.0000000e+00 0.0000000e+00 
5.0000000e+00 0.0000000e+00 5.0000000e+01 
5.0000000e+00 1.0000000e+00 0.0000000e+00 
5.0000000e+00 1.0000000e+00 5.0000000e+01 
0.0000000e+00 1.0000000e+00 0.0000000e+00 
0.0000000e+00 1.0000000e+00 5.0000000e+01 
5.0000000e+00 2.0000000e+00 0.0000000e+00 
5.0000000e+00 2.0000000e+00 5.0000000e+01 
3.0000000e+00 2.0000000e+00 0.0000000e+00 
3.0000000e+00 2.0000000e+00 5.0000000e+01 
0.0000000e+00 2.0000000e+00 0.0000000e+00 
0.0000000e+00 2.0000000e+00 5.0000000e+01 
1.5000000e+00 3.0000000e+00 0.0000000e+00 
1.5000000e+00 3.0000000e+00 5.0000000e+01 
7.5000000e-01 3.0000000e+00 0.0000000e+00 
7.5000000e-01 3.0000000e+00 5.0000000e+01 
0.0000000e+00 3.0000000e+00 0.0000000e+00 
0.0000000e+00 3.0000000e+00 5.0000000e+01 
7.5000000e-01 3.0000000e+00 5.0000000e-01 
7.5000000e-01 3.0000000e+00 1.0000000e+00 
7.5000000e-01 3.0000000e+00 1.5000000e+00 
7.5000000e-01 3.0000000e+00 2.0000000e+00 
7.5000000e-01 3.0000000e+00 2.5000000e+00 
7.5000000e-01 3.0000000e+00 3.0000000e+00 
7.5000000e-01 3.0000000e+00 3.5000000e+00 
7.5000000e-01 3.0000000e+00 4.0000000e+00 
7.5000000e-01 3.0000000e+00 4.5000000e+00 
7.5000000e-01 3.0000000e+00 5.0000000e+00 
7.5000000e-01 3.0000000e+00 5.5000000e+00 
7.5000000e-01 3.0000000e+00 6.0000000e+00 
7.5000000e-01 3.0000000e+00 6.5000000e+00 
7.5000000e-01 3.0000000e+00 7.0000000e+00 
7.5000000e-01 3.0000000e+00 7.5000000e+00 
7.5000000e-01 3.0000000e+00 8.0000000e+00 
7.5000000e-01 3.0000000e+00 8.5000000e+00 
7.5000000e-01 3.0000000e+00 9.0000000e+00 
7.5000000e-01 3.0000000e+00 9.5000000e+00 
7.5000000e-01 3.0000000e+00 1.0000000e+01 
7.5000000e-01 3.0000000e+00 1.0500000e+01 
7.5000000e-01 3.0000000e+00 1.1000000e+01 
7.5000000e-01 3.0000000e+00 1.1500000e+01 
7.5000000e-01 3.0000000e+00 1.2000000e+01 
7.5000000e-01 3.0000000e+00 1.2500000e+01 
7.5000000e-01 3.0000000e+00 1.3000000e+01 
7.5000000e-01 3.0000000e+00 1.3500000e+01 
7.5000000e-01 3.0000000e+00 1.4000000e+01 
7.5000000e-01 3.0000000e+00 1.4500000e+01 
7.5000000e-01 3.0000000e+00 1.5000000e+01 
7.5000000e-01 3.0000000e+00 1.5500000e+01 
7.5000000e-01 3.0000000e+00 1.6000000e+01 
7.5000000e-01 3.0000000e+00 1.6500000e+01 
7.5000000e-01 3.0000000e+00 1.7000000e+01 
7.5000000e-01 3.0000000e+00 1.7500000e+01 
7.5000000e-01 3.0000000e+00 1.8000000e+01 
7.5000000e-01 3.0000000e+00 1.8500000e+01 
7.5000000e-01 3.0000000e+00 1.9000000e+01 
7.5000000e-01 3.0000000e+00 1.9500000e+01 
7.5000000e-01 3.0000000e+00 2.0000000e+01 
7.5000000e-01 3.0000000e+00 2.0500000e+01 
7.5000000e-01 3.0000000e+00 2.1000000e+01 
7.5000000e-01 3.0000000e+00 2.1500000e+01 
7.5000000e-01 3.0000000e+00 2.2000000e+01 
7.5000000e-01 3.0000000e+00 2.2500000e+01 
7.5000000e-01 3.0000000e+00 2.3000000e+01 
7.5000000e-01 3.0000000e+00 2.3500000e+01 
7.5000000e-01 3.0000000e+00 2.4000000e+01 
7.5000000e-01 3.0000000e+00 2.4500000e+01 
7.5000000e-01 3.0000000e+00 2.5000000e+01 
7.5000000e-01 3.0000000e+00 2.5500000e+01 
7.5000000e-01 3.0000000e+00 2.6000000e+01 
7.5000000e-01 3.0000000e+00 2.6500000e+01 
7.5000000e-01 3.0000000e+00 2.7000000e+01 
7.5000000e-01 3.0000000e+00 2.7500000e+01 
7.5000000e-01 3.0000000e+00 2.8000000e+01 
7.5000000e-01 3.0000000e+00 2.8500000e+01 
7.5000000e-01 3.0000000e+00 2.9000000e+01 
7.5000000e-01 3.0000000e+00 2.9500000e+01 
7.5000000e-01 3.0000000e+00 3.0000000e+01 
7.5000000e-01 3.0000000e+00 3.0500000e+01 
7.5000000e-01 3.0000000e+00 3.1000000e+01 
7.5000000e-01 3.0000000e+00 3.1500000e+01 
7.5000000e-01 3.0000000e+00 3.2000000e+01 
7.5000000e-01 3.0000000e+00 3.2500000e+01 
7.5000000e-01 3.0000000e+00 3.3000000e+01 
7.5000000e-01 3.0000000e+00 3.3500000e+01 
7.5000000e-01 3.0000000e+00 3.4000000e+01 
7.5000000e-01 3.0000000e+00 3.4500000e+01 
7.5000000e-01 3.0000000e+00 3.5000000e+01 
7.5000000e-01 3.0000000e+00 3.5500000e+01 
7.5000000e-01 3.0000000e+00 3.6000000e+01 
7.5000000e-01 3.0000000e+00 3.6500000e+01 
7.5000000e-01 3.0000000e+00 3.7000000e+01 
7.5000000e-01 3.0000000e+00 3.7500000e+01 
7.5000000e-01 3.0000000e+00 3.8000000e+01 
7.5000000e-01 3.0000000e+00 3.8500000e+01 
7.5000000e-01 3.0000000e+00 3.9000000e+01 
7.5000000e-01 3.0000000e+00 3.9500000e+01 
7.5000000e-01 3.0000000e+00 4.0000000e+01 
7.5000000e-01 3.0000000e+00 4.0500000e+01 
7.5000000e-01 3.0000000e+00 4.1000000e+01 
7.5000000e-01 3.0000000e+00 4.1500000e+01 
7.5000000e-01 3.0000000e+00 4.2000000e+01 
7.5000000e-01 3.0000000e+00 4.2500000e+01 
7.5000000e-01 3.0000000e+00 4.3000000e+01 
7.5000000e-01 3.0000000e+00 4.3500000e+01 
7.5000000e-01 3.0000000e+00 4.4000000e+01 
7.5000000e-01 3.0000000e+00 4.4500000e+01 
7.5000000e-01 3.0000000e+00 4.5000000e+01 
7.5000000e-01 3.0000000e+00 4.5500000e+01 
7.5000000e-01 3.0000000e+00 4.6000000e+01 
7.5000000e-01 3.0000000e+00 4.6500000e+01 
7.5000000e-01 3.0000000e+00 4.7000000e+01 
7.5000000e-01 3.0000000e+00 4.7500000e+01 
7.5000000e-01 3.0000000e+00 4.8000000e+01 
7.5000000e-01 3.0000000e+00 4.8500000e+01 
7.5000000e-01 3.0000000e+00 4.9000000e+01 
7.5000000e-01 3.0000000e+00 4.9500000e+01 
7.5000000e-01 3.0250001e+00 0.0000000e+00 
7.5000000e-01 3.0250001e+00 5.0000000e-01 
7.5000000e-01 3.0250001e+00 1.0000000e+00 
7.5000000e-01 3.0250001e+00 1.5000000e+00 
7.5000000e-01 3.0250001e+00 2.0000000e+00 
7.5000000e-01 3.0250001e+00 2.5000000e+00 
7.5000000e-01 3.0250001e+00 3.0000000e+00 
7.5000000e-01 3.0250001e+00 3.5000000e+00 
7.5000000e-01 3.0250001e+00 4.0000000e+00 
7.5000000e-01 3.0250001e+00 4.5000000e+00 
7.5000000e-01 3.0250001e+00 5.0000000e+00 
7.5000000e-01 3.0250001e+00 5.5000000e+00 
7.5000000e-01 3.0250001e+00 6.0000000e+00 
7.5000000e-01 3.0250001e+00 6.5000000e+00 
7.5000000e-01 3.0250001e+00 7.0000000e+00 
7.5000000e-01 3.0250001e+00 7.5000000e+00 
7.5000000e-01 3.0250001e+00 8.0000000e+00 
7.5000000e-01 3.0250001e+00 8.5000000e+00 
7.5000000e-01 3.0250001e+00 9.0000000e+00 
7.5000000e-01 3.0250001e+00 9.5000000e+00 
7.5000000e-01 3.0250001e+00 1.0000000e+01 
7.5000000e-01 3.0250001e+00 1.0500000e+01 
7.5000000e-01 3.0250001e+00 1.1000000e+01 
7.5000000e-01 3.0250001e+00 1.1500000e+01 
7.5000000e-01 3.0250001e+00 1.2000000e+01 
7.5000000e-01 3.0250001e+00 1.2500000e+01 
7.5000000e-01 3.0250001e+00 1.3000000e+01 
7.5000000e-01 3.0250001e+00 1.3500000e+01 
7.5000000e-01 3.0250001e+00 1.4000000e+01 
7.5000000e-01 3.0250001e+00 1.4500000e+01 
7.5000000e-01 3.0250001e+00 1.5000000e+01 
7.5000000e-01 3.0250001e+00 1.5500000e+01 
7.5000000e-01 3.0250001e+00 1.6000000e+01 
7.5000000e-01 3.0250001e+00 1.6500000e+01 
7.5000000e-01 3.0250001e+00 1.7000000e+01 
7.5000000e-01 3.0250001e+00 1.7500000e+01 
7.5000000e-01 3.0250001e+00 1.8000000e+01 
7.5000000e-01 3.0250001e+00 1.8500000e+01 
7.5000000e-01 3.0250001e+00 1.9000000e+01 
7.5000000e-01 3.0250001e+00 1.9500000e+01 
7.5000000e-01 3.0250001e+00 2.0000000e+01 
7.5000000e-01 3.0250001e+00 2.0500000e+01 
7.5000000e-01 3.0250001e+00 2.1000000e+01 
7.5000000e-01 3.0250001e+00 2.1500000e+01 
7.5000000e-01 3.0250001e+00 2.2000000e+01 
7.5000000e-01 3.0250001e+00 2.2500000e+01 
7.5000000e-01 3.0250001e+00 2.3000000e+01 
7.5000000e-01 3.0250001e+00 2.3500000e+01 
7.5000000e-01 3.0250001e+00 2.4000000e+01 
7.5000000e-01 3.0250001e+00 2.4500000e+01 
7.5000000e-01 3.0250001e+00 2.5000000e+01 
7.5000000e-01 3.0250001e+00 2.5500000e+01 
7.5000000e-01 3.0250001e+00 2.6000000e+01 
7.5000000e-01 3.0250001e+00 2.6500000e+01 
7.5000000e-01 3.0250001e+00 2.7000000e+01 
7.5000000e-01 3.0250001e+00 2.7500000e+01 
7.5000000e-01 3.0250001e+00 2.8000000e+01 
7.5000000e-01 3.0250001e+00 2.8500000e+01 
7.5000000e-01 3.0250001e+00 2.9000000e+01 
7.5000000e-01 3.0250001e+00 2.9500000e+01 
7.5000000e-01 3.0250001e+00 3.0000000e+01 
7.5000000e-01 3.0250001e+00 3.0500000e+01 
7.5000000e-01 3.0250001e+00 3.1000000e+01 
7.5000000e-01 3.0250001e+00 3.1500000e+01 
7.5000000e-01 3.0250001e+00 3.2000000e+01 
7.5000000e-01 3.0250001e+00 3.2500000e+01 
7.5000000e-01 3.0250001e+00 3.3000000e+01 
7.5000000e-01 3.0250001e+00 3.3500000e+01 
7.5000000e-01 3.0250001e+00 3.4000000e+01 
7.5000000e-01 3.0250001e+00 3.4500000e+01 
7.5000000e-01 3.0250001e+00 3.5000000e+01 
7.5000000e-01 3.0250001e+00 3.5500000e+01 
7.5000000e-01 3.0250001e+00 3.6000000e+01 
7.5000000e-01 3.0250001e+00 3.6500000e+01 
7.5000000e-01 3.0250001e+00 3.7000000e+01 
7.5000000e-01 3.0250001e+00 3.7500000e+01 
7.5000000e-01 3.0250001e+00 3.8000000e+01 
7.5000000e-01 3.0250001e+00 3.8500000e+01 
7.5000000e-01 3.0250001e+00 3.9000000e+01 
7.5000000e-01 3.0250001e+00 3.9500000e+01 
7.5000000e-01 3.0250001e+00 4.0000000e+01 
7.5000000e-01 3.0250001e+00 4.0500000e+01 
7.5000000e-01 3.0250001e+00 4.1000000e+01 
7.5000000e-01 3.0250001e+00 4.1500000e+01 
7.5000000e-01 3.0250001e+00 4.2000000e+01 
7.5000000e-01 3.0250001e+00 4.2500000e+01 
7.5000000e-01 3.0250001e+00 4.3000000e+01 
7.5000000e-01 3.0250001e+00 4.3500000e+01 
7.5000000e-01 3.0250001e+00 4.4000000e+01 
7.5000000e-01 3.0250001e+00 4.4500000e+01 
7.5000000e-01 3.0250001e+00 4.5000000e+01 
7.5000000e-01 3.0250001e+00 4.5500000e+01 
7.5000000e-01 3.0250001e+00 4.6000000e+01 
7.5000000e-01 3.0250001e+00 4.6500000e+01 
7.5000000e-01 3.0250001e+00 4.7000000e+01 
7.5000000e-01 3.0250001e+00 4.7500000e+01 
7.5000000e-01 3.0250001e+00 4.8000000e+01 
7.5000000e-01 3.0250001e+00 4.8500000e+01 
7.5000000e-01 3.0250001e+00 4.9000000e+01 
7.5000000e-01 3.0250001e+00 4.9500000e+01 
7.5000000e-01 3.0250001e+00 5.0000000e+01 
1.5000000e+00 3.0000000e+00 2.5000000e+01 
3.0000000e+00 2.0000000e+00 2.5000000e+01 
4.0000000e+00 2.0000000e+00 2.5000000e+01 
5.0000000e+00 2.0000000e+00 2.5000000e+01 
0.0000000e+00 3.0000000e+00 2.5000000e+01 
0.0000000e+00 0.0000000e+00 1.0000000e+00 
0.0000000e+00 0.0000000e+00 2.0000000e+00 
0.0000000e+00 0.0000000e+00 3.0000000e+00 
0.0000000e+00 0.0000000e+00 4.0000000e+00 
0.0000000e+00 0.0000000e+00 5.0000000e+00 
[...]
POINT_DATA 1920
FIELD FieldData 3
DISPLACEMENT 3 1920  float
0.0000000e+00 0.0000000e+00 0.0000000e+00 
0.0000000e+00 0.0000000e+00 0.0000000e+00 
0.0000000e+00 0.0000000e+00 0.0000000e+00 
0.0000000e+00 0.0000000e+00 0.0000000e+00 
-1.7528978e-07 -6.6481916e-06 -1.2502876e-06 
2.6743441e-11 3.3828013e-10 -3.5444869e-11 
0.0000000e+00 2.6696169e-05 0.0000000e+00 
0.0000000e+00 -3.8539927e-09 0.0000000e+00 
-9.5425946e-07 -4.6386663e-06 3.3343574e-06 
2.2331939e-10 2.7256303e-10 2.8727651e-10 
2.0450761e-05 2.0204619e-05 -3.5011511e-05 
1.1298565e-09 3.8383976e-09 5.6456040e-10 
0.0000000e+00 4.5386660e-05 0.0000000e+00 
0.0000000e+00 -7.0559132e-08 0.0000000e+00 
5.2151308e-06 4.9243525e-05 -6.4996122e-05 
2.6778608e-08 6.7814678e-09 2.9357172e-09 
4.0650242e-08 7.6666824e-05 -1.2459140e-05 
-1.3820515e-09 -7.6483826e-07 -4.0224535e-08 
0.0000000e+00 9.5391195e-05 0.0000000e+00 
0.0000000e+00 -1.9939296e-07 0.0000000e+00 
9.3514791e-06 7.6843702e-05 -5.1920338e-06 
1.7637576e-05 7.1637725e-05 2.5894202e-05 
1.7748353e-05 5.2849278e-05 6.8429683e-05 
2.2686897e-06 1.0237582e-05 1.0544840e-04 
-3.7744961e-05 -6.8846908e-05 1.3837763e-04 
-3.6238303e-05 -1.9878065e-04 1.5486323e-04 
-6.9803296e-05 -4.0179846e-04 2.2496560e-04 
-7.5999531e-05 -7.1735529e-04 2.7015290e-04 
-1.3260203e-04 -1.1918367e-03 3.3527080e-04 
-2.0222802e-04 -1.8749151e-03 2.8537592e-04 
-3.0250981e-04 -2.7920729e-03 3.4617758e-04 
-3.0473620e-04 -3.8770097e-03 1.1531393e-04 
-3.9346109e-04 -4.9447091e-03 1.2108000e-04 
-4.7718085e-04 -5.5311015e-03 -1.1209243e-04 
-4.5349455e-04 -5.3158589e-03 -2.5339358e-04 
-3.8918492e-04 -4.8747067e-03 -2.4899832e-04 
-3.2226945e-04 -4.6672621e-03 -2.7033131e-04 
-2.6864506e-04 -4.6116067e-03 -2.8008447e-04 
-2.5272285e-04 -4.2827078e-03 -2.9045891e-04 
-1.8456911e-04 -3.2062756e-03 -2.5568568e-04 
-9.0613321e-05 -1.9469021e-03 -3.2005447e-04 
-4.4374057e-05 -9.0015813e-04 -1.5261523e-04 
5.5024962e-06 -2.1257043e-04 -1.3724637e-04 
2.5452548e-05 1.5761594e-04 1.1261222e-06 
2.7127708e-05 2.9304755e-04 2.9371971e-05 
1.4589310e-05 2.9000046e-04 3.5702000e-05 
1.1177668e-05 2.2369214e-04 4.4750112e-05 
5.8354585e-06 1.3763303e-04 6.4175447e-06 
-1.0172383e-07 5.7935176e-05 3.9744023e-06 
1.2682887e-07 -2.6854773e-06 1.3764816e-06 
-8.3312098e-06 -4.0177194e-05 -1.5360492e-05 
-4.8053216e-06 -5.3107804e-05 5.0512716e-07 
-4.5125453e-06 -4.3142689e-05 2.1032959e-06 
-4.0198652e-06 -1.8204228e-05 3.6672359e-06 
1.5187496e-06 1.0473748e-05 8.5381935e-06 
3.3621086e-07 2.9565390e-05 1.2068608e-06 
-9.9698639e-07 3.0987019e-05 -1.4660801e-05 
2.3673208e-06 2.1572196e-05 -9.3242370e-06 
5.5046989e-06 1.6057935e-05 -1.9957728e-05 
1.4014355e-06 2.6138072e-05 -1.3710801e-05 
2.2551653e-06 5.0722447e-05 -5.6877173e-08 
7.3176898e-06 7.0592068e-05 7.3799829e-06 
3.6241111e-06 6.4536856e-05 6.1734812e-05 
1.1387930e-05 1.9381790e-05 1.1903892e-04 
-1.6601771e-05 -7.4717042e-05 1.5604623e-04 
-5.0076531e-05 -2.2960125e-04 1.7305212e-04 
-9.5939096e-05 -4.6315981e-04 2.3063066e-04 
-2.1399626e-04 -8.1565505e-04 3.1137918e-04 
-1.5482299e-04 -1.3285248e-03 2.9888083e-04 
-2.4436231e-04 -2.0552748e-03 2.8366782e-04 
-2.7044973e-04 -3.0197541e-03 3.5869755e-04 
-4.4823831e-04 -4.1365381e-03 8.3130290e-05 
-4.6154021e-04 -5.1718503e-03 7.0230621e-05 
-4.7965426e-04 -5.5908933e-03 -1.0806738e-04 
-4.6845546e-04 -5.2805366e-03 -3.0801777e-04 
-4.1659910e-04 -4.8660082e-03 -2.8228748e-04 
-3.3284517e-04 -4.7210711e-03 -2.8135063e-04 
-3.3785743e-04 -4.6739662e-03 -3.0086824e-04 
-3.0156504e-04 -4.2145187e-03 -3.6641993e-04 
-2.2102124e-04 -3.0412681e-03 -2.8272337e-04 
-1.1678459e-04 -1.7925842e-03 -3.7082128e-04 
-4.3846434e-05 -7.8436191e-04 -1.7406892e-04 
1.4217486e-05 -1.3995175e-04 -1.3409989e-04 
3.5589310e-05 1.9655621e-04 1.2888994e-05 
2.7474181e-05 3.1001915e-04 4.3540356e-05 
1.9296986e-05 2.9201651e-04 3.8983209e-05 
1.8312116e-05 2.1565703e-04 4.8601978e-05 
4.5359470e-06 1.2179330e-04 6.1240967e-06 
-9.1527511e-07 3.8538896e-05 3.4167431e-06 
-9.0693823e-07 -1.8314639e-05 -1.2429265e-06 
-4.9229689e-06 -4.1980526e-05 -1.2755581e-05 
-3.4331661e-06 -3.8290553e-05 -3.2555404e-06 
-5.9134288e-07 -1.8426526e-05 -6.7986866e-07 
-1.8850368e-06 2.6713030e-06 8.6158133e-07 
3.1680377e-06 1.3801954e-05 2.8791828e-06 
-2.2205541e-06 1.3273753e-05 -3.0898148e-06 
9.7231543e-07 3.9993183e-06 7.6681818e-07 
-3.6815766e-07 -7.4869740e-06 2.0606342e-06 
-3.7998607e-08 -1.3184227e-05 -3.1366944e-06 
5.0237037e-07 -9.9284771e-06 7.4495966e-07 
2.9290244e-09 -6.6754490e-07 4.6853486e-07 
-3.5123676e-07 7.7088116e-06 -1.3973496e-06 
3.6216233e-07 9.5446276e-06 1.0790328e-06 
3.0378982e-07 5.7517032e-06 -1.0726119e-07 
-1.1547833e-07 -3.6140104e-08 -4.6055501e-07 
3.4888149e-08 -4.6656742e-06 5.6010072e-07 
-1.7728360e-07 -5.9937852e-06 -4.3771368e-07 
-3.2424356e-07 -3.7051100e-06 -3.6117174e-07 
1.4733216e-07 9.0610320e-07 3.6689937e-07 
2.2629884e-07 4.5499919e-06 -3.2684828e-09 
-1.0978688e-08 3.9818888e-06 -1.1983096e-09 
-5.8069404e-08 1.6594875e-07 1.0030438e-07 
-5.9436907e-08 -2.8695310e-06 -1.2608028e-07 
-5.1278253e-08 -2.6468658e-06 -6.1530585e-08 
2.9499745e-08 -1.3389307e-07 5.1585289e-08 
-1.2916098e-08 1.7535694e-06 -3.9895788e-08 
-2.8791874e-08 1.5533255e-06 1.6326970e-08 
1.0124454e-08 2.9120358e-07 -3.5778005e-09 
-1.2303159e-08 -5.6012306e-07 1.5594335e-08 
0.0000000e+00 7.6888100e-05 0.0000000e+00 
0.0000000e+00 7.6851546e-05 0.0000000e+00 
0.0000000e+00 7.1818875e-05 0.0000000e+00 
0.0000000e+00 5.3204294e-05 0.0000000e+00 
0.0000000e+00 1.0531352e-05 0.0000000e+00 
0.0000000e+00 -6.8429101e-05 0.0000000e+00 
0.0000000e+00 -1.9800983e-04 0.0000000e+00 
0.0000000e+00 -4.0145108e-04 0.0000000e+00 
0.0000000e+00 -7.1704818e-04 0.0000000e+00 
0.0000000e+00 -1.1929896e-03 0.0000000e+00 
0.0000000e+00 -1.8795214e-03 0.0000000e+00 
0.0000000e+00 -2.7985123e-03 0.0000000e+00 
0.0000000e+00 -3.8916736e-03 0.0000000e+00 
0.0000000e+00 -4.9637672e-03 0.0000000e+00 
0.0000000e+00 -5.5606426e-03 0.0000000e+00 
0.0000000e+00 -5.3370479e-03 0.0000000e+00 
0.0000000e+00 -4.9021216e-03 0.0000000e+00 
0.0000000e+00 -4.6856953e-03 0.0000000e+00 
0.0000000e+00 -4.6396758e-03 0.0000000e+00 
0.0000000e+00 -4.3062754e-03 0.0000000e+00 
0.0000000e+00 -3.2292681e-03 0.0000000e+00 
0.0000000e+00 -1.9595274e-03 0.0000000e+00 
0.0000000e+00 -9.0882409e-04 0.0000000e+00 
0.0000000e+00 -2.1418750e-04 0.0000000e+00 
0.0000000e+00 1.5722221e-04 0.0000000e+00 
0.0000000e+00 2.9412616e-04 0.0000000e+00 
0.0000000e+00 2.9178167e-04 0.0000000e+00 
0.0000000e+00 2.2483031e-04 0.0000000e+00 
0.0000000e+00 1.3845798e-04 0.0000000e+00 
0.0000000e+00 5.8409219e-05 0.0000000e+00 
0.0000000e+00 -2.6097628e-06 0.0000000e+00 
0.0000000e+00 -4.0171730e-05 0.0000000e+00 
0.0000000e+00 -5.2942316e-05 0.0000000e+00 
0.0000000e+00 -4.3042332e-05 0.0000000e+00 
0.0000000e+00 -1.8125360e-05 0.0000000e+00 
0.0000000e+00 1.0258880e-05 0.0000000e+00 
0.0000000e+00 2.8959186e-05 0.0000000e+00 
0.0000000e+00 3.0694337e-05 0.0000000e+00 
0.0000000e+00 2.1732880e-05 0.0000000e+00 
0.0000000e+00 1.6579908e-05 0.0000000e+00 
0.0000000e+00 2.6861284e-05 0.0000000e+00 
0.0000000e+00 5.0813462e-05 0.0000000e+00 
0.0000000e+00 7.0370479e-05 0.0000000e+00 
0.0000000e+00 6.4535641e-05 0.0000000e+00 
0.0000000e+00 1.9534511e-05 0.0000000e+00 
0.0000000e+00 -7.4342490e-05 0.0000000e+00 
0.0000000e+00 -2.2844343e-04 0.0000000e+00 
0.0000000e+00 -4.6293976e-04 0.0000000e+00 
0.0000000e+00 -8.1489340e-04 0.0000000e+00 
0.0000000e+00 -1.3300481e-03 0.0000000e+00 
0.0000000e+00 -2.0609798e-03 0.0000000e+00 
0.0000000e+00 -3.0278196e-03 0.0000000e+00 
0.0000000e+00 -4.1527865e-03 0.0000000e+00 
0.0000000e+00 -5.1910290e-03 0.0000000e+00 
0.0000000e+00 -5.6210249e-03 0.0000000e+00 
0.0000000e+00 -5.3012753e-03 0.0000000e+00 
0.0000000e+00 -4.8934943e-03 0.0000000e+00 
0.0000000e+00 -4.7399770e-03 0.0000000e+00 
0.0000000e+00 -4.7033131e-03 0.0000000e+00 
0.0000000e+00 -4.2356923e-03 0.0000000e+00 
0.0000000e+00 -3.0643479e-03 0.0000000e+00 
0.0000000e+00 -1.8023957e-03 0.0000000e+00 
0.0000000e+00 -7.9260999e-04 0.0000000e+00 
0.0000000e+00 -1.4108018e-04 0.0000000e+00 
0.0000000e+00 1.9671061e-04 0.0000000e+00 
0.0000000e+00 3.1108872e-04 0.0000000e+00 
0.0000000e+00 2.9370745e-04 0.0000000e+00 
0.0000000e+00 2.1640326e-04 0.0000000e+00 
0.0000000e+00 1.2249137e-04 0.0000000e+00 
0.0000000e+00 3.9088278e-05 0.0000000e+00 
0.0000000e+00 -1.7693950e-05 0.0000000e+00 
0.0000000e+00 -4.1832169e-05 0.0000000e+00 
0.0000000e+00 -3.8229300e-05 0.0000000e+00 
0.0000000e+00 -1.8661185e-05 0.0000000e+00 
0.0000000e+00 2.1728638e-06 0.0000000e+00 
0.0000000e+00 1.3594146e-05 0.0000000e+00 
0.0000000e+00 1.3157228e-05 0.0000000e+00 
0.0000000e+00 4.0103928e-06 0.0000000e+00 
0.0000000e+00 -7.1708073e-06 0.0000000e+00 
0.0000000e+00 -1.2911983e-05 0.0000000e+00 
0.0000000e+00 -9.8557966e-06 0.0000000e+00 
0.0000000e+00 -8.0310514e-07 0.0000000e+00 
0.0000000e+00 7.3993106e-06 0.0000000e+00 
0.0000000e+00 9.4624265e-06 0.0000000e+00 
0.0000000e+00 5.8162236e-06 0.0000000e+00 
0.0000000e+00 2.5953668e-08 0.0000000e+00 
0.0000000e+00 -4.5561342e-06 0.0000000e+00 
0.0000000e+00 -5.9050640e-06 0.0000000e+00 
0.0000000e+00 -3.6543588e-06 0.0000000e+00 
0.0000000e+00 8.3500669e-07 0.0000000e+00 
0.0000000e+00 4.3246828e-06 0.0000000e+00 
0.0000000e+00 3.8947710e-06 0.0000000e+00 
0.0000000e+00 3.2885387e-07 0.0000000e+00 
0.0000000e+00 -2.6987773e-06 0.0000000e+00 
0.0000000e+00 -2.6319474e-06 0.0000000e+00 
0.0000000e+00 -2.5688470e-07 0.0000000e+00 
0.0000000e+00 1.6538023e-06 0.0000000e+00 
0.0000000e+00 1.5865168e-06 0.0000000e+00 
0.0000000e+00 3.8113109e-07 0.0000000e+00 
0.0000000e+00 -5.4935413e-07 0.0000000e+00 
0.0000000e+00 -8.1052872e-07 0.0000000e+00 
-5.8441621e-04 -1.1851151e-03 4.1541943e-04 
-2.2954560e-05 -3.4259859e-04 1.9975718e-05 
3.6249086e-05 -1.1148602e-04 -3.7325124e-05 
4.5242803e-05 6.0104128e-05 -3.3315362e-05 
0.0000000e+00 -1.7591940e-03 0.0000000e+00 
0.0000000e+00 0.0000000e+00 0.0000000e+00 
0.0000000e+00 0.0000000e+00 0.0000000e+00 
0.0000000e+00 0.0000000e+00 0.0000000e+00 
0.0000000e+00 0.0000000e+00 0.0000000e+00 
0.0000000e+00 0.0000000e+00 0.0000000e+00 
0.0000000e+00 0.0000000e+00 0.0000000e+00 
0.0000000e+00 0.0000000e+00 0.0000000e+00 
0.0000000e+00 0.0000000e+00 0.0000000e+00 
0.0000000e+00 0.0000000e+00 0.0000000e+00 
0.0000000e+00 0.0000000e+00 0.0000000e+00 
0.0000000e+00 0.0000000e+00 0.0000000e+00 
0.0000000e+00 0.0000000e+00 0.0000000e+00 
0.0000000e+00 0.0000000e+00 0.0000000e+00 
0.0000000e+00 0.0000000e+00 0.0000000e+00 
0.0000000e+00 0.0000000e+00 0.0000000e+00 
0.0000000e+00 0.0000000e+00 0.0000000e+00 
0.0000000e+00 0.0000000e+00 0.0000000e+00 
0.0000000e+00 0.0000000e+00 0.0000000e+00 
0.0000000e+00 0.0000000e+00 0.0000000e+00 
0.0000000e+00 0.0000000e+00 0.0000000e+00 
0.0000000e+00 0.0000000e+00 0.0000000e+00 
0.0000000e+00 0.0000000e+00 0.0000000e+00 
0.0000000e+00 0.0000000e+00 0.0000000e+00 
0.0000000e+00 0.0000000e+00 0.0000000e+00 
0.0000000e+00 0.0000000e+00 0.0000000e+00 
0.0000000e+00 0.0000000e+00 0.0000000e+00 
0.0000000e+00 0.0000000e+00 0.0000000e+00 
0.0000000e+00 0.0000000e+00 0.0000000e+00 
0.0000000e+00 0.0000000e+00 0.0000000e+00 
0.0000000e+00 0.0000000e+00 0.0000000e+00 
0.0000000e+00 0.0000000e+00 0.0000000e+00 
0.0000000e+00 0.0000000e+00 0.0000000e+00 
0.0000000e+00 0.0000000e+00 0.0000000e+00 
0.0000000e+00 0.0000000e+00 0.0000000e+00 
0.0000000e+00 0.0000000e+00 0.0000000e+00 
0.0000000e+00 0.0000000e+00 0.0000000e+00 
0.0000000e+00 0.0000000e+00 0.0000000e+00 
0.0000000e+00 0.0000000e+00 0.0000000e+00 
0.0000000e+00 0.0000000e+00 0.0000000e+00 
0.0000000e+00 0.0000000e+00 0.0000000e+00 
0.0000000e+00 0.0000000e+00 0.0000000e+00 
0.0000000e+00 0.0000000e+00 0.0000000e+00 
0.0000000e+00 0.0000000e+00 0.0000000e+00 
0.0000000e+00 0.0000000e+00 0.0000000e+00 
0.0000000e+00 0.0000000e+00 0.0000000e+00 
0.0000000e+00 0.0000000e+00 0.0000000e+00 
0.0000000e+00 0.0000000e+00 0.0000000e+00 
0.0000000e+00 0.0000000e+00 0.0000000e+00 
0.0000000e+00 0.0000000e+00 0.0000000e+00 
0.0000000e+00 0.0000000e+00 0.0000000e+00 
0.0000000e+00 0.0000000e+00 0.0000000e+00 
0.0000000e+00 0.0000000e+00 0.0000000e+00 
0.0000000e+00 0.0000000e+00 0.0000000e+00 
0.0000000e+00 0.0000000e+00 0.0000000e+00 
0.0000000e+00 0.0000000e+00 0.0000000e+00 
0.0000000e+00 0.0000000e+00 0.0000000e+00 
0.0000000e+00 0.0000000e+00 0.0000000e+00 
0.0000000e+00 0.0000000e+00 0.0000000e+00 
0.0000000e+00 0.0000000e+00 0.0000000e+00 
0.0000000e+00 0.0000000e+00 0.0000000e+00 
0.0000000e+00 0.0000000e+00 0.0000000e+00 
0.0000000e+00 0.0000000e+00 0.0000000e+00 
0.0000000e+00 0.0000000e+00 0.0000000e+00 
0.0000000e+00 0.0000000e+00 0.0000000e+00 
0.0000000e+00 0.0000000e+00 0.0000000e+00 
0.0000000e+00 0.0000000e+00 0.0000000e+00 
0.0000000e+00 0.0000000e+00 0.0000000e+00 
0.0000000e+00 0.0000000e+00 0.0000000e+00 
0.0000000e+00 0.0000000e+00 0.0000000e+00 
0.0000000e+00 0.0000000e+00 0.0000000e+00 
0.0000000e+00 0.0000000e+00 0.0000000e+00 
0.0000000e+00 0.0000000e+00 0.0000000e+00 
0.0000000e+00 0.0000000e+00 0.0000000e+00 
0.0000000e+00 0.0000000e+00 0.0000000e+00 
0.0000000e+00 0.0000000e+00 0.0000000e+00 
0.0000000e+00 0.0000000e+00 0.0000000e+00 
0.0000000e+00 0.0000000e+00 0.0000000e+00 
0.0000000e+00 0.0000000e+00 0.0000000e+00 
0.0000000e+00 0.0000000e+00 0.0000000e+00 
0.0000000e+00 0.0000000e+00 0.0000000e+00 
0.0000000e+00 0.0000000e+00 0.0000000e+00 
0.0000000e+00 0.0000000e+00 0.0000000e+00 
0.0000000e+00 0.0000000e+00 0.0000000e+00 
0.0000000e+00 0.0000000e+00 0.0000000e+00 
0.0000000e+00 0.0000000e+00 0.0000000e+00 
0.0000000e+00 0.0000000e+00 0.0000000e+00 
0.0000000e+00 0.0000000e+00 0.0000000e+00 
0.0000000e+00 0.0000000e+00 0.0000000e+00 
0.0000000e+00 0.0000000e+00 0.0000000e+00 
0.0000000e+00 0.0000000e+00 0.0000000e+00 
0.0000000e+00 0.0000000e+00 0.0000000e+00 
0.0000000e+00 0.0000000e+00 0.0000000e+00 
0.0000000e+00 0.0000000e+00 0.0000000e+00 
0.0000000e+00 0.0000000e+00 0.0000000e+00 
0.0000000e+00 0.0000000e+00 0.0000000e+00 
0.0000000e+00 0.0000000e+00 0.0000000e+00 
0.0000000e+00 0.0000000e+00 0.0000000e+00 
0.0000000e+00 0.0000000e+00 0.0000000e+00 
0.0000000e+00 0.0000000e+00 0.0000000e+00 
0.0000000e+00 0.0000000e+00 0.0000000e+00 
0.0000000e+00 0.0000000e+00 0.0000000e+00 
0.0000000e+00 0.0000000e+00 0.0000000e+00 
0.0000000e+00 0.0000000e+00 0.0000000e+00 
0.0000000e+00 0.0000000e+00 0.0000000e+00 
0.0000000e+00 0.0000000e+00 0.0000000e+00 
0.0000000e+00 0.0000000e+00 0.0000000e+00 
5.0808148e-06 -9.0813528e-06 -5.0355893e-06 
2.4666442e-05 5.3506365e-06 -1.7562474e-05 
5.8815924e-05 -1.3739090e-06 -3.1794698e-05 
9.3603026e-05 5.1246506e-08 -3.7790134e-05 
1.3019086e-04 2.6378359e-05 -3.2643267e-05 
1.5369181e-04 2.5506421e-05 -1.3852408e-05 
1.6407359e-04 4.2365118e-05 1.9196576e-05 
1.4099925e-04 2.1482245e-05 2.9356785e-05 
1.1098006e-04 3.5302287e-06 4.0279534e-05 
5.4892880e-05 1.0190578e-05 3.3421460e-05 
2.8737717e-05 -4.8297438e-06 1.8692854e-05 
4.8448269e-06 -1.6238266e-05 6.4810733e-06 
-2.1424416e-06 -3.0036256e-06 -1.8225819e-07 
-2.7397514e-06 1.1883732e-05 -1.3923865e-06 
-8.6801492e-08 6.8104146e-07 7.8494702e-07 
2.6356878e-07 -4.4326998e-06 1.5425299e-07 
-6.3665027e-07 -1.4756865e-06 -6.0300107e-07 
-1.0781371e-06 4.6354039e-06 1.1176355e-06 
-1.4759084e-06 3.3145268e-06 3.7493976e-06 
-2.5574738e-07 -1.0451428e-05 -2.7336075e-06 
9.2601440e-06 -8.0268828e-06 -1.0622306e-05 
3.3080556e-05 9.2680257e-06 -2.0498181e-05 
6.9329100e-05 5.5387000e-06 -3.2187363e-05 
1.1364074e-04 1.7174940e-05 -3.8090311e-05 
1.4832430e-04 3.5175515e-05 -2.9974542e-05 
1.6977217e-04 5.3100383e-05 -1.0069707e-05 
1.7083313e-04 3.9950068e-05 2.2576072e-05 
1.3519294e-04 1.3289680e-05 3.6070403e-05 
9.5161020e-05 -8.8219012e-06 3.3661821e-05 
5.1431070e-05 -1.2700676e-07 2.8450148e-05 
1.7998635e-05 -3.5455582e-06 1.4940572e-05 
2.3087375e-06 -2.2549500e-05 3.6351184e-06 
-3.9172569e-06 8.5109843e-07 -3.9371462e-06 
2.6981613e-07 1.3922853e-05 -1.3443177e-07 
-1.3453271e-06 -2.3213574e-06 -1.2087656e-07 
1.3143568e-07 -2.6740763e-06 2.9000884e-07 
1.0055165e-07 1.6632134e-06 1.4125207e-07 
-4.1251704e-07 6.0223687e-07 9.6301243e-08 
-9.7645527e-09 -4.8514835e-07 -3.3978434e-08 
-2.4303828e-08 1.0428614e-07 -5.1585360e-08 
1.3086900e-08 1.4610157e-07 5.3320790e-08 
2.0474799e-08 -6.6669209e-08 1.4043311e-08 
3.2991885e-09 -2.9968628e-08 -1.9796168e-08 
-1.2399615e-09 3.8705757e-08 1.0338826e-08 
2.8176916e-09 -9.0046859e-09 1.8692030e-09 
9.4985320e-10 1.9468316e-09 -5.8931143e-10 
-9.1907953e-10 -1.8891402e-09 -2.8161318e-09 
2.4162658e-11 8.7736718e-10 6.8565326e-10 
1.9581442e-11 -8.6918056e-10 -1.5916941e-10 
0.0000000e+00 -3.6645502e-05 0.0000000e+00 
0.0000000e+00 -9.9413948e-05 0.0000000e+00 
0.0000000e+00 -1.5114207e-04 0.0000000e+00 
0.0000000e+00 -2.4663587e-04 0.0000000e+00 
0.0000000e+00 -4.1824195e-04 0.0000000e+00 
0.0000000e+00 -5.5318041e-04 0.0000000e+00 
0.0000000e+00 -7.3542487e-04 0.0000000e+00 
0.0000000e+00 -7.4951397e-04 0.0000000e+00 
0.0000000e+00 -6.5386080e-04 0.0000000e+00 
0.0000000e+00 -4.6052737e-04 0.0000000e+00 
0.0000000e+00 -2.6148936e-04 0.0000000e+00 
0.0000000e+00 1.8967038e-06 0.0000000e+00 
0.0000000e+00 6.6732020e-05 0.0000000e+00 
0.0000000e+00 3.4502609e-05 0.0000000e+00 
0.0000000e+00 -2.7916790e-06 0.0000000e+00 
0.0000000e+00 -1.6100410e-05 0.0000000e+00 
0.0000000e+00 -6.5739882e-06 0.0000000e+00 
0.0000000e+00 8.2738998e-06 0.0000000e+00 
0.0000000e+00 2.3174336e-05 0.0000000e+00 
0.0000000e+00 1.1609710e-05 0.0000000e+00 
0.0000000e+00 -3.8463040e-05 0.0000000e+00 
0.0000000e+00 -8.6569911e-05 0.0000000e+00 
0.0000000e+00 -1.5360340e-04 0.0000000e+00 
0.0000000e+00 -2.7674733e-04 0.0000000e+00 
0.0000000e+00 -3.8427758e-04 0.0000000e+00 
0.0000000e+00 -5.6786434e-04 0.0000000e+00 
0.0000000e+00 -7.3687523e-04 0.0000000e+00 
0.0000000e+00 -7.5145334e-04 0.0000000e+00 
0.0000000e+00 -6.2877004e-04 0.0000000e+00 
0.0000000e+00 -4.0955172e-04 0.0000000e+00 
0.0000000e+00 -1.6422613e-04 0.0000000e+00 
0.0000000e+00 -9.8673263e-06 0.0000000e+00 
0.0000000e+00 6.5237691e-05 0.0000000e+00 
0.0000000e+00 3.2136057e-05 0.0000000e+00 
0.0000000e+00 -3.9819688e-06 0.0000000e+00 
0.0000000e+00 -1.4166596e-05 0.0000000e+00 
0.0000000e+00 -4.3969726e-06 0.0000000e+00 
0.0000000e+00 7.4732816e-06 0.0000000e+00 
0.0000000e+00 3.7846858e-06 0.0000000e+00 
0.0000000e+00 -3.6779368e-06 0.0000000e+00 
0.0000000e+00 -2.8431373e-06 0.0000000e+00 
0.0000000e+00 1.3477937e-06 0.0000000e+00 
0.0000000e+00 9.5449479e-07 0.0000000e+00 
0.0000000e+00 -9.6246890e-07 0.0000000e+00 
0.0000000e+00 -1.9778358e-07 0.0000000e+00 
0.0000000e+00 3.6353001e-07 0.0000000e+00 
0.0000000e+00 -2.6394798e-07 0.0000000e+00 
0.0000000e+00 1.0619993e-07 0.0000000e+00 
0.0000000e+00 -1.1500325e-08 0.0000000e+00 
3.5504370e-06 -4.6736395e-06 -5.8643122e-06 
8.1728722e-06 1.3966093e-05 -2.1063237e-05 
8.5144620e-06 2.1565125e-05 -2.4792274e-05 
-4.2454299e-06 2.0578576e-05 -1.3794939e-05 
-1.0832503e-10 -1.1209915e-09 -7.4146911e-11 
-8.4164614e-10 2.8362590e-09 -5.6681065e-10 
3.6076730e-09 -8.5200567e-09 4.9066520e-09 
-2.2877105e-09 8.0203284e-09 -4.9897428e-09 
1.6609501e-05 2.9203329e-07 -2.3037057e-05 
-4.9139159e-10 -8.2718282e-10 -3.1783889e-10 
-8.2548456e-07 3.9338949e-05 3.4577693e-06 
3.4690797e-06 4.7968340e-05 -2.4089943e-05 
0.0000000e+00 -3.7962356e-05 0.0000000e+00 
0.0000000e+00 -1.2319381e-04 0.0000000e+00 
0.0000000e+00 -2.4811691e-04 0.0000000e+00 
0.0000000e+00 -4.6632002e-04 0.0000000e+00 
0.0000000e+00 -8.2774571e-04 0.0000000e+00 
0.0000000e+00 -1.2650865e-03 0.0000000e+00 
0.0000000e+00 -1.5407539e-03 0.0000000e+00 
0.0000000e+00 -1.4833781e-03 0.0000000e+00 
0.0000000e+00 -1.2859827e-03 0.0000000e+00 
0.0000000e+00 -8.7841257e-04 0.0000000e+00 
0.0000000e+00 -3.2079924e-04 0.0000000e+00 
0.0000000e+00 2.7403970e-05 0.0000000e+00 
0.0000000e+00 1.2585257e-04 0.0000000e+00 
0.0000000e+00 4.8509664e-05 0.0000000e+00 