# vtk DataFile Version 4.0
vtk output
ASCII
DATASET UNSTRUCTURED_GRID
POINTS 1920 float
0.0000000e+00 0.0000000e+00 0.0000000e+00 
0.0000000e+00 0.0000000e+00 5.0000000e+01 
5.0000000e+00 0.0000000e+00 0.0000000e+00 
5.0000000e+00 0.0000000e+00 5.0000000e+01 
5.0000000e+00 1.0000000e+00 0.0000000e+00 
5.0000000e+00 1.0000000e+00 5.0000000e+01 
0.0000000e+00 1.0000000e+00 0.0000000e+00 
0.0000000e+00 1.0000000e+00 5.0000000e+01 
5.0000000e+00 2.0000000e+00 0.0000000e+00 
5.0000000e+00 2.0000000e+00 5.0000000e+01 
3.0000000e+00 2.0000000e+00 0.0000000e+00 
3.0000000e+00 2.0000000e+00 5.0000000e+01 
0.0000000e+00 2.0000000e+00 0.0000000e+00 
0.0000000e+00 2.0000000e+00 5.0000000e+01 
1.5000000e+00 3.0000000e+00 0.0000000e+00 
1.5000000e+00 3.0000000e+00 5.0000000e+01 
7.5000000e-01 3.0000000e+00 0.0000000e+00 
7.5000000e-01 3.0000000e+00 5.0000000e+01 
0.0000000e+00 3.0000000e+00 0.0000000e+00 
0.0000000e+00 3.0000000e+00 5.0000000e+01 
7.5000000e-01 3.0000000e+00 5.0000000e-01 
7.5000000e-01 3.0000000e+00 1.0000000e+00 
7.5000000e-01 3.0000000e+00 1.5000000e+00 
7.5000000e-01 3.0000000e+00 2.0000000e+00 
7.5000000e-01 3.0000000e+00 2.5000000e+00 
7.5000000e-01 3.0000000e+00 3.0000000e+00 
7.5000000e-01 3.0000000e+00 3.5000000e+00 
7.5000000e-01 3.0000000e+00 4.0000000e+00 
7.5000000e-01 3.0000000e+00 4.5000000e+00 
7.5000000e-01 3.0000000e+00 5.0000000e+00 
7.5000000e-01 3.0000000e+00 5.5000000e+00 
7.5000000e-01 3.0000000e+00 6.0000000e+00 
7.5000000e-01 3.0000000e+00 6.5000000e+00 
7.5000000e-01 3.0000000e+00 7.0000000e+00 
7.5000000e-01 3.0000000e+00 7.5000000e+00 
7.5000000e-01 3.0000000e+00 8.0000000e+00 
7.5000000e-01 3.0000000e+00 8.5000000e+00 
7.5000000e-01 3.0000000e+00 9.0000000e+00 
7.5000000e-01 3.0000000e+00 9.5000000e+00 
7.5000000e-01 3.0000000e+00 1.0000000e+01 
7.5000000e-01 3.0000000e+00 1.0500000e+01 
7.5000000e-01 3.0000000e+00 1.1000000e+01 
7.5000000e-01 3.0000000e+00 1.1500000e+01 
7.5000000e-01 3.0000000e+00 1.2000000e+01 
7.5000000e-01 3.0000000e+00 1.2500000e+01 
7.5000000e-01 3.0000000e+00 1.3000000e+01 
7.5000000e-01 3.0000000e+00 1.3500000e+01 
7.5000000e-01 3.0000000e+00 1.4000000e+01 
7.5000000e-01 3.0000000e+00 1.4500000e+01 
7.5000000e-01 3.0000000e+00 1.5000000e+01 
7.5000000e-01 3.0000000e+00 1.5500000e+01 
7.5000000e-01 3.0000000e+00 1.6000000e+01 
7.5000000e-01 3.0000000e+00 1.6500000e+01 
7.5000000e-01 3.0000000e+00 1.7000000e+01 
7.5000000e-01 3.0000000e+00 1.7500000e+01 
7.5000000e-01 3.0000000e+00 1.8000000e+01 
7.5000000e-01 3.0000000e+00 1.8500000e+01 
7.5000000e-01 3.0000000e+00 1.9000000e+01 
7.5000000e-01 3.0000000e+00 1.9500000e+01 
7.5000000e-01 3.0000000e+00 2.0000000e+01 
7.5000000e-01 3.0000000e+00 2.0500000e+01 
7.5000000e-01 3.0000000e+00 2.1000000e+01 
7.5000000e-01 3.0000000e+00 2.1500000e+01 
7.5000000e-01 3.0000000e+00 2.2000000e+01 
7.5000000e-01 3.0000000e+00 2.2500000e+01 
7.5000000e-01 3.0000000e+00 2.3000000e+01 
7.5000000e-01 3.0000000e+00 2.3500000e+01 
7.5000000e-01 3.0000000e+00 2.4000000e+01 
7.5000000e-01 3.0000000e+00 2.4500000e+01 
7.5000000e-01 3.0000000e+00 2.5000000e+01 
7.5000000e-01 3.0000000e+00 2.5500000e+01 
7.5000000e-01 3.0000000e+00 2.6000000e+01 
7.5000000e-01 3.0000000e+00 2.6500000e+01 
7.5000000e-01 3.0000000e+00 2.7000000e+01 
7.5000000e-01 3.0000000e+00 2.7500000e+01 
7.5000000e-01 3.0000000e+00 2.8000000e+01 
7.5000000e-01 3.0000000e+00 2.8500000e+01 
7.5000000e-01 3.0000000e+00 2.9000000e+01 
7.5000000e-01 3.0000000e+00 2.9500000e+01 
7.5000000e-01 3.0000000e+00 3.0000000e+01 
7.5000000e-01 3.0000000e+00 3.0500000e+01 
7.5000000e-01 3.0000000e+00 3.1000000e+01 
7.5000000e-01 3.0000000e+00 3.1500000e+01 
7.5000000e-01 3.0000000e+00 3.2000000e+01 
7.5000000e-01 3.0000000e+00 3.2500000e+01 
7.5000000e-01 3.0000000e+00 3.3000000e+01 
7.5000000e-01 3.0000000e+00 3.3500000e+01 
7.5000000e-01 3.0000000e+00 3.4000000e+01 
7.5000000e-01 3.0000000e+00 3.4500000e+01 
7.5000000e-01 3.0000000e+00 3.5000000e+01 
7.5000000e-01 3.0000000e+00 3.5500000e+01 
7.5000000e-01 3.0000000e+00 3.6000000e+01 
7.5000000e-01 3.0000000e+00 3.6500000e+01 
7.5000000e-01 3.0000000e+00 3.7000000e+01 
7.5000000e-01 3.0000000e+00 3.7500000e+01 
7.5000000e-01 3.0000000e+00 3.8000000e+01 
7.5000000e-01 3.0000000e+00 3.8500000e+01 
7.5000000e-01 3.0000000e+00 3.9000000e+01 
7.5000000e-01 3.0000000e+00 3.9500000e+01 
7.5000000e-01 3.0000000e+00 4.0000000e+01 
7.5000000e-01 3.0000000e+00 4.0500000e+01 
7.5000000e-01 3.0000000e+00 4.1000000e+01 
7.5000000e-01 3.0000000e+00 4.1500000e+01 
7.5000000e-01 3.0000000e+00 4.2000000e+01 
7.5000000e-01 3.0000000e+00 4.2500000e+01 
7.5000000e-01 3.0000000e+00 4.3000000e+01 
7.5000000e-01 3.0000000e+00 4.3500000e+01 
7.5000000e-01 3.0000000e+00 4.4000000e+01 
7.5000000e-01 3.0000000e+00 4.4500000e+01 
7.5000000e-01 3.0000000e+00 4.5000000e+01 
7.5000000e-01 3.0000000e+00 4.5500000e+01 
7.5000000e-01 3.0000000e+00 4.6000000e+01 
7.5000000e-01 3.0000000e+00 4.6500000e+01 
7.5000000e-01 3.0000000e+00 4.7000000e+01 
7.5000000e-01 3.0000000e+00 4.7500000e+01 
7.5000000e-01 3.0000000e+00 4.8000000e+01 
7.5000000e-01 3.0000000e+00 4.8500000e+01 
7.5000000e-01 3.0000000e+00 4.9000000e+01 
7.5000000e-01 3.0000000e+00 4.9500000e+01 
7.5000000e-01 3.0250001e+00 0.0000000e+00 
7.5000000e-01 3.0250001e+00 5.0000000e-01 
7.5000000e-01 3.0250001e+00 1.0000000e+00 
7.5000000e-01 3.0250001e+00 1.5000000e+00 
7.5000000e-01 3.0250001e+00 2.0000000e+00 
7.5000000e-01 3.0250001e+00 2.5000000e+00 
7.5000000e-01 3.0250001e+00 3.0000000e+00 
7.5000000e-01 3.0250001e+00 3.5000000e+00 
7.5000000e-01 3.0250001e+00 4.0000000e+00 
7.5000000e-01 3.0250001e+00 4.5000000e+00 
7.5000000e-01 3.0250001e+00 5.0000000e+00 
7.5000000e-01 3.0250001e+00 5.5000000e+00 
7.5000000e-01 3.0250001e+00 6.0000000e+00 
7.5000000e-01 3.0250001e+00 6.5000000e+00 
7.5000000e-01 3.0250001e+00 7.0000000e+00 
7.5000000e-01 3.0250001e+00 7.5000000e+00 
7.5000000e-01 3.0250001e+00 8.0000000e+00 
7.5000000e-01 3.0250001e+00 8.5000000e+00 
7.5000000e-01 3.0250001e+00 9.0000000e+00 
7.5000000e-01 3.0250001e+00 9.5000000e+00 
7.5000000e-01 3.0250001e+00 1.0000000e+01 
7.5000000e-01 3.0250001e+00 1.0500000e+01 
7.5000000e-01 3.0250001e+00 1.1000000e+01 
7.5000000e-01 3.0250001e+00 1.1500000e+01 
7.5000000e-01 3.0250001e+00 1.2000000e+01 
7.5000000e-01 3.0250001e+00 1.2500000e+01 
7.5000000e-01 3.0250001e+00 1.3000000e+01 
7.5000000e-01 3.0250001e+00 1.3500000e+01 
7.5000000e-01 3.0250001e+00 1.4000000e+01 
7.5000000e-01 3.0250001e+00 1.4500000e+01 
7.5000000e-01 3.0250001e+00 1.5000000e+01 
7.5000000e-01 3.0250001e+00 1.5500000e+01 
7.5000000e-01 3.0250001e+00 1.6000000e+01 
7.5000000e-01 3.0250001e+00 1.6500000e+01 
7.5000000e-01 3.0250001e+00 1.7000000e+01 
7.5000000e-01 3.0250001e+00 1.7500000e+01 
7.5000000e-01 3.0250001e+00 1.8000000e+01 
7.5000000e-01 3.0250001e+00 1.8500000e+01 
7.5000000e-01 3.0250001e+00 1.9000000e+01 
7.5000000e-01 3.0250001e+00 1.9500000e+01 
7.5000000e-01 3.0250001e+00 2.0000000e+01 
7.5000000e-01 3.0250001e+00 2.0500000e+01 
7.5000000e-01 3.0250001e+00 2.1000000e+01 
7.5000000e-01 3.0250001e+00 2.1500000e+01 
7.5000000e-01 3.0250001e+00 2.2000000e+01 
7.5000000e-01 3.0250001e+00 2.2500000e+01 
7.5000000e-01 3.0250001e+00 2.3000000e+01 
7.5000000e-01 3.0250001e+00 2.3500000e+01 
7.5000000e-01 3.0250001e+00 2.4000000e+01 
7.5000000e-01 3.0250001e+00 2.4500000e+01 
7.5000000e-01 3.0250001e+00 2.5000000e+01 
7.5000000e-01 3.0250001e+00 2.5500000e+01 
7.5000000e-01 3.0250001e+00 2.6000000e+01 
7.5000000e-01 3.0250001e+00 2.6500000e+01 
7.5000000e-01 3.0250001e+00 2.7000000e+01 
7.5000000e-01 3.0250001e+00 2.7500000e+01 
7.5000000e-01 3.0250001e+00 2.8000000e+01 
7.5000000e-01 3.0250001e+00 2.8500000e+01 
7.5000000e-01 3.0250001e+00 2.9000000e+01 
7.5000000e-01 3.0250001e+00 2.9500000e+01 
7.5000000e-01 3.0250001e+00 3.0000000e+01 
7.5000000e-01 3.0250001e+00 3.0500000e+01 
7.5000000e-01 3.0250001e+00 3.1000000e+01 
7.5000000e-01 3.0250001e+00 3.1500000e+01 
7.5000000e-01 3.0250001e+00 3.2000000e+01 
7.5000000e-01 3.0250001e+00 3.2500000e+01 
7.5000000e-01 3.0250001e+00 3.3000000e+01 
7.5000000e-01 3.0250001e+00 3.3500000e+01 
7.5000000e-01 3.0250001e+00 3.4000000e+01 
7.5000000e-01 3.0250001e+00 3.4500000e+01 
7.5000000e-01 3.0250001e+00 3.5000000e+01 
7.5000000e-01 3.0250001e+00 3.5500000e+01 
7.5000000e-01 3.0250001e+00 3.6000000e+01 
7.5000000e-01 3.0250001e+00 3.6500000e+01 
7.5000000e-01 3.0250001e+00 3.7000000e+01 
7.5000000e-01 3.0250001e+00 3.7500000e+01 
7.5000000e-01 3.0250001e+00 3.8000000e+01 
7.5000000e-01 3.0250001e+00 3.8500000e+01 
7.5000000e-01 3.0250001e+00 3.9000000e+01 
7.5000000e-01 3.0250001e+00 3.9500000e+01 
7.5000000e-01 3.0250001e+00 4.0000000e+01 
7.5000000e-01 3.0250001e+00 4.0500000e+01 
7.5000000e-01 3.0250001e+00 4.1000000e+01 
7.5000000e-01 3.0250001e+00 4.1500000e+01 
7.5000000e-01 3.0250001e+00 4.2000000e+01 
7.5000000e-01 3.0250001e+00 4.2500000e+01 
7.5000000e-01 3.0250001e+00 4.3000000e+01 
7.5000000e-01 3.0250001e+00 4.3500000e+01 
7.5000000e-01 3.0250001e+00 4.4000000e+01 
7.5000000e-01 3.0250001e+00 4.4500000e+01 
7.5000000e-01 3.0250001e+00 4.5000000e+01 
7.5000000e-01 3.0250001e+00 4.5500000e+01 
7.5000000e-01 3.0250001e+00 4.6000000e+01 
7.5000000e-01 3.0250001e+00 4.6500000e+01 
7.5000000e-01 3.0250001e+00 4.7000000e+01 
7.5000000e-01 3.0250001e+00 4.7500000e+01 
7.5000000e-01 3.0250001e+00 4.8000000e+01 
7.5000000e-01 3.0250001e+00 4.8500000e+01 
7.5000000e-01 3.0250001e+00 4.9000000e+01 
7.5000000e-01 3.0250001e+00 4.9500000e+01 
7.5000000e-01 3.0250001e+00 5.0000000e+01 
1.5000000e+00 3.0000000e+00 2.5000000e+01 
3.0000000e+00 2.0000000e+00 2.5000000e+01 
4.0000000e+00 2.0000000e+00 2.5000000e+01 
5.0000000e+00 2.0000000e+00 2.5000000e+01 
0.0000000e+00 3.0000000e+00 2.5000000e+01 
0.0000000e+00 0.0000000e+00 1.0000000e+00 
0.0000000e+00 0.0000000e+00 2.0000000e+00 
0.0000000e+00 0.0000000e+00 3.0000000e+00 
0.0000000e+00 0.0000000e+00 4.0000000e+00 
0.0000000e+00 0.0000000e+00 5.0000000e+00 
[...]
POINT_DATA 1920
FIELD FieldData 3
DISPLACEMENT 3 1920  float
0.0000000e+00 0.0000000e+00 0.0000000e+00 
0.0000000e+00 0.0000000e+00 0.0000000e+00 
0.0000000e+00 0.0000000e+00 0.0000000e+00 
0.0000000e+00 0.0000000e+00 0.0000000e+00 
9.7305235e-07 -6.7301249e-07 -5.3796555e-07 
3.4665720e-07 3.4613296e-07 1.0175896e-07 
0.0000000e+00 6.3212669e-06 0.0000000e+00 
0.0000000e+00 1.8388515e-06 0.0000000e+00 
2.0504947e-06 -4.0182476e-07 -1.5457086e-06 
4.9631768e-07 1.2037333e-06 -6.5300208e-07 
3.0740043e-06 9.8290991e-07 -5.9391186e-07 
8.3841303e-07 2.8058262e-06 1.1364646e-06 
0.0000000e+00 8.9146415e-06 0.0000000e+00 
0.0000000e+00 3.2664948e-06 0.0000000e+00 
7.9218484e-07 -3.0675581e-06 5.2445453e-06 
3.9034867e-07 1.0904952e-05 -6.6169205e-06 
2.7053679e-06 -1.0425963e-05 -1.7924040e-06 
-8.4586372e-07 2.3613793e-06 -1.1492813e-05 
0.0000000e+00 6.0363554e-06 0.0000000e+00 
0.0000000e+00 1.4387878e-06 0.0000000e+00 
1.8511251e-07 -8.5211841e-06 1.3103428e-06 
-3.0129870e-06 -3.7989919e-06 1.3566771e-06 
-7.2516750e-06 2.3130353e-06 -2.5497013e-07 
-6.0317075e-06 8.5898573e-06 -1.9102524e-06 
-5.8820360e-06 1.3853780e-05 -4.0338177e-06 
-2.8834972e-06 1.7618766e-05 -2.6161799e-06 
-3.5193536e-06 1.9692465e-05 -3.1853099e-06 
-3.2937201e-06 2.0400297e-05 -6.5355998e-06 
-5.6003905e-06 2.0064181e-05 -1.0048639e-05 
-2.2183960e-06 1.8870673e-05 -1.5055128e-05 
1.0512530e-07 1.7165536e-05 -1.8608360e-05 
4.5590987e-06 1.5185541e-05 -1.8614259e-05 
6.4500678e-06 1.3342444e-05 -1.5007833e-05 
9.0328667e-06 1.2184154e-05 -1.1350678e-05 
3.4762907e-06 1.1890674e-05 -8.8079341e-06 
4.0235359e-06 1.2464548e-05 -8.7631888e-06 
3.7274961e-06 1.3551028e-05 -5.3784847e-06 
4.2923589e-06 1.4704578e-05 1.4826248e-06 
2.5912125e-06 1.5367094e-05 1.1303367e-05 
2.0108696e-06 1.5893986e-05 2.2071203e-05 
-3.0729468e-06 1.6276199e-05 2.6464071e-05 
-3.3349663e-06 1.7488668e-05 2.6906464e-05 
-2.8142990e-06 2.0265163e-05 2.6777223e-05 
-2.2135453e-06 2.5812029e-05 2.5579737e-05 
-2.7662454e-06 3.5111596e-05 2.5015201e-05 
-4.0843014e-07 4.8340142e-05 2.3101655e-05 
1.2914538e-06 6.4625921e-05 2.3494584e-05 
1.8351235e-06 7.9510282e-05 3.2067983e-05 
5.7938436e-08 8.3087711e-05 4.6588968e-05 
-4.6183668e-06 5.4359793e-05 6.1493869e-05 
-7.2274906e-06 -3.9895654e-05 9.7572280e-05 
-1.8719782e-05 -2.4957384e-04 1.0004576e-04 
-6.0452188e-05 -6.3654629e-04 1.6599677e-04 
-1.7801173e-04 -1.2615846e-03 2.9626704e-04 
-1.4736097e-04 -2.1489738e-03 2.3740044e-04 
-1.7144131e-04 -3.2525999e-03 1.1482474e-04 
-2.4103030e-04 -4.3870076e-03 1.6568573e-04 
-2.6254117e-04 -5.0420589e-03 3.7921080e-05 
-2.5490220e-04 -4.8709563e-03 -2.6438878e-05 
-2.5339038e-04 -4.5079747e-03 -5.3632608e-05 
-2.2877770e-04 -4.4282647e-03 -6.6336863e-05 
-2.4536648e-04 -4.5509599e-03 -1.6236244e-04 
-2.4546267e-04 -4.3859882e-03 -2.3390632e-04 
-1.3518878e-04 -3.3977269e-03 -2.4383704e-04 
-1.4688428e-04 -2.1472196e-03 -2.7289326e-04 
-5.6710087e-05 -1.0805951e-03 -1.1359402e-04 
-1.2393933e-05 -3.6212589e-04 -1.8086404e-04 
1.1942159e-05 4.1782845e-05 -7.7164645e-05 
2.2227123e-05 2.0946391e-04 -3.8128514e-05 
1.9457626e-05 2.3517509e-04 -7.1112263e-06 
1.3974878e-05 1.9680492e-04 1.7957147e-05 
1.6423894e-05 1.3971755e-04 2.2832635e-05 
8.6259206e-06 8.9832727e-05 2.9736333e-05 
6.2353556e-06 5.4178439e-05 2.4708468e-05 
1.1031281e-06 3.3459357e-05 2.4497482e-05 
1.8481358e-06 2.3131426e-05 1.7149876e-05 
-3.6240642e-06 1.9195279e-05 1.1120816e-05 
-6.6911089e-06 1.8236886e-05 3.3193103e-06 
-7.3030219e-06 1.8450508e-05 -1.0932636e-06 
-6.2881813e-06 1.8631070e-05 -3.5438773e-06 
-4.5718775e-06 1.8425329e-05 -3.6617555e-06 
-1.5216467e-06 1.8183508e-05 -3.5405706e-06 
1.7051212e-06 1.8763283e-05 -1.3158339e-06 
6.3231682e-06 2.1865502e-05 2.1255062e-06 
1.0567581e-05 2.8825385e-05 7.6219494e-06 
1.0189574e-05 3.9998686e-05 1.4068307e-05 
1.1055904e-05 5.3699820e-05 2.0721171e-05 
1.0755365e-05 6.4328553e-05 3.0893898e-05 
7.1164727e-06 6.0832146e-05 4.5213357e-05 
-4.6943578e-07 2.0769285e-05 5.8157526e-05 
-1.6821268e-05 -9.1468799e-05 9.8044780e-05 
-2.5511818e-05 -3.2889826e-04 9.6374853e-05 
-5.6283334e-05 -7.5736700e-04 1.6134907e-04 
-9.6037889e-05 -1.4355495e-03 1.0802616e-04 
-1.8606408e-04 -2.3945903e-03 2.0297729e-04 
-4.5495990e-04 -3.5548753e-03 3.2596407e-04 
-2.5907881e-04 -4.6275924e-03 1.4579207e-04 
-2.4732386e-04 -5.0901268e-03 3.8716684e-05 
-2.4704007e-04 -4.8080226e-03 -3.0301693e-05 
-2.5075913e-04 -4.4649635e-03 -5.4649427e-05 
-2.2550128e-04 -4.4341185e-03 -5.7624289e-05 
-2.3260451e-04 -4.5393137e-03 -1.4674148e-04 
-2.0672423e-04 -4.2051096e-03 -2.1670209e-04 
-1.7296674e-04 -3.1071734e-03 -1.6831845e-04 
-9.2748654e-05 -1.8941369e-03 -2.6376997e-04 
-5.4977947e-05 -9.1004494e-04 -1.4283929e-04 
-1.7896534e-06 -2.6745102e-04 -1.3701455e-04 
1.0701416e-05 7.3923336e-05 -5.4321350e-05 
2.3173247e-05 2.0196644e-04 -2.0534004e-05 
2.0243870e-05 2.0596677e-04 5.5508876e-06 
1.2681333e-05 1.5705510e-04 2.5216363e-05 
8.9649166e-06 9.7239506e-05 2.5376941e-05 
4.0177670e-06 4.8916692e-05 2.8142294e-05 
1.4821645e-06 1.7638202e-05 2.2145849e-05 
-2.1222345e-06 1.8807860e-06 1.9032999e-05 
-3.1869267e-06 -3.4287500e-06 1.7402836e-05 
-5.6623358e-06 -3.1235188e-06 1.0101708e-05 
-4.9899072e-06 -7.7319459e-07 5.8097389e-06 
-2.9299731e-06 1.4580995e-06 -3.5097428e-06 
0.0000000e+00 -1.0370791e-05 0.0000000e+00 
0.0000000e+00 -8.5173451e-06 0.0000000e+00 
0.0000000e+00 -3.8173421e-06 0.0000000e+00 
0.0000000e+00 2.3067382e-06 0.0000000e+00 
0.0000000e+00 8.5590555e-06 0.0000000e+00 
0.0000000e+00 1.3845573e-05 0.0000000e+00 
0.0000000e+00 1.7602300e-05 0.0000000e+00 
0.0000000e+00 1.9705943e-05 0.0000000e+00 
0.0000000e+00 2.0420362e-05 0.0000000e+00 
0.0000000e+00 2.0071973e-05 0.0000000e+00 
0.0000000e+00 1.8889727e-05 0.0000000e+00 
0.0000000e+00 1.7170683e-05 0.0000000e+00 
0.0000000e+00 1.5190417e-05 0.0000000e+00 
0.0000000e+00 1.3371889e-05 0.0000000e+00 
0.0000000e+00 1.2202731e-05 0.0000000e+00 
0.0000000e+00 1.1918834e-05 0.0000000e+00 
0.0000000e+00 1.2482020e-05 0.0000000e+00 
0.0000000e+00 1.3566378e-05 0.0000000e+00 
0.0000000e+00 1.4669225e-05 0.0000000e+00 
0.0000000e+00 1.5390637e-05 0.0000000e+00 
0.0000000e+00 1.5854308e-05 0.0000000e+00 
0.0000000e+00 1.6293990e-05 0.0000000e+00 
0.0000000e+00 1.7472361e-05 0.0000000e+00 
0.0000000e+00 2.0283278e-05 0.0000000e+00 
0.0000000e+00 2.5859637e-05 0.0000000e+00 
0.0000000e+00 3.5177181e-05 0.0000000e+00 
0.0000000e+00 4.8526435e-05 0.0000000e+00 
0.0000000e+00 6.4911139e-05 0.0000000e+00 
0.0000000e+00 8.0084421e-05 0.0000000e+00 
0.0000000e+00 8.3758889e-05 0.0000000e+00 
0.0000000e+00 5.5291086e-05 0.0000000e+00 
0.0000000e+00 -3.9163639e-05 0.0000000e+00 
0.0000000e+00 -2.4960752e-04 0.0000000e+00 
0.0000000e+00 -6.3839363e-04 0.0000000e+00 
0.0000000e+00 -1.2649909e-03 0.0000000e+00 
0.0000000e+00 -2.1564581e-03 0.0000000e+00 
0.0000000e+00 -3.2697988e-03 0.0000000e+00 
0.0000000e+00 -4.4072187e-03 0.0000000e+00 
0.0000000e+00 -5.0735972e-03 0.0000000e+00 
0.0000000e+00 -4.8955129e-03 0.0000000e+00 
0.0000000e+00 -4.5362408e-03 0.0000000e+00 
0.0000000e+00 -4.4499887e-03 0.0000000e+00 
0.0000000e+00 -4.5806728e-03 0.0000000e+00 
0.0000000e+00 -4.4110352e-03 0.0000000e+00 
0.0000000e+00 -3.4187401e-03 0.0000000e+00 
0.0000000e+00 -2.1616451e-03 0.0000000e+00 
0.0000000e+00 -1.0902018e-03 0.0000000e+00 
0.0000000e+00 -3.6392015e-04 0.0000000e+00 
0.0000000e+00 4.1507090e-05 0.0000000e+00 
0.0000000e+00 2.1053314e-04 0.0000000e+00 
0.0000000e+00 2.3700079e-04 0.0000000e+00 
0.0000000e+00 1.9789529e-04 0.0000000e+00 
0.0000000e+00 1.4067204e-04 0.0000000e+00 
0.0000000e+00 9.0165697e-05 0.0000000e+00 
0.0000000e+00 5.4427532e-05 0.0000000e+00 
0.0000000e+00 3.3441902e-05 0.0000000e+00 
0.0000000e+00 2.3103574e-05 0.0000000e+00 
0.0000000e+00 1.9133611e-05 0.0000000e+00 
0.0000000e+00 1.8223911e-05 0.0000000e+00 
0.0000000e+00 1.8425573e-05 0.0000000e+00 
0.0000000e+00 1.8607016e-05 0.0000000e+00 
0.0000000e+00 1.8410314e-05 0.0000000e+00 
0.0000000e+00 1.8152212e-05 0.0000000e+00 
0.0000000e+00 1.8790795e-05 0.0000000e+00 
0.0000000e+00 2.1917971e-05 0.0000000e+00 
0.0000000e+00 2.8926605e-05 0.0000000e+00 
0.0000000e+00 4.0189781e-05 0.0000000e+00 
0.0000000e+00 5.3984157e-05 0.0000000e+00 
0.0000000e+00 6.4916356e-05 0.0000000e+00 
0.0000000e+00 6.1538871e-05 0.0000000e+00 
0.0000000e+00 2.1733253e-05 0.0000000e+00 
0.0000000e+00 -9.0726484e-05 0.0000000e+00 
0.0000000e+00 -3.2908123e-04 0.0000000e+00 
0.0000000e+00 -7.5866334e-04 0.0000000e+00 
0.0000000e+00 -1.4415386e-03 0.0000000e+00 
0.0000000e+00 -2.4055736e-03 0.0000000e+00 
0.0000000e+00 -3.5678174e-03 0.0000000e+00 
0.0000000e+00 -4.6516811e-03 0.0000000e+00 
0.0000000e+00 -5.1222956e-03 0.0000000e+00 
0.0000000e+00 -4.8321062e-03 0.0000000e+00 
0.0000000e+00 -4.4928207e-03 0.0000000e+00 
0.0000000e+00 -4.4559687e-03 0.0000000e+00 
0.0000000e+00 -4.5692418e-03 0.0000000e+00 
0.0000000e+00 -4.2288224e-03 0.0000000e+00 
0.0000000e+00 -3.1299642e-03 0.0000000e+00 
0.0000000e+00 -1.9059238e-03 0.0000000e+00 
0.0000000e+00 -9.1716368e-04 0.0000000e+00 
0.0000000e+00 -2.6944524e-04 0.0000000e+00 
0.0000000e+00 7.4263487e-05 0.0000000e+00 
0.0000000e+00 2.0313154e-04 0.0000000e+00 
0.0000000e+00 2.0755759e-04 0.0000000e+00 
0.0000000e+00 1.5809861e-04 0.0000000e+00 
0.0000000e+00 9.8068442e-05 0.0000000e+00 
0.0000000e+00 4.9254970e-05 0.0000000e+00 
0.0000000e+00 1.7785913e-05 0.0000000e+00 
0.0000000e+00 1.8551053e-06 0.0000000e+00 
0.0000000e+00 -3.5024348e-06 0.0000000e+00 
0.0000000e+00 -3.1969444e-06 0.0000000e+00 
0.0000000e+00 -8.1986514e-07 0.0000000e+00 
0.0000000e+00 1.4295118e-06 0.0000000e+00 
0.0000000e+00 2.3337623e-06 0.0000000e+00 
3.0312660e-05 6.8625981e-05 -2.0344485e-05 
8.2841183e-07 3.3537497e-06 5.1817005e-06 
3.9724446e-06 -1.2359206e-06 1.0011102e-05 
8.4960775e-06 -2.2862155e-06 1.3179461e-05 
0.0000000e+00 8.1115963e-05 0.0000000e+00 
0.0000000e+00 0.0000000e+00 0.0000000e+00 
0.0000000e+00 0.0000000e+00 0.0000000e+00 
0.0000000e+00 0.0000000e+00 0.0000000e+00 
0.0000000e+00 0.0000000e+00 0.0000000e+00 
0.0000000e+00 0.0000000e+00 0.0000000e+00 
0.0000000e+00 0.0000000e+00 0.0000000e+00 
0.0000000e+00 0.0000000e+00 0.0000000e+00 
0.0000000e+00 0.0000000e+00 0.0000000e+00 
0.0000000e+00 0.0000000e+00 0.0000000e+00 
0.0000000e+00 0.0000000e+00 0.0000000e+00 
0.0000000e+00 0.0000000e+00 0.0000000e+00 
0.0000000e+00 0.0000000e+00 0.0000000e+00 
0.0000000e+00 0.0000000e+00 0.0000000e+00 
0.0000000e+00 0.0000000e+00 0.0000000e+00 
0.0000000e+00 0.0000000e+00 0.0000000e+00 
0.0000000e+00 0.0000000e+00 0.0000000e+00 
0.0000000e+00 0.0000000e+00 0.0000000e+00 
0.0000000e+00 0.0000000e+00 0.0000000e+00 
0.0000000e+00 0.0000000e+00 0.0000000e+00 
0.0000000e+00 0.0000000e+00 0.0000000e+00 
0.0000000e+00 0.0000000e+00 0.0000000e+00 
0.0000000e+00 0.0000000e+00 0.0000000e+00 
0.0000000e+00 0.0000000e+00 0.0000000e+00 
0.0000000e+00 0.0000000e+00 0.0000000e+00 
0.0000000e+00 0.0000000e+00 0.0000000e+00 
0.0000000e+00 0.0000000e+00 0.0000000e+00 
0.0000000e+00 0.0000000e+00 0.0000000e+00 
0.0000000e+00 0.0000000e+00 0.0000000e+00 
0.0000000e+00 0.0000000e+00 0.0000000e+00 
0.0000000e+00 0.0000000e+00 0.0000000e+00 
0.0000000e+00 0.0000000e+00 0.0000000e+00 
0.0000000e+00 0.0000000e+00 0.0000000e+00 
0.0000000e+00 0.0000000e+00 0.0000000e+00 
0.0000000e+00 0.0000000e+00 0.0000000e+00 
0.0000000e+00 0.0000000e+00 0.0000000e+00 
0.0000000e+00 0.0000000e+00 0.0000000e+00 
0.0000000e+00 0.0000000e+00 0.0000000e+00 
0.0000000e+00 0.0000000e+00 0.0000000e+00 
0.0000000e+00 0.0000000e+00 0.0000000e+00 
0.0000000e+00 0.0000000e+00 0.0000000e+00 
0.0000000e+00 0.0000000e+00 0.0000000e+00 
0.0000000e+00 0.0000000e+00 0.0000000e+00 
0.0000000e+00 0.0000000e+00 0.0000000e+00 
0.0000000e+00 0.0000000e+00 0.0000000e+00 
0.0000000e+00 0.0000000e+00 0.0000000e+00 
0.0000000e+00 0.0000000e+00 0.0000000e+00 
0.0000000e+00 0.0000000e+00 0.0000000e+00 
0.0000000e+00 0.0000000e+00 0.0000000e+00 
0.0000000e+00 0.0000000e+00 0.0000000e+00 
0.0000000e+00 0.0000000e+00 0.0000000e+00 
0.0000000e+00 0.0000000e+00 0.0000000e+00 
0.0000000e+00 0.0000000e+00 0.0000000e+00 
0.0000000e+00 0.0000000e+00 0.0000000e+00 
0.0000000e+00 0.0000000e+00 0.0000000e+00 
0.0000000e+00 0.0000000e+00 0.0000000e+00 
0.0000000e+00 0.0000000e+00 0.0000000e+00 
0.0000000e+00 0.0000000e+00 0.0000000e+00 
0.0000000e+00 0.0000000e+00 0.0000000e+00 
0.0000000e+00 0.0000000e+00 0.0000000e+00 
0.0000000e+00 0.0000000e+00 0.0000000e+00 
0.0000000e+00 0.0000000e+00 0.0000000e+00 
0.0000000e+00 0.0000000e+00 0.0000000e+00 
0.0000000e+00 0.0000000e+00 0.0000000e+00 
0.0000000e+00 0.0000000e+00 0.0000000e+00 
0.0000000e+00 0.0000000e+00 0.0000000e+00 
0.0000000e+00 0.0000000e+00 0.0000000e+00 
0.0000000e+00 0.0000000e+00 0.0000000e+00 
0.0000000e+00 0.0000000e+00 0.0000000e+00 
0.0000000e+00 0.0000000e+00 0.0000000e+00 
0.0000000e+00 0.0000000e+00 0.0000000e+00 
0.0000000e+00 0.0000000e+00 0.0000000e+00 
0.0000000e+00 0.0000000e+00 0.0000000e+00 
0.0000000e+00 0.0000000e+00 0.0000000e+00 
0.0000000e+00 0.0000000e+00 0.0000000e+00 
0.0000000e+00 0.0000000e+00 0.0000000e+00 
0.0000000e+00 0.0000000e+00 0.0000000e+00 
0.0000000e+00 0.0000000e+00 0.0000000e+00 
0.0000000e+00 0.0000000e+00 0.0000000e+00 
0.0000000e+00 0.0000000e+00 0.0000000e+00 
0.0000000e+00 0.0000000e+00 0.0000000e+00 
0.0000000e+00 0.0000000e+00 0.0000000e+00 
0.0000000e+00 0.0000000e+00 0.0000000e+00 
0.0000000e+00 0.0000000e+00 0.0000000e+00 
0.0000000e+00 0.0000000e+00 0.0000000e+00 
0.0000000e+00 0.0000000e+00 0.0000000e+00 
0.0000000e+00 0.0000000e+00 0.0000000e+00 
0.0000000e+00 0.0000000e+00 0.0000000e+00 
0.0000000e+00 0.0000000e+00 0.0000000e+00 
0.0000000e+00 0.0000000e+00 0.0000000e+00 
0.0000000e+00 0.0000000e+00 0.0000000e+00 
0.0000000e+00 0.0000000e+00 0.0000000e+00 
0.0000000e+00 0.0000000e+00 0.0000000e+00 
0.0000000e+00 0.0000000e+00 0.0000000e+00 
0.0000000e+00 0.0000000e+00 0.0000000e+00 
0.0000000e+00 0.0000000e+00 0.0000000e+00 
0.0000000e+00 0.0000000e+00 0.0000000e+00 
0.0000000e+00 0.0000000e+00 0.0000000e+00 
0.0000000e+00 0.0000000e+00 0.0000000e+00 
0.0000000e+00 0.0000000e+00 0.0000000e+00 
0.0000000e+00 0.0000000e+00 0.0000000e+00 
0.0000000e+00 0.0000000e+00 0.0000000e+00 
0.0000000e+00 0.0000000e+00 0.0000000e+00 
0.0000000e+00 0.0000000e+00 0.0000000e+00 
0.0000000e+00 0.0000000e+00 0.0000000e+00 
0.0000000e+00 0.0000000e+00 0.0000000e+00 
0.0000000e+00 0.0000000e+00 0.0000000e+00 
2.0440625e-06 -2.2154629e-07 -1.0565632e-06 
2.9797154e-06 -3.7091866e-07 -1.9558390e-06 
4.1409230e-06 -1.0849272e-06 -2.7923745e-06 
5.2509236e-06 -1.5699163e-06 -3.1887823e-06 
4.9246414e-06 -1.4087417e-06 -3.3439933e-06 
3.8148123e-06 -1.3471433e-06 -3.4378049e-06 
3.4459497e-06 -1.2240047e-06 -3.1359202e-06 
3.7663453e-06 -8.5171735e-07 -1.7120904e-06 
4.0263512e-06 -5.6132606e-08 1.1696103e-07 
4.3128766e-06 -8.9795044e-08 1.2909428e-06 
4.6750233e-06 -3.0897493e-07 1.3316721e-06 
5.1859747e-06 -1.0420289e-06 1.5371745e-06 
5.6469057e-06 -1.4429717e-06 -1.4617594e-07 
7.4035506e-06 -2.0194373e-06 -3.4160466e-06 
1.1919538e-05 -5.0653184e-06 -8.3014920e-06 
1.9633651e-05 -8.6654900e-06 -1.2456993e-05 
3.0932893e-05 -1.2460167e-05 -1.5043562e-05 
4.1652209e-05 -1.3862773e-05 -1.3370327e-05 
4.8921156e-05 -1.6259621e-05 -9.8290684e-06 
5.0423849e-05 -1.5857238e-05 -1.3590306e-06 
4.6501311e-05 -1.3355389e-05 6.3288694e-06 
3.5031393e-05 -9.8697583e-06 1.2632147e-05 
2.3207602e-05 -6.9747962e-06 1.4183845e-05 
1.3690977e-05 -3.6062422e-06 1.2917144e-05 
7.9849060e-06 -1.9616425e-06 1.0459969e-05 
5.2281298e-06 -1.6242016e-06 7.4100485e-06 
4.8067459e-06 -2.1453698e-06 5.0214321e-06 
5.4613320e-06 -2.8378915e-06 3.2102757e-06 
5.4202542e-06 -2.6426371e-06 1.8895558e-06 
5.6847516e-06 -1.5586412e-06 -1.9416858e-07 
5.6261383e-06 -3.9858773e-07 -1.8125786e-06 
5.6300873e-06 -4.8447549e-07 -3.2829196e-06 
6.0799107e-06 -5.0446977e-07 -5.2356613e-06 
8.4389185e-06 -1.6166645e-06 -7.9924430e-06 
1.2297079e-05 -5.1726597e-06 -1.0966610e-05 
2.0142050e-05 -7.9242736e-06 -1.3378790e-05 
3.0642957e-05 -1.2218100e-05 -1.4991536e-05 
4.0253602e-05 -1.4813761e-05 -1.1836581e-05 
4.5327866e-05 -1.5460531e-05 -5.9882150e-06 
4.5008244e-05 -1.5427859e-05 1.5450116e-06 
3.9893734e-05 -1.3348825e-05 8.4199019e-06 
2.9704746e-05 -9.3508652e-06 1.3793565e-05 
1.8148299e-05 -5.2203777e-06 1.4946427e-05 
8.1423468e-06 -1.5979879e-06 1.3190549e-05 
2.7727499e-06 -9.5131503e-07 1.0477401e-05 
1.3924372e-06 -6.1753468e-07 7.7611776e-06 
8.7420773e-07 -1.0785872e-06 5.8309161e-06 
1.0218139e-06 -1.1366774e-06 3.9124061e-06 
1.0254646e-06 -6.5843290e-07 1.6833636e-06 
0.0000000e+00 3.0406377e-06 0.0000000e+00 
0.0000000e+00 9.0413204e-07 0.0000000e+00 
0.0000000e+00 -3.6758515e-06 0.0000000e+00 
0.0000000e+00 -9.1952179e-06 0.0000000e+00 
0.0000000e+00 -1.4024879e-05 0.0000000e+00 
0.0000000e+00 -1.4007485e-05 0.0000000e+00 
0.0000000e+00 -1.0660261e-05 0.0000000e+00 
0.0000000e+00 -5.2036380e-06 0.0000000e+00 
0.0000000e+00 -4.7249893e-07 0.0000000e+00 
0.0000000e+00 -4.7493430e-07 0.0000000e+00 
0.0000000e+00 -3.1307261e-06 0.0000000e+00 
0.0000000e+00 -1.7741786e-07 0.0000000e+00 
0.0000000e+00 7.3014253e-06 0.0000000e+00 
0.0000000e+00 1.2621715e-05 0.0000000e+00 
0.0000000e+00 2.3749551e-06 0.0000000e+00 
0.0000000e+00 -6.0643826e-05 0.0000000e+00 
0.0000000e+00 -1.9620864e-04 0.0000000e+00 
0.0000000e+00 -3.9538281e-04 0.0000000e+00 
0.0000000e+00 -5.0836016e-04 0.0000000e+00 
0.0000000e+00 -5.4270454e-04 0.0000000e+00 
0.0000000e+00 -4.7953194e-04 0.0000000e+00 
0.0000000e+00 -3.2800404e-04 0.0000000e+00 
0.0000000e+00 -1.5702787e-04 0.0000000e+00 
0.0000000e+00 -2.8091954e-05 0.0000000e+00 
0.0000000e+00 -5.3355725e-06 0.0000000e+00 
0.0000000e+00 -8.9834712e-06 0.0000000e+00 
0.0000000e+00 -1.6593283e-05 0.0000000e+00 
0.0000000e+00 -2.0437434e-05 0.0000000e+00 
0.0000000e+00 -1.6089303e-05 0.0000000e+00 
0.0000000e+00 -6.6224852e-06 0.0000000e+00 
0.0000000e+00 1.2911715e-07 0.0000000e+00 
0.0000000e+00 4.6999398e-06 0.0000000e+00 
0.0000000e+00 1.0616540e-05 0.0000000e+00 
0.0000000e+00 1.2692749e-05 0.0000000e+00 
0.0000000e+00 -1.1519796e-05 0.0000000e+00 
0.0000000e+00 -9.2383510e-05 0.0000000e+00 
0.0000000e+00 -2.5543914e-04 0.0000000e+00 
0.0000000e+00 -3.9822602e-04 0.0000000e+00 
0.0000000e+00 -5.3260021e-04 0.0000000e+00 
0.0000000e+00 -5.4067175e-04 0.0000000e+00 
0.0000000e+00 -4.7446482e-04 0.0000000e+00 
0.0000000e+00 -3.0487095e-04 0.0000000e+00 
0.0000000e+00 -1.2226788e-04 0.0000000e+00 
0.0000000e+00 -1.1236481e-05 0.0000000e+00 
0.0000000e+00 1.4802728e-05 0.0000000e+00 
0.0000000e+00 5.7476695e-06 0.0000000e+00 
0.0000000e+00 -2.3595803e-06 0.0000000e+00 
0.0000000e+00 -2.7031288e-06 0.0000000e+00 
0.0000000e+00 -4.9689515e-07 0.0000000e+00 
1.6796971e-06 2.8646753e-07 -5.4171505e-07 
1.5472973e-06 6.4432732e-07 -3.2346506e-07 
4.5639234e-07 1.3345971e-06 -1.0537775e-08 
-3.0332387e-07 3.5802154e-06 -7.6327842e-09 
7.0366372e-07 1.2827384e-07 1.3465715e-06 
4.3640901e-07 9.1355133e-07 2.1418091e-06 
-6.0746027e-07 9.4602916e-07 2.0171060e-06 
-5.6885892e-07 1.5989252e-06 7.6370583e-07 
2.7899121e-06 5.3279354e-07 -1.1777337e-06 
1.2710661e-06 1.2442640e-06 9.5256934e-07 
1.7328097e-06 1.9322292e-06 -7.7863490e-07 
3.1227505e-06 1.1439188e-06 -5.1456470e-07 
0.0000000e+00 4.5701995e-06 0.0000000e+00 
0.0000000e+00 3.1856225e-06 0.0000000e+00 
0.0000000e+00 -1.2659324e-06 0.0000000e+00 
0.0000000e+00 -1.0473866e-05 0.0000000e+00 
0.0000000e+00 -1.8667502e-05 0.0000000e+00 
0.0000000e+00 -1.9211466e-05 0.0000000e+00 
0.0000000e+00 -1.5640113e-05 0.0000000e+00 
0.0000000e+00 -7.8417161e-06 0.0000000e+00 
0.0000000e+00 2.4003481e-07 0.0000000e+00 
0.0000000e+00 1.1045901e-07 0.0000000e+00 
0.0000000e+00 -1.2341136e-06 0.0000000e+00 
0.0000000e+00 1.8654152e-06 0.0000000e+00 
0.0000000e+00 1.4716962e-05 0.0000000e+00 
0.0000000e+00 2.4375006e-05 0.0000000e+00 
0.0000000e+00 1.2616141e-06 0.0000000e+00 