# vtk DataFile Version 4.0
vtk output
ASCII
DATASET UNSTRUCTURED_GRID
POINTS 1920 float
0.0000000e+00 0.0000000e+00 0.0000000e+00 
0.0000000e+00 0.0000000e+00 5.0000000e+01 
5.0000000e+00 0.0000000e+00 0.0000000e+00 
5.0000000e+00 0.0000000e+00 5.0000000e+01 
5.0000000e+00 1.0000000e+00 0.0000000e+00 
5.0000000e+00 1.0000000e+00 5.0000000e+01 
0.0000000e+00 1.0000000e+00 0.0000000e+00 
0.0000000e+00 1.0000000e+00 5.0000000e+01 
5.0000000e+00 2.0000000e+00 0.0000000e+00 
5.0000000e+00 2.0000000e+00 5.0000000e+01 
3.0000000e+00 2.0000000e+00 0.0000000e+00 
3.0000000e+00 2.0000000e+00 5.0000000e+01 
0.0000000e+00 2.0000000e+00 0.0000000e+00 
0.0000000e+00 2.0000000e+00 5.0000000e+01 
1.5000000e+00 3.0000000e+00 0.0000000e+00 
1.5000000e+00 3.0000000e+00 5.0000000e+01 
7.5000000e-01 3.0000000e+00 0.0000000e+00 
7.5000000e-01 3.0000000e+00 5.0000000e+01 
0.0000000e+00 3.0000000e+00 0.0000000e+00 
0.0000000e+00 3.0000000e+00 5.0000000e+01 
7.5000000e-01 3.0000000e+00 5.0000000e-01 
7.5000000e-01 3.0000000e+00 1.0000000e+00 
7.5000000e-01 3.0000000e+00 1.5000000e+00 
7.5000000e-01 3.0000000e+00 2.0000000e+00 
7.5000000e-01 3.0000000e+00 2.5000000e+00 
7.5000000e-01 3.0000000e+00 3.0000000e+00 
7.5000000e-01 3.0000000e+00 3.5000000e+00 
7.5000000e-01 3.0000000e+00 4.0000000e+00 
7.5000000e-01 3.0000000e+00 4.5000000e+00 
7.5000000e-01 3.0000000e+00 5.0000000e+00 
7.5000000e-01 3.0000000e+00 5.5000000e+00 
7.5000000e-01 3.0000000e+00 6.0000000e+00 
7.5000000e-01 3.0000000e+00 6.5000000e+00 
7.5000000e-01 3.0000000e+00 7.0000000e+00 
7.5000000e-01 3.0000000e+00 7.5000000e+00 
7.5000000e-01 3.0000000e+00 8.0000000e+00 
7.5000000e-01 3.0000000e+00 8.5000000e+00 
7.5000000e-01 3.0000000e+00 9.0000000e+00 
7.5000000e-01 3.0000000e+00 9.5000000e+00 
7.5000000e-01 3.0000000e+00 1.0000000e+01 
7.5000000e-01 3.0000000e+00 1.0500000e+01 
7.5000000e-01 3.0000000e+00 1.1000000e+01 
7.5000000e-01 3.0000000e+00 1.1500000e+01 
7.5000000e-01 3.0000000e+00 1.2000000e+01 
7.5000000e-01 3.0000000e+00 1.2500000e+01 
7.5000000e-01 3.0000000e+00 1.3000000e+01 
7.5000000e-01 3.0000000e+00 1.3500000e+01 
7.5000000e-01 3.0000000e+00 1.4000000e+01 
7.5000000e-01 3.0000000e+00 1.4500000e+01 
7.5000000e-01 3.0000000e+00 1.5000000e+01 
7.5000000e-01 3.0000000e+00 1.5500000e+01 
7.5000000e-01 3.0000000e+00 1.6000000e+01 
7.5000000e-01 3.0000000e+00 1.6500000e+01 
7.5000000e-01 3.0000000e+00 1.7000000e+01 
7.5000000e-01 3.0000000e+00 1.7500000e+01 
7.5000000e-01 3.0000000e+00 1.8000000e+01 
7.5000000e-01 3.0000000e+00 1.8500000e+01 
7.5000000e-01 3.0000000e+00 1.9000000e+01 
7.5000000e-01 3.0000000e+00 1.9500000e+01 
7.5000000e-01 3.0000000e+00 2.0000000e+01 
7.5000000e-01 3.0000000e+00 2.0500000e+01 
7.5000000e-01 3.0000000e+00 2.1000000e+01 
7.5000000e-01 3.0000000e+00 2.1500000e+01 
7.5000000e-01 3.0000000e+00 2.2000000e+01 
7.5000000e-01 3.0000000e+00 2.2500000e+01 
7.5000000e-01 3.0000000e+00 2.3000000e+01 
7.5000000e-01 3.0000000e+00 2.3500000e+01 
7.5000000e-01 3.0000000e+00 2.4000000e+01 
7.5000000e-01 3.0000000e+00 2.4500000e+01 
7.5000000e-01 3.0000000e+00 2.5000000e+01 
7.5000000e-01 3.0000000e+00 2.5500000e+01 
7.5000000e-01 3.0000000e+00 2.6000000e+01 
7.5000000e-01 3.0000000e+00 2.6500000e+01 
7.5000000e-01 3.0000000e+00 2.7000000e+01 
7.5000000e-01 3.0000000e+00 2.7500000e+01 
7.5000000e-01 3.0000000e+00 2.8000000e+01 
7.5000000e-01 3.0000000e+00 2.8500000e+01 
7.5000000e-01 3.0000000e+00 2.9000000e+01 
7.5000000e-01 3.0000000e+00 2.9500000e+01 
7.5000000e-01 3.0000000e+00 3.0000000e+01 
7.5000000e-01 3.0000000e+00 3.0500000e+01 
7.5000000e-01 3.0000000e+00 3.1000000e+01 
7.5000000e-01 3.0000000e+00 3.1500000e+01 
7.5000000e-01 3.0000000e+00 3.2000000e+01 
7.5000000e-01 3.0000000e+00 3.2500000e+01 
7.5000000e-01 3.0000000e+00 3.3000000e+01 
7.5000000e-01 3.0000000e+00 3.3500000e+01 
7.5000000e-01 3.0000000e+00 3.4000000e+01 
7.5000000e-01 3.0000000e+00 3.4500000e+01 
7.5000000e-01 3.0000000e+00 3.5000000e+01 
7.5000000e-01 3.0000000e+00 3.5500000e+01 
7.5000000e-01 3.0000000e+00 3.6000000e+01 
7.5000000e-01 3.0000000e+00 3.6500000e+01 
7.5000000e-01 3.0000000e+00 3.7000000e+01 
7.5000000e-01 3.0000000e+00 3.7500000e+01 
7.5000000e-01 3.0000000e+00 3.8000000e+01 
7.5000000e-01 3.0000000e+00 3.8500000e+01 
7.5000000e-01 3.0000000e+00 3.9000000e+01 
7.5000000e-01 3.0000000e+00 3.9500000e+01 
7.5000000e-01 3.0000000e+00 4.0000000e+01 
7.5000000e-01 3.0000000e+00 4.0500000e+01 
7.5000000e-01 3.0000000e+00 4.1000000e+01 
7.5000000e-01 3.0000000e+00 4.1500000e+01 
7.5000000e-01 3.0000000e+00 4.2000000e+01 
7.5000000e-01 3.0000000e+00 4.2500000e+01 
7.5000000e-01 3.0000000e+00 4.3000000e+01 
7.5000000e-01 3.0000000e+00 4.3500000e+01 
7.5000000e-01 3.0000000e+00 4.4000000e+01 
7.5000000e-01 3.0000000e+00 4.4500000e+01 
7.5000000e-01 3.0000000e+00 4.5000000e+01 
7.5000000e-01 3.0000000e+00 4.5500000e+01 
7.5000000e-01 3.0000000e+00 4.6000000e+01 
7.5000000e-01 3.0000000e+00 4.6500000e+01 
7.5000000e-01 3.0000000e+00 4.7000000e+01 
7.5000000e-01 3.0000000e+00 4.7500000e+01 
7.5000000e-01 3.0000000e+00 4.8000000e+01 
7.5000000e-01 3.0000000e+00 4.8500000e+01 
7.5000000e-01 3.0000000e+00 4.9000000e+01 
7.5000000e-01 3.0000000e+00 4.9500000e+01 
7.5000000e-01 3.0250001e+00 0.0000000e+00 
7.5000000e-01 3.0250001e+00 5.0000000e-01 
7.5000000e-01 3.0250001e+00 1.0000000e+00 
7.5000000e-01 3.0250001e+00 1.5000000e+00 
7.5000000e-01 3.0250001e+00 2.0000000e+00 
7.5000000e-01 3.0250001e+00 2.5000000e+00 
7.5000000e-01 3.0250001e+00 3.0000000e+00 
7.5000000e-01 3.0250001e+00 3.5000000e+00 
7.5000000e-01 3.0250001e+00 4.0000000e+00 
7.5000000e-01 3.0250001e+00 4.5000000e+00 
7.5000000e-01 3.0250001e+00 5.0000000e+00 
7.5000000e-01 3.0250001e+00 5.5000000e+00 
7.5000000e-01 3.0250001e+00 6.0000000e+00 
7.5000000e-01 3.0250001e+00 6.5000000e+00 
7.5000000e-01 3.0250001e+00 7.0000000e+00 
7.5000000e-01 3.0250001e+00 7.5000000e+00 
7.5000000e-01 3.0250001e+00 8.0000000e+00 
7.5000000e-01 3.0250001e+00 8.5000000e+00 
7.5000000e-01 3.0250001e+00 9.0000000e+00 
7.5000000e-01 3.0250001e+00 9.5000000e+00 
7.5000000e-01 3.0250001e+00 1.0000000e+01 
7.5000000e-01 3.0250001e+00 1.0500000e+01 
7.5000000e-01 3.0250001e+00 1.1000000e+01 
7.5000000e-01 3.0250001e+00 1.1500000e+01 
7.5000000e-01 3.0250001e+00 1.2000000e+01 
7.5000000e-01 3.0250001e+00 1.2500000e+01 
7.5000000e-01 3.0250001e+00 1.3000000e+01 
7.5000000e-01 3.0250001e+00 1.3500000e+01 
7.5000000e-01 3.0250001e+00 1.4000000e+01 
7.5000000e-01 3.0250001e+00 1.4500000e+01 
7.5000000e-01 3.0250001e+00 1.5000000e+01 
7.5000000e-01 3.0250001e+00 1.5500000e+01 
7.5000000e-01 3.0250001e+00 1.6000000e+01 
7.5000000e-01 3.0250001e+00 1.6500000e+01 
7.5000000e-01 3.0250001e+00 1.7000000e+01 
7.5000000e-01 3.0250001e+00 1.7500000e+01 
7.5000000e-01 3.0250001e+00 1.8000000e+01 
7.5000000e-01 3.0250001e+00 1.8500000e+01 
7.5000000e-01 3.0250001e+00 1.9000000e+01 
7.5000000e-01 3.0250001e+00 1.9500000e+01 
7.5000000e-01 3.0250001e+00 2.0000000e+01 
7.5000000e-01 3.0250001e+00 2.0500000e+01 
7.5000000e-01 3.0250001e+00 2.1000000e+01 
7.5000000e-01 3.0250001e+00 2.1500000e+01 
7.5000000e-01 3.0250001e+00 2.2000000e+01 
7.5000000e-01 3.0250001e+00 2.2500000e+01 
7.5000000e-01 3.0250001e+00 2.3000000e+01 
7.5000000e-01 3.0250001e+00 2.3500000e+01 
7.5000000e-01 3.0250001e+00 2.4000000e+01 
7.5000000e-01 3.0250001e+00 2.4500000e+01 
7.5000000e-01 3.0250001e+00 2.5000000e+01 
7.5000000e-01 3.0250001e+00 2.5500000e+01 
7.5000000e-01 3.0250001e+00 2.6000000e+01 
7.5000000e-01 3.0250001e+00 2.6500000e+01 
7.5000000e-01 3.0250001e+00 2.7000000e+01 
7.5000000e-01 3.0250001e+00 2.7500000e+01 
7.5000000e-01 3.0250001e+00 2.8000000e+01 
7.5000000e-01 3.0250001e+00 2.8500000e+01 
7.5000000e-01 3.0250001e+00 2.9000000e+01 
7.5000000e-01 3.0250001e+00 2.9500000e+01 
7.5000000e-01 3.0250001e+00 3.0000000e+01 
7.5000000e-01 3.0250001e+00 3.0500000e+01 
7.5000000e-01 3.0250001e+00 3.1000000e+01 
7.5000000e-01 3.0250001e+00 3.1500000e+01 
7.5000000e-01 3.0250001e+00 3.2000000e+01 
7.5000000e-01 3.0250001e+00 3.2500000e+01 
7.5000000e-01 3.0250001e+00 3.3000000e+01 
7.5000000e-01 3.0250001e+00 3.3500000e+01 
7.5000000e-01 3.0250001e+00 3.4000000e+01 
7.5000000e-01 3.0250001e+00 3.4500000e+01 
7.5000000e-01 3.0250001e+00 3.5000000e+01 
7.5000000e-01 3.0250001e+00 3.5500000e+01 
7.5000000e-01 3.0250001e+00 3.6000000e+01 
7.5000000e-01 3.0250001e+00 3.6500000e+01 
7.5000000e-01 3.0250001e+00 3.7000000e+01 
7.5000000e-01 3.0250001e+00 3.7500000e+01 
7.5000000e-01 3.0250001e+00 3.8000000e+01 
7.5000000e-01 3.0250001e+00 3.8500000e+01 
7.5000000e-01 3.0250001e+00 3.9000000e+01 
7.5000000e-01 3.0250001e+00 3.9500000e+01 
7.5000000e-01 3.0250001e+00 4.0000000e+01 
7.5000000e-01 3.0250001e+00 4.0500000e+01 
7.5000000e-01 3.0250001e+00 4.1000000e+01 
7.5000000e-01 3.0250001e+00 4.1500000e+01 
7.5000000e-01 3.0250001e+00 4.2000000e+01 
7.5000000e-01 3.0250001e+00 4.2500000e+01 
7.5000000e-01 3.0250001e+00 4.3000000e+01 
7.5000000e-01 3.0250001e+00 4.3500000e+01 
7.5000000e-01 3.0250001e+00 4.4000000e+01 
7.5000000e-01 3.0250001e+00 4.4500000e+01 
7.5000000e-01 3.0250001e+00 4.5000000e+01 
7.5000000e-01 3.0250001e+00 4.5500000e+01 
7.5000000e-01 3.0250001e+00 4.6000000e+01 
7.5000000e-01 3.0250001e+00 4.6500000e+01 
7.5000000e-01 3.0250001e+00 4.7000000e+01 
7.5000000e-01 3.0250001e+00 4.7500000e+01 
7.5000000e-01 3.0250001e+00 4.8000000e+01 
7.5000000e-01 3.0250001e+00 4.8500000e+01 
7.5000000e-01 3.0250001e+00 4.9000000e+01 
7.5000000e-01 3.0250001e+00 4.9500000e+01 
7.5000000e-01 3.0250001e+00 5.0000000e+01 
1.5000000e+00 3.0000000e+00 2.5000000e+01 
3.0000000e+00 2.0000000e+00 2.5000000e+01 
4.0000000e+00 2.0000000e+00 2.5000000e+01 
5.0000000e+00 2.0000000e+00 2.5000000e+01 
0.0000000e+00 3.0000000e+00 2.5000000e+01 
0.0000000e+00 0.0000000e+00 1.0000000e+00 
0.0000000e+00 0.0000000e+00 2.0000000e+00 
0.0000000e+00 0.0000000e+00 3.0000000e+00 
0.0000000e+00 0.0000000e+00 4.0000000e+00 
0.0000000e+00 0.0000000e+00 5.0000000e+00 
[...]
POINT_DATA 1920
FIELD FieldData 3
DISPLACEMENT 3 1920  float
0.0000000e+00 0.0000000e+00 0.0000000e+00 
0.0000000e+00 0.0000000e+00 0.0000000e+00 
0.0000000e+00 0.0000000e+00 0.0000000e+00 
0.0000000e+00 0.0000000e+00 0.0000000e+00 
-4.9847671e-07 4.0020447e-07 7.6094818e-07 
1.0391380e-05 -5.2906016e-06 1.4626937e-05 
0.0000000e+00 2.3006492e-06 0.0000000e+00 
0.0000000e+00 -1.1698100e-05 0.0000000e+00 
-2.1736606e-07 3.9481100e-07 1.1080783e-06 
1.0282655e-05 -1.0185313e-06 1.5412012e-05 
9.2556091e-10 1.3915721e-06 8.1055271e-07 
1.0016613e-05 3.9703477e-06 8.9892837e-06 
0.0000000e+00 3.8423273e-06 0.0000000e+00 
0.0000000e+00 3.9233695e-05 0.0000000e+00 
-4.6515382e-07 6.3867337e-06 8.2025535e-06 
-3.3529210e-05 9.8780125e-05 -2.4742304e-04 
-6.1650425e-08 -1.2543902e-06 4.6105811e-06 
3.5754092e-05 1.7875357e-04 -2.3472118e-04 
0.0000000e+00 3.5785120e-06 0.0000000e+00 
0.0000000e+00 2.6248131e-04 0.0000000e+00 
-1.2492363e-06 -1.5015122e-06 3.5449430e-06 
-1.8180707e-06 -2.2159886e-06 2.0193563e-06 
-2.9583700e-06 -3.2233493e-06 4.8169471e-07 
-4.4578619e-06 -4.4243734e-06 -2.3612668e-06 
-4.1121048e-06 -5.6062281e-06 -4.4445387e-06 
-3.7277573e-06 -6.6359635e-06 -5.8007122e-06 
-1.9707222e-06 -7.4426953e-06 -5.6726967e-06 
-1.7480979e-06 -7.9340589e-06 -5.4616730e-06 
-8.5794619e-07 -8.1919725e-06 -5.7216562e-06 
-1.3121145e-06 -8.2697470e-06 -6.9090956e-06 
-1.8756089e-07 -8.3549403e-06 -7.0898773e-06 
1.0646421e-07 -8.3617660e-06 -6.1411283e-06 
6.9433958e-07 -8.2857459e-06 -4.3010541e-06 
-1.0916622e-06 -7.9383262e-06 -2.4143992e-06 
-1.9789043e-06 -7.3152846e-06 -1.7936399e-06 
-3.1937764e-06 -6.3822017e-06 -2.4685289e-06 
-3.8294734e-06 -5.3872841e-06 -3.4303512e-06 
-4.7115363e-06 -4.4341564e-06 -3.2335431e-06 
-4.2952543e-06 -3.6919841e-06 -2.1086862e-06 
-4.3209493e-06 -3.0352496e-06 -5.5110837e-07 
-3.5541129e-06 -2.3642749e-06 6.6239903e-07 
-3.2599107e-06 -1.5892604e-06 4.8737735e-07 
-1.8748796e-06 -8.2390153e-07 -1.9172637e-07 
-3.1457537e-07 -3.8110051e-07 -4.7130658e-07 
2.3035673e-07 -6.3162059e-07 5.4115947e-07 
5.5683313e-07 -1.5194896e-06 2.6133359e-06 
5.4132772e-07 -2.7970364e-06 3.7845798e-06 
-3.6866098e-07 -3.9494039e-06 3.3442400e-06 
1.0538035e-06 -4.5606507e-06 1.3637990e-06 
2.0682426e-06 -4.6278051e-06 -2.2338832e-06 
3.8010239e-06 -4.1033109e-06 -4.4060093e-06 
4.4667204e-06 -2.9177982e-06 -4.3138593e-06 
4.9085061e-06 -8.7385467e-07 -3.3555584e-06 
5.2123955e-06 2.5449142e-06 -1.6493062e-06 
3.3000961e-06 7.9099445e-06 -2.2585634e-06 
2.7254225e-06 1.5850093e-05 -1.2456112e-06 
4.8430188e-06 2.7251524e-05 -4.1828440e-07 
6.7637069e-07 4.2684158e-05 5.4492584e-06 
-1.0571329e-06 6.2058760e-05 9.8106620e-06 
-2.5977420e-06 8.1550425e-05 1.8839470e-05 
-2.1678743e-06 9.1856440e-05 2.9515888e-05 
-1.8285348e-06 7.2268456e-05 4.4668061e-05 
-6.0750563e-06 -9.7180409e-06 8.6563821e-05 
-2.4721876e-05 -2.0202801e-04 1.1307608e-04 
-5.6172048e-05 -5.6836609e-04 1.8757465e-04 
-6.0544244e-05 -1.1640834e-03 1.3267294e-04 
-1.5546233e-04 -2.0379315e-03 2.8742271e-04 
-1.9279087e-04 -3.1269728e-03 2.2280421e-04 
-2.4057964e-04 -4.2348672e-03 2.4069003e-04 
-1.6247347e-04 -4.8846207e-03 8.5197273e-05 
-2.6701769e-04 -4.7711334e-03 5.3180393e-06 
-3.1193093e-04 -4.4782404e-03 -4.5590048e-05 
-2.9304568e-04 -4.4563394e-03 -8.0126294e-05 
-3.1784529e-04 -4.5970869e-03 -1.5047021e-04 
-2.9096691e-04 -4.4365562e-03 -2.3017946e-04 
-2.3562438e-04 -3.4347940e-03 -1.6703895e-04 
-1.5343459e-04 -2.2011637e-03 -3.0520771e-04 
-8.4291634e-05 -1.1308533e-03 -1.5406613e-04 
-2.4918963e-05 -3.9934655e-04 -1.8060791e-04 
1.7283951e-06 1.9626759e-05 -7.9346726e-05 
1.2562017e-05 1.9888848e-04 -5.2343661e-05 
1.3790025e-05 2.3047840e-04 -2.0719732e-05 
9.1230877e-06 1.9080688e-04 -3.0439744e-06 
5.4803568e-06 1.2794278e-04 -4.6330192e-06 
3.2853072e-06 7.0843656e-05 3.1259804e-06 
9.5207946e-07 2.8296266e-05 -5.2836640e-07 
-1.8306346e-06 1.7241589e-06 1.5258374e-06 
-3.3793044e-06 -1.2203349e-05 -2.0403147e-06 
-2.7228039e-06 -1.7329243e-05 -4.9090186e-06 
-5.0938263e-07 -1.7152024e-05 -7.9695146e-06 
4.3109590e-06 -1.4525684e-05 -8.2087690e-06 
4.7909098e-06 -1.1005694e-05 -6.6030257e-06 
5.9097738e-06 -6.9992170e-06 -2.4553026e-06 
4.3998994e-06 -1.7110846e-06 7.6041772e-07 
3.5015687e-06 5.9347135e-06 2.2628782e-07 
4.4792746e-06 1.6958038e-05 -3.7210684e-06 
6.2634294e-06 3.1802290e-05 -6.5231092e-07 
5.1564998e-06 5.0189967e-05 4.3525279e-06 
3.7798766e-06 7.0465641e-05 9.6557405e-06 
9.6353017e-07 8.6739521e-05 2.0671896e-05 
-5.5011133e-06 8.7701963e-05 3.4578065e-05 
-1.0576464e-05 5.0992785e-05 4.9338010e-05 
-2.3611941e-05 -5.8104746e-05 9.6457625e-05 
-3.3066110e-05 -2.8951437e-04 1.1174361e-04 
-6.5652006e-05 -7.0422725e-04 2.0213112e-04 
-8.7033848e-05 -1.3555122e-03 1.5882266e-04 
-1.3883684e-04 -2.2748350e-03 2.6571690e-04 
-1.6796059e-04 -3.3843347e-03 1.1300288e-04 
-2.3449960e-04 -4.4636941e-03 1.8793585e-04 
-2.5561161e-04 -4.9511162e-03 5.0865896e-05 
-2.4116965e-04 -4.7161495e-03 3.3291262e-06 
-2.3614788e-04 -4.4169221e-03 -2.3832010e-05 
-2.0560162e-04 -4.4112834e-03 -3.3086038e-05 
-2.2515502e-04 -4.5198803e-03 -1.3800112e-04 
-2.1273697e-04 -4.1717049e-03 -2.2028851e-04 
-8.4882966e-05 -3.0445938e-03 -1.9166865e-04 
-1.0058309e-04 -1.7632132e-03 -2.7075995e-04 
-2.8440123e-05 -7.1397319e-04 -2.0844539e-04 
-1.4578720e-05 -4.9295788e-05 -2.1163379e-04 
0.0000000e+00 -1.2599187e-06 0.0000000e+00 
0.0000000e+00 -1.5122380e-06 0.0000000e+00 
0.0000000e+00 -2.2165184e-06 0.0000000e+00 
0.0000000e+00 -3.2322191e-06 0.0000000e+00 
0.0000000e+00 -4.4229114e-06 0.0000000e+00 
0.0000000e+00 -5.6065142e-06 0.0000000e+00 
0.0000000e+00 -6.6416465e-06 0.0000000e+00 
0.0000000e+00 -7.4394134e-06 0.0000000e+00 
0.0000000e+00 -7.9394667e-06 0.0000000e+00 
0.0000000e+00 -8.1912431e-06 0.0000000e+00 
0.0000000e+00 -8.2896549e-06 0.0000000e+00 
0.0000000e+00 -8.3604027e-06 0.0000000e+00 
0.0000000e+00 -8.3796931e-06 0.0000000e+00 
0.0000000e+00 -8.2864362e-06 0.0000000e+00 
0.0000000e+00 -7.9460660e-06 0.0000000e+00 
0.0000000e+00 -7.3068536e-06 0.0000000e+00 
0.0000000e+00 -6.3928928e-06 0.0000000e+00 
0.0000000e+00 -5.3897220e-06 0.0000000e+00 
0.0000000e+00 -4.4544618e-06 0.0000000e+00 
0.0000000e+00 -3.6982353e-06 0.0000000e+00 
0.0000000e+00 -3.0403455e-06 0.0000000e+00 
0.0000000e+00 -2.3569494e-06 0.0000000e+00 
0.0000000e+00 -1.5783789e-06 0.0000000e+00 
0.0000000e+00 -8.2073853e-07 0.0000000e+00 
0.0000000e+00 -4.0291894e-07 0.0000000e+00 
0.0000000e+00 -6.4460932e-07 0.0000000e+00 
0.0000000e+00 -1.5370439e-06 0.0000000e+00 
0.0000000e+00 -2.7938731e-06 0.0000000e+00 
0.0000000e+00 -3.9284137e-06 0.0000000e+00 
0.0000000e+00 -4.5634629e-06 0.0000000e+00 
0.0000000e+00 -4.6328983e-06 0.0000000e+00 
0.0000000e+00 -4.1179082e-06 0.0000000e+00 
0.0000000e+00 -2.9409482e-06 0.0000000e+00 
0.0000000e+00 -8.7801612e-07 0.0000000e+00 
0.0000000e+00 2.5425625e-06 0.0000000e+00 
0.0000000e+00 7.8978164e-06 0.0000000e+00 
0.0000000e+00 1.5862925e-05 0.0000000e+00 
0.0000000e+00 2.7284295e-05 0.0000000e+00 
0.0000000e+00 4.2864362e-05 0.0000000e+00 
0.0000000e+00 6.2348488e-05 0.0000000e+00 
0.0000000e+00 8.2156250e-05 0.0000000e+00 
0.0000000e+00 9.2521106e-05 0.0000000e+00 
0.0000000e+00 7.3169431e-05 0.0000000e+00 
0.0000000e+00 -8.8518127e-06 0.0000000e+00 
0.0000000e+00 -2.0222913e-04 0.0000000e+00 
0.0000000e+00 -5.6872226e-04 0.0000000e+00 
0.0000000e+00 -1.1698070e-03 0.0000000e+00 
0.0000000e+00 -2.0451555e-03 0.0000000e+00 
0.0000000e+00 -3.1414104e-03 0.0000000e+00 
0.0000000e+00 -4.2539514e-03 0.0000000e+00 
0.0000000e+00 -4.9189390e-03 0.0000000e+00 
0.0000000e+00 -4.7942228e-03 0.0000000e+00 
0.0000000e+00 -4.5062886e-03 0.0000000e+00 
0.0000000e+00 -4.4754962e-03 0.0000000e+00 
0.0000000e+00 -4.6277200e-03 0.0000000e+00 
0.0000000e+00 -4.4586058e-03 0.0000000e+00 
0.0000000e+00 -3.4606347e-03 0.0000000e+00 
0.0000000e+00 -2.2126695e-03 0.0000000e+00 
0.0000000e+00 -1.1403512e-03 0.0000000e+00 
0.0000000e+00 -4.0141880e-04 0.0000000e+00 
0.0000000e+00 1.9167686e-05 0.0000000e+00 
0.0000000e+00 1.9991874e-04 0.0000000e+00 
0.0000000e+00 2.3208505e-04 0.0000000e+00 
0.0000000e+00 1.9184894e-04 0.0000000e+00 
0.0000000e+00 1.2893928e-04 0.0000000e+00 
0.0000000e+00 7.1200935e-05 0.0000000e+00 
0.0000000e+00 2.8499009e-05 0.0000000e+00 
0.0000000e+00 1.7333838e-06 0.0000000e+00 
0.0000000e+00 -1.2241612e-05 0.0000000e+00 
0.0000000e+00 -1.7376407e-05 0.0000000e+00 
0.0000000e+00 -1.7227021e-05 0.0000000e+00 
0.0000000e+00 -1.4592179e-05 0.0000000e+00 
0.0000000e+00 -1.1071344e-05 0.0000000e+00 
0.0000000e+00 -7.0185256e-06 0.0000000e+00 
0.0000000e+00 -1.7080438e-06 0.0000000e+00 
0.0000000e+00 5.9658305e-06 0.0000000e+00 
0.0000000e+00 1.6995209e-05 0.0000000e+00 
0.0000000e+00 3.1882275e-05 0.0000000e+00 
0.0000000e+00 5.0415641e-05 0.0000000e+00 
0.0000000e+00 7.0762973e-05 0.0000000e+00 
0.0000000e+00 8.7321299e-05 0.0000000e+00 
0.0000000e+00 8.8382381e-05 0.0000000e+00 
0.0000000e+00 5.1864125e-05 0.0000000e+00 
0.0000000e+00 -5.7436246e-05 0.0000000e+00 
0.0000000e+00 -2.8972479e-04 0.0000000e+00 
0.0000000e+00 -7.0535927e-04 0.0000000e+00 
0.0000000e+00 -1.3609705e-03 0.0000000e+00 
0.0000000e+00 -2.2826388e-03 0.0000000e+00 
0.0000000e+00 -3.4028906e-03 0.0000000e+00 
0.0000000e+00 -4.4846181e-03 0.0000000e+00 
0.0000000e+00 -4.9823397e-03 0.0000000e+00 
0.0000000e+00 -4.7396384e-03 0.0000000e+00 
0.0000000e+00 -4.4442075e-03 0.0000000e+00 
0.0000000e+00 -4.4327485e-03 0.0000000e+00 
0.0000000e+00 -4.5496132e-03 0.0000000e+00 
0.0000000e+00 -4.1957581e-03 0.0000000e+00 
0.0000000e+00 -3.0639819e-03 0.0000000e+00 
0.0000000e+00 -1.7749647e-03 0.0000000e+00 
0.0000000e+00 -7.1840902e-04 0.0000000e+00 
0.0000000e+00 -5.0091232e-05 0.0000000e+00 
0.0000000e+00 1.7798822e-04 0.0000000e+00 
-6.0776481e-04 -1.4336944e-03 1.2210217e-04 
5.0748404e-05 -7.8586723e-05 -3.6441734e-06 
4.9919283e-05 -1.7987037e-05 -2.5495347e-06 
4.6059296e-05 -1.4913428e-05 -1.3652379e-06 
0.0000000e+00 -2.5673055e-03 0.0000000e+00 
0.0000000e+00 0.0000000e+00 0.0000000e+00 
0.0000000e+00 0.0000000e+00 0.0000000e+00 
0.0000000e+00 0.0000000e+00 0.0000000e+00 
0.0000000e+00 0.0000000e+00 0.0000000e+00 
0.0000000e+00 0.0000000e+00 0.0000000e+00 
0.0000000e+00 0.0000000e+00 0.0000000e+00 
0.0000000e+00 0.0000000e+00 0.0000000e+00 
0.0000000e+00 0.0000000e+00 0.0000000e+00 
0.0000000e+00 0.0000000e+00 0.0000000e+00 
0.0000000e+00 0.0000000e+00 0.0000000e+00 
0.0000000e+00 0.0000000e+00 0.0000000e+00 
0.0000000e+00 0.0000000e+00 0.0000000e+00 
0.0000000e+00 0.0000000e+00 0.0000000e+00 
0.0000000e+00 0.0000000e+00 0.0000000e+00 
0.0000000e+00 0.0000000e+00 0.0000000e+00 
0.0000000e+00 0.0000000e+00 0.0000000e+00 
0.0000000e+00 0.0000000e+00 0.0000000e+00 
0.0000000e+00 0.0000000e+00 0.0000000e+00 
0.0000000e+00 0.0000000e+00 0.0000000e+00 
0.0000000e+00 0.0000000e+00 0.0000000e+00 
0.0000000e+00 0.0000000e+00 0.0000000e+00 
0.0000000e+00 0.0000000e+00 0.0000000e+00 
0.0000000e+00 0.0000000e+00 0.0000000e+00 
0.0000000e+00 0.0000000e+00 0.0000000e+00 
0.0000000e+00 0.0000000e+00 0.0000000e+00 
0.0000000e+00 0.0000000e+00 0.0000000e+00 
0.0000000e+00 0.0000000e+00 0.0000000e+00 
0.0000000e+00 0.0000000e+00 0.0000000e+00 
0.0000000e+00 0.0000000e+00 0.0000000e+00 
0.0000000e+00 0.0000000e+00 0.0000000e+00 
0.0000000e+00 0.0000000e+00 0.0000000e+00 
0.0000000e+00 0.0000000e+00 0.0000000e+00 
0.0000000e+00 0.0000000e+00 0.0000000e+00 
0.0000000e+00 0.0000000e+00 0.0000000e+00 
0.0000000e+00 0.0000000e+00 0.0000000e+00 
0.0000000e+00 0.0000000e+00 0.0000000e+00 
0.0000000e+00 0.0000000e+00 0.0000000e+00 
0.0000000e+00 0.0000000e+00 0.0000000e+00 
0.0000000e+00 0.0000000e+00 0.0000000e+00 
0.0000000e+00 0.0000000e+00 0.0000000e+00 
0.0000000e+00 0.0000000e+00 0.0000000e+00 
0.0000000e+00 0.0000000e+00 0.0000000e+00 
0.0000000e+00 0.0000000e+00 0.0000000e+00 
0.0000000e+00 0.0000000e+00 0.0000000e+00 
0.0000000e+00 0.0000000e+00 0.0000000e+00 
0.0000000e+00 0.0000000e+00 0.0000000e+00 
0.0000000e+00 0.0000000e+00 0.0000000e+00 
0.0000000e+00 0.0000000e+00 0.0000000e+00 
0.0000000e+00 0.0000000e+00 0.0000000e+00 
0.0000000e+00 0.0000000e+00 0.0000000e+00 
0.0000000e+00 0.0000000e+00 0.0000000e+00 
0.0000000e+00 0.0000000e+00 0.0000000e+00 
0.0000000e+00 0.0000000e+00 0.0000000e+00 
0.0000000e+00 0.0000000e+00 0.0000000e+00 
0.0000000e+00 0.0000000e+00 0.0000000e+00 
0.0000000e+00 0.0000000e+00 0.0000000e+00 
0.0000000e+00 0.0000000e+00 0.0000000e+00 
0.0000000e+00 0.0000000e+00 0.0000000e+00 
0.0000000e+00 0.0000000e+00 0.0000000e+00 
0.0000000e+00 0.0000000e+00 0.0000000e+00 
0.0000000e+00 0.0000000e+00 0.0000000e+00 
0.0000000e+00 0.0000000e+00 0.0000000e+00 
0.0000000e+00 0.0000000e+00 0.0000000e+00 
0.0000000e+00 0.0000000e+00 0.0000000e+00 
0.0000000e+00 0.0000000e+00 0.0000000e+00 
0.0000000e+00 0.0000000e+00 0.0000000e+00 
0.0000000e+00 0.0000000e+00 0.0000000e+00 
0.0000000e+00 0.0000000e+00 0.0000000e+00 
0.0000000e+00 0.0000000e+00 0.0000000e+00 
0.0000000e+00 0.0000000e+00 0.0000000e+00 
0.0000000e+00 0.0000000e+00 0.0000000e+00 
0.0000000e+00 0.0000000e+00 0.0000000e+00 
0.0000000e+00 0.0000000e+00 0.0000000e+00 
0.0000000e+00 0.0000000e+00 0.0000000e+00 
0.0000000e+00 0.0000000e+00 0.0000000e+00 
0.0000000e+00 0.0000000e+00 0.0000000e+00 
0.0000000e+00 0.0000000e+00 0.0000000e+00 
0.0000000e+00 0.0000000e+00 0.0000000e+00 
0.0000000e+00 0.0000000e+00 0.0000000e+00 
0.0000000e+00 0.0000000e+00 0.0000000e+00 
0.0000000e+00 0.0000000e+00 0.0000000e+00 
0.0000000e+00 0.0000000e+00 0.0000000e+00 
0.0000000e+00 0.0000000e+00 0.0000000e+00 
0.0000000e+00 0.0000000e+00 0.0000000e+00 
0.0000000e+00 0.0000000e+00 0.0000000e+00 
0.0000000e+00 0.0000000e+00 0.0000000e+00 
0.0000000e+00 0.0000000e+00 0.0000000e+00 
0.0000000e+00 0.0000000e+00 0.0000000e+00 
0.0000000e+00 0.0000000e+00 0.0000000e+00 
0.0000000e+00 0.0000000e+00 0.0000000e+00 
0.0000000e+00 0.0000000e+00 0.0000000e+00 
0.0000000e+00 0.0000000e+00 0.0000000e+00 
0.0000000e+00 0.0000000e+00 0.0000000e+00 
0.0000000e+00 0.0000000e+00 0.0000000e+00 
0.0000000e+00 0.0000000e+00 0.0000000e+00 
0.0000000e+00 0.0000000e+00 0.0000000e+00 
0.0000000e+00 0.0000000e+00 0.0000000e+00 
0.0000000e+00 0.0000000e+00 0.0000000e+00 
0.0000000e+00 0.0000000e+00 0.0000000e+00 
0.0000000e+00 0.0000000e+00 0.0000000e+00 
0.0000000e+00 0.0000000e+00 0.0000000e+00 
0.0000000e+00 0.0000000e+00 0.0000000e+00 
0.0000000e+00 0.0000000e+00 0.0000000e+00 
0.0000000e+00 0.0000000e+00 0.0000000e+00 
0.0000000e+00 0.0000000e+00 0.0000000e+00 
0.0000000e+00 0.0000000e+00 0.0000000e+00 
-5.7504057e-08 2.6562184e-08 4.9312052e-07 
2.1615826e-07 -1.2912682e-07 6.3794885e-09 
3.7660351e-07 -4.2751097e-08 -4.4645671e-07 
4.3655410e-07 -1.3351989e-07 -7.3845786e-07 
4.4651301e-07 -5.2490128e-07 -8.0839783e-07 
4.8208881e-07 -8.1269621e-07 -7.8132661e-07 
5.6884898e-07 -6.8089082e-07 -8.1716706e-07 
7.0444162e-07 -4.3170132e-07 -6.8973736e-07 
5.5948448e-07 -1.0315599e-07 -6.8535184e-07 
3.2528325e-07 -1.6634299e-07 -6.2210381e-07 
1.6491877e-07 1.0770837e-07 -7.4767519e-07 
-1.1652035e-07 -1.0145968e-07 -9.9792078e-07 
-2.3787921e-07 -3.2006668e-07 -1.0913964e-06 
-1.1253826e-07 -3.3683281e-07 -8.8912628e-07 
-1.3437430e-07 -2.7592711e-07 -6.2277331e-07 
-1.6920666e-07 -4.8680380e-07 -6.8846452e-07 
-1.8130871e-08 -7.3886775e-07 -9.5497091e-07 
3.3731408e-07 -3.7343059e-07 -1.4504889e-06 
9.9719455e-07 3.4515557e-07 -2.3133634e-06 
3.5209657e-06 -1.3583956e-06 -5.2299065e-06 
8.7551325e-06 -4.6822820e-06 -8.8097886e-06 
1.8525918e-05 -7.5805697e-06 -1.1606642e-05 
2.9503830e-05 -1.1072224e-05 -1.2864003e-05 
4.0591807e-05 -1.2806071e-05 -1.0200177e-05 
4.6920624e-05 -1.4926033e-05 -4.3755554e-06 
4.7991067e-05 -1.4966509e-05 4.2963861e-06 
4.2501553e-05 -1.3615883e-05 1.0443279e-05 
3.0611467e-05 -1.0918933e-05 1.4549684e-05 
2.0686879e-05 -7.4441959e-06 1.3801752e-05 
1.0027009e-05 -2.4681117e-06 1.0884613e-05 
4.5996030e-06 -7.5609677e-07 6.5272675e-06 
1.6079352e-06 -1.0447277e-06 2.7847796e-06 
3.8773555e-07 -4.6632249e-07 2.7917355e-07 
-3.7761883e-08 -1.9514908e-07 -8.8455414e-07 
-2.3750719e-07 1.0850315e-08 -1.2226824e-06 
-3.9987512e-07 -2.2225323e-07 -1.4582429e-06 
-3.1386952e-07 -4.7322840e-07 -1.8250111e-06 
5.7620616e-07 -7.7140891e-07 -2.5577326e-06 
2.5059032e-06 -9.7150917e-07 -4.0708028e-06 
5.8476271e-06 -1.7246904e-06 -6.7344263e-06 
1.1680790e-05 -4.1173289e-06 -9.8830869e-06 
2.1516084e-05 -8.0282443e-06 -1.2611486e-05 
3.3206408e-05 -1.1650691e-05 -1.2356779e-05 
4.5705354e-05 -1.6885393e-05 -6.3440707e-06 
4.8410406e-05 -1.6893357e-05 1.6632001e-06 
4.8024394e-05 -1.6009870e-05 6.4197620e-06 
4.4316184e-05 -1.4319430e-05 1.5935146e-05 
3.0879430e-05 -1.1056055e-05 1.9371611e-05 
1.7386423e-05 -4.9044193e-06 1.8071722e-05 
0.0000000e+00 2.9727578e-06 0.0000000e+00 
0.0000000e+00 2.6474850e-06 0.0000000e+00 
0.0000000e+00 2.3744346e-06 0.0000000e+00 
0.0000000e+00 3.3002336e-06 0.0000000e+00 
0.0000000e+00 5.3107324e-06 0.0000000e+00 
0.0000000e+00 6.2703684e-06 0.0000000e+00 
0.0000000e+00 6.0090852e-06 0.0000000e+00 
0.0000000e+00 5.1983311e-06 0.0000000e+00 
0.0000000e+00 4.2978709e-06 0.0000000e+00 
0.0000000e+00 2.8416605e-06 0.0000000e+00 
0.0000000e+00 2.4215688e-06 0.0000000e+00 
0.0000000e+00 2.3183538e-06 0.0000000e+00 
0.0000000e+00 1.4044606e-06 0.0000000e+00 
0.0000000e+00 8.9064577e-07 0.0000000e+00 
0.0000000e+00 3.5524904e-06 0.0000000e+00 
0.0000000e+00 6.5084205e-06 0.0000000e+00 
0.0000000e+00 6.8370373e-06 0.0000000e+00 
0.0000000e+00 4.8466036e-06 0.0000000e+00 
0.0000000e+00 3.6231916e-06 0.0000000e+00 
0.0000000e+00 3.4976040e-06 0.0000000e+00 
0.0000000e+00 -1.3448290e-05 0.0000000e+00 
0.0000000e+00 -7.3524643e-05 0.0000000e+00 
0.0000000e+00 -2.0164190e-04 0.0000000e+00 
0.0000000e+00 -4.0728282e-04 0.0000000e+00 
0.0000000e+00 -5.0261145e-04 0.0000000e+00 
0.0000000e+00 -5.4921542e-04 0.0000000e+00 
0.0000000e+00 -4.8592302e-04 0.0000000e+00 
0.0000000e+00 -3.4110434e-04 0.0000000e+00 
0.0000000e+00 -1.2486443e-04 0.0000000e+00 
0.0000000e+00 -2.5281985e-05 0.0000000e+00 
0.0000000e+00 1.5845319e-05 0.0000000e+00 
0.0000000e+00 1.9260147e-05 0.0000000e+00 
0.0000000e+00 1.1621757e-05 0.0000000e+00 
0.0000000e+00 4.7873946e-06 0.0000000e+00 
0.0000000e+00 3.1545942e-06 0.0000000e+00 
0.0000000e+00 3.0948922e-06 0.0000000e+00 
0.0000000e+00 2.1185551e-06 0.0000000e+00 
0.0000000e+00 1.5203922e-06 0.0000000e+00 
0.0000000e+00 2.0839316e-06 0.0000000e+00 
0.0000000e+00 8.6310411e-07 0.0000000e+00 
0.0000000e+00 -1.8108847e-05 0.0000000e+00 
0.0000000e+00 -8.8010129e-05 0.0000000e+00 
0.0000000e+00 -2.3317998e-04 0.0000000e+00 
0.0000000e+00 -4.0754233e-04 0.0000000e+00 
0.0000000e+00 -5.2539731e-04 0.0000000e+00 
0.0000000e+00 -5.2798202e-04 0.0000000e+00 
0.0000000e+00 -4.7092646e-04 0.0000000e+00 
0.0000000e+00 -3.0949686e-04 0.0000000e+00 
0.0000000e+00 -1.2381922e-04 0.0000000e+00 
-1.9236164e-07 5.7476291e-07 6.0432239e-07 
-7.8164810e-08 5.7960381e-07 2.5417293e-07 
-3.5340861e-07 6.5243989e-07 1.9657087e-07 
-4.1607049e-07 1.8642595e-06 4.8160899e-07 
1.5823953e-05 -3.6881163e-06 1.7541030e-05 
2.0821244e-05 -2.0520918e-06 2.9779743e-05 
2.0958722e-05 -1.9362444e-05 4.8131122e-05 
6.0566144e-06 -1.8198714e-05 6.0012957e-05 
8.2308546e-08 9.6014253e-07 6.8507529e-07 
1.3553447e-05 1.4586236e-07 1.4371589e-05 
5.0206677e-07 3.0829515e-06 8.9115599e-07 
1.0316479e-07 2.2535714e-06 1.1272382e-06 
0.0000000e+00 4.9875903e-06 0.0000000e+00 
0.0000000e+00 3.8188637e-06 0.0000000e+00 
0.0000000e+00 3.5339674e-06 0.0000000e+00 
0.0000000e+00 4.6706978e-06 0.0000000e+00 
0.0000000e+00 7.9680021e-06 0.0000000e+00 
0.0000000e+00 9.6372778e-06 0.0000000e+00 
0.0000000e+00 9.4020970e-06 0.0000000e+00 
0.0000000e+00 8.3488358e-06 0.0000000e+00 
0.0000000e+00 7.1679015e-06 0.0000000e+00 
0.0000000e+00 5.0896133e-06 0.0000000e+00 
0.0000000e+00 3.3135418e-06 0.0000000e+00 
0.0000000e+00 4.1068165e-06 0.0000000e+00 
0.0000000e+00 2.8303994e-06 0.0000000e+00 