# vtk DataFile Version 4.0
vtk output
ASCII
DATASET UNSTRUCTURED_GRID
POINTS 1920 float
0.0000000e+00 0.0000000e+00 0.0000000e+00 
0.0000000e+00 0.0000000e+00 5.0000000e+01 
5.0000000e+00 0.0000000e+00 0.0000000e+00 
5.0000000e+00 0.0000000e+00 5.0000000e+01 
5.0000000e+00 1.0000000e+00 0.0000000e+00 
5.0000000e+00 1.0000000e+00 5.0000000e+01 
0.0000000e+00 1.0000000e+00 0.0000000e+00 
0.0000000e+00 1.0000000e+00 5.0000000e+01 
5.0000000e+00 2.0000000e+00 0.0000000e+00 
5.0000000e+00 2.0000000e+00 5.0000000e+01 
3.0000000e+00 2.0000000e+00 0.0000000e+00 
3.0000000e+00 2.0000000e+00 5.0000000e+01 
0.0000000e+00 2.0000000e+00 0.0000000e+00 
0.0000000e+00 2.0000000e+00 5.0000000e+01 
1.5000000e+00 3.0000000e+00 0.0000000e+00 
1.5000000e+00 3.0000000e+00 5.0000000e+01 
7.5000000e-01 3.0000000e+00 0.0000000e+00 
7.5000000e-01 3.0000000e+00 5.0000000e+01 
0.0000000e+00 3.0000000e+00 0.0000000e+00 
0.0000000e+00 3.0000000e+00 5.0000000e+01 
7.5000000e-01 3.0000000e+00 5.0000000e-01 
7.5000000e-01 3.0000000e+00 1.0000000e+00 
7.5000000e-01 3.0000000e+00 1.5000000e+00 
7.5000000e-01 3.0000000e+00 2.0000000e+00 
7.5000000e-01 3.0000000e+00 2.5000000e+00 
7.5000000e-01 3.0000000e+00 3.0000000e+00 
7.5000000e-01 3.0000000e+00 3.5000000e+00 
7.5000000e-01 3.0000000e+00 4.0000000e+00 
7.5000000e-01 3.0000000e+00 4.5000000e+00 
7.5000000e-01 3.0000000e+00 5.0000000e+00 
7.5000000e-01 3.0000000e+00 5.5000000e+00 
7.5000000e-01 3.0000000e+00 6.0000000e+00 
7.5000000e-01 3.0000000e+00 6.5000000e+00 
7.5000000e-01 3.0000000e+00 7.0000000e+00 
7.5000000e-01 3.0000000e+00 7.5000000e+00 
7.5000000e-01 3.0000000e+00 8.0000000e+00 
7.5000000e-01 3.0000000e+00 8.5000000e+00 
7.5000000e-01 3.0000000e+00 9.0000000e+00 
7.5000000e-01 3.0000000e+00 9.5000000e+00 
7.5000000e-01 3.0000000e+00 1.0000000e+01 
7.5000000e-01 3.0000000e+00 1.0500000e+01 
7.5000000e-01 3.0000000e+00 1.1000000e+01 
7.5000000e-01 3.0000000e+00 1.1500000e+01 
7.5000000e-01 3.0000000e+00 1.2000000e+01 
7.5000000e-01 3.0000000e+00 1.2500000e+01 
7.5000000e-01 3.0000000e+00 1.3000000e+01 
7.5000000e-01 3.0000000e+00 1.3500000e+01 
7.5000000e-01 3.0000000e+00 1.4000000e+01 
7.5000000e-01 3.0000000e+00 1.4500000e+01 
7.5000000e-01 3.0000000e+00 1.5000000e+01 
7.5000000e-01 3.0000000e+00 1.5500000e+01 
7.5000000e-01 3.0000000e+00 1.6000000e+01 
7.5000000e-01 3.0000000e+00 1.6500000e+01 
7.5000000e-01 3.0000000e+00 1.7000000e+01 
7.5000000e-01 3.0000000e+00 1.7500000e+01 
7.5000000e-01 3.0000000e+00 1.8000000e+01 
7.5000000e-01 3.0000000e+00 1.8500000e+01 
7.5000000e-01 3.0000000e+00 1.9000000e+01 
7.5000000e-01 3.0000000e+00 1.9500000e+01 
7.5000000e-01 3.0000000e+00 2.0000000e+01 
7.5000000e-01 3.0000000e+00 2.0500000e+01 
7.5000000e-01 3.0000000e+00 2.1000000e+01 
7.5000000e-01 3.0000000e+00 2.1500000e+01 
7.5000000e-01 3.0000000e+00 2.2000000e+01 
7.5000000e-01 3.0000000e+00 2.2500000e+01 
7.5000000e-01 3.0000000e+00 2.3000000e+01 
7.5000000e-01 3.0000000e+00 2.3500000e+01 
7.5000000e-01 3.0000000e+00 2.4000000e+01 
7.5000000e-01 3.0000000e+00 2.4500000e+01 
7.5000000e-01 3.0000000e+00 2.5000000e+01 
7.5000000e-01 3.0000000e+00 2.5500000e+01 
7.5000000e-01 3.0000000e+00 2.6000000e+01 
7.5000000e-01 3.0000000e+00 2.6500000e+01 
7.5000000e-01 3.0000000e+00 2.7000000e+01 
7.5000000e-01 3.0000000e+00 2.7500000e+01 
7.5000000e-01 3.0000000e+00 2.8000000e+01 
7.5000000e-01 3.0000000e+00 2.8500000e+01 
7.5000000e-01 3.0000000e+00 2.9000000e+01 
7.5000000e-01 3.0000000e+00 2.9500000e+01 
7.5000000e-01 3.0000000e+00 3.0000000e+01 
7.5000000e-01 3.0000000e+00 3.0500000e+01 
7.5000000e-01 3.0000000e+00 3.1000000e+01 
7.5000000e-01 3.0000000e+00 3.1500000e+01 
7.5000000e-01 3.0000000e+00 3.2000000e+01 
7.5000000e-01 3.0000000e+00 3.2500000e+01 
7.5000000e-01 3.0000000e+00 3.3000000e+01 
7.5000000e-01 3.0000000e+00 3.3500000e+01 
7.5000000e-01 3.0000000e+00 3.4000000e+01 
7.5000000e-01 3.0000000e+00 3.4500000e+01 
7.5000000e-01 3.0000000e+00 3.5000000e+01 
7.5000000e-01 3.0000000e+00 3.5500000e+01 
7.5000000e-01 3.0000000e+00 3.6000000e+01 
7.5000000e-01 3.0000000e+00 3.6500000e+01 
7.5000000e-01 3.0000000e+00 3.7000000e+01 
7.5000000e-01 3.0000000e+00 3.7500000e+01 
7.5000000e-01 3.0000000e+00 3.8000000e+01 
7.5000000e-01 3.0000000e+00 3.8500000e+01 
7.5000000e-01 3.0000000e+00 3.9000000e+01 
7.5000000e-01 3.0000000e+00 3.9500000e+01 
7.5000000e-01 3.0000000e+00 4.0000000e+01 
7.5000000e-01 3.0000000e+00 4.0500000e+01 
7.5000000e-01 3.0000000e+00 4.1000000e+01 
7.5000000e-01 3.0000000e+00 4.1500000e+01 
7.5000000e-01 3.0000000e+00 4.2000000e+01 
7.5000000e-01 3.0000000e+00 4.2500000e+01 
7.5000000e-01 3.0000000e+00 4.3000000e+01 
7.5000000e-01 3.0000000e+00 4.3500000e+01 
7.5000000e-01 3.0000000e+00 4.4000000e+01 
7.5000000e-01 3.0000000e+00 4.4500000e+01 
7.5000000e-01 3.0000000e+00 4.5000000e+01 
7.5000000e-01 3.0000000e+00 4.5500000e+01 
7.5000000e-01 3.0000000e+00 4.6000000e+01 
7.5000000e-01 3.0000000e+00 4.6500000e+01 
7.5000000e-01 3.0000000e+00 4.7000000e+01 
7.5000000e-01 3.0000000e+00 4.7500000e+01 
7.5000000e-01 3.0000000e+00 4.8000000e+01 
7.5000000e-01 3.0000000e+00 4.8500000e+01 
7.5000000e-01 3.0000000e+00 4.9000000e+01 
7.5000000e-01 3.0000000e+00 4.9500000e+01 
7.5000000e-01 3.0250001e+00 0.0000000e+00 
7.5000000e-01 3.0250001e+00 5.0000000e-01 
7.5000000e-01 3.0250001e+00 1.0000000e+00 
7.5000000e-01 3.0250001e+00 1.5000000e+00 
7.5000000e-01 3.0250001e+00 2.0000000e+00 
7.5000000e-01 3.0250001e+00 2.5000000e+00 
7.5000000e-01 3.0250001e+00 3.0000000e+00 
7.5000000e-01 3.0250001e+00 3.5000000e+00 
7.5000000e-01 3.0250001e+00 4.0000000e+00 
7.5000000e-01 3.0250001e+00 4.5000000e+00 
7.5000000e-01 3.0250001e+00 5.0000000e+00 
7.5000000e-01 3.0250001e+00 5.5000000e+00 
7.5000000e-01 3.0250001e+00 6.0000000e+00 
7.5000000e-01 3.0250001e+00 6.5000000e+00 
7.5000000e-01 3.0250001e+00 7.0000000e+00 
7.5000000e-01 3.0250001e+00 7.5000000e+00 
7.5000000e-01 3.0250001e+00 8.0000000e+00 
7.5000000e-01 3.0250001e+00 8.5000000e+00 
7.5000000e-01 3.0250001e+00 9.0000000e+00 
7.5000000e-01 3.0250001e+00 9.5000000e+00 
7.5000000e-01 3.0250001e+00 1.0000000e+01 
7.5000000e-01 3.0250001e+00 1.0500000e+01 
7.5000000e-01 3.0250001e+00 1.1000000e+01 
7.5000000e-01 3.0250001e+00 1.1500000e+01 
7.5000000e-01 3.0250001e+00 1.2000000e+01 
7.5000000e-01 3.0250001e+00 1.2500000e+01 
7.5000000e-01 3.0250001e+00 1.3000000e+01 
7.5000000e-01 3.0250001e+00 1.3500000e+01 
7.5000000e-01 3.0250001e+00 1.4000000e+01 
7.5000000e-01 3.0250001e+00 1.4500000e+01 
7.5000000e-01 3.0250001e+00 1.5000000e+01 
7.5000000e-01 3.0250001e+00 1.5500000e+01 
7.5000000e-01 3.0250001e+00 1.6000000e+01 
7.5000000e-01 3.0250001e+00 1.6500000e+01 
7.5000000e-01 3.0250001e+00 1.7000000e+01 
7.5000000e-01 3.0250001e+00 1.7500000e+01 
7.5000000e-01 3.0250001e+00 1.8000000e+01 
7.5000000e-01 3.0250001e+00 1.8500000e+01 
7.5000000e-01 3.0250001e+00 1.9000000e+01 
7.5000000e-01 3.0250001e+00 1.9500000e+01 
7.5000000e-01 3.0250001e+00 2.0000000e+01 
7.5000000e-01 3.0250001e+00 2.0500000e+01 
7.5000000e-01 3.0250001e+00 2.1000000e+01 
7.5000000e-01 3.0250001e+00 2.1500000e+01 
7.5000000e-01 3.0250001e+00 2.2000000e+01 
7.5000000e-01 3.0250001e+00 2.2500000e+01 
7.5000000e-01 3.0250001e+00 2.3000000e+01 
7.5000000e-01 3.0250001e+00 2.3500000e+01 
7.5000000e-01 3.0250001e+00 2.4000000e+01 
7.5000000e-01 3.0250001e+00 2.4500000e+01 
7.5000000e-01 3.0250001e+00 2.5000000e+01 
7.5000000e-01 3.0250001e+00 2.5500000e+01 
7.5000000e-01 3.0250001e+00 2.6000000e+01 
7.5000000e-01 3.0250001e+00 2.6500000e+01 
7.5000000e-01 3.0250001e+00 2.7000000e+01 
7.5000000e-01 3.0250001e+00 2.7500000e+01 
7.5000000e-01 3.0250001e+00 2.8000000e+01 
7.5000000e-01 3.0250001e+00 2.8500000e+01 
7.5000000e-01 3.0250001e+00 2.9000000e+01 
7.5000000e-01 3.0250001e+00 2.9500000e+01 
7.5000000e-01 3.0250001e+00 3.0000000e+01 
7.5000000e-01 3.0250001e+00 3.0500000e+01 
7.5000000e-01 3.0250001e+00 3.1000000e+01 
7.5000000e-01 3.0250001e+00 3.1500000e+01 
7.5000000e-01 3.0250001e+00 3.2000000e+01 
7.5000000e-01 3.0250001e+00 3.2500000e+01 
7.5000000e-01 3.0250001e+00 3.3000000e+01 
7.5000000e-01 3.0250001e+00 3.3500000e+01 
7.5000000e-01 3.0250001e+00 3.4000000e+01 
7.5000000e-01 3.0250001e+00 3.4500000e+01 
7.5000000e-01 3.0250001e+00 3.5000000e+01 
7.5000000e-01 3.0250001e+00 3.5500000e+01 
7.5000000e-01 3.0250001e+00 3.6000000e+01 
7.5000000e-01 3.0250001e+00 3.6500000e+01 
7.5000000e-01 3.0250001e+00 3.7000000e+01 
7.5000000e-01 3.0250001e+00 3.7500000e+01 
7.5000000e-01 3.0250001e+00 3.8000000e+01 
7.5000000e-01 3.0250001e+00 3.8500000e+01 
7.5000000e-01 3.0250001e+00 3.9000000e+01 
7.5000000e-01 3.0250001e+00 3.9500000e+01 
7.5000000e-01 3.0250001e+00 4.0000000e+01 
7.5000000e-01 3.0250001e+00 4.0500000e+01 
7.5000000e-01 3.0250001e+00 4.1000000e+01 
7.5000000e-01 3.0250001e+00 4.1500000e+01 
7.5000000e-01 3.0250001e+00 4.2000000e+01 
7.5000000e-01 3.0250001e+00 4.2500000e+01 
7.5000000e-01 3.0250001e+00 4.3000000e+01 
7.5000000e-01 3.0250001e+00 4.3500000e+01 
7.5000000e-01 3.0250001e+00 4.4000000e+01 
7.5000000e-01 3.0250001e+00 4.4500000e+01 
7.5000000e-01 3.0250001e+00 4.5000000e+01 
7.5000000e-01 3.0250001e+00 4.5500000e+01 
7.5000000e-01 3.0250001e+00 4.6000000e+01 
7.5000000e-01 3.0250001e+00 4.6500000e+01 
7.5000000e-01 3.0250001e+00 4.7000000e+01 
7.5000000e-01 3.0250001e+00 4.7500000e+01 
7.5000000e-01 3.0250001e+00 4.8000000e+01 
7.5000000e-01 3.0250001e+00 4.8500000e+01 
7.5000000e-01 3.0250001e+00 4.9000000e+01 
7.5000000e-01 3.0250001e+00 4.9500000e+01 
7.5000000e-01 3.0250001e+00 5.0000000e+01 
1.5000000e+00 3.0000000e+00 2.5000000e+01 
3.0000000e+00 2.0000000e+00 2.5000000e+01 
4.0000000e+00 2.0000000e+00 2.5000000e+01 
5.0000000e+00 2.0000000e+00 2.5000000e+01 
0.0000000e+00 3.0000000e+00 2.5000000e+01 
0.0000000e+00 0.0000000e+00 1.0000000e+00 
0.0000000e+00 0.0000000e+00 2.0000000e+00 
0.0000000e+00 0.0000000e+00 3.0000000e+00 
0.0000000e+00 0.0000000e+00 4.0000000e+00 
0.0000000e+00 0.0000000e+00 5.0000000e+00 
[...]
POINT_DATA 1920
FIELD FieldData 3
DISPLACEMENT 3 1920  float
0.0000000e+00 0.0000000e+00 0.0000000e+00 
0.0000000e+00 0.0000000e+00 0.0000000e+00 
0.0000000e+00 0.0000000e+00 0.0000000e+00 
0.0000000e+00 0.0000000e+00 0.0000000e+00 
-1.4833644e-07 5.4864836e-07 2.5253740e-07 
-6.8720936e-07 -3.6854323e-07 3.0362787e-07 
0.0000000e+00 -1.1769590e-06 0.0000000e+00 
0.0000000e+00 -1.0531351e-06 0.0000000e+00 
-9.4938991e-07 7.3624494e-07 2.6538802e-07 
-4.9487511e-07 -9.4456408e-07 1.5441625e-06 
-3.3306006e-07 -8.6999876e-07 1.0358465e-06 
-8.3452124e-07 1.2713377e-06 -3.0411156e-06 
0.0000000e+00 -3.5738399e-06 0.0000000e+00 
0.0000000e+00 -6.2759764e-06 0.0000000e+00 
1.5036350e-06 -6.6768530e-06 -8.0690870e-06 
1.7060011e-06 -9.2097343e-06 7.8221210e-06 
3.7629675e-06 7.5425720e-07 -1.9348536e-06 
3.1568134e-06 -1.4915656e-05 3.6114818e-06 
0.0000000e+00 -5.7438874e-06 0.0000000e+00 
0.0000000e+00 -2.3926490e-05 0.0000000e+00 
3.7367483e-06 1.6848111e-06 -4.6352162e-07 
4.9615560e-06 4.2247029e-06 2.8246934e-06 
7.8047697e-06 7.7374143e-06 7.4824206e-06 
1.0323784e-05 1.1830855e-05 1.2908761e-05 
8.8943780e-06 1.5789574e-05 1.5122308e-05 
9.7024531e-06 1.9055627e-05 1.3722408e-05 
8.1748994e-06 2.1272443e-05 1.1470270e-05 
8.7067765e-06 2.2023985e-05 7.4871118e-06 
7.1901381e-06 2.1330134e-05 7.6236133e-06 
7.5320372e-06 1.9274003e-05 7.9381516e-06 
5.5493015e-06 1.6455533e-05 8.8535808e-06 
5.1347756e-06 1.3365503e-05 5.3207682e-06 
2.0620862e-06 1.0741340e-05 2.5478550e-07 
5.2739347e-06 8.8598390e-06 -6.4617434e-06 
7.1137856e-06 8.1353473e-06 -1.1491717e-05 
1.1637828e-05 8.1449261e-06 -1.3548804e-05 
1.3368569e-05 8.6569034e-06 -1.3618323e-05 
1.4518432e-05 8.8762081e-06 -1.2405882e-05 
1.3664811e-05 8.5209213e-06 -1.1909062e-05 
1.4691079e-05 7.5402227e-06 -1.0120110e-05 
1.3144712e-05 6.0251250e-06 -9.7562779e-06 
1.2531941e-05 4.2305460e-06 -9.1407883e-06 
1.0424974e-05 2.5398633e-06 -1.0107302e-05 
9.4037987e-06 1.4121539e-06 -9.8792989e-06 
8.1621156e-06 1.6995787e-06 -1.0084228e-05 
2.7384465e-06 3.9665347e-06 -9.0151198e-06 
-2.8083484e-06 8.9639498e-06 -1.1535584e-05 
-3.2405396e-06 1.7329574e-05 -1.1735937e-05 
-1.2649224e-06 2.9744000e-05 -1.3420429e-05 
-3.2981809e-06 4.6415349e-05 -7.7916948e-06 
-4.9255286e-06 6.6528424e-05 -1.8719940e-06 
-4.9769760e-06 8.5370229e-05 1.2607966e-05 
-3.9588695e-06 9.2200753e-05 2.9775261e-05 
-8.9040113e-06 6.5159700e-05 6.3453401e-05 
-1.8325996e-05 -3.1127100e-05 9.4642288e-05 
-2.9464651e-05 -2.4105173e-04 1.0509755e-04 
-5.7297108e-05 -6.2487775e-04 1.9864923e-04 
-7.3838681e-05 -1.2394693e-03 1.6953574e-04 
-1.2403450e-04 -2.1267864e-03 2.8115165e-04 
-1.5624490e-04 -3.2342291e-03 1.3798513e-04 
-2.2073013e-04 -4.3795626e-03 2.2392800e-04 
-2.7200565e-04 -5.0512352e-03 6.3020547e-05 
-2.9348442e-04 -4.9003013e-03 1.1761994e-05 
-2.3503001e-04 -4.5547970e-03 4.8117536e-06 
-3.3449585e-04 -4.4651106e-03 1.0726988e-05 
-2.1954555e-04 -4.5796935e-03 -5.7482706e-05 
-2.1837870e-04 -4.4366186e-03 -1.8739662e-04 
-9.7063334e-05 -3.4395857e-03 -1.5977852e-04 
-9.2608650e-05 -2.1897955e-03 -2.1904422e-04 
-3.5563677e-05 -1.1128795e-03 -1.3851686e-04 
-9.2872369e-06 -3.7810468e-04 -1.5249735e-04 
7.3786896e-06 3.6631027e-05 -7.4489915e-05 
1.5051373e-05 2.1275562e-04 -5.6849010e-05 
1.7273433e-05 2.4255732e-04 -2.9040750e-05 
1.6224290e-05 2.0275582e-04 -1.2823296e-05 
1.5556336e-05 1.4041059e-04 -1.3921473e-05 
1.2378132e-05 8.3822815e-05 -6.9505709e-06 
8.9992300e-06 4.1269010e-05 -9.6262638e-06 
5.1132597e-06 1.4172727e-05 -7.7174891e-06 
4.4661265e-06 -6.5078433e-07 -1.0901223e-05 
5.5485730e-06 -6.5404879e-06 -1.4090083e-05 
6.8637387e-06 -6.9107487e-06 -1.6478609e-05 
6.2797167e-06 -4.4764074e-06 -1.6050735e-05 
8.3639161e-06 -1.0161973e-06 -1.2939838e-05 
7.4259592e-06 2.9707094e-06 -1.0873442e-05 
7.8656458e-06 8.2664865e-06 -8.6016016e-06 
7.8469720e-06 1.6070881e-05 -8.4932390e-06 
3.2765181e-06 2.7278780e-05 -4.8464158e-06 
-1.1859994e-07 4.2479864e-05 -4.8348443e-06 
2.3170448e-06 6.0986025e-05 -1.4158036e-06 
1.0801962e-06 8.1087055e-05 2.7932979e-06 
-5.7884554e-06 9.7131626e-05 1.5752410e-05 
-1.2014039e-05 9.7850534e-05 3.0513251e-05 
-1.0976246e-05 5.9876536e-05 4.8146689e-05 
-2.4032228e-05 -5.2956562e-05 8.5793639e-05 
-6.4104534e-05 -2.9360389e-04 1.6724049e-04 
-6.7433619e-05 -7.2295882e-04 1.9858951e-04 
-8.7566725e-05 -1.3928423e-03 1.6623156e-04 
-1.4084819e-04 -2.3342795e-03 2.8031619e-04 
-1.7222743e-04 -3.4667230e-03 1.2298553e-04 
-2.4206718e-04 -4.5631817e-03 1.9677766e-04 
-2.6057416e-04 -5.0487644e-03 5.7974961e-05 
-2.4184983e-04 -4.7907303e-03 1.0523861e-05 
-2.3662586e-04 -4.4652568e-03 -1.0066132e-05 
-2.0336729e-04 -4.4433894e-03 -1.3505544e-05 
-2.1790568e-04 -4.5501152e-03 -1.1080486e-04 
-2.0465834e-04 -4.2148600e-03 -1.8476770e-04 
-1.6887745e-04 -3.1158605e-03 -1.3366326e-04 
-1.0048685e-04 -1.8985647e-03 -2.3220626e-04 
-7.2010160e-05 -9.0797921e-04 -1.2204629e-04 
-2.1989808e-05 -2.5773881e-04 -1.4016937e-04 
-7.3371971e-06 9.0754678e-05 -6.9518042e-05 
5.6288368e-06 2.2452750e-04 -4.9391419e-05 
5.9690783e-06 2.3149612e-04 -2.7854856e-05 
6.3451812e-06 1.8217613e-04 -1.1479068e-05 
2.4043061e-06 1.1814987e-04 -1.0965952e-05 
2.3905225e-06 6.0992024e-05 -8.4854356e-08 
8.3812688e-07 1.9030656e-05 -3.3492441e-08 
1.0817847e-06 -6.3142065e-06 2.4312599e-06 
0.0000000e+00 7.7668255e-07 0.0000000e+00 
0.0000000e+00 1.7045547e-06 0.0000000e+00 
0.0000000e+00 4.2169700e-06 0.0000000e+00 
0.0000000e+00 7.7608902e-06 0.0000000e+00 
0.0000000e+00 1.1833143e-05 0.0000000e+00 
0.0000000e+00 1.5792177e-05 0.0000000e+00 
0.0000000e+00 1.9073117e-05 0.0000000e+00 
0.0000000e+00 2.1268983e-05 0.0000000e+00 
0.0000000e+00 2.2036787e-05 0.0000000e+00 
0.0000000e+00 2.1321010e-05 0.0000000e+00 
0.0000000e+00 1.9291485e-05 0.0000000e+00 
0.0000000e+00 1.6456581e-05 0.0000000e+00 
0.0000000e+00 1.3396631e-05 0.0000000e+00 
0.0000000e+00 1.0748745e-05 0.0000000e+00 
0.0000000e+00 8.9130544e-06 0.0000000e+00 
0.0000000e+00 8.1430944e-06 0.0000000e+00 
0.0000000e+00 8.1884100e-06 0.0000000e+00 
0.0000000e+00 8.6465971e-06 0.0000000e+00 
0.0000000e+00 8.8755223e-06 0.0000000e+00 
0.0000000e+00 8.5270995e-06 0.0000000e+00 
0.0000000e+00 7.5450675e-06 0.0000000e+00 
0.0000000e+00 6.0331254e-06 0.0000000e+00 
0.0000000e+00 4.2351353e-06 0.0000000e+00 
0.0000000e+00 2.5232939e-06 0.0000000e+00 
0.0000000e+00 1.4273642e-06 0.0000000e+00 
0.0000000e+00 1.6949181e-06 0.0000000e+00 
0.0000000e+00 3.9747315e-06 0.0000000e+00 
0.0000000e+00 8.9671566e-06 0.0000000e+00 
0.0000000e+00 1.7355864e-05 0.0000000e+00 
0.0000000e+00 2.9800751e-05 0.0000000e+00 
0.0000000e+00 4.6611411e-05 0.0000000e+00 
0.0000000e+00 6.6841712e-05 0.0000000e+00 
0.0000000e+00 8.5975582e-05 0.0000000e+00 
0.0000000e+00 9.2930146e-05 0.0000000e+00 
0.0000000e+00 6.5701504e-05 0.0000000e+00 
0.0000000e+00 -3.0247127e-05 0.0000000e+00 
0.0000000e+00 -2.4104628e-04 0.0000000e+00 
0.0000000e+00 -6.2563608e-04 0.0000000e+00 
0.0000000e+00 -1.2441291e-03 0.0000000e+00 
0.0000000e+00 -2.1338409e-03 0.0000000e+00 
0.0000000e+00 -3.2515456e-03 0.0000000e+00 
0.0000000e+00 -4.3996749e-03 0.0000000e+00 
0.0000000e+00 -5.0828485e-03 0.0000000e+00 
0.0000000e+00 -4.9256380e-03 0.0000000e+00 
0.0000000e+00 -4.5799995e-03 0.0000000e+00 
0.0000000e+00 -4.4872039e-03 0.0000000e+00 
0.0000000e+00 -4.6139397e-03 0.0000000e+00 
0.0000000e+00 -4.4565564e-03 0.0000000e+00 
0.0000000e+00 -3.4633318e-03 0.0000000e+00 
0.0000000e+00 -2.2032158e-03 0.0000000e+00 
0.0000000e+00 -1.1220326e-03 0.0000000e+00 
0.0000000e+00 -3.8071026e-04 0.0000000e+00 
0.0000000e+00 3.6564637e-05 0.0000000e+00 
0.0000000e+00 2.1382529e-04 0.0000000e+00 
0.0000000e+00 2.4421723e-04 0.0000000e+00 
0.0000000e+00 2.0378715e-04 0.0000000e+00 
0.0000000e+00 1.4140572e-04 0.0000000e+00 
0.0000000e+00 8.4165680e-05 0.0000000e+00 
0.0000000e+00 4.1475181e-05 0.0000000e+00 
0.0000000e+00 1.4178909e-05 0.0000000e+00 
0.0000000e+00 -6.5253732e-07 0.0000000e+00 
0.0000000e+00 -6.5716977e-06 0.0000000e+00 
0.0000000e+00 -6.9527714e-06 0.0000000e+00 
0.0000000e+00 -4.5349129e-06 0.0000000e+00 
0.0000000e+00 -1.0750317e-06 0.0000000e+00 
0.0000000e+00 2.9534260e-06 0.0000000e+00 
0.0000000e+00 8.2844690e-06 0.0000000e+00 
0.0000000e+00 1.6095139e-05 0.0000000e+00 
0.0000000e+00 2.7349979e-05 0.0000000e+00 
0.0000000e+00 4.2545358e-05 0.0000000e+00 
0.0000000e+00 6.1193365e-05 0.0000000e+00 
0.0000000e+00 8.1394319e-05 0.0000000e+00 
0.0000000e+00 9.7765376e-05 0.0000000e+00 
0.0000000e+00 9.8568067e-05 0.0000000e+00 
0.0000000e+00 6.0825441e-05 0.0000000e+00 
0.0000000e+00 -5.2473297e-05 0.0000000e+00 
0.0000000e+00 -2.9389534e-04 0.0000000e+00 
0.0000000e+00 -7.2403677e-04 0.0000000e+00 
0.0000000e+00 -1.3984120e-03 0.0000000e+00 
0.0000000e+00 -2.3423044e-03 0.0000000e+00 
0.0000000e+00 -3.4856368e-03 0.0000000e+00 
0.0000000e+00 -4.5845862e-03 0.0000000e+00 
0.0000000e+00 -5.0806738e-03 0.0000000e+00 
0.0000000e+00 -4.8146523e-03 0.0000000e+00 
0.0000000e+00 -4.4929767e-03 0.0000000e+00 
0.0000000e+00 -4.4650664e-03 0.0000000e+00 
0.0000000e+00 -4.5799883e-03 0.0000000e+00 
0.0000000e+00 -4.2385408e-03 0.0000000e+00 
0.0000000e+00 -3.1384036e-03 0.0000000e+00 
0.0000000e+00 -1.9103555e-03 0.0000000e+00 
0.0000000e+00 -9.1510080e-04 0.0000000e+00 
0.0000000e+00 -2.5976464e-04 0.0000000e+00 
0.0000000e+00 9.1144509e-05 0.0000000e+00 
0.0000000e+00 2.2566738e-04 0.0000000e+00 
0.0000000e+00 2.3307389e-04 0.0000000e+00 
0.0000000e+00 1.8323024e-04 0.0000000e+00 
0.0000000e+00 1.1880386e-04 0.0000000e+00 
0.0000000e+00 6.1327344e-05 0.0000000e+00 
0.0000000e+00 1.9074416e-05 0.0000000e+00 
0.0000000e+00 -6.3530920e-06 0.0000000e+00 
0.0000000e+00 -1.4895088e-05 0.0000000e+00 
-1.6362563e-04 -4.1997532e-04 -2.4914008e-04 
2.1987218e-05 -3.3102369e-05 1.7706830e-05 
2.1391081e-05 -9.0883577e-06 1.4481166e-05 
1.5269143e-05 -2.4573503e-06 1.4487698e-05 
0.0000000e+00 -2.4430934e-04 0.0000000e+00 
0.0000000e+00 0.0000000e+00 0.0000000e+00 
0.0000000e+00 0.0000000e+00 0.0000000e+00 
0.0000000e+00 0.0000000e+00 0.0000000e+00 
0.0000000e+00 0.0000000e+00 0.0000000e+00 
0.0000000e+00 0.0000000e+00 0.0000000e+00 
0.0000000e+00 0.0000000e+00 0.0000000e+00 
0.0000000e+00 0.0000000e+00 0.0000000e+00 
0.0000000e+00 0.0000000e+00 0.0000000e+00 
0.0000000e+00 0.0000000e+00 0.0000000e+00 
0.0000000e+00 0.0000000e+00 0.0000000e+00 
0.0000000e+00 0.0000000e+00 0.0000000e+00 
0.0000000e+00 0.0000000e+00 0.0000000e+00 
0.0000000e+00 0.0000000e+00 0.0000000e+00 
0.0000000e+00 0.0000000e+00 0.0000000e+00 
0.0000000e+00 0.0000000e+00 0.0000000e+00 
0.0000000e+00 0.0000000e+00 0.0000000e+00 
0.0000000e+00 0.0000000e+00 0.0000000e+00 
0.0000000e+00 0.0000000e+00 0.0000000e+00 
0.0000000e+00 0.0000000e+00 0.0000000e+00 
0.0000000e+00 0.0000000e+00 0.0000000e+00 
0.0000000e+00 0.0000000e+00 0.0000000e+00 
0.0000000e+00 0.0000000e+00 0.0000000e+00 
0.0000000e+00 0.0000000e+00 0.0000000e+00 
0.0000000e+00 0.0000000e+00 0.0000000e+00 
0.0000000e+00 0.0000000e+00 0.0000000e+00 
0.0000000e+00 0.0000000e+00 0.0000000e+00 
0.0000000e+00 0.0000000e+00 0.0000000e+00 
0.0000000e+00 0.0000000e+00 0.0000000e+00 
0.0000000e+00 0.0000000e+00 0.0000000e+00 
0.0000000e+00 0.0000000e+00 0.0000000e+00 
0.0000000e+00 0.0000000e+00 0.0000000e+00 
0.0000000e+00 0.0000000e+00 0.0000000e+00 
0.0000000e+00 0.0000000e+00 0.0000000e+00 
0.0000000e+00 0.0000000e+00 0.0000000e+00 
0.0000000e+00 0.0000000e+00 0.0000000e+00 
0.0000000e+00 0.0000000e+00 0.0000000e+00 
0.0000000e+00 0.0000000e+00 0.0000000e+00 
0.0000000e+00 0.0000000e+00 0.0000000e+00 
0.0000000e+00 0.0000000e+00 0.0000000e+00 
0.0000000e+00 0.0000000e+00 0.0000000e+00 
0.0000000e+00 0.0000000e+00 0.0000000e+00 
0.0000000e+00 0.0000000e+00 0.0000000e+00 
0.0000000e+00 0.0000000e+00 0.0000000e+00 
0.0000000e+00 0.0000000e+00 0.0000000e+00 
0.0000000e+00 0.0000000e+00 0.0000000e+00 
0.0000000e+00 0.0000000e+00 0.0000000e+00 
0.0000000e+00 0.0000000e+00 0.0000000e+00 
0.0000000e+00 0.0000000e+00 0.0000000e+00 
0.0000000e+00 0.0000000e+00 0.0000000e+00 
0.0000000e+00 0.0000000e+00 0.0000000e+00 
0.0000000e+00 0.0000000e+00 0.0000000e+00 
0.0000000e+00 0.0000000e+00 0.0000000e+00 
0.0000000e+00 0.0000000e+00 0.0000000e+00 
0.0000000e+00 0.0000000e+00 0.0000000e+00 
0.0000000e+00 0.0000000e+00 0.0000000e+00 
0.0000000e+00 0.0000000e+00 0.0000000e+00 
0.0000000e+00 0.0000000e+00 0.0000000e+00 
0.0000000e+00 0.0000000e+00 0.0000000e+00 
0.0000000e+00 0.0000000e+00 0.0000000e+00 
0.0000000e+00 0.0000000e+00 0.0000000e+00 
0.0000000e+00 0.0000000e+00 0.0000000e+00 
0.0000000e+00 0.0000000e+00 0.0000000e+00 
0.0000000e+00 0.0000000e+00 0.0000000e+00 
0.0000000e+00 0.0000000e+00 0.0000000e+00 
0.0000000e+00 0.0000000e+00 0.0000000e+00 
0.0000000e+00 0.0000000e+00 0.0000000e+00 
0.0000000e+00 0.0000000e+00 0.0000000e+00 
0.0000000e+00 0.0000000e+00 0.0000000e+00 
0.0000000e+00 0.0000000e+00 0.0000000e+00 
0.0000000e+00 0.0000000e+00 0.0000000e+00 
0.0000000e+00 0.0000000e+00 0.0000000e+00 
0.0000000e+00 0.0000000e+00 0.0000000e+00 
0.0000000e+00 0.0000000e+00 0.0000000e+00 
0.0000000e+00 0.0000000e+00 0.0000000e+00 
0.0000000e+00 0.0000000e+00 0.0000000e+00 
0.0000000e+00 0.0000000e+00 0.0000000e+00 
0.0000000e+00 0.0000000e+00 0.0000000e+00 
0.0000000e+00 0.0000000e+00 0.0000000e+00 
0.0000000e+00 0.0000000e+00 0.0000000e+00 
0.0000000e+00 0.0000000e+00 0.0000000e+00 
0.0000000e+00 0.0000000e+00 0.0000000e+00 
0.0000000e+00 0.0000000e+00 0.0000000e+00 
0.0000000e+00 0.0000000e+00 0.0000000e+00 
0.0000000e+00 0.0000000e+00 0.0000000e+00 
0.0000000e+00 0.0000000e+00 0.0000000e+00 
0.0000000e+00 0.0000000e+00 0.0000000e+00 
0.0000000e+00 0.0000000e+00 0.0000000e+00 
0.0000000e+00 0.0000000e+00 0.0000000e+00 
0.0000000e+00 0.0000000e+00 0.0000000e+00 
0.0000000e+00 0.0000000e+00 0.0000000e+00 
0.0000000e+00 0.0000000e+00 0.0000000e+00 
0.0000000e+00 0.0000000e+00 0.0000000e+00 
0.0000000e+00 0.0000000e+00 0.0000000e+00 
0.0000000e+00 0.0000000e+00 0.0000000e+00 
0.0000000e+00 0.0000000e+00 0.0000000e+00 
0.0000000e+00 0.0000000e+00 0.0000000e+00 
0.0000000e+00 0.0000000e+00 0.0000000e+00 
0.0000000e+00 0.0000000e+00 0.0000000e+00 
0.0000000e+00 0.0000000e+00 0.0000000e+00 
0.0000000e+00 0.0000000e+00 0.0000000e+00 
0.0000000e+00 0.0000000e+00 0.0000000e+00 
0.0000000e+00 0.0000000e+00 0.0000000e+00 
0.0000000e+00 0.0000000e+00 0.0000000e+00 
0.0000000e+00 0.0000000e+00 0.0000000e+00 
0.0000000e+00 0.0000000e+00 0.0000000e+00 
0.0000000e+00 0.0000000e+00 0.0000000e+00 
-3.4142786e-08 5.0142251e-07 1.1974028e-07 
5.2150205e-07 3.5498678e-07 3.7108296e-07 
1.1427122e-06 2.0314859e-07 8.0583794e-07 
1.5320805e-06 1.5519190e-07 9.5026013e-07 
1.6820222e-06 -7.4789611e-08 8.6747997e-07 
1.6349996e-06 -2.1394305e-07 5.9729228e-07 
1.5881967e-06 2.6246500e-08 5.8665741e-08 
1.3733847e-06 2.3976020e-07 -8.6808848e-07 
1.3063011e-06 2.7650430e-07 -1.1509838e-06 
1.4820959e-06 2.4415121e-07 -3.9179392e-07 
1.2421881e-06 1.3736454e-07 4.7553641e-07 
7.4385861e-07 -1.1373163e-07 4.2977001e-07 
1.1548275e-07 -6.4424415e-07 -4.7452647e-07 
-1.1883003e-08 2.9657531e-07 -1.8873391e-06 
7.4181855e-07 4.6000832e-07 -4.4659332e-06 
2.6035934e-06 -5.6519747e-07 -7.9594674e-06 
1.0042786e-05 -4.8355737e-06 -1.2522644e-05 
2.1028385e-05 -7.3134406e-06 -1.4965975e-05 
3.0095436e-05 -1.0330611e-05 -1.4729460e-05 
4.1434036e-05 -1.4744817e-05 -1.1118847e-05 
4.8155198e-05 -1.5148384e-05 -4.4737099e-06 
4.7938523e-05 -1.5317255e-05 5.7454913e-06 
4.2245101e-05 -1.4510718e-05 1.3076841e-05 
3.2859240e-05 -1.0494173e-05 1.6703949e-05 
2.2014405e-05 -5.9046324e-06 1.5214436e-05 
1.1817220e-05 -3.3370859e-06 1.1593977e-05 
4.9654973e-06 -2.0307705e-06 7.0036076e-06 
1.7317851e-06 -8.3044239e-07 2.3673010e-06 
8.1851573e-07 2.0228111e-07 3.0264849e-07 
-5.8272601e-08 5.2433086e-07 -2.6901355e-07 
-8.6801140e-07 5.4061331e-07 -1.0704491e-07 
-1.0984709e-06 5.8369676e-07 -9.7352135e-08 
-1.0340514e-06 7.2791596e-07 -5.2807616e-07 
-6.9504473e-08 8.3295294e-07 -1.6974376e-06 
1.2271283e-06 2.6101188e-07 -3.1557772e-06 
4.7859749e-06 -8.1651280e-07 -6.6437542e-06 
1.1141265e-05 -4.3626169e-06 -1.0960112e-05 
2.2160499e-05 -9.5089408e-06 -1.4156534e-05 
3.3541230e-05 -1.4157665e-05 -1.3468730e-05 
4.2748557e-05 -1.7449400e-05 -9.5025853e-06 
5.0111659e-05 -1.8074226e-05 -2.9204823e-06 
4.9350983e-05 -1.6519236e-05 6.7734259e-06 
4.1758161e-05 -1.3723956e-05 1.3113939e-05 
2.9725739e-05 -9.4307388e-06 1.6372096e-05 
1.5969334e-05 -4.8773168e-06 1.5120679e-05 
1.0854402e-05 -3.4949774e-06 1.1096644e-05 
4.4072262e-06 -1.1709253e-06 6.7530027e-06 
1.2793246e-06 -3.7083913e-07 2.8225984e-06 
-1.1758459e-07 2.8405026e-07 5.4796493e-07 
0.0000000e+00 -4.4840876e-06 0.0000000e+00 
0.0000000e+00 -7.6437082e-06 0.0000000e+00 
0.0000000e+00 -8.7231247e-06 0.0000000e+00 
0.0000000e+00 -8.9304312e-06 0.0000000e+00 
0.0000000e+00 -8.7600147e-06 0.0000000e+00 
0.0000000e+00 -9.7212405e-06 0.0000000e+00 
0.0000000e+00 -1.2152111e-05 0.0000000e+00 
0.0000000e+00 -1.3522018e-05 0.0000000e+00 
0.0000000e+00 -1.2623672e-05 0.0000000e+00 
0.0000000e+00 -1.0780605e-05 0.0000000e+00 
0.0000000e+00 -9.4281595e-06 0.0000000e+00 
0.0000000e+00 -5.4670904e-06 0.0000000e+00 
0.0000000e+00 -3.2895998e-06 0.0000000e+00 
0.0000000e+00 -2.6881492e-07 0.0000000e+00 
0.0000000e+00 2.7641856e-06 0.0000000e+00 
0.0000000e+00 4.1198086e-06 0.0000000e+00 
0.0000000e+00 -1.2841100e-05 0.0000000e+00 
0.0000000e+00 -7.9339516e-05 0.0000000e+00 
0.0000000e+00 -2.0115718e-04 0.0000000e+00 
0.0000000e+00 -4.2819115e-04 0.0000000e+00 
0.0000000e+00 -5.2864436e-04 0.0000000e+00 
0.0000000e+00 -5.4981932e-04 0.0000000e+00 
0.0000000e+00 -5.3505780e-04 0.0000000e+00 
0.0000000e+00 -3.5644544e-04 0.0000000e+00 
0.0000000e+00 -1.5007741e-04 0.0000000e+00 
0.0000000e+00 -2.7626840e-05 0.0000000e+00 
0.0000000e+00 1.6482883e-05 0.0000000e+00 
0.0000000e+00 1.5606747e-05 0.0000000e+00 
0.0000000e+00 1.1793021e-06 0.0000000e+00 
0.0000000e+00 -6.7513433e-06 0.0000000e+00 
0.0000000e+00 -9.1861411e-06 0.0000000e+00 
0.0000000e+00 -8.0263799e-06 0.0000000e+00 
0.0000000e+00 -5.5163096e-06 0.0000000e+00 
0.0000000e+00 -2.5757420e-06 0.0000000e+00 
0.0000000e+00 2.6293087e-06 0.0000000e+00 
0.0000000e+00 1.5363819e-06 0.0000000e+00 
0.0000000e+00 -2.1156720e-05 0.0000000e+00 
0.0000000e+00 -7.2175499e-05 0.0000000e+00 
0.0000000e+00 -2.5287818e-04 0.0000000e+00 
0.0000000e+00 -3.9030547e-04 0.0000000e+00 
0.0000000e+00 -5.2688591e-04 0.0000000e+00 
0.0000000e+00 -5.3777528e-04 0.0000000e+00 
0.0000000e+00 -4.6989883e-04 0.0000000e+00 
0.0000000e+00 -3.1108237e-04 0.0000000e+00 
0.0000000e+00 -1.3622332e-04 0.0000000e+00 
0.0000000e+00 -2.0079724e-05 0.0000000e+00 
0.0000000e+00 1.8033776e-05 0.0000000e+00 
0.0000000e+00 1.4213855e-05 0.0000000e+00 
0.0000000e+00 5.6100921e-06 0.0000000e+00 
-2.6234412e-07 -6.0719103e-08 2.7549453e-07 
-1.7786400e-07 -1.1466334e-07 9.8756902e-07 
6.3021247e-07 4.8503512e-07 2.2877325e-06 
1.4098362e-06 -4.9251315e-07 2.4141800e-06 
-1.1086231e-06 2.9504426e-07 -7.0090698e-07 
-1.1997817e-06 1.2073506e-06 -2.9211405e-06 
-4.0759480e-07 2.2523175e-06 -4.6751165e-06 
9.4899934e-07 7.1645184e-07 -4.3582063e-06 
-9.4233633e-07 -2.1261246e-07 8.9382536e-07 
-1.0433401e-06 9.1734329e-08 -6.4013017e-07 
9.7210602e-07 -2.3257535e-06 4.0531809e-06 
4.6883721e-07 -9.1539169e-07 2.4057770e-06 
0.0000000e+00 -7.6027554e-06 0.0000000e+00 
0.0000000e+00 -1.0594208e-05 0.0000000e+00 
0.0000000e+00 -1.3258428e-05 0.0000000e+00 
0.0000000e+00 -1.2681593e-05 0.0000000e+00 
0.0000000e+00 -1.2639131e-05 0.0000000e+00 
0.0000000e+00 -1.5384190e-05 0.0000000e+00 
0.0000000e+00 -2.0411124e-05 0.0000000e+00 
0.0000000e+00 -2.2729420e-05 0.0000000e+00 
0.0000000e+00 -2.1228390e-05 0.0000000e+00 
0.0000000e+00 -1.8841061e-05 0.0000000e+00 
0.0000000e+00 -1.4524814e-05 0.0000000e+00 
0.0000000e+00 -9.3276531e-06 0.0000000e+00 
0.0000000e+00 -4.3944410e-06 0.0000000e+00 
0.0000000e+00 9.3247735e-07 0.0000000e+00 