# vtk DataFile Version 4.0
vtk output
ASCII
DATASET UNSTRUCTURED_GRID
POINTS 1920 float
0.0000000e+00 0.0000000e+00 0.0000000e+00 
0.0000000e+00 0.0000000e+00 5.0000000e+01 
5.0000000e+00 0.0000000e+00 0.0000000e+00 
5.0000000e+00 0.0000000e+00 5.0000000e+01 
5.0000000e+00 1.0000000e+00 0.0000000e+00 
5.0000000e+00 1.0000000e+00 5.0000000e+01 
0.0000000e+00 1.0000000e+00 0.0000000e+00 
0.0000000e+00 1.0000000e+00 5.0000000e+01 
5.0000000e+00 2.0000000e+00 0.0000000e+00 
5.0000000e+00 2.0000000e+00 5.0000000e+01 
3.0000000e+00 2.0000000e+00 0.0000000e+00 
3.0000000e+00 2.0000000e+00 5.0000000e+01 
0.0000000e+00 2.0000000e+00 0.0000000e+00 
0.0000000e+00 2.0000000e+00 5.0000000e+01 
1.5000000e+00 3.0000000e+00 0.0000000e+00 
1.5000000e+00 3.0000000e+00 5.0000000e+01 
7.5000000e-01 3.0000000e+00 0.0000000e+00 
7.5000000e-01 3.0000000e+00 5.0000000e+01 
0.0000000e+00 3.0000000e+00 0.0000000e+00 
0.0000000e+00 3.0000000e+00 5.0000000e+01 
7.5000000e-01 3.0000000e+00 5.0000000e-01 
7.5000000e-01 3.0000000e+00 1.0000000e+00 
7.5000000e-01 3.0000000e+00 1.5000000e+00 
7.5000000e-01 3.0000000e+00 2.0000000e+00 
7.5000000e-01 3.0000000e+00 2.5000000e+00 
7.5000000e-01 3.0000000e+00 3.0000000e+00 
7.5000000e-01 3.0000000e+00 3.5000000e+00 
7.5000000e-01 3.0000000e+00 4.0000000e+00 
7.5000000e-01 3.0000000e+00 4.5000000e+00 
7.5000000e-01 3.0000000e+00 5.0000000e+00 
7.5000000e-01 3.0000000e+00 5.5000000e+00 
7.5000000e-01 3.0000000e+00 6.0000000e+00 
7.5000000e-01 3.0000000e+00 6.5000000e+00 
7.5000000e-01 3.0000000e+00 7.0000000e+00 
7.5000000e-01 3.0000000e+00 7.5000000e+00 
7.5000000e-01 3.0000000e+00 8.0000000e+00 
7.5000000e-01 3.0000000e+00 8.5000000e+00 
7.5000000e-01 3.0000000e+00 9.0000000e+00 
7.5000000e-01 3.0000000e+00 9.5000000e+00 
7.5000000e-01 3.0000000e+00 1.0000000e+01 
7.5000000e-01 3.0000000e+00 1.0500000e+01 
7.5000000e-01 3.0000000e+00 1.1000000e+01 
7.5000000e-01 3.0000000e+00 1.1500000e+01 
7.5000000e-01 3.0000000e+00 1.2000000e+01 
7.5000000e-01 3.0000000e+00 1.2500000e+01 
7.5000000e-01 3.0000000e+00 1.3000000e+01 
7.5000000e-01 3.0000000e+00 1.3500000e+01 
7.5000000e-01 3.0000000e+00 1.4000000e+01 
7.5000000e-01 3.0000000e+00 1.4500000e+01 
7.5000000e-01 3.0000000e+00 1.5000000e+01 
7.5000000e-01 3.0000000e+00 1.5500000e+01 
7.5000000e-01 3.0000000e+00 1.6000000e+01 
7.5000000e-01 3.0000000e+00 1.6500000e+01 
7.5000000e-01 3.0000000e+00 1.7000000e+01 
7.5000000e-01 3.0000000e+00 1.7500000e+01 
7.5000000e-01 3.0000000e+00 1.8000000e+01 
7.5000000e-01 3.0000000e+00 1.8500000e+01 
7.5000000e-01 3.0000000e+00 1.9000000e+01 
7.5000000e-01 3.0000000e+00 1.9500000e+01 
7.5000000e-01 3.0000000e+00 2.0000000e+01 
7.5000000e-01 3.0000000e+00 2.0500000e+01 
7.5000000e-01 3.0000000e+00 2.1000000e+01 
7.5000000e-01 3.0000000e+00 2.1500000e+01 
7.5000000e-01 3.0000000e+00 2.2000000e+01 
7.5000000e-01 3.0000000e+00 2.2500000e+01 
7.5000000e-01 3.0000000e+00 2.3000000e+01 
7.5000000e-01 3.0000000e+00 2.3500000e+01 
7.5000000e-01 3.0000000e+00 2.4000000e+01 
7.5000000e-01 3.0000000e+00 2.4500000e+01 
7.5000000e-01 3.0000000e+00 2.5000000e+01 
7.5000000e-01 3.0000000e+00 2.5500000e+01 
7.5000000e-01 3.0000000e+00 2.6000000e+01 
7.5000000e-01 3.0000000e+00 2.6500000e+01 
7.5000000e-01 3.0000000e+00 2.7000000e+01 
7.5000000e-01 3.0000000e+00 2.7500000e+01 
7.5000000e-01 3.0000000e+00 2.8000000e+01 
7.5000000e-01 3.0000000e+00 2.8500000e+01 
7.5000000e-01 3.0000000e+00 2.9000000e+01 
7.5000000e-01 3.0000000e+00 2.9500000e+01 
7.5000000e-01 3.0000000e+00 3.0000000e+01 
7.5000000e-01 3.0000000e+00 3.0500000e+01 
7.5000000e-01 3.0000000e+00 3.1000000e+01 
7.5000000e-01 3.0000000e+00 3.1500000e+01 
7.5000000e-01 3.0000000e+00 3.2000000e+01 
7.5000000e-01 3.0000000e+00 3.2500000e+01 
7.5000000e-01 3.0000000e+00 3.3000000e+01 
7.5000000e-01 3.0000000e+00 3.3500000e+01 
7.5000000e-01 3.0000000e+00 3.4000000e+01 
7.5000000e-01 3.0000000e+00 3.4500000e+01 
7.5000000e-01 3.0000000e+00 3.5000000e+01 
7.5000000e-01 3.0000000e+00 3.5500000e+01 
7.5000000e-01 3.0000000e+00 3.6000000e+01 
7.5000000e-01 3.0000000e+00 3.6500000e+01 
7.5000000e-01 3.0000000e+00 3.7000000e+01 
7.5000000e-01 3.0000000e+00 3.7500000e+01 
7.5000000e-01 3.0000000e+00 3.8000000e+01 
7.5000000e-01 3.0000000e+00 3.8500000e+01 
7.5000000e-01 3.0000000e+00 3.9000000e+01 
7.5000000e-01 3.0000000e+00 3.9500000e+01 
7.5000000e-01 3.0000000e+00 4.0000000e+01 
7.5000000e-01 3.0000000e+00 4.0500000e+01 
7.5000000e-01 3.0000000e+00 4.1000000e+01 
7.5000000e-01 3.0000000e+00 4.1500000e+01 
7.5000000e-01 3.0000000e+00 4.2000000e+01 
7.5000000e-01 3.0000000e+00 4.2500000e+01 
7.5000000e-01 3.0000000e+00 4.3000000e+01 
7.5000000e-01 3.0000000e+00 4.3500000e+01 
7.5000000e-01 3.0000000e+00 4.4000000e+01 
7.5000000e-01 3.0000000e+00 4.4500000e+01 
7.5000000e-01 3.0000000e+00 4.5000000e+01 
7.5000000e-01 3.0000000e+00 4.5500000e+01 
7.5000000e-01 3.0000000e+00 4.6000000e+01 
7.5000000e-01 3.0000000e+00 4.6500000e+01 
7.5000000e-01 3.0000000e+00 4.7000000e+01 
7.5000000e-01 3.0000000e+00 4.7500000e+01 
7.5000000e-01 3.0000000e+00 4.8000000e+01 
7.5000000e-01 3.0000000e+00 4.8500000e+01 
7.5000000e-01 3.0000000e+00 4.9000000e+01 
7.5000000e-01 3.0000000e+00 4.9500000e+01 
7.5000000e-01 3.0250001e+00 0.0000000e+00 
7.5000000e-01 3.0250001e+00 5.0000000e-01 
7.5000000e-01 3.0250001e+00 1.0000000e+00 
7.5000000e-01 3.0250001e+00 1.5000000e+00 
7.5000000e-01 3.0250001e+00 2.0000000e+00 
7.5000000e-01 3.0250001e+00 2.5000000e+00 
7.5000000e-01 3.0250001e+00 3.0000000e+00 
7.5000000e-01 3.0250001e+00 3.5000000e+00 
7.5000000e-01 3.0250001e+00 4.0000000e+00 
7.5000000e-01 3.0250001e+00 4.5000000e+00 
7.5000000e-01 3.0250001e+00 5.0000000e+00 
7.5000000e-01 3.0250001e+00 5.5000000e+00 
7.5000000e-01 3.0250001e+00 6.0000000e+00 
7.5000000e-01 3.0250001e+00 6.5000000e+00 
7.5000000e-01 3.0250001e+00 7.0000000e+00 
7.5000000e-01 3.0250001e+00 7.5000000e+00 
7.5000000e-01 3.0250001e+00 8.0000000e+00 
7.5000000e-01 3.0250001e+00 8.5000000e+00 
7.5000000e-01 3.0250001e+00 9.0000000e+00 
7.5000000e-01 3.0250001e+00 9.5000000e+00 
7.5000000e-01 3.0250001e+00 1.0000000e+01 
7.5000000e-01 3.0250001e+00 1.0500000e+01 
7.5000000e-01 3.0250001e+00 1.1000000e+01 
7.5000000e-01 3.0250001e+00 1.1500000e+01 
7.5000000e-01 3.0250001e+00 1.2000000e+01 
7.5000000e-01 3.0250001e+00 1.2500000e+01 
7.5000000e-01 3.0250001e+00 1.3000000e+01 
7.5000000e-01 3.0250001e+00 1.3500000e+01 
7.5000000e-01 3.0250001e+00 1.4000000e+01 
7.5000000e-01 3.0250001e+00 1.4500000e+01 
7.5000000e-01 3.0250001e+00 1.5000000e+01 
7.5000000e-01 3.0250001e+00 1.5500000e+01 
7.5000000e-01 3.0250001e+00 1.6000000e+01 
7.5000000e-01 3.0250001e+00 1.6500000e+01 
7.5000000e-01 3.0250001e+00 1.7000000e+01 
7.5000000e-01 3.0250001e+00 1.7500000e+01 
7.5000000e-01 3.0250001e+00 1.8000000e+01 
7.5000000e-01 3.0250001e+00 1.8500000e+01 
7.5000000e-01 3.0250001e+00 1.9000000e+01 
7.5000000e-01 3.0250001e+00 1.9500000e+01 
7.5000000e-01 3.0250001e+00 2.0000000e+01 
7.5000000e-01 3.0250001e+00 2.0500000e+01 
7.5000000e-01 3.0250001e+00 2.1000000e+01 
7.5000000e-01 3.0250001e+00 2.1500000e+01 
7.5000000e-01 3.0250001e+00 2.2000000e+01 
7.5000000e-01 3.0250001e+00 2.2500000e+01 
7.5000000e-01 3.0250001e+00 2.3000000e+01 
7.5000000e-01 3.0250001e+00 2.3500000e+01 
7.5000000e-01 3.0250001e+00 2.4000000e+01 
7.5000000e-01 3.0250001e+00 2.4500000e+01 
7.5000000e-01 3.0250001e+00 2.5000000e+01 
7.5000000e-01 3.0250001e+00 2.5500000e+01 
7.5000000e-01 3.0250001e+00 2.6000000e+01 
7.5000000e-01 3.0250001e+00 2.6500000e+01 
7.5000000e-01 3.0250001e+00 2.7000000e+01 
7.5000000e-01 3.0250001e+00 2.7500000e+01 
7.5000000e-01 3.0250001e+00 2.8000000e+01 
7.5000000e-01 3.0250001e+00 2.8500000e+01 
7.5000000e-01 3.0250001e+00 2.9000000e+01 
7.5000000e-01 3.0250001e+00 2.9500000e+01 
7.5000000e-01 3.0250001e+00 3.0000000e+01 
7.5000000e-01 3.0250001e+00 3.0500000e+01 
7.5000000e-01 3.0250001e+00 3.1000000e+01 
7.5000000e-01 3.0250001e+00 3.1500000e+01 
7.5000000e-01 3.0250001e+00 3.2000000e+01 
7.5000000e-01 3.0250001e+00 3.2500000e+01 
7.5000000e-01 3.0250001e+00 3.3000000e+01 
7.5000000e-01 3.0250001e+00 3.3500000e+01 
7.5000000e-01 3.0250001e+00 3.4000000e+01 
7.5000000e-01 3.0250001e+00 3.4500000e+01 
7.5000000e-01 3.0250001e+00 3.5000000e+01 
7.5000000e-01 3.0250001e+00 3.5500000e+01 
7.5000000e-01 3.0250001e+00 3.6000000e+01 
7.5000000e-01 3.0250001e+00 3.6500000e+01 
7.5000000e-01 3.0250001e+00 3.7000000e+01 
7.5000000e-01 3.0250001e+00 3.7500000e+01 
7.5000000e-01 3.0250001e+00 3.8000000e+01 
7.5000000e-01 3.0250001e+00 3.8500000e+01 
7.5000000e-01 3.0250001e+00 3.9000000e+01 
7.5000000e-01 3.0250001e+00 3.9500000e+01 
7.5000000e-01 3.0250001e+00 4.0000000e+01 
7.5000000e-01 3.0250001e+00 4.0500000e+01 
7.5000000e-01 3.0250001e+00 4.1000000e+01 
7.5000000e-01 3.0250001e+00 4.1500000e+01 
7.5000000e-01 3.0250001e+00 4.2000000e+01 
7.5000000e-01 3.0250001e+00 4.2500000e+01 
7.5000000e-01 3.0250001e+00 4.3000000e+01 
7.5000000e-01 3.0250001e+00 4.3500000e+01 
7.5000000e-01 3.0250001e+00 4.4000000e+01 
7.5000000e-01 3.0250001e+00 4.4500000e+01 
7.5000000e-01 3.0250001e+00 4.5000000e+01 
7.5000000e-01 3.0250001e+00 4.5500000e+01 
7.5000000e-01 3.0250001e+00 4.6000000e+01 
7.5000000e-01 3.0250001e+00 4.6500000e+01 
7.5000000e-01 3.0250001e+00 4.7000000e+01 
7.5000000e-01 3.0250001e+00 4.7500000e+01 
7.5000000e-01 3.0250001e+00 4.8000000e+01 
7.5000000e-01 3.0250001e+00 4.8500000e+01 
7.5000000e-01 3.0250001e+00 4.9000000e+01 
7.5000000e-01 3.0250001e+00 4.9500000e+01 
7.5000000e-01 3.0250001e+00 5.0000000e+01 
1.5000000e+00 3.0000000e+00 2.5000000e+01 
3.0000000e+00 2.0000000e+00 2.5000000e+01 
4.0000000e+00 2.0000000e+00 2.5000000e+01 
5.0000000e+00 2.0000000e+00 2.5000000e+01 
0.0000000e+00 3.0000000e+00 2.5000000e+01 
0.0000000e+00 0.0000000e+00 1.0000000e+00 
0.0000000e+00 0.0000000e+00 2.0000000e+00 
0.0000000e+00 0.0000000e+00 3.0000000e+00 
0.0000000e+00 0.0000000e+00 4.0000000e+00 
0.0000000e+00 0.0000000e+00 5.0000000e+00 
[...]
POINT_DATA 1920
FIELD FieldData 3
DISPLACEMENT 3 1920  float
0.0000000e+00 0.0000000e+00 0.0000000e+00 
0.0000000e+00 0.0000000e+00 0.0000000e+00 
0.0000000e+00 0.0000000e+00 0.0000000e+00 
0.0000000e+00 0.0000000e+00 0.0000000e+00 
-4.6432174e-06 5.4223760e-06 8.3834475e-06 
-7.5844797e-09 8.5869502e-08 -5.9192362e-09 
0.0000000e+00 -1.2209761e-05 0.0000000e+00 
0.0000000e+00 -2.5283060e-07 0.0000000e+00 
-1.7107959e-06 9.2523542e-06 5.5453115e-06 
-2.7830038e-07 3.2007941e-07 -3.0825845e-07 
1.2164122e-05 2.9034087e-05 -2.1768140e-06 
1.9035471e-07 2.1490228e-08 5.2218769e-07 
0.0000000e+00 -2.6608766e-05 0.0000000e+00 
0.0000000e+00 -3.9311109e-07 0.0000000e+00 
-1.4607298e-06 2.3974537e-05 -1.6144368e-05 
4.4418667e-07 -5.7726402e-07 7.5998719e-07 
-1.4349188e-05 6.1732702e-05 -2.3677312e-05 
8.0516234e-09 -1.4763853e-06 -2.8200432e-07 
0.0000000e+00 -5.8049118e-05 0.0000000e+00 
0.0000000e+00 -1.7284631e-08 0.0000000e+00 
-2.2602104e-05 6.5351742e-05 -1.5023231e-05 
-3.2344757e-05 7.4916083e-05 -5.8428490e-05 
-5.0677103e-05 8.6839689e-05 -1.0621396e-04 
-4.6942794e-05 9.8039898e-05 -1.3973383e-04 
-3.1616622e-05 1.0943051e-04 -1.6357101e-04 
-1.0634608e-05 1.2406564e-04 -1.2906891e-04 
-1.0107527e-05 1.4351378e-04 -1.1471492e-04 
-1.8300445e-05 1.6387328e-04 -1.0234913e-04 
-8.5084221e-06 1.7244316e-04 -8.2152401e-05 
-1.4778859e-05 1.4639689e-04 -3.7015205e-05 
-1.0301972e-05 5.1234660e-05 1.2537412e-05 
-9.8036298e-06 -1.5505360e-04 7.1817696e-05 
-3.5638190e-05 -5.2983302e-04 1.7585122e-04 
-8.5335902e-05 -1.1280207e-03 1.4178282e-04 
-1.4112117e-04 -1.9923684e-03 2.9171110e-04 
-2.2795096e-04 -3.0673395e-03 1.7902486e-04 
-2.9869814e-04 -4.1820477e-03 2.9935609e-04 
-2.9876546e-04 -4.8230686e-03 2.3224262e-04 
-3.3425004e-04 -4.6625598e-03 2.1922706e-04 
-3.3430851e-04 -4.3145181e-03 1.8164857e-04 
-3.4847794e-04 -4.2420821e-03 1.5871135e-04 
-3.9380477e-04 -4.3713222e-03 -1.4074883e-05 
-3.3458081e-04 -4.2297915e-03 -1.6586695e-04 
-2.5768878e-04 -3.2772855e-03 -1.5207937e-04 
-1.5183938e-04 -2.1008614e-03 -3.0798599e-04 
-8.4239437e-05 -1.0809212e-03 -1.5547436e-04 
-4.3492779e-05 -3.8344756e-04 -1.9004378e-04 
-2.0154110e-05 9.1650163e-06 -1.4348592e-04 
1.2997192e-05 1.7349742e-04 -1.6037951e-04 
3.1438747e-05 1.9692341e-04 -1.4191582e-04 
5.7388108e-05 1.5402285e-04 -8.0464961e-05 
5.2237952e-05 9.2473223e-05 -2.3593924e-05 
2.7990392e-05 3.8808488e-05 6.3152140e-05 
1.4040659e-05 3.3134281e-06 7.9490354e-05 
9.0146441e-06 -1.3015730e-05 8.7064844e-05 
-8.5126849e-06 -1.4316684e-05 7.0422611e-05 
-1.0840159e-05 -5.8223759e-06 4.1709267e-05 
-1.4163264e-05 6.8787976e-06 9.4112675e-06 
-2.0044441e-05 2.1014837e-05 -1.0923481e-05 
-1.4659740e-05 3.5648678e-05 -2.2246641e-05 
-2.6210599e-05 4.9234714e-05 -3.8391267e-05 
-4.2740885e-05 6.0491555e-05 -4.9507493e-05 
-5.2486605e-05 6.9746136e-05 -7.6054770e-05 
-1.8031564e-05 8.1636179e-05 -9.5900374e-05 
-2.2604088e-05 1.0073134e-04 -1.3972302e-04 
-2.8580909e-05 1.2787693e-04 -1.4188256e-04 
3.5049052e-05 1.5861662e-04 -1.2008110e-04 
6.6729076e-06 1.8403633e-04 -9.5982032e-05 
3.9558210e-05 1.8975357e-04 -4.8038419e-05 
-3.3477234e-05 1.5239145e-04 -2.9515675e-05 
3.7273352e-05 4.4065939e-05 2.1293048e-05 
-2.3479903e-05 -1.8570836e-04 6.5365937e-05 
-4.6277110e-05 -6.0174539e-04 1.8748232e-04 
-8.7346067e-05 -1.2571716e-03 1.7973009e-04 
-1.5976255e-04 -2.1870118e-03 3.2029839e-04 
-2.4135460e-04 -3.3053576e-03 1.5290493e-04 
-3.1252252e-04 -4.3955659e-03 2.7318700e-04 
-3.8948667e-04 -4.8809745e-03 2.0968582e-04 
-3.8541388e-04 -4.6475353e-03 1.4312399e-04 
-3.6130202e-04 -4.3320362e-03 1.5188196e-04 
-3.5729073e-04 -4.3220334e-03 1.0503003e-04 
-3.7986698e-04 -4.4311900e-03 -2.1384287e-05 
-3.2349533e-04 -4.1211620e-03 -1.9527336e-04 
-2.5162639e-04 -3.0570766e-03 -1.7343063e-04 
-1.4586154e-04 -1.8855599e-03 -3.0893361e-04 
-6.8146132e-05 -9.2381466e-04 -1.6196948e-04 
-3.1642805e-05 -2.9662059e-04 -1.9299414e-04 
-9.9284853e-06 4.0860767e-05 -1.3328623e-04 
2.3883087e-05 1.7075331e-04 -1.4996497e-04 
3.4372297e-05 1.8203550e-04 -1.2195042e-04 
5.3162243e-05 1.4454912e-04 -5.4198063e-05 
4.3015803e-05 9.6834112e-05 -8.3577806e-06 
9.3286499e-06 5.6000114e-05 5.0582275e-05 
-4.4190970e-06 2.7448335e-05 5.6973913e-05 
-1.4587421e-05 1.1055247e-05 4.8787966e-05 
-1.6425656e-05 3.8119622e-06 2.4602472e-05 
-1.0631616e-05 1.7805646e-06 1.2473805e-05 
-6.7623187e-06 1.4058080e-06 -6.3077687e-06 
9.4935984e-07 1.2185192e-06 -7.8976209e-06 
3.3667613e-06 4.3758934e-07 -1.1213681e-05 
2.3476596e-06 -1.8759542e-06 -3.9945176e-06 
8.3465505e-07 -4.8310217e-06 -1.0980211e-06 
9.2787855e-07 -7.2587045e-06 -1.0752011e-06 
6.1168329e-08 -7.2489488e-06 2.6695066e-06 
-3.8780877e-07 -3.8763674e-06 1.3533750e-06 
-5.0444197e-07 1.1541155e-06 2.5931698e-07 
-7.2938900e-07 5.4006550e-06 1.3965341e-06 
-1.2871665e-07 6.5737586e-06 -1.3505257e-06 
4.6909796e-07 4.0221253e-06 -6.5950172e-07 
5.2982415e-07 -1.9069728e-07 4.8782158e-07 
5.3180926e-08 -3.4212803e-06 -6.4390611e-07 
-2.4344692e-07 -4.0939608e-06 3.8112435e-07 
-1.5342489e-07 -2.1998283e-06 4.1698769e-07 
-1.5861693e-07 5.5005125e-07 -6.9289763e-07 
-2.9860053e-07 2.3631067e-06 6.2869577e-07 
2.5705964e-07 2.6111240e-06 -3.9693913e-07 
-2.0560149e-07 1.5884917e-06 -3.3539163e-08 
2.4985076e-07 1.1040397e-07 9.3468827e-08 
-1.8641964e-07 -1.0379011e-06 2.7289403e-07 
0.0000000e+00 6.1845756e-05 0.0000000e+00 
0.0000000e+00 6.5502441e-05 0.0000000e+00 
0.0000000e+00 7.4935037e-05 0.0000000e+00 
0.0000000e+00 8.6647451e-05 0.0000000e+00 
0.0000000e+00 9.7913835e-05 0.0000000e+00 
0.0000000e+00 1.0944725e-04 0.0000000e+00 
0.0000000e+00 1.2426243e-04 0.0000000e+00 
0.0000000e+00 1.4388023e-04 0.0000000e+00 
0.0000000e+00 1.6434945e-04 0.0000000e+00 
0.0000000e+00 1.7296143e-04 0.0000000e+00 
0.0000000e+00 1.4673840e-04 0.0000000e+00 
0.0000000e+00 5.1952800e-05 0.0000000e+00 
0.0000000e+00 -1.5515019e-04 0.0000000e+00 
0.0000000e+00 -5.3067342e-04 0.0000000e+00 
0.0000000e+00 -1.1330036e-03 0.0000000e+00 
0.0000000e+00 -1.9988997e-03 0.0000000e+00 
0.0000000e+00 -3.0853418e-03 0.0000000e+00 
0.0000000e+00 -4.2003156e-03 0.0000000e+00 
0.0000000e+00 -4.8539825e-03 0.0000000e+00 
0.0000000e+00 -4.6863966e-03 0.0000000e+00 
0.0000000e+00 -4.3418962e-03 0.0000000e+00 
0.0000000e+00 -4.2634532e-03 0.0000000e+00 
0.0000000e+00 -4.4011385e-03 0.0000000e+00 
0.0000000e+00 -4.2514680e-03 0.0000000e+00 
0.0000000e+00 -3.3024510e-03 0.0000000e+00 
0.0000000e+00 -2.1119770e-03 0.0000000e+00 
0.0000000e+00 -1.0895316e-03 0.0000000e+00 
0.0000000e+00 -3.8611182e-04 0.0000000e+00 
0.0000000e+00 9.1275697e-06 0.0000000e+00 
0.0000000e+00 1.7445409e-04 0.0000000e+00 
0.0000000e+00 1.9843435e-04 0.0000000e+00 
0.0000000e+00 1.5511531e-04 0.0000000e+00 
0.0000000e+00 9.3201284e-05 0.0000000e+00 
0.0000000e+00 3.9190276e-05 0.0000000e+00 
0.0000000e+00 3.5101641e-06 0.0000000e+00 
0.0000000e+00 -1.2974335e-05 0.0000000e+00 
0.0000000e+00 -1.4274694e-05 0.0000000e+00 
0.0000000e+00 -5.9365748e-06 0.0000000e+00 
0.0000000e+00 6.8055792e-06 0.0000000e+00 
0.0000000e+00 2.1072850e-05 0.0000000e+00 
0.0000000e+00 3.5661207e-05 0.0000000e+00 
0.0000000e+00 4.9185568e-05 0.0000000e+00 
0.0000000e+00 6.0316539e-05 0.0000000e+00 
0.0000000e+00 6.9742608e-05 0.0000000e+00 
0.0000000e+00 8.1775186e-05 0.0000000e+00 
0.0000000e+00 1.0094806e-04 0.0000000e+00 
0.0000000e+00 1.2804908e-04 0.0000000e+00 
0.0000000e+00 1.5884257e-04 0.0000000e+00 
0.0000000e+00 1.8440820e-04 0.0000000e+00 
0.0000000e+00 1.8993377e-04 0.0000000e+00 
0.0000000e+00 1.5355696e-04 0.0000000e+00 
0.0000000e+00 4.4782231e-05 0.0000000e+00 
0.0000000e+00 -1.8629586e-04 0.0000000e+00 
0.0000000e+00 -6.0290738e-04 0.0000000e+00 
0.0000000e+00 -1.2632848e-03 0.0000000e+00 
0.0000000e+00 -2.1944260e-03 0.0000000e+00 
0.0000000e+00 -3.3248276e-03 0.0000000e+00 
0.0000000e+00 -4.4149901e-03 0.0000000e+00 
0.0000000e+00 -4.9137003e-03 0.0000000e+00 
0.0000000e+00 -4.6687033e-03 0.0000000e+00 
0.0000000e+00 -4.3610046e-03 0.0000000e+00 
0.0000000e+00 -4.3417476e-03 0.0000000e+00 
0.0000000e+00 -4.4622002e-03 0.0000000e+00 
0.0000000e+00 -4.1426918e-03 0.0000000e+00 
0.0000000e+00 -3.0806162e-03 0.0000000e+00 
0.0000000e+00 -1.8954382e-03 0.0000000e+00 
0.0000000e+00 -9.3167159e-04 0.0000000e+00 
0.0000000e+00 -2.9819977e-04 0.0000000e+00 
0.0000000e+00 4.1010986e-05 0.0000000e+00 
0.0000000e+00 1.7196065e-04 0.0000000e+00 
0.0000000e+00 1.8372998e-04 0.0000000e+00 
0.0000000e+00 1.4562729e-04 0.0000000e+00 
0.0000000e+00 9.7341035e-05 0.0000000e+00 
0.0000000e+00 5.6224137e-05 0.0000000e+00 
0.0000000e+00 2.7593222e-05 0.0000000e+00 
0.0000000e+00 1.1112407e-05 0.0000000e+00 
0.0000000e+00 3.7999735e-06 0.0000000e+00 
0.0000000e+00 1.6784888e-06 0.0000000e+00 
0.0000000e+00 1.3620610e-06 0.0000000e+00 
0.0000000e+00 1.2192476e-06 0.0000000e+00 
0.0000000e+00 3.4757619e-07 0.0000000e+00 
0.0000000e+00 -1.8774747e-06 0.0000000e+00 
0.0000000e+00 -4.8400248e-06 0.0000000e+00 
0.0000000e+00 -7.2006169e-06 0.0000000e+00 
0.0000000e+00 -7.1272125e-06 0.0000000e+00 
0.0000000e+00 -3.8706794e-06 0.0000000e+00 
0.0000000e+00 1.1096358e-06 0.0000000e+00 
0.0000000e+00 5.3114795e-06 0.0000000e+00 
0.0000000e+00 6.4562705e-06 0.0000000e+00 
0.0000000e+00 4.0307041e-06 0.0000000e+00 
0.0000000e+00 -9.9843810e-08 0.0000000e+00 
0.0000000e+00 -3.3433923e-06 0.0000000e+00 
0.0000000e+00 -4.0398468e-06 0.0000000e+00 
0.0000000e+00 -2.2317843e-06 0.0000000e+00 
0.0000000e+00 4.6954381e-07 0.0000000e+00 
0.0000000e+00 2.3301225e-06 0.0000000e+00 
0.0000000e+00 2.6215100e-06 0.0000000e+00 
0.0000000e+00 1.6195927e-06 0.0000000e+00 
0.0000000e+00 1.3837619e-07 0.0000000e+00 
0.0000000e+00 -1.0436332e-06 0.0000000e+00 
0.0000000e+00 -1.4894122e-06 0.0000000e+00 
6.0400334e-06 -8.8738867e-05 2.2121278e-05 
4.0069608e-05 -9.1749236e-05 -7.1048635e-06 
8.3854575e-05 -3.7665188e-05 -1.8385503e-05 
7.5870892e-05 -1.2267357e-05 -1.9845063e-05 
0.0000000e+00 4.0661270e-04 0.0000000e+00 
0.0000000e+00 0.0000000e+00 0.0000000e+00 
0.0000000e+00 0.0000000e+00 0.0000000e+00 
0.0000000e+00 0.0000000e+00 0.0000000e+00 
0.0000000e+00 0.0000000e+00 0.0000000e+00 
0.0000000e+00 0.0000000e+00 0.0000000e+00 
0.0000000e+00 0.0000000e+00 0.0000000e+00 
0.0000000e+00 0.0000000e+00 0.0000000e+00 
0.0000000e+00 0.0000000e+00 0.0000000e+00 
0.0000000e+00 0.0000000e+00 0.0000000e+00 
0.0000000e+00 0.0000000e+00 0.0000000e+00 
0.0000000e+00 0.0000000e+00 0.0000000e+00 
0.0000000e+00 0.0000000e+00 0.0000000e+00 
0.0000000e+00 0.0000000e+00 0.0000000e+00 
0.0000000e+00 0.0000000e+00 0.0000000e+00 
0.0000000e+00 0.0000000e+00 0.0000000e+00 
0.0000000e+00 0.0000000e+00 0.0000000e+00 
0.0000000e+00 0.0000000e+00 0.0000000e+00 
0.0000000e+00 0.0000000e+00 0.0000000e+00 
0.0000000e+00 0.0000000e+00 0.0000000e+00 
0.0000000e+00 0.0000000e+00 0.0000000e+00 
0.0000000e+00 0.0000000e+00 0.0000000e+00 
0.0000000e+00 0.0000000e+00 0.0000000e+00 
0.0000000e+00 0.0000000e+00 0.0000000e+00 
0.0000000e+00 0.0000000e+00 0.0000000e+00 
0.0000000e+00 0.0000000e+00 0.0000000e+00 
0.0000000e+00 0.0000000e+00 0.0000000e+00 
0.0000000e+00 0.0000000e+00 0.0000000e+00 
0.0000000e+00 0.0000000e+00 0.0000000e+00 
0.0000000e+00 0.0000000e+00 0.0000000e+00 
0.0000000e+00 0.0000000e+00 0.0000000e+00 
0.0000000e+00 0.0000000e+00 0.0000000e+00 
0.0000000e+00 0.0000000e+00 0.0000000e+00 
0.0000000e+00 0.0000000e+00 0.0000000e+00 
0.0000000e+00 0.0000000e+00 0.0000000e+00 
0.0000000e+00 0.0000000e+00 0.0000000e+00 
0.0000000e+00 0.0000000e+00 0.0000000e+00 
0.0000000e+00 0.0000000e+00 0.0000000e+00 
0.0000000e+00 0.0000000e+00 0.0000000e+00 
0.0000000e+00 0.0000000e+00 0.0000000e+00 
0.0000000e+00 0.0000000e+00 0.0000000e+00 
0.0000000e+00 0.0000000e+00 0.0000000e+00 
0.0000000e+00 0.0000000e+00 0.0000000e+00 
0.0000000e+00 0.0000000e+00 0.0000000e+00 
0.0000000e+00 0.0000000e+00 0.0000000e+00 
0.0000000e+00 0.0000000e+00 0.0000000e+00 
0.0000000e+00 0.0000000e+00 0.0000000e+00 
0.0000000e+00 0.0000000e+00 0.0000000e+00 
0.0000000e+00 0.0000000e+00 0.0000000e+00 
0.0000000e+00 0.0000000e+00 0.0000000e+00 
0.0000000e+00 0.0000000e+00 0.0000000e+00 
0.0000000e+00 0.0000000e+00 0.0000000e+00 
0.0000000e+00 0.0000000e+00 0.0000000e+00 
0.0000000e+00 0.0000000e+00 0.0000000e+00 
0.0000000e+00 0.0000000e+00 0.0000000e+00 
0.0000000e+00 0.0000000e+00 0.0000000e+00 
0.0000000e+00 0.0000000e+00 0.0000000e+00 
0.0000000e+00 0.0000000e+00 0.0000000e+00 
0.0000000e+00 0.0000000e+00 0.0000000e+00 
0.0000000e+00 0.0000000e+00 0.0000000e+00 
0.0000000e+00 0.0000000e+00 0.0000000e+00 
0.0000000e+00 0.0000000e+00 0.0000000e+00 
0.0000000e+00 0.0000000e+00 0.0000000e+00 
0.0000000e+00 0.0000000e+00 0.0000000e+00 
0.0000000e+00 0.0000000e+00 0.0000000e+00 
0.0000000e+00 0.0000000e+00 0.0000000e+00 
0.0000000e+00 0.0000000e+00 0.0000000e+00 
0.0000000e+00 0.0000000e+00 0.0000000e+00 
0.0000000e+00 0.0000000e+00 0.0000000e+00 
0.0000000e+00 0.0000000e+00 0.0000000e+00 
0.0000000e+00 0.0000000e+00 0.0000000e+00 
0.0000000e+00 0.0000000e+00 0.0000000e+00 
0.0000000e+00 0.0000000e+00 0.0000000e+00 
0.0000000e+00 0.0000000e+00 0.0000000e+00 
0.0000000e+00 0.0000000e+00 0.0000000e+00 
0.0000000e+00 0.0000000e+00 0.0000000e+00 
0.0000000e+00 0.0000000e+00 0.0000000e+00 
0.0000000e+00 0.0000000e+00 0.0000000e+00 
0.0000000e+00 0.0000000e+00 0.0000000e+00 
0.0000000e+00 0.0000000e+00 0.0000000e+00 
0.0000000e+00 0.0000000e+00 0.0000000e+00 
0.0000000e+00 0.0000000e+00 0.0000000e+00 
0.0000000e+00 0.0000000e+00 0.0000000e+00 
0.0000000e+00 0.0000000e+00 0.0000000e+00 
0.0000000e+00 0.0000000e+00 0.0000000e+00 
0.0000000e+00 0.0000000e+00 0.0000000e+00 
0.0000000e+00 0.0000000e+00 0.0000000e+00 
0.0000000e+00 0.0000000e+00 0.0000000e+00 
0.0000000e+00 0.0000000e+00 0.0000000e+00 
0.0000000e+00 0.0000000e+00 0.0000000e+00 
0.0000000e+00 0.0000000e+00 0.0000000e+00 
0.0000000e+00 0.0000000e+00 0.0000000e+00 
0.0000000e+00 0.0000000e+00 0.0000000e+00 
0.0000000e+00 0.0000000e+00 0.0000000e+00 
0.0000000e+00 0.0000000e+00 0.0000000e+00 
0.0000000e+00 0.0000000e+00 0.0000000e+00 
0.0000000e+00 0.0000000e+00 0.0000000e+00 
0.0000000e+00 0.0000000e+00 0.0000000e+00 
0.0000000e+00 0.0000000e+00 0.0000000e+00 
0.0000000e+00 0.0000000e+00 0.0000000e+00 
0.0000000e+00 0.0000000e+00 0.0000000e+00 
0.0000000e+00 0.0000000e+00 0.0000000e+00 
0.0000000e+00 0.0000000e+00 0.0000000e+00 
0.0000000e+00 0.0000000e+00 0.0000000e+00 
0.0000000e+00 0.0000000e+00 0.0000000e+00 
0.0000000e+00 0.0000000e+00 0.0000000e+00 
0.0000000e+00 0.0000000e+00 0.0000000e+00 
5.9604195e-06 7.2750590e-06 -1.2771189e-06 
1.4269059e-05 6.7332235e-06 -1.3369134e-05 
1.9413628e-05 5.2919622e-06 -2.2371658e-05 
2.6213740e-05 -7.9515639e-06 -2.6137614e-05 
3.4148765e-05 -1.7896129e-05 -2.0116222e-05 
4.4048174e-05 -2.0901150e-05 -1.4124829e-05 
5.5428940e-05 -2.2251701e-05 -5.0152280e-06 
6.2900013e-05 -2.1943049e-05 5.9296508e-06 
6.7872570e-05 -8.2188235e-06 1.8778139e-05 
6.6178218e-05 8.1759472e-06 2.2478696e-05 
5.3027576e-05 3.1219636e-06 1.3777422e-05 
3.4890250e-05 -4.4909921e-06 2.1138728e-06 
1.3784542e-05 -3.6435406e-06 -1.6357708e-05 
1.8647946e-06 6.6888236e-07 -2.3934244e-05 
-9.1097736e-06 -1.9781294e-06 -1.7218548e-05 
-1.0615949e-05 6.0562638e-07 -7.4837556e-07 
-8.3708519e-06 1.0616591e-06 1.9747278e-05 
-4.2889351e-06 4.3793357e-06 2.7605529e-05 
-1.3797171e-06 5.4482180e-06 2.5491778e-05 
3.1084999e-06 -5.4144544e-07 1.4534619e-05 
6.5697195e-06 2.2350123e-06 -1.2989780e-06 
1.0328536e-05 7.7505274e-06 -1.4306833e-05 
2.1203643e-05 3.4888446e-06 -2.3653951e-05 
4.0438143e-05 -3.7045936e-06 -2.4822981e-05 
5.3095417e-05 -1.4553832e-05 -1.8070188e-05 
5.8492427e-05 -1.5744568e-05 -9.5122123e-06 
6.1247360e-05 -1.5751508e-05 1.6074955e-06 
6.4237589e-05 -1.9226696e-05 1.2516851e-05 
6.6727000e-05 -1.2635662e-05 1.7456736e-05 
6.2934741e-05 1.9431131e-06 2.1355072e-05 
4.8519207e-05 9.0782050e-06 1.3208541e-05 
2.6902977e-05 -6.5467652e-06 2.1449798e-06 
8.9274572e-06 -3.3579145e-06 -1.1766871e-05 
-4.1293129e-06 -2.0091168e-06 -2.2180662e-05 
-8.3140967e-06 -1.0638704e-06 -1.9446139e-05 
-8.5715501e-06 1.7146926e-06 -6.9425564e-06 
-9.8095325e-07 5.1750362e-06 1.5297885e-06 
2.3830007e-06 5.9828596e-07 8.1651715e-06 
2.2863287e-06 -1.6275220e-06 9.2234104e-06 
7.6569700e-07 -2.4451626e-06 4.1533453e-06 
-1.6248781e-07 -2.0940820e-06 -9.8804844e-07 
7.7361699e-07 -2.2382379e-07 -1.0897550e-06 
-4.8516478e-07 1.8193688e-06 2.3093725e-07 
-5.3425248e-07 4.2790785e-07 3.4430238e-07 
2.9345952e-07 -1.0085754e-06 4.5675753e-07 
1.7734541e-07 -3.5037067e-07 3.4969268e-08 
-3.4713408e-09 1.8141627e-07 -4.4213436e-07 
-1.3063780e-07 3.0798060e-07 -1.6763794e-07 
9.5976965e-08 -4.0133878e-07 1.5428539e-07 
0.0000000e+00 2.2430495e-05 0.0000000e+00 
0.0000000e+00 9.9160192e-05 0.0000000e+00 
0.0000000e+00 1.6522186e-04 0.0000000e+00 
0.0000000e+00 2.0246681e-04 0.0000000e+00 
0.0000000e+00 2.1039364e-04 0.0000000e+00 
0.0000000e+00 1.6541099e-04 0.0000000e+00 
0.0000000e+00 1.6728920e-05 0.0000000e+00 
0.0000000e+00 -1.6268178e-04 0.0000000e+00 
0.0000000e+00 -3.0816442e-04 0.0000000e+00 
0.0000000e+00 -3.9956704e-04 0.0000000e+00 
0.0000000e+00 -4.0118577e-04 0.0000000e+00 
0.0000000e+00 -3.2610449e-04 0.0000000e+00 
0.0000000e+00 -1.6539441e-04 0.0000000e+00 
0.0000000e+00 -5.5002849e-05 0.0000000e+00 
0.0000000e+00 -1.7515708e-06 0.0000000e+00 
0.0000000e+00 4.5891564e-05 0.0000000e+00 
0.0000000e+00 3.8067250e-05 0.0000000e+00 
0.0000000e+00 -1.9873431e-05 0.0000000e+00 
0.0000000e+00 -3.4351866e-05 0.0000000e+00 
0.0000000e+00 -1.0721735e-05 0.0000000e+00 
0.0000000e+00 4.3590175e-05 0.0000000e+00 
0.0000000e+00 9.5489486e-05 0.0000000e+00 
0.0000000e+00 1.3993630e-04 0.0000000e+00 
0.0000000e+00 1.8374338e-04 0.0000000e+00 
0.0000000e+00 1.8238126e-04 0.0000000e+00 
0.0000000e+00 1.4788471e-04 0.0000000e+00 
0.0000000e+00 8.1342769e-06 0.0000000e+00 
0.0000000e+00 -1.5043620e-04 0.0000000e+00 
0.0000000e+00 -2.6120755e-04 0.0000000e+00 
0.0000000e+00 -3.4403766e-04 0.0000000e+00 
0.0000000e+00 -4.0610245e-04 0.0000000e+00 
0.0000000e+00 -3.4473091e-04 0.0000000e+00 
0.0000000e+00 -1.7305532e-04 0.0000000e+00 
0.0000000e+00 -4.3076892e-05 0.0000000e+00 
0.0000000e+00 5.9746242e-07 0.0000000e+00 
0.0000000e+00 3.8343365e-05 0.0000000e+00 
0.0000000e+00 2.2924423e-05 0.0000000e+00 
0.0000000e+00 6.2986197e-07 0.0000000e+00 
0.0000000e+00 -1.0221278e-05 0.0000000e+00 
0.0000000e+00 -7.0709020e-06 0.0000000e+00 
0.0000000e+00 4.8538045e-06 0.0000000e+00 
0.0000000e+00 2.2279301e-06 0.0000000e+00 
0.0000000e+00 -9.7227769e-07 0.0000000e+00 
0.0000000e+00 -4.0921674e-07 0.0000000e+00 
0.0000000e+00 6.8198403e-07 0.0000000e+00 
0.0000000e+00 -5.8880879e-08 0.0000000e+00 
0.0000000e+00 -4.4787035e-07 0.0000000e+00 
0.0000000e+00 9.2401064e-07 0.0000000e+00 
0.0000000e+00 5.3562701e-07 0.0000000e+00 
1.2986673e-07 9.8581177e-06 9.3577188e-07 
6.3811849e-06 1.4805685e-05 3.9065021e-06 
1.0316397e-05 1.2655456e-05 1.1150987e-05 
5.1485545e-06 6.0235590e-07 7.7921395e-06 
9.8464525e-08 -1.9381136e-07 6.7659023e-08 
-2.3149232e-08 2.1522985e-07 1.4569413e-07 
-7.4699081e-08 2.5542690e-07 -1.7344090e-07 
1.0036791e-07 3.5489087e-09 -5.1561209e-08 
9.1965467e-06 1.8107768e-05 -6.5115842e-06 
1.6632698e-07 3.9840799e-08 1.0037565e-08 
-3.6834754e-07 1.2892210e-05 -5.5629175e-06 
7.0349270e-06 1.9719799e-05 8.2727226e-08 
0.0000000e+00 3.3415548e-05 0.0000000e+00 
0.0000000e+00 1.4290531e-04 0.0000000e+00 
0.0000000e+00 2.6847387e-04 0.0000000e+00 
0.0000000e+00 3.4768082e-04 0.0000000e+00 
0.0000000e+00 3.7331297e-04 0.0000000e+00 
0.0000000e+00 2.5973812e-04 0.0000000e+00 
0.0000000e+00 -3.2179418e-05 0.0000000e+00 
0.0000000e+00 -4.3274387e-04 0.0000000e+00 
0.0000000e+00 -7.4720598e-04 0.0000000e+00 
0.0000000e+00 -8.7484811e-04 0.0000000e+00 
0.0000000e+00 -9.2488196e-04 0.0000000e+00 
0.0000000e+00 -6.9213676e-04 0.0000000e+00 
0.0000000e+00 -3.0805537e-04 0.0000000e+00 
0.0000000e+00 -9.0138477e-05 0.0000000e+00 