# vtk DataFile Version 4.0
vtk output
ASCII
DATASET UNSTRUCTURED_GRID
POINTS 1920 float
0.0000000e+00 0.0000000e+00 0.0000000e+00 
0.0000000e+00 0.0000000e+00 5.0000000e+01 
5.0000000e+00 0.0000000e+00 0.0000000e+00 
5.0000000e+00 0.0000000e+00 5.0000000e+01 
5.0000000e+00 1.0000000e+00 0.0000000e+00 
5.0000000e+00 1.0000000e+00 5.0000000e+01 
0.0000000e+00 1.0000000e+00 0.0000000e+00 
0.0000000e+00 1.0000000e+00 5.0000000e+01 
5.0000000e+00 2.0000000e+00 0.0000000e+00 
5.0000000e+00 2.0000000e+00 5.0000000e+01 
3.0000000e+00 2.0000000e+00 0.0000000e+00 
3.0000000e+00 2.0000000e+00 5.0000000e+01 
0.0000000e+00 2.0000000e+00 0.0000000e+00 
0.0000000e+00 2.0000000e+00 5.0000000e+01 
1.5000000e+00 3.0000000e+00 0.0000000e+00 
1.5000000e+00 3.0000000e+00 5.0000000e+01 
7.5000000e-01 3.0000000e+00 0.0000000e+00 
7.5000000e-01 3.0000000e+00 5.0000000e+01 
0.0000000e+00 3.0000000e+00 0.0000000e+00 
0.0000000e+00 3.0000000e+00 5.0000000e+01 
7.5000000e-01 3.0000000e+00 5.0000000e-01 
7.5000000e-01 3.0000000e+00 1.0000000e+00 
7.5000000e-01 3.0000000e+00 1.5000000e+00 
7.5000000e-01 3.0000000e+00 2.0000000e+00 
7.5000000e-01 3.0000000e+00 2.5000000e+00 
7.5000000e-01 3.0000000e+00 3.0000000e+00 
7.5000000e-01 3.0000000e+00 3.5000000e+00 
7.5000000e-01 3.0000000e+00 4.0000000e+00 
7.5000000e-01 3.0000000e+00 4.5000000e+00 
7.5000000e-01 3.0000000e+00 5.0000000e+00 
7.5000000e-01 3.0000000e+00 5.5000000e+00 
7.5000000e-01 3.0000000e+00 6.0000000e+00 
7.5000000e-01 3.0000000e+00 6.5000000e+00 
7.5000000e-01 3.0000000e+00 7.0000000e+00 
7.5000000e-01 3.0000000e+00 7.5000000e+00 
7.5000000e-01 3.0000000e+00 8.0000000e+00 
7.5000000e-01 3.0000000e+00 8.5000000e+00 
7.5000000e-01 3.0000000e+00 9.0000000e+00 
7.5000000e-01 3.0000000e+00 9.5000000e+00 
7.5000000e-01 3.0000000e+00 1.0000000e+01 
7.5000000e-01 3.0000000e+00 1.0500000e+01 
7.5000000e-01 3.0000000e+00 1.1000000e+01 
7.5000000e-01 3.0000000e+00 1.1500000e+01 
7.5000000e-01 3.0000000e+00 1.2000000e+01 
7.5000000e-01 3.0000000e+00 1.2500000e+01 
7.5000000e-01 3.0000000e+00 1.3000000e+01 
7.5000000e-01 3.0000000e+00 1.3500000e+01 
7.5000000e-01 3.0000000e+00 1.4000000e+01 
7.5000000e-01 3.0000000e+00 1.4500000e+01 
7.5000000e-01 3.0000000e+00 1.5000000e+01 
7.5000000e-01 3.0000000e+00 1.5500000e+01 
7.5000000e-01 3.0000000e+00 1.6000000e+01 
7.5000000e-01 3.0000000e+00 1.6500000e+01 
7.5000000e-01 3.0000000e+00 1.7000000e+01 
7.5000000e-01 3.0000000e+00 1.7500000e+01 
7.5000000e-01 3.0000000e+00 1.8000000e+01 
7.5000000e-01 3.0000000e+00 1.8500000e+01 
7.5000000e-01 3.0000000e+00 1.9000000e+01 
7.5000000e-01 3.0000000e+00 1.9500000e+01 
7.5000000e-01 3.0000000e+00 2.0000000e+01 
7.5000000e-01 3.0000000e+00 2.0500000e+01 
7.5000000e-01 3.0000000e+00 2.1000000e+01 
7.5000000e-01 3.0000000e+00 2.1500000e+01 
7.5000000e-01 3.0000000e+00 2.2000000e+01 
7.5000000e-01 3.0000000e+00 2.2500000e+01 
7.5000000e-01 3.0000000e+00 2.3000000e+01 
7.5000000e-01 3.0000000e+00 2.3500000e+01 
7.5000000e-01 3.0000000e+00 2.4000000e+01 
7.5000000e-01 3.0000000e+00 2.4500000e+01 
7.5000000e-01 3.0000000e+00 2.5000000e+01 
7.5000000e-01 3.0000000e+00 2.5500000e+01 
7.5000000e-01 3.0000000e+00 2.6000000e+01 
7.5000000e-01 3.0000000e+00 2.6500000e+01 
7.5000000e-01 3.0000000e+00 2.7000000e+01 
7.5000000e-01 3.0000000e+00 2.7500000e+01 
7.5000000e-01 3.0000000e+00 2.8000000e+01 
7.5000000e-01 3.0000000e+00 2.8500000e+01 
7.5000000e-01 3.0000000e+00 2.9000000e+01 
7.5000000e-01 3.0000000e+00 2.9500000e+01 
7.5000000e-01 3.0000000e+00 3.0000000e+01 
7.5000000e-01 3.0000000e+00 3.0500000e+01 
7.5000000e-01 3.0000000e+00 3.1000000e+01 
7.5000000e-01 3.0000000e+00 3.1500000e+01 
7.5000000e-01 3.0000000e+00 3.2000000e+01 
7.5000000e-01 3.0000000e+00 3.2500000e+01 
7.5000000e-01 3.0000000e+00 3.3000000e+01 
7.5000000e-01 3.0000000e+00 3.3500000e+01 
7.5000000e-01 3.0000000e+00 3.4000000e+01 
7.5000000e-01 3.0000000e+00 3.4500000e+01 
7.5000000e-01 3.0000000e+00 3.5000000e+01 
7.5000000e-01 3.0000000e+00 3.5500000e+01 
7.5000000e-01 3.0000000e+00 3.6000000e+01 
7.5000000e-01 3.0000000e+00 3.6500000e+01 
7.5000000e-01 3.0000000e+00 3.7000000e+01 
7.5000000e-01 3.0000000e+00 3.7500000e+01 
7.5000000e-01 3.0000000e+00 3.8000000e+01 
7.5000000e-01 3.0000000e+00 3.8500000e+01 
7.5000000e-01 3.0000000e+00 3.9000000e+01 
7.5000000e-01 3.0000000e+00 3.9500000e+01 
7.5000000e-01 3.0000000e+00 4.0000000e+01 
7.5000000e-01 3.0000000e+00 4.0500000e+01 
7.5000000e-01 3.0000000e+00 4.1000000e+01 
7.5000000e-01 3.0000000e+00 4.1500000e+01 
7.5000000e-01 3.0000000e+00 4.2000000e+01 
7.5000000e-01 3.0000000e+00 4.2500000e+01 
7.5000000e-01 3.0000000e+00 4.3000000e+01 
7.5000000e-01 3.0000000e+00 4.3500000e+01 
7.5000000e-01 3.0000000e+00 4.4000000e+01 
7.5000000e-01 3.0000000e+00 4.4500000e+01 
7.5000000e-01 3.0000000e+00 4.5000000e+01 
7.5000000e-01 3.0000000e+00 4.5500000e+01 
7.5000000e-01 3.0000000e+00 4.6000000e+01 
7.5000000e-01 3.0000000e+00 4.6500000e+01 
7.5000000e-01 3.0000000e+00 4.7000000e+01 
7.5000000e-01 3.0000000e+00 4.7500000e+01 
7.5000000e-01 3.0000000e+00 4.8000000e+01 
7.5000000e-01 3.0000000e+00 4.8500000e+01 
7.5000000e-01 3.0000000e+00 4.9000000e+01 
7.5000000e-01 3.0000000e+00 4.9500000e+01 
7.5000000e-01 3.0250001e+00 0.0000000e+00 
7.5000000e-01 3.0250001e+00 5.0000000e-01 
7.5000000e-01 3.0250001e+00 1.0000000e+00 
7.5000000e-01 3.0250001e+00 1.5000000e+00 
7.5000000e-01 3.0250001e+00 2.0000000e+00 
7.5000000e-01 3.0250001e+00 2.5000000e+00 
7.5000000e-01 3.0250001e+00 3.0000000e+00 
7.5000000e-01 3.0250001e+00 3.5000000e+00 
7.5000000e-01 3.0250001e+00 4.0000000e+00 
7.5000000e-01 3.0250001e+00 4.5000000e+00 
7.5000000e-01 3.0250001e+00 5.0000000e+00 
7.5000000e-01 3.0250001e+00 5.5000000e+00 
7.5000000e-01 3.0250001e+00 6.0000000e+00 
7.5000000e-01 3.0250001e+00 6.5000000e+00 
7.5000000e-01 3.0250001e+00 7.0000000e+00 
7.5000000e-01 3.0250001e+00 7.5000000e+00 
7.5000000e-01 3.0250001e+00 8.0000000e+00 
7.5000000e-01 3.0250001e+00 8.5000000e+00 
7.5000000e-01 3.0250001e+00 9.0000000e+00 
7.5000000e-01 3.0250001e+00 9.5000000e+00 
7.5000000e-01 3.0250001e+00 1.0000000e+01 
7.5000000e-01 3.0250001e+00 1.0500000e+01 
7.5000000e-01 3.0250001e+00 1.1000000e+01 
7.5000000e-01 3.0250001e+00 1.1500000e+01 
7.5000000e-01 3.0250001e+00 1.2000000e+01 
7.5000000e-01 3.0250001e+00 1.2500000e+01 
7.5000000e-01 3.0250001e+00 1.3000000e+01 
7.5000000e-01 3.0250001e+00 1.3500000e+01 
7.5000000e-01 3.0250001e+00 1.4000000e+01 
7.5000000e-01 3.0250001e+00 1.4500000e+01 
7.5000000e-01 3.0250001e+00 1.5000000e+01 
7.5000000e-01 3.0250001e+00 1.5500000e+01 
7.5000000e-01 3.0250001e+00 1.6000000e+01 
7.5000000e-01 3.0250001e+00 1.6500000e+01 
7.5000000e-01 3.0250001e+00 1.7000000e+01 
7.5000000e-01 3.0250001e+00 1.7500000e+01 
7.5000000e-01 3.0250001e+00 1.8000000e+01 
7.5000000e-01 3.0250001e+00 1.8500000e+01 
7.5000000e-01 3.0250001e+00 1.9000000e+01 
7.5000000e-01 3.0250001e+00 1.9500000e+01 
7.5000000e-01 3.0250001e+00 2.0000000e+01 
7.5000000e-01 3.0250001e+00 2.0500000e+01 
7.5000000e-01 3.0250001e+00 2.1000000e+01 
7.5000000e-01 3.0250001e+00 2.1500000e+01 
7.5000000e-01 3.0250001e+00 2.2000000e+01 
7.5000000e-01 3.0250001e+00 2.2500000e+01 
7.5000000e-01 3.0250001e+00 2.3000000e+01 
7.5000000e-01 3.0250001e+00 2.3500000e+01 
7.5000000e-01 3.0250001e+00 2.4000000e+01 
7.5000000e-01 3.0250001e+00 2.4500000e+01 
7.5000000e-01 3.0250001e+00 2.5000000e+01 
7.5000000e-01 3.0250001e+00 2.5500000e+01 
7.5000000e-01 3.0250001e+00 2.6000000e+01 
7.5000000e-01 3.0250001e+00 2.6500000e+01 
7.5000000e-01 3.0250001e+00 2.7000000e+01 
7.5000000e-01 3.0250001e+00 2.7500000e+01 
7.5000000e-01 3.0250001e+00 2.8000000e+01 
7.5000000e-01 3.0250001e+00 2.8500000e+01 
7.5000000e-01 3.0250001e+00 2.9000000e+01 
7.5000000e-01 3.0250001e+00 2.9500000e+01 
7.5000000e-01 3.0250001e+00 3.0000000e+01 
7.5000000e-01 3.0250001e+00 3.0500000e+01 
7.5000000e-01 3.0250001e+00 3.1000000e+01 
7.5000000e-01 3.0250001e+00 3.1500000e+01 
7.5000000e-01 3.0250001e+00 3.2000000e+01 
7.5000000e-01 3.0250001e+00 3.2500000e+01 
7.5000000e-01 3.0250001e+00 3.3000000e+01 
7.5000000e-01 3.0250001e+00 3.3500000e+01 
7.5000000e-01 3.0250001e+00 3.4000000e+01 
7.5000000e-01 3.0250001e+00 3.4500000e+01 
7.5000000e-01 3.0250001e+00 3.5000000e+01 
7.5000000e-01 3.0250001e+00 3.5500000e+01 
7.5000000e-01 3.0250001e+00 3.6000000e+01 
7.5000000e-01 3.0250001e+00 3.6500000e+01 
7.5000000e-01 3.0250001e+00 3.7000000e+01 
7.5000000e-01 3.0250001e+00 3.7500000e+01 
7.5000000e-01 3.0250001e+00 3.8000000e+01 
7.5000000e-01 3.0250001e+00 3.8500000e+01 
7.5000000e-01 3.0250001e+00 3.9000000e+01 
7.5000000e-01 3.0250001e+00 3.9500000e+01 
7.5000000e-01 3.0250001e+00 4.0000000e+01 
7.5000000e-01 3.0250001e+00 4.0500000e+01 
7.5000000e-01 3.0250001e+00 4.1000000e+01 
7.5000000e-01 3.0250001e+00 4.1500000e+01 
7.5000000e-01 3.0250001e+00 4.2000000e+01 
7.5000000e-01 3.0250001e+00 4.2500000e+01 
7.5000000e-01 3.0250001e+00 4.3000000e+01 
7.5000000e-01 3.0250001e+00 4.3500000e+01 
7.5000000e-01 3.0250001e+00 4.4000000e+01 
7.5000000e-01 3.0250001e+00 4.4500000e+01 
7.5000000e-01 3.0250001e+00 4.5000000e+01 
7.5000000e-01 3.0250001e+00 4.5500000e+01 
7.5000000e-01 3.0250001e+00 4.6000000e+01 
7.5000000e-01 3.0250001e+00 4.6500000e+01 
7.5000000e-01 3.0250001e+00 4.7000000e+01 
7.5000000e-01 3.0250001e+00 4.7500000e+01 
7.5000000e-01 3.0250001e+00 4.8000000e+01 
7.5000000e-01 3.0250001e+00 4.8500000e+01 
7.5000000e-01 3.0250001e+00 4.9000000e+01 
7.5000000e-01 3.0250001e+00 4.9500000e+01 
7.5000000e-01 3.0250001e+00 5.0000000e+01 
1.5000000e+00 3.0000000e+00 2.5000000e+01 
3.0000000e+00 2.0000000e+00 2.5000000e+01 
4.0000000e+00 2.0000000e+00 2.5000000e+01 
5.0000000e+00 2.0000000e+00 2.5000000e+01 
0.0000000e+00 3.0000000e+00 2.5000000e+01 
0.0000000e+00 0.0000000e+00 1.0000000e+00 
0.0000000e+00 0.0000000e+00 2.0000000e+00 
0.0000000e+00 0.0000000e+00 3.0000000e+00 
0.0000000e+00 0.0000000e+00 4.0000000e+00 
0.0000000e+00 0.0000000e+00 5.0000000e+00 
[...]
POINT_DATA 1920
FIELD FieldData 3
DISPLACEMENT 3 1920  float
0.0000000e+00 0.0000000e+00 0.0000000e+00 
0.0000000e+00 0.0000000e+00 0.0000000e+00 
0.0000000e+00 0.0000000e+00 0.0000000e+00 
0.0000000e+00 0.0000000e+00 0.0000000e+00 
-1.5256913e-06 -7.2921421e-07 5.4727400e-07 
1.3162609e-06 -4.3199299e-07 2.0549248e-06 
0.0000000e+00 6.1294639e-07 0.0000000e+00 
0.0000000e+00 -1.3519651e-06 0.0000000e+00 
-7.2883245e-07 -2.3610105e-06 7.5755793e-07 
1.3353322e-06 2.5536448e-07 1.7615137e-06 
-4.4722651e-06 2.3929640e-06 5.5153250e-06 
7.7947772e-07 -2.6528110e-06 4.2442707e-06 
0.0000000e+00 5.2599228e-07 0.0000000e+00 
0.0000000e+00 -5.4680839e-07 0.0000000e+00 
-1.0452812e-05 6.1805354e-06 1.6577496e-05 
-1.9281420e-06 -9.8754231e-07 4.5670772e-06 
-1.1654858e-05 -1.0934321e-05 4.3263735e-06 
9.0796897e-07 7.9707224e-06 -2.5379836e-06 
0.0000000e+00 -4.4874641e-06 0.0000000e+00 
0.0000000e+00 4.1337476e-06 0.0000000e+00 
-1.1679981e-05 -1.1555457e-05 4.6863424e-06 
-1.2980182e-05 -1.3656619e-05 3.1819538e-06 
-1.3302163e-05 -1.7229024e-05 2.4125077e-06 
-1.6491531e-05 -2.1968077e-05 2.1208299e-07 
-1.4657790e-05 -2.6958440e-05 4.8564555e-08 
-1.3577764e-05 -3.1225809e-05 -1.2129633e-06 
-1.1438867e-05 -3.4630102e-05 -1.2009490e-06 
-1.0517090e-05 -3.6889294e-05 3.1202390e-07 
-7.7423083e-06 -3.8370094e-05 3.3635886e-06 
-9.8378096e-06 -3.8698749e-05 7.6378246e-06 
-4.1506041e-06 -3.8336399e-05 1.0006486e-05 
-8.5968923e-06 -3.6803558e-05 8.9752157e-06 
-6.9313537e-06 -3.4407658e-05 7.6881133e-06 
-9.0886224e-06 -3.1254571e-05 1.0062713e-05 
-9.3655481e-06 -2.7746943e-05 1.3731564e-05 
-1.5832875e-05 -2.3604989e-05 1.8553206e-05 
-2.3071681e-05 -1.9261286e-05 1.7513577e-05 
-2.8377881e-05 -1.4195792e-05 1.2080808e-05 
-2.5595642e-05 -8.2347033e-06 4.4974545e-06 
-2.4649598e-05 -5.0740545e-07 -2.5805862e-06 
-2.0262043e-05 1.0166135e-05 -2.4431208e-06 
-2.6975595e-05 2.4801348e-05 -3.5422379e-06 
-2.9066161e-05 4.3593260e-05 -6.0008529e-06 
-2.6102689e-05 6.2513318e-05 -5.5261680e-06 
-2.4897263e-05 7.1705850e-05 -1.4331182e-06 
-1.7848328e-05 5.0062346e-05 1.2634058e-05 
-1.6391867e-05 -3.5232737e-05 6.0590814e-05 
-2.3243505e-05 -2.3318737e-04 7.9341939e-05 
-4.2964588e-05 -6.0563086e-04 1.6497770e-04 
-6.0308819e-05 -1.2118878e-03 1.3027538e-04 
-1.1412241e-04 -2.0950579e-03 2.4161555e-04 
-1.5456403e-04 -3.2031534e-03 8.6408865e-05 
-2.7810782e-04 -4.3520383e-03 1.4438629e-04 
-6.3439086e-04 -5.0409818e-03 7.7376746e-05 
-2.7800066e-04 -4.8346124e-03 3.0928364e-05 
-2.0784784e-04 -4.4431924e-03 3.7626833e-05 
-1.9930860e-04 -4.3245465e-03 -1.9264447e-05 
-2.1406720e-04 -4.4084052e-03 -7.0145070e-05 
-2.1899614e-04 -4.2273733e-03 -1.4231791e-04 
-1.9849718e-04 -3.2666659e-03 -1.1468655e-04 
-1.2613162e-04 -2.0832780e-03 -2.2782691e-04 
-9.5955402e-05 -1.0694664e-03 -1.2128542e-04 
-4.6971079e-05 -3.7454165e-04 -1.4645647e-04 
-3.2170792e-05 1.9635996e-05 -9.2037146e-05 
-1.2779959e-05 1.9061663e-04 -6.5499858e-05 
-1.2354455e-05 2.2288077e-04 -5.4739307e-05 
-2.7307331e-06 1.8800066e-04 -3.8263068e-05 
1.1880410e-07 1.2792436e-04 -2.5917525e-05 
4.9587193e-06 6.9556831e-05 -1.2080993e-05 
8.3204941e-06 2.3586072e-05 -1.0981791e-05 
1.9635165e-06 -7.8148141e-06 -2.7571332e-06 
1.4045991e-06 -2.6242571e-05 -5.4590741e-06 
4.0444934e-06 -3.5345842e-05 -1.0894547e-06 
2.8385191e-06 -3.7697591e-05 8.3664531e-08 
2.3468489e-07 -3.5971752e-05 4.0525570e-06 
-7.4193817e-06 -3.1424093e-05 6.9301868e-06 
-1.3300019e-05 -2.5525718e-05 5.7598927e-06 
-1.5693404e-05 -1.8290149e-05 -2.2732682e-07 
-1.4075958e-05 -9.5165169e-06 -8.4033863e-06 
-2.0831627e-05 1.7954454e-06 -8.8917295e-06 
-1.8142102e-05 1.6248396e-05 -4.2169072e-06 
-1.8860381e-05 3.4046392e-05 3.9970764e-06 
-1.8808130e-05 5.3612584e-05 8.2688266e-06 
-1.5727725e-05 7.0084818e-05 1.9153960e-05 
-1.8966912e-05 7.2962655e-05 3.1917247e-05 
-1.9675450e-05 4.0429397e-05 5.1094299e-05 
-3.3356533e-05 -6.1750594e-05 9.9121076e-05 
-4.1926003e-05 -2.8372780e-04 1.2029870e-04 
-7.5601645e-05 -6.8671431e-04 2.0763776e-04 
-8.7533110e-05 -1.3253354e-03 1.6515706e-04 
-1.3812372e-04 -2.2348752e-03 2.6820073e-04 
-1.6858552e-04 -3.3430122e-03 1.1725538e-04 
-2.4286541e-04 -4.4345255e-03 1.9803335e-04 
-3.2300455e-04 -4.9512903e-03 4.8466318e-05 
-3.4089791e-04 -4.7587487e-03 -1.3562169e-05 
-5.3125439e-04 -4.4828667e-03 -4.6736654e-06 
-2.2080939e-04 -4.4136355e-03 1.2830697e-05 
-1.8773151e-04 -4.4740569e-03 -6.1575425e-05 
-1.8582850e-04 -4.1178013e-03 -1.5437670e-04 
-1.6241240e-04 -3.0385705e-03 -1.0813798e-04 
-1.0490483e-04 -1.8529660e-03 -2.2167189e-04 
-7.7943929e-05 -8.8844897e-04 -1.2510445e-04 
-3.5222001e-05 -2.5152089e-04 -1.5753569e-04 
-2.0265506e-05 9.4353600e-05 -9.7390235e-05 
3.6334086e-07 2.3140122e-04 -8.4257816e-05 
4.8715151e-06 2.4269715e-04 -5.7533340e-05 
6.9897455e-06 1.9534190e-04 -3.2057938e-05 
9.9233621e-06 1.3049906e-04 -2.4879771e-05 
8.6962100e-06 7.1142116e-05 -1.3273347e-05 
7.5716789e-06 2.6182764e-05 -1.3534184e-05 
8.4518633e-06 -3.0039457e-06 -4.9424734e-06 
8.9145542e-06 -1.8777178e-05 -3.1561278e-06 
4.7076464e-06 -2.4962595e-05 2.9878249e-06 
3.2069865e-06 -2.4585570e-05 6.1945998e-06 
4.6142650e-06 -2.0069672e-05 1.2119657e-05 
2.6487480e-06 -1.3231956e-05 1.5064156e-05 
-1.3728421e-06 -5.4837710e-06 1.2158910e-05 
-2.2041615e-06 1.3913980e-06 7.6143306e-06 
-4.8586412e-06 6.2004046e-06 1.4412291e-06 
0.0000000e+00 -1.0930472e-05 0.0000000e+00 
0.0000000e+00 -1.1578205e-05 0.0000000e+00 
0.0000000e+00 -1.3685419e-05 0.0000000e+00 
0.0000000e+00 -1.7280627e-05 0.0000000e+00 
0.0000000e+00 -2.1991324e-05 0.0000000e+00 
0.0000000e+00 -2.6939171e-05 0.0000000e+00 
0.0000000e+00 -3.1254021e-05 0.0000000e+00 
0.0000000e+00 -3.4631594e-05 0.0000000e+00 
0.0000000e+00 -3.6954923e-05 0.0000000e+00 
0.0000000e+00 -3.8366736e-05 0.0000000e+00 
0.0000000e+00 -3.8778311e-05 0.0000000e+00 
0.0000000e+00 -3.8332633e-05 0.0000000e+00 
0.0000000e+00 -3.6839087e-05 0.0000000e+00 
0.0000000e+00 -3.4429242e-05 0.0000000e+00 
0.0000000e+00 -3.1315463e-05 0.0000000e+00 
0.0000000e+00 -2.7741815e-05 0.0000000e+00 
0.0000000e+00 -2.3674575e-05 0.0000000e+00 
0.0000000e+00 -1.9266372e-05 0.0000000e+00 
0.0000000e+00 -1.4247699e-05 0.0000000e+00 
0.0000000e+00 -8.2763563e-06 0.0000000e+00 
0.0000000e+00 -5.2945131e-07 0.0000000e+00 
0.0000000e+00 1.0181590e-05 0.0000000e+00 
0.0000000e+00 2.4987956e-05 0.0000000e+00 
0.0000000e+00 4.3878372e-05 0.0000000e+00 
0.0000000e+00 6.3084408e-05 0.0000000e+00 
0.0000000e+00 7.2342016e-05 0.0000000e+00 
0.0000000e+00 5.0964991e-05 0.0000000e+00 
0.0000000e+00 -3.4496970e-05 0.0000000e+00 
0.0000000e+00 -2.3315001e-04 0.0000000e+00 
0.0000000e+00 -6.0642860e-04 0.0000000e+00 
0.0000000e+00 -1.2165539e-03 0.0000000e+00 
0.0000000e+00 -2.1020607e-03 0.0000000e+00 
0.0000000e+00 -3.2205819e-03 0.0000000e+00 
0.0000000e+00 -4.3757623e-03 0.0000000e+00 
0.0000000e+00 -5.0609815e-03 0.0000000e+00 
0.0000000e+00 -4.8629325e-03 0.0000000e+00 
0.0000000e+00 -4.4708224e-03 0.0000000e+00 
0.0000000e+00 -4.3454822e-03 0.0000000e+00 
0.0000000e+00 -4.4368226e-03 0.0000000e+00 
0.0000000e+00 -4.2503010e-03 0.0000000e+00 
0.0000000e+00 -3.2896735e-03 0.0000000e+00 
0.0000000e+00 -2.0958099e-03 0.0000000e+00 
0.0000000e+00 -1.0774281e-03 0.0000000e+00 
0.0000000e+00 -3.7716780e-04 0.0000000e+00 
0.0000000e+00 1.9669904e-05 0.0000000e+00 
0.0000000e+00 1.9153443e-04 0.0000000e+00 
0.0000000e+00 2.2450095e-04 0.0000000e+00 
0.0000000e+00 1.8882395e-04 0.0000000e+00 
0.0000000e+00 1.2872613e-04 0.0000000e+00 
0.0000000e+00 6.9980779e-05 0.0000000e+00 
0.0000000e+00 2.3748418e-05 0.0000000e+00 
0.0000000e+00 -7.7439408e-06 0.0000000e+00 
0.0000000e+00 -2.6322759e-05 0.0000000e+00 
0.0000000e+00 -3.5369907e-05 0.0000000e+00 
0.0000000e+00 -3.7785565e-05 0.0000000e+00 
0.0000000e+00 -3.5986621e-05 0.0000000e+00 
0.0000000e+00 -3.1521820e-05 0.0000000e+00 
0.0000000e+00 -2.5566740e-05 0.0000000e+00 
0.0000000e+00 -1.8349871e-05 0.0000000e+00 
0.0000000e+00 -9.5168998e-06 0.0000000e+00 
0.0000000e+00 1.7967958e-06 0.0000000e+00 
0.0000000e+00 1.6320580e-05 0.0000000e+00 
0.0000000e+00 3.4200177e-05 0.0000000e+00 
0.0000000e+00 5.3902462e-05 0.0000000e+00 
0.0000000e+00 7.0669157e-05 0.0000000e+00 
0.0000000e+00 7.3625357e-05 0.0000000e+00 
0.0000000e+00 4.1306328e-05 0.0000000e+00 
0.0000000e+00 -6.1114399e-05 0.0000000e+00 
0.0000000e+00 -2.8389026e-04 0.0000000e+00 
0.0000000e+00 -6.8768580e-04 0.0000000e+00 
0.0000000e+00 -1.3306621e-03 0.0000000e+00 
0.0000000e+00 -2.2426760e-03 0.0000000e+00 
0.0000000e+00 -3.3615627e-03 0.0000000e+00 
0.0000000e+00 -4.4554407e-03 0.0000000e+00 
0.0000000e+00 -4.9838359e-03 0.0000000e+00 
0.0000000e+00 -4.7835219e-03 0.0000000e+00 
0.0000000e+00 -4.5012040e-03 0.0000000e+00 
0.0000000e+00 -4.4387653e-03 0.0000000e+00 
0.0000000e+00 -4.5033144e-03 0.0000000e+00 
0.0000000e+00 -4.1406737e-03 0.0000000e+00 
0.0000000e+00 -3.0602620e-03 0.0000000e+00 
0.0000000e+00 -1.8642240e-03 0.0000000e+00 
0.0000000e+00 -8.9511613e-04 0.0000000e+00 
0.0000000e+00 -2.5343552e-04 0.0000000e+00 
0.0000000e+00 9.4698218e-05 0.0000000e+00 
0.0000000e+00 2.3245272e-04 0.0000000e+00 
0.0000000e+00 2.4413226e-04 0.0000000e+00 
0.0000000e+00 1.9632850e-04 0.0000000e+00 
0.0000000e+00 1.3121351e-04 0.0000000e+00 
0.0000000e+00 7.1518429e-05 0.0000000e+00 
0.0000000e+00 2.6357546e-05 0.0000000e+00 
0.0000000e+00 -2.9455832e-06 0.0000000e+00 
0.0000000e+00 -1.8833551e-05 0.0000000e+00 
0.0000000e+00 -2.5009344e-05 0.0000000e+00 
0.0000000e+00 -2.4627563e-05 0.0000000e+00 
0.0000000e+00 -2.0101714e-05 0.0000000e+00 
0.0000000e+00 -1.3223910e-05 0.0000000e+00 
0.0000000e+00 -5.5168166e-06 0.0000000e+00 
0.0000000e+00 1.3816111e-06 0.0000000e+00 
0.0000000e+00 6.1878322e-06 0.0000000e+00 
0.0000000e+00 7.9461506e-06 0.0000000e+00 
1.6483175e-06 1.4779298e-05 -1.5427739e-05 
-7.8017438e-06 1.2666790e-06 -8.6575928e-06 
-6.6870261e-06 6.9423290e-06 -4.0770742e-06 
-5.0103331e-06 3.4321258e-06 -2.2396098e-06 
0.0000000e+00 6.2026998e-06 0.0000000e+00 
0.0000000e+00 0.0000000e+00 0.0000000e+00 
0.0000000e+00 0.0000000e+00 0.0000000e+00 
0.0000000e+00 0.0000000e+00 0.0000000e+00 
0.0000000e+00 0.0000000e+00 0.0000000e+00 
0.0000000e+00 0.0000000e+00 0.0000000e+00 
0.0000000e+00 0.0000000e+00 0.0000000e+00 
0.0000000e+00 0.0000000e+00 0.0000000e+00 
0.0000000e+00 0.0000000e+00 0.0000000e+00 
0.0000000e+00 0.0000000e+00 0.0000000e+00 
0.0000000e+00 0.0000000e+00 0.0000000e+00 
0.0000000e+00 0.0000000e+00 0.0000000e+00 
0.0000000e+00 0.0000000e+00 0.0000000e+00 
0.0000000e+00 0.0000000e+00 0.0000000e+00 
0.0000000e+00 0.0000000e+00 0.0000000e+00 
0.0000000e+00 0.0000000e+00 0.0000000e+00 
0.0000000e+00 0.0000000e+00 0.0000000e+00 
0.0000000e+00 0.0000000e+00 0.0000000e+00 
0.0000000e+00 0.0000000e+00 0.0000000e+00 
0.0000000e+00 0.0000000e+00 0.0000000e+00 
0.0000000e+00 0.0000000e+00 0.0000000e+00 
0.0000000e+00 0.0000000e+00 0.0000000e+00 
0.0000000e+00 0.0000000e+00 0.0000000e+00 
0.0000000e+00 0.0000000e+00 0.0000000e+00 
0.0000000e+00 0.0000000e+00 0.0000000e+00 
0.0000000e+00 0.0000000e+00 0.0000000e+00 
0.0000000e+00 0.0000000e+00 0.0000000e+00 
0.0000000e+00 0.0000000e+00 0.0000000e+00 
0.0000000e+00 0.0000000e+00 0.0000000e+00 
0.0000000e+00 0.0000000e+00 0.0000000e+00 
0.0000000e+00 0.0000000e+00 0.0000000e+00 
0.0000000e+00 0.0000000e+00 0.0000000e+00 
0.0000000e+00 0.0000000e+00 0.0000000e+00 
0.0000000e+00 0.0000000e+00 0.0000000e+00 
0.0000000e+00 0.0000000e+00 0.0000000e+00 
0.0000000e+00 0.0000000e+00 0.0000000e+00 
0.0000000e+00 0.0000000e+00 0.0000000e+00 
0.0000000e+00 0.0000000e+00 0.0000000e+00 
0.0000000e+00 0.0000000e+00 0.0000000e+00 
0.0000000e+00 0.0000000e+00 0.0000000e+00 
0.0000000e+00 0.0000000e+00 0.0000000e+00 
0.0000000e+00 0.0000000e+00 0.0000000e+00 
0.0000000e+00 0.0000000e+00 0.0000000e+00 
0.0000000e+00 0.0000000e+00 0.0000000e+00 
0.0000000e+00 0.0000000e+00 0.0000000e+00 
0.0000000e+00 0.0000000e+00 0.0000000e+00 
0.0000000e+00 0.0000000e+00 0.0000000e+00 
0.0000000e+00 0.0000000e+00 0.0000000e+00 
0.0000000e+00 0.0000000e+00 0.0000000e+00 
0.0000000e+00 0.0000000e+00 0.0000000e+00 
0.0000000e+00 0.0000000e+00 0.0000000e+00 
0.0000000e+00 0.0000000e+00 0.0000000e+00 
0.0000000e+00 0.0000000e+00 0.0000000e+00 
0.0000000e+00 0.0000000e+00 0.0000000e+00 
0.0000000e+00 0.0000000e+00 0.0000000e+00 
0.0000000e+00 0.0000000e+00 0.0000000e+00 
0.0000000e+00 0.0000000e+00 0.0000000e+00 
0.0000000e+00 0.0000000e+00 0.0000000e+00 
0.0000000e+00 0.0000000e+00 0.0000000e+00 
0.0000000e+00 0.0000000e+00 0.0000000e+00 
0.0000000e+00 0.0000000e+00 0.0000000e+00 
0.0000000e+00 0.0000000e+00 0.0000000e+00 
0.0000000e+00 0.0000000e+00 0.0000000e+00 
0.0000000e+00 0.0000000e+00 0.0000000e+00 
0.0000000e+00 0.0000000e+00 0.0000000e+00 
0.0000000e+00 0.0000000e+00 0.0000000e+00 
0.0000000e+00 0.0000000e+00 0.0000000e+00 
0.0000000e+00 0.0000000e+00 0.0000000e+00 
0.0000000e+00 0.0000000e+00 0.0000000e+00 
0.0000000e+00 0.0000000e+00 0.0000000e+00 
0.0000000e+00 0.0000000e+00 0.0000000e+00 
0.0000000e+00 0.0000000e+00 0.0000000e+00 
0.0000000e+00 0.0000000e+00 0.0000000e+00 
0.0000000e+00 0.0000000e+00 0.0000000e+00 
0.0000000e+00 0.0000000e+00 0.0000000e+00 
0.0000000e+00 0.0000000e+00 0.0000000e+00 
0.0000000e+00 0.0000000e+00 0.0000000e+00 
0.0000000e+00 0.0000000e+00 0.0000000e+00 
0.0000000e+00 0.0000000e+00 0.0000000e+00 
0.0000000e+00 0.0000000e+00 0.0000000e+00 
0.0000000e+00 0.0000000e+00 0.0000000e+00 
0.0000000e+00 0.0000000e+00 0.0000000e+00 
0.0000000e+00 0.0000000e+00 0.0000000e+00 
0.0000000e+00 0.0000000e+00 0.0000000e+00 
0.0000000e+00 0.0000000e+00 0.0000000e+00 
0.0000000e+00 0.0000000e+00 0.0000000e+00 
0.0000000e+00 0.0000000e+00 0.0000000e+00 
0.0000000e+00 0.0000000e+00 0.0000000e+00 
0.0000000e+00 0.0000000e+00 0.0000000e+00 
0.0000000e+00 0.0000000e+00 0.0000000e+00 
0.0000000e+00 0.0000000e+00 0.0000000e+00 
0.0000000e+00 0.0000000e+00 0.0000000e+00 
0.0000000e+00 0.0000000e+00 0.0000000e+00 
0.0000000e+00 0.0000000e+00 0.0000000e+00 
0.0000000e+00 0.0000000e+00 0.0000000e+00 
0.0000000e+00 0.0000000e+00 0.0000000e+00 
0.0000000e+00 0.0000000e+00 0.0000000e+00 
0.0000000e+00 0.0000000e+00 0.0000000e+00 
0.0000000e+00 0.0000000e+00 0.0000000e+00 
0.0000000e+00 0.0000000e+00 0.0000000e+00 
0.0000000e+00 0.0000000e+00 0.0000000e+00 
0.0000000e+00 0.0000000e+00 0.0000000e+00 
0.0000000e+00 0.0000000e+00 0.0000000e+00 
0.0000000e+00 0.0000000e+00 0.0000000e+00 
0.0000000e+00 0.0000000e+00 0.0000000e+00 
0.0000000e+00 0.0000000e+00 0.0000000e+00 
0.0000000e+00 0.0000000e+00 0.0000000e+00 
-2.3194475e-06 -6.0676660e-07 1.6736115e-06 
-3.6798554e-06 -5.1473815e-08 2.4936678e-06 
-5.0602544e-06 9.2025454e-07 2.7062488e-06 
-6.4031465e-06 6.6767876e-07 2.3746034e-06 
-6.8458407e-06 -4.9114999e-07 2.1917504e-06 
-6.4500446e-06 -3.4785518e-07 2.4664212e-06 
-5.9112699e-06 5.0307028e-07 2.3447408e-06 
-5.1164457e-06 8.3285903e-07 1.5702209e-06 
-3.1496911e-06 -4.1328406e-07 -4.5177984e-07 
-1.9897857e-06 -1.4408845e-06 -4.6087662e-06 
1.3463557e-06 -3.4533257e-06 -8.7577137e-06 
4.2084198e-06 -3.8806297e-06 -1.3588058e-05 
1.2246054e-05 -5.6657032e-06 -1.7463892e-05 
2.1383063e-05 -8.0344716e-06 -1.8730976e-05 
3.1968575e-05 -9.9032914e-06 -1.7505732e-05 
4.2968826e-05 -1.2091626e-05 -1.0651341e-05 
4.7608628e-05 -1.4230847e-05 8.8094686e-07 
4.5609402e-05 -1.4509287e-05 1.0643064e-05 
4.2815631e-05 -1.6826289e-05 1.6103515e-05 
3.1005478e-05 -1.2357261e-05 2.0010928e-05 
2.0494870e-05 -8.2404167e-06 1.6913764e-05 
9.1636939e-06 -4.0743039e-06 1.0870377e-05 
1.8982856e-06 -6.1252132e-07 6.6775915e-06 
-3.0775636e-06 2.6644650e-06 1.7208833e-06 
-5.5046003e-06 3.4916275e-06 -2.0446830e-06 
-5.7023058e-06 2.6180405e-06 -3.1455636e-06 
-5.1574402e-06 1.3197606e-06 -2.8101904e-06 
-4.4926910e-06 8.9555726e-07 -2.2524744e-06 
-3.7873954e-06 1.2514883e-08 -2.4974681e-06 
-2.1232515e-06 -1.1252974e-06 -4.1076569e-06 
7.3786072e-07 -1.5751150e-06 -6.9369967e-06 
5.1804436e-06 -2.3161574e-06 -1.0440460e-05 
1.2741029e-05 -5.2777641e-06 -1.2163925e-05 
2.4310481e-05 -8.5425227e-06 -1.1862746e-05 
3.3120963e-05 -1.1430249e-05 -9.9414119e-06 
4.1981959e-05 -1.3999314e-05 -2.8426814e-06 
4.8416423e-05 -1.4794984e-05 5.5826681e-06 
4.5598550e-05 -1.4989188e-05 1.4703542e-05 
3.8507289e-05 -1.5228620e-05 1.7551800e-05 
2.9472165e-05 -1.2560864e-05 1.7215958e-05 
1.9509172e-05 -9.4336519e-06 1.4444151e-05 
1.1106672e-05 -4.4571402e-06 9.0217054e-06 
4.9146747e-06 -2.8777501e-07 3.4653006e-06 
7.1546617e-07 2.6385926e-06 -7.3443778e-07 
-1.2872104e-06 1.9305969e-06 -2.0190098e-06 
-1.7128687e-06 9.2516285e-07 -1.9666443e-06 
-1.4378701e-06 -2.6272437e-07 -1.0097240e-06 
-4.8203526e-07 -8.4717595e-07 5.9957421e-07 
6.0180969e-07 -8.4244920e-07 2.1611077e-06 
0.0000000e+00 1.1959221e-05 0.0000000e+00 
0.0000000e+00 1.8861654e-05 0.0000000e+00 
0.0000000e+00 2.2318176e-05 0.0000000e+00 
0.0000000e+00 2.5474867e-05 0.0000000e+00 
0.0000000e+00 2.5042191e-05 0.0000000e+00 
0.0000000e+00 2.3613098e-05 0.0000000e+00 
0.0000000e+00 2.3405715e-05 0.0000000e+00 
0.0000000e+00 2.3278799e-05 0.0000000e+00 
0.0000000e+00 2.4385448e-05 0.0000000e+00 
0.0000000e+00 2.7549557e-05 0.0000000e+00 
0.0000000e+00 3.0535179e-05 0.0000000e+00 
0.0000000e+00 2.4773099e-05 0.0000000e+00 
0.0000000e+00 -2.5965792e-06 0.0000000e+00 
0.0000000e+00 -7.9397490e-05 0.0000000e+00 
0.0000000e+00 -2.0698804e-04 0.0000000e+00 
0.0000000e+00 -4.0166607e-04 0.0000000e+00 
0.0000000e+00 -5.0925923e-04 0.0000000e+00 
0.0000000e+00 -5.0662557e-04 0.0000000e+00 
0.0000000e+00 -4.5652103e-04 0.0000000e+00 
0.0000000e+00 -2.9776496e-04 0.0000000e+00 
0.0000000e+00 -1.1748333e-04 0.0000000e+00 
0.0000000e+00 -6.0647999e-06 0.0000000e+00 
0.0000000e+00 3.1869073e-05 0.0000000e+00 
0.0000000e+00 3.2411233e-05 0.0000000e+00 
0.0000000e+00 1.8425470e-05 0.0000000e+00 
0.0000000e+00 9.6190370e-06 0.0000000e+00 
0.0000000e+00 7.4572249e-06 0.0000000e+00 
0.0000000e+00 1.0077834e-05 0.0000000e+00 
0.0000000e+00 1.6730070e-05 0.0000000e+00 
0.0000000e+00 2.1009140e-05 0.0000000e+00 
0.0000000e+00 2.7394899e-05 0.0000000e+00 
0.0000000e+00 2.5316909e-05 0.0000000e+00 
0.0000000e+00 -1.8099590e-07 0.0000000e+00 
0.0000000e+00 -8.1711725e-05 0.0000000e+00 
0.0000000e+00 -2.4231471e-04 0.0000000e+00 
0.0000000e+00 -4.2439252e-04 0.0000000e+00 
0.0000000e+00 -5.2820327e-04 0.0000000e+00 
0.0000000e+00 -5.2832102e-04 0.0000000e+00 
0.0000000e+00 -4.3045089e-04 0.0000000e+00 
0.0000000e+00 -3.2019016e-04 0.0000000e+00 
0.0000000e+00 -1.2998744e-04 0.0000000e+00 
0.0000000e+00 -1.6379830e-05 0.0000000e+00 
0.0000000e+00 1.5829690e-05 0.0000000e+00 
0.0000000e+00 1.4284876e-05 0.0000000e+00 
0.0000000e+00 5.2537544e-06 0.0000000e+00 
0.0000000e+00 1.0525068e-06 0.0000000e+00 
0.0000000e+00 -4.4876367e-07 0.0000000e+00 
0.0000000e+00 -3.9668274e-07 0.0000000e+00 
0.0000000e+00 -9.8437215e-07 0.0000000e+00 
-2.6888672e-06 6.9628612e-07 1.9535780e-06 
-2.6827888e-06 1.3510845e-06 2.2865383e-06 
-2.5292425e-06 -2.0427174e-07 1.4964876e-06 
-2.2902586e-06 1.0547342e-06 2.7457867e-08 
1.0842183e-06 -8.1986951e-07 2.6702342e-06 
1.1630810e-06 -1.8983833e-06 3.2435091e-06 
5.0048641e-07 -2.1614339e-06 3.8204371e-06 
-5.4018187e-07 -2.0273492e-06 3.1391753e-06 
-2.6582734e-06 1.2518930e-07 2.5404975e-06 
9.7254042e-07 -6.3238502e-07 2.5350355e-06 
-1.6084877e-06 2.2137863e-06 -2.4160545e-06 
-3.6699382e-06 9.4860860e-07 4.5923452e-06 
0.0000000e+00 1.9484942e-05 0.0000000e+00 
0.0000000e+00 2.7480739e-05 0.0000000e+00 
0.0000000e+00 3.4227520e-05 0.0000000e+00 
0.0000000e+00 3.9117473e-05 0.0000000e+00 
0.0000000e+00 3.9465758e-05 0.0000000e+00 
0.0000000e+00 3.7510763e-05 0.0000000e+00 
0.0000000e+00 3.7404687e-05 0.0000000e+00 
0.0000000e+00 3.8874565e-05 0.0000000e+00 
0.0000000e+00 4.0368130e-05 0.0000000e+00 
0.0000000e+00 4.7436857e-05 0.0000000e+00 
0.0000000e+00 4.8083271e-05 0.0000000e+00 
0.0000000e+00 4.5010165e-05 0.0000000e+00 
0.0000000e+00 -3.0754338e-06 0.0000000e+00 