# vtk DataFile Version 4.0
vtk output
ASCII
DATASET UNSTRUCTURED_GRID
POINTS 1920 float
0.0000000e+00 0.0000000e+00 0.0000000e+00 
0.0000000e+00 0.0000000e+00 5.0000000e+01 
5.0000000e+00 0.0000000e+00 0.0000000e+00 
5.0000000e+00 0.0000000e+00 5.0000000e+01 
5.0000000e+00 1.0000000e+00 0.0000000e+00 
5.0000000e+00 1.0000000e+00 5.0000000e+01 
0.0000000e+00 1.0000000e+00 0.0000000e+00 
0.0000000e+00 1.0000000e+00 5.0000000e+01 
5.0000000e+00 2.0000000e+00 0.0000000e+00 
5.0000000e+00 2.0000000e+00 5.0000000e+01 
3.0000000e+00 2.0000000e+00 0.0000000e+00 
3.0000000e+00 2.0000000e+00 5.0000000e+01 
0.0000000e+00 2.0000000e+00 0.0000000e+00 
0.0000000e+00 2.0000000e+00 5.0000000e+01 
1.5000000e+00 3.0000000e+00 0.0000000e+00 
1.5000000e+00 3.0000000e+00 5.0000000e+01 
7.5000000e-01 3.0000000e+00 0.0000000e+00 
7.5000000e-01 3.0000000e+00 5.0000000e+01 
0.0000000e+00 3.0000000e+00 0.0000000e+00 
0.0000000e+00 3.0000000e+00 5.0000000e+01 
7.5000000e-01 3.0000000e+00 5.0000000e-01 
7.5000000e-01 3.0000000e+00 1.0000000e+00 
7.5000000e-01 3.0000000e+00 1.5000000e+00 
7.5000000e-01 3.0000000e+00 2.0000000e+00 
7.5000000e-01 3.0000000e+00 2.5000000e+00 
7.5000000e-01 3.0000000e+00 3.0000000e+00 
7.5000000e-01 3.0000000e+00 3.5000000e+00 
7.5000000e-01 3.0000000e+00 4.0000000e+00 
7.5000000e-01 3.0000000e+00 4.5000000e+00 
7.5000000e-01 3.0000000e+00 5.0000000e+00 
7.5000000e-01 3.0000000e+00 5.5000000e+00 
7.5000000e-01 3.0000000e+00 6.0000000e+00 
7.5000000e-01 3.0000000e+00 6.5000000e+00 
7.5000000e-01 3.0000000e+00 7.0000000e+00 
7.5000000e-01 3.0000000e+00 7.5000000e+00 
7.5000000e-01 3.0000000e+00 8.0000000e+00 
7.5000000e-01 3.0000000e+00 8.5000000e+00 
7.5000000e-01 3.0000000e+00 9.0000000e+00 
7.5000000e-01 3.0000000e+00 9.5000000e+00 
7.5000000e-01 3.0000000e+00 1.0000000e+01 
7.5000000e-01 3.0000000e+00 1.0500000e+01 
7.5000000e-01 3.0000000e+00 1.1000000e+01 
7.5000000e-01 3.0000000e+00 1.1500000e+01 
7.5000000e-01 3.0000000e+00 1.2000000e+01 
7.5000000e-01 3.0000000e+00 1.2500000e+01 
7.5000000e-01 3.0000000e+00 1.3000000e+01 
7.5000000e-01 3.0000000e+00 1.3500000e+01 
7.5000000e-01 3.0000000e+00 1.4000000e+01 
7.5000000e-01 3.0000000e+00 1.4500000e+01 
7.5000000e-01 3.0000000e+00 1.5000000e+01 
7.5000000e-01 3.0000000e+00 1.5500000e+01 
7.5000000e-01 3.0000000e+00 1.6000000e+01 
7.5000000e-01 3.0000000e+00 1.6500000e+01 
7.5000000e-01 3.0000000e+00 1.7000000e+01 
7.5000000e-01 3.0000000e+00 1.7500000e+01 
7.5000000e-01 3.0000000e+00 1.8000000e+01 
7.5000000e-01 3.0000000e+00 1.8500000e+01 
7.5000000e-01 3.0000000e+00 1.9000000e+01 
7.5000000e-01 3.0000000e+00 1.9500000e+01 
7.5000000e-01 3.0000000e+00 2.0000000e+01 
7.5000000e-01 3.0000000e+00 2.0500000e+01 
7.5000000e-01 3.0000000e+00 2.1000000e+01 
7.5000000e-01 3.0000000e+00 2.1500000e+01 
7.5000000e-01 3.0000000e+00 2.2000000e+01 
7.5000000e-01 3.0000000e+00 2.2500000e+01 
7.5000000e-01 3.0000000e+00 2.3000000e+01 
7.5000000e-01 3.0000000e+00 2.3500000e+01 
7.5000000e-01 3.0000000e+00 2.4000000e+01 
7.5000000e-01 3.0000000e+00 2.4500000e+01 
7.5000000e-01 3.0000000e+00 2.5000000e+01 
7.5000000e-01 3.0000000e+00 2.5500000e+01 
7.5000000e-01 3.0000000e+00 2.6000000e+01 
7.5000000e-01 3.0000000e+00 2.6500000e+01 
7.5000000e-01 3.0000000e+00 2.7000000e+01 
7.5000000e-01 3.0000000e+00 2.7500000e+01 
7.5000000e-01 3.0000000e+00 2.8000000e+01 
7.5000000e-01 3.0000000e+00 2.8500000e+01 
7.5000000e-01 3.0000000e+00 2.9000000e+01 
7.5000000e-01 3.0000000e+00 2.9500000e+01 
7.5000000e-01 3.0000000e+00 3.0000000e+01 
7.5000000e-01 3.0000000e+00 3.0500000e+01 
7.5000000e-01 3.0000000e+00 3.1000000e+01 
7.5000000e-01 3.0000000e+00 3.1500000e+01 
7.5000000e-01 3.0000000e+00 3.2000000e+01 
7.5000000e-01 3.0000000e+00 3.2500000e+01 
7.5000000e-01 3.0000000e+00 3.3000000e+01 
7.5000000e-01 3.0000000e+00 3.3500000e+01 
7.5000000e-01 3.0000000e+00 3.4000000e+01 
7.5000000e-01 3.0000000e+00 3.4500000e+01 
7.5000000e-01 3.0000000e+00 3.5000000e+01 
7.5000000e-01 3.0000000e+00 3.5500000e+01 
7.5000000e-01 3.0000000e+00 3.6000000e+01 
7.5000000e-01 3.0000000e+00 3.6500000e+01 
7.5000000e-01 3.0000000e+00 3.7000000e+01 
7.5000000e-01 3.0000000e+00 3.7500000e+01 
7.5000000e-01 3.0000000e+00 3.8000000e+01 
7.5000000e-01 3.0000000e+00 3.8500000e+01 
7.5000000e-01 3.0000000e+00 3.9000000e+01 
7.5000000e-01 3.0000000e+00 3.9500000e+01 
7.5000000e-01 3.0000000e+00 4.0000000e+01 
7.5000000e-01 3.0000000e+00 4.0500000e+01 
7.5000000e-01 3.0000000e+00 4.1000000e+01 
7.5000000e-01 3.0000000e+00 4.1500000e+01 
7.5000000e-01 3.0000000e+00 4.2000000e+01 
7.5000000e-01 3.0000000e+00 4.2500000e+01 
7.5000000e-01 3.0000000e+00 4.3000000e+01 
7.5000000e-01 3.0000000e+00 4.3500000e+01 
7.5000000e-01 3.0000000e+00 4.4000000e+01 
7.5000000e-01 3.0000000e+00 4.4500000e+01 
7.5000000e-01 3.0000000e+00 4.5000000e+01 
7.5000000e-01 3.0000000e+00 4.5500000e+01 
7.5000000e-01 3.0000000e+00 4.6000000e+01 
7.5000000e-01 3.0000000e+00 4.6500000e+01 
7.5000000e-01 3.0000000e+00 4.7000000e+01 
7.5000000e-01 3.0000000e+00 4.7500000e+01 
7.5000000e-01 3.0000000e+00 4.8000000e+01 
7.5000000e-01 3.0000000e+00 4.8500000e+01 
7.5000000e-01 3.0000000e+00 4.9000000e+01 
7.5000000e-01 3.0000000e+00 4.9500000e+01 
7.5000000e-01 3.0250001e+00 0.0000000e+00 
7.5000000e-01 3.0250001e+00 5.0000000e-01 
7.5000000e-01 3.0250001e+00 1.0000000e+00 
7.5000000e-01 3.0250001e+00 1.5000000e+00 
7.5000000e-01 3.0250001e+00 2.0000000e+00 
7.5000000e-01 3.0250001e+00 2.5000000e+00 
7.5000000e-01 3.0250001e+00 3.0000000e+00 
7.5000000e-01 3.0250001e+00 3.5000000e+00 
7.5000000e-01 3.0250001e+00 4.0000000e+00 
7.5000000e-01 3.0250001e+00 4.5000000e+00 
7.5000000e-01 3.0250001e+00 5.0000000e+00 
7.5000000e-01 3.0250001e+00 5.5000000e+00 
7.5000000e-01 3.0250001e+00 6.0000000e+00 
7.5000000e-01 3.0250001e+00 6.5000000e+00 
7.5000000e-01 3.0250001e+00 7.0000000e+00 
7.5000000e-01 3.0250001e+00 7.5000000e+00 
7.5000000e-01 3.0250001e+00 8.0000000e+00 
7.5000000e-01 3.0250001e+00 8.5000000e+00 
7.5000000e-01 3.0250001e+00 9.0000000e+00 
7.5000000e-01 3.0250001e+00 9.5000000e+00 
7.5000000e-01 3.0250001e+00 1.0000000e+01 
7.5000000e-01 3.0250001e+00 1.0500000e+01 
7.5000000e-01 3.0250001e+00 1.1000000e+01 
7.5000000e-01 3.0250001e+00 1.1500000e+01 
7.5000000e-01 3.0250001e+00 1.2000000e+01 
7.5000000e-01 3.0250001e+00 1.2500000e+01 
7.5000000e-01 3.0250001e+00 1.3000000e+01 
7.5000000e-01 3.0250001e+00 1.3500000e+01 
7.5000000e-01 3.0250001e+00 1.4000000e+01 
7.5000000e-01 3.0250001e+00 1.4500000e+01 
7.5000000e-01 3.0250001e+00 1.5000000e+01 
7.5000000e-01 3.0250001e+00 1.5500000e+01 
7.5000000e-01 3.0250001e+00 1.6000000e+01 
7.5000000e-01 3.0250001e+00 1.6500000e+01 
7.5000000e-01 3.0250001e+00 1.7000000e+01 
7.5000000e-01 3.0250001e+00 1.7500000e+01 
7.5000000e-01 3.0250001e+00 1.8000000e+01 
7.5000000e-01 3.0250001e+00 1.8500000e+01 
7.5000000e-01 3.0250001e+00 1.9000000e+01 
7.5000000e-01 3.0250001e+00 1.9500000e+01 
7.5000000e-01 3.0250001e+00 2.0000000e+01 
7.5000000e-01 3.0250001e+00 2.0500000e+01 
7.5000000e-01 3.0250001e+00 2.1000000e+01 
7.5000000e-01 3.0250001e+00 2.1500000e+01 
7.5000000e-01 3.0250001e+00 2.2000000e+01 
7.5000000e-01 3.0250001e+00 2.2500000e+01 
7.5000000e-01 3.0250001e+00 2.3000000e+01 
7.5000000e-01 3.0250001e+00 2.3500000e+01 
7.5000000e-01 3.0250001e+00 2.4000000e+01 
7.5000000e-01 3.0250001e+00 2.4500000e+01 
7.5000000e-01 3.0250001e+00 2.5000000e+01 
7.5000000e-01 3.0250001e+00 2.5500000e+01 
7.5000000e-01 3.0250001e+00 2.6000000e+01 
7.5000000e-01 3.0250001e+00 2.6500000e+01 
7.5000000e-01 3.0250001e+00 2.7000000e+01 
7.5000000e-01 3.0250001e+00 2.7500000e+01 
7.5000000e-01 3.0250001e+00 2.8000000e+01 
7.5000000e-01 3.0250001e+00 2.8500000e+01 
7.5000000e-01 3.0250001e+00 2.9000000e+01 
7.5000000e-01 3.0250001e+00 2.9500000e+01 
7.5000000e-01 3.0250001e+00 3.0000000e+01 
7.5000000e-01 3.0250001e+00 3.0500000e+01 
7.5000000e-01 3.0250001e+00 3.1000000e+01 
7.5000000e-01 3.0250001e+00 3.1500000e+01 
7.5000000e-01 3.0250001e+00 3.2000000e+01 
7.5000000e-01 3.0250001e+00 3.2500000e+01 
7.5000000e-01 3.0250001e+00 3.3000000e+01 
7.5000000e-01 3.0250001e+00 3.3500000e+01 
7.5000000e-01 3.0250001e+00 3.4000000e+01 
7.5000000e-01 3.0250001e+00 3.4500000e+01 
7.5000000e-01 3.0250001e+00 3.5000000e+01 
7.5000000e-01 3.0250001e+00 3.5500000e+01 
7.5000000e-01 3.0250001e+00 3.6000000e+01 
7.5000000e-01 3.0250001e+00 3.6500000e+01 
7.5000000e-01 3.0250001e+00 3.7000000e+01 
7.5000000e-01 3.0250001e+00 3.7500000e+01 
7.5000000e-01 3.0250001e+00 3.8000000e+01 
7.5000000e-01 3.0250001e+00 3.8500000e+01 
7.5000000e-01 3.0250001e+00 3.9000000e+01 
7.5000000e-01 3.0250001e+00 3.9500000e+01 
7.5000000e-01 3.0250001e+00 4.0000000e+01 
7.5000000e-01 3.0250001e+00 4.0500000e+01 
7.5000000e-01 3.0250001e+00 4.1000000e+01 
7.5000000e-01 3.0250001e+00 4.1500000e+01 
7.5000000e-01 3.0250001e+00 4.2000000e+01 
7.5000000e-01 3.0250001e+00 4.2500000e+01 
7.5000000e-01 3.0250001e+00 4.3000000e+01 
7.5000000e-01 3.0250001e+00 4.3500000e+01 
7.5000000e-01 3.0250001e+00 4.4000000e+01 
7.5000000e-01 3.0250001e+00 4.4500000e+01 
7.5000000e-01 3.0250001e+00 4.5000000e+01 
7.5000000e-01 3.0250001e+00 4.5500000e+01 
7.5000000e-01 3.0250001e+00 4.6000000e+01 
7.5000000e-01 3.0250001e+00 4.6500000e+01 
7.5000000e-01 3.0250001e+00 4.7000000e+01 
7.5000000e-01 3.0250001e+00 4.7500000e+01 
7.5000000e-01 3.0250001e+00 4.8000000e+01 
7.5000000e-01 3.0250001e+00 4.8500000e+01 
7.5000000e-01 3.0250001e+00 4.9000000e+01 
7.5000000e-01 3.0250001e+00 4.9500000e+01 
7.5000000e-01 3.0250001e+00 5.0000000e+01 
1.5000000e+00 3.0000000e+00 2.5000000e+01 
3.0000000e+00 2.0000000e+00 2.5000000e+01 
4.0000000e+00 2.0000000e+00 2.5000000e+01 
5.0000000e+00 2.0000000e+00 2.5000000e+01 
0.0000000e+00 3.0000000e+00 2.5000000e+01 
0.0000000e+00 0.0000000e+00 1.0000000e+00 
0.0000000e+00 0.0000000e+00 2.0000000e+00 
0.0000000e+00 0.0000000e+00 3.0000000e+00 
0.0000000e+00 0.0000000e+00 4.0000000e+00 
0.0000000e+00 0.0000000e+00 5.0000000e+00 
[...]
POINT_DATA 1920
FIELD FieldData 3
DISPLACEMENT 3 1920  float
0.0000000e+00 0.0000000e+00 0.0000000e+00 
0.0000000e+00 0.0000000e+00 0.0000000e+00 
0.0000000e+00 0.0000000e+00 0.0000000e+00 
0.0000000e+00 0.0000000e+00 0.0000000e+00 
-1.8666095e-06 3.3707367e-06 2.7664510e-06 
1.2255848e-07 3.0602786e-07 -1.7371413e-07 
0.0000000e+00 -1.2518228e-05 0.0000000e+00 
0.0000000e+00 1.6952408e-06 0.0000000e+00 
-7.1277350e-06 4.5742213e-06 7.0581509e-06 
1.2617518e-07 7.6325239e-07 -1.2248152e-06 
-3.2276364e-06 -2.3732686e-07 1.3273038e-06 
3.4613200e-07 1.1893887e-07 -1.0187096e-06 
0.0000000e+00 -1.4827198e-05 0.0000000e+00 
0.0000000e+00 1.6738709e-06 0.0000000e+00 
9.9759245e-06 7.9444499e-06 -1.5773572e-05 
2.7592921e-06 2.8818749e-06 -4.3839946e-06 
-2.7830638e-06 3.6666275e-05 -4.0442060e-06 
4.8431609e-08 -4.2332272e-06 3.9382417e-06 
0.0000000e+00 -6.5502772e-06 0.0000000e+00 
0.0000000e+00 -1.4386267e-06 0.0000000e+00 
1.4653370e-05 3.3959153e-05 -7.6899387e-06 
1.7442113e-05 2.7738597e-05 -1.1411049e-05 
2.8789616e-05 2.0326228e-05 -1.4816948e-05 
2.8596231e-05 1.2844114e-05 -1.3280357e-05 
3.1350424e-05 6.0448488e-06 -1.2137022e-05 
2.3752840e-05 -2.6941211e-07 -1.3102357e-05 
2.8046685e-05 -5.9515833e-06 -1.0333054e-05 
2.2835146e-05 -1.0812272e-05 -9.5084242e-06 
2.9362844e-05 -1.4383966e-05 -1.1803195e-05 
1.7560398e-05 -1.6785401e-05 -5.8159721e-06 
2.4895762e-05 -1.8246721e-05 -3.7660942e-07 
1.3858235e-05 -1.8769233e-05 7.4177233e-06 
2.1704316e-05 -1.8043751e-05 1.0669728e-05 
8.4004614e-06 -1.5614385e-05 1.2265501e-05 
1.5145651e-05 -1.0422817e-05 6.3950138e-06 
1.1780558e-05 -1.2755538e-06 3.4237073e-07 
2.8339085e-05 1.3396659e-05 -5.7757898e-06 
2.6909032e-05 3.4329776e-05 -7.3048494e-07 
3.2416716e-05 6.1191080e-05 -3.1481247e-06 
2.8985563e-05 8.8069042e-05 1.3283735e-06 
3.2950727e-05 1.0367245e-04 5.1443753e-06 
3.7942886e-05 8.4818887e-05 2.0964879e-05 
3.0121719e-05 -1.7991682e-06 6.1074716e-05 
1.2885727e-05 -2.0384188e-04 8.8142595e-05 
-2.5210429e-05 -5.7896896e-04 1.7576819e-04 
-4.8720343e-05 -1.1812235e-03 1.4870058e-04 
-1.1315397e-04 -2.0502163e-03 2.5322780e-04 
-1.5535697e-04 -3.1344774e-03 1.1585205e-04 
-2.3662760e-04 -4.2579584e-03 1.9628739e-04 
-2.8368054e-04 -4.9233125e-03 4.1724870e-05 
-2.9540271e-04 -4.7942242e-03 -1.9181358e-05 
-2.9019522e-04 -4.4878796e-03 -7.1133807e-05 
-3.2956587e-04 -4.4617774e-03 -1.0173825e-04 
-6.2203186e-04 -4.6315170e-03 -1.3922610e-04 
-2.5962567e-04 -4.4209948e-03 -2.0635372e-04 
-1.5349276e-04 -3.3988669e-03 -1.4134965e-04 
-6.8590845e-05 -2.1489316e-03 -2.8097938e-04 
-3.7188853e-05 -1.0844030e-03 -1.3707476e-04 
2.2072281e-05 -3.6084311e-04 -1.2157028e-04 
3.7592035e-05 4.4026197e-05 -2.5966652e-05 
4.8430091e-05 2.1211134e-04 6.7191081e-06 
4.1086503e-05 2.3476442e-04 2.1637599e-05 
3.5009154e-05 1.8845817e-04 3.6561240e-05 
3.0242574e-05 1.2056041e-04 3.7599191e-05 
3.0187635e-05 5.7824920e-05 3.5971530e-05 
7.4943819e-06 1.1027267e-05 3.0006770e-05 
9.2380506e-06 -1.7954550e-05 3.5695462e-05 
5.2311752e-06 -3.3138491e-05 8.0201416e-06 
5.5069603e-07 -3.9248029e-05 -1.0117988e-05 
-1.0781442e-06 -4.1413179e-05 -2.3981511e-05 
2.2883136e-05 -4.1976360e-05 -2.1900660e-05 
1.3959078e-05 -4.2091629e-05 -9.0537042e-06 
1.5513113e-05 -4.1769275e-05 2.5752233e-06 
9.1663424e-06 -3.8733036e-05 1.1453225e-05 
1.5266287e-05 -3.1282772e-05 3.7818478e-07 
1.2950622e-05 -1.7430257e-05 -6.1322139e-06 
2.9947551e-05 3.4069569e-06 -5.4657035e-06 
2.6129597e-05 3.0082620e-05 7.2415182e-06 
3.1420179e-05 5.9357470e-05 1.5259646e-05 
3.2767479e-05 8.4877756e-05 3.0853247e-05 
3.5329329e-05 9.4820047e-05 3.8068436e-05 
2.8374869e-05 6.5754859e-05 5.6557954e-05 
1.5744357e-05 -3.7780086e-05 9.7913413e-05 
2.8926620e-06 -2.6821485e-04 1.0742545e-04 
-4.8794944e-05 -6.8758155e-04 1.8492951e-04 
-9.5894698e-05 -1.3484419e-03 1.2797548e-04 
-1.6650427e-04 -2.2803249e-03 2.1890886e-04 
-2.3734762e-04 -3.3998394e-03 6.7181551e-05 
-2.9872480e-04 -4.4864570e-03 1.2446505e-04 
-2.9505967e-04 -4.9690404e-03 1.8174762e-06 
-2.8929210e-04 -4.7324286e-03 -5.6750192e-05 
-2.9123781e-04 -4.4460283e-03 -8.5342806e-05 
-2.7615455e-04 -4.4762031e-03 -9.3723102e-05 
-3.4528947e-04 -4.6437406e-03 -2.1252205e-04 
-3.3659441e-04 -4.3710596e-03 -2.9186640e-04 
-3.8802106e-04 -3.3068720e-03 -4.5437715e-04 
-8.8380308e-05 -2.0394125e-03 -2.5077054e-04 
-1.2969664e-05 -1.0000276e-03 -1.1732380e-04 
2.7811482e-05 -3.1000678e-04 -1.0578806e-04 
3.1204781e-05 6.3531908e-05 -1.9115643e-05 
2.9956320e-05 2.0972780e-04 7.7392297e-06 
2.6527934e-05 2.2187589e-04 2.9380528e-05 
1.2796148e-05 1.7529562e-04 4.5009565e-05 
7.9024267e-06 1.1391882e-04 4.3280175e-05 
-6.4333365e-09 6.1455386e-05 4.4710177e-05 
-7.6671622e-06 2.5011948e-05 3.3258078e-05 
-1.5064525e-05 4.7118820e-06 2.4125227e-05 
-1.3097432e-05 -3.8632547e-06 8.2407960e-06 
-1.3275357e-05 -5.6131498e-06 -9.2523987e-06 
-1.0100464e-05 -4.3411442e-06 -1.8173236e-05 
1.5695730e-06 -2.1020635e-06 -2.3717505e-05 
2.2930969e-06 3.2178184e-07 -1.7207023e-05 
1.8319308e-06 2.2463776e-06 -5.1902066e-06 
2.3904172e-06 3.1765555e-06 8.3245834e-07 
-3.9254596e-06 2.6260341e-06 -2.9643875e-06 
-3.6705817e-06 1.0532626e-06 -6.8191835e-06 
3.9746560e-06 -7.7032632e-07 -1.0209094e-05 
3.6275890e-06 -2.4206374e-06 -8.2188080e-06 
4.2940624e-06 -3.6838603e-06 -1.4503689e-06 
0.0000000e+00 3.6565780e-05 0.0000000e+00 
0.0000000e+00 3.3979501e-05 0.0000000e+00 
0.0000000e+00 2.7828490e-05 0.0000000e+00 
0.0000000e+00 2.0372087e-05 0.0000000e+00 
0.0000000e+00 1.2904573e-05 0.0000000e+00 
0.0000000e+00 6.0277298e-06 0.0000000e+00 
0.0000000e+00 -2.8584404e-07 0.0000000e+00 
0.0000000e+00 -5.9820331e-06 0.0000000e+00 
0.0000000e+00 -1.0794716e-05 0.0000000e+00 
0.0000000e+00 -1.4388120e-05 0.0000000e+00 
0.0000000e+00 -1.6807033e-05 0.0000000e+00 
0.0000000e+00 -1.8286022e-05 0.0000000e+00 
0.0000000e+00 -1.8804032e-05 0.0000000e+00 
0.0000000e+00 -1.8094406e-05 0.0000000e+00 
0.0000000e+00 -1.5636366e-05 0.0000000e+00 
0.0000000e+00 -1.0457716e-05 0.0000000e+00 
0.0000000e+00 -1.2560130e-06 0.0000000e+00 
0.0000000e+00 1.3433345e-05 0.0000000e+00 
0.0000000e+00 3.4594257e-05 0.0000000e+00 
0.0000000e+00 6.1480918e-05 0.0000000e+00 
0.0000000e+00 8.8704357e-05 0.0000000e+00 
0.0000000e+00 1.0427593e-04 0.0000000e+00 
0.0000000e+00 8.5657077e-05 0.0000000e+00 
0.0000000e+00 -1.1974619e-06 0.0000000e+00 
0.0000000e+00 -2.0385909e-04 0.0000000e+00 
0.0000000e+00 -5.7966338e-04 0.0000000e+00 
0.0000000e+00 -1.1856767e-03 0.0000000e+00 
0.0000000e+00 -2.0569740e-03 0.0000000e+00 
0.0000000e+00 -3.1513546e-03 0.0000000e+00 
0.0000000e+00 -4.2775832e-03 0.0000000e+00 
0.0000000e+00 -4.9541849e-03 0.0000000e+00 
0.0000000e+00 -4.8182053e-03 0.0000000e+00 
0.0000000e+00 -4.5161154e-03 0.0000000e+00 
0.0000000e+00 -4.4873105e-03 0.0000000e+00 
0.0000000e+00 -4.6509411e-03 0.0000000e+00 
0.0000000e+00 -4.4493312e-03 0.0000000e+00 
0.0000000e+00 -3.4233921e-03 0.0000000e+00 
0.0000000e+00 -2.1619664e-03 0.0000000e+00 
0.0000000e+00 -1.0927999e-03 0.0000000e+00 
0.0000000e+00 -3.6344671e-04 0.0000000e+00 
0.0000000e+00 4.4001030e-05 0.0000000e+00 
0.0000000e+00 2.1315018e-04 0.0000000e+00 
0.0000000e+00 2.3640771e-04 0.0000000e+00 
0.0000000e+00 1.8958206e-04 0.0000000e+00 
0.0000000e+00 1.2134793e-04 0.0000000e+00 
0.0000000e+00 5.8248035e-05 0.0000000e+00 
0.0000000e+00 1.1285472e-05 0.0000000e+00 
0.0000000e+00 -1.7949469e-05 0.0000000e+00 
0.0000000e+00 -3.3160835e-05 0.0000000e+00 
0.0000000e+00 -3.9430299e-05 0.0000000e+00 
0.0000000e+00 -4.1521693e-05 0.0000000e+00 
0.0000000e+00 -4.2086820e-05 0.0000000e+00 
0.0000000e+00 -4.2260817e-05 0.0000000e+00 
0.0000000e+00 -4.1793992e-05 0.0000000e+00 
0.0000000e+00 -3.8778802e-05 0.0000000e+00 
0.0000000e+00 -3.1248255e-05 0.0000000e+00 
0.0000000e+00 -1.7366619e-05 0.0000000e+00 
0.0000000e+00 3.4851143e-06 0.0000000e+00 
0.0000000e+00 3.0215710e-05 0.0000000e+00 
0.0000000e+00 5.9635669e-05 0.0000000e+00 
0.0000000e+00 8.5488929e-05 0.0000000e+00 
0.0000000e+00 9.5495321e-05 0.0000000e+00 
0.0000000e+00 6.6723529e-05 0.0000000e+00 
0.0000000e+00 -3.7183683e-05 0.0000000e+00 
0.0000000e+00 -2.6851459e-04 0.0000000e+00 
0.0000000e+00 -6.8877521e-04 0.0000000e+00 
0.0000000e+00 -1.3540272e-03 0.0000000e+00 
0.0000000e+00 -2.2878845e-03 0.0000000e+00 
0.0000000e+00 -3.4187699e-03 0.0000000e+00 
0.0000000e+00 -4.5061898e-03 0.0000000e+00 
0.0000000e+00 -5.0006048e-03 0.0000000e+00 
0.0000000e+00 -4.7561303e-03 0.0000000e+00 
0.0000000e+00 -4.4736629e-03 0.0000000e+00 
0.0000000e+00 -4.4980808e-03 0.0000000e+00 
0.0000000e+00 -4.6749315e-03 0.0000000e+00 
0.0000000e+00 -4.3951655e-03 0.0000000e+00 
0.0000000e+00 -3.3219070e-03 0.0000000e+00 
0.0000000e+00 -2.0550652e-03 0.0000000e+00 
0.0000000e+00 -1.0078162e-03 0.0000000e+00 
0.0000000e+00 -3.1227953e-04 0.0000000e+00 
0.0000000e+00 6.3780622e-05 0.0000000e+00 
0.0000000e+00 2.1092218e-04 0.0000000e+00 
0.0000000e+00 2.2359715e-04 0.0000000e+00 
0.0000000e+00 1.7637818e-04 0.0000000e+00 
0.0000000e+00 1.1474057e-04 0.0000000e+00 
0.0000000e+00 6.1804087e-05 0.0000000e+00 
0.0000000e+00 2.5223273e-05 0.0000000e+00 
0.0000000e+00 4.7191934e-06 0.0000000e+00 
0.0000000e+00 -3.9473207e-06 0.0000000e+00 
0.0000000e+00 -5.7170701e-06 0.0000000e+00 
0.0000000e+00 -4.4039302e-06 0.0000000e+00 
0.0000000e+00 -2.1006369e-06 0.0000000e+00 
0.0000000e+00 3.1367071e-07 0.0000000e+00 
0.0000000e+00 2.2400598e-06 0.0000000e+00 
0.0000000e+00 3.1274851e-06 0.0000000e+00 
0.0000000e+00 2.6144387e-06 0.0000000e+00 
0.0000000e+00 1.0802459e-06 0.0000000e+00 
0.0000000e+00 -7.5692947e-07 0.0000000e+00 
0.0000000e+00 -2.4327346e-06 0.0000000e+00 
0.0000000e+00 -3.6935448e-06 0.0000000e+00 
0.0000000e+00 -4.2092802e-06 0.0000000e+00 
1.2664292e-05 -4.3715267e-05 -8.6896334e-06 
2.0966401e-05 3.7683340e-06 -1.2682891e-06 
7.1536510e-06 -1.6331338e-06 -4.7323960e-07 
-7.2440130e-06 -3.1741740e-06 3.9635252e-06 
0.0000000e+00 3.7332204e-05 0.0000000e+00 
0.0000000e+00 0.0000000e+00 0.0000000e+00 
0.0000000e+00 0.0000000e+00 0.0000000e+00 
0.0000000e+00 0.0000000e+00 0.0000000e+00 
0.0000000e+00 0.0000000e+00 0.0000000e+00 
0.0000000e+00 0.0000000e+00 0.0000000e+00 
0.0000000e+00 0.0000000e+00 0.0000000e+00 
0.0000000e+00 0.0000000e+00 0.0000000e+00 
0.0000000e+00 0.0000000e+00 0.0000000e+00 
0.0000000e+00 0.0000000e+00 0.0000000e+00 
0.0000000e+00 0.0000000e+00 0.0000000e+00 
0.0000000e+00 0.0000000e+00 0.0000000e+00 
0.0000000e+00 0.0000000e+00 0.0000000e+00 
0.0000000e+00 0.0000000e+00 0.0000000e+00 
0.0000000e+00 0.0000000e+00 0.0000000e+00 
0.0000000e+00 0.0000000e+00 0.0000000e+00 
0.0000000e+00 0.0000000e+00 0.0000000e+00 
0.0000000e+00 0.0000000e+00 0.0000000e+00 
0.0000000e+00 0.0000000e+00 0.0000000e+00 
0.0000000e+00 0.0000000e+00 0.0000000e+00 
0.0000000e+00 0.0000000e+00 0.0000000e+00 
0.0000000e+00 0.0000000e+00 0.0000000e+00 
0.0000000e+00 0.0000000e+00 0.0000000e+00 
0.0000000e+00 0.0000000e+00 0.0000000e+00 
0.0000000e+00 0.0000000e+00 0.0000000e+00 
0.0000000e+00 0.0000000e+00 0.0000000e+00 
0.0000000e+00 0.0000000e+00 0.0000000e+00 
0.0000000e+00 0.0000000e+00 0.0000000e+00 
0.0000000e+00 0.0000000e+00 0.0000000e+00 
0.0000000e+00 0.0000000e+00 0.0000000e+00 
0.0000000e+00 0.0000000e+00 0.0000000e+00 
0.0000000e+00 0.0000000e+00 0.0000000e+00 
0.0000000e+00 0.0000000e+00 0.0000000e+00 
0.0000000e+00 0.0000000e+00 0.0000000e+00 
0.0000000e+00 0.0000000e+00 0.0000000e+00 
0.0000000e+00 0.0000000e+00 0.0000000e+00 
0.0000000e+00 0.0000000e+00 0.0000000e+00 
0.0000000e+00 0.0000000e+00 0.0000000e+00 
0.0000000e+00 0.0000000e+00 0.0000000e+00 
0.0000000e+00 0.0000000e+00 0.0000000e+00 
0.0000000e+00 0.0000000e+00 0.0000000e+00 
0.0000000e+00 0.0000000e+00 0.0000000e+00 
0.0000000e+00 0.0000000e+00 0.0000000e+00 
0.0000000e+00 0.0000000e+00 0.0000000e+00 
0.0000000e+00 0.0000000e+00 0.0000000e+00 
0.0000000e+00 0.0000000e+00 0.0000000e+00 
0.0000000e+00 0.0000000e+00 0.0000000e+00 
0.0000000e+00 0.0000000e+00 0.0000000e+00 
0.0000000e+00 0.0000000e+00 0.0000000e+00 
0.0000000e+00 0.0000000e+00 0.0000000e+00 
0.0000000e+00 0.0000000e+00 0.0000000e+00 
0.0000000e+00 0.0000000e+00 0.0000000e+00 
0.0000000e+00 0.0000000e+00 0.0000000e+00 
0.0000000e+00 0.0000000e+00 0.0000000e+00 
0.0000000e+00 0.0000000e+00 0.0000000e+00 
0.0000000e+00 0.0000000e+00 0.0000000e+00 
0.0000000e+00 0.0000000e+00 0.0000000e+00 
0.0000000e+00 0.0000000e+00 0.0000000e+00 
0.0000000e+00 0.0000000e+00 0.0000000e+00 
0.0000000e+00 0.0000000e+00 0.0000000e+00 
0.0000000e+00 0.0000000e+00 0.0000000e+00 
0.0000000e+00 0.0000000e+00 0.0000000e+00 
0.0000000e+00 0.0000000e+00 0.0000000e+00 
0.0000000e+00 0.0000000e+00 0.0000000e+00 
0.0000000e+00 0.0000000e+00 0.0000000e+00 
0.0000000e+00 0.0000000e+00 0.0000000e+00 
0.0000000e+00 0.0000000e+00 0.0000000e+00 
0.0000000e+00 0.0000000e+00 0.0000000e+00 
0.0000000e+00 0.0000000e+00 0.0000000e+00 
0.0000000e+00 0.0000000e+00 0.0000000e+00 
0.0000000e+00 0.0000000e+00 0.0000000e+00 
0.0000000e+00 0.0000000e+00 0.0000000e+00 
0.0000000e+00 0.0000000e+00 0.0000000e+00 
0.0000000e+00 0.0000000e+00 0.0000000e+00 
0.0000000e+00 0.0000000e+00 0.0000000e+00 
0.0000000e+00 0.0000000e+00 0.0000000e+00 
0.0000000e+00 0.0000000e+00 0.0000000e+00 
0.0000000e+00 0.0000000e+00 0.0000000e+00 
0.0000000e+00 0.0000000e+00 0.0000000e+00 
0.0000000e+00 0.0000000e+00 0.0000000e+00 
0.0000000e+00 0.0000000e+00 0.0000000e+00 
0.0000000e+00 0.0000000e+00 0.0000000e+00 
0.0000000e+00 0.0000000e+00 0.0000000e+00 
0.0000000e+00 0.0000000e+00 0.0000000e+00 
0.0000000e+00 0.0000000e+00 0.0000000e+00 
0.0000000e+00 0.0000000e+00 0.0000000e+00 
0.0000000e+00 0.0000000e+00 0.0000000e+00 
0.0000000e+00 0.0000000e+00 0.0000000e+00 
0.0000000e+00 0.0000000e+00 0.0000000e+00 
0.0000000e+00 0.0000000e+00 0.0000000e+00 
0.0000000e+00 0.0000000e+00 0.0000000e+00 
0.0000000e+00 0.0000000e+00 0.0000000e+00 
0.0000000e+00 0.0000000e+00 0.0000000e+00 
0.0000000e+00 0.0000000e+00 0.0000000e+00 
0.0000000e+00 0.0000000e+00 0.0000000e+00 
0.0000000e+00 0.0000000e+00 0.0000000e+00 
0.0000000e+00 0.0000000e+00 0.0000000e+00 
0.0000000e+00 0.0000000e+00 0.0000000e+00 
0.0000000e+00 0.0000000e+00 0.0000000e+00 
0.0000000e+00 0.0000000e+00 0.0000000e+00 
0.0000000e+00 0.0000000e+00 0.0000000e+00 
0.0000000e+00 0.0000000e+00 0.0000000e+00 
0.0000000e+00 0.0000000e+00 0.0000000e+00 
0.0000000e+00 0.0000000e+00 0.0000000e+00 
0.0000000e+00 0.0000000e+00 0.0000000e+00 
0.0000000e+00 0.0000000e+00 0.0000000e+00 
0.0000000e+00 0.0000000e+00 0.0000000e+00 
-2.6894950e-06 9.7445138e-07 2.4953833e-06 
-2.9709240e-06 -2.4771755e-06 1.8107260e-06 
-4.2968522e-06 -5.1029242e-06 1.8255032e-06 
-6.2109907e-06 -5.1687102e-06 1.3282238e-06 
-6.5298864e-06 -3.4337322e-06 2.2157506e-07 
-6.2088402e-06 -2.2576774e-06 -7.8001079e-07 
-5.8011169e-06 -3.4792615e-06 -1.4512333e-06 
-5.1381689e-06 -4.3460614e-06 -3.9713154e-06 
-3.4061948e-06 -3.1448446e-06 -9.0090425e-06 
1.3975514e-06 -6.1271348e-06 -1.3890577e-05 
8.0289856e-06 -8.6319296e-06 -1.8815614e-05 
1.6223819e-05 -1.0478125e-05 -1.9679614e-05 
2.9167950e-05 -1.0567115e-05 -2.1146127e-05 
3.9493105e-05 -1.0197917e-05 -1.7196689e-05 
4.5990550e-05 -1.1106864e-05 -9.7131451e-06 
4.7851456e-05 -9.7424036e-06 6.8979176e-07 
3.6889571e-05 -7.3974593e-06 1.2223445e-05 
2.4004858e-05 -5.0483959e-06 1.8892642e-05 
1.7070523e-05 -4.3240289e-06 1.9066774e-05 
8.1319258e-06 -4.1137009e-06 1.9357325e-05 
2.1794453e-06 -4.5131646e-06 1.6060711e-05 
-1.0553917e-06 -2.3375676e-06 1.2266029e-05 
-2.0701752e-06 -3.4062061e-06 7.8659368e-06 
-4.0163277e-06 -4.3083810e-06 5.2202690e-06 
-6.3377793e-06 -4.4489620e-06 3.6640054e-06 
-8.1199569e-06 -4.4226226e-06 1.2474866e-06 
-6.4149754e-06 -3.9058837e-06 -1.1220752e-06 
-4.4817803e-06 -4.6514010e-06 -3.4948073e-06 
-2.9661744e-06 -4.8587863e-06 -6.9119365e-06 
-6.7549401e-08 -5.4985235e-06 -1.2527546e-05 
8.1242215e-06 -6.2979993e-06 -1.7743709e-05 
1.9987541e-05 -1.0352015e-05 -2.1258074e-05 
3.0557385e-05 -1.1329495e-05 -2.2060813e-05 
4.2252261e-05 -1.0836937e-05 -1.8800849e-05 
4.8236951e-05 -1.2513222e-05 -1.2662277e-05 
4.5393637e-05 -1.1314007e-05 -2.5035833e-06 
3.6757356e-05 -9.6989152e-06 5.5024670e-06 
2.4804727e-05 -7.9924102e-06 1.2424517e-05 
1.5554891e-05 -5.8060400e-06 1.3840856e-05 
9.3785911e-06 -3.5565422e-06 1.3500204e-05 
4.6660443e-06 -2.2067939e-06 1.1802442e-05 
3.3309123e-06 -1.7936907e-06 8.4779367e-06 
2.8049096e-06 -9.1396794e-07 5.3110866e-06 
8.6393487e-07 6.3199451e-08 2.6322612e-06 
-8.2087536e-07 -3.8524331e-07 1.2030284e-06 
-9.2046821e-07 -3.5920084e-07 1.1150914e-07 
-4.9195660e-07 1.5627676e-07 -4.0879306e-07 
-8.4142879e-09 -1.0576389e-08 -4.2349237e-07 
1.9132681e-07 -4.4537410e-07 1.4804786e-08 
0.0000000e+00 -1.0062675e-05 0.0000000e+00 
0.0000000e+00 -1.4676521e-06 0.0000000e+00 
0.0000000e+00 9.8977389e-06 0.0000000e+00 
0.0000000e+00 1.8035042e-05 0.0000000e+00 
0.0000000e+00 2.5857704e-05 0.0000000e+00 
0.0000000e+00 2.9293597e-05 0.0000000e+00 
0.0000000e+00 2.9554109e-05 0.0000000e+00 
0.0000000e+00 2.5184385e-05 0.0000000e+00 
0.0000000e+00 1.7943048e-05 0.0000000e+00 
0.0000000e+00 9.3487179e-06 0.0000000e+00 
0.0000000e+00 -1.1934259e-05 0.0000000e+00 
0.0000000e+00 -9.1665184e-05 0.0000000e+00 
0.0000000e+00 -2.2827419e-04 0.0000000e+00 
0.0000000e+00 -4.0455090e-04 0.0000000e+00 
0.0000000e+00 -5.1002600e-04 0.0000000e+00 
0.0000000e+00 -5.3295837e-04 0.0000000e+00 
0.0000000e+00 -4.6451853e-04 0.0000000e+00 
0.0000000e+00 -3.0713520e-04 0.0000000e+00 
0.0000000e+00 -1.5683740e-04 0.0000000e+00 
0.0000000e+00 -2.4180896e-05 0.0000000e+00 
0.0000000e+00 5.7242391e-06 0.0000000e+00 
0.0000000e+00 1.4439152e-05 0.0000000e+00 
0.0000000e+00 1.7928469e-05 0.0000000e+00 
0.0000000e+00 3.1126121e-05 0.0000000e+00 
0.0000000e+00 4.4902299e-05 0.0000000e+00 
0.0000000e+00 5.1806561e-05 0.0000000e+00 
0.0000000e+00 4.4388071e-05 0.0000000e+00 
0.0000000e+00 4.0027953e-05 0.0000000e+00 
0.0000000e+00 4.0115818e-05 0.0000000e+00 
0.0000000e+00 2.0204112e-05 0.0000000e+00 
0.0000000e+00 -2.0369913e-05 0.0000000e+00 
0.0000000e+00 -9.0939422e-05 0.0000000e+00 
0.0000000e+00 -2.3444164e-04 0.0000000e+00 
0.0000000e+00 -4.4029456e-04 0.0000000e+00 
0.0000000e+00 -5.3514872e-04 0.0000000e+00 
0.0000000e+00 -5.1306532e-04 0.0000000e+00 
0.0000000e+00 -4.4659391e-04 0.0000000e+00 
0.0000000e+00 -3.3084114e-04 0.0000000e+00 
0.0000000e+00 -9.9675213e-05 0.0000000e+00 
0.0000000e+00 -2.8350936e-05 0.0000000e+00 
0.0000000e+00 7.0894396e-07 0.0000000e+00 
0.0000000e+00 1.4033919e-06 0.0000000e+00 
0.0000000e+00 8.0965879e-07 0.0000000e+00 
0.0000000e+00 2.4341637e-06 0.0000000e+00 
0.0000000e+00 3.3653303e-06 0.0000000e+00 
0.0000000e+00 1.6413248e-06 0.0000000e+00 
0.0000000e+00 2.8719609e-07 0.0000000e+00 
0.0000000e+00 -1.9395659e-06 0.0000000e+00 
0.0000000e+00 3.2677654e-08 0.0000000e+00 
-1.9978493e-06 -4.2977061e-07 1.2942975e-06 
-1.0357030e-06 -1.8710377e-06 -1.0657451e-06 
5.7113544e-07 -2.8216273e-06 -2.0766847e-06 
9.2858471e-07 -7.0580945e-06 -1.6043062e-06 
2.0550564e-07 6.6019119e-08 1.1861691e-07 
-1.3208107e-07 4.7558434e-08 2.0530975e-07 
-5.3405853e-07 1.0389015e-06 -5.6944947e-07 
-3.3425042e-08 1.7626605e-06 -7.6547980e-07 
-4.8810471e-06 6.0561763e-07 4.3237605e-06 
2.1545399e-07 3.7983503e-07 -8.6592712e-07 
-2.1594612e-06 -1.2675965e-06 9.3728835e-07 
-3.4962625e-06 -8.7285304e-07 1.3013472e-06 
0.0000000e+00 -1.3832585e-05 0.0000000e+00 
0.0000000e+00 -1.0271588e-06 0.0000000e+00 
0.0000000e+00 1.4620155e-05 0.0000000e+00 
0.0000000e+00 2.6660779e-05 0.0000000e+00 
0.0000000e+00 3.8595510e-05 0.0000000e+00 
0.0000000e+00 4.4988836e-05 0.0000000e+00 
0.0000000e+00 4.5908251e-05 0.0000000e+00 
0.0000000e+00 4.1674612e-05 0.0000000e+00 
0.0000000e+00 3.3763179e-05 0.0000000e+00 
0.0000000e+00 2.3677056e-05 0.0000000e+00 
0.0000000e+00 -1.8621095e-05 0.0000000e+00 
0.0000000e+00 -1.6868059e-04 0.0000000e+00 
0.0000000e+00 -4.3599182e-04 0.0000000e+00 
0.0000000e+00 -8.2959479e-04 0.0000000e+00 