# vtk DataFile Version 4.0
vtk output
ASCII
DATASET UNSTRUCTURED_GRID
POINTS 3570 float
0.0000000e+00 0.0000000e+00 0.0000000e+00 
1.0000000e+00 0.0000000e+00 0.0000000e+00 
1.0000000e+00 1.0000000e+01 0.0000000e+00 
0.0000000e+00 1.0000000e+01 0.0000000e+00 
0.0000000e+00 0.0000000e+00 1.0000000e+00 
1.0000000e+00 0.0000000e+00 1.0000000e+00 
1.0000000e+00 1.0000000e+01 1.0000000e+00 
0.0000000e+00 1.0000000e+01 1.0000000e+00 
0.0000000e+00 5.0000000e+00 0.0000000e+00 
1.0000000e+00 5.0000000e+00 0.0000000e+00 
1.4285715e-01 0.0000000e+00 0.0000000e+00 
2.8571430e-01 0.0000000e+00 0.0000000e+00 
4.2857143e-01 0.0000000e+00 0.0000000e+00 
5.7142860e-01 0.0000000e+00 0.0000000e+00 
7.1428573e-01 0.0000000e+00 0.0000000e+00 
8.5714287e-01 0.0000000e+00 0.0000000e+00 
8.5714287e-01 1.0000000e+01 0.0000000e+00 
7.1428573e-01 1.0000000e+01 0.0000000e+00 
5.7142860e-01 1.0000000e+01 0.0000000e+00 
4.2857143e-01 1.0000000e+01 0.0000000e+00 
2.8571430e-01 1.0000000e+01 0.0000000e+00 
1.4285715e-01 1.0000000e+01 0.0000000e+00 
0.0000000e+00 0.0000000e+00 1.4285715e-01 
0.0000000e+00 0.0000000e+00 2.8571430e-01 
0.0000000e+00 0.0000000e+00 4.2857143e-01 
0.0000000e+00 0.0000000e+00 5.7142860e-01 
0.0000000e+00 0.0000000e+00 7.1428573e-01 
0.0000000e+00 0.0000000e+00 8.5714287e-01 
1.0000000e+00 0.0000000e+00 1.4285715e-01 
1.0000000e+00 0.0000000e+00 2.8571430e-01 
1.0000000e+00 0.0000000e+00 4.2857143e-01 
1.0000000e+00 0.0000000e+00 5.7142860e-01 
1.0000000e+00 0.0000000e+00 7.1428573e-01 
1.0000000e+00 0.0000000e+00 8.5714287e-01 
1.4285715e-01 0.0000000e+00 1.0000000e+00 
2.8571430e-01 0.0000000e+00 1.0000000e+00 
4.2857143e-01 0.0000000e+00 1.0000000e+00 
5.7142860e-01 0.0000000e+00 1.0000000e+00 
7.1428573e-01 0.0000000e+00 1.0000000e+00 
8.5714287e-01 0.0000000e+00 1.0000000e+00 
1.0000000e+00 1.0000000e+01 1.4285715e-01 
1.0000000e+00 1.0000000e+01 2.8571430e-01 
1.0000000e+00 1.0000000e+01 4.2857143e-01 
1.0000000e+00 1.0000000e+01 5.7142860e-01 
1.0000000e+00 1.0000000e+01 7.1428573e-01 
1.0000000e+00 1.0000000e+01 8.5714287e-01 
1.0000000e+00 1.4925373e-01 1.0000000e+00 
1.0000000e+00 2.9850745e-01 1.0000000e+00 
1.0000000e+00 4.4776121e-01 1.0000000e+00 
1.0000000e+00 5.9701490e-01 1.0000000e+00 
1.0000000e+00 7.4626863e-01 1.0000000e+00 
1.0000000e+00 8.9552242e-01 1.0000000e+00 
1.0000000e+00 1.0447761e+00 1.0000000e+00 
1.0000000e+00 1.1940298e+00 1.0000000e+00 
1.0000000e+00 1.3432835e+00 1.0000000e+00 
1.0000000e+00 1.4925373e+00 1.0000000e+00 
1.0000000e+00 1.6417910e+00 1.0000000e+00 
1.0000000e+00 1.7910448e+00 1.0000000e+00 
1.0000000e+00 1.9402986e+00 1.0000000e+00 
1.0000000e+00 2.0895522e+00 1.0000000e+00 
1.0000000e+00 2.2388060e+00 1.0000000e+00 
1.0000000e+00 2.3880596e+00 1.0000000e+00 
1.0000000e+00 2.5373135e+00 1.0000000e+00 
1.0000000e+00 2.6865671e+00 1.0000000e+00 
1.0000000e+00 2.8358209e+00 1.0000000e+00 
1.0000000e+00 2.9850745e+00 1.0000000e+00 
1.0000000e+00 3.1343284e+00 1.0000000e+00 
1.0000000e+00 3.2835820e+00 1.0000000e+00 
1.0000000e+00 3.4328358e+00 1.0000000e+00 
1.0000000e+00 3.5820897e+00 1.0000000e+00 
1.0000000e+00 3.7313433e+00 1.0000000e+00 
1.0000000e+00 3.8805971e+00 1.0000000e+00 
1.0000000e+00 4.0298510e+00 1.0000000e+00 
1.0000000e+00 4.1791043e+00 1.0000000e+00 
1.0000000e+00 4.3283582e+00 1.0000000e+00 
1.0000000e+00 4.4776120e+00 1.0000000e+00 
1.0000000e+00 4.6268659e+00 1.0000000e+00 
1.0000000e+00 4.7761192e+00 1.0000000e+00 
1.0000000e+00 4.9253731e+00 1.0000000e+00 
1.0000000e+00 5.0746269e+00 1.0000000e+00 
1.0000000e+00 5.2238808e+00 1.0000000e+00 
1.0000000e+00 5.3731341e+00 1.0000000e+00 
1.0000000e+00 5.5223880e+00 1.0000000e+00 
1.0000000e+00 5.6716418e+00 1.0000000e+00 
1.0000000e+00 5.8208957e+00 1.0000000e+00 
1.0000000e+00 5.9701490e+00 1.0000000e+00 
1.0000000e+00 6.1194029e+00 1.0000000e+00 
1.0000000e+00 6.2686567e+00 1.0000000e+00 
1.0000000e+00 6.4179106e+00 1.0000000e+00 
1.0000000e+00 6.5671639e+00 1.0000000e+00 
1.0000000e+00 6.7164178e+00 1.0000000e+00 
1.0000000e+00 6.8656716e+00 1.0000000e+00 
1.0000000e+00 7.0149255e+00 1.0000000e+00 
1.0000000e+00 7.1641793e+00 1.0000000e+00 
1.0000000e+00 7.3134327e+00 1.0000000e+00 
1.0000000e+00 7.4626865e+00 1.0000000e+00 
1.0000000e+00 7.6119404e+00 1.0000000e+00 
1.0000000e+00 7.7611942e+00 1.0000000e+00 
1.0000000e+00 7.9104476e+00 1.0000000e+00 
1.0000000e+00 8.0597019e+00 1.0000000e+00 
1.0000000e+00 8.2089548e+00 1.0000000e+00 
1.0000000e+00 8.3582087e+00 1.0000000e+00 
1.0000000e+00 8.5074625e+00 1.0000000e+00 
1.0000000e+00 8.6567163e+00 1.0000000e+00 
1.0000000e+00 8.8059702e+00 1.0000000e+00 
1.0000000e+00 8.9552240e+00 1.0000000e+00 
1.0000000e+00 9.1044779e+00 1.0000000e+00 
1.0000000e+00 9.2537317e+00 1.0000000e+00 
1.0000000e+00 9.4029846e+00 1.0000000e+00 
1.0000000e+00 9.5522385e+00 1.0000000e+00 
1.0000000e+00 9.7014923e+00 1.0000000e+00 
1.0000000e+00 9.8507462e+00 1.0000000e+00 
0.0000000e+00 1.0000000e+01 1.4285715e-01 
0.0000000e+00 1.0000000e+01 2.8571430e-01 
0.0000000e+00 1.0000000e+01 4.2857143e-01 
0.0000000e+00 1.0000000e+01 5.7142860e-01 
0.0000000e+00 1.0000000e+01 7.1428573e-01 
0.0000000e+00 1.0000000e+01 8.5714287e-01 
8.5714287e-01 1.0000000e+01 1.0000000e+00 
7.1428573e-01 1.0000000e+01 1.0000000e+00 
5.7142860e-01 1.0000000e+01 1.0000000e+00 
4.2857143e-01 1.0000000e+01 1.0000000e+00 
2.8571430e-01 1.0000000e+01 1.0000000e+00 
1.4285715e-01 1.0000000e+01 1.0000000e+00 
0.0000000e+00 9.8507462e+00 1.0000000e+00 
0.0000000e+00 9.7014923e+00 1.0000000e+00 
0.0000000e+00 9.5522385e+00 1.0000000e+00 
0.0000000e+00 9.4029846e+00 1.0000000e+00 
0.0000000e+00 9.2537317e+00 1.0000000e+00 
0.0000000e+00 9.1044779e+00 1.0000000e+00 
0.0000000e+00 8.9552240e+00 1.0000000e+00 
0.0000000e+00 8.8059702e+00 1.0000000e+00 
0.0000000e+00 8.6567163e+00 1.0000000e+00 
0.0000000e+00 8.5074625e+00 1.0000000e+00 
0.0000000e+00 8.3582087e+00 1.0000000e+00 
0.0000000e+00 8.2089548e+00 1.0000000e+00 
0.0000000e+00 8.0597019e+00 1.0000000e+00 
0.0000000e+00 7.9104476e+00 1.0000000e+00 
0.0000000e+00 7.7611942e+00 1.0000000e+00 
0.0000000e+00 7.6119404e+00 1.0000000e+00 
0.0000000e+00 7.4626865e+00 1.0000000e+00 
0.0000000e+00 7.3134327e+00 1.0000000e+00 
0.0000000e+00 7.1641793e+00 1.0000000e+00 
0.0000000e+00 7.0149255e+00 1.0000000e+00 
0.0000000e+00 6.8656716e+00 1.0000000e+00 
0.0000000e+00 6.7164178e+00 1.0000000e+00 
0.0000000e+00 6.5671639e+00 1.0000000e+00 
0.0000000e+00 6.4179106e+00 1.0000000e+00 
0.0000000e+00 6.2686567e+00 1.0000000e+00 
0.0000000e+00 6.1194029e+00 1.0000000e+00 
0.0000000e+00 5.9701490e+00 1.0000000e+00 
0.0000000e+00 5.8208957e+00 1.0000000e+00 
0.0000000e+00 5.6716418e+00 1.0000000e+00 
0.0000000e+00 5.5223880e+00 1.0000000e+00 
0.0000000e+00 5.3731341e+00 1.0000000e+00 
0.0000000e+00 5.2238808e+00 1.0000000e+00 
0.0000000e+00 5.0746269e+00 1.0000000e+00 
0.0000000e+00 4.9253731e+00 1.0000000e+00 
0.0000000e+00 4.7761192e+00 1.0000000e+00 
0.0000000e+00 4.6268659e+00 1.0000000e+00 
0.0000000e+00 4.4776120e+00 1.0000000e+00 
0.0000000e+00 4.3283582e+00 1.0000000e+00 
0.0000000e+00 4.1791043e+00 1.0000000e+00 
0.0000000e+00 4.0298510e+00 1.0000000e+00 
0.0000000e+00 3.8805971e+00 1.0000000e+00 
0.0000000e+00 3.7313433e+00 1.0000000e+00 
0.0000000e+00 3.5820897e+00 1.0000000e+00 
0.0000000e+00 3.4328358e+00 1.0000000e+00 
0.0000000e+00 3.2835820e+00 1.0000000e+00 
0.0000000e+00 3.1343284e+00 1.0000000e+00 
0.0000000e+00 2.9850745e+00 1.0000000e+00 
0.0000000e+00 2.8358209e+00 1.0000000e+00 
0.0000000e+00 2.6865671e+00 1.0000000e+00 
0.0000000e+00 2.5373135e+00 1.0000000e+00 
0.0000000e+00 2.3880596e+00 1.0000000e+00 
0.0000000e+00 2.2388060e+00 1.0000000e+00 
0.0000000e+00 2.0895522e+00 1.0000000e+00 
0.0000000e+00 1.9402986e+00 1.0000000e+00 
0.0000000e+00 1.7910448e+00 1.0000000e+00 
0.0000000e+00 1.6417910e+00 1.0000000e+00 
0.0000000e+00 1.4925373e+00 1.0000000e+00 
0.0000000e+00 1.3432835e+00 1.0000000e+00 
0.0000000e+00 1.1940298e+00 1.0000000e+00 
0.0000000e+00 1.0447761e+00 1.0000000e+00 
0.0000000e+00 8.9552242e-01 1.0000000e+00 
0.0000000e+00 7.4626863e-01 1.0000000e+00 
0.0000000e+00 5.9701490e-01 1.0000000e+00 
0.0000000e+00 4.4776121e-01 1.0000000e+00 
0.0000000e+00 2.9850745e-01 1.0000000e+00 
0.0000000e+00 1.4925373e-01 1.0000000e+00 
1.4285715e-01 5.0000000e+00 0.0000000e+00 
2.8571430e-01 5.0000000e+00 0.0000000e+00 
4.2857143e-01 5.0000000e+00 0.0000000e+00 
5.7142860e-01 5.0000000e+00 0.0000000e+00 
7.1428573e-01 5.0000000e+00 0.0000000e+00 
8.5714287e-01 5.0000000e+00 0.0000000e+00 
0.0000000e+00 4.8529410e+00 0.0000000e+00 
0.0000000e+00 4.7058825e+00 0.0000000e+00 
0.0000000e+00 4.5588236e+00 0.0000000e+00 
0.0000000e+00 4.4117646e+00 0.0000000e+00 
0.0000000e+00 4.2647057e+00 0.0000000e+00 
0.0000000e+00 4.1176472e+00 0.0000000e+00 
0.0000000e+00 3.9705882e+00 0.0000000e+00 
0.0000000e+00 3.8235295e+00 0.0000000e+00 
0.0000000e+00 3.6764705e+00 0.0000000e+00 
0.0000000e+00 3.5294118e+00 0.0000000e+00 
0.0000000e+00 3.3823528e+00 0.0000000e+00 
0.0000000e+00 3.2352941e+00 0.0000000e+00 
0.0000000e+00 3.0882354e+00 0.0000000e+00 
0.0000000e+00 2.9411764e+00 0.0000000e+00 
0.0000000e+00 2.7941177e+00 0.0000000e+00 
0.0000000e+00 2.6470587e+00 0.0000000e+00 
0.0000000e+00 2.5000000e+00 0.0000000e+00 
0.0000000e+00 2.3529413e+00 0.0000000e+00 
0.0000000e+00 2.2058823e+00 0.0000000e+00 
0.0000000e+00 2.0588236e+00 0.0000000e+00 
0.0000000e+00 1.9117647e+00 0.0000000e+00 
0.0000000e+00 1.7647059e+00 0.0000000e+00 
0.0000000e+00 1.6176471e+00 0.0000000e+00 
0.0000000e+00 1.4705882e+00 0.0000000e+00 
0.0000000e+00 1.3235294e+00 0.0000000e+00 
0.0000000e+00 1.1764706e+00 0.0000000e+00 
0.0000000e+00 1.0294118e+00 0.0000000e+00 
0.0000000e+00 8.8235295e-01 0.0000000e+00 
0.0000000e+00 7.3529410e-01 0.0000000e+00 
0.0000000e+00 5.8823532e-01 0.0000000e+00 
0.0000000e+00 4.4117647e-01 0.0000000e+00 
0.0000000e+00 2.9411766e-01 0.0000000e+00 
0.0000000e+00 1.4705883e-01 0.0000000e+00 
1.0000000e+00 1.4705883e-01 0.0000000e+00 
[...]
POINT_DATA 3570
FIELD FieldData 2
VELOCITY 3 3570  float
0.0000000e+00 0.0000000e+00 0.0000000e+00 
0.0000000e+00 0.0000000e+00 0.0000000e+00 
0.0000000e+00 -3.6672060e-03 0.0000000e+00 
0.0000000e+00 -3.5015466e-03 0.0000000e+00 
0.0000000e+00 0.0000000e+00 0.0000000e+00 
0.0000000e+00 0.0000000e+00 0.0000000e+00 
0.0000000e+00 -3.3865271e-03 0.0000000e+00 
0.0000000e+00 -3.7650247e-03 0.0000000e+00 
0.0000000e+00 -5.9762760e-04 0.0000000e+00 
0.0000000e+00 -6.0328265e-04 0.0000000e+00 
0.0000000e+00 0.0000000e+00 0.0000000e+00 
0.0000000e+00 0.0000000e+00 0.0000000e+00 
0.0000000e+00 0.0000000e+00 0.0000000e+00 
0.0000000e+00 0.0000000e+00 0.0000000e+00 
0.0000000e+00 0.0000000e+00 0.0000000e+00 
0.0000000e+00 0.0000000e+00 0.0000000e+00 
0.0000000e+00 -3.6000900e-03 0.0000000e+00 
0.0000000e+00 -3.4321959e-03 0.0000000e+00 
0.0000000e+00 -3.7342338e-03 0.0000000e+00 
0.0000000e+00 -3.6060794e-03 0.0000000e+00 
0.0000000e+00 -3.6780487e-03 0.0000000e+00 
0.0000000e+00 -3.5693897e-03 0.0000000e+00 
0.0000000e+00 0.0000000e+00 0.0000000e+00 
0.0000000e+00 0.0000000e+00 0.0000000e+00 
0.0000000e+00 0.0000000e+00 0.0000000e+00 
0.0000000e+00 0.0000000e+00 0.0000000e+00 
0.0000000e+00 0.0000000e+00 0.0000000e+00 
0.0000000e+00 0.0000000e+00 0.0000000e+00 
0.0000000e+00 0.0000000e+00 0.0000000e+00 
0.0000000e+00 0.0000000e+00 0.0000000e+00 
0.0000000e+00 0.0000000e+00 0.0000000e+00 
0.0000000e+00 0.0000000e+00 0.0000000e+00 
0.0000000e+00 0.0000000e+00 0.0000000e+00 
0.0000000e+00 0.0000000e+00 0.0000000e+00 
0.0000000e+00 0.0000000e+00 0.0000000e+00 
0.0000000e+00 0.0000000e+00 0.0000000e+00 
0.0000000e+00 0.0000000e+00 0.0000000e+00 
0.0000000e+00 0.0000000e+00 0.0000000e+00 
0.0000000e+00 0.0000000e+00 0.0000000e+00 
0.0000000e+00 0.0000000e+00 0.0000000e+00 
0.0000000e+00 -3.6372487e-03 0.0000000e+00 
0.0000000e+00 -3.4031577e-03 0.0000000e+00 
0.0000000e+00 -3.5018192e-03 0.0000000e+00 
0.0000000e+00 -3.6608847e-03 0.0000000e+00 
0.0000000e+00 -3.5299733e-03 0.0000000e+00 
0.0000000e+00 -3.4945128e-03 0.0000000e+00 
0.0000000e+00 1.2763993e-04 0.0000000e+00 
0.0000000e+00 1.1942710e-04 0.0000000e+00 
0.0000000e+00 1.9906623e-05 0.0000000e+00 
0.0000000e+00 -1.2908117e-05 0.0000000e+00 
0.0000000e+00 8.3797408e-05 0.0000000e+00 
0.0000000e+00 1.8814385e-04 0.0000000e+00 
0.0000000e+00 1.7348406e-04 0.0000000e+00 
0.0000000e+00 5.2944451e-05 0.0000000e+00 
0.0000000e+00 -4.7857098e-05 0.0000000e+00 
0.0000000e+00 -5.4316984e-05 0.0000000e+00 
0.0000000e+00 -1.0930332e-05 0.0000000e+00 
0.0000000e+00 -1.7774023e-06 0.0000000e+00 
0.0000000e+00 -2.6202846e-05 0.0000000e+00 
0.0000000e+00 -3.4543100e-05 0.0000000e+00 
0.0000000e+00 -4.6638390e-05 0.0000000e+00 
0.0000000e+00 -1.2839047e-04 0.0000000e+00 
0.0000000e+00 -2.3253822e-04 0.0000000e+00 
0.0000000e+00 -2.4130839e-04 0.0000000e+00 
0.0000000e+00 -1.5263840e-04 0.0000000e+00 
0.0000000e+00 -9.7970238e-05 0.0000000e+00 
0.0000000e+00 -1.3022602e-04 0.0000000e+00 
0.0000000e+00 -1.1252740e-04 0.0000000e+00 
0.0000000e+00 7.1596864e-05 0.0000000e+00 
0.0000000e+00 3.0512834e-04 0.0000000e+00 
0.0000000e+00 3.8471934e-04 0.0000000e+00 
0.0000000e+00 3.7138516e-04 0.0000000e+00 
0.0000000e+00 3.8901289e-04 0.0000000e+00 
0.0000000e+00 3.4287048e-04 0.0000000e+00 
0.0000000e+00 9.9825171e-05 0.0000000e+00 
0.0000000e+00 -1.2140012e-04 0.0000000e+00 
0.0000000e+00 -2.0146579e-04 0.0000000e+00 
0.0000000e+00 -3.1715044e-04 0.0000000e+00 
0.0000000e+00 -5.0575368e-04 0.0000000e+00 
0.0000000e+00 -5.7968218e-04 0.0000000e+00 
0.0000000e+00 -5.8478949e-04 0.0000000e+00 
0.0000000e+00 -6.3265290e-04 0.0000000e+00 
0.0000000e+00 -5.1541900e-04 0.0000000e+00 
0.0000000e+00 -2.0430970e-04 0.0000000e+00 
0.0000000e+00 -3.9353934e-05 0.0000000e+00 
0.0000000e+00 -1.3906160e-05 0.0000000e+00 
0.0000000e+00 4.9757648e-05 0.0000000e+00 
0.0000000e+00 1.0181962e-05 0.0000000e+00 
0.0000000e+00 -1.4122568e-04 0.0000000e+00 
0.0000000e+00 -1.8181375e-04 0.0000000e+00 
0.0000000e+00 -1.1785117e-04 0.0000000e+00 
0.0000000e+00 1.5469283e-05 0.0000000e+00 
0.0000000e+00 1.1725171e-04 0.0000000e+00 
0.0000000e+00 4.6915146e-05 0.0000000e+00 
0.0000000e+00 -8.7886343e-05 0.0000000e+00 
0.0000000e+00 -3.0819143e-04 0.0000000e+00 
0.0000000e+00 -6.1945891e-04 0.0000000e+00 
0.0000000e+00 -8.0094341e-04 0.0000000e+00 
0.0000000e+00 -1.1036133e-03 0.0000000e+00 
0.0000000e+00 -1.3880224e-03 0.0000000e+00 
0.0000000e+00 -1.5308628e-03 0.0000000e+00 
0.0000000e+00 -1.7985610e-03 0.0000000e+00 
0.0000000e+00 -2.0495113e-03 0.0000000e+00 
0.0000000e+00 -2.1587061e-03 0.0000000e+00 
0.0000000e+00 -2.3237853e-03 0.0000000e+00 
0.0000000e+00 -2.6571667e-03 0.0000000e+00 
0.0000000e+00 -2.9367846e-03 0.0000000e+00 
0.0000000e+00 -3.1033650e-03 0.0000000e+00 
0.0000000e+00 -3.3767039e-03 0.0000000e+00 
0.0000000e+00 -3.4285435e-03 0.0000000e+00 
0.0000000e+00 -3.2972761e-03 0.0000000e+00 
0.0000000e+00 -3.7791338e-03 0.0000000e+00 
0.0000000e+00 -3.7077616e-03 0.0000000e+00 
0.0000000e+00 -3.2413930e-03 0.0000000e+00 
0.0000000e+00 -3.5148307e-03 0.0000000e+00 
0.0000000e+00 -3.7407230e-03 0.0000000e+00 
0.0000000e+00 -3.3223752e-03 0.0000000e+00 
0.0000000e+00 -3.7230875e-03 0.0000000e+00 
0.0000000e+00 -3.6648167e-03 0.0000000e+00 
0.0000000e+00 -3.7308091e-03 0.0000000e+00 
0.0000000e+00 -3.3868835e-03 0.0000000e+00 
0.0000000e+00 -3.5377473e-03 0.0000000e+00 
0.0000000e+00 -3.4086974e-03 0.0000000e+00 
0.0000000e+00 -3.5271468e-03 0.0000000e+00 
0.0000000e+00 -3.7904475e-03 0.0000000e+00 
0.0000000e+00 -3.6317355e-03 0.0000000e+00 
0.0000000e+00 -3.5328935e-03 0.0000000e+00 
0.0000000e+00 -3.2187828e-03 0.0000000e+00 
0.0000000e+00 -3.1735997e-03 0.0000000e+00 
0.0000000e+00 -3.0965188e-03 0.0000000e+00 
0.0000000e+00 -2.7578487e-03 0.0000000e+00 
0.0000000e+00 -2.5027327e-03 0.0000000e+00 
0.0000000e+00 -2.4202482e-03 0.0000000e+00 
0.0000000e+00 -2.0675131e-03 0.0000000e+00 
0.0000000e+00 -1.7535475e-03 0.0000000e+00 
0.0000000e+00 -1.5970418e-03 0.0000000e+00 
0.0000000e+00 -1.4326462e-03 0.0000000e+00 
0.0000000e+00 -1.1839800e-03 0.0000000e+00 
0.0000000e+00 -8.1935228e-04 0.0000000e+00 
0.0000000e+00 -6.1074540e-04 0.0000000e+00 
0.0000000e+00 -1.7394056e-04 0.0000000e+00 
0.0000000e+00 6.9228285e-05 0.0000000e+00 
0.0000000e+00 1.0347454e-04 0.0000000e+00 
0.0000000e+00 1.6355710e-04 0.0000000e+00 
0.0000000e+00 2.3275930e-05 0.0000000e+00 
0.0000000e+00 -1.5856592e-04 0.0000000e+00 
0.0000000e+00 -2.4826798e-04 0.0000000e+00 
0.0000000e+00 -2.1563226e-04 0.0000000e+00 
0.0000000e+00 -3.7772719e-05 0.0000000e+00 
0.0000000e+00 3.7548729e-05 0.0000000e+00 
0.0000000e+00 -2.5034362e-07 0.0000000e+00 
0.0000000e+00 -1.3733868e-05 0.0000000e+00 
0.0000000e+00 -2.0339372e-04 0.0000000e+00 
0.0000000e+00 -5.0899154e-04 0.0000000e+00 
0.0000000e+00 -6.5569486e-04 0.0000000e+00 
0.0000000e+00 -6.2695955e-04 0.0000000e+00 
0.0000000e+00 -5.7536649e-04 0.0000000e+00 
0.0000000e+00 -4.4910875e-04 0.0000000e+00 
0.0000000e+00 -2.6669513e-04 0.0000000e+00 
0.0000000e+00 -1.6807651e-04 0.0000000e+00 
0.0000000e+00 -9.9850804e-05 0.0000000e+00 
0.0000000e+00 1.0006755e-04 0.0000000e+00 
0.0000000e+00 3.3798965e-04 0.0000000e+00 
0.0000000e+00 4.4006362e-04 0.0000000e+00 
0.0000000e+00 4.5682944e-04 0.0000000e+00 
0.0000000e+00 4.4777742e-04 0.0000000e+00 
0.0000000e+00 3.1245229e-04 0.0000000e+00 
0.0000000e+00 4.8718386e-05 0.0000000e+00 
0.0000000e+00 -1.3157439e-04 0.0000000e+00 
0.0000000e+00 -1.1124237e-04 0.0000000e+00 
0.0000000e+00 -4.6864869e-05 0.0000000e+00 
0.0000000e+00 -1.0984166e-04 0.0000000e+00 
0.0000000e+00 -2.4272621e-04 0.0000000e+00 
0.0000000e+00 -2.6512868e-04 0.0000000e+00 
0.0000000e+00 -1.5138825e-04 0.0000000e+00 
0.0000000e+00 -4.8206806e-05 0.0000000e+00 
0.0000000e+00 -2.7598169e-05 0.0000000e+00 
0.0000000e+00 -2.8999300e-05 0.0000000e+00 
0.0000000e+00 -1.3998658e-05 0.0000000e+00 
0.0000000e+00 -2.5252508e-05 0.0000000e+00 
0.0000000e+00 -7.3927506e-05 0.0000000e+00 
0.0000000e+00 -5.9765705e-05 0.0000000e+00 
0.0000000e+00 4.8033693e-05 0.0000000e+00 
0.0000000e+00 1.6209504e-04 0.0000000e+00 
0.0000000e+00 1.6525628e-04 0.0000000e+00 
0.0000000e+00 6.5130553e-05 0.0000000e+00 
0.0000000e+00 -1.1645527e-05 0.0000000e+00 
0.0000000e+00 4.8441245e-05 0.0000000e+00 
0.0000000e+00 1.6855406e-04 0.0000000e+00 
0.0000000e+00 1.6781475e-04 0.0000000e+00 
0.0000000e+00 -5.6637108e-04 0.0000000e+00 
0.0000000e+00 -5.2621239e-04 0.0000000e+00 
0.0000000e+00 -5.3358800e-04 0.0000000e+00 
0.0000000e+00 -5.2800245e-04 0.0000000e+00 
0.0000000e+00 -4.9129705e-04 0.0000000e+00 
0.0000000e+00 -5.3933152e-04 0.0000000e+00 
0.0000000e+00 -4.1013927e-04 0.0000000e+00 
0.0000000e+00 -2.7841769e-04 0.0000000e+00 
0.0000000e+00 -2.3025644e-04 0.0000000e+00 
0.0000000e+00 -6.2048668e-05 0.0000000e+00 
0.0000000e+00 2.3790300e-04 0.0000000e+00 
0.0000000e+00 4.4144847e-04 0.0000000e+00 
0.0000000e+00 4.7423568e-04 0.0000000e+00 
0.0000000e+00 4.6670812e-04 0.0000000e+00 
0.0000000e+00 4.2601052e-04 0.0000000e+00 
0.0000000e+00 2.5114475e-04 0.0000000e+00 
0.0000000e+00 -4.9940895e-06 0.0000000e+00 
0.0000000e+00 -1.3693962e-04 0.0000000e+00 
0.0000000e+00 -1.0146390e-04 0.0000000e+00 
0.0000000e+00 -7.1799470e-05 0.0000000e+00 
0.0000000e+00 -1.4344162e-04 0.0000000e+00 
0.0000000e+00 -2.0726131e-04 0.0000000e+00 
0.0000000e+00 -1.6281716e-04 0.0000000e+00 
0.0000000e+00 -7.0109774e-05 0.0000000e+00 
0.0000000e+00 -4.3350756e-05 0.0000000e+00 
0.0000000e+00 -7.1233815e-05 0.0000000e+00 
0.0000000e+00 -5.0297022e-05 0.0000000e+00 
0.0000000e+00 2.1777460e-05 0.0000000e+00 
0.0000000e+00 4.4464363e-05 0.0000000e+00 
0.0000000e+00 3.0440028e-06 0.0000000e+00 
0.0000000e+00 -1.9496552e-05 0.0000000e+00 
0.0000000e+00 4.8446171e-05 0.0000000e+00 
0.0000000e+00 1.3409313e-04 0.0000000e+00 
0.0000000e+00 1.2293964e-04 0.0000000e+00 
0.0000000e+00 1.8446271e-05 0.0000000e+00 
0.0000000e+00 -4.5373647e-05 0.0000000e+00 
0.0000000e+00 2.3247096e-05 0.0000000e+00 
0.0000000e+00 1.4039637e-04 0.0000000e+00 
0.0000000e+00 1.4467949e-04 0.0000000e+00 
0.0000000e+00 1.5161934e-04 0.0000000e+00 
0.0000000e+00 1.4917608e-04 0.0000000e+00 
0.0000000e+00 3.2548316e-05 0.0000000e+00 
0.0000000e+00 -2.7771895e-05 0.0000000e+00 
0.0000000e+00 4.9663722e-05 0.0000000e+00 
0.0000000e+00 1.6620048e-04 0.0000000e+00 
0.0000000e+00 1.8020738e-04 0.0000000e+00 
0.0000000e+00 7.6686360e-05 0.0000000e+00 
0.0000000e+00 -3.0330939e-05 0.0000000e+00 
0.0000000e+00 -4.6723540e-05 0.0000000e+00 
0.0000000e+00 -9.9590193e-07 0.0000000e+00 
0.0000000e+00 1.5412690e-05 0.0000000e+00 
0.0000000e+00 -1.6395357e-05 0.0000000e+00 
0.0000000e+00 -4.2586820e-05 0.0000000e+00 
0.0000000e+00 -6.5016618e-05 0.0000000e+00 
0.0000000e+00 -1.3518977e-04 0.0000000e+00 
0.0000000e+00 -2.3251795e-04 0.0000000e+00 
0.0000000e+00 -2.5865095e-04 0.0000000e+00 
0.0000000e+00 -1.6446991e-04 0.0000000e+00 
0.0000000e+00 -8.1087906e-05 0.0000000e+00 
0.0000000e+00 -1.2481540e-04 0.0000000e+00 
0.0000000e+00 -1.5441286e-04 0.0000000e+00 
0.0000000e+00 4.0675359e-06 0.0000000e+00 
0.0000000e+00 2.7758267e-04 0.0000000e+00 
0.0000000e+00 4.4493322e-04 0.0000000e+00 
0.0000000e+00 4.6666199e-04 0.0000000e+00 
0.0000000e+00 4.5847663e-04 0.0000000e+00 
0.0000000e+00 4.2191677e-04 0.0000000e+00 
0.0000000e+00 2.3933288e-04 0.0000000e+00 
0.0000000e+00 -3.2702927e-05 0.0000000e+00 
0.0000000e+00 -1.9496928e-04 0.0000000e+00 
0.0000000e+00 -2.6025172e-04 0.0000000e+00 
0.0000000e+00 -4.1868337e-04 0.0000000e+00 
0.0000000e+00 -3.4466810e-03 0.0000000e+00 
0.0000000e+00 -3.2966277e-03 0.0000000e+00 
0.0000000e+00 -3.7019781e-03 0.0000000e+00 
0.0000000e+00 -3.3811191e-03 0.0000000e+00 
0.0000000e+00 -3.2228406e-03 0.0000000e+00 
0.0000000e+00 -3.0694955e-03 0.0000000e+00 
0.0000000e+00 -2.7132432e-03 0.0000000e+00 
0.0000000e+00 -2.4100763e-03 0.0000000e+00 
0.0000000e+00 -2.2070613e-03 0.0000000e+00 
0.0000000e+00 -1.9884023e-03 0.0000000e+00 
0.0000000e+00 -1.7992252e-03 0.0000000e+00 
0.0000000e+00 -1.6503836e-03 0.0000000e+00 
0.0000000e+00 -1.5282079e-03 0.0000000e+00 
0.0000000e+00 -1.2589105e-03 0.0000000e+00 
0.0000000e+00 -8.5321150e-04 0.0000000e+00 
0.0000000e+00 -6.4006791e-04 0.0000000e+00 
0.0000000e+00 -3.1665593e-04 0.0000000e+00 
0.0000000e+00 -7.2142218e-05 0.0000000e+00 
0.0000000e+00 2.9983379e-05 0.0000000e+00 
0.0000000e+00 8.9545727e-05 0.0000000e+00 
0.0000000e+00 -4.4349828e-05 0.0000000e+00 
0.0000000e+00 -1.3140144e-04 0.0000000e+00 
0.0000000e+00 -1.4733325e-04 0.0000000e+00 
0.0000000e+00 -1.6696472e-04 0.0000000e+00 
0.0000000e+00 -4.0404131e-05 0.0000000e+00 
0.0000000e+00 4.0752537e-05 0.0000000e+00 
0.0000000e+00 -4.8339069e-05 0.0000000e+00 
0.0000000e+00 -6.4288892e-05 0.0000000e+00 
0.0000000e+00 -1.5760836e-04 0.0000000e+00 
0.0000000e+00 -4.2556942e-04 0.0000000e+00 
0.0000000e+00 -5.8165623e-04 0.0000000e+00 
0.0000000e+00 -5.6659570e-04 0.0000000e+00 
0.0000000e+00 -6.0403987e-04 0.0000000e+00 
0.0000000e+00 -6.0330087e-04 0.0000000e+00 
0.0000000e+00 -5.6584581e-04 0.0000000e+00 
0.0000000e+00 -5.4168183e-04 0.0000000e+00 
0.0000000e+00 -3.7526275e-04 0.0000000e+00 
0.0000000e+00 -1.1441475e-04 0.0000000e+00 
0.0000000e+00 -1.7255310e-05 0.0000000e+00 
0.0000000e+00 -6.3740404e-06 0.0000000e+00 
0.0000000e+00 1.5881877e-05 0.0000000e+00 
0.0000000e+00 -9.1240065e-05 0.0000000e+00 
0.0000000e+00 -1.6721367e-04 0.0000000e+00 
0.0000000e+00 -1.2061896e-04 0.0000000e+00 
0.0000000e+00 -1.3073333e-04 0.0000000e+00 
0.0000000e+00 1.6492982e-07 0.0000000e+00 
0.0000000e+00 1.6416721e-04 0.0000000e+00 
0.0000000e+00 7.1956376e-05 0.0000000e+00 
0.0000000e+00 -5.3723084e-05 0.0000000e+00 
0.0000000e+00 -3.3758866e-04 0.0000000e+00 
0.0000000e+00 -7.2797399e-04 0.0000000e+00 
0.0000000e+00 -9.4778999e-04 0.0000000e+00 
0.0000000e+00 -1.2035203e-03 0.0000000e+00 
0.0000000e+00 -1.3780511e-03 0.0000000e+00 
0.0000000e+00 -1.5567775e-03 0.0000000e+00 
0.0000000e+00 -1.8077476e-03 0.0000000e+00 
0.0000000e+00 -2.0450880e-03 0.0000000e+00 
0.0000000e+00 -2.3050294e-03 0.0000000e+00 
0.0000000e+00 -2.4927966e-03 0.0000000e+00 
0.0000000e+00 -2.7193869e-03 0.0000000e+00 
0.0000000e+00 -3.0029761e-03 0.0000000e+00 
0.0000000e+00 -3.0494332e-03 0.0000000e+00 
0.0000000e+00 -3.2825170e-03 0.0000000e+00 
0.0000000e+00 -3.6178052e-03 0.0000000e+00 
0.0000000e+00 -3.4390888e-03 0.0000000e+00 
0.0000000e+00 -3.6709111e-03 0.0000000e+00 
0.0000000e+00 0.0000000e+00 0.0000000e+00 
0.0000000e+00 0.0000000e+00 0.0000000e+00 
0.0000000e+00 0.0000000e+00 0.0000000e+00 
0.0000000e+00 0.0000000e+00 0.0000000e+00 
0.0000000e+00 0.0000000e+00 0.0000000e+00 
0.0000000e+00 0.0000000e+00 0.0000000e+00 
0.0000000e+00 0.0000000e+00 0.0000000e+00 
0.0000000e+00 0.0000000e+00 0.0000000e+00 
0.0000000e+00 0.0000000e+00 0.0000000e+00 
0.0000000e+00 0.0000000e+00 0.0000000e+00 
0.0000000e+00 0.0000000e+00 0.0000000e+00 
0.0000000e+00 0.0000000e+00 0.0000000e+00 
0.0000000e+00 0.0000000e+00 0.0000000e+00 
0.0000000e+00 0.0000000e+00 0.0000000e+00 
0.0000000e+00 0.0000000e+00 0.0000000e+00 
0.0000000e+00 0.0000000e+00 0.0000000e+00 
0.0000000e+00 0.0000000e+00 0.0000000e+00 
0.0000000e+00 0.0000000e+00 0.0000000e+00 
0.0000000e+00 0.0000000e+00 0.0000000e+00 
0.0000000e+00 0.0000000e+00 0.0000000e+00 
0.0000000e+00 0.0000000e+00 0.0000000e+00 
0.0000000e+00 0.0000000e+00 0.0000000e+00 
0.0000000e+00 0.0000000e+00 0.0000000e+00 
0.0000000e+00 0.0000000e+00 0.0000000e+00 
0.0000000e+00 0.0000000e+00 0.0000000e+00 
0.0000000e+00 0.0000000e+00 0.0000000e+00 
0.0000000e+00 0.0000000e+00 0.0000000e+00 
0.0000000e+00 0.0000000e+00 0.0000000e+00 
0.0000000e+00 0.0000000e+00 0.0000000e+00 
0.0000000e+00 0.0000000e+00 0.0000000e+00 
0.0000000e+00 0.0000000e+00 0.0000000e+00 
0.0000000e+00 0.0000000e+00 0.0000000e+00 
0.0000000e+00 0.0000000e+00 0.0000000e+00 
0.0000000e+00 0.0000000e+00 0.0000000e+00 
0.0000000e+00 0.0000000e+00 0.0000000e+00 
0.0000000e+00 0.0000000e+00 0.0000000e+00 
0.0000000e+00 0.0000000e+00 0.0000000e+00 
0.0000000e+00 0.0000000e+00 0.0000000e+00 
0.0000000e+00 0.0000000e+00 0.0000000e+00 
0.0000000e+00 0.0000000e+00 0.0000000e+00 
0.0000000e+00 0.0000000e+00 0.0000000e+00 
0.0000000e+00 0.0000000e+00 0.0000000e+00 
0.0000000e+00 0.0000000e+00 0.0000000e+00 
0.0000000e+00 0.0000000e+00 0.0000000e+00 
0.0000000e+00 0.0000000e+00 0.0000000e+00 
0.0000000e+00 0.0000000e+00 0.0000000e+00 
0.0000000e+00 -3.6466452e-03 0.0000000e+00 
0.0000000e+00 1.2208505e-04 0.0000000e+00 
0.0000000e+00 -3.2576656e-03 0.0000000e+00 
0.0000000e+00 1.0609029e-05 0.0000000e+00 
0.0000000e+00 -2.6648589e-03 0.0000000e+00 
0.0000000e+00 1.3874299e-04 0.0000000e+00 
0.0000000e+00 -1.8453152e-03 0.0000000e+00 
0.0000000e+00 -2.3125100e-05 0.0000000e+00 
0.0000000e+00 -1.3214727e-03 0.0000000e+00 
0.0000000e+00 -1.5471154e-05 0.0000000e+00 
0.0000000e+00 -4.4604816e-04 0.0000000e+00 
0.0000000e+00 -1.9071641e-04 0.0000000e+00 
0.0000000e+00 -8.5055639e-05 0.0000000e+00 
0.0000000e+00 1.4735346e-04 0.0000000e+00 
0.0000000e+00 -1.5004052e-04 0.0000000e+00 
0.0000000e+00 -9.7653930e-05 0.0000000e+00 
0.0000000e+00 -1.2003476e-05 0.0000000e+00 
0.0000000e+00 4.6684936e-04 0.0000000e+00 
0.0000000e+00 -6.9961265e-05 0.0000000e+00 
0.0000000e+00 3.7292647e-04 0.0000000e+00 
0.0000000e+00 -5.8410189e-04 0.0000000e+00 
0.0000000e+00 -2.3255672e-04 0.0000000e+00 
0.0000000e+00 -5.6144461e-04 0.0000000e+00 
0.0000000e+00 -1.1412787e-05 0.0000000e+00 
0.0000000e+00 -3.7430890e-04 0.0000000e+00 
0.0000000e+00 4.1597607e-04 0.0000000e+00 
0.0000000e+00 -9.8294850e-06 0.0000000e+00 
0.0000000e+00 -1.6753940e-04 0.0000000e+00 
0.0000000e+00 1.9813400e-04 0.0000000e+00 
0.0000000e+00 7.1278082e-05 0.0000000e+00 
0.0000000e+00 -7.8116012e-05 0.0000000e+00 
0.0000000e+00 -9.9811645e-05 0.0000000e+00 
0.0000000e+00 -2.3826516e-04 0.0000000e+00 
0.0000000e+00 -9.3385763e-04 0.0000000e+00 
0.0000000e+00 -3.0564512e-05 0.0000000e+00 
0.0000000e+00 -1.7145254e-03 0.0000000e+00 
0.0000000e+00 1.7075265e-05 0.0000000e+00 
0.0000000e+00 -2.3501159e-03 0.0000000e+00 
0.0000000e+00 -1.2047541e-05 0.0000000e+00 
0.0000000e+00 -3.0038389e-03 0.0000000e+00 
0.0000000e+00 1.4866312e-04 0.0000000e+00 
0.0000000e+00 -1.1140281e-05 0.0000000e+00 
0.0000000e+00 -3.4347470e-03 0.0000000e+00 
0.0000000e+00 -6.2161480e-04 0.0000000e+00 
0.0000000e+00 -2.1894048e-04 0.0000000e+00 
0.0000000e+00 -5.1755237e-04 0.0000000e+00 
0.0000000e+00 -3.4615484e-03 0.0000000e+00 
0.0000000e+00 9.4044924e-05 0.0000000e+00 
0.0000000e+00 -3.5872015e-03 0.0000000e+00 
0.0000000e+00 1.4827063e-04 0.0000000e+00 
0.0000000e+00 -3.5453881e-03 0.0000000e+00 
0.0000000e+00 1.4417384e-04 0.0000000e+00 
0.0000000e+00 -3.4857939e-03 0.0000000e+00 
0.0000000e+00 -3.4784572e-03 0.0000000e+00 
0.0000000e+00 -3.3754802e-03 0.0000000e+00 
0.0000000e+00 -3.5203202e-03 0.0000000e+00 
0.0000000e+00 -3.2719795e-03 0.0000000e+00 
0.0000000e+00 -3.3151545e-03 0.0000000e+00 
0.0000000e+00 -3.1747192e-03 0.0000000e+00 
0.0000000e+00 -3.3694811e-03 0.0000000e+00 
0.0000000e+00 -3.1140768e-03 0.0000000e+00 
0.0000000e+00 -3.0155804e-03 0.0000000e+00 
0.0000000e+00 -2.9048217e-03 0.0000000e+00 
0.0000000e+00 -2.7958313e-03 0.0000000e+00 
0.0000000e+00 -2.6137615e-03 0.0000000e+00 
0.0000000e+00 -2.5524101e-03 0.0000000e+00 
0.0000000e+00 -2.3680602e-03 0.0000000e+00 
0.0000000e+00 -2.2382389e-03 0.0000000e+00 
0.0000000e+00 -2.2060496e-03 0.0000000e+00 
0.0000000e+00 -1.9851970e-03 0.0000000e+00 
0.0000000e+00 -1.9796947e-03 0.0000000e+00 
0.0000000e+00 -1.8434251e-03 0.0000000e+00 
0.0000000e+00 -1.7364059e-03 0.0000000e+00 
0.0000000e+00 -1.6049888e-03 0.0000000e+00 
0.0000000e+00 -1.4805547e-03 0.0000000e+00 
0.0000000e+00 -1.3615133e-03 0.0000000e+00 
0.0000000e+00 -1.2765669e-03 0.0000000e+00 
0.0000000e+00 -1.1267978e-03 0.0000000e+00 
0.0000000e+00 -1.0282935e-03 0.0000000e+00 
0.0000000e+00 -8.3175395e-04 0.0000000e+00 
0.0000000e+00 -6.7315943e-04 0.0000000e+00 
0.0000000e+00 -5.3199596e-04 0.0000000e+00 