# vtk DataFile Version 4.0
vtk output
ASCII
DATASET UNSTRUCTURED_GRID
POINTS 3570 float
0.0000000e+00 0.0000000e+00 0.0000000e+00 
1.0000000e+00 0.0000000e+00 0.0000000e+00 
1.0000000e+00 1.0000000e+01 0.0000000e+00 
0.0000000e+00 1.0000000e+01 0.0000000e+00 
0.0000000e+00 0.0000000e+00 1.0000000e+00 
1.0000000e+00 0.0000000e+00 1.0000000e+00 
1.0000000e+00 1.0000000e+01 1.0000000e+00 
0.0000000e+00 1.0000000e+01 1.0000000e+00 
0.0000000e+00 5.0000000e+00 0.0000000e+00 
1.0000000e+00 5.0000000e+00 0.0000000e+00 
1.4285715e-01 0.0000000e+00 0.0000000e+00 
2.8571430e-01 0.0000000e+00 0.0000000e+00 
4.2857143e-01 0.0000000e+00 0.0000000e+00 
5.7142860e-01 0.0000000e+00 0.0000000e+00 
7.1428573e-01 0.0000000e+00 0.0000000e+00 
8.5714287e-01 0.0000000e+00 0.0000000e+00 
8.5714287e-01 1.0000000e+01 0.0000000e+00 
7.1428573e-01 1.0000000e+01 0.0000000e+00 
5.7142860e-01 1.0000000e+01 0.0000000e+00 
4.2857143e-01 1.0000000e+01 0.0000000e+00 
2.8571430e-01 1.0000000e+01 0.0000000e+00 
1.4285715e-01 1.0000000e+01 0.0000000e+00 
0.0000000e+00 0.0000000e+00 1.4285715e-01 
0.0000000e+00 0.0000000e+00 2.8571430e-01 
0.0000000e+00 0.0000000e+00 4.2857143e-01 
0.0000000e+00 0.0000000e+00 5.7142860e-01 
0.0000000e+00 0.0000000e+00 7.1428573e-01 
0.0000000e+00 0.0000000e+00 8.5714287e-01 
1.0000000e+00 0.0000000e+00 1.4285715e-01 
1.0000000e+00 0.0000000e+00 2.8571430e-01 
1.0000000e+00 0.0000000e+00 4.2857143e-01 
1.0000000e+00 0.0000000e+00 5.7142860e-01 
1.0000000e+00 0.0000000e+00 7.1428573e-01 
1.0000000e+00 0.0000000e+00 8.5714287e-01 
1.4285715e-01 0.0000000e+00 1.0000000e+00 
2.8571430e-01 0.0000000e+00 1.0000000e+00 
4.2857143e-01 0.0000000e+00 1.0000000e+00 
5.7142860e-01 0.0000000e+00 1.0000000e+00 
7.1428573e-01 0.0000000e+00 1.0000000e+00 
8.5714287e-01 0.0000000e+00 1.0000000e+00 
1.0000000e+00 1.0000000e+01 1.4285715e-01 
1.0000000e+00 1.0000000e+01 2.8571430e-01 
1.0000000e+00 1.0000000e+01 4.2857143e-01 
1.0000000e+00 1.0000000e+01 5.7142860e-01 
1.0000000e+00 1.0000000e+01 7.1428573e-01 
1.0000000e+00 1.0000000e+01 8.5714287e-01 
1.0000000e+00 1.4925373e-01 1.0000000e+00 
1.0000000e+00 2.9850745e-01 1.0000000e+00 
1.0000000e+00 4.4776121e-01 1.0000000e+00 
1.0000000e+00 5.9701490e-01 1.0000000e+00 
1.0000000e+00 7.4626863e-01 1.0000000e+00 
1.0000000e+00 8.9552242e-01 1.0000000e+00 
1.0000000e+00 1.0447761e+00 1.0000000e+00 
1.0000000e+00 1.1940298e+00 1.0000000e+00 
1.0000000e+00 1.3432835e+00 1.0000000e+00 
1.0000000e+00 1.4925373e+00 1.0000000e+00 
1.0000000e+00 1.6417910e+00 1.0000000e+00 
1.0000000e+00 1.7910448e+00 1.0000000e+00 
1.0000000e+00 1.9402986e+00 1.0000000e+00 
1.0000000e+00 2.0895522e+00 1.0000000e+00 
1.0000000e+00 2.2388060e+00 1.0000000e+00 
1.0000000e+00 2.3880596e+00 1.0000000e+00 
1.0000000e+00 2.5373135e+00 1.0000000e+00 
1.0000000e+00 2.6865671e+00 1.0000000e+00 
1.0000000e+00 2.8358209e+00 1.0000000e+00 
1.0000000e+00 2.9850745e+00 1.0000000e+00 
1.0000000e+00 3.1343284e+00 1.0000000e+00 
1.0000000e+00 3.2835820e+00 1.0000000e+00 
1.0000000e+00 3.4328358e+00 1.0000000e+00 
1.0000000e+00 3.5820897e+00 1.0000000e+00 
1.0000000e+00 3.7313433e+00 1.0000000e+00 
1.0000000e+00 3.8805971e+00 1.0000000e+00 
1.0000000e+00 4.0298510e+00 1.0000000e+00 
1.0000000e+00 4.1791043e+00 1.0000000e+00 
1.0000000e+00 4.3283582e+00 1.0000000e+00 
1.0000000e+00 4.4776120e+00 1.0000000e+00 
1.0000000e+00 4.6268659e+00 1.0000000e+00 
1.0000000e+00 4.7761192e+00 1.0000000e+00 
1.0000000e+00 4.9253731e+00 1.0000000e+00 
1.0000000e+00 5.0746269e+00 1.0000000e+00 
1.0000000e+00 5.2238808e+00 1.0000000e+00 
1.0000000e+00 5.3731341e+00 1.0000000e+00 
1.0000000e+00 5.5223880e+00 1.0000000e+00 
1.0000000e+00 5.6716418e+00 1.0000000e+00 
1.0000000e+00 5.8208957e+00 1.0000000e+00 
1.0000000e+00 5.9701490e+00 1.0000000e+00 
1.0000000e+00 6.1194029e+00 1.0000000e+00 
1.0000000e+00 6.2686567e+00 1.0000000e+00 
1.0000000e+00 6.4179106e+00 1.0000000e+00 
1.0000000e+00 6.5671639e+00 1.0000000e+00 
1.0000000e+00 6.7164178e+00 1.0000000e+00 
1.0000000e+00 6.8656716e+00 1.0000000e+00 
1.0000000e+00 7.0149255e+00 1.0000000e+00 
1.0000000e+00 7.1641793e+00 1.0000000e+00 
1.0000000e+00 7.3134327e+00 1.0000000e+00 
1.0000000e+00 7.4626865e+00 1.0000000e+00 
1.0000000e+00 7.6119404e+00 1.0000000e+00 
1.0000000e+00 7.7611942e+00 1.0000000e+00 
1.0000000e+00 7.9104476e+00 1.0000000e+00 
1.0000000e+00 8.0597019e+00 1.0000000e+00 
1.0000000e+00 8.2089548e+00 1.0000000e+00 
1.0000000e+00 8.3582087e+00 1.0000000e+00 
1.0000000e+00 8.5074625e+00 1.0000000e+00 
1.0000000e+00 8.6567163e+00 1.0000000e+00 
1.0000000e+00 8.8059702e+00 1.0000000e+00 
1.0000000e+00 8.9552240e+00 1.0000000e+00 
1.0000000e+00 9.1044779e+00 1.0000000e+00 
1.0000000e+00 9.2537317e+00 1.0000000e+00 
1.0000000e+00 9.4029846e+00 1.0000000e+00 
1.0000000e+00 9.5522385e+00 1.0000000e+00 
1.0000000e+00 9.7014923e+00 1.0000000e+00 
1.0000000e+00 9.8507462e+00 1.0000000e+00 
0.0000000e+00 1.0000000e+01 1.4285715e-01 
0.0000000e+00 1.0000000e+01 2.8571430e-01 
0.0000000e+00 1.0000000e+01 4.2857143e-01 
0.0000000e+00 1.0000000e+01 5.7142860e-01 
0.0000000e+00 1.0000000e+01 7.1428573e-01 
0.0000000e+00 1.0000000e+01 8.5714287e-01 
8.5714287e-01 1.0000000e+01 1.0000000e+00 
7.1428573e-01 1.0000000e+01 1.0000000e+00 
5.7142860e-01 1.0000000e+01 1.0000000e+00 
4.2857143e-01 1.0000000e+01 1.0000000e+00 
2.8571430e-01 1.0000000e+01 1.0000000e+00 
1.4285715e-01 1.0000000e+01 1.0000000e+00 
0.0000000e+00 9.8507462e+00 1.0000000e+00 
0.0000000e+00 9.7014923e+00 1.0000000e+00 
0.0000000e+00 9.5522385e+00 1.0000000e+00 
0.0000000e+00 9.4029846e+00 1.0000000e+00 
0.0000000e+00 9.2537317e+00 1.0000000e+00 
0.0000000e+00 9.1044779e+00 1.0000000e+00 
0.0000000e+00 8.9552240e+00 1.0000000e+00 
0.0000000e+00 8.8059702e+00 1.0000000e+00 
0.0000000e+00 8.6567163e+00 1.0000000e+00 
0.0000000e+00 8.5074625e+00 1.0000000e+00 
0.0000000e+00 8.3582087e+00 1.0000000e+00 
0.0000000e+00 8.2089548e+00 1.0000000e+00 
0.0000000e+00 8.0597019e+00 1.0000000e+00 
0.0000000e+00 7.9104476e+00 1.0000000e+00 
0.0000000e+00 7.7611942e+00 1.0000000e+00 
0.0000000e+00 7.6119404e+00 1.0000000e+00 
0.0000000e+00 7.4626865e+00 1.0000000e+00 
0.0000000e+00 7.3134327e+00 1.0000000e+00 
0.0000000e+00 7.1641793e+00 1.0000000e+00 
0.0000000e+00 7.0149255e+00 1.0000000e+00 
0.0000000e+00 6.8656716e+00 1.0000000e+00 
0.0000000e+00 6.7164178e+00 1.0000000e+00 
0.0000000e+00 6.5671639e+00 1.0000000e+00 
0.0000000e+00 6.4179106e+00 1.0000000e+00 
0.0000000e+00 6.2686567e+00 1.0000000e+00 
0.0000000e+00 6.1194029e+00 1.0000000e+00 
0.0000000e+00 5.9701490e+00 1.0000000e+00 
0.0000000e+00 5.8208957e+00 1.0000000e+00 
0.0000000e+00 5.6716418e+00 1.0000000e+00 
0.0000000e+00 5.5223880e+00 1.0000000e+00 
0.0000000e+00 5.3731341e+00 1.0000000e+00 
0.0000000e+00 5.2238808e+00 1.0000000e+00 
0.0000000e+00 5.0746269e+00 1.0000000e+00 
0.0000000e+00 4.9253731e+00 1.0000000e+00 
0.0000000e+00 4.7761192e+00 1.0000000e+00 
0.0000000e+00 4.6268659e+00 1.0000000e+00 
0.0000000e+00 4.4776120e+00 1.0000000e+00 
0.0000000e+00 4.3283582e+00 1.0000000e+00 
0.0000000e+00 4.1791043e+00 1.0000000e+00 
0.0000000e+00 4.0298510e+00 1.0000000e+00 
0.0000000e+00 3.8805971e+00 1.0000000e+00 
0.0000000e+00 3.7313433e+00 1.0000000e+00 
0.0000000e+00 3.5820897e+00 1.0000000e+00 
0.0000000e+00 3.4328358e+00 1.0000000e+00 
0.0000000e+00 3.2835820e+00 1.0000000e+00 
0.0000000e+00 3.1343284e+00 1.0000000e+00 
0.0000000e+00 2.9850745e+00 1.0000000e+00 
0.0000000e+00 2.8358209e+00 1.0000000e+00 
0.0000000e+00 2.6865671e+00 1.0000000e+00 
0.0000000e+00 2.5373135e+00 1.0000000e+00 
0.0000000e+00 2.3880596e+00 1.0000000e+00 
0.0000000e+00 2.2388060e+00 1.0000000e+00 
0.0000000e+00 2.0895522e+00 1.0000000e+00 
0.0000000e+00 1.9402986e+00 1.0000000e+00 
0.0000000e+00 1.7910448e+00 1.0000000e+00 
0.0000000e+00 1.6417910e+00 1.0000000e+00 
0.0000000e+00 1.4925373e+00 1.0000000e+00 
0.0000000e+00 1.3432835e+00 1.0000000e+00 
0.0000000e+00 1.1940298e+00 1.0000000e+00 
0.0000000e+00 1.0447761e+00 1.0000000e+00 
0.0000000e+00 8.9552242e-01 1.0000000e+00 
0.0000000e+00 7.4626863e-01 1.0000000e+00 
0.0000000e+00 5.9701490e-01 1.0000000e+00 
0.0000000e+00 4.4776121e-01 1.0000000e+00 
0.0000000e+00 2.9850745e-01 1.0000000e+00 
0.0000000e+00 1.4925373e-01 1.0000000e+00 
1.4285715e-01 5.0000000e+00 0.0000000e+00 
2.8571430e-01 5.0000000e+00 0.0000000e+00 
4.2857143e-01 5.0000000e+00 0.0000000e+00 
5.7142860e-01 5.0000000e+00 0.0000000e+00 
7.1428573e-01 5.0000000e+00 0.0000000e+00 
8.5714287e-01 5.0000000e+00 0.0000000e+00 
0.0000000e+00 4.8529410e+00 0.0000000e+00 
0.0000000e+00 4.7058825e+00 0.0000000e+00 
0.0000000e+00 4.5588236e+00 0.0000000e+00 
0.0000000e+00 4.4117646e+00 0.0000000e+00 
0.0000000e+00 4.2647057e+00 0.0000000e+00 
0.0000000e+00 4.1176472e+00 0.0000000e+00 
0.0000000e+00 3.9705882e+00 0.0000000e+00 
0.0000000e+00 3.8235295e+00 0.0000000e+00 
0.0000000e+00 3.6764705e+00 0.0000000e+00 
0.0000000e+00 3.5294118e+00 0.0000000e+00 
0.0000000e+00 3.3823528e+00 0.0000000e+00 
0.0000000e+00 3.2352941e+00 0.0000000e+00 
0.0000000e+00 3.0882354e+00 0.0000000e+00 
0.0000000e+00 2.9411764e+00 0.0000000e+00 
0.0000000e+00 2.7941177e+00 0.0000000e+00 
0.0000000e+00 2.6470587e+00 0.0000000e+00 
0.0000000e+00 2.5000000e+00 0.0000000e+00 
0.0000000e+00 2.3529413e+00 0.0000000e+00 
0.0000000e+00 2.2058823e+00 0.0000000e+00 
0.0000000e+00 2.0588236e+00 0.0000000e+00 
0.0000000e+00 1.9117647e+00 0.0000000e+00 
0.0000000e+00 1.7647059e+00 0.0000000e+00 
0.0000000e+00 1.6176471e+00 0.0000000e+00 
0.0000000e+00 1.4705882e+00 0.0000000e+00 
0.0000000e+00 1.3235294e+00 0.0000000e+00 
0.0000000e+00 1.1764706e+00 0.0000000e+00 
0.0000000e+00 1.0294118e+00 0.0000000e+00 
0.0000000e+00 8.8235295e-01 0.0000000e+00 
0.0000000e+00 7.3529410e-01 0.0000000e+00 
0.0000000e+00 5.8823532e-01 0.0000000e+00 
0.0000000e+00 4.4117647e-01 0.0000000e+00 
0.0000000e+00 2.9411766e-01 0.0000000e+00 
0.0000000e+00 1.4705883e-01 0.0000000e+00 
1.0000000e+00 1.4705883e-01 0.0000000e+00 
[...]
POINT_DATA 3570
FIELD FieldData 2
VELOCITY 3 3570  float
0.0000000e+00 0.0000000e+00 0.0000000e+00 
0.0000000e+00 0.0000000e+00 0.0000000e+00 
0.0000000e+00 2.7485644e-03 0.0000000e+00 
0.0000000e+00 2.6063561e-03 0.0000000e+00 
0.0000000e+00 0.0000000e+00 0.0000000e+00 
0.0000000e+00 0.0000000e+00 0.0000000e+00 
0.0000000e+00 2.6703831e-03 0.0000000e+00 
0.0000000e+00 2.6273837e-03 0.0000000e+00 
0.0000000e+00 2.6153200e-03 0.0000000e+00 
0.0000000e+00 2.6177675e-03 0.0000000e+00 
0.0000000e+00 0.0000000e+00 0.0000000e+00 
0.0000000e+00 0.0000000e+00 0.0000000e+00 
0.0000000e+00 0.0000000e+00 0.0000000e+00 
0.0000000e+00 0.0000000e+00 0.0000000e+00 
0.0000000e+00 0.0000000e+00 0.0000000e+00 
0.0000000e+00 0.0000000e+00 0.0000000e+00 
0.0000000e+00 2.5404321e-03 0.0000000e+00 
0.0000000e+00 2.4996104e-03 0.0000000e+00 
0.0000000e+00 2.4763742e-03 0.0000000e+00 
0.0000000e+00 2.5083080e-03 0.0000000e+00 
0.0000000e+00 2.5623469e-03 0.0000000e+00 
0.0000000e+00 2.4260706e-03 0.0000000e+00 
0.0000000e+00 0.0000000e+00 0.0000000e+00 
0.0000000e+00 0.0000000e+00 0.0000000e+00 
0.0000000e+00 0.0000000e+00 0.0000000e+00 
0.0000000e+00 0.0000000e+00 0.0000000e+00 
0.0000000e+00 0.0000000e+00 0.0000000e+00 
0.0000000e+00 0.0000000e+00 0.0000000e+00 
0.0000000e+00 0.0000000e+00 0.0000000e+00 
0.0000000e+00 0.0000000e+00 0.0000000e+00 
0.0000000e+00 0.0000000e+00 0.0000000e+00 
0.0000000e+00 0.0000000e+00 0.0000000e+00 
0.0000000e+00 0.0000000e+00 0.0000000e+00 
0.0000000e+00 0.0000000e+00 0.0000000e+00 
0.0000000e+00 0.0000000e+00 0.0000000e+00 
0.0000000e+00 0.0000000e+00 0.0000000e+00 
0.0000000e+00 0.0000000e+00 0.0000000e+00 
0.0000000e+00 0.0000000e+00 0.0000000e+00 
0.0000000e+00 0.0000000e+00 0.0000000e+00 
0.0000000e+00 0.0000000e+00 0.0000000e+00 
0.0000000e+00 2.6736485e-03 0.0000000e+00 
0.0000000e+00 2.4571929e-03 0.0000000e+00 
0.0000000e+00 2.6442169e-03 0.0000000e+00 
0.0000000e+00 2.4398726e-03 0.0000000e+00 
0.0000000e+00 2.7026415e-03 0.0000000e+00 
0.0000000e+00 2.5483537e-03 0.0000000e+00 
0.0000000e+00 2.7126438e-04 0.0000000e+00 
0.0000000e+00 6.6003040e-04 0.0000000e+00 
0.0000000e+00 1.0159654e-03 0.0000000e+00 
0.0000000e+00 1.2064731e-03 0.0000000e+00 
0.0000000e+00 1.3373075e-03 0.0000000e+00 
0.0000000e+00 1.5339939e-03 0.0000000e+00 
0.0000000e+00 1.6823310e-03 0.0000000e+00 
0.0000000e+00 1.7429441e-03 0.0000000e+00 
0.0000000e+00 1.8331860e-03 0.0000000e+00 
0.0000000e+00 1.9987759e-03 0.0000000e+00 
0.0000000e+00 2.1407474e-03 0.0000000e+00 
0.0000000e+00 2.2669283e-03 0.0000000e+00 
0.0000000e+00 2.4872830e-03 0.0000000e+00 
0.0000000e+00 2.7367733e-03 0.0000000e+00 
0.0000000e+00 2.9514420e-03 0.0000000e+00 
0.0000000e+00 3.1856021e-03 0.0000000e+00 
0.0000000e+00 3.4294752e-03 0.0000000e+00 
0.0000000e+00 3.6019657e-03 0.0000000e+00 
0.0000000e+00 3.6919601e-03 0.0000000e+00 
0.0000000e+00 3.6962649e-03 0.0000000e+00 
0.0000000e+00 3.5482221e-03 0.0000000e+00 
0.0000000e+00 3.3339493e-03 0.0000000e+00 
0.0000000e+00 3.2246544e-03 0.0000000e+00 
0.0000000e+00 3.1673266e-03 0.0000000e+00 
0.0000000e+00 3.1021254e-03 0.0000000e+00 
0.0000000e+00 3.0748446e-03 0.0000000e+00 
0.0000000e+00 3.0359032e-03 0.0000000e+00 
0.0000000e+00 2.9412645e-03 0.0000000e+00 
0.0000000e+00 2.8217600e-03 0.0000000e+00 
0.0000000e+00 2.6405954e-03 0.0000000e+00 
0.0000000e+00 2.5170953e-03 0.0000000e+00 
0.0000000e+00 2.5717861e-03 0.0000000e+00 
0.0000000e+00 2.6507876e-03 0.0000000e+00 
0.0000000e+00 2.6907804e-03 0.0000000e+00 
0.0000000e+00 2.6523343e-03 0.0000000e+00 
0.0000000e+00 2.5148392e-03 0.0000000e+00 
0.0000000e+00 2.4090661e-03 0.0000000e+00 
0.0000000e+00 2.3462838e-03 0.0000000e+00 
0.0000000e+00 2.3248510e-03 0.0000000e+00 
0.0000000e+00 2.3588815e-03 0.0000000e+00 
0.0000000e+00 2.4059920e-03 0.0000000e+00 
0.0000000e+00 2.4930709e-03 0.0000000e+00 
0.0000000e+00 2.5861666e-03 0.0000000e+00 
0.0000000e+00 2.6737445e-03 0.0000000e+00 
0.0000000e+00 2.7452866e-03 0.0000000e+00 
0.0000000e+00 2.6873364e-03 0.0000000e+00 
0.0000000e+00 2.5881685e-03 0.0000000e+00 
0.0000000e+00 2.5975753e-03 0.0000000e+00 
0.0000000e+00 2.7175562e-03 0.0000000e+00 
0.0000000e+00 2.7532540e-03 0.0000000e+00 
0.0000000e+00 2.8085385e-03 0.0000000e+00 
0.0000000e+00 2.8418556e-03 0.0000000e+00 
0.0000000e+00 3.0347751e-03 0.0000000e+00 
0.0000000e+00 3.4447759e-03 0.0000000e+00 
0.0000000e+00 3.5837602e-03 0.0000000e+00 
0.0000000e+00 3.5058511e-03 0.0000000e+00 
0.0000000e+00 3.3633586e-03 0.0000000e+00 
0.0000000e+00 3.1531497e-03 0.0000000e+00 
0.0000000e+00 2.9917418e-03 0.0000000e+00 
0.0000000e+00 2.8426426e-03 0.0000000e+00 
0.0000000e+00 2.7082474e-03 0.0000000e+00 
0.0000000e+00 2.4516529e-03 0.0000000e+00 
0.0000000e+00 2.3534663e-03 0.0000000e+00 
0.0000000e+00 2.3162712e-03 0.0000000e+00 
0.0000000e+00 2.3099976e-03 0.0000000e+00 
0.0000000e+00 2.5526453e-03 0.0000000e+00 
0.0000000e+00 2.6042343e-03 0.0000000e+00 
0.0000000e+00 2.4054800e-03 0.0000000e+00 
0.0000000e+00 2.5440187e-03 0.0000000e+00 
0.0000000e+00 2.5138324e-03 0.0000000e+00 
0.0000000e+00 2.5620635e-03 0.0000000e+00 
0.0000000e+00 2.5037327e-03 0.0000000e+00 
0.0000000e+00 2.4816189e-03 0.0000000e+00 
0.0000000e+00 2.7052334e-03 0.0000000e+00 
0.0000000e+00 2.4355231e-03 0.0000000e+00 
0.0000000e+00 2.5672349e-03 0.0000000e+00 
0.0000000e+00 2.5187358e-03 0.0000000e+00 
0.0000000e+00 2.6109631e-03 0.0000000e+00 
0.0000000e+00 2.4779958e-03 0.0000000e+00 
0.0000000e+00 2.2705614e-03 0.0000000e+00 
0.0000000e+00 2.3401969e-03 0.0000000e+00 
0.0000000e+00 2.3387687e-03 0.0000000e+00 
0.0000000e+00 2.6008713e-03 0.0000000e+00 
0.0000000e+00 2.6682948e-03 0.0000000e+00 
0.0000000e+00 2.9151957e-03 0.0000000e+00 
0.0000000e+00 2.9250968e-03 0.0000000e+00 
0.0000000e+00 3.0867730e-03 0.0000000e+00 
0.0000000e+00 3.4278573e-03 0.0000000e+00 
0.0000000e+00 3.5051699e-03 0.0000000e+00 
0.0000000e+00 3.5273714e-03 0.0000000e+00 
0.0000000e+00 3.3815729e-03 0.0000000e+00 
0.0000000e+00 3.1904546e-03 0.0000000e+00 
0.0000000e+00 2.9898081e-03 0.0000000e+00 
0.0000000e+00 2.8429751e-03 0.0000000e+00 
0.0000000e+00 2.7195774e-03 0.0000000e+00 
0.0000000e+00 2.6658978e-03 0.0000000e+00 
0.0000000e+00 2.6598459e-03 0.0000000e+00 
0.0000000e+00 2.6423594e-03 0.0000000e+00 
0.0000000e+00 2.6204437e-03 0.0000000e+00 
0.0000000e+00 2.6699686e-03 0.0000000e+00 
0.0000000e+00 2.6819236e-03 0.0000000e+00 
0.0000000e+00 2.5797277e-03 0.0000000e+00 
0.0000000e+00 2.4575619e-03 0.0000000e+00 
0.0000000e+00 2.3990162e-03 0.0000000e+00 
0.0000000e+00 2.4565991e-03 0.0000000e+00 
0.0000000e+00 2.4607023e-03 0.0000000e+00 
0.0000000e+00 2.4213172e-03 0.0000000e+00 
0.0000000e+00 2.3840598e-03 0.0000000e+00 
0.0000000e+00 2.5103895e-03 0.0000000e+00 
0.0000000e+00 2.6873844e-03 0.0000000e+00 
0.0000000e+00 2.7002008e-03 0.0000000e+00 
0.0000000e+00 2.6213482e-03 0.0000000e+00 
0.0000000e+00 2.5635143e-03 0.0000000e+00 
0.0000000e+00 2.5809531e-03 0.0000000e+00 
0.0000000e+00 2.7192263e-03 0.0000000e+00 
0.0000000e+00 2.8627363e-03 0.0000000e+00 
0.0000000e+00 2.9193216e-03 0.0000000e+00 
0.0000000e+00 2.9785670e-03 0.0000000e+00 
0.0000000e+00 3.0625486e-03 0.0000000e+00 
0.0000000e+00 3.1416533e-03 0.0000000e+00 
0.0000000e+00 3.2003301e-03 0.0000000e+00 
0.0000000e+00 3.2443169e-03 0.0000000e+00 
0.0000000e+00 3.3608126e-03 0.0000000e+00 
0.0000000e+00 3.5824759e-03 0.0000000e+00 
0.0000000e+00 3.7464518e-03 0.0000000e+00 
0.0000000e+00 3.7409614e-03 0.0000000e+00 
0.0000000e+00 3.6358726e-03 0.0000000e+00 
0.0000000e+00 3.4758421e-03 0.0000000e+00 
0.0000000e+00 3.2350612e-03 0.0000000e+00 
0.0000000e+00 2.9643516e-03 0.0000000e+00 
0.0000000e+00 2.6883676e-03 0.0000000e+00 
0.0000000e+00 2.4224895e-03 0.0000000e+00 
0.0000000e+00 2.2427356e-03 0.0000000e+00 
0.0000000e+00 2.1235498e-03 0.0000000e+00 
0.0000000e+00 1.9409155e-03 0.0000000e+00 
0.0000000e+00 1.7558949e-03 0.0000000e+00 
0.0000000e+00 1.6991820e-03 0.0000000e+00 
0.0000000e+00 1.6927234e-03 0.0000000e+00 
0.0000000e+00 1.5612225e-03 0.0000000e+00 
0.0000000e+00 1.3710790e-03 0.0000000e+00 
0.0000000e+00 1.2762197e-03 0.0000000e+00 
0.0000000e+00 1.1218453e-03 0.0000000e+00 
0.0000000e+00 7.6261710e-04 0.0000000e+00 
0.0000000e+00 3.3318202e-04 0.0000000e+00 
0.0000000e+00 2.6705759e-03 0.0000000e+00 
0.0000000e+00 2.6324226e-03 0.0000000e+00 
0.0000000e+00 2.6219063e-03 0.0000000e+00 
0.0000000e+00 2.6470486e-03 0.0000000e+00 
0.0000000e+00 2.6568717e-03 0.0000000e+00 
0.0000000e+00 2.6548556e-03 0.0000000e+00 
0.0000000e+00 2.6074750e-03 0.0000000e+00 
0.0000000e+00 2.5546919e-03 0.0000000e+00 
0.0000000e+00 2.5683395e-03 0.0000000e+00 
0.0000000e+00 2.7330639e-03 0.0000000e+00 
0.0000000e+00 2.8632765e-03 0.0000000e+00 
0.0000000e+00 2.9422075e-03 0.0000000e+00 
0.0000000e+00 3.0358080e-03 0.0000000e+00 
0.0000000e+00 3.0684953e-03 0.0000000e+00 
0.0000000e+00 3.1279505e-03 0.0000000e+00 
0.0000000e+00 3.2365834e-03 0.0000000e+00 
0.0000000e+00 3.3100045e-03 0.0000000e+00 
0.0000000e+00 3.4713973e-03 0.0000000e+00 
0.0000000e+00 3.7252107e-03 0.0000000e+00 
0.0000000e+00 3.8183930e-03 0.0000000e+00 
0.0000000e+00 3.7281835e-03 0.0000000e+00 
0.0000000e+00 3.6008849e-03 0.0000000e+00 
0.0000000e+00 3.4416097e-03 0.0000000e+00 
0.0000000e+00 3.2036626e-03 0.0000000e+00 
0.0000000e+00 2.9200718e-03 0.0000000e+00 
0.0000000e+00 2.6196351e-03 0.0000000e+00 
0.0000000e+00 2.3616629e-03 0.0000000e+00 
0.0000000e+00 2.2270062e-03 0.0000000e+00 
0.0000000e+00 2.1321934e-03 0.0000000e+00 
0.0000000e+00 1.9520087e-03 0.0000000e+00 
0.0000000e+00 1.7604375e-03 0.0000000e+00 
0.0000000e+00 1.7065208e-03 0.0000000e+00 
0.0000000e+00 1.7101249e-03 0.0000000e+00 
0.0000000e+00 1.5982913e-03 0.0000000e+00 
0.0000000e+00 1.4036198e-03 0.0000000e+00 
0.0000000e+00 1.2427242e-03 0.0000000e+00 
0.0000000e+00 1.0374776e-03 0.0000000e+00 
0.0000000e+00 6.8489008e-04 0.0000000e+00 
0.0000000e+00 2.9225563e-04 0.0000000e+00 
0.0000000e+00 3.0931996e-04 0.0000000e+00 
0.0000000e+00 7.1800855e-04 0.0000000e+00 
0.0000000e+00 1.0805749e-03 0.0000000e+00 
0.0000000e+00 1.2641393e-03 0.0000000e+00 
0.0000000e+00 1.3922668e-03 0.0000000e+00 
0.0000000e+00 1.5856416e-03 0.0000000e+00 
0.0000000e+00 1.7306859e-03 0.0000000e+00 
0.0000000e+00 1.7549965e-03 0.0000000e+00 
0.0000000e+00 1.8079506e-03 0.0000000e+00 
0.0000000e+00 1.9620336e-03 0.0000000e+00 
0.0000000e+00 2.1109383e-03 0.0000000e+00 
0.0000000e+00 2.1862208e-03 0.0000000e+00 
0.0000000e+00 2.3319121e-03 0.0000000e+00 
0.0000000e+00 2.6061535e-03 0.0000000e+00 
0.0000000e+00 2.9169556e-03 0.0000000e+00 
0.0000000e+00 3.2052391e-03 0.0000000e+00 
0.0000000e+00 3.4198102e-03 0.0000000e+00 
0.0000000e+00 3.5540063e-03 0.0000000e+00 
0.0000000e+00 3.6803177e-03 0.0000000e+00 
0.0000000e+00 3.7923863e-03 0.0000000e+00 
0.0000000e+00 3.7210940e-03 0.0000000e+00 
0.0000000e+00 3.4837907e-03 0.0000000e+00 
0.0000000e+00 3.2939718e-03 0.0000000e+00 
0.0000000e+00 3.2089036e-03 0.0000000e+00 
0.0000000e+00 3.1563134e-03 0.0000000e+00 
0.0000000e+00 3.1239702e-03 0.0000000e+00 
0.0000000e+00 3.0571742e-03 0.0000000e+00 
0.0000000e+00 2.9487344e-03 0.0000000e+00 
0.0000000e+00 2.8798799e-03 0.0000000e+00 
0.0000000e+00 2.7292201e-03 0.0000000e+00 
0.0000000e+00 2.5082012e-03 0.0000000e+00 
0.0000000e+00 2.5205503e-03 0.0000000e+00 
0.0000000e+00 2.6103125e-03 0.0000000e+00 
0.0000000e+00 2.6482011e-03 0.0000000e+00 
0.0000000e+00 2.3273511e-03 0.0000000e+00 
0.0000000e+00 2.2560281e-03 0.0000000e+00 
0.0000000e+00 2.2290226e-03 0.0000000e+00 
0.0000000e+00 2.4827782e-03 0.0000000e+00 
0.0000000e+00 2.5489391e-03 0.0000000e+00 
0.0000000e+00 2.6845690e-03 0.0000000e+00 
0.0000000e+00 2.8756978e-03 0.0000000e+00 
0.0000000e+00 3.1739317e-03 0.0000000e+00 
0.0000000e+00 3.3554400e-03 0.0000000e+00 
0.0000000e+00 3.5170068e-03 0.0000000e+00 
0.0000000e+00 3.6118454e-03 0.0000000e+00 
0.0000000e+00 3.5635568e-03 0.0000000e+00 
0.0000000e+00 3.3016594e-03 0.0000000e+00 
0.0000000e+00 2.9014025e-03 0.0000000e+00 
0.0000000e+00 2.8385790e-03 0.0000000e+00 
0.0000000e+00 2.7999498e-03 0.0000000e+00 
0.0000000e+00 2.7192300e-03 0.0000000e+00 
0.0000000e+00 2.6904284e-03 0.0000000e+00 
0.0000000e+00 2.6945409e-03 0.0000000e+00 
0.0000000e+00 2.7508771e-03 0.0000000e+00 
0.0000000e+00 2.7324725e-03 0.0000000e+00 
0.0000000e+00 2.6280133e-03 0.0000000e+00 
0.0000000e+00 2.5569962e-03 0.0000000e+00 
0.0000000e+00 2.5209405e-03 0.0000000e+00 
0.0000000e+00 2.4210925e-03 0.0000000e+00 
0.0000000e+00 2.3284946e-03 0.0000000e+00 
0.0000000e+00 2.3277141e-03 0.0000000e+00 
0.0000000e+00 2.3626336e-03 0.0000000e+00 
0.0000000e+00 2.4014239e-03 0.0000000e+00 
0.0000000e+00 2.4807744e-03 0.0000000e+00 
0.0000000e+00 2.6295835e-03 0.0000000e+00 
0.0000000e+00 2.6758662e-03 0.0000000e+00 
0.0000000e+00 2.6776837e-03 0.0000000e+00 
0.0000000e+00 2.6481417e-03 0.0000000e+00 
0.0000000e+00 2.5092242e-03 0.0000000e+00 
0.0000000e+00 2.4099476e-03 0.0000000e+00 
0.0000000e+00 2.3756006e-03 0.0000000e+00 
0.0000000e+00 2.3949828e-03 0.0000000e+00 
0.0000000e+00 2.3877844e-03 0.0000000e+00 
0.0000000e+00 2.4035505e-03 0.0000000e+00 
0.0000000e+00 2.5130808e-03 0.0000000e+00 
0.0000000e+00 2.6058760e-03 0.0000000e+00 
0.0000000e+00 2.6964583e-03 0.0000000e+00 
0.0000000e+00 2.7130605e-03 0.0000000e+00 
0.0000000e+00 2.6518782e-03 0.0000000e+00 
0.0000000e+00 2.6871450e-03 0.0000000e+00 
0.0000000e+00 2.7768251e-03 0.0000000e+00 
0.0000000e+00 2.7926096e-03 0.0000000e+00 
0.0000000e+00 2.7861854e-03 0.0000000e+00 
0.0000000e+00 2.8629191e-03 0.0000000e+00 
0.0000000e+00 3.0396960e-03 0.0000000e+00 
0.0000000e+00 3.2732526e-03 0.0000000e+00 
0.0000000e+00 3.4338580e-03 0.0000000e+00 
0.0000000e+00 3.5068735e-03 0.0000000e+00 
0.0000000e+00 3.4214084e-03 0.0000000e+00 
0.0000000e+00 3.2928255e-03 0.0000000e+00 
0.0000000e+00 3.2064074e-03 0.0000000e+00 
0.0000000e+00 3.0093915e-03 0.0000000e+00 
0.0000000e+00 2.8106808e-03 0.0000000e+00 
0.0000000e+00 2.7624660e-03 0.0000000e+00 
0.0000000e+00 2.5437945e-03 0.0000000e+00 
0.0000000e+00 2.3744090e-03 0.0000000e+00 
0.0000000e+00 2.3029351e-03 0.0000000e+00 
0.0000000e+00 2.3700795e-03 0.0000000e+00 
0.0000000e+00 2.5064778e-03 0.0000000e+00 
0.0000000e+00 0.0000000e+00 0.0000000e+00 
0.0000000e+00 0.0000000e+00 0.0000000e+00 
0.0000000e+00 0.0000000e+00 0.0000000e+00 
0.0000000e+00 0.0000000e+00 0.0000000e+00 
0.0000000e+00 0.0000000e+00 0.0000000e+00 
0.0000000e+00 0.0000000e+00 0.0000000e+00 
0.0000000e+00 0.0000000e+00 0.0000000e+00 
0.0000000e+00 0.0000000e+00 0.0000000e+00 
0.0000000e+00 0.0000000e+00 0.0000000e+00 
0.0000000e+00 0.0000000e+00 0.0000000e+00 
0.0000000e+00 0.0000000e+00 0.0000000e+00 
0.0000000e+00 0.0000000e+00 0.0000000e+00 
0.0000000e+00 0.0000000e+00 0.0000000e+00 
0.0000000e+00 0.0000000e+00 0.0000000e+00 
0.0000000e+00 0.0000000e+00 0.0000000e+00 
0.0000000e+00 0.0000000e+00 0.0000000e+00 
0.0000000e+00 0.0000000e+00 0.0000000e+00 
0.0000000e+00 0.0000000e+00 0.0000000e+00 
0.0000000e+00 0.0000000e+00 0.0000000e+00 
0.0000000e+00 0.0000000e+00 0.0000000e+00 
0.0000000e+00 0.0000000e+00 0.0000000e+00 
0.0000000e+00 0.0000000e+00 0.0000000e+00 
0.0000000e+00 0.0000000e+00 0.0000000e+00 
0.0000000e+00 0.0000000e+00 0.0000000e+00 
0.0000000e+00 0.0000000e+00 0.0000000e+00 
0.0000000e+00 0.0000000e+00 0.0000000e+00 
0.0000000e+00 0.0000000e+00 0.0000000e+00 
0.0000000e+00 0.0000000e+00 0.0000000e+00 
0.0000000e+00 0.0000000e+00 0.0000000e+00 
0.0000000e+00 0.0000000e+00 0.0000000e+00 
0.0000000e+00 0.0000000e+00 0.0000000e+00 
0.0000000e+00 0.0000000e+00 0.0000000e+00 
0.0000000e+00 0.0000000e+00 0.0000000e+00 
0.0000000e+00 0.0000000e+00 0.0000000e+00 
0.0000000e+00 0.0000000e+00 0.0000000e+00 
0.0000000e+00 0.0000000e+00 0.0000000e+00 
0.0000000e+00 0.0000000e+00 0.0000000e+00 
0.0000000e+00 0.0000000e+00 0.0000000e+00 
0.0000000e+00 0.0000000e+00 0.0000000e+00 
0.0000000e+00 0.0000000e+00 0.0000000e+00 
0.0000000e+00 0.0000000e+00 0.0000000e+00 
0.0000000e+00 0.0000000e+00 0.0000000e+00 
0.0000000e+00 0.0000000e+00 0.0000000e+00 
0.0000000e+00 0.0000000e+00 0.0000000e+00 
0.0000000e+00 0.0000000e+00 0.0000000e+00 
0.0000000e+00 0.0000000e+00 0.0000000e+00 
0.0000000e+00 2.5408738e-03 0.0000000e+00 
0.0000000e+00 2.0995976e-04 0.0000000e+00 
0.0000000e+00 2.3325381e-03 0.0000000e+00 
0.0000000e+00 1.3141715e-03 0.0000000e+00 
0.0000000e+00 2.8832979e-03 0.0000000e+00 
0.0000000e+00 1.7303944e-03 0.0000000e+00 
0.0000000e+00 3.4785992e-03 0.0000000e+00 
0.0000000e+00 2.0613160e-03 0.0000000e+00 
0.0000000e+00 3.3459349e-03 0.0000000e+00 
0.0000000e+00 2.5297331e-03 0.0000000e+00 
0.0000000e+00 2.7902476e-03 0.0000000e+00 
0.0000000e+00 3.3659372e-03 0.0000000e+00 
0.0000000e+00 3.7763708e-03 0.0000000e+00 
0.0000000e+00 2.6850277e-03 0.0000000e+00 
0.0000000e+00 2.7359691e-03 0.0000000e+00 
0.0000000e+00 3.3425980e-03 0.0000000e+00 
0.0000000e+00 2.4619764e-03 0.0000000e+00 
0.0000000e+00 3.1591179e-03 0.0000000e+00 
0.0000000e+00 2.3741401e-03 0.0000000e+00 
0.0000000e+00 2.9074929e-03 0.0000000e+00 
0.0000000e+00 2.5749523e-03 0.0000000e+00 
0.0000000e+00 2.4794273e-03 0.0000000e+00 
0.0000000e+00 2.6551113e-03 0.0000000e+00 
0.0000000e+00 2.7602208e-03 0.0000000e+00 
0.0000000e+00 2.4013915e-03 0.0000000e+00 
0.0000000e+00 3.0471208e-03 0.0000000e+00 
0.0000000e+00 2.4096854e-03 0.0000000e+00 
0.0000000e+00 2.6329623e-03 0.0000000e+00 
0.0000000e+00 3.2285887e-03 0.0000000e+00 
0.0000000e+00 2.6631919e-03 0.0000000e+00 
0.0000000e+00 3.6896782e-03 0.0000000e+00 
0.0000000e+00 2.7553146e-03 0.0000000e+00 
0.0000000e+00 3.5668921e-03 0.0000000e+00 
0.0000000e+00 3.0210190e-03 0.0000000e+00 
0.0000000e+00 2.8417667e-03 0.0000000e+00 
0.0000000e+00 3.5068132e-03 0.0000000e+00 
0.0000000e+00 2.2048261e-03 0.0000000e+00 
0.0000000e+00 3.1075287e-03 0.0000000e+00 
0.0000000e+00 1.7772962e-03 0.0000000e+00 
0.0000000e+00 2.5751193e-03 0.0000000e+00 
0.0000000e+00 1.4816087e-03 0.0000000e+00 
0.0000000e+00 1.1415486e-03 0.0000000e+00 
0.0000000e+00 2.3297854e-03 0.0000000e+00 
0.0000000e+00 2.5887592e-03 0.0000000e+00 
0.0000000e+00 2.5150944e-03 0.0000000e+00 
0.0000000e+00 2.5849584e-03 0.0000000e+00 
0.0000000e+00 2.2943798e-03 0.0000000e+00 
0.0000000e+00 9.3761599e-04 0.0000000e+00 
0.0000000e+00 2.4709608e-03 0.0000000e+00 
0.0000000e+00 4.5793335e-04 0.0000000e+00 
0.0000000e+00 2.5175360e-03 0.0000000e+00 
0.0000000e+00 2.7115815e-04 0.0000000e+00 
0.0000000e+00 2.3932322e-03 0.0000000e+00 
0.0000000e+00 2.2274265e-03 0.0000000e+00 
0.0000000e+00 2.3473189e-03 0.0000000e+00 
0.0000000e+00 2.2886654e-03 0.0000000e+00 
0.0000000e+00 2.4597945e-03 0.0000000e+00 
0.0000000e+00 2.3236535e-03 0.0000000e+00 
0.0000000e+00 2.4980220e-03 0.0000000e+00 
0.0000000e+00 2.2884966e-03 0.0000000e+00 
0.0000000e+00 2.5562739e-03 0.0000000e+00 
0.0000000e+00 2.6799967e-03 0.0000000e+00 
0.0000000e+00 2.7334585e-03 0.0000000e+00 
0.0000000e+00 2.8172666e-03 0.0000000e+00 
0.0000000e+00 2.8842788e-03 0.0000000e+00 
0.0000000e+00 2.9805948e-03 0.0000000e+00 
0.0000000e+00 3.0661749e-03 0.0000000e+00 
0.0000000e+00 3.2216979e-03 0.0000000e+00 
0.0000000e+00 3.2656654e-03 0.0000000e+00 
0.0000000e+00 3.4084804e-03 0.0000000e+00 
0.0000000e+00 3.4696397e-03 0.0000000e+00 
0.0000000e+00 3.5852501e-03 0.0000000e+00 
0.0000000e+00 3.6218036e-03 0.0000000e+00 
0.0000000e+00 3.6444557e-03 0.0000000e+00 
0.0000000e+00 3.5972756e-03 0.0000000e+00 
0.0000000e+00 3.4784840e-03 0.0000000e+00 
0.0000000e+00 3.3561189e-03 0.0000000e+00 
0.0000000e+00 3.1906161e-03 0.0000000e+00 
0.0000000e+00 3.0255395e-03 0.0000000e+00 
0.0000000e+00 2.9501200e-03 0.0000000e+00 
0.0000000e+00 2.8601964e-03 0.0000000e+00 
0.0000000e+00 2.8470876e-03 0.0000000e+00 
0.0000000e+00 2.7752891e-03 0.0000000e+00 
0.0000000e+00 2.7240624e-03 0.0000000e+00 
0.0000000e+00 2.7176468e-03 0.0000000e+00 
0.0000000e+00 2.7106178e-03 0.0000000e+00 
0.0000000e+00 2.7132258e-03 0.0000000e+00 
0.0000000e+00 2.6876056e-03 0.0000000e+00 
0.0000000e+00 2.6894216e-03 0.0000000e+00 