# vtk DataFile Version 4.0
vtk output
ASCII
DATASET UNSTRUCTURED_GRID
POINTS 2186 float
0.0000000e+00 0.0000000e+00 0.0000000e+00 
0.0000000e+00 0.0000000e+00 5.0000000e+01 
5.0000000e+00 0.0000000e+00 0.0000000e+00 
5.0000000e+00 0.0000000e+00 5.0000000e+01 
5.0000000e+00 1.0000000e+00 0.0000000e+00 
5.0000000e+00 1.0000000e+00 5.0000000e+01 
0.0000000e+00 1.0000000e+00 0.0000000e+00 
0.0000000e+00 1.0000000e+00 5.0000000e+01 
5.0000000e+00 2.0000000e+00 0.0000000e+00 
5.0000000e+00 2.0000000e+00 5.0000000e+01 
3.0000000e+00 2.0000000e+00 0.0000000e+00 
3.0000000e+00 2.0000000e+00 5.0000000e+01 
0.0000000e+00 2.0000000e+00 0.0000000e+00 
0.0000000e+00 2.0000000e+00 5.0000000e+01 
1.5000000e+00 3.0000000e+00 0.0000000e+00 
1.5000000e+00 3.0000000e+00 5.0000000e+01 
7.5000000e-01 3.0000000e+00 0.0000000e+00 
7.5000000e-01 3.0000000e+00 5.0000000e+01 
0.0000000e+00 3.0000000e+00 0.0000000e+00 
0.0000000e+00 3.0000000e+00 5.0000000e+01 
7.5000000e-01 3.0000000e+00 -2.5000000e+01 
7.5000000e-01 3.0000000e+00 -2.4500000e+01 
7.5000000e-01 3.0000000e+00 -2.4000000e+01 
7.5000000e-01 3.0000000e+00 -2.3500000e+01 
7.5000000e-01 3.0000000e+00 -2.3000000e+01 
7.5000000e-01 3.0000000e+00 -2.2500000e+01 
7.5000000e-01 3.0000000e+00 -2.2000000e+01 
7.5000000e-01 3.0000000e+00 -2.1500000e+01 
7.5000000e-01 3.0000000e+00 -2.1000000e+01 
7.5000000e-01 3.0000000e+00 -2.0500000e+01 
7.5000000e-01 3.0000000e+00 -2.0000000e+01 
7.5000000e-01 3.0000000e+00 -1.9500000e+01 
7.5000000e-01 3.0000000e+00 -1.9000000e+01 
7.5000000e-01 3.0000000e+00 -1.8500000e+01 
7.5000000e-01 3.0000000e+00 -1.8000000e+01 
7.5000000e-01 3.0000000e+00 -1.7500000e+01 
7.5000000e-01 3.0000000e+00 -1.7000000e+01 
7.5000000e-01 3.0000000e+00 -1.6500000e+01 
7.5000000e-01 3.0000000e+00 -1.6000000e+01 
7.5000000e-01 3.0000000e+00 -1.5500000e+01 
7.5000000e-01 3.0000000e+00 -1.5000000e+01 
7.5000000e-01 3.0000000e+00 -1.4500000e+01 
7.5000000e-01 3.0000000e+00 -1.4000000e+01 
7.5000000e-01 3.0000000e+00 -1.3500000e+01 
7.5000000e-01 3.0000000e+00 -1.3000000e+01 
7.5000000e-01 3.0000000e+00 -1.2500000e+01 
7.5000000e-01 3.0000000e+00 -1.2000000e+01 
7.5000000e-01 3.0000000e+00 -1.1500000e+01 
7.5000000e-01 3.0000000e+00 -1.1000000e+01 
7.5000000e-01 3.0000000e+00 -1.0500000e+01 
7.5000000e-01 3.0000000e+00 -1.0000000e+01 
7.5000000e-01 3.0000000e+00 -9.5000000e+00 
7.5000000e-01 3.0000000e+00 -9.0000000e+00 
7.5000000e-01 3.0000000e+00 -8.5000000e+00 
7.5000000e-01 3.0000000e+00 -8.0000000e+00 
7.5000000e-01 3.0000000e+00 -7.5000000e+00 
7.5000000e-01 3.0000000e+00 -7.0000000e+00 
7.5000000e-01 3.0000000e+00 -6.5000000e+00 
7.5000000e-01 3.0000000e+00 -6.0000000e+00 
7.5000000e-01 3.0000000e+00 -5.5000000e+00 
7.5000000e-01 3.0000000e+00 -5.0000000e+00 
7.5000000e-01 3.0000000e+00 -4.5000000e+00 
7.5000000e-01 3.0000000e+00 -4.0000000e+00 
7.5000000e-01 3.0000000e+00 -3.5000000e+00 
7.5000000e-01 3.0000000e+00 -3.0000000e+00 
7.5000000e-01 3.0000000e+00 -2.5000000e+00 
7.5000000e-01 3.0000000e+00 -2.0000000e+00 
7.5000000e-01 3.0000000e+00 -1.5000000e+00 
7.5000000e-01 3.0000000e+00 -1.0000000e+00 
7.5000000e-01 3.0000000e+00 -5.0000000e-01 
7.5000000e-01 3.0000000e+00 5.0000000e-01 
7.5000000e-01 3.0000000e+00 1.0000000e+00 
7.5000000e-01 3.0000000e+00 1.5000000e+00 
7.5000000e-01 3.0000000e+00 2.0000000e+00 
7.5000000e-01 3.0000000e+00 2.5000000e+00 
7.5000000e-01 3.0000000e+00 3.0000000e+00 
7.5000000e-01 3.0000000e+00 3.5000000e+00 
7.5000000e-01 3.0000000e+00 4.0000000e+00 
7.5000000e-01 3.0000000e+00 4.5000000e+00 
7.5000000e-01 3.0000000e+00 5.0000000e+00 
7.5000000e-01 3.0000000e+00 5.5000000e+00 
7.5000000e-01 3.0000000e+00 6.0000000e+00 
7.5000000e-01 3.0000000e+00 6.5000000e+00 
7.5000000e-01 3.0000000e+00 7.0000000e+00 
7.5000000e-01 3.0000000e+00 7.5000000e+00 
7.5000000e-01 3.0000000e+00 8.0000000e+00 
7.5000000e-01 3.0000000e+00 8.5000000e+00 
7.5000000e-01 3.0000000e+00 9.0000000e+00 
7.5000000e-01 3.0000000e+00 9.5000000e+00 
7.5000000e-01 3.0000000e+00 1.0000000e+01 
7.5000000e-01 3.0000000e+00 1.0500000e+01 
7.5000000e-01 3.0000000e+00 1.1000000e+01 
7.5000000e-01 3.0000000e+00 1.1500000e+01 
7.5000000e-01 3.0000000e+00 1.2000000e+01 
7.5000000e-01 3.0000000e+00 1.2500000e+01 
7.5000000e-01 3.0000000e+00 1.3000000e+01 
7.5000000e-01 3.0000000e+00 1.3500000e+01 
7.5000000e-01 3.0000000e+00 1.4000000e+01 
7.5000000e-01 3.0000000e+00 1.4500000e+01 
7.5000000e-01 3.0000000e+00 1.5000000e+01 
7.5000000e-01 3.0000000e+00 1.5500000e+01 
7.5000000e-01 3.0000000e+00 1.6000000e+01 
7.5000000e-01 3.0000000e+00 1.6500000e+01 
7.5000000e-01 3.0000000e+00 1.7000000e+01 
7.5000000e-01 3.0000000e+00 1.7500000e+01 
7.5000000e-01 3.0000000e+00 1.8000000e+01 
7.5000000e-01 3.0000000e+00 1.8500000e+01 
7.5000000e-01 3.0000000e+00 1.9000000e+01 
7.5000000e-01 3.0000000e+00 1.9500000e+01 
7.5000000e-01 3.0000000e+00 2.0000000e+01 
7.5000000e-01 3.0000000e+00 2.0500000e+01 
7.5000000e-01 3.0000000e+00 2.1000000e+01 
7.5000000e-01 3.0000000e+00 2.1500000e+01 
7.5000000e-01 3.0000000e+00 2.2000000e+01 
7.5000000e-01 3.0000000e+00 2.2500000e+01 
7.5000000e-01 3.0000000e+00 2.3000000e+01 
7.5000000e-01 3.0000000e+00 2.3500000e+01 
7.5000000e-01 3.0000000e+00 2.4000000e+01 
7.5000000e-01 3.0000000e+00 2.4500000e+01 
7.5000000e-01 3.0000000e+00 2.5000000e+01 
7.5000000e-01 3.0000000e+00 2.5500000e+01 
7.5000000e-01 3.0000000e+00 2.6000000e+01 
7.5000000e-01 3.0000000e+00 2.6500000e+01 
7.5000000e-01 3.0000000e+00 2.7000000e+01 
7.5000000e-01 3.0000000e+00 2.7500000e+01 
7.5000000e-01 3.0000000e+00 2.8000000e+01 
7.5000000e-01 3.0000000e+00 2.8500000e+01 
7.5000000e-01 3.0000000e+00 2.9000000e+01 
7.5000000e-01 3.0000000e+00 2.9500000e+01 
7.5000000e-01 3.0000000e+00 3.0000000e+01 
7.5000000e-01 3.0000000e+00 3.0500000e+01 
7.5000000e-01 3.0000000e+00 3.1000000e+01 
7.5000000e-01 3.0000000e+00 3.1500000e+01 
7.5000000e-01 3.0000000e+00 3.2000000e+01 
7.5000000e-01 3.0000000e+00 3.2500000e+01 
7.5000000e-01 3.0000000e+00 3.3000000e+01 
7.5000000e-01 3.0000000e+00 3.3500000e+01 
7.5000000e-01 3.0000000e+00 3.4000000e+01 
7.5000000e-01 3.0000000e+00 3.4500000e+01 
7.5000000e-01 3.0000000e+00 3.5000000e+01 
7.5000000e-01 3.0000000e+00 3.5500000e+01 
7.5000000e-01 3.0000000e+00 3.6000000e+01 
7.5000000e-01 3.0000000e+00 3.6500000e+01 
7.5000000e-01 3.0000000e+00 3.7000000e+01 
7.5000000e-01 3.0000000e+00 3.7500000e+01 
7.5000000e-01 3.0000000e+00 3.8000000e+01 
7.5000000e-01 3.0000000e+00 3.8500000e+01 
7.5000000e-01 3.0000000e+00 3.9000000e+01 
7.5000000e-01 3.0000000e+00 3.9500000e+01 
7.5000000e-01 3.0000000e+00 4.0000000e+01 
7.5000000e-01 3.0000000e+00 4.0500000e+01 
7.5000000e-01 3.0000000e+00 4.1000000e+01 
7.5000000e-01 3.0000000e+00 4.1500000e+01 
7.5000000e-01 3.0000000e+00 4.2000000e+01 
7.5000000e-01 3.0000000e+00 4.2500000e+01 
7.5000000e-01 3.0000000e+00 4.3000000e+01 
7.5000000e-01 3.0000000e+00 4.3500000e+01 
7.5000000e-01 3.0000000e+00 4.4000000e+01 
7.5000000e-01 3.0000000e+00 4.4500000e+01 
7.5000000e-01 3.0000000e+00 4.5000000e+01 
7.5000000e-01 3.0000000e+00 4.5500000e+01 
7.5000000e-01 3.0000000e+00 4.6000000e+01 
7.5000000e-01 3.0000000e+00 4.6500000e+01 
7.5000000e-01 3.0000000e+00 4.7000000e+01 
7.5000000e-01 3.0000000e+00 4.7500000e+01 
7.5000000e-01 3.0000000e+00 4.8000000e+01 
7.5000000e-01 3.0000000e+00 4.8500000e+01 
7.5000000e-01 3.0000000e+00 4.9000000e+01 
7.5000000e-01 3.0000000e+00 4.9500000e+01 
7.5000000e-01 3.0000000e+00 5.0500000e+01 
7.5000000e-01 3.0000000e+00 5.1000000e+01 
7.5000000e-01 3.0000000e+00 5.1500000e+01 
7.5000000e-01 3.0000000e+00 5.2000000e+01 
7.5000000e-01 3.0000000e+00 5.2500000e+01 
7.5000000e-01 3.0000000e+00 5.3000000e+01 
7.5000000e-01 3.0000000e+00 5.3500000e+01 
7.5000000e-01 3.0000000e+00 5.4000000e+01 
7.5000000e-01 3.0000000e+00 5.4500000e+01 
7.5000000e-01 3.0000000e+00 5.5000000e+01 
7.5000000e-01 3.0000000e+00 5.5500000e+01 
7.5000000e-01 3.0000000e+00 5.6000000e+01 
7.5000000e-01 3.0000000e+00 5.6500000e+01 
7.5000000e-01 3.0000000e+00 5.7000000e+01 
7.5000000e-01 3.0000000e+00 5.7500000e+01 
7.5000000e-01 3.0000000e+00 5.8000000e+01 
7.5000000e-01 3.0000000e+00 5.8500000e+01 
7.5000000e-01 3.0000000e+00 5.9000000e+01 
7.5000000e-01 3.0000000e+00 5.9500000e+01 
7.5000000e-01 3.0000000e+00 6.0000000e+01 
7.5000000e-01 3.0000000e+00 6.0500000e+01 
7.5000000e-01 3.0000000e+00 6.1000000e+01 
7.5000000e-01 3.0000000e+00 6.1500000e+01 
7.5000000e-01 3.0000000e+00 6.2000000e+01 
7.5000000e-01 3.0000000e+00 6.2500000e+01 
7.5000000e-01 3.0000000e+00 6.3000000e+01 
7.5000000e-01 3.0000000e+00 6.3500000e+01 
7.5000000e-01 3.0000000e+00 6.4000000e+01 
7.5000000e-01 3.0000000e+00 6.4500000e+01 
7.5000000e-01 3.0000000e+00 6.5000000e+01 
7.5000000e-01 3.0000000e+00 6.5500000e+01 
7.5000000e-01 3.0000000e+00 6.6000000e+01 
7.5000000e-01 3.0000000e+00 6.6500000e+01 
7.5000000e-01 3.0000000e+00 6.7000000e+01 
7.5000000e-01 3.0000000e+00 6.7500000e+01 
7.5000000e-01 3.0000000e+00 6.8000000e+01 
7.5000000e-01 3.0000000e+00 6.8500000e+01 
7.5000000e-01 3.0000000e+00 6.9000000e+01 
7.5000000e-01 3.0000000e+00 6.9500000e+01 
7.5000000e-01 3.0250001e+00 -2.5000000e+01 
7.5000000e-01 3.0250001e+00 -2.4500000e+01 
7.5000000e-01 3.0250001e+00 -2.4000000e+01 
7.5000000e-01 3.0250001e+00 -2.3500000e+01 
7.5000000e-01 3.0250001e+00 -2.3000000e+01 
7.5000000e-01 3.0250001e+00 -2.2500000e+01 
7.5000000e-01 3.0250001e+00 -2.2000000e+01 
7.5000000e-01 3.0250001e+00 -2.1500000e+01 
7.5000000e-01 3.0250001e+00 -2.1000000e+01 
7.5000000e-01 3.0250001e+00 -2.0500000e+01 
7.5000000e-01 3.0250001e+00 -2.0000000e+01 
7.5000000e-01 3.0250001e+00 -1.9500000e+01 
7.5000000e-01 3.0250001e+00 -1.9000000e+01 
7.5000000e-01 3.0250001e+00 -1.8500000e+01 
7.5000000e-01 3.0250001e+00 -1.8000000e+01 
7.5000000e-01 3.0250001e+00 -1.7500000e+01 
7.5000000e-01 3.0250001e+00 -1.7000000e+01 
7.5000000e-01 3.0250001e+00 -1.6500000e+01 
7.5000000e-01 3.0250001e+00 -1.6000000e+01 
7.5000000e-01 3.0250001e+00 -1.5500000e+01 
[...]
POINT_DATA 2186
FIELD FieldData 3
DISPLACEMENT 3 2186  float
0.0000000e+00 0.0000000e+00 0.0000000e+00 
0.0000000e+00 0.0000000e+00 0.0000000e+00 
0.0000000e+00 0.0000000e+00 0.0000000e+00 
0.0000000e+00 0.0000000e+00 0.0000000e+00 
4.4533599e-09 5.2565969e-07 -1.6628744e-07 
2.5613232e-17 5.0355639e-15 1.2352299e-15 
0.0000000e+00 -6.5423555e-06 0.0000000e+00 
0.0000000e+00 7.3717670e-14 0.0000000e+00 
-5.0958300e-07 8.8121936e-07 3.1462520e-07 
-4.5928027e-16 2.2519561e-15 2.0954074e-16 
3.2693733e-06 1.2132230e-05 -1.6623350e-06 
-6.1389632e-15 4.4036176e-14 5.7230310e-15 
0.0000000e+00 -1.6650878e-05 0.0000000e+00 
0.0000000e+00 -5.0513548e-13 0.0000000e+00 
2.0650017e-05 -5.0449828e-05 -2.9470759e-05 
1.4336022e-14 -1.3668007e-13 5.7787400e-15 
-3.1756233e-06 4.5177527e-05 -1.2672772e-05 
9.8892145e-16 9.3537070e-13 -4.0271924e-14 
0.0000000e+00 -4.7123951e-05 0.0000000e+00 
0.0000000e+00 -1.6291485e-12 0.0000000e+00 
0.0000000e+00 1.5726913e-15 0.0000000e+00 
0.0000000e+00 -9.3073653e-16 0.0000000e+00 
0.0000000e+00 -4.5605935e-15 0.0000000e+00 
0.0000000e+00 -5.5444989e-15 0.0000000e+00 
0.0000000e+00 -8.4676240e-15 0.0000000e+00 
0.0000000e+00 -2.8707156e-15 0.0000000e+00 
0.0000000e+00 2.8130867e-14 0.0000000e+00 
0.0000000e+00 4.8945738e-14 0.0000000e+00 
0.0000000e+00 -8.7037690e-14 0.0000000e+00 
0.0000000e+00 -3.2024841e-13 0.0000000e+00 
0.0000000e+00 1.9008238e-13 0.0000000e+00 
0.0000000e+00 1.9366394e-12 0.0000000e+00 
0.0000000e+00 9.8624906e-13 0.0000000e+00 
0.0000000e+00 -8.9617107e-12 0.0000000e+00 
0.0000000e+00 -1.4178875e-11 0.0000000e+00 
0.0000000e+00 2.9397686e-11 0.0000000e+00 
0.0000000e+00 9.7768377e-11 0.0000000e+00 
0.0000000e+00 -3.7567702e-11 0.0000000e+00 
0.0000000e+00 -4.8200677e-10 0.0000000e+00 
0.0000000e+00 -3.2341771e-10 0.0000000e+00 
0.0000000e+00 1.7388327e-09 0.0000000e+00 
0.0000000e+00 3.1075902e-09 0.0000000e+00 
0.0000000e+00 -3.8579446e-09 0.0000000e+00 
0.0000000e+00 -1.6025831e-08 0.0000000e+00 
0.0000000e+00 -1.7328652e-09 0.0000000e+00 
0.0000000e+00 5.6449878e-08 0.0000000e+00 
0.0000000e+00 6.3576579e-08 0.0000000e+00 
0.0000000e+00 -1.2481634e-07 0.0000000e+00 
0.0000000e+00 -3.3325873e-07 0.0000000e+00 
0.0000000e+00 4.1843776e-08 0.0000000e+00 
0.0000000e+00 1.0281461e-06 0.0000000e+00 
0.0000000e+00 9.5816574e-07 0.0000000e+00 
0.0000000e+00 -1.7487803e-06 0.0000000e+00 
0.0000000e+00 -4.3129089e-06 0.0000000e+00 
0.0000000e+00 -4.2555109e-07 0.0000000e+00 
0.0000000e+00 9.4283532e-06 0.0000000e+00 
0.0000000e+00 1.1416800e-05 0.0000000e+00 
0.0000000e+00 -6.3893094e-06 0.0000000e+00 
0.0000000e+00 -2.9413137e-05 0.0000000e+00 
0.0000000e+00 -2.2929467e-05 0.0000000e+00 
0.0000000e+00 2.2815031e-05 0.0000000e+00 
0.0000000e+00 6.4542633e-05 0.0000000e+00 
0.0000000e+00 4.5756209e-05 0.0000000e+00 
0.0000000e+00 -3.2611621e-05 0.0000000e+00 
0.0000000e+00 -1.0052457e-04 0.0000000e+00 
0.0000000e+00 -8.9475492e-05 0.0000000e+00 
0.0000000e+00 -4.7980893e-06 0.0000000e+00 
0.0000000e+00 8.3368650e-05 0.0000000e+00 
0.0000000e+00 1.1340908e-04 0.0000000e+00 
0.0000000e+00 8.4773652e-05 0.0000000e+00 
-2.9635705e-06 3.8440197e-05 -6.9172938e-07 
-1.4499788e-05 8.0658021e-05 8.3887522e-07 
-3.2354872e-06 1.3428890e-04 -1.4841748e-05 
-1.4016703e-06 1.3511171e-04 1.2764649e-05 
2.4412329e-05 3.7456888e-05 8.5520214e-06 
-1.7979239e-06 -1.7303895e-04 3.9475552e-05 
-3.5005786e-07 -5.0255831e-04 1.0274398e-04 
-5.3449319e-05 -9.8221959e-04 8.9577632e-05 
-1.6112717e-04 -1.7104864e-03 8.9570385e-05 
-2.0416015e-04 -2.7671675e-03 2.4453614e-06 
-1.3974613e-04 -4.0154010e-03 8.1378377e-05 
-2.4119421e-04 -4.8414539e-03 -7.9005149e-05 
-1.4671859e-04 -4.6229684e-03 -2.6978674e-05 
-2.4419336e-04 -4.0614214e-03 2.1144313e-05 
-2.2276881e-04 -3.8810938e-03 -6.0707025e-05 
-2.7874458e-04 -4.1203694e-03 -9.9266210e-05 
-1.8530829e-04 -4.2225332e-03 -1.0816468e-04 
-1.3390488e-04 -3.3116383e-03 -9.3471477e-05 
5.9543686e-07 -1.9923924e-03 -1.1442786e-04 
-1.1404449e-05 -8.5398927e-04 -5.1150087e-06 
-8.2313576e-08 -1.4927376e-04 -3.9414666e-05 
2.1716789e-05 1.6613232e-04 3.9542032e-05 
1.7128840e-06 2.4991191e-04 -1.4200069e-05 
1.0522277e-05 2.3639046e-04 -2.3101218e-06 
1.0463273e-05 2.0101409e-04 1.6543867e-05 
1.5230039e-06 1.5145919e-04 7.0452452e-06 
9.7144093e-06 7.2591189e-05 2.1108231e-07 
2.9245930e-07 -2.6475080e-05 4.5257088e-06 
-2.0132477e-06 -9.8725657e-05 -6.4479236e-06 
-3.0723179e-06 -9.3614828e-05 8.0118730e-07 
6.3563948e-07 -1.1284922e-05 6.9081614e-07 
2.1388958e-06 7.0346214e-05 -3.8573606e-07 
2.6293794e-06 6.6901644e-05 -8.2316433e-07 
2.0562677e-06 -1.1527064e-05 -8.7804472e-07 
-2.6894295e-06 -7.7762757e-05 -7.3550399e-07 
-2.6739806e-06 -6.6011657e-05 -3.0280971e-06 
1.7816633e-06 3.9379988e-06 3.6884112e-06 
5.3560243e-06 6.6245077e-05 2.6815840e-06 
1.1814079e-06 8.0469763e-05 -1.0915087e-05 
-5.2176997e-06 4.7620739e-05 8.5758884e-06 
-9.0200265e-06 4.6849841e-06 -3.1254067e-06 
-1.7313967e-06 9.0298972e-06 -9.7413258e-06 
1.9972736e-06 7.6424389e-05 1.3642558e-05 
1.9111378e-05 1.4355013e-04 -1.7166987e-05 
3.1196014e-05 1.0105797e-04 1.0803899e-05 
-1.0218508e-06 -1.4415191e-04 5.3590564e-05 
-1.0594295e-05 -5.9541489e-04 8.9047579e-05 
-7.7573313e-05 -1.1939786e-03 1.0932546e-04 
-9.4763185e-05 -1.9527541e-03 1.2515791e-04 
-1.2068563e-04 -2.9496404e-03 -2.9526577e-06 
-1.3121303e-04 -4.1213338e-03 8.4655541e-05 
-3.4865699e-04 -4.8964331e-03 -9.1126654e-05 
-2.3077482e-04 -4.6584476e-03 -1.3221960e-04 
-2.6803947e-04 -4.1045113e-03 -7.1096001e-06 
-2.2228708e-04 -3.9453516e-03 -4.2866970e-05 
-2.8147301e-04 -4.1585518e-03 -1.0928849e-04 
-1.9633470e-04 -4.1531511e-03 -1.3697406e-04 
-1.7624114e-04 -3.1077568e-03 -1.0391064e-04 
-3.5624507e-05 -1.7603798e-03 -1.4731521e-04 
-1.4024859e-05 -6.7727879e-04 -1.1991713e-05 
1.2862185e-07 -7.4322663e-05 -5.3969543e-05 
2.1789183e-05 1.6616641e-04 3.7355872e-05 
9.9524790e-08 2.2802773e-04 -6.8213799e-06 
9.1367019e-06 2.2460817e-04 -4.3217110e-06 
7.6073070e-06 1.8955725e-04 2.5382295e-05 
-1.0530679e-06 1.1991279e-04 -1.1397775e-05 
9.9279021e-07 2.2952137e-05 3.8700596e-06 
-9.4189062e-07 -6.3463944e-05 4.0073223e-06 
-4.6531763e-06 -9.4406802e-05 -8.5863985e-06 
-2.0100997e-06 -6.4416228e-05 8.0929993e-07 
9.0631289e-07 -1.9934591e-06 8.0638284e-07 
1.3418104e-06 4.3310363e-05 -1.0664468e-06 
5.1946763e-08 3.6929203e-05 8.8456954e-07 
1.9791815e-07 1.3847465e-07 4.4160464e-07 
-4.9384408e-07 -2.0119356e-05 -8.4664481e-07 
-7.8954024e-08 -1.2456927e-05 -1.3863501e-08 
2.8811812e-07 2.9400596e-06 6.4668178e-08 
-1.0133932e-07 7.4827631e-06 -1.3755363e-08 
-8.0116401e-08 2.0532705e-06 1.9939247e-08 
7.2442283e-08 -2.4142939e-06 8.5907931e-10 
5.3213705e-09 -1.6932672e-06 -1.7853731e-08 
1.9831393e-08 3.7316644e-07 -8.3867446e-10 
1.3905195e-09 6.9415614e-07 7.5301720e-09 
-2.2639530e-09 5.2049462e-08 1.3732866e-10 
-8.5184121e-10 -2.0173512e-07 -2.0218323e-09 
1.9793596e-11 -5.8463971e-08 -7.4633312e-13 
2.7865962e-10 4.3907875e-08 3.5235317e-10 
6.9750448e-11 2.4032268e-08 -2.8165723e-11 
-7.1079295e-11 -6.6078361e-09 -2.6891635e-11 
-3.6617508e-11 -7.0364994e-09 1.8358861e-11 
1.4709504e-11 3.4891134e-10 -6.1686168e-12 
1.0603548e-11 1.6693210e-09 -2.7065281e-12 
-2.2983202e-12 1.8601690e-10 3.6394394e-12 
-2.0754427e-12 -3.3472289e-10 4.3735298e-13 
2.3332288e-13 -8.4776484e-11 -1.1642052e-12 
-5.1408682e-13 6.1722252e-11 -3.1200853e-13 
1.2515365e-14 2.7316456e-11 2.7896687e-13 
1.7892595e-14 -8.4725916e-12 -1.2772467e-14 
-2.5236762e-14 -6.2267622e-12 4.0675945e-15 
0.0000000e+00 1.6095120e-12 0.0000000e+00 
0.0000000e+00 1.7098657e-13 0.0000000e+00 
0.0000000e+00 -2.7108551e-13 0.0000000e+00 
0.0000000e+00 -7.7323578e-14 0.0000000e+00 
0.0000000e+00 4.2364034e-14 0.0000000e+00 
0.0000000e+00 2.5619718e-14 0.0000000e+00 
0.0000000e+00 -3.5446008e-15 0.0000000e+00 
0.0000000e+00 -6.9354007e-15 0.0000000e+00 
0.0000000e+00 -2.8600857e-15 0.0000000e+00 
0.0000000e+00 -3.8460203e-16 0.0000000e+00 
0.0000000e+00 1.3482360e-15 0.0000000e+00 
0.0000000e+00 7.5577907e-16 0.0000000e+00 
0.0000000e+00 -8.9177047e-16 0.0000000e+00 
0.0000000e+00 -1.7594792e-15 0.0000000e+00 
0.0000000e+00 1.6743366e-16 0.0000000e+00 
0.0000000e+00 1.9730896e-15 0.0000000e+00 
0.0000000e+00 1.7783527e-15 0.0000000e+00 
0.0000000e+00 -3.9220863e-16 0.0000000e+00 
0.0000000e+00 -2.7193142e-15 0.0000000e+00 
0.0000000e+00 -1.7892997e-15 0.0000000e+00 
0.0000000e+00 1.4555775e-15 0.0000000e+00 
0.0000000e+00 2.9220773e-15 0.0000000e+00 
0.0000000e+00 1.3025509e-15 0.0000000e+00 
0.0000000e+00 -2.3609614e-15 0.0000000e+00 
0.0000000e+00 -2.9416019e-15 0.0000000e+00 
0.0000000e+00 4.4126598e-17 0.0000000e+00 
0.0000000e+00 2.6236513e-15 0.0000000e+00 
0.0000000e+00 1.6307668e-15 0.0000000e+00 
0.0000000e+00 -1.0844383e-16 0.0000000e+00 
0.0000000e+00 -2.4093981e-15 0.0000000e+00 
0.0000000e+00 -1.2103052e-15 0.0000000e+00 
0.0000000e+00 6.4042965e-16 0.0000000e+00 
0.0000000e+00 2.1787407e-15 0.0000000e+00 
0.0000000e+00 3.2419765e-16 0.0000000e+00 
0.0000000e+00 -1.3485108e-15 0.0000000e+00 
0.0000000e+00 -1.1683972e-15 0.0000000e+00 
0.0000000e+00 7.2011178e-16 0.0000000e+00 
0.0000000e+00 7.0979259e-16 0.0000000e+00 
0.0000000e+00 -1.9940719e-16 0.0000000e+00 
0.0000000e+00 1.6335686e-15 0.0000000e+00 
0.0000000e+00 -1.0918428e-15 0.0000000e+00 
0.0000000e+00 -4.0971098e-15 0.0000000e+00 
0.0000000e+00 -6.1310422e-15 0.0000000e+00 
0.0000000e+00 -8.6803479e-15 0.0000000e+00 
0.0000000e+00 -2.5091513e-15 0.0000000e+00 
0.0000000e+00 3.1828019e-14 0.0000000e+00 
0.0000000e+00 4.8146593e-14 0.0000000e+00 
0.0000000e+00 -1.0710274e-13 0.0000000e+00 
0.0000000e+00 -3.3549175e-13 0.0000000e+00 
0.0000000e+00 2.7986736e-13 0.0000000e+00 
0.0000000e+00 2.0984909e-12 0.0000000e+00 
0.0000000e+00 6.8620863e-13 0.0000000e+00 
0.0000000e+00 -1.0045227e-11 0.0000000e+00 
0.0000000e+00 -1.3720430e-11 0.0000000e+00 
0.0000000e+00 3.4945127e-11 0.0000000e+00 
0.0000000e+00 1.0070867e-10 0.0000000e+00 
0.0000000e+00 -5.9781277e-11 0.0000000e+00 
0.0000000e+00 -5.1480770e-10 0.0000000e+00 
0.0000000e+00 -2.5881394e-10 0.0000000e+00 
0.0000000e+00 1.9306621e-09 0.0000000e+00 
0.0000000e+00 3.0208487e-09 0.0000000e+00 
0.0000000e+00 -4.6691802e-09 0.0000000e+00 
0.0000000e+00 -1.6413855e-08 0.0000000e+00 
0.0000000e+00 8.1750073e-10 0.0000000e+00 
0.0000000e+00 5.9983620e-08 0.0000000e+00 
0.0000000e+00 5.8249679e-08 0.0000000e+00 
0.0000000e+00 -1.4049293e-07 0.0000000e+00 
0.0000000e+00 -3.3068864e-07 0.0000000e+00 
0.0000000e+00 8.8886054e-08 0.0000000e+00 
0.0000000e+00 1.0613137e-06 0.0000000e+00 
0.0000000e+00 8.6515018e-07 0.0000000e+00 
0.0000000e+00 -1.9092620e-06 0.0000000e+00 
0.0000000e+00 -4.2365250e-06 0.0000000e+00 
0.0000000e+00 -1.2166572e-08 0.0000000e+00 
0.0000000e+00 9.6318136e-06 0.0000000e+00 
0.0000000e+00 1.0808253e-05 0.0000000e+00 
0.0000000e+00 -7.2881940e-06 0.0000000e+00 
0.0000000e+00 -2.9206059e-05 0.0000000e+00 
0.0000000e+00 -2.1355050e-05 0.0000000e+00 
0.0000000e+00 2.3948640e-05 0.0000000e+00 
0.0000000e+00 6.3475039e-05 0.0000000e+00 
0.0000000e+00 4.3369721e-05 0.0000000e+00 
0.0000000e+00 -3.3558103e-05 0.0000000e+00 
0.0000000e+00 -9.8833953e-05 0.0000000e+00 
0.0000000e+00 -8.7052125e-05 0.0000000e+00 
0.0000000e+00 -4.2413280e-06 0.0000000e+00 
0.0000000e+00 8.1794933e-05 0.0000000e+00 
0.0000000e+00 1.1163412e-04 0.0000000e+00 
0.0000000e+00 8.4487125e-05 0.0000000e+00 
0.0000000e+00 4.5639455e-05 0.0000000e+00 
0.0000000e+00 4.0363204e-05 0.0000000e+00 
0.0000000e+00 8.2278057e-05 0.0000000e+00 
0.0000000e+00 1.3436281e-04 0.0000000e+00 
0.0000000e+00 1.3403301e-04 0.0000000e+00 
0.0000000e+00 3.6425146e-05 0.0000000e+00 
0.0000000e+00 -1.7307434e-04 0.0000000e+00 
0.0000000e+00 -4.9992959e-04 0.0000000e+00 
0.0000000e+00 -9.8155090e-04 0.0000000e+00 
0.0000000e+00 -1.7168910e-03 0.0000000e+00 
0.0000000e+00 -2.7841574e-03 0.0000000e+00 
0.0000000e+00 -4.0353131e-03 0.0000000e+00 
0.0000000e+00 -4.8699854e-03 0.0000000e+00 
0.0000000e+00 -4.6441918e-03 0.0000000e+00 
0.0000000e+00 -4.0860940e-03 0.0000000e+00 
0.0000000e+00 -3.9013987e-03 0.0000000e+00 
0.0000000e+00 -4.1512661e-03 0.0000000e+00 
0.0000000e+00 -4.2442926e-03 0.0000000e+00 
0.0000000e+00 -3.3356878e-03 0.0000000e+00 
0.0000000e+00 -2.0057210e-03 0.0000000e+00 
0.0000000e+00 -8.6473598e-04 0.0000000e+00 
0.0000000e+00 -1.5274022e-04 0.0000000e+00 
0.0000000e+00 1.6816992e-04 0.0000000e+00 
0.0000000e+00 2.5251418e-04 0.0000000e+00 
0.0000000e+00 2.3847283e-04 0.0000000e+00 
0.0000000e+00 2.0132282e-04 0.0000000e+00 
0.0000000e+00 1.5055882e-04 0.0000000e+00 
0.0000000e+00 7.1921640e-05 0.0000000e+00 
0.0000000e+00 -2.5884916e-05 0.0000000e+00 
0.0000000e+00 -9.7185628e-05 0.0000000e+00 
0.0000000e+00 -9.1700014e-05 0.0000000e+00 
0.0000000e+00 -1.1325490e-05 0.0000000e+00 
0.0000000e+00 6.7451176e-05 0.0000000e+00 
0.0000000e+00 6.4632637e-05 0.0000000e+00 
0.0000000e+00 -1.0907034e-05 0.0000000e+00 
0.0000000e+00 -7.5288517e-05 0.0000000e+00 
0.0000000e+00 -6.4615328e-05 0.0000000e+00 
0.0000000e+00 3.4337238e-06 0.0000000e+00 
0.0000000e+00 6.5404442e-05 0.0000000e+00 
0.0000000e+00 7.9399324e-05 0.0000000e+00 
0.0000000e+00 4.6515623e-05 0.0000000e+00 
0.0000000e+00 5.3398439e-06 0.0000000e+00 
0.0000000e+00 1.1290629e-05 0.0000000e+00 
0.0000000e+00 7.8902383e-05 0.0000000e+00 
0.0000000e+00 1.4446642e-04 0.0000000e+00 
0.0000000e+00 9.7885015e-05 0.0000000e+00 
0.0000000e+00 -1.4765744e-04 0.0000000e+00 
0.0000000e+00 -5.9379521e-04 0.0000000e+00 
0.0000000e+00 -1.1915205e-03 0.0000000e+00 
0.0000000e+00 -1.9566484e-03 0.0000000e+00 
0.0000000e+00 -2.9669991e-03 0.0000000e+00 
0.0000000e+00 -4.1433820e-03 0.0000000e+00 
0.0000000e+00 -4.9289064e-03 0.0000000e+00 
0.0000000e+00 -4.6777506e-03 0.0000000e+00 
0.0000000e+00 -4.1304682e-03 0.0000000e+00 
0.0000000e+00 -3.9639855e-03 0.0000000e+00 
0.0000000e+00 -4.1863527e-03 0.0000000e+00 
0.0000000e+00 -4.1753124e-03 0.0000000e+00 
0.0000000e+00 -3.1355696e-03 0.0000000e+00 
0.0000000e+00 -1.7727223e-03 0.0000000e+00 
0.0000000e+00 -6.8808394e-04 0.0000000e+00 
0.0000000e+00 -7.5454460e-05 0.0000000e+00 
0.0000000e+00 1.6940008e-04 0.0000000e+00 
0.0000000e+00 2.3058991e-04 0.0000000e+00 
0.0000000e+00 2.2531931e-04 0.0000000e+00 
0.0000000e+00 1.8915677e-04 0.0000000e+00 
0.0000000e+00 1.1917962e-04 0.0000000e+00 
0.0000000e+00 2.3031724e-05 0.0000000e+00 
0.0000000e+00 -6.1684426e-05 0.0000000e+00 
0.0000000e+00 -9.3341536e-05 0.0000000e+00 
0.0000000e+00 -6.4355227e-05 0.0000000e+00 
0.0000000e+00 -2.9547045e-06 0.0000000e+00 
0.0000000e+00 4.1487056e-05 0.0000000e+00 
0.0000000e+00 3.6573841e-05 0.0000000e+00 
0.0000000e+00 1.7893755e-06 0.0000000e+00 
0.0000000e+00 -1.9271951e-05 0.0000000e+00 
0.0000000e+00 -1.2948691e-05 0.0000000e+00 
0.0000000e+00 2.2642171e-06 0.0000000e+00 
0.0000000e+00 7.3959254e-06 0.0000000e+00 
0.0000000e+00 2.3705411e-06 0.0000000e+00 
0.0000000e+00 -2.2392649e-06 0.0000000e+00 
0.0000000e+00 -1.7872651e-06 0.0000000e+00 
0.0000000e+00 2.6596493e-07 0.0000000e+00 
0.0000000e+00 7.0787706e-07 0.0000000e+00 
0.0000000e+00 9.5875450e-08 0.0000000e+00 
0.0000000e+00 -1.9867474e-07 0.0000000e+00 
0.0000000e+00 -7.2296345e-08 0.0000000e+00 
0.0000000e+00 4.0929585e-08 0.0000000e+00 
0.0000000e+00 2.7532632e-08 0.0000000e+00 
0.0000000e+00 -5.3242171e-09 0.0000000e+00 
0.0000000e+00 -7.7552720e-09 0.0000000e+00 
0.0000000e+00 -6.0238314e-11 0.0000000e+00 
0.0000000e+00 1.7828512e-09 0.0000000e+00 
0.0000000e+00 2.9387864e-10 0.0000000e+00 
0.0000000e+00 -3.4514872e-10 0.0000000e+00 
0.0000000e+00 -1.0938057e-10 0.0000000e+00 
0.0000000e+00 6.0494693e-11 0.0000000e+00 
0.0000000e+00 3.2385553e-11 0.0000000e+00 
0.0000000e+00 -7.5355555e-12 0.0000000e+00 
0.0000000e+00 -7.2025380e-12 0.0000000e+00 
0.0000000e+00 6.7313364e-13 0.0000000e+00 
0.0000000e+00 1.7319232e-12 0.0000000e+00 
0.0000000e+00 2.4433035e-13 0.0000000e+00 
0.0000000e+00 -2.8214185e-13 0.0000000e+00 
0.0000000e+00 -9.4481579e-14 0.0000000e+00 
0.0000000e+00 4.1852122e-14 0.0000000e+00 
0.0000000e+00 2.8565583e-14 0.0000000e+00 
0.0000000e+00 -2.4219323e-15 0.0000000e+00 
0.0000000e+00 -7.8196134e-15 0.0000000e+00 
0.0000000e+00 -3.1209505e-15 0.0000000e+00 
0.0000000e+00 2.0568313e-16 0.0000000e+00 
0.0000000e+00 1.1247736e-15 0.0000000e+00 
0.0000000e+00 5.1497104e-16 0.0000000e+00 
0.0000000e+00 -9.9020777e-16 0.0000000e+00 
0.0000000e+00 -1.3133871e-15 0.0000000e+00 
0.0000000e+00 1.1627657e-16 0.0000000e+00 
0.0000000e+00 1.8283071e-15 0.0000000e+00 
0.0000000e+00 1.7124095e-15 0.0000000e+00 
0.0000000e+00 -5.7673166e-16 0.0000000e+00 
0.0000000e+00 -2.3904839e-15 0.0000000e+00 
0.0000000e+00 -1.5859749e-15 0.0000000e+00 
0.0000000e+00 1.1715769e-15 0.0000000e+00 
0.0000000e+00 2.8276691e-15 0.0000000e+00 
0.0000000e+00 1.1306473e-15 0.0000000e+00 
0.0000000e+00 -1.9604095e-15 0.0000000e+00 
0.0000000e+00 -2.8181108e-15 0.0000000e+00 
0.0000000e+00 -2.9317560e-16 0.0000000e+00 
0.0000000e+00 2.4438076e-15 0.0000000e+00 
0.0000000e+00 2.2433172e-15 0.0000000e+00 
0.0000000e+00 -6.4170300e-16 0.0000000e+00 
0.0000000e+00 -2.2960795e-15 0.0000000e+00 
0.0000000e+00 -1.2219674e-15 0.0000000e+00 
0.0000000e+00 1.1556511e-15 0.0000000e+00 
0.0000000e+00 1.5988186e-15 0.0000000e+00 
0.0000000e+00 1.7428024e-16 0.0000000e+00 
0.0000000e+00 -1.0897888e-15 0.0000000e+00 
0.0000000e+00 -6.8880243e-16 0.0000000e+00 
0.0000000e+00 2.1993454e-16 0.0000000e+00 
0.0000000e+00 4.1855551e-16 0.0000000e+00 
0.0000000e+00 1.3568136e-16 0.0000000e+00 
0.0000000e+00 0.0000000e+00 0.0000000e+00 
0.0000000e+00 0.0000000e+00 0.0000000e+00 
0.0000000e+00 0.0000000e+00 0.0000000e+00 
0.0000000e+00 0.0000000e+00 0.0000000e+00 
0.0000000e+00 0.0000000e+00 0.0000000e+00 
0.0000000e+00 0.0000000e+00 0.0000000e+00 
0.0000000e+00 0.0000000e+00 0.0000000e+00 
0.0000000e+00 0.0000000e+00 0.0000000e+00 
0.0000000e+00 0.0000000e+00 0.0000000e+00 
0.0000000e+00 0.0000000e+00 0.0000000e+00 
0.0000000e+00 0.0000000e+00 0.0000000e+00 
0.0000000e+00 0.0000000e+00 0.0000000e+00 
0.0000000e+00 0.0000000e+00 0.0000000e+00 
0.0000000e+00 0.0000000e+00 0.0000000e+00 
0.0000000e+00 0.0000000e+00 0.0000000e+00 
0.0000000e+00 0.0000000e+00 0.0000000e+00 
0.0000000e+00 0.0000000e+00 0.0000000e+00 
0.0000000e+00 0.0000000e+00 0.0000000e+00 
0.0000000e+00 0.0000000e+00 0.0000000e+00 
0.0000000e+00 0.0000000e+00 0.0000000e+00 
0.0000000e+00 0.0000000e+00 0.0000000e+00 
0.0000000e+00 0.0000000e+00 0.0000000e+00 
0.0000000e+00 0.0000000e+00 0.0000000e+00 
0.0000000e+00 0.0000000e+00 0.0000000e+00 
0.0000000e+00 0.0000000e+00 0.0000000e+00 
0.0000000e+00 0.0000000e+00 0.0000000e+00 
0.0000000e+00 0.0000000e+00 0.0000000e+00 
0.0000000e+00 0.0000000e+00 0.0000000e+00 
0.0000000e+00 0.0000000e+00 0.0000000e+00 
0.0000000e+00 0.0000000e+00 0.0000000e+00 
0.0000000e+00 0.0000000e+00 0.0000000e+00 
0.0000000e+00 0.0000000e+00 0.0000000e+00 
0.0000000e+00 0.0000000e+00 0.0000000e+00 
0.0000000e+00 0.0000000e+00 0.0000000e+00 
0.0000000e+00 0.0000000e+00 0.0000000e+00 
0.0000000e+00 0.0000000e+00 0.0000000e+00 
0.0000000e+00 0.0000000e+00 0.0000000e+00 
0.0000000e+00 0.0000000e+00 0.0000000e+00 
0.0000000e+00 0.0000000e+00 0.0000000e+00 
0.0000000e+00 0.0000000e+00 0.0000000e+00 
0.0000000e+00 0.0000000e+00 0.0000000e+00 
0.0000000e+00 0.0000000e+00 0.0000000e+00 
0.0000000e+00 0.0000000e+00 0.0000000e+00 
0.0000000e+00 0.0000000e+00 0.0000000e+00 
0.0000000e+00 0.0000000e+00 0.0000000e+00 
0.0000000e+00 0.0000000e+00 0.0000000e+00 
0.0000000e+00 0.0000000e+00 0.0000000e+00 
0.0000000e+00 0.0000000e+00 0.0000000e+00 
0.0000000e+00 0.0000000e+00 0.0000000e+00 
0.0000000e+00 0.0000000e+00 0.0000000e+00 
0.0000000e+00 0.0000000e+00 0.0000000e+00 
0.0000000e+00 0.0000000e+00 0.0000000e+00 
0.0000000e+00 0.0000000e+00 0.0000000e+00 
0.0000000e+00 0.0000000e+00 0.0000000e+00 
0.0000000e+00 0.0000000e+00 0.0000000e+00 
0.0000000e+00 0.0000000e+00 0.0000000e+00 
0.0000000e+00 0.0000000e+00 0.0000000e+00 
0.0000000e+00 0.0000000e+00 0.0000000e+00 