# vtk DataFile Version 4.0
vtk output
ASCII
DATASET UNSTRUCTURED_GRID
POINTS 2186 float
0.0000000e+00 0.0000000e+00 0.0000000e+00 
0.0000000e+00 0.0000000e+00 5.0000000e+01 
5.0000000e+00 0.0000000e+00 0.0000000e+00 
5.0000000e+00 0.0000000e+00 5.0000000e+01 
5.0000000e+00 1.0000000e+00 0.0000000e+00 
5.0000000e+00 1.0000000e+00 5.0000000e+01 
0.0000000e+00 1.0000000e+00 0.0000000e+00 
0.0000000e+00 1.0000000e+00 5.0000000e+01 
5.0000000e+00 2.0000000e+00 0.0000000e+00 
5.0000000e+00 2.0000000e+00 5.0000000e+01 
3.0000000e+00 2.0000000e+00 0.0000000e+00 
3.0000000e+00 2.0000000e+00 5.0000000e+01 
0.0000000e+00 2.0000000e+00 0.0000000e+00 
0.0000000e+00 2.0000000e+00 5.0000000e+01 
1.5000000e+00 3.0000000e+00 0.0000000e+00 
1.5000000e+00 3.0000000e+00 5.0000000e+01 
7.5000000e-01 3.0000000e+00 0.0000000e+00 
7.5000000e-01 3.0000000e+00 5.0000000e+01 
0.0000000e+00 3.0000000e+00 0.0000000e+00 
0.0000000e+00 3.0000000e+00 5.0000000e+01 
7.5000000e-01 3.0000000e+00 -2.5000000e+01 
7.5000000e-01 3.0000000e+00 -2.4500000e+01 
7.5000000e-01 3.0000000e+00 -2.4000000e+01 
7.5000000e-01 3.0000000e+00 -2.3500000e+01 
7.5000000e-01 3.0000000e+00 -2.3000000e+01 
7.5000000e-01 3.0000000e+00 -2.2500000e+01 
7.5000000e-01 3.0000000e+00 -2.2000000e+01 
7.5000000e-01 3.0000000e+00 -2.1500000e+01 
7.5000000e-01 3.0000000e+00 -2.1000000e+01 
7.5000000e-01 3.0000000e+00 -2.0500000e+01 
7.5000000e-01 3.0000000e+00 -2.0000000e+01 
7.5000000e-01 3.0000000e+00 -1.9500000e+01 
7.5000000e-01 3.0000000e+00 -1.9000000e+01 
7.5000000e-01 3.0000000e+00 -1.8500000e+01 
7.5000000e-01 3.0000000e+00 -1.8000000e+01 
7.5000000e-01 3.0000000e+00 -1.7500000e+01 
7.5000000e-01 3.0000000e+00 -1.7000000e+01 
7.5000000e-01 3.0000000e+00 -1.6500000e+01 
7.5000000e-01 3.0000000e+00 -1.6000000e+01 
7.5000000e-01 3.0000000e+00 -1.5500000e+01 
7.5000000e-01 3.0000000e+00 -1.5000000e+01 
7.5000000e-01 3.0000000e+00 -1.4500000e+01 
7.5000000e-01 3.0000000e+00 -1.4000000e+01 
7.5000000e-01 3.0000000e+00 -1.3500000e+01 
7.5000000e-01 3.0000000e+00 -1.3000000e+01 
7.5000000e-01 3.0000000e+00 -1.2500000e+01 
7.5000000e-01 3.0000000e+00 -1.2000000e+01 
7.5000000e-01 3.0000000e+00 -1.1500000e+01 
7.5000000e-01 3.0000000e+00 -1.1000000e+01 
7.5000000e-01 3.0000000e+00 -1.0500000e+01 
7.5000000e-01 3.0000000e+00 -1.0000000e+01 
7.5000000e-01 3.0000000e+00 -9.5000000e+00 
7.5000000e-01 3.0000000e+00 -9.0000000e+00 
7.5000000e-01 3.0000000e+00 -8.5000000e+00 
7.5000000e-01 3.0000000e+00 -8.0000000e+00 
7.5000000e-01 3.0000000e+00 -7.5000000e+00 
7.5000000e-01 3.0000000e+00 -7.0000000e+00 
7.5000000e-01 3.0000000e+00 -6.5000000e+00 
7.5000000e-01 3.0000000e+00 -6.0000000e+00 
7.5000000e-01 3.0000000e+00 -5.5000000e+00 
7.5000000e-01 3.0000000e+00 -5.0000000e+00 
7.5000000e-01 3.0000000e+00 -4.5000000e+00 
7.5000000e-01 3.0000000e+00 -4.0000000e+00 
7.5000000e-01 3.0000000e+00 -3.5000000e+00 
7.5000000e-01 3.0000000e+00 -3.0000000e+00 
7.5000000e-01 3.0000000e+00 -2.5000000e+00 
7.5000000e-01 3.0000000e+00 -2.0000000e+00 
7.5000000e-01 3.0000000e+00 -1.5000000e+00 
7.5000000e-01 3.0000000e+00 -1.0000000e+00 
7.5000000e-01 3.0000000e+00 -5.0000000e-01 
7.5000000e-01 3.0000000e+00 5.0000000e-01 
7.5000000e-01 3.0000000e+00 1.0000000e+00 
7.5000000e-01 3.0000000e+00 1.5000000e+00 
7.5000000e-01 3.0000000e+00 2.0000000e+00 
7.5000000e-01 3.0000000e+00 2.5000000e+00 
7.5000000e-01 3.0000000e+00 3.0000000e+00 
7.5000000e-01 3.0000000e+00 3.5000000e+00 
7.5000000e-01 3.0000000e+00 4.0000000e+00 
7.5000000e-01 3.0000000e+00 4.5000000e+00 
7.5000000e-01 3.0000000e+00 5.0000000e+00 
7.5000000e-01 3.0000000e+00 5.5000000e+00 
7.5000000e-01 3.0000000e+00 6.0000000e+00 
7.5000000e-01 3.0000000e+00 6.5000000e+00 
7.5000000e-01 3.0000000e+00 7.0000000e+00 
7.5000000e-01 3.0000000e+00 7.5000000e+00 
7.5000000e-01 3.0000000e+00 8.0000000e+00 
7.5000000e-01 3.0000000e+00 8.5000000e+00 
7.5000000e-01 3.0000000e+00 9.0000000e+00 
7.5000000e-01 3.0000000e+00 9.5000000e+00 
7.5000000e-01 3.0000000e+00 1.0000000e+01 
7.5000000e-01 3.0000000e+00 1.0500000e+01 
7.5000000e-01 3.0000000e+00 1.1000000e+01 
7.5000000e-01 3.0000000e+00 1.1500000e+01 
7.5000000e-01 3.0000000e+00 1.2000000e+01 
7.5000000e-01 3.0000000e+00 1.2500000e+01 
7.5000000e-01 3.0000000e+00 1.3000000e+01 
7.5000000e-01 3.0000000e+00 1.3500000e+01 
7.5000000e-01 3.0000000e+00 1.4000000e+01 
7.5000000e-01 3.0000000e+00 1.4500000e+01 
7.5000000e-01 3.0000000e+00 1.5000000e+01 
7.5000000e-01 3.0000000e+00 1.5500000e+01 
7.5000000e-01 3.0000000e+00 1.6000000e+01 
7.5000000e-01 3.0000000e+00 1.6500000e+01 
7.5000000e-01 3.0000000e+00 1.7000000e+01 
7.5000000e-01 3.0000000e+00 1.7500000e+01 
7.5000000e-01 3.0000000e+00 1.8000000e+01 
7.5000000e-01 3.0000000e+00 1.8500000e+01 
7.5000000e-01 3.0000000e+00 1.9000000e+01 
7.5000000e-01 3.0000000e+00 1.9500000e+01 
7.5000000e-01 3.0000000e+00 2.0000000e+01 
7.5000000e-01 3.0000000e+00 2.0500000e+01 
7.5000000e-01 3.0000000e+00 2.1000000e+01 
7.5000000e-01 3.0000000e+00 2.1500000e+01 
7.5000000e-01 3.0000000e+00 2.2000000e+01 
7.5000000e-01 3.0000000e+00 2.2500000e+01 
7.5000000e-01 3.0000000e+00 2.3000000e+01 
7.5000000e-01 3.0000000e+00 2.3500000e+01 
7.5000000e-01 3.0000000e+00 2.4000000e+01 
7.5000000e-01 3.0000000e+00 2.4500000e+01 
7.5000000e-01 3.0000000e+00 2.5000000e+01 
7.5000000e-01 3.0000000e+00 2.5500000e+01 
7.5000000e-01 3.0000000e+00 2.6000000e+01 
7.5000000e-01 3.0000000e+00 2.6500000e+01 
7.5000000e-01 3.0000000e+00 2.7000000e+01 
7.5000000e-01 3.0000000e+00 2.7500000e+01 
7.5000000e-01 3.0000000e+00 2.8000000e+01 
7.5000000e-01 3.0000000e+00 2.8500000e+01 
7.5000000e-01 3.0000000e+00 2.9000000e+01 
7.5000000e-01 3.0000000e+00 2.9500000e+01 
7.5000000e-01 3.0000000e+00 3.0000000e+01 
7.5000000e-01 3.0000000e+00 3.0500000e+01 
7.5000000e-01 3.0000000e+00 3.1000000e+01 
7.5000000e-01 3.0000000e+00 3.1500000e+01 
7.5000000e-01 3.0000000e+00 3.2000000e+01 
7.5000000e-01 3.0000000e+00 3.2500000e+01 
7.5000000e-01 3.0000000e+00 3.3000000e+01 
7.5000000e-01 3.0000000e+00 3.3500000e+01 
7.5000000e-01 3.0000000e+00 3.4000000e+01 
7.5000000e-01 3.0000000e+00 3.4500000e+01 
7.5000000e-01 3.0000000e+00 3.5000000e+01 
7.5000000e-01 3.0000000e+00 3.5500000e+01 
7.5000000e-01 3.0000000e+00 3.6000000e+01 
7.5000000e-01 3.0000000e+00 3.6500000e+01 
7.5000000e-01 3.0000000e+00 3.7000000e+01 
7.5000000e-01 3.0000000e+00 3.7500000e+01 
7.5000000e-01 3.0000000e+00 3.8000000e+01 
7.5000000e-01 3.0000000e+00 3.8500000e+01 
7.5000000e-01 3.0000000e+00 3.9000000e+01 
7.5000000e-01 3.0000000e+00 3.9500000e+01 
7.5000000e-01 3.0000000e+00 4.0000000e+01 
7.5000000e-01 3.0000000e+00 4.0500000e+01 
7.5000000e-01 3.0000000e+00 4.1000000e+01 
7.5000000e-01 3.0000000e+00 4.1500000e+01 
7.5000000e-01 3.0000000e+00 4.2000000e+01 
7.5000000e-01 3.0000000e+00 4.2500000e+01 
7.5000000e-01 3.0000000e+00 4.3000000e+01 
7.5000000e-01 3.0000000e+00 4.3500000e+01 
7.5000000e-01 3.0000000e+00 4.4000000e+01 
7.5000000e-01 3.0000000e+00 4.4500000e+01 
7.5000000e-01 3.0000000e+00 4.5000000e+01 
7.5000000e-01 3.0000000e+00 4.5500000e+01 
7.5000000e-01 3.0000000e+00 4.6000000e+01 
7.5000000e-01 3.0000000e+00 4.6500000e+01 
7.5000000e-01 3.0000000e+00 4.7000000e+01 
7.5000000e-01 3.0000000e+00 4.7500000e+01 
7.5000000e-01 3.0000000e+00 4.8000000e+01 
7.5000000e-01 3.0000000e+00 4.8500000e+01 
7.5000000e-01 3.0000000e+00 4.9000000e+01 
7.5000000e-01 3.0000000e+00 4.9500000e+01 
7.5000000e-01 3.0000000e+00 5.0500000e+01 
7.5000000e-01 3.0000000e+00 5.1000000e+01 
7.5000000e-01 3.0000000e+00 5.1500000e+01 
7.5000000e-01 3.0000000e+00 5.2000000e+01 
7.5000000e-01 3.0000000e+00 5.2500000e+01 
7.5000000e-01 3.0000000e+00 5.3000000e+01 
7.5000000e-01 3.0000000e+00 5.3500000e+01 
7.5000000e-01 3.0000000e+00 5.4000000e+01 
7.5000000e-01 3.0000000e+00 5.4500000e+01 
7.5000000e-01 3.0000000e+00 5.5000000e+01 
7.5000000e-01 3.0000000e+00 5.5500000e+01 
7.5000000e-01 3.0000000e+00 5.6000000e+01 
7.5000000e-01 3.0000000e+00 5.6500000e+01 
7.5000000e-01 3.0000000e+00 5.7000000e+01 
7.5000000e-01 3.0000000e+00 5.7500000e+01 
7.5000000e-01 3.0000000e+00 5.8000000e+01 
7.5000000e-01 3.0000000e+00 5.8500000e+01 
7.5000000e-01 3.0000000e+00 5.9000000e+01 
7.5000000e-01 3.0000000e+00 5.9500000e+01 
7.5000000e-01 3.0000000e+00 6.0000000e+01 
7.5000000e-01 3.0000000e+00 6.0500000e+01 
7.5000000e-01 3.0000000e+00 6.1000000e+01 
7.5000000e-01 3.0000000e+00 6.1500000e+01 
7.5000000e-01 3.0000000e+00 6.2000000e+01 
7.5000000e-01 3.0000000e+00 6.2500000e+01 
7.5000000e-01 3.0000000e+00 6.3000000e+01 
7.5000000e-01 3.0000000e+00 6.3500000e+01 
7.5000000e-01 3.0000000e+00 6.4000000e+01 
7.5000000e-01 3.0000000e+00 6.4500000e+01 
7.5000000e-01 3.0000000e+00 6.5000000e+01 
7.5000000e-01 3.0000000e+00 6.5500000e+01 
7.5000000e-01 3.0000000e+00 6.6000000e+01 
7.5000000e-01 3.0000000e+00 6.6500000e+01 
7.5000000e-01 3.0000000e+00 6.7000000e+01 
7.5000000e-01 3.0000000e+00 6.7500000e+01 
7.5000000e-01 3.0000000e+00 6.8000000e+01 
7.5000000e-01 3.0000000e+00 6.8500000e+01 
7.5000000e-01 3.0000000e+00 6.9000000e+01 
7.5000000e-01 3.0000000e+00 6.9500000e+01 
7.5000000e-01 3.0250001e+00 -2.5000000e+01 
7.5000000e-01 3.0250001e+00 -2.4500000e+01 
7.5000000e-01 3.0250001e+00 -2.4000000e+01 
7.5000000e-01 3.0250001e+00 -2.3500000e+01 
7.5000000e-01 3.0250001e+00 -2.3000000e+01 
7.5000000e-01 3.0250001e+00 -2.2500000e+01 
7.5000000e-01 3.0250001e+00 -2.2000000e+01 
7.5000000e-01 3.0250001e+00 -2.1500000e+01 
7.5000000e-01 3.0250001e+00 -2.1000000e+01 
7.5000000e-01 3.0250001e+00 -2.0500000e+01 
7.5000000e-01 3.0250001e+00 -2.0000000e+01 
7.5000000e-01 3.0250001e+00 -1.9500000e+01 
7.5000000e-01 3.0250001e+00 -1.9000000e+01 
7.5000000e-01 3.0250001e+00 -1.8500000e+01 
7.5000000e-01 3.0250001e+00 -1.8000000e+01 
7.5000000e-01 3.0250001e+00 -1.7500000e+01 
7.5000000e-01 3.0250001e+00 -1.7000000e+01 
7.5000000e-01 3.0250001e+00 -1.6500000e+01 
7.5000000e-01 3.0250001e+00 -1.6000000e+01 
7.5000000e-01 3.0250001e+00 -1.5500000e+01 
[...]
POINT_DATA 2186
FIELD FieldData 3
DISPLACEMENT 3 2186  float
0.0000000e+00 0.0000000e+00 0.0000000e+00 
0.0000000e+00 0.0000000e+00 0.0000000e+00 
0.0000000e+00 0.0000000e+00 0.0000000e+00 
0.0000000e+00 0.0000000e+00 0.0000000e+00 
-1.6677765e-06 -1.1964303e-06 -2.3921478e-07 
2.9237802e-07 -5.2537951e-07 1.5243696e-06 
0.0000000e+00 8.9785281e-06 0.0000000e+00 
0.0000000e+00 -9.1670995e-07 0.0000000e+00 
-1.9951240e-06 -8.2691214e-09 1.5010969e-06 
4.2369859e-08 -4.0941867e-07 1.5090108e-06 
-3.8081637e-06 2.2277704e-06 3.3716699e-06 
1.5415632e-06 -2.1275293e-06 2.1890053e-06 
0.0000000e+00 9.9273439e-06 0.0000000e+00 
0.0000000e+00 -7.5051759e-07 0.0000000e+00 
-1.6875267e-05 3.1586699e-06 7.7383484e-06 
-1.7551756e-06 3.8333646e-06 4.6402924e-06 
-1.2086259e-05 -6.3346183e-06 -4.4437007e-07 
-9.3054740e-07 -1.4394409e-06 -4.6203941e-06 
0.0000000e+00 8.4342440e-07 0.0000000e+00 
0.0000000e+00 4.7318745e-06 0.0000000e+00 
0.0000000e+00 1.1540649e-05 0.0000000e+00 
0.0000000e+00 9.9233712e-06 0.0000000e+00 
0.0000000e+00 5.7077350e-06 0.0000000e+00 
0.0000000e+00 3.1163000e-07 0.0000000e+00 
0.0000000e+00 -4.7507515e-06 0.0000000e+00 
0.0000000e+00 -8.4059029e-06 0.0000000e+00 
0.0000000e+00 -1.0167179e-05 0.0000000e+00 
0.0000000e+00 -9.9168901e-06 0.0000000e+00 
0.0000000e+00 -7.6621263e-06 0.0000000e+00 
0.0000000e+00 -3.5852217e-06 0.0000000e+00 
0.0000000e+00 1.6450869e-06 0.0000000e+00 
0.0000000e+00 6.6921498e-06 0.0000000e+00 
0.0000000e+00 9.8794826e-06 0.0000000e+00 
0.0000000e+00 9.9958070e-06 0.0000000e+00 
0.0000000e+00 7.0702013e-06 0.0000000e+00 
0.0000000e+00 2.5004651e-06 0.0000000e+00 
0.0000000e+00 -1.6738310e-06 0.0000000e+00 
0.0000000e+00 -3.9154738e-06 0.0000000e+00 
0.0000000e+00 -3.9644601e-06 0.0000000e+00 
0.0000000e+00 -2.7403225e-06 0.0000000e+00 
0.0000000e+00 -1.5519629e-06 0.0000000e+00 
0.0000000e+00 -1.2659851e-06 0.0000000e+00 
0.0000000e+00 -1.9685838e-06 0.0000000e+00 
0.0000000e+00 -3.1691966e-06 0.0000000e+00 
0.0000000e+00 -4.2225961e-06 0.0000000e+00 
0.0000000e+00 -4.6217128e-06 0.0000000e+00 
0.0000000e+00 -4.0283330e-06 0.0000000e+00 
0.0000000e+00 -2.1703172e-06 0.0000000e+00 
0.0000000e+00 1.1249732e-06 0.0000000e+00 
0.0000000e+00 5.6235249e-06 0.0000000e+00 
0.0000000e+00 1.0330787e-05 0.0000000e+00 
0.0000000e+00 1.3547263e-05 0.0000000e+00 
0.0000000e+00 1.3547182e-05 0.0000000e+00 
0.0000000e+00 9.5580936e-06 0.0000000e+00 
0.0000000e+00 2.4138180e-06 0.0000000e+00 
0.0000000e+00 -5.5864689e-06 0.0000000e+00 
0.0000000e+00 -1.1650676e-05 0.0000000e+00 
0.0000000e+00 -1.3862236e-05 0.0000000e+00 
0.0000000e+00 -1.2154266e-05 0.0000000e+00 
0.0000000e+00 -8.1992857e-06 0.0000000e+00 
0.0000000e+00 -4.2745573e-06 0.0000000e+00 
0.0000000e+00 -1.9906672e-06 0.0000000e+00 
0.0000000e+00 -1.7627267e-06 0.0000000e+00 
0.0000000e+00 -3.0841372e-06 0.0000000e+00 
0.0000000e+00 -5.0661479e-06 0.0000000e+00 
0.0000000e+00 -6.8748818e-06 0.0000000e+00 
0.0000000e+00 -8.0187938e-06 0.0000000e+00 
0.0000000e+00 -8.4078429e-06 0.0000000e+00 
0.0000000e+00 -8.1456337e-06 0.0000000e+00 
0.0000000e+00 -7.3501051e-06 0.0000000e+00 
-4.3321834e-06 -5.3664148e-06 -7.6428830e-07 
-2.2574729e-06 -6.1667934e-06 4.4051321e-06 
-4.6729278e-06 -8.6144082e-06 5.3988333e-06 
-2.5245208e-06 -1.0074915e-05 1.3218147e-05 
3.4921704e-06 -7.9998526e-06 5.0578315e-06 
1.1737281e-05 -1.8697962e-06 4.1969192e-06 
1.5522290e-05 6.2772451e-06 -4.8204533e-06 
1.6267231e-05 1.2035326e-05 -2.2273691e-06 
1.5583168e-05 1.3100146e-05 5.2421551e-06 
1.9643547e-05 1.2317141e-05 1.7611235e-05 
1.6788335e-05 1.3934537e-05 1.9210442e-05 
2.0080279e-05 2.0976398e-05 2.0988460e-05 
1.6610215e-05 2.9312821e-05 1.7858598e-05 
2.0293102e-05 3.0155901e-05 1.6634434e-05 
1.8456574e-05 2.1871343e-05 1.8547866e-05 
1.6496393e-05 1.3379195e-05 2.0044496e-05 
1.6963072e-06 1.3287450e-05 2.5004496e-05 
-6.0495036e-06 2.2989339e-05 1.5658390e-05 
-2.1354085e-06 3.0922762e-05 -2.1444835e-07 
-4.0424529e-06 1.7820097e-05 -1.1489799e-05 
-4.2997522e-06 -1.2283433e-05 -2.0338295e-05 
-1.4860378e-05 -2.5755251e-05 -1.9818130e-05 
-2.0990210e-05 2.6078012e-06 -2.0144031e-05 
-1.6106613e-05 6.1337210e-05 -2.2967990e-05 
-1.0596143e-05 1.0072107e-04 -2.3498020e-05 
-1.1971066e-05 7.8340454e-05 -2.3735405e-05 
-1.7735227e-05 -7.9207230e-06 2.8511889e-05 
-3.0839714e-05 -1.5610928e-04 6.1483450e-05 
-4.4913235e-05 -3.9908808e-04 1.4722769e-04 
-6.2690844e-05 -8.2919118e-04 1.1392578e-04 
-9.4802061e-05 -1.5961397e-03 2.3252158e-04 
-1.3152800e-04 -2.7833120e-03 1.0394274e-04 
-2.6118322e-04 -4.2182296e-03 1.7592977e-04 
-6.5029971e-04 -5.2129528e-03 1.5103004e-04 
-2.7986037e-04 -5.0072283e-03 5.7848159e-05 
-1.9361597e-04 -4.3786569e-03 5.7653087e-05 
-1.9595170e-04 -4.1267937e-03 3.0002429e-05 
-2.0853990e-04 -4.3533179e-03 -5.6636811e-05 
-2.3597805e-04 -4.5097563e-03 -9.6942531e-05 
-2.0772358e-04 -3.7192223e-03 -1.0217019e-04 
-1.2571744e-04 -2.4461586e-03 -2.2961100e-04 
-8.5928245e-05 -1.2482349e-03 -1.0655299e-04 
-2.2098766e-05 -3.9611367e-04 -1.3852924e-04 
-8.4117528e-06 7.2527517e-05 -5.8691065e-05 
1.5795745e-06 2.3741949e-04 -4.8650545e-05 
8.5177799e-06 2.3470436e-04 -3.1878710e-05 
1.2153199e-05 1.8465947e-04 -2.2938586e-05 
1.9746751e-05 1.3794338e-04 -2.4974590e-05 
2.4142199e-05 9.6960670e-05 -1.6401433e-05 
1.9507534e-05 5.5230081e-05 -1.5405980e-05 
1.1772013e-05 1.8675795e-05 -1.0464087e-05 
1.3081761e-05 1.4455937e-06 -1.1703872e-05 
7.4818631e-06 3.6211998e-06 -1.0693477e-05 
1.6773922e-05 8.8036641e-06 -1.1913013e-05 
1.9114390e-05 3.3140070e-06 -8.9588484e-06 
1.7300923e-05 -1.0503222e-05 -1.4195413e-06 
8.0658301e-06 -1.8712826e-05 3.3503802e-06 
1.2531483e-06 -9.6694130e-06 -1.8293458e-06 
-2.7524554e-06 1.0462109e-05 -3.4715681e-06 
-3.0539175e-06 2.6144709e-05 -1.4163697e-05 
5.3382905e-06 2.5869515e-05 -1.6808364e-05 
-6.2542836e-06 6.5519198e-06 -1.3776698e-05 
-1.6240943e-05 -8.6543432e-06 -5.3755161e-06 
-2.1767362e-05 1.8481478e-05 6.5341142e-06 
-1.9246760e-05 7.8813275e-05 2.1578042e-05 
-2.1984220e-05 1.0740013e-04 2.5267571e-05 
-2.1946016e-05 3.6861496e-05 6.3199652e-05 
-3.3357090e-05 -1.7436457e-04 9.5993171e-05 
-6.5892193e-05 -5.2826182e-04 1.6859292e-04 
-8.7313892e-05 -1.0247099e-03 1.4881216e-04 
-1.3187455e-04 -1.7534618e-03 2.9044037e-04 
-1.8079384e-04 -2.8024118e-03 1.4475372e-04 
-2.8128241e-04 -4.0811147e-03 2.2471178e-04 
-2.4008297e-04 -4.9715834e-03 6.0079714e-05 
-3.8566266e-04 -4.7977539e-03 -3.0205902e-05 
-1.1029153e-04 -4.2311703e-03 1.3973101e-05 
-2.9730148e-04 -4.0363730e-03 3.1410975e-05 
-6.6671106e-05 -4.2958264e-03 -3.8336835e-05 
-3.2141697e-04 -4.4341409e-03 -9.2370457e-05 
-2.9284764e-05 -3.5363159e-03 -9.2597154e-05 
-1.1939849e-04 -2.2140595e-03 -2.1137018e-04 
-7.0386479e-05 -1.0570390e-03 -1.0821971e-04 
-3.1451695e-05 -3.0362385e-04 -1.4495020e-04 
-1.7388676e-05 7.0955241e-05 -7.8464909e-05 
-3.5831633e-06 1.9883721e-04 -6.9242997e-05 
-4.2346028e-06 2.0666949e-04 -4.9029994e-05 
1.9351799e-06 1.7063707e-04 -3.2283118e-05 
4.6968389e-06 1.1610464e-04 -2.8466882e-05 
4.0438333e-09 5.7022346e-05 -1.8241804e-05 
4.6383940e-07 1.2787174e-05 -1.7638708e-05 
3.6167075e-06 -5.2510868e-06 -1.3618504e-05 
2.2202476e-06 -6.6545658e-06 -1.3978488e-05 
1.9337172e-06 -8.4314815e-06 -9.4514508e-06 
5.3866443e-06 -1.4356733e-05 -5.7316433e-06 
5.5346331e-06 -1.7434493e-05 -2.0406258e-06 
4.7603339e-06 -1.3014635e-05 2.8453992e-06 
4.9813257e-06 -4.9160585e-06 7.0570936e-06 
2.5306492e-06 -1.3523699e-07 9.6371323e-06 
-5.4040970e-07 -3.1157197e-07 7.3820893e-06 
0.0000000e+00 -6.2552533e-07 0.0000000e+00 
0.0000000e+00 1.2899899e-06 0.0000000e+00 
0.0000000e+00 1.4053381e-06 0.0000000e+00 
0.0000000e+00 -1.0084187e-06 0.0000000e+00 
0.0000000e+00 -3.4855893e-06 0.0000000e+00 
0.0000000e+00 -3.4354548e-06 0.0000000e+00 
0.0000000e+00 -1.1875491e-06 0.0000000e+00 
0.0000000e+00 7.3326754e-07 0.0000000e+00 
0.0000000e+00 8.4574117e-07 0.0000000e+00 
0.0000000e+00 2.1082627e-07 0.0000000e+00 
0.0000000e+00 5.5854707e-07 0.0000000e+00 
0.0000000e+00 1.8205457e-06 0.0000000e+00 
0.0000000e+00 2.2901463e-06 0.0000000e+00 
0.0000000e+00 9.7322743e-07 0.0000000e+00 
0.0000000e+00 -1.0381567e-06 0.0000000e+00 
0.0000000e+00 -1.8475097e-06 0.0000000e+00 
0.0000000e+00 -9.5329437e-07 0.0000000e+00 
0.0000000e+00 3.3822266e-07 0.0000000e+00 
0.0000000e+00 6.0335992e-07 0.0000000e+00 
0.0000000e+00 -1.0848549e-07 0.0000000e+00 
0.0000000e+00 -6.2183665e-07 0.0000000e+00 
0.0000000e+00 -2.5090418e-07 0.0000000e+00 
0.0000000e+00 4.1883033e-07 0.0000000e+00 
0.0000000e+00 4.3942975e-07 0.0000000e+00 
0.0000000e+00 -2.0842434e-07 0.0000000e+00 
0.0000000e+00 -6.1341683e-07 0.0000000e+00 
0.0000000e+00 -1.5140471e-07 0.0000000e+00 
0.0000000e+00 6.8522650e-07 0.0000000e+00 
0.0000000e+00 8.9139098e-07 0.0000000e+00 
0.0000000e+00 1.9018931e-07 0.0000000e+00 
0.0000000e+00 -6.4418714e-07 0.0000000e+00 
0.0000000e+00 -7.3603934e-07 0.0000000e+00 
0.0000000e+00 -1.1767673e-07 0.0000000e+00 
0.0000000e+00 4.0735281e-07 0.0000000e+00 
0.0000000e+00 2.8727911e-07 0.0000000e+00 
0.0000000e+00 -1.7165000e-07 0.0000000e+00 
0.0000000e+00 -3.0379596e-07 0.0000000e+00 
0.0000000e+00 2.7537608e-08 0.0000000e+00 
0.0000000e+00 2.8264725e-07 0.0000000e+00 
0.0000000e+00 1.1513363e-05 0.0000000e+00 
0.0000000e+00 9.9093795e-06 0.0000000e+00 
0.0000000e+00 5.7208927e-06 0.0000000e+00 
0.0000000e+00 3.4239324e-07 0.0000000e+00 
0.0000000e+00 -4.7270014e-06 0.0000000e+00 
0.0000000e+00 -8.4083013e-06 0.0000000e+00 
0.0000000e+00 -1.0192501e-05 0.0000000e+00 
0.0000000e+00 -9.9414874e-06 0.0000000e+00 
0.0000000e+00 -7.6625056e-06 0.0000000e+00 
0.0000000e+00 -3.5597482e-06 0.0000000e+00 
0.0000000e+00 1.6732347e-06 0.0000000e+00 
0.0000000e+00 6.6945076e-06 0.0000000e+00 
0.0000000e+00 9.8479804e-06 0.0000000e+00 
0.0000000e+00 9.9522686e-06 0.0000000e+00 
0.0000000e+00 7.0503306e-06 0.0000000e+00 
0.0000000e+00 2.5244065e-06 0.0000000e+00 
0.0000000e+00 -1.6197286e-06 0.0000000e+00 
0.0000000e+00 -3.8689318e-06 0.0000000e+00 
0.0000000e+00 -3.9569345e-06 0.0000000e+00 
0.0000000e+00 -2.7726210e-06 0.0000000e+00 
0.0000000e+00 -1.5967873e-06 0.0000000e+00 
0.0000000e+00 -1.2927046e-06 0.0000000e+00 
0.0000000e+00 -1.9665549e-06 0.0000000e+00 
0.0000000e+00 -3.1515110e-06 0.0000000e+00 
0.0000000e+00 -4.2114966e-06 0.0000000e+00 
0.0000000e+00 -4.6292857e-06 0.0000000e+00 
0.0000000e+00 -4.0462733e-06 0.0000000e+00 
0.0000000e+00 -2.1766164e-06 0.0000000e+00 
0.0000000e+00 1.1455926e-06 0.0000000e+00 
0.0000000e+00 5.6623317e-06 0.0000000e+00 
0.0000000e+00 1.0359269e-05 0.0000000e+00 
0.0000000e+00 1.3541404e-05 0.0000000e+00 
0.0000000e+00 1.3508978e-05 0.0000000e+00 
0.0000000e+00 9.5150654e-06 0.0000000e+00 
0.0000000e+00 2.3993696e-06 0.0000000e+00 
0.0000000e+00 -5.5562696e-06 0.0000000e+00 
0.0000000e+00 -1.1590907e-05 0.0000000e+00 
0.0000000e+00 -1.3813637e-05 0.0000000e+00 
0.0000000e+00 -1.2154901e-05 0.0000000e+00 
0.0000000e+00 -8.2516481e-06 0.0000000e+00 
0.0000000e+00 -4.3419686e-06 0.0000000e+00 
0.0000000e+00 -2.0312184e-06 0.0000000e+00 
0.0000000e+00 -1.7644940e-06 0.0000000e+00 
0.0000000e+00 -3.0653916e-06 0.0000000e+00 
0.0000000e+00 -5.0509366e-06 0.0000000e+00 
0.0000000e+00 -6.8771224e-06 0.0000000e+00 
0.0000000e+00 -8.0403815e-06 0.0000000e+00 
0.0000000e+00 -8.4376497e-06 0.0000000e+00 
0.0000000e+00 -8.1665667e-06 0.0000000e+00 
0.0000000e+00 -7.3636616e-06 0.0000000e+00 
0.0000000e+00 -6.2554759e-06 0.0000000e+00 
0.0000000e+00 -5.4176658e-06 0.0000000e+00 
0.0000000e+00 -6.2788536e-06 0.0000000e+00 
0.0000000e+00 -8.6385753e-06 0.0000000e+00 
0.0000000e+00 -1.0007260e-05 0.0000000e+00 
0.0000000e+00 -7.9047013e-06 0.0000000e+00 
0.0000000e+00 -1.7747312e-06 0.0000000e+00 
0.0000000e+00 6.2194749e-06 0.0000000e+00 
0.0000000e+00 1.1869636e-05 0.0000000e+00 
0.0000000e+00 1.3020126e-05 0.0000000e+00 
0.0000000e+00 1.2292293e-05 0.0000000e+00 
0.0000000e+00 1.4235405e-05 0.0000000e+00 
0.0000000e+00 2.1273505e-05 0.0000000e+00 
0.0000000e+00 2.9141938e-05 0.0000000e+00 
0.0000000e+00 2.9742831e-05 0.0000000e+00 
0.0000000e+00 2.1729473e-05 0.0000000e+00 
0.0000000e+00 1.3527567e-05 0.0000000e+00 
0.0000000e+00 1.3876314e-05 0.0000000e+00 
0.0000000e+00 2.3551898e-05 0.0000000e+00 
0.0000000e+00 3.0282696e-05 0.0000000e+00 
0.0000000e+00 1.6653594e-05 0.0000000e+00 
0.0000000e+00 -1.2455293e-05 0.0000000e+00 
0.0000000e+00 -2.4847686e-05 0.0000000e+00 
0.0000000e+00 4.3324094e-06 0.0000000e+00 
0.0000000e+00 6.1766856e-05 0.0000000e+00 
0.0000000e+00 9.9535362e-05 0.0000000e+00 
0.0000000e+00 7.7894096e-05 0.0000000e+00 
0.0000000e+00 -7.3963124e-06 0.0000000e+00 
0.0000000e+00 -1.5442401e-04 0.0000000e+00 
0.0000000e+00 -3.9636510e-04 0.0000000e+00 
0.0000000e+00 -8.3006412e-04 0.0000000e+00 
0.0000000e+00 -1.6040289e-03 0.0000000e+00 
0.0000000e+00 -2.8032342e-03 0.0000000e+00 
0.0000000e+00 -4.2410898e-03 0.0000000e+00 
0.0000000e+00 -5.2305339e-03 0.0000000e+00 
0.0000000e+00 -5.0338460e-03 0.0000000e+00 
0.0000000e+00 -4.4053406e-03 0.0000000e+00 
0.0000000e+00 -4.1498910e-03 0.0000000e+00 
0.0000000e+00 -4.3842108e-03 0.0000000e+00 
0.0000000e+00 -4.5332504e-03 0.0000000e+00 
0.0000000e+00 -3.7429044e-03 0.0000000e+00 
0.0000000e+00 -2.4584818e-03 0.0000000e+00 
0.0000000e+00 -1.2567366e-03 0.0000000e+00 
0.0000000e+00 -4.0010861e-04 0.0000000e+00 
0.0000000e+00 7.1283677e-05 0.0000000e+00 
0.0000000e+00 2.3864102e-04 0.0000000e+00 
0.0000000e+00 2.3742866e-04 0.0000000e+00 
0.0000000e+00 1.8617763e-04 0.0000000e+00 
0.0000000e+00 1.3804795e-04 0.0000000e+00 
0.0000000e+00 9.6597621e-05 0.0000000e+00 
0.0000000e+00 5.5127111e-05 0.0000000e+00 
0.0000000e+00 1.9159603e-05 0.0000000e+00 
0.0000000e+00 1.8673288e-06 0.0000000e+00 
0.0000000e+00 3.5599887e-06 0.0000000e+00 
0.0000000e+00 8.4575267e-06 0.0000000e+00 
0.0000000e+00 2.9380603e-06 0.0000000e+00 
0.0000000e+00 -1.0630608e-05 0.0000000e+00 
0.0000000e+00 -1.8254517e-05 0.0000000e+00 
0.0000000e+00 -9.3435101e-06 0.0000000e+00 
0.0000000e+00 1.0569679e-05 0.0000000e+00 
0.0000000e+00 2.6187059e-05 0.0000000e+00 
0.0000000e+00 2.4900846e-05 0.0000000e+00 
0.0000000e+00 5.5185374e-06 0.0000000e+00 
0.0000000e+00 -7.4487680e-06 0.0000000e+00 
0.0000000e+00 2.0498686e-05 0.0000000e+00 
0.0000000e+00 7.9699377e-05 0.0000000e+00 
0.0000000e+00 1.0730579e-04 0.0000000e+00 
0.0000000e+00 3.4990324e-05 0.0000000e+00 
0.0000000e+00 -1.7552340e-04 0.0000000e+00 
0.0000000e+00 -5.2540988e-04 0.0000000e+00 
0.0000000e+00 -1.0242907e-03 0.0000000e+00 
0.0000000e+00 -1.7583423e-03 0.0000000e+00 
0.0000000e+00 -2.8201148e-03 0.0000000e+00 
0.0000000e+00 -4.1036536e-03 0.0000000e+00 
0.0000000e+00 -5.0065252e-03 0.0000000e+00 
0.0000000e+00 -4.8151463e-03 0.0000000e+00 
0.0000000e+00 -4.2552506e-03 0.0000000e+00 
0.0000000e+00 -4.0585203e-03 0.0000000e+00 
0.0000000e+00 -4.3274052e-03 0.0000000e+00 
0.0000000e+00 -4.4586607e-03 0.0000000e+00 
0.0000000e+00 -3.5584315e-03 0.0000000e+00 
0.0000000e+00 -2.2272491e-03 0.0000000e+00 
0.0000000e+00 -1.0661898e-03 0.0000000e+00 
0.0000000e+00 -3.0651427e-04 0.0000000e+00 
0.0000000e+00 7.2112838e-05 0.0000000e+00 
0.0000000e+00 2.0080939e-04 0.0000000e+00 
0.0000000e+00 2.0811801e-04 0.0000000e+00 
0.0000000e+00 1.7085782e-04 0.0000000e+00 
0.0000000e+00 1.1616348e-04 0.0000000e+00 
0.0000000e+00 5.7545476e-05 0.0000000e+00 
0.0000000e+00 1.3430669e-05 0.0000000e+00 
0.0000000e+00 -5.2171349e-06 0.0000000e+00 
0.0000000e+00 -7.1953618e-06 0.0000000e+00 
0.0000000e+00 -8.6805421e-06 0.0000000e+00 
0.0000000e+00 -1.4150866e-05 0.0000000e+00 
0.0000000e+00 -1.7180764e-05 0.0000000e+00 
0.0000000e+00 -1.3015767e-05 0.0000000e+00 
0.0000000e+00 -5.1394422e-06 0.0000000e+00 
0.0000000e+00 -2.6713406e-07 0.0000000e+00 
0.0000000e+00 -2.0638122e-07 0.0000000e+00 
0.0000000e+00 -1.3268915e-06 0.0000000e+00 
0.0000000e+00 -6.0497973e-07 0.0000000e+00 
0.0000000e+00 1.1942331e-06 0.0000000e+00 
0.0000000e+00 1.3253627e-06 0.0000000e+00 
0.0000000e+00 -9.7407144e-07 0.0000000e+00 
0.0000000e+00 -3.3890997e-06 0.0000000e+00 
0.0000000e+00 -3.4006719e-06 0.0000000e+00 
0.0000000e+00 -1.2489968e-06 0.0000000e+00 
0.0000000e+00 6.6441964e-07 0.0000000e+00 
0.0000000e+00 8.5717477e-07 0.0000000e+00 
0.0000000e+00 2.7891144e-07 0.0000000e+00 
0.0000000e+00 5.8989980e-07 0.0000000e+00 
0.0000000e+00 1.7765250e-06 0.0000000e+00 
0.0000000e+00 2.2300610e-06 0.0000000e+00 
0.0000000e+00 9.7227939e-07 0.0000000e+00 
0.0000000e+00 -9.8185171e-07 0.0000000e+00 
0.0000000e+00 -1.8034399e-06 0.0000000e+00 
0.0000000e+00 -9.6964447e-07 0.0000000e+00 
0.0000000e+00 2.8849655e-07 0.0000000e+00 
0.0000000e+00 5.8198157e-07 0.0000000e+00 
0.0000000e+00 -8.1608576e-08 0.0000000e+00 
0.0000000e+00 -5.8688448e-07 0.0000000e+00 
0.0000000e+00 -2.5292036e-07 0.0000000e+00 
0.0000000e+00 3.8521119e-07 0.0000000e+00 
0.0000000e+00 4.1891224e-07 0.0000000e+00 
0.0000000e+00 -1.8991123e-07 0.0000000e+00 
0.0000000e+00 -5.7948370e-07 0.0000000e+00 
0.0000000e+00 -1.4343100e-07 0.0000000e+00 
0.0000000e+00 6.5913650e-07 0.0000000e+00 
0.0000000e+00 8.6379737e-07 0.0000000e+00 
0.0000000e+00 1.9278440e-07 0.0000000e+00 
0.0000000e+00 -6.1757834e-07 0.0000000e+00 
0.0000000e+00 -7.1873757e-07 0.0000000e+00 
0.0000000e+00 -1.2867750e-07 0.0000000e+00 
0.0000000e+00 3.8426151e-07 0.0000000e+00 
0.0000000e+00 2.8124009e-07 0.0000000e+00 
0.0000000e+00 -1.5426194e-07 0.0000000e+00 
0.0000000e+00 -2.8539856e-07 0.0000000e+00 
0.0000000e+00 2.4906441e-08 0.0000000e+00 
0.0000000e+00 2.6602055e-07 0.0000000e+00 
0.0000000e+00 0.0000000e+00 0.0000000e+00 
0.0000000e+00 0.0000000e+00 0.0000000e+00 
0.0000000e+00 0.0000000e+00 0.0000000e+00 
0.0000000e+00 0.0000000e+00 0.0000000e+00 
0.0000000e+00 0.0000000e+00 0.0000000e+00 
0.0000000e+00 0.0000000e+00 0.0000000e+00 
0.0000000e+00 0.0000000e+00 0.0000000e+00 
0.0000000e+00 0.0000000e+00 0.0000000e+00 
0.0000000e+00 0.0000000e+00 0.0000000e+00 
0.0000000e+00 0.0000000e+00 0.0000000e+00 
0.0000000e+00 0.0000000e+00 0.0000000e+00 
0.0000000e+00 0.0000000e+00 0.0000000e+00 
0.0000000e+00 0.0000000e+00 0.0000000e+00 
0.0000000e+00 0.0000000e+00 0.0000000e+00 
0.0000000e+00 0.0000000e+00 0.0000000e+00 
0.0000000e+00 0.0000000e+00 0.0000000e+00 
0.0000000e+00 0.0000000e+00 0.0000000e+00 
0.0000000e+00 0.0000000e+00 0.0000000e+00 
0.0000000e+00 0.0000000e+00 0.0000000e+00 
0.0000000e+00 0.0000000e+00 0.0000000e+00 
0.0000000e+00 0.0000000e+00 0.0000000e+00 
0.0000000e+00 0.0000000e+00 0.0000000e+00 
0.0000000e+00 0.0000000e+00 0.0000000e+00 
0.0000000e+00 0.0000000e+00 0.0000000e+00 
0.0000000e+00 0.0000000e+00 0.0000000e+00 
0.0000000e+00 0.0000000e+00 0.0000000e+00 
0.0000000e+00 0.0000000e+00 0.0000000e+00 
0.0000000e+00 0.0000000e+00 0.0000000e+00 
0.0000000e+00 0.0000000e+00 0.0000000e+00 
0.0000000e+00 0.0000000e+00 0.0000000e+00 
0.0000000e+00 0.0000000e+00 0.0000000e+00 
0.0000000e+00 0.0000000e+00 0.0000000e+00 
0.0000000e+00 0.0000000e+00 0.0000000e+00 
0.0000000e+00 0.0000000e+00 0.0000000e+00 
0.0000000e+00 0.0000000e+00 0.0000000e+00 
0.0000000e+00 0.0000000e+00 0.0000000e+00 
0.0000000e+00 0.0000000e+00 0.0000000e+00 
0.0000000e+00 0.0000000e+00 0.0000000e+00 
0.0000000e+00 0.0000000e+00 0.0000000e+00 
0.0000000e+00 0.0000000e+00 0.0000000e+00 
0.0000000e+00 0.0000000e+00 0.0000000e+00 
0.0000000e+00 0.0000000e+00 0.0000000e+00 
0.0000000e+00 0.0000000e+00 0.0000000e+00 
0.0000000e+00 0.0000000e+00 0.0000000e+00 
0.0000000e+00 0.0000000e+00 0.0000000e+00 
0.0000000e+00 0.0000000e+00 0.0000000e+00 
0.0000000e+00 0.0000000e+00 0.0000000e+00 
0.0000000e+00 0.0000000e+00 0.0000000e+00 
0.0000000e+00 0.0000000e+00 0.0000000e+00 
0.0000000e+00 0.0000000e+00 0.0000000e+00 
0.0000000e+00 0.0000000e+00 0.0000000e+00 
0.0000000e+00 0.0000000e+00 0.0000000e+00 
0.0000000e+00 0.0000000e+00 0.0000000e+00 
0.0000000e+00 0.0000000e+00 0.0000000e+00 
0.0000000e+00 0.0000000e+00 0.0000000e+00 
0.0000000e+00 0.0000000e+00 0.0000000e+00 
0.0000000e+00 0.0000000e+00 0.0000000e+00 