# vtk DataFile Version 4.0
vtk output
ASCII
DATASET UNSTRUCTURED_GRID
POINTS 2186 float
0.0000000e+00 0.0000000e+00 0.0000000e+00 
0.0000000e+00 0.0000000e+00 5.0000000e+01 
5.0000000e+00 0.0000000e+00 0.0000000e+00 
5.0000000e+00 0.0000000e+00 5.0000000e+01 
5.0000000e+00 1.0000000e+00 0.0000000e+00 
5.0000000e+00 1.0000000e+00 5.0000000e+01 
0.0000000e+00 1.0000000e+00 0.0000000e+00 
0.0000000e+00 1.0000000e+00 5.0000000e+01 
5.0000000e+00 2.0000000e+00 0.0000000e+00 
5.0000000e+00 2.0000000e+00 5.0000000e+01 
3.0000000e+00 2.0000000e+00 0.0000000e+00 
3.0000000e+00 2.0000000e+00 5.0000000e+01 
0.0000000e+00 2.0000000e+00 0.0000000e+00 
0.0000000e+00 2.0000000e+00 5.0000000e+01 
1.5000000e+00 3.0000000e+00 0.0000000e+00 
1.5000000e+00 3.0000000e+00 5.0000000e+01 
7.5000000e-01 3.0000000e+00 0.0000000e+00 
7.5000000e-01 3.0000000e+00 5.0000000e+01 
0.0000000e+00 3.0000000e+00 0.0000000e+00 
0.0000000e+00 3.0000000e+00 5.0000000e+01 
7.5000000e-01 3.0000000e+00 -2.5000000e+01 
7.5000000e-01 3.0000000e+00 -2.4500000e+01 
7.5000000e-01 3.0000000e+00 -2.4000000e+01 
7.5000000e-01 3.0000000e+00 -2.3500000e+01 
7.5000000e-01 3.0000000e+00 -2.3000000e+01 
7.5000000e-01 3.0000000e+00 -2.2500000e+01 
7.5000000e-01 3.0000000e+00 -2.2000000e+01 
7.5000000e-01 3.0000000e+00 -2.1500000e+01 
7.5000000e-01 3.0000000e+00 -2.1000000e+01 
7.5000000e-01 3.0000000e+00 -2.0500000e+01 
7.5000000e-01 3.0000000e+00 -2.0000000e+01 
7.5000000e-01 3.0000000e+00 -1.9500000e+01 
7.5000000e-01 3.0000000e+00 -1.9000000e+01 
7.5000000e-01 3.0000000e+00 -1.8500000e+01 
7.5000000e-01 3.0000000e+00 -1.8000000e+01 
7.5000000e-01 3.0000000e+00 -1.7500000e+01 
7.5000000e-01 3.0000000e+00 -1.7000000e+01 
7.5000000e-01 3.0000000e+00 -1.6500000e+01 
7.5000000e-01 3.0000000e+00 -1.6000000e+01 
7.5000000e-01 3.0000000e+00 -1.5500000e+01 
7.5000000e-01 3.0000000e+00 -1.5000000e+01 
7.5000000e-01 3.0000000e+00 -1.4500000e+01 
7.5000000e-01 3.0000000e+00 -1.4000000e+01 
7.5000000e-01 3.0000000e+00 -1.3500000e+01 
7.5000000e-01 3.0000000e+00 -1.3000000e+01 
7.5000000e-01 3.0000000e+00 -1.2500000e+01 
7.5000000e-01 3.0000000e+00 -1.2000000e+01 
7.5000000e-01 3.0000000e+00 -1.1500000e+01 
7.5000000e-01 3.0000000e+00 -1.1000000e+01 
7.5000000e-01 3.0000000e+00 -1.0500000e+01 
7.5000000e-01 3.0000000e+00 -1.0000000e+01 
7.5000000e-01 3.0000000e+00 -9.5000000e+00 
7.5000000e-01 3.0000000e+00 -9.0000000e+00 
7.5000000e-01 3.0000000e+00 -8.5000000e+00 
7.5000000e-01 3.0000000e+00 -8.0000000e+00 
7.5000000e-01 3.0000000e+00 -7.5000000e+00 
7.5000000e-01 3.0000000e+00 -7.0000000e+00 
7.5000000e-01 3.0000000e+00 -6.5000000e+00 
7.5000000e-01 3.0000000e+00 -6.0000000e+00 
7.5000000e-01 3.0000000e+00 -5.5000000e+00 
7.5000000e-01 3.0000000e+00 -5.0000000e+00 
7.5000000e-01 3.0000000e+00 -4.5000000e+00 
7.5000000e-01 3.0000000e+00 -4.0000000e+00 
7.5000000e-01 3.0000000e+00 -3.5000000e+00 
7.5000000e-01 3.0000000e+00 -3.0000000e+00 
7.5000000e-01 3.0000000e+00 -2.5000000e+00 
7.5000000e-01 3.0000000e+00 -2.0000000e+00 
7.5000000e-01 3.0000000e+00 -1.5000000e+00 
7.5000000e-01 3.0000000e+00 -1.0000000e+00 
7.5000000e-01 3.0000000e+00 -5.0000000e-01 
7.5000000e-01 3.0000000e+00 5.0000000e-01 
7.5000000e-01 3.0000000e+00 1.0000000e+00 
7.5000000e-01 3.0000000e+00 1.5000000e+00 
7.5000000e-01 3.0000000e+00 2.0000000e+00 
7.5000000e-01 3.0000000e+00 2.5000000e+00 
7.5000000e-01 3.0000000e+00 3.0000000e+00 
7.5000000e-01 3.0000000e+00 3.5000000e+00 
7.5000000e-01 3.0000000e+00 4.0000000e+00 
7.5000000e-01 3.0000000e+00 4.5000000e+00 
7.5000000e-01 3.0000000e+00 5.0000000e+00 
7.5000000e-01 3.0000000e+00 5.5000000e+00 
7.5000000e-01 3.0000000e+00 6.0000000e+00 
7.5000000e-01 3.0000000e+00 6.5000000e+00 
7.5000000e-01 3.0000000e+00 7.0000000e+00 
7.5000000e-01 3.0000000e+00 7.5000000e+00 
7.5000000e-01 3.0000000e+00 8.0000000e+00 
7.5000000e-01 3.0000000e+00 8.5000000e+00 
7.5000000e-01 3.0000000e+00 9.0000000e+00 
7.5000000e-01 3.0000000e+00 9.5000000e+00 
7.5000000e-01 3.0000000e+00 1.0000000e+01 
7.5000000e-01 3.0000000e+00 1.0500000e+01 
7.5000000e-01 3.0000000e+00 1.1000000e+01 
7.5000000e-01 3.0000000e+00 1.1500000e+01 
7.5000000e-01 3.0000000e+00 1.2000000e+01 
7.5000000e-01 3.0000000e+00 1.2500000e+01 
7.5000000e-01 3.0000000e+00 1.3000000e+01 
7.5000000e-01 3.0000000e+00 1.3500000e+01 
7.5000000e-01 3.0000000e+00 1.4000000e+01 
7.5000000e-01 3.0000000e+00 1.4500000e+01 
7.5000000e-01 3.0000000e+00 1.5000000e+01 
7.5000000e-01 3.0000000e+00 1.5500000e+01 
7.5000000e-01 3.0000000e+00 1.6000000e+01 
7.5000000e-01 3.0000000e+00 1.6500000e+01 
7.5000000e-01 3.0000000e+00 1.7000000e+01 
7.5000000e-01 3.0000000e+00 1.7500000e+01 
7.5000000e-01 3.0000000e+00 1.8000000e+01 
7.5000000e-01 3.0000000e+00 1.8500000e+01 
7.5000000e-01 3.0000000e+00 1.9000000e+01 
7.5000000e-01 3.0000000e+00 1.9500000e+01 
7.5000000e-01 3.0000000e+00 2.0000000e+01 
7.5000000e-01 3.0000000e+00 2.0500000e+01 
7.5000000e-01 3.0000000e+00 2.1000000e+01 
7.5000000e-01 3.0000000e+00 2.1500000e+01 
7.5000000e-01 3.0000000e+00 2.2000000e+01 
7.5000000e-01 3.0000000e+00 2.2500000e+01 
7.5000000e-01 3.0000000e+00 2.3000000e+01 
7.5000000e-01 3.0000000e+00 2.3500000e+01 
7.5000000e-01 3.0000000e+00 2.4000000e+01 
7.5000000e-01 3.0000000e+00 2.4500000e+01 
7.5000000e-01 3.0000000e+00 2.5000000e+01 
7.5000000e-01 3.0000000e+00 2.5500000e+01 
7.5000000e-01 3.0000000e+00 2.6000000e+01 
7.5000000e-01 3.0000000e+00 2.6500000e+01 
7.5000000e-01 3.0000000e+00 2.7000000e+01 
7.5000000e-01 3.0000000e+00 2.7500000e+01 
7.5000000e-01 3.0000000e+00 2.8000000e+01 
7.5000000e-01 3.0000000e+00 2.8500000e+01 
7.5000000e-01 3.0000000e+00 2.9000000e+01 
7.5000000e-01 3.0000000e+00 2.9500000e+01 
7.5000000e-01 3.0000000e+00 3.0000000e+01 
7.5000000e-01 3.0000000e+00 3.0500000e+01 
7.5000000e-01 3.0000000e+00 3.1000000e+01 
7.5000000e-01 3.0000000e+00 3.1500000e+01 
7.5000000e-01 3.0000000e+00 3.2000000e+01 
7.5000000e-01 3.0000000e+00 3.2500000e+01 
7.5000000e-01 3.0000000e+00 3.3000000e+01 
7.5000000e-01 3.0000000e+00 3.3500000e+01 
7.5000000e-01 3.0000000e+00 3.4000000e+01 
7.5000000e-01 3.0000000e+00 3.4500000e+01 
7.5000000e-01 3.0000000e+00 3.5000000e+01 
7.5000000e-01 3.0000000e+00 3.5500000e+01 
7.5000000e-01 3.0000000e+00 3.6000000e+01 
7.5000000e-01 3.0000000e+00 3.6500000e+01 
7.5000000e-01 3.0000000e+00 3.7000000e+01 
7.5000000e-01 3.0000000e+00 3.7500000e+01 
7.5000000e-01 3.0000000e+00 3.8000000e+01 
7.5000000e-01 3.0000000e+00 3.8500000e+01 
7.5000000e-01 3.0000000e+00 3.9000000e+01 
7.5000000e-01 3.0000000e+00 3.9500000e+01 
7.5000000e-01 3.0000000e+00 4.0000000e+01 
7.5000000e-01 3.0000000e+00 4.0500000e+01 
7.5000000e-01 3.0000000e+00 4.1000000e+01 
7.5000000e-01 3.0000000e+00 4.1500000e+01 
7.5000000e-01 3.0000000e+00 4.2000000e+01 
7.5000000e-01 3.0000000e+00 4.2500000e+01 
7.5000000e-01 3.0000000e+00 4.3000000e+01 
7.5000000e-01 3.0000000e+00 4.3500000e+01 
7.5000000e-01 3.0000000e+00 4.4000000e+01 
7.5000000e-01 3.0000000e+00 4.4500000e+01 
7.5000000e-01 3.0000000e+00 4.5000000e+01 
7.5000000e-01 3.0000000e+00 4.5500000e+01 
7.5000000e-01 3.0000000e+00 4.6000000e+01 
7.5000000e-01 3.0000000e+00 4.6500000e+01 
7.5000000e-01 3.0000000e+00 4.7000000e+01 
7.5000000e-01 3.0000000e+00 4.7500000e+01 
7.5000000e-01 3.0000000e+00 4.8000000e+01 
7.5000000e-01 3.0000000e+00 4.8500000e+01 
7.5000000e-01 3.0000000e+00 4.9000000e+01 
7.5000000e-01 3.0000000e+00 4.9500000e+01 
7.5000000e-01 3.0000000e+00 5.0500000e+01 
7.5000000e-01 3.0000000e+00 5.1000000e+01 
7.5000000e-01 3.0000000e+00 5.1500000e+01 
7.5000000e-01 3.0000000e+00 5.2000000e+01 
7.5000000e-01 3.0000000e+00 5.2500000e+01 
7.5000000e-01 3.0000000e+00 5.3000000e+01 
7.5000000e-01 3.0000000e+00 5.3500000e+01 
7.5000000e-01 3.0000000e+00 5.4000000e+01 
7.5000000e-01 3.0000000e+00 5.4500000e+01 
7.5000000e-01 3.0000000e+00 5.5000000e+01 
7.5000000e-01 3.0000000e+00 5.5500000e+01 
7.5000000e-01 3.0000000e+00 5.6000000e+01 
7.5000000e-01 3.0000000e+00 5.6500000e+01 
7.5000000e-01 3.0000000e+00 5.7000000e+01 
7.5000000e-01 3.0000000e+00 5.7500000e+01 
7.5000000e-01 3.0000000e+00 5.8000000e+01 
7.5000000e-01 3.0000000e+00 5.8500000e+01 
7.5000000e-01 3.0000000e+00 5.9000000e+01 
7.5000000e-01 3.0000000e+00 5.9500000e+01 
7.5000000e-01 3.0000000e+00 6.0000000e+01 
7.5000000e-01 3.0000000e+00 6.0500000e+01 
7.5000000e-01 3.0000000e+00 6.1000000e+01 
7.5000000e-01 3.0000000e+00 6.1500000e+01 
7.5000000e-01 3.0000000e+00 6.2000000e+01 
7.5000000e-01 3.0000000e+00 6.2500000e+01 
7.5000000e-01 3.0000000e+00 6.3000000e+01 
7.5000000e-01 3.0000000e+00 6.3500000e+01 
7.5000000e-01 3.0000000e+00 6.4000000e+01 
7.5000000e-01 3.0000000e+00 6.4500000e+01 
7.5000000e-01 3.0000000e+00 6.5000000e+01 
7.5000000e-01 3.0000000e+00 6.5500000e+01 
7.5000000e-01 3.0000000e+00 6.6000000e+01 
7.5000000e-01 3.0000000e+00 6.6500000e+01 
7.5000000e-01 3.0000000e+00 6.7000000e+01 
7.5000000e-01 3.0000000e+00 6.7500000e+01 
7.5000000e-01 3.0000000e+00 6.8000000e+01 
7.5000000e-01 3.0000000e+00 6.8500000e+01 
7.5000000e-01 3.0000000e+00 6.9000000e+01 
7.5000000e-01 3.0000000e+00 6.9500000e+01 
7.5000000e-01 3.0250001e+00 -2.5000000e+01 
7.5000000e-01 3.0250001e+00 -2.4500000e+01 
7.5000000e-01 3.0250001e+00 -2.4000000e+01 
7.5000000e-01 3.0250001e+00 -2.3500000e+01 
7.5000000e-01 3.0250001e+00 -2.3000000e+01 
7.5000000e-01 3.0250001e+00 -2.2500000e+01 
7.5000000e-01 3.0250001e+00 -2.2000000e+01 
7.5000000e-01 3.0250001e+00 -2.1500000e+01 
7.5000000e-01 3.0250001e+00 -2.1000000e+01 
7.5000000e-01 3.0250001e+00 -2.0500000e+01 
7.5000000e-01 3.0250001e+00 -2.0000000e+01 
7.5000000e-01 3.0250001e+00 -1.9500000e+01 
7.5000000e-01 3.0250001e+00 -1.9000000e+01 
7.5000000e-01 3.0250001e+00 -1.8500000e+01 
7.5000000e-01 3.0250001e+00 -1.8000000e+01 
7.5000000e-01 3.0250001e+00 -1.7500000e+01 
7.5000000e-01 3.0250001e+00 -1.7000000e+01 
7.5000000e-01 3.0250001e+00 -1.6500000e+01 
7.5000000e-01 3.0250001e+00 -1.6000000e+01 
7.5000000e-01 3.0250001e+00 -1.5500000e+01 
[...]
POINT_DATA 2186
FIELD FieldData 3
DISPLACEMENT 3 2186  float
0.0000000e+00 0.0000000e+00 0.0000000e+00 
0.0000000e+00 0.0000000e+00 0.0000000e+00 
0.0000000e+00 0.0000000e+00 0.0000000e+00 
0.0000000e+00 0.0000000e+00 0.0000000e+00 
-3.2776534e-06 -1.3075521e-06 1.6669136e-06 
2.3874759e-07 -1.2876624e-06 3.9361990e-07 
0.0000000e+00 3.4428517e-06 0.0000000e+00 
0.0000000e+00 8.6965724e-07 0.0000000e+00 
-1.1827257e-06 -4.7299559e-06 -8.0061873e-06 
7.8382340e-07 -1.7206692e-06 8.3413664e-07 
1.9319914e-06 8.9879322e-06 1.1248130e-05 
-3.9444768e-07 -1.7336639e-06 1.9276833e-06 
0.0000000e+00 5.7728944e-06 0.0000000e+00 
0.0000000e+00 2.0638010e-06 0.0000000e+00 
-2.4872157e-05 3.0563822e-06 5.0119088e-05 
-2.6671125e-07 -2.2439863e-06 5.8075120e-06 
-2.3650104e-05 -3.7248788e-05 4.0955965e-05 
-2.5375873e-06 1.5279321e-06 -2.8702377e-07 
0.0000000e+00 -7.6091142e-06 0.0000000e+00 
0.0000000e+00 -7.5934361e-07 0.0000000e+00 
0.0000000e+00 -3.6398142e-06 0.0000000e+00 
0.0000000e+00 -4.5124079e-06 0.0000000e+00 
0.0000000e+00 -5.1898160e-06 0.0000000e+00 
0.0000000e+00 -2.6701243e-06 0.0000000e+00 
0.0000000e+00 3.7250634e-06 0.0000000e+00 
0.0000000e+00 1.0967720e-05 0.0000000e+00 
0.0000000e+00 1.4088644e-05 0.0000000e+00 
0.0000000e+00 9.8993614e-06 0.0000000e+00 
0.0000000e+00 -2.8971320e-07 0.0000000e+00 
0.0000000e+00 -1.1195526e-05 0.0000000e+00 
0.0000000e+00 -1.6991578e-05 0.0000000e+00 
0.0000000e+00 -1.5035876e-05 0.0000000e+00 
0.0000000e+00 -7.1790914e-06 0.0000000e+00 
0.0000000e+00 2.0647474e-06 0.0000000e+00 
0.0000000e+00 8.8007328e-06 0.0000000e+00 
0.0000000e+00 1.1881490e-05 0.0000000e+00 
0.0000000e+00 1.2441389e-05 0.0000000e+00 
0.0000000e+00 1.1651360e-05 0.0000000e+00 
0.0000000e+00 9.0129370e-06 0.0000000e+00 
0.0000000e+00 2.9576470e-06 0.0000000e+00 
0.0000000e+00 -6.7148794e-06 0.0000000e+00 
0.0000000e+00 -1.6976261e-05 0.0000000e+00 
0.0000000e+00 -2.2474129e-05 0.0000000e+00 
0.0000000e+00 -1.9028235e-05 0.0000000e+00 
0.0000000e+00 -7.1141576e-06 0.0000000e+00 
0.0000000e+00 7.6018573e-06 0.0000000e+00 
0.0000000e+00 1.7509132e-05 0.0000000e+00 
0.0000000e+00 1.7995277e-05 0.0000000e+00 
0.0000000e+00 1.0502830e-05 0.0000000e+00 
0.0000000e+00 1.3107035e-06 0.0000000e+00 
0.0000000e+00 -3.1461300e-06 0.0000000e+00 
0.0000000e+00 -8.5839673e-07 0.0000000e+00 
0.0000000e+00 4.7281774e-06 0.0000000e+00 
0.0000000e+00 7.7599398e-06 0.0000000e+00 
0.0000000e+00 4.4964399e-06 0.0000000e+00 
0.0000000e+00 -4.0544219e-06 0.0000000e+00 
0.0000000e+00 -1.3016620e-05 0.0000000e+00 
0.0000000e+00 -1.7175013e-05 0.0000000e+00 
0.0000000e+00 -1.4592007e-05 0.0000000e+00 
0.0000000e+00 -7.6804336e-06 0.0000000e+00 
0.0000000e+00 -9.4774646e-07 0.0000000e+00 
0.0000000e+00 2.6171585e-06 0.0000000e+00 
0.0000000e+00 3.3571021e-06 0.0000000e+00 
0.0000000e+00 3.6332151e-06 0.0000000e+00 
0.0000000e+00 5.0240769e-06 0.0000000e+00 
0.0000000e+00 6.6370221e-06 0.0000000e+00 
0.0000000e+00 5.6536819e-06 0.0000000e+00 
0.0000000e+00 -5.4186154e-07 0.0000000e+00 
0.0000000e+00 -1.2112068e-05 0.0000000e+00 
0.0000000e+00 -2.5964100e-05 0.0000000e+00 
-2.5947213e-05 -4.1311236e-05 1.6020858e-05 
-3.4790140e-05 -3.9059381e-05 1.9579813e-05 
-4.4175838e-05 -3.4573215e-05 1.8622617e-05 
-5.3210642e-05 -2.9684188e-05 1.4260252e-05 
-3.1355085e-05 -2.2918377e-05 1.0881971e-05 
-2.3938472e-05 -1.3651495e-05 9.5737350e-06 
-1.6538070e-05 -1.0544843e-06 1.0533138e-05 
-5.7717943e-06 1.3973183e-05 4.9429841e-06 
2.1208377e-06 2.5050462e-05 1.4978124e-06 
5.5356641e-06 2.4669502e-05 8.1087137e-06 
9.7454231e-06 1.6827089e-05 1.0187503e-05 
5.3973904e-06 1.7434922e-05 1.0194345e-05 
5.1453694e-06 3.4785287e-05 5.4439779e-06 
1.8798690e-06 6.4406464e-05 -8.5416769e-07 
4.5373777e-06 8.7214474e-05 3.1033853e-06 
1.3185814e-06 8.0711870e-05 7.1780719e-06 
-8.0132677e-06 5.0786781e-05 1.4564213e-05 
-1.7823082e-05 3.2721480e-05 3.7905647e-05 
-4.3118831e-05 5.1291994e-05 5.3661868e-05 
-4.8187780e-05 8.4979161e-05 4.8158028e-05 
-7.0367336e-05 4.4738517e-05 7.3083633e-05 
-7.9859383e-05 -1.8556729e-04 8.2877210e-05 
-1.1171769e-04 -6.5481063e-04 1.2859813e-04 
-1.4830146e-04 -1.3412365e-03 9.6704040e-05 
-2.3933113e-04 -2.2518744e-03 1.8633115e-04 
-5.0564471e-04 -3.3834374e-03 3.0216292e-04 
-2.8165549e-04 -4.5530149e-03 1.1591934e-04 
-2.4793655e-04 -5.2493284e-03 1.7739349e-05 
-2.2592224e-04 -4.9677473e-03 -7.4431635e-05 
-2.1199246e-04 -4.4557964e-03 -8.2957413e-05 
-1.6630198e-04 -4.3556178e-03 -3.8297840e-05 
-1.8604439e-04 -4.6053454e-03 -1.4198355e-04 
-2.1830149e-04 -4.5856135e-03 -1.5641504e-04 
-3.4527259e-04 -3.5383047e-03 -3.0539202e-04 
-8.7725166e-05 -2.0919850e-03 -1.4399401e-04 
-2.5094070e-05 -9.3031389e-04 -2.9902225e-05 
-1.8717536e-05 -2.3302865e-04 -5.1903800e-05 
-2.4896630e-05 8.9341949e-05 8.9382274e-06 
-3.4843171e-05 1.9330299e-04 1.7410232e-05 
-4.2966018e-05 1.8483031e-04 2.9525696e-05 
-5.3218471e-05 1.2518505e-04 2.3083123e-05 
-5.0562729e-05 5.8418227e-05 1.2072584e-05 
-5.2630523e-05 2.0095667e-05 -2.8975503e-06 
-3.9382998e-05 1.4596857e-05 -1.7891580e-05 
-2.9821476e-05 2.1694617e-05 -2.8282539e-05 
-1.8508317e-05 2.2175140e-05 -3.3545824e-05 
-1.2335095e-06 1.5150083e-05 -3.2432406e-05 
6.1233950e-06 1.7907305e-05 -1.4201995e-05 
5.9534905e-06 3.6433274e-05 9.2313330e-06 
1.2783185e-05 5.4297594e-05 1.8605502e-05 
1.0136134e-05 5.0187842e-05 7.0749443e-06 
2.0515515e-06 2.7909857e-05 -4.1078906e-06 
1.0142533e-06 1.0019236e-05 -7.6571769e-06 
1.2643255e-07 1.8761706e-05 -4.4358467e-06 
-6.5297894e-07 4.8761518e-05 1.0159379e-05 
-1.5336072e-05 7.3670264e-05 1.2242654e-05 
-2.5832283e-05 7.2940973e-05 1.1623940e-05 
-3.5899433e-05 4.4209693e-05 1.6687227e-05 
-5.7883932e-05 1.0331541e-05 1.6411019e-05 
-5.5555578e-05 -3.8685275e-06 2.1230642e-05 
-7.3333576e-05 -3.8256043e-05 7.5434531e-05 
-8.8057350e-05 -2.1499976e-04 8.4966101e-05 
-1.2543233e-04 -6.6896784e-04 1.6579122e-04 
-1.4411708e-04 -1.4649340e-03 1.3472069e-04 
-2.2068614e-04 -2.5624365e-03 2.2170863e-04 
-2.9153065e-04 -3.7734350e-03 4.3387103e-05 
-3.4967958e-04 -4.8173503e-03 1.2953172e-04 
-3.5625650e-04 -5.1665390e-03 -4.8570035e-07 
-3.0864903e-04 -4.7988733e-03 -1.1595897e-04 
-2.4272628e-04 -4.4165729e-03 -5.7731417e-05 
-1.9266919e-04 -4.4538942e-03 -1.6838392e-05 
-2.3708749e-04 -4.6032467e-03 -1.1171099e-04 
-2.2881788e-04 -4.2083799e-03 -1.5813822e-04 
-9.8742130e-05 -2.9746548e-03 -5.8689755e-05 
-1.1174992e-04 -1.6816885e-03 -1.9861829e-04 
-1.7722063e-05 -7.1687909e-04 -6.0159553e-05 
-7.1194336e-06 -1.4390804e-04 -6.5506756e-05 
-1.6394581e-05 1.3213181e-04 -2.3580526e-05 
-5.9001009e-06 2.1573030e-04 -1.3291568e-05 
-2.0940986e-05 1.8699332e-04 -5.2497007e-06 
-1.3352758e-05 1.1852243e-04 -3.9227002e-06 
-2.0246376e-05 6.1486258e-05 -1.0731394e-05 
-1.8051203e-05 3.4387922e-05 -2.0652578e-05 
-7.6908382e-06 2.3360739e-05 -3.3812365e-05 
-3.1531274e-06 1.1641797e-05 -4.8086767e-05 
1.0199890e-06 -1.8739503e-07 -4.3950364e-05 
1.2562777e-05 -3.9203942e-06 -2.7505183e-05 
9.5775222e-06 1.2024845e-08 -9.7210905e-06 
2.1601040e-06 2.3329846e-06 5.3815970e-06 
1.9523927e-06 -1.4136050e-06 6.7785436e-06 
9.8845902e-08 -7.7489112e-06 -9.2376814e-07 
8.6314179e-07 -1.0587109e-05 -7.4973268e-06 
6.8702216e-06 -8.1126736e-06 -4.5440743e-06 
6.5927916e-06 -4.1489234e-06 5.5832823e-09 
2.5392524e-06 -2.3190230e-06 5.9667791e-06 
1.1670309e-06 -1.6849026e-06 9.1889133e-06 
-1.6692950e-07 -6.5419190e-09 6.2586751e-06 
-2.6522018e-06 2.3717682e-06 5.6032550e-06 
-8.3476164e-07 3.2088187e-06 2.6396558e-06 
0.0000000e+00 -1.0380079e-06 0.0000000e+00 
0.0000000e+00 -2.3825712e-06 0.0000000e+00 
0.0000000e+00 -1.9967231e-06 0.0000000e+00 
0.0000000e+00 -1.0582742e-06 0.0000000e+00 
0.0000000e+00 -7.2838537e-07 0.0000000e+00 
0.0000000e+00 -9.1832578e-07 0.0000000e+00 
0.0000000e+00 -8.1044033e-07 0.0000000e+00 
0.0000000e+00 -1.4232965e-07 0.0000000e+00 
0.0000000e+00 4.6118947e-07 0.0000000e+00 
0.0000000e+00 3.7897553e-07 0.0000000e+00 
0.0000000e+00 -1.7811585e-07 0.0000000e+00 
0.0000000e+00 -4.5785848e-07 0.0000000e+00 
0.0000000e+00 -1.2024026e-07 0.0000000e+00 
0.0000000e+00 3.9578072e-07 0.0000000e+00 
0.0000000e+00 5.0223491e-07 0.0000000e+00 
0.0000000e+00 2.1259818e-07 0.0000000e+00 
0.0000000e+00 5.1460717e-08 0.0000000e+00 
0.0000000e+00 2.9742063e-07 0.0000000e+00 
0.0000000e+00 5.7313298e-07 0.0000000e+00 
0.0000000e+00 3.0634556e-07 0.0000000e+00 
0.0000000e+00 -5.2713403e-07 0.0000000e+00 
0.0000000e+00 -1.2850426e-06 0.0000000e+00 
0.0000000e+00 -1.2838814e-06 0.0000000e+00 
0.0000000e+00 -4.4517091e-07 0.0000000e+00 
0.0000000e+00 6.8369263e-07 0.0000000e+00 
0.0000000e+00 1.4289866e-06 0.0000000e+00 
0.0000000e+00 1.4402208e-06 0.0000000e+00 
0.0000000e+00 7.6648337e-07 0.0000000e+00 
0.0000000e+00 -2.8683004e-07 0.0000000e+00 
0.0000000e+00 -1.2721439e-06 0.0000000e+00 
0.0000000e+00 -1.6956224e-06 0.0000000e+00 
0.0000000e+00 -1.2371428e-06 0.0000000e+00 
0.0000000e+00 -2.9287905e-08 0.0000000e+00 
0.0000000e+00 1.2942229e-06 0.0000000e+00 
0.0000000e+00 1.9443160e-06 0.0000000e+00 
0.0000000e+00 1.5028337e-06 0.0000000e+00 
0.0000000e+00 2.1886486e-07 0.0000000e+00 
0.0000000e+00 -1.1384178e-06 0.0000000e+00 
0.0000000e+00 -1.7274807e-06 0.0000000e+00 
0.0000000e+00 -3.6768449e-06 0.0000000e+00 
0.0000000e+00 -4.5198108e-06 0.0000000e+00 
0.0000000e+00 -5.1427182e-06 0.0000000e+00 
0.0000000e+00 -2.6014175e-06 0.0000000e+00 
0.0000000e+00 3.7553143e-06 0.0000000e+00 
0.0000000e+00 1.0925948e-05 0.0000000e+00 
0.0000000e+00 1.3998695e-05 0.0000000e+00 
0.0000000e+00 9.8246464e-06 0.0000000e+00 
0.0000000e+00 -2.9678353e-07 0.0000000e+00 
0.0000000e+00 -1.1133762e-05 0.0000000e+00 
0.0000000e+00 -1.6908616e-05 0.0000000e+00 
0.0000000e+00 -1.4988349e-05 0.0000000e+00 
0.0000000e+00 -7.1902195e-06 0.0000000e+00 
0.0000000e+00 2.0175739e-06 0.0000000e+00 
0.0000000e+00 8.7627350e-06 0.0000000e+00 
0.0000000e+00 1.1882134e-05 0.0000000e+00 
0.0000000e+00 1.2470339e-05 0.0000000e+00 
0.0000000e+00 1.1668395e-05 0.0000000e+00 
0.0000000e+00 8.9866799e-06 0.0000000e+00 
0.0000000e+00 2.9007258e-06 0.0000000e+00 
0.0000000e+00 -6.7503047e-06 0.0000000e+00 
0.0000000e+00 -1.6944712e-05 0.0000000e+00 
0.0000000e+00 -2.2383632e-05 0.0000000e+00 
0.0000000e+00 -1.8942068e-05 0.0000000e+00 
0.0000000e+00 -7.1033141e-06 0.0000000e+00 
0.0000000e+00 7.5162811e-06 0.0000000e+00 
0.0000000e+00 1.7378326e-05 0.0000000e+00 
0.0000000e+00 1.7911269e-05 0.0000000e+00 
0.0000000e+00 1.0531378e-05 0.0000000e+00 
0.0000000e+00 1.4368322e-06 0.0000000e+00 
0.0000000e+00 -3.0111401e-06 0.0000000e+00 
0.0000000e+00 -8.0735748e-07 0.0000000e+00 
0.0000000e+00 4.6702635e-06 0.0000000e+00 
0.0000000e+00 7.6461520e-06 0.0000000e+00 
0.0000000e+00 4.4078065e-06 0.0000000e+00 
0.0000000e+00 -4.0654836e-06 0.0000000e+00 
0.0000000e+00 -1.2951781e-05 0.0000000e+00 
0.0000000e+00 -1.7085336e-05 0.0000000e+00 
0.0000000e+00 -1.4547403e-05 0.0000000e+00 
0.0000000e+00 -7.7176683e-06 0.0000000e+00 
0.0000000e+00 -1.0349677e-06 0.0000000e+00 
0.0000000e+00 2.5528739e-06 0.0000000e+00 
0.0000000e+00 3.3599295e-06 0.0000000e+00 
0.0000000e+00 3.6853260e-06 0.0000000e+00 
0.0000000e+00 5.0778917e-06 0.0000000e+00 
0.0000000e+00 6.6570897e-06 0.0000000e+00 
0.0000000e+00 5.6250583e-06 0.0000000e+00 
0.0000000e+00 -6.1496627e-07 0.0000000e+00 
0.0000000e+00 -1.2205076e-05 0.0000000e+00 
0.0000000e+00 -2.6062600e-05 0.0000000e+00 
0.0000000e+00 -3.7142392e-05 0.0000000e+00 
0.0000000e+00 -4.1204425e-05 0.0000000e+00 
0.0000000e+00 -3.9092996e-05 0.0000000e+00 
0.0000000e+00 -3.4670225e-05 0.0000000e+00 
0.0000000e+00 -2.9670469e-05 0.0000000e+00 
0.0000000e+00 -2.3011473e-05 0.0000000e+00 
0.0000000e+00 -1.3698653e-05 0.0000000e+00 
0.0000000e+00 -8.5027716e-07 0.0000000e+00 
0.0000000e+00 1.4161920e-05 0.0000000e+00 
0.0000000e+00 2.4807561e-05 0.0000000e+00 
0.0000000e+00 2.4250998e-05 0.0000000e+00 
0.0000000e+00 1.6870359e-05 0.0000000e+00 
0.0000000e+00 1.7681392e-05 0.0000000e+00 
0.0000000e+00 3.5455450e-05 0.0000000e+00 
0.0000000e+00 6.4907508e-05 0.0000000e+00 
0.0000000e+00 8.6491040e-05 0.0000000e+00 
0.0000000e+00 7.9655794e-05 0.0000000e+00 
0.0000000e+00 5.0645209e-05 0.0000000e+00 
0.0000000e+00 3.3684442e-05 0.0000000e+00 
0.0000000e+00 5.4050259e-05 0.0000000e+00 
0.0000000e+00 8.7225802e-05 0.0000000e+00 
0.0000000e+00 4.2969725e-05 0.0000000e+00 
0.0000000e+00 -1.8867446e-04 0.0000000e+00 
0.0000000e+00 -6.5498648e-04 0.0000000e+00 
0.0000000e+00 -1.3424562e-03 0.0000000e+00 
0.0000000e+00 -2.2577182e-03 0.0000000e+00 
0.0000000e+00 -3.3956198e-03 0.0000000e+00 
0.0000000e+00 -4.5793834e-03 0.0000000e+00 
0.0000000e+00 -5.2845650e-03 0.0000000e+00 
0.0000000e+00 -4.9914634e-03 0.0000000e+00 
0.0000000e+00 -4.4810278e-03 0.0000000e+00 
0.0000000e+00 -4.3758228e-03 0.0000000e+00 
0.0000000e+00 -4.6361387e-03 0.0000000e+00 
0.0000000e+00 -4.6140025e-03 0.0000000e+00 
0.0000000e+00 -3.5550995e-03 0.0000000e+00 
0.0000000e+00 -2.1101143e-03 0.0000000e+00 
0.0000000e+00 -9.3888480e-04 0.0000000e+00 
0.0000000e+00 -2.3415622e-04 0.0000000e+00 
0.0000000e+00 9.1504960e-05 0.0000000e+00 
0.0000000e+00 1.9461730e-04 0.0000000e+00 
0.0000000e+00 1.8534872e-04 0.0000000e+00 
0.0000000e+00 1.2566832e-04 0.0000000e+00 
0.0000000e+00 5.9690636e-05 0.0000000e+00 
0.0000000e+00 2.0866117e-05 0.0000000e+00 
0.0000000e+00 1.4358578e-05 0.0000000e+00 
0.0000000e+00 2.1059588e-05 0.0000000e+00 
0.0000000e+00 2.1680884e-05 0.0000000e+00 
0.0000000e+00 1.5546027e-05 0.0000000e+00 
0.0000000e+00 1.8529356e-05 0.0000000e+00 
0.0000000e+00 3.6693040e-05 0.0000000e+00 
0.0000000e+00 5.3714066e-05 0.0000000e+00 
0.0000000e+00 4.9585407e-05 0.0000000e+00 
0.0000000e+00 2.7630411e-05 0.0000000e+00 
0.0000000e+00 1.0767733e-05 0.0000000e+00 
0.0000000e+00 1.9584573e-05 0.0000000e+00 
0.0000000e+00 4.8993534e-05 0.0000000e+00 
0.0000000e+00 7.3408766e-05 0.0000000e+00 
0.0000000e+00 7.1850816e-05 0.0000000e+00 
0.0000000e+00 4.3538770e-05 0.0000000e+00 
0.0000000e+00 1.2154192e-05 0.0000000e+00 
0.0000000e+00 -7.8080910e-07 0.0000000e+00 
0.0000000e+00 -3.6603538e-05 0.0000000e+00 
0.0000000e+00 -2.1636720e-04 0.0000000e+00 
0.0000000e+00 -6.7342498e-04 0.0000000e+00 
0.0000000e+00 -1.4719730e-03 0.0000000e+00 
0.0000000e+00 -2.5662940e-03 0.0000000e+00 
0.0000000e+00 -3.7891318e-03 0.0000000e+00 
0.0000000e+00 -4.8394431e-03 0.0000000e+00 
0.0000000e+00 -5.2050175e-03 0.0000000e+00 
0.0000000e+00 -4.8226756e-03 0.0000000e+00 
0.0000000e+00 -4.4431696e-03 0.0000000e+00 
0.0000000e+00 -4.4724536e-03 0.0000000e+00 
0.0000000e+00 -4.6316143e-03 0.0000000e+00 
0.0000000e+00 -4.2333673e-03 0.0000000e+00 
0.0000000e+00 -3.0030620e-03 0.0000000e+00 
0.0000000e+00 -1.6915532e-03 0.0000000e+00 
0.0000000e+00 -7.2112412e-04 0.0000000e+00 
0.0000000e+00 -1.4397898e-04 0.0000000e+00 
0.0000000e+00 1.3283822e-04 0.0000000e+00 
0.0000000e+00 2.1610523e-04 0.0000000e+00 
0.0000000e+00 1.8822109e-04 0.0000000e+00 
0.0000000e+00 1.1982854e-04 0.0000000e+00 
0.0000000e+00 6.2359810e-05 0.0000000e+00 
0.0000000e+00 3.4230205e-05 0.0000000e+00 
0.0000000e+00 2.2781491e-05 0.0000000e+00 
0.0000000e+00 1.1569760e-05 0.0000000e+00 
0.0000000e+00 1.9391727e-07 0.0000000e+00 
0.0000000e+00 -3.7156533e-06 0.0000000e+00 
0.0000000e+00 -2.9243040e-07 0.0000000e+00 
0.0000000e+00 2.0831192e-06 0.0000000e+00 
0.0000000e+00 -1.3792754e-06 0.0000000e+00 
0.0000000e+00 -7.5633102e-06 0.0000000e+00 
0.0000000e+00 -1.0460741e-05 0.0000000e+00 
0.0000000e+00 -8.1844073e-06 0.0000000e+00 
0.0000000e+00 -4.2984093e-06 0.0000000e+00 
0.0000000e+00 -2.3129121e-06 0.0000000e+00 
0.0000000e+00 -1.5792855e-06 0.0000000e+00 
0.0000000e+00 2.1025690e-08 0.0000000e+00 
0.0000000e+00 2.2943398e-06 0.0000000e+00 
0.0000000e+00 3.1340571e-06 0.0000000e+00 
0.0000000e+00 1.5455440e-06 0.0000000e+00 
0.0000000e+00 -9.7688621e-07 0.0000000e+00 
0.0000000e+00 -2.3462831e-06 0.0000000e+00 
0.0000000e+00 -2.0182631e-06 0.0000000e+00 
0.0000000e+00 -1.1002415e-06 0.0000000e+00 
0.0000000e+00 -7.3878243e-07 0.0000000e+00 
0.0000000e+00 -8.9417523e-07 0.0000000e+00 
0.0000000e+00 -7.9211509e-07 0.0000000e+00 
0.0000000e+00 -1.5618426e-07 0.0000000e+00 
0.0000000e+00 4.3473361e-07 0.0000000e+00 
0.0000000e+00 3.7580978e-07 0.0000000e+00 
0.0000000e+00 -1.5356333e-07 0.0000000e+00 
0.0000000e+00 -4.3703716e-07 0.0000000e+00 
0.0000000e+00 -1.2898953e-07 0.0000000e+00 
0.0000000e+00 3.6961416e-07 0.0000000e+00 
0.0000000e+00 4.9189828e-07 0.0000000e+00 
0.0000000e+00 2.3022130e-07 0.0000000e+00 
0.0000000e+00 7.4546335e-08 0.0000000e+00 
0.0000000e+00 2.9848525e-07 0.0000000e+00 
0.0000000e+00 5.5259670e-07 0.0000000e+00 
0.0000000e+00 2.8884438e-07 0.0000000e+00 
0.0000000e+00 -5.2395859e-07 0.0000000e+00 
0.0000000e+00 -1.2685867e-06 0.0000000e+00 
0.0000000e+00 -1.2728790e-06 0.0000000e+00 
0.0000000e+00 -4.4660672e-07 0.0000000e+00 
0.0000000e+00 6.7791007e-07 0.0000000e+00 
0.0000000e+00 1.4264582e-06 0.0000000e+00 
0.0000000e+00 1.4379435e-06 0.0000000e+00 
0.0000000e+00 7.5895298e-07 0.0000000e+00 
0.0000000e+00 -2.9532200e-07 0.0000000e+00 
0.0000000e+00 -1.2701486e-06 0.0000000e+00 
0.0000000e+00 -1.6796960e-06 0.0000000e+00 
0.0000000e+00 -1.2192251e-06 0.0000000e+00 
0.0000000e+00 -2.5494925e-08 0.0000000e+00 
0.0000000e+00 1.2804625e-06 0.0000000e+00 
0.0000000e+00 1.9249906e-06 0.0000000e+00 
0.0000000e+00 1.4921250e-06 0.0000000e+00 
0.0000000e+00 2.2071207e-07 0.0000000e+00 
0.0000000e+00 -1.1292340e-06 0.0000000e+00 
0.0000000e+00 -1.7166282e-06 0.0000000e+00 
0.0000000e+00 0.0000000e+00 0.0000000e+00 
0.0000000e+00 0.0000000e+00 0.0000000e+00 
0.0000000e+00 0.0000000e+00 0.0000000e+00 
0.0000000e+00 0.0000000e+00 0.0000000e+00 
0.0000000e+00 0.0000000e+00 0.0000000e+00 
0.0000000e+00 0.0000000e+00 0.0000000e+00 
0.0000000e+00 0.0000000e+00 0.0000000e+00 
0.0000000e+00 0.0000000e+00 0.0000000e+00 
0.0000000e+00 0.0000000e+00 0.0000000e+00 
0.0000000e+00 0.0000000e+00 0.0000000e+00 
0.0000000e+00 0.0000000e+00 0.0000000e+00 
0.0000000e+00 0.0000000e+00 0.0000000e+00 
0.0000000e+00 0.0000000e+00 0.0000000e+00 
0.0000000e+00 0.0000000e+00 0.0000000e+00 
0.0000000e+00 0.0000000e+00 0.0000000e+00 
0.0000000e+00 0.0000000e+00 0.0000000e+00 
0.0000000e+00 0.0000000e+00 0.0000000e+00 
0.0000000e+00 0.0000000e+00 0.0000000e+00 
0.0000000e+00 0.0000000e+00 0.0000000e+00 
0.0000000e+00 0.0000000e+00 0.0000000e+00 
0.0000000e+00 0.0000000e+00 0.0000000e+00 
0.0000000e+00 0.0000000e+00 0.0000000e+00 
0.0000000e+00 0.0000000e+00 0.0000000e+00 
0.0000000e+00 0.0000000e+00 0.0000000e+00 
0.0000000e+00 0.0000000e+00 0.0000000e+00 
0.0000000e+00 0.0000000e+00 0.0000000e+00 
0.0000000e+00 0.0000000e+00 0.0000000e+00 
0.0000000e+00 0.0000000e+00 0.0000000e+00 
0.0000000e+00 0.0000000e+00 0.0000000e+00 
0.0000000e+00 0.0000000e+00 0.0000000e+00 
0.0000000e+00 0.0000000e+00 0.0000000e+00 
0.0000000e+00 0.0000000e+00 0.0000000e+00 
0.0000000e+00 0.0000000e+00 0.0000000e+00 
0.0000000e+00 0.0000000e+00 0.0000000e+00 
0.0000000e+00 0.0000000e+00 0.0000000e+00 
0.0000000e+00 0.0000000e+00 0.0000000e+00 
0.0000000e+00 0.0000000e+00 0.0000000e+00 
0.0000000e+00 0.0000000e+00 0.0000000e+00 
0.0000000e+00 0.0000000e+00 0.0000000e+00 
0.0000000e+00 0.0000000e+00 0.0000000e+00 
0.0000000e+00 0.0000000e+00 0.0000000e+00 
0.0000000e+00 0.0000000e+00 0.0000000e+00 
0.0000000e+00 0.0000000e+00 0.0000000e+00 
0.0000000e+00 0.0000000e+00 0.0000000e+00 
0.0000000e+00 0.0000000e+00 0.0000000e+00 
0.0000000e+00 0.0000000e+00 0.0000000e+00 
0.0000000e+00 0.0000000e+00 0.0000000e+00 
0.0000000e+00 0.0000000e+00 0.0000000e+00 
0.0000000e+00 0.0000000e+00 0.0000000e+00 
0.0000000e+00 0.0000000e+00 0.0000000e+00 
0.0000000e+00 0.0000000e+00 0.0000000e+00 
0.0000000e+00 0.0000000e+00 0.0000000e+00 
0.0000000e+00 0.0000000e+00 0.0000000e+00 
0.0000000e+00 0.0000000e+00 0.0000000e+00 
0.0000000e+00 0.0000000e+00 0.0000000e+00 
0.0000000e+00 0.0000000e+00 0.0000000e+00 
0.0000000e+00 0.0000000e+00 0.0000000e+00 
0.0000000e+00 0.0000000e+00 0.0000000e+00 