# vtk DataFile Version 4.0
vtk output
ASCII
DATASET UNSTRUCTURED_GRID
POINTS 2186 float
0.0000000e+00 0.0000000e+00 0.0000000e+00 
0.0000000e+00 0.0000000e+00 5.0000000e+01 
5.0000000e+00 0.0000000e+00 0.0000000e+00 
5.0000000e+00 0.0000000e+00 5.0000000e+01 
5.0000000e+00 1.0000000e+00 0.0000000e+00 
5.0000000e+00 1.0000000e+00 5.0000000e+01 
0.0000000e+00 1.0000000e+00 0.0000000e+00 
0.0000000e+00 1.0000000e+00 5.0000000e+01 
5.0000000e+00 2.0000000e+00 0.0000000e+00 
5.0000000e+00 2.0000000e+00 5.0000000e+01 
3.0000000e+00 2.0000000e+00 0.0000000e+00 
3.0000000e+00 2.0000000e+00 5.0000000e+01 
0.0000000e+00 2.0000000e+00 0.0000000e+00 
0.0000000e+00 2.0000000e+00 5.0000000e+01 
1.5000000e+00 3.0000000e+00 0.0000000e+00 
1.5000000e+00 3.0000000e+00 5.0000000e+01 
7.5000000e-01 3.0000000e+00 0.0000000e+00 
7.5000000e-01 3.0000000e+00 5.0000000e+01 
0.0000000e+00 3.0000000e+00 0.0000000e+00 
0.0000000e+00 3.0000000e+00 5.0000000e+01 
7.5000000e-01 3.0000000e+00 -2.5000000e+01 
7.5000000e-01 3.0000000e+00 -2.4500000e+01 
7.5000000e-01 3.0000000e+00 -2.4000000e+01 
7.5000000e-01 3.0000000e+00 -2.3500000e+01 
7.5000000e-01 3.0000000e+00 -2.3000000e+01 
7.5000000e-01 3.0000000e+00 -2.2500000e+01 
7.5000000e-01 3.0000000e+00 -2.2000000e+01 
7.5000000e-01 3.0000000e+00 -2.1500000e+01 
7.5000000e-01 3.0000000e+00 -2.1000000e+01 
7.5000000e-01 3.0000000e+00 -2.0500000e+01 
7.5000000e-01 3.0000000e+00 -2.0000000e+01 
7.5000000e-01 3.0000000e+00 -1.9500000e+01 
7.5000000e-01 3.0000000e+00 -1.9000000e+01 
7.5000000e-01 3.0000000e+00 -1.8500000e+01 
7.5000000e-01 3.0000000e+00 -1.8000000e+01 
7.5000000e-01 3.0000000e+00 -1.7500000e+01 
7.5000000e-01 3.0000000e+00 -1.7000000e+01 
7.5000000e-01 3.0000000e+00 -1.6500000e+01 
7.5000000e-01 3.0000000e+00 -1.6000000e+01 
7.5000000e-01 3.0000000e+00 -1.5500000e+01 
7.5000000e-01 3.0000000e+00 -1.5000000e+01 
7.5000000e-01 3.0000000e+00 -1.4500000e+01 
7.5000000e-01 3.0000000e+00 -1.4000000e+01 
7.5000000e-01 3.0000000e+00 -1.3500000e+01 
7.5000000e-01 3.0000000e+00 -1.3000000e+01 
7.5000000e-01 3.0000000e+00 -1.2500000e+01 
7.5000000e-01 3.0000000e+00 -1.2000000e+01 
7.5000000e-01 3.0000000e+00 -1.1500000e+01 
7.5000000e-01 3.0000000e+00 -1.1000000e+01 
7.5000000e-01 3.0000000e+00 -1.0500000e+01 
7.5000000e-01 3.0000000e+00 -1.0000000e+01 
7.5000000e-01 3.0000000e+00 -9.5000000e+00 
7.5000000e-01 3.0000000e+00 -9.0000000e+00 
7.5000000e-01 3.0000000e+00 -8.5000000e+00 
7.5000000e-01 3.0000000e+00 -8.0000000e+00 
7.5000000e-01 3.0000000e+00 -7.5000000e+00 
7.5000000e-01 3.0000000e+00 -7.0000000e+00 
7.5000000e-01 3.0000000e+00 -6.5000000e+00 
7.5000000e-01 3.0000000e+00 -6.0000000e+00 
7.5000000e-01 3.0000000e+00 -5.5000000e+00 
7.5000000e-01 3.0000000e+00 -5.0000000e+00 
7.5000000e-01 3.0000000e+00 -4.5000000e+00 
7.5000000e-01 3.0000000e+00 -4.0000000e+00 
7.5000000e-01 3.0000000e+00 -3.5000000e+00 
7.5000000e-01 3.0000000e+00 -3.0000000e+00 
7.5000000e-01 3.0000000e+00 -2.5000000e+00 
7.5000000e-01 3.0000000e+00 -2.0000000e+00 
7.5000000e-01 3.0000000e+00 -1.5000000e+00 
7.5000000e-01 3.0000000e+00 -1.0000000e+00 
7.5000000e-01 3.0000000e+00 -5.0000000e-01 
7.5000000e-01 3.0000000e+00 5.0000000e-01 
7.5000000e-01 3.0000000e+00 1.0000000e+00 
7.5000000e-01 3.0000000e+00 1.5000000e+00 
7.5000000e-01 3.0000000e+00 2.0000000e+00 
7.5000000e-01 3.0000000e+00 2.5000000e+00 
7.5000000e-01 3.0000000e+00 3.0000000e+00 
7.5000000e-01 3.0000000e+00 3.5000000e+00 
7.5000000e-01 3.0000000e+00 4.0000000e+00 
7.5000000e-01 3.0000000e+00 4.5000000e+00 
7.5000000e-01 3.0000000e+00 5.0000000e+00 
7.5000000e-01 3.0000000e+00 5.5000000e+00 
7.5000000e-01 3.0000000e+00 6.0000000e+00 
7.5000000e-01 3.0000000e+00 6.5000000e+00 
7.5000000e-01 3.0000000e+00 7.0000000e+00 
7.5000000e-01 3.0000000e+00 7.5000000e+00 
7.5000000e-01 3.0000000e+00 8.0000000e+00 
7.5000000e-01 3.0000000e+00 8.5000000e+00 
7.5000000e-01 3.0000000e+00 9.0000000e+00 
7.5000000e-01 3.0000000e+00 9.5000000e+00 
7.5000000e-01 3.0000000e+00 1.0000000e+01 
7.5000000e-01 3.0000000e+00 1.0500000e+01 
7.5000000e-01 3.0000000e+00 1.1000000e+01 
7.5000000e-01 3.0000000e+00 1.1500000e+01 
7.5000000e-01 3.0000000e+00 1.2000000e+01 
7.5000000e-01 3.0000000e+00 1.2500000e+01 
7.5000000e-01 3.0000000e+00 1.3000000e+01 
7.5000000e-01 3.0000000e+00 1.3500000e+01 
7.5000000e-01 3.0000000e+00 1.4000000e+01 
7.5000000e-01 3.0000000e+00 1.4500000e+01 
7.5000000e-01 3.0000000e+00 1.5000000e+01 
7.5000000e-01 3.0000000e+00 1.5500000e+01 
7.5000000e-01 3.0000000e+00 1.6000000e+01 
7.5000000e-01 3.0000000e+00 1.6500000e+01 
7.5000000e-01 3.0000000e+00 1.7000000e+01 
7.5000000e-01 3.0000000e+00 1.7500000e+01 
7.5000000e-01 3.0000000e+00 1.8000000e+01 
7.5000000e-01 3.0000000e+00 1.8500000e+01 
7.5000000e-01 3.0000000e+00 1.9000000e+01 
7.5000000e-01 3.0000000e+00 1.9500000e+01 
7.5000000e-01 3.0000000e+00 2.0000000e+01 
7.5000000e-01 3.0000000e+00 2.0500000e+01 
7.5000000e-01 3.0000000e+00 2.1000000e+01 
7.5000000e-01 3.0000000e+00 2.1500000e+01 
7.5000000e-01 3.0000000e+00 2.2000000e+01 
7.5000000e-01 3.0000000e+00 2.2500000e+01 
7.5000000e-01 3.0000000e+00 2.3000000e+01 
7.5000000e-01 3.0000000e+00 2.3500000e+01 
7.5000000e-01 3.0000000e+00 2.4000000e+01 
7.5000000e-01 3.0000000e+00 2.4500000e+01 
7.5000000e-01 3.0000000e+00 2.5000000e+01 
7.5000000e-01 3.0000000e+00 2.5500000e+01 
7.5000000e-01 3.0000000e+00 2.6000000e+01 
7.5000000e-01 3.0000000e+00 2.6500000e+01 
7.5000000e-01 3.0000000e+00 2.7000000e+01 
7.5000000e-01 3.0000000e+00 2.7500000e+01 
7.5000000e-01 3.0000000e+00 2.8000000e+01 
7.5000000e-01 3.0000000e+00 2.8500000e+01 
7.5000000e-01 3.0000000e+00 2.9000000e+01 
7.5000000e-01 3.0000000e+00 2.9500000e+01 
7.5000000e-01 3.0000000e+00 3.0000000e+01 
7.5000000e-01 3.0000000e+00 3.0500000e+01 
7.5000000e-01 3.0000000e+00 3.1000000e+01 
7.5000000e-01 3.0000000e+00 3.1500000e+01 
7.5000000e-01 3.0000000e+00 3.2000000e+01 
7.5000000e-01 3.0000000e+00 3.2500000e+01 
7.5000000e-01 3.0000000e+00 3.3000000e+01 
7.5000000e-01 3.0000000e+00 3.3500000e+01 
7.5000000e-01 3.0000000e+00 3.4000000e+01 
7.5000000e-01 3.0000000e+00 3.4500000e+01 
7.5000000e-01 3.0000000e+00 3.5000000e+01 
7.5000000e-01 3.0000000e+00 3.5500000e+01 
7.5000000e-01 3.0000000e+00 3.6000000e+01 
7.5000000e-01 3.0000000e+00 3.6500000e+01 
7.5000000e-01 3.0000000e+00 3.7000000e+01 
7.5000000e-01 3.0000000e+00 3.7500000e+01 
7.5000000e-01 3.0000000e+00 3.8000000e+01 
7.5000000e-01 3.0000000e+00 3.8500000e+01 
7.5000000e-01 3.0000000e+00 3.9000000e+01 
7.5000000e-01 3.0000000e+00 3.9500000e+01 
7.5000000e-01 3.0000000e+00 4.0000000e+01 
7.5000000e-01 3.0000000e+00 4.0500000e+01 
7.5000000e-01 3.0000000e+00 4.1000000e+01 
7.5000000e-01 3.0000000e+00 4.1500000e+01 
7.5000000e-01 3.0000000e+00 4.2000000e+01 
7.5000000e-01 3.0000000e+00 4.2500000e+01 
7.5000000e-01 3.0000000e+00 4.3000000e+01 
7.5000000e-01 3.0000000e+00 4.3500000e+01 
7.5000000e-01 3.0000000e+00 4.4000000e+01 
7.5000000e-01 3.0000000e+00 4.4500000e+01 
7.5000000e-01 3.0000000e+00 4.5000000e+01 
7.5000000e-01 3.0000000e+00 4.5500000e+01 
7.5000000e-01 3.0000000e+00 4.6000000e+01 
7.5000000e-01 3.0000000e+00 4.6500000e+01 
7.5000000e-01 3.0000000e+00 4.7000000e+01 
7.5000000e-01 3.0000000e+00 4.7500000e+01 
7.5000000e-01 3.0000000e+00 4.8000000e+01 
7.5000000e-01 3.0000000e+00 4.8500000e+01 
7.5000000e-01 3.0000000e+00 4.9000000e+01 
7.5000000e-01 3.0000000e+00 4.9500000e+01 
7.5000000e-01 3.0000000e+00 5.0500000e+01 
7.5000000e-01 3.0000000e+00 5.1000000e+01 
7.5000000e-01 3.0000000e+00 5.1500000e+01 
7.5000000e-01 3.0000000e+00 5.2000000e+01 
7.5000000e-01 3.0000000e+00 5.2500000e+01 
7.5000000e-01 3.0000000e+00 5.3000000e+01 
7.5000000e-01 3.0000000e+00 5.3500000e+01 
7.5000000e-01 3.0000000e+00 5.4000000e+01 
7.5000000e-01 3.0000000e+00 5.4500000e+01 
7.5000000e-01 3.0000000e+00 5.5000000e+01 
7.5000000e-01 3.0000000e+00 5.5500000e+01 
7.5000000e-01 3.0000000e+00 5.6000000e+01 
7.5000000e-01 3.0000000e+00 5.6500000e+01 
7.5000000e-01 3.0000000e+00 5.7000000e+01 
7.5000000e-01 3.0000000e+00 5.7500000e+01 
7.5000000e-01 3.0000000e+00 5.8000000e+01 
7.5000000e-01 3.0000000e+00 5.8500000e+01 
7.5000000e-01 3.0000000e+00 5.9000000e+01 
7.5000000e-01 3.0000000e+00 5.9500000e+01 
7.5000000e-01 3.0000000e+00 6.0000000e+01 
7.5000000e-01 3.0000000e+00 6.0500000e+01 
7.5000000e-01 3.0000000e+00 6.1000000e+01 
7.5000000e-01 3.0000000e+00 6.1500000e+01 
7.5000000e-01 3.0000000e+00 6.2000000e+01 
7.5000000e-01 3.0000000e+00 6.2500000e+01 
7.5000000e-01 3.0000000e+00 6.3000000e+01 
7.5000000e-01 3.0000000e+00 6.3500000e+01 
7.5000000e-01 3.0000000e+00 6.4000000e+01 
7.5000000e-01 3.0000000e+00 6.4500000e+01 
7.5000000e-01 3.0000000e+00 6.5000000e+01 
7.5000000e-01 3.0000000e+00 6.5500000e+01 
7.5000000e-01 3.0000000e+00 6.6000000e+01 
7.5000000e-01 3.0000000e+00 6.6500000e+01 
7.5000000e-01 3.0000000e+00 6.7000000e+01 
7.5000000e-01 3.0000000e+00 6.7500000e+01 
7.5000000e-01 3.0000000e+00 6.8000000e+01 
7.5000000e-01 3.0000000e+00 6.8500000e+01 
7.5000000e-01 3.0000000e+00 6.9000000e+01 
7.5000000e-01 3.0000000e+00 6.9500000e+01 
7.5000000e-01 3.0250001e+00 -2.5000000e+01 
7.5000000e-01 3.0250001e+00 -2.4500000e+01 
7.5000000e-01 3.0250001e+00 -2.4000000e+01 
7.5000000e-01 3.0250001e+00 -2.3500000e+01 
7.5000000e-01 3.0250001e+00 -2.3000000e+01 
7.5000000e-01 3.0250001e+00 -2.2500000e+01 
7.5000000e-01 3.0250001e+00 -2.2000000e+01 
7.5000000e-01 3.0250001e+00 -2.1500000e+01 
7.5000000e-01 3.0250001e+00 -2.1000000e+01 
7.5000000e-01 3.0250001e+00 -2.0500000e+01 
7.5000000e-01 3.0250001e+00 -2.0000000e+01 
7.5000000e-01 3.0250001e+00 -1.9500000e+01 
7.5000000e-01 3.0250001e+00 -1.9000000e+01 
7.5000000e-01 3.0250001e+00 -1.8500000e+01 
7.5000000e-01 3.0250001e+00 -1.8000000e+01 
7.5000000e-01 3.0250001e+00 -1.7500000e+01 
7.5000000e-01 3.0250001e+00 -1.7000000e+01 
7.5000000e-01 3.0250001e+00 -1.6500000e+01 
7.5000000e-01 3.0250001e+00 -1.6000000e+01 
7.5000000e-01 3.0250001e+00 -1.5500000e+01 
[...]
POINT_DATA 2186
FIELD FieldData 3
DISPLACEMENT 3 2186  float
0.0000000e+00 0.0000000e+00 0.0000000e+00 
0.0000000e+00 0.0000000e+00 0.0000000e+00 
0.0000000e+00 0.0000000e+00 0.0000000e+00 
0.0000000e+00 0.0000000e+00 0.0000000e+00 
5.3425185e-07 6.5672140e-07 4.0192759e-07 
3.3590615e-07 -4.9750369e-08 -1.3885274e-07 
0.0000000e+00 5.0923086e-06 0.0000000e+00 
0.0000000e+00 5.7695189e-07 0.0000000e+00 
-3.2547148e-06 6.8045933e-06 4.3479449e-06 
4.3844463e-07 -1.4735257e-07 -5.5352979e-07 
2.6591547e-06 -4.2242750e-06 -6.7672045e-06 
-1.0156531e-06 -1.2032282e-06 -5.2523040e-07 
0.0000000e+00 1.1173440e-05 0.0000000e+00 
0.0000000e+00 1.5060798e-06 0.0000000e+00 
-5.7491088e-06 -2.1864712e-07 1.3526012e-05 
4.2333946e-07 1.1945756e-06 -4.1938774e-06 
1.2272645e-05 -1.5586818e-05 1.2772955e-06 
5.6686713e-06 3.7346565e-06 -3.2461905e-06 
0.0000000e+00 2.1092706e-05 0.0000000e+00 
0.0000000e+00 -9.6856672e-07 0.0000000e+00 
0.0000000e+00 1.7556606e-05 0.0000000e+00 
0.0000000e+00 1.3862453e-05 0.0000000e+00 
0.0000000e+00 4.9165888e-06 0.0000000e+00 
0.0000000e+00 -4.9826435e-06 0.0000000e+00 
0.0000000e+00 -1.2029068e-05 0.0000000e+00 
0.0000000e+00 -1.4644076e-05 0.0000000e+00 
0.0000000e+00 -1.3484454e-05 0.0000000e+00 
0.0000000e+00 -1.0025386e-05 0.0000000e+00 
0.0000000e+00 -5.1099200e-06 0.0000000e+00 
0.0000000e+00 1.2575896e-06 0.0000000e+00 
0.0000000e+00 8.8000816e-06 0.0000000e+00 
0.0000000e+00 1.5752339e-05 0.0000000e+00 
0.0000000e+00 1.8986777e-05 0.0000000e+00 
0.0000000e+00 1.5805534e-05 0.0000000e+00 
0.0000000e+00 6.1659166e-06 0.0000000e+00 
0.0000000e+00 -6.5071827e-06 0.0000000e+00 
0.0000000e+00 -1.6833670e-05 0.0000000e+00 
0.0000000e+00 -2.0468555e-05 0.0000000e+00 
0.0000000e+00 -1.6545973e-05 0.0000000e+00 
0.0000000e+00 -7.8895364e-06 0.0000000e+00 
0.0000000e+00 1.0766043e-06 0.0000000e+00 
0.0000000e+00 7.0999913e-06 0.0000000e+00 
0.0000000e+00 9.5372843e-06 0.0000000e+00 
0.0000000e+00 9.6661179e-06 0.0000000e+00 
0.0000000e+00 8.8671231e-06 0.0000000e+00 
0.0000000e+00 7.4256900e-06 0.0000000e+00 
0.0000000e+00 4.8499878e-06 0.0000000e+00 
0.0000000e+00 1.0966863e-06 0.0000000e+00 
0.0000000e+00 -2.6634991e-06 0.0000000e+00 
0.0000000e+00 -4.6064260e-06 0.0000000e+00 
0.0000000e+00 -3.7928760e-06 0.0000000e+00 
0.0000000e+00 -1.3609532e-06 0.0000000e+00 
0.0000000e+00 -9.8132674e-08 0.0000000e+00 
0.0000000e+00 -2.3606233e-06 0.0000000e+00 
0.0000000e+00 -7.8708854e-06 0.0000000e+00 
0.0000000e+00 -1.3325637e-05 0.0000000e+00 
0.0000000e+00 -1.4398882e-05 0.0000000e+00 
0.0000000e+00 -8.7852250e-06 0.0000000e+00 
0.0000000e+00 1.9003362e-06 0.0000000e+00 
0.0000000e+00 1.2768231e-05 0.0000000e+00 
0.0000000e+00 1.8598830e-05 0.0000000e+00 
0.0000000e+00 1.7254604e-05 0.0000000e+00 
0.0000000e+00 1.1095660e-05 0.0000000e+00 
0.0000000e+00 5.1167394e-06 0.0000000e+00 
0.0000000e+00 3.1562645e-06 0.0000000e+00 
0.0000000e+00 5.2773544e-06 0.0000000e+00 
0.0000000e+00 8.2642464e-06 0.0000000e+00 
0.0000000e+00 8.2997676e-06 0.0000000e+00 
0.0000000e+00 3.4407233e-06 0.0000000e+00 
0.0000000e+00 -5.4950924e-06 0.0000000e+00 
3.7886614e-06 -2.3027087e-05 -6.5130916e-06 
1.3499940e-05 -2.7262226e-05 -5.4954194e-06 
1.2886693e-05 -3.0352960e-05 -8.3272353e-06 
7.4898649e-06 -3.2797176e-05 -1.2205645e-05 
5.9743661e-06 -3.1263487e-05 -1.5477075e-05 
4.0986024e-06 -2.4408937e-05 -6.8597737e-06 
8.8278912e-06 -1.5903510e-05 -1.1458644e-05 
9.9996150e-06 -1.2241912e-05 -1.3498027e-05 
5.5269084e-06 -1.6416156e-05 -1.8242183e-05 
3.9373062e-06 -2.4294632e-05 -1.1566600e-05 
7.1761912e-07 -2.8834565e-05 -3.3437675e-06 
6.3148582e-06 -2.2259013e-05 5.5750038e-06 
1.4033293e-06 -1.0306991e-05 6.2682197e-06 
2.4699364e-06 -8.5837155e-06 -7.9267411e-06 
-1.9285437e-06 -2.4343315e-05 -2.3326944e-05 
8.5648016e-06 -4.4175144e-05 -2.3689943e-05 
1.4987607e-05 -4.4659177e-05 -1.8710061e-05 
1.5992819e-05 -1.3971374e-05 -1.0990026e-05 
3.7590471e-05 2.7584882e-05 -6.5437780e-06 
2.3514280e-05 4.2116990e-05 2.8807322e-06 
2.2060543e-05 2.1179967e-05 9.9995714e-06 
1.9989156e-05 -7.5181447e-06 3.5453428e-05 
2.0171263e-05 -1.8938767e-05 6.1077626e-05 
9.6068425e-06 -3.3939988e-05 1.0199966e-04 
-7.6909519e-06 -1.6835632e-04 1.5963343e-04 
-7.5304983e-05 -5.8367720e-04 2.7378503e-04 
-7.9759295e-05 -1.3556106e-03 2.8541233e-04 
-1.2051119e-04 -2.4402151e-03 2.1563041e-04 
-1.8460407e-04 -3.6672766e-03 3.1699237e-04 
-2.6137676e-04 -4.6402658e-03 8.4328407e-05 
-3.0552220e-04 -4.9041654e-03 3.4182343e-05 
-2.8359346e-04 -4.5482130e-03 -1.2712309e-05 
-3.2423608e-04 -4.3709814e-03 -6.7977599e-05 
-5.7354989e-04 -4.5844368e-03 -4.8941914e-05 
-2.6472221e-04 -4.7451304e-03 -1.6500503e-04 
-1.8444278e-04 -4.2085070e-03 -1.9665084e-04 
-1.2400569e-04 -2.9452611e-03 -3.4981832e-04 
-8.2179518e-05 -1.6293325e-03 -2.0487561e-04 
-1.3224069e-06 -6.7690812e-04 -2.3314067e-04 
1.5896869e-05 -1.1538728e-04 -1.1782968e-04 
4.7014226e-05 1.4468226e-04 -6.9378591e-05 
4.0877934e-05 2.0565129e-04 -2.4531993e-05 
3.5919562e-05 1.5919794e-04 9.0476369e-06 
2.7784221e-05 7.9587036e-05 1.5187960e-05 
1.7955774e-05 1.6825321e-05 2.5343905e-05 
1.8477611e-05 -1.6680469e-05 2.7104503e-05 
1.4074458e-05 -2.8883671e-05 2.3543756e-05 
7.4183731e-06 -2.7941327e-05 1.8467974e-05 
6.3127550e-07 -1.9622252e-05 1.6598091e-05 
-2.3828186e-07 -1.4330913e-05 7.7317227e-06 
-6.3488051e-06 -1.8752715e-05 -4.6101823e-06 
1.8317048e-06 -2.5032276e-05 -8.9421665e-06 
2.6185537e-06 -2.3879169e-05 -1.1991242e-05 
8.6327291e-06 -1.4846237e-05 -3.7929599e-06 
1.0231272e-05 -1.0012755e-05 4.0640025e-06 
1.4238383e-05 -2.3784101e-05 5.8549681e-06 
1.0427017e-05 -4.7809302e-05 7.4483837e-06 
5.3474387e-06 -4.6973753e-05 6.7372221e-06 
1.8151819e-05 -7.5637599e-06 9.9255330e-06 
1.7624341e-05 4.4640921e-05 1.3525650e-05 
3.0299148e-05 6.8077876e-05 2.6874419e-05 
2.1990320e-05 3.4230183e-05 5.5234035e-05 
1.6481494e-05 -4.6140824e-05 7.8238707e-05 
2.0836530e-06 -1.4983575e-04 1.0736777e-04 
-1.2580153e-05 -3.2742441e-04 1.7223854e-04 
-4.0348503e-05 -7.1644841e-04 1.4184654e-04 
-8.5840766e-05 -1.4733864e-03 2.5583114e-04 
-1.6495537e-04 -2.6384108e-03 1.4844575e-04 
-2.2574836e-04 -4.0044887e-03 2.3534521e-04 
-2.6893718e-04 -4.9343933e-03 5.8996717e-05 
-3.1356633e-04 -4.8758700e-03 2.2984410e-05 
-3.1175488e-04 -4.3603708e-03 -1.6289674e-05 
-3.3263239e-04 -4.1953344e-03 -7.8805693e-05 
-2.7794798e-04 -4.4730762e-03 -1.8674442e-04 
-4.1412105e-04 -4.6982225e-03 -2.2711710e-04 
-7.5509131e-05 -4.0007713e-03 -2.3122407e-04 
-2.1065980e-04 -2.7246031e-03 -3.4577653e-04 
-3.4730427e-05 -1.4806249e-03 -2.3926974e-04 
-1.8512323e-05 -5.6698563e-04 -2.2752219e-04 
1.5804295e-05 -3.1164425e-05 -1.2396200e-04 
3.8280323e-05 1.8713434e-04 -5.3295906e-05 
3.4083339e-05 2.0428158e-04 -3.5085168e-06 
2.3151732e-05 1.4375780e-04 2.6362864e-05 
1.7831453e-05 8.1944723e-05 2.9407180e-05 
7.4642635e-06 4.2803800e-05 3.8633898e-05 
4.5434426e-06 1.6451615e-05 3.6508482e-05 
9.4944937e-07 -4.6278451e-06 3.2898359e-05 
-4.9006076e-06 -1.4545473e-05 2.7557664e-05 
-7.3204501e-06 -8.7137469e-06 2.2896098e-05 
-4.4388021e-06 2.8013917e-06 1.2816433e-05 
-9.5237228e-06 7.0513847e-06 -1.9570664e-06 
-7.4278523e-06 3.4001819e-06 -8.7675135e-06 
2.5774073e-06 -1.7132250e-07 -1.0278581e-05 
1.0417064e-06 3.6147432e-07 -5.3048316e-06 
1.5562964e-06 2.0686239e-06 3.4588063e-06 
1.1075455e-06 1.4055057e-06 4.0266918e-06 
-6.4077599e-06 -9.4924815e-07 3.0721210e-07 
-4.3506507e-06 -1.5147984e-06 -4.4286930e-06 
-1.1628017e-06 9.8960606e-07 -7.6290521e-06 
0.0000000e+00 4.0706427e-06 0.0000000e+00 
0.0000000e+00 2.3906462e-06 0.0000000e+00 
0.0000000e+00 8.2482217e-07 0.0000000e+00 
0.0000000e+00 7.0180232e-07 0.0000000e+00 
0.0000000e+00 1.1608728e-06 0.0000000e+00 
0.0000000e+00 5.6598878e-07 0.0000000e+00 
0.0000000e+00 -1.2452670e-06 0.0000000e+00 
0.0000000e+00 -2.7120886e-06 0.0000000e+00 
0.0000000e+00 -2.4530457e-06 0.0000000e+00 
0.0000000e+00 -8.2957018e-07 0.0000000e+00 
0.0000000e+00 6.4470777e-07 0.0000000e+00 
0.0000000e+00 1.0574253e-06 0.0000000e+00 
0.0000000e+00 7.9354038e-07 0.0000000e+00 
0.0000000e+00 5.9382683e-07 0.0000000e+00 
0.0000000e+00 4.8327041e-07 0.0000000e+00 
0.0000000e+00 -2.6529767e-08 0.0000000e+00 
0.0000000e+00 -9.2140135e-07 0.0000000e+00 
0.0000000e+00 -1.3773882e-06 0.0000000e+00 
0.0000000e+00 -6.7102218e-07 0.0000000e+00 
0.0000000e+00 8.2725552e-07 0.0000000e+00 
0.0000000e+00 1.8649075e-06 0.0000000e+00 
0.0000000e+00 1.5455885e-06 0.0000000e+00 
0.0000000e+00 1.9337966e-07 0.0000000e+00 
0.0000000e+00 -1.0738997e-06 0.0000000e+00 
0.0000000e+00 -1.4707313e-06 0.0000000e+00 
0.0000000e+00 -1.0941206e-06 0.0000000e+00 
0.0000000e+00 -4.7248014e-07 0.0000000e+00 
0.0000000e+00 1.1484050e-07 0.0000000e+00 
0.0000000e+00 6.9755180e-07 0.0000000e+00 
0.0000000e+00 1.1766614e-06 0.0000000e+00 
0.0000000e+00 1.1705664e-06 0.0000000e+00 
0.0000000e+00 4.5147536e-07 0.0000000e+00 
0.0000000e+00 -6.1042539e-07 0.0000000e+00 
0.0000000e+00 -1.2612901e-06 0.0000000e+00 
0.0000000e+00 -1.0726155e-06 0.0000000e+00 
0.0000000e+00 -3.3149752e-07 0.0000000e+00 
0.0000000e+00 3.2863377e-07 0.0000000e+00 
0.0000000e+00 5.8492407e-07 0.0000000e+00 
0.0000000e+00 6.0210897e-07 0.0000000e+00 
0.0000000e+00 1.7467843e-05 0.0000000e+00 
0.0000000e+00 1.3814292e-05 0.0000000e+00 
0.0000000e+00 4.9503319e-06 0.0000000e+00 
0.0000000e+00 -4.8959055e-06 0.0000000e+00 
0.0000000e+00 -1.1959062e-05 0.0000000e+00 
0.0000000e+00 -1.4642318e-05 0.0000000e+00 
0.0000000e+00 -1.3543002e-05 0.0000000e+00 
0.0000000e+00 -1.0085579e-05 0.0000000e+00 
0.0000000e+00 -5.1131760e-06 0.0000000e+00 
0.0000000e+00 1.3185227e-06 0.0000000e+00 
0.0000000e+00 8.8726738e-06 0.0000000e+00 
0.0000000e+00 1.5767908e-05 0.0000000e+00 
0.0000000e+00 1.8920786e-05 0.0000000e+00 
0.0000000e+00 1.5702497e-05 0.0000000e+00 
0.0000000e+00 6.1059473e-06 0.0000000e+00 
0.0000000e+00 -6.4730052e-06 0.0000000e+00 
0.0000000e+00 -1.6725879e-05 0.0000000e+00 
0.0000000e+00 -2.0365409e-05 0.0000000e+00 
0.0000000e+00 -1.6523620e-05 0.0000000e+00 
0.0000000e+00 -7.9624097e-06 0.0000000e+00 
0.0000000e+00 9.6734323e-07 0.0000000e+00 
0.0000000e+00 7.0382316e-06 0.0000000e+00 
0.0000000e+00 9.5627111e-06 0.0000000e+00 
0.0000000e+00 9.7442953e-06 0.0000000e+00 
0.0000000e+00 8.9251616e-06 0.0000000e+00 
0.0000000e+00 7.4185668e-06 0.0000000e+00 
0.0000000e+00 4.7965623e-06 0.0000000e+00 
0.0000000e+00 1.0576316e-06 0.0000000e+00 
0.0000000e+00 -2.6412213e-06 0.0000000e+00 
0.0000000e+00 -4.5317852e-06 0.0000000e+00 
0.0000000e+00 -3.7275488e-06 0.0000000e+00 
0.0000000e+00 -1.3705219e-06 0.0000000e+00 
0.0000000e+00 -1.9264345e-07 0.0000000e+00 
0.0000000e+00 -2.4768885e-06 0.0000000e+00 
0.0000000e+00 -7.9201045e-06 0.0000000e+00 
0.0000000e+00 -1.3267695e-05 0.0000000e+00 
0.0000000e+00 -1.4275791e-05 0.0000000e+00 
0.0000000e+00 -8.6877317e-06 0.0000000e+00 
0.0000000e+00 1.8987712e-06 0.0000000e+00 
0.0000000e+00 1.2662366e-05 0.0000000e+00 
0.0000000e+00 1.8461054e-05 0.0000000e+00 
0.0000000e+00 1.7191898e-05 0.0000000e+00 
0.0000000e+00 1.1167751e-05 0.0000000e+00 
0.0000000e+00 5.2777336e-06 0.0000000e+00 
0.0000000e+00 3.2880685e-06 0.0000000e+00 
0.0000000e+00 5.2943374e-06 0.0000000e+00 
0.0000000e+00 8.1807402e-06 0.0000000e+00 
0.0000000e+00 8.1954749e-06 0.0000000e+00 
0.0000000e+00 3.3799745e-06 0.0000000e+00 
0.0000000e+00 -5.5058272e-06 0.0000000e+00 
0.0000000e+00 -1.5448104e-05 0.0000000e+00 
0.0000000e+00 -2.2920691e-05 0.0000000e+00 
0.0000000e+00 -2.7351267e-05 0.0000000e+00 
0.0000000e+00 -3.0584273e-05 0.0000000e+00 
0.0000000e+00 -3.2801949e-05 0.0000000e+00 
0.0000000e+00 -3.1104195e-05 0.0000000e+00 
0.0000000e+00 -2.4265271e-05 0.0000000e+00 
0.0000000e+00 -1.5974969e-05 0.0000000e+00 
0.0000000e+00 -1.2514413e-05 0.0000000e+00 
0.0000000e+00 -1.6635309e-05 0.0000000e+00 
0.0000000e+00 -2.4462137e-05 0.0000000e+00 
0.0000000e+00 -2.8369221e-05 0.0000000e+00 
0.0000000e+00 -2.1847267e-05 0.0000000e+00 
0.0000000e+00 -1.0442875e-05 0.0000000e+00 
0.0000000e+00 -9.2279906e-06 0.0000000e+00 
0.0000000e+00 -2.5004379e-05 0.0000000e+00 
0.0000000e+00 -4.4163738e-05 0.0000000e+00 
0.0000000e+00 -4.3432112e-05 0.0000000e+00 
0.0000000e+00 -1.2920888e-05 0.0000000e+00 
0.0000000e+00 2.6854477e-05 0.0000000e+00 
0.0000000e+00 4.0805713e-05 0.0000000e+00 
0.0000000e+00 2.0711877e-05 0.0000000e+00 
0.0000000e+00 -6.6272546e-06 0.0000000e+00 
0.0000000e+00 -1.5516347e-05 0.0000000e+00 
0.0000000e+00 -3.1294185e-05 0.0000000e+00 
0.0000000e+00 -1.7021135e-04 0.0000000e+00 
0.0000000e+00 -5.8769580e-04 0.0000000e+00 
0.0000000e+00 -1.3614623e-03 0.0000000e+00 
0.0000000e+00 -2.4500906e-03 0.0000000e+00 
0.0000000e+00 -3.6780753e-03 0.0000000e+00 
0.0000000e+00 -4.6673017e-03 0.0000000e+00 
0.0000000e+00 -4.9332525e-03 0.0000000e+00 
0.0000000e+00 -4.5819082e-03 0.0000000e+00 
0.0000000e+00 -4.3946751e-03 0.0000000e+00 
0.0000000e+00 -4.5996676e-03 0.0000000e+00 
0.0000000e+00 -4.7718044e-03 0.0000000e+00 
0.0000000e+00 -4.2403275e-03 0.0000000e+00 
0.0000000e+00 -2.9651399e-03 0.0000000e+00 
0.0000000e+00 -1.6416537e-03 0.0000000e+00 
0.0000000e+00 -6.8016042e-04 0.0000000e+00 
0.0000000e+00 -1.1582768e-04 0.0000000e+00 
0.0000000e+00 1.4505956e-04 0.0000000e+00 
0.0000000e+00 2.0671806e-04 0.0000000e+00 
0.0000000e+00 1.6041449e-04 0.0000000e+00 
0.0000000e+00 8.0881488e-05 0.0000000e+00 
0.0000000e+00 1.7189135e-05 0.0000000e+00 
0.0000000e+00 -1.6959722e-05 0.0000000e+00 
0.0000000e+00 -2.8842149e-05 0.0000000e+00 
0.0000000e+00 -2.7456281e-05 0.0000000e+00 
0.0000000e+00 -1.9772966e-05 0.0000000e+00 
0.0000000e+00 -1.5176008e-05 0.0000000e+00 
0.0000000e+00 -1.8953586e-05 0.0000000e+00 
0.0000000e+00 -2.4664814e-05 0.0000000e+00 
0.0000000e+00 -2.3282968e-05 0.0000000e+00 
0.0000000e+00 -1.4616947e-05 0.0000000e+00 
0.0000000e+00 -1.0820806e-05 0.0000000e+00 
0.0000000e+00 -2.4992934e-05 0.0000000e+00 
0.0000000e+00 -4.7433557e-05 0.0000000e+00 
0.0000000e+00 -4.5723074e-05 0.0000000e+00 
0.0000000e+00 -6.5807467e-06 0.0000000e+00 
0.0000000e+00 4.4708726e-05 0.0000000e+00 
0.0000000e+00 6.6617882e-05 0.0000000e+00 
0.0000000e+00 3.3234483e-05 0.0000000e+00 
0.0000000e+00 -4.4147659e-05 0.0000000e+00 
0.0000000e+00 -1.4696481e-04 0.0000000e+00 
0.0000000e+00 -3.2575309e-04 0.0000000e+00 
0.0000000e+00 -7.1885373e-04 0.0000000e+00 
0.0000000e+00 -1.4819674e-03 0.0000000e+00 
0.0000000e+00 -2.6559492e-03 0.0000000e+00 
0.0000000e+00 -4.0177130e-03 0.0000000e+00 
0.0000000e+00 -4.9610301e-03 0.0000000e+00 
0.0000000e+00 -4.9015782e-03 0.0000000e+00 
0.0000000e+00 -4.3900404e-03 0.0000000e+00 
0.0000000e+00 -4.2164619e-03 0.0000000e+00 
0.0000000e+00 -4.5041735e-03 0.0000000e+00 
0.0000000e+00 -4.7202958e-03 0.0000000e+00 
0.0000000e+00 -4.0282202e-03 0.0000000e+00 
0.0000000e+00 -2.7403939e-03 0.0000000e+00 
0.0000000e+00 -1.4890612e-03 0.0000000e+00 
0.0000000e+00 -5.7079422e-04 0.0000000e+00 
0.0000000e+00 -3.2822220e-05 0.0000000e+00 
0.0000000e+00 1.8754494e-04 0.0000000e+00 
0.0000000e+00 2.0652376e-04 0.0000000e+00 
0.0000000e+00 1.4556969e-04 0.0000000e+00 
0.0000000e+00 8.2739949e-05 0.0000000e+00 
0.0000000e+00 4.2539683e-05 0.0000000e+00 
0.0000000e+00 1.6183903e-05 0.0000000e+00 
0.0000000e+00 -4.3887367e-06 0.0000000e+00 
0.0000000e+00 -1.4104625e-05 0.0000000e+00 
0.0000000e+00 -8.7970257e-06 0.0000000e+00 
0.0000000e+00 2.3207883e-06 0.0000000e+00 
0.0000000e+00 6.8597760e-06 0.0000000e+00 
0.0000000e+00 3.6381578e-06 0.0000000e+00 
0.0000000e+00 3.5140914e-08 0.0000000e+00 
0.0000000e+00 2.8557997e-07 0.0000000e+00 
0.0000000e+00 1.9091547e-06 0.0000000e+00 
0.0000000e+00 1.3695035e-06 0.0000000e+00 
0.0000000e+00 -8.3209801e-07 0.0000000e+00 
0.0000000e+00 -1.3949002e-06 0.0000000e+00 
0.0000000e+00 9.3297825e-07 0.0000000e+00 
0.0000000e+00 3.6233623e-06 0.0000000e+00 
0.0000000e+00 4.0458517e-06 0.0000000e+00 
0.0000000e+00 2.4466854e-06 0.0000000e+00 
0.0000000e+00 8.9403210e-07 0.0000000e+00 
0.0000000e+00 7.0354298e-07 0.0000000e+00 
0.0000000e+00 1.1011884e-06 0.0000000e+00 
0.0000000e+00 5.2289374e-07 0.0000000e+00 
0.0000000e+00 -1.2231923e-06 0.0000000e+00 
0.0000000e+00 -2.6603602e-06 0.0000000e+00 
0.0000000e+00 -2.4369019e-06 0.0000000e+00 
0.0000000e+00 -8.6090131e-07 0.0000000e+00 
0.0000000e+00 6.1309629e-07 0.0000000e+00 
0.0000000e+00 1.0640048e-06 0.0000000e+00 
0.0000000e+00 8.2100502e-07 0.0000000e+00 
0.0000000e+00 5.9872661e-07 0.0000000e+00 
0.0000000e+00 4.5602198e-07 0.0000000e+00 
0.0000000e+00 -5.0012996e-08 0.0000000e+00 
0.0000000e+00 -9.0732323e-07 0.0000000e+00 
0.0000000e+00 -1.3376678e-06 0.0000000e+00 
0.0000000e+00 -6.4922654e-07 0.0000000e+00 
0.0000000e+00 8.0775618e-07 0.0000000e+00 
0.0000000e+00 1.8267368e-06 0.0000000e+00 
0.0000000e+00 1.5286536e-06 0.0000000e+00 
0.0000000e+00 2.0946199e-07 0.0000000e+00 
0.0000000e+00 -1.0493467e-06 0.0000000e+00 
0.0000000e+00 -1.4646840e-06 0.0000000e+00 
0.0000000e+00 -1.1051110e-06 0.0000000e+00 
0.0000000e+00 -4.7880457e-07 0.0000000e+00 
0.0000000e+00 1.2333608e-07 0.0000000e+00 
0.0000000e+00 7.0678811e-07 0.0000000e+00 
0.0000000e+00 1.1691679e-06 0.0000000e+00 
0.0000000e+00 1.1505497e-06 0.0000000e+00 
0.0000000e+00 4.4116595e-07 0.0000000e+00 
0.0000000e+00 -5.9812345e-07 0.0000000e+00 
0.0000000e+00 -1.2390567e-06 0.0000000e+00 
0.0000000e+00 -1.0637935e-06 0.0000000e+00 
0.0000000e+00 -3.4279799e-07 0.0000000e+00 
0.0000000e+00 3.1345039e-07 0.0000000e+00 
0.0000000e+00 5.8345358e-07 0.0000000e+00 
0.0000000e+00 6.1053066e-07 0.0000000e+00 
0.0000000e+00 0.0000000e+00 0.0000000e+00 
0.0000000e+00 0.0000000e+00 0.0000000e+00 
0.0000000e+00 0.0000000e+00 0.0000000e+00 
0.0000000e+00 0.0000000e+00 0.0000000e+00 
0.0000000e+00 0.0000000e+00 0.0000000e+00 
0.0000000e+00 0.0000000e+00 0.0000000e+00 
0.0000000e+00 0.0000000e+00 0.0000000e+00 
0.0000000e+00 0.0000000e+00 0.0000000e+00 
0.0000000e+00 0.0000000e+00 0.0000000e+00 
0.0000000e+00 0.0000000e+00 0.0000000e+00 
0.0000000e+00 0.0000000e+00 0.0000000e+00 
0.0000000e+00 0.0000000e+00 0.0000000e+00 
0.0000000e+00 0.0000000e+00 0.0000000e+00 
0.0000000e+00 0.0000000e+00 0.0000000e+00 
0.0000000e+00 0.0000000e+00 0.0000000e+00 
0.0000000e+00 0.0000000e+00 0.0000000e+00 
0.0000000e+00 0.0000000e+00 0.0000000e+00 
0.0000000e+00 0.0000000e+00 0.0000000e+00 
0.0000000e+00 0.0000000e+00 0.0000000e+00 
0.0000000e+00 0.0000000e+00 0.0000000e+00 
0.0000000e+00 0.0000000e+00 0.0000000e+00 
0.0000000e+00 0.0000000e+00 0.0000000e+00 
0.0000000e+00 0.0000000e+00 0.0000000e+00 
0.0000000e+00 0.0000000e+00 0.0000000e+00 
0.0000000e+00 0.0000000e+00 0.0000000e+00 
0.0000000e+00 0.0000000e+00 0.0000000e+00 
0.0000000e+00 0.0000000e+00 0.0000000e+00 
0.0000000e+00 0.0000000e+00 0.0000000e+00 
0.0000000e+00 0.0000000e+00 0.0000000e+00 
0.0000000e+00 0.0000000e+00 0.0000000e+00 
0.0000000e+00 0.0000000e+00 0.0000000e+00 
0.0000000e+00 0.0000000e+00 0.0000000e+00 
0.0000000e+00 0.0000000e+00 0.0000000e+00 
0.0000000e+00 0.0000000e+00 0.0000000e+00 
0.0000000e+00 0.0000000e+00 0.0000000e+00 
0.0000000e+00 0.0000000e+00 0.0000000e+00 
0.0000000e+00 0.0000000e+00 0.0000000e+00 
0.0000000e+00 0.0000000e+00 0.0000000e+00 
0.0000000e+00 0.0000000e+00 0.0000000e+00 
0.0000000e+00 0.0000000e+00 0.0000000e+00 
0.0000000e+00 0.0000000e+00 0.0000000e+00 
0.0000000e+00 0.0000000e+00 0.0000000e+00 
0.0000000e+00 0.0000000e+00 0.0000000e+00 
0.0000000e+00 0.0000000e+00 0.0000000e+00 
0.0000000e+00 0.0000000e+00 0.0000000e+00 
0.0000000e+00 0.0000000e+00 0.0000000e+00 
0.0000000e+00 0.0000000e+00 0.0000000e+00 
0.0000000e+00 0.0000000e+00 0.0000000e+00 
0.0000000e+00 0.0000000e+00 0.0000000e+00 
0.0000000e+00 0.0000000e+00 0.0000000e+00 
0.0000000e+00 0.0000000e+00 0.0000000e+00 
0.0000000e+00 0.0000000e+00 0.0000000e+00 
0.0000000e+00 0.0000000e+00 0.0000000e+00 
0.0000000e+00 0.0000000e+00 0.0000000e+00 
0.0000000e+00 0.0000000e+00 0.0000000e+00 
0.0000000e+00 0.0000000e+00 0.0000000e+00 
0.0000000e+00 0.0000000e+00 0.0000000e+00 