# vtk DataFile Version 4.0
vtk output
ASCII
DATASET UNSTRUCTURED_GRID
POINTS 2186 float
0.0000000e+00 0.0000000e+00 0.0000000e+00 
0.0000000e+00 0.0000000e+00 5.0000000e+01 
5.0000000e+00 0.0000000e+00 0.0000000e+00 
5.0000000e+00 0.0000000e+00 5.0000000e+01 
5.0000000e+00 1.0000000e+00 0.0000000e+00 
5.0000000e+00 1.0000000e+00 5.0000000e+01 
0.0000000e+00 1.0000000e+00 0.0000000e+00 
0.0000000e+00 1.0000000e+00 5.0000000e+01 
5.0000000e+00 2.0000000e+00 0.0000000e+00 
5.0000000e+00 2.0000000e+00 5.0000000e+01 
3.0000000e+00 2.0000000e+00 0.0000000e+00 
3.0000000e+00 2.0000000e+00 5.0000000e+01 
0.0000000e+00 2.0000000e+00 0.0000000e+00 
0.0000000e+00 2.0000000e+00 5.0000000e+01 
1.5000000e+00 3.0000000e+00 0.0000000e+00 
1.5000000e+00 3.0000000e+00 5.0000000e+01 
7.5000000e-01 3.0000000e+00 0.0000000e+00 
7.5000000e-01 3.0000000e+00 5.0000000e+01 
0.0000000e+00 3.0000000e+00 0.0000000e+00 
0.0000000e+00 3.0000000e+00 5.0000000e+01 
7.5000000e-01 3.0000000e+00 -2.5000000e+01 
7.5000000e-01 3.0000000e+00 -2.4500000e+01 
7.5000000e-01 3.0000000e+00 -2.4000000e+01 
7.5000000e-01 3.0000000e+00 -2.3500000e+01 
7.5000000e-01 3.0000000e+00 -2.3000000e+01 
7.5000000e-01 3.0000000e+00 -2.2500000e+01 
7.5000000e-01 3.0000000e+00 -2.2000000e+01 
7.5000000e-01 3.0000000e+00 -2.1500000e+01 
7.5000000e-01 3.0000000e+00 -2.1000000e+01 
7.5000000e-01 3.0000000e+00 -2.0500000e+01 
7.5000000e-01 3.0000000e+00 -2.0000000e+01 
7.5000000e-01 3.0000000e+00 -1.9500000e+01 
7.5000000e-01 3.0000000e+00 -1.9000000e+01 
7.5000000e-01 3.0000000e+00 -1.8500000e+01 
7.5000000e-01 3.0000000e+00 -1.8000000e+01 
7.5000000e-01 3.0000000e+00 -1.7500000e+01 
7.5000000e-01 3.0000000e+00 -1.7000000e+01 
7.5000000e-01 3.0000000e+00 -1.6500000e+01 
7.5000000e-01 3.0000000e+00 -1.6000000e+01 
7.5000000e-01 3.0000000e+00 -1.5500000e+01 
7.5000000e-01 3.0000000e+00 -1.5000000e+01 
7.5000000e-01 3.0000000e+00 -1.4500000e+01 
7.5000000e-01 3.0000000e+00 -1.4000000e+01 
7.5000000e-01 3.0000000e+00 -1.3500000e+01 
7.5000000e-01 3.0000000e+00 -1.3000000e+01 
7.5000000e-01 3.0000000e+00 -1.2500000e+01 
7.5000000e-01 3.0000000e+00 -1.2000000e+01 
7.5000000e-01 3.0000000e+00 -1.1500000e+01 
7.5000000e-01 3.0000000e+00 -1.1000000e+01 
7.5000000e-01 3.0000000e+00 -1.0500000e+01 
7.5000000e-01 3.0000000e+00 -1.0000000e+01 
7.5000000e-01 3.0000000e+00 -9.5000000e+00 
7.5000000e-01 3.0000000e+00 -9.0000000e+00 
7.5000000e-01 3.0000000e+00 -8.5000000e+00 
7.5000000e-01 3.0000000e+00 -8.0000000e+00 
7.5000000e-01 3.0000000e+00 -7.5000000e+00 
7.5000000e-01 3.0000000e+00 -7.0000000e+00 
7.5000000e-01 3.0000000e+00 -6.5000000e+00 
7.5000000e-01 3.0000000e+00 -6.0000000e+00 
7.5000000e-01 3.0000000e+00 -5.5000000e+00 
7.5000000e-01 3.0000000e+00 -5.0000000e+00 
7.5000000e-01 3.0000000e+00 -4.5000000e+00 
7.5000000e-01 3.0000000e+00 -4.0000000e+00 
7.5000000e-01 3.0000000e+00 -3.5000000e+00 
7.5000000e-01 3.0000000e+00 -3.0000000e+00 
7.5000000e-01 3.0000000e+00 -2.5000000e+00 
7.5000000e-01 3.0000000e+00 -2.0000000e+00 
7.5000000e-01 3.0000000e+00 -1.5000000e+00 
7.5000000e-01 3.0000000e+00 -1.0000000e+00 
7.5000000e-01 3.0000000e+00 -5.0000000e-01 
7.5000000e-01 3.0000000e+00 5.0000000e-01 
7.5000000e-01 3.0000000e+00 1.0000000e+00 
7.5000000e-01 3.0000000e+00 1.5000000e+00 
7.5000000e-01 3.0000000e+00 2.0000000e+00 
7.5000000e-01 3.0000000e+00 2.5000000e+00 
7.5000000e-01 3.0000000e+00 3.0000000e+00 
7.5000000e-01 3.0000000e+00 3.5000000e+00 
7.5000000e-01 3.0000000e+00 4.0000000e+00 
7.5000000e-01 3.0000000e+00 4.5000000e+00 
7.5000000e-01 3.0000000e+00 5.0000000e+00 
7.5000000e-01 3.0000000e+00 5.5000000e+00 
7.5000000e-01 3.0000000e+00 6.0000000e+00 
7.5000000e-01 3.0000000e+00 6.5000000e+00 
7.5000000e-01 3.0000000e+00 7.0000000e+00 
7.5000000e-01 3.0000000e+00 7.5000000e+00 
7.5000000e-01 3.0000000e+00 8.0000000e+00 
7.5000000e-01 3.0000000e+00 8.5000000e+00 
7.5000000e-01 3.0000000e+00 9.0000000e+00 
7.5000000e-01 3.0000000e+00 9.5000000e+00 
7.5000000e-01 3.0000000e+00 1.0000000e+01 
7.5000000e-01 3.0000000e+00 1.0500000e+01 
7.5000000e-01 3.0000000e+00 1.1000000e+01 
7.5000000e-01 3.0000000e+00 1.1500000e+01 
7.5000000e-01 3.0000000e+00 1.2000000e+01 
7.5000000e-01 3.0000000e+00 1.2500000e+01 
7.5000000e-01 3.0000000e+00 1.3000000e+01 
7.5000000e-01 3.0000000e+00 1.3500000e+01 
7.5000000e-01 3.0000000e+00 1.4000000e+01 
7.5000000e-01 3.0000000e+00 1.4500000e+01 
7.5000000e-01 3.0000000e+00 1.5000000e+01 
7.5000000e-01 3.0000000e+00 1.5500000e+01 
7.5000000e-01 3.0000000e+00 1.6000000e+01 
7.5000000e-01 3.0000000e+00 1.6500000e+01 
7.5000000e-01 3.0000000e+00 1.7000000e+01 
7.5000000e-01 3.0000000e+00 1.7500000e+01 
7.5000000e-01 3.0000000e+00 1.8000000e+01 
7.5000000e-01 3.0000000e+00 1.8500000e+01 
7.5000000e-01 3.0000000e+00 1.9000000e+01 
7.5000000e-01 3.0000000e+00 1.9500000e+01 
7.5000000e-01 3.0000000e+00 2.0000000e+01 
7.5000000e-01 3.0000000e+00 2.0500000e+01 
7.5000000e-01 3.0000000e+00 2.1000000e+01 
7.5000000e-01 3.0000000e+00 2.1500000e+01 
7.5000000e-01 3.0000000e+00 2.2000000e+01 
7.5000000e-01 3.0000000e+00 2.2500000e+01 
7.5000000e-01 3.0000000e+00 2.3000000e+01 
7.5000000e-01 3.0000000e+00 2.3500000e+01 
7.5000000e-01 3.0000000e+00 2.4000000e+01 
7.5000000e-01 3.0000000e+00 2.4500000e+01 
7.5000000e-01 3.0000000e+00 2.5000000e+01 
7.5000000e-01 3.0000000e+00 2.5500000e+01 
7.5000000e-01 3.0000000e+00 2.6000000e+01 
7.5000000e-01 3.0000000e+00 2.6500000e+01 
7.5000000e-01 3.0000000e+00 2.7000000e+01 
7.5000000e-01 3.0000000e+00 2.7500000e+01 
7.5000000e-01 3.0000000e+00 2.8000000e+01 
7.5000000e-01 3.0000000e+00 2.8500000e+01 
7.5000000e-01 3.0000000e+00 2.9000000e+01 
7.5000000e-01 3.0000000e+00 2.9500000e+01 
7.5000000e-01 3.0000000e+00 3.0000000e+01 
7.5000000e-01 3.0000000e+00 3.0500000e+01 
7.5000000e-01 3.0000000e+00 3.1000000e+01 
7.5000000e-01 3.0000000e+00 3.1500000e+01 
7.5000000e-01 3.0000000e+00 3.2000000e+01 
7.5000000e-01 3.0000000e+00 3.2500000e+01 
7.5000000e-01 3.0000000e+00 3.3000000e+01 
7.5000000e-01 3.0000000e+00 3.3500000e+01 
7.5000000e-01 3.0000000e+00 3.4000000e+01 
7.5000000e-01 3.0000000e+00 3.4500000e+01 
7.5000000e-01 3.0000000e+00 3.5000000e+01 
7.5000000e-01 3.0000000e+00 3.5500000e+01 
7.5000000e-01 3.0000000e+00 3.6000000e+01 
7.5000000e-01 3.0000000e+00 3.6500000e+01 
7.5000000e-01 3.0000000e+00 3.7000000e+01 
7.5000000e-01 3.0000000e+00 3.7500000e+01 
7.5000000e-01 3.0000000e+00 3.8000000e+01 
7.5000000e-01 3.0000000e+00 3.8500000e+01 
7.5000000e-01 3.0000000e+00 3.9000000e+01 
7.5000000e-01 3.0000000e+00 3.9500000e+01 
7.5000000e-01 3.0000000e+00 4.0000000e+01 
7.5000000e-01 3.0000000e+00 4.0500000e+01 
7.5000000e-01 3.0000000e+00 4.1000000e+01 
7.5000000e-01 3.0000000e+00 4.1500000e+01 
7.5000000e-01 3.0000000e+00 4.2000000e+01 
7.5000000e-01 3.0000000e+00 4.2500000e+01 
7.5000000e-01 3.0000000e+00 4.3000000e+01 
7.5000000e-01 3.0000000e+00 4.3500000e+01 
7.5000000e-01 3.0000000e+00 4.4000000e+01 
7.5000000e-01 3.0000000e+00 4.4500000e+01 
7.5000000e-01 3.0000000e+00 4.5000000e+01 
7.5000000e-01 3.0000000e+00 4.5500000e+01 
7.5000000e-01 3.0000000e+00 4.6000000e+01 
7.5000000e-01 3.0000000e+00 4.6500000e+01 
7.5000000e-01 3.0000000e+00 4.7000000e+01 
7.5000000e-01 3.0000000e+00 4.7500000e+01 
7.5000000e-01 3.0000000e+00 4.8000000e+01 
7.5000000e-01 3.0000000e+00 4.8500000e+01 
7.5000000e-01 3.0000000e+00 4.9000000e+01 
7.5000000e-01 3.0000000e+00 4.9500000e+01 
7.5000000e-01 3.0000000e+00 5.0500000e+01 
7.5000000e-01 3.0000000e+00 5.1000000e+01 
7.5000000e-01 3.0000000e+00 5.1500000e+01 
7.5000000e-01 3.0000000e+00 5.2000000e+01 
7.5000000e-01 3.0000000e+00 5.2500000e+01 
7.5000000e-01 3.0000000e+00 5.3000000e+01 
7.5000000e-01 3.0000000e+00 5.3500000e+01 
7.5000000e-01 3.0000000e+00 5.4000000e+01 
7.5000000e-01 3.0000000e+00 5.4500000e+01 
7.5000000e-01 3.0000000e+00 5.5000000e+01 
7.5000000e-01 3.0000000e+00 5.5500000e+01 
7.5000000e-01 3.0000000e+00 5.6000000e+01 
7.5000000e-01 3.0000000e+00 5.6500000e+01 
7.5000000e-01 3.0000000e+00 5.7000000e+01 
7.5000000e-01 3.0000000e+00 5.7500000e+01 
7.5000000e-01 3.0000000e+00 5.8000000e+01 
7.5000000e-01 3.0000000e+00 5.8500000e+01 
7.5000000e-01 3.0000000e+00 5.9000000e+01 
7.5000000e-01 3.0000000e+00 5.9500000e+01 
7.5000000e-01 3.0000000e+00 6.0000000e+01 
7.5000000e-01 3.0000000e+00 6.0500000e+01 
7.5000000e-01 3.0000000e+00 6.1000000e+01 
7.5000000e-01 3.0000000e+00 6.1500000e+01 
7.5000000e-01 3.0000000e+00 6.2000000e+01 
7.5000000e-01 3.0000000e+00 6.2500000e+01 
7.5000000e-01 3.0000000e+00 6.3000000e+01 
7.5000000e-01 3.0000000e+00 6.3500000e+01 
7.5000000e-01 3.0000000e+00 6.4000000e+01 
7.5000000e-01 3.0000000e+00 6.4500000e+01 
7.5000000e-01 3.0000000e+00 6.5000000e+01 
7.5000000e-01 3.0000000e+00 6.5500000e+01 
7.5000000e-01 3.0000000e+00 6.6000000e+01 
7.5000000e-01 3.0000000e+00 6.6500000e+01 
7.5000000e-01 3.0000000e+00 6.7000000e+01 
7.5000000e-01 3.0000000e+00 6.7500000e+01 
7.5000000e-01 3.0000000e+00 6.8000000e+01 
7.5000000e-01 3.0000000e+00 6.8500000e+01 
7.5000000e-01 3.0000000e+00 6.9000000e+01 
7.5000000e-01 3.0000000e+00 6.9500000e+01 
7.5000000e-01 3.0250001e+00 -2.5000000e+01 
7.5000000e-01 3.0250001e+00 -2.4500000e+01 
7.5000000e-01 3.0250001e+00 -2.4000000e+01 
7.5000000e-01 3.0250001e+00 -2.3500000e+01 
7.5000000e-01 3.0250001e+00 -2.3000000e+01 
7.5000000e-01 3.0250001e+00 -2.2500000e+01 
7.5000000e-01 3.0250001e+00 -2.2000000e+01 
7.5000000e-01 3.0250001e+00 -2.1500000e+01 
7.5000000e-01 3.0250001e+00 -2.1000000e+01 
7.5000000e-01 3.0250001e+00 -2.0500000e+01 
7.5000000e-01 3.0250001e+00 -2.0000000e+01 
7.5000000e-01 3.0250001e+00 -1.9500000e+01 
7.5000000e-01 3.0250001e+00 -1.9000000e+01 
7.5000000e-01 3.0250001e+00 -1.8500000e+01 
7.5000000e-01 3.0250001e+00 -1.8000000e+01 
7.5000000e-01 3.0250001e+00 -1.7500000e+01 
7.5000000e-01 3.0250001e+00 -1.7000000e+01 
7.5000000e-01 3.0250001e+00 -1.6500000e+01 
7.5000000e-01 3.0250001e+00 -1.6000000e+01 
7.5000000e-01 3.0250001e+00 -1.5500000e+01 
[...]
POINT_DATA 2186
FIELD FieldData 3
DISPLACEMENT 3 2186  float
0.0000000e+00 0.0000000e+00 0.0000000e+00 
0.0000000e+00 0.0000000e+00 0.0000000e+00 
0.0000000e+00 0.0000000e+00 0.0000000e+00 
0.0000000e+00 0.0000000e+00 0.0000000e+00 
1.0356821e-06 -1.0298841e-07 7.5883429e-07 
3.7616954e-07 3.8569658e-07 2.1472511e-07 
0.0000000e+00 5.9485678e-06 0.0000000e+00 
0.0000000e+00 2.2046988e-06 0.0000000e+00 
5.8417226e-07 8.2087541e-07 -1.1232097e-06 
2.2904375e-07 1.1338684e-06 -1.3783524e-07 
4.2601623e-06 1.1399092e-06 -1.1721144e-06 
1.3259335e-06 3.0698966e-06 7.0393980e-07 
0.0000000e+00 7.2756052e-06 0.0000000e+00 
0.0000000e+00 3.2671710e-06 0.0000000e+00 
6.4415322e-06 -4.3122477e-06 1.6854328e-06 
-2.3792165e-07 1.3652740e-05 -7.4866248e-06 
-1.3489193e-06 1.8565343e-06 -4.8738807e-06 
-1.5803222e-07 4.1699997e-07 -9.3203917e-06 
0.0000000e+00 -5.7738185e-07 0.0000000e+00 
0.0000000e+00 6.6890453e-07 0.0000000e+00 
0.0000000e+00 -1.3407883e-05 0.0000000e+00 
0.0000000e+00 -1.2299464e-05 0.0000000e+00 
0.0000000e+00 -8.7556373e-06 0.0000000e+00 
0.0000000e+00 -2.7891449e-06 0.0000000e+00 
0.0000000e+00 4.6506520e-06 0.0000000e+00 
0.0000000e+00 1.1549609e-05 0.0000000e+00 
0.0000000e+00 1.5535659e-05 0.0000000e+00 
0.0000000e+00 1.5086270e-05 0.0000000e+00 
0.0000000e+00 1.0418439e-05 0.0000000e+00 
0.0000000e+00 3.3943838e-06 0.0000000e+00 
0.0000000e+00 -3.5225100e-06 0.0000000e+00 
0.0000000e+00 -8.5243555e-06 0.0000000e+00 
0.0000000e+00 -1.1067238e-05 0.0000000e+00 
0.0000000e+00 -1.1531766e-05 0.0000000e+00 
0.0000000e+00 -1.0401181e-05 0.0000000e+00 
0.0000000e+00 -7.7464956e-06 0.0000000e+00 
0.0000000e+00 -3.4485940e-06 0.0000000e+00 
0.0000000e+00 2.1147234e-06 0.0000000e+00 
0.0000000e+00 7.6338029e-06 0.0000000e+00 
0.0000000e+00 1.1223629e-05 0.0000000e+00 
0.0000000e+00 1.1449887e-05 0.0000000e+00 
0.0000000e+00 8.2960460e-06 0.0000000e+00 
0.0000000e+00 3.3101617e-06 0.0000000e+00 
0.0000000e+00 -1.2374920e-06 0.0000000e+00 
0.0000000e+00 -3.6252698e-06 0.0000000e+00 
0.0000000e+00 -3.5399216e-06 0.0000000e+00 
0.0000000e+00 -2.0232435e-06 0.0000000e+00 
0.0000000e+00 -6.3670200e-07 0.0000000e+00 
0.0000000e+00 -4.5486095e-07 0.0000000e+00 
0.0000000e+00 -1.5523287e-06 0.0000000e+00 
0.0000000e+00 -3.2523362e-06 0.0000000e+00 
0.0000000e+00 -4.8097254e-06 0.0000000e+00 
0.0000000e+00 -5.8814021e-06 0.0000000e+00 
0.0000000e+00 -6.4144774e-06 0.0000000e+00 
0.0000000e+00 -6.2035601e-06 0.0000000e+00 
0.0000000e+00 -4.6955820e-06 0.0000000e+00 
0.0000000e+00 -1.3436435e-06 0.0000000e+00 
0.0000000e+00 3.7373572e-06 0.0000000e+00 
0.0000000e+00 9.3731669e-06 0.0000000e+00 
0.0000000e+00 1.3635195e-05 0.0000000e+00 
0.0000000e+00 1.4831385e-05 0.0000000e+00 
0.0000000e+00 1.2586614e-05 0.0000000e+00 
0.0000000e+00 8.1722474e-06 0.0000000e+00 
0.0000000e+00 3.7410505e-06 0.0000000e+00 
0.0000000e+00 1.0437579e-06 0.0000000e+00 
0.0000000e+00 5.9659385e-07 0.0000000e+00 
0.0000000e+00 1.7283787e-06 0.0000000e+00 
0.0000000e+00 3.1906754e-06 0.0000000e+00 
0.0000000e+00 3.8581438e-06 0.0000000e+00 
0.0000000e+00 3.2749465e-06 0.0000000e+00 
7.3872902e-06 6.8432360e-07 -4.7575713e-06 
1.2669857e-06 7.5598047e-07 6.7474673e-07 
-2.7621766e-06 2.4419137e-06 4.6839300e-06 
-5.5465657e-06 5.8723654e-06 1.0789417e-05 
-2.5071799e-06 1.0863231e-05 9.5884036e-07 
-3.4470754e-06 1.6478374e-05 -3.5779940e-06 
-3.8720618e-06 2.1735737e-05 -7.5468511e-06 
-2.7572296e-06 2.5049098e-05 -1.1021965e-05 
-5.4870438e-06 2.5205347e-05 -1.0348595e-05 
-3.2353282e-06 2.1369598e-05 -1.0137936e-05 
-3.2928926e-06 1.5973113e-05 -1.4367152e-05 
-4.9143648e-07 1.4041666e-05 -2.1197056e-05 
1.6476197e-06 1.7491042e-05 -2.3528413e-05 
6.6624866e-06 2.2703054e-05 -2.3290415e-05 
8.0553809e-06 2.3729530e-05 -1.7907360e-05 
5.2355422e-06 1.6913724e-05 -9.1866841e-06 
1.2361190e-06 7.4163304e-06 -3.6032575e-06 
1.3677744e-06 4.5098441e-06 -4.1276367e-06 
-6.9544467e-07 1.1898674e-05 -1.3535106e-06 
6.7242695e-06 2.4116351e-05 5.4294678e-06 
7.2644439e-06 2.6773927e-05 1.8782897e-05 
2.8323274e-07 1.0553395e-05 2.8389055e-05 
1.2746324e-06 -1.3053935e-05 2.6667291e-05 
8.5244727e-07 -1.4062342e-05 2.8689516e-05 
-3.0134347e-06 1.7582706e-05 3.2339780e-05 
-7.5950647e-06 5.9106485e-05 2.6804377e-05 
6.9840726e-06 7.7262761e-05 2.1749782e-05 
1.2117936e-05 5.7149879e-05 3.3430646e-05 
-3.7749442e-06 1.6583263e-05 4.8667254e-05 
-9.6911199e-06 -1.4402201e-05 6.2153034e-05 
-1.1839446e-05 -5.4832082e-05 1.0368300e-04 
-1.3719685e-05 -2.0529192e-04 9.8205805e-05 
-5.3088443e-05 -6.1765534e-04 1.5342543e-04 
-1.8642799e-04 -1.3999690e-03 2.9277004e-04 
-1.5621705e-04 -2.4886604e-03 2.1483128e-04 
-1.8703728e-04 -3.6811535e-03 8.8222798e-05 
-2.5917165e-04 -4.6064449e-03 1.3918450e-04 
-2.6541590e-04 -4.7429074e-03 -3.8270852e-07 
-2.3216294e-04 -4.3339590e-03 -7.6821969e-05 
-2.3005322e-04 -4.0690596e-03 -7.2137540e-05 
-2.0298007e-04 -4.2151045e-03 -5.3829910e-05 
-2.2437189e-04 -4.3521780e-03 -1.5283156e-04 
-1.9003279e-04 -3.8380839e-03 -2.2351844e-04 
-1.4354859e-04 -2.6436897e-03 -1.5116466e-04 
-7.5047952e-05 -1.4467372e-03 -2.4377865e-04 
-4.5519035e-05 -5.7309127e-04 -1.2307819e-04 
6.1740684e-07 -5.3908549e-05 -1.1149824e-04 
1.5852716e-05 1.8556583e-04 -4.4580764e-05 
2.2273663e-05 2.3153095e-04 -1.2967950e-05 
1.7913932e-05 1.7733090e-04 1.0182936e-05 
8.4044568e-06 1.0754736e-04 2.6353238e-05 
3.7782675e-06 5.8619520e-05 2.2089118e-05 
-1.0960953e-06 3.3141492e-05 2.5312600e-05 
-1.5090916e-06 2.0704138e-05 2.0757545e-05 
-4.9013838e-06 1.4944181e-05 1.5790307e-05 
-6.6297021e-06 1.3971886e-05 1.3299964e-05 
-5.7061538e-06 1.6041526e-05 9.1892316e-06 
-9.3188164e-06 1.4076369e-05 5.7732332e-06 
-1.0668303e-05 6.6410757e-06 -2.5468310e-06 
-6.5994573e-06 4.3044092e-06 -6.0678726e-06 
-4.9465730e-06 1.2111786e-05 -4.0019344e-07 
-3.2687853e-06 1.8985542e-05 -7.6438010e-07 
8.2645874e-06 9.0833173e-06 -1.2310603e-07 
8.7910776e-06 -1.6161128e-05 1.1285653e-05 
2.3924779e-06 -2.9871997e-05 1.0542207e-05 
5.4990473e-06 -2.8658399e-06 1.4643525e-05 
9.4175566e-06 5.1304949e-05 2.3962297e-05 
1.0236439e-05 8.1085025e-05 2.6069618e-05 
2.8499842e-06 5.2981293e-05 4.2068823e-05 
-4.7129392e-06 -3.3448268e-05 6.1390674e-05 
-2.0591417e-05 -1.6244172e-04 9.6563272e-05 
-2.8164231e-05 -3.4993049e-04 9.6729476e-05 
-7.5166368e-05 -7.0978148e-04 1.9529110e-04 
-9.2375543e-05 -1.4228625e-03 1.3890295e-04 
-1.9383180e-04 -2.5689299e-03 2.3393844e-04 
-7.5157892e-05 -3.8793180e-03 1.0414080e-04 
-3.8882464e-04 -4.7942488e-03 1.3164064e-04 
-1.3373082e-04 -4.6801255e-03 2.0707281e-05 
-3.6017847e-04 -4.1755149e-03 -6.1764644e-05 
-1.0680837e-04 -3.9931871e-03 -8.6648150e-05 
-2.3829930e-04 -4.2734086e-03 -5.7015299e-05 
-2.6390594e-04 -4.4180606e-03 -1.6857071e-04 
-2.0795468e-04 -3.6988587e-03 -2.4202511e-04 
-1.4372215e-04 -2.4459437e-03 -1.5241282e-04 
-5.5603050e-05 -1.2831060e-03 -2.2989350e-04 
-2.3346358e-05 -4.5303686e-04 -1.0546450e-04 
1.3174808e-05 1.1616433e-05 -8.4791187e-05 
1.6704436e-05 1.8681381e-04 -2.4988592e-05 
1.8998515e-05 1.9034778e-04 4.6459431e-06 
1.5668886e-05 1.3149904e-04 1.2679652e-05 
7.6519891e-06 7.7104545e-05 2.5729925e-05 
5.1664010e-06 3.9418268e-05 2.1877755e-05 
6.6650620e-07 1.1299601e-05 1.9620775e-05 
-1.6279831e-06 -7.3880688e-06 1.5381858e-05 
-2.0180250e-06 -1.0562529e-05 1.1289685e-05 
-2.9216042e-06 -1.5062486e-06 1.0010924e-05 
-4.2012553e-06 7.8874864e-06 5.1788288e-06 
-4.3939508e-06 8.9559717e-06 2.7999504e-06 
-4.2154311e-06 3.7878003e-06 -3.6237548e-06 
0.0000000e+00 2.0258174e-06 0.0000000e+00 
0.0000000e+00 5.3096733e-06 0.0000000e+00 
0.0000000e+00 5.2288747e-06 0.0000000e+00 
0.0000000e+00 1.5422347e-06 0.0000000e+00 
0.0000000e+00 -1.4674563e-06 0.0000000e+00 
0.0000000e+00 -7.6050594e-07 0.0000000e+00 
0.0000000e+00 1.8923586e-06 0.0000000e+00 
0.0000000e+00 2.6533237e-06 0.0000000e+00 
0.0000000e+00 5.1814385e-07 0.0000000e+00 
0.0000000e+00 -1.8811262e-06 0.0000000e+00 
0.0000000e+00 -1.9876586e-06 0.0000000e+00 
0.0000000e+00 -4.1198825e-07 0.0000000e+00 
0.0000000e+00 2.8591296e-07 0.0000000e+00 
0.0000000e+00 -9.1323147e-07 0.0000000e+00 
0.0000000e+00 -2.2921301e-06 0.0000000e+00 
0.0000000e+00 -1.7490235e-06 0.0000000e+00 
0.0000000e+00 5.1213681e-07 0.0000000e+00 
0.0000000e+00 2.2785980e-06 0.0000000e+00 
0.0000000e+00 2.0238756e-06 0.0000000e+00 
0.0000000e+00 5.6520418e-07 0.0000000e+00 
0.0000000e+00 -2.0785531e-07 0.0000000e+00 
0.0000000e+00 2.7385627e-07 0.0000000e+00 
0.0000000e+00 7.5787068e-07 0.0000000e+00 
0.0000000e+00 1.1255065e-08 0.0000000e+00 
0.0000000e+00 -1.4684824e-06 0.0000000e+00 
0.0000000e+00 -2.0216910e-06 0.0000000e+00 
0.0000000e+00 -8.7637972e-07 0.0000000e+00 
0.0000000e+00 8.9626866e-07 0.0000000e+00 
0.0000000e+00 1.6250488e-06 0.0000000e+00 
0.0000000e+00 8.8847275e-07 0.0000000e+00 
0.0000000e+00 -2.1334834e-07 0.0000000e+00 
0.0000000e+00 -5.1322002e-07 0.0000000e+00 
0.0000000e+00 -8.2056282e-08 0.0000000e+00 
0.0000000e+00 1.1947358e-07 0.0000000e+00 
0.0000000e+00 -3.6806685e-07 0.0000000e+00 
0.0000000e+00 -8.8568873e-07 0.0000000e+00 
0.0000000e+00 -5.5301558e-07 0.0000000e+00 
0.0000000e+00 4.9862604e-07 0.0000000e+00 
0.0000000e+00 1.1188323e-06 0.0000000e+00 
0.0000000e+00 -1.3424778e-05 0.0000000e+00 
0.0000000e+00 -1.2306052e-05 0.0000000e+00 
0.0000000e+00 -8.7423268e-06 0.0000000e+00 
0.0000000e+00 -2.7654614e-06 0.0000000e+00 
0.0000000e+00 4.6647797e-06 0.0000000e+00 
0.0000000e+00 1.1540875e-05 0.0000000e+00 
0.0000000e+00 1.5509118e-05 0.0000000e+00 
0.0000000e+00 1.5062185e-05 0.0000000e+00 
0.0000000e+00 1.0416289e-05 0.0000000e+00 
0.0000000e+00 3.4167451e-06 0.0000000e+00 
0.0000000e+00 -3.4925417e-06 0.0000000e+00 
0.0000000e+00 -8.5094116e-06 0.0000000e+00 
0.0000000e+00 -1.1077133e-05 0.0000000e+00 
0.0000000e+00 -1.1556144e-05 0.0000000e+00 
0.0000000e+00 -1.0419175e-05 0.0000000e+00 
0.0000000e+00 -7.7444274e-06 0.0000000e+00 
0.0000000e+00 -3.4308800e-06 0.0000000e+00 
0.0000000e+00 2.1297167e-06 0.0000000e+00 
0.0000000e+00 7.6292508e-06 0.0000000e+00 
0.0000000e+00 1.1198894e-05 0.0000000e+00 
0.0000000e+00 1.1422315e-05 0.0000000e+00 
0.0000000e+00 8.2877559e-06 0.0000000e+00 
0.0000000e+00 3.3305737e-06 0.0000000e+00 
0.0000000e+00 -1.1986895e-06 0.0000000e+00 
0.0000000e+00 -3.5898913e-06 0.0000000e+00 
0.0000000e+00 -3.5261864e-06 0.0000000e+00 
0.0000000e+00 -2.0352882e-06 0.0000000e+00 
0.0000000e+00 -6.6380545e-07 0.0000000e+00 
0.0000000e+00 -4.7945713e-07 0.0000000e+00 
0.0000000e+00 -1.5625209e-06 0.0000000e+00 
0.0000000e+00 -3.2504765e-06 0.0000000e+00 
0.0000000e+00 -4.8084862e-06 0.0000000e+00 
0.0000000e+00 -5.8896640e-06 0.0000000e+00 
0.0000000e+00 -6.4276719e-06 0.0000000e+00 
0.0000000e+00 -6.2089184e-06 0.0000000e+00 
0.0000000e+00 -4.6854434e-06 0.0000000e+00 
0.0000000e+00 -1.3226633e-06 0.0000000e+00 
0.0000000e+00 3.7555010e-06 0.0000000e+00 
0.0000000e+00 9.3748486e-06 0.0000000e+00 
0.0000000e+00 1.3617466e-05 0.0000000e+00 
0.0000000e+00 1.4808429e-05 0.0000000e+00 
0.0000000e+00 1.2582148e-05 0.0000000e+00 
0.0000000e+00 8.1986545e-06 0.0000000e+00 
0.0000000e+00 3.7863915e-06 0.0000000e+00 
0.0000000e+00 1.0837654e-06 0.0000000e+00 
0.0000000e+00 6.1690719e-07 0.0000000e+00 
0.0000000e+00 1.7296559e-06 0.0000000e+00 
0.0000000e+00 3.1773741e-06 0.0000000e+00 
0.0000000e+00 3.8338048e-06 0.0000000e+00 
0.0000000e+00 3.2471573e-06 0.0000000e+00 
0.0000000e+00 1.8570488e-06 0.0000000e+00 
0.0000000e+00 7.2043417e-07 0.0000000e+00 
0.0000000e+00 7.8350251e-07 0.0000000e+00 
0.0000000e+00 2.4589428e-06 0.0000000e+00 
0.0000000e+00 5.8915793e-06 0.0000000e+00 
0.0000000e+00 1.0843504e-05 0.0000000e+00 
0.0000000e+00 1.6492080e-05 0.0000000e+00 
0.0000000e+00 2.1744205e-05 0.0000000e+00 
0.0000000e+00 2.5085430e-05 0.0000000e+00 
0.0000000e+00 2.5136122e-05 0.0000000e+00 
0.0000000e+00 2.1284755e-05 0.0000000e+00 
0.0000000e+00 1.6031248e-05 0.0000000e+00 
0.0000000e+00 1.4197393e-05 0.0000000e+00 
0.0000000e+00 1.7648166e-05 0.0000000e+00 
0.0000000e+00 2.2744927e-05 0.0000000e+00 
0.0000000e+00 2.3444753e-05 0.0000000e+00 
0.0000000e+00 1.6712173e-05 0.0000000e+00 
0.0000000e+00 7.5091675e-06 0.0000000e+00 
0.0000000e+00 4.7528915e-06 0.0000000e+00 
0.0000000e+00 1.2366577e-05 0.0000000e+00 
0.0000000e+00 2.4221003e-05 0.0000000e+00 
0.0000000e+00 2.6101137e-05 0.0000000e+00 
0.0000000e+00 9.6010199e-06 0.0000000e+00 
0.0000000e+00 -1.2713604e-05 0.0000000e+00 
0.0000000e+00 -1.2883379e-05 0.0000000e+00 
0.0000000e+00 1.8377803e-05 0.0000000e+00 
0.0000000e+00 5.8797857e-05 0.0000000e+00 
0.0000000e+00 7.6157914e-05 0.0000000e+00 
0.0000000e+00 5.6370522e-05 0.0000000e+00 
0.0000000e+00 1.7675864e-05 0.0000000e+00 
0.0000000e+00 -1.1858190e-05 0.0000000e+00 
0.0000000e+00 -5.2124185e-05 0.0000000e+00 
0.0000000e+00 -2.0540472e-04 0.0000000e+00 
0.0000000e+00 -6.2363729e-04 0.0000000e+00 
0.0000000e+00 -1.4057863e-03 0.0000000e+00 
0.0000000e+00 -2.4963338e-03 0.0000000e+00 
0.0000000e+00 -3.6976752e-03 0.0000000e+00 
0.0000000e+00 -4.6275826e-03 0.0000000e+00 
0.0000000e+00 -4.7766576e-03 0.0000000e+00 
0.0000000e+00 -4.3589752e-03 0.0000000e+00 
0.0000000e+00 -4.0941536e-03 0.0000000e+00 
0.0000000e+00 -4.2329305e-03 0.0000000e+00 
0.0000000e+00 -4.3800143e-03 0.0000000e+00 
0.0000000e+00 -3.8619922e-03 0.0000000e+00 
0.0000000e+00 -2.6652503e-03 0.0000000e+00 
0.0000000e+00 -1.4557759e-03 0.0000000e+00 
0.0000000e+00 -5.7618000e-04 0.0000000e+00 
0.0000000e+00 -5.4346179e-05 0.0000000e+00 
0.0000000e+00 1.8542087e-04 0.0000000e+00 
0.0000000e+00 2.3231732e-04 0.0000000e+00 
0.0000000e+00 1.7955647e-04 0.0000000e+00 
0.0000000e+00 1.0862986e-04 0.0000000e+00 
0.0000000e+00 5.8638674e-05 0.0000000e+00 
0.0000000e+00 3.2866436e-05 0.0000000e+00 
0.0000000e+00 2.0809184e-05 0.0000000e+00 
0.0000000e+00 1.5180103e-05 0.0000000e+00 
0.0000000e+00 1.4137039e-05 0.0000000e+00 
0.0000000e+00 1.5642812e-05 0.0000000e+00 
0.0000000e+00 1.3523853e-05 0.0000000e+00 
0.0000000e+00 6.8617514e-06 0.0000000e+00 
0.0000000e+00 4.9527594e-06 0.0000000e+00 
0.0000000e+00 1.2504225e-05 0.0000000e+00 
0.0000000e+00 1.8578479e-05 0.0000000e+00 
0.0000000e+00 7.9666715e-06 0.0000000e+00 
0.0000000e+00 -1.6697062e-05 0.0000000e+00 
0.0000000e+00 -2.8518120e-05 0.0000000e+00 
0.0000000e+00 -1.2631818e-06 0.0000000e+00 
0.0000000e+00 5.1260198e-05 0.0000000e+00 
0.0000000e+00 8.0286736e-05 0.0000000e+00 
0.0000000e+00 5.1833293e-05 0.0000000e+00 
0.0000000e+00 -3.3210905e-05 0.0000000e+00 
0.0000000e+00 -1.5917237e-04 0.0000000e+00 
0.0000000e+00 -3.4662511e-04 0.0000000e+00 
0.0000000e+00 -7.1174465e-04 0.0000000e+00 
0.0000000e+00 -1.4348219e-03 0.0000000e+00 
0.0000000e+00 -2.5806869e-03 0.0000000e+00 
0.0000000e+00 -3.9002318e-03 0.0000000e+00 
0.0000000e+00 -4.8146369e-03 0.0000000e+00 
0.0000000e+00 -4.7088889e-03 0.0000000e+00 
0.0000000e+00 -4.1986885e-03 0.0000000e+00 
0.0000000e+00 -4.0205568e-03 0.0000000e+00 
0.0000000e+00 -4.2946935e-03 0.0000000e+00 
0.0000000e+00 -4.4468711e-03 0.0000000e+00 
0.0000000e+00 -3.7205047e-03 0.0000000e+00 
0.0000000e+00 -2.4630192e-03 0.0000000e+00 
0.0000000e+00 -1.2900310e-03 0.0000000e+00 
0.0000000e+00 -4.5687225e-04 0.0000000e+00 
0.0000000e+00 1.0491407e-05 0.0000000e+00 
0.0000000e+00 1.8788298e-04 0.0000000e+00 
0.0000000e+00 1.9219021e-04 0.0000000e+00 
0.0000000e+00 1.3322245e-04 0.0000000e+00 
0.0000000e+00 7.7486322e-05 0.0000000e+00 
0.0000000e+00 3.9179791e-05 0.0000000e+00 
0.0000000e+00 1.1276607e-05 0.0000000e+00 
0.0000000e+00 -6.9816401e-06 0.0000000e+00 
0.0000000e+00 -1.0399285e-05 0.0000000e+00 
0.0000000e+00 -1.7647801e-06 0.0000000e+00 
0.0000000e+00 7.5356206e-06 0.0000000e+00 
0.0000000e+00 8.8849647e-06 0.0000000e+00 
0.0000000e+00 4.0310824e-06 0.0000000e+00 
0.0000000e+00 5.7891344e-07 0.0000000e+00 
0.0000000e+00 2.0034522e-06 0.0000000e+00 
0.0000000e+00 5.1388424e-06 0.0000000e+00 
0.0000000e+00 5.1449047e-06 0.0000000e+00 
0.0000000e+00 1.6429943e-06 0.0000000e+00 
0.0000000e+00 -1.3245307e-06 0.0000000e+00 
0.0000000e+00 -7.5299755e-07 0.0000000e+00 
0.0000000e+00 1.7747300e-06 0.0000000e+00 
0.0000000e+00 2.5712197e-06 0.0000000e+00 
0.0000000e+00 5.6644438e-07 0.0000000e+00 
0.0000000e+00 -1.7795510e-06 0.0000000e+00 
0.0000000e+00 -1.9652871e-06 0.0000000e+00 
0.0000000e+00 -4.8882896e-07 0.0000000e+00 
0.0000000e+00 2.1294798e-07 0.0000000e+00 
0.0000000e+00 -8.9473860e-07 0.0000000e+00 
0.0000000e+00 -2.2136469e-06 0.0000000e+00 
0.0000000e+00 -1.7104700e-06 0.0000000e+00 
0.0000000e+00 4.6911245e-07 0.0000000e+00 
0.0000000e+00 2.2143374e-06 0.0000000e+00 
0.0000000e+00 2.0179446e-06 0.0000000e+00 
0.0000000e+00 6.1859788e-07 0.0000000e+00 
0.0000000e+00 -1.6658275e-07 0.0000000e+00 
0.0000000e+00 2.5251518e-07 0.0000000e+00 
0.0000000e+00 7.0434294e-07 0.0000000e+00 
0.0000000e+00 -6.3843424e-09 0.0000000e+00 
0.0000000e+00 -1.4296638e-06 0.0000000e+00 
0.0000000e+00 -1.9742854e-06 0.0000000e+00 
0.0000000e+00 -8.7478355e-07 0.0000000e+00 
0.0000000e+00 8.5444765e-07 0.0000000e+00 
0.0000000e+00 1.5901367e-06 0.0000000e+00 
0.0000000e+00 8.9659312e-07 0.0000000e+00 
0.0000000e+00 -1.7856949e-07 0.0000000e+00 
0.0000000e+00 -4.9523999e-07 0.0000000e+00 
0.0000000e+00 -9.8981744e-08 0.0000000e+00 
0.0000000e+00 9.2427186e-08 0.0000000e+00 
0.0000000e+00 -3.7054153e-07 0.0000000e+00 
0.0000000e+00 -8.6031201e-07 0.0000000e+00 
0.0000000e+00 -5.3002231e-07 0.0000000e+00 
0.0000000e+00 4.9282181e-07 0.0000000e+00 
0.0000000e+00 1.0948670e-06 0.0000000e+00 
0.0000000e+00 0.0000000e+00 0.0000000e+00 
0.0000000e+00 0.0000000e+00 0.0000000e+00 
0.0000000e+00 0.0000000e+00 0.0000000e+00 
0.0000000e+00 0.0000000e+00 0.0000000e+00 
0.0000000e+00 0.0000000e+00 0.0000000e+00 
0.0000000e+00 0.0000000e+00 0.0000000e+00 
0.0000000e+00 0.0000000e+00 0.0000000e+00 
0.0000000e+00 0.0000000e+00 0.0000000e+00 
0.0000000e+00 0.0000000e+00 0.0000000e+00 
0.0000000e+00 0.0000000e+00 0.0000000e+00 
0.0000000e+00 0.0000000e+00 0.0000000e+00 
0.0000000e+00 0.0000000e+00 0.0000000e+00 
0.0000000e+00 0.0000000e+00 0.0000000e+00 
0.0000000e+00 0.0000000e+00 0.0000000e+00 
0.0000000e+00 0.0000000e+00 0.0000000e+00 
0.0000000e+00 0.0000000e+00 0.0000000e+00 
0.0000000e+00 0.0000000e+00 0.0000000e+00 
0.0000000e+00 0.0000000e+00 0.0000000e+00 
0.0000000e+00 0.0000000e+00 0.0000000e+00 
0.0000000e+00 0.0000000e+00 0.0000000e+00 
0.0000000e+00 0.0000000e+00 0.0000000e+00 
0.0000000e+00 0.0000000e+00 0.0000000e+00 
0.0000000e+00 0.0000000e+00 0.0000000e+00 
0.0000000e+00 0.0000000e+00 0.0000000e+00 
0.0000000e+00 0.0000000e+00 0.0000000e+00 
0.0000000e+00 0.0000000e+00 0.0000000e+00 
0.0000000e+00 0.0000000e+00 0.0000000e+00 
0.0000000e+00 0.0000000e+00 0.0000000e+00 
0.0000000e+00 0.0000000e+00 0.0000000e+00 
0.0000000e+00 0.0000000e+00 0.0000000e+00 
0.0000000e+00 0.0000000e+00 0.0000000e+00 
0.0000000e+00 0.0000000e+00 0.0000000e+00 
0.0000000e+00 0.0000000e+00 0.0000000e+00 
0.0000000e+00 0.0000000e+00 0.0000000e+00 
0.0000000e+00 0.0000000e+00 0.0000000e+00 
0.0000000e+00 0.0000000e+00 0.0000000e+00 
0.0000000e+00 0.0000000e+00 0.0000000e+00 
0.0000000e+00 0.0000000e+00 0.0000000e+00 
0.0000000e+00 0.0000000e+00 0.0000000e+00 
0.0000000e+00 0.0000000e+00 0.0000000e+00 
0.0000000e+00 0.0000000e+00 0.0000000e+00 
0.0000000e+00 0.0000000e+00 0.0000000e+00 
0.0000000e+00 0.0000000e+00 0.0000000e+00 
0.0000000e+00 0.0000000e+00 0.0000000e+00 
0.0000000e+00 0.0000000e+00 0.0000000e+00 
0.0000000e+00 0.0000000e+00 0.0000000e+00 
0.0000000e+00 0.0000000e+00 0.0000000e+00 
0.0000000e+00 0.0000000e+00 0.0000000e+00 
0.0000000e+00 0.0000000e+00 0.0000000e+00 
0.0000000e+00 0.0000000e+00 0.0000000e+00 
0.0000000e+00 0.0000000e+00 0.0000000e+00 
0.0000000e+00 0.0000000e+00 0.0000000e+00 
0.0000000e+00 0.0000000e+00 0.0000000e+00 
0.0000000e+00 0.0000000e+00 0.0000000e+00 
0.0000000e+00 0.0000000e+00 0.0000000e+00 
0.0000000e+00 0.0000000e+00 0.0000000e+00 
0.0000000e+00 0.0000000e+00 0.0000000e+00 
0.0000000e+00 0.0000000e+00 0.0000000e+00 