# vtk DataFile Version 4.0
vtk output
ASCII
DATASET UNSTRUCTURED_GRID
POINTS 2186 float
0.0000000e+00 0.0000000e+00 0.0000000e+00 
0.0000000e+00 0.0000000e+00 5.0000000e+01 
5.0000000e+00 0.0000000e+00 0.0000000e+00 
5.0000000e+00 0.0000000e+00 5.0000000e+01 
5.0000000e+00 1.0000000e+00 0.0000000e+00 
5.0000000e+00 1.0000000e+00 5.0000000e+01 
0.0000000e+00 1.0000000e+00 0.0000000e+00 
0.0000000e+00 1.0000000e+00 5.0000000e+01 
5.0000000e+00 2.0000000e+00 0.0000000e+00 
5.0000000e+00 2.0000000e+00 5.0000000e+01 
3.0000000e+00 2.0000000e+00 0.0000000e+00 
3.0000000e+00 2.0000000e+00 5.0000000e+01 
0.0000000e+00 2.0000000e+00 0.0000000e+00 
0.0000000e+00 2.0000000e+00 5.0000000e+01 
1.5000000e+00 3.0000000e+00 0.0000000e+00 
1.5000000e+00 3.0000000e+00 5.0000000e+01 
7.5000000e-01 3.0000000e+00 0.0000000e+00 
7.5000000e-01 3.0000000e+00 5.0000000e+01 
0.0000000e+00 3.0000000e+00 0.0000000e+00 
0.0000000e+00 3.0000000e+00 5.0000000e+01 
7.5000000e-01 3.0000000e+00 -2.5000000e+01 
7.5000000e-01 3.0000000e+00 -2.4500000e+01 
7.5000000e-01 3.0000000e+00 -2.4000000e+01 
7.5000000e-01 3.0000000e+00 -2.3500000e+01 
7.5000000e-01 3.0000000e+00 -2.3000000e+01 
7.5000000e-01 3.0000000e+00 -2.2500000e+01 
7.5000000e-01 3.0000000e+00 -2.2000000e+01 
7.5000000e-01 3.0000000e+00 -2.1500000e+01 
7.5000000e-01 3.0000000e+00 -2.1000000e+01 
7.5000000e-01 3.0000000e+00 -2.0500000e+01 
7.5000000e-01 3.0000000e+00 -2.0000000e+01 
7.5000000e-01 3.0000000e+00 -1.9500000e+01 
7.5000000e-01 3.0000000e+00 -1.9000000e+01 
7.5000000e-01 3.0000000e+00 -1.8500000e+01 
7.5000000e-01 3.0000000e+00 -1.8000000e+01 
7.5000000e-01 3.0000000e+00 -1.7500000e+01 
7.5000000e-01 3.0000000e+00 -1.7000000e+01 
7.5000000e-01 3.0000000e+00 -1.6500000e+01 
7.5000000e-01 3.0000000e+00 -1.6000000e+01 
7.5000000e-01 3.0000000e+00 -1.5500000e+01 
7.5000000e-01 3.0000000e+00 -1.5000000e+01 
7.5000000e-01 3.0000000e+00 -1.4500000e+01 
7.5000000e-01 3.0000000e+00 -1.4000000e+01 
7.5000000e-01 3.0000000e+00 -1.3500000e+01 
7.5000000e-01 3.0000000e+00 -1.3000000e+01 
7.5000000e-01 3.0000000e+00 -1.2500000e+01 
7.5000000e-01 3.0000000e+00 -1.2000000e+01 
7.5000000e-01 3.0000000e+00 -1.1500000e+01 
7.5000000e-01 3.0000000e+00 -1.1000000e+01 
7.5000000e-01 3.0000000e+00 -1.0500000e+01 
7.5000000e-01 3.0000000e+00 -1.0000000e+01 
7.5000000e-01 3.0000000e+00 -9.5000000e+00 
7.5000000e-01 3.0000000e+00 -9.0000000e+00 
7.5000000e-01 3.0000000e+00 -8.5000000e+00 
7.5000000e-01 3.0000000e+00 -8.0000000e+00 
7.5000000e-01 3.0000000e+00 -7.5000000e+00 
7.5000000e-01 3.0000000e+00 -7.0000000e+00 
7.5000000e-01 3.0000000e+00 -6.5000000e+00 
7.5000000e-01 3.0000000e+00 -6.0000000e+00 
7.5000000e-01 3.0000000e+00 -5.5000000e+00 
7.5000000e-01 3.0000000e+00 -5.0000000e+00 
7.5000000e-01 3.0000000e+00 -4.5000000e+00 
7.5000000e-01 3.0000000e+00 -4.0000000e+00 
7.5000000e-01 3.0000000e+00 -3.5000000e+00 
7.5000000e-01 3.0000000e+00 -3.0000000e+00 
7.5000000e-01 3.0000000e+00 -2.5000000e+00 
7.5000000e-01 3.0000000e+00 -2.0000000e+00 
7.5000000e-01 3.0000000e+00 -1.5000000e+00 
7.5000000e-01 3.0000000e+00 -1.0000000e+00 
7.5000000e-01 3.0000000e+00 -5.0000000e-01 
7.5000000e-01 3.0000000e+00 5.0000000e-01 
7.5000000e-01 3.0000000e+00 1.0000000e+00 
7.5000000e-01 3.0000000e+00 1.5000000e+00 
7.5000000e-01 3.0000000e+00 2.0000000e+00 
7.5000000e-01 3.0000000e+00 2.5000000e+00 
7.5000000e-01 3.0000000e+00 3.0000000e+00 
7.5000000e-01 3.0000000e+00 3.5000000e+00 
7.5000000e-01 3.0000000e+00 4.0000000e+00 
7.5000000e-01 3.0000000e+00 4.5000000e+00 
7.5000000e-01 3.0000000e+00 5.0000000e+00 
7.5000000e-01 3.0000000e+00 5.5000000e+00 
7.5000000e-01 3.0000000e+00 6.0000000e+00 
7.5000000e-01 3.0000000e+00 6.5000000e+00 
7.5000000e-01 3.0000000e+00 7.0000000e+00 
7.5000000e-01 3.0000000e+00 7.5000000e+00 
7.5000000e-01 3.0000000e+00 8.0000000e+00 
7.5000000e-01 3.0000000e+00 8.5000000e+00 
7.5000000e-01 3.0000000e+00 9.0000000e+00 
7.5000000e-01 3.0000000e+00 9.5000000e+00 
7.5000000e-01 3.0000000e+00 1.0000000e+01 
7.5000000e-01 3.0000000e+00 1.0500000e+01 
7.5000000e-01 3.0000000e+00 1.1000000e+01 
7.5000000e-01 3.0000000e+00 1.1500000e+01 
7.5000000e-01 3.0000000e+00 1.2000000e+01 
7.5000000e-01 3.0000000e+00 1.2500000e+01 
7.5000000e-01 3.0000000e+00 1.3000000e+01 
7.5000000e-01 3.0000000e+00 1.3500000e+01 
7.5000000e-01 3.0000000e+00 1.4000000e+01 
7.5000000e-01 3.0000000e+00 1.4500000e+01 
7.5000000e-01 3.0000000e+00 1.5000000e+01 
7.5000000e-01 3.0000000e+00 1.5500000e+01 
7.5000000e-01 3.0000000e+00 1.6000000e+01 
7.5000000e-01 3.0000000e+00 1.6500000e+01 
7.5000000e-01 3.0000000e+00 1.7000000e+01 
7.5000000e-01 3.0000000e+00 1.7500000e+01 
7.5000000e-01 3.0000000e+00 1.8000000e+01 
7.5000000e-01 3.0000000e+00 1.8500000e+01 
7.5000000e-01 3.0000000e+00 1.9000000e+01 
7.5000000e-01 3.0000000e+00 1.9500000e+01 
7.5000000e-01 3.0000000e+00 2.0000000e+01 
7.5000000e-01 3.0000000e+00 2.0500000e+01 
7.5000000e-01 3.0000000e+00 2.1000000e+01 
7.5000000e-01 3.0000000e+00 2.1500000e+01 
7.5000000e-01 3.0000000e+00 2.2000000e+01 
7.5000000e-01 3.0000000e+00 2.2500000e+01 
7.5000000e-01 3.0000000e+00 2.3000000e+01 
7.5000000e-01 3.0000000e+00 2.3500000e+01 
7.5000000e-01 3.0000000e+00 2.4000000e+01 
7.5000000e-01 3.0000000e+00 2.4500000e+01 
7.5000000e-01 3.0000000e+00 2.5000000e+01 
7.5000000e-01 3.0000000e+00 2.5500000e+01 
7.5000000e-01 3.0000000e+00 2.6000000e+01 
7.5000000e-01 3.0000000e+00 2.6500000e+01 
7.5000000e-01 3.0000000e+00 2.7000000e+01 
7.5000000e-01 3.0000000e+00 2.7500000e+01 
7.5000000e-01 3.0000000e+00 2.8000000e+01 
7.5000000e-01 3.0000000e+00 2.8500000e+01 
7.5000000e-01 3.0000000e+00 2.9000000e+01 
7.5000000e-01 3.0000000e+00 2.9500000e+01 
7.5000000e-01 3.0000000e+00 3.0000000e+01 
7.5000000e-01 3.0000000e+00 3.0500000e+01 
7.5000000e-01 3.0000000e+00 3.1000000e+01 
7.5000000e-01 3.0000000e+00 3.1500000e+01 
7.5000000e-01 3.0000000e+00 3.2000000e+01 
7.5000000e-01 3.0000000e+00 3.2500000e+01 
7.5000000e-01 3.0000000e+00 3.3000000e+01 
7.5000000e-01 3.0000000e+00 3.3500000e+01 
7.5000000e-01 3.0000000e+00 3.4000000e+01 
7.5000000e-01 3.0000000e+00 3.4500000e+01 
7.5000000e-01 3.0000000e+00 3.5000000e+01 
7.5000000e-01 3.0000000e+00 3.5500000e+01 
7.5000000e-01 3.0000000e+00 3.6000000e+01 
7.5000000e-01 3.0000000e+00 3.6500000e+01 
7.5000000e-01 3.0000000e+00 3.7000000e+01 
7.5000000e-01 3.0000000e+00 3.7500000e+01 
7.5000000e-01 3.0000000e+00 3.8000000e+01 
7.5000000e-01 3.0000000e+00 3.8500000e+01 
7.5000000e-01 3.0000000e+00 3.9000000e+01 
7.5000000e-01 3.0000000e+00 3.9500000e+01 
7.5000000e-01 3.0000000e+00 4.0000000e+01 
7.5000000e-01 3.0000000e+00 4.0500000e+01 
7.5000000e-01 3.0000000e+00 4.1000000e+01 
7.5000000e-01 3.0000000e+00 4.1500000e+01 
7.5000000e-01 3.0000000e+00 4.2000000e+01 
7.5000000e-01 3.0000000e+00 4.2500000e+01 
7.5000000e-01 3.0000000e+00 4.3000000e+01 
7.5000000e-01 3.0000000e+00 4.3500000e+01 
7.5000000e-01 3.0000000e+00 4.4000000e+01 
7.5000000e-01 3.0000000e+00 4.4500000e+01 
7.5000000e-01 3.0000000e+00 4.5000000e+01 
7.5000000e-01 3.0000000e+00 4.5500000e+01 
7.5000000e-01 3.0000000e+00 4.6000000e+01 
7.5000000e-01 3.0000000e+00 4.6500000e+01 
7.5000000e-01 3.0000000e+00 4.7000000e+01 
7.5000000e-01 3.0000000e+00 4.7500000e+01 
7.5000000e-01 3.0000000e+00 4.8000000e+01 
7.5000000e-01 3.0000000e+00 4.8500000e+01 
7.5000000e-01 3.0000000e+00 4.9000000e+01 
7.5000000e-01 3.0000000e+00 4.9500000e+01 
7.5000000e-01 3.0000000e+00 5.0500000e+01 
7.5000000e-01 3.0000000e+00 5.1000000e+01 
7.5000000e-01 3.0000000e+00 5.1500000e+01 
7.5000000e-01 3.0000000e+00 5.2000000e+01 
7.5000000e-01 3.0000000e+00 5.2500000e+01 
7.5000000e-01 3.0000000e+00 5.3000000e+01 
7.5000000e-01 3.0000000e+00 5.3500000e+01 
7.5000000e-01 3.0000000e+00 5.4000000e+01 
7.5000000e-01 3.0000000e+00 5.4500000e+01 
7.5000000e-01 3.0000000e+00 5.5000000e+01 
7.5000000e-01 3.0000000e+00 5.5500000e+01 
7.5000000e-01 3.0000000e+00 5.6000000e+01 
7.5000000e-01 3.0000000e+00 5.6500000e+01 
7.5000000e-01 3.0000000e+00 5.7000000e+01 
7.5000000e-01 3.0000000e+00 5.7500000e+01 
7.5000000e-01 3.0000000e+00 5.8000000e+01 
7.5000000e-01 3.0000000e+00 5.8500000e+01 
7.5000000e-01 3.0000000e+00 5.9000000e+01 
7.5000000e-01 3.0000000e+00 5.9500000e+01 
7.5000000e-01 3.0000000e+00 6.0000000e+01 
7.5000000e-01 3.0000000e+00 6.0500000e+01 
7.5000000e-01 3.0000000e+00 6.1000000e+01 
7.5000000e-01 3.0000000e+00 6.1500000e+01 
7.5000000e-01 3.0000000e+00 6.2000000e+01 
7.5000000e-01 3.0000000e+00 6.2500000e+01 
7.5000000e-01 3.0000000e+00 6.3000000e+01 
7.5000000e-01 3.0000000e+00 6.3500000e+01 
7.5000000e-01 3.0000000e+00 6.4000000e+01 
7.5000000e-01 3.0000000e+00 6.4500000e+01 
7.5000000e-01 3.0000000e+00 6.5000000e+01 
7.5000000e-01 3.0000000e+00 6.5500000e+01 
7.5000000e-01 3.0000000e+00 6.6000000e+01 
7.5000000e-01 3.0000000e+00 6.6500000e+01 
7.5000000e-01 3.0000000e+00 6.7000000e+01 
7.5000000e-01 3.0000000e+00 6.7500000e+01 
7.5000000e-01 3.0000000e+00 6.8000000e+01 
7.5000000e-01 3.0000000e+00 6.8500000e+01 
7.5000000e-01 3.0000000e+00 6.9000000e+01 
7.5000000e-01 3.0000000e+00 6.9500000e+01 
7.5000000e-01 3.0250001e+00 -2.5000000e+01 
7.5000000e-01 3.0250001e+00 -2.4500000e+01 
7.5000000e-01 3.0250001e+00 -2.4000000e+01 
7.5000000e-01 3.0250001e+00 -2.3500000e+01 
7.5000000e-01 3.0250001e+00 -2.3000000e+01 
7.5000000e-01 3.0250001e+00 -2.2500000e+01 
7.5000000e-01 3.0250001e+00 -2.2000000e+01 
7.5000000e-01 3.0250001e+00 -2.1500000e+01 
7.5000000e-01 3.0250001e+00 -2.1000000e+01 
7.5000000e-01 3.0250001e+00 -2.0500000e+01 
7.5000000e-01 3.0250001e+00 -2.0000000e+01 
7.5000000e-01 3.0250001e+00 -1.9500000e+01 
7.5000000e-01 3.0250001e+00 -1.9000000e+01 
7.5000000e-01 3.0250001e+00 -1.8500000e+01 
7.5000000e-01 3.0250001e+00 -1.8000000e+01 
7.5000000e-01 3.0250001e+00 -1.7500000e+01 
7.5000000e-01 3.0250001e+00 -1.7000000e+01 
7.5000000e-01 3.0250001e+00 -1.6500000e+01 
7.5000000e-01 3.0250001e+00 -1.6000000e+01 
7.5000000e-01 3.0250001e+00 -1.5500000e+01 
[...]
POINT_DATA 2186
FIELD FieldData 3
DISPLACEMENT 3 2186  float
0.0000000e+00 0.0000000e+00 0.0000000e+00 
0.0000000e+00 0.0000000e+00 0.0000000e+00 
0.0000000e+00 0.0000000e+00 0.0000000e+00 
0.0000000e+00 0.0000000e+00 0.0000000e+00 
9.9196868e-06 -5.1341344e-06 -1.9052482e-06 
3.6127491e-07 -5.7302930e-08 1.6848031e-07 
0.0000000e+00 -1.7567909e-06 0.0000000e+00 
0.0000000e+00 -2.6382247e-07 0.0000000e+00 
7.0175256e-06 -8.9867408e-06 4.3612122e-06 
-3.6826048e-08 3.7276035e-07 -3.1042609e-07 
-7.5388757e-06 -1.8339006e-05 -5.8381429e-06 
-2.5572843e-08 3.8602445e-07 1.0678070e-07 
0.0000000e+00 -3.7658547e-06 0.0000000e+00 
0.0000000e+00 7.6008313e-08 0.0000000e+00 
3.4871122e-05 -4.9622853e-05 -4.7756523e-05 
9.6883048e-07 -2.4219443e-07 1.7454366e-07 
-6.8361314e-06 3.5776338e-05 -8.9429639e-05 
-1.3949098e-07 -1.8074429e-06 -1.3137652e-07 
0.0000000e+00 1.3017746e-05 0.0000000e+00 
0.0000000e+00 1.5430456e-06 0.0000000e+00 
0.0000000e+00 -3.0096642e-05 0.0000000e+00 
0.0000000e+00 -1.6900540e-05 0.0000000e+00 
0.0000000e+00 1.0397725e-05 0.0000000e+00 
0.0000000e+00 2.9726920e-05 0.0000000e+00 
0.0000000e+00 2.7237425e-05 0.0000000e+00 
0.0000000e+00 6.8839140e-06 0.0000000e+00 
0.0000000e+00 -1.4167857e-05 0.0000000e+00 
0.0000000e+00 -2.0252941e-05 0.0000000e+00 
0.0000000e+00 -9.6526182e-06 0.0000000e+00 
0.0000000e+00 5.3325557e-06 0.0000000e+00 
0.0000000e+00 1.0131824e-05 0.0000000e+00 
0.0000000e+00 1.0298929e-06 0.0000000e+00 
0.0000000e+00 -1.1696022e-05 0.0000000e+00 
0.0000000e+00 -1.3330880e-05 0.0000000e+00 
0.0000000e+00 1.3091145e-06 0.0000000e+00 
0.0000000e+00 2.1855811e-05 0.0000000e+00 
0.0000000e+00 3.0171916e-05 0.0000000e+00 
0.0000000e+00 1.5870715e-05 0.0000000e+00 
0.0000000e+00 -1.3639678e-05 0.0000000e+00 
0.0000000e+00 -3.7653517e-05 0.0000000e+00 
0.0000000e+00 -3.8083061e-05 0.0000000e+00 
0.0000000e+00 -1.3878048e-05 0.0000000e+00 
0.0000000e+00 1.7945944e-05 0.0000000e+00 
0.0000000e+00 3.5597594e-05 0.0000000e+00 
0.0000000e+00 2.9269642e-05 0.0000000e+00 
0.0000000e+00 7.6881834e-06 0.0000000e+00 
0.0000000e+00 -1.0609908e-05 0.0000000e+00 
0.0000000e+00 -1.3333103e-05 0.0000000e+00 
0.0000000e+00 -3.7831880e-06 0.0000000e+00 
0.0000000e+00 4.1371159e-06 0.0000000e+00 
0.0000000e+00 -1.7099958e-07 0.0000000e+00 
0.0000000e+00 -1.4137901e-05 0.0000000e+00 
0.0000000e+00 -2.4611401e-05 0.0000000e+00 
0.0000000e+00 -1.9834617e-05 0.0000000e+00 
0.0000000e+00 -3.7590276e-08 0.0000000e+00 
0.0000000e+00 2.2240267e-05 0.0000000e+00 
0.0000000e+00 3.2112424e-05 0.0000000e+00 
0.0000000e+00 2.4150682e-05 0.0000000e+00 
0.0000000e+00 6.1519304e-06 0.0000000e+00 
0.0000000e+00 -8.0400587e-06 0.0000000e+00 
0.0000000e+00 -9.9932831e-06 0.0000000e+00 
0.0000000e+00 -2.5171812e-06 0.0000000e+00 
0.0000000e+00 4.1066801e-06 0.0000000e+00 
0.0000000e+00 1.0730806e-06 0.0000000e+00 
0.0000000e+00 -1.2048351e-05 0.0000000e+00 
0.0000000e+00 -2.6696338e-05 0.0000000e+00 
0.0000000e+00 -3.1105454e-05 0.0000000e+00 
0.0000000e+00 -1.9096004e-05 0.0000000e+00 
0.0000000e+00 4.4717017e-06 0.0000000e+00 
0.0000000e+00 2.6672713e-05 0.0000000e+00 
5.0109895e-05 2.7507047e-05 -1.1155885e-05 
6.5964894e-05 9.3380577e-06 1.8705905e-05 
7.5147283e-05 -7.3285610e-06 5.1014173e-05 
9.0763380e-05 -2.4232493e-05 1.0906401e-04 
4.6751033e-05 -5.5213110e-05 7.8809047e-05 
-1.1639927e-05 -1.1055666e-04 9.2982664e-05 
-3.2376705e-05 -1.8407499e-04 1.0031331e-04 
-5.2518888e-05 -2.4830730e-04 9.7918542e-05 
-5.6314926e-05 -2.7334332e-04 9.4981449e-05 
-1.1721977e-04 -2.5761078e-04 6.0100607e-05 
-6.9872527e-05 -2.3559474e-04 6.0454175e-05 
-1.1659148e-04 -2.6834989e-04 5.5464112e-05 
-7.6939490e-05 -3.7095023e-04 3.9962139e-05 
-1.3324311e-04 -5.3022150e-04 5.6416011e-05 
-1.0641687e-04 -7.5548439e-04 9.7579410e-05 
-1.3246671e-04 -1.1312347e-03 5.5076460e-05 
-1.1667489e-04 -1.8119181e-03 1.4270259e-04 
-1.5225247e-04 -2.8942844e-03 3.2267060e-05 
-1.8080379e-04 -4.2196801e-03 1.1051635e-04 
-2.2538877e-04 -5.1115253e-03 -7.1300383e-05 
-1.9126821e-04 -4.9315677e-03 -1.0772053e-04 
-1.9250787e-04 -4.3704687e-03 -1.2062709e-04 
-1.5418524e-04 -4.2332006e-03 -1.3430264e-04 
-1.9578870e-04 -4.5704842e-03 -1.2473328e-04 
-2.5886964e-04 -4.8147081e-03 -8.4955798e-05 
-4.5791347e-04 -4.0270439e-03 -1.9033454e-04 
-1.4369625e-04 -2.6329490e-03 -1.3006046e-04 
-4.7643687e-05 -1.3424270e-03 -1.9204525e-05 
-2.5195004e-05 -4.4049340e-04 -7.0800452e-05 
-4.4918368e-05 4.7636950e-05 1.9670091e-05 
-5.3359050e-05 2.2007346e-04 1.6631320e-05 
-4.6672230e-05 2.1670849e-04 7.8531893e-06 
-7.2673007e-05 1.5756892e-04 -3.8676095e-05 
-3.2962955e-05 1.0121347e-04 -1.4110938e-04 
-3.8658659e-06 5.8771981e-05 -1.1348730e-04 
-2.7573749e-06 3.0002564e-05 -1.0237390e-04 
2.8702490e-05 1.8878105e-05 -9.4689480e-05 
5.4727101e-05 2.6928357e-05 -7.1926661e-05 
5.7758938e-05 4.1852843e-05 -4.2200045e-05 
6.9041314e-05 4.7159545e-05 -1.1571496e-05 
7.5271659e-05 3.0653198e-05 1.5330557e-05 
5.5495904e-05 -3.4412546e-06 3.9174869e-05 
4.0669780e-05 -3.9885275e-05 7.2486058e-05 
3.0250631e-05 -6.6021930e-05 8.3609040e-05 
3.4437788e-05 -8.4478248e-05 9.6529868e-05 
-1.1796335e-05 -1.1215366e-04 1.0195534e-04 
-5.9067052e-06 -1.6172552e-04 9.2606795e-05 
-6.8191977e-05 -2.3711266e-04 8.1999482e-05 
-5.1859213e-05 -3.0631703e-04 7.8526704e-05 
-1.1598665e-04 -3.2223490e-04 6.1539162e-05 
-6.7660971e-05 -2.7924374e-04 6.5879700e-05 
-1.2257538e-04 -2.5651237e-04 4.5800745e-05 
-9.0876427e-05 -3.2643788e-04 4.1442610e-05 
-1.1504052e-04 -5.2692083e-04 6.0104543e-05 
-1.1659602e-04 -8.5945212e-04 9.5534684e-05 
-1.5643006e-04 -1.3411709e-03 4.4268527e-05 
-1.5684370e-04 -2.0661841e-03 1.2089992e-04 
-2.0397568e-04 -3.1147248e-03 -2.0514590e-05 
-2.1043680e-04 -4.3828692e-03 3.9253504e-05 
-2.7028122e-04 -5.2336575e-03 -1.0514758e-04 
-2.4558487e-04 -4.9881483e-03 -1.7941953e-04 
-2.1041023e-04 -4.3710219e-03 -1.1204511e-04 
-1.6647155e-04 -4.1726730e-03 -8.9496418e-05 
-2.0583833e-04 -4.4412194e-03 -1.1775405e-04 
-2.3042285e-04 -4.5925439e-03 -1.2013939e-04 
-2.1153704e-04 -3.6427656e-03 -4.8089591e-05 
-1.7342919e-04 -2.2661518e-03 -1.8660967e-04 
-1.0325697e-04 -1.0555583e-03 -5.2236104e-05 
-4.9496004e-05 -2.8688496e-04 -1.0867425e-04 
-3.2140419e-05 8.4519634e-05 -2.0332225e-05 
-2.4193649e-05 1.9823186e-04 1.1729935e-05 
-3.1059153e-05 1.8732315e-04 2.2011785e-05 
-4.5592151e-05 1.3341957e-04 -5.5157643e-06 
-4.5305267e-05 7.1354989e-05 -6.3875028e-05 
5.6813747e-06 2.4466970e-05 -8.6453430e-05 
3.2391443e-05 3.4628063e-06 -9.1302536e-05 
4.7349014e-05 6.2618547e-06 -4.1907060e-05 
4.8921691e-05 1.3989907e-05 -8.8542783e-06 
1.4203453e-05 8.5467482e-06 1.9763407e-05 
2.9554546e-06 -6.3802081e-06 2.7459640e-05 
-1.1236118e-05 -1.7584449e-05 2.1839507e-05 
-1.1467228e-05 -1.8245662e-05 1.2320159e-05 
-8.6994205e-06 -1.1767450e-05 3.4532627e-06 
-4.3224713e-06 -4.9608907e-06 1.6081142e-06 
-1.2448556e-06 3.5913459e-08 -2.3397604e-06 
6.9975783e-07 4.4249182e-06 -1.1898969e-06 
1.3511594e-06 8.2857523e-06 -9.4876259e-07 
8.0835792e-07 8.8879342e-06 -2.2169831e-06 
1.1414766e-06 4.6665759e-06 3.5091071e-07 
5.0988507e-07 -1.4848767e-06 5.6197541e-07 
-1.0677553e-07 -5.2712230e-06 -6.7542139e-08 
1.1750030e-07 -4.9625787e-06 9.9559179e-07 
-4.5049975e-07 -2.0053083e-06 -1.0714963e-08 
-5.1300168e-07 9.8246085e-07 -4.9354543e-07 
-1.2670633e-07 2.6776272e-06 3.7451915e-07 
-2.8527162e-07 2.8782897e-06 -6.1224023e-07 
-1.8857737e-07 1.6749367e-06 2.3138881e-07 
4.3661373e-07 -2.6774615e-07 -1.4439165e-08 
-2.5568710e-07 -1.7878057e-06 1.1165316e-07 
0.0000000e+00 -3.1433251e-07 0.0000000e+00 
0.0000000e+00 1.5541760e-06 0.0000000e+00 
0.0000000e+00 2.3308901e-06 0.0000000e+00 
0.0000000e+00 1.4033114e-06 0.0000000e+00 
0.0000000e+00 -4.8381816e-07 0.0000000e+00 
0.0000000e+00 -1.9026588e-06 0.0000000e+00 
0.0000000e+00 -1.9257311e-06 0.0000000e+00 
0.0000000e+00 -7.3415299e-07 0.0000000e+00 
0.0000000e+00 7.4322463e-07 0.0000000e+00 
0.0000000e+00 1.6235895e-06 0.0000000e+00 
0.0000000e+00 1.5589800e-06 0.0000000e+00 
0.0000000e+00 7.1708757e-07 0.0000000e+00 
0.0000000e+00 -4.4569799e-07 0.0000000e+00 
0.0000000e+00 -1.3615067e-06 0.0000000e+00 
0.0000000e+00 -1.5326076e-06 0.0000000e+00 
0.0000000e+00 -8.1020846e-07 0.0000000e+00 
0.0000000e+00 4.0596714e-07 0.0000000e+00 
0.0000000e+00 1.3401288e-06 0.0000000e+00 
0.0000000e+00 1.3742064e-06 0.0000000e+00 
0.0000000e+00 5.2441925e-07 0.0000000e+00 
0.0000000e+00 -5.7253345e-07 0.0000000e+00 
0.0000000e+00 -1.1623549e-06 0.0000000e+00 
0.0000000e+00 -9.2799394e-07 0.0000000e+00 
0.0000000e+00 -1.5152612e-07 0.0000000e+00 
0.0000000e+00 5.7996454e-07 0.0000000e+00 
0.0000000e+00 8.1993937e-07 0.0000000e+00 
0.0000000e+00 5.1456834e-07 0.0000000e+00 
0.0000000e+00 -5.0159596e-08 0.0000000e+00 
0.0000000e+00 -4.8553295e-07 0.0000000e+00 
0.0000000e+00 -5.4096688e-07 0.0000000e+00 
0.0000000e+00 -2.3239564e-07 0.0000000e+00 
0.0000000e+00 1.8757591e-07 0.0000000e+00 
0.0000000e+00 4.0679689e-07 0.0000000e+00 
0.0000000e+00 2.8271396e-07 0.0000000e+00 
0.0000000e+00 -4.5086715e-08 0.0000000e+00 
0.0000000e+00 -2.7487712e-07 0.0000000e+00 
0.0000000e+00 -2.1511366e-07 0.0000000e+00 
0.0000000e+00 3.6051890e-08 0.0000000e+00 
0.0000000e+00 1.8216434e-07 0.0000000e+00 
0.0000000e+00 -2.9632805e-05 0.0000000e+00 
0.0000000e+00 -1.6681524e-05 0.0000000e+00 
0.0000000e+00 1.0133924e-05 0.0000000e+00 
0.0000000e+00 2.9182995e-05 0.0000000e+00 
0.0000000e+00 2.6861893e-05 0.0000000e+00 
0.0000000e+00 6.9826851e-06 0.0000000e+00 
0.0000000e+00 -1.3692556e-05 0.0000000e+00 
0.0000000e+00 -1.9816669e-05 0.0000000e+00 
0.0000000e+00 -9.6320682e-06 0.0000000e+00 
0.0000000e+00 4.9205537e-06 0.0000000e+00 
0.0000000e+00 9.6442564e-06 0.0000000e+00 
0.0000000e+00 8.9521342e-07 0.0000000e+00 
0.0000000e+00 -1.1343376e-05 0.0000000e+00 
0.0000000e+00 -1.2774076e-05 0.0000000e+00 
0.0000000e+00 1.5975057e-06 0.0000000e+00 
0.0000000e+00 2.1612606e-05 0.0000000e+00 
0.0000000e+00 2.9577131e-05 0.0000000e+00 
0.0000000e+00 1.5407106e-05 0.0000000e+00 
0.0000000e+00 -1.3590206e-05 0.0000000e+00 
0.0000000e+00 -3.7130481e-05 0.0000000e+00 
0.0000000e+00 -3.7510679e-05 0.0000000e+00 
0.0000000e+00 -1.3709901e-05 0.0000000e+00 
0.0000000e+00 1.7596043e-05 0.0000000e+00 
0.0000000e+00 3.5036624e-05 0.0000000e+00 
0.0000000e+00 2.8960843e-05 0.0000000e+00 
0.0000000e+00 7.8636767e-06 0.0000000e+00 
0.0000000e+00 -1.0134243e-05 0.0000000e+00 
0.0000000e+00 -1.2981390e-05 0.0000000e+00 
0.0000000e+00 -3.8413114e-06 0.0000000e+00 
0.0000000e+00 3.7558843e-06 0.0000000e+00 
0.0000000e+00 -5.2640195e-07 0.0000000e+00 
0.0000000e+00 -1.4177290e-05 0.0000000e+00 
0.0000000e+00 -2.4329829e-05 0.0000000e+00 
0.0000000e+00 -1.9479472e-05 0.0000000e+00 
0.0000000e+00 1.0597277e-07 0.0000000e+00 
0.0000000e+00 2.2065182e-05 0.0000000e+00 
0.0000000e+00 3.1766336e-05 0.0000000e+00 
0.0000000e+00 2.3919531e-05 0.0000000e+00 
0.0000000e+00 6.2234553e-06 0.0000000e+00 
0.0000000e+00 -7.7349823e-06 0.0000000e+00 
0.0000000e+00 -9.7072461e-06 0.0000000e+00 
0.0000000e+00 -2.4612593e-06 0.0000000e+00 
0.0000000e+00 3.9111105e-06 0.0000000e+00 
0.0000000e+00 7.6988681e-07 0.0000000e+00 
0.0000000e+00 -1.2254325e-05 0.0000000e+00 
0.0000000e+00 -2.6650412e-05 0.0000000e+00 
0.0000000e+00 -3.0822368e-05 0.0000000e+00 
0.0000000e+00 -1.8794835e-05 0.0000000e+00 
0.0000000e+00 4.5481934e-06 0.0000000e+00 
0.0000000e+00 2.6524467e-05 0.0000000e+00 
0.0000000e+00 3.5349272e-05 0.0000000e+00 
0.0000000e+00 2.7241460e-05 0.0000000e+00 
0.0000000e+00 9.7625252e-06 0.0000000e+00 
0.0000000e+00 -6.8381833e-06 0.0000000e+00 
0.0000000e+00 -2.4235394e-05 0.0000000e+00 
0.0000000e+00 -5.5557150e-05 0.0000000e+00 
0.0000000e+00 -1.1122382e-04 0.0000000e+00 
0.0000000e+00 -1.8461856e-04 0.0000000e+00 
0.0000000e+00 -2.4788125e-04 0.0000000e+00 
0.0000000e+00 -2.7198496e-04 0.0000000e+00 
0.0000000e+00 -2.5602712e-04 0.0000000e+00 
0.0000000e+00 -2.3698305e-04 0.0000000e+00 
0.0000000e+00 -2.6962749e-04 0.0000000e+00 
0.0000000e+00 -3.7111566e-04 0.0000000e+00 
0.0000000e+00 -5.2830746e-04 0.0000000e+00 
0.0000000e+00 -7.5253332e-04 0.0000000e+00 
0.0000000e+00 -1.1318913e-03 0.0000000e+00 
0.0000000e+00 -1.8199096e-03 0.0000000e+00 
0.0000000e+00 -2.9138003e-03 0.0000000e+00 
0.0000000e+00 -4.2380784e-03 0.0000000e+00 
0.0000000e+00 -5.1387316e-03 0.0000000e+00 
0.0000000e+00 -4.9542813e-03 0.0000000e+00 
0.0000000e+00 -4.3986659e-03 0.0000000e+00 
0.0000000e+00 -4.2548813e-03 0.0000000e+00 
0.0000000e+00 -4.6043326e-03 0.0000000e+00 
0.0000000e+00 -4.8408150e-03 0.0000000e+00 
0.0000000e+00 -4.0439297e-03 0.0000000e+00 
0.0000000e+00 -2.6509590e-03 0.0000000e+00 
0.0000000e+00 -1.3522132e-03 0.0000000e+00 
0.0000000e+00 -4.4450923e-04 0.0000000e+00 
0.0000000e+00 4.7069767e-05 0.0000000e+00 
0.0000000e+00 2.2147343e-04 0.0000000e+00 
0.0000000e+00 2.1906545e-04 0.0000000e+00 
0.0000000e+00 1.5896330e-04 0.0000000e+00 
0.0000000e+00 1.0137199e-04 0.0000000e+00 
0.0000000e+00 5.8794136e-05 0.0000000e+00 
0.0000000e+00 3.0361909e-05 0.0000000e+00 
0.0000000e+00 1.9229581e-05 0.0000000e+00 
0.0000000e+00 2.6706064e-05 0.0000000e+00 
0.0000000e+00 4.1757703e-05 0.0000000e+00 
0.0000000e+00 4.6981022e-05 0.0000000e+00 
0.0000000e+00 3.0472320e-05 0.0000000e+00 
0.0000000e+00 -3.5249325e-06 0.0000000e+00 
0.0000000e+00 -3.9654391e-05 0.0000000e+00 
0.0000000e+00 -6.5658474e-05 0.0000000e+00 
0.0000000e+00 -8.4357409e-05 0.0000000e+00 
0.0000000e+00 -1.1196476e-04 0.0000000e+00 
0.0000000e+00 -1.6309391e-04 0.0000000e+00 
0.0000000e+00 -2.3833718e-04 0.0000000e+00 
0.0000000e+00 -3.0544106e-04 0.0000000e+00 
0.0000000e+00 -3.1907158e-04 0.0000000e+00 
0.0000000e+00 -2.7887124e-04 0.0000000e+00 
0.0000000e+00 -2.5714052e-04 0.0000000e+00 
0.0000000e+00 -3.2834953e-04 0.0000000e+00 
0.0000000e+00 -5.2747742e-04 0.0000000e+00 
0.0000000e+00 -8.5713452e-04 0.0000000e+00 
0.0000000e+00 -1.3411950e-03 0.0000000e+00 
0.0000000e+00 -2.0713871e-03 0.0000000e+00 
0.0000000e+00 -3.1329379e-03 0.0000000e+00 
0.0000000e+00 -4.4049690e-03 0.0000000e+00 
0.0000000e+00 -5.2666264e-03 0.0000000e+00 
0.0000000e+00 -5.0069252e-03 0.0000000e+00 
0.0000000e+00 -4.3977438e-03 0.0000000e+00 
0.0000000e+00 -4.1933949e-03 0.0000000e+00 
0.0000000e+00 -4.4756462e-03 0.0000000e+00 
0.0000000e+00 -4.6157828e-03 0.0000000e+00 
0.0000000e+00 -3.6684666e-03 0.0000000e+00 
0.0000000e+00 -2.2778683e-03 0.0000000e+00 
0.0000000e+00 -1.0667136e-03 0.0000000e+00 
0.0000000e+00 -2.8922068e-04 0.0000000e+00 
0.0000000e+00 8.5715277e-05 0.0000000e+00 
0.0000000e+00 2.0017847e-04 0.0000000e+00 
0.0000000e+00 1.8861120e-04 0.0000000e+00 
0.0000000e+00 1.3364424e-04 0.0000000e+00 
0.0000000e+00 7.2130497e-05 0.0000000e+00 
0.0000000e+00 2.5089344e-05 0.0000000e+00 
0.0000000e+00 3.8600401e-06 0.0000000e+00 
0.0000000e+00 6.0043294e-06 0.0000000e+00 
0.0000000e+00 1.3190785e-05 0.0000000e+00 
0.0000000e+00 8.3939613e-06 0.0000000e+00 
0.0000000e+00 -6.0254656e-06 0.0000000e+00 
0.0000000e+00 -1.7293867e-05 0.0000000e+00 
0.0000000e+00 -1.8252940e-05 0.0000000e+00 
0.0000000e+00 -1.1951744e-05 0.0000000e+00 
0.0000000e+00 -5.0008725e-06 0.0000000e+00 
0.0000000e+00 1.0438229e-07 0.0000000e+00 
0.0000000e+00 4.4760604e-06 0.0000000e+00 
0.0000000e+00 8.2059687e-06 0.0000000e+00 
0.0000000e+00 8.7474828e-06 0.0000000e+00 
0.0000000e+00 4.6698265e-06 0.0000000e+00 
0.0000000e+00 -1.3648161e-06 0.0000000e+00 
0.0000000e+00 -5.1798866e-06 0.0000000e+00 
0.0000000e+00 -4.9551436e-06 0.0000000e+00 
0.0000000e+00 -2.0644236e-06 0.0000000e+00 
0.0000000e+00 9.5006902e-07 0.0000000e+00 
0.0000000e+00 2.6759351e-06 0.0000000e+00 
0.0000000e+00 2.8581508e-06 0.0000000e+00 
0.0000000e+00 1.6630175e-06 0.0000000e+00 
0.0000000e+00 -2.5063673e-07 0.0000000e+00 
0.0000000e+00 -1.7443283e-06 0.0000000e+00 
0.0000000e+00 -1.7779624e-06 0.0000000e+00 
0.0000000e+00 -3.1680807e-07 0.0000000e+00 
0.0000000e+00 1.5197008e-06 0.0000000e+00 
0.0000000e+00 2.2934089e-06 0.0000000e+00 
0.0000000e+00 1.3952927e-06 0.0000000e+00 
0.0000000e+00 -4.5910804e-07 0.0000000e+00 
0.0000000e+00 -1.8707456e-06 0.0000000e+00 
0.0000000e+00 -1.9124564e-06 0.0000000e+00 
0.0000000e+00 -7.4295764e-07 0.0000000e+00 
0.0000000e+00 7.2674788e-07 0.0000000e+00 
0.0000000e+00 1.6119614e-06 0.0000000e+00 
0.0000000e+00 1.5534190e-06 0.0000000e+00 
0.0000000e+00 7.1507003e-07 0.0000000e+00 
0.0000000e+00 -4.4192953e-07 0.0000000e+00 
0.0000000e+00 -1.3489414e-06 0.0000000e+00 
0.0000000e+00 -1.5167785e-06 0.0000000e+00 
0.0000000e+00 -8.0402145e-07 0.0000000e+00 
0.0000000e+00 3.9519659e-07 0.0000000e+00 
0.0000000e+00 1.3200108e-06 0.0000000e+00 
0.0000000e+00 1.3610478e-06 0.0000000e+00 
0.0000000e+00 5.2794991e-07 0.0000000e+00 
0.0000000e+00 -5.5710461e-07 0.0000000e+00 
0.0000000e+00 -1.1480391e-06 0.0000000e+00 
0.0000000e+00 -9.2403661e-07 0.0000000e+00 
0.0000000e+00 -1.5781973e-07 0.0000000e+00 
0.0000000e+00 5.6952069e-07 0.0000000e+00 
0.0000000e+00 8.1162227e-07 0.0000000e+00 
0.0000000e+00 5.1214903e-07 0.0000000e+00 
0.0000000e+00 -4.5653376e-08 0.0000000e+00 
0.0000000e+00 -4.7637903e-07 0.0000000e+00 
0.0000000e+00 -5.3291495e-07 0.0000000e+00 
0.0000000e+00 -2.3165271e-07 0.0000000e+00 
0.0000000e+00 1.7971983e-07 0.0000000e+00 
0.0000000e+00 3.9635356e-07 0.0000000e+00 
0.0000000e+00 2.7858874e-07 0.0000000e+00 
0.0000000e+00 -3.9091702e-08 0.0000000e+00 
0.0000000e+00 -2.6392757e-07 0.0000000e+00 
0.0000000e+00 -2.0885852e-07 0.0000000e+00 
0.0000000e+00 3.2453244e-08 0.0000000e+00 
0.0000000e+00 1.7333635e-07 0.0000000e+00 
0.0000000e+00 0.0000000e+00 0.0000000e+00 
0.0000000e+00 0.0000000e+00 0.0000000e+00 
0.0000000e+00 0.0000000e+00 0.0000000e+00 
0.0000000e+00 0.0000000e+00 0.0000000e+00 
0.0000000e+00 0.0000000e+00 0.0000000e+00 
0.0000000e+00 0.0000000e+00 0.0000000e+00 
0.0000000e+00 0.0000000e+00 0.0000000e+00 
0.0000000e+00 0.0000000e+00 0.0000000e+00 
0.0000000e+00 0.0000000e+00 0.0000000e+00 
0.0000000e+00 0.0000000e+00 0.0000000e+00 
0.0000000e+00 0.0000000e+00 0.0000000e+00 
0.0000000e+00 0.0000000e+00 0.0000000e+00 
0.0000000e+00 0.0000000e+00 0.0000000e+00 
0.0000000e+00 0.0000000e+00 0.0000000e+00 
0.0000000e+00 0.0000000e+00 0.0000000e+00 
0.0000000e+00 0.0000000e+00 0.0000000e+00 
0.0000000e+00 0.0000000e+00 0.0000000e+00 
0.0000000e+00 0.0000000e+00 0.0000000e+00 
0.0000000e+00 0.0000000e+00 0.0000000e+00 
0.0000000e+00 0.0000000e+00 0.0000000e+00 
0.0000000e+00 0.0000000e+00 0.0000000e+00 
0.0000000e+00 0.0000000e+00 0.0000000e+00 
0.0000000e+00 0.0000000e+00 0.0000000e+00 
0.0000000e+00 0.0000000e+00 0.0000000e+00 
0.0000000e+00 0.0000000e+00 0.0000000e+00 
0.0000000e+00 0.0000000e+00 0.0000000e+00 
0.0000000e+00 0.0000000e+00 0.0000000e+00 
0.0000000e+00 0.0000000e+00 0.0000000e+00 
0.0000000e+00 0.0000000e+00 0.0000000e+00 
0.0000000e+00 0.0000000e+00 0.0000000e+00 
0.0000000e+00 0.0000000e+00 0.0000000e+00 
0.0000000e+00 0.0000000e+00 0.0000000e+00 
0.0000000e+00 0.0000000e+00 0.0000000e+00 
0.0000000e+00 0.0000000e+00 0.0000000e+00 
0.0000000e+00 0.0000000e+00 0.0000000e+00 
0.0000000e+00 0.0000000e+00 0.0000000e+00 
0.0000000e+00 0.0000000e+00 0.0000000e+00 
0.0000000e+00 0.0000000e+00 0.0000000e+00 
0.0000000e+00 0.0000000e+00 0.0000000e+00 
0.0000000e+00 0.0000000e+00 0.0000000e+00 
0.0000000e+00 0.0000000e+00 0.0000000e+00 
0.0000000e+00 0.0000000e+00 0.0000000e+00 
0.0000000e+00 0.0000000e+00 0.0000000e+00 
0.0000000e+00 0.0000000e+00 0.0000000e+00 
0.0000000e+00 0.0000000e+00 0.0000000e+00 
0.0000000e+00 0.0000000e+00 0.0000000e+00 
0.0000000e+00 0.0000000e+00 0.0000000e+00 
0.0000000e+00 0.0000000e+00 0.0000000e+00 
0.0000000e+00 0.0000000e+00 0.0000000e+00 
0.0000000e+00 0.0000000e+00 0.0000000e+00 
0.0000000e+00 0.0000000e+00 0.0000000e+00 
0.0000000e+00 0.0000000e+00 0.0000000e+00 
0.0000000e+00 0.0000000e+00 0.0000000e+00 
0.0000000e+00 0.0000000e+00 0.0000000e+00 
0.0000000e+00 0.0000000e+00 0.0000000e+00 
0.0000000e+00 0.0000000e+00 0.0000000e+00 
0.0000000e+00 0.0000000e+00 0.0000000e+00 