# vtk DataFile Version 4.0
vtk output
ASCII
DATASET UNSTRUCTURED_GRID
POINTS 2186 float
0.0000000e+00 0.0000000e+00 0.0000000e+00 
0.0000000e+00 0.0000000e+00 5.0000000e+01 
5.0000000e+00 0.0000000e+00 0.0000000e+00 
5.0000000e+00 0.0000000e+00 5.0000000e+01 
5.0000000e+00 1.0000000e+00 0.0000000e+00 
5.0000000e+00 1.0000000e+00 5.0000000e+01 
0.0000000e+00 1.0000000e+00 0.0000000e+00 
0.0000000e+00 1.0000000e+00 5.0000000e+01 
5.0000000e+00 2.0000000e+00 0.0000000e+00 
5.0000000e+00 2.0000000e+00 5.0000000e+01 
3.0000000e+00 2.0000000e+00 0.0000000e+00 
3.0000000e+00 2.0000000e+00 5.0000000e+01 
0.0000000e+00 2.0000000e+00 0.0000000e+00 
0.0000000e+00 2.0000000e+00 5.0000000e+01 
1.5000000e+00 3.0000000e+00 0.0000000e+00 
1.5000000e+00 3.0000000e+00 5.0000000e+01 
7.5000000e-01 3.0000000e+00 0.0000000e+00 
7.5000000e-01 3.0000000e+00 5.0000000e+01 
0.0000000e+00 3.0000000e+00 0.0000000e+00 
0.0000000e+00 3.0000000e+00 5.0000000e+01 
7.5000000e-01 3.0000000e+00 -2.5000000e+01 
7.5000000e-01 3.0000000e+00 -2.4500000e+01 
7.5000000e-01 3.0000000e+00 -2.4000000e+01 
7.5000000e-01 3.0000000e+00 -2.3500000e+01 
7.5000000e-01 3.0000000e+00 -2.3000000e+01 
7.5000000e-01 3.0000000e+00 -2.2500000e+01 
7.5000000e-01 3.0000000e+00 -2.2000000e+01 
7.5000000e-01 3.0000000e+00 -2.1500000e+01 
7.5000000e-01 3.0000000e+00 -2.1000000e+01 
7.5000000e-01 3.0000000e+00 -2.0500000e+01 
7.5000000e-01 3.0000000e+00 -2.0000000e+01 
7.5000000e-01 3.0000000e+00 -1.9500000e+01 
7.5000000e-01 3.0000000e+00 -1.9000000e+01 
7.5000000e-01 3.0000000e+00 -1.8500000e+01 
7.5000000e-01 3.0000000e+00 -1.8000000e+01 
7.5000000e-01 3.0000000e+00 -1.7500000e+01 
7.5000000e-01 3.0000000e+00 -1.7000000e+01 
7.5000000e-01 3.0000000e+00 -1.6500000e+01 
7.5000000e-01 3.0000000e+00 -1.6000000e+01 
7.5000000e-01 3.0000000e+00 -1.5500000e+01 
7.5000000e-01 3.0000000e+00 -1.5000000e+01 
7.5000000e-01 3.0000000e+00 -1.4500000e+01 
7.5000000e-01 3.0000000e+00 -1.4000000e+01 
7.5000000e-01 3.0000000e+00 -1.3500000e+01 
7.5000000e-01 3.0000000e+00 -1.3000000e+01 
7.5000000e-01 3.0000000e+00 -1.2500000e+01 
7.5000000e-01 3.0000000e+00 -1.2000000e+01 
7.5000000e-01 3.0000000e+00 -1.1500000e+01 
7.5000000e-01 3.0000000e+00 -1.1000000e+01 
7.5000000e-01 3.0000000e+00 -1.0500000e+01 
7.5000000e-01 3.0000000e+00 -1.0000000e+01 
7.5000000e-01 3.0000000e+00 -9.5000000e+00 
7.5000000e-01 3.0000000e+00 -9.0000000e+00 
7.5000000e-01 3.0000000e+00 -8.5000000e+00 
7.5000000e-01 3.0000000e+00 -8.0000000e+00 
7.5000000e-01 3.0000000e+00 -7.5000000e+00 
7.5000000e-01 3.0000000e+00 -7.0000000e+00 
7.5000000e-01 3.0000000e+00 -6.5000000e+00 
7.5000000e-01 3.0000000e+00 -6.0000000e+00 
7.5000000e-01 3.0000000e+00 -5.5000000e+00 
7.5000000e-01 3.0000000e+00 -5.0000000e+00 
7.5000000e-01 3.0000000e+00 -4.5000000e+00 
7.5000000e-01 3.0000000e+00 -4.0000000e+00 
7.5000000e-01 3.0000000e+00 -3.5000000e+00 
7.5000000e-01 3.0000000e+00 -3.0000000e+00 
7.5000000e-01 3.0000000e+00 -2.5000000e+00 
7.5000000e-01 3.0000000e+00 -2.0000000e+00 
7.5000000e-01 3.0000000e+00 -1.5000000e+00 
7.5000000e-01 3.0000000e+00 -1.0000000e+00 
7.5000000e-01 3.0000000e+00 -5.0000000e-01 
7.5000000e-01 3.0000000e+00 5.0000000e-01 
7.5000000e-01 3.0000000e+00 1.0000000e+00 
7.5000000e-01 3.0000000e+00 1.5000000e+00 
7.5000000e-01 3.0000000e+00 2.0000000e+00 
7.5000000e-01 3.0000000e+00 2.5000000e+00 
7.5000000e-01 3.0000000e+00 3.0000000e+00 
7.5000000e-01 3.0000000e+00 3.5000000e+00 
7.5000000e-01 3.0000000e+00 4.0000000e+00 
7.5000000e-01 3.0000000e+00 4.5000000e+00 
7.5000000e-01 3.0000000e+00 5.0000000e+00 
7.5000000e-01 3.0000000e+00 5.5000000e+00 
7.5000000e-01 3.0000000e+00 6.0000000e+00 
7.5000000e-01 3.0000000e+00 6.5000000e+00 
7.5000000e-01 3.0000000e+00 7.0000000e+00 
7.5000000e-01 3.0000000e+00 7.5000000e+00 
7.5000000e-01 3.0000000e+00 8.0000000e+00 
7.5000000e-01 3.0000000e+00 8.5000000e+00 
7.5000000e-01 3.0000000e+00 9.0000000e+00 
7.5000000e-01 3.0000000e+00 9.5000000e+00 
7.5000000e-01 3.0000000e+00 1.0000000e+01 
7.5000000e-01 3.0000000e+00 1.0500000e+01 
7.5000000e-01 3.0000000e+00 1.1000000e+01 
7.5000000e-01 3.0000000e+00 1.1500000e+01 
7.5000000e-01 3.0000000e+00 1.2000000e+01 
7.5000000e-01 3.0000000e+00 1.2500000e+01 
7.5000000e-01 3.0000000e+00 1.3000000e+01 
7.5000000e-01 3.0000000e+00 1.3500000e+01 
7.5000000e-01 3.0000000e+00 1.4000000e+01 
7.5000000e-01 3.0000000e+00 1.4500000e+01 
7.5000000e-01 3.0000000e+00 1.5000000e+01 
7.5000000e-01 3.0000000e+00 1.5500000e+01 
7.5000000e-01 3.0000000e+00 1.6000000e+01 
7.5000000e-01 3.0000000e+00 1.6500000e+01 
7.5000000e-01 3.0000000e+00 1.7000000e+01 
7.5000000e-01 3.0000000e+00 1.7500000e+01 
7.5000000e-01 3.0000000e+00 1.8000000e+01 
7.5000000e-01 3.0000000e+00 1.8500000e+01 
7.5000000e-01 3.0000000e+00 1.9000000e+01 
7.5000000e-01 3.0000000e+00 1.9500000e+01 
7.5000000e-01 3.0000000e+00 2.0000000e+01 
7.5000000e-01 3.0000000e+00 2.0500000e+01 
7.5000000e-01 3.0000000e+00 2.1000000e+01 
7.5000000e-01 3.0000000e+00 2.1500000e+01 
7.5000000e-01 3.0000000e+00 2.2000000e+01 
7.5000000e-01 3.0000000e+00 2.2500000e+01 
7.5000000e-01 3.0000000e+00 2.3000000e+01 
7.5000000e-01 3.0000000e+00 2.3500000e+01 
7.5000000e-01 3.0000000e+00 2.4000000e+01 
7.5000000e-01 3.0000000e+00 2.4500000e+01 
7.5000000e-01 3.0000000e+00 2.5000000e+01 
7.5000000e-01 3.0000000e+00 2.5500000e+01 
7.5000000e-01 3.0000000e+00 2.6000000e+01 
7.5000000e-01 3.0000000e+00 2.6500000e+01 
7.5000000e-01 3.0000000e+00 2.7000000e+01 
7.5000000e-01 3.0000000e+00 2.7500000e+01 
7.5000000e-01 3.0000000e+00 2.8000000e+01 
7.5000000e-01 3.0000000e+00 2.8500000e+01 
7.5000000e-01 3.0000000e+00 2.9000000e+01 
7.5000000e-01 3.0000000e+00 2.9500000e+01 
7.5000000e-01 3.0000000e+00 3.0000000e+01 
7.5000000e-01 3.0000000e+00 3.0500000e+01 
7.5000000e-01 3.0000000e+00 3.1000000e+01 
7.5000000e-01 3.0000000e+00 3.1500000e+01 
7.5000000e-01 3.0000000e+00 3.2000000e+01 
7.5000000e-01 3.0000000e+00 3.2500000e+01 
7.5000000e-01 3.0000000e+00 3.3000000e+01 
7.5000000e-01 3.0000000e+00 3.3500000e+01 
7.5000000e-01 3.0000000e+00 3.4000000e+01 
7.5000000e-01 3.0000000e+00 3.4500000e+01 
7.5000000e-01 3.0000000e+00 3.5000000e+01 
7.5000000e-01 3.0000000e+00 3.5500000e+01 
7.5000000e-01 3.0000000e+00 3.6000000e+01 
7.5000000e-01 3.0000000e+00 3.6500000e+01 
7.5000000e-01 3.0000000e+00 3.7000000e+01 
7.5000000e-01 3.0000000e+00 3.7500000e+01 
7.5000000e-01 3.0000000e+00 3.8000000e+01 
7.5000000e-01 3.0000000e+00 3.8500000e+01 
7.5000000e-01 3.0000000e+00 3.9000000e+01 
7.5000000e-01 3.0000000e+00 3.9500000e+01 
7.5000000e-01 3.0000000e+00 4.0000000e+01 
7.5000000e-01 3.0000000e+00 4.0500000e+01 
7.5000000e-01 3.0000000e+00 4.1000000e+01 
7.5000000e-01 3.0000000e+00 4.1500000e+01 
7.5000000e-01 3.0000000e+00 4.2000000e+01 
7.5000000e-01 3.0000000e+00 4.2500000e+01 
7.5000000e-01 3.0000000e+00 4.3000000e+01 
7.5000000e-01 3.0000000e+00 4.3500000e+01 
7.5000000e-01 3.0000000e+00 4.4000000e+01 
7.5000000e-01 3.0000000e+00 4.4500000e+01 
7.5000000e-01 3.0000000e+00 4.5000000e+01 
7.5000000e-01 3.0000000e+00 4.5500000e+01 
7.5000000e-01 3.0000000e+00 4.6000000e+01 
7.5000000e-01 3.0000000e+00 4.6500000e+01 
7.5000000e-01 3.0000000e+00 4.7000000e+01 
7.5000000e-01 3.0000000e+00 4.7500000e+01 
7.5000000e-01 3.0000000e+00 4.8000000e+01 
7.5000000e-01 3.0000000e+00 4.8500000e+01 
7.5000000e-01 3.0000000e+00 4.9000000e+01 
7.5000000e-01 3.0000000e+00 4.9500000e+01 
7.5000000e-01 3.0000000e+00 5.0500000e+01 
7.5000000e-01 3.0000000e+00 5.1000000e+01 
7.5000000e-01 3.0000000e+00 5.1500000e+01 
7.5000000e-01 3.0000000e+00 5.2000000e+01 
7.5000000e-01 3.0000000e+00 5.2500000e+01 
7.5000000e-01 3.0000000e+00 5.3000000e+01 
7.5000000e-01 3.0000000e+00 5.3500000e+01 
7.5000000e-01 3.0000000e+00 5.4000000e+01 
7.5000000e-01 3.0000000e+00 5.4500000e+01 
7.5000000e-01 3.0000000e+00 5.5000000e+01 
7.5000000e-01 3.0000000e+00 5.5500000e+01 
7.5000000e-01 3.0000000e+00 5.6000000e+01 
7.5000000e-01 3.0000000e+00 5.6500000e+01 
7.5000000e-01 3.0000000e+00 5.7000000e+01 
7.5000000e-01 3.0000000e+00 5.7500000e+01 
7.5000000e-01 3.0000000e+00 5.8000000e+01 
7.5000000e-01 3.0000000e+00 5.8500000e+01 
7.5000000e-01 3.0000000e+00 5.9000000e+01 
7.5000000e-01 3.0000000e+00 5.9500000e+01 
7.5000000e-01 3.0000000e+00 6.0000000e+01 
7.5000000e-01 3.0000000e+00 6.0500000e+01 
7.5000000e-01 3.0000000e+00 6.1000000e+01 
7.5000000e-01 3.0000000e+00 6.1500000e+01 
7.5000000e-01 3.0000000e+00 6.2000000e+01 
7.5000000e-01 3.0000000e+00 6.2500000e+01 
7.5000000e-01 3.0000000e+00 6.3000000e+01 
7.5000000e-01 3.0000000e+00 6.3500000e+01 
7.5000000e-01 3.0000000e+00 6.4000000e+01 
7.5000000e-01 3.0000000e+00 6.4500000e+01 
7.5000000e-01 3.0000000e+00 6.5000000e+01 
7.5000000e-01 3.0000000e+00 6.5500000e+01 
7.5000000e-01 3.0000000e+00 6.6000000e+01 
7.5000000e-01 3.0000000e+00 6.6500000e+01 
7.5000000e-01 3.0000000e+00 6.7000000e+01 
7.5000000e-01 3.0000000e+00 6.7500000e+01 
7.5000000e-01 3.0000000e+00 6.8000000e+01 
7.5000000e-01 3.0000000e+00 6.8500000e+01 
7.5000000e-01 3.0000000e+00 6.9000000e+01 
7.5000000e-01 3.0000000e+00 6.9500000e+01 
7.5000000e-01 3.0250001e+00 -2.5000000e+01 
7.5000000e-01 3.0250001e+00 -2.4500000e+01 
7.5000000e-01 3.0250001e+00 -2.4000000e+01 
7.5000000e-01 3.0250001e+00 -2.3500000e+01 
7.5000000e-01 3.0250001e+00 -2.3000000e+01 
7.5000000e-01 3.0250001e+00 -2.2500000e+01 
7.5000000e-01 3.0250001e+00 -2.2000000e+01 
7.5000000e-01 3.0250001e+00 -2.1500000e+01 
7.5000000e-01 3.0250001e+00 -2.1000000e+01 
7.5000000e-01 3.0250001e+00 -2.0500000e+01 
7.5000000e-01 3.0250001e+00 -2.0000000e+01 
7.5000000e-01 3.0250001e+00 -1.9500000e+01 
7.5000000e-01 3.0250001e+00 -1.9000000e+01 
7.5000000e-01 3.0250001e+00 -1.8500000e+01 
7.5000000e-01 3.0250001e+00 -1.8000000e+01 
7.5000000e-01 3.0250001e+00 -1.7500000e+01 
7.5000000e-01 3.0250001e+00 -1.7000000e+01 
7.5000000e-01 3.0250001e+00 -1.6500000e+01 
7.5000000e-01 3.0250001e+00 -1.6000000e+01 
7.5000000e-01 3.0250001e+00 -1.5500000e+01 
[...]
POINT_DATA 2186
FIELD FieldData 3
DISPLACEMENT 3 2186  float
0.0000000e+00 0.0000000e+00 0.0000000e+00 
0.0000000e+00 0.0000000e+00 0.0000000e+00 
0.0000000e+00 0.0000000e+00 0.0000000e+00 
0.0000000e+00 0.0000000e+00 0.0000000e+00 
-2.3858970e-06 5.1272295e-06 6.2118820e-06 
4.2238563e-07 -2.8921956e-08 1.1538525e-07 
0.0000000e+00 -6.9233688e-06 0.0000000e+00 
0.0000000e+00 2.4124465e-06 0.0000000e+00 
-4.1973349e-06 3.6886786e-06 7.1206441e-06 
5.5181187e-07 1.8229241e-07 -6.0304092e-07 
-2.6223585e-08 -1.7352730e-06 -4.9747632e-07 
-4.5097039e-07 -1.1581840e-07 -6.7271469e-07 
0.0000000e+00 -3.4782531e-06 0.0000000e+00 
0.0000000e+00 3.1773518e-06 0.0000000e+00 
3.0700353e-06 1.2598306e-05 4.0969003e-06 
1.8931964e-06 5.0844969e-06 -5.7821899e-06 
2.2615238e-06 -1.9136648e-06 1.3695303e-07 
3.8325429e-06 -1.2036359e-06 1.1899198e-06 
0.0000000e+00 3.0306221e-06 0.0000000e+00 
0.0000000e+00 -2.7170686e-06 0.0000000e+00 
0.0000000e+00 9.0070262e-06 0.0000000e+00 
0.0000000e+00 7.6305760e-06 0.0000000e+00 
0.0000000e+00 3.9174997e-06 0.0000000e+00 
0.0000000e+00 -1.0418518e-06 0.0000000e+00 
0.0000000e+00 -5.7065731e-06 0.0000000e+00 
0.0000000e+00 -8.5037618e-06 0.0000000e+00 
0.0000000e+00 -8.4248404e-06 0.0000000e+00 
0.0000000e+00 -5.5395417e-06 0.0000000e+00 
0.0000000e+00 -1.0945205e-06 0.0000000e+00 
0.0000000e+00 2.9746654e-06 0.0000000e+00 
0.0000000e+00 4.9623263e-06 0.0000000e+00 
0.0000000e+00 4.2850243e-06 0.0000000e+00 
0.0000000e+00 1.8147921e-06 0.0000000e+00 
0.0000000e+00 -6.1919008e-07 0.0000000e+00 
0.0000000e+00 -1.3240450e-06 0.0000000e+00 
0.0000000e+00 2.3253047e-07 0.0000000e+00 
0.0000000e+00 3.1156758e-06 0.0000000e+00 
0.0000000e+00 5.4951629e-06 0.0000000e+00 
0.0000000e+00 5.6858944e-06 0.0000000e+00 
0.0000000e+00 3.0239203e-06 0.0000000e+00 
0.0000000e+00 -1.8519621e-06 0.0000000e+00 
0.0000000e+00 -7.3433976e-06 0.0000000e+00 
0.0000000e+00 -1.1561785e-05 0.0000000e+00 
0.0000000e+00 -1.2942754e-05 0.0000000e+00 
0.0000000e+00 -1.0627070e-05 0.0000000e+00 
0.0000000e+00 -4.7023896e-06 0.0000000e+00 
0.0000000e+00 3.6018669e-06 0.0000000e+00 
0.0000000e+00 1.1965143e-05 0.0000000e+00 
0.0000000e+00 1.7586264e-05 0.0000000e+00 
0.0000000e+00 1.8290255e-05 0.0000000e+00 
0.0000000e+00 1.3568224e-05 0.0000000e+00 
0.0000000e+00 4.9474215e-06 0.0000000e+00 
0.0000000e+00 -4.5144679e-06 0.0000000e+00 
0.0000000e+00 -1.1437264e-05 0.0000000e+00 
0.0000000e+00 -1.3607348e-05 0.0000000e+00 
0.0000000e+00 -1.1056169e-05 0.0000000e+00 
0.0000000e+00 -6.0022176e-06 0.0000000e+00 
0.0000000e+00 -1.5532763e-06 0.0000000e+00 
0.0000000e+00 2.6593279e-08 0.0000000e+00 
0.0000000e+00 -1.5756934e-06 0.0000000e+00 
0.0000000e+00 -4.7374415e-06 0.0000000e+00 
0.0000000e+00 -6.8983672e-06 0.0000000e+00 
0.0000000e+00 -6.0686625e-06 0.0000000e+00 
0.0000000e+00 -2.0544469e-06 0.0000000e+00 
0.0000000e+00 3.4815491e-06 0.0000000e+00 
0.0000000e+00 8.2034003e-06 0.0000000e+00 
0.0000000e+00 1.0452138e-05 0.0000000e+00 
0.0000000e+00 9.7295570e-06 0.0000000e+00 
0.0000000e+00 6.5150625e-06 0.0000000e+00 
0.0000000e+00 2.0681855e-06 0.0000000e+00 
7.2695207e-06 -4.9474479e-06 -6.9356443e-06 
1.1445870e-05 -6.1592482e-06 -1.0666799e-05 
1.4595502e-05 -6.3665480e-06 -1.4393645e-05 
2.1734502e-05 -8.9105597e-06 -1.0298090e-05 
1.2884540e-05 -1.4762374e-05 -2.1032743e-05 
5.3801673e-06 -2.2814747e-05 -1.8732599e-05 
5.4386478e-06 -2.9775929e-05 -9.8509990e-06 
1.0026801e-05 -2.9866967e-05 -1.1318192e-05 
1.3910468e-05 -2.4830797e-05 -1.4255410e-05 
4.8197103e-06 -2.3712701e-05 -1.9456131e-05 
1.3042510e-05 -3.2485790e-05 -8.3900131e-06 
2.9036064e-06 -4.7038702e-05 1.9556348e-06 
8.6683076e-06 -5.6974754e-05 1.1411196e-05 
-5.9224283e-07 -5.1814222e-05 1.2648412e-05 
-1.7302061e-06 -3.4486711e-05 3.7626110e-06 
2.3568248e-07 -2.1444897e-05 -1.5320224e-05 
2.3564538e-05 -2.4327368e-05 -2.7092179e-05 
1.9870849e-05 -3.5183511e-05 -1.4377118e-05 
2.7545257e-05 -2.6903937e-05 -2.0716764e-06 
2.0055802e-05 2.8637725e-05 4.2872839e-06 
2.9653689e-05 1.0835473e-04 2.1164062e-05 
2.4736040e-05 1.3565421e-04 3.3264067e-05 
3.4365246e-05 5.4800759e-05 5.1959269e-05 
2.7772983e-05 -1.4775651e-04 8.0761536e-05 
-1.8162798e-05 -4.6850462e-04 1.6391043e-04 
-1.1892796e-04 -9.5311576e-04 3.1480796e-04 
-1.0626268e-04 -1.7159394e-03 3.0387615e-04 
-1.2633018e-04 -2.8287517e-03 1.7377145e-04 
-2.3210031e-04 -4.1749710e-03 2.4684629e-04 
-2.9072943e-04 -5.1074815e-03 6.4968066e-05 
-3.1098240e-04 -4.9304701e-03 -5.9785325e-06 
-2.9189276e-04 -4.3936819e-03 -6.0635379e-05 
-3.1781325e-04 -4.2665685e-03 -8.0187718e-05 
-6.1743445e-04 -4.6207001e-03 -9.1231988e-05 
-2.5876443e-04 -4.7302349e-03 -2.2213280e-04 
-1.6591819e-04 -3.7583988e-03 -1.8245034e-04 
-8.7304361e-05 -2.3499152e-03 -3.1583282e-04 
-4.3375338e-05 -1.1153643e-03 -1.6349221e-04 
2.3365468e-05 -3.1075155e-04 -1.5537208e-04 
3.5436460e-05 8.3537241e-05 -5.7490710e-05 
4.7318146e-05 2.0232961e-04 -9.3922445e-06 
3.6153680e-05 1.8615363e-04 1.1762272e-05 
2.8944243e-05 1.2828701e-04 2.9368397e-05 
2.5694499e-05 6.4100474e-05 2.4456815e-05 
2.2430120e-05 6.1524233e-06 2.9251329e-05 
9.2093487e-06 -3.4481021e-05 2.6244294e-05 
9.8535511e-06 -5.0829425e-05 2.4053666e-05 
-1.0653930e-06 -5.1138235e-05 1.7491342e-05 
-5.2023588e-06 -4.7482255e-05 3.2598793e-06 
-6.9963007e-06 -4.1654966e-05 -1.2754528e-05 
1.0908371e-05 -3.3458047e-05 -1.9326219e-05 
1.2274721e-06 -3.2194504e-05 -1.9593761e-05 
9.5587002e-06 -4.1375228e-05 -1.0940492e-05 
8.2971528e-06 -4.8913902e-05 6.7724392e-07 
7.8904786e-06 -4.3339027e-05 8.3509049e-06 
6.1748810e-06 -2.1219861e-05 5.7935749e-06 
3.2014668e-05 2.9193579e-06 6.3778100e-07 
2.3372855e-05 6.6006323e-06 5.6099029e-06 
3.2087399e-05 -6.5896038e-06 3.4130517e-06 
2.4403904e-05 -1.5918852e-06 2.2376542e-05 
2.6143640e-05 4.3674707e-05 3.8231694e-05 
2.1000798e-05 1.0170468e-04 5.6764969e-05 
2.6357200e-05 8.1277089e-05 9.4958050e-05 
2.1576689e-05 -1.2942990e-04 1.2377261e-04 
-2.7017237e-05 -5.6605076e-04 1.7926484e-04 
-7.4486226e-05 -1.2033590e-03 1.4593205e-04 
-1.4139578e-04 -2.0603614e-03 2.5173763e-04 
-2.1454370e-04 -3.1438335e-03 8.4977313e-05 
-2.8982630e-04 -4.3423334e-03 1.7144311e-04 
-2.9469392e-04 -5.0909794e-03 3.6723690e-05 
-3.0796594e-04 -4.8493315e-03 -5.9585735e-05 
-3.2314239e-04 -4.3480787e-03 -6.6396227e-05 
-3.3507208e-04 -4.2465958e-03 -5.9745573e-05 
-2.6801854e-04 -4.5066890e-03 -1.9423447e-04 
-3.8649482e-04 -4.5381705e-03 -3.1052329e-04 
-6.8355475e-05 -3.4922617e-03 -2.4464019e-04 
-1.3842562e-04 -2.0950169e-03 -3.2169899e-04 
-1.1029667e-05 -9.5175090e-04 -1.9621506e-04 
1.4701716e-05 -2.5264238e-04 -1.5218515e-04 
2.8780398e-05 7.6741366e-05 -5.8962851e-05 
3.9441311e-05 1.8925546e-04 -4.9395862e-06 
2.9634199e-05 1.9255915e-04 2.4472674e-05 
1.5568839e-05 1.4213508e-04 4.4395605e-05 
1.1596845e-05 7.2979106e-05 3.8331385e-05 
7.2149402e-07 1.9251178e-05 4.0817955e-05 
-5.2186638e-06 -3.7724342e-06 3.5963541e-05 
-5.3402550e-06 -4.0355617e-06 3.1822674e-05 
-7.1272516e-06 5.2942138e-08 1.9520812e-05 
-1.4781135e-05 -7.7479950e-07 5.2003961e-06 
-1.0029047e-05 -2.5711922e-06 -5.4052307e-06 
-2.8708068e-06 8.8499213e-08 -1.6230482e-05 
-2.5537586e-06 4.3351006e-06 -1.3978534e-05 
4.7501867e-06 4.5299266e-06 -5.9632321e-06 
4.0487548e-06 1.0119566e-06 3.8440999e-07 
-4.7340345e-06 -1.6498236e-06 1.8131080e-06 
-4.1183071e-06 -7.4993949e-07 -2.1270730e-06 
-2.2049571e-06 1.8679237e-06 -9.0796029e-06 
-1.5758061e-06 2.6982732e-06 -9.2277278e-06 
2.1554454e-06 9.0123427e-07 -5.3366252e-06 
0.0000000e+00 -1.6854372e-06 0.0000000e+00 
0.0000000e+00 -1.3459021e-06 0.0000000e+00 
0.0000000e+00 -1.7204671e-06 0.0000000e+00 
0.0000000e+00 -2.8995826e-06 0.0000000e+00 
0.0000000e+00 -3.4050679e-06 0.0000000e+00 
0.0000000e+00 -2.2189888e-06 0.0000000e+00 
0.0000000e+00 -1.8637260e-07 0.0000000e+00 
0.0000000e+00 9.5815801e-07 0.0000000e+00 
0.0000000e+00 5.8686510e-07 0.0000000e+00 
0.0000000e+00 -2.8283935e-07 0.0000000e+00 
0.0000000e+00 -3.8606771e-07 0.0000000e+00 
0.0000000e+00 3.2451905e-07 0.0000000e+00 
0.0000000e+00 8.5783466e-07 0.0000000e+00 
0.0000000e+00 5.5848562e-07 0.0000000e+00 
0.0000000e+00 -1.2661351e-07 0.0000000e+00 
0.0000000e+00 -3.3292736e-07 0.0000000e+00 
0.0000000e+00 9.5949623e-08 0.0000000e+00 
0.0000000e+00 4.7890586e-07 0.0000000e+00 
0.0000000e+00 2.3418747e-07 0.0000000e+00 
0.0000000e+00 -3.7509159e-07 0.0000000e+00 
0.0000000e+00 -6.0871042e-07 0.0000000e+00 
0.0000000e+00 -2.0064157e-07 0.0000000e+00 
0.0000000e+00 3.2565802e-07 0.0000000e+00 
0.0000000e+00 3.3080616e-07 0.0000000e+00 
0.0000000e+00 -1.6281953e-07 0.0000000e+00 
0.0000000e+00 -5.3603839e-07 0.0000000e+00 
0.0000000e+00 -3.3707644e-07 0.0000000e+00 
0.0000000e+00 2.1812669e-07 0.0000000e+00 
0.0000000e+00 5.6333067e-07 0.0000000e+00 
0.0000000e+00 4.4827112e-07 0.0000000e+00 
0.0000000e+00 1.3403302e-07 0.0000000e+00 
0.0000000e+00 -3.6429874e-08 0.0000000e+00 
0.0000000e+00 -7.2897187e-08 0.0000000e+00 
0.0000000e+00 -2.2538194e-07 0.0000000e+00 
0.0000000e+00 -5.2523319e-07 0.0000000e+00 
0.0000000e+00 -6.3374694e-07 0.0000000e+00 
0.0000000e+00 -2.4503510e-07 0.0000000e+00 
0.0000000e+00 4.4431499e-07 0.0000000e+00 
0.0000000e+00 8.0958972e-07 0.0000000e+00 
0.0000000e+00 9.0294270e-06 0.0000000e+00 
0.0000000e+00 7.6367842e-06 0.0000000e+00 
0.0000000e+00 3.8936628e-06 0.0000000e+00 
0.0000000e+00 -1.0777536e-06 0.0000000e+00 
0.0000000e+00 -5.7207840e-06 0.0000000e+00 
0.0000000e+00 -8.4772264e-06 0.0000000e+00 
0.0000000e+00 -8.3724208e-06 0.0000000e+00 
0.0000000e+00 -5.5008204e-06 0.0000000e+00 
0.0000000e+00 -1.1031563e-06 0.0000000e+00 
0.0000000e+00 2.9183323e-06 0.0000000e+00 
0.0000000e+00 4.8940242e-06 0.0000000e+00 
0.0000000e+00 4.2522556e-06 0.0000000e+00 
0.0000000e+00 1.8424657e-06 0.0000000e+00 
0.0000000e+00 -5.4823528e-07 0.0000000e+00 
0.0000000e+00 -1.2575570e-06 0.0000000e+00 
0.0000000e+00 2.5168015e-07 0.0000000e+00 
0.0000000e+00 3.0810070e-06 0.0000000e+00 
0.0000000e+00 5.4382554e-06 0.0000000e+00 
0.0000000e+00 5.6483318e-06 0.0000000e+00 
0.0000000e+00 3.0246902e-06 0.0000000e+00 
0.0000000e+00 -1.8274833e-06 0.0000000e+00 
0.0000000e+00 -7.3265455e-06 0.0000000e+00 
0.0000000e+00 -1.1570791e-05 0.0000000e+00 
0.0000000e+00 -1.2964883e-05 0.0000000e+00 
0.0000000e+00 -1.0630349e-05 0.0000000e+00 
0.0000000e+00 -4.6694686e-06 0.0000000e+00 
0.0000000e+00 3.6505328e-06 0.0000000e+00 
0.0000000e+00 1.1986089e-05 0.0000000e+00 
0.0000000e+00 1.7553768e-05 0.0000000e+00 
0.0000000e+00 1.8221957e-05 0.0000000e+00 
0.0000000e+00 1.3512140e-05 0.0000000e+00 
0.0000000e+00 4.9464447e-06 0.0000000e+00 
0.0000000e+00 -4.4513758e-06 0.0000000e+00 
0.0000000e+00 -1.1343048e-05 0.0000000e+00 
0.0000000e+00 -1.3540726e-05 0.0000000e+00 
0.0000000e+00 -1.1063795e-05 0.0000000e+00 
0.0000000e+00 -6.0815773e-06 0.0000000e+00 
0.0000000e+00 -1.6522846e-06 0.0000000e+00 
0.0000000e+00 -3.2212522e-08 0.0000000e+00 
0.0000000e+00 -1.5697465e-06 0.0000000e+00 
0.0000000e+00 -4.6846249e-06 0.0000000e+00 
0.0000000e+00 -6.8391128e-06 0.0000000e+00 
0.0000000e+00 -6.0435736e-06 0.0000000e+00 
0.0000000e+00 -2.0812197e-06 0.0000000e+00 
0.0000000e+00 3.4270295e-06 0.0000000e+00 
0.0000000e+00 8.1712960e-06 0.0000000e+00 
0.0000000e+00 1.0466712e-05 0.0000000e+00 
0.0000000e+00 9.7646334e-06 0.0000000e+00 
0.0000000e+00 6.5393547e-06 0.0000000e+00 
0.0000000e+00 2.0975529e-06 0.0000000e+00 
0.0000000e+00 -2.0169891e-06 0.0000000e+00 
0.0000000e+00 -4.9373202e-06 0.0000000e+00 
0.0000000e+00 -6.0326174e-06 0.0000000e+00 
0.0000000e+00 -6.4105620e-06 0.0000000e+00 
0.0000000e+00 -8.9706973e-06 0.0000000e+00 
0.0000000e+00 -1.4871782e-05 0.0000000e+00 
0.0000000e+00 -2.3008710e-05 0.0000000e+00 
0.0000000e+00 -2.9585179e-05 0.0000000e+00 
0.0000000e+00 -2.9589801e-05 0.0000000e+00 
0.0000000e+00 -2.4817296e-05 0.0000000e+00 
0.0000000e+00 -2.4010706e-05 0.0000000e+00 
0.0000000e+00 -3.2892029e-05 0.0000000e+00 
0.0000000e+00 -4.7289130e-05 0.0000000e+00 
0.0000000e+00 -5.6573303e-05 0.0000000e+00 
0.0000000e+00 -5.1241444e-05 0.0000000e+00 
0.0000000e+00 -3.4425459e-05 0.0000000e+00 
0.0000000e+00 -2.1989224e-05 0.0000000e+00 
0.0000000e+00 -2.5294785e-05 0.0000000e+00 
0.0000000e+00 -3.5845420e-05 0.0000000e+00 
0.0000000e+00 -2.5347639e-05 0.0000000e+00 
0.0000000e+00 3.0987627e-05 0.0000000e+00 
0.0000000e+00 1.0842321e-04 0.0000000e+00 
0.0000000e+00 1.3456370e-04 0.0000000e+00 
0.0000000e+00 5.3431733e-05 0.0000000e+00 
0.0000000e+00 -1.4692642e-04 0.0000000e+00 
0.0000000e+00 -4.6618283e-04 0.0000000e+00 
0.0000000e+00 -9.5381180e-04 0.0000000e+00 
0.0000000e+00 -1.7210911e-03 0.0000000e+00 
0.0000000e+00 -2.8470387e-03 0.0000000e+00 
0.0000000e+00 -4.1975724e-03 0.0000000e+00 
0.0000000e+00 -5.1382920e-03 0.0000000e+00 
0.0000000e+00 -4.9512098e-03 0.0000000e+00 
0.0000000e+00 -4.4186274e-03 0.0000000e+00 
0.0000000e+00 -4.2941035e-03 0.0000000e+00 
0.0000000e+00 -4.6437029e-03 0.0000000e+00 
0.0000000e+00 -4.7600693e-03 0.0000000e+00 
0.0000000e+00 -3.7826872e-03 0.0000000e+00 
0.0000000e+00 -2.3631535e-03 0.0000000e+00 
0.0000000e+00 -1.1250776e-03 0.0000000e+00 
0.0000000e+00 -3.1397666e-04 0.0000000e+00 
0.0000000e+00 8.4368308e-05 0.0000000e+00 
0.0000000e+00 2.0426598e-04 0.0000000e+00 
0.0000000e+00 1.8786956e-04 0.0000000e+00 
0.0000000e+00 1.2885356e-04 0.0000000e+00 
0.0000000e+00 6.4351145e-05 0.0000000e+00 
0.0000000e+00 6.5527956e-06 0.0000000e+00 
0.0000000e+00 -3.3963148e-05 0.0000000e+00 
0.0000000e+00 -5.1020124e-05 0.0000000e+00 
0.0000000e+00 -5.1830193e-05 0.0000000e+00 
0.0000000e+00 -4.7484788e-05 0.0000000e+00 
0.0000000e+00 -4.0957340e-05 0.0000000e+00 
0.0000000e+00 -3.3604250e-05 0.0000000e+00 
0.0000000e+00 -3.3027805e-05 0.0000000e+00 
0.0000000e+00 -4.1650219e-05 0.0000000e+00 
0.0000000e+00 -4.8738231e-05 0.0000000e+00 
0.0000000e+00 -4.2508793e-05 0.0000000e+00 
0.0000000e+00 -2.0685189e-05 0.0000000e+00 
0.0000000e+00 2.0738375e-06 0.0000000e+00 
0.0000000e+00 5.3528511e-06 0.0000000e+00 
0.0000000e+00 -6.6384637e-06 0.0000000e+00 
0.0000000e+00 -3.6852774e-07 0.0000000e+00 
0.0000000e+00 4.6353081e-05 0.0000000e+00 
0.0000000e+00 1.0355759e-04 0.0000000e+00 
0.0000000e+00 7.8946730e-05 0.0000000e+00 
0.0000000e+00 -1.3214536e-04 0.0000000e+00 
0.0000000e+00 -5.6541176e-04 0.0000000e+00 
0.0000000e+00 -1.2043404e-03 0.0000000e+00 
0.0000000e+00 -2.0635701e-03 0.0000000e+00 
0.0000000e+00 -3.1604799e-03 0.0000000e+00 
0.0000000e+00 -4.3652412e-03 0.0000000e+00 
0.0000000e+00 -5.1255394e-03 0.0000000e+00 
0.0000000e+00 -4.8719859e-03 0.0000000e+00 
0.0000000e+00 -4.3729641e-03 0.0000000e+00 
0.0000000e+00 -4.2659859e-03 0.0000000e+00 
0.0000000e+00 -4.5401263e-03 0.0000000e+00 
0.0000000e+00 -4.5613069e-03 0.0000000e+00 
0.0000000e+00 -3.5172498e-03 0.0000000e+00 
0.0000000e+00 -2.1097613e-03 0.0000000e+00 
0.0000000e+00 -9.6001930e-04 0.0000000e+00 
0.0000000e+00 -2.5429044e-04 0.0000000e+00 
0.0000000e+00 7.8819547e-05 0.0000000e+00 
0.0000000e+00 1.9085909e-04 0.0000000e+00 
0.0000000e+00 1.9307938e-04 0.0000000e+00 
0.0000000e+00 1.4238256e-04 0.0000000e+00 
0.0000000e+00 7.3982381e-05 0.0000000e+00 
0.0000000e+00 2.0015563e-05 0.0000000e+00 
0.0000000e+00 -3.7106117e-06 0.0000000e+00 
0.0000000e+00 -4.4649805e-06 0.0000000e+00 
0.0000000e+00 -2.5533237e-07 0.0000000e+00 
0.0000000e+00 -7.0342605e-07 0.0000000e+00 
0.0000000e+00 -2.3365562e-06 0.0000000e+00 
0.0000000e+00 7.2634329e-08 0.0000000e+00 
0.0000000e+00 4.1032490e-06 0.0000000e+00 
0.0000000e+00 4.4609228e-06 0.0000000e+00 
0.0000000e+00 1.1403971e-06 0.0000000e+00 
0.0000000e+00 -1.5199288e-06 0.0000000e+00 
0.0000000e+00 -7.5414272e-07 0.0000000e+00 
0.0000000e+00 1.7603578e-06 0.0000000e+00 
0.0000000e+00 2.6274274e-06 0.0000000e+00 
0.0000000e+00 9.5562780e-07 0.0000000e+00 
0.0000000e+00 -1.1128967e-06 0.0000000e+00 
0.0000000e+00 -1.6962493e-06 0.0000000e+00 
0.0000000e+00 -1.4124520e-06 0.0000000e+00 
0.0000000e+00 -1.7592923e-06 0.0000000e+00 
0.0000000e+00 -2.8669892e-06 0.0000000e+00 
0.0000000e+00 -3.3492852e-06 0.0000000e+00 
0.0000000e+00 -2.2119309e-06 0.0000000e+00 
0.0000000e+00 -2.3374349e-07 0.0000000e+00 
0.0000000e+00 9.1588583e-07 0.0000000e+00 
0.0000000e+00 5.9555282e-07 0.0000000e+00 
0.0000000e+00 -2.4303051e-07 0.0000000e+00 
0.0000000e+00 -3.6769964e-07 0.0000000e+00 
0.0000000e+00 3.0333558e-07 0.0000000e+00 
0.0000000e+00 8.3035081e-07 0.0000000e+00 
0.0000000e+00 5.6212815e-07 0.0000000e+00 
0.0000000e+00 -9.7267339e-08 0.0000000e+00 
0.0000000e+00 -3.1604475e-07 0.0000000e+00 
0.0000000e+00 7.9142602e-08 0.0000000e+00 
0.0000000e+00 4.4949033e-07 0.0000000e+00 
0.0000000e+00 2.2750915e-07 0.0000000e+00 
0.0000000e+00 -3.5277108e-07 0.0000000e+00 
0.0000000e+00 -5.8531140e-07 0.0000000e+00 
0.0000000e+00 -2.0240047e-07 0.0000000e+00 
0.0000000e+00 3.0428743e-07 0.0000000e+00 
0.0000000e+00 3.1661989e-07 0.0000000e+00 
0.0000000e+00 -1.5551669e-07 0.0000000e+00 
0.0000000e+00 -5.1983278e-07 0.0000000e+00 
0.0000000e+00 -3.3248773e-07 0.0000000e+00 
0.0000000e+00 2.0792385e-07 0.0000000e+00 
0.0000000e+00 5.5356918e-07 0.0000000e+00 
0.0000000e+00 4.5157461e-07 0.0000000e+00 
0.0000000e+00 1.4508836e-07 0.0000000e+00 
0.0000000e+00 -3.2815052e-08 0.0000000e+00 
0.0000000e+00 -8.2133575e-08 0.0000000e+00 
0.0000000e+00 -2.3630750e-07 0.0000000e+00 
0.0000000e+00 -5.2378488e-07 0.0000000e+00 
0.0000000e+00 -6.2016494e-07 0.0000000e+00 
0.0000000e+00 -2.3404976e-07 0.0000000e+00 
0.0000000e+00 4.4066752e-07 0.0000000e+00 
0.0000000e+00 7.9702227e-07 0.0000000e+00 
0.0000000e+00 0.0000000e+00 0.0000000e+00 
0.0000000e+00 0.0000000e+00 0.0000000e+00 
0.0000000e+00 0.0000000e+00 0.0000000e+00 
0.0000000e+00 0.0000000e+00 0.0000000e+00 
0.0000000e+00 0.0000000e+00 0.0000000e+00 
0.0000000e+00 0.0000000e+00 0.0000000e+00 
0.0000000e+00 0.0000000e+00 0.0000000e+00 
0.0000000e+00 0.0000000e+00 0.0000000e+00 
0.0000000e+00 0.0000000e+00 0.0000000e+00 
0.0000000e+00 0.0000000e+00 0.0000000e+00 
0.0000000e+00 0.0000000e+00 0.0000000e+00 
0.0000000e+00 0.0000000e+00 0.0000000e+00 
0.0000000e+00 0.0000000e+00 0.0000000e+00 
0.0000000e+00 0.0000000e+00 0.0000000e+00 
0.0000000e+00 0.0000000e+00 0.0000000e+00 
0.0000000e+00 0.0000000e+00 0.0000000e+00 
0.0000000e+00 0.0000000e+00 0.0000000e+00 
0.0000000e+00 0.0000000e+00 0.0000000e+00 
0.0000000e+00 0.0000000e+00 0.0000000e+00 
0.0000000e+00 0.0000000e+00 0.0000000e+00 
0.0000000e+00 0.0000000e+00 0.0000000e+00 
0.0000000e+00 0.0000000e+00 0.0000000e+00 
0.0000000e+00 0.0000000e+00 0.0000000e+00 
0.0000000e+00 0.0000000e+00 0.0000000e+00 
0.0000000e+00 0.0000000e+00 0.0000000e+00 
0.0000000e+00 0.0000000e+00 0.0000000e+00 
0.0000000e+00 0.0000000e+00 0.0000000e+00 
0.0000000e+00 0.0000000e+00 0.0000000e+00 
0.0000000e+00 0.0000000e+00 0.0000000e+00 
0.0000000e+00 0.0000000e+00 0.0000000e+00 
0.0000000e+00 0.0000000e+00 0.0000000e+00 
0.0000000e+00 0.0000000e+00 0.0000000e+00 
0.0000000e+00 0.0000000e+00 0.0000000e+00 
0.0000000e+00 0.0000000e+00 0.0000000e+00 
0.0000000e+00 0.0000000e+00 0.0000000e+00 
0.0000000e+00 0.0000000e+00 0.0000000e+00 
0.0000000e+00 0.0000000e+00 0.0000000e+00 
0.0000000e+00 0.0000000e+00 0.0000000e+00 
0.0000000e+00 0.0000000e+00 0.0000000e+00 
0.0000000e+00 0.0000000e+00 0.0000000e+00 
0.0000000e+00 0.0000000e+00 0.0000000e+00 
0.0000000e+00 0.0000000e+00 0.0000000e+00 
0.0000000e+00 0.0000000e+00 0.0000000e+00 
0.0000000e+00 0.0000000e+00 0.0000000e+00 
0.0000000e+00 0.0000000e+00 0.0000000e+00 
0.0000000e+00 0.0000000e+00 0.0000000e+00 
0.0000000e+00 0.0000000e+00 0.0000000e+00 
0.0000000e+00 0.0000000e+00 0.0000000e+00 
0.0000000e+00 0.0000000e+00 0.0000000e+00 
0.0000000e+00 0.0000000e+00 0.0000000e+00 
0.0000000e+00 0.0000000e+00 0.0000000e+00 
0.0000000e+00 0.0000000e+00 0.0000000e+00 
0.0000000e+00 0.0000000e+00 0.0000000e+00 
0.0000000e+00 0.0000000e+00 0.0000000e+00 
0.0000000e+00 0.0000000e+00 0.0000000e+00 
0.0000000e+00 0.0000000e+00 0.0000000e+00 
0.0000000e+00 0.0000000e+00 0.0000000e+00 