# vtk DataFile Version 4.0
vtk output
ASCII
DATASET UNSTRUCTURED_GRID
POINTS 2186 float
0.0000000e+00 0.0000000e+00 0.0000000e+00 
0.0000000e+00 0.0000000e+00 5.0000000e+01 
5.0000000e+00 0.0000000e+00 0.0000000e+00 
5.0000000e+00 0.0000000e+00 5.0000000e+01 
5.0000000e+00 1.0000000e+00 0.0000000e+00 
5.0000000e+00 1.0000000e+00 5.0000000e+01 
0.0000000e+00 1.0000000e+00 0.0000000e+00 
0.0000000e+00 1.0000000e+00 5.0000000e+01 
5.0000000e+00 2.0000000e+00 0.0000000e+00 
5.0000000e+00 2.0000000e+00 5.0000000e+01 
3.0000000e+00 2.0000000e+00 0.0000000e+00 
3.0000000e+00 2.0000000e+00 5.0000000e+01 
0.0000000e+00 2.0000000e+00 0.0000000e+00 
0.0000000e+00 2.0000000e+00 5.0000000e+01 
1.5000000e+00 3.0000000e+00 0.0000000e+00 
1.5000000e+00 3.0000000e+00 5.0000000e+01 
7.5000000e-01 3.0000000e+00 0.0000000e+00 
7.5000000e-01 3.0000000e+00 5.0000000e+01 
0.0000000e+00 3.0000000e+00 0.0000000e+00 
0.0000000e+00 3.0000000e+00 5.0000000e+01 
7.5000000e-01 3.0000000e+00 -2.5000000e+01 
7.5000000e-01 3.0000000e+00 -2.4500000e+01 
7.5000000e-01 3.0000000e+00 -2.4000000e+01 
7.5000000e-01 3.0000000e+00 -2.3500000e+01 
7.5000000e-01 3.0000000e+00 -2.3000000e+01 
7.5000000e-01 3.0000000e+00 -2.2500000e+01 
7.5000000e-01 3.0000000e+00 -2.2000000e+01 
7.5000000e-01 3.0000000e+00 -2.1500000e+01 
7.5000000e-01 3.0000000e+00 -2.1000000e+01 
7.5000000e-01 3.0000000e+00 -2.0500000e+01 
7.5000000e-01 3.0000000e+00 -2.0000000e+01 
7.5000000e-01 3.0000000e+00 -1.9500000e+01 
7.5000000e-01 3.0000000e+00 -1.9000000e+01 
7.5000000e-01 3.0000000e+00 -1.8500000e+01 
7.5000000e-01 3.0000000e+00 -1.8000000e+01 
7.5000000e-01 3.0000000e+00 -1.7500000e+01 
7.5000000e-01 3.0000000e+00 -1.7000000e+01 
7.5000000e-01 3.0000000e+00 -1.6500000e+01 
7.5000000e-01 3.0000000e+00 -1.6000000e+01 
7.5000000e-01 3.0000000e+00 -1.5500000e+01 
7.5000000e-01 3.0000000e+00 -1.5000000e+01 
7.5000000e-01 3.0000000e+00 -1.4500000e+01 
7.5000000e-01 3.0000000e+00 -1.4000000e+01 
7.5000000e-01 3.0000000e+00 -1.3500000e+01 
7.5000000e-01 3.0000000e+00 -1.3000000e+01 
7.5000000e-01 3.0000000e+00 -1.2500000e+01 
7.5000000e-01 3.0000000e+00 -1.2000000e+01 
7.5000000e-01 3.0000000e+00 -1.1500000e+01 
7.5000000e-01 3.0000000e+00 -1.1000000e+01 
7.5000000e-01 3.0000000e+00 -1.0500000e+01 
7.5000000e-01 3.0000000e+00 -1.0000000e+01 
7.5000000e-01 3.0000000e+00 -9.5000000e+00 
7.5000000e-01 3.0000000e+00 -9.0000000e+00 
7.5000000e-01 3.0000000e+00 -8.5000000e+00 
7.5000000e-01 3.0000000e+00 -8.0000000e+00 
7.5000000e-01 3.0000000e+00 -7.5000000e+00 
7.5000000e-01 3.0000000e+00 -7.0000000e+00 
7.5000000e-01 3.0000000e+00 -6.5000000e+00 
7.5000000e-01 3.0000000e+00 -6.0000000e+00 
7.5000000e-01 3.0000000e+00 -5.5000000e+00 
7.5000000e-01 3.0000000e+00 -5.0000000e+00 
7.5000000e-01 3.0000000e+00 -4.5000000e+00 
7.5000000e-01 3.0000000e+00 -4.0000000e+00 
7.5000000e-01 3.0000000e+00 -3.5000000e+00 
7.5000000e-01 3.0000000e+00 -3.0000000e+00 
7.5000000e-01 3.0000000e+00 -2.5000000e+00 
7.5000000e-01 3.0000000e+00 -2.0000000e+00 
7.5000000e-01 3.0000000e+00 -1.5000000e+00 
7.5000000e-01 3.0000000e+00 -1.0000000e+00 
7.5000000e-01 3.0000000e+00 -5.0000000e-01 
7.5000000e-01 3.0000000e+00 5.0000000e-01 
7.5000000e-01 3.0000000e+00 1.0000000e+00 
7.5000000e-01 3.0000000e+00 1.5000000e+00 
7.5000000e-01 3.0000000e+00 2.0000000e+00 
7.5000000e-01 3.0000000e+00 2.5000000e+00 
7.5000000e-01 3.0000000e+00 3.0000000e+00 
7.5000000e-01 3.0000000e+00 3.5000000e+00 
7.5000000e-01 3.0000000e+00 4.0000000e+00 
7.5000000e-01 3.0000000e+00 4.5000000e+00 
7.5000000e-01 3.0000000e+00 5.0000000e+00 
7.5000000e-01 3.0000000e+00 5.5000000e+00 
7.5000000e-01 3.0000000e+00 6.0000000e+00 
7.5000000e-01 3.0000000e+00 6.5000000e+00 
7.5000000e-01 3.0000000e+00 7.0000000e+00 
7.5000000e-01 3.0000000e+00 7.5000000e+00 
7.5000000e-01 3.0000000e+00 8.0000000e+00 
7.5000000e-01 3.0000000e+00 8.5000000e+00 
7.5000000e-01 3.0000000e+00 9.0000000e+00 
7.5000000e-01 3.0000000e+00 9.5000000e+00 
7.5000000e-01 3.0000000e+00 1.0000000e+01 
7.5000000e-01 3.0000000e+00 1.0500000e+01 
7.5000000e-01 3.0000000e+00 1.1000000e+01 
7.5000000e-01 3.0000000e+00 1.1500000e+01 
7.5000000e-01 3.0000000e+00 1.2000000e+01 
7.5000000e-01 3.0000000e+00 1.2500000e+01 
7.5000000e-01 3.0000000e+00 1.3000000e+01 
7.5000000e-01 3.0000000e+00 1.3500000e+01 
7.5000000e-01 3.0000000e+00 1.4000000e+01 
7.5000000e-01 3.0000000e+00 1.4500000e+01 
7.5000000e-01 3.0000000e+00 1.5000000e+01 
7.5000000e-01 3.0000000e+00 1.5500000e+01 
7.5000000e-01 3.0000000e+00 1.6000000e+01 
7.5000000e-01 3.0000000e+00 1.6500000e+01 
7.5000000e-01 3.0000000e+00 1.7000000e+01 
7.5000000e-01 3.0000000e+00 1.7500000e+01 
7.5000000e-01 3.0000000e+00 1.8000000e+01 
7.5000000e-01 3.0000000e+00 1.8500000e+01 
7.5000000e-01 3.0000000e+00 1.9000000e+01 
7.5000000e-01 3.0000000e+00 1.9500000e+01 
7.5000000e-01 3.0000000e+00 2.0000000e+01 
7.5000000e-01 3.0000000e+00 2.0500000e+01 
7.5000000e-01 3.0000000e+00 2.1000000e+01 
7.5000000e-01 3.0000000e+00 2.1500000e+01 
7.5000000e-01 3.0000000e+00 2.2000000e+01 
7.5000000e-01 3.0000000e+00 2.2500000e+01 
7.5000000e-01 3.0000000e+00 2.3000000e+01 
7.5000000e-01 3.0000000e+00 2.3500000e+01 
7.5000000e-01 3.0000000e+00 2.4000000e+01 
7.5000000e-01 3.0000000e+00 2.4500000e+01 
7.5000000e-01 3.0000000e+00 2.5000000e+01 
7.5000000e-01 3.0000000e+00 2.5500000e+01 
7.5000000e-01 3.0000000e+00 2.6000000e+01 
7.5000000e-01 3.0000000e+00 2.6500000e+01 
7.5000000e-01 3.0000000e+00 2.7000000e+01 
7.5000000e-01 3.0000000e+00 2.7500000e+01 
7.5000000e-01 3.0000000e+00 2.8000000e+01 
7.5000000e-01 3.0000000e+00 2.8500000e+01 
7.5000000e-01 3.0000000e+00 2.9000000e+01 
7.5000000e-01 3.0000000e+00 2.9500000e+01 
7.5000000e-01 3.0000000e+00 3.0000000e+01 
7.5000000e-01 3.0000000e+00 3.0500000e+01 
7.5000000e-01 3.0000000e+00 3.1000000e+01 
7.5000000e-01 3.0000000e+00 3.1500000e+01 
7.5000000e-01 3.0000000e+00 3.2000000e+01 
7.5000000e-01 3.0000000e+00 3.2500000e+01 
7.5000000e-01 3.0000000e+00 3.3000000e+01 
7.5000000e-01 3.0000000e+00 3.3500000e+01 
7.5000000e-01 3.0000000e+00 3.4000000e+01 
7.5000000e-01 3.0000000e+00 3.4500000e+01 
7.5000000e-01 3.0000000e+00 3.5000000e+01 
7.5000000e-01 3.0000000e+00 3.5500000e+01 
7.5000000e-01 3.0000000e+00 3.6000000e+01 
7.5000000e-01 3.0000000e+00 3.6500000e+01 
7.5000000e-01 3.0000000e+00 3.7000000e+01 
7.5000000e-01 3.0000000e+00 3.7500000e+01 
7.5000000e-01 3.0000000e+00 3.8000000e+01 
7.5000000e-01 3.0000000e+00 3.8500000e+01 
7.5000000e-01 3.0000000e+00 3.9000000e+01 
7.5000000e-01 3.0000000e+00 3.9500000e+01 
7.5000000e-01 3.0000000e+00 4.0000000e+01 
7.5000000e-01 3.0000000e+00 4.0500000e+01 
7.5000000e-01 3.0000000e+00 4.1000000e+01 
7.5000000e-01 3.0000000e+00 4.1500000e+01 
7.5000000e-01 3.0000000e+00 4.2000000e+01 
7.5000000e-01 3.0000000e+00 4.2500000e+01 
7.5000000e-01 3.0000000e+00 4.3000000e+01 
7.5000000e-01 3.0000000e+00 4.3500000e+01 
7.5000000e-01 3.0000000e+00 4.4000000e+01 
7.5000000e-01 3.0000000e+00 4.4500000e+01 
7.5000000e-01 3.0000000e+00 4.5000000e+01 
7.5000000e-01 3.0000000e+00 4.5500000e+01 
7.5000000e-01 3.0000000e+00 4.6000000e+01 
7.5000000e-01 3.0000000e+00 4.6500000e+01 
7.5000000e-01 3.0000000e+00 4.7000000e+01 
7.5000000e-01 3.0000000e+00 4.7500000e+01 
7.5000000e-01 3.0000000e+00 4.8000000e+01 
7.5000000e-01 3.0000000e+00 4.8500000e+01 
7.5000000e-01 3.0000000e+00 4.9000000e+01 
7.5000000e-01 3.0000000e+00 4.9500000e+01 
7.5000000e-01 3.0000000e+00 5.0500000e+01 
7.5000000e-01 3.0000000e+00 5.1000000e+01 
7.5000000e-01 3.0000000e+00 5.1500000e+01 
7.5000000e-01 3.0000000e+00 5.2000000e+01 
7.5000000e-01 3.0000000e+00 5.2500000e+01 
7.5000000e-01 3.0000000e+00 5.3000000e+01 
7.5000000e-01 3.0000000e+00 5.3500000e+01 
7.5000000e-01 3.0000000e+00 5.4000000e+01 
7.5000000e-01 3.0000000e+00 5.4500000e+01 
7.5000000e-01 3.0000000e+00 5.5000000e+01 
7.5000000e-01 3.0000000e+00 5.5500000e+01 
7.5000000e-01 3.0000000e+00 5.6000000e+01 
7.5000000e-01 3.0000000e+00 5.6500000e+01 
7.5000000e-01 3.0000000e+00 5.7000000e+01 
7.5000000e-01 3.0000000e+00 5.7500000e+01 
7.5000000e-01 3.0000000e+00 5.8000000e+01 
7.5000000e-01 3.0000000e+00 5.8500000e+01 
7.5000000e-01 3.0000000e+00 5.9000000e+01 
7.5000000e-01 3.0000000e+00 5.9500000e+01 
7.5000000e-01 3.0000000e+00 6.0000000e+01 
7.5000000e-01 3.0000000e+00 6.0500000e+01 
7.5000000e-01 3.0000000e+00 6.1000000e+01 
7.5000000e-01 3.0000000e+00 6.1500000e+01 
7.5000000e-01 3.0000000e+00 6.2000000e+01 
7.5000000e-01 3.0000000e+00 6.2500000e+01 
7.5000000e-01 3.0000000e+00 6.3000000e+01 
7.5000000e-01 3.0000000e+00 6.3500000e+01 
7.5000000e-01 3.0000000e+00 6.4000000e+01 
7.5000000e-01 3.0000000e+00 6.4500000e+01 
7.5000000e-01 3.0000000e+00 6.5000000e+01 
7.5000000e-01 3.0000000e+00 6.5500000e+01 
7.5000000e-01 3.0000000e+00 6.6000000e+01 
7.5000000e-01 3.0000000e+00 6.6500000e+01 
7.5000000e-01 3.0000000e+00 6.7000000e+01 
7.5000000e-01 3.0000000e+00 6.7500000e+01 
7.5000000e-01 3.0000000e+00 6.8000000e+01 
7.5000000e-01 3.0000000e+00 6.8500000e+01 
7.5000000e-01 3.0000000e+00 6.9000000e+01 
7.5000000e-01 3.0000000e+00 6.9500000e+01 
7.5000000e-01 3.0250001e+00 -2.5000000e+01 
7.5000000e-01 3.0250001e+00 -2.4500000e+01 
7.5000000e-01 3.0250001e+00 -2.4000000e+01 
7.5000000e-01 3.0250001e+00 -2.3500000e+01 
7.5000000e-01 3.0250001e+00 -2.3000000e+01 
7.5000000e-01 3.0250001e+00 -2.2500000e+01 
7.5000000e-01 3.0250001e+00 -2.2000000e+01 
7.5000000e-01 3.0250001e+00 -2.1500000e+01 
7.5000000e-01 3.0250001e+00 -2.1000000e+01 
7.5000000e-01 3.0250001e+00 -2.0500000e+01 
7.5000000e-01 3.0250001e+00 -2.0000000e+01 
7.5000000e-01 3.0250001e+00 -1.9500000e+01 
7.5000000e-01 3.0250001e+00 -1.9000000e+01 
7.5000000e-01 3.0250001e+00 -1.8500000e+01 
7.5000000e-01 3.0250001e+00 -1.8000000e+01 
7.5000000e-01 3.0250001e+00 -1.7500000e+01 
7.5000000e-01 3.0250001e+00 -1.7000000e+01 
7.5000000e-01 3.0250001e+00 -1.6500000e+01 
7.5000000e-01 3.0250001e+00 -1.6000000e+01 
7.5000000e-01 3.0250001e+00 -1.5500000e+01 
[...]
POINT_DATA 2186
FIELD FieldData 3
DISPLACEMENT 3 2186  float
0.0000000e+00 0.0000000e+00 0.0000000e+00 
0.0000000e+00 0.0000000e+00 0.0000000e+00 
0.0000000e+00 0.0000000e+00 0.0000000e+00 
0.0000000e+00 0.0000000e+00 0.0000000e+00 
-1.0299767e-05 1.3768644e-06 7.8735602e-06 
3.1529538e-07 -6.8206496e-08 -8.8955083e-08 
0.0000000e+00 -1.1644299e-05 0.0000000e+00 
0.0000000e+00 -4.7488916e-07 0.0000000e+00 
-1.2711454e-05 -7.7535396e-06 6.3203288e-07 
-1.3931479e-07 2.1437702e-07 -3.0819049e-07 
-1.2971831e-05 -4.9859631e-07 6.5678391e-06 
-1.9738663e-07 4.6516203e-07 -1.4781200e-07 
0.0000000e+00 -9.7107131e-06 0.0000000e+00 
0.0000000e+00 -6.3315241e-07 0.0000000e+00 
-7.8925350e-06 -4.6510570e-05 9.9561570e-05 
9.6468432e-07 -7.6159245e-07 5.4115554e-07 
7.2784904e-05 -6.7097164e-05 1.0592274e-04 
-4.7461715e-08 4.3993597e-07 5.8298486e-08 
0.0000000e+00 1.1721944e-06 0.0000000e+00 
0.0000000e+00 -3.0437067e-07 0.0000000e+00 
0.0000000e+00 4.2833335e-06 0.0000000e+00 
0.0000000e+00 1.7783875e-06 0.0000000e+00 
0.0000000e+00 -3.5154460e-06 0.0000000e+00 
0.0000000e+00 -7.3717424e-06 0.0000000e+00 
0.0000000e+00 -6.5526674e-06 0.0000000e+00 
0.0000000e+00 -8.8754967e-07 0.0000000e+00 
0.0000000e+00 6.5842301e-06 0.0000000e+00 
0.0000000e+00 1.1463514e-05 0.0000000e+00 
0.0000000e+00 1.0603001e-05 0.0000000e+00 
0.0000000e+00 3.9150941e-06 0.0000000e+00 
0.0000000e+00 -5.5497853e-06 0.0000000e+00 
0.0000000e+00 -1.3181223e-05 0.0000000e+00 
0.0000000e+00 -1.5165497e-05 0.0000000e+00 
0.0000000e+00 -1.0391855e-05 0.0000000e+00 
0.0000000e+00 -9.2753987e-07 0.0000000e+00 
0.0000000e+00 9.1133898e-06 0.0000000e+00 
0.0000000e+00 1.5584264e-05 0.0000000e+00 
0.0000000e+00 1.6098615e-05 0.0000000e+00 
0.0000000e+00 1.0792653e-05 0.0000000e+00 
0.0000000e+00 1.8876444e-06 0.0000000e+00 
0.0000000e+00 -7.5035141e-06 0.0000000e+00 
0.0000000e+00 -1.4553018e-05 0.0000000e+00 
0.0000000e+00 -1.7320388e-05 0.0000000e+00 
0.0000000e+00 -1.4895236e-05 0.0000000e+00 
0.0000000e+00 -7.6006672e-06 0.0000000e+00 
0.0000000e+00 2.6667542e-06 0.0000000e+00 
0.0000000e+00 1.2588743e-05 0.0000000e+00 
0.0000000e+00 1.8547160e-05 0.0000000e+00 
0.0000000e+00 1.8250843e-05 0.0000000e+00 
0.0000000e+00 1.1876370e-05 0.0000000e+00 
0.0000000e+00 2.1209987e-06 0.0000000e+00 
0.0000000e+00 -6.8943382e-06 0.0000000e+00 
0.0000000e+00 -1.1638885e-05 0.0000000e+00 
0.0000000e+00 -1.1258407e-05 0.0000000e+00 
0.0000000e+00 -8.1625130e-06 0.0000000e+00 
0.0000000e+00 -6.1367764e-06 0.0000000e+00 
0.0000000e+00 -7.1449217e-06 0.0000000e+00 
0.0000000e+00 -9.4744855e-06 0.0000000e+00 
0.0000000e+00 -8.8960051e-06 0.0000000e+00 
0.0000000e+00 -2.1079686e-06 0.0000000e+00 
0.0000000e+00 9.9474319e-06 0.0000000e+00 
0.0000000e+00 2.1578913e-05 0.0000000e+00 
0.0000000e+00 2.5982730e-05 0.0000000e+00 
0.0000000e+00 2.0996637e-05 0.0000000e+00 
0.0000000e+00 1.1684406e-05 0.0000000e+00 
0.0000000e+00 5.9975796e-06 0.0000000e+00 
0.0000000e+00 6.6671350e-06 0.0000000e+00 
0.0000000e+00 7.3900451e-06 0.0000000e+00 
0.0000000e+00 -2.4583355e-06 0.0000000e+00 
0.0000000e+00 -2.8808985e-05 0.0000000e+00 
-1.0104060e-05 -1.0236865e-04 7.9975791e-05 
-4.5136087e-05 -1.2089464e-04 8.2430677e-05 
-6.7706787e-05 -1.2035966e-04 8.7146334e-05 
-1.2048354e-04 -1.1088281e-04 7.3762691e-05 
-1.0027343e-04 -1.0247304e-04 5.3490723e-05 
-7.8820485e-05 -9.5553463e-05 4.7271020e-05 
-8.8452005e-05 -7.5563716e-05 1.0429574e-05 
-7.2885734e-05 -2.9871109e-05 -4.5833722e-06 
-7.4530690e-05 3.3614029e-05 4.3914847e-06 
-3.7752405e-05 8.8578970e-05 -6.4425130e-06 
-7.2919298e-05 1.1521196e-04 8.8179195e-06 
-6.1574210e-05 1.1086297e-04 3.0497222e-05 
-9.5327938e-05 9.3940296e-05 4.5774133e-05 
-5.5200358e-05 8.6495907e-05 7.6813929e-05 
-9.4255964e-05 4.3103399e-05 1.3069242e-04 
-1.1213708e-04 -1.6214512e-04 1.1769277e-04 
-1.8017717e-04 -6.4364023e-04 2.0658263e-04 
-1.6174400e-04 -1.4347438e-03 1.6703895e-04 
-2.6500461e-04 -2.4985566e-03 2.5459332e-04 
-2.9148703e-04 -3.6855664e-03 5.0559509e-05 
-3.9480685e-04 -4.7588730e-03 1.0218006e-04 
-4.4155461e-04 -5.2215345e-03 -6.7753317e-05 
-3.8490645e-04 -4.9475958e-03 -2.2195336e-04 
-3.4757133e-04 -4.6295798e-03 -2.0911011e-04 
-3.3051232e-04 -4.7247708e-03 -2.4365177e-04 
-5.5735273e-04 -4.9289716e-03 -2.3477244e-04 
-1.6790045e-04 -4.5020846e-03 -2.1746513e-04 
-8.1794024e-05 -3.1882385e-03 -1.1056841e-04 
-2.9980578e-05 -1.7635869e-03 -2.4216369e-04 
-8.8671541e-06 -7.0381066e-04 -1.1054441e-04 
1.2341240e-05 -8.2286206e-05 -1.1722641e-04 
1.6497592e-05 2.1148358e-04 -2.9553208e-05 
2.9797173e-05 2.9606890e-04 1.0641374e-05 
3.7124478e-06 2.5367417e-04 8.7036424e-05 
-9.3924245e-06 1.5215628e-04 3.9699342e-05 
4.3869716e-07 5.5144541e-05 7.4972045e-06 
-1.3177847e-06 -5.4455886e-06 -5.1280908e-06 
-2.3836583e-06 -3.3854201e-05 6.3342027e-06 
4.5984243e-06 -5.0558570e-05 -1.2864558e-06 
-1.6419119e-05 -6.7202302e-05 1.9316261e-05 
-1.4903763e-05 -8.1321879e-05 5.7102552e-05 
-2.1061864e-05 -8.9692345e-05 6.7149274e-05 
-5.8872065e-05 -9.1147856e-05 7.0385824e-05 
-6.2556930e-05 -8.1743274e-05 5.6845987e-05 
-7.7670949e-05 -6.3761363e-05 3.8822705e-05 
-7.3079842e-05 -5.0211340e-05 2.7227641e-05 
-8.9705318e-05 -4.2935622e-05 6.4779915e-06 
-7.4105119e-05 -2.3219758e-05 -7.9733427e-06 
-8.3702951e-05 2.3294766e-05 -9.6943195e-06 
-5.0398245e-05 8.9320762e-05 -2.2600777e-06 
-6.3402178e-05 1.4217457e-04 1.0200474e-06 
-5.0013132e-05 1.4937448e-04 2.5121786e-05 
-8.4409105e-05 1.0490799e-04 3.3663404e-05 
-7.4470750e-05 3.2884665e-05 5.5419405e-05 
-1.2431829e-04 -6.7568610e-05 1.2046503e-04 
-1.3300401e-04 -2.6858356e-04 1.1378467e-04 
-2.0377942e-04 -7.1869825e-04 2.1882051e-04 
-2.0870814e-04 -1.5596312e-03 1.6565862e-04 
-3.2129671e-04 -2.7829458e-03 2.3247226e-04 
-3.8743118e-04 -4.1116453e-03 5.7602765e-06 
-4.5478417e-04 -5.1029571e-03 4.4151111e-05 
-4.5272332e-04 -5.1926300e-03 -9.3142036e-05 
-3.8009105e-04 -4.7687730e-03 -2.4008425e-04 
-3.4331513e-04 -4.5321300e-03 -2.0190755e-04 
-2.6863813e-04 -4.7302227e-03 -2.0142856e-04 
-2.9204445e-04 -4.8463694e-03 -2.5611551e-04 
-1.9848815e-04 -4.2143608e-03 -3.3385848e-04 
-1.2744196e-04 -2.8711467e-03 -1.5604221e-04 
-4.4439941e-05 -1.5584817e-03 -2.4378356e-04 
3.5576113e-06 -5.8978825e-04 -5.9797094e-05 
2.5929683e-05 -1.8632882e-05 -4.3892440e-05 
1.9222751e-05 2.3027205e-04 2.0076022e-05 
1.3862538e-05 2.6101578e-04 5.6907898e-05 
2.1448243e-06 1.8840554e-04 7.2070572e-05 
-3.4739009e-05 1.0771488e-04 8.7540357e-05 
-4.5178578e-05 4.9941355e-05 5.7855686e-05 
-5.1171541e-05 1.1758142e-05 -1.7807624e-05 
-4.6563880e-05 -1.3491521e-05 -4.8443279e-05 
-3.6881656e-07 -2.1067550e-05 -6.6886118e-05 
1.2162260e-05 -1.0674151e-05 -6.0742779e-05 
2.5757583e-05 7.6035349e-06 -2.7570961e-05 
2.4056242e-05 1.8366300e-05 -8.5323400e-06 
1.2498679e-05 1.3457136e-05 5.0321164e-06 
8.3262021e-06 1.0309435e-06 9.4910283e-06 
1.6762956e-06 -7.8478088e-06 8.8889228e-06 
-1.8621079e-06 -9.8784421e-06 4.8286893e-06 
-3.0105100e-06 -8.2061279e-06 3.1884736e-06 
-2.4793460e-06 -6.1780615e-06 1.2846294e-06 
-2.3223206e-06 -3.6594902e-06 9.7681595e-07 
-9.7449788e-07 -7.3110520e-08 1.4099468e-06 
-6.2151213e-07 3.4627330e-06 -5.0080985e-07 
6.7893402e-09 4.8823754e-06 3.1114814e-07 
5.0212498e-07 3.6168130e-06 -2.5665113e-08 
-3.2181416e-07 1.3487161e-06 -1.1595755e-06 
7.5091954e-08 -5.6971661e-08 8.0165552e-07 
5.8477951e-07 -6.1657460e-07 -5.1788845e-07 
-4.1596778e-07 -1.1522214e-06 3.5095806e-07 
1.3094530e-07 -1.6230180e-06 1.9585667e-07 
-5.7464587e-07 -1.1642704e-06 2.3427926e-08 
0.0000000e+00 2.2219476e-06 0.0000000e+00 
0.0000000e+00 3.0147871e-06 0.0000000e+00 
0.0000000e+00 2.2673310e-06 0.0000000e+00 
0.0000000e+00 5.5224166e-07 0.0000000e+00 
0.0000000e+00 -1.0326587e-06 0.0000000e+00 
0.0000000e+00 -1.7497346e-06 0.0000000e+00 
0.0000000e+00 -1.5262281e-06 0.0000000e+00 
0.0000000e+00 -6.5267540e-07 0.0000000e+00 
0.0000000e+00 5.0605536e-07 0.0000000e+00 
0.0000000e+00 1.4785704e-06 0.0000000e+00 
0.0000000e+00 1.6838001e-06 0.0000000e+00 
0.0000000e+00 8.0971989e-07 0.0000000e+00 
0.0000000e+00 -7.2621350e-07 0.0000000e+00 
0.0000000e+00 -1.8815484e-06 0.0000000e+00 
0.0000000e+00 -1.7729047e-06 0.0000000e+00 
0.0000000e+00 -4.4912028e-07 0.0000000e+00 
0.0000000e+00 1.1195924e-06 0.0000000e+00 
0.0000000e+00 1.8411341e-06 0.0000000e+00 
0.0000000e+00 1.3369093e-06 0.0000000e+00 
0.0000000e+00 1.0567211e-07 0.0000000e+00 
0.0000000e+00 -9.9049510e-07 0.0000000e+00 
0.0000000e+00 -1.3609448e-06 0.0000000e+00 
0.0000000e+00 -9.5363407e-07 0.0000000e+00 
0.0000000e+00 -1.2035125e-07 0.0000000e+00 
0.0000000e+00 6.6092304e-07 0.0000000e+00 
0.0000000e+00 1.0093079e-06 0.0000000e+00 
0.0000000e+00 7.8416588e-07 0.0000000e+00 
0.0000000e+00 1.4964880e-07 0.0000000e+00 
0.0000000e+00 -5.0114693e-07 0.0000000e+00 
0.0000000e+00 -7.8144609e-07 0.0000000e+00 
0.0000000e+00 -5.6702714e-07 0.0000000e+00 
0.0000000e+00 -6.5400528e-08 0.0000000e+00 
0.0000000e+00 3.6561997e-07 0.0000000e+00 
0.0000000e+00 4.8960635e-07 0.0000000e+00 
0.0000000e+00 3.2552146e-07 0.0000000e+00 
0.0000000e+00 6.3604467e-08 0.0000000e+00 
0.0000000e+00 -1.2127795e-07 0.0000000e+00 
0.0000000e+00 -1.8552947e-07 0.0000000e+00 
0.0000000e+00 -1.9005884e-07 0.0000000e+00 
0.0000000e+00 4.2741704e-06 0.0000000e+00 
0.0000000e+00 1.7560392e-06 0.0000000e+00 
0.0000000e+00 -3.5531793e-06 0.0000000e+00 
0.0000000e+00 -7.3909528e-06 0.0000000e+00 
0.0000000e+00 -6.5143631e-06 0.0000000e+00 
0.0000000e+00 -7.9174464e-07 0.0000000e+00 
0.0000000e+00 6.6816824e-06 0.0000000e+00 
0.0000000e+00 1.1482395e-05 0.0000000e+00 
0.0000000e+00 1.0502429e-05 0.0000000e+00 
0.0000000e+00 3.7415750e-06 0.0000000e+00 
0.0000000e+00 -5.6785748e-06 0.0000000e+00 
0.0000000e+00 -1.3159982e-05 0.0000000e+00 
0.0000000e+00 -1.4990864e-05 0.0000000e+00 
0.0000000e+00 -1.0177857e-05 0.0000000e+00 
0.0000000e+00 -8.2494699e-07 0.0000000e+00 
0.0000000e+00 9.0314034e-06 0.0000000e+00 
0.0000000e+00 1.5378435e-05 0.0000000e+00 
0.0000000e+00 1.5918327e-05 0.0000000e+00 
0.0000000e+00 1.0763419e-05 0.0000000e+00 
0.0000000e+00 2.0157120e-06 0.0000000e+00 
0.0000000e+00 -7.3333076e-06 0.0000000e+00 
0.0000000e+00 -1.4479063e-05 0.0000000e+00 
0.0000000e+00 -1.7386992e-05 0.0000000e+00 
0.0000000e+00 -1.5022041e-05 0.0000000e+00 
0.0000000e+00 -7.6645874e-06 0.0000000e+00 
0.0000000e+00 2.7198882e-06 0.0000000e+00 
0.0000000e+00 1.2704432e-05 0.0000000e+00 
0.0000000e+00 1.8616303e-05 0.0000000e+00 
0.0000000e+00 1.8202181e-05 0.0000000e+00 
0.0000000e+00 1.1739106e-05 0.0000000e+00 
0.0000000e+00 2.0123209e-06 0.0000000e+00 
0.0000000e+00 -6.8631530e-06 0.0000000e+00 
0.0000000e+00 -1.1473914e-05 0.0000000e+00 
0.0000000e+00 -1.1099055e-05 0.0000000e+00 
0.0000000e+00 -8.1604931e-06 0.0000000e+00 
0.0000000e+00 -6.3085809e-06 0.0000000e+00 
0.0000000e+00 -7.3510464e-06 0.0000000e+00 
0.0000000e+00 -9.5428513e-06 0.0000000e+00 
0.0000000e+00 -8.7657736e-06 0.0000000e+00 
0.0000000e+00 -1.8793056e-06 0.0000000e+00 
0.0000000e+00 1.0081993e-05 0.0000000e+00 
0.0000000e+00 2.1486898e-05 0.0000000e+00 
0.0000000e+00 2.5733352e-05 0.0000000e+00 
0.0000000e+00 2.0839563e-05 0.0000000e+00 
0.0000000e+00 1.1818279e-05 0.0000000e+00 
0.0000000e+00 6.3421776e-06 0.0000000e+00 
0.0000000e+00 6.9195739e-06 0.0000000e+00 
0.0000000e+00 7.3235788e-06 0.0000000e+00 
0.0000000e+00 -2.8064339e-06 0.0000000e+00 
0.0000000e+00 -2.9255014e-05 0.0000000e+00 
0.0000000e+00 -6.7200781e-05 0.0000000e+00 
0.0000000e+00 -1.0209541e-04 0.0000000e+00 
0.0000000e+00 -1.2045562e-04 0.0000000e+00 
0.0000000e+00 -1.2027654e-04 0.0000000e+00 
0.0000000e+00 -1.1116789e-04 0.0000000e+00 
0.0000000e+00 -1.0314620e-04 0.0000000e+00 
0.0000000e+00 -9.5750271e-05 0.0000000e+00 
0.0000000e+00 -7.4966301e-05 0.0000000e+00 
0.0000000e+00 -2.9090888e-05 0.0000000e+00 
0.0000000e+00 3.3747267e-05 0.0000000e+00 
0.0000000e+00 8.8297464e-05 0.0000000e+00 
0.0000000e+00 1.1433047e-04 0.0000000e+00 
0.0000000e+00 1.1026274e-04 0.0000000e+00 
0.0000000e+00 9.6052478e-05 0.0000000e+00 
0.0000000e+00 8.9741843e-05 0.0000000e+00 
0.0000000e+00 4.3911394e-05 0.0000000e+00 
0.0000000e+00 -1.6411471e-04 0.0000000e+00 
0.0000000e+00 -6.4690452e-04 0.0000000e+00 
0.0000000e+00 -1.4405706e-03 0.0000000e+00 
0.0000000e+00 -2.5020479e-03 0.0000000e+00 
0.0000000e+00 -3.7000349e-03 0.0000000e+00 
0.0000000e+00 -4.7823852e-03 0.0000000e+00 
0.0000000e+00 -5.2597765e-03 0.0000000e+00 
0.0000000e+00 -4.9713380e-03 0.0000000e+00 
0.0000000e+00 -4.6574934e-03 0.0000000e+00 
0.0000000e+00 -4.7455146e-03 0.0000000e+00 
0.0000000e+00 -4.9482351e-03 0.0000000e+00 
0.0000000e+00 -4.5333020e-03 0.0000000e+00 
0.0000000e+00 -3.2146960e-03 0.0000000e+00 
0.0000000e+00 -1.7764546e-03 0.0000000e+00 
0.0000000e+00 -7.0894492e-04 0.0000000e+00 
0.0000000e+00 -8.2074323e-05 0.0000000e+00 
0.0000000e+00 2.1271640e-04 0.0000000e+00 
0.0000000e+00 2.9673087e-04 0.0000000e+00 
0.0000000e+00 2.5423034e-04 0.0000000e+00 
0.0000000e+00 1.5352332e-04 0.0000000e+00 
0.0000000e+00 5.6161043e-05 0.0000000e+00 
0.0000000e+00 -5.1869088e-06 0.0000000e+00 
0.0000000e+00 -3.4165201e-05 0.0000000e+00 
0.0000000e+00 -5.0838877e-05 0.0000000e+00 
0.0000000e+00 -6.7129811e-05 0.0000000e+00 
0.0000000e+00 -8.1480124e-05 0.0000000e+00 
0.0000000e+00 -9.0165842e-05 0.0000000e+00 
0.0000000e+00 -9.0970359e-05 0.0000000e+00 
0.0000000e+00 -8.1056962e-05 0.0000000e+00 
0.0000000e+00 -6.3888510e-05 0.0000000e+00 
0.0000000e+00 -5.0963092e-05 0.0000000e+00 
0.0000000e+00 -4.3221171e-05 0.0000000e+00 
0.0000000e+00 -2.2840057e-05 0.0000000e+00 
0.0000000e+00 2.4557046e-05 0.0000000e+00 
0.0000000e+00 9.0016103e-05 0.0000000e+00 
0.0000000e+00 1.4145089e-04 0.0000000e+00 
0.0000000e+00 1.4801389e-04 0.0000000e+00 
0.0000000e+00 1.0526179e-04 0.0000000e+00 
0.0000000e+00 3.5066201e-05 0.0000000e+00 
0.0000000e+00 -6.4180742e-05 0.0000000e+00 
0.0000000e+00 -2.6738906e-04 0.0000000e+00 
0.0000000e+00 -7.2332594e-04 0.0000000e+00 
0.0000000e+00 -1.5702043e-03 0.0000000e+00 
0.0000000e+00 -2.7905614e-03 0.0000000e+00 
0.0000000e+00 -4.1292943e-03 0.0000000e+00 
0.0000000e+00 -5.1230453e-03 0.0000000e+00 
0.0000000e+00 -5.2292678e-03 0.0000000e+00 
0.0000000e+00 -4.7936430e-03 0.0000000e+00 
0.0000000e+00 -4.5603593e-03 0.0000000e+00 
0.0000000e+00 -4.7473894e-03 0.0000000e+00 
0.0000000e+00 -4.8782025e-03 0.0000000e+00 
0.0000000e+00 -4.2375531e-03 0.0000000e+00 
0.0000000e+00 -2.8949252e-03 0.0000000e+00 
0.0000000e+00 -1.5661955e-03 0.0000000e+00 
0.0000000e+00 -5.9392245e-04 0.0000000e+00 
0.0000000e+00 -1.9634752e-05 0.0000000e+00 
0.0000000e+00 2.3038282e-04 0.0000000e+00 
0.0000000e+00 2.6227557e-04 0.0000000e+00 
0.0000000e+00 1.9090010e-04 0.0000000e+00 
0.0000000e+00 1.0863207e-04 0.0000000e+00 
0.0000000e+00 4.9781775e-05 0.0000000e+00 
0.0000000e+00 1.1415852e-05 0.0000000e+00 
0.0000000e+00 -1.3072119e-05 0.0000000e+00 
0.0000000e+00 -2.0687708e-05 0.0000000e+00 
0.0000000e+00 -1.0723018e-05 0.0000000e+00 
0.0000000e+00 7.2287849e-06 0.0000000e+00 
0.0000000e+00 1.7868986e-05 0.0000000e+00 
0.0000000e+00 1.3504343e-05 0.0000000e+00 
0.0000000e+00 1.3560131e-06 0.0000000e+00 
0.0000000e+00 -7.6931956e-06 0.0000000e+00 
0.0000000e+00 -9.9417166e-06 0.0000000e+00 
0.0000000e+00 -8.3165205e-06 0.0000000e+00 
0.0000000e+00 -6.1378287e-06 0.0000000e+00 
0.0000000e+00 -3.5991004e-06 0.0000000e+00 
0.0000000e+00 -9.0584791e-08 0.0000000e+00 
0.0000000e+00 3.3898837e-06 0.0000000e+00 
0.0000000e+00 4.8352763e-06 0.0000000e+00 
0.0000000e+00 3.6426432e-06 0.0000000e+00 
0.0000000e+00 1.4113806e-06 0.0000000e+00 
0.0000000e+00 -5.0800043e-08 0.0000000e+00 
0.0000000e+00 -6.5446636e-07 0.0000000e+00 
0.0000000e+00 -1.1663930e-06 0.0000000e+00 
0.0000000e+00 -1.5846654e-06 0.0000000e+00 
0.0000000e+00 -1.1296227e-06 0.0000000e+00 
0.0000000e+00 4.2892040e-07 0.0000000e+00 
0.0000000e+00 2.1968101e-06 0.0000000e+00 
0.0000000e+00 2.9865714e-06 0.0000000e+00 
0.0000000e+00 2.2635363e-06 0.0000000e+00 
0.0000000e+00 5.7042121e-07 0.0000000e+00 
0.0000000e+00 -1.0150419e-06 0.0000000e+00 
0.0000000e+00 -1.7452228e-06 0.0000000e+00 
0.0000000e+00 -1.5268988e-06 0.0000000e+00 
0.0000000e+00 -6.4860922e-07 0.0000000e+00 
0.0000000e+00 5.0900746e-07 0.0000000e+00 
0.0000000e+00 1.4674304e-06 0.0000000e+00 
0.0000000e+00 1.6607218e-06 0.0000000e+00 
0.0000000e+00 7.9561465e-07 0.0000000e+00 
0.0000000e+00 -7.1412285e-07 0.0000000e+00 
0.0000000e+00 -1.8510877e-06 0.0000000e+00 
0.0000000e+00 -1.7507671e-06 0.0000000e+00 
0.0000000e+00 -4.5399912e-07 0.0000000e+00 
0.0000000e+00 1.0943630e-06 0.0000000e+00 
0.0000000e+00 1.8182964e-06 0.0000000e+00 
0.0000000e+00 1.3325588e-06 0.0000000e+00 
0.0000000e+00 1.1772961e-07 0.0000000e+00 
0.0000000e+00 -9.7468512e-07 0.0000000e+00 
0.0000000e+00 -1.3510853e-06 0.0000000e+00 
0.0000000e+00 -9.5178626e-07 0.0000000e+00 
0.0000000e+00 -1.2507752e-07 0.0000000e+00 
0.0000000e+00 6.5136163e-07 0.0000000e+00 
0.0000000e+00 9.9871750e-07 0.0000000e+00 
0.0000000e+00 7.7926944e-07 0.0000000e+00 
0.0000000e+00 1.5510174e-07 0.0000000e+00 
0.0000000e+00 -4.8875052e-07 0.0000000e+00 
0.0000000e+00 -7.7206170e-07 0.0000000e+00 
0.0000000e+00 -5.6809841e-07 0.0000000e+00 
0.0000000e+00 -7.4844444e-08 0.0000000e+00 
0.0000000e+00 3.5674915e-07 0.0000000e+00 
0.0000000e+00 4.8818049e-07 0.0000000e+00 
0.0000000e+00 3.3084959e-07 0.0000000e+00 
0.0000000e+00 6.9915487e-08 0.0000000e+00 
0.0000000e+00 -1.1880302e-07 0.0000000e+00 
0.0000000e+00 -1.8756764e-07 0.0000000e+00 
0.0000000e+00 -1.9398571e-07 0.0000000e+00 
0.0000000e+00 0.0000000e+00 0.0000000e+00 
0.0000000e+00 0.0000000e+00 0.0000000e+00 
0.0000000e+00 0.0000000e+00 0.0000000e+00 
0.0000000e+00 0.0000000e+00 0.0000000e+00 
0.0000000e+00 0.0000000e+00 0.0000000e+00 
0.0000000e+00 0.0000000e+00 0.0000000e+00 
0.0000000e+00 0.0000000e+00 0.0000000e+00 
0.0000000e+00 0.0000000e+00 0.0000000e+00 
0.0000000e+00 0.0000000e+00 0.0000000e+00 
0.0000000e+00 0.0000000e+00 0.0000000e+00 
0.0000000e+00 0.0000000e+00 0.0000000e+00 
0.0000000e+00 0.0000000e+00 0.0000000e+00 
0.0000000e+00 0.0000000e+00 0.0000000e+00 
0.0000000e+00 0.0000000e+00 0.0000000e+00 
0.0000000e+00 0.0000000e+00 0.0000000e+00 
0.0000000e+00 0.0000000e+00 0.0000000e+00 
0.0000000e+00 0.0000000e+00 0.0000000e+00 
0.0000000e+00 0.0000000e+00 0.0000000e+00 
0.0000000e+00 0.0000000e+00 0.0000000e+00 
0.0000000e+00 0.0000000e+00 0.0000000e+00 
0.0000000e+00 0.0000000e+00 0.0000000e+00 
0.0000000e+00 0.0000000e+00 0.0000000e+00 
0.0000000e+00 0.0000000e+00 0.0000000e+00 
0.0000000e+00 0.0000000e+00 0.0000000e+00 
0.0000000e+00 0.0000000e+00 0.0000000e+00 
0.0000000e+00 0.0000000e+00 0.0000000e+00 
0.0000000e+00 0.0000000e+00 0.0000000e+00 
0.0000000e+00 0.0000000e+00 0.0000000e+00 
0.0000000e+00 0.0000000e+00 0.0000000e+00 
0.0000000e+00 0.0000000e+00 0.0000000e+00 
0.0000000e+00 0.0000000e+00 0.0000000e+00 
0.0000000e+00 0.0000000e+00 0.0000000e+00 
0.0000000e+00 0.0000000e+00 0.0000000e+00 
0.0000000e+00 0.0000000e+00 0.0000000e+00 
0.0000000e+00 0.0000000e+00 0.0000000e+00 
0.0000000e+00 0.0000000e+00 0.0000000e+00 
0.0000000e+00 0.0000000e+00 0.0000000e+00 
0.0000000e+00 0.0000000e+00 0.0000000e+00 
0.0000000e+00 0.0000000e+00 0.0000000e+00 
0.0000000e+00 0.0000000e+00 0.0000000e+00 
0.0000000e+00 0.0000000e+00 0.0000000e+00 
0.0000000e+00 0.0000000e+00 0.0000000e+00 
0.0000000e+00 0.0000000e+00 0.0000000e+00 
0.0000000e+00 0.0000000e+00 0.0000000e+00 
0.0000000e+00 0.0000000e+00 0.0000000e+00 
0.0000000e+00 0.0000000e+00 0.0000000e+00 
0.0000000e+00 0.0000000e+00 0.0000000e+00 
0.0000000e+00 0.0000000e+00 0.0000000e+00 
0.0000000e+00 0.0000000e+00 0.0000000e+00 
0.0000000e+00 0.0000000e+00 0.0000000e+00 
0.0000000e+00 0.0000000e+00 0.0000000e+00 
0.0000000e+00 0.0000000e+00 0.0000000e+00 
0.0000000e+00 0.0000000e+00 0.0000000e+00 
0.0000000e+00 0.0000000e+00 0.0000000e+00 
0.0000000e+00 0.0000000e+00 0.0000000e+00 
0.0000000e+00 0.0000000e+00 0.0000000e+00 
0.0000000e+00 0.0000000e+00 0.0000000e+00 