# vtk DataFile Version 4.0
vtk output
ASCII
DATASET UNSTRUCTURED_GRID
POINTS 2186 float
0.0000000e+00 0.0000000e+00 0.0000000e+00 
0.0000000e+00 0.0000000e+00 5.0000000e+01 
5.0000000e+00 0.0000000e+00 0.0000000e+00 
5.0000000e+00 0.0000000e+00 5.0000000e+01 
5.0000000e+00 1.0000000e+00 0.0000000e+00 
5.0000000e+00 1.0000000e+00 5.0000000e+01 
0.0000000e+00 1.0000000e+00 0.0000000e+00 
0.0000000e+00 1.0000000e+00 5.0000000e+01 
5.0000000e+00 2.0000000e+00 0.0000000e+00 
5.0000000e+00 2.0000000e+00 5.0000000e+01 
3.0000000e+00 2.0000000e+00 0.0000000e+00 
3.0000000e+00 2.0000000e+00 5.0000000e+01 
0.0000000e+00 2.0000000e+00 0.0000000e+00 
0.0000000e+00 2.0000000e+00 5.0000000e+01 
1.5000000e+00 3.0000000e+00 0.0000000e+00 
1.5000000e+00 3.0000000e+00 5.0000000e+01 
7.5000000e-01 3.0000000e+00 0.0000000e+00 
7.5000000e-01 3.0000000e+00 5.0000000e+01 
0.0000000e+00 3.0000000e+00 0.0000000e+00 
0.0000000e+00 3.0000000e+00 5.0000000e+01 
7.5000000e-01 3.0000000e+00 -2.5000000e+01 
7.5000000e-01 3.0000000e+00 -2.4500000e+01 
7.5000000e-01 3.0000000e+00 -2.4000000e+01 
7.5000000e-01 3.0000000e+00 -2.3500000e+01 
7.5000000e-01 3.0000000e+00 -2.3000000e+01 
7.5000000e-01 3.0000000e+00 -2.2500000e+01 
7.5000000e-01 3.0000000e+00 -2.2000000e+01 
7.5000000e-01 3.0000000e+00 -2.1500000e+01 
7.5000000e-01 3.0000000e+00 -2.1000000e+01 
7.5000000e-01 3.0000000e+00 -2.0500000e+01 
7.5000000e-01 3.0000000e+00 -2.0000000e+01 
7.5000000e-01 3.0000000e+00 -1.9500000e+01 
7.5000000e-01 3.0000000e+00 -1.9000000e+01 
7.5000000e-01 3.0000000e+00 -1.8500000e+01 
7.5000000e-01 3.0000000e+00 -1.8000000e+01 
7.5000000e-01 3.0000000e+00 -1.7500000e+01 
7.5000000e-01 3.0000000e+00 -1.7000000e+01 
7.5000000e-01 3.0000000e+00 -1.6500000e+01 
7.5000000e-01 3.0000000e+00 -1.6000000e+01 
7.5000000e-01 3.0000000e+00 -1.5500000e+01 
7.5000000e-01 3.0000000e+00 -1.5000000e+01 
7.5000000e-01 3.0000000e+00 -1.4500000e+01 
7.5000000e-01 3.0000000e+00 -1.4000000e+01 
7.5000000e-01 3.0000000e+00 -1.3500000e+01 
7.5000000e-01 3.0000000e+00 -1.3000000e+01 
7.5000000e-01 3.0000000e+00 -1.2500000e+01 
7.5000000e-01 3.0000000e+00 -1.2000000e+01 
7.5000000e-01 3.0000000e+00 -1.1500000e+01 
7.5000000e-01 3.0000000e+00 -1.1000000e+01 
7.5000000e-01 3.0000000e+00 -1.0500000e+01 
7.5000000e-01 3.0000000e+00 -1.0000000e+01 
7.5000000e-01 3.0000000e+00 -9.5000000e+00 
7.5000000e-01 3.0000000e+00 -9.0000000e+00 
7.5000000e-01 3.0000000e+00 -8.5000000e+00 
7.5000000e-01 3.0000000e+00 -8.0000000e+00 
7.5000000e-01 3.0000000e+00 -7.5000000e+00 
7.5000000e-01 3.0000000e+00 -7.0000000e+00 
7.5000000e-01 3.0000000e+00 -6.5000000e+00 
7.5000000e-01 3.0000000e+00 -6.0000000e+00 
7.5000000e-01 3.0000000e+00 -5.5000000e+00 
7.5000000e-01 3.0000000e+00 -5.0000000e+00 
7.5000000e-01 3.0000000e+00 -4.5000000e+00 
7.5000000e-01 3.0000000e+00 -4.0000000e+00 
7.5000000e-01 3.0000000e+00 -3.5000000e+00 
7.5000000e-01 3.0000000e+00 -3.0000000e+00 
7.5000000e-01 3.0000000e+00 -2.5000000e+00 
7.5000000e-01 3.0000000e+00 -2.0000000e+00 
7.5000000e-01 3.0000000e+00 -1.5000000e+00 
7.5000000e-01 3.0000000e+00 -1.0000000e+00 
7.5000000e-01 3.0000000e+00 -5.0000000e-01 
7.5000000e-01 3.0000000e+00 5.0000000e-01 
7.5000000e-01 3.0000000e+00 1.0000000e+00 
7.5000000e-01 3.0000000e+00 1.5000000e+00 
7.5000000e-01 3.0000000e+00 2.0000000e+00 
7.5000000e-01 3.0000000e+00 2.5000000e+00 
7.5000000e-01 3.0000000e+00 3.0000000e+00 
7.5000000e-01 3.0000000e+00 3.5000000e+00 
7.5000000e-01 3.0000000e+00 4.0000000e+00 
7.5000000e-01 3.0000000e+00 4.5000000e+00 
7.5000000e-01 3.0000000e+00 5.0000000e+00 
7.5000000e-01 3.0000000e+00 5.5000000e+00 
7.5000000e-01 3.0000000e+00 6.0000000e+00 
7.5000000e-01 3.0000000e+00 6.5000000e+00 
7.5000000e-01 3.0000000e+00 7.0000000e+00 
7.5000000e-01 3.0000000e+00 7.5000000e+00 
7.5000000e-01 3.0000000e+00 8.0000000e+00 
7.5000000e-01 3.0000000e+00 8.5000000e+00 
7.5000000e-01 3.0000000e+00 9.0000000e+00 
7.5000000e-01 3.0000000e+00 9.5000000e+00 
7.5000000e-01 3.0000000e+00 1.0000000e+01 
7.5000000e-01 3.0000000e+00 1.0500000e+01 
7.5000000e-01 3.0000000e+00 1.1000000e+01 
7.5000000e-01 3.0000000e+00 1.1500000e+01 
7.5000000e-01 3.0000000e+00 1.2000000e+01 
7.5000000e-01 3.0000000e+00 1.2500000e+01 
7.5000000e-01 3.0000000e+00 1.3000000e+01 
7.5000000e-01 3.0000000e+00 1.3500000e+01 
7.5000000e-01 3.0000000e+00 1.4000000e+01 
7.5000000e-01 3.0000000e+00 1.4500000e+01 
7.5000000e-01 3.0000000e+00 1.5000000e+01 
7.5000000e-01 3.0000000e+00 1.5500000e+01 
7.5000000e-01 3.0000000e+00 1.6000000e+01 
7.5000000e-01 3.0000000e+00 1.6500000e+01 
7.5000000e-01 3.0000000e+00 1.7000000e+01 
7.5000000e-01 3.0000000e+00 1.7500000e+01 
7.5000000e-01 3.0000000e+00 1.8000000e+01 
7.5000000e-01 3.0000000e+00 1.8500000e+01 
7.5000000e-01 3.0000000e+00 1.9000000e+01 
7.5000000e-01 3.0000000e+00 1.9500000e+01 
7.5000000e-01 3.0000000e+00 2.0000000e+01 
7.5000000e-01 3.0000000e+00 2.0500000e+01 
7.5000000e-01 3.0000000e+00 2.1000000e+01 
7.5000000e-01 3.0000000e+00 2.1500000e+01 
7.5000000e-01 3.0000000e+00 2.2000000e+01 
7.5000000e-01 3.0000000e+00 2.2500000e+01 
7.5000000e-01 3.0000000e+00 2.3000000e+01 
7.5000000e-01 3.0000000e+00 2.3500000e+01 
7.5000000e-01 3.0000000e+00 2.4000000e+01 
7.5000000e-01 3.0000000e+00 2.4500000e+01 
7.5000000e-01 3.0000000e+00 2.5000000e+01 
7.5000000e-01 3.0000000e+00 2.5500000e+01 
7.5000000e-01 3.0000000e+00 2.6000000e+01 
7.5000000e-01 3.0000000e+00 2.6500000e+01 
7.5000000e-01 3.0000000e+00 2.7000000e+01 
7.5000000e-01 3.0000000e+00 2.7500000e+01 
7.5000000e-01 3.0000000e+00 2.8000000e+01 
7.5000000e-01 3.0000000e+00 2.8500000e+01 
7.5000000e-01 3.0000000e+00 2.9000000e+01 
7.5000000e-01 3.0000000e+00 2.9500000e+01 
7.5000000e-01 3.0000000e+00 3.0000000e+01 
7.5000000e-01 3.0000000e+00 3.0500000e+01 
7.5000000e-01 3.0000000e+00 3.1000000e+01 
7.5000000e-01 3.0000000e+00 3.1500000e+01 
7.5000000e-01 3.0000000e+00 3.2000000e+01 
7.5000000e-01 3.0000000e+00 3.2500000e+01 
7.5000000e-01 3.0000000e+00 3.3000000e+01 
7.5000000e-01 3.0000000e+00 3.3500000e+01 
7.5000000e-01 3.0000000e+00 3.4000000e+01 
7.5000000e-01 3.0000000e+00 3.4500000e+01 
7.5000000e-01 3.0000000e+00 3.5000000e+01 
7.5000000e-01 3.0000000e+00 3.5500000e+01 
7.5000000e-01 3.0000000e+00 3.6000000e+01 
7.5000000e-01 3.0000000e+00 3.6500000e+01 
7.5000000e-01 3.0000000e+00 3.7000000e+01 
7.5000000e-01 3.0000000e+00 3.7500000e+01 
7.5000000e-01 3.0000000e+00 3.8000000e+01 
7.5000000e-01 3.0000000e+00 3.8500000e+01 
7.5000000e-01 3.0000000e+00 3.9000000e+01 
7.5000000e-01 3.0000000e+00 3.9500000e+01 
7.5000000e-01 3.0000000e+00 4.0000000e+01 
7.5000000e-01 3.0000000e+00 4.0500000e+01 
7.5000000e-01 3.0000000e+00 4.1000000e+01 
7.5000000e-01 3.0000000e+00 4.1500000e+01 
7.5000000e-01 3.0000000e+00 4.2000000e+01 
7.5000000e-01 3.0000000e+00 4.2500000e+01 
7.5000000e-01 3.0000000e+00 4.3000000e+01 
7.5000000e-01 3.0000000e+00 4.3500000e+01 
7.5000000e-01 3.0000000e+00 4.4000000e+01 
7.5000000e-01 3.0000000e+00 4.4500000e+01 
7.5000000e-01 3.0000000e+00 4.5000000e+01 
7.5000000e-01 3.0000000e+00 4.5500000e+01 
7.5000000e-01 3.0000000e+00 4.6000000e+01 
7.5000000e-01 3.0000000e+00 4.6500000e+01 
7.5000000e-01 3.0000000e+00 4.7000000e+01 
7.5000000e-01 3.0000000e+00 4.7500000e+01 
7.5000000e-01 3.0000000e+00 4.8000000e+01 
7.5000000e-01 3.0000000e+00 4.8500000e+01 
7.5000000e-01 3.0000000e+00 4.9000000e+01 
7.5000000e-01 3.0000000e+00 4.9500000e+01 
7.5000000e-01 3.0000000e+00 5.0500000e+01 
7.5000000e-01 3.0000000e+00 5.1000000e+01 
7.5000000e-01 3.0000000e+00 5.1500000e+01 
7.5000000e-01 3.0000000e+00 5.2000000e+01 
7.5000000e-01 3.0000000e+00 5.2500000e+01 
7.5000000e-01 3.0000000e+00 5.3000000e+01 
7.5000000e-01 3.0000000e+00 5.3500000e+01 
7.5000000e-01 3.0000000e+00 5.4000000e+01 
7.5000000e-01 3.0000000e+00 5.4500000e+01 
7.5000000e-01 3.0000000e+00 5.5000000e+01 
7.5000000e-01 3.0000000e+00 5.5500000e+01 
7.5000000e-01 3.0000000e+00 5.6000000e+01 
7.5000000e-01 3.0000000e+00 5.6500000e+01 
7.5000000e-01 3.0000000e+00 5.7000000e+01 
7.5000000e-01 3.0000000e+00 5.7500000e+01 
7.5000000e-01 3.0000000e+00 5.8000000e+01 
7.5000000e-01 3.0000000e+00 5.8500000e+01 
7.5000000e-01 3.0000000e+00 5.9000000e+01 
7.5000000e-01 3.0000000e+00 5.9500000e+01 
7.5000000e-01 3.0000000e+00 6.0000000e+01 
7.5000000e-01 3.0000000e+00 6.0500000e+01 
7.5000000e-01 3.0000000e+00 6.1000000e+01 
7.5000000e-01 3.0000000e+00 6.1500000e+01 
7.5000000e-01 3.0000000e+00 6.2000000e+01 
7.5000000e-01 3.0000000e+00 6.2500000e+01 
7.5000000e-01 3.0000000e+00 6.3000000e+01 
7.5000000e-01 3.0000000e+00 6.3500000e+01 
7.5000000e-01 3.0000000e+00 6.4000000e+01 
7.5000000e-01 3.0000000e+00 6.4500000e+01 
7.5000000e-01 3.0000000e+00 6.5000000e+01 
7.5000000e-01 3.0000000e+00 6.5500000e+01 
7.5000000e-01 3.0000000e+00 6.6000000e+01 
7.5000000e-01 3.0000000e+00 6.6500000e+01 
7.5000000e-01 3.0000000e+00 6.7000000e+01 
7.5000000e-01 3.0000000e+00 6.7500000e+01 
7.5000000e-01 3.0000000e+00 6.8000000e+01 
7.5000000e-01 3.0000000e+00 6.8500000e+01 
7.5000000e-01 3.0000000e+00 6.9000000e+01 
7.5000000e-01 3.0000000e+00 6.9500000e+01 
7.5000000e-01 3.0250001e+00 -2.5000000e+01 
7.5000000e-01 3.0250001e+00 -2.4500000e+01 
7.5000000e-01 3.0250001e+00 -2.4000000e+01 
7.5000000e-01 3.0250001e+00 -2.3500000e+01 
7.5000000e-01 3.0250001e+00 -2.3000000e+01 
7.5000000e-01 3.0250001e+00 -2.2500000e+01 
7.5000000e-01 3.0250001e+00 -2.2000000e+01 
7.5000000e-01 3.0250001e+00 -2.1500000e+01 
7.5000000e-01 3.0250001e+00 -2.1000000e+01 
7.5000000e-01 3.0250001e+00 -2.0500000e+01 
7.5000000e-01 3.0250001e+00 -2.0000000e+01 
7.5000000e-01 3.0250001e+00 -1.9500000e+01 
7.5000000e-01 3.0250001e+00 -1.9000000e+01 
7.5000000e-01 3.0250001e+00 -1.8500000e+01 
7.5000000e-01 3.0250001e+00 -1.8000000e+01 
7.5000000e-01 3.0250001e+00 -1.7500000e+01 
7.5000000e-01 3.0250001e+00 -1.7000000e+01 
7.5000000e-01 3.0250001e+00 -1.6500000e+01 
7.5000000e-01 3.0250001e+00 -1.6000000e+01 
7.5000000e-01 3.0250001e+00 -1.5500000e+01 
[...]
POINT_DATA 2186
FIELD FieldData 3
DISPLACEMENT 3 2186  float
0.0000000e+00 0.0000000e+00 0.0000000e+00 
0.0000000e+00 0.0000000e+00 0.0000000e+00 
0.0000000e+00 0.0000000e+00 0.0000000e+00 
0.0000000e+00 0.0000000e+00 0.0000000e+00 
3.3207907e-06 -3.2571772e-06 -5.9730196e-06 
-5.3534649e-07 2.4406958e-07 -8.1656543e-07 
0.0000000e+00 6.9730237e-07 0.0000000e+00 
0.0000000e+00 3.6484636e-08 0.0000000e+00 
5.0231520e-06 -1.9649317e-06 -5.8830856e-06 
-1.2250632e-07 -1.3657185e-09 -4.1029966e-07 
2.9429391e-06 -3.0583954e-06 -6.7957253e-06 
-8.1851383e-08 2.0061170e-06 -1.8950173e-07 
0.0000000e+00 -6.6450895e-07 0.0000000e+00 
0.0000000e+00 -7.8178095e-07 0.0000000e+00 
1.0089772e-05 -1.5289716e-06 -2.5514886e-05 
-3.6526393e-07 2.0517330e-06 -1.4286426e-06 
8.4181456e-06 1.4885325e-05 -1.1029114e-05 
-3.4510867e-06 -1.9500237e-06 -3.0254193e-06 
0.0000000e+00 1.8960836e-06 0.0000000e+00 
0.0000000e+00 -1.3856087e-06 0.0000000e+00 
0.0000000e+00 3.4999039e-06 0.0000000e+00 
0.0000000e+00 3.4304098e-06 0.0000000e+00 
0.0000000e+00 2.8382660e-06 0.0000000e+00 
0.0000000e+00 1.2131829e-06 0.0000000e+00 
0.0000000e+00 -1.3193402e-06 0.0000000e+00 
0.0000000e+00 -3.7416737e-06 0.0000000e+00 
0.0000000e+00 -4.6826840e-06 0.0000000e+00 
0.0000000e+00 -3.4464413e-06 0.0000000e+00 
0.0000000e+00 -7.2766494e-07 0.0000000e+00 
0.0000000e+00 1.6673220e-06 0.0000000e+00 
0.0000000e+00 2.0435339e-06 0.0000000e+00 
0.0000000e+00 1.2123138e-07 0.0000000e+00 
0.0000000e+00 -2.6276427e-06 0.0000000e+00 
0.0000000e+00 -3.9595143e-06 0.0000000e+00 
0.0000000e+00 -2.4535595e-06 0.0000000e+00 
0.0000000e+00 1.4800167e-06 0.0000000e+00 
0.0000000e+00 5.8954688e-06 0.0000000e+00 
0.0000000e+00 8.6035780e-06 0.0000000e+00 
0.0000000e+00 8.4462745e-06 0.0000000e+00 
0.0000000e+00 5.6765389e-06 0.0000000e+00 
0.0000000e+00 1.3683942e-06 0.0000000e+00 
0.0000000e+00 -3.4401064e-06 0.0000000e+00 
0.0000000e+00 -8.0721866e-06 0.0000000e+00 
0.0000000e+00 -1.1858241e-05 0.0000000e+00 
0.0000000e+00 -1.3704303e-05 0.0000000e+00 
0.0000000e+00 -1.2276948e-05 0.0000000e+00 
0.0000000e+00 -6.8665508e-06 0.0000000e+00 
0.0000000e+00 1.7019238e-06 0.0000000e+00 
0.0000000e+00 1.0880567e-05 0.0000000e+00 
0.0000000e+00 1.7275472e-05 0.0000000e+00 
0.0000000e+00 1.8276422e-05 0.0000000e+00 
0.0000000e+00 1.3553550e-05 0.0000000e+00 
0.0000000e+00 5.3946083e-06 0.0000000e+00 
0.0000000e+00 -2.5212628e-06 0.0000000e+00 
0.0000000e+00 -7.1884065e-06 0.0000000e+00 
0.0000000e+00 -7.7833529e-06 0.0000000e+00 
0.0000000e+00 -5.6943027e-06 0.0000000e+00 
0.0000000e+00 -3.2857613e-06 0.0000000e+00 
0.0000000e+00 -2.3789673e-06 0.0000000e+00 
0.0000000e+00 -3.4016914e-06 0.0000000e+00 
0.0000000e+00 -5.6062145e-06 0.0000000e+00 
0.0000000e+00 -7.9907304e-06 0.0000000e+00 
0.0000000e+00 -9.9914587e-06 0.0000000e+00 
0.0000000e+00 -1.1289753e-05 0.0000000e+00 
0.0000000e+00 -1.1192768e-05 0.0000000e+00 
0.0000000e+00 -8.6961772e-06 0.0000000e+00 
0.0000000e+00 -3.4670652e-06 0.0000000e+00 
0.0000000e+00 3.3675090e-06 0.0000000e+00 
0.0000000e+00 9.6715385e-06 0.0000000e+00 
0.0000000e+00 1.3645956e-05 0.0000000e+00 
1.3020453e-05 1.4769588e-05 -2.6021387e-06 
2.0129130e-06 1.5483360e-05 -2.4953542e-06 
3.9303831e-07 1.8795723e-05 -2.4187766e-06 
5.4355655e-06 2.4750210e-05 6.7161595e-06 
-1.7684252e-06 2.9626644e-05 -3.3042880e-07 
-2.5963329e-06 3.0433779e-05 9.1894304e-07 
-1.2253283e-05 2.6252685e-05 2.1849555e-06 
-1.5840251e-05 1.8399089e-05 8.8160323e-06 
-1.9104884e-05 1.1998978e-05 6.5311056e-06 
-2.0255779e-05 1.2353486e-05 8.8104389e-07 
-2.3252669e-05 1.9456484e-05 -9.7740494e-06 
-2.0137146e-05 2.5034282e-05 -2.0240044e-05 
-1.3042111e-05 2.2722350e-05 -2.4388897e-05 
-1.4383651e-05 1.1832629e-05 -1.8000539e-05 
-1.1174789e-05 2.9545988e-06 -1.5472979e-05 
-8.6395921e-06 1.0334622e-05 -6.3815442e-06 
-1.4846629e-05 3.2876516e-05 -2.0778891e-06 
-1.0651846e-05 5.3422598e-05 -1.0850212e-06 
4.8471861e-06 5.7830217e-05 6.2556531e-08 
6.6099246e-06 4.3342217e-05 1.4414856e-05 
1.1100215e-05 3.4698809e-05 2.0948746e-05 
1.1529401e-05 6.7840236e-05 4.3422788e-05 
8.7549661e-06 1.3407182e-04 7.4459982e-05 
1.3862886e-05 1.6444206e-04 8.3015053e-05 
1.2477685e-05 8.2027029e-05 1.0307321e-04 
-1.3733909e-05 -1.4954583e-04 1.8087309e-04 
-4.3005632e-05 -5.2477838e-04 2.0277548e-04 
-6.0216531e-05 -1.0605562e-03 1.7509877e-04 
-9.9177589e-05 -1.8429037e-03 2.9175699e-04 
-1.3206640e-04 -2.9411523e-03 1.4398356e-04 
-2.1265988e-04 -4.2546364e-03 2.3028706e-04 
-2.7017156e-04 -5.1704803e-03 7.4486554e-05 
-3.3106373e-04 -5.0114249e-03 1.5632640e-05 
-5.6362106e-04 -4.5018438e-03 -6.6131033e-05 
-2.5276587e-04 -4.2848238e-03 -2.0988131e-05 
-2.0561385e-04 -4.5037279e-03 -1.1019616e-04 
-2.1643451e-04 -4.5662019e-03 -2.0205218e-04 
-1.8868725e-04 -3.5589086e-03 -1.8680120e-04 
-1.0737003e-04 -2.1515405e-03 -3.1882257e-04 
-6.1891522e-05 -9.5413672e-04 -1.9325636e-04 
-9.4454290e-06 -2.0645847e-04 -2.0255650e-04 
5.7207990e-06 1.3954053e-04 -1.2018693e-04 
2.3296578e-05 2.3675682e-04 -8.1030674e-05 
1.9213436e-05 2.1946634e-04 -4.8108272e-05 
1.2008385e-05 1.6396973e-04 -1.4072040e-05 
6.5200752e-06 9.8502751e-05 -4.7420635e-06 
-6.7862197e-06 3.9499242e-05 1.1302100e-05 
-1.2976828e-05 1.5235288e-06 1.2009875e-05 
-9.5246833e-06 -1.0590619e-05 1.5774671e-05 
-1.8394394e-05 -7.8001367e-06 1.6090087e-05 
-1.3701990e-05 -1.8366095e-06 1.8359968e-05 
-1.2942214e-05 8.1808248e-06 2.2188768e-05 
-1.8444916e-05 2.4173405e-05 1.7610153e-05 
-1.3302166e-05 3.4820361e-05 1.1648164e-05 
-1.4385107e-05 3.2009510e-05 -2.1411607e-07 
-1.2637635e-05 2.2786706e-05 -5.8620121e-06 
-1.2637110e-05 2.4702502e-05 -1.4651956e-06 
-5.2354894e-06 4.7880763e-05 2.9650773e-06 
-3.4983685e-07 7.9144462e-05 1.7635941e-05 
2.5748902e-06 8.9667490e-05 2.4037239e-05 
9.7911661e-06 7.2841001e-05 1.4479141e-05 
1.1097371e-05 5.0066905e-05 2.0900181e-05 
7.0272063e-06 5.5762473e-05 3.4299534e-05 
6.7407736e-06 9.1291564e-05 4.4662869e-05 
1.5160123e-05 7.4543554e-05 1.0592285e-04 
1.5463207e-05 -1.2814497e-04 1.2645881e-04 
-2.1921980e-05 -5.8941694e-04 2.0318109e-04 
-6.1989995e-05 -1.2936157e-03 1.7950742e-04 
-1.2078332e-04 -2.2182877e-03 2.9120062e-04 
-1.4660419e-04 -3.3011048e-03 1.3318956e-04 
-2.3307788e-04 -4.4029998e-03 2.1787305e-04 
-2.9296102e-04 -5.0088079e-03 7.6216478e-05 
-3.1667372e-04 -4.7242087e-03 -5.7197813e-06 
-2.5184389e-04 -4.2754300e-03 -1.9410734e-05 
-3.5022371e-04 -4.2524915e-03 -5.2740132e-05 
-7.6821816e-05 -4.4888742e-03 -1.1450987e-04 
-3.4580610e-04 -4.3785376e-03 -2.0723134e-04 
-9.0447436e-05 -3.2795458e-03 -2.0161430e-04 
-1.6302596e-04 -1.9100007e-03 -3.1775617e-04 
-4.0807248e-05 -8.2703459e-04 -2.2850910e-04 
-8.4822350e-06 -1.7777695e-04 -2.0689826e-04 
1.1149618e-05 1.2491010e-04 -1.2222122e-04 
2.7268348e-05 2.2134259e-04 -7.0646835e-05 
2.8630242e-05 2.0564607e-04 -3.7082900e-05 
2.3283999e-05 1.3381409e-04 -5.5928149e-06 
1.5655032e-05 5.3080901e-05 6.9699871e-07 
1.0688398e-05 5.8469152e-07 1.4208099e-05 
8.8435618e-06 -1.8066967e-05 1.3741906e-05 
3.0761146e-06 -1.9582823e-05 1.7018567e-05 
1.0097372e-06 -1.8574232e-05 1.9489726e-05 
3.2067344e-06 -1.6514377e-05 1.7586406e-05 
-9.2993139e-07 -9.3097524e-06 1.7819795e-05 
-5.0295680e-06 1.9906572e-06 1.4634421e-05 
-2.3779476e-06 9.7840075e-06 9.1486163e-06 
-7.0780065e-06 9.3674644e-06 4.9949546e-07 
-5.0019548e-06 4.4680592e-06 -3.7974530e-06 
2.5066263e-06 1.1277195e-06 -1.4451979e-06 
2.0258269e-06 8.1189762e-07 2.0176929e-06 
1.8325136e-06 4.5493695e-07 4.5695965e-06 
0.0000000e+00 -4.8403917e-06 0.0000000e+00 
0.0000000e+00 -5.6585841e-06 0.0000000e+00 
0.0000000e+00 -3.8216817e-06 0.0000000e+00 
0.0000000e+00 -1.4590910e-06 0.0000000e+00 
0.0000000e+00 -7.2159213e-07 0.0000000e+00 
0.0000000e+00 -1.3769853e-06 0.0000000e+00 
0.0000000e+00 -1.5623413e-06 0.0000000e+00 
0.0000000e+00 -3.5499301e-07 0.0000000e+00 
0.0000000e+00 1.2105239e-06 0.0000000e+00 
0.0000000e+00 1.6738289e-06 0.0000000e+00 
0.0000000e+00 9.7913926e-07 0.0000000e+00 
0.0000000e+00 3.2386123e-07 0.0000000e+00 
0.0000000e+00 4.8705965e-07 0.0000000e+00 
0.0000000e+00 8.9932547e-07 0.0000000e+00 
0.0000000e+00 5.3127422e-07 0.0000000e+00 
0.0000000e+00 -6.7313897e-07 0.0000000e+00 
0.0000000e+00 -1.6403361e-06 0.0000000e+00 
0.0000000e+00 -1.4052318e-06 0.0000000e+00 
0.0000000e+00 -1.8599310e-07 0.0000000e+00 
0.0000000e+00 9.2344538e-07 0.0000000e+00 
0.0000000e+00 1.1370272e-06 0.0000000e+00 
0.0000000e+00 6.1500134e-07 0.0000000e+00 
0.0000000e+00 -5.3238804e-09 0.0000000e+00 
0.0000000e+00 -3.9020998e-07 0.0000000e+00 
0.0000000e+00 -6.3782107e-07 0.0000000e+00 
0.0000000e+00 -8.0946495e-07 0.0000000e+00 
0.0000000e+00 -6.6769280e-07 0.0000000e+00 
0.0000000e+00 -9.5453663e-09 0.0000000e+00 
0.0000000e+00 8.9486792e-07 0.0000000e+00 
0.0000000e+00 1.3999723e-06 0.0000000e+00 
0.0000000e+00 1.0665530e-06 0.0000000e+00 
0.0000000e+00 8.4180733e-08 0.0000000e+00 
0.0000000e+00 -9.0073826e-07 0.0000000e+00 
0.0000000e+00 -1.3241548e-06 0.0000000e+00 
0.0000000e+00 -1.0704000e-06 0.0000000e+00 
0.0000000e+00 -4.1337242e-07 0.0000000e+00 
0.0000000e+00 2.7671649e-07 0.0000000e+00 
0.0000000e+00 7.5165190e-07 0.0000000e+00 
0.0000000e+00 9.1523822e-07 0.0000000e+00 
0.0000000e+00 3.5015030e-06 0.0000000e+00 
0.0000000e+00 3.4295667e-06 0.0000000e+00 
0.0000000e+00 2.8334794e-06 0.0000000e+00 
0.0000000e+00 1.2085108e-06 0.0000000e+00 
0.0000000e+00 -1.3174430e-06 0.0000000e+00 
0.0000000e+00 -3.7300924e-06 0.0000000e+00 
0.0000000e+00 -4.6660448e-06 0.0000000e+00 
0.0000000e+00 -3.4364698e-06 0.0000000e+00 
0.0000000e+00 -7.3583072e-07 0.0000000e+00 
0.0000000e+00 1.6402623e-06 0.0000000e+00 
0.0000000e+00 2.0119192e-06 0.0000000e+00 
0.0000000e+00 1.0602486e-07 0.0000000e+00 
0.0000000e+00 -2.6150117e-06 0.0000000e+00 
0.0000000e+00 -3.9265738e-06 0.0000000e+00 
0.0000000e+00 -2.4206356e-06 0.0000000e+00 
0.0000000e+00 1.4953926e-06 0.0000000e+00 
0.0000000e+00 5.8897776e-06 0.0000000e+00 
0.0000000e+00 8.5864240e-06 0.0000000e+00 
0.0000000e+00 8.4304020e-06 0.0000000e+00 
0.0000000e+00 5.6676231e-06 0.0000000e+00 
0.0000000e+00 1.3628180e-06 0.0000000e+00 
0.0000000e+00 -3.4477541e-06 0.0000000e+00 
0.0000000e+00 -8.0799691e-06 0.0000000e+00 
0.0000000e+00 -1.1857367e-05 0.0000000e+00 
0.0000000e+00 -1.3689671e-05 0.0000000e+00 
0.0000000e+00 -1.2254832e-05 0.0000000e+00 
0.0000000e+00 -6.8500281e-06 0.0000000e+00 
0.0000000e+00 1.7030515e-06 0.0000000e+00 
0.0000000e+00 1.0864110e-05 0.0000000e+00 
0.0000000e+00 1.7246304e-05 0.0000000e+00 
0.0000000e+00 1.8247316e-05 0.0000000e+00 
0.0000000e+00 1.3543235e-05 0.0000000e+00 
0.0000000e+00 5.4158304e-06 0.0000000e+00 
0.0000000e+00 -2.4749863e-06 0.0000000e+00 
0.0000000e+00 -7.1403992e-06 0.0000000e+00 
0.0000000e+00 -7.7568729e-06 0.0000000e+00 
0.0000000e+00 -5.6994586e-06 0.0000000e+00 
0.0000000e+00 -3.3183446e-06 0.0000000e+00 
0.0000000e+00 -2.4235997e-06 0.0000000e+00 
0.0000000e+00 -3.4377777e-06 0.0000000e+00 
0.0000000e+00 -5.6217759e-06 0.0000000e+00 
0.0000000e+00 -7.9926822e-06 0.0000000e+00 
0.0000000e+00 -9.9936760e-06 0.0000000e+00 
0.0000000e+00 -1.1291777e-05 0.0000000e+00 
0.0000000e+00 -1.1183985e-05 0.0000000e+00 
0.0000000e+00 -8.6821601e-06 0.0000000e+00 
0.0000000e+00 -3.4721163e-06 0.0000000e+00 
0.0000000e+00 3.3336082e-06 0.0000000e+00 
0.0000000e+00 9.6325393e-06 0.0000000e+00 
0.0000000e+00 1.3633537e-05 0.0000000e+00 
0.0000000e+00 1.4944814e-05 0.0000000e+00 
0.0000000e+00 1.4808935e-05 0.0000000e+00 
0.0000000e+00 1.5491125e-05 0.0000000e+00 
0.0000000e+00 1.8892102e-05 0.0000000e+00 
0.0000000e+00 2.4739273e-05 0.0000000e+00 
0.0000000e+00 2.9630781e-05 0.0000000e+00 
0.0000000e+00 3.0444382e-05 0.0000000e+00 
0.0000000e+00 2.6140997e-05 0.0000000e+00 
0.0000000e+00 1.8361987e-05 0.0000000e+00 
0.0000000e+00 1.2110117e-05 0.0000000e+00 
0.0000000e+00 1.2617397e-05 0.0000000e+00 
0.0000000e+00 1.9530444e-05 0.0000000e+00 
0.0000000e+00 2.5040163e-05 0.0000000e+00 
0.0000000e+00 2.2298451e-05 0.0000000e+00 
0.0000000e+00 1.1494011e-05 0.0000000e+00 
0.0000000e+00 3.3507788e-06 0.0000000e+00 
0.0000000e+00 1.0969350e-05 0.0000000e+00 
0.0000000e+00 3.3071628e-05 0.0000000e+00 
0.0000000e+00 5.3383359e-05 0.0000000e+00 
0.0000000e+00 5.6786146e-05 0.0000000e+00 
0.0000000e+00 4.2449017e-05 0.0000000e+00 
0.0000000e+00 3.5859022e-05 0.0000000e+00 
0.0000000e+00 7.0133181e-05 0.0000000e+00 
0.0000000e+00 1.3530301e-04 0.0000000e+00 
0.0000000e+00 1.6369182e-04 0.0000000e+00 
0.0000000e+00 8.0102247e-05 0.0000000e+00 
0.0000000e+00 -1.4952100e-04 0.0000000e+00 
0.0000000e+00 -5.2279484e-04 0.0000000e+00 
0.0000000e+00 -1.0608049e-03 0.0000000e+00 
0.0000000e+00 -1.8475960e-03 0.0000000e+00 
0.0000000e+00 -2.9587226e-03 0.0000000e+00 
0.0000000e+00 -4.2774626e-03 0.0000000e+00 
0.0000000e+00 -5.2029090e-03 0.0000000e+00 
0.0000000e+00 -5.0358735e-03 0.0000000e+00 
0.0000000e+00 -4.5185029e-03 0.0000000e+00 
0.0000000e+00 -4.3100761e-03 0.0000000e+00 
0.0000000e+00 -4.5355484e-03 0.0000000e+00 
0.0000000e+00 -4.5912918e-03 0.0000000e+00 
0.0000000e+00 -3.5830587e-03 0.0000000e+00 
0.0000000e+00 -2.1651846e-03 0.0000000e+00 
0.0000000e+00 -9.6385519e-04 0.0000000e+00 
0.0000000e+00 -2.0899688e-04 0.0000000e+00 
0.0000000e+00 1.4120674e-04 0.0000000e+00 
0.0000000e+00 2.3885538e-04 0.0000000e+00 
0.0000000e+00 2.2072268e-04 0.0000000e+00 
0.0000000e+00 1.6427234e-04 0.0000000e+00 
0.0000000e+00 9.8922865e-05 0.0000000e+00 
0.0000000e+00 4.0095241e-05 0.0000000e+00 
0.0000000e+00 1.9810238e-06 0.0000000e+00 
0.0000000e+00 -1.0827755e-05 0.0000000e+00 
0.0000000e+00 -8.4109170e-06 0.0000000e+00 
0.0000000e+00 -1.7556628e-06 0.0000000e+00 
0.0000000e+00 8.9123514e-06 0.0000000e+00 
0.0000000e+00 2.4186025e-05 0.0000000e+00 
0.0000000e+00 3.4229564e-05 0.0000000e+00 
0.0000000e+00 3.1423646e-05 0.0000000e+00 
0.0000000e+00 2.2920596e-05 0.0000000e+00 
0.0000000e+00 2.5677058e-05 0.0000000e+00 
0.0000000e+00 4.8686441e-05 0.0000000e+00 
0.0000000e+00 7.8588273e-05 0.0000000e+00 
0.0000000e+00 8.8849483e-05 0.0000000e+00 
0.0000000e+00 7.1993571e-05 0.0000000e+00 
0.0000000e+00 5.0557082e-05 0.0000000e+00 
0.0000000e+00 5.8821926e-05 0.0000000e+00 
0.0000000e+00 9.4069030e-05 0.0000000e+00 
0.0000000e+00 7.3224277e-05 0.0000000e+00 
0.0000000e+00 -1.3125062e-04 0.0000000e+00 
0.0000000e+00 -5.9081736e-04 0.0000000e+00 
0.0000000e+00 -1.2962800e-03 0.0000000e+00 
0.0000000e+00 -2.2203359e-03 0.0000000e+00 
0.0000000e+00 -3.3164483e-03 0.0000000e+00 
0.0000000e+00 -4.4266335e-03 0.0000000e+00 
0.0000000e+00 -5.0440612e-03 0.0000000e+00 
0.0000000e+00 -4.7476371e-03 0.0000000e+00 
0.0000000e+00 -4.3028365e-03 0.0000000e+00 
0.0000000e+00 -4.2690621e-03 0.0000000e+00 
0.0000000e+00 -4.5178453e-03 0.0000000e+00 
0.0000000e+00 -4.4042752e-03 0.0000000e+00 
0.0000000e+00 -3.3038699e-03 0.0000000e+00 
0.0000000e+00 -1.9240571e-03 0.0000000e+00 
0.0000000e+00 -8.3395385e-04 0.0000000e+00 
0.0000000e+00 -1.7863100e-04 0.0000000e+00 
0.0000000e+00 1.2667108e-04 0.0000000e+00 
0.0000000e+00 2.2241182e-04 0.0000000e+00 
0.0000000e+00 2.0601855e-04 0.0000000e+00 
0.0000000e+00 1.3450555e-04 0.0000000e+00 
0.0000000e+00 5.4351440e-05 0.0000000e+00 
0.0000000e+00 1.1504007e-06 0.0000000e+00 
0.0000000e+00 -1.8423638e-05 0.0000000e+00 
0.0000000e+00 -2.0034126e-05 0.0000000e+00 
0.0000000e+00 -1.8561905e-05 0.0000000e+00 
0.0000000e+00 -1.6270431e-05 0.0000000e+00 
0.0000000e+00 -9.2100299e-06 0.0000000e+00 
0.0000000e+00 1.7807168e-06 0.0000000e+00 
0.0000000e+00 9.5265459e-06 0.0000000e+00 
0.0000000e+00 9.3940498e-06 0.0000000e+00 
0.0000000e+00 4.6684486e-06 0.0000000e+00 
0.0000000e+00 1.2303877e-06 0.0000000e+00 
0.0000000e+00 7.0868771e-07 0.0000000e+00 
0.0000000e+00 3.3969783e-07 0.0000000e+00 
0.0000000e+00 -1.9375250e-06 0.0000000e+00 
0.0000000e+00 -4.7611288e-06 0.0000000e+00 
0.0000000e+00 -5.6000504e-06 0.0000000e+00 
0.0000000e+00 -3.8591420e-06 0.0000000e+00 
0.0000000e+00 -1.5399761e-06 0.0000000e+00 
0.0000000e+00 -7.4617992e-07 0.0000000e+00 
0.0000000e+00 -1.3277665e-06 0.0000000e+00 
0.0000000e+00 -1.5141009e-06 0.0000000e+00 
0.0000000e+00 -3.6944783e-07 0.0000000e+00 
0.0000000e+00 1.1591827e-06 0.0000000e+00 
0.0000000e+00 1.6553757e-06 0.0000000e+00 
0.0000000e+00 1.0152996e-06 0.0000000e+00 
0.0000000e+00 3.6640631e-07 0.0000000e+00 
0.0000000e+00 4.8379462e-07 0.0000000e+00 
0.0000000e+00 8.5777179e-07 0.0000000e+00 
0.0000000e+00 5.0383869e-07 0.0000000e+00 
0.0000000e+00 -6.5586408e-07 0.0000000e+00 
0.0000000e+00 -1.6028710e-06 0.0000000e+00 
0.0000000e+00 -1.3915790e-06 0.0000000e+00 
0.0000000e+00 -2.0597756e-07 0.0000000e+00 
0.0000000e+00 8.9958593e-07 0.0000000e+00 
0.0000000e+00 1.1361938e-06 0.0000000e+00 
0.0000000e+00 6.2965620e-07 0.0000000e+00 
0.0000000e+00 -5.0106969e-10 0.0000000e+00 
0.0000000e+00 -4.0165574e-07 0.0000000e+00 
0.0000000e+00 -6.4648225e-07 0.0000000e+00 
0.0000000e+00 -7.9941623e-07 0.0000000e+00 
0.0000000e+00 -6.4865787e-07 0.0000000e+00 
0.0000000e+00 -4.0660146e-09 0.0000000e+00 
0.0000000e+00 8.8028156e-07 0.0000000e+00 
0.0000000e+00 1.3817382e-06 0.0000000e+00 
0.0000000e+00 1.0626701e-06 0.0000000e+00 
0.0000000e+00 9.4142976e-08 0.0000000e+00 
0.0000000e+00 -8.9099092e-07 0.0000000e+00 
0.0000000e+00 -1.3229090e-06 0.0000000e+00 
0.0000000e+00 -1.0728365e-06 0.0000000e+00 
0.0000000e+00 -4.1249078e-07 0.0000000e+00 
0.0000000e+00 2.7935786e-07 0.0000000e+00 
0.0000000e+00 7.5015686e-07 0.0000000e+00 
0.0000000e+00 9.1025055e-07 0.0000000e+00 
0.0000000e+00 0.0000000e+00 0.0000000e+00 
0.0000000e+00 0.0000000e+00 0.0000000e+00 
0.0000000e+00 0.0000000e+00 0.0000000e+00 
0.0000000e+00 0.0000000e+00 0.0000000e+00 
0.0000000e+00 0.0000000e+00 0.0000000e+00 
0.0000000e+00 0.0000000e+00 0.0000000e+00 
0.0000000e+00 0.0000000e+00 0.0000000e+00 
0.0000000e+00 0.0000000e+00 0.0000000e+00 
0.0000000e+00 0.0000000e+00 0.0000000e+00 
0.0000000e+00 0.0000000e+00 0.0000000e+00 
0.0000000e+00 0.0000000e+00 0.0000000e+00 
0.0000000e+00 0.0000000e+00 0.0000000e+00 
0.0000000e+00 0.0000000e+00 0.0000000e+00 
0.0000000e+00 0.0000000e+00 0.0000000e+00 
0.0000000e+00 0.0000000e+00 0.0000000e+00 
0.0000000e+00 0.0000000e+00 0.0000000e+00 
0.0000000e+00 0.0000000e+00 0.0000000e+00 
0.0000000e+00 0.0000000e+00 0.0000000e+00 
0.0000000e+00 0.0000000e+00 0.0000000e+00 
0.0000000e+00 0.0000000e+00 0.0000000e+00 
0.0000000e+00 0.0000000e+00 0.0000000e+00 
0.0000000e+00 0.0000000e+00 0.0000000e+00 
0.0000000e+00 0.0000000e+00 0.0000000e+00 
0.0000000e+00 0.0000000e+00 0.0000000e+00 
0.0000000e+00 0.0000000e+00 0.0000000e+00 
0.0000000e+00 0.0000000e+00 0.0000000e+00 
0.0000000e+00 0.0000000e+00 0.0000000e+00 
0.0000000e+00 0.0000000e+00 0.0000000e+00 
0.0000000e+00 0.0000000e+00 0.0000000e+00 
0.0000000e+00 0.0000000e+00 0.0000000e+00 
0.0000000e+00 0.0000000e+00 0.0000000e+00 
0.0000000e+00 0.0000000e+00 0.0000000e+00 
0.0000000e+00 0.0000000e+00 0.0000000e+00 
0.0000000e+00 0.0000000e+00 0.0000000e+00 
0.0000000e+00 0.0000000e+00 0.0000000e+00 
0.0000000e+00 0.0000000e+00 0.0000000e+00 
0.0000000e+00 0.0000000e+00 0.0000000e+00 
0.0000000e+00 0.0000000e+00 0.0000000e+00 
0.0000000e+00 0.0000000e+00 0.0000000e+00 
0.0000000e+00 0.0000000e+00 0.0000000e+00 
0.0000000e+00 0.0000000e+00 0.0000000e+00 
0.0000000e+00 0.0000000e+00 0.0000000e+00 
0.0000000e+00 0.0000000e+00 0.0000000e+00 
0.0000000e+00 0.0000000e+00 0.0000000e+00 
0.0000000e+00 0.0000000e+00 0.0000000e+00 
0.0000000e+00 0.0000000e+00 0.0000000e+00 
0.0000000e+00 0.0000000e+00 0.0000000e+00 
0.0000000e+00 0.0000000e+00 0.0000000e+00 
0.0000000e+00 0.0000000e+00 0.0000000e+00 
0.0000000e+00 0.0000000e+00 0.0000000e+00 
0.0000000e+00 0.0000000e+00 0.0000000e+00 
0.0000000e+00 0.0000000e+00 0.0000000e+00 
0.0000000e+00 0.0000000e+00 0.0000000e+00 
0.0000000e+00 0.0000000e+00 0.0000000e+00 
0.0000000e+00 0.0000000e+00 0.0000000e+00 
0.0000000e+00 0.0000000e+00 0.0000000e+00 
0.0000000e+00 0.0000000e+00 0.0000000e+00 
0.0000000e+00 0.0000000e+00 0.0000000e+00 