# vtk DataFile Version 4.0
vtk output
ASCII
DATASET UNSTRUCTURED_GRID
POINTS 2186 float
0.0000000e+00 0.0000000e+00 0.0000000e+00 
0.0000000e+00 0.0000000e+00 5.0000000e+01 
5.0000000e+00 0.0000000e+00 0.0000000e+00 
5.0000000e+00 0.0000000e+00 5.0000000e+01 
5.0000000e+00 1.0000000e+00 0.0000000e+00 
5.0000000e+00 1.0000000e+00 5.0000000e+01 
0.0000000e+00 1.0000000e+00 0.0000000e+00 
0.0000000e+00 1.0000000e+00 5.0000000e+01 
5.0000000e+00 2.0000000e+00 0.0000000e+00 
5.0000000e+00 2.0000000e+00 5.0000000e+01 
3.0000000e+00 2.0000000e+00 0.0000000e+00 
3.0000000e+00 2.0000000e+00 5.0000000e+01 
0.0000000e+00 2.0000000e+00 0.0000000e+00 
0.0000000e+00 2.0000000e+00 5.0000000e+01 
1.5000000e+00 3.0000000e+00 0.0000000e+00 
1.5000000e+00 3.0000000e+00 5.0000000e+01 
7.5000000e-01 3.0000000e+00 0.0000000e+00 
7.5000000e-01 3.0000000e+00 5.0000000e+01 
0.0000000e+00 3.0000000e+00 0.0000000e+00 
0.0000000e+00 3.0000000e+00 5.0000000e+01 
7.5000000e-01 3.0000000e+00 -2.5000000e+01 
7.5000000e-01 3.0000000e+00 -2.4500000e+01 
7.5000000e-01 3.0000000e+00 -2.4000000e+01 
7.5000000e-01 3.0000000e+00 -2.3500000e+01 
7.5000000e-01 3.0000000e+00 -2.3000000e+01 
7.5000000e-01 3.0000000e+00 -2.2500000e+01 
7.5000000e-01 3.0000000e+00 -2.2000000e+01 
7.5000000e-01 3.0000000e+00 -2.1500000e+01 
7.5000000e-01 3.0000000e+00 -2.1000000e+01 
7.5000000e-01 3.0000000e+00 -2.0500000e+01 
7.5000000e-01 3.0000000e+00 -2.0000000e+01 
7.5000000e-01 3.0000000e+00 -1.9500000e+01 
7.5000000e-01 3.0000000e+00 -1.9000000e+01 
7.5000000e-01 3.0000000e+00 -1.8500000e+01 
7.5000000e-01 3.0000000e+00 -1.8000000e+01 
7.5000000e-01 3.0000000e+00 -1.7500000e+01 
7.5000000e-01 3.0000000e+00 -1.7000000e+01 
7.5000000e-01 3.0000000e+00 -1.6500000e+01 
7.5000000e-01 3.0000000e+00 -1.6000000e+01 
7.5000000e-01 3.0000000e+00 -1.5500000e+01 
7.5000000e-01 3.0000000e+00 -1.5000000e+01 
7.5000000e-01 3.0000000e+00 -1.4500000e+01 
7.5000000e-01 3.0000000e+00 -1.4000000e+01 
7.5000000e-01 3.0000000e+00 -1.3500000e+01 
7.5000000e-01 3.0000000e+00 -1.3000000e+01 
7.5000000e-01 3.0000000e+00 -1.2500000e+01 
7.5000000e-01 3.0000000e+00 -1.2000000e+01 
7.5000000e-01 3.0000000e+00 -1.1500000e+01 
7.5000000e-01 3.0000000e+00 -1.1000000e+01 
7.5000000e-01 3.0000000e+00 -1.0500000e+01 
7.5000000e-01 3.0000000e+00 -1.0000000e+01 
7.5000000e-01 3.0000000e+00 -9.5000000e+00 
7.5000000e-01 3.0000000e+00 -9.0000000e+00 
7.5000000e-01 3.0000000e+00 -8.5000000e+00 
7.5000000e-01 3.0000000e+00 -8.0000000e+00 
7.5000000e-01 3.0000000e+00 -7.5000000e+00 
7.5000000e-01 3.0000000e+00 -7.0000000e+00 
7.5000000e-01 3.0000000e+00 -6.5000000e+00 
7.5000000e-01 3.0000000e+00 -6.0000000e+00 
7.5000000e-01 3.0000000e+00 -5.5000000e+00 
7.5000000e-01 3.0000000e+00 -5.0000000e+00 
7.5000000e-01 3.0000000e+00 -4.5000000e+00 
7.5000000e-01 3.0000000e+00 -4.0000000e+00 
7.5000000e-01 3.0000000e+00 -3.5000000e+00 
7.5000000e-01 3.0000000e+00 -3.0000000e+00 
7.5000000e-01 3.0000000e+00 -2.5000000e+00 
7.5000000e-01 3.0000000e+00 -2.0000000e+00 
7.5000000e-01 3.0000000e+00 -1.5000000e+00 
7.5000000e-01 3.0000000e+00 -1.0000000e+00 
7.5000000e-01 3.0000000e+00 -5.0000000e-01 
7.5000000e-01 3.0000000e+00 5.0000000e-01 
7.5000000e-01 3.0000000e+00 1.0000000e+00 
7.5000000e-01 3.0000000e+00 1.5000000e+00 
7.5000000e-01 3.0000000e+00 2.0000000e+00 
7.5000000e-01 3.0000000e+00 2.5000000e+00 
7.5000000e-01 3.0000000e+00 3.0000000e+00 
7.5000000e-01 3.0000000e+00 3.5000000e+00 
7.5000000e-01 3.0000000e+00 4.0000000e+00 
7.5000000e-01 3.0000000e+00 4.5000000e+00 
7.5000000e-01 3.0000000e+00 5.0000000e+00 
7.5000000e-01 3.0000000e+00 5.5000000e+00 
7.5000000e-01 3.0000000e+00 6.0000000e+00 
7.5000000e-01 3.0000000e+00 6.5000000e+00 
7.5000000e-01 3.0000000e+00 7.0000000e+00 
7.5000000e-01 3.0000000e+00 7.5000000e+00 
7.5000000e-01 3.0000000e+00 8.0000000e+00 
7.5000000e-01 3.0000000e+00 8.5000000e+00 
7.5000000e-01 3.0000000e+00 9.0000000e+00 
7.5000000e-01 3.0000000e+00 9.5000000e+00 
7.5000000e-01 3.0000000e+00 1.0000000e+01 
7.5000000e-01 3.0000000e+00 1.0500000e+01 
7.5000000e-01 3.0000000e+00 1.1000000e+01 
7.5000000e-01 3.0000000e+00 1.1500000e+01 
7.5000000e-01 3.0000000e+00 1.2000000e+01 
7.5000000e-01 3.0000000e+00 1.2500000e+01 
7.5000000e-01 3.0000000e+00 1.3000000e+01 
7.5000000e-01 3.0000000e+00 1.3500000e+01 
7.5000000e-01 3.0000000e+00 1.4000000e+01 
7.5000000e-01 3.0000000e+00 1.4500000e+01 
7.5000000e-01 3.0000000e+00 1.5000000e+01 
7.5000000e-01 3.0000000e+00 1.5500000e+01 
7.5000000e-01 3.0000000e+00 1.6000000e+01 
7.5000000e-01 3.0000000e+00 1.6500000e+01 
7.5000000e-01 3.0000000e+00 1.7000000e+01 
7.5000000e-01 3.0000000e+00 1.7500000e+01 
7.5000000e-01 3.0000000e+00 1.8000000e+01 
7.5000000e-01 3.0000000e+00 1.8500000e+01 
7.5000000e-01 3.0000000e+00 1.9000000e+01 
7.5000000e-01 3.0000000e+00 1.9500000e+01 
7.5000000e-01 3.0000000e+00 2.0000000e+01 
7.5000000e-01 3.0000000e+00 2.0500000e+01 
7.5000000e-01 3.0000000e+00 2.1000000e+01 
7.5000000e-01 3.0000000e+00 2.1500000e+01 
7.5000000e-01 3.0000000e+00 2.2000000e+01 
7.5000000e-01 3.0000000e+00 2.2500000e+01 
7.5000000e-01 3.0000000e+00 2.3000000e+01 
7.5000000e-01 3.0000000e+00 2.3500000e+01 
7.5000000e-01 3.0000000e+00 2.4000000e+01 
7.5000000e-01 3.0000000e+00 2.4500000e+01 
7.5000000e-01 3.0000000e+00 2.5000000e+01 
7.5000000e-01 3.0000000e+00 2.5500000e+01 
7.5000000e-01 3.0000000e+00 2.6000000e+01 
7.5000000e-01 3.0000000e+00 2.6500000e+01 
7.5000000e-01 3.0000000e+00 2.7000000e+01 
7.5000000e-01 3.0000000e+00 2.7500000e+01 
7.5000000e-01 3.0000000e+00 2.8000000e+01 
7.5000000e-01 3.0000000e+00 2.8500000e+01 
7.5000000e-01 3.0000000e+00 2.9000000e+01 
7.5000000e-01 3.0000000e+00 2.9500000e+01 
7.5000000e-01 3.0000000e+00 3.0000000e+01 
7.5000000e-01 3.0000000e+00 3.0500000e+01 
7.5000000e-01 3.0000000e+00 3.1000000e+01 
7.5000000e-01 3.0000000e+00 3.1500000e+01 
7.5000000e-01 3.0000000e+00 3.2000000e+01 
7.5000000e-01 3.0000000e+00 3.2500000e+01 
7.5000000e-01 3.0000000e+00 3.3000000e+01 
7.5000000e-01 3.0000000e+00 3.3500000e+01 
7.5000000e-01 3.0000000e+00 3.4000000e+01 
7.5000000e-01 3.0000000e+00 3.4500000e+01 
7.5000000e-01 3.0000000e+00 3.5000000e+01 
7.5000000e-01 3.0000000e+00 3.5500000e+01 
7.5000000e-01 3.0000000e+00 3.6000000e+01 
7.5000000e-01 3.0000000e+00 3.6500000e+01 
7.5000000e-01 3.0000000e+00 3.7000000e+01 
7.5000000e-01 3.0000000e+00 3.7500000e+01 
7.5000000e-01 3.0000000e+00 3.8000000e+01 
7.5000000e-01 3.0000000e+00 3.8500000e+01 
7.5000000e-01 3.0000000e+00 3.9000000e+01 
7.5000000e-01 3.0000000e+00 3.9500000e+01 
7.5000000e-01 3.0000000e+00 4.0000000e+01 
7.5000000e-01 3.0000000e+00 4.0500000e+01 
7.5000000e-01 3.0000000e+00 4.1000000e+01 
7.5000000e-01 3.0000000e+00 4.1500000e+01 
7.5000000e-01 3.0000000e+00 4.2000000e+01 
7.5000000e-01 3.0000000e+00 4.2500000e+01 
7.5000000e-01 3.0000000e+00 4.3000000e+01 
7.5000000e-01 3.0000000e+00 4.3500000e+01 
7.5000000e-01 3.0000000e+00 4.4000000e+01 
7.5000000e-01 3.0000000e+00 4.4500000e+01 
7.5000000e-01 3.0000000e+00 4.5000000e+01 
7.5000000e-01 3.0000000e+00 4.5500000e+01 
7.5000000e-01 3.0000000e+00 4.6000000e+01 
7.5000000e-01 3.0000000e+00 4.6500000e+01 
7.5000000e-01 3.0000000e+00 4.7000000e+01 
7.5000000e-01 3.0000000e+00 4.7500000e+01 
7.5000000e-01 3.0000000e+00 4.8000000e+01 
7.5000000e-01 3.0000000e+00 4.8500000e+01 
7.5000000e-01 3.0000000e+00 4.9000000e+01 
7.5000000e-01 3.0000000e+00 4.9500000e+01 
7.5000000e-01 3.0000000e+00 5.0500000e+01 
7.5000000e-01 3.0000000e+00 5.1000000e+01 
7.5000000e-01 3.0000000e+00 5.1500000e+01 
7.5000000e-01 3.0000000e+00 5.2000000e+01 
7.5000000e-01 3.0000000e+00 5.2500000e+01 
7.5000000e-01 3.0000000e+00 5.3000000e+01 
7.5000000e-01 3.0000000e+00 5.3500000e+01 
7.5000000e-01 3.0000000e+00 5.4000000e+01 
7.5000000e-01 3.0000000e+00 5.4500000e+01 
7.5000000e-01 3.0000000e+00 5.5000000e+01 
7.5000000e-01 3.0000000e+00 5.5500000e+01 
7.5000000e-01 3.0000000e+00 5.6000000e+01 
7.5000000e-01 3.0000000e+00 5.6500000e+01 
7.5000000e-01 3.0000000e+00 5.7000000e+01 
7.5000000e-01 3.0000000e+00 5.7500000e+01 
7.5000000e-01 3.0000000e+00 5.8000000e+01 
7.5000000e-01 3.0000000e+00 5.8500000e+01 
7.5000000e-01 3.0000000e+00 5.9000000e+01 
7.5000000e-01 3.0000000e+00 5.9500000e+01 
7.5000000e-01 3.0000000e+00 6.0000000e+01 
7.5000000e-01 3.0000000e+00 6.0500000e+01 
7.5000000e-01 3.0000000e+00 6.1000000e+01 
7.5000000e-01 3.0000000e+00 6.1500000e+01 
7.5000000e-01 3.0000000e+00 6.2000000e+01 
7.5000000e-01 3.0000000e+00 6.2500000e+01 
7.5000000e-01 3.0000000e+00 6.3000000e+01 
7.5000000e-01 3.0000000e+00 6.3500000e+01 
7.5000000e-01 3.0000000e+00 6.4000000e+01 
7.5000000e-01 3.0000000e+00 6.4500000e+01 
7.5000000e-01 3.0000000e+00 6.5000000e+01 
7.5000000e-01 3.0000000e+00 6.5500000e+01 
7.5000000e-01 3.0000000e+00 6.6000000e+01 
7.5000000e-01 3.0000000e+00 6.6500000e+01 
7.5000000e-01 3.0000000e+00 6.7000000e+01 
7.5000000e-01 3.0000000e+00 6.7500000e+01 
7.5000000e-01 3.0000000e+00 6.8000000e+01 
7.5000000e-01 3.0000000e+00 6.8500000e+01 
7.5000000e-01 3.0000000e+00 6.9000000e+01 
7.5000000e-01 3.0000000e+00 6.9500000e+01 
7.5000000e-01 3.0250001e+00 -2.5000000e+01 
7.5000000e-01 3.0250001e+00 -2.4500000e+01 
7.5000000e-01 3.0250001e+00 -2.4000000e+01 
7.5000000e-01 3.0250001e+00 -2.3500000e+01 
7.5000000e-01 3.0250001e+00 -2.3000000e+01 
7.5000000e-01 3.0250001e+00 -2.2500000e+01 
7.5000000e-01 3.0250001e+00 -2.2000000e+01 
7.5000000e-01 3.0250001e+00 -2.1500000e+01 
7.5000000e-01 3.0250001e+00 -2.1000000e+01 
7.5000000e-01 3.0250001e+00 -2.0500000e+01 
7.5000000e-01 3.0250001e+00 -2.0000000e+01 
7.5000000e-01 3.0250001e+00 -1.9500000e+01 
7.5000000e-01 3.0250001e+00 -1.9000000e+01 
7.5000000e-01 3.0250001e+00 -1.8500000e+01 
7.5000000e-01 3.0250001e+00 -1.8000000e+01 
7.5000000e-01 3.0250001e+00 -1.7500000e+01 
7.5000000e-01 3.0250001e+00 -1.7000000e+01 
7.5000000e-01 3.0250001e+00 -1.6500000e+01 
7.5000000e-01 3.0250001e+00 -1.6000000e+01 
7.5000000e-01 3.0250001e+00 -1.5500000e+01 
[...]
POINT_DATA 2186
FIELD FieldData 3
DISPLACEMENT 3 2186  float
0.0000000e+00 0.0000000e+00 0.0000000e+00 
0.0000000e+00 0.0000000e+00 0.0000000e+00 
0.0000000e+00 0.0000000e+00 0.0000000e+00 
0.0000000e+00 0.0000000e+00 0.0000000e+00 
-3.9392684e-11 -8.3729357e-10 4.8309035e-10 
8.2943028e-17 -1.9739949e-17 1.0563840e-16 
0.0000000e+00 2.3934498e-07 0.0000000e+00 
0.0000000e+00 4.3638642e-16 0.0000000e+00 
3.4688166e-10 -3.4689271e-10 -2.4964864e-10 
-2.5174757e-17 -1.9545899e-18 -1.4492110e-17 
-6.2576055e-09 -1.9366432e-08 -8.5055865e-09 
-2.1092604e-17 2.5031979e-17 4.3269255e-17 
0.0000000e+00 -8.9605038e-07 0.0000000e+00 
0.0000000e+00 4.0729190e-16 0.0000000e+00 
1.9930518e-07 -1.5085237e-06 -5.1885188e-08 
3.4277855e-17 -1.0449328e-16 2.7729994e-17 
3.2837575e-09 1.1953404e-05 1.8484799e-07 
-2.0987855e-17 5.7874108e-16 -3.6731815e-17 
0.0000000e+00 -5.0962294e-06 0.0000000e+00 
0.0000000e+00 3.3460962e-16 0.0000000e+00 
0.0000000e+00 -8.6439527e-16 0.0000000e+00 
0.0000000e+00 -3.7751398e-16 0.0000000e+00 
0.0000000e+00 5.8672299e-16 0.0000000e+00 
0.0000000e+00 1.2298059e-15 0.0000000e+00 
0.0000000e+00 -1.3057779e-16 0.0000000e+00 
0.0000000e+00 -1.1740333e-15 0.0000000e+00 
0.0000000e+00 -2.8085267e-16 0.0000000e+00 
0.0000000e+00 2.0364133e-15 0.0000000e+00 
0.0000000e+00 1.6535839e-15 0.0000000e+00 
0.0000000e+00 -3.5878862e-16 0.0000000e+00 
0.0000000e+00 -6.9583630e-16 0.0000000e+00 
0.0000000e+00 5.4114749e-16 0.0000000e+00 
0.0000000e+00 8.1090334e-16 0.0000000e+00 
0.0000000e+00 -4.3927896e-16 0.0000000e+00 
0.0000000e+00 -1.6295003e-15 0.0000000e+00 
0.0000000e+00 -1.6335399e-15 0.0000000e+00 
0.0000000e+00 -1.1496970e-15 0.0000000e+00 
0.0000000e+00 -2.9573020e-15 0.0000000e+00 
0.0000000e+00 -4.6421005e-15 0.0000000e+00 
0.0000000e+00 -2.8092718e-15 0.0000000e+00 
0.0000000e+00 1.9705906e-15 0.0000000e+00 
0.0000000e+00 6.3037645e-15 0.0000000e+00 
0.0000000e+00 9.2394422e-15 0.0000000e+00 
0.0000000e+00 7.4743814e-15 0.0000000e+00 
0.0000000e+00 2.8385080e-15 0.0000000e+00 
0.0000000e+00 -1.7852443e-15 0.0000000e+00 
0.0000000e+00 -4.1472889e-15 0.0000000e+00 
0.0000000e+00 -6.1368782e-15 0.0000000e+00 
0.0000000e+00 -1.5239720e-14 0.0000000e+00 
0.0000000e+00 2.4629497e-15 0.0000000e+00 
0.0000000e+00 1.3792658e-13 0.0000000e+00 
0.0000000e+00 1.7423576e-13 0.0000000e+00 
0.0000000e+00 -9.6112376e-13 0.0000000e+00 
0.0000000e+00 -2.7144678e-12 0.0000000e+00 
0.0000000e+00 4.5897413e-12 0.0000000e+00 
0.0000000e+00 2.7922931e-11 0.0000000e+00 
0.0000000e+00 -1.6484006e-12 0.0000000e+00 
0.0000000e+00 -2.1907251e-10 0.0000000e+00 
0.0000000e+00 -2.6157268e-10 0.0000000e+00 
0.0000000e+00 1.2771180e-09 0.0000000e+00 
0.0000000e+00 3.4480858e-09 0.0000000e+00 
0.0000000e+00 -4.4085184e-09 0.0000000e+00 
0.0000000e+00 -2.8136805e-08 0.0000000e+00 
0.0000000e+00 -7.5420097e-09 0.0000000e+00 
0.0000000e+00 1.5921091e-07 0.0000000e+00 
0.0000000e+00 2.4367776e-07 0.0000000e+00 
0.0000000e+00 -5.4897157e-07 0.0000000e+00 
0.0000000e+00 -1.9408865e-06 0.0000000e+00 
0.0000000e+00 8.9449244e-08 0.0000000e+00 
0.0000000e+00 8.7745766e-06 0.0000000e+00 
5.1648044e-08 -1.4513722e-05 2.6839059e-08 
1.1538847e-07 -5.6902642e-05 -1.6316763e-07 
-1.8922871e-06 -1.8742658e-05 9.7679947e-07 
1.0797470e-06 1.5323651e-04 -2.9569437e-06 
8.2017241e-06 2.9963173e-04 -4.6547511e-06 
1.0917120e-05 1.6615549e-04 -2.1465421e-06 
-5.8020737e-06 -3.6361328e-04 3.3345434e-05 
-3.4928475e-05 -1.1238591e-03 -3.9252591e-05 
-8.2536457e-07 -1.9163470e-03 7.8246507e-05 
-1.2200846e-04 -2.5396636e-03 -3.0439363e-05 
-7.7150296e-05 -2.6873241e-03 -1.0766521e-04 
-3.9027749e-05 -2.1250055e-03 1.4911808e-05 
6.1381170e-06 -1.7213232e-03 3.1245079e-05 
-1.0529093e-04 -1.8958501e-03 -8.4143161e-05 
-7.1715265e-05 -2.4959550e-03 -1.6610813e-05 
-9.9048273e-05 -2.6563015e-03 1.8228504e-05 
-4.8490296e-05 -1.8137967e-03 -1.0278981e-04 
-5.8634951e-06 -6.2897656e-04 1.4194624e-05 
5.0294020e-06 1.4880717e-04 -3.8120281e-06 
6.2256781e-06 3.5270263e-04 -2.3441908e-06 
6.5346022e-08 1.7710312e-04 3.7624854e-06 
-1.3680149e-06 -2.8669065e-05 -1.1887933e-07 
-7.1328373e-07 -6.5918095e-05 -1.3177232e-06 
3.6496619e-08 -1.3532530e-05 7.6857695e-08 
1.9491283e-07 1.2612932e-05 -5.2516858e-09 
4.2680604e-08 7.2200346e-06 5.9210628e-08 
-3.0151831e-08 -8.0132281e-07 -1.9558897e-08 
-7.2150339e-09 -1.3090456e-06 6.2076988e-09 
1.3959671e-09 -2.5184956e-08 -2.5198095e-09 
1.5150790e-09 2.2109745e-07 -1.3422576e-10 
-1.1909312e-10 3.4654484e-08 5.7777233e-10 
-2.4243813e-10 -3.8253908e-08 -3.5175578e-11 
-2.7673655e-10 -2.3226656e-08 8.1169148e-11 
3.2868305e-10 6.2765643e-08 -4.9782228e-10 
1.3186089e-09 1.7018122e-07 8.6104951e-10 
-3.7957876e-10 -1.4715947e-07 -1.8764641e-09 
-4.3449506e-09 -1.1390759e-06 6.3203274e-09 
-9.1176604e-09 -2.5825642e-07 2.6278941e-09 
1.4339392e-08 5.5476457e-06 -4.9651184e-08 
9.9661335e-08 7.2669336e-06 5.9925227e-08 
1.6469935e-08 -1.4922506e-05 2.2853800e-07 
-6.0814983e-07 -4.7792695e-05 -4.7197415e-07 
-4.7358591e-07 -1.6705430e-05 -8.3708407e-08 
1.5722887e-06 1.3071601e-04 2.2770055e-06 
1.9119166e-06 2.8121340e-04 -5.6122203e-06 
5.3573549e-06 1.5974979e-04 1.3600633e-06 
4.6656223e-06 -4.0169031e-04 2.5644789e-05 
-2.8494724e-05 -1.2609166e-03 -4.3612392e-05 
-1.1711970e-05 -2.1119637e-03 8.1793427e-05 
3.4191369e-05 -2.5681150e-03 4.3863151e-06 
-2.7496655e-05 -2.3643167e-03 -6.3392872e-05 
-4.5145742e-05 -1.7874328e-03 -1.8194858e-07 
-1.1015033e-05 -1.6632576e-03 2.0033636e-05 
-1.1387786e-04 -2.1013583e-03 -8.6948392e-05 
-7.9200137e-05 -2.6939388e-03 -2.8941280e-05 
-8.9352026e-05 -2.5335161e-03 2.4683301e-05 
-4.1358802e-05 -1.5452967e-03 -9.7835837e-05 
-3.9640629e-08 -4.2192734e-04 1.4224204e-05 
8.0356458e-06 2.1592682e-04 1.7188661e-06 
7.3190845e-06 3.2239279e-04 -2.4948820e-06 
1.0183456e-06 1.3569534e-04 4.9115051e-06 
-1.4061731e-06 -4.0003571e-05 -1.5030227e-07 
-6.2895259e-07 -5.8943442e-05 -1.2320820e-06 
7.5743500e-08 -8.2513106e-06 1.0338319e-07 
1.2649488e-07 1.2107391e-05 1.4838294e-07 
2.0275571e-08 4.4614108e-06 -8.0745659e-09 
-1.6696914e-08 -1.5524380e-06 -2.9223066e-09 
-8.4262215e-09 -1.0766732e-06 2.1642932e-09 
1.2146274e-09 1.0710684e-07 -2.5704296e-09 
8.8289787e-10 1.9636897e-07 -1.9807418e-10 
-1.3381785e-10 1.1110601e-08 4.5756179e-10 
-1.4706970e-10 -2.7419597e-08 2.9390053e-11 
5.4200698e-12 -4.8561297e-09 -6.8315568e-11 
-1.7644000e-12 2.8932186e-09 7.5352512e-13 
6.2876800e-12 8.0955476e-10 1.4602758e-11 
4.3119852e-12 -3.2654163e-10 3.0294666e-13 
-5.7358344e-13 -1.3184265e-10 -1.2590922e-12 
-2.6653983e-13 2.9560014e-11 -1.3739739e-13 
9.9505507e-14 1.8365197e-11 1.1207860e-13 
2.3304873e-14 -1.9935770e-12 -1.1755845e-14 
-6.8162935e-15 -2.2492334e-12 -7.8734914e-15 
1.1382414e-15 5.3186994e-14 1.5318557e-15 
3.3702668e-16 2.4726987e-13 5.3668950e-16 
4.3137332e-18 1.1788166e-14 1.4838538e-16 
3.0298309e-17 -2.6257940e-14 -7.6639118e-17 
-4.7401919e-17 -4.8721983e-15 -7.0561319e-17 
6.4507038e-17 8.2288504e-16 2.5005529e-17 
7.1505271e-17 1.7743468e-15 -2.9272747e-17 
-8.0406760e-17 4.2932017e-15 -7.7681041e-17 
2.8200169e-17 3.8620450e-15 2.7281547e-17 
8.2905322e-17 1.2939439e-15 5.4241277e-17 
-1.7032263e-17 -1.3864820e-15 2.2447447e-17 
-1.2167965e-18 -3.0764904e-15 8.3017071e-17 
6.8662370e-17 -2.7742334e-15 4.0616745e-17 
3.4321186e-17 -1.2542638e-15 -2.6081579e-17 
-5.2303004e-17 2.8120274e-16 5.1747354e-17 
7.6694578e-17 9.6211095e-16 4.4536979e-17 
1.6217779e-16 1.0914087e-15 9.2101155e-17 
1.4632989e-16 1.2536409e-15 -8.9796378e-17 
0.0000000e+00 -3.5647670e-16 0.0000000e+00 
0.0000000e+00 -5.3488151e-16 0.0000000e+00 
0.0000000e+00 -3.9997603e-16 0.0000000e+00 
0.0000000e+00 7.7421730e-17 0.0000000e+00 
0.0000000e+00 1.6461602e-16 0.0000000e+00 
0.0000000e+00 2.8517585e-16 0.0000000e+00 
0.0000000e+00 -2.3993912e-17 0.0000000e+00 
0.0000000e+00 -3.1754776e-16 0.0000000e+00 
0.0000000e+00 -5.3020054e-16 0.0000000e+00 
0.0000000e+00 1.8005774e-16 0.0000000e+00 
0.0000000e+00 8.2639870e-16 0.0000000e+00 
0.0000000e+00 1.6855511e-16 0.0000000e+00 
0.0000000e+00 -4.2894177e-16 0.0000000e+00 
0.0000000e+00 -7.1309962e-16 0.0000000e+00 
0.0000000e+00 2.0893347e-16 0.0000000e+00 
0.0000000e+00 2.4622051e-16 0.0000000e+00 
0.0000000e+00 4.6736610e-16 0.0000000e+00 
0.0000000e+00 1.2810582e-16 0.0000000e+00 
0.0000000e+00 -4.9252832e-16 0.0000000e+00 
0.0000000e+00 -4.3923161e-16 0.0000000e+00 
0.0000000e+00 -2.2021192e-19 0.0000000e+00 
0.0000000e+00 4.4975586e-16 0.0000000e+00 
0.0000000e+00 4.9785081e-16 0.0000000e+00 
0.0000000e+00 -1.1517700e-16 0.0000000e+00 
0.0000000e+00 -6.2268007e-16 0.0000000e+00 
0.0000000e+00 -2.7374988e-16 0.0000000e+00 
0.0000000e+00 4.2436091e-16 0.0000000e+00 
0.0000000e+00 2.0965123e-16 0.0000000e+00 
0.0000000e+00 1.6584507e-16 0.0000000e+00 
0.0000000e+00 -2.0359710e-16 0.0000000e+00 
0.0000000e+00 -1.4679624e-16 0.0000000e+00 
0.0000000e+00 -3.5433088e-16 0.0000000e+00 
0.0000000e+00 3.8198896e-16 0.0000000e+00 
0.0000000e+00 3.1843944e-16 0.0000000e+00 
0.0000000e+00 -1.3045219e-16 0.0000000e+00 
0.0000000e+00 -4.6586309e-16 0.0000000e+00 
0.0000000e+00 2.2848457e-16 0.0000000e+00 
0.0000000e+00 1.4419727e-16 0.0000000e+00 
0.0000000e+00 -7.9483878e-17 0.0000000e+00 
0.0000000e+00 -5.7367975e-16 0.0000000e+00 
0.0000000e+00 -4.8033931e-16 0.0000000e+00 
0.0000000e+00 4.4236383e-16 0.0000000e+00 
0.0000000e+00 8.2973542e-16 0.0000000e+00 
0.0000000e+00 -2.5930438e-17 0.0000000e+00 
0.0000000e+00 -1.0423116e-15 0.0000000e+00 
0.0000000e+00 6.3534949e-17 0.0000000e+00 
0.0000000e+00 1.9098016e-15 0.0000000e+00 
0.0000000e+00 1.6024219e-15 0.0000000e+00 
0.0000000e+00 -2.6152812e-16 0.0000000e+00 
0.0000000e+00 -7.0429731e-16 0.0000000e+00 
0.0000000e+00 2.1481454e-16 0.0000000e+00 
0.0000000e+00 5.4513860e-16 0.0000000e+00 
0.0000000e+00 -2.5654841e-16 0.0000000e+00 
0.0000000e+00 -1.3609503e-15 0.0000000e+00 
0.0000000e+00 -1.4654972e-15 0.0000000e+00 
0.0000000e+00 -1.3523478e-15 0.0000000e+00 
0.0000000e+00 -2.8603864e-15 0.0000000e+00 
0.0000000e+00 -4.4862613e-15 0.0000000e+00 
0.0000000e+00 -2.6896955e-15 0.0000000e+00 
0.0000000e+00 1.7184471e-15 0.0000000e+00 
0.0000000e+00 6.3881832e-15 0.0000000e+00 
0.0000000e+00 8.9196466e-15 0.0000000e+00 
0.0000000e+00 7.4330716e-15 0.0000000e+00 
0.0000000e+00 2.6541390e-15 0.0000000e+00 
0.0000000e+00 -2.0462961e-15 0.0000000e+00 
0.0000000e+00 -4.1044324e-15 0.0000000e+00 
0.0000000e+00 -6.9403466e-15 0.0000000e+00 
0.0000000e+00 -1.7461354e-14 0.0000000e+00 
0.0000000e+00 5.2913212e-15 0.0000000e+00 
0.0000000e+00 1.6105792e-13 0.0000000e+00 
0.0000000e+00 1.7742123e-13 0.0000000e+00 
0.0000000e+00 -1.1555541e-12 0.0000000e+00 
0.0000000e+00 -2.9638022e-12 0.0000000e+00 
0.0000000e+00 5.8746358e-12 0.0000000e+00 
0.0000000e+00 3.1348431e-11 0.0000000e+00 
0.0000000e+00 -7.6320053e-12 0.0000000e+00 
0.0000000e+00 -2.5123731e-10 0.0000000e+00 
0.0000000e+00 -2.5408436e-10 0.0000000e+00 
0.0000000e+00 1.5087938e-09 0.0000000e+00 
0.0000000e+00 3.6487942e-09 0.0000000e+00 
0.0000000e+00 -5.6784457e-09 0.0000000e+00 
0.0000000e+00 -3.0706126e-08 0.0000000e+00 
0.0000000e+00 -2.8359732e-09 0.0000000e+00 
0.0000000e+00 1.7818785e-07 0.0000000e+00 
0.0000000e+00 2.3867008e-07 0.0000000e+00 
0.0000000e+00 -6.4565000e-07 0.0000000e+00 
0.0000000e+00 -2.0157563e-06 0.0000000e+00 
0.0000000e+00 4.0956206e-07 0.0000000e+00 
0.0000000e+00 9.3774788e-06 0.0000000e+00 
0.0000000e+00 1.1454013e-05 0.0000000e+00 
0.0000000e+00 -1.7395700e-05 0.0000000e+00 
0.0000000e+00 -5.7430610e-05 0.0000000e+00 
0.0000000e+00 -1.2654325e-05 0.0000000e+00 
0.0000000e+00 1.5877183e-04 0.0000000e+00 
0.0000000e+00 2.9811848e-04 0.0000000e+00 
0.0000000e+00 1.5606632e-04 0.0000000e+00 
0.0000000e+00 -3.6815062e-04 0.0000000e+00 
0.0000000e+00 -1.1274269e-03 0.0000000e+00 
0.0000000e+00 -1.9226437e-03 0.0000000e+00 
0.0000000e+00 -2.5675364e-03 0.0000000e+00 
0.0000000e+00 -2.7158037e-03 0.0000000e+00 
0.0000000e+00 -2.1605925e-03 0.0000000e+00 
0.0000000e+00 -1.7422508e-03 0.0000000e+00 
0.0000000e+00 -1.9244076e-03 0.0000000e+00 
0.0000000e+00 -2.5149435e-03 0.0000000e+00 
0.0000000e+00 -2.6791336e-03 0.0000000e+00 
0.0000000e+00 -1.8277792e-03 0.0000000e+00 
0.0000000e+00 -6.5186125e-04 0.0000000e+00 
0.0000000e+00 1.3736855e-04 0.0000000e+00 
0.0000000e+00 3.5214316e-04 0.0000000e+00 
0.0000000e+00 1.8502667e-04 0.0000000e+00 
0.0000000e+00 -2.0984735e-05 0.0000000e+00 
0.0000000e+00 -6.6980523e-05 0.0000000e+00 
0.0000000e+00 -1.7210994e-05 0.0000000e+00 
0.0000000e+00 1.2357383e-05 0.0000000e+00 
0.0000000e+00 7.9905922e-06 0.0000000e+00 
0.0000000e+00 -5.0923251e-07 0.0000000e+00 
0.0000000e+00 -1.4801465e-06 0.0000000e+00 
0.0000000e+00 -9.7272924e-08 0.0000000e+00 
0.0000000e+00 2.4405301e-07 0.0000000e+00 
0.0000000e+00 4.8543555e-08 0.0000000e+00 
0.0000000e+00 -4.2584688e-08 0.0000000e+00 
0.0000000e+00 -2.4995932e-08 0.0000000e+00 
0.0000000e+00 7.4305120e-08 0.0000000e+00 
0.0000000e+00 1.8034002e-07 0.0000000e+00 
0.0000000e+00 -2.1782898e-07 0.0000000e+00 
0.0000000e+00 -1.2230992e-06 0.0000000e+00 
0.0000000e+00 -1.1900926e-11 0.0000000e+00 
0.0000000e+00 6.0757225e-06 0.0000000e+00 
0.0000000e+00 6.7830842e-06 0.0000000e+00 
0.0000000e+00 -1.7052396e-05 0.0000000e+00 
0.0000000e+00 -4.8709360e-05 0.0000000e+00 
0.0000000e+00 -1.2167055e-05 0.0000000e+00 
0.0000000e+00 1.3824133e-04 0.0000000e+00 
0.0000000e+00 2.8062207e-04 0.0000000e+00 
0.0000000e+00 1.4974493e-04 0.0000000e+00 
0.0000000e+00 -4.1053904e-04 0.0000000e+00 
0.0000000e+00 -1.2679730e-03 0.0000000e+00 
0.0000000e+00 -2.1170313e-03 0.0000000e+00 
0.0000000e+00 -2.5954794e-03 0.0000000e+00 
0.0000000e+00 -2.3953221e-03 0.0000000e+00 
0.0000000e+00 -1.8257836e-03 0.0000000e+00 
0.0000000e+00 -1.6818743e-03 0.0000000e+00 
0.0000000e+00 -2.1284623e-03 0.0000000e+00 
0.0000000e+00 -2.7116537e-03 0.0000000e+00 
0.0000000e+00 -2.5564653e-03 0.0000000e+00 
0.0000000e+00 -1.5585512e-03 0.0000000e+00 
0.0000000e+00 -4.4360620e-04 0.0000000e+00 
0.0000000e+00 2.0732902e-04 0.0000000e+00 
0.0000000e+00 3.2456612e-04 0.0000000e+00 
0.0000000e+00 1.4310199e-04 0.0000000e+00 
0.0000000e+00 -3.4053548e-05 0.0000000e+00 
0.0000000e+00 -6.0438484e-05 0.0000000e+00 
0.0000000e+00 -1.1435761e-05 0.0000000e+00 
0.0000000e+00 1.1986175e-05 0.0000000e+00 
0.0000000e+00 5.3638514e-06 0.0000000e+00 
0.0000000e+00 -1.4076909e-06 0.0000000e+00 
0.0000000e+00 -1.2554184e-06 0.0000000e+00 
0.0000000e+00 6.1065990e-08 0.0000000e+00 
0.0000000e+00 2.2297323e-07 0.0000000e+00 
0.0000000e+00 2.1465876e-08 0.0000000e+00 
0.0000000e+00 -3.0611819e-08 0.0000000e+00 
0.0000000e+00 -6.7177650e-09 0.0000000e+00 
0.0000000e+00 3.2113872e-09 0.0000000e+00 
0.0000000e+00 1.0735761e-09 0.0000000e+00 
0.0000000e+00 -3.4335568e-10 0.0000000e+00 
0.0000000e+00 -1.6651580e-10 0.0000000e+00 
0.0000000e+00 2.9177646e-11 0.0000000e+00 
0.0000000e+00 2.2609531e-11 0.0000000e+00 
0.0000000e+00 -1.6336872e-12 0.0000000e+00 
0.0000000e+00 -2.7241202e-12 0.0000000e+00 
0.0000000e+00 -2.2033175e-14 0.0000000e+00 
0.0000000e+00 2.9554698e-13 0.0000000e+00 
0.0000000e+00 2.3259211e-14 0.0000000e+00 
0.0000000e+00 -3.0526807e-14 0.0000000e+00 
0.0000000e+00 -6.6971871e-15 0.0000000e+00 
0.0000000e+00 1.1625735e-15 0.0000000e+00 
0.0000000e+00 2.0428478e-15 0.0000000e+00 
0.0000000e+00 4.1310242e-15 0.0000000e+00 
0.0000000e+00 4.1116135e-15 0.0000000e+00 
0.0000000e+00 1.3984103e-15 0.0000000e+00 
0.0000000e+00 -1.4337137e-15 0.0000000e+00 
0.0000000e+00 -3.0077647e-15 0.0000000e+00 
0.0000000e+00 -2.8524186e-15 0.0000000e+00 
0.0000000e+00 -1.3083327e-15 0.0000000e+00 
0.0000000e+00 1.5510247e-16 0.0000000e+00 
0.0000000e+00 9.3189665e-16 0.0000000e+00 
0.0000000e+00 1.3215373e-15 0.0000000e+00 
0.0000000e+00 1.1622409e-15 0.0000000e+00 
0.0000000e+00 5.2862770e-16 0.0000000e+00 
0.0000000e+00 -2.5889157e-16 0.0000000e+00 
0.0000000e+00 -6.2640913e-16 0.0000000e+00 
0.0000000e+00 -2.9390180e-16 0.0000000e+00 
0.0000000e+00 1.5564068e-17 0.0000000e+00 
0.0000000e+00 1.9258238e-16 0.0000000e+00 
0.0000000e+00 2.2240523e-16 0.0000000e+00 
0.0000000e+00 5.4682750e-17 0.0000000e+00 
0.0000000e+00 -4.3777408e-16 0.0000000e+00 
0.0000000e+00 -4.0823015e-16 0.0000000e+00 
0.0000000e+00 2.4176149e-16 0.0000000e+00 
0.0000000e+00 6.4772112e-16 0.0000000e+00 
0.0000000e+00 2.2785051e-16 0.0000000e+00 
0.0000000e+00 -5.0269039e-16 0.0000000e+00 
0.0000000e+00 -4.2763012e-16 0.0000000e+00 
0.0000000e+00 -8.2702775e-17 0.0000000e+00 
0.0000000e+00 3.7457393e-16 0.0000000e+00 
0.0000000e+00 4.1432963e-16 0.0000000e+00 
0.0000000e+00 9.2807924e-17 0.0000000e+00 
0.0000000e+00 -3.5085624e-16 0.0000000e+00 
0.0000000e+00 -5.1896639e-16 0.0000000e+00 
0.0000000e+00 -5.9503026e-17 0.0000000e+00 
0.0000000e+00 5.4222904e-16 0.0000000e+00 
0.0000000e+00 4.6704232e-16 0.0000000e+00 
0.0000000e+00 -1.7067088e-16 0.0000000e+00 
0.0000000e+00 -5.4877719e-16 0.0000000e+00 
0.0000000e+00 -2.4061556e-16 0.0000000e+00 
0.0000000e+00 2.5337183e-16 0.0000000e+00 
0.0000000e+00 4.1302256e-16 0.0000000e+00 
0.0000000e+00 7.4479051e-17 0.0000000e+00 
0.0000000e+00 -2.0754389e-16 0.0000000e+00 
0.0000000e+00 -3.0160090e-16 0.0000000e+00 
0.0000000e+00 2.2888493e-17 0.0000000e+00 
0.0000000e+00 1.7094831e-16 0.0000000e+00 
0.0000000e+00 1.8209779e-16 0.0000000e+00 
0.0000000e+00 -8.8688340e-17 0.0000000e+00 
0.0000000e+00 -1.3744133e-16 0.0000000e+00 
0.0000000e+00 -5.8659374e-17 0.0000000e+00 
0.0000000e+00 6.0666406e-17 0.0000000e+00 
0.0000000e+00 4.4025927e-17 0.0000000e+00 
0.0000000e+00 0.0000000e+00 0.0000000e+00 
0.0000000e+00 0.0000000e+00 0.0000000e+00 
0.0000000e+00 0.0000000e+00 0.0000000e+00 
0.0000000e+00 0.0000000e+00 0.0000000e+00 
0.0000000e+00 0.0000000e+00 0.0000000e+00 
0.0000000e+00 0.0000000e+00 0.0000000e+00 
0.0000000e+00 0.0000000e+00 0.0000000e+00 
0.0000000e+00 0.0000000e+00 0.0000000e+00 
0.0000000e+00 0.0000000e+00 0.0000000e+00 
0.0000000e+00 0.0000000e+00 0.0000000e+00 
0.0000000e+00 0.0000000e+00 0.0000000e+00 
0.0000000e+00 0.0000000e+00 0.0000000e+00 
0.0000000e+00 0.0000000e+00 0.0000000e+00 
0.0000000e+00 0.0000000e+00 0.0000000e+00 
0.0000000e+00 0.0000000e+00 0.0000000e+00 
0.0000000e+00 0.0000000e+00 0.0000000e+00 
0.0000000e+00 0.0000000e+00 0.0000000e+00 
0.0000000e+00 0.0000000e+00 0.0000000e+00 
0.0000000e+00 0.0000000e+00 0.0000000e+00 
0.0000000e+00 0.0000000e+00 0.0000000e+00 
0.0000000e+00 0.0000000e+00 0.0000000e+00 
0.0000000e+00 0.0000000e+00 0.0000000e+00 
0.0000000e+00 0.0000000e+00 0.0000000e+00 
0.0000000e+00 0.0000000e+00 0.0000000e+00 
0.0000000e+00 0.0000000e+00 0.0000000e+00 
0.0000000e+00 0.0000000e+00 0.0000000e+00 
0.0000000e+00 0.0000000e+00 0.0000000e+00 
0.0000000e+00 0.0000000e+00 0.0000000e+00 
0.0000000e+00 0.0000000e+00 0.0000000e+00 
0.0000000e+00 0.0000000e+00 0.0000000e+00 
0.0000000e+00 0.0000000e+00 0.0000000e+00 
0.0000000e+00 0.0000000e+00 0.0000000e+00 
0.0000000e+00 0.0000000e+00 0.0000000e+00 
0.0000000e+00 0.0000000e+00 0.0000000e+00 
0.0000000e+00 0.0000000e+00 0.0000000e+00 
0.0000000e+00 0.0000000e+00 0.0000000e+00 
0.0000000e+00 0.0000000e+00 0.0000000e+00 
0.0000000e+00 0.0000000e+00 0.0000000e+00 
0.0000000e+00 0.0000000e+00 0.0000000e+00 
0.0000000e+00 0.0000000e+00 0.0000000e+00 
0.0000000e+00 0.0000000e+00 0.0000000e+00 
0.0000000e+00 0.0000000e+00 0.0000000e+00 
0.0000000e+00 0.0000000e+00 0.0000000e+00 
0.0000000e+00 0.0000000e+00 0.0000000e+00 
0.0000000e+00 0.0000000e+00 0.0000000e+00 
0.0000000e+00 0.0000000e+00 0.0000000e+00 
0.0000000e+00 0.0000000e+00 0.0000000e+00 
0.0000000e+00 0.0000000e+00 0.0000000e+00 
0.0000000e+00 0.0000000e+00 0.0000000e+00 
0.0000000e+00 0.0000000e+00 0.0000000e+00 
0.0000000e+00 0.0000000e+00 0.0000000e+00 
0.0000000e+00 0.0000000e+00 0.0000000e+00 
0.0000000e+00 0.0000000e+00 0.0000000e+00 
0.0000000e+00 0.0000000e+00 0.0000000e+00 
0.0000000e+00 0.0000000e+00 0.0000000e+00 
0.0000000e+00 0.0000000e+00 0.0000000e+00 
0.0000000e+00 0.0000000e+00 0.0000000e+00 
0.0000000e+00 0.0000000e+00 0.0000000e+00 