# vtk DataFile Version 4.0
vtk output
ASCII
DATASET UNSTRUCTURED_GRID
POINTS 2186 float
0.0000000e+00 0.0000000e+00 0.0000000e+00 
0.0000000e+00 0.0000000e+00 5.0000000e+01 
5.0000000e+00 0.0000000e+00 0.0000000e+00 
5.0000000e+00 0.0000000e+00 5.0000000e+01 
5.0000000e+00 1.0000000e+00 0.0000000e+00 
5.0000000e+00 1.0000000e+00 5.0000000e+01 
0.0000000e+00 1.0000000e+00 0.0000000e+00 
0.0000000e+00 1.0000000e+00 5.0000000e+01 
5.0000000e+00 2.0000000e+00 0.0000000e+00 
5.0000000e+00 2.0000000e+00 5.0000000e+01 
3.0000000e+00 2.0000000e+00 0.0000000e+00 
3.0000000e+00 2.0000000e+00 5.0000000e+01 
0.0000000e+00 2.0000000e+00 0.0000000e+00 
0.0000000e+00 2.0000000e+00 5.0000000e+01 
1.5000000e+00 3.0000000e+00 0.0000000e+00 
1.5000000e+00 3.0000000e+00 5.0000000e+01 
7.5000000e-01 3.0000000e+00 0.0000000e+00 
7.5000000e-01 3.0000000e+00 5.0000000e+01 
0.0000000e+00 3.0000000e+00 0.0000000e+00 
0.0000000e+00 3.0000000e+00 5.0000000e+01 
7.5000000e-01 3.0000000e+00 -2.5000000e+01 
7.5000000e-01 3.0000000e+00 -2.4500000e+01 
7.5000000e-01 3.0000000e+00 -2.4000000e+01 
7.5000000e-01 3.0000000e+00 -2.3500000e+01 
7.5000000e-01 3.0000000e+00 -2.3000000e+01 
7.5000000e-01 3.0000000e+00 -2.2500000e+01 
7.5000000e-01 3.0000000e+00 -2.2000000e+01 
7.5000000e-01 3.0000000e+00 -2.1500000e+01 
7.5000000e-01 3.0000000e+00 -2.1000000e+01 
7.5000000e-01 3.0000000e+00 -2.0500000e+01 
7.5000000e-01 3.0000000e+00 -2.0000000e+01 
7.5000000e-01 3.0000000e+00 -1.9500000e+01 
7.5000000e-01 3.0000000e+00 -1.9000000e+01 
7.5000000e-01 3.0000000e+00 -1.8500000e+01 
7.5000000e-01 3.0000000e+00 -1.8000000e+01 
7.5000000e-01 3.0000000e+00 -1.7500000e+01 
7.5000000e-01 3.0000000e+00 -1.7000000e+01 
7.5000000e-01 3.0000000e+00 -1.6500000e+01 
7.5000000e-01 3.0000000e+00 -1.6000000e+01 
7.5000000e-01 3.0000000e+00 -1.5500000e+01 
7.5000000e-01 3.0000000e+00 -1.5000000e+01 
7.5000000e-01 3.0000000e+00 -1.4500000e+01 
7.5000000e-01 3.0000000e+00 -1.4000000e+01 
7.5000000e-01 3.0000000e+00 -1.3500000e+01 
7.5000000e-01 3.0000000e+00 -1.3000000e+01 
7.5000000e-01 3.0000000e+00 -1.2500000e+01 
7.5000000e-01 3.0000000e+00 -1.2000000e+01 
7.5000000e-01 3.0000000e+00 -1.1500000e+01 
7.5000000e-01 3.0000000e+00 -1.1000000e+01 
7.5000000e-01 3.0000000e+00 -1.0500000e+01 
7.5000000e-01 3.0000000e+00 -1.0000000e+01 
7.5000000e-01 3.0000000e+00 -9.5000000e+00 
7.5000000e-01 3.0000000e+00 -9.0000000e+00 
7.5000000e-01 3.0000000e+00 -8.5000000e+00 
7.5000000e-01 3.0000000e+00 -8.0000000e+00 
7.5000000e-01 3.0000000e+00 -7.5000000e+00 
7.5000000e-01 3.0000000e+00 -7.0000000e+00 
7.5000000e-01 3.0000000e+00 -6.5000000e+00 
7.5000000e-01 3.0000000e+00 -6.0000000e+00 
7.5000000e-01 3.0000000e+00 -5.5000000e+00 
7.5000000e-01 3.0000000e+00 -5.0000000e+00 
7.5000000e-01 3.0000000e+00 -4.5000000e+00 
7.5000000e-01 3.0000000e+00 -4.0000000e+00 
7.5000000e-01 3.0000000e+00 -3.5000000e+00 
7.5000000e-01 3.0000000e+00 -3.0000000e+00 
7.5000000e-01 3.0000000e+00 -2.5000000e+00 
7.5000000e-01 3.0000000e+00 -2.0000000e+00 
7.5000000e-01 3.0000000e+00 -1.5000000e+00 
7.5000000e-01 3.0000000e+00 -1.0000000e+00 
7.5000000e-01 3.0000000e+00 -5.0000000e-01 
7.5000000e-01 3.0000000e+00 5.0000000e-01 
7.5000000e-01 3.0000000e+00 1.0000000e+00 
7.5000000e-01 3.0000000e+00 1.5000000e+00 
7.5000000e-01 3.0000000e+00 2.0000000e+00 
7.5000000e-01 3.0000000e+00 2.5000000e+00 
7.5000000e-01 3.0000000e+00 3.0000000e+00 
7.5000000e-01 3.0000000e+00 3.5000000e+00 
7.5000000e-01 3.0000000e+00 4.0000000e+00 
7.5000000e-01 3.0000000e+00 4.5000000e+00 
7.5000000e-01 3.0000000e+00 5.0000000e+00 
7.5000000e-01 3.0000000e+00 5.5000000e+00 
7.5000000e-01 3.0000000e+00 6.0000000e+00 
7.5000000e-01 3.0000000e+00 6.5000000e+00 
7.5000000e-01 3.0000000e+00 7.0000000e+00 
7.5000000e-01 3.0000000e+00 7.5000000e+00 
7.5000000e-01 3.0000000e+00 8.0000000e+00 
7.5000000e-01 3.0000000e+00 8.5000000e+00 
7.5000000e-01 3.0000000e+00 9.0000000e+00 
7.5000000e-01 3.0000000e+00 9.5000000e+00 
7.5000000e-01 3.0000000e+00 1.0000000e+01 
7.5000000e-01 3.0000000e+00 1.0500000e+01 
7.5000000e-01 3.0000000e+00 1.1000000e+01 
7.5000000e-01 3.0000000e+00 1.1500000e+01 
7.5000000e-01 3.0000000e+00 1.2000000e+01 
7.5000000e-01 3.0000000e+00 1.2500000e+01 
7.5000000e-01 3.0000000e+00 1.3000000e+01 
7.5000000e-01 3.0000000e+00 1.3500000e+01 
7.5000000e-01 3.0000000e+00 1.4000000e+01 
7.5000000e-01 3.0000000e+00 1.4500000e+01 
7.5000000e-01 3.0000000e+00 1.5000000e+01 
7.5000000e-01 3.0000000e+00 1.5500000e+01 
7.5000000e-01 3.0000000e+00 1.6000000e+01 
7.5000000e-01 3.0000000e+00 1.6500000e+01 
7.5000000e-01 3.0000000e+00 1.7000000e+01 
7.5000000e-01 3.0000000e+00 1.7500000e+01 
7.5000000e-01 3.0000000e+00 1.8000000e+01 
7.5000000e-01 3.0000000e+00 1.8500000e+01 
7.5000000e-01 3.0000000e+00 1.9000000e+01 
7.5000000e-01 3.0000000e+00 1.9500000e+01 
7.5000000e-01 3.0000000e+00 2.0000000e+01 
7.5000000e-01 3.0000000e+00 2.0500000e+01 
7.5000000e-01 3.0000000e+00 2.1000000e+01 
7.5000000e-01 3.0000000e+00 2.1500000e+01 
7.5000000e-01 3.0000000e+00 2.2000000e+01 
7.5000000e-01 3.0000000e+00 2.2500000e+01 
7.5000000e-01 3.0000000e+00 2.3000000e+01 
7.5000000e-01 3.0000000e+00 2.3500000e+01 
7.5000000e-01 3.0000000e+00 2.4000000e+01 
7.5000000e-01 3.0000000e+00 2.4500000e+01 
7.5000000e-01 3.0000000e+00 2.5000000e+01 
7.5000000e-01 3.0000000e+00 2.5500000e+01 
7.5000000e-01 3.0000000e+00 2.6000000e+01 
7.5000000e-01 3.0000000e+00 2.6500000e+01 
7.5000000e-01 3.0000000e+00 2.7000000e+01 
7.5000000e-01 3.0000000e+00 2.7500000e+01 
7.5000000e-01 3.0000000e+00 2.8000000e+01 
7.5000000e-01 3.0000000e+00 2.8500000e+01 
7.5000000e-01 3.0000000e+00 2.9000000e+01 
7.5000000e-01 3.0000000e+00 2.9500000e+01 
7.5000000e-01 3.0000000e+00 3.0000000e+01 
7.5000000e-01 3.0000000e+00 3.0500000e+01 
7.5000000e-01 3.0000000e+00 3.1000000e+01 
7.5000000e-01 3.0000000e+00 3.1500000e+01 
7.5000000e-01 3.0000000e+00 3.2000000e+01 
7.5000000e-01 3.0000000e+00 3.2500000e+01 
7.5000000e-01 3.0000000e+00 3.3000000e+01 
7.5000000e-01 3.0000000e+00 3.3500000e+01 
7.5000000e-01 3.0000000e+00 3.4000000e+01 
7.5000000e-01 3.0000000e+00 3.4500000e+01 
7.5000000e-01 3.0000000e+00 3.5000000e+01 
7.5000000e-01 3.0000000e+00 3.5500000e+01 
7.5000000e-01 3.0000000e+00 3.6000000e+01 
7.5000000e-01 3.0000000e+00 3.6500000e+01 
7.5000000e-01 3.0000000e+00 3.7000000e+01 
7.5000000e-01 3.0000000e+00 3.7500000e+01 
7.5000000e-01 3.0000000e+00 3.8000000e+01 
7.5000000e-01 3.0000000e+00 3.8500000e+01 
7.5000000e-01 3.0000000e+00 3.9000000e+01 
7.5000000e-01 3.0000000e+00 3.9500000e+01 
7.5000000e-01 3.0000000e+00 4.0000000e+01 
7.5000000e-01 3.0000000e+00 4.0500000e+01 
7.5000000e-01 3.0000000e+00 4.1000000e+01 
7.5000000e-01 3.0000000e+00 4.1500000e+01 
7.5000000e-01 3.0000000e+00 4.2000000e+01 
7.5000000e-01 3.0000000e+00 4.2500000e+01 
7.5000000e-01 3.0000000e+00 4.3000000e+01 
7.5000000e-01 3.0000000e+00 4.3500000e+01 
7.5000000e-01 3.0000000e+00 4.4000000e+01 
7.5000000e-01 3.0000000e+00 4.4500000e+01 
7.5000000e-01 3.0000000e+00 4.5000000e+01 
7.5000000e-01 3.0000000e+00 4.5500000e+01 
7.5000000e-01 3.0000000e+00 4.6000000e+01 
7.5000000e-01 3.0000000e+00 4.6500000e+01 
7.5000000e-01 3.0000000e+00 4.7000000e+01 
7.5000000e-01 3.0000000e+00 4.7500000e+01 
7.5000000e-01 3.0000000e+00 4.8000000e+01 
7.5000000e-01 3.0000000e+00 4.8500000e+01 
7.5000000e-01 3.0000000e+00 4.9000000e+01 
7.5000000e-01 3.0000000e+00 4.9500000e+01 
7.5000000e-01 3.0000000e+00 5.0500000e+01 
7.5000000e-01 3.0000000e+00 5.1000000e+01 
7.5000000e-01 3.0000000e+00 5.1500000e+01 
7.5000000e-01 3.0000000e+00 5.2000000e+01 
7.5000000e-01 3.0000000e+00 5.2500000e+01 
7.5000000e-01 3.0000000e+00 5.3000000e+01 
7.5000000e-01 3.0000000e+00 5.3500000e+01 
7.5000000e-01 3.0000000e+00 5.4000000e+01 
7.5000000e-01 3.0000000e+00 5.4500000e+01 
7.5000000e-01 3.0000000e+00 5.5000000e+01 
7.5000000e-01 3.0000000e+00 5.5500000e+01 
7.5000000e-01 3.0000000e+00 5.6000000e+01 
7.5000000e-01 3.0000000e+00 5.6500000e+01 
7.5000000e-01 3.0000000e+00 5.7000000e+01 
7.5000000e-01 3.0000000e+00 5.7500000e+01 
7.5000000e-01 3.0000000e+00 5.8000000e+01 
7.5000000e-01 3.0000000e+00 5.8500000e+01 
7.5000000e-01 3.0000000e+00 5.9000000e+01 
7.5000000e-01 3.0000000e+00 5.9500000e+01 
7.5000000e-01 3.0000000e+00 6.0000000e+01 
7.5000000e-01 3.0000000e+00 6.0500000e+01 
7.5000000e-01 3.0000000e+00 6.1000000e+01 
7.5000000e-01 3.0000000e+00 6.1500000e+01 
7.5000000e-01 3.0000000e+00 6.2000000e+01 
7.5000000e-01 3.0000000e+00 6.2500000e+01 
7.5000000e-01 3.0000000e+00 6.3000000e+01 
7.5000000e-01 3.0000000e+00 6.3500000e+01 
7.5000000e-01 3.0000000e+00 6.4000000e+01 
7.5000000e-01 3.0000000e+00 6.4500000e+01 
7.5000000e-01 3.0000000e+00 6.5000000e+01 
7.5000000e-01 3.0000000e+00 6.5500000e+01 
7.5000000e-01 3.0000000e+00 6.6000000e+01 
7.5000000e-01 3.0000000e+00 6.6500000e+01 
7.5000000e-01 3.0000000e+00 6.7000000e+01 
7.5000000e-01 3.0000000e+00 6.7500000e+01 
7.5000000e-01 3.0000000e+00 6.8000000e+01 
7.5000000e-01 3.0000000e+00 6.8500000e+01 
7.5000000e-01 3.0000000e+00 6.9000000e+01 
7.5000000e-01 3.0000000e+00 6.9500000e+01 
7.5000000e-01 3.0250001e+00 -2.5000000e+01 
7.5000000e-01 3.0250001e+00 -2.4500000e+01 
7.5000000e-01 3.0250001e+00 -2.4000000e+01 
7.5000000e-01 3.0250001e+00 -2.3500000e+01 
7.5000000e-01 3.0250001e+00 -2.3000000e+01 
7.5000000e-01 3.0250001e+00 -2.2500000e+01 
7.5000000e-01 3.0250001e+00 -2.2000000e+01 
7.5000000e-01 3.0250001e+00 -2.1500000e+01 
7.5000000e-01 3.0250001e+00 -2.1000000e+01 
7.5000000e-01 3.0250001e+00 -2.0500000e+01 
7.5000000e-01 3.0250001e+00 -2.0000000e+01 
7.5000000e-01 3.0250001e+00 -1.9500000e+01 
7.5000000e-01 3.0250001e+00 -1.9000000e+01 
7.5000000e-01 3.0250001e+00 -1.8500000e+01 
7.5000000e-01 3.0250001e+00 -1.8000000e+01 
7.5000000e-01 3.0250001e+00 -1.7500000e+01 
7.5000000e-01 3.0250001e+00 -1.7000000e+01 
7.5000000e-01 3.0250001e+00 -1.6500000e+01 
7.5000000e-01 3.0250001e+00 -1.6000000e+01 
7.5000000e-01 3.0250001e+00 -1.5500000e+01 
[...]
POINT_DATA 2186
FIELD FieldData 3
DISPLACEMENT 3 2186  float
0.0000000e+00 0.0000000e+00 0.0000000e+00 
0.0000000e+00 0.0000000e+00 0.0000000e+00 
0.0000000e+00 0.0000000e+00 0.0000000e+00 
0.0000000e+00 0.0000000e+00 0.0000000e+00 
-4.7050318e-07 2.9859015e-07 9.5710095e-07 
2.9696281e-07 -9.8598480e-07 2.0127186e-06 
0.0000000e+00 -6.5611732e-07 0.0000000e+00 
0.0000000e+00 -2.3005409e-06 0.0000000e+00 
-7.9236435e-07 -7.8062425e-07 4.9299695e-07 
-9.7842383e-09 -1.1339109e-06 3.1693048e-06 
-1.1449811e-06 -4.4731064e-07 -9.3195092e-07 
6.8560048e-08 -3.2275530e-06 4.2362558e-06 
0.0000000e+00 7.5929336e-07 0.0000000e+00 
0.0000000e+00 -3.8995381e-06 0.0000000e+00 
-5.9652220e-06 1.2435619e-06 7.1484897e-06 
-2.7738838e-06 -9.0559543e-06 7.5554835e-06 
-3.7163725e-06 -2.1423145e-06 7.3970241e-06 
-7.1098430e-07 -7.4564623e-06 8.7468889e-06 
0.0000000e+00 1.5521662e-06 0.0000000e+00 
0.0000000e+00 1.9310977e-07 0.0000000e+00 
0.0000000e+00 -1.3241437e-05 0.0000000e+00 
0.0000000e+00 -1.1817005e-05 0.0000000e+00 
0.0000000e+00 -7.7849727e-06 0.0000000e+00 
0.0000000e+00 -1.9143095e-06 0.0000000e+00 
0.0000000e+00 4.5592078e-06 0.0000000e+00 
0.0000000e+00 1.0154194e-05 0.0000000e+00 
0.0000000e+00 1.3502392e-05 0.0000000e+00 
0.0000000e+00 1.3740133e-05 0.0000000e+00 
0.0000000e+00 1.0781964e-05 0.0000000e+00 
0.0000000e+00 5.3608210e-06 0.0000000e+00 
0.0000000e+00 -1.1873891e-06 0.0000000e+00 
0.0000000e+00 -7.3115521e-06 0.0000000e+00 
0.0000000e+00 -1.1659760e-05 0.0000000e+00 
0.0000000e+00 -1.3386624e-05 0.0000000e+00 
0.0000000e+00 -1.2286166e-05 0.0000000e+00 
0.0000000e+00 -8.7542785e-06 0.0000000e+00 
0.0000000e+00 -3.6314757e-06 0.0000000e+00 
0.0000000e+00 2.0050697e-06 0.0000000e+00 
0.0000000e+00 7.0459587e-06 0.0000000e+00 
0.0000000e+00 1.0536535e-05 0.0000000e+00 
0.0000000e+00 1.1852801e-05 0.0000000e+00 
0.0000000e+00 1.0838800e-05 0.0000000e+00 
0.0000000e+00 7.8383364e-06 0.0000000e+00 
0.0000000e+00 3.5875012e-06 0.0000000e+00 
0.0000000e+00 -9.7897953e-07 0.0000000e+00 
0.0000000e+00 -4.9240339e-06 0.0000000e+00 
0.0000000e+00 -7.4802438e-06 0.0000000e+00 
0.0000000e+00 -8.2145198e-06 0.0000000e+00 
0.0000000e+00 -7.1631939e-06 0.0000000e+00 
0.0000000e+00 -4.8611691e-06 0.0000000e+00 
0.0000000e+00 -2.2066392e-06 0.0000000e+00 
0.0000000e+00 -1.7200672e-07 0.0000000e+00 
0.0000000e+00 5.6192692e-07 0.0000000e+00 
0.0000000e+00 -9.1423026e-08 0.0000000e+00 
0.0000000e+00 -1.5550053e-06 0.0000000e+00 
0.0000000e+00 -2.8276661e-06 0.0000000e+00 
0.0000000e+00 -2.9120135e-06 0.0000000e+00 
0.0000000e+00 -1.2094055e-06 0.0000000e+00 
0.0000000e+00 2.2461445e-06 0.0000000e+00 
0.0000000e+00 6.7340134e-06 0.0000000e+00 
0.0000000e+00 1.1015359e-05 0.0000000e+00 
0.0000000e+00 1.3763414e-05 0.0000000e+00 
0.0000000e+00 1.4105300e-05 0.0000000e+00 
0.0000000e+00 1.1964858e-05 0.0000000e+00 
0.0000000e+00 8.0430445e-06 0.0000000e+00 
0.0000000e+00 3.5442413e-06 0.0000000e+00 
0.0000000e+00 -2.1400506e-07 0.0000000e+00 
0.0000000e+00 -2.2885688e-06 0.0000000e+00 
0.0000000e+00 -2.5847723e-06 0.0000000e+00 
0.0000000e+00 -2.0195264e-06 0.0000000e+00 
-5.1561992e-06 -4.6572427e-06 -4.3812570e-06 
-5.7569328e-06 -9.3140989e-06 -8.1194976e-06 
-6.5773233e-06 -1.4896872e-05 -6.3114403e-06 
-7.2194466e-06 -2.0155398e-05 -3.6825413e-06 
-6.3388588e-06 -2.3214687e-05 -5.7428260e-06 
-5.3313679e-06 -2.3494160e-05 -4.1412541e-06 
-2.9006701e-06 -2.1402768e-05 -4.7467288e-06 
-9.5461473e-07 -1.7438650e-05 -2.5732945e-06 
-2.6165327e-07 -1.3295340e-05 1.0006987e-06 
-1.6293253e-08 -1.0886804e-05 6.2358367e-06 
1.6620065e-07 -1.0606087e-05 1.1709702e-05 
-2.3123744e-06 -1.0283209e-05 1.4320425e-05 
-6.6986713e-06 -7.7628520e-06 1.5076315e-05 
-4.2468164e-06 -2.4484636e-06 1.6442884e-05 
-5.3566027e-06 1.9219049e-06 1.8613850e-05 
-6.9538228e-06 2.2487413e-07 1.8625435e-05 
-7.9759620e-06 -8.4569410e-06 1.8193950e-05 
-1.2634090e-05 -1.9533831e-05 1.4998956e-05 
-1.6937298e-05 -2.5797553e-05 1.2375566e-05 
-1.9149171e-05 -2.1250469e-05 1.3620799e-08 
-1.6104981e-05 -1.1203793e-05 -1.7289817e-06 
-1.5487978e-05 -1.0912716e-05 -6.1467790e-06 
-1.0214635e-05 -2.4120538e-05 -1.1800725e-05 
-1.0367768e-05 -3.5222540e-05 -1.2127740e-05 
-9.9757808e-06 -2.4938267e-05 -1.2536725e-05 
-5.9598669e-06 7.8572630e-06 -1.7740802e-05 
5.2471887e-07 4.1822223e-05 -5.7852080e-06 
5.8543637e-06 5.6867946e-05 -2.7942961e-06 
2.6305052e-06 4.9797840e-05 -3.5523719e-08 
2.2780875e-06 3.9733564e-05 1.9301173e-05 
4.6217409e-07 5.3362910e-05 2.7813605e-05 
6.4831697e-06 9.0775087e-05 4.6528516e-05 
7.4588165e-06 8.0528785e-05 8.8114874e-05 
-2.8072483e-05 -1.0227745e-04 1.7381232e-04 
-4.0753053e-05 -5.3247472e-04 2.0177079e-04 
-6.1889521e-05 -1.2212095e-03 1.8230957e-04 
-1.2499701e-04 -2.1462310e-03 2.7638368e-04 
-1.5283951e-04 -3.2215267e-03 1.0277922e-04 
-2.3721669e-04 -4.2767683e-03 1.8592963e-04 
-2.6788516e-04 -4.8222234e-03 4.9112965e-05 
-2.5951996e-04 -4.5571886e-03 -2.6154665e-05 
-2.5317338e-04 -4.1718516e-03 -2.6603055e-05 
-2.2807413e-04 -4.1736527e-03 -1.6507858e-05 
-2.4411955e-04 -4.3896483e-03 -1.3690884e-04 
-2.1710883e-04 -4.2072609e-03 -2.1538165e-04 
-1.7597579e-04 -3.0858554e-03 -1.6418030e-04 
-9.2033821e-05 -1.7557178e-03 -2.6932353e-04 
-6.1149149e-05 -7.2998408e-04 -1.3996432e-04 
-1.1581848e-05 -1.3085175e-04 -1.3820753e-04 
-4.0208488e-06 1.4181597e-04 -7.3137991e-05 
7.7001641e-06 2.2446095e-04 -3.7551177e-05 
9.2563323e-06 1.9790296e-04 -2.2731789e-05 
4.0090263e-06 1.1764880e-04 -7.3367837e-06 
5.9334781e-07 3.5335655e-05 -1.0257254e-05 
-2.2212623e-06 -1.0883829e-05 2.2602949e-06 
-3.6713989e-06 -2.3657673e-05 7.1533609e-06 
-4.7311378e-06 -2.7010297e-05 1.6180369e-05 
-7.0612882e-06 -3.5506277e-05 2.1805210e-05 
-6.1683804e-06 -4.4522989e-05 1.3699206e-05 
-9.3477829e-06 -4.2669821e-05 8.9844689e-06 
-8.2190982e-06 -2.7410262e-05 7.2042876e-06 
-7.4339096e-06 -5.5596533e-06 1.2545157e-05 
-1.9921126e-06 7.1127356e-06 1.4765699e-05 
-1.0170425e-05 -2.0943078e-06 1.5319773e-05 
-1.6787224e-05 -1.9861962e-05 5.1814395e-06 
-1.4311618e-05 -1.6472750e-05 4.4817421e-06 
-6.8122199e-06 1.8965093e-05 1.1033769e-06 
2.2059962e-07 7.0349481e-05 5.9709982e-06 
9.6415752e-06 1.0452403e-04 1.8074476e-05 
6.6350717e-06 9.2026392e-05 3.5562007e-05 
-1.1906837e-06 4.8558635e-05 3.7837883e-05 
3.1795516e-06 1.4631668e-05 5.4644297e-05 
-2.3025220e-06 -1.5252591e-05 1.0709821e-04 
-3.2286325e-06 -1.4195987e-04 1.3373465e-04 
-4.9814545e-05 -5.2404014e-04 2.1223116e-04 
-4.9725248e-05 -1.2584971e-03 1.9199259e-04 
-1.7016609e-04 -2.3198943e-03 2.8887970e-04 
-9.2366805e-05 -3.4925025e-03 1.7212960e-04 
-3.8084481e-04 -4.4434057e-03 2.1896847e-04 
-6.2277650e-05 -4.6783537e-03 9.4148112e-05 
-2.5228082e-04 -4.3540769e-03 4.8574184e-06 
-2.4878280e-04 -4.1352683e-03 -2.6575051e-05 
-2.2741196e-04 -4.2967433e-03 -2.7247765e-05 
-2.5226836e-04 -4.4574779e-03 -1.5750759e-04 
-2.1046521e-04 -3.9824704e-03 -2.4724210e-04 
-1.5970426e-04 -2.7658462e-03 -1.7402032e-04 
-8.5596803e-05 -1.5127106e-03 -2.6788944e-04 
-6.0757447e-05 -5.9054996e-04 -1.4232803e-04 
-7.4008276e-06 -4.4231634e-05 -1.3893344e-04 
8.4178728e-06 2.0739513e-04 -7.4594187e-05 
1.5104031e-05 2.5571670e-04 -4.3417855e-05 
1.5581747e-05 1.9356795e-04 -2.5601672e-05 
9.8197916e-06 1.0710775e-04 -2.0013595e-06 
7.1302793e-06 4.3644515e-05 -2.5744357e-06 
5.3648023e-06 9.6886597e-06 4.0762748e-06 
5.3970198e-06 -9.5326232e-06 2.0470038e-06 
2.4818496e-06 -2.3120825e-05 4.4958447e-06 
1.9271283e-06 -2.8000059e-05 5.5433998e-06 
3.0671083e-07 -2.0622343e-05 7.6863262e-06 
0.0000000e+00 1.2669102e-06 0.0000000e+00 
0.0000000e+00 1.4961893e-06 0.0000000e+00 
0.0000000e+00 -1.9658487e-06 0.0000000e+00 
0.0000000e+00 -2.3715138e-06 0.0000000e+00 
0.0000000e+00 1.3696233e-06 0.0000000e+00 
0.0000000e+00 4.7590556e-06 0.0000000e+00 
0.0000000e+00 4.1152462e-06 0.0000000e+00 
0.0000000e+00 8.8615991e-07 0.0000000e+00 
0.0000000e+00 -9.6467181e-07 0.0000000e+00 
0.0000000e+00 -2.6115447e-07 0.0000000e+00 
0.0000000e+00 4.5591506e-07 0.0000000e+00 
0.0000000e+00 -9.9385693e-07 0.0000000e+00 
0.0000000e+00 -3.2639207e-06 0.0000000e+00 
0.0000000e+00 -3.3570802e-06 0.0000000e+00 
0.0000000e+00 -7.1717380e-07 0.0000000e+00 
0.0000000e+00 1.9520319e-06 0.0000000e+00 
0.0000000e+00 2.0328555e-06 0.0000000e+00 
0.0000000e+00 7.1235171e-08 0.0000000e+00 
0.0000000e+00 -1.1734600e-06 0.0000000e+00 
0.0000000e+00 -2.1551689e-07 0.0000000e+00 
0.0000000e+00 1.5582210e-06 0.0000000e+00 
0.0000000e+00 1.8851437e-06 0.0000000e+00 
0.0000000e+00 4.3210264e-07 0.0000000e+00 
0.0000000e+00 -1.0374624e-06 0.0000000e+00 
0.0000000e+00 -1.0169722e-06 0.0000000e+00 
0.0000000e+00 1.3057805e-08 0.0000000e+00 
0.0000000e+00 4.8970179e-07 0.0000000e+00 
0.0000000e+00 -1.4649197e-07 0.0000000e+00 
0.0000000e+00 -9.1562885e-07 0.0000000e+00 
0.0000000e+00 -7.7103971e-07 0.0000000e+00 
0.0000000e+00 5.3824216e-08 0.0000000e+00 
0.0000000e+00 5.3750239e-07 0.0000000e+00 
0.0000000e+00 3.2420408e-07 0.0000000e+00 
0.0000000e+00 8.4668571e-08 0.0000000e+00 
0.0000000e+00 3.9582105e-07 0.0000000e+00 
0.0000000e+00 8.1755189e-07 0.0000000e+00 
0.0000000e+00 4.9984169e-07 0.0000000e+00 
0.0000000e+00 -5.1888952e-07 0.0000000e+00 
0.0000000e+00 -1.1309037e-06 0.0000000e+00 
0.0000000e+00 -1.3238045e-05 0.0000000e+00 
0.0000000e+00 -1.1814999e-05 0.0000000e+00 
0.0000000e+00 -7.7860004e-06 0.0000000e+00 
0.0000000e+00 -1.9176468e-06 0.0000000e+00 
0.0000000e+00 4.5562615e-06 0.0000000e+00 
0.0000000e+00 1.0154118e-05 0.0000000e+00 
0.0000000e+00 1.3505060e-05 0.0000000e+00 
0.0000000e+00 1.3742735e-05 0.0000000e+00 
0.0000000e+00 1.0781702e-05 0.0000000e+00 
0.0000000e+00 5.3578228e-06 0.0000000e+00 
0.0000000e+00 -1.1898246e-06 0.0000000e+00 
0.0000000e+00 -7.3097708e-06 0.0000000e+00 
0.0000000e+00 -1.1653327e-05 0.0000000e+00 
0.0000000e+00 -1.3379637e-05 0.0000000e+00 
0.0000000e+00 -1.2284729e-05 0.0000000e+00 
0.0000000e+00 -8.7615599e-06 0.0000000e+00 
0.0000000e+00 -3.6444512e-06 0.0000000e+00 
0.0000000e+00 1.9937870e-06 0.0000000e+00 
0.0000000e+00 7.0425076e-06 0.0000000e+00 
0.0000000e+00 1.0541594e-05 0.0000000e+00 
0.0000000e+00 1.1862154e-05 0.0000000e+00 
0.0000000e+00 1.0847046e-05 0.0000000e+00 
0.0000000e+00 7.8422245e-06 0.0000000e+00 
0.0000000e+00 3.5875412e-06 0.0000000e+00 
0.0000000e+00 -9.7875443e-07 0.0000000e+00 
0.0000000e+00 -4.9189202e-06 0.0000000e+00 
0.0000000e+00 -7.4695431e-06 0.0000000e+00 
0.0000000e+00 -8.2037395e-06 0.0000000e+00 
0.0000000e+00 -7.1604777e-06 0.0000000e+00 
0.0000000e+00 -4.8709644e-06 0.0000000e+00 
0.0000000e+00 -2.2266402e-06 0.0000000e+00 
0.0000000e+00 -1.9503682e-07 0.0000000e+00 
0.0000000e+00 5.4401198e-07 0.0000000e+00 
0.0000000e+00 -9.8945456e-08 0.0000000e+00 
0.0000000e+00 -1.5525170e-06 0.0000000e+00 
0.0000000e+00 -2.8201571e-06 0.0000000e+00 
0.0000000e+00 -2.9033870e-06 0.0000000e+00 
0.0000000e+00 -1.1985589e-06 0.0000000e+00 
0.0000000e+00 2.2611650e-06 0.0000000e+00 
0.0000000e+00 6.7493370e-06 0.0000000e+00 
0.0000000e+00 1.1023228e-05 0.0000000e+00 
0.0000000e+00 1.3761318e-05 0.0000000e+00 
0.0000000e+00 1.4099272e-05 0.0000000e+00 
0.0000000e+00 1.1963243e-05 0.0000000e+00 
0.0000000e+00 8.0513073e-06 0.0000000e+00 
0.0000000e+00 3.5656144e-06 0.0000000e+00 
0.0000000e+00 -1.8022524e-07 0.0000000e+00 
0.0000000e+00 -2.2524314e-06 0.0000000e+00 
0.0000000e+00 -2.5625259e-06 0.0000000e+00 
0.0000000e+00 -2.0205496e-06 0.0000000e+00 
0.0000000e+00 -2.2395429e-06 0.0000000e+00 
0.0000000e+00 -4.6957825e-06 0.0000000e+00 
0.0000000e+00 -9.2963573e-06 0.0000000e+00 
0.0000000e+00 -1.4915126e-05 0.0000000e+00 
0.0000000e+00 -2.0118316e-05 0.0000000e+00 
0.0000000e+00 -2.3205248e-05 0.0000000e+00 
0.0000000e+00 -2.3524452e-05 0.0000000e+00 
0.0000000e+00 -2.1380132e-05 0.0000000e+00 
0.0000000e+00 -1.7437469e-05 0.0000000e+00 
0.0000000e+00 -1.3326254e-05 0.0000000e+00 
0.0000000e+00 -1.0955844e-05 0.0000000e+00 
0.0000000e+00 -1.0647384e-05 0.0000000e+00 
0.0000000e+00 -1.0297513e-05 0.0000000e+00 
0.0000000e+00 -7.6078418e-06 0.0000000e+00 
0.0000000e+00 -2.3379237e-06 0.0000000e+00 
0.0000000e+00 1.8306996e-06 0.0000000e+00 
0.0000000e+00 2.6665429e-08 0.0000000e+00 
0.0000000e+00 -8.6351283e-06 0.0000000e+00 
0.0000000e+00 -1.9625939e-05 0.0000000e+00 
0.0000000e+00 -2.5427498e-05 0.0000000e+00 
0.0000000e+00 -2.0770118e-05 0.0000000e+00 
0.0000000e+00 -1.1460857e-05 0.0000000e+00 
0.0000000e+00 -1.1591345e-05 0.0000000e+00 
0.0000000e+00 -2.4535322e-05 0.0000000e+00 
0.0000000e+00 -3.4823948e-05 0.0000000e+00 
0.0000000e+00 -2.4069297e-05 0.0000000e+00 
0.0000000e+00 8.0287909e-06 0.0000000e+00 
0.0000000e+00 4.1537845e-05 0.0000000e+00 
0.0000000e+00 5.6189485e-05 0.0000000e+00 
0.0000000e+00 4.9092538e-05 0.0000000e+00 
0.0000000e+00 4.0014380e-05 0.0000000e+00 
0.0000000e+00 5.5906559e-05 0.0000000e+00 
0.0000000e+00 9.3644143e-05 0.0000000e+00 
0.0000000e+00 7.9741847e-05 0.0000000e+00 
0.0000000e+00 -1.0442482e-04 0.0000000e+00 
0.0000000e+00 -5.3464319e-04 0.0000000e+00 
0.0000000e+00 -1.2245952e-03 0.0000000e+00 
0.0000000e+00 -2.1488424e-03 0.0000000e+00 
0.0000000e+00 -3.2357159e-03 0.0000000e+00 
0.0000000e+00 -4.2992006e-03 0.0000000e+00 
0.0000000e+00 -4.8564384e-03 0.0000000e+00 
0.0000000e+00 -4.5806034e-03 0.0000000e+00 
0.0000000e+00 -4.1962876e-03 0.0000000e+00 
0.0000000e+00 -4.1915723e-03 0.0000000e+00 
0.0000000e+00 -4.4168574e-03 0.0000000e+00 
0.0000000e+00 -4.2319838e-03 0.0000000e+00 
0.0000000e+00 -3.1109706e-03 0.0000000e+00 
0.0000000e+00 -1.7688436e-03 0.0000000e+00 
0.0000000e+00 -7.3642883e-04 0.0000000e+00 
0.0000000e+00 -1.3124665e-04 0.0000000e+00 
0.0000000e+00 1.4384341e-04 0.0000000e+00 
0.0000000e+00 2.2516547e-04 0.0000000e+00 
0.0000000e+00 1.9820644e-04 0.0000000e+00 
0.0000000e+00 1.1833109e-04 0.0000000e+00 
0.0000000e+00 3.6760950e-05 0.0000000e+00 
0.0000000e+00 -1.0299886e-05 0.0000000e+00 
0.0000000e+00 -2.4092342e-05 0.0000000e+00 
0.0000000e+00 -2.7627746e-05 0.0000000e+00 
0.0000000e+00 -3.5662622e-05 0.0000000e+00 
0.0000000e+00 -4.4337961e-05 0.0000000e+00 
0.0000000e+00 -4.2603984e-05 0.0000000e+00 
0.0000000e+00 -2.7048087e-05 0.0000000e+00 
0.0000000e+00 -5.3175622e-06 0.0000000e+00 
0.0000000e+00 6.3308908e-06 0.0000000e+00 
0.0000000e+00 -2.9038254e-06 0.0000000e+00 
0.0000000e+00 -1.9606232e-05 0.0000000e+00 
0.0000000e+00 -1.5712165e-05 0.0000000e+00 
0.0000000e+00 2.0016476e-05 0.0000000e+00 
0.0000000e+00 7.0816815e-05 0.0000000e+00 
0.0000000e+00 1.0295382e-04 0.0000000e+00 
0.0000000e+00 9.0733978e-05 0.0000000e+00 
0.0000000e+00 4.9464717e-05 0.0000000e+00 
0.0000000e+00 1.7647491e-05 0.0000000e+00 
0.0000000e+00 -1.2156133e-05 0.0000000e+00 
0.0000000e+00 -1.4252987e-04 0.0000000e+00 
0.0000000e+00 -5.2840298e-04 0.0000000e+00 
0.0000000e+00 -1.2671859e-03 0.0000000e+00 
0.0000000e+00 -2.3253176e-03 0.0000000e+00 
0.0000000e+00 -3.5072821e-03 0.0000000e+00 
0.0000000e+00 -4.4643888e-03 0.0000000e+00 
0.0000000e+00 -4.7131777e-03 0.0000000e+00 
0.0000000e+00 -4.3791942e-03 0.0000000e+00 
0.0000000e+00 -4.1589546e-03 0.0000000e+00 
0.0000000e+00 -4.3144319e-03 0.0000000e+00 
0.0000000e+00 -4.4852206e-03 0.0000000e+00 
0.0000000e+00 -4.0069083e-03 0.0000000e+00 
0.0000000e+00 -2.7884727e-03 0.0000000e+00 
0.0000000e+00 -1.5227775e-03 0.0000000e+00 
0.0000000e+00 -5.9414975e-04 0.0000000e+00 
0.0000000e+00 -4.4504050e-05 0.0000000e+00 
0.0000000e+00 2.0737493e-04 0.0000000e+00 
0.0000000e+00 2.5633734e-04 0.0000000e+00 
0.0000000e+00 1.9539766e-04 0.0000000e+00 
0.0000000e+00 1.0852890e-04 0.0000000e+00 
0.0000000e+00 4.4059045e-05 0.0000000e+00 
0.0000000e+00 9.3231065e-06 0.0000000e+00 
0.0000000e+00 -9.8381124e-06 0.0000000e+00 
0.0000000e+00 -2.2976723e-05 0.0000000e+00 
0.0000000e+00 -2.7667804e-05 0.0000000e+00 
0.0000000e+00 -2.0652376e-05 0.0000000e+00 
0.0000000e+00 -7.7502045e-06 0.0000000e+00 
0.0000000e+00 1.0255475e-06 0.0000000e+00 
0.0000000e+00 1.5332745e-06 0.0000000e+00 
0.0000000e+00 -1.7486825e-06 0.0000000e+00 
0.0000000e+00 -2.2495633e-06 0.0000000e+00 
0.0000000e+00 1.2758840e-06 0.0000000e+00 
0.0000000e+00 4.6022187e-06 0.0000000e+00 
0.0000000e+00 4.1018461e-06 0.0000000e+00 
0.0000000e+00 1.0144768e-06 0.0000000e+00 
0.0000000e+00 -8.7831125e-07 0.0000000e+00 
0.0000000e+00 -3.2657979e-07 0.0000000e+00 
0.0000000e+00 3.3797821e-07 0.0000000e+00 
0.0000000e+00 -1.0037385e-06 0.0000000e+00 
0.0000000e+00 -3.1569598e-06 0.0000000e+00 
0.0000000e+00 -3.2761538e-06 0.0000000e+00 
0.0000000e+00 -7.6439630e-07 0.0000000e+00 
0.0000000e+00 1.8404716e-06 0.0000000e+00 
0.0000000e+00 1.9955407e-06 0.0000000e+00 
0.0000000e+00 1.4632688e-07 0.0000000e+00 
0.0000000e+00 -1.0858138e-06 0.0000000e+00 
0.0000000e+00 -2.2041735e-07 0.0000000e+00 
0.0000000e+00 1.4771504e-06 0.0000000e+00 
0.0000000e+00 1.8341142e-06 0.0000000e+00 
0.0000000e+00 4.7000739e-07 0.0000000e+00 
0.0000000e+00 -9.6595284e-07 0.0000000e+00 
0.0000000e+00 -1.0027512e-06 0.0000000e+00 
0.0000000e+00 -4.1194205e-08 0.0000000e+00 
0.0000000e+00 4.4184830e-07 0.0000000e+00 
0.0000000e+00 -1.2869526e-07 0.0000000e+00 
0.0000000e+00 -8.6199265e-07 0.0000000e+00 
0.0000000e+00 -7.5475754e-07 0.0000000e+00 
0.0000000e+00 1.4064273e-08 0.0000000e+00 
0.0000000e+00 4.9826986e-07 0.0000000e+00 
0.0000000e+00 3.3878118e-07 0.0000000e+00 
0.0000000e+00 1.3252667e-07 0.0000000e+00 
0.0000000e+00 4.1171606e-07 0.0000000e+00 
0.0000000e+00 7.7871374e-07 0.0000000e+00 
0.0000000e+00 4.5566145e-07 0.0000000e+00 
0.0000000e+00 -5.1299997e-07 0.0000000e+00 
0.0000000e+00 -1.0903817e-06 0.0000000e+00 
0.0000000e+00 0.0000000e+00 0.0000000e+00 
0.0000000e+00 0.0000000e+00 0.0000000e+00 
0.0000000e+00 0.0000000e+00 0.0000000e+00 
0.0000000e+00 0.0000000e+00 0.0000000e+00 
0.0000000e+00 0.0000000e+00 0.0000000e+00 
0.0000000e+00 0.0000000e+00 0.0000000e+00 
0.0000000e+00 0.0000000e+00 0.0000000e+00 
0.0000000e+00 0.0000000e+00 0.0000000e+00 
0.0000000e+00 0.0000000e+00 0.0000000e+00 
0.0000000e+00 0.0000000e+00 0.0000000e+00 
0.0000000e+00 0.0000000e+00 0.0000000e+00 
0.0000000e+00 0.0000000e+00 0.0000000e+00 
0.0000000e+00 0.0000000e+00 0.0000000e+00 
0.0000000e+00 0.0000000e+00 0.0000000e+00 
0.0000000e+00 0.0000000e+00 0.0000000e+00 
0.0000000e+00 0.0000000e+00 0.0000000e+00 
0.0000000e+00 0.0000000e+00 0.0000000e+00 
0.0000000e+00 0.0000000e+00 0.0000000e+00 
0.0000000e+00 0.0000000e+00 0.0000000e+00 
0.0000000e+00 0.0000000e+00 0.0000000e+00 
0.0000000e+00 0.0000000e+00 0.0000000e+00 
0.0000000e+00 0.0000000e+00 0.0000000e+00 
0.0000000e+00 0.0000000e+00 0.0000000e+00 
0.0000000e+00 0.0000000e+00 0.0000000e+00 
0.0000000e+00 0.0000000e+00 0.0000000e+00 
0.0000000e+00 0.0000000e+00 0.0000000e+00 
0.0000000e+00 0.0000000e+00 0.0000000e+00 
0.0000000e+00 0.0000000e+00 0.0000000e+00 
0.0000000e+00 0.0000000e+00 0.0000000e+00 
0.0000000e+00 0.0000000e+00 0.0000000e+00 
0.0000000e+00 0.0000000e+00 0.0000000e+00 
0.0000000e+00 0.0000000e+00 0.0000000e+00 
0.0000000e+00 0.0000000e+00 0.0000000e+00 
0.0000000e+00 0.0000000e+00 0.0000000e+00 
0.0000000e+00 0.0000000e+00 0.0000000e+00 
0.0000000e+00 0.0000000e+00 0.0000000e+00 
0.0000000e+00 0.0000000e+00 0.0000000e+00 
0.0000000e+00 0.0000000e+00 0.0000000e+00 
0.0000000e+00 0.0000000e+00 0.0000000e+00 
0.0000000e+00 0.0000000e+00 0.0000000e+00 
0.0000000e+00 0.0000000e+00 0.0000000e+00 
0.0000000e+00 0.0000000e+00 0.0000000e+00 
0.0000000e+00 0.0000000e+00 0.0000000e+00 
0.0000000e+00 0.0000000e+00 0.0000000e+00 
0.0000000e+00 0.0000000e+00 0.0000000e+00 
0.0000000e+00 0.0000000e+00 0.0000000e+00 
0.0000000e+00 0.0000000e+00 0.0000000e+00 
0.0000000e+00 0.0000000e+00 0.0000000e+00 
0.0000000e+00 0.0000000e+00 0.0000000e+00 
0.0000000e+00 0.0000000e+00 0.0000000e+00 
0.0000000e+00 0.0000000e+00 0.0000000e+00 
0.0000000e+00 0.0000000e+00 0.0000000e+00 
0.0000000e+00 0.0000000e+00 0.0000000e+00 
0.0000000e+00 0.0000000e+00 0.0000000e+00 
0.0000000e+00 0.0000000e+00 0.0000000e+00 
0.0000000e+00 0.0000000e+00 0.0000000e+00 
0.0000000e+00 0.0000000e+00 0.0000000e+00 