# vtk DataFile Version 4.0
vtk output
ASCII
DATASET UNSTRUCTURED_GRID
POINTS 2186 float
0.0000000e+00 0.0000000e+00 0.0000000e+00 
0.0000000e+00 0.0000000e+00 5.0000000e+01 
5.0000000e+00 0.0000000e+00 0.0000000e+00 
5.0000000e+00 0.0000000e+00 5.0000000e+01 
5.0000000e+00 1.0000000e+00 0.0000000e+00 
5.0000000e+00 1.0000000e+00 5.0000000e+01 
0.0000000e+00 1.0000000e+00 0.0000000e+00 
0.0000000e+00 1.0000000e+00 5.0000000e+01 
5.0000000e+00 2.0000000e+00 0.0000000e+00 
5.0000000e+00 2.0000000e+00 5.0000000e+01 
3.0000000e+00 2.0000000e+00 0.0000000e+00 
3.0000000e+00 2.0000000e+00 5.0000000e+01 
0.0000000e+00 2.0000000e+00 0.0000000e+00 
0.0000000e+00 2.0000000e+00 5.0000000e+01 
1.5000000e+00 3.0000000e+00 0.0000000e+00 
1.5000000e+00 3.0000000e+00 5.0000000e+01 
7.5000000e-01 3.0000000e+00 0.0000000e+00 
7.5000000e-01 3.0000000e+00 5.0000000e+01 
0.0000000e+00 3.0000000e+00 0.0000000e+00 
0.0000000e+00 3.0000000e+00 5.0000000e+01 
7.5000000e-01 3.0000000e+00 -2.5000000e+01 
7.5000000e-01 3.0000000e+00 -2.4500000e+01 
7.5000000e-01 3.0000000e+00 -2.4000000e+01 
7.5000000e-01 3.0000000e+00 -2.3500000e+01 
7.5000000e-01 3.0000000e+00 -2.3000000e+01 
7.5000000e-01 3.0000000e+00 -2.2500000e+01 
7.5000000e-01 3.0000000e+00 -2.2000000e+01 
7.5000000e-01 3.0000000e+00 -2.1500000e+01 
7.5000000e-01 3.0000000e+00 -2.1000000e+01 
7.5000000e-01 3.0000000e+00 -2.0500000e+01 
7.5000000e-01 3.0000000e+00 -2.0000000e+01 
7.5000000e-01 3.0000000e+00 -1.9500000e+01 
7.5000000e-01 3.0000000e+00 -1.9000000e+01 
7.5000000e-01 3.0000000e+00 -1.8500000e+01 
7.5000000e-01 3.0000000e+00 -1.8000000e+01 
7.5000000e-01 3.0000000e+00 -1.7500000e+01 
7.5000000e-01 3.0000000e+00 -1.7000000e+01 
7.5000000e-01 3.0000000e+00 -1.6500000e+01 
7.5000000e-01 3.0000000e+00 -1.6000000e+01 
7.5000000e-01 3.0000000e+00 -1.5500000e+01 
7.5000000e-01 3.0000000e+00 -1.5000000e+01 
7.5000000e-01 3.0000000e+00 -1.4500000e+01 
7.5000000e-01 3.0000000e+00 -1.4000000e+01 
7.5000000e-01 3.0000000e+00 -1.3500000e+01 
7.5000000e-01 3.0000000e+00 -1.3000000e+01 
7.5000000e-01 3.0000000e+00 -1.2500000e+01 
7.5000000e-01 3.0000000e+00 -1.2000000e+01 
7.5000000e-01 3.0000000e+00 -1.1500000e+01 
7.5000000e-01 3.0000000e+00 -1.1000000e+01 
7.5000000e-01 3.0000000e+00 -1.0500000e+01 
7.5000000e-01 3.0000000e+00 -1.0000000e+01 
7.5000000e-01 3.0000000e+00 -9.5000000e+00 
7.5000000e-01 3.0000000e+00 -9.0000000e+00 
7.5000000e-01 3.0000000e+00 -8.5000000e+00 
7.5000000e-01 3.0000000e+00 -8.0000000e+00 
7.5000000e-01 3.0000000e+00 -7.5000000e+00 
7.5000000e-01 3.0000000e+00 -7.0000000e+00 
7.5000000e-01 3.0000000e+00 -6.5000000e+00 
7.5000000e-01 3.0000000e+00 -6.0000000e+00 
7.5000000e-01 3.0000000e+00 -5.5000000e+00 
7.5000000e-01 3.0000000e+00 -5.0000000e+00 
7.5000000e-01 3.0000000e+00 -4.5000000e+00 
7.5000000e-01 3.0000000e+00 -4.0000000e+00 
7.5000000e-01 3.0000000e+00 -3.5000000e+00 
7.5000000e-01 3.0000000e+00 -3.0000000e+00 
7.5000000e-01 3.0000000e+00 -2.5000000e+00 
7.5000000e-01 3.0000000e+00 -2.0000000e+00 
7.5000000e-01 3.0000000e+00 -1.5000000e+00 
7.5000000e-01 3.0000000e+00 -1.0000000e+00 
7.5000000e-01 3.0000000e+00 -5.0000000e-01 
7.5000000e-01 3.0000000e+00 5.0000000e-01 
7.5000000e-01 3.0000000e+00 1.0000000e+00 
7.5000000e-01 3.0000000e+00 1.5000000e+00 
7.5000000e-01 3.0000000e+00 2.0000000e+00 
7.5000000e-01 3.0000000e+00 2.5000000e+00 
7.5000000e-01 3.0000000e+00 3.0000000e+00 
7.5000000e-01 3.0000000e+00 3.5000000e+00 
7.5000000e-01 3.0000000e+00 4.0000000e+00 
7.5000000e-01 3.0000000e+00 4.5000000e+00 
7.5000000e-01 3.0000000e+00 5.0000000e+00 
7.5000000e-01 3.0000000e+00 5.5000000e+00 
7.5000000e-01 3.0000000e+00 6.0000000e+00 
7.5000000e-01 3.0000000e+00 6.5000000e+00 
7.5000000e-01 3.0000000e+00 7.0000000e+00 
7.5000000e-01 3.0000000e+00 7.5000000e+00 
7.5000000e-01 3.0000000e+00 8.0000000e+00 
7.5000000e-01 3.0000000e+00 8.5000000e+00 
7.5000000e-01 3.0000000e+00 9.0000000e+00 
7.5000000e-01 3.0000000e+00 9.5000000e+00 
7.5000000e-01 3.0000000e+00 1.0000000e+01 
7.5000000e-01 3.0000000e+00 1.0500000e+01 
7.5000000e-01 3.0000000e+00 1.1000000e+01 
7.5000000e-01 3.0000000e+00 1.1500000e+01 
7.5000000e-01 3.0000000e+00 1.2000000e+01 
7.5000000e-01 3.0000000e+00 1.2500000e+01 
7.5000000e-01 3.0000000e+00 1.3000000e+01 
7.5000000e-01 3.0000000e+00 1.3500000e+01 
7.5000000e-01 3.0000000e+00 1.4000000e+01 
7.5000000e-01 3.0000000e+00 1.4500000e+01 
7.5000000e-01 3.0000000e+00 1.5000000e+01 
7.5000000e-01 3.0000000e+00 1.5500000e+01 
7.5000000e-01 3.0000000e+00 1.6000000e+01 
7.5000000e-01 3.0000000e+00 1.6500000e+01 
7.5000000e-01 3.0000000e+00 1.7000000e+01 
7.5000000e-01 3.0000000e+00 1.7500000e+01 
7.5000000e-01 3.0000000e+00 1.8000000e+01 
7.5000000e-01 3.0000000e+00 1.8500000e+01 
7.5000000e-01 3.0000000e+00 1.9000000e+01 
7.5000000e-01 3.0000000e+00 1.9500000e+01 
7.5000000e-01 3.0000000e+00 2.0000000e+01 
7.5000000e-01 3.0000000e+00 2.0500000e+01 
7.5000000e-01 3.0000000e+00 2.1000000e+01 
7.5000000e-01 3.0000000e+00 2.1500000e+01 
7.5000000e-01 3.0000000e+00 2.2000000e+01 
7.5000000e-01 3.0000000e+00 2.2500000e+01 
7.5000000e-01 3.0000000e+00 2.3000000e+01 
7.5000000e-01 3.0000000e+00 2.3500000e+01 
7.5000000e-01 3.0000000e+00 2.4000000e+01 
7.5000000e-01 3.0000000e+00 2.4500000e+01 
7.5000000e-01 3.0000000e+00 2.5000000e+01 
7.5000000e-01 3.0000000e+00 2.5500000e+01 
7.5000000e-01 3.0000000e+00 2.6000000e+01 
7.5000000e-01 3.0000000e+00 2.6500000e+01 
7.5000000e-01 3.0000000e+00 2.7000000e+01 
7.5000000e-01 3.0000000e+00 2.7500000e+01 
7.5000000e-01 3.0000000e+00 2.8000000e+01 
7.5000000e-01 3.0000000e+00 2.8500000e+01 
7.5000000e-01 3.0000000e+00 2.9000000e+01 
7.5000000e-01 3.0000000e+00 2.9500000e+01 
7.5000000e-01 3.0000000e+00 3.0000000e+01 
7.5000000e-01 3.0000000e+00 3.0500000e+01 
7.5000000e-01 3.0000000e+00 3.1000000e+01 
7.5000000e-01 3.0000000e+00 3.1500000e+01 
7.5000000e-01 3.0000000e+00 3.2000000e+01 
7.5000000e-01 3.0000000e+00 3.2500000e+01 
7.5000000e-01 3.0000000e+00 3.3000000e+01 
7.5000000e-01 3.0000000e+00 3.3500000e+01 
7.5000000e-01 3.0000000e+00 3.4000000e+01 
7.5000000e-01 3.0000000e+00 3.4500000e+01 
7.5000000e-01 3.0000000e+00 3.5000000e+01 
7.5000000e-01 3.0000000e+00 3.5500000e+01 
7.5000000e-01 3.0000000e+00 3.6000000e+01 
7.5000000e-01 3.0000000e+00 3.6500000e+01 
7.5000000e-01 3.0000000e+00 3.7000000e+01 
7.5000000e-01 3.0000000e+00 3.7500000e+01 
7.5000000e-01 3.0000000e+00 3.8000000e+01 
7.5000000e-01 3.0000000e+00 3.8500000e+01 
7.5000000e-01 3.0000000e+00 3.9000000e+01 
7.5000000e-01 3.0000000e+00 3.9500000e+01 
7.5000000e-01 3.0000000e+00 4.0000000e+01 
7.5000000e-01 3.0000000e+00 4.0500000e+01 
7.5000000e-01 3.0000000e+00 4.1000000e+01 
7.5000000e-01 3.0000000e+00 4.1500000e+01 
7.5000000e-01 3.0000000e+00 4.2000000e+01 
7.5000000e-01 3.0000000e+00 4.2500000e+01 
7.5000000e-01 3.0000000e+00 4.3000000e+01 
7.5000000e-01 3.0000000e+00 4.3500000e+01 
7.5000000e-01 3.0000000e+00 4.4000000e+01 
7.5000000e-01 3.0000000e+00 4.4500000e+01 
7.5000000e-01 3.0000000e+00 4.5000000e+01 
7.5000000e-01 3.0000000e+00 4.5500000e+01 
7.5000000e-01 3.0000000e+00 4.6000000e+01 
7.5000000e-01 3.0000000e+00 4.6500000e+01 
7.5000000e-01 3.0000000e+00 4.7000000e+01 
7.5000000e-01 3.0000000e+00 4.7500000e+01 
7.5000000e-01 3.0000000e+00 4.8000000e+01 
7.5000000e-01 3.0000000e+00 4.8500000e+01 
7.5000000e-01 3.0000000e+00 4.9000000e+01 
7.5000000e-01 3.0000000e+00 4.9500000e+01 
7.5000000e-01 3.0000000e+00 5.0500000e+01 
7.5000000e-01 3.0000000e+00 5.1000000e+01 
7.5000000e-01 3.0000000e+00 5.1500000e+01 
7.5000000e-01 3.0000000e+00 5.2000000e+01 
7.5000000e-01 3.0000000e+00 5.2500000e+01 
7.5000000e-01 3.0000000e+00 5.3000000e+01 
7.5000000e-01 3.0000000e+00 5.3500000e+01 
7.5000000e-01 3.0000000e+00 5.4000000e+01 
7.5000000e-01 3.0000000e+00 5.4500000e+01 
7.5000000e-01 3.0000000e+00 5.5000000e+01 
7.5000000e-01 3.0000000e+00 5.5500000e+01 
7.5000000e-01 3.0000000e+00 5.6000000e+01 
7.5000000e-01 3.0000000e+00 5.6500000e+01 
7.5000000e-01 3.0000000e+00 5.7000000e+01 
7.5000000e-01 3.0000000e+00 5.7500000e+01 
7.5000000e-01 3.0000000e+00 5.8000000e+01 
7.5000000e-01 3.0000000e+00 5.8500000e+01 
7.5000000e-01 3.0000000e+00 5.9000000e+01 
7.5000000e-01 3.0000000e+00 5.9500000e+01 
7.5000000e-01 3.0000000e+00 6.0000000e+01 
7.5000000e-01 3.0000000e+00 6.0500000e+01 
7.5000000e-01 3.0000000e+00 6.1000000e+01 
7.5000000e-01 3.0000000e+00 6.1500000e+01 
7.5000000e-01 3.0000000e+00 6.2000000e+01 
7.5000000e-01 3.0000000e+00 6.2500000e+01 
7.5000000e-01 3.0000000e+00 6.3000000e+01 
7.5000000e-01 3.0000000e+00 6.3500000e+01 
7.5000000e-01 3.0000000e+00 6.4000000e+01 
7.5000000e-01 3.0000000e+00 6.4500000e+01 
7.5000000e-01 3.0000000e+00 6.5000000e+01 
7.5000000e-01 3.0000000e+00 6.5500000e+01 
7.5000000e-01 3.0000000e+00 6.6000000e+01 
7.5000000e-01 3.0000000e+00 6.6500000e+01 
7.5000000e-01 3.0000000e+00 6.7000000e+01 
7.5000000e-01 3.0000000e+00 6.7500000e+01 
7.5000000e-01 3.0000000e+00 6.8000000e+01 
7.5000000e-01 3.0000000e+00 6.8500000e+01 
7.5000000e-01 3.0000000e+00 6.9000000e+01 
7.5000000e-01 3.0000000e+00 6.9500000e+01 
7.5000000e-01 3.0250001e+00 -2.5000000e+01 
7.5000000e-01 3.0250001e+00 -2.4500000e+01 
7.5000000e-01 3.0250001e+00 -2.4000000e+01 
7.5000000e-01 3.0250001e+00 -2.3500000e+01 
7.5000000e-01 3.0250001e+00 -2.3000000e+01 
7.5000000e-01 3.0250001e+00 -2.2500000e+01 
7.5000000e-01 3.0250001e+00 -2.2000000e+01 
7.5000000e-01 3.0250001e+00 -2.1500000e+01 
7.5000000e-01 3.0250001e+00 -2.1000000e+01 
7.5000000e-01 3.0250001e+00 -2.0500000e+01 
7.5000000e-01 3.0250001e+00 -2.0000000e+01 
7.5000000e-01 3.0250001e+00 -1.9500000e+01 
7.5000000e-01 3.0250001e+00 -1.9000000e+01 
7.5000000e-01 3.0250001e+00 -1.8500000e+01 
7.5000000e-01 3.0250001e+00 -1.8000000e+01 
7.5000000e-01 3.0250001e+00 -1.7500000e+01 
7.5000000e-01 3.0250001e+00 -1.7000000e+01 
7.5000000e-01 3.0250001e+00 -1.6500000e+01 
7.5000000e-01 3.0250001e+00 -1.6000000e+01 
7.5000000e-01 3.0250001e+00 -1.5500000e+01 
[...]
POINT_DATA 2186
FIELD FieldData 3
DISPLACEMENT 3 2186  float
0.0000000e+00 0.0000000e+00 0.0000000e+00 
0.0000000e+00 0.0000000e+00 0.0000000e+00 
0.0000000e+00 0.0000000e+00 0.0000000e+00 
0.0000000e+00 0.0000000e+00 0.0000000e+00 
2.2334221e-05 -3.1010977e-06 -1.8821007e-05 
1.6507268e-10 -2.7692895e-09 2.3749611e-10 
0.0000000e+00 -1.5695525e-05 0.0000000e+00 
0.0000000e+00 -1.1430788e-08 0.0000000e+00 
3.5557652e-05 8.6151922e-06 -2.5484294e-05 
-5.2520233e-10 -1.6461652e-09 -4.3482426e-10 
-7.2596154e-06 -7.3686815e-06 -7.1491631e-06 
-4.6940314e-09 -2.7941587e-09 -1.0614757e-08 
0.0000000e+00 -1.2508017e-05 0.0000000e+00 
0.0000000e+00 1.7503132e-07 0.0000000e+00 
-1.0622749e-05 6.4086824e-05 6.6791967e-05 
-4.7893582e-08 1.2155770e-07 -4.5597717e-10 
1.1819354e-05 5.6101180e-06 7.1884642e-06 
-2.6629984e-10 -2.6622260e-07 -9.7649551e-09 
0.0000000e+00 7.1642295e-05 0.0000000e+00 
0.0000000e+00 8.1686602e-07 0.0000000e+00 
0.0000000e+00 -4.3799187e-07 0.0000000e+00 
0.0000000e+00 6.0382895e-08 0.0000000e+00 
0.0000000e+00 7.7999994e-07 0.0000000e+00 
0.0000000e+00 4.8221420e-07 0.0000000e+00 
0.0000000e+00 -9.2165789e-07 0.0000000e+00 
0.0000000e+00 -1.6675436e-06 0.0000000e+00 
0.0000000e+00 3.2431355e-08 0.0000000e+00 
0.0000000e+00 2.9122855e-06 0.0000000e+00 
0.0000000e+00 2.8549209e-06 0.0000000e+00 
0.0000000e+00 -1.9132135e-06 0.0000000e+00 
0.0000000e+00 -6.5597806e-06 0.0000000e+00 
0.0000000e+00 -3.8309859e-06 0.0000000e+00 
0.0000000e+00 5.9572653e-06 0.0000000e+00 
0.0000000e+00 1.2030155e-05 0.0000000e+00 
0.0000000e+00 4.4006533e-06 0.0000000e+00 
0.0000000e+00 -1.2070495e-05 0.0000000e+00 
0.0000000e+00 -1.9393672e-05 0.0000000e+00 
0.0000000e+00 -5.7164625e-06 0.0000000e+00 
0.0000000e+00 1.8669974e-05 0.0000000e+00 
0.0000000e+00 2.8813685e-05 0.0000000e+00 
0.0000000e+00 1.0649360e-05 0.0000000e+00 
0.0000000e+00 -2.2225242e-05 0.0000000e+00 
0.0000000e+00 -3.9393835e-05 0.0000000e+00 
0.0000000e+00 -2.2293831e-05 0.0000000e+00 
0.0000000e+00 1.7274177e-05 0.0000000e+00 
0.0000000e+00 4.6497076e-05 0.0000000e+00 
0.0000000e+00 3.9845130e-05 0.0000000e+00 
0.0000000e+00 8.5385932e-07 0.0000000e+00 
0.0000000e+00 -4.0838833e-05 0.0000000e+00 
0.0000000e+00 -5.3515028e-05 0.0000000e+00 
0.0000000e+00 -2.8086928e-05 0.0000000e+00 
0.0000000e+00 1.5888241e-05 0.0000000e+00 
0.0000000e+00 4.6521509e-05 0.0000000e+00 
0.0000000e+00 4.4396380e-05 0.0000000e+00 
0.0000000e+00 1.5898149e-05 0.0000000e+00 
0.0000000e+00 -1.4932185e-05 0.0000000e+00 
0.0000000e+00 -2.7667500e-05 0.0000000e+00 
0.0000000e+00 -2.0750113e-05 0.0000000e+00 
0.0000000e+00 -8.5283773e-06 0.0000000e+00 
0.0000000e+00 -5.3225390e-06 0.0000000e+00 
0.0000000e+00 -1.2182407e-05 0.0000000e+00 
0.0000000e+00 -1.7011445e-05 0.0000000e+00 
0.0000000e+00 -6.3568177e-06 0.0000000e+00 
0.0000000e+00 2.1124937e-05 0.0000000e+00 
0.0000000e+00 5.0405764e-05 0.0000000e+00 
0.0000000e+00 6.0257829e-05 0.0000000e+00 
0.0000000e+00 4.1624124e-05 0.0000000e+00 
0.0000000e+00 7.8644998e-06 0.0000000e+00 
0.0000000e+00 -1.5194144e-05 0.0000000e+00 
0.0000000e+00 -1.2388884e-05 0.0000000e+00 
5.2033388e-06 9.0972944e-06 6.8212779e-05 
-4.7490721e-06 -2.8229355e-05 9.6696123e-05 
-1.7602561e-05 -1.0357791e-04 9.4965195e-05 
-1.6726872e-05 -1.8539155e-04 1.3285236e-04 
-7.0051530e-05 -2.3165309e-04 1.0946091e-04 
-4.5567205e-05 -2.3564782e-04 1.4323564e-04 
-2.6336467e-05 -2.5361963e-04 1.6225192e-04 
-7.4079035e-05 -3.7370331e-04 1.8572347e-04 
-1.3308994e-04 -6.4944418e-04 2.3204913e-04 
-1.8310898e-04 -1.0829814e-03 1.8980973e-04 
-2.0822800e-04 -1.6958085e-03 2.9423143e-04 
-2.1622617e-04 -2.5226264e-03 2.1657237e-04 
-3.1271568e-04 -3.6357392e-03 2.8860712e-04 
-4.6082403e-04 -4.9047968e-03 6.9216003e-05 
-5.0776784e-04 -5.7989466e-03 -1.8555693e-05 
-4.9259391e-04 -5.5417800e-03 -1.1997391e-04 
-3.8016189e-04 -4.9560675e-03 -2.6497355e-04 
-3.0955413e-04 -4.6567479e-03 -2.6674807e-04 
-2.4466007e-04 -4.7768159e-03 -2.6048813e-04 
-2.9264227e-04 -4.6997750e-03 -2.5670775e-04 
-2.2328951e-04 -3.6514078e-03 -3.8461416e-04 
-1.8921103e-04 -2.2141254e-03 -2.5973184e-04 
-5.6613768e-05 -1.0041745e-03 -3.4300255e-04 
8.7003209e-06 -2.0142824e-04 -1.9671611e-04 
4.5818899e-05 2.0191976e-04 -1.1577686e-04 
6.0231472e-05 3.2649667e-04 6.5897606e-05 
3.5816643e-06 2.9195566e-04 5.3877382e-05 
-3.5012295e-06 1.9276637e-04 4.9371676e-05 
1.2730931e-06 9.0150388e-05 4.8871498e-05 
-6.0159387e-06 2.0679625e-05 9.0154808e-06 
1.8361379e-06 -7.3598876e-06 1.0963507e-05 
-5.0350025e-07 -1.8224078e-05 -7.7669329e-06 
-1.7427639e-07 -3.3859436e-05 -1.3553860e-05 
-3.3265383e-07 -4.7089357e-05 1.7431336e-06 
-3.1407524e-06 -3.6933125e-05 -1.6851582e-05 
-2.4362398e-06 5.1434163e-06 -1.9093230e-05 
1.9251038e-06 5.6643898e-05 -9.9726294e-06 
-3.0553649e-06 7.4482836e-05 -2.3572751e-05 
4.1885968e-07 4.3922166e-05 -1.3219197e-06 
1.3869790e-05 -5.4776460e-06 3.8029724e-05 
9.1154907e-06 -4.3657641e-05 6.3172374e-05 
-1.3375669e-05 -6.5671658e-05 7.6372395e-05 
-1.6369309e-05 -9.2470240e-05 9.0857022e-05 
-3.9845199e-05 -1.5627970e-04 6.2813451e-05 
-3.9500566e-05 -2.4781071e-04 1.0241156e-04 
-6.2977451e-05 -3.1462143e-04 1.2907857e-04 
-8.1630445e-05 -3.4166701e-04 1.7645728e-04 
-5.7472978e-05 -3.9576122e-04 1.8017243e-04 
-1.2130603e-04 -6.0213619e-04 2.2782099e-04 
-1.3006007e-04 -1.0705986e-03 2.1380177e-04 
-2.4235441e-04 -1.8448660e-03 2.6268643e-04 
-2.6767389e-04 -2.8515172e-03 1.8529070e-04 
-3.6098939e-04 -4.0261270e-03 2.8741983e-04 
-4.7257630e-04 -5.1424033e-03 1.1108515e-05 
-4.8555050e-04 -5.7485676e-03 -9.5508745e-05 
-4.8033328e-04 -5.4153982e-03 -1.5087516e-04 
-4.2794988e-04 -4.9674232e-03 -2.8657806e-04 
-4.1775353e-04 -4.8245736e-03 -3.1738065e-04 
-3.5065063e-04 -4.9243509e-03 -3.1623451e-04 
-3.5004274e-04 -4.6000546e-03 -2.6678070e-04 
-2.6379657e-04 -3.4103561e-03 -4.4563893e-04 
-1.7138226e-04 -1.9746323e-03 -2.7804947e-04 
-5.3370000e-05 -8.5622224e-04 -3.5079001e-04 
6.0679718e-06 -1.4385184e-04 -2.0103215e-04 
4.1434065e-05 2.2498831e-04 -9.8642908e-05 
4.7064063e-05 3.4879698e-04 1.6022459e-05 
1.4581212e-05 3.0542281e-04 6.1465835e-05 
7.2359676e-06 1.8818749e-04 6.2023464e-05 
1.4200369e-06 8.1842831e-05 4.9460297e-05 
-2.9331491e-06 1.9191661e-05 6.3111670e-06 
1.9198726e-06 -5.7621164e-06 5.4810066e-06 
-3.3345779e-07 -1.8078037e-05 -5.0050339e-06 
-3.6736462e-06 -3.1121403e-05 -1.4986018e-05 
2.1354228e-06 -3.6401121e-05 -3.6312136e-07 
1.7290557e-06 -2.3692759e-05 -6.5612230e-06 
-2.5637864e-06 -2.2986042e-07 4.0037122e-07 
3.3780962e-06 1.6935755e-05 2.7451163e-06 
-7.4862174e-07 1.9480844e-05 6.2869032e-07 
-2.1449307e-06 1.0708116e-05 1.9584902e-06 
9.4457215e-07 -1.2808277e-06 6.5750299e-07 
-1.7938954e-06 -9.8892142e-06 -2.3240768e-06 
-9.2588948e-08 -1.1155440e-05 9.3021191e-07 
4.3363709e-08 -4.6959049e-06 3.3464360e-07 
-5.3958473e-08 4.1405870e-06 -7.9763458e-07 
5.0883705e-07 8.5221754e-06 1.0854324e-06 
6.4059428e-08 6.1334631e-06 -7.1144093e-08 
-2.4093171e-07 -4.8261006e-07 -4.8268373e-07 
5.0191890e-08 -5.4856455e-06 5.1184639e-07 
-5.5822490e-08 -4.8660499e-06 -2.4900501e-07 
-1.1813092e-07 -6.8530721e-07 -2.0866555e-07 
8.2015134e-08 2.5960576e-06 2.8781074e-07 
3.8824041e-08 2.9281680e-06 -1.0202744e-07 
1.3887700e-08 1.0493007e-06 -2.9275167e-08 
6.5331314e-08 -9.8900625e-07 1.8419556e-07 
3.2774690e-09 -1.7213331e-06 -8.5362267e-08 
-5.4552213e-08 -1.0831105e-06 1.0712107e-08 
5.5900443e-08 2.0556784e-07 5.8927480e-08 
7.3026856e-09 1.0938921e-06 -1.3547847e-09 
6.2003203e-09 8.1505920e-07 -2.8724495e-08 
0.0000000e+00 -9.8269470e-07 0.0000000e+00 
0.0000000e+00 -6.7028969e-07 0.0000000e+00 
0.0000000e+00 2.1288149e-07 0.0000000e+00 
0.0000000e+00 6.6735464e-07 0.0000000e+00 
0.0000000e+00 3.3655488e-07 0.0000000e+00 
0.0000000e+00 -2.2422245e-07 0.0000000e+00 
0.0000000e+00 -3.6928500e-07 0.0000000e+00 
0.0000000e+00 -9.0636476e-08 0.0000000e+00 
0.0000000e+00 1.6948810e-07 0.0000000e+00 
0.0000000e+00 1.4988943e-07 0.0000000e+00 
0.0000000e+00 -1.3308552e-08 0.0000000e+00 
0.0000000e+00 -8.8574197e-08 0.0000000e+00 
0.0000000e+00 -3.7795818e-08 0.0000000e+00 
0.0000000e+00 2.6739249e-08 0.0000000e+00 
0.0000000e+00 3.1226413e-08 0.0000000e+00 
0.0000000e+00 1.3374057e-09 0.0000000e+00 
0.0000000e+00 -1.3948054e-08 0.0000000e+00 
0.0000000e+00 -6.5187304e-09 0.0000000e+00 
0.0000000e+00 3.4592122e-09 0.0000000e+00 
0.0000000e+00 4.1698218e-09 0.0000000e+00 
0.0000000e+00 1.6964898e-10 0.0000000e+00 
0.0000000e+00 -1.6317760e-09 0.0000000e+00 
0.0000000e+00 -6.6380229e-10 0.0000000e+00 
0.0000000e+00 3.9537854e-10 0.0000000e+00 
0.0000000e+00 3.8801926e-10 0.0000000e+00 
0.0000000e+00 -1.4826045e-11 0.0000000e+00 
0.0000000e+00 -1.4500447e-10 0.0000000e+00 
0.0000000e+00 -4.1495741e-11 0.0000000e+00 
0.0000000e+00 3.7056747e-11 0.0000000e+00 
0.0000000e+00 2.5462072e-11 0.0000000e+00 
0.0000000e+00 -4.6136840e-12 0.0000000e+00 
0.0000000e+00 -9.6407231e-12 0.0000000e+00 
0.0000000e+00 -1.3181362e-12 0.0000000e+00 
0.0000000e+00 2.6449229e-12 0.0000000e+00 
0.0000000e+00 1.1471139e-12 0.0000000e+00 
0.0000000e+00 -4.9198872e-13 0.0000000e+00 
0.0000000e+00 -5.0245853e-13 0.0000000e+00 
0.0000000e+00 -3.9758208e-17 0.0000000e+00 
0.0000000e+00 1.9485067e-13 0.0000000e+00 
0.0000000e+00 -4.1973635e-07 0.0000000e+00 
0.0000000e+00 7.4308275e-08 0.0000000e+00 
0.0000000e+00 7.6605016e-07 0.0000000e+00 
0.0000000e+00 4.3082179e-07 0.0000000e+00 
0.0000000e+00 -9.5280217e-07 0.0000000e+00 
0.0000000e+00 -1.6046157e-06 0.0000000e+00 
0.0000000e+00 1.4506922e-07 0.0000000e+00 
0.0000000e+00 2.9098769e-06 0.0000000e+00 
0.0000000e+00 2.6720479e-06 0.0000000e+00 
0.0000000e+00 -2.0748023e-06 0.0000000e+00 
0.0000000e+00 -6.4326264e-06 0.0000000e+00 
0.0000000e+00 -3.4798875e-06 0.0000000e+00 
0.0000000e+00 6.1038045e-06 0.0000000e+00 
0.0000000e+00 1.1689472e-05 0.0000000e+00 
0.0000000e+00 3.8847670e-06 0.0000000e+00 
0.0000000e+00 -1.2129695e-05 0.0000000e+00 
0.0000000e+00 -1.8812167e-05 0.0000000e+00 
0.0000000e+00 -5.0731987e-06 0.0000000e+00 
0.0000000e+00 1.8633873e-05 0.0000000e+00 
0.0000000e+00 2.8048460e-05 0.0000000e+00 
0.0000000e+00 9.9023300e-06 0.0000000e+00 
0.0000000e+00 -2.2183614e-05 0.0000000e+00 
0.0000000e+00 -3.8566210e-05 0.0000000e+00 
0.0000000e+00 -2.1444232e-05 0.0000000e+00 
0.0000000e+00 1.7371633e-05 0.0000000e+00 
0.0000000e+00 4.5765129e-05 0.0000000e+00 
0.0000000e+00 3.8925315e-05 0.0000000e+00 
0.0000000e+00 5.0852509e-07 0.0000000e+00 
0.0000000e+00 -4.0359952e-05 0.0000000e+00 
0.0000000e+00 -5.2630414e-05 0.0000000e+00 
0.0000000e+00 -2.7506239e-05 0.0000000e+00 
0.0000000e+00 1.5732445e-05 0.0000000e+00 
0.0000000e+00 4.5800913e-05 0.0000000e+00 
0.0000000e+00 4.3729662e-05 0.0000000e+00 
0.0000000e+00 1.5822099e-05 0.0000000e+00 
0.0000000e+00 -1.4421845e-05 0.0000000e+00 
0.0000000e+00 -2.7079061e-05 0.0000000e+00 
0.0000000e+00 -2.0599091e-05 0.0000000e+00 
0.0000000e+00 -8.8856750e-06 0.0000000e+00 
0.0000000e+00 -5.8250007e-06 0.0000000e+00 
0.0000000e+00 -1.2398158e-05 0.0000000e+00 
0.0000000e+00 -1.6767353e-05 0.0000000e+00 
0.0000000e+00 -5.8332516e-06 0.0000000e+00 
0.0000000e+00 2.1504644e-05 0.0000000e+00 
0.0000000e+00 5.0273156e-05 0.0000000e+00 
0.0000000e+00 5.9668128e-05 0.0000000e+00 
0.0000000e+00 4.1117710e-05 0.0000000e+00 
0.0000000e+00 7.9941201e-06 0.0000000e+00 
0.0000000e+00 -1.4444414e-05 0.0000000e+00 
0.0000000e+00 -1.1620703e-05 0.0000000e+00 
0.0000000e+00 5.7918228e-06 0.0000000e+00 
0.0000000e+00 8.3436798e-06 0.0000000e+00 
0.0000000e+00 -2.9286615e-05 0.0000000e+00 
0.0000000e+00 -1.0439470e-04 0.0000000e+00 
0.0000000e+00 -1.8460986e-04 0.0000000e+00 
0.0000000e+00 -2.2949261e-04 0.0000000e+00 
0.0000000e+00 -2.3402959e-04 0.0000000e+00 
0.0000000e+00 -2.5426177e-04 0.0000000e+00 
0.0000000e+00 -3.7557771e-04 0.0000000e+00 
0.0000000e+00 -6.4981019e-04 0.0000000e+00 
0.0000000e+00 -1.0836850e-03 0.0000000e+00 
0.0000000e+00 -1.6942384e-03 0.0000000e+00 
0.0000000e+00 -2.5291520e-03 0.0000000e+00 
0.0000000e+00 -3.6497428e-03 0.0000000e+00 
0.0000000e+00 -4.9354951e-03 0.0000000e+00 
0.0000000e+00 -5.8223801e-03 0.0000000e+00 
0.0000000e+00 -5.5712573e-03 0.0000000e+00 
0.0000000e+00 -4.9726455e-03 0.0000000e+00 
0.0000000e+00 -4.6828035e-03 0.0000000e+00 
0.0000000e+00 -4.8023514e-03 0.0000000e+00 
0.0000000e+00 -4.7309729e-03 0.0000000e+00 
0.0000000e+00 -3.6707297e-03 0.0000000e+00 
0.0000000e+00 -2.2302102e-03 0.0000000e+00 
0.0000000e+00 -1.0100163e-03 0.0000000e+00 
0.0000000e+00 -2.0434328e-04 0.0000000e+00 
0.0000000e+00 2.0264137e-04 0.0000000e+00 
0.0000000e+00 3.2735491e-04 0.0000000e+00 
0.0000000e+00 2.9292173e-04 0.0000000e+00 
0.0000000e+00 1.9378439e-04 0.0000000e+00 
0.0000000e+00 9.1383663e-05 0.0000000e+00 
0.0000000e+00 2.1884189e-05 0.0000000e+00 
0.0000000e+00 -7.6044853e-06 0.0000000e+00 
0.0000000e+00 -1.9446470e-05 0.0000000e+00 
0.0000000e+00 -3.4370340e-05 0.0000000e+00 
0.0000000e+00 -4.6628327e-05 0.0000000e+00 
0.0000000e+00 -3.5849258e-05 0.0000000e+00 
0.0000000e+00 5.9119106e-06 0.0000000e+00 
0.0000000e+00 5.5694945e-05 0.0000000e+00 
0.0000000e+00 7.2905459e-05 0.0000000e+00 
0.0000000e+00 4.3780070e-05 0.0000000e+00 
0.0000000e+00 -4.7317253e-06 0.0000000e+00 
0.0000000e+00 -4.2547879e-05 0.0000000e+00 
0.0000000e+00 -6.4831103e-05 0.0000000e+00 
0.0000000e+00 -9.3879222e-05 0.0000000e+00 
0.0000000e+00 -1.5826787e-04 0.0000000e+00 
0.0000000e+00 -2.4728180e-04 0.0000000e+00 
0.0000000e+00 -3.1227450e-04 0.0000000e+00 
0.0000000e+00 -3.3895290e-04 0.0000000e+00 
0.0000000e+00 -3.9503627e-04 0.0000000e+00 
0.0000000e+00 -6.0456432e-04 0.0000000e+00 
0.0000000e+00 -1.0763753e-03 0.0000000e+00 
0.0000000e+00 -1.8455771e-03 0.0000000e+00 
0.0000000e+00 -2.8577663e-03 0.0000000e+00 
0.0000000e+00 -4.0369779e-03 0.0000000e+00 
0.0000000e+00 -5.1725297e-03 0.0000000e+00 
0.0000000e+00 -5.7749604e-03 0.0000000e+00 
0.0000000e+00 -5.4485016e-03 0.0000000e+00 
0.0000000e+00 -4.9843392e-03 0.0000000e+00 
0.0000000e+00 -4.8491471e-03 0.0000000e+00 
0.0000000e+00 -4.9454472e-03 0.0000000e+00 
0.0000000e+00 -4.6332260e-03 0.0000000e+00 
0.0000000e+00 -3.4289293e-03 0.0000000e+00 
0.0000000e+00 -1.9906540e-03 0.0000000e+00 
0.0000000e+00 -8.6030841e-04 0.0000000e+00 
0.0000000e+00 -1.4466197e-04 0.0000000e+00 
0.0000000e+00 2.2574126e-04 0.0000000e+00 
0.0000000e+00 3.4831368e-04 0.0000000e+00 
0.0000000e+00 3.0613274e-04 0.0000000e+00 
0.0000000e+00 1.9048202e-04 0.0000000e+00 
0.0000000e+00 8.3010571e-05 0.0000000e+00 
0.0000000e+00 1.9413170e-05 0.0000000e+00 
0.0000000e+00 -6.2742861e-06 0.0000000e+00 
0.0000000e+00 -1.8604698e-05 0.0000000e+00 
0.0000000e+00 -3.0970252e-05 0.0000000e+00 
0.0000000e+00 -3.5854835e-05 0.0000000e+00 
0.0000000e+00 -2.3548588e-05 0.0000000e+00 
0.0000000e+00 -6.4177135e-07 0.0000000e+00 
0.0000000e+00 1.6583241e-05 0.0000000e+00 
0.0000000e+00 1.9403773e-05 0.0000000e+00 
0.0000000e+00 1.0814439e-05 0.0000000e+00 
0.0000000e+00 -1.1710539e-06 0.0000000e+00 
0.0000000e+00 -9.7709644e-06 0.0000000e+00 
0.0000000e+00 -1.0968538e-05 0.0000000e+00 
0.0000000e+00 -4.6931877e-06 0.0000000e+00 
0.0000000e+00 3.9110705e-06 0.0000000e+00 
0.0000000e+00 8.3664554e-06 0.0000000e+00 
0.0000000e+00 6.1024757e-06 0.0000000e+00 
0.0000000e+00 -3.7087040e-07 0.0000000e+00 
0.0000000e+00 -5.2902578e-06 0.0000000e+00 
0.0000000e+00 -4.8349866e-06 0.0000000e+00 
0.0000000e+00 -8.0465207e-07 0.0000000e+00 
0.0000000e+00 2.5135218e-06 0.0000000e+00 
0.0000000e+00 2.9102400e-06 0.0000000e+00 
0.0000000e+00 1.0783148e-06 0.0000000e+00 
0.0000000e+00 -9.3932164e-07 0.0000000e+00 
0.0000000e+00 -1.6952921e-06 0.0000000e+00 
0.0000000e+00 -1.0813797e-06 0.0000000e+00 
0.0000000e+00 1.8176945e-07 0.0000000e+00 
0.0000000e+00 1.0521386e-06 0.0000000e+00 
0.0000000e+00 8.0378032e-07 0.0000000e+00 
0.0000000e+00 -2.3463326e-07 0.0000000e+00 
0.0000000e+00 -9.4951338e-07 0.0000000e+00 
0.0000000e+00 -6.6757315e-07 0.0000000e+00 
0.0000000e+00 1.8442601e-07 0.0000000e+00 
0.0000000e+00 6.4529786e-07 0.0000000e+00 
0.0000000e+00 3.4462067e-07 0.0000000e+00 
0.0000000e+00 -2.0267802e-07 0.0000000e+00 
0.0000000e+00 -3.6225939e-07 0.0000000e+00 
0.0000000e+00 -1.0132344e-07 0.0000000e+00 
0.0000000e+00 1.5910096e-07 0.0000000e+00 
0.0000000e+00 1.5115705e-07 0.0000000e+00 
0.0000000e+00 -6.4289822e-09 0.0000000e+00 
0.0000000e+00 -8.5990806e-08 0.0000000e+00 
0.0000000e+00 -4.0436010e-08 0.0000000e+00 
0.0000000e+00 2.4163093e-08 0.0000000e+00 
0.0000000e+00 3.1487208e-08 0.0000000e+00 
0.0000000e+00 2.7465392e-09 0.0000000e+00 
0.0000000e+00 -1.3504298e-08 0.0000000e+00 
0.0000000e+00 -7.0127339e-09 0.0000000e+00 
0.0000000e+00 3.0665399e-09 0.0000000e+00 
0.0000000e+00 4.2455084e-09 0.0000000e+00 
0.0000000e+00 3.6777714e-10 0.0000000e+00 
0.0000000e+00 -1.5944588e-09 0.0000000e+00 
0.0000000e+00 -7.3281736e-10 0.0000000e+00 
0.0000000e+00 3.5743519e-10 0.0000000e+00 
0.0000000e+00 4.0278555e-10 0.0000000e+00 
0.0000000e+00 4.3717690e-12 0.0000000e+00 
0.0000000e+00 -1.4458837e-10 0.0000000e+00 
0.0000000e+00 -4.8382229e-11 0.0000000e+00 
0.0000000e+00 3.4871550e-11 0.0000000e+00 
0.0000000e+00 2.7234496e-11 0.0000000e+00 
0.0000000e+00 -3.3635844e-12 0.0000000e+00 
0.0000000e+00 -9.8856973e-12 0.0000000e+00 
0.0000000e+00 -1.7958762e-12 0.0000000e+00 
0.0000000e+00 2.5964092e-12 0.0000000e+00 
0.0000000e+00 1.2846095e-12 0.0000000e+00 
0.0000000e+00 -4.4252471e-13 0.0000000e+00 
0.0000000e+00 -5.3185435e-13 0.0000000e+00 
0.0000000e+00 -1.7673461e-14 0.0000000e+00 
0.0000000e+00 2.0103904e-13 0.0000000e+00 
0.0000000e+00 0.0000000e+00 0.0000000e+00 
0.0000000e+00 0.0000000e+00 0.0000000e+00 
0.0000000e+00 0.0000000e+00 0.0000000e+00 
0.0000000e+00 0.0000000e+00 0.0000000e+00 
0.0000000e+00 0.0000000e+00 0.0000000e+00 
0.0000000e+00 0.0000000e+00 0.0000000e+00 
0.0000000e+00 0.0000000e+00 0.0000000e+00 
0.0000000e+00 0.0000000e+00 0.0000000e+00 
0.0000000e+00 0.0000000e+00 0.0000000e+00 
0.0000000e+00 0.0000000e+00 0.0000000e+00 
0.0000000e+00 0.0000000e+00 0.0000000e+00 
0.0000000e+00 0.0000000e+00 0.0000000e+00 
0.0000000e+00 0.0000000e+00 0.0000000e+00 
0.0000000e+00 0.0000000e+00 0.0000000e+00 
0.0000000e+00 0.0000000e+00 0.0000000e+00 
0.0000000e+00 0.0000000e+00 0.0000000e+00 
0.0000000e+00 0.0000000e+00 0.0000000e+00 
0.0000000e+00 0.0000000e+00 0.0000000e+00 
0.0000000e+00 0.0000000e+00 0.0000000e+00 
0.0000000e+00 0.0000000e+00 0.0000000e+00 
0.0000000e+00 0.0000000e+00 0.0000000e+00 
0.0000000e+00 0.0000000e+00 0.0000000e+00 
0.0000000e+00 0.0000000e+00 0.0000000e+00 
0.0000000e+00 0.0000000e+00 0.0000000e+00 
0.0000000e+00 0.0000000e+00 0.0000000e+00 
0.0000000e+00 0.0000000e+00 0.0000000e+00 
0.0000000e+00 0.0000000e+00 0.0000000e+00 
0.0000000e+00 0.0000000e+00 0.0000000e+00 
0.0000000e+00 0.0000000e+00 0.0000000e+00 
0.0000000e+00 0.0000000e+00 0.0000000e+00 
0.0000000e+00 0.0000000e+00 0.0000000e+00 
0.0000000e+00 0.0000000e+00 0.0000000e+00 
0.0000000e+00 0.0000000e+00 0.0000000e+00 
0.0000000e+00 0.0000000e+00 0.0000000e+00 
0.0000000e+00 0.0000000e+00 0.0000000e+00 
0.0000000e+00 0.0000000e+00 0.0000000e+00 
0.0000000e+00 0.0000000e+00 0.0000000e+00 
0.0000000e+00 0.0000000e+00 0.0000000e+00 
0.0000000e+00 0.0000000e+00 0.0000000e+00 
0.0000000e+00 0.0000000e+00 0.0000000e+00 
0.0000000e+00 0.0000000e+00 0.0000000e+00 
0.0000000e+00 0.0000000e+00 0.0000000e+00 
0.0000000e+00 0.0000000e+00 0.0000000e+00 
0.0000000e+00 0.0000000e+00 0.0000000e+00 
0.0000000e+00 0.0000000e+00 0.0000000e+00 
0.0000000e+00 0.0000000e+00 0.0000000e+00 
0.0000000e+00 0.0000000e+00 0.0000000e+00 
0.0000000e+00 0.0000000e+00 0.0000000e+00 
0.0000000e+00 0.0000000e+00 0.0000000e+00 
0.0000000e+00 0.0000000e+00 0.0000000e+00 
0.0000000e+00 0.0000000e+00 0.0000000e+00 
0.0000000e+00 0.0000000e+00 0.0000000e+00 
0.0000000e+00 0.0000000e+00 0.0000000e+00 
0.0000000e+00 0.0000000e+00 0.0000000e+00 
0.0000000e+00 0.0000000e+00 0.0000000e+00 
0.0000000e+00 0.0000000e+00 0.0000000e+00 
0.0000000e+00 0.0000000e+00 0.0000000e+00 