# vtk DataFile Version 4.0
vtk output
ASCII
DATASET UNSTRUCTURED_GRID
POINTS 2186 float
0.0000000e+00 0.0000000e+00 0.0000000e+00 
0.0000000e+00 0.0000000e+00 5.0000000e+01 
5.0000000e+00 0.0000000e+00 0.0000000e+00 
5.0000000e+00 0.0000000e+00 5.0000000e+01 
5.0000000e+00 1.0000000e+00 0.0000000e+00 
5.0000000e+00 1.0000000e+00 5.0000000e+01 
0.0000000e+00 1.0000000e+00 0.0000000e+00 
0.0000000e+00 1.0000000e+00 5.0000000e+01 
5.0000000e+00 2.0000000e+00 0.0000000e+00 
5.0000000e+00 2.0000000e+00 5.0000000e+01 
3.0000000e+00 2.0000000e+00 0.0000000e+00 
3.0000000e+00 2.0000000e+00 5.0000000e+01 
0.0000000e+00 2.0000000e+00 0.0000000e+00 
0.0000000e+00 2.0000000e+00 5.0000000e+01 
1.5000000e+00 3.0000000e+00 0.0000000e+00 
1.5000000e+00 3.0000000e+00 5.0000000e+01 
7.5000000e-01 3.0000000e+00 0.0000000e+00 
7.5000000e-01 3.0000000e+00 5.0000000e+01 
0.0000000e+00 3.0000000e+00 0.0000000e+00 
0.0000000e+00 3.0000000e+00 5.0000000e+01 
7.5000000e-01 3.0000000e+00 -2.5000000e+01 
7.5000000e-01 3.0000000e+00 -2.4500000e+01 
7.5000000e-01 3.0000000e+00 -2.4000000e+01 
7.5000000e-01 3.0000000e+00 -2.3500000e+01 
7.5000000e-01 3.0000000e+00 -2.3000000e+01 
7.5000000e-01 3.0000000e+00 -2.2500000e+01 
7.5000000e-01 3.0000000e+00 -2.2000000e+01 
7.5000000e-01 3.0000000e+00 -2.1500000e+01 
7.5000000e-01 3.0000000e+00 -2.1000000e+01 
7.5000000e-01 3.0000000e+00 -2.0500000e+01 
7.5000000e-01 3.0000000e+00 -2.0000000e+01 
7.5000000e-01 3.0000000e+00 -1.9500000e+01 
7.5000000e-01 3.0000000e+00 -1.9000000e+01 
7.5000000e-01 3.0000000e+00 -1.8500000e+01 
7.5000000e-01 3.0000000e+00 -1.8000000e+01 
7.5000000e-01 3.0000000e+00 -1.7500000e+01 
7.5000000e-01 3.0000000e+00 -1.7000000e+01 
7.5000000e-01 3.0000000e+00 -1.6500000e+01 
7.5000000e-01 3.0000000e+00 -1.6000000e+01 
7.5000000e-01 3.0000000e+00 -1.5500000e+01 
7.5000000e-01 3.0000000e+00 -1.5000000e+01 
7.5000000e-01 3.0000000e+00 -1.4500000e+01 
7.5000000e-01 3.0000000e+00 -1.4000000e+01 
7.5000000e-01 3.0000000e+00 -1.3500000e+01 
7.5000000e-01 3.0000000e+00 -1.3000000e+01 
7.5000000e-01 3.0000000e+00 -1.2500000e+01 
7.5000000e-01 3.0000000e+00 -1.2000000e+01 
7.5000000e-01 3.0000000e+00 -1.1500000e+01 
7.5000000e-01 3.0000000e+00 -1.1000000e+01 
7.5000000e-01 3.0000000e+00 -1.0500000e+01 
7.5000000e-01 3.0000000e+00 -1.0000000e+01 
7.5000000e-01 3.0000000e+00 -9.5000000e+00 
7.5000000e-01 3.0000000e+00 -9.0000000e+00 
7.5000000e-01 3.0000000e+00 -8.5000000e+00 
7.5000000e-01 3.0000000e+00 -8.0000000e+00 
7.5000000e-01 3.0000000e+00 -7.5000000e+00 
7.5000000e-01 3.0000000e+00 -7.0000000e+00 
7.5000000e-01 3.0000000e+00 -6.5000000e+00 
7.5000000e-01 3.0000000e+00 -6.0000000e+00 
7.5000000e-01 3.0000000e+00 -5.5000000e+00 
7.5000000e-01 3.0000000e+00 -5.0000000e+00 
7.5000000e-01 3.0000000e+00 -4.5000000e+00 
7.5000000e-01 3.0000000e+00 -4.0000000e+00 
7.5000000e-01 3.0000000e+00 -3.5000000e+00 
7.5000000e-01 3.0000000e+00 -3.0000000e+00 
7.5000000e-01 3.0000000e+00 -2.5000000e+00 
7.5000000e-01 3.0000000e+00 -2.0000000e+00 
7.5000000e-01 3.0000000e+00 -1.5000000e+00 
7.5000000e-01 3.0000000e+00 -1.0000000e+00 
7.5000000e-01 3.0000000e+00 -5.0000000e-01 
7.5000000e-01 3.0000000e+00 5.0000000e-01 
7.5000000e-01 3.0000000e+00 1.0000000e+00 
7.5000000e-01 3.0000000e+00 1.5000000e+00 
7.5000000e-01 3.0000000e+00 2.0000000e+00 
7.5000000e-01 3.0000000e+00 2.5000000e+00 
7.5000000e-01 3.0000000e+00 3.0000000e+00 
7.5000000e-01 3.0000000e+00 3.5000000e+00 
7.5000000e-01 3.0000000e+00 4.0000000e+00 
7.5000000e-01 3.0000000e+00 4.5000000e+00 
7.5000000e-01 3.0000000e+00 5.0000000e+00 
7.5000000e-01 3.0000000e+00 5.5000000e+00 
7.5000000e-01 3.0000000e+00 6.0000000e+00 
7.5000000e-01 3.0000000e+00 6.5000000e+00 
7.5000000e-01 3.0000000e+00 7.0000000e+00 
7.5000000e-01 3.0000000e+00 7.5000000e+00 
7.5000000e-01 3.0000000e+00 8.0000000e+00 
7.5000000e-01 3.0000000e+00 8.5000000e+00 
7.5000000e-01 3.0000000e+00 9.0000000e+00 
7.5000000e-01 3.0000000e+00 9.5000000e+00 
7.5000000e-01 3.0000000e+00 1.0000000e+01 
7.5000000e-01 3.0000000e+00 1.0500000e+01 
7.5000000e-01 3.0000000e+00 1.1000000e+01 
7.5000000e-01 3.0000000e+00 1.1500000e+01 
7.5000000e-01 3.0000000e+00 1.2000000e+01 
7.5000000e-01 3.0000000e+00 1.2500000e+01 
7.5000000e-01 3.0000000e+00 1.3000000e+01 
7.5000000e-01 3.0000000e+00 1.3500000e+01 
7.5000000e-01 3.0000000e+00 1.4000000e+01 
7.5000000e-01 3.0000000e+00 1.4500000e+01 
7.5000000e-01 3.0000000e+00 1.5000000e+01 
7.5000000e-01 3.0000000e+00 1.5500000e+01 
7.5000000e-01 3.0000000e+00 1.6000000e+01 
7.5000000e-01 3.0000000e+00 1.6500000e+01 
7.5000000e-01 3.0000000e+00 1.7000000e+01 
7.5000000e-01 3.0000000e+00 1.7500000e+01 
7.5000000e-01 3.0000000e+00 1.8000000e+01 
7.5000000e-01 3.0000000e+00 1.8500000e+01 
7.5000000e-01 3.0000000e+00 1.9000000e+01 
7.5000000e-01 3.0000000e+00 1.9500000e+01 
7.5000000e-01 3.0000000e+00 2.0000000e+01 
7.5000000e-01 3.0000000e+00 2.0500000e+01 
7.5000000e-01 3.0000000e+00 2.1000000e+01 
7.5000000e-01 3.0000000e+00 2.1500000e+01 
7.5000000e-01 3.0000000e+00 2.2000000e+01 
7.5000000e-01 3.0000000e+00 2.2500000e+01 
7.5000000e-01 3.0000000e+00 2.3000000e+01 
7.5000000e-01 3.0000000e+00 2.3500000e+01 
7.5000000e-01 3.0000000e+00 2.4000000e+01 
7.5000000e-01 3.0000000e+00 2.4500000e+01 
7.5000000e-01 3.0000000e+00 2.5000000e+01 
7.5000000e-01 3.0000000e+00 2.5500000e+01 
7.5000000e-01 3.0000000e+00 2.6000000e+01 
7.5000000e-01 3.0000000e+00 2.6500000e+01 
7.5000000e-01 3.0000000e+00 2.7000000e+01 
7.5000000e-01 3.0000000e+00 2.7500000e+01 
7.5000000e-01 3.0000000e+00 2.8000000e+01 
7.5000000e-01 3.0000000e+00 2.8500000e+01 
7.5000000e-01 3.0000000e+00 2.9000000e+01 
7.5000000e-01 3.0000000e+00 2.9500000e+01 
7.5000000e-01 3.0000000e+00 3.0000000e+01 
7.5000000e-01 3.0000000e+00 3.0500000e+01 
7.5000000e-01 3.0000000e+00 3.1000000e+01 
7.5000000e-01 3.0000000e+00 3.1500000e+01 
7.5000000e-01 3.0000000e+00 3.2000000e+01 
7.5000000e-01 3.0000000e+00 3.2500000e+01 
7.5000000e-01 3.0000000e+00 3.3000000e+01 
7.5000000e-01 3.0000000e+00 3.3500000e+01 
7.5000000e-01 3.0000000e+00 3.4000000e+01 
7.5000000e-01 3.0000000e+00 3.4500000e+01 
7.5000000e-01 3.0000000e+00 3.5000000e+01 
7.5000000e-01 3.0000000e+00 3.5500000e+01 
7.5000000e-01 3.0000000e+00 3.6000000e+01 
7.5000000e-01 3.0000000e+00 3.6500000e+01 
7.5000000e-01 3.0000000e+00 3.7000000e+01 
7.5000000e-01 3.0000000e+00 3.7500000e+01 
7.5000000e-01 3.0000000e+00 3.8000000e+01 
7.5000000e-01 3.0000000e+00 3.8500000e+01 
7.5000000e-01 3.0000000e+00 3.9000000e+01 
7.5000000e-01 3.0000000e+00 3.9500000e+01 
7.5000000e-01 3.0000000e+00 4.0000000e+01 
7.5000000e-01 3.0000000e+00 4.0500000e+01 
7.5000000e-01 3.0000000e+00 4.1000000e+01 
7.5000000e-01 3.0000000e+00 4.1500000e+01 
7.5000000e-01 3.0000000e+00 4.2000000e+01 
7.5000000e-01 3.0000000e+00 4.2500000e+01 
7.5000000e-01 3.0000000e+00 4.3000000e+01 
7.5000000e-01 3.0000000e+00 4.3500000e+01 
7.5000000e-01 3.0000000e+00 4.4000000e+01 
7.5000000e-01 3.0000000e+00 4.4500000e+01 
7.5000000e-01 3.0000000e+00 4.5000000e+01 
7.5000000e-01 3.0000000e+00 4.5500000e+01 
7.5000000e-01 3.0000000e+00 4.6000000e+01 
7.5000000e-01 3.0000000e+00 4.6500000e+01 
7.5000000e-01 3.0000000e+00 4.7000000e+01 
7.5000000e-01 3.0000000e+00 4.7500000e+01 
7.5000000e-01 3.0000000e+00 4.8000000e+01 
7.5000000e-01 3.0000000e+00 4.8500000e+01 
7.5000000e-01 3.0000000e+00 4.9000000e+01 
7.5000000e-01 3.0000000e+00 4.9500000e+01 
7.5000000e-01 3.0000000e+00 5.0500000e+01 
7.5000000e-01 3.0000000e+00 5.1000000e+01 
7.5000000e-01 3.0000000e+00 5.1500000e+01 
7.5000000e-01 3.0000000e+00 5.2000000e+01 
7.5000000e-01 3.0000000e+00 5.2500000e+01 
7.5000000e-01 3.0000000e+00 5.3000000e+01 
7.5000000e-01 3.0000000e+00 5.3500000e+01 
7.5000000e-01 3.0000000e+00 5.4000000e+01 
7.5000000e-01 3.0000000e+00 5.4500000e+01 
7.5000000e-01 3.0000000e+00 5.5000000e+01 
7.5000000e-01 3.0000000e+00 5.5500000e+01 
7.5000000e-01 3.0000000e+00 5.6000000e+01 
7.5000000e-01 3.0000000e+00 5.6500000e+01 
7.5000000e-01 3.0000000e+00 5.7000000e+01 
7.5000000e-01 3.0000000e+00 5.7500000e+01 
7.5000000e-01 3.0000000e+00 5.8000000e+01 
7.5000000e-01 3.0000000e+00 5.8500000e+01 
7.5000000e-01 3.0000000e+00 5.9000000e+01 
7.5000000e-01 3.0000000e+00 5.9500000e+01 
7.5000000e-01 3.0000000e+00 6.0000000e+01 
7.5000000e-01 3.0000000e+00 6.0500000e+01 
7.5000000e-01 3.0000000e+00 6.1000000e+01 
7.5000000e-01 3.0000000e+00 6.1500000e+01 
7.5000000e-01 3.0000000e+00 6.2000000e+01 
7.5000000e-01 3.0000000e+00 6.2500000e+01 
7.5000000e-01 3.0000000e+00 6.3000000e+01 
7.5000000e-01 3.0000000e+00 6.3500000e+01 
7.5000000e-01 3.0000000e+00 6.4000000e+01 
7.5000000e-01 3.0000000e+00 6.4500000e+01 
7.5000000e-01 3.0000000e+00 6.5000000e+01 
7.5000000e-01 3.0000000e+00 6.5500000e+01 
7.5000000e-01 3.0000000e+00 6.6000000e+01 
7.5000000e-01 3.0000000e+00 6.6500000e+01 
7.5000000e-01 3.0000000e+00 6.7000000e+01 
7.5000000e-01 3.0000000e+00 6.7500000e+01 
7.5000000e-01 3.0000000e+00 6.8000000e+01 
7.5000000e-01 3.0000000e+00 6.8500000e+01 
7.5000000e-01 3.0000000e+00 6.9000000e+01 
7.5000000e-01 3.0000000e+00 6.9500000e+01 
7.5000000e-01 3.0250001e+00 -2.5000000e+01 
7.5000000e-01 3.0250001e+00 -2.4500000e+01 
7.5000000e-01 3.0250001e+00 -2.4000000e+01 
7.5000000e-01 3.0250001e+00 -2.3500000e+01 
7.5000000e-01 3.0250001e+00 -2.3000000e+01 
7.5000000e-01 3.0250001e+00 -2.2500000e+01 
7.5000000e-01 3.0250001e+00 -2.2000000e+01 
7.5000000e-01 3.0250001e+00 -2.1500000e+01 
7.5000000e-01 3.0250001e+00 -2.1000000e+01 
7.5000000e-01 3.0250001e+00 -2.0500000e+01 
7.5000000e-01 3.0250001e+00 -2.0000000e+01 
7.5000000e-01 3.0250001e+00 -1.9500000e+01 
7.5000000e-01 3.0250001e+00 -1.9000000e+01 
7.5000000e-01 3.0250001e+00 -1.8500000e+01 
7.5000000e-01 3.0250001e+00 -1.8000000e+01 
7.5000000e-01 3.0250001e+00 -1.7500000e+01 
7.5000000e-01 3.0250001e+00 -1.7000000e+01 
7.5000000e-01 3.0250001e+00 -1.6500000e+01 
7.5000000e-01 3.0250001e+00 -1.6000000e+01 
7.5000000e-01 3.0250001e+00 -1.5500000e+01 
[...]
POINT_DATA 2186
FIELD FieldData 3
DISPLACEMENT 3 2186  float
0.0000000e+00 0.0000000e+00 0.0000000e+00 
0.0000000e+00 0.0000000e+00 0.0000000e+00 
0.0000000e+00 0.0000000e+00 0.0000000e+00 
0.0000000e+00 0.0000000e+00 0.0000000e+00 
5.2846003e-06 -9.7321526e-07 -5.0766616e-06 
2.2523105e-07 1.2909119e-07 -2.9289566e-07 
0.0000000e+00 -3.4050577e-06 0.0000000e+00 
0.0000000e+00 -7.0543484e-07 0.0000000e+00 
1.9828972e-06 3.2797116e-06 -8.8376152e-07 
8.4700179e-07 -1.5618794e-07 5.6519997e-07 
7.6948675e-07 -1.3601175e-05 -1.7550294e-05 
-6.2061872e-07 1.3888048e-06 1.6269948e-07 
0.0000000e+00 -6.0444499e-06 0.0000000e+00 
0.0000000e+00 -1.1583108e-07 0.0000000e+00 
2.8305600e-05 -4.0345149e-05 -4.9656330e-05 
9.9062242e-07 4.0308720e-07 -1.8679901e-06 
6.1645696e-05 3.2312313e-05 -4.0234132e-05 
1.5276567e-06 1.4662189e-07 9.9591978e-07 
0.0000000e+00 2.0356696e-05 0.0000000e+00 
0.0000000e+00 -1.0527577e-07 0.0000000e+00 
0.0000000e+00 -9.9897370e-06 0.0000000e+00 
0.0000000e+00 -6.3336474e-06 0.0000000e+00 
0.0000000e+00 1.6569386e-06 0.0000000e+00 
0.0000000e+00 8.4284338e-06 0.0000000e+00 
0.0000000e+00 9.9961817e-06 0.0000000e+00 
0.0000000e+00 6.3709745e-06 0.0000000e+00 
0.0000000e+00 8.8890198e-07 0.0000000e+00 
0.0000000e+00 -2.8823083e-06 0.0000000e+00 
0.0000000e+00 -3.9812617e-06 0.0000000e+00 
0.0000000e+00 -4.2338688e-06 0.0000000e+00 
0.0000000e+00 -5.7414909e-06 0.0000000e+00 
0.0000000e+00 -8.0841046e-06 0.0000000e+00 
0.0000000e+00 -8.0222590e-06 0.0000000e+00 
0.0000000e+00 -2.3447553e-06 0.0000000e+00 
0.0000000e+00 8.4225385e-06 0.0000000e+00 
0.0000000e+00 1.8890845e-05 0.0000000e+00 
0.0000000e+00 2.1847780e-05 0.0000000e+00 
0.0000000e+00 1.3522335e-05 0.0000000e+00 
0.0000000e+00 -3.0195604e-06 0.0000000e+00 
0.0000000e+00 -1.9227231e-05 0.0000000e+00 
0.0000000e+00 -2.6398628e-05 0.0000000e+00 
0.0000000e+00 -2.1193116e-05 0.0000000e+00 
0.0000000e+00 -7.4628606e-06 0.0000000e+00 
0.0000000e+00 6.6988082e-06 0.0000000e+00 
0.0000000e+00 1.4400578e-05 0.0000000e+00 
0.0000000e+00 1.3983575e-05 0.0000000e+00 
0.0000000e+00 8.9869991e-06 0.0000000e+00 
0.0000000e+00 4.5581987e-06 0.0000000e+00 
0.0000000e+00 3.4107641e-06 0.0000000e+00 
0.0000000e+00 4.3908440e-06 0.0000000e+00 
0.0000000e+00 4.2814522e-06 0.0000000e+00 
0.0000000e+00 9.3461131e-07 0.0000000e+00 
0.0000000e+00 -4.8580787e-06 0.0000000e+00 
0.0000000e+00 -1.0074201e-05 0.0000000e+00 
0.0000000e+00 -1.2020824e-05 0.0000000e+00 
0.0000000e+00 -1.0528354e-05 0.0000000e+00 
0.0000000e+00 -7.7632458e-06 0.0000000e+00 
0.0000000e+00 -5.7918519e-06 0.0000000e+00 
0.0000000e+00 -4.3815662e-06 0.0000000e+00 
0.0000000e+00 -1.4242712e-06 0.0000000e+00 
0.0000000e+00 4.4350340e-06 0.0000000e+00 
0.0000000e+00 1.1765113e-05 0.0000000e+00 
0.0000000e+00 1.6990190e-05 0.0000000e+00 
0.0000000e+00 1.7117538e-05 0.0000000e+00 
0.0000000e+00 1.2323216e-05 0.0000000e+00 
0.0000000e+00 6.4540754e-06 0.0000000e+00 
0.0000000e+00 4.7643666e-06 0.0000000e+00 
0.0000000e+00 1.0043034e-05 0.0000000e+00 
0.0000000e+00 2.0114267e-05 0.0000000e+00 
0.0000000e+00 2.9238616e-05 0.0000000e+00 
2.5499845e-05 2.8092310e-05 -6.6178637e-07 
1.6679121e-05 1.9586987e-05 1.8344293e-05 
1.9145846e-05 1.1561230e-05 2.1974289e-05 
2.1619780e-05 6.8166678e-06 3.1177460e-05 
-1.5418129e-06 3.2652888e-06 3.2743497e-05 
-1.2797521e-05 -2.9909895e-06 2.6765490e-05 
-3.0505436e-05 -1.6133892e-05 3.3008873e-05 
-4.3044860e-05 -3.7425769e-05 2.2093200e-05 
-5.2908217e-05 -5.5842880e-05 1.4273287e-05 
-6.0777664e-05 -5.8974205e-05 2.0390793e-05 
-4.7899623e-05 -4.6102283e-05 8.4283793e-06 
-6.1629420e-05 -3.2109016e-05 -4.4975855e-06 
-4.8511509e-05 -2.9129909e-05 -7.0913516e-06 
-6.2050793e-05 -4.2493797e-05 -1.4612603e-05 
-4.5778837e-05 -4.9201117e-05 -2.3776349e-05 
-3.8982991e-05 -1.3792522e-05 -1.0136398e-05 
-3.2617427e-05 5.8326736e-05 -5.8338915e-06 
-2.5125002e-05 9.9749974e-05 7.3838278e-06 
-1.8660165e-05 3.6814174e-05 3.6992573e-05 
-1.5311965e-05 -1.8252256e-04 6.7225090e-05 
-2.4036543e-05 -5.7087373e-04 1.4694993e-04 
-5.4918382e-05 -1.1418867e-03 1.3043280e-04 
-1.0958318e-04 -1.9861483e-03 2.8364378e-04 
-1.8016851e-04 -3.1748689e-03 1.1142443e-04 
-2.7340962e-04 -4.5895171e-03 2.0284959e-04 
-6.2996213e-04 -5.5575953e-03 1.4996286e-04 
-2.5575637e-04 -5.2373502e-03 7.4084914e-05 
-1.8276695e-04 -4.5477198e-03 8.9095149e-05 
-1.8739518e-04 -4.2769662e-03 7.7527344e-05 
-2.2744341e-04 -4.4908272e-03 -2.6280431e-05 
-2.6209519e-04 -4.5842552e-03 -8.4106046e-05 
-2.4724758e-04 -3.6159400e-03 -9.4329516e-05 
-1.7905295e-04 -2.2405121e-03 -2.4741414e-04 
-1.4856285e-04 -1.0566526e-03 -3.9378155e-04 
-2.8546223e-05 -2.7355907e-04 -2.2964826e-04 
2.7740061e-06 1.0889751e-04 -1.6093072e-04 
2.5330675e-05 2.3352815e-04 -1.3046678e-04 
2.8622604e-05 2.3257083e-04 -1.0327993e-04 
3.4240114e-05 1.8554897e-04 -8.3347688e-05 
4.6924120e-05 1.2362658e-04 -7.4615404e-05 
4.2665815e-05 6.3632819e-05 -5.7131962e-05 
3.8634065e-05 2.0100344e-05 -3.2107488e-05 
3.9488194e-05 -4.1664862e-06 4.9695514e-06 
1.3476302e-05 -1.9780708e-05 3.2500840e-05 
-1.2430441e-05 -3.5197052e-05 6.1865292e-05 
-1.8739875e-05 -4.4818291e-05 4.8096754e-05 
-2.8597033e-05 -4.3707991e-05 3.8226004e-05 
-5.3073549e-05 -4.4987348e-05 2.0987172e-05 
-4.5301644e-05 -5.6886514e-05 1.2480457e-05 
-6.4620610e-05 -7.0810042e-05 1.2444832e-05 
-5.6819299e-05 -6.8726622e-05 1.2821108e-05 
-6.3620464e-05 -4.5947487e-05 2.4095566e-06 
-4.5908240e-05 -1.3876321e-05 -1.8938289e-06 
-4.7098831e-05 2.6030548e-06 -7.9915935e-06 
-4.1421194e-05 2.6978748e-07 -1.9827254e-05 
-3.1352956e-05 -8.1573239e-07 -7.0527080e-06 
-2.8423608e-05 2.8285594e-05 -5.8070154e-06 
-1.8416538e-05 8.0606740e-05 1.4260063e-05 
-1.6161997e-05 7.6394797e-05 6.0282429e-05 
-5.6350395e-06 -1.1956684e-04 8.8603490e-05 
-3.6757181e-05 -5.8505149e-04 1.6385662e-04 
-6.6474975e-05 -1.3148806e-03 1.3664634e-04 
-1.2198238e-04 -2.2895990e-03 2.6212330e-04 
-1.9684895e-04 -3.4457594e-03 8.3026469e-05 
-2.6168427e-04 -4.6300674e-03 1.9666232e-04 
-2.9726737e-04 -5.2846656e-03 7.3986695e-05 
-2.8232494e-04 -5.0083478e-03 -3.2394822e-05 
-2.7112535e-04 -4.5232191e-03 1.6777778e-05 
-2.3233172e-04 -4.4459021e-03 2.0891997e-05 
-2.1470505e-04 -4.6226075e-03 -5.0023918e-05 
-2.1529397e-04 -4.4488544e-03 -1.1756816e-04 
-2.0781446e-04 -3.2865903e-03 -7.5908960e-05 
-1.5044752e-04 -1.8858371e-03 -2.2975284e-04 
-9.0894559e-05 -7.9384731e-04 -1.2583735e-04 
-6.3907690e-05 -1.5319664e-04 -1.9442600e-04 
-3.3816774e-05 1.4982909e-04 -1.4075077e-04 
3.9133611e-06 2.5207383e-04 -1.0305386e-04 
-9.4860688e-06 2.4205646e-04 -9.3698451e-05 
1.1911609e-05 1.7241891e-04 -6.1455503e-05 
1.1281568e-05 8.9315479e-05 -6.4475025e-05 
2.2108419e-05 2.9282430e-05 -4.7159916e-05 
2.0305353e-05 8.8819922e-07 -3.3692359e-05 
2.1701842e-05 -1.0997856e-05 -1.6447252e-06 
1.4148423e-05 -1.9254046e-05 1.9097835e-05 
6.2712165e-06 -2.5671516e-05 3.2237633e-05 
2.8534585e-06 -2.5247889e-05 2.9250823e-05 
2.9859402e-07 -1.7746712e-05 1.5630529e-05 
4.2738296e-07 -9.0766353e-06 8.4931016e-06 
-9.5278985e-08 -3.3547740e-06 5.3652498e-06 
1.9764479e-09 4.2578728e-07 6.9272505e-06 
-2.5967602e-06 4.7781741e-06 9.5618907e-06 
-3.0137217e-06 8.1814032e-06 7.2810817e-06 
-3.8331555e-06 7.5792755e-06 6.1948822e-06 
-3.7862508e-06 3.3240044e-06 2.4773121e-06 
-3.8544308e-06 -8.3250166e-07 -4.8893304e-07 
-2.5903837e-06 -1.8800351e-06 -2.0076395e-06 
-9.5574580e-07 -1.7425423e-07 -3.8866979e-06 
-9.7210295e-07 1.4413499e-06 -4.9805990e-06 
2.0841373e-06 1.2765666e-06 -3.1454224e-06 
0.0000000e+00 -2.9929996e-07 0.0000000e+00 
0.0000000e+00 1.1421218e-07 0.0000000e+00 
0.0000000e+00 5.2032709e-07 0.0000000e+00 
0.0000000e+00 3.3550518e-07 0.0000000e+00 
0.0000000e+00 -4.4746319e-08 0.0000000e+00 
0.0000000e+00 2.2526237e-08 0.0000000e+00 
0.0000000e+00 4.3877887e-07 0.0000000e+00 
0.0000000e+00 4.5990001e-07 0.0000000e+00 
0.0000000e+00 -2.9553800e-07 0.0000000e+00 
0.0000000e+00 -1.2589983e-06 0.0000000e+00 
0.0000000e+00 -1.4945804e-06 0.0000000e+00 
0.0000000e+00 -7.3210941e-07 0.0000000e+00 
0.0000000e+00 3.7324662e-07 0.0000000e+00 
0.0000000e+00 9.8829321e-07 0.0000000e+00 
0.0000000e+00 9.1109916e-07 0.0000000e+00 
0.0000000e+00 5.5083711e-07 0.0000000e+00 
0.0000000e+00 2.7807357e-07 0.0000000e+00 
0.0000000e+00 4.3152806e-08 0.0000000e+00 
0.0000000e+00 -3.3360391e-07 0.0000000e+00 
0.0000000e+00 -7.2000785e-07 0.0000000e+00 
0.0000000e+00 -7.3747185e-07 0.0000000e+00 
0.0000000e+00 -2.5199432e-07 0.0000000e+00 
0.0000000e+00 3.7705635e-07 0.0000000e+00 
0.0000000e+00 6.4129711e-07 0.0000000e+00 
0.0000000e+00 4.1136312e-07 0.0000000e+00 
0.0000000e+00 2.0921865e-08 0.0000000e+00 
0.0000000e+00 -1.5750665e-07 0.0000000e+00 
0.0000000e+00 -1.0592868e-07 0.0000000e+00 
0.0000000e+00 -7.5919914e-08 0.0000000e+00 
0.0000000e+00 -1.9635468e-07 0.0000000e+00 
0.0000000e+00 -2.9754440e-07 0.0000000e+00 
0.0000000e+00 -1.5614845e-07 0.0000000e+00 
0.0000000e+00 1.8100913e-07 0.0000000e+00 
0.0000000e+00 4.1798191e-07 0.0000000e+00 
0.0000000e+00 3.4513144e-07 0.0000000e+00 
0.0000000e+00 6.5865521e-08 0.0000000e+00 
0.0000000e+00 -1.5242554e-07 0.0000000e+00 
0.0000000e+00 -1.9140268e-07 0.0000000e+00 
0.0000000e+00 -1.6573789e-07 0.0000000e+00 
0.0000000e+00 -9.9272474e-06 0.0000000e+00 
0.0000000e+00 -6.2946201e-06 0.0000000e+00 
0.0000000e+00 1.6455525e-06 0.0000000e+00 
0.0000000e+00 8.3775458e-06 0.0000000e+00 
0.0000000e+00 9.9437102e-06 0.0000000e+00 
0.0000000e+00 6.3507910e-06 0.0000000e+00 
0.0000000e+00 9.0353893e-07 0.0000000e+00 
0.0000000e+00 -2.8610298e-06 0.0000000e+00 
0.0000000e+00 -3.9833535e-06 0.0000000e+00 
0.0000000e+00 -4.2601951e-06 0.0000000e+00 
0.0000000e+00 -5.7597135e-06 0.0000000e+00 
0.0000000e+00 -8.0574900e-06 0.0000000e+00 
0.0000000e+00 -7.9485380e-06 0.0000000e+00 
0.0000000e+00 -2.2701445e-06 0.0000000e+00 
0.0000000e+00 8.4333160e-06 0.0000000e+00 
0.0000000e+00 1.8810268e-05 0.0000000e+00 
0.0000000e+00 2.1718704e-05 0.0000000e+00 
0.0000000e+00 1.3432687e-05 0.0000000e+00 
0.0000000e+00 -3.0041297e-06 0.0000000e+00 
0.0000000e+00 -1.9114996e-05 0.0000000e+00 
0.0000000e+00 -2.6264934e-05 0.0000000e+00 
0.0000000e+00 -2.1125074e-05 0.0000000e+00 
0.0000000e+00 -7.5006019e-06 0.0000000e+00 
0.0000000e+00 6.5858012e-06 0.0000000e+00 
0.0000000e+00 1.4290405e-05 0.0000000e+00 
0.0000000e+00 1.3947242e-05 0.0000000e+00 
0.0000000e+00 9.0393823e-06 0.0000000e+00 
0.0000000e+00 4.6529258e-06 0.0000000e+00 
0.0000000e+00 3.4819045e-06 0.0000000e+00 
0.0000000e+00 4.4014687e-06 0.0000000e+00 
0.0000000e+00 4.2398588e-06 0.0000000e+00 
0.0000000e+00 8.7820888e-07 0.0000000e+00 
0.0000000e+00 -4.8894226e-06 0.0000000e+00 
0.0000000e+00 -1.0063819e-05 0.0000000e+00 
0.0000000e+00 -1.1989770e-05 0.0000000e+00 
0.0000000e+00 -1.0517836e-05 0.0000000e+00 
0.0000000e+00 -7.7890118e-06 0.0000000e+00 
0.0000000e+00 -5.8225692e-06 0.0000000e+00 
0.0000000e+00 -4.3776599e-06 0.0000000e+00 
0.0000000e+00 -1.3906251e-06 0.0000000e+00 
0.0000000e+00 4.4554986e-06 0.0000000e+00 
0.0000000e+00 1.1746126e-05 0.0000000e+00 
0.0000000e+00 1.6948441e-05 0.0000000e+00 
0.0000000e+00 1.7088189e-05 0.0000000e+00 
0.0000000e+00 1.2334142e-05 0.0000000e+00 
0.0000000e+00 6.5187169e-06 0.0000000e+00 
0.0000000e+00 4.8649517e-06 0.0000000e+00 
0.0000000e+00 1.0120599e-05 0.0000000e+00 
0.0000000e+00 2.0118601e-05 0.0000000e+00 
0.0000000e+00 2.9198614e-05 0.0000000e+00 
0.0000000e+00 3.2302738e-05 0.0000000e+00 
0.0000000e+00 2.8092900e-05 0.0000000e+00 
0.0000000e+00 1.9612917e-05 0.0000000e+00 
0.0000000e+00 1.1653417e-05 0.0000000e+00 
0.0000000e+00 6.8447312e-06 0.0000000e+00 
0.0000000e+00 3.3981257e-06 0.0000000e+00 
0.0000000e+00 -2.8804291e-06 0.0000000e+00 
0.0000000e+00 -1.6569098e-05 0.0000000e+00 
0.0000000e+00 -3.7648755e-05 0.0000000e+00 
0.0000000e+00 -5.5623950e-05 0.0000000e+00 
0.0000000e+00 -5.8459686e-05 0.0000000e+00 
0.0000000e+00 -4.5972974e-05 0.0000000e+00 
0.0000000e+00 -3.2002139e-05 0.0000000e+00 
0.0000000e+00 -3.0122192e-05 0.0000000e+00 
0.0000000e+00 -4.3358101e-05 0.0000000e+00 
0.0000000e+00 -4.8331174e-05 0.0000000e+00 
0.0000000e+00 -1.1603802e-05 0.0000000e+00 
0.0000000e+00 5.9419526e-05 0.0000000e+00 
0.0000000e+00 9.9975943e-05 0.0000000e+00 
0.0000000e+00 3.5016288e-05 0.0000000e+00 
0.0000000e+00 -1.8368139e-04 0.0000000e+00 
0.0000000e+00 -5.6853227e-04 0.0000000e+00 
0.0000000e+00 -1.1419638e-03 0.0000000e+00 
0.0000000e+00 -1.9912638e-03 0.0000000e+00 
0.0000000e+00 -3.1946232e-03 0.0000000e+00 
0.0000000e+00 -4.6178089e-03 0.0000000e+00 
0.0000000e+00 -5.5787428e-03 0.0000000e+00 
0.0000000e+00 -5.2649374e-03 0.0000000e+00 
0.0000000e+00 -4.5740702e-03 0.0000000e+00 
0.0000000e+00 -4.2991661e-03 0.0000000e+00 
0.0000000e+00 -4.5229946e-03 0.0000000e+00 
0.0000000e+00 -4.6094661e-03 0.0000000e+00 
0.0000000e+00 -3.6400894e-03 0.0000000e+00 
0.0000000e+00 -2.2550384e-03 0.0000000e+00 
0.0000000e+00 -1.0633634e-03 0.0000000e+00 
0.0000000e+00 -2.7766617e-04 0.0000000e+00 
0.0000000e+00 1.1025848e-04 0.0000000e+00 
0.0000000e+00 2.3555441e-04 0.0000000e+00 
0.0000000e+00 2.3385850e-04 0.0000000e+00 
0.0000000e+00 1.8591592e-04 0.0000000e+00 
0.0000000e+00 1.2403137e-04 0.0000000e+00 
0.0000000e+00 6.4337335e-05 0.0000000e+00 
0.0000000e+00 2.0505278e-05 0.0000000e+00 
0.0000000e+00 -4.4912658e-06 0.0000000e+00 
0.0000000e+00 -2.0433085e-05 0.0000000e+00 
0.0000000e+00 -3.5115165e-05 0.0000000e+00 
0.0000000e+00 -4.3986332e-05 0.0000000e+00 
0.0000000e+00 -4.3736520e-05 0.0000000e+00 
0.0000000e+00 -4.5570527e-05 0.0000000e+00 
0.0000000e+00 -5.7487352e-05 0.0000000e+00 
0.0000000e+00 -7.0598253e-05 0.0000000e+00 
0.0000000e+00 -6.8056877e-05 0.0000000e+00 
0.0000000e+00 -4.5139310e-05 0.0000000e+00 
0.0000000e+00 -1.4429088e-05 0.0000000e+00 
0.0000000e+00 1.8442754e-06 0.0000000e+00 
0.0000000e+00 -4.7593736e-07 0.0000000e+00 
0.0000000e+00 -1.4242293e-07 0.0000000e+00 
0.0000000e+00 3.0957272e-05 0.0000000e+00 
0.0000000e+00 8.3551233e-05 0.0000000e+00 
0.0000000e+00 7.5249074e-05 0.0000000e+00 
0.0000000e+00 -1.2244815e-04 0.0000000e+00 
0.0000000e+00 -5.8668683e-04 0.0000000e+00 
0.0000000e+00 -1.3176199e-03 0.0000000e+00 
0.0000000e+00 -2.2921413e-03 0.0000000e+00 
0.0000000e+00 -3.4622240e-03 0.0000000e+00 
0.0000000e+00 -4.6533416e-03 0.0000000e+00 
0.0000000e+00 -5.3230687e-03 0.0000000e+00 
0.0000000e+00 -5.0311419e-03 0.0000000e+00 
0.0000000e+00 -4.5509939e-03 0.0000000e+00 
0.0000000e+00 -4.4630300e-03 0.0000000e+00 
0.0000000e+00 -4.6520839e-03 0.0000000e+00 
0.0000000e+00 -4.4748490e-03 0.0000000e+00 
0.0000000e+00 -3.3128120e-03 0.0000000e+00 
0.0000000e+00 -1.8995684e-03 0.0000000e+00 
0.0000000e+00 -8.0157560e-04 0.0000000e+00 
0.0000000e+00 -1.5292675e-04 0.0000000e+00 
0.0000000e+00 1.5164023e-04 0.0000000e+00 
0.0000000e+00 2.5305711e-04 0.0000000e+00 
0.0000000e+00 2.4239926e-04 0.0000000e+00 
0.0000000e+00 1.7312536e-04 0.0000000e+00 
0.0000000e+00 9.0443617e-05 0.0000000e+00 
0.0000000e+00 2.9913221e-05 0.0000000e+00 
0.0000000e+00 5.4481802e-07 0.0000000e+00 
0.0000000e+00 -1.1361595e-05 0.0000000e+00 
0.0000000e+00 -1.9312773e-05 0.0000000e+00 
0.0000000e+00 -2.5470663e-05 0.0000000e+00 
0.0000000e+00 -2.5163909e-05 0.0000000e+00 
0.0000000e+00 -1.7895713e-05 0.0000000e+00 
0.0000000e+00 -9.2008759e-06 0.0000000e+00 
0.0000000e+00 -3.3342476e-06 0.0000000e+00 
0.0000000e+00 5.6813388e-07 0.0000000e+00 
0.0000000e+00 4.7781214e-06 0.0000000e+00 
0.0000000e+00 8.0303134e-06 0.0000000e+00 
0.0000000e+00 7.4952686e-06 0.0000000e+00 
0.0000000e+00 3.4049126e-06 0.0000000e+00 
0.0000000e+00 -7.1534788e-07 0.0000000e+00 
0.0000000e+00 -1.8345178e-06 0.0000000e+00 
0.0000000e+00 -2.4062277e-07 0.0000000e+00 
0.0000000e+00 1.3679373e-06 0.0000000e+00 
0.0000000e+00 1.2773470e-06 0.0000000e+00 
0.0000000e+00 2.0644478e-07 0.0000000e+00 
0.0000000e+00 -2.8130606e-07 0.0000000e+00 
0.0000000e+00 8.9798064e-08 0.0000000e+00 
0.0000000e+00 4.9180267e-07 0.0000000e+00 
0.0000000e+00 3.4105355e-07 0.0000000e+00 
0.0000000e+00 -1.5127048e-08 0.0000000e+00 
0.0000000e+00 3.5603534e-08 0.0000000e+00 
0.0000000e+00 4.1756954e-07 0.0000000e+00 
0.0000000e+00 4.3003811e-07 0.0000000e+00 
0.0000000e+00 -2.9889952e-07 0.0000000e+00 
0.0000000e+00 -1.2336844e-06 0.0000000e+00 
0.0000000e+00 -1.4710996e-06 0.0000000e+00 
0.0000000e+00 -7.3501673e-07 0.0000000e+00 
0.0000000e+00 3.5261917e-07 0.0000000e+00 
0.0000000e+00 9.7658278e-07 0.0000000e+00 
0.0000000e+00 9.1850501e-07 0.0000000e+00 
0.0000000e+00 5.6175224e-07 0.0000000e+00 
0.0000000e+00 2.7523231e-07 0.0000000e+00 
0.0000000e+00 3.0996915e-08 0.0000000e+00 
0.0000000e+00 -3.3621333e-07 0.0000000e+00 
0.0000000e+00 -7.0593353e-07 0.0000000e+00 
0.0000000e+00 -7.2145514e-07 0.0000000e+00 
0.0000000e+00 -2.5263083e-07 0.0000000e+00 
0.0000000e+00 3.5982632e-07 0.0000000e+00 
0.0000000e+00 6.2566932e-07 0.0000000e+00 
0.0000000e+00 4.1229637e-07 0.0000000e+00 
0.0000000e+00 3.4392496e-08 0.0000000e+00 
0.0000000e+00 -1.4733592e-07 0.0000000e+00 
0.0000000e+00 -1.0762331e-07 0.0000000e+00 
0.0000000e+00 -8.3085354e-08 0.0000000e+00 
0.0000000e+00 -1.9844653e-07 0.0000000e+00 
0.0000000e+00 -2.9363991e-07 0.0000000e+00 
0.0000000e+00 -1.5449110e-07 0.0000000e+00 
0.0000000e+00 1.7558487e-07 0.0000000e+00 
0.0000000e+00 4.1153490e-07 0.0000000e+00 
0.0000000e+00 3.4713008e-07 0.0000000e+00 
0.0000000e+00 7.6387472e-08 0.0000000e+00 
0.0000000e+00 -1.4417517e-07 0.0000000e+00 
0.0000000e+00 -1.9457239e-07 0.0000000e+00 
0.0000000e+00 -1.7587685e-07 0.0000000e+00 
0.0000000e+00 0.0000000e+00 0.0000000e+00 
0.0000000e+00 0.0000000e+00 0.0000000e+00 
0.0000000e+00 0.0000000e+00 0.0000000e+00 
0.0000000e+00 0.0000000e+00 0.0000000e+00 
0.0000000e+00 0.0000000e+00 0.0000000e+00 
0.0000000e+00 0.0000000e+00 0.0000000e+00 
0.0000000e+00 0.0000000e+00 0.0000000e+00 
0.0000000e+00 0.0000000e+00 0.0000000e+00 
0.0000000e+00 0.0000000e+00 0.0000000e+00 
0.0000000e+00 0.0000000e+00 0.0000000e+00 
0.0000000e+00 0.0000000e+00 0.0000000e+00 
0.0000000e+00 0.0000000e+00 0.0000000e+00 
0.0000000e+00 0.0000000e+00 0.0000000e+00 
0.0000000e+00 0.0000000e+00 0.0000000e+00 
0.0000000e+00 0.0000000e+00 0.0000000e+00 
0.0000000e+00 0.0000000e+00 0.0000000e+00 
0.0000000e+00 0.0000000e+00 0.0000000e+00 
0.0000000e+00 0.0000000e+00 0.0000000e+00 
0.0000000e+00 0.0000000e+00 0.0000000e+00 
0.0000000e+00 0.0000000e+00 0.0000000e+00 
0.0000000e+00 0.0000000e+00 0.0000000e+00 
0.0000000e+00 0.0000000e+00 0.0000000e+00 
0.0000000e+00 0.0000000e+00 0.0000000e+00 
0.0000000e+00 0.0000000e+00 0.0000000e+00 
0.0000000e+00 0.0000000e+00 0.0000000e+00 
0.0000000e+00 0.0000000e+00 0.0000000e+00 
0.0000000e+00 0.0000000e+00 0.0000000e+00 
0.0000000e+00 0.0000000e+00 0.0000000e+00 
0.0000000e+00 0.0000000e+00 0.0000000e+00 
0.0000000e+00 0.0000000e+00 0.0000000e+00 
0.0000000e+00 0.0000000e+00 0.0000000e+00 
0.0000000e+00 0.0000000e+00 0.0000000e+00 
0.0000000e+00 0.0000000e+00 0.0000000e+00 
0.0000000e+00 0.0000000e+00 0.0000000e+00 
0.0000000e+00 0.0000000e+00 0.0000000e+00 
0.0000000e+00 0.0000000e+00 0.0000000e+00 
0.0000000e+00 0.0000000e+00 0.0000000e+00 
0.0000000e+00 0.0000000e+00 0.0000000e+00 
0.0000000e+00 0.0000000e+00 0.0000000e+00 
0.0000000e+00 0.0000000e+00 0.0000000e+00 
0.0000000e+00 0.0000000e+00 0.0000000e+00 
0.0000000e+00 0.0000000e+00 0.0000000e+00 
0.0000000e+00 0.0000000e+00 0.0000000e+00 
0.0000000e+00 0.0000000e+00 0.0000000e+00 
0.0000000e+00 0.0000000e+00 0.0000000e+00 
0.0000000e+00 0.0000000e+00 0.0000000e+00 
0.0000000e+00 0.0000000e+00 0.0000000e+00 
0.0000000e+00 0.0000000e+00 0.0000000e+00 
0.0000000e+00 0.0000000e+00 0.0000000e+00 
0.0000000e+00 0.0000000e+00 0.0000000e+00 
0.0000000e+00 0.0000000e+00 0.0000000e+00 
0.0000000e+00 0.0000000e+00 0.0000000e+00 
0.0000000e+00 0.0000000e+00 0.0000000e+00 
0.0000000e+00 0.0000000e+00 0.0000000e+00 
0.0000000e+00 0.0000000e+00 0.0000000e+00 
0.0000000e+00 0.0000000e+00 0.0000000e+00 
0.0000000e+00 0.0000000e+00 0.0000000e+00 