# vtk DataFile Version 4.0
vtk output
ASCII
DATASET UNSTRUCTURED_GRID
POINTS 2186 float
0.0000000e+00 0.0000000e+00 0.0000000e+00 
0.0000000e+00 0.0000000e+00 5.0000000e+01 
5.0000000e+00 0.0000000e+00 0.0000000e+00 
5.0000000e+00 0.0000000e+00 5.0000000e+01 
5.0000000e+00 1.0000000e+00 0.0000000e+00 
5.0000000e+00 1.0000000e+00 5.0000000e+01 
0.0000000e+00 1.0000000e+00 0.0000000e+00 
0.0000000e+00 1.0000000e+00 5.0000000e+01 
5.0000000e+00 2.0000000e+00 0.0000000e+00 
5.0000000e+00 2.0000000e+00 5.0000000e+01 
3.0000000e+00 2.0000000e+00 0.0000000e+00 
3.0000000e+00 2.0000000e+00 5.0000000e+01 
0.0000000e+00 2.0000000e+00 0.0000000e+00 
0.0000000e+00 2.0000000e+00 5.0000000e+01 
1.5000000e+00 3.0000000e+00 0.0000000e+00 
1.5000000e+00 3.0000000e+00 5.0000000e+01 
7.5000000e-01 3.0000000e+00 0.0000000e+00 
7.5000000e-01 3.0000000e+00 5.0000000e+01 
0.0000000e+00 3.0000000e+00 0.0000000e+00 
0.0000000e+00 3.0000000e+00 5.0000000e+01 
7.5000000e-01 3.0000000e+00 -2.5000000e+01 
7.5000000e-01 3.0000000e+00 -2.4500000e+01 
7.5000000e-01 3.0000000e+00 -2.4000000e+01 
7.5000000e-01 3.0000000e+00 -2.3500000e+01 
7.5000000e-01 3.0000000e+00 -2.3000000e+01 
7.5000000e-01 3.0000000e+00 -2.2500000e+01 
7.5000000e-01 3.0000000e+00 -2.2000000e+01 
7.5000000e-01 3.0000000e+00 -2.1500000e+01 
7.5000000e-01 3.0000000e+00 -2.1000000e+01 
7.5000000e-01 3.0000000e+00 -2.0500000e+01 
7.5000000e-01 3.0000000e+00 -2.0000000e+01 
7.5000000e-01 3.0000000e+00 -1.9500000e+01 
7.5000000e-01 3.0000000e+00 -1.9000000e+01 
7.5000000e-01 3.0000000e+00 -1.8500000e+01 
7.5000000e-01 3.0000000e+00 -1.8000000e+01 
7.5000000e-01 3.0000000e+00 -1.7500000e+01 
7.5000000e-01 3.0000000e+00 -1.7000000e+01 
7.5000000e-01 3.0000000e+00 -1.6500000e+01 
7.5000000e-01 3.0000000e+00 -1.6000000e+01 
7.5000000e-01 3.0000000e+00 -1.5500000e+01 
7.5000000e-01 3.0000000e+00 -1.5000000e+01 
7.5000000e-01 3.0000000e+00 -1.4500000e+01 
7.5000000e-01 3.0000000e+00 -1.4000000e+01 
7.5000000e-01 3.0000000e+00 -1.3500000e+01 
7.5000000e-01 3.0000000e+00 -1.3000000e+01 
7.5000000e-01 3.0000000e+00 -1.2500000e+01 
7.5000000e-01 3.0000000e+00 -1.2000000e+01 
7.5000000e-01 3.0000000e+00 -1.1500000e+01 
7.5000000e-01 3.0000000e+00 -1.1000000e+01 
7.5000000e-01 3.0000000e+00 -1.0500000e+01 
7.5000000e-01 3.0000000e+00 -1.0000000e+01 
7.5000000e-01 3.0000000e+00 -9.5000000e+00 
7.5000000e-01 3.0000000e+00 -9.0000000e+00 
7.5000000e-01 3.0000000e+00 -8.5000000e+00 
7.5000000e-01 3.0000000e+00 -8.0000000e+00 
7.5000000e-01 3.0000000e+00 -7.5000000e+00 
7.5000000e-01 3.0000000e+00 -7.0000000e+00 
7.5000000e-01 3.0000000e+00 -6.5000000e+00 
7.5000000e-01 3.0000000e+00 -6.0000000e+00 
7.5000000e-01 3.0000000e+00 -5.5000000e+00 
7.5000000e-01 3.0000000e+00 -5.0000000e+00 
7.5000000e-01 3.0000000e+00 -4.5000000e+00 
7.5000000e-01 3.0000000e+00 -4.0000000e+00 
7.5000000e-01 3.0000000e+00 -3.5000000e+00 
7.5000000e-01 3.0000000e+00 -3.0000000e+00 
7.5000000e-01 3.0000000e+00 -2.5000000e+00 
7.5000000e-01 3.0000000e+00 -2.0000000e+00 
7.5000000e-01 3.0000000e+00 -1.5000000e+00 
7.5000000e-01 3.0000000e+00 -1.0000000e+00 
7.5000000e-01 3.0000000e+00 -5.0000000e-01 
7.5000000e-01 3.0000000e+00 5.0000000e-01 
7.5000000e-01 3.0000000e+00 1.0000000e+00 
7.5000000e-01 3.0000000e+00 1.5000000e+00 
7.5000000e-01 3.0000000e+00 2.0000000e+00 
7.5000000e-01 3.0000000e+00 2.5000000e+00 
7.5000000e-01 3.0000000e+00 3.0000000e+00 
7.5000000e-01 3.0000000e+00 3.5000000e+00 
7.5000000e-01 3.0000000e+00 4.0000000e+00 
7.5000000e-01 3.0000000e+00 4.5000000e+00 
7.5000000e-01 3.0000000e+00 5.0000000e+00 
7.5000000e-01 3.0000000e+00 5.5000000e+00 
7.5000000e-01 3.0000000e+00 6.0000000e+00 
7.5000000e-01 3.0000000e+00 6.5000000e+00 
7.5000000e-01 3.0000000e+00 7.0000000e+00 
7.5000000e-01 3.0000000e+00 7.5000000e+00 
7.5000000e-01 3.0000000e+00 8.0000000e+00 
7.5000000e-01 3.0000000e+00 8.5000000e+00 
7.5000000e-01 3.0000000e+00 9.0000000e+00 
7.5000000e-01 3.0000000e+00 9.5000000e+00 
7.5000000e-01 3.0000000e+00 1.0000000e+01 
7.5000000e-01 3.0000000e+00 1.0500000e+01 
7.5000000e-01 3.0000000e+00 1.1000000e+01 
7.5000000e-01 3.0000000e+00 1.1500000e+01 
7.5000000e-01 3.0000000e+00 1.2000000e+01 
7.5000000e-01 3.0000000e+00 1.2500000e+01 
7.5000000e-01 3.0000000e+00 1.3000000e+01 
7.5000000e-01 3.0000000e+00 1.3500000e+01 
7.5000000e-01 3.0000000e+00 1.4000000e+01 
7.5000000e-01 3.0000000e+00 1.4500000e+01 
7.5000000e-01 3.0000000e+00 1.5000000e+01 
7.5000000e-01 3.0000000e+00 1.5500000e+01 
7.5000000e-01 3.0000000e+00 1.6000000e+01 
7.5000000e-01 3.0000000e+00 1.6500000e+01 
7.5000000e-01 3.0000000e+00 1.7000000e+01 
7.5000000e-01 3.0000000e+00 1.7500000e+01 
7.5000000e-01 3.0000000e+00 1.8000000e+01 
7.5000000e-01 3.0000000e+00 1.8500000e+01 
7.5000000e-01 3.0000000e+00 1.9000000e+01 
7.5000000e-01 3.0000000e+00 1.9500000e+01 
7.5000000e-01 3.0000000e+00 2.0000000e+01 
7.5000000e-01 3.0000000e+00 2.0500000e+01 
7.5000000e-01 3.0000000e+00 2.1000000e+01 
7.5000000e-01 3.0000000e+00 2.1500000e+01 
7.5000000e-01 3.0000000e+00 2.2000000e+01 
7.5000000e-01 3.0000000e+00 2.2500000e+01 
7.5000000e-01 3.0000000e+00 2.3000000e+01 
7.5000000e-01 3.0000000e+00 2.3500000e+01 
7.5000000e-01 3.0000000e+00 2.4000000e+01 
7.5000000e-01 3.0000000e+00 2.4500000e+01 
7.5000000e-01 3.0000000e+00 2.5000000e+01 
7.5000000e-01 3.0000000e+00 2.5500000e+01 
7.5000000e-01 3.0000000e+00 2.6000000e+01 
7.5000000e-01 3.0000000e+00 2.6500000e+01 
7.5000000e-01 3.0000000e+00 2.7000000e+01 
7.5000000e-01 3.0000000e+00 2.7500000e+01 
7.5000000e-01 3.0000000e+00 2.8000000e+01 
7.5000000e-01 3.0000000e+00 2.8500000e+01 
7.5000000e-01 3.0000000e+00 2.9000000e+01 
7.5000000e-01 3.0000000e+00 2.9500000e+01 
7.5000000e-01 3.0000000e+00 3.0000000e+01 
7.5000000e-01 3.0000000e+00 3.0500000e+01 
7.5000000e-01 3.0000000e+00 3.1000000e+01 
7.5000000e-01 3.0000000e+00 3.1500000e+01 
7.5000000e-01 3.0000000e+00 3.2000000e+01 
7.5000000e-01 3.0000000e+00 3.2500000e+01 
7.5000000e-01 3.0000000e+00 3.3000000e+01 
7.5000000e-01 3.0000000e+00 3.3500000e+01 
7.5000000e-01 3.0000000e+00 3.4000000e+01 
7.5000000e-01 3.0000000e+00 3.4500000e+01 
7.5000000e-01 3.0000000e+00 3.5000000e+01 
7.5000000e-01 3.0000000e+00 3.5500000e+01 
7.5000000e-01 3.0000000e+00 3.6000000e+01 
7.5000000e-01 3.0000000e+00 3.6500000e+01 
7.5000000e-01 3.0000000e+00 3.7000000e+01 
7.5000000e-01 3.0000000e+00 3.7500000e+01 
7.5000000e-01 3.0000000e+00 3.8000000e+01 
7.5000000e-01 3.0000000e+00 3.8500000e+01 
7.5000000e-01 3.0000000e+00 3.9000000e+01 
7.5000000e-01 3.0000000e+00 3.9500000e+01 
7.5000000e-01 3.0000000e+00 4.0000000e+01 
7.5000000e-01 3.0000000e+00 4.0500000e+01 
7.5000000e-01 3.0000000e+00 4.1000000e+01 
7.5000000e-01 3.0000000e+00 4.1500000e+01 
7.5000000e-01 3.0000000e+00 4.2000000e+01 
7.5000000e-01 3.0000000e+00 4.2500000e+01 
7.5000000e-01 3.0000000e+00 4.3000000e+01 
7.5000000e-01 3.0000000e+00 4.3500000e+01 
7.5000000e-01 3.0000000e+00 4.4000000e+01 
7.5000000e-01 3.0000000e+00 4.4500000e+01 
7.5000000e-01 3.0000000e+00 4.5000000e+01 
7.5000000e-01 3.0000000e+00 4.5500000e+01 
7.5000000e-01 3.0000000e+00 4.6000000e+01 
7.5000000e-01 3.0000000e+00 4.6500000e+01 
7.5000000e-01 3.0000000e+00 4.7000000e+01 
7.5000000e-01 3.0000000e+00 4.7500000e+01 
7.5000000e-01 3.0000000e+00 4.8000000e+01 
7.5000000e-01 3.0000000e+00 4.8500000e+01 
7.5000000e-01 3.0000000e+00 4.9000000e+01 
7.5000000e-01 3.0000000e+00 4.9500000e+01 
7.5000000e-01 3.0000000e+00 5.0500000e+01 
7.5000000e-01 3.0000000e+00 5.1000000e+01 
7.5000000e-01 3.0000000e+00 5.1500000e+01 
7.5000000e-01 3.0000000e+00 5.2000000e+01 
7.5000000e-01 3.0000000e+00 5.2500000e+01 
7.5000000e-01 3.0000000e+00 5.3000000e+01 
7.5000000e-01 3.0000000e+00 5.3500000e+01 
7.5000000e-01 3.0000000e+00 5.4000000e+01 
7.5000000e-01 3.0000000e+00 5.4500000e+01 
7.5000000e-01 3.0000000e+00 5.5000000e+01 
7.5000000e-01 3.0000000e+00 5.5500000e+01 
7.5000000e-01 3.0000000e+00 5.6000000e+01 
7.5000000e-01 3.0000000e+00 5.6500000e+01 
7.5000000e-01 3.0000000e+00 5.7000000e+01 
7.5000000e-01 3.0000000e+00 5.7500000e+01 
7.5000000e-01 3.0000000e+00 5.8000000e+01 
7.5000000e-01 3.0000000e+00 5.8500000e+01 
7.5000000e-01 3.0000000e+00 5.9000000e+01 
7.5000000e-01 3.0000000e+00 5.9500000e+01 
7.5000000e-01 3.0000000e+00 6.0000000e+01 
7.5000000e-01 3.0000000e+00 6.0500000e+01 
7.5000000e-01 3.0000000e+00 6.1000000e+01 
7.5000000e-01 3.0000000e+00 6.1500000e+01 
7.5000000e-01 3.0000000e+00 6.2000000e+01 
7.5000000e-01 3.0000000e+00 6.2500000e+01 
7.5000000e-01 3.0000000e+00 6.3000000e+01 
7.5000000e-01 3.0000000e+00 6.3500000e+01 
7.5000000e-01 3.0000000e+00 6.4000000e+01 
7.5000000e-01 3.0000000e+00 6.4500000e+01 
7.5000000e-01 3.0000000e+00 6.5000000e+01 
7.5000000e-01 3.0000000e+00 6.5500000e+01 
7.5000000e-01 3.0000000e+00 6.6000000e+01 
7.5000000e-01 3.0000000e+00 6.6500000e+01 
7.5000000e-01 3.0000000e+00 6.7000000e+01 
7.5000000e-01 3.0000000e+00 6.7500000e+01 
7.5000000e-01 3.0000000e+00 6.8000000e+01 
7.5000000e-01 3.0000000e+00 6.8500000e+01 
7.5000000e-01 3.0000000e+00 6.9000000e+01 
7.5000000e-01 3.0000000e+00 6.9500000e+01 
7.5000000e-01 3.0250001e+00 -2.5000000e+01 
7.5000000e-01 3.0250001e+00 -2.4500000e+01 
7.5000000e-01 3.0250001e+00 -2.4000000e+01 
7.5000000e-01 3.0250001e+00 -2.3500000e+01 
7.5000000e-01 3.0250001e+00 -2.3000000e+01 
7.5000000e-01 3.0250001e+00 -2.2500000e+01 
7.5000000e-01 3.0250001e+00 -2.2000000e+01 
7.5000000e-01 3.0250001e+00 -2.1500000e+01 
7.5000000e-01 3.0250001e+00 -2.1000000e+01 
7.5000000e-01 3.0250001e+00 -2.0500000e+01 
7.5000000e-01 3.0250001e+00 -2.0000000e+01 
7.5000000e-01 3.0250001e+00 -1.9500000e+01 
7.5000000e-01 3.0250001e+00 -1.9000000e+01 
7.5000000e-01 3.0250001e+00 -1.8500000e+01 
7.5000000e-01 3.0250001e+00 -1.8000000e+01 
7.5000000e-01 3.0250001e+00 -1.7500000e+01 
7.5000000e-01 3.0250001e+00 -1.7000000e+01 
7.5000000e-01 3.0250001e+00 -1.6500000e+01 
7.5000000e-01 3.0250001e+00 -1.6000000e+01 
7.5000000e-01 3.0250001e+00 -1.5500000e+01 
[...]
POINT_DATA 2186
FIELD FieldData 3
DISPLACEMENT 3 2186  float
0.0000000e+00 0.0000000e+00 0.0000000e+00 
0.0000000e+00 0.0000000e+00 0.0000000e+00 
0.0000000e+00 0.0000000e+00 0.0000000e+00 
0.0000000e+00 0.0000000e+00 0.0000000e+00 
-2.2819120e-06 -1.6751376e-06 -2.5370093e-06 
-5.4845202e-07 -1.0311170e-06 -2.8959510e-08 
0.0000000e+00 1.0016106e-05 0.0000000e+00 
0.0000000e+00 -4.6141642e-07 0.0000000e+00 
-1.3906630e-06 6.2792839e-07 -4.0674827e-06 
3.4705980e-08 -2.1127880e-06 2.1383050e-06 
-2.7373554e-07 9.7138818e-06 1.2466412e-05 
-5.3503499e-07 -3.0286441e-07 -6.1498702e-07 
0.0000000e+00 8.0076325e-06 0.0000000e+00 
0.0000000e+00 -9.4301754e-08 0.0000000e+00 
-2.6958527e-05 4.6967143e-06 2.9776798e-05 
-1.6279569e-06 -2.7703543e-06 8.9887735e-06 
-2.9290168e-05 -1.7893321e-05 1.9108618e-05 
-4.1461271e-06 2.5264342e-06 2.7887618e-06 
0.0000000e+00 -2.6091157e-06 0.0000000e+00 
0.0000000e+00 -5.8452639e-07 0.0000000e+00 
0.0000000e+00 1.8218019e-05 0.0000000e+00 
0.0000000e+00 1.4069797e-05 0.0000000e+00 
0.0000000e+00 4.0388504e-06 0.0000000e+00 
0.0000000e+00 -6.9127805e-06 0.0000000e+00 
0.0000000e+00 -1.4132270e-05 0.0000000e+00 
0.0000000e+00 -1.5424188e-05 0.0000000e+00 
0.0000000e+00 -1.1592406e-05 0.0000000e+00 
0.0000000e+00 -5.2709397e-06 0.0000000e+00 
0.0000000e+00 9.2330941e-07 0.0000000e+00 
0.0000000e+00 5.5761438e-06 0.0000000e+00 
0.0000000e+00 8.3822933e-06 0.0000000e+00 
0.0000000e+00 9.3024100e-06 0.0000000e+00 
0.0000000e+00 8.0662203e-06 0.0000000e+00 
0.0000000e+00 4.5821612e-06 0.0000000e+00 
0.0000000e+00 -2.7189864e-07 0.0000000e+00 
0.0000000e+00 -4.5220791e-06 0.0000000e+00 
0.0000000e+00 -6.1036467e-06 0.0000000e+00 
0.0000000e+00 -4.3625791e-06 0.0000000e+00 
0.0000000e+00 -8.2036865e-07 0.0000000e+00 
0.0000000e+00 1.6038009e-06 0.0000000e+00 
0.0000000e+00 5.8384444e-07 0.0000000e+00 
0.0000000e+00 -3.7551993e-06 0.0000000e+00 
0.0000000e+00 -8.5519323e-06 0.0000000e+00 
0.0000000e+00 -9.8993314e-06 0.0000000e+00 
0.0000000e+00 -5.4552770e-06 0.0000000e+00 
0.0000000e+00 3.7971054e-06 0.0000000e+00 
0.0000000e+00 1.3820465e-05 0.0000000e+00 
0.0000000e+00 1.9665811e-05 0.0000000e+00 
0.0000000e+00 1.8212870e-05 0.0000000e+00 
0.0000000e+00 9.9043591e-06 0.0000000e+00 
0.0000000e+00 -1.5791223e-06 0.0000000e+00 
0.0000000e+00 -1.1492985e-05 0.0000000e+00 
0.0000000e+00 -1.6563430e-05 0.0000000e+00 
0.0000000e+00 -1.6211803e-05 0.0000000e+00 
0.0000000e+00 -1.2011506e-05 0.0000000e+00 
0.0000000e+00 -6.3129514e-06 0.0000000e+00 
0.0000000e+00 -1.1567392e-06 0.0000000e+00 
0.0000000e+00 2.2198337e-06 0.0000000e+00 
0.0000000e+00 3.5290541e-06 0.0000000e+00 
0.0000000e+00 3.3682029e-06 0.0000000e+00 
0.0000000e+00 2.9460896e-06 0.0000000e+00 
0.0000000e+00 3.6579179e-06 0.0000000e+00 
0.0000000e+00 6.4675110e-06 0.0000000e+00 
0.0000000e+00 1.1074052e-05 0.0000000e+00 
0.0000000e+00 1.5447071e-05 0.0000000e+00 
0.0000000e+00 1.6663484e-05 0.0000000e+00 
0.0000000e+00 1.2873065e-05 0.0000000e+00 
0.0000000e+00 4.6902419e-06 0.0000000e+00 
0.0000000e+00 -5.2587138e-06 0.0000000e+00 
0.0000000e+00 -1.3751570e-05 0.0000000e+00 
-2.4454112e-05 -1.4532388e-05 8.0525497e-06 
-1.8769782e-05 -6.1570145e-06 1.2549797e-05 
-1.9399024e-05 2.4525036e-06 8.4606472e-06 
-2.0163328e-05 1.0443925e-05 8.1269621e-07 
4.2268316e-06 1.9684405e-05 3.6601632e-06 
1.1828690e-05 3.1731008e-05 7.5834441e-06 
1.7884733e-05 4.4424156e-05 1.4022243e-06 
2.5584630e-05 5.1009709e-05 1.4528284e-06 
2.6138534e-05 5.0651572e-05 -1.2995594e-06 
3.6650363e-05 5.0346578e-05 1.6313095e-05 
4.1658277e-05 5.6626774e-05 1.6400934e-05 
4.0764178e-05 7.4204181e-05 1.1655046e-05 
3.8552156e-05 9.5715797e-05 2.9317814e-06 
3.9296927e-05 1.0232633e-04 -3.3657413e-06 
3.6501253e-05 8.7946435e-05 -2.7359474e-06 
3.9963241e-05 7.5556454e-05 1.9044481e-05 
2.3265187e-05 9.2476883e-05 3.7937516e-05 
3.7451673e-06 1.3737770e-04 3.5207388e-05 
2.8822285e-06 1.7053838e-04 3.1171887e-05 
-1.3158312e-05 1.3552759e-04 2.7457223e-05 
-3.2547345e-05 1.9423200e-05 3.5459587e-05 
-4.7553498e-05 -1.5289418e-04 5.3718984e-05 
-8.7728855e-05 -4.0276852e-04 1.2349675e-04 
-1.2313164e-04 -8.3501561e-04 8.7017746e-05 
-1.8140786e-04 -1.6212419e-03 1.5895968e-04 
-4.1417542e-04 -2.8435709e-03 2.7365726e-04 
-2.5947555e-04 -4.2464114e-03 1.2393008e-04 
-2.6615159e-04 -5.1994594e-03 -4.3625910e-06 
-2.6090044e-04 -5.0498182e-03 -4.5444689e-05 
-2.3130461e-04 -4.4842218e-03 -6.0696664e-05 
-1.9112494e-04 -4.3189521e-03 -6.2380779e-05 
-1.9176048e-04 -4.6363245e-03 -1.3456991e-04 
-2.5669625e-04 -4.8554181e-03 -1.2795608e-04 
-4.3714591e-04 -4.0641748e-03 -3.1817015e-04 
-1.1442086e-04 -2.6702217e-03 -1.6066455e-04 
-3.8533624e-05 -1.3735768e-03 -3.2465046e-05 
-1.8665563e-05 -4.5900428e-04 -5.9273953e-05 
-1.9196716e-05 3.8168007e-05 2.5591020e-05 
-2.7082377e-05 2.0925389e-04 3.0277330e-05 
-2.8619126e-05 2.0392661e-04 3.4473578e-05 
-3.2339132e-05 1.5238144e-04 3.4443074e-05 
-3.0660660e-05 1.1080264e-04 2.6955140e-05 
-2.3559889e-05 8.2587678e-05 1.6500077e-05 
-1.8596500e-05 5.7042907e-05 9.4669804e-06 
-2.0278074e-05 3.9018880e-05 -1.1699713e-05 
6.4501578e-06 4.0566065e-05 -2.6099964e-05 
2.5942158e-05 6.0206250e-05 -3.6927806e-05 
3.1731390e-05 8.1181970e-05 -3.1360658e-05 
4.7216497e-05 8.6605010e-05 -1.0806464e-05 
4.4244727e-05 7.5697004e-05 8.0228319e-06 
2.7703361e-05 6.1662817e-05 7.9620486e-06 
3.4154782e-05 6.2050785e-05 5.7354896e-06 
3.4361601e-05 7.7052755e-05 -7.5862085e-06 
4.1189371e-05 9.1053647e-05 -9.3896397e-06 
3.7165879e-05 9.0622532e-05 -7.2067642e-06 
3.4249166e-05 7.2944466e-05 -1.2137638e-06 
1.0211495e-05 6.0497277e-05 3.3109502e-06 
-3.3700367e-06 8.6038453e-05 8.2890401e-06 
-3.6945755e-06 1.3930263e-04 1.8370698e-05 
-1.0372676e-05 1.5419308e-04 2.6541118e-05 
-2.5606119e-05 6.2935840e-05 5.6432124e-05 
-4.9854563e-05 -1.7525784e-04 7.6930293e-05 
-9.5295094e-05 -5.6501623e-04 1.4822623e-04 
-1.4336436e-04 -1.1131766e-03 1.0096002e-04 
-1.9504984e-04 -1.9129199e-03 2.2918350e-04 
-2.4945522e-04 -3.0448090e-03 7.6508484e-05 
-3.1589798e-04 -4.4030063e-03 1.5720319e-04 
-3.7724420e-04 -5.3312723e-03 3.5072096e-06 
-3.6616364e-04 -5.1252609e-03 -1.0944765e-04 
-2.7349210e-04 -4.4977195e-03 -7.3192612e-05 
-2.2332325e-04 -4.2458926e-03 -3.4880897e-05 
-2.4399759e-04 -4.4617378e-03 -1.1697393e-04 
-2.5855956e-04 -4.5596729e-03 -1.4802342e-04 
-1.3203645e-04 -3.5955189e-03 -1.0298815e-04 
-1.4498587e-04 -2.2454788e-03 -2.4200424e-04 
-4.9077839e-06 -1.0622623e-03 -8.2417202e-05 
-3.4695704e-06 -2.9724312e-04 -7.8496843e-05 
1.0963671e-06 7.2590374e-05 -1.2264199e-05 
6.5262329e-06 1.8683402e-04 -1.5459027e-06 
-1.4149941e-05 1.8177187e-04 1.1829288e-05 
-8.4007324e-06 1.4089182e-04 1.3494902e-05 
-1.6175472e-05 9.0892725e-05 9.0762533e-06 
-2.1496182e-05 4.3244483e-05 1.7022031e-06 
-1.7786191e-05 1.2021364e-05 -1.3881754e-05 
-1.2962540e-05 4.0199934e-06 -3.0877571e-05 
-4.9607811e-06 7.3703532e-06 -3.7666217e-05 
5.7412553e-06 6.7852257e-06 -3.9389870e-05 
5.5682576e-06 1.3183288e-06 -2.8477323e-05 
6.9990647e-06 -1.7033001e-06 -7.7670984e-06 
5.6383928e-06 2.1015553e-07 3.2815617e-06 
-2.5016357e-06 1.8222568e-06 2.5052441e-06 
-2.1015026e-06 -7.6614816e-07 -2.7288274e-06 
3.1844020e-06 -5.7483035e-06 -8.4360418e-06 
4.1931062e-06 -8.3375689e-06 -8.0825230e-06 
6.4416281e-06 -6.4619589e-06 -6.0857252e-07 
5.5628207e-06 -2.8257955e-06 3.0138146e-06 
2.4049444e-07 -7.1240891e-07 6.2291433e-06 
-7.1927212e-07 -2.2085199e-07 7.4325339e-06 
-4.5948221e-07 6.3488807e-07 4.3572691e-06 
0.0000000e+00 3.9119082e-06 0.0000000e+00 
0.0000000e+00 3.3338974e-06 0.0000000e+00 
0.0000000e+00 1.0072915e-06 0.0000000e+00 
0.0000000e+00 -1.2448788e-06 0.0000000e+00 
0.0000000e+00 -1.9532135e-06 0.0000000e+00 
0.0000000e+00 -1.3028832e-06 0.0000000e+00 
0.0000000e+00 -4.4717964e-07 0.0000000e+00 
0.0000000e+00 -3.6555114e-08 0.0000000e+00 
0.0000000e+00 1.7466668e-07 0.0000000e+00 
0.0000000e+00 4.8599827e-07 0.0000000e+00 
0.0000000e+00 5.8821354e-07 0.0000000e+00 
0.0000000e+00 1.2982282e-08 0.0000000e+00 
0.0000000e+00 -1.0040532e-06 0.0000000e+00 
0.0000000e+00 -1.5129951e-06 0.0000000e+00 
0.0000000e+00 -8.2962742e-07 0.0000000e+00 
0.0000000e+00 6.4450546e-07 0.0000000e+00 
0.0000000e+00 1.7467730e-06 0.0000000e+00 
0.0000000e+00 1.6636498e-06 0.0000000e+00 
0.0000000e+00 6.1212063e-07 0.0000000e+00 
0.0000000e+00 -5.3613513e-07 0.0000000e+00 
0.0000000e+00 -1.1156659e-06 0.0000000e+00 
0.0000000e+00 -1.0669499e-06 0.0000000e+00 
0.0000000e+00 -6.5917084e-07 0.0000000e+00 
0.0000000e+00 -1.0134918e-07 0.0000000e+00 
0.0000000e+00 4.8041818e-07 0.0000000e+00 
0.0000000e+00 8.6661407e-07 0.0000000e+00 
0.0000000e+00 7.9277015e-07 0.0000000e+00 
0.0000000e+00 2.4076226e-07 0.0000000e+00 
0.0000000e+00 -4.2948551e-07 0.0000000e+00 
0.0000000e+00 -7.4942119e-07 0.0000000e+00 
0.0000000e+00 -5.4920383e-07 0.0000000e+00 
0.0000000e+00 -6.6286901e-08 0.0000000e+00 
0.0000000e+00 3.2491755e-07 0.0000000e+00 
0.0000000e+00 4.3401300e-07 0.0000000e+00 
0.0000000e+00 3.1747328e-07 0.0000000e+00 
0.0000000e+00 1.1927185e-07 0.0000000e+00 
0.0000000e+00 -6.7948939e-08 0.0000000e+00 
0.0000000e+00 -2.0433801e-07 0.0000000e+00 
0.0000000e+00 -2.5664082e-07 0.0000000e+00 
0.0000000e+00 1.8105853e-05 0.0000000e+00 
0.0000000e+00 1.4006835e-05 0.0000000e+00 
0.0000000e+00 4.0782952e-06 0.0000000e+00 
0.0000000e+00 -6.7999322e-06 0.0000000e+00 
0.0000000e+00 -1.4028915e-05 0.0000000e+00 
0.0000000e+00 -1.5401492e-05 0.0000000e+00 
0.0000000e+00 -1.1656261e-05 0.0000000e+00 
0.0000000e+00 -5.3608755e-06 0.0000000e+00 
0.0000000e+00 8.8236465e-07 0.0000000e+00 
0.0000000e+00 5.6110216e-06 0.0000000e+00 
0.0000000e+00 8.4507947e-06 0.0000000e+00 
0.0000000e+00 9.3339177e-06 0.0000000e+00 
0.0000000e+00 8.0281334e-06 0.0000000e+00 
0.0000000e+00 4.5109700e-06 0.0000000e+00 
0.0000000e+00 -3.0407796e-07 0.0000000e+00 
0.0000000e+00 -4.4742847e-06 0.0000000e+00 
0.0000000e+00 -6.0055677e-06 0.0000000e+00 
0.0000000e+00 -4.2930469e-06 0.0000000e+00 
0.0000000e+00 -8.4381264e-07 0.0000000e+00 
0.0000000e+00 1.4918238e-06 0.0000000e+00 
0.0000000e+00 4.5887776e-07 0.0000000e+00 
0.0000000e+00 -3.8010601e-06 0.0000000e+00 
0.0000000e+00 -8.4812546e-06 0.0000000e+00 
0.0000000e+00 -9.7598640e-06 0.0000000e+00 
0.0000000e+00 -5.3437152e-06 0.0000000e+00 
0.0000000e+00 3.8072940e-06 0.0000000e+00 
0.0000000e+00 1.3728885e-05 0.0000000e+00 
0.0000000e+00 1.9539963e-05 0.0000000e+00 
0.0000000e+00 1.8139335e-05 0.0000000e+00 
0.0000000e+00 9.9302788e-06 0.0000000e+00 
0.0000000e+00 -1.4788792e-06 0.0000000e+00 
0.0000000e+00 -1.1397104e-05 0.0000000e+00 
0.0000000e+00 -1.6540460e-05 0.0000000e+00 
0.0000000e+00 -1.6264044e-05 0.0000000e+00 
0.0000000e+00 -1.2081970e-05 0.0000000e+00 
0.0000000e+00 -6.3465018e-06 0.0000000e+00 
0.0000000e+00 -1.1475643e-06 0.0000000e+00 
0.0000000e+00 2.2380086e-06 0.0000000e+00 
0.0000000e+00 3.5244791e-06 0.0000000e+00 
0.0000000e+00 3.3391107e-06 0.0000000e+00 
0.0000000e+00 2.9221778e-06 0.0000000e+00 
0.0000000e+00 3.6790689e-06 0.0000000e+00 
0.0000000e+00 6.5435238e-06 0.0000000e+00 
0.0000000e+00 1.1157333e-05 0.0000000e+00 
0.0000000e+00 1.5466523e-05 0.0000000e+00 
0.0000000e+00 1.6601127e-05 0.0000000e+00 
0.0000000e+00 1.2788028e-05 0.0000000e+00 
0.0000000e+00 4.6486566e-06 0.0000000e+00 
0.0000000e+00 -5.2586147e-06 0.0000000e+00 
0.0000000e+00 -1.3766602e-05 0.0000000e+00 
0.0000000e+00 -1.7656983e-05 0.0000000e+00 
0.0000000e+00 -1.4443399e-05 0.0000000e+00 
0.0000000e+00 -6.3389002e-06 0.0000000e+00 
0.0000000e+00 2.3150451e-06 0.0000000e+00 
0.0000000e+00 1.0439421e-05 0.0000000e+00 
0.0000000e+00 1.9851565e-05 0.0000000e+00 
0.0000000e+00 3.2013970e-05 0.0000000e+00 
0.0000000e+00 4.4297110e-05 0.0000000e+00 
0.0000000e+00 5.0714611e-05 0.0000000e+00 
0.0000000e+00 5.0565061e-05 0.0000000e+00 
0.0000000e+00 5.0317525e-05 0.0000000e+00 
0.0000000e+00 5.7169953e-05 0.0000000e+00 
0.0000000e+00 7.4860480e-05 0.0000000e+00 
0.0000000e+00 9.5533993e-05 0.0000000e+00 
0.0000000e+00 1.0133698e-04 0.0000000e+00 
0.0000000e+00 8.7359498e-05 0.0000000e+00 
0.0000000e+00 7.6174329e-05 0.0000000e+00 
0.0000000e+00 9.4229166e-05 0.0000000e+00 
0.0000000e+00 1.3886280e-04 0.0000000e+00 
0.0000000e+00 1.6936426e-04 0.0000000e+00 
0.0000000e+00 1.3376139e-04 0.0000000e+00 
0.0000000e+00 2.0216696e-05 0.0000000e+00 
0.0000000e+00 -1.5042246e-04 0.0000000e+00 
0.0000000e+00 -3.9950904e-04 0.0000000e+00 
0.0000000e+00 -8.3678938e-04 0.0000000e+00 
0.0000000e+00 -1.6324292e-03 0.0000000e+00 
0.0000000e+00 -2.8571778e-03 0.0000000e+00 
0.0000000e+00 -4.2677275e-03 0.0000000e+00 
0.0000000e+00 -5.2278652e-03 0.0000000e+00 
0.0000000e+00 -5.0722933e-03 0.0000000e+00 
0.0000000e+00 -4.5116516e-03 0.0000000e+00 
0.0000000e+00 -4.3426300e-03 0.0000000e+00 
0.0000000e+00 -4.6687173e-03 0.0000000e+00 
0.0000000e+00 -4.8833177e-03 0.0000000e+00 
0.0000000e+00 -4.0807468e-03 0.0000000e+00 
0.0000000e+00 -2.6877373e-03 0.0000000e+00 
0.0000000e+00 -1.3829288e-03 0.0000000e+00 
0.0000000e+00 -4.6317250e-04 0.0000000e+00 
0.0000000e+00 3.6918213e-05 0.0000000e+00 
0.0000000e+00 2.1063027e-04 0.0000000e+00 
0.0000000e+00 2.0675559e-04 0.0000000e+00 
0.0000000e+00 1.5398470e-04 0.0000000e+00 
0.0000000e+00 1.1107642e-04 0.0000000e+00 
0.0000000e+00 8.2141050e-05 0.0000000e+00 
0.0000000e+00 5.7007408e-05 0.0000000e+00 
0.0000000e+00 3.9426439e-05 0.0000000e+00 
0.0000000e+00 4.0845487e-05 0.0000000e+00 
0.0000000e+00 6.0311380e-05 0.0000000e+00 
0.0000000e+00 8.1006350e-05 0.0000000e+00 
0.0000000e+00 8.6220709e-05 0.0000000e+00 
0.0000000e+00 7.5276941e-05 0.0000000e+00 
0.0000000e+00 6.2161416e-05 0.0000000e+00 
0.0000000e+00 6.2735955e-05 0.0000000e+00 
0.0000000e+00 7.7287041e-05 0.0000000e+00 
0.0000000e+00 9.1013462e-05 0.0000000e+00 
0.0000000e+00 8.9675246e-05 0.0000000e+00 
0.0000000e+00 7.2145085e-05 0.0000000e+00 
0.0000000e+00 6.1653249e-05 0.0000000e+00 
0.0000000e+00 8.8179142e-05 0.0000000e+00 
0.0000000e+00 1.4019669e-04 0.0000000e+00 
0.0000000e+00 1.5398236e-04 0.0000000e+00 
0.0000000e+00 6.1196646e-05 0.0000000e+00 
0.0000000e+00 -1.7619847e-04 0.0000000e+00 
0.0000000e+00 -5.6221813e-04 0.0000000e+00 
0.0000000e+00 -1.1131325e-03 0.0000000e+00 
0.0000000e+00 -1.9182514e-03 0.0000000e+00 
0.0000000e+00 -3.0636664e-03 0.0000000e+00 
0.0000000e+00 -4.4255494e-03 0.0000000e+00 
0.0000000e+00 -5.3649712e-03 0.0000000e+00 
0.0000000e+00 -5.1436699e-03 0.0000000e+00 
0.0000000e+00 -4.5231548e-03 0.0000000e+00 
0.0000000e+00 -4.2687105e-03 0.0000000e+00 
0.0000000e+00 -4.4944980e-03 0.0000000e+00 
0.0000000e+00 -4.5844363e-03 0.0000000e+00 
0.0000000e+00 -3.6229449e-03 0.0000000e+00 
0.0000000e+00 -2.2564356e-03 0.0000000e+00 
0.0000000e+00 -1.0715930e-03 0.0000000e+00 
0.0000000e+00 -3.0052639e-04 0.0000000e+00 
0.0000000e+00 7.3709089e-05 0.0000000e+00 
0.0000000e+00 1.8892444e-04 0.0000000e+00 
0.0000000e+00 1.8343987e-04 0.0000000e+00 
0.0000000e+00 1.4121093e-04 0.0000000e+00 
0.0000000e+00 9.1017399e-05 0.0000000e+00 
0.0000000e+00 4.3715747e-05 0.0000000e+00 
0.0000000e+00 1.2583069e-05 0.0000000e+00 
0.0000000e+00 3.9120464e-06 0.0000000e+00 
0.0000000e+00 6.7999022e-06 0.0000000e+00 
0.0000000e+00 6.6409234e-06 0.0000000e+00 
0.0000000e+00 1.6172794e-06 0.0000000e+00 
0.0000000e+00 -1.4786694e-06 0.0000000e+00 
0.0000000e+00 2.9872883e-08 0.0000000e+00 
0.0000000e+00 1.6069583e-06 0.0000000e+00 
0.0000000e+00 -7.7050544e-07 0.0000000e+00 
0.0000000e+00 -5.5978435e-06 0.0000000e+00 
0.0000000e+00 -8.2134784e-06 0.0000000e+00 
0.0000000e+00 -6.5062713e-06 0.0000000e+00 
0.0000000e+00 -2.9478122e-06 0.0000000e+00 
0.0000000e+00 -7.4671755e-07 0.0000000e+00 
0.0000000e+00 -1.4609461e-07 0.0000000e+00 
0.0000000e+00 6.9467137e-07 0.0000000e+00 
0.0000000e+00 2.4946376e-06 0.0000000e+00 
0.0000000e+00 3.8568687e-06 0.0000000e+00 
0.0000000e+00 3.3062331e-06 0.0000000e+00 
0.0000000e+00 1.0395818e-06 0.0000000e+00 
0.0000000e+00 -1.1969387e-06 0.0000000e+00 
0.0000000e+00 -1.9450758e-06 0.0000000e+00 
0.0000000e+00 -1.3324652e-06 0.0000000e+00 
0.0000000e+00 -4.6793664e-07 0.0000000e+00 
0.0000000e+00 -2.3305377e-08 0.0000000e+00 
0.0000000e+00 1.9678778e-07 0.0000000e+00 
0.0000000e+00 4.8055676e-07 0.0000000e+00 
0.0000000e+00 5.5730288e-07 0.0000000e+00 
0.0000000e+00 -5.9591896e-09 0.0000000e+00 
0.0000000e+00 -9.8625321e-07 0.0000000e+00 
0.0000000e+00 -1.4767957e-06 0.0000000e+00 
0.0000000e+00 -8.1357609e-07 0.0000000e+00 
0.0000000e+00 6.2660570e-07 0.0000000e+00 
0.0000000e+00 1.7181300e-06 0.0000000e+00 
0.0000000e+00 1.6534989e-06 0.0000000e+00 
0.0000000e+00 6.2318043e-07 0.0000000e+00 
0.0000000e+00 -5.2370677e-07 0.0000000e+00 
0.0000000e+00 -1.1150322e-06 0.0000000e+00 
0.0000000e+00 -1.0704169e-06 0.0000000e+00 
0.0000000e+00 -6.5429623e-07 0.0000000e+00 
0.0000000e+00 -9.1324779e-08 0.0000000e+00 
0.0000000e+00 4.8068227e-07 0.0000000e+00 
0.0000000e+00 8.5194347e-07 0.0000000e+00 
0.0000000e+00 7.7662759e-07 0.0000000e+00 
0.0000000e+00 2.3964972e-07 0.0000000e+00 
0.0000000e+00 -4.1549433e-07 0.0000000e+00 
0.0000000e+00 -7.3558425e-07 0.0000000e+00 
0.0000000e+00 -5.4745675e-07 0.0000000e+00 
0.0000000e+00 -7.3268325e-08 0.0000000e+00 
0.0000000e+00 3.1997692e-07 0.0000000e+00 
0.0000000e+00 4.3451922e-07 0.0000000e+00 
0.0000000e+00 3.1747359e-07 0.0000000e+00 
0.0000000e+00 1.1463830e-07 0.0000000e+00 
0.0000000e+00 -7.2380693e-08 0.0000000e+00 
0.0000000e+00 -2.0178695e-07 0.0000000e+00 
0.0000000e+00 -2.4931416e-07 0.0000000e+00 
0.0000000e+00 0.0000000e+00 0.0000000e+00 
0.0000000e+00 0.0000000e+00 0.0000000e+00 
0.0000000e+00 0.0000000e+00 0.0000000e+00 
0.0000000e+00 0.0000000e+00 0.0000000e+00 
0.0000000e+00 0.0000000e+00 0.0000000e+00 
0.0000000e+00 0.0000000e+00 0.0000000e+00 
0.0000000e+00 0.0000000e+00 0.0000000e+00 
0.0000000e+00 0.0000000e+00 0.0000000e+00 
0.0000000e+00 0.0000000e+00 0.0000000e+00 
0.0000000e+00 0.0000000e+00 0.0000000e+00 
0.0000000e+00 0.0000000e+00 0.0000000e+00 
0.0000000e+00 0.0000000e+00 0.0000000e+00 
0.0000000e+00 0.0000000e+00 0.0000000e+00 
0.0000000e+00 0.0000000e+00 0.0000000e+00 
0.0000000e+00 0.0000000e+00 0.0000000e+00 
0.0000000e+00 0.0000000e+00 0.0000000e+00 
0.0000000e+00 0.0000000e+00 0.0000000e+00 
0.0000000e+00 0.0000000e+00 0.0000000e+00 
0.0000000e+00 0.0000000e+00 0.0000000e+00 
0.0000000e+00 0.0000000e+00 0.0000000e+00 
0.0000000e+00 0.0000000e+00 0.0000000e+00 
0.0000000e+00 0.0000000e+00 0.0000000e+00 
0.0000000e+00 0.0000000e+00 0.0000000e+00 
0.0000000e+00 0.0000000e+00 0.0000000e+00 
0.0000000e+00 0.0000000e+00 0.0000000e+00 
0.0000000e+00 0.0000000e+00 0.0000000e+00 
0.0000000e+00 0.0000000e+00 0.0000000e+00 
0.0000000e+00 0.0000000e+00 0.0000000e+00 
0.0000000e+00 0.0000000e+00 0.0000000e+00 
0.0000000e+00 0.0000000e+00 0.0000000e+00 
0.0000000e+00 0.0000000e+00 0.0000000e+00 
0.0000000e+00 0.0000000e+00 0.0000000e+00 
0.0000000e+00 0.0000000e+00 0.0000000e+00 
0.0000000e+00 0.0000000e+00 0.0000000e+00 
0.0000000e+00 0.0000000e+00 0.0000000e+00 
0.0000000e+00 0.0000000e+00 0.0000000e+00 
0.0000000e+00 0.0000000e+00 0.0000000e+00 
0.0000000e+00 0.0000000e+00 0.0000000e+00 
0.0000000e+00 0.0000000e+00 0.0000000e+00 
0.0000000e+00 0.0000000e+00 0.0000000e+00 
0.0000000e+00 0.0000000e+00 0.0000000e+00 
0.0000000e+00 0.0000000e+00 0.0000000e+00 
0.0000000e+00 0.0000000e+00 0.0000000e+00 
0.0000000e+00 0.0000000e+00 0.0000000e+00 
0.0000000e+00 0.0000000e+00 0.0000000e+00 
0.0000000e+00 0.0000000e+00 0.0000000e+00 
0.0000000e+00 0.0000000e+00 0.0000000e+00 
0.0000000e+00 0.0000000e+00 0.0000000e+00 
0.0000000e+00 0.0000000e+00 0.0000000e+00 
0.0000000e+00 0.0000000e+00 0.0000000e+00 
0.0000000e+00 0.0000000e+00 0.0000000e+00 
0.0000000e+00 0.0000000e+00 0.0000000e+00 
0.0000000e+00 0.0000000e+00 0.0000000e+00 
0.0000000e+00 0.0000000e+00 0.0000000e+00 
0.0000000e+00 0.0000000e+00 0.0000000e+00 
0.0000000e+00 0.0000000e+00 0.0000000e+00 
0.0000000e+00 0.0000000e+00 0.0000000e+00 
0.0000000e+00 0.0000000e+00 0.0000000e+00 