# vtk DataFile Version 4.0
vtk output
ASCII
DATASET UNSTRUCTURED_GRID
POINTS 2186 float
0.0000000e+00 0.0000000e+00 0.0000000e+00 
0.0000000e+00 0.0000000e+00 5.0000000e+01 
5.0000000e+00 0.0000000e+00 0.0000000e+00 
5.0000000e+00 0.0000000e+00 5.0000000e+01 
5.0000000e+00 1.0000000e+00 0.0000000e+00 
5.0000000e+00 1.0000000e+00 5.0000000e+01 
0.0000000e+00 1.0000000e+00 0.0000000e+00 
0.0000000e+00 1.0000000e+00 5.0000000e+01 
5.0000000e+00 2.0000000e+00 0.0000000e+00 
5.0000000e+00 2.0000000e+00 5.0000000e+01 
3.0000000e+00 2.0000000e+00 0.0000000e+00 
3.0000000e+00 2.0000000e+00 5.0000000e+01 
0.0000000e+00 2.0000000e+00 0.0000000e+00 
0.0000000e+00 2.0000000e+00 5.0000000e+01 
1.5000000e+00 3.0000000e+00 0.0000000e+00 
1.5000000e+00 3.0000000e+00 5.0000000e+01 
7.5000000e-01 3.0000000e+00 0.0000000e+00 
7.5000000e-01 3.0000000e+00 5.0000000e+01 
0.0000000e+00 3.0000000e+00 0.0000000e+00 
0.0000000e+00 3.0000000e+00 5.0000000e+01 
7.5000000e-01 3.0000000e+00 -2.5000000e+01 
7.5000000e-01 3.0000000e+00 -2.4500000e+01 
7.5000000e-01 3.0000000e+00 -2.4000000e+01 
7.5000000e-01 3.0000000e+00 -2.3500000e+01 
7.5000000e-01 3.0000000e+00 -2.3000000e+01 
7.5000000e-01 3.0000000e+00 -2.2500000e+01 
7.5000000e-01 3.0000000e+00 -2.2000000e+01 
7.5000000e-01 3.0000000e+00 -2.1500000e+01 
7.5000000e-01 3.0000000e+00 -2.1000000e+01 
7.5000000e-01 3.0000000e+00 -2.0500000e+01 
7.5000000e-01 3.0000000e+00 -2.0000000e+01 
7.5000000e-01 3.0000000e+00 -1.9500000e+01 
7.5000000e-01 3.0000000e+00 -1.9000000e+01 
7.5000000e-01 3.0000000e+00 -1.8500000e+01 
7.5000000e-01 3.0000000e+00 -1.8000000e+01 
7.5000000e-01 3.0000000e+00 -1.7500000e+01 
7.5000000e-01 3.0000000e+00 -1.7000000e+01 
7.5000000e-01 3.0000000e+00 -1.6500000e+01 
7.5000000e-01 3.0000000e+00 -1.6000000e+01 
7.5000000e-01 3.0000000e+00 -1.5500000e+01 
7.5000000e-01 3.0000000e+00 -1.5000000e+01 
7.5000000e-01 3.0000000e+00 -1.4500000e+01 
7.5000000e-01 3.0000000e+00 -1.4000000e+01 
7.5000000e-01 3.0000000e+00 -1.3500000e+01 
7.5000000e-01 3.0000000e+00 -1.3000000e+01 
7.5000000e-01 3.0000000e+00 -1.2500000e+01 
7.5000000e-01 3.0000000e+00 -1.2000000e+01 
7.5000000e-01 3.0000000e+00 -1.1500000e+01 
7.5000000e-01 3.0000000e+00 -1.1000000e+01 
7.5000000e-01 3.0000000e+00 -1.0500000e+01 
7.5000000e-01 3.0000000e+00 -1.0000000e+01 
7.5000000e-01 3.0000000e+00 -9.5000000e+00 
7.5000000e-01 3.0000000e+00 -9.0000000e+00 
7.5000000e-01 3.0000000e+00 -8.5000000e+00 
7.5000000e-01 3.0000000e+00 -8.0000000e+00 
7.5000000e-01 3.0000000e+00 -7.5000000e+00 
7.5000000e-01 3.0000000e+00 -7.0000000e+00 
7.5000000e-01 3.0000000e+00 -6.5000000e+00 
7.5000000e-01 3.0000000e+00 -6.0000000e+00 
7.5000000e-01 3.0000000e+00 -5.5000000e+00 
7.5000000e-01 3.0000000e+00 -5.0000000e+00 
7.5000000e-01 3.0000000e+00 -4.5000000e+00 
7.5000000e-01 3.0000000e+00 -4.0000000e+00 
7.5000000e-01 3.0000000e+00 -3.5000000e+00 
7.5000000e-01 3.0000000e+00 -3.0000000e+00 
7.5000000e-01 3.0000000e+00 -2.5000000e+00 
7.5000000e-01 3.0000000e+00 -2.0000000e+00 
7.5000000e-01 3.0000000e+00 -1.5000000e+00 
7.5000000e-01 3.0000000e+00 -1.0000000e+00 
7.5000000e-01 3.0000000e+00 -5.0000000e-01 
7.5000000e-01 3.0000000e+00 5.0000000e-01 
7.5000000e-01 3.0000000e+00 1.0000000e+00 
7.5000000e-01 3.0000000e+00 1.5000000e+00 
7.5000000e-01 3.0000000e+00 2.0000000e+00 
7.5000000e-01 3.0000000e+00 2.5000000e+00 
7.5000000e-01 3.0000000e+00 3.0000000e+00 
7.5000000e-01 3.0000000e+00 3.5000000e+00 
7.5000000e-01 3.0000000e+00 4.0000000e+00 
7.5000000e-01 3.0000000e+00 4.5000000e+00 
7.5000000e-01 3.0000000e+00 5.0000000e+00 
7.5000000e-01 3.0000000e+00 5.5000000e+00 
7.5000000e-01 3.0000000e+00 6.0000000e+00 
7.5000000e-01 3.0000000e+00 6.5000000e+00 
7.5000000e-01 3.0000000e+00 7.0000000e+00 
7.5000000e-01 3.0000000e+00 7.5000000e+00 
7.5000000e-01 3.0000000e+00 8.0000000e+00 
7.5000000e-01 3.0000000e+00 8.5000000e+00 
7.5000000e-01 3.0000000e+00 9.0000000e+00 
7.5000000e-01 3.0000000e+00 9.5000000e+00 
7.5000000e-01 3.0000000e+00 1.0000000e+01 
7.5000000e-01 3.0000000e+00 1.0500000e+01 
7.5000000e-01 3.0000000e+00 1.1000000e+01 
7.5000000e-01 3.0000000e+00 1.1500000e+01 
7.5000000e-01 3.0000000e+00 1.2000000e+01 
7.5000000e-01 3.0000000e+00 1.2500000e+01 
7.5000000e-01 3.0000000e+00 1.3000000e+01 
7.5000000e-01 3.0000000e+00 1.3500000e+01 
7.5000000e-01 3.0000000e+00 1.4000000e+01 
7.5000000e-01 3.0000000e+00 1.4500000e+01 
7.5000000e-01 3.0000000e+00 1.5000000e+01 
7.5000000e-01 3.0000000e+00 1.5500000e+01 
7.5000000e-01 3.0000000e+00 1.6000000e+01 
7.5000000e-01 3.0000000e+00 1.6500000e+01 
7.5000000e-01 3.0000000e+00 1.7000000e+01 
7.5000000e-01 3.0000000e+00 1.7500000e+01 
7.5000000e-01 3.0000000e+00 1.8000000e+01 
7.5000000e-01 3.0000000e+00 1.8500000e+01 
7.5000000e-01 3.0000000e+00 1.9000000e+01 
7.5000000e-01 3.0000000e+00 1.9500000e+01 
7.5000000e-01 3.0000000e+00 2.0000000e+01 
7.5000000e-01 3.0000000e+00 2.0500000e+01 
7.5000000e-01 3.0000000e+00 2.1000000e+01 
7.5000000e-01 3.0000000e+00 2.1500000e+01 
7.5000000e-01 3.0000000e+00 2.2000000e+01 
7.5000000e-01 3.0000000e+00 2.2500000e+01 
7.5000000e-01 3.0000000e+00 2.3000000e+01 
7.5000000e-01 3.0000000e+00 2.3500000e+01 
7.5000000e-01 3.0000000e+00 2.4000000e+01 
7.5000000e-01 3.0000000e+00 2.4500000e+01 
7.5000000e-01 3.0000000e+00 2.5000000e+01 
7.5000000e-01 3.0000000e+00 2.5500000e+01 
7.5000000e-01 3.0000000e+00 2.6000000e+01 
7.5000000e-01 3.0000000e+00 2.6500000e+01 
7.5000000e-01 3.0000000e+00 2.7000000e+01 
7.5000000e-01 3.0000000e+00 2.7500000e+01 
7.5000000e-01 3.0000000e+00 2.8000000e+01 
7.5000000e-01 3.0000000e+00 2.8500000e+01 
7.5000000e-01 3.0000000e+00 2.9000000e+01 
7.5000000e-01 3.0000000e+00 2.9500000e+01 
7.5000000e-01 3.0000000e+00 3.0000000e+01 
7.5000000e-01 3.0000000e+00 3.0500000e+01 
7.5000000e-01 3.0000000e+00 3.1000000e+01 
7.5000000e-01 3.0000000e+00 3.1500000e+01 
7.5000000e-01 3.0000000e+00 3.2000000e+01 
7.5000000e-01 3.0000000e+00 3.2500000e+01 
7.5000000e-01 3.0000000e+00 3.3000000e+01 
7.5000000e-01 3.0000000e+00 3.3500000e+01 
7.5000000e-01 3.0000000e+00 3.4000000e+01 
7.5000000e-01 3.0000000e+00 3.4500000e+01 
7.5000000e-01 3.0000000e+00 3.5000000e+01 
7.5000000e-01 3.0000000e+00 3.5500000e+01 
7.5000000e-01 3.0000000e+00 3.6000000e+01 
7.5000000e-01 3.0000000e+00 3.6500000e+01 
7.5000000e-01 3.0000000e+00 3.7000000e+01 
7.5000000e-01 3.0000000e+00 3.7500000e+01 
7.5000000e-01 3.0000000e+00 3.8000000e+01 
7.5000000e-01 3.0000000e+00 3.8500000e+01 
7.5000000e-01 3.0000000e+00 3.9000000e+01 
7.5000000e-01 3.0000000e+00 3.9500000e+01 
7.5000000e-01 3.0000000e+00 4.0000000e+01 
7.5000000e-01 3.0000000e+00 4.0500000e+01 
7.5000000e-01 3.0000000e+00 4.1000000e+01 
7.5000000e-01 3.0000000e+00 4.1500000e+01 
7.5000000e-01 3.0000000e+00 4.2000000e+01 
7.5000000e-01 3.0000000e+00 4.2500000e+01 
7.5000000e-01 3.0000000e+00 4.3000000e+01 
7.5000000e-01 3.0000000e+00 4.3500000e+01 
7.5000000e-01 3.0000000e+00 4.4000000e+01 
7.5000000e-01 3.0000000e+00 4.4500000e+01 
7.5000000e-01 3.0000000e+00 4.5000000e+01 
7.5000000e-01 3.0000000e+00 4.5500000e+01 
7.5000000e-01 3.0000000e+00 4.6000000e+01 
7.5000000e-01 3.0000000e+00 4.6500000e+01 
7.5000000e-01 3.0000000e+00 4.7000000e+01 
7.5000000e-01 3.0000000e+00 4.7500000e+01 
7.5000000e-01 3.0000000e+00 4.8000000e+01 
7.5000000e-01 3.0000000e+00 4.8500000e+01 
7.5000000e-01 3.0000000e+00 4.9000000e+01 
7.5000000e-01 3.0000000e+00 4.9500000e+01 
7.5000000e-01 3.0000000e+00 5.0500000e+01 
7.5000000e-01 3.0000000e+00 5.1000000e+01 
7.5000000e-01 3.0000000e+00 5.1500000e+01 
7.5000000e-01 3.0000000e+00 5.2000000e+01 
7.5000000e-01 3.0000000e+00 5.2500000e+01 
7.5000000e-01 3.0000000e+00 5.3000000e+01 
7.5000000e-01 3.0000000e+00 5.3500000e+01 
7.5000000e-01 3.0000000e+00 5.4000000e+01 
7.5000000e-01 3.0000000e+00 5.4500000e+01 
7.5000000e-01 3.0000000e+00 5.5000000e+01 
7.5000000e-01 3.0000000e+00 5.5500000e+01 
7.5000000e-01 3.0000000e+00 5.6000000e+01 
7.5000000e-01 3.0000000e+00 5.6500000e+01 
7.5000000e-01 3.0000000e+00 5.7000000e+01 
7.5000000e-01 3.0000000e+00 5.7500000e+01 
7.5000000e-01 3.0000000e+00 5.8000000e+01 
7.5000000e-01 3.0000000e+00 5.8500000e+01 
7.5000000e-01 3.0000000e+00 5.9000000e+01 
7.5000000e-01 3.0000000e+00 5.9500000e+01 
7.5000000e-01 3.0000000e+00 6.0000000e+01 
7.5000000e-01 3.0000000e+00 6.0500000e+01 
7.5000000e-01 3.0000000e+00 6.1000000e+01 
7.5000000e-01 3.0000000e+00 6.1500000e+01 
7.5000000e-01 3.0000000e+00 6.2000000e+01 
7.5000000e-01 3.0000000e+00 6.2500000e+01 
7.5000000e-01 3.0000000e+00 6.3000000e+01 
7.5000000e-01 3.0000000e+00 6.3500000e+01 
7.5000000e-01 3.0000000e+00 6.4000000e+01 
7.5000000e-01 3.0000000e+00 6.4500000e+01 
7.5000000e-01 3.0000000e+00 6.5000000e+01 
7.5000000e-01 3.0000000e+00 6.5500000e+01 
7.5000000e-01 3.0000000e+00 6.6000000e+01 
7.5000000e-01 3.0000000e+00 6.6500000e+01 
7.5000000e-01 3.0000000e+00 6.7000000e+01 
7.5000000e-01 3.0000000e+00 6.7500000e+01 
7.5000000e-01 3.0000000e+00 6.8000000e+01 
7.5000000e-01 3.0000000e+00 6.8500000e+01 
7.5000000e-01 3.0000000e+00 6.9000000e+01 
7.5000000e-01 3.0000000e+00 6.9500000e+01 
7.5000000e-01 3.0250001e+00 -2.5000000e+01 
7.5000000e-01 3.0250001e+00 -2.4500000e+01 
7.5000000e-01 3.0250001e+00 -2.4000000e+01 
7.5000000e-01 3.0250001e+00 -2.3500000e+01 
7.5000000e-01 3.0250001e+00 -2.3000000e+01 
7.5000000e-01 3.0250001e+00 -2.2500000e+01 
7.5000000e-01 3.0250001e+00 -2.2000000e+01 
7.5000000e-01 3.0250001e+00 -2.1500000e+01 
7.5000000e-01 3.0250001e+00 -2.1000000e+01 
7.5000000e-01 3.0250001e+00 -2.0500000e+01 
7.5000000e-01 3.0250001e+00 -2.0000000e+01 
7.5000000e-01 3.0250001e+00 -1.9500000e+01 
7.5000000e-01 3.0250001e+00 -1.9000000e+01 
7.5000000e-01 3.0250001e+00 -1.8500000e+01 
7.5000000e-01 3.0250001e+00 -1.8000000e+01 
7.5000000e-01 3.0250001e+00 -1.7500000e+01 
7.5000000e-01 3.0250001e+00 -1.7000000e+01 
7.5000000e-01 3.0250001e+00 -1.6500000e+01 
7.5000000e-01 3.0250001e+00 -1.6000000e+01 
7.5000000e-01 3.0250001e+00 -1.5500000e+01 
[...]
POINT_DATA 2186
FIELD FieldData 3
DISPLACEMENT 3 2186  float
0.0000000e+00 0.0000000e+00 0.0000000e+00 
0.0000000e+00 0.0000000e+00 0.0000000e+00 
0.0000000e+00 0.0000000e+00 0.0000000e+00 
0.0000000e+00 0.0000000e+00 0.0000000e+00 
-1.4715214e-06 1.9330146e-06 1.7114620e-06 
-4.2959306e-07 6.4922745e-07 -1.3957471e-07 
0.0000000e+00 -2.2529110e-07 0.0000000e+00 
0.0000000e+00 -8.6429185e-07 0.0000000e+00 
-5.1482306e-07 8.7893966e-07 3.4238021e-06 
-9.0860152e-07 3.1847739e-07 -3.2705810e-07 
4.9238761e-06 3.3145375e-06 2.3842697e-06 
-1.6251209e-09 -5.8046186e-07 -1.4614340e-06 
0.0000000e+00 7.8110961e-06 0.0000000e+00 
0.0000000e+00 -1.1453734e-06 0.0000000e+00 
2.6788327e-06 4.3686752e-05 -7.4247209e-06 
-8.8883155e-07 -1.2938298e-07 1.7145007e-07 
-6.5305940e-05 2.0432753e-06 -2.9333036e-05 
-1.0293410e-07 1.9583798e-07 4.2831630e-08 
0.0000000e+00 -6.6443799e-06 0.0000000e+00 
0.0000000e+00 -3.4303670e-07 0.0000000e+00 
0.0000000e+00 1.0255822e-05 0.0000000e+00 
0.0000000e+00 4.8371035e-06 0.0000000e+00 
0.0000000e+00 -5.7281140e-06 0.0000000e+00 
0.0000000e+00 -1.1516314e-05 0.0000000e+00 
0.0000000e+00 -7.0697065e-06 0.0000000e+00 
0.0000000e+00 4.1786225e-06 0.0000000e+00 
0.0000000e+00 1.2638409e-05 0.0000000e+00 
0.0000000e+00 1.0415137e-05 0.0000000e+00 
0.0000000e+00 -2.0093969e-06 0.0000000e+00 
0.0000000e+00 -1.5681986e-05 0.0000000e+00 
0.0000000e+00 -1.9852429e-05 0.0000000e+00 
0.0000000e+00 -1.0229978e-05 0.0000000e+00 
0.0000000e+00 7.5897128e-06 0.0000000e+00 
0.0000000e+00 2.2094084e-05 0.0000000e+00 
0.0000000e+00 2.4054345e-05 0.0000000e+00 
0.0000000e+00 1.2747627e-05 0.0000000e+00 
0.0000000e+00 -4.1834346e-06 0.0000000e+00 
0.0000000e+00 -1.6656897e-05 0.0000000e+00 
0.0000000e+00 -1.9103614e-05 0.0000000e+00 
0.0000000e+00 -1.3295098e-05 0.0000000e+00 
0.0000000e+00 -5.4032139e-06 0.0000000e+00 
0.0000000e+00 -2.7417892e-07 0.0000000e+00 
0.0000000e+00 2.0655693e-06 0.0000000e+00 
0.0000000e+00 4.9304099e-06 0.0000000e+00 
0.0000000e+00 1.0376191e-05 0.0000000e+00 
0.0000000e+00 1.6091721e-05 0.0000000e+00 
0.0000000e+00 1.6864340e-05 0.0000000e+00 
0.0000000e+00 9.4170136e-06 0.0000000e+00 
0.0000000e+00 -3.7539808e-06 0.0000000e+00 
0.0000000e+00 -1.5270116e-05 0.0000000e+00 
0.0000000e+00 -1.8268191e-05 0.0000000e+00 
0.0000000e+00 -1.1981900e-05 0.0000000e+00 
0.0000000e+00 -2.5362501e-06 0.0000000e+00 
0.0000000e+00 2.1271783e-06 0.0000000e+00 
0.0000000e+00 -1.0279933e-06 0.0000000e+00 
0.0000000e+00 -7.6442275e-06 0.0000000e+00 
0.0000000e+00 -9.8099263e-06 0.0000000e+00 
0.0000000e+00 -2.8003940e-06 0.0000000e+00 
0.0000000e+00 1.0826481e-05 0.0000000e+00 
0.0000000e+00 2.2821623e-05 0.0000000e+00 
0.0000000e+00 2.5238172e-05 0.0000000e+00 
0.0000000e+00 1.6460521e-05 0.0000000e+00 
0.0000000e+00 2.6493901e-06 0.0000000e+00 
0.0000000e+00 -6.8831187e-06 0.0000000e+00 
0.0000000e+00 -6.8410482e-06 0.0000000e+00 
0.0000000e+00 4.1247807e-07 0.0000000e+00 
0.0000000e+00 7.6797915e-06 0.0000000e+00 
0.0000000e+00 9.2522041e-06 0.0000000e+00 
0.0000000e+00 5.2382998e-06 0.0000000e+00 
0.0000000e+00 9.0352711e-07 0.0000000e+00 
-9.3935660e-07 8.1097905e-06 -4.7462425e-05 
3.0146628e-05 1.5162641e-05 -5.8548150e-05 
5.0602845e-05 1.6577489e-05 -6.7457913e-05 
4.6650734e-05 9.1399934e-06 -6.2703148e-05 
5.1318842e-05 1.3874960e-07 -5.3340595e-05 
5.1628413e-05 -2.6826954e-06 -4.8113889e-05 
7.1458300e-05 2.3202249e-06 -3.0117013e-05 
6.3490959e-05 1.5057793e-05 -3.1491560e-05 
8.5581982e-05 2.4917048e-05 -3.6264108e-05 
6.0785413e-05 1.9778605e-05 -2.7050595e-05 
9.1559610e-05 3.2333264e-06 -2.1424175e-05 
5.4044631e-05 -3.7362238e-07 -6.7023220e-06 
8.9812747e-05 2.5435229e-05 1.3308070e-05 
6.9727997e-05 7.6659577e-05 1.9453137e-05 
9.8723664e-05 1.1539081e-04 3.6351947e-05 
6.4497028e-05 8.9880341e-05 5.8513349e-05 
7.2543698e-05 -1.2059393e-05 8.1775484e-05 
4.4472385e-05 -1.7343917e-04 1.2620461e-04 
4.4568751e-05 -4.2110108e-04 2.0430794e-04 
-1.3882674e-05 -8.4974809e-04 1.7186560e-04 
-6.1304585e-05 -1.6191389e-03 3.0412633e-04 
-1.5642314e-04 -2.8262492e-03 1.7033351e-04 
-2.1956896e-04 -4.3014130e-03 2.3998102e-04 
-3.2835972e-04 -5.3186491e-03 5.6855344e-05 
-4.0352612e-04 -5.2103261e-03 9.9299468e-06 
-6.0389558e-04 -4.6361648e-03 -2.6966985e-05 
-2.9095376e-04 -4.3504625e-03 4.2146472e-05 
-2.1522908e-04 -4.5643630e-03 -4.0566858e-05 
-2.6166672e-04 -4.7043287e-03 -1.5431973e-04 
-2.4046197e-04 -3.8568426e-03 -2.0152995e-04 
-1.6968044e-04 -2.5126934e-03 -3.3927665e-04 
-1.2483067e-04 -1.2605456e-03 -1.9457197e-04 
-4.3018736e-05 -3.8645414e-04 -1.9331073e-04 
-1.8814591e-05 7.9367303e-05 -1.2978951e-04 
-1.6420337e-06 2.3204250e-04 -6.3059473e-05 
7.3620699e-06 2.1650827e-04 -5.8505331e-05 
1.2292046e-05 1.5605742e-04 -3.2419524e-05 
3.1036936e-05 1.0298746e-04 -2.2490123e-05 
3.3200071e-05 5.9786453e-05 1.1541400e-05 
2.1298829e-05 1.9852436e-05 2.1410222e-05 
1.9887564e-05 -9.9873441e-06 2.7866259e-05 
2.2810324e-05 -1.8930758e-05 1.3013169e-05 
2.2104312e-05 -8.9210444e-06 -1.5634516e-05 
3.2410673e-05 3.9871811e-06 -4.7147496e-05 
6.1047314e-05 6.1068231e-06 -5.3260119e-05 
4.9396571e-05 -3.0220453e-06 -4.4518532e-05 
8.2058243e-05 -1.1613064e-05 -3.4430261e-05 
6.1337538e-05 -3.1685686e-06 -1.3667500e-05 
8.8783549e-05 2.0539763e-05 -1.4254465e-05 
7.0099581e-05 4.0712861e-05 -1.6420307e-05 
9.7896795e-05 4.1562464e-05 -1.8255962e-05 
6.6912646e-05 2.4761106e-05 -6.9033658e-06 
8.5448926e-05 1.3957163e-05 2.6341465e-06 
6.5292072e-05 4.3646873e-05 2.2750923e-05 
8.4413434e-05 1.0319184e-04 4.6549791e-05 
6.2571038e-05 1.2902367e-04 5.6631005e-05 
9.0712703e-05 4.8742699e-05 9.4461968e-05 
5.8144204e-05 -1.8006646e-04 1.4589468e-04 
4.9374903e-05 -5.6577794e-04 2.2129923e-04 
-2.0441406e-05 -1.1148513e-03 1.8664644e-04 
-7.6699187e-05 -1.9170638e-03 3.3008194e-04 
-1.6873507e-04 -3.0497923e-03 1.9066123e-04 
-2.4641061e-04 -4.4123749e-03 2.7376472e-04 
-3.3485628e-04 -5.3418535e-03 1.2294299e-04 
-3.7282234e-04 -5.1276530e-03 1.2541364e-05 
-3.4604751e-04 -4.5128423e-03 9.1232587e-06 
-3.4616914e-04 -4.3070382e-03 -4.8320253e-05 
-3.6323271e-04 -4.5618112e-03 -1.6579851e-04 
-3.6003999e-04 -4.6889177e-03 -2.9055853e-04 
-2.6321475e-04 -3.7065714e-03 -2.6275418e-04 
-1.6760915e-04 -2.2906722e-03 -3.9962822e-04 
-1.0684586e-04 -1.0647346e-03 -2.6064264e-04 
-8.8829065e-06 -2.8319377e-04 -2.6381377e-04 
9.9198969e-06 9.1425238e-05 -1.4548538e-04 
4.0414223e-05 2.0756664e-04 -9.5587391e-05 
4.6133180e-05 2.0032856e-04 -6.0148333e-05 
4.7147852e-05 1.4759866e-04 -1.0456752e-05 
4.2031810e-05 8.1677907e-05 8.8432407e-06 
4.2149510e-05 2.1961307e-05 5.6838093e-05 
1.7001319e-05 -1.3298301e-05 7.8503894e-05 
-5.4887892e-06 -1.9152085e-05 7.9071971e-05 
-5.5188038e-06 -1.0981995e-05 6.2402170e-05 
-2.0206739e-05 -6.5945392e-06 2.9768302e-05 
-1.6907177e-05 -7.8194644e-06 5.5852597e-06 
-1.1158153e-05 -5.4184829e-06 -6.8674644e-06 
-1.0212004e-05 2.3754251e-06 -7.4427630e-06 
-4.4502226e-06 9.5029072e-06 -6.4003325e-06 
-5.5069863e-06 1.0656158e-05 -2.9928772e-06 
-2.5288109e-06 6.6718599e-06 -5.2189685e-06 
3.6504809e-07 2.5950324e-06 -6.5441282e-06 
1.7036554e-06 1.3315006e-06 -7.2332018e-06 
3.1964050e-06 1.1195815e-06 -7.3317274e-06 
3.3301440e-06 -6.6605890e-07 -3.4444606e-06 
2.5724585e-06 -3.0114602e-06 -2.0029149e-06 
2.6750674e-06 -3.6467816e-06 7.0206920e-07 
1.7765846e-06 -2.1196645e-06 2.5472978e-06 
-2.9927847e-07 -1.5807449e-07 1.8315230e-06 
-1.0833224e-06 5.3899998e-07 7.7175110e-07 
-1.1315524e-06 2.5963610e-07 1.4976007e-07 
0.0000000e+00 7.3457369e-07 0.0000000e+00 
0.0000000e+00 1.3065459e-06 0.0000000e+00 
0.0000000e+00 1.2371233e-06 0.0000000e+00 
0.0000000e+00 7.1969981e-07 0.0000000e+00 
0.0000000e+00 5.0649146e-07 0.0000000e+00 
0.0000000e+00 8.8604588e-07 0.0000000e+00 
0.0000000e+00 1.2936769e-06 0.0000000e+00 
0.0000000e+00 9.9504155e-07 0.0000000e+00 
0.0000000e+00 -4.6363283e-08 0.0000000e+00 
0.0000000e+00 -1.1285241e-06 0.0000000e+00 
0.0000000e+00 -1.5442240e-06 0.0000000e+00 
0.0000000e+00 -1.1855942e-06 0.0000000e+00 
0.0000000e+00 -4.3024590e-07 0.0000000e+00 
0.0000000e+00 3.5377272e-07 0.0000000e+00 
0.0000000e+00 1.0049210e-06 0.0000000e+00 
0.0000000e+00 1.3528715e-06 0.0000000e+00 
0.0000000e+00 1.0960284e-06 0.0000000e+00 
0.0000000e+00 1.1153363e-07 0.0000000e+00 
0.0000000e+00 -1.1544170e-06 0.0000000e+00 
0.0000000e+00 -1.8232304e-06 0.0000000e+00 
0.0000000e+00 -1.2883423e-06 0.0000000e+00 
0.0000000e+00 1.7830240e-07 0.0000000e+00 
0.0000000e+00 1.5631615e-06 0.0000000e+00 
0.0000000e+00 1.9010959e-06 0.0000000e+00 
0.0000000e+00 1.0021912e-06 0.0000000e+00 
0.0000000e+00 -4.8061776e-07 0.0000000e+00 
0.0000000e+00 -1.5927266e-06 0.0000000e+00 
0.0000000e+00 -1.7111244e-06 0.0000000e+00 
0.0000000e+00 -8.3791753e-07 0.0000000e+00 
0.0000000e+00 4.9709581e-07 0.0000000e+00 
0.0000000e+00 1.5433568e-06 0.0000000e+00 
0.0000000e+00 1.6916143e-06 0.0000000e+00 
0.0000000e+00 8.0213186e-07 0.0000000e+00 
0.0000000e+00 -6.4298132e-07 0.0000000e+00 
0.0000000e+00 -1.7429451e-06 0.0000000e+00 
0.0000000e+00 -1.7350260e-06 0.0000000e+00 
0.0000000e+00 -5.7272234e-07 0.0000000e+00 
0.0000000e+00 9.4322758e-07 0.0000000e+00 
0.0000000e+00 1.6581037e-06 0.0000000e+00 
0.0000000e+00 1.0124696e-05 0.0000000e+00 
0.0000000e+00 4.7839258e-06 0.0000000e+00 
0.0000000e+00 -5.6300346e-06 0.0000000e+00 
0.0000000e+00 -1.1336941e-05 0.0000000e+00 
0.0000000e+00 -6.9577354e-06 0.0000000e+00 
0.0000000e+00 4.1214357e-06 0.0000000e+00 
0.0000000e+00 1.2443779e-05 0.0000000e+00 
0.0000000e+00 1.0227748e-05 0.0000000e+00 
0.0000000e+00 -2.0430382e-06 0.0000000e+00 
0.0000000e+00 -1.5528563e-05 0.0000000e+00 
0.0000000e+00 -1.9619722e-05 0.0000000e+00 
0.0000000e+00 -1.0084666e-05 0.0000000e+00 
0.0000000e+00 7.5484504e-06 0.0000000e+00 
0.0000000e+00 2.1904552e-05 0.0000000e+00 
0.0000000e+00 2.3855582e-05 0.0000000e+00 
0.0000000e+00 1.2672805e-05 0.0000000e+00 
0.0000000e+00 -4.0993427e-06 0.0000000e+00 
0.0000000e+00 -1.6492470e-05 0.0000000e+00 
0.0000000e+00 -1.8985327e-05 0.0000000e+00 
0.0000000e+00 -1.3300397e-05 0.0000000e+00 
0.0000000e+00 -5.5046062e-06 0.0000000e+00 
0.0000000e+00 -3.7003585e-07 0.0000000e+00 
0.0000000e+00 2.0581417e-06 0.0000000e+00 
0.0000000e+00 5.0039503e-06 0.0000000e+00 
0.0000000e+00 1.0447658e-05 0.0000000e+00 
0.0000000e+00 1.6085167e-05 0.0000000e+00 
0.0000000e+00 1.6781751e-05 0.0000000e+00 
0.0000000e+00 9.3365388e-06 0.0000000e+00 
0.0000000e+00 -3.7471332e-06 0.0000000e+00 
0.0000000e+00 -1.5163815e-05 0.0000000e+00 
0.0000000e+00 -1.8146869e-05 0.0000000e+00 
0.0000000e+00 -1.1960693e-05 0.0000000e+00 
0.0000000e+00 -2.6516977e-06 0.0000000e+00 
0.0000000e+00 1.9633360e-06 0.0000000e+00 
0.0000000e+00 -1.1032988e-06 0.0000000e+00 
0.0000000e+00 -7.5718376e-06 0.0000000e+00 
0.0000000e+00 -9.6552230e-06 0.0000000e+00 
0.0000000e+00 -2.6854202e-06 0.0000000e+00 
0.0000000e+00 1.0821269e-05 0.0000000e+00 
0.0000000e+00 2.2704771e-05 0.0000000e+00 
0.0000000e+00 2.5097315e-05 0.0000000e+00 
0.0000000e+00 1.6409880e-05 0.0000000e+00 
0.0000000e+00 2.7435633e-06 0.0000000e+00 
0.0000000e+00 -6.7103524e-06 0.0000000e+00 
0.0000000e+00 -6.7282999e-06 0.0000000e+00 
0.0000000e+00 3.8607922e-07 0.0000000e+00 
0.0000000e+00 7.5635862e-06 0.0000000e+00 
0.0000000e+00 9.1609545e-06 0.0000000e+00 
0.0000000e+00 5.2611663e-06 0.0000000e+00 
0.0000000e+00 1.0805419e-06 0.0000000e+00 
0.0000000e+00 1.9931356e-06 0.0000000e+00 
0.0000000e+00 8.1659082e-06 0.0000000e+00 
0.0000000e+00 1.5174591e-05 0.0000000e+00 
0.0000000e+00 1.6285943e-05 0.0000000e+00 
0.0000000e+00 9.0766334e-06 0.0000000e+00 
0.0000000e+00 1.9022313e-07 0.0000000e+00 
0.0000000e+00 -2.8000079e-06 0.0000000e+00 
0.0000000e+00 2.7137776e-06 0.0000000e+00 
0.0000000e+00 1.5220528e-05 0.0000000e+00 
0.0000000e+00 2.4511581e-05 0.0000000e+00 
0.0000000e+00 1.9043180e-05 0.0000000e+00 
0.0000000e+00 3.1120442e-06 0.0000000e+00 
0.0000000e+00 -1.3685479e-07 0.0000000e+00 
0.0000000e+00 2.6798421e-05 0.0000000e+00 
0.0000000e+00 7.7797165e-05 0.0000000e+00 
0.0000000e+00 1.1431472e-04 0.0000000e+00 
0.0000000e+00 8.8572873e-05 0.0000000e+00 
0.0000000e+00 -1.1233788e-05 0.0000000e+00 
0.0000000e+00 -1.7172984e-04 0.0000000e+00 
0.0000000e+00 -4.1828089e-04 0.0000000e+00 
0.0000000e+00 -8.5036422e-04 0.0000000e+00 
0.0000000e+00 -1.6274395e-03 0.0000000e+00 
0.0000000e+00 -2.8471781e-03 0.0000000e+00 
0.0000000e+00 -4.3196436e-03 0.0000000e+00 
0.0000000e+00 -5.3493795e-03 0.0000000e+00 
0.0000000e+00 -5.2349404e-03 0.0000000e+00 
0.0000000e+00 -4.6557747e-03 0.0000000e+00 
0.0000000e+00 -4.3789367e-03 0.0000000e+00 
0.0000000e+00 -4.5966925e-03 0.0000000e+00 
0.0000000e+00 -4.7290018e-03 0.0000000e+00 
0.0000000e+00 -3.8818191e-03 0.0000000e+00 
0.0000000e+00 -2.5257173e-03 0.0000000e+00 
0.0000000e+00 -1.2697744e-03 0.0000000e+00 
0.0000000e+00 -3.9057861e-04 0.0000000e+00 
0.0000000e+00 7.8415971e-05 0.0000000e+00 
0.0000000e+00 2.3352940e-04 0.0000000e+00 
0.0000000e+00 2.1920505e-04 0.0000000e+00 
0.0000000e+00 1.5753266e-04 0.0000000e+00 
0.0000000e+00 1.0306734e-04 0.0000000e+00 
0.0000000e+00 5.9435748e-05 0.0000000e+00 
0.0000000e+00 1.9950303e-05 0.0000000e+00 
0.0000000e+00 -9.6478543e-06 0.0000000e+00 
0.0000000e+00 -1.8741248e-05 0.0000000e+00 
0.0000000e+00 -9.0062622e-06 0.0000000e+00 
0.0000000e+00 3.8044077e-06 0.0000000e+00 
0.0000000e+00 5.7552397e-06 0.0000000e+00 
0.0000000e+00 -3.4572379e-06 0.0000000e+00 
0.0000000e+00 -1.1274552e-05 0.0000000e+00 
0.0000000e+00 -2.6879220e-06 0.0000000e+00 
0.0000000e+00 2.0691788e-05 0.0000000e+00 
0.0000000e+00 4.0504718e-05 0.0000000e+00 
0.0000000e+00 4.0685198e-05 0.0000000e+00 
0.0000000e+00 2.3738319e-05 0.0000000e+00 
0.0000000e+00 1.5048387e-05 0.0000000e+00 
0.0000000e+00 4.5638069e-05 0.0000000e+00 
0.0000000e+00 1.0439564e-04 0.0000000e+00 
0.0000000e+00 1.2865874e-04 0.0000000e+00 
0.0000000e+00 4.6960940e-05 0.0000000e+00 
0.0000000e+00 -1.8129687e-04 0.0000000e+00 
0.0000000e+00 -5.6314847e-04 0.0000000e+00 
0.0000000e+00 -1.1147471e-03 0.0000000e+00 
0.0000000e+00 -1.9219371e-03 0.0000000e+00 
0.0000000e+00 -3.0691344e-03 0.0000000e+00 
0.0000000e+00 -4.4355718e-03 0.0000000e+00 
0.0000000e+00 -5.3762612e-03 0.0000000e+00 
0.0000000e+00 -5.1471419e-03 0.0000000e+00 
0.0000000e+00 -4.5401012e-03 0.0000000e+00 
0.0000000e+00 -4.3281401e-03 0.0000000e+00 
0.0000000e+00 -4.5962268e-03 0.0000000e+00 
0.0000000e+00 -4.7122622e-03 0.0000000e+00 
0.0000000e+00 -3.7309737e-03 0.0000000e+00 
0.0000000e+00 -2.3044294e-03 0.0000000e+00 
0.0000000e+00 -1.0747658e-03 0.0000000e+00 
0.0000000e+00 -2.8617011e-04 0.0000000e+00 
0.0000000e+00 9.2853603e-05 0.0000000e+00 
0.0000000e+00 2.0974909e-04 0.0000000e+00 
0.0000000e+00 2.0159653e-04 0.0000000e+00 
0.0000000e+00 1.4791738e-04 0.0000000e+00 
0.0000000e+00 8.1987651e-05 0.0000000e+00 
0.0000000e+00 2.2621269e-05 0.0000000e+00 
0.0000000e+00 -1.2746050e-05 0.0000000e+00 
0.0000000e+00 -1.9318002e-05 0.0000000e+00 
0.0000000e+00 -1.1579582e-05 0.0000000e+00 
0.0000000e+00 -6.8249392e-06 0.0000000e+00 
0.0000000e+00 -7.4143900e-06 0.0000000e+00 
0.0000000e+00 -5.2038104e-06 0.0000000e+00 
0.0000000e+00 2.2071197e-06 0.0000000e+00 
0.0000000e+00 9.2755135e-06 0.0000000e+00 
0.0000000e+00 1.0605751e-05 0.0000000e+00 
0.0000000e+00 6.7959418e-06 0.0000000e+00 
0.0000000e+00 2.7144629e-06 0.0000000e+00 
0.0000000e+00 1.3131431e-06 0.0000000e+00 
0.0000000e+00 9.9417286e-07 0.0000000e+00 
0.0000000e+00 -6.6721776e-07 0.0000000e+00 
0.0000000e+00 -2.9275634e-06 0.0000000e+00 
0.0000000e+00 -3.5967946e-06 0.0000000e+00 
0.0000000e+00 -2.1499100e-06 0.0000000e+00 
0.0000000e+00 -2.2594098e-07 0.0000000e+00 
0.0000000e+00 5.3242917e-07 0.0000000e+00 
0.0000000e+00 2.9830957e-07 0.0000000e+00 
0.0000000e+00 2.1613273e-07 0.0000000e+00 
0.0000000e+00 7.2657997e-07 0.0000000e+00 
0.0000000e+00 1.2803804e-06 0.0000000e+00 
0.0000000e+00 1.2321545e-06 0.0000000e+00 
0.0000000e+00 7.4361299e-07 0.0000000e+00 
0.0000000e+00 5.2971711e-07 0.0000000e+00 
0.0000000e+00 8.8186755e-07 0.0000000e+00 
0.0000000e+00 1.2697192e-06 0.0000000e+00 
0.0000000e+00 9.8017915e-07 0.0000000e+00 
0.0000000e+00 -3.7985767e-08 0.0000000e+00 
0.0000000e+00 -1.1109169e-06 0.0000000e+00 
0.0000000e+00 -1.5380101e-06 0.0000000e+00 
0.0000000e+00 -1.1924466e-06 0.0000000e+00 
0.0000000e+00 -4.3505338e-07 0.0000000e+00 
0.0000000e+00 3.5938950e-07 0.0000000e+00 
0.0000000e+00 1.0106025e-06 0.0000000e+00 
0.0000000e+00 1.3445001e-06 0.0000000e+00 
0.0000000e+00 1.0769642e-06 0.0000000e+00 
0.0000000e+00 1.0162622e-07 0.0000000e+00 
0.0000000e+00 -1.1414927e-06 0.0000000e+00 
0.0000000e+00 -1.7966503e-06 0.0000000e+00 
0.0000000e+00 -1.2713219e-06 0.0000000e+00 
0.0000000e+00 1.7174175e-07 0.0000000e+00 
0.0000000e+00 1.5401093e-06 0.0000000e+00 
0.0000000e+00 1.8803084e-06 0.0000000e+00 
0.0000000e+00 9.9673343e-07 0.0000000e+00 
0.0000000e+00 -4.7091623e-07 0.0000000e+00 
0.0000000e+00 -1.5761202e-06 0.0000000e+00 
0.0000000e+00 -1.6961526e-06 0.0000000e+00 
0.0000000e+00 -8.3069762e-07 0.0000000e+00 
0.0000000e+00 4.9264821e-07 0.0000000e+00 
0.0000000e+00 1.5274985e-06 0.0000000e+00 
0.0000000e+00 1.6718096e-06 0.0000000e+00 
0.0000000e+00 7.9111788e-07 0.0000000e+00 
0.0000000e+00 -6.3586265e-07 0.0000000e+00 
0.0000000e+00 -1.7204019e-06 0.0000000e+00 
0.0000000e+00 -1.7116776e-06 0.0000000e+00 
0.0000000e+00 -5.6480718e-07 0.0000000e+00 
0.0000000e+00 9.3046873e-07 0.0000000e+00 
0.0000000e+00 1.6355450e-06 0.0000000e+00 
0.0000000e+00 0.0000000e+00 0.0000000e+00 
0.0000000e+00 0.0000000e+00 0.0000000e+00 
0.0000000e+00 0.0000000e+00 0.0000000e+00 
0.0000000e+00 0.0000000e+00 0.0000000e+00 
0.0000000e+00 0.0000000e+00 0.0000000e+00 
0.0000000e+00 0.0000000e+00 0.0000000e+00 
0.0000000e+00 0.0000000e+00 0.0000000e+00 
0.0000000e+00 0.0000000e+00 0.0000000e+00 
0.0000000e+00 0.0000000e+00 0.0000000e+00 
0.0000000e+00 0.0000000e+00 0.0000000e+00 
0.0000000e+00 0.0000000e+00 0.0000000e+00 
0.0000000e+00 0.0000000e+00 0.0000000e+00 
0.0000000e+00 0.0000000e+00 0.0000000e+00 
0.0000000e+00 0.0000000e+00 0.0000000e+00 
0.0000000e+00 0.0000000e+00 0.0000000e+00 
0.0000000e+00 0.0000000e+00 0.0000000e+00 
0.0000000e+00 0.0000000e+00 0.0000000e+00 
0.0000000e+00 0.0000000e+00 0.0000000e+00 
0.0000000e+00 0.0000000e+00 0.0000000e+00 
0.0000000e+00 0.0000000e+00 0.0000000e+00 
0.0000000e+00 0.0000000e+00 0.0000000e+00 
0.0000000e+00 0.0000000e+00 0.0000000e+00 
0.0000000e+00 0.0000000e+00 0.0000000e+00 
0.0000000e+00 0.0000000e+00 0.0000000e+00 
0.0000000e+00 0.0000000e+00 0.0000000e+00 
0.0000000e+00 0.0000000e+00 0.0000000e+00 
0.0000000e+00 0.0000000e+00 0.0000000e+00 
0.0000000e+00 0.0000000e+00 0.0000000e+00 
0.0000000e+00 0.0000000e+00 0.0000000e+00 
0.0000000e+00 0.0000000e+00 0.0000000e+00 
0.0000000e+00 0.0000000e+00 0.0000000e+00 
0.0000000e+00 0.0000000e+00 0.0000000e+00 
0.0000000e+00 0.0000000e+00 0.0000000e+00 
0.0000000e+00 0.0000000e+00 0.0000000e+00 
0.0000000e+00 0.0000000e+00 0.0000000e+00 
0.0000000e+00 0.0000000e+00 0.0000000e+00 
0.0000000e+00 0.0000000e+00 0.0000000e+00 
0.0000000e+00 0.0000000e+00 0.0000000e+00 
0.0000000e+00 0.0000000e+00 0.0000000e+00 
0.0000000e+00 0.0000000e+00 0.0000000e+00 
0.0000000e+00 0.0000000e+00 0.0000000e+00 
0.0000000e+00 0.0000000e+00 0.0000000e+00 
0.0000000e+00 0.0000000e+00 0.0000000e+00 
0.0000000e+00 0.0000000e+00 0.0000000e+00 
0.0000000e+00 0.0000000e+00 0.0000000e+00 
0.0000000e+00 0.0000000e+00 0.0000000e+00 
0.0000000e+00 0.0000000e+00 0.0000000e+00 
0.0000000e+00 0.0000000e+00 0.0000000e+00 
0.0000000e+00 0.0000000e+00 0.0000000e+00 
0.0000000e+00 0.0000000e+00 0.0000000e+00 
0.0000000e+00 0.0000000e+00 0.0000000e+00 
0.0000000e+00 0.0000000e+00 0.0000000e+00 
0.0000000e+00 0.0000000e+00 0.0000000e+00 
0.0000000e+00 0.0000000e+00 0.0000000e+00 
0.0000000e+00 0.0000000e+00 0.0000000e+00 
0.0000000e+00 0.0000000e+00 0.0000000e+00 
0.0000000e+00 0.0000000e+00 0.0000000e+00 
0.0000000e+00 0.0000000e+00 0.0000000e+00 