# vtk DataFile Version 4.0
vtk output
ASCII
DATASET UNSTRUCTURED_GRID
POINTS 2186 float
0.0000000e+00 0.0000000e+00 0.0000000e+00 
0.0000000e+00 0.0000000e+00 5.0000000e+01 
5.0000000e+00 0.0000000e+00 0.0000000e+00 
5.0000000e+00 0.0000000e+00 5.0000000e+01 
5.0000000e+00 1.0000000e+00 0.0000000e+00 
5.0000000e+00 1.0000000e+00 5.0000000e+01 
0.0000000e+00 1.0000000e+00 0.0000000e+00 
0.0000000e+00 1.0000000e+00 5.0000000e+01 
5.0000000e+00 2.0000000e+00 0.0000000e+00 
5.0000000e+00 2.0000000e+00 5.0000000e+01 
3.0000000e+00 2.0000000e+00 0.0000000e+00 
3.0000000e+00 2.0000000e+00 5.0000000e+01 
0.0000000e+00 2.0000000e+00 0.0000000e+00 
0.0000000e+00 2.0000000e+00 5.0000000e+01 
1.5000000e+00 3.0000000e+00 0.0000000e+00 
1.5000000e+00 3.0000000e+00 5.0000000e+01 
7.5000000e-01 3.0000000e+00 0.0000000e+00 
7.5000000e-01 3.0000000e+00 5.0000000e+01 
0.0000000e+00 3.0000000e+00 0.0000000e+00 
0.0000000e+00 3.0000000e+00 5.0000000e+01 
7.5000000e-01 3.0000000e+00 -2.5000000e+01 
7.5000000e-01 3.0000000e+00 -2.4500000e+01 
7.5000000e-01 3.0000000e+00 -2.4000000e+01 
7.5000000e-01 3.0000000e+00 -2.3500000e+01 
7.5000000e-01 3.0000000e+00 -2.3000000e+01 
7.5000000e-01 3.0000000e+00 -2.2500000e+01 
7.5000000e-01 3.0000000e+00 -2.2000000e+01 
7.5000000e-01 3.0000000e+00 -2.1500000e+01 
7.5000000e-01 3.0000000e+00 -2.1000000e+01 
7.5000000e-01 3.0000000e+00 -2.0500000e+01 
7.5000000e-01 3.0000000e+00 -2.0000000e+01 
7.5000000e-01 3.0000000e+00 -1.9500000e+01 
7.5000000e-01 3.0000000e+00 -1.9000000e+01 
7.5000000e-01 3.0000000e+00 -1.8500000e+01 
7.5000000e-01 3.0000000e+00 -1.8000000e+01 
7.5000000e-01 3.0000000e+00 -1.7500000e+01 
7.5000000e-01 3.0000000e+00 -1.7000000e+01 
7.5000000e-01 3.0000000e+00 -1.6500000e+01 
7.5000000e-01 3.0000000e+00 -1.6000000e+01 
7.5000000e-01 3.0000000e+00 -1.5500000e+01 
7.5000000e-01 3.0000000e+00 -1.5000000e+01 
7.5000000e-01 3.0000000e+00 -1.4500000e+01 
7.5000000e-01 3.0000000e+00 -1.4000000e+01 
7.5000000e-01 3.0000000e+00 -1.3500000e+01 
7.5000000e-01 3.0000000e+00 -1.3000000e+01 
7.5000000e-01 3.0000000e+00 -1.2500000e+01 
7.5000000e-01 3.0000000e+00 -1.2000000e+01 
7.5000000e-01 3.0000000e+00 -1.1500000e+01 
7.5000000e-01 3.0000000e+00 -1.1000000e+01 
7.5000000e-01 3.0000000e+00 -1.0500000e+01 
7.5000000e-01 3.0000000e+00 -1.0000000e+01 
7.5000000e-01 3.0000000e+00 -9.5000000e+00 
7.5000000e-01 3.0000000e+00 -9.0000000e+00 
7.5000000e-01 3.0000000e+00 -8.5000000e+00 
7.5000000e-01 3.0000000e+00 -8.0000000e+00 
7.5000000e-01 3.0000000e+00 -7.5000000e+00 
7.5000000e-01 3.0000000e+00 -7.0000000e+00 
7.5000000e-01 3.0000000e+00 -6.5000000e+00 
7.5000000e-01 3.0000000e+00 -6.0000000e+00 
7.5000000e-01 3.0000000e+00 -5.5000000e+00 
7.5000000e-01 3.0000000e+00 -5.0000000e+00 
7.5000000e-01 3.0000000e+00 -4.5000000e+00 
7.5000000e-01 3.0000000e+00 -4.0000000e+00 
7.5000000e-01 3.0000000e+00 -3.5000000e+00 
7.5000000e-01 3.0000000e+00 -3.0000000e+00 
7.5000000e-01 3.0000000e+00 -2.5000000e+00 
7.5000000e-01 3.0000000e+00 -2.0000000e+00 
7.5000000e-01 3.0000000e+00 -1.5000000e+00 
7.5000000e-01 3.0000000e+00 -1.0000000e+00 
7.5000000e-01 3.0000000e+00 -5.0000000e-01 
7.5000000e-01 3.0000000e+00 5.0000000e-01 
7.5000000e-01 3.0000000e+00 1.0000000e+00 
7.5000000e-01 3.0000000e+00 1.5000000e+00 
7.5000000e-01 3.0000000e+00 2.0000000e+00 
7.5000000e-01 3.0000000e+00 2.5000000e+00 
7.5000000e-01 3.0000000e+00 3.0000000e+00 
7.5000000e-01 3.0000000e+00 3.5000000e+00 
7.5000000e-01 3.0000000e+00 4.0000000e+00 
7.5000000e-01 3.0000000e+00 4.5000000e+00 
7.5000000e-01 3.0000000e+00 5.0000000e+00 
7.5000000e-01 3.0000000e+00 5.5000000e+00 
7.5000000e-01 3.0000000e+00 6.0000000e+00 
7.5000000e-01 3.0000000e+00 6.5000000e+00 
7.5000000e-01 3.0000000e+00 7.0000000e+00 
7.5000000e-01 3.0000000e+00 7.5000000e+00 
7.5000000e-01 3.0000000e+00 8.0000000e+00 
7.5000000e-01 3.0000000e+00 8.5000000e+00 
7.5000000e-01 3.0000000e+00 9.0000000e+00 
7.5000000e-01 3.0000000e+00 9.5000000e+00 
7.5000000e-01 3.0000000e+00 1.0000000e+01 
7.5000000e-01 3.0000000e+00 1.0500000e+01 
7.5000000e-01 3.0000000e+00 1.1000000e+01 
7.5000000e-01 3.0000000e+00 1.1500000e+01 
7.5000000e-01 3.0000000e+00 1.2000000e+01 
7.5000000e-01 3.0000000e+00 1.2500000e+01 
7.5000000e-01 3.0000000e+00 1.3000000e+01 
7.5000000e-01 3.0000000e+00 1.3500000e+01 
7.5000000e-01 3.0000000e+00 1.4000000e+01 
7.5000000e-01 3.0000000e+00 1.4500000e+01 
7.5000000e-01 3.0000000e+00 1.5000000e+01 
7.5000000e-01 3.0000000e+00 1.5500000e+01 
7.5000000e-01 3.0000000e+00 1.6000000e+01 
7.5000000e-01 3.0000000e+00 1.6500000e+01 
7.5000000e-01 3.0000000e+00 1.7000000e+01 
7.5000000e-01 3.0000000e+00 1.7500000e+01 
7.5000000e-01 3.0000000e+00 1.8000000e+01 
7.5000000e-01 3.0000000e+00 1.8500000e+01 
7.5000000e-01 3.0000000e+00 1.9000000e+01 
7.5000000e-01 3.0000000e+00 1.9500000e+01 
7.5000000e-01 3.0000000e+00 2.0000000e+01 
7.5000000e-01 3.0000000e+00 2.0500000e+01 
7.5000000e-01 3.0000000e+00 2.1000000e+01 
7.5000000e-01 3.0000000e+00 2.1500000e+01 
7.5000000e-01 3.0000000e+00 2.2000000e+01 
7.5000000e-01 3.0000000e+00 2.2500000e+01 
7.5000000e-01 3.0000000e+00 2.3000000e+01 
7.5000000e-01 3.0000000e+00 2.3500000e+01 
7.5000000e-01 3.0000000e+00 2.4000000e+01 
7.5000000e-01 3.0000000e+00 2.4500000e+01 
7.5000000e-01 3.0000000e+00 2.5000000e+01 
7.5000000e-01 3.0000000e+00 2.5500000e+01 
7.5000000e-01 3.0000000e+00 2.6000000e+01 
7.5000000e-01 3.0000000e+00 2.6500000e+01 
7.5000000e-01 3.0000000e+00 2.7000000e+01 
7.5000000e-01 3.0000000e+00 2.7500000e+01 
7.5000000e-01 3.0000000e+00 2.8000000e+01 
7.5000000e-01 3.0000000e+00 2.8500000e+01 
7.5000000e-01 3.0000000e+00 2.9000000e+01 
7.5000000e-01 3.0000000e+00 2.9500000e+01 
7.5000000e-01 3.0000000e+00 3.0000000e+01 
7.5000000e-01 3.0000000e+00 3.0500000e+01 
7.5000000e-01 3.0000000e+00 3.1000000e+01 
7.5000000e-01 3.0000000e+00 3.1500000e+01 
7.5000000e-01 3.0000000e+00 3.2000000e+01 
7.5000000e-01 3.0000000e+00 3.2500000e+01 
7.5000000e-01 3.0000000e+00 3.3000000e+01 
7.5000000e-01 3.0000000e+00 3.3500000e+01 
7.5000000e-01 3.0000000e+00 3.4000000e+01 
7.5000000e-01 3.0000000e+00 3.4500000e+01 
7.5000000e-01 3.0000000e+00 3.5000000e+01 
7.5000000e-01 3.0000000e+00 3.5500000e+01 
7.5000000e-01 3.0000000e+00 3.6000000e+01 
7.5000000e-01 3.0000000e+00 3.6500000e+01 
7.5000000e-01 3.0000000e+00 3.7000000e+01 
7.5000000e-01 3.0000000e+00 3.7500000e+01 
7.5000000e-01 3.0000000e+00 3.8000000e+01 
7.5000000e-01 3.0000000e+00 3.8500000e+01 
7.5000000e-01 3.0000000e+00 3.9000000e+01 
7.5000000e-01 3.0000000e+00 3.9500000e+01 
7.5000000e-01 3.0000000e+00 4.0000000e+01 
7.5000000e-01 3.0000000e+00 4.0500000e+01 
7.5000000e-01 3.0000000e+00 4.1000000e+01 
7.5000000e-01 3.0000000e+00 4.1500000e+01 
7.5000000e-01 3.0000000e+00 4.2000000e+01 
7.5000000e-01 3.0000000e+00 4.2500000e+01 
7.5000000e-01 3.0000000e+00 4.3000000e+01 
7.5000000e-01 3.0000000e+00 4.3500000e+01 
7.5000000e-01 3.0000000e+00 4.4000000e+01 
7.5000000e-01 3.0000000e+00 4.4500000e+01 
7.5000000e-01 3.0000000e+00 4.5000000e+01 
7.5000000e-01 3.0000000e+00 4.5500000e+01 
7.5000000e-01 3.0000000e+00 4.6000000e+01 
7.5000000e-01 3.0000000e+00 4.6500000e+01 
7.5000000e-01 3.0000000e+00 4.7000000e+01 
7.5000000e-01 3.0000000e+00 4.7500000e+01 
7.5000000e-01 3.0000000e+00 4.8000000e+01 
7.5000000e-01 3.0000000e+00 4.8500000e+01 
7.5000000e-01 3.0000000e+00 4.9000000e+01 
7.5000000e-01 3.0000000e+00 4.9500000e+01 
7.5000000e-01 3.0000000e+00 5.0500000e+01 
7.5000000e-01 3.0000000e+00 5.1000000e+01 
7.5000000e-01 3.0000000e+00 5.1500000e+01 
7.5000000e-01 3.0000000e+00 5.2000000e+01 
7.5000000e-01 3.0000000e+00 5.2500000e+01 
7.5000000e-01 3.0000000e+00 5.3000000e+01 
7.5000000e-01 3.0000000e+00 5.3500000e+01 
7.5000000e-01 3.0000000e+00 5.4000000e+01 
7.5000000e-01 3.0000000e+00 5.4500000e+01 
7.5000000e-01 3.0000000e+00 5.5000000e+01 
7.5000000e-01 3.0000000e+00 5.5500000e+01 
7.5000000e-01 3.0000000e+00 5.6000000e+01 
7.5000000e-01 3.0000000e+00 5.6500000e+01 
7.5000000e-01 3.0000000e+00 5.7000000e+01 
7.5000000e-01 3.0000000e+00 5.7500000e+01 
7.5000000e-01 3.0000000e+00 5.8000000e+01 
7.5000000e-01 3.0000000e+00 5.8500000e+01 
7.5000000e-01 3.0000000e+00 5.9000000e+01 
7.5000000e-01 3.0000000e+00 5.9500000e+01 
7.5000000e-01 3.0000000e+00 6.0000000e+01 
7.5000000e-01 3.0000000e+00 6.0500000e+01 
7.5000000e-01 3.0000000e+00 6.1000000e+01 
7.5000000e-01 3.0000000e+00 6.1500000e+01 
7.5000000e-01 3.0000000e+00 6.2000000e+01 
7.5000000e-01 3.0000000e+00 6.2500000e+01 
7.5000000e-01 3.0000000e+00 6.3000000e+01 
7.5000000e-01 3.0000000e+00 6.3500000e+01 
7.5000000e-01 3.0000000e+00 6.4000000e+01 
7.5000000e-01 3.0000000e+00 6.4500000e+01 
7.5000000e-01 3.0000000e+00 6.5000000e+01 
7.5000000e-01 3.0000000e+00 6.5500000e+01 
7.5000000e-01 3.0000000e+00 6.6000000e+01 
7.5000000e-01 3.0000000e+00 6.6500000e+01 
7.5000000e-01 3.0000000e+00 6.7000000e+01 
7.5000000e-01 3.0000000e+00 6.7500000e+01 
7.5000000e-01 3.0000000e+00 6.8000000e+01 
7.5000000e-01 3.0000000e+00 6.8500000e+01 
7.5000000e-01 3.0000000e+00 6.9000000e+01 
7.5000000e-01 3.0000000e+00 6.9500000e+01 
7.5000000e-01 3.0250001e+00 -2.5000000e+01 
7.5000000e-01 3.0250001e+00 -2.4500000e+01 
7.5000000e-01 3.0250001e+00 -2.4000000e+01 
7.5000000e-01 3.0250001e+00 -2.3500000e+01 
7.5000000e-01 3.0250001e+00 -2.3000000e+01 
7.5000000e-01 3.0250001e+00 -2.2500000e+01 
7.5000000e-01 3.0250001e+00 -2.2000000e+01 
7.5000000e-01 3.0250001e+00 -2.1500000e+01 
7.5000000e-01 3.0250001e+00 -2.1000000e+01 
7.5000000e-01 3.0250001e+00 -2.0500000e+01 
7.5000000e-01 3.0250001e+00 -2.0000000e+01 
7.5000000e-01 3.0250001e+00 -1.9500000e+01 
7.5000000e-01 3.0250001e+00 -1.9000000e+01 
7.5000000e-01 3.0250001e+00 -1.8500000e+01 
7.5000000e-01 3.0250001e+00 -1.8000000e+01 
7.5000000e-01 3.0250001e+00 -1.7500000e+01 
7.5000000e-01 3.0250001e+00 -1.7000000e+01 
7.5000000e-01 3.0250001e+00 -1.6500000e+01 
7.5000000e-01 3.0250001e+00 -1.6000000e+01 
7.5000000e-01 3.0250001e+00 -1.5500000e+01 
[...]
POINT_DATA 2186
FIELD FieldData 3
DISPLACEMENT 3 2186  float
0.0000000e+00 0.0000000e+00 0.0000000e+00 
0.0000000e+00 0.0000000e+00 0.0000000e+00 
0.0000000e+00 0.0000000e+00 0.0000000e+00 
0.0000000e+00 0.0000000e+00 0.0000000e+00 
3.1821410e-06 7.6465739e-08 -7.6940256e-07 
4.2744052e-08 6.0911941e-07 2.1698170e-07 
0.0000000e+00 -1.6817343e-05 0.0000000e+00 
0.0000000e+00 -1.1132981e-06 0.0000000e+00 
2.1592939e-06 -2.6903799e-06 -3.9582706e-06 
1.1937892e-08 9.4382511e-07 4.9136361e-07 
3.2479863e-07 -1.1904998e-05 -1.1188129e-05 
6.2147689e-07 1.3939544e-06 -8.5450139e-08 
0.0000000e+00 -2.2794053e-05 0.0000000e+00 
0.0000000e+00 -1.0246974e-06 0.0000000e+00 
2.3722321e-05 -3.1369102e-05 -2.5371204e-05 
-1.6748311e-06 3.1227546e-06 -2.7774361e-06 
5.4231594e-05 3.0831488e-05 -9.2171767e-06 
3.1372076e-06 2.4693593e-06 -1.4347926e-06 
0.0000000e+00 -1.0681116e-05 0.0000000e+00 
0.0000000e+00 -1.2634464e-06 0.0000000e+00 
0.0000000e+00 1.4550403e-05 0.0000000e+00 
0.0000000e+00 1.3185913e-05 0.0000000e+00 
0.0000000e+00 8.2202032e-06 0.0000000e+00 
0.0000000e+00 -9.7631062e-07 0.0000000e+00 
0.0000000e+00 -1.2426147e-05 0.0000000e+00 
0.0000000e+00 -2.1185477e-05 0.0000000e+00 
0.0000000e+00 -2.1877464e-05 0.0000000e+00 
0.0000000e+00 -1.2581476e-05 0.0000000e+00 
0.0000000e+00 2.9974460e-06 0.0000000e+00 
0.0000000e+00 1.7124692e-05 0.0000000e+00 
0.0000000e+00 2.2608056e-05 0.0000000e+00 
0.0000000e+00 1.7227110e-05 0.0000000e+00 
0.0000000e+00 4.9442569e-06 0.0000000e+00 
0.0000000e+00 -6.8676231e-06 0.0000000e+00 
0.0000000e+00 -1.2184397e-05 0.0000000e+00 
0.0000000e+00 -9.8368491e-06 0.0000000e+00 
0.0000000e+00 -3.5418591e-06 0.0000000e+00 
0.0000000e+00 1.2824401e-06 0.0000000e+00 
0.0000000e+00 1.4516344e-06 0.0000000e+00 
0.0000000e+00 -2.1252690e-06 0.0000000e+00 
0.0000000e+00 -5.7412535e-06 0.0000000e+00 
0.0000000e+00 -5.9829217e-06 0.0000000e+00 
0.0000000e+00 -2.1079188e-06 0.0000000e+00 
0.0000000e+00 3.8780308e-06 0.0000000e+00 
0.0000000e+00 9.0469839e-06 0.0000000e+00 
0.0000000e+00 1.1537730e-05 0.0000000e+00 
0.0000000e+00 1.1173670e-05 0.0000000e+00 
0.0000000e+00 8.5727306e-06 0.0000000e+00 
0.0000000e+00 4.0084387e-06 0.0000000e+00 
0.0000000e+00 -2.5758577e-06 0.0000000e+00 
0.0000000e+00 -1.0373433e-05 0.0000000e+00 
0.0000000e+00 -1.6870348e-05 0.0000000e+00 
0.0000000e+00 -1.8784660e-05 0.0000000e+00 
0.0000000e+00 -1.4372756e-05 0.0000000e+00 
0.0000000e+00 -5.1107863e-06 0.0000000e+00 
0.0000000e+00 4.8123989e-06 0.0000000e+00 
0.0000000e+00 1.0934347e-05 0.0000000e+00 
0.0000000e+00 1.1250020e-05 0.0000000e+00 
0.0000000e+00 7.4490940e-06 0.0000000e+00 
0.0000000e+00 3.6935780e-06 0.0000000e+00 
0.0000000e+00 3.5231521e-06 0.0000000e+00 
0.0000000e+00 7.1311924e-06 0.0000000e+00 
0.0000000e+00 1.1349411e-05 0.0000000e+00 
0.0000000e+00 1.2426890e-05 0.0000000e+00 
0.0000000e+00 9.1675711e-06 0.0000000e+00 
0.0000000e+00 3.9473371e-06 0.0000000e+00 
0.0000000e+00 1.2031911e-06 0.0000000e+00 
0.0000000e+00 4.5622028e-06 0.0000000e+00 
0.0000000e+00 1.4080202e-05 0.0000000e+00 
0.0000000e+00 2.5194480e-05 0.0000000e+00 
1.2906924e-05 2.4695149e-05 1.7135151e-05 
-3.7177492e-06 1.0796191e-05 3.0376801e-05 
-2.3819944e-06 -3.4717982e-06 2.8124356e-05 
-1.5419890e-05 -1.6836266e-05 3.9196530e-05 
-3.9940896e-05 -3.3023345e-05 3.9531704e-05 
-4.6164754e-05 -5.3766551e-05 2.6999862e-05 
-6.4892673e-05 -7.5031050e-05 3.4765668e-05 
-6.3968320e-05 -8.8079869e-05 2.4541418e-05 
-6.9297013e-05 -8.8439701e-05 1.9049658e-05 
-7.9425190e-05 -8.2436272e-05 1.1361518e-05 
-7.4893163e-05 -8.1307175e-05 2.6244143e-06 
-8.8468776e-05 -9.6496085e-05 -8.0188502e-06 
-8.2562772e-05 -1.1542517e-04 -6.4173728e-06 
-7.5933291e-05 -1.0983545e-04 -6.4952937e-06 
-7.5786273e-05 -6.9722948e-05 -5.0837984e-06 
-7.0438764e-05 -2.0156605e-05 -1.2252374e-05 
-5.8452533e-05 6.3152534e-06 -1.6671782e-05 
-6.0935185e-05 -1.0691649e-05 7.7115828e-06 
-5.0776016e-05 -6.4958127e-05 3.9665465e-05 
-5.7581245e-05 -1.4736390e-04 6.9744921e-05 
-4.0249291e-05 -3.1896160e-04 1.5494823e-04 
-5.7760131e-05 -7.3746068e-04 1.3731208e-04 
-1.0479215e-04 -1.5615457e-03 2.3371897e-04 
-1.6559919e-04 -2.8045569e-03 1.0559154e-04 
-2.7062660e-04 -4.2391997e-03 1.9934293e-04 
-6.4760505e-04 -5.2547329e-03 2.4440224e-04 
-2.7372461e-04 -5.1925015e-03 9.8891396e-05 
-1.7234312e-04 -4.6223882e-03 8.0570477e-05 
-1.8532199e-04 -4.3718317e-03 1.8546752e-05 
-2.1164783e-04 -4.5593260e-03 -5.8615224e-05 
-2.4285541e-04 -4.7064191e-03 -5.2754454e-05 
-2.3327653e-04 -4.0210718e-03 -8.6274944e-05 
-1.7940316e-04 -2.7688106e-03 -2.0951341e-04 
-1.7971361e-04 -1.5362271e-03 -3.6912077e-04 
-3.1164265e-05 -5.9609982e-04 -2.0395685e-04 
-1.5170622e-06 -2.6416967e-05 -1.3625596e-04 
1.4397289e-05 2.2560543e-04 -1.2248855e-04 
2.3013350e-05 2.6516503e-04 -8.2357968e-05 
1.9463392e-05 2.0925760e-04 -5.4687742e-05 
1.2761253e-05 1.3595811e-04 -5.2453346e-05 
1.2390200e-05 7.5795127e-05 -4.1223226e-05 
6.2461477e-06 2.3933770e-05 -2.8950566e-05 
-3.3584736e-06 -2.3047969e-05 -1.6417132e-05 
-2.0376365e-05 -5.3604013e-05 1.5799856e-06 
-2.8462557e-05 -6.3922169e-05 3.4221139e-05 
-4.5789908e-05 -7.0576665e-05 3.2777185e-05 
-5.9357350e-05 -8.9367662e-05 3.8702787e-05 
-7.6729841e-05 -1.1632493e-04 2.9382581e-05 
-7.4977375e-05 -1.3139150e-04 1.5515629e-05 
-8.3811872e-05 -1.2034525e-04 8.0880336e-06 
-6.5901229e-05 -9.0955567e-05 1.0835392e-05 
-7.7536431e-05 -7.5318370e-05 1.5635146e-06 
-8.1378043e-05 -8.5441396e-05 -1.8809543e-06 
-7.5353171e-05 -9.7872180e-05 -3.0200454e-06 
-8.3614163e-05 -7.7007440e-05 -2.6895852e-06 
-7.7746052e-05 -1.2452981e-05 -2.9123273e-06 
-5.1540603e-05 5.6547975e-05 -6.0930470e-06 
-5.1561670e-05 6.2194216e-05 1.7990533e-05 
-4.3723936e-05 -2.2725018e-05 3.3788532e-05 
-5.1228071e-05 -1.9198119e-04 6.7793742e-05 
-6.9491456e-05 -4.6063476e-04 1.3920102e-04 
-8.2569182e-05 -9.0253656e-04 1.0939246e-04 
-1.1433343e-04 -1.6664902e-03 2.3439529e-04 
-1.6716377e-04 -2.8575035e-03 1.1361055e-04 
-2.2920611e-04 -4.3176361e-03 2.0661026e-04 
-3.0732475e-04 -5.3121722e-03 5.1341962e-05 
-3.1220287e-04 -5.1518190e-03 -1.1241092e-05 
-2.7742767e-04 -4.5331107e-03 8.5761840e-06 
-2.2350074e-04 -4.3054908e-03 -9.9986873e-06 
-1.8379273e-04 -4.5494018e-03 -3.8374445e-05 
-2.1207953e-04 -4.6998556e-03 -6.1889965e-05 
-2.1450066e-04 -3.8247081e-03 -5.6934405e-05 
-1.5945981e-04 -2.4639163e-03 -1.9541291e-04 
-1.0261350e-04 -1.2149804e-03 -8.6730011e-05 
-7.4099975e-05 -3.6701755e-04 -1.7743623e-04 
-4.4662436e-05 8.1028767e-05 -1.2180746e-04 
-1.5294258e-05 2.3286452e-04 -1.0337997e-04 
-1.6059545e-05 2.2951153e-04 -8.6763510e-05 
5.0007561e-06 1.8143302e-04 -6.0994418e-05 
-3.3364422e-06 1.3016396e-04 -6.1219391e-05 
5.4749080e-06 7.7374491e-05 -5.3037573e-05 
1.1809532e-05 2.7202665e-05 -5.0608094e-05 
2.1004715e-05 -6.7973710e-06 -3.2803782e-05 
1.5345557e-05 -1.7980627e-05 -1.0991367e-05 
1.3616943e-05 -1.6314907e-05 1.6877631e-05 
8.1239896e-06 -1.5119493e-05 2.4263172e-05 
3.1919475e-07 -1.8612931e-05 1.8629318e-05 
1.5782028e-07 -2.0144704e-05 1.0180029e-05 
3.6560098e-06 -1.4228650e-05 3.4796922e-06 
3.0815631e-06 -4.6127834e-06 4.4973644e-06 
1.8169982e-07 2.3138689e-06 7.3541023e-06 
-6.5101477e-07 4.8332845e-06 9.4009365e-06 
-3.2049650e-06 5.2900587e-06 9.2290393e-06 
-3.5854578e-06 5.1475590e-06 5.6885892e-06 
-2.9896428e-06 3.8284288e-06 2.7022661e-06 
-2.4801507e-06 1.0709166e-06 1.9484996e-06 
-3.0457029e-06 -1.3880154e-06 -8.5548095e-07 
-2.4272802e-06 -1.5518267e-06 -1.9805509e-06 
-5.0406800e-07 5.4494546e-07 -3.6947442e-06 
0.0000000e+00 2.4986598e-06 0.0000000e+00 
0.0000000e+00 1.2165417e-06 0.0000000e+00 
0.0000000e+00 2.1331255e-07 0.0000000e+00 
0.0000000e+00 3.2038076e-07 0.0000000e+00 
0.0000000e+00 9.0648524e-07 0.0000000e+00 
0.0000000e+00 9.4066189e-07 0.0000000e+00 
0.0000000e+00 3.0669443e-07 0.0000000e+00 
0.0000000e+00 -2.1815866e-07 0.0000000e+00 
0.0000000e+00 -8.2018836e-08 0.0000000e+00 
0.0000000e+00 3.4788718e-07 0.0000000e+00 
0.0000000e+00 3.1575269e-07 0.0000000e+00 
0.0000000e+00 -3.5164643e-07 0.0000000e+00 
0.0000000e+00 -1.0506096e-06 0.0000000e+00 
0.0000000e+00 -1.1263596e-06 0.0000000e+00 
0.0000000e+00 -5.6056717e-07 0.0000000e+00 
0.0000000e+00 1.5273086e-07 0.0000000e+00 
0.0000000e+00 6.3676123e-07 0.0000000e+00 
0.0000000e+00 9.1142283e-07 0.0000000e+00 
0.0000000e+00 1.0596015e-06 0.0000000e+00 
0.0000000e+00 8.7871786e-07 0.0000000e+00 
0.0000000e+00 1.0151046e-07 0.0000000e+00 
0.0000000e+00 -1.0613427e-06 0.0000000e+00 
0.0000000e+00 -1.8267496e-06 0.0000000e+00 
0.0000000e+00 -1.4720250e-06 0.0000000e+00 
0.0000000e+00 -7.6222250e-08 0.0000000e+00 
0.0000000e+00 1.4404080e-06 0.0000000e+00 
0.0000000e+00 2.0491857e-06 0.0000000e+00 
0.0000000e+00 1.4005251e-06 0.0000000e+00 
0.0000000e+00 -2.1452202e-08 0.0000000e+00 
0.0000000e+00 -1.3630219e-06 0.0000000e+00 
0.0000000e+00 -1.9493702e-06 0.0000000e+00 
0.0000000e+00 -1.5298117e-06 0.0000000e+00 
0.0000000e+00 -2.8097381e-07 0.0000000e+00 
0.0000000e+00 1.2356148e-06 0.0000000e+00 
0.0000000e+00 2.2054148e-06 0.0000000e+00 
0.0000000e+00 1.9540309e-06 0.0000000e+00 
0.0000000e+00 4.8495593e-07 0.0000000e+00 
0.0000000e+00 -1.3159870e-06 0.0000000e+00 
0.0000000e+00 -2.1543578e-06 0.0000000e+00 
0.0000000e+00 1.4651766e-05 0.0000000e+00 
0.0000000e+00 1.3218875e-05 0.0000000e+00 
0.0000000e+00 8.1241087e-06 0.0000000e+00 
0.0000000e+00 -1.1313995e-06 0.0000000e+00 
0.0000000e+00 -1.2503569e-05 0.0000000e+00 
0.0000000e+00 -2.1102809e-05 0.0000000e+00 
0.0000000e+00 -2.1683678e-05 0.0000000e+00 
0.0000000e+00 -1.2424013e-05 0.0000000e+00 
0.0000000e+00 2.9903376e-06 0.0000000e+00 
0.0000000e+00 1.6949376e-05 0.0000000e+00 
0.0000000e+00 2.2391432e-05 0.0000000e+00 
0.0000000e+00 1.7128687e-05 0.0000000e+00 
0.0000000e+00 5.0342696e-06 0.0000000e+00 
0.0000000e+00 -6.6588750e-06 0.0000000e+00 
0.0000000e+00 -1.2010911e-05 0.0000000e+00 
0.0000000e+00 -9.8209784e-06 0.0000000e+00 
0.0000000e+00 -3.6855056e-06 0.0000000e+00 
0.0000000e+00 1.0943187e-06 0.0000000e+00 
0.0000000e+00 1.3589022e-06 0.0000000e+00 
0.0000000e+00 -2.0660120e-06 0.0000000e+00 
0.0000000e+00 -5.5938149e-06 0.0000000e+00 
0.0000000e+00 -5.8702667e-06 0.0000000e+00 
0.0000000e+00 -2.1091932e-06 0.0000000e+00 
0.0000000e+00 3.7847037e-06 0.0000000e+00 
0.0000000e+00 8.9550986e-06 0.0000000e+00 
0.0000000e+00 1.1528573e-05 0.0000000e+00 
0.0000000e+00 1.1247979e-05 0.0000000e+00 
0.0000000e+00 8.6524569e-06 0.0000000e+00 
0.0000000e+00 4.0095952e-06 0.0000000e+00 
0.0000000e+00 -2.6606415e-06 0.0000000e+00 
0.0000000e+00 -1.0463293e-05 0.0000000e+00 
0.0000000e+00 -1.6874013e-05 0.0000000e+00 
0.0000000e+00 -1.8691593e-05 0.0000000e+00 
0.0000000e+00 -1.4264131e-05 0.0000000e+00 
0.0000000e+00 -5.0841641e-06 0.0000000e+00 
0.0000000e+00 4.7256913e-06 0.0000000e+00 
0.0000000e+00 1.0791426e-05 0.0000000e+00 
0.0000000e+00 1.1155565e-05 0.0000000e+00 
0.0000000e+00 7.4823747e-06 0.0000000e+00 
0.0000000e+00 3.8423041e-06 0.0000000e+00 
0.0000000e+00 3.6780120e-06 0.0000000e+00 
0.0000000e+00 7.1702761e-06 0.0000000e+00 
0.0000000e+00 1.1248419e-05 0.0000000e+00 
0.0000000e+00 1.2280205e-05 0.0000000e+00 
0.0000000e+00 9.0986541e-06 0.0000000e+00 
0.0000000e+00 4.0121636e-06 0.0000000e+00 
0.0000000e+00 1.3708601e-06 0.0000000e+00 
0.0000000e+00 4.7472563e-06 0.0000000e+00 
0.0000000e+00 1.4186571e-05 0.0000000e+00 
0.0000000e+00 2.5184347e-05 0.0000000e+00 
0.0000000e+00 3.0428533e-05 0.0000000e+00 
0.0000000e+00 2.4565648e-05 0.0000000e+00 
0.0000000e+00 1.1104267e-05 0.0000000e+00 
0.0000000e+00 -3.1729669e-06 0.0000000e+00 
0.0000000e+00 -1.6872022e-05 0.0000000e+00 
0.0000000e+00 -3.3284279e-05 0.0000000e+00 
0.0000000e+00 -5.4043849e-05 0.0000000e+00 
0.0000000e+00 -7.4999298e-05 0.0000000e+00 
0.0000000e+00 -8.7750981e-05 0.0000000e+00 
0.0000000e+00 -8.8147339e-05 0.0000000e+00 
0.0000000e+00 -8.2193379e-05 0.0000000e+00 
0.0000000e+00 -8.2232415e-05 0.0000000e+00 
0.0000000e+00 -9.7402830e-05 0.0000000e+00 
0.0000000e+00 -1.1517137e-04 0.0000000e+00 
0.0000000e+00 -1.0859987e-04 0.0000000e+00 
0.0000000e+00 -6.8943817e-05 0.0000000e+00 
0.0000000e+00 -2.0167980e-05 0.0000000e+00 
0.0000000e+00 5.0185454e-06 0.0000000e+00 
0.0000000e+00 -1.1518876e-05 0.0000000e+00 
0.0000000e+00 -6.2926170e-05 0.0000000e+00 
0.0000000e+00 -1.4368996e-04 0.0000000e+00 
0.0000000e+00 -3.1767107e-04 0.0000000e+00 
0.0000000e+00 -7.4116047e-04 0.0000000e+00 
0.0000000e+00 -1.5703295e-03 0.0000000e+00 
0.0000000e+00 -2.8209526e-03 0.0000000e+00 
0.0000000e+00 -4.2569148e-03 0.0000000e+00 
0.0000000e+00 -5.2732029e-03 0.0000000e+00 
0.0000000e+00 -5.2244607e-03 0.0000000e+00 
0.0000000e+00 -4.6542184e-03 0.0000000e+00 
0.0000000e+00 -4.3932749e-03 0.0000000e+00 
0.0000000e+00 -4.5862673e-03 0.0000000e+00 
0.0000000e+00 -4.7311261e-03 0.0000000e+00 
0.0000000e+00 -4.0504173e-03 0.0000000e+00 
0.0000000e+00 -2.7854685e-03 0.0000000e+00 
0.0000000e+00 -1.5419035e-03 0.0000000e+00 
0.0000000e+00 -6.0092658e-04 0.0000000e+00 
0.0000000e+00 -2.8300656e-05 0.0000000e+00 
0.0000000e+00 2.2579936e-04 0.0000000e+00 
0.0000000e+00 2.6725561e-04 0.0000000e+00 
0.0000000e+00 2.1110717e-04 0.0000000e+00 
0.0000000e+00 1.3693128e-04 0.0000000e+00 
0.0000000e+00 7.5485790e-05 0.0000000e+00 
0.0000000e+00 2.3408968e-05 0.0000000e+00 
0.0000000e+00 -2.2607097e-05 0.0000000e+00 
0.0000000e+00 -5.2815903e-05 0.0000000e+00 
0.0000000e+00 -6.4005813e-05 0.0000000e+00 
0.0000000e+00 -7.1324350e-05 0.0000000e+00 
0.0000000e+00 -9.0057321e-05 0.0000000e+00 
0.0000000e+00 -1.1627172e-04 0.0000000e+00 
0.0000000e+00 -1.3066633e-04 0.0000000e+00 
0.0000000e+00 -1.1939212e-04 0.0000000e+00 
0.0000000e+00 -9.1576825e-05 0.0000000e+00 
0.0000000e+00 -7.6517201e-05 0.0000000e+00 
0.0000000e+00 -8.6200387e-05 0.0000000e+00 
0.0000000e+00 -9.7492419e-05 0.0000000e+00 
0.0000000e+00 -7.5242970e-05 0.0000000e+00 
0.0000000e+00 -1.0850399e-05 0.0000000e+00 
0.0000000e+00 5.5618744e-05 0.0000000e+00 
0.0000000e+00 6.1037441e-05 0.0000000e+00 
0.0000000e+00 -2.2746322e-05 0.0000000e+00 
0.0000000e+00 -1.9068709e-04 0.0000000e+00 
0.0000000e+00 -4.5758695e-04 0.0000000e+00 
0.0000000e+00 -9.0261979e-04 0.0000000e+00 
0.0000000e+00 -1.6743244e-03 0.0000000e+00 
0.0000000e+00 -2.8785462e-03 0.0000000e+00 
0.0000000e+00 -4.3369811e-03 0.0000000e+00 
0.0000000e+00 -5.3428281e-03 0.0000000e+00 
0.0000000e+00 -5.1717530e-03 0.0000000e+00 
0.0000000e+00 -4.5614815e-03 0.0000000e+00 
0.0000000e+00 -4.3279282e-03 0.0000000e+00 
0.0000000e+00 -4.5829630e-03 0.0000000e+00 
0.0000000e+00 -4.7242767e-03 0.0000000e+00 
0.0000000e+00 -3.8487674e-03 0.0000000e+00 
0.0000000e+00 -2.4766424e-03 0.0000000e+00 
0.0000000e+00 -1.2257402e-03 0.0000000e+00 
0.0000000e+00 -3.7009269e-04 0.0000000e+00 
0.0000000e+00 8.0754638e-05 0.0000000e+00 
0.0000000e+00 2.3454521e-04 0.0000000e+00 
0.0000000e+00 2.3198464e-04 0.0000000e+00 
0.0000000e+00 1.8252106e-04 0.0000000e+00 
0.0000000e+00 1.2989099e-04 0.0000000e+00 
0.0000000e+00 7.7242214e-05 0.0000000e+00 
0.0000000e+00 2.7702150e-05 0.0000000e+00 
0.0000000e+00 -6.2663389e-06 0.0000000e+00 
0.0000000e+00 -1.8118775e-05 0.0000000e+00 
0.0000000e+00 -1.6703394e-05 0.0000000e+00 
0.0000000e+00 -1.5366766e-05 0.0000000e+00 
0.0000000e+00 -1.8481622e-05 0.0000000e+00 
0.0000000e+00 -1.9871510e-05 0.0000000e+00 
0.0000000e+00 -1.4230030e-05 0.0000000e+00 
0.0000000e+00 -4.7899221e-06 0.0000000e+00 
0.0000000e+00 2.2256067e-06 0.0000000e+00 
0.0000000e+00 4.9011896e-06 0.0000000e+00 
0.0000000e+00 5.3403605e-06 0.0000000e+00 
0.0000000e+00 5.1008637e-06 0.0000000e+00 
0.0000000e+00 3.7660534e-06 0.0000000e+00 
0.0000000e+00 1.0997118e-06 0.0000000e+00 
0.0000000e+00 -1.3033214e-06 0.0000000e+00 
0.0000000e+00 -1.4917640e-06 0.0000000e+00 
0.0000000e+00 4.8803986e-07 0.0000000e+00 
0.0000000e+00 2.3913399e-06 0.0000000e+00 
0.0000000e+00 2.4898000e-06 0.0000000e+00 
0.0000000e+00 1.2586349e-06 0.0000000e+00 
0.0000000e+00 2.5612204e-07 0.0000000e+00 
0.0000000e+00 3.1834065e-07 0.0000000e+00 
0.0000000e+00 8.7226198e-07 0.0000000e+00 
0.0000000e+00 9.2170421e-07 0.0000000e+00 
0.0000000e+00 3.2384330e-07 0.0000000e+00 
0.0000000e+00 -1.9106862e-07 0.0000000e+00 
0.0000000e+00 -7.9538900e-08 0.0000000e+00 
0.0000000e+00 3.2555417e-07 0.0000000e+00 
0.0000000e+00 2.9817036e-07 0.0000000e+00 
0.0000000e+00 -3.4471128e-07 0.0000000e+00 
0.0000000e+00 -1.0315098e-06 0.0000000e+00 
0.0000000e+00 -1.1200157e-06 0.0000000e+00 
0.0000000e+00 -5.7199043e-07 0.0000000e+00 
0.0000000e+00 1.4229025e-07 0.0000000e+00 
0.0000000e+00 6.4287826e-07 0.0000000e+00 
0.0000000e+00 9.2538608e-07 0.0000000e+00 
0.0000000e+00 1.0601127e-06 0.0000000e+00 
0.0000000e+00 8.6040177e-07 0.0000000e+00 
0.0000000e+00 8.3467171e-08 0.0000000e+00 
0.0000000e+00 -1.0575570e-06 0.0000000e+00 
0.0000000e+00 -1.8023845e-06 0.0000000e+00 
0.0000000e+00 -1.4498087e-06 0.0000000e+00 
0.0000000e+00 -7.5719768e-08 0.0000000e+00 
0.0000000e+00 1.4214477e-06 0.0000000e+00 
0.0000000e+00 2.0286921e-06 0.0000000e+00 
0.0000000e+00 1.3923288e-06 0.0000000e+00 
0.0000000e+00 -1.7551290e-08 0.0000000e+00 
0.0000000e+00 -1.3540800e-06 0.0000000e+00 
0.0000000e+00 -1.9387844e-06 0.0000000e+00 
0.0000000e+00 -1.5175909e-06 0.0000000e+00 
0.0000000e+00 -2.7152450e-07 0.0000000e+00 
0.0000000e+00 1.2325000e-06 0.0000000e+00 
0.0000000e+00 2.1852693e-06 0.0000000e+00 
0.0000000e+00 1.9277152e-06 0.0000000e+00 
0.0000000e+00 4.7303953e-07 0.0000000e+00 
0.0000000e+00 -1.3023870e-06 0.0000000e+00 
0.0000000e+00 -2.1274222e-06 0.0000000e+00 
0.0000000e+00 0.0000000e+00 0.0000000e+00 
0.0000000e+00 0.0000000e+00 0.0000000e+00 
0.0000000e+00 0.0000000e+00 0.0000000e+00 
0.0000000e+00 0.0000000e+00 0.0000000e+00 
0.0000000e+00 0.0000000e+00 0.0000000e+00 
0.0000000e+00 0.0000000e+00 0.0000000e+00 
0.0000000e+00 0.0000000e+00 0.0000000e+00 
0.0000000e+00 0.0000000e+00 0.0000000e+00 
0.0000000e+00 0.0000000e+00 0.0000000e+00 
0.0000000e+00 0.0000000e+00 0.0000000e+00 
0.0000000e+00 0.0000000e+00 0.0000000e+00 
0.0000000e+00 0.0000000e+00 0.0000000e+00 
0.0000000e+00 0.0000000e+00 0.0000000e+00 
0.0000000e+00 0.0000000e+00 0.0000000e+00 
0.0000000e+00 0.0000000e+00 0.0000000e+00 
0.0000000e+00 0.0000000e+00 0.0000000e+00 
0.0000000e+00 0.0000000e+00 0.0000000e+00 
0.0000000e+00 0.0000000e+00 0.0000000e+00 
0.0000000e+00 0.0000000e+00 0.0000000e+00 
0.0000000e+00 0.0000000e+00 0.0000000e+00 
0.0000000e+00 0.0000000e+00 0.0000000e+00 
0.0000000e+00 0.0000000e+00 0.0000000e+00 
0.0000000e+00 0.0000000e+00 0.0000000e+00 
0.0000000e+00 0.0000000e+00 0.0000000e+00 
0.0000000e+00 0.0000000e+00 0.0000000e+00 
0.0000000e+00 0.0000000e+00 0.0000000e+00 
0.0000000e+00 0.0000000e+00 0.0000000e+00 
0.0000000e+00 0.0000000e+00 0.0000000e+00 
0.0000000e+00 0.0000000e+00 0.0000000e+00 
0.0000000e+00 0.0000000e+00 0.0000000e+00 
0.0000000e+00 0.0000000e+00 0.0000000e+00 
0.0000000e+00 0.0000000e+00 0.0000000e+00 
0.0000000e+00 0.0000000e+00 0.0000000e+00 
0.0000000e+00 0.0000000e+00 0.0000000e+00 
0.0000000e+00 0.0000000e+00 0.0000000e+00 
0.0000000e+00 0.0000000e+00 0.0000000e+00 
0.0000000e+00 0.0000000e+00 0.0000000e+00 
0.0000000e+00 0.0000000e+00 0.0000000e+00 
0.0000000e+00 0.0000000e+00 0.0000000e+00 
0.0000000e+00 0.0000000e+00 0.0000000e+00 
0.0000000e+00 0.0000000e+00 0.0000000e+00 
0.0000000e+00 0.0000000e+00 0.0000000e+00 
0.0000000e+00 0.0000000e+00 0.0000000e+00 
0.0000000e+00 0.0000000e+00 0.0000000e+00 
0.0000000e+00 0.0000000e+00 0.0000000e+00 
0.0000000e+00 0.0000000e+00 0.0000000e+00 
0.0000000e+00 0.0000000e+00 0.0000000e+00 
0.0000000e+00 0.0000000e+00 0.0000000e+00 
0.0000000e+00 0.0000000e+00 0.0000000e+00 
0.0000000e+00 0.0000000e+00 0.0000000e+00 
0.0000000e+00 0.0000000e+00 0.0000000e+00 
0.0000000e+00 0.0000000e+00 0.0000000e+00 
0.0000000e+00 0.0000000e+00 0.0000000e+00 
0.0000000e+00 0.0000000e+00 0.0000000e+00 
0.0000000e+00 0.0000000e+00 0.0000000e+00 
0.0000000e+00 0.0000000e+00 0.0000000e+00 
0.0000000e+00 0.0000000e+00 0.0000000e+00 