# vtk DataFile Version 4.0
vtk output
ASCII
DATASET UNSTRUCTURED_GRID
POINTS 2186 float
0.0000000e+00 0.0000000e+00 0.0000000e+00 
0.0000000e+00 0.0000000e+00 5.0000000e+01 
5.0000000e+00 0.0000000e+00 0.0000000e+00 
5.0000000e+00 0.0000000e+00 5.0000000e+01 
5.0000000e+00 1.0000000e+00 0.0000000e+00 
5.0000000e+00 1.0000000e+00 5.0000000e+01 
0.0000000e+00 1.0000000e+00 0.0000000e+00 
0.0000000e+00 1.0000000e+00 5.0000000e+01 
5.0000000e+00 2.0000000e+00 0.0000000e+00 
5.0000000e+00 2.0000000e+00 5.0000000e+01 
3.0000000e+00 2.0000000e+00 0.0000000e+00 
3.0000000e+00 2.0000000e+00 5.0000000e+01 
0.0000000e+00 2.0000000e+00 0.0000000e+00 
0.0000000e+00 2.0000000e+00 5.0000000e+01 
1.5000000e+00 3.0000000e+00 0.0000000e+00 
1.5000000e+00 3.0000000e+00 5.0000000e+01 
7.5000000e-01 3.0000000e+00 0.0000000e+00 
7.5000000e-01 3.0000000e+00 5.0000000e+01 
0.0000000e+00 3.0000000e+00 0.0000000e+00 
0.0000000e+00 3.0000000e+00 5.0000000e+01 
7.5000000e-01 3.0000000e+00 -2.5000000e+01 
7.5000000e-01 3.0000000e+00 -2.4500000e+01 
7.5000000e-01 3.0000000e+00 -2.4000000e+01 
7.5000000e-01 3.0000000e+00 -2.3500000e+01 
7.5000000e-01 3.0000000e+00 -2.3000000e+01 
7.5000000e-01 3.0000000e+00 -2.2500000e+01 
7.5000000e-01 3.0000000e+00 -2.2000000e+01 
7.5000000e-01 3.0000000e+00 -2.1500000e+01 
7.5000000e-01 3.0000000e+00 -2.1000000e+01 
7.5000000e-01 3.0000000e+00 -2.0500000e+01 
7.5000000e-01 3.0000000e+00 -2.0000000e+01 
7.5000000e-01 3.0000000e+00 -1.9500000e+01 
7.5000000e-01 3.0000000e+00 -1.9000000e+01 
7.5000000e-01 3.0000000e+00 -1.8500000e+01 
7.5000000e-01 3.0000000e+00 -1.8000000e+01 
7.5000000e-01 3.0000000e+00 -1.7500000e+01 
7.5000000e-01 3.0000000e+00 -1.7000000e+01 
7.5000000e-01 3.0000000e+00 -1.6500000e+01 
7.5000000e-01 3.0000000e+00 -1.6000000e+01 
7.5000000e-01 3.0000000e+00 -1.5500000e+01 
7.5000000e-01 3.0000000e+00 -1.5000000e+01 
7.5000000e-01 3.0000000e+00 -1.4500000e+01 
7.5000000e-01 3.0000000e+00 -1.4000000e+01 
7.5000000e-01 3.0000000e+00 -1.3500000e+01 
7.5000000e-01 3.0000000e+00 -1.3000000e+01 
7.5000000e-01 3.0000000e+00 -1.2500000e+01 
7.5000000e-01 3.0000000e+00 -1.2000000e+01 
7.5000000e-01 3.0000000e+00 -1.1500000e+01 
7.5000000e-01 3.0000000e+00 -1.1000000e+01 
7.5000000e-01 3.0000000e+00 -1.0500000e+01 
7.5000000e-01 3.0000000e+00 -1.0000000e+01 
7.5000000e-01 3.0000000e+00 -9.5000000e+00 
7.5000000e-01 3.0000000e+00 -9.0000000e+00 
7.5000000e-01 3.0000000e+00 -8.5000000e+00 
7.5000000e-01 3.0000000e+00 -8.0000000e+00 
7.5000000e-01 3.0000000e+00 -7.5000000e+00 
7.5000000e-01 3.0000000e+00 -7.0000000e+00 
7.5000000e-01 3.0000000e+00 -6.5000000e+00 
7.5000000e-01 3.0000000e+00 -6.0000000e+00 
7.5000000e-01 3.0000000e+00 -5.5000000e+00 
7.5000000e-01 3.0000000e+00 -5.0000000e+00 
7.5000000e-01 3.0000000e+00 -4.5000000e+00 
7.5000000e-01 3.0000000e+00 -4.0000000e+00 
7.5000000e-01 3.0000000e+00 -3.5000000e+00 
7.5000000e-01 3.0000000e+00 -3.0000000e+00 
7.5000000e-01 3.0000000e+00 -2.5000000e+00 
7.5000000e-01 3.0000000e+00 -2.0000000e+00 
7.5000000e-01 3.0000000e+00 -1.5000000e+00 
7.5000000e-01 3.0000000e+00 -1.0000000e+00 
7.5000000e-01 3.0000000e+00 -5.0000000e-01 
7.5000000e-01 3.0000000e+00 5.0000000e-01 
7.5000000e-01 3.0000000e+00 1.0000000e+00 
7.5000000e-01 3.0000000e+00 1.5000000e+00 
7.5000000e-01 3.0000000e+00 2.0000000e+00 
7.5000000e-01 3.0000000e+00 2.5000000e+00 
7.5000000e-01 3.0000000e+00 3.0000000e+00 
7.5000000e-01 3.0000000e+00 3.5000000e+00 
7.5000000e-01 3.0000000e+00 4.0000000e+00 
7.5000000e-01 3.0000000e+00 4.5000000e+00 
7.5000000e-01 3.0000000e+00 5.0000000e+00 
7.5000000e-01 3.0000000e+00 5.5000000e+00 
7.5000000e-01 3.0000000e+00 6.0000000e+00 
7.5000000e-01 3.0000000e+00 6.5000000e+00 
7.5000000e-01 3.0000000e+00 7.0000000e+00 
7.5000000e-01 3.0000000e+00 7.5000000e+00 
7.5000000e-01 3.0000000e+00 8.0000000e+00 
7.5000000e-01 3.0000000e+00 8.5000000e+00 
7.5000000e-01 3.0000000e+00 9.0000000e+00 
7.5000000e-01 3.0000000e+00 9.5000000e+00 
7.5000000e-01 3.0000000e+00 1.0000000e+01 
7.5000000e-01 3.0000000e+00 1.0500000e+01 
7.5000000e-01 3.0000000e+00 1.1000000e+01 
7.5000000e-01 3.0000000e+00 1.1500000e+01 
7.5000000e-01 3.0000000e+00 1.2000000e+01 
7.5000000e-01 3.0000000e+00 1.2500000e+01 
7.5000000e-01 3.0000000e+00 1.3000000e+01 
7.5000000e-01 3.0000000e+00 1.3500000e+01 
7.5000000e-01 3.0000000e+00 1.4000000e+01 
7.5000000e-01 3.0000000e+00 1.4500000e+01 
7.5000000e-01 3.0000000e+00 1.5000000e+01 
7.5000000e-01 3.0000000e+00 1.5500000e+01 
7.5000000e-01 3.0000000e+00 1.6000000e+01 
7.5000000e-01 3.0000000e+00 1.6500000e+01 
7.5000000e-01 3.0000000e+00 1.7000000e+01 
7.5000000e-01 3.0000000e+00 1.7500000e+01 
7.5000000e-01 3.0000000e+00 1.8000000e+01 
7.5000000e-01 3.0000000e+00 1.8500000e+01 
7.5000000e-01 3.0000000e+00 1.9000000e+01 
7.5000000e-01 3.0000000e+00 1.9500000e+01 
7.5000000e-01 3.0000000e+00 2.0000000e+01 
7.5000000e-01 3.0000000e+00 2.0500000e+01 
7.5000000e-01 3.0000000e+00 2.1000000e+01 
7.5000000e-01 3.0000000e+00 2.1500000e+01 
7.5000000e-01 3.0000000e+00 2.2000000e+01 
7.5000000e-01 3.0000000e+00 2.2500000e+01 
7.5000000e-01 3.0000000e+00 2.3000000e+01 
7.5000000e-01 3.0000000e+00 2.3500000e+01 
7.5000000e-01 3.0000000e+00 2.4000000e+01 
7.5000000e-01 3.0000000e+00 2.4500000e+01 
7.5000000e-01 3.0000000e+00 2.5000000e+01 
7.5000000e-01 3.0000000e+00 2.5500000e+01 
7.5000000e-01 3.0000000e+00 2.6000000e+01 
7.5000000e-01 3.0000000e+00 2.6500000e+01 
7.5000000e-01 3.0000000e+00 2.7000000e+01 
7.5000000e-01 3.0000000e+00 2.7500000e+01 
7.5000000e-01 3.0000000e+00 2.8000000e+01 
7.5000000e-01 3.0000000e+00 2.8500000e+01 
7.5000000e-01 3.0000000e+00 2.9000000e+01 
7.5000000e-01 3.0000000e+00 2.9500000e+01 
7.5000000e-01 3.0000000e+00 3.0000000e+01 
7.5000000e-01 3.0000000e+00 3.0500000e+01 
7.5000000e-01 3.0000000e+00 3.1000000e+01 
7.5000000e-01 3.0000000e+00 3.1500000e+01 
7.5000000e-01 3.0000000e+00 3.2000000e+01 
7.5000000e-01 3.0000000e+00 3.2500000e+01 
7.5000000e-01 3.0000000e+00 3.3000000e+01 
7.5000000e-01 3.0000000e+00 3.3500000e+01 
7.5000000e-01 3.0000000e+00 3.4000000e+01 
7.5000000e-01 3.0000000e+00 3.4500000e+01 
7.5000000e-01 3.0000000e+00 3.5000000e+01 
7.5000000e-01 3.0000000e+00 3.5500000e+01 
7.5000000e-01 3.0000000e+00 3.6000000e+01 
7.5000000e-01 3.0000000e+00 3.6500000e+01 
7.5000000e-01 3.0000000e+00 3.7000000e+01 
7.5000000e-01 3.0000000e+00 3.7500000e+01 
7.5000000e-01 3.0000000e+00 3.8000000e+01 
7.5000000e-01 3.0000000e+00 3.8500000e+01 
7.5000000e-01 3.0000000e+00 3.9000000e+01 
7.5000000e-01 3.0000000e+00 3.9500000e+01 
7.5000000e-01 3.0000000e+00 4.0000000e+01 
7.5000000e-01 3.0000000e+00 4.0500000e+01 
7.5000000e-01 3.0000000e+00 4.1000000e+01 
7.5000000e-01 3.0000000e+00 4.1500000e+01 
7.5000000e-01 3.0000000e+00 4.2000000e+01 
7.5000000e-01 3.0000000e+00 4.2500000e+01 
7.5000000e-01 3.0000000e+00 4.3000000e+01 
7.5000000e-01 3.0000000e+00 4.3500000e+01 
7.5000000e-01 3.0000000e+00 4.4000000e+01 
7.5000000e-01 3.0000000e+00 4.4500000e+01 
7.5000000e-01 3.0000000e+00 4.5000000e+01 
7.5000000e-01 3.0000000e+00 4.5500000e+01 
7.5000000e-01 3.0000000e+00 4.6000000e+01 
7.5000000e-01 3.0000000e+00 4.6500000e+01 
7.5000000e-01 3.0000000e+00 4.7000000e+01 
7.5000000e-01 3.0000000e+00 4.7500000e+01 
7.5000000e-01 3.0000000e+00 4.8000000e+01 
7.5000000e-01 3.0000000e+00 4.8500000e+01 
7.5000000e-01 3.0000000e+00 4.9000000e+01 
7.5000000e-01 3.0000000e+00 4.9500000e+01 
7.5000000e-01 3.0000000e+00 5.0500000e+01 
7.5000000e-01 3.0000000e+00 5.1000000e+01 
7.5000000e-01 3.0000000e+00 5.1500000e+01 
7.5000000e-01 3.0000000e+00 5.2000000e+01 
7.5000000e-01 3.0000000e+00 5.2500000e+01 
7.5000000e-01 3.0000000e+00 5.3000000e+01 
7.5000000e-01 3.0000000e+00 5.3500000e+01 
7.5000000e-01 3.0000000e+00 5.4000000e+01 
7.5000000e-01 3.0000000e+00 5.4500000e+01 
7.5000000e-01 3.0000000e+00 5.5000000e+01 
7.5000000e-01 3.0000000e+00 5.5500000e+01 
7.5000000e-01 3.0000000e+00 5.6000000e+01 
7.5000000e-01 3.0000000e+00 5.6500000e+01 
7.5000000e-01 3.0000000e+00 5.7000000e+01 
7.5000000e-01 3.0000000e+00 5.7500000e+01 
7.5000000e-01 3.0000000e+00 5.8000000e+01 
7.5000000e-01 3.0000000e+00 5.8500000e+01 
7.5000000e-01 3.0000000e+00 5.9000000e+01 
7.5000000e-01 3.0000000e+00 5.9500000e+01 
7.5000000e-01 3.0000000e+00 6.0000000e+01 
7.5000000e-01 3.0000000e+00 6.0500000e+01 
7.5000000e-01 3.0000000e+00 6.1000000e+01 
7.5000000e-01 3.0000000e+00 6.1500000e+01 
7.5000000e-01 3.0000000e+00 6.2000000e+01 
7.5000000e-01 3.0000000e+00 6.2500000e+01 
7.5000000e-01 3.0000000e+00 6.3000000e+01 
7.5000000e-01 3.0000000e+00 6.3500000e+01 
7.5000000e-01 3.0000000e+00 6.4000000e+01 
7.5000000e-01 3.0000000e+00 6.4500000e+01 
7.5000000e-01 3.0000000e+00 6.5000000e+01 
7.5000000e-01 3.0000000e+00 6.5500000e+01 
7.5000000e-01 3.0000000e+00 6.6000000e+01 
7.5000000e-01 3.0000000e+00 6.6500000e+01 
7.5000000e-01 3.0000000e+00 6.7000000e+01 
7.5000000e-01 3.0000000e+00 6.7500000e+01 
7.5000000e-01 3.0000000e+00 6.8000000e+01 
7.5000000e-01 3.0000000e+00 6.8500000e+01 
7.5000000e-01 3.0000000e+00 6.9000000e+01 
7.5000000e-01 3.0000000e+00 6.9500000e+01 
7.5000000e-01 3.0250001e+00 -2.5000000e+01 
7.5000000e-01 3.0250001e+00 -2.4500000e+01 
7.5000000e-01 3.0250001e+00 -2.4000000e+01 
7.5000000e-01 3.0250001e+00 -2.3500000e+01 
7.5000000e-01 3.0250001e+00 -2.3000000e+01 
7.5000000e-01 3.0250001e+00 -2.2500000e+01 
7.5000000e-01 3.0250001e+00 -2.2000000e+01 
7.5000000e-01 3.0250001e+00 -2.1500000e+01 
7.5000000e-01 3.0250001e+00 -2.1000000e+01 
7.5000000e-01 3.0250001e+00 -2.0500000e+01 
7.5000000e-01 3.0250001e+00 -2.0000000e+01 
7.5000000e-01 3.0250001e+00 -1.9500000e+01 
7.5000000e-01 3.0250001e+00 -1.9000000e+01 
7.5000000e-01 3.0250001e+00 -1.8500000e+01 
7.5000000e-01 3.0250001e+00 -1.8000000e+01 
7.5000000e-01 3.0250001e+00 -1.7500000e+01 
7.5000000e-01 3.0250001e+00 -1.7000000e+01 
7.5000000e-01 3.0250001e+00 -1.6500000e+01 
7.5000000e-01 3.0250001e+00 -1.6000000e+01 
7.5000000e-01 3.0250001e+00 -1.5500000e+01 
[...]
POINT_DATA 2186
FIELD FieldData 3
DISPLACEMENT 3 2186  float
0.0000000e+00 0.0000000e+00 0.0000000e+00 
0.0000000e+00 0.0000000e+00 0.0000000e+00 
0.0000000e+00 0.0000000e+00 0.0000000e+00 
0.0000000e+00 0.0000000e+00 0.0000000e+00 
9.0197068e-07 8.2711049e-06 3.3747913e-06 
-4.2861373e-08 2.2796398e-07 -1.0245004e-07 
0.0000000e+00 -6.3628941e-06 0.0000000e+00 
0.0000000e+00 3.4668713e-07 0.0000000e+00 
5.6708527e-06 1.6485612e-05 -7.4159102e-06 
-1.6259422e-07 3.0895180e-07 -8.4792248e-08 
2.2912829e-05 2.1209711e-05 -1.5913251e-05 
3.4705756e-08 -2.4149347e-07 2.7127996e-07 
0.0000000e+00 5.8441619e-06 0.0000000e+00 
0.0000000e+00 -4.7984951e-08 0.0000000e+00 
-1.8827408e-05 5.4494463e-05 -3.3824377e-05 
-3.5790495e-07 -1.5043803e-06 2.9879766e-07 
-1.6397191e-05 1.2686361e-05 -2.1461456e-05 
6.2828789e-08 1.6923003e-06 1.0480701e-07 
0.0000000e+00 1.0460025e-06 0.0000000e+00 
0.0000000e+00 -1.7505214e-06 0.0000000e+00 
0.0000000e+00 3.2207583e-05 0.0000000e+00 
0.0000000e+00 1.6611304e-05 0.0000000e+00 
0.0000000e+00 -1.5124695e-05 0.0000000e+00 
0.0000000e+00 -3.6218942e-05 0.0000000e+00 
0.0000000e+00 -3.0329094e-05 0.0000000e+00 
0.0000000e+00 -2.9339003e-06 0.0000000e+00 
0.0000000e+00 2.4631208e-05 0.0000000e+00 
0.0000000e+00 3.2757020e-05 0.0000000e+00 
0.0000000e+00 1.7918057e-05 0.0000000e+00 
0.0000000e+00 -6.9025086e-06 0.0000000e+00 
0.0000000e+00 -2.3978526e-05 0.0000000e+00 
0.0000000e+00 -2.3872553e-05 0.0000000e+00 
0.0000000e+00 -9.9794288e-06 0.0000000e+00 
0.0000000e+00 6.6520602e-06 0.0000000e+00 
0.0000000e+00 1.6124817e-05 0.0000000e+00 
0.0000000e+00 1.5299825e-05 0.0000000e+00 
0.0000000e+00 7.6950082e-06 0.0000000e+00 
0.0000000e+00 -4.8119040e-07 0.0000000e+00 
0.0000000e+00 -4.8669676e-06 0.0000000e+00 
0.0000000e+00 -5.4512016e-06 0.0000000e+00 
0.0000000e+00 -5.6557974e-06 0.0000000e+00 
0.0000000e+00 -8.3708719e-06 0.0000000e+00 
0.0000000e+00 -1.1912221e-05 0.0000000e+00 
0.0000000e+00 -1.0201168e-05 0.0000000e+00 
0.0000000e+00 1.4547760e-06 0.0000000e+00 
0.0000000e+00 1.9601963e-05 0.0000000e+00 
0.0000000e+00 3.2289779e-05 0.0000000e+00 
0.0000000e+00 2.7496506e-05 0.0000000e+00 
0.0000000e+00 3.8988605e-06 0.0000000e+00 
0.0000000e+00 -2.5817702e-05 0.0000000e+00 
0.0000000e+00 -4.2920426e-05 0.0000000e+00 
0.0000000e+00 -3.6052184e-05 0.0000000e+00 
0.0000000e+00 -9.7384273e-06 0.0000000e+00 
0.0000000e+00 1.8673374e-05 0.0000000e+00 
0.0000000e+00 3.1631975e-05 0.0000000e+00 
0.0000000e+00 2.4118846e-05 0.0000000e+00 
0.0000000e+00 6.4481947e-06 0.0000000e+00 
0.0000000e+00 -5.1963602e-06 0.0000000e+00 
0.0000000e+00 -2.4143162e-06 0.0000000e+00 
0.0000000e+00 9.1346265e-06 0.0000000e+00 
0.0000000e+00 1.5470583e-05 0.0000000e+00 
0.0000000e+00 6.4577403e-06 0.0000000e+00 
0.0000000e+00 -1.5442965e-05 0.0000000e+00 
0.0000000e+00 -3.6243175e-05 0.0000000e+00 
0.0000000e+00 -4.0822637e-05 0.0000000e+00 
0.0000000e+00 -2.5313549e-05 0.0000000e+00 
0.0000000e+00 -1.0042331e-06 0.0000000e+00 
0.0000000e+00 1.5144700e-05 0.0000000e+00 
0.0000000e+00 1.5748328e-05 0.0000000e+00 
0.0000000e+00 9.4921006e-06 0.0000000e+00 
-4.8556692e-05 3.2566622e-05 -4.8219179e-05 
-3.8902526e-05 6.2942578e-05 -9.0344285e-05 
-3.9759248e-05 8.2950319e-05 -1.0883390e-04 
-6.5307053e-05 7.8923033e-05 -1.4421757e-04 
-4.8410111e-06 6.2665291e-05 -1.7044869e-04 
-7.0907436e-06 6.0320679e-05 -1.0947564e-04 
2.3895891e-05 9.3707378e-05 -9.9101424e-05 
4.7236168e-05 1.6456007e-04 -8.2690000e-05 
6.7490117e-05 2.2964357e-04 -5.6243385e-05 
5.1415496e-05 2.2936636e-04 -2.4959445e-05 
1.0343645e-04 1.4408882e-04 2.1808390e-05 
5.0048628e-05 -1.1391423e-05 7.4074007e-05 
6.2200626e-05 -2.6033720e-04 1.3457185e-04 
-2.2480128e-05 -6.8669493e-04 1.1303423e-04 
-5.8981521e-05 -1.4365239e-03 2.6020585e-04 
-1.3842604e-04 -2.6002156e-03 1.6576014e-04 
-1.8518759e-04 -4.0157437e-03 2.9437314e-04 
-2.3848245e-04 -4.9781217e-03 1.8369223e-04 
-2.6512699e-04 -4.8442553e-03 1.7797422e-04 
-2.7745651e-04 -4.2850832e-03 1.6583722e-04 
-3.3154857e-04 -4.1035372e-03 1.7258713e-04 
-3.9156681e-04 -4.3918029e-03 4.4057211e-05 
-3.9402963e-04 -4.5956722e-03 -6.8095113e-05 
-3.2294542e-04 -3.8089934e-03 -1.0328204e-04 
-2.2704096e-04 -2.5391390e-03 -2.6783909e-04 
-1.6367038e-04 -1.3329959e-03 -3.0764882e-04 
-5.9029200e-05 -4.5383238e-04 -1.5037436e-04 
-1.1712501e-05 2.3076962e-05 -1.1859129e-04 
-1.9602598e-05 1.8632881e-04 -1.6164016e-04 
9.9872959e-06 1.7952104e-04 -1.5595905e-04 
7.4979391e-05 1.2740417e-04 -1.0919633e-04 
8.1922670e-05 8.1442748e-05 -3.6362177e-05 
6.3353866e-05 4.1880121e-05 4.5778910e-05 
3.4083609e-05 2.5549409e-06 1.1722047e-04 
-1.3183271e-05 -2.5187535e-05 1.0643935e-04 
-2.5588011e-05 -2.7275555e-05 6.8927518e-05 
-3.5086276e-05 -6.6934249e-06 1.4753755e-05 
-1.5588908e-05 1.7963284e-05 -1.3812618e-05 
-9.1074780e-06 3.0667819e-05 -2.1105385e-05 
-2.4460802e-05 2.7575546e-05 -2.1184173e-05 
-4.7678754e-05 2.0255526e-05 -5.3593645e-05 
-4.4750919e-05 2.4415012e-05 -8.5083120e-05 
-3.5313944e-05 4.4777760e-05 -1.0219859e-04 
-1.1352601e-05 7.4540396e-05 -1.1949802e-04 
1.3860039e-05 9.8903220e-05 -1.3845573e-04 
5.8327996e-06 1.0250457e-04 -1.0582760e-04 
4.3707299e-05 9.8215438e-05 -9.3605777e-05 
3.3863525e-05 1.2997449e-04 -7.3680021e-05 
8.7924185e-05 2.0108822e-04 -1.2714095e-05 
4.8990056e-05 2.4406073e-04 1.0248570e-05 
1.0027329e-04 1.8254320e-04 3.0956264e-05 
5.2754152e-05 -2.1751333e-05 8.1446829e-05 
4.7859361e-05 -3.7873330e-04 1.3819609e-04 
-1.2524320e-05 -9.0485980e-04 1.3127332e-04 
-6.1406405e-05 -1.6940495e-03 3.0118247e-04 
-1.5447396e-04 -2.8143227e-03 1.4675116e-04 
-2.3156859e-04 -4.1593662e-03 2.7408023e-04 
-3.3418532e-04 -5.0863381e-03 1.7451978e-04 
-3.6093392e-04 -4.9133464e-03 1.2528099e-04 
-3.5282524e-04 -4.3431860e-03 1.4705332e-04 
-3.4836694e-04 -4.1568074e-03 1.3507338e-04 
-3.5899482e-04 -4.4081109e-03 4.6587978e-05 
-3.5973336e-04 -4.5353053e-03 -9.2421848e-05 
-3.0539118e-04 -3.5865172e-03 -1.1454673e-04 
-1.9144405e-04 -2.2280191e-03 -3.0456498e-04 
-1.0851456e-04 -1.0418840e-03 -1.6788483e-04 
-5.4477692e-05 -2.9334231e-04 -2.0424709e-04 
-1.2839758e-05 6.7387096e-05 -1.1359056e-04 
-7.7581279e-07 1.8207016e-04 -1.4133466e-04 
1.3090626e-05 1.8175160e-04 -1.3842122e-04 
5.9064019e-05 1.4334684e-04 -1.0561835e-04 
5.0941224e-05 9.1528666e-05 -5.9459722e-05 
4.0858427e-05 3.7901340e-05 2.4678286e-05 
9.2293612e-06 -1.3142821e-07 4.4220869e-05 
-1.5935662e-05 -1.3984638e-05 5.6559038e-05 
-2.4139370e-05 -1.1146483e-05 5.0998064e-05 
-1.9950750e-05 -4.2571364e-06 1.2822495e-05 
-7.8986213e-06 1.5265481e-06 2.8371146e-06 
6.8473361e-07 7.8501052e-06 -1.0396285e-05 
2.7858596e-06 1.1374470e-05 -1.2548692e-05 
2.3459811e-06 6.5974464e-06 -4.8520519e-06 
1.9994282e-06 -4.0616919e-06 -3.6919229e-07 
1.2694454e-06 -1.2301352e-05 3.1667906e-08 
1.2580041e-06 -1.1043400e-05 1.4500818e-06 
-3.8760652e-07 -1.3533414e-06 3.0641211e-06 
-5.7809802e-07 7.5505523e-06 5.7939860e-07 
-7.4722072e-07 8.5540887e-06 6.3041512e-08 
-2.7906785e-07 3.1513839e-06 -4.3892808e-08 
1.7262896e-07 -2.6757896e-06 -1.4218199e-06 
2.6046899e-07 -4.5892930e-06 2.5309637e-09 
1.7888830e-07 -2.4984934e-06 4.1012777e-07 
-2.3889930e-07 6.4129227e-07 -3.8163495e-07 
3.0688756e-08 2.3727866e-06 6.0664894e-07 
-3.4767518e-09 2.0776638e-06 -1.5253866e-08 
-9.3387825e-08 2.5776779e-07 -2.7978504e-07 
2.7556862e-07 -1.6517096e-06 -4.2920043e-08 
1.6867662e-07 -2.2735990e-06 -2.2885888e-07 
-1.6617859e-07 -1.2880437e-06 3.7170633e-08 
8.3859554e-08 5.1001297e-07 1.2964624e-07 
0.0000000e+00 1.3502937e-06 0.0000000e+00 
0.0000000e+00 -2.0392970e-07 0.0000000e+00 
0.0000000e+00 -1.7747963e-06 0.0000000e+00 
0.0000000e+00 -2.1868375e-06 0.0000000e+00 
0.0000000e+00 -1.2126089e-06 0.0000000e+00 
0.0000000e+00 3.4849873e-07 0.0000000e+00 
0.0000000e+00 1.4289610e-06 0.0000000e+00 
0.0000000e+00 1.5017507e-06 0.0000000e+00 
0.0000000e+00 7.6651003e-07 0.0000000e+00 
0.0000000e+00 -2.1785868e-07 0.0000000e+00 
0.0000000e+00 -9.3869068e-07 0.0000000e+00 
0.0000000e+00 -1.0923225e-06 0.0000000e+00 
0.0000000e+00 -6.3035850e-07 0.0000000e+00 
0.0000000e+00 1.8195269e-07 0.0000000e+00 
0.0000000e+00 8.3070887e-07 0.0000000e+00 
0.0000000e+00 8.7426628e-07 0.0000000e+00 
0.0000000e+00 3.1049026e-07 0.0000000e+00 
0.0000000e+00 -3.9743952e-07 0.0000000e+00 
0.0000000e+00 -7.1442764e-07 0.0000000e+00 
0.0000000e+00 -4.7327674e-07 0.0000000e+00 
0.0000000e+00 4.9257707e-08 0.0000000e+00 
0.0000000e+00 4.3021407e-07 0.0000000e+00 
0.0000000e+00 4.3944470e-07 0.0000000e+00 
0.0000000e+00 1.4663448e-07 0.0000000e+00 
0.0000000e+00 -1.9665192e-07 0.0000000e+00 
0.0000000e+00 -3.4620632e-07 0.0000000e+00 
0.0000000e+00 -2.1586351e-07 0.0000000e+00 
0.0000000e+00 6.8129481e-08 0.0000000e+00 
0.0000000e+00 2.5985074e-07 0.0000000e+00 
0.0000000e+00 2.0248520e-07 0.0000000e+00 
0.0000000e+00 -2.4143510e-08 0.0000000e+00 
0.0000000e+00 -1.8742124e-07 0.0000000e+00 
0.0000000e+00 -1.4636356e-07 0.0000000e+00 
0.0000000e+00 1.5800659e-08 0.0000000e+00 
0.0000000e+00 1.1651822e-07 0.0000000e+00 
0.0000000e+00 8.5423203e-08 0.0000000e+00 
0.0000000e+00 3.2164416e-09 0.0000000e+00 
0.0000000e+00 -3.9803876e-08 0.0000000e+00 
0.0000000e+00 -4.4275584e-08 0.0000000e+00 
0.0000000e+00 3.1813121e-05 0.0000000e+00 
0.0000000e+00 1.6413323e-05 0.0000000e+00 
0.0000000e+00 -1.4932750e-05 0.0000000e+00 
0.0000000e+00 -3.5787583e-05 0.0000000e+00 
0.0000000e+00 -2.9993804e-05 0.0000000e+00 
0.0000000e+00 -2.9248085e-06 0.0000000e+00 
0.0000000e+00 2.4357905e-05 0.0000000e+00 
0.0000000e+00 3.2439013e-05 0.0000000e+00 
0.0000000e+00 1.7768971e-05 0.0000000e+00 
0.0000000e+00 -6.8353206e-06 0.0000000e+00 
0.0000000e+00 -2.3787094e-05 0.0000000e+00 
0.0000000e+00 -2.3680015e-05 0.0000000e+00 
0.0000000e+00 -9.8740074e-06 0.0000000e+00 
0.0000000e+00 6.6251405e-06 0.0000000e+00 
0.0000000e+00 1.5974572e-05 0.0000000e+00 
0.0000000e+00 1.5114197e-05 0.0000000e+00 
0.0000000e+00 7.6126635e-06 0.0000000e+00 
0.0000000e+00 -3.8165524e-07 0.0000000e+00 
0.0000000e+00 -4.6674336e-06 0.0000000e+00 
0.0000000e+00 -5.3498015e-06 0.0000000e+00 
0.0000000e+00 -5.7763259e-06 0.0000000e+00 
0.0000000e+00 -8.6082237e-06 0.0000000e+00 
0.0000000e+00 -1.2006060e-05 0.0000000e+00 
0.0000000e+00 -1.0002485e-05 0.0000000e+00 
0.0000000e+00 1.7970367e-06 0.0000000e+00 
0.0000000e+00 1.9758580e-05 0.0000000e+00 
0.0000000e+00 3.2074535e-05 0.0000000e+00 
0.0000000e+00 2.7060858e-05 0.0000000e+00 
0.0000000e+00 3.5998773e-06 0.0000000e+00 
0.0000000e+00 -2.5731601e-05 0.0000000e+00 
0.0000000e+00 -4.2508640e-05 0.0000000e+00 
0.0000000e+00 -3.5623772e-05 0.0000000e+00 
0.0000000e+00 -9.6175227e-06 0.0000000e+00 
0.0000000e+00 1.8388742e-05 0.0000000e+00 
0.0000000e+00 3.1159139e-05 0.0000000e+00 
0.0000000e+00 2.3837203e-05 0.0000000e+00 
0.0000000e+00 6.5866393e-06 0.0000000e+00 
0.0000000e+00 -4.7619010e-06 0.0000000e+00 
0.0000000e+00 -2.0466994e-06 0.0000000e+00 
0.0000000e+00 9.1514003e-06 0.0000000e+00 
0.0000000e+00 1.5143497e-05 0.0000000e+00 
0.0000000e+00 6.0445723e-06 0.0000000e+00 
0.0000000e+00 -1.5626867e-05 0.0000000e+00 
0.0000000e+00 -3.6041161e-05 0.0000000e+00 
0.0000000e+00 -4.0385712e-05 0.0000000e+00 
0.0000000e+00 -2.5033729e-05 0.0000000e+00 
0.0000000e+00 -1.1737798e-06 0.0000000e+00 
0.0000000e+00 1.4657915e-05 0.0000000e+00 
0.0000000e+00 1.5411346e-05 0.0000000e+00 
0.0000000e+00 9.6667191e-06 0.0000000e+00 
0.0000000e+00 1.3002062e-05 0.0000000e+00 
0.0000000e+00 3.3170523e-05 0.0000000e+00 
0.0000000e+00 6.2943021e-05 0.0000000e+00 
0.0000000e+00 8.2251099e-05 0.0000000e+00 
0.0000000e+00 7.8375604e-05 0.0000000e+00 
0.0000000e+00 6.2354819e-05 0.0000000e+00 
0.0000000e+00 6.0467170e-05 0.0000000e+00 
0.0000000e+00 9.5512522e-05 0.0000000e+00 
0.0000000e+00 1.6581720e-04 0.0000000e+00 
0.0000000e+00 2.2852354e-04 0.0000000e+00 
0.0000000e+00 2.2788963e-04 0.0000000e+00 
0.0000000e+00 1.4471619e-04 0.0000000e+00 
0.0000000e+00 -9.8730616e-06 0.0000000e+00 
0.0000000e+00 -2.5762821e-04 0.0000000e+00 
0.0000000e+00 -6.8717817e-04 0.0000000e+00 
0.0000000e+00 -1.4442807e-03 0.0000000e+00 
0.0000000e+00 -2.6206432e-03 0.0000000e+00 
0.0000000e+00 -4.0331194e-03 0.0000000e+00 
0.0000000e+00 -5.0062174e-03 0.0000000e+00 
0.0000000e+00 -4.8665842e-03 0.0000000e+00 
0.0000000e+00 -4.3117278e-03 0.0000000e+00 
0.0000000e+00 -4.1266722e-03 0.0000000e+00 
0.0000000e+00 -4.4241119e-03 0.0000000e+00 
0.0000000e+00 -4.6182512e-03 0.0000000e+00 
0.0000000e+00 -3.8357046e-03 0.0000000e+00 
0.0000000e+00 -2.5512753e-03 0.0000000e+00 
0.0000000e+00 -1.3393637e-03 0.0000000e+00 
0.0000000e+00 -4.5963787e-04 0.0000000e+00 
0.0000000e+00 2.1923033e-05 0.0000000e+00 
0.0000000e+00 1.8771803e-04 0.0000000e+00 
0.0000000e+00 1.8231411e-04 0.0000000e+00 
0.0000000e+00 1.2892409e-04 0.0000000e+00 
0.0000000e+00 8.1357728e-05 0.0000000e+00 
0.0000000e+00 4.1365904e-05 0.0000000e+00 
0.0000000e+00 2.6799983e-06 0.0000000e+00 
0.0000000e+00 -2.4680903e-05 0.0000000e+00 
0.0000000e+00 -2.7011289e-05 0.0000000e+00 
0.0000000e+00 -6.7810279e-06 0.0000000e+00 
0.0000000e+00 1.7817181e-05 0.0000000e+00 
0.0000000e+00 3.0257581e-05 0.0000000e+00 
0.0000000e+00 2.7275073e-05 0.0000000e+00 
0.0000000e+00 2.0415688e-05 0.0000000e+00 
0.0000000e+00 2.4723891e-05 0.0000000e+00 
0.0000000e+00 4.5322544e-05 0.0000000e+00 
0.0000000e+00 7.5001481e-05 0.0000000e+00 
0.0000000e+00 9.7808443e-05 0.0000000e+00 
0.0000000e+00 1.0070443e-04 0.0000000e+00 
0.0000000e+00 9.9112869e-05 0.0000000e+00 
0.0000000e+00 1.3261457e-04 0.0000000e+00 
0.0000000e+00 2.0221328e-04 0.0000000e+00 
0.0000000e+00 2.4348070e-04 0.0000000e+00 
0.0000000e+00 1.8099071e-04 0.0000000e+00 
0.0000000e+00 -2.2747690e-05 0.0000000e+00 
0.0000000e+00 -3.7629411e-04 0.0000000e+00 
0.0000000e+00 -9.0521300e-04 0.0000000e+00 
0.0000000e+00 -1.6987988e-03 0.0000000e+00 
0.0000000e+00 -2.8327610e-03 0.0000000e+00 
0.0000000e+00 -4.1814409e-03 0.0000000e+00 
0.0000000e+00 -5.1201824e-03 0.0000000e+00 
0.0000000e+00 -4.9317461e-03 0.0000000e+00 
0.0000000e+00 -4.3694526e-03 0.0000000e+00 
0.0000000e+00 -4.1771410e-03 0.0000000e+00 
0.0000000e+00 -4.4419328e-03 0.0000000e+00 
0.0000000e+00 -4.5584789e-03 0.0000000e+00 
0.0000000e+00 -3.6118389e-03 0.0000000e+00 
0.0000000e+00 -2.2396061e-03 0.0000000e+00 
0.0000000e+00 -1.0527440e-03 0.0000000e+00 
0.0000000e+00 -2.9556872e-04 0.0000000e+00 
0.0000000e+00 6.8712434e-05 0.0000000e+00 
0.0000000e+00 1.8408844e-04 0.0000000e+00 
0.0000000e+00 1.8328644e-04 0.0000000e+00 
0.0000000e+00 1.4368418e-04 0.0000000e+00 
0.0000000e+00 9.1549475e-05 0.0000000e+00 
0.0000000e+00 3.8393202e-05 0.0000000e+00 
0.0000000e+00 2.7180909e-07 0.0000000e+00 
0.0000000e+00 -1.4006397e-05 0.0000000e+00 
0.0000000e+00 -1.1384299e-05 0.0000000e+00 
0.0000000e+00 -4.3811642e-06 0.0000000e+00 
0.0000000e+00 1.7440924e-06 0.0000000e+00 
0.0000000e+00 7.8485327e-06 0.0000000e+00 
0.0000000e+00 1.1013803e-05 0.0000000e+00 
0.0000000e+00 6.4638425e-06 0.0000000e+00 
0.0000000e+00 -3.8828430e-06 0.0000000e+00 
0.0000000e+00 -1.2008838e-05 0.0000000e+00 
0.0000000e+00 -1.0862558e-05 0.0000000e+00 
0.0000000e+00 -1.5189150e-06 0.0000000e+00 
0.0000000e+00 7.2503722e-06 0.0000000e+00 
0.0000000e+00 8.4769936e-06 0.0000000e+00 
0.0000000e+00 3.2713556e-06 0.0000000e+00 
0.0000000e+00 -2.5374666e-06 0.0000000e+00 
0.0000000e+00 -4.5245920e-06 0.0000000e+00 
0.0000000e+00 -2.5424990e-06 0.0000000e+00 
0.0000000e+00 5.7752152e-07 0.0000000e+00 
0.0000000e+00 2.3480889e-06 0.0000000e+00 
0.0000000e+00 2.0525767e-06 0.0000000e+00 
0.0000000e+00 2.6429151e-07 0.0000000e+00 
0.0000000e+00 -1.6082944e-06 0.0000000e+00 
0.0000000e+00 -2.2378540e-06 0.0000000e+00 
0.0000000e+00 -1.2806651e-06 0.0000000e+00 
0.0000000e+00 4.7872743e-07 0.0000000e+00 
0.0000000e+00 1.6509314e-06 0.0000000e+00 
0.0000000e+00 1.3314863e-06 0.0000000e+00 
0.0000000e+00 -1.9243340e-07 0.0000000e+00 
0.0000000e+00 -1.7424017e-06 0.0000000e+00 
0.0000000e+00 -2.1627020e-06 0.0000000e+00 
0.0000000e+00 -1.2150907e-06 0.0000000e+00 
0.0000000e+00 3.2759374e-07 0.0000000e+00 
0.0000000e+00 1.4107210e-06 0.0000000e+00 
0.0000000e+00 1.4971680e-06 0.0000000e+00 
0.0000000e+00 7.7104050e-07 0.0000000e+00 
0.0000000e+00 -2.1157003e-07 0.0000000e+00 
0.0000000e+00 -9.3134770e-07 0.0000000e+00 
0.0000000e+00 -1.0832632e-06 0.0000000e+00 
0.0000000e+00 -6.2526527e-07 0.0000000e+00 
0.0000000e+00 1.7574345e-07 0.0000000e+00 
0.0000000e+00 8.1564895e-07 0.0000000e+00 
0.0000000e+00 8.6329504e-07 0.0000000e+00 
0.0000000e+00 3.1372625e-07 0.0000000e+00 
0.0000000e+00 -3.8378266e-07 0.0000000e+00 
0.0000000e+00 -7.0334329e-07 0.0000000e+00 
0.0000000e+00 -4.7312750e-07 0.0000000e+00 
0.0000000e+00 4.1192806e-08 0.0000000e+00 
0.0000000e+00 4.2192076e-07 0.0000000e+00 
0.0000000e+00 4.3602213e-07 0.0000000e+00 
0.0000000e+00 1.4862614e-07 0.0000000e+00 
0.0000000e+00 -1.9091054e-07 0.0000000e+00 
0.0000000e+00 -3.3998990e-07 0.0000000e+00 
0.0000000e+00 -2.1396815e-07 0.0000000e+00 
0.0000000e+00 6.3141762e-08 0.0000000e+00 
0.0000000e+00 2.5205674e-07 0.0000000e+00 
0.0000000e+00 1.9994525e-07 0.0000000e+00 
0.0000000e+00 -1.8505583e-08 0.0000000e+00 
0.0000000e+00 -1.8011924e-07 0.0000000e+00 
0.0000000e+00 -1.4584194e-07 0.0000000e+00 
0.0000000e+00 9.6818091e-09 0.0000000e+00 
0.0000000e+00 1.1202204e-07 0.0000000e+00 
0.0000000e+00 8.7849862e-08 0.0000000e+00 
0.0000000e+00 8.2315044e-09 0.0000000e+00 
0.0000000e+00 -3.9344787e-08 0.0000000e+00 
0.0000000e+00 -4.7594675e-08 0.0000000e+00 
0.0000000e+00 0.0000000e+00 0.0000000e+00 
0.0000000e+00 0.0000000e+00 0.0000000e+00 
0.0000000e+00 0.0000000e+00 0.0000000e+00 
0.0000000e+00 0.0000000e+00 0.0000000e+00 
0.0000000e+00 0.0000000e+00 0.0000000e+00 
0.0000000e+00 0.0000000e+00 0.0000000e+00 
0.0000000e+00 0.0000000e+00 0.0000000e+00 
0.0000000e+00 0.0000000e+00 0.0000000e+00 
0.0000000e+00 0.0000000e+00 0.0000000e+00 
0.0000000e+00 0.0000000e+00 0.0000000e+00 
0.0000000e+00 0.0000000e+00 0.0000000e+00 
0.0000000e+00 0.0000000e+00 0.0000000e+00 
0.0000000e+00 0.0000000e+00 0.0000000e+00 
0.0000000e+00 0.0000000e+00 0.0000000e+00 
0.0000000e+00 0.0000000e+00 0.0000000e+00 
0.0000000e+00 0.0000000e+00 0.0000000e+00 
0.0000000e+00 0.0000000e+00 0.0000000e+00 
0.0000000e+00 0.0000000e+00 0.0000000e+00 
0.0000000e+00 0.0000000e+00 0.0000000e+00 
0.0000000e+00 0.0000000e+00 0.0000000e+00 
0.0000000e+00 0.0000000e+00 0.0000000e+00 
0.0000000e+00 0.0000000e+00 0.0000000e+00 
0.0000000e+00 0.0000000e+00 0.0000000e+00 
0.0000000e+00 0.0000000e+00 0.0000000e+00 
0.0000000e+00 0.0000000e+00 0.0000000e+00 
0.0000000e+00 0.0000000e+00 0.0000000e+00 
0.0000000e+00 0.0000000e+00 0.0000000e+00 
0.0000000e+00 0.0000000e+00 0.0000000e+00 
0.0000000e+00 0.0000000e+00 0.0000000e+00 
0.0000000e+00 0.0000000e+00 0.0000000e+00 
0.0000000e+00 0.0000000e+00 0.0000000e+00 
0.0000000e+00 0.0000000e+00 0.0000000e+00 
0.0000000e+00 0.0000000e+00 0.0000000e+00 
0.0000000e+00 0.0000000e+00 0.0000000e+00 
0.0000000e+00 0.0000000e+00 0.0000000e+00 
0.0000000e+00 0.0000000e+00 0.0000000e+00 
0.0000000e+00 0.0000000e+00 0.0000000e+00 
0.0000000e+00 0.0000000e+00 0.0000000e+00 
0.0000000e+00 0.0000000e+00 0.0000000e+00 
0.0000000e+00 0.0000000e+00 0.0000000e+00 
0.0000000e+00 0.0000000e+00 0.0000000e+00 
0.0000000e+00 0.0000000e+00 0.0000000e+00 
0.0000000e+00 0.0000000e+00 0.0000000e+00 
0.0000000e+00 0.0000000e+00 0.0000000e+00 
0.0000000e+00 0.0000000e+00 0.0000000e+00 
0.0000000e+00 0.0000000e+00 0.0000000e+00 
0.0000000e+00 0.0000000e+00 0.0000000e+00 
0.0000000e+00 0.0000000e+00 0.0000000e+00 
0.0000000e+00 0.0000000e+00 0.0000000e+00 
0.0000000e+00 0.0000000e+00 0.0000000e+00 
0.0000000e+00 0.0000000e+00 0.0000000e+00 
0.0000000e+00 0.0000000e+00 0.0000000e+00 
0.0000000e+00 0.0000000e+00 0.0000000e+00 
0.0000000e+00 0.0000000e+00 0.0000000e+00 
0.0000000e+00 0.0000000e+00 0.0000000e+00 
0.0000000e+00 0.0000000e+00 0.0000000e+00 
0.0000000e+00 0.0000000e+00 0.0000000e+00 
0.0000000e+00 0.0000000e+00 0.0000000e+00 