# vtk DataFile Version 4.0
vtk output
ASCII
DATASET UNSTRUCTURED_GRID
POINTS 2186 float
0.0000000e+00 0.0000000e+00 0.0000000e+00 
0.0000000e+00 0.0000000e+00 5.0000000e+01 
5.0000000e+00 0.0000000e+00 0.0000000e+00 
5.0000000e+00 0.0000000e+00 5.0000000e+01 
5.0000000e+00 1.0000000e+00 0.0000000e+00 
5.0000000e+00 1.0000000e+00 5.0000000e+01 
0.0000000e+00 1.0000000e+00 0.0000000e+00 
0.0000000e+00 1.0000000e+00 5.0000000e+01 
5.0000000e+00 2.0000000e+00 0.0000000e+00 
5.0000000e+00 2.0000000e+00 5.0000000e+01 
3.0000000e+00 2.0000000e+00 0.0000000e+00 
3.0000000e+00 2.0000000e+00 5.0000000e+01 
0.0000000e+00 2.0000000e+00 0.0000000e+00 
0.0000000e+00 2.0000000e+00 5.0000000e+01 
1.5000000e+00 3.0000000e+00 0.0000000e+00 
1.5000000e+00 3.0000000e+00 5.0000000e+01 
7.5000000e-01 3.0000000e+00 0.0000000e+00 
7.5000000e-01 3.0000000e+00 5.0000000e+01 
0.0000000e+00 3.0000000e+00 0.0000000e+00 
0.0000000e+00 3.0000000e+00 5.0000000e+01 
7.5000000e-01 3.0000000e+00 -2.5000000e+01 
7.5000000e-01 3.0000000e+00 -2.4500000e+01 
7.5000000e-01 3.0000000e+00 -2.4000000e+01 
7.5000000e-01 3.0000000e+00 -2.3500000e+01 
7.5000000e-01 3.0000000e+00 -2.3000000e+01 
7.5000000e-01 3.0000000e+00 -2.2500000e+01 
7.5000000e-01 3.0000000e+00 -2.2000000e+01 
7.5000000e-01 3.0000000e+00 -2.1500000e+01 
7.5000000e-01 3.0000000e+00 -2.1000000e+01 
7.5000000e-01 3.0000000e+00 -2.0500000e+01 
7.5000000e-01 3.0000000e+00 -2.0000000e+01 
7.5000000e-01 3.0000000e+00 -1.9500000e+01 
7.5000000e-01 3.0000000e+00 -1.9000000e+01 
7.5000000e-01 3.0000000e+00 -1.8500000e+01 
7.5000000e-01 3.0000000e+00 -1.8000000e+01 
7.5000000e-01 3.0000000e+00 -1.7500000e+01 
7.5000000e-01 3.0000000e+00 -1.7000000e+01 
7.5000000e-01 3.0000000e+00 -1.6500000e+01 
7.5000000e-01 3.0000000e+00 -1.6000000e+01 
7.5000000e-01 3.0000000e+00 -1.5500000e+01 
7.5000000e-01 3.0000000e+00 -1.5000000e+01 
7.5000000e-01 3.0000000e+00 -1.4500000e+01 
7.5000000e-01 3.0000000e+00 -1.4000000e+01 
7.5000000e-01 3.0000000e+00 -1.3500000e+01 
7.5000000e-01 3.0000000e+00 -1.3000000e+01 
7.5000000e-01 3.0000000e+00 -1.2500000e+01 
7.5000000e-01 3.0000000e+00 -1.2000000e+01 
7.5000000e-01 3.0000000e+00 -1.1500000e+01 
7.5000000e-01 3.0000000e+00 -1.1000000e+01 
7.5000000e-01 3.0000000e+00 -1.0500000e+01 
7.5000000e-01 3.0000000e+00 -1.0000000e+01 
7.5000000e-01 3.0000000e+00 -9.5000000e+00 
7.5000000e-01 3.0000000e+00 -9.0000000e+00 
7.5000000e-01 3.0000000e+00 -8.5000000e+00 
7.5000000e-01 3.0000000e+00 -8.0000000e+00 
7.5000000e-01 3.0000000e+00 -7.5000000e+00 
7.5000000e-01 3.0000000e+00 -7.0000000e+00 
7.5000000e-01 3.0000000e+00 -6.5000000e+00 
7.5000000e-01 3.0000000e+00 -6.0000000e+00 
7.5000000e-01 3.0000000e+00 -5.5000000e+00 
7.5000000e-01 3.0000000e+00 -5.0000000e+00 
7.5000000e-01 3.0000000e+00 -4.5000000e+00 
7.5000000e-01 3.0000000e+00 -4.0000000e+00 
7.5000000e-01 3.0000000e+00 -3.5000000e+00 
7.5000000e-01 3.0000000e+00 -3.0000000e+00 
7.5000000e-01 3.0000000e+00 -2.5000000e+00 
7.5000000e-01 3.0000000e+00 -2.0000000e+00 
7.5000000e-01 3.0000000e+00 -1.5000000e+00 
7.5000000e-01 3.0000000e+00 -1.0000000e+00 
7.5000000e-01 3.0000000e+00 -5.0000000e-01 
7.5000000e-01 3.0000000e+00 5.0000000e-01 
7.5000000e-01 3.0000000e+00 1.0000000e+00 
7.5000000e-01 3.0000000e+00 1.5000000e+00 
7.5000000e-01 3.0000000e+00 2.0000000e+00 
7.5000000e-01 3.0000000e+00 2.5000000e+00 
7.5000000e-01 3.0000000e+00 3.0000000e+00 
7.5000000e-01 3.0000000e+00 3.5000000e+00 
7.5000000e-01 3.0000000e+00 4.0000000e+00 
7.5000000e-01 3.0000000e+00 4.5000000e+00 
7.5000000e-01 3.0000000e+00 5.0000000e+00 
7.5000000e-01 3.0000000e+00 5.5000000e+00 
7.5000000e-01 3.0000000e+00 6.0000000e+00 
7.5000000e-01 3.0000000e+00 6.5000000e+00 
7.5000000e-01 3.0000000e+00 7.0000000e+00 
7.5000000e-01 3.0000000e+00 7.5000000e+00 
7.5000000e-01 3.0000000e+00 8.0000000e+00 
7.5000000e-01 3.0000000e+00 8.5000000e+00 
7.5000000e-01 3.0000000e+00 9.0000000e+00 
7.5000000e-01 3.0000000e+00 9.5000000e+00 
7.5000000e-01 3.0000000e+00 1.0000000e+01 
7.5000000e-01 3.0000000e+00 1.0500000e+01 
7.5000000e-01 3.0000000e+00 1.1000000e+01 
7.5000000e-01 3.0000000e+00 1.1500000e+01 
7.5000000e-01 3.0000000e+00 1.2000000e+01 
7.5000000e-01 3.0000000e+00 1.2500000e+01 
7.5000000e-01 3.0000000e+00 1.3000000e+01 
7.5000000e-01 3.0000000e+00 1.3500000e+01 
7.5000000e-01 3.0000000e+00 1.4000000e+01 
7.5000000e-01 3.0000000e+00 1.4500000e+01 
7.5000000e-01 3.0000000e+00 1.5000000e+01 
7.5000000e-01 3.0000000e+00 1.5500000e+01 
7.5000000e-01 3.0000000e+00 1.6000000e+01 
7.5000000e-01 3.0000000e+00 1.6500000e+01 
7.5000000e-01 3.0000000e+00 1.7000000e+01 
7.5000000e-01 3.0000000e+00 1.7500000e+01 
7.5000000e-01 3.0000000e+00 1.8000000e+01 
7.5000000e-01 3.0000000e+00 1.8500000e+01 
7.5000000e-01 3.0000000e+00 1.9000000e+01 
7.5000000e-01 3.0000000e+00 1.9500000e+01 
7.5000000e-01 3.0000000e+00 2.0000000e+01 
7.5000000e-01 3.0000000e+00 2.0500000e+01 
7.5000000e-01 3.0000000e+00 2.1000000e+01 
7.5000000e-01 3.0000000e+00 2.1500000e+01 
7.5000000e-01 3.0000000e+00 2.2000000e+01 
7.5000000e-01 3.0000000e+00 2.2500000e+01 
7.5000000e-01 3.0000000e+00 2.3000000e+01 
7.5000000e-01 3.0000000e+00 2.3500000e+01 
7.5000000e-01 3.0000000e+00 2.4000000e+01 
7.5000000e-01 3.0000000e+00 2.4500000e+01 
7.5000000e-01 3.0000000e+00 2.5000000e+01 
7.5000000e-01 3.0000000e+00 2.5500000e+01 
7.5000000e-01 3.0000000e+00 2.6000000e+01 
7.5000000e-01 3.0000000e+00 2.6500000e+01 
7.5000000e-01 3.0000000e+00 2.7000000e+01 
7.5000000e-01 3.0000000e+00 2.7500000e+01 
7.5000000e-01 3.0000000e+00 2.8000000e+01 
7.5000000e-01 3.0000000e+00 2.8500000e+01 
7.5000000e-01 3.0000000e+00 2.9000000e+01 
7.5000000e-01 3.0000000e+00 2.9500000e+01 
7.5000000e-01 3.0000000e+00 3.0000000e+01 
7.5000000e-01 3.0000000e+00 3.0500000e+01 
7.5000000e-01 3.0000000e+00 3.1000000e+01 
7.5000000e-01 3.0000000e+00 3.1500000e+01 
7.5000000e-01 3.0000000e+00 3.2000000e+01 
7.5000000e-01 3.0000000e+00 3.2500000e+01 
7.5000000e-01 3.0000000e+00 3.3000000e+01 
7.5000000e-01 3.0000000e+00 3.3500000e+01 
7.5000000e-01 3.0000000e+00 3.4000000e+01 
7.5000000e-01 3.0000000e+00 3.4500000e+01 
7.5000000e-01 3.0000000e+00 3.5000000e+01 
7.5000000e-01 3.0000000e+00 3.5500000e+01 
7.5000000e-01 3.0000000e+00 3.6000000e+01 
7.5000000e-01 3.0000000e+00 3.6500000e+01 
7.5000000e-01 3.0000000e+00 3.7000000e+01 
7.5000000e-01 3.0000000e+00 3.7500000e+01 
7.5000000e-01 3.0000000e+00 3.8000000e+01 
7.5000000e-01 3.0000000e+00 3.8500000e+01 
7.5000000e-01 3.0000000e+00 3.9000000e+01 
7.5000000e-01 3.0000000e+00 3.9500000e+01 
7.5000000e-01 3.0000000e+00 4.0000000e+01 
7.5000000e-01 3.0000000e+00 4.0500000e+01 
7.5000000e-01 3.0000000e+00 4.1000000e+01 
7.5000000e-01 3.0000000e+00 4.1500000e+01 
7.5000000e-01 3.0000000e+00 4.2000000e+01 
7.5000000e-01 3.0000000e+00 4.2500000e+01 
7.5000000e-01 3.0000000e+00 4.3000000e+01 
7.5000000e-01 3.0000000e+00 4.3500000e+01 
7.5000000e-01 3.0000000e+00 4.4000000e+01 
7.5000000e-01 3.0000000e+00 4.4500000e+01 
7.5000000e-01 3.0000000e+00 4.5000000e+01 
7.5000000e-01 3.0000000e+00 4.5500000e+01 
7.5000000e-01 3.0000000e+00 4.6000000e+01 
7.5000000e-01 3.0000000e+00 4.6500000e+01 
7.5000000e-01 3.0000000e+00 4.7000000e+01 
7.5000000e-01 3.0000000e+00 4.7500000e+01 
7.5000000e-01 3.0000000e+00 4.8000000e+01 
7.5000000e-01 3.0000000e+00 4.8500000e+01 
7.5000000e-01 3.0000000e+00 4.9000000e+01 
7.5000000e-01 3.0000000e+00 4.9500000e+01 
7.5000000e-01 3.0000000e+00 5.0500000e+01 
7.5000000e-01 3.0000000e+00 5.1000000e+01 
7.5000000e-01 3.0000000e+00 5.1500000e+01 
7.5000000e-01 3.0000000e+00 5.2000000e+01 
7.5000000e-01 3.0000000e+00 5.2500000e+01 
7.5000000e-01 3.0000000e+00 5.3000000e+01 
7.5000000e-01 3.0000000e+00 5.3500000e+01 
7.5000000e-01 3.0000000e+00 5.4000000e+01 
7.5000000e-01 3.0000000e+00 5.4500000e+01 
7.5000000e-01 3.0000000e+00 5.5000000e+01 
7.5000000e-01 3.0000000e+00 5.5500000e+01 
7.5000000e-01 3.0000000e+00 5.6000000e+01 
7.5000000e-01 3.0000000e+00 5.6500000e+01 
7.5000000e-01 3.0000000e+00 5.7000000e+01 
7.5000000e-01 3.0000000e+00 5.7500000e+01 
7.5000000e-01 3.0000000e+00 5.8000000e+01 
7.5000000e-01 3.0000000e+00 5.8500000e+01 
7.5000000e-01 3.0000000e+00 5.9000000e+01 
7.5000000e-01 3.0000000e+00 5.9500000e+01 
7.5000000e-01 3.0000000e+00 6.0000000e+01 
7.5000000e-01 3.0000000e+00 6.0500000e+01 
7.5000000e-01 3.0000000e+00 6.1000000e+01 
7.5000000e-01 3.0000000e+00 6.1500000e+01 
7.5000000e-01 3.0000000e+00 6.2000000e+01 
7.5000000e-01 3.0000000e+00 6.2500000e+01 
7.5000000e-01 3.0000000e+00 6.3000000e+01 
7.5000000e-01 3.0000000e+00 6.3500000e+01 
7.5000000e-01 3.0000000e+00 6.4000000e+01 
7.5000000e-01 3.0000000e+00 6.4500000e+01 
7.5000000e-01 3.0000000e+00 6.5000000e+01 
7.5000000e-01 3.0000000e+00 6.5500000e+01 
7.5000000e-01 3.0000000e+00 6.6000000e+01 
7.5000000e-01 3.0000000e+00 6.6500000e+01 
7.5000000e-01 3.0000000e+00 6.7000000e+01 
7.5000000e-01 3.0000000e+00 6.7500000e+01 
7.5000000e-01 3.0000000e+00 6.8000000e+01 
7.5000000e-01 3.0000000e+00 6.8500000e+01 
7.5000000e-01 3.0000000e+00 6.9000000e+01 
7.5000000e-01 3.0000000e+00 6.9500000e+01 
7.5000000e-01 3.0250001e+00 -2.5000000e+01 
7.5000000e-01 3.0250001e+00 -2.4500000e+01 
7.5000000e-01 3.0250001e+00 -2.4000000e+01 
7.5000000e-01 3.0250001e+00 -2.3500000e+01 
7.5000000e-01 3.0250001e+00 -2.3000000e+01 
7.5000000e-01 3.0250001e+00 -2.2500000e+01 
7.5000000e-01 3.0250001e+00 -2.2000000e+01 
7.5000000e-01 3.0250001e+00 -2.1500000e+01 
7.5000000e-01 3.0250001e+00 -2.1000000e+01 
7.5000000e-01 3.0250001e+00 -2.0500000e+01 
7.5000000e-01 3.0250001e+00 -2.0000000e+01 
7.5000000e-01 3.0250001e+00 -1.9500000e+01 
7.5000000e-01 3.0250001e+00 -1.9000000e+01 
7.5000000e-01 3.0250001e+00 -1.8500000e+01 
7.5000000e-01 3.0250001e+00 -1.8000000e+01 
7.5000000e-01 3.0250001e+00 -1.7500000e+01 
7.5000000e-01 3.0250001e+00 -1.7000000e+01 
7.5000000e-01 3.0250001e+00 -1.6500000e+01 
7.5000000e-01 3.0250001e+00 -1.6000000e+01 
7.5000000e-01 3.0250001e+00 -1.5500000e+01 
[...]
POINT_DATA 2186
FIELD FieldData 3
DISPLACEMENT 3 2186  float
0.0000000e+00 0.0000000e+00 0.0000000e+00 
0.0000000e+00 0.0000000e+00 0.0000000e+00 
0.0000000e+00 0.0000000e+00 0.0000000e+00 
0.0000000e+00 0.0000000e+00 0.0000000e+00 
2.1317335e-05 -3.6841830e-06 -2.7912067e-05 
-4.9729326e-10 6.4769150e-09 -8.9368452e-10 
0.0000000e+00 -8.0309756e-06 0.0000000e+00 
0.0000000e+00 5.7261026e-08 0.0000000e+00 
1.3303292e-05 5.3693298e-06 -2.6005711e-05 
2.6912503e-09 1.1811435e-09 2.1417290e-09 
-4.7088311e-06 -1.9234571e-05 6.3944726e-06 
1.3991549e-08 -2.4080258e-09 2.6478475e-08 
0.0000000e+00 -1.6340580e-05 0.0000000e+00 
0.0000000e+00 -2.1791354e-07 0.0000000e+00 
-1.6636543e-05 -3.7419493e-05 1.3524099e-04 
2.9002528e-08 -1.4670427e-07 -4.6064404e-08 
2.1359949e-05 -3.3162283e-05 6.6796034e-05 
4.6765583e-09 7.6811961e-07 4.9815821e-08 
0.0000000e+00 -1.5181864e-05 0.0000000e+00 
0.0000000e+00 -1.1201477e-06 0.0000000e+00 
0.0000000e+00 1.0304121e-06 0.0000000e+00 
0.0000000e+00 -5.2683743e-07 0.0000000e+00 
0.0000000e+00 -2.2323400e-06 0.0000000e+00 
0.0000000e+00 -4.6400666e-07 0.0000000e+00 
0.0000000e+00 3.3839142e-06 0.0000000e+00 
0.0000000e+00 3.7999255e-06 0.0000000e+00 
0.0000000e+00 -1.6570298e-06 0.0000000e+00 
0.0000000e+00 -7.4631976e-06 0.0000000e+00 
0.0000000e+00 -5.2627788e-06 0.0000000e+00 
0.0000000e+00 5.2175146e-06 0.0000000e+00 
0.0000000e+00 1.3017605e-05 0.0000000e+00 
0.0000000e+00 7.0383767e-06 0.0000000e+00 
0.0000000e+00 -9.6815302e-06 0.0000000e+00 
0.0000000e+00 -2.0113957e-05 0.0000000e+00 
0.0000000e+00 -1.0482397e-05 0.0000000e+00 
0.0000000e+00 1.3178060e-05 0.0000000e+00 
0.0000000e+00 2.8341865e-05 0.0000000e+00 
0.0000000e+00 1.7712111e-05 0.0000000e+00 
0.0000000e+00 -1.2313805e-05 0.0000000e+00 
0.0000000e+00 -3.5627840e-05 0.0000000e+00 
0.0000000e+00 -2.9804562e-05 0.0000000e+00 
0.0000000e+00 2.9858256e-06 0.0000000e+00 
0.0000000e+00 3.6780606e-05 0.0000000e+00 
0.0000000e+00 4.3447304e-05 0.0000000e+00 
0.0000000e+00 1.6162412e-05 0.0000000e+00 
0.0000000e+00 -2.4879722e-05 0.0000000e+00 
0.0000000e+00 -4.8635520e-05 0.0000000e+00 
0.0000000e+00 -3.7623962e-05 0.0000000e+00 
0.0000000e+00 -9.4659390e-07 0.0000000e+00 
0.0000000e+00 3.3997287e-05 0.0000000e+00 
0.0000000e+00 4.3562311e-05 0.0000000e+00 
0.0000000e+00 2.5168085e-05 0.0000000e+00 
0.0000000e+00 -3.7097279e-06 0.0000000e+00 
0.0000000e+00 -2.2050626e-05 0.0000000e+00 
0.0000000e+00 -2.1836133e-05 0.0000000e+00 
0.0000000e+00 -1.1310766e-05 0.0000000e+00 
0.0000000e+00 -4.5675165e-06 0.0000000e+00 
0.0000000e+00 -7.8713665e-06 0.0000000e+00 
0.0000000e+00 -1.4121122e-05 0.0000000e+00 
0.0000000e+00 -9.7993316e-06 0.0000000e+00 
0.0000000e+00 1.1034857e-05 0.0000000e+00 
0.0000000e+00 3.7978763e-05 0.0000000e+00 
0.0000000e+00 5.0401039e-05 0.0000000e+00 
0.0000000e+00 3.4995166e-05 0.0000000e+00 
0.0000000e+00 -1.0196899e-06 0.0000000e+00 
0.0000000e+00 -3.4145236e-05 0.0000000e+00 
0.0000000e+00 -4.3080352e-05 0.0000000e+00 
0.0000000e+00 -2.5701474e-05 0.0000000e+00 
0.0000000e+00 -1.6110320e-06 0.0000000e+00 
0.0000000e+00 1.1004230e-06 0.0000000e+00 
-9.1863776e-06 -9.3551913e-05 6.6123270e-05 
-1.8795896e-05 -1.4133692e-04 9.2380178e-05 
-3.9665618e-05 -1.4431780e-04 8.2934603e-05 
-3.6618520e-05 -1.1359054e-04 7.8061472e-05 
-6.3460520e-06 -8.7383996e-05 1.0686051e-04 
2.2624534e-05 -9.2126684e-05 8.3246938e-05 
-1.9593032e-05 -1.1907319e-04 7.4222793e-05 
-1.7425320e-05 -1.4540649e-04 1.4212167e-04 
-5.1616400e-05 -1.8183628e-04 1.4007055e-04 
5.0007675e-06 -3.0714984e-04 1.4177756e-04 
-5.8432088e-05 -6.8179920e-04 2.9207437e-04 
1.6763222e-05 -1.4629142e-03 2.0212716e-04 
-1.9381770e-04 -2.6707789e-03 2.7167992e-04 
-2.2319352e-04 -4.0302789e-03 1.0416505e-04 
-3.6201166e-04 -5.0631645e-03 1.4341609e-04 
-3.8801186e-04 -5.1637022e-03 -8.9508912e-06 
-3.4727796e-04 -4.7774999e-03 -1.3973366e-04 
-2.6877093e-04 -4.5744800e-03 -1.7065967e-04 
-2.1898701e-04 -4.7667073e-03 -1.8278805e-04 
-2.4990135e-04 -4.8483373e-03 -2.6262828e-04 
-2.4263648e-04 -4.1557793e-03 -3.4388763e-04 
-2.4934689e-04 -2.8423171e-03 -2.2982460e-04 
-1.4119402e-04 -1.5860676e-03 -3.8990862e-04 
-5.5067976e-05 -6.4835459e-04 -2.3642366e-04 
2.8618946e-05 -6.2088489e-05 -2.2894387e-04 
5.9792183e-05 2.3564827e-04 -5.5708737e-05 
3.3216875e-05 3.1450755e-04 3.6877951e-05 
8.4137400e-06 2.6496884e-04 5.1725630e-05 
-8.6069831e-06 1.6923637e-04 5.2613002e-05 
-5.7221496e-06 7.4085372e-05 5.0254373e-05 
-2.7718022e-06 2.9865674e-07 1.3946944e-05 
-1.1842479e-06 -3.9342918e-05 -6.3655500e-07 
7.0190686e-07 -3.7281341e-05 6.7336492e-07 
-4.2256788e-06 -6.6674879e-06 -1.4368069e-05 
-2.4442468e-06 2.4555915e-05 -1.3575284e-05 
-8.7832977e-06 3.3198135e-05 -1.8183458e-05 
-9.5706691e-06 1.9040943e-05 -2.2828206e-05 
3.8567996e-06 2.3087493e-06 5.3132926e-06 
1.2791908e-05 -6.4328942e-06 3.6630201e-05 
2.2789188e-06 -1.6769829e-05 4.4797118e-05 
2.6179130e-06 -4.7619280e-05 6.8108420e-05 
-2.0013773e-05 -1.0468629e-04 5.1691775e-05 
-2.9319852e-05 -1.5984480e-04 4.8481295e-05 
-1.7760949e-05 -1.6366772e-04 4.7157497e-05 
-4.8252396e-06 -1.0557758e-04 8.5007450e-05 
1.5500609e-05 -3.2561617e-05 1.0028281e-04 
-1.3351199e-05 -2.4897965e-06 8.2272309e-05 
4.1754782e-05 -5.0609589e-05 1.4172605e-04 
-2.6793576e-05 -1.8576579e-04 1.2475665e-04 
4.2105319e-05 -4.1077807e-04 1.5547125e-04 
-1.1542196e-04 -8.2215515e-04 2.9257842e-04 
-5.9943482e-05 -1.5811427e-03 1.7289890e-04 
-1.9034994e-04 -2.7943391e-03 2.9151197e-04 
-2.7425302e-04 -4.2403447e-03 9.1969225e-05 
-3.8084711e-04 -5.3102458e-03 6.0063714e-05 
-3.8691590e-04 -5.2310051e-03 -5.4467422e-05 
-3.7212649e-04 -4.7467784e-03 -1.5410229e-04 
-3.5387414e-04 -4.5566992e-03 -2.2084870e-04 
-3.0863634e-04 -4.8326519e-03 -2.6391042e-04 
-3.5703939e-04 -4.9168346e-03 -3.0353171e-04 
-3.0323447e-04 -4.0637129e-03 -4.1785868e-04 
-2.3359233e-04 -2.6888771e-03 -2.4445320e-04 
-1.1594919e-04 -1.4316641e-03 -3.9823365e-04 
-4.1963725e-05 -5.0882995e-04 -2.3641207e-04 
2.8260132e-05 2.7815215e-05 -1.9583874e-04 
5.2421910e-05 2.6292735e-04 -7.3510470e-05 
3.0618197e-05 3.1176591e-04 2.0252244e-05 
1.7759199e-05 2.6467512e-04 5.8110178e-05 
-5.6692356e-06 1.7430350e-04 6.3966931e-05 
-6.8857157e-06 7.6553988e-05 3.8476712e-05 
5.1926366e-07 2.8655732e-06 1.8555951e-05 
5.0594128e-08 -3.0566731e-05 -4.8889760e-06 
-1.7524054e-07 -2.7661414e-05 -1.6818730e-06 
2.2216509e-06 -1.3548036e-05 -5.1339248e-06 
-4.8831557e-06 -1.0103726e-05 -7.6075116e-06 
3.1664063e-06 -1.4571085e-05 -9.2872668e-08 
1.5465167e-06 -1.3496370e-05 -9.0428631e-07 
-1.6232451e-06 -2.5541096e-06 -6.1257350e-07 
4.1273365e-06 1.0837526e-05 2.2424417e-06 
-9.9044200e-07 1.6065580e-05 4.4212152e-07 
-3.9240245e-08 9.7009588e-06 8.4119569e-07 
1.6554353e-07 -1.4075613e-06 2.7605893e-07 
-6.2247648e-07 -8.6424598e-06 -1.9257739e-06 
-3.0684868e-07 -8.9372625e-06 5.6883516e-07 
-2.1997627e-07 -3.7852999e-06 -3.3640009e-07 
2.7489833e-08 2.4753870e-06 -8.9199796e-07 
4.7624533e-07 6.0197067e-06 1.1751536e-06 
1.9706678e-07 5.2881951e-06 -9.2480668e-08 
-1.3952405e-07 8.4307720e-07 -3.9718071e-07 
-5.6871787e-08 -3.6672093e-06 4.0130604e-07 
-8.7044718e-08 -4.3741466e-06 -2.6720062e-07 
-6.4727494e-08 -1.5207994e-06 -6.6940359e-08 
5.6194757e-08 1.7570151e-06 2.5443254e-07 
-2.4773072e-08 2.8124380e-06 -1.7753057e-07 
-4.4785221e-08 1.3488695e-06 -3.2567158e-09 
1.0746344e-07 -6.7802546e-07 2.4441752e-08 
-2.5379441e-08 -1.5139545e-06 -1.2176918e-07 
-4.2995929e-08 -1.0504656e-06 -4.7572954e-09 
1.8747441e-08 -4.3224578e-08 4.3686626e-08 
0.0000000e+00 9.4948467e-07 0.0000000e+00 
0.0000000e+00 4.0818836e-07 0.0000000e+00 
0.0000000e+00 -4.6394959e-07 0.0000000e+00 
0.0000000e+00 -9.0109944e-07 0.0000000e+00 
0.0000000e+00 -4.9015216e-07 0.0000000e+00 
0.0000000e+00 3.1846216e-07 0.0000000e+00 
0.0000000e+00 6.7857439e-07 0.0000000e+00 
0.0000000e+00 3.0365942e-07 0.0000000e+00 
0.0000000e+00 -2.7427643e-07 0.0000000e+00 
0.0000000e+00 -4.1676705e-07 0.0000000e+00 
0.0000000e+00 -9.8870551e-08 0.0000000e+00 
0.0000000e+00 2.1084574e-07 0.0000000e+00 
0.0000000e+00 1.9551234e-07 0.0000000e+00 
0.0000000e+00 -1.2174856e-08 0.0000000e+00 
0.0000000e+00 -1.2329578e-07 0.0000000e+00 
0.0000000e+00 -6.1348096e-08 0.0000000e+00 
0.0000000e+00 3.5975035e-08 0.0000000e+00 
0.0000000e+00 5.1643561e-08 0.0000000e+00 
0.0000000e+00 6.7675834e-09 0.0000000e+00 
0.0000000e+00 -2.3052415e-08 0.0000000e+00 
0.0000000e+00 -1.4042876e-08 0.0000000e+00 
0.0000000e+00 4.7917084e-09 0.0000000e+00 
0.0000000e+00 8.6691081e-09 0.0000000e+00 
0.0000000e+00 1.4752632e-09 0.0000000e+00 
0.0000000e+00 -3.2532399e-09 0.0000000e+00 
0.0000000e+00 -1.9385602e-09 0.0000000e+00 
0.0000000e+00 6.2589595e-10 0.0000000e+00 
0.0000000e+00 1.0387797e-09 0.0000000e+00 
0.0000000e+00 1.2967923e-10 0.0000000e+00 
0.0000000e+00 -3.6396652e-10 0.0000000e+00 
0.0000000e+00 -1.7776977e-10 0.0000000e+00 
0.0000000e+00 7.6799782e-11 0.0000000e+00 
0.0000000e+00 9.1490406e-11 0.0000000e+00 
0.0000000e+00 1.9917145e-12 0.0000000e+00 
0.0000000e+00 -3.1761933e-11 0.0000000e+00 
0.0000000e+00 -1.0209065e-11 0.0000000e+00 
0.0000000e+00 7.6762104e-12 0.0000000e+00 
0.0000000e+00 4.2764273e-12 0.0000000e+00 
0.0000000e+00 -1.6012190e-12 0.0000000e+00 
0.0000000e+00 9.2337126e-07 0.0000000e+00 
0.0000000e+00 -5.4914915e-07 0.0000000e+00 
0.0000000e+00 -2.1060418e-06 0.0000000e+00 
0.0000000e+00 -3.1379980e-07 0.0000000e+00 
0.0000000e+00 3.3597155e-06 0.0000000e+00 
0.0000000e+00 3.5754674e-06 0.0000000e+00 
0.0000000e+00 -1.8337030e-06 0.0000000e+00 
0.0000000e+00 -7.3240412e-06 0.0000000e+00 
0.0000000e+00 -4.8935694e-06 0.0000000e+00 
0.0000000e+00 5.3874155e-06 0.0000000e+00 
0.0000000e+00 1.2706667e-05 0.0000000e+00 
0.0000000e+00 6.5218078e-06 0.0000000e+00 
0.0000000e+00 -9.8113624e-06 0.0000000e+00 
0.0000000e+00 -1.9628449e-05 0.0000000e+00 
0.0000000e+00 -9.8397622e-06 0.0000000e+00 
0.0000000e+00 1.3288400e-05 0.0000000e+00 
0.0000000e+00 2.7745868e-05 0.0000000e+00 
0.0000000e+00 1.6961976e-05 0.0000000e+00 
0.0000000e+00 -1.2487729e-05 0.0000000e+00 
0.0000000e+00 -3.5036865e-05 0.0000000e+00 
0.0000000e+00 -2.8972483e-05 0.0000000e+00 
0.0000000e+00 3.3241438e-06 0.0000000e+00 
0.0000000e+00 3.6336922e-05 0.0000000e+00 
0.0000000e+00 4.2602347e-05 0.0000000e+00 
0.0000000e+00 1.5612821e-05 0.0000000e+00 
0.0000000e+00 -2.4702287e-05 0.0000000e+00 
0.0000000e+00 -4.7896094e-05 0.0000000e+00 
0.0000000e+00 -3.6929225e-05 0.0000000e+00 
0.0000000e+00 -8.4218311e-07 0.0000000e+00 
0.0000000e+00 3.3471570e-05 0.0000000e+00 
0.0000000e+00 4.2884378e-05 0.0000000e+00 
0.0000000e+00 2.4897894e-05 0.0000000e+00 
0.0000000e+00 -3.4124207e-06 0.0000000e+00 
0.0000000e+00 -2.1513417e-05 0.0000000e+00 
0.0000000e+00 -2.1533346e-05 0.0000000e+00 
0.0000000e+00 -1.1461811e-05 0.0000000e+00 
0.0000000e+00 -5.0070284e-06 0.0000000e+00 
0.0000000e+00 -8.2117849e-06 0.0000000e+00 
0.0000000e+00 -1.4048224e-05 0.0000000e+00 
0.0000000e+00 -9.3338240e-06 0.0000000e+00 
0.0000000e+00 1.1500317e-05 0.0000000e+00 
0.0000000e+00 3.7991620e-05 0.0000000e+00 
0.0000000e+00 4.9898572e-05 0.0000000e+00 
0.0000000e+00 3.4413955e-05 0.0000000e+00 
0.0000000e+00 -1.1492398e-06 0.0000000e+00 
0.0000000e+00 -3.3692402e-05 0.0000000e+00 
0.0000000e+00 -4.2389333e-05 0.0000000e+00 
0.0000000e+00 -2.5278872e-05 0.0000000e+00 
0.0000000e+00 -1.7927969e-06 0.0000000e+00 
0.0000000e+00 3.4623247e-07 0.0000000e+00 
0.0000000e+00 -3.4368386e-05 0.0000000e+00 
0.0000000e+00 -9.3811715e-05 0.0000000e+00 
0.0000000e+00 -1.3999619e-04 0.0000000e+00 
0.0000000e+00 -1.4314150e-04 0.0000000e+00 
0.0000000e+00 -1.1366498e-04 0.0000000e+00 
0.0000000e+00 -8.8448811e-05 0.0000000e+00 
0.0000000e+00 -9.2828406e-05 0.0000000e+00 
0.0000000e+00 -1.1855534e-04 0.0000000e+00 
0.0000000e+00 -1.4366742e-04 0.0000000e+00 
0.0000000e+00 -1.7855066e-04 0.0000000e+00 
0.0000000e+00 -3.0592585e-04 0.0000000e+00 
0.0000000e+00 -6.8551279e-04 0.0000000e+00 
0.0000000e+00 -1.4740082e-03 0.0000000e+00 
0.0000000e+00 -2.6797554e-03 0.0000000e+00 
0.0000000e+00 -4.0496159e-03 0.0000000e+00 
0.0000000e+00 -5.0825058e-03 0.0000000e+00 
0.0000000e+00 -5.1988885e-03 0.0000000e+00 
0.0000000e+00 -4.8008277e-03 0.0000000e+00 
0.0000000e+00 -4.6011354e-03 0.0000000e+00 
0.0000000e+00 -4.7854744e-03 0.0000000e+00 
0.0000000e+00 -4.8769130e-03 0.0000000e+00 
0.0000000e+00 -4.1798414e-03 0.0000000e+00 
0.0000000e+00 -2.8638970e-03 0.0000000e+00 
0.0000000e+00 -1.5927249e-03 0.0000000e+00 
0.0000000e+00 -6.5150263e-04 0.0000000e+00 
0.0000000e+00 -6.2483523e-05 0.0000000e+00 
0.0000000e+00 2.3512695e-04 0.0000000e+00 
0.0000000e+00 3.1538433e-04 0.0000000e+00 
0.0000000e+00 2.6659429e-04 0.0000000e+00 
0.0000000e+00 1.7010891e-04 0.0000000e+00 
0.0000000e+00 7.4176467e-05 0.0000000e+00 
0.0000000e+00 3.2650817e-07 0.0000000e+00 
0.0000000e+00 -3.8624683e-05 0.0000000e+00 
0.0000000e+00 -3.6721562e-05 0.0000000e+00 
0.0000000e+00 -6.8114668e-06 0.0000000e+00 
0.0000000e+00 2.3826788e-05 0.0000000e+00 
0.0000000e+00 3.2600543e-05 0.0000000e+00 
0.0000000e+00 1.9314861e-05 0.0000000e+00 
0.0000000e+00 2.7958454e-06 0.0000000e+00 
0.0000000e+00 -6.0680527e-06 0.0000000e+00 
0.0000000e+00 -1.6947384e-05 0.0000000e+00 
0.0000000e+00 -4.8680355e-05 0.0000000e+00 
0.0000000e+00 -1.0574161e-04 0.0000000e+00 
0.0000000e+00 -1.5902403e-04 0.0000000e+00 
0.0000000e+00 -1.6183584e-04 0.0000000e+00 
0.0000000e+00 -1.0463114e-04 0.0000000e+00 
0.0000000e+00 -3.2637174e-05 0.0000000e+00 
0.0000000e+00 -3.6035774e-06 0.0000000e+00 
0.0000000e+00 -5.1721094e-05 0.0000000e+00 
0.0000000e+00 -1.8276586e-04 0.0000000e+00 
0.0000000e+00 -4.0802578e-04 0.0000000e+00 
0.0000000e+00 -8.2262204e-04 0.0000000e+00 
0.0000000e+00 -1.5915281e-03 0.0000000e+00 
0.0000000e+00 -2.8086286e-03 0.0000000e+00 
0.0000000e+00 -4.2668195e-03 0.0000000e+00 
0.0000000e+00 -5.3294911e-03 0.0000000e+00 
0.0000000e+00 -5.2603548e-03 0.0000000e+00 
0.0000000e+00 -4.7664680e-03 0.0000000e+00 
0.0000000e+00 -4.5869728e-03 0.0000000e+00 
0.0000000e+00 -4.8542740e-03 0.0000000e+00 
0.0000000e+00 -4.9483273e-03 0.0000000e+00 
0.0000000e+00 -4.0825387e-03 0.0000000e+00 
0.0000000e+00 -2.7064970e-03 0.0000000e+00 
0.0000000e+00 -1.4372431e-03 0.0000000e+00 
0.0000000e+00 -5.1336974e-04 0.0000000e+00 
0.0000000e+00 2.7307397e-05 0.0000000e+00 
0.0000000e+00 2.6438353e-04 0.0000000e+00 
0.0000000e+00 3.1319686e-04 0.0000000e+00 
0.0000000e+00 2.6504829e-04 0.0000000e+00 
0.0000000e+00 1.7451152e-04 0.0000000e+00 
0.0000000e+00 7.7450277e-05 0.0000000e+00 
0.0000000e+00 3.6159784e-06 0.0000000e+00 
0.0000000e+00 -3.0111203e-05 0.0000000e+00 
0.0000000e+00 -2.8005197e-05 0.0000000e+00 
0.0000000e+00 -1.4376657e-05 0.0000000e+00 
0.0000000e+00 -1.0280779e-05 0.0000000e+00 
0.0000000e+00 -1.4136690e-05 0.0000000e+00 
0.0000000e+00 -1.3169034e-05 0.0000000e+00 
0.0000000e+00 -2.6029390e-06 0.0000000e+00 
0.0000000e+00 1.0530101e-05 0.0000000e+00 
0.0000000e+00 1.5777083e-05 0.0000000e+00 
0.0000000e+00 9.7489201e-06 0.0000000e+00 
0.0000000e+00 -1.1689059e-06 0.0000000e+00 
0.0000000e+00 -8.5271013e-06 0.0000000e+00 
0.0000000e+00 -8.8748302e-06 0.0000000e+00 
0.0000000e+00 -3.8207504e-06 0.0000000e+00 
0.0000000e+00 2.3687599e-06 0.0000000e+00 
0.0000000e+00 5.9455233e-06 0.0000000e+00 
0.0000000e+00 5.2133610e-06 0.0000000e+00 
0.0000000e+00 8.7371342e-07 0.0000000e+00 
0.0000000e+00 -3.5056894e-06 0.0000000e+00 
0.0000000e+00 -4.3049326e-06 0.0000000e+00 
0.0000000e+00 -1.5856757e-06 0.0000000e+00 
0.0000000e+00 1.6721219e-06 0.0000000e+00 
0.0000000e+00 2.7639785e-06 0.0000000e+00 
0.0000000e+00 1.3756451e-06 0.0000000e+00 
0.0000000e+00 -6.2267759e-07 0.0000000e+00 
0.0000000e+00 -1.4950974e-06 0.0000000e+00 
0.0000000e+00 -1.0568345e-06 0.0000000e+00 
0.0000000e+00 -5.5891871e-08 0.0000000e+00 
0.0000000e+00 7.5350437e-07 0.0000000e+00 
0.0000000e+00 9.3373779e-07 0.0000000e+00 
0.0000000e+00 4.0299409e-07 0.0000000e+00 
0.0000000e+00 -4.4475090e-07 0.0000000e+00 
0.0000000e+00 -8.7541599e-07 0.0000000e+00 
0.0000000e+00 -4.8861517e-07 0.0000000e+00 
0.0000000e+00 2.9382392e-07 0.0000000e+00 
0.0000000e+00 6.5825435e-07 0.0000000e+00 
0.0000000e+00 3.1052977e-07 0.0000000e+00 
0.0000000e+00 -2.5276157e-07 0.0000000e+00 
0.0000000e+00 -4.0807944e-07 0.0000000e+00 
0.0000000e+00 -1.0952086e-07 0.0000000e+00 
0.0000000e+00 1.9827262e-07 0.0000000e+00 
0.0000000e+00 1.9560213e-07 0.0000000e+00 
0.0000000e+00 -3.8489665e-09 0.0000000e+00 
0.0000000e+00 -1.1894414e-07 0.0000000e+00 
0.0000000e+00 -6.4217161e-08 0.0000000e+00 
0.0000000e+00 3.1995214e-08 0.0000000e+00 
0.0000000e+00 5.1390678e-08 0.0000000e+00 
0.0000000e+00 8.8505567e-09 0.0000000e+00 
0.0000000e+00 -2.1991340e-08 0.0000000e+00 
0.0000000e+00 -1.4668183e-08 0.0000000e+00 
0.0000000e+00 3.9954240e-09 0.0000000e+00 
0.0000000e+00 8.6529646e-09 0.0000000e+00 
0.0000000e+00 1.8485476e-09 0.0000000e+00 
0.0000000e+00 -3.1028469e-09 0.0000000e+00 
0.0000000e+00 -2.0512441e-09 0.0000000e+00 
0.0000000e+00 5.1874899e-10 0.0000000e+00 
0.0000000e+00 1.0492899e-09 0.0000000e+00 
0.0000000e+00 1.7823390e-10 0.0000000e+00 
0.0000000e+00 -3.5190964e-10 0.0000000e+00 
0.0000000e+00 -1.9322380e-10 0.0000000e+00 
0.0000000e+00 6.7108798e-11 0.0000000e+00 
0.0000000e+00 9.4343387e-11 0.0000000e+00 
0.0000000e+00 6.5045651e-12 0.0000000e+00 
0.0000000e+00 -3.1421019e-11 0.0000000e+00 
0.0000000e+00 -1.1726642e-11 0.0000000e+00 
0.0000000e+00 7.0307198e-12 0.0000000e+00 
0.0000000e+00 4.5101015e-12 0.0000000e+00 
0.0000000e+00 -1.2157661e-12 0.0000000e+00 
0.0000000e+00 0.0000000e+00 0.0000000e+00 
0.0000000e+00 0.0000000e+00 0.0000000e+00 
0.0000000e+00 0.0000000e+00 0.0000000e+00 
0.0000000e+00 0.0000000e+00 0.0000000e+00 
0.0000000e+00 0.0000000e+00 0.0000000e+00 
0.0000000e+00 0.0000000e+00 0.0000000e+00 
0.0000000e+00 0.0000000e+00 0.0000000e+00 
0.0000000e+00 0.0000000e+00 0.0000000e+00 
0.0000000e+00 0.0000000e+00 0.0000000e+00 
0.0000000e+00 0.0000000e+00 0.0000000e+00 
0.0000000e+00 0.0000000e+00 0.0000000e+00 
0.0000000e+00 0.0000000e+00 0.0000000e+00 
0.0000000e+00 0.0000000e+00 0.0000000e+00 
0.0000000e+00 0.0000000e+00 0.0000000e+00 
0.0000000e+00 0.0000000e+00 0.0000000e+00 
0.0000000e+00 0.0000000e+00 0.0000000e+00 
0.0000000e+00 0.0000000e+00 0.0000000e+00 
0.0000000e+00 0.0000000e+00 0.0000000e+00 
0.0000000e+00 0.0000000e+00 0.0000000e+00 
0.0000000e+00 0.0000000e+00 0.0000000e+00 
0.0000000e+00 0.0000000e+00 0.0000000e+00 
0.0000000e+00 0.0000000e+00 0.0000000e+00 
0.0000000e+00 0.0000000e+00 0.0000000e+00 
0.0000000e+00 0.0000000e+00 0.0000000e+00 
0.0000000e+00 0.0000000e+00 0.0000000e+00 
0.0000000e+00 0.0000000e+00 0.0000000e+00 
0.0000000e+00 0.0000000e+00 0.0000000e+00 
0.0000000e+00 0.0000000e+00 0.0000000e+00 
0.0000000e+00 0.0000000e+00 0.0000000e+00 
0.0000000e+00 0.0000000e+00 0.0000000e+00 
0.0000000e+00 0.0000000e+00 0.0000000e+00 
0.0000000e+00 0.0000000e+00 0.0000000e+00 
0.0000000e+00 0.0000000e+00 0.0000000e+00 
0.0000000e+00 0.0000000e+00 0.0000000e+00 
0.0000000e+00 0.0000000e+00 0.0000000e+00 
0.0000000e+00 0.0000000e+00 0.0000000e+00 
0.0000000e+00 0.0000000e+00 0.0000000e+00 
0.0000000e+00 0.0000000e+00 0.0000000e+00 
0.0000000e+00 0.0000000e+00 0.0000000e+00 
0.0000000e+00 0.0000000e+00 0.0000000e+00 
0.0000000e+00 0.0000000e+00 0.0000000e+00 
0.0000000e+00 0.0000000e+00 0.0000000e+00 
0.0000000e+00 0.0000000e+00 0.0000000e+00 
0.0000000e+00 0.0000000e+00 0.0000000e+00 
0.0000000e+00 0.0000000e+00 0.0000000e+00 
0.0000000e+00 0.0000000e+00 0.0000000e+00 
0.0000000e+00 0.0000000e+00 0.0000000e+00 
0.0000000e+00 0.0000000e+00 0.0000000e+00 
0.0000000e+00 0.0000000e+00 0.0000000e+00 
0.0000000e+00 0.0000000e+00 0.0000000e+00 
0.0000000e+00 0.0000000e+00 0.0000000e+00 
0.0000000e+00 0.0000000e+00 0.0000000e+00 
0.0000000e+00 0.0000000e+00 0.0000000e+00 
0.0000000e+00 0.0000000e+00 0.0000000e+00 
0.0000000e+00 0.0000000e+00 0.0000000e+00 
0.0000000e+00 0.0000000e+00 0.0000000e+00 
0.0000000e+00 0.0000000e+00 0.0000000e+00 