# vtk DataFile Version 4.0
vtk output
ASCII
DATASET UNSTRUCTURED_GRID
POINTS 2186 float
0.0000000e+00 0.0000000e+00 0.0000000e+00 
0.0000000e+00 0.0000000e+00 5.0000000e+01 
5.0000000e+00 0.0000000e+00 0.0000000e+00 
5.0000000e+00 0.0000000e+00 5.0000000e+01 
5.0000000e+00 1.0000000e+00 0.0000000e+00 
5.0000000e+00 1.0000000e+00 5.0000000e+01 
0.0000000e+00 1.0000000e+00 0.0000000e+00 
0.0000000e+00 1.0000000e+00 5.0000000e+01 
5.0000000e+00 2.0000000e+00 0.0000000e+00 
5.0000000e+00 2.0000000e+00 5.0000000e+01 
3.0000000e+00 2.0000000e+00 0.0000000e+00 
3.0000000e+00 2.0000000e+00 5.0000000e+01 
0.0000000e+00 2.0000000e+00 0.0000000e+00 
0.0000000e+00 2.0000000e+00 5.0000000e+01 
1.5000000e+00 3.0000000e+00 0.0000000e+00 
1.5000000e+00 3.0000000e+00 5.0000000e+01 
7.5000000e-01 3.0000000e+00 0.0000000e+00 
7.5000000e-01 3.0000000e+00 5.0000000e+01 
0.0000000e+00 3.0000000e+00 0.0000000e+00 
0.0000000e+00 3.0000000e+00 5.0000000e+01 
7.5000000e-01 3.0000000e+00 -2.5000000e+01 
7.5000000e-01 3.0000000e+00 -2.4500000e+01 
7.5000000e-01 3.0000000e+00 -2.4000000e+01 
7.5000000e-01 3.0000000e+00 -2.3500000e+01 
7.5000000e-01 3.0000000e+00 -2.3000000e+01 
7.5000000e-01 3.0000000e+00 -2.2500000e+01 
7.5000000e-01 3.0000000e+00 -2.2000000e+01 
7.5000000e-01 3.0000000e+00 -2.1500000e+01 
7.5000000e-01 3.0000000e+00 -2.1000000e+01 
7.5000000e-01 3.0000000e+00 -2.0500000e+01 
7.5000000e-01 3.0000000e+00 -2.0000000e+01 
7.5000000e-01 3.0000000e+00 -1.9500000e+01 
7.5000000e-01 3.0000000e+00 -1.9000000e+01 
7.5000000e-01 3.0000000e+00 -1.8500000e+01 
7.5000000e-01 3.0000000e+00 -1.8000000e+01 
7.5000000e-01 3.0000000e+00 -1.7500000e+01 
7.5000000e-01 3.0000000e+00 -1.7000000e+01 
7.5000000e-01 3.0000000e+00 -1.6500000e+01 
7.5000000e-01 3.0000000e+00 -1.6000000e+01 
7.5000000e-01 3.0000000e+00 -1.5500000e+01 
7.5000000e-01 3.0000000e+00 -1.5000000e+01 
7.5000000e-01 3.0000000e+00 -1.4500000e+01 
7.5000000e-01 3.0000000e+00 -1.4000000e+01 
7.5000000e-01 3.0000000e+00 -1.3500000e+01 
7.5000000e-01 3.0000000e+00 -1.3000000e+01 
7.5000000e-01 3.0000000e+00 -1.2500000e+01 
7.5000000e-01 3.0000000e+00 -1.2000000e+01 
7.5000000e-01 3.0000000e+00 -1.1500000e+01 
7.5000000e-01 3.0000000e+00 -1.1000000e+01 
7.5000000e-01 3.0000000e+00 -1.0500000e+01 
7.5000000e-01 3.0000000e+00 -1.0000000e+01 
7.5000000e-01 3.0000000e+00 -9.5000000e+00 
7.5000000e-01 3.0000000e+00 -9.0000000e+00 
7.5000000e-01 3.0000000e+00 -8.5000000e+00 
7.5000000e-01 3.0000000e+00 -8.0000000e+00 
7.5000000e-01 3.0000000e+00 -7.5000000e+00 
7.5000000e-01 3.0000000e+00 -7.0000000e+00 
7.5000000e-01 3.0000000e+00 -6.5000000e+00 
7.5000000e-01 3.0000000e+00 -6.0000000e+00 
7.5000000e-01 3.0000000e+00 -5.5000000e+00 
7.5000000e-01 3.0000000e+00 -5.0000000e+00 
7.5000000e-01 3.0000000e+00 -4.5000000e+00 
7.5000000e-01 3.0000000e+00 -4.0000000e+00 
7.5000000e-01 3.0000000e+00 -3.5000000e+00 
7.5000000e-01 3.0000000e+00 -3.0000000e+00 
7.5000000e-01 3.0000000e+00 -2.5000000e+00 
7.5000000e-01 3.0000000e+00 -2.0000000e+00 
7.5000000e-01 3.0000000e+00 -1.5000000e+00 
7.5000000e-01 3.0000000e+00 -1.0000000e+00 
7.5000000e-01 3.0000000e+00 -5.0000000e-01 
7.5000000e-01 3.0000000e+00 5.0000000e-01 
7.5000000e-01 3.0000000e+00 1.0000000e+00 
7.5000000e-01 3.0000000e+00 1.5000000e+00 
7.5000000e-01 3.0000000e+00 2.0000000e+00 
7.5000000e-01 3.0000000e+00 2.5000000e+00 
7.5000000e-01 3.0000000e+00 3.0000000e+00 
7.5000000e-01 3.0000000e+00 3.5000000e+00 
7.5000000e-01 3.0000000e+00 4.0000000e+00 
7.5000000e-01 3.0000000e+00 4.5000000e+00 
7.5000000e-01 3.0000000e+00 5.0000000e+00 
7.5000000e-01 3.0000000e+00 5.5000000e+00 
7.5000000e-01 3.0000000e+00 6.0000000e+00 
7.5000000e-01 3.0000000e+00 6.5000000e+00 
7.5000000e-01 3.0000000e+00 7.0000000e+00 
7.5000000e-01 3.0000000e+00 7.5000000e+00 
7.5000000e-01 3.0000000e+00 8.0000000e+00 
7.5000000e-01 3.0000000e+00 8.5000000e+00 
7.5000000e-01 3.0000000e+00 9.0000000e+00 
7.5000000e-01 3.0000000e+00 9.5000000e+00 
7.5000000e-01 3.0000000e+00 1.0000000e+01 
7.5000000e-01 3.0000000e+00 1.0500000e+01 
7.5000000e-01 3.0000000e+00 1.1000000e+01 
7.5000000e-01 3.0000000e+00 1.1500000e+01 
7.5000000e-01 3.0000000e+00 1.2000000e+01 
7.5000000e-01 3.0000000e+00 1.2500000e+01 
7.5000000e-01 3.0000000e+00 1.3000000e+01 
7.5000000e-01 3.0000000e+00 1.3500000e+01 
7.5000000e-01 3.0000000e+00 1.4000000e+01 
7.5000000e-01 3.0000000e+00 1.4500000e+01 
7.5000000e-01 3.0000000e+00 1.5000000e+01 
7.5000000e-01 3.0000000e+00 1.5500000e+01 
7.5000000e-01 3.0000000e+00 1.6000000e+01 
7.5000000e-01 3.0000000e+00 1.6500000e+01 
7.5000000e-01 3.0000000e+00 1.7000000e+01 
7.5000000e-01 3.0000000e+00 1.7500000e+01 
7.5000000e-01 3.0000000e+00 1.8000000e+01 
7.5000000e-01 3.0000000e+00 1.8500000e+01 
7.5000000e-01 3.0000000e+00 1.9000000e+01 
7.5000000e-01 3.0000000e+00 1.9500000e+01 
7.5000000e-01 3.0000000e+00 2.0000000e+01 
7.5000000e-01 3.0000000e+00 2.0500000e+01 
7.5000000e-01 3.0000000e+00 2.1000000e+01 
7.5000000e-01 3.0000000e+00 2.1500000e+01 
7.5000000e-01 3.0000000e+00 2.2000000e+01 
7.5000000e-01 3.0000000e+00 2.2500000e+01 
7.5000000e-01 3.0000000e+00 2.3000000e+01 
7.5000000e-01 3.0000000e+00 2.3500000e+01 
7.5000000e-01 3.0000000e+00 2.4000000e+01 
7.5000000e-01 3.0000000e+00 2.4500000e+01 
7.5000000e-01 3.0000000e+00 2.5000000e+01 
7.5000000e-01 3.0000000e+00 2.5500000e+01 
7.5000000e-01 3.0000000e+00 2.6000000e+01 
7.5000000e-01 3.0000000e+00 2.6500000e+01 
7.5000000e-01 3.0000000e+00 2.7000000e+01 
7.5000000e-01 3.0000000e+00 2.7500000e+01 
7.5000000e-01 3.0000000e+00 2.8000000e+01 
7.5000000e-01 3.0000000e+00 2.8500000e+01 
7.5000000e-01 3.0000000e+00 2.9000000e+01 
7.5000000e-01 3.0000000e+00 2.9500000e+01 
7.5000000e-01 3.0000000e+00 3.0000000e+01 
7.5000000e-01 3.0000000e+00 3.0500000e+01 
7.5000000e-01 3.0000000e+00 3.1000000e+01 
7.5000000e-01 3.0000000e+00 3.1500000e+01 
7.5000000e-01 3.0000000e+00 3.2000000e+01 
7.5000000e-01 3.0000000e+00 3.2500000e+01 
7.5000000e-01 3.0000000e+00 3.3000000e+01 
7.5000000e-01 3.0000000e+00 3.3500000e+01 
7.5000000e-01 3.0000000e+00 3.4000000e+01 
7.5000000e-01 3.0000000e+00 3.4500000e+01 
7.5000000e-01 3.0000000e+00 3.5000000e+01 
7.5000000e-01 3.0000000e+00 3.5500000e+01 
7.5000000e-01 3.0000000e+00 3.6000000e+01 
7.5000000e-01 3.0000000e+00 3.6500000e+01 
7.5000000e-01 3.0000000e+00 3.7000000e+01 
7.5000000e-01 3.0000000e+00 3.7500000e+01 
7.5000000e-01 3.0000000e+00 3.8000000e+01 
7.5000000e-01 3.0000000e+00 3.8500000e+01 
7.5000000e-01 3.0000000e+00 3.9000000e+01 
7.5000000e-01 3.0000000e+00 3.9500000e+01 
7.5000000e-01 3.0000000e+00 4.0000000e+01 
7.5000000e-01 3.0000000e+00 4.0500000e+01 
7.5000000e-01 3.0000000e+00 4.1000000e+01 
7.5000000e-01 3.0000000e+00 4.1500000e+01 
7.5000000e-01 3.0000000e+00 4.2000000e+01 
7.5000000e-01 3.0000000e+00 4.2500000e+01 
7.5000000e-01 3.0000000e+00 4.3000000e+01 
7.5000000e-01 3.0000000e+00 4.3500000e+01 
7.5000000e-01 3.0000000e+00 4.4000000e+01 
7.5000000e-01 3.0000000e+00 4.4500000e+01 
7.5000000e-01 3.0000000e+00 4.5000000e+01 
7.5000000e-01 3.0000000e+00 4.5500000e+01 
7.5000000e-01 3.0000000e+00 4.6000000e+01 
7.5000000e-01 3.0000000e+00 4.6500000e+01 
7.5000000e-01 3.0000000e+00 4.7000000e+01 
7.5000000e-01 3.0000000e+00 4.7500000e+01 
7.5000000e-01 3.0000000e+00 4.8000000e+01 
7.5000000e-01 3.0000000e+00 4.8500000e+01 
7.5000000e-01 3.0000000e+00 4.9000000e+01 
7.5000000e-01 3.0000000e+00 4.9500000e+01 
7.5000000e-01 3.0000000e+00 5.0500000e+01 
7.5000000e-01 3.0000000e+00 5.1000000e+01 
7.5000000e-01 3.0000000e+00 5.1500000e+01 
7.5000000e-01 3.0000000e+00 5.2000000e+01 
7.5000000e-01 3.0000000e+00 5.2500000e+01 
7.5000000e-01 3.0000000e+00 5.3000000e+01 
7.5000000e-01 3.0000000e+00 5.3500000e+01 
7.5000000e-01 3.0000000e+00 5.4000000e+01 
7.5000000e-01 3.0000000e+00 5.4500000e+01 
7.5000000e-01 3.0000000e+00 5.5000000e+01 
7.5000000e-01 3.0000000e+00 5.5500000e+01 
7.5000000e-01 3.0000000e+00 5.6000000e+01 
7.5000000e-01 3.0000000e+00 5.6500000e+01 
7.5000000e-01 3.0000000e+00 5.7000000e+01 
7.5000000e-01 3.0000000e+00 5.7500000e+01 
7.5000000e-01 3.0000000e+00 5.8000000e+01 
7.5000000e-01 3.0000000e+00 5.8500000e+01 
7.5000000e-01 3.0000000e+00 5.9000000e+01 
7.5000000e-01 3.0000000e+00 5.9500000e+01 
7.5000000e-01 3.0000000e+00 6.0000000e+01 
7.5000000e-01 3.0000000e+00 6.0500000e+01 
7.5000000e-01 3.0000000e+00 6.1000000e+01 
7.5000000e-01 3.0000000e+00 6.1500000e+01 
7.5000000e-01 3.0000000e+00 6.2000000e+01 
7.5000000e-01 3.0000000e+00 6.2500000e+01 
7.5000000e-01 3.0000000e+00 6.3000000e+01 
7.5000000e-01 3.0000000e+00 6.3500000e+01 
7.5000000e-01 3.0000000e+00 6.4000000e+01 
7.5000000e-01 3.0000000e+00 6.4500000e+01 
7.5000000e-01 3.0000000e+00 6.5000000e+01 
7.5000000e-01 3.0000000e+00 6.5500000e+01 
7.5000000e-01 3.0000000e+00 6.6000000e+01 
7.5000000e-01 3.0000000e+00 6.6500000e+01 
7.5000000e-01 3.0000000e+00 6.7000000e+01 
7.5000000e-01 3.0000000e+00 6.7500000e+01 
7.5000000e-01 3.0000000e+00 6.8000000e+01 
7.5000000e-01 3.0000000e+00 6.8500000e+01 
7.5000000e-01 3.0000000e+00 6.9000000e+01 
7.5000000e-01 3.0000000e+00 6.9500000e+01 
7.5000000e-01 3.0250001e+00 -2.5000000e+01 
7.5000000e-01 3.0250001e+00 -2.4500000e+01 
7.5000000e-01 3.0250001e+00 -2.4000000e+01 
7.5000000e-01 3.0250001e+00 -2.3500000e+01 
7.5000000e-01 3.0250001e+00 -2.3000000e+01 
7.5000000e-01 3.0250001e+00 -2.2500000e+01 
7.5000000e-01 3.0250001e+00 -2.2000000e+01 
7.5000000e-01 3.0250001e+00 -2.1500000e+01 
7.5000000e-01 3.0250001e+00 -2.1000000e+01 
7.5000000e-01 3.0250001e+00 -2.0500000e+01 
7.5000000e-01 3.0250001e+00 -2.0000000e+01 
7.5000000e-01 3.0250001e+00 -1.9500000e+01 
7.5000000e-01 3.0250001e+00 -1.9000000e+01 
7.5000000e-01 3.0250001e+00 -1.8500000e+01 
7.5000000e-01 3.0250001e+00 -1.8000000e+01 
7.5000000e-01 3.0250001e+00 -1.7500000e+01 
7.5000000e-01 3.0250001e+00 -1.7000000e+01 
7.5000000e-01 3.0250001e+00 -1.6500000e+01 
7.5000000e-01 3.0250001e+00 -1.6000000e+01 
7.5000000e-01 3.0250001e+00 -1.5500000e+01 
[...]
POINT_DATA 2186
FIELD FieldData 3
DISPLACEMENT 3 2186  float
0.0000000e+00 0.0000000e+00 0.0000000e+00 
0.0000000e+00 0.0000000e+00 0.0000000e+00 
0.0000000e+00 0.0000000e+00 0.0000000e+00 
0.0000000e+00 0.0000000e+00 0.0000000e+00 
2.7819195e-07 -1.1680382e-06 -9.1180091e-08 
-1.0263858e-14 -4.4967194e-14 -1.6342384e-14 
0.0000000e+00 -1.5555841e-05 0.0000000e+00 
0.0000000e+00 1.7016809e-13 0.0000000e+00 
-4.3097170e-08 -1.8376486e-06 7.7397900e-08 
1.8806007e-14 -4.9658015e-14 2.5230223e-14 
-7.7785842e-07 -4.4342578e-06 5.9539007e-06 
3.4521272e-14 -9.0091649e-13 1.0716749e-13 
0.0000000e+00 -5.3653903e-06 0.0000000e+00 
0.0000000e+00 1.6951955e-11 0.0000000e+00 
2.6569562e-05 4.9912323e-05 -2.1284613e-05 
-9.4570846e-13 2.8466882e-12 -1.6616488e-13 
-3.8195217e-06 3.9974311e-05 5.6213128e-07 
1.0617502e-13 2.4790879e-11 1.8738806e-12 
0.0000000e+00 2.8529588e-05 0.0000000e+00 
0.0000000e+00 5.3065628e-11 0.0000000e+00 
0.0000000e+00 5.8066273e-15 0.0000000e+00 
0.0000000e+00 -3.5475878e-14 0.0000000e+00 
0.0000000e+00 -5.0454991e-14 0.0000000e+00 
0.0000000e+00 1.7076885e-13 0.0000000e+00 
0.0000000e+00 4.2761820e-13 0.0000000e+00 
0.0000000e+00 -4.2791573e-13 0.0000000e+00 
0.0000000e+00 -2.5372510e-12 0.0000000e+00 
0.0000000e+00 -5.2066739e-13 0.0000000e+00 
0.0000000e+00 1.1334926e-11 0.0000000e+00 
0.0000000e+00 1.3598698e-11 0.0000000e+00 
0.0000000e+00 -3.7429500e-11 0.0000000e+00 
0.0000000e+00 -9.6565748e-11 0.0000000e+00 
0.0000000e+00 6.5039057e-11 0.0000000e+00 
0.0000000e+00 4.6715798e-10 0.0000000e+00 
0.0000000e+00 1.9590857e-10 0.0000000e+00 
0.0000000e+00 -1.6535282e-09 0.0000000e+00 
0.0000000e+00 -2.3796742e-09 0.0000000e+00 
0.0000000e+00 3.8211283e-09 0.0000000e+00 
0.0000000e+00 1.2361674e-08 0.0000000e+00 
0.0000000e+00 -1.1855295e-09 0.0000000e+00 
0.0000000e+00 -4.3003826e-08 0.0000000e+00 
0.0000000e+00 -3.8683282e-08 0.0000000e+00 
0.0000000e+00 9.7184696e-08 0.0000000e+00 
0.0000000e+00 2.1431987e-07 0.0000000e+00 
0.0000000e+00 -6.9324543e-08 0.0000000e+00 
0.0000000e+00 -6.7113888e-07 0.0000000e+00 
0.0000000e+00 -4.9371886e-07 0.0000000e+00 
0.0000000e+00 1.2253877e-06 0.0000000e+00 
0.0000000e+00 2.4800352e-06 0.0000000e+00 
0.0000000e+00 -3.0229231e-07 0.0000000e+00 
0.0000000e+00 -5.8871342e-06 0.0000000e+00 
0.0000000e+00 -5.6322483e-06 0.0000000e+00 
0.0000000e+00 5.8947312e-06 0.0000000e+00 
0.0000000e+00 1.7367978e-05 0.0000000e+00 
0.0000000e+00 8.5140900e-06 0.0000000e+00 
0.0000000e+00 -2.0665126e-05 0.0000000e+00 
0.0000000e+00 -3.7850023e-05 0.0000000e+00 
0.0000000e+00 -1.1819765e-05 0.0000000e+00 
0.0000000e+00 4.2120613e-05 0.0000000e+00 
0.0000000e+00 6.7211724e-05 0.0000000e+00 
0.0000000e+00 2.6207283e-05 0.0000000e+00 
0.0000000e+00 -5.1369228e-05 0.0000000e+00 
0.0000000e+00 -9.4852890e-05 0.0000000e+00 
0.0000000e+00 -6.3374449e-05 0.0000000e+00 
0.0000000e+00 1.6644624e-05 0.0000000e+00 
0.0000000e+00 8.1840866e-05 0.0000000e+00 
0.0000000e+00 9.0215231e-05 0.0000000e+00 
0.0000000e+00 5.0742343e-05 0.0000000e+00 
0.0000000e+00 7.5862190e-06 0.0000000e+00 
0.0000000e+00 1.5137297e-06 0.0000000e+00 
-2.2311410e-06 9.4131559e-05 4.5682905e-06 
5.8050509e-06 1.2133922e-04 -2.0656847e-05 
1.2102250e-05 9.6982141e-05 -1.5882266e-05 
1.3952100e-05 3.7196769e-05 9.2161754e-06 
2.4460091e-05 -2.7813900e-05 1.4574283e-05 
-1.1805048e-05 -1.1456125e-04 6.7517249e-05 
-4.1656676e-05 -3.1544743e-04 1.5748633e-04 
-8.5596148e-05 -7.7731884e-04 7.2346935e-05 
-1.7136062e-04 -1.5786986e-03 1.5715019e-04 
-2.0523011e-04 -2.6558603e-03 9.5606913e-05 
-2.5727731e-04 -3.8289342e-03 6.1312392e-05 
-3.3719593e-04 -4.7060107e-03 -4.7194339e-05 
-3.0242169e-04 -4.8485859e-03 1.2836824e-06 
-3.4533787e-04 -4.3828054e-03 -7.0479655e-05 
-2.7433634e-04 -4.1046999e-03 -7.2030634e-05 
-2.9239993e-04 -4.2057540e-03 -8.3057377e-05 
-2.8084731e-04 -4.3583158e-03 -1.5264336e-04 
-2.1301996e-04 -3.8174598e-03 -1.2766116e-04 
-4.1018597e-05 -2.5576586e-03 -1.9921722e-04 
-2.4982430e-05 -1.2565440e-03 -8.1357750e-05 
2.7240238e-05 -3.5341005e-04 -2.3708801e-05 
1.9147148e-05 1.1708839e-04 3.1071060e-05 
5.9940280e-06 2.6452547e-04 -1.2592584e-05 
1.8255354e-05 2.3900396e-04 1.7744505e-05 
-2.8609870e-06 1.6225492e-04 5.9566364e-06 
1.8403269e-05 9.1822352e-05 2.3532484e-05 
1.0240232e-05 5.1490260e-05 -1.6224806e-06 
3.8996404e-06 3.7493304e-05 -6.7324672e-06 
4.5443934e-07 2.3325172e-05 2.9787132e-06 
2.3297562e-06 -5.5781147e-06 6.5416207e-06 
-1.3562375e-06 -4.1012787e-05 -8.0829996e-06 
-2.1845879e-06 -6.0476625e-05 8.1323259e-07 
-2.8413233e-06 -4.4671400e-05 9.8356952e-07 
-1.6962427e-06 -4.7454514e-06 4.5300835e-06 
9.4965088e-07 2.9034956e-05 2.7294379e-06 
4.3121795e-06 4.0064861e-05 1.5330990e-06 
2.9432560e-06 3.2072068e-05 -7.6772958e-06 
-4.8154757e-06 5.9915278e-06 5.8433516e-06 
-8.2036186e-06 -2.5203452e-05 -4.2724914e-06 
-2.9774178e-06 -2.3997693e-05 -3.5064795e-06 
-3.9643353e-07 3.0921019e-05 1.3482659e-05 
7.5064190e-06 1.1293068e-04 -2.8035522e-05 
1.8063653e-05 1.5884658e-04 -1.9221954e-05 
1.5448684e-05 1.0535867e-04 1.4522695e-05 
1.3927233e-05 -4.5038891e-05 1.6059892e-05 
-2.4400093e-05 -2.2976179e-04 9.0643305e-05 
-5.0415907e-05 -4.4993503e-04 1.8001974e-04 
-7.2289782e-05 -8.3862490e-04 7.3276591e-05 
-1.2089722e-04 -1.5716412e-03 1.4196469e-04 
-2.0599604e-04 -2.7075950e-03 7.0692295e-05 
-2.9301675e-04 -4.0521389e-03 4.4861932e-05 
-3.8840849e-04 -4.9701147e-03 -7.1956820e-05 
-3.6430129e-04 -4.8861192e-03 -7.0325783e-05 
-3.6142051e-04 -4.3211835e-03 -9.8739307e-05 
-2.7857278e-04 -4.0971627e-03 -8.2950159e-05 
-2.9047043e-04 -4.2848443e-03 -8.7833811e-05 
-3.0618443e-04 -4.4118306e-03 -1.9884699e-04 
-2.5958809e-04 -3.6571075e-03 -1.4483009e-04 
-9.9282261e-05 -2.3572317e-03 -2.4036744e-04 
-4.4381406e-05 -1.1088017e-03 -9.2157738e-05 
2.3821627e-05 -2.6416278e-04 -4.9314149e-05 
2.8487842e-05 1.6419090e-04 3.6141784e-05 
6.2521785e-06 2.6273064e-04 -2.6227335e-06 
1.2745396e-05 2.0128644e-04 2.4662824e-05 
1.2690047e-06 1.3058589e-04 -2.4422593e-07 
3.8864459e-06 9.3816438e-05 -9.4763282e-06 
3.9363313e-06 7.3337767e-05 1.7722561e-05 
-4.5169591e-06 4.1259653e-05 -8.9340565e-06 
4.2838445e-07 -8.6232521e-06 -4.5986812e-07 
1.3658869e-06 -5.2958294e-05 5.9752756e-06 
-1.6015791e-06 -6.2845233e-05 -5.1312195e-06 
-1.4445912e-06 -3.6802565e-05 -9.3896568e-07 
7.3052450e-07 5.9165545e-06 1.9722397e-06 
-6.8018107e-07 3.4655535e-05 -8.0016571e-07 
-1.2162502e-07 2.7263877e-05 1.1608350e-06 
1.3332499e-06 -1.0167643e-06 4.4054505e-07 
-6.5770143e-07 -1.8691091e-05 -5.3013855e-07 
-1.3034799e-08 -1.3883641e-05 -8.7799371e-08 
4.4183966e-07 1.5445191e-06 1.4322407e-07 
-2.3103394e-07 9.1727088e-06 -4.1957701e-10 
-9.3238320e-08 4.2804368e-06 2.9424100e-08 
-1.1579574e-07 -2.6408038e-06 2.5355321e-08 
-1.6472718e-10 -3.1468753e-06 -4.0505860e-08 
2.1792570e-08 -2.0335161e-08 -6.1480336e-09 
6.2500689e-09 1.2898610e-06 1.8684402e-08 
-1.0979604e-09 4.2184462e-07 1.5822673e-09 
-3.0733329e-09 -3.4416090e-07 -4.8504272e-09 
-9.3586183e-10 -2.4677729e-07 9.1695124e-11 
1.0344202e-09 4.7287848e-08 6.2980043e-10 
6.7860745e-10 9.1839745e-08 -2.3086250e-10 
-2.5950903e-10 7.7135001e-09 7.7107314e-11 
-2.4032171e-10 -2.5965072e-08 4.3270890e-11 
4.4556983e-11 -7.7978619e-09 -8.3721675e-11 
5.6536168e-11 5.7825287e-09 -1.1586811e-11 
-4.0353207e-12 3.1434713e-09 3.3652761e-11 
1.5583148e-11 -1.0054529e-09 7.5715770e-12 
-2.2551303e-12 -1.0230738e-09 -9.5541648e-12 
-7.2453333e-13 5.8873045e-11 1.2574691e-12 
1.8551011e-12 2.4856511e-10 -5.7237434e-13 
0.0000000e+00 -6.4510189e-11 0.0000000e+00 
0.0000000e+00 -2.4010585e-11 0.0000000e+00 
0.0000000e+00 9.4144146e-12 0.0000000e+00 
0.0000000e+00 7.7845447e-12 0.0000000e+00 
0.0000000e+00 -3.8813852e-13 0.0000000e+00 
0.0000000e+00 -1.8210726e-12 0.0000000e+00 
0.0000000e+00 -2.9832934e-13 0.0000000e+00 
0.0000000e+00 3.3775421e-13 0.0000000e+00 
0.0000000e+00 1.3702970e-13 0.0000000e+00 
0.0000000e+00 -4.3434992e-14 0.0000000e+00 
0.0000000e+00 -3.9527883e-14 0.0000000e+00 
0.0000000e+00 -2.1175786e-15 0.0000000e+00 
0.0000000e+00 6.4477423e-15 0.0000000e+00 
0.0000000e+00 2.2123590e-15 0.0000000e+00 
0.0000000e+00 2.5415417e-16 0.0000000e+00 
0.0000000e+00 2.3076944e-16 0.0000000e+00 
0.0000000e+00 -2.9363361e-16 0.0000000e+00 
0.0000000e+00 -4.1570514e-16 0.0000000e+00 
0.0000000e+00 -7.3213023e-16 0.0000000e+00 
0.0000000e+00 -6.8999165e-17 0.0000000e+00 
0.0000000e+00 1.0288794e-15 0.0000000e+00 
0.0000000e+00 1.1005145e-15 0.0000000e+00 
0.0000000e+00 6.7576222e-17 0.0000000e+00 
0.0000000e+00 -1.9448887e-15 0.0000000e+00 
0.0000000e+00 -1.5554839e-15 0.0000000e+00 
0.0000000e+00 8.6318491e-16 0.0000000e+00 
0.0000000e+00 2.6907524e-15 0.0000000e+00 
0.0000000e+00 7.1101539e-16 0.0000000e+00 
0.0000000e+00 -1.2791787e-15 0.0000000e+00 
0.0000000e+00 -2.2289975e-15 0.0000000e+00 
0.0000000e+00 -5.5690129e-16 0.0000000e+00 
0.0000000e+00 1.2294019e-15 0.0000000e+00 
0.0000000e+00 2.2541662e-15 0.0000000e+00 
0.0000000e+00 1.8180529e-16 0.0000000e+00 
0.0000000e+00 -1.7543506e-15 0.0000000e+00 
0.0000000e+00 -1.6739446e-15 0.0000000e+00 
0.0000000e+00 4.7054893e-16 0.0000000e+00 
0.0000000e+00 1.3300785e-15 0.0000000e+00 
0.0000000e+00 4.4663502e-16 0.0000000e+00 
0.0000000e+00 4.0830613e-15 0.0000000e+00 
0.0000000e+00 -3.8901265e-14 0.0000000e+00 
0.0000000e+00 -4.6063102e-14 0.0000000e+00 
0.0000000e+00 1.9751747e-13 0.0000000e+00 
0.0000000e+00 4.3393921e-13 0.0000000e+00 
0.0000000e+00 -5.5625437e-13 0.0000000e+00 
0.0000000e+00 -2.6868559e-12 0.0000000e+00 
0.0000000e+00 -6.2347649e-14 0.0000000e+00 
0.0000000e+00 1.2430414e-11 0.0000000e+00 
0.0000000e+00 1.2543978e-11 0.0000000e+00 
0.0000000e+00 -4.3127019e-11 0.0000000e+00 
0.0000000e+00 -9.7149150e-11 0.0000000e+00 
0.0000000e+00 8.8030784e-11 0.0000000e+00 
0.0000000e+00 4.8965426e-10 0.0000000e+00 
0.0000000e+00 1.2583674e-10 0.0000000e+00 
0.0000000e+00 -1.7995366e-09 0.0000000e+00 
0.0000000e+00 -2.2484197e-09 0.0000000e+00 
0.0000000e+00 4.4533044e-09 0.0000000e+00 
0.0000000e+00 1.2451315e-08 0.0000000e+00 
0.0000000e+00 -3.2096428e-09 0.0000000e+00 
0.0000000e+00 -4.5011340e-08 0.0000000e+00 
0.0000000e+00 -3.4138314e-08 0.0000000e+00 
0.0000000e+00 1.0698337e-07 0.0000000e+00 
0.0000000e+00 2.0964912e-07 0.0000000e+00 
0.0000000e+00 -9.9998822e-08 0.0000000e+00 
0.0000000e+00 -6.8482592e-07 0.0000000e+00 
0.0000000e+00 -4.2886242e-07 0.0000000e+00 
0.0000000e+00 1.3127714e-06 0.0000000e+00 
0.0000000e+00 2.4078265e-06 0.0000000e+00 
0.0000000e+00 -5.5120762e-07 0.0000000e+00 
0.0000000e+00 -5.9541931e-06 0.0000000e+00 
0.0000000e+00 -5.2118921e-06 0.0000000e+00 
0.0000000e+00 6.3833295e-06 0.0000000e+00 
0.0000000e+00 1.7078317e-05 0.0000000e+00 
0.0000000e+00 7.4668728e-06 0.0000000e+00 
0.0000000e+00 -2.1166783e-05 0.0000000e+00 
0.0000000e+00 -3.6805392e-05 0.0000000e+00 
0.0000000e+00 -1.0185467e-05 0.0000000e+00 
0.0000000e+00 4.2304815e-05 0.0000000e+00 
0.0000000e+00 6.5438522e-05 0.0000000e+00 
0.0000000e+00 2.4358658e-05 0.0000000e+00 
0.0000000e+00 -5.1236100e-05 0.0000000e+00 
0.0000000e+00 -9.2938702e-05 0.0000000e+00 
0.0000000e+00 -6.1731007e-05 0.0000000e+00 
0.0000000e+00 1.6536440e-05 0.0000000e+00 
0.0000000e+00 8.0394617e-05 0.0000000e+00 
0.0000000e+00 8.8879358e-05 0.0000000e+00 
0.0000000e+00 5.0536430e-05 0.0000000e+00 
0.0000000e+00 8.5066004e-06 0.0000000e+00 
0.0000000e+00 2.8224099e-06 0.0000000e+00 
0.0000000e+00 4.0824714e-05 0.0000000e+00 
0.0000000e+00 9.3985152e-05 0.0000000e+00 
0.0000000e+00 1.1987863e-04 0.0000000e+00 
0.0000000e+00 9.5962969e-05 0.0000000e+00 
0.0000000e+00 3.8358405e-05 0.0000000e+00 
0.0000000e+00 -2.5222795e-05 0.0000000e+00 
0.0000000e+00 -1.1185827e-04 0.0000000e+00 
0.0000000e+00 -3.1672575e-04 0.0000000e+00 
0.0000000e+00 -7.8208186e-04 0.0000000e+00 
0.0000000e+00 -1.5838939e-03 0.0000000e+00 
0.0000000e+00 -2.6648310e-03 0.0000000e+00 
0.0000000e+00 -3.8391084e-03 0.0000000e+00 
0.0000000e+00 -4.7308616e-03 0.0000000e+00 
0.0000000e+00 -4.8773815e-03 0.0000000e+00 
0.0000000e+00 -4.4159503e-03 0.0000000e+00 
0.0000000e+00 -4.1222433e-03 0.0000000e+00 
0.0000000e+00 -4.2294362e-03 0.0000000e+00 
0.0000000e+00 -4.3780673e-03 0.0000000e+00 
0.0000000e+00 -3.8460011e-03 0.0000000e+00 
0.0000000e+00 -2.5764771e-03 0.0000000e+00 
0.0000000e+00 -1.2696945e-03 0.0000000e+00 
0.0000000e+00 -3.5749949e-04 0.0000000e+00 
0.0000000e+00 1.1596053e-04 0.0000000e+00 
0.0000000e+00 2.6568322e-04 0.0000000e+00 
0.0000000e+00 2.4186519e-04 0.0000000e+00 
0.0000000e+00 1.6362015e-04 0.0000000e+00 
0.0000000e+00 9.2348608e-05 0.0000000e+00 
0.0000000e+00 5.1677758e-05 0.0000000e+00 
0.0000000e+00 3.6971516e-05 0.0000000e+00 
0.0000000e+00 2.3208728e-05 0.0000000e+00 
0.0000000e+00 -5.3223871e-06 0.0000000e+00 
0.0000000e+00 -4.1032159e-05 0.0000000e+00 
0.0000000e+00 -6.0185645e-05 0.0000000e+00 
0.0000000e+00 -4.4566979e-05 0.0000000e+00 
0.0000000e+00 -5.2878422e-06 0.0000000e+00 
0.0000000e+00 2.8849629e-05 0.0000000e+00 
0.0000000e+00 4.1033411e-05 0.0000000e+00 
0.0000000e+00 3.1863976e-05 0.0000000e+00 
0.0000000e+00 4.4107292e-06 0.0000000e+00 
0.0000000e+00 -2.5549089e-05 0.0000000e+00 
0.0000000e+00 -2.2585542e-05 0.0000000e+00 
0.0000000e+00 3.3063247e-05 0.0000000e+00 
0.0000000e+00 1.1407491e-04 0.0000000e+00 
0.0000000e+00 1.5646867e-04 0.0000000e+00 
0.0000000e+00 1.0223463e-04 0.0000000e+00 
0.0000000e+00 -4.3592427e-05 0.0000000e+00 
0.0000000e+00 -2.2519514e-04 0.0000000e+00 
0.0000000e+00 -4.4733143e-04 0.0000000e+00 
0.0000000e+00 -8.4084726e-04 0.0000000e+00 
0.0000000e+00 -1.5802858e-03 0.0000000e+00 
0.0000000e+00 -2.7256850e-03 0.0000000e+00 
0.0000000e+00 -4.0656528e-03 0.0000000e+00 
0.0000000e+00 -4.9932715e-03 0.0000000e+00 
0.0000000e+00 -4.9093058e-03 0.0000000e+00 
0.0000000e+00 -4.3526227e-03 0.0000000e+00 
0.0000000e+00 -4.1165240e-03 0.0000000e+00 
0.0000000e+00 -4.3133018e-03 0.0000000e+00 
0.0000000e+00 -4.4328449e-03 0.0000000e+00 
0.0000000e+00 -3.6831859e-03 0.0000000e+00 
0.0000000e+00 -2.3701431e-03 0.0000000e+00 
0.0000000e+00 -1.1211499e-03 0.0000000e+00 
0.0000000e+00 -2.6732343e-04 0.0000000e+00 
0.0000000e+00 1.6213479e-04 0.0000000e+00 
0.0000000e+00 2.6412733e-04 0.0000000e+00 
0.0000000e+00 2.0549398e-04 0.0000000e+00 
0.0000000e+00 1.3238461e-04 0.0000000e+00 
0.0000000e+00 9.3557348e-05 0.0000000e+00 
0.0000000e+00 7.2481242e-05 0.0000000e+00 
0.0000000e+00 4.0603260e-05 0.0000000e+00 
0.0000000e+00 -8.4632011e-06 0.0000000e+00 
0.0000000e+00 -5.1817482e-05 0.0000000e+00 
0.0000000e+00 -6.2326406e-05 0.0000000e+00 
0.0000000e+00 -3.6813421e-05 0.0000000e+00 
0.0000000e+00 5.3979220e-06 0.0000000e+00 
0.0000000e+00 3.3374745e-05 0.0000000e+00 
0.0000000e+00 2.6999565e-05 0.0000000e+00 
0.0000000e+00 9.1321672e-10 0.0000000e+00 
0.0000000e+00 -1.7964243e-05 0.0000000e+00 
0.0000000e+00 -1.4036102e-05 0.0000000e+00 
0.0000000e+00 9.5413338e-07 0.0000000e+00 
0.0000000e+00 8.8573579e-06 0.0000000e+00 
0.0000000e+00 4.5156430e-06 0.0000000e+00 
0.0000000e+00 -2.3085277e-06 0.0000000e+00 
0.0000000e+00 -3.1663956e-06 0.0000000e+00 
0.0000000e+00 -2.0666573e-07 0.0000000e+00 
0.0000000e+00 1.2504694e-06 0.0000000e+00 
0.0000000e+00 4.9448079e-07 0.0000000e+00 
0.0000000e+00 -3.1253037e-07 0.0000000e+00 
0.0000000e+00 -2.6694929e-07 0.0000000e+00 
0.0000000e+00 3.1984719e-08 0.0000000e+00 
0.0000000e+00 9.5311336e-08 0.0000000e+00 
0.0000000e+00 1.3336345e-08 0.0000000e+00 
0.0000000e+00 -2.5874561e-08 0.0000000e+00 
0.0000000e+00 -9.4825321e-09 0.0000000e+00 
0.0000000e+00 5.4251297e-09 0.0000000e+00 
0.0000000e+00 3.5721885e-09 0.0000000e+00 
0.0000000e+00 -8.4023544e-10 0.0000000e+00 
0.0000000e+00 -1.1105631e-09 0.0000000e+00 
0.0000000e+00 1.0541351e-12 0.0000000e+00 
0.0000000e+00 2.6362637e-10 0.0000000e+00 
0.0000000e+00 3.9507519e-11 0.0000000e+00 
0.0000000e+00 -6.4842333e-11 0.0000000e+00 
0.0000000e+00 -2.7524920e-11 0.0000000e+00 
0.0000000e+00 8.7082164e-12 0.0000000e+00 
0.0000000e+00 8.4960441e-12 0.0000000e+00 
0.0000000e+00 -6.5340833e-14 0.0000000e+00 
0.0000000e+00 -1.9190092e-12 0.0000000e+00 
0.0000000e+00 -3.9097436e-13 0.0000000e+00 
0.0000000e+00 3.4033407e-13 0.0000000e+00 
0.0000000e+00 1.5770829e-13 0.0000000e+00 
0.0000000e+00 -3.9250877e-14 0.0000000e+00 
0.0000000e+00 -4.3500631e-14 0.0000000e+00 
0.0000000e+00 -3.6171631e-15 0.0000000e+00 
0.0000000e+00 6.7917440e-15 0.0000000e+00 
0.0000000e+00 2.6870911e-15 0.0000000e+00 
0.0000000e+00 2.7452274e-16 0.0000000e+00 
0.0000000e+00 8.4586702e-17 0.0000000e+00 
0.0000000e+00 -1.4424358e-16 0.0000000e+00 
0.0000000e+00 -7.0976702e-16 0.0000000e+00 
0.0000000e+00 -5.8573435e-16 0.0000000e+00 
0.0000000e+00 1.2128649e-16 0.0000000e+00 
0.0000000e+00 9.6896620e-16 0.0000000e+00 
0.0000000e+00 9.8439554e-16 0.0000000e+00 
0.0000000e+00 -2.5516854e-16 0.0000000e+00 
0.0000000e+00 -1.4926380e-15 0.0000000e+00 
0.0000000e+00 -1.3795805e-15 0.0000000e+00 
0.0000000e+00 6.5719195e-16 0.0000000e+00 
0.0000000e+00 2.1574052e-15 0.0000000e+00 
0.0000000e+00 1.3489953e-15 0.0000000e+00 
0.0000000e+00 -1.3325234e-15 0.0000000e+00 
0.0000000e+00 -2.4154025e-15 0.0000000e+00 
0.0000000e+00 -7.1757968e-16 0.0000000e+00 
0.0000000e+00 1.7868050e-15 0.0000000e+00 
0.0000000e+00 1.9077321e-15 0.0000000e+00 
0.0000000e+00 -3.4272604e-17 0.0000000e+00 
0.0000000e+00 -1.6713573e-15 0.0000000e+00 
0.0000000e+00 -1.2121552e-15 0.0000000e+00 
0.0000000e+00 2.5914232e-16 0.0000000e+00 
0.0000000e+00 8.6755814e-16 0.0000000e+00 
0.0000000e+00 7.8864008e-16 0.0000000e+00 
0.0000000e+00 0.0000000e+00 0.0000000e+00 
0.0000000e+00 0.0000000e+00 0.0000000e+00 
0.0000000e+00 0.0000000e+00 0.0000000e+00 
0.0000000e+00 0.0000000e+00 0.0000000e+00 
0.0000000e+00 0.0000000e+00 0.0000000e+00 
0.0000000e+00 0.0000000e+00 0.0000000e+00 
0.0000000e+00 0.0000000e+00 0.0000000e+00 
0.0000000e+00 0.0000000e+00 0.0000000e+00 
0.0000000e+00 0.0000000e+00 0.0000000e+00 
0.0000000e+00 0.0000000e+00 0.0000000e+00 
0.0000000e+00 0.0000000e+00 0.0000000e+00 
0.0000000e+00 0.0000000e+00 0.0000000e+00 
0.0000000e+00 0.0000000e+00 0.0000000e+00 
0.0000000e+00 0.0000000e+00 0.0000000e+00 
0.0000000e+00 0.0000000e+00 0.0000000e+00 
0.0000000e+00 0.0000000e+00 0.0000000e+00 
0.0000000e+00 0.0000000e+00 0.0000000e+00 
0.0000000e+00 0.0000000e+00 0.0000000e+00 
0.0000000e+00 0.0000000e+00 0.0000000e+00 
0.0000000e+00 0.0000000e+00 0.0000000e+00 
0.0000000e+00 0.0000000e+00 0.0000000e+00 
0.0000000e+00 0.0000000e+00 0.0000000e+00 
0.0000000e+00 0.0000000e+00 0.0000000e+00 
0.0000000e+00 0.0000000e+00 0.0000000e+00 
0.0000000e+00 0.0000000e+00 0.0000000e+00 
0.0000000e+00 0.0000000e+00 0.0000000e+00 
0.0000000e+00 0.0000000e+00 0.0000000e+00 
0.0000000e+00 0.0000000e+00 0.0000000e+00 
0.0000000e+00 0.0000000e+00 0.0000000e+00 
0.0000000e+00 0.0000000e+00 0.0000000e+00 
0.0000000e+00 0.0000000e+00 0.0000000e+00 
0.0000000e+00 0.0000000e+00 0.0000000e+00 
0.0000000e+00 0.0000000e+00 0.0000000e+00 
0.0000000e+00 0.0000000e+00 0.0000000e+00 
0.0000000e+00 0.0000000e+00 0.0000000e+00 
0.0000000e+00 0.0000000e+00 0.0000000e+00 
0.0000000e+00 0.0000000e+00 0.0000000e+00 
0.0000000e+00 0.0000000e+00 0.0000000e+00 
0.0000000e+00 0.0000000e+00 0.0000000e+00 
0.0000000e+00 0.0000000e+00 0.0000000e+00 
0.0000000e+00 0.0000000e+00 0.0000000e+00 
0.0000000e+00 0.0000000e+00 0.0000000e+00 
0.0000000e+00 0.0000000e+00 0.0000000e+00 
0.0000000e+00 0.0000000e+00 0.0000000e+00 
0.0000000e+00 0.0000000e+00 0.0000000e+00 
0.0000000e+00 0.0000000e+00 0.0000000e+00 
0.0000000e+00 0.0000000e+00 0.0000000e+00 
0.0000000e+00 0.0000000e+00 0.0000000e+00 
0.0000000e+00 0.0000000e+00 0.0000000e+00 
0.0000000e+00 0.0000000e+00 0.0000000e+00 
0.0000000e+00 0.0000000e+00 0.0000000e+00 
0.0000000e+00 0.0000000e+00 0.0000000e+00 
0.0000000e+00 0.0000000e+00 0.0000000e+00 
0.0000000e+00 0.0000000e+00 0.0000000e+00 
0.0000000e+00 0.0000000e+00 0.0000000e+00 
0.0000000e+00 0.0000000e+00 0.0000000e+00 
0.0000000e+00 0.0000000e+00 0.0000000e+00 
0.0000000e+00 0.0000000e+00 0.0000000e+00 