# vtk DataFile Version 4.0
vtk output
ASCII
DATASET UNSTRUCTURED_GRID
POINTS 2186 float
0.0000000e+00 0.0000000e+00 0.0000000e+00 
0.0000000e+00 0.0000000e+00 5.0000000e+01 
5.0000000e+00 0.0000000e+00 0.0000000e+00 
5.0000000e+00 0.0000000e+00 5.0000000e+01 
5.0000000e+00 1.0000000e+00 0.0000000e+00 
5.0000000e+00 1.0000000e+00 5.0000000e+01 
0.0000000e+00 1.0000000e+00 0.0000000e+00 
0.0000000e+00 1.0000000e+00 5.0000000e+01 
5.0000000e+00 2.0000000e+00 0.0000000e+00 
5.0000000e+00 2.0000000e+00 5.0000000e+01 
3.0000000e+00 2.0000000e+00 0.0000000e+00 
3.0000000e+00 2.0000000e+00 5.0000000e+01 
0.0000000e+00 2.0000000e+00 0.0000000e+00 
0.0000000e+00 2.0000000e+00 5.0000000e+01 
1.5000000e+00 3.0000000e+00 0.0000000e+00 
1.5000000e+00 3.0000000e+00 5.0000000e+01 
7.5000000e-01 3.0000000e+00 0.0000000e+00 
7.5000000e-01 3.0000000e+00 5.0000000e+01 
0.0000000e+00 3.0000000e+00 0.0000000e+00 
0.0000000e+00 3.0000000e+00 5.0000000e+01 
7.5000000e-01 3.0000000e+00 -2.5000000e+01 
7.5000000e-01 3.0000000e+00 -2.4500000e+01 
7.5000000e-01 3.0000000e+00 -2.4000000e+01 
7.5000000e-01 3.0000000e+00 -2.3500000e+01 
7.5000000e-01 3.0000000e+00 -2.3000000e+01 
7.5000000e-01 3.0000000e+00 -2.2500000e+01 
7.5000000e-01 3.0000000e+00 -2.2000000e+01 
7.5000000e-01 3.0000000e+00 -2.1500000e+01 
7.5000000e-01 3.0000000e+00 -2.1000000e+01 
7.5000000e-01 3.0000000e+00 -2.0500000e+01 
7.5000000e-01 3.0000000e+00 -2.0000000e+01 
7.5000000e-01 3.0000000e+00 -1.9500000e+01 
7.5000000e-01 3.0000000e+00 -1.9000000e+01 
7.5000000e-01 3.0000000e+00 -1.8500000e+01 
7.5000000e-01 3.0000000e+00 -1.8000000e+01 
7.5000000e-01 3.0000000e+00 -1.7500000e+01 
7.5000000e-01 3.0000000e+00 -1.7000000e+01 
7.5000000e-01 3.0000000e+00 -1.6500000e+01 
7.5000000e-01 3.0000000e+00 -1.6000000e+01 
7.5000000e-01 3.0000000e+00 -1.5500000e+01 
7.5000000e-01 3.0000000e+00 -1.5000000e+01 
7.5000000e-01 3.0000000e+00 -1.4500000e+01 
7.5000000e-01 3.0000000e+00 -1.4000000e+01 
7.5000000e-01 3.0000000e+00 -1.3500000e+01 
7.5000000e-01 3.0000000e+00 -1.3000000e+01 
7.5000000e-01 3.0000000e+00 -1.2500000e+01 
7.5000000e-01 3.0000000e+00 -1.2000000e+01 
7.5000000e-01 3.0000000e+00 -1.1500000e+01 
7.5000000e-01 3.0000000e+00 -1.1000000e+01 
7.5000000e-01 3.0000000e+00 -1.0500000e+01 
7.5000000e-01 3.0000000e+00 -1.0000000e+01 
7.5000000e-01 3.0000000e+00 -9.5000000e+00 
7.5000000e-01 3.0000000e+00 -9.0000000e+00 
7.5000000e-01 3.0000000e+00 -8.5000000e+00 
7.5000000e-01 3.0000000e+00 -8.0000000e+00 
7.5000000e-01 3.0000000e+00 -7.5000000e+00 
7.5000000e-01 3.0000000e+00 -7.0000000e+00 
7.5000000e-01 3.0000000e+00 -6.5000000e+00 
7.5000000e-01 3.0000000e+00 -6.0000000e+00 
7.5000000e-01 3.0000000e+00 -5.5000000e+00 
7.5000000e-01 3.0000000e+00 -5.0000000e+00 
7.5000000e-01 3.0000000e+00 -4.5000000e+00 
7.5000000e-01 3.0000000e+00 -4.0000000e+00 
7.5000000e-01 3.0000000e+00 -3.5000000e+00 
7.5000000e-01 3.0000000e+00 -3.0000000e+00 
7.5000000e-01 3.0000000e+00 -2.5000000e+00 
7.5000000e-01 3.0000000e+00 -2.0000000e+00 
7.5000000e-01 3.0000000e+00 -1.5000000e+00 
7.5000000e-01 3.0000000e+00 -1.0000000e+00 
7.5000000e-01 3.0000000e+00 -5.0000000e-01 
7.5000000e-01 3.0000000e+00 5.0000000e-01 
7.5000000e-01 3.0000000e+00 1.0000000e+00 
7.5000000e-01 3.0000000e+00 1.5000000e+00 
7.5000000e-01 3.0000000e+00 2.0000000e+00 
7.5000000e-01 3.0000000e+00 2.5000000e+00 
7.5000000e-01 3.0000000e+00 3.0000000e+00 
7.5000000e-01 3.0000000e+00 3.5000000e+00 
7.5000000e-01 3.0000000e+00 4.0000000e+00 
7.5000000e-01 3.0000000e+00 4.5000000e+00 
7.5000000e-01 3.0000000e+00 5.0000000e+00 
7.5000000e-01 3.0000000e+00 5.5000000e+00 
7.5000000e-01 3.0000000e+00 6.0000000e+00 
7.5000000e-01 3.0000000e+00 6.5000000e+00 
7.5000000e-01 3.0000000e+00 7.0000000e+00 
7.5000000e-01 3.0000000e+00 7.5000000e+00 
7.5000000e-01 3.0000000e+00 8.0000000e+00 
7.5000000e-01 3.0000000e+00 8.5000000e+00 
7.5000000e-01 3.0000000e+00 9.0000000e+00 
7.5000000e-01 3.0000000e+00 9.5000000e+00 
7.5000000e-01 3.0000000e+00 1.0000000e+01 
7.5000000e-01 3.0000000e+00 1.0500000e+01 
7.5000000e-01 3.0000000e+00 1.1000000e+01 
7.5000000e-01 3.0000000e+00 1.1500000e+01 
7.5000000e-01 3.0000000e+00 1.2000000e+01 
7.5000000e-01 3.0000000e+00 1.2500000e+01 
7.5000000e-01 3.0000000e+00 1.3000000e+01 
7.5000000e-01 3.0000000e+00 1.3500000e+01 
7.5000000e-01 3.0000000e+00 1.4000000e+01 
7.5000000e-01 3.0000000e+00 1.4500000e+01 
7.5000000e-01 3.0000000e+00 1.5000000e+01 
7.5000000e-01 3.0000000e+00 1.5500000e+01 
7.5000000e-01 3.0000000e+00 1.6000000e+01 
7.5000000e-01 3.0000000e+00 1.6500000e+01 
7.5000000e-01 3.0000000e+00 1.7000000e+01 
7.5000000e-01 3.0000000e+00 1.7500000e+01 
7.5000000e-01 3.0000000e+00 1.8000000e+01 
7.5000000e-01 3.0000000e+00 1.8500000e+01 
7.5000000e-01 3.0000000e+00 1.9000000e+01 
7.5000000e-01 3.0000000e+00 1.9500000e+01 
7.5000000e-01 3.0000000e+00 2.0000000e+01 
7.5000000e-01 3.0000000e+00 2.0500000e+01 
7.5000000e-01 3.0000000e+00 2.1000000e+01 
7.5000000e-01 3.0000000e+00 2.1500000e+01 
7.5000000e-01 3.0000000e+00 2.2000000e+01 
7.5000000e-01 3.0000000e+00 2.2500000e+01 
7.5000000e-01 3.0000000e+00 2.3000000e+01 
7.5000000e-01 3.0000000e+00 2.3500000e+01 
7.5000000e-01 3.0000000e+00 2.4000000e+01 
7.5000000e-01 3.0000000e+00 2.4500000e+01 
7.5000000e-01 3.0000000e+00 2.5000000e+01 
7.5000000e-01 3.0000000e+00 2.5500000e+01 
7.5000000e-01 3.0000000e+00 2.6000000e+01 
7.5000000e-01 3.0000000e+00 2.6500000e+01 
7.5000000e-01 3.0000000e+00 2.7000000e+01 
7.5000000e-01 3.0000000e+00 2.7500000e+01 
7.5000000e-01 3.0000000e+00 2.8000000e+01 
7.5000000e-01 3.0000000e+00 2.8500000e+01 
7.5000000e-01 3.0000000e+00 2.9000000e+01 
7.5000000e-01 3.0000000e+00 2.9500000e+01 
7.5000000e-01 3.0000000e+00 3.0000000e+01 
7.5000000e-01 3.0000000e+00 3.0500000e+01 
7.5000000e-01 3.0000000e+00 3.1000000e+01 
7.5000000e-01 3.0000000e+00 3.1500000e+01 
7.5000000e-01 3.0000000e+00 3.2000000e+01 
7.5000000e-01 3.0000000e+00 3.2500000e+01 
7.5000000e-01 3.0000000e+00 3.3000000e+01 
7.5000000e-01 3.0000000e+00 3.3500000e+01 
7.5000000e-01 3.0000000e+00 3.4000000e+01 
7.5000000e-01 3.0000000e+00 3.4500000e+01 
7.5000000e-01 3.0000000e+00 3.5000000e+01 
7.5000000e-01 3.0000000e+00 3.5500000e+01 
7.5000000e-01 3.0000000e+00 3.6000000e+01 
7.5000000e-01 3.0000000e+00 3.6500000e+01 
7.5000000e-01 3.0000000e+00 3.7000000e+01 
7.5000000e-01 3.0000000e+00 3.7500000e+01 
7.5000000e-01 3.0000000e+00 3.8000000e+01 
7.5000000e-01 3.0000000e+00 3.8500000e+01 
7.5000000e-01 3.0000000e+00 3.9000000e+01 
7.5000000e-01 3.0000000e+00 3.9500000e+01 
7.5000000e-01 3.0000000e+00 4.0000000e+01 
7.5000000e-01 3.0000000e+00 4.0500000e+01 
7.5000000e-01 3.0000000e+00 4.1000000e+01 
7.5000000e-01 3.0000000e+00 4.1500000e+01 
7.5000000e-01 3.0000000e+00 4.2000000e+01 
7.5000000e-01 3.0000000e+00 4.2500000e+01 
7.5000000e-01 3.0000000e+00 4.3000000e+01 
7.5000000e-01 3.0000000e+00 4.3500000e+01 
7.5000000e-01 3.0000000e+00 4.4000000e+01 
7.5000000e-01 3.0000000e+00 4.4500000e+01 
7.5000000e-01 3.0000000e+00 4.5000000e+01 
7.5000000e-01 3.0000000e+00 4.5500000e+01 
7.5000000e-01 3.0000000e+00 4.6000000e+01 
7.5000000e-01 3.0000000e+00 4.6500000e+01 
7.5000000e-01 3.0000000e+00 4.7000000e+01 
7.5000000e-01 3.0000000e+00 4.7500000e+01 
7.5000000e-01 3.0000000e+00 4.8000000e+01 
7.5000000e-01 3.0000000e+00 4.8500000e+01 
7.5000000e-01 3.0000000e+00 4.9000000e+01 
7.5000000e-01 3.0000000e+00 4.9500000e+01 
7.5000000e-01 3.0000000e+00 5.0500000e+01 
7.5000000e-01 3.0000000e+00 5.1000000e+01 
7.5000000e-01 3.0000000e+00 5.1500000e+01 
7.5000000e-01 3.0000000e+00 5.2000000e+01 
7.5000000e-01 3.0000000e+00 5.2500000e+01 
7.5000000e-01 3.0000000e+00 5.3000000e+01 
7.5000000e-01 3.0000000e+00 5.3500000e+01 
7.5000000e-01 3.0000000e+00 5.4000000e+01 
7.5000000e-01 3.0000000e+00 5.4500000e+01 
7.5000000e-01 3.0000000e+00 5.5000000e+01 
7.5000000e-01 3.0000000e+00 5.5500000e+01 
7.5000000e-01 3.0000000e+00 5.6000000e+01 
7.5000000e-01 3.0000000e+00 5.6500000e+01 
7.5000000e-01 3.0000000e+00 5.7000000e+01 
7.5000000e-01 3.0000000e+00 5.7500000e+01 
7.5000000e-01 3.0000000e+00 5.8000000e+01 
7.5000000e-01 3.0000000e+00 5.8500000e+01 
7.5000000e-01 3.0000000e+00 5.9000000e+01 
7.5000000e-01 3.0000000e+00 5.9500000e+01 
7.5000000e-01 3.0000000e+00 6.0000000e+01 
7.5000000e-01 3.0000000e+00 6.0500000e+01 
7.5000000e-01 3.0000000e+00 6.1000000e+01 
7.5000000e-01 3.0000000e+00 6.1500000e+01 
7.5000000e-01 3.0000000e+00 6.2000000e+01 
7.5000000e-01 3.0000000e+00 6.2500000e+01 
7.5000000e-01 3.0000000e+00 6.3000000e+01 
7.5000000e-01 3.0000000e+00 6.3500000e+01 
7.5000000e-01 3.0000000e+00 6.4000000e+01 
7.5000000e-01 3.0000000e+00 6.4500000e+01 
7.5000000e-01 3.0000000e+00 6.5000000e+01 
7.5000000e-01 3.0000000e+00 6.5500000e+01 
7.5000000e-01 3.0000000e+00 6.6000000e+01 
7.5000000e-01 3.0000000e+00 6.6500000e+01 
7.5000000e-01 3.0000000e+00 6.7000000e+01 
7.5000000e-01 3.0000000e+00 6.7500000e+01 
7.5000000e-01 3.0000000e+00 6.8000000e+01 
7.5000000e-01 3.0000000e+00 6.8500000e+01 
7.5000000e-01 3.0000000e+00 6.9000000e+01 
7.5000000e-01 3.0000000e+00 6.9500000e+01 
7.5000000e-01 3.0250001e+00 -2.5000000e+01 
7.5000000e-01 3.0250001e+00 -2.4500000e+01 
7.5000000e-01 3.0250001e+00 -2.4000000e+01 
7.5000000e-01 3.0250001e+00 -2.3500000e+01 
7.5000000e-01 3.0250001e+00 -2.3000000e+01 
7.5000000e-01 3.0250001e+00 -2.2500000e+01 
7.5000000e-01 3.0250001e+00 -2.2000000e+01 
7.5000000e-01 3.0250001e+00 -2.1500000e+01 
7.5000000e-01 3.0250001e+00 -2.1000000e+01 
7.5000000e-01 3.0250001e+00 -2.0500000e+01 
7.5000000e-01 3.0250001e+00 -2.0000000e+01 
7.5000000e-01 3.0250001e+00 -1.9500000e+01 
7.5000000e-01 3.0250001e+00 -1.9000000e+01 
7.5000000e-01 3.0250001e+00 -1.8500000e+01 
7.5000000e-01 3.0250001e+00 -1.8000000e+01 
7.5000000e-01 3.0250001e+00 -1.7500000e+01 
7.5000000e-01 3.0250001e+00 -1.7000000e+01 
7.5000000e-01 3.0250001e+00 -1.6500000e+01 
7.5000000e-01 3.0250001e+00 -1.6000000e+01 
7.5000000e-01 3.0250001e+00 -1.5500000e+01 
[...]
POINT_DATA 2186
FIELD FieldData 3
DISPLACEMENT 3 2186  float
0.0000000e+00 0.0000000e+00 0.0000000e+00 
0.0000000e+00 0.0000000e+00 0.0000000e+00 
0.0000000e+00 0.0000000e+00 0.0000000e+00 
0.0000000e+00 0.0000000e+00 0.0000000e+00 
3.0684639e-06 -3.6583590e-06 -3.8478274e-06 
-5.0114176e-07 1.8677277e-07 -7.9865532e-07 
0.0000000e+00 6.4940527e-06 0.0000000e+00 
0.0000000e+00 -1.5610971e-06 0.0000000e+00 
3.4995144e-06 -9.2871915e-08 -6.4440965e-06 
-2.7830902e-07 -3.1759177e-07 -2.9168694e-07 
5.8344685e-06 -1.7666910e-06 -9.3765848e-06 
-1.7720495e-07 8.9038906e-07 -2.7729800e-07 
0.0000000e+00 9.0644580e-06 0.0000000e+00 
0.0000000e+00 -3.0898821e-06 0.0000000e+00 
1.1947931e-05 -7.6204306e-06 -2.3590588e-05 
-4.4326151e-07 -2.7049350e-06 -1.5226899e-09 
1.1814489e-05 -7.4598406e-06 -9.0222093e-06 
-1.0403386e-06 -3.8900153e-06 -8.2620973e-06 
0.0000000e+00 1.2076221e-05 0.0000000e+00 
0.0000000e+00 1.0887874e-06 0.0000000e+00 
0.0000000e+00 -7.0976125e-06 0.0000000e+00 
0.0000000e+00 -7.2798452e-06 0.0000000e+00 
0.0000000e+00 -6.5696859e-06 0.0000000e+00 
0.0000000e+00 -3.0732274e-06 0.0000000e+00 
0.0000000e+00 3.5096509e-06 0.0000000e+00 
0.0000000e+00 1.0897877e-05 0.0000000e+00 
0.0000000e+00 1.5274170e-05 0.0000000e+00 
0.0000000e+00 1.3759569e-05 0.0000000e+00 
0.0000000e+00 6.4910378e-06 0.0000000e+00 
0.0000000e+00 -3.3055817e-06 0.0000000e+00 
0.0000000e+00 -1.1335719e-05 0.0000000e+00 
0.0000000e+00 -1.4813299e-05 0.0000000e+00 
0.0000000e+00 -1.3673005e-05 0.0000000e+00 
0.0000000e+00 -9.6992362e-06 0.0000000e+00 
0.0000000e+00 -4.6128857e-06 0.0000000e+00 
0.0000000e+00 1.0780687e-06 0.0000000e+00 
0.0000000e+00 7.5311550e-06 0.0000000e+00 
0.0000000e+00 1.4056527e-05 0.0000000e+00 
0.0000000e+00 1.8315946e-05 0.0000000e+00 
0.0000000e+00 1.7324017e-05 0.0000000e+00 
0.0000000e+00 9.7293851e-06 0.0000000e+00 
0.0000000e+00 -2.4361373e-06 0.0000000e+00 
0.0000000e+00 -1.4194326e-05 0.0000000e+00 
0.0000000e+00 -2.0293657e-05 0.0000000e+00 
0.0000000e+00 -1.8360653e-05 0.0000000e+00 
0.0000000e+00 -1.0279208e-05 0.0000000e+00 
0.0000000e+00 -8.2344809e-07 0.0000000e+00 
0.0000000e+00 5.4374923e-06 0.0000000e+00 
0.0000000e+00 6.7939377e-06 0.0000000e+00 
0.0000000e+00 4.8801612e-06 0.0000000e+00 
0.0000000e+00 2.8558272e-06 0.0000000e+00 
0.0000000e+00 2.7978842e-06 0.0000000e+00 
0.0000000e+00 4.3617842e-06 0.0000000e+00 
0.0000000e+00 5.6758377e-06 0.0000000e+00 
0.0000000e+00 5.4495536e-06 0.0000000e+00 
0.0000000e+00 4.1961357e-06 0.0000000e+00 
0.0000000e+00 3.4260518e-06 0.0000000e+00 
0.0000000e+00 3.7275636e-06 0.0000000e+00 
0.0000000e+00 3.7227758e-06 0.0000000e+00 
0.0000000e+00 1.0309573e-06 0.0000000e+00 
0.0000000e+00 -5.4441471e-06 0.0000000e+00 
0.0000000e+00 -1.3812897e-05 0.0000000e+00 
0.0000000e+00 -1.9777206e-05 0.0000000e+00 
0.0000000e+00 -1.9521829e-05 0.0000000e+00 
0.0000000e+00 -1.2838574e-05 0.0000000e+00 
0.0000000e+00 -3.7350887e-06 0.0000000e+00 
0.0000000e+00 2.2896836e-06 0.0000000e+00 
0.0000000e+00 2.1630258e-06 0.0000000e+00 
0.0000000e+00 -2.7325241e-06 0.0000000e+00 
0.0000000e+00 -7.6209767e-06 0.0000000e+00 
1.4592052e-05 3.2983178e-07 -5.1150578e-06 
7.4757704e-06 1.1056189e-05 -2.9926753e-06 
8.3037885e-06 1.8162569e-05 1.2190737e-06 
5.3848621e-06 2.0059413e-05 1.8187470e-06 
6.3183934e-06 1.9926583e-05 2.3593568e-06 
8.3333180e-06 2.2280199e-05 -1.1634914e-07 
1.7855256e-06 2.8014239e-05 -4.5808506e-06 
-4.7494682e-06 3.2356140e-05 -8.9420479e-07 
-5.2192449e-06 3.2044449e-05 3.3002887e-06 
-8.9726891e-06 2.7016093e-05 6.8859417e-06 
-1.5151824e-05 2.2713377e-05 -4.8311840e-06 
-1.5137320e-05 2.6741340e-05 -1.9534324e-05 
-7.5211728e-06 3.8614235e-05 -2.5738687e-05 
-2.8353174e-06 4.5971865e-05 -2.2624767e-05 
1.1790056e-05 3.9169012e-05 -2.0583757e-05 
8.3003270e-06 2.1025402e-05 -6.8789259e-06 
-3.8608564e-06 1.2282389e-05 -3.1337781e-06 
-6.1784584e-07 3.1019143e-05 -6.4515066e-06 
5.5844375e-06 6.7041146e-05 -4.7338713e-06 
1.9523037e-05 8.7006709e-05 9.1844998e-07 
3.0331767e-05 7.5002870e-05 1.7977831e-05 
2.3367184e-05 4.8650985e-05 4.9612023e-05 
1.3049965e-05 4.0273091e-05 6.7470035e-05 
1.4664112e-05 6.3793115e-05 9.4181749e-05 
6.1978412e-06 5.3104468e-05 1.3608634e-04 
-4.1052972e-05 -1.2332234e-04 2.1411583e-04 
-4.4673379e-05 -5.7143363e-04 2.2651798e-04 
-6.2030071e-05 -1.3240972e-03 2.1015207e-04 
-1.2895382e-04 -2.3407885e-03 3.1145656e-04 
-1.7015733e-04 -3.4866771e-03 1.2100666e-04 
-2.4477334e-04 -4.5406166e-03 2.0823797e-04 
-2.7918973e-04 -5.0112908e-03 5.9903916e-05 
-3.1718003e-04 -4.7603282e-03 -1.9531029e-05 
-5.3653313e-04 -4.4769994e-03 -7.1565162e-05 
-2.4681704e-04 -4.4922126e-03 -4.7416954e-05 
-2.2134536e-04 -4.6362905e-03 -1.4766038e-04 
-1.9803220e-04 -4.2798677e-03 -2.5115832e-04 
-1.5565612e-04 -3.0508491e-03 -1.9590957e-04 
-8.2164377e-05 -1.7048101e-03 -3.2072718e-04 
-4.5158093e-05 -7.0185878e-04 -1.9523338e-04 
8.0439413e-06 -1.1339416e-04 -1.8821735e-04 
2.6162747e-05 1.6795368e-04 -1.0741554e-04 
3.7362333e-05 2.5435729e-04 -5.7085756e-05 
3.2064931e-05 2.2309007e-04 -2.6818343e-05 
2.0172314e-05 1.3959847e-04 5.3497888e-07 
1.0796904e-05 6.1727435e-05 3.1414772e-06 
1.9454728e-06 2.3119817e-05 1.2807688e-05 
3.8234712e-06 1.8159171e-05 1.4002308e-05 
2.8351647e-06 2.2573005e-05 2.1451951e-05 
-3.8995463e-06 2.0365016e-05 2.4849202e-05 
-4.8184093e-06 1.4682774e-05 1.8629649e-05 
-7.6574261e-06 1.6359645e-05 1.6433991e-05 
-1.2854481e-05 2.8412307e-05 7.6915194e-06 
-6.2000340e-06 4.3303295e-05 4.9455302e-06 
5.8199062e-06 5.1280986e-05 -2.4091059e-06 
2.0811326e-06 4.3482160e-05 -1.0098698e-06 
-4.5617938e-08 2.7414402e-05 5.8464943e-06 
1.5614464e-06 2.3107139e-05 7.7977302e-06 
-1.8776078e-06 4.2521937e-05 1.3568697e-05 
7.4568402e-06 7.8742334e-05 1.6667253e-05 
2.0402447e-05 1.0750757e-04 2.5992747e-05 
2.0012967e-05 9.8455501e-05 2.9313587e-05 
1.3590634e-05 5.1918894e-05 3.5623532e-05 
1.6545348e-05 -6.9535517e-06 6.1145191e-05 
2.8680336e-06 -8.3843035e-05 1.1599080e-04 
-2.3006210e-07 -2.5360569e-04 1.2287655e-04 
-3.6745525e-05 -6.6055969e-04 2.3306781e-04 
-6.9999354e-05 -1.4459813e-03 1.8773769e-04 
-1.3650877e-04 -2.6038294e-03 2.8956583e-04 
-1.7895916e-04 -3.8622180e-03 1.2700575e-04 
-2.6257511e-04 -4.7920276e-03 1.8830285e-04 
-2.9818091e-04 -4.8546228e-03 5.1598545e-05 
-3.1839521e-04 -4.4159284e-03 -3.1479878e-05 
-2.6065990e-04 -4.2012762e-03 -4.8527872e-05 
-3.5018427e-04 -4.4522886e-03 -7.9217403e-05 
-7.4526200e-05 -4.6312148e-03 -1.4603743e-04 
-3.3362317e-04 -4.0591932e-03 -2.4787302e-04 
-8.0504047e-05 -2.7992418e-03 -2.2801527e-04 
-1.2714177e-04 -1.5412956e-03 -3.2112168e-04 
-2.8708671e-05 -6.1936956e-04 -2.2081583e-04 
8.2712859e-06 -6.5168781e-05 -1.7893891e-04 
2.5275749e-05 1.8813254e-04 -9.8760400e-05 
3.0949504e-05 2.3006773e-04 -4.6626512e-05 
2.6318688e-05 1.6554068e-04 -1.9146975e-05 
2.1130500e-05 8.6699583e-05 8.4639641e-06 
1.4342355e-05 3.3589447e-05 1.0086154e-05 
6.6978200e-06 4.5334300e-06 2.0748514e-05 
7.3157589e-06 -1.3638521e-05 2.0986723e-05 
3.9132824e-06 -2.3837529e-05 2.0272795e-05 
-1.0354479e-06 -2.1541826e-05 2.1367059e-05 
4.1220440e-07 -7.9569127e-06 2.0349104e-05 
-4.4977173e-07 5.5658979e-06 1.7570153e-05 
-9.2714126e-06 9.5412206e-06 8.9145033e-06 
-6.0197381e-06 5.8539949e-06 1.9165518e-06 
-3.1671041e-06 2.3534678e-06 -3.2450398e-06 
-2.5418854e-06 2.4157398e-06 -2.8828733e-06 
3.5011278e-06 3.2737123e-06 2.9182868e-06 
1.6946423e-06 1.5645051e-06 5.3901631e-06 
-5.0793619e-07 -2.0171456e-06 3.5342614e-06 
0.0000000e+00 -3.1802076e-06 0.0000000e+00 
0.0000000e+00 -1.8212727e-06 0.0000000e+00 
0.0000000e+00 -1.6617259e-06 0.0000000e+00 
0.0000000e+00 -2.1586382e-06 0.0000000e+00 
0.0000000e+00 -1.4702349e-06 0.0000000e+00 
0.0000000e+00 8.2023564e-07 0.0000000e+00 
0.0000000e+00 2.9535993e-06 0.0000000e+00 
0.0000000e+00 3.0413782e-06 0.0000000e+00 
0.0000000e+00 1.2347645e-06 0.0000000e+00 
0.0000000e+00 -5.6432339e-07 0.0000000e+00 
0.0000000e+00 -8.8748209e-07 0.0000000e+00 
0.0000000e+00 -9.8125149e-08 0.0000000e+00 
0.0000000e+00 4.3252598e-07 0.0000000e+00 
0.0000000e+00 7.8023092e-08 0.0000000e+00 
0.0000000e+00 -5.1393050e-07 0.0000000e+00 
0.0000000e+00 -5.0455310e-07 0.0000000e+00 
0.0000000e+00 1.8954646e-08 0.0000000e+00 
0.0000000e+00 2.7682054e-07 0.0000000e+00 
0.0000000e+00 -9.1004217e-08 0.0000000e+00 
0.0000000e+00 -5.5764741e-07 0.0000000e+00 
0.0000000e+00 -4.4093974e-07 0.0000000e+00 
0.0000000e+00 1.9049941e-07 0.0000000e+00 
0.0000000e+00 6.0958479e-07 0.0000000e+00 
0.0000000e+00 3.5417233e-07 0.0000000e+00 
0.0000000e+00 -2.1421093e-07 0.0000000e+00 
0.0000000e+00 -3.8397860e-07 0.0000000e+00 
0.0000000e+00 3.5223692e-08 0.0000000e+00 
0.0000000e+00 5.1117917e-07 0.0000000e+00 
0.0000000e+00 4.5153590e-07 0.0000000e+00 
0.0000000e+00 -1.0355824e-07 0.0000000e+00 
0.0000000e+00 -5.6004438e-07 0.0000000e+00 
0.0000000e+00 -4.6894303e-07 0.0000000e+00 
0.0000000e+00 -2.6593532e-09 0.0000000e+00 
0.0000000e+00 3.0445861e-07 0.0000000e+00 
0.0000000e+00 1.8536436e-07 0.0000000e+00 
0.0000000e+00 -1.0748523e-07 0.0000000e+00 
0.0000000e+00 -1.7167120e-07 0.0000000e+00 
0.0000000e+00 4.4161730e-08 0.0000000e+00 
0.0000000e+00 2.0241602e-07 0.0000000e+00 
0.0000000e+00 -7.1579398e-06 0.0000000e+00 
0.0000000e+00 -7.3051206e-06 0.0000000e+00 
0.0000000e+00 -6.5257013e-06 0.0000000e+00 
0.0000000e+00 -2.9891455e-06 0.0000000e+00 
0.0000000e+00 3.5676592e-06 0.0000000e+00 
0.0000000e+00 1.0881372e-05 0.0000000e+00 
0.0000000e+00 1.5192713e-05 0.0000000e+00 
0.0000000e+00 1.3674438e-05 0.0000000e+00 
0.0000000e+00 6.4666465e-06 0.0000000e+00 
0.0000000e+00 -3.2539945e-06 0.0000000e+00 
0.0000000e+00 -1.1254442e-05 0.0000000e+00 
0.0000000e+00 -1.4770426e-05 0.0000000e+00 
0.0000000e+00 -1.3699707e-05 0.0000000e+00 
0.0000000e+00 -9.7637958e-06 0.0000000e+00 
0.0000000e+00 -4.6508640e-06 0.0000000e+00 
0.0000000e+00 1.1050354e-06 0.0000000e+00 
0.0000000e+00 7.6006622e-06 0.0000000e+00 
0.0000000e+00 1.4104576e-05 0.0000000e+00 
0.0000000e+00 1.8292565e-05 0.0000000e+00 
0.0000000e+00 1.7238368e-05 0.0000000e+00 
0.0000000e+00 9.6465574e-06 0.0000000e+00 
0.0000000e+00 -2.4460837e-06 0.0000000e+00 
0.0000000e+00 -1.4114942e-05 0.0000000e+00 
0.0000000e+00 -2.0179001e-05 0.0000000e+00 
0.0000000e+00 -1.8294433e-05 0.0000000e+00 
0.0000000e+00 -1.0310025e-05 0.0000000e+00 
0.0000000e+00 -9.2935801e-07 0.0000000e+00 
0.0000000e+00 5.3300187e-06 0.0000000e+00 
0.0000000e+00 6.7557266e-06 0.0000000e+00 
0.0000000e+00 4.9297782e-06 0.0000000e+00 
0.0000000e+00 2.9475730e-06 0.0000000e+00 
0.0000000e+00 2.8576394e-06 0.0000000e+00 
0.0000000e+00 4.3482555e-06 0.0000000e+00 
0.0000000e+00 5.6166577e-06 0.0000000e+00 
0.0000000e+00 5.4143043e-06 0.0000000e+00 
0.0000000e+00 4.2280035e-06 0.0000000e+00 
0.0000000e+00 3.4997788e-06 0.0000000e+00 
0.0000000e+00 3.7743739e-06 0.0000000e+00 
0.0000000e+00 3.6937477e-06 0.0000000e+00 
0.0000000e+00 9.4009607e-07 0.0000000e+00 
0.0000000e+00 -5.5278956e-06 0.0000000e+00 
0.0000000e+00 -1.3817015e-05 0.0000000e+00 
0.0000000e+00 -1.9688536e-05 0.0000000e+00 
0.0000000e+00 -1.9411047e-05 0.0000000e+00 
0.0000000e+00 -1.2808856e-05 0.0000000e+00 
0.0000000e+00 -3.8282456e-06 0.0000000e+00 
0.0000000e+00 2.1347832e-06 0.0000000e+00 
0.0000000e+00 2.0523912e-06 0.0000000e+00 
0.0000000e+00 -2.7396127e-06 0.0000000e+00 
0.0000000e+00 -7.5451012e-06 0.0000000e+00 
0.0000000e+00 -7.1990926e-06 0.0000000e+00 
0.0000000e+00 3.8261106e-07 0.0000000e+00 
0.0000000e+00 1.0872786e-05 0.0000000e+00 
0.0000000e+00 1.8005954e-05 0.0000000e+00 
0.0000000e+00 2.0017518e-05 0.0000000e+00 
0.0000000e+00 2.0058827e-05 0.0000000e+00 
0.0000000e+00 2.2533390e-05 0.0000000e+00 
0.0000000e+00 2.8030981e-05 0.0000000e+00 
0.0000000e+00 3.2293316e-05 0.0000000e+00 
0.0000000e+00 3.1825108e-05 0.0000000e+00 
0.0000000e+00 2.6883756e-05 0.0000000e+00 
0.0000000e+00 2.2973303e-05 0.0000000e+00 
0.0000000e+00 2.7205717e-05 0.0000000e+00 
0.0000000e+00 3.8721053e-05 0.0000000e+00 
0.0000000e+00 4.5763045e-05 0.0000000e+00 
0.0000000e+00 3.8389458e-05 0.0000000e+00 
0.0000000e+00 2.0796251e-05 0.0000000e+00 
0.0000000e+00 1.3250435e-05 0.0000000e+00 
0.0000000e+00 3.2138571e-05 0.0000000e+00 
0.0000000e+00 6.6853820e-05 0.0000000e+00 
0.0000000e+00 8.6047228e-05 0.0000000e+00 
0.0000000e+00 7.4166288e-05 0.0000000e+00 
0.0000000e+00 4.8632020e-05 0.0000000e+00 
0.0000000e+00 4.2846656e-05 0.0000000e+00 
0.0000000e+00 6.6731867e-05 0.0000000e+00 
0.0000000e+00 5.3392603e-05 0.0000000e+00 
0.0000000e+00 -1.2532604e-04 0.0000000e+00 
0.0000000e+00 -5.7478610e-04 0.0000000e+00 
0.0000000e+00 -1.3289242e-03 0.0000000e+00 
0.0000000e+00 -2.3440737e-03 0.0000000e+00 
0.0000000e+00 -3.5015130e-03 0.0000000e+00 
0.0000000e+00 -4.5639807e-03 0.0000000e+00 
0.0000000e+00 -5.0480836e-03 0.0000000e+00 
0.0000000e+00 -4.7889957e-03 0.0000000e+00 
0.0000000e+00 -4.4936710e-03 0.0000000e+00 
0.0000000e+00 -4.5138602e-03 0.0000000e+00 
0.0000000e+00 -4.6648677e-03 0.0000000e+00 
0.0000000e+00 -4.3057203e-03 0.0000000e+00 
0.0000000e+00 -3.0766171e-03 0.0000000e+00 
0.0000000e+00 -1.7173197e-03 0.0000000e+00 
0.0000000e+00 -7.0672092e-04 0.0000000e+00 
0.0000000e+00 -1.1304926e-04 0.0000000e+00 
0.0000000e+00 1.6896280e-04 0.0000000e+00 
0.0000000e+00 2.5480322e-04 0.0000000e+00 
0.0000000e+00 2.2384727e-04 0.0000000e+00 
0.0000000e+00 1.4068851e-04 0.0000000e+00 
0.0000000e+00 6.2904641e-05 0.0000000e+00 
0.0000000e+00 2.3531855e-05 0.0000000e+00 
0.0000000e+00 1.7903527e-05 0.0000000e+00 
0.0000000e+00 2.2097574e-05 0.0000000e+00 
0.0000000e+00 2.0219231e-05 0.0000000e+00 
0.0000000e+00 1.4863726e-05 0.0000000e+00 
0.0000000e+00 1.6542479e-05 0.0000000e+00 
0.0000000e+00 2.8513879e-05 0.0000000e+00 
0.0000000e+00 4.3573327e-05 0.0000000e+00 
0.0000000e+00 5.0947856e-05 0.0000000e+00 
0.0000000e+00 4.2975436e-05 0.0000000e+00 
0.0000000e+00 2.7313259e-05 0.0000000e+00 
0.0000000e+00 2.3520222e-05 0.0000000e+00 
0.0000000e+00 4.3459640e-05 0.0000000e+00 
0.0000000e+00 7.9509700e-05 0.0000000e+00 
0.0000000e+00 1.0665641e-04 0.0000000e+00 
0.0000000e+00 9.7376564e-05 0.0000000e+00 
0.0000000e+00 5.2335898e-05 0.0000000e+00 
0.0000000e+00 -5.0784374e-06 0.0000000e+00 
0.0000000e+00 -8.0790174e-05 0.0000000e+00 
0.0000000e+00 -2.5214651e-04 0.0000000e+00 
0.0000000e+00 -6.6502474e-04 0.0000000e+00 
0.0000000e+00 -1.4565324e-03 0.0000000e+00 
0.0000000e+00 -2.6111773e-03 0.0000000e+00 
0.0000000e+00 -3.8791934e-03 0.0000000e+00 
0.0000000e+00 -4.8130113e-03 0.0000000e+00 
0.0000000e+00 -4.8882756e-03 0.0000000e+00 
0.0000000e+00 -4.4417595e-03 0.0000000e+00 
0.0000000e+00 -4.2303563e-03 0.0000000e+00 
0.0000000e+00 -4.4686766e-03 0.0000000e+00 
0.0000000e+00 -4.6599256e-03 0.0000000e+00 
0.0000000e+00 -4.0844427e-03 0.0000000e+00 
0.0000000e+00 -2.8199914e-03 0.0000000e+00 
0.0000000e+00 -1.5507020e-03 0.0000000e+00 
0.0000000e+00 -6.2235910e-04 0.0000000e+00 
0.0000000e+00 -6.6041233e-05 0.0000000e+00 
0.0000000e+00 1.8785452e-04 0.0000000e+00 
0.0000000e+00 2.3107708e-04 0.0000000e+00 
0.0000000e+00 1.6770435e-04 0.0000000e+00 
0.0000000e+00 8.7949549e-05 0.0000000e+00 
0.0000000e+00 3.3634653e-05 0.0000000e+00 
0.0000000e+00 4.1461258e-06 0.0000000e+00 
0.0000000e+00 -1.3667435e-05 0.0000000e+00 
0.0000000e+00 -2.3551653e-05 0.0000000e+00 
0.0000000e+00 -2.1332649e-05 0.0000000e+00 
0.0000000e+00 -8.1597018e-06 0.0000000e+00 
0.0000000e+00 5.1950997e-06 0.0000000e+00 
0.0000000e+00 9.4515490e-06 0.0000000e+00 
0.0000000e+00 6.0708048e-06 0.0000000e+00 
0.0000000e+00 2.5117349e-06 0.0000000e+00 
0.0000000e+00 2.3634295e-06 0.0000000e+00 
0.0000000e+00 3.1407974e-06 0.0000000e+00 
0.0000000e+00 1.5279451e-06 0.0000000e+00 
0.0000000e+00 -1.8930963e-06 0.0000000e+00 
0.0000000e+00 -3.8344278e-06 0.0000000e+00 
0.0000000e+00 -3.2272578e-06 0.0000000e+00 
0.0000000e+00 -1.9032526e-06 0.0000000e+00 
0.0000000e+00 -1.6743745e-06 0.0000000e+00 
0.0000000e+00 -2.0921241e-06 0.0000000e+00 
0.0000000e+00 -1.4127319e-06 0.0000000e+00 
0.0000000e+00 7.9962774e-07 0.0000000e+00 
0.0000000e+00 2.8853394e-06 0.0000000e+00 
0.0000000e+00 3.0081183e-06 0.0000000e+00 
0.0000000e+00 1.2689778e-06 0.0000000e+00 
0.0000000e+00 -5.1069077e-07 0.0000000e+00 
0.0000000e+00 -8.7612938e-07 0.0000000e+00 
0.0000000e+00 -1.3160235e-07 0.0000000e+00 
0.0000000e+00 4.0393141e-07 0.0000000e+00 
0.0000000e+00 8.8910220e-08 0.0000000e+00 
0.0000000e+00 -4.8370822e-07 0.0000000e+00 
0.0000000e+00 -4.9752794e-07 0.0000000e+00 
0.0000000e+00 -5.9263647e-09 0.0000000e+00 
0.0000000e+00 2.5304888e-07 0.0000000e+00 
0.0000000e+00 -8.4157740e-08 0.0000000e+00 
0.0000000e+00 -5.3078270e-07 0.0000000e+00 
0.0000000e+00 -4.2807449e-07 0.0000000e+00 
0.0000000e+00 1.7572511e-07 0.0000000e+00 
0.0000000e+00 5.8814578e-07 0.0000000e+00 
0.0000000e+00 3.5250127e-07 0.0000000e+00 
0.0000000e+00 -1.9637501e-07 0.0000000e+00 
0.0000000e+00 -3.7007652e-07 0.0000000e+00 
0.0000000e+00 2.8876538e-08 0.0000000e+00 
0.0000000e+00 4.9353764e-07 0.0000000e+00 
0.0000000e+00 4.4363173e-07 0.0000000e+00 
0.0000000e+00 -9.3692506e-08 0.0000000e+00 
0.0000000e+00 -5.4457018e-07 0.0000000e+00 
0.0000000e+00 -4.6439877e-07 0.0000000e+00 
0.0000000e+00 -1.1946085e-08 0.0000000e+00 
0.0000000e+00 2.9281853e-07 0.0000000e+00 
0.0000000e+00 1.8304067e-07 0.0000000e+00 
0.0000000e+00 -1.0040296e-07 0.0000000e+00 
0.0000000e+00 -1.6455382e-07 0.0000000e+00 
0.0000000e+00 4.3932225e-08 0.0000000e+00 
0.0000000e+00 1.9755322e-07 0.0000000e+00 
0.0000000e+00 0.0000000e+00 0.0000000e+00 
0.0000000e+00 0.0000000e+00 0.0000000e+00 
0.0000000e+00 0.0000000e+00 0.0000000e+00 
0.0000000e+00 0.0000000e+00 0.0000000e+00 
0.0000000e+00 0.0000000e+00 0.0000000e+00 
0.0000000e+00 0.0000000e+00 0.0000000e+00 
0.0000000e+00 0.0000000e+00 0.0000000e+00 
0.0000000e+00 0.0000000e+00 0.0000000e+00 
0.0000000e+00 0.0000000e+00 0.0000000e+00 
0.0000000e+00 0.0000000e+00 0.0000000e+00 
0.0000000e+00 0.0000000e+00 0.0000000e+00 
0.0000000e+00 0.0000000e+00 0.0000000e+00 
0.0000000e+00 0.0000000e+00 0.0000000e+00 
0.0000000e+00 0.0000000e+00 0.0000000e+00 
0.0000000e+00 0.0000000e+00 0.0000000e+00 
0.0000000e+00 0.0000000e+00 0.0000000e+00 
0.0000000e+00 0.0000000e+00 0.0000000e+00 
0.0000000e+00 0.0000000e+00 0.0000000e+00 
0.0000000e+00 0.0000000e+00 0.0000000e+00 
0.0000000e+00 0.0000000e+00 0.0000000e+00 
0.0000000e+00 0.0000000e+00 0.0000000e+00 
0.0000000e+00 0.0000000e+00 0.0000000e+00 
0.0000000e+00 0.0000000e+00 0.0000000e+00 
0.0000000e+00 0.0000000e+00 0.0000000e+00 
0.0000000e+00 0.0000000e+00 0.0000000e+00 
0.0000000e+00 0.0000000e+00 0.0000000e+00 
0.0000000e+00 0.0000000e+00 0.0000000e+00 
0.0000000e+00 0.0000000e+00 0.0000000e+00 
0.0000000e+00 0.0000000e+00 0.0000000e+00 
0.0000000e+00 0.0000000e+00 0.0000000e+00 
0.0000000e+00 0.0000000e+00 0.0000000e+00 
0.0000000e+00 0.0000000e+00 0.0000000e+00 
0.0000000e+00 0.0000000e+00 0.0000000e+00 
0.0000000e+00 0.0000000e+00 0.0000000e+00 
0.0000000e+00 0.0000000e+00 0.0000000e+00 
0.0000000e+00 0.0000000e+00 0.0000000e+00 
0.0000000e+00 0.0000000e+00 0.0000000e+00 
0.0000000e+00 0.0000000e+00 0.0000000e+00 
0.0000000e+00 0.0000000e+00 0.0000000e+00 
0.0000000e+00 0.0000000e+00 0.0000000e+00 
0.0000000e+00 0.0000000e+00 0.0000000e+00 
0.0000000e+00 0.0000000e+00 0.0000000e+00 
0.0000000e+00 0.0000000e+00 0.0000000e+00 
0.0000000e+00 0.0000000e+00 0.0000000e+00 
0.0000000e+00 0.0000000e+00 0.0000000e+00 
0.0000000e+00 0.0000000e+00 0.0000000e+00 
0.0000000e+00 0.0000000e+00 0.0000000e+00 
0.0000000e+00 0.0000000e+00 0.0000000e+00 
0.0000000e+00 0.0000000e+00 0.0000000e+00 
0.0000000e+00 0.0000000e+00 0.0000000e+00 
0.0000000e+00 0.0000000e+00 0.0000000e+00 
0.0000000e+00 0.0000000e+00 0.0000000e+00 
0.0000000e+00 0.0000000e+00 0.0000000e+00 
0.0000000e+00 0.0000000e+00 0.0000000e+00 
0.0000000e+00 0.0000000e+00 0.0000000e+00 
0.0000000e+00 0.0000000e+00 0.0000000e+00 
0.0000000e+00 0.0000000e+00 0.0000000e+00 
0.0000000e+00 0.0000000e+00 0.0000000e+00 