# vtk DataFile Version 4.0
vtk output
ASCII
DATASET UNSTRUCTURED_GRID
POINTS 2186 float
0.0000000e+00 0.0000000e+00 0.0000000e+00 
0.0000000e+00 0.0000000e+00 5.0000000e+01 
5.0000000e+00 0.0000000e+00 0.0000000e+00 
5.0000000e+00 0.0000000e+00 5.0000000e+01 
5.0000000e+00 1.0000000e+00 0.0000000e+00 
5.0000000e+00 1.0000000e+00 5.0000000e+01 
0.0000000e+00 1.0000000e+00 0.0000000e+00 
0.0000000e+00 1.0000000e+00 5.0000000e+01 
5.0000000e+00 2.0000000e+00 0.0000000e+00 
5.0000000e+00 2.0000000e+00 5.0000000e+01 
3.0000000e+00 2.0000000e+00 0.0000000e+00 
3.0000000e+00 2.0000000e+00 5.0000000e+01 
0.0000000e+00 2.0000000e+00 0.0000000e+00 
0.0000000e+00 2.0000000e+00 5.0000000e+01 
1.5000000e+00 3.0000000e+00 0.0000000e+00 
1.5000000e+00 3.0000000e+00 5.0000000e+01 
7.5000000e-01 3.0000000e+00 0.0000000e+00 
7.5000000e-01 3.0000000e+00 5.0000000e+01 
0.0000000e+00 3.0000000e+00 0.0000000e+00 
0.0000000e+00 3.0000000e+00 5.0000000e+01 
7.5000000e-01 3.0000000e+00 -2.5000000e+01 
7.5000000e-01 3.0000000e+00 -2.4500000e+01 
7.5000000e-01 3.0000000e+00 -2.4000000e+01 
7.5000000e-01 3.0000000e+00 -2.3500000e+01 
7.5000000e-01 3.0000000e+00 -2.3000000e+01 
7.5000000e-01 3.0000000e+00 -2.2500000e+01 
7.5000000e-01 3.0000000e+00 -2.2000000e+01 
7.5000000e-01 3.0000000e+00 -2.1500000e+01 
7.5000000e-01 3.0000000e+00 -2.1000000e+01 
7.5000000e-01 3.0000000e+00 -2.0500000e+01 
7.5000000e-01 3.0000000e+00 -2.0000000e+01 
7.5000000e-01 3.0000000e+00 -1.9500000e+01 
7.5000000e-01 3.0000000e+00 -1.9000000e+01 
7.5000000e-01 3.0000000e+00 -1.8500000e+01 
7.5000000e-01 3.0000000e+00 -1.8000000e+01 
7.5000000e-01 3.0000000e+00 -1.7500000e+01 
7.5000000e-01 3.0000000e+00 -1.7000000e+01 
7.5000000e-01 3.0000000e+00 -1.6500000e+01 
7.5000000e-01 3.0000000e+00 -1.6000000e+01 
7.5000000e-01 3.0000000e+00 -1.5500000e+01 
7.5000000e-01 3.0000000e+00 -1.5000000e+01 
7.5000000e-01 3.0000000e+00 -1.4500000e+01 
7.5000000e-01 3.0000000e+00 -1.4000000e+01 
7.5000000e-01 3.0000000e+00 -1.3500000e+01 
7.5000000e-01 3.0000000e+00 -1.3000000e+01 
7.5000000e-01 3.0000000e+00 -1.2500000e+01 
7.5000000e-01 3.0000000e+00 -1.2000000e+01 
7.5000000e-01 3.0000000e+00 -1.1500000e+01 
7.5000000e-01 3.0000000e+00 -1.1000000e+01 
7.5000000e-01 3.0000000e+00 -1.0500000e+01 
7.5000000e-01 3.0000000e+00 -1.0000000e+01 
7.5000000e-01 3.0000000e+00 -9.5000000e+00 
7.5000000e-01 3.0000000e+00 -9.0000000e+00 
7.5000000e-01 3.0000000e+00 -8.5000000e+00 
7.5000000e-01 3.0000000e+00 -8.0000000e+00 
7.5000000e-01 3.0000000e+00 -7.5000000e+00 
7.5000000e-01 3.0000000e+00 -7.0000000e+00 
7.5000000e-01 3.0000000e+00 -6.5000000e+00 
7.5000000e-01 3.0000000e+00 -6.0000000e+00 
7.5000000e-01 3.0000000e+00 -5.5000000e+00 
7.5000000e-01 3.0000000e+00 -5.0000000e+00 
7.5000000e-01 3.0000000e+00 -4.5000000e+00 
7.5000000e-01 3.0000000e+00 -4.0000000e+00 
7.5000000e-01 3.0000000e+00 -3.5000000e+00 
7.5000000e-01 3.0000000e+00 -3.0000000e+00 
7.5000000e-01 3.0000000e+00 -2.5000000e+00 
7.5000000e-01 3.0000000e+00 -2.0000000e+00 
7.5000000e-01 3.0000000e+00 -1.5000000e+00 
7.5000000e-01 3.0000000e+00 -1.0000000e+00 
7.5000000e-01 3.0000000e+00 -5.0000000e-01 
7.5000000e-01 3.0000000e+00 5.0000000e-01 
7.5000000e-01 3.0000000e+00 1.0000000e+00 
7.5000000e-01 3.0000000e+00 1.5000000e+00 
7.5000000e-01 3.0000000e+00 2.0000000e+00 
7.5000000e-01 3.0000000e+00 2.5000000e+00 
7.5000000e-01 3.0000000e+00 3.0000000e+00 
7.5000000e-01 3.0000000e+00 3.5000000e+00 
7.5000000e-01 3.0000000e+00 4.0000000e+00 
7.5000000e-01 3.0000000e+00 4.5000000e+00 
7.5000000e-01 3.0000000e+00 5.0000000e+00 
7.5000000e-01 3.0000000e+00 5.5000000e+00 
7.5000000e-01 3.0000000e+00 6.0000000e+00 
7.5000000e-01 3.0000000e+00 6.5000000e+00 
7.5000000e-01 3.0000000e+00 7.0000000e+00 
7.5000000e-01 3.0000000e+00 7.5000000e+00 
7.5000000e-01 3.0000000e+00 8.0000000e+00 
7.5000000e-01 3.0000000e+00 8.5000000e+00 
7.5000000e-01 3.0000000e+00 9.0000000e+00 
7.5000000e-01 3.0000000e+00 9.5000000e+00 
7.5000000e-01 3.0000000e+00 1.0000000e+01 
7.5000000e-01 3.0000000e+00 1.0500000e+01 
7.5000000e-01 3.0000000e+00 1.1000000e+01 
7.5000000e-01 3.0000000e+00 1.1500000e+01 
7.5000000e-01 3.0000000e+00 1.2000000e+01 
7.5000000e-01 3.0000000e+00 1.2500000e+01 
7.5000000e-01 3.0000000e+00 1.3000000e+01 
7.5000000e-01 3.0000000e+00 1.3500000e+01 
7.5000000e-01 3.0000000e+00 1.4000000e+01 
7.5000000e-01 3.0000000e+00 1.4500000e+01 
7.5000000e-01 3.0000000e+00 1.5000000e+01 
7.5000000e-01 3.0000000e+00 1.5500000e+01 
7.5000000e-01 3.0000000e+00 1.6000000e+01 
7.5000000e-01 3.0000000e+00 1.6500000e+01 
7.5000000e-01 3.0000000e+00 1.7000000e+01 
7.5000000e-01 3.0000000e+00 1.7500000e+01 
7.5000000e-01 3.0000000e+00 1.8000000e+01 
7.5000000e-01 3.0000000e+00 1.8500000e+01 
7.5000000e-01 3.0000000e+00 1.9000000e+01 
7.5000000e-01 3.0000000e+00 1.9500000e+01 
7.5000000e-01 3.0000000e+00 2.0000000e+01 
7.5000000e-01 3.0000000e+00 2.0500000e+01 
7.5000000e-01 3.0000000e+00 2.1000000e+01 
7.5000000e-01 3.0000000e+00 2.1500000e+01 
7.5000000e-01 3.0000000e+00 2.2000000e+01 
7.5000000e-01 3.0000000e+00 2.2500000e+01 
7.5000000e-01 3.0000000e+00 2.3000000e+01 
7.5000000e-01 3.0000000e+00 2.3500000e+01 
7.5000000e-01 3.0000000e+00 2.4000000e+01 
7.5000000e-01 3.0000000e+00 2.4500000e+01 
7.5000000e-01 3.0000000e+00 2.5000000e+01 
7.5000000e-01 3.0000000e+00 2.5500000e+01 
7.5000000e-01 3.0000000e+00 2.6000000e+01 
7.5000000e-01 3.0000000e+00 2.6500000e+01 
7.5000000e-01 3.0000000e+00 2.7000000e+01 
7.5000000e-01 3.0000000e+00 2.7500000e+01 
7.5000000e-01 3.0000000e+00 2.8000000e+01 
7.5000000e-01 3.0000000e+00 2.8500000e+01 
7.5000000e-01 3.0000000e+00 2.9000000e+01 
7.5000000e-01 3.0000000e+00 2.9500000e+01 
7.5000000e-01 3.0000000e+00 3.0000000e+01 
7.5000000e-01 3.0000000e+00 3.0500000e+01 
7.5000000e-01 3.0000000e+00 3.1000000e+01 
7.5000000e-01 3.0000000e+00 3.1500000e+01 
7.5000000e-01 3.0000000e+00 3.2000000e+01 
7.5000000e-01 3.0000000e+00 3.2500000e+01 
7.5000000e-01 3.0000000e+00 3.3000000e+01 
7.5000000e-01 3.0000000e+00 3.3500000e+01 
7.5000000e-01 3.0000000e+00 3.4000000e+01 
7.5000000e-01 3.0000000e+00 3.4500000e+01 
7.5000000e-01 3.0000000e+00 3.5000000e+01 
7.5000000e-01 3.0000000e+00 3.5500000e+01 
7.5000000e-01 3.0000000e+00 3.6000000e+01 
7.5000000e-01 3.0000000e+00 3.6500000e+01 
7.5000000e-01 3.0000000e+00 3.7000000e+01 
7.5000000e-01 3.0000000e+00 3.7500000e+01 
7.5000000e-01 3.0000000e+00 3.8000000e+01 
7.5000000e-01 3.0000000e+00 3.8500000e+01 
7.5000000e-01 3.0000000e+00 3.9000000e+01 
7.5000000e-01 3.0000000e+00 3.9500000e+01 
7.5000000e-01 3.0000000e+00 4.0000000e+01 
7.5000000e-01 3.0000000e+00 4.0500000e+01 
7.5000000e-01 3.0000000e+00 4.1000000e+01 
7.5000000e-01 3.0000000e+00 4.1500000e+01 
7.5000000e-01 3.0000000e+00 4.2000000e+01 
7.5000000e-01 3.0000000e+00 4.2500000e+01 
7.5000000e-01 3.0000000e+00 4.3000000e+01 
7.5000000e-01 3.0000000e+00 4.3500000e+01 
7.5000000e-01 3.0000000e+00 4.4000000e+01 
7.5000000e-01 3.0000000e+00 4.4500000e+01 
7.5000000e-01 3.0000000e+00 4.5000000e+01 
7.5000000e-01 3.0000000e+00 4.5500000e+01 
7.5000000e-01 3.0000000e+00 4.6000000e+01 
7.5000000e-01 3.0000000e+00 4.6500000e+01 
7.5000000e-01 3.0000000e+00 4.7000000e+01 
7.5000000e-01 3.0000000e+00 4.7500000e+01 
7.5000000e-01 3.0000000e+00 4.8000000e+01 
7.5000000e-01 3.0000000e+00 4.8500000e+01 
7.5000000e-01 3.0000000e+00 4.9000000e+01 
7.5000000e-01 3.0000000e+00 4.9500000e+01 
7.5000000e-01 3.0000000e+00 5.0500000e+01 
7.5000000e-01 3.0000000e+00 5.1000000e+01 
7.5000000e-01 3.0000000e+00 5.1500000e+01 
7.5000000e-01 3.0000000e+00 5.2000000e+01 
7.5000000e-01 3.0000000e+00 5.2500000e+01 
7.5000000e-01 3.0000000e+00 5.3000000e+01 
7.5000000e-01 3.0000000e+00 5.3500000e+01 
7.5000000e-01 3.0000000e+00 5.4000000e+01 
7.5000000e-01 3.0000000e+00 5.4500000e+01 
7.5000000e-01 3.0000000e+00 5.5000000e+01 
7.5000000e-01 3.0000000e+00 5.5500000e+01 
7.5000000e-01 3.0000000e+00 5.6000000e+01 
7.5000000e-01 3.0000000e+00 5.6500000e+01 
7.5000000e-01 3.0000000e+00 5.7000000e+01 
7.5000000e-01 3.0000000e+00 5.7500000e+01 
7.5000000e-01 3.0000000e+00 5.8000000e+01 
7.5000000e-01 3.0000000e+00 5.8500000e+01 
7.5000000e-01 3.0000000e+00 5.9000000e+01 
7.5000000e-01 3.0000000e+00 5.9500000e+01 
7.5000000e-01 3.0000000e+00 6.0000000e+01 
7.5000000e-01 3.0000000e+00 6.0500000e+01 
7.5000000e-01 3.0000000e+00 6.1000000e+01 
7.5000000e-01 3.0000000e+00 6.1500000e+01 
7.5000000e-01 3.0000000e+00 6.2000000e+01 
7.5000000e-01 3.0000000e+00 6.2500000e+01 
7.5000000e-01 3.0000000e+00 6.3000000e+01 
7.5000000e-01 3.0000000e+00 6.3500000e+01 
7.5000000e-01 3.0000000e+00 6.4000000e+01 
7.5000000e-01 3.0000000e+00 6.4500000e+01 
7.5000000e-01 3.0000000e+00 6.5000000e+01 
7.5000000e-01 3.0000000e+00 6.5500000e+01 
7.5000000e-01 3.0000000e+00 6.6000000e+01 
7.5000000e-01 3.0000000e+00 6.6500000e+01 
7.5000000e-01 3.0000000e+00 6.7000000e+01 
7.5000000e-01 3.0000000e+00 6.7500000e+01 
7.5000000e-01 3.0000000e+00 6.8000000e+01 
7.5000000e-01 3.0000000e+00 6.8500000e+01 
7.5000000e-01 3.0000000e+00 6.9000000e+01 
7.5000000e-01 3.0000000e+00 6.9500000e+01 
7.5000000e-01 3.0250001e+00 -2.5000000e+01 
7.5000000e-01 3.0250001e+00 -2.4500000e+01 
7.5000000e-01 3.0250001e+00 -2.4000000e+01 
7.5000000e-01 3.0250001e+00 -2.3500000e+01 
7.5000000e-01 3.0250001e+00 -2.3000000e+01 
7.5000000e-01 3.0250001e+00 -2.2500000e+01 
7.5000000e-01 3.0250001e+00 -2.2000000e+01 
7.5000000e-01 3.0250001e+00 -2.1500000e+01 
7.5000000e-01 3.0250001e+00 -2.1000000e+01 
7.5000000e-01 3.0250001e+00 -2.0500000e+01 
7.5000000e-01 3.0250001e+00 -2.0000000e+01 
7.5000000e-01 3.0250001e+00 -1.9500000e+01 
7.5000000e-01 3.0250001e+00 -1.9000000e+01 
7.5000000e-01 3.0250001e+00 -1.8500000e+01 
7.5000000e-01 3.0250001e+00 -1.8000000e+01 
7.5000000e-01 3.0250001e+00 -1.7500000e+01 
7.5000000e-01 3.0250001e+00 -1.7000000e+01 
7.5000000e-01 3.0250001e+00 -1.6500000e+01 
7.5000000e-01 3.0250001e+00 -1.6000000e+01 
7.5000000e-01 3.0250001e+00 -1.5500000e+01 
[...]
POINT_DATA 2186
FIELD FieldData 3
DISPLACEMENT 3 2186  float
0.0000000e+00 0.0000000e+00 0.0000000e+00 
0.0000000e+00 0.0000000e+00 0.0000000e+00 
0.0000000e+00 0.0000000e+00 0.0000000e+00 
0.0000000e+00 0.0000000e+00 0.0000000e+00 
-1.6981386e-06 3.4664436e-06 5.6259620e-07 
-4.1863856e-07 3.3598897e-07 6.3386992e-08 
0.0000000e+00 -6.4489418e-06 0.0000000e+00 
0.0000000e+00 -6.4520179e-07 0.0000000e+00 
-8.3549793e-07 4.1443710e-07 2.0559382e-06 
-4.8760040e-07 -1.2901033e-07 4.5932683e-07 
7.2698290e-06 4.2493380e-06 4.6641012e-06 
-1.2942394e-07 -5.8503184e-07 -1.3122363e-06 
0.0000000e+00 -5.8764995e-06 0.0000000e+00 
0.0000000e+00 -9.7108421e-07 0.0000000e+00 
3.8720964e-06 4.3924767e-05 -1.0073550e-05 
-1.4344679e-06 3.9350135e-07 1.0723612e-06 
-7.1035276e-05 2.5786676e-05 -2.8095079e-05 
3.4898857e-08 1.0403132e-06 2.5859879e-07 
0.0000000e+00 -2.9267623e-05 0.0000000e+00 
0.0000000e+00 -1.1230379e-06 0.0000000e+00 
0.0000000e+00 -1.3390132e-05 0.0000000e+00 
0.0000000e+00 -1.0105622e-05 0.0000000e+00 
0.0000000e+00 -1.8067772e-06 0.0000000e+00 
0.0000000e+00 7.9545971e-06 0.0000000e+00 
0.0000000e+00 1.5025950e-05 0.0000000e+00 
0.0000000e+00 1.6173155e-05 0.0000000e+00 
0.0000000e+00 1.0408012e-05 0.0000000e+00 
0.0000000e+00 -4.1370259e-07 0.0000000e+00 
0.0000000e+00 -1.2068907e-05 0.0000000e+00 
0.0000000e+00 -1.9508761e-05 0.0000000e+00 
0.0000000e+00 -1.9007337e-05 0.0000000e+00 
0.0000000e+00 -1.0047825e-05 0.0000000e+00 
0.0000000e+00 4.0479058e-06 0.0000000e+00 
0.0000000e+00 1.7309852e-05 0.0000000e+00 
0.0000000e+00 2.3765540e-05 0.0000000e+00 
0.0000000e+00 2.0293597e-05 0.0000000e+00 
0.0000000e+00 8.2280076e-06 0.0000000e+00 
0.0000000e+00 -7.1505660e-06 0.0000000e+00 
0.0000000e+00 -1.9083211e-05 0.0000000e+00 
0.0000000e+00 -2.2623106e-05 0.0000000e+00 
0.0000000e+00 -1.7039436e-05 0.0000000e+00 
0.0000000e+00 -5.9156955e-06 0.0000000e+00 
0.0000000e+00 5.1564361e-06 0.0000000e+00 
0.0000000e+00 1.1778164e-05 0.0000000e+00 
0.0000000e+00 1.2768149e-05 0.0000000e+00 
0.0000000e+00 9.9499675e-06 0.0000000e+00 
0.0000000e+00 6.2735921e-06 0.0000000e+00 
0.0000000e+00 3.7553095e-06 0.0000000e+00 
0.0000000e+00 2.5113950e-06 0.0000000e+00 
0.0000000e+00 1.2760307e-06 0.0000000e+00 
0.0000000e+00 -1.2086263e-06 0.0000000e+00 
0.0000000e+00 -5.0912927e-06 0.0000000e+00 
0.0000000e+00 -9.3492736e-06 0.0000000e+00 
0.0000000e+00 -1.2472178e-05 0.0000000e+00 
0.0000000e+00 -1.3120055e-05 0.0000000e+00 
0.0000000e+00 -1.0535023e-05 0.0000000e+00 
0.0000000e+00 -4.9607961e-06 0.0000000e+00 
0.0000000e+00 2.1362493e-06 0.0000000e+00 
0.0000000e+00 8.6399687e-06 0.0000000e+00 
0.0000000e+00 1.2943784e-05 0.0000000e+00 
0.0000000e+00 1.4580852e-05 0.0000000e+00 
0.0000000e+00 1.3862356e-05 0.0000000e+00 
0.0000000e+00 1.1392123e-05 0.0000000e+00 
0.0000000e+00 8.1450908e-06 0.0000000e+00 
0.0000000e+00 5.5044893e-06 0.0000000e+00 
0.0000000e+00 4.6517002e-06 0.0000000e+00 
0.0000000e+00 5.9918784e-06 0.0000000e+00 
0.0000000e+00 9.3776671e-06 0.0000000e+00 
0.0000000e+00 1.4503054e-05 0.0000000e+00 
0.0000000e+00 2.0541627e-05 0.0000000e+00 
-9.0452813e-06 2.6116651e-05 -4.1635547e-05 
2.3129687e-05 2.4595118e-05 -5.9489244e-05 
4.3272910e-05 2.4243029e-05 -7.0401140e-05 
4.4931447e-05 2.1737624e-05 -6.9281959e-05 
4.8816226e-05 1.4864880e-05 -5.9240061e-05 
5.1680323e-05 5.1701591e-06 -5.2631280e-05 
7.3456220e-05 -2.1694093e-06 -3.5246783e-05 
6.5749686e-05 2.1180986e-06 -3.4315301e-05 
8.6195199e-05 1.3802455e-05 -3.2362583e-05 
6.2045969e-05 2.2466040e-05 -3.1441657e-05 
1.0264100e-04 1.9728488e-05 -2.2800961e-05 
6.0887396e-05 8.2719507e-06 -6.8251293e-06 
9.6334203e-05 6.8907943e-06 8.8641846e-06 
7.1938062e-05 4.0514387e-05 2.4241506e-05 
1.0257972e-04 9.3536102e-05 4.6115983e-05 
6.0652215e-05 1.0427059e-04 6.0846141e-05 
7.5401011e-05 1.7805583e-05 9.3350332e-05 
5.0448456e-05 -1.8638797e-04 1.4197249e-04 
2.6149453e-05 -5.2230945e-04 2.2296437e-04 
-2.6554537e-05 -1.0233489e-03 1.8816091e-04 
-8.0461621e-05 -1.7999848e-03 3.1834899e-04 
-1.7226681e-04 -2.9511424e-03 1.6321459e-04 
-2.4964678e-04 -4.3665590e-03 2.2847814e-04 
-3.4030463e-04 -5.3577516e-03 4.9924176e-05 
-4.1000152e-04 -5.1965453e-03 -2.0315456e-05 
-6.0823339e-04 -4.6091108e-03 -3.2208853e-05 
-2.9408743e-04 -4.3261419e-03 2.5157204e-05 
-2.2432950e-04 -4.5451904e-03 -8.0481645e-05 
-2.5636557e-04 -4.6659363e-03 -2.1634606e-04 
-2.3105706e-04 -3.7164453e-03 -2.3354200e-04 
-1.4426708e-04 -2.3213557e-03 -3.4407221e-04 
-1.0140335e-04 -1.0897353e-03 -1.8734354e-04 
-2.0351645e-05 -2.8599019e-04 -1.7443772e-04 
-4.0663995e-06 1.0505343e-04 -9.6802803e-05 
7.1883428e-06 2.1795605e-04 -3.6142541e-05 
1.2512665e-05 2.0338937e-04 -3.2097141e-05 
1.0739533e-05 1.5588450e-04 -2.8999493e-06 
2.3039203e-05 1.0567993e-04 9.0541635e-06 
1.7489616e-05 5.7853849e-05 3.5600562e-05 
9.0657850e-06 2.0632953e-05 3.5901583e-05 
4.8357765e-06 2.4085389e-06 3.2936401e-05 
1.4400498e-05 -2.3228083e-06 5.6402091e-06 
1.1026433e-05 -2.8158813e-06 -2.8371711e-05 
2.1915761e-05 2.5447798e-07 -5.9592952e-05 
5.7766567e-05 6.5750560e-06 -5.9862999e-05 
4.8205988e-05 7.5465937e-06 -4.9128204e-05 
8.3894549e-05 -1.5304860e-06 -4.1865133e-05 
5.9110880e-05 -9.6737676e-06 -1.9207890e-05 
9.0102432e-05 -4.6640548e-06 -1.9423334e-05 
7.5360993e-05 1.7545284e-05 -2.0887101e-05 
1.0917009e-04 4.3611515e-05 -1.2001356e-05 
7.0061724e-05 4.8229704e-05 -6.3351927e-06 
9.9791469e-05 2.9944278e-05 5.6563740e-06 
7.1783339e-05 2.4699431e-05 2.6200354e-05 
8.5139545e-05 5.7687761e-05 4.9345013e-05 
5.7248286e-05 1.0419667e-04 6.3877487e-05 
9.0281508e-05 7.1454029e-05 1.1327167e-04 
6.4825290e-05 -1.5067015e-04 1.5436560e-04 
3.8180653e-05 -6.0609845e-04 2.3418128e-04 
-2.7284736e-05 -1.2701924e-03 1.9576927e-04 
-9.9319288e-05 -2.1599554e-03 3.3293176e-04 
-1.9086864e-04 -3.2778950e-03 1.7757321e-04 
-2.7787031e-04 -4.5128120e-03 2.5705309e-04 
-3.4268002e-04 -5.2817268e-03 1.1629866e-04 
-3.7455987e-04 -5.0312844e-03 -1.1182588e-05 
-3.5528300e-04 -4.4939253e-03 -1.3011630e-05 
-3.5353092e-04 -4.3730093e-03 -6.4782405e-05 
-3.8003185e-04 -4.6019931e-03 -1.9916201e-04 
-3.5811204e-04 -4.5775785e-03 -3.3654904e-04 
-2.4869709e-04 -3.4841364e-03 -2.8160468e-04 
-1.4304541e-04 -2.0656842e-03 -4.0510157e-04 
-9.1716123e-05 -9.1407512e-04 -2.5383837e-04 
3.3109786e-06 -2.1662579e-04 -2.4350474e-04 
2.4632895e-05 1.0883940e-04 -1.3053670e-04 
4.5206525e-05 2.1401152e-04 -7.7000564e-05 
4.9357037e-05 2.0553761e-04 -4.3737811e-05 
5.1700743e-05 1.4163220e-04 4.9951482e-06 
3.8935308e-05 6.4760912e-05 2.7195127e-05 
3.6720954e-05 1.1097524e-05 7.3273222e-05 
1.0855608e-05 -8.3260702e-06 8.9258945e-05 
-1.4105717e-05 -7.9890460e-06 7.6642136e-05 
-1.1323763e-05 -6.7278534e-06 5.1922045e-05 
-2.2012920e-05 -9.7339971e-06 1.8241899e-05 
-1.8580009e-05 -1.0072068e-05 -3.2482012e-06 
-9.6408885e-06 -2.1100345e-06 -1.1142472e-05 
-8.9571231e-06 7.5714852e-06 -8.8942907e-06 
-3.5217099e-06 1.0660560e-05 -7.4376289e-06 
-3.7514690e-06 7.6691904e-06 -5.2431319e-06 
-1.0350666e-06 4.2402635e-06 -6.7479732e-06 
2.3805842e-06 3.0071228e-06 -7.1416844e-06 
2.7998510e-06 2.1615654e-06 -6.6089010e-06 
3.1488055e-06 -4.7294559e-08 -5.9694198e-06 
3.5417036e-06 -3.0192318e-06 -2.0271664e-06 
2.5437462e-06 -4.1962762e-06 -2.8905481e-08 
1.9178822e-06 -2.8633110e-06 1.5405641e-06 
9.5029088e-07 -8.4594336e-07 2.3838643e-06 
-1.0823427e-06 1.2897618e-07 1.4187674e-06 
-9.7567658e-07 8.5010171e-08 4.2279274e-07 
-9.4610868e-07 2.7453203e-07 2.1087106e-07 
0.0000000e+00 1.6405605e-06 0.0000000e+00 
0.0000000e+00 1.5437503e-06 0.0000000e+00 
0.0000000e+00 1.0050546e-06 0.0000000e+00 
0.0000000e+00 7.6528147e-07 0.0000000e+00 
0.0000000e+00 1.0649933e-06 0.0000000e+00 
0.0000000e+00 1.3372053e-06 0.0000000e+00 
0.0000000e+00 9.2231073e-07 0.0000000e+00 
0.0000000e+00 -1.2558921e-07 0.0000000e+00 
0.0000000e+00 -1.0975781e-06 0.0000000e+00 
0.0000000e+00 -1.3942467e-06 0.0000000e+00 
0.0000000e+00 -1.0440034e-06 0.0000000e+00 
0.0000000e+00 -4.5811925e-07 0.0000000e+00 
0.0000000e+00 1.1159651e-07 0.0000000e+00 
0.0000000e+00 6.8110825e-07 0.0000000e+00 
0.0000000e+00 1.1732383e-06 0.0000000e+00 
0.0000000e+00 1.2180941e-06 0.0000000e+00 
0.0000000e+00 5.0594923e-07 0.0000000e+00 
0.0000000e+00 -7.0582615e-07 0.0000000e+00 
0.0000000e+00 -1.6134155e-06 0.0000000e+00 
0.0000000e+00 -1.5062866e-06 0.0000000e+00 
0.0000000e+00 -3.9797052e-07 0.0000000e+00 
0.0000000e+00 9.7273096e-07 0.0000000e+00 
0.0000000e+00 1.7260541e-06 0.0000000e+00 
0.0000000e+00 1.4437666e-06 0.0000000e+00 
0.0000000e+00 3.4405400e-07 0.0000000e+00 
0.0000000e+00 -9.4421824e-07 0.0000000e+00 
0.0000000e+00 -1.7309610e-06 0.0000000e+00 
0.0000000e+00 -1.5684808e-06 0.0000000e+00 
0.0000000e+00 -4.8003477e-07 0.0000000e+00 
0.0000000e+00 9.6932854e-07 0.0000000e+00 
0.0000000e+00 1.9124584e-06 0.0000000e+00 
0.0000000e+00 1.7093000e-06 0.0000000e+00 
0.0000000e+00 4.2627576e-07 0.0000000e+00 
0.0000000e+00 -1.1478362e-06 0.0000000e+00 
0.0000000e+00 -2.0202399e-06 0.0000000e+00 
0.0000000e+00 -1.6635593e-06 0.0000000e+00 
0.0000000e+00 -3.4072778e-07 0.0000000e+00 
0.0000000e+00 1.0972633e-06 0.0000000e+00 
0.0000000e+00 1.7259895e-06 0.0000000e+00 
0.0000000e+00 -1.3230770e-05 0.0000000e+00 
0.0000000e+00 -1.0008743e-05 0.0000000e+00 
0.0000000e+00 -1.8422298e-06 0.0000000e+00 
0.0000000e+00 7.8168523e-06 0.0000000e+00 
0.0000000e+00 1.4881424e-05 0.0000000e+00 
0.0000000e+00 1.6106842e-05 0.0000000e+00 
0.0000000e+00 1.0436893e-05 0.0000000e+00 
0.0000000e+00 -3.3863083e-07 0.0000000e+00 
0.0000000e+00 -1.2010688e-05 0.0000000e+00 
0.0000000e+00 -1.9491659e-05 0.0000000e+00 
0.0000000e+00 -1.9007937e-05 0.0000000e+00 
0.0000000e+00 -1.0031806e-05 0.0000000e+00 
0.0000000e+00 4.0830237e-06 0.0000000e+00 
0.0000000e+00 1.7327453e-05 0.0000000e+00 
0.0000000e+00 2.3724180e-05 0.0000000e+00 
0.0000000e+00 2.0192394e-05 0.0000000e+00 
0.0000000e+00 8.1233175e-06 0.0000000e+00 
0.0000000e+00 -7.1776267e-06 0.0000000e+00 
0.0000000e+00 -1.8991996e-05 0.0000000e+00 
0.0000000e+00 -2.2460350e-05 0.0000000e+00 
0.0000000e+00 -1.6917893e-05 0.0000000e+00 
0.0000000e+00 -5.9289473e-06 0.0000000e+00 
0.0000000e+00 5.0132262e-06 0.0000000e+00 
0.0000000e+00 1.1608829e-05 0.0000000e+00 
0.0000000e+00 1.2695456e-05 0.0000000e+00 
0.0000000e+00 1.0023227e-05 0.0000000e+00 
0.0000000e+00 6.4349379e-06 0.0000000e+00 
0.0000000e+00 3.8845465e-06 0.0000000e+00 
0.0000000e+00 2.5159004e-06 0.0000000e+00 
0.0000000e+00 1.1615592e-06 0.0000000e+00 
0.0000000e+00 -1.3446373e-06 0.0000000e+00 
0.0000000e+00 -5.1440238e-06 0.0000000e+00 
0.0000000e+00 -9.2928985e-06 0.0000000e+00 
0.0000000e+00 -1.2368182e-05 0.0000000e+00 
0.0000000e+00 -1.3052759e-05 0.0000000e+00 
0.0000000e+00 -1.0548561e-05 0.0000000e+00 
0.0000000e+00 -5.0418466e-06 0.0000000e+00 
0.0000000e+00 2.0454686e-06 0.0000000e+00 
0.0000000e+00 8.6108403e-06 0.0000000e+00 
0.0000000e+00 1.3006514e-05 0.0000000e+00 
0.0000000e+00 1.4683282e-05 0.0000000e+00 
0.0000000e+00 1.3909616e-05 0.0000000e+00 
0.0000000e+00 1.1346813e-05 0.0000000e+00 
0.0000000e+00 8.0679874e-06 0.0000000e+00 
0.0000000e+00 5.4816005e-06 0.0000000e+00 
0.0000000e+00 4.7073977e-06 0.0000000e+00 
0.0000000e+00 6.0904995e-06 0.0000000e+00 
0.0000000e+00 9.4767838e-06 0.0000000e+00 
0.0000000e+00 1.4583471e-05 0.0000000e+00 
0.0000000e+00 2.0629544e-05 0.0000000e+00 
0.0000000e+00 2.5394978e-05 0.0000000e+00 
0.0000000e+00 2.6045645e-05 0.0000000e+00 
0.0000000e+00 2.4918245e-05 0.0000000e+00 
0.0000000e+00 2.4335817e-05 0.0000000e+00 
0.0000000e+00 2.1634860e-05 0.0000000e+00 
0.0000000e+00 1.4608519e-05 0.0000000e+00 
0.0000000e+00 4.8067577e-06 0.0000000e+00 
0.0000000e+00 -1.7685555e-06 0.0000000e+00 
0.0000000e+00 2.3361133e-06 0.0000000e+00 
0.0000000e+00 1.3904539e-05 0.0000000e+00 
0.0000000e+00 2.2261213e-05 0.0000000e+00 
0.0000000e+00 1.8963816e-05 0.0000000e+00 
0.0000000e+00 7.5471876e-06 0.0000000e+00 
0.0000000e+00 7.9824713e-06 0.0000000e+00 
0.0000000e+00 4.2362128e-05 0.0000000e+00 
0.0000000e+00 9.4056079e-05 0.0000000e+00 
0.0000000e+00 1.0345552e-04 0.0000000e+00 
0.0000000e+00 1.6880285e-05 0.0000000e+00 
0.0000000e+00 -1.8680761e-04 0.0000000e+00 
0.0000000e+00 -5.1967235e-04 0.0000000e+00 
0.0000000e+00 -1.0228530e-03 0.0000000e+00 
0.0000000e+00 -1.8060138e-03 0.0000000e+00 
0.0000000e+00 -2.9711770e-03 0.0000000e+00 
0.0000000e+00 -4.3892949e-03 0.0000000e+00 
0.0000000e+00 -5.3916033e-03 0.0000000e+00 
0.0000000e+00 -5.2190097e-03 0.0000000e+00 
0.0000000e+00 -4.6270373e-03 0.0000000e+00 
0.0000000e+00 -4.3537519e-03 0.0000000e+00 
0.0000000e+00 -4.5790095e-03 0.0000000e+00 
0.0000000e+00 -4.6910094e-03 0.0000000e+00 
0.0000000e+00 -3.7399055e-03 0.0000000e+00 
0.0000000e+00 -2.3346036e-03 0.0000000e+00 
0.0000000e+00 -1.0996304e-03 0.0000000e+00 
0.0000000e+00 -2.8923553e-04 0.0000000e+00 
0.0000000e+00 1.0548878e-04 0.0000000e+00 
0.0000000e+00 2.2026715e-04 0.0000000e+00 
0.0000000e+00 2.0531694e-04 0.0000000e+00 
0.0000000e+00 1.5648833e-04 0.0000000e+00 
0.0000000e+00 1.0576427e-04 0.0000000e+00 
0.0000000e+00 5.8169513e-05 0.0000000e+00 
0.0000000e+00 2.1165373e-05 0.0000000e+00 
0.0000000e+00 2.2502597e-06 0.0000000e+00 
0.0000000e+00 -2.9067878e-06 0.0000000e+00 
0.0000000e+00 -2.7476767e-06 0.0000000e+00 
0.0000000e+00 8.5255363e-07 0.0000000e+00 
0.0000000e+00 6.5645781e-06 0.0000000e+00 
0.0000000e+00 6.8050535e-06 0.0000000e+00 
0.0000000e+00 -1.9430847e-06 0.0000000e+00 
0.0000000e+00 -9.6505946e-06 0.0000000e+00 
0.0000000e+00 -3.8626190e-06 0.0000000e+00 
0.0000000e+00 1.8354200e-05 0.0000000e+00 
0.0000000e+00 4.2823249e-05 0.0000000e+00 
0.0000000e+00 4.6643039e-05 0.0000000e+00 
0.0000000e+00 2.9781080e-05 0.0000000e+00 
0.0000000e+00 2.5955331e-05 0.0000000e+00 
0.0000000e+00 6.0518014e-05 0.0000000e+00 
0.0000000e+00 1.0582217e-04 0.0000000e+00 
0.0000000e+00 6.9468580e-05 0.0000000e+00 
0.0000000e+00 -1.5371549e-04 0.0000000e+00 
0.0000000e+00 -6.0568092e-04 0.0000000e+00 
0.0000000e+00 -1.2713688e-03 0.0000000e+00 
0.0000000e+00 -2.1630132e-03 0.0000000e+00 
0.0000000e+00 -3.2951680e-03 0.0000000e+00 
0.0000000e+00 -4.5364695e-03 0.0000000e+00 
0.0000000e+00 -5.3190026e-03 0.0000000e+00 
0.0000000e+00 -5.0529144e-03 0.0000000e+00 
0.0000000e+00 -4.5216135e-03 0.0000000e+00 
0.0000000e+00 -4.3916055e-03 0.0000000e+00 
0.0000000e+00 -4.6333922e-03 0.0000000e+00 
0.0000000e+00 -4.6016360e-03 0.0000000e+00 
0.0000000e+00 -3.5104922e-03 0.0000000e+00 
0.0000000e+00 -2.0798587e-03 0.0000000e+00 
0.0000000e+00 -9.2246052e-04 0.0000000e+00 
0.0000000e+00 -2.1798996e-04 0.0000000e+00 
0.0000000e+00 1.1081886e-04 0.0000000e+00 
0.0000000e+00 2.1548863e-04 0.0000000e+00 
0.0000000e+00 2.0598627e-04 0.0000000e+00 
0.0000000e+00 1.4211278e-04 0.0000000e+00 
0.0000000e+00 6.5926877e-05 0.0000000e+00 
0.0000000e+00 1.1878265e-05 0.0000000e+00 
0.0000000e+00 -8.5116508e-06 0.0000000e+00 
0.0000000e+00 -8.5483680e-06 0.0000000e+00 
0.0000000e+00 -6.9384296e-06 0.0000000e+00 
0.0000000e+00 -9.5490132e-06 0.0000000e+00 
0.0000000e+00 -9.7068305e-06 0.0000000e+00 
0.0000000e+00 -2.1774908e-06 0.0000000e+00 
0.0000000e+00 7.2323601e-06 0.0000000e+00 
0.0000000e+00 1.0560392e-05 0.0000000e+00 
0.0000000e+00 7.8437970e-06 0.0000000e+00 
0.0000000e+00 4.3701830e-06 0.0000000e+00 
0.0000000e+00 2.9336893e-06 0.0000000e+00 
0.0000000e+00 2.0755463e-06 0.0000000e+00 
0.0000000e+00 -6.4442666e-08 0.0000000e+00 
0.0000000e+00 -2.9265020e-06 0.0000000e+00 
0.0000000e+00 -4.1342646e-06 0.0000000e+00 
0.0000000e+00 -2.9046037e-06 0.0000000e+00 
0.0000000e+00 -9.0647308e-07 0.0000000e+00 
0.0000000e+00 1.1192105e-07 0.0000000e+00 
0.0000000e+00 1.3128978e-07 0.0000000e+00 
0.0000000e+00 2.9879453e-07 0.0000000e+00 
0.0000000e+00 1.0167552e-06 0.0000000e+00 
0.0000000e+00 1.6172979e-06 0.0000000e+00 
0.0000000e+00 1.5429426e-06 0.0000000e+00 
0.0000000e+00 1.0317896e-06 0.0000000e+00 
0.0000000e+00 7.8789958e-07 0.0000000e+00 
0.0000000e+00 1.0577879e-06 0.0000000e+00 
0.0000000e+00 1.3113416e-06 0.0000000e+00 
0.0000000e+00 9.0919781e-07 0.0000000e+00 
0.0000000e+00 -1.1318377e-07 0.0000000e+00 
0.0000000e+00 -1.0777899e-06 0.0000000e+00 
0.0000000e+00 -1.3902048e-06 0.0000000e+00 
0.0000000e+00 -1.0554531e-06 0.0000000e+00 
0.0000000e+00 -4.6558543e-07 0.0000000e+00 
0.0000000e+00 1.1879342e-07 0.0000000e+00 
0.0000000e+00 6.9093244e-07 0.0000000e+00 
0.0000000e+00 1.1682063e-06 0.0000000e+00 
0.0000000e+00 1.1996369e-06 0.0000000e+00 
0.0000000e+00 4.9399449e-07 0.0000000e+00 
0.0000000e+00 -6.9675349e-07 0.0000000e+00 
0.0000000e+00 -1.5911384e-06 0.0000000e+00 
0.0000000e+00 -1.4913976e-06 0.0000000e+00 
0.0000000e+00 -4.0153574e-07 0.0000000e+00 
0.0000000e+00 9.5766916e-07 0.0000000e+00 
0.0000000e+00 1.7129165e-06 0.0000000e+00 
0.0000000e+00 1.4384232e-06 0.0000000e+00 
0.0000000e+00 3.4434612e-07 0.0000000e+00 
0.0000000e+00 -9.3987580e-07 0.0000000e+00 
0.0000000e+00 -1.7208623e-06 0.0000000e+00 
0.0000000e+00 -1.5543673e-06 0.0000000e+00 
0.0000000e+00 -4.7147665e-07 0.0000000e+00 
0.0000000e+00 9.6243741e-07 0.0000000e+00 
0.0000000e+00 1.8920788e-06 0.0000000e+00 
0.0000000e+00 1.6905318e-06 0.0000000e+00 
0.0000000e+00 4.2409266e-07 0.0000000e+00 
0.0000000e+00 -1.1325224e-06 0.0000000e+00 
0.0000000e+00 -2.0002553e-06 0.0000000e+00 
0.0000000e+00 -1.6525028e-06 0.0000000e+00 
0.0000000e+00 -3.4235416e-07 0.0000000e+00 
0.0000000e+00 1.0877324e-06 0.0000000e+00 
0.0000000e+00 1.7143618e-06 0.0000000e+00 
0.0000000e+00 0.0000000e+00 0.0000000e+00 
0.0000000e+00 0.0000000e+00 0.0000000e+00 
0.0000000e+00 0.0000000e+00 0.0000000e+00 
0.0000000e+00 0.0000000e+00 0.0000000e+00 
0.0000000e+00 0.0000000e+00 0.0000000e+00 
0.0000000e+00 0.0000000e+00 0.0000000e+00 
0.0000000e+00 0.0000000e+00 0.0000000e+00 
0.0000000e+00 0.0000000e+00 0.0000000e+00 
0.0000000e+00 0.0000000e+00 0.0000000e+00 
0.0000000e+00 0.0000000e+00 0.0000000e+00 
0.0000000e+00 0.0000000e+00 0.0000000e+00 
0.0000000e+00 0.0000000e+00 0.0000000e+00 
0.0000000e+00 0.0000000e+00 0.0000000e+00 
0.0000000e+00 0.0000000e+00 0.0000000e+00 
0.0000000e+00 0.0000000e+00 0.0000000e+00 
0.0000000e+00 0.0000000e+00 0.0000000e+00 
0.0000000e+00 0.0000000e+00 0.0000000e+00 
0.0000000e+00 0.0000000e+00 0.0000000e+00 
0.0000000e+00 0.0000000e+00 0.0000000e+00 
0.0000000e+00 0.0000000e+00 0.0000000e+00 
0.0000000e+00 0.0000000e+00 0.0000000e+00 
0.0000000e+00 0.0000000e+00 0.0000000e+00 
0.0000000e+00 0.0000000e+00 0.0000000e+00 
0.0000000e+00 0.0000000e+00 0.0000000e+00 
0.0000000e+00 0.0000000e+00 0.0000000e+00 
0.0000000e+00 0.0000000e+00 0.0000000e+00 
0.0000000e+00 0.0000000e+00 0.0000000e+00 
0.0000000e+00 0.0000000e+00 0.0000000e+00 
0.0000000e+00 0.0000000e+00 0.0000000e+00 
0.0000000e+00 0.0000000e+00 0.0000000e+00 
0.0000000e+00 0.0000000e+00 0.0000000e+00 
0.0000000e+00 0.0000000e+00 0.0000000e+00 
0.0000000e+00 0.0000000e+00 0.0000000e+00 
0.0000000e+00 0.0000000e+00 0.0000000e+00 
0.0000000e+00 0.0000000e+00 0.0000000e+00 
0.0000000e+00 0.0000000e+00 0.0000000e+00 
0.0000000e+00 0.0000000e+00 0.0000000e+00 
0.0000000e+00 0.0000000e+00 0.0000000e+00 
0.0000000e+00 0.0000000e+00 0.0000000e+00 
0.0000000e+00 0.0000000e+00 0.0000000e+00 
0.0000000e+00 0.0000000e+00 0.0000000e+00 
0.0000000e+00 0.0000000e+00 0.0000000e+00 
0.0000000e+00 0.0000000e+00 0.0000000e+00 
0.0000000e+00 0.0000000e+00 0.0000000e+00 
0.0000000e+00 0.0000000e+00 0.0000000e+00 
0.0000000e+00 0.0000000e+00 0.0000000e+00 
0.0000000e+00 0.0000000e+00 0.0000000e+00 
0.0000000e+00 0.0000000e+00 0.0000000e+00 
0.0000000e+00 0.0000000e+00 0.0000000e+00 
0.0000000e+00 0.0000000e+00 0.0000000e+00 
0.0000000e+00 0.0000000e+00 0.0000000e+00 
0.0000000e+00 0.0000000e+00 0.0000000e+00 
0.0000000e+00 0.0000000e+00 0.0000000e+00 
0.0000000e+00 0.0000000e+00 0.0000000e+00 
0.0000000e+00 0.0000000e+00 0.0000000e+00 
0.0000000e+00 0.0000000e+00 0.0000000e+00 
0.0000000e+00 0.0000000e+00 0.0000000e+00 
0.0000000e+00 0.0000000e+00 0.0000000e+00 
0.0000000e+00 0.0000000e+00 0.0000000e+00 