# vtk DataFile Version 4.0
vtk output
ASCII
DATASET UNSTRUCTURED_GRID
POINTS 2186 float
0.0000000e+00 0.0000000e+00 0.0000000e+00 
0.0000000e+00 0.0000000e+00 5.0000000e+01 
5.0000000e+00 0.0000000e+00 0.0000000e+00 
5.0000000e+00 0.0000000e+00 5.0000000e+01 
5.0000000e+00 1.0000000e+00 0.0000000e+00 
5.0000000e+00 1.0000000e+00 5.0000000e+01 
0.0000000e+00 1.0000000e+00 0.0000000e+00 
0.0000000e+00 1.0000000e+00 5.0000000e+01 
5.0000000e+00 2.0000000e+00 0.0000000e+00 
5.0000000e+00 2.0000000e+00 5.0000000e+01 
3.0000000e+00 2.0000000e+00 0.0000000e+00 
3.0000000e+00 2.0000000e+00 5.0000000e+01 
0.0000000e+00 2.0000000e+00 0.0000000e+00 
0.0000000e+00 2.0000000e+00 5.0000000e+01 
1.5000000e+00 3.0000000e+00 0.0000000e+00 
1.5000000e+00 3.0000000e+00 5.0000000e+01 
7.5000000e-01 3.0000000e+00 0.0000000e+00 
7.5000000e-01 3.0000000e+00 5.0000000e+01 
0.0000000e+00 3.0000000e+00 0.0000000e+00 
0.0000000e+00 3.0000000e+00 5.0000000e+01 
7.5000000e-01 3.0000000e+00 -2.5000000e+01 
7.5000000e-01 3.0000000e+00 -2.4500000e+01 
7.5000000e-01 3.0000000e+00 -2.4000000e+01 
7.5000000e-01 3.0000000e+00 -2.3500000e+01 
7.5000000e-01 3.0000000e+00 -2.3000000e+01 
7.5000000e-01 3.0000000e+00 -2.2500000e+01 
7.5000000e-01 3.0000000e+00 -2.2000000e+01 
7.5000000e-01 3.0000000e+00 -2.1500000e+01 
7.5000000e-01 3.0000000e+00 -2.1000000e+01 
7.5000000e-01 3.0000000e+00 -2.0500000e+01 
7.5000000e-01 3.0000000e+00 -2.0000000e+01 
7.5000000e-01 3.0000000e+00 -1.9500000e+01 
7.5000000e-01 3.0000000e+00 -1.9000000e+01 
7.5000000e-01 3.0000000e+00 -1.8500000e+01 
7.5000000e-01 3.0000000e+00 -1.8000000e+01 
7.5000000e-01 3.0000000e+00 -1.7500000e+01 
7.5000000e-01 3.0000000e+00 -1.7000000e+01 
7.5000000e-01 3.0000000e+00 -1.6500000e+01 
7.5000000e-01 3.0000000e+00 -1.6000000e+01 
7.5000000e-01 3.0000000e+00 -1.5500000e+01 
7.5000000e-01 3.0000000e+00 -1.5000000e+01 
7.5000000e-01 3.0000000e+00 -1.4500000e+01 
7.5000000e-01 3.0000000e+00 -1.4000000e+01 
7.5000000e-01 3.0000000e+00 -1.3500000e+01 
7.5000000e-01 3.0000000e+00 -1.3000000e+01 
7.5000000e-01 3.0000000e+00 -1.2500000e+01 
7.5000000e-01 3.0000000e+00 -1.2000000e+01 
7.5000000e-01 3.0000000e+00 -1.1500000e+01 
7.5000000e-01 3.0000000e+00 -1.1000000e+01 
7.5000000e-01 3.0000000e+00 -1.0500000e+01 
7.5000000e-01 3.0000000e+00 -1.0000000e+01 
7.5000000e-01 3.0000000e+00 -9.5000000e+00 
7.5000000e-01 3.0000000e+00 -9.0000000e+00 
7.5000000e-01 3.0000000e+00 -8.5000000e+00 
7.5000000e-01 3.0000000e+00 -8.0000000e+00 
7.5000000e-01 3.0000000e+00 -7.5000000e+00 
7.5000000e-01 3.0000000e+00 -7.0000000e+00 
7.5000000e-01 3.0000000e+00 -6.5000000e+00 
7.5000000e-01 3.0000000e+00 -6.0000000e+00 
7.5000000e-01 3.0000000e+00 -5.5000000e+00 
7.5000000e-01 3.0000000e+00 -5.0000000e+00 
7.5000000e-01 3.0000000e+00 -4.5000000e+00 
7.5000000e-01 3.0000000e+00 -4.0000000e+00 
7.5000000e-01 3.0000000e+00 -3.5000000e+00 
7.5000000e-01 3.0000000e+00 -3.0000000e+00 
7.5000000e-01 3.0000000e+00 -2.5000000e+00 
7.5000000e-01 3.0000000e+00 -2.0000000e+00 
7.5000000e-01 3.0000000e+00 -1.5000000e+00 
7.5000000e-01 3.0000000e+00 -1.0000000e+00 
7.5000000e-01 3.0000000e+00 -5.0000000e-01 
7.5000000e-01 3.0000000e+00 5.0000000e-01 
7.5000000e-01 3.0000000e+00 1.0000000e+00 
7.5000000e-01 3.0000000e+00 1.5000000e+00 
7.5000000e-01 3.0000000e+00 2.0000000e+00 
7.5000000e-01 3.0000000e+00 2.5000000e+00 
7.5000000e-01 3.0000000e+00 3.0000000e+00 
7.5000000e-01 3.0000000e+00 3.5000000e+00 
7.5000000e-01 3.0000000e+00 4.0000000e+00 
7.5000000e-01 3.0000000e+00 4.5000000e+00 
7.5000000e-01 3.0000000e+00 5.0000000e+00 
7.5000000e-01 3.0000000e+00 5.5000000e+00 
7.5000000e-01 3.0000000e+00 6.0000000e+00 
7.5000000e-01 3.0000000e+00 6.5000000e+00 
7.5000000e-01 3.0000000e+00 7.0000000e+00 
7.5000000e-01 3.0000000e+00 7.5000000e+00 
7.5000000e-01 3.0000000e+00 8.0000000e+00 
7.5000000e-01 3.0000000e+00 8.5000000e+00 
7.5000000e-01 3.0000000e+00 9.0000000e+00 
7.5000000e-01 3.0000000e+00 9.5000000e+00 
7.5000000e-01 3.0000000e+00 1.0000000e+01 
7.5000000e-01 3.0000000e+00 1.0500000e+01 
7.5000000e-01 3.0000000e+00 1.1000000e+01 
7.5000000e-01 3.0000000e+00 1.1500000e+01 
7.5000000e-01 3.0000000e+00 1.2000000e+01 
7.5000000e-01 3.0000000e+00 1.2500000e+01 
7.5000000e-01 3.0000000e+00 1.3000000e+01 
7.5000000e-01 3.0000000e+00 1.3500000e+01 
7.5000000e-01 3.0000000e+00 1.4000000e+01 
7.5000000e-01 3.0000000e+00 1.4500000e+01 
7.5000000e-01 3.0000000e+00 1.5000000e+01 
7.5000000e-01 3.0000000e+00 1.5500000e+01 
7.5000000e-01 3.0000000e+00 1.6000000e+01 
7.5000000e-01 3.0000000e+00 1.6500000e+01 
7.5000000e-01 3.0000000e+00 1.7000000e+01 
7.5000000e-01 3.0000000e+00 1.7500000e+01 
7.5000000e-01 3.0000000e+00 1.8000000e+01 
7.5000000e-01 3.0000000e+00 1.8500000e+01 
7.5000000e-01 3.0000000e+00 1.9000000e+01 
7.5000000e-01 3.0000000e+00 1.9500000e+01 
7.5000000e-01 3.0000000e+00 2.0000000e+01 
7.5000000e-01 3.0000000e+00 2.0500000e+01 
7.5000000e-01 3.0000000e+00 2.1000000e+01 
7.5000000e-01 3.0000000e+00 2.1500000e+01 
7.5000000e-01 3.0000000e+00 2.2000000e+01 
7.5000000e-01 3.0000000e+00 2.2500000e+01 
7.5000000e-01 3.0000000e+00 2.3000000e+01 
7.5000000e-01 3.0000000e+00 2.3500000e+01 
7.5000000e-01 3.0000000e+00 2.4000000e+01 
7.5000000e-01 3.0000000e+00 2.4500000e+01 
7.5000000e-01 3.0000000e+00 2.5000000e+01 
7.5000000e-01 3.0000000e+00 2.5500000e+01 
7.5000000e-01 3.0000000e+00 2.6000000e+01 
7.5000000e-01 3.0000000e+00 2.6500000e+01 
7.5000000e-01 3.0000000e+00 2.7000000e+01 
7.5000000e-01 3.0000000e+00 2.7500000e+01 
7.5000000e-01 3.0000000e+00 2.8000000e+01 
7.5000000e-01 3.0000000e+00 2.8500000e+01 
7.5000000e-01 3.0000000e+00 2.9000000e+01 
7.5000000e-01 3.0000000e+00 2.9500000e+01 
7.5000000e-01 3.0000000e+00 3.0000000e+01 
7.5000000e-01 3.0000000e+00 3.0500000e+01 
7.5000000e-01 3.0000000e+00 3.1000000e+01 
7.5000000e-01 3.0000000e+00 3.1500000e+01 
7.5000000e-01 3.0000000e+00 3.2000000e+01 
7.5000000e-01 3.0000000e+00 3.2500000e+01 
7.5000000e-01 3.0000000e+00 3.3000000e+01 
7.5000000e-01 3.0000000e+00 3.3500000e+01 
7.5000000e-01 3.0000000e+00 3.4000000e+01 
7.5000000e-01 3.0000000e+00 3.4500000e+01 
7.5000000e-01 3.0000000e+00 3.5000000e+01 
7.5000000e-01 3.0000000e+00 3.5500000e+01 
7.5000000e-01 3.0000000e+00 3.6000000e+01 
7.5000000e-01 3.0000000e+00 3.6500000e+01 
7.5000000e-01 3.0000000e+00 3.7000000e+01 
7.5000000e-01 3.0000000e+00 3.7500000e+01 
7.5000000e-01 3.0000000e+00 3.8000000e+01 
7.5000000e-01 3.0000000e+00 3.8500000e+01 
7.5000000e-01 3.0000000e+00 3.9000000e+01 
7.5000000e-01 3.0000000e+00 3.9500000e+01 
7.5000000e-01 3.0000000e+00 4.0000000e+01 
7.5000000e-01 3.0000000e+00 4.0500000e+01 
7.5000000e-01 3.0000000e+00 4.1000000e+01 
7.5000000e-01 3.0000000e+00 4.1500000e+01 
7.5000000e-01 3.0000000e+00 4.2000000e+01 
7.5000000e-01 3.0000000e+00 4.2500000e+01 
7.5000000e-01 3.0000000e+00 4.3000000e+01 
7.5000000e-01 3.0000000e+00 4.3500000e+01 
7.5000000e-01 3.0000000e+00 4.4000000e+01 
7.5000000e-01 3.0000000e+00 4.4500000e+01 
7.5000000e-01 3.0000000e+00 4.5000000e+01 
7.5000000e-01 3.0000000e+00 4.5500000e+01 
7.5000000e-01 3.0000000e+00 4.6000000e+01 
7.5000000e-01 3.0000000e+00 4.6500000e+01 
7.5000000e-01 3.0000000e+00 4.7000000e+01 
7.5000000e-01 3.0000000e+00 4.7500000e+01 
7.5000000e-01 3.0000000e+00 4.8000000e+01 
7.5000000e-01 3.0000000e+00 4.8500000e+01 
7.5000000e-01 3.0000000e+00 4.9000000e+01 
7.5000000e-01 3.0000000e+00 4.9500000e+01 
7.5000000e-01 3.0000000e+00 5.0500000e+01 
7.5000000e-01 3.0000000e+00 5.1000000e+01 
7.5000000e-01 3.0000000e+00 5.1500000e+01 
7.5000000e-01 3.0000000e+00 5.2000000e+01 
7.5000000e-01 3.0000000e+00 5.2500000e+01 
7.5000000e-01 3.0000000e+00 5.3000000e+01 
7.5000000e-01 3.0000000e+00 5.3500000e+01 
7.5000000e-01 3.0000000e+00 5.4000000e+01 
7.5000000e-01 3.0000000e+00 5.4500000e+01 
7.5000000e-01 3.0000000e+00 5.5000000e+01 
7.5000000e-01 3.0000000e+00 5.5500000e+01 
7.5000000e-01 3.0000000e+00 5.6000000e+01 
7.5000000e-01 3.0000000e+00 5.6500000e+01 
7.5000000e-01 3.0000000e+00 5.7000000e+01 
7.5000000e-01 3.0000000e+00 5.7500000e+01 
7.5000000e-01 3.0000000e+00 5.8000000e+01 
7.5000000e-01 3.0000000e+00 5.8500000e+01 
7.5000000e-01 3.0000000e+00 5.9000000e+01 
7.5000000e-01 3.0000000e+00 5.9500000e+01 
7.5000000e-01 3.0000000e+00 6.0000000e+01 
7.5000000e-01 3.0000000e+00 6.0500000e+01 
7.5000000e-01 3.0000000e+00 6.1000000e+01 
7.5000000e-01 3.0000000e+00 6.1500000e+01 
7.5000000e-01 3.0000000e+00 6.2000000e+01 
7.5000000e-01 3.0000000e+00 6.2500000e+01 
7.5000000e-01 3.0000000e+00 6.3000000e+01 
7.5000000e-01 3.0000000e+00 6.3500000e+01 
7.5000000e-01 3.0000000e+00 6.4000000e+01 
7.5000000e-01 3.0000000e+00 6.4500000e+01 
7.5000000e-01 3.0000000e+00 6.5000000e+01 
7.5000000e-01 3.0000000e+00 6.5500000e+01 
7.5000000e-01 3.0000000e+00 6.6000000e+01 
7.5000000e-01 3.0000000e+00 6.6500000e+01 
7.5000000e-01 3.0000000e+00 6.7000000e+01 
7.5000000e-01 3.0000000e+00 6.7500000e+01 
7.5000000e-01 3.0000000e+00 6.8000000e+01 
7.5000000e-01 3.0000000e+00 6.8500000e+01 
7.5000000e-01 3.0000000e+00 6.9000000e+01 
7.5000000e-01 3.0000000e+00 6.9500000e+01 
7.5000000e-01 3.0250001e+00 -2.5000000e+01 
7.5000000e-01 3.0250001e+00 -2.4500000e+01 
7.5000000e-01 3.0250001e+00 -2.4000000e+01 
7.5000000e-01 3.0250001e+00 -2.3500000e+01 
7.5000000e-01 3.0250001e+00 -2.3000000e+01 
7.5000000e-01 3.0250001e+00 -2.2500000e+01 
7.5000000e-01 3.0250001e+00 -2.2000000e+01 
7.5000000e-01 3.0250001e+00 -2.1500000e+01 
7.5000000e-01 3.0250001e+00 -2.1000000e+01 
7.5000000e-01 3.0250001e+00 -2.0500000e+01 
7.5000000e-01 3.0250001e+00 -2.0000000e+01 
7.5000000e-01 3.0250001e+00 -1.9500000e+01 
7.5000000e-01 3.0250001e+00 -1.9000000e+01 
7.5000000e-01 3.0250001e+00 -1.8500000e+01 
7.5000000e-01 3.0250001e+00 -1.8000000e+01 
7.5000000e-01 3.0250001e+00 -1.7500000e+01 
7.5000000e-01 3.0250001e+00 -1.7000000e+01 
7.5000000e-01 3.0250001e+00 -1.6500000e+01 
7.5000000e-01 3.0250001e+00 -1.6000000e+01 
7.5000000e-01 3.0250001e+00 -1.5500000e+01 
[...]
POINT_DATA 2186
FIELD FieldData 3
DISPLACEMENT 3 2186  float
0.0000000e+00 0.0000000e+00 0.0000000e+00 
0.0000000e+00 0.0000000e+00 0.0000000e+00 
0.0000000e+00 0.0000000e+00 0.0000000e+00 
0.0000000e+00 0.0000000e+00 0.0000000e+00 
6.7700723e-10 4.8290936e-09 -7.4241382e-09 
3.3693240e-16 -1.1358887e-16 2.5786624e-16 
0.0000000e+00 -1.2345132e-06 0.0000000e+00 
0.0000000e+00 1.1310680e-15 0.0000000e+00 
-7.1060069e-09 1.9014801e-09 3.9446797e-09 
1.2175925e-16 4.7849335e-17 1.4420470e-16 
1.3049109e-07 4.3851418e-07 8.9829385e-08 
-4.3629749e-16 3.1332903e-16 4.3520934e-16 
0.0000000e+00 6.1348301e-06 0.0000000e+00 
0.0000000e+00 1.8542703e-15 0.0000000e+00 
-6.0423868e-06 1.7668188e-05 2.2406377e-06 
6.2265990e-16 -8.1673543e-16 1.8752196e-16 
-1.1760852e-07 -1.2013487e-04 9.6120630e-07 
-2.1015776e-17 3.0272839e-15 -2.3293533e-16 
0.0000000e+00 5.2176565e-05 0.0000000e+00 
0.0000000e+00 -4.2022170e-16 0.0000000e+00 
0.0000000e+00 -1.9528339e-16 0.0000000e+00 
0.0000000e+00 1.8353628e-16 0.0000000e+00 
0.0000000e+00 -1.1344210e-17 0.0000000e+00 
0.0000000e+00 2.9581601e-16 0.0000000e+00 
0.0000000e+00 -9.4711857e-16 0.0000000e+00 
0.0000000e+00 -1.5348265e-15 0.0000000e+00 
0.0000000e+00 -8.7895058e-16 0.0000000e+00 
0.0000000e+00 1.9134267e-15 0.0000000e+00 
0.0000000e+00 3.4970259e-15 0.0000000e+00 
0.0000000e+00 3.6436418e-15 0.0000000e+00 
0.0000000e+00 2.5551302e-15 0.0000000e+00 
0.0000000e+00 3.5861218e-16 0.0000000e+00 
0.0000000e+00 -4.2002873e-15 0.0000000e+00 
0.0000000e+00 -9.1064978e-15 0.0000000e+00 
0.0000000e+00 -1.0880859e-14 0.0000000e+00 
0.0000000e+00 -8.0633098e-15 0.0000000e+00 
0.0000000e+00 -1.9179196e-15 0.0000000e+00 
0.0000000e+00 3.3076651e-15 0.0000000e+00 
0.0000000e+00 7.0592946e-15 0.0000000e+00 
0.0000000e+00 5.7466781e-15 0.0000000e+00 
0.0000000e+00 -7.1413263e-15 0.0000000e+00 
0.0000000e+00 7.5997075e-15 0.0000000e+00 
0.0000000e+00 1.4276899e-13 0.0000000e+00 
0.0000000e+00 2.0985252e-13 0.0000000e+00 
0.0000000e+00 -6.5807445e-13 0.0000000e+00 
0.0000000e+00 -2.1434612e-12 0.0000000e+00 
0.0000000e+00 2.0263869e-12 0.0000000e+00 
0.0000000e+00 1.6523730e-11 0.0000000e+00 
0.0000000e+00 5.5492069e-12 0.0000000e+00 
0.0000000e+00 -9.8583003e-11 0.0000000e+00 
0.0000000e+00 -1.4643141e-10 0.0000000e+00 
0.0000000e+00 4.2461432e-10 0.0000000e+00 
0.0000000e+00 1.3325279e-09 0.0000000e+00 
0.0000000e+00 -8.7782182e-10 0.0000000e+00 
0.0000000e+00 -8.2287466e-09 0.0000000e+00 
0.0000000e+00 -4.7285775e-09 0.0000000e+00 
0.0000000e+00 3.6002849e-08 0.0000000e+00 
0.0000000e+00 6.3699886e-08 0.0000000e+00 
0.0000000e+00 -9.3099544e-08 0.0000000e+00 
0.0000000e+00 -3.8606623e-07 0.0000000e+00 
0.0000000e+00 -5.8168521e-08 0.0000000e+00 
0.0000000e+00 1.4512583e-06 0.0000000e+00 
0.0000000e+00 1.9240354e-06 0.0000000e+00 
0.0000000e+00 -2.7416183e-06 0.0000000e+00 
0.0000000e+00 -9.5482219e-06 0.0000000e+00 
0.0000000e+00 -3.5331554e-06 0.0000000e+00 
0.0000000e+00 2.2073848e-05 0.0000000e+00 
0.0000000e+00 3.7394897e-05 0.0000000e+00 
0.0000000e+00 -3.0081874e-06 0.0000000e+00 
0.0000000e+00 -8.6844957e-05 0.0000000e+00 
-3.1340696e-06 -1.7501954e-05 -1.8228700e-07 
3.3366504e-07 1.7601352e-04 3.4232696e-06 
1.4953483e-05 2.9411115e-04 -5.7039279e-06 
3.7527214e-05 2.3678837e-04 -1.5319158e-05 
7.3511819e-06 4.9885835e-05 3.9407532e-06 
2.1917115e-06 -1.9568217e-04 -2.1280044e-05 
-1.1247974e-05 -5.6789012e-04 9.9671903e-05 
-1.7426994e-05 -1.2261375e-03 -4.8096332e-05 
3.0785348e-05 -2.2783326e-03 1.3493476e-04 
-1.9695518e-04 -3.5170428e-03 -1.0575886e-04 
-9.7683427e-05 -4.3602432e-03 -7.1620889e-05 
-4.5616420e-05 -4.0758722e-03 2.4746367e-05 
2.0943617e-05 -3.4618108e-03 5.3976710e-06 
-1.4027591e-04 -3.2373376e-03 -6.8635723e-05 
-5.6091107e-05 -3.5479013e-03 3.4269062e-05 
-1.6935803e-04 -3.7246353e-03 -2.6262765e-05 
-9.5022704e-05 -3.0298673e-03 -1.9209193e-04 
-2.5053596e-05 -1.8586682e-03 6.1984603e-05 
-1.1204174e-05 -7.7840779e-04 -7.0315378e-05 
-1.9174647e-06 -7.9793117e-06 3.5346936e-06 
7.5473854e-06 3.7774374e-04 1.3223747e-05 
9.7999446e-06 4.1104021e-04 -8.6950504e-06 
2.3065966e-06 2.0352348e-04 1.1155451e-05 
-3.5077146e-06 -4.2831995e-05 9.8467456e-07 
-3.5967960e-06 -1.3469807e-04 -2.2593933e-06 
5.0342624e-07 -7.5689575e-05 -1.1190155e-06 
1.2494768e-06 1.1715450e-05 6.4455213e-07 
3.4282155e-07 3.2917360e-05 -3.4317637e-07 
-7.5922955e-08 8.5855954e-06 1.3982896e-07 
-1.3132276e-07 -8.4851918e-06 2.3994762e-08 
2.4170257e-09 -5.0937847e-06 -6.4790548e-08 
3.4209489e-08 2.0163529e-06 7.7596249e-09 
3.2099766e-08 1.6670265e-06 -1.4902220e-08 
-3.3461784e-08 -4.4054741e-06 5.0150064e-08 
-1.0035730e-07 -6.1962069e-06 -5.1427172e-08 
-2.4659965e-08 6.5369054e-06 6.0244318e-08 
1.2016073e-07 2.4995094e-05 -3.8003492e-07 
4.9191260e-07 1.0419392e-05 2.9365589e-07 
-5.6144156e-08 -5.1705032e-05 9.0614049e-07 
-1.9919216e-06 -9.2570554e-05 -2.0360701e-06 
-5.2998780e-07 -2.2775337e-05 1.6409524e-06 
2.5429163e-06 1.4545242e-04 2.8385325e-06 
8.8541555e-07 2.8302980e-04 -1.4310041e-05 
5.1811708e-06 2.4791944e-04 1.0171321e-05 
-2.0380580e-06 2.1835718e-05 4.1037488e-06 
-1.3071219e-05 -3.1811808e-04 -2.5791318e-05 
2.3300026e-05 -7.6063373e-04 9.7561366e-05 
-3.8820017e-06 -1.3898647e-03 -5.3489370e-05 
7.3357487e-06 -2.3088353e-03 1.7433046e-04 
5.4152049e-05 -3.4270086e-03 -2.7939248e-05 
-3.3352604e-05 -4.2583416e-03 -5.2243940e-05 
-1.3515317e-04 -4.0148194e-03 -1.1691720e-05 
-5.1306044e-05 -3.4746998e-03 -3.8758357e-05 
-1.4727481e-04 -3.2512539e-03 -7.5521421e-05 
-7.0551025e-05 -3.5242536e-03 1.1878945e-05 
-1.5774596e-04 -3.6447607e-03 3.0011388e-06 
-8.9584079e-05 -2.8470759e-03 -1.9115326e-04 
-3.6262907e-05 -1.6263714e-03 5.7210058e-05 
-2.0224445e-05 -5.7126029e-04 -8.2007864e-05 
1.2008021e-05 1.3111444e-04 6.6440502e-06 
1.6472270e-05 4.1756898e-04 2.4869765e-05 
8.1134258e-06 3.7465646e-04 -8.0512355e-06 
1.0788092e-06 1.5011412e-04 8.5372703e-06 
-3.7310310e-06 -6.6973233e-05 1.1698088e-06 
-2.3249788e-06 -1.1966050e-04 -4.8020211e-06 
1.9882837e-07 -4.4454067e-05 2.7067949e-07 
7.4210192e-07 2.3403214e-05 7.4815824e-07 
3.2901301e-07 2.7697464e-05 -1.6943338e-07 
-9.6010886e-08 3.2377498e-06 8.8030177e-08 
-9.1387122e-08 -8.2086917e-06 2.6035181e-08 
9.2117949e-09 -3.6529145e-06 -4.9397052e-08 
2.3319043e-08 1.3466735e-06 -4.0101211e-09 
2.0330195e-09 1.2861485e-06 1.2085882e-08 
2.5335911e-10 -7.6085840e-08 -3.2119604e-10 
-2.5697544e-09 -2.9481035e-07 -3.5810435e-09 
-7.7704787e-10 -2.9185724e-08 1.8819228e-10 
4.9505650e-10 5.5276082e-08 2.6564728e-10 
7.2645908e-12 1.2923299e-08 -2.7361304e-11 
-9.5776380e-11 -8.5306633e-09 -1.6746961e-11 
1.1695115e-11 -3.3205918e-09 1.2665942e-11 
1.0310695e-11 1.0321553e-09 -1.3043887e-12 
4.6218042e-12 6.3969968e-10 -1.8006843e-12 
-9.6676042e-13 -9.1460388e-11 8.0811291e-13 
-5.8565788e-13 -1.0452162e-10 1.2066459e-13 
8.7159568e-14 2.7565099e-12 -1.8648061e-13 
5.8496089e-14 1.4856802e-11 -2.7405768e-14 
-7.2480287e-15 1.0001556e-12 3.0643904e-14 
-8.1671976e-15 -1.9106494e-12 2.8941312e-15 
-3.6728934e-16 -3.1170739e-13 -5.0034486e-15 
1.8972821e-16 2.0982742e-13 -4.8446351e-17 
1.3401193e-16 5.5898279e-14 1.1471556e-15 
-4.2851407e-17 -1.4195828e-14 8.5508744e-17 
9.7260942e-17 1.1344037e-15 3.2529975e-16 
4.8761103e-16 7.3343719e-15 4.8476548e-16 
2.0571590e-16 3.1234647e-16 1.2910526e-16 
-1.5674121e-16 -5.7844740e-15 2.7745660e-16 
2.4425066e-16 -6.4220234e-15 1.5473170e-16 
4.3186838e-16 -3.5327652e-15 3.1788427e-16 
5.7816748e-16 7.8912586e-16 -1.5870357e-16 
0.0000000e+00 2.9239200e-15 0.0000000e+00 
0.0000000e+00 2.0861238e-15 0.0000000e+00 
0.0000000e+00 7.0102008e-16 0.0000000e+00 
0.0000000e+00 -3.3025325e-16 0.0000000e+00 
0.0000000e+00 -1.0534350e-15 0.0000000e+00 
0.0000000e+00 1.1378524e-18 0.0000000e+00 
0.0000000e+00 3.5743242e-16 0.0000000e+00 
0.0000000e+00 -3.0256579e-17 0.0000000e+00 
0.0000000e+00 -1.1184906e-15 0.0000000e+00 
0.0000000e+00 -1.8562002e-16 0.0000000e+00 
0.0000000e+00 1.3821005e-15 0.0000000e+00 
0.0000000e+00 4.8095198e-16 0.0000000e+00 
0.0000000e+00 -6.0047007e-16 0.0000000e+00 
0.0000000e+00 -1.2846610e-15 0.0000000e+00 
0.0000000e+00 1.2174660e-16 0.0000000e+00 
0.0000000e+00 7.6718908e-16 0.0000000e+00 
0.0000000e+00 9.8732098e-16 0.0000000e+00 
0.0000000e+00 4.8603717e-17 0.0000000e+00 
0.0000000e+00 -1.2887624e-15 0.0000000e+00 
0.0000000e+00 -1.0043874e-15 0.0000000e+00 
0.0000000e+00 6.2597937e-16 0.0000000e+00 
0.0000000e+00 1.3270045e-15 0.0000000e+00 
0.0000000e+00 6.0194169e-16 0.0000000e+00 
0.0000000e+00 -9.2529202e-16 0.0000000e+00 
0.0000000e+00 -1.2685583e-15 0.0000000e+00 
0.0000000e+00 -2.8840684e-17 0.0000000e+00 
0.0000000e+00 1.1775440e-15 0.0000000e+00 
0.0000000e+00 4.4153562e-16 0.0000000e+00 
0.0000000e+00 -6.5519534e-17 0.0000000e+00 
0.0000000e+00 -8.6376878e-16 0.0000000e+00 
0.0000000e+00 -1.2626396e-16 0.0000000e+00 
0.0000000e+00 -4.2001770e-17 0.0000000e+00 
0.0000000e+00 8.4644902e-16 0.0000000e+00 
0.0000000e+00 -2.9505483e-17 0.0000000e+00 
0.0000000e+00 -4.0239759e-16 0.0000000e+00 
0.0000000e+00 -4.7374479e-16 0.0000000e+00 
0.0000000e+00 3.8778328e-16 0.0000000e+00 
0.0000000e+00 2.6471217e-16 0.0000000e+00 
0.0000000e+00 -2.2142303e-16 0.0000000e+00 
0.0000000e+00 3.0647367e-16 0.0000000e+00 
0.0000000e+00 -3.1768302e-17 0.0000000e+00 
0.0000000e+00 -1.2816769e-16 0.0000000e+00 
0.0000000e+00 -3.9996255e-16 0.0000000e+00 
0.0000000e+00 -8.1501134e-16 0.0000000e+00 
0.0000000e+00 -1.4238155e-15 0.0000000e+00 
0.0000000e+00 -4.6316328e-16 0.0000000e+00 
0.0000000e+00 1.8068437e-15 0.0000000e+00 
0.0000000e+00 3.5816161e-15 0.0000000e+00 
0.0000000e+00 3.6300876e-15 0.0000000e+00 
0.0000000e+00 2.6360229e-15 0.0000000e+00 
0.0000000e+00 -1.1034291e-16 0.0000000e+00 
0.0000000e+00 -4.3876074e-15 0.0000000e+00 
0.0000000e+00 -8.8109434e-15 0.0000000e+00 
0.0000000e+00 -1.0722565e-14 0.0000000e+00 
0.0000000e+00 -7.9648727e-15 0.0000000e+00 
0.0000000e+00 -2.0507496e-15 0.0000000e+00 
0.0000000e+00 3.5713111e-15 0.0000000e+00 
0.0000000e+00 7.5625228e-15 0.0000000e+00 
0.0000000e+00 4.7416549e-15 0.0000000e+00 
0.0000000e+00 -1.0005754e-14 0.0000000e+00 
0.0000000e+00 1.0352425e-14 0.0000000e+00 
0.0000000e+00 1.6176561e-13 0.0000000e+00 
0.0000000e+00 2.1131886e-13 0.0000000e+00 
0.0000000e+00 -7.9236232e-13 0.0000000e+00 
0.0000000e+00 -2.2933040e-12 0.0000000e+00 
0.0000000e+00 2.7561618e-12 0.0000000e+00 
0.0000000e+00 1.8239877e-11 0.0000000e+00 
0.0000000e+00 2.7363780e-12 0.0000000e+00 
0.0000000e+00 -1.1189547e-10 0.0000000e+00 
0.0000000e+00 -1.4322686e-10 0.0000000e+00 
0.0000000e+00 5.0395466e-10 0.0000000e+00 
0.0000000e+00 1.3932929e-09 0.0000000e+00 
0.0000000e+00 -1.2409092e-09 0.0000000e+00 
0.0000000e+00 -8.8924397e-09 0.0000000e+00 
0.0000000e+00 -3.5840353e-09 0.0000000e+00 
0.0000000e+00 4.0208349e-08 0.0000000e+00 
0.0000000e+00 6.2556481e-08 0.0000000e+00 
0.0000000e+00 -1.1200385e-07 0.0000000e+00 
0.0000000e+00 -3.9904785e-07 0.0000000e+00 
0.0000000e+00 1.0482123e-09 0.0000000e+00 
0.0000000e+00 1.5512038e-06 0.0000000e+00 
0.0000000e+00 1.8212230e-06 0.0000000e+00 
0.0000000e+00 -3.1370348e-06 0.0000000e+00 
0.0000000e+00 -9.6207305e-06 0.0000000e+00 
0.0000000e+00 -2.5989391e-06 0.0000000e+00 
0.0000000e+00 2.3093329e-05 0.0000000e+00 
0.0000000e+00 3.6423207e-05 0.0000000e+00 
0.0000000e+00 -5.7976276e-06 0.0000000e+00 
0.0000000e+00 -8.8081651e-05 0.0000000e+00 
0.0000000e+00 -1.1692265e-04 0.0000000e+00 
0.0000000e+00 -1.2154253e-05 0.0000000e+00 
0.0000000e+00 1.7608424e-04 0.0000000e+00 
0.0000000e+00 2.8975535e-04 0.0000000e+00 
0.0000000e+00 2.3420049e-04 0.0000000e+00 
0.0000000e+00 5.3043033e-05 0.0000000e+00 
0.0000000e+00 -1.9198628e-04 0.0000000e+00 
0.0000000e+00 -5.6782871e-04 0.0000000e+00 
0.0000000e+00 -1.2364936e-03 0.0000000e+00 
0.0000000e+00 -2.2928158e-03 0.0000000e+00 
0.0000000e+00 -3.5437429e-03 0.0000000e+00 
0.0000000e+00 -4.3793535e-03 0.0000000e+00 
0.0000000e+00 -4.1042361e-03 0.0000000e+00 
0.0000000e+00 -3.4835890e-03 0.0000000e+00 
0.0000000e+00 -3.2677518e-03 0.0000000e+00 
0.0000000e+00 -3.5696318e-03 0.0000000e+00 
0.0000000e+00 -3.7583767e-03 0.0000000e+00 
0.0000000e+00 -3.0474863e-03 0.0000000e+00 
0.0000000e+00 -1.8719980e-03 0.0000000e+00 
0.0000000e+00 -7.8383542e-04 0.0000000e+00 
0.0000000e+00 -1.3403780e-05 0.0000000e+00 
0.0000000e+00 3.7483862e-04 0.0000000e+00 
0.0000000e+00 4.0993909e-04 0.0000000e+00 
0.0000000e+00 2.0584271e-04 0.0000000e+00 
0.0000000e+00 -3.5453424e-05 0.0000000e+00 
0.0000000e+00 -1.3236121e-04 0.0000000e+00 
0.0000000e+00 -7.8194629e-05 0.0000000e+00 
0.0000000e+00 8.1184344e-06 0.0000000e+00 
0.0000000e+00 3.3044402e-05 0.0000000e+00 
0.0000000e+00 1.0140634e-05 0.0000000e+00 
0.0000000e+00 -7.9878655e-06 0.0000000e+00 
0.0000000e+00 -5.4835027e-06 0.0000000e+00 
0.0000000e+00 1.7767675e-06 0.0000000e+00 
0.0000000e+00 1.5427594e-06 0.0000000e+00 
0.0000000e+00 -4.5776460e-06 0.0000000e+00 
0.0000000e+00 -5.8790438e-06 0.0000000e+00 
0.0000000e+00 7.7319337e-06 0.0000000e+00 
0.0000000e+00 2.4948597e-05 0.0000000e+00 
0.0000000e+00 7.8474750e-06 0.0000000e+00 
0.0000000e+00 -5.3570959e-05 0.0000000e+00 
0.0000000e+00 -9.0552239e-05 0.0000000e+00 
0.0000000e+00 -1.8226154e-05 0.0000000e+00 
0.0000000e+00 1.4829359e-04 0.0000000e+00 
0.0000000e+00 2.7985187e-04 0.0000000e+00 
0.0000000e+00 2.4326192e-04 0.0000000e+00 
0.0000000e+00 2.2367238e-05 0.0000000e+00 
0.0000000e+00 -3.1517641e-04 0.0000000e+00 
0.0000000e+00 -7.5922400e-04 0.0000000e+00 
0.0000000e+00 -1.3960514e-03 0.0000000e+00 
0.0000000e+00 -2.3226570e-03 0.0000000e+00 
0.0000000e+00 -3.4593518e-03 0.0000000e+00 
0.0000000e+00 -4.2820303e-03 0.0000000e+00 
0.0000000e+00 -4.0436424e-03 0.0000000e+00 
0.0000000e+00 -3.4903525e-03 0.0000000e+00 
0.0000000e+00 -3.2810883e-03 0.0000000e+00 
0.0000000e+00 -3.5475132e-03 0.0000000e+00 
0.0000000e+00 -3.6786385e-03 0.0000000e+00 
0.0000000e+00 -2.8637168e-03 0.0000000e+00 
0.0000000e+00 -1.6409009e-03 0.0000000e+00 
0.0000000e+00 -5.7533523e-04 0.0000000e+00 
0.0000000e+00 1.2487225e-04 0.0000000e+00 
0.0000000e+00 4.1566379e-04 0.0000000e+00 
0.0000000e+00 3.7533152e-04 0.0000000e+00 
0.0000000e+00 1.5273136e-04 0.0000000e+00 
0.0000000e+00 -6.0265189e-05 0.0000000e+00 
0.0000000e+00 -1.1781810e-04 0.0000000e+00 
0.0000000e+00 -4.8507118e-05 0.0000000e+00 
0.0000000e+00 2.0834308e-05 0.0000000e+00 
0.0000000e+00 2.8504846e-05 0.0000000e+00 
0.0000000e+00 4.5725951e-06 0.0000000e+00 
0.0000000e+00 -8.0300069e-06 0.0000000e+00 
0.0000000e+00 -4.0970331e-06 0.0000000e+00 
0.0000000e+00 1.1686052e-06 0.0000000e+00 
0.0000000e+00 1.3875531e-06 0.0000000e+00 
0.0000000e+00 -1.7160869e-09 0.0000000e+00 
0.0000000e+00 -3.1322213e-07 0.0000000e+00 
0.0000000e+00 -4.8332076e-08 0.0000000e+00 
0.0000000e+00 5.7071624e-08 0.0000000e+00 
0.0000000e+00 1.7147888e-08 0.0000000e+00 
0.0000000e+00 -8.4891489e-09 0.0000000e+00 
0.0000000e+00 -4.1178221e-09 0.0000000e+00 
0.0000000e+00 9.5583452e-10 0.0000000e+00 
0.0000000e+00 7.7157392e-10 0.0000000e+00 
0.0000000e+00 -6.8993949e-11 0.0000000e+00 
0.0000000e+00 -1.2335931e-10 0.0000000e+00 
0.0000000e+00 -2.0208004e-12 0.0000000e+00 
0.0000000e+00 1.7230266e-11 0.0000000e+00 
0.0000000e+00 1.8409026e-12 0.0000000e+00 
0.0000000e+00 -2.1686329e-12 0.0000000e+00 
0.0000000e+00 -4.4311955e-13 0.0000000e+00 
0.0000000e+00 2.3355203e-13 0.0000000e+00 
0.0000000e+00 7.4180211e-14 0.0000000e+00 
0.0000000e+00 -1.5863552e-14 0.0000000e+00 
0.0000000e+00 -6.2524161e-16 0.0000000e+00 
0.0000000e+00 7.7061694e-15 0.0000000e+00 
0.0000000e+00 5.3743658e-16 0.0000000e+00 
0.0000000e+00 -5.9322774e-15 0.0000000e+00 
0.0000000e+00 -6.7174003e-15 0.0000000e+00 
0.0000000e+00 -3.4267569e-15 0.0000000e+00 
0.0000000e+00 5.6041621e-16 0.0000000e+00 
0.0000000e+00 2.9898988e-15 0.0000000e+00 
0.0000000e+00 3.1416996e-15 0.0000000e+00 
0.0000000e+00 2.0148845e-15 0.0000000e+00 
0.0000000e+00 7.7593909e-16 0.0000000e+00 
0.0000000e+00 -4.5787298e-16 0.0000000e+00 
0.0000000e+00 -7.6581408e-16 0.0000000e+00 
0.0000000e+00 -1.7346449e-16 0.0000000e+00 
0.0000000e+00 3.9362749e-16 0.0000000e+00 
0.0000000e+00 -3.5400665e-16 0.0000000e+00 
0.0000000e+00 -7.9104751e-16 0.0000000e+00 
0.0000000e+00 7.3705333e-17 0.0000000e+00 
0.0000000e+00 9.1650701e-16 0.0000000e+00 
0.0000000e+00 5.6222675e-16 0.0000000e+00 
0.0000000e+00 -6.9187356e-16 0.0000000e+00 
0.0000000e+00 -8.7632208e-16 0.0000000e+00 
0.0000000e+00 -1.2836157e-16 0.0000000e+00 
0.0000000e+00 8.0070395e-16 0.0000000e+00 
0.0000000e+00 8.6416514e-16 0.0000000e+00 
0.0000000e+00 1.3772495e-18 0.0000000e+00 
0.0000000e+00 -1.0183046e-15 0.0000000e+00 
0.0000000e+00 -9.6516842e-16 0.0000000e+00 
0.0000000e+00 3.3690823e-16 0.0000000e+00 
0.0000000e+00 1.3775212e-15 0.0000000e+00 
0.0000000e+00 6.5469384e-16 0.0000000e+00 
0.0000000e+00 -8.4725339e-16 0.0000000e+00 
0.0000000e+00 -1.2590710e-15 0.0000000e+00 
0.0000000e+00 -1.0502624e-16 0.0000000e+00 
0.0000000e+00 9.6941883e-16 0.0000000e+00 
0.0000000e+00 8.8950096e-16 0.0000000e+00 
0.0000000e+00 -3.5320347e-16 0.0000000e+00 
0.0000000e+00 -7.8843955e-16 0.0000000e+00 
0.0000000e+00 -3.8822913e-16 0.0000000e+00 
0.0000000e+00 5.3233220e-16 0.0000000e+00 
0.0000000e+00 4.3126619e-16 0.0000000e+00 
0.0000000e+00 -3.2602146e-17 0.0000000e+00 
0.0000000e+00 -4.3311182e-16 0.0000000e+00 
0.0000000e+00 -1.1387295e-16 0.0000000e+00 
0.0000000e+00 1.3198420e-16 0.0000000e+00 
0.0000000e+00 9.8471643e-17 0.0000000e+00 
0.0000000e+00 -5.1430732e-17 0.0000000e+00 
0.0000000e+00 0.0000000e+00 0.0000000e+00 
0.0000000e+00 0.0000000e+00 0.0000000e+00 
0.0000000e+00 0.0000000e+00 0.0000000e+00 
0.0000000e+00 0.0000000e+00 0.0000000e+00 
0.0000000e+00 0.0000000e+00 0.0000000e+00 
0.0000000e+00 0.0000000e+00 0.0000000e+00 
0.0000000e+00 0.0000000e+00 0.0000000e+00 
0.0000000e+00 0.0000000e+00 0.0000000e+00 
0.0000000e+00 0.0000000e+00 0.0000000e+00 
0.0000000e+00 0.0000000e+00 0.0000000e+00 
0.0000000e+00 0.0000000e+00 0.0000000e+00 
0.0000000e+00 0.0000000e+00 0.0000000e+00 
0.0000000e+00 0.0000000e+00 0.0000000e+00 
0.0000000e+00 0.0000000e+00 0.0000000e+00 
0.0000000e+00 0.0000000e+00 0.0000000e+00 
0.0000000e+00 0.0000000e+00 0.0000000e+00 
0.0000000e+00 0.0000000e+00 0.0000000e+00 
0.0000000e+00 0.0000000e+00 0.0000000e+00 
0.0000000e+00 0.0000000e+00 0.0000000e+00 
0.0000000e+00 0.0000000e+00 0.0000000e+00 
0.0000000e+00 0.0000000e+00 0.0000000e+00 
0.0000000e+00 0.0000000e+00 0.0000000e+00 
0.0000000e+00 0.0000000e+00 0.0000000e+00 
0.0000000e+00 0.0000000e+00 0.0000000e+00 
0.0000000e+00 0.0000000e+00 0.0000000e+00 
0.0000000e+00 0.0000000e+00 0.0000000e+00 
0.0000000e+00 0.0000000e+00 0.0000000e+00 
0.0000000e+00 0.0000000e+00 0.0000000e+00 
0.0000000e+00 0.0000000e+00 0.0000000e+00 
0.0000000e+00 0.0000000e+00 0.0000000e+00 
0.0000000e+00 0.0000000e+00 0.0000000e+00 
0.0000000e+00 0.0000000e+00 0.0000000e+00 
0.0000000e+00 0.0000000e+00 0.0000000e+00 
0.0000000e+00 0.0000000e+00 0.0000000e+00 
0.0000000e+00 0.0000000e+00 0.0000000e+00 
0.0000000e+00 0.0000000e+00 0.0000000e+00 
0.0000000e+00 0.0000000e+00 0.0000000e+00 
0.0000000e+00 0.0000000e+00 0.0000000e+00 
0.0000000e+00 0.0000000e+00 0.0000000e+00 
0.0000000e+00 0.0000000e+00 0.0000000e+00 
0.0000000e+00 0.0000000e+00 0.0000000e+00 
0.0000000e+00 0.0000000e+00 0.0000000e+00 
0.0000000e+00 0.0000000e+00 0.0000000e+00 
0.0000000e+00 0.0000000e+00 0.0000000e+00 
0.0000000e+00 0.0000000e+00 0.0000000e+00 
0.0000000e+00 0.0000000e+00 0.0000000e+00 
0.0000000e+00 0.0000000e+00 0.0000000e+00 
0.0000000e+00 0.0000000e+00 0.0000000e+00 
0.0000000e+00 0.0000000e+00 0.0000000e+00 
0.0000000e+00 0.0000000e+00 0.0000000e+00 
0.0000000e+00 0.0000000e+00 0.0000000e+00 
0.0000000e+00 0.0000000e+00 0.0000000e+00 
0.0000000e+00 0.0000000e+00 0.0000000e+00 
0.0000000e+00 0.0000000e+00 0.0000000e+00 
0.0000000e+00 0.0000000e+00 0.0000000e+00 
0.0000000e+00 0.0000000e+00 0.0000000e+00 
0.0000000e+00 0.0000000e+00 0.0000000e+00 
0.0000000e+00 0.0000000e+00 0.0000000e+00 