# vtk DataFile Version 4.0
vtk output
ASCII
DATASET UNSTRUCTURED_GRID
POINTS 2186 float
0.0000000e+00 0.0000000e+00 0.0000000e+00 
0.0000000e+00 0.0000000e+00 5.0000000e+01 
5.0000000e+00 0.0000000e+00 0.0000000e+00 
5.0000000e+00 0.0000000e+00 5.0000000e+01 
5.0000000e+00 1.0000000e+00 0.0000000e+00 
5.0000000e+00 1.0000000e+00 5.0000000e+01 
0.0000000e+00 1.0000000e+00 0.0000000e+00 
0.0000000e+00 1.0000000e+00 5.0000000e+01 
5.0000000e+00 2.0000000e+00 0.0000000e+00 
5.0000000e+00 2.0000000e+00 5.0000000e+01 
3.0000000e+00 2.0000000e+00 0.0000000e+00 
3.0000000e+00 2.0000000e+00 5.0000000e+01 
0.0000000e+00 2.0000000e+00 0.0000000e+00 
0.0000000e+00 2.0000000e+00 5.0000000e+01 
1.5000000e+00 3.0000000e+00 0.0000000e+00 
1.5000000e+00 3.0000000e+00 5.0000000e+01 
7.5000000e-01 3.0000000e+00 0.0000000e+00 
7.5000000e-01 3.0000000e+00 5.0000000e+01 
0.0000000e+00 3.0000000e+00 0.0000000e+00 
0.0000000e+00 3.0000000e+00 5.0000000e+01 
7.5000000e-01 3.0000000e+00 -2.5000000e+01 
7.5000000e-01 3.0000000e+00 -2.4500000e+01 
7.5000000e-01 3.0000000e+00 -2.4000000e+01 
7.5000000e-01 3.0000000e+00 -2.3500000e+01 
7.5000000e-01 3.0000000e+00 -2.3000000e+01 
7.5000000e-01 3.0000000e+00 -2.2500000e+01 
7.5000000e-01 3.0000000e+00 -2.2000000e+01 
7.5000000e-01 3.0000000e+00 -2.1500000e+01 
7.5000000e-01 3.0000000e+00 -2.1000000e+01 
7.5000000e-01 3.0000000e+00 -2.0500000e+01 
7.5000000e-01 3.0000000e+00 -2.0000000e+01 
7.5000000e-01 3.0000000e+00 -1.9500000e+01 
7.5000000e-01 3.0000000e+00 -1.9000000e+01 
7.5000000e-01 3.0000000e+00 -1.8500000e+01 
7.5000000e-01 3.0000000e+00 -1.8000000e+01 
7.5000000e-01 3.0000000e+00 -1.7500000e+01 
7.5000000e-01 3.0000000e+00 -1.7000000e+01 
7.5000000e-01 3.0000000e+00 -1.6500000e+01 
7.5000000e-01 3.0000000e+00 -1.6000000e+01 
7.5000000e-01 3.0000000e+00 -1.5500000e+01 
7.5000000e-01 3.0000000e+00 -1.5000000e+01 
7.5000000e-01 3.0000000e+00 -1.4500000e+01 
7.5000000e-01 3.0000000e+00 -1.4000000e+01 
7.5000000e-01 3.0000000e+00 -1.3500000e+01 
7.5000000e-01 3.0000000e+00 -1.3000000e+01 
7.5000000e-01 3.0000000e+00 -1.2500000e+01 
7.5000000e-01 3.0000000e+00 -1.2000000e+01 
7.5000000e-01 3.0000000e+00 -1.1500000e+01 
7.5000000e-01 3.0000000e+00 -1.1000000e+01 
7.5000000e-01 3.0000000e+00 -1.0500000e+01 
7.5000000e-01 3.0000000e+00 -1.0000000e+01 
7.5000000e-01 3.0000000e+00 -9.5000000e+00 
7.5000000e-01 3.0000000e+00 -9.0000000e+00 
7.5000000e-01 3.0000000e+00 -8.5000000e+00 
7.5000000e-01 3.0000000e+00 -8.0000000e+00 
7.5000000e-01 3.0000000e+00 -7.5000000e+00 
7.5000000e-01 3.0000000e+00 -7.0000000e+00 
7.5000000e-01 3.0000000e+00 -6.5000000e+00 
7.5000000e-01 3.0000000e+00 -6.0000000e+00 
7.5000000e-01 3.0000000e+00 -5.5000000e+00 
7.5000000e-01 3.0000000e+00 -5.0000000e+00 
7.5000000e-01 3.0000000e+00 -4.5000000e+00 
7.5000000e-01 3.0000000e+00 -4.0000000e+00 
7.5000000e-01 3.0000000e+00 -3.5000000e+00 
7.5000000e-01 3.0000000e+00 -3.0000000e+00 
7.5000000e-01 3.0000000e+00 -2.5000000e+00 
7.5000000e-01 3.0000000e+00 -2.0000000e+00 
7.5000000e-01 3.0000000e+00 -1.5000000e+00 
7.5000000e-01 3.0000000e+00 -1.0000000e+00 
7.5000000e-01 3.0000000e+00 -5.0000000e-01 
7.5000000e-01 3.0000000e+00 5.0000000e-01 
7.5000000e-01 3.0000000e+00 1.0000000e+00 
7.5000000e-01 3.0000000e+00 1.5000000e+00 
7.5000000e-01 3.0000000e+00 2.0000000e+00 
7.5000000e-01 3.0000000e+00 2.5000000e+00 
7.5000000e-01 3.0000000e+00 3.0000000e+00 
7.5000000e-01 3.0000000e+00 3.5000000e+00 
7.5000000e-01 3.0000000e+00 4.0000000e+00 
7.5000000e-01 3.0000000e+00 4.5000000e+00 
7.5000000e-01 3.0000000e+00 5.0000000e+00 
7.5000000e-01 3.0000000e+00 5.5000000e+00 
7.5000000e-01 3.0000000e+00 6.0000000e+00 
7.5000000e-01 3.0000000e+00 6.5000000e+00 
7.5000000e-01 3.0000000e+00 7.0000000e+00 
7.5000000e-01 3.0000000e+00 7.5000000e+00 
7.5000000e-01 3.0000000e+00 8.0000000e+00 
7.5000000e-01 3.0000000e+00 8.5000000e+00 
7.5000000e-01 3.0000000e+00 9.0000000e+00 
7.5000000e-01 3.0000000e+00 9.5000000e+00 
7.5000000e-01 3.0000000e+00 1.0000000e+01 
7.5000000e-01 3.0000000e+00 1.0500000e+01 
7.5000000e-01 3.0000000e+00 1.1000000e+01 
7.5000000e-01 3.0000000e+00 1.1500000e+01 
7.5000000e-01 3.0000000e+00 1.2000000e+01 
7.5000000e-01 3.0000000e+00 1.2500000e+01 
7.5000000e-01 3.0000000e+00 1.3000000e+01 
7.5000000e-01 3.0000000e+00 1.3500000e+01 
7.5000000e-01 3.0000000e+00 1.4000000e+01 
7.5000000e-01 3.0000000e+00 1.4500000e+01 
7.5000000e-01 3.0000000e+00 1.5000000e+01 
7.5000000e-01 3.0000000e+00 1.5500000e+01 
7.5000000e-01 3.0000000e+00 1.6000000e+01 
7.5000000e-01 3.0000000e+00 1.6500000e+01 
7.5000000e-01 3.0000000e+00 1.7000000e+01 
7.5000000e-01 3.0000000e+00 1.7500000e+01 
7.5000000e-01 3.0000000e+00 1.8000000e+01 
7.5000000e-01 3.0000000e+00 1.8500000e+01 
7.5000000e-01 3.0000000e+00 1.9000000e+01 
7.5000000e-01 3.0000000e+00 1.9500000e+01 
7.5000000e-01 3.0000000e+00 2.0000000e+01 
7.5000000e-01 3.0000000e+00 2.0500000e+01 
7.5000000e-01 3.0000000e+00 2.1000000e+01 
7.5000000e-01 3.0000000e+00 2.1500000e+01 
7.5000000e-01 3.0000000e+00 2.2000000e+01 
7.5000000e-01 3.0000000e+00 2.2500000e+01 
7.5000000e-01 3.0000000e+00 2.3000000e+01 
7.5000000e-01 3.0000000e+00 2.3500000e+01 
7.5000000e-01 3.0000000e+00 2.4000000e+01 
7.5000000e-01 3.0000000e+00 2.4500000e+01 
7.5000000e-01 3.0000000e+00 2.5000000e+01 
7.5000000e-01 3.0000000e+00 2.5500000e+01 
7.5000000e-01 3.0000000e+00 2.6000000e+01 
7.5000000e-01 3.0000000e+00 2.6500000e+01 
7.5000000e-01 3.0000000e+00 2.7000000e+01 
7.5000000e-01 3.0000000e+00 2.7500000e+01 
7.5000000e-01 3.0000000e+00 2.8000000e+01 
7.5000000e-01 3.0000000e+00 2.8500000e+01 
7.5000000e-01 3.0000000e+00 2.9000000e+01 
7.5000000e-01 3.0000000e+00 2.9500000e+01 
7.5000000e-01 3.0000000e+00 3.0000000e+01 
7.5000000e-01 3.0000000e+00 3.0500000e+01 
7.5000000e-01 3.0000000e+00 3.1000000e+01 
7.5000000e-01 3.0000000e+00 3.1500000e+01 
7.5000000e-01 3.0000000e+00 3.2000000e+01 
7.5000000e-01 3.0000000e+00 3.2500000e+01 
7.5000000e-01 3.0000000e+00 3.3000000e+01 
7.5000000e-01 3.0000000e+00 3.3500000e+01 
7.5000000e-01 3.0000000e+00 3.4000000e+01 
7.5000000e-01 3.0000000e+00 3.4500000e+01 
7.5000000e-01 3.0000000e+00 3.5000000e+01 
7.5000000e-01 3.0000000e+00 3.5500000e+01 
7.5000000e-01 3.0000000e+00 3.6000000e+01 
7.5000000e-01 3.0000000e+00 3.6500000e+01 
7.5000000e-01 3.0000000e+00 3.7000000e+01 
7.5000000e-01 3.0000000e+00 3.7500000e+01 
7.5000000e-01 3.0000000e+00 3.8000000e+01 
7.5000000e-01 3.0000000e+00 3.8500000e+01 
7.5000000e-01 3.0000000e+00 3.9000000e+01 
7.5000000e-01 3.0000000e+00 3.9500000e+01 
7.5000000e-01 3.0000000e+00 4.0000000e+01 
7.5000000e-01 3.0000000e+00 4.0500000e+01 
7.5000000e-01 3.0000000e+00 4.1000000e+01 
7.5000000e-01 3.0000000e+00 4.1500000e+01 
7.5000000e-01 3.0000000e+00 4.2000000e+01 
7.5000000e-01 3.0000000e+00 4.2500000e+01 
7.5000000e-01 3.0000000e+00 4.3000000e+01 
7.5000000e-01 3.0000000e+00 4.3500000e+01 
7.5000000e-01 3.0000000e+00 4.4000000e+01 
7.5000000e-01 3.0000000e+00 4.4500000e+01 
7.5000000e-01 3.0000000e+00 4.5000000e+01 
7.5000000e-01 3.0000000e+00 4.5500000e+01 
7.5000000e-01 3.0000000e+00 4.6000000e+01 
7.5000000e-01 3.0000000e+00 4.6500000e+01 
7.5000000e-01 3.0000000e+00 4.7000000e+01 
7.5000000e-01 3.0000000e+00 4.7500000e+01 
7.5000000e-01 3.0000000e+00 4.8000000e+01 
7.5000000e-01 3.0000000e+00 4.8500000e+01 
7.5000000e-01 3.0000000e+00 4.9000000e+01 
7.5000000e-01 3.0000000e+00 4.9500000e+01 
7.5000000e-01 3.0000000e+00 5.0500000e+01 
7.5000000e-01 3.0000000e+00 5.1000000e+01 
7.5000000e-01 3.0000000e+00 5.1500000e+01 
7.5000000e-01 3.0000000e+00 5.2000000e+01 
7.5000000e-01 3.0000000e+00 5.2500000e+01 
7.5000000e-01 3.0000000e+00 5.3000000e+01 
7.5000000e-01 3.0000000e+00 5.3500000e+01 
7.5000000e-01 3.0000000e+00 5.4000000e+01 
7.5000000e-01 3.0000000e+00 5.4500000e+01 
7.5000000e-01 3.0000000e+00 5.5000000e+01 
7.5000000e-01 3.0000000e+00 5.5500000e+01 
7.5000000e-01 3.0000000e+00 5.6000000e+01 
7.5000000e-01 3.0000000e+00 5.6500000e+01 
7.5000000e-01 3.0000000e+00 5.7000000e+01 
7.5000000e-01 3.0000000e+00 5.7500000e+01 
7.5000000e-01 3.0000000e+00 5.8000000e+01 
7.5000000e-01 3.0000000e+00 5.8500000e+01 
7.5000000e-01 3.0000000e+00 5.9000000e+01 
7.5000000e-01 3.0000000e+00 5.9500000e+01 
7.5000000e-01 3.0000000e+00 6.0000000e+01 
7.5000000e-01 3.0000000e+00 6.0500000e+01 
7.5000000e-01 3.0000000e+00 6.1000000e+01 
7.5000000e-01 3.0000000e+00 6.1500000e+01 
7.5000000e-01 3.0000000e+00 6.2000000e+01 
7.5000000e-01 3.0000000e+00 6.2500000e+01 
7.5000000e-01 3.0000000e+00 6.3000000e+01 
7.5000000e-01 3.0000000e+00 6.3500000e+01 
7.5000000e-01 3.0000000e+00 6.4000000e+01 
7.5000000e-01 3.0000000e+00 6.4500000e+01 
7.5000000e-01 3.0000000e+00 6.5000000e+01 
7.5000000e-01 3.0000000e+00 6.5500000e+01 
7.5000000e-01 3.0000000e+00 6.6000000e+01 
7.5000000e-01 3.0000000e+00 6.6500000e+01 
7.5000000e-01 3.0000000e+00 6.7000000e+01 
7.5000000e-01 3.0000000e+00 6.7500000e+01 
7.5000000e-01 3.0000000e+00 6.8000000e+01 
7.5000000e-01 3.0000000e+00 6.8500000e+01 
7.5000000e-01 3.0000000e+00 6.9000000e+01 
7.5000000e-01 3.0000000e+00 6.9500000e+01 
7.5000000e-01 3.0250001e+00 -2.5000000e+01 
7.5000000e-01 3.0250001e+00 -2.4500000e+01 
7.5000000e-01 3.0250001e+00 -2.4000000e+01 
7.5000000e-01 3.0250001e+00 -2.3500000e+01 
7.5000000e-01 3.0250001e+00 -2.3000000e+01 
7.5000000e-01 3.0250001e+00 -2.2500000e+01 
7.5000000e-01 3.0250001e+00 -2.2000000e+01 
7.5000000e-01 3.0250001e+00 -2.1500000e+01 
7.5000000e-01 3.0250001e+00 -2.1000000e+01 
7.5000000e-01 3.0250001e+00 -2.0500000e+01 
7.5000000e-01 3.0250001e+00 -2.0000000e+01 
7.5000000e-01 3.0250001e+00 -1.9500000e+01 
7.5000000e-01 3.0250001e+00 -1.9000000e+01 
7.5000000e-01 3.0250001e+00 -1.8500000e+01 
7.5000000e-01 3.0250001e+00 -1.8000000e+01 
7.5000000e-01 3.0250001e+00 -1.7500000e+01 
7.5000000e-01 3.0250001e+00 -1.7000000e+01 
7.5000000e-01 3.0250001e+00 -1.6500000e+01 
7.5000000e-01 3.0250001e+00 -1.6000000e+01 
7.5000000e-01 3.0250001e+00 -1.5500000e+01 
[...]
POINT_DATA 2186
FIELD FieldData 3
DISPLACEMENT 3 2186  float
0.0000000e+00 0.0000000e+00 0.0000000e+00 
0.0000000e+00 0.0000000e+00 0.0000000e+00 
0.0000000e+00 0.0000000e+00 0.0000000e+00 
0.0000000e+00 0.0000000e+00 0.0000000e+00 
-1.1645500e-05 -1.1469837e-06 1.3970973e-05 
-2.0502446e-08 -1.0781239e-07 1.1989739e-08 
0.0000000e+00 1.1288186e-07 0.0000000e+00 
0.0000000e+00 -1.1494053e-07 0.0000000e+00 
-6.2811314e-06 -2.3392768e-06 9.8344181e-06 
1.1795782e-07 -2.8151456e-07 1.0081835e-07 
-6.4400973e-07 2.6716956e-05 2.2741758e-06 
-1.6428794e-08 4.6505267e-08 -2.2725466e-07 
0.0000000e+00 -1.9193791e-05 0.0000000e+00 
0.0000000e+00 6.6140728e-08 0.0000000e+00 
-6.8923473e-06 2.1315289e-05 -1.4446861e-05 
-1.3565952e-07 1.7646986e-06 -7.4666099e-07 
-5.7235870e-06 6.5216693e-05 -5.8919213e-06 
-4.2050907e-08 -1.6502815e-06 -1.4134383e-07 
0.0000000e+00 -8.7702821e-05 0.0000000e+00 
0.0000000e+00 1.3109855e-06 0.0000000e+00 
0.0000000e+00 -2.8703424e-05 0.0000000e+00 
0.0000000e+00 -1.3477869e-05 0.0000000e+00 
0.0000000e+00 1.6564632e-05 0.0000000e+00 
0.0000000e+00 3.4285928e-05 0.0000000e+00 
0.0000000e+00 2.4691477e-05 0.0000000e+00 
0.0000000e+00 -4.0799537e-06 0.0000000e+00 
0.0000000e+00 -2.8877746e-05 0.0000000e+00 
0.0000000e+00 -3.0974701e-05 0.0000000e+00 
0.0000000e+00 -1.0140999e-05 0.0000000e+00 
0.0000000e+00 1.7049948e-05 0.0000000e+00 
0.0000000e+00 3.1114439e-05 0.0000000e+00 
0.0000000e+00 2.3522631e-05 0.0000000e+00 
0.0000000e+00 9.0539169e-07 0.0000000e+00 
0.0000000e+00 -2.1136948e-05 0.0000000e+00 
0.0000000e+00 -2.8727451e-05 0.0000000e+00 
0.0000000e+00 -1.8068609e-05 0.0000000e+00 
0.0000000e+00 2.8458728e-06 0.0000000e+00 
0.0000000e+00 1.9947569e-05 0.0000000e+00 
0.0000000e+00 2.2885641e-05 0.0000000e+00 
0.0000000e+00 1.2134205e-05 0.0000000e+00 
0.0000000e+00 -2.3664927e-06 0.0000000e+00 
0.0000000e+00 -1.0175238e-05 0.0000000e+00 
0.0000000e+00 -9.0156263e-06 0.0000000e+00 
0.0000000e+00 -5.2242149e-06 0.0000000e+00 
0.0000000e+00 -5.8875803e-06 0.0000000e+00 
0.0000000e+00 -1.0637483e-05 0.0000000e+00 
0.0000000e+00 -1.1394695e-05 0.0000000e+00 
0.0000000e+00 -7.2330630e-07 0.0000000e+00 
0.0000000e+00 1.8936553e-05 0.0000000e+00 
0.0000000e+00 3.4403907e-05 0.0000000e+00 
0.0000000e+00 3.1438431e-05 0.0000000e+00 
0.0000000e+00 7.3193437e-06 0.0000000e+00 
0.0000000e+00 -2.4889880e-05 0.0000000e+00 
0.0000000e+00 -4.4895889e-05 0.0000000e+00 
0.0000000e+00 -3.9931860e-05 0.0000000e+00 
0.0000000e+00 -1.3951074e-05 0.0000000e+00 
0.0000000e+00 1.5539877e-05 0.0000000e+00 
0.0000000e+00 3.0179279e-05 0.0000000e+00 
0.0000000e+00 2.3682866e-05 0.0000000e+00 
0.0000000e+00 5.7465372e-06 0.0000000e+00 
0.0000000e+00 -6.3273137e-06 0.0000000e+00 
0.0000000e+00 -2.2431107e-06 0.0000000e+00 
0.0000000e+00 1.2579031e-05 0.0000000e+00 
0.0000000e+00 2.2179702e-05 0.0000000e+00 
0.0000000e+00 1.4561472e-05 0.0000000e+00 
0.0000000e+00 -7.5464973e-06 0.0000000e+00 
0.0000000e+00 -2.8344963e-05 0.0000000e+00 
0.0000000e+00 -3.0480960e-05 0.0000000e+00 
0.0000000e+00 -7.4534641e-06 0.0000000e+00 
0.0000000e+00 3.1087700e-05 0.0000000e+00 
-5.4527741e-06 7.8132209e-05 -1.3766690e-05 
-3.3924465e-05 7.6139353e-05 -3.9730698e-05 
-4.2897103e-05 8.4104970e-05 -8.1475438e-05 
-5.4064141e-05 1.1558436e-04 -1.0066827e-04 
-6.9254638e-05 1.5735095e-04 -1.4377446e-04 
-4.8576760e-05 1.8784216e-04 -1.6951232e-04 
-2.7026210e-05 1.9247271e-04 -1.3601664e-04 
-9.3722183e-06 1.7637566e-04 -1.1098866e-04 
-3.3141885e-05 1.6378278e-04 -1.2394563e-04 
-4.4756474e-05 1.7770714e-04 -5.7425161e-05 
-5.0004772e-05 1.6644018e-04 4.2427605e-08 
-2.0304766e-05 -2.7248866e-06 4.9153456e-05 
-8.3237406e-05 -4.5327353e-04 1.8809226e-04 
-1.3691482e-04 -1.2215404e-03 1.6591561e-04 
-1.9285444e-04 -2.2652599e-03 3.3773555e-04 
-2.9016088e-04 -3.4227436e-03 1.9861665e-04 
-3.3226496e-04 -4.4651814e-03 3.1953122e-04 
-3.0708127e-04 -4.8753461e-03 2.4443041e-04 
-3.4128909e-04 -4.5328382e-03 1.7985186e-04 
-3.3331409e-04 -4.1602165e-03 1.6309353e-04 
-3.4382599e-04 -4.2104777e-03 1.2561418e-04 
-3.9175549e-04 -4.4290870e-03 -8.1343816e-05 
-3.0585885e-04 -4.1760732e-03 -2.2970900e-04 
-2.1724775e-04 -3.0393025e-03 -1.7719645e-04 
-1.2642871e-04 -1.7685168e-03 -2.9380020e-04 
-9.9534933e-05 -7.9579838e-04 -2.4558947e-04 
-2.4237645e-05 -1.9756432e-04 -1.6979183e-04 
-9.7779493e-06 9.5514028e-05 -1.6954687e-04 
3.6719146e-05 1.9184283e-04 -1.4766984e-04 
3.9443748e-05 1.7195713e-04 -1.1639929e-04 
4.4553148e-05 1.0493035e-04 -3.4427278e-05 
3.4747081e-05 4.1292737e-05 3.3545116e-06 
6.0592215e-06 5.3004619e-06 6.9635440e-05 
1.1892955e-06 -4.8912666e-06 7.7449375e-05 
1.8690606e-06 -5.5484502e-06 8.7813620e-05 
-1.4260477e-05 -6.4300739e-06 5.3203727e-05 
-1.5534515e-05 -4.4782405e-06 2.4270017e-05 
-4.2183433e-06 -2.3586356e-06 -6.6602993e-06 
-5.2113792e-06 -7.2858091e-07 -1.2832093e-05 
-8.3883714e-07 1.0254776e-05 -1.3846271e-05 
-7.5496082e-06 3.2528318e-05 -9.4694951e-06 
-3.6608923e-05 5.5226701e-05 -2.0910817e-05 
-6.1085746e-05 7.0649170e-05 -7.7614022e-05 
-4.7087684e-05 8.5376480e-05 -1.0030378e-04 
-4.4681317e-05 1.1351172e-04 -1.3161654e-04 
-2.7328575e-05 1.6077796e-04 -1.5134308e-04 
-1.1349086e-05 2.0770052e-04 -1.2818491e-04 
-1.7694110e-05 2.1596884e-04 -1.1278049e-04 
-2.2533559e-05 1.7853650e-04 -1.0555721e-04 
-3.2944772e-05 1.2817033e-04 -3.2834010e-05 
-3.1986961e-05 6.9625996e-05 4.9776812e-05 
-3.9298866e-05 -8.6769855e-05 7.2559444e-05 
-4.0090483e-05 -4.9710751e-04 2.1877383e-04 
-1.2097209e-04 -1.2933247e-03 1.9832664e-04 
-1.8238199e-04 -2.4671596e-03 3.4488589e-04 
-2.9323660e-04 -3.7510609e-03 2.0291973e-04 
-3.7356457e-04 -4.7208183e-03 3.2009138e-04 
-3.9392788e-04 -4.8071966e-03 2.4648235e-04 
-3.9098097e-04 -4.3855179e-03 1.2458165e-04 
-3.5089470e-04 -4.1498351e-03 1.3491276e-04 
-3.3059323e-04 -4.3596961e-03 1.0009286e-04 
-3.7688971e-04 -4.5204419e-03 -6.9052177e-05 
-3.0277783e-04 -3.9764205e-03 -2.4963194e-04 
-2.0605828e-04 -2.7474738e-03 -1.9406377e-04 
-1.2114105e-04 -1.5326802e-03 -3.2679367e-04 
-5.4686596e-05 -6.3205470e-04 -1.6326104e-04 
-1.7394292e-05 -9.7384829e-05 -1.9241613e-04 
3.0169278e-06 1.4724532e-04 -1.6211865e-04 
5.1997369e-05 1.9431664e-04 -1.5084540e-04 
4.4518049e-05 1.4797293e-04 -1.0719652e-04 
5.5449760e-05 9.1513852e-05 -1.1650600e-05 
3.5100529e-05 5.3072901e-05 3.5796354e-05 
-6.4865048e-06 2.5566505e-05 6.4208798e-05 
-1.4036996e-05 4.8050929e-06 6.1896208e-05 
-2.4399689e-05 -2.6576956e-06 3.1521711e-05 
-1.4309413e-05 2.7298051e-06 1.4236185e-05 
-2.1592980e-06 1.1758767e-05 -7.6431606e-06 
5.7936280e-08 1.1171538e-05 -1.4696699e-05 
4.2665124e-06 -2.2212498e-06 -6.3005868e-06 
1.8024630e-06 -1.5857311e-05 -5.3661211e-06 
3.0314632e-06 -1.7221711e-05 1.6204566e-06 
1.6174998e-06 -7.1006616e-06 1.1069353e-06 
-2.0403397e-07 4.6357413e-06 2.8987779e-06 
-1.2422615e-06 9.1700267e-06 1.1061358e-06 
-1.2268015e-06 5.7922516e-06 -9.0976636e-07 
-8.2226859e-07 5.0875688e-08 2.4677459e-07 
9.5478704e-08 -3.4298705e-06 -1.4527396e-06 
2.9260482e-07 -3.4666082e-06 -7.4628367e-08 
3.8353846e-07 -1.0443391e-06 8.9982848e-07 
-7.7792862e-08 1.6908024e-06 -5.5120023e-07 
-9.1564090e-08 2.8396207e-06 4.9993332e-07 
1.7608217e-07 1.6908812e-06 4.6283336e-07 
-1.2303552e-07 -1.0272931e-06 -7.6083461e-07 
-5.9784746e-09 -2.9329049e-06 2.4322637e-07 
1.0638431e-07 -2.0964405e-06 -2.5406089e-07 
-2.4560194e-07 5.1384768e-07 6.7699965e-08 
1.4057350e-07 2.4649453e-06 2.5375161e-07 
3.9068816e-08 2.2274535e-06 1.3006830e-08 
3.3091780e-08 2.3228426e-07 -1.3786277e-07 
0.0000000e+00 -2.0564405e-06 0.0000000e+00 
0.0000000e+00 -1.0639968e-06 0.0000000e+00 
0.0000000e+00 3.9886052e-07 0.0000000e+00 
0.0000000e+00 1.3859889e-06 0.0000000e+00 
0.0000000e+00 1.5066690e-06 0.0000000e+00 
0.0000000e+00 8.8814500e-07 0.0000000e+00 
0.0000000e+00 -9.3396537e-08 0.0000000e+00 
0.0000000e+00 -9.5734447e-07 0.0000000e+00 
0.0000000e+00 -1.2330378e-06 0.0000000e+00 
0.0000000e+00 -7.3157861e-07 0.0000000e+00 
0.0000000e+00 2.1602951e-07 0.0000000e+00 
0.0000000e+00 9.2640562e-07 0.0000000e+00 
0.0000000e+00 9.0745903e-07 0.0000000e+00 
0.0000000e+00 2.6481567e-07 0.0000000e+00 
0.0000000e+00 -4.3929060e-07 0.0000000e+00 
0.0000000e+00 -7.0056160e-07 0.0000000e+00 
0.0000000e+00 -4.3891055e-07 0.0000000e+00 
0.0000000e+00 5.5177352e-08 0.0000000e+00 
0.0000000e+00 4.1552229e-07 0.0000000e+00 
0.0000000e+00 4.3672225e-07 0.0000000e+00 
0.0000000e+00 1.5057715e-07 0.0000000e+00 
0.0000000e+00 -2.1413176e-07 0.0000000e+00 
0.0000000e+00 -3.7393588e-07 0.0000000e+00 
0.0000000e+00 -2.0673716e-07 0.0000000e+00 
0.0000000e+00 1.2234803e-07 0.0000000e+00 
0.0000000e+00 2.9882204e-07 0.0000000e+00 
0.0000000e+00 1.7058458e-07 0.0000000e+00 
0.0000000e+00 -9.8479788e-08 0.0000000e+00 
0.0000000e+00 -2.1969446e-07 0.0000000e+00 
0.0000000e+00 -9.7789517e-08 0.0000000e+00 
0.0000000e+00 9.2952504e-08 0.0000000e+00 
0.0000000e+00 1.3976933e-07 0.0000000e+00 
0.0000000e+00 2.9370808e-08 0.0000000e+00 
0.0000000e+00 -7.8682028e-08 0.0000000e+00 
0.0000000e+00 -6.7312548e-08 0.0000000e+00 
0.0000000e+00 1.5689627e-08 0.0000000e+00 
0.0000000e+00 5.1466348e-08 0.0000000e+00 
0.0000000e+00 9.4378017e-09 0.0000000e+00 
0.0000000e+00 -2.7378343e-08 0.0000000e+00 
0.0000000e+00 -2.8273638e-05 0.0000000e+00 
0.0000000e+00 -1.3271933e-05 0.0000000e+00 
0.0000000e+00 1.6335598e-05 0.0000000e+00 
0.0000000e+00 3.3806089e-05 0.0000000e+00 
0.0000000e+00 2.4337773e-05 0.0000000e+00 
0.0000000e+00 -4.0652371e-06 0.0000000e+00 
0.0000000e+00 -2.8551160e-05 0.0000000e+00 
0.0000000e+00 -3.0594991e-05 0.0000000e+00 
0.0000000e+00 -9.9540503e-06 0.0000000e+00 
0.0000000e+00 1.6953582e-05 0.0000000e+00 
0.0000000e+00 3.0810563e-05 0.0000000e+00 
0.0000000e+00 2.3192644e-05 0.0000000e+00 
0.0000000e+00 7.5354524e-07 0.0000000e+00 
0.0000000e+00 -2.0992067e-05 0.0000000e+00 
0.0000000e+00 -2.8359291e-05 0.0000000e+00 
0.0000000e+00 -1.7739230e-05 0.0000000e+00 
0.0000000e+00 2.8693128e-06 0.0000000e+00 
0.0000000e+00 1.9636844e-05 0.0000000e+00 
0.0000000e+00 2.2508069e-05 0.0000000e+00 
0.0000000e+00 1.2020359e-05 0.0000000e+00 
0.0000000e+00 -2.1360763e-06 0.0000000e+00 
0.0000000e+00 -9.8438131e-06 0.0000000e+00 
0.0000000e+00 -8.9063824e-06 0.0000000e+00 
0.0000000e+00 -5.4300012e-06 0.0000000e+00 
0.0000000e+00 -6.1952014e-06 0.0000000e+00 
0.0000000e+00 -1.0736594e-05 0.0000000e+00 
0.0000000e+00 -1.1163821e-05 0.0000000e+00 
0.0000000e+00 -3.4589399e-07 0.0000000e+00 
0.0000000e+00 1.9120627e-05 0.0000000e+00 
0.0000000e+00 3.4196331e-05 0.0000000e+00 
0.0000000e+00 3.0977415e-05 0.0000000e+00 
0.0000000e+00 6.9791572e-06 0.0000000e+00 
0.0000000e+00 -2.4822852e-05 0.0000000e+00 
0.0000000e+00 -4.4470162e-05 0.0000000e+00 
0.0000000e+00 -3.9478142e-05 0.0000000e+00 
0.0000000e+00 -1.3808480e-05 0.0000000e+00 
0.0000000e+00 1.5269397e-05 0.0000000e+00 
0.0000000e+00 2.9692928e-05 0.0000000e+00 
0.0000000e+00 2.3347990e-05 0.0000000e+00 
0.0000000e+00 5.8394608e-06 0.0000000e+00 
0.0000000e+00 -5.8653873e-06 0.0000000e+00 
0.0000000e+00 -1.7973614e-06 0.0000000e+00 
0.0000000e+00 1.2627395e-05 0.0000000e+00 
0.0000000e+00 2.1805987e-05 0.0000000e+00 
0.0000000e+00 1.4097542e-05 0.0000000e+00 
0.0000000e+00 -7.7353825e-06 0.0000000e+00 
0.0000000e+00 -2.8134478e-05 0.0000000e+00 
0.0000000e+00 -3.0013582e-05 0.0000000e+00 
0.0000000e+00 -7.0251949e-06 0.0000000e+00 
0.0000000e+00 3.1214026e-05 0.0000000e+00 
0.0000000e+00 6.4602413e-05 0.0000000e+00 
0.0000000e+00 7.7359531e-05 0.0000000e+00 
0.0000000e+00 7.6249184e-05 0.0000000e+00 
0.0000000e+00 8.4941676e-05 0.0000000e+00 
0.0000000e+00 1.1605268e-04 0.0000000e+00 
0.0000000e+00 1.5753214e-04 0.0000000e+00 
0.0000000e+00 1.8744555e-04 0.0000000e+00 
0.0000000e+00 1.9148650e-04 0.0000000e+00 
0.0000000e+00 1.7565499e-04 0.0000000e+00 
0.0000000e+00 1.6596525e-04 0.0000000e+00 
0.0000000e+00 1.8087454e-04 0.0000000e+00 
0.0000000e+00 1.6728794e-04 0.0000000e+00 
0.0000000e+00 -5.0124036e-06 0.0000000e+00 
0.0000000e+00 -4.5708037e-04 0.0000000e+00 
0.0000000e+00 -1.2277708e-03 0.0000000e+00 
0.0000000e+00 -2.2679991e-03 0.0000000e+00 
0.0000000e+00 -3.4385328e-03 0.0000000e+00 
0.0000000e+00 -4.4872933e-03 0.0000000e+00 
0.0000000e+00 -4.9119703e-03 0.0000000e+00 
0.0000000e+00 -4.5580450e-03 0.0000000e+00 
0.0000000e+00 -4.1855192e-03 0.0000000e+00 
0.0000000e+00 -4.2287786e-03 0.0000000e+00 
0.0000000e+00 -4.4576814e-03 0.0000000e+00 
0.0000000e+00 -4.1993698e-03 0.0000000e+00 
0.0000000e+00 -3.0658869e-03 0.0000000e+00 
0.0000000e+00 -1.7798149e-03 0.0000000e+00 
0.0000000e+00 -7.9939136e-04 0.0000000e+00 
0.0000000e+00 -1.9861604e-04 0.0000000e+00 
0.0000000e+00 9.6296295e-05 0.0000000e+00 
0.0000000e+00 1.9232032e-04 0.0000000e+00 
0.0000000e+00 1.7306300e-04 0.0000000e+00 
0.0000000e+00 1.0599779e-04 0.0000000e+00 
0.0000000e+00 4.1900115e-05 0.0000000e+00 
0.0000000e+00 5.5314108e-06 0.0000000e+00 
0.0000000e+00 -5.1019078e-06 0.0000000e+00 
0.0000000e+00 -5.7392162e-06 0.0000000e+00 
0.0000000e+00 -6.0220827e-06 0.0000000e+00 
0.0000000e+00 -4.7354720e-06 0.0000000e+00 
0.0000000e+00 -3.0516117e-06 0.0000000e+00 
0.0000000e+00 -4.1066423e-07 0.0000000e+00 
0.0000000e+00 1.1058455e-05 0.0000000e+00 
0.0000000e+00 3.2722535e-05 0.0000000e+00 
0.0000000e+00 5.4681372e-05 0.0000000e+00 
0.0000000e+00 6.9877809e-05 0.0000000e+00 
0.0000000e+00 8.5223219e-05 0.0000000e+00 
0.0000000e+00 1.1473822e-04 0.0000000e+00 
0.0000000e+00 1.6218802e-04 0.0000000e+00 
0.0000000e+00 2.0679853e-04 0.0000000e+00 
0.0000000e+00 2.1412155e-04 0.0000000e+00 
0.0000000e+00 1.7878073e-04 0.0000000e+00 
0.0000000e+00 1.3097694e-04 0.0000000e+00 
0.0000000e+00 7.2440729e-05 0.0000000e+00 
0.0000000e+00 -8.6220702e-05 0.0000000e+00 
0.0000000e+00 -5.0138764e-04 0.0000000e+00 
0.0000000e+00 -1.3036841e-03 0.0000000e+00 
0.0000000e+00 -2.4745225e-03 0.0000000e+00 
0.0000000e+00 -3.7695805e-03 0.0000000e+00 
0.0000000e+00 -4.7406214e-03 0.0000000e+00 
0.0000000e+00 -4.8430134e-03 0.0000000e+00 
0.0000000e+00 -4.4095591e-03 0.0000000e+00 
0.0000000e+00 -4.1776719e-03 0.0000000e+00 
0.0000000e+00 -4.3768883e-03 0.0000000e+00 
0.0000000e+00 -4.5513269e-03 0.0000000e+00 
0.0000000e+00 -3.9988207e-03 0.0000000e+00 
0.0000000e+00 -2.7696793e-03 0.0000000e+00 
0.0000000e+00 -1.5400090e-03 0.0000000e+00 
0.0000000e+00 -6.3636701e-04 0.0000000e+00 
0.0000000e+00 -9.8019525e-05 0.0000000e+00 
0.0000000e+00 1.4730199e-04 0.0000000e+00 
0.0000000e+00 1.9557658e-04 0.0000000e+00 
0.0000000e+00 1.5003789e-04 0.0000000e+00 
0.0000000e+00 9.2468938e-05 0.0000000e+00 
0.0000000e+00 5.2694573e-05 0.0000000e+00 
0.0000000e+00 2.5248490e-05 0.0000000e+00 
0.0000000e+00 5.3238568e-06 0.0000000e+00 
0.0000000e+00 -2.3758648e-06 0.0000000e+00 
0.0000000e+00 2.6474872e-06 0.0000000e+00 
0.0000000e+00 1.1343699e-05 0.0000000e+00 
0.0000000e+00 1.0754178e-05 0.0000000e+00 
0.0000000e+00 -2.0585401e-06 0.0000000e+00 
0.0000000e+00 -1.5369020e-05 0.0000000e+00 
0.0000000e+00 -1.7035803e-05 0.0000000e+00 
0.0000000e+00 -7.2565240e-06 0.0000000e+00 
0.0000000e+00 4.3587884e-06 0.0000000e+00 
0.0000000e+00 9.0280964e-06 0.0000000e+00 
0.0000000e+00 5.8776031e-06 0.0000000e+00 
0.0000000e+00 1.6301522e-07 0.0000000e+00 
0.0000000e+00 -3.3816777e-06 0.0000000e+00 
0.0000000e+00 -3.4293178e-06 0.0000000e+00 
0.0000000e+00 -1.0568483e-06 0.0000000e+00 
0.0000000e+00 1.6290862e-06 0.0000000e+00 
0.0000000e+00 2.7882122e-06 0.0000000e+00 
0.0000000e+00 1.6555326e-06 0.0000000e+00 
0.0000000e+00 -9.8953512e-07 0.0000000e+00 
0.0000000e+00 -2.8264615e-06 0.0000000e+00 
0.0000000e+00 -2.0684774e-06 0.0000000e+00 
0.0000000e+00 4.5579245e-07 0.0000000e+00 
0.0000000e+00 2.3977968e-06 0.0000000e+00 
0.0000000e+00 2.2001022e-06 0.0000000e+00 
0.0000000e+00 2.6892280e-07 0.0000000e+00 
0.0000000e+00 -1.6021015e-06 0.0000000e+00 
0.0000000e+00 -2.0414266e-06 0.0000000e+00 
0.0000000e+00 -1.0730287e-06 0.0000000e+00 
0.0000000e+00 3.8089959e-07 0.0000000e+00 
0.0000000e+00 1.3746632e-06 0.0000000e+00 
0.0000000e+00 1.5026712e-06 0.0000000e+00 
0.0000000e+00 8.8612114e-07 0.0000000e+00 
0.0000000e+00 -9.1545260e-08 0.0000000e+00 
0.0000000e+00 -9.4635828e-07 0.0000000e+00 
0.0000000e+00 -1.2175745e-06 0.0000000e+00 
0.0000000e+00 -7.2587801e-07 0.0000000e+00 
0.0000000e+00 2.0458455e-07 0.0000000e+00 
0.0000000e+00 9.0780435e-07 0.0000000e+00 
0.0000000e+00 8.9878432e-07 0.0000000e+00 
0.0000000e+00 2.7200241e-07 0.0000000e+00 
0.0000000e+00 -4.2553523e-07 0.0000000e+00 
0.0000000e+00 -6.9239144e-07 0.0000000e+00 
0.0000000e+00 -4.3987785e-07 0.0000000e+00 
0.0000000e+00 4.8980912e-08 0.0000000e+00 
0.0000000e+00 4.0851043e-07 0.0000000e+00 
0.0000000e+00 4.3185801e-07 0.0000000e+00 
0.0000000e+00 1.5104686e-07 0.0000000e+00 
0.0000000e+00 -2.0711785e-07 0.0000000e+00 
0.0000000e+00 -3.6543773e-07 0.0000000e+00 
0.0000000e+00 -2.0531766e-07 0.0000000e+00 
0.0000000e+00 1.1443907e-07 0.0000000e+00 
0.0000000e+00 2.8986071e-07 0.0000000e+00 
0.0000000e+00 1.7041212e-07 0.0000000e+00 
0.0000000e+00 -9.0257188e-08 0.0000000e+00 
0.0000000e+00 -2.1300829e-07 0.0000000e+00 
0.0000000e+00 -9.9776344e-08 0.0000000e+00 
0.0000000e+00 8.5934751e-08 0.0000000e+00 
0.0000000e+00 1.3638991e-07 0.0000000e+00 
0.0000000e+00 3.2574274e-08 0.0000000e+00 
0.0000000e+00 -7.3866509e-08 0.0000000e+00 
0.0000000e+00 -6.6537325e-08 0.0000000e+00 
0.0000000e+00 1.2429209e-08 0.0000000e+00 
0.0000000e+00 4.8517183e-08 0.0000000e+00 
0.0000000e+00 9.9053645e-09 0.0000000e+00 
0.0000000e+00 -2.4873081e-08 0.0000000e+00 
0.0000000e+00 0.0000000e+00 0.0000000e+00 
0.0000000e+00 0.0000000e+00 0.0000000e+00 
0.0000000e+00 0.0000000e+00 0.0000000e+00 
0.0000000e+00 0.0000000e+00 0.0000000e+00 
0.0000000e+00 0.0000000e+00 0.0000000e+00 
0.0000000e+00 0.0000000e+00 0.0000000e+00 
0.0000000e+00 0.0000000e+00 0.0000000e+00 
0.0000000e+00 0.0000000e+00 0.0000000e+00 
0.0000000e+00 0.0000000e+00 0.0000000e+00 
0.0000000e+00 0.0000000e+00 0.0000000e+00 
0.0000000e+00 0.0000000e+00 0.0000000e+00 
0.0000000e+00 0.0000000e+00 0.0000000e+00 
0.0000000e+00 0.0000000e+00 0.0000000e+00 
0.0000000e+00 0.0000000e+00 0.0000000e+00 
0.0000000e+00 0.0000000e+00 0.0000000e+00 
0.0000000e+00 0.0000000e+00 0.0000000e+00 
0.0000000e+00 0.0000000e+00 0.0000000e+00 
0.0000000e+00 0.0000000e+00 0.0000000e+00 
0.0000000e+00 0.0000000e+00 0.0000000e+00 
0.0000000e+00 0.0000000e+00 0.0000000e+00 
0.0000000e+00 0.0000000e+00 0.0000000e+00 
0.0000000e+00 0.0000000e+00 0.0000000e+00 
0.0000000e+00 0.0000000e+00 0.0000000e+00 
0.0000000e+00 0.0000000e+00 0.0000000e+00 
0.0000000e+00 0.0000000e+00 0.0000000e+00 
0.0000000e+00 0.0000000e+00 0.0000000e+00 
0.0000000e+00 0.0000000e+00 0.0000000e+00 
0.0000000e+00 0.0000000e+00 0.0000000e+00 
0.0000000e+00 0.0000000e+00 0.0000000e+00 
0.0000000e+00 0.0000000e+00 0.0000000e+00 
0.0000000e+00 0.0000000e+00 0.0000000e+00 
0.0000000e+00 0.0000000e+00 0.0000000e+00 
0.0000000e+00 0.0000000e+00 0.0000000e+00 
0.0000000e+00 0.0000000e+00 0.0000000e+00 
0.0000000e+00 0.0000000e+00 0.0000000e+00 
0.0000000e+00 0.0000000e+00 0.0000000e+00 
0.0000000e+00 0.0000000e+00 0.0000000e+00 
0.0000000e+00 0.0000000e+00 0.0000000e+00 
0.0000000e+00 0.0000000e+00 0.0000000e+00 
0.0000000e+00 0.0000000e+00 0.0000000e+00 
0.0000000e+00 0.0000000e+00 0.0000000e+00 
0.0000000e+00 0.0000000e+00 0.0000000e+00 
0.0000000e+00 0.0000000e+00 0.0000000e+00 
0.0000000e+00 0.0000000e+00 0.0000000e+00 
0.0000000e+00 0.0000000e+00 0.0000000e+00 
0.0000000e+00 0.0000000e+00 0.0000000e+00 
0.0000000e+00 0.0000000e+00 0.0000000e+00 
0.0000000e+00 0.0000000e+00 0.0000000e+00 
0.0000000e+00 0.0000000e+00 0.0000000e+00 
0.0000000e+00 0.0000000e+00 0.0000000e+00 
0.0000000e+00 0.0000000e+00 0.0000000e+00 
0.0000000e+00 0.0000000e+00 0.0000000e+00 
0.0000000e+00 0.0000000e+00 0.0000000e+00 
0.0000000e+00 0.0000000e+00 0.0000000e+00 
0.0000000e+00 0.0000000e+00 0.0000000e+00 
0.0000000e+00 0.0000000e+00 0.0000000e+00 
0.0000000e+00 0.0000000e+00 0.0000000e+00 