# vtk DataFile Version 4.0
vtk output
ASCII
DATASET UNSTRUCTURED_GRID
POINTS 2186 float
0.0000000e+00 0.0000000e+00 0.0000000e+00 
0.0000000e+00 0.0000000e+00 5.0000000e+01 
5.0000000e+00 0.0000000e+00 0.0000000e+00 
5.0000000e+00 0.0000000e+00 5.0000000e+01 
5.0000000e+00 1.0000000e+00 0.0000000e+00 
5.0000000e+00 1.0000000e+00 5.0000000e+01 
0.0000000e+00 1.0000000e+00 0.0000000e+00 
0.0000000e+00 1.0000000e+00 5.0000000e+01 
5.0000000e+00 2.0000000e+00 0.0000000e+00 
5.0000000e+00 2.0000000e+00 5.0000000e+01 
3.0000000e+00 2.0000000e+00 0.0000000e+00 
3.0000000e+00 2.0000000e+00 5.0000000e+01 
0.0000000e+00 2.0000000e+00 0.0000000e+00 
0.0000000e+00 2.0000000e+00 5.0000000e+01 
1.5000000e+00 3.0000000e+00 0.0000000e+00 
1.5000000e+00 3.0000000e+00 5.0000000e+01 
7.5000000e-01 3.0000000e+00 0.0000000e+00 
7.5000000e-01 3.0000000e+00 5.0000000e+01 
0.0000000e+00 3.0000000e+00 0.0000000e+00 
0.0000000e+00 3.0000000e+00 5.0000000e+01 
7.5000000e-01 3.0000000e+00 -2.5000000e+01 
7.5000000e-01 3.0000000e+00 -2.4500000e+01 
7.5000000e-01 3.0000000e+00 -2.4000000e+01 
7.5000000e-01 3.0000000e+00 -2.3500000e+01 
7.5000000e-01 3.0000000e+00 -2.3000000e+01 
7.5000000e-01 3.0000000e+00 -2.2500000e+01 
7.5000000e-01 3.0000000e+00 -2.2000000e+01 
7.5000000e-01 3.0000000e+00 -2.1500000e+01 
7.5000000e-01 3.0000000e+00 -2.1000000e+01 
7.5000000e-01 3.0000000e+00 -2.0500000e+01 
7.5000000e-01 3.0000000e+00 -2.0000000e+01 
7.5000000e-01 3.0000000e+00 -1.9500000e+01 
7.5000000e-01 3.0000000e+00 -1.9000000e+01 
7.5000000e-01 3.0000000e+00 -1.8500000e+01 
7.5000000e-01 3.0000000e+00 -1.8000000e+01 
7.5000000e-01 3.0000000e+00 -1.7500000e+01 
7.5000000e-01 3.0000000e+00 -1.7000000e+01 
7.5000000e-01 3.0000000e+00 -1.6500000e+01 
7.5000000e-01 3.0000000e+00 -1.6000000e+01 
7.5000000e-01 3.0000000e+00 -1.5500000e+01 
7.5000000e-01 3.0000000e+00 -1.5000000e+01 
7.5000000e-01 3.0000000e+00 -1.4500000e+01 
7.5000000e-01 3.0000000e+00 -1.4000000e+01 
7.5000000e-01 3.0000000e+00 -1.3500000e+01 
7.5000000e-01 3.0000000e+00 -1.3000000e+01 
7.5000000e-01 3.0000000e+00 -1.2500000e+01 
7.5000000e-01 3.0000000e+00 -1.2000000e+01 
7.5000000e-01 3.0000000e+00 -1.1500000e+01 
7.5000000e-01 3.0000000e+00 -1.1000000e+01 
7.5000000e-01 3.0000000e+00 -1.0500000e+01 
7.5000000e-01 3.0000000e+00 -1.0000000e+01 
7.5000000e-01 3.0000000e+00 -9.5000000e+00 
7.5000000e-01 3.0000000e+00 -9.0000000e+00 
7.5000000e-01 3.0000000e+00 -8.5000000e+00 
7.5000000e-01 3.0000000e+00 -8.0000000e+00 
7.5000000e-01 3.0000000e+00 -7.5000000e+00 
7.5000000e-01 3.0000000e+00 -7.0000000e+00 
7.5000000e-01 3.0000000e+00 -6.5000000e+00 
7.5000000e-01 3.0000000e+00 -6.0000000e+00 
7.5000000e-01 3.0000000e+00 -5.5000000e+00 
7.5000000e-01 3.0000000e+00 -5.0000000e+00 
7.5000000e-01 3.0000000e+00 -4.5000000e+00 
7.5000000e-01 3.0000000e+00 -4.0000000e+00 
7.5000000e-01 3.0000000e+00 -3.5000000e+00 
7.5000000e-01 3.0000000e+00 -3.0000000e+00 
7.5000000e-01 3.0000000e+00 -2.5000000e+00 
7.5000000e-01 3.0000000e+00 -2.0000000e+00 
7.5000000e-01 3.0000000e+00 -1.5000000e+00 
7.5000000e-01 3.0000000e+00 -1.0000000e+00 
7.5000000e-01 3.0000000e+00 -5.0000000e-01 
7.5000000e-01 3.0000000e+00 5.0000000e-01 
7.5000000e-01 3.0000000e+00 1.0000000e+00 
7.5000000e-01 3.0000000e+00 1.5000000e+00 
7.5000000e-01 3.0000000e+00 2.0000000e+00 
7.5000000e-01 3.0000000e+00 2.5000000e+00 
7.5000000e-01 3.0000000e+00 3.0000000e+00 
7.5000000e-01 3.0000000e+00 3.5000000e+00 
7.5000000e-01 3.0000000e+00 4.0000000e+00 
7.5000000e-01 3.0000000e+00 4.5000000e+00 
7.5000000e-01 3.0000000e+00 5.0000000e+00 
7.5000000e-01 3.0000000e+00 5.5000000e+00 
7.5000000e-01 3.0000000e+00 6.0000000e+00 
7.5000000e-01 3.0000000e+00 6.5000000e+00 
7.5000000e-01 3.0000000e+00 7.0000000e+00 
7.5000000e-01 3.0000000e+00 7.5000000e+00 
7.5000000e-01 3.0000000e+00 8.0000000e+00 
7.5000000e-01 3.0000000e+00 8.5000000e+00 
7.5000000e-01 3.0000000e+00 9.0000000e+00 
7.5000000e-01 3.0000000e+00 9.5000000e+00 
7.5000000e-01 3.0000000e+00 1.0000000e+01 
7.5000000e-01 3.0000000e+00 1.0500000e+01 
7.5000000e-01 3.0000000e+00 1.1000000e+01 
7.5000000e-01 3.0000000e+00 1.1500000e+01 
7.5000000e-01 3.0000000e+00 1.2000000e+01 
7.5000000e-01 3.0000000e+00 1.2500000e+01 
7.5000000e-01 3.0000000e+00 1.3000000e+01 
7.5000000e-01 3.0000000e+00 1.3500000e+01 
7.5000000e-01 3.0000000e+00 1.4000000e+01 
7.5000000e-01 3.0000000e+00 1.4500000e+01 
7.5000000e-01 3.0000000e+00 1.5000000e+01 
7.5000000e-01 3.0000000e+00 1.5500000e+01 
7.5000000e-01 3.0000000e+00 1.6000000e+01 
7.5000000e-01 3.0000000e+00 1.6500000e+01 
7.5000000e-01 3.0000000e+00 1.7000000e+01 
7.5000000e-01 3.0000000e+00 1.7500000e+01 
7.5000000e-01 3.0000000e+00 1.8000000e+01 
7.5000000e-01 3.0000000e+00 1.8500000e+01 
7.5000000e-01 3.0000000e+00 1.9000000e+01 
7.5000000e-01 3.0000000e+00 1.9500000e+01 
7.5000000e-01 3.0000000e+00 2.0000000e+01 
7.5000000e-01 3.0000000e+00 2.0500000e+01 
7.5000000e-01 3.0000000e+00 2.1000000e+01 
7.5000000e-01 3.0000000e+00 2.1500000e+01 
7.5000000e-01 3.0000000e+00 2.2000000e+01 
7.5000000e-01 3.0000000e+00 2.2500000e+01 
7.5000000e-01 3.0000000e+00 2.3000000e+01 
7.5000000e-01 3.0000000e+00 2.3500000e+01 
7.5000000e-01 3.0000000e+00 2.4000000e+01 
7.5000000e-01 3.0000000e+00 2.4500000e+01 
7.5000000e-01 3.0000000e+00 2.5000000e+01 
7.5000000e-01 3.0000000e+00 2.5500000e+01 
7.5000000e-01 3.0000000e+00 2.6000000e+01 
7.5000000e-01 3.0000000e+00 2.6500000e+01 
7.5000000e-01 3.0000000e+00 2.7000000e+01 
7.5000000e-01 3.0000000e+00 2.7500000e+01 
7.5000000e-01 3.0000000e+00 2.8000000e+01 
7.5000000e-01 3.0000000e+00 2.8500000e+01 
7.5000000e-01 3.0000000e+00 2.9000000e+01 
7.5000000e-01 3.0000000e+00 2.9500000e+01 
7.5000000e-01 3.0000000e+00 3.0000000e+01 
7.5000000e-01 3.0000000e+00 3.0500000e+01 
7.5000000e-01 3.0000000e+00 3.1000000e+01 
7.5000000e-01 3.0000000e+00 3.1500000e+01 
7.5000000e-01 3.0000000e+00 3.2000000e+01 
7.5000000e-01 3.0000000e+00 3.2500000e+01 
7.5000000e-01 3.0000000e+00 3.3000000e+01 
7.5000000e-01 3.0000000e+00 3.3500000e+01 
7.5000000e-01 3.0000000e+00 3.4000000e+01 
7.5000000e-01 3.0000000e+00 3.4500000e+01 
7.5000000e-01 3.0000000e+00 3.5000000e+01 
7.5000000e-01 3.0000000e+00 3.5500000e+01 
7.5000000e-01 3.0000000e+00 3.6000000e+01 
7.5000000e-01 3.0000000e+00 3.6500000e+01 
7.5000000e-01 3.0000000e+00 3.7000000e+01 
7.5000000e-01 3.0000000e+00 3.7500000e+01 
7.5000000e-01 3.0000000e+00 3.8000000e+01 
7.5000000e-01 3.0000000e+00 3.8500000e+01 
7.5000000e-01 3.0000000e+00 3.9000000e+01 
7.5000000e-01 3.0000000e+00 3.9500000e+01 
7.5000000e-01 3.0000000e+00 4.0000000e+01 
7.5000000e-01 3.0000000e+00 4.0500000e+01 
7.5000000e-01 3.0000000e+00 4.1000000e+01 
7.5000000e-01 3.0000000e+00 4.1500000e+01 
7.5000000e-01 3.0000000e+00 4.2000000e+01 
7.5000000e-01 3.0000000e+00 4.2500000e+01 
7.5000000e-01 3.0000000e+00 4.3000000e+01 
7.5000000e-01 3.0000000e+00 4.3500000e+01 
7.5000000e-01 3.0000000e+00 4.4000000e+01 
7.5000000e-01 3.0000000e+00 4.4500000e+01 
7.5000000e-01 3.0000000e+00 4.5000000e+01 
7.5000000e-01 3.0000000e+00 4.5500000e+01 
7.5000000e-01 3.0000000e+00 4.6000000e+01 
7.5000000e-01 3.0000000e+00 4.6500000e+01 
7.5000000e-01 3.0000000e+00 4.7000000e+01 
7.5000000e-01 3.0000000e+00 4.7500000e+01 
7.5000000e-01 3.0000000e+00 4.8000000e+01 
7.5000000e-01 3.0000000e+00 4.8500000e+01 
7.5000000e-01 3.0000000e+00 4.9000000e+01 
7.5000000e-01 3.0000000e+00 4.9500000e+01 
7.5000000e-01 3.0000000e+00 5.0500000e+01 
7.5000000e-01 3.0000000e+00 5.1000000e+01 
7.5000000e-01 3.0000000e+00 5.1500000e+01 
7.5000000e-01 3.0000000e+00 5.2000000e+01 
7.5000000e-01 3.0000000e+00 5.2500000e+01 
7.5000000e-01 3.0000000e+00 5.3000000e+01 
7.5000000e-01 3.0000000e+00 5.3500000e+01 
7.5000000e-01 3.0000000e+00 5.4000000e+01 
7.5000000e-01 3.0000000e+00 5.4500000e+01 
7.5000000e-01 3.0000000e+00 5.5000000e+01 
7.5000000e-01 3.0000000e+00 5.5500000e+01 
7.5000000e-01 3.0000000e+00 5.6000000e+01 
7.5000000e-01 3.0000000e+00 5.6500000e+01 
7.5000000e-01 3.0000000e+00 5.7000000e+01 
7.5000000e-01 3.0000000e+00 5.7500000e+01 
7.5000000e-01 3.0000000e+00 5.8000000e+01 
7.5000000e-01 3.0000000e+00 5.8500000e+01 
7.5000000e-01 3.0000000e+00 5.9000000e+01 
7.5000000e-01 3.0000000e+00 5.9500000e+01 
7.5000000e-01 3.0000000e+00 6.0000000e+01 
7.5000000e-01 3.0000000e+00 6.0500000e+01 
7.5000000e-01 3.0000000e+00 6.1000000e+01 
7.5000000e-01 3.0000000e+00 6.1500000e+01 
7.5000000e-01 3.0000000e+00 6.2000000e+01 
7.5000000e-01 3.0000000e+00 6.2500000e+01 
7.5000000e-01 3.0000000e+00 6.3000000e+01 
7.5000000e-01 3.0000000e+00 6.3500000e+01 
7.5000000e-01 3.0000000e+00 6.4000000e+01 
7.5000000e-01 3.0000000e+00 6.4500000e+01 
7.5000000e-01 3.0000000e+00 6.5000000e+01 
7.5000000e-01 3.0000000e+00 6.5500000e+01 
7.5000000e-01 3.0000000e+00 6.6000000e+01 
7.5000000e-01 3.0000000e+00 6.6500000e+01 
7.5000000e-01 3.0000000e+00 6.7000000e+01 
7.5000000e-01 3.0000000e+00 6.7500000e+01 
7.5000000e-01 3.0000000e+00 6.8000000e+01 
7.5000000e-01 3.0000000e+00 6.8500000e+01 
7.5000000e-01 3.0000000e+00 6.9000000e+01 
7.5000000e-01 3.0000000e+00 6.9500000e+01 
7.5000000e-01 3.0250001e+00 -2.5000000e+01 
7.5000000e-01 3.0250001e+00 -2.4500000e+01 
7.5000000e-01 3.0250001e+00 -2.4000000e+01 
7.5000000e-01 3.0250001e+00 -2.3500000e+01 
7.5000000e-01 3.0250001e+00 -2.3000000e+01 
7.5000000e-01 3.0250001e+00 -2.2500000e+01 
7.5000000e-01 3.0250001e+00 -2.2000000e+01 
7.5000000e-01 3.0250001e+00 -2.1500000e+01 
7.5000000e-01 3.0250001e+00 -2.1000000e+01 
7.5000000e-01 3.0250001e+00 -2.0500000e+01 
7.5000000e-01 3.0250001e+00 -2.0000000e+01 
7.5000000e-01 3.0250001e+00 -1.9500000e+01 
7.5000000e-01 3.0250001e+00 -1.9000000e+01 
7.5000000e-01 3.0250001e+00 -1.8500000e+01 
7.5000000e-01 3.0250001e+00 -1.8000000e+01 
7.5000000e-01 3.0250001e+00 -1.7500000e+01 
7.5000000e-01 3.0250001e+00 -1.7000000e+01 
7.5000000e-01 3.0250001e+00 -1.6500000e+01 
7.5000000e-01 3.0250001e+00 -1.6000000e+01 
7.5000000e-01 3.0250001e+00 -1.5500000e+01 
[...]
POINT_DATA 2186
FIELD FieldData 3
DISPLACEMENT 3 2186  float
0.0000000e+00 0.0000000e+00 0.0000000e+00 
0.0000000e+00 0.0000000e+00 0.0000000e+00 
0.0000000e+00 0.0000000e+00 0.0000000e+00 
0.0000000e+00 0.0000000e+00 0.0000000e+00 
-2.6052946e-06 5.2907139e-06 5.8483010e-06 
3.8765577e-07 -6.5585009e-09 1.3672199e-07 
0.0000000e+00 -7.8983094e-06 0.0000000e+00 
0.0000000e+00 2.5068116e-06 0.0000000e+00 
-4.0084233e-06 3.0483366e-06 7.7585546e-06 
4.4620742e-07 3.4106446e-07 -6.8039031e-07 
-1.2786842e-06 -1.5449226e-06 1.2642941e-07 
-2.0696713e-07 4.6317222e-08 -6.7677178e-07 
0.0000000e+00 -6.1723053e-06 0.0000000e+00 
0.0000000e+00 2.9872883e-06 0.0000000e+00 
4.2065781e-06 1.3568330e-05 4.3201837e-07 
2.0672974e-06 4.9510109e-06 -5.5719779e-06 
2.6947527e-07 3.7856259e-06 -1.0100755e-06 
3.3506606e-06 -1.8865095e-06 1.7084564e-06 
0.0000000e+00 -2.7213247e-07 0.0000000e+00 
0.0000000e+00 -3.7250070e-06 0.0000000e+00 
0.0000000e+00 3.2639434e-06 0.0000000e+00 
0.0000000e+00 3.4463542e-06 0.0000000e+00 
0.0000000e+00 3.2523760e-06 0.0000000e+00 
0.0000000e+00 1.5986716e-06 0.0000000e+00 
0.0000000e+00 -1.5643049e-06 0.0000000e+00 
0.0000000e+00 -4.7688973e-06 0.0000000e+00 
0.0000000e+00 -5.9248096e-06 0.0000000e+00 
0.0000000e+00 -3.9923721e-06 0.0000000e+00 
0.0000000e+00 -5.0219359e-08 0.0000000e+00 
0.0000000e+00 3.2382823e-06 0.0000000e+00 
0.0000000e+00 3.4926056e-06 0.0000000e+00 
0.0000000e+00 4.5182526e-07 0.0000000e+00 
0.0000000e+00 -3.6397905e-06 0.0000000e+00 
0.0000000e+00 -5.4900574e-06 0.0000000e+00 
0.0000000e+00 -3.0888993e-06 0.0000000e+00 
0.0000000e+00 2.7599458e-06 0.0000000e+00 
0.0000000e+00 8.8496872e-06 0.0000000e+00 
0.0000000e+00 1.1639838e-05 0.0000000e+00 
0.0000000e+00 9.4664247e-06 0.0000000e+00 
0.0000000e+00 3.3446402e-06 0.0000000e+00 
0.0000000e+00 -4.0133509e-06 0.0000000e+00 
0.0000000e+00 -9.9933750e-06 0.0000000e+00 
0.0000000e+00 -1.3274203e-05 0.0000000e+00 
0.0000000e+00 -1.3719490e-05 0.0000000e+00 
0.0000000e+00 -1.1457788e-05 0.0000000e+00 
0.0000000e+00 -6.3263387e-06 0.0000000e+00 
0.0000000e+00 1.5856032e-06 0.0000000e+00 
0.0000000e+00 1.0810571e-05 0.0000000e+00 
0.0000000e+00 1.8184488e-05 0.0000000e+00 
0.0000000e+00 2.0193223e-05 0.0000000e+00 
0.0000000e+00 1.5262833e-05 0.0000000e+00 
0.0000000e+00 5.2089231e-06 0.0000000e+00 
0.0000000e+00 -5.4233319e-06 0.0000000e+00 
0.0000000e+00 -1.1843560e-05 0.0000000e+00 
0.0000000e+00 -1.1781578e-05 0.0000000e+00 
0.0000000e+00 -6.7839001e-06 0.0000000e+00 
0.0000000e+00 -1.1277642e-06 0.0000000e+00 
0.0000000e+00 1.0445325e-06 0.0000000e+00 
0.0000000e+00 -1.5770157e-06 0.0000000e+00 
0.0000000e+00 -6.8622790e-06 0.0000000e+00 
0.0000000e+00 -1.1002889e-05 0.0000000e+00 
0.0000000e+00 -1.1135439e-05 0.0000000e+00 
0.0000000e+00 -6.9951438e-06 0.0000000e+00 
0.0000000e+00 -7.8291163e-07 0.0000000e+00 
0.0000000e+00 4.4440544e-06 0.0000000e+00 
0.0000000e+00 6.8055856e-06 0.0000000e+00 
0.0000000e+00 6.6233547e-06 0.0000000e+00 
0.0000000e+00 5.5913597e-06 0.0000000e+00 
0.0000000e+00 4.9583873e-06 0.0000000e+00 
0.0000000e+00 4.6098262e-06 0.0000000e+00 
8.1094140e-06 1.2888914e-06 -6.7607930e-06 
1.1567864e-05 -1.0858533e-06 -1.1347186e-05 
1.5216164e-05 -1.9907807e-06 -1.5815560e-05 
2.4510202e-05 -3.9489555e-06 -1.0497996e-05 
1.4624836e-05 -9.1042193e-06 -2.0763573e-05 
7.1941436e-06 -1.7751294e-05 -1.9872561e-05 
7.4353061e-06 -2.7312688e-05 -9.7637030e-06 
1.0355519e-05 -3.0731015e-05 -9.8146938e-06 
1.4828863e-05 -2.6637283e-05 -1.3355625e-05 
5.5201972e-06 -2.2094571e-05 -1.9104011e-05 
1.5882726e-05 -2.6526088e-05 -8.9507621e-06 
4.6971472e-06 -4.2153715e-05 1.7709876e-06 
1.2499434e-05 -5.8387508e-05 1.1488460e-05 
-8.6644593e-07 -5.8998561e-05 1.4155071e-05 
-6.3498624e-07 -4.1402422e-05 7.3559072e-06 
-8.3007001e-07 -1.9568193e-05 -1.2927067e-05 
2.3644137e-05 -1.1067659e-05 -2.5445450e-05 
2.1653970e-05 -1.9788000e-05 -1.4257748e-05 
2.8204426e-05 -2.2659371e-05 -3.0948968e-06 
2.1511112e-05 1.9020365e-05 6.4496198e-06 
2.8812012e-05 9.9648940e-05 2.1294545e-05 
2.4752546e-05 1.4757330e-04 3.0766980e-05 
3.4354271e-05 8.5155538e-05 5.6956371e-05 
2.8813380e-05 -1.3326923e-04 7.8377605e-05 
-1.7291512e-05 -5.0595403e-04 1.5812820e-04 
-1.2158757e-04 -1.0489502e-03 3.1552900e-04 
-1.1291484e-04 -1.8411939e-03 2.9750864e-04 
-1.3322548e-04 -2.9355767e-03 1.6064281e-04 
-2.3985468e-04 -4.2276341e-03 2.3399056e-04 
-2.9257449e-04 -5.1127011e-03 5.9488659e-05 
-3.0718732e-04 -4.9235490e-03 -1.5150775e-05 
-2.9284557e-04 -4.4071106e-03 -6.2811363e-05 
-3.2089278e-04 -4.2950627e-03 -8.0539510e-05 
-6.2736281e-04 -4.6283519e-03 -1.0003361e-04 
-2.5671697e-04 -4.6862313e-03 -2.2517206e-04 
-1.5807002e-04 -3.6603387e-03 -1.7698179e-04 
-7.9797261e-05 -2.2352014e-03 -3.0540404e-04 
-3.7019690e-05 -1.0244338e-03 -1.5348838e-04 
2.5074027e-05 -2.6170103e-04 -1.4256741e-04 
3.6677353e-05 1.0018781e-04 -4.8446767e-05 
4.6899098e-05 2.0866007e-04 -3.8616005e-07 
3.6949968e-05 1.9325272e-04 1.8338240e-05 
2.8260014e-05 1.3153967e-04 3.1838055e-05 
2.4614983e-05 5.9091661e-05 2.5477519e-05 
2.2694323e-05 -1.0150878e-06 2.9974377e-05 
9.0556905e-06 -3.5030960e-05 2.5710919e-05 
9.9818290e-06 -4.4097069e-05 2.4715842e-05 
-1.7616167e-06 -4.5212390e-05 1.7016260e-05 
-4.5009788e-06 -4.9495138e-05 -1.0878940e-06 
-6.8999061e-06 -4.8679063e-05 -1.7082968e-05 
1.2845747e-05 -3.5820718e-05 -2.0945938e-05 
2.8722116e-06 -2.6477066e-05 -1.8755369e-05 
1.3790495e-05 -3.3744538e-05 -8.5318025e-06 
8.9866808e-06 -4.7505200e-05 8.9781400e-07 
8.8642246e-06 -4.8540336e-05 5.9649715e-06 
6.8888426e-06 -2.5191328e-05 3.5227731e-06 
3.3513701e-05 8.1130256e-06 -6.8844577e-07 
2.7855825e-05 2.3039516e-05 5.8211103e-06 
3.6370708e-05 1.4461709e-05 4.7426524e-06 
2.8359827e-05 8.8399593e-06 2.4956631e-05 
2.6559519e-05 3.4907320e-05 3.6730922e-05 
2.2310109e-05 8.6558277e-05 5.5515178e-05 
2.4246390e-05 8.0457416e-05 9.9788005e-05 
1.8105873e-05 -1.1660828e-04 1.2057160e-04 
-3.0161436e-05 -5.7058164e-04 1.8268893e-04 
-7.6272023e-05 -1.2646747e-03 1.4941736e-04 
-1.5061673e-04 -2.1869293e-03 2.4575909e-04 
-2.2548108e-04 -3.2884083e-03 7.3683521e-05 
-3.0163763e-04 -4.4256411e-03 1.6024531e-04 
-2.9757206e-04 -5.0611179e-03 2.9529701e-05 
-3.0443308e-04 -4.7933082e-03 -6.9810281e-05 
-3.2396574e-04 -4.3460475e-03 -7.1033930e-05 
-3.3519129e-04 -4.3033496e-03 -5.9908441e-05 
-2.6701202e-04 -4.5439638e-03 -1.9855190e-04 
-3.8004844e-04 -4.4645895e-03 -3.2040523e-04 
-6.4979191e-05 -3.3592500e-03 -2.4277858e-04 
-1.2706753e-04 -1.9758076e-03 -3.1411558e-04 
-6.8504764e-06 -8.8137313e-04 -1.8600424e-04 
1.9206032e-05 -2.2307967e-04 -1.3870872e-04 
2.9015733e-05 8.9937836e-05 -4.9257222e-05 
3.8529226e-05 1.9945517e-04 1.8961903e-06 
2.8785296e-05 1.9690458e-04 2.7830567e-05 
1.3837103e-05 1.3638058e-04 4.5655124e-05 
9.1241218e-06 6.3238738e-05 3.8798098e-05 
-1.1950925e-09 1.5386973e-05 4.0855772e-05 
-5.8075084e-06 -7.1256176e-07 3.5490008e-05 
-7.2263033e-06 -1.1262781e-06 3.0204143e-05 
-8.1531161e-06 -1.2255106e-06 1.6907332e-05 
-1.4932169e-05 -3.1933416e-06 1.3850270e-06 
-1.0226185e-05 -2.4067072e-06 -8.5390047e-06 
-1.4941919e-06 2.1184032e-06 -1.7446206e-05 
-1.3244718e-06 5.3095155e-06 -1.3818501e-05 
4.2015463e-06 3.4931029e-06 -4.8133174e-06 
3.7099064e-06 -2.6145420e-07 1.0171149e-06 
-5.3356152e-06 -1.2990687e-06 7.2512597e-07 
-4.6469559e-06 7.5163956e-07 -3.4139539e-06 
-1.0938761e-06 2.6564815e-06 -1.0163159e-05 
-8.4462755e-07 1.9360350e-06 -9.4111128e-06 
2.6114408e-06 -4.6534549e-07 -4.5815982e-06 
0.0000000e+00 -1.6229035e-06 0.0000000e+00 
0.0000000e+00 -1.4364582e-06 0.0000000e+00 
0.0000000e+00 -2.4598385e-06 0.0000000e+00 
0.0000000e+00 -3.7660120e-06 0.0000000e+00 
0.0000000e+00 -3.6291792e-06 0.0000000e+00 
0.0000000e+00 -1.7607628e-06 0.0000000e+00 
0.0000000e+00 3.3029826e-07 0.0000000e+00 
0.0000000e+00 1.1105556e-06 0.0000000e+00 
0.0000000e+00 6.0776250e-07 0.0000000e+00 
0.0000000e+00 1.5187513e-08 0.0000000e+00 
0.0000000e+00 9.6415043e-08 0.0000000e+00 
0.0000000e+00 4.4778946e-07 0.0000000e+00 
0.0000000e+00 3.2905001e-07 0.0000000e+00 
0.0000000e+00 -2.2179026e-07 0.0000000e+00 
0.0000000e+00 -4.4530870e-07 0.0000000e+00 
0.0000000e+00 8.3865402e-08 0.0000000e+00 
0.0000000e+00 8.2864608e-07 0.0000000e+00 
0.0000000e+00 8.9494500e-07 0.0000000e+00 
0.0000000e+00 9.9210965e-08 0.0000000e+00 
0.0000000e+00 -8.1037564e-07 0.0000000e+00 
0.0000000e+00 -1.0037447e-06 0.0000000e+00 
0.0000000e+00 -4.4078976e-07 0.0000000e+00 
0.0000000e+00 2.1036547e-07 0.0000000e+00 
0.0000000e+00 3.8658555e-07 0.0000000e+00 
0.0000000e+00 1.6442004e-07 0.0000000e+00 
0.0000000e+00 -1.1887955e-08 0.0000000e+00 
0.0000000e+00 6.6535549e-08 0.0000000e+00 
0.0000000e+00 1.9660278e-07 0.0000000e+00 
0.0000000e+00 1.2725624e-07 0.0000000e+00 
0.0000000e+00 -8.3205663e-08 0.0000000e+00 
0.0000000e+00 -1.6518730e-07 0.0000000e+00 
0.0000000e+00 -1.6536315e-08 0.0000000e+00 
0.0000000e+00 1.4716341e-07 0.0000000e+00 
0.0000000e+00 6.1422668e-08 0.0000000e+00 
0.0000000e+00 -2.3711956e-07 0.0000000e+00 
0.0000000e+00 -4.1503242e-07 0.0000000e+00 
0.0000000e+00 -2.1410041e-07 0.0000000e+00 
0.0000000e+00 2.2725483e-07 0.0000000e+00 
0.0000000e+00 4.6849723e-07 0.0000000e+00 
0.0000000e+00 3.3234212e-06 0.0000000e+00 
0.0000000e+00 3.4716027e-06 0.0000000e+00 
0.0000000e+00 3.2116109e-06 0.0000000e+00 
0.0000000e+00 1.5238147e-06 0.0000000e+00 
0.0000000e+00 -1.6075286e-06 0.0000000e+00 
0.0000000e+00 -4.7392259e-06 0.0000000e+00 
0.0000000e+00 -5.8432624e-06 0.0000000e+00 
0.0000000e+00 -3.9266847e-06 0.0000000e+00 
0.0000000e+00 -5.8901648e-08 0.0000000e+00 
0.0000000e+00 3.1549118e-06 0.0000000e+00 
0.0000000e+00 3.3944482e-06 0.0000000e+00 
0.0000000e+00 4.1354778e-07 0.0000000e+00 
0.0000000e+00 -3.5859348e-06 0.0000000e+00 
0.0000000e+00 -5.3800136e-06 0.0000000e+00 
0.0000000e+00 -3.0011333e-06 0.0000000e+00 
0.0000000e+00 2.7638318e-06 0.0000000e+00 
0.0000000e+00 8.7724466e-06 0.0000000e+00 
0.0000000e+00 1.1544826e-05 0.0000000e+00 
0.0000000e+00 9.4247680e-06 0.0000000e+00 
0.0000000e+00 3.3781980e-06 0.0000000e+00 
0.0000000e+00 -3.9453676e-06 0.0000000e+00 
0.0000000e+00 -9.9555000e-06 0.0000000e+00 
0.0000000e+00 -1.3298386e-05 0.0000000e+00 
0.0000000e+00 -1.3778020e-05 0.0000000e+00 
0.0000000e+00 -1.1488150e-05 0.0000000e+00 
0.0000000e+00 -6.2894446e-06 0.0000000e+00 
0.0000000e+00 1.6639603e-06 0.0000000e+00 
0.0000000e+00 1.0857449e-05 0.0000000e+00 
0.0000000e+00 1.8146580e-05 0.0000000e+00 
0.0000000e+00 2.0090491e-05 0.0000000e+00 
0.0000000e+00 1.5175707e-05 0.0000000e+00 
0.0000000e+00 5.2116070e-06 0.0000000e+00 
0.0000000e+00 -5.3220497e-06 0.0000000e+00 
0.0000000e+00 -1.1706857e-05 0.0000000e+00 
0.0000000e+00 -1.1701239e-05 0.0000000e+00 
0.0000000e+00 -6.8178388e-06 0.0000000e+00 
0.0000000e+00 -1.2560341e-06 0.0000000e+00 
0.0000000e+00 9.1034212e-07 0.0000000e+00 
0.0000000e+00 -1.6266173e-06 0.0000000e+00 
0.0000000e+00 -6.8059558e-06 0.0000000e+00 
0.0000000e+00 -1.0898678e-05 0.0000000e+00 
0.0000000e+00 -1.1065980e-05 0.0000000e+00 
0.0000000e+00 -7.0070519e-06 0.0000000e+00 
0.0000000e+00 -8.6479440e-07 0.0000000e+00 
0.0000000e+00 4.3498821e-06 0.0000000e+00 
0.0000000e+00 6.7687060e-06 0.0000000e+00 
0.0000000e+00 6.6720413e-06 0.0000000e+00 
0.0000000e+00 5.6812441e-06 0.0000000e+00 
0.0000000e+00 5.0177246e-06 0.0000000e+00 
0.0000000e+00 4.6280097e-06 0.0000000e+00 
0.0000000e+00 3.6024405e-06 0.0000000e+00 
0.0000000e+00 1.2479228e-06 0.0000000e+00 
0.0000000e+00 -9.1940854e-07 0.0000000e+00 
0.0000000e+00 -1.9580784e-06 0.0000000e+00 
0.0000000e+00 -3.9933011e-06 0.0000000e+00 
0.0000000e+00 -9.2161699e-06 0.0000000e+00 
0.0000000e+00 -1.7987064e-05 0.0000000e+00 
0.0000000e+00 -2.7205544e-05 0.0000000e+00 
0.0000000e+00 -3.0476807e-05 0.0000000e+00 
0.0000000e+00 -2.6446010e-05 0.0000000e+00 
0.0000000e+00 -2.2225444e-05 0.0000000e+00 
0.0000000e+00 -2.7091790e-05 0.0000000e+00 
0.0000000e+00 -4.2595013e-05 0.0000000e+00 
0.0000000e+00 -5.8060992e-05 0.0000000e+00 
0.0000000e+00 -5.8409198e-05 0.0000000e+00 
0.0000000e+00 -4.1045445e-05 0.0000000e+00 
0.0000000e+00 -1.9839077e-05 0.0000000e+00 
0.0000000e+00 -1.2167216e-05 0.0000000e+00 
0.0000000e+00 -2.0843498e-05 0.0000000e+00 
0.0000000e+00 -2.1566913e-05 0.0000000e+00 
0.0000000e+00 2.1441303e-05 0.0000000e+00 
0.0000000e+00 1.0071695e-04 0.0000000e+00 
0.0000000e+00 1.4728223e-04 0.0000000e+00 
0.0000000e+00 8.3027000e-05 0.0000000e+00 
0.0000000e+00 -1.3367803e-04 0.0000000e+00 
0.0000000e+00 -5.0425396e-04 0.0000000e+00 
0.0000000e+00 -1.0493638e-03 0.0000000e+00 
0.0000000e+00 -1.8454707e-03 0.0000000e+00 
0.0000000e+00 -2.9528118e-03 0.0000000e+00 
0.0000000e+00 -4.2508016e-03 0.0000000e+00 
0.0000000e+00 -5.1452974e-03 0.0000000e+00 
0.0000000e+00 -4.9451208e-03 0.0000000e+00 
0.0000000e+00 -4.4318382e-03 0.0000000e+00 
0.0000000e+00 -4.3212171e-03 0.0000000e+00 
0.0000000e+00 -4.6505406e-03 0.0000000e+00 
0.0000000e+00 -4.7163693e-03 0.0000000e+00 
0.0000000e+00 -3.6853624e-03 0.0000000e+00 
0.0000000e+00 -2.2489477e-03 0.0000000e+00 
0.0000000e+00 -1.0339121e-03 0.0000000e+00 
0.0000000e+00 -2.6418915e-04 0.0000000e+00 
0.0000000e+00 1.0172138e-04 0.0000000e+00 
0.0000000e+00 2.1053087e-04 0.0000000e+00 
0.0000000e+00 1.9434742e-04 0.0000000e+00 
0.0000000e+00 1.3189869e-04 0.0000000e+00 
0.0000000e+00 5.9753547e-05 0.0000000e+00 
0.0000000e+00 -3.1838380e-07 0.0000000e+00 
0.0000000e+00 -3.4635337e-05 0.0000000e+00 
0.0000000e+00 -4.4598855e-05 0.0000000e+00 
0.0000000e+00 -4.6084435e-05 0.0000000e+00 
0.0000000e+00 -4.9381499e-05 0.0000000e+00 
0.0000000e+00 -4.7659665e-05 0.0000000e+00 
0.0000000e+00 -3.5864243e-05 0.0000000e+00 
0.0000000e+00 -2.7440825e-05 0.0000000e+00 
0.0000000e+00 -3.4297416e-05 0.0000000e+00 
0.0000000e+00 -4.7422796e-05 0.0000000e+00 
0.0000000e+00 -4.7550140e-05 0.0000000e+00 
0.0000000e+00 -2.4509402e-05 0.0000000e+00 
0.0000000e+00 7.4770192e-06 0.0000000e+00 
0.0000000e+00 2.2002445e-05 0.0000000e+00 
0.0000000e+00 1.3976364e-05 0.0000000e+00 
0.0000000e+00 9.3823455e-06 0.0000000e+00 
0.0000000e+00 3.7663453e-05 0.0000000e+00 
0.0000000e+00 8.9307709e-05 0.0000000e+00 
0.0000000e+00 7.8965379e-05 0.0000000e+00 
0.0000000e+00 -1.1955254e-04 0.0000000e+00 
0.0000000e+00 -5.7153078e-04 0.0000000e+00 
0.0000000e+00 -1.2671626e-03 0.0000000e+00 
0.0000000e+00 -2.1896607e-03 0.0000000e+00 
0.0000000e+00 -3.3043877e-03 0.0000000e+00 
0.0000000e+00 -4.4486257e-03 0.0000000e+00 
0.0000000e+00 -5.0966539e-03 0.0000000e+00 
0.0000000e+00 -4.8169559e-03 0.0000000e+00 
0.0000000e+00 -4.3712105e-03 0.0000000e+00 
0.0000000e+00 -4.3218462e-03 0.0000000e+00 
0.0000000e+00 -4.5764036e-03 0.0000000e+00 
0.0000000e+00 -4.4878866e-03 0.0000000e+00 
0.0000000e+00 -3.3845964e-03 0.0000000e+00 
0.0000000e+00 -1.9902629e-03 0.0000000e+00 
0.0000000e+00 -8.8840292e-04 0.0000000e+00 
0.0000000e+00 -2.2388737e-04 0.0000000e+00 
0.0000000e+00 9.1828202e-05 0.0000000e+00 
0.0000000e+00 2.0047957e-04 0.0000000e+00 
0.0000000e+00 1.9730220e-04 0.0000000e+00 
0.0000000e+00 1.3700350e-04 0.0000000e+00 
0.0000000e+00 6.4522770e-05 0.0000000e+00 
0.0000000e+00 1.5966643e-05 0.0000000e+00 
0.0000000e+00 -1.0100091e-06 0.0000000e+00 
0.0000000e+00 -1.5735274e-06 0.0000000e+00 
0.0000000e+00 -1.2618657e-06 0.0000000e+00 
0.0000000e+00 -3.0119097e-06 0.0000000e+00 
0.0000000e+00 -2.3278628e-06 0.0000000e+00 
0.0000000e+00 1.9753797e-06 0.0000000e+00 
0.0000000e+00 5.1197007e-06 0.0000000e+00 
0.0000000e+00 3.5336805e-06 0.0000000e+00 
0.0000000e+00 -8.8400355e-08 0.0000000e+00 
0.0000000e+00 -1.2343335e-06 0.0000000e+00 
0.0000000e+00 6.7466340e-07 0.0000000e+00 
0.0000000e+00 2.5547508e-06 0.0000000e+00 
0.0000000e+00 1.9251747e-06 0.0000000e+00 
0.0000000e+00 -3.7813658e-07 0.0000000e+00 
0.0000000e+00 -1.8241533e-06 0.0000000e+00 
0.0000000e+00 -1.6751470e-06 0.0000000e+00 
0.0000000e+00 -1.5060194e-06 0.0000000e+00 
0.0000000e+00 -2.4664432e-06 0.0000000e+00 
0.0000000e+00 -3.7126706e-06 0.0000000e+00 
0.0000000e+00 -3.5894182e-06 0.0000000e+00 
0.0000000e+00 -1.7814195e-06 0.0000000e+00 
0.0000000e+00 2.8076607e-07 0.0000000e+00 
0.0000000e+00 1.0925179e-06 0.0000000e+00 
0.0000000e+00 6.3412557e-07 0.0000000e+00 
0.0000000e+00 4.3688797e-08 0.0000000e+00 
0.0000000e+00 8.9662514e-08 0.0000000e+00 
0.0000000e+00 4.1913393e-07 0.0000000e+00 
0.0000000e+00 3.2025599e-07 0.0000000e+00 
0.0000000e+00 -1.9623225e-07 0.0000000e+00 
0.0000000e+00 -4.1564832e-07 0.0000000e+00 
0.0000000e+00 8.1796493e-08 0.0000000e+00 
0.0000000e+00 7.9727073e-07 0.0000000e+00 
0.0000000e+00 8.7005805e-07 0.0000000e+00 
0.0000000e+00 1.0617140e-07 0.0000000e+00 
0.0000000e+00 -7.8386762e-07 0.0000000e+00 
0.0000000e+00 -9.8840405e-07 0.0000000e+00 
0.0000000e+00 -4.4877677e-07 0.0000000e+00 
0.0000000e+00 1.9464835e-07 0.0000000e+00 
0.0000000e+00 3.8238204e-07 0.0000000e+00 
0.0000000e+00 1.7179940e-07 0.0000000e+00 
0.0000000e+00 -7.0377451e-09 0.0000000e+00 
0.0000000e+00 6.1574177e-08 0.0000000e+00 
0.0000000e+00 1.8965447e-07 0.0000000e+00 
0.0000000e+00 1.2893285e-07 0.0000000e+00 
0.0000000e+00 -7.3779248e-08 0.0000000e+00 
0.0000000e+00 -1.5872388e-07 0.0000000e+00 
0.0000000e+00 -2.0169267e-08 0.0000000e+00 
0.0000000e+00 1.3770124e-07 0.0000000e+00 
0.0000000e+00 5.6011125e-08 0.0000000e+00 
0.0000000e+00 -2.3381241e-07 0.0000000e+00 
0.0000000e+00 -4.0723967e-07 0.0000000e+00 
0.0000000e+00 -2.0945565e-07 0.0000000e+00 
0.0000000e+00 2.2517436e-07 0.0000000e+00 
0.0000000e+00 4.6295784e-07 0.0000000e+00 
0.0000000e+00 0.0000000e+00 0.0000000e+00 
0.0000000e+00 0.0000000e+00 0.0000000e+00 
0.0000000e+00 0.0000000e+00 0.0000000e+00 
0.0000000e+00 0.0000000e+00 0.0000000e+00 
0.0000000e+00 0.0000000e+00 0.0000000e+00 
0.0000000e+00 0.0000000e+00 0.0000000e+00 
0.0000000e+00 0.0000000e+00 0.0000000e+00 
0.0000000e+00 0.0000000e+00 0.0000000e+00 
0.0000000e+00 0.0000000e+00 0.0000000e+00 
0.0000000e+00 0.0000000e+00 0.0000000e+00 
0.0000000e+00 0.0000000e+00 0.0000000e+00 
0.0000000e+00 0.0000000e+00 0.0000000e+00 
0.0000000e+00 0.0000000e+00 0.0000000e+00 
0.0000000e+00 0.0000000e+00 0.0000000e+00 
0.0000000e+00 0.0000000e+00 0.0000000e+00 
0.0000000e+00 0.0000000e+00 0.0000000e+00 
0.0000000e+00 0.0000000e+00 0.0000000e+00 
0.0000000e+00 0.0000000e+00 0.0000000e+00 
0.0000000e+00 0.0000000e+00 0.0000000e+00 
0.0000000e+00 0.0000000e+00 0.0000000e+00 
0.0000000e+00 0.0000000e+00 0.0000000e+00 
0.0000000e+00 0.0000000e+00 0.0000000e+00 
0.0000000e+00 0.0000000e+00 0.0000000e+00 
0.0000000e+00 0.0000000e+00 0.0000000e+00 
0.0000000e+00 0.0000000e+00 0.0000000e+00 
0.0000000e+00 0.0000000e+00 0.0000000e+00 
0.0000000e+00 0.0000000e+00 0.0000000e+00 
0.0000000e+00 0.0000000e+00 0.0000000e+00 
0.0000000e+00 0.0000000e+00 0.0000000e+00 
0.0000000e+00 0.0000000e+00 0.0000000e+00 
0.0000000e+00 0.0000000e+00 0.0000000e+00 
0.0000000e+00 0.0000000e+00 0.0000000e+00 
0.0000000e+00 0.0000000e+00 0.0000000e+00 
0.0000000e+00 0.0000000e+00 0.0000000e+00 
0.0000000e+00 0.0000000e+00 0.0000000e+00 
0.0000000e+00 0.0000000e+00 0.0000000e+00 
0.0000000e+00 0.0000000e+00 0.0000000e+00 
0.0000000e+00 0.0000000e+00 0.0000000e+00 
0.0000000e+00 0.0000000e+00 0.0000000e+00 
0.0000000e+00 0.0000000e+00 0.0000000e+00 
0.0000000e+00 0.0000000e+00 0.0000000e+00 
0.0000000e+00 0.0000000e+00 0.0000000e+00 
0.0000000e+00 0.0000000e+00 0.0000000e+00 
0.0000000e+00 0.0000000e+00 0.0000000e+00 
0.0000000e+00 0.0000000e+00 0.0000000e+00 
0.0000000e+00 0.0000000e+00 0.0000000e+00 
0.0000000e+00 0.0000000e+00 0.0000000e+00 
0.0000000e+00 0.0000000e+00 0.0000000e+00 
0.0000000e+00 0.0000000e+00 0.0000000e+00 
0.0000000e+00 0.0000000e+00 0.0000000e+00 
0.0000000e+00 0.0000000e+00 0.0000000e+00 
0.0000000e+00 0.0000000e+00 0.0000000e+00 
0.0000000e+00 0.0000000e+00 0.0000000e+00 
0.0000000e+00 0.0000000e+00 0.0000000e+00 
0.0000000e+00 0.0000000e+00 0.0000000e+00 
0.0000000e+00 0.0000000e+00 0.0000000e+00 
0.0000000e+00 0.0000000e+00 0.0000000e+00 