# vtk DataFile Version 4.0
vtk output
ASCII
DATASET UNSTRUCTURED_GRID
POINTS 2186 float
0.0000000e+00 0.0000000e+00 0.0000000e+00 
0.0000000e+00 0.0000000e+00 5.0000000e+01 
5.0000000e+00 0.0000000e+00 0.0000000e+00 
5.0000000e+00 0.0000000e+00 5.0000000e+01 
5.0000000e+00 1.0000000e+00 0.0000000e+00 
5.0000000e+00 1.0000000e+00 5.0000000e+01 
0.0000000e+00 1.0000000e+00 0.0000000e+00 
0.0000000e+00 1.0000000e+00 5.0000000e+01 
5.0000000e+00 2.0000000e+00 0.0000000e+00 
5.0000000e+00 2.0000000e+00 5.0000000e+01 
3.0000000e+00 2.0000000e+00 0.0000000e+00 
3.0000000e+00 2.0000000e+00 5.0000000e+01 
0.0000000e+00 2.0000000e+00 0.0000000e+00 
0.0000000e+00 2.0000000e+00 5.0000000e+01 
1.5000000e+00 3.0000000e+00 0.0000000e+00 
1.5000000e+00 3.0000000e+00 5.0000000e+01 
7.5000000e-01 3.0000000e+00 0.0000000e+00 
7.5000000e-01 3.0000000e+00 5.0000000e+01 
0.0000000e+00 3.0000000e+00 0.0000000e+00 
0.0000000e+00 3.0000000e+00 5.0000000e+01 
7.5000000e-01 3.0000000e+00 -2.5000000e+01 
7.5000000e-01 3.0000000e+00 -2.4500000e+01 
7.5000000e-01 3.0000000e+00 -2.4000000e+01 
7.5000000e-01 3.0000000e+00 -2.3500000e+01 
7.5000000e-01 3.0000000e+00 -2.3000000e+01 
7.5000000e-01 3.0000000e+00 -2.2500000e+01 
7.5000000e-01 3.0000000e+00 -2.2000000e+01 
7.5000000e-01 3.0000000e+00 -2.1500000e+01 
7.5000000e-01 3.0000000e+00 -2.1000000e+01 
7.5000000e-01 3.0000000e+00 -2.0500000e+01 
7.5000000e-01 3.0000000e+00 -2.0000000e+01 
7.5000000e-01 3.0000000e+00 -1.9500000e+01 
7.5000000e-01 3.0000000e+00 -1.9000000e+01 
7.5000000e-01 3.0000000e+00 -1.8500000e+01 
7.5000000e-01 3.0000000e+00 -1.8000000e+01 
7.5000000e-01 3.0000000e+00 -1.7500000e+01 
7.5000000e-01 3.0000000e+00 -1.7000000e+01 
7.5000000e-01 3.0000000e+00 -1.6500000e+01 
7.5000000e-01 3.0000000e+00 -1.6000000e+01 
7.5000000e-01 3.0000000e+00 -1.5500000e+01 
7.5000000e-01 3.0000000e+00 -1.5000000e+01 
7.5000000e-01 3.0000000e+00 -1.4500000e+01 
7.5000000e-01 3.0000000e+00 -1.4000000e+01 
7.5000000e-01 3.0000000e+00 -1.3500000e+01 
7.5000000e-01 3.0000000e+00 -1.3000000e+01 
7.5000000e-01 3.0000000e+00 -1.2500000e+01 
7.5000000e-01 3.0000000e+00 -1.2000000e+01 
7.5000000e-01 3.0000000e+00 -1.1500000e+01 
7.5000000e-01 3.0000000e+00 -1.1000000e+01 
7.5000000e-01 3.0000000e+00 -1.0500000e+01 
7.5000000e-01 3.0000000e+00 -1.0000000e+01 
7.5000000e-01 3.0000000e+00 -9.5000000e+00 
7.5000000e-01 3.0000000e+00 -9.0000000e+00 
7.5000000e-01 3.0000000e+00 -8.5000000e+00 
7.5000000e-01 3.0000000e+00 -8.0000000e+00 
7.5000000e-01 3.0000000e+00 -7.5000000e+00 
7.5000000e-01 3.0000000e+00 -7.0000000e+00 
7.5000000e-01 3.0000000e+00 -6.5000000e+00 
7.5000000e-01 3.0000000e+00 -6.0000000e+00 
7.5000000e-01 3.0000000e+00 -5.5000000e+00 
7.5000000e-01 3.0000000e+00 -5.0000000e+00 
7.5000000e-01 3.0000000e+00 -4.5000000e+00 
7.5000000e-01 3.0000000e+00 -4.0000000e+00 
7.5000000e-01 3.0000000e+00 -3.5000000e+00 
7.5000000e-01 3.0000000e+00 -3.0000000e+00 
7.5000000e-01 3.0000000e+00 -2.5000000e+00 
7.5000000e-01 3.0000000e+00 -2.0000000e+00 
7.5000000e-01 3.0000000e+00 -1.5000000e+00 
7.5000000e-01 3.0000000e+00 -1.0000000e+00 
7.5000000e-01 3.0000000e+00 -5.0000000e-01 
7.5000000e-01 3.0000000e+00 5.0000000e-01 
7.5000000e-01 3.0000000e+00 1.0000000e+00 
7.5000000e-01 3.0000000e+00 1.5000000e+00 
7.5000000e-01 3.0000000e+00 2.0000000e+00 
7.5000000e-01 3.0000000e+00 2.5000000e+00 
7.5000000e-01 3.0000000e+00 3.0000000e+00 
7.5000000e-01 3.0000000e+00 3.5000000e+00 
7.5000000e-01 3.0000000e+00 4.0000000e+00 
7.5000000e-01 3.0000000e+00 4.5000000e+00 
7.5000000e-01 3.0000000e+00 5.0000000e+00 
7.5000000e-01 3.0000000e+00 5.5000000e+00 
7.5000000e-01 3.0000000e+00 6.0000000e+00 
7.5000000e-01 3.0000000e+00 6.5000000e+00 
7.5000000e-01 3.0000000e+00 7.0000000e+00 
7.5000000e-01 3.0000000e+00 7.5000000e+00 
7.5000000e-01 3.0000000e+00 8.0000000e+00 
7.5000000e-01 3.0000000e+00 8.5000000e+00 
7.5000000e-01 3.0000000e+00 9.0000000e+00 
7.5000000e-01 3.0000000e+00 9.5000000e+00 
7.5000000e-01 3.0000000e+00 1.0000000e+01 
7.5000000e-01 3.0000000e+00 1.0500000e+01 
7.5000000e-01 3.0000000e+00 1.1000000e+01 
7.5000000e-01 3.0000000e+00 1.1500000e+01 
7.5000000e-01 3.0000000e+00 1.2000000e+01 
7.5000000e-01 3.0000000e+00 1.2500000e+01 
7.5000000e-01 3.0000000e+00 1.3000000e+01 
7.5000000e-01 3.0000000e+00 1.3500000e+01 
7.5000000e-01 3.0000000e+00 1.4000000e+01 
7.5000000e-01 3.0000000e+00 1.4500000e+01 
7.5000000e-01 3.0000000e+00 1.5000000e+01 
7.5000000e-01 3.0000000e+00 1.5500000e+01 
7.5000000e-01 3.0000000e+00 1.6000000e+01 
7.5000000e-01 3.0000000e+00 1.6500000e+01 
7.5000000e-01 3.0000000e+00 1.7000000e+01 
7.5000000e-01 3.0000000e+00 1.7500000e+01 
7.5000000e-01 3.0000000e+00 1.8000000e+01 
7.5000000e-01 3.0000000e+00 1.8500000e+01 
7.5000000e-01 3.0000000e+00 1.9000000e+01 
7.5000000e-01 3.0000000e+00 1.9500000e+01 
7.5000000e-01 3.0000000e+00 2.0000000e+01 
7.5000000e-01 3.0000000e+00 2.0500000e+01 
7.5000000e-01 3.0000000e+00 2.1000000e+01 
7.5000000e-01 3.0000000e+00 2.1500000e+01 
7.5000000e-01 3.0000000e+00 2.2000000e+01 
7.5000000e-01 3.0000000e+00 2.2500000e+01 
7.5000000e-01 3.0000000e+00 2.3000000e+01 
7.5000000e-01 3.0000000e+00 2.3500000e+01 
7.5000000e-01 3.0000000e+00 2.4000000e+01 
7.5000000e-01 3.0000000e+00 2.4500000e+01 
7.5000000e-01 3.0000000e+00 2.5000000e+01 
7.5000000e-01 3.0000000e+00 2.5500000e+01 
7.5000000e-01 3.0000000e+00 2.6000000e+01 
7.5000000e-01 3.0000000e+00 2.6500000e+01 
7.5000000e-01 3.0000000e+00 2.7000000e+01 
7.5000000e-01 3.0000000e+00 2.7500000e+01 
7.5000000e-01 3.0000000e+00 2.8000000e+01 
7.5000000e-01 3.0000000e+00 2.8500000e+01 
7.5000000e-01 3.0000000e+00 2.9000000e+01 
7.5000000e-01 3.0000000e+00 2.9500000e+01 
7.5000000e-01 3.0000000e+00 3.0000000e+01 
7.5000000e-01 3.0000000e+00 3.0500000e+01 
7.5000000e-01 3.0000000e+00 3.1000000e+01 
7.5000000e-01 3.0000000e+00 3.1500000e+01 
7.5000000e-01 3.0000000e+00 3.2000000e+01 
7.5000000e-01 3.0000000e+00 3.2500000e+01 
7.5000000e-01 3.0000000e+00 3.3000000e+01 
7.5000000e-01 3.0000000e+00 3.3500000e+01 
7.5000000e-01 3.0000000e+00 3.4000000e+01 
7.5000000e-01 3.0000000e+00 3.4500000e+01 
7.5000000e-01 3.0000000e+00 3.5000000e+01 
7.5000000e-01 3.0000000e+00 3.5500000e+01 
7.5000000e-01 3.0000000e+00 3.6000000e+01 
7.5000000e-01 3.0000000e+00 3.6500000e+01 
7.5000000e-01 3.0000000e+00 3.7000000e+01 
7.5000000e-01 3.0000000e+00 3.7500000e+01 
7.5000000e-01 3.0000000e+00 3.8000000e+01 
7.5000000e-01 3.0000000e+00 3.8500000e+01 
7.5000000e-01 3.0000000e+00 3.9000000e+01 
7.5000000e-01 3.0000000e+00 3.9500000e+01 
7.5000000e-01 3.0000000e+00 4.0000000e+01 
7.5000000e-01 3.0000000e+00 4.0500000e+01 
7.5000000e-01 3.0000000e+00 4.1000000e+01 
7.5000000e-01 3.0000000e+00 4.1500000e+01 
7.5000000e-01 3.0000000e+00 4.2000000e+01 
7.5000000e-01 3.0000000e+00 4.2500000e+01 
7.5000000e-01 3.0000000e+00 4.3000000e+01 
7.5000000e-01 3.0000000e+00 4.3500000e+01 
7.5000000e-01 3.0000000e+00 4.4000000e+01 
7.5000000e-01 3.0000000e+00 4.4500000e+01 
7.5000000e-01 3.0000000e+00 4.5000000e+01 
7.5000000e-01 3.0000000e+00 4.5500000e+01 
7.5000000e-01 3.0000000e+00 4.6000000e+01 
7.5000000e-01 3.0000000e+00 4.6500000e+01 
7.5000000e-01 3.0000000e+00 4.7000000e+01 
7.5000000e-01 3.0000000e+00 4.7500000e+01 
7.5000000e-01 3.0000000e+00 4.8000000e+01 
7.5000000e-01 3.0000000e+00 4.8500000e+01 
7.5000000e-01 3.0000000e+00 4.9000000e+01 
7.5000000e-01 3.0000000e+00 4.9500000e+01 
7.5000000e-01 3.0000000e+00 5.0500000e+01 
7.5000000e-01 3.0000000e+00 5.1000000e+01 
7.5000000e-01 3.0000000e+00 5.1500000e+01 
7.5000000e-01 3.0000000e+00 5.2000000e+01 
7.5000000e-01 3.0000000e+00 5.2500000e+01 
7.5000000e-01 3.0000000e+00 5.3000000e+01 
7.5000000e-01 3.0000000e+00 5.3500000e+01 
7.5000000e-01 3.0000000e+00 5.4000000e+01 
7.5000000e-01 3.0000000e+00 5.4500000e+01 
7.5000000e-01 3.0000000e+00 5.5000000e+01 
7.5000000e-01 3.0000000e+00 5.5500000e+01 
7.5000000e-01 3.0000000e+00 5.6000000e+01 
7.5000000e-01 3.0000000e+00 5.6500000e+01 
7.5000000e-01 3.0000000e+00 5.7000000e+01 
7.5000000e-01 3.0000000e+00 5.7500000e+01 
7.5000000e-01 3.0000000e+00 5.8000000e+01 
7.5000000e-01 3.0000000e+00 5.8500000e+01 
7.5000000e-01 3.0000000e+00 5.9000000e+01 
7.5000000e-01 3.0000000e+00 5.9500000e+01 
7.5000000e-01 3.0000000e+00 6.0000000e+01 
7.5000000e-01 3.0000000e+00 6.0500000e+01 
7.5000000e-01 3.0000000e+00 6.1000000e+01 
7.5000000e-01 3.0000000e+00 6.1500000e+01 
7.5000000e-01 3.0000000e+00 6.2000000e+01 
7.5000000e-01 3.0000000e+00 6.2500000e+01 
7.5000000e-01 3.0000000e+00 6.3000000e+01 
7.5000000e-01 3.0000000e+00 6.3500000e+01 
7.5000000e-01 3.0000000e+00 6.4000000e+01 
7.5000000e-01 3.0000000e+00 6.4500000e+01 
7.5000000e-01 3.0000000e+00 6.5000000e+01 
7.5000000e-01 3.0000000e+00 6.5500000e+01 
7.5000000e-01 3.0000000e+00 6.6000000e+01 
7.5000000e-01 3.0000000e+00 6.6500000e+01 
7.5000000e-01 3.0000000e+00 6.7000000e+01 
7.5000000e-01 3.0000000e+00 6.7500000e+01 
7.5000000e-01 3.0000000e+00 6.8000000e+01 
7.5000000e-01 3.0000000e+00 6.8500000e+01 
7.5000000e-01 3.0000000e+00 6.9000000e+01 
7.5000000e-01 3.0000000e+00 6.9500000e+01 
7.5000000e-01 3.0250001e+00 -2.5000000e+01 
7.5000000e-01 3.0250001e+00 -2.4500000e+01 
7.5000000e-01 3.0250001e+00 -2.4000000e+01 
7.5000000e-01 3.0250001e+00 -2.3500000e+01 
7.5000000e-01 3.0250001e+00 -2.3000000e+01 
7.5000000e-01 3.0250001e+00 -2.2500000e+01 
7.5000000e-01 3.0250001e+00 -2.2000000e+01 
7.5000000e-01 3.0250001e+00 -2.1500000e+01 
7.5000000e-01 3.0250001e+00 -2.1000000e+01 
7.5000000e-01 3.0250001e+00 -2.0500000e+01 
7.5000000e-01 3.0250001e+00 -2.0000000e+01 
7.5000000e-01 3.0250001e+00 -1.9500000e+01 
7.5000000e-01 3.0250001e+00 -1.9000000e+01 
7.5000000e-01 3.0250001e+00 -1.8500000e+01 
7.5000000e-01 3.0250001e+00 -1.8000000e+01 
7.5000000e-01 3.0250001e+00 -1.7500000e+01 
7.5000000e-01 3.0250001e+00 -1.7000000e+01 
7.5000000e-01 3.0250001e+00 -1.6500000e+01 
7.5000000e-01 3.0250001e+00 -1.6000000e+01 
7.5000000e-01 3.0250001e+00 -1.5500000e+01 
[...]
POINT_DATA 2186
FIELD FieldData 3
DISPLACEMENT 3 2186  float
0.0000000e+00 0.0000000e+00 0.0000000e+00 
0.0000000e+00 0.0000000e+00 0.0000000e+00 
0.0000000e+00 0.0000000e+00 0.0000000e+00 
0.0000000e+00 0.0000000e+00 0.0000000e+00 
-3.6612435e-06 -5.3714439e-06 -1.8120549e-05 
4.3223762e-09 -2.9106438e-08 4.7948974e-09 
0.0000000e+00 -4.5955912e-06 0.0000000e+00 
0.0000000e+00 -1.0777513e-07 0.0000000e+00 
-1.2788155e-05 -1.1740078e-05 -1.3542026e-05 
-2.5429485e-09 -8.0594731e-09 3.8890513e-09 
-1.0904048e-05 -2.0042629e-05 2.7162918e-05 
-3.4795775e-08 -1.8299227e-08 -4.7239080e-08 
0.0000000e+00 7.2548924e-06 0.0000000e+00 
0.0000000e+00 1.9083691e-07 0.0000000e+00 
3.3267022e-06 -3.4523579e-05 6.8423629e-05 
5.7148213e-08 3.5111449e-07 3.3177592e-08 
2.7012771e-05 -8.8230838e-05 9.4578390e-05 
-1.7812246e-08 -1.3764135e-06 -9.1313474e-08 
0.0000000e+00 4.0485975e-05 0.0000000e+00 
0.0000000e+00 1.2272733e-06 0.0000000e+00 
0.0000000e+00 5.9242730e-06 0.0000000e+00 
0.0000000e+00 2.7514509e-06 0.0000000e+00 
0.0000000e+00 -4.2047550e-06 0.0000000e+00 
0.0000000e+00 -8.9889127e-06 0.0000000e+00 
0.0000000e+00 -5.9044169e-06 0.0000000e+00 
0.0000000e+00 4.4857434e-06 0.0000000e+00 
0.0000000e+00 1.3114503e-05 0.0000000e+00 
0.0000000e+00 9.7285392e-06 0.0000000e+00 
0.0000000e+00 -5.4173970e-06 0.0000000e+00 
0.0000000e+00 -1.8778608e-05 0.0000000e+00 
0.0000000e+00 -1.5505233e-05 0.0000000e+00 
0.0000000e+00 4.5815518e-06 0.0000000e+00 
0.0000000e+00 2.4237568e-05 0.0000000e+00 
0.0000000e+00 2.3936323e-05 0.0000000e+00 
0.0000000e+00 9.5045846e-07 0.0000000e+00 
0.0000000e+00 -2.6372611e-05 0.0000000e+00 
0.0000000e+00 -3.3937362e-05 0.0000000e+00 
0.0000000e+00 -1.3184012e-05 0.0000000e+00 
0.0000000e+00 2.0659063e-05 0.0000000e+00 
0.0000000e+00 4.0593233e-05 0.0000000e+00 
0.0000000e+00 2.9915564e-05 0.0000000e+00 
0.0000000e+00 -4.0624809e-06 0.0000000e+00 
0.0000000e+00 -3.5801040e-05 0.0000000e+00 
0.0000000e+00 -4.1817748e-05 0.0000000e+00 
0.0000000e+00 -1.8727515e-05 0.0000000e+00 
0.0000000e+00 1.5358131e-05 0.0000000e+00 
0.0000000e+00 3.6170994e-05 0.0000000e+00 
0.0000000e+00 3.1820302e-05 0.0000000e+00 
0.0000000e+00 9.6964977e-06 0.0000000e+00 
0.0000000e+00 -1.2071404e-05 0.0000000e+00 
0.0000000e+00 -1.9888086e-05 0.0000000e+00 
0.0000000e+00 -1.4076705e-05 0.0000000e+00 
0.0000000e+00 -5.7976067e-06 0.0000000e+00 
0.0000000e+00 -5.1056682e-06 0.0000000e+00 
0.0000000e+00 -1.0833512e-05 0.0000000e+00 
0.0000000e+00 -1.1694976e-05 0.0000000e+00 
0.0000000e+00 1.8226164e-06 0.0000000e+00 
0.0000000e+00 2.5855472e-05 0.0000000e+00 
0.0000000e+00 4.3635828e-05 0.0000000e+00 
0.0000000e+00 3.8687409e-05 0.0000000e+00 
0.0000000e+00 9.3481549e-06 0.0000000e+00 
0.0000000e+00 -2.7929900e-05 0.0000000e+00 
0.0000000e+00 -4.9552484e-05 0.0000000e+00 
0.0000000e+00 -4.2176489e-05 0.0000000e+00 
0.0000000e+00 -1.3642620e-05 0.0000000e+00 
0.0000000e+00 1.1947594e-05 0.0000000e+00 
0.0000000e+00 1.2652091e-05 0.0000000e+00 
0.0000000e+00 -1.4391492e-05 0.0000000e+00 
0.0000000e+00 -5.2529758e-05 0.0000000e+00 
0.0000000e+00 -8.0643935e-05 0.0000000e+00 
-1.1841410e-05 -7.4720592e-05 5.6316396e-05 
-3.0879544e-06 -5.8516544e-05 4.0948780e-05 
1.3851473e-05 -5.3067331e-05 4.9140210e-05 
6.2515669e-06 -4.2347267e-05 1.6915421e-05 
7.2159404e-05 1.1403090e-05 2.7078411e-05 
4.7884583e-05 1.3082806e-04 3.0647319e-05 
2.7497525e-05 2.9000235e-04 4.4435554e-05 
7.7062359e-05 4.0571156e-04 1.7728335e-05 
6.3634143e-05 4.1077484e-04 5.1286126e-05 
1.5350993e-04 2.7620138e-04 1.3007849e-04 
9.9790057e-05 -1.2580370e-05 1.7055882e-04 
7.3618292e-05 -4.8534828e-04 1.3961233e-04 
-2.8709524e-06 -1.2499095e-03 3.1999772e-04 
-2.8470089e-05 -2.3972215e-03 1.4789727e-04 
-1.4693059e-04 -3.8214070e-03 2.7554063e-04 
-2.2797348e-04 -4.8507410e-03 1.0310626e-04 
-3.1633014e-04 -4.7695846e-03 4.2178694e-06 
-2.2927635e-04 -4.2725648e-03 -5.5968922e-06 
-2.0673138e-04 -4.1363197e-03 -6.0910392e-05 
-1.7946951e-04 -4.4497247e-03 -2.0836871e-04 
-2.1239233e-04 -4.6380288e-03 -2.5335845e-04 
-2.2737749e-04 -3.7618778e-03 -2.5774282e-04 
-1.9896319e-04 -2.4270937e-03 -3.9387564e-04 
-1.3609900e-04 -1.2085873e-03 -2.3920093e-04 
-4.6595072e-05 -3.9581498e-04 -2.8901358e-04 
4.7513400e-05 3.1491218e-05 -2.7943685e-04 
5.6146317e-05 1.9413569e-04 -5.8971367e-05 
4.9340277e-05 2.2474276e-04 5.7184143e-06 
2.5399249e-06 2.0400238e-04 5.9724385e-05 
-1.6825383e-06 1.5763399e-04 4.8809470e-05 
-1.3864342e-05 9.4736970e-05 4.6365974e-05 
-1.0040048e-05 3.4825200e-05 1.9155896e-05 
-5.0819490e-06 -2.0519260e-06 -7.6676606e-06 
-5.8418891e-07 -1.1725479e-05 -3.6739653e-05 
-5.7482307e-06 -4.7315802e-06 -2.1341457e-05 
3.7774689e-06 4.5435413e-06 -1.8730321e-05 
1.3664414e-05 2.5103791e-06 6.6060989e-06 
1.3890438e-05 -2.1582076e-05 2.3258386e-05 
1.0700043e-05 -6.1904830e-05 4.5601788e-05 
-5.4135517e-06 -9.4418414e-05 5.5874403e-05 
-1.7563883e-05 -9.5295414e-05 3.7117570e-05 
-2.6768680e-06 -5.8740487e-05 1.7047771e-05 
2.2360275e-05 -1.4279973e-06 1.1879693e-05 
3.7703132e-05 4.5199435e-05 4.0841096e-05 
1.1020299e-05 7.8383862e-05 1.8926925e-05 
4.0920793e-05 1.3736777e-04 2.6584055e-05 
6.4527652e-05 2.5182831e-04 4.6650242e-05 
7.6005716e-05 3.9343160e-04 1.6208628e-06 
1.0150634e-04 4.6178576e-04 4.9307077e-05 
1.0895119e-04 3.3157502e-04 1.0511583e-04 
9.7263699e-05 -6.4748470e-05 1.6188738e-04 
5.8914353e-05 -6.9532526e-04 1.6011280e-04 
-4.7736583e-05 -1.5691523e-03 3.1641001e-04 
-8.2810126e-05 -2.6991903e-03 1.6277387e-04 
-2.1865261e-04 -3.9780987e-03 2.9328812e-04 
-2.4449066e-04 -4.8335912e-03 9.4469280e-05 
-2.9321178e-04 -4.7171898e-03 -4.8223141e-05 
-2.8000024e-04 -4.3261270e-03 -5.5770728e-05 
-2.9282100e-04 -4.3188608e-03 -1.1923243e-04 
-3.0738339e-04 -4.6111969e-03 -2.6707409e-04 
-2.7742286e-04 -4.6138037e-03 -3.5004897e-04 
-2.3186789e-04 -3.5536361e-03 -2.7023343e-04 
-1.7162431e-04 -2.1692640e-03 -3.8546469e-04 
-1.0832449e-04 -1.0195237e-03 -2.2948781e-04 
-2.1613923e-05 -3.1019503e-04 -2.8331857e-04 
1.3916701e-05 4.9272803e-05 -1.5817388e-04 
4.9667484e-05 2.0216123e-04 -8.6654873e-05 
4.7049492e-05 2.4498740e-04 5.7740220e-07 
7.0142423e-06 2.2024628e-04 6.3319734e-05 
-6.8423428e-06 1.5528538e-04 5.8968184e-05 
-2.0676533e-05 8.1587248e-05 3.6614882e-05 
-1.3381040e-05 2.1676551e-05 1.7053842e-05 
2.7853803e-06 -1.7575127e-05 2.3050086e-06 
-2.5201530e-07 -3.5749672e-05 -8.1016224e-06 
2.1616115e-06 -3.3190026e-05 -3.5157188e-06 
2.5785093e-06 -1.7865927e-05 -5.1539450e-06 
-3.6631079e-06 -2.3236173e-06 -2.8483819e-06 
1.1831049e-06 4.4865401e-06 1.3626341e-06 
-2.1598150e-06 1.0656865e-06 -1.5053246e-06 
-1.0916733e-06 -4.3418390e-06 1.0343235e-07 
1.8824969e-06 -2.8956078e-06 2.0012378e-06 
3.3037128e-07 4.2145562e-06 -7.9350627e-07 
7.0317981e-07 9.0956592e-06 1.8232039e-06 
2.7086412e-07 6.6888247e-06 -2.2945950e-07 
-2.1195780e-07 -1.1871077e-06 -8.8586484e-07 
-1.7544693e-07 -7.2649536e-06 1.0326178e-06 
-4.6171763e-07 -6.7187734e-06 -1.1782330e-06 
-2.8355220e-07 -1.7855449e-06 -2.7747996e-07 
2.6861801e-07 2.9126661e-06 8.9329228e-07 
1.0795695e-07 4.5952643e-06 -3.0796255e-07 
7.3009616e-08 2.9688922e-06 1.9575926e-07 
1.5004873e-07 -9.8156811e-08 1.7545540e-07 
-1.3216825e-07 -2.4894780e-06 -4.6830894e-07 
-5.0655263e-08 -2.8861489e-06 1.1392330e-07 
8.7771888e-08 -1.0557017e-06 6.1862693e-08 
-1.5566764e-07 1.3646410e-06 -4.5061412e-08 
-2.5455575e-08 2.2932675e-06 2.1286422e-07 
3.9045009e-08 1.2749808e-06 6.2522321e-09 
-3.6756550e-08 -4.6920979e-07 -4.4501288e-08 
0.0000000e+00 -1.0212500e-06 0.0000000e+00 
0.0000000e+00 -3.7215539e-08 0.0000000e+00 
0.0000000e+00 7.5605811e-07 0.0000000e+00 
0.0000000e+00 9.4745855e-07 0.0000000e+00 
0.0000000e+00 5.7617626e-07 0.0000000e+00 
0.0000000e+00 -8.3643727e-08 0.0000000e+00 
0.0000000e+00 -6.3698508e-07 0.0000000e+00 
0.0000000e+00 -6.9664600e-07 0.0000000e+00 
0.0000000e+00 -1.9355009e-07 0.0000000e+00 
0.0000000e+00 4.3873936e-07 0.0000000e+00 
0.0000000e+00 6.0848879e-07 0.0000000e+00 
0.0000000e+00 1.8725109e-07 0.0000000e+00 
0.0000000e+00 -3.3891143e-07 0.0000000e+00 
0.0000000e+00 -4.2677328e-07 0.0000000e+00 
0.0000000e+00 -7.4055798e-08 0.0000000e+00 
0.0000000e+00 2.5812068e-07 0.0000000e+00 
0.0000000e+00 2.3452259e-07 0.0000000e+00 
0.0000000e+00 -1.7932599e-08 0.0000000e+00 
0.0000000e+00 -1.6636795e-07 0.0000000e+00 
0.0000000e+00 -9.1854183e-08 0.0000000e+00 
0.0000000e+00 4.8116679e-08 0.0000000e+00 
0.0000000e+00 8.2832209e-08 0.0000000e+00 
0.0000000e+00 1.7925730e-08 0.0000000e+00 
0.0000000e+00 -3.7304808e-08 0.0000000e+00 
0.0000000e+00 -2.9209518e-08 0.0000000e+00 
0.0000000e+00 5.3378253e-09 0.0000000e+00 
0.0000000e+00 1.7840859e-08 0.0000000e+00 
0.0000000e+00 5.6988299e-09 0.0000000e+00 
0.0000000e+00 -6.2387251e-09 0.0000000e+00 
0.0000000e+00 -5.5327622e-09 0.0000000e+00 
0.0000000e+00 5.5422683e-10 0.0000000e+00 
0.0000000e+00 2.7873530e-09 0.0000000e+00 
0.0000000e+00 8.9091484e-10 0.0000000e+00 
0.0000000e+00 -8.7994806e-10 0.0000000e+00 
0.0000000e+00 -7.2758971e-10 0.0000000e+00 
0.0000000e+00 1.1532830e-10 0.0000000e+00 
0.0000000e+00 3.6505157e-10 0.0000000e+00 
0.0000000e+00 5.8875203e-11 0.0000000e+00 
0.0000000e+00 -1.6006638e-10 0.0000000e+00 
0.0000000e+00 5.9571298e-06 0.0000000e+00 
0.0000000e+00 2.6859032e-06 0.0000000e+00 
0.0000000e+00 -4.3439140e-06 0.0000000e+00 
0.0000000e+00 -8.9532423e-06 0.0000000e+00 
0.0000000e+00 -5.6245640e-06 0.0000000e+00 
0.0000000e+00 4.7040667e-06 0.0000000e+00 
0.0000000e+00 1.2937273e-05 0.0000000e+00 
0.0000000e+00 9.2633190e-06 0.0000000e+00 
0.0000000e+00 -5.6673234e-06 0.0000000e+00 
0.0000000e+00 -1.8477051e-05 0.0000000e+00 
0.0000000e+00 -1.4902891e-05 0.0000000e+00 
0.0000000e+00 4.8764336e-06 0.0000000e+00 
0.0000000e+00 2.3892371e-05 0.0000000e+00 
0.0000000e+00 2.3245990e-05 0.0000000e+00 
0.0000000e+00 5.5412454e-07 0.0000000e+00 
0.0000000e+00 -2.6099562e-05 0.0000000e+00 
0.0000000e+00 -3.3221564e-05 0.0000000e+00 
0.0000000e+00 -1.2638257e-05 0.0000000e+00 
0.0000000e+00 2.0572670e-05 0.0000000e+00 
0.0000000e+00 3.9945862e-05 0.0000000e+00 
0.0000000e+00 2.9238938e-05 0.0000000e+00 
0.0000000e+00 -4.2222509e-06 0.0000000e+00 
0.0000000e+00 -3.5331264e-05 0.0000000e+00 
0.0000000e+00 -4.1120064e-05 0.0000000e+00 
0.0000000e+00 -1.8366098e-05 0.0000000e+00 
0.0000000e+00 1.5131468e-05 0.0000000e+00 
0.0000000e+00 3.5597277e-05 0.0000000e+00 
0.0000000e+00 3.1385622e-05 0.0000000e+00 
0.0000000e+00 9.7153152e-06 0.0000000e+00 
0.0000000e+00 -1.1677100e-05 0.0000000e+00 
0.0000000e+00 -1.9480176e-05 0.0000000e+00 
0.0000000e+00 -1.3998320e-05 0.0000000e+00 
0.0000000e+00 -6.1033493e-06 0.0000000e+00 
0.0000000e+00 -5.5099099e-06 0.0000000e+00 
0.0000000e+00 -1.0943398e-05 0.0000000e+00 
0.0000000e+00 -1.1373122e-05 0.0000000e+00 
0.0000000e+00 2.3018592e-06 0.0000000e+00 
0.0000000e+00 2.6048150e-05 0.0000000e+00 
0.0000000e+00 4.3346012e-05 0.0000000e+00 
0.0000000e+00 3.8141421e-05 0.0000000e+00 
0.0000000e+00 8.9874356e-06 0.0000000e+00 
0.0000000e+00 -2.7801949e-05 0.0000000e+00 
0.0000000e+00 -4.8996182e-05 0.0000000e+00 
0.0000000e+00 -4.1601223e-05 0.0000000e+00 
0.0000000e+00 -1.3528021e-05 0.0000000e+00 
0.0000000e+00 1.1468012e-05 0.0000000e+00 
0.0000000e+00 1.1961653e-05 0.0000000e+00 
0.0000000e+00 -1.4748585e-05 0.0000000e+00 
0.0000000e+00 -5.2412157e-05 0.0000000e+00 
0.0000000e+00 -8.0447928e-05 0.0000000e+00 
0.0000000e+00 -8.7418804e-05 0.0000000e+00 
0.0000000e+00 -7.4648138e-05 0.0000000e+00 
0.0000000e+00 -5.9497856e-05 0.0000000e+00 
0.0000000e+00 -5.4065280e-05 0.0000000e+00 
0.0000000e+00 -4.2246065e-05 0.0000000e+00 
0.0000000e+00 1.2789332e-05 0.0000000e+00 
0.0000000e+00 1.3320916e-04 0.0000000e+00 
0.0000000e+00 2.9034205e-04 0.0000000e+00 
0.0000000e+00 4.0513655e-04 0.0000000e+00 
0.0000000e+00 4.0995667e-04 0.0000000e+00 
0.0000000e+00 2.7595446e-04 0.0000000e+00 
0.0000000e+00 -9.6493159e-06 0.0000000e+00 
0.0000000e+00 -4.8490133e-04 0.0000000e+00 
0.0000000e+00 -1.2550956e-03 0.0000000e+00 
0.0000000e+00 -2.4163648e-03 0.0000000e+00 
0.0000000e+00 -3.8434656e-03 0.0000000e+00 
0.0000000e+00 -4.8832223e-03 0.0000000e+00 
0.0000000e+00 -4.7879959e-03 0.0000000e+00 
0.0000000e+00 -4.2970600e-03 0.0000000e+00 
0.0000000e+00 -4.1585425e-03 0.0000000e+00 
0.0000000e+00 -4.4821585e-03 0.0000000e+00 
0.0000000e+00 -4.6619023e-03 0.0000000e+00 
0.0000000e+00 -3.7853126e-03 0.0000000e+00 
0.0000000e+00 -2.4380079e-03 0.0000000e+00 
0.0000000e+00 -1.2197132e-03 0.0000000e+00 
0.0000000e+00 -3.9830027e-04 0.0000000e+00 
0.0000000e+00 3.2186810e-05 0.0000000e+00 
0.0000000e+00 1.9622078e-04 0.0000000e+00 
0.0000000e+00 2.2621038e-04 0.0000000e+00 
0.0000000e+00 2.0422201e-04 0.0000000e+00 
0.0000000e+00 1.5745431e-04 0.0000000e+00 
0.0000000e+00 9.5177493e-05 0.0000000e+00 
0.0000000e+00 3.5581110e-05 0.0000000e+00 
0.0000000e+00 -1.7644826e-06 0.0000000e+00 
0.0000000e+00 -1.1864957e-05 0.0000000e+00 
0.0000000e+00 -4.8136017e-06 0.0000000e+00 
0.0000000e+00 4.6107884e-06 0.0000000e+00 
0.0000000e+00 2.1007854e-06 0.0000000e+00 
0.0000000e+00 -2.2262257e-05 0.0000000e+00 
0.0000000e+00 -6.2130093e-05 0.0000000e+00 
0.0000000e+00 -9.3961200e-05 0.0000000e+00 
0.0000000e+00 -9.4508534e-05 0.0000000e+00 
0.0000000e+00 -5.8042653e-05 0.0000000e+00 
0.0000000e+00 -2.1769335e-06 0.0000000e+00 
0.0000000e+00 4.3808028e-05 0.0000000e+00 
0.0000000e+00 7.8277953e-05 0.0000000e+00 
0.0000000e+00 1.3884186e-04 0.0000000e+00 
0.0000000e+00 2.5483302e-04 0.0000000e+00 
0.0000000e+00 3.9570680e-04 0.0000000e+00 
0.0000000e+00 4.6049597e-04 0.0000000e+00 
0.0000000e+00 3.2750962e-04 0.0000000e+00 
0.0000000e+00 -6.3859268e-05 0.0000000e+00 
0.0000000e+00 -6.9533481e-04 0.0000000e+00 
0.0000000e+00 -1.5722486e-03 0.0000000e+00 
0.0000000e+00 -2.7159923e-03 0.0000000e+00 
0.0000000e+00 -4.0008402e-03 0.0000000e+00 
0.0000000e+00 -4.8692725e-03 0.0000000e+00 
0.0000000e+00 -4.7383937e-03 0.0000000e+00 
0.0000000e+00 -4.3528834e-03 0.0000000e+00 
0.0000000e+00 -4.3363143e-03 0.0000000e+00 
0.0000000e+00 -4.6405001e-03 0.0000000e+00 
0.0000000e+00 -4.6366281e-03 0.0000000e+00 
0.0000000e+00 -3.5806394e-03 0.0000000e+00 
0.0000000e+00 -2.1815507e-03 0.0000000e+00 
0.0000000e+00 -1.0289921e-03 0.0000000e+00 
0.0000000e+00 -3.1090333e-04 0.0000000e+00 
0.0000000e+00 5.1340401e-05 0.0000000e+00 
0.0000000e+00 2.0379398e-04 0.0000000e+00 
0.0000000e+00 2.4534270e-04 0.0000000e+00 
0.0000000e+00 2.2025872e-04 0.0000000e+00 
0.0000000e+00 1.5584564e-04 0.0000000e+00 
0.0000000e+00 8.2183018e-05 0.0000000e+00 
0.0000000e+00 2.1798445e-05 0.0000000e+00 
0.0000000e+00 -1.7585899e-05 0.0000000e+00 
0.0000000e+00 -3.5410481e-05 0.0000000e+00 
0.0000000e+00 -3.3062664e-05 0.0000000e+00 
0.0000000e+00 -1.8146957e-05 0.0000000e+00 
0.0000000e+00 -2.6374048e-06 0.0000000e+00 
0.0000000e+00 4.2398765e-06 0.0000000e+00 
0.0000000e+00 1.1651342e-06 0.0000000e+00 
0.0000000e+00 -3.9565657e-06 0.0000000e+00 
0.0000000e+00 -2.7614481e-06 0.0000000e+00 
0.0000000e+00 3.9914635e-06 0.0000000e+00 
0.0000000e+00 8.8751021e-06 0.0000000e+00 
0.0000000e+00 6.6038720e-06 0.0000000e+00 
0.0000000e+00 -1.0448499e-06 0.0000000e+00 
0.0000000e+00 -7.0382007e-06 0.0000000e+00 
0.0000000e+00 -6.6987923e-06 0.0000000e+00 
0.0000000e+00 -1.8850563e-06 0.0000000e+00 
0.0000000e+00 2.8402569e-06 0.0000000e+00 
0.0000000e+00 4.5365705e-06 0.0000000e+00 
0.0000000e+00 2.9722250e-06 0.0000000e+00 
0.0000000e+00 -5.3324996e-08 0.0000000e+00 
0.0000000e+00 -2.4478670e-06 0.0000000e+00 
0.0000000e+00 -2.8334891e-06 0.0000000e+00 
0.0000000e+00 -1.0603048e-06 0.0000000e+00 
0.0000000e+00 1.2960036e-06 0.0000000e+00 
0.0000000e+00 2.2467320e-06 0.0000000e+00 
0.0000000e+00 1.2850462e-06 0.0000000e+00 
0.0000000e+00 -4.2212622e-07 0.0000000e+00 
0.0000000e+00 -1.3500417e-06 0.0000000e+00 
0.0000000e+00 -1.0253542e-06 0.0000000e+00 
0.0000000e+00 -5.2284115e-08 0.0000000e+00 
0.0000000e+00 7.4521762e-07 0.0000000e+00 
0.0000000e+00 9.4261014e-07 0.0000000e+00 
0.0000000e+00 5.7325650e-07 0.0000000e+00 
0.0000000e+00 -8.0967588e-08 0.0000000e+00 
0.0000000e+00 -6.2396975e-07 0.0000000e+00 
0.0000000e+00 -6.8257992e-07 0.0000000e+00 
0.0000000e+00 -1.9552630e-07 0.0000000e+00 
0.0000000e+00 4.1975028e-07 0.0000000e+00 
0.0000000e+00 5.9339561e-07 0.0000000e+00 
0.0000000e+00 1.9361147e-07 0.0000000e+00 
0.0000000e+00 -3.1975296e-07 0.0000000e+00 
0.0000000e+00 -4.1811518e-07 0.0000000e+00 
0.0000000e+00 -8.3982776e-08 0.0000000e+00 
0.0000000e+00 2.4449719e-07 0.0000000e+00 
0.0000000e+00 2.3331187e-07 0.0000000e+00 
0.0000000e+00 -8.6820631e-09 0.0000000e+00 
0.0000000e+00 -1.6000520e-07 0.0000000e+00 
0.0000000e+00 -9.4506582e-08 0.0000000e+00 
0.0000000e+00 4.2468479e-08 0.0000000e+00 
0.0000000e+00 8.1507984e-08 0.0000000e+00 
0.0000000e+00 2.0720673e-08 0.0000000e+00 
0.0000000e+00 -3.5122298e-08 0.0000000e+00 
0.0000000e+00 -2.9774940e-08 0.0000000e+00 
0.0000000e+00 3.8462646e-09 0.0000000e+00 
0.0000000e+00 1.7473377e-08 0.0000000e+00 
0.0000000e+00 6.3300032e-09 0.0000000e+00 
0.0000000e+00 -5.7783938e-09 0.0000000e+00 
0.0000000e+00 -5.6593241e-09 0.0000000e+00 
0.0000000e+00 2.7677535e-10 0.0000000e+00 
0.0000000e+00 2.7383988e-09 0.0000000e+00 
0.0000000e+00 1.0015360e-09 0.0000000e+00 
0.0000000e+00 -8.1602158e-10 0.0000000e+00 
0.0000000e+00 -7.5253181e-10 0.0000000e+00 
0.0000000e+00 7.9188371e-11 0.0000000e+00 
0.0000000e+00 3.6066261e-10 0.0000000e+00 
0.0000000e+00 6.8099477e-11 0.0000000e+00 
0.0000000e+00 -1.5328154e-10 0.0000000e+00 
0.0000000e+00 0.0000000e+00 0.0000000e+00 
0.0000000e+00 0.0000000e+00 0.0000000e+00 
0.0000000e+00 0.0000000e+00 0.0000000e+00 
0.0000000e+00 0.0000000e+00 0.0000000e+00 
0.0000000e+00 0.0000000e+00 0.0000000e+00 
0.0000000e+00 0.0000000e+00 0.0000000e+00 
0.0000000e+00 0.0000000e+00 0.0000000e+00 
0.0000000e+00 0.0000000e+00 0.0000000e+00 
0.0000000e+00 0.0000000e+00 0.0000000e+00 
0.0000000e+00 0.0000000e+00 0.0000000e+00 
0.0000000e+00 0.0000000e+00 0.0000000e+00 
0.0000000e+00 0.0000000e+00 0.0000000e+00 
0.0000000e+00 0.0000000e+00 0.0000000e+00 
0.0000000e+00 0.0000000e+00 0.0000000e+00 
0.0000000e+00 0.0000000e+00 0.0000000e+00 
0.0000000e+00 0.0000000e+00 0.0000000e+00 
0.0000000e+00 0.0000000e+00 0.0000000e+00 
0.0000000e+00 0.0000000e+00 0.0000000e+00 
0.0000000e+00 0.0000000e+00 0.0000000e+00 
0.0000000e+00 0.0000000e+00 0.0000000e+00 
0.0000000e+00 0.0000000e+00 0.0000000e+00 
0.0000000e+00 0.0000000e+00 0.0000000e+00 
0.0000000e+00 0.0000000e+00 0.0000000e+00 
0.0000000e+00 0.0000000e+00 0.0000000e+00 
0.0000000e+00 0.0000000e+00 0.0000000e+00 
0.0000000e+00 0.0000000e+00 0.0000000e+00 
0.0000000e+00 0.0000000e+00 0.0000000e+00 
0.0000000e+00 0.0000000e+00 0.0000000e+00 
0.0000000e+00 0.0000000e+00 0.0000000e+00 
0.0000000e+00 0.0000000e+00 0.0000000e+00 
0.0000000e+00 0.0000000e+00 0.0000000e+00 
0.0000000e+00 0.0000000e+00 0.0000000e+00 
0.0000000e+00 0.0000000e+00 0.0000000e+00 
0.0000000e+00 0.0000000e+00 0.0000000e+00 
0.0000000e+00 0.0000000e+00 0.0000000e+00 
0.0000000e+00 0.0000000e+00 0.0000000e+00 
0.0000000e+00 0.0000000e+00 0.0000000e+00 
0.0000000e+00 0.0000000e+00 0.0000000e+00 
0.0000000e+00 0.0000000e+00 0.0000000e+00 
0.0000000e+00 0.0000000e+00 0.0000000e+00 
0.0000000e+00 0.0000000e+00 0.0000000e+00 
0.0000000e+00 0.0000000e+00 0.0000000e+00 
0.0000000e+00 0.0000000e+00 0.0000000e+00 
0.0000000e+00 0.0000000e+00 0.0000000e+00 
0.0000000e+00 0.0000000e+00 0.0000000e+00 
0.0000000e+00 0.0000000e+00 0.0000000e+00 
0.0000000e+00 0.0000000e+00 0.0000000e+00 
0.0000000e+00 0.0000000e+00 0.0000000e+00 
0.0000000e+00 0.0000000e+00 0.0000000e+00 
0.0000000e+00 0.0000000e+00 0.0000000e+00 
0.0000000e+00 0.0000000e+00 0.0000000e+00 
0.0000000e+00 0.0000000e+00 0.0000000e+00 
0.0000000e+00 0.0000000e+00 0.0000000e+00 
0.0000000e+00 0.0000000e+00 0.0000000e+00 
0.0000000e+00 0.0000000e+00 0.0000000e+00 
0.0000000e+00 0.0000000e+00 0.0000000e+00 
0.0000000e+00 0.0000000e+00 0.0000000e+00 
0.0000000e+00 0.0000000e+00 0.0000000e+00 