# vtk DataFile Version 4.0
vtk output
ASCII
DATASET UNSTRUCTURED_GRID
POINTS 2186 float
0.0000000e+00 0.0000000e+00 0.0000000e+00 
0.0000000e+00 0.0000000e+00 5.0000000e+01 
5.0000000e+00 0.0000000e+00 0.0000000e+00 
5.0000000e+00 0.0000000e+00 5.0000000e+01 
5.0000000e+00 1.0000000e+00 0.0000000e+00 
5.0000000e+00 1.0000000e+00 5.0000000e+01 
0.0000000e+00 1.0000000e+00 0.0000000e+00 
0.0000000e+00 1.0000000e+00 5.0000000e+01 
5.0000000e+00 2.0000000e+00 0.0000000e+00 
5.0000000e+00 2.0000000e+00 5.0000000e+01 
3.0000000e+00 2.0000000e+00 0.0000000e+00 
3.0000000e+00 2.0000000e+00 5.0000000e+01 
0.0000000e+00 2.0000000e+00 0.0000000e+00 
0.0000000e+00 2.0000000e+00 5.0000000e+01 
1.5000000e+00 3.0000000e+00 0.0000000e+00 
1.5000000e+00 3.0000000e+00 5.0000000e+01 
7.5000000e-01 3.0000000e+00 0.0000000e+00 
7.5000000e-01 3.0000000e+00 5.0000000e+01 
0.0000000e+00 3.0000000e+00 0.0000000e+00 
0.0000000e+00 3.0000000e+00 5.0000000e+01 
7.5000000e-01 3.0000000e+00 -2.5000000e+01 
7.5000000e-01 3.0000000e+00 -2.4500000e+01 
7.5000000e-01 3.0000000e+00 -2.4000000e+01 
7.5000000e-01 3.0000000e+00 -2.3500000e+01 
7.5000000e-01 3.0000000e+00 -2.3000000e+01 
7.5000000e-01 3.0000000e+00 -2.2500000e+01 
7.5000000e-01 3.0000000e+00 -2.2000000e+01 
7.5000000e-01 3.0000000e+00 -2.1500000e+01 
7.5000000e-01 3.0000000e+00 -2.1000000e+01 
7.5000000e-01 3.0000000e+00 -2.0500000e+01 
7.5000000e-01 3.0000000e+00 -2.0000000e+01 
7.5000000e-01 3.0000000e+00 -1.9500000e+01 
7.5000000e-01 3.0000000e+00 -1.9000000e+01 
7.5000000e-01 3.0000000e+00 -1.8500000e+01 
7.5000000e-01 3.0000000e+00 -1.8000000e+01 
7.5000000e-01 3.0000000e+00 -1.7500000e+01 
7.5000000e-01 3.0000000e+00 -1.7000000e+01 
7.5000000e-01 3.0000000e+00 -1.6500000e+01 
7.5000000e-01 3.0000000e+00 -1.6000000e+01 
7.5000000e-01 3.0000000e+00 -1.5500000e+01 
7.5000000e-01 3.0000000e+00 -1.5000000e+01 
7.5000000e-01 3.0000000e+00 -1.4500000e+01 
7.5000000e-01 3.0000000e+00 -1.4000000e+01 
7.5000000e-01 3.0000000e+00 -1.3500000e+01 
7.5000000e-01 3.0000000e+00 -1.3000000e+01 
7.5000000e-01 3.0000000e+00 -1.2500000e+01 
7.5000000e-01 3.0000000e+00 -1.2000000e+01 
7.5000000e-01 3.0000000e+00 -1.1500000e+01 
7.5000000e-01 3.0000000e+00 -1.1000000e+01 
7.5000000e-01 3.0000000e+00 -1.0500000e+01 
7.5000000e-01 3.0000000e+00 -1.0000000e+01 
7.5000000e-01 3.0000000e+00 -9.5000000e+00 
7.5000000e-01 3.0000000e+00 -9.0000000e+00 
7.5000000e-01 3.0000000e+00 -8.5000000e+00 
7.5000000e-01 3.0000000e+00 -8.0000000e+00 
7.5000000e-01 3.0000000e+00 -7.5000000e+00 
7.5000000e-01 3.0000000e+00 -7.0000000e+00 
7.5000000e-01 3.0000000e+00 -6.5000000e+00 
7.5000000e-01 3.0000000e+00 -6.0000000e+00 
7.5000000e-01 3.0000000e+00 -5.5000000e+00 
7.5000000e-01 3.0000000e+00 -5.0000000e+00 
7.5000000e-01 3.0000000e+00 -4.5000000e+00 
7.5000000e-01 3.0000000e+00 -4.0000000e+00 
7.5000000e-01 3.0000000e+00 -3.5000000e+00 
7.5000000e-01 3.0000000e+00 -3.0000000e+00 
7.5000000e-01 3.0000000e+00 -2.5000000e+00 
7.5000000e-01 3.0000000e+00 -2.0000000e+00 
7.5000000e-01 3.0000000e+00 -1.5000000e+00 
7.5000000e-01 3.0000000e+00 -1.0000000e+00 
7.5000000e-01 3.0000000e+00 -5.0000000e-01 
7.5000000e-01 3.0000000e+00 5.0000000e-01 
7.5000000e-01 3.0000000e+00 1.0000000e+00 
7.5000000e-01 3.0000000e+00 1.5000000e+00 
7.5000000e-01 3.0000000e+00 2.0000000e+00 
7.5000000e-01 3.0000000e+00 2.5000000e+00 
7.5000000e-01 3.0000000e+00 3.0000000e+00 
7.5000000e-01 3.0000000e+00 3.5000000e+00 
7.5000000e-01 3.0000000e+00 4.0000000e+00 
7.5000000e-01 3.0000000e+00 4.5000000e+00 
7.5000000e-01 3.0000000e+00 5.0000000e+00 
7.5000000e-01 3.0000000e+00 5.5000000e+00 
7.5000000e-01 3.0000000e+00 6.0000000e+00 
7.5000000e-01 3.0000000e+00 6.5000000e+00 
7.5000000e-01 3.0000000e+00 7.0000000e+00 
7.5000000e-01 3.0000000e+00 7.5000000e+00 
7.5000000e-01 3.0000000e+00 8.0000000e+00 
7.5000000e-01 3.0000000e+00 8.5000000e+00 
7.5000000e-01 3.0000000e+00 9.0000000e+00 
7.5000000e-01 3.0000000e+00 9.5000000e+00 
7.5000000e-01 3.0000000e+00 1.0000000e+01 
7.5000000e-01 3.0000000e+00 1.0500000e+01 
7.5000000e-01 3.0000000e+00 1.1000000e+01 
7.5000000e-01 3.0000000e+00 1.1500000e+01 
7.5000000e-01 3.0000000e+00 1.2000000e+01 
7.5000000e-01 3.0000000e+00 1.2500000e+01 
7.5000000e-01 3.0000000e+00 1.3000000e+01 
7.5000000e-01 3.0000000e+00 1.3500000e+01 
7.5000000e-01 3.0000000e+00 1.4000000e+01 
7.5000000e-01 3.0000000e+00 1.4500000e+01 
7.5000000e-01 3.0000000e+00 1.5000000e+01 
7.5000000e-01 3.0000000e+00 1.5500000e+01 
7.5000000e-01 3.0000000e+00 1.6000000e+01 
7.5000000e-01 3.0000000e+00 1.6500000e+01 
7.5000000e-01 3.0000000e+00 1.7000000e+01 
7.5000000e-01 3.0000000e+00 1.7500000e+01 
7.5000000e-01 3.0000000e+00 1.8000000e+01 
7.5000000e-01 3.0000000e+00 1.8500000e+01 
7.5000000e-01 3.0000000e+00 1.9000000e+01 
7.5000000e-01 3.0000000e+00 1.9500000e+01 
7.5000000e-01 3.0000000e+00 2.0000000e+01 
7.5000000e-01 3.0000000e+00 2.0500000e+01 
7.5000000e-01 3.0000000e+00 2.1000000e+01 
7.5000000e-01 3.0000000e+00 2.1500000e+01 
7.5000000e-01 3.0000000e+00 2.2000000e+01 
7.5000000e-01 3.0000000e+00 2.2500000e+01 
7.5000000e-01 3.0000000e+00 2.3000000e+01 
7.5000000e-01 3.0000000e+00 2.3500000e+01 
7.5000000e-01 3.0000000e+00 2.4000000e+01 
7.5000000e-01 3.0000000e+00 2.4500000e+01 
7.5000000e-01 3.0000000e+00 2.5000000e+01 
7.5000000e-01 3.0000000e+00 2.5500000e+01 
7.5000000e-01 3.0000000e+00 2.6000000e+01 
7.5000000e-01 3.0000000e+00 2.6500000e+01 
7.5000000e-01 3.0000000e+00 2.7000000e+01 
7.5000000e-01 3.0000000e+00 2.7500000e+01 
7.5000000e-01 3.0000000e+00 2.8000000e+01 
7.5000000e-01 3.0000000e+00 2.8500000e+01 
7.5000000e-01 3.0000000e+00 2.9000000e+01 
7.5000000e-01 3.0000000e+00 2.9500000e+01 
7.5000000e-01 3.0000000e+00 3.0000000e+01 
7.5000000e-01 3.0000000e+00 3.0500000e+01 
7.5000000e-01 3.0000000e+00 3.1000000e+01 
7.5000000e-01 3.0000000e+00 3.1500000e+01 
7.5000000e-01 3.0000000e+00 3.2000000e+01 
7.5000000e-01 3.0000000e+00 3.2500000e+01 
7.5000000e-01 3.0000000e+00 3.3000000e+01 
7.5000000e-01 3.0000000e+00 3.3500000e+01 
7.5000000e-01 3.0000000e+00 3.4000000e+01 
7.5000000e-01 3.0000000e+00 3.4500000e+01 
7.5000000e-01 3.0000000e+00 3.5000000e+01 
7.5000000e-01 3.0000000e+00 3.5500000e+01 
7.5000000e-01 3.0000000e+00 3.6000000e+01 
7.5000000e-01 3.0000000e+00 3.6500000e+01 
7.5000000e-01 3.0000000e+00 3.7000000e+01 
7.5000000e-01 3.0000000e+00 3.7500000e+01 
7.5000000e-01 3.0000000e+00 3.8000000e+01 
7.5000000e-01 3.0000000e+00 3.8500000e+01 
7.5000000e-01 3.0000000e+00 3.9000000e+01 
7.5000000e-01 3.0000000e+00 3.9500000e+01 
7.5000000e-01 3.0000000e+00 4.0000000e+01 
7.5000000e-01 3.0000000e+00 4.0500000e+01 
7.5000000e-01 3.0000000e+00 4.1000000e+01 
7.5000000e-01 3.0000000e+00 4.1500000e+01 
7.5000000e-01 3.0000000e+00 4.2000000e+01 
7.5000000e-01 3.0000000e+00 4.2500000e+01 
7.5000000e-01 3.0000000e+00 4.3000000e+01 
7.5000000e-01 3.0000000e+00 4.3500000e+01 
7.5000000e-01 3.0000000e+00 4.4000000e+01 
7.5000000e-01 3.0000000e+00 4.4500000e+01 
7.5000000e-01 3.0000000e+00 4.5000000e+01 
7.5000000e-01 3.0000000e+00 4.5500000e+01 
7.5000000e-01 3.0000000e+00 4.6000000e+01 
7.5000000e-01 3.0000000e+00 4.6500000e+01 
7.5000000e-01 3.0000000e+00 4.7000000e+01 
7.5000000e-01 3.0000000e+00 4.7500000e+01 
7.5000000e-01 3.0000000e+00 4.8000000e+01 
7.5000000e-01 3.0000000e+00 4.8500000e+01 
7.5000000e-01 3.0000000e+00 4.9000000e+01 
7.5000000e-01 3.0000000e+00 4.9500000e+01 
7.5000000e-01 3.0000000e+00 5.0500000e+01 
7.5000000e-01 3.0000000e+00 5.1000000e+01 
7.5000000e-01 3.0000000e+00 5.1500000e+01 
7.5000000e-01 3.0000000e+00 5.2000000e+01 
7.5000000e-01 3.0000000e+00 5.2500000e+01 
7.5000000e-01 3.0000000e+00 5.3000000e+01 
7.5000000e-01 3.0000000e+00 5.3500000e+01 
7.5000000e-01 3.0000000e+00 5.4000000e+01 
7.5000000e-01 3.0000000e+00 5.4500000e+01 
7.5000000e-01 3.0000000e+00 5.5000000e+01 
7.5000000e-01 3.0000000e+00 5.5500000e+01 
7.5000000e-01 3.0000000e+00 5.6000000e+01 
7.5000000e-01 3.0000000e+00 5.6500000e+01 
7.5000000e-01 3.0000000e+00 5.7000000e+01 
7.5000000e-01 3.0000000e+00 5.7500000e+01 
7.5000000e-01 3.0000000e+00 5.8000000e+01 
7.5000000e-01 3.0000000e+00 5.8500000e+01 
7.5000000e-01 3.0000000e+00 5.9000000e+01 
7.5000000e-01 3.0000000e+00 5.9500000e+01 
7.5000000e-01 3.0000000e+00 6.0000000e+01 
7.5000000e-01 3.0000000e+00 6.0500000e+01 
7.5000000e-01 3.0000000e+00 6.1000000e+01 
7.5000000e-01 3.0000000e+00 6.1500000e+01 
7.5000000e-01 3.0000000e+00 6.2000000e+01 
7.5000000e-01 3.0000000e+00 6.2500000e+01 
7.5000000e-01 3.0000000e+00 6.3000000e+01 
7.5000000e-01 3.0000000e+00 6.3500000e+01 
7.5000000e-01 3.0000000e+00 6.4000000e+01 
7.5000000e-01 3.0000000e+00 6.4500000e+01 
7.5000000e-01 3.0000000e+00 6.5000000e+01 
7.5000000e-01 3.0000000e+00 6.5500000e+01 
7.5000000e-01 3.0000000e+00 6.6000000e+01 
7.5000000e-01 3.0000000e+00 6.6500000e+01 
7.5000000e-01 3.0000000e+00 6.7000000e+01 
7.5000000e-01 3.0000000e+00 6.7500000e+01 
7.5000000e-01 3.0000000e+00 6.8000000e+01 
7.5000000e-01 3.0000000e+00 6.8500000e+01 
7.5000000e-01 3.0000000e+00 6.9000000e+01 
7.5000000e-01 3.0000000e+00 6.9500000e+01 
7.5000000e-01 3.0250001e+00 -2.5000000e+01 
7.5000000e-01 3.0250001e+00 -2.4500000e+01 
7.5000000e-01 3.0250001e+00 -2.4000000e+01 
7.5000000e-01 3.0250001e+00 -2.3500000e+01 
7.5000000e-01 3.0250001e+00 -2.3000000e+01 
7.5000000e-01 3.0250001e+00 -2.2500000e+01 
7.5000000e-01 3.0250001e+00 -2.2000000e+01 
7.5000000e-01 3.0250001e+00 -2.1500000e+01 
7.5000000e-01 3.0250001e+00 -2.1000000e+01 
7.5000000e-01 3.0250001e+00 -2.0500000e+01 
7.5000000e-01 3.0250001e+00 -2.0000000e+01 
7.5000000e-01 3.0250001e+00 -1.9500000e+01 
7.5000000e-01 3.0250001e+00 -1.9000000e+01 
7.5000000e-01 3.0250001e+00 -1.8500000e+01 
7.5000000e-01 3.0250001e+00 -1.8000000e+01 
7.5000000e-01 3.0250001e+00 -1.7500000e+01 
7.5000000e-01 3.0250001e+00 -1.7000000e+01 
7.5000000e-01 3.0250001e+00 -1.6500000e+01 
7.5000000e-01 3.0250001e+00 -1.6000000e+01 
7.5000000e-01 3.0250001e+00 -1.5500000e+01 
[...]
POINT_DATA 2186
FIELD FieldData 3
DISPLACEMENT 3 2186  float
0.0000000e+00 0.0000000e+00 0.0000000e+00 
0.0000000e+00 0.0000000e+00 0.0000000e+00 
0.0000000e+00 0.0000000e+00 0.0000000e+00 
0.0000000e+00 0.0000000e+00 0.0000000e+00 
-1.0386889e-05 1.7652208e-06 8.2171109e-06 
3.3582288e-07 -8.6131266e-08 -9.3081951e-08 
0.0000000e+00 -9.8780074e-06 0.0000000e+00 
0.0000000e+00 -4.9347807e-07 0.0000000e+00 
-1.3183087e-05 -5.9828171e-06 6.6763056e-07 
2.2356650e-08 1.2728232e-07 -3.5640309e-07 
-1.1388094e-05 2.9224273e-06 6.2310341e-06 
-1.7338778e-07 5.2018225e-07 -2.1155923e-07 
0.0000000e+00 -4.5729735e-06 0.0000000e+00 
0.0000000e+00 -5.3407706e-07 0.0000000e+00 
-1.0731742e-05 -4.0689036e-05 9.8608420e-05 
8.4804134e-07 -9.3426920e-08 3.6057358e-07 
7.0070273e-05 -7.3311225e-05 1.1101613e-04 
-9.8664174e-08 -2.0298482e-07 -2.5211214e-08 
0.0000000e+00 5.5308133e-06 0.0000000e+00 
0.0000000e+00 4.1001016e-07 0.0000000e+00 
0.0000000e+00 3.2947523e-06 0.0000000e+00 
0.0000000e+00 -4.3753141e-07 0.0000000e+00 
0.0000000e+00 -7.2530338e-06 0.0000000e+00 
0.0000000e+00 -9.5981295e-06 0.0000000e+00 
0.0000000e+00 -3.5545772e-06 0.0000000e+00 
0.0000000e+00 7.7023933e-06 0.0000000e+00 
0.0000000e+00 1.6084750e-05 0.0000000e+00 
0.0000000e+00 1.4828845e-05 0.0000000e+00 
0.0000000e+00 3.8606986e-06 0.0000000e+00 
0.0000000e+00 -9.9457511e-06 0.0000000e+00 
0.0000000e+00 -1.7789078e-05 0.0000000e+00 
0.0000000e+00 -1.5283915e-05 0.0000000e+00 
0.0000000e+00 -5.2344189e-06 0.0000000e+00 
0.0000000e+00 5.1152638e-06 0.0000000e+00 
0.0000000e+00 9.8752816e-06 0.0000000e+00 
0.0000000e+00 8.5591546e-06 0.0000000e+00 
0.0000000e+00 5.2916716e-06 0.0000000e+00 
0.0000000e+00 4.2725592e-06 0.0000000e+00 
0.0000000e+00 5.6668036e-06 0.0000000e+00 
0.0000000e+00 5.5289806e-06 0.0000000e+00 
0.0000000e+00 -1.7543979e-07 0.0000000e+00 
0.0000000e+00 -1.0928059e-05 0.0000000e+00 
0.0000000e+00 -2.0603276e-05 0.0000000e+00 
0.0000000e+00 -2.1464244e-05 0.0000000e+00 
0.0000000e+00 -1.0393491e-05 0.0000000e+00 
0.0000000e+00 7.7787254e-06 0.0000000e+00 
0.0000000e+00 2.2976354e-05 0.0000000e+00 
0.0000000e+00 2.6752439e-05 0.0000000e+00 
0.0000000e+00 1.7955630e-05 0.0000000e+00 
0.0000000e+00 2.9623579e-06 0.0000000e+00 
0.0000000e+00 -9.2471628e-06 0.0000000e+00 
0.0000000e+00 -1.3183959e-05 0.0000000e+00 
0.0000000e+00 -9.8368209e-06 0.0000000e+00 
0.0000000e+00 -4.8550846e-06 0.0000000e+00 
0.0000000e+00 -3.6419738e-06 0.0000000e+00 
0.0000000e+00 -7.1899426e-06 0.0000000e+00 
0.0000000e+00 -1.1735875e-05 0.0000000e+00 
0.0000000e+00 -1.2066227e-05 0.0000000e+00 
0.0000000e+00 -5.4937564e-06 0.0000000e+00 
0.0000000e+00 6.2800568e-06 0.0000000e+00 
0.0000000e+00 1.8055605e-05 0.0000000e+00 
0.0000000e+00 2.4052653e-05 0.0000000e+00 
0.0000000e+00 2.1670803e-05 0.0000000e+00 
0.0000000e+00 1.3815466e-05 0.0000000e+00 
0.0000000e+00 7.0669435e-06 0.0000000e+00 
0.0000000e+00 5.9775030e-06 0.0000000e+00 
0.0000000e+00 8.2942397e-06 0.0000000e+00 
0.0000000e+00 5.9345903e-06 0.0000000e+00 
0.0000000e+00 -8.9362084e-06 0.0000000e+00 
0.0000000e+00 -3.7761289e-05 0.0000000e+00 
-1.3039750e-05 -1.0084533e-04 7.8460944e-05 
-5.0217906e-05 -1.1061574e-04 7.6769786e-05 
-6.9723843e-05 -1.0559177e-04 8.2031176e-05 
-1.2126286e-04 -9.6245785e-05 6.8088775e-05 
-9.2735834e-05 -8.7345143e-05 4.3023487e-05 
-7.3407493e-05 -7.4435127e-05 3.9959941e-05 
-8.2107013e-05 -4.4504835e-05 3.4334018e-06 
-6.6778121e-05 7.8249232e-06 -1.1868505e-05 
-6.1332627e-05 6.9786416e-05 -2.7532931e-06 
-2.8243656e-05 1.1547266e-04 -7.0766023e-06 
-5.8615449e-05 1.3314901e-04 7.2326920e-06 
-5.6739485e-05 1.3320816e-04 2.9892535e-05 
-7.8984027e-05 1.3640003e-04 4.3789023e-05 
-4.5776182e-05 1.5084441e-04 7.6034863e-05 
-7.7627803e-05 1.1161740e-04 1.2679634e-04 
-9.7069482e-05 -1.1102555e-04 1.2382491e-04 
-1.6790366e-04 -6.0127175e-04 2.0941866e-04 
-1.5661756e-04 -1.3578450e-03 1.6845067e-04 
-2.5634031e-04 -2.3558761e-03 2.6563241e-04 
-2.8139033e-04 -3.5119916e-03 6.1138024e-05 
-3.9007972e-04 -4.6530501e-03 1.1731889e-04 
-4.4471098e-04 -5.2627581e-03 -5.7142788e-05 
-3.9899311e-04 -5.0250678e-03 -2.1152293e-04 
-3.6323251e-04 -4.6417424e-03 -2.0343334e-04 
-3.4494532e-04 -4.6666414e-03 -2.4042620e-04 
-5.7009928e-04 -4.8922026e-03 -2.4277842e-04 
-1.7406035e-04 -4.5906841e-03 -2.3628864e-04 
-8.6855347e-05 -3.3266766e-03 -1.2775844e-04 
-2.7984321e-05 -1.8744579e-03 -2.5444108e-04 
-7.1689174e-06 -7.6522795e-04 -1.1564728e-04 
1.4253937e-05 -1.1165680e-04 -1.2291425e-04 
2.2448614e-05 1.9552806e-04 -3.3834014e-05 
3.6938851e-05 2.9053225e-04 6.8240552e-06 
1.5458183e-05 2.5954764e-04 8.3727522e-05 
-1.2764305e-06 1.6283698e-04 4.9055569e-05 
2.8543582e-06 6.0365335e-05 2.3941737e-05 
-7.5420253e-06 -7.9646770e-06 1.1819620e-05 
-8.9655659e-06 -3.8851023e-05 2.0851532e-05 
-6.4926530e-06 -5.2994026e-05 4.2663396e-06 
-2.5789792e-05 -6.7604189e-05 1.8983821e-05 
-2.2534754e-05 -8.1628452e-05 5.0120074e-05 
-2.5183866e-05 -8.6633343e-05 5.8102352e-05 
-5.8551010e-05 -7.8405508e-05 6.5206455e-05 
-5.8653477e-05 -5.9929389e-05 4.8764698e-05 
-7.3324452e-05 -4.1038060e-05 2.8864963e-05 
-6.9604546e-05 -3.2206110e-05 2.3960194e-05 
-8.2287595e-05 -2.5674903e-05 -1.1148428e-06 
-6.8427042e-05 4.3255354e-06 -1.2232479e-05 
-6.9810565e-05 6.4513421e-05 -1.0877469e-05 
-4.4128057e-05 1.3089474e-04 -2.9557521e-06 
-4.9990536e-05 1.6878387e-04 -3.3946178e-06 
-4.2261549e-05 1.6445297e-04 2.4977429e-05 
-7.3160147e-05 1.2788663e-04 3.1462350e-05 
-6.3521882e-05 8.4047861e-05 5.9792306e-05 
-1.0709876e-04 1.3333779e-05 1.2282547e-04 
-1.1496344e-04 -1.8440459e-04 1.1900469e-04 
-1.8998802e-04 -6.5409078e-04 2.1614747e-04 
-2.0029335e-04 -1.4985056e-03 1.7111329e-04 
-3.1231414e-04 -2.6831275e-03 2.4479991e-04 
-3.7862017e-04 -3.9634146e-03 1.8410938e-05 
-4.5388259e-04 -4.9816319e-03 6.7448280e-05 
-4.5736760e-04 -5.2104201e-03 -7.8498990e-05 
-3.9070731e-04 -4.8404355e-03 -2.3414826e-04 
-3.5568138e-04 -4.5638946e-03 -2.0057074e-04 
-2.8361505e-04 -4.7071623e-03 -2.0229028e-04 
-3.0123000e-04 -4.8391926e-03 -2.6705803e-04 
-2.0916719e-04 -4.3130182e-03 -3.3958731e-04 
-1.3522168e-04 -2.9935609e-03 -1.6818861e-04 
-4.7225873e-05 -1.6508631e-03 -2.5945401e-04 
3.3983151e-06 -6.5039273e-04 -6.8674373e-05 
2.7366961e-05 -5.6038389e-05 -4.9900704e-05 
2.2676673e-05 2.1567960e-04 1.8205110e-05 
2.0205694e-05 2.6635700e-04 5.3879470e-05 
4.8696224e-06 2.0120705e-04 7.2615454e-05 
-2.9228779e-05 1.1538727e-04 9.4107454e-05 
-3.9106635e-05 5.1196930e-05 6.7705303e-05 
-5.3899468e-05 1.3064228e-05 -6.3462262e-06 
-5.0274295e-05 -9.5730575e-06 -3.8817208e-05 
-6.7198821e-06 -1.9176641e-05 -6.6037086e-05 
5.5784221e-06 -1.4182519e-05 -6.2427476e-05 
2.4034409e-05 2.1716387e-06 -3.2425531e-05 
2.3950339e-05 1.6282245e-05 -1.2967877e-05 
1.3666210e-05 1.5917411e-05 2.7804190e-06 
1.0306178e-05 4.8823140e-06 8.2841470e-06 
2.9091611e-06 -6.1216565e-06 8.5953025e-06 
-8.9656322e-07 -1.0449907e-05 5.0723374e-06 
-2.3839882e-06 -8.9428549e-06 3.6510476e-06 
-2.3978164e-06 -6.0915168e-06 1.4413519e-06 
-2.4803646e-06 -3.7454263e-06 1.1839483e-06 
-1.2817808e-06 -1.1265964e-06 1.4880711e-06 
-9.7072734e-07 2.1926389e-06 -4.0284871e-07 
-1.1447132e-07 4.4862104e-06 6.7605743e-07 
4.5053682e-07 4.1117705e-06 -1.4759664e-07 
-3.0615749e-07 1.9472041e-06 -9.6732720e-07 
1.6894064e-07 1.8929290e-07 6.1624968e-07 
4.6991971e-07 -4.6016154e-07 -6.1026566e-07 
-4.1847434e-07 -7.3898741e-07 4.0759372e-07 
3.3876276e-07 -1.1641163e-06 2.0984928e-07 
-5.5296056e-07 -1.1987026e-06 8.6675556e-09 
0.0000000e+00 1.4773618e-06 0.0000000e+00 
0.0000000e+00 2.7790841e-06 0.0000000e+00 
0.0000000e+00 2.7201529e-06 0.0000000e+00 
0.0000000e+00 1.3332192e-06 0.0000000e+00 
0.0000000e+00 -4.3863855e-07 0.0000000e+00 
0.0000000e+00 -1.5953246e-06 0.0000000e+00 
0.0000000e+00 -1.7418774e-06 0.0000000e+00 
0.0000000e+00 -1.0580482e-06 0.0000000e+00 
0.0000000e+00 6.1335079e-08 0.0000000e+00 
0.0000000e+00 1.1601670e-06 0.0000000e+00 
0.0000000e+00 1.6973732e-06 0.0000000e+00 
0.0000000e+00 1.2419171e-06 0.0000000e+00 
0.0000000e+00 -9.0832067e-08 0.0000000e+00 
0.0000000e+00 -1.4832842e-06 0.0000000e+00 
0.0000000e+00 -1.9297140e-06 0.0000000e+00 
0.0000000e+00 -1.0658234e-06 0.0000000e+00 
0.0000000e+00 4.8502517e-07 0.0000000e+00 
0.0000000e+00 1.6157595e-06 0.0000000e+00 
0.0000000e+00 1.6190726e-06 0.0000000e+00 
0.0000000e+00 6.5369062e-07 0.0000000e+00 
0.0000000e+00 -5.2771480e-07 0.0000000e+00 
0.0000000e+00 -1.2145425e-06 0.0000000e+00 
0.0000000e+00 -1.1568442e-06 0.0000000e+00 
0.0000000e+00 -5.4538037e-07 0.0000000e+00 
0.0000000e+00 2.3926333e-07 0.0000000e+00 
0.0000000e+00 8.3070637e-07 0.0000000e+00 
0.0000000e+00 9.7357554e-07 0.0000000e+00 
0.0000000e+00 6.0188114e-07 0.0000000e+00 
0.0000000e+00 -9.1358665e-08 0.0000000e+00 
0.0000000e+00 -7.0760655e-07 0.0000000e+00 
0.0000000e+00 -8.7434654e-07 0.0000000e+00 
0.0000000e+00 -5.0902821e-07 0.0000000e+00 
0.0000000e+00 1.1812715e-07 0.0000000e+00 
0.0000000e+00 5.9451764e-07 0.0000000e+00 
0.0000000e+00 6.6740751e-07 0.0000000e+00 
0.0000000e+00 3.8141022e-07 0.0000000e+00 
0.0000000e+00 -2.9102686e-08 0.0000000e+00 
0.0000000e+00 -3.4283639e-07 0.0000000e+00 
0.0000000e+00 -4.5455303e-07 0.0000000e+00 
0.0000000e+00 3.1847030e-06 0.0000000e+00 
0.0000000e+00 -4.9634951e-07 0.0000000e+00 
0.0000000e+00 -7.2054863e-06 0.0000000e+00 
0.0000000e+00 -9.4751813e-06 0.0000000e+00 
0.0000000e+00 -3.4437078e-06 0.0000000e+00 
0.0000000e+00 7.7254999e-06 0.0000000e+00 
0.0000000e+00 1.6010368e-05 0.0000000e+00 
0.0000000e+00 1.4713972e-05 0.0000000e+00 
0.0000000e+00 3.7825196e-06 0.0000000e+00 
0.0000000e+00 -9.9436338e-06 0.0000000e+00 
0.0000000e+00 -1.7720140e-05 0.0000000e+00 
0.0000000e+00 -1.5201494e-05 0.0000000e+00 
0.0000000e+00 -5.1902734e-06 0.0000000e+00 
0.0000000e+00 5.1060269e-06 0.0000000e+00 
0.0000000e+00 9.8375140e-06 0.0000000e+00 
0.0000000e+00 8.5295314e-06 0.0000000e+00 
0.0000000e+00 5.2866435e-06 0.0000000e+00 
0.0000000e+00 4.2800452e-06 0.0000000e+00 
0.0000000e+00 5.6630961e-06 0.0000000e+00 
0.0000000e+00 5.5022274e-06 0.0000000e+00 
0.0000000e+00 -2.1163639e-07 0.0000000e+00 
0.0000000e+00 -1.0939742e-05 0.0000000e+00 
0.0000000e+00 -2.0563017e-05 0.0000000e+00 
0.0000000e+00 -2.1384081e-05 0.0000000e+00 
0.0000000e+00 -1.0327641e-05 0.0000000e+00 
0.0000000e+00 7.7771010e-06 0.0000000e+00 
0.0000000e+00 2.2904733e-05 0.0000000e+00 
0.0000000e+00 2.6660493e-05 0.0000000e+00 
0.0000000e+00 1.7901189e-05 0.0000000e+00 
0.0000000e+00 2.9736898e-06 0.0000000e+00 
0.0000000e+00 -9.1769325e-06 0.0000000e+00 
0.0000000e+00 -1.3090693e-05 0.0000000e+00 
0.0000000e+00 -9.7768170e-06 0.0000000e+00 
0.0000000e+00 -4.8752731e-06 0.0000000e+00 
0.0000000e+00 -3.7381658e-06 0.0000000e+00 
0.0000000e+00 -7.3012711e-06 0.0000000e+00 
0.0000000e+00 -1.1789087e-05 0.0000000e+00 
0.0000000e+00 -1.2023871e-05 0.0000000e+00 
0.0000000e+00 -5.3739741e-06 0.0000000e+00 
0.0000000e+00 6.4014926e-06 0.0000000e+00 
0.0000000e+00 1.8073753e-05 0.0000000e+00 
0.0000000e+00 2.3923814e-05 0.0000000e+00 
0.0000000e+00 2.1499269e-05 0.0000000e+00 
0.0000000e+00 1.3792969e-05 0.0000000e+00 
0.0000000e+00 7.2707280e-06 0.0000000e+00 
0.0000000e+00 6.2577396e-06 0.0000000e+00 
0.0000000e+00 8.4117873e-06 0.0000000e+00 
0.0000000e+00 5.7872940e-06 0.0000000e+00 
0.0000000e+00 -9.2666805e-06 0.0000000e+00 
0.0000000e+00 -3.8148068e-05 0.0000000e+00 
0.0000000e+00 -7.3285795e-05 0.0000000e+00 
0.0000000e+00 -1.0047635e-04 0.0000000e+00 
0.0000000e+00 -1.1028831e-04 0.0000000e+00 
0.0000000e+00 -1.0569330e-04 0.0000000e+00 
0.0000000e+00 -9.6585711e-05 0.0000000e+00 
0.0000000e+00 -8.7873435e-05 0.0000000e+00 
0.0000000e+00 -7.4389507e-05 0.0000000e+00 
0.0000000e+00 -4.3838369e-05 0.0000000e+00 
0.0000000e+00 8.5252695e-06 0.0000000e+00 
0.0000000e+00 6.9599169e-05 0.0000000e+00 
0.0000000e+00 1.1492214e-04 0.0000000e+00 
0.0000000e+00 1.3254222e-04 0.0000000e+00 
0.0000000e+00 1.3310491e-04 0.0000000e+00 
0.0000000e+00 1.3899303e-04 0.0000000e+00 
0.0000000e+00 1.5399847e-04 0.0000000e+00 
0.0000000e+00 1.1109192e-04 0.0000000e+00 
0.0000000e+00 -1.1371182e-04 0.0000000e+00 
0.0000000e+00 -6.0311920e-04 0.0000000e+00 
0.0000000e+00 -1.3614161e-03 0.0000000e+00 
0.0000000e+00 -2.3588014e-03 0.0000000e+00 
0.0000000e+00 -3.5269943e-03 0.0000000e+00 
0.0000000e+00 -4.6768333e-03 0.0000000e+00 
0.0000000e+00 -5.3004557e-03 0.0000000e+00 
0.0000000e+00 -5.0479346e-03 0.0000000e+00 
0.0000000e+00 -4.6695969e-03 0.0000000e+00 
0.0000000e+00 -4.6879328e-03 0.0000000e+00 
0.0000000e+00 -4.9117329e-03 0.0000000e+00 
0.0000000e+00 -4.6218303e-03 0.0000000e+00 
0.0000000e+00 -3.3537112e-03 0.0000000e+00 
0.0000000e+00 -1.8882963e-03 0.0000000e+00 
0.0000000e+00 -7.7165524e-04 0.0000000e+00 
0.0000000e+00 -1.1167342e-04 0.0000000e+00 
0.0000000e+00 1.9734289e-04 0.0000000e+00 
0.0000000e+00 2.9137434e-04 0.0000000e+00 
0.0000000e+00 2.5975768e-04 0.0000000e+00 
0.0000000e+00 1.6387521e-04 0.0000000e+00 
0.0000000e+00 6.1627266e-05 0.0000000e+00 
0.0000000e+00 -7.3801025e-06 0.0000000e+00 
0.0000000e+00 -3.9120216e-05 0.0000000e+00 
0.0000000e+00 -5.3536394e-05 0.0000000e+00 
0.0000000e+00 -6.7722860e-05 0.0000000e+00 
0.0000000e+00 -8.1632788e-05 0.0000000e+00 
0.0000000e+00 -8.6734828e-05 0.0000000e+00 
0.0000000e+00 -7.8192978e-05 0.0000000e+00 
0.0000000e+00 -5.9556951e-05 0.0000000e+00 
0.0000000e+00 -4.1463536e-05 0.0000000e+00 
0.0000000e+00 -3.3001346e-05 0.0000000e+00 
0.0000000e+00 -2.5400759e-05 0.0000000e+00 
0.0000000e+00 5.2219493e-06 0.0000000e+00 
0.0000000e+00 6.5355700e-05 0.0000000e+00 
0.0000000e+00 1.3080648e-04 0.0000000e+00 
0.0000000e+00 1.6804118e-04 0.0000000e+00 
0.0000000e+00 1.6346283e-04 0.0000000e+00 
0.0000000e+00 1.2893506e-04 0.0000000e+00 
0.0000000e+00 8.6850603e-05 0.0000000e+00 
0.0000000e+00 1.6013053e-05 0.0000000e+00 
0.0000000e+00 -1.8442042e-04 0.0000000e+00 
0.0000000e+00 -6.5895118e-04 0.0000000e+00 
0.0000000e+00 -1.5075819e-03 0.0000000e+00 
0.0000000e+00 -2.6884279e-03 0.0000000e+00 
0.0000000e+00 -3.9794161e-03 0.0000000e+00 
0.0000000e+00 -5.0027636e-03 0.0000000e+00 
0.0000000e+00 -5.2485946e-03 0.0000000e+00 
0.0000000e+00 -4.8651695e-03 0.0000000e+00 
0.0000000e+00 -4.5915046e-03 0.0000000e+00 
0.0000000e+00 -4.7236853e-03 0.0000000e+00 
0.0000000e+00 -4.8703197e-03 0.0000000e+00 
0.0000000e+00 -4.3368172e-03 0.0000000e+00 
0.0000000e+00 -3.0193564e-03 0.0000000e+00 
0.0000000e+00 -1.6599485e-03 0.0000000e+00 
0.0000000e+00 -6.5472902e-04 0.0000000e+00 
0.0000000e+00 -5.6586774e-05 0.0000000e+00 
0.0000000e+00 2.1569840e-04 0.0000000e+00 
0.0000000e+00 2.6714779e-04 0.0000000e+00 
0.0000000e+00 2.0352728e-04 0.0000000e+00 
0.0000000e+00 1.1659653e-04 0.0000000e+00 
0.0000000e+00 5.1366478e-05 0.0000000e+00 
0.0000000e+00 1.2688442e-05 0.0000000e+00 
0.0000000e+00 -9.4801189e-06 0.0000000e+00 
0.0000000e+00 -1.8891011e-05 0.0000000e+00 
0.0000000e+00 -1.3963131e-05 0.0000000e+00 
0.0000000e+00 1.9577622e-06 0.0000000e+00 
0.0000000e+00 1.5692911e-05 0.0000000e+00 
0.0000000e+00 1.5810563e-05 0.0000000e+00 
0.0000000e+00 5.1402071e-06 0.0000000e+00 
0.0000000e+00 -5.8887399e-06 0.0000000e+00 
0.0000000e+00 -1.0412772e-05 0.0000000e+00 
0.0000000e+00 -9.0626372e-06 0.0000000e+00 
0.0000000e+00 -6.1329729e-06 0.0000000e+00 
0.0000000e+00 -3.7057985e-06 0.0000000e+00 
0.0000000e+00 -1.0837307e-06 0.0000000e+00 
0.0000000e+00 2.1557096e-06 0.0000000e+00 
0.0000000e+00 4.4070489e-06 0.0000000e+00 
0.0000000e+00 4.0983923e-06 0.0000000e+00 
0.0000000e+00 2.0147825e-06 0.0000000e+00 
0.0000000e+00 2.2430174e-07 0.0000000e+00 
0.0000000e+00 -4.8514721e-07 0.0000000e+00 
0.0000000e+00 -7.7011327e-07 0.0000000e+00 
0.0000000e+00 -1.1488438e-06 0.0000000e+00 
0.0000000e+00 -1.1608653e-06 0.0000000e+00 
0.0000000e+00 -1.9268668e-07 0.0000000e+00 
0.0000000e+00 1.4649362e-06 0.0000000e+00 
0.0000000e+00 2.7478902e-06 0.0000000e+00 
0.0000000e+00 2.7026995e-06 0.0000000e+00 
0.0000000e+00 1.3425565e-06 0.0000000e+00 
0.0000000e+00 -4.1828363e-07 0.0000000e+00 
0.0000000e+00 -1.5840325e-06 0.0000000e+00 
0.0000000e+00 -1.7410489e-06 0.0000000e+00 
0.0000000e+00 -1.0566259e-06 0.0000000e+00 
0.0000000e+00 6.5311745e-08 0.0000000e+00 
0.0000000e+00 1.1553487e-06 0.0000000e+00 
0.0000000e+00 1.6779881e-06 0.0000000e+00 
0.0000000e+00 1.2220105e-06 0.0000000e+00 
0.0000000e+00 -8.9870419e-08 0.0000000e+00 
0.0000000e+00 -1.4580514e-06 0.0000000e+00 
0.0000000e+00 -1.9014321e-06 0.0000000e+00 
0.0000000e+00 -1.0594001e-06 0.0000000e+00 
0.0000000e+00 4.6567220e-07 0.0000000e+00 
0.0000000e+00 1.5894993e-06 0.0000000e+00 
0.0000000e+00 1.6072362e-06 0.0000000e+00 
0.0000000e+00 6.6126262e-07 0.0000000e+00 
0.0000000e+00 -5.1172719e-07 0.0000000e+00 
0.0000000e+00 -1.2029891e-06 0.0000000e+00 
0.0000000e+00 -1.1540112e-06 0.0000000e+00 
0.0000000e+00 -5.4851137e-07 0.0000000e+00 
0.0000000e+00 2.3334157e-07 0.0000000e+00 
0.0000000e+00 8.2343581e-07 0.0000000e+00 
0.0000000e+00 9.6729900e-07 0.0000000e+00 
0.0000000e+00 6.0065918e-07 0.0000000e+00 
0.0000000e+00 -8.5527482e-08 0.0000000e+00 
0.0000000e+00 -6.9830969e-07 0.0000000e+00 
0.0000000e+00 -8.6860672e-07 0.0000000e+00 
0.0000000e+00 -5.1099698e-07 0.0000000e+00 
0.0000000e+00 1.1092202e-07 0.0000000e+00 
0.0000000e+00 5.8848730e-07 0.0000000e+00 
0.0000000e+00 6.6684271e-07 0.0000000e+00 
0.0000000e+00 3.8515063e-07 0.0000000e+00 
0.0000000e+00 -2.5580357e-08 0.0000000e+00 
0.0000000e+00 -3.4259918e-07 0.0000000e+00 
0.0000000e+00 -4.5630443e-07 0.0000000e+00 
0.0000000e+00 0.0000000e+00 0.0000000e+00 
0.0000000e+00 0.0000000e+00 0.0000000e+00 
0.0000000e+00 0.0000000e+00 0.0000000e+00 
0.0000000e+00 0.0000000e+00 0.0000000e+00 
0.0000000e+00 0.0000000e+00 0.0000000e+00 
0.0000000e+00 0.0000000e+00 0.0000000e+00 
0.0000000e+00 0.0000000e+00 0.0000000e+00 
0.0000000e+00 0.0000000e+00 0.0000000e+00 
0.0000000e+00 0.0000000e+00 0.0000000e+00 
0.0000000e+00 0.0000000e+00 0.0000000e+00 
0.0000000e+00 0.0000000e+00 0.0000000e+00 
0.0000000e+00 0.0000000e+00 0.0000000e+00 
0.0000000e+00 0.0000000e+00 0.0000000e+00 
0.0000000e+00 0.0000000e+00 0.0000000e+00 
0.0000000e+00 0.0000000e+00 0.0000000e+00 
0.0000000e+00 0.0000000e+00 0.0000000e+00 
0.0000000e+00 0.0000000e+00 0.0000000e+00 
0.0000000e+00 0.0000000e+00 0.0000000e+00 
0.0000000e+00 0.0000000e+00 0.0000000e+00 
0.0000000e+00 0.0000000e+00 0.0000000e+00 
0.0000000e+00 0.0000000e+00 0.0000000e+00 
0.0000000e+00 0.0000000e+00 0.0000000e+00 
0.0000000e+00 0.0000000e+00 0.0000000e+00 
0.0000000e+00 0.0000000e+00 0.0000000e+00 
0.0000000e+00 0.0000000e+00 0.0000000e+00 
0.0000000e+00 0.0000000e+00 0.0000000e+00 
0.0000000e+00 0.0000000e+00 0.0000000e+00 
0.0000000e+00 0.0000000e+00 0.0000000e+00 
0.0000000e+00 0.0000000e+00 0.0000000e+00 
0.0000000e+00 0.0000000e+00 0.0000000e+00 
0.0000000e+00 0.0000000e+00 0.0000000e+00 
0.0000000e+00 0.0000000e+00 0.0000000e+00 
0.0000000e+00 0.0000000e+00 0.0000000e+00 
0.0000000e+00 0.0000000e+00 0.0000000e+00 
0.0000000e+00 0.0000000e+00 0.0000000e+00 
0.0000000e+00 0.0000000e+00 0.0000000e+00 
0.0000000e+00 0.0000000e+00 0.0000000e+00 
0.0000000e+00 0.0000000e+00 0.0000000e+00 
0.0000000e+00 0.0000000e+00 0.0000000e+00 
0.0000000e+00 0.0000000e+00 0.0000000e+00 
0.0000000e+00 0.0000000e+00 0.0000000e+00 
0.0000000e+00 0.0000000e+00 0.0000000e+00 
0.0000000e+00 0.0000000e+00 0.0000000e+00 
0.0000000e+00 0.0000000e+00 0.0000000e+00 
0.0000000e+00 0.0000000e+00 0.0000000e+00 
0.0000000e+00 0.0000000e+00 0.0000000e+00 
0.0000000e+00 0.0000000e+00 0.0000000e+00 
0.0000000e+00 0.0000000e+00 0.0000000e+00 
0.0000000e+00 0.0000000e+00 0.0000000e+00 
0.0000000e+00 0.0000000e+00 0.0000000e+00 
0.0000000e+00 0.0000000e+00 0.0000000e+00 
0.0000000e+00 0.0000000e+00 0.0000000e+00 
0.0000000e+00 0.0000000e+00 0.0000000e+00 
0.0000000e+00 0.0000000e+00 0.0000000e+00 
0.0000000e+00 0.0000000e+00 0.0000000e+00 
0.0000000e+00 0.0000000e+00 0.0000000e+00 
0.0000000e+00 0.0000000e+00 0.0000000e+00 