# vtk DataFile Version 4.0
vtk output
ASCII
DATASET UNSTRUCTURED_GRID
POINTS 2186 float
0.0000000e+00 0.0000000e+00 0.0000000e+00 
0.0000000e+00 0.0000000e+00 5.0000000e+01 
5.0000000e+00 0.0000000e+00 0.0000000e+00 
5.0000000e+00 0.0000000e+00 5.0000000e+01 
5.0000000e+00 1.0000000e+00 0.0000000e+00 
5.0000000e+00 1.0000000e+00 5.0000000e+01 
0.0000000e+00 1.0000000e+00 0.0000000e+00 
0.0000000e+00 1.0000000e+00 5.0000000e+01 
5.0000000e+00 2.0000000e+00 0.0000000e+00 
5.0000000e+00 2.0000000e+00 5.0000000e+01 
3.0000000e+00 2.0000000e+00 0.0000000e+00 
3.0000000e+00 2.0000000e+00 5.0000000e+01 
0.0000000e+00 2.0000000e+00 0.0000000e+00 
0.0000000e+00 2.0000000e+00 5.0000000e+01 
1.5000000e+00 3.0000000e+00 0.0000000e+00 
1.5000000e+00 3.0000000e+00 5.0000000e+01 
7.5000000e-01 3.0000000e+00 0.0000000e+00 
7.5000000e-01 3.0000000e+00 5.0000000e+01 
0.0000000e+00 3.0000000e+00 0.0000000e+00 
0.0000000e+00 3.0000000e+00 5.0000000e+01 
7.5000000e-01 3.0000000e+00 -2.5000000e+01 
7.5000000e-01 3.0000000e+00 -2.4500000e+01 
7.5000000e-01 3.0000000e+00 -2.4000000e+01 
7.5000000e-01 3.0000000e+00 -2.3500000e+01 
7.5000000e-01 3.0000000e+00 -2.3000000e+01 
7.5000000e-01 3.0000000e+00 -2.2500000e+01 
7.5000000e-01 3.0000000e+00 -2.2000000e+01 
7.5000000e-01 3.0000000e+00 -2.1500000e+01 
7.5000000e-01 3.0000000e+00 -2.1000000e+01 
7.5000000e-01 3.0000000e+00 -2.0500000e+01 
7.5000000e-01 3.0000000e+00 -2.0000000e+01 
7.5000000e-01 3.0000000e+00 -1.9500000e+01 
7.5000000e-01 3.0000000e+00 -1.9000000e+01 
7.5000000e-01 3.0000000e+00 -1.8500000e+01 
7.5000000e-01 3.0000000e+00 -1.8000000e+01 
7.5000000e-01 3.0000000e+00 -1.7500000e+01 
7.5000000e-01 3.0000000e+00 -1.7000000e+01 
7.5000000e-01 3.0000000e+00 -1.6500000e+01 
7.5000000e-01 3.0000000e+00 -1.6000000e+01 
7.5000000e-01 3.0000000e+00 -1.5500000e+01 
7.5000000e-01 3.0000000e+00 -1.5000000e+01 
7.5000000e-01 3.0000000e+00 -1.4500000e+01 
7.5000000e-01 3.0000000e+00 -1.4000000e+01 
7.5000000e-01 3.0000000e+00 -1.3500000e+01 
7.5000000e-01 3.0000000e+00 -1.3000000e+01 
7.5000000e-01 3.0000000e+00 -1.2500000e+01 
7.5000000e-01 3.0000000e+00 -1.2000000e+01 
7.5000000e-01 3.0000000e+00 -1.1500000e+01 
7.5000000e-01 3.0000000e+00 -1.1000000e+01 
7.5000000e-01 3.0000000e+00 -1.0500000e+01 
7.5000000e-01 3.0000000e+00 -1.0000000e+01 
7.5000000e-01 3.0000000e+00 -9.5000000e+00 
7.5000000e-01 3.0000000e+00 -9.0000000e+00 
7.5000000e-01 3.0000000e+00 -8.5000000e+00 
7.5000000e-01 3.0000000e+00 -8.0000000e+00 
7.5000000e-01 3.0000000e+00 -7.5000000e+00 
7.5000000e-01 3.0000000e+00 -7.0000000e+00 
7.5000000e-01 3.0000000e+00 -6.5000000e+00 
7.5000000e-01 3.0000000e+00 -6.0000000e+00 
7.5000000e-01 3.0000000e+00 -5.5000000e+00 
7.5000000e-01 3.0000000e+00 -5.0000000e+00 
7.5000000e-01 3.0000000e+00 -4.5000000e+00 
7.5000000e-01 3.0000000e+00 -4.0000000e+00 
7.5000000e-01 3.0000000e+00 -3.5000000e+00 
7.5000000e-01 3.0000000e+00 -3.0000000e+00 
7.5000000e-01 3.0000000e+00 -2.5000000e+00 
7.5000000e-01 3.0000000e+00 -2.0000000e+00 
7.5000000e-01 3.0000000e+00 -1.5000000e+00 
7.5000000e-01 3.0000000e+00 -1.0000000e+00 
7.5000000e-01 3.0000000e+00 -5.0000000e-01 
7.5000000e-01 3.0000000e+00 5.0000000e-01 
7.5000000e-01 3.0000000e+00 1.0000000e+00 
7.5000000e-01 3.0000000e+00 1.5000000e+00 
7.5000000e-01 3.0000000e+00 2.0000000e+00 
7.5000000e-01 3.0000000e+00 2.5000000e+00 
7.5000000e-01 3.0000000e+00 3.0000000e+00 
7.5000000e-01 3.0000000e+00 3.5000000e+00 
7.5000000e-01 3.0000000e+00 4.0000000e+00 
7.5000000e-01 3.0000000e+00 4.5000000e+00 
7.5000000e-01 3.0000000e+00 5.0000000e+00 
7.5000000e-01 3.0000000e+00 5.5000000e+00 
7.5000000e-01 3.0000000e+00 6.0000000e+00 
7.5000000e-01 3.0000000e+00 6.5000000e+00 
7.5000000e-01 3.0000000e+00 7.0000000e+00 
7.5000000e-01 3.0000000e+00 7.5000000e+00 
7.5000000e-01 3.0000000e+00 8.0000000e+00 
7.5000000e-01 3.0000000e+00 8.5000000e+00 
7.5000000e-01 3.0000000e+00 9.0000000e+00 
7.5000000e-01 3.0000000e+00 9.5000000e+00 
7.5000000e-01 3.0000000e+00 1.0000000e+01 
7.5000000e-01 3.0000000e+00 1.0500000e+01 
7.5000000e-01 3.0000000e+00 1.1000000e+01 
7.5000000e-01 3.0000000e+00 1.1500000e+01 
7.5000000e-01 3.0000000e+00 1.2000000e+01 
7.5000000e-01 3.0000000e+00 1.2500000e+01 
7.5000000e-01 3.0000000e+00 1.3000000e+01 
7.5000000e-01 3.0000000e+00 1.3500000e+01 
7.5000000e-01 3.0000000e+00 1.4000000e+01 
7.5000000e-01 3.0000000e+00 1.4500000e+01 
7.5000000e-01 3.0000000e+00 1.5000000e+01 
7.5000000e-01 3.0000000e+00 1.5500000e+01 
7.5000000e-01 3.0000000e+00 1.6000000e+01 
7.5000000e-01 3.0000000e+00 1.6500000e+01 
7.5000000e-01 3.0000000e+00 1.7000000e+01 
7.5000000e-01 3.0000000e+00 1.7500000e+01 
7.5000000e-01 3.0000000e+00 1.8000000e+01 
7.5000000e-01 3.0000000e+00 1.8500000e+01 
7.5000000e-01 3.0000000e+00 1.9000000e+01 
7.5000000e-01 3.0000000e+00 1.9500000e+01 
7.5000000e-01 3.0000000e+00 2.0000000e+01 
7.5000000e-01 3.0000000e+00 2.0500000e+01 
7.5000000e-01 3.0000000e+00 2.1000000e+01 
7.5000000e-01 3.0000000e+00 2.1500000e+01 
7.5000000e-01 3.0000000e+00 2.2000000e+01 
7.5000000e-01 3.0000000e+00 2.2500000e+01 
7.5000000e-01 3.0000000e+00 2.3000000e+01 
7.5000000e-01 3.0000000e+00 2.3500000e+01 
7.5000000e-01 3.0000000e+00 2.4000000e+01 
7.5000000e-01 3.0000000e+00 2.4500000e+01 
7.5000000e-01 3.0000000e+00 2.5000000e+01 
7.5000000e-01 3.0000000e+00 2.5500000e+01 
7.5000000e-01 3.0000000e+00 2.6000000e+01 
7.5000000e-01 3.0000000e+00 2.6500000e+01 
7.5000000e-01 3.0000000e+00 2.7000000e+01 
7.5000000e-01 3.0000000e+00 2.7500000e+01 
7.5000000e-01 3.0000000e+00 2.8000000e+01 
7.5000000e-01 3.0000000e+00 2.8500000e+01 
7.5000000e-01 3.0000000e+00 2.9000000e+01 
7.5000000e-01 3.0000000e+00 2.9500000e+01 
7.5000000e-01 3.0000000e+00 3.0000000e+01 
7.5000000e-01 3.0000000e+00 3.0500000e+01 
7.5000000e-01 3.0000000e+00 3.1000000e+01 
7.5000000e-01 3.0000000e+00 3.1500000e+01 
7.5000000e-01 3.0000000e+00 3.2000000e+01 
7.5000000e-01 3.0000000e+00 3.2500000e+01 
7.5000000e-01 3.0000000e+00 3.3000000e+01 
7.5000000e-01 3.0000000e+00 3.3500000e+01 
7.5000000e-01 3.0000000e+00 3.4000000e+01 
7.5000000e-01 3.0000000e+00 3.4500000e+01 
7.5000000e-01 3.0000000e+00 3.5000000e+01 
7.5000000e-01 3.0000000e+00 3.5500000e+01 
7.5000000e-01 3.0000000e+00 3.6000000e+01 
7.5000000e-01 3.0000000e+00 3.6500000e+01 
7.5000000e-01 3.0000000e+00 3.7000000e+01 
7.5000000e-01 3.0000000e+00 3.7500000e+01 
7.5000000e-01 3.0000000e+00 3.8000000e+01 
7.5000000e-01 3.0000000e+00 3.8500000e+01 
7.5000000e-01 3.0000000e+00 3.9000000e+01 
7.5000000e-01 3.0000000e+00 3.9500000e+01 
7.5000000e-01 3.0000000e+00 4.0000000e+01 
7.5000000e-01 3.0000000e+00 4.0500000e+01 
7.5000000e-01 3.0000000e+00 4.1000000e+01 
7.5000000e-01 3.0000000e+00 4.1500000e+01 
7.5000000e-01 3.0000000e+00 4.2000000e+01 
7.5000000e-01 3.0000000e+00 4.2500000e+01 
7.5000000e-01 3.0000000e+00 4.3000000e+01 
7.5000000e-01 3.0000000e+00 4.3500000e+01 
7.5000000e-01 3.0000000e+00 4.4000000e+01 
7.5000000e-01 3.0000000e+00 4.4500000e+01 
7.5000000e-01 3.0000000e+00 4.5000000e+01 
7.5000000e-01 3.0000000e+00 4.5500000e+01 
7.5000000e-01 3.0000000e+00 4.6000000e+01 
7.5000000e-01 3.0000000e+00 4.6500000e+01 
7.5000000e-01 3.0000000e+00 4.7000000e+01 
7.5000000e-01 3.0000000e+00 4.7500000e+01 
7.5000000e-01 3.0000000e+00 4.8000000e+01 
7.5000000e-01 3.0000000e+00 4.8500000e+01 
7.5000000e-01 3.0000000e+00 4.9000000e+01 
7.5000000e-01 3.0000000e+00 4.9500000e+01 
7.5000000e-01 3.0000000e+00 5.0500000e+01 
7.5000000e-01 3.0000000e+00 5.1000000e+01 
7.5000000e-01 3.0000000e+00 5.1500000e+01 
7.5000000e-01 3.0000000e+00 5.2000000e+01 
7.5000000e-01 3.0000000e+00 5.2500000e+01 
7.5000000e-01 3.0000000e+00 5.3000000e+01 
7.5000000e-01 3.0000000e+00 5.3500000e+01 
7.5000000e-01 3.0000000e+00 5.4000000e+01 
7.5000000e-01 3.0000000e+00 5.4500000e+01 
7.5000000e-01 3.0000000e+00 5.5000000e+01 
7.5000000e-01 3.0000000e+00 5.5500000e+01 
7.5000000e-01 3.0000000e+00 5.6000000e+01 
7.5000000e-01 3.0000000e+00 5.6500000e+01 
7.5000000e-01 3.0000000e+00 5.7000000e+01 
7.5000000e-01 3.0000000e+00 5.7500000e+01 
7.5000000e-01 3.0000000e+00 5.8000000e+01 
7.5000000e-01 3.0000000e+00 5.8500000e+01 
7.5000000e-01 3.0000000e+00 5.9000000e+01 
7.5000000e-01 3.0000000e+00 5.9500000e+01 
7.5000000e-01 3.0000000e+00 6.0000000e+01 
7.5000000e-01 3.0000000e+00 6.0500000e+01 
7.5000000e-01 3.0000000e+00 6.1000000e+01 
7.5000000e-01 3.0000000e+00 6.1500000e+01 
7.5000000e-01 3.0000000e+00 6.2000000e+01 
7.5000000e-01 3.0000000e+00 6.2500000e+01 
7.5000000e-01 3.0000000e+00 6.3000000e+01 
7.5000000e-01 3.0000000e+00 6.3500000e+01 
7.5000000e-01 3.0000000e+00 6.4000000e+01 
7.5000000e-01 3.0000000e+00 6.4500000e+01 
7.5000000e-01 3.0000000e+00 6.5000000e+01 
7.5000000e-01 3.0000000e+00 6.5500000e+01 
7.5000000e-01 3.0000000e+00 6.6000000e+01 
7.5000000e-01 3.0000000e+00 6.6500000e+01 
7.5000000e-01 3.0000000e+00 6.7000000e+01 
7.5000000e-01 3.0000000e+00 6.7500000e+01 
7.5000000e-01 3.0000000e+00 6.8000000e+01 
7.5000000e-01 3.0000000e+00 6.8500000e+01 
7.5000000e-01 3.0000000e+00 6.9000000e+01 
7.5000000e-01 3.0000000e+00 6.9500000e+01 
7.5000000e-01 3.0250001e+00 -2.5000000e+01 
7.5000000e-01 3.0250001e+00 -2.4500000e+01 
7.5000000e-01 3.0250001e+00 -2.4000000e+01 
7.5000000e-01 3.0250001e+00 -2.3500000e+01 
7.5000000e-01 3.0250001e+00 -2.3000000e+01 
7.5000000e-01 3.0250001e+00 -2.2500000e+01 
7.5000000e-01 3.0250001e+00 -2.2000000e+01 
7.5000000e-01 3.0250001e+00 -2.1500000e+01 
7.5000000e-01 3.0250001e+00 -2.1000000e+01 
7.5000000e-01 3.0250001e+00 -2.0500000e+01 
7.5000000e-01 3.0250001e+00 -2.0000000e+01 
7.5000000e-01 3.0250001e+00 -1.9500000e+01 
7.5000000e-01 3.0250001e+00 -1.9000000e+01 
7.5000000e-01 3.0250001e+00 -1.8500000e+01 
7.5000000e-01 3.0250001e+00 -1.8000000e+01 
7.5000000e-01 3.0250001e+00 -1.7500000e+01 
7.5000000e-01 3.0250001e+00 -1.7000000e+01 
7.5000000e-01 3.0250001e+00 -1.6500000e+01 
7.5000000e-01 3.0250001e+00 -1.6000000e+01 
7.5000000e-01 3.0250001e+00 -1.5500000e+01 
[...]
POINT_DATA 2186
FIELD FieldData 3
DISPLACEMENT 3 2186  float
0.0000000e+00 0.0000000e+00 0.0000000e+00 
0.0000000e+00 0.0000000e+00 0.0000000e+00 
0.0000000e+00 0.0000000e+00 0.0000000e+00 
0.0000000e+00 0.0000000e+00 0.0000000e+00 
1.1334454e-05 -8.1558873e-08 -1.4673506e-05 
1.7536273e-07 -1.3495726e-07 1.8321893e-07 
0.0000000e+00 2.1424485e-05 0.0000000e+00 
0.0000000e+00 -2.3463812e-07 0.0000000e+00 
1.5731590e-05 1.1998163e-05 -1.7189001e-05 
1.5448213e-09 2.1419631e-07 -1.1015831e-07 
2.7379827e-05 4.8400479e-06 -1.6725624e-05 
-2.2087491e-08 3.0851405e-07 7.0689801e-08 
0.0000000e+00 2.4132296e-05 0.0000000e+00 
0.0000000e+00 2.3017547e-08 0.0000000e+00 
-3.3574081e-05 6.0391747e-05 -3.8097918e-05 
9.2373409e-07 -5.4732550e-07 5.4839518e-07 
-3.3535685e-05 2.1985583e-05 -4.3269672e-05 
-4.5247059e-08 -5.5407634e-07 2.2099844e-08 
0.0000000e+00 2.1703003e-05 0.0000000e+00 
0.0000000e+00 6.8700064e-07 0.0000000e+00 
0.0000000e+00 -1.4462871e-05 0.0000000e+00 
0.0000000e+00 -8.9419982e-06 0.0000000e+00 
0.0000000e+00 3.0341425e-06 0.0000000e+00 
0.0000000e+00 1.3020574e-05 0.0000000e+00 
0.0000000e+00 1.4987982e-05 0.0000000e+00 
0.0000000e+00 8.6967202e-06 0.0000000e+00 
0.0000000e+00 -1.2691903e-06 0.0000000e+00 
0.0000000e+00 -9.2789251e-06 0.0000000e+00 
0.0000000e+00 -1.1975605e-05 0.0000000e+00 
0.0000000e+00 -9.1881629e-06 0.0000000e+00 
0.0000000e+00 -2.9055366e-06 0.0000000e+00 
0.0000000e+00 4.0966111e-06 0.0000000e+00 
0.0000000e+00 9.1331067e-06 0.0000000e+00 
0.0000000e+00 1.0313765e-05 0.0000000e+00 
0.0000000e+00 7.3849451e-06 0.0000000e+00 
0.0000000e+00 2.0166729e-06 0.0000000e+00 
0.0000000e+00 -3.3361625e-06 0.0000000e+00 
0.0000000e+00 -7.3207284e-06 0.0000000e+00 
0.0000000e+00 -1.0180098e-05 0.0000000e+00 
0.0000000e+00 -1.1894473e-05 0.0000000e+00 
0.0000000e+00 -1.0200819e-05 0.0000000e+00 
0.0000000e+00 -1.8689224e-06 0.0000000e+00 
0.0000000e+00 1.2741062e-05 0.0000000e+00 
0.0000000e+00 2.6497310e-05 0.0000000e+00 
0.0000000e+00 2.8576520e-05 0.0000000e+00 
0.0000000e+00 1.3045016e-05 0.0000000e+00 
0.0000000e+00 -1.4093758e-05 0.0000000e+00 
0.0000000e+00 -3.6681831e-05 0.0000000e+00 
0.0000000e+00 -3.9357546e-05 0.0000000e+00 
0.0000000e+00 -1.9549665e-05 0.0000000e+00 
0.0000000e+00 9.7397369e-06 0.0000000e+00 
0.0000000e+00 2.9513230e-05 0.0000000e+00 
0.0000000e+00 2.9146055e-05 0.0000000e+00 
0.0000000e+00 1.3567661e-05 0.0000000e+00 
0.0000000e+00 -2.3080925e-06 0.0000000e+00 
0.0000000e+00 -6.3939851e-06 0.0000000e+00 
0.0000000e+00 1.3615432e-06 0.0000000e+00 
0.0000000e+00 1.0096247e-05 0.0000000e+00 
0.0000000e+00 7.8023204e-06 0.0000000e+00 
0.0000000e+00 -7.9955253e-06 0.0000000e+00 
0.0000000e+00 -2.7093696e-05 0.0000000e+00 
0.0000000e+00 -3.4304296e-05 0.0000000e+00 
0.0000000e+00 -2.2399685e-05 0.0000000e+00 
0.0000000e+00 9.8864666e-07 0.0000000e+00 
0.0000000e+00 1.9237983e-05 0.0000000e+00 
0.0000000e+00 2.0262900e-05 0.0000000e+00 
0.0000000e+00 5.7866027e-06 0.0000000e+00 
0.0000000e+00 -1.0680054e-05 0.0000000e+00 
0.0000000e+00 -1.4381065e-05 0.0000000e+00 
0.0000000e+00 -4.1489858e-07 0.0000000e+00 
-3.8013241e-05 3.5642617e-05 -8.0369704e-05 
-9.8125374e-06 3.0241703e-05 -1.0644033e-04 
-9.4548595e-06 1.7142234e-05 -1.0934155e-04 
1.2524006e-06 2.0657331e-05 -1.4048973e-04 
5.2088009e-05 5.4662818e-05 -7.6952776e-05 
6.5818829e-05 1.1008077e-04 -4.5960845e-05 
1.1057702e-04 1.6136680e-04 -5.7004403e-05 
9.7747827e-05 1.8162573e-04 -1.4678643e-05 
1.1690121e-04 1.7434442e-04 8.8573825e-06 
1.2422640e-04 1.7350860e-04 2.9064437e-05 
1.6052426e-04 1.8925722e-04 5.4508906e-05 
1.2276064e-04 1.6946164e-04 6.0530263e-05 
1.2512987e-04 6.3129037e-06 9.5653573e-05 
8.8092973e-05 -4.2216544e-04 9.5758078e-05 
4.4918172e-05 -1.1595036e-03 1.7860568e-04 
-3.4310746e-05 -2.1444766e-03 9.5283154e-05 
-6.1343970e-05 -3.3015262e-03 2.7469004e-04 
-1.3476415e-04 -4.3766941e-03 9.2766102e-05 
-1.4917647e-04 -4.9116984e-03 1.2520657e-04 
-2.0297954e-04 -4.5968886e-03 1.1801070e-04 
-2.3909821e-04 -4.2533670e-03 1.2305791e-04 
-3.3766296e-04 -4.2864834e-03 7.5422067e-05 
-3.9047218e-04 -4.5469529e-03 6.4407599e-05 
-3.7911633e-04 -4.3173474e-03 -7.7849563e-06 
-3.2257324e-04 -3.2158066e-03 -2.3363740e-04 
-2.5020831e-04 -1.8859358e-03 -3.9101101e-04 
-1.0167211e-04 -8.2914636e-04 -1.7070553e-04 
-3.0350249e-05 -1.8967109e-04 -8.3930048e-05 
-2.6219093e-05 1.2488243e-04 -1.2110245e-04 
4.1676644e-06 2.2913402e-04 -1.0305169e-04 
5.2629806e-05 2.0812014e-04 -9.7558048e-05 
5.7301510e-05 1.2959934e-04 -6.4815082e-05 
8.5526510e-05 5.4185894e-05 -2.6849131e-05 
4.7840618e-05 1.1600694e-05 8.2361163e-05 
-9.3987610e-06 -2.7557608e-06 4.6183926e-05 
-1.1945894e-05 -7.7200539e-06 4.6771755e-05 
-3.0347641e-05 -1.4676997e-05 1.8818659e-05 
-4.0030165e-05 -1.9040304e-05 4.4585672e-06 
-4.0479656e-05 -9.2364644e-06 -1.9824736e-05 
-4.3664673e-05 1.5874084e-05 -4.1437321e-05 
-4.3171098e-05 4.5517765e-05 -7.8528195e-05 
-1.6706361e-05 6.4428357e-05 -1.1705401e-04 
2.5359885e-05 6.5115666e-05 -1.0862642e-04 
3.2048978e-05 5.3723543e-05 -9.7346536e-05 
4.8862312e-05 5.2744133e-05 -7.8349090e-05 
6.6393033e-05 9.1879163e-05 -3.8511404e-05 
1.0040370e-04 1.6555355e-04 -3.6209960e-05 
1.0744822e-04 2.2633867e-04 1.0890852e-05 
1.2725579e-04 2.3828451e-04 1.4591870e-05 
1.2907833e-04 2.0651300e-04 3.4445187e-05 
1.2577299e-04 1.5784995e-04 5.9690115e-05 
1.2037392e-04 9.7721160e-05 6.4923661e-05 
9.8246870e-05 -5.0003688e-05 1.2160644e-04 
8.3371087e-05 -4.5346160e-04 9.2488517e-05 
3.4934899e-05 -1.2393598e-03 1.7967325e-04 
-4.9152266e-05 -2.3774400e-03 1.0609314e-04 
-9.9070989e-05 -3.6843671e-03 2.4570207e-04 
-2.3891343e-04 -4.6842187e-03 5.8972946e-05 
-2.6355885e-04 -4.8970380e-03 8.2570783e-05 
-2.9218060e-04 -4.4887927e-03 1.0293000e-04 
-2.9905015e-04 -4.2917747e-03 5.3453321e-05 
-3.2641317e-04 -4.4638407e-03 4.5353776e-05 
-3.5842226e-04 -4.6465802e-03 2.8999992e-05 
-3.4124675e-04 -4.0805205e-03 -1.5868885e-05 
-2.5653961e-04 -2.8465721e-03 -2.5261732e-04 
-1.7175145e-04 -1.5648069e-03 -1.4310391e-04 
-8.5028791e-05 -6.2904810e-04 -2.1180150e-04 
-3.4670134e-05 -6.4627442e-05 -9.9102239e-05 
-3.6319201e-05 1.8562895e-04 -9.4729941e-05 
-9.8907703e-06 2.2702597e-04 -9.5641488e-05 
2.0337504e-05 1.7027791e-04 -1.2317754e-04 
3.3930297e-05 1.0001454e-04 -1.1527767e-04 
6.2617153e-05 5.6568897e-05 -5.6221194e-05 
4.7771646e-05 3.2591779e-05 -1.3742311e-05 
1.4051562e-05 6.9150428e-06 4.2718304e-05 
-7.2884586e-06 -1.6927594e-05 4.9047390e-05 
-2.1225405e-05 -2.6484331e-05 4.0175277e-05 
-2.0945869e-05 -1.8947096e-05 2.8841319e-05 
-1.0805806e-05 -3.6046765e-06 -5.5119125e-07 
-2.6423349e-06 7.5997987e-06 -4.0748919e-06 
2.2878191e-06 1.1372632e-05 -9.3241806e-06 
1.9959728e-06 9.8776582e-06 -7.3683636e-06 
2.0667765e-06 4.8936722e-06 -2.2707220e-06 
2.1328997e-06 -2.0262660e-06 -1.3788011e-07 
5.4506199e-07 -8.3424657e-06 4.7815456e-07 
5.7852179e-07 -9.3048229e-06 1.9024312e-06 
-6.3472947e-07 -3.2276744e-06 2.0795926e-06 
-7.2505952e-07 4.5351071e-06 -2.8836436e-07 
-3.7864899e-07 7.4170716e-06 2.0289126e-07 
1.4384264e-08 4.1807752e-06 1.0654095e-07 
2.8853555e-07 -1.3705142e-06 -1.1924535e-06 
2.4214546e-07 -4.3048854e-06 -3.4653439e-08 
-4.1186188e-09 -2.9081900e-06 2.7660178e-07 
-1.0406143e-07 3.0935672e-07 -2.6586636e-07 
-1.6707635e-07 2.2710533e-06 7.3837259e-07 
-2.0365151e-07 2.0689592e-06 -1.6947652e-07 
-3.6773434e-07 5.6399921e-07 1.4204508e-08 
2.0922620e-07 -7.9660288e-07 -8.1309906e-08 
-1.9547079e-07 -1.1676216e-06 7.0722429e-08 
0.0000000e+00 6.0773289e-07 0.0000000e+00 
0.0000000e+00 1.6705286e-06 0.0000000e+00 
0.0000000e+00 1.8904680e-06 0.0000000e+00 
0.0000000e+00 9.3161879e-07 0.0000000e+00 
0.0000000e+00 -7.0923824e-07 0.0000000e+00 
0.0000000e+00 -1.9289275e-06 0.0000000e+00 
0.0000000e+00 -1.8650939e-06 0.0000000e+00 
0.0000000e+00 -6.1245618e-07 0.0000000e+00 
0.0000000e+00 8.7947507e-07 0.0000000e+00 
0.0000000e+00 1.6107945e-06 0.0000000e+00 
0.0000000e+00 1.2659278e-06 0.0000000e+00 
0.0000000e+00 2.7850209e-07 0.0000000e+00 
0.0000000e+00 -6.5642382e-07 0.0000000e+00 
0.0000000e+00 -1.0690593e-06 0.0000000e+00 
0.0000000e+00 -8.6223736e-07 0.0000000e+00 
0.0000000e+00 -2.2345972e-07 0.0000000e+00 
0.0000000e+00 4.8549350e-07 0.0000000e+00 
0.0000000e+00 8.5559941e-07 0.0000000e+00 
0.0000000e+00 6.5350605e-07 0.0000000e+00 
0.0000000e+00 2.6500041e-08 0.0000000e+00 
0.0000000e+00 -5.5859437e-07 0.0000000e+00 
0.0000000e+00 -6.7605691e-07 0.0000000e+00 
0.0000000e+00 -2.9120849e-07 0.0000000e+00 
0.0000000e+00 2.3814030e-07 0.0000000e+00 
0.0000000e+00 4.9679647e-07 0.0000000e+00 
0.0000000e+00 3.4843072e-07 0.0000000e+00 
0.0000000e+00 -1.4906512e-08 0.0000000e+00 
0.0000000e+00 -2.8834680e-07 0.0000000e+00 
0.0000000e+00 -2.9989661e-07 0.0000000e+00 
0.0000000e+00 -9.8464255e-08 0.0000000e+00 
0.0000000e+00 1.3036724e-07 0.0000000e+00 
0.0000000e+00 2.1983816e-07 0.0000000e+00 
0.0000000e+00 1.3402956e-07 0.0000000e+00 
0.0000000e+00 -3.0553146e-08 0.0000000e+00 
0.0000000e+00 -1.4064121e-07 0.0000000e+00 
0.0000000e+00 -1.3215005e-07 0.0000000e+00 
0.0000000e+00 -3.8876102e-08 0.0000000e+00 
0.0000000e+00 5.9769583e-08 0.0000000e+00 
0.0000000e+00 1.0055190e-07 0.0000000e+00 
0.0000000e+00 -1.4515611e-05 0.0000000e+00 
0.0000000e+00 -8.9599025e-06 0.0000000e+00 
0.0000000e+00 3.0872752e-06 0.0000000e+00 
0.0000000e+00 1.3113654e-05 0.0000000e+00 
0.0000000e+00 1.5038741e-05 0.0000000e+00 
0.0000000e+00 8.6380533e-06 0.0000000e+00 
0.0000000e+00 -1.4167080e-06 0.0000000e+00 
0.0000000e+00 -9.4012203e-06 0.0000000e+00 
0.0000000e+00 -1.1953300e-05 0.0000000e+00 
0.0000000e+00 -9.0122112e-06 0.0000000e+00 
0.0000000e+00 -2.7079939e-06 0.0000000e+00 
0.0000000e+00 4.1448538e-06 0.0000000e+00 
0.0000000e+00 8.9796913e-06 0.0000000e+00 
0.0000000e+00 1.0089502e-05 0.0000000e+00 
0.0000000e+00 7.2947223e-06 0.0000000e+00 
0.0000000e+00 2.1403653e-06 0.0000000e+00 
0.0000000e+00 -3.1362190e-06 0.0000000e+00 
0.0000000e+00 -7.2677599e-06 0.0000000e+00 
0.0000000e+00 -1.0340528e-05 0.0000000e+00 
0.0000000e+00 -1.2086482e-05 0.0000000e+00 
0.0000000e+00 -1.0178416e-05 0.0000000e+00 
0.0000000e+00 -1.6001277e-06 0.0000000e+00 
0.0000000e+00 1.3009528e-05 0.0000000e+00 
0.0000000e+00 2.6475367e-05 0.0000000e+00 
0.0000000e+00 2.8227843e-05 0.0000000e+00 
0.0000000e+00 1.2643963e-05 0.0000000e+00 
0.0000000e+00 -1.4199573e-05 0.0000000e+00 
0.0000000e+00 -3.6380061e-05 0.0000000e+00 
0.0000000e+00 -3.8877883e-05 0.0000000e+00 
0.0000000e+00 -1.9277788e-05 0.0000000e+00 
0.0000000e+00 9.5864380e-06 0.0000000e+00 
0.0000000e+00 2.9070074e-05 0.0000000e+00 
0.0000000e+00 2.8779599e-05 0.0000000e+00 
0.0000000e+00 1.3560420e-05 0.0000000e+00 
0.0000000e+00 -1.9770869e-06 0.0000000e+00 
0.0000000e+00 -5.9999115e-06 0.0000000e+00 
0.0000000e+00 1.5177503e-06 0.0000000e+00 
0.0000000e+00 9.8988685e-06 0.0000000e+00 
0.0000000e+00 7.3999299e-06 0.0000000e+00 
0.0000000e+00 -8.2793413e-06 0.0000000e+00 
0.0000000e+00 -2.7005071e-05 0.0000000e+00 
0.0000000e+00 -3.3902888e-05 0.0000000e+00 
0.0000000e+00 -2.2041379e-05 0.0000000e+00 
0.0000000e+00 9.7619613e-07 0.0000000e+00 
0.0000000e+00 1.8863975e-05 0.0000000e+00 
0.0000000e+00 1.9838748e-05 0.0000000e+00 
0.0000000e+00 5.6305712e-06 0.0000000e+00 
0.0000000e+00 -1.0467756e-05 0.0000000e+00 
0.0000000e+00 -1.3939667e-05 0.0000000e+00 
0.0000000e+00 -2.5848184e-08 0.0000000e+00 
0.0000000e+00 2.1982209e-05 0.0000000e+00 
0.0000000e+00 3.4954235e-05 0.0000000e+00 
0.0000000e+00 2.9485995e-05 0.0000000e+00 
0.0000000e+00 1.7119930e-05 0.0000000e+00 
0.0000000e+00 2.1399421e-05 0.0000000e+00 
0.0000000e+00 5.5513574e-05 0.0000000e+00 
0.0000000e+00 1.1045672e-04 0.0000000e+00 
0.0000000e+00 1.6041756e-04 0.0000000e+00 
0.0000000e+00 1.8039013e-04 0.0000000e+00 
0.0000000e+00 1.7471590e-04 0.0000000e+00 
0.0000000e+00 1.7531059e-04 0.0000000e+00 
0.0000000e+00 1.9195941e-04 0.0000000e+00 
0.0000000e+00 1.7136012e-04 0.0000000e+00 
0.0000000e+00 3.8698004e-06 0.0000000e+00 
0.0000000e+00 -4.2672886e-04 0.0000000e+00 
0.0000000e+00 -1.1609757e-03 0.0000000e+00 
0.0000000e+00 -2.1515491e-03 0.0000000e+00 
0.0000000e+00 -3.3123689e-03 0.0000000e+00 
0.0000000e+00 -4.4048629e-03 0.0000000e+00 
0.0000000e+00 -4.9402453e-03 0.0000000e+00 
0.0000000e+00 -4.6292637e-03 0.0000000e+00 
0.0000000e+00 -4.2728945e-03 0.0000000e+00 
0.0000000e+00 -4.3106833e-03 0.0000000e+00 
0.0000000e+00 -4.5677316e-03 0.0000000e+00 
0.0000000e+00 -4.3508154e-03 0.0000000e+00 
0.0000000e+00 -3.2368964e-03 0.0000000e+00 
0.0000000e+00 -1.8970191e-03 0.0000000e+00 
0.0000000e+00 -8.3651306e-04 0.0000000e+00 
0.0000000e+00 -1.8995708e-04 0.0000000e+00 
0.0000000e+00 1.2594083e-04 0.0000000e+00 
0.0000000e+00 2.2980745e-04 0.0000000e+00 
0.0000000e+00 2.0872253e-04 0.0000000e+00 
0.0000000e+00 1.3096692e-04 0.0000000e+00 
0.0000000e+00 5.5235752e-05 0.0000000e+00 
0.0000000e+00 1.1800037e-05 0.0000000e+00 
0.0000000e+00 -3.0606857e-06 0.0000000e+00 
0.0000000e+00 -8.0626623e-06 0.0000000e+00 
0.0000000e+00 -1.4821876e-05 0.0000000e+00 
0.0000000e+00 -1.8804334e-05 0.0000000e+00 
0.0000000e+00 -9.0837902e-06 0.0000000e+00 
0.0000000e+00 1.5949334e-05 0.0000000e+00 
0.0000000e+00 4.5540783e-05 0.0000000e+00 
0.0000000e+00 6.4301392e-05 0.0000000e+00 
0.0000000e+00 6.4377185e-05 0.0000000e+00 
0.0000000e+00 5.2921325e-05 0.0000000e+00 
0.0000000e+00 5.3786680e-05 0.0000000e+00 
0.0000000e+00 9.3652365e-05 0.0000000e+00 
0.0000000e+00 1.6566829e-04 0.0000000e+00 
0.0000000e+00 2.2523377e-04 0.0000000e+00 
0.0000000e+00 2.3721396e-04 0.0000000e+00 
0.0000000e+00 2.0654986e-04 0.0000000e+00 
0.0000000e+00 1.6064118e-04 0.0000000e+00 
0.0000000e+00 1.0194173e-04 0.0000000e+00 
0.0000000e+00 -5.0048697e-05 0.0000000e+00 
0.0000000e+00 -4.5839301e-04 0.0000000e+00 
0.0000000e+00 -1.2459472e-03 0.0000000e+00 
0.0000000e+00 -2.3900045e-03 0.0000000e+00 
0.0000000e+00 -3.6947951e-03 0.0000000e+00 
0.0000000e+00 -4.7117514e-03 0.0000000e+00 
0.0000000e+00 -4.9236650e-03 0.0000000e+00 
0.0000000e+00 -4.5237169e-03 0.0000000e+00 
0.0000000e+00 -4.3099211e-03 0.0000000e+00 
0.0000000e+00 -4.4894558e-03 0.0000000e+00 
0.0000000e+00 -4.6675205e-03 0.0000000e+00 
0.0000000e+00 -4.1131871e-03 0.0000000e+00 
0.0000000e+00 -2.8636635e-03 0.0000000e+00 
0.0000000e+00 -1.5767105e-03 0.0000000e+00 
0.0000000e+00 -6.3128211e-04 0.0000000e+00 
0.0000000e+00 -6.6342778e-05 0.0000000e+00 
0.0000000e+00 1.8570937e-04 0.0000000e+00 
0.0000000e+00 2.2863793e-04 0.0000000e+00 
0.0000000e+00 1.7208306e-04 0.0000000e+00 
0.0000000e+00 1.0143782e-04 0.0000000e+00 
0.0000000e+00 5.6752222e-05 0.0000000e+00 
0.0000000e+00 3.1649517e-05 0.0000000e+00 
0.0000000e+00 6.7966771e-06 0.0000000e+00 
0.0000000e+00 -1.6466436e-05 0.0000000e+00 
0.0000000e+00 -2.6179658e-05 0.0000000e+00 
0.0000000e+00 -1.9010216e-05 0.0000000e+00 
0.0000000e+00 -3.9151282e-06 0.0000000e+00 
0.0000000e+00 7.5198559e-06 0.0000000e+00 
0.0000000e+00 1.1435313e-05 0.0000000e+00 
0.0000000e+00 9.8182500e-06 0.0000000e+00 
0.0000000e+00 4.8385823e-06 0.0000000e+00 
0.0000000e+00 -2.0414902e-06 0.0000000e+00 
0.0000000e+00 -8.1908456e-06 0.0000000e+00 
0.0000000e+00 -9.0841650e-06 0.0000000e+00 
0.0000000e+00 -3.2629675e-06 0.0000000e+00 
0.0000000e+00 4.2988313e-06 0.0000000e+00 
0.0000000e+00 7.2817675e-06 0.0000000e+00 
0.0000000e+00 4.2169536e-06 0.0000000e+00 
0.0000000e+00 -1.2340680e-06 0.0000000e+00 
0.0000000e+00 -4.1880362e-06 0.0000000e+00 
0.0000000e+00 -2.9310329e-06 0.0000000e+00 
0.0000000e+00 2.1797578e-07 0.0000000e+00 
0.0000000e+00 2.2281056e-06 0.0000000e+00 
0.0000000e+00 2.0688292e-06 0.0000000e+00 
0.0000000e+00 5.9018947e-07 0.0000000e+00 
0.0000000e+00 -7.6920378e-07 0.0000000e+00 
0.0000000e+00 -1.1560335e-06 0.0000000e+00 
0.0000000e+00 -5.5012515e-07 0.0000000e+00 
0.0000000e+00 6.0817587e-07 0.0000000e+00 
0.0000000e+00 1.6541019e-06 0.0000000e+00 
0.0000000e+00 1.8650622e-06 0.0000000e+00 
0.0000000e+00 9.2012186e-07 0.0000000e+00 
0.0000000e+00 -6.9344810e-07 0.0000000e+00 
0.0000000e+00 -1.8984601e-06 0.0000000e+00 
0.0000000e+00 -1.8468201e-06 0.0000000e+00 
0.0000000e+00 -6.2056597e-07 0.0000000e+00 
0.0000000e+00 8.5573748e-07 0.0000000e+00 
0.0000000e+00 1.5931349e-06 0.0000000e+00 
0.0000000e+00 1.2650611e-06 0.0000000e+00 
0.0000000e+00 2.8840611e-07 0.0000000e+00 
0.0000000e+00 -6.4636248e-07 0.0000000e+00 
0.0000000e+00 -1.0626700e-06 0.0000000e+00 
0.0000000e+00 -8.5849939e-07 0.0000000e+00 
0.0000000e+00 -2.2380037e-07 0.0000000e+00 
0.0000000e+00 4.7801200e-07 0.0000000e+00 
0.0000000e+00 8.4375193e-07 0.0000000e+00 
0.0000000e+00 6.4693853e-07 0.0000000e+00 
0.0000000e+00 3.2086906e-08 0.0000000e+00 
0.0000000e+00 -5.4535224e-07 0.0000000e+00 
0.0000000e+00 -6.6705945e-07 0.0000000e+00 
0.0000000e+00 -2.9361723e-07 0.0000000e+00 
0.0000000e+00 2.2810498e-07 0.0000000e+00 
0.0000000e+00 4.8845197e-07 0.0000000e+00 
0.0000000e+00 3.4754984e-07 0.0000000e+00 
0.0000000e+00 -9.4021253e-09 0.0000000e+00 
0.0000000e+00 -2.8146130e-07 0.0000000e+00 
0.0000000e+00 -2.9651764e-07 0.0000000e+00 
0.0000000e+00 -1.0074221e-07 0.0000000e+00 
0.0000000e+00 1.2447218e-07 0.0000000e+00 
0.0000000e+00 2.1560368e-07 0.0000000e+00 
0.0000000e+00 1.3540141e-07 0.0000000e+00 
0.0000000e+00 -2.5406646e-08 0.0000000e+00 
0.0000000e+00 -1.3763743e-07 0.0000000e+00 
0.0000000e+00 -1.3428846e-07 0.0000000e+00 
0.0000000e+00 -4.2638593e-08 0.0000000e+00 
0.0000000e+00 5.9413420e-08 0.0000000e+00 
0.0000000e+00 1.0291375e-07 0.0000000e+00 
0.0000000e+00 0.0000000e+00 0.0000000e+00 
0.0000000e+00 0.0000000e+00 0.0000000e+00 
0.0000000e+00 0.0000000e+00 0.0000000e+00 
0.0000000e+00 0.0000000e+00 0.0000000e+00 
0.0000000e+00 0.0000000e+00 0.0000000e+00 
0.0000000e+00 0.0000000e+00 0.0000000e+00 
0.0000000e+00 0.0000000e+00 0.0000000e+00 
0.0000000e+00 0.0000000e+00 0.0000000e+00 
0.0000000e+00 0.0000000e+00 0.0000000e+00 
0.0000000e+00 0.0000000e+00 0.0000000e+00 
0.0000000e+00 0.0000000e+00 0.0000000e+00 
0.0000000e+00 0.0000000e+00 0.0000000e+00 
0.0000000e+00 0.0000000e+00 0.0000000e+00 
0.0000000e+00 0.0000000e+00 0.0000000e+00 
0.0000000e+00 0.0000000e+00 0.0000000e+00 
0.0000000e+00 0.0000000e+00 0.0000000e+00 
0.0000000e+00 0.0000000e+00 0.0000000e+00 
0.0000000e+00 0.0000000e+00 0.0000000e+00 
0.0000000e+00 0.0000000e+00 0.0000000e+00 
0.0000000e+00 0.0000000e+00 0.0000000e+00 
0.0000000e+00 0.0000000e+00 0.0000000e+00 
0.0000000e+00 0.0000000e+00 0.0000000e+00 
0.0000000e+00 0.0000000e+00 0.0000000e+00 
0.0000000e+00 0.0000000e+00 0.0000000e+00 
0.0000000e+00 0.0000000e+00 0.0000000e+00 
0.0000000e+00 0.0000000e+00 0.0000000e+00 
0.0000000e+00 0.0000000e+00 0.0000000e+00 
0.0000000e+00 0.0000000e+00 0.0000000e+00 
0.0000000e+00 0.0000000e+00 0.0000000e+00 
0.0000000e+00 0.0000000e+00 0.0000000e+00 
0.0000000e+00 0.0000000e+00 0.0000000e+00 
0.0000000e+00 0.0000000e+00 0.0000000e+00 
0.0000000e+00 0.0000000e+00 0.0000000e+00 
0.0000000e+00 0.0000000e+00 0.0000000e+00 
0.0000000e+00 0.0000000e+00 0.0000000e+00 
0.0000000e+00 0.0000000e+00 0.0000000e+00 
0.0000000e+00 0.0000000e+00 0.0000000e+00 
0.0000000e+00 0.0000000e+00 0.0000000e+00 
0.0000000e+00 0.0000000e+00 0.0000000e+00 
0.0000000e+00 0.0000000e+00 0.0000000e+00 
0.0000000e+00 0.0000000e+00 0.0000000e+00 
0.0000000e+00 0.0000000e+00 0.0000000e+00 
0.0000000e+00 0.0000000e+00 0.0000000e+00 
0.0000000e+00 0.0000000e+00 0.0000000e+00 
0.0000000e+00 0.0000000e+00 0.0000000e+00 
0.0000000e+00 0.0000000e+00 0.0000000e+00 
0.0000000e+00 0.0000000e+00 0.0000000e+00 
0.0000000e+00 0.0000000e+00 0.0000000e+00 
0.0000000e+00 0.0000000e+00 0.0000000e+00 
0.0000000e+00 0.0000000e+00 0.0000000e+00 
0.0000000e+00 0.0000000e+00 0.0000000e+00 
0.0000000e+00 0.0000000e+00 0.0000000e+00 
0.0000000e+00 0.0000000e+00 0.0000000e+00 
0.0000000e+00 0.0000000e+00 0.0000000e+00 
0.0000000e+00 0.0000000e+00 0.0000000e+00 
0.0000000e+00 0.0000000e+00 0.0000000e+00 
0.0000000e+00 0.0000000e+00 0.0000000e+00 
0.0000000e+00 0.0000000e+00 0.0000000e+00 