# vtk DataFile Version 4.0
vtk output
ASCII
DATASET UNSTRUCTURED_GRID
POINTS 2186 float
0.0000000e+00 0.0000000e+00 0.0000000e+00 
0.0000000e+00 0.0000000e+00 5.0000000e+01 
5.0000000e+00 0.0000000e+00 0.0000000e+00 
5.0000000e+00 0.0000000e+00 5.0000000e+01 
5.0000000e+00 1.0000000e+00 0.0000000e+00 
5.0000000e+00 1.0000000e+00 5.0000000e+01 
0.0000000e+00 1.0000000e+00 0.0000000e+00 
0.0000000e+00 1.0000000e+00 5.0000000e+01 
5.0000000e+00 2.0000000e+00 0.0000000e+00 
5.0000000e+00 2.0000000e+00 5.0000000e+01 
3.0000000e+00 2.0000000e+00 0.0000000e+00 
3.0000000e+00 2.0000000e+00 5.0000000e+01 
0.0000000e+00 2.0000000e+00 0.0000000e+00 
0.0000000e+00 2.0000000e+00 5.0000000e+01 
1.5000000e+00 3.0000000e+00 0.0000000e+00 
1.5000000e+00 3.0000000e+00 5.0000000e+01 
7.5000000e-01 3.0000000e+00 0.0000000e+00 
7.5000000e-01 3.0000000e+00 5.0000000e+01 
0.0000000e+00 3.0000000e+00 0.0000000e+00 
0.0000000e+00 3.0000000e+00 5.0000000e+01 
7.5000000e-01 3.0000000e+00 -2.5000000e+01 
7.5000000e-01 3.0000000e+00 -2.4500000e+01 
7.5000000e-01 3.0000000e+00 -2.4000000e+01 
7.5000000e-01 3.0000000e+00 -2.3500000e+01 
7.5000000e-01 3.0000000e+00 -2.3000000e+01 
7.5000000e-01 3.0000000e+00 -2.2500000e+01 
7.5000000e-01 3.0000000e+00 -2.2000000e+01 
7.5000000e-01 3.0000000e+00 -2.1500000e+01 
7.5000000e-01 3.0000000e+00 -2.1000000e+01 
7.5000000e-01 3.0000000e+00 -2.0500000e+01 
7.5000000e-01 3.0000000e+00 -2.0000000e+01 
7.5000000e-01 3.0000000e+00 -1.9500000e+01 
7.5000000e-01 3.0000000e+00 -1.9000000e+01 
7.5000000e-01 3.0000000e+00 -1.8500000e+01 
7.5000000e-01 3.0000000e+00 -1.8000000e+01 
7.5000000e-01 3.0000000e+00 -1.7500000e+01 
7.5000000e-01 3.0000000e+00 -1.7000000e+01 
7.5000000e-01 3.0000000e+00 -1.6500000e+01 
7.5000000e-01 3.0000000e+00 -1.6000000e+01 
7.5000000e-01 3.0000000e+00 -1.5500000e+01 
7.5000000e-01 3.0000000e+00 -1.5000000e+01 
7.5000000e-01 3.0000000e+00 -1.4500000e+01 
7.5000000e-01 3.0000000e+00 -1.4000000e+01 
7.5000000e-01 3.0000000e+00 -1.3500000e+01 
7.5000000e-01 3.0000000e+00 -1.3000000e+01 
7.5000000e-01 3.0000000e+00 -1.2500000e+01 
7.5000000e-01 3.0000000e+00 -1.2000000e+01 
7.5000000e-01 3.0000000e+00 -1.1500000e+01 
7.5000000e-01 3.0000000e+00 -1.1000000e+01 
7.5000000e-01 3.0000000e+00 -1.0500000e+01 
7.5000000e-01 3.0000000e+00 -1.0000000e+01 
7.5000000e-01 3.0000000e+00 -9.5000000e+00 
7.5000000e-01 3.0000000e+00 -9.0000000e+00 
7.5000000e-01 3.0000000e+00 -8.5000000e+00 
7.5000000e-01 3.0000000e+00 -8.0000000e+00 
7.5000000e-01 3.0000000e+00 -7.5000000e+00 
7.5000000e-01 3.0000000e+00 -7.0000000e+00 
7.5000000e-01 3.0000000e+00 -6.5000000e+00 
7.5000000e-01 3.0000000e+00 -6.0000000e+00 
7.5000000e-01 3.0000000e+00 -5.5000000e+00 
7.5000000e-01 3.0000000e+00 -5.0000000e+00 
7.5000000e-01 3.0000000e+00 -4.5000000e+00 
7.5000000e-01 3.0000000e+00 -4.0000000e+00 
7.5000000e-01 3.0000000e+00 -3.5000000e+00 
7.5000000e-01 3.0000000e+00 -3.0000000e+00 
7.5000000e-01 3.0000000e+00 -2.5000000e+00 
7.5000000e-01 3.0000000e+00 -2.0000000e+00 
7.5000000e-01 3.0000000e+00 -1.5000000e+00 
7.5000000e-01 3.0000000e+00 -1.0000000e+00 
7.5000000e-01 3.0000000e+00 -5.0000000e-01 
7.5000000e-01 3.0000000e+00 5.0000000e-01 
7.5000000e-01 3.0000000e+00 1.0000000e+00 
7.5000000e-01 3.0000000e+00 1.5000000e+00 
7.5000000e-01 3.0000000e+00 2.0000000e+00 
7.5000000e-01 3.0000000e+00 2.5000000e+00 
7.5000000e-01 3.0000000e+00 3.0000000e+00 
7.5000000e-01 3.0000000e+00 3.5000000e+00 
7.5000000e-01 3.0000000e+00 4.0000000e+00 
7.5000000e-01 3.0000000e+00 4.5000000e+00 
7.5000000e-01 3.0000000e+00 5.0000000e+00 
7.5000000e-01 3.0000000e+00 5.5000000e+00 
7.5000000e-01 3.0000000e+00 6.0000000e+00 
7.5000000e-01 3.0000000e+00 6.5000000e+00 
7.5000000e-01 3.0000000e+00 7.0000000e+00 
7.5000000e-01 3.0000000e+00 7.5000000e+00 
7.5000000e-01 3.0000000e+00 8.0000000e+00 
7.5000000e-01 3.0000000e+00 8.5000000e+00 
7.5000000e-01 3.0000000e+00 9.0000000e+00 
7.5000000e-01 3.0000000e+00 9.5000000e+00 
7.5000000e-01 3.0000000e+00 1.0000000e+01 
7.5000000e-01 3.0000000e+00 1.0500000e+01 
7.5000000e-01 3.0000000e+00 1.1000000e+01 
7.5000000e-01 3.0000000e+00 1.1500000e+01 
7.5000000e-01 3.0000000e+00 1.2000000e+01 
7.5000000e-01 3.0000000e+00 1.2500000e+01 
7.5000000e-01 3.0000000e+00 1.3000000e+01 
7.5000000e-01 3.0000000e+00 1.3500000e+01 
7.5000000e-01 3.0000000e+00 1.4000000e+01 
7.5000000e-01 3.0000000e+00 1.4500000e+01 
7.5000000e-01 3.0000000e+00 1.5000000e+01 
7.5000000e-01 3.0000000e+00 1.5500000e+01 
7.5000000e-01 3.0000000e+00 1.6000000e+01 
7.5000000e-01 3.0000000e+00 1.6500000e+01 
7.5000000e-01 3.0000000e+00 1.7000000e+01 
7.5000000e-01 3.0000000e+00 1.7500000e+01 
7.5000000e-01 3.0000000e+00 1.8000000e+01 
7.5000000e-01 3.0000000e+00 1.8500000e+01 
7.5000000e-01 3.0000000e+00 1.9000000e+01 
7.5000000e-01 3.0000000e+00 1.9500000e+01 
7.5000000e-01 3.0000000e+00 2.0000000e+01 
7.5000000e-01 3.0000000e+00 2.0500000e+01 
7.5000000e-01 3.0000000e+00 2.1000000e+01 
7.5000000e-01 3.0000000e+00 2.1500000e+01 
7.5000000e-01 3.0000000e+00 2.2000000e+01 
7.5000000e-01 3.0000000e+00 2.2500000e+01 
7.5000000e-01 3.0000000e+00 2.3000000e+01 
7.5000000e-01 3.0000000e+00 2.3500000e+01 
7.5000000e-01 3.0000000e+00 2.4000000e+01 
7.5000000e-01 3.0000000e+00 2.4500000e+01 
7.5000000e-01 3.0000000e+00 2.5000000e+01 
7.5000000e-01 3.0000000e+00 2.5500000e+01 
7.5000000e-01 3.0000000e+00 2.6000000e+01 
7.5000000e-01 3.0000000e+00 2.6500000e+01 
7.5000000e-01 3.0000000e+00 2.7000000e+01 
7.5000000e-01 3.0000000e+00 2.7500000e+01 
7.5000000e-01 3.0000000e+00 2.8000000e+01 
7.5000000e-01 3.0000000e+00 2.8500000e+01 
7.5000000e-01 3.0000000e+00 2.9000000e+01 
7.5000000e-01 3.0000000e+00 2.9500000e+01 
7.5000000e-01 3.0000000e+00 3.0000000e+01 
7.5000000e-01 3.0000000e+00 3.0500000e+01 
7.5000000e-01 3.0000000e+00 3.1000000e+01 
7.5000000e-01 3.0000000e+00 3.1500000e+01 
7.5000000e-01 3.0000000e+00 3.2000000e+01 
7.5000000e-01 3.0000000e+00 3.2500000e+01 
7.5000000e-01 3.0000000e+00 3.3000000e+01 
7.5000000e-01 3.0000000e+00 3.3500000e+01 
7.5000000e-01 3.0000000e+00 3.4000000e+01 
7.5000000e-01 3.0000000e+00 3.4500000e+01 
7.5000000e-01 3.0000000e+00 3.5000000e+01 
7.5000000e-01 3.0000000e+00 3.5500000e+01 
7.5000000e-01 3.0000000e+00 3.6000000e+01 
7.5000000e-01 3.0000000e+00 3.6500000e+01 
7.5000000e-01 3.0000000e+00 3.7000000e+01 
7.5000000e-01 3.0000000e+00 3.7500000e+01 
7.5000000e-01 3.0000000e+00 3.8000000e+01 
7.5000000e-01 3.0000000e+00 3.8500000e+01 
7.5000000e-01 3.0000000e+00 3.9000000e+01 
7.5000000e-01 3.0000000e+00 3.9500000e+01 
7.5000000e-01 3.0000000e+00 4.0000000e+01 
7.5000000e-01 3.0000000e+00 4.0500000e+01 
7.5000000e-01 3.0000000e+00 4.1000000e+01 
7.5000000e-01 3.0000000e+00 4.1500000e+01 
7.5000000e-01 3.0000000e+00 4.2000000e+01 
7.5000000e-01 3.0000000e+00 4.2500000e+01 
7.5000000e-01 3.0000000e+00 4.3000000e+01 
7.5000000e-01 3.0000000e+00 4.3500000e+01 
7.5000000e-01 3.0000000e+00 4.4000000e+01 
7.5000000e-01 3.0000000e+00 4.4500000e+01 
7.5000000e-01 3.0000000e+00 4.5000000e+01 
7.5000000e-01 3.0000000e+00 4.5500000e+01 
7.5000000e-01 3.0000000e+00 4.6000000e+01 
7.5000000e-01 3.0000000e+00 4.6500000e+01 
7.5000000e-01 3.0000000e+00 4.7000000e+01 
7.5000000e-01 3.0000000e+00 4.7500000e+01 
7.5000000e-01 3.0000000e+00 4.8000000e+01 
7.5000000e-01 3.0000000e+00 4.8500000e+01 
7.5000000e-01 3.0000000e+00 4.9000000e+01 
7.5000000e-01 3.0000000e+00 4.9500000e+01 
7.5000000e-01 3.0000000e+00 5.0500000e+01 
7.5000000e-01 3.0000000e+00 5.1000000e+01 
7.5000000e-01 3.0000000e+00 5.1500000e+01 
7.5000000e-01 3.0000000e+00 5.2000000e+01 
7.5000000e-01 3.0000000e+00 5.2500000e+01 
7.5000000e-01 3.0000000e+00 5.3000000e+01 
7.5000000e-01 3.0000000e+00 5.3500000e+01 
7.5000000e-01 3.0000000e+00 5.4000000e+01 
7.5000000e-01 3.0000000e+00 5.4500000e+01 
7.5000000e-01 3.0000000e+00 5.5000000e+01 
7.5000000e-01 3.0000000e+00 5.5500000e+01 
7.5000000e-01 3.0000000e+00 5.6000000e+01 
7.5000000e-01 3.0000000e+00 5.6500000e+01 
7.5000000e-01 3.0000000e+00 5.7000000e+01 
7.5000000e-01 3.0000000e+00 5.7500000e+01 
7.5000000e-01 3.0000000e+00 5.8000000e+01 
7.5000000e-01 3.0000000e+00 5.8500000e+01 
7.5000000e-01 3.0000000e+00 5.9000000e+01 
7.5000000e-01 3.0000000e+00 5.9500000e+01 
7.5000000e-01 3.0000000e+00 6.0000000e+01 
7.5000000e-01 3.0000000e+00 6.0500000e+01 
7.5000000e-01 3.0000000e+00 6.1000000e+01 
7.5000000e-01 3.0000000e+00 6.1500000e+01 
7.5000000e-01 3.0000000e+00 6.2000000e+01 
7.5000000e-01 3.0000000e+00 6.2500000e+01 
7.5000000e-01 3.0000000e+00 6.3000000e+01 
7.5000000e-01 3.0000000e+00 6.3500000e+01 
7.5000000e-01 3.0000000e+00 6.4000000e+01 
7.5000000e-01 3.0000000e+00 6.4500000e+01 
7.5000000e-01 3.0000000e+00 6.5000000e+01 
7.5000000e-01 3.0000000e+00 6.5500000e+01 
7.5000000e-01 3.0000000e+00 6.6000000e+01 
7.5000000e-01 3.0000000e+00 6.6500000e+01 
7.5000000e-01 3.0000000e+00 6.7000000e+01 
7.5000000e-01 3.0000000e+00 6.7500000e+01 
7.5000000e-01 3.0000000e+00 6.8000000e+01 
7.5000000e-01 3.0000000e+00 6.8500000e+01 
7.5000000e-01 3.0000000e+00 6.9000000e+01 
7.5000000e-01 3.0000000e+00 6.9500000e+01 
7.5000000e-01 3.0250001e+00 -2.5000000e+01 
7.5000000e-01 3.0250001e+00 -2.4500000e+01 
7.5000000e-01 3.0250001e+00 -2.4000000e+01 
7.5000000e-01 3.0250001e+00 -2.3500000e+01 
7.5000000e-01 3.0250001e+00 -2.3000000e+01 
7.5000000e-01 3.0250001e+00 -2.2500000e+01 
7.5000000e-01 3.0250001e+00 -2.2000000e+01 
7.5000000e-01 3.0250001e+00 -2.1500000e+01 
7.5000000e-01 3.0250001e+00 -2.1000000e+01 
7.5000000e-01 3.0250001e+00 -2.0500000e+01 
7.5000000e-01 3.0250001e+00 -2.0000000e+01 
7.5000000e-01 3.0250001e+00 -1.9500000e+01 
7.5000000e-01 3.0250001e+00 -1.9000000e+01 
7.5000000e-01 3.0250001e+00 -1.8500000e+01 
7.5000000e-01 3.0250001e+00 -1.8000000e+01 
7.5000000e-01 3.0250001e+00 -1.7500000e+01 
7.5000000e-01 3.0250001e+00 -1.7000000e+01 
7.5000000e-01 3.0250001e+00 -1.6500000e+01 
7.5000000e-01 3.0250001e+00 -1.6000000e+01 
7.5000000e-01 3.0250001e+00 -1.5500000e+01 
[...]
POINT_DATA 2186
FIELD FieldData 3
DISPLACEMENT 3 2186  float
0.0000000e+00 0.0000000e+00 0.0000000e+00 
0.0000000e+00 0.0000000e+00 0.0000000e+00 
0.0000000e+00 0.0000000e+00 0.0000000e+00 
0.0000000e+00 0.0000000e+00 0.0000000e+00 
4.3230584e-06 -1.7528922e-06 -2.1217572e-06 
2.2355506e-07 -4.1747953e-07 -2.9022937e-07 
0.0000000e+00 7.9682932e-06 0.0000000e+00 
0.0000000e+00 5.4216332e-07 0.0000000e+00 
1.5847747e-06 4.0418690e-06 -1.0848377e-06 
9.2888780e-07 -6.6719218e-07 5.0897421e-07 
2.7937590e-06 -1.2195511e-05 -1.7051161e-05 
-1.1131588e-06 7.0685422e-07 2.3437242e-07 
0.0000000e+00 1.7259734e-05 0.0000000e+00 
0.0000000e+00 7.3339186e-07 0.0000000e+00 
2.8128072e-05 -3.6312085e-05 -5.1517844e-05 
2.1613787e-06 -1.2066280e-06 -7.6469621e-07 
5.2516887e-05 -1.4639305e-06 -5.1256560e-05 
-1.5806280e-07 -7.2504258e-07 1.7511986e-06 
0.0000000e+00 4.5162000e-05 0.0000000e+00 
0.0000000e+00 -9.4120230e-07 0.0000000e+00 
0.0000000e+00 -1.2101649e-05 0.0000000e+00 
0.0000000e+00 -1.2537606e-05 0.0000000e+00 
0.0000000e+00 -1.0800876e-05 0.0000000e+00 
0.0000000e+00 -2.5545401e-06 0.0000000e+00 
0.0000000e+00 1.1994034e-05 0.0000000e+00 
0.0000000e+00 2.5943889e-05 0.0000000e+00 
0.0000000e+00 2.9470226e-05 0.0000000e+00 
0.0000000e+00 1.7271241e-05 0.0000000e+00 
0.0000000e+00 -6.1580936e-06 0.0000000e+00 
0.0000000e+00 -2.8136976e-05 0.0000000e+00 
0.0000000e+00 -3.5789330e-05 0.0000000e+00 
0.0000000e+00 -2.4764231e-05 0.0000000e+00 
0.0000000e+00 -2.1921269e-06 0.0000000e+00 
0.0000000e+00 1.8364442e-05 0.0000000e+00 
0.0000000e+00 2.6161220e-05 0.0000000e+00 
0.0000000e+00 1.9850469e-05 0.0000000e+00 
0.0000000e+00 6.8366289e-06 0.0000000e+00 
0.0000000e+00 -3.3754598e-06 0.0000000e+00 
0.0000000e+00 -6.1722367e-06 0.0000000e+00 
0.0000000e+00 -3.8820249e-06 0.0000000e+00 
0.0000000e+00 -2.1193136e-06 0.0000000e+00 
0.0000000e+00 -4.2243605e-06 0.0000000e+00 
0.0000000e+00 -8.5672064e-06 0.0000000e+00 
0.0000000e+00 -1.0569895e-05 0.0000000e+00 
0.0000000e+00 -7.2494781e-06 0.0000000e+00 
0.0000000e+00 -1.3842674e-07 0.0000000e+00 
0.0000000e+00 5.9954141e-06 0.0000000e+00 
0.0000000e+00 7.4465852e-06 0.0000000e+00 
0.0000000e+00 4.9344249e-06 0.0000000e+00 
0.0000000e+00 2.8543125e-06 0.0000000e+00 
0.0000000e+00 4.9940663e-06 0.0000000e+00 
0.0000000e+00 1.0568986e-05 0.0000000e+00 
0.0000000e+00 1.4229094e-05 0.0000000e+00 
0.0000000e+00 1.0318730e-05 0.0000000e+00 
0.0000000e+00 -1.9321355e-06 0.0000000e+00 
0.0000000e+00 -1.6638554e-05 0.0000000e+00 
0.0000000e+00 -2.4891333e-05 0.0000000e+00 
0.0000000e+00 -2.1420870e-05 0.0000000e+00 
0.0000000e+00 -8.9245277e-06 0.0000000e+00 
0.0000000e+00 3.8615017e-06 0.0000000e+00 
0.0000000e+00 8.9464975e-06 0.0000000e+00 
0.0000000e+00 5.0159442e-06 0.0000000e+00 
0.0000000e+00 -2.2275867e-06 0.0000000e+00 
0.0000000e+00 -5.0653507e-06 0.0000000e+00 
0.0000000e+00 1.4337050e-07 0.0000000e+00 
0.0000000e+00 1.0221022e-05 0.0000000e+00 
0.0000000e+00 1.7656319e-05 0.0000000e+00 
0.0000000e+00 1.6659527e-05 0.0000000e+00 
0.0000000e+00 8.1931203e-06 0.0000000e+00 
0.0000000e+00 -4.3503832e-07 0.0000000e+00 
3.2551834e-05 7.9431629e-06 -1.8675479e-05 
3.1010408e-05 1.9778156e-05 -9.5869689e-07 
2.9985804e-05 2.4894236e-05 1.7176442e-05 
4.2062555e-05 2.1656777e-05 1.9840676e-05 
2.6930844e-05 1.5145224e-05 1.8638833e-05 
1.4514500e-05 1.2667138e-05 2.2751768e-05 
-5.6296221e-06 1.7382798e-05 2.1835733e-05 
-1.9156138e-05 1.9552952e-05 1.1954148e-05 
-2.3041914e-05 9.6789599e-06 1.4675852e-05 
-2.7643595e-05 -1.3065838e-05 1.5954420e-05 
-3.5617166e-05 -2.9399340e-05 7.1552322e-06 
-3.2197975e-05 -1.6957516e-05 -1.2443461e-06 
-2.7640523e-05 2.1368620e-05 -7.6319366e-06 
-3.2457643e-05 5.6557121e-05 -1.0950555e-05 
-1.2012105e-05 6.7570443e-05 -2.1791982e-05 
2.8890988e-06 5.2543313e-05 -4.7978148e-07 
-9.2990613e-06 4.3046450e-05 4.8115129e-07 
4.2642505e-06 6.0086379e-05 1.3831871e-05 
-2.5315640e-06 5.0505703e-05 5.7732839e-05 
1.4680642e-05 -1.3172369e-04 6.2842213e-05 
-1.5105436e-05 -6.1620388e-04 1.5458818e-04 
-4.7991980e-05 -1.4307990e-03 1.4369567e-04 
-1.1153902e-04 -2.5293671e-03 2.8264101e-04 
-2.0882845e-04 -3.7654501e-03 1.1164390e-04 
-3.0480465e-04 -4.9073515e-03 2.0788598e-04 
-6.3508295e-04 -5.4002693e-03 9.0360365e-05 
-2.4171022e-04 -4.9627009e-03 6.9570124e-05 
-1.8949815e-04 -4.4936887e-03 1.1225574e-04 
-1.9717189e-04 -4.4669616e-03 1.0198428e-04 
-2.6150246e-04 -4.6177935e-03 -2.2599203e-05 
-2.6144521e-04 -4.2892094e-03 -1.1590376e-04 
-2.2879608e-04 -3.0828856e-03 -1.0514684e-04 
-1.7584948e-04 -1.7465285e-03 -2.7796280e-04 
-1.2392977e-04 -7.4425555e-04 -3.9028027e-04 
-3.2780237e-05 -1.3687895e-04 -2.3459205e-04 
3.8257158e-06 1.5865655e-04 -1.6699091e-04 
3.1736439e-05 2.5515587e-04 -1.3317895e-04 
3.5008885e-05 2.3067239e-04 -1.1340276e-04 
4.6241003e-05 1.5100509e-04 -1.0070846e-04 
5.9612106e-05 7.3112329e-05 -8.7888846e-05 
6.0751285e-05 2.9589075e-05 -5.9235521e-05 
6.0738577e-05 1.7537544e-05 -2.6987462e-05 
6.0299124e-05 1.4297168e-05 2.5129826e-05 
3.9262351e-05 5.6694994e-06 4.8398055e-05 
1.1730584e-05 -6.2476001e-06 6.0580474e-05 
5.4068641e-06 -1.3715173e-05 5.2105435e-05 
-1.1124782e-05 -1.1986960e-05 2.4868275e-05 
-1.5571470e-05 -6.8281571e-07 1.2430306e-05 
-2.2888094e-05 1.2624164e-05 1.6853422e-05 
-3.1625968e-05 7.8403291e-06 1.8238679e-05 
-3.5879013e-05 -1.4146914e-05 4.7183248e-06 
-3.6333538e-05 -2.4988043e-05 -6.2074128e-07 
-2.9265721e-05 -1.9173519e-06 -1.3609256e-05 
-2.0832900e-05 4.6129622e-05 -5.9412519e-06 
-2.5901525e-06 9.0369649e-05 -1.1545766e-05 
7.5067564e-06 9.7424389e-05 -9.8630801e-07 
-4.3550667e-06 7.0290967e-05 -4.0389580e-07 
1.7404955e-05 2.8884862e-05 2.1991435e-05 
-4.1747880e-06 -3.6845398e-05 8.1046936e-05 
9.4646721e-06 -2.0865352e-04 9.6420365e-05 
-2.2170838e-05 -6.3765055e-04 2.0952943e-04 
-5.5916160e-05 -1.4685567e-03 1.6712501e-04 
-1.2602459e-04 -2.6957926e-03 2.7293910e-04 
-2.1663918e-04 -4.0420075e-03 8.7955334e-05 
-2.7852959e-04 -5.0578085e-03 1.7990380e-04 
-3.0801957e-04 -5.1561058e-03 7.0401671e-05 
-2.7698162e-04 -4.7183274e-03 -2.4974865e-05 
-2.7168985e-04 -4.4553848e-03 2.0068639e-05 
-2.3417150e-04 -4.6291719e-03 1.1305839e-05 
-2.4465311e-04 -4.7298525e-03 -6.1162944e-05 
-2.2405759e-04 -4.0951325e-03 -1.6648472e-04 
-1.9876221e-04 -2.7845204e-03 -1.0861591e-04 
-1.4575789e-04 -1.4992798e-03 -2.6319630e-04 
-7.8743571e-05 -5.6517165e-04 -1.6087158e-04 
-4.3426058e-05 -1.5733462e-05 -1.9868123e-04 
-2.7790813e-05 2.3268306e-04 -1.4763164e-04 
1.6587050e-05 2.7184861e-04 -9.7013166e-05 
3.6842819e-06 2.0515735e-04 -8.8126413e-05 
1.6988390e-05 1.2126873e-04 -5.5668024e-05 
2.1560327e-05 5.9856593e-05 -5.7860736e-05 
3.1563275e-05 1.9552501e-05 -2.8670131e-05 
2.3156204e-05 -9.1396214e-06 -9.3782946e-06 
1.7613187e-05 -2.7770586e-05 2.4856690e-05 
1.0219978e-05 -3.1808355e-05 3.7002712e-05 
5.3726768e-07 -2.4150622e-05 3.6283505e-05 
5.3465038e-07 -1.4731603e-05 2.6774782e-05 
-1.3332843e-06 -9.7845286e-06 1.2580560e-05 
-1.0738397e-06 -6.5069817e-06 6.1679511e-06 
-2.8818333e-06 2.3048123e-08 6.6555767e-06 
-2.4328688e-06 7.4108434e-06 7.5207709e-06 
-4.1040353e-06 1.0091398e-05 8.1347134e-06 
-4.7847720e-06 6.9312441e-06 5.0254375e-06 
-3.9523015e-06 2.0466412e-06 1.6801266e-06 
-3.0788040e-06 -3.0225590e-07 -2.1279398e-07 
-2.8844161e-06 4.0870935e-07 -3.0714400e-06 
-1.7078545e-06 1.3797446e-06 -5.6993886e-06 
8.5178556e-07 8.2277478e-07 -4.9965697e-06 
1.5877980e-06 -4.8694488e-07 -4.7347153e-06 
3.0201761e-06 -1.0952579e-06 -9.5994199e-07 
0.0000000e+00 -2.1895960e-07 0.0000000e+00 
0.0000000e+00 -3.9181910e-07 0.0000000e+00 
0.0000000e+00 -8.4363501e-07 0.0000000e+00 
0.0000000e+00 -7.8608230e-07 0.0000000e+00 
0.0000000e+00 -1.7891081e-07 0.0000000e+00 
0.0000000e+00 2.3626805e-07 0.0000000e+00 
0.0000000e+00 -7.6305660e-08 0.0000000e+00 
0.0000000e+00 -7.7423613e-07 0.0000000e+00 
0.0000000e+00 -1.0843795e-06 0.0000000e+00 
0.0000000e+00 -7.1806494e-07 0.0000000e+00 
0.0000000e+00 -9.8154850e-08 0.0000000e+00 
0.0000000e+00 2.8178016e-07 0.0000000e+00 
0.0000000e+00 4.4386044e-07 0.0000000e+00 
0.0000000e+00 7.1013130e-07 0.0000000e+00 
0.0000000e+00 1.0624914e-06 0.0000000e+00 
0.0000000e+00 1.0110283e-06 0.0000000e+00 
0.0000000e+00 1.9997209e-07 0.0000000e+00 
0.0000000e+00 -1.0089726e-06 0.0000000e+00 
0.0000000e+00 -1.7352297e-06 0.0000000e+00 
0.0000000e+00 -1.3793301e-06 0.0000000e+00 
0.0000000e+00 -1.6353331e-07 0.0000000e+00 
0.0000000e+00 1.0993996e-06 0.0000000e+00 
0.0000000e+00 1.6726887e-06 0.0000000e+00 
0.0000000e+00 1.3294954e-06 0.0000000e+00 
0.0000000e+00 3.1542947e-07 0.0000000e+00 
0.0000000e+00 -8.8390510e-07 0.0000000e+00 
0.0000000e+00 -1.7006467e-06 0.0000000e+00 
0.0000000e+00 -1.6385756e-06 0.0000000e+00 
0.0000000e+00 -5.6998744e-07 0.0000000e+00 
0.0000000e+00 9.9963165e-07 0.0000000e+00 
0.0000000e+00 2.0889249e-06 0.0000000e+00 
0.0000000e+00 1.8937965e-06 0.0000000e+00 
0.0000000e+00 4.4785770e-07 0.0000000e+00 
0.0000000e+00 -1.3276438e-06 0.0000000e+00 
0.0000000e+00 -2.2786626e-06 0.0000000e+00 
0.0000000e+00 -1.8329556e-06 0.0000000e+00 
0.0000000e+00 -3.3588407e-07 0.0000000e+00 
0.0000000e+00 1.2488989e-06 0.0000000e+00 
0.0000000e+00 1.9319882e-06 0.0000000e+00 
0.0000000e+00 -1.2252829e-05 0.0000000e+00 
0.0000000e+00 -1.2589220e-05 0.0000000e+00 
0.0000000e+00 -1.0660981e-05 0.0000000e+00 
0.0000000e+00 -2.3197558e-06 0.0000000e+00 
0.0000000e+00 1.2121969e-05 0.0000000e+00 
0.0000000e+00 2.5831358e-05 0.0000000e+00 
0.0000000e+00 2.9176002e-05 0.0000000e+00 
0.0000000e+00 1.7013723e-05 0.0000000e+00 
0.0000000e+00 -6.1712994e-06 0.0000000e+00 
0.0000000e+00 -2.7879660e-05 0.0000000e+00 
0.0000000e+00 -3.5445570e-05 0.0000000e+00 
0.0000000e+00 -2.4588458e-05 0.0000000e+00 
0.0000000e+00 -2.3109335e-06 0.0000000e+00 
0.0000000e+00 1.8050225e-05 0.0000000e+00 
0.0000000e+00 2.5895131e-05 0.0000000e+00 
0.0000000e+00 1.9825644e-05 0.0000000e+00 
0.0000000e+00 7.0473125e-06 0.0000000e+00 
0.0000000e+00 -3.1155034e-06 0.0000000e+00 
0.0000000e+00 -6.0672874e-06 0.0000000e+00 
0.0000000e+00 -3.9914607e-06 0.0000000e+00 
0.0000000e+00 -2.3271161e-06 0.0000000e+00 
0.0000000e+00 -4.3510795e-06 0.0000000e+00 
0.0000000e+00 -8.5193806e-06 0.0000000e+00 
0.0000000e+00 -1.0407110e-05 0.0000000e+00 
0.0000000e+00 -7.1248328e-06 0.0000000e+00 
0.0000000e+00 -1.6515213e-07 0.0000000e+00 
0.0000000e+00 5.8424780e-06 0.0000000e+00 
0.0000000e+00 7.3095557e-06 0.0000000e+00 
0.0000000e+00 4.9450391e-06 0.0000000e+00 
0.0000000e+00 3.0136400e-06 0.0000000e+00 
0.0000000e+00 5.1696484e-06 0.0000000e+00 
0.0000000e+00 1.0609469e-05 0.0000000e+00 
0.0000000e+00 1.4092248e-05 0.0000000e+00 
0.0000000e+00 1.0108824e-05 0.0000000e+00 
0.0000000e+00 -2.0421794e-06 0.0000000e+00 
0.0000000e+00 -1.6545078e-05 0.0000000e+00 
0.0000000e+00 -2.4657360e-05 0.0000000e+00 
0.0000000e+00 -2.1240956e-05 0.0000000e+00 
0.0000000e+00 -8.9614932e-06 0.0000000e+00 
0.0000000e+00 3.6282265e-06 0.0000000e+00 
0.0000000e+00 8.7062281e-06 0.0000000e+00 
0.0000000e+00 4.9563164e-06 0.0000000e+00 
0.0000000e+00 -2.0746008e-06 0.0000000e+00 
0.0000000e+00 -4.8288912e-06 0.0000000e+00 
0.0000000e+00 2.8383315e-07 0.0000000e+00 
0.0000000e+00 1.0159359e-05 0.0000000e+00 
0.0000000e+00 1.7434519e-05 0.0000000e+00 
0.0000000e+00 1.6451753e-05 0.0000000e+00 
0.0000000e+00 8.1714879e-06 0.0000000e+00 
0.0000000e+00 -2.6567852e-07 0.0000000e+00 
0.0000000e+00 -1.0240573e-06 0.0000000e+00 
0.0000000e+00 8.0090176e-06 0.0000000e+00 
0.0000000e+00 1.9497167e-05 0.0000000e+00 
0.0000000e+00 2.4662964e-05 0.0000000e+00 
0.0000000e+00 2.1590839e-05 0.0000000e+00 
0.0000000e+00 1.5256367e-05 0.0000000e+00 
0.0000000e+00 1.3141937e-05 0.0000000e+00 
0.0000000e+00 1.7542379e-05 0.0000000e+00 
0.0000000e+00 1.9464991e-05 0.0000000e+00 
0.0000000e+00 8.8628840e-06 0.0000000e+00 
0.0000000e+00 -1.3458679e-05 0.0000000e+00 
0.0000000e+00 -2.8594295e-05 0.0000000e+00 
0.0000000e+00 -1.5858321e-05 0.0000000e+00 
0.0000000e+00 2.1457465e-05 0.0000000e+00 
0.0000000e+00 5.6225985e-05 0.0000000e+00 
0.0000000e+00 6.6144908e-05 0.0000000e+00 
0.0000000e+00 5.2378295e-05 0.0000000e+00 
0.0000000e+00 4.5399764e-05 0.0000000e+00 
0.0000000e+00 6.3930805e-05 0.0000000e+00 
0.0000000e+00 5.1227966e-05 0.0000000e+00 
0.0000000e+00 -1.3450738e-04 0.0000000e+00 
0.0000000e+00 -6.1981415e-04 0.0000000e+00 
0.0000000e+00 -1.4361185e-03 0.0000000e+00 
0.0000000e+00 -2.5323036e-03 0.0000000e+00 
0.0000000e+00 -3.7827808e-03 0.0000000e+00 
0.0000000e+00 -4.9356990e-03 0.0000000e+00 
0.0000000e+00 -5.4255454e-03 0.0000000e+00 
0.0000000e+00 -4.9948040e-03 0.0000000e+00 
0.0000000e+00 -4.5203334e-03 0.0000000e+00 
0.0000000e+00 -4.4852928e-03 0.0000000e+00 
0.0000000e+00 -4.6460624e-03 0.0000000e+00 
0.0000000e+00 -4.3149646e-03 0.0000000e+00 
0.0000000e+00 -3.1085215e-03 0.0000000e+00 
0.0000000e+00 -1.7596312e-03 0.0000000e+00 
0.0000000e+00 -7.4770197e-04 0.0000000e+00 
0.0000000e+00 -1.3746315e-04 0.0000000e+00 
0.0000000e+00 1.5963240e-04 0.0000000e+00 
0.0000000e+00 2.5560983e-04 0.0000000e+00 
0.0000000e+00 2.3146492e-04 0.0000000e+00 
0.0000000e+00 1.5209726e-04 0.0000000e+00 
0.0000000e+00 7.4128329e-05 0.0000000e+00 
0.0000000e+00 3.0035666e-05 0.0000000e+00 
0.0000000e+00 1.7285533e-05 0.0000000e+00 
0.0000000e+00 1.3981567e-05 0.0000000e+00 
0.0000000e+00 5.6191948e-06 0.0000000e+00 
0.0000000e+00 -6.3206794e-06 0.0000000e+00 
0.0000000e+00 -1.3873309e-05 0.0000000e+00 
0.0000000e+00 -1.1665679e-05 0.0000000e+00 
0.0000000e+00 1.9152667e-07 0.0000000e+00 
0.0000000e+00 1.2122834e-05 0.0000000e+00 
0.0000000e+00 6.7026253e-06 0.0000000e+00 
0.0000000e+00 -1.4335025e-05 0.0000000e+00 
0.0000000e+00 -2.4059076e-05 0.0000000e+00 
0.0000000e+00 -8.9125956e-07 0.0000000e+00 
0.0000000e+00 4.6836845e-05 0.0000000e+00 
0.0000000e+00 8.9245819e-05 0.0000000e+00 
0.0000000e+00 9.6644624e-05 0.0000000e+00 
0.0000000e+00 7.0775495e-05 0.0000000e+00 
0.0000000e+00 3.0947285e-05 0.0000000e+00 
0.0000000e+00 -3.3762262e-05 0.0000000e+00 
0.0000000e+00 -2.0731878e-04 0.0000000e+00 
0.0000000e+00 -6.4214773e-04 0.0000000e+00 
0.0000000e+00 -1.4791912e-03 0.0000000e+00 
0.0000000e+00 -2.7036313e-03 0.0000000e+00 
0.0000000e+00 -4.0605515e-03 0.0000000e+00 
0.0000000e+00 -5.0786515e-03 0.0000000e+00 
0.0000000e+00 -5.1932246e-03 0.0000000e+00 
0.0000000e+00 -4.7431029e-03 0.0000000e+00 
0.0000000e+00 -4.4838968e-03 0.0000000e+00 
0.0000000e+00 -4.6463436e-03 0.0000000e+00 
0.0000000e+00 -4.7603138e-03 0.0000000e+00 
0.0000000e+00 -4.1203084e-03 0.0000000e+00 
0.0000000e+00 -2.8059182e-03 0.0000000e+00 
0.0000000e+00 -1.5081968e-03 0.0000000e+00 
0.0000000e+00 -5.6894840e-04 0.0000000e+00 
0.0000000e+00 -1.6003125e-05 0.0000000e+00 
0.0000000e+00 2.3262664e-04 0.0000000e+00 
0.0000000e+00 2.7293104e-04 0.0000000e+00 
0.0000000e+00 2.0718123e-04 0.0000000e+00 
0.0000000e+00 1.2250997e-04 0.0000000e+00 
0.0000000e+00 5.9807448e-05 0.0000000e+00 
0.0000000e+00 1.9274841e-05 0.0000000e+00 
0.0000000e+00 -9.1285983e-06 0.0000000e+00 
0.0000000e+00 -2.7448315e-05 0.0000000e+00 
0.0000000e+00 -3.1734748e-05 0.0000000e+00 
0.0000000e+00 -2.4414912e-05 0.0000000e+00 
0.0000000e+00 -1.4999652e-05 0.0000000e+00 
0.0000000e+00 -9.7513948e-06 0.0000000e+00 
0.0000000e+00 -6.2141148e-06 0.0000000e+00 
0.0000000e+00 6.5122080e-08 0.0000000e+00 
0.0000000e+00 7.1830805e-06 0.0000000e+00 
0.0000000e+00 9.9344361e-06 0.0000000e+00 
0.0000000e+00 7.0066062e-06 0.0000000e+00 
0.0000000e+00 2.1964522e-06 0.0000000e+00 
0.0000000e+00 -2.3252358e-07 0.0000000e+00 
0.0000000e+00 3.3624704e-07 0.0000000e+00 
0.0000000e+00 1.3026429e-06 0.0000000e+00 
0.0000000e+00 8.3210995e-07 0.0000000e+00 
0.0000000e+00 -4.4158932e-07 0.0000000e+00 
0.0000000e+00 -1.0765790e-06 0.0000000e+00 
0.0000000e+00 -7.3677353e-07 0.0000000e+00 
0.0000000e+00 -2.5510531e-07 0.0000000e+00 
0.0000000e+00 -3.9192955e-07 0.0000000e+00 
0.0000000e+00 -8.1611017e-07 0.0000000e+00 
0.0000000e+00 -7.7211899e-07 0.0000000e+00 
0.0000000e+00 -1.9753523e-07 0.0000000e+00 
0.0000000e+00 2.0930953e-07 0.0000000e+00 
0.0000000e+00 -7.8491404e-08 0.0000000e+00 
0.0000000e+00 -7.5180395e-07 0.0000000e+00 
0.0000000e+00 -1.0677761e-06 0.0000000e+00 
0.0000000e+00 -7.2729415e-07 0.0000000e+00 
0.0000000e+00 -1.1828158e-07 0.0000000e+00 
0.0000000e+00 2.7892870e-07 0.0000000e+00 
0.0000000e+00 4.6231770e-07 0.0000000e+00 
0.0000000e+00 7.2532259e-07 0.0000000e+00 
0.0000000e+00 1.0534878e-06 0.0000000e+00 
0.0000000e+00 9.8685211e-07 0.0000000e+00 
0.0000000e+00 1.8785647e-07 0.0000000e+00 
0.0000000e+00 -9.9614363e-07 0.0000000e+00 
0.0000000e+00 -1.7118097e-06 0.0000000e+00 
0.0000000e+00 -1.3677787e-06 0.0000000e+00 
0.0000000e+00 -1.6996657e-07 0.0000000e+00 
0.0000000e+00 1.0865477e-06 0.0000000e+00 
0.0000000e+00 1.6645889e-06 0.0000000e+00 
0.0000000e+00 1.3254106e-06 0.0000000e+00 
0.0000000e+00 3.1053236e-07 0.0000000e+00 
0.0000000e+00 -8.8608630e-07 0.0000000e+00 
0.0000000e+00 -1.6909156e-06 0.0000000e+00 
0.0000000e+00 -1.6173127e-06 0.0000000e+00 
0.0000000e+00 -5.5341360e-07 0.0000000e+00 
0.0000000e+00 9.9380156e-07 0.0000000e+00 
0.0000000e+00 2.0616037e-06 0.0000000e+00 
0.0000000e+00 1.8664740e-06 0.0000000e+00 
0.0000000e+00 4.4272412e-07 0.0000000e+00 
0.0000000e+00 -1.3080822e-06 0.0000000e+00 
0.0000000e+00 -2.2514805e-06 0.0000000e+00 
0.0000000e+00 -1.8170639e-06 0.0000000e+00 
0.0000000e+00 -3.3727594e-07 0.0000000e+00 
0.0000000e+00 1.2360721e-06 0.0000000e+00 
0.0000000e+00 1.9158756e-06 0.0000000e+00 
0.0000000e+00 0.0000000e+00 0.0000000e+00 
0.0000000e+00 0.0000000e+00 0.0000000e+00 
0.0000000e+00 0.0000000e+00 0.0000000e+00 
0.0000000e+00 0.0000000e+00 0.0000000e+00 
0.0000000e+00 0.0000000e+00 0.0000000e+00 
0.0000000e+00 0.0000000e+00 0.0000000e+00 
0.0000000e+00 0.0000000e+00 0.0000000e+00 
0.0000000e+00 0.0000000e+00 0.0000000e+00 
0.0000000e+00 0.0000000e+00 0.0000000e+00 
0.0000000e+00 0.0000000e+00 0.0000000e+00 
0.0000000e+00 0.0000000e+00 0.0000000e+00 
0.0000000e+00 0.0000000e+00 0.0000000e+00 
0.0000000e+00 0.0000000e+00 0.0000000e+00 
0.0000000e+00 0.0000000e+00 0.0000000e+00 
0.0000000e+00 0.0000000e+00 0.0000000e+00 
0.0000000e+00 0.0000000e+00 0.0000000e+00 
0.0000000e+00 0.0000000e+00 0.0000000e+00 
0.0000000e+00 0.0000000e+00 0.0000000e+00 
0.0000000e+00 0.0000000e+00 0.0000000e+00 
0.0000000e+00 0.0000000e+00 0.0000000e+00 
0.0000000e+00 0.0000000e+00 0.0000000e+00 
0.0000000e+00 0.0000000e+00 0.0000000e+00 
0.0000000e+00 0.0000000e+00 0.0000000e+00 
0.0000000e+00 0.0000000e+00 0.0000000e+00 
0.0000000e+00 0.0000000e+00 0.0000000e+00 
0.0000000e+00 0.0000000e+00 0.0000000e+00 
0.0000000e+00 0.0000000e+00 0.0000000e+00 
0.0000000e+00 0.0000000e+00 0.0000000e+00 
0.0000000e+00 0.0000000e+00 0.0000000e+00 
0.0000000e+00 0.0000000e+00 0.0000000e+00 
0.0000000e+00 0.0000000e+00 0.0000000e+00 
0.0000000e+00 0.0000000e+00 0.0000000e+00 
0.0000000e+00 0.0000000e+00 0.0000000e+00 
0.0000000e+00 0.0000000e+00 0.0000000e+00 
0.0000000e+00 0.0000000e+00 0.0000000e+00 
0.0000000e+00 0.0000000e+00 0.0000000e+00 
0.0000000e+00 0.0000000e+00 0.0000000e+00 
0.0000000e+00 0.0000000e+00 0.0000000e+00 
0.0000000e+00 0.0000000e+00 0.0000000e+00 
0.0000000e+00 0.0000000e+00 0.0000000e+00 
0.0000000e+00 0.0000000e+00 0.0000000e+00 
0.0000000e+00 0.0000000e+00 0.0000000e+00 
0.0000000e+00 0.0000000e+00 0.0000000e+00 
0.0000000e+00 0.0000000e+00 0.0000000e+00 
0.0000000e+00 0.0000000e+00 0.0000000e+00 
0.0000000e+00 0.0000000e+00 0.0000000e+00 
0.0000000e+00 0.0000000e+00 0.0000000e+00 
0.0000000e+00 0.0000000e+00 0.0000000e+00 
0.0000000e+00 0.0000000e+00 0.0000000e+00 
0.0000000e+00 0.0000000e+00 0.0000000e+00 
0.0000000e+00 0.0000000e+00 0.0000000e+00 
0.0000000e+00 0.0000000e+00 0.0000000e+00 
0.0000000e+00 0.0000000e+00 0.0000000e+00 
0.0000000e+00 0.0000000e+00 0.0000000e+00 
0.0000000e+00 0.0000000e+00 0.0000000e+00 
0.0000000e+00 0.0000000e+00 0.0000000e+00 
0.0000000e+00 0.0000000e+00 0.0000000e+00 
0.0000000e+00 0.0000000e+00 0.0000000e+00 