# vtk DataFile Version 4.0
vtk output
ASCII
DATASET UNSTRUCTURED_GRID
POINTS 2186 float
0.0000000e+00 0.0000000e+00 0.0000000e+00 
0.0000000e+00 0.0000000e+00 5.0000000e+01 
5.0000000e+00 0.0000000e+00 0.0000000e+00 
5.0000000e+00 0.0000000e+00 5.0000000e+01 
5.0000000e+00 1.0000000e+00 0.0000000e+00 
5.0000000e+00 1.0000000e+00 5.0000000e+01 
0.0000000e+00 1.0000000e+00 0.0000000e+00 
0.0000000e+00 1.0000000e+00 5.0000000e+01 
5.0000000e+00 2.0000000e+00 0.0000000e+00 
5.0000000e+00 2.0000000e+00 5.0000000e+01 
3.0000000e+00 2.0000000e+00 0.0000000e+00 
3.0000000e+00 2.0000000e+00 5.0000000e+01 
0.0000000e+00 2.0000000e+00 0.0000000e+00 
0.0000000e+00 2.0000000e+00 5.0000000e+01 
1.5000000e+00 3.0000000e+00 0.0000000e+00 
1.5000000e+00 3.0000000e+00 5.0000000e+01 
7.5000000e-01 3.0000000e+00 0.0000000e+00 
7.5000000e-01 3.0000000e+00 5.0000000e+01 
0.0000000e+00 3.0000000e+00 0.0000000e+00 
0.0000000e+00 3.0000000e+00 5.0000000e+01 
7.5000000e-01 3.0000000e+00 -2.5000000e+01 
7.5000000e-01 3.0000000e+00 -2.4500000e+01 
7.5000000e-01 3.0000000e+00 -2.4000000e+01 
7.5000000e-01 3.0000000e+00 -2.3500000e+01 
7.5000000e-01 3.0000000e+00 -2.3000000e+01 
7.5000000e-01 3.0000000e+00 -2.2500000e+01 
7.5000000e-01 3.0000000e+00 -2.2000000e+01 
7.5000000e-01 3.0000000e+00 -2.1500000e+01 
7.5000000e-01 3.0000000e+00 -2.1000000e+01 
7.5000000e-01 3.0000000e+00 -2.0500000e+01 
7.5000000e-01 3.0000000e+00 -2.0000000e+01 
7.5000000e-01 3.0000000e+00 -1.9500000e+01 
7.5000000e-01 3.0000000e+00 -1.9000000e+01 
7.5000000e-01 3.0000000e+00 -1.8500000e+01 
7.5000000e-01 3.0000000e+00 -1.8000000e+01 
7.5000000e-01 3.0000000e+00 -1.7500000e+01 
7.5000000e-01 3.0000000e+00 -1.7000000e+01 
7.5000000e-01 3.0000000e+00 -1.6500000e+01 
7.5000000e-01 3.0000000e+00 -1.6000000e+01 
7.5000000e-01 3.0000000e+00 -1.5500000e+01 
7.5000000e-01 3.0000000e+00 -1.5000000e+01 
7.5000000e-01 3.0000000e+00 -1.4500000e+01 
7.5000000e-01 3.0000000e+00 -1.4000000e+01 
7.5000000e-01 3.0000000e+00 -1.3500000e+01 
7.5000000e-01 3.0000000e+00 -1.3000000e+01 
7.5000000e-01 3.0000000e+00 -1.2500000e+01 
7.5000000e-01 3.0000000e+00 -1.2000000e+01 
7.5000000e-01 3.0000000e+00 -1.1500000e+01 
7.5000000e-01 3.0000000e+00 -1.1000000e+01 
7.5000000e-01 3.0000000e+00 -1.0500000e+01 
7.5000000e-01 3.0000000e+00 -1.0000000e+01 
7.5000000e-01 3.0000000e+00 -9.5000000e+00 
7.5000000e-01 3.0000000e+00 -9.0000000e+00 
7.5000000e-01 3.0000000e+00 -8.5000000e+00 
7.5000000e-01 3.0000000e+00 -8.0000000e+00 
7.5000000e-01 3.0000000e+00 -7.5000000e+00 
7.5000000e-01 3.0000000e+00 -7.0000000e+00 
7.5000000e-01 3.0000000e+00 -6.5000000e+00 
7.5000000e-01 3.0000000e+00 -6.0000000e+00 
7.5000000e-01 3.0000000e+00 -5.5000000e+00 
7.5000000e-01 3.0000000e+00 -5.0000000e+00 
7.5000000e-01 3.0000000e+00 -4.5000000e+00 
7.5000000e-01 3.0000000e+00 -4.0000000e+00 
7.5000000e-01 3.0000000e+00 -3.5000000e+00 
7.5000000e-01 3.0000000e+00 -3.0000000e+00 
7.5000000e-01 3.0000000e+00 -2.5000000e+00 
7.5000000e-01 3.0000000e+00 -2.0000000e+00 
7.5000000e-01 3.0000000e+00 -1.5000000e+00 
7.5000000e-01 3.0000000e+00 -1.0000000e+00 
7.5000000e-01 3.0000000e+00 -5.0000000e-01 
7.5000000e-01 3.0000000e+00 5.0000000e-01 
7.5000000e-01 3.0000000e+00 1.0000000e+00 
7.5000000e-01 3.0000000e+00 1.5000000e+00 
7.5000000e-01 3.0000000e+00 2.0000000e+00 
7.5000000e-01 3.0000000e+00 2.5000000e+00 
7.5000000e-01 3.0000000e+00 3.0000000e+00 
7.5000000e-01 3.0000000e+00 3.5000000e+00 
7.5000000e-01 3.0000000e+00 4.0000000e+00 
7.5000000e-01 3.0000000e+00 4.5000000e+00 
7.5000000e-01 3.0000000e+00 5.0000000e+00 
7.5000000e-01 3.0000000e+00 5.5000000e+00 
7.5000000e-01 3.0000000e+00 6.0000000e+00 
7.5000000e-01 3.0000000e+00 6.5000000e+00 
7.5000000e-01 3.0000000e+00 7.0000000e+00 
7.5000000e-01 3.0000000e+00 7.5000000e+00 
7.5000000e-01 3.0000000e+00 8.0000000e+00 
7.5000000e-01 3.0000000e+00 8.5000000e+00 
7.5000000e-01 3.0000000e+00 9.0000000e+00 
7.5000000e-01 3.0000000e+00 9.5000000e+00 
7.5000000e-01 3.0000000e+00 1.0000000e+01 
7.5000000e-01 3.0000000e+00 1.0500000e+01 
7.5000000e-01 3.0000000e+00 1.1000000e+01 
7.5000000e-01 3.0000000e+00 1.1500000e+01 
7.5000000e-01 3.0000000e+00 1.2000000e+01 
7.5000000e-01 3.0000000e+00 1.2500000e+01 
7.5000000e-01 3.0000000e+00 1.3000000e+01 
7.5000000e-01 3.0000000e+00 1.3500000e+01 
7.5000000e-01 3.0000000e+00 1.4000000e+01 
7.5000000e-01 3.0000000e+00 1.4500000e+01 
7.5000000e-01 3.0000000e+00 1.5000000e+01 
7.5000000e-01 3.0000000e+00 1.5500000e+01 
7.5000000e-01 3.0000000e+00 1.6000000e+01 
7.5000000e-01 3.0000000e+00 1.6500000e+01 
7.5000000e-01 3.0000000e+00 1.7000000e+01 
7.5000000e-01 3.0000000e+00 1.7500000e+01 
7.5000000e-01 3.0000000e+00 1.8000000e+01 
7.5000000e-01 3.0000000e+00 1.8500000e+01 
7.5000000e-01 3.0000000e+00 1.9000000e+01 
7.5000000e-01 3.0000000e+00 1.9500000e+01 
7.5000000e-01 3.0000000e+00 2.0000000e+01 
7.5000000e-01 3.0000000e+00 2.0500000e+01 
7.5000000e-01 3.0000000e+00 2.1000000e+01 
7.5000000e-01 3.0000000e+00 2.1500000e+01 
7.5000000e-01 3.0000000e+00 2.2000000e+01 
7.5000000e-01 3.0000000e+00 2.2500000e+01 
7.5000000e-01 3.0000000e+00 2.3000000e+01 
7.5000000e-01 3.0000000e+00 2.3500000e+01 
7.5000000e-01 3.0000000e+00 2.4000000e+01 
7.5000000e-01 3.0000000e+00 2.4500000e+01 
7.5000000e-01 3.0000000e+00 2.5000000e+01 
7.5000000e-01 3.0000000e+00 2.5500000e+01 
7.5000000e-01 3.0000000e+00 2.6000000e+01 
7.5000000e-01 3.0000000e+00 2.6500000e+01 
7.5000000e-01 3.0000000e+00 2.7000000e+01 
7.5000000e-01 3.0000000e+00 2.7500000e+01 
7.5000000e-01 3.0000000e+00 2.8000000e+01 
7.5000000e-01 3.0000000e+00 2.8500000e+01 
7.5000000e-01 3.0000000e+00 2.9000000e+01 
7.5000000e-01 3.0000000e+00 2.9500000e+01 
7.5000000e-01 3.0000000e+00 3.0000000e+01 
7.5000000e-01 3.0000000e+00 3.0500000e+01 
7.5000000e-01 3.0000000e+00 3.1000000e+01 
7.5000000e-01 3.0000000e+00 3.1500000e+01 
7.5000000e-01 3.0000000e+00 3.2000000e+01 
7.5000000e-01 3.0000000e+00 3.2500000e+01 
7.5000000e-01 3.0000000e+00 3.3000000e+01 
7.5000000e-01 3.0000000e+00 3.3500000e+01 
7.5000000e-01 3.0000000e+00 3.4000000e+01 
7.5000000e-01 3.0000000e+00 3.4500000e+01 
7.5000000e-01 3.0000000e+00 3.5000000e+01 
7.5000000e-01 3.0000000e+00 3.5500000e+01 
7.5000000e-01 3.0000000e+00 3.6000000e+01 
7.5000000e-01 3.0000000e+00 3.6500000e+01 
7.5000000e-01 3.0000000e+00 3.7000000e+01 
7.5000000e-01 3.0000000e+00 3.7500000e+01 
7.5000000e-01 3.0000000e+00 3.8000000e+01 
7.5000000e-01 3.0000000e+00 3.8500000e+01 
7.5000000e-01 3.0000000e+00 3.9000000e+01 
7.5000000e-01 3.0000000e+00 3.9500000e+01 
7.5000000e-01 3.0000000e+00 4.0000000e+01 
7.5000000e-01 3.0000000e+00 4.0500000e+01 
7.5000000e-01 3.0000000e+00 4.1000000e+01 
7.5000000e-01 3.0000000e+00 4.1500000e+01 
7.5000000e-01 3.0000000e+00 4.2000000e+01 
7.5000000e-01 3.0000000e+00 4.2500000e+01 
7.5000000e-01 3.0000000e+00 4.3000000e+01 
7.5000000e-01 3.0000000e+00 4.3500000e+01 
7.5000000e-01 3.0000000e+00 4.4000000e+01 
7.5000000e-01 3.0000000e+00 4.4500000e+01 
7.5000000e-01 3.0000000e+00 4.5000000e+01 
7.5000000e-01 3.0000000e+00 4.5500000e+01 
7.5000000e-01 3.0000000e+00 4.6000000e+01 
7.5000000e-01 3.0000000e+00 4.6500000e+01 
7.5000000e-01 3.0000000e+00 4.7000000e+01 
7.5000000e-01 3.0000000e+00 4.7500000e+01 
7.5000000e-01 3.0000000e+00 4.8000000e+01 
7.5000000e-01 3.0000000e+00 4.8500000e+01 
7.5000000e-01 3.0000000e+00 4.9000000e+01 
7.5000000e-01 3.0000000e+00 4.9500000e+01 
7.5000000e-01 3.0000000e+00 5.0500000e+01 
7.5000000e-01 3.0000000e+00 5.1000000e+01 
7.5000000e-01 3.0000000e+00 5.1500000e+01 
7.5000000e-01 3.0000000e+00 5.2000000e+01 
7.5000000e-01 3.0000000e+00 5.2500000e+01 
7.5000000e-01 3.0000000e+00 5.3000000e+01 
7.5000000e-01 3.0000000e+00 5.3500000e+01 
7.5000000e-01 3.0000000e+00 5.4000000e+01 
7.5000000e-01 3.0000000e+00 5.4500000e+01 
7.5000000e-01 3.0000000e+00 5.5000000e+01 
7.5000000e-01 3.0000000e+00 5.5500000e+01 
7.5000000e-01 3.0000000e+00 5.6000000e+01 
7.5000000e-01 3.0000000e+00 5.6500000e+01 
7.5000000e-01 3.0000000e+00 5.7000000e+01 
7.5000000e-01 3.0000000e+00 5.7500000e+01 
7.5000000e-01 3.0000000e+00 5.8000000e+01 
7.5000000e-01 3.0000000e+00 5.8500000e+01 
7.5000000e-01 3.0000000e+00 5.9000000e+01 
7.5000000e-01 3.0000000e+00 5.9500000e+01 
7.5000000e-01 3.0000000e+00 6.0000000e+01 
7.5000000e-01 3.0000000e+00 6.0500000e+01 
7.5000000e-01 3.0000000e+00 6.1000000e+01 
7.5000000e-01 3.0000000e+00 6.1500000e+01 
7.5000000e-01 3.0000000e+00 6.2000000e+01 
7.5000000e-01 3.0000000e+00 6.2500000e+01 
7.5000000e-01 3.0000000e+00 6.3000000e+01 
7.5000000e-01 3.0000000e+00 6.3500000e+01 
7.5000000e-01 3.0000000e+00 6.4000000e+01 
7.5000000e-01 3.0000000e+00 6.4500000e+01 
7.5000000e-01 3.0000000e+00 6.5000000e+01 
7.5000000e-01 3.0000000e+00 6.5500000e+01 
7.5000000e-01 3.0000000e+00 6.6000000e+01 
7.5000000e-01 3.0000000e+00 6.6500000e+01 
7.5000000e-01 3.0000000e+00 6.7000000e+01 
7.5000000e-01 3.0000000e+00 6.7500000e+01 
7.5000000e-01 3.0000000e+00 6.8000000e+01 
7.5000000e-01 3.0000000e+00 6.8500000e+01 
7.5000000e-01 3.0000000e+00 6.9000000e+01 
7.5000000e-01 3.0000000e+00 6.9500000e+01 
7.5000000e-01 3.0250001e+00 -2.5000000e+01 
7.5000000e-01 3.0250001e+00 -2.4500000e+01 
7.5000000e-01 3.0250001e+00 -2.4000000e+01 
7.5000000e-01 3.0250001e+00 -2.3500000e+01 
7.5000000e-01 3.0250001e+00 -2.3000000e+01 
7.5000000e-01 3.0250001e+00 -2.2500000e+01 
7.5000000e-01 3.0250001e+00 -2.2000000e+01 
7.5000000e-01 3.0250001e+00 -2.1500000e+01 
7.5000000e-01 3.0250001e+00 -2.1000000e+01 
7.5000000e-01 3.0250001e+00 -2.0500000e+01 
7.5000000e-01 3.0250001e+00 -2.0000000e+01 
7.5000000e-01 3.0250001e+00 -1.9500000e+01 
7.5000000e-01 3.0250001e+00 -1.9000000e+01 
7.5000000e-01 3.0250001e+00 -1.8500000e+01 
7.5000000e-01 3.0250001e+00 -1.8000000e+01 
7.5000000e-01 3.0250001e+00 -1.7500000e+01 
7.5000000e-01 3.0250001e+00 -1.7000000e+01 
7.5000000e-01 3.0250001e+00 -1.6500000e+01 
7.5000000e-01 3.0250001e+00 -1.6000000e+01 
7.5000000e-01 3.0250001e+00 -1.5500000e+01 
[...]
POINT_DATA 2186
FIELD FieldData 3
DISPLACEMENT 3 2186  float
0.0000000e+00 0.0000000e+00 0.0000000e+00 
0.0000000e+00 0.0000000e+00 0.0000000e+00 
0.0000000e+00 0.0000000e+00 0.0000000e+00 
0.0000000e+00 0.0000000e+00 0.0000000e+00 
-3.1460370e-06 2.8538645e-06 5.5021701e-07 
-8.5181472e-07 1.5814599e-07 -5.3612206e-07 
0.0000000e+00 6.4460269e-06 0.0000000e+00 
0.0000000e+00 -1.9844408e-06 0.0000000e+00 
-5.2224544e-07 -8.9306127e-07 7.8750509e-07 
-7.7956543e-07 -8.9641975e-07 1.3300065e-06 
-1.4665619e-06 8.4016747e-06 1.2618035e-05 
-3.3737879e-07 9.4054843e-07 -2.0382124e-06 
0.0000000e+00 1.8701886e-06 0.0000000e+00 
0.0000000e+00 -2.5031720e-06 0.0000000e+00 
-6.4651963e-06 3.7669506e-06 5.7269340e-06 
-1.3399944e-06 -3.3347008e-06 5.8982487e-06 
-2.8160461e-05 1.4491779e-05 -1.9461975e-06 
-4.2993424e-06 1.9565214e-06 4.8499119e-06 
0.0000000e+00 -2.2084510e-05 0.0000000e+00 
0.0000000e+00 3.5131218e-06 0.0000000e+00 
0.0000000e+00 9.9964509e-06 0.0000000e+00 
0.0000000e+00 1.0219600e-05 0.0000000e+00 
0.0000000e+00 8.8543657e-06 0.0000000e+00 
0.0000000e+00 2.9559635e-06 0.0000000e+00 
0.0000000e+00 -7.5246771e-06 0.0000000e+00 
0.0000000e+00 -1.8234170e-05 0.0000000e+00 
0.0000000e+00 -2.2626344e-05 0.0000000e+00 
0.0000000e+00 -1.6599031e-05 0.0000000e+00 
0.0000000e+00 -2.0071393e-06 0.0000000e+00 
0.0000000e+00 1.3906045e-05 0.0000000e+00 
0.0000000e+00 2.3014327e-05 0.0000000e+00 
0.0000000e+00 2.1473948e-05 0.0000000e+00 
0.0000000e+00 1.1727526e-05 0.0000000e+00 
0.0000000e+00 5.6248727e-08 0.0000000e+00 
0.0000000e+00 -8.1185362e-06 0.0000000e+00 
0.0000000e+00 -1.1418712e-05 0.0000000e+00 
0.0000000e+00 -1.1961343e-05 0.0000000e+00 
0.0000000e+00 -1.2099949e-05 0.0000000e+00 
0.0000000e+00 -1.1660524e-05 0.0000000e+00 
0.0000000e+00 -8.2264523e-06 0.0000000e+00 
0.0000000e+00 -1.4805862e-07 0.0000000e+00 
0.0000000e+00 1.0631609e-05 0.0000000e+00 
0.0000000e+00 1.8816547e-05 0.0000000e+00 
0.0000000e+00 1.9281986e-05 0.0000000e+00 
0.0000000e+00 1.1152765e-05 0.0000000e+00 
0.0000000e+00 -9.5656139e-07 0.0000000e+00 
0.0000000e+00 -9.7941884e-06 0.0000000e+00 
0.0000000e+00 -1.0505064e-05 0.0000000e+00 
0.0000000e+00 -4.1509479e-06 0.0000000e+00 
0.0000000e+00 3.0551116e-06 0.0000000e+00 
0.0000000e+00 4.4510002e-06 0.0000000e+00 
0.0000000e+00 -1.9155477e-06 0.0000000e+00 
0.0000000e+00 -1.1712590e-05 0.0000000e+00 
0.0000000e+00 -1.7603421e-05 0.0000000e+00 
0.0000000e+00 -1.4753456e-05 0.0000000e+00 
0.0000000e+00 -4.2801330e-06 0.0000000e+00 
0.0000000e+00 7.8004496e-06 0.0000000e+00 
0.0000000e+00 1.5057210e-05 0.0000000e+00 
0.0000000e+00 1.5072741e-05 0.0000000e+00 
0.0000000e+00 1.0546554e-05 0.0000000e+00 
0.0000000e+00 6.4114570e-06 0.0000000e+00 
0.0000000e+00 5.5480245e-06 0.0000000e+00 
0.0000000e+00 6.8759468e-06 0.0000000e+00 
0.0000000e+00 7.2899675e-06 0.0000000e+00 
0.0000000e+00 5.1547809e-06 0.0000000e+00 
0.0000000e+00 1.8498727e-06 0.0000000e+00 
0.0000000e+00 2.7984140e-07 0.0000000e+00 
0.0000000e+00 2.2260103e-06 0.0000000e+00 
0.0000000e+00 6.9073390e-06 0.0000000e+00 
0.0000000e+00 1.1702286e-05 0.0000000e+00 
-1.5492074e-05 1.6155473e-05 5.2204250e-06 
-2.3706116e-06 2.0545825e-05 6.5270507e-07 
1.3116719e-06 3.0870364e-05 6.1534126e-07 
9.2727878e-06 4.5107205e-05 -9.2282453e-06 
3.1608750e-05 5.5511693e-05 8.5924597e-07 
3.5583260e-05 5.7248482e-05 -1.1713637e-06 
3.6614663e-05 5.2503990e-05 -1.0320652e-05 
4.2045514e-05 4.8314469e-05 -6.5634463e-06 
3.5437577e-05 5.2662075e-05 7.7251079e-06 
5.2015668e-05 6.8770132e-05 1.1505475e-05 
5.5796860e-05 8.6239168e-05 1.5933672e-05 
5.3677235e-05 8.6710803e-05 4.4360322e-06 
3.9565271e-05 7.0712646e-05 -7.3275692e-06 
5.9538332e-05 5.9243761e-05 6.1672756e-07 
4.9506107e-05 7.1958639e-05 1.4091537e-05 
5.2201962e-05 1.0902594e-04 2.6233982e-05 
4.7095451e-05 1.4291487e-04 3.4834589e-05 
3.0333127e-05 1.4261378e-04 2.4788647e-05 
9.7223201e-06 1.1373001e-04 1.0042763e-05 
6.8628447e-06 9.4357427e-05 1.1939425e-05 
5.0454310e-06 1.0285023e-04 2.9291336e-05 
2.9041403e-06 8.5620566e-05 3.6058696e-05 
-4.1506315e-05 -8.9496942e-05 1.0980358e-04 
-7.0387956e-05 -5.7072908e-04 7.6114055e-05 
-1.2993933e-04 -1.4006877e-03 1.4905378e-04 
-3.3868421e-04 -2.5000351e-03 2.8997354e-04 
-2.2759411e-04 -3.7025614e-03 1.7583053e-04 
-2.5359719e-04 -4.7223540e-03 1.0662212e-06 
-2.7532430e-04 -5.1073269e-03 -8.6329565e-06 
-2.6051697e-04 -4.7441819e-03 -2.2580032e-05 
-2.3209320e-04 -4.4577359e-03 -6.9088332e-05 
-2.2552389e-04 -4.5708101e-03 -1.3948028e-04 
-2.8265483e-04 -4.8230384e-03 -1.0489643e-04 
-5.2579545e-04 -4.4718892e-03 -3.1107836e-04 
-1.4237601e-04 -3.1812345e-03 -1.8932353e-04 
-5.7502293e-05 -1.7740821e-03 -4.8264901e-05 
-2.1673264e-05 -7.4007933e-04 -9.4504881e-05 
-1.6313925e-05 -1.2567017e-04 1.5704349e-05 
-7.4825807e-06 1.7374280e-04 2.7151611e-05 
-2.1811652e-06 2.6538712e-04 3.7930138e-05 
-3.3088725e-06 2.3370708e-04 4.3900516e-05 
-3.3615033e-06 1.5348179e-04 3.5620291e-05 
-1.6931538e-06 8.8166649e-05 3.6500598e-05 
1.4977870e-06 6.1907500e-05 2.9578621e-05 
1.0381775e-06 6.3586172e-05 1.1836981e-05 
1.9740452e-05 6.9948117e-05 -9.6358435e-06 
2.7398039e-05 6.8685666e-05 -3.1833351e-05 
3.6943064e-05 6.1505270e-05 -3.6243102e-05 
5.4119362e-05 5.6529170e-05 -2.6199319e-05 
5.8732567e-05 6.2020255e-05 -1.0192191e-05 
4.2942276e-05 7.5045216e-05 7.6620145e-06 
4.7372458e-05 8.4827894e-05 2.2247414e-06 
4.5754765e-05 8.2262290e-05 -7.5112589e-06 
5.4999527e-05 6.7336863e-05 -1.9657893e-05 
4.4460521e-05 5.7720998e-05 -1.6312842e-05 
5.1147708e-05 7.7262572e-05 -5.3332346e-06 
4.3384483e-05 1.2339218e-04 4.7917679e-06 
3.8100752e-05 1.6376973e-04 5.6718009e-06 
3.6756839e-05 1.6969016e-04 9.6572257e-06 
2.6818348e-05 1.2894438e-04 2.5954372e-05 
-7.5381325e-07 5.4034113e-05 4.6715748e-05 
-1.3174700e-05 -4.5535533e-05 6.4895605e-05 
-5.2562875e-05 -2.3404094e-04 1.3894330e-04 
-9.2326416e-05 -6.6589960e-04 1.0368630e-04 
-1.4632950e-04 -1.4854341e-03 2.0808206e-04 
-2.1610080e-04 -2.6847613e-03 1.0485797e-04 
-2.7912800e-04 -4.0535461e-03 1.9533603e-04 
-3.8727073e-04 -5.0248215e-03 -9.7917100e-06 
-3.8923067e-04 -5.0826143e-03 -6.8672103e-05 
-2.9574390e-04 -4.5825895e-03 -4.6962508e-05 
-2.6457786e-04 -4.3586455e-03 -8.5933571e-05 
-2.7242553e-04 -4.5396378e-03 -1.4076024e-04 
-2.8763135e-04 -4.6772193e-03 -1.1560856e-04 
-1.6013274e-04 -4.0005227e-03 -1.2711654e-04 
-1.8972676e-04 -2.7555062e-03 -2.9636465e-04 
-3.7344207e-06 -1.5099086e-03 -1.2460763e-04 
-7.4792274e-06 -5.9524516e-04 -1.1565560e-04 
1.5438816e-05 -4.9452239e-05 -2.3775121e-05 
2.2651517e-05 1.8873150e-04 6.2133097e-07 
8.8888646e-07 2.2090014e-04 2.1315807e-05 
-3.6489653e-06 1.6027075e-04 2.9749990e-05 
-1.0558294e-05 8.9996502e-05 2.3763238e-05 
-1.4373965e-05 4.7817332e-05 2.1181590e-05 
-1.7389873e-05 2.6782640e-05 9.3242979e-06 
-1.8442046e-05 1.1201804e-05 -4.8415454e-06 
-1.1703054e-05 -4.4045296e-07 -2.0037478e-05 
-5.9736008e-06 -2.3517309e-06 -3.5412526e-05 
-2.0353816e-06 2.8682989e-06 -3.4346529e-05 
7.9973088e-06 6.2128024e-06 -2.2413509e-05 
6.5776903e-06 4.4627482e-06 -8.9142641e-06 
-6.5519458e-07 1.0771510e-06 1.3831349e-06 
-1.1468757e-06 -1.2938854e-07 2.2313391e-06 
-2.0477023e-06 -1.6679829e-08 -5.9857221e-06 
-7.9049198e-07 -1.3577755e-06 -1.0012568e-05 
6.5296676e-06 -4.3753930e-06 -7.6768119e-06 
6.7725823e-06 -6.2541967e-06 -5.6624140e-06 
2.3624502e-06 -5.0035023e-06 3.2021044e-06 
3.2965074e-06 -1.6377228e-06 5.0156045e-06 
1.9883566e-07 1.1461033e-06 4.7553485e-06 
0.0000000e+00 1.7804371e-06 0.0000000e+00 
0.0000000e+00 2.1146996e-06 0.0000000e+00 
0.0000000e+00 2.9160349e-06 0.0000000e+00 
0.0000000e+00 2.9385080e-06 0.0000000e+00 
0.0000000e+00 1.5910841e-06 0.0000000e+00 
0.0000000e+00 -1.6621796e-07 0.0000000e+00 
0.0000000e+00 -9.5033351e-07 0.0000000e+00 
0.0000000e+00 -5.4519836e-07 0.0000000e+00 
0.0000000e+00 4.0848629e-08 0.0000000e+00 
0.0000000e+00 -4.7392888e-08 0.0000000e+00 
0.0000000e+00 -5.4182925e-07 0.0000000e+00 
0.0000000e+00 -6.0248647e-07 0.0000000e+00 
0.0000000e+00 -4.8667808e-09 0.0000000e+00 
0.0000000e+00 5.8082378e-07 0.0000000e+00 
0.0000000e+00 4.5968386e-07 0.0000000e+00 
0.0000000e+00 -2.4779607e-07 0.0000000e+00 
0.0000000e+00 -7.9160196e-07 0.0000000e+00 
0.0000000e+00 -6.6042963e-07 0.0000000e+00 
0.0000000e+00 -4.9727092e-08 0.0000000e+00 
0.0000000e+00 5.0929782e-07 0.0000000e+00 
0.0000000e+00 7.5171624e-07 0.0000000e+00 
0.0000000e+00 7.6866786e-07 0.0000000e+00 
0.0000000e+00 6.3483526e-07 0.0000000e+00 
0.0000000e+00 2.1578514e-07 0.0000000e+00 
0.0000000e+00 -5.4531290e-07 0.0000000e+00 
0.0000000e+00 -1.2941755e-06 0.0000000e+00 
0.0000000e+00 -1.4308848e-06 0.0000000e+00 
0.0000000e+00 -6.8081795e-07 0.0000000e+00 
0.0000000e+00 5.6196535e-07 0.0000000e+00 
0.0000000e+00 1.5122431e-06 0.0000000e+00 
0.0000000e+00 1.6022406e-06 0.0000000e+00 
0.0000000e+00 8.3929132e-07 0.0000000e+00 
0.0000000e+00 -3.1186494e-07 0.0000000e+00 
0.0000000e+00 -1.2714854e-06 0.0000000e+00 
0.0000000e+00 -1.6047563e-06 0.0000000e+00 
0.0000000e+00 -1.1524778e-06 0.0000000e+00 
0.0000000e+00 -1.1270948e-07 0.0000000e+00 
0.0000000e+00 9.7349402e-07 0.0000000e+00 
0.0000000e+00 1.4502899e-06 0.0000000e+00 
0.0000000e+00 1.0085487e-05 0.0000000e+00 
0.0000000e+00 1.0250404e-05 0.0000000e+00 
0.0000000e+00 8.7729613e-06 0.0000000e+00 
0.0000000e+00 2.8176146e-06 0.0000000e+00 
0.0000000e+00 -7.6041729e-06 0.0000000e+00 
0.0000000e+00 -1.8176976e-05 0.0000000e+00 
0.0000000e+00 -2.2462469e-05 0.0000000e+00 
0.0000000e+00 -1.6448847e-05 0.0000000e+00 
0.0000000e+00 -1.9871470e-06 0.0000000e+00 
0.0000000e+00 1.3778650e-05 0.0000000e+00 
0.0000000e+00 2.2837614e-05 0.0000000e+00 
0.0000000e+00 2.1381837e-05 0.0000000e+00 
0.0000000e+00 1.1781253e-05 0.0000000e+00 
0.0000000e+00 1.9849384e-07 0.0000000e+00 
0.0000000e+00 -8.0102818e-06 0.0000000e+00 
0.0000000e+00 -1.1427985e-05 0.0000000e+00 
0.0000000e+00 -1.2066092e-05 0.0000000e+00 
0.0000000e+00 -1.2196917e-05 0.0000000e+00 
0.0000000e+00 -1.1657815e-05 0.0000000e+00 
0.0000000e+00 -8.1251437e-06 0.0000000e+00 
0.0000000e+00 -4.2011500e-08 0.0000000e+00 
0.0000000e+00 1.0638962e-05 0.0000000e+00 
0.0000000e+00 1.8705543e-05 0.0000000e+00 
0.0000000e+00 1.9137538e-05 0.0000000e+00 
0.0000000e+00 1.1095578e-05 0.0000000e+00 
0.0000000e+00 -8.6830892e-07 0.0000000e+00 
0.0000000e+00 -9.6139192e-06 0.0000000e+00 
0.0000000e+00 -1.0362426e-05 0.0000000e+00 
0.0000000e+00 -4.1571448e-06 0.0000000e+00 
0.0000000e+00 2.8953707e-06 0.0000000e+00 
0.0000000e+00 4.2516454e-06 0.0000000e+00 
0.0000000e+00 -2.0062321e-06 0.0000000e+00 
0.0000000e+00 -1.1630839e-05 0.0000000e+00 
0.0000000e+00 -1.7420891e-05 0.0000000e+00 
0.0000000e+00 -1.4615264e-05 0.0000000e+00 
0.0000000e+00 -4.2884071e-06 0.0000000e+00 
0.0000000e+00 7.6598153e-06 0.0000000e+00 
0.0000000e+00 1.4897116e-05 0.0000000e+00 
0.0000000e+00 1.5018332e-05 0.0000000e+00 
0.0000000e+00 1.0638664e-05 0.0000000e+00 
0.0000000e+00 6.5707936e-06 0.0000000e+00 
0.0000000e+00 5.6421509e-06 0.0000000e+00 
0.0000000e+00 6.8412860e-06 0.0000000e+00 
0.0000000e+00 7.1874824e-06 0.0000000e+00 
0.0000000e+00 5.0979311e-06 0.0000000e+00 
0.0000000e+00 1.8899741e-06 0.0000000e+00 
0.0000000e+00 3.7362446e-07 0.0000000e+00 
0.0000000e+00 2.2933809e-06 0.0000000e+00 
0.0000000e+00 6.8954455e-06 0.0000000e+00 
0.0000000e+00 1.1616971e-05 0.0000000e+00 
0.0000000e+00 1.4431943e-05 0.0000000e+00 
0.0000000e+00 1.6183230e-05 0.0000000e+00 
0.0000000e+00 2.0713402e-05 0.0000000e+00 
0.0000000e+00 3.1101907e-05 0.0000000e+00 
0.0000000e+00 4.5050645e-05 0.0000000e+00 
0.0000000e+00 5.5325661e-05 0.0000000e+00 
0.0000000e+00 5.7138026e-05 0.0000000e+00 
0.0000000e+00 5.2446536e-05 0.0000000e+00 
0.0000000e+00 4.8408092e-05 0.0000000e+00 
0.0000000e+00 5.3185122e-05 0.0000000e+00 
0.0000000e+00 6.9229776e-05 0.0000000e+00 
0.0000000e+00 8.5781852e-05 0.0000000e+00 
0.0000000e+00 8.6075735e-05 0.0000000e+00 
0.0000000e+00 7.0520611e-05 0.0000000e+00 
0.0000000e+00 5.9645394e-05 0.0000000e+00 
0.0000000e+00 7.3174575e-05 0.0000000e+00 
0.0000000e+00 1.0964143e-04 0.0000000e+00 
0.0000000e+00 1.4185083e-04 0.0000000e+00 
0.0000000e+00 1.4135100e-04 0.0000000e+00 
0.0000000e+00 1.1383862e-04 0.0000000e+00 
0.0000000e+00 9.6324395e-05 0.0000000e+00 
0.0000000e+00 1.0615959e-04 0.0000000e+00 
0.0000000e+00 8.7656081e-05 0.0000000e+00 
0.0000000e+00 -9.2418515e-05 0.0000000e+00 
0.0000000e+00 -5.7590549e-04 0.0000000e+00 
0.0000000e+00 -1.4055392e-03 0.0000000e+00 
0.0000000e+00 -2.5047942e-03 0.0000000e+00 
0.0000000e+00 -3.7149657e-03 0.0000000e+00 
0.0000000e+00 -4.7511053e-03 0.0000000e+00 
0.0000000e+00 -5.1370440e-03 0.0000000e+00 
0.0000000e+00 -4.7772992e-03 0.0000000e+00 
0.0000000e+00 -4.4778739e-03 0.0000000e+00 
0.0000000e+00 -4.5947554e-03 0.0000000e+00 
0.0000000e+00 -4.8495778e-03 0.0000000e+00 
0.0000000e+00 -4.4930610e-03 0.0000000e+00 
0.0000000e+00 -3.2073900e-03 0.0000000e+00 
0.0000000e+00 -1.7886064e-03 0.0000000e+00 
0.0000000e+00 -7.4399664e-04 0.0000000e+00 
0.0000000e+00 -1.2553092e-04 0.0000000e+00 
0.0000000e+00 1.7438426e-04 0.0000000e+00 
0.0000000e+00 2.6599769e-04 0.0000000e+00 
0.0000000e+00 2.3458472e-04 0.0000000e+00 
0.0000000e+00 1.5508928e-04 0.0000000e+00 
0.0000000e+00 8.9138179e-05 0.0000000e+00 
0.0000000e+00 6.1991224e-05 0.0000000e+00 
0.0000000e+00 6.3281608e-05 0.0000000e+00 
0.0000000e+00 6.9841313e-05 0.0000000e+00 
0.0000000e+00 6.8603622e-05 0.0000000e+00 
0.0000000e+00 6.1288258e-05 0.0000000e+00 
0.0000000e+00 5.6760236e-05 0.0000000e+00 
0.0000000e+00 6.2347579e-05 0.0000000e+00 
0.0000000e+00 7.5274605e-05 0.0000000e+00 
0.0000000e+00 8.4830281e-05 0.0000000e+00 
0.0000000e+00 8.1602971e-05 0.0000000e+00 
0.0000000e+00 6.6786597e-05 0.0000000e+00 
0.0000000e+00 5.8436024e-05 0.0000000e+00 
0.0000000e+00 7.8490513e-05 0.0000000e+00 
0.0000000e+00 1.2382417e-04 0.0000000e+00 
0.0000000e+00 1.6365126e-04 0.0000000e+00 
0.0000000e+00 1.6859359e-04 0.0000000e+00 
0.0000000e+00 1.2847288e-04 0.0000000e+00 
0.0000000e+00 5.6213725e-05 0.0000000e+00 
0.0000000e+00 -4.2111387e-05 0.0000000e+00 
0.0000000e+00 -2.3300001e-04 0.0000000e+00 
0.0000000e+00 -6.6990976e-04 0.0000000e+00 
0.0000000e+00 -1.4932769e-03 0.0000000e+00 
0.0000000e+00 -2.7000261e-03 0.0000000e+00 
0.0000000e+00 -4.0653874e-03 0.0000000e+00 
0.0000000e+00 -5.0524720e-03 0.0000000e+00 
0.0000000e+00 -5.1084864e-03 0.0000000e+00 
0.0000000e+00 -4.6153250e-03 0.0000000e+00 
0.0000000e+00 -4.3795002e-03 0.0000000e+00 
0.0000000e+00 -4.5655831e-03 0.0000000e+00 
0.0000000e+00 -4.7003529e-03 0.0000000e+00 
0.0000000e+00 -4.0342896e-03 0.0000000e+00 
0.0000000e+00 -2.7701997e-03 0.0000000e+00 
0.0000000e+00 -1.5192098e-03 0.0000000e+00 
0.0000000e+00 -5.9861614e-04 0.0000000e+00 
0.0000000e+00 -5.0798255e-05 0.0000000e+00 
0.0000000e+00 1.8877049e-04 0.0000000e+00 
0.0000000e+00 2.2261150e-04 0.0000000e+00 
0.0000000e+00 1.6203383e-04 0.0000000e+00 
0.0000000e+00 9.1271657e-05 0.0000000e+00 
0.0000000e+00 4.7832815e-05 0.0000000e+00 
0.0000000e+00 2.6312833e-05 0.0000000e+00 
0.0000000e+00 1.1138019e-05 0.0000000e+00 
0.0000000e+00 -9.3085596e-08 0.0000000e+00 
0.0000000e+00 -2.2595375e-06 0.0000000e+00 
0.0000000e+00 2.5514341e-06 0.0000000e+00 
0.0000000e+00 6.0427396e-06 0.0000000e+00 
0.0000000e+00 4.5715219e-06 0.0000000e+00 
0.0000000e+00 1.2492666e-06 0.0000000e+00 
0.0000000e+00 -1.5157487e-07 0.0000000e+00 
0.0000000e+00 -1.4616755e-07 0.0000000e+00 
0.0000000e+00 -1.4136476e-06 0.0000000e+00 
0.0000000e+00 -4.2946172e-06 0.0000000e+00 
0.0000000e+00 -6.1632982e-06 0.0000000e+00 
0.0000000e+00 -4.9945611e-06 0.0000000e+00 
0.0000000e+00 -1.7054929e-06 0.0000000e+00 
0.0000000e+00 1.0876199e-06 0.0000000e+00 
0.0000000e+00 1.9704614e-06 0.0000000e+00 
0.0000000e+00 1.8388497e-06 0.0000000e+00 
0.0000000e+00 2.1360354e-06 0.0000000e+00 
0.0000000e+00 2.8792240e-06 0.0000000e+00 
0.0000000e+00 2.8978377e-06 0.0000000e+00 
0.0000000e+00 1.6018439e-06 0.0000000e+00 
0.0000000e+00 -1.1724600e-07 0.0000000e+00 
0.0000000e+00 -9.2292578e-07 0.0000000e+00 
0.0000000e+00 -5.6801667e-07 0.0000000e+00 
0.0000000e+00 1.5537972e-09 0.0000000e+00 
0.0000000e+00 -5.5251494e-08 0.0000000e+00 
0.0000000e+00 -5.1505384e-07 0.0000000e+00 
0.0000000e+00 -5.7942412e-07 0.0000000e+00 
0.0000000e+00 -1.3060196e-08 0.0000000e+00 
0.0000000e+00 5.5588112e-07 0.0000000e+00 
0.0000000e+00 4.5037243e-07 0.0000000e+00 
0.0000000e+00 -2.3324031e-07 0.0000000e+00 
0.0000000e+00 -7.7530802e-07 0.0000000e+00 
0.0000000e+00 -6.6276584e-07 0.0000000e+00 
0.0000000e+00 -6.3740167e-08 0.0000000e+00 
0.0000000e+00 5.0545117e-07 0.0000000e+00 
0.0000000e+00 7.6401960e-07 0.0000000e+00 
0.0000000e+00 7.7951347e-07 0.0000000e+00 
0.0000000e+00 6.2717464e-07 0.0000000e+00 
0.0000000e+00 1.9635264e-07 0.0000000e+00 
0.0000000e+00 -5.5381929e-07 0.0000000e+00 
0.0000000e+00 -1.2810609e-06 0.0000000e+00 
0.0000000e+00 -1.4098370e-06 0.0000000e+00 
0.0000000e+00 -6.7271799e-07 0.0000000e+00 
0.0000000e+00 5.5241497e-07 0.0000000e+00 
0.0000000e+00 1.4979464e-06 0.0000000e+00 
0.0000000e+00 1.5954591e-06 0.0000000e+00 
0.0000000e+00 8.3936061e-07 0.0000000e+00 
0.0000000e+00 -3.1138907e-07 0.0000000e+00 
0.0000000e+00 -1.2702857e-06 0.0000000e+00 
0.0000000e+00 -1.5969404e-06 0.0000000e+00 
0.0000000e+00 -1.1388579e-06 0.0000000e+00 
0.0000000e+00 -1.0474638e-07 0.0000000e+00 
0.0000000e+00 9.6624183e-07 0.0000000e+00 
0.0000000e+00 1.4341806e-06 0.0000000e+00 
0.0000000e+00 0.0000000e+00 0.0000000e+00 
0.0000000e+00 0.0000000e+00 0.0000000e+00 
0.0000000e+00 0.0000000e+00 0.0000000e+00 
0.0000000e+00 0.0000000e+00 0.0000000e+00 
0.0000000e+00 0.0000000e+00 0.0000000e+00 
0.0000000e+00 0.0000000e+00 0.0000000e+00 
0.0000000e+00 0.0000000e+00 0.0000000e+00 
0.0000000e+00 0.0000000e+00 0.0000000e+00 
0.0000000e+00 0.0000000e+00 0.0000000e+00 
0.0000000e+00 0.0000000e+00 0.0000000e+00 
0.0000000e+00 0.0000000e+00 0.0000000e+00 
0.0000000e+00 0.0000000e+00 0.0000000e+00 
0.0000000e+00 0.0000000e+00 0.0000000e+00 
0.0000000e+00 0.0000000e+00 0.0000000e+00 
0.0000000e+00 0.0000000e+00 0.0000000e+00 
0.0000000e+00 0.0000000e+00 0.0000000e+00 
0.0000000e+00 0.0000000e+00 0.0000000e+00 
0.0000000e+00 0.0000000e+00 0.0000000e+00 
0.0000000e+00 0.0000000e+00 0.0000000e+00 
0.0000000e+00 0.0000000e+00 0.0000000e+00 
0.0000000e+00 0.0000000e+00 0.0000000e+00 
0.0000000e+00 0.0000000e+00 0.0000000e+00 
0.0000000e+00 0.0000000e+00 0.0000000e+00 
0.0000000e+00 0.0000000e+00 0.0000000e+00 
0.0000000e+00 0.0000000e+00 0.0000000e+00 
0.0000000e+00 0.0000000e+00 0.0000000e+00 
0.0000000e+00 0.0000000e+00 0.0000000e+00 
0.0000000e+00 0.0000000e+00 0.0000000e+00 
0.0000000e+00 0.0000000e+00 0.0000000e+00 
0.0000000e+00 0.0000000e+00 0.0000000e+00 
0.0000000e+00 0.0000000e+00 0.0000000e+00 
0.0000000e+00 0.0000000e+00 0.0000000e+00 
0.0000000e+00 0.0000000e+00 0.0000000e+00 
0.0000000e+00 0.0000000e+00 0.0000000e+00 
0.0000000e+00 0.0000000e+00 0.0000000e+00 
0.0000000e+00 0.0000000e+00 0.0000000e+00 
0.0000000e+00 0.0000000e+00 0.0000000e+00 
0.0000000e+00 0.0000000e+00 0.0000000e+00 
0.0000000e+00 0.0000000e+00 0.0000000e+00 
0.0000000e+00 0.0000000e+00 0.0000000e+00 
0.0000000e+00 0.0000000e+00 0.0000000e+00 
0.0000000e+00 0.0000000e+00 0.0000000e+00 
0.0000000e+00 0.0000000e+00 0.0000000e+00 
0.0000000e+00 0.0000000e+00 0.0000000e+00 
0.0000000e+00 0.0000000e+00 0.0000000e+00 
0.0000000e+00 0.0000000e+00 0.0000000e+00 
0.0000000e+00 0.0000000e+00 0.0000000e+00 
0.0000000e+00 0.0000000e+00 0.0000000e+00 
0.0000000e+00 0.0000000e+00 0.0000000e+00 
0.0000000e+00 0.0000000e+00 0.0000000e+00 
0.0000000e+00 0.0000000e+00 0.0000000e+00 
0.0000000e+00 0.0000000e+00 0.0000000e+00 
0.0000000e+00 0.0000000e+00 0.0000000e+00 
0.0000000e+00 0.0000000e+00 0.0000000e+00 
0.0000000e+00 0.0000000e+00 0.0000000e+00 
0.0000000e+00 0.0000000e+00 0.0000000e+00 
0.0000000e+00 0.0000000e+00 0.0000000e+00 
0.0000000e+00 0.0000000e+00 0.0000000e+00 
0.0000000e+00 0.0000000e+00 0.0000000e+00 