# vtk DataFile Version 4.0
vtk output
ASCII
DATASET UNSTRUCTURED_GRID
POINTS 2186 float
0.0000000e+00 0.0000000e+00 0.0000000e+00 
0.0000000e+00 0.0000000e+00 5.0000000e+01 
5.0000000e+00 0.0000000e+00 0.0000000e+00 
5.0000000e+00 0.0000000e+00 5.0000000e+01 
5.0000000e+00 1.0000000e+00 0.0000000e+00 
5.0000000e+00 1.0000000e+00 5.0000000e+01 
0.0000000e+00 1.0000000e+00 0.0000000e+00 
0.0000000e+00 1.0000000e+00 5.0000000e+01 
5.0000000e+00 2.0000000e+00 0.0000000e+00 
5.0000000e+00 2.0000000e+00 5.0000000e+01 
3.0000000e+00 2.0000000e+00 0.0000000e+00 
3.0000000e+00 2.0000000e+00 5.0000000e+01 
0.0000000e+00 2.0000000e+00 0.0000000e+00 
0.0000000e+00 2.0000000e+00 5.0000000e+01 
1.5000000e+00 3.0000000e+00 0.0000000e+00 
1.5000000e+00 3.0000000e+00 5.0000000e+01 
7.5000000e-01 3.0000000e+00 0.0000000e+00 
7.5000000e-01 3.0000000e+00 5.0000000e+01 
0.0000000e+00 3.0000000e+00 0.0000000e+00 
0.0000000e+00 3.0000000e+00 5.0000000e+01 
7.5000000e-01 3.0000000e+00 -2.5000000e+01 
7.5000000e-01 3.0000000e+00 -2.4500000e+01 
7.5000000e-01 3.0000000e+00 -2.4000000e+01 
7.5000000e-01 3.0000000e+00 -2.3500000e+01 
7.5000000e-01 3.0000000e+00 -2.3000000e+01 
7.5000000e-01 3.0000000e+00 -2.2500000e+01 
7.5000000e-01 3.0000000e+00 -2.2000000e+01 
7.5000000e-01 3.0000000e+00 -2.1500000e+01 
7.5000000e-01 3.0000000e+00 -2.1000000e+01 
7.5000000e-01 3.0000000e+00 -2.0500000e+01 
7.5000000e-01 3.0000000e+00 -2.0000000e+01 
7.5000000e-01 3.0000000e+00 -1.9500000e+01 
7.5000000e-01 3.0000000e+00 -1.9000000e+01 
7.5000000e-01 3.0000000e+00 -1.8500000e+01 
7.5000000e-01 3.0000000e+00 -1.8000000e+01 
7.5000000e-01 3.0000000e+00 -1.7500000e+01 
7.5000000e-01 3.0000000e+00 -1.7000000e+01 
7.5000000e-01 3.0000000e+00 -1.6500000e+01 
7.5000000e-01 3.0000000e+00 -1.6000000e+01 
7.5000000e-01 3.0000000e+00 -1.5500000e+01 
7.5000000e-01 3.0000000e+00 -1.5000000e+01 
7.5000000e-01 3.0000000e+00 -1.4500000e+01 
7.5000000e-01 3.0000000e+00 -1.4000000e+01 
7.5000000e-01 3.0000000e+00 -1.3500000e+01 
7.5000000e-01 3.0000000e+00 -1.3000000e+01 
7.5000000e-01 3.0000000e+00 -1.2500000e+01 
7.5000000e-01 3.0000000e+00 -1.2000000e+01 
7.5000000e-01 3.0000000e+00 -1.1500000e+01 
7.5000000e-01 3.0000000e+00 -1.1000000e+01 
7.5000000e-01 3.0000000e+00 -1.0500000e+01 
7.5000000e-01 3.0000000e+00 -1.0000000e+01 
7.5000000e-01 3.0000000e+00 -9.5000000e+00 
7.5000000e-01 3.0000000e+00 -9.0000000e+00 
7.5000000e-01 3.0000000e+00 -8.5000000e+00 
7.5000000e-01 3.0000000e+00 -8.0000000e+00 
7.5000000e-01 3.0000000e+00 -7.5000000e+00 
7.5000000e-01 3.0000000e+00 -7.0000000e+00 
7.5000000e-01 3.0000000e+00 -6.5000000e+00 
7.5000000e-01 3.0000000e+00 -6.0000000e+00 
7.5000000e-01 3.0000000e+00 -5.5000000e+00 
7.5000000e-01 3.0000000e+00 -5.0000000e+00 
7.5000000e-01 3.0000000e+00 -4.5000000e+00 
7.5000000e-01 3.0000000e+00 -4.0000000e+00 
7.5000000e-01 3.0000000e+00 -3.5000000e+00 
7.5000000e-01 3.0000000e+00 -3.0000000e+00 
7.5000000e-01 3.0000000e+00 -2.5000000e+00 
7.5000000e-01 3.0000000e+00 -2.0000000e+00 
7.5000000e-01 3.0000000e+00 -1.5000000e+00 
7.5000000e-01 3.0000000e+00 -1.0000000e+00 
7.5000000e-01 3.0000000e+00 -5.0000000e-01 
7.5000000e-01 3.0000000e+00 5.0000000e-01 
7.5000000e-01 3.0000000e+00 1.0000000e+00 
7.5000000e-01 3.0000000e+00 1.5000000e+00 
7.5000000e-01 3.0000000e+00 2.0000000e+00 
7.5000000e-01 3.0000000e+00 2.5000000e+00 
7.5000000e-01 3.0000000e+00 3.0000000e+00 
7.5000000e-01 3.0000000e+00 3.5000000e+00 
7.5000000e-01 3.0000000e+00 4.0000000e+00 
7.5000000e-01 3.0000000e+00 4.5000000e+00 
7.5000000e-01 3.0000000e+00 5.0000000e+00 
7.5000000e-01 3.0000000e+00 5.5000000e+00 
7.5000000e-01 3.0000000e+00 6.0000000e+00 
7.5000000e-01 3.0000000e+00 6.5000000e+00 
7.5000000e-01 3.0000000e+00 7.0000000e+00 
7.5000000e-01 3.0000000e+00 7.5000000e+00 
7.5000000e-01 3.0000000e+00 8.0000000e+00 
7.5000000e-01 3.0000000e+00 8.5000000e+00 
7.5000000e-01 3.0000000e+00 9.0000000e+00 
7.5000000e-01 3.0000000e+00 9.5000000e+00 
7.5000000e-01 3.0000000e+00 1.0000000e+01 
7.5000000e-01 3.0000000e+00 1.0500000e+01 
7.5000000e-01 3.0000000e+00 1.1000000e+01 
7.5000000e-01 3.0000000e+00 1.1500000e+01 
7.5000000e-01 3.0000000e+00 1.2000000e+01 
7.5000000e-01 3.0000000e+00 1.2500000e+01 
7.5000000e-01 3.0000000e+00 1.3000000e+01 
7.5000000e-01 3.0000000e+00 1.3500000e+01 
7.5000000e-01 3.0000000e+00 1.4000000e+01 
7.5000000e-01 3.0000000e+00 1.4500000e+01 
7.5000000e-01 3.0000000e+00 1.5000000e+01 
7.5000000e-01 3.0000000e+00 1.5500000e+01 
7.5000000e-01 3.0000000e+00 1.6000000e+01 
7.5000000e-01 3.0000000e+00 1.6500000e+01 
7.5000000e-01 3.0000000e+00 1.7000000e+01 
7.5000000e-01 3.0000000e+00 1.7500000e+01 
7.5000000e-01 3.0000000e+00 1.8000000e+01 
7.5000000e-01 3.0000000e+00 1.8500000e+01 
7.5000000e-01 3.0000000e+00 1.9000000e+01 
7.5000000e-01 3.0000000e+00 1.9500000e+01 
7.5000000e-01 3.0000000e+00 2.0000000e+01 
7.5000000e-01 3.0000000e+00 2.0500000e+01 
7.5000000e-01 3.0000000e+00 2.1000000e+01 
7.5000000e-01 3.0000000e+00 2.1500000e+01 
7.5000000e-01 3.0000000e+00 2.2000000e+01 
7.5000000e-01 3.0000000e+00 2.2500000e+01 
7.5000000e-01 3.0000000e+00 2.3000000e+01 
7.5000000e-01 3.0000000e+00 2.3500000e+01 
7.5000000e-01 3.0000000e+00 2.4000000e+01 
7.5000000e-01 3.0000000e+00 2.4500000e+01 
7.5000000e-01 3.0000000e+00 2.5000000e+01 
7.5000000e-01 3.0000000e+00 2.5500000e+01 
7.5000000e-01 3.0000000e+00 2.6000000e+01 
7.5000000e-01 3.0000000e+00 2.6500000e+01 
7.5000000e-01 3.0000000e+00 2.7000000e+01 
7.5000000e-01 3.0000000e+00 2.7500000e+01 
7.5000000e-01 3.0000000e+00 2.8000000e+01 
7.5000000e-01 3.0000000e+00 2.8500000e+01 
7.5000000e-01 3.0000000e+00 2.9000000e+01 
7.5000000e-01 3.0000000e+00 2.9500000e+01 
7.5000000e-01 3.0000000e+00 3.0000000e+01 
7.5000000e-01 3.0000000e+00 3.0500000e+01 
7.5000000e-01 3.0000000e+00 3.1000000e+01 
7.5000000e-01 3.0000000e+00 3.1500000e+01 
7.5000000e-01 3.0000000e+00 3.2000000e+01 
7.5000000e-01 3.0000000e+00 3.2500000e+01 
7.5000000e-01 3.0000000e+00 3.3000000e+01 
7.5000000e-01 3.0000000e+00 3.3500000e+01 
7.5000000e-01 3.0000000e+00 3.4000000e+01 
7.5000000e-01 3.0000000e+00 3.4500000e+01 
7.5000000e-01 3.0000000e+00 3.5000000e+01 
7.5000000e-01 3.0000000e+00 3.5500000e+01 
7.5000000e-01 3.0000000e+00 3.6000000e+01 
7.5000000e-01 3.0000000e+00 3.6500000e+01 
7.5000000e-01 3.0000000e+00 3.7000000e+01 
7.5000000e-01 3.0000000e+00 3.7500000e+01 
7.5000000e-01 3.0000000e+00 3.8000000e+01 
7.5000000e-01 3.0000000e+00 3.8500000e+01 
7.5000000e-01 3.0000000e+00 3.9000000e+01 
7.5000000e-01 3.0000000e+00 3.9500000e+01 
7.5000000e-01 3.0000000e+00 4.0000000e+01 
7.5000000e-01 3.0000000e+00 4.0500000e+01 
7.5000000e-01 3.0000000e+00 4.1000000e+01 
7.5000000e-01 3.0000000e+00 4.1500000e+01 
7.5000000e-01 3.0000000e+00 4.2000000e+01 
7.5000000e-01 3.0000000e+00 4.2500000e+01 
7.5000000e-01 3.0000000e+00 4.3000000e+01 
7.5000000e-01 3.0000000e+00 4.3500000e+01 
7.5000000e-01 3.0000000e+00 4.4000000e+01 
7.5000000e-01 3.0000000e+00 4.4500000e+01 
7.5000000e-01 3.0000000e+00 4.5000000e+01 
7.5000000e-01 3.0000000e+00 4.5500000e+01 
7.5000000e-01 3.0000000e+00 4.6000000e+01 
7.5000000e-01 3.0000000e+00 4.6500000e+01 
7.5000000e-01 3.0000000e+00 4.7000000e+01 
7.5000000e-01 3.0000000e+00 4.7500000e+01 
7.5000000e-01 3.0000000e+00 4.8000000e+01 
7.5000000e-01 3.0000000e+00 4.8500000e+01 
7.5000000e-01 3.0000000e+00 4.9000000e+01 
7.5000000e-01 3.0000000e+00 4.9500000e+01 
7.5000000e-01 3.0000000e+00 5.0500000e+01 
7.5000000e-01 3.0000000e+00 5.1000000e+01 
7.5000000e-01 3.0000000e+00 5.1500000e+01 
7.5000000e-01 3.0000000e+00 5.2000000e+01 
7.5000000e-01 3.0000000e+00 5.2500000e+01 
7.5000000e-01 3.0000000e+00 5.3000000e+01 
7.5000000e-01 3.0000000e+00 5.3500000e+01 
7.5000000e-01 3.0000000e+00 5.4000000e+01 
7.5000000e-01 3.0000000e+00 5.4500000e+01 
7.5000000e-01 3.0000000e+00 5.5000000e+01 
7.5000000e-01 3.0000000e+00 5.5500000e+01 
7.5000000e-01 3.0000000e+00 5.6000000e+01 
7.5000000e-01 3.0000000e+00 5.6500000e+01 
7.5000000e-01 3.0000000e+00 5.7000000e+01 
7.5000000e-01 3.0000000e+00 5.7500000e+01 
7.5000000e-01 3.0000000e+00 5.8000000e+01 
7.5000000e-01 3.0000000e+00 5.8500000e+01 
7.5000000e-01 3.0000000e+00 5.9000000e+01 
7.5000000e-01 3.0000000e+00 5.9500000e+01 
7.5000000e-01 3.0000000e+00 6.0000000e+01 
7.5000000e-01 3.0000000e+00 6.0500000e+01 
7.5000000e-01 3.0000000e+00 6.1000000e+01 
7.5000000e-01 3.0000000e+00 6.1500000e+01 
7.5000000e-01 3.0000000e+00 6.2000000e+01 
7.5000000e-01 3.0000000e+00 6.2500000e+01 
7.5000000e-01 3.0000000e+00 6.3000000e+01 
7.5000000e-01 3.0000000e+00 6.3500000e+01 
7.5000000e-01 3.0000000e+00 6.4000000e+01 
7.5000000e-01 3.0000000e+00 6.4500000e+01 
7.5000000e-01 3.0000000e+00 6.5000000e+01 
7.5000000e-01 3.0000000e+00 6.5500000e+01 
7.5000000e-01 3.0000000e+00 6.6000000e+01 
7.5000000e-01 3.0000000e+00 6.6500000e+01 
7.5000000e-01 3.0000000e+00 6.7000000e+01 
7.5000000e-01 3.0000000e+00 6.7500000e+01 
7.5000000e-01 3.0000000e+00 6.8000000e+01 
7.5000000e-01 3.0000000e+00 6.8500000e+01 
7.5000000e-01 3.0000000e+00 6.9000000e+01 
7.5000000e-01 3.0000000e+00 6.9500000e+01 
7.5000000e-01 3.0250001e+00 -2.5000000e+01 
7.5000000e-01 3.0250001e+00 -2.4500000e+01 
7.5000000e-01 3.0250001e+00 -2.4000000e+01 
7.5000000e-01 3.0250001e+00 -2.3500000e+01 
7.5000000e-01 3.0250001e+00 -2.3000000e+01 
7.5000000e-01 3.0250001e+00 -2.2500000e+01 
7.5000000e-01 3.0250001e+00 -2.2000000e+01 
7.5000000e-01 3.0250001e+00 -2.1500000e+01 
7.5000000e-01 3.0250001e+00 -2.1000000e+01 
7.5000000e-01 3.0250001e+00 -2.0500000e+01 
7.5000000e-01 3.0250001e+00 -2.0000000e+01 
7.5000000e-01 3.0250001e+00 -1.9500000e+01 
7.5000000e-01 3.0250001e+00 -1.9000000e+01 
7.5000000e-01 3.0250001e+00 -1.8500000e+01 
7.5000000e-01 3.0250001e+00 -1.8000000e+01 
7.5000000e-01 3.0250001e+00 -1.7500000e+01 
7.5000000e-01 3.0250001e+00 -1.7000000e+01 
7.5000000e-01 3.0250001e+00 -1.6500000e+01 
7.5000000e-01 3.0250001e+00 -1.6000000e+01 
7.5000000e-01 3.0250001e+00 -1.5500000e+01 
[...]
POINT_DATA 2186
FIELD FieldData 3
DISPLACEMENT 3 2186  float
0.0000000e+00 0.0000000e+00 0.0000000e+00 
0.0000000e+00 0.0000000e+00 0.0000000e+00 
0.0000000e+00 0.0000000e+00 0.0000000e+00 
0.0000000e+00 0.0000000e+00 0.0000000e+00 
1.7387460e-05 -3.3521089e-06 -1.3025383e-05 
-2.3507368e-12 5.8279125e-11 2.9522335e-10 
0.0000000e+00 -1.6580472e-05 0.0000000e+00 
0.0000000e+00 -2.3222933e-08 0.0000000e+00 
3.2148269e-05 7.4320556e-06 -2.3711023e-05 
-6.9112416e-10 7.3412049e-10 -1.4346606e-09 
-2.6148452e-06 -5.4690764e-07 -1.6841412e-05 
1.2705402e-09 1.3851481e-08 -5.5379950e-09 
0.0000000e+00 -3.8149433e-06 0.0000000e+00 
0.0000000e+00 9.1805319e-08 0.0000000e+00 
-1.0492315e-06 7.1005583e-05 3.9970932e-05 
-3.0777771e-09 6.6048024e-08 2.2002361e-08 
8.9440009e-06 -1.1630992e-06 -1.0111467e-05 
-5.4943055e-09 -9.0619477e-07 -3.1066300e-08 
0.0000000e+00 1.0247901e-04 0.0000000e+00 
0.0000000e+00 7.7594092e-07 0.0000000e+00 
0.0000000e+00 -1.9719970e-07 0.0000000e+00 
0.0000000e+00 -1.3902329e-07 0.0000000e+00 
0.0000000e+00 1.7326039e-07 0.0000000e+00 
0.0000000e+00 5.7494498e-07 0.0000000e+00 
0.0000000e+00 3.2593348e-07 0.0000000e+00 
0.0000000e+00 -7.9991815e-07 0.0000000e+00 
0.0000000e+00 -1.4417794e-06 0.0000000e+00 
0.0000000e+00 4.2580510e-08 0.0000000e+00 
0.0000000e+00 2.6438659e-06 0.0000000e+00 
0.0000000e+00 2.5893441e-06 0.0000000e+00 
0.0000000e+00 -1.8603652e-06 0.0000000e+00 
0.0000000e+00 -6.1789806e-06 0.0000000e+00 
0.0000000e+00 -3.4285215e-06 0.0000000e+00 
0.0000000e+00 6.0158109e-06 0.0000000e+00 
0.0000000e+00 1.1568226e-05 0.0000000e+00 
0.0000000e+00 3.5993746e-06 0.0000000e+00 
0.0000000e+00 -1.2596135e-05 0.0000000e+00 
0.0000000e+00 -1.8892875e-05 0.0000000e+00 
0.0000000e+00 -4.1108397e-06 0.0000000e+00 
0.0000000e+00 2.0189456e-05 0.0000000e+00 
0.0000000e+00 2.8487057e-05 0.0000000e+00 
0.0000000e+00 7.9884639e-06 0.0000000e+00 
0.0000000e+00 -2.5324400e-05 0.0000000e+00 
0.0000000e+00 -3.9925053e-05 0.0000000e+00 
0.0000000e+00 -1.9010524e-05 0.0000000e+00 
0.0000000e+00 2.2209679e-05 0.0000000e+00 
0.0000000e+00 4.9006914e-05 0.0000000e+00 
0.0000000e+00 3.7439841e-05 0.0000000e+00 
0.0000000e+00 -5.0384401e-06 0.0000000e+00 
0.0000000e+00 -4.5885245e-05 0.0000000e+00 
0.0000000e+00 -5.3958807e-05 0.0000000e+00 
0.0000000e+00 -2.3674389e-05 0.0000000e+00 
0.0000000e+00 2.1911626e-05 0.0000000e+00 
0.0000000e+00 5.0091890e-05 0.0000000e+00 
0.0000000e+00 4.3629519e-05 0.0000000e+00 
0.0000000e+00 1.2123409e-05 0.0000000e+00 
0.0000000e+00 -1.8615747e-05 0.0000000e+00 
0.0000000e+00 -2.8979126e-05 0.0000000e+00 
0.0000000e+00 -1.9882975e-05 0.0000000e+00 
0.0000000e+00 -7.5565549e-06 0.0000000e+00 
0.0000000e+00 -5.9365757e-06 0.0000000e+00 
0.0000000e+00 -1.3921578e-05 0.0000000e+00 
0.0000000e+00 -1.7722728e-05 0.0000000e+00 
0.0000000e+00 -4.2982033e-06 0.0000000e+00 
0.0000000e+00 2.5783389e-05 0.0000000e+00 
0.0000000e+00 5.6059747e-05 0.0000000e+00 
0.0000000e+00 6.5590320e-05 0.0000000e+00 
0.0000000e+00 4.6926340e-05 0.0000000e+00 
0.0000000e+00 1.4875804e-05 0.0000000e+00 
0.0000000e+00 -5.1544625e-06 0.0000000e+00 
6.7929986e-06 1.1494094e-05 6.1386265e-05 
-2.2215179e-06 5.0988928e-07 8.8663837e-05 
-6.9408961e-06 -5.6546778e-05 9.8919249e-05 
-1.4215104e-05 -1.5032550e-04 1.4627108e-04 
-6.8798974e-05 -2.3889630e-04 1.0799366e-04 
-6.0956841e-05 -2.9170228e-04 1.5315494e-04 
-3.8784918e-05 -3.3240439e-04 2.0887867e-04 
-8.4121442e-05 -4.4285378e-04 1.8680416e-04 
-1.4134181e-04 -7.2057167e-04 2.6513476e-04 
-2.1536296e-04 -1.2265174e-03 2.2112645e-04 
-2.3397668e-04 -1.9698853e-03 2.9140289e-04 
-2.9172678e-04 -2.9082822e-03 2.2143289e-04 
-3.3934863e-04 -4.0346142e-03 2.9721824e-04 
-5.1929749e-04 -5.1676952e-03 3.2784355e-05 
-5.2859826e-04 -5.8271307e-03 -6.4777429e-05 
-4.9339235e-04 -5.4902043e-03 -1.4692760e-04 
-3.8227203e-04 -4.9753673e-03 -3.1015050e-04 
-3.1766397e-04 -4.7556884e-03 -2.8087394e-04 
-2.5727612e-04 -4.8229429e-03 -2.7607172e-04 
-2.8902144e-04 -4.5455163e-03 -2.6364223e-04 
-2.0153911e-04 -3.3759691e-03 -3.8197215e-04 
-1.5443815e-04 -1.9457581e-03 -2.6828403e-04 
-3.5112382e-05 -8.1661082e-04 -3.2631730e-04 
1.9268085e-05 -1.0184911e-04 -1.6652654e-04 
4.2285243e-05 2.4839363e-04 -7.6728880e-05 
5.3641957e-05 3.4835842e-04 8.1823666e-05 
-2.5850256e-06 2.9347974e-04 5.4938100e-05 
-1.3155108e-06 1.7314551e-04 4.3303360e-05 
4.1580236e-08 6.4381391e-05 4.3015956e-05 
-6.8122858e-06 4.8696274e-06 -2.8148640e-06 
1.9456147e-06 -1.1809937e-05 7.8901903e-06 
9.8995145e-07 -1.8418947e-05 -6.8185855e-06 
7.2181603e-09 -3.5434870e-05 -1.3130722e-05 
1.3027602e-06 -5.0056060e-05 5.7506390e-06 
-1.9079430e-06 -3.8961698e-05 -1.5250759e-05 
-8.5730204e-07 3.4108507e-06 -1.4337525e-05 
3.2912892e-06 5.4963402e-05 -7.5381199e-06 
-2.7094347e-07 7.8874349e-05 -2.5736652e-05 
2.9010512e-06 5.7699774e-05 -1.0263882e-05 
1.2369831e-05 7.9238171e-06 2.6455660e-05 
6.8749605e-06 -3.9219092e-05 5.1493254e-05 
-4.8193365e-06 -6.2137435e-05 8.1960534e-05 
-1.0655155e-05 -7.4652751e-05 1.0384888e-04 
-3.8195900e-05 -1.2156319e-04 7.9045902e-05 
-3.6704674e-05 -2.2108774e-04 1.0663576e-04 
-7.6914766e-05 -3.4525359e-04 1.3144313e-04 
-9.8970675e-05 -4.5805000e-04 2.0347080e-04 
-1.0263760e-04 -5.6408130e-04 1.8433460e-04 
-1.3680865e-04 -7.6500210e-04 2.7013727e-04 
-1.7781950e-04 -1.2319006e-03 2.3793239e-04 
-2.5107717e-04 -2.0728388e-03 2.4885708e-04 
-3.3079344e-04 -3.2011613e-03 1.9183461e-04 
-4.0144136e-04 -4.4519645e-03 2.6324959e-04 
-5.2008877e-04 -5.4488746e-03 -2.6609470e-05 
-5.0373765e-04 -5.7490375e-03 -1.2610527e-04 
-4.8686273e-04 -5.3116661e-03 -1.7693007e-04 
-4.3273059e-04 -4.9511055e-03 -3.3651351e-04 
-4.2497477e-04 -4.9216975e-03 -3.2238377e-04 
-3.5462345e-04 -4.9776440e-03 -3.2461915e-04 
-3.3101987e-04 -4.4120867e-03 -2.6593410e-04 
-2.4279140e-04 -3.1308152e-03 -4.4666993e-04 
-1.4590587e-04 -1.7449048e-03 -2.8951571e-04 
-3.5651894e-05 -6.9458055e-04 -3.2855867e-04 
1.6748785e-05 -3.3848737e-05 -1.7007711e-04 
4.0442686e-05 2.8232596e-04 -6.7494526e-05 
4.2525728e-05 3.5062240e-04 4.1610157e-05 
1.1824582e-05 2.7270379e-04 6.9397422e-05 
3.0588224e-06 1.5552300e-04 5.0653183e-05 
4.0494142e-06 7.1482857e-05 4.3125881e-05 
-1.7996950e-06 2.3117509e-05 8.0315442e-07 
2.4336157e-07 -9.6701897e-06 -1.4380573e-06 
-8.0816693e-07 -3.4884946e-05 -3.4621405e-06 
-3.3451518e-06 -4.5128298e-05 -1.4537230e-05 
3.7953640e-07 -3.4120290e-05 -1.0332376e-06 
3.2639107e-06 -9.6444746e-06 -2.8504087e-06 
-3.2708062e-06 1.2579231e-05 -1.9223710e-07 
1.8323967e-06 2.0881020e-05 3.2717167e-06 
-2.7776068e-07 1.5272202e-05 1.3610990e-06 
-3.2124283e-06 2.5961567e-06 4.6962691e-07 
1.8061473e-06 -8.6421596e-06 6.4341907e-07 
-1.0365225e-06 -1.2564200e-05 -1.8301459e-06 
4.3970033e-10 -7.9676374e-06 3.9943325e-07 
2.8961284e-07 1.8264203e-06 1.0313004e-06 
-2.2629642e-08 9.2213213e-06 -9.3666011e-07 
2.6354789e-07 8.1356575e-06 6.9902489e-07 
3.9068698e-08 1.1321159e-06 5.1458699e-07 
-2.4356180e-07 -4.8800271e-06 -6.9706181e-07 
-1.1190577e-08 -5.7635175e-06 3.0636397e-07 
-9.2984758e-09 -2.1160417e-06 5.9050215e-08 
-1.1265916e-07 1.9633878e-06 -3.8119884e-07 
1.0314394e-07 3.2196672e-06 2.0878944e-07 
1.4894812e-07 1.8841472e-06 8.8784127e-08 
-4.6736663e-08 -2.9580221e-07 -1.1493319e-07 
-5.3340866e-08 -1.7690212e-06 6.4261698e-08 
1.0677132e-08 -1.5851444e-06 -7.9745659e-09 
-6.2571473e-08 -1.0957260e-07 -1.7637888e-08 
2.9216967e-08 1.2196026e-06 5.2299267e-08 
2.9131956e-08 1.1939459e-06 -1.0244810e-08 
-4.7051845e-08 9.9733937e-09 2.4079143e-09 
0.0000000e+00 -6.8024809e-07 0.0000000e+00 
0.0000000e+00 1.9145199e-07 0.0000000e+00 
0.0000000e+00 6.5540843e-07 0.0000000e+00 
0.0000000e+00 3.3698140e-07 0.0000000e+00 
0.0000000e+00 -2.0773352e-07 0.0000000e+00 
0.0000000e+00 -3.4681580e-07 0.0000000e+00 
0.0000000e+00 -8.3851702e-08 0.0000000e+00 
0.0000000e+00 1.5498716e-07 0.0000000e+00 
0.0000000e+00 1.3324967e-07 0.0000000e+00 
0.0000000e+00 -1.3863103e-08 0.0000000e+00 
0.0000000e+00 -7.7309764e-08 0.0000000e+00 
0.0000000e+00 -3.0803381e-08 0.0000000e+00 
0.0000000e+00 2.3633806e-08 0.0000000e+00 
0.0000000e+00 2.5486484e-08 0.0000000e+00 
0.0000000e+00 2.2135009e-10 0.0000000e+00 
0.0000000e+00 -1.1393714e-08 0.0000000e+00 
0.0000000e+00 -4.7784949e-09 0.0000000e+00 
0.0000000e+00 2.9519411e-09 0.0000000e+00 
0.0000000e+00 3.1217935e-09 0.0000000e+00 
0.0000000e+00 -2.1778966e-11 0.0000000e+00 
0.0000000e+00 -1.2371916e-09 0.0000000e+00 
0.0000000e+00 -4.3035378e-10 0.0000000e+00 
0.0000000e+00 3.1517014e-10 0.0000000e+00 
0.0000000e+00 2.6360461e-10 0.0000000e+00 
0.0000000e+00 -2.6222781e-11 0.0000000e+00 
0.0000000e+00 -1.0059885e-10 0.0000000e+00 
0.0000000e+00 -2.2511789e-11 0.0000000e+00 
0.0000000e+00 2.6803814e-11 0.0000000e+00 
0.0000000e+00 1.5405963e-11 0.0000000e+00 
0.0000000e+00 -4.0998992e-12 0.0000000e+00 
0.0000000e+00 -6.0320650e-12 0.0000000e+00 
0.0000000e+00 -4.3205744e-13 0.0000000e+00 
0.0000000e+00 1.7109094e-12 0.0000000e+00 
0.0000000e+00 5.9336639e-13 0.0000000e+00 
0.0000000e+00 -3.4004321e-13 0.0000000e+00 
0.0000000e+00 -2.5755629e-13 0.0000000e+00 
0.0000000e+00 2.4599055e-14 0.0000000e+00 
0.0000000e+00 6.0249596e-14 0.0000000e+00 
0.0000000e+00 1.1502722e-14 0.0000000e+00 
0.0000000e+00 -2.0894007e-07 0.0000000e+00 
0.0000000e+00 -1.3251901e-07 0.0000000e+00 
0.0000000e+00 1.9866472e-07 0.0000000e+00 
0.0000000e+00 5.7539631e-07 0.0000000e+00 
0.0000000e+00 2.7954871e-07 0.0000000e+00 
0.0000000e+00 -8.3571831e-07 0.0000000e+00 
0.0000000e+00 -1.3883781e-06 0.0000000e+00 
0.0000000e+00 1.4960131e-07 0.0000000e+00 
0.0000000e+00 2.6466550e-06 0.0000000e+00 
0.0000000e+00 2.4175495e-06 0.0000000e+00 
0.0000000e+00 -2.0173709e-06 0.0000000e+00 
0.0000000e+00 -6.0574507e-06 0.0000000e+00 
0.0000000e+00 -3.0857832e-06 0.0000000e+00 
0.0000000e+00 6.1563137e-06 0.0000000e+00 
0.0000000e+00 1.1223256e-05 0.0000000e+00 
0.0000000e+00 3.0868237e-06 0.0000000e+00 
0.0000000e+00 -1.2634892e-05 0.0000000e+00 
0.0000000e+00 -1.8285406e-05 0.0000000e+00 
0.0000000e+00 -3.4715204e-06 0.0000000e+00 
0.0000000e+00 2.0104244e-05 0.0000000e+00 
0.0000000e+00 2.7669896e-05 0.0000000e+00 
0.0000000e+00 7.2514476e-06 0.0000000e+00 
0.0000000e+00 -2.5203261e-05 0.0000000e+00 
0.0000000e+00 -3.9021630e-05 0.0000000e+00 
0.0000000e+00 -1.8170456e-05 0.0000000e+00 
0.0000000e+00 2.2211640e-05 0.0000000e+00 
0.0000000e+00 4.8179427e-05 0.0000000e+00 
0.0000000e+00 3.6513291e-05 0.0000000e+00 
0.0000000e+00 -5.2949363e-06 0.0000000e+00 
0.0000000e+00 -4.5301178e-05 0.0000000e+00 
0.0000000e+00 -5.3042091e-05 0.0000000e+00 
0.0000000e+00 -2.3155077e-05 0.0000000e+00 
0.0000000e+00 2.1659400e-05 0.0000000e+00 
0.0000000e+00 4.9318245e-05 0.0000000e+00 
0.0000000e+00 4.2987711e-05 0.0000000e+00 
0.0000000e+00 1.2123377e-05 0.0000000e+00 
0.0000000e+00 -1.8040049e-05 0.0000000e+00 
0.0000000e+00 -2.8388244e-05 0.0000000e+00 
0.0000000e+00 -1.9794421e-05 0.0000000e+00 
0.0000000e+00 -7.9846423e-06 0.0000000e+00 
0.0000000e+00 -6.4506976e-06 0.0000000e+00 
0.0000000e+00 -1.4081376e-05 0.0000000e+00 
0.0000000e+00 -1.7416083e-05 0.0000000e+00 
0.0000000e+00 -3.7664372e-06 0.0000000e+00 
0.0000000e+00 2.6119636e-05 0.0000000e+00 
0.0000000e+00 5.5882098e-05 0.0000000e+00 
0.0000000e+00 6.4997468e-05 0.0000000e+00 
0.0000000e+00 4.6474790e-05 0.0000000e+00 
0.0000000e+00 1.5105144e-05 0.0000000e+00 
0.0000000e+00 -4.3241712e-06 0.0000000e+00 
0.0000000e+00 -4.3212438e-07 0.0000000e+00 
0.0000000e+00 1.1543716e-05 0.0000000e+00 
0.0000000e+00 -3.5419833e-07 0.0000000e+00 
0.0000000e+00 -5.7838155e-05 0.0000000e+00 
0.0000000e+00 -1.5033725e-04 0.0000000e+00 
0.0000000e+00 -2.3752895e-04 0.0000000e+00 
0.0000000e+00 -2.8981399e-04 0.0000000e+00 
0.0000000e+00 -3.3104097e-04 0.0000000e+00 
0.0000000e+00 -4.4323970e-04 0.0000000e+00 
0.0000000e+00 -7.2302850e-04 0.0000000e+00 
0.0000000e+00 -1.2298338e-03 0.0000000e+00 
0.0000000e+00 -1.9693819e-03 0.0000000e+00 
0.0000000e+00 -2.9147146e-03 0.0000000e+00 
0.0000000e+00 -4.0473300e-03 0.0000000e+00 
0.0000000e+00 -5.1973653e-03 0.0000000e+00 
0.0000000e+00 -5.8529135e-03 0.0000000e+00 
0.0000000e+00 -5.5222330e-03 0.0000000e+00 
0.0000000e+00 -4.9921209e-03 0.0000000e+00 
0.0000000e+00 -4.7797551e-03 0.0000000e+00 
0.0000000e+00 -4.8465026e-03 0.0000000e+00 
0.0000000e+00 -4.5765610e-03 0.0000000e+00 
0.0000000e+00 -3.3964715e-03 0.0000000e+00 
0.0000000e+00 -1.9613740e-03 0.0000000e+00 
0.0000000e+00 -8.2104845e-04 0.0000000e+00 
0.0000000e+00 -1.0320824e-04 0.0000000e+00 
0.0000000e+00 2.4940327e-04 0.0000000e+00 
0.0000000e+00 3.4855620e-04 0.0000000e+00 
0.0000000e+00 2.9402497e-04 0.0000000e+00 
0.0000000e+00 1.7478708e-04 0.0000000e+00 
0.0000000e+00 6.5870248e-05 0.0000000e+00 
0.0000000e+00 5.5529899e-06 0.0000000e+00 
0.0000000e+00 -1.2256954e-05 0.0000000e+00 
0.0000000e+00 -1.9423836e-05 0.0000000e+00 
0.0000000e+00 -3.5714351e-05 0.0000000e+00 
0.0000000e+00 -4.9584516e-05 0.0000000e+00 
0.0000000e+00 -3.8336475e-05 0.0000000e+00 
0.0000000e+00 3.7958412e-06 0.0000000e+00 
0.0000000e+00 5.4635293e-05 0.0000000e+00 
0.0000000e+00 7.8095138e-05 0.0000000e+00 
0.0000000e+00 5.7030076e-05 0.0000000e+00 
0.0000000e+00 7.7952327e-06 0.0000000e+00 
0.0000000e+00 -3.8037058e-05 0.0000000e+00 
0.0000000e+00 -6.0673854e-05 0.0000000e+00 
0.0000000e+00 -7.5209144e-05 0.0000000e+00 
0.0000000e+00 -1.2314248e-04 0.0000000e+00 
0.0000000e+00 -2.2203769e-04 0.0000000e+00 
0.0000000e+00 -3.4481412e-04 0.0000000e+00 
0.0000000e+00 -4.5478201e-04 0.0000000e+00 
0.0000000e+00 -5.6059903e-04 0.0000000e+00 
0.0000000e+00 -7.6637190e-04 0.0000000e+00 
0.0000000e+00 -1.2393121e-03 0.0000000e+00 
0.0000000e+00 -2.0772526e-03 0.0000000e+00 
0.0000000e+00 -3.2107295e-03 0.0000000e+00 
0.0000000e+00 -4.4619492e-03 0.0000000e+00 
0.0000000e+00 -5.4775015e-03 0.0000000e+00 
0.0000000e+00 -5.7761581e-03 0.0000000e+00 
0.0000000e+00 -5.3453804e-03 0.0000000e+00 
0.0000000e+00 -4.9687712e-03 0.0000000e+00 
0.0000000e+00 -4.9463152e-03 0.0000000e+00 
0.0000000e+00 -4.9980180e-03 0.0000000e+00 
0.0000000e+00 -4.4448464e-03 0.0000000e+00 
0.0000000e+00 -3.1484631e-03 0.0000000e+00 
0.0000000e+00 -1.7573041e-03 0.0000000e+00 
0.0000000e+00 -6.9714303e-04 0.0000000e+00 
0.0000000e+00 -3.5807101e-05 0.0000000e+00 
0.0000000e+00 2.8229936e-04 0.0000000e+00 
0.0000000e+00 3.5110698e-04 0.0000000e+00 
0.0000000e+00 2.7432726e-04 0.0000000e+00 
0.0000000e+00 1.5795711e-04 0.0000000e+00 
0.0000000e+00 7.1889554e-05 0.0000000e+00 
0.0000000e+00 2.2463368e-05 0.0000000e+00 
0.0000000e+00 -1.0031339e-05 0.0000000e+00 
0.0000000e+00 -3.4553825e-05 0.0000000e+00 
0.0000000e+00 -4.4639150e-05 0.0000000e+00 
0.0000000e+00 -3.4122466e-05 0.0000000e+00 
0.0000000e+00 -9.9388362e-06 0.0000000e+00 
0.0000000e+00 1.2247074e-05 0.0000000e+00 
0.0000000e+00 2.0755268e-05 0.0000000e+00 
0.0000000e+00 1.5221482e-05 0.0000000e+00 
0.0000000e+00 2.6988837e-06 0.0000000e+00 
0.0000000e+00 -8.4183121e-06 0.0000000e+00 
0.0000000e+00 -1.2416464e-05 0.0000000e+00 
0.0000000e+00 -7.9021829e-06 0.0000000e+00 
0.0000000e+00 1.7100188e-06 0.0000000e+00 
0.0000000e+00 8.9118466e-06 0.0000000e+00 
0.0000000e+00 8.0517766e-06 0.0000000e+00 
0.0000000e+00 1.3114154e-06 0.0000000e+00 
0.0000000e+00 -4.7184176e-06 0.0000000e+00 
0.0000000e+00 -5.7016541e-06 0.0000000e+00 
0.0000000e+00 -2.1836586e-06 0.0000000e+00 
0.0000000e+00 1.8429366e-06 0.0000000e+00 
0.0000000e+00 3.1907844e-06 0.0000000e+00 
0.0000000e+00 1.9103352e-06 0.0000000e+00 
0.0000000e+00 -2.7011785e-07 0.0000000e+00 
0.0000000e+00 -1.7228294e-06 0.0000000e+00 
0.0000000e+00 -1.5582784e-06 0.0000000e+00 
0.0000000e+00 -1.3648281e-07 0.0000000e+00 
0.0000000e+00 1.1668128e-06 0.0000000e+00 
0.0000000e+00 1.1700645e-06 0.0000000e+00 
0.0000000e+00 4.7864713e-08 0.0000000e+00 
0.0000000e+00 -8.6412109e-07 0.0000000e+00 
0.0000000e+00 -6.7834816e-07 0.0000000e+00 
0.0000000e+00 1.6166700e-07 0.0000000e+00 
0.0000000e+00 6.3326354e-07 0.0000000e+00 
0.0000000e+00 3.4551422e-07 0.0000000e+00 
0.0000000e+00 -1.8663339e-07 0.0000000e+00 
0.0000000e+00 -3.4062569e-07 0.0000000e+00 
0.0000000e+00 -9.4370932e-08 0.0000000e+00 
0.0000000e+00 1.4554664e-07 0.0000000e+00 
0.0000000e+00 1.3485368e-07 0.0000000e+00 
0.0000000e+00 -7.5909767e-09 0.0000000e+00 
0.0000000e+00 -7.5281470e-08 0.0000000e+00 
0.0000000e+00 -3.3281058e-08 0.0000000e+00 
0.0000000e+00 2.1499929e-08 0.0000000e+00 
0.0000000e+00 2.5842228e-08 0.0000000e+00 
0.0000000e+00 1.4080414e-09 0.0000000e+00 
0.0000000e+00 -1.1096131e-08 0.0000000e+00 
0.0000000e+00 -5.2101208e-09 0.0000000e+00 
0.0000000e+00 2.6598443e-09 0.0000000e+00 
0.0000000e+00 3.2039758e-09 0.0000000e+00 
0.0000000e+00 1.2995555e-10 0.0000000e+00 
0.0000000e+00 -1.2193769e-09 0.0000000e+00 
0.0000000e+00 -4.8506837e-10 0.0000000e+00 
0.0000000e+00 2.9059358e-10 0.0000000e+00 
0.0000000e+00 2.7665112e-10 0.0000000e+00 
0.0000000e+00 -1.3105875e-11 0.0000000e+00 
0.0000000e+00 -1.0138364e-10 0.0000000e+00 
0.0000000e+00 -2.7382503e-11 0.0000000e+00 
0.0000000e+00 2.5675901e-11 0.0000000e+00 
0.0000000e+00 1.6737127e-11 0.0000000e+00 
0.0000000e+00 -3.3598361e-12 0.0000000e+00 
0.0000000e+00 -6.2636207e-12 0.0000000e+00 
0.0000000e+00 -7.2796733e-13 0.0000000e+00 
0.0000000e+00 1.7051045e-12 0.0000000e+00 
0.0000000e+00 6.8250332e-13 0.0000000e+00 
0.0000000e+00 -3.1577985e-13 0.0000000e+00 
0.0000000e+00 -2.7740188e-13 0.0000000e+00 
0.0000000e+00 1.1679616e-14 0.0000000e+00 
0.0000000e+00 6.1434812e-14 0.0000000e+00 
0.0000000e+00 1.7282857e-14 0.0000000e+00 
0.0000000e+00 0.0000000e+00 0.0000000e+00 
0.0000000e+00 0.0000000e+00 0.0000000e+00 
0.0000000e+00 0.0000000e+00 0.0000000e+00 
0.0000000e+00 0.0000000e+00 0.0000000e+00 
0.0000000e+00 0.0000000e+00 0.0000000e+00 
0.0000000e+00 0.0000000e+00 0.0000000e+00 
0.0000000e+00 0.0000000e+00 0.0000000e+00 
0.0000000e+00 0.0000000e+00 0.0000000e+00 
0.0000000e+00 0.0000000e+00 0.0000000e+00 
0.0000000e+00 0.0000000e+00 0.0000000e+00 
0.0000000e+00 0.0000000e+00 0.0000000e+00 
0.0000000e+00 0.0000000e+00 0.0000000e+00 
0.0000000e+00 0.0000000e+00 0.0000000e+00 
0.0000000e+00 0.0000000e+00 0.0000000e+00 
0.0000000e+00 0.0000000e+00 0.0000000e+00 
0.0000000e+00 0.0000000e+00 0.0000000e+00 
0.0000000e+00 0.0000000e+00 0.0000000e+00 
0.0000000e+00 0.0000000e+00 0.0000000e+00 
0.0000000e+00 0.0000000e+00 0.0000000e+00 
0.0000000e+00 0.0000000e+00 0.0000000e+00 
0.0000000e+00 0.0000000e+00 0.0000000e+00 
0.0000000e+00 0.0000000e+00 0.0000000e+00 
0.0000000e+00 0.0000000e+00 0.0000000e+00 
0.0000000e+00 0.0000000e+00 0.0000000e+00 
0.0000000e+00 0.0000000e+00 0.0000000e+00 
0.0000000e+00 0.0000000e+00 0.0000000e+00 
0.0000000e+00 0.0000000e+00 0.0000000e+00 
0.0000000e+00 0.0000000e+00 0.0000000e+00 
0.0000000e+00 0.0000000e+00 0.0000000e+00 
0.0000000e+00 0.0000000e+00 0.0000000e+00 
0.0000000e+00 0.0000000e+00 0.0000000e+00 
0.0000000e+00 0.0000000e+00 0.0000000e+00 
0.0000000e+00 0.0000000e+00 0.0000000e+00 
0.0000000e+00 0.0000000e+00 0.0000000e+00 
0.0000000e+00 0.0000000e+00 0.0000000e+00 
0.0000000e+00 0.0000000e+00 0.0000000e+00 
0.0000000e+00 0.0000000e+00 0.0000000e+00 
0.0000000e+00 0.0000000e+00 0.0000000e+00 
0.0000000e+00 0.0000000e+00 0.0000000e+00 
0.0000000e+00 0.0000000e+00 0.0000000e+00 
0.0000000e+00 0.0000000e+00 0.0000000e+00 
0.0000000e+00 0.0000000e+00 0.0000000e+00 
0.0000000e+00 0.0000000e+00 0.0000000e+00 
0.0000000e+00 0.0000000e+00 0.0000000e+00 
0.0000000e+00 0.0000000e+00 0.0000000e+00 
0.0000000e+00 0.0000000e+00 0.0000000e+00 
0.0000000e+00 0.0000000e+00 0.0000000e+00 
0.0000000e+00 0.0000000e+00 0.0000000e+00 
0.0000000e+00 0.0000000e+00 0.0000000e+00 
0.0000000e+00 0.0000000e+00 0.0000000e+00 
0.0000000e+00 0.0000000e+00 0.0000000e+00 
0.0000000e+00 0.0000000e+00 0.0000000e+00 
0.0000000e+00 0.0000000e+00 0.0000000e+00 
0.0000000e+00 0.0000000e+00 0.0000000e+00 
0.0000000e+00 0.0000000e+00 0.0000000e+00 
0.0000000e+00 0.0000000e+00 0.0000000e+00 
0.0000000e+00 0.0000000e+00 0.0000000e+00 