# vtk DataFile Version 4.0
vtk output
ASCII
DATASET UNSTRUCTURED_GRID
POINTS 2186 float
0.0000000e+00 0.0000000e+00 0.0000000e+00 
0.0000000e+00 0.0000000e+00 5.0000000e+01 
5.0000000e+00 0.0000000e+00 0.0000000e+00 
5.0000000e+00 0.0000000e+00 5.0000000e+01 
5.0000000e+00 1.0000000e+00 0.0000000e+00 
5.0000000e+00 1.0000000e+00 5.0000000e+01 
0.0000000e+00 1.0000000e+00 0.0000000e+00 
0.0000000e+00 1.0000000e+00 5.0000000e+01 
5.0000000e+00 2.0000000e+00 0.0000000e+00 
5.0000000e+00 2.0000000e+00 5.0000000e+01 
3.0000000e+00 2.0000000e+00 0.0000000e+00 
3.0000000e+00 2.0000000e+00 5.0000000e+01 
0.0000000e+00 2.0000000e+00 0.0000000e+00 
0.0000000e+00 2.0000000e+00 5.0000000e+01 
1.5000000e+00 3.0000000e+00 0.0000000e+00 
1.5000000e+00 3.0000000e+00 5.0000000e+01 
7.5000000e-01 3.0000000e+00 0.0000000e+00 
7.5000000e-01 3.0000000e+00 5.0000000e+01 
0.0000000e+00 3.0000000e+00 0.0000000e+00 
0.0000000e+00 3.0000000e+00 5.0000000e+01 
7.5000000e-01 3.0000000e+00 -2.5000000e+01 
7.5000000e-01 3.0000000e+00 -2.4500000e+01 
7.5000000e-01 3.0000000e+00 -2.4000000e+01 
7.5000000e-01 3.0000000e+00 -2.3500000e+01 
7.5000000e-01 3.0000000e+00 -2.3000000e+01 
7.5000000e-01 3.0000000e+00 -2.2500000e+01 
7.5000000e-01 3.0000000e+00 -2.2000000e+01 
7.5000000e-01 3.0000000e+00 -2.1500000e+01 
7.5000000e-01 3.0000000e+00 -2.1000000e+01 
7.5000000e-01 3.0000000e+00 -2.0500000e+01 
7.5000000e-01 3.0000000e+00 -2.0000000e+01 
7.5000000e-01 3.0000000e+00 -1.9500000e+01 
7.5000000e-01 3.0000000e+00 -1.9000000e+01 
7.5000000e-01 3.0000000e+00 -1.8500000e+01 
7.5000000e-01 3.0000000e+00 -1.8000000e+01 
7.5000000e-01 3.0000000e+00 -1.7500000e+01 
7.5000000e-01 3.0000000e+00 -1.7000000e+01 
7.5000000e-01 3.0000000e+00 -1.6500000e+01 
7.5000000e-01 3.0000000e+00 -1.6000000e+01 
7.5000000e-01 3.0000000e+00 -1.5500000e+01 
7.5000000e-01 3.0000000e+00 -1.5000000e+01 
7.5000000e-01 3.0000000e+00 -1.4500000e+01 
7.5000000e-01 3.0000000e+00 -1.4000000e+01 
7.5000000e-01 3.0000000e+00 -1.3500000e+01 
7.5000000e-01 3.0000000e+00 -1.3000000e+01 
7.5000000e-01 3.0000000e+00 -1.2500000e+01 
7.5000000e-01 3.0000000e+00 -1.2000000e+01 
7.5000000e-01 3.0000000e+00 -1.1500000e+01 
7.5000000e-01 3.0000000e+00 -1.1000000e+01 
7.5000000e-01 3.0000000e+00 -1.0500000e+01 
7.5000000e-01 3.0000000e+00 -1.0000000e+01 
7.5000000e-01 3.0000000e+00 -9.5000000e+00 
7.5000000e-01 3.0000000e+00 -9.0000000e+00 
7.5000000e-01 3.0000000e+00 -8.5000000e+00 
7.5000000e-01 3.0000000e+00 -8.0000000e+00 
7.5000000e-01 3.0000000e+00 -7.5000000e+00 
7.5000000e-01 3.0000000e+00 -7.0000000e+00 
7.5000000e-01 3.0000000e+00 -6.5000000e+00 
7.5000000e-01 3.0000000e+00 -6.0000000e+00 
7.5000000e-01 3.0000000e+00 -5.5000000e+00 
7.5000000e-01 3.0000000e+00 -5.0000000e+00 
7.5000000e-01 3.0000000e+00 -4.5000000e+00 
7.5000000e-01 3.0000000e+00 -4.0000000e+00 
7.5000000e-01 3.0000000e+00 -3.5000000e+00 
7.5000000e-01 3.0000000e+00 -3.0000000e+00 
7.5000000e-01 3.0000000e+00 -2.5000000e+00 
7.5000000e-01 3.0000000e+00 -2.0000000e+00 
7.5000000e-01 3.0000000e+00 -1.5000000e+00 
7.5000000e-01 3.0000000e+00 -1.0000000e+00 
7.5000000e-01 3.0000000e+00 -5.0000000e-01 
7.5000000e-01 3.0000000e+00 5.0000000e-01 
7.5000000e-01 3.0000000e+00 1.0000000e+00 
7.5000000e-01 3.0000000e+00 1.5000000e+00 
7.5000000e-01 3.0000000e+00 2.0000000e+00 
7.5000000e-01 3.0000000e+00 2.5000000e+00 
7.5000000e-01 3.0000000e+00 3.0000000e+00 
7.5000000e-01 3.0000000e+00 3.5000000e+00 
7.5000000e-01 3.0000000e+00 4.0000000e+00 
7.5000000e-01 3.0000000e+00 4.5000000e+00 
7.5000000e-01 3.0000000e+00 5.0000000e+00 
7.5000000e-01 3.0000000e+00 5.5000000e+00 
7.5000000e-01 3.0000000e+00 6.0000000e+00 
7.5000000e-01 3.0000000e+00 6.5000000e+00 
7.5000000e-01 3.0000000e+00 7.0000000e+00 
7.5000000e-01 3.0000000e+00 7.5000000e+00 
7.5000000e-01 3.0000000e+00 8.0000000e+00 
7.5000000e-01 3.0000000e+00 8.5000000e+00 
7.5000000e-01 3.0000000e+00 9.0000000e+00 
7.5000000e-01 3.0000000e+00 9.5000000e+00 
7.5000000e-01 3.0000000e+00 1.0000000e+01 
7.5000000e-01 3.0000000e+00 1.0500000e+01 
7.5000000e-01 3.0000000e+00 1.1000000e+01 
7.5000000e-01 3.0000000e+00 1.1500000e+01 
7.5000000e-01 3.0000000e+00 1.2000000e+01 
7.5000000e-01 3.0000000e+00 1.2500000e+01 
7.5000000e-01 3.0000000e+00 1.3000000e+01 
7.5000000e-01 3.0000000e+00 1.3500000e+01 
7.5000000e-01 3.0000000e+00 1.4000000e+01 
7.5000000e-01 3.0000000e+00 1.4500000e+01 
7.5000000e-01 3.0000000e+00 1.5000000e+01 
7.5000000e-01 3.0000000e+00 1.5500000e+01 
7.5000000e-01 3.0000000e+00 1.6000000e+01 
7.5000000e-01 3.0000000e+00 1.6500000e+01 
7.5000000e-01 3.0000000e+00 1.7000000e+01 
7.5000000e-01 3.0000000e+00 1.7500000e+01 
7.5000000e-01 3.0000000e+00 1.8000000e+01 
7.5000000e-01 3.0000000e+00 1.8500000e+01 
7.5000000e-01 3.0000000e+00 1.9000000e+01 
7.5000000e-01 3.0000000e+00 1.9500000e+01 
7.5000000e-01 3.0000000e+00 2.0000000e+01 
7.5000000e-01 3.0000000e+00 2.0500000e+01 
7.5000000e-01 3.0000000e+00 2.1000000e+01 
7.5000000e-01 3.0000000e+00 2.1500000e+01 
7.5000000e-01 3.0000000e+00 2.2000000e+01 
7.5000000e-01 3.0000000e+00 2.2500000e+01 
7.5000000e-01 3.0000000e+00 2.3000000e+01 
7.5000000e-01 3.0000000e+00 2.3500000e+01 
7.5000000e-01 3.0000000e+00 2.4000000e+01 
7.5000000e-01 3.0000000e+00 2.4500000e+01 
7.5000000e-01 3.0000000e+00 2.5000000e+01 
7.5000000e-01 3.0000000e+00 2.5500000e+01 
7.5000000e-01 3.0000000e+00 2.6000000e+01 
7.5000000e-01 3.0000000e+00 2.6500000e+01 
7.5000000e-01 3.0000000e+00 2.7000000e+01 
7.5000000e-01 3.0000000e+00 2.7500000e+01 
7.5000000e-01 3.0000000e+00 2.8000000e+01 
7.5000000e-01 3.0000000e+00 2.8500000e+01 
7.5000000e-01 3.0000000e+00 2.9000000e+01 
7.5000000e-01 3.0000000e+00 2.9500000e+01 
7.5000000e-01 3.0000000e+00 3.0000000e+01 
7.5000000e-01 3.0000000e+00 3.0500000e+01 
7.5000000e-01 3.0000000e+00 3.1000000e+01 
7.5000000e-01 3.0000000e+00 3.1500000e+01 
7.5000000e-01 3.0000000e+00 3.2000000e+01 
7.5000000e-01 3.0000000e+00 3.2500000e+01 
7.5000000e-01 3.0000000e+00 3.3000000e+01 
7.5000000e-01 3.0000000e+00 3.3500000e+01 
7.5000000e-01 3.0000000e+00 3.4000000e+01 
7.5000000e-01 3.0000000e+00 3.4500000e+01 
7.5000000e-01 3.0000000e+00 3.5000000e+01 
7.5000000e-01 3.0000000e+00 3.5500000e+01 
7.5000000e-01 3.0000000e+00 3.6000000e+01 
7.5000000e-01 3.0000000e+00 3.6500000e+01 
7.5000000e-01 3.0000000e+00 3.7000000e+01 
7.5000000e-01 3.0000000e+00 3.7500000e+01 
7.5000000e-01 3.0000000e+00 3.8000000e+01 
7.5000000e-01 3.0000000e+00 3.8500000e+01 
7.5000000e-01 3.0000000e+00 3.9000000e+01 
7.5000000e-01 3.0000000e+00 3.9500000e+01 
7.5000000e-01 3.0000000e+00 4.0000000e+01 
7.5000000e-01 3.0000000e+00 4.0500000e+01 
7.5000000e-01 3.0000000e+00 4.1000000e+01 
7.5000000e-01 3.0000000e+00 4.1500000e+01 
7.5000000e-01 3.0000000e+00 4.2000000e+01 
7.5000000e-01 3.0000000e+00 4.2500000e+01 
7.5000000e-01 3.0000000e+00 4.3000000e+01 
7.5000000e-01 3.0000000e+00 4.3500000e+01 
7.5000000e-01 3.0000000e+00 4.4000000e+01 
7.5000000e-01 3.0000000e+00 4.4500000e+01 
7.5000000e-01 3.0000000e+00 4.5000000e+01 
7.5000000e-01 3.0000000e+00 4.5500000e+01 
7.5000000e-01 3.0000000e+00 4.6000000e+01 
7.5000000e-01 3.0000000e+00 4.6500000e+01 
7.5000000e-01 3.0000000e+00 4.7000000e+01 
7.5000000e-01 3.0000000e+00 4.7500000e+01 
7.5000000e-01 3.0000000e+00 4.8000000e+01 
7.5000000e-01 3.0000000e+00 4.8500000e+01 
7.5000000e-01 3.0000000e+00 4.9000000e+01 
7.5000000e-01 3.0000000e+00 4.9500000e+01 
7.5000000e-01 3.0000000e+00 5.0500000e+01 
7.5000000e-01 3.0000000e+00 5.1000000e+01 
7.5000000e-01 3.0000000e+00 5.1500000e+01 
7.5000000e-01 3.0000000e+00 5.2000000e+01 
7.5000000e-01 3.0000000e+00 5.2500000e+01 
7.5000000e-01 3.0000000e+00 5.3000000e+01 
7.5000000e-01 3.0000000e+00 5.3500000e+01 
7.5000000e-01 3.0000000e+00 5.4000000e+01 
7.5000000e-01 3.0000000e+00 5.4500000e+01 
7.5000000e-01 3.0000000e+00 5.5000000e+01 
7.5000000e-01 3.0000000e+00 5.5500000e+01 
7.5000000e-01 3.0000000e+00 5.6000000e+01 
7.5000000e-01 3.0000000e+00 5.6500000e+01 
7.5000000e-01 3.0000000e+00 5.7000000e+01 
7.5000000e-01 3.0000000e+00 5.7500000e+01 
7.5000000e-01 3.0000000e+00 5.8000000e+01 
7.5000000e-01 3.0000000e+00 5.8500000e+01 
7.5000000e-01 3.0000000e+00 5.9000000e+01 
7.5000000e-01 3.0000000e+00 5.9500000e+01 
7.5000000e-01 3.0000000e+00 6.0000000e+01 
7.5000000e-01 3.0000000e+00 6.0500000e+01 
7.5000000e-01 3.0000000e+00 6.1000000e+01 
7.5000000e-01 3.0000000e+00 6.1500000e+01 
7.5000000e-01 3.0000000e+00 6.2000000e+01 
7.5000000e-01 3.0000000e+00 6.2500000e+01 
7.5000000e-01 3.0000000e+00 6.3000000e+01 
7.5000000e-01 3.0000000e+00 6.3500000e+01 
7.5000000e-01 3.0000000e+00 6.4000000e+01 
7.5000000e-01 3.0000000e+00 6.4500000e+01 
7.5000000e-01 3.0000000e+00 6.5000000e+01 
7.5000000e-01 3.0000000e+00 6.5500000e+01 
7.5000000e-01 3.0000000e+00 6.6000000e+01 
7.5000000e-01 3.0000000e+00 6.6500000e+01 
7.5000000e-01 3.0000000e+00 6.7000000e+01 
7.5000000e-01 3.0000000e+00 6.7500000e+01 
7.5000000e-01 3.0000000e+00 6.8000000e+01 
7.5000000e-01 3.0000000e+00 6.8500000e+01 
7.5000000e-01 3.0000000e+00 6.9000000e+01 
7.5000000e-01 3.0000000e+00 6.9500000e+01 
7.5000000e-01 3.0250001e+00 -2.5000000e+01 
7.5000000e-01 3.0250001e+00 -2.4500000e+01 
7.5000000e-01 3.0250001e+00 -2.4000000e+01 
7.5000000e-01 3.0250001e+00 -2.3500000e+01 
7.5000000e-01 3.0250001e+00 -2.3000000e+01 
7.5000000e-01 3.0250001e+00 -2.2500000e+01 
7.5000000e-01 3.0250001e+00 -2.2000000e+01 
7.5000000e-01 3.0250001e+00 -2.1500000e+01 
7.5000000e-01 3.0250001e+00 -2.1000000e+01 
7.5000000e-01 3.0250001e+00 -2.0500000e+01 
7.5000000e-01 3.0250001e+00 -2.0000000e+01 
7.5000000e-01 3.0250001e+00 -1.9500000e+01 
7.5000000e-01 3.0250001e+00 -1.9000000e+01 
7.5000000e-01 3.0250001e+00 -1.8500000e+01 
7.5000000e-01 3.0250001e+00 -1.8000000e+01 
7.5000000e-01 3.0250001e+00 -1.7500000e+01 
7.5000000e-01 3.0250001e+00 -1.7000000e+01 
7.5000000e-01 3.0250001e+00 -1.6500000e+01 
7.5000000e-01 3.0250001e+00 -1.6000000e+01 
7.5000000e-01 3.0250001e+00 -1.5500000e+01 
[...]
POINT_DATA 2186
FIELD FieldData 3
DISPLACEMENT 3 2186  float
0.0000000e+00 0.0000000e+00 0.0000000e+00 
0.0000000e+00 0.0000000e+00 0.0000000e+00 
0.0000000e+00 0.0000000e+00 0.0000000e+00 
0.0000000e+00 0.0000000e+00 0.0000000e+00 
2.1226435e-07 -5.1075295e-07 -2.1923042e-07 
-4.5722051e-15 -7.3569372e-14 -9.1342593e-15 
0.0000000e+00 -1.7275497e-05 0.0000000e+00 
0.0000000e+00 -1.3102385e-12 0.0000000e+00 
-7.1073464e-07 -9.7321788e-07 5.2755803e-07 
6.5813829e-15 -5.4957808e-14 6.0288514e-15 
1.5705959e-06 1.7243713e-06 3.6500762e-06 
2.0578735e-14 -5.1125808e-13 -6.4985011e-14 
0.0000000e+00 -5.1843626e-06 0.0000000e+00 
0.0000000e+00 8.1689152e-12 0.0000000e+00 
2.6592352e-05 3.1426542e-05 -2.9256000e-05 
-4.0882459e-13 3.8804602e-12 -7.3939437e-14 
-3.8048267e-06 3.1756914e-05 -2.0711561e-06 
-2.4710612e-14 -3.5175866e-11 6.0028783e-13 
0.0000000e+00 3.4167104e-05 0.0000000e+00 
0.0000000e+00 3.4467488e-11 0.0000000e+00 
0.0000000e+00 9.6227534e-15 0.0000000e+00 
0.0000000e+00 -8.9264516e-15 0.0000000e+00 
0.0000000e+00 -4.2207269e-14 0.0000000e+00 
0.0000000e+00 7.6830123e-15 0.0000000e+00 
0.0000000e+00 2.1441560e-13 0.0000000e+00 
0.0000000e+00 1.7246283e-13 0.0000000e+00 
0.0000000e+00 -9.2103452e-13 0.0000000e+00 
0.0000000e+00 -1.8136008e-12 0.0000000e+00 
0.0000000e+00 2.6197261e-12 0.0000000e+00 
0.0000000e+00 1.1248108e-11 0.0000000e+00 
0.0000000e+00 -9.8184807e-13 0.0000000e+00 
0.0000000e+00 -5.2243279e-11 0.0000000e+00 
0.0000000e+00 -4.7457500e-11 0.0000000e+00 
0.0000000e+00 1.8015550e-10 0.0000000e+00 
0.0000000e+00 3.7971948e-10 0.0000000e+00 
0.0000000e+00 -3.6718231e-10 0.0000000e+00 
0.0000000e+00 -1.8867801e-09 0.0000000e+00 
0.0000000e+00 -4.3606935e-10 0.0000000e+00 
0.0000000e+00 6.7016610e-09 0.0000000e+00 
0.0000000e+00 8.2314653e-09 0.0000000e+00 
0.0000000e+00 -1.5607656e-08 0.0000000e+00 
0.0000000e+00 -4.3706084e-08 0.0000000e+00 
0.0000000e+00 8.1604652e-09 0.0000000e+00 
0.0000000e+00 1.4754377e-07 0.0000000e+00 
0.0000000e+00 1.2275922e-07 0.0000000e+00 
0.0000000e+00 -3.1178774e-07 0.0000000e+00 
0.0000000e+00 -6.6330790e-07 0.0000000e+00 
0.0000000e+00 1.6978073e-07 0.0000000e+00 
0.0000000e+00 1.8964784e-06 0.0000000e+00 
0.0000000e+00 1.5460531e-06 0.0000000e+00 
0.0000000e+00 -2.8661434e-06 0.0000000e+00 
0.0000000e+00 -6.5243921e-06 0.0000000e+00 
0.0000000e+00 -8.6541576e-07 0.0000000e+00 
0.0000000e+00 1.2350945e-05 0.0000000e+00 
0.0000000e+00 1.5341646e-05 0.0000000e+00 
0.0000000e+00 -5.4076481e-06 0.0000000e+00 
0.0000000e+00 -3.2844440e-05 0.0000000e+00 
0.0000000e+00 -2.9250248e-05 0.0000000e+00 
0.0000000e+00 1.6573154e-05 0.0000000e+00 
0.0000000e+00 6.2795130e-05 0.0000000e+00 
0.0000000e+00 5.3309253e-05 0.0000000e+00 
0.0000000e+00 -1.6176777e-05 0.0000000e+00 
0.0000000e+00 -8.5248779e-05 0.0000000e+00 
0.0000000e+00 -8.8739987e-05 0.0000000e+00 
0.0000000e+00 -2.1704604e-05 0.0000000e+00 
0.0000000e+00 6.0317187e-05 0.0000000e+00 
0.0000000e+00 9.7528318e-05 0.0000000e+00 
0.0000000e+00 7.5867916e-05 0.0000000e+00 
0.0000000e+00 2.9700503e-05 0.0000000e+00 
0.0000000e+00 7.1402901e-06 0.0000000e+00 
-2.4705917e-06 8.6299064e-05 5.2547994e-06 
1.3049971e-06 1.2698976e-04 -1.5177056e-05 
1.0750701e-05 1.1367570e-04 -1.6505513e-05 
1.1704950e-05 4.9127560e-05 9.4668603e-06 
2.5990761e-05 -3.3793316e-05 7.6752412e-06 
-9.0708218e-06 -1.3728498e-04 6.1190178e-05 
-3.2014908e-05 -3.3765359e-04 1.5246469e-04 
-8.2808154e-05 -7.8107591e-04 7.1424125e-05 
-1.7697665e-04 -1.5761035e-03 1.3776067e-04 
-2.0409329e-04 -2.6838752e-03 8.5264175e-05 
-2.3621719e-04 -3.8943090e-03 5.5816356e-05 
-3.2716125e-04 -4.7377818e-03 -6.2329680e-05 
-2.7043227e-04 -4.7574500e-03 2.1923595e-06 
-3.2666561e-04 -4.2667002e-03 -4.9314771e-05 
-2.6811907e-04 -4.0491414e-03 -6.8627924e-05 
-2.9125359e-04 -4.2127464e-03 -8.0805250e-05 
-2.6531229e-04 -4.3492368e-03 -1.4580523e-04 
-1.9900454e-04 -3.7052722e-03 -1.2374739e-04 
-2.6657613e-05 -2.4281314e-03 -1.7643625e-04 
-1.9195752e-05 -1.1698239e-03 -6.6327491e-05 
2.0953423e-05 -3.0970247e-04 -2.0995050e-05 
1.8021221e-05 1.3317680e-04 3.4289907e-05 
4.0060131e-06 2.6395448e-04 -1.8207222e-05 
1.7851948e-05 2.3126895e-04 1.5703177e-05 
-1.3776323e-06 1.6225228e-04 9.6074591e-06 
1.6460182e-05 1.0544922e-04 2.0645050e-05 
1.4152602e-05 6.5582746e-05 -7.5870787e-07 
4.8310199e-06 3.2731543e-05 -4.1292069e-06 
-4.1033928e-07 -5.8724464e-07 1.0397743e-07 
8.1365073e-07 -2.7310893e-05 6.5341101e-06 
-1.0958910e-06 -3.9274360e-05 -7.0185611e-06 
-1.0583763e-06 -3.7282291e-05 1.1864108e-07 
-9.6041572e-07 -2.2698892e-05 3.2774724e-07 
-8.3717350e-07 -3.7964826e-06 3.5544645e-06 
-1.1160485e-06 7.2591524e-06 1.6027961e-06 
3.0569147e-06 1.4440572e-05 -3.6720767e-08 
3.8185940e-06 2.8160524e-05 -5.7721982e-06 
-2.4044487e-06 2.9820558e-05 5.6707554e-06 
-6.7617943e-06 3.5869764e-06 -7.7521827e-06 
-5.3572498e-06 -2.0724145e-05 -1.6166024e-07 
-3.4005693e-06 3.6890804e-06 1.3321455e-05 
7.6494389e-06 8.5265201e-05 -2.7020304e-05 
1.6975506e-05 1.6221449e-04 -1.0638383e-05 
1.6571714e-05 1.3678400e-04 7.2562198e-06 
1.7531904e-05 -1.7421662e-05 6.6436492e-06 
-2.2143789e-05 -2.3841765e-04 8.5973508e-05 
-4.4623284e-05 -5.0095702e-04 1.6423142e-04 
-7.6585624e-05 -8.9989632e-04 7.5137083e-05 
-1.1435005e-04 -1.6044927e-03 1.3637211e-04 
-1.9724215e-04 -2.7158526e-03 5.8468409e-05 
-2.6342925e-04 -4.0721325e-03 4.3000902e-05 
-3.8779521e-04 -4.9887225e-03 -8.1416772e-05 
-3.4116494e-04 -4.8392825e-03 -7.6799937e-05 
-3.4874494e-04 -4.2475662e-03 -7.9951045e-05 
-2.7107928e-04 -4.0314919e-03 -7.1514587e-05 
-2.8852507e-04 -4.2507444e-03 -8.5327738e-05 
-2.8891594e-04 -4.3836343e-03 -1.9227169e-04 
-2.4781356e-04 -3.5659659e-03 -1.4152848e-04 
-8.0908241e-05 -2.2460879e-03 -2.1420822e-04 
-3.4920318e-05 -1.0147300e-03 -7.6090524e-05 
1.9042833e-05 -2.1081662e-04 -4.6459223e-05 
2.5695312e-05 1.7152964e-04 3.8883620e-05 
2.6829293e-06 2.4807409e-04 -8.7590170e-06 
1.2440472e-05 1.9194868e-04 2.0332471e-05 
2.7281890e-06 1.3763036e-04 5.5215974e-06 
2.7849237e-06 1.0872097e-04 -1.2083547e-05 
4.3733671e-06 7.7543213e-05 1.7256985e-05 
-3.6582899e-06 2.7565085e-05 -6.6660832e-06 
-1.5067005e-06 -2.9570367e-05 -3.3931001e-06 
2.4921562e-07 -6.6149027e-05 5.9541153e-06 
-1.1696769e-06 -6.0316066e-05 -4.2293200e-06 
-9.5916107e-07 -2.2550232e-05 -1.8527495e-06 
8.0833928e-07 1.8966753e-05 2.4658100e-06 
-3.3475951e-07 3.6266942e-05 9.8140509e-09 
-5.0211031e-07 1.8030683e-05 3.2524250e-07 
1.3843905e-06 -1.1356368e-05 3.4731079e-07 
-2.8323140e-07 -2.0139336e-05 -4.5724497e-07 
-2.3382796e-07 -7.2309222e-06 -8.4672074e-08 
3.3109899e-07 6.5558606e-06 1.8492555e-07 
-5.0836881e-08 7.6990427e-06 -3.8519010e-09 
-1.0905238e-07 7.5389534e-07 -1.9619506e-08 
-7.8168625e-08 -3.3797667e-06 1.9230420e-08 
1.3429591e-08 -1.7348085e-06 -1.5708634e-08 
2.2685366e-08 8.3016232e-07 -4.3239115e-09 
2.7151986e-10 9.7103180e-07 1.1434297e-08 
-4.5668309e-09 -2.8503633e-08 1.5185984e-09 
-1.0647800e-09 -3.5059412e-07 -3.9391166e-09 
7.4362494e-10 -7.8348386e-08 -1.2048269e-10 
5.4589988e-10 9.1996689e-08 8.9967456e-10 
6.7700900e-11 4.4139348e-08 -1.1860334e-10 
-1.8234908e-10 -1.7018714e-08 -1.2681066e-10 
-8.9400369e-11 -1.5778559e-08 4.3320982e-11 
4.3217093e-11 1.4356583e-09 1.4744495e-13 
2.9165274e-11 4.3909534e-09 -5.9495668e-12 
-6.4689903e-12 3.8803474e-10 9.3154946e-12 
7.6650127e-12 -1.0976945e-09 6.4061469e-12 
1.5150320e-12 -3.0857084e-10 -3.6875312e-12 
-4.7679731e-13 2.0854858e-10 -1.1678576e-13 
1.5839406e-13 1.0105944e-10 3.7272164e-14 
0.0000000e+00 -3.5423105e-11 0.0000000e+00 
0.0000000e+00 -6.3351711e-13 0.0000000e+00 
0.0000000e+00 7.8546544e-12 0.0000000e+00 
0.0000000e+00 1.8541303e-12 0.0000000e+00 
0.0000000e+00 -1.3347786e-12 0.0000000e+00 
0.0000000e+00 -6.7920474e-13 0.0000000e+00 
0.0000000e+00 1.4887620e-13 0.0000000e+00 
0.0000000e+00 1.7850416e-13 0.0000000e+00 
0.0000000e+00 7.5559557e-15 0.0000000e+00 
0.0000000e+00 -3.6502705e-14 0.0000000e+00 
0.0000000e+00 -1.1174451e-14 0.0000000e+00 
0.0000000e+00 2.7910049e-15 0.0000000e+00 
0.0000000e+00 2.2997948e-15 0.0000000e+00 
0.0000000e+00 3.8108743e-16 0.0000000e+00 
0.0000000e+00 4.2233976e-16 0.0000000e+00 
0.0000000e+00 7.0248635e-16 0.0000000e+00 
0.0000000e+00 -7.5282740e-17 0.0000000e+00 
0.0000000e+00 -4.6179908e-16 0.0000000e+00 
0.0000000e+00 -9.3658688e-16 0.0000000e+00 
0.0000000e+00 -3.0176086e-16 0.0000000e+00 
0.0000000e+00 1.0972420e-15 0.0000000e+00 
0.0000000e+00 1.2347587e-15 0.0000000e+00 
0.0000000e+00 2.5378049e-16 0.0000000e+00 
0.0000000e+00 -1.8268144e-15 0.0000000e+00 
0.0000000e+00 -1.6949165e-15 0.0000000e+00 
0.0000000e+00 5.5870547e-16 0.0000000e+00 
0.0000000e+00 2.4742336e-15 0.0000000e+00 
0.0000000e+00 9.9590809e-16 0.0000000e+00 
0.0000000e+00 -8.4567388e-16 0.0000000e+00 
0.0000000e+00 -2.2330046e-15 0.0000000e+00 
0.0000000e+00 -9.3332792e-16 0.0000000e+00 
0.0000000e+00 1.0013025e-15 0.0000000e+00 
0.0000000e+00 2.3971458e-15 0.0000000e+00 
0.0000000e+00 4.5380743e-16 0.0000000e+00 
0.0000000e+00 -1.7434027e-15 0.0000000e+00 
0.0000000e+00 -1.7935038e-15 0.0000000e+00 
0.0000000e+00 4.6499621e-16 0.0000000e+00 
0.0000000e+00 1.2743100e-15 0.0000000e+00 
0.0000000e+00 3.7908255e-16 0.0000000e+00 
0.0000000e+00 9.9452129e-15 0.0000000e+00 
0.0000000e+00 -1.0441847e-14 0.0000000e+00 
0.0000000e+00 -4.4076701e-14 0.0000000e+00 
0.0000000e+00 1.6042604e-14 0.0000000e+00 
0.0000000e+00 2.3427069e-13 0.0000000e+00 
0.0000000e+00 1.4510261e-13 0.0000000e+00 
0.0000000e+00 -1.0458787e-12 0.0000000e+00 
0.0000000e+00 -1.7999902e-12 0.0000000e+00 
0.0000000e+00 3.2238949e-12 0.0000000e+00 
0.0000000e+00 1.1735521e-11 0.0000000e+00 
0.0000000e+00 -3.2749081e-12 0.0000000e+00 
0.0000000e+00 -5.6448939e-11 0.0000000e+00 
0.0000000e+00 -4.1334991e-11 0.0000000e+00 
0.0000000e+00 2.0319220e-10 0.0000000e+00 
0.0000000e+00 3.7506376e-10 0.0000000e+00 
0.0000000e+00 -4.6246207e-10 0.0000000e+00 
0.0000000e+00 -1.9519191e-09 0.0000000e+00 
0.0000000e+00 -1.3769509e-10 0.0000000e+00 
0.0000000e+00 7.1939690e-09 0.0000000e+00 
0.0000000e+00 7.6144895e-09 0.0000000e+00 
0.0000000e+00 -1.7791788e-08 0.0000000e+00 
0.0000000e+00 -4.3567379e-08 0.0000000e+00 
0.0000000e+00 1.5093427e-08 0.0000000e+00 
0.0000000e+00 1.5300492e-07 0.0000000e+00 
0.0000000e+00 1.0745126e-07 0.0000000e+00 
0.0000000e+00 -3.3975394e-07 0.0000000e+00 
0.0000000e+00 -6.4670564e-07 0.0000000e+00 
0.0000000e+00 2.5392620e-07 0.0000000e+00 
0.0000000e+00 1.9282229e-06 0.0000000e+00 
0.0000000e+00 1.3824406e-06 0.0000000e+00 
0.0000000e+00 -3.0741724e-06 0.0000000e+00 
0.0000000e+00 -6.3709595e-06 0.0000000e+00 
0.0000000e+00 -3.3332176e-07 0.0000000e+00 
0.0000000e+00 1.2538630e-05 0.0000000e+00 
0.0000000e+00 1.4600802e-05 0.0000000e+00 
0.0000000e+00 -6.3696502e-06 0.0000000e+00 
0.0000000e+00 -3.2595395e-05 0.0000000e+00 
0.0000000e+00 -2.7661083e-05 0.0000000e+00 
0.0000000e+00 1.7700369e-05 0.0000000e+00 
0.0000000e+00 6.1852894e-05 0.0000000e+00 
0.0000000e+00 5.1122537e-05 0.0000000e+00 
0.0000000e+00 -1.7166765e-05 0.0000000e+00 
0.0000000e+00 -8.3938823e-05 0.0000000e+00 
0.0000000e+00 -8.6610758e-05 0.0000000e+00 
0.0000000e+00 -2.0921161e-05 0.0000000e+00 
0.0000000e+00 5.9262176e-05 0.0000000e+00 
0.0000000e+00 9.5902069e-05 0.0000000e+00 
0.0000000e+00 7.5103977e-05 0.0000000e+00 
0.0000000e+00 3.0246738e-05 0.0000000e+00 
0.0000000e+00 8.4704370e-06 0.0000000e+00 
0.0000000e+00 3.2921947e-05 0.0000000e+00 
0.0000000e+00 8.6743879e-05 0.0000000e+00 
0.0000000e+00 1.2571288e-04 0.0000000e+00 
0.0000000e+00 1.1227281e-04 0.0000000e+00 
0.0000000e+00 4.9830309e-05 0.0000000e+00 
0.0000000e+00 -3.1589276e-05 0.0000000e+00 
0.0000000e+00 -1.3446297e-04 0.0000000e+00 
0.0000000e+00 -3.3765408e-04 0.0000000e+00 
0.0000000e+00 -7.8530447e-04 0.0000000e+00 
0.0000000e+00 -1.5829268e-03 0.0000000e+00 
0.0000000e+00 -2.6948315e-03 0.0000000e+00 
0.0000000e+00 -3.9052363e-03 0.0000000e+00 
0.0000000e+00 -4.7623883e-03 0.0000000e+00 
0.0000000e+00 -4.7856718e-03 0.0000000e+00 
0.0000000e+00 -4.2992723e-03 0.0000000e+00 
0.0000000e+00 -4.0667751e-03 0.0000000e+00 
0.0000000e+00 -4.2368523e-03 0.0000000e+00 
0.0000000e+00 -4.3696421e-03 0.0000000e+00 
0.0000000e+00 -3.7334533e-03 0.0000000e+00 
0.0000000e+00 -2.4455448e-03 0.0000000e+00 
0.0000000e+00 -1.1816173e-03 0.0000000e+00 
0.0000000e+00 -3.1339293e-04 0.0000000e+00 
0.0000000e+00 1.3203599e-04 0.0000000e+00 
0.0000000e+00 2.6500018e-04 0.0000000e+00 
0.0000000e+00 2.3454957e-04 0.0000000e+00 
0.0000000e+00 1.6391119e-04 0.0000000e+00 
0.0000000e+00 1.0557412e-04 0.0000000e+00 
0.0000000e+00 6.4941785e-05 0.0000000e+00 
0.0000000e+00 3.2104326e-05 0.0000000e+00 
0.0000000e+00 4.8019793e-08 0.0000000e+00 
0.0000000e+00 -2.6124355e-05 0.0000000e+00 
0.0000000e+00 -3.9351955e-05 0.0000000e+00 
0.0000000e+00 -3.8038153e-05 0.0000000e+00 
0.0000000e+00 -2.3245379e-05 0.0000000e+00 
0.0000000e+00 -4.2211391e-06 0.0000000e+00 
0.0000000e+00 7.7333671e-06 0.0000000e+00 
0.0000000e+00 1.6101270e-05 0.0000000e+00 
0.0000000e+00 2.8103375e-05 0.0000000e+00 
0.0000000e+00 2.7766824e-05 0.0000000e+00 
0.0000000e+00 2.3385146e-06 0.0000000e+00 
0.0000000e+00 -1.9840458e-05 0.0000000e+00 
0.0000000e+00 6.6118578e-06 0.0000000e+00 
0.0000000e+00 8.7553584e-05 0.0000000e+00 
0.0000000e+00 1.6004848e-04 0.0000000e+00 
0.0000000e+00 1.3316023e-04 0.0000000e+00 
0.0000000e+00 -1.7035389e-05 0.0000000e+00 
0.0000000e+00 -2.3484019e-04 0.0000000e+00 
0.0000000e+00 -4.9765804e-04 0.0000000e+00 
0.0000000e+00 -9.0028427e-04 0.0000000e+00 
0.0000000e+00 -1.6127180e-03 0.0000000e+00 
0.0000000e+00 -2.7361477e-03 0.0000000e+00 
0.0000000e+00 -4.0880120e-03 0.0000000e+00 
0.0000000e+00 -5.0127809e-03 0.0000000e+00 
0.0000000e+00 -4.8602335e-03 0.0000000e+00 
0.0000000e+00 -4.2769746e-03 0.0000000e+00 
0.0000000e+00 -4.0521100e-03 0.0000000e+00 
0.0000000e+00 -4.2807697e-03 0.0000000e+00 
0.0000000e+00 -4.4048242e-03 0.0000000e+00 
0.0000000e+00 -3.5905496e-03 0.0000000e+00 
0.0000000e+00 -2.2577115e-03 0.0000000e+00 
0.0000000e+00 -1.0275234e-03 0.0000000e+00 
0.0000000e+00 -2.1422937e-04 0.0000000e+00 
0.0000000e+00 1.7071923e-04 0.0000000e+00 
0.0000000e+00 2.5009856e-04 0.0000000e+00 
0.0000000e+00 1.9593844e-04 0.0000000e+00 
0.0000000e+00 1.3898418e-04 0.0000000e+00 
0.0000000e+00 1.0784037e-04 0.0000000e+00 
0.0000000e+00 7.6634788e-05 0.0000000e+00 
0.0000000e+00 2.7457514e-05 0.0000000e+00 
0.0000000e+00 -2.9096125e-05 0.0000000e+00 
0.0000000e+00 -6.4931141e-05 0.0000000e+00 
0.0000000e+00 -5.9951963e-05 0.0000000e+00 
0.0000000e+00 -2.3057723e-05 0.0000000e+00 
0.0000000e+00 1.8196723e-05 0.0000000e+00 
0.0000000e+00 3.5278274e-05 0.0000000e+00 
0.0000000e+00 1.8156548e-05 0.0000000e+00 
0.0000000e+00 -1.0140686e-05 0.0000000e+00 
0.0000000e+00 -1.9644711e-05 0.0000000e+00 
0.0000000e+00 -7.8091844e-06 0.0000000e+00 
0.0000000e+00 5.9756708e-06 0.0000000e+00 
0.0000000e+00 7.7288632e-06 0.0000000e+00 
0.0000000e+00 1.0937812e-06 0.0000000e+00 
0.0000000e+00 -3.2274415e-06 0.0000000e+00 
0.0000000e+00 -1.8580793e-06 0.0000000e+00 
0.0000000e+00 7.0589135e-07 0.0000000e+00 
0.0000000e+00 9.9430554e-07 0.0000000e+00 
0.0000000e+00 3.2912190e-08 0.0000000e+00 
0.0000000e+00 -3.4724772e-07 0.0000000e+00 
0.0000000e+00 -1.0075951e-07 0.0000000e+00 
0.0000000e+00 8.6921041e-08 0.0000000e+00 
0.0000000e+00 5.0595467e-08 0.0000000e+00 
0.0000000e+00 -1.4441016e-08 0.0000000e+00 
0.0000000e+00 -1.7242691e-08 0.0000000e+00 
0.0000000e+00 4.9504145e-10 0.0000000e+00 
0.0000000e+00 4.6299546e-09 0.0000000e+00 
0.0000000e+00 6.6690659e-10 0.0000000e+00 
0.0000000e+00 -1.1080672e-09 0.0000000e+00 
0.0000000e+00 -3.8197784e-10 0.0000000e+00 
0.0000000e+00 1.9876009e-10 0.0000000e+00 
0.0000000e+00 1.1855884e-10 0.0000000e+00 
0.0000000e+00 -3.1027264e-11 0.0000000e+00 
0.0000000e+00 -3.8113131e-11 0.0000000e+00 
0.0000000e+00 -2.1681639e-12 0.0000000e+00 
0.0000000e+00 8.1570584e-12 0.0000000e+00 
0.0000000e+00 2.2767946e-12 0.0000000e+00 
0.0000000e+00 -1.3159481e-12 0.0000000e+00 
0.0000000e+00 -7.6990351e-13 0.0000000e+00 
0.0000000e+00 1.2749025e-13 0.0000000e+00 
0.0000000e+00 1.9316828e-13 0.0000000e+00 
0.0000000e+00 1.4913638e-14 0.0000000e+00 
0.0000000e+00 -3.7458077e-14 0.0000000e+00 
0.0000000e+00 -1.3278356e-14 0.0000000e+00 
0.0000000e+00 2.6675179e-15 0.0000000e+00 
0.0000000e+00 2.5168434e-15 0.0000000e+00 
0.0000000e+00 5.7214688e-16 0.0000000e+00 
0.0000000e+00 4.7230965e-16 0.0000000e+00 
0.0000000e+00 5.5258095e-16 0.0000000e+00 
0.0000000e+00 6.5238431e-17 0.0000000e+00 
0.0000000e+00 -7.3339686e-16 0.0000000e+00 
0.0000000e+00 -8.0634969e-16 0.0000000e+00 
0.0000000e+00 -5.4191457e-17 0.0000000e+00 
0.0000000e+00 9.6024155e-16 0.0000000e+00 
0.0000000e+00 1.1456473e-15 0.0000000e+00 
0.0000000e+00 -3.5121331e-17 0.0000000e+00 
0.0000000e+00 -1.4210928e-15 0.0000000e+00 
0.0000000e+00 -1.5113411e-15 0.0000000e+00 
0.0000000e+00 3.3239643e-16 0.0000000e+00 
0.0000000e+00 2.0365838e-15 0.0000000e+00 
0.0000000e+00 1.5878850e-15 0.0000000e+00 
0.0000000e+00 -9.9013249e-16 0.0000000e+00 
0.0000000e+00 -2.3568406e-15 0.0000000e+00 
0.0000000e+00 -1.0431318e-15 0.0000000e+00 
0.0000000e+00 1.5362013e-15 0.0000000e+00 
0.0000000e+00 2.0088246e-15 0.0000000e+00 
0.0000000e+00 2.3332150e-16 0.0000000e+00 
0.0000000e+00 -1.6189682e-15 0.0000000e+00 
0.0000000e+00 -1.3041599e-15 0.0000000e+00 
0.0000000e+00 1.6684474e-16 0.0000000e+00 
0.0000000e+00 8.6293022e-16 0.0000000e+00 
0.0000000e+00 7.1467272e-16 0.0000000e+00 
0.0000000e+00 0.0000000e+00 0.0000000e+00 
0.0000000e+00 0.0000000e+00 0.0000000e+00 
0.0000000e+00 0.0000000e+00 0.0000000e+00 
0.0000000e+00 0.0000000e+00 0.0000000e+00 
0.0000000e+00 0.0000000e+00 0.0000000e+00 
0.0000000e+00 0.0000000e+00 0.0000000e+00 
0.0000000e+00 0.0000000e+00 0.0000000e+00 
0.0000000e+00 0.0000000e+00 0.0000000e+00 
0.0000000e+00 0.0000000e+00 0.0000000e+00 
0.0000000e+00 0.0000000e+00 0.0000000e+00 
0.0000000e+00 0.0000000e+00 0.0000000e+00 
0.0000000e+00 0.0000000e+00 0.0000000e+00 
0.0000000e+00 0.0000000e+00 0.0000000e+00 
0.0000000e+00 0.0000000e+00 0.0000000e+00 
0.0000000e+00 0.0000000e+00 0.0000000e+00 
0.0000000e+00 0.0000000e+00 0.0000000e+00 
0.0000000e+00 0.0000000e+00 0.0000000e+00 
0.0000000e+00 0.0000000e+00 0.0000000e+00 
0.0000000e+00 0.0000000e+00 0.0000000e+00 
0.0000000e+00 0.0000000e+00 0.0000000e+00 
0.0000000e+00 0.0000000e+00 0.0000000e+00 
0.0000000e+00 0.0000000e+00 0.0000000e+00 
0.0000000e+00 0.0000000e+00 0.0000000e+00 
0.0000000e+00 0.0000000e+00 0.0000000e+00 
0.0000000e+00 0.0000000e+00 0.0000000e+00 
0.0000000e+00 0.0000000e+00 0.0000000e+00 
0.0000000e+00 0.0000000e+00 0.0000000e+00 
0.0000000e+00 0.0000000e+00 0.0000000e+00 
0.0000000e+00 0.0000000e+00 0.0000000e+00 
0.0000000e+00 0.0000000e+00 0.0000000e+00 
0.0000000e+00 0.0000000e+00 0.0000000e+00 
0.0000000e+00 0.0000000e+00 0.0000000e+00 
0.0000000e+00 0.0000000e+00 0.0000000e+00 
0.0000000e+00 0.0000000e+00 0.0000000e+00 
0.0000000e+00 0.0000000e+00 0.0000000e+00 
0.0000000e+00 0.0000000e+00 0.0000000e+00 
0.0000000e+00 0.0000000e+00 0.0000000e+00 
0.0000000e+00 0.0000000e+00 0.0000000e+00 
0.0000000e+00 0.0000000e+00 0.0000000e+00 
0.0000000e+00 0.0000000e+00 0.0000000e+00 
0.0000000e+00 0.0000000e+00 0.0000000e+00 
0.0000000e+00 0.0000000e+00 0.0000000e+00 
0.0000000e+00 0.0000000e+00 0.0000000e+00 
0.0000000e+00 0.0000000e+00 0.0000000e+00 
0.0000000e+00 0.0000000e+00 0.0000000e+00 
0.0000000e+00 0.0000000e+00 0.0000000e+00 
0.0000000e+00 0.0000000e+00 0.0000000e+00 
0.0000000e+00 0.0000000e+00 0.0000000e+00 
0.0000000e+00 0.0000000e+00 0.0000000e+00 
0.0000000e+00 0.0000000e+00 0.0000000e+00 
0.0000000e+00 0.0000000e+00 0.0000000e+00 
0.0000000e+00 0.0000000e+00 0.0000000e+00 
0.0000000e+00 0.0000000e+00 0.0000000e+00 
0.0000000e+00 0.0000000e+00 0.0000000e+00 
0.0000000e+00 0.0000000e+00 0.0000000e+00 
0.0000000e+00 0.0000000e+00 0.0000000e+00 
0.0000000e+00 0.0000000e+00 0.0000000e+00 
0.0000000e+00 0.0000000e+00 0.0000000e+00 