# vtk DataFile Version 4.0
vtk output
ASCII
DATASET UNSTRUCTURED_GRID
POINTS 2186 float
0.0000000e+00 0.0000000e+00 0.0000000e+00 
0.0000000e+00 0.0000000e+00 5.0000000e+01 
5.0000000e+00 0.0000000e+00 0.0000000e+00 
5.0000000e+00 0.0000000e+00 5.0000000e+01 
5.0000000e+00 1.0000000e+00 0.0000000e+00 
5.0000000e+00 1.0000000e+00 5.0000000e+01 
0.0000000e+00 1.0000000e+00 0.0000000e+00 
0.0000000e+00 1.0000000e+00 5.0000000e+01 
5.0000000e+00 2.0000000e+00 0.0000000e+00 
5.0000000e+00 2.0000000e+00 5.0000000e+01 
3.0000000e+00 2.0000000e+00 0.0000000e+00 
3.0000000e+00 2.0000000e+00 5.0000000e+01 
0.0000000e+00 2.0000000e+00 0.0000000e+00 
0.0000000e+00 2.0000000e+00 5.0000000e+01 
1.5000000e+00 3.0000000e+00 0.0000000e+00 
1.5000000e+00 3.0000000e+00 5.0000000e+01 
7.5000000e-01 3.0000000e+00 0.0000000e+00 
7.5000000e-01 3.0000000e+00 5.0000000e+01 
0.0000000e+00 3.0000000e+00 0.0000000e+00 
0.0000000e+00 3.0000000e+00 5.0000000e+01 
7.5000000e-01 3.0000000e+00 -2.5000000e+01 
7.5000000e-01 3.0000000e+00 -2.4500000e+01 
7.5000000e-01 3.0000000e+00 -2.4000000e+01 
7.5000000e-01 3.0000000e+00 -2.3500000e+01 
7.5000000e-01 3.0000000e+00 -2.3000000e+01 
7.5000000e-01 3.0000000e+00 -2.2500000e+01 
7.5000000e-01 3.0000000e+00 -2.2000000e+01 
7.5000000e-01 3.0000000e+00 -2.1500000e+01 
7.5000000e-01 3.0000000e+00 -2.1000000e+01 
7.5000000e-01 3.0000000e+00 -2.0500000e+01 
7.5000000e-01 3.0000000e+00 -2.0000000e+01 
7.5000000e-01 3.0000000e+00 -1.9500000e+01 
7.5000000e-01 3.0000000e+00 -1.9000000e+01 
7.5000000e-01 3.0000000e+00 -1.8500000e+01 
7.5000000e-01 3.0000000e+00 -1.8000000e+01 
7.5000000e-01 3.0000000e+00 -1.7500000e+01 
7.5000000e-01 3.0000000e+00 -1.7000000e+01 
7.5000000e-01 3.0000000e+00 -1.6500000e+01 
7.5000000e-01 3.0000000e+00 -1.6000000e+01 
7.5000000e-01 3.0000000e+00 -1.5500000e+01 
7.5000000e-01 3.0000000e+00 -1.5000000e+01 
7.5000000e-01 3.0000000e+00 -1.4500000e+01 
7.5000000e-01 3.0000000e+00 -1.4000000e+01 
7.5000000e-01 3.0000000e+00 -1.3500000e+01 
7.5000000e-01 3.0000000e+00 -1.3000000e+01 
7.5000000e-01 3.0000000e+00 -1.2500000e+01 
7.5000000e-01 3.0000000e+00 -1.2000000e+01 
7.5000000e-01 3.0000000e+00 -1.1500000e+01 
7.5000000e-01 3.0000000e+00 -1.1000000e+01 
7.5000000e-01 3.0000000e+00 -1.0500000e+01 
7.5000000e-01 3.0000000e+00 -1.0000000e+01 
7.5000000e-01 3.0000000e+00 -9.5000000e+00 
7.5000000e-01 3.0000000e+00 -9.0000000e+00 
7.5000000e-01 3.0000000e+00 -8.5000000e+00 
7.5000000e-01 3.0000000e+00 -8.0000000e+00 
7.5000000e-01 3.0000000e+00 -7.5000000e+00 
7.5000000e-01 3.0000000e+00 -7.0000000e+00 
7.5000000e-01 3.0000000e+00 -6.5000000e+00 
7.5000000e-01 3.0000000e+00 -6.0000000e+00 
7.5000000e-01 3.0000000e+00 -5.5000000e+00 
7.5000000e-01 3.0000000e+00 -5.0000000e+00 
7.5000000e-01 3.0000000e+00 -4.5000000e+00 
7.5000000e-01 3.0000000e+00 -4.0000000e+00 
7.5000000e-01 3.0000000e+00 -3.5000000e+00 
7.5000000e-01 3.0000000e+00 -3.0000000e+00 
7.5000000e-01 3.0000000e+00 -2.5000000e+00 
7.5000000e-01 3.0000000e+00 -2.0000000e+00 
7.5000000e-01 3.0000000e+00 -1.5000000e+00 
7.5000000e-01 3.0000000e+00 -1.0000000e+00 
7.5000000e-01 3.0000000e+00 -5.0000000e-01 
7.5000000e-01 3.0000000e+00 5.0000000e-01 
7.5000000e-01 3.0000000e+00 1.0000000e+00 
7.5000000e-01 3.0000000e+00 1.5000000e+00 
7.5000000e-01 3.0000000e+00 2.0000000e+00 
7.5000000e-01 3.0000000e+00 2.5000000e+00 
7.5000000e-01 3.0000000e+00 3.0000000e+00 
7.5000000e-01 3.0000000e+00 3.5000000e+00 
7.5000000e-01 3.0000000e+00 4.0000000e+00 
7.5000000e-01 3.0000000e+00 4.5000000e+00 
7.5000000e-01 3.0000000e+00 5.0000000e+00 
7.5000000e-01 3.0000000e+00 5.5000000e+00 
7.5000000e-01 3.0000000e+00 6.0000000e+00 
7.5000000e-01 3.0000000e+00 6.5000000e+00 
7.5000000e-01 3.0000000e+00 7.0000000e+00 
7.5000000e-01 3.0000000e+00 7.5000000e+00 
7.5000000e-01 3.0000000e+00 8.0000000e+00 
7.5000000e-01 3.0000000e+00 8.5000000e+00 
7.5000000e-01 3.0000000e+00 9.0000000e+00 
7.5000000e-01 3.0000000e+00 9.5000000e+00 
7.5000000e-01 3.0000000e+00 1.0000000e+01 
7.5000000e-01 3.0000000e+00 1.0500000e+01 
7.5000000e-01 3.0000000e+00 1.1000000e+01 
7.5000000e-01 3.0000000e+00 1.1500000e+01 
7.5000000e-01 3.0000000e+00 1.2000000e+01 
7.5000000e-01 3.0000000e+00 1.2500000e+01 
7.5000000e-01 3.0000000e+00 1.3000000e+01 
7.5000000e-01 3.0000000e+00 1.3500000e+01 
7.5000000e-01 3.0000000e+00 1.4000000e+01 
7.5000000e-01 3.0000000e+00 1.4500000e+01 
7.5000000e-01 3.0000000e+00 1.5000000e+01 
7.5000000e-01 3.0000000e+00 1.5500000e+01 
7.5000000e-01 3.0000000e+00 1.6000000e+01 
7.5000000e-01 3.0000000e+00 1.6500000e+01 
7.5000000e-01 3.0000000e+00 1.7000000e+01 
7.5000000e-01 3.0000000e+00 1.7500000e+01 
7.5000000e-01 3.0000000e+00 1.8000000e+01 
7.5000000e-01 3.0000000e+00 1.8500000e+01 
7.5000000e-01 3.0000000e+00 1.9000000e+01 
7.5000000e-01 3.0000000e+00 1.9500000e+01 
7.5000000e-01 3.0000000e+00 2.0000000e+01 
7.5000000e-01 3.0000000e+00 2.0500000e+01 
7.5000000e-01 3.0000000e+00 2.1000000e+01 
7.5000000e-01 3.0000000e+00 2.1500000e+01 
7.5000000e-01 3.0000000e+00 2.2000000e+01 
7.5000000e-01 3.0000000e+00 2.2500000e+01 
7.5000000e-01 3.0000000e+00 2.3000000e+01 
7.5000000e-01 3.0000000e+00 2.3500000e+01 
7.5000000e-01 3.0000000e+00 2.4000000e+01 
7.5000000e-01 3.0000000e+00 2.4500000e+01 
7.5000000e-01 3.0000000e+00 2.5000000e+01 
7.5000000e-01 3.0000000e+00 2.5500000e+01 
7.5000000e-01 3.0000000e+00 2.6000000e+01 
7.5000000e-01 3.0000000e+00 2.6500000e+01 
7.5000000e-01 3.0000000e+00 2.7000000e+01 
7.5000000e-01 3.0000000e+00 2.7500000e+01 
7.5000000e-01 3.0000000e+00 2.8000000e+01 
7.5000000e-01 3.0000000e+00 2.8500000e+01 
7.5000000e-01 3.0000000e+00 2.9000000e+01 
7.5000000e-01 3.0000000e+00 2.9500000e+01 
7.5000000e-01 3.0000000e+00 3.0000000e+01 
7.5000000e-01 3.0000000e+00 3.0500000e+01 
7.5000000e-01 3.0000000e+00 3.1000000e+01 
7.5000000e-01 3.0000000e+00 3.1500000e+01 
7.5000000e-01 3.0000000e+00 3.2000000e+01 
7.5000000e-01 3.0000000e+00 3.2500000e+01 
7.5000000e-01 3.0000000e+00 3.3000000e+01 
7.5000000e-01 3.0000000e+00 3.3500000e+01 
7.5000000e-01 3.0000000e+00 3.4000000e+01 
7.5000000e-01 3.0000000e+00 3.4500000e+01 
7.5000000e-01 3.0000000e+00 3.5000000e+01 
7.5000000e-01 3.0000000e+00 3.5500000e+01 
7.5000000e-01 3.0000000e+00 3.6000000e+01 
7.5000000e-01 3.0000000e+00 3.6500000e+01 
7.5000000e-01 3.0000000e+00 3.7000000e+01 
7.5000000e-01 3.0000000e+00 3.7500000e+01 
7.5000000e-01 3.0000000e+00 3.8000000e+01 
7.5000000e-01 3.0000000e+00 3.8500000e+01 
7.5000000e-01 3.0000000e+00 3.9000000e+01 
7.5000000e-01 3.0000000e+00 3.9500000e+01 
7.5000000e-01 3.0000000e+00 4.0000000e+01 
7.5000000e-01 3.0000000e+00 4.0500000e+01 
7.5000000e-01 3.0000000e+00 4.1000000e+01 
7.5000000e-01 3.0000000e+00 4.1500000e+01 
7.5000000e-01 3.0000000e+00 4.2000000e+01 
7.5000000e-01 3.0000000e+00 4.2500000e+01 
7.5000000e-01 3.0000000e+00 4.3000000e+01 
7.5000000e-01 3.0000000e+00 4.3500000e+01 
7.5000000e-01 3.0000000e+00 4.4000000e+01 
7.5000000e-01 3.0000000e+00 4.4500000e+01 
7.5000000e-01 3.0000000e+00 4.5000000e+01 
7.5000000e-01 3.0000000e+00 4.5500000e+01 
7.5000000e-01 3.0000000e+00 4.6000000e+01 
7.5000000e-01 3.0000000e+00 4.6500000e+01 
7.5000000e-01 3.0000000e+00 4.7000000e+01 
7.5000000e-01 3.0000000e+00 4.7500000e+01 
7.5000000e-01 3.0000000e+00 4.8000000e+01 
7.5000000e-01 3.0000000e+00 4.8500000e+01 
7.5000000e-01 3.0000000e+00 4.9000000e+01 
7.5000000e-01 3.0000000e+00 4.9500000e+01 
7.5000000e-01 3.0000000e+00 5.0500000e+01 
7.5000000e-01 3.0000000e+00 5.1000000e+01 
7.5000000e-01 3.0000000e+00 5.1500000e+01 
7.5000000e-01 3.0000000e+00 5.2000000e+01 
7.5000000e-01 3.0000000e+00 5.2500000e+01 
7.5000000e-01 3.0000000e+00 5.3000000e+01 
7.5000000e-01 3.0000000e+00 5.3500000e+01 
7.5000000e-01 3.0000000e+00 5.4000000e+01 
7.5000000e-01 3.0000000e+00 5.4500000e+01 
7.5000000e-01 3.0000000e+00 5.5000000e+01 
7.5000000e-01 3.0000000e+00 5.5500000e+01 
7.5000000e-01 3.0000000e+00 5.6000000e+01 
7.5000000e-01 3.0000000e+00 5.6500000e+01 
7.5000000e-01 3.0000000e+00 5.7000000e+01 
7.5000000e-01 3.0000000e+00 5.7500000e+01 
7.5000000e-01 3.0000000e+00 5.8000000e+01 
7.5000000e-01 3.0000000e+00 5.8500000e+01 
7.5000000e-01 3.0000000e+00 5.9000000e+01 
7.5000000e-01 3.0000000e+00 5.9500000e+01 
7.5000000e-01 3.0000000e+00 6.0000000e+01 
7.5000000e-01 3.0000000e+00 6.0500000e+01 
7.5000000e-01 3.0000000e+00 6.1000000e+01 
7.5000000e-01 3.0000000e+00 6.1500000e+01 
7.5000000e-01 3.0000000e+00 6.2000000e+01 
7.5000000e-01 3.0000000e+00 6.2500000e+01 
7.5000000e-01 3.0000000e+00 6.3000000e+01 
7.5000000e-01 3.0000000e+00 6.3500000e+01 
7.5000000e-01 3.0000000e+00 6.4000000e+01 
7.5000000e-01 3.0000000e+00 6.4500000e+01 
7.5000000e-01 3.0000000e+00 6.5000000e+01 
7.5000000e-01 3.0000000e+00 6.5500000e+01 
7.5000000e-01 3.0000000e+00 6.6000000e+01 
7.5000000e-01 3.0000000e+00 6.6500000e+01 
7.5000000e-01 3.0000000e+00 6.7000000e+01 
7.5000000e-01 3.0000000e+00 6.7500000e+01 
7.5000000e-01 3.0000000e+00 6.8000000e+01 
7.5000000e-01 3.0000000e+00 6.8500000e+01 
7.5000000e-01 3.0000000e+00 6.9000000e+01 
7.5000000e-01 3.0000000e+00 6.9500000e+01 
7.5000000e-01 3.0250001e+00 -2.5000000e+01 
7.5000000e-01 3.0250001e+00 -2.4500000e+01 
7.5000000e-01 3.0250001e+00 -2.4000000e+01 
7.5000000e-01 3.0250001e+00 -2.3500000e+01 
7.5000000e-01 3.0250001e+00 -2.3000000e+01 
7.5000000e-01 3.0250001e+00 -2.2500000e+01 
7.5000000e-01 3.0250001e+00 -2.2000000e+01 
7.5000000e-01 3.0250001e+00 -2.1500000e+01 
7.5000000e-01 3.0250001e+00 -2.1000000e+01 
7.5000000e-01 3.0250001e+00 -2.0500000e+01 
7.5000000e-01 3.0250001e+00 -2.0000000e+01 
7.5000000e-01 3.0250001e+00 -1.9500000e+01 
7.5000000e-01 3.0250001e+00 -1.9000000e+01 
7.5000000e-01 3.0250001e+00 -1.8500000e+01 
7.5000000e-01 3.0250001e+00 -1.8000000e+01 
7.5000000e-01 3.0250001e+00 -1.7500000e+01 
7.5000000e-01 3.0250001e+00 -1.7000000e+01 
7.5000000e-01 3.0250001e+00 -1.6500000e+01 
7.5000000e-01 3.0250001e+00 -1.6000000e+01 
7.5000000e-01 3.0250001e+00 -1.5500000e+01 
[...]
POINT_DATA 2186
FIELD FieldData 3
DISPLACEMENT 3 2186  float
0.0000000e+00 0.0000000e+00 0.0000000e+00 
0.0000000e+00 0.0000000e+00 0.0000000e+00 
0.0000000e+00 0.0000000e+00 0.0000000e+00 
0.0000000e+00 0.0000000e+00 0.0000000e+00 
-9.5120635e-07 2.9492810e-06 4.4555713e-06 
4.3548854e-07 -4.2847056e-08 -1.6168443e-08 
0.0000000e+00 -1.5543019e-06 0.0000000e+00 
0.0000000e+00 1.6831071e-06 0.0000000e+00 
-4.4088220e-06 6.1093192e-06 5.4032294e-06 
6.4900183e-07 -1.0087548e-07 -5.4089941e-07 
2.2283950e-06 -2.5928400e-06 -3.1807970e-06 
-9.8867372e-07 -7.0106114e-07 -6.4068280e-07 
0.0000000e+00 5.0876256e-06 0.0000000e+00 
0.0000000e+00 2.9982532e-06 0.0000000e+00 
-2.8107795e-06 8.4834483e-06 1.2130979e-05 
1.1173779e-06 3.8462194e-06 -5.6016261e-06 
7.8466037e-06 -1.3870819e-05 1.8795095e-06 
5.0454732e-06 2.5255345e-06 -7.2391339e-07 
0.0000000e+00 1.4964399e-05 0.0000000e+00 
0.0000000e+00 -1.0108581e-06 0.0000000e+00 
0.0000000e+00 2.0621896e-05 0.0000000e+00 
0.0000000e+00 1.5900418e-05 0.0000000e+00 
0.0000000e+00 4.7550625e-06 0.0000000e+00 
0.0000000e+00 -6.9025641e-06 0.0000000e+00 
0.0000000e+00 -1.4167043e-05 0.0000000e+00 
0.0000000e+00 -1.5557602e-05 0.0000000e+00 
0.0000000e+00 -1.2786084e-05 0.0000000e+00 
0.0000000e+00 -8.4623143e-06 0.0000000e+00 
0.0000000e+00 -3.8937674e-06 0.0000000e+00 
0.0000000e+00 1.2252140e-06 0.0000000e+00 
0.0000000e+00 7.2791740e-06 0.0000000e+00 
0.0000000e+00 1.3057617e-05 0.0000000e+00 
0.0000000e+00 1.5737052e-05 0.0000000e+00 
0.0000000e+00 1.2816983e-05 0.0000000e+00 
0.0000000e+00 4.4956273e-06 0.0000000e+00 
0.0000000e+00 -5.6315394e-06 0.0000000e+00 
0.0000000e+00 -1.2475094e-05 0.0000000e+00 
0.0000000e+00 -1.2772576e-05 0.0000000e+00 
0.0000000e+00 -7.3476585e-06 0.0000000e+00 
0.0000000e+00 -5.0244000e-07 0.0000000e+00 
0.0000000e+00 3.0902763e-06 0.0000000e+00 
0.0000000e+00 1.6925526e-06 0.0000000e+00 
0.0000000e+00 -2.4622011e-06 0.0000000e+00 
0.0000000e+00 -5.1357151e-06 0.0000000e+00 
0.0000000e+00 -3.4714162e-06 0.0000000e+00 
0.0000000e+00 1.8895670e-06 0.0000000e+00 
0.0000000e+00 7.5916746e-06 0.0000000e+00 
0.0000000e+00 1.0420686e-05 0.0000000e+00 
0.0000000e+00 9.6717085e-06 0.0000000e+00 
0.0000000e+00 7.0655547e-06 0.0000000e+00 
0.0000000e+00 4.5933693e-06 0.0000000e+00 
0.0000000e+00 2.4944857e-06 0.0000000e+00 
0.0000000e+00 -7.4098443e-07 0.0000000e+00 
0.0000000e+00 -6.3977627e-06 0.0000000e+00 
0.0000000e+00 -1.3420025e-05 0.0000000e+00 
0.0000000e+00 -1.8218205e-05 0.0000000e+00 
0.0000000e+00 -1.6980355e-05 0.0000000e+00 
0.0000000e+00 -8.8823135e-06 0.0000000e+00 
0.0000000e+00 2.5299062e-06 0.0000000e+00 
0.0000000e+00 1.1285780e-05 0.0000000e+00 
0.0000000e+00 1.2997739e-05 0.0000000e+00 
0.0000000e+00 7.8933444e-06 0.0000000e+00 
0.0000000e+00 6.5084186e-07 0.0000000e+00 
0.0000000e+00 -2.7912454e-06 0.0000000e+00 
0.0000000e+00 6.5911939e-07 0.0000000e+00 
0.0000000e+00 8.9065934e-06 0.0000000e+00 
0.0000000e+00 1.5911335e-05 0.0000000e+00 
0.0000000e+00 1.5999838e-05 0.0000000e+00 
0.0000000e+00 8.0600894e-06 0.0000000e+00 
0.0000000e+00 -3.8604680e-06 0.0000000e+00 
4.8611851e-06 -1.8437007e-05 -7.1803302e-06 
1.1906424e-05 -1.8625771e-05 -8.1475482e-06 
1.3897054e-05 -1.8998069e-05 -1.0746056e-05 
1.4521752e-05 -2.3261593e-05 -1.0772073e-05 
8.4917419e-06 -2.8670655e-05 -2.0287045e-05 
3.0398799e-06 -3.0522420e-05 -1.2904648e-05 
4.4562312e-06 -2.6770273e-05 -1.0029752e-05 
9.7942457e-06 -2.0651554e-05 -1.3389724e-05 
1.0615528e-05 -2.0141331e-05 -1.7089800e-05 
3.7881680e-06 -2.9395018e-05 -1.7096158e-05 
4.4125209e-06 -4.2272393e-05 -6.5337226e-06 
2.3034133e-06 -4.5675119e-05 3.5391440e-06 
2.6109012e-06 -3.7537564e-05 1.1009295e-05 
1.3793973e-06 -2.4774805e-05 5.1030702e-06 
-2.2936531e-06 -2.0320309e-05 -1.0155572e-05 
5.1183965e-06 -3.5404177e-05 -2.0201029e-05 
1.8998015e-05 -5.6079083e-05 -2.5533120e-05 
1.5280841e-05 -4.7922334e-05 -1.3470487e-05 
3.2009953e-05 -4.5170830e-07 -2.6931257e-06 
2.0865882e-05 5.8999882e-05 5.6563903e-07 
2.8905022e-05 8.7321743e-05 1.6268377e-05 
2.3078828e-05 5.6092624e-05 3.8135080e-05 
2.8378376e-05 -2.2754788e-05 4.6588710e-05 
1.8874449e-05 -1.2862662e-04 9.0370435e-05 
-1.6820437e-05 -3.0737784e-04 1.7020218e-04 
-1.0485339e-04 -6.9221848e-04 3.0103160e-04 
-9.0565503e-05 -1.4454389e-03 3.0379946e-04 
-1.1820887e-04 -2.6192677e-03 2.0559499e-04 
-2.0717210e-04 -4.0064552e-03 2.8571745e-04 
-2.7979424e-04 -4.9541420e-03 7.5273667e-05 
-3.1289109e-04 -4.8801932e-03 1.7510441e-05 
-2.8506765e-04 -4.3918150e-03 -4.1675739e-05 
-3.1560383e-04 -4.3001929e-03 -7.7783327e-05 
-5.8897986e-04 -4.6576667e-03 -6.7022323e-05 
-2.6181256e-04 -4.7943722e-03 -2.0040738e-04 
-1.7910462e-04 -3.9806026e-03 -1.9445120e-04 
-1.0809013e-04 -2.6430991e-03 -3.3959388e-04 
-6.5269611e-05 -1.3864669e-03 -1.8953270e-04 
1.4106076e-05 -4.9624679e-04 -1.9502435e-04 
2.8312903e-05 2.3690659e-06 -8.6270134e-05 
4.7987691e-05 1.8829790e-04 -3.8058090e-05 
3.6900929e-05 1.9037738e-04 -7.0239598e-06 
3.1689411e-05 1.2898156e-04 2.0152811e-05 
2.6731765e-05 6.6709872e-05 1.9577048e-05 
2.0622358e-05 1.7897617e-05 2.6986811e-05 
1.3419110e-05 -2.2728771e-05 2.8291650e-05 
1.0752437e-05 -5.1429186e-05 2.3003287e-05 
2.4648068e-06 -5.5677261e-05 1.7621251e-05 
-4.0311029e-06 -3.7268423e-05 1.3230144e-05 
-5.0431950e-06 -2.0630254e-05 -1.0193464e-06 
2.8664042e-06 -2.5117122e-05 -1.3765180e-05 
5.3756173e-07 -4.0960931e-05 -1.6883305e-05 
1.5701372e-06 -4.8409409e-05 -1.4216449e-05 
7.7393388e-06 -3.7945563e-05 5.2906631e-07 
8.9784016e-06 -2.0621979e-05 1.0637465e-05 
9.3800381e-06 -1.3931902e-05 8.2679117e-06 
2.2636601e-05 -2.5236972e-05 3.0528056e-06 
1.1054556e-05 -4.2120100e-05 4.2697034e-06 
2.1400932e-05 -3.6670070e-05 4.4633916e-06 
1.7291766e-05 1.2915344e-05 1.6649821e-05 
2.8895458e-05 7.9643818e-05 3.7810954e-05 
2.0500105e-05 9.7601282e-05 5.9112841e-05 
2.4950130e-05 1.8118397e-05 8.0929640e-05 
1.7415912e-05 -1.7353632e-04 1.2164333e-04 
-1.9720826e-05 -4.8483297e-04 1.7494784e-04 
-6.1263439e-05 -9.5587189e-04 1.3824197e-04 
-1.1209708e-04 -1.7000851e-03 2.6231699e-04 
-1.8629516e-04 -2.8096475e-03 1.2064855e-04 
-2.5452682e-04 -4.1675521e-03 2.0133307e-04 
-2.8392122e-04 -5.0988346e-03 5.0268412e-05 
-3.1633265e-04 -4.9127005e-03 -1.8244154e-05 
-3.1872446e-04 -4.3376521e-03 -4.6577843e-05 
-3.3281944e-04 -4.1520023e-03 -6.8983602e-05 
-2.7210853e-04 -4.4547222e-03 -1.8779947e-04 
-4.0310892e-04 -4.6800617e-03 -2.7211235e-04 
-7.4071497e-05 -3.8103729e-03 -2.4324957e-04 
-1.7520985e-04 -2.4497157e-03 -3.3808552e-04 
-2.2734521e-05 -1.2150403e-03 -2.2200494e-04 
-5.2683010e-08 -3.7934157e-04 -1.9168784e-04 
2.4211571e-05 4.6914542e-05 -9.0456720e-05 
3.9175779e-05 1.8552675e-04 -2.8095299e-05 
3.0175228e-05 1.8148476e-04 1.1256167e-05 
2.0209556e-05 1.3783076e-04 3.7539445e-05 
1.7401459e-05 8.8954839e-05 3.5736106e-05 
3.5954822e-06 4.0320832e-05 4.0274030e-05 
-1.6575862e-06 1.8330252e-06 3.6756908e-05 
-1.1459347e-06 -1.2955305e-05 3.3646058e-05 
-5.5296341e-06 -7.7313261e-06 2.4834488e-05 
-1.1983543e-05 1.2979194e-06 1.5734902e-05 
-7.4265363e-06 3.5337557e-06 4.5414035e-06 
-6.9698781e-06 9.1726497e-07 -1.0417357e-05 
-6.1162559e-06 -1.3539061e-07 -1.2918525e-05 
4.9544346e-06 2.0277503e-06 -8.8979650e-06 
3.7361087e-06 3.4321176e-06 -2.1370467e-06 
-1.8694660e-06 1.2240461e-06 3.7901809e-06 
-1.6428756e-06 -1.7207810e-06 1.4927944e-06 
-5.0716976e-06 -1.6934111e-06 -4.6944979e-06 
-3.3685026e-06 1.0906675e-06 -7.5459011e-06 
6.2944810e-07 3.2780349e-06 -7.1563381e-06 
0.0000000e+00 2.3720207e-07 0.0000000e+00 
0.0000000e+00 -1.1121023e-06 0.0000000e+00 
0.0000000e+00 -7.8389331e-07 0.0000000e+00 
0.0000000e+00 -1.4454953e-07 0.0000000e+00 
0.0000000e+00 -5.1749174e-07 0.0000000e+00 
0.0000000e+00 -1.5452409e-06 0.0000000e+00 
0.0000000e+00 -1.9404281e-06 0.0000000e+00 
0.0000000e+00 -1.2833730e-06 0.0000000e+00 
0.0000000e+00 -4.2620451e-07 0.0000000e+00 
0.0000000e+00 -1.9468871e-07 0.0000000e+00 
0.0000000e+00 -3.0781510e-07 0.0000000e+00 
0.0000000e+00 7.6882614e-08 0.0000000e+00 
0.0000000e+00 1.0473112e-06 0.0000000e+00 
0.0000000e+00 1.6544410e-06 0.0000000e+00 
0.0000000e+00 1.0412219e-06 0.0000000e+00 
0.0000000e+00 -4.4628240e-07 0.0000000e+00 
0.0000000e+00 -1.5286355e-06 0.0000000e+00 
0.0000000e+00 -1.3059030e-06 0.0000000e+00 
0.0000000e+00 -1.0224619e-07 0.0000000e+00 
0.0000000e+00 1.0025103e-06 0.0000000e+00 
0.0000000e+00 1.2689460e-06 0.0000000e+00 
0.0000000e+00 7.9475359e-07 0.0000000e+00 
0.0000000e+00 8.9802136e-08 0.0000000e+00 
0.0000000e+00 -5.2582106e-07 0.0000000e+00 
0.0000000e+00 -9.8894702e-07 0.0000000e+00 
0.0000000e+00 -1.1808610e-06 0.0000000e+00 
0.0000000e+00 -8.5681160e-07 0.0000000e+00 
0.0000000e+00 2.0794941e-08 0.0000000e+00 
0.0000000e+00 1.0270176e-06 0.0000000e+00 
0.0000000e+00 1.5187796e-06 0.0000000e+00 
0.0000000e+00 1.1682803e-06 0.0000000e+00 
0.0000000e+00 2.2249338e-07 0.0000000e+00 
0.0000000e+00 -7.4021773e-07 0.0000000e+00 
0.0000000e+00 -1.2485599e-06 0.0000000e+00 
0.0000000e+00 -1.1635208e-06 0.0000000e+00 
0.0000000e+00 -6.1786824e-07 0.0000000e+00 
0.0000000e+00 1.2728991e-07 0.0000000e+00 
0.0000000e+00 7.6811710e-07 0.0000000e+00 
0.0000000e+00 1.0261506e-06 0.0000000e+00 
0.0000000e+00 2.0534020e-05 0.0000000e+00 
0.0000000e+00 1.5852185e-05 0.0000000e+00 
0.0000000e+00 4.7872622e-06 0.0000000e+00 
0.0000000e+00 -6.8172139e-06 0.0000000e+00 
0.0000000e+00 -1.4095647e-05 0.0000000e+00 
0.0000000e+00 -1.5549660e-05 0.0000000e+00 
0.0000000e+00 -1.2834710e-05 0.0000000e+00 
0.0000000e+00 -8.5155007e-06 0.0000000e+00 
0.0000000e+00 -3.9027900e-06 0.0000000e+00 
0.0000000e+00 1.2640895e-06 0.0000000e+00 
0.0000000e+00 7.3242618e-06 0.0000000e+00 
0.0000000e+00 1.3060177e-05 0.0000000e+00 
0.0000000e+00 1.5685140e-05 0.0000000e+00 
0.0000000e+00 1.2748905e-05 0.0000000e+00 
0.0000000e+00 4.4710241e-06 0.0000000e+00 
0.0000000e+00 -5.5816704e-06 0.0000000e+00 
0.0000000e+00 -1.2378697e-05 0.0000000e+00 
0.0000000e+00 -1.2699226e-05 0.0000000e+00 
0.0000000e+00 -7.3550132e-06 0.0000000e+00 
0.0000000e+00 -5.8991509e-07 0.0000000e+00 
0.0000000e+00 2.9827243e-06 0.0000000e+00 
0.0000000e+00 1.6398911e-06 0.0000000e+00 
0.0000000e+00 -2.4260876e-06 0.0000000e+00 
0.0000000e+00 -5.0435237e-06 0.0000000e+00 
0.0000000e+00 -3.3965277e-06 0.0000000e+00 
0.0000000e+00 1.8931090e-06 0.0000000e+00 
0.0000000e+00 7.5342014e-06 0.0000000e+00 
0.0000000e+00 1.0364609e-05 0.0000000e+00 
0.0000000e+00 9.6713011e-06 0.0000000e+00 
0.0000000e+00 7.1171207e-06 0.0000000e+00 
0.0000000e+00 4.6432046e-06 0.0000000e+00 
0.0000000e+00 2.4919120e-06 0.0000000e+00 
0.0000000e+00 -7.9821018e-07 0.0000000e+00 
0.0000000e+00 -6.4618821e-06 0.0000000e+00 
0.0000000e+00 -1.3431871e-05 0.0000000e+00 
0.0000000e+00 -1.8157527e-05 0.0000000e+00 
0.0000000e+00 -1.6890786e-05 0.0000000e+00 
0.0000000e+00 -8.8428806e-06 0.0000000e+00 
0.0000000e+00 2.4726978e-06 0.0000000e+00 
0.0000000e+00 1.1163669e-05 0.0000000e+00 
0.0000000e+00 1.2896265e-05 0.0000000e+00 
0.0000000e+00 7.8831272e-06 0.0000000e+00 
0.0000000e+00 7.4071778e-07 0.0000000e+00 
0.0000000e+00 -2.6532698e-06 0.0000000e+00 
0.0000000e+00 7.6132227e-07 0.0000000e+00 
0.0000000e+00 8.9030373e-06 0.0000000e+00 
0.0000000e+00 1.5801916e-05 0.0000000e+00 
0.0000000e+00 1.5872092e-05 0.0000000e+00 
0.0000000e+00 8.0208674e-06 0.0000000e+00 
0.0000000e+00 -3.7879311e-06 0.0000000e+00 
0.0000000e+00 -1.3756759e-05 0.0000000e+00 
0.0000000e+00 -1.8338136e-05 0.0000000e+00 
0.0000000e+00 -1.8645031e-05 0.0000000e+00 
0.0000000e+00 -1.9232504e-05 0.0000000e+00 
0.0000000e+00 -2.3357707e-05 0.0000000e+00 
0.0000000e+00 -2.8660048e-05 0.0000000e+00 
0.0000000e+00 -3.0422889e-05 0.0000000e+00 
0.0000000e+00 -2.6550128e-05 0.0000000e+00 
0.0000000e+00 -2.0684336e-05 0.0000000e+00 
0.0000000e+00 -2.0528774e-05 0.0000000e+00 
0.0000000e+00 -2.9778555e-05 0.0000000e+00 
0.0000000e+00 -4.2030413e-05 0.0000000e+00 
0.0000000e+00 -4.5480618e-05 0.0000000e+00 
0.0000000e+00 -3.7250600e-05 0.0000000e+00 
0.0000000e+00 -2.4583243e-05 0.0000000e+00 
0.0000000e+00 -2.1120453e-05 0.0000000e+00 
0.0000000e+00 -3.6380730e-05 0.0000000e+00 
0.0000000e+00 -5.5701617e-05 0.0000000e+00 
0.0000000e+00 -4.6845453e-05 0.0000000e+00 
0.0000000e+00 6.0538406e-07 0.0000000e+00 
0.0000000e+00 5.9206755e-05 0.0000000e+00 
0.0000000e+00 8.5835483e-05 0.0000000e+00 
0.0000000e+00 5.5125383e-05 0.0000000e+00 
0.0000000e+00 -2.1084232e-05 0.0000000e+00 
0.0000000e+00 -1.2559017e-04 0.0000000e+00 
0.0000000e+00 -3.0543492e-04 0.0000000e+00 
0.0000000e+00 -6.9463131e-04 0.0000000e+00 
0.0000000e+00 -1.4539255e-03 0.0000000e+00 
0.0000000e+00 -2.6369381e-03 0.0000000e+00 
0.0000000e+00 -4.0216600e-03 0.0000000e+00 
0.0000000e+00 -4.9802498e-03 0.0000000e+00 
0.0000000e+00 -4.9049421e-03 0.0000000e+00 
0.0000000e+00 -4.4223694e-03 0.0000000e+00 
0.0000000e+00 -4.3269126e-03 0.0000000e+00 
0.0000000e+00 -4.6765064e-03 0.0000000e+00 
0.0000000e+00 -4.8230868e-03 0.0000000e+00 
0.0000000e+00 -4.0086936e-03 0.0000000e+00 
0.0000000e+00 -2.6578056e-03 0.0000000e+00 
0.0000000e+00 -1.3953923e-03 0.0000000e+00 
0.0000000e+00 -4.9983792e-04 0.0000000e+00 
0.0000000e+00 1.0857027e-06 0.0000000e+00 
0.0000000e+00 1.8919539e-04 0.0000000e+00 
0.0000000e+00 1.9279041e-04 0.0000000e+00 
0.0000000e+00 1.3056569e-04 0.0000000e+00 
0.0000000e+00 6.7114503e-05 0.0000000e+00 
0.0000000e+00 1.7528406e-05 0.0000000e+00 
0.0000000e+00 -2.2904876e-05 0.0000000e+00 
0.0000000e+00 -5.0962801e-05 0.0000000e+00 
0.0000000e+00 -5.5086195e-05 0.0000000e+00 
0.0000000e+00 -3.7490638e-05 0.0000000e+00 
0.0000000e+00 -2.1518737e-05 0.0000000e+00 
0.0000000e+00 -2.5479763e-05 0.0000000e+00 
0.0000000e+00 -4.0818915e-05 0.0000000e+00 
0.0000000e+00 -4.7845533e-05 0.0000000e+00 
0.0000000e+00 -3.7728089e-05 0.0000000e+00 
0.0000000e+00 -2.0720641e-05 0.0000000e+00 
0.0000000e+00 -1.4361538e-05 0.0000000e+00 
0.0000000e+00 -2.6060285e-05 0.0000000e+00 
0.0000000e+00 -4.2560128e-05 0.0000000e+00 
0.0000000e+00 -3.5180994e-05 0.0000000e+00 
0.0000000e+00 1.4719485e-05 0.0000000e+00 
0.0000000e+00 7.9832113e-05 0.0000000e+00 
0.0000000e+00 9.6737334e-05 0.0000000e+00 
0.0000000e+00 1.7015234e-05 0.0000000e+00 
0.0000000e+00 -1.7332213e-04 0.0000000e+00 
0.0000000e+00 -4.8204639e-04 0.0000000e+00 
0.0000000e+00 -9.5561356e-04 0.0000000e+00 
0.0000000e+00 -1.7060323e-03 0.0000000e+00 
0.0000000e+00 -2.8292229e-03 0.0000000e+00 
0.0000000e+00 -4.1888864e-03 0.0000000e+00 
0.0000000e+00 -5.1292735e-03 0.0000000e+00 
0.0000000e+00 -4.9330452e-03 0.0000000e+00 
0.0000000e+00 -4.3618376e-03 0.0000000e+00 
0.0000000e+00 -4.1746339e-03 0.0000000e+00 
0.0000000e+00 -4.4920328e-03 0.0000000e+00 
0.0000000e+00 -4.7024265e-03 0.0000000e+00 
0.0000000e+00 -3.8331738e-03 0.0000000e+00 
0.0000000e+00 -2.4632709e-03 0.0000000e+00 
0.0000000e+00 -1.2245111e-03 0.0000000e+00 
0.0000000e+00 -3.8334768e-04 0.0000000e+00 
0.0000000e+00 4.7183876e-05 0.0000000e+00 
0.0000000e+00 1.8750232e-04 0.0000000e+00 
0.0000000e+00 1.8372190e-04 0.0000000e+00 
0.0000000e+00 1.3849785e-04 0.0000000e+00 
0.0000000e+00 8.8808898e-05 0.0000000e+00 
0.0000000e+00 4.0452964e-05 0.0000000e+00 
0.0000000e+00 2.5602294e-06 0.0000000e+00 
0.0000000e+00 -1.2689289e-05 0.0000000e+00 
0.0000000e+00 -8.1333646e-06 0.0000000e+00 
0.0000000e+00 8.8751187e-07 0.0000000e+00 
0.0000000e+00 3.5446233e-06 0.0000000e+00 
0.0000000e+00 1.1282348e-06 0.0000000e+00 
0.0000000e+00 -3.9356092e-08 0.0000000e+00 
0.0000000e+00 1.9175050e-06 0.0000000e+00 
0.0000000e+00 3.2636378e-06 0.0000000e+00 
0.0000000e+00 1.2639640e-06 0.0000000e+00 
0.0000000e+00 -1.5709176e-06 0.0000000e+00 
0.0000000e+00 -1.6328015e-06 0.0000000e+00 
0.0000000e+00 1.0155029e-06 0.0000000e+00 
0.0000000e+00 3.1661089e-06 0.0000000e+00 
0.0000000e+00 2.5341924e-06 0.0000000e+00 
0.0000000e+00 3.0648977e-07 0.0000000e+00 
0.0000000e+00 -1.0681619e-06 0.0000000e+00 
0.0000000e+00 -8.1269201e-07 0.0000000e+00 
0.0000000e+00 -1.9752987e-07 0.0000000e+00 
0.0000000e+00 -5.2422024e-07 0.0000000e+00 
0.0000000e+00 -1.5054127e-06 0.0000000e+00 
0.0000000e+00 -1.9148381e-06 0.0000000e+00 
0.0000000e+00 -1.3076365e-06 0.0000000e+00 
0.0000000e+00 -4.6660881e-07 0.0000000e+00 
0.0000000e+00 -1.9768210e-07 0.0000000e+00 
0.0000000e+00 -2.7040909e-07 0.0000000e+00 
0.0000000e+00 1.0635495e-07 0.0000000e+00 
0.0000000e+00 1.0323416e-06 0.0000000e+00 
0.0000000e+00 1.6139951e-06 0.0000000e+00 
0.0000000e+00 1.0230253e-06 0.0000000e+00 
0.0000000e+00 -4.2389411e-07 0.0000000e+00 
0.0000000e+00 -1.4943628e-06 0.0000000e+00 
0.0000000e+00 -1.2967824e-06 0.0000000e+00 
0.0000000e+00 -1.2099078e-07 0.0000000e+00 
0.0000000e+00 9.8377984e-07 0.0000000e+00 
0.0000000e+00 1.2700629e-06 0.0000000e+00 
0.0000000e+00 8.0581776e-07 0.0000000e+00 
0.0000000e+00 9.0342084e-08 0.0000000e+00 
0.0000000e+00 -5.3715155e-07 0.0000000e+00 
0.0000000e+00 -9.9408260e-07 0.0000000e+00 
0.0000000e+00 -1.1688314e-06 0.0000000e+00 
0.0000000e+00 -8.3954910e-07 0.0000000e+00 
0.0000000e+00 2.3677371e-08 0.0000000e+00 
0.0000000e+00 1.0127608e-06 0.0000000e+00 
0.0000000e+00 1.5034495e-06 0.0000000e+00 
0.0000000e+00 1.1659880e-06 0.0000000e+00 
0.0000000e+00 2.3023490e-07 0.0000000e+00 
0.0000000e+00 -7.3449144e-07 0.0000000e+00 
0.0000000e+00 -1.2487966e-06 0.0000000e+00 
0.0000000e+00 -1.1629473e-06 0.0000000e+00 
0.0000000e+00 -6.1196323e-07 0.0000000e+00 
0.0000000e+00 1.3252354e-07 0.0000000e+00 
0.0000000e+00 7.6461407e-07 0.0000000e+00 
0.0000000e+00 1.0167842e-06 0.0000000e+00 
0.0000000e+00 0.0000000e+00 0.0000000e+00 
0.0000000e+00 0.0000000e+00 0.0000000e+00 
0.0000000e+00 0.0000000e+00 0.0000000e+00 
0.0000000e+00 0.0000000e+00 0.0000000e+00 
0.0000000e+00 0.0000000e+00 0.0000000e+00 
0.0000000e+00 0.0000000e+00 0.0000000e+00 
0.0000000e+00 0.0000000e+00 0.0000000e+00 
0.0000000e+00 0.0000000e+00 0.0000000e+00 
0.0000000e+00 0.0000000e+00 0.0000000e+00 
0.0000000e+00 0.0000000e+00 0.0000000e+00 
0.0000000e+00 0.0000000e+00 0.0000000e+00 
0.0000000e+00 0.0000000e+00 0.0000000e+00 
0.0000000e+00 0.0000000e+00 0.0000000e+00 
0.0000000e+00 0.0000000e+00 0.0000000e+00 
0.0000000e+00 0.0000000e+00 0.0000000e+00 
0.0000000e+00 0.0000000e+00 0.0000000e+00 
0.0000000e+00 0.0000000e+00 0.0000000e+00 
0.0000000e+00 0.0000000e+00 0.0000000e+00 
0.0000000e+00 0.0000000e+00 0.0000000e+00 
0.0000000e+00 0.0000000e+00 0.0000000e+00 
0.0000000e+00 0.0000000e+00 0.0000000e+00 
0.0000000e+00 0.0000000e+00 0.0000000e+00 
0.0000000e+00 0.0000000e+00 0.0000000e+00 
0.0000000e+00 0.0000000e+00 0.0000000e+00 
0.0000000e+00 0.0000000e+00 0.0000000e+00 
0.0000000e+00 0.0000000e+00 0.0000000e+00 
0.0000000e+00 0.0000000e+00 0.0000000e+00 
0.0000000e+00 0.0000000e+00 0.0000000e+00 
0.0000000e+00 0.0000000e+00 0.0000000e+00 
0.0000000e+00 0.0000000e+00 0.0000000e+00 
0.0000000e+00 0.0000000e+00 0.0000000e+00 
0.0000000e+00 0.0000000e+00 0.0000000e+00 
0.0000000e+00 0.0000000e+00 0.0000000e+00 
0.0000000e+00 0.0000000e+00 0.0000000e+00 
0.0000000e+00 0.0000000e+00 0.0000000e+00 
0.0000000e+00 0.0000000e+00 0.0000000e+00 
0.0000000e+00 0.0000000e+00 0.0000000e+00 
0.0000000e+00 0.0000000e+00 0.0000000e+00 
0.0000000e+00 0.0000000e+00 0.0000000e+00 
0.0000000e+00 0.0000000e+00 0.0000000e+00 
0.0000000e+00 0.0000000e+00 0.0000000e+00 
0.0000000e+00 0.0000000e+00 0.0000000e+00 
0.0000000e+00 0.0000000e+00 0.0000000e+00 
0.0000000e+00 0.0000000e+00 0.0000000e+00 
0.0000000e+00 0.0000000e+00 0.0000000e+00 
0.0000000e+00 0.0000000e+00 0.0000000e+00 
0.0000000e+00 0.0000000e+00 0.0000000e+00 
0.0000000e+00 0.0000000e+00 0.0000000e+00 
0.0000000e+00 0.0000000e+00 0.0000000e+00 
0.0000000e+00 0.0000000e+00 0.0000000e+00 
0.0000000e+00 0.0000000e+00 0.0000000e+00 
0.0000000e+00 0.0000000e+00 0.0000000e+00 
0.0000000e+00 0.0000000e+00 0.0000000e+00 
0.0000000e+00 0.0000000e+00 0.0000000e+00 
0.0000000e+00 0.0000000e+00 0.0000000e+00 
0.0000000e+00 0.0000000e+00 0.0000000e+00 
0.0000000e+00 0.0000000e+00 0.0000000e+00 