# vtk DataFile Version 4.0
vtk output
ASCII
DATASET UNSTRUCTURED_GRID
POINTS 2186 float
0.0000000e+00 0.0000000e+00 0.0000000e+00 
0.0000000e+00 0.0000000e+00 5.0000000e+01 
5.0000000e+00 0.0000000e+00 0.0000000e+00 
5.0000000e+00 0.0000000e+00 5.0000000e+01 
5.0000000e+00 1.0000000e+00 0.0000000e+00 
5.0000000e+00 1.0000000e+00 5.0000000e+01 
0.0000000e+00 1.0000000e+00 0.0000000e+00 
0.0000000e+00 1.0000000e+00 5.0000000e+01 
5.0000000e+00 2.0000000e+00 0.0000000e+00 
5.0000000e+00 2.0000000e+00 5.0000000e+01 
3.0000000e+00 2.0000000e+00 0.0000000e+00 
3.0000000e+00 2.0000000e+00 5.0000000e+01 
0.0000000e+00 2.0000000e+00 0.0000000e+00 
0.0000000e+00 2.0000000e+00 5.0000000e+01 
1.5000000e+00 3.0000000e+00 0.0000000e+00 
1.5000000e+00 3.0000000e+00 5.0000000e+01 
7.5000000e-01 3.0000000e+00 0.0000000e+00 
7.5000000e-01 3.0000000e+00 5.0000000e+01 
0.0000000e+00 3.0000000e+00 0.0000000e+00 
0.0000000e+00 3.0000000e+00 5.0000000e+01 
7.5000000e-01 3.0000000e+00 -2.5000000e+01 
7.5000000e-01 3.0000000e+00 -2.4500000e+01 
7.5000000e-01 3.0000000e+00 -2.4000000e+01 
7.5000000e-01 3.0000000e+00 -2.3500000e+01 
7.5000000e-01 3.0000000e+00 -2.3000000e+01 
7.5000000e-01 3.0000000e+00 -2.2500000e+01 
7.5000000e-01 3.0000000e+00 -2.2000000e+01 
7.5000000e-01 3.0000000e+00 -2.1500000e+01 
7.5000000e-01 3.0000000e+00 -2.1000000e+01 
7.5000000e-01 3.0000000e+00 -2.0500000e+01 
7.5000000e-01 3.0000000e+00 -2.0000000e+01 
7.5000000e-01 3.0000000e+00 -1.9500000e+01 
7.5000000e-01 3.0000000e+00 -1.9000000e+01 
7.5000000e-01 3.0000000e+00 -1.8500000e+01 
7.5000000e-01 3.0000000e+00 -1.8000000e+01 
7.5000000e-01 3.0000000e+00 -1.7500000e+01 
7.5000000e-01 3.0000000e+00 -1.7000000e+01 
7.5000000e-01 3.0000000e+00 -1.6500000e+01 
7.5000000e-01 3.0000000e+00 -1.6000000e+01 
7.5000000e-01 3.0000000e+00 -1.5500000e+01 
7.5000000e-01 3.0000000e+00 -1.5000000e+01 
7.5000000e-01 3.0000000e+00 -1.4500000e+01 
7.5000000e-01 3.0000000e+00 -1.4000000e+01 
7.5000000e-01 3.0000000e+00 -1.3500000e+01 
7.5000000e-01 3.0000000e+00 -1.3000000e+01 
7.5000000e-01 3.0000000e+00 -1.2500000e+01 
7.5000000e-01 3.0000000e+00 -1.2000000e+01 
7.5000000e-01 3.0000000e+00 -1.1500000e+01 
7.5000000e-01 3.0000000e+00 -1.1000000e+01 
7.5000000e-01 3.0000000e+00 -1.0500000e+01 
7.5000000e-01 3.0000000e+00 -1.0000000e+01 
7.5000000e-01 3.0000000e+00 -9.5000000e+00 
7.5000000e-01 3.0000000e+00 -9.0000000e+00 
7.5000000e-01 3.0000000e+00 -8.5000000e+00 
7.5000000e-01 3.0000000e+00 -8.0000000e+00 
7.5000000e-01 3.0000000e+00 -7.5000000e+00 
7.5000000e-01 3.0000000e+00 -7.0000000e+00 
7.5000000e-01 3.0000000e+00 -6.5000000e+00 
7.5000000e-01 3.0000000e+00 -6.0000000e+00 
7.5000000e-01 3.0000000e+00 -5.5000000e+00 
7.5000000e-01 3.0000000e+00 -5.0000000e+00 
7.5000000e-01 3.0000000e+00 -4.5000000e+00 
7.5000000e-01 3.0000000e+00 -4.0000000e+00 
7.5000000e-01 3.0000000e+00 -3.5000000e+00 
7.5000000e-01 3.0000000e+00 -3.0000000e+00 
7.5000000e-01 3.0000000e+00 -2.5000000e+00 
7.5000000e-01 3.0000000e+00 -2.0000000e+00 
7.5000000e-01 3.0000000e+00 -1.5000000e+00 
7.5000000e-01 3.0000000e+00 -1.0000000e+00 
7.5000000e-01 3.0000000e+00 -5.0000000e-01 
7.5000000e-01 3.0000000e+00 5.0000000e-01 
7.5000000e-01 3.0000000e+00 1.0000000e+00 
7.5000000e-01 3.0000000e+00 1.5000000e+00 
7.5000000e-01 3.0000000e+00 2.0000000e+00 
7.5000000e-01 3.0000000e+00 2.5000000e+00 
7.5000000e-01 3.0000000e+00 3.0000000e+00 
7.5000000e-01 3.0000000e+00 3.5000000e+00 
7.5000000e-01 3.0000000e+00 4.0000000e+00 
7.5000000e-01 3.0000000e+00 4.5000000e+00 
7.5000000e-01 3.0000000e+00 5.0000000e+00 
7.5000000e-01 3.0000000e+00 5.5000000e+00 
7.5000000e-01 3.0000000e+00 6.0000000e+00 
7.5000000e-01 3.0000000e+00 6.5000000e+00 
7.5000000e-01 3.0000000e+00 7.0000000e+00 
7.5000000e-01 3.0000000e+00 7.5000000e+00 
7.5000000e-01 3.0000000e+00 8.0000000e+00 
7.5000000e-01 3.0000000e+00 8.5000000e+00 
7.5000000e-01 3.0000000e+00 9.0000000e+00 
7.5000000e-01 3.0000000e+00 9.5000000e+00 
7.5000000e-01 3.0000000e+00 1.0000000e+01 
7.5000000e-01 3.0000000e+00 1.0500000e+01 
7.5000000e-01 3.0000000e+00 1.1000000e+01 
7.5000000e-01 3.0000000e+00 1.1500000e+01 
7.5000000e-01 3.0000000e+00 1.2000000e+01 
7.5000000e-01 3.0000000e+00 1.2500000e+01 
7.5000000e-01 3.0000000e+00 1.3000000e+01 
7.5000000e-01 3.0000000e+00 1.3500000e+01 
7.5000000e-01 3.0000000e+00 1.4000000e+01 
7.5000000e-01 3.0000000e+00 1.4500000e+01 
7.5000000e-01 3.0000000e+00 1.5000000e+01 
7.5000000e-01 3.0000000e+00 1.5500000e+01 
7.5000000e-01 3.0000000e+00 1.6000000e+01 
7.5000000e-01 3.0000000e+00 1.6500000e+01 
7.5000000e-01 3.0000000e+00 1.7000000e+01 
7.5000000e-01 3.0000000e+00 1.7500000e+01 
7.5000000e-01 3.0000000e+00 1.8000000e+01 
7.5000000e-01 3.0000000e+00 1.8500000e+01 
7.5000000e-01 3.0000000e+00 1.9000000e+01 
7.5000000e-01 3.0000000e+00 1.9500000e+01 
7.5000000e-01 3.0000000e+00 2.0000000e+01 
7.5000000e-01 3.0000000e+00 2.0500000e+01 
7.5000000e-01 3.0000000e+00 2.1000000e+01 
7.5000000e-01 3.0000000e+00 2.1500000e+01 
7.5000000e-01 3.0000000e+00 2.2000000e+01 
7.5000000e-01 3.0000000e+00 2.2500000e+01 
7.5000000e-01 3.0000000e+00 2.3000000e+01 
7.5000000e-01 3.0000000e+00 2.3500000e+01 
7.5000000e-01 3.0000000e+00 2.4000000e+01 
7.5000000e-01 3.0000000e+00 2.4500000e+01 
7.5000000e-01 3.0000000e+00 2.5000000e+01 
7.5000000e-01 3.0000000e+00 2.5500000e+01 
7.5000000e-01 3.0000000e+00 2.6000000e+01 
7.5000000e-01 3.0000000e+00 2.6500000e+01 
7.5000000e-01 3.0000000e+00 2.7000000e+01 
7.5000000e-01 3.0000000e+00 2.7500000e+01 
7.5000000e-01 3.0000000e+00 2.8000000e+01 
7.5000000e-01 3.0000000e+00 2.8500000e+01 
7.5000000e-01 3.0000000e+00 2.9000000e+01 
7.5000000e-01 3.0000000e+00 2.9500000e+01 
7.5000000e-01 3.0000000e+00 3.0000000e+01 
7.5000000e-01 3.0000000e+00 3.0500000e+01 
7.5000000e-01 3.0000000e+00 3.1000000e+01 
7.5000000e-01 3.0000000e+00 3.1500000e+01 
7.5000000e-01 3.0000000e+00 3.2000000e+01 
7.5000000e-01 3.0000000e+00 3.2500000e+01 
7.5000000e-01 3.0000000e+00 3.3000000e+01 
7.5000000e-01 3.0000000e+00 3.3500000e+01 
7.5000000e-01 3.0000000e+00 3.4000000e+01 
7.5000000e-01 3.0000000e+00 3.4500000e+01 
7.5000000e-01 3.0000000e+00 3.5000000e+01 
7.5000000e-01 3.0000000e+00 3.5500000e+01 
7.5000000e-01 3.0000000e+00 3.6000000e+01 
7.5000000e-01 3.0000000e+00 3.6500000e+01 
7.5000000e-01 3.0000000e+00 3.7000000e+01 
7.5000000e-01 3.0000000e+00 3.7500000e+01 
7.5000000e-01 3.0000000e+00 3.8000000e+01 
7.5000000e-01 3.0000000e+00 3.8500000e+01 
7.5000000e-01 3.0000000e+00 3.9000000e+01 
7.5000000e-01 3.0000000e+00 3.9500000e+01 
7.5000000e-01 3.0000000e+00 4.0000000e+01 
7.5000000e-01 3.0000000e+00 4.0500000e+01 
7.5000000e-01 3.0000000e+00 4.1000000e+01 
7.5000000e-01 3.0000000e+00 4.1500000e+01 
7.5000000e-01 3.0000000e+00 4.2000000e+01 
7.5000000e-01 3.0000000e+00 4.2500000e+01 
7.5000000e-01 3.0000000e+00 4.3000000e+01 
7.5000000e-01 3.0000000e+00 4.3500000e+01 
7.5000000e-01 3.0000000e+00 4.4000000e+01 
7.5000000e-01 3.0000000e+00 4.4500000e+01 
7.5000000e-01 3.0000000e+00 4.5000000e+01 
7.5000000e-01 3.0000000e+00 4.5500000e+01 
7.5000000e-01 3.0000000e+00 4.6000000e+01 
7.5000000e-01 3.0000000e+00 4.6500000e+01 
7.5000000e-01 3.0000000e+00 4.7000000e+01 
7.5000000e-01 3.0000000e+00 4.7500000e+01 
7.5000000e-01 3.0000000e+00 4.8000000e+01 
7.5000000e-01 3.0000000e+00 4.8500000e+01 
7.5000000e-01 3.0000000e+00 4.9000000e+01 
7.5000000e-01 3.0000000e+00 4.9500000e+01 
7.5000000e-01 3.0000000e+00 5.0500000e+01 
7.5000000e-01 3.0000000e+00 5.1000000e+01 
7.5000000e-01 3.0000000e+00 5.1500000e+01 
7.5000000e-01 3.0000000e+00 5.2000000e+01 
7.5000000e-01 3.0000000e+00 5.2500000e+01 
7.5000000e-01 3.0000000e+00 5.3000000e+01 
7.5000000e-01 3.0000000e+00 5.3500000e+01 
7.5000000e-01 3.0000000e+00 5.4000000e+01 
7.5000000e-01 3.0000000e+00 5.4500000e+01 
7.5000000e-01 3.0000000e+00 5.5000000e+01 
7.5000000e-01 3.0000000e+00 5.5500000e+01 
7.5000000e-01 3.0000000e+00 5.6000000e+01 
7.5000000e-01 3.0000000e+00 5.6500000e+01 
7.5000000e-01 3.0000000e+00 5.7000000e+01 
7.5000000e-01 3.0000000e+00 5.7500000e+01 
7.5000000e-01 3.0000000e+00 5.8000000e+01 
7.5000000e-01 3.0000000e+00 5.8500000e+01 
7.5000000e-01 3.0000000e+00 5.9000000e+01 
7.5000000e-01 3.0000000e+00 5.9500000e+01 
7.5000000e-01 3.0000000e+00 6.0000000e+01 
7.5000000e-01 3.0000000e+00 6.0500000e+01 
7.5000000e-01 3.0000000e+00 6.1000000e+01 
7.5000000e-01 3.0000000e+00 6.1500000e+01 
7.5000000e-01 3.0000000e+00 6.2000000e+01 
7.5000000e-01 3.0000000e+00 6.2500000e+01 
7.5000000e-01 3.0000000e+00 6.3000000e+01 
7.5000000e-01 3.0000000e+00 6.3500000e+01 
7.5000000e-01 3.0000000e+00 6.4000000e+01 
7.5000000e-01 3.0000000e+00 6.4500000e+01 
7.5000000e-01 3.0000000e+00 6.5000000e+01 
7.5000000e-01 3.0000000e+00 6.5500000e+01 
7.5000000e-01 3.0000000e+00 6.6000000e+01 
7.5000000e-01 3.0000000e+00 6.6500000e+01 
7.5000000e-01 3.0000000e+00 6.7000000e+01 
7.5000000e-01 3.0000000e+00 6.7500000e+01 
7.5000000e-01 3.0000000e+00 6.8000000e+01 
7.5000000e-01 3.0000000e+00 6.8500000e+01 
7.5000000e-01 3.0000000e+00 6.9000000e+01 
7.5000000e-01 3.0000000e+00 6.9500000e+01 
7.5000000e-01 3.0250001e+00 -2.5000000e+01 
7.5000000e-01 3.0250001e+00 -2.4500000e+01 
7.5000000e-01 3.0250001e+00 -2.4000000e+01 
7.5000000e-01 3.0250001e+00 -2.3500000e+01 
7.5000000e-01 3.0250001e+00 -2.3000000e+01 
7.5000000e-01 3.0250001e+00 -2.2500000e+01 
7.5000000e-01 3.0250001e+00 -2.2000000e+01 
7.5000000e-01 3.0250001e+00 -2.1500000e+01 
7.5000000e-01 3.0250001e+00 -2.1000000e+01 
7.5000000e-01 3.0250001e+00 -2.0500000e+01 
7.5000000e-01 3.0250001e+00 -2.0000000e+01 
7.5000000e-01 3.0250001e+00 -1.9500000e+01 
7.5000000e-01 3.0250001e+00 -1.9000000e+01 
7.5000000e-01 3.0250001e+00 -1.8500000e+01 
7.5000000e-01 3.0250001e+00 -1.8000000e+01 
7.5000000e-01 3.0250001e+00 -1.7500000e+01 
7.5000000e-01 3.0250001e+00 -1.7000000e+01 
7.5000000e-01 3.0250001e+00 -1.6500000e+01 
7.5000000e-01 3.0250001e+00 -1.6000000e+01 
7.5000000e-01 3.0250001e+00 -1.5500000e+01 
[...]
POINT_DATA 2186
FIELD FieldData 3
DISPLACEMENT 3 2186  float
0.0000000e+00 0.0000000e+00 0.0000000e+00 
0.0000000e+00 0.0000000e+00 0.0000000e+00 
0.0000000e+00 0.0000000e+00 0.0000000e+00 
0.0000000e+00 0.0000000e+00 0.0000000e+00 
1.9156653e-06 -2.3752484e-07 3.8407607e-06 
2.4904573e-08 -5.9726887e-07 -4.0375002e-07 
0.0000000e+00 1.8687746e-05 0.0000000e+00 
0.0000000e+00 1.4516959e-06 0.0000000e+00 
3.1935435e-06 -1.6381497e-06 1.0074287e-07 
3.8667739e-07 -4.9554393e-07 -1.7596179e-07 
5.3921244e-06 -1.0457942e-05 -1.4205817e-05 
-5.3862863e-07 3.1617645e-07 -3.9984247e-08 
0.0000000e+00 3.6349091e-05 0.0000000e+00 
0.0000000e+00 1.6103769e-06 0.0000000e+00 
2.5818730e-05 -3.2003602e-05 -3.7971167e-05 
1.7199146e-06 -1.6797505e-06 2.4478979e-07 
3.0529787e-05 -2.3497136e-05 -5.1361527e-05 
-1.2472096e-06 -1.5283179e-06 1.1549425e-06 
0.0000000e+00 4.2256393e-05 0.0000000e+00 
0.0000000e+00 1.0842633e-06 0.0000000e+00 
0.0000000e+00 -1.1772329e-05 0.0000000e+00 
0.0000000e+00 -1.0364693e-05 0.0000000e+00 
0.0000000e+00 -5.7877769e-06 0.0000000e+00 
0.0000000e+00 1.8144937e-06 0.0000000e+00 
0.0000000e+00 1.0408266e-05 0.0000000e+00 
0.0000000e+00 1.6149228e-05 0.0000000e+00 
0.0000000e+00 1.5417587e-05 0.0000000e+00 
0.0000000e+00 7.5474986e-06 0.0000000e+00 
0.0000000e+00 -3.9558404e-06 0.0000000e+00 
0.0000000e+00 -1.3053440e-05 0.0000000e+00 
0.0000000e+00 -1.4896402e-05 0.0000000e+00 
0.0000000e+00 -9.0986805e-06 0.0000000e+00 
0.0000000e+00 -6.6545205e-08 0.0000000e+00 
0.0000000e+00 6.0672883e-06 0.0000000e+00 
0.0000000e+00 5.7831603e-06 0.0000000e+00 
0.0000000e+00 6.0383616e-07 0.0000000e+00 
0.0000000e+00 -4.2109355e-06 0.0000000e+00 
0.0000000e+00 -3.7624186e-06 0.0000000e+00 
0.0000000e+00 2.6326693e-06 0.0000000e+00 
0.0000000e+00 1.0736934e-05 0.0000000e+00 
0.0000000e+00 1.4426295e-05 0.0000000e+00 
0.0000000e+00 1.0198424e-05 0.0000000e+00 
0.0000000e+00 -2.7806885e-07 0.0000000e+00 
0.0000000e+00 -1.1427328e-05 0.0000000e+00 
0.0000000e+00 -1.7638002e-05 0.0000000e+00 
0.0000000e+00 -1.6661577e-05 0.0000000e+00 
0.0000000e+00 -1.0253249e-05 0.0000000e+00 
0.0000000e+00 -2.1824310e-06 0.0000000e+00 
0.0000000e+00 4.4619933e-06 0.0000000e+00 
0.0000000e+00 8.7051967e-06 0.0000000e+00 
0.0000000e+00 1.1168720e-05 0.0000000e+00 
0.0000000e+00 1.2460870e-05 0.0000000e+00 
0.0000000e+00 1.2139048e-05 0.0000000e+00 
0.0000000e+00 9.2624887e-06 0.0000000e+00 
0.0000000e+00 3.8638300e-06 0.0000000e+00 
0.0000000e+00 -2.3647310e-06 0.0000000e+00 
0.0000000e+00 -7.0290598e-06 0.0000000e+00 
0.0000000e+00 -8.7576382e-06 0.0000000e+00 
0.0000000e+00 -8.1633116e-06 0.0000000e+00 
0.0000000e+00 -7.3127262e-06 0.0000000e+00 
0.0000000e+00 -8.0500013e-06 0.0000000e+00 
0.0000000e+00 -1.0250343e-05 0.0000000e+00 
0.0000000e+00 -1.1509079e-05 0.0000000e+00 
0.0000000e+00 -9.1435913e-06 0.0000000e+00 
0.0000000e+00 -3.1742968e-06 0.0000000e+00 
0.0000000e+00 2.7525030e-06 0.0000000e+00 
0.0000000e+00 3.9237616e-06 0.0000000e+00 
0.0000000e+00 -1.6540552e-06 0.0000000e+00 
0.0000000e+00 -1.1660395e-05 0.0000000e+00 
0.0000000e+00 -2.0811662e-05 0.0000000e+00 
3.4700559e-05 -1.5712483e-05 -3.3567507e-05 
4.1192150e-05 -1.0258969e-06 -2.1097016e-05 
3.3064032e-05 1.3914068e-05 2.7021583e-06 
4.7521517e-05 2.3644996e-05 2.7345329e-06 
4.8005721e-05 2.7341153e-05 6.0094876e-06 
3.4739696e-05 2.7047046e-05 1.1347826e-05 
1.6310561e-05 2.8833829e-05 -1.9642009e-06 
1.0129731e-05 3.6369478e-05 -8.1385804e-07 
2.5598042e-06 4.6294230e-05 1.5026442e-05 
8.3161294e-06 4.5968121e-05 4.5253205e-06 
-1.2759750e-05 3.2895736e-05 7.0895999e-06 
2.7995527e-06 1.9380399e-05 1.6225689e-06 
-1.5483516e-05 2.8512704e-05 -1.7156257e-05 
4.6086489e-06 7.1481125e-05 -1.1038754e-05 
8.8840497e-06 1.2676597e-04 -4.5258294e-06 
3.1852702e-05 1.4575305e-04 1.8189672e-06 
2.8077484e-05 1.1127190e-04 1.1298024e-05 
3.6663412e-05 3.3403729e-05 3.1515865e-05 
4.3465166e-06 -8.6025400e-05 8.4590363e-05 
2.0395706e-05 -2.9364825e-04 8.1086160e-05 
-1.6052982e-05 -7.2859728e-04 1.9178128e-04 
-5.2638236e-05 -1.5700762e-03 1.5000810e-04 
-1.1317070e-04 -2.8627997e-03 2.8421267e-04 
-2.2582896e-04 -4.3165949e-03 1.2202776e-04 
-3.3565538e-04 -5.3590373e-03 1.9373602e-04 
-6.3370087e-04 -5.3093894e-03 5.5837954e-05 
-2.4355542e-04 -4.6884692e-03 9.0292022e-05 
-1.9419077e-04 -4.3899314e-03 1.1166500e-04 
-2.0908173e-04 -4.5835618e-03 9.6326010e-05 
-2.7570719e-04 -4.6757036e-03 -2.1021342e-05 
-2.6159905e-04 -3.9251214e-03 -1.6240872e-04 
-2.2173498e-04 -2.6109011e-03 -1.3782286e-04 
-1.6617851e-04 -1.3859482e-03 -2.8955605e-04 
-9.8800745e-05 -5.0332677e-04 -3.6005737e-04 
-3.6326470e-05 1.7024518e-05 -2.1904420e-04 
-2.1460585e-06 2.2870224e-04 -1.6207124e-04 
3.1975451e-05 2.4226970e-04 -1.3305995e-04 
3.7419715e-05 1.7474848e-04 -1.2034662e-04 
5.6276203e-05 1.0616551e-04 -1.0183721e-04 
6.3357438e-05 5.5509070e-05 -8.5302534e-05 
7.3982206e-05 1.5762771e-05 -4.9339873e-05 
7.0405418e-05 -9.7100055e-06 -1.4605252e-05 
6.3064443e-05 -1.0661311e-05 3.2467447e-05 
5.5997723e-05 1.0518650e-05 5.4014105e-05 
3.9104809e-05 3.2954751e-05 4.6798203e-05 
2.9473476e-05 3.6892037e-05 4.0010094e-05 
7.3118244e-06 2.5090361e-05 8.0643913e-06 
1.9032932e-05 1.8945369e-05 3.7155532e-06 
-3.7134835e-06 3.2067066e-05 1.3263829e-05 
5.6353224e-06 5.2236133e-05 1.5757018e-05 
-1.0045104e-05 5.9145423e-05 4.9322048e-06 
-5.6305453e-06 4.3331198e-05 -6.5950690e-06 
-1.1235852e-05 2.5108200e-05 -2.3373002e-05 
8.0647551e-06 3.8705355e-05 -1.6926218e-05 
2.0130845e-05 9.3225040e-05 -4.7302005e-06 
2.9684452e-05 1.5207540e-04 1.0068047e-05 
2.5537756e-05 1.5922030e-04 3.1351829e-05 
4.6629768e-05 6.4663152e-05 4.5622222e-05 
1.6110702e-05 -1.3925368e-04 9.7789212e-05 
1.5678746e-05 -4.5066830e-04 1.0827014e-04 
-2.1770340e-05 -9.3980244e-04 2.3989021e-04 
-7.2448333e-05 -1.7341390e-03 1.7494110e-04 
-1.3460798e-04 -2.9353320e-03 3.0728304e-04 
-2.2637258e-04 -4.3676617e-03 1.2460680e-04 
-2.8672992e-04 -5.4076263e-03 1.3632028e-04 
-3.2753381e-04 -5.2081994e-03 6.3754160e-05 
-2.8658408e-04 -4.6010204e-03 -1.0927878e-05 
-2.8848395e-04 -4.3244520e-03 -3.4975153e-06 
-2.5627823e-04 -4.5838477e-03 -1.3876841e-05 
-2.6213480e-04 -4.6846438e-03 -7.0385613e-05 
-2.3202116e-04 -3.7897634e-03 -2.3448310e-04 
-1.9303392e-04 -2.4102491e-03 -1.6405355e-04 
-1.2815875e-04 -1.1743705e-03 -2.8290087e-04 
-5.9227674e-05 -3.2328514e-04 -1.7976594e-04 
-1.9049168e-05 1.0943179e-04 -1.9376678e-04 
-1.5887063e-05 2.4498923e-04 -1.4361460e-04 
2.5776728e-05 2.3194398e-04 -8.7405206e-05 
1.8104198e-05 1.7135077e-04 -7.4121475e-05 
2.3979843e-05 1.0382505e-04 -4.4889221e-05 
3.1456395e-05 4.0386414e-05 -4.0019146e-05 
3.3701592e-05 -8.8538791e-06 -7.1498056e-07 
2.0116991e-05 -3.2273991e-05 2.0254518e-05 
1.1574902e-05 -3.1499731e-05 4.6110508e-05 
6.9200846e-06 -2.1756587e-05 4.7202971e-05 
-5.3482063e-06 -1.6375385e-05 3.2822634e-05 
-3.5785974e-06 -1.4222189e-05 1.8794342e-05 
-3.4395528e-06 -7.7687391e-06 9.1556713e-06 
-2.2611330e-06 2.4819292e-06 4.8087400e-06 
-4.3563514e-06 9.9399658e-06 6.1449587e-06 
-5.0980530e-06 1.0245230e-05 6.2726663e-06 
-5.0513813e-06 5.8235096e-06 4.2428287e-06 
-5.3503963e-06 2.1088617e-06 2.1832063e-06 
-3.1851841e-06 1.5059508e-06 -2.9084968e-06 
-1.3531101e-06 1.9389661e-06 -3.2242594e-06 
-5.3023882e-07 1.2613347e-06 -5.3868457e-06 
1.4647667e-07 -7.9271821e-08 -7.1412633e-06 
2.3255450e-06 -7.6221045e-07 -3.9540396e-06 
3.3291883e-06 -6.2001470e-07 -1.9465458e-06 
2.2715262e-06 -7.8717835e-07 1.0060179e-06 
0.0000000e+00 -1.9837933e-06 0.0000000e+00 
0.0000000e+00 -1.5779252e-06 0.0000000e+00 
0.0000000e+00 -5.6213753e-07 0.0000000e+00 
0.0000000e+00 5.8183698e-08 0.0000000e+00 
0.0000000e+00 -3.1183433e-07 0.0000000e+00 
0.0000000e+00 -1.1553623e-06 0.0000000e+00 
0.0000000e+00 -1.4518573e-06 0.0000000e+00 
0.0000000e+00 -8.2222829e-07 0.0000000e+00 
0.0000000e+00 1.5359387e-07 0.0000000e+00 
0.0000000e+00 7.1011152e-07 0.0000000e+00 
0.0000000e+00 7.1630257e-07 0.0000000e+00 
0.0000000e+00 5.9543203e-07 0.0000000e+00 
0.0000000e+00 6.2077987e-07 0.0000000e+00 
0.0000000e+00 5.7342095e-07 0.0000000e+00 
0.0000000e+00 1.4157682e-07 0.0000000e+00 
0.0000000e+00 -5.5140578e-07 0.0000000e+00 
0.0000000e+00 -9.9910528e-07 0.0000000e+00 
0.0000000e+00 -8.5319391e-07 0.0000000e+00 
0.0000000e+00 -2.7056083e-07 0.0000000e+00 
0.0000000e+00 3.0713943e-07 0.0000000e+00 
0.0000000e+00 6.0344371e-07 0.0000000e+00 
0.0000000e+00 6.4822427e-07 0.0000000e+00 
0.0000000e+00 5.4460128e-07 0.0000000e+00 
0.0000000e+00 2.6447879e-07 0.0000000e+00 
0.0000000e+00 -2.3827650e-07 0.0000000e+00 
0.0000000e+00 -7.8698110e-07 0.0000000e+00 
0.0000000e+00 -9.9712349e-07 0.0000000e+00 
0.0000000e+00 -6.0675075e-07 0.0000000e+00 
0.0000000e+00 2.2548150e-07 0.0000000e+00 
0.0000000e+00 9.8841940e-07 0.0000000e+00 
0.0000000e+00 1.1955333e-06 0.0000000e+00 
0.0000000e+00 7.2154353e-07 0.0000000e+00 
0.0000000e+00 -1.5402466e-07 0.0000000e+00 
0.0000000e+00 -9.5300049e-07 0.0000000e+00 
0.0000000e+00 -1.2607995e-06 0.0000000e+00 
0.0000000e+00 -9.1610076e-07 0.0000000e+00 
0.0000000e+00 -9.1607149e-08 0.0000000e+00 
0.0000000e+00 7.6373840e-07 0.0000000e+00 
0.0000000e+00 1.1361035e-06 0.0000000e+00 
0.0000000e+00 -1.1738895e-05 0.0000000e+00 
0.0000000e+00 -1.0336868e-05 0.0000000e+00 
0.0000000e+00 -5.7781490e-06 0.0000000e+00 
0.0000000e+00 1.7962383e-06 0.0000000e+00 
0.0000000e+00 1.0365423e-05 0.0000000e+00 
0.0000000e+00 1.6101652e-05 0.0000000e+00 
0.0000000e+00 1.5391681e-05 0.0000000e+00 
0.0000000e+00 7.5596017e-06 0.0000000e+00 
0.0000000e+00 -3.9102247e-06 0.0000000e+00 
0.0000000e+00 -1.2998425e-05 0.0000000e+00 
0.0000000e+00 -1.4863774e-05 0.0000000e+00 
0.0000000e+00 -9.1102047e-06 0.0000000e+00 
0.0000000e+00 -1.1920933e-07 0.0000000e+00 
0.0000000e+00 6.0026164e-06 0.0000000e+00 
0.0000000e+00 5.7461521e-06 0.0000000e+00 
0.0000000e+00 6.2090339e-07 0.0000000e+00 
0.0000000e+00 -4.1444537e-06 0.0000000e+00 
0.0000000e+00 -3.6836386e-06 0.0000000e+00 
0.0000000e+00 2.6732139e-06 0.0000000e+00 
0.0000000e+00 1.0708767e-05 0.0000000e+00 
0.0000000e+00 1.4345159e-05 0.0000000e+00 
0.0000000e+00 1.0118797e-05 0.0000000e+00 
0.0000000e+00 -3.0435521e-07 0.0000000e+00 
0.0000000e+00 -1.1390164e-05 0.0000000e+00 
0.0000000e+00 -1.7570001e-05 0.0000000e+00 
0.0000000e+00 -1.6606835e-05 0.0000000e+00 
0.0000000e+00 -1.0238689e-05 0.0000000e+00 
0.0000000e+00 -2.2098347e-06 0.0000000e+00 
0.0000000e+00 4.4118924e-06 0.0000000e+00 
0.0000000e+00 8.6630116e-06 0.0000000e+00 
0.0000000e+00 1.1158167e-05 0.0000000e+00 
0.0000000e+00 1.2482326e-05 0.0000000e+00 
0.0000000e+00 1.2174331e-05 0.0000000e+00 
0.0000000e+00 9.2949094e-06 0.0000000e+00 
0.0000000e+00 3.8857402e-06 0.0000000e+00 
0.0000000e+00 -2.3600367e-06 0.0000000e+00 
0.0000000e+00 -7.0458482e-06 0.0000000e+00 
0.0000000e+00 -8.7852541e-06 0.0000000e+00 
0.0000000e+00 -8.1824455e-06 0.0000000e+00 
0.0000000e+00 -7.3193764e-06 0.0000000e+00 
0.0000000e+00 -8.0553309e-06 0.0000000e+00 
0.0000000e+00 -1.0252927e-05 0.0000000e+00 
0.0000000e+00 -1.1494026e-05 0.0000000e+00 
0.0000000e+00 -9.1206248e-06 0.0000000e+00 
0.0000000e+00 -3.1846610e-06 0.0000000e+00 
0.0000000e+00 2.6906350e-06 0.0000000e+00 
0.0000000e+00 3.8476087e-06 0.0000000e+00 
0.0000000e+00 -1.7037974e-06 0.0000000e+00 
0.0000000e+00 -1.1695091e-05 0.0000000e+00 
0.0000000e+00 -2.0861706e-05 0.0000000e+00 
0.0000000e+00 -2.3341268e-05 0.0000000e+00 
0.0000000e+00 -1.5649186e-05 0.0000000e+00 
0.0000000e+00 -9.7526868e-07 0.0000000e+00 
0.0000000e+00 1.3872965e-05 0.0000000e+00 
0.0000000e+00 2.3566237e-05 0.0000000e+00 
0.0000000e+00 2.7093309e-05 0.0000000e+00 
0.0000000e+00 2.7043081e-05 0.0000000e+00 
0.0000000e+00 2.9091963e-05 0.0000000e+00 
0.0000000e+00 3.6830137e-05 0.0000000e+00 
0.0000000e+00 4.6208450e-05 0.0000000e+00 
0.0000000e+00 4.5674384e-05 0.0000000e+00 
0.0000000e+00 3.2266427e-05 0.0000000e+00 
0.0000000e+00 1.9373394e-05 0.0000000e+00 
0.0000000e+00 2.9686766e-05 0.0000000e+00 
0.0000000e+00 7.2999865e-05 0.0000000e+00 
0.0000000e+00 1.2623936e-04 0.0000000e+00 
0.0000000e+00 1.4494958e-04 0.0000000e+00 
0.0000000e+00 1.1098079e-04 0.0000000e+00 
0.0000000e+00 3.4328721e-05 0.0000000e+00 
0.0000000e+00 -8.2566381e-05 0.0000000e+00 
0.0000000e+00 -2.9086773e-04 0.0000000e+00 
0.0000000e+00 -7.3190464e-04 0.0000000e+00 
0.0000000e+00 -1.5820030e-03 0.0000000e+00 
0.0000000e+00 -2.8745627e-03 0.0000000e+00 
0.0000000e+00 -4.3389546e-03 0.0000000e+00 
0.0000000e+00 -5.3831893e-03 0.0000000e+00 
0.0000000e+00 -5.3320187e-03 0.0000000e+00 
0.0000000e+00 -4.7194031e-03 0.0000000e+00 
0.0000000e+00 -4.4185347e-03 0.0000000e+00 
0.0000000e+00 -4.6049408e-03 0.0000000e+00 
0.0000000e+00 -4.7059241e-03 0.0000000e+00 
0.0000000e+00 -3.9487150e-03 0.0000000e+00 
0.0000000e+00 -2.6296896e-03 0.0000000e+00 
0.0000000e+00 -1.3934150e-03 0.0000000e+00 
0.0000000e+00 -5.0570624e-04 0.0000000e+00 
0.0000000e+00 1.5104620e-05 0.0000000e+00 
0.0000000e+00 2.2913948e-04 0.0000000e+00 
0.0000000e+00 2.4407453e-04 0.0000000e+00 
0.0000000e+00 1.7686443e-04 0.0000000e+00 
0.0000000e+00 1.0680331e-04 0.0000000e+00 
0.0000000e+00 5.5035813e-05 0.0000000e+00 
0.0000000e+00 1.5607675e-05 0.0000000e+00 
0.0000000e+00 -9.2191285e-06 0.0000000e+00 
0.0000000e+00 -1.0040195e-05 0.0000000e+00 
0.0000000e+00 1.0458794e-05 0.0000000e+00 
0.0000000e+00 3.2249296e-05 0.0000000e+00 
0.0000000e+00 3.6362311e-05 0.0000000e+00 
0.0000000e+00 2.5288158e-05 0.0000000e+00 
0.0000000e+00 1.9672276e-05 0.0000000e+00 
0.0000000e+00 3.2474658e-05 0.0000000e+00 
0.0000000e+00 5.2287458e-05 0.0000000e+00 
0.0000000e+00 5.8281315e-05 0.0000000e+00 
0.0000000e+00 4.2599255e-05 0.0000000e+00 
0.0000000e+00 2.5501706e-05 0.0000000e+00 
0.0000000e+00 4.0185456e-05 0.0000000e+00 
0.0000000e+00 9.4608331e-05 0.0000000e+00 
0.0000000e+00 1.5270842e-04 0.0000000e+00 
0.0000000e+00 1.5762888e-04 0.0000000e+00 
0.0000000e+00 6.3653148e-05 0.0000000e+00 
0.0000000e+00 -1.3722994e-04 0.0000000e+00 
0.0000000e+00 -4.4863037e-04 0.0000000e+00 
0.0000000e+00 -9.3947299e-04 0.0000000e+00 
0.0000000e+00 -1.7424371e-03 0.0000000e+00 
0.0000000e+00 -2.9510802e-03 0.0000000e+00 
0.0000000e+00 -4.3980083e-03 0.0000000e+00 
0.0000000e+00 -5.4290108e-03 0.0000000e+00 
0.0000000e+00 -5.2367589e-03 0.0000000e+00 
0.0000000e+00 -4.6197958e-03 0.0000000e+00 
0.0000000e+00 -4.3565417e-03 0.0000000e+00 
0.0000000e+00 -4.6087625e-03 0.0000000e+00 
0.0000000e+00 -4.7161402e-03 0.0000000e+00 
0.0000000e+00 -3.8095440e-03 0.0000000e+00 
0.0000000e+00 -2.4256830e-03 0.0000000e+00 
0.0000000e+00 -1.1818567e-03 0.0000000e+00 
0.0000000e+00 -3.2825040e-04 0.0000000e+00 
0.0000000e+00 1.0941289e-04 0.0000000e+00 
0.0000000e+00 2.4730162e-04 0.0000000e+00 
0.0000000e+00 2.3399238e-04 0.0000000e+00 
0.0000000e+00 1.7203382e-04 0.0000000e+00 
0.0000000e+00 1.0382279e-04 0.0000000e+00 
0.0000000e+00 4.0593830e-05 0.0000000e+00 
0.0000000e+00 -8.2923352e-06 0.0000000e+00 
0.0000000e+00 -3.1994219e-05 0.0000000e+00 
0.0000000e+00 -3.1756779e-05 0.0000000e+00 
0.0000000e+00 -2.2258866e-05 0.0000000e+00 
0.0000000e+00 -1.6472095e-05 0.0000000e+00 
0.0000000e+00 -1.3857205e-05 0.0000000e+00 
0.0000000e+00 -7.6274996e-06 0.0000000e+00 
0.0000000e+00 2.2987040e-06 0.0000000e+00 
0.0000000e+00 9.7174707e-06 0.0000000e+00 
0.0000000e+00 1.0238398e-05 0.0000000e+00 
0.0000000e+00 5.9661311e-06 0.0000000e+00 
0.0000000e+00 2.2141578e-06 0.0000000e+00 
0.0000000e+00 1.4592114e-06 0.0000000e+00 
0.0000000e+00 1.8620535e-06 0.0000000e+00 
0.0000000e+00 1.2714586e-06 0.0000000e+00 
0.0000000e+00 -3.0955071e-08 0.0000000e+00 
0.0000000e+00 -7.3992089e-07 0.0000000e+00 
0.0000000e+00 -6.7176427e-07 0.0000000e+00 
0.0000000e+00 -8.1701523e-07 0.0000000e+00 
0.0000000e+00 -1.4994617e-06 0.0000000e+00 
0.0000000e+00 -1.9550637e-06 0.0000000e+00 
0.0000000e+00 -1.5666645e-06 0.0000000e+00 
0.0000000e+00 -5.8838867e-07 0.0000000e+00 
0.0000000e+00 2.3078542e-08 0.0000000e+00 
0.0000000e+00 -3.1687981e-07 0.0000000e+00 
0.0000000e+00 -1.1290043e-06 0.0000000e+00 
0.0000000e+00 -1.4285756e-06 0.0000000e+00 
0.0000000e+00 -8.2750574e-07 0.0000000e+00 
0.0000000e+00 1.3212927e-07 0.0000000e+00 
0.0000000e+00 7.0186485e-07 0.0000000e+00 
0.0000000e+00 7.2883461e-07 0.0000000e+00 
0.0000000e+00 6.0819400e-07 0.0000000e+00 
0.0000000e+00 6.1522974e-07 0.0000000e+00 
0.0000000e+00 5.5706573e-07 0.0000000e+00 
0.0000000e+00 1.3623908e-07 0.0000000e+00 
0.0000000e+00 -5.3840046e-07 0.0000000e+00 
0.0000000e+00 -9.8303917e-07 0.0000000e+00 
0.0000000e+00 -8.5161759e-07 0.0000000e+00 
0.0000000e+00 -2.8251597e-07 0.0000000e+00 
0.0000000e+00 2.9724819e-07 0.0000000e+00 
0.0000000e+00 6.0524690e-07 0.0000000e+00 
0.0000000e+00 6.5518714e-07 0.0000000e+00 
0.0000000e+00 5.4517716e-07 0.0000000e+00 
0.0000000e+00 2.5794714e-07 0.0000000e+00 
0.0000000e+00 -2.4182543e-07 0.0000000e+00 
0.0000000e+00 -7.8090682e-07 0.0000000e+00 
0.0000000e+00 -9.8720591e-07 0.0000000e+00 
0.0000000e+00 -6.0377488e-07 0.0000000e+00 
0.0000000e+00 2.1889409e-07 0.0000000e+00 
0.0000000e+00 9.7987743e-07 0.0000000e+00 
0.0000000e+00 1.1926968e-06 0.0000000e+00 
0.0000000e+00 7.2392709e-07 0.0000000e+00 
0.0000000e+00 -1.5164882e-07 0.0000000e+00 
0.0000000e+00 -9.5229626e-07 0.0000000e+00 
0.0000000e+00 -1.2586967e-06 0.0000000e+00 
0.0000000e+00 -9.1132063e-07 0.0000000e+00 
0.0000000e+00 -8.8352671e-08 0.0000000e+00 
0.0000000e+00 7.6094329e-07 0.0000000e+00 
0.0000000e+00 1.1295465e-06 0.0000000e+00 
0.0000000e+00 0.0000000e+00 0.0000000e+00 
0.0000000e+00 0.0000000e+00 0.0000000e+00 
0.0000000e+00 0.0000000e+00 0.0000000e+00 
0.0000000e+00 0.0000000e+00 0.0000000e+00 
0.0000000e+00 0.0000000e+00 0.0000000e+00 
0.0000000e+00 0.0000000e+00 0.0000000e+00 
0.0000000e+00 0.0000000e+00 0.0000000e+00 
0.0000000e+00 0.0000000e+00 0.0000000e+00 
0.0000000e+00 0.0000000e+00 0.0000000e+00 
0.0000000e+00 0.0000000e+00 0.0000000e+00 
0.0000000e+00 0.0000000e+00 0.0000000e+00 
0.0000000e+00 0.0000000e+00 0.0000000e+00 
0.0000000e+00 0.0000000e+00 0.0000000e+00 
0.0000000e+00 0.0000000e+00 0.0000000e+00 
0.0000000e+00 0.0000000e+00 0.0000000e+00 
0.0000000e+00 0.0000000e+00 0.0000000e+00 
0.0000000e+00 0.0000000e+00 0.0000000e+00 
0.0000000e+00 0.0000000e+00 0.0000000e+00 
0.0000000e+00 0.0000000e+00 0.0000000e+00 
0.0000000e+00 0.0000000e+00 0.0000000e+00 
0.0000000e+00 0.0000000e+00 0.0000000e+00 
0.0000000e+00 0.0000000e+00 0.0000000e+00 
0.0000000e+00 0.0000000e+00 0.0000000e+00 
0.0000000e+00 0.0000000e+00 0.0000000e+00 
0.0000000e+00 0.0000000e+00 0.0000000e+00 
0.0000000e+00 0.0000000e+00 0.0000000e+00 
0.0000000e+00 0.0000000e+00 0.0000000e+00 
0.0000000e+00 0.0000000e+00 0.0000000e+00 
0.0000000e+00 0.0000000e+00 0.0000000e+00 
0.0000000e+00 0.0000000e+00 0.0000000e+00 
0.0000000e+00 0.0000000e+00 0.0000000e+00 
0.0000000e+00 0.0000000e+00 0.0000000e+00 
0.0000000e+00 0.0000000e+00 0.0000000e+00 
0.0000000e+00 0.0000000e+00 0.0000000e+00 
0.0000000e+00 0.0000000e+00 0.0000000e+00 
0.0000000e+00 0.0000000e+00 0.0000000e+00 
0.0000000e+00 0.0000000e+00 0.0000000e+00 
0.0000000e+00 0.0000000e+00 0.0000000e+00 
0.0000000e+00 0.0000000e+00 0.0000000e+00 
0.0000000e+00 0.0000000e+00 0.0000000e+00 
0.0000000e+00 0.0000000e+00 0.0000000e+00 
0.0000000e+00 0.0000000e+00 0.0000000e+00 
0.0000000e+00 0.0000000e+00 0.0000000e+00 
0.0000000e+00 0.0000000e+00 0.0000000e+00 
0.0000000e+00 0.0000000e+00 0.0000000e+00 
0.0000000e+00 0.0000000e+00 0.0000000e+00 
0.0000000e+00 0.0000000e+00 0.0000000e+00 
0.0000000e+00 0.0000000e+00 0.0000000e+00 
0.0000000e+00 0.0000000e+00 0.0000000e+00 
0.0000000e+00 0.0000000e+00 0.0000000e+00 
0.0000000e+00 0.0000000e+00 0.0000000e+00 
0.0000000e+00 0.0000000e+00 0.0000000e+00 
0.0000000e+00 0.0000000e+00 0.0000000e+00 
0.0000000e+00 0.0000000e+00 0.0000000e+00 
0.0000000e+00 0.0000000e+00 0.0000000e+00 
0.0000000e+00 0.0000000e+00 0.0000000e+00 
0.0000000e+00 0.0000000e+00 0.0000000e+00 
0.0000000e+00 0.0000000e+00 0.0000000e+00 