# vtk DataFile Version 4.0
vtk output
ASCII
DATASET UNSTRUCTURED_GRID
POINTS 2186 float
0.0000000e+00 0.0000000e+00 0.0000000e+00 
0.0000000e+00 0.0000000e+00 5.0000000e+01 
5.0000000e+00 0.0000000e+00 0.0000000e+00 
5.0000000e+00 0.0000000e+00 5.0000000e+01 
5.0000000e+00 1.0000000e+00 0.0000000e+00 
5.0000000e+00 1.0000000e+00 5.0000000e+01 
0.0000000e+00 1.0000000e+00 0.0000000e+00 
0.0000000e+00 1.0000000e+00 5.0000000e+01 
5.0000000e+00 2.0000000e+00 0.0000000e+00 
5.0000000e+00 2.0000000e+00 5.0000000e+01 
3.0000000e+00 2.0000000e+00 0.0000000e+00 
3.0000000e+00 2.0000000e+00 5.0000000e+01 
0.0000000e+00 2.0000000e+00 0.0000000e+00 
0.0000000e+00 2.0000000e+00 5.0000000e+01 
1.5000000e+00 3.0000000e+00 0.0000000e+00 
1.5000000e+00 3.0000000e+00 5.0000000e+01 
7.5000000e-01 3.0000000e+00 0.0000000e+00 
7.5000000e-01 3.0000000e+00 5.0000000e+01 
0.0000000e+00 3.0000000e+00 0.0000000e+00 
0.0000000e+00 3.0000000e+00 5.0000000e+01 
7.5000000e-01 3.0000000e+00 -2.5000000e+01 
7.5000000e-01 3.0000000e+00 -2.4500000e+01 
7.5000000e-01 3.0000000e+00 -2.4000000e+01 
7.5000000e-01 3.0000000e+00 -2.3500000e+01 
7.5000000e-01 3.0000000e+00 -2.3000000e+01 
7.5000000e-01 3.0000000e+00 -2.2500000e+01 
7.5000000e-01 3.0000000e+00 -2.2000000e+01 
7.5000000e-01 3.0000000e+00 -2.1500000e+01 
7.5000000e-01 3.0000000e+00 -2.1000000e+01 
7.5000000e-01 3.0000000e+00 -2.0500000e+01 
7.5000000e-01 3.0000000e+00 -2.0000000e+01 
7.5000000e-01 3.0000000e+00 -1.9500000e+01 
7.5000000e-01 3.0000000e+00 -1.9000000e+01 
7.5000000e-01 3.0000000e+00 -1.8500000e+01 
7.5000000e-01 3.0000000e+00 -1.8000000e+01 
7.5000000e-01 3.0000000e+00 -1.7500000e+01 
7.5000000e-01 3.0000000e+00 -1.7000000e+01 
7.5000000e-01 3.0000000e+00 -1.6500000e+01 
7.5000000e-01 3.0000000e+00 -1.6000000e+01 
7.5000000e-01 3.0000000e+00 -1.5500000e+01 
7.5000000e-01 3.0000000e+00 -1.5000000e+01 
7.5000000e-01 3.0000000e+00 -1.4500000e+01 
7.5000000e-01 3.0000000e+00 -1.4000000e+01 
7.5000000e-01 3.0000000e+00 -1.3500000e+01 
7.5000000e-01 3.0000000e+00 -1.3000000e+01 
7.5000000e-01 3.0000000e+00 -1.2500000e+01 
7.5000000e-01 3.0000000e+00 -1.2000000e+01 
7.5000000e-01 3.0000000e+00 -1.1500000e+01 
7.5000000e-01 3.0000000e+00 -1.1000000e+01 
7.5000000e-01 3.0000000e+00 -1.0500000e+01 
7.5000000e-01 3.0000000e+00 -1.0000000e+01 
7.5000000e-01 3.0000000e+00 -9.5000000e+00 
7.5000000e-01 3.0000000e+00 -9.0000000e+00 
7.5000000e-01 3.0000000e+00 -8.5000000e+00 
7.5000000e-01 3.0000000e+00 -8.0000000e+00 
7.5000000e-01 3.0000000e+00 -7.5000000e+00 
7.5000000e-01 3.0000000e+00 -7.0000000e+00 
7.5000000e-01 3.0000000e+00 -6.5000000e+00 
7.5000000e-01 3.0000000e+00 -6.0000000e+00 
7.5000000e-01 3.0000000e+00 -5.5000000e+00 
7.5000000e-01 3.0000000e+00 -5.0000000e+00 
7.5000000e-01 3.0000000e+00 -4.5000000e+00 
7.5000000e-01 3.0000000e+00 -4.0000000e+00 
7.5000000e-01 3.0000000e+00 -3.5000000e+00 
7.5000000e-01 3.0000000e+00 -3.0000000e+00 
7.5000000e-01 3.0000000e+00 -2.5000000e+00 
7.5000000e-01 3.0000000e+00 -2.0000000e+00 
7.5000000e-01 3.0000000e+00 -1.5000000e+00 
7.5000000e-01 3.0000000e+00 -1.0000000e+00 
7.5000000e-01 3.0000000e+00 -5.0000000e-01 
7.5000000e-01 3.0000000e+00 5.0000000e-01 
7.5000000e-01 3.0000000e+00 1.0000000e+00 
7.5000000e-01 3.0000000e+00 1.5000000e+00 
7.5000000e-01 3.0000000e+00 2.0000000e+00 
7.5000000e-01 3.0000000e+00 2.5000000e+00 
7.5000000e-01 3.0000000e+00 3.0000000e+00 
7.5000000e-01 3.0000000e+00 3.5000000e+00 
7.5000000e-01 3.0000000e+00 4.0000000e+00 
7.5000000e-01 3.0000000e+00 4.5000000e+00 
7.5000000e-01 3.0000000e+00 5.0000000e+00 
7.5000000e-01 3.0000000e+00 5.5000000e+00 
7.5000000e-01 3.0000000e+00 6.0000000e+00 
7.5000000e-01 3.0000000e+00 6.5000000e+00 
7.5000000e-01 3.0000000e+00 7.0000000e+00 
7.5000000e-01 3.0000000e+00 7.5000000e+00 
7.5000000e-01 3.0000000e+00 8.0000000e+00 
7.5000000e-01 3.0000000e+00 8.5000000e+00 
7.5000000e-01 3.0000000e+00 9.0000000e+00 
7.5000000e-01 3.0000000e+00 9.5000000e+00 
7.5000000e-01 3.0000000e+00 1.0000000e+01 
7.5000000e-01 3.0000000e+00 1.0500000e+01 
7.5000000e-01 3.0000000e+00 1.1000000e+01 
7.5000000e-01 3.0000000e+00 1.1500000e+01 
7.5000000e-01 3.0000000e+00 1.2000000e+01 
7.5000000e-01 3.0000000e+00 1.2500000e+01 
7.5000000e-01 3.0000000e+00 1.3000000e+01 
7.5000000e-01 3.0000000e+00 1.3500000e+01 
7.5000000e-01 3.0000000e+00 1.4000000e+01 
7.5000000e-01 3.0000000e+00 1.4500000e+01 
7.5000000e-01 3.0000000e+00 1.5000000e+01 
7.5000000e-01 3.0000000e+00 1.5500000e+01 
7.5000000e-01 3.0000000e+00 1.6000000e+01 
7.5000000e-01 3.0000000e+00 1.6500000e+01 
7.5000000e-01 3.0000000e+00 1.7000000e+01 
7.5000000e-01 3.0000000e+00 1.7500000e+01 
7.5000000e-01 3.0000000e+00 1.8000000e+01 
7.5000000e-01 3.0000000e+00 1.8500000e+01 
7.5000000e-01 3.0000000e+00 1.9000000e+01 
7.5000000e-01 3.0000000e+00 1.9500000e+01 
7.5000000e-01 3.0000000e+00 2.0000000e+01 
7.5000000e-01 3.0000000e+00 2.0500000e+01 
7.5000000e-01 3.0000000e+00 2.1000000e+01 
7.5000000e-01 3.0000000e+00 2.1500000e+01 
7.5000000e-01 3.0000000e+00 2.2000000e+01 
7.5000000e-01 3.0000000e+00 2.2500000e+01 
7.5000000e-01 3.0000000e+00 2.3000000e+01 
7.5000000e-01 3.0000000e+00 2.3500000e+01 
7.5000000e-01 3.0000000e+00 2.4000000e+01 
7.5000000e-01 3.0000000e+00 2.4500000e+01 
7.5000000e-01 3.0000000e+00 2.5000000e+01 
7.5000000e-01 3.0000000e+00 2.5500000e+01 
7.5000000e-01 3.0000000e+00 2.6000000e+01 
7.5000000e-01 3.0000000e+00 2.6500000e+01 
7.5000000e-01 3.0000000e+00 2.7000000e+01 
7.5000000e-01 3.0000000e+00 2.7500000e+01 
7.5000000e-01 3.0000000e+00 2.8000000e+01 
7.5000000e-01 3.0000000e+00 2.8500000e+01 
7.5000000e-01 3.0000000e+00 2.9000000e+01 
7.5000000e-01 3.0000000e+00 2.9500000e+01 
7.5000000e-01 3.0000000e+00 3.0000000e+01 
7.5000000e-01 3.0000000e+00 3.0500000e+01 
7.5000000e-01 3.0000000e+00 3.1000000e+01 
7.5000000e-01 3.0000000e+00 3.1500000e+01 
7.5000000e-01 3.0000000e+00 3.2000000e+01 
7.5000000e-01 3.0000000e+00 3.2500000e+01 
7.5000000e-01 3.0000000e+00 3.3000000e+01 
7.5000000e-01 3.0000000e+00 3.3500000e+01 
7.5000000e-01 3.0000000e+00 3.4000000e+01 
7.5000000e-01 3.0000000e+00 3.4500000e+01 
7.5000000e-01 3.0000000e+00 3.5000000e+01 
7.5000000e-01 3.0000000e+00 3.5500000e+01 
7.5000000e-01 3.0000000e+00 3.6000000e+01 
7.5000000e-01 3.0000000e+00 3.6500000e+01 
7.5000000e-01 3.0000000e+00 3.7000000e+01 
7.5000000e-01 3.0000000e+00 3.7500000e+01 
7.5000000e-01 3.0000000e+00 3.8000000e+01 
7.5000000e-01 3.0000000e+00 3.8500000e+01 
7.5000000e-01 3.0000000e+00 3.9000000e+01 
7.5000000e-01 3.0000000e+00 3.9500000e+01 
7.5000000e-01 3.0000000e+00 4.0000000e+01 
7.5000000e-01 3.0000000e+00 4.0500000e+01 
7.5000000e-01 3.0000000e+00 4.1000000e+01 
7.5000000e-01 3.0000000e+00 4.1500000e+01 
7.5000000e-01 3.0000000e+00 4.2000000e+01 
7.5000000e-01 3.0000000e+00 4.2500000e+01 
7.5000000e-01 3.0000000e+00 4.3000000e+01 
7.5000000e-01 3.0000000e+00 4.3500000e+01 
7.5000000e-01 3.0000000e+00 4.4000000e+01 
7.5000000e-01 3.0000000e+00 4.4500000e+01 
7.5000000e-01 3.0000000e+00 4.5000000e+01 
7.5000000e-01 3.0000000e+00 4.5500000e+01 
7.5000000e-01 3.0000000e+00 4.6000000e+01 
7.5000000e-01 3.0000000e+00 4.6500000e+01 
7.5000000e-01 3.0000000e+00 4.7000000e+01 
7.5000000e-01 3.0000000e+00 4.7500000e+01 
7.5000000e-01 3.0000000e+00 4.8000000e+01 
7.5000000e-01 3.0000000e+00 4.8500000e+01 
7.5000000e-01 3.0000000e+00 4.9000000e+01 
7.5000000e-01 3.0000000e+00 4.9500000e+01 
7.5000000e-01 3.0000000e+00 5.0500000e+01 
7.5000000e-01 3.0000000e+00 5.1000000e+01 
7.5000000e-01 3.0000000e+00 5.1500000e+01 
7.5000000e-01 3.0000000e+00 5.2000000e+01 
7.5000000e-01 3.0000000e+00 5.2500000e+01 
7.5000000e-01 3.0000000e+00 5.3000000e+01 
7.5000000e-01 3.0000000e+00 5.3500000e+01 
7.5000000e-01 3.0000000e+00 5.4000000e+01 
7.5000000e-01 3.0000000e+00 5.4500000e+01 
7.5000000e-01 3.0000000e+00 5.5000000e+01 
7.5000000e-01 3.0000000e+00 5.5500000e+01 
7.5000000e-01 3.0000000e+00 5.6000000e+01 
7.5000000e-01 3.0000000e+00 5.6500000e+01 
7.5000000e-01 3.0000000e+00 5.7000000e+01 
7.5000000e-01 3.0000000e+00 5.7500000e+01 
7.5000000e-01 3.0000000e+00 5.8000000e+01 
7.5000000e-01 3.0000000e+00 5.8500000e+01 
7.5000000e-01 3.0000000e+00 5.9000000e+01 
7.5000000e-01 3.0000000e+00 5.9500000e+01 
7.5000000e-01 3.0000000e+00 6.0000000e+01 
7.5000000e-01 3.0000000e+00 6.0500000e+01 
7.5000000e-01 3.0000000e+00 6.1000000e+01 
7.5000000e-01 3.0000000e+00 6.1500000e+01 
7.5000000e-01 3.0000000e+00 6.2000000e+01 
7.5000000e-01 3.0000000e+00 6.2500000e+01 
7.5000000e-01 3.0000000e+00 6.3000000e+01 
7.5000000e-01 3.0000000e+00 6.3500000e+01 
7.5000000e-01 3.0000000e+00 6.4000000e+01 
7.5000000e-01 3.0000000e+00 6.4500000e+01 
7.5000000e-01 3.0000000e+00 6.5000000e+01 
7.5000000e-01 3.0000000e+00 6.5500000e+01 
7.5000000e-01 3.0000000e+00 6.6000000e+01 
7.5000000e-01 3.0000000e+00 6.6500000e+01 
7.5000000e-01 3.0000000e+00 6.7000000e+01 
7.5000000e-01 3.0000000e+00 6.7500000e+01 
7.5000000e-01 3.0000000e+00 6.8000000e+01 
7.5000000e-01 3.0000000e+00 6.8500000e+01 
7.5000000e-01 3.0000000e+00 6.9000000e+01 
7.5000000e-01 3.0000000e+00 6.9500000e+01 
7.5000000e-01 3.0250001e+00 -2.5000000e+01 
7.5000000e-01 3.0250001e+00 -2.4500000e+01 
7.5000000e-01 3.0250001e+00 -2.4000000e+01 
7.5000000e-01 3.0250001e+00 -2.3500000e+01 
7.5000000e-01 3.0250001e+00 -2.3000000e+01 
7.5000000e-01 3.0250001e+00 -2.2500000e+01 
7.5000000e-01 3.0250001e+00 -2.2000000e+01 
7.5000000e-01 3.0250001e+00 -2.1500000e+01 
7.5000000e-01 3.0250001e+00 -2.1000000e+01 
7.5000000e-01 3.0250001e+00 -2.0500000e+01 
7.5000000e-01 3.0250001e+00 -2.0000000e+01 
7.5000000e-01 3.0250001e+00 -1.9500000e+01 
7.5000000e-01 3.0250001e+00 -1.9000000e+01 
7.5000000e-01 3.0250001e+00 -1.8500000e+01 
7.5000000e-01 3.0250001e+00 -1.8000000e+01 
7.5000000e-01 3.0250001e+00 -1.7500000e+01 
7.5000000e-01 3.0250001e+00 -1.7000000e+01 
7.5000000e-01 3.0250001e+00 -1.6500000e+01 
7.5000000e-01 3.0250001e+00 -1.6000000e+01 
7.5000000e-01 3.0250001e+00 -1.5500000e+01 
[...]
POINT_DATA 2186
FIELD FieldData 3
DISPLACEMENT 3 2186  float
0.0000000e+00 0.0000000e+00 0.0000000e+00 
0.0000000e+00 0.0000000e+00 0.0000000e+00 
0.0000000e+00 0.0000000e+00 0.0000000e+00 
0.0000000e+00 0.0000000e+00 0.0000000e+00 
2.6426428e-06 -1.1209762e-06 -3.4448831e-06 
-4.0995295e-07 1.7722260e-07 -5.0972466e-07 
0.0000000e+00 -5.0935910e-06 0.0000000e+00 
0.0000000e+00 1.3620846e-06 0.0000000e+00 
5.2863456e-06 -3.7692053e-06 -5.4339512e-06 
-1.8676529e-08 2.5539327e-07 -2.0630111e-07 
2.4363330e-06 -3.0858655e-06 -3.6155927e-06 
8.2583497e-08 2.3382404e-06 1.4672086e-07 
0.0000000e+00 -8.0438995e-06 0.0000000e+00 
0.0000000e+00 6.2844060e-07 0.0000000e+00 
1.1572755e-05 -1.3507572e-06 -2.0334650e-05 
-9.8458010e-08 6.0300763e-06 -2.3045645e-06 
5.9707249e-06 2.4570369e-05 -9.0593339e-06 
-4.4016483e-06 -1.0414409e-06 1.9732051e-06 
0.0000000e+00 -9.5932573e-06 0.0000000e+00 
0.0000000e+00 -6.0390016e-06 0.0000000e+00 
0.0000000e+00 1.0607871e-05 0.0000000e+00 
0.0000000e+00 1.0201551e-05 0.0000000e+00 
0.0000000e+00 8.0357459e-06 0.0000000e+00 
0.0000000e+00 2.8874085e-06 0.0000000e+00 
0.0000000e+00 -4.8429438e-06 0.0000000e+00 
0.0000000e+00 -1.2466672e-05 0.0000000e+00 
0.0000000e+00 -1.6267768e-05 0.0000000e+00 
0.0000000e+00 -1.3948891e-05 0.0000000e+00 
0.0000000e+00 -6.3939519e-06 0.0000000e+00 
0.0000000e+00 2.7073831e-06 0.0000000e+00 
0.0000000e+00 9.1769671e-06 0.0000000e+00 
0.0000000e+00 1.0895747e-05 0.0000000e+00 
0.0000000e+00 8.7339431e-06 0.0000000e+00 
0.0000000e+00 5.3292006e-06 0.0000000e+00 
0.0000000e+00 2.8454779e-06 0.0000000e+00 
0.0000000e+00 1.5426353e-06 0.0000000e+00 
0.0000000e+00 1.9445055e-07 0.0000000e+00 
0.0000000e+00 -2.2137249e-06 0.0000000e+00 
0.0000000e+00 -5.1472107e-06 0.0000000e+00 
0.0000000e+00 -6.8007153e-06 0.0000000e+00 
0.0000000e+00 -5.7569355e-06 0.0000000e+00 
0.0000000e+00 -2.5169873e-06 0.0000000e+00 
0.0000000e+00 5.4585712e-07 0.0000000e+00 
0.0000000e+00 9.4796860e-07 0.0000000e+00 
0.0000000e+00 -1.7517793e-06 0.0000000e+00 
0.0000000e+00 -5.1956863e-06 0.0000000e+00 
0.0000000e+00 -5.7130769e-06 0.0000000e+00 
0.0000000e+00 -1.1429672e-06 0.0000000e+00 
0.0000000e+00 7.1551503e-06 0.0000000e+00 
0.0000000e+00 1.4829924e-05 0.0000000e+00 
0.0000000e+00 1.7377330e-05 0.0000000e+00 
0.0000000e+00 1.3171401e-05 0.0000000e+00 
0.0000000e+00 4.4193494e-06 0.0000000e+00 
0.0000000e+00 -4.5404354e-06 0.0000000e+00 
0.0000000e+00 -1.0165235e-05 0.0000000e+00 
0.0000000e+00 -1.1661843e-05 0.0000000e+00 
0.0000000e+00 -1.0674062e-05 0.0000000e+00 
0.0000000e+00 -9.2397368e-06 0.0000000e+00 
0.0000000e+00 -7.9441970e-06 0.0000000e+00 
0.0000000e+00 -5.9337617e-06 0.0000000e+00 
0.0000000e+00 -2.5886318e-06 0.0000000e+00 
0.0000000e+00 1.0567392e-06 0.0000000e+00 
0.0000000e+00 2.7692786e-06 0.0000000e+00 
0.0000000e+00 1.0922231e-06 0.0000000e+00 
0.0000000e+00 -3.0033962e-06 0.0000000e+00 
0.0000000e+00 -6.2624904e-06 0.0000000e+00 
0.0000000e+00 -5.1027587e-06 0.0000000e+00 
0.0000000e+00 1.8228249e-06 0.0000000e+00 
0.0000000e+00 1.2216736e-05 0.0000000e+00 
0.0000000e+00 2.1211086e-05 0.0000000e+00 
8.5057072e-06 2.1283826e-05 -7.7835995e-07 
-2.8808747e-06 1.6811222e-05 -2.2437373e-06 
-7.0594865e-06 1.6875965e-05 -3.0686483e-06 
5.3190615e-07 2.1824259e-05 7.7635850e-06 
-1.0106251e-05 2.6035581e-05 -1.1795777e-06 
-1.4130842e-05 2.4135075e-05 -3.3720559e-07 
-2.4408853e-05 1.5084284e-05 7.3633023e-06 
-2.2645503e-05 4.4296789e-06 1.0526718e-05 
-2.6637977e-05 -1.5831182e-07 7.5669318e-06 
-2.5653797e-05 3.3332296e-06 -5.9217568e-06 
-2.7449749e-05 8.8654369e-06 -1.3545605e-05 
-2.5170646e-05 5.4592815e-06 -2.0266432e-05 
-2.2663140e-05 -5.3443887e-06 -2.0875925e-05 
-2.0797121e-05 -1.2465406e-05 -1.3039797e-05 
-2.7146758e-05 -6.7745104e-06 -7.1363652e-06 
-2.0030031e-05 1.2123584e-05 -6.3434195e-06 
-1.6746530e-05 3.0900796e-05 -5.1389661e-06 
-1.5316935e-05 3.0615203e-05 1.9908841e-06 
-8.2086808e-06 1.5307596e-05 7.2544240e-06 
-8.3318764e-06 1.5741716e-05 2.0500662e-05 
-3.4784587e-06 5.5735403e-05 2.8261924e-05 
4.9806467e-06 1.2164615e-04 4.1547300e-05 
8.0401760e-06 1.6629856e-04 6.4240063e-05 
1.3213355e-05 1.3776463e-04 6.9464440e-05 
4.4223734e-06 3.2497504e-05 9.1714704e-05 
-9.7238835e-06 -1.3349822e-04 1.6713490e-04 
-3.6302117e-05 -3.8554429e-04 1.9616054e-04 
-4.7437079e-05 -8.0493162e-04 1.5506329e-04 
-8.2698258e-05 -1.5444119e-03 2.7240641e-04 
-1.2104400e-04 -2.6998338e-03 1.6240067e-04 
-1.8854511e-04 -4.1120169e-03 2.5347006e-04 
-2.5615370e-04 -5.0996295e-03 7.1742004e-05 
-3.2919194e-04 -5.0106836e-03 3.8876336e-05 
-5.7399814e-04 -4.5037139e-03 -6.5843175e-05 
-2.5402088e-04 -4.2785490e-03 -2.0471216e-05 
-1.9923116e-04 -4.5190263e-03 -8.6011358e-05 
-2.2702770e-04 -4.6580196e-03 -1.5610881e-04 
-2.0235156e-04 -3.8088840e-03 -1.7246035e-04 
-1.2671466e-04 -2.4678609e-03 -3.1551655e-04 
-8.3083556e-05 -1.2221008e-03 -1.9207808e-04 
-2.4425080e-05 -3.5515183e-04 -2.1234906e-04 
-1.0457319e-05 1.0365109e-04 -1.2545186e-04 
8.3902396e-06 2.4856054e-04 -9.5899151e-05 
8.3891573e-06 2.2677581e-04 -6.3433865e-05 
4.8003726e-06 1.6151335e-04 -2.5860934e-05 
-5.6441331e-07 1.0236260e-04 -1.3342162e-05 
-1.2519416e-05 5.0968461e-05 7.5082025e-06 
-2.0231264e-05 2.3755415e-06 1.0446272e-05 
-2.0696880e-05 -3.2951313e-05 1.1356866e-05 
-2.5551717e-05 -3.9964634e-05 1.2027077e-05 
-1.7755639e-05 -1.9725174e-05 1.7613180e-05 
-1.8164630e-05 3.5067023e-06 2.0209669e-05 
-2.3612140e-05 1.1300492e-05 1.9912775e-05 
-1.9462817e-05 6.2290965e-06 1.4221083e-05 
-3.1697975e-05 4.4148314e-06 6.0260741e-06 
-2.6425689e-05 1.6840208e-05 -1.4162520e-06 
-1.8190569e-05 3.9276969e-05 -4.1052012e-06 
-1.1057614e-05 5.7130277e-05 2.1722012e-06 
-6.2171403e-06 6.0059934e-05 1.2072197e-05 
-6.4548844e-06 4.6297937e-05 2.1950189e-05 
-7.6159854e-06 3.7749283e-05 1.3410576e-05 
9.1393508e-07 6.6762092e-05 1.8201868e-05 
8.3884925e-06 1.2667124e-04 3.3484772e-05 
1.2716329e-05 1.5202991e-04 4.5381421e-05 
1.7733722e-05 7.4148113e-05 8.9077592e-05 
1.2723503e-05 -1.4653195e-04 1.2547227e-04 
-1.6000169e-05 -5.1718816e-04 1.8899047e-04 
-5.4060154e-05 -1.0445606e-03 1.6569944e-04 
-9.9950033e-05 -1.8147700e-03 2.9646399e-04 
-1.2553783e-04 -2.9027192e-03 1.5540949e-04 
-2.1073910e-04 -4.2045955e-03 2.2702766e-04 
-2.8968527e-04 -5.0904094e-03 7.9691250e-05 
-3.2434263e-04 -4.8718699e-03 2.5593970e-05 
-2.4088049e-04 -4.2912886e-03 9.0281528e-06 
-3.3722492e-04 -4.1279728e-03 -4.6232162e-05 
-8.0925020e-05 -4.4086692e-03 -9.4471608e-05 
-3.5346518e-04 -4.5539900e-03 -1.6918143e-04 
-9.4909126e-05 -3.6305359e-03 -1.8096810e-04 
-1.9289408e-04 -2.2635758e-03 -3.0925902e-04 
-4.8420006e-05 -1.0625292e-03 -2.2580216e-04 
-1.9718344e-05 -2.7787659e-04 -2.2082470e-04 
3.7920345e-06 1.0426902e-04 -1.3271686e-04 
2.1424012e-05 2.1960777e-04 -8.9495064e-05 
2.3825178e-05 2.0632274e-04 -5.3255557e-05 
2.3561503e-05 1.5087954e-04 -1.5631325e-05 
1.9295103e-05 8.4739244e-05 -4.9727464e-06 
1.3617756e-05 2.2485803e-05 7.9391202e-06 
8.2990700e-06 -1.8578334e-05 7.0440346e-06 
2.8332495e-06 -2.9601026e-05 1.3933724e-05 
3.0071083e-06 -2.2496484e-05 1.6480672e-05 
4.1442877e-06 -1.4928445e-05 1.5492113e-05 
-6.4335148e-07 -1.1331881e-05 1.6823144e-05 
-1.0742298e-06 -5.9528488e-06 1.6278782e-05 
-3.9968785e-07 2.9204057e-06 1.2840062e-05 
-7.8077483e-06 1.0093656e-05 4.2856300e-06 
-5.4617985e-06 1.0424917e-05 -2.1031344e-06 
2.0866137e-08 5.1528218e-06 -3.6429587e-06 
8.4419202e-07 -5.8768041e-08 -9.4518805e-07 
2.5233189e-06 -1.7197017e-06 3.7337079e-06 
0.0000000e+00 -9.5407677e-07 0.0000000e+00 
0.0000000e+00 -2.4400854e-06 0.0000000e+00 
0.0000000e+00 -3.7542256e-06 0.0000000e+00 
0.0000000e+00 -3.2777364e-06 0.0000000e+00 
0.0000000e+00 -1.7484466e-06 0.0000000e+00 
0.0000000e+00 -1.1310597e-06 0.0000000e+00 
0.0000000e+00 -1.9105264e-06 0.0000000e+00 
0.0000000e+00 -2.4752569e-06 0.0000000e+00 
0.0000000e+00 -1.2856254e-06 0.0000000e+00 
0.0000000e+00 1.0964693e-06 0.0000000e+00 
0.0000000e+00 2.6529640e-06 0.0000000e+00 
0.0000000e+00 2.2489303e-06 0.0000000e+00 
0.0000000e+00 7.3432966e-07 0.0000000e+00 
0.0000000e+00 -3.0708526e-07 0.0000000e+00 
0.0000000e+00 -3.6495140e-07 0.0000000e+00 
0.0000000e+00 -1.9488654e-07 0.0000000e+00 
0.0000000e+00 -4.8206692e-07 0.0000000e+00 
0.0000000e+00 -8.8255712e-07 0.0000000e+00 
0.0000000e+00 -6.0452902e-07 0.0000000e+00 
0.0000000e+00 3.8870513e-07 0.0000000e+00 
0.0000000e+00 1.1848390e-06 0.0000000e+00 
0.0000000e+00 9.7094869e-07 0.0000000e+00 
0.0000000e+00 -2.8632803e-08 0.0000000e+00 
0.0000000e+00 -8.6264782e-07 0.0000000e+00 
0.0000000e+00 -9.4003252e-07 0.0000000e+00 
0.0000000e+00 -5.3008267e-07 0.0000000e+00 
0.0000000e+00 -1.8574148e-07 0.0000000e+00 
0.0000000e+00 1.1687425e-08 0.0000000e+00 
0.0000000e+00 3.8439097e-07 0.0000000e+00 
0.0000000e+00 9.6420331e-07 0.0000000e+00 
0.0000000e+00 1.2177295e-06 0.0000000e+00 
0.0000000e+00 6.3946675e-07 0.0000000e+00 
0.0000000e+00 -5.3082709e-07 0.0000000e+00 
0.0000000e+00 -1.4171659e-06 0.0000000e+00 
0.0000000e+00 -1.3653843e-06 0.0000000e+00 
0.0000000e+00 -5.5107324e-07 0.0000000e+00 
0.0000000e+00 3.2302185e-07 0.0000000e+00 
0.0000000e+00 7.8417588e-07 0.0000000e+00 
0.0000000e+00 8.8318421e-07 0.0000000e+00 
0.0000000e+00 1.0656292e-05 0.0000000e+00 
0.0000000e+00 1.0220231e-05 0.0000000e+00 
0.0000000e+00 7.9967167e-06 0.0000000e+00 
0.0000000e+00 2.8181837e-06 0.0000000e+00 
0.0000000e+00 -4.8837201e-06 0.0000000e+00 
0.0000000e+00 -1.2439701e-05 0.0000000e+00 
0.0000000e+00 -1.6188857e-05 0.0000000e+00 
0.0000000e+00 -1.3878812e-05 0.0000000e+00 
0.0000000e+00 -6.3893949e-06 0.0000000e+00 
0.0000000e+00 2.6407486e-06 0.0000000e+00 
0.0000000e+00 9.0896237e-06 0.0000000e+00 
0.0000000e+00 1.0853608e-05 0.0000000e+00 
0.0000000e+00 8.7658655e-06 0.0000000e+00 
0.0000000e+00 5.4054130e-06 0.0000000e+00 
0.0000000e+00 2.9036655e-06 0.0000000e+00 
0.0000000e+00 1.5398618e-06 0.0000000e+00 
0.0000000e+00 1.4184077e-07 0.0000000e+00 
0.0000000e+00 -2.2629474e-06 0.0000000e+00 
0.0000000e+00 -5.1459847e-06 0.0000000e+00 
0.0000000e+00 -6.7500564e-06 0.0000000e+00 
0.0000000e+00 -5.7047714e-06 0.0000000e+00 
0.0000000e+00 -2.5162979e-06 0.0000000e+00 
0.0000000e+00 4.8281805e-07 0.0000000e+00 
0.0000000e+00 8.6253129e-07 0.0000000e+00 
0.0000000e+00 -1.7939553e-06 0.0000000e+00 
0.0000000e+00 -5.1551228e-06 0.0000000e+00 
0.0000000e+00 -5.6115205e-06 0.0000000e+00 
0.0000000e+00 -1.0525440e-06 0.0000000e+00 
0.0000000e+00 7.1667341e-06 0.0000000e+00 
0.0000000e+00 1.4755531e-05 0.0000000e+00 
0.0000000e+00 1.7277418e-05 0.0000000e+00 
0.0000000e+00 1.3124097e-05 0.0000000e+00 
0.0000000e+00 4.4581575e-06 0.0000000e+00 
0.0000000e+00 -4.4494059e-06 0.0000000e+00 
0.0000000e+00 -1.0093329e-05 0.0000000e+00 
0.0000000e+00 -1.1661831e-05 0.0000000e+00 
0.0000000e+00 -1.0738979e-05 0.0000000e+00 
0.0000000e+00 -9.3091458e-06 0.0000000e+00 
0.0000000e+00 -7.9588999e-06 0.0000000e+00 
0.0000000e+00 -5.8931309e-06 0.0000000e+00 
0.0000000e+00 -2.5507154e-06 0.0000000e+00 
0.0000000e+00 1.0365808e-06 0.0000000e+00 
0.0000000e+00 2.6949799e-06 0.0000000e+00 
0.0000000e+00 1.0202953e-06 0.0000000e+00 
0.0000000e+00 -3.0164999e-06 0.0000000e+00 
0.0000000e+00 -6.2021418e-06 0.0000000e+00 
0.0000000e+00 -5.0038343e-06 0.0000000e+00 
0.0000000e+00 1.8945180e-06 0.0000000e+00 
0.0000000e+00 1.2209131e-05 0.0000000e+00 
0.0000000e+00 2.1141659e-05 0.0000000e+00 
0.0000000e+00 2.4385590e-05 0.0000000e+00 
0.0000000e+00 2.1298940e-05 0.0000000e+00 
0.0000000e+00 1.7013208e-05 0.0000000e+00 
0.0000000e+00 1.7102915e-05 0.0000000e+00 
0.0000000e+00 2.1822420e-05 0.0000000e+00 
0.0000000e+00 2.5918449e-05 0.0000000e+00 
0.0000000e+00 2.3941760e-05 0.0000000e+00 
0.0000000e+00 1.4983761e-05 0.0000000e+00 
0.0000000e+00 4.5778615e-06 0.0000000e+00 
0.0000000e+00 1.6071203e-07 0.0000000e+00 
0.0000000e+00 3.6291294e-06 0.0000000e+00 
0.0000000e+00 8.4706535e-06 0.0000000e+00 
0.0000000e+00 5.0947178e-06 0.0000000e+00 
0.0000000e+00 -5.4012967e-06 0.0000000e+00 
0.0000000e+00 -1.2280494e-05 0.0000000e+00 
0.0000000e+00 -6.2086729e-06 0.0000000e+00 
0.0000000e+00 1.2546524e-05 0.0000000e+00 
0.0000000e+00 3.0260315e-05 0.0000000e+00 
0.0000000e+00 2.9636130e-05 0.0000000e+00 
0.0000000e+00 1.5106885e-05 0.0000000e+00 
0.0000000e+00 1.6660579e-05 0.0000000e+00 
0.0000000e+00 5.7286285e-05 0.0000000e+00 
0.0000000e+00 1.2263819e-04 0.0000000e+00 
0.0000000e+00 1.6488046e-04 0.0000000e+00 
0.0000000e+00 1.3666162e-04 0.0000000e+00 
0.0000000e+00 3.3249955e-05 0.0000000e+00 
0.0000000e+00 -1.3186823e-04 0.0000000e+00 
0.0000000e+00 -3.8248699e-04 0.0000000e+00 
0.0000000e+00 -8.0558972e-04 0.0000000e+00 
0.0000000e+00 -1.5523203e-03 0.0000000e+00 
0.0000000e+00 -2.7194293e-03 0.0000000e+00 
0.0000000e+00 -4.1303458e-03 0.0000000e+00 
0.0000000e+00 -5.1270910e-03 0.0000000e+00 
0.0000000e+00 -5.0361734e-03 0.0000000e+00 
0.0000000e+00 -4.5222631e-03 0.0000000e+00 
0.0000000e+00 -4.3057809e-03 0.0000000e+00 
0.0000000e+00 -4.5503597e-03 0.0000000e+00 
0.0000000e+00 -4.6821516e-03 0.0000000e+00 
0.0000000e+00 -3.8336124e-03 0.0000000e+00 
0.0000000e+00 -2.4808496e-03 0.0000000e+00 
0.0000000e+00 -1.2313012e-03 0.0000000e+00 
0.0000000e+00 -3.5923088e-04 0.0000000e+00 
0.0000000e+00 1.0267198e-04 0.0000000e+00 
0.0000000e+00 2.5010272e-04 0.0000000e+00 
0.0000000e+00 2.2956474e-04 0.0000000e+00 
0.0000000e+00 1.6293264e-04 0.0000000e+00 
0.0000000e+00 1.0235822e-04 0.0000000e+00 
0.0000000e+00 5.0538856e-05 0.0000000e+00 
0.0000000e+00 2.4413907e-06 0.0000000e+00 
0.0000000e+00 -3.2455911e-05 0.0000000e+00 
0.0000000e+00 -3.9409959e-05 0.0000000e+00 
0.0000000e+00 -1.9940180e-05 0.0000000e+00 
0.0000000e+00 3.0256833e-06 0.0000000e+00 
0.0000000e+00 1.0905645e-05 0.0000000e+00 
0.0000000e+00 6.2345307e-06 0.0000000e+00 
0.0000000e+00 4.7559988e-06 0.0000000e+00 
0.0000000e+00 1.7209499e-05 0.0000000e+00 
0.0000000e+00 3.9436753e-05 0.0000000e+00 
0.0000000e+00 5.7219775e-05 0.0000000e+00 
0.0000000e+00 5.9185033e-05 0.0000000e+00 
0.0000000e+00 4.5460958e-05 0.0000000e+00 
0.0000000e+00 3.8645685e-05 0.0000000e+00 
0.0000000e+00 6.8997309e-05 0.0000000e+00 
0.0000000e+00 1.2775350e-04 0.0000000e+00 
0.0000000e+00 1.5179128e-04 0.0000000e+00 
0.0000000e+00 7.2484501e-05 0.0000000e+00 
0.0000000e+00 -1.4762864e-04 0.0000000e+00 
0.0000000e+00 -5.1465561e-04 0.0000000e+00 
0.0000000e+00 -1.0443742e-03 0.0000000e+00 
0.0000000e+00 -1.8195780e-03 0.0000000e+00 
0.0000000e+00 -2.9207519e-03 0.0000000e+00 
0.0000000e+00 -4.2274273e-03 0.0000000e+00 
0.0000000e+00 -5.1219361e-03 0.0000000e+00 
0.0000000e+00 -4.8918114e-03 0.0000000e+00 
0.0000000e+00 -4.3184920e-03 0.0000000e+00 
0.0000000e+00 -4.1477787e-03 0.0000000e+00 
0.0000000e+00 -4.4411947e-03 0.0000000e+00 
0.0000000e+00 -4.5792372e-03 0.0000000e+00 
0.0000000e+00 -3.6528443e-03 0.0000000e+00 
0.0000000e+00 -2.2770565e-03 0.0000000e+00 
0.0000000e+00 -1.0717303e-03 0.0000000e+00 
0.0000000e+00 -2.8128282e-04 0.0000000e+00 
0.0000000e+00 1.0522616e-04 0.0000000e+00 
0.0000000e+00 2.2172453e-04 0.0000000e+00 
0.0000000e+00 2.0793092e-04 0.0000000e+00 
0.0000000e+00 1.5125344e-04 0.0000000e+00 
0.0000000e+00 8.4853600e-05 0.0000000e+00 
0.0000000e+00 2.3001956e-05 0.0000000e+00 
0.0000000e+00 -1.7937951e-05 0.0000000e+00 
0.0000000e+00 -2.9631885e-05 0.0000000e+00 
0.0000000e+00 -2.3044184e-05 0.0000000e+00 
0.0000000e+00 -1.5169512e-05 0.0000000e+00 
0.0000000e+00 -1.1068918e-05 0.0000000e+00 
0.0000000e+00 -5.7535872e-06 0.0000000e+00 
0.0000000e+00 2.8028319e-06 0.0000000e+00 
0.0000000e+00 9.8583532e-06 0.0000000e+00 
0.0000000e+00 1.0356636e-05 0.0000000e+00 
0.0000000e+00 5.2912451e-06 0.0000000e+00 
0.0000000e+00 7.5770686e-08 0.0000000e+00 
0.0000000e+00 -1.7259097e-06 0.0000000e+00 
0.0000000e+00 -1.1280007e-06 0.0000000e+00 
0.0000000e+00 -1.0181245e-06 0.0000000e+00 
0.0000000e+00 -2.4029312e-06 0.0000000e+00 
0.0000000e+00 -3.6807123e-06 0.0000000e+00 
0.0000000e+00 -3.2734545e-06 0.0000000e+00 
0.0000000e+00 -1.8213487e-06 0.0000000e+00 
0.0000000e+00 -1.1886038e-06 0.0000000e+00 
0.0000000e+00 -1.8845165e-06 0.0000000e+00 
0.0000000e+00 -2.4051747e-06 0.0000000e+00 
0.0000000e+00 -1.2600131e-06 0.0000000e+00 
0.0000000e+00 1.0524901e-06 0.0000000e+00 
0.0000000e+00 2.5998620e-06 0.0000000e+00 
0.0000000e+00 2.2493041e-06 0.0000000e+00 
0.0000000e+00 7.7831282e-07 0.0000000e+00 
0.0000000e+00 -2.7947237e-07 0.0000000e+00 
0.0000000e+00 -3.8445515e-07 0.0000000e+00 
0.0000000e+00 -2.2939538e-07 0.0000000e+00 
0.0000000e+00 -4.8363239e-07 0.0000000e+00 
0.0000000e+00 -8.4894873e-07 0.0000000e+00 
0.0000000e+00 -5.7878350e-07 0.0000000e+00 
0.0000000e+00 3.7463082e-07 0.0000000e+00 
0.0000000e+00 1.1486903e-06 0.0000000e+00 
0.0000000e+00 9.5518067e-07 0.0000000e+00 
0.0000000e+00 -9.8069091e-09 0.0000000e+00 
0.0000000e+00 -8.3704612e-07 0.0000000e+00 
0.0000000e+00 -9.3873581e-07 0.0000000e+00 
0.0000000e+00 -5.4885294e-07 0.0000000e+00 
0.0000000e+00 -1.9468388e-07 0.0000000e+00 
0.0000000e+00 2.6535135e-08 0.0000000e+00 
0.0000000e+00 4.0288322e-07 0.0000000e+00 
0.0000000e+00 9.5933945e-07 0.0000000e+00 
0.0000000e+00 1.1915217e-06 0.0000000e+00 
0.0000000e+00 6.2142965e-07 0.0000000e+00 
0.0000000e+00 -5.1980788e-07 0.0000000e+00 
0.0000000e+00 -1.3898683e-06 0.0000000e+00 
0.0000000e+00 -1.3518983e-06 0.0000000e+00 
0.0000000e+00 -5.6270000e-07 0.0000000e+00 
0.0000000e+00 3.0482838e-07 0.0000000e+00 
0.0000000e+00 7.8165283e-07 0.0000000e+00 
0.0000000e+00 8.9255786e-07 0.0000000e+00 
0.0000000e+00 0.0000000e+00 0.0000000e+00 
0.0000000e+00 0.0000000e+00 0.0000000e+00 
0.0000000e+00 0.0000000e+00 0.0000000e+00 
0.0000000e+00 0.0000000e+00 0.0000000e+00 
0.0000000e+00 0.0000000e+00 0.0000000e+00 
0.0000000e+00 0.0000000e+00 0.0000000e+00 
0.0000000e+00 0.0000000e+00 0.0000000e+00 
0.0000000e+00 0.0000000e+00 0.0000000e+00 
0.0000000e+00 0.0000000e+00 0.0000000e+00 
0.0000000e+00 0.0000000e+00 0.0000000e+00 
0.0000000e+00 0.0000000e+00 0.0000000e+00 
0.0000000e+00 0.0000000e+00 0.0000000e+00 
0.0000000e+00 0.0000000e+00 0.0000000e+00 
0.0000000e+00 0.0000000e+00 0.0000000e+00 
0.0000000e+00 0.0000000e+00 0.0000000e+00 
0.0000000e+00 0.0000000e+00 0.0000000e+00 
0.0000000e+00 0.0000000e+00 0.0000000e+00 
0.0000000e+00 0.0000000e+00 0.0000000e+00 
0.0000000e+00 0.0000000e+00 0.0000000e+00 
0.0000000e+00 0.0000000e+00 0.0000000e+00 
0.0000000e+00 0.0000000e+00 0.0000000e+00 
0.0000000e+00 0.0000000e+00 0.0000000e+00 
0.0000000e+00 0.0000000e+00 0.0000000e+00 
0.0000000e+00 0.0000000e+00 0.0000000e+00 
0.0000000e+00 0.0000000e+00 0.0000000e+00 
0.0000000e+00 0.0000000e+00 0.0000000e+00 
0.0000000e+00 0.0000000e+00 0.0000000e+00 
0.0000000e+00 0.0000000e+00 0.0000000e+00 
0.0000000e+00 0.0000000e+00 0.0000000e+00 
0.0000000e+00 0.0000000e+00 0.0000000e+00 
0.0000000e+00 0.0000000e+00 0.0000000e+00 
0.0000000e+00 0.0000000e+00 0.0000000e+00 
0.0000000e+00 0.0000000e+00 0.0000000e+00 
0.0000000e+00 0.0000000e+00 0.0000000e+00 
0.0000000e+00 0.0000000e+00 0.0000000e+00 
0.0000000e+00 0.0000000e+00 0.0000000e+00 
0.0000000e+00 0.0000000e+00 0.0000000e+00 
0.0000000e+00 0.0000000e+00 0.0000000e+00 
0.0000000e+00 0.0000000e+00 0.0000000e+00 
0.0000000e+00 0.0000000e+00 0.0000000e+00 
0.0000000e+00 0.0000000e+00 0.0000000e+00 
0.0000000e+00 0.0000000e+00 0.0000000e+00 
0.0000000e+00 0.0000000e+00 0.0000000e+00 
0.0000000e+00 0.0000000e+00 0.0000000e+00 
0.0000000e+00 0.0000000e+00 0.0000000e+00 
0.0000000e+00 0.0000000e+00 0.0000000e+00 
0.0000000e+00 0.0000000e+00 0.0000000e+00 
0.0000000e+00 0.0000000e+00 0.0000000e+00 
0.0000000e+00 0.0000000e+00 0.0000000e+00 
0.0000000e+00 0.0000000e+00 0.0000000e+00 
0.0000000e+00 0.0000000e+00 0.0000000e+00 
0.0000000e+00 0.0000000e+00 0.0000000e+00 
0.0000000e+00 0.0000000e+00 0.0000000e+00 
0.0000000e+00 0.0000000e+00 0.0000000e+00 
0.0000000e+00 0.0000000e+00 0.0000000e+00 
0.0000000e+00 0.0000000e+00 0.0000000e+00 
0.0000000e+00 0.0000000e+00 0.0000000e+00 
0.0000000e+00 0.0000000e+00 0.0000000e+00 