# vtk DataFile Version 4.0
vtk output
ASCII
DATASET UNSTRUCTURED_GRID
POINTS 2186 float
0.0000000e+00 0.0000000e+00 0.0000000e+00 
0.0000000e+00 0.0000000e+00 5.0000000e+01 
5.0000000e+00 0.0000000e+00 0.0000000e+00 
5.0000000e+00 0.0000000e+00 5.0000000e+01 
5.0000000e+00 1.0000000e+00 0.0000000e+00 
5.0000000e+00 1.0000000e+00 5.0000000e+01 
0.0000000e+00 1.0000000e+00 0.0000000e+00 
0.0000000e+00 1.0000000e+00 5.0000000e+01 
5.0000000e+00 2.0000000e+00 0.0000000e+00 
5.0000000e+00 2.0000000e+00 5.0000000e+01 
3.0000000e+00 2.0000000e+00 0.0000000e+00 
3.0000000e+00 2.0000000e+00 5.0000000e+01 
0.0000000e+00 2.0000000e+00 0.0000000e+00 
0.0000000e+00 2.0000000e+00 5.0000000e+01 
1.5000000e+00 3.0000000e+00 0.0000000e+00 
1.5000000e+00 3.0000000e+00 5.0000000e+01 
7.5000000e-01 3.0000000e+00 0.0000000e+00 
7.5000000e-01 3.0000000e+00 5.0000000e+01 
0.0000000e+00 3.0000000e+00 0.0000000e+00 
0.0000000e+00 3.0000000e+00 5.0000000e+01 
7.5000000e-01 3.0000000e+00 -2.5000000e+01 
7.5000000e-01 3.0000000e+00 -2.4500000e+01 
7.5000000e-01 3.0000000e+00 -2.4000000e+01 
7.5000000e-01 3.0000000e+00 -2.3500000e+01 
7.5000000e-01 3.0000000e+00 -2.3000000e+01 
7.5000000e-01 3.0000000e+00 -2.2500000e+01 
7.5000000e-01 3.0000000e+00 -2.2000000e+01 
7.5000000e-01 3.0000000e+00 -2.1500000e+01 
7.5000000e-01 3.0000000e+00 -2.1000000e+01 
7.5000000e-01 3.0000000e+00 -2.0500000e+01 
7.5000000e-01 3.0000000e+00 -2.0000000e+01 
7.5000000e-01 3.0000000e+00 -1.9500000e+01 
7.5000000e-01 3.0000000e+00 -1.9000000e+01 
7.5000000e-01 3.0000000e+00 -1.8500000e+01 
7.5000000e-01 3.0000000e+00 -1.8000000e+01 
7.5000000e-01 3.0000000e+00 -1.7500000e+01 
7.5000000e-01 3.0000000e+00 -1.7000000e+01 
7.5000000e-01 3.0000000e+00 -1.6500000e+01 
7.5000000e-01 3.0000000e+00 -1.6000000e+01 
7.5000000e-01 3.0000000e+00 -1.5500000e+01 
7.5000000e-01 3.0000000e+00 -1.5000000e+01 
7.5000000e-01 3.0000000e+00 -1.4500000e+01 
7.5000000e-01 3.0000000e+00 -1.4000000e+01 
7.5000000e-01 3.0000000e+00 -1.3500000e+01 
7.5000000e-01 3.0000000e+00 -1.3000000e+01 
7.5000000e-01 3.0000000e+00 -1.2500000e+01 
7.5000000e-01 3.0000000e+00 -1.2000000e+01 
7.5000000e-01 3.0000000e+00 -1.1500000e+01 
7.5000000e-01 3.0000000e+00 -1.1000000e+01 
7.5000000e-01 3.0000000e+00 -1.0500000e+01 
7.5000000e-01 3.0000000e+00 -1.0000000e+01 
7.5000000e-01 3.0000000e+00 -9.5000000e+00 
7.5000000e-01 3.0000000e+00 -9.0000000e+00 
7.5000000e-01 3.0000000e+00 -8.5000000e+00 
7.5000000e-01 3.0000000e+00 -8.0000000e+00 
7.5000000e-01 3.0000000e+00 -7.5000000e+00 
7.5000000e-01 3.0000000e+00 -7.0000000e+00 
7.5000000e-01 3.0000000e+00 -6.5000000e+00 
7.5000000e-01 3.0000000e+00 -6.0000000e+00 
7.5000000e-01 3.0000000e+00 -5.5000000e+00 
7.5000000e-01 3.0000000e+00 -5.0000000e+00 
7.5000000e-01 3.0000000e+00 -4.5000000e+00 
7.5000000e-01 3.0000000e+00 -4.0000000e+00 
7.5000000e-01 3.0000000e+00 -3.5000000e+00 
7.5000000e-01 3.0000000e+00 -3.0000000e+00 
7.5000000e-01 3.0000000e+00 -2.5000000e+00 
7.5000000e-01 3.0000000e+00 -2.0000000e+00 
7.5000000e-01 3.0000000e+00 -1.5000000e+00 
7.5000000e-01 3.0000000e+00 -1.0000000e+00 
7.5000000e-01 3.0000000e+00 -5.0000000e-01 
7.5000000e-01 3.0000000e+00 5.0000000e-01 
7.5000000e-01 3.0000000e+00 1.0000000e+00 
7.5000000e-01 3.0000000e+00 1.5000000e+00 
7.5000000e-01 3.0000000e+00 2.0000000e+00 
7.5000000e-01 3.0000000e+00 2.5000000e+00 
7.5000000e-01 3.0000000e+00 3.0000000e+00 
7.5000000e-01 3.0000000e+00 3.5000000e+00 
7.5000000e-01 3.0000000e+00 4.0000000e+00 
7.5000000e-01 3.0000000e+00 4.5000000e+00 
7.5000000e-01 3.0000000e+00 5.0000000e+00 
7.5000000e-01 3.0000000e+00 5.5000000e+00 
7.5000000e-01 3.0000000e+00 6.0000000e+00 
7.5000000e-01 3.0000000e+00 6.5000000e+00 
7.5000000e-01 3.0000000e+00 7.0000000e+00 
7.5000000e-01 3.0000000e+00 7.5000000e+00 
7.5000000e-01 3.0000000e+00 8.0000000e+00 
7.5000000e-01 3.0000000e+00 8.5000000e+00 
7.5000000e-01 3.0000000e+00 9.0000000e+00 
7.5000000e-01 3.0000000e+00 9.5000000e+00 
7.5000000e-01 3.0000000e+00 1.0000000e+01 
7.5000000e-01 3.0000000e+00 1.0500000e+01 
7.5000000e-01 3.0000000e+00 1.1000000e+01 
7.5000000e-01 3.0000000e+00 1.1500000e+01 
7.5000000e-01 3.0000000e+00 1.2000000e+01 
7.5000000e-01 3.0000000e+00 1.2500000e+01 
7.5000000e-01 3.0000000e+00 1.3000000e+01 
7.5000000e-01 3.0000000e+00 1.3500000e+01 
7.5000000e-01 3.0000000e+00 1.4000000e+01 
7.5000000e-01 3.0000000e+00 1.4500000e+01 
7.5000000e-01 3.0000000e+00 1.5000000e+01 
7.5000000e-01 3.0000000e+00 1.5500000e+01 
7.5000000e-01 3.0000000e+00 1.6000000e+01 
7.5000000e-01 3.0000000e+00 1.6500000e+01 
7.5000000e-01 3.0000000e+00 1.7000000e+01 
7.5000000e-01 3.0000000e+00 1.7500000e+01 
7.5000000e-01 3.0000000e+00 1.8000000e+01 
7.5000000e-01 3.0000000e+00 1.8500000e+01 
7.5000000e-01 3.0000000e+00 1.9000000e+01 
7.5000000e-01 3.0000000e+00 1.9500000e+01 
7.5000000e-01 3.0000000e+00 2.0000000e+01 
7.5000000e-01 3.0000000e+00 2.0500000e+01 
7.5000000e-01 3.0000000e+00 2.1000000e+01 
7.5000000e-01 3.0000000e+00 2.1500000e+01 
7.5000000e-01 3.0000000e+00 2.2000000e+01 
7.5000000e-01 3.0000000e+00 2.2500000e+01 
7.5000000e-01 3.0000000e+00 2.3000000e+01 
7.5000000e-01 3.0000000e+00 2.3500000e+01 
7.5000000e-01 3.0000000e+00 2.4000000e+01 
7.5000000e-01 3.0000000e+00 2.4500000e+01 
7.5000000e-01 3.0000000e+00 2.5000000e+01 
7.5000000e-01 3.0000000e+00 2.5500000e+01 
7.5000000e-01 3.0000000e+00 2.6000000e+01 
7.5000000e-01 3.0000000e+00 2.6500000e+01 
7.5000000e-01 3.0000000e+00 2.7000000e+01 
7.5000000e-01 3.0000000e+00 2.7500000e+01 
7.5000000e-01 3.0000000e+00 2.8000000e+01 
7.5000000e-01 3.0000000e+00 2.8500000e+01 
7.5000000e-01 3.0000000e+00 2.9000000e+01 
7.5000000e-01 3.0000000e+00 2.9500000e+01 
7.5000000e-01 3.0000000e+00 3.0000000e+01 
7.5000000e-01 3.0000000e+00 3.0500000e+01 
7.5000000e-01 3.0000000e+00 3.1000000e+01 
7.5000000e-01 3.0000000e+00 3.1500000e+01 
7.5000000e-01 3.0000000e+00 3.2000000e+01 
7.5000000e-01 3.0000000e+00 3.2500000e+01 
7.5000000e-01 3.0000000e+00 3.3000000e+01 
7.5000000e-01 3.0000000e+00 3.3500000e+01 
7.5000000e-01 3.0000000e+00 3.4000000e+01 
7.5000000e-01 3.0000000e+00 3.4500000e+01 
7.5000000e-01 3.0000000e+00 3.5000000e+01 
7.5000000e-01 3.0000000e+00 3.5500000e+01 
7.5000000e-01 3.0000000e+00 3.6000000e+01 
7.5000000e-01 3.0000000e+00 3.6500000e+01 
7.5000000e-01 3.0000000e+00 3.7000000e+01 
7.5000000e-01 3.0000000e+00 3.7500000e+01 
7.5000000e-01 3.0000000e+00 3.8000000e+01 
7.5000000e-01 3.0000000e+00 3.8500000e+01 
7.5000000e-01 3.0000000e+00 3.9000000e+01 
7.5000000e-01 3.0000000e+00 3.9500000e+01 
7.5000000e-01 3.0000000e+00 4.0000000e+01 
7.5000000e-01 3.0000000e+00 4.0500000e+01 
7.5000000e-01 3.0000000e+00 4.1000000e+01 
7.5000000e-01 3.0000000e+00 4.1500000e+01 
7.5000000e-01 3.0000000e+00 4.2000000e+01 
7.5000000e-01 3.0000000e+00 4.2500000e+01 
7.5000000e-01 3.0000000e+00 4.3000000e+01 
7.5000000e-01 3.0000000e+00 4.3500000e+01 
7.5000000e-01 3.0000000e+00 4.4000000e+01 
7.5000000e-01 3.0000000e+00 4.4500000e+01 
7.5000000e-01 3.0000000e+00 4.5000000e+01 
7.5000000e-01 3.0000000e+00 4.5500000e+01 
7.5000000e-01 3.0000000e+00 4.6000000e+01 
7.5000000e-01 3.0000000e+00 4.6500000e+01 
7.5000000e-01 3.0000000e+00 4.7000000e+01 
7.5000000e-01 3.0000000e+00 4.7500000e+01 
7.5000000e-01 3.0000000e+00 4.8000000e+01 
7.5000000e-01 3.0000000e+00 4.8500000e+01 
7.5000000e-01 3.0000000e+00 4.9000000e+01 
7.5000000e-01 3.0000000e+00 4.9500000e+01 
7.5000000e-01 3.0000000e+00 5.0500000e+01 
7.5000000e-01 3.0000000e+00 5.1000000e+01 
7.5000000e-01 3.0000000e+00 5.1500000e+01 
7.5000000e-01 3.0000000e+00 5.2000000e+01 
7.5000000e-01 3.0000000e+00 5.2500000e+01 
7.5000000e-01 3.0000000e+00 5.3000000e+01 
7.5000000e-01 3.0000000e+00 5.3500000e+01 
7.5000000e-01 3.0000000e+00 5.4000000e+01 
7.5000000e-01 3.0000000e+00 5.4500000e+01 
7.5000000e-01 3.0000000e+00 5.5000000e+01 
7.5000000e-01 3.0000000e+00 5.5500000e+01 
7.5000000e-01 3.0000000e+00 5.6000000e+01 
7.5000000e-01 3.0000000e+00 5.6500000e+01 
7.5000000e-01 3.0000000e+00 5.7000000e+01 
7.5000000e-01 3.0000000e+00 5.7500000e+01 
7.5000000e-01 3.0000000e+00 5.8000000e+01 
7.5000000e-01 3.0000000e+00 5.8500000e+01 
7.5000000e-01 3.0000000e+00 5.9000000e+01 
7.5000000e-01 3.0000000e+00 5.9500000e+01 
7.5000000e-01 3.0000000e+00 6.0000000e+01 
7.5000000e-01 3.0000000e+00 6.0500000e+01 
7.5000000e-01 3.0000000e+00 6.1000000e+01 
7.5000000e-01 3.0000000e+00 6.1500000e+01 
7.5000000e-01 3.0000000e+00 6.2000000e+01 
7.5000000e-01 3.0000000e+00 6.2500000e+01 
7.5000000e-01 3.0000000e+00 6.3000000e+01 
7.5000000e-01 3.0000000e+00 6.3500000e+01 
7.5000000e-01 3.0000000e+00 6.4000000e+01 
7.5000000e-01 3.0000000e+00 6.4500000e+01 
7.5000000e-01 3.0000000e+00 6.5000000e+01 
7.5000000e-01 3.0000000e+00 6.5500000e+01 
7.5000000e-01 3.0000000e+00 6.6000000e+01 
7.5000000e-01 3.0000000e+00 6.6500000e+01 
7.5000000e-01 3.0000000e+00 6.7000000e+01 
7.5000000e-01 3.0000000e+00 6.7500000e+01 
7.5000000e-01 3.0000000e+00 6.8000000e+01 
7.5000000e-01 3.0000000e+00 6.8500000e+01 
7.5000000e-01 3.0000000e+00 6.9000000e+01 
7.5000000e-01 3.0000000e+00 6.9500000e+01 
7.5000000e-01 3.0250001e+00 -2.5000000e+01 
7.5000000e-01 3.0250001e+00 -2.4500000e+01 
7.5000000e-01 3.0250001e+00 -2.4000000e+01 
7.5000000e-01 3.0250001e+00 -2.3500000e+01 
7.5000000e-01 3.0250001e+00 -2.3000000e+01 
7.5000000e-01 3.0250001e+00 -2.2500000e+01 
7.5000000e-01 3.0250001e+00 -2.2000000e+01 
7.5000000e-01 3.0250001e+00 -2.1500000e+01 
7.5000000e-01 3.0250001e+00 -2.1000000e+01 
7.5000000e-01 3.0250001e+00 -2.0500000e+01 
7.5000000e-01 3.0250001e+00 -2.0000000e+01 
7.5000000e-01 3.0250001e+00 -1.9500000e+01 
7.5000000e-01 3.0250001e+00 -1.9000000e+01 
7.5000000e-01 3.0250001e+00 -1.8500000e+01 
7.5000000e-01 3.0250001e+00 -1.8000000e+01 
7.5000000e-01 3.0250001e+00 -1.7500000e+01 
7.5000000e-01 3.0250001e+00 -1.7000000e+01 
7.5000000e-01 3.0250001e+00 -1.6500000e+01 
7.5000000e-01 3.0250001e+00 -1.6000000e+01 
7.5000000e-01 3.0250001e+00 -1.5500000e+01 
[...]
POINT_DATA 2186
FIELD FieldData 3
DISPLACEMENT 3 2186  float
0.0000000e+00 0.0000000e+00 0.0000000e+00 
0.0000000e+00 0.0000000e+00 0.0000000e+00 
0.0000000e+00 0.0000000e+00 0.0000000e+00 
0.0000000e+00 0.0000000e+00 0.0000000e+00 
-9.2668673e-09 -3.1489463e-08 7.0018679e-08 
2.1142867e-16 -4.2411863e-16 1.4249414e-16 
0.0000000e+00 5.1741808e-06 0.0000000e+00 
0.0000000e+00 1.4701501e-15 0.0000000e+00 
1.2802919e-07 1.5562243e-08 -8.8211088e-08 
6.0297459e-16 -5.2563413e-16 2.3110590e-16 
-8.5474494e-07 -2.6212967e-06 -6.3150395e-07 
-2.5693590e-15 8.1148292e-16 2.0254646e-15 
0.0000000e+00 -1.1810033e-05 0.0000000e+00 
0.0000000e+00 1.1057570e-14 0.0000000e+00 
9.9183617e-06 -3.2076503e-05 -3.9748988e-06 
1.6295029e-15 -4.7456461e-16 6.6416007e-16 
7.5079208e-07 1.2911801e-04 -1.7243881e-05 
2.8882828e-16 -2.9587112e-14 -2.3722011e-15 
0.0000000e+00 -9.4996241e-05 0.0000000e+00 
0.0000000e+00 1.6059670e-14 0.0000000e+00 
0.0000000e+00 3.7299922e-15 0.0000000e+00 
0.0000000e+00 8.3662641e-16 0.0000000e+00 
0.0000000e+00 -4.0125962e-15 0.0000000e+00 
0.0000000e+00 -4.8197140e-15 0.0000000e+00 
0.0000000e+00 -4.1267386e-15 0.0000000e+00 
0.0000000e+00 -1.0409090e-15 0.0000000e+00 
0.0000000e+00 3.3363777e-15 0.0000000e+00 
0.0000000e+00 9.6618287e-15 0.0000000e+00 
0.0000000e+00 1.1740797e-14 0.0000000e+00 
0.0000000e+00 7.6268566e-15 0.0000000e+00 
0.0000000e+00 -4.9038989e-15 0.0000000e+00 
0.0000000e+00 -2.8549849e-14 0.0000000e+00 
0.0000000e+00 -4.6021895e-14 0.0000000e+00 
0.0000000e+00 2.5545014e-14 0.0000000e+00 
0.0000000e+00 1.8883877e-13 0.0000000e+00 
0.0000000e+00 -3.7717544e-14 0.0000000e+00 
0.0000000e+00 -1.1813210e-12 0.0000000e+00 
0.0000000e+00 -9.8575195e-13 0.0000000e+00 
0.0000000e+00 5.8011829e-12 0.0000000e+00 
0.0000000e+00 1.1762522e-11 0.0000000e+00 
0.0000000e+00 -1.9159431e-11 0.0000000e+00 
0.0000000e+00 -8.2961353e-11 0.0000000e+00 
0.0000000e+00 1.1590453e-11 0.0000000e+00 
0.0000000e+00 4.3087509e-10 0.0000000e+00 
0.0000000e+00 3.9778872e-10 0.0000000e+00 
0.0000000e+00 -1.6293623e-09 0.0000000e+00 
0.0000000e+00 -3.5466658e-09 0.0000000e+00 
0.0000000e+00 3.5247050e-09 0.0000000e+00 
0.0000000e+00 1.8957984e-08 0.0000000e+00 
0.0000000e+00 5.3683911e-09 0.0000000e+00 
0.0000000e+00 -6.9874446e-08 0.0000000e+00 
0.0000000e+00 -9.4466728e-08 0.0000000e+00 
0.0000000e+00 1.5556746e-07 0.0000000e+00 
0.0000000e+00 4.9654631e-07 0.0000000e+00 
0.0000000e+00 1.4355576e-08 0.0000000e+00 
0.0000000e+00 -1.5587169e-06 0.0000000e+00 
0.0000000e+00 -1.7451185e-06 0.0000000e+00 
0.0000000e+00 2.5052930e-06 0.0000000e+00 
0.0000000e+00 7.4837562e-06 0.0000000e+00 
0.0000000e+00 2.1780186e-06 0.0000000e+00 
0.0000000e+00 -1.5219578e-05 0.0000000e+00 
0.0000000e+00 -2.2808170e-05 0.0000000e+00 
0.0000000e+00 4.0526484e-06 0.0000000e+00 
0.0000000e+00 4.9249022e-05 0.0000000e+00 
0.0000000e+00 5.5413722e-05 0.0000000e+00 
0.0000000e+00 -9.8833452e-06 0.0000000e+00 
0.0000000e+00 -9.8536286e-05 0.0000000e+00 
0.0000000e+00 -1.2077832e-04 0.0000000e+00 
0.0000000e+00 -4.3691285e-05 0.0000000e+00 
0.0000000e+00 6.9720591e-05 0.0000000e+00 
6.2582840e-06 1.0645461e-04 4.1509688e-07 
-8.9761188e-06 6.1176695e-05 2.1238841e-06 
-7.3601755e-06 6.4414606e-05 -9.5301857e-06 
1.4246066e-05 1.0696794e-04 5.2965975e-06 
5.1447787e-06 9.0590649e-05 2.5305628e-05 
-5.7416146e-06 -1.0059142e-04 1.0106451e-06 
2.0684871e-05 -5.4974982e-04 5.3656608e-05 
-2.0330845e-05 -1.2526579e-03 8.9177207e-05 
-5.4133496e-05 -2.1677990e-03 1.1546831e-04 
-1.8026527e-04 -3.2270197e-03 -9.7612217e-05 
-9.1551141e-05 -4.2658220e-03 8.5868945e-05 
-1.2157224e-04 -4.7758971e-03 -6.4836895e-05 
-2.9400981e-05 -4.4584540e-03 -5.6347355e-05 
-1.6991451e-04 -4.0122550e-03 4.6064019e-05 
-1.1991340e-04 -3.9499453e-03 -3.0312296e-05 
-2.2637502e-04 -4.0865182e-03 -1.1191205e-04 
-1.1070999e-04 -3.8531334e-03 -1.1304061e-04 
-7.4951218e-05 -2.7168691e-03 -2.7841716e-05 
-7.0676301e-06 -1.4393294e-03 -1.0702929e-04 
3.0678766e-06 -5.0283532e-04 5.3313714e-05 
-4.0364048e-06 1.6914535e-05 -4.8355501e-05 
1.7036293e-05 2.4181543e-04 4.7847452e-06 
1.2105565e-05 3.0856777e-04 2.7270269e-05 
3.0934252e-06 2.7794091e-04 -1.5418844e-05 
5.5363162e-06 1.6487711e-04 8.0782502e-06 
-1.3619995e-05 1.1287771e-05 -3.5550599e-06 
-8.9456116e-06 -1.0434196e-04 -3.0180986e-06 
-2.5475845e-06 -1.1600543e-04 2.7676217e-06 
5.5532985e-07 -3.7098878e-05 -6.4483140e-07 
1.4342409e-06 3.9235594e-05 -7.3603354e-07 
1.5425360e-07 3.9560626e-05 1.1928810e-06 
-5.3155782e-07 -9.8831651e-07 -1.1183304e-07 
-5.5981917e-07 -6.9809334e-06 3.3484426e-07 
4.5315289e-07 2.3913186e-05 -8.5497476e-07 
1.2517304e-06 2.9146488e-05 4.2981162e-07 
2.9785301e-08 -2.3114191e-05 -2.5338055e-08 
-9.1595911e-07 -7.9379599e-05 2.8652867e-06 
-2.4544479e-06 -6.3869404e-05 -3.2796893e-06 
1.4194029e-06 2.6564398e-05 1.9507643e-06 
5.7390816e-06 1.1646775e-04 4.9688410e-06 
-9.3451877e-07 1.4318955e-04 -1.6519312e-05 
-4.5518527e-06 1.0591254e-04 1.0403161e-05 
-9.3927047e-06 5.0348226e-05 -1.3504554e-07 
-2.6166581e-06 2.2261365e-05 -1.6888598e-05 
1.1409321e-05 1.7705230e-06 4.0194216e-05 
2.4572852e-05 -1.2182845e-04 -6.9951125e-07 
3.8867958e-05 -5.0711242e-04 6.5296110e-05 
-4.7072241e-05 -1.2660865e-03 8.8567795e-05 
-4.4384666e-05 -2.3534088e-03 1.1493482e-04 
1.2614308e-06 -3.5181700e-03 -7.1183618e-05 
-2.8688541e-05 -4.4143051e-03 1.2593901e-04 
-2.6105664e-04 -4.6057962e-03 -7.6310571e-05 
-1.1660926e-04 -4.2725238e-03 -1.4895968e-04 
-1.6993434e-04 -4.0153270e-03 3.5145829e-05 
-1.2086364e-04 -4.1044378e-03 -2.1508537e-05 
-2.3520589e-04 -4.1587367e-03 -1.1781677e-04 
-1.1852398e-04 -3.6287575e-03 -1.1259018e-04 
-1.1178863e-04 -2.4145090e-03 -2.8667167e-05 
-2.9755716e-05 -1.2450878e-03 -1.3892187e-04 
5.6805688e-06 -4.1907970e-04 4.9564096e-05 
-3.3167164e-06 5.3799569e-05 -4.0456278e-05 
1.6700060e-05 2.8043721e-04 2.9783146e-06 
1.2344981e-05 3.3620544e-04 2.7368798e-05 
4.1072512e-06 2.6801619e-04 -1.5946667e-05 
2.8913264e-06 1.1898457e-04 1.2923500e-05 
-3.4643015e-06 -3.6231329e-05 2.7353390e-06 
-4.7900289e-06 -1.1237587e-04 -9.0490248e-06 
-1.4648708e-06 -9.1859656e-05 1.7109729e-06 
1.1193218e-06 -1.5427011e-05 2.4293286e-07 
1.0694671e-06 4.4156463e-05 -7.5020716e-07 
3.6123229e-08 3.9517010e-05 8.5338286e-07 
-3.1051965e-07 1.2668758e-06 1.9591752e-07 
-1.5370146e-07 -1.7036909e-05 -3.5018235e-07 
-1.2901706e-08 -7.5905164e-06 -4.4326036e-08 
1.2699645e-07 3.7936429e-06 1.0026298e-07 
-4.8327280e-08 4.5018032e-06 -1.4327044e-08 
-3.4751707e-08 3.0713241e-07 1.0170654e-08 
1.8793223e-08 -1.4084013e-06 3.2214948e-09 
4.8161573e-09 -4.9546361e-07 -6.2261991e-09 
-7.2840756e-09 3.0195548e-07 2.9965472e-10 
8.3064569e-11 2.1145584e-07 1.9659441e-09 
-1.4695853e-09 -3.7998603e-08 -1.5982252e-10 
-1.1445443e-10 -6.0784025e-08 -5.1506849e-10 
1.1369434e-10 -1.0007338e-09 7.6862874e-12 
4.1488719e-11 1.3793457e-08 9.7811030e-11 
-6.8411086e-13 2.1920301e-09 -9.5933461e-13 
-9.8873557e-12 -2.5853946e-09 -1.3248180e-11 
-1.2614099e-12 -7.7443807e-10 8.1765508e-13 
2.0187586e-12 4.0083301e-10 9.5586917e-13 
6.8118422e-13 1.9102667e-10 -5.7230593e-13 
-3.6015676e-13 -4.9881380e-11 7.8868728e-14 
-1.8498034e-13 -3.8894398e-11 9.4747764e-14 
5.1356272e-14 4.1851553e-12 -4.6038487e-14 
3.2819938e-14 6.9310638e-12 -4.4343035e-15 
-4.0779656e-15 4.1272771e-14 1.6679381e-14 
6.5171770e-15 -1.2021622e-12 5.4309106e-15 
-1.5776308e-16 -1.7326880e-13 -1.7167236e-15 
1.7225835e-16 1.4838899e-13 4.7344499e-16 
5.4918313e-16 2.1829950e-14 3.9627473e-16 
0.0000000e+00 -3.8209046e-15 0.0000000e+00 
0.0000000e+00 1.5818447e-14 0.0000000e+00 
0.0000000e+00 1.4130505e-14 0.0000000e+00 
0.0000000e+00 6.2592300e-15 0.0000000e+00 
0.0000000e+00 -2.1903737e-16 0.0000000e+00 
0.0000000e+00 -1.8428938e-15 0.0000000e+00 
0.0000000e+00 -2.5892179e-15 0.0000000e+00 
0.0000000e+00 -2.1657656e-15 0.0000000e+00 
0.0000000e+00 -1.5896391e-15 0.0000000e+00 
0.0000000e+00 2.1773622e-16 0.0000000e+00 
0.0000000e+00 1.9091246e-15 0.0000000e+00 
0.0000000e+00 9.4955083e-16 0.0000000e+00 
0.0000000e+00 -9.7017862e-16 0.0000000e+00 
0.0000000e+00 -2.0580336e-15 0.0000000e+00 
0.0000000e+00 -1.0169135e-16 0.0000000e+00 
0.0000000e+00 1.6583784e-15 0.0000000e+00 
0.0000000e+00 1.9578557e-15 0.0000000e+00 
0.0000000e+00 1.1035342e-16 0.0000000e+00 
0.0000000e+00 -2.6047337e-15 0.0000000e+00 
0.0000000e+00 -2.0420404e-15 0.0000000e+00 
0.0000000e+00 1.2264809e-15 0.0000000e+00 
0.0000000e+00 2.5252058e-15 0.0000000e+00 
0.0000000e+00 1.4054370e-15 0.0000000e+00 
0.0000000e+00 -1.6237189e-15 0.0000000e+00 
0.0000000e+00 -2.5009042e-15 0.0000000e+00 
0.0000000e+00 -4.5962374e-16 0.0000000e+00 
0.0000000e+00 1.6833580e-15 0.0000000e+00 
0.0000000e+00 1.6461131e-15 0.0000000e+00 
0.0000000e+00 4.7276488e-16 0.0000000e+00 
0.0000000e+00 -1.8276368e-15 0.0000000e+00 
0.0000000e+00 -1.0155182e-15 0.0000000e+00 
0.0000000e+00 -9.0213224e-17 0.0000000e+00 
0.0000000e+00 1.5842075e-15 0.0000000e+00 
0.0000000e+00 4.2250541e-16 0.0000000e+00 
0.0000000e+00 -6.1206818e-16 0.0000000e+00 
0.0000000e+00 -7.9635677e-16 0.0000000e+00 
0.0000000e+00 1.9814312e-16 0.0000000e+00 
0.0000000e+00 4.0553158e-16 0.0000000e+00 
0.0000000e+00 -1.1039522e-16 0.0000000e+00 
0.0000000e+00 3.8274128e-15 0.0000000e+00 
0.0000000e+00 6.0613090e-16 0.0000000e+00 
0.0000000e+00 -3.6973285e-15 0.0000000e+00 
0.0000000e+00 -5.3223819e-15 0.0000000e+00 
0.0000000e+00 -3.9403867e-15 0.0000000e+00 
0.0000000e+00 -1.1215698e-15 0.0000000e+00 
0.0000000e+00 3.9203328e-15 0.0000000e+00 
0.0000000e+00 9.4757432e-15 0.0000000e+00 
0.0000000e+00 1.1503782e-14 0.0000000e+00 
0.0000000e+00 7.5882539e-15 0.0000000e+00 
0.0000000e+00 -4.6759192e-15 0.0000000e+00 
0.0000000e+00 -3.0583443e-14 0.0000000e+00 
0.0000000e+00 -4.6647948e-14 0.0000000e+00 
0.0000000e+00 3.5963498e-14 0.0000000e+00 
0.0000000e+00 2.0368338e-13 0.0000000e+00 
0.0000000e+00 -8.4926003e-14 0.0000000e+00 
0.0000000e+00 -1.3120565e-12 0.0000000e+00 
0.0000000e+00 -8.4489425e-13 0.0000000e+00 
0.0000000e+00 6.6586714e-12 0.0000000e+00 
0.0000000e+00 1.1824913e-11 0.0000000e+00 
0.0000000e+00 -2.3612808e-11 0.0000000e+00 
0.0000000e+00 -8.7494526e-11 0.0000000e+00 
0.0000000e+00 2.9506366e-11 0.0000000e+00 
0.0000000e+00 4.6949433e-10 0.0000000e+00 
0.0000000e+00 3.4961542e-10 0.0000000e+00 
0.0000000e+00 -1.8486348e-09 0.0000000e+00 
0.0000000e+00 -3.5358427e-09 0.0000000e+00 
0.0000000e+00 4.4595754e-09 0.0000000e+00 
0.0000000e+00 1.9754884e-08 0.0000000e+00 
0.0000000e+00 2.4385458e-09 0.0000000e+00 
0.0000000e+00 -7.5448440e-08 0.0000000e+00 
0.0000000e+00 -8.8947843e-08 0.0000000e+00 
0.0000000e+00 1.7933192e-07 0.0000000e+00 
0.0000000e+00 4.9953491e-07 0.0000000e+00 
0.0000000e+00 -5.5562253e-08 0.0000000e+00 
0.0000000e+00 -1.6281084e-06 0.0000000e+00 
0.0000000e+00 -1.6161163e-06 0.0000000e+00 
0.0000000e+00 2.7934093e-06 0.0000000e+00 
0.0000000e+00 7.4298282e-06 0.0000000e+00 
0.0000000e+00 1.4975582e-06 0.0000000e+00 
0.0000000e+00 -1.5710526e-05 0.0000000e+00 
0.0000000e+00 -2.1970667e-05 0.0000000e+00 
0.0000000e+00 5.6500530e-06 0.0000000e+00 
0.0000000e+00 4.9382252e-05 0.0000000e+00 
0.0000000e+00 5.3243173e-05 0.0000000e+00 
0.0000000e+00 -1.2039245e-05 0.0000000e+00 
0.0000000e+00 -9.7892858e-05 0.0000000e+00 
0.0000000e+00 -1.1785603e-04 0.0000000e+00 
0.0000000e+00 -4.1834770e-05 0.0000000e+00 
0.0000000e+00 6.8619105e-05 0.0000000e+00 
0.0000000e+00 1.2610551e-04 0.0000000e+00 
0.0000000e+00 1.0505406e-04 0.0000000e+00 
0.0000000e+00 6.3287320e-05 0.0000000e+00 
0.0000000e+00 6.7591645e-05 0.0000000e+00 
0.0000000e+00 1.0821079e-04 0.0000000e+00 
0.0000000e+00 9.0397305e-05 0.0000000e+00 
0.0000000e+00 -1.0345173e-04 0.0000000e+00 
0.0000000e+00 -5.5212283e-04 0.0000000e+00 
0.0000000e+00 -1.2551483e-03 0.0000000e+00 
0.0000000e+00 -2.1714477e-03 0.0000000e+00 
0.0000000e+00 -3.2423483e-03 0.0000000e+00 
0.0000000e+00 -4.2871307e-03 0.0000000e+00 
0.0000000e+00 -4.8100059e-03 0.0000000e+00 
0.0000000e+00 -4.4828421e-03 0.0000000e+00 
0.0000000e+00 -4.0378827e-03 0.0000000e+00 
0.0000000e+00 -3.9657443e-03 0.0000000e+00 
0.0000000e+00 -4.1151228e-03 0.0000000e+00 
0.0000000e+00 -3.8756551e-03 0.0000000e+00 
0.0000000e+00 -2.7442088e-03 0.0000000e+00 
0.0000000e+00 -1.4529888e-03 0.0000000e+00 
0.0000000e+00 -5.0790882e-04 0.0000000e+00 
0.0000000e+00 1.7314123e-05 0.0000000e+00 
0.0000000e+00 2.4408770e-04 0.0000000e+00 
0.0000000e+00 3.0959689e-04 0.0000000e+00 
0.0000000e+00 2.7698569e-04 0.0000000e+00 
0.0000000e+00 1.6433549e-04 0.0000000e+00 
0.0000000e+00 1.2711599e-05 0.0000000e+00 
0.0000000e+00 -1.0144544e-04 0.0000000e+00 
0.0000000e+00 -1.1430747e-04 0.0000000e+00 
0.0000000e+00 -3.8695907e-05 0.0000000e+00 
0.0000000e+00 3.5588237e-05 0.0000000e+00 
0.0000000e+00 3.8798167e-05 0.0000000e+00 
0.0000000e+00 1.7812737e-06 0.0000000e+00 
0.0000000e+00 -4.7832941e-06 0.0000000e+00 
0.0000000e+00 2.3114866e-05 0.0000000e+00 
0.0000000e+00 2.6320797e-05 0.0000000e+00 
0.0000000e+00 -2.4639319e-05 0.0000000e+00 
0.0000000e+00 -7.7585675e-05 0.0000000e+00 
0.0000000e+00 -6.0779577e-05 0.0000000e+00 
0.0000000e+00 2.7130152e-05 0.0000000e+00 
0.0000000e+00 1.1485472e-04 0.0000000e+00 
0.0000000e+00 1.4121285e-04 0.0000000e+00 
0.0000000e+00 1.0530821e-04 0.0000000e+00 
0.0000000e+00 5.2112493e-05 0.0000000e+00 
0.0000000e+00 2.5179537e-05 0.0000000e+00 
0.0000000e+00 4.3655132e-06 0.0000000e+00 
0.0000000e+00 -1.2195590e-04 0.0000000e+00 
0.0000000e+00 -5.1267364e-04 0.0000000e+00 
0.0000000e+00 -1.2749612e-03 0.0000000e+00 
0.0000000e+00 -2.3581372e-03 0.0000000e+00 
0.0000000e+00 -3.5312190e-03 0.0000000e+00 
0.0000000e+00 -4.4369712e-03 0.0000000e+00 
0.0000000e+00 -4.6433313e-03 0.0000000e+00 
0.0000000e+00 -4.2951507e-03 0.0000000e+00 
0.0000000e+00 -4.0395544e-03 0.0000000e+00 
0.0000000e+00 -4.1191736e-03 0.0000000e+00 
0.0000000e+00 -4.1895169e-03 0.0000000e+00 
0.0000000e+00 -3.6516287e-03 0.0000000e+00 
0.0000000e+00 -2.4404351e-03 0.0000000e+00 
0.0000000e+00 -1.2536821e-03 0.0000000e+00 
0.0000000e+00 -4.2217778e-04 0.0000000e+00 
0.0000000e+00 5.4938366e-05 0.0000000e+00 
0.0000000e+00 2.8109428e-04 0.0000000e+00 
0.0000000e+00 3.3642916e-04 0.0000000e+00 
0.0000000e+00 2.6722092e-04 0.0000000e+00 
0.0000000e+00 1.1903676e-04 0.0000000e+00 
0.0000000e+00 -3.2981814e-05 0.0000000e+00 
0.0000000e+00 -1.1037164e-04 0.0000000e+00 
0.0000000e+00 -9.1907015e-05 0.0000000e+00 
0.0000000e+00 -1.7035187e-05 0.0000000e+00 
0.0000000e+00 4.1824900e-05 0.0000000e+00 
0.0000000e+00 3.9542669e-05 0.0000000e+00 
0.0000000e+00 3.1042198e-06 0.0000000e+00 
0.0000000e+00 -1.6308988e-05 0.0000000e+00 
0.0000000e+00 -8.4030562e-06 0.0000000e+00 
0.0000000e+00 3.2897012e-06 0.0000000e+00 
0.0000000e+00 4.6483601e-06 0.0000000e+00 
0.0000000e+00 5.4556182e-07 0.0000000e+00 
0.0000000e+00 -1.3911688e-06 0.0000000e+00 
0.0000000e+00 -5.7581093e-07 0.0000000e+00 
0.0000000e+00 2.7637066e-07 0.0000000e+00 
0.0000000e+00 2.3187567e-07 0.0000000e+00 
0.0000000e+00 -2.6216698e-08 0.0000000e+00 
0.0000000e+00 -6.4755838e-08 0.0000000e+00 
0.0000000e+00 -4.7882707e-09 0.0000000e+00 
0.0000000e+00 1.4320729e-08 0.0000000e+00 
0.0000000e+00 3.1730618e-09 0.0000000e+00 
0.0000000e+00 -2.6033349e-09 0.0000000e+00 
0.0000000e+00 -9.8880371e-10 0.0000000e+00 
0.0000000e+00 3.8447084e-10 0.0000000e+00 
0.0000000e+00 2.3195128e-10 0.0000000e+00 
0.0000000e+00 -4.3263164e-11 0.0000000e+00 
0.0000000e+00 -4.5766769e-11 0.0000000e+00 
0.0000000e+00 2.4493515e-12 0.0000000e+00 
0.0000000e+00 7.9466910e-12 0.0000000e+00 
0.0000000e+00 4.0850578e-13 0.0000000e+00 
0.0000000e+00 -1.3207427e-12 0.0000000e+00 
0.0000000e+00 -2.4747655e-13 0.0000000e+00 
0.0000000e+00 1.5976619e-13 0.0000000e+00 
0.0000000e+00 3.5176929e-14 0.0000000e+00 
0.0000000e+00 -3.0330437e-14 0.0000000e+00 
0.0000000e+00 -5.5697994e-15 0.0000000e+00 
0.0000000e+00 1.5524230e-14 0.0000000e+00 
0.0000000e+00 1.4423380e-14 0.0000000e+00 
0.0000000e+00 6.0492857e-15 0.0000000e+00 
0.0000000e+00 3.2073413e-16 0.0000000e+00 
0.0000000e+00 -2.0267421e-15 0.0000000e+00 
0.0000000e+00 -2.4848935e-15 0.0000000e+00 
0.0000000e+00 -2.5558150e-15 0.0000000e+00 
0.0000000e+00 -1.4920720e-15 0.0000000e+00 
0.0000000e+00 6.3735359e-16 0.0000000e+00 
0.0000000e+00 1.6919452e-15 0.0000000e+00 
0.0000000e+00 7.0279727e-16 0.0000000e+00 
0.0000000e+00 -1.0792588e-15 0.0000000e+00 
0.0000000e+00 -1.5194616e-15 0.0000000e+00 
0.0000000e+00 -2.6747723e-16 0.0000000e+00 
0.0000000e+00 1.6021098e-15 0.0000000e+00 
0.0000000e+00 1.8555136e-15 0.0000000e+00 
0.0000000e+00 -1.2470701e-16 0.0000000e+00 
0.0000000e+00 -2.1932872e-15 0.0000000e+00 
0.0000000e+00 -1.8218747e-15 0.0000000e+00 
0.0000000e+00 7.4922145e-16 0.0000000e+00 
0.0000000e+00 2.6144004e-15 0.0000000e+00 
0.0000000e+00 1.3361128e-15 0.0000000e+00 
0.0000000e+00 -1.4235402e-15 0.0000000e+00 
0.0000000e+00 -2.4535711e-15 0.0000000e+00 
0.0000000e+00 -6.5358460e-16 0.0000000e+00 
0.0000000e+00 1.6556676e-15 0.0000000e+00 
0.0000000e+00 2.0306260e-15 0.0000000e+00 
0.0000000e+00 -8.7426605e-17 0.0000000e+00 
0.0000000e+00 -1.4992088e-15 0.0000000e+00 
0.0000000e+00 -1.2353746e-15 0.0000000e+00 
0.0000000e+00 5.2129282e-16 0.0000000e+00 
0.0000000e+00 9.6976453e-16 0.0000000e+00 
0.0000000e+00 3.9304640e-16 0.0000000e+00 
0.0000000e+00 -4.5700371e-16 0.0000000e+00 
0.0000000e+00 -4.5840740e-16 0.0000000e+00 
0.0000000e+00 -8.7513710e-17 0.0000000e+00 
0.0000000e+00 1.3865082e-16 0.0000000e+00 
0.0000000e+00 1.3387069e-16 0.0000000e+00 
0.0000000e+00 0.0000000e+00 0.0000000e+00 
0.0000000e+00 0.0000000e+00 0.0000000e+00 
0.0000000e+00 0.0000000e+00 0.0000000e+00 
0.0000000e+00 0.0000000e+00 0.0000000e+00 
0.0000000e+00 0.0000000e+00 0.0000000e+00 
0.0000000e+00 0.0000000e+00 0.0000000e+00 
0.0000000e+00 0.0000000e+00 0.0000000e+00 
0.0000000e+00 0.0000000e+00 0.0000000e+00 
0.0000000e+00 0.0000000e+00 0.0000000e+00 
0.0000000e+00 0.0000000e+00 0.0000000e+00 
0.0000000e+00 0.0000000e+00 0.0000000e+00 
0.0000000e+00 0.0000000e+00 0.0000000e+00 
0.0000000e+00 0.0000000e+00 0.0000000e+00 
0.0000000e+00 0.0000000e+00 0.0000000e+00 
0.0000000e+00 0.0000000e+00 0.0000000e+00 
0.0000000e+00 0.0000000e+00 0.0000000e+00 
0.0000000e+00 0.0000000e+00 0.0000000e+00 
0.0000000e+00 0.0000000e+00 0.0000000e+00 
0.0000000e+00 0.0000000e+00 0.0000000e+00 
0.0000000e+00 0.0000000e+00 0.0000000e+00 
0.0000000e+00 0.0000000e+00 0.0000000e+00 
0.0000000e+00 0.0000000e+00 0.0000000e+00 
0.0000000e+00 0.0000000e+00 0.0000000e+00 
0.0000000e+00 0.0000000e+00 0.0000000e+00 
0.0000000e+00 0.0000000e+00 0.0000000e+00 
0.0000000e+00 0.0000000e+00 0.0000000e+00 
0.0000000e+00 0.0000000e+00 0.0000000e+00 
0.0000000e+00 0.0000000e+00 0.0000000e+00 
0.0000000e+00 0.0000000e+00 0.0000000e+00 
0.0000000e+00 0.0000000e+00 0.0000000e+00 
0.0000000e+00 0.0000000e+00 0.0000000e+00 
0.0000000e+00 0.0000000e+00 0.0000000e+00 
0.0000000e+00 0.0000000e+00 0.0000000e+00 
0.0000000e+00 0.0000000e+00 0.0000000e+00 
0.0000000e+00 0.0000000e+00 0.0000000e+00 
0.0000000e+00 0.0000000e+00 0.0000000e+00 
0.0000000e+00 0.0000000e+00 0.0000000e+00 
0.0000000e+00 0.0000000e+00 0.0000000e+00 
0.0000000e+00 0.0000000e+00 0.0000000e+00 
0.0000000e+00 0.0000000e+00 0.0000000e+00 
0.0000000e+00 0.0000000e+00 0.0000000e+00 
0.0000000e+00 0.0000000e+00 0.0000000e+00 
0.0000000e+00 0.0000000e+00 0.0000000e+00 
0.0000000e+00 0.0000000e+00 0.0000000e+00 
0.0000000e+00 0.0000000e+00 0.0000000e+00 
0.0000000e+00 0.0000000e+00 0.0000000e+00 
0.0000000e+00 0.0000000e+00 0.0000000e+00 
0.0000000e+00 0.0000000e+00 0.0000000e+00 
0.0000000e+00 0.0000000e+00 0.0000000e+00 
0.0000000e+00 0.0000000e+00 0.0000000e+00 
0.0000000e+00 0.0000000e+00 0.0000000e+00 
0.0000000e+00 0.0000000e+00 0.0000000e+00 
0.0000000e+00 0.0000000e+00 0.0000000e+00 
0.0000000e+00 0.0000000e+00 0.0000000e+00 
0.0000000e+00 0.0000000e+00 0.0000000e+00 
0.0000000e+00 0.0000000e+00 0.0000000e+00 
0.0000000e+00 0.0000000e+00 0.0000000e+00 
0.0000000e+00 0.0000000e+00 0.0000000e+00 