# vtk DataFile Version 4.0
vtk output
ASCII
DATASET UNSTRUCTURED_GRID
POINTS 2186 float
0.0000000e+00 0.0000000e+00 0.0000000e+00 
0.0000000e+00 0.0000000e+00 5.0000000e+01 
5.0000000e+00 0.0000000e+00 0.0000000e+00 
5.0000000e+00 0.0000000e+00 5.0000000e+01 
5.0000000e+00 1.0000000e+00 0.0000000e+00 
5.0000000e+00 1.0000000e+00 5.0000000e+01 
0.0000000e+00 1.0000000e+00 0.0000000e+00 
0.0000000e+00 1.0000000e+00 5.0000000e+01 
5.0000000e+00 2.0000000e+00 0.0000000e+00 
5.0000000e+00 2.0000000e+00 5.0000000e+01 
3.0000000e+00 2.0000000e+00 0.0000000e+00 
3.0000000e+00 2.0000000e+00 5.0000000e+01 
0.0000000e+00 2.0000000e+00 0.0000000e+00 
0.0000000e+00 2.0000000e+00 5.0000000e+01 
1.5000000e+00 3.0000000e+00 0.0000000e+00 
1.5000000e+00 3.0000000e+00 5.0000000e+01 
7.5000000e-01 3.0000000e+00 0.0000000e+00 
7.5000000e-01 3.0000000e+00 5.0000000e+01 
0.0000000e+00 3.0000000e+00 0.0000000e+00 
0.0000000e+00 3.0000000e+00 5.0000000e+01 
7.5000000e-01 3.0000000e+00 -2.5000000e+01 
7.5000000e-01 3.0000000e+00 -2.4500000e+01 
7.5000000e-01 3.0000000e+00 -2.4000000e+01 
7.5000000e-01 3.0000000e+00 -2.3500000e+01 
7.5000000e-01 3.0000000e+00 -2.3000000e+01 
7.5000000e-01 3.0000000e+00 -2.2500000e+01 
7.5000000e-01 3.0000000e+00 -2.2000000e+01 
7.5000000e-01 3.0000000e+00 -2.1500000e+01 
7.5000000e-01 3.0000000e+00 -2.1000000e+01 
7.5000000e-01 3.0000000e+00 -2.0500000e+01 
7.5000000e-01 3.0000000e+00 -2.0000000e+01 
7.5000000e-01 3.0000000e+00 -1.9500000e+01 
7.5000000e-01 3.0000000e+00 -1.9000000e+01 
7.5000000e-01 3.0000000e+00 -1.8500000e+01 
7.5000000e-01 3.0000000e+00 -1.8000000e+01 
7.5000000e-01 3.0000000e+00 -1.7500000e+01 
7.5000000e-01 3.0000000e+00 -1.7000000e+01 
7.5000000e-01 3.0000000e+00 -1.6500000e+01 
7.5000000e-01 3.0000000e+00 -1.6000000e+01 
7.5000000e-01 3.0000000e+00 -1.5500000e+01 
7.5000000e-01 3.0000000e+00 -1.5000000e+01 
7.5000000e-01 3.0000000e+00 -1.4500000e+01 
7.5000000e-01 3.0000000e+00 -1.4000000e+01 
7.5000000e-01 3.0000000e+00 -1.3500000e+01 
7.5000000e-01 3.0000000e+00 -1.3000000e+01 
7.5000000e-01 3.0000000e+00 -1.2500000e+01 
7.5000000e-01 3.0000000e+00 -1.2000000e+01 
7.5000000e-01 3.0000000e+00 -1.1500000e+01 
7.5000000e-01 3.0000000e+00 -1.1000000e+01 
7.5000000e-01 3.0000000e+00 -1.0500000e+01 
7.5000000e-01 3.0000000e+00 -1.0000000e+01 
7.5000000e-01 3.0000000e+00 -9.5000000e+00 
7.5000000e-01 3.0000000e+00 -9.0000000e+00 
7.5000000e-01 3.0000000e+00 -8.5000000e+00 
7.5000000e-01 3.0000000e+00 -8.0000000e+00 
7.5000000e-01 3.0000000e+00 -7.5000000e+00 
7.5000000e-01 3.0000000e+00 -7.0000000e+00 
7.5000000e-01 3.0000000e+00 -6.5000000e+00 
7.5000000e-01 3.0000000e+00 -6.0000000e+00 
7.5000000e-01 3.0000000e+00 -5.5000000e+00 
7.5000000e-01 3.0000000e+00 -5.0000000e+00 
7.5000000e-01 3.0000000e+00 -4.5000000e+00 
7.5000000e-01 3.0000000e+00 -4.0000000e+00 
7.5000000e-01 3.0000000e+00 -3.5000000e+00 
7.5000000e-01 3.0000000e+00 -3.0000000e+00 
7.5000000e-01 3.0000000e+00 -2.5000000e+00 
7.5000000e-01 3.0000000e+00 -2.0000000e+00 
7.5000000e-01 3.0000000e+00 -1.5000000e+00 
7.5000000e-01 3.0000000e+00 -1.0000000e+00 
7.5000000e-01 3.0000000e+00 -5.0000000e-01 
7.5000000e-01 3.0000000e+00 5.0000000e-01 
7.5000000e-01 3.0000000e+00 1.0000000e+00 
7.5000000e-01 3.0000000e+00 1.5000000e+00 
7.5000000e-01 3.0000000e+00 2.0000000e+00 
7.5000000e-01 3.0000000e+00 2.5000000e+00 
7.5000000e-01 3.0000000e+00 3.0000000e+00 
7.5000000e-01 3.0000000e+00 3.5000000e+00 
7.5000000e-01 3.0000000e+00 4.0000000e+00 
7.5000000e-01 3.0000000e+00 4.5000000e+00 
7.5000000e-01 3.0000000e+00 5.0000000e+00 
7.5000000e-01 3.0000000e+00 5.5000000e+00 
7.5000000e-01 3.0000000e+00 6.0000000e+00 
7.5000000e-01 3.0000000e+00 6.5000000e+00 
7.5000000e-01 3.0000000e+00 7.0000000e+00 
7.5000000e-01 3.0000000e+00 7.5000000e+00 
7.5000000e-01 3.0000000e+00 8.0000000e+00 
7.5000000e-01 3.0000000e+00 8.5000000e+00 
7.5000000e-01 3.0000000e+00 9.0000000e+00 
7.5000000e-01 3.0000000e+00 9.5000000e+00 
7.5000000e-01 3.0000000e+00 1.0000000e+01 
7.5000000e-01 3.0000000e+00 1.0500000e+01 
7.5000000e-01 3.0000000e+00 1.1000000e+01 
7.5000000e-01 3.0000000e+00 1.1500000e+01 
7.5000000e-01 3.0000000e+00 1.2000000e+01 
7.5000000e-01 3.0000000e+00 1.2500000e+01 
7.5000000e-01 3.0000000e+00 1.3000000e+01 
7.5000000e-01 3.0000000e+00 1.3500000e+01 
7.5000000e-01 3.0000000e+00 1.4000000e+01 
7.5000000e-01 3.0000000e+00 1.4500000e+01 
7.5000000e-01 3.0000000e+00 1.5000000e+01 
7.5000000e-01 3.0000000e+00 1.5500000e+01 
7.5000000e-01 3.0000000e+00 1.6000000e+01 
7.5000000e-01 3.0000000e+00 1.6500000e+01 
7.5000000e-01 3.0000000e+00 1.7000000e+01 
7.5000000e-01 3.0000000e+00 1.7500000e+01 
7.5000000e-01 3.0000000e+00 1.8000000e+01 
7.5000000e-01 3.0000000e+00 1.8500000e+01 
7.5000000e-01 3.0000000e+00 1.9000000e+01 
7.5000000e-01 3.0000000e+00 1.9500000e+01 
7.5000000e-01 3.0000000e+00 2.0000000e+01 
7.5000000e-01 3.0000000e+00 2.0500000e+01 
7.5000000e-01 3.0000000e+00 2.1000000e+01 
7.5000000e-01 3.0000000e+00 2.1500000e+01 
7.5000000e-01 3.0000000e+00 2.2000000e+01 
7.5000000e-01 3.0000000e+00 2.2500000e+01 
7.5000000e-01 3.0000000e+00 2.3000000e+01 
7.5000000e-01 3.0000000e+00 2.3500000e+01 
7.5000000e-01 3.0000000e+00 2.4000000e+01 
7.5000000e-01 3.0000000e+00 2.4500000e+01 
7.5000000e-01 3.0000000e+00 2.5000000e+01 
7.5000000e-01 3.0000000e+00 2.5500000e+01 
7.5000000e-01 3.0000000e+00 2.6000000e+01 
7.5000000e-01 3.0000000e+00 2.6500000e+01 
7.5000000e-01 3.0000000e+00 2.7000000e+01 
7.5000000e-01 3.0000000e+00 2.7500000e+01 
7.5000000e-01 3.0000000e+00 2.8000000e+01 
7.5000000e-01 3.0000000e+00 2.8500000e+01 
7.5000000e-01 3.0000000e+00 2.9000000e+01 
7.5000000e-01 3.0000000e+00 2.9500000e+01 
7.5000000e-01 3.0000000e+00 3.0000000e+01 
7.5000000e-01 3.0000000e+00 3.0500000e+01 
7.5000000e-01 3.0000000e+00 3.1000000e+01 
7.5000000e-01 3.0000000e+00 3.1500000e+01 
7.5000000e-01 3.0000000e+00 3.2000000e+01 
7.5000000e-01 3.0000000e+00 3.2500000e+01 
7.5000000e-01 3.0000000e+00 3.3000000e+01 
7.5000000e-01 3.0000000e+00 3.3500000e+01 
7.5000000e-01 3.0000000e+00 3.4000000e+01 
7.5000000e-01 3.0000000e+00 3.4500000e+01 
7.5000000e-01 3.0000000e+00 3.5000000e+01 
7.5000000e-01 3.0000000e+00 3.5500000e+01 
7.5000000e-01 3.0000000e+00 3.6000000e+01 
7.5000000e-01 3.0000000e+00 3.6500000e+01 
7.5000000e-01 3.0000000e+00 3.7000000e+01 
7.5000000e-01 3.0000000e+00 3.7500000e+01 
7.5000000e-01 3.0000000e+00 3.8000000e+01 
7.5000000e-01 3.0000000e+00 3.8500000e+01 
7.5000000e-01 3.0000000e+00 3.9000000e+01 
7.5000000e-01 3.0000000e+00 3.9500000e+01 
7.5000000e-01 3.0000000e+00 4.0000000e+01 
7.5000000e-01 3.0000000e+00 4.0500000e+01 
7.5000000e-01 3.0000000e+00 4.1000000e+01 
7.5000000e-01 3.0000000e+00 4.1500000e+01 
7.5000000e-01 3.0000000e+00 4.2000000e+01 
7.5000000e-01 3.0000000e+00 4.2500000e+01 
7.5000000e-01 3.0000000e+00 4.3000000e+01 
7.5000000e-01 3.0000000e+00 4.3500000e+01 
7.5000000e-01 3.0000000e+00 4.4000000e+01 
7.5000000e-01 3.0000000e+00 4.4500000e+01 
7.5000000e-01 3.0000000e+00 4.5000000e+01 
7.5000000e-01 3.0000000e+00 4.5500000e+01 
7.5000000e-01 3.0000000e+00 4.6000000e+01 
7.5000000e-01 3.0000000e+00 4.6500000e+01 
7.5000000e-01 3.0000000e+00 4.7000000e+01 
7.5000000e-01 3.0000000e+00 4.7500000e+01 
7.5000000e-01 3.0000000e+00 4.8000000e+01 
7.5000000e-01 3.0000000e+00 4.8500000e+01 
7.5000000e-01 3.0000000e+00 4.9000000e+01 
7.5000000e-01 3.0000000e+00 4.9500000e+01 
7.5000000e-01 3.0000000e+00 5.0500000e+01 
7.5000000e-01 3.0000000e+00 5.1000000e+01 
7.5000000e-01 3.0000000e+00 5.1500000e+01 
7.5000000e-01 3.0000000e+00 5.2000000e+01 
7.5000000e-01 3.0000000e+00 5.2500000e+01 
7.5000000e-01 3.0000000e+00 5.3000000e+01 
7.5000000e-01 3.0000000e+00 5.3500000e+01 
7.5000000e-01 3.0000000e+00 5.4000000e+01 
7.5000000e-01 3.0000000e+00 5.4500000e+01 
7.5000000e-01 3.0000000e+00 5.5000000e+01 
7.5000000e-01 3.0000000e+00 5.5500000e+01 
7.5000000e-01 3.0000000e+00 5.6000000e+01 
7.5000000e-01 3.0000000e+00 5.6500000e+01 
7.5000000e-01 3.0000000e+00 5.7000000e+01 
7.5000000e-01 3.0000000e+00 5.7500000e+01 
7.5000000e-01 3.0000000e+00 5.8000000e+01 
7.5000000e-01 3.0000000e+00 5.8500000e+01 
7.5000000e-01 3.0000000e+00 5.9000000e+01 
7.5000000e-01 3.0000000e+00 5.9500000e+01 
7.5000000e-01 3.0000000e+00 6.0000000e+01 
7.5000000e-01 3.0000000e+00 6.0500000e+01 
7.5000000e-01 3.0000000e+00 6.1000000e+01 
7.5000000e-01 3.0000000e+00 6.1500000e+01 
7.5000000e-01 3.0000000e+00 6.2000000e+01 
7.5000000e-01 3.0000000e+00 6.2500000e+01 
7.5000000e-01 3.0000000e+00 6.3000000e+01 
7.5000000e-01 3.0000000e+00 6.3500000e+01 
7.5000000e-01 3.0000000e+00 6.4000000e+01 
7.5000000e-01 3.0000000e+00 6.4500000e+01 
7.5000000e-01 3.0000000e+00 6.5000000e+01 
7.5000000e-01 3.0000000e+00 6.5500000e+01 
7.5000000e-01 3.0000000e+00 6.6000000e+01 
7.5000000e-01 3.0000000e+00 6.6500000e+01 
7.5000000e-01 3.0000000e+00 6.7000000e+01 
7.5000000e-01 3.0000000e+00 6.7500000e+01 
7.5000000e-01 3.0000000e+00 6.8000000e+01 
7.5000000e-01 3.0000000e+00 6.8500000e+01 
7.5000000e-01 3.0000000e+00 6.9000000e+01 
7.5000000e-01 3.0000000e+00 6.9500000e+01 
7.5000000e-01 3.0250001e+00 -2.5000000e+01 
7.5000000e-01 3.0250001e+00 -2.4500000e+01 
7.5000000e-01 3.0250001e+00 -2.4000000e+01 
7.5000000e-01 3.0250001e+00 -2.3500000e+01 
7.5000000e-01 3.0250001e+00 -2.3000000e+01 
7.5000000e-01 3.0250001e+00 -2.2500000e+01 
7.5000000e-01 3.0250001e+00 -2.2000000e+01 
7.5000000e-01 3.0250001e+00 -2.1500000e+01 
7.5000000e-01 3.0250001e+00 -2.1000000e+01 
7.5000000e-01 3.0250001e+00 -2.0500000e+01 
7.5000000e-01 3.0250001e+00 -2.0000000e+01 
7.5000000e-01 3.0250001e+00 -1.9500000e+01 
7.5000000e-01 3.0250001e+00 -1.9000000e+01 
7.5000000e-01 3.0250001e+00 -1.8500000e+01 
7.5000000e-01 3.0250001e+00 -1.8000000e+01 
7.5000000e-01 3.0250001e+00 -1.7500000e+01 
7.5000000e-01 3.0250001e+00 -1.7000000e+01 
7.5000000e-01 3.0250001e+00 -1.6500000e+01 
7.5000000e-01 3.0250001e+00 -1.6000000e+01 
7.5000000e-01 3.0250001e+00 -1.5500000e+01 
[...]
POINT_DATA 2186
FIELD FieldData 3
DISPLACEMENT 3 2186  float
0.0000000e+00 0.0000000e+00 0.0000000e+00 
0.0000000e+00 0.0000000e+00 0.0000000e+00 
0.0000000e+00 0.0000000e+00 0.0000000e+00 
0.0000000e+00 0.0000000e+00 0.0000000e+00 
1.0356974e-06 -1.3223460e-06 -1.2120680e-06 
1.1071448e-06 -1.1344141e-06 2.2821851e-06 
0.0000000e+00 -2.4155847e-06 0.0000000e+00 
0.0000000e+00 -1.3666564e-06 0.0000000e+00 
1.7593578e-06 -7.4183816e-07 -4.4776766e-07 
8.4074338e-07 -9.4060931e-07 2.9636426e-06 
-2.9106081e-06 3.9088388e-07 3.4368437e-08 
-1.1609382e-07 -2.9369251e-06 6.0349789e-06 
0.0000000e+00 -3.4569553e-06 0.0000000e+00 
0.0000000e+00 -6.7507494e-07 0.0000000e+00 
-5.8411492e-06 8.9304767e-06 3.4261637e-07 
-1.4190724e-06 4.7103153e-08 7.5910793e-06 
2.4523856e-06 8.6659893e-06 -4.4654095e-07 
-5.8423225e-06 -3.4135978e-06 6.6802772e-06 
0.0000000e+00 6.2861636e-07 0.0000000e+00 
0.0000000e+00 4.8560705e-06 0.0000000e+00 
0.0000000e+00 3.8463959e-06 0.0000000e+00 
0.0000000e+00 3.1736761e-06 0.0000000e+00 
0.0000000e+00 1.4776796e-06 0.0000000e+00 
0.0000000e+00 -5.7364633e-07 0.0000000e+00 
0.0000000e+00 -2.3624032e-06 0.0000000e+00 
0.0000000e+00 -3.5690157e-06 0.0000000e+00 
0.0000000e+00 -4.1474045e-06 0.0000000e+00 
0.0000000e+00 -4.1020198e-06 0.0000000e+00 
0.0000000e+00 -3.3073156e-06 0.0000000e+00 
0.0000000e+00 -1.5676920e-06 0.0000000e+00 
0.0000000e+00 1.0997104e-06 0.0000000e+00 
0.0000000e+00 4.1967360e-06 0.0000000e+00 
0.0000000e+00 6.7679816e-06 0.0000000e+00 
0.0000000e+00 7.7946161e-06 0.0000000e+00 
0.0000000e+00 6.7337801e-06 0.0000000e+00 
0.0000000e+00 3.8272515e-06 0.0000000e+00 
0.0000000e+00 -4.5564953e-08 0.0000000e+00 
0.0000000e+00 -3.8520579e-06 0.0000000e+00 
0.0000000e+00 -6.8646855e-06 0.0000000e+00 
0.0000000e+00 -8.7832550e-06 0.0000000e+00 
0.0000000e+00 -9.5062987e-06 0.0000000e+00 
0.0000000e+00 -8.8298048e-06 0.0000000e+00 
0.0000000e+00 -6.4127748e-06 0.0000000e+00 
0.0000000e+00 -2.1165265e-06 0.0000000e+00 
0.0000000e+00 3.5362152e-06 0.0000000e+00 
0.0000000e+00 9.2166210e-06 0.0000000e+00 
0.0000000e+00 1.3196150e-05 0.0000000e+00 
0.0000000e+00 1.4111286e-05 0.0000000e+00 
0.0000000e+00 1.1613643e-05 0.0000000e+00 
0.0000000e+00 6.5254681e-06 0.0000000e+00 
0.0000000e+00 4.5185763e-07 0.0000000e+00 
0.0000000e+00 -4.9046489e-06 0.0000000e+00 
0.0000000e+00 -8.3638924e-06 0.0000000e+00 
0.0000000e+00 -9.5337327e-06 0.0000000e+00 
0.0000000e+00 -8.6786595e-06 0.0000000e+00 
0.0000000e+00 -6.4224168e-06 0.0000000e+00 
0.0000000e+00 -3.5581463e-06 0.0000000e+00 
0.0000000e+00 -9.9054580e-07 0.0000000e+00 
0.0000000e+00 3.9422173e-07 0.0000000e+00 
0.0000000e+00 4.5320782e-08 0.0000000e+00 
0.0000000e+00 -1.9056547e-06 0.0000000e+00 
0.0000000e+00 -4.5320298e-06 0.0000000e+00 
0.0000000e+00 -6.3845750e-06 0.0000000e+00 
0.0000000e+00 -6.1234664e-06 0.0000000e+00 
0.0000000e+00 -3.2673390e-06 0.0000000e+00 
0.0000000e+00 1.4153077e-06 0.0000000e+00 
0.0000000e+00 6.2727668e-06 0.0000000e+00 
0.0000000e+00 9.7200054e-06 0.0000000e+00 
0.0000000e+00 1.1040957e-05 0.0000000e+00 
0.0000000e+00 1.0467210e-05 0.0000000e+00 
-6.2159029e-06 6.0110260e-06 1.2127040e-06 
-7.6875413e-06 3.1704456e-06 -2.4853230e-06 
-5.9810636e-06 2.5817101e-07 -9.2254868e-06 
-2.4917742e-06 -2.8891957e-06 -1.2891108e-05 
-9.6146014e-06 -5.9599829e-06 -1.0896639e-05 
-8.0408663e-06 -8.4139074e-06 -8.8538709e-06 
-5.7072712e-06 -1.0762818e-05 -5.5664946e-06 
-5.2081027e-06 -1.4406919e-05 -7.8064650e-06 
-4.0615001e-07 -1.8979843e-05 -1.1631480e-05 
-2.2757911e-06 -2.2067075e-05 -1.0257292e-05 
-1.5310414e-06 -2.1414078e-05 -8.8082370e-06 
-3.2418654e-06 -1.6826691e-05 8.7620765e-07 
-1.5702340e-06 -1.1125325e-05 6.9199491e-06 
-8.7859335e-06 -8.2134693e-06 9.4854395e-06 
-6.0654602e-06 -8.6302061e-06 7.0929464e-06 
-7.3894507e-06 -8.4557023e-06 1.1446016e-05 
-7.7620489e-06 -3.1175000e-06 1.5532576e-05 
-1.0869616e-05 7.7025843e-06 1.9199300e-05 
-1.0477994e-05 1.5911843e-05 1.9574378e-05 
-1.2335735e-05 1.0497612e-05 2.1506745e-05 
-1.3849081e-05 -4.8601241e-06 1.5664908e-05 
-1.7308281e-05 -1.2718717e-05 6.3116258e-06 
-1.3419796e-05 -2.2163078e-06 2.2622760e-06 
-6.7542878e-06 2.0499287e-05 2.4516210e-06 
-4.1074700e-06 3.6506673e-05 3.3197591e-06 
1.8249092e-06 3.2758326e-05 5.6927397e-06 
3.0733128e-07 1.9339119e-05 5.2573014e-06 
1.5123188e-06 1.8589455e-05 1.0537942e-05 
7.4485833e-06 5.2503256e-05 1.6389831e-05 
1.2904320e-05 1.1057482e-04 1.5288291e-05 
1.1558432e-05 1.3522079e-04 4.9780308e-05 
6.8699023e-06 5.2820847e-05 7.1986164e-05 
-1.0670664e-05 -1.6558403e-04 1.0712600e-04 
-4.8222519e-05 -5.1281118e-04 2.1171606e-04 
-7.0789101e-05 -1.0181376e-03 2.2263297e-04 
-9.9099183e-05 -1.7518344e-03 1.5650636e-04 
-1.5463059e-04 -2.7974083e-03 2.7238246e-04 
-2.1466969e-04 -4.0385611e-03 7.3189687e-05 
-2.8216612e-04 -4.9378378e-03 6.3755891e-05 
-2.8437981e-04 -4.7268518e-03 -4.6232722e-07 
-2.4510926e-04 -4.1878982e-03 -4.2326927e-05 
-2.3567126e-04 -3.9850990e-03 -8.6234671e-05 
-2.2494094e-04 -4.2510219e-03 -7.6012395e-05 
-2.3764303e-04 -4.3497570e-03 -1.5683008e-04 
-1.7555834e-04 -3.4587155e-03 -2.7608819e-04 
-1.3539253e-04 -2.1342603e-03 -1.6862866e-04 
-5.5955199e-05 -9.9527685e-04 -2.2302900e-04 
-2.9593477e-05 -2.5193027e-04 -1.1056885e-04 
-2.8204317e-06 1.0327372e-04 -9.4950490e-05 
-2.4776964e-06 1.9908775e-04 -5.5558226e-05 
8.6868831e-06 1.7866110e-04 -1.6676144e-05 
7.4106010e-06 1.2126040e-04 -2.3379032e-06 
5.0865901e-06 6.0447604e-05 1.6805603e-05 
-1.9717024e-06 9.7832753e-06 1.7521716e-05 
-3.6244032e-06 -1.9171208e-05 1.9576277e-05 
-7.3193287e-06 -2.8858651e-05 1.7104936e-05 
-6.3903167e-06 -2.8202821e-05 1.5262140e-05 
-6.9901926e-06 -2.0766129e-05 1.3913617e-05 
-9.9553354e-06 -7.1917025e-06 1.3712674e-05 
-8.2092147e-06 8.5953188e-06 1.4354790e-05 
-1.8015691e-06 1.7776019e-05 1.4294094e-05 
-5.1107431e-06 1.0817418e-05 8.1510734e-06 
-1.0377002e-05 -3.1911272e-06 2.3673770e-06 
-6.9982816e-06 7.5147932e-07 4.4345556e-06 
-8.6704104e-06 2.8326433e-05 5.6938179e-06 
-1.8022129e-06 5.8232970e-05 4.3206984e-07 
8.7516610e-06 6.7122070e-05 4.2411839e-06 
1.5652269e-05 4.6178146e-05 1.2410577e-05 
8.0832797e-06 2.6413898e-05 1.9448538e-05 
1.4255973e-05 5.3764685e-05 3.4239081e-05 
1.7067967e-05 1.1004579e-04 7.2727409e-05 
1.7384047e-05 1.0024142e-04 8.3346844e-05 
-5.3197441e-06 -8.3416606e-05 1.3166261e-04 
-2.7657545e-05 -5.0186907e-04 1.3616918e-04 
-8.3684747e-05 -1.1500505e-03 2.4218127e-04 
-6.4803928e-05 -1.9942115e-03 1.9112312e-04 
-2.5533783e-04 -3.0400020e-03 2.9473990e-04 
-8.9776477e-05 -4.1420828e-03 1.3335065e-04 
-3.8959680e-04 -4.8433277e-03 8.9692490e-05 
-9.8884309e-05 -4.5931879e-03 3.6087076e-05 
-2.6249999e-04 -4.1685733e-03 -2.4717698e-05 
-2.4660450e-04 -4.0876614e-03 -1.1682577e-04 
-2.5314474e-04 -4.3297135e-03 -1.0566214e-04 
-2.3910074e-04 -4.2361193e-03 -1.7138135e-04 
-1.6126495e-04 -3.1868883e-03 -2.9751650e-04 
-1.1673987e-04 -1.8316982e-03 -1.7188171e-04 
-4.3203807e-05 -7.7492185e-04 -2.1887672e-04 
-1.7994427e-05 -1.4646820e-04 -1.1205456e-04 
9.4939851e-06 1.4040936e-04 -8.7195862e-05 
1.6092350e-05 2.2329183e-04 -4.1825384e-05 
1.7192931e-05 2.0159288e-04 -6.0911661e-06 
1.3836287e-05 1.3076104e-04 6.6925725e-07 
7.7647892e-06 5.2374096e-05 1.3948861e-05 
5.3163662e-06 -2.1391972e-06 1.2461592e-05 
2.9806749e-06 -2.1145825e-05 1.5766322e-05 
1.7367173e-06 -1.8255116e-05 1.2990701e-05 
2.5287979e-06 -1.2260229e-05 1.0964985e-05 
1.4336728e-06 -1.0630271e-05 1.0209879e-05 
-7.5678929e-07 -9.0349513e-06 8.9966634e-06 
0.0000000e+00 2.9956784e-06 0.0000000e+00 
0.0000000e+00 4.9436744e-06 0.0000000e+00 
0.0000000e+00 1.9116239e-06 0.0000000e+00 
0.0000000e+00 -1.4334296e-06 0.0000000e+00 
0.0000000e+00 -1.4628495e-06 0.0000000e+00 
0.0000000e+00 3.0518649e-07 0.0000000e+00 
0.0000000e+00 1.2161142e-07 0.0000000e+00 
0.0000000e+00 -2.5974850e-06 0.0000000e+00 
0.0000000e+00 -4.5352731e-06 0.0000000e+00 
0.0000000e+00 -2.9133580e-06 0.0000000e+00 
0.0000000e+00 9.0342235e-07 0.0000000e+00 
0.0000000e+00 3.0787849e-06 0.0000000e+00 
0.0000000e+00 1.8595475e-06 0.0000000e+00 
0.0000000e+00 -6.4436500e-07 0.0000000e+00 
0.0000000e+00 -1.2871550e-06 0.0000000e+00 
0.0000000e+00 4.3572615e-07 0.0000000e+00 
0.0000000e+00 2.1947976e-06 0.0000000e+00 
0.0000000e+00 1.9030358e-06 0.0000000e+00 
0.0000000e+00 7.4463053e-08 0.0000000e+00 
0.0000000e+00 -1.1740258e-06 0.0000000e+00 
0.0000000e+00 -8.2429847e-07 0.0000000e+00 
0.0000000e+00 7.5713245e-08 0.0000000e+00 
0.0000000e+00 6.0183709e-08 0.0000000e+00 
0.0000000e+00 -8.7172708e-07 0.0000000e+00 
0.0000000e+00 -1.4443331e-06 0.0000000e+00 
0.0000000e+00 -8.2496553e-07 0.0000000e+00 
0.0000000e+00 4.2071241e-07 0.0000000e+00 
0.0000000e+00 1.1488892e-06 0.0000000e+00 
0.0000000e+00 9.6991096e-07 0.0000000e+00 
0.0000000e+00 4.5910480e-07 0.0000000e+00 
0.0000000e+00 2.4066352e-07 0.0000000e+00 
0.0000000e+00 2.5537184e-07 0.0000000e+00 
0.0000000e+00 3.3559513e-08 0.0000000e+00 
0.0000000e+00 -5.5791355e-07 0.0000000e+00 
0.0000000e+00 -1.0783149e-06 0.0000000e+00 
0.0000000e+00 -9.9337308e-07 0.0000000e+00 
0.0000000e+00 -2.4520622e-07 0.0000000e+00 
0.0000000e+00 6.7147317e-07 0.0000000e+00 
0.0000000e+00 1.0910891e-06 0.0000000e+00 
0.0000000e+00 3.8308899e-06 0.0000000e+00 
0.0000000e+00 3.1661693e-06 0.0000000e+00 
0.0000000e+00 1.4858440e-06 0.0000000e+00 
0.0000000e+00 -5.5668465e-07 0.0000000e+00 
0.0000000e+00 -2.3515518e-06 0.0000000e+00 
0.0000000e+00 -3.5743458e-06 0.0000000e+00 
0.0000000e+00 -4.1654339e-06 0.0000000e+00 
0.0000000e+00 -4.1182443e-06 0.0000000e+00 
0.0000000e+00 -3.3078220e-06 0.0000000e+00 
0.0000000e+00 -1.5504983e-06 0.0000000e+00 
0.0000000e+00 1.1225983e-06 0.0000000e+00 
0.0000000e+00 4.2084362e-06 0.0000000e+00 
0.0000000e+00 6.7602264e-06 0.0000000e+00 
0.0000000e+00 7.7747854e-06 0.0000000e+00 
0.0000000e+00 6.7190808e-06 0.0000000e+00 
0.0000000e+00 3.8302787e-06 0.0000000e+00 
0.0000000e+00 -2.7726106e-08 0.0000000e+00 
0.0000000e+00 -3.8356766e-06 0.0000000e+00 
0.0000000e+00 -6.8659169e-06 0.0000000e+00 
0.0000000e+00 -8.8045153e-06 0.0000000e+00 
0.0000000e+00 -9.5334335e-06 0.0000000e+00 
0.0000000e+00 -8.8425750e-06 0.0000000e+00 
0.0000000e+00 -6.4010142e-06 0.0000000e+00 
0.0000000e+00 -2.0890745e-06 0.0000000e+00 
0.0000000e+00 3.5581438e-06 0.0000000e+00 
0.0000000e+00 9.2168812e-06 0.0000000e+00 
0.0000000e+00 1.3176609e-05 0.0000000e+00 
0.0000000e+00 1.4089021e-05 0.0000000e+00 
0.0000000e+00 1.1606431e-05 0.0000000e+00 
0.0000000e+00 6.5391337e-06 0.0000000e+00 
0.0000000e+00 4.7807504e-07 0.0000000e+00 
0.0000000e+00 -4.8813940e-06 0.0000000e+00 
0.0000000e+00 -8.3556442e-06 0.0000000e+00 
0.0000000e+00 -9.5408550e-06 0.0000000e+00 
0.0000000e+00 -8.6906884e-06 0.0000000e+00 
0.0000000e+00 -6.4291166e-06 0.0000000e+00 
0.0000000e+00 -3.5604303e-06 0.0000000e+00 
0.0000000e+00 -9.9872580e-07 0.0000000e+00 
0.0000000e+00 3.7295683e-07 0.0000000e+00 
0.0000000e+00 1.5632486e-08 0.0000000e+00 
0.0000000e+00 -1.9302036e-06 0.0000000e+00 
0.0000000e+00 -4.5378647e-06 0.0000000e+00 
0.0000000e+00 -6.3665289e-06 0.0000000e+00 
0.0000000e+00 -6.0912325e-06 0.0000000e+00 
0.0000000e+00 -3.2439282e-06 0.0000000e+00 
0.0000000e+00 1.4101835e-06 0.0000000e+00 
0.0000000e+00 6.2430768e-06 0.0000000e+00 
0.0000000e+00 9.6929216e-06 0.0000000e+00 
0.0000000e+00 1.1042996e-05 0.0000000e+00 
0.0000000e+00 1.0504981e-05 0.0000000e+00 
0.0000000e+00 8.6785622e-06 0.0000000e+00 
0.0000000e+00 6.0383777e-06 0.0000000e+00 
0.0000000e+00 3.1707859e-06 0.0000000e+00 
0.0000000e+00 2.2542572e-07 0.0000000e+00 
0.0000000e+00 -2.9135151e-06 0.0000000e+00 
0.0000000e+00 -5.9281183e-06 0.0000000e+00 
0.0000000e+00 -8.3691348e-06 0.0000000e+00 
0.0000000e+00 -1.0808712e-05 0.0000000e+00 
0.0000000e+00 -1.4481470e-05 0.0000000e+00 
0.0000000e+00 -1.9024175e-05 0.0000000e+00 
0.0000000e+00 -2.2042992e-05 0.0000000e+00 
0.0000000e+00 -2.1297337e-05 0.0000000e+00 
0.0000000e+00 -1.6761724e-05 0.0000000e+00 
0.0000000e+00 -1.1235684e-05 0.0000000e+00 
0.0000000e+00 -8.3853020e-06 0.0000000e+00 
0.0000000e+00 -8.7339113e-06 0.0000000e+00 
0.0000000e+00 -8.3926343e-06 0.0000000e+00 
0.0000000e+00 -2.7819697e-06 0.0000000e+00 
0.0000000e+00 7.9662268e-06 0.0000000e+00 
0.0000000e+00 1.5482512e-05 0.0000000e+00 
0.0000000e+00 9.9196795e-06 0.0000000e+00 
0.0000000e+00 -4.8341558e-06 0.0000000e+00 
0.0000000e+00 -1.2242856e-05 0.0000000e+00 
0.0000000e+00 -1.6112239e-06 0.0000000e+00 
0.0000000e+00 2.0553880e-05 0.0000000e+00 
0.0000000e+00 3.5859932e-05 0.0000000e+00 
0.0000000e+00 3.2288608e-05 0.0000000e+00 
0.0000000e+00 1.8881981e-05 0.0000000e+00 
0.0000000e+00 1.9295354e-05 0.0000000e+00 
0.0000000e+00 5.4551929e-05 0.0000000e+00 
0.0000000e+00 1.1203760e-04 0.0000000e+00 
0.0000000e+00 1.3402219e-04 0.0000000e+00 
0.0000000e+00 5.1038125e-05 0.0000000e+00 
0.0000000e+00 -1.6521520e-04 0.0000000e+00 
0.0000000e+00 -5.1169994e-04 0.0000000e+00 
0.0000000e+00 -1.0170370e-03 0.0000000e+00 
0.0000000e+00 -1.7578694e-03 0.0000000e+00 
0.0000000e+00 -2.8115809e-03 0.0000000e+00 
0.0000000e+00 -4.0671276e-03 0.0000000e+00 
0.0000000e+00 -4.9609835e-03 0.0000000e+00 
0.0000000e+00 -4.7523528e-03 0.0000000e+00 
0.0000000e+00 -4.2063668e-03 0.0000000e+00 
0.0000000e+00 -4.0115011e-03 0.0000000e+00 
0.0000000e+00 -4.2766696e-03 0.0000000e+00 
0.0000000e+00 -4.3801712e-03 0.0000000e+00 
0.0000000e+00 -3.4772644e-03 0.0000000e+00 
0.0000000e+00 -2.1497614e-03 0.0000000e+00 
0.0000000e+00 -1.0027193e-03 0.0000000e+00 
0.0000000e+00 -2.5517304e-04 0.0000000e+00 
0.0000000e+00 1.0356365e-04 0.0000000e+00 
0.0000000e+00 2.0155447e-04 0.0000000e+00 
0.0000000e+00 1.8000507e-04 0.0000000e+00 
0.0000000e+00 1.2183189e-04 0.0000000e+00 
0.0000000e+00 6.0662020e-05 0.0000000e+00 
0.0000000e+00 1.0480067e-05 0.0000000e+00 
0.0000000e+00 -1.9025618e-05 0.0000000e+00 
0.0000000e+00 -2.9323917e-05 0.0000000e+00 
0.0000000e+00 -2.8452598e-05 0.0000000e+00 
0.0000000e+00 -2.0560339e-05 0.0000000e+00 
0.0000000e+00 -6.8047680e-06 0.0000000e+00 
0.0000000e+00 8.7661010e-06 0.0000000e+00 
0.0000000e+00 1.7014650e-05 0.0000000e+00 
0.0000000e+00 1.0020191e-05 0.0000000e+00 
0.0000000e+00 -2.6396388e-06 0.0000000e+00 
0.0000000e+00 1.7344021e-06 0.0000000e+00 
0.0000000e+00 2.8672783e-05 0.0000000e+00 
0.0000000e+00 5.8104535e-05 0.0000000e+00 
0.0000000e+00 6.5675602e-05 0.0000000e+00 
0.0000000e+00 4.5184464e-05 0.0000000e+00 
0.0000000e+00 2.8137873e-05 0.0000000e+00 
0.0000000e+00 5.6474411e-05 0.0000000e+00 
0.0000000e+00 1.1159036e-04 0.0000000e+00 
0.0000000e+00 9.9786812e-05 0.0000000e+00 
0.0000000e+00 -8.6257423e-05 0.0000000e+00 
0.0000000e+00 -5.0438661e-04 0.0000000e+00 
0.0000000e+00 -1.1488697e-03 0.0000000e+00 
0.0000000e+00 -1.9989326e-03 0.0000000e+00 
0.0000000e+00 -3.0519958e-03 0.0000000e+00 
0.0000000e+00 -4.1708234e-03 0.0000000e+00 
0.0000000e+00 -4.8699849e-03 0.0000000e+00 
0.0000000e+00 -4.6218135e-03 0.0000000e+00 
0.0000000e+00 -4.1873376e-03 0.0000000e+00 
0.0000000e+00 -4.1111261e-03 0.0000000e+00 
0.0000000e+00 -4.3523908e-03 0.0000000e+00 
0.0000000e+00 -4.2660530e-03 0.0000000e+00 
0.0000000e+00 -3.2072591e-03 0.0000000e+00 
0.0000000e+00 -1.8483438e-03 0.0000000e+00 
0.0000000e+00 -7.8133732e-04 0.0000000e+00 
0.0000000e+00 -1.4709502e-04 0.0000000e+00 
0.0000000e+00 1.4199108e-04 0.0000000e+00 
0.0000000e+00 2.2453639e-04 0.0000000e+00 
0.0000000e+00 2.0202358e-04 0.0000000e+00 
0.0000000e+00 1.3146974e-04 0.0000000e+00 
0.0000000e+00 5.3273270e-05 0.0000000e+00 
0.0000000e+00 -1.3954996e-06 0.0000000e+00 
0.0000000e+00 -2.1226113e-05 0.0000000e+00 
0.0000000e+00 -1.8736659e-05 0.0000000e+00 
0.0000000e+00 -1.2546559e-05 0.0000000e+00 
0.0000000e+00 -1.0488183e-05 0.0000000e+00 
0.0000000e+00 -8.8186625e-06 0.0000000e+00 
0.0000000e+00 -3.4612474e-06 0.0000000e+00 
0.0000000e+00 2.8088466e-06 0.0000000e+00 
0.0000000e+00 4.8447105e-06 0.0000000e+00 
0.0000000e+00 2.0196826e-06 0.0000000e+00 
0.0000000e+00 -1.2774472e-06 0.0000000e+00 
0.0000000e+00 -1.4622226e-06 0.0000000e+00 
0.0000000e+00 1.6590735e-07 0.0000000e+00 
0.0000000e+00 3.3597775e-08 0.0000000e+00 
0.0000000e+00 -2.5246929e-06 0.0000000e+00 
0.0000000e+00 -4.4023786e-06 0.0000000e+00 
0.0000000e+00 -2.8881495e-06 0.0000000e+00 
0.0000000e+00 7.9671702e-07 0.0000000e+00 
0.0000000e+00 2.9756159e-06 0.0000000e+00 
0.0000000e+00 1.8784494e-06 0.0000000e+00 
0.0000000e+00 -5.3966954e-07 0.0000000e+00 
0.0000000e+00 -1.2278704e-06 0.0000000e+00 
0.0000000e+00 3.8854145e-07 0.0000000e+00 
0.0000000e+00 2.1133555e-06 0.0000000e+00 
0.0000000e+00 1.8899259e-06 0.0000000e+00 
0.0000000e+00 1.3561795e-07 0.0000000e+00 
0.0000000e+00 -1.1237901e-06 0.0000000e+00 
0.0000000e+00 -8.4514403e-07 0.0000000e+00 
0.0000000e+00 1.9201266e-08 0.0000000e+00 
0.0000000e+00 4.2251600e-08 0.0000000e+00 
0.0000000e+00 -8.3512367e-07 0.0000000e+00 
0.0000000e+00 -1.4066923e-06 0.0000000e+00 
0.0000000e+00 -8.3249512e-07 0.0000000e+00 
0.0000000e+00 3.8532031e-07 0.0000000e+00 
0.0000000e+00 1.1347589e-06 0.0000000e+00 
0.0000000e+00 9.9106398e-07 0.0000000e+00 
0.0000000e+00 4.8197484e-07 0.0000000e+00 
0.0000000e+00 2.3422616e-07 0.0000000e+00 
0.0000000e+00 2.3116191e-07 0.0000000e+00 
0.0000000e+00 2.5320160e-08 0.0000000e+00 
0.0000000e+00 -5.4091822e-07 0.0000000e+00 
0.0000000e+00 -1.0601439e-06 0.0000000e+00 
0.0000000e+00 -9.9547151e-07 0.0000000e+00 
0.0000000e+00 -2.5904512e-07 0.0000000e+00 
0.0000000e+00 6.6707463e-07 0.0000000e+00 
0.0000000e+00 1.0963595e-06 0.0000000e+00 
0.0000000e+00 0.0000000e+00 0.0000000e+00 
0.0000000e+00 0.0000000e+00 0.0000000e+00 
0.0000000e+00 0.0000000e+00 0.0000000e+00 
0.0000000e+00 0.0000000e+00 0.0000000e+00 
0.0000000e+00 0.0000000e+00 0.0000000e+00 
0.0000000e+00 0.0000000e+00 0.0000000e+00 
0.0000000e+00 0.0000000e+00 0.0000000e+00 
0.0000000e+00 0.0000000e+00 0.0000000e+00 
0.0000000e+00 0.0000000e+00 0.0000000e+00 
0.0000000e+00 0.0000000e+00 0.0000000e+00 
0.0000000e+00 0.0000000e+00 0.0000000e+00 
0.0000000e+00 0.0000000e+00 0.0000000e+00 
0.0000000e+00 0.0000000e+00 0.0000000e+00 
0.0000000e+00 0.0000000e+00 0.0000000e+00 
0.0000000e+00 0.0000000e+00 0.0000000e+00 
0.0000000e+00 0.0000000e+00 0.0000000e+00 
0.0000000e+00 0.0000000e+00 0.0000000e+00 
0.0000000e+00 0.0000000e+00 0.0000000e+00 
0.0000000e+00 0.0000000e+00 0.0000000e+00 
0.0000000e+00 0.0000000e+00 0.0000000e+00 
0.0000000e+00 0.0000000e+00 0.0000000e+00 
0.0000000e+00 0.0000000e+00 0.0000000e+00 
0.0000000e+00 0.0000000e+00 0.0000000e+00 
0.0000000e+00 0.0000000e+00 0.0000000e+00 
0.0000000e+00 0.0000000e+00 0.0000000e+00 
0.0000000e+00 0.0000000e+00 0.0000000e+00 
0.0000000e+00 0.0000000e+00 0.0000000e+00 
0.0000000e+00 0.0000000e+00 0.0000000e+00 
0.0000000e+00 0.0000000e+00 0.0000000e+00 
0.0000000e+00 0.0000000e+00 0.0000000e+00 
0.0000000e+00 0.0000000e+00 0.0000000e+00 
0.0000000e+00 0.0000000e+00 0.0000000e+00 
0.0000000e+00 0.0000000e+00 0.0000000e+00 
0.0000000e+00 0.0000000e+00 0.0000000e+00 
0.0000000e+00 0.0000000e+00 0.0000000e+00 
0.0000000e+00 0.0000000e+00 0.0000000e+00 
0.0000000e+00 0.0000000e+00 0.0000000e+00 
0.0000000e+00 0.0000000e+00 0.0000000e+00 
0.0000000e+00 0.0000000e+00 0.0000000e+00 
0.0000000e+00 0.0000000e+00 0.0000000e+00 
0.0000000e+00 0.0000000e+00 0.0000000e+00 
0.0000000e+00 0.0000000e+00 0.0000000e+00 
0.0000000e+00 0.0000000e+00 0.0000000e+00 
0.0000000e+00 0.0000000e+00 0.0000000e+00 
0.0000000e+00 0.0000000e+00 0.0000000e+00 
0.0000000e+00 0.0000000e+00 0.0000000e+00 
0.0000000e+00 0.0000000e+00 0.0000000e+00 
0.0000000e+00 0.0000000e+00 0.0000000e+00 
0.0000000e+00 0.0000000e+00 0.0000000e+00 
0.0000000e+00 0.0000000e+00 0.0000000e+00 
0.0000000e+00 0.0000000e+00 0.0000000e+00 
0.0000000e+00 0.0000000e+00 0.0000000e+00 
0.0000000e+00 0.0000000e+00 0.0000000e+00 
0.0000000e+00 0.0000000e+00 0.0000000e+00 
0.0000000e+00 0.0000000e+00 0.0000000e+00 
0.0000000e+00 0.0000000e+00 0.0000000e+00 
0.0000000e+00 0.0000000e+00 0.0000000e+00 