# vtk DataFile Version 4.0
vtk output
ASCII
DATASET UNSTRUCTURED_GRID
POINTS 2186 float
0.0000000e+00 0.0000000e+00 0.0000000e+00 
0.0000000e+00 0.0000000e+00 5.0000000e+01 
5.0000000e+00 0.0000000e+00 0.0000000e+00 
5.0000000e+00 0.0000000e+00 5.0000000e+01 
5.0000000e+00 1.0000000e+00 0.0000000e+00 
5.0000000e+00 1.0000000e+00 5.0000000e+01 
0.0000000e+00 1.0000000e+00 0.0000000e+00 
0.0000000e+00 1.0000000e+00 5.0000000e+01 
5.0000000e+00 2.0000000e+00 0.0000000e+00 
5.0000000e+00 2.0000000e+00 5.0000000e+01 
3.0000000e+00 2.0000000e+00 0.0000000e+00 
3.0000000e+00 2.0000000e+00 5.0000000e+01 
0.0000000e+00 2.0000000e+00 0.0000000e+00 
0.0000000e+00 2.0000000e+00 5.0000000e+01 
1.5000000e+00 3.0000000e+00 0.0000000e+00 
1.5000000e+00 3.0000000e+00 5.0000000e+01 
7.5000000e-01 3.0000000e+00 0.0000000e+00 
7.5000000e-01 3.0000000e+00 5.0000000e+01 
0.0000000e+00 3.0000000e+00 0.0000000e+00 
0.0000000e+00 3.0000000e+00 5.0000000e+01 
7.5000000e-01 3.0000000e+00 -2.5000000e+01 
7.5000000e-01 3.0000000e+00 -2.4500000e+01 
7.5000000e-01 3.0000000e+00 -2.4000000e+01 
7.5000000e-01 3.0000000e+00 -2.3500000e+01 
7.5000000e-01 3.0000000e+00 -2.3000000e+01 
7.5000000e-01 3.0000000e+00 -2.2500000e+01 
7.5000000e-01 3.0000000e+00 -2.2000000e+01 
7.5000000e-01 3.0000000e+00 -2.1500000e+01 
7.5000000e-01 3.0000000e+00 -2.1000000e+01 
7.5000000e-01 3.0000000e+00 -2.0500000e+01 
7.5000000e-01 3.0000000e+00 -2.0000000e+01 
7.5000000e-01 3.0000000e+00 -1.9500000e+01 
7.5000000e-01 3.0000000e+00 -1.9000000e+01 
7.5000000e-01 3.0000000e+00 -1.8500000e+01 
7.5000000e-01 3.0000000e+00 -1.8000000e+01 
7.5000000e-01 3.0000000e+00 -1.7500000e+01 
7.5000000e-01 3.0000000e+00 -1.7000000e+01 
7.5000000e-01 3.0000000e+00 -1.6500000e+01 
7.5000000e-01 3.0000000e+00 -1.6000000e+01 
7.5000000e-01 3.0000000e+00 -1.5500000e+01 
7.5000000e-01 3.0000000e+00 -1.5000000e+01 
7.5000000e-01 3.0000000e+00 -1.4500000e+01 
7.5000000e-01 3.0000000e+00 -1.4000000e+01 
7.5000000e-01 3.0000000e+00 -1.3500000e+01 
7.5000000e-01 3.0000000e+00 -1.3000000e+01 
7.5000000e-01 3.0000000e+00 -1.2500000e+01 
7.5000000e-01 3.0000000e+00 -1.2000000e+01 
7.5000000e-01 3.0000000e+00 -1.1500000e+01 
7.5000000e-01 3.0000000e+00 -1.1000000e+01 
7.5000000e-01 3.0000000e+00 -1.0500000e+01 
7.5000000e-01 3.0000000e+00 -1.0000000e+01 
7.5000000e-01 3.0000000e+00 -9.5000000e+00 
7.5000000e-01 3.0000000e+00 -9.0000000e+00 
7.5000000e-01 3.0000000e+00 -8.5000000e+00 
7.5000000e-01 3.0000000e+00 -8.0000000e+00 
7.5000000e-01 3.0000000e+00 -7.5000000e+00 
7.5000000e-01 3.0000000e+00 -7.0000000e+00 
7.5000000e-01 3.0000000e+00 -6.5000000e+00 
7.5000000e-01 3.0000000e+00 -6.0000000e+00 
7.5000000e-01 3.0000000e+00 -5.5000000e+00 
7.5000000e-01 3.0000000e+00 -5.0000000e+00 
7.5000000e-01 3.0000000e+00 -4.5000000e+00 
7.5000000e-01 3.0000000e+00 -4.0000000e+00 
7.5000000e-01 3.0000000e+00 -3.5000000e+00 
7.5000000e-01 3.0000000e+00 -3.0000000e+00 
7.5000000e-01 3.0000000e+00 -2.5000000e+00 
7.5000000e-01 3.0000000e+00 -2.0000000e+00 
7.5000000e-01 3.0000000e+00 -1.5000000e+00 
7.5000000e-01 3.0000000e+00 -1.0000000e+00 
7.5000000e-01 3.0000000e+00 -5.0000000e-01 
7.5000000e-01 3.0000000e+00 5.0000000e-01 
7.5000000e-01 3.0000000e+00 1.0000000e+00 
7.5000000e-01 3.0000000e+00 1.5000000e+00 
7.5000000e-01 3.0000000e+00 2.0000000e+00 
7.5000000e-01 3.0000000e+00 2.5000000e+00 
7.5000000e-01 3.0000000e+00 3.0000000e+00 
7.5000000e-01 3.0000000e+00 3.5000000e+00 
7.5000000e-01 3.0000000e+00 4.0000000e+00 
7.5000000e-01 3.0000000e+00 4.5000000e+00 
7.5000000e-01 3.0000000e+00 5.0000000e+00 
7.5000000e-01 3.0000000e+00 5.5000000e+00 
7.5000000e-01 3.0000000e+00 6.0000000e+00 
7.5000000e-01 3.0000000e+00 6.5000000e+00 
7.5000000e-01 3.0000000e+00 7.0000000e+00 
7.5000000e-01 3.0000000e+00 7.5000000e+00 
7.5000000e-01 3.0000000e+00 8.0000000e+00 
7.5000000e-01 3.0000000e+00 8.5000000e+00 
7.5000000e-01 3.0000000e+00 9.0000000e+00 
7.5000000e-01 3.0000000e+00 9.5000000e+00 
7.5000000e-01 3.0000000e+00 1.0000000e+01 
7.5000000e-01 3.0000000e+00 1.0500000e+01 
7.5000000e-01 3.0000000e+00 1.1000000e+01 
7.5000000e-01 3.0000000e+00 1.1500000e+01 
7.5000000e-01 3.0000000e+00 1.2000000e+01 
7.5000000e-01 3.0000000e+00 1.2500000e+01 
7.5000000e-01 3.0000000e+00 1.3000000e+01 
7.5000000e-01 3.0000000e+00 1.3500000e+01 
7.5000000e-01 3.0000000e+00 1.4000000e+01 
7.5000000e-01 3.0000000e+00 1.4500000e+01 
7.5000000e-01 3.0000000e+00 1.5000000e+01 
7.5000000e-01 3.0000000e+00 1.5500000e+01 
7.5000000e-01 3.0000000e+00 1.6000000e+01 
7.5000000e-01 3.0000000e+00 1.6500000e+01 
7.5000000e-01 3.0000000e+00 1.7000000e+01 
7.5000000e-01 3.0000000e+00 1.7500000e+01 
7.5000000e-01 3.0000000e+00 1.8000000e+01 
7.5000000e-01 3.0000000e+00 1.8500000e+01 
7.5000000e-01 3.0000000e+00 1.9000000e+01 
7.5000000e-01 3.0000000e+00 1.9500000e+01 
7.5000000e-01 3.0000000e+00 2.0000000e+01 
7.5000000e-01 3.0000000e+00 2.0500000e+01 
7.5000000e-01 3.0000000e+00 2.1000000e+01 
7.5000000e-01 3.0000000e+00 2.1500000e+01 
7.5000000e-01 3.0000000e+00 2.2000000e+01 
7.5000000e-01 3.0000000e+00 2.2500000e+01 
7.5000000e-01 3.0000000e+00 2.3000000e+01 
7.5000000e-01 3.0000000e+00 2.3500000e+01 
7.5000000e-01 3.0000000e+00 2.4000000e+01 
7.5000000e-01 3.0000000e+00 2.4500000e+01 
7.5000000e-01 3.0000000e+00 2.5000000e+01 
7.5000000e-01 3.0000000e+00 2.5500000e+01 
7.5000000e-01 3.0000000e+00 2.6000000e+01 
7.5000000e-01 3.0000000e+00 2.6500000e+01 
7.5000000e-01 3.0000000e+00 2.7000000e+01 
7.5000000e-01 3.0000000e+00 2.7500000e+01 
7.5000000e-01 3.0000000e+00 2.8000000e+01 
7.5000000e-01 3.0000000e+00 2.8500000e+01 
7.5000000e-01 3.0000000e+00 2.9000000e+01 
7.5000000e-01 3.0000000e+00 2.9500000e+01 
7.5000000e-01 3.0000000e+00 3.0000000e+01 
7.5000000e-01 3.0000000e+00 3.0500000e+01 
7.5000000e-01 3.0000000e+00 3.1000000e+01 
7.5000000e-01 3.0000000e+00 3.1500000e+01 
7.5000000e-01 3.0000000e+00 3.2000000e+01 
7.5000000e-01 3.0000000e+00 3.2500000e+01 
7.5000000e-01 3.0000000e+00 3.3000000e+01 
7.5000000e-01 3.0000000e+00 3.3500000e+01 
7.5000000e-01 3.0000000e+00 3.4000000e+01 
7.5000000e-01 3.0000000e+00 3.4500000e+01 
7.5000000e-01 3.0000000e+00 3.5000000e+01 
7.5000000e-01 3.0000000e+00 3.5500000e+01 
7.5000000e-01 3.0000000e+00 3.6000000e+01 
7.5000000e-01 3.0000000e+00 3.6500000e+01 
7.5000000e-01 3.0000000e+00 3.7000000e+01 
7.5000000e-01 3.0000000e+00 3.7500000e+01 
7.5000000e-01 3.0000000e+00 3.8000000e+01 
7.5000000e-01 3.0000000e+00 3.8500000e+01 
7.5000000e-01 3.0000000e+00 3.9000000e+01 
7.5000000e-01 3.0000000e+00 3.9500000e+01 
7.5000000e-01 3.0000000e+00 4.0000000e+01 
7.5000000e-01 3.0000000e+00 4.0500000e+01 
7.5000000e-01 3.0000000e+00 4.1000000e+01 
7.5000000e-01 3.0000000e+00 4.1500000e+01 
7.5000000e-01 3.0000000e+00 4.2000000e+01 
7.5000000e-01 3.0000000e+00 4.2500000e+01 
7.5000000e-01 3.0000000e+00 4.3000000e+01 
7.5000000e-01 3.0000000e+00 4.3500000e+01 
7.5000000e-01 3.0000000e+00 4.4000000e+01 
7.5000000e-01 3.0000000e+00 4.4500000e+01 
7.5000000e-01 3.0000000e+00 4.5000000e+01 
7.5000000e-01 3.0000000e+00 4.5500000e+01 
7.5000000e-01 3.0000000e+00 4.6000000e+01 
7.5000000e-01 3.0000000e+00 4.6500000e+01 
7.5000000e-01 3.0000000e+00 4.7000000e+01 
7.5000000e-01 3.0000000e+00 4.7500000e+01 
7.5000000e-01 3.0000000e+00 4.8000000e+01 
7.5000000e-01 3.0000000e+00 4.8500000e+01 
7.5000000e-01 3.0000000e+00 4.9000000e+01 
7.5000000e-01 3.0000000e+00 4.9500000e+01 
7.5000000e-01 3.0000000e+00 5.0500000e+01 
7.5000000e-01 3.0000000e+00 5.1000000e+01 
7.5000000e-01 3.0000000e+00 5.1500000e+01 
7.5000000e-01 3.0000000e+00 5.2000000e+01 
7.5000000e-01 3.0000000e+00 5.2500000e+01 
7.5000000e-01 3.0000000e+00 5.3000000e+01 
7.5000000e-01 3.0000000e+00 5.3500000e+01 
7.5000000e-01 3.0000000e+00 5.4000000e+01 
7.5000000e-01 3.0000000e+00 5.4500000e+01 
7.5000000e-01 3.0000000e+00 5.5000000e+01 
7.5000000e-01 3.0000000e+00 5.5500000e+01 
7.5000000e-01 3.0000000e+00 5.6000000e+01 
7.5000000e-01 3.0000000e+00 5.6500000e+01 
7.5000000e-01 3.0000000e+00 5.7000000e+01 
7.5000000e-01 3.0000000e+00 5.7500000e+01 
7.5000000e-01 3.0000000e+00 5.8000000e+01 
7.5000000e-01 3.0000000e+00 5.8500000e+01 
7.5000000e-01 3.0000000e+00 5.9000000e+01 
7.5000000e-01 3.0000000e+00 5.9500000e+01 
7.5000000e-01 3.0000000e+00 6.0000000e+01 
7.5000000e-01 3.0000000e+00 6.0500000e+01 
7.5000000e-01 3.0000000e+00 6.1000000e+01 
7.5000000e-01 3.0000000e+00 6.1500000e+01 
7.5000000e-01 3.0000000e+00 6.2000000e+01 
7.5000000e-01 3.0000000e+00 6.2500000e+01 
7.5000000e-01 3.0000000e+00 6.3000000e+01 
7.5000000e-01 3.0000000e+00 6.3500000e+01 
7.5000000e-01 3.0000000e+00 6.4000000e+01 
7.5000000e-01 3.0000000e+00 6.4500000e+01 
7.5000000e-01 3.0000000e+00 6.5000000e+01 
7.5000000e-01 3.0000000e+00 6.5500000e+01 
7.5000000e-01 3.0000000e+00 6.6000000e+01 
7.5000000e-01 3.0000000e+00 6.6500000e+01 
7.5000000e-01 3.0000000e+00 6.7000000e+01 
7.5000000e-01 3.0000000e+00 6.7500000e+01 
7.5000000e-01 3.0000000e+00 6.8000000e+01 
7.5000000e-01 3.0000000e+00 6.8500000e+01 
7.5000000e-01 3.0000000e+00 6.9000000e+01 
7.5000000e-01 3.0000000e+00 6.9500000e+01 
7.5000000e-01 3.0250001e+00 -2.5000000e+01 
7.5000000e-01 3.0250001e+00 -2.4500000e+01 
7.5000000e-01 3.0250001e+00 -2.4000000e+01 
7.5000000e-01 3.0250001e+00 -2.3500000e+01 
7.5000000e-01 3.0250001e+00 -2.3000000e+01 
7.5000000e-01 3.0250001e+00 -2.2500000e+01 
7.5000000e-01 3.0250001e+00 -2.2000000e+01 
7.5000000e-01 3.0250001e+00 -2.1500000e+01 
7.5000000e-01 3.0250001e+00 -2.1000000e+01 
7.5000000e-01 3.0250001e+00 -2.0500000e+01 
7.5000000e-01 3.0250001e+00 -2.0000000e+01 
7.5000000e-01 3.0250001e+00 -1.9500000e+01 
7.5000000e-01 3.0250001e+00 -1.9000000e+01 
7.5000000e-01 3.0250001e+00 -1.8500000e+01 
7.5000000e-01 3.0250001e+00 -1.8000000e+01 
7.5000000e-01 3.0250001e+00 -1.7500000e+01 
7.5000000e-01 3.0250001e+00 -1.7000000e+01 
7.5000000e-01 3.0250001e+00 -1.6500000e+01 
7.5000000e-01 3.0250001e+00 -1.6000000e+01 
7.5000000e-01 3.0250001e+00 -1.5500000e+01 
[...]
POINT_DATA 2186
FIELD FieldData 3
DISPLACEMENT 3 2186  float
0.0000000e+00 0.0000000e+00 0.0000000e+00 
0.0000000e+00 0.0000000e+00 0.0000000e+00 
0.0000000e+00 0.0000000e+00 0.0000000e+00 
0.0000000e+00 0.0000000e+00 0.0000000e+00 
-9.6486987e-09 9.7005193e-07 -7.2770331e-07 
-7.8845642e-07 9.2330913e-07 -9.3832853e-07 
0.0000000e+00 4.7983003e-06 0.0000000e+00 
0.0000000e+00 5.9072886e-07 0.0000000e+00 
6.0471613e-08 4.8155601e-07 3.2232919e-07 
-6.9388011e-07 1.4976754e-06 -1.2623027e-06 
3.4870927e-06 -1.2447050e-06 -9.8842054e-07 
8.7106497e-07 3.2819510e-06 -1.6564146e-06 
0.0000000e+00 7.1603499e-06 0.0000000e+00 
0.0000000e+00 6.1076150e-07 0.0000000e+00 
1.6247204e-06 -7.1672662e-07 4.5702786e-06 
-2.0974835e-06 1.1818674e-05 -1.1166077e-05 
3.0412764e-06 -6.4609198e-06 4.3017731e-06 
5.6630229e-06 7.3378787e-06 -1.2538002e-05 
0.0000000e+00 -1.3063302e-06 0.0000000e+00 
0.0000000e+00 -6.7382548e-06 0.0000000e+00 
0.0000000e+00 -1.0971706e-06 0.0000000e+00 
0.0000000e+00 -4.4975170e-07 0.0000000e+00 
0.0000000e+00 7.1208183e-07 0.0000000e+00 
0.0000000e+00 1.0588305e-06 0.0000000e+00 
0.0000000e+00 -5.9756694e-08 0.0000000e+00 
0.0000000e+00 -2.0109940e-06 0.0000000e+00 
0.0000000e+00 -3.3105218e-06 0.0000000e+00 
0.0000000e+00 -2.7746835e-06 0.0000000e+00 
0.0000000e+00 -4.6978639e-07 0.0000000e+00 
0.0000000e+00 2.3129626e-06 0.0000000e+00 
0.0000000e+00 4.0386722e-06 0.0000000e+00 
0.0000000e+00 4.0645664e-06 0.0000000e+00 
0.0000000e+00 3.0004599e-06 0.0000000e+00 
0.0000000e+00 2.0154155e-06 0.0000000e+00 
0.0000000e+00 1.7095535e-06 0.0000000e+00 
0.0000000e+00 1.5439921e-06 0.0000000e+00 
0.0000000e+00 3.3913045e-07 0.0000000e+00 
0.0000000e+00 -2.5692505e-06 0.0000000e+00 
0.0000000e+00 -6.4896199e-06 0.0000000e+00 
0.0000000e+00 -9.5711903e-06 0.0000000e+00 
0.0000000e+00 -9.9339222e-06 0.0000000e+00 
0.0000000e+00 -6.9059524e-06 0.0000000e+00 
0.0000000e+00 -1.4662784e-06 0.0000000e+00 
0.0000000e+00 4.3986079e-06 0.0000000e+00 
0.0000000e+00 8.8907927e-06 0.0000000e+00 
0.0000000e+00 1.1233766e-05 0.0000000e+00 
0.0000000e+00 1.1602981e-05 0.0000000e+00 
0.0000000e+00 1.0412487e-05 0.0000000e+00 
0.0000000e+00 7.7189316e-06 0.0000000e+00 
0.0000000e+00 3.3051747e-06 0.0000000e+00 
0.0000000e+00 -2.6503171e-06 0.0000000e+00 
0.0000000e+00 -8.9551304e-06 0.0000000e+00 
0.0000000e+00 -1.3512580e-05 0.0000000e+00 
0.0000000e+00 -1.4335445e-05 0.0000000e+00 
0.0000000e+00 -1.0882723e-05 0.0000000e+00 
0.0000000e+00 -4.6928799e-06 0.0000000e+00 
0.0000000e+00 1.3337429e-06 0.0000000e+00 
0.0000000e+00 4.6114251e-06 0.0000000e+00 
0.0000000e+00 4.3239129e-06 0.0000000e+00 
0.0000000e+00 1.6832571e-06 0.0000000e+00 
0.0000000e+00 -1.0390755e-06 0.0000000e+00 
0.0000000e+00 -1.9391669e-06 0.0000000e+00 
0.0000000e+00 -4.4557117e-07 0.0000000e+00 
0.0000000e+00 2.6887667e-06 0.0000000e+00 
0.0000000e+00 6.1825817e-06 0.0000000e+00 
0.0000000e+00 9.0325693e-06 0.0000000e+00 
0.0000000e+00 1.0630212e-05 0.0000000e+00 
0.0000000e+00 1.0334070e-05 0.0000000e+00 
0.0000000e+00 7.3453875e-06 0.0000000e+00 
0.0000000e+00 1.3753727e-06 0.0000000e+00 
5.0447711e-06 -1.3132359e-05 -2.5649861e-06 
2.1969397e-06 -1.6017206e-05 -3.4708053e-06 
-8.1802881e-07 -1.4236926e-05 -1.2315996e-06 
-4.7124222e-06 -8.9785344e-06 9.8006276e-06 
-4.0587765e-06 -2.8376985e-06 5.7890352e-06 
-4.6367618e-06 1.3741206e-06 4.6777248e-07 
-3.7461023e-06 3.0212718e-06 -4.5055726e-06 
-7.1983504e-06 3.9492038e-06 -6.4410183e-06 
-7.9807833e-06 6.0302518e-06 -9.3954395e-06 
-6.6003627e-06 9.8453893e-06 -1.0247581e-05 
-3.1479929e-06 1.3046888e-05 -1.0496254e-05 
-3.5274454e-06 1.1444741e-05 -1.2396531e-05 
-3.3400681e-06 4.6148775e-06 -2.0202493e-05 
-2.8294892e-06 -2.9429857e-06 -2.6486894e-05 
2.5996592e-06 -5.9929312e-06 -2.3220660e-05 
1.7462030e-06 -2.7273636e-06 -1.8265097e-05 
2.6182490e-06 -8.2014236e-07 -1.2045819e-05 
1.1943715e-06 -9.5037949e-06 -6.9742819e-06 
1.4521329e-06 -2.5842175e-05 -2.1433641e-06 
2.3130883e-06 -3.4245226e-05 -8.5251408e-08 
1.9776417e-06 -2.5484625e-05 5.5453879e-06 
5.8183718e-06 -5.5023293e-06 1.6780436e-05 
6.3935518e-06 8.6333202e-06 3.3141514e-05 
-8.8054463e-07 1.6966499e-06 3.1418269e-05 
7.3137353e-06 -1.6795437e-05 1.8991906e-05 
1.6413962e-05 -1.4880349e-05 1.2196602e-05 
8.5514409e-07 2.8818318e-05 3.1872351e-05 
1.2991076e-06 1.0049826e-04 3.7651123e-05 
9.2891560e-06 1.3669753e-04 5.1487346e-05 
5.0253111e-06 5.9765200e-05 7.3053285e-05 
-2.5977090e-05 -1.5474540e-04 1.0272059e-04 
-3.0415884e-05 -4.9633166e-04 1.0987225e-04 
-9.0620415e-05 -9.9753833e-04 1.8302165e-04 
-2.8052309e-04 -1.7562690e-03 3.3534737e-04 
-1.8683507e-04 -2.8392191e-03 2.3687574e-04 
-2.0440370e-04 -4.1197236e-03 7.5084492e-05 
-2.6551663e-04 -5.0271163e-03 5.3889093e-05 
-2.6414622e-04 -4.7793570e-03 -2.1809263e-05 
-2.2370623e-04 -4.1899644e-03 -6.2320185e-05 
-2.1237451e-04 -3.9483672e-03 -9.7989985e-05 
-1.9973487e-04 -4.1990881e-03 -7.1578092e-05 
-2.1294260e-04 -4.3021478e-03 -1.3841166e-04 
-1.6543792e-04 -3.4303251e-03 -2.4725246e-04 
-1.2544631e-04 -2.1261321e-03 -1.4068715e-04 
-4.9439313e-05 -1.0034145e-03 -2.0411970e-04 
-1.8150853e-05 -2.7036946e-04 -9.4049145e-05 
1.0908710e-05 8.2746585e-05 -7.9392448e-05 
1.4450388e-05 1.8659765e-04 -2.9957311e-05 
1.9891426e-05 1.7983504e-04 4.4599369e-06 
1.4829650e-05 1.3803881e-04 1.8646588e-05 
3.1354959e-06 8.7958819e-05 3.1095598e-05 
-3.7657430e-06 4.0321534e-05 2.3903776e-05 
-5.6835534e-06 7.4077684e-06 1.6426189e-05 
-9.0254007e-06 -7.5915823e-06 4.4859594e-06 
-5.9680124e-06 -1.0302735e-05 2.8128966e-06 
-8.6946566e-06 -7.4927516e-06 3.4278812e-06 
-1.0941722e-05 -3.7909708e-06 6.5697209e-06 
-9.6483473e-06 -1.2979463e-06 4.3141199e-06 
-7.9854926e-06 -4.7009312e-06 1.7848494e-07 
-5.5977166e-06 -1.8426179e-05 -9.2958853e-06 
-1.8825918e-06 -3.5109017e-05 -1.4977988e-05 
2.7379499e-06 -3.5183843e-05 -2.7591182e-06 
5.2221772e-06 -1.3232197e-05 1.3185589e-05 
3.3858939e-06 1.3570147e-05 1.2908650e-05 
1.0030375e-05 2.3564940e-05 1.4236411e-05 
1.2439904e-05 9.5106370e-06 1.6857952e-05 
6.6615712e-06 -5.1513443e-06 1.2020359e-05 
5.5367864e-06 1.9631021e-05 3.0697640e-05 
1.6217186e-06 6.7606918e-05 5.5980483e-05 
-1.8753750e-06 4.6241967e-05 6.8443747e-05 
-3.2278822e-05 -1.4448374e-04 1.0374420e-04 
-5.7028134e-05 -5.6273903e-04 1.1168203e-04 
-1.0314415e-04 -1.2096305e-03 1.9218145e-04 
-1.2929882e-04 -2.0495425e-03 1.0192265e-04 
-2.6662005e-04 -3.0890638e-03 2.2744822e-04 
-7.9134108e-05 -4.1874824e-03 8.6323947e-05 
-3.9854413e-04 -4.8911935e-03 3.9823270e-05 
-1.5099281e-04 -4.6255975e-03 -1.5483171e-05 
-3.4674615e-04 -4.1603236e-03 -6.6025350e-05 
-8.2625447e-05 -4.0333150e-03 -1.1108343e-04 
-2.5399716e-04 -4.2561493e-03 -7.0279042e-05 
-2.3962994e-04 -4.1783052e-03 -1.4660641e-04 
-1.6507664e-04 -3.1677326e-03 -2.5482252e-04 
-1.0336988e-04 -1.8537223e-03 -1.3413354e-04 
-3.0809366e-05 -8.2206231e-04 -1.8251291e-04 
-6.3822918e-06 -1.9864879e-04 -7.6324526e-05 
2.0271284e-05 9.6369615e-05 -4.9246744e-05 
2.0069840e-05 1.9190949e-04 -7.1133632e-06 
1.4823389e-05 1.8297938e-04 1.7988599e-05 
1.1371585e-05 1.2417346e-04 2.0212627e-05 
2.8152124e-06 5.8111680e-05 2.1328049e-05 
-4.4638566e-07 1.4323004e-05 1.5228673e-05 
-1.8646092e-06 1.6962283e-06 1.4643761e-05 
-3.0270394e-06 5.1521720e-06 1.1052540e-05 
-4.5352840e-06 6.2995223e-06 5.3351919e-06 
-4.2377269e-06 1.6732536e-06 1.8739756e-06 
-4.4359331e-06 -1.4055373e-06 -1.6436973e-06 
-5.0849731e-06 1.7209538e-06 -2.1871310e-06 
-3.5649184e-06 6.8510135e-06 -6.4507904e-06 
0.0000000e+00 2.9955813e-06 0.0000000e+00 
0.0000000e+00 -7.0722803e-07 0.0000000e+00 
0.0000000e+00 -3.2741451e-07 0.0000000e+00 
0.0000000e+00 2.0695118e-06 0.0000000e+00 
0.0000000e+00 2.3096738e-06 0.0000000e+00 
0.0000000e+00 -5.2196401e-07 0.0000000e+00 
0.0000000e+00 -3.3931983e-06 0.0000000e+00 
0.0000000e+00 -3.4465625e-06 0.0000000e+00 
0.0000000e+00 -1.3329646e-06 0.0000000e+00 
0.0000000e+00 1.0226039e-07 0.0000000e+00 
0.0000000e+00 -4.4919122e-07 0.0000000e+00 
0.0000000e+00 -1.4341759e-06 0.0000000e+00 
0.0000000e+00 -8.2436844e-07 0.0000000e+00 
0.0000000e+00 1.1439708e-06 0.0000000e+00 
0.0000000e+00 2.3228376e-06 0.0000000e+00 
0.0000000e+00 1.4319138e-06 0.0000000e+00 
0.0000000e+00 -3.5326894e-07 0.0000000e+00 
0.0000000e+00 -9.1423203e-07 0.0000000e+00 
0.0000000e+00 2.2385686e-07 0.0000000e+00 
0.0000000e+00 1.4415609e-06 0.0000000e+00 
0.0000000e+00 1.1007775e-06 0.0000000e+00 
0.0000000e+00 -5.2672038e-07 0.0000000e+00 
0.0000000e+00 -1.7265986e-06 0.0000000e+00 
0.0000000e+00 -1.4037596e-06 0.0000000e+00 
0.0000000e+00 -1.8325098e-07 0.0000000e+00 
0.0000000e+00 5.6171109e-07 0.0000000e+00 
0.0000000e+00 3.3940805e-07 0.0000000e+00 
0.0000000e+00 -1.2214677e-07 0.0000000e+00 
0.0000000e+00 1.2306979e-09 0.0000000e+00 
0.0000000e+00 5.8151227e-07 0.0000000e+00 
0.0000000e+00 7.9409358e-07 0.0000000e+00 
0.0000000e+00 2.2114062e-07 0.0000000e+00 
0.0000000e+00 -6.0181236e-07 0.0000000e+00 
0.0000000e+00 -8.1595397e-07 0.0000000e+00 
0.0000000e+00 -2.3932947e-07 0.0000000e+00 
0.0000000e+00 4.4704169e-07 0.0000000e+00 
0.0000000e+00 5.0579683e-07 0.0000000e+00 
0.0000000e+00 -1.8601005e-08 0.0000000e+00 
0.0000000e+00 -3.7078462e-07 0.0000000e+00 
0.0000000e+00 -1.0666107e-06 0.0000000e+00 
0.0000000e+00 -4.3646884e-07 0.0000000e+00 
0.0000000e+00 6.9137803e-07 0.0000000e+00 
0.0000000e+00 1.0186436e-06 0.0000000e+00 
0.0000000e+00 -8.7431886e-08 0.0000000e+00 
0.0000000e+00 -2.0039477e-06 0.0000000e+00 
0.0000000e+00 -3.2749190e-06 0.0000000e+00 
0.0000000e+00 -2.7398467e-06 0.0000000e+00 
0.0000000e+00 -4.6381882e-07 0.0000000e+00 
0.0000000e+00 2.2864645e-06 0.0000000e+00 
0.0000000e+00 4.0036516e-06 0.0000000e+00 
0.0000000e+00 4.0525856e-06 0.0000000e+00 
0.0000000e+00 3.0239778e-06 0.0000000e+00 
0.0000000e+00 2.0566038e-06 0.0000000e+00 
0.0000000e+00 1.7345839e-06 0.0000000e+00 
0.0000000e+00 1.5310299e-06 0.0000000e+00 
0.0000000e+00 2.9627512e-07 0.0000000e+00 
0.0000000e+00 -2.6108380e-06 0.0000000e+00 
0.0000000e+00 -6.5006843e-06 0.0000000e+00 
0.0000000e+00 -9.5466130e-06 0.0000000e+00 
0.0000000e+00 -9.8953597e-06 0.0000000e+00 
0.0000000e+00 -6.8839581e-06 0.0000000e+00 
0.0000000e+00 -1.4760336e-06 0.0000000e+00 
0.0000000e+00 4.3689492e-06 0.0000000e+00 
0.0000000e+00 8.8692732e-06 0.0000000e+00 
0.0000000e+00 1.1240088e-05 0.0000000e+00 
0.0000000e+00 1.1631911e-05 0.0000000e+00 
0.0000000e+00 1.0439657e-05 0.0000000e+00 
0.0000000e+00 7.7223804e-06 0.0000000e+00 
0.0000000e+00 3.2831647e-06 0.0000000e+00 
0.0000000e+00 -2.6782498e-06 0.0000000e+00 
0.0000000e+00 -8.9628820e-06 0.0000000e+00 
0.0000000e+00 -1.3488162e-05 0.0000000e+00 
0.0000000e+00 -1.4293808e-05 0.0000000e+00 
0.0000000e+00 -1.0857914e-05 0.0000000e+00 
0.0000000e+00 -4.7109734e-06 0.0000000e+00 
0.0000000e+00 1.2783909e-06 0.0000000e+00 
0.0000000e+00 4.5526513e-06 0.0000000e+00 
0.0000000e+00 4.2961788e-06 0.0000000e+00 
0.0000000e+00 1.6971760e-06 0.0000000e+00 
0.0000000e+00 -9.9928116e-07 0.0000000e+00 
0.0000000e+00 -1.9012083e-06 0.0000000e+00 
0.0000000e+00 -4.3036795e-07 0.0000000e+00 
0.0000000e+00 2.6814346e-06 0.0000000e+00 
0.0000000e+00 6.1733695e-06 0.0000000e+00 
0.0000000e+00 9.0406738e-06 0.0000000e+00 
0.0000000e+00 1.0649097e-05 0.0000000e+00 
0.0000000e+00 1.0335801e-05 0.0000000e+00 
0.0000000e+00 7.3113165e-06 0.0000000e+00 
0.0000000e+00 1.3137496e-06 0.0000000e+00 
0.0000000e+00 -6.4331375e-06 0.0000000e+00 
0.0000000e+00 -1.3074854e-05 0.0000000e+00 
0.0000000e+00 -1.5977175e-05 0.0000000e+00 
0.0000000e+00 -1.4225079e-05 0.0000000e+00 
0.0000000e+00 -8.9816895e-06 0.0000000e+00 
0.0000000e+00 -2.8977038e-06 0.0000000e+00 
0.0000000e+00 1.2960415e-06 0.0000000e+00 
0.0000000e+00 2.9997727e-06 0.0000000e+00 
0.0000000e+00 3.9654592e-06 0.0000000e+00 
0.0000000e+00 6.1487058e-06 0.0000000e+00 
0.0000000e+00 9.9451436e-06 0.0000000e+00 
0.0000000e+00 1.2941598e-05 0.0000000e+00 
0.0000000e+00 1.1289792e-05 0.0000000e+00 
0.0000000e+00 4.5369907e-06 0.0000000e+00 
0.0000000e+00 -2.9237103e-06 0.0000000e+00 
0.0000000e+00 -5.6307872e-06 0.0000000e+00 
0.0000000e+00 -2.5327656e-06 0.0000000e+00 
0.0000000e+00 -1.1481253e-06 0.0000000e+00 
0.0000000e+00 -1.0023702e-05 0.0000000e+00 
0.0000000e+00 -2.5865997e-05 0.0000000e+00 
0.0000000e+00 -3.3893364e-05 0.0000000e+00 
0.0000000e+00 -2.4959896e-05 0.0000000e+00 
0.0000000e+00 -5.2633882e-06 0.0000000e+00 
0.0000000e+00 7.9170559e-06 0.0000000e+00 
0.0000000e+00 7.1026489e-07 0.0000000e+00 
0.0000000e+00 -1.6925484e-05 0.0000000e+00 
0.0000000e+00 -1.4006334e-05 0.0000000e+00 
0.0000000e+00 3.0862593e-05 0.0000000e+00 
0.0000000e+00 1.0183988e-04 0.0000000e+00 
0.0000000e+00 1.3520000e-04 0.0000000e+00 
0.0000000e+00 5.8156722e-05 0.0000000e+00 
0.0000000e+00 -1.5399647e-04 0.0000000e+00 
0.0000000e+00 -4.9443042e-04 0.0000000e+00 
0.0000000e+00 -9.9804078e-04 0.0000000e+00 
0.0000000e+00 -1.7616666e-03 0.0000000e+00 
0.0000000e+00 -2.8541069e-03 0.0000000e+00 
0.0000000e+00 -4.1480437e-03 0.0000000e+00 
0.0000000e+00 -5.0506112e-03 0.0000000e+00 
0.0000000e+00 -4.8057628e-03 0.0000000e+00 
0.0000000e+00 -4.2089210e-03 0.0000000e+00 
0.0000000e+00 -3.9752144e-03 0.0000000e+00 
0.0000000e+00 -4.2243302e-03 0.0000000e+00 
0.0000000e+00 -4.3317424e-03 0.0000000e+00 
0.0000000e+00 -3.4483681e-03 0.0000000e+00 
0.0000000e+00 -2.1416177e-03 0.0000000e+00 
0.0000000e+00 -1.0108687e-03 0.0000000e+00 
0.0000000e+00 -2.7355159e-04 0.0000000e+00 
0.0000000e+00 8.3318162e-05 0.0000000e+00 
0.0000000e+00 1.8900502e-04 0.0000000e+00 
0.0000000e+00 1.8124134e-04 0.0000000e+00 
0.0000000e+00 1.3840101e-04 0.0000000e+00 
0.0000000e+00 8.8092136e-05 0.0000000e+00 
0.0000000e+00 4.0935909e-05 0.0000000e+00 
0.0000000e+00 7.6768856e-06 0.0000000e+00 
0.0000000e+00 -7.8352214e-06 0.0000000e+00 
0.0000000e+00 -1.0541216e-05 0.0000000e+00 
0.0000000e+00 -7.5161720e-06 0.0000000e+00 
0.0000000e+00 -3.4720645e-06 0.0000000e+00 
0.0000000e+00 -1.1819367e-06 0.0000000e+00 
0.0000000e+00 -5.2439750e-06 0.0000000e+00 
0.0000000e+00 -1.9092015e-05 0.0000000e+00 
0.0000000e+00 -3.4769353e-05 0.0000000e+00 
0.0000000e+00 -3.4371642e-05 0.0000000e+00 
0.0000000e+00 -1.2792130e-05 0.0000000e+00 
0.0000000e+00 1.3358610e-05 0.0000000e+00 
0.0000000e+00 2.2406832e-05 0.0000000e+00 
0.0000000e+00 8.4516014e-06 0.0000000e+00 
0.0000000e+00 -3.7179150e-06 0.0000000e+00 
0.0000000e+00 2.2334143e-05 0.0000000e+00 
0.0000000e+00 6.8929687e-05 0.0000000e+00 
0.0000000e+00 4.5822377e-05 0.0000000e+00 
0.0000000e+00 -1.4700012e-04 0.0000000e+00 
0.0000000e+00 -5.6546036e-04 0.0000000e+00 
0.0000000e+00 -1.2086139e-03 0.0000000e+00 
0.0000000e+00 -2.0542962e-03 0.0000000e+00 
0.0000000e+00 -3.1009116e-03 0.0000000e+00 
0.0000000e+00 -4.2174570e-03 0.0000000e+00 
0.0000000e+00 -4.9181613e-03 0.0000000e+00 
0.0000000e+00 -4.6533588e-03 0.0000000e+00 
0.0000000e+00 -4.1787089e-03 0.0000000e+00 
0.0000000e+00 -4.0578586e-03 0.0000000e+00 
0.0000000e+00 -4.2794333e-03 0.0000000e+00 
0.0000000e+00 -4.2079533e-03 0.0000000e+00 
0.0000000e+00 -3.1878322e-03 0.0000000e+00 
0.0000000e+00 -1.8698198e-03 0.0000000e+00 
0.0000000e+00 -8.2815590e-04 0.0000000e+00 
0.0000000e+00 -1.9933170e-04 0.0000000e+00 
0.0000000e+00 9.7738703e-05 0.0000000e+00 
0.0000000e+00 1.9306729e-04 0.0000000e+00 
0.0000000e+00 1.8340023e-04 0.0000000e+00 
0.0000000e+00 1.2502100e-04 0.0000000e+00 
0.0000000e+00 5.9001646e-05 0.0000000e+00 
0.0000000e+00 1.4961554e-05 0.0000000e+00 
0.0000000e+00 1.5566791e-06 0.0000000e+00 
0.0000000e+00 4.5885777e-06 0.0000000e+00 
0.0000000e+00 6.0890543e-06 0.0000000e+00 
0.0000000e+00 1.8923704e-06 0.0000000e+00 
0.0000000e+00 -1.1573268e-06 0.0000000e+00 
0.0000000e+00 1.6698012e-06 0.0000000e+00 
0.0000000e+00 6.6022517e-06 0.0000000e+00 
0.0000000e+00 7.2312373e-06 0.0000000e+00 
0.0000000e+00 3.1337877e-06 0.0000000e+00 
0.0000000e+00 -5.4423214e-07 0.0000000e+00 
0.0000000e+00 -3.2550386e-07 0.0000000e+00 
0.0000000e+00 1.9364063e-06 0.0000000e+00 
0.0000000e+00 2.2211232e-06 0.0000000e+00 
0.0000000e+00 -4.6795785e-07 0.0000000e+00 
0.0000000e+00 -3.2843755e-06 0.0000000e+00 
0.0000000e+00 -3.4241543e-06 0.0000000e+00 
0.0000000e+00 -1.4142570e-06 0.0000000e+00 
0.0000000e+00 2.8615846e-08 0.0000000e+00 
0.0000000e+00 -4.2589946e-07 0.0000000e+00 
0.0000000e+00 -1.3530320e-06 0.0000000e+00 
0.0000000e+00 -7.9225100e-07 0.0000000e+00 
0.0000000e+00 1.0895689e-06 0.0000000e+00 
0.0000000e+00 2.2543202e-06 0.0000000e+00 
0.0000000e+00 1.4343470e-06 0.0000000e+00 
0.0000000e+00 -2.8713765e-07 0.0000000e+00 
0.0000000e+00 -8.6757706e-07 0.0000000e+00 
0.0000000e+00 1.9903725e-07 0.0000000e+00 
0.0000000e+00 1.3830452e-06 0.0000000e+00 
0.0000000e+00 1.0805998e-06 0.0000000e+00 
0.0000000e+00 -4.9128454e-07 0.0000000e+00 
0.0000000e+00 -1.6849759e-06 0.0000000e+00 
0.0000000e+00 -1.4042535e-06 0.0000000e+00 
0.0000000e+00 -2.1764953e-07 0.0000000e+00 
0.0000000e+00 5.3869144e-07 0.0000000e+00 
0.0000000e+00 3.5152314e-07 0.0000000e+00 
0.0000000e+00 -9.5795073e-08 0.0000000e+00 
0.0000000e+00 8.5446414e-09 0.0000000e+00 
0.0000000e+00 5.6443957e-07 0.0000000e+00 
0.0000000e+00 7.7615874e-07 0.0000000e+00 
0.0000000e+00 2.2297210e-07 0.0000000e+00 
0.0000000e+00 -5.8484687e-07 0.0000000e+00 
0.0000000e+00 -8.0401639e-07 0.0000000e+00 
0.0000000e+00 -2.4391701e-07 0.0000000e+00 
0.0000000e+00 4.3292079e-07 0.0000000e+00 
0.0000000e+00 4.9691272e-07 0.0000000e+00 
0.0000000e+00 -1.5065355e-08 0.0000000e+00 
0.0000000e+00 -3.6080004e-07 0.0000000e+00 
0.0000000e+00 0.0000000e+00 0.0000000e+00 
0.0000000e+00 0.0000000e+00 0.0000000e+00 
0.0000000e+00 0.0000000e+00 0.0000000e+00 
0.0000000e+00 0.0000000e+00 0.0000000e+00 
0.0000000e+00 0.0000000e+00 0.0000000e+00 
0.0000000e+00 0.0000000e+00 0.0000000e+00 
0.0000000e+00 0.0000000e+00 0.0000000e+00 
0.0000000e+00 0.0000000e+00 0.0000000e+00 
0.0000000e+00 0.0000000e+00 0.0000000e+00 
0.0000000e+00 0.0000000e+00 0.0000000e+00 
0.0000000e+00 0.0000000e+00 0.0000000e+00 
0.0000000e+00 0.0000000e+00 0.0000000e+00 
0.0000000e+00 0.0000000e+00 0.0000000e+00 
0.0000000e+00 0.0000000e+00 0.0000000e+00 
0.0000000e+00 0.0000000e+00 0.0000000e+00 
0.0000000e+00 0.0000000e+00 0.0000000e+00 
0.0000000e+00 0.0000000e+00 0.0000000e+00 
0.0000000e+00 0.0000000e+00 0.0000000e+00 
0.0000000e+00 0.0000000e+00 0.0000000e+00 
0.0000000e+00 0.0000000e+00 0.0000000e+00 
0.0000000e+00 0.0000000e+00 0.0000000e+00 
0.0000000e+00 0.0000000e+00 0.0000000e+00 
0.0000000e+00 0.0000000e+00 0.0000000e+00 
0.0000000e+00 0.0000000e+00 0.0000000e+00 
0.0000000e+00 0.0000000e+00 0.0000000e+00 
0.0000000e+00 0.0000000e+00 0.0000000e+00 
0.0000000e+00 0.0000000e+00 0.0000000e+00 
0.0000000e+00 0.0000000e+00 0.0000000e+00 
0.0000000e+00 0.0000000e+00 0.0000000e+00 
0.0000000e+00 0.0000000e+00 0.0000000e+00 
0.0000000e+00 0.0000000e+00 0.0000000e+00 
0.0000000e+00 0.0000000e+00 0.0000000e+00 
0.0000000e+00 0.0000000e+00 0.0000000e+00 
0.0000000e+00 0.0000000e+00 0.0000000e+00 
0.0000000e+00 0.0000000e+00 0.0000000e+00 
0.0000000e+00 0.0000000e+00 0.0000000e+00 
0.0000000e+00 0.0000000e+00 0.0000000e+00 
0.0000000e+00 0.0000000e+00 0.0000000e+00 
0.0000000e+00 0.0000000e+00 0.0000000e+00 
0.0000000e+00 0.0000000e+00 0.0000000e+00 
0.0000000e+00 0.0000000e+00 0.0000000e+00 
0.0000000e+00 0.0000000e+00 0.0000000e+00 
0.0000000e+00 0.0000000e+00 0.0000000e+00 
0.0000000e+00 0.0000000e+00 0.0000000e+00 
0.0000000e+00 0.0000000e+00 0.0000000e+00 
0.0000000e+00 0.0000000e+00 0.0000000e+00 
0.0000000e+00 0.0000000e+00 0.0000000e+00 
0.0000000e+00 0.0000000e+00 0.0000000e+00 
0.0000000e+00 0.0000000e+00 0.0000000e+00 
0.0000000e+00 0.0000000e+00 0.0000000e+00 
0.0000000e+00 0.0000000e+00 0.0000000e+00 
0.0000000e+00 0.0000000e+00 0.0000000e+00 
0.0000000e+00 0.0000000e+00 0.0000000e+00 
0.0000000e+00 0.0000000e+00 0.0000000e+00 
0.0000000e+00 0.0000000e+00 0.0000000e+00 
0.0000000e+00 0.0000000e+00 0.0000000e+00 
0.0000000e+00 0.0000000e+00 0.0000000e+00 