# vtk DataFile Version 4.0
vtk output
ASCII
DATASET UNSTRUCTURED_GRID
POINTS 2186 float
0.0000000e+00 0.0000000e+00 0.0000000e+00 
0.0000000e+00 0.0000000e+00 5.0000000e+01 
5.0000000e+00 0.0000000e+00 0.0000000e+00 
5.0000000e+00 0.0000000e+00 5.0000000e+01 
5.0000000e+00 1.0000000e+00 0.0000000e+00 
5.0000000e+00 1.0000000e+00 5.0000000e+01 
0.0000000e+00 1.0000000e+00 0.0000000e+00 
0.0000000e+00 1.0000000e+00 5.0000000e+01 
5.0000000e+00 2.0000000e+00 0.0000000e+00 
5.0000000e+00 2.0000000e+00 5.0000000e+01 
3.0000000e+00 2.0000000e+00 0.0000000e+00 
3.0000000e+00 2.0000000e+00 5.0000000e+01 
0.0000000e+00 2.0000000e+00 0.0000000e+00 
0.0000000e+00 2.0000000e+00 5.0000000e+01 
1.5000000e+00 3.0000000e+00 0.0000000e+00 
1.5000000e+00 3.0000000e+00 5.0000000e+01 
7.5000000e-01 3.0000000e+00 0.0000000e+00 
7.5000000e-01 3.0000000e+00 5.0000000e+01 
0.0000000e+00 3.0000000e+00 0.0000000e+00 
0.0000000e+00 3.0000000e+00 5.0000000e+01 
7.5000000e-01 3.0000000e+00 -2.5000000e+01 
7.5000000e-01 3.0000000e+00 -2.4500000e+01 
7.5000000e-01 3.0000000e+00 -2.4000000e+01 
7.5000000e-01 3.0000000e+00 -2.3500000e+01 
7.5000000e-01 3.0000000e+00 -2.3000000e+01 
7.5000000e-01 3.0000000e+00 -2.2500000e+01 
7.5000000e-01 3.0000000e+00 -2.2000000e+01 
7.5000000e-01 3.0000000e+00 -2.1500000e+01 
7.5000000e-01 3.0000000e+00 -2.1000000e+01 
7.5000000e-01 3.0000000e+00 -2.0500000e+01 
7.5000000e-01 3.0000000e+00 -2.0000000e+01 
7.5000000e-01 3.0000000e+00 -1.9500000e+01 
7.5000000e-01 3.0000000e+00 -1.9000000e+01 
7.5000000e-01 3.0000000e+00 -1.8500000e+01 
7.5000000e-01 3.0000000e+00 -1.8000000e+01 
7.5000000e-01 3.0000000e+00 -1.7500000e+01 
7.5000000e-01 3.0000000e+00 -1.7000000e+01 
7.5000000e-01 3.0000000e+00 -1.6500000e+01 
7.5000000e-01 3.0000000e+00 -1.6000000e+01 
7.5000000e-01 3.0000000e+00 -1.5500000e+01 
7.5000000e-01 3.0000000e+00 -1.5000000e+01 
7.5000000e-01 3.0000000e+00 -1.4500000e+01 
7.5000000e-01 3.0000000e+00 -1.4000000e+01 
7.5000000e-01 3.0000000e+00 -1.3500000e+01 
7.5000000e-01 3.0000000e+00 -1.3000000e+01 
7.5000000e-01 3.0000000e+00 -1.2500000e+01 
7.5000000e-01 3.0000000e+00 -1.2000000e+01 
7.5000000e-01 3.0000000e+00 -1.1500000e+01 
7.5000000e-01 3.0000000e+00 -1.1000000e+01 
7.5000000e-01 3.0000000e+00 -1.0500000e+01 
7.5000000e-01 3.0000000e+00 -1.0000000e+01 
7.5000000e-01 3.0000000e+00 -9.5000000e+00 
7.5000000e-01 3.0000000e+00 -9.0000000e+00 
7.5000000e-01 3.0000000e+00 -8.5000000e+00 
7.5000000e-01 3.0000000e+00 -8.0000000e+00 
7.5000000e-01 3.0000000e+00 -7.5000000e+00 
7.5000000e-01 3.0000000e+00 -7.0000000e+00 
7.5000000e-01 3.0000000e+00 -6.5000000e+00 
7.5000000e-01 3.0000000e+00 -6.0000000e+00 
7.5000000e-01 3.0000000e+00 -5.5000000e+00 
7.5000000e-01 3.0000000e+00 -5.0000000e+00 
7.5000000e-01 3.0000000e+00 -4.5000000e+00 
7.5000000e-01 3.0000000e+00 -4.0000000e+00 
7.5000000e-01 3.0000000e+00 -3.5000000e+00 
7.5000000e-01 3.0000000e+00 -3.0000000e+00 
7.5000000e-01 3.0000000e+00 -2.5000000e+00 
7.5000000e-01 3.0000000e+00 -2.0000000e+00 
7.5000000e-01 3.0000000e+00 -1.5000000e+00 
7.5000000e-01 3.0000000e+00 -1.0000000e+00 
7.5000000e-01 3.0000000e+00 -5.0000000e-01 
7.5000000e-01 3.0000000e+00 5.0000000e-01 
7.5000000e-01 3.0000000e+00 1.0000000e+00 
7.5000000e-01 3.0000000e+00 1.5000000e+00 
7.5000000e-01 3.0000000e+00 2.0000000e+00 
7.5000000e-01 3.0000000e+00 2.5000000e+00 
7.5000000e-01 3.0000000e+00 3.0000000e+00 
7.5000000e-01 3.0000000e+00 3.5000000e+00 
7.5000000e-01 3.0000000e+00 4.0000000e+00 
7.5000000e-01 3.0000000e+00 4.5000000e+00 
7.5000000e-01 3.0000000e+00 5.0000000e+00 
7.5000000e-01 3.0000000e+00 5.5000000e+00 
7.5000000e-01 3.0000000e+00 6.0000000e+00 
7.5000000e-01 3.0000000e+00 6.5000000e+00 
7.5000000e-01 3.0000000e+00 7.0000000e+00 
7.5000000e-01 3.0000000e+00 7.5000000e+00 
7.5000000e-01 3.0000000e+00 8.0000000e+00 
7.5000000e-01 3.0000000e+00 8.5000000e+00 
7.5000000e-01 3.0000000e+00 9.0000000e+00 
7.5000000e-01 3.0000000e+00 9.5000000e+00 
7.5000000e-01 3.0000000e+00 1.0000000e+01 
7.5000000e-01 3.0000000e+00 1.0500000e+01 
7.5000000e-01 3.0000000e+00 1.1000000e+01 
7.5000000e-01 3.0000000e+00 1.1500000e+01 
7.5000000e-01 3.0000000e+00 1.2000000e+01 
7.5000000e-01 3.0000000e+00 1.2500000e+01 
7.5000000e-01 3.0000000e+00 1.3000000e+01 
7.5000000e-01 3.0000000e+00 1.3500000e+01 
7.5000000e-01 3.0000000e+00 1.4000000e+01 
7.5000000e-01 3.0000000e+00 1.4500000e+01 
7.5000000e-01 3.0000000e+00 1.5000000e+01 
7.5000000e-01 3.0000000e+00 1.5500000e+01 
7.5000000e-01 3.0000000e+00 1.6000000e+01 
7.5000000e-01 3.0000000e+00 1.6500000e+01 
7.5000000e-01 3.0000000e+00 1.7000000e+01 
7.5000000e-01 3.0000000e+00 1.7500000e+01 
7.5000000e-01 3.0000000e+00 1.8000000e+01 
7.5000000e-01 3.0000000e+00 1.8500000e+01 
7.5000000e-01 3.0000000e+00 1.9000000e+01 
7.5000000e-01 3.0000000e+00 1.9500000e+01 
7.5000000e-01 3.0000000e+00 2.0000000e+01 
7.5000000e-01 3.0000000e+00 2.0500000e+01 
7.5000000e-01 3.0000000e+00 2.1000000e+01 
7.5000000e-01 3.0000000e+00 2.1500000e+01 
7.5000000e-01 3.0000000e+00 2.2000000e+01 
7.5000000e-01 3.0000000e+00 2.2500000e+01 
7.5000000e-01 3.0000000e+00 2.3000000e+01 
7.5000000e-01 3.0000000e+00 2.3500000e+01 
7.5000000e-01 3.0000000e+00 2.4000000e+01 
7.5000000e-01 3.0000000e+00 2.4500000e+01 
7.5000000e-01 3.0000000e+00 2.5000000e+01 
7.5000000e-01 3.0000000e+00 2.5500000e+01 
7.5000000e-01 3.0000000e+00 2.6000000e+01 
7.5000000e-01 3.0000000e+00 2.6500000e+01 
7.5000000e-01 3.0000000e+00 2.7000000e+01 
7.5000000e-01 3.0000000e+00 2.7500000e+01 
7.5000000e-01 3.0000000e+00 2.8000000e+01 
7.5000000e-01 3.0000000e+00 2.8500000e+01 
7.5000000e-01 3.0000000e+00 2.9000000e+01 
7.5000000e-01 3.0000000e+00 2.9500000e+01 
7.5000000e-01 3.0000000e+00 3.0000000e+01 
7.5000000e-01 3.0000000e+00 3.0500000e+01 
7.5000000e-01 3.0000000e+00 3.1000000e+01 
7.5000000e-01 3.0000000e+00 3.1500000e+01 
7.5000000e-01 3.0000000e+00 3.2000000e+01 
7.5000000e-01 3.0000000e+00 3.2500000e+01 
7.5000000e-01 3.0000000e+00 3.3000000e+01 
7.5000000e-01 3.0000000e+00 3.3500000e+01 
7.5000000e-01 3.0000000e+00 3.4000000e+01 
7.5000000e-01 3.0000000e+00 3.4500000e+01 
7.5000000e-01 3.0000000e+00 3.5000000e+01 
7.5000000e-01 3.0000000e+00 3.5500000e+01 
7.5000000e-01 3.0000000e+00 3.6000000e+01 
7.5000000e-01 3.0000000e+00 3.6500000e+01 
7.5000000e-01 3.0000000e+00 3.7000000e+01 
7.5000000e-01 3.0000000e+00 3.7500000e+01 
7.5000000e-01 3.0000000e+00 3.8000000e+01 
7.5000000e-01 3.0000000e+00 3.8500000e+01 
7.5000000e-01 3.0000000e+00 3.9000000e+01 
7.5000000e-01 3.0000000e+00 3.9500000e+01 
7.5000000e-01 3.0000000e+00 4.0000000e+01 
7.5000000e-01 3.0000000e+00 4.0500000e+01 
7.5000000e-01 3.0000000e+00 4.1000000e+01 
7.5000000e-01 3.0000000e+00 4.1500000e+01 
7.5000000e-01 3.0000000e+00 4.2000000e+01 
7.5000000e-01 3.0000000e+00 4.2500000e+01 
7.5000000e-01 3.0000000e+00 4.3000000e+01 
7.5000000e-01 3.0000000e+00 4.3500000e+01 
7.5000000e-01 3.0000000e+00 4.4000000e+01 
7.5000000e-01 3.0000000e+00 4.4500000e+01 
7.5000000e-01 3.0000000e+00 4.5000000e+01 
7.5000000e-01 3.0000000e+00 4.5500000e+01 
7.5000000e-01 3.0000000e+00 4.6000000e+01 
7.5000000e-01 3.0000000e+00 4.6500000e+01 
7.5000000e-01 3.0000000e+00 4.7000000e+01 
7.5000000e-01 3.0000000e+00 4.7500000e+01 
7.5000000e-01 3.0000000e+00 4.8000000e+01 
7.5000000e-01 3.0000000e+00 4.8500000e+01 
7.5000000e-01 3.0000000e+00 4.9000000e+01 
7.5000000e-01 3.0000000e+00 4.9500000e+01 
7.5000000e-01 3.0000000e+00 5.0500000e+01 
7.5000000e-01 3.0000000e+00 5.1000000e+01 
7.5000000e-01 3.0000000e+00 5.1500000e+01 
7.5000000e-01 3.0000000e+00 5.2000000e+01 
7.5000000e-01 3.0000000e+00 5.2500000e+01 
7.5000000e-01 3.0000000e+00 5.3000000e+01 
7.5000000e-01 3.0000000e+00 5.3500000e+01 
7.5000000e-01 3.0000000e+00 5.4000000e+01 
7.5000000e-01 3.0000000e+00 5.4500000e+01 
7.5000000e-01 3.0000000e+00 5.5000000e+01 
7.5000000e-01 3.0000000e+00 5.5500000e+01 
7.5000000e-01 3.0000000e+00 5.6000000e+01 
7.5000000e-01 3.0000000e+00 5.6500000e+01 
7.5000000e-01 3.0000000e+00 5.7000000e+01 
7.5000000e-01 3.0000000e+00 5.7500000e+01 
7.5000000e-01 3.0000000e+00 5.8000000e+01 
7.5000000e-01 3.0000000e+00 5.8500000e+01 
7.5000000e-01 3.0000000e+00 5.9000000e+01 
7.5000000e-01 3.0000000e+00 5.9500000e+01 
7.5000000e-01 3.0000000e+00 6.0000000e+01 
7.5000000e-01 3.0000000e+00 6.0500000e+01 
7.5000000e-01 3.0000000e+00 6.1000000e+01 
7.5000000e-01 3.0000000e+00 6.1500000e+01 
7.5000000e-01 3.0000000e+00 6.2000000e+01 
7.5000000e-01 3.0000000e+00 6.2500000e+01 
7.5000000e-01 3.0000000e+00 6.3000000e+01 
7.5000000e-01 3.0000000e+00 6.3500000e+01 
7.5000000e-01 3.0000000e+00 6.4000000e+01 
7.5000000e-01 3.0000000e+00 6.4500000e+01 
7.5000000e-01 3.0000000e+00 6.5000000e+01 
7.5000000e-01 3.0000000e+00 6.5500000e+01 
7.5000000e-01 3.0000000e+00 6.6000000e+01 
7.5000000e-01 3.0000000e+00 6.6500000e+01 
7.5000000e-01 3.0000000e+00 6.7000000e+01 
7.5000000e-01 3.0000000e+00 6.7500000e+01 
7.5000000e-01 3.0000000e+00 6.8000000e+01 
7.5000000e-01 3.0000000e+00 6.8500000e+01 
7.5000000e-01 3.0000000e+00 6.9000000e+01 
7.5000000e-01 3.0000000e+00 6.9500000e+01 
7.5000000e-01 3.0250001e+00 -2.5000000e+01 
7.5000000e-01 3.0250001e+00 -2.4500000e+01 
7.5000000e-01 3.0250001e+00 -2.4000000e+01 
7.5000000e-01 3.0250001e+00 -2.3500000e+01 
7.5000000e-01 3.0250001e+00 -2.3000000e+01 
7.5000000e-01 3.0250001e+00 -2.2500000e+01 
7.5000000e-01 3.0250001e+00 -2.2000000e+01 
7.5000000e-01 3.0250001e+00 -2.1500000e+01 
7.5000000e-01 3.0250001e+00 -2.1000000e+01 
7.5000000e-01 3.0250001e+00 -2.0500000e+01 
7.5000000e-01 3.0250001e+00 -2.0000000e+01 
7.5000000e-01 3.0250001e+00 -1.9500000e+01 
7.5000000e-01 3.0250001e+00 -1.9000000e+01 
7.5000000e-01 3.0250001e+00 -1.8500000e+01 
7.5000000e-01 3.0250001e+00 -1.8000000e+01 
7.5000000e-01 3.0250001e+00 -1.7500000e+01 
7.5000000e-01 3.0250001e+00 -1.7000000e+01 
7.5000000e-01 3.0250001e+00 -1.6500000e+01 
7.5000000e-01 3.0250001e+00 -1.6000000e+01 
7.5000000e-01 3.0250001e+00 -1.5500000e+01 
[...]
POINT_DATA 2186
FIELD FieldData 3
DISPLACEMENT 3 2186  float
0.0000000e+00 0.0000000e+00 0.0000000e+00 
0.0000000e+00 0.0000000e+00 0.0000000e+00 
0.0000000e+00 0.0000000e+00 0.0000000e+00 
0.0000000e+00 0.0000000e+00 0.0000000e+00 
1.2189147e-06 -1.3157930e-06 -8.6970562e-07 
1.1793602e-06 -1.1199458e-06 2.3595730e-06 
0.0000000e+00 -2.5752920e-06 0.0000000e+00 
0.0000000e+00 -1.1531571e-06 0.0000000e+00 
1.8692090e-06 -6.4784479e-07 -7.8305703e-07 
8.3560928e-07 -8.1359406e-07 2.7721353e-06 
-2.4813460e-06 7.1814128e-07 2.0874944e-07 
-1.6476059e-07 -2.8688617e-06 5.9184736e-06 
0.0000000e+00 -3.6385225e-06 0.0000000e+00 
0.0000000e+00 -1.7288363e-07 0.0000000e+00 
-4.5183147e-06 9.4585403e-06 -7.6153458e-07 
-1.3449016e-06 3.3705371e-07 7.8774956e-06 
2.7998517e-06 7.7785862e-06 -1.7810777e-06 
-6.3178563e-06 -6.1866876e-07 6.2996569e-06 
0.0000000e+00 1.2518102e-06 0.0000000e+00 
0.0000000e+00 3.8511712e-06 0.0000000e+00 
0.0000000e+00 7.5527996e-06 0.0000000e+00 
0.0000000e+00 6.2842546e-06 0.0000000e+00 
0.0000000e+00 3.1129832e-06 0.0000000e+00 
0.0000000e+00 -6.5713226e-07 0.0000000e+00 
0.0000000e+00 -3.8411717e-06 0.0000000e+00 
0.0000000e+00 -5.8756073e-06 0.0000000e+00 
0.0000000e+00 -6.7801839e-06 0.0000000e+00 
0.0000000e+00 -6.7116703e-06 0.0000000e+00 
0.0000000e+00 -5.5744586e-06 0.0000000e+00 
0.0000000e+00 -3.0729191e-06 0.0000000e+00 
0.0000000e+00 8.2153457e-07 0.0000000e+00 
0.0000000e+00 5.4086227e-06 0.0000000e+00 
0.0000000e+00 9.2710698e-06 0.0000000e+00 
0.0000000e+00 1.0882812e-05 0.0000000e+00 
0.0000000e+00 9.4538964e-06 0.0000000e+00 
0.0000000e+00 5.4158731e-06 0.0000000e+00 
0.0000000e+00 1.7832056e-07 0.0000000e+00 
0.0000000e+00 -4.6729942e-06 0.0000000e+00 
0.0000000e+00 -8.1471608e-06 0.0000000e+00 
0.0000000e+00 -1.0055190e-05 0.0000000e+00 
0.0000000e+00 -1.0601083e-05 0.0000000e+00 
0.0000000e+00 -9.8049777e-06 0.0000000e+00 
0.0000000e+00 -7.3205692e-06 0.0000000e+00 
0.0000000e+00 -2.8520358e-06 0.0000000e+00 
0.0000000e+00 3.1715847e-06 0.0000000e+00 
0.0000000e+00 9.2989067e-06 0.0000000e+00 
0.0000000e+00 1.3527074e-05 0.0000000e+00 
0.0000000e+00 1.4313018e-05 0.0000000e+00 
0.0000000e+00 1.1429534e-05 0.0000000e+00 
0.0000000e+00 6.0755442e-06 0.0000000e+00 
0.0000000e+00 2.1192044e-07 0.0000000e+00 
0.0000000e+00 -4.3960649e-06 0.0000000e+00 
0.0000000e+00 -6.8545514e-06 0.0000000e+00 
0.0000000e+00 -7.2354192e-06 0.0000000e+00 
0.0000000e+00 -6.1851679e-06 0.0000000e+00 
0.0000000e+00 -4.4324534e-06 0.0000000e+00 
0.0000000e+00 -2.5723687e-06 0.0000000e+00 
0.0000000e+00 -1.1676956e-06 0.0000000e+00 
0.0000000e+00 -8.3743811e-07 0.0000000e+00 
0.0000000e+00 -2.0261318e-06 0.0000000e+00 
0.0000000e+00 -4.5634588e-06 0.0000000e+00 
0.0000000e+00 -7.4416289e-06 0.0000000e+00 
0.0000000e+00 -9.1130587e-06 0.0000000e+00 
0.0000000e+00 -8.2347296e-06 0.0000000e+00 
0.0000000e+00 -4.4864182e-06 0.0000000e+00 
0.0000000e+00 1.0479532e-06 0.0000000e+00 
0.0000000e+00 6.3389493e-06 0.0000000e+00 
0.0000000e+00 9.5811465e-06 0.0000000e+00 
0.0000000e+00 1.0257230e-05 0.0000000e+00 
0.0000000e+00 9.2213158e-06 0.0000000e+00 
-6.1138567e-06 6.4776614e-06 1.4337807e-06 
-7.2586913e-06 5.3494364e-06 -1.9324627e-06 
-5.5374617e-06 3.7315706e-06 -8.1313137e-06 
-2.0884470e-06 1.0979030e-06 -1.3164313e-05 
-8.7821763e-06 -2.2552326e-06 -1.0742679e-05 
-7.6925407e-06 -5.4358152e-06 -9.3917197e-06 
-6.0452917e-06 -8.3271470e-06 -5.6504587e-06 
-5.3820554e-06 -1.2053860e-05 -8.5294114e-06 
2.3742655e-07 -1.6714963e-05 -1.2317226e-05 
-1.8415997e-06 -2.0709938e-05 -1.1235168e-05 
-1.8158405e-06 -2.1303982e-05 -1.0552044e-05 
-3.6137099e-06 -1.6951713e-05 -2.0842049e-06 
-1.0951698e-06 -1.0220100e-05 5.4185916e-06 
-7.3548727e-06 -5.7459506e-06 8.2849019e-06 
-5.6809449e-06 -5.2704704e-06 5.7640091e-06 
-6.8198510e-06 -6.2843560e-06 1.0248932e-05 
-6.8350455e-06 -3.2421265e-06 1.4317198e-05 
-9.6442318e-06 7.2990852e-06 1.8725308e-05 
-9.7537632e-06 1.9140401e-05 1.9270077e-05 
-1.0497837e-05 1.9030749e-05 2.1374233e-05 
-1.1907433e-05 5.2793780e-06 1.8333416e-05 
-1.5800304e-05 -7.4148852e-06 9.2545497e-06 
-1.2821264e-05 -4.0976483e-06 1.3689935e-06 
-5.7649700e-06 1.6827544e-05 3.3029025e-06 
-5.1272168e-06 3.9009261e-05 7.6763217e-06 
-1.0547665e-06 4.4395594e-05 9.8011460e-06 
3.0948418e-06 3.3216220e-05 7.0873266e-06 
3.1954457e-06 2.0825079e-05 1.1970182e-05 
4.6351865e-06 3.6074009e-05 1.7408136e-05 
1.0376668e-05 8.8717767e-05 1.7204240e-05 
1.2927504e-05 1.2825801e-04 5.4548083e-05 
5.5484379e-06 6.3464409e-05 7.4501870e-05 
-9.5067344e-06 -1.6162789e-04 1.0722947e-04 
-4.8343991e-05 -5.4920971e-04 2.1205317e-04 
-7.4002484e-05 -1.1043478e-03 2.1895427e-04 
-1.0756688e-04 -1.8674355e-03 1.5533631e-04 
-1.5892355e-04 -2.9032466e-03 2.7217955e-04 
-2.2018576e-04 -4.0948321e-03 6.6923683e-05 
-2.8106497e-04 -4.9317176e-03 4.9650949e-05 
-2.8125598e-04 -4.6982872e-03 -5.4980330e-07 
-2.4470134e-04 -4.1825203e-03 -4.4848268e-05 
-2.3366793e-04 -4.0028151e-03 -9.5873846e-05 
-2.2759511e-04 -4.2507341e-03 -8.1847997e-05 
-2.3394669e-04 -4.2927973e-03 -1.5893592e-04 
-1.6832806e-04 -3.3525580e-03 -2.8018060e-04 
-1.2841402e-04 -2.0189204e-03 -1.6595992e-04 
-5.2447671e-05 -9.1169943e-04 -2.1671716e-04 
-2.7073513e-05 -2.1423283e-04 -1.0757618e-04 
-1.8172366e-06 1.1131664e-04 -9.0226698e-05 
-1.5378098e-06 1.9915031e-04 -5.2539861e-05 
9.7427801e-06 1.7870145e-04 -1.4626553e-05 
8.2808911e-06 1.1851072e-04 3.5320582e-07 
4.7083054e-06 5.3746498e-05 1.8224297e-05 
-1.7753200e-06 4.7781346e-06 1.9972391e-05 
-3.2305186e-06 -1.6680817e-05 2.1859569e-05 
-7.1287568e-06 -2.0391577e-05 1.8625640e-05 
-5.8935125e-06 -2.0877735e-05 1.4843994e-05 
-6.7488049e-06 -1.9297371e-05 1.3313257e-05 
-9.8014889e-06 -8.7348608e-06 1.1868029e-05 
-7.6755832e-06 1.0759150e-05 1.4072626e-05 
-2.7780929e-06 2.6285650e-05 1.5955176e-05 
-4.6246146e-06 2.1567852e-05 8.7880908e-06 
-8.5928750e-06 3.0062674e-06 4.2393137e-07 
-4.4154299e-06 -1.5708273e-06 3.2481150e-06 
-8.8090192e-06 2.0545720e-05 3.5800283e-06 
-1.1323854e-06 5.4357632e-05 6.6116922e-07 
1.0491268e-05 7.4167496e-05 7.0474871e-06 
1.7019152e-05 6.0499278e-05 1.2188105e-05 
8.9892455e-06 3.4412307e-05 1.9749215e-05 
1.2864071e-05 4.0864590e-05 3.7129732e-05 
1.5853127e-05 8.0165300e-05 7.3606068e-05 
1.6031065e-05 7.9557853e-05 8.2045881e-05 
-6.8349091e-06 -8.1245780e-05 1.3841495e-04 
-2.8807492e-05 -5.0739973e-04 1.4062642e-04 
-8.3824685e-05 -1.2124336e-03 2.4295782e-04 
-6.6593995e-05 -2.1225002e-03 1.8460538e-04 
-2.6327127e-04 -3.1871349e-03 2.9265130e-04 
-9.1146583e-05 -4.2225164e-03 1.2906901e-04 
-3.9336245e-04 -4.7997423e-03 7.8309204e-05 
-1.0042130e-04 -4.5229676e-03 3.0476631e-05 
-2.6299551e-04 -4.1602277e-03 -3.2038803e-05 
-2.5059833e-04 -4.1434178e-03 -1.2621403e-04 
-2.5648382e-04 -4.3650917e-03 -1.1264916e-04 
-2.3456238e-04 -4.1572750e-03 -1.7198436e-04 
-1.5459862e-04 -3.0541830e-03 -2.9957970e-04 
-1.0951609e-04 -1.7212315e-03 -1.6881137e-04 
-3.9118724e-05 -7.1422628e-04 -2.1258257e-04 
-1.6396683e-05 -1.2306575e-04 -1.0930917e-04 
1.1510458e-05 1.5098393e-04 -8.0821534e-05 
1.8294180e-05 2.3016724e-04 -3.6888927e-05 
1.6666805e-05 1.9925692e-04 -2.7116530e-06 
1.2552093e-05 1.1860621e-04 2.6820658e-06 
7.6898959e-06 4.0491046e-05 1.5151373e-05 
5.2868668e-06 -5.4198317e-06 1.3724554e-05 
2.7483072e-06 -1.7587712e-05 1.6868406e-05 
1.5923863e-06 -1.4859776e-05 1.3959467e-05 
1.9791955e-06 -1.2634740e-05 1.1444602e-05 
1.2573754e-06 -1.2250749e-05 1.0369594e-05 
-6.3638589e-07 -8.1931785e-06 8.6675855e-06 
0.0000000e+00 4.4808012e-06 0.0000000e+00 
0.0000000e+00 3.7662498e-06 0.0000000e+00 
0.0000000e+00 5.9383041e-08 0.0000000e+00 
0.0000000e+00 -1.5463439e-06 0.0000000e+00 
0.0000000e+00 -9.1081674e-08 0.0000000e+00 
0.0000000e+00 8.9919882e-07 0.0000000e+00 
0.0000000e+00 -1.1751504e-06 0.0000000e+00 
0.0000000e+00 -4.3291493e-06 0.0000000e+00 
0.0000000e+00 -4.6132009e-06 0.0000000e+00 
0.0000000e+00 -1.2201765e-06 0.0000000e+00 
0.0000000e+00 2.4894327e-06 0.0000000e+00 
0.0000000e+00 3.0478373e-06 0.0000000e+00 
0.0000000e+00 7.7412409e-07 0.0000000e+00 
0.0000000e+00 -1.0726160e-06 0.0000000e+00 
0.0000000e+00 -3.9524019e-07 0.0000000e+00 
0.0000000e+00 1.5336451e-06 0.0000000e+00 
0.0000000e+00 2.0931557e-06 0.0000000e+00 
0.0000000e+00 6.3470588e-07 0.0000000e+00 
0.0000000e+00 -1.0164817e-06 0.0000000e+00 
0.0000000e+00 -1.1069312e-06 0.0000000e+00 
0.0000000e+00 -5.3479337e-08 0.0000000e+00 
0.0000000e+00 4.1496708e-07 0.0000000e+00 
0.0000000e+00 -3.8049760e-07 0.0000000e+00 
0.0000000e+00 -1.3367251e-06 0.0000000e+00 
0.0000000e+00 -1.1673380e-06 0.0000000e+00 
0.0000000e+00 -3.1582996e-08 0.0000000e+00 
0.0000000e+00 8.4075748e-07 0.0000000e+00 
0.0000000e+00 7.7949414e-07 0.0000000e+00 
0.0000000e+00 3.4033076e-07 0.0000000e+00 
0.0000000e+00 3.1748783e-07 0.0000000e+00 
0.0000000e+00 6.1908293e-07 0.0000000e+00 
0.0000000e+00 5.0548960e-07 0.0000000e+00 
0.0000000e+00 -2.7018626e-07 0.0000000e+00 
0.0000000e+00 -1.0374846e-06 0.0000000e+00 
0.0000000e+00 -1.0384844e-06 0.0000000e+00 
0.0000000e+00 -3.4823481e-07 0.0000000e+00 
0.0000000e+00 3.0953990e-07 0.0000000e+00 
0.0000000e+00 4.9756989e-07 0.0000000e+00 
0.0000000e+00 4.5780399e-07 0.0000000e+00 
0.0000000e+00 7.5302401e-06 0.0000000e+00 
0.0000000e+00 6.2732147e-06 0.0000000e+00 
0.0000000e+00 3.1247230e-06 0.0000000e+00 
0.0000000e+00 -6.3209160e-07 0.0000000e+00 
0.0000000e+00 -3.8240682e-06 0.0000000e+00 
0.0000000e+00 -5.8811825e-06 0.0000000e+00 
0.0000000e+00 -6.8041118e-06 0.0000000e+00 
0.0000000e+00 -6.7340966e-06 0.0000000e+00 
0.0000000e+00 -5.5764112e-06 0.0000000e+00 
0.0000000e+00 -3.0517851e-06 0.0000000e+00 
0.0000000e+00 8.4987067e-07 0.0000000e+00 
0.0000000e+00 5.4223269e-06 0.0000000e+00 
0.0000000e+00 9.2597184e-06 0.0000000e+00 
0.0000000e+00 1.0856072e-05 0.0000000e+00 
0.0000000e+00 9.4342040e-06 0.0000000e+00 
0.0000000e+00 5.4201510e-06 0.0000000e+00 
0.0000000e+00 2.0348058e-07 0.0000000e+00 
0.0000000e+00 -4.6480791e-06 0.0000000e+00 
0.0000000e+00 -8.1443268e-06 0.0000000e+00 
0.0000000e+00 -1.0078807e-05 0.0000000e+00 
0.0000000e+00 -1.0634133e-05 0.0000000e+00 
0.0000000e+00 -9.8224045e-06 0.0000000e+00 
0.0000000e+00 -7.3092747e-06 0.0000000e+00 
0.0000000e+00 -2.8218310e-06 0.0000000e+00 
0.0000000e+00 3.1954191e-06 0.0000000e+00 
0.0000000e+00 9.2964483e-06 0.0000000e+00 
0.0000000e+00 1.3500659e-05 0.0000000e+00 
0.0000000e+00 1.4284981e-05 0.0000000e+00 
0.0000000e+00 1.1423023e-05 0.0000000e+00 
0.0000000e+00 6.0964157e-06 0.0000000e+00 
0.0000000e+00 2.4664786e-07 0.0000000e+00 
0.0000000e+00 -4.3681453e-06 0.0000000e+00 
0.0000000e+00 -6.8467207e-06 0.0000000e+00 
0.0000000e+00 -7.2461667e-06 0.0000000e+00 
0.0000000e+00 -6.2011582e-06 0.0000000e+00 
0.0000000e+00 -4.4405174e-06 0.0000000e+00 
0.0000000e+00 -2.5720767e-06 0.0000000e+00 
0.0000000e+00 -1.1717295e-06 0.0000000e+00 
0.0000000e+00 -8.5728817e-07 0.0000000e+00 
0.0000000e+00 -2.0581372e-06 0.0000000e+00 
0.0000000e+00 -4.5906222e-06 0.0000000e+00 
0.0000000e+00 -7.4477907e-06 0.0000000e+00 
0.0000000e+00 -9.0946796e-06 0.0000000e+00 
0.0000000e+00 -8.2038423e-06 0.0000000e+00 
0.0000000e+00 -4.4660710e-06 0.0000000e+00 
0.0000000e+00 1.0375090e-06 0.0000000e+00 
0.0000000e+00 6.2998342e-06 0.0000000e+00 
0.0000000e+00 9.5434480e-06 0.0000000e+00 
0.0000000e+00 1.0256702e-05 0.0000000e+00 
0.0000000e+00 9.2694308e-06 0.0000000e+00 
0.0000000e+00 7.8157400e-06 0.0000000e+00 
0.0000000e+00 6.5076301e-06 0.0000000e+00 
0.0000000e+00 5.3352969e-06 0.0000000e+00 
0.0000000e+00 3.6922331e-06 0.0000000e+00 
0.0000000e+00 1.0679349e-06 0.0000000e+00 
0.0000000e+00 -2.2347022e-06 0.0000000e+00 
0.0000000e+00 -5.3867698e-06 0.0000000e+00 
0.0000000e+00 -8.3399618e-06 0.0000000e+00 
0.0000000e+00 -1.2094758e-05 0.0000000e+00 
0.0000000e+00 -1.6799529e-05 0.0000000e+00 
0.0000000e+00 -2.0730822e-05 0.0000000e+00 
0.0000000e+00 -2.1165326e-05 0.0000000e+00 
0.0000000e+00 -1.6857513e-05 0.0000000e+00 
0.0000000e+00 -1.0300169e-05 0.0000000e+00 
0.0000000e+00 -5.8845144e-06 0.0000000e+00 
0.0000000e+00 -5.4365241e-06 0.0000000e+00 
0.0000000e+00 -6.3009975e-06 0.0000000e+00 
0.0000000e+00 -2.9238081e-06 0.0000000e+00 
0.0000000e+00 7.6571487e-06 0.0000000e+00 
0.0000000e+00 1.8895595e-05 0.0000000e+00 
0.0000000e+00 1.8477338e-05 0.0000000e+00 
0.0000000e+00 5.0556696e-06 0.0000000e+00 
0.0000000e+00 -7.1713480e-06 0.0000000e+00 
0.0000000e+00 -3.3770143e-06 0.0000000e+00 
0.0000000e+00 1.7168524e-05 0.0000000e+00 
0.0000000e+00 3.8592767e-05 0.0000000e+00 
0.0000000e+00 4.3923708e-05 0.0000000e+00 
0.0000000e+00 3.2393375e-05 0.0000000e+00 
0.0000000e+00 2.0960864e-05 0.0000000e+00 
0.0000000e+00 3.8253111e-05 0.0000000e+00 
0.0000000e+00 9.0901442e-05 0.0000000e+00 
0.0000000e+00 1.2775075e-04 0.0000000e+00 
0.0000000e+00 6.1476312e-05 0.0000000e+00 
0.0000000e+00 -1.6252298e-04 0.0000000e+00 
0.0000000e+00 -5.4860284e-04 0.0000000e+00 
0.0000000e+00 -1.1032318e-03 0.0000000e+00 
0.0000000e+00 -1.8731349e-03 0.0000000e+00 
0.0000000e+00 -2.9166641e-03 0.0000000e+00 
0.0000000e+00 -4.1230470e-03 0.0000000e+00 
0.0000000e+00 -4.9561863e-03 0.0000000e+00 
0.0000000e+00 -4.7253710e-03 0.0000000e+00 
0.0000000e+00 -4.2008567e-03 0.0000000e+00 
0.0000000e+00 -4.0279343e-03 0.0000000e+00 
0.0000000e+00 -4.2754426e-03 0.0000000e+00 
0.0000000e+00 -4.3232036e-03 0.0000000e+00 
0.0000000e+00 -3.3717600e-03 0.0000000e+00 
0.0000000e+00 -2.0350583e-03 0.0000000e+00 
0.0000000e+00 -9.1892062e-04 0.0000000e+00 
0.0000000e+00 -2.1642246e-04 0.0000000e+00 
0.0000000e+00 1.1215205e-04 0.0000000e+00 
0.0000000e+00 2.0125872e-04 0.0000000e+00 
0.0000000e+00 1.7960057e-04 0.0000000e+00 
0.0000000e+00 1.1906602e-04 0.0000000e+00 
0.0000000e+00 5.4243432e-05 0.0000000e+00 
0.0000000e+00 5.6175381e-06 0.0000000e+00 
0.0000000e+00 -1.6650425e-05 0.0000000e+00 
0.0000000e+00 -2.1045011e-05 0.0000000e+00 
0.0000000e+00 -2.1233272e-05 0.0000000e+00 
0.0000000e+00 -1.9005045e-05 0.0000000e+00 
0.0000000e+00 -8.1793869e-06 0.0000000e+00 
0.0000000e+00 1.0991470e-05 0.0000000e+00 
0.0000000e+00 2.5536896e-05 0.0000000e+00 
0.0000000e+00 2.0724781e-05 0.0000000e+00 
0.0000000e+00 3.3002057e-06 0.0000000e+00 
0.0000000e+00 -7.5456643e-07 0.0000000e+00 
0.0000000e+00 2.1167676e-05 0.0000000e+00 
0.0000000e+00 5.4604356e-05 0.0000000e+00 
0.0000000e+00 7.2878625e-05 0.0000000e+00 
0.0000000e+00 5.9378192e-05 0.0000000e+00 
0.0000000e+00 3.5306712e-05 0.0000000e+00 
0.0000000e+00 4.3025149e-05 0.0000000e+00 
0.0000000e+00 8.2756247e-05 0.0000000e+00 
0.0000000e+00 8.0574478e-05 0.0000000e+00 
0.0000000e+00 -8.4458668e-05 0.0000000e+00 
0.0000000e+00 -5.1193277e-04 0.0000000e+00 
0.0000000e+00 -1.2123376e-03 0.0000000e+00 
0.0000000e+00 -2.1272716e-03 0.0000000e+00 
0.0000000e+00 -3.1984518e-03 0.0000000e+00 
0.0000000e+00 -4.2511770e-03 0.0000000e+00 
0.0000000e+00 -4.8273779e-03 0.0000000e+00 
0.0000000e+00 -4.5526978e-03 0.0000000e+00 
0.0000000e+00 -4.1790530e-03 0.0000000e+00 
0.0000000e+00 -4.1659018e-03 0.0000000e+00 
0.0000000e+00 -4.3870057e-03 0.0000000e+00 
0.0000000e+00 -4.1875429e-03 0.0000000e+00 
0.0000000e+00 -3.0748874e-03 0.0000000e+00 
0.0000000e+00 -1.7369462e-03 0.0000000e+00 
0.0000000e+00 -7.1950239e-04 0.0000000e+00 
0.0000000e+00 -1.2306542e-04 0.0000000e+00 
0.0000000e+00 1.5228147e-04 0.0000000e+00 
0.0000000e+00 2.3083160e-04 0.0000000e+00 
0.0000000e+00 1.9970813e-04 0.0000000e+00 
0.0000000e+00 1.1978546e-04 0.0000000e+00 
0.0000000e+00 4.1534873e-05 0.0000000e+00 
0.0000000e+00 -4.9624264e-06 0.0000000e+00 
0.0000000e+00 -1.7924007e-05 0.0000000e+00 
0.0000000e+00 -1.5325593e-05 0.0000000e+00 
0.0000000e+00 -1.2716933e-05 0.0000000e+00 
0.0000000e+00 -1.1990762e-05 0.0000000e+00 
0.0000000e+00 -8.0955551e-06 0.0000000e+00 
0.0000000e+00 -8.0521681e-07 0.0000000e+00 
0.0000000e+00 4.3056652e-06 0.0000000e+00 
0.0000000e+00 3.7828704e-06 0.0000000e+00 
0.0000000e+00 2.3167578e-07 0.0000000e+00 
0.0000000e+00 -1.4516426e-06 0.0000000e+00 
0.0000000e+00 -1.8622976e-07 0.0000000e+00 
0.0000000e+00 7.5255139e-07 0.0000000e+00 
0.0000000e+00 -1.1819640e-06 0.0000000e+00 
0.0000000e+00 -4.1948565e-06 0.0000000e+00 
0.0000000e+00 -4.5116558e-06 0.0000000e+00 
0.0000000e+00 -1.2727539e-06 0.0000000e+00 
0.0000000e+00 2.3561686e-06 0.0000000e+00 
0.0000000e+00 2.9965274e-06 0.0000000e+00 
0.0000000e+00 8.5486874e-07 0.0000000e+00 
0.0000000e+00 -9.7001509e-07 0.0000000e+00 
0.0000000e+00 -3.9361535e-07 0.0000000e+00 
0.0000000e+00 1.4465944e-06 0.0000000e+00 
0.0000000e+00 2.0351499e-06 0.0000000e+00 
0.0000000e+00 6.7417039e-07 0.0000000e+00 
0.0000000e+00 -9.3922273e-07 0.0000000e+00 
0.0000000e+00 -1.0922142e-06 0.0000000e+00 
0.0000000e+00 -1.1307915e-07 0.0000000e+00 
0.0000000e+00 3.6320006e-07 0.0000000e+00 
0.0000000e+00 -3.6120986e-07 0.0000000e+00 
0.0000000e+00 -1.2792121e-06 0.0000000e+00 
0.0000000e+00 -1.1485898e-06 0.0000000e+00 
0.0000000e+00 -7.0760848e-08 0.0000000e+00 
0.0000000e+00 8.0048733e-07 0.0000000e+00 
0.0000000e+00 7.9068730e-07 0.0000000e+00 
0.0000000e+00 3.8385028e-07 0.0000000e+00 
0.0000000e+00 3.3293458e-07 0.0000000e+00 
0.0000000e+00 5.8650284e-07 0.0000000e+00 
0.0000000e+00 4.6957109e-07 0.0000000e+00 
0.0000000e+00 -2.6150531e-07 0.0000000e+00 
0.0000000e+00 -9.9613533e-07 0.0000000e+00 
0.0000000e+00 -1.0187622e-06 0.0000000e+00 
0.0000000e+00 -3.7437010e-07 0.0000000e+00 
0.0000000e+00 2.7389223e-07 0.0000000e+00 
0.0000000e+00 4.9825945e-07 0.0000000e+00 
0.0000000e+00 4.8519865e-07 0.0000000e+00 
0.0000000e+00 0.0000000e+00 0.0000000e+00 
0.0000000e+00 0.0000000e+00 0.0000000e+00 
0.0000000e+00 0.0000000e+00 0.0000000e+00 
0.0000000e+00 0.0000000e+00 0.0000000e+00 
0.0000000e+00 0.0000000e+00 0.0000000e+00 
0.0000000e+00 0.0000000e+00 0.0000000e+00 
0.0000000e+00 0.0000000e+00 0.0000000e+00 
0.0000000e+00 0.0000000e+00 0.0000000e+00 
0.0000000e+00 0.0000000e+00 0.0000000e+00 
0.0000000e+00 0.0000000e+00 0.0000000e+00 
0.0000000e+00 0.0000000e+00 0.0000000e+00 
0.0000000e+00 0.0000000e+00 0.0000000e+00 
0.0000000e+00 0.0000000e+00 0.0000000e+00 
0.0000000e+00 0.0000000e+00 0.0000000e+00 
0.0000000e+00 0.0000000e+00 0.0000000e+00 
0.0000000e+00 0.0000000e+00 0.0000000e+00 
0.0000000e+00 0.0000000e+00 0.0000000e+00 
0.0000000e+00 0.0000000e+00 0.0000000e+00 
0.0000000e+00 0.0000000e+00 0.0000000e+00 
0.0000000e+00 0.0000000e+00 0.0000000e+00 
0.0000000e+00 0.0000000e+00 0.0000000e+00 
0.0000000e+00 0.0000000e+00 0.0000000e+00 
0.0000000e+00 0.0000000e+00 0.0000000e+00 
0.0000000e+00 0.0000000e+00 0.0000000e+00 
0.0000000e+00 0.0000000e+00 0.0000000e+00 
0.0000000e+00 0.0000000e+00 0.0000000e+00 
0.0000000e+00 0.0000000e+00 0.0000000e+00 
0.0000000e+00 0.0000000e+00 0.0000000e+00 
0.0000000e+00 0.0000000e+00 0.0000000e+00 
0.0000000e+00 0.0000000e+00 0.0000000e+00 
0.0000000e+00 0.0000000e+00 0.0000000e+00 
0.0000000e+00 0.0000000e+00 0.0000000e+00 
0.0000000e+00 0.0000000e+00 0.0000000e+00 
0.0000000e+00 0.0000000e+00 0.0000000e+00 
0.0000000e+00 0.0000000e+00 0.0000000e+00 
0.0000000e+00 0.0000000e+00 0.0000000e+00 
0.0000000e+00 0.0000000e+00 0.0000000e+00 
0.0000000e+00 0.0000000e+00 0.0000000e+00 
0.0000000e+00 0.0000000e+00 0.0000000e+00 
0.0000000e+00 0.0000000e+00 0.0000000e+00 
0.0000000e+00 0.0000000e+00 0.0000000e+00 
0.0000000e+00 0.0000000e+00 0.0000000e+00 
0.0000000e+00 0.0000000e+00 0.0000000e+00 
0.0000000e+00 0.0000000e+00 0.0000000e+00 
0.0000000e+00 0.0000000e+00 0.0000000e+00 
0.0000000e+00 0.0000000e+00 0.0000000e+00 
0.0000000e+00 0.0000000e+00 0.0000000e+00 
0.0000000e+00 0.0000000e+00 0.0000000e+00 
0.0000000e+00 0.0000000e+00 0.0000000e+00 
0.0000000e+00 0.0000000e+00 0.0000000e+00 
0.0000000e+00 0.0000000e+00 0.0000000e+00 
0.0000000e+00 0.0000000e+00 0.0000000e+00 
0.0000000e+00 0.0000000e+00 0.0000000e+00 
0.0000000e+00 0.0000000e+00 0.0000000e+00 
0.0000000e+00 0.0000000e+00 0.0000000e+00 
0.0000000e+00 0.0000000e+00 0.0000000e+00 
0.0000000e+00 0.0000000e+00 0.0000000e+00 