# vtk DataFile Version 4.0
vtk output
ASCII
DATASET UNSTRUCTURED_GRID
POINTS 2186 float
0.0000000e+00 0.0000000e+00 0.0000000e+00 
0.0000000e+00 0.0000000e+00 5.0000000e+01 
5.0000000e+00 0.0000000e+00 0.0000000e+00 
5.0000000e+00 0.0000000e+00 5.0000000e+01 
5.0000000e+00 1.0000000e+00 0.0000000e+00 
5.0000000e+00 1.0000000e+00 5.0000000e+01 
0.0000000e+00 1.0000000e+00 0.0000000e+00 
0.0000000e+00 1.0000000e+00 5.0000000e+01 
5.0000000e+00 2.0000000e+00 0.0000000e+00 
5.0000000e+00 2.0000000e+00 5.0000000e+01 
3.0000000e+00 2.0000000e+00 0.0000000e+00 
3.0000000e+00 2.0000000e+00 5.0000000e+01 
0.0000000e+00 2.0000000e+00 0.0000000e+00 
0.0000000e+00 2.0000000e+00 5.0000000e+01 
1.5000000e+00 3.0000000e+00 0.0000000e+00 
1.5000000e+00 3.0000000e+00 5.0000000e+01 
7.5000000e-01 3.0000000e+00 0.0000000e+00 
7.5000000e-01 3.0000000e+00 5.0000000e+01 
0.0000000e+00 3.0000000e+00 0.0000000e+00 
0.0000000e+00 3.0000000e+00 5.0000000e+01 
7.5000000e-01 3.0000000e+00 -2.5000000e+01 
7.5000000e-01 3.0000000e+00 -2.4500000e+01 
7.5000000e-01 3.0000000e+00 -2.4000000e+01 
7.5000000e-01 3.0000000e+00 -2.3500000e+01 
7.5000000e-01 3.0000000e+00 -2.3000000e+01 
7.5000000e-01 3.0000000e+00 -2.2500000e+01 
7.5000000e-01 3.0000000e+00 -2.2000000e+01 
7.5000000e-01 3.0000000e+00 -2.1500000e+01 
7.5000000e-01 3.0000000e+00 -2.1000000e+01 
7.5000000e-01 3.0000000e+00 -2.0500000e+01 
7.5000000e-01 3.0000000e+00 -2.0000000e+01 
7.5000000e-01 3.0000000e+00 -1.9500000e+01 
7.5000000e-01 3.0000000e+00 -1.9000000e+01 
7.5000000e-01 3.0000000e+00 -1.8500000e+01 
7.5000000e-01 3.0000000e+00 -1.8000000e+01 
7.5000000e-01 3.0000000e+00 -1.7500000e+01 
7.5000000e-01 3.0000000e+00 -1.7000000e+01 
7.5000000e-01 3.0000000e+00 -1.6500000e+01 
7.5000000e-01 3.0000000e+00 -1.6000000e+01 
7.5000000e-01 3.0000000e+00 -1.5500000e+01 
7.5000000e-01 3.0000000e+00 -1.5000000e+01 
7.5000000e-01 3.0000000e+00 -1.4500000e+01 
7.5000000e-01 3.0000000e+00 -1.4000000e+01 
7.5000000e-01 3.0000000e+00 -1.3500000e+01 
7.5000000e-01 3.0000000e+00 -1.3000000e+01 
7.5000000e-01 3.0000000e+00 -1.2500000e+01 
7.5000000e-01 3.0000000e+00 -1.2000000e+01 
7.5000000e-01 3.0000000e+00 -1.1500000e+01 
7.5000000e-01 3.0000000e+00 -1.1000000e+01 
7.5000000e-01 3.0000000e+00 -1.0500000e+01 
7.5000000e-01 3.0000000e+00 -1.0000000e+01 
7.5000000e-01 3.0000000e+00 -9.5000000e+00 
7.5000000e-01 3.0000000e+00 -9.0000000e+00 
7.5000000e-01 3.0000000e+00 -8.5000000e+00 
7.5000000e-01 3.0000000e+00 -8.0000000e+00 
7.5000000e-01 3.0000000e+00 -7.5000000e+00 
7.5000000e-01 3.0000000e+00 -7.0000000e+00 
7.5000000e-01 3.0000000e+00 -6.5000000e+00 
7.5000000e-01 3.0000000e+00 -6.0000000e+00 
7.5000000e-01 3.0000000e+00 -5.5000000e+00 
7.5000000e-01 3.0000000e+00 -5.0000000e+00 
7.5000000e-01 3.0000000e+00 -4.5000000e+00 
7.5000000e-01 3.0000000e+00 -4.0000000e+00 
7.5000000e-01 3.0000000e+00 -3.5000000e+00 
7.5000000e-01 3.0000000e+00 -3.0000000e+00 
7.5000000e-01 3.0000000e+00 -2.5000000e+00 
7.5000000e-01 3.0000000e+00 -2.0000000e+00 
7.5000000e-01 3.0000000e+00 -1.5000000e+00 
7.5000000e-01 3.0000000e+00 -1.0000000e+00 
7.5000000e-01 3.0000000e+00 -5.0000000e-01 
7.5000000e-01 3.0000000e+00 5.0000000e-01 
7.5000000e-01 3.0000000e+00 1.0000000e+00 
7.5000000e-01 3.0000000e+00 1.5000000e+00 
7.5000000e-01 3.0000000e+00 2.0000000e+00 
7.5000000e-01 3.0000000e+00 2.5000000e+00 
7.5000000e-01 3.0000000e+00 3.0000000e+00 
7.5000000e-01 3.0000000e+00 3.5000000e+00 
7.5000000e-01 3.0000000e+00 4.0000000e+00 
7.5000000e-01 3.0000000e+00 4.5000000e+00 
7.5000000e-01 3.0000000e+00 5.0000000e+00 
7.5000000e-01 3.0000000e+00 5.5000000e+00 
7.5000000e-01 3.0000000e+00 6.0000000e+00 
7.5000000e-01 3.0000000e+00 6.5000000e+00 
7.5000000e-01 3.0000000e+00 7.0000000e+00 
7.5000000e-01 3.0000000e+00 7.5000000e+00 
7.5000000e-01 3.0000000e+00 8.0000000e+00 
7.5000000e-01 3.0000000e+00 8.5000000e+00 
7.5000000e-01 3.0000000e+00 9.0000000e+00 
7.5000000e-01 3.0000000e+00 9.5000000e+00 
7.5000000e-01 3.0000000e+00 1.0000000e+01 
7.5000000e-01 3.0000000e+00 1.0500000e+01 
7.5000000e-01 3.0000000e+00 1.1000000e+01 
7.5000000e-01 3.0000000e+00 1.1500000e+01 
7.5000000e-01 3.0000000e+00 1.2000000e+01 
7.5000000e-01 3.0000000e+00 1.2500000e+01 
7.5000000e-01 3.0000000e+00 1.3000000e+01 
7.5000000e-01 3.0000000e+00 1.3500000e+01 
7.5000000e-01 3.0000000e+00 1.4000000e+01 
7.5000000e-01 3.0000000e+00 1.4500000e+01 
7.5000000e-01 3.0000000e+00 1.5000000e+01 
7.5000000e-01 3.0000000e+00 1.5500000e+01 
7.5000000e-01 3.0000000e+00 1.6000000e+01 
7.5000000e-01 3.0000000e+00 1.6500000e+01 
7.5000000e-01 3.0000000e+00 1.7000000e+01 
7.5000000e-01 3.0000000e+00 1.7500000e+01 
7.5000000e-01 3.0000000e+00 1.8000000e+01 
7.5000000e-01 3.0000000e+00 1.8500000e+01 
7.5000000e-01 3.0000000e+00 1.9000000e+01 
7.5000000e-01 3.0000000e+00 1.9500000e+01 
7.5000000e-01 3.0000000e+00 2.0000000e+01 
7.5000000e-01 3.0000000e+00 2.0500000e+01 
7.5000000e-01 3.0000000e+00 2.1000000e+01 
7.5000000e-01 3.0000000e+00 2.1500000e+01 
7.5000000e-01 3.0000000e+00 2.2000000e+01 
7.5000000e-01 3.0000000e+00 2.2500000e+01 
7.5000000e-01 3.0000000e+00 2.3000000e+01 
7.5000000e-01 3.0000000e+00 2.3500000e+01 
7.5000000e-01 3.0000000e+00 2.4000000e+01 
7.5000000e-01 3.0000000e+00 2.4500000e+01 
7.5000000e-01 3.0000000e+00 2.5000000e+01 
7.5000000e-01 3.0000000e+00 2.5500000e+01 
7.5000000e-01 3.0000000e+00 2.6000000e+01 
7.5000000e-01 3.0000000e+00 2.6500000e+01 
7.5000000e-01 3.0000000e+00 2.7000000e+01 
7.5000000e-01 3.0000000e+00 2.7500000e+01 
7.5000000e-01 3.0000000e+00 2.8000000e+01 
7.5000000e-01 3.0000000e+00 2.8500000e+01 
7.5000000e-01 3.0000000e+00 2.9000000e+01 
7.5000000e-01 3.0000000e+00 2.9500000e+01 
7.5000000e-01 3.0000000e+00 3.0000000e+01 
7.5000000e-01 3.0000000e+00 3.0500000e+01 
7.5000000e-01 3.0000000e+00 3.1000000e+01 
7.5000000e-01 3.0000000e+00 3.1500000e+01 
7.5000000e-01 3.0000000e+00 3.2000000e+01 
7.5000000e-01 3.0000000e+00 3.2500000e+01 
7.5000000e-01 3.0000000e+00 3.3000000e+01 
7.5000000e-01 3.0000000e+00 3.3500000e+01 
7.5000000e-01 3.0000000e+00 3.4000000e+01 
7.5000000e-01 3.0000000e+00 3.4500000e+01 
7.5000000e-01 3.0000000e+00 3.5000000e+01 
7.5000000e-01 3.0000000e+00 3.5500000e+01 
7.5000000e-01 3.0000000e+00 3.6000000e+01 
7.5000000e-01 3.0000000e+00 3.6500000e+01 
7.5000000e-01 3.0000000e+00 3.7000000e+01 
7.5000000e-01 3.0000000e+00 3.7500000e+01 
7.5000000e-01 3.0000000e+00 3.8000000e+01 
7.5000000e-01 3.0000000e+00 3.8500000e+01 
7.5000000e-01 3.0000000e+00 3.9000000e+01 
7.5000000e-01 3.0000000e+00 3.9500000e+01 
7.5000000e-01 3.0000000e+00 4.0000000e+01 
7.5000000e-01 3.0000000e+00 4.0500000e+01 
7.5000000e-01 3.0000000e+00 4.1000000e+01 
7.5000000e-01 3.0000000e+00 4.1500000e+01 
7.5000000e-01 3.0000000e+00 4.2000000e+01 
7.5000000e-01 3.0000000e+00 4.2500000e+01 
7.5000000e-01 3.0000000e+00 4.3000000e+01 
7.5000000e-01 3.0000000e+00 4.3500000e+01 
7.5000000e-01 3.0000000e+00 4.4000000e+01 
7.5000000e-01 3.0000000e+00 4.4500000e+01 
7.5000000e-01 3.0000000e+00 4.5000000e+01 
7.5000000e-01 3.0000000e+00 4.5500000e+01 
7.5000000e-01 3.0000000e+00 4.6000000e+01 
7.5000000e-01 3.0000000e+00 4.6500000e+01 
7.5000000e-01 3.0000000e+00 4.7000000e+01 
7.5000000e-01 3.0000000e+00 4.7500000e+01 
7.5000000e-01 3.0000000e+00 4.8000000e+01 
7.5000000e-01 3.0000000e+00 4.8500000e+01 
7.5000000e-01 3.0000000e+00 4.9000000e+01 
7.5000000e-01 3.0000000e+00 4.9500000e+01 
7.5000000e-01 3.0000000e+00 5.0500000e+01 
7.5000000e-01 3.0000000e+00 5.1000000e+01 
7.5000000e-01 3.0000000e+00 5.1500000e+01 
7.5000000e-01 3.0000000e+00 5.2000000e+01 
7.5000000e-01 3.0000000e+00 5.2500000e+01 
7.5000000e-01 3.0000000e+00 5.3000000e+01 
7.5000000e-01 3.0000000e+00 5.3500000e+01 
7.5000000e-01 3.0000000e+00 5.4000000e+01 
7.5000000e-01 3.0000000e+00 5.4500000e+01 
7.5000000e-01 3.0000000e+00 5.5000000e+01 
7.5000000e-01 3.0000000e+00 5.5500000e+01 
7.5000000e-01 3.0000000e+00 5.6000000e+01 
7.5000000e-01 3.0000000e+00 5.6500000e+01 
7.5000000e-01 3.0000000e+00 5.7000000e+01 
7.5000000e-01 3.0000000e+00 5.7500000e+01 
7.5000000e-01 3.0000000e+00 5.8000000e+01 
7.5000000e-01 3.0000000e+00 5.8500000e+01 
7.5000000e-01 3.0000000e+00 5.9000000e+01 
7.5000000e-01 3.0000000e+00 5.9500000e+01 
7.5000000e-01 3.0000000e+00 6.0000000e+01 
7.5000000e-01 3.0000000e+00 6.0500000e+01 
7.5000000e-01 3.0000000e+00 6.1000000e+01 
7.5000000e-01 3.0000000e+00 6.1500000e+01 
7.5000000e-01 3.0000000e+00 6.2000000e+01 
7.5000000e-01 3.0000000e+00 6.2500000e+01 
7.5000000e-01 3.0000000e+00 6.3000000e+01 
7.5000000e-01 3.0000000e+00 6.3500000e+01 
7.5000000e-01 3.0000000e+00 6.4000000e+01 
7.5000000e-01 3.0000000e+00 6.4500000e+01 
7.5000000e-01 3.0000000e+00 6.5000000e+01 
7.5000000e-01 3.0000000e+00 6.5500000e+01 
7.5000000e-01 3.0000000e+00 6.6000000e+01 
7.5000000e-01 3.0000000e+00 6.6500000e+01 
7.5000000e-01 3.0000000e+00 6.7000000e+01 
7.5000000e-01 3.0000000e+00 6.7500000e+01 
7.5000000e-01 3.0000000e+00 6.8000000e+01 
7.5000000e-01 3.0000000e+00 6.8500000e+01 
7.5000000e-01 3.0000000e+00 6.9000000e+01 
7.5000000e-01 3.0000000e+00 6.9500000e+01 
7.5000000e-01 3.0250001e+00 -2.5000000e+01 
7.5000000e-01 3.0250001e+00 -2.4500000e+01 
7.5000000e-01 3.0250001e+00 -2.4000000e+01 
7.5000000e-01 3.0250001e+00 -2.3500000e+01 
7.5000000e-01 3.0250001e+00 -2.3000000e+01 
7.5000000e-01 3.0250001e+00 -2.2500000e+01 
7.5000000e-01 3.0250001e+00 -2.2000000e+01 
7.5000000e-01 3.0250001e+00 -2.1500000e+01 
7.5000000e-01 3.0250001e+00 -2.1000000e+01 
7.5000000e-01 3.0250001e+00 -2.0500000e+01 
7.5000000e-01 3.0250001e+00 -2.0000000e+01 
7.5000000e-01 3.0250001e+00 -1.9500000e+01 
7.5000000e-01 3.0250001e+00 -1.9000000e+01 
7.5000000e-01 3.0250001e+00 -1.8500000e+01 
7.5000000e-01 3.0250001e+00 -1.8000000e+01 
7.5000000e-01 3.0250001e+00 -1.7500000e+01 
7.5000000e-01 3.0250001e+00 -1.7000000e+01 
7.5000000e-01 3.0250001e+00 -1.6500000e+01 
7.5000000e-01 3.0250001e+00 -1.6000000e+01 
7.5000000e-01 3.0250001e+00 -1.5500000e+01 
[...]
POINT_DATA 2186
FIELD FieldData 3
DISPLACEMENT 3 2186  float
0.0000000e+00 0.0000000e+00 0.0000000e+00 
0.0000000e+00 0.0000000e+00 0.0000000e+00 
0.0000000e+00 0.0000000e+00 0.0000000e+00 
0.0000000e+00 0.0000000e+00 0.0000000e+00 
1.0336039e-05 -3.3483161e-06 -1.7713353e-05 
-2.5674012e-07 5.9730858e-08 -1.7679142e-07 
0.0000000e+00 2.3835284e-05 0.0000000e+00 
0.0000000e+00 1.7410694e-07 0.0000000e+00 
1.0328875e-05 -1.8477896e-09 -1.5564257e-05 
5.2195478e-08 -3.6544995e-07 2.1218247e-07 
1.6098506e-05 -8.3779078e-06 -2.4147104e-05 
1.3080674e-08 -3.1789054e-07 -1.3979053e-07 
0.0000000e+00 5.0060440e-05 0.0000000e+00 
0.0000000e+00 1.6229325e-08 0.0000000e+00 
3.0066001e-05 2.1754930e-05 -8.3402236e-05 
-1.0028594e-06 8.0800527e-07 -4.8587327e-07 
-5.0851173e-05 -1.1189258e-05 -8.6285196e-05 
7.1247463e-08 7.2772423e-07 1.3404715e-08 
0.0000000e+00 5.7513709e-05 0.0000000e+00 
0.0000000e+00 -2.0591389e-07 0.0000000e+00 
0.0000000e+00 2.6399928e-05 0.0000000e+00 
0.0000000e+00 1.4511308e-05 0.0000000e+00 
0.0000000e+00 -9.9295967e-06 0.0000000e+00 
0.0000000e+00 -2.6857293e-05 0.0000000e+00 
0.0000000e+00 -2.3881676e-05 0.0000000e+00 
0.0000000e+00 -4.9617702e-06 0.0000000e+00 
0.0000000e+00 1.4027200e-05 0.0000000e+00 
0.0000000e+00 1.8945420e-05 0.0000000e+00 
0.0000000e+00 8.6793170e-06 0.0000000e+00 
0.0000000e+00 -5.2150640e-06 0.0000000e+00 
0.0000000e+00 -9.6450649e-06 0.0000000e+00 
0.0000000e+00 -1.7985573e-06 0.0000000e+00 
0.0000000e+00 8.7909266e-06 0.0000000e+00 
0.0000000e+00 9.5797923e-06 0.0000000e+00 
0.0000000e+00 -2.8000716e-06 0.0000000e+00 
0.0000000e+00 -1.8612995e-05 0.0000000e+00 
0.0000000e+00 -2.3044380e-05 0.0000000e+00 
0.0000000e+00 -9.1892671e-06 0.0000000e+00 
0.0000000e+00 1.5290039e-05 0.0000000e+00 
0.0000000e+00 3.3446198e-05 0.0000000e+00 
0.0000000e+00 3.1745567e-05 0.0000000e+00 
0.0000000e+00 1.0027097e-05 0.0000000e+00 
0.0000000e+00 -1.8523926e-05 0.0000000e+00 
0.0000000e+00 -3.6631958e-05 0.0000000e+00 
0.0000000e+00 -3.4257075e-05 0.0000000e+00 
0.0000000e+00 -1.4264767e-05 0.0000000e+00 
0.0000000e+00 1.0574610e-05 0.0000000e+00 
0.0000000e+00 2.6297021e-05 0.0000000e+00 
0.0000000e+00 2.6135715e-05 0.0000000e+00 
0.0000000e+00 1.3693371e-05 0.0000000e+00 
0.0000000e+00 -4.7387465e-07 0.0000000e+00 
0.0000000e+00 -6.6057605e-06 0.0000000e+00 
0.0000000e+00 -2.9120881e-06 0.0000000e+00 
0.0000000e+00 3.2293206e-06 0.0000000e+00 
0.0000000e+00 1.8864727e-06 0.0000000e+00 
0.0000000e+00 -9.8571054e-06 0.0000000e+00 
0.0000000e+00 -2.4052655e-05 0.0000000e+00 
0.0000000e+00 -2.8040220e-05 0.0000000e+00 
0.0000000e+00 -1.5510377e-05 0.0000000e+00 
0.0000000e+00 7.4155182e-06 0.0000000e+00 
0.0000000e+00 2.6401422e-05 0.0000000e+00 
0.0000000e+00 2.9864730e-05 0.0000000e+00 
0.0000000e+00 1.7960971e-05 0.0000000e+00 
0.0000000e+00 2.4142669e-06 0.0000000e+00 
0.0000000e+00 -3.2172352e-06 0.0000000e+00 
0.0000000e+00 4.7719514e-06 0.0000000e+00 
0.0000000e+00 1.7087908e-05 0.0000000e+00 
0.0000000e+00 2.0339465e-05 0.0000000e+00 
0.0000000e+00 9.8147857e-06 0.0000000e+00 
0.0000000e+00 -5.8074097e-06 0.0000000e+00 
1.6289974e-05 3.9485822e-06 -8.6234468e-05 
3.7193575e-05 3.6232508e-05 -6.8987312e-05 
6.0395691e-05 6.8430651e-05 -4.9410744e-05 
1.1191022e-04 8.2931147e-05 -2.7231516e-05 
1.1957422e-04 7.5910539e-05 2.9254179e-05 
1.2467585e-04 5.8483085e-05 2.9021157e-05 
1.0092878e-04 5.1660529e-05 4.7861686e-05 
7.7089171e-05 6.4853833e-05 4.8013811e-05 
8.3611369e-05 8.1889288e-05 5.9942875e-05 
1.0831399e-04 6.7642119e-05 7.9727026e-05 
6.1673214e-05 1.9032375e-05 6.5380875e-05 
7.4361880e-05 -4.5032397e-05 5.1607640e-05 
3.9822575e-05 -1.2172518e-04 7.8033961e-05 
7.7503231e-05 -2.7246989e-04 5.3860855e-05 
6.1142913e-05 -6.3926377e-04 1.3465533e-04 
3.2977667e-05 -1.3887519e-03 8.0540573e-05 
-1.9854182e-05 -2.5336940e-03 1.6255169e-04 
-3.3848650e-05 -3.8045517e-03 1.6913222e-05 
-1.1613320e-04 -4.7292290e-03 8.4249979e-05 
-1.2576069e-04 -4.7444040e-03 -1.4101915e-05 
-1.1500571e-04 -4.3112822e-03 -2.4944809e-05 
-1.9374583e-04 -4.1606259e-03 -6.4039722e-07 
-2.2135602e-04 -4.4892714e-03 8.1570317e-05 
-3.3609179e-04 -4.7250357e-03 -7.5554826e-06 
-3.8193984e-04 -4.1689835e-03 -8.8144050e-05 
-4.2079063e-04 -2.9131291e-03 -3.6508188e-04 
-1.1428028e-04 -1.5927599e-03 -1.7864048e-04 
-5.8755799e-05 -6.1660557e-04 -7.1820163e-05 
-9.5801772e-07 -3.7254606e-05 -5.5256507e-05 
3.6674571e-06 2.1087761e-04 4.5567426e-06 
-2.8577138e-05 2.3684948e-04 -5.9631216e-06 
-2.5616670e-05 1.6577139e-04 -4.9387811e-05 
-2.3302424e-07 9.6499498e-05 -7.4347037e-05 
2.0413750e-05 5.6481436e-05 -9.4906944e-05 
3.5238118e-05 3.2913362e-05 -6.3455445e-05 
2.5510899e-05 1.1610330e-05 -4.1642237e-05 
-6.0247244e-06 -5.4698244e-06 8.3173727e-06 
-2.6838245e-05 -7.3515585e-06 4.5711213e-06 
-4.1097635e-05 3.9721090e-06 -2.9306928e-05 
-1.8385646e-05 1.5493426e-05 -6.4245331e-05 
1.9576419e-05 2.4956817e-05 -7.9406229e-05 
5.4903267e-05 4.2139305e-05 -5.1823445e-05 
8.1437189e-05 7.2301853e-05 -4.8441867e-05 
9.1826107e-05 1.0266298e-04 -7.4497279e-06 
1.0294611e-04 1.0931245e-04 1.9506257e-05 
1.0565857e-04 7.9499521e-05 3.8559381e-05 
8.2472288e-05 3.5302037e-05 6.3148000e-05 
9.5646443e-05 2.5168511e-05 6.7417583e-05 
7.1525392e-05 6.0322058e-05 7.0839938e-05 
8.6002838e-05 8.9924419e-05 7.9876430e-05 
5.3273601e-05 6.8241839e-05 5.1907627e-05 
7.1211456e-05 -2.3009652e-05 5.9114420e-05 
5.3978922e-05 -1.7639069e-04 7.2850482e-05 
4.0046554e-05 -4.0760136e-04 4.9349321e-05 
3.5099871e-05 -8.1007363e-04 1.3519116e-04 
5.3052440e-06 -1.5383306e-03 5.2196454e-05 
-4.6339184e-05 -2.6784248e-03 1.5230537e-04 
-1.2093295e-04 -4.0300763e-03 -2.0031774e-05 
-1.7957493e-04 -5.0049694e-03 9.7320753e-06 
-2.0278132e-04 -4.8502288e-03 -4.0792900e-05 
-1.8892762e-04 -4.3231756e-03 -5.6852434e-05 
-2.2640917e-04 -4.1413768e-03 -1.2235094e-05 
-2.2645367e-04 -4.4786334e-03 4.9667084e-05 
-2.9811458e-04 -4.6436889e-03 -5.5545224e-06 
-2.9951526e-04 -3.8516219e-03 -1.5005220e-04 
-2.3200648e-04 -2.5180301e-03 -5.1951014e-05 
-1.4010006e-04 -1.2969846e-03 -2.0769419e-04 
-8.9598834e-05 -4.2374409e-04 -8.0345635e-05 
-4.2504558e-05 4.2840296e-05 -8.0133781e-05 
-3.1358017e-05 2.0470648e-04 -2.8269997e-05 
-4.4256059e-05 2.0282475e-04 -4.0947241e-05 
-2.2655269e-05 1.4744302e-04 -7.6198943e-05 
1.6732667e-05 9.5225529e-05 -1.0394484e-04 
4.5823323e-05 5.4629392e-05 -8.6882574e-05 
5.5340606e-05 2.3274602e-05 -4.9237358e-05 
4.9578004e-05 2.9357300e-06 -4.5599004e-06 
1.0573963e-05 -7.1770551e-06 3.1630956e-05 
-7.4436716e-06 -1.1516006e-05 3.8132977e-05 
-1.7156932e-05 -1.6562086e-05 3.1043004e-05 
-1.8164308e-05 -2.0083628e-05 2.0797466e-05 
-7.8437824e-06 -1.5307140e-05 2.5586926e-06 
-3.3534805e-06 -3.0390654e-06 -1.8702899e-06 
1.7864520e-06 9.5291543e-06 -4.6473392e-06 
1.1536769e-06 1.4314852e-05 -4.2839283e-06 
2.0892176e-06 1.0032283e-05 -1.8271621e-06 
5.4221067e-07 2.1952719e-06 -1.9537158e-06 
9.1536219e-07 -3.8131639e-06 -1.9628118e-07 
8.2281650e-07 -6.1712849e-06 2.1672693e-06 
-6.2384225e-07 -5.5509831e-06 5.0992725e-07 
-6.7792439e-07 -2.6441201e-06 -5.5124552e-08 
-4.6086583e-07 1.6480019e-06 6.7546983e-07 
-2.5864097e-07 4.6015180e-06 -4.6103065e-07 
2.6967484e-07 3.7984034e-06 -3.5393825e-07 
3.4778625e-07 2.3512573e-07 3.5334401e-07 
2.3464294e-07 -2.9722619e-06 -6.7649592e-07 
2.8065219e-07 -3.3943102e-06 4.0978557e-07 
3.2460497e-07 -1.1476492e-06 -4.1408970e-08 
-2.6550552e-07 1.3539005e-06 8.0556930e-08 
1.7210819e-07 1.9889376e-06 -1.2313551e-07 
0.0000000e+00 -9.8178361e-07 0.0000000e+00 
0.0000000e+00 -1.8473462e-06 0.0000000e+00 
0.0000000e+00 -1.4794688e-06 0.0000000e+00 
0.0000000e+00 -3.2475779e-07 0.0000000e+00 
0.0000000e+00 9.1295408e-07 0.0000000e+00 
0.0000000e+00 1.6602198e-06 0.0000000e+00 
0.0000000e+00 1.5681967e-06 0.0000000e+00 
0.0000000e+00 6.0751751e-07 0.0000000e+00 
0.0000000e+00 -7.7439211e-07 0.0000000e+00 
0.0000000e+00 -1.7502592e-06 0.0000000e+00 
0.0000000e+00 -1.6376538e-06 0.0000000e+00 
0.0000000e+00 -4.7833561e-07 0.0000000e+00 
0.0000000e+00 9.1881606e-07 0.0000000e+00 
0.0000000e+00 1.5950336e-06 0.0000000e+00 
0.0000000e+00 1.1819418e-06 0.0000000e+00 
0.0000000e+00 1.1071435e-07 0.0000000e+00 
0.0000000e+00 -8.2712347e-07 0.0000000e+00 
0.0000000e+00 -1.0972922e-06 0.0000000e+00 
0.0000000e+00 -6.9814513e-07 0.0000000e+00 
0.0000000e+00 1.2771562e-10 0.0000000e+00 
0.0000000e+00 5.7296268e-07 0.0000000e+00 
0.0000000e+00 7.5111871e-07 0.0000000e+00 
0.0000000e+00 4.8884237e-07 0.0000000e+00 
0.0000000e+00 -3.7750684e-08 0.0000000e+00 
0.0000000e+00 -5.0273894e-07 0.0000000e+00 
0.0000000e+00 -6.0851562e-07 0.0000000e+00 
0.0000000e+00 -2.9418325e-07 0.0000000e+00 
0.0000000e+00 2.0168238e-07 0.0000000e+00 
0.0000000e+00 5.1156434e-07 0.0000000e+00 
0.0000000e+00 4.1977128e-07 0.0000000e+00 
0.0000000e+00 2.3011928e-08 0.0000000e+00 
0.0000000e+00 -3.5612317e-07 0.0000000e+00 
0.0000000e+00 -4.2594593e-07 0.0000000e+00 
0.0000000e+00 -1.4999073e-07 0.0000000e+00 
0.0000000e+00 2.3134693e-07 0.0000000e+00 
0.0000000e+00 3.9919681e-07 0.0000000e+00 
0.0000000e+00 2.2204459e-07 0.0000000e+00 
0.0000000e+00 -1.2788605e-07 0.0000000e+00 
0.0000000e+00 -3.1095061e-07 0.0000000e+00 
0.0000000e+00 2.6128419e-05 0.0000000e+00 
0.0000000e+00 1.4383823e-05 0.0000000e+00 
0.0000000e+00 -9.7750462e-06 0.0000000e+00 
0.0000000e+00 -2.6543166e-05 0.0000000e+00 
0.0000000e+00 -2.3670635e-05 0.0000000e+00 
0.0000000e+00 -5.0245444e-06 0.0000000e+00 
0.0000000e+00 1.3759359e-05 0.0000000e+00 
0.0000000e+00 1.8716612e-05 0.0000000e+00 
0.0000000e+00 8.6919936e-06 0.0000000e+00 
0.0000000e+00 -4.9772275e-06 0.0000000e+00 
0.0000000e+00 -9.4001016e-06 0.0000000e+00 
0.0000000e+00 -1.7724743e-06 0.0000000e+00 
0.0000000e+00 8.5644142e-06 0.0000000e+00 
0.0000000e+00 9.2910641e-06 0.0000000e+00 
0.0000000e+00 -2.9017640e-06 0.0000000e+00 
0.0000000e+00 -1.8435379e-05 0.0000000e+00 
0.0000000e+00 -2.2726274e-05 0.0000000e+00 
0.0000000e+00 -8.9742061e-06 0.0000000e+00 
0.0000000e+00 1.5253346e-05 0.0000000e+00 
0.0000000e+00 3.3199452e-05 0.0000000e+00 
0.0000000e+00 3.1459422e-05 0.0000000e+00 
0.0000000e+00 9.8724258e-06 0.0000000e+00 
0.0000000e+00 -1.8466983e-05 0.0000000e+00 
0.0000000e+00 -3.6399706e-05 0.0000000e+00 
0.0000000e+00 -3.3981116e-05 0.0000000e+00 
0.0000000e+00 -1.4110613e-05 0.0000000e+00 
0.0000000e+00 1.0500913e-05 0.0000000e+00 
0.0000000e+00 2.6028756e-05 0.0000000e+00 
0.0000000e+00 2.5848294e-05 0.0000000e+00 
0.0000000e+00 1.3602286e-05 0.0000000e+00 
0.0000000e+00 -2.7618040e-07 0.0000000e+00 
0.0000000e+00 -6.2570762e-06 0.0000000e+00 
0.0000000e+00 -2.7056203e-06 0.0000000e+00 
0.0000000e+00 3.0939379e-06 0.0000000e+00 
0.0000000e+00 1.5118352e-06 0.0000000e+00 
0.0000000e+00 -1.0136379e-05 0.0000000e+00 
0.0000000e+00 -2.3983252e-05 0.0000000e+00 
0.0000000e+00 -2.7688808e-05 0.0000000e+00 
0.0000000e+00 -1.5187680e-05 0.0000000e+00 
0.0000000e+00 7.4398231e-06 0.0000000e+00 
0.0000000e+00 2.6110520e-05 0.0000000e+00 
0.0000000e+00 2.9491403e-05 0.0000000e+00 
0.0000000e+00 1.7814429e-05 0.0000000e+00 
0.0000000e+00 2.6413124e-06 0.0000000e+00 
0.0000000e+00 -2.7851695e-06 0.0000000e+00 
0.0000000e+00 5.0352614e-06 0.0000000e+00 
0.0000000e+00 1.6947957e-05 0.0000000e+00 
0.0000000e+00 1.9937597e-05 0.0000000e+00 
0.0000000e+00 9.5172709e-06 0.0000000e+00 
0.0000000e+00 -5.7603079e-06 0.0000000e+00 
0.0000000e+00 -1.0842296e-05 0.0000000e+00 
0.0000000e+00 4.4443755e-06 0.0000000e+00 
0.0000000e+00 3.6439247e-05 0.0000000e+00 
0.0000000e+00 6.8201050e-05 0.0000000e+00 
0.0000000e+00 8.2463390e-05 0.0000000e+00 
0.0000000e+00 7.5260774e-05 0.0000000e+00 
0.0000000e+00 5.8612033e-05 0.0000000e+00 
0.0000000e+00 5.2805688e-05 0.0000000e+00 
0.0000000e+00 6.6105415e-05 0.0000000e+00 
0.0000000e+00 8.1100807e-05 0.0000000e+00 
0.0000000e+00 6.6897454e-05 0.0000000e+00 
0.0000000e+00 1.9054691e-05 0.0000000e+00 
0.0000000e+00 -4.3344437e-05 0.0000000e+00 
0.0000000e+00 -1.1842203e-04 0.0000000e+00 
0.0000000e+00 -2.6998611e-04 0.0000000e+00 
0.0000000e+00 -6.4354291e-04 0.0000000e+00 
0.0000000e+00 -1.3993038e-03 0.0000000e+00 
0.0000000e+00 -2.5425942e-03 0.0000000e+00 
0.0000000e+00 -3.8224340e-03 0.0000000e+00 
0.0000000e+00 -4.7496264e-03 0.0000000e+00 
0.0000000e+00 -4.7773956e-03 0.0000000e+00 
0.0000000e+00 -4.3373709e-03 0.0000000e+00 
0.0000000e+00 -4.1891299e-03 0.0000000e+00 
0.0000000e+00 -4.5068841e-03 0.0000000e+00 
0.0000000e+00 -4.7566746e-03 0.0000000e+00 
0.0000000e+00 -4.1934936e-03 0.0000000e+00 
0.0000000e+00 -2.9272288e-03 0.0000000e+00 
0.0000000e+00 -1.6047307e-03 0.0000000e+00 
0.0000000e+00 -6.2078517e-04 0.0000000e+00 
0.0000000e+00 -3.8756076e-05 0.0000000e+00 
0.0000000e+00 2.1078732e-04 0.0000000e+00 
0.0000000e+00 2.3843128e-04 0.0000000e+00 
0.0000000e+00 1.6862752e-04 0.0000000e+00 
0.0000000e+00 9.7661417e-05 0.0000000e+00 
0.0000000e+00 5.6185487e-05 0.0000000e+00 
0.0000000e+00 3.2273452e-05 0.0000000e+00 
0.0000000e+00 1.1438213e-05 0.0000000e+00 
0.0000000e+00 -4.8379866e-06 0.0000000e+00 
0.0000000e+00 -6.9578491e-06 0.0000000e+00 
0.0000000e+00 3.4621191e-06 0.0000000e+00 
0.0000000e+00 1.4992733e-05 0.0000000e+00 
0.0000000e+00 2.5033982e-05 0.0000000e+00 
0.0000000e+00 4.2709486e-05 0.0000000e+00 
0.0000000e+00 7.2873670e-05 0.0000000e+00 
0.0000000e+00 1.0264964e-04 0.0000000e+00 
0.0000000e+00 1.0822919e-04 0.0000000e+00 
0.0000000e+00 7.8272118e-05 0.0000000e+00 
0.0000000e+00 3.6298101e-05 0.0000000e+00 
0.0000000e+00 2.7453798e-05 0.0000000e+00 
0.0000000e+00 6.0781062e-05 0.0000000e+00 
0.0000000e+00 8.9704634e-05 0.0000000e+00 
0.0000000e+00 6.7089088e-05 0.0000000e+00 
0.0000000e+00 -2.2988683e-05 0.0000000e+00 
0.0000000e+00 -1.7395234e-04 0.0000000e+00 
0.0000000e+00 -4.0484528e-04 0.0000000e+00 
0.0000000e+00 -8.1096234e-04 0.0000000e+00 
0.0000000e+00 -1.5471311e-03 0.0000000e+00 
0.0000000e+00 -2.6928668e-03 0.0000000e+00 
0.0000000e+00 -4.0566060e-03 0.0000000e+00 
0.0000000e+00 -5.0244941e-03 0.0000000e+00 
0.0000000e+00 -4.8790514e-03 0.0000000e+00 
0.0000000e+00 -4.3432410e-03 0.0000000e+00 
0.0000000e+00 -4.1729733e-03 0.0000000e+00 
0.0000000e+00 -4.5009218e-03 0.0000000e+00 
0.0000000e+00 -4.6759071e-03 0.0000000e+00 
0.0000000e+00 -3.8706642e-03 0.0000000e+00 
0.0000000e+00 -2.5355741e-03 0.0000000e+00 
0.0000000e+00 -1.3031019e-03 0.0000000e+00 
0.0000000e+00 -4.2930289e-04 0.0000000e+00 
0.0000000e+00 4.2197706e-05 0.0000000e+00 
0.0000000e+00 2.0663669e-04 0.0000000e+00 
0.0000000e+00 2.0482432e-04 0.0000000e+00 
0.0000000e+00 1.4881800e-04 0.0000000e+00 
0.0000000e+00 9.5431365e-05 0.0000000e+00 
0.0000000e+00 5.4656513e-05 0.0000000e+00 
0.0000000e+00 2.3517588e-05 0.0000000e+00 
0.0000000e+00 2.9396406e-06 0.0000000e+00 
0.0000000e+00 -7.2493149e-06 0.0000000e+00 
0.0000000e+00 -1.1836213e-05 0.0000000e+00 
0.0000000e+00 -1.6627913e-05 0.0000000e+00 
0.0000000e+00 -1.9722533e-05 0.0000000e+00 
0.0000000e+00 -1.5145523e-05 0.0000000e+00 
0.0000000e+00 -3.1338589e-06 0.0000000e+00 
0.0000000e+00 9.2659084e-06 0.0000000e+00 
0.0000000e+00 1.4156658e-05 0.0000000e+00 
0.0000000e+00 1.0110573e-05 0.0000000e+00 
0.0000000e+00 2.3091861e-06 0.0000000e+00 
0.0000000e+00 -3.7613274e-06 0.0000000e+00 
0.0000000e+00 -6.1699320e-06 0.0000000e+00 
0.0000000e+00 -5.5344417e-06 0.0000000e+00 
0.0000000e+00 -2.5926918e-06 0.0000000e+00 
0.0000000e+00 1.6084555e-06 0.0000000e+00 
0.0000000e+00 4.4666499e-06 0.0000000e+00 
0.0000000e+00 3.7539280e-06 0.0000000e+00 
0.0000000e+00 3.0336713e-07 0.0000000e+00 
0.0000000e+00 -2.8802422e-06 0.0000000e+00 
0.0000000e+00 -3.3450783e-06 0.0000000e+00 
0.0000000e+00 -1.1875348e-06 0.0000000e+00 
0.0000000e+00 1.2772997e-06 0.0000000e+00 
0.0000000e+00 1.9581973e-06 0.0000000e+00 
0.0000000e+00 7.5037548e-07 0.0000000e+00 
0.0000000e+00 -9.5252790e-07 0.0000000e+00 
0.0000000e+00 -1.8294757e-06 0.0000000e+00 
0.0000000e+00 -1.4783328e-06 0.0000000e+00 
0.0000000e+00 -3.3001342e-07 0.0000000e+00 
0.0000000e+00 9.0736683e-07 0.0000000e+00 
0.0000000e+00 1.6505545e-06 0.0000000e+00 
0.0000000e+00 1.5537943e-06 0.0000000e+00 
0.0000000e+00 5.9939634e-07 0.0000000e+00 
0.0000000e+00 -7.6435060e-07 0.0000000e+00 
0.0000000e+00 -1.7261660e-06 0.0000000e+00 
0.0000000e+00 -1.6194105e-06 0.0000000e+00 
0.0000000e+00 -4.8229191e-07 0.0000000e+00 
0.0000000e+00 8.9664485e-07 0.0000000e+00 
0.0000000e+00 1.5744395e-06 0.0000000e+00 
0.0000000e+00 1.1786437e-06 0.0000000e+00 
0.0000000e+00 1.2318802e-07 0.0000000e+00 
0.0000000e+00 -8.1210618e-07 0.0000000e+00 
0.0000000e+00 -1.0900976e-06 0.0000000e+00 
0.0000000e+00 -6.9946270e-07 0.0000000e+00 
0.0000000e+00 -5.4452554e-09 0.0000000e+00 
0.0000000e+00 5.6609491e-07 0.0000000e+00 
0.0000000e+00 7.4472467e-07 0.0000000e+00 
0.0000000e+00 4.8616931e-07 0.0000000e+00 
0.0000000e+00 -3.3714734e-08 0.0000000e+00 
0.0000000e+00 -4.9388524e-07 0.0000000e+00 
0.0000000e+00 -6.0162182e-07 0.0000000e+00 
0.0000000e+00 -2.9471349e-07 0.0000000e+00 
0.0000000e+00 1.9480250e-07 0.0000000e+00 
0.0000000e+00 5.0423063e-07 0.0000000e+00 
0.0000000e+00 4.1695534e-07 0.0000000e+00 
0.0000000e+00 2.5642770e-08 0.0000000e+00 
0.0000000e+00 -3.5018130e-07 0.0000000e+00 
0.0000000e+00 -4.2020989e-07 0.0000000e+00 
0.0000000e+00 -1.4834994e-07 0.0000000e+00 
0.0000000e+00 2.2684348e-07 0.0000000e+00 
0.0000000e+00 3.9125112e-07 0.0000000e+00 
0.0000000e+00 2.1728890e-07 0.0000000e+00 
0.0000000e+00 -1.2500909e-07 0.0000000e+00 
0.0000000e+00 -3.0378862e-07 0.0000000e+00 
0.0000000e+00 0.0000000e+00 0.0000000e+00 
0.0000000e+00 0.0000000e+00 0.0000000e+00 
0.0000000e+00 0.0000000e+00 0.0000000e+00 
0.0000000e+00 0.0000000e+00 0.0000000e+00 
0.0000000e+00 0.0000000e+00 0.0000000e+00 
0.0000000e+00 0.0000000e+00 0.0000000e+00 
0.0000000e+00 0.0000000e+00 0.0000000e+00 
0.0000000e+00 0.0000000e+00 0.0000000e+00 
0.0000000e+00 0.0000000e+00 0.0000000e+00 
0.0000000e+00 0.0000000e+00 0.0000000e+00 
0.0000000e+00 0.0000000e+00 0.0000000e+00 
0.0000000e+00 0.0000000e+00 0.0000000e+00 
0.0000000e+00 0.0000000e+00 0.0000000e+00 
0.0000000e+00 0.0000000e+00 0.0000000e+00 
0.0000000e+00 0.0000000e+00 0.0000000e+00 
0.0000000e+00 0.0000000e+00 0.0000000e+00 
0.0000000e+00 0.0000000e+00 0.0000000e+00 
0.0000000e+00 0.0000000e+00 0.0000000e+00 
0.0000000e+00 0.0000000e+00 0.0000000e+00 
0.0000000e+00 0.0000000e+00 0.0000000e+00 
0.0000000e+00 0.0000000e+00 0.0000000e+00 
0.0000000e+00 0.0000000e+00 0.0000000e+00 
0.0000000e+00 0.0000000e+00 0.0000000e+00 
0.0000000e+00 0.0000000e+00 0.0000000e+00 
0.0000000e+00 0.0000000e+00 0.0000000e+00 
0.0000000e+00 0.0000000e+00 0.0000000e+00 
0.0000000e+00 0.0000000e+00 0.0000000e+00 
0.0000000e+00 0.0000000e+00 0.0000000e+00 
0.0000000e+00 0.0000000e+00 0.0000000e+00 
0.0000000e+00 0.0000000e+00 0.0000000e+00 
0.0000000e+00 0.0000000e+00 0.0000000e+00 
0.0000000e+00 0.0000000e+00 0.0000000e+00 
0.0000000e+00 0.0000000e+00 0.0000000e+00 
0.0000000e+00 0.0000000e+00 0.0000000e+00 
0.0000000e+00 0.0000000e+00 0.0000000e+00 
0.0000000e+00 0.0000000e+00 0.0000000e+00 
0.0000000e+00 0.0000000e+00 0.0000000e+00 
0.0000000e+00 0.0000000e+00 0.0000000e+00 
0.0000000e+00 0.0000000e+00 0.0000000e+00 
0.0000000e+00 0.0000000e+00 0.0000000e+00 
0.0000000e+00 0.0000000e+00 0.0000000e+00 
0.0000000e+00 0.0000000e+00 0.0000000e+00 
0.0000000e+00 0.0000000e+00 0.0000000e+00 
0.0000000e+00 0.0000000e+00 0.0000000e+00 
0.0000000e+00 0.0000000e+00 0.0000000e+00 
0.0000000e+00 0.0000000e+00 0.0000000e+00 
0.0000000e+00 0.0000000e+00 0.0000000e+00 
0.0000000e+00 0.0000000e+00 0.0000000e+00 
0.0000000e+00 0.0000000e+00 0.0000000e+00 
0.0000000e+00 0.0000000e+00 0.0000000e+00 
0.0000000e+00 0.0000000e+00 0.0000000e+00 
0.0000000e+00 0.0000000e+00 0.0000000e+00 
0.0000000e+00 0.0000000e+00 0.0000000e+00 
0.0000000e+00 0.0000000e+00 0.0000000e+00 
0.0000000e+00 0.0000000e+00 0.0000000e+00 
0.0000000e+00 0.0000000e+00 0.0000000e+00 
0.0000000e+00 0.0000000e+00 0.0000000e+00 
0.0000000e+00 0.0000000e+00 0.0000000e+00 