# vtk DataFile Version 4.0
vtk output
ASCII
DATASET UNSTRUCTURED_GRID
POINTS 2186 float
0.0000000e+00 0.0000000e+00 0.0000000e+00 
0.0000000e+00 0.0000000e+00 5.0000000e+01 
5.0000000e+00 0.0000000e+00 0.0000000e+00 
5.0000000e+00 0.0000000e+00 5.0000000e+01 
5.0000000e+00 1.0000000e+00 0.0000000e+00 
5.0000000e+00 1.0000000e+00 5.0000000e+01 
0.0000000e+00 1.0000000e+00 0.0000000e+00 
0.0000000e+00 1.0000000e+00 5.0000000e+01 
5.0000000e+00 2.0000000e+00 0.0000000e+00 
5.0000000e+00 2.0000000e+00 5.0000000e+01 
3.0000000e+00 2.0000000e+00 0.0000000e+00 
3.0000000e+00 2.0000000e+00 5.0000000e+01 
0.0000000e+00 2.0000000e+00 0.0000000e+00 
0.0000000e+00 2.0000000e+00 5.0000000e+01 
1.5000000e+00 3.0000000e+00 0.0000000e+00 
1.5000000e+00 3.0000000e+00 5.0000000e+01 
7.5000000e-01 3.0000000e+00 0.0000000e+00 
7.5000000e-01 3.0000000e+00 5.0000000e+01 
0.0000000e+00 3.0000000e+00 0.0000000e+00 
0.0000000e+00 3.0000000e+00 5.0000000e+01 
7.5000000e-01 3.0000000e+00 -2.5000000e+01 
7.5000000e-01 3.0000000e+00 -2.4500000e+01 
7.5000000e-01 3.0000000e+00 -2.4000000e+01 
7.5000000e-01 3.0000000e+00 -2.3500000e+01 
7.5000000e-01 3.0000000e+00 -2.3000000e+01 
7.5000000e-01 3.0000000e+00 -2.2500000e+01 
7.5000000e-01 3.0000000e+00 -2.2000000e+01 
7.5000000e-01 3.0000000e+00 -2.1500000e+01 
7.5000000e-01 3.0000000e+00 -2.1000000e+01 
7.5000000e-01 3.0000000e+00 -2.0500000e+01 
7.5000000e-01 3.0000000e+00 -2.0000000e+01 
7.5000000e-01 3.0000000e+00 -1.9500000e+01 
7.5000000e-01 3.0000000e+00 -1.9000000e+01 
7.5000000e-01 3.0000000e+00 -1.8500000e+01 
7.5000000e-01 3.0000000e+00 -1.8000000e+01 
7.5000000e-01 3.0000000e+00 -1.7500000e+01 
7.5000000e-01 3.0000000e+00 -1.7000000e+01 
7.5000000e-01 3.0000000e+00 -1.6500000e+01 
7.5000000e-01 3.0000000e+00 -1.6000000e+01 
7.5000000e-01 3.0000000e+00 -1.5500000e+01 
7.5000000e-01 3.0000000e+00 -1.5000000e+01 
7.5000000e-01 3.0000000e+00 -1.4500000e+01 
7.5000000e-01 3.0000000e+00 -1.4000000e+01 
7.5000000e-01 3.0000000e+00 -1.3500000e+01 
7.5000000e-01 3.0000000e+00 -1.3000000e+01 
7.5000000e-01 3.0000000e+00 -1.2500000e+01 
7.5000000e-01 3.0000000e+00 -1.2000000e+01 
7.5000000e-01 3.0000000e+00 -1.1500000e+01 
7.5000000e-01 3.0000000e+00 -1.1000000e+01 
7.5000000e-01 3.0000000e+00 -1.0500000e+01 
7.5000000e-01 3.0000000e+00 -1.0000000e+01 
7.5000000e-01 3.0000000e+00 -9.5000000e+00 
7.5000000e-01 3.0000000e+00 -9.0000000e+00 
7.5000000e-01 3.0000000e+00 -8.5000000e+00 
7.5000000e-01 3.0000000e+00 -8.0000000e+00 
7.5000000e-01 3.0000000e+00 -7.5000000e+00 
7.5000000e-01 3.0000000e+00 -7.0000000e+00 
7.5000000e-01 3.0000000e+00 -6.5000000e+00 
7.5000000e-01 3.0000000e+00 -6.0000000e+00 
7.5000000e-01 3.0000000e+00 -5.5000000e+00 
7.5000000e-01 3.0000000e+00 -5.0000000e+00 
7.5000000e-01 3.0000000e+00 -4.5000000e+00 
7.5000000e-01 3.0000000e+00 -4.0000000e+00 
7.5000000e-01 3.0000000e+00 -3.5000000e+00 
7.5000000e-01 3.0000000e+00 -3.0000000e+00 
7.5000000e-01 3.0000000e+00 -2.5000000e+00 
7.5000000e-01 3.0000000e+00 -2.0000000e+00 
7.5000000e-01 3.0000000e+00 -1.5000000e+00 
7.5000000e-01 3.0000000e+00 -1.0000000e+00 
7.5000000e-01 3.0000000e+00 -5.0000000e-01 
7.5000000e-01 3.0000000e+00 5.0000000e-01 
7.5000000e-01 3.0000000e+00 1.0000000e+00 
7.5000000e-01 3.0000000e+00 1.5000000e+00 
7.5000000e-01 3.0000000e+00 2.0000000e+00 
7.5000000e-01 3.0000000e+00 2.5000000e+00 
7.5000000e-01 3.0000000e+00 3.0000000e+00 
7.5000000e-01 3.0000000e+00 3.5000000e+00 
7.5000000e-01 3.0000000e+00 4.0000000e+00 
7.5000000e-01 3.0000000e+00 4.5000000e+00 
7.5000000e-01 3.0000000e+00 5.0000000e+00 
7.5000000e-01 3.0000000e+00 5.5000000e+00 
7.5000000e-01 3.0000000e+00 6.0000000e+00 
7.5000000e-01 3.0000000e+00 6.5000000e+00 
7.5000000e-01 3.0000000e+00 7.0000000e+00 
7.5000000e-01 3.0000000e+00 7.5000000e+00 
7.5000000e-01 3.0000000e+00 8.0000000e+00 
7.5000000e-01 3.0000000e+00 8.5000000e+00 
7.5000000e-01 3.0000000e+00 9.0000000e+00 
7.5000000e-01 3.0000000e+00 9.5000000e+00 
7.5000000e-01 3.0000000e+00 1.0000000e+01 
7.5000000e-01 3.0000000e+00 1.0500000e+01 
7.5000000e-01 3.0000000e+00 1.1000000e+01 
7.5000000e-01 3.0000000e+00 1.1500000e+01 
7.5000000e-01 3.0000000e+00 1.2000000e+01 
7.5000000e-01 3.0000000e+00 1.2500000e+01 
7.5000000e-01 3.0000000e+00 1.3000000e+01 
7.5000000e-01 3.0000000e+00 1.3500000e+01 
7.5000000e-01 3.0000000e+00 1.4000000e+01 
7.5000000e-01 3.0000000e+00 1.4500000e+01 
7.5000000e-01 3.0000000e+00 1.5000000e+01 
7.5000000e-01 3.0000000e+00 1.5500000e+01 
7.5000000e-01 3.0000000e+00 1.6000000e+01 
7.5000000e-01 3.0000000e+00 1.6500000e+01 
7.5000000e-01 3.0000000e+00 1.7000000e+01 
7.5000000e-01 3.0000000e+00 1.7500000e+01 
7.5000000e-01 3.0000000e+00 1.8000000e+01 
7.5000000e-01 3.0000000e+00 1.8500000e+01 
7.5000000e-01 3.0000000e+00 1.9000000e+01 
7.5000000e-01 3.0000000e+00 1.9500000e+01 
7.5000000e-01 3.0000000e+00 2.0000000e+01 
7.5000000e-01 3.0000000e+00 2.0500000e+01 
7.5000000e-01 3.0000000e+00 2.1000000e+01 
7.5000000e-01 3.0000000e+00 2.1500000e+01 
7.5000000e-01 3.0000000e+00 2.2000000e+01 
7.5000000e-01 3.0000000e+00 2.2500000e+01 
7.5000000e-01 3.0000000e+00 2.3000000e+01 
7.5000000e-01 3.0000000e+00 2.3500000e+01 
7.5000000e-01 3.0000000e+00 2.4000000e+01 
7.5000000e-01 3.0000000e+00 2.4500000e+01 
7.5000000e-01 3.0000000e+00 2.5000000e+01 
7.5000000e-01 3.0000000e+00 2.5500000e+01 
7.5000000e-01 3.0000000e+00 2.6000000e+01 
7.5000000e-01 3.0000000e+00 2.6500000e+01 
7.5000000e-01 3.0000000e+00 2.7000000e+01 
7.5000000e-01 3.0000000e+00 2.7500000e+01 
7.5000000e-01 3.0000000e+00 2.8000000e+01 
7.5000000e-01 3.0000000e+00 2.8500000e+01 
7.5000000e-01 3.0000000e+00 2.9000000e+01 
7.5000000e-01 3.0000000e+00 2.9500000e+01 
7.5000000e-01 3.0000000e+00 3.0000000e+01 
7.5000000e-01 3.0000000e+00 3.0500000e+01 
7.5000000e-01 3.0000000e+00 3.1000000e+01 
7.5000000e-01 3.0000000e+00 3.1500000e+01 
7.5000000e-01 3.0000000e+00 3.2000000e+01 
7.5000000e-01 3.0000000e+00 3.2500000e+01 
7.5000000e-01 3.0000000e+00 3.3000000e+01 
7.5000000e-01 3.0000000e+00 3.3500000e+01 
7.5000000e-01 3.0000000e+00 3.4000000e+01 
7.5000000e-01 3.0000000e+00 3.4500000e+01 
7.5000000e-01 3.0000000e+00 3.5000000e+01 
7.5000000e-01 3.0000000e+00 3.5500000e+01 
7.5000000e-01 3.0000000e+00 3.6000000e+01 
7.5000000e-01 3.0000000e+00 3.6500000e+01 
7.5000000e-01 3.0000000e+00 3.7000000e+01 
7.5000000e-01 3.0000000e+00 3.7500000e+01 
7.5000000e-01 3.0000000e+00 3.8000000e+01 
7.5000000e-01 3.0000000e+00 3.8500000e+01 
7.5000000e-01 3.0000000e+00 3.9000000e+01 
7.5000000e-01 3.0000000e+00 3.9500000e+01 
7.5000000e-01 3.0000000e+00 4.0000000e+01 
7.5000000e-01 3.0000000e+00 4.0500000e+01 
7.5000000e-01 3.0000000e+00 4.1000000e+01 
7.5000000e-01 3.0000000e+00 4.1500000e+01 
7.5000000e-01 3.0000000e+00 4.2000000e+01 
7.5000000e-01 3.0000000e+00 4.2500000e+01 
7.5000000e-01 3.0000000e+00 4.3000000e+01 
7.5000000e-01 3.0000000e+00 4.3500000e+01 
7.5000000e-01 3.0000000e+00 4.4000000e+01 
7.5000000e-01 3.0000000e+00 4.4500000e+01 
7.5000000e-01 3.0000000e+00 4.5000000e+01 
7.5000000e-01 3.0000000e+00 4.5500000e+01 
7.5000000e-01 3.0000000e+00 4.6000000e+01 
7.5000000e-01 3.0000000e+00 4.6500000e+01 
7.5000000e-01 3.0000000e+00 4.7000000e+01 
7.5000000e-01 3.0000000e+00 4.7500000e+01 
7.5000000e-01 3.0000000e+00 4.8000000e+01 
7.5000000e-01 3.0000000e+00 4.8500000e+01 
7.5000000e-01 3.0000000e+00 4.9000000e+01 
7.5000000e-01 3.0000000e+00 4.9500000e+01 
7.5000000e-01 3.0000000e+00 5.0500000e+01 
7.5000000e-01 3.0000000e+00 5.1000000e+01 
7.5000000e-01 3.0000000e+00 5.1500000e+01 
7.5000000e-01 3.0000000e+00 5.2000000e+01 
7.5000000e-01 3.0000000e+00 5.2500000e+01 
7.5000000e-01 3.0000000e+00 5.3000000e+01 
7.5000000e-01 3.0000000e+00 5.3500000e+01 
7.5000000e-01 3.0000000e+00 5.4000000e+01 
7.5000000e-01 3.0000000e+00 5.4500000e+01 
7.5000000e-01 3.0000000e+00 5.5000000e+01 
7.5000000e-01 3.0000000e+00 5.5500000e+01 
7.5000000e-01 3.0000000e+00 5.6000000e+01 
7.5000000e-01 3.0000000e+00 5.6500000e+01 
7.5000000e-01 3.0000000e+00 5.7000000e+01 
7.5000000e-01 3.0000000e+00 5.7500000e+01 
7.5000000e-01 3.0000000e+00 5.8000000e+01 
7.5000000e-01 3.0000000e+00 5.8500000e+01 
7.5000000e-01 3.0000000e+00 5.9000000e+01 
7.5000000e-01 3.0000000e+00 5.9500000e+01 
7.5000000e-01 3.0000000e+00 6.0000000e+01 
7.5000000e-01 3.0000000e+00 6.0500000e+01 
7.5000000e-01 3.0000000e+00 6.1000000e+01 
7.5000000e-01 3.0000000e+00 6.1500000e+01 
7.5000000e-01 3.0000000e+00 6.2000000e+01 
7.5000000e-01 3.0000000e+00 6.2500000e+01 
7.5000000e-01 3.0000000e+00 6.3000000e+01 
7.5000000e-01 3.0000000e+00 6.3500000e+01 
7.5000000e-01 3.0000000e+00 6.4000000e+01 
7.5000000e-01 3.0000000e+00 6.4500000e+01 
7.5000000e-01 3.0000000e+00 6.5000000e+01 
7.5000000e-01 3.0000000e+00 6.5500000e+01 
7.5000000e-01 3.0000000e+00 6.6000000e+01 
7.5000000e-01 3.0000000e+00 6.6500000e+01 
7.5000000e-01 3.0000000e+00 6.7000000e+01 
7.5000000e-01 3.0000000e+00 6.7500000e+01 
7.5000000e-01 3.0000000e+00 6.8000000e+01 
7.5000000e-01 3.0000000e+00 6.8500000e+01 
7.5000000e-01 3.0000000e+00 6.9000000e+01 
7.5000000e-01 3.0000000e+00 6.9500000e+01 
7.5000000e-01 3.0250001e+00 -2.5000000e+01 
7.5000000e-01 3.0250001e+00 -2.4500000e+01 
7.5000000e-01 3.0250001e+00 -2.4000000e+01 
7.5000000e-01 3.0250001e+00 -2.3500000e+01 
7.5000000e-01 3.0250001e+00 -2.3000000e+01 
7.5000000e-01 3.0250001e+00 -2.2500000e+01 
7.5000000e-01 3.0250001e+00 -2.2000000e+01 
7.5000000e-01 3.0250001e+00 -2.1500000e+01 
7.5000000e-01 3.0250001e+00 -2.1000000e+01 
7.5000000e-01 3.0250001e+00 -2.0500000e+01 
7.5000000e-01 3.0250001e+00 -2.0000000e+01 
7.5000000e-01 3.0250001e+00 -1.9500000e+01 
7.5000000e-01 3.0250001e+00 -1.9000000e+01 
7.5000000e-01 3.0250001e+00 -1.8500000e+01 
7.5000000e-01 3.0250001e+00 -1.8000000e+01 
7.5000000e-01 3.0250001e+00 -1.7500000e+01 
7.5000000e-01 3.0250001e+00 -1.7000000e+01 
7.5000000e-01 3.0250001e+00 -1.6500000e+01 
7.5000000e-01 3.0250001e+00 -1.6000000e+01 
7.5000000e-01 3.0250001e+00 -1.5500000e+01 
[...]
POINT_DATA 2186
FIELD FieldData 3
DISPLACEMENT 3 2186  float
0.0000000e+00 0.0000000e+00 0.0000000e+00 
0.0000000e+00 0.0000000e+00 0.0000000e+00 
0.0000000e+00 0.0000000e+00 0.0000000e+00 
0.0000000e+00 0.0000000e+00 0.0000000e+00 
-3.2533600e-07 -5.5867605e-07 4.2502441e-07 
3.0264857e-07 -1.4271084e-06 2.1910596e-06 
0.0000000e+00 1.6066739e-06 0.0000000e+00 
0.0000000e+00 -2.3876937e-06 0.0000000e+00 
-1.3874566e-06 2.3278274e-07 -9.9028604e-08 
-7.5326216e-07 -1.5401288e-06 3.1158941e-06 
-7.2598777e-07 7.7917593e-07 -1.7287069e-06 
9.5332945e-07 -2.2749057e-06 2.6281280e-06 
0.0000000e+00 3.1128011e-06 0.0000000e+00 
0.0000000e+00 -2.5596903e-06 0.0000000e+00 
-5.9760823e-06 -1.0677229e-06 4.6639261e-06 
-2.4955866e-06 -1.0242478e-05 7.1344057e-06 
-6.4393134e-06 -1.2519184e-05 3.0089634e-06 
1.3962291e-06 -1.8299243e-05 7.6536571e-06 
0.0000000e+00 1.0421629e-05 0.0000000e+00 
0.0000000e+00 8.5844940e-06 0.0000000e+00 
0.0000000e+00 7.5529607e-07 0.0000000e+00 
0.0000000e+00 3.8125674e-07 0.0000000e+00 
0.0000000e+00 -3.0830680e-07 0.0000000e+00 
0.0000000e+00 -5.5798478e-07 0.0000000e+00 
0.0000000e+00 5.1068060e-08 0.0000000e+00 
0.0000000e+00 1.2429955e-06 0.0000000e+00 
0.0000000e+00 2.2180066e-06 0.0000000e+00 
0.0000000e+00 2.2339534e-06 0.0000000e+00 
0.0000000e+00 1.1470088e-06 0.0000000e+00 
0.0000000e+00 -5.0945755e-07 0.0000000e+00 
0.0000000e+00 -1.9568179e-06 0.0000000e+00 
0.0000000e+00 -2.7485885e-06 0.0000000e+00 
0.0000000e+00 -3.0119745e-06 0.0000000e+00 
0.0000000e+00 -3.1610725e-06 0.0000000e+00 
0.0000000e+00 -3.3506644e-06 0.0000000e+00 
0.0000000e+00 -3.1776108e-06 0.0000000e+00 
0.0000000e+00 -1.9335803e-06 0.0000000e+00 
0.0000000e+00 7.6215156e-07 0.0000000e+00 
0.0000000e+00 4.4559329e-06 0.0000000e+00 
0.0000000e+00 7.9022548e-06 0.0000000e+00 
0.0000000e+00 9.6662316e-06 0.0000000e+00 
0.0000000e+00 8.8903325e-06 0.0000000e+00 
0.0000000e+00 5.7218385e-06 0.0000000e+00 
0.0000000e+00 1.1479785e-06 0.0000000e+00 
0.0000000e+00 -3.5905173e-06 0.0000000e+00 
0.0000000e+00 -7.5548514e-06 0.0000000e+00 
0.0000000e+00 -1.0267008e-05 0.0000000e+00 
0.0000000e+00 -1.1486733e-05 0.0000000e+00 
0.0000000e+00 -1.0949262e-05 0.0000000e+00 
0.0000000e+00 -8.3937994e-06 0.0000000e+00 
0.0000000e+00 -3.9036699e-06 0.0000000e+00 
0.0000000e+00 1.7390165e-06 0.0000000e+00 
0.0000000e+00 7.0634960e-06 0.0000000e+00 
0.0000000e+00 1.0446796e-05 0.0000000e+00 
0.0000000e+00 1.0932227e-05 0.0000000e+00 
0.0000000e+00 8.7779617e-06 0.0000000e+00 
0.0000000e+00 5.2977198e-06 0.0000000e+00 
0.0000000e+00 2.0881178e-06 0.0000000e+00 
0.0000000e+00 2.1446454e-07 0.0000000e+00 
0.0000000e+00 -1.2044282e-07 0.0000000e+00 
0.0000000e+00 6.3377416e-07 0.0000000e+00 
0.0000000e+00 1.8131078e-06 0.0000000e+00 
0.0000000e+00 2.8741656e-06 0.0000000e+00 
0.0000000e+00 3.4701948e-06 0.0000000e+00 
0.0000000e+00 3.3140009e-06 0.0000000e+00 
0.0000000e+00 2.0670284e-06 0.0000000e+00 
0.0000000e+00 -4.9345113e-07 0.0000000e+00 
0.0000000e+00 -4.1138319e-06 0.0000000e+00 
0.0000000e+00 -7.9534484e-06 0.0000000e+00 
0.0000000e+00 -1.0975426e-05 0.0000000e+00 
-2.8713157e-06 -1.2404215e-05 -5.2362225e-06 
-2.0565176e-06 -1.1968727e-05 -6.6569810e-06 
-2.4629398e-06 -1.2546621e-05 -1.8796766e-06 
-4.1693515e-06 -1.4199508e-05 7.2363139e-07 
1.7425202e-06 -1.5360858e-05 -7.4400054e-07 
2.0523439e-06 -1.4533004e-05 1.3840092e-06 
3.3910028e-06 -1.1602143e-05 -2.2114898e-08 
3.1181501e-06 -8.0202417e-06 4.7497369e-06 
1.2888532e-06 -5.1733823e-06 9.4897905e-06 
1.4649439e-06 -2.7558074e-06 1.7987511e-05 
4.4278059e-07 1.3485915e-07 1.9440547e-05 
2.1445205e-06 4.7594067e-06 1.7534845e-05 
-1.3348618e-06 9.4525149e-06 1.8034718e-05 
-1.1353844e-07 1.0373430e-05 1.7486698e-05 
-1.9681979e-06 5.2329956e-06 1.8292329e-05 
-3.3279614e-06 -3.6497206e-06 1.8365366e-05 
-8.7593899e-06 -1.0254053e-05 1.7424636e-05 
-1.1341108e-05 -9.6148597e-06 7.2785760e-06 
-9.0350713e-06 -5.4724446e-06 -2.5683412e-06 
-7.2062403e-06 -8.5483061e-06 -1.0091828e-05 
-6.4966011e-06 -2.1026874e-05 -1.0756030e-05 
-1.1419364e-05 -3.2015618e-05 -1.2923487e-05 
-1.1261229e-05 -3.0565567e-05 -1.7972830e-05 
-6.0079660e-06 -1.3494002e-05 -1.6219965e-05 
-6.8940444e-06 6.8266986e-06 -1.5316775e-05 
-1.1280081e-05 1.4321135e-05 -2.3876195e-05 
-7.0975187e-07 6.7267529e-06 -2.0326854e-05 
-5.3347452e-07 -3.5121575e-06 -7.9079482e-06 
-3.4639761e-06 1.1540077e-05 3.6398037e-06 
-7.5116814e-06 6.5245833e-05 5.9201197e-06 
7.6150504e-06 1.2261604e-04 2.3563845e-05 
4.1880398e-06 1.1891286e-04 3.8507118e-05 
7.6215942e-06 2.1279597e-05 5.9995135e-05 
1.0552847e-06 -1.6179893e-04 1.4036117e-04 
-2.8207040e-05 -4.3488474e-04 1.7643589e-04 
-4.7319685e-05 -8.5447810e-04 1.5616252e-04 
-8.7899149e-05 -1.5540648e-03 2.7461303e-04 
-1.3493095e-04 -2.6304966e-03 1.4667197e-04 
-2.0710696e-04 -3.9556697e-03 2.2214180e-04 
-2.5564895e-04 -4.8744692e-03 6.6758046e-05 
-2.7449991e-04 -4.7251917e-03 2.2937291e-05 
-2.4939058e-04 -4.1903909e-03 -2.0763073e-06 
-2.2286613e-04 -4.0218206e-03 -9.5920823e-06 
-2.2382985e-04 -4.3105995e-03 -1.0590591e-04 
-2.3527951e-04 -4.4871289e-03 -1.5945734e-04 
-2.0592923e-04 -3.6385255e-03 -1.5868196e-04 
-1.2143399e-04 -2.3239297e-03 -2.7905294e-04 
-7.7026605e-05 -1.1250859e-03 -1.4761393e-04 
-1.3742348e-05 -3.1129454e-04 -1.5913074e-04 
-6.9928906e-06 1.0354278e-04 -8.5426385e-05 
7.8758430e-06 2.2757125e-04 -5.2632506e-05 
1.3285936e-05 2.0620819e-04 -3.2211119e-05 
8.6189530e-06 1.5008636e-04 -1.5041852e-05 
8.7597082e-06 9.5037030e-05 -1.7151002e-05 
4.5945962e-06 4.1845928e-05 -6.0830057e-06 
3.7932105e-06 -6.1499945e-06 -1.9143758e-06 
7.7834187e-07 -3.4930636e-05 7.6759497e-06 
-3.8727994e-06 -4.0249670e-05 8.5053125e-06 
-5.0665012e-06 -3.2072465e-05 9.2196187e-06 
-2.4145147e-06 -2.1593009e-05 6.3027273e-06 
-4.4536984e-07 -1.7571170e-05 6.3368748e-06 
-5.8440633e-06 -2.4316088e-05 5.0565109e-06 
-8.5022948e-06 -3.4261422e-05 5.2687092e-06 
-1.0979180e-05 -3.0974323e-05 1.0891576e-05 
-1.4673342e-05 -1.0093257e-05 1.0544170e-05 
-1.3732399e-05 1.9255176e-05 7.1482424e-07 
-5.2297514e-06 3.8976043e-05 2.2024690e-06 
-4.5817833e-06 2.9297491e-05 4.2083075e-06 
-6.1611381e-06 6.8956488e-06 4.3642663e-06 
-6.5260642e-06 1.9671401e-05 1.8325292e-05 
5.1340630e-06 8.1699603e-05 4.1696887e-05 
4.0338241e-06 1.4339961e-04 4.2990887e-05 
-6.3575053e-06 1.1415355e-04 8.2718972e-05 
-1.6697310e-05 -8.9110588e-05 1.0679027e-04 
-3.9159138e-05 -4.7674726e-04 1.9387266e-04 
-4.4314100e-05 -1.0214694e-03 1.8377067e-04 
-1.5683311e-04 -1.7706112e-03 3.0062406e-04 
-7.6320219e-05 -2.7877132e-03 1.8727522e-04 
-3.2450451e-04 -4.0022507e-03 2.5054463e-04 
-5.0881532e-05 -4.8386245e-03 1.2189186e-04 
-2.6603995e-04 -4.6658283e-03 4.5372697e-05 
-2.4461001e-04 -4.1815513e-03 3.5836925e-07 
-2.2265571e-04 -4.0560351e-03 -2.1517274e-06 
-2.2285788e-04 -4.3093269e-03 -1.1867104e-04 
-2.2501510e-04 -4.3698205e-03 -1.9522097e-04 
-1.9736472e-04 -3.3897010e-03 -1.6622440e-04 
-1.1411242e-04 -2.0382374e-03 -2.7639055e-04 
-7.8076468e-05 -9.0259401e-04 -1.4882808e-04 
-2.0347301e-05 -1.9724279e-04 -1.6728578e-04 
-2.9155694e-06 1.3290113e-04 -9.1502974e-05 
1.1902323e-05 2.3203857e-04 -6.0946953e-05 
1.2782511e-05 2.1902936e-04 -3.5965764e-05 
1.0822267e-05 1.5987498e-04 -1.2992524e-05 
1.0107664e-05 8.6000611e-05 -1.2106080e-05 
5.2348282e-06 2.3138397e-05 -2.6153282e-06 
4.5002016e-06 -1.1401024e-05 -2.6927098e-06 
2.5862737e-06 -1.9558403e-05 -6.7349004e-07 
2.9275138e-06 -1.7328159e-05 1.2142385e-06 
9.5629605e-07 -1.7265136e-05 4.7261910e-06 
0.0000000e+00 -1.3728866e-05 0.0000000e+00 
0.0000000e+00 -4.0466621e-06 0.0000000e+00 
0.0000000e+00 4.2849256e-06 0.0000000e+00 
0.0000000e+00 5.5464611e-06 0.0000000e+00 
0.0000000e+00 1.2439049e-06 0.0000000e+00 
0.0000000e+00 -2.1612616e-06 0.0000000e+00 
0.0000000e+00 -8.3662826e-07 0.0000000e+00 
0.0000000e+00 2.8185250e-06 0.0000000e+00 
0.0000000e+00 4.1130452e-06 0.0000000e+00 
0.0000000e+00 1.9193494e-06 0.0000000e+00 
0.0000000e+00 -6.5226379e-07 0.0000000e+00 
0.0000000e+00 -7.7799467e-07 0.0000000e+00 
0.0000000e+00 6.2352075e-07 0.0000000e+00 
0.0000000e+00 6.8723978e-07 0.0000000e+00 
0.0000000e+00 -1.2683412e-06 0.0000000e+00 
0.0000000e+00 -2.8927891e-06 0.0000000e+00 
0.0000000e+00 -2.0799494e-06 0.0000000e+00 
0.0000000e+00 2.2719559e-07 0.0000000e+00 
0.0000000e+00 1.3336120e-06 0.0000000e+00 
0.0000000e+00 2.6541588e-07 0.0000000e+00 
0.0000000e+00 -1.1429587e-06 0.0000000e+00 
0.0000000e+00 -7.4980687e-07 0.0000000e+00 
0.0000000e+00 1.1861662e-06 0.0000000e+00 
0.0000000e+00 2.4512835e-06 0.0000000e+00 
0.0000000e+00 1.6657714e-06 0.0000000e+00 
0.0000000e+00 -1.8179630e-07 0.0000000e+00 
0.0000000e+00 -1.1707665e-06 0.0000000e+00 
0.0000000e+00 -7.8153562e-07 0.0000000e+00 
0.0000000e+00 -1.9088432e-07 0.0000000e+00 
0.0000000e+00 -4.3878904e-07 0.0000000e+00 
0.0000000e+00 -1.0437792e-06 0.0000000e+00 
0.0000000e+00 -8.1014502e-07 0.0000000e+00 
0.0000000e+00 4.1587651e-07 0.0000000e+00 
0.0000000e+00 1.4397319e-06 0.0000000e+00 
0.0000000e+00 1.2191334e-06 0.0000000e+00 
0.0000000e+00 1.3687114e-07 0.0000000e+00 
0.0000000e+00 -5.8867494e-07 0.0000000e+00 
0.0000000e+00 -4.7125175e-07 0.0000000e+00 
0.0000000e+00 -2.1268313e-07 0.0000000e+00 
0.0000000e+00 7.3494584e-07 0.0000000e+00 
0.0000000e+00 3.7131150e-07 0.0000000e+00 
0.0000000e+00 -2.9705060e-07 0.0000000e+00 
0.0000000e+00 -5.3285504e-07 0.0000000e+00 
0.0000000e+00 7.1296633e-08 0.0000000e+00 
0.0000000e+00 1.2433876e-06 0.0000000e+00 
0.0000000e+00 2.1995349e-06 0.0000000e+00 
0.0000000e+00 2.2125917e-06 0.0000000e+00 
0.0000000e+00 1.1404892e-06 0.0000000e+00 
0.0000000e+00 -4.9642341e-07 0.0000000e+00 
0.0000000e+00 -1.9366450e-06 0.0000000e+00 
0.0000000e+00 -2.7405870e-06 0.0000000e+00 
0.0000000e+00 -3.0258955e-06 0.0000000e+00 
0.0000000e+00 -3.1881693e-06 0.0000000e+00 
0.0000000e+00 -3.3702604e-06 0.0000000e+00 
0.0000000e+00 -3.1739767e-06 0.0000000e+00 
0.0000000e+00 -1.9087054e-06 0.0000000e+00 
0.0000000e+00 7.9061499e-07 0.0000000e+00 
0.0000000e+00 4.4690596e-06 0.0000000e+00 
0.0000000e+00 7.8940948e-06 0.0000000e+00 
0.0000000e+00 9.6470294e-06 0.0000000e+00 
0.0000000e+00 8.8774023e-06 0.0000000e+00 
0.0000000e+00 5.7256443e-06 0.0000000e+00 
0.0000000e+00 1.1639519e-06 0.0000000e+00 
0.0000000e+00 -3.5778419e-06 0.0000000e+00 
0.0000000e+00 -7.5583212e-06 0.0000000e+00 
0.0000000e+00 -1.0285510e-05 0.0000000e+00 
0.0000000e+00 -1.1506278e-05 0.0000000e+00 
0.0000000e+00 -1.0955215e-05 0.0000000e+00 
0.0000000e+00 -8.3830846e-06 0.0000000e+00 
0.0000000e+00 -3.8872436e-06 0.0000000e+00 
0.0000000e+00 1.7444067e-06 0.0000000e+00 
0.0000000e+00 7.0484643e-06 0.0000000e+00 
0.0000000e+00 1.0418565e-05 0.0000000e+00 
0.0000000e+00 1.0911470e-05 0.0000000e+00 
0.0000000e+00 8.7827311e-06 0.0000000e+00 
0.0000000e+00 5.3275999e-06 0.0000000e+00 
0.0000000e+00 2.1247890e-06 0.0000000e+00 
0.0000000e+00 2.3835176e-07 0.0000000e+00 
0.0000000e+00 -1.1520859e-07 0.0000000e+00 
0.0000000e+00 6.2826166e-07 0.0000000e+00 
0.0000000e+00 1.8087341e-06 0.0000000e+00 
0.0000000e+00 2.8780876e-06 0.0000000e+00 
0.0000000e+00 3.4804061e-06 0.0000000e+00 
0.0000000e+00 3.3200895e-06 0.0000000e+00 
0.0000000e+00 2.0596660e-06 0.0000000e+00 
0.0000000e+00 -5.1006492e-07 0.0000000e+00 
0.0000000e+00 -4.1238641e-06 0.0000000e+00 
0.0000000e+00 -7.9493520e-06 0.0000000e+00 
0.0000000e+00 -1.0972622e-05 0.0000000e+00 
0.0000000e+00 -1.2484078e-05 0.0000000e+00 
0.0000000e+00 -1.2421592e-05 0.0000000e+00 
0.0000000e+00 -1.2025476e-05 0.0000000e+00 
0.0000000e+00 -1.2611929e-05 0.0000000e+00 
0.0000000e+00 -1.4195755e-05 0.0000000e+00 
0.0000000e+00 -1.5315602e-05 0.0000000e+00 
0.0000000e+00 -1.4477836e-05 0.0000000e+00 
0.0000000e+00 -1.1592947e-05 0.0000000e+00 
0.0000000e+00 -8.0831396e-06 0.0000000e+00 
0.0000000e+00 -5.2316964e-06 0.0000000e+00 
0.0000000e+00 -2.8083318e-06 0.0000000e+00 
0.0000000e+00 2.5712379e-07 0.0000000e+00 
0.0000000e+00 4.8749334e-06 0.0000000e+00 
0.0000000e+00 9.4360985e-06 0.0000000e+00 
0.0000000e+00 1.0231209e-05 0.0000000e+00 
0.0000000e+00 5.0559147e-06 0.0000000e+00 
0.0000000e+00 -3.7010279e-06 0.0000000e+00 
0.0000000e+00 -9.9680155e-06 0.0000000e+00 
0.0000000e+00 -9.2764412e-06 0.0000000e+00 
0.0000000e+00 -5.6544682e-06 0.0000000e+00 
0.0000000e+00 -9.0049807e-06 0.0000000e+00 
0.0000000e+00 -2.1203414e-05 0.0000000e+00 
0.0000000e+00 -3.1947802e-05 0.0000000e+00 
0.0000000e+00 -2.9991153e-05 0.0000000e+00 
0.0000000e+00 -1.3174430e-05 0.0000000e+00 
0.0000000e+00 6.5638146e-06 0.0000000e+00 
0.0000000e+00 1.3888088e-05 0.0000000e+00 
0.0000000e+00 5.8462692e-06 0.0000000e+00 
0.0000000e+00 -3.4996137e-06 0.0000000e+00 
0.0000000e+00 1.3289865e-05 0.0000000e+00 
0.0000000e+00 6.6910201e-05 0.0000000e+00 
0.0000000e+00 1.2206705e-04 0.0000000e+00 
0.0000000e+00 1.1737151e-04 0.0000000e+00 
0.0000000e+00 2.0941563e-05 0.0000000e+00 
0.0000000e+00 -1.6053389e-04 0.0000000e+00 
0.0000000e+00 -4.3198955e-04 0.0000000e+00 
0.0000000e+00 -8.5488975e-04 0.0000000e+00 
0.0000000e+00 -1.5606154e-03 0.0000000e+00 
0.0000000e+00 -2.6491387e-03 0.0000000e+00 
0.0000000e+00 -3.9756205e-03 0.0000000e+00 
0.0000000e+00 -4.9022916e-03 0.0000000e+00 
0.0000000e+00 -4.7448999e-03 0.0000000e+00 
0.0000000e+00 -4.2142109e-03 0.0000000e+00 
0.0000000e+00 -4.0447521e-03 0.0000000e+00 
0.0000000e+00 -4.3427795e-03 0.0000000e+00 
0.0000000e+00 -4.5106872e-03 0.0000000e+00 
0.0000000e+00 -3.6612961e-03 0.0000000e+00 
0.0000000e+00 -2.3363864e-03 0.0000000e+00 
0.0000000e+00 -1.1344501e-03 0.0000000e+00 
0.0000000e+00 -3.1507376e-04 0.0000000e+00 
0.0000000e+00 1.0330608e-04 0.0000000e+00 
0.0000000e+00 2.2930841e-04 0.0000000e+00 
0.0000000e+00 2.0874753e-04 0.0000000e+00 
0.0000000e+00 1.5103392e-04 0.0000000e+00 
0.0000000e+00 9.4948606e-05 0.0000000e+00 
0.0000000e+00 4.1678264e-05 0.0000000e+00 
0.0000000e+00 -5.7026609e-06 0.0000000e+00 
0.0000000e+00 -3.4652112e-05 0.0000000e+00 
0.0000000e+00 -4.0512547e-05 0.0000000e+00 
0.0000000e+00 -3.2087813e-05 0.0000000e+00 
0.0000000e+00 -2.1416823e-05 0.0000000e+00 
0.0000000e+00 -1.7882701e-05 0.0000000e+00 
0.0000000e+00 -2.4883977e-05 0.0000000e+00 
0.0000000e+00 -3.4159344e-05 0.0000000e+00 
0.0000000e+00 -3.0611351e-05 0.0000000e+00 
0.0000000e+00 -9.5158775e-06 0.0000000e+00 
0.0000000e+00 1.9728343e-05 0.0000000e+00 
0.0000000e+00 3.7786194e-05 0.0000000e+00 
0.0000000e+00 2.7873912e-05 0.0000000e+00 
0.0000000e+00 7.4438453e-06 0.0000000e+00 
0.0000000e+00 2.1581043e-05 0.0000000e+00 
0.0000000e+00 8.3931227e-05 0.0000000e+00 
0.0000000e+00 1.4439787e-04 0.0000000e+00 
0.0000000e+00 1.1155084e-04 0.0000000e+00 
0.0000000e+00 -9.1587972e-05 0.0000000e+00 
0.0000000e+00 -4.7465917e-04 0.0000000e+00 
0.0000000e+00 -1.0205605e-03 0.0000000e+00 
0.0000000e+00 -1.7742463e-03 0.0000000e+00 
0.0000000e+00 -2.8055406e-03 0.0000000e+00 
0.0000000e+00 -4.0246728e-03 0.0000000e+00 
0.0000000e+00 -4.8702196e-03 0.0000000e+00 
0.0000000e+00 -4.6870261e-03 0.0000000e+00 
0.0000000e+00 -4.2047091e-03 0.0000000e+00 
0.0000000e+00 -4.0759281e-03 0.0000000e+00 
0.0000000e+00 -4.3393229e-03 0.0000000e+00 
0.0000000e+00 -4.3943664e-03 0.0000000e+00 
0.0000000e+00 -3.4135827e-03 0.0000000e+00 
0.0000000e+00 -2.0516755e-03 0.0000000e+00 
0.0000000e+00 -9.1150258e-04 0.0000000e+00 
0.0000000e+00 -1.9937036e-04 0.0000000e+00 
0.0000000e+00 1.3454286e-04 0.0000000e+00 
0.0000000e+00 2.3391288e-04 0.0000000e+00 
0.0000000e+00 2.1998177e-04 0.0000000e+00 
0.0000000e+00 1.6008690e-04 0.0000000e+00 
0.0000000e+00 8.6583015e-05 0.0000000e+00 
0.0000000e+00 2.3906869e-05 0.0000000e+00 
0.0000000e+00 -1.1107059e-05 0.0000000e+00 
0.0000000e+00 -1.9874213e-05 0.0000000e+00 
0.0000000e+00 -1.7782464e-05 0.0000000e+00 
0.0000000e+00 -1.7306575e-05 0.0000000e+00 
0.0000000e+00 -1.7990142e-05 0.0000000e+00 
0.0000000e+00 -1.3618530e-05 0.0000000e+00 
0.0000000e+00 -4.1755347e-06 0.0000000e+00 
0.0000000e+00 4.0441937e-06 0.0000000e+00 
0.0000000e+00 5.4713828e-06 0.0000000e+00 
0.0000000e+00 1.4005122e-06 0.0000000e+00 
0.0000000e+00 -1.9783979e-06 0.0000000e+00 
0.0000000e+00 -8.3488067e-07 0.0000000e+00 
0.0000000e+00 2.6702473e-06 0.0000000e+00 
0.0000000e+00 4.0171362e-06 0.0000000e+00 
0.0000000e+00 1.9865745e-06 0.0000000e+00 
0.0000000e+00 -5.2688512e-07 0.0000000e+00 
0.0000000e+00 -7.6072985e-07 0.0000000e+00 
0.0000000e+00 5.2172823e-07 0.0000000e+00 
0.0000000e+00 6.1008450e-07 0.0000000e+00 
0.0000000e+00 -1.2212589e-06 0.0000000e+00 
0.0000000e+00 -2.7910016e-06 0.0000000e+00 
0.0000000e+00 -2.0597231e-06 0.0000000e+00 
0.0000000e+00 1.4226586e-07 0.0000000e+00 
0.0000000e+00 1.2550136e-06 0.0000000e+00 
0.0000000e+00 2.9050582e-07 0.0000000e+00 
0.0000000e+00 -1.0510672e-06 0.0000000e+00 
0.0000000e+00 -7.0709461e-07 0.0000000e+00 
0.0000000e+00 1.1324705e-06 0.0000000e+00 
0.0000000e+00 2.3745952e-06 0.0000000e+00 
0.0000000e+00 1.6607509e-06 0.0000000e+00 
0.0000000e+00 -1.1634648e-07 0.0000000e+00 
0.0000000e+00 -1.1222554e-06 0.0000000e+00 
0.0000000e+00 -8.0872269e-07 0.0000000e+00 
0.0000000e+00 -2.5300940e-07 0.0000000e+00 
0.0000000e+00 -4.5360412e-07 0.0000000e+00 
0.0000000e+00 -9.9398221e-07 0.0000000e+00 
0.0000000e+00 -7.6185262e-07 0.0000000e+00 
0.0000000e+00 4.0116120e-07 0.0000000e+00 
0.0000000e+00 1.3829057e-06 0.0000000e+00 
0.0000000e+00 1.1929312e-06 0.0000000e+00 
0.0000000e+00 1.7102199e-07 0.0000000e+00 
0.0000000e+00 -5.4248301e-07 0.0000000e+00 
0.0000000e+00 -4.7161853e-07 0.0000000e+00 
0.0000000e+00 -2.4699406e-07 0.0000000e+00 
0.0000000e+00 0.0000000e+00 0.0000000e+00 
0.0000000e+00 0.0000000e+00 0.0000000e+00 
0.0000000e+00 0.0000000e+00 0.0000000e+00 
0.0000000e+00 0.0000000e+00 0.0000000e+00 
0.0000000e+00 0.0000000e+00 0.0000000e+00 
0.0000000e+00 0.0000000e+00 0.0000000e+00 
0.0000000e+00 0.0000000e+00 0.0000000e+00 
0.0000000e+00 0.0000000e+00 0.0000000e+00 
0.0000000e+00 0.0000000e+00 0.0000000e+00 
0.0000000e+00 0.0000000e+00 0.0000000e+00 
0.0000000e+00 0.0000000e+00 0.0000000e+00 
0.0000000e+00 0.0000000e+00 0.0000000e+00 
0.0000000e+00 0.0000000e+00 0.0000000e+00 
0.0000000e+00 0.0000000e+00 0.0000000e+00 
0.0000000e+00 0.0000000e+00 0.0000000e+00 
0.0000000e+00 0.0000000e+00 0.0000000e+00 
0.0000000e+00 0.0000000e+00 0.0000000e+00 
0.0000000e+00 0.0000000e+00 0.0000000e+00 
0.0000000e+00 0.0000000e+00 0.0000000e+00 
0.0000000e+00 0.0000000e+00 0.0000000e+00 
0.0000000e+00 0.0000000e+00 0.0000000e+00 
0.0000000e+00 0.0000000e+00 0.0000000e+00 
0.0000000e+00 0.0000000e+00 0.0000000e+00 
0.0000000e+00 0.0000000e+00 0.0000000e+00 
0.0000000e+00 0.0000000e+00 0.0000000e+00 
0.0000000e+00 0.0000000e+00 0.0000000e+00 
0.0000000e+00 0.0000000e+00 0.0000000e+00 
0.0000000e+00 0.0000000e+00 0.0000000e+00 
0.0000000e+00 0.0000000e+00 0.0000000e+00 
0.0000000e+00 0.0000000e+00 0.0000000e+00 
0.0000000e+00 0.0000000e+00 0.0000000e+00 
0.0000000e+00 0.0000000e+00 0.0000000e+00 
0.0000000e+00 0.0000000e+00 0.0000000e+00 
0.0000000e+00 0.0000000e+00 0.0000000e+00 
0.0000000e+00 0.0000000e+00 0.0000000e+00 
0.0000000e+00 0.0000000e+00 0.0000000e+00 
0.0000000e+00 0.0000000e+00 0.0000000e+00 
0.0000000e+00 0.0000000e+00 0.0000000e+00 
0.0000000e+00 0.0000000e+00 0.0000000e+00 
0.0000000e+00 0.0000000e+00 0.0000000e+00 
0.0000000e+00 0.0000000e+00 0.0000000e+00 
0.0000000e+00 0.0000000e+00 0.0000000e+00 
0.0000000e+00 0.0000000e+00 0.0000000e+00 
0.0000000e+00 0.0000000e+00 0.0000000e+00 
0.0000000e+00 0.0000000e+00 0.0000000e+00 
0.0000000e+00 0.0000000e+00 0.0000000e+00 
0.0000000e+00 0.0000000e+00 0.0000000e+00 
0.0000000e+00 0.0000000e+00 0.0000000e+00 
0.0000000e+00 0.0000000e+00 0.0000000e+00 
0.0000000e+00 0.0000000e+00 0.0000000e+00 
0.0000000e+00 0.0000000e+00 0.0000000e+00 
0.0000000e+00 0.0000000e+00 0.0000000e+00 
0.0000000e+00 0.0000000e+00 0.0000000e+00 
0.0000000e+00 0.0000000e+00 0.0000000e+00 
0.0000000e+00 0.0000000e+00 0.0000000e+00 
0.0000000e+00 0.0000000e+00 0.0000000e+00 
0.0000000e+00 0.0000000e+00 0.0000000e+00 