# vtk DataFile Version 4.0
vtk output
ASCII
DATASET UNSTRUCTURED_GRID
POINTS 2186 float
0.0000000e+00 0.0000000e+00 0.0000000e+00 
0.0000000e+00 0.0000000e+00 5.0000000e+01 
5.0000000e+00 0.0000000e+00 0.0000000e+00 
5.0000000e+00 0.0000000e+00 5.0000000e+01 
5.0000000e+00 1.0000000e+00 0.0000000e+00 
5.0000000e+00 1.0000000e+00 5.0000000e+01 
0.0000000e+00 1.0000000e+00 0.0000000e+00 
0.0000000e+00 1.0000000e+00 5.0000000e+01 
5.0000000e+00 2.0000000e+00 0.0000000e+00 
5.0000000e+00 2.0000000e+00 5.0000000e+01 
3.0000000e+00 2.0000000e+00 0.0000000e+00 
3.0000000e+00 2.0000000e+00 5.0000000e+01 
0.0000000e+00 2.0000000e+00 0.0000000e+00 
0.0000000e+00 2.0000000e+00 5.0000000e+01 
1.5000000e+00 3.0000000e+00 0.0000000e+00 
1.5000000e+00 3.0000000e+00 5.0000000e+01 
7.5000000e-01 3.0000000e+00 0.0000000e+00 
7.5000000e-01 3.0000000e+00 5.0000000e+01 
0.0000000e+00 3.0000000e+00 0.0000000e+00 
0.0000000e+00 3.0000000e+00 5.0000000e+01 
7.5000000e-01 3.0000000e+00 -2.5000000e+01 
7.5000000e-01 3.0000000e+00 -2.4500000e+01 
7.5000000e-01 3.0000000e+00 -2.4000000e+01 
7.5000000e-01 3.0000000e+00 -2.3500000e+01 
7.5000000e-01 3.0000000e+00 -2.3000000e+01 
7.5000000e-01 3.0000000e+00 -2.2500000e+01 
7.5000000e-01 3.0000000e+00 -2.2000000e+01 
7.5000000e-01 3.0000000e+00 -2.1500000e+01 
7.5000000e-01 3.0000000e+00 -2.1000000e+01 
7.5000000e-01 3.0000000e+00 -2.0500000e+01 
7.5000000e-01 3.0000000e+00 -2.0000000e+01 
7.5000000e-01 3.0000000e+00 -1.9500000e+01 
7.5000000e-01 3.0000000e+00 -1.9000000e+01 
7.5000000e-01 3.0000000e+00 -1.8500000e+01 
7.5000000e-01 3.0000000e+00 -1.8000000e+01 
7.5000000e-01 3.0000000e+00 -1.7500000e+01 
7.5000000e-01 3.0000000e+00 -1.7000000e+01 
7.5000000e-01 3.0000000e+00 -1.6500000e+01 
7.5000000e-01 3.0000000e+00 -1.6000000e+01 
7.5000000e-01 3.0000000e+00 -1.5500000e+01 
7.5000000e-01 3.0000000e+00 -1.5000000e+01 
7.5000000e-01 3.0000000e+00 -1.4500000e+01 
7.5000000e-01 3.0000000e+00 -1.4000000e+01 
7.5000000e-01 3.0000000e+00 -1.3500000e+01 
7.5000000e-01 3.0000000e+00 -1.3000000e+01 
7.5000000e-01 3.0000000e+00 -1.2500000e+01 
7.5000000e-01 3.0000000e+00 -1.2000000e+01 
7.5000000e-01 3.0000000e+00 -1.1500000e+01 
7.5000000e-01 3.0000000e+00 -1.1000000e+01 
7.5000000e-01 3.0000000e+00 -1.0500000e+01 
7.5000000e-01 3.0000000e+00 -1.0000000e+01 
7.5000000e-01 3.0000000e+00 -9.5000000e+00 
7.5000000e-01 3.0000000e+00 -9.0000000e+00 
7.5000000e-01 3.0000000e+00 -8.5000000e+00 
7.5000000e-01 3.0000000e+00 -8.0000000e+00 
7.5000000e-01 3.0000000e+00 -7.5000000e+00 
7.5000000e-01 3.0000000e+00 -7.0000000e+00 
7.5000000e-01 3.0000000e+00 -6.5000000e+00 
7.5000000e-01 3.0000000e+00 -6.0000000e+00 
7.5000000e-01 3.0000000e+00 -5.5000000e+00 
7.5000000e-01 3.0000000e+00 -5.0000000e+00 
7.5000000e-01 3.0000000e+00 -4.5000000e+00 
7.5000000e-01 3.0000000e+00 -4.0000000e+00 
7.5000000e-01 3.0000000e+00 -3.5000000e+00 
7.5000000e-01 3.0000000e+00 -3.0000000e+00 
7.5000000e-01 3.0000000e+00 -2.5000000e+00 
7.5000000e-01 3.0000000e+00 -2.0000000e+00 
7.5000000e-01 3.0000000e+00 -1.5000000e+00 
7.5000000e-01 3.0000000e+00 -1.0000000e+00 
7.5000000e-01 3.0000000e+00 -5.0000000e-01 
7.5000000e-01 3.0000000e+00 5.0000000e-01 
7.5000000e-01 3.0000000e+00 1.0000000e+00 
7.5000000e-01 3.0000000e+00 1.5000000e+00 
7.5000000e-01 3.0000000e+00 2.0000000e+00 
7.5000000e-01 3.0000000e+00 2.5000000e+00 
7.5000000e-01 3.0000000e+00 3.0000000e+00 
7.5000000e-01 3.0000000e+00 3.5000000e+00 
7.5000000e-01 3.0000000e+00 4.0000000e+00 
7.5000000e-01 3.0000000e+00 4.5000000e+00 
7.5000000e-01 3.0000000e+00 5.0000000e+00 
7.5000000e-01 3.0000000e+00 5.5000000e+00 
7.5000000e-01 3.0000000e+00 6.0000000e+00 
7.5000000e-01 3.0000000e+00 6.5000000e+00 
7.5000000e-01 3.0000000e+00 7.0000000e+00 
7.5000000e-01 3.0000000e+00 7.5000000e+00 
7.5000000e-01 3.0000000e+00 8.0000000e+00 
7.5000000e-01 3.0000000e+00 8.5000000e+00 
7.5000000e-01 3.0000000e+00 9.0000000e+00 
7.5000000e-01 3.0000000e+00 9.5000000e+00 
7.5000000e-01 3.0000000e+00 1.0000000e+01 
7.5000000e-01 3.0000000e+00 1.0500000e+01 
7.5000000e-01 3.0000000e+00 1.1000000e+01 
7.5000000e-01 3.0000000e+00 1.1500000e+01 
7.5000000e-01 3.0000000e+00 1.2000000e+01 
7.5000000e-01 3.0000000e+00 1.2500000e+01 
7.5000000e-01 3.0000000e+00 1.3000000e+01 
7.5000000e-01 3.0000000e+00 1.3500000e+01 
7.5000000e-01 3.0000000e+00 1.4000000e+01 
7.5000000e-01 3.0000000e+00 1.4500000e+01 
7.5000000e-01 3.0000000e+00 1.5000000e+01 
7.5000000e-01 3.0000000e+00 1.5500000e+01 
7.5000000e-01 3.0000000e+00 1.6000000e+01 
7.5000000e-01 3.0000000e+00 1.6500000e+01 
7.5000000e-01 3.0000000e+00 1.7000000e+01 
7.5000000e-01 3.0000000e+00 1.7500000e+01 
7.5000000e-01 3.0000000e+00 1.8000000e+01 
7.5000000e-01 3.0000000e+00 1.8500000e+01 
7.5000000e-01 3.0000000e+00 1.9000000e+01 
7.5000000e-01 3.0000000e+00 1.9500000e+01 
7.5000000e-01 3.0000000e+00 2.0000000e+01 
7.5000000e-01 3.0000000e+00 2.0500000e+01 
7.5000000e-01 3.0000000e+00 2.1000000e+01 
7.5000000e-01 3.0000000e+00 2.1500000e+01 
7.5000000e-01 3.0000000e+00 2.2000000e+01 
7.5000000e-01 3.0000000e+00 2.2500000e+01 
7.5000000e-01 3.0000000e+00 2.3000000e+01 
7.5000000e-01 3.0000000e+00 2.3500000e+01 
7.5000000e-01 3.0000000e+00 2.4000000e+01 
7.5000000e-01 3.0000000e+00 2.4500000e+01 
7.5000000e-01 3.0000000e+00 2.5000000e+01 
7.5000000e-01 3.0000000e+00 2.5500000e+01 
7.5000000e-01 3.0000000e+00 2.6000000e+01 
7.5000000e-01 3.0000000e+00 2.6500000e+01 
7.5000000e-01 3.0000000e+00 2.7000000e+01 
7.5000000e-01 3.0000000e+00 2.7500000e+01 
7.5000000e-01 3.0000000e+00 2.8000000e+01 
7.5000000e-01 3.0000000e+00 2.8500000e+01 
7.5000000e-01 3.0000000e+00 2.9000000e+01 
7.5000000e-01 3.0000000e+00 2.9500000e+01 
7.5000000e-01 3.0000000e+00 3.0000000e+01 
7.5000000e-01 3.0000000e+00 3.0500000e+01 
7.5000000e-01 3.0000000e+00 3.1000000e+01 
7.5000000e-01 3.0000000e+00 3.1500000e+01 
7.5000000e-01 3.0000000e+00 3.2000000e+01 
7.5000000e-01 3.0000000e+00 3.2500000e+01 
7.5000000e-01 3.0000000e+00 3.3000000e+01 
7.5000000e-01 3.0000000e+00 3.3500000e+01 
7.5000000e-01 3.0000000e+00 3.4000000e+01 
7.5000000e-01 3.0000000e+00 3.4500000e+01 
7.5000000e-01 3.0000000e+00 3.5000000e+01 
7.5000000e-01 3.0000000e+00 3.5500000e+01 
7.5000000e-01 3.0000000e+00 3.6000000e+01 
7.5000000e-01 3.0000000e+00 3.6500000e+01 
7.5000000e-01 3.0000000e+00 3.7000000e+01 
7.5000000e-01 3.0000000e+00 3.7500000e+01 
7.5000000e-01 3.0000000e+00 3.8000000e+01 
7.5000000e-01 3.0000000e+00 3.8500000e+01 
7.5000000e-01 3.0000000e+00 3.9000000e+01 
7.5000000e-01 3.0000000e+00 3.9500000e+01 
7.5000000e-01 3.0000000e+00 4.0000000e+01 
7.5000000e-01 3.0000000e+00 4.0500000e+01 
7.5000000e-01 3.0000000e+00 4.1000000e+01 
7.5000000e-01 3.0000000e+00 4.1500000e+01 
7.5000000e-01 3.0000000e+00 4.2000000e+01 
7.5000000e-01 3.0000000e+00 4.2500000e+01 
7.5000000e-01 3.0000000e+00 4.3000000e+01 
7.5000000e-01 3.0000000e+00 4.3500000e+01 
7.5000000e-01 3.0000000e+00 4.4000000e+01 
7.5000000e-01 3.0000000e+00 4.4500000e+01 
7.5000000e-01 3.0000000e+00 4.5000000e+01 
7.5000000e-01 3.0000000e+00 4.5500000e+01 
7.5000000e-01 3.0000000e+00 4.6000000e+01 
7.5000000e-01 3.0000000e+00 4.6500000e+01 
7.5000000e-01 3.0000000e+00 4.7000000e+01 
7.5000000e-01 3.0000000e+00 4.7500000e+01 
7.5000000e-01 3.0000000e+00 4.8000000e+01 
7.5000000e-01 3.0000000e+00 4.8500000e+01 
7.5000000e-01 3.0000000e+00 4.9000000e+01 
7.5000000e-01 3.0000000e+00 4.9500000e+01 
7.5000000e-01 3.0000000e+00 5.0500000e+01 
7.5000000e-01 3.0000000e+00 5.1000000e+01 
7.5000000e-01 3.0000000e+00 5.1500000e+01 
7.5000000e-01 3.0000000e+00 5.2000000e+01 
7.5000000e-01 3.0000000e+00 5.2500000e+01 
7.5000000e-01 3.0000000e+00 5.3000000e+01 
7.5000000e-01 3.0000000e+00 5.3500000e+01 
7.5000000e-01 3.0000000e+00 5.4000000e+01 
7.5000000e-01 3.0000000e+00 5.4500000e+01 
7.5000000e-01 3.0000000e+00 5.5000000e+01 
7.5000000e-01 3.0000000e+00 5.5500000e+01 
7.5000000e-01 3.0000000e+00 5.6000000e+01 
7.5000000e-01 3.0000000e+00 5.6500000e+01 
7.5000000e-01 3.0000000e+00 5.7000000e+01 
7.5000000e-01 3.0000000e+00 5.7500000e+01 
7.5000000e-01 3.0000000e+00 5.8000000e+01 
7.5000000e-01 3.0000000e+00 5.8500000e+01 
7.5000000e-01 3.0000000e+00 5.9000000e+01 
7.5000000e-01 3.0000000e+00 5.9500000e+01 
7.5000000e-01 3.0000000e+00 6.0000000e+01 
7.5000000e-01 3.0000000e+00 6.0500000e+01 
7.5000000e-01 3.0000000e+00 6.1000000e+01 
7.5000000e-01 3.0000000e+00 6.1500000e+01 
7.5000000e-01 3.0000000e+00 6.2000000e+01 
7.5000000e-01 3.0000000e+00 6.2500000e+01 
7.5000000e-01 3.0000000e+00 6.3000000e+01 
7.5000000e-01 3.0000000e+00 6.3500000e+01 
7.5000000e-01 3.0000000e+00 6.4000000e+01 
7.5000000e-01 3.0000000e+00 6.4500000e+01 
7.5000000e-01 3.0000000e+00 6.5000000e+01 
7.5000000e-01 3.0000000e+00 6.5500000e+01 
7.5000000e-01 3.0000000e+00 6.6000000e+01 
7.5000000e-01 3.0000000e+00 6.6500000e+01 
7.5000000e-01 3.0000000e+00 6.7000000e+01 
7.5000000e-01 3.0000000e+00 6.7500000e+01 
7.5000000e-01 3.0000000e+00 6.8000000e+01 
7.5000000e-01 3.0000000e+00 6.8500000e+01 
7.5000000e-01 3.0000000e+00 6.9000000e+01 
7.5000000e-01 3.0000000e+00 6.9500000e+01 
7.5000000e-01 3.0250001e+00 -2.5000000e+01 
7.5000000e-01 3.0250001e+00 -2.4500000e+01 
7.5000000e-01 3.0250001e+00 -2.4000000e+01 
7.5000000e-01 3.0250001e+00 -2.3500000e+01 
7.5000000e-01 3.0250001e+00 -2.3000000e+01 
7.5000000e-01 3.0250001e+00 -2.2500000e+01 
7.5000000e-01 3.0250001e+00 -2.2000000e+01 
7.5000000e-01 3.0250001e+00 -2.1500000e+01 
7.5000000e-01 3.0250001e+00 -2.1000000e+01 
7.5000000e-01 3.0250001e+00 -2.0500000e+01 
7.5000000e-01 3.0250001e+00 -2.0000000e+01 
7.5000000e-01 3.0250001e+00 -1.9500000e+01 
7.5000000e-01 3.0250001e+00 -1.9000000e+01 
7.5000000e-01 3.0250001e+00 -1.8500000e+01 
7.5000000e-01 3.0250001e+00 -1.8000000e+01 
7.5000000e-01 3.0250001e+00 -1.7500000e+01 
7.5000000e-01 3.0250001e+00 -1.7000000e+01 
7.5000000e-01 3.0250001e+00 -1.6500000e+01 
7.5000000e-01 3.0250001e+00 -1.6000000e+01 
7.5000000e-01 3.0250001e+00 -1.5500000e+01 
[...]
POINT_DATA 2186
FIELD FieldData 3
DISPLACEMENT 3 2186  float
0.0000000e+00 0.0000000e+00 0.0000000e+00 
0.0000000e+00 0.0000000e+00 0.0000000e+00 
0.0000000e+00 0.0000000e+00 0.0000000e+00 
0.0000000e+00 0.0000000e+00 0.0000000e+00 
3.7562824e-08 -4.1330784e-07 -1.2266036e-06 
7.1763526e-07 -9.4200288e-07 1.9174649e-06 
0.0000000e+00 -2.1643916e-06 0.0000000e+00 
0.0000000e+00 -2.1703727e-06 0.0000000e+00 
9.4395307e-07 -1.4298480e-06 7.0659593e-07 
9.5701989e-07 -1.0405765e-06 3.2688260e-06 
-3.0284134e-06 -1.1172993e-06 -4.0205327e-07 
-3.1873097e-07 -3.0148856e-06 5.6150129e-06 
0.0000000e+00 -2.0337620e-06 0.0000000e+00 
0.0000000e+00 -1.1452523e-06 0.0000000e+00 
-7.0713927e-06 4.9008909e-06 4.2141742e-06 
-2.7955039e-06 -3.5746486e-06 6.9363509e-06 
1.1065794e-07 8.6475948e-06 4.7061349e-06 
-3.5299995e-06 -4.3618770e-06 8.0239006e-06 
0.0000000e+00 -2.7570559e-06 0.0000000e+00 
0.0000000e+00 1.0648808e-05 0.0000000e+00 
0.0000000e+00 -1.0729470e-05 0.0000000e+00 
0.0000000e+00 -9.0956100e-06 0.0000000e+00 
0.0000000e+00 -5.0314216e-06 0.0000000e+00 
0.0000000e+00 -2.5315077e-07 0.0000000e+00 
0.0000000e+00 3.6870297e-06 0.0000000e+00 
0.0000000e+00 6.0878128e-06 0.0000000e+00 
0.0000000e+00 7.0965420e-06 0.0000000e+00 
0.0000000e+00 7.1475338e-06 0.0000000e+00 
0.0000000e+00 6.3909283e-06 0.0000000e+00 
0.0000000e+00 4.6077835e-06 0.0000000e+00 
0.0000000e+00 1.6515816e-06 0.0000000e+00 
0.0000000e+00 -2.0201869e-06 0.0000000e+00 
0.0000000e+00 -5.2673172e-06 0.0000000e+00 
0.0000000e+00 -6.8213312e-06 0.0000000e+00 
0.0000000e+00 -6.1075070e-06 0.0000000e+00 
0.0000000e+00 -3.6972060e-06 0.0000000e+00 
0.0000000e+00 -9.9988927e-07 0.0000000e+00 
0.0000000e+00 6.2057916e-07 0.0000000e+00 
0.0000000e+00 6.8012133e-07 0.0000000e+00 
0.0000000e+00 -2.2756836e-07 0.0000000e+00 
0.0000000e+00 -9.7634302e-07 0.0000000e+00 
0.0000000e+00 -7.5082164e-07 0.0000000e+00 
0.0000000e+00 4.6019730e-07 0.0000000e+00 
0.0000000e+00 2.0518621e-06 0.0000000e+00 
0.0000000e+00 3.4201237e-06 0.0000000e+00 
0.0000000e+00 4.4098124e-06 0.0000000e+00 
0.0000000e+00 5.2072915e-06 0.0000000e+00 
0.0000000e+00 5.8462242e-06 0.0000000e+00 
0.0000000e+00 5.8564337e-06 0.0000000e+00 
0.0000000e+00 4.4412909e-06 0.0000000e+00 
0.0000000e+00 1.1002370e-06 0.0000000e+00 
0.0000000e+00 -3.7685413e-06 0.0000000e+00 
0.0000000e+00 -8.7796543e-06 0.0000000e+00 
0.0000000e+00 -1.2147310e-05 0.0000000e+00 
0.0000000e+00 -1.2614499e-05 0.0000000e+00 
0.0000000e+00 -1.0099380e-05 0.0000000e+00 
0.0000000e+00 -5.6311351e-06 0.0000000e+00 
0.0000000e+00 -6.9808260e-07 0.0000000e+00 
0.0000000e+00 3.4749510e-06 0.0000000e+00 
0.0000000e+00 6.2866320e-06 0.0000000e+00 
0.0000000e+00 7.6841598e-06 0.0000000e+00 
0.0000000e+00 7.8576986e-06 0.0000000e+00 
0.0000000e+00 6.9996941e-06 0.0000000e+00 
0.0000000e+00 5.3529284e-06 0.0000000e+00 
0.0000000e+00 3.4831262e-06 0.0000000e+00 
0.0000000e+00 2.3616026e-06 0.0000000e+00 
0.0000000e+00 2.9043922e-06 0.0000000e+00 
0.0000000e+00 5.2095343e-06 0.0000000e+00 
0.0000000e+00 8.1863100e-06 0.0000000e+00 
0.0000000e+00 9.9392009e-06 0.0000000e+00 
-6.2424429e-06 3.1759153e-06 -7.6506137e-07 
-8.0547534e-06 -4.4138587e-06 -5.2138662e-06 
-7.3873093e-06 -1.1167391e-05 -1.0600686e-05 
-5.3553154e-06 -1.5604655e-05 -9.7763314e-06 
-1.0874983e-05 -1.7688028e-05 -9.6776002e-06 
-8.5775564e-06 -1.8633144e-05 -7.3106676e-06 
-4.8940019e-06 -1.9720337e-05 -5.9980384e-06 
-3.8803009e-06 -2.0906738e-05 -5.5703904e-06 
-2.0545333e-06 -2.1387190e-05 -6.7765441e-06 
-2.4998049e-06 -1.9794112e-05 -5.1217862e-06 
1.5265026e-07 -1.6549891e-05 5.6814837e-08 
-2.7644069e-06 -1.4331545e-05 1.0300259e-05 
-5.1845950e-06 -1.4454298e-05 1.0630044e-05 
-1.0326239e-05 -1.5101770e-05 1.3034173e-05 
-7.1123732e-06 -1.2748680e-05 1.3765727e-05 
-8.7034059e-06 -5.4612510e-06 1.5138593e-05 
-8.3206496e-06 1.0376780e-06 1.6978007e-05 
-1.2385023e-05 -8.3139963e-07 1.8943638e-05 
-1.4682752e-05 -1.1301669e-05 2.0542380e-05 
-2.0613174e-05 -2.2079967e-05 1.6279684e-05 
-2.0369029e-05 -2.3013565e-05 5.1256156e-06 
-1.7742248e-05 -1.1236223e-05 -3.0306455e-06 
-1.1522911e-05 5.2233454e-06 2.6391508e-06 
-1.0949331e-05 8.8213501e-06 -3.0523624e-06 
-3.3658996e-06 -4.3179293e-06 -1.2442809e-05 
8.7435246e-06 -1.5283258e-05 -1.0329090e-05 
-5.8644127e-06 1.3130078e-06 1.7852826e-06 
-5.0331117e-08 5.2269166e-05 3.6082565e-06 
1.4768302e-05 1.0824063e-04 6.7476190e-06 
1.8096171e-05 1.2405128e-04 1.8424118e-05 
6.6434706e-07 8.6943037e-05 3.2541338e-05 
7.5030562e-06 1.2988839e-05 6.0703958e-05 
-1.1372198e-05 -8.8931760e-05 1.1131082e-04 
-5.9377719e-05 -2.6888403e-04 2.0760976e-04 
-5.8596277e-05 -6.6468614e-04 2.3173957e-04 
-7.1029062e-05 -1.4136710e-03 1.7444491e-04 
-1.4557088e-04 -2.5518471e-03 2.6850551e-04 
-1.9133749e-04 -3.8368572e-03 8.4897125e-05 
-2.7190143e-04 -4.7537666e-03 1.3128691e-04 
-2.7859464e-04 -4.6954551e-03 1.2521291e-05 
-2.4656096e-04 -4.2304741e-03 -4.1638436e-05 
-2.4787989e-04 -4.0613827e-03 -5.2383482e-05 
-2.2187087e-04 -4.3359869e-03 -5.1338393e-05 
-2.4939139e-04 -4.4778916e-03 -1.4905586e-04 
-1.9764130e-04 -3.7793189e-03 -2.5114170e-04 
-1.5252616e-04 -2.5140885e-03 -1.6969266e-04 
-7.1742390e-05 -1.3242456e-03 -2.4933004e-04 
-4.6829184e-05 -4.7068505e-04 -1.2712613e-04 
-6.4997944e-06 1.3942670e-05 -1.1380881e-04 
-3.0309334e-06 2.0354391e-04 -6.4513421e-05 
6.8500158e-06 2.0980682e-04 -2.5172314e-05 
5.4385805e-06 1.4161918e-04 -1.2654657e-05 
4.9621790e-06 7.3193507e-05 7.3737083e-06 
-3.0384306e-06 2.1800766e-05 3.7137447e-06 
-4.4885933e-06 -1.7227076e-05 1.1264525e-05 
-6.3855910e-06 -4.1650677e-05 1.2596544e-05 
-8.2781189e-06 -4.3456232e-05 1.6283409e-05 
-7.5455655e-06 -2.7563938e-05 1.8014875e-05 
-6.5291833e-06 -1.2334283e-05 1.8644265e-05 
-9.3056788e-06 -1.1129207e-05 1.4183893e-05 
-4.8833299e-06 -1.8734554e-05 6.8155591e-06 
-7.4897757e-06 -1.8985304e-05 9.1706088e-06 
-9.8337359e-06 -3.0171484e-06 1.3782996e-05 
-1.2785433e-05 2.1763763e-05 9.8983337e-06 
-8.0755353e-06 3.6913185e-05 7.6339820e-06 
-5.7511497e-06 2.8023705e-05 3.7867153e-06 
-2.9661685e-06 1.0267297e-05 -3.2524536e-06 
5.6202598e-06 2.1329515e-05 1.1654775e-05 
1.0770503e-05 7.3211704e-05 2.3113018e-05 
1.8779461e-05 1.3302668e-04 3.1688061e-05 
1.1722831e-05 1.4302318e-04 5.4689935e-05 
1.1953686e-05 5.3263371e-05 8.2119070e-05 
-1.8571441e-06 -1.3843548e-04 1.1603397e-04 
-1.4992625e-05 -4.0831187e-04 1.3126036e-04 
-7.9310936e-05 -8.0988865e-04 2.3365099e-04 
-5.6881530e-05 -1.4935983e-03 2.0509852e-04 
-2.1079088e-04 -2.5872872e-03 2.8442798e-04 
-9.2977760e-05 -3.9142445e-03 1.4895937e-04 
-3.8786160e-04 -4.8739794e-03 1.5073622e-04 
-8.4337837e-05 -4.7064126e-03 5.9003607e-05 
-2.5805910e-04 -4.1757384e-03 -4.8867778e-06 
-2.4219576e-04 -3.9907037e-03 -7.3331066e-05 
-2.3488663e-04 -4.2974665e-03 -7.3894516e-05 
-2.4906622e-04 -4.4435053e-03 -1.6693211e-04 
-1.9090528e-04 -3.6073653e-03 -2.8135045e-04 
-1.4468261e-04 -2.2880046e-03 -1.8324344e-04 
-6.0179020e-05 -1.1042668e-03 -2.4310104e-04 
-3.0074083e-05 -2.9587376e-04 -1.2311063e-04 
2.4501801e-06 1.0935709e-04 -1.1025434e-04 
1.0502284e-05 2.2741927e-04 -5.8628168e-05 
1.6941007e-05 2.0787654e-04 -2.3659866e-05 
1.5820850e-05 1.4820066e-04 -1.1406240e-05 
9.1928850e-06 8.6473607e-05 9.2667760e-06 
6.9979656e-06 3.0287816e-05 8.2026645e-06 
4.0124346e-06 -1.2124174e-05 1.0440502e-05 
3.2533496e-06 -3.0753250e-05 8.5689089e-06 
3.8738835e-06 -2.6452461e-05 8.4649400e-06 
2.2307640e-06 -1.3375708e-05 8.9450150e-06 
-5.2802437e-07 -5.2145383e-06 8.8561437e-06 
0.0000000e+00 -4.4859858e-06 0.0000000e+00 
0.0000000e+00 -1.3196131e-06 0.0000000e+00 
0.0000000e+00 3.0944161e-06 0.0000000e+00 
0.0000000e+00 4.1068793e-06 0.0000000e+00 
0.0000000e+00 1.1568274e-06 0.0000000e+00 
0.0000000e+00 -1.6631589e-06 0.0000000e+00 
0.0000000e+00 -1.2050313e-06 0.0000000e+00 
0.0000000e+00 8.9068533e-07 0.0000000e+00 
0.0000000e+00 9.2428570e-07 0.0000000e+00 
0.0000000e+00 -1.7280529e-06 0.0000000e+00 
0.0000000e+00 -3.9023253e-06 0.0000000e+00 
0.0000000e+00 -2.8790555e-06 0.0000000e+00 
0.0000000e+00 2.0518387e-07 0.0000000e+00 
0.0000000e+00 1.9629515e-06 0.0000000e+00 
0.0000000e+00 9.7422287e-07 0.0000000e+00 
0.0000000e+00 -7.6021729e-07 0.0000000e+00 
0.0000000e+00 -6.2327683e-07 0.0000000e+00 
0.0000000e+00 1.3582077e-06 0.0000000e+00 
0.0000000e+00 2.7637632e-06 0.0000000e+00 
0.0000000e+00 1.8867370e-06 0.0000000e+00 
0.0000000e+00 -3.1022788e-07 0.0000000e+00 
0.0000000e+00 -1.5945236e-06 0.0000000e+00 
0.0000000e+00 -1.1578289e-06 0.0000000e+00 
0.0000000e+00 -2.3481276e-07 0.0000000e+00 
0.0000000e+00 -2.0472747e-07 0.0000000e+00 
0.0000000e+00 -8.5843095e-07 0.0000000e+00 
0.0000000e+00 -9.4820984e-07 0.0000000e+00 
0.0000000e+00 -3.8399302e-09 0.0000000e+00 
0.0000000e+00 1.0688273e-06 0.0000000e+00 
0.0000000e+00 1.2264288e-06 0.0000000e+00 
0.0000000e+00 5.5557007e-07 0.0000000e+00 
0.0000000e+00 -4.8091024e-08 0.0000000e+00 
0.0000000e+00 -1.4512453e-07 0.0000000e+00 
0.0000000e+00 -1.6547862e-07 0.0000000e+00 
0.0000000e+00 -5.3170260e-07 0.0000000e+00 
0.0000000e+00 -8.7660328e-07 0.0000000e+00 
0.0000000e+00 -5.2537490e-07 0.0000000e+00 
0.0000000e+00 4.2831846e-07 0.0000000e+00 
0.0000000e+00 9.8680562e-07 0.0000000e+00 
0.0000000e+00 -1.0708678e-05 0.0000000e+00 
0.0000000e+00 -9.0854273e-06 0.0000000e+00 
0.0000000e+00 -5.0425529e-06 0.0000000e+00 
0.0000000e+00 -2.7782633e-07 0.0000000e+00 
0.0000000e+00 3.6673355e-06 0.0000000e+00 
0.0000000e+00 6.0869611e-06 0.0000000e+00 
0.0000000e+00 7.1130657e-06 0.0000000e+00 
0.0000000e+00 7.1667901e-06 0.0000000e+00 
0.0000000e+00 6.3975226e-06 0.0000000e+00 
0.0000000e+00 4.5979905e-06 0.0000000e+00 
0.0000000e+00 1.6360481e-06 0.0000000e+00 
0.0000000e+00 -2.0254565e-06 0.0000000e+00 
0.0000000e+00 -5.2545706e-06 0.0000000e+00 
0.0000000e+00 -6.7982419e-06 0.0000000e+00 
0.0000000e+00 -6.0917214e-06 0.0000000e+00 
0.0000000e+00 -3.7024572e-06 0.0000000e+00 
0.0000000e+00 -1.0250094e-06 0.0000000e+00 
0.0000000e+00 5.9096618e-07 0.0000000e+00 
0.0000000e+00 6.6408950e-07 0.0000000e+00 
0.0000000e+00 -2.2250100e-07 0.0000000e+00 
0.0000000e+00 -9.5817074e-07 0.0000000e+00 
0.0000000e+00 -7.3576609e-07 0.0000000e+00 
0.0000000e+00 4.6173901e-07 0.0000000e+00 
0.0000000e+00 2.0441864e-06 0.0000000e+00 
0.0000000e+00 3.4173447e-06 0.0000000e+00 
0.0000000e+00 4.4214698e-06 0.0000000e+00 
0.0000000e+00 5.2285718e-06 0.0000000e+00 
0.0000000e+00 5.8621367e-06 0.0000000e+00 
0.0000000e+00 5.8548831e-06 0.0000000e+00 
0.0000000e+00 4.4226499e-06 0.0000000e+00 
0.0000000e+00 1.0767357e-06 0.0000000e+00 
0.0000000e+00 -3.7814684e-06 0.0000000e+00 
0.0000000e+00 -8.7742310e-06 0.0000000e+00 
0.0000000e+00 -1.2129689e-05 0.0000000e+00 
0.0000000e+00 -1.2600552e-05 0.0000000e+00 
0.0000000e+00 -1.0101710e-05 0.0000000e+00 
0.0000000e+00 -5.6490512e-06 0.0000000e+00 
0.0000000e+00 -7.2025290e-07 0.0000000e+00 
0.0000000e+00 3.4598447e-06 0.0000000e+00 
0.0000000e+00 6.2830782e-06 0.0000000e+00 
0.0000000e+00 7.6898796e-06 0.0000000e+00 
0.0000000e+00 7.8659141e-06 0.0000000e+00 
0.0000000e+00 7.0034971e-06 0.0000000e+00 
0.0000000e+00 5.3531417e-06 0.0000000e+00 
0.0000000e+00 3.4908592e-06 0.0000000e+00 
0.0000000e+00 2.3864145e-06 0.0000000e+00 
0.0000000e+00 2.9397229e-06 0.0000000e+00 
0.0000000e+00 5.2370497e-06 0.0000000e+00 
0.0000000e+00 8.1961261e-06 0.0000000e+00 
0.0000000e+00 9.9388208e-06 0.0000000e+00 
0.0000000e+00 8.5513002e-06 0.0000000e+00 
0.0000000e+00 3.1592124e-06 0.0000000e+00 
0.0000000e+00 -4.3645873e-06 0.0000000e+00 
0.0000000e+00 -1.1139679e-05 0.0000000e+00 
0.0000000e+00 -1.5577043e-05 0.0000000e+00 
0.0000000e+00 -1.7684484e-05 0.0000000e+00 
0.0000000e+00 -1.8686191e-05 0.0000000e+00 
0.0000000e+00 -1.9778839e-05 0.0000000e+00 
0.0000000e+00 -2.0962507e-05 0.0000000e+00 
0.0000000e+00 -2.1333146e-05 0.0000000e+00 
0.0000000e+00 -1.9703964e-05 0.0000000e+00 
0.0000000e+00 -1.6577274e-05 0.0000000e+00 
0.0000000e+00 -1.4428337e-05 0.0000000e+00 
0.0000000e+00 -1.4571200e-05 0.0000000e+00 
0.0000000e+00 -1.5146447e-05 0.0000000e+00 
0.0000000e+00 -1.2496454e-05 0.0000000e+00 
0.0000000e+00 -5.3209719e-06 0.0000000e+00 
0.0000000e+00 8.7531282e-07 0.0000000e+00 
0.0000000e+00 -1.1258117e-06 0.0000000e+00 
0.0000000e+00 -1.1528648e-05 0.0000000e+00 
0.0000000e+00 -2.1995495e-05 0.0000000e+00 
0.0000000e+00 -2.2624139e-05 0.0000000e+00 
0.0000000e+00 -1.0715114e-05 0.0000000e+00 
0.0000000e+00 4.9449095e-06 0.0000000e+00 
0.0000000e+00 8.0071059e-06 0.0000000e+00 
0.0000000e+00 -4.8757847e-06 0.0000000e+00 
0.0000000e+00 -1.4950419e-05 0.0000000e+00 
0.0000000e+00 2.6098417e-06 0.0000000e+00 
0.0000000e+00 5.3282329e-05 0.0000000e+00 
0.0000000e+00 1.0755566e-04 0.0000000e+00 
0.0000000e+00 1.2310814e-04 0.0000000e+00 
0.0000000e+00 8.6635300e-05 0.0000000e+00 
0.0000000e+00 1.4473831e-05 0.0000000e+00 
0.0000000e+00 -8.5705513e-05 0.0000000e+00 
0.0000000e+00 -2.6803676e-04 0.0000000e+00 
0.0000000e+00 -6.6679349e-04 0.0000000e+00 
0.0000000e+00 -1.4232667e-03 0.0000000e+00 
0.0000000e+00 -2.5632484e-03 0.0000000e+00 
0.0000000e+00 -3.8570249e-03 0.0000000e+00 
0.0000000e+00 -4.7733863e-03 0.0000000e+00 
0.0000000e+00 -4.7248206e-03 0.0000000e+00 
0.0000000e+00 -4.2543085e-03 0.0000000e+00 
0.0000000e+00 -4.0881699e-03 0.0000000e+00 
0.0000000e+00 -4.3562492e-03 0.0000000e+00 
0.0000000e+00 -4.5070425e-03 0.0000000e+00 
0.0000000e+00 -3.8017295e-03 0.0000000e+00 
0.0000000e+00 -2.5319613e-03 0.0000000e+00 
0.0000000e+00 -1.3315257e-03 0.0000000e+00 
0.0000000e+00 -4.7447981e-04 0.0000000e+00 
0.0000000e+00 1.2748659e-05 0.0000000e+00 
0.0000000e+00 2.0433367e-04 0.0000000e+00 
0.0000000e+00 2.1147008e-04 0.0000000e+00 
0.0000000e+00 1.4362577e-04 0.0000000e+00 
0.0000000e+00 7.3713170e-05 0.0000000e+00 
0.0000000e+00 2.1426122e-05 0.0000000e+00 
0.0000000e+00 -1.7426926e-05 0.0000000e+00 
0.0000000e+00 -4.1181993e-05 0.0000000e+00 
0.0000000e+00 -4.2988304e-05 0.0000000e+00 
0.0000000e+00 -2.7751988e-05 0.0000000e+00 
0.0000000e+00 -1.2966442e-05 0.0000000e+00 
0.0000000e+00 -1.1490089e-05 0.0000000e+00 
0.0000000e+00 -1.8634582e-05 0.0000000e+00 
0.0000000e+00 -1.8619032e-05 0.0000000e+00 
0.0000000e+00 -2.5043516e-06 0.0000000e+00 
0.0000000e+00 2.1984464e-05 0.0000000e+00 
0.0000000e+00 3.6041944e-05 0.0000000e+00 
0.0000000e+00 2.7007211e-05 0.0000000e+00 
0.0000000e+00 1.0582900e-05 0.0000000e+00 
0.0000000e+00 2.2627264e-05 0.0000000e+00 
0.0000000e+00 7.4794429e-05 0.0000000e+00 
0.0000000e+00 1.3368754e-04 0.0000000e+00 
0.0000000e+00 1.4134636e-04 0.0000000e+00 
0.0000000e+00 5.1515271e-05 0.0000000e+00 
0.0000000e+00 -1.3646632e-04 0.0000000e+00 
0.0000000e+00 -4.0470425e-04 0.0000000e+00 
0.0000000e+00 -8.0936274e-04 0.0000000e+00 
0.0000000e+00 -1.5029400e-03 0.0000000e+00 
0.0000000e+00 -2.6020841e-03 0.0000000e+00 
0.0000000e+00 -3.9406237e-03 0.0000000e+00 
0.0000000e+00 -4.8949211e-03 0.0000000e+00 
0.0000000e+00 -4.7312872e-03 0.0000000e+00 
0.0000000e+00 -4.1957311e-03 0.0000000e+00 
0.0000000e+00 -4.0189424e-03 0.0000000e+00 
0.0000000e+00 -4.3226229e-03 0.0000000e+00 
0.0000000e+00 -4.4727297e-03 0.0000000e+00 
0.0000000e+00 -3.6260970e-03 0.0000000e+00 
0.0000000e+00 -2.3031379e-03 0.0000000e+00 
0.0000000e+00 -1.1118818e-03 0.0000000e+00 
0.0000000e+00 -3.0040438e-04 0.0000000e+00 
0.0000000e+00 1.0907328e-04 0.0000000e+00 
0.0000000e+00 2.2992596e-04 0.0000000e+00 
0.0000000e+00 2.0990391e-04 0.0000000e+00 
0.0000000e+00 1.4890110e-04 0.0000000e+00 
0.0000000e+00 8.6375854e-05 0.0000000e+00 
0.0000000e+00 3.0470459e-05 0.0000000e+00 
0.0000000e+00 -1.1619874e-05 0.0000000e+00 
0.0000000e+00 -3.0426148e-05 0.0000000e+00 
0.0000000e+00 -2.6668464e-05 0.0000000e+00 
0.0000000e+00 -1.3807456e-05 0.0000000e+00 
0.0000000e+00 -5.3936951e-06 0.0000000e+00 
0.0000000e+00 -4.1922913e-06 0.0000000e+00 
0.0000000e+00 -4.3005921e-06 0.0000000e+00 
0.0000000e+00 -1.3218092e-06 0.0000000e+00 
0.0000000e+00 2.9246239e-06 0.0000000e+00 
0.0000000e+00 4.0095151e-06 0.0000000e+00 
0.0000000e+00 1.2547544e-06 0.0000000e+00 
0.0000000e+00 -1.5129420e-06 0.0000000e+00 
0.0000000e+00 -1.2001610e-06 0.0000000e+00 
0.0000000e+00 7.5728400e-07 0.0000000e+00 
0.0000000e+00 8.3491699e-07 0.0000000e+00 
0.0000000e+00 -1.6636169e-06 0.0000000e+00 
0.0000000e+00 -3.7776526e-06 0.0000000e+00 
0.0000000e+00 -2.8555316e-06 0.0000000e+00 
0.0000000e+00 1.0437162e-07 0.0000000e+00 
0.0000000e+00 1.8694283e-06 0.0000000e+00 
0.0000000e+00 1.0005066e-06 0.0000000e+00 
0.0000000e+00 -6.5539450e-07 0.0000000e+00 
0.0000000e+00 -5.7155546e-07 0.0000000e+00 
0.0000000e+00 1.3011075e-06 0.0000000e+00 
0.0000000e+00 2.6775929e-06 0.0000000e+00 
0.0000000e+00 1.8776025e-06 0.0000000e+00 
0.0000000e+00 -2.4049882e-07 0.0000000e+00 
0.0000000e+00 -1.5397726e-06 0.0000000e+00 
0.0000000e+00 -1.1827302e-06 0.0000000e+00 
0.0000000e+00 -2.9828448e-07 0.0000000e+00 
0.0000000e+00 -2.2233723e-07 0.0000000e+00 
0.0000000e+00 -8.1286811e-07 0.0000000e+00 
0.0000000e+00 -9.0431058e-07 0.0000000e+00 
0.0000000e+00 -1.7988045e-08 0.0000000e+00 
0.0000000e+00 1.0200876e-06 0.0000000e+00 
0.0000000e+00 1.2090037e-06 0.0000000e+00 
0.0000000e+00 5.8870563e-07 0.0000000e+00 
0.0000000e+00 -1.3524740e-08 0.0000000e+00 
0.0000000e+00 -1.5715534e-07 0.0000000e+00 
0.0000000e+00 -2.0633736e-07 0.0000000e+00 
0.0000000e+00 -5.4298954e-07 0.0000000e+00 
0.0000000e+00 -8.3860959e-07 0.0000000e+00 
0.0000000e+00 -4.8452915e-07 0.0000000e+00 
0.0000000e+00 4.2069959e-07 0.0000000e+00 
0.0000000e+00 9.4615729e-07 0.0000000e+00 
0.0000000e+00 0.0000000e+00 0.0000000e+00 
0.0000000e+00 0.0000000e+00 0.0000000e+00 
0.0000000e+00 0.0000000e+00 0.0000000e+00 
0.0000000e+00 0.0000000e+00 0.0000000e+00 
0.0000000e+00 0.0000000e+00 0.0000000e+00 
0.0000000e+00 0.0000000e+00 0.0000000e+00 
0.0000000e+00 0.0000000e+00 0.0000000e+00 
0.0000000e+00 0.0000000e+00 0.0000000e+00 
0.0000000e+00 0.0000000e+00 0.0000000e+00 
0.0000000e+00 0.0000000e+00 0.0000000e+00 
0.0000000e+00 0.0000000e+00 0.0000000e+00 
0.0000000e+00 0.0000000e+00 0.0000000e+00 
0.0000000e+00 0.0000000e+00 0.0000000e+00 
0.0000000e+00 0.0000000e+00 0.0000000e+00 
0.0000000e+00 0.0000000e+00 0.0000000e+00 
0.0000000e+00 0.0000000e+00 0.0000000e+00 
0.0000000e+00 0.0000000e+00 0.0000000e+00 
0.0000000e+00 0.0000000e+00 0.0000000e+00 
0.0000000e+00 0.0000000e+00 0.0000000e+00 
0.0000000e+00 0.0000000e+00 0.0000000e+00 
0.0000000e+00 0.0000000e+00 0.0000000e+00 
0.0000000e+00 0.0000000e+00 0.0000000e+00 
0.0000000e+00 0.0000000e+00 0.0000000e+00 
0.0000000e+00 0.0000000e+00 0.0000000e+00 
0.0000000e+00 0.0000000e+00 0.0000000e+00 
0.0000000e+00 0.0000000e+00 0.0000000e+00 
0.0000000e+00 0.0000000e+00 0.0000000e+00 
0.0000000e+00 0.0000000e+00 0.0000000e+00 
0.0000000e+00 0.0000000e+00 0.0000000e+00 
0.0000000e+00 0.0000000e+00 0.0000000e+00 
0.0000000e+00 0.0000000e+00 0.0000000e+00 
0.0000000e+00 0.0000000e+00 0.0000000e+00 
0.0000000e+00 0.0000000e+00 0.0000000e+00 
0.0000000e+00 0.0000000e+00 0.0000000e+00 
0.0000000e+00 0.0000000e+00 0.0000000e+00 
0.0000000e+00 0.0000000e+00 0.0000000e+00 
0.0000000e+00 0.0000000e+00 0.0000000e+00 
0.0000000e+00 0.0000000e+00 0.0000000e+00 
0.0000000e+00 0.0000000e+00 0.0000000e+00 
0.0000000e+00 0.0000000e+00 0.0000000e+00 
0.0000000e+00 0.0000000e+00 0.0000000e+00 
0.0000000e+00 0.0000000e+00 0.0000000e+00 
0.0000000e+00 0.0000000e+00 0.0000000e+00 
0.0000000e+00 0.0000000e+00 0.0000000e+00 
0.0000000e+00 0.0000000e+00 0.0000000e+00 
0.0000000e+00 0.0000000e+00 0.0000000e+00 
0.0000000e+00 0.0000000e+00 0.0000000e+00 
0.0000000e+00 0.0000000e+00 0.0000000e+00 
0.0000000e+00 0.0000000e+00 0.0000000e+00 
0.0000000e+00 0.0000000e+00 0.0000000e+00 
0.0000000e+00 0.0000000e+00 0.0000000e+00 
0.0000000e+00 0.0000000e+00 0.0000000e+00 
0.0000000e+00 0.0000000e+00 0.0000000e+00 
0.0000000e+00 0.0000000e+00 0.0000000e+00 
0.0000000e+00 0.0000000e+00 0.0000000e+00 
0.0000000e+00 0.0000000e+00 0.0000000e+00 
0.0000000e+00 0.0000000e+00 0.0000000e+00 