# vtk DataFile Version 4.0
vtk output
ASCII
DATASET UNSTRUCTURED_GRID
POINTS 2186 float
0.0000000e+00 0.0000000e+00 0.0000000e+00 
0.0000000e+00 0.0000000e+00 5.0000000e+01 
5.0000000e+00 0.0000000e+00 0.0000000e+00 
5.0000000e+00 0.0000000e+00 5.0000000e+01 
5.0000000e+00 1.0000000e+00 0.0000000e+00 
5.0000000e+00 1.0000000e+00 5.0000000e+01 
0.0000000e+00 1.0000000e+00 0.0000000e+00 
0.0000000e+00 1.0000000e+00 5.0000000e+01 
5.0000000e+00 2.0000000e+00 0.0000000e+00 
5.0000000e+00 2.0000000e+00 5.0000000e+01 
3.0000000e+00 2.0000000e+00 0.0000000e+00 
3.0000000e+00 2.0000000e+00 5.0000000e+01 
0.0000000e+00 2.0000000e+00 0.0000000e+00 
0.0000000e+00 2.0000000e+00 5.0000000e+01 
1.5000000e+00 3.0000000e+00 0.0000000e+00 
1.5000000e+00 3.0000000e+00 5.0000000e+01 
7.5000000e-01 3.0000000e+00 0.0000000e+00 
7.5000000e-01 3.0000000e+00 5.0000000e+01 
0.0000000e+00 3.0000000e+00 0.0000000e+00 
0.0000000e+00 3.0000000e+00 5.0000000e+01 
7.5000000e-01 3.0000000e+00 -2.5000000e+01 
7.5000000e-01 3.0000000e+00 -2.4500000e+01 
7.5000000e-01 3.0000000e+00 -2.4000000e+01 
7.5000000e-01 3.0000000e+00 -2.3500000e+01 
7.5000000e-01 3.0000000e+00 -2.3000000e+01 
7.5000000e-01 3.0000000e+00 -2.2500000e+01 
7.5000000e-01 3.0000000e+00 -2.2000000e+01 
7.5000000e-01 3.0000000e+00 -2.1500000e+01 
7.5000000e-01 3.0000000e+00 -2.1000000e+01 
7.5000000e-01 3.0000000e+00 -2.0500000e+01 
7.5000000e-01 3.0000000e+00 -2.0000000e+01 
7.5000000e-01 3.0000000e+00 -1.9500000e+01 
7.5000000e-01 3.0000000e+00 -1.9000000e+01 
7.5000000e-01 3.0000000e+00 -1.8500000e+01 
7.5000000e-01 3.0000000e+00 -1.8000000e+01 
7.5000000e-01 3.0000000e+00 -1.7500000e+01 
7.5000000e-01 3.0000000e+00 -1.7000000e+01 
7.5000000e-01 3.0000000e+00 -1.6500000e+01 
7.5000000e-01 3.0000000e+00 -1.6000000e+01 
7.5000000e-01 3.0000000e+00 -1.5500000e+01 
7.5000000e-01 3.0000000e+00 -1.5000000e+01 
7.5000000e-01 3.0000000e+00 -1.4500000e+01 
7.5000000e-01 3.0000000e+00 -1.4000000e+01 
7.5000000e-01 3.0000000e+00 -1.3500000e+01 
7.5000000e-01 3.0000000e+00 -1.3000000e+01 
7.5000000e-01 3.0000000e+00 -1.2500000e+01 
7.5000000e-01 3.0000000e+00 -1.2000000e+01 
7.5000000e-01 3.0000000e+00 -1.1500000e+01 
7.5000000e-01 3.0000000e+00 -1.1000000e+01 
7.5000000e-01 3.0000000e+00 -1.0500000e+01 
7.5000000e-01 3.0000000e+00 -1.0000000e+01 
7.5000000e-01 3.0000000e+00 -9.5000000e+00 
7.5000000e-01 3.0000000e+00 -9.0000000e+00 
7.5000000e-01 3.0000000e+00 -8.5000000e+00 
7.5000000e-01 3.0000000e+00 -8.0000000e+00 
7.5000000e-01 3.0000000e+00 -7.5000000e+00 
7.5000000e-01 3.0000000e+00 -7.0000000e+00 
7.5000000e-01 3.0000000e+00 -6.5000000e+00 
7.5000000e-01 3.0000000e+00 -6.0000000e+00 
7.5000000e-01 3.0000000e+00 -5.5000000e+00 
7.5000000e-01 3.0000000e+00 -5.0000000e+00 
7.5000000e-01 3.0000000e+00 -4.5000000e+00 
7.5000000e-01 3.0000000e+00 -4.0000000e+00 
7.5000000e-01 3.0000000e+00 -3.5000000e+00 
7.5000000e-01 3.0000000e+00 -3.0000000e+00 
7.5000000e-01 3.0000000e+00 -2.5000000e+00 
7.5000000e-01 3.0000000e+00 -2.0000000e+00 
7.5000000e-01 3.0000000e+00 -1.5000000e+00 
7.5000000e-01 3.0000000e+00 -1.0000000e+00 
7.5000000e-01 3.0000000e+00 -5.0000000e-01 
7.5000000e-01 3.0000000e+00 5.0000000e-01 
7.5000000e-01 3.0000000e+00 1.0000000e+00 
7.5000000e-01 3.0000000e+00 1.5000000e+00 
7.5000000e-01 3.0000000e+00 2.0000000e+00 
7.5000000e-01 3.0000000e+00 2.5000000e+00 
7.5000000e-01 3.0000000e+00 3.0000000e+00 
7.5000000e-01 3.0000000e+00 3.5000000e+00 
7.5000000e-01 3.0000000e+00 4.0000000e+00 
7.5000000e-01 3.0000000e+00 4.5000000e+00 
7.5000000e-01 3.0000000e+00 5.0000000e+00 
7.5000000e-01 3.0000000e+00 5.5000000e+00 
7.5000000e-01 3.0000000e+00 6.0000000e+00 
7.5000000e-01 3.0000000e+00 6.5000000e+00 
7.5000000e-01 3.0000000e+00 7.0000000e+00 
7.5000000e-01 3.0000000e+00 7.5000000e+00 
7.5000000e-01 3.0000000e+00 8.0000000e+00 
7.5000000e-01 3.0000000e+00 8.5000000e+00 
7.5000000e-01 3.0000000e+00 9.0000000e+00 
7.5000000e-01 3.0000000e+00 9.5000000e+00 
7.5000000e-01 3.0000000e+00 1.0000000e+01 
7.5000000e-01 3.0000000e+00 1.0500000e+01 
7.5000000e-01 3.0000000e+00 1.1000000e+01 
7.5000000e-01 3.0000000e+00 1.1500000e+01 
7.5000000e-01 3.0000000e+00 1.2000000e+01 
7.5000000e-01 3.0000000e+00 1.2500000e+01 
7.5000000e-01 3.0000000e+00 1.3000000e+01 
7.5000000e-01 3.0000000e+00 1.3500000e+01 
7.5000000e-01 3.0000000e+00 1.4000000e+01 
7.5000000e-01 3.0000000e+00 1.4500000e+01 
7.5000000e-01 3.0000000e+00 1.5000000e+01 
7.5000000e-01 3.0000000e+00 1.5500000e+01 
7.5000000e-01 3.0000000e+00 1.6000000e+01 
7.5000000e-01 3.0000000e+00 1.6500000e+01 
7.5000000e-01 3.0000000e+00 1.7000000e+01 
7.5000000e-01 3.0000000e+00 1.7500000e+01 
7.5000000e-01 3.0000000e+00 1.8000000e+01 
7.5000000e-01 3.0000000e+00 1.8500000e+01 
7.5000000e-01 3.0000000e+00 1.9000000e+01 
7.5000000e-01 3.0000000e+00 1.9500000e+01 
7.5000000e-01 3.0000000e+00 2.0000000e+01 
7.5000000e-01 3.0000000e+00 2.0500000e+01 
7.5000000e-01 3.0000000e+00 2.1000000e+01 
7.5000000e-01 3.0000000e+00 2.1500000e+01 
7.5000000e-01 3.0000000e+00 2.2000000e+01 
7.5000000e-01 3.0000000e+00 2.2500000e+01 
7.5000000e-01 3.0000000e+00 2.3000000e+01 
7.5000000e-01 3.0000000e+00 2.3500000e+01 
7.5000000e-01 3.0000000e+00 2.4000000e+01 
7.5000000e-01 3.0000000e+00 2.4500000e+01 
7.5000000e-01 3.0000000e+00 2.5000000e+01 
7.5000000e-01 3.0000000e+00 2.5500000e+01 
7.5000000e-01 3.0000000e+00 2.6000000e+01 
7.5000000e-01 3.0000000e+00 2.6500000e+01 
7.5000000e-01 3.0000000e+00 2.7000000e+01 
7.5000000e-01 3.0000000e+00 2.7500000e+01 
7.5000000e-01 3.0000000e+00 2.8000000e+01 
7.5000000e-01 3.0000000e+00 2.8500000e+01 
7.5000000e-01 3.0000000e+00 2.9000000e+01 
7.5000000e-01 3.0000000e+00 2.9500000e+01 
7.5000000e-01 3.0000000e+00 3.0000000e+01 
7.5000000e-01 3.0000000e+00 3.0500000e+01 
7.5000000e-01 3.0000000e+00 3.1000000e+01 
7.5000000e-01 3.0000000e+00 3.1500000e+01 
7.5000000e-01 3.0000000e+00 3.2000000e+01 
7.5000000e-01 3.0000000e+00 3.2500000e+01 
7.5000000e-01 3.0000000e+00 3.3000000e+01 
7.5000000e-01 3.0000000e+00 3.3500000e+01 
7.5000000e-01 3.0000000e+00 3.4000000e+01 
7.5000000e-01 3.0000000e+00 3.4500000e+01 
7.5000000e-01 3.0000000e+00 3.5000000e+01 
7.5000000e-01 3.0000000e+00 3.5500000e+01 
7.5000000e-01 3.0000000e+00 3.6000000e+01 
7.5000000e-01 3.0000000e+00 3.6500000e+01 
7.5000000e-01 3.0000000e+00 3.7000000e+01 
7.5000000e-01 3.0000000e+00 3.7500000e+01 
7.5000000e-01 3.0000000e+00 3.8000000e+01 
7.5000000e-01 3.0000000e+00 3.8500000e+01 
7.5000000e-01 3.0000000e+00 3.9000000e+01 
7.5000000e-01 3.0000000e+00 3.9500000e+01 
7.5000000e-01 3.0000000e+00 4.0000000e+01 
7.5000000e-01 3.0000000e+00 4.0500000e+01 
7.5000000e-01 3.0000000e+00 4.1000000e+01 
7.5000000e-01 3.0000000e+00 4.1500000e+01 
7.5000000e-01 3.0000000e+00 4.2000000e+01 
7.5000000e-01 3.0000000e+00 4.2500000e+01 
7.5000000e-01 3.0000000e+00 4.3000000e+01 
7.5000000e-01 3.0000000e+00 4.3500000e+01 
7.5000000e-01 3.0000000e+00 4.4000000e+01 
7.5000000e-01 3.0000000e+00 4.4500000e+01 
7.5000000e-01 3.0000000e+00 4.5000000e+01 
7.5000000e-01 3.0000000e+00 4.5500000e+01 
7.5000000e-01 3.0000000e+00 4.6000000e+01 
7.5000000e-01 3.0000000e+00 4.6500000e+01 
7.5000000e-01 3.0000000e+00 4.7000000e+01 
7.5000000e-01 3.0000000e+00 4.7500000e+01 
7.5000000e-01 3.0000000e+00 4.8000000e+01 
7.5000000e-01 3.0000000e+00 4.8500000e+01 
7.5000000e-01 3.0000000e+00 4.9000000e+01 
7.5000000e-01 3.0000000e+00 4.9500000e+01 
7.5000000e-01 3.0000000e+00 5.0500000e+01 
7.5000000e-01 3.0000000e+00 5.1000000e+01 
7.5000000e-01 3.0000000e+00 5.1500000e+01 
7.5000000e-01 3.0000000e+00 5.2000000e+01 
7.5000000e-01 3.0000000e+00 5.2500000e+01 
7.5000000e-01 3.0000000e+00 5.3000000e+01 
7.5000000e-01 3.0000000e+00 5.3500000e+01 
7.5000000e-01 3.0000000e+00 5.4000000e+01 
7.5000000e-01 3.0000000e+00 5.4500000e+01 
7.5000000e-01 3.0000000e+00 5.5000000e+01 
7.5000000e-01 3.0000000e+00 5.5500000e+01 
7.5000000e-01 3.0000000e+00 5.6000000e+01 
7.5000000e-01 3.0000000e+00 5.6500000e+01 
7.5000000e-01 3.0000000e+00 5.7000000e+01 
7.5000000e-01 3.0000000e+00 5.7500000e+01 
7.5000000e-01 3.0000000e+00 5.8000000e+01 
7.5000000e-01 3.0000000e+00 5.8500000e+01 
7.5000000e-01 3.0000000e+00 5.9000000e+01 
7.5000000e-01 3.0000000e+00 5.9500000e+01 
7.5000000e-01 3.0000000e+00 6.0000000e+01 
7.5000000e-01 3.0000000e+00 6.0500000e+01 
7.5000000e-01 3.0000000e+00 6.1000000e+01 
7.5000000e-01 3.0000000e+00 6.1500000e+01 
7.5000000e-01 3.0000000e+00 6.2000000e+01 
7.5000000e-01 3.0000000e+00 6.2500000e+01 
7.5000000e-01 3.0000000e+00 6.3000000e+01 
7.5000000e-01 3.0000000e+00 6.3500000e+01 
7.5000000e-01 3.0000000e+00 6.4000000e+01 
7.5000000e-01 3.0000000e+00 6.4500000e+01 
7.5000000e-01 3.0000000e+00 6.5000000e+01 
7.5000000e-01 3.0000000e+00 6.5500000e+01 
7.5000000e-01 3.0000000e+00 6.6000000e+01 
7.5000000e-01 3.0000000e+00 6.6500000e+01 
7.5000000e-01 3.0000000e+00 6.7000000e+01 
7.5000000e-01 3.0000000e+00 6.7500000e+01 
7.5000000e-01 3.0000000e+00 6.8000000e+01 
7.5000000e-01 3.0000000e+00 6.8500000e+01 
7.5000000e-01 3.0000000e+00 6.9000000e+01 
7.5000000e-01 3.0000000e+00 6.9500000e+01 
7.5000000e-01 3.0250001e+00 -2.5000000e+01 
7.5000000e-01 3.0250001e+00 -2.4500000e+01 
7.5000000e-01 3.0250001e+00 -2.4000000e+01 
7.5000000e-01 3.0250001e+00 -2.3500000e+01 
7.5000000e-01 3.0250001e+00 -2.3000000e+01 
7.5000000e-01 3.0250001e+00 -2.2500000e+01 
7.5000000e-01 3.0250001e+00 -2.2000000e+01 
7.5000000e-01 3.0250001e+00 -2.1500000e+01 
7.5000000e-01 3.0250001e+00 -2.1000000e+01 
7.5000000e-01 3.0250001e+00 -2.0500000e+01 
7.5000000e-01 3.0250001e+00 -2.0000000e+01 
7.5000000e-01 3.0250001e+00 -1.9500000e+01 
7.5000000e-01 3.0250001e+00 -1.9000000e+01 
7.5000000e-01 3.0250001e+00 -1.8500000e+01 
7.5000000e-01 3.0250001e+00 -1.8000000e+01 
7.5000000e-01 3.0250001e+00 -1.7500000e+01 
7.5000000e-01 3.0250001e+00 -1.7000000e+01 
7.5000000e-01 3.0250001e+00 -1.6500000e+01 
7.5000000e-01 3.0250001e+00 -1.6000000e+01 
7.5000000e-01 3.0250001e+00 -1.5500000e+01 
[...]
POINT_DATA 2186
FIELD FieldData 3
DISPLACEMENT 3 2186  float
0.0000000e+00 0.0000000e+00 0.0000000e+00 
0.0000000e+00 0.0000000e+00 0.0000000e+00 
0.0000000e+00 0.0000000e+00 0.0000000e+00 
0.0000000e+00 0.0000000e+00 0.0000000e+00 
4.7684086e-08 1.6519691e-06 -9.5127325e-06 
3.5970615e-07 -6.2057279e-07 3.9277643e-07 
0.0000000e+00 -1.2024548e-05 0.0000000e+00 
0.0000000e+00 1.0852871e-07 0.0000000e+00 
-1.3440027e-06 9.3691951e-06 -4.4955341e-06 
7.5181117e-07 -6.2831339e-07 6.5025841e-07 
4.4618068e-06 1.4657799e-05 1.1061346e-05 
-2.8147269e-09 3.6625335e-07 8.2652667e-07 
0.0000000e+00 -2.8835695e-05 0.0000000e+00 
0.0000000e+00 -7.5702662e-09 0.0000000e+00 
-1.0804221e-05 5.1208946e-05 -2.5350910e-05 
4.4595802e-07 2.2348249e-07 1.3134409e-06 
-5.8063048e-05 5.4112901e-05 -6.0785010e-06 
1.6023866e-07 3.8351357e-07 2.8805505e-07 
0.0000000e+00 -4.6996993e-05 0.0000000e+00 
0.0000000e+00 -5.3018812e-07 0.0000000e+00 
0.0000000e+00 8.8791248e-06 0.0000000e+00 
0.0000000e+00 4.1360390e-06 0.0000000e+00 
0.0000000e+00 -5.4884313e-06 0.0000000e+00 
0.0000000e+00 -1.1754982e-05 0.0000000e+00 
0.0000000e+00 -9.5882760e-06 0.0000000e+00 
0.0000000e+00 -6.7038638e-07 0.0000000e+00 
0.0000000e+00 8.3423029e-06 0.0000000e+00 
0.0000000e+00 1.1367571e-05 0.0000000e+00 
0.0000000e+00 7.4884065e-06 0.0000000e+00 
0.0000000e+00 9.0724745e-07 0.0000000e+00 
0.0000000e+00 -3.2809560e-06 0.0000000e+00 
0.0000000e+00 -3.5284788e-06 0.0000000e+00 
0.0000000e+00 -2.5986390e-06 0.0000000e+00 
0.0000000e+00 -4.1681046e-06 0.0000000e+00 
0.0000000e+00 -8.4964959e-06 0.0000000e+00 
0.0000000e+00 -1.1290128e-05 0.0000000e+00 
0.0000000e+00 -7.1812037e-06 0.0000000e+00 
0.0000000e+00 4.8913448e-06 0.0000000e+00 
0.0000000e+00 1.9157957e-05 0.0000000e+00 
0.0000000e+00 2.6097485e-05 0.0000000e+00 
0.0000000e+00 1.9276174e-05 0.0000000e+00 
0.0000000e+00 7.6389802e-07 0.0000000e+00 
0.0000000e+00 -1.9312172e-05 0.0000000e+00 
0.0000000e+00 -2.9221972e-05 0.0000000e+00 
0.0000000e+00 -2.3647075e-05 0.0000000e+00 
0.0000000e+00 -7.3401930e-06 0.0000000e+00 
0.0000000e+00 8.5165348e-06 0.0000000e+00 
0.0000000e+00 1.4646719e-05 0.0000000e+00 
0.0000000e+00 1.0213795e-05 0.0000000e+00 
0.0000000e+00 2.3990860e-06 0.0000000e+00 
0.0000000e+00 -3.2136924e-07 0.0000000e+00 
0.0000000e+00 4.6616537e-06 0.0000000e+00 
0.0000000e+00 1.2337893e-05 0.0000000e+00 
0.0000000e+00 1.4725116e-05 0.0000000e+00 
0.0000000e+00 7.7429313e-06 0.0000000e+00 
0.0000000e+00 -5.3067001e-06 0.0000000e+00 
0.0000000e+00 -1.6366432e-05 0.0000000e+00 
0.0000000e+00 -1.9121580e-05 0.0000000e+00 
0.0000000e+00 -1.3845351e-05 0.0000000e+00 
0.0000000e+00 -6.4426422e-06 0.0000000e+00 
0.0000000e+00 -2.8366360e-06 0.0000000e+00 
0.0000000e+00 -4.0455952e-06 0.0000000e+00 
0.0000000e+00 -6.1242786e-06 0.0000000e+00 
0.0000000e+00 -4.2494485e-06 0.0000000e+00 
0.0000000e+00 3.0224769e-06 0.0000000e+00 
0.0000000e+00 1.2610193e-05 0.0000000e+00 
0.0000000e+00 1.9630088e-05 0.0000000e+00 
0.0000000e+00 2.2229937e-05 0.0000000e+00 
0.0000000e+00 2.4583223e-05 0.0000000e+00 
0.0000000e+00 3.4155899e-05 0.0000000e+00 
-3.1903346e-05 7.6880620e-05 -8.8610122e-06 
-1.8961780e-05 9.1312097e-05 -3.8933773e-05 
-5.9944282e-06 9.0828784e-05 -5.1832398e-05 
3.0808809e-05 8.0978440e-05 -7.3406489e-05 
2.4957690e-05 7.2659677e-05 -7.3040741e-05 
3.8890328e-05 7.4898329e-05 -5.5370769e-05 
5.3792155e-05 8.2692284e-05 -4.3972701e-05 
5.7335994e-05 8.2554907e-05 -3.4309054e-05 
6.2685933e-05 6.6298715e-05 -2.4928138e-05 
6.6667206e-05 4.6526064e-05 -2.3415185e-05 
6.3932901e-05 4.7184611e-05 -2.0935033e-05 
8.8515721e-05 8.6419328e-05 -7.3398614e-06 
8.6178079e-05 1.4203574e-04 1.2528937e-05 
7.7263256e-05 1.6954938e-04 4.0282124e-05 
7.5279182e-05 1.4514776e-04 5.8490215e-05 
7.4621828e-05 7.5138189e-05 9.7398457e-05 
3.8320333e-05 -3.7278449e-05 1.6298731e-04 
2.2163582e-05 -2.3080932e-04 1.7196810e-04 
-4.3646574e-05 -6.3275459e-04 2.8527857e-04 
-6.6854896e-05 -1.4172359e-03 2.2185099e-04 
-1.8073445e-04 -2.6389027e-03 3.0906254e-04 
-2.8714797e-04 -4.0320228e-03 1.0107434e-04 
-3.8452959e-04 -5.0443639e-03 1.3512667e-04 
-4.1974054e-04 -5.0167171e-03 3.7025319e-07 
-4.4482495e-04 -4.5802118e-03 -1.2729710e-04 
-6.3181232e-04 -4.4476758e-03 -1.1258034e-04 
-2.9993997e-04 -4.6839667e-03 -1.6775682e-04 
-2.5059379e-04 -4.8007378e-03 -2.6602560e-04 
-1.8575511e-04 -4.0574539e-03 -4.0727441e-04 
-1.4299023e-04 -2.7251760e-03 -2.8633623e-04 
-2.5517056e-05 -1.4625415e-03 -3.1755923e-04 
3.2997837e-06 -5.4126536e-04 -1.3447658e-04 
6.0306596e-05 -5.9614440e-06 -9.7811630e-05 
9.6525568e-05 2.1038990e-04 -9.7414559e-06 
5.4782166e-05 2.2218267e-04 6.5096356e-05 
2.6102580e-05 1.5812281e-04 1.0311622e-04 
-3.3483184e-06 1.0288730e-04 1.4065980e-04 
-3.2146010e-05 7.0180104e-05 1.2749259e-04 
-5.4416298e-05 4.5275625e-05 1.1033054e-04 
-4.0436389e-05 2.4413595e-05 6.4918138e-05 
-6.5114487e-05 1.9704998e-05 9.6459617e-06 
-4.1589014e-05 3.5323352e-05 -3.6490052e-05 
-1.2806985e-05 5.7165060e-05 -6.7581954e-05 
-5.0403933e-06 6.4672306e-05 -6.8125220e-05 
9.0937274e-06 5.5852055e-05 -7.1836315e-05 
3.3870121e-05 4.8286518e-05 -5.8405738e-05 
4.1968080e-05 5.3611206e-05 -4.4669483e-05 
6.5075576e-05 6.8763715e-05 -4.1652835e-05 
5.9621383e-05 7.6685370e-05 -2.4308452e-05 
7.6409822e-05 6.3934916e-05 -1.7401639e-05 
7.4407464e-05 4.5022549e-05 -1.1577968e-05 
8.8171299e-05 6.0590275e-05 1.2978891e-05 
9.3740091e-05 1.2039218e-04 2.9365938e-05 
8.4347143e-05 1.8603008e-04 5.6450022e-05 
8.7424378e-05 1.9774499e-04 7.4060532e-05 
8.1121660e-05 1.1126239e-04 1.0506167e-04 
4.1405390e-05 -7.6694349e-05 1.5166783e-04 
3.5287845e-05 -3.6431864e-04 1.6992219e-04 
-4.6476642e-05 -8.2686939e-04 2.8747987e-04 
-9.6651660e-05 -1.6002986e-03 2.2735230e-04 
-1.9684841e-04 -2.7889395e-03 3.3786471e-04 
-2.9596139e-04 -4.2166766e-03 1.3251007e-04 
-3.9096139e-04 -5.2594207e-03 1.1071844e-04 
-4.1891396e-04 -5.0779656e-03 -2.1280237e-06 
-4.0138880e-04 -4.5108306e-03 -1.0752412e-04 
-3.9156349e-04 -4.3020514e-03 -1.4189226e-04 
-3.5796867e-04 -4.6427478e-03 -1.9006799e-04 
-3.8269308e-04 -4.8122667e-03 -2.8965771e-04 
-2.9356961e-04 -3.9509479e-03 -4.7928235e-04 
-1.7917437e-04 -2.5475624e-03 -3.1940255e-04 
-3.4444933e-05 -1.2762552e-03 -3.3990582e-04 
-1.6374337e-06 -3.9591378e-04 -1.7037686e-04 
4.0603914e-05 5.8656933e-05 -1.1117918e-04 
6.6851448e-05 2.0742751e-04 -4.8499001e-05 
6.7329871e-05 2.0913384e-04 2.6001512e-06 
3.6841811e-05 1.6282656e-04 3.5285655e-05 
4.4656830e-05 1.0804393e-04 8.0008671e-05 
1.1955989e-05 5.4085616e-05 1.0146400e-04 
-1.9992496e-05 1.0372675e-05 9.4330877e-05 
-1.9492303e-05 -1.2189127e-05 7.0540060e-05 
-3.3300857e-05 -1.3547960e-05 1.8690323e-05 
-2.8919076e-05 -6.3180755e-06 -1.0223785e-05 
-1.4017849e-05 -1.5988896e-06 -2.6831280e-05 
-1.1235119e-05 2.5560308e-07 -2.1994359e-05 
6.6294285e-07 4.0423088e-06 -1.8059205e-05 
1.9076015e-06 9.2880191e-06 -1.1205268e-05 
3.1122013e-06 1.0836597e-05 -7.7941622e-06 
6.9608104e-06 6.7262154e-06 -7.2418766e-06 
5.0801168e-06 4.8591641e-08 -4.6736527e-06 
3.5774387e-06 -4.0814530e-06 -2.9133234e-06 
3.1849436e-06 -4.3552723e-06 8.4434348e-08 
1.4534882e-06 -3.1415905e-06 2.0193095e-06 
6.0099921e-07 -2.5717086e-06 1.8681293e-06 
-4.4920617e-07 -2.3577434e-06 1.4167982e-06 
-1.7794293e-06 -1.1717237e-06 1.4186400e-06 
-1.1454159e-06 5.4980035e-07 1.9467080e-07 
-7.9028905e-07 1.4614164e-06 6.7927665e-08 
-2.6904414e-07 1.1030943e-06 4.7567323e-07 
-1.5182179e-07 3.8096755e-07 2.2664467e-07 
0.0000000e+00 9.6101644e-07 0.0000000e+00 
0.0000000e+00 1.1825708e-06 0.0000000e+00 
0.0000000e+00 4.8700122e-07 0.0000000e+00 
0.0000000e+00 -6.8999384e-07 0.0000000e+00 
0.0000000e+00 -1.4793235e-06 0.0000000e+00 
0.0000000e+00 -1.5091124e-06 0.0000000e+00 
0.0000000e+00 -1.0909869e-06 0.0000000e+00 
0.0000000e+00 -6.1404063e-07 0.0000000e+00 
0.0000000e+00 -7.0882308e-08 0.0000000e+00 
0.0000000e+00 6.8400834e-07 0.0000000e+00 
0.0000000e+00 1.4081077e-06 0.0000000e+00 
0.0000000e+00 1.4987340e-06 0.0000000e+00 
0.0000000e+00 6.3598361e-07 0.0000000e+00 
0.0000000e+00 -7.2818887e-07 0.0000000e+00 
0.0000000e+00 -1.6533940e-06 0.0000000e+00 
0.0000000e+00 -1.4994247e-06 0.0000000e+00 
0.0000000e+00 -4.2482699e-07 0.0000000e+00 
0.0000000e+00 8.2350704e-07 0.0000000e+00 
0.0000000e+00 1.5133577e-06 0.0000000e+00 
0.0000000e+00 1.3475005e-06 0.0000000e+00 
0.0000000e+00 4.8441325e-07 0.0000000e+00 
0.0000000e+00 -6.4028882e-07 0.0000000e+00 
0.0000000e+00 -1.4785226e-06 0.0000000e+00 
0.0000000e+00 -1.5475472e-06 0.0000000e+00 
0.0000000e+00 -7.0032871e-07 0.0000000e+00 
0.0000000e+00 6.5880545e-07 0.0000000e+00 
0.0000000e+00 1.7032550e-06 0.0000000e+00 
0.0000000e+00 1.7099430e-06 0.0000000e+00 
0.0000000e+00 6.1560041e-07 0.0000000e+00 
0.0000000e+00 -8.8137483e-07 0.0000000e+00 
0.0000000e+00 -1.7994107e-06 0.0000000e+00 
0.0000000e+00 -1.5622686e-06 0.0000000e+00 
0.0000000e+00 -3.6872018e-07 0.0000000e+00 
0.0000000e+00 9.9384192e-07 0.0000000e+00 
0.0000000e+00 1.6960754e-06 0.0000000e+00 
0.0000000e+00 1.3699588e-06 0.0000000e+00 
0.0000000e+00 2.7688870e-07 0.0000000e+00 
0.0000000e+00 -8.8983558e-07 0.0000000e+00 
0.0000000e+00 -1.3968848e-06 0.0000000e+00 
0.0000000e+00 8.5995753e-06 0.0000000e+00 
0.0000000e+00 3.9931624e-06 0.0000000e+00 
0.0000000e+00 -5.3555764e-06 0.0000000e+00 
0.0000000e+00 -1.1446263e-05 0.0000000e+00 
0.0000000e+00 -9.3456065e-06 0.0000000e+00 
0.0000000e+00 -6.7401891e-07 0.0000000e+00 
0.0000000e+00 8.1188682e-06 0.0000000e+00 
0.0000000e+00 1.1125423e-05 0.0000000e+00 
0.0000000e+00 7.4267787e-06 0.0000000e+00 
0.0000000e+00 1.0577373e-06 0.0000000e+00 
0.0000000e+00 -3.0703643e-06 0.0000000e+00 
0.0000000e+00 -3.4539091e-06 0.0000000e+00 
0.0000000e+00 -2.7290043e-06 0.0000000e+00 
0.0000000e+00 -4.3857003e-06 0.0000000e+00 
0.0000000e+00 -8.5977581e-06 0.0000000e+00 
0.0000000e+00 -1.1163440e-05 0.0000000e+00 
0.0000000e+00 -6.9122298e-06 0.0000000e+00 
0.0000000e+00 5.0815061e-06 0.0000000e+00 
0.0000000e+00 1.9096267e-05 0.0000000e+00 
0.0000000e+00 2.5809928e-05 0.0000000e+00 
0.0000000e+00 1.8976405e-05 0.0000000e+00 
0.0000000e+00 6.8735261e-07 0.0000000e+00 
0.0000000e+00 -1.9095201e-05 0.0000000e+00 
0.0000000e+00 -2.8868400e-05 0.0000000e+00 
0.0000000e+00 -2.3427918e-05 0.0000000e+00 
0.0000000e+00 -7.4305908e-06 0.0000000e+00 
0.0000000e+00 8.1845619e-06 0.0000000e+00 
0.0000000e+00 1.4339214e-05 0.0000000e+00 
0.0000000e+00 1.0177889e-05 0.0000000e+00 
0.0000000e+00 2.6551511e-06 0.0000000e+00 
0.0000000e+00 8.0292644e-09 0.0000000e+00 
0.0000000e+00 4.7980579e-06 0.0000000e+00 
0.0000000e+00 1.2186184e-05 0.0000000e+00 
0.0000000e+00 1.4425796e-05 0.0000000e+00 
0.0000000e+00 7.5478511e-06 0.0000000e+00 
0.0000000e+00 -5.2388486e-06 0.0000000e+00 
0.0000000e+00 -1.6099926e-05 0.0000000e+00 
0.0000000e+00 -1.8892400e-05 0.0000000e+00 
0.0000000e+00 -1.3855486e-05 0.0000000e+00 
0.0000000e+00 -6.6773855e-06 0.0000000e+00 
0.0000000e+00 -3.0860119e-06 0.0000000e+00 
0.0000000e+00 -4.1080725e-06 0.0000000e+00 
0.0000000e+00 -5.9788626e-06 0.0000000e+00 
0.0000000e+00 -4.0425543e-06 0.0000000e+00 
0.0000000e+00 3.1152865e-06 0.0000000e+00 
0.0000000e+00 1.2509348e-05 0.0000000e+00 
0.0000000e+00 1.9410121e-05 0.0000000e+00 
0.0000000e+00 2.2095184e-05 0.0000000e+00 
0.0000000e+00 2.4728668e-05 0.0000000e+00 
0.0000000e+00 3.4585210e-05 0.0000000e+00 
0.0000000e+00 5.4351000e-05 0.0000000e+00 
0.0000000e+00 7.6847362e-05 0.0000000e+00 
0.0000000e+00 9.0913709e-05 0.0000000e+00 
0.0000000e+00 9.0620066e-05 0.0000000e+00 
0.0000000e+00 8.1012666e-05 0.0000000e+00 
0.0000000e+00 7.3144765e-05 0.0000000e+00 
0.0000000e+00 7.5243050e-05 0.0000000e+00 
0.0000000e+00 8.2718827e-05 0.0000000e+00 
0.0000000e+00 8.1996732e-05 0.0000000e+00 
0.0000000e+00 6.5621760e-05 0.0000000e+00 
0.0000000e+00 4.6224744e-05 0.0000000e+00 
0.0000000e+00 4.8600552e-05 0.0000000e+00 
0.0000000e+00 8.7586021e-05 0.0000000e+00 
0.0000000e+00 1.4172627e-04 0.0000000e+00 
0.0000000e+00 1.6855010e-04 0.0000000e+00 
0.0000000e+00 1.4462379e-04 0.0000000e+00 
0.0000000e+00 7.5941411e-05 0.0000000e+00 
0.0000000e+00 -3.3955614e-05 0.0000000e+00 
0.0000000e+00 -2.2800300e-04 0.0000000e+00 
0.0000000e+00 -6.3560548e-04 0.0000000e+00 
0.0000000e+00 -1.4284909e-03 0.0000000e+00 
0.0000000e+00 -2.6507624e-03 0.0000000e+00 
0.0000000e+00 -4.0537454e-03 0.0000000e+00 
0.0000000e+00 -5.0642281e-03 0.0000000e+00 
0.0000000e+00 -5.0512166e-03 0.0000000e+00 
0.0000000e+00 -4.6080598e-03 0.0000000e+00 
0.0000000e+00 -4.4670803e-03 0.0000000e+00 
0.0000000e+00 -4.7099739e-03 0.0000000e+00 
0.0000000e+00 -4.8319618e-03 0.0000000e+00 
0.0000000e+00 -4.0806015e-03 0.0000000e+00 
0.0000000e+00 -2.7436262e-03 0.0000000e+00 
0.0000000e+00 -1.4699524e-03 0.0000000e+00 
0.0000000e+00 -5.4528686e-04 0.0000000e+00 
0.0000000e+00 -7.4322438e-06 0.0000000e+00 
0.0000000e+00 2.1050604e-04 0.0000000e+00 
0.0000000e+00 2.2429904e-04 0.0000000e+00 
0.0000000e+00 1.6064152e-04 0.0000000e+00 
0.0000000e+00 1.0358102e-04 0.0000000e+00 
0.0000000e+00 6.9663598e-05 0.0000000e+00 
0.0000000e+00 4.4799934e-05 0.0000000e+00 
0.0000000e+00 2.4808813e-05 0.0000000e+00 
0.0000000e+00 2.0378147e-05 0.0000000e+00 
0.0000000e+00 3.5587113e-05 0.0000000e+00 
0.0000000e+00 5.6572353e-05 0.0000000e+00 
0.0000000e+00 6.4020154e-05 0.0000000e+00 
0.0000000e+00 5.5947294e-05 0.0000000e+00 
0.0000000e+00 4.8559432e-05 0.0000000e+00 
0.0000000e+00 5.4201839e-05 0.0000000e+00 
0.0000000e+00 6.9018737e-05 0.0000000e+00 
0.0000000e+00 7.5816606e-05 0.0000000e+00 
0.0000000e+00 6.2665393e-05 0.0000000e+00 
0.0000000e+00 4.5625151e-05 0.0000000e+00 
0.0000000e+00 6.2071704e-05 0.0000000e+00 
0.0000000e+00 1.2169823e-04 0.0000000e+00 
0.0000000e+00 1.8620446e-04 0.0000000e+00 
0.0000000e+00 1.9620146e-04 0.0000000e+00 
0.0000000e+00 1.1043590e-04 0.0000000e+00 
0.0000000e+00 -7.4550961e-05 0.0000000e+00 
0.0000000e+00 -3.6221495e-04 0.0000000e+00 
0.0000000e+00 -8.2676782e-04 0.0000000e+00 
0.0000000e+00 -1.6085941e-03 0.0000000e+00 
0.0000000e+00 -2.8045489e-03 0.0000000e+00 
0.0000000e+00 -4.2465534e-03 0.0000000e+00 
0.0000000e+00 -5.2805045e-03 0.0000000e+00 
0.0000000e+00 -5.1063201e-03 0.0000000e+00 
0.0000000e+00 -4.5301574e-03 0.0000000e+00 
0.0000000e+00 -4.3343389e-03 0.0000000e+00 
0.0000000e+00 -4.6676504e-03 0.0000000e+00 
0.0000000e+00 -4.8444825e-03 0.0000000e+00 
0.0000000e+00 -3.9682463e-03 0.0000000e+00 
0.0000000e+00 -2.5642535e-03 0.0000000e+00 
0.0000000e+00 -1.2844157e-03 0.0000000e+00 
0.0000000e+00 -4.0075046e-04 0.0000000e+00 
0.0000000e+00 5.8207941e-05 0.0000000e+00 
0.0000000e+00 2.1018990e-04 0.0000000e+00 
0.0000000e+00 2.1109995e-04 0.0000000e+00 
0.0000000e+00 1.6355528e-04 0.0000000e+00 
0.0000000e+00 1.0804986e-04 0.0000000e+00 
0.0000000e+00 5.4303753e-05 0.0000000e+00 
0.0000000e+00 1.0847639e-05 0.0000000e+00 
0.0000000e+00 -1.1919386e-05 0.0000000e+00 
0.0000000e+00 -1.3761616e-05 0.0000000e+00 
0.0000000e+00 -6.6562552e-06 0.0000000e+00 
0.0000000e+00 -1.6510196e-06 0.0000000e+00 
0.0000000e+00 4.9107746e-07 0.0000000e+00 
0.0000000e+00 4.1261546e-06 0.0000000e+00 
0.0000000e+00 9.0762233e-06 0.0000000e+00 
0.0000000e+00 1.0687955e-05 0.0000000e+00 
0.0000000e+00 6.7479427e-06 0.0000000e+00 
0.0000000e+00 2.0971716e-07 0.0000000e+00 
0.0000000e+00 -4.0064333e-06 0.0000000e+00 
0.0000000e+00 -4.4052954e-06 0.0000000e+00 
0.0000000e+00 -3.2047924e-06 0.0000000e+00 
0.0000000e+00 -2.5751360e-06 0.0000000e+00 
0.0000000e+00 -2.2955953e-06 0.0000000e+00 
0.0000000e+00 -1.1678248e-06 0.0000000e+00 
0.0000000e+00 5.0271007e-07 0.0000000e+00 
0.0000000e+00 1.4280121e-06 0.0000000e+00 
0.0000000e+00 1.1180796e-06 0.0000000e+00 
0.0000000e+00 4.2692415e-07 0.0000000e+00 
0.0000000e+00 3.9700700e-07 0.0000000e+00 
0.0000000e+00 9.3937177e-07 0.0000000e+00 
0.0000000e+00 1.1535526e-06 0.0000000e+00 
0.0000000e+00 4.8329002e-07 0.0000000e+00 
0.0000000e+00 -6.7029993e-07 0.0000000e+00 
0.0000000e+00 -1.4647412e-06 0.0000000e+00 
0.0000000e+00 -1.5156887e-06 0.0000000e+00 
0.0000000e+00 -1.1042841e-06 0.0000000e+00 
0.0000000e+00 -6.1248721e-07 0.0000000e+00 
0.0000000e+00 -5.6034686e-08 0.0000000e+00 
0.0000000e+00 6.9029284e-07 0.0000000e+00 
0.0000000e+00 1.3934098e-06 0.0000000e+00 
0.0000000e+00 1.4767541e-06 0.0000000e+00 
0.0000000e+00 6.3012436e-07 0.0000000e+00 
0.0000000e+00 -7.1186793e-07 0.0000000e+00 
0.0000000e+00 -1.6312258e-06 0.0000000e+00 
0.0000000e+00 -1.4904474e-06 0.0000000e+00 
0.0000000e+00 -4.3209209e-07 0.0000000e+00 
0.0000000e+00 8.1084954e-07 0.0000000e+00 
0.0000000e+00 1.5047996e-06 0.0000000e+00 
0.0000000e+00 1.3433543e-06 0.0000000e+00 
0.0000000e+00 4.8207812e-07 0.0000000e+00 
0.0000000e+00 -6.3853815e-07 0.0000000e+00 
0.0000000e+00 -1.4685113e-06 0.0000000e+00 
0.0000000e+00 -1.5323861e-06 0.0000000e+00 
0.0000000e+00 -6.9163866e-07 0.0000000e+00 
0.0000000e+00 6.5165511e-07 0.0000000e+00 
0.0000000e+00 1.6839363e-06 0.0000000e+00 
0.0000000e+00 1.6930667e-06 0.0000000e+00 
0.0000000e+00 6.1365415e-07 0.0000000e+00 
0.0000000e+00 -8.6826509e-07 0.0000000e+00 
0.0000000e+00 -1.7816794e-06 0.0000000e+00 
0.0000000e+00 -1.5512684e-06 0.0000000e+00 
0.0000000e+00 -3.6940892e-07 0.0000000e+00 
0.0000000e+00 9.8347880e-07 0.0000000e+00 
0.0000000e+00 1.6820036e-06 0.0000000e+00 
0.0000000e+00 1.3592299e-06 0.0000000e+00 
0.0000000e+00 2.7502455e-07 0.0000000e+00 
0.0000000e+00 -8.8192172e-07 0.0000000e+00 
0.0000000e+00 -1.3845449e-06 0.0000000e+00 
0.0000000e+00 0.0000000e+00 0.0000000e+00 
0.0000000e+00 0.0000000e+00 0.0000000e+00 
0.0000000e+00 0.0000000e+00 0.0000000e+00 
0.0000000e+00 0.0000000e+00 0.0000000e+00 
0.0000000e+00 0.0000000e+00 0.0000000e+00 
0.0000000e+00 0.0000000e+00 0.0000000e+00 
0.0000000e+00 0.0000000e+00 0.0000000e+00 
0.0000000e+00 0.0000000e+00 0.0000000e+00 
0.0000000e+00 0.0000000e+00 0.0000000e+00 
0.0000000e+00 0.0000000e+00 0.0000000e+00 
0.0000000e+00 0.0000000e+00 0.0000000e+00 
0.0000000e+00 0.0000000e+00 0.0000000e+00 
0.0000000e+00 0.0000000e+00 0.0000000e+00 
0.0000000e+00 0.0000000e+00 0.0000000e+00 
0.0000000e+00 0.0000000e+00 0.0000000e+00 
0.0000000e+00 0.0000000e+00 0.0000000e+00 
0.0000000e+00 0.0000000e+00 0.0000000e+00 
0.0000000e+00 0.0000000e+00 0.0000000e+00 
0.0000000e+00 0.0000000e+00 0.0000000e+00 
0.0000000e+00 0.0000000e+00 0.0000000e+00 
0.0000000e+00 0.0000000e+00 0.0000000e+00 
0.0000000e+00 0.0000000e+00 0.0000000e+00 
0.0000000e+00 0.0000000e+00 0.0000000e+00 
0.0000000e+00 0.0000000e+00 0.0000000e+00 
0.0000000e+00 0.0000000e+00 0.0000000e+00 
0.0000000e+00 0.0000000e+00 0.0000000e+00 
0.0000000e+00 0.0000000e+00 0.0000000e+00 
0.0000000e+00 0.0000000e+00 0.0000000e+00 
0.0000000e+00 0.0000000e+00 0.0000000e+00 
0.0000000e+00 0.0000000e+00 0.0000000e+00 
0.0000000e+00 0.0000000e+00 0.0000000e+00 
0.0000000e+00 0.0000000e+00 0.0000000e+00 
0.0000000e+00 0.0000000e+00 0.0000000e+00 
0.0000000e+00 0.0000000e+00 0.0000000e+00 
0.0000000e+00 0.0000000e+00 0.0000000e+00 
0.0000000e+00 0.0000000e+00 0.0000000e+00 
0.0000000e+00 0.0000000e+00 0.0000000e+00 
0.0000000e+00 0.0000000e+00 0.0000000e+00 
0.0000000e+00 0.0000000e+00 0.0000000e+00 
0.0000000e+00 0.0000000e+00 0.0000000e+00 
0.0000000e+00 0.0000000e+00 0.0000000e+00 
0.0000000e+00 0.0000000e+00 0.0000000e+00 
0.0000000e+00 0.0000000e+00 0.0000000e+00 
0.0000000e+00 0.0000000e+00 0.0000000e+00 
0.0000000e+00 0.0000000e+00 0.0000000e+00 
0.0000000e+00 0.0000000e+00 0.0000000e+00 
0.0000000e+00 0.0000000e+00 0.0000000e+00 
0.0000000e+00 0.0000000e+00 0.0000000e+00 
0.0000000e+00 0.0000000e+00 0.0000000e+00 
0.0000000e+00 0.0000000e+00 0.0000000e+00 
0.0000000e+00 0.0000000e+00 0.0000000e+00 
0.0000000e+00 0.0000000e+00 0.0000000e+00 
0.0000000e+00 0.0000000e+00 0.0000000e+00 
0.0000000e+00 0.0000000e+00 0.0000000e+00 
0.0000000e+00 0.0000000e+00 0.0000000e+00 
0.0000000e+00 0.0000000e+00 0.0000000e+00 
0.0000000e+00 0.0000000e+00 0.0000000e+00 
0.0000000e+00 0.0000000e+00 0.0000000e+00 