# vtk DataFile Version 4.0
vtk output
ASCII
DATASET UNSTRUCTURED_GRID
POINTS 2186 float
0.0000000e+00 0.0000000e+00 0.0000000e+00 
0.0000000e+00 0.0000000e+00 5.0000000e+01 
5.0000000e+00 0.0000000e+00 0.0000000e+00 
5.0000000e+00 0.0000000e+00 5.0000000e+01 
5.0000000e+00 1.0000000e+00 0.0000000e+00 
5.0000000e+00 1.0000000e+00 5.0000000e+01 
0.0000000e+00 1.0000000e+00 0.0000000e+00 
0.0000000e+00 1.0000000e+00 5.0000000e+01 
5.0000000e+00 2.0000000e+00 0.0000000e+00 
5.0000000e+00 2.0000000e+00 5.0000000e+01 
3.0000000e+00 2.0000000e+00 0.0000000e+00 
3.0000000e+00 2.0000000e+00 5.0000000e+01 
0.0000000e+00 2.0000000e+00 0.0000000e+00 
0.0000000e+00 2.0000000e+00 5.0000000e+01 
1.5000000e+00 3.0000000e+00 0.0000000e+00 
1.5000000e+00 3.0000000e+00 5.0000000e+01 
7.5000000e-01 3.0000000e+00 0.0000000e+00 
7.5000000e-01 3.0000000e+00 5.0000000e+01 
0.0000000e+00 3.0000000e+00 0.0000000e+00 
0.0000000e+00 3.0000000e+00 5.0000000e+01 
7.5000000e-01 3.0000000e+00 -2.5000000e+01 
7.5000000e-01 3.0000000e+00 -2.4500000e+01 
7.5000000e-01 3.0000000e+00 -2.4000000e+01 
7.5000000e-01 3.0000000e+00 -2.3500000e+01 
7.5000000e-01 3.0000000e+00 -2.3000000e+01 
7.5000000e-01 3.0000000e+00 -2.2500000e+01 
7.5000000e-01 3.0000000e+00 -2.2000000e+01 
7.5000000e-01 3.0000000e+00 -2.1500000e+01 
7.5000000e-01 3.0000000e+00 -2.1000000e+01 
7.5000000e-01 3.0000000e+00 -2.0500000e+01 
7.5000000e-01 3.0000000e+00 -2.0000000e+01 
7.5000000e-01 3.0000000e+00 -1.9500000e+01 
7.5000000e-01 3.0000000e+00 -1.9000000e+01 
7.5000000e-01 3.0000000e+00 -1.8500000e+01 
7.5000000e-01 3.0000000e+00 -1.8000000e+01 
7.5000000e-01 3.0000000e+00 -1.7500000e+01 
7.5000000e-01 3.0000000e+00 -1.7000000e+01 
7.5000000e-01 3.0000000e+00 -1.6500000e+01 
7.5000000e-01 3.0000000e+00 -1.6000000e+01 
7.5000000e-01 3.0000000e+00 -1.5500000e+01 
7.5000000e-01 3.0000000e+00 -1.5000000e+01 
7.5000000e-01 3.0000000e+00 -1.4500000e+01 
7.5000000e-01 3.0000000e+00 -1.4000000e+01 
7.5000000e-01 3.0000000e+00 -1.3500000e+01 
7.5000000e-01 3.0000000e+00 -1.3000000e+01 
7.5000000e-01 3.0000000e+00 -1.2500000e+01 
7.5000000e-01 3.0000000e+00 -1.2000000e+01 
7.5000000e-01 3.0000000e+00 -1.1500000e+01 
7.5000000e-01 3.0000000e+00 -1.1000000e+01 
7.5000000e-01 3.0000000e+00 -1.0500000e+01 
7.5000000e-01 3.0000000e+00 -1.0000000e+01 
7.5000000e-01 3.0000000e+00 -9.5000000e+00 
7.5000000e-01 3.0000000e+00 -9.0000000e+00 
7.5000000e-01 3.0000000e+00 -8.5000000e+00 
7.5000000e-01 3.0000000e+00 -8.0000000e+00 
7.5000000e-01 3.0000000e+00 -7.5000000e+00 
7.5000000e-01 3.0000000e+00 -7.0000000e+00 
7.5000000e-01 3.0000000e+00 -6.5000000e+00 
7.5000000e-01 3.0000000e+00 -6.0000000e+00 
7.5000000e-01 3.0000000e+00 -5.5000000e+00 
7.5000000e-01 3.0000000e+00 -5.0000000e+00 
7.5000000e-01 3.0000000e+00 -4.5000000e+00 
7.5000000e-01 3.0000000e+00 -4.0000000e+00 
7.5000000e-01 3.0000000e+00 -3.5000000e+00 
7.5000000e-01 3.0000000e+00 -3.0000000e+00 
7.5000000e-01 3.0000000e+00 -2.5000000e+00 
7.5000000e-01 3.0000000e+00 -2.0000000e+00 
7.5000000e-01 3.0000000e+00 -1.5000000e+00 
7.5000000e-01 3.0000000e+00 -1.0000000e+00 
7.5000000e-01 3.0000000e+00 -5.0000000e-01 
7.5000000e-01 3.0000000e+00 5.0000000e-01 
7.5000000e-01 3.0000000e+00 1.0000000e+00 
7.5000000e-01 3.0000000e+00 1.5000000e+00 
7.5000000e-01 3.0000000e+00 2.0000000e+00 
7.5000000e-01 3.0000000e+00 2.5000000e+00 
7.5000000e-01 3.0000000e+00 3.0000000e+00 
7.5000000e-01 3.0000000e+00 3.5000000e+00 
7.5000000e-01 3.0000000e+00 4.0000000e+00 
7.5000000e-01 3.0000000e+00 4.5000000e+00 
7.5000000e-01 3.0000000e+00 5.0000000e+00 
7.5000000e-01 3.0000000e+00 5.5000000e+00 
7.5000000e-01 3.0000000e+00 6.0000000e+00 
7.5000000e-01 3.0000000e+00 6.5000000e+00 
7.5000000e-01 3.0000000e+00 7.0000000e+00 
7.5000000e-01 3.0000000e+00 7.5000000e+00 
7.5000000e-01 3.0000000e+00 8.0000000e+00 
7.5000000e-01 3.0000000e+00 8.5000000e+00 
7.5000000e-01 3.0000000e+00 9.0000000e+00 
7.5000000e-01 3.0000000e+00 9.5000000e+00 
7.5000000e-01 3.0000000e+00 1.0000000e+01 
7.5000000e-01 3.0000000e+00 1.0500000e+01 
7.5000000e-01 3.0000000e+00 1.1000000e+01 
7.5000000e-01 3.0000000e+00 1.1500000e+01 
7.5000000e-01 3.0000000e+00 1.2000000e+01 
7.5000000e-01 3.0000000e+00 1.2500000e+01 
7.5000000e-01 3.0000000e+00 1.3000000e+01 
7.5000000e-01 3.0000000e+00 1.3500000e+01 
7.5000000e-01 3.0000000e+00 1.4000000e+01 
7.5000000e-01 3.0000000e+00 1.4500000e+01 
7.5000000e-01 3.0000000e+00 1.5000000e+01 
7.5000000e-01 3.0000000e+00 1.5500000e+01 
7.5000000e-01 3.0000000e+00 1.6000000e+01 
7.5000000e-01 3.0000000e+00 1.6500000e+01 
7.5000000e-01 3.0000000e+00 1.7000000e+01 
7.5000000e-01 3.0000000e+00 1.7500000e+01 
7.5000000e-01 3.0000000e+00 1.8000000e+01 
7.5000000e-01 3.0000000e+00 1.8500000e+01 
7.5000000e-01 3.0000000e+00 1.9000000e+01 
7.5000000e-01 3.0000000e+00 1.9500000e+01 
7.5000000e-01 3.0000000e+00 2.0000000e+01 
7.5000000e-01 3.0000000e+00 2.0500000e+01 
7.5000000e-01 3.0000000e+00 2.1000000e+01 
7.5000000e-01 3.0000000e+00 2.1500000e+01 
7.5000000e-01 3.0000000e+00 2.2000000e+01 
7.5000000e-01 3.0000000e+00 2.2500000e+01 
7.5000000e-01 3.0000000e+00 2.3000000e+01 
7.5000000e-01 3.0000000e+00 2.3500000e+01 
7.5000000e-01 3.0000000e+00 2.4000000e+01 
7.5000000e-01 3.0000000e+00 2.4500000e+01 
7.5000000e-01 3.0000000e+00 2.5000000e+01 
7.5000000e-01 3.0000000e+00 2.5500000e+01 
7.5000000e-01 3.0000000e+00 2.6000000e+01 
7.5000000e-01 3.0000000e+00 2.6500000e+01 
7.5000000e-01 3.0000000e+00 2.7000000e+01 
7.5000000e-01 3.0000000e+00 2.7500000e+01 
7.5000000e-01 3.0000000e+00 2.8000000e+01 
7.5000000e-01 3.0000000e+00 2.8500000e+01 
7.5000000e-01 3.0000000e+00 2.9000000e+01 
7.5000000e-01 3.0000000e+00 2.9500000e+01 
7.5000000e-01 3.0000000e+00 3.0000000e+01 
7.5000000e-01 3.0000000e+00 3.0500000e+01 
7.5000000e-01 3.0000000e+00 3.1000000e+01 
7.5000000e-01 3.0000000e+00 3.1500000e+01 
7.5000000e-01 3.0000000e+00 3.2000000e+01 
7.5000000e-01 3.0000000e+00 3.2500000e+01 
7.5000000e-01 3.0000000e+00 3.3000000e+01 
7.5000000e-01 3.0000000e+00 3.3500000e+01 
7.5000000e-01 3.0000000e+00 3.4000000e+01 
7.5000000e-01 3.0000000e+00 3.4500000e+01 
7.5000000e-01 3.0000000e+00 3.5000000e+01 
7.5000000e-01 3.0000000e+00 3.5500000e+01 
7.5000000e-01 3.0000000e+00 3.6000000e+01 
7.5000000e-01 3.0000000e+00 3.6500000e+01 
7.5000000e-01 3.0000000e+00 3.7000000e+01 
7.5000000e-01 3.0000000e+00 3.7500000e+01 
7.5000000e-01 3.0000000e+00 3.8000000e+01 
7.5000000e-01 3.0000000e+00 3.8500000e+01 
7.5000000e-01 3.0000000e+00 3.9000000e+01 
7.5000000e-01 3.0000000e+00 3.9500000e+01 
7.5000000e-01 3.0000000e+00 4.0000000e+01 
7.5000000e-01 3.0000000e+00 4.0500000e+01 
7.5000000e-01 3.0000000e+00 4.1000000e+01 
7.5000000e-01 3.0000000e+00 4.1500000e+01 
7.5000000e-01 3.0000000e+00 4.2000000e+01 
7.5000000e-01 3.0000000e+00 4.2500000e+01 
7.5000000e-01 3.0000000e+00 4.3000000e+01 
7.5000000e-01 3.0000000e+00 4.3500000e+01 
7.5000000e-01 3.0000000e+00 4.4000000e+01 
7.5000000e-01 3.0000000e+00 4.4500000e+01 
7.5000000e-01 3.0000000e+00 4.5000000e+01 
7.5000000e-01 3.0000000e+00 4.5500000e+01 
7.5000000e-01 3.0000000e+00 4.6000000e+01 
7.5000000e-01 3.0000000e+00 4.6500000e+01 
7.5000000e-01 3.0000000e+00 4.7000000e+01 
7.5000000e-01 3.0000000e+00 4.7500000e+01 
7.5000000e-01 3.0000000e+00 4.8000000e+01 
7.5000000e-01 3.0000000e+00 4.8500000e+01 
7.5000000e-01 3.0000000e+00 4.9000000e+01 
7.5000000e-01 3.0000000e+00 4.9500000e+01 
7.5000000e-01 3.0000000e+00 5.0500000e+01 
7.5000000e-01 3.0000000e+00 5.1000000e+01 
7.5000000e-01 3.0000000e+00 5.1500000e+01 
7.5000000e-01 3.0000000e+00 5.2000000e+01 
7.5000000e-01 3.0000000e+00 5.2500000e+01 
7.5000000e-01 3.0000000e+00 5.3000000e+01 
7.5000000e-01 3.0000000e+00 5.3500000e+01 
7.5000000e-01 3.0000000e+00 5.4000000e+01 
7.5000000e-01 3.0000000e+00 5.4500000e+01 
7.5000000e-01 3.0000000e+00 5.5000000e+01 
7.5000000e-01 3.0000000e+00 5.5500000e+01 
7.5000000e-01 3.0000000e+00 5.6000000e+01 
7.5000000e-01 3.0000000e+00 5.6500000e+01 
7.5000000e-01 3.0000000e+00 5.7000000e+01 
7.5000000e-01 3.0000000e+00 5.7500000e+01 
7.5000000e-01 3.0000000e+00 5.8000000e+01 
7.5000000e-01 3.0000000e+00 5.8500000e+01 
7.5000000e-01 3.0000000e+00 5.9000000e+01 
7.5000000e-01 3.0000000e+00 5.9500000e+01 
7.5000000e-01 3.0000000e+00 6.0000000e+01 
7.5000000e-01 3.0000000e+00 6.0500000e+01 
7.5000000e-01 3.0000000e+00 6.1000000e+01 
7.5000000e-01 3.0000000e+00 6.1500000e+01 
7.5000000e-01 3.0000000e+00 6.2000000e+01 
7.5000000e-01 3.0000000e+00 6.2500000e+01 
7.5000000e-01 3.0000000e+00 6.3000000e+01 
7.5000000e-01 3.0000000e+00 6.3500000e+01 
7.5000000e-01 3.0000000e+00 6.4000000e+01 
7.5000000e-01 3.0000000e+00 6.4500000e+01 
7.5000000e-01 3.0000000e+00 6.5000000e+01 
7.5000000e-01 3.0000000e+00 6.5500000e+01 
7.5000000e-01 3.0000000e+00 6.6000000e+01 
7.5000000e-01 3.0000000e+00 6.6500000e+01 
7.5000000e-01 3.0000000e+00 6.7000000e+01 
7.5000000e-01 3.0000000e+00 6.7500000e+01 
7.5000000e-01 3.0000000e+00 6.8000000e+01 
7.5000000e-01 3.0000000e+00 6.8500000e+01 
7.5000000e-01 3.0000000e+00 6.9000000e+01 
7.5000000e-01 3.0000000e+00 6.9500000e+01 
7.5000000e-01 3.0250001e+00 -2.5000000e+01 
7.5000000e-01 3.0250001e+00 -2.4500000e+01 
7.5000000e-01 3.0250001e+00 -2.4000000e+01 
7.5000000e-01 3.0250001e+00 -2.3500000e+01 
7.5000000e-01 3.0250001e+00 -2.3000000e+01 
7.5000000e-01 3.0250001e+00 -2.2500000e+01 
7.5000000e-01 3.0250001e+00 -2.2000000e+01 
7.5000000e-01 3.0250001e+00 -2.1500000e+01 
7.5000000e-01 3.0250001e+00 -2.1000000e+01 
7.5000000e-01 3.0250001e+00 -2.0500000e+01 
7.5000000e-01 3.0250001e+00 -2.0000000e+01 
7.5000000e-01 3.0250001e+00 -1.9500000e+01 
7.5000000e-01 3.0250001e+00 -1.9000000e+01 
7.5000000e-01 3.0250001e+00 -1.8500000e+01 
7.5000000e-01 3.0250001e+00 -1.8000000e+01 
7.5000000e-01 3.0250001e+00 -1.7500000e+01 
7.5000000e-01 3.0250001e+00 -1.7000000e+01 
7.5000000e-01 3.0250001e+00 -1.6500000e+01 
7.5000000e-01 3.0250001e+00 -1.6000000e+01 
7.5000000e-01 3.0250001e+00 -1.5500000e+01 
[...]
POINT_DATA 2186
FIELD FieldData 3
DISPLACEMENT 3 2186  float
0.0000000e+00 0.0000000e+00 0.0000000e+00 
0.0000000e+00 0.0000000e+00 0.0000000e+00 
0.0000000e+00 0.0000000e+00 0.0000000e+00 
0.0000000e+00 0.0000000e+00 0.0000000e+00 
1.2975126e-07 1.2375378e-06 1.7384425e-06 
3.7726639e-07 -4.5581899e-08 -1.0780743e-07 
0.0000000e+00 2.9752505e-06 0.0000000e+00 
0.0000000e+00 9.7112002e-07 0.0000000e+00 
-3.8127048e-06 6.9254484e-06 4.6597579e-06 
5.3543130e-07 -1.4907235e-07 -5.5644597e-07 
2.5978352e-06 -3.6279237e-06 -5.5577739e-06 
-1.0691667e-06 -1.0767768e-06 -5.7108605e-07 
0.0000000e+00 9.5750102e-06 0.0000000e+00 
0.0000000e+00 2.0913405e-06 0.0000000e+00 
-5.6192466e-06 3.2675696e-06 1.3835038e-05 
6.3249456e-07 2.1356416e-06 -4.7789058e-06 
1.0970402e-05 -1.5984668e-05 1.6672598e-06 
5.5441956e-06 3.9271504e-06 -2.3413791e-06 
0.0000000e+00 2.0255598e-05 0.0000000e+00 
0.0000000e+00 -1.1486569e-06 0.0000000e+00 
0.0000000e+00 2.0280859e-05 0.0000000e+00 
0.0000000e+00 1.5737465e-05 0.0000000e+00 
0.0000000e+00 4.9427508e-06 0.0000000e+00 
0.0000000e+00 -6.5215099e-06 0.0000000e+00 
0.0000000e+00 -1.3967456e-05 0.0000000e+00 
0.0000000e+00 -1.5872833e-05 0.0000000e+00 
0.0000000e+00 -1.3686855e-05 0.0000000e+00 
0.0000000e+00 -9.6957165e-06 0.0000000e+00 
0.0000000e+00 -4.9562227e-06 0.0000000e+00 
0.0000000e+00 9.5589326e-07 0.0000000e+00 
0.0000000e+00 8.3487221e-06 0.0000000e+00 
0.0000000e+00 1.5645190e-05 0.0000000e+00 
0.0000000e+00 1.9367524e-05 0.0000000e+00 
0.0000000e+00 1.6306192e-05 0.0000000e+00 
0.0000000e+00 6.2891850e-06 0.0000000e+00 
0.0000000e+00 -6.8080467e-06 0.0000000e+00 
0.0000000e+00 -1.6945463e-05 0.0000000e+00 
0.0000000e+00 -1.9557177e-05 0.0000000e+00 
0.0000000e+00 -1.4354190e-05 0.0000000e+00 
0.0000000e+00 -5.2440596e-06 0.0000000e+00 
0.0000000e+00 2.5450747e-06 0.0000000e+00 
0.0000000e+00 5.9566478e-06 0.0000000e+00 
0.0000000e+00 5.6166459e-06 0.0000000e+00 
0.0000000e+00 4.4108360e-06 0.0000000e+00 
0.0000000e+00 4.5843185e-06 0.0000000e+00 
0.0000000e+00 5.9326653e-06 0.0000000e+00 
0.0000000e+00 6.4894157e-06 0.0000000e+00 
0.0000000e+00 4.7935491e-06 0.0000000e+00 
0.0000000e+00 1.5014944e-06 0.0000000e+00 
0.0000000e+00 -1.1321229e-06 0.0000000e+00 
0.0000000e+00 -1.4073186e-06 0.0000000e+00 
0.0000000e+00 -1.4898853e-08 0.0000000e+00 
0.0000000e+00 2.1408398e-07 0.0000000e+00 
0.0000000e+00 -3.2750756e-06 0.0000000e+00 
0.0000000e+00 -1.0068086e-05 0.0000000e+00 
0.0000000e+00 -1.6262718e-05 0.0000000e+00 
0.0000000e+00 -1.6945298e-05 0.0000000e+00 
0.0000000e+00 -9.9103017e-06 0.0000000e+00 
0.0000000e+00 2.2979291e-06 0.0000000e+00 
0.0000000e+00 1.3670014e-05 0.0000000e+00 
0.0000000e+00 1.8527893e-05 0.0000000e+00 
0.0000000e+00 1.5287133e-05 0.0000000e+00 
0.0000000e+00 7.5643993e-06 0.0000000e+00 
0.0000000e+00 1.6040897e-06 0.0000000e+00 
0.0000000e+00 1.6534663e-06 0.0000000e+00 
0.0000000e+00 6.8349541e-06 0.0000000e+00 
0.0000000e+00 1.2090948e-05 0.0000000e+00 
0.0000000e+00 1.2248175e-05 0.0000000e+00 
0.0000000e+00 5.6423814e-06 0.0000000e+00 
0.0000000e+00 -5.2736232e-06 0.0000000e+00 
3.9367210e-06 -2.2417171e-05 -6.8435193e-06 
1.2904495e-05 -2.4845282e-05 -6.3310663e-06 
1.3379829e-05 -2.6940690e-05 -9.0726135e-06 
9.9075851e-06 -3.0622428e-05 -1.1722221e-05 
6.5492923e-06 -3.2009688e-05 -1.7590330e-05 
3.4932032e-06 -2.7688597e-05 -8.6068512e-06 
7.0906372e-06 -1.9604360e-05 -1.0789624e-05 
9.9136578e-06 -1.4599981e-05 -1.3449712e-05 
7.3368551e-06 -1.8038851e-05 -1.8220748e-05 
3.7593818e-06 -2.7797478e-05 -1.3562482e-05 
1.1544913e-06 -3.5949091e-05 -4.5938327e-06 
4.8601983e-06 -3.1894786e-05 5.0483477e-06 
1.7049115e-06 -1.9033259e-05 8.5819429e-06 
2.2490444e-06 -1.1768479e-05 -3.1121979e-06 
-2.0942186e-06 -2.1652088e-05 -1.9553507e-05 
7.7180694e-06 -4.3972312e-05 -2.2607608e-05 
1.5688471e-05 -5.4044071e-05 -2.1063457e-05 
1.4987792e-05 -2.7679229e-05 -1.1918604e-05 
3.6536108e-05 2.2314945e-05 -5.2279697e-06 
2.2971262e-05 5.3632593e-05 1.6550812e-06 
2.4750027e-05 4.3763688e-05 1.1739439e-05 
2.0838785e-05 6.4215010e-06 3.7042373e-05 
2.2544362e-05 -3.1134863e-05 5.4533481e-05 
1.2153058e-05 -6.9455542e-05 9.8247147e-05 
-1.1319793e-05 -2.0309228e-04 1.6431659e-04 
-8.6382533e-05 -5.9864955e-04 2.8342623e-04 
-8.3079482e-05 -1.3738085e-03 2.9213153e-04 
-1.1973335e-04 -2.5104145e-03 2.1473601e-04 
-1.9165505e-04 -3.8016827e-03 3.0812051e-04 
-2.6839925e-04 -4.7523454e-03 8.0635851e-05 
-3.0820604e-04 -4.8797536e-03 2.8843671e-05 
-2.8243579e-04 -4.4788462e-03 -2.2076762e-05 
-3.2081909e-04 -4.3525863e-03 -7.2007882e-05 
-5.7717541e-04 -4.6295393e-03 -5.3865700e-05 
-2.6366676e-04 -4.7751665e-03 -1.7740313e-04 
-1.8237226e-04 -4.1276035e-03 -1.9711950e-04 
-1.1894607e-04 -2.8349059e-03 -3.4799328e-04 
-7.7133845e-05 -1.5472830e-03 -2.0081994e-04 
4.2087399e-06 -6.2093034e-04 -2.2107021e-04 
2.0143989e-05 -7.6688731e-05 -1.0740884e-04 
4.7713180e-05 1.6300923e-04 -5.8566238e-05 
3.9664483e-05 2.0301563e-04 -1.8506453e-05 
3.4340104e-05 1.4747218e-04 1.2868186e-05 
2.7048720e-05 7.2211995e-05 1.6327100e-05 
1.8772771e-05 1.6255926e-05 2.5749667e-05 
1.7101567e-05 -1.7925318e-05 2.8081431e-05 
1.2824784e-05 -3.7062353e-05 2.3391234e-05 
5.6915969e-06 -3.9441566e-05 1.8064498e-05 
-1.1704249e-06 -2.6386017e-05 1.6131573e-05 
-2.1726755e-06 -1.5411655e-05 5.0426643e-06 
-3.5124456e-06 -2.0816631e-05 -8.1535582e-06 
1.5664327e-06 -3.2593940e-05 -1.1758888e-05 
1.4474959e-06 -3.4901677e-05 -1.3121441e-05 
8.2923007e-06 -2.3177643e-05 -1.6604969e-06 
1.0138183e-05 -1.1245164e-05 7.0122783e-06 
1.2917474e-05 -1.8785695e-05 6.8391082e-06 
1.4266279e-05 -4.3533539e-05 5.5427663e-06 
6.2842146e-06 -5.2357474e-05 5.2637847e-06 
1.8384657e-05 -2.1447446e-05 8.0554155e-06 
1.6916754e-05 3.7172813e-05 1.4423936e-05 
3.0603245e-05 7.8646379e-05 3.1397190e-05 
2.1582084e-05 5.7010584e-05 5.7290999e-05 
1.9369292e-05 -3.1620471e-05 7.7582408e-05 
7.0212282e-06 -1.6744414e-04 1.1260057e-04 
-1.5026972e-05 -3.8345612e-04 1.7380658e-04 
-4.7405068e-05 -7.8644394e-04 1.3936778e-04 
-9.3775256e-05 -1.5281867e-03 2.5963361e-04 
-1.7143274e-04 -2.6843206e-03 1.4072754e-04 
-2.3433971e-04 -4.0728105e-03 2.2314978e-04 
-2.7433058e-04 -5.0086128e-03 5.5747445e-05 
-3.1587426e-04 -4.8848889e-03 1.0610586e-05 
-3.1409349e-04 -4.3390011e-03 -2.6954482e-05 
-3.3240701e-04 -4.1718967e-03 -7.6811906e-05 
-2.7632559e-04 -4.4707730e-03 -1.8793682e-04 
-4.1141192e-04 -4.7029732e-03 -2.4207904e-04 
-7.5250508e-05 -3.9417110e-03 -2.3611488e-04 
-1.9956121e-04 -2.6397705e-03 -3.4410105e-04 
-3.0418747e-05 -1.3982520e-03 -2.3446218e-04 
-1.1805729e-05 -5.0194544e-04 -2.1609361e-04 
1.8678636e-05 2.8089548e-06 -1.1274473e-04 
3.8501301e-05 1.9071705e-04 -4.4725279e-05 
3.2259508e-05 1.9397632e-04 1.5291488e-06 
2.2243321e-05 1.3766960e-04 3.0411527e-05 
1.8092966e-05 8.4200903e-05 3.1870146e-05 
6.2046261e-06 4.5027158e-05 3.9406907e-05 
2.4877002e-06 1.3216980e-05 3.6887592e-05 
3.8719202e-07 -8.8915394e-06 3.3259112e-05 
-5.2495539e-06 -1.4255179e-05 2.6750464e-05 
-8.9339965e-06 -5.1406787e-06 2.0986032e-05 
-5.2520004e-06 4.7539625e-06 1.0431840e-05 
-8.9213081e-06 5.6465442e-06 -4.9599444e-06 
-7.3285782e-06 1.2048253e-06 -1.0505052e-05 
3.6246925e-06 -4.1404604e-07 -1.0071230e-05 
2.1474848e-06 1.6302158e-06 -4.2537222e-06 
4.5477418e-07 2.5512577e-06 3.8282897e-06 
2.5289398e-07 4.8913381e-07 3.3455765e-06 
-6.1995734e-06 -1.7904242e-06 -1.3353813e-06 
-4.1429766e-06 -1.0888283e-06 -5.5931278e-06 
-5.3509103e-07 2.0358723e-06 -7.6521028e-06 
0.0000000e+00 2.9876885e-06 0.0000000e+00 
0.0000000e+00 8.8719617e-07 0.0000000e+00 
0.0000000e+00 -6.2197948e-08 0.0000000e+00 
0.0000000e+00 5.1454526e-07 0.0000000e+00 
0.0000000e+00 9.8898147e-07 0.0000000e+00 
0.0000000e+00 2.4709351e-08 0.0000000e+00 
0.0000000e+00 -1.7525753e-06 0.0000000e+00 
0.0000000e+00 -2.6346374e-06 0.0000000e+00 
0.0000000e+00 -1.8983148e-06 0.0000000e+00 
0.0000000e+00 -4.5050791e-07 0.0000000e+00 
0.0000000e+00 4.7545080e-07 0.0000000e+00 
0.0000000e+00 6.7943472e-07 0.0000000e+00 
0.0000000e+00 7.8117512e-07 0.0000000e+00 
0.0000000e+00 1.0321072e-06 0.0000000e+00 
0.0000000e+00 8.9794219e-07 0.0000000e+00 
0.0000000e+00 -6.7049768e-08 0.0000000e+00 
0.0000000e+00 -1.3158115e-06 0.0000000e+00 
0.0000000e+00 -1.6698184e-06 0.0000000e+00 
0.0000000e+00 -6.0291546e-07 0.0000000e+00 
0.0000000e+00 1.0771392e-06 0.0000000e+00 
0.0000000e+00 1.9733748e-06 0.0000000e+00 
0.0000000e+00 1.4390453e-06 0.0000000e+00 
0.0000000e+00 6.6407019e-08 0.0000000e+00 
0.0000000e+00 -1.0644993e-06 0.0000000e+00 
0.0000000e+00 -1.4017338e-06 0.0000000e+00 
0.0000000e+00 -1.1323120e-06 0.0000000e+00 
0.0000000e+00 -6.2265872e-07 0.0000000e+00 
0.0000000e+00 2.9798626e-08 0.0000000e+00 
0.0000000e+00 8.1575934e-07 0.0000000e+00 
0.0000000e+00 1.4282642e-06 0.0000000e+00 
0.0000000e+00 1.3561234e-06 0.0000000e+00 
0.0000000e+00 4.4558533e-07 0.0000000e+00 
0.0000000e+00 -7.6990358e-07 0.0000000e+00 
0.0000000e+00 -1.4558307e-06 0.0000000e+00 
0.0000000e+00 -1.2158742e-06 0.0000000e+00 
0.0000000e+00 -3.9307704e-07 0.0000000e+00 
0.0000000e+00 3.5673131e-07 0.0000000e+00 
0.0000000e+00 6.9502192e-07 0.0000000e+00 
0.0000000e+00 7.4871150e-07 0.0000000e+00 
0.0000000e+00 2.0176467e-05 0.0000000e+00 
0.0000000e+00 1.5681526e-05 0.0000000e+00 
0.0000000e+00 4.9842597e-06 0.0000000e+00 
0.0000000e+00 -6.4176052e-06 0.0000000e+00 
0.0000000e+00 -1.3884413e-05 0.0000000e+00 
0.0000000e+00 -1.5871145e-05 0.0000000e+00 
0.0000000e+00 -1.3756146e-05 0.0000000e+00 
0.0000000e+00 -9.7671746e-06 0.0000000e+00 
0.0000000e+00 -4.9629484e-06 0.0000000e+00 
0.0000000e+00 1.0213942e-06 0.0000000e+00 
0.0000000e+00 8.4274825e-06 0.0000000e+00 
0.0000000e+00 1.5661741e-05 0.0000000e+00 
0.0000000e+00 1.9296100e-05 0.0000000e+00 
0.0000000e+00 1.6196964e-05 0.0000000e+00 
0.0000000e+00 6.2301833e-06 0.0000000e+00 
0.0000000e+00 -6.7631131e-06 0.0000000e+00 
0.0000000e+00 -1.6823460e-05 0.0000000e+00 
0.0000000e+00 -1.9447301e-05 0.0000000e+00 
0.0000000e+00 -1.4339416e-05 0.0000000e+00 
0.0000000e+00 -5.3360523e-06 0.0000000e+00 
0.0000000e+00 2.4163273e-06 0.0000000e+00 
0.0000000e+00 5.8881838e-06 0.0000000e+00 
0.0000000e+00 5.6543822e-06 0.0000000e+00 
0.0000000e+00 4.5130460e-06 0.0000000e+00 
0.0000000e+00 4.6605123e-06 0.0000000e+00 
0.0000000e+00 5.9242393e-06 0.0000000e+00 
0.0000000e+00 6.4183209e-06 0.0000000e+00 
0.0000000e+00 4.7365565e-06 0.0000000e+00 
0.0000000e+00 1.5183923e-06 0.0000000e+00 
0.0000000e+00 -1.0508335e-06 0.0000000e+00 
0.0000000e+00 -1.3322988e-06 0.0000000e+00 
0.0000000e+00 -1.9276399e-08 0.0000000e+00 
0.0000000e+00 1.1865036e-07 0.0000000e+00 
0.0000000e+00 -3.3939639e-06 0.0000000e+00 
0.0000000e+00 -1.0114028e-05 0.0000000e+00 
0.0000000e+00 -1.6193184e-05 0.0000000e+00 
0.0000000e+00 -1.6812177e-05 0.0000000e+00 
0.0000000e+00 -9.8184837e-06 0.0000000e+00 
0.0000000e+00 2.2745583e-06 0.0000000e+00 
0.0000000e+00 1.3542336e-05 0.0000000e+00 
0.0000000e+00 1.8382616e-05 0.0000000e+00 
0.0000000e+00 1.5231040e-05 0.0000000e+00 
0.0000000e+00 7.6511560e-06 0.0000000e+00 
0.0000000e+00 1.7839855e-06 0.0000000e+00 
0.0000000e+00 1.7983648e-06 0.0000000e+00 
0.0000000e+00 6.8420086e-06 0.0000000e+00 
0.0000000e+00 1.1973683e-05 0.0000000e+00 
0.0000000e+00 1.2115324e-05 0.0000000e+00 
0.0000000e+00 5.5886103e-06 0.0000000e+00 
0.0000000e+00 -5.2445612e-06 0.0000000e+00 
0.0000000e+00 -1.5830927e-05 0.0000000e+00 
0.0000000e+00 -2.2297920e-05 0.0000000e+00 
0.0000000e+00 -2.4923867e-05 0.0000000e+00 
0.0000000e+00 -2.7210588e-05 0.0000000e+00 
0.0000000e+00 -3.0674302e-05 0.0000000e+00 
0.0000000e+00 -3.1872816e-05 0.0000000e+00 
0.0000000e+00 -2.7506832e-05 0.0000000e+00 
0.0000000e+00 -1.9582380e-05 0.0000000e+00 
0.0000000e+00 -1.4842809e-05 0.0000000e+00 
0.0000000e+00 -1.8351211e-05 0.0000000e+00 
0.0000000e+00 -2.8042870e-05 0.0000000e+00 
0.0000000e+00 -3.5510340e-05 0.0000000e+00 
0.0000000e+00 -3.1517673e-05 0.0000000e+00 
0.0000000e+00 -1.8985364e-05 0.0000000e+00 
0.0000000e+00 -1.2144916e-05 0.0000000e+00 
0.0000000e+00 -2.2547662e-05 0.0000000e+00 
0.0000000e+00 -4.4395412e-05 0.0000000e+00 
0.0000000e+00 -5.2862579e-05 0.0000000e+00 
0.0000000e+00 -2.6363134e-05 0.0000000e+00 
0.0000000e+00 2.2081627e-05 0.0000000e+00 
0.0000000e+00 5.2581061e-05 0.0000000e+00 
0.0000000e+00 4.2818639e-05 0.0000000e+00 
0.0000000e+00 6.6251250e-06 0.0000000e+00 
0.0000000e+00 -2.8074264e-05 0.0000000e+00 
0.0000000e+00 -6.6249042e-05 0.0000000e+00 
0.0000000e+00 -2.0345156e-04 0.0000000e+00 
0.0000000e+00 -6.0259283e-04 0.0000000e+00 
0.0000000e+00 -1.3814158e-03 0.0000000e+00 
0.0000000e+00 -2.5229128e-03 0.0000000e+00 
0.0000000e+00 -3.8130751e-03 0.0000000e+00 
0.0000000e+00 -4.7784518e-03 0.0000000e+00 
0.0000000e+00 -4.9081231e-03 0.0000000e+00 
0.0000000e+00 -4.5125508e-03 0.0000000e+00 
0.0000000e+00 -4.3768119e-03 0.0000000e+00 
0.0000000e+00 -4.6452484e-03 0.0000000e+00 
0.0000000e+00 -4.8024990e-03 0.0000000e+00 
0.0000000e+00 -4.1587655e-03 0.0000000e+00 
0.0000000e+00 -2.8532445e-03 0.0000000e+00 
0.0000000e+00 -1.5578818e-03 0.0000000e+00 
0.0000000e+00 -6.2393624e-04 0.0000000e+00 
0.0000000e+00 -7.7688586e-05 0.0000000e+00 
0.0000000e+00 1.6327325e-04 0.0000000e+00 
0.0000000e+00 2.0458804e-04 0.0000000e+00 
0.0000000e+00 1.4901551e-04 0.0000000e+00 
0.0000000e+00 7.3317540e-05 0.0000000e+00 
0.0000000e+00 1.6249913e-05 0.0000000e+00 
0.0000000e+00 -1.8380191e-05 0.0000000e+00 
0.0000000e+00 -3.6820929e-05 0.0000000e+00 
0.0000000e+00 -3.8671333e-05 0.0000000e+00 
0.0000000e+00 -2.6558122e-05 0.0000000e+00 
0.0000000e+00 -1.6512424e-05 0.0000000e+00 
0.0000000e+00 -2.1125159e-05 0.0000000e+00 
0.0000000e+00 -3.2196454e-05 0.0000000e+00 
0.0000000e+00 -3.4204495e-05 0.0000000e+00 
0.0000000e+00 -2.2894603e-05 0.0000000e+00 
0.0000000e+00 -1.1902144e-05 0.0000000e+00 
0.0000000e+00 -1.9922862e-05 0.0000000e+00 
0.0000000e+00 -4.3629832e-05 0.0000000e+00 
0.0000000e+00 -5.1511743e-05 0.0000000e+00 
0.0000000e+00 -2.0015275e-05 0.0000000e+00 
0.0000000e+00 3.7854570e-05 0.0000000e+00 
0.0000000e+00 7.7395947e-05 0.0000000e+00 
0.0000000e+00 5.5814904e-05 0.0000000e+00 
0.0000000e+00 -3.0536539e-05 0.0000000e+00 
0.0000000e+00 -1.6533380e-04 0.0000000e+00 
0.0000000e+00 -3.8114001e-04 0.0000000e+00 
0.0000000e+00 -7.8746624e-04 0.0000000e+00 
0.0000000e+00 -1.5363876e-03 0.0000000e+00 
0.0000000e+00 -2.7037566e-03 0.0000000e+00 
0.0000000e+00 -4.0887240e-03 0.0000000e+00 
0.0000000e+00 -5.0361245e-03 0.0000000e+00 
0.0000000e+00 -4.9084043e-03 0.0000000e+00 
0.0000000e+00 -4.3662842e-03 0.0000000e+00 
0.0000000e+00 -4.1940999e-03 0.0000000e+00 
0.0000000e+00 -4.5047547e-03 0.0000000e+00 
0.0000000e+00 -4.7251862e-03 0.0000000e+00 
0.0000000e+00 -3.9671529e-03 0.0000000e+00 
0.0000000e+00 -2.6540700e-03 0.0000000e+00 
0.0000000e+00 -1.4067523e-03 0.0000000e+00 
0.0000000e+00 -5.0614343e-04 0.0000000e+00 
0.0000000e+00 1.4664029e-06 0.0000000e+00 
0.0000000e+00 1.9170501e-04 0.0000000e+00 
0.0000000e+00 1.9654927e-04 0.0000000e+00 
0.0000000e+00 1.3923990e-04 0.0000000e+00 
0.0000000e+00 8.4479310e-05 0.0000000e+00 
0.0000000e+00 4.4692373e-05 0.0000000e+00 
0.0000000e+00 1.3341219e-05 0.0000000e+00 
0.0000000e+00 -8.4732355e-06 0.0000000e+00 
0.0000000e+00 -1.4052440e-05 0.0000000e+00 
0.0000000e+00 -5.4334419e-06 0.0000000e+00 
0.0000000e+00 4.3452105e-06 0.0000000e+00 
0.0000000e+00 5.6216986e-06 0.0000000e+00 
0.0000000e+00 1.4887397e-06 0.0000000e+00 
0.0000000e+00 -2.9909947e-07 0.0000000e+00 
0.0000000e+00 1.4578089e-06 0.0000000e+00 
0.0000000e+00 2.4224130e-06 0.0000000e+00 
0.0000000e+00 5.3973292e-07 0.0000000e+00 
0.0000000e+00 -1.6513579e-06 0.0000000e+00 
0.0000000e+00 -1.0267083e-06 0.0000000e+00 
0.0000000e+00 1.9283591e-06 0.0000000e+00 
0.0000000e+00 3.8336261e-06 0.0000000e+00 
0.0000000e+00 3.0029807e-06 0.0000000e+00 
0.0000000e+00 9.6365090e-07 0.0000000e+00 
0.0000000e+00 -1.5903128e-08 0.0000000e+00 
0.0000000e+00 4.8294083e-07 0.0000000e+00 
0.0000000e+00 9.2834290e-07 0.0000000e+00 
0.0000000e+00 1.0372048e-08 0.0000000e+00 
0.0000000e+00 -1.7126823e-06 0.0000000e+00 
0.0000000e+00 -2.5989843e-06 0.0000000e+00 
0.0000000e+00 -1.9096196e-06 0.0000000e+00 
0.0000000e+00 -4.8552266e-07 0.0000000e+00 
0.0000000e+00 4.6639946e-07 0.0000000e+00 
0.0000000e+00 7.0506377e-07 0.0000000e+00 
0.0000000e+00 8.0216154e-07 0.0000000e+00 
0.0000000e+00 1.0162904e-06 0.0000000e+00 
0.0000000e+00 8.6242892e-07 0.0000000e+00 
0.0000000e+00 -7.8261316e-08 0.0000000e+00 
0.0000000e+00 -1.2866117e-06 0.0000000e+00 
0.0000000e+00 -1.6308649e-06 0.0000000e+00 
0.0000000e+00 -5.9474871e-07 0.0000000e+00 
0.0000000e+00 1.0495557e-06 0.0000000e+00 
0.0000000e+00 1.9420422e-06 0.0000000e+00 
0.0000000e+00 1.4336473e-06 0.0000000e+00 
0.0000000e+00 8.3735621e-08 0.0000000e+00 
0.0000000e+00 -1.0495173e-06 0.0000000e+00 
0.0000000e+00 -1.4029938e-06 0.0000000e+00 
0.0000000e+00 -1.1395175e-06 0.0000000e+00 
0.0000000e+00 -6.2011833e-07 0.0000000e+00 
0.0000000e+00 4.0702407e-08 0.0000000e+00 
0.0000000e+00 8.1905461e-07 0.0000000e+00 
0.0000000e+00 1.4152457e-06 0.0000000e+00 
0.0000000e+00 1.3377301e-06 0.0000000e+00 
0.0000000e+00 4.4043784e-07 0.0000000e+00 
0.0000000e+00 -7.5653679e-07 0.0000000e+00 
0.0000000e+00 -1.4374643e-06 0.0000000e+00 
0.0000000e+00 -1.2095198e-06 0.0000000e+00 
0.0000000e+00 -4.0150613e-07 0.0000000e+00 
0.0000000e+00 3.4576792e-07 0.0000000e+00 
0.0000000e+00 6.9320902e-07 0.0000000e+00 
0.0000000e+00 7.5333566e-07 0.0000000e+00 
0.0000000e+00 0.0000000e+00 0.0000000e+00 
0.0000000e+00 0.0000000e+00 0.0000000e+00 
0.0000000e+00 0.0000000e+00 0.0000000e+00 
0.0000000e+00 0.0000000e+00 0.0000000e+00 
0.0000000e+00 0.0000000e+00 0.0000000e+00 
0.0000000e+00 0.0000000e+00 0.0000000e+00 
0.0000000e+00 0.0000000e+00 0.0000000e+00 
0.0000000e+00 0.0000000e+00 0.0000000e+00 
0.0000000e+00 0.0000000e+00 0.0000000e+00 
0.0000000e+00 0.0000000e+00 0.0000000e+00 
0.0000000e+00 0.0000000e+00 0.0000000e+00 
0.0000000e+00 0.0000000e+00 0.0000000e+00 
0.0000000e+00 0.0000000e+00 0.0000000e+00 
0.0000000e+00 0.0000000e+00 0.0000000e+00 
0.0000000e+00 0.0000000e+00 0.0000000e+00 
0.0000000e+00 0.0000000e+00 0.0000000e+00 
0.0000000e+00 0.0000000e+00 0.0000000e+00 
0.0000000e+00 0.0000000e+00 0.0000000e+00 
0.0000000e+00 0.0000000e+00 0.0000000e+00 
0.0000000e+00 0.0000000e+00 0.0000000e+00 
0.0000000e+00 0.0000000e+00 0.0000000e+00 
0.0000000e+00 0.0000000e+00 0.0000000e+00 
0.0000000e+00 0.0000000e+00 0.0000000e+00 
0.0000000e+00 0.0000000e+00 0.0000000e+00 
0.0000000e+00 0.0000000e+00 0.0000000e+00 
0.0000000e+00 0.0000000e+00 0.0000000e+00 
0.0000000e+00 0.0000000e+00 0.0000000e+00 
0.0000000e+00 0.0000000e+00 0.0000000e+00 
0.0000000e+00 0.0000000e+00 0.0000000e+00 
0.0000000e+00 0.0000000e+00 0.0000000e+00 
0.0000000e+00 0.0000000e+00 0.0000000e+00 
0.0000000e+00 0.0000000e+00 0.0000000e+00 
0.0000000e+00 0.0000000e+00 0.0000000e+00 
0.0000000e+00 0.0000000e+00 0.0000000e+00 
0.0000000e+00 0.0000000e+00 0.0000000e+00 
0.0000000e+00 0.0000000e+00 0.0000000e+00 
0.0000000e+00 0.0000000e+00 0.0000000e+00 
0.0000000e+00 0.0000000e+00 0.0000000e+00 
0.0000000e+00 0.0000000e+00 0.0000000e+00 
0.0000000e+00 0.0000000e+00 0.0000000e+00 
0.0000000e+00 0.0000000e+00 0.0000000e+00 
0.0000000e+00 0.0000000e+00 0.0000000e+00 
0.0000000e+00 0.0000000e+00 0.0000000e+00 
0.0000000e+00 0.0000000e+00 0.0000000e+00 
0.0000000e+00 0.0000000e+00 0.0000000e+00 
0.0000000e+00 0.0000000e+00 0.0000000e+00 
0.0000000e+00 0.0000000e+00 0.0000000e+00 
0.0000000e+00 0.0000000e+00 0.0000000e+00 
0.0000000e+00 0.0000000e+00 0.0000000e+00 
0.0000000e+00 0.0000000e+00 0.0000000e+00 
0.0000000e+00 0.0000000e+00 0.0000000e+00 
0.0000000e+00 0.0000000e+00 0.0000000e+00 
0.0000000e+00 0.0000000e+00 0.0000000e+00 
0.0000000e+00 0.0000000e+00 0.0000000e+00 
0.0000000e+00 0.0000000e+00 0.0000000e+00 
0.0000000e+00 0.0000000e+00 0.0000000e+00 
0.0000000e+00 0.0000000e+00 0.0000000e+00 
0.0000000e+00 0.0000000e+00 0.0000000e+00 