# vtk DataFile Version 4.0
vtk output
ASCII
DATASET UNSTRUCTURED_GRID
POINTS 2186 float
0.0000000e+00 0.0000000e+00 0.0000000e+00 
0.0000000e+00 0.0000000e+00 5.0000000e+01 
5.0000000e+00 0.0000000e+00 0.0000000e+00 
5.0000000e+00 0.0000000e+00 5.0000000e+01 
5.0000000e+00 1.0000000e+00 0.0000000e+00 
5.0000000e+00 1.0000000e+00 5.0000000e+01 
0.0000000e+00 1.0000000e+00 0.0000000e+00 
0.0000000e+00 1.0000000e+00 5.0000000e+01 
5.0000000e+00 2.0000000e+00 0.0000000e+00 
5.0000000e+00 2.0000000e+00 5.0000000e+01 
3.0000000e+00 2.0000000e+00 0.0000000e+00 
3.0000000e+00 2.0000000e+00 5.0000000e+01 
0.0000000e+00 2.0000000e+00 0.0000000e+00 
0.0000000e+00 2.0000000e+00 5.0000000e+01 
1.5000000e+00 3.0000000e+00 0.0000000e+00 
1.5000000e+00 3.0000000e+00 5.0000000e+01 
7.5000000e-01 3.0000000e+00 0.0000000e+00 
7.5000000e-01 3.0000000e+00 5.0000000e+01 
0.0000000e+00 3.0000000e+00 0.0000000e+00 
0.0000000e+00 3.0000000e+00 5.0000000e+01 
7.5000000e-01 3.0000000e+00 -2.5000000e+01 
7.5000000e-01 3.0000000e+00 -2.4500000e+01 
7.5000000e-01 3.0000000e+00 -2.4000000e+01 
7.5000000e-01 3.0000000e+00 -2.3500000e+01 
7.5000000e-01 3.0000000e+00 -2.3000000e+01 
7.5000000e-01 3.0000000e+00 -2.2500000e+01 
7.5000000e-01 3.0000000e+00 -2.2000000e+01 
7.5000000e-01 3.0000000e+00 -2.1500000e+01 
7.5000000e-01 3.0000000e+00 -2.1000000e+01 
7.5000000e-01 3.0000000e+00 -2.0500000e+01 
7.5000000e-01 3.0000000e+00 -2.0000000e+01 
7.5000000e-01 3.0000000e+00 -1.9500000e+01 
7.5000000e-01 3.0000000e+00 -1.9000000e+01 
7.5000000e-01 3.0000000e+00 -1.8500000e+01 
7.5000000e-01 3.0000000e+00 -1.8000000e+01 
7.5000000e-01 3.0000000e+00 -1.7500000e+01 
7.5000000e-01 3.0000000e+00 -1.7000000e+01 
7.5000000e-01 3.0000000e+00 -1.6500000e+01 
7.5000000e-01 3.0000000e+00 -1.6000000e+01 
7.5000000e-01 3.0000000e+00 -1.5500000e+01 
7.5000000e-01 3.0000000e+00 -1.5000000e+01 
7.5000000e-01 3.0000000e+00 -1.4500000e+01 
7.5000000e-01 3.0000000e+00 -1.4000000e+01 
7.5000000e-01 3.0000000e+00 -1.3500000e+01 
7.5000000e-01 3.0000000e+00 -1.3000000e+01 
7.5000000e-01 3.0000000e+00 -1.2500000e+01 
7.5000000e-01 3.0000000e+00 -1.2000000e+01 
7.5000000e-01 3.0000000e+00 -1.1500000e+01 
7.5000000e-01 3.0000000e+00 -1.1000000e+01 
7.5000000e-01 3.0000000e+00 -1.0500000e+01 
7.5000000e-01 3.0000000e+00 -1.0000000e+01 
7.5000000e-01 3.0000000e+00 -9.5000000e+00 
7.5000000e-01 3.0000000e+00 -9.0000000e+00 
7.5000000e-01 3.0000000e+00 -8.5000000e+00 
7.5000000e-01 3.0000000e+00 -8.0000000e+00 
7.5000000e-01 3.0000000e+00 -7.5000000e+00 
7.5000000e-01 3.0000000e+00 -7.0000000e+00 
7.5000000e-01 3.0000000e+00 -6.5000000e+00 
7.5000000e-01 3.0000000e+00 -6.0000000e+00 
7.5000000e-01 3.0000000e+00 -5.5000000e+00 
7.5000000e-01 3.0000000e+00 -5.0000000e+00 
7.5000000e-01 3.0000000e+00 -4.5000000e+00 
7.5000000e-01 3.0000000e+00 -4.0000000e+00 
7.5000000e-01 3.0000000e+00 -3.5000000e+00 
7.5000000e-01 3.0000000e+00 -3.0000000e+00 
7.5000000e-01 3.0000000e+00 -2.5000000e+00 
7.5000000e-01 3.0000000e+00 -2.0000000e+00 
7.5000000e-01 3.0000000e+00 -1.5000000e+00 
7.5000000e-01 3.0000000e+00 -1.0000000e+00 
7.5000000e-01 3.0000000e+00 -5.0000000e-01 
7.5000000e-01 3.0000000e+00 5.0000000e-01 
7.5000000e-01 3.0000000e+00 1.0000000e+00 
7.5000000e-01 3.0000000e+00 1.5000000e+00 
7.5000000e-01 3.0000000e+00 2.0000000e+00 
7.5000000e-01 3.0000000e+00 2.5000000e+00 
7.5000000e-01 3.0000000e+00 3.0000000e+00 
7.5000000e-01 3.0000000e+00 3.5000000e+00 
7.5000000e-01 3.0000000e+00 4.0000000e+00 
7.5000000e-01 3.0000000e+00 4.5000000e+00 
7.5000000e-01 3.0000000e+00 5.0000000e+00 
7.5000000e-01 3.0000000e+00 5.5000000e+00 
7.5000000e-01 3.0000000e+00 6.0000000e+00 
7.5000000e-01 3.0000000e+00 6.5000000e+00 
7.5000000e-01 3.0000000e+00 7.0000000e+00 
7.5000000e-01 3.0000000e+00 7.5000000e+00 
7.5000000e-01 3.0000000e+00 8.0000000e+00 
7.5000000e-01 3.0000000e+00 8.5000000e+00 
7.5000000e-01 3.0000000e+00 9.0000000e+00 
7.5000000e-01 3.0000000e+00 9.5000000e+00 
7.5000000e-01 3.0000000e+00 1.0000000e+01 
7.5000000e-01 3.0000000e+00 1.0500000e+01 
7.5000000e-01 3.0000000e+00 1.1000000e+01 
7.5000000e-01 3.0000000e+00 1.1500000e+01 
7.5000000e-01 3.0000000e+00 1.2000000e+01 
7.5000000e-01 3.0000000e+00 1.2500000e+01 
7.5000000e-01 3.0000000e+00 1.3000000e+01 
7.5000000e-01 3.0000000e+00 1.3500000e+01 
7.5000000e-01 3.0000000e+00 1.4000000e+01 
7.5000000e-01 3.0000000e+00 1.4500000e+01 
7.5000000e-01 3.0000000e+00 1.5000000e+01 
7.5000000e-01 3.0000000e+00 1.5500000e+01 
7.5000000e-01 3.0000000e+00 1.6000000e+01 
7.5000000e-01 3.0000000e+00 1.6500000e+01 
7.5000000e-01 3.0000000e+00 1.7000000e+01 
7.5000000e-01 3.0000000e+00 1.7500000e+01 
7.5000000e-01 3.0000000e+00 1.8000000e+01 
7.5000000e-01 3.0000000e+00 1.8500000e+01 
7.5000000e-01 3.0000000e+00 1.9000000e+01 
7.5000000e-01 3.0000000e+00 1.9500000e+01 
7.5000000e-01 3.0000000e+00 2.0000000e+01 
7.5000000e-01 3.0000000e+00 2.0500000e+01 
7.5000000e-01 3.0000000e+00 2.1000000e+01 
7.5000000e-01 3.0000000e+00 2.1500000e+01 
7.5000000e-01 3.0000000e+00 2.2000000e+01 
7.5000000e-01 3.0000000e+00 2.2500000e+01 
7.5000000e-01 3.0000000e+00 2.3000000e+01 
7.5000000e-01 3.0000000e+00 2.3500000e+01 
7.5000000e-01 3.0000000e+00 2.4000000e+01 
7.5000000e-01 3.0000000e+00 2.4500000e+01 
7.5000000e-01 3.0000000e+00 2.5000000e+01 
7.5000000e-01 3.0000000e+00 2.5500000e+01 
7.5000000e-01 3.0000000e+00 2.6000000e+01 
7.5000000e-01 3.0000000e+00 2.6500000e+01 
7.5000000e-01 3.0000000e+00 2.7000000e+01 
7.5000000e-01 3.0000000e+00 2.7500000e+01 
7.5000000e-01 3.0000000e+00 2.8000000e+01 
7.5000000e-01 3.0000000e+00 2.8500000e+01 
7.5000000e-01 3.0000000e+00 2.9000000e+01 
7.5000000e-01 3.0000000e+00 2.9500000e+01 
7.5000000e-01 3.0000000e+00 3.0000000e+01 
7.5000000e-01 3.0000000e+00 3.0500000e+01 
7.5000000e-01 3.0000000e+00 3.1000000e+01 
7.5000000e-01 3.0000000e+00 3.1500000e+01 
7.5000000e-01 3.0000000e+00 3.2000000e+01 
7.5000000e-01 3.0000000e+00 3.2500000e+01 
7.5000000e-01 3.0000000e+00 3.3000000e+01 
7.5000000e-01 3.0000000e+00 3.3500000e+01 
7.5000000e-01 3.0000000e+00 3.4000000e+01 
7.5000000e-01 3.0000000e+00 3.4500000e+01 
7.5000000e-01 3.0000000e+00 3.5000000e+01 
7.5000000e-01 3.0000000e+00 3.5500000e+01 
7.5000000e-01 3.0000000e+00 3.6000000e+01 
7.5000000e-01 3.0000000e+00 3.6500000e+01 
7.5000000e-01 3.0000000e+00 3.7000000e+01 
7.5000000e-01 3.0000000e+00 3.7500000e+01 
7.5000000e-01 3.0000000e+00 3.8000000e+01 
7.5000000e-01 3.0000000e+00 3.8500000e+01 
7.5000000e-01 3.0000000e+00 3.9000000e+01 
7.5000000e-01 3.0000000e+00 3.9500000e+01 
7.5000000e-01 3.0000000e+00 4.0000000e+01 
7.5000000e-01 3.0000000e+00 4.0500000e+01 
7.5000000e-01 3.0000000e+00 4.1000000e+01 
7.5000000e-01 3.0000000e+00 4.1500000e+01 
7.5000000e-01 3.0000000e+00 4.2000000e+01 
7.5000000e-01 3.0000000e+00 4.2500000e+01 
7.5000000e-01 3.0000000e+00 4.3000000e+01 
7.5000000e-01 3.0000000e+00 4.3500000e+01 
7.5000000e-01 3.0000000e+00 4.4000000e+01 
7.5000000e-01 3.0000000e+00 4.4500000e+01 
7.5000000e-01 3.0000000e+00 4.5000000e+01 
7.5000000e-01 3.0000000e+00 4.5500000e+01 
7.5000000e-01 3.0000000e+00 4.6000000e+01 
7.5000000e-01 3.0000000e+00 4.6500000e+01 
7.5000000e-01 3.0000000e+00 4.7000000e+01 
7.5000000e-01 3.0000000e+00 4.7500000e+01 
7.5000000e-01 3.0000000e+00 4.8000000e+01 
7.5000000e-01 3.0000000e+00 4.8500000e+01 
7.5000000e-01 3.0000000e+00 4.9000000e+01 
7.5000000e-01 3.0000000e+00 4.9500000e+01 
7.5000000e-01 3.0000000e+00 5.0500000e+01 
7.5000000e-01 3.0000000e+00 5.1000000e+01 
7.5000000e-01 3.0000000e+00 5.1500000e+01 
7.5000000e-01 3.0000000e+00 5.2000000e+01 
7.5000000e-01 3.0000000e+00 5.2500000e+01 
7.5000000e-01 3.0000000e+00 5.3000000e+01 
7.5000000e-01 3.0000000e+00 5.3500000e+01 
7.5000000e-01 3.0000000e+00 5.4000000e+01 
7.5000000e-01 3.0000000e+00 5.4500000e+01 
7.5000000e-01 3.0000000e+00 5.5000000e+01 
7.5000000e-01 3.0000000e+00 5.5500000e+01 
7.5000000e-01 3.0000000e+00 5.6000000e+01 
7.5000000e-01 3.0000000e+00 5.6500000e+01 
7.5000000e-01 3.0000000e+00 5.7000000e+01 
7.5000000e-01 3.0000000e+00 5.7500000e+01 
7.5000000e-01 3.0000000e+00 5.8000000e+01 
7.5000000e-01 3.0000000e+00 5.8500000e+01 
7.5000000e-01 3.0000000e+00 5.9000000e+01 
7.5000000e-01 3.0000000e+00 5.9500000e+01 
7.5000000e-01 3.0000000e+00 6.0000000e+01 
7.5000000e-01 3.0000000e+00 6.0500000e+01 
7.5000000e-01 3.0000000e+00 6.1000000e+01 
7.5000000e-01 3.0000000e+00 6.1500000e+01 
7.5000000e-01 3.0000000e+00 6.2000000e+01 
7.5000000e-01 3.0000000e+00 6.2500000e+01 
7.5000000e-01 3.0000000e+00 6.3000000e+01 
7.5000000e-01 3.0000000e+00 6.3500000e+01 
7.5000000e-01 3.0000000e+00 6.4000000e+01 
7.5000000e-01 3.0000000e+00 6.4500000e+01 
7.5000000e-01 3.0000000e+00 6.5000000e+01 
7.5000000e-01 3.0000000e+00 6.5500000e+01 
7.5000000e-01 3.0000000e+00 6.6000000e+01 
7.5000000e-01 3.0000000e+00 6.6500000e+01 
7.5000000e-01 3.0000000e+00 6.7000000e+01 
7.5000000e-01 3.0000000e+00 6.7500000e+01 
7.5000000e-01 3.0000000e+00 6.8000000e+01 
7.5000000e-01 3.0000000e+00 6.8500000e+01 
7.5000000e-01 3.0000000e+00 6.9000000e+01 
7.5000000e-01 3.0000000e+00 6.9500000e+01 
7.5000000e-01 3.0250001e+00 -2.5000000e+01 
7.5000000e-01 3.0250001e+00 -2.4500000e+01 
7.5000000e-01 3.0250001e+00 -2.4000000e+01 
7.5000000e-01 3.0250001e+00 -2.3500000e+01 
7.5000000e-01 3.0250001e+00 -2.3000000e+01 
7.5000000e-01 3.0250001e+00 -2.2500000e+01 
7.5000000e-01 3.0250001e+00 -2.2000000e+01 
7.5000000e-01 3.0250001e+00 -2.1500000e+01 
7.5000000e-01 3.0250001e+00 -2.1000000e+01 
7.5000000e-01 3.0250001e+00 -2.0500000e+01 
7.5000000e-01 3.0250001e+00 -2.0000000e+01 
7.5000000e-01 3.0250001e+00 -1.9500000e+01 
7.5000000e-01 3.0250001e+00 -1.9000000e+01 
7.5000000e-01 3.0250001e+00 -1.8500000e+01 
7.5000000e-01 3.0250001e+00 -1.8000000e+01 
7.5000000e-01 3.0250001e+00 -1.7500000e+01 
7.5000000e-01 3.0250001e+00 -1.7000000e+01 
7.5000000e-01 3.0250001e+00 -1.6500000e+01 
7.5000000e-01 3.0250001e+00 -1.6000000e+01 
7.5000000e-01 3.0250001e+00 -1.5500000e+01 
[...]
POINT_DATA 2186
FIELD FieldData 3
DISPLACEMENT 3 2186  float
0.0000000e+00 0.0000000e+00 0.0000000e+00 
0.0000000e+00 0.0000000e+00 0.0000000e+00 
0.0000000e+00 0.0000000e+00 0.0000000e+00 
0.0000000e+00 0.0000000e+00 0.0000000e+00 
-1.3903809e-06 1.6028547e-06 3.1183217e-06 
1.7195867e-07 -7.0119933e-07 -3.7437556e-07 
0.0000000e+00 -1.5809288e-06 0.0000000e+00 
0.0000000e+00 7.7547884e-07 0.0000000e+00 
-3.4908085e-06 2.3438877e-06 2.3582361e-06 
-2.2210491e-08 -1.4772050e-06 2.7962034e-08 
-1.5408830e-06 1.5853806e-06 1.3286167e-06 
-8.5400097e-07 -5.3829007e-07 -1.3416882e-06 
0.0000000e+00 -4.7123262e-07 0.0000000e+00 
0.0000000e+00 1.5688260e-06 0.0000000e+00 
6.5674071e-06 5.0817816e-06 1.2703587e-06 
3.3266842e-06 -4.4126068e-06 1.3168967e-06 
-6.5949480e-06 5.7519751e-06 -4.1546359e-06 
-2.7778788e-06 -8.3963359e-06 7.2369348e-06 
0.0000000e+00 5.9315121e-06 0.0000000e+00 
0.0000000e+00 6.3711027e-06 0.0000000e+00 
0.0000000e+00 -3.7667007e-06 0.0000000e+00 
0.0000000e+00 -4.1821040e-06 0.0000000e+00 
0.0000000e+00 -4.5562742e-06 0.0000000e+00 
0.0000000e+00 -3.4629093e-06 0.0000000e+00 
0.0000000e+00 -3.3834212e-07 0.0000000e+00 
0.0000000e+00 3.8146768e-06 0.0000000e+00 
0.0000000e+00 6.9308712e-06 0.0000000e+00 
0.0000000e+00 7.2945390e-06 0.0000000e+00 
0.0000000e+00 4.7978019e-06 0.0000000e+00 
0.0000000e+00 1.0495498e-06 0.0000000e+00 
0.0000000e+00 -1.7837218e-06 0.0000000e+00 
0.0000000e+00 -2.5114023e-06 0.0000000e+00 
0.0000000e+00 -1.6244397e-06 0.0000000e+00 
0.0000000e+00 -6.6084999e-07 0.0000000e+00 
0.0000000e+00 -8.3380132e-07 0.0000000e+00 
0.0000000e+00 -2.0960535e-06 0.0000000e+00 
0.0000000e+00 -3.3637514e-06 0.0000000e+00 
0.0000000e+00 -3.5922405e-06 0.0000000e+00 
0.0000000e+00 -2.6996831e-06 0.0000000e+00 
0.0000000e+00 -1.5297051e-06 0.0000000e+00 
0.0000000e+00 -9.1920606e-07 0.0000000e+00 
0.0000000e+00 -7.4566412e-07 0.0000000e+00 
0.0000000e+00 1.1450995e-07 0.0000000e+00 
0.0000000e+00 2.7631584e-06 0.0000000e+00 
0.0000000e+00 7.0145798e-06 0.0000000e+00 
0.0000000e+00 1.1012060e-05 0.0000000e+00 
0.0000000e+00 1.2183194e-05 0.0000000e+00 
0.0000000e+00 8.9211790e-06 0.0000000e+00 
0.0000000e+00 1.7987668e-06 0.0000000e+00 
0.0000000e+00 -6.5625213e-06 0.0000000e+00 
0.0000000e+00 -1.2921340e-05 0.0000000e+00 
0.0000000e+00 -1.5200178e-05 0.0000000e+00 
0.0000000e+00 -1.3415714e-05 0.0000000e+00 
0.0000000e+00 -9.1820493e-06 0.0000000e+00 
0.0000000e+00 -4.3393597e-06 0.0000000e+00 
0.0000000e+00 9.3282686e-08 0.0000000e+00 
0.0000000e+00 3.9091992e-06 0.0000000e+00 
0.0000000e+00 6.9967095e-06 0.0000000e+00 
0.0000000e+00 8.8325196e-06 0.0000000e+00 
0.0000000e+00 8.7270528e-06 0.0000000e+00 
0.0000000e+00 6.5941667e-06 0.0000000e+00 
0.0000000e+00 3.5433036e-06 0.0000000e+00 
0.0000000e+00 1.6275339e-06 0.0000000e+00 
0.0000000e+00 2.6290752e-06 0.0000000e+00 
0.0000000e+00 6.6453008e-06 0.0000000e+00 
0.0000000e+00 1.1714398e-05 0.0000000e+00 
0.0000000e+00 1.5020674e-05 0.0000000e+00 
0.0000000e+00 1.4813403e-05 0.0000000e+00 
0.0000000e+00 1.1559571e-05 0.0000000e+00 
0.0000000e+00 7.6085339e-06 0.0000000e+00 
7.0527999e-06 7.3581205e-06 4.4754916e-06 
6.4722667e-06 1.1894490e-05 3.9672900e-06 
1.0452244e-05 1.6767492e-05 7.1121394e-06 
2.0638614e-05 1.9254938e-05 3.7646521e-06 
2.3420786e-05 1.8828261e-05 -4.7008230e-06 
1.9455560e-05 1.7201826e-05 -3.6268918e-06 
2.1108090e-05 1.6174952e-05 5.6089320e-06 
1.9993444e-05 1.5758273e-05 1.2044038e-05 
1.9089313e-05 1.4674662e-05 1.5817606e-05 
1.5561442e-05 1.1168703e-05 1.6855009e-05 
1.2799379e-05 7.0029873e-06 1.7330160e-05 
1.1100970e-05 7.0054484e-06 1.2652668e-05 
1.4485578e-05 1.2974754e-05 1.5888485e-05 
1.4805200e-05 2.0888117e-05 1.6222502e-05 
1.6770913e-05 2.3637969e-05 1.3062451e-05 
1.3815764e-05 1.6073132e-05 1.1293408e-05 
1.4035863e-05 6.2699755e-06 2.1124457e-07 
1.4942955e-05 6.7263359e-06 -1.4536206e-05 
1.1668157e-05 2.0200363e-05 -2.3428041e-05 
2.2199361e-05 3.7327765e-05 -3.0278219e-05 
1.9362549e-05 4.3775824e-05 -3.1090425e-05 
1.8714960e-05 3.1029569e-05 -3.4375305e-05 
2.1217707e-05 1.4211430e-05 -5.1010717e-05 
2.0958820e-05 2.6687569e-05 -3.7507252e-05 
9.0921994e-06 7.8459452e-05 -2.1134389e-05 
-3.4689822e-06 1.3198872e-04 3.5088372e-06 
-3.2882901e-06 1.2508697e-04 1.3754775e-05 
-6.0872485e-06 1.6994210e-05 3.7039394e-05 
-3.8441020e-05 -1.9389247e-04 8.4656836e-05 
-6.1689119e-05 -5.0110894e-04 9.4280200e-05 
-8.5570835e-05 -9.7003503e-04 1.9647073e-04 
-9.9454359e-05 -1.7281851e-03 1.0649155e-04 
-2.0557399e-04 -2.8771122e-03 1.9562243e-04 
-5.5414840e-04 -4.2544720e-03 2.8383886e-04 
-2.6425265e-04 -5.1506641e-03 8.3365238e-05 
-2.2297500e-04 -4.8802374e-03 5.9332968e-05 
-1.9692369e-04 -4.2576203e-03 2.7728295e-06 
-1.9568190e-04 -4.0014470e-03 -1.9098174e-05 
-1.8482977e-04 -4.2637698e-03 -8.0767823e-06 
-2.0384842e-04 -4.3889210e-03 -8.3765575e-05 
-1.6204982e-04 -3.5452580e-03 -1.9077022e-04 
-1.1447057e-04 -2.2425724e-03 -9.9055855e-05 
-3.3803182e-05 -1.0888263e-03 -1.6783726e-04 
-4.2942361e-06 -3.0848931e-04 -6.4440479e-05 
1.9249526e-05 8.5331609e-05 -6.2145802e-05 
1.6762242e-05 2.1007934e-04 -1.9560583e-05 
1.5848051e-05 2.0782673e-04 -2.4539497e-06 
1.4141486e-05 1.6479933e-04 -2.7461635e-06 
6.0682237e-06 1.1371366e-04 -2.9860912e-06 
7.8973299e-06 6.2720101e-05 -1.3897522e-05 
1.1656970e-05 2.2752514e-05 -2.0380137e-05 
1.2163871e-05 3.2913342e-06 -2.2966449e-05 
1.7397266e-05 3.7205286e-06 -1.9653718e-05 
1.8661889e-05 1.3583266e-05 -1.3385668e-05 
2.1471444e-05 2.0919500e-05 -1.5084832e-05 
2.3882403e-05 2.1502912e-05 -1.6802320e-05 
3.1590655e-05 1.8120962e-05 -1.9639654e-05 
2.8793160e-05 1.2185018e-05 -1.4561808e-05 
2.3350143e-05 9.6982394e-06 -9.6808126e-06 
2.5706702e-05 2.0912257e-05 -1.5748003e-06 
1.5955748e-05 4.3836320e-05 1.7457764e-06 
1.3672380e-05 6.1258637e-05 -8.7762737e-06 
1.5475416e-05 5.8609639e-05 -2.3768645e-05 
1.5503663e-05 3.9086877e-05 -1.4601792e-05 
-3.5487781e-06 3.3773253e-05 -1.1121228e-05 
-3.5569092e-06 7.1032744e-05 4.6898626e-06 
-1.2867232e-05 1.1649097e-04 3.6335819e-05 
-1.5777161e-05 7.0415474e-05 4.7262252e-05 
-4.1783671e-05 -1.4319774e-04 9.9734563e-05 
-6.7090201e-05 -5.4722780e-04 1.1259993e-04 
-1.1466157e-04 -1.1458362e-03 2.1263846e-04 
-1.6373335e-04 -1.9502185e-03 1.3056416e-04 
-2.5406032e-04 -3.0069188e-03 2.6480100e-04 
-2.4508298e-04 -4.1989791e-03 5.1828309e-05 
-4.1695382e-04 -5.0380589e-03 1.9539386e-05 
-1.1510926e-04 -4.7758417e-03 6.8479226e-06 
-3.2624765e-04 -4.2267703e-03 -1.3287909e-05 
-9.9045188e-05 -4.0264879e-03 -3.9234845e-05 
-3.2364254e-04 -4.2585847e-03 -8.0014133e-06 
-3.6444778e-06 -4.2768475e-03 -6.5784239e-05 
-1.6040850e-04 -3.3262409e-03 -1.8263680e-04 
-1.0358384e-04 -2.0040481e-03 -9.4271876e-05 
-4.4941917e-05 -9.1810193e-04 -1.6070073e-04 
-2.0575044e-05 -2.4033245e-04 -6.2616658e-05 
-1.0009148e-06 8.2447550e-05 -6.1866456e-05 
-8.2835197e-07 1.8908626e-04 -2.9529821e-05 
3.5019018e-06 1.9488111e-04 -1.4255950e-05 
-1.2428201e-06 1.5321284e-04 -1.2347753e-05 
-5.0662243e-06 9.3026749e-05 -8.8824891e-06 
-4.6558494e-06 4.0645988e-05 -1.3492691e-05 
-5.7953016e-06 1.3902824e-05 -1.3583612e-05 
-2.7005422e-06 7.4893564e-06 -1.4658168e-05 
-4.0930703e-07 4.8451152e-06 -1.5625412e-05 
-5.8246616e-07 -1.6990236e-06 -1.5914815e-05 
8.8828358e-07 -8.4845615e-06 -1.3220161e-05 
2.3488344e-06 -9.6159401e-06 -1.1671512e-05 
4.6743830e-06 -6.5189633e-06 -7.3322917e-06 
4.1261201e-06 -4.8939696e-06 -2.8281877e-06 
4.4976550e-06 -6.8454760e-06 1.1032174e-06 
0.0000000e+00 -5.7022444e-06 0.0000000e+00 
0.0000000e+00 -3.6849372e-07 0.0000000e+00 
0.0000000e+00 3.2247519e-06 0.0000000e+00 
0.0000000e+00 2.7465717e-06 0.0000000e+00 
0.0000000e+00 2.1935764e-07 0.0000000e+00 
0.0000000e+00 -8.9586428e-07 0.0000000e+00 
0.0000000e+00 1.8951734e-07 0.0000000e+00 
0.0000000e+00 1.2293058e-06 0.0000000e+00 
0.0000000e+00 2.3195753e-07 0.0000000e+00 
0.0000000e+00 -1.9985321e-06 0.0000000e+00 
0.0000000e+00 -3.0241979e-06 0.0000000e+00 
0.0000000e+00 -1.8179638e-06 0.0000000e+00 
0.0000000e+00 1.7194141e-07 0.0000000e+00 
0.0000000e+00 9.9547913e-07 0.0000000e+00 
0.0000000e+00 4.9099310e-07 0.0000000e+00 
0.0000000e+00 8.4462897e-08 0.0000000e+00 
0.0000000e+00 6.5818199e-07 0.0000000e+00 
0.0000000e+00 1.4020009e-06 0.0000000e+00 
0.0000000e+00 1.0387992e-06 0.0000000e+00 
0.0000000e+00 -3.4888717e-07 0.0000000e+00 
0.0000000e+00 -1.3246214e-06 0.0000000e+00 
0.0000000e+00 -8.7197344e-07 0.0000000e+00 
0.0000000e+00 3.7862100e-07 0.0000000e+00 
0.0000000e+00 9.6829785e-07 0.0000000e+00 
0.0000000e+00 3.4977390e-07 0.0000000e+00 
0.0000000e+00 -6.0506324e-07 0.0000000e+00 
0.0000000e+00 -8.0143451e-07 0.0000000e+00 
0.0000000e+00 -2.0581372e-07 0.0000000e+00 
0.0000000e+00 3.1614053e-07 0.0000000e+00 
0.0000000e+00 2.1153578e-07 0.0000000e+00 
0.0000000e+00 -1.3026595e-07 0.0000000e+00 
0.0000000e+00 -5.1736091e-08 0.0000000e+00 
0.0000000e+00 4.0581867e-07 0.0000000e+00 
0.0000000e+00 5.5774223e-07 0.0000000e+00 
0.0000000e+00 4.8397482e-08 0.0000000e+00 
0.0000000e+00 -5.9398150e-07 0.0000000e+00 
0.0000000e+00 -5.9497057e-07 0.0000000e+00 
0.0000000e+00 4.4366342e-08 0.0000000e+00 
0.0000000e+00 4.6808859e-07 0.0000000e+00 
0.0000000e+00 -3.7980458e-06 0.0000000e+00 
0.0000000e+00 -4.1978451e-06 0.0000000e+00 
0.0000000e+00 -4.5403790e-06 0.0000000e+00 
0.0000000e+00 -3.4267291e-06 0.0000000e+00 
0.0000000e+00 -3.1056223e-07 0.0000000e+00 
0.0000000e+00 3.8110329e-06 0.0000000e+00 
0.0000000e+00 6.8973386e-06 0.0000000e+00 
0.0000000e+00 7.2572375e-06 0.0000000e+00 
0.0000000e+00 4.7874742e-06 0.0000000e+00 
0.0000000e+00 1.0764652e-06 0.0000000e+00 
0.0000000e+00 -1.7391868e-06 0.0000000e+00 
0.0000000e+00 -2.4831604e-06 0.0000000e+00 
0.0000000e+00 -1.6324816e-06 0.0000000e+00 
0.0000000e+00 -6.9521184e-07 0.0000000e+00 
0.0000000e+00 -8.6486568e-07 0.0000000e+00 
0.0000000e+00 -2.1010121e-06 0.0000000e+00 
0.0000000e+00 -3.3451283e-06 0.0000000e+00 
0.0000000e+00 -3.5733322e-06 0.0000000e+00 
0.0000000e+00 -2.7026349e-06 0.0000000e+00 
0.0000000e+00 -1.5553798e-06 0.0000000e+00 
0.0000000e+00 -9.4536836e-07 0.0000000e+00 
0.0000000e+00 -7.4543971e-07 0.0000000e+00 
0.0000000e+00 1.4857477e-07 0.0000000e+00 
0.0000000e+00 2.8103836e-06 0.0000000e+00 
0.0000000e+00 7.0416281e-06 0.0000000e+00 
0.0000000e+00 1.0999534e-05 0.0000000e+00 
0.0000000e+00 1.2140437e-05 0.0000000e+00 
0.0000000e+00 8.8785209e-06 0.0000000e+00 
0.0000000e+00 1.7856410e-06 0.0000000e+00 
0.0000000e+00 -6.5377199e-06 0.0000000e+00 
0.0000000e+00 -1.2877581e-05 0.0000000e+00 
0.0000000e+00 -1.5170979e-05 0.0000000e+00 
0.0000000e+00 -1.3423186e-05 0.0000000e+00 
0.0000000e+00 -9.2183600e-06 0.0000000e+00 
0.0000000e+00 -4.3750488e-06 0.0000000e+00 
0.0000000e+00 8.0901586e-08 0.0000000e+00 
0.0000000e+00 3.9174565e-06 0.0000000e+00 
0.0000000e+00 7.0062993e-06 0.0000000e+00 
0.0000000e+00 8.8291226e-06 0.0000000e+00 
0.0000000e+00 8.7130156e-06 0.0000000e+00 
0.0000000e+00 6.5856857e-06 0.0000000e+00 
0.0000000e+00 3.5594055e-06 0.0000000e+00 
0.0000000e+00 1.6736454e-06 0.0000000e+00 
0.0000000e+00 2.6845369e-06 0.0000000e+00 
0.0000000e+00 6.6742409e-06 0.0000000e+00 
0.0000000e+00 1.1698918e-05 0.0000000e+00 
0.0000000e+00 1.4980529e-05 0.0000000e+00 
0.0000000e+00 1.4786976e-05 0.0000000e+00 
0.0000000e+00 1.1571688e-05 0.0000000e+00 
0.0000000e+00 7.6623164e-06 0.0000000e+00 
0.0000000e+00 5.7968323e-06 0.0000000e+00 
0.0000000e+00 7.4210643e-06 0.0000000e+00 
0.0000000e+00 1.1930085e-05 0.0000000e+00 
0.0000000e+00 1.6728027e-05 0.0000000e+00 
0.0000000e+00 1.9185098e-05 0.0000000e+00 
0.0000000e+00 1.8811908e-05 0.0000000e+00 
0.0000000e+00 1.7270026e-05 0.0000000e+00 
0.0000000e+00 1.6266195e-05 0.0000000e+00 
0.0000000e+00 1.5834659e-05 0.0000000e+00 
0.0000000e+00 1.4577303e-05 0.0000000e+00 
0.0000000e+00 1.1048907e-05 0.0000000e+00 
0.0000000e+00 7.0408432e-06 0.0000000e+00 
0.0000000e+00 7.1514332e-06 0.0000000e+00 
0.0000000e+00 1.3177081e-05 0.0000000e+00 
0.0000000e+00 2.1004638e-05 0.0000000e+00 
0.0000000e+00 2.3205879e-05 0.0000000e+00 
0.0000000e+00 1.5805766e-05 0.0000000e+00 
0.0000000e+00 6.4534429e-06 0.0000000e+00 
0.0000000e+00 7.0914375e-06 0.0000000e+00 
0.0000000e+00 2.0599422e-05 0.0000000e+00 
0.0000000e+00 3.7467355e-05 0.0000000e+00 
0.0000000e+00 4.3032731e-05 0.0000000e+00 
0.0000000e+00 3.0107982e-05 0.0000000e+00 
0.0000000e+00 1.4554291e-05 0.0000000e+00 
0.0000000e+00 2.8315597e-05 0.0000000e+00 
0.0000000e+00 7.9946658e-05 0.0000000e+00 
0.0000000e+00 1.3182276e-04 0.0000000e+00 
0.0000000e+00 1.2382331e-04 0.0000000e+00 
0.0000000e+00 1.6170246e-05 0.0000000e+00 
0.0000000e+00 -1.9207013e-04 0.0000000e+00 
0.0000000e+00 -4.9909292e-04 0.0000000e+00 
0.0000000e+00 -9.6976914e-04 0.0000000e+00 
0.0000000e+00 -1.7363444e-03 0.0000000e+00 
0.0000000e+00 -2.8966495e-03 0.0000000e+00 
0.0000000e+00 -4.2735944e-03 0.0000000e+00 
0.0000000e+00 -5.1773088e-03 0.0000000e+00 
0.0000000e+00 -4.9067824e-03 0.0000000e+00 
0.0000000e+00 -4.2772437e-03 0.0000000e+00 
0.0000000e+00 -4.0294905e-03 0.0000000e+00 
0.0000000e+00 -4.2890026e-03 0.0000000e+00 
0.0000000e+00 -4.4182427e-03 0.0000000e+00 
0.0000000e+00 -3.5634122e-03 0.0000000e+00 
0.0000000e+00 -2.2575716e-03 0.0000000e+00 
0.0000000e+00 -1.0962831e-03 0.0000000e+00 
0.0000000e+00 -3.1230017e-04 0.0000000e+00 
0.0000000e+00 8.5348162e-05 0.0000000e+00 
0.0000000e+00 2.1251073e-04 0.0000000e+00 
0.0000000e+00 2.0950109e-04 0.0000000e+00 
0.0000000e+00 1.6532990e-04 0.0000000e+00 
0.0000000e+00 1.1370487e-04 0.0000000e+00 
0.0000000e+00 6.3180632e-05 0.0000000e+00 
0.0000000e+00 2.3158887e-05 0.0000000e+00 
0.0000000e+00 3.3096449e-06 0.0000000e+00 
0.0000000e+00 3.5672265e-06 0.0000000e+00 
0.0000000e+00 1.3430107e-05 0.0000000e+00 
0.0000000e+00 2.0987558e-05 0.0000000e+00 
0.0000000e+00 2.1751581e-05 0.0000000e+00 
0.0000000e+00 1.7753266e-05 0.0000000e+00 
0.0000000e+00 1.1723267e-05 0.0000000e+00 
0.0000000e+00 1.0115362e-05 0.0000000e+00 
0.0000000e+00 2.1669701e-05 0.0000000e+00 
0.0000000e+00 4.4093693e-05 0.0000000e+00 
0.0000000e+00 6.0875172e-05 0.0000000e+00 
0.0000000e+00 5.7327918e-05 0.0000000e+00 
0.0000000e+00 3.8608337e-05 0.0000000e+00 
0.0000000e+00 3.5800578e-05 0.0000000e+00 
0.0000000e+00 7.3847303e-05 0.0000000e+00 
0.0000000e+00 1.1659824e-04 0.0000000e+00 
0.0000000e+00 6.9011752e-05 0.0000000e+00 
0.0000000e+00 -1.4475752e-04 0.0000000e+00 
0.0000000e+00 -5.4814608e-04 0.0000000e+00 
0.0000000e+00 -1.1444152e-03 0.0000000e+00 
0.0000000e+00 -1.9549762e-03 0.0000000e+00 
0.0000000e+00 -3.0198088e-03 0.0000000e+00 
0.0000000e+00 -4.2315614e-03 0.0000000e+00 
0.0000000e+00 -5.0615021e-03 0.0000000e+00 
0.0000000e+00 -4.8032855e-03 0.0000000e+00 
0.0000000e+00 -4.2462107e-03 0.0000000e+00 
0.0000000e+00 -4.0521869e-03 0.0000000e+00 
0.0000000e+00 -4.2828433e-03 0.0000000e+00 
0.0000000e+00 -4.3062512e-03 0.0000000e+00 
0.0000000e+00 -3.3458238e-03 0.0000000e+00 
0.0000000e+00 -2.0199372e-03 0.0000000e+00 
0.0000000e+00 -9.2524849e-04 0.0000000e+00 
0.0000000e+00 -2.4211495e-04 0.0000000e+00 
0.0000000e+00 8.3820240e-05 0.0000000e+00 
0.0000000e+00 1.9109297e-04 0.0000000e+00 
0.0000000e+00 1.9550054e-04 0.0000000e+00 
0.0000000e+00 1.5347464e-04 0.0000000e+00 
0.0000000e+00 9.3571223e-05 0.0000000e+00 
0.0000000e+00 4.1459818e-05 0.0000000e+00 
0.0000000e+00 1.4102294e-05 0.0000000e+00 
0.0000000e+00 7.0327605e-06 0.0000000e+00 
0.0000000e+00 4.5210249e-06 0.0000000e+00 
0.0000000e+00 -1.6272959e-06 0.0000000e+00 
0.0000000e+00 -8.2105589e-06 0.0000000e+00 
0.0000000e+00 -9.5762334e-06 0.0000000e+00 
0.0000000e+00 -6.7133551e-06 0.0000000e+00 
0.0000000e+00 -5.0540102e-06 0.0000000e+00 
0.0000000e+00 -6.7573196e-06 0.0000000e+00 
0.0000000e+00 -8.2096540e-06 0.0000000e+00 
0.0000000e+00 -5.6747172e-06 0.0000000e+00 
0.0000000e+00 -4.8025896e-07 0.0000000e+00 
0.0000000e+00 3.1042503e-06 0.0000000e+00 
0.0000000e+00 2.7541541e-06 0.0000000e+00 
0.0000000e+00 3.2821288e-07 0.0000000e+00 
0.0000000e+00 -8.2723773e-07 0.0000000e+00 
0.0000000e+00 1.4207512e-07 0.0000000e+00 
0.0000000e+00 1.1366745e-06 0.0000000e+00 
0.0000000e+00 2.0989006e-07 0.0000000e+00 
0.0000000e+00 -1.9319523e-06 0.0000000e+00 
0.0000000e+00 -2.9587250e-06 0.0000000e+00 
0.0000000e+00 -1.8316471e-06 0.0000000e+00 
0.0000000e+00 1.0558079e-07 0.0000000e+00 
0.0000000e+00 9.6404995e-07 0.0000000e+00 
0.0000000e+00 5.2899537e-07 0.0000000e+00 
0.0000000e+00 1.3537726e-07 0.0000000e+00 
0.0000000e+00 6.5385115e-07 0.0000000e+00 
0.0000000e+00 1.3502818e-06 0.0000000e+00 
0.0000000e+00 1.0085000e-06 0.0000000e+00 
0.0000000e+00 -3.1880927e-07 0.0000000e+00 
0.0000000e+00 -1.2720361e-06 0.0000000e+00 
0.0000000e+00 -8.6008356e-07 0.0000000e+00 
0.0000000e+00 3.3953037e-07 0.0000000e+00 
0.0000000e+00 9.2839025e-07 0.0000000e+00 
0.0000000e+00 3.5428235e-07 0.0000000e+00 
0.0000000e+00 -5.6852014e-07 0.0000000e+00 
0.0000000e+00 -7.8129136e-07 0.0000000e+00 
0.0000000e+00 -2.2422634e-07 0.0000000e+00 
0.0000000e+00 2.8738378e-07 0.0000000e+00 
0.0000000e+00 2.1117640e-07 0.0000000e+00 
0.0000000e+00 -1.0271415e-07 0.0000000e+00 
0.0000000e+00 -3.3404156e-08 0.0000000e+00 
0.0000000e+00 3.9007287e-07 0.0000000e+00 
0.0000000e+00 5.2732116e-07 0.0000000e+00 
0.0000000e+00 4.2134367e-08 0.0000000e+00 
0.0000000e+00 -5.6719085e-07 0.0000000e+00 
0.0000000e+00 -5.6751452e-07 0.0000000e+00 
0.0000000e+00 3.9995413e-08 0.0000000e+00 
0.0000000e+00 4.4256842e-07 0.0000000e+00 
0.0000000e+00 0.0000000e+00 0.0000000e+00 
0.0000000e+00 0.0000000e+00 0.0000000e+00 
0.0000000e+00 0.0000000e+00 0.0000000e+00 
0.0000000e+00 0.0000000e+00 0.0000000e+00 
0.0000000e+00 0.0000000e+00 0.0000000e+00 
0.0000000e+00 0.0000000e+00 0.0000000e+00 
0.0000000e+00 0.0000000e+00 0.0000000e+00 
0.0000000e+00 0.0000000e+00 0.0000000e+00 
0.0000000e+00 0.0000000e+00 0.0000000e+00 
0.0000000e+00 0.0000000e+00 0.0000000e+00 
0.0000000e+00 0.0000000e+00 0.0000000e+00 
0.0000000e+00 0.0000000e+00 0.0000000e+00 
0.0000000e+00 0.0000000e+00 0.0000000e+00 
0.0000000e+00 0.0000000e+00 0.0000000e+00 
0.0000000e+00 0.0000000e+00 0.0000000e+00 
0.0000000e+00 0.0000000e+00 0.0000000e+00 
0.0000000e+00 0.0000000e+00 0.0000000e+00 
0.0000000e+00 0.0000000e+00 0.0000000e+00 
0.0000000e+00 0.0000000e+00 0.0000000e+00 
0.0000000e+00 0.0000000e+00 0.0000000e+00 
0.0000000e+00 0.0000000e+00 0.0000000e+00 
0.0000000e+00 0.0000000e+00 0.0000000e+00 
0.0000000e+00 0.0000000e+00 0.0000000e+00 
0.0000000e+00 0.0000000e+00 0.0000000e+00 
0.0000000e+00 0.0000000e+00 0.0000000e+00 
0.0000000e+00 0.0000000e+00 0.0000000e+00 
0.0000000e+00 0.0000000e+00 0.0000000e+00 
0.0000000e+00 0.0000000e+00 0.0000000e+00 
0.0000000e+00 0.0000000e+00 0.0000000e+00 
0.0000000e+00 0.0000000e+00 0.0000000e+00 
0.0000000e+00 0.0000000e+00 0.0000000e+00 
0.0000000e+00 0.0000000e+00 0.0000000e+00 
0.0000000e+00 0.0000000e+00 0.0000000e+00 
0.0000000e+00 0.0000000e+00 0.0000000e+00 
0.0000000e+00 0.0000000e+00 0.0000000e+00 
0.0000000e+00 0.0000000e+00 0.0000000e+00 
0.0000000e+00 0.0000000e+00 0.0000000e+00 
0.0000000e+00 0.0000000e+00 0.0000000e+00 
0.0000000e+00 0.0000000e+00 0.0000000e+00 
0.0000000e+00 0.0000000e+00 0.0000000e+00 
0.0000000e+00 0.0000000e+00 0.0000000e+00 
0.0000000e+00 0.0000000e+00 0.0000000e+00 
0.0000000e+00 0.0000000e+00 0.0000000e+00 
0.0000000e+00 0.0000000e+00 0.0000000e+00 
0.0000000e+00 0.0000000e+00 0.0000000e+00 
0.0000000e+00 0.0000000e+00 0.0000000e+00 
0.0000000e+00 0.0000000e+00 0.0000000e+00 
0.0000000e+00 0.0000000e+00 0.0000000e+00 
0.0000000e+00 0.0000000e+00 0.0000000e+00 
0.0000000e+00 0.0000000e+00 0.0000000e+00 
0.0000000e+00 0.0000000e+00 0.0000000e+00 
0.0000000e+00 0.0000000e+00 0.0000000e+00 
0.0000000e+00 0.0000000e+00 0.0000000e+00 
0.0000000e+00 0.0000000e+00 0.0000000e+00 
0.0000000e+00 0.0000000e+00 0.0000000e+00 
0.0000000e+00 0.0000000e+00 0.0000000e+00 
0.0000000e+00 0.0000000e+00 0.0000000e+00 
0.0000000e+00 0.0000000e+00 0.0000000e+00 
0.0000000e+00 0.0000000e+00 0.0000000e+00 