# vtk DataFile Version 4.0
vtk output
ASCII
DATASET UNSTRUCTURED_GRID
POINTS 2186 float
0.0000000e+00 0.0000000e+00 0.0000000e+00 
0.0000000e+00 0.0000000e+00 5.0000000e+01 
5.0000000e+00 0.0000000e+00 0.0000000e+00 
5.0000000e+00 0.0000000e+00 5.0000000e+01 
5.0000000e+00 1.0000000e+00 0.0000000e+00 
5.0000000e+00 1.0000000e+00 5.0000000e+01 
0.0000000e+00 1.0000000e+00 0.0000000e+00 
0.0000000e+00 1.0000000e+00 5.0000000e+01 
5.0000000e+00 2.0000000e+00 0.0000000e+00 
5.0000000e+00 2.0000000e+00 5.0000000e+01 
3.0000000e+00 2.0000000e+00 0.0000000e+00 
3.0000000e+00 2.0000000e+00 5.0000000e+01 
0.0000000e+00 2.0000000e+00 0.0000000e+00 
0.0000000e+00 2.0000000e+00 5.0000000e+01 
1.5000000e+00 3.0000000e+00 0.0000000e+00 
1.5000000e+00 3.0000000e+00 5.0000000e+01 
7.5000000e-01 3.0000000e+00 0.0000000e+00 
7.5000000e-01 3.0000000e+00 5.0000000e+01 
0.0000000e+00 3.0000000e+00 0.0000000e+00 
0.0000000e+00 3.0000000e+00 5.0000000e+01 
7.5000000e-01 3.0000000e+00 -2.5000000e+01 
7.5000000e-01 3.0000000e+00 -2.4500000e+01 
7.5000000e-01 3.0000000e+00 -2.4000000e+01 
7.5000000e-01 3.0000000e+00 -2.3500000e+01 
7.5000000e-01 3.0000000e+00 -2.3000000e+01 
7.5000000e-01 3.0000000e+00 -2.2500000e+01 
7.5000000e-01 3.0000000e+00 -2.2000000e+01 
7.5000000e-01 3.0000000e+00 -2.1500000e+01 
7.5000000e-01 3.0000000e+00 -2.1000000e+01 
7.5000000e-01 3.0000000e+00 -2.0500000e+01 
7.5000000e-01 3.0000000e+00 -2.0000000e+01 
7.5000000e-01 3.0000000e+00 -1.9500000e+01 
7.5000000e-01 3.0000000e+00 -1.9000000e+01 
7.5000000e-01 3.0000000e+00 -1.8500000e+01 
7.5000000e-01 3.0000000e+00 -1.8000000e+01 
7.5000000e-01 3.0000000e+00 -1.7500000e+01 
7.5000000e-01 3.0000000e+00 -1.7000000e+01 
7.5000000e-01 3.0000000e+00 -1.6500000e+01 
7.5000000e-01 3.0000000e+00 -1.6000000e+01 
7.5000000e-01 3.0000000e+00 -1.5500000e+01 
7.5000000e-01 3.0000000e+00 -1.5000000e+01 
7.5000000e-01 3.0000000e+00 -1.4500000e+01 
7.5000000e-01 3.0000000e+00 -1.4000000e+01 
7.5000000e-01 3.0000000e+00 -1.3500000e+01 
7.5000000e-01 3.0000000e+00 -1.3000000e+01 
7.5000000e-01 3.0000000e+00 -1.2500000e+01 
7.5000000e-01 3.0000000e+00 -1.2000000e+01 
7.5000000e-01 3.0000000e+00 -1.1500000e+01 
7.5000000e-01 3.0000000e+00 -1.1000000e+01 
7.5000000e-01 3.0000000e+00 -1.0500000e+01 
7.5000000e-01 3.0000000e+00 -1.0000000e+01 
7.5000000e-01 3.0000000e+00 -9.5000000e+00 
7.5000000e-01 3.0000000e+00 -9.0000000e+00 
7.5000000e-01 3.0000000e+00 -8.5000000e+00 
7.5000000e-01 3.0000000e+00 -8.0000000e+00 
7.5000000e-01 3.0000000e+00 -7.5000000e+00 
7.5000000e-01 3.0000000e+00 -7.0000000e+00 
7.5000000e-01 3.0000000e+00 -6.5000000e+00 
7.5000000e-01 3.0000000e+00 -6.0000000e+00 
7.5000000e-01 3.0000000e+00 -5.5000000e+00 
7.5000000e-01 3.0000000e+00 -5.0000000e+00 
7.5000000e-01 3.0000000e+00 -4.5000000e+00 
7.5000000e-01 3.0000000e+00 -4.0000000e+00 
7.5000000e-01 3.0000000e+00 -3.5000000e+00 
7.5000000e-01 3.0000000e+00 -3.0000000e+00 
7.5000000e-01 3.0000000e+00 -2.5000000e+00 
7.5000000e-01 3.0000000e+00 -2.0000000e+00 
7.5000000e-01 3.0000000e+00 -1.5000000e+00 
7.5000000e-01 3.0000000e+00 -1.0000000e+00 
7.5000000e-01 3.0000000e+00 -5.0000000e-01 
7.5000000e-01 3.0000000e+00 5.0000000e-01 
7.5000000e-01 3.0000000e+00 1.0000000e+00 
7.5000000e-01 3.0000000e+00 1.5000000e+00 
7.5000000e-01 3.0000000e+00 2.0000000e+00 
7.5000000e-01 3.0000000e+00 2.5000000e+00 
7.5000000e-01 3.0000000e+00 3.0000000e+00 
7.5000000e-01 3.0000000e+00 3.5000000e+00 
7.5000000e-01 3.0000000e+00 4.0000000e+00 
7.5000000e-01 3.0000000e+00 4.5000000e+00 
7.5000000e-01 3.0000000e+00 5.0000000e+00 
7.5000000e-01 3.0000000e+00 5.5000000e+00 
7.5000000e-01 3.0000000e+00 6.0000000e+00 
7.5000000e-01 3.0000000e+00 6.5000000e+00 
7.5000000e-01 3.0000000e+00 7.0000000e+00 
7.5000000e-01 3.0000000e+00 7.5000000e+00 
7.5000000e-01 3.0000000e+00 8.0000000e+00 
7.5000000e-01 3.0000000e+00 8.5000000e+00 
7.5000000e-01 3.0000000e+00 9.0000000e+00 
7.5000000e-01 3.0000000e+00 9.5000000e+00 
7.5000000e-01 3.0000000e+00 1.0000000e+01 
7.5000000e-01 3.0000000e+00 1.0500000e+01 
7.5000000e-01 3.0000000e+00 1.1000000e+01 
7.5000000e-01 3.0000000e+00 1.1500000e+01 
7.5000000e-01 3.0000000e+00 1.2000000e+01 
7.5000000e-01 3.0000000e+00 1.2500000e+01 
7.5000000e-01 3.0000000e+00 1.3000000e+01 
7.5000000e-01 3.0000000e+00 1.3500000e+01 
7.5000000e-01 3.0000000e+00 1.4000000e+01 
7.5000000e-01 3.0000000e+00 1.4500000e+01 
7.5000000e-01 3.0000000e+00 1.5000000e+01 
7.5000000e-01 3.0000000e+00 1.5500000e+01 
7.5000000e-01 3.0000000e+00 1.6000000e+01 
7.5000000e-01 3.0000000e+00 1.6500000e+01 
7.5000000e-01 3.0000000e+00 1.7000000e+01 
7.5000000e-01 3.0000000e+00 1.7500000e+01 
7.5000000e-01 3.0000000e+00 1.8000000e+01 
7.5000000e-01 3.0000000e+00 1.8500000e+01 
7.5000000e-01 3.0000000e+00 1.9000000e+01 
7.5000000e-01 3.0000000e+00 1.9500000e+01 
7.5000000e-01 3.0000000e+00 2.0000000e+01 
7.5000000e-01 3.0000000e+00 2.0500000e+01 
7.5000000e-01 3.0000000e+00 2.1000000e+01 
7.5000000e-01 3.0000000e+00 2.1500000e+01 
7.5000000e-01 3.0000000e+00 2.2000000e+01 
7.5000000e-01 3.0000000e+00 2.2500000e+01 
7.5000000e-01 3.0000000e+00 2.3000000e+01 
7.5000000e-01 3.0000000e+00 2.3500000e+01 
7.5000000e-01 3.0000000e+00 2.4000000e+01 
7.5000000e-01 3.0000000e+00 2.4500000e+01 
7.5000000e-01 3.0000000e+00 2.5000000e+01 
7.5000000e-01 3.0000000e+00 2.5500000e+01 
7.5000000e-01 3.0000000e+00 2.6000000e+01 
7.5000000e-01 3.0000000e+00 2.6500000e+01 
7.5000000e-01 3.0000000e+00 2.7000000e+01 
7.5000000e-01 3.0000000e+00 2.7500000e+01 
7.5000000e-01 3.0000000e+00 2.8000000e+01 
7.5000000e-01 3.0000000e+00 2.8500000e+01 
7.5000000e-01 3.0000000e+00 2.9000000e+01 
7.5000000e-01 3.0000000e+00 2.9500000e+01 
7.5000000e-01 3.0000000e+00 3.0000000e+01 
7.5000000e-01 3.0000000e+00 3.0500000e+01 
7.5000000e-01 3.0000000e+00 3.1000000e+01 
7.5000000e-01 3.0000000e+00 3.1500000e+01 
7.5000000e-01 3.0000000e+00 3.2000000e+01 
7.5000000e-01 3.0000000e+00 3.2500000e+01 
7.5000000e-01 3.0000000e+00 3.3000000e+01 
7.5000000e-01 3.0000000e+00 3.3500000e+01 
7.5000000e-01 3.0000000e+00 3.4000000e+01 
7.5000000e-01 3.0000000e+00 3.4500000e+01 
7.5000000e-01 3.0000000e+00 3.5000000e+01 
7.5000000e-01 3.0000000e+00 3.5500000e+01 
7.5000000e-01 3.0000000e+00 3.6000000e+01 
7.5000000e-01 3.0000000e+00 3.6500000e+01 
7.5000000e-01 3.0000000e+00 3.7000000e+01 
7.5000000e-01 3.0000000e+00 3.7500000e+01 
7.5000000e-01 3.0000000e+00 3.8000000e+01 
7.5000000e-01 3.0000000e+00 3.8500000e+01 
7.5000000e-01 3.0000000e+00 3.9000000e+01 
7.5000000e-01 3.0000000e+00 3.9500000e+01 
7.5000000e-01 3.0000000e+00 4.0000000e+01 
7.5000000e-01 3.0000000e+00 4.0500000e+01 
7.5000000e-01 3.0000000e+00 4.1000000e+01 
7.5000000e-01 3.0000000e+00 4.1500000e+01 
7.5000000e-01 3.0000000e+00 4.2000000e+01 
7.5000000e-01 3.0000000e+00 4.2500000e+01 
7.5000000e-01 3.0000000e+00 4.3000000e+01 
7.5000000e-01 3.0000000e+00 4.3500000e+01 
7.5000000e-01 3.0000000e+00 4.4000000e+01 
7.5000000e-01 3.0000000e+00 4.4500000e+01 
7.5000000e-01 3.0000000e+00 4.5000000e+01 
7.5000000e-01 3.0000000e+00 4.5500000e+01 
7.5000000e-01 3.0000000e+00 4.6000000e+01 
7.5000000e-01 3.0000000e+00 4.6500000e+01 
7.5000000e-01 3.0000000e+00 4.7000000e+01 
7.5000000e-01 3.0000000e+00 4.7500000e+01 
7.5000000e-01 3.0000000e+00 4.8000000e+01 
7.5000000e-01 3.0000000e+00 4.8500000e+01 
7.5000000e-01 3.0000000e+00 4.9000000e+01 
7.5000000e-01 3.0000000e+00 4.9500000e+01 
7.5000000e-01 3.0000000e+00 5.0500000e+01 
7.5000000e-01 3.0000000e+00 5.1000000e+01 
7.5000000e-01 3.0000000e+00 5.1500000e+01 
7.5000000e-01 3.0000000e+00 5.2000000e+01 
7.5000000e-01 3.0000000e+00 5.2500000e+01 
7.5000000e-01 3.0000000e+00 5.3000000e+01 
7.5000000e-01 3.0000000e+00 5.3500000e+01 
7.5000000e-01 3.0000000e+00 5.4000000e+01 
7.5000000e-01 3.0000000e+00 5.4500000e+01 
7.5000000e-01 3.0000000e+00 5.5000000e+01 
7.5000000e-01 3.0000000e+00 5.5500000e+01 
7.5000000e-01 3.0000000e+00 5.6000000e+01 
7.5000000e-01 3.0000000e+00 5.6500000e+01 
7.5000000e-01 3.0000000e+00 5.7000000e+01 
7.5000000e-01 3.0000000e+00 5.7500000e+01 
7.5000000e-01 3.0000000e+00 5.8000000e+01 
7.5000000e-01 3.0000000e+00 5.8500000e+01 
7.5000000e-01 3.0000000e+00 5.9000000e+01 
7.5000000e-01 3.0000000e+00 5.9500000e+01 
7.5000000e-01 3.0000000e+00 6.0000000e+01 
7.5000000e-01 3.0000000e+00 6.0500000e+01 
7.5000000e-01 3.0000000e+00 6.1000000e+01 
7.5000000e-01 3.0000000e+00 6.1500000e+01 
7.5000000e-01 3.0000000e+00 6.2000000e+01 
7.5000000e-01 3.0000000e+00 6.2500000e+01 
7.5000000e-01 3.0000000e+00 6.3000000e+01 
7.5000000e-01 3.0000000e+00 6.3500000e+01 
7.5000000e-01 3.0000000e+00 6.4000000e+01 
7.5000000e-01 3.0000000e+00 6.4500000e+01 
7.5000000e-01 3.0000000e+00 6.5000000e+01 
7.5000000e-01 3.0000000e+00 6.5500000e+01 
7.5000000e-01 3.0000000e+00 6.6000000e+01 
7.5000000e-01 3.0000000e+00 6.6500000e+01 
7.5000000e-01 3.0000000e+00 6.7000000e+01 
7.5000000e-01 3.0000000e+00 6.7500000e+01 
7.5000000e-01 3.0000000e+00 6.8000000e+01 
7.5000000e-01 3.0000000e+00 6.8500000e+01 
7.5000000e-01 3.0000000e+00 6.9000000e+01 
7.5000000e-01 3.0000000e+00 6.9500000e+01 
7.5000000e-01 3.0250001e+00 -2.5000000e+01 
7.5000000e-01 3.0250001e+00 -2.4500000e+01 
7.5000000e-01 3.0250001e+00 -2.4000000e+01 
7.5000000e-01 3.0250001e+00 -2.3500000e+01 
7.5000000e-01 3.0250001e+00 -2.3000000e+01 
7.5000000e-01 3.0250001e+00 -2.2500000e+01 
7.5000000e-01 3.0250001e+00 -2.2000000e+01 
7.5000000e-01 3.0250001e+00 -2.1500000e+01 
7.5000000e-01 3.0250001e+00 -2.1000000e+01 
7.5000000e-01 3.0250001e+00 -2.0500000e+01 
7.5000000e-01 3.0250001e+00 -2.0000000e+01 
7.5000000e-01 3.0250001e+00 -1.9500000e+01 
7.5000000e-01 3.0250001e+00 -1.9000000e+01 
7.5000000e-01 3.0250001e+00 -1.8500000e+01 
7.5000000e-01 3.0250001e+00 -1.8000000e+01 
7.5000000e-01 3.0250001e+00 -1.7500000e+01 
7.5000000e-01 3.0250001e+00 -1.7000000e+01 
7.5000000e-01 3.0250001e+00 -1.6500000e+01 
7.5000000e-01 3.0250001e+00 -1.6000000e+01 
7.5000000e-01 3.0250001e+00 -1.5500000e+01 
[...]
POINT_DATA 2186
FIELD FieldData 3
DISPLACEMENT 3 2186  float
0.0000000e+00 0.0000000e+00 0.0000000e+00 
0.0000000e+00 0.0000000e+00 0.0000000e+00 
0.0000000e+00 0.0000000e+00 0.0000000e+00 
0.0000000e+00 0.0000000e+00 0.0000000e+00 
-2.2432005e-05 3.0432993e-06 2.0896245e-05 
2.3370831e-08 7.6684632e-09 1.5851246e-08 
0.0000000e+00 -1.2237284e-05 0.0000000e+00 
0.0000000e+00 -1.0639393e-07 0.0000000e+00 
-2.1070493e-05 -9.2581195e-06 1.7942104e-05 
-5.5220308e-08 1.3287908e-07 -5.3339051e-08 
-1.7245951e-05 1.4734806e-05 8.4783214e-06 
-1.0586692e-08 6.1371971e-08 6.9896942e-08 
0.0000000e+00 -1.9469086e-05 0.0000000e+00 
0.0000000e+00 -1.4566403e-08 0.0000000e+00 
2.0482650e-05 1.1452016e-05 -2.0538668e-05 
3.1405116e-07 -1.0855059e-06 6.7835788e-07 
2.0460636e-06 -4.1750363e-06 2.6444864e-05 
7.6788433e-09 3.6075105e-07 4.3445940e-08 
0.0000000e+00 -4.1978536e-05 0.0000000e+00 
0.0000000e+00 -6.0185363e-09 0.0000000e+00 
0.0000000e+00 2.1091611e-05 0.0000000e+00 
0.0000000e+00 9.0553849e-06 0.0000000e+00 
0.0000000e+00 -1.4059476e-05 0.0000000e+00 
0.0000000e+00 -2.6214902e-05 0.0000000e+00 
0.0000000e+00 -1.6326905e-05 0.0000000e+00 
0.0000000e+00 7.4063228e-06 0.0000000e+00 
0.0000000e+00 2.5437674e-05 0.0000000e+00 
0.0000000e+00 2.3249007e-05 0.0000000e+00 
0.0000000e+00 2.4146443e-06 0.0000000e+00 
0.0000000e+00 -2.1271404e-05 0.0000000e+00 
0.0000000e+00 -2.9815246e-05 0.0000000e+00 
0.0000000e+00 -1.6130109e-05 0.0000000e+00 
0.0000000e+00 1.0592174e-05 0.0000000e+00 
0.0000000e+00 3.1016552e-05 0.0000000e+00 
0.0000000e+00 2.9617617e-05 0.0000000e+00 
0.0000000e+00 6.6235334e-06 0.0000000e+00 
0.0000000e+00 -2.1566215e-05 0.0000000e+00 
0.0000000e+00 -3.4598277e-05 0.0000000e+00 
0.0000000e+00 -2.3646257e-05 0.0000000e+00 
0.0000000e+00 2.3035107e-06 0.0000000e+00 
0.0000000e+00 2.4211748e-05 0.0000000e+00 
0.0000000e+00 2.7987864e-05 0.0000000e+00 
0.0000000e+00 1.4375117e-05 0.0000000e+00 
0.0000000e+00 -3.7386783e-06 0.0000000e+00 
0.0000000e+00 -1.3279818e-05 0.0000000e+00 
0.0000000e+00 -1.1432954e-05 0.0000000e+00 
0.0000000e+00 -5.8062246e-06 0.0000000e+00 
0.0000000e+00 -5.1530824e-06 0.0000000e+00 
0.0000000e+00 -9.9524459e-06 0.0000000e+00 
0.0000000e+00 -1.1797726e-05 0.0000000e+00 
0.0000000e+00 -2.0859329e-06 0.0000000e+00 
0.0000000e+00 1.8024424e-05 0.0000000e+00 
0.0000000e+00 3.5709170e-05 0.0000000e+00 
0.0000000e+00 3.5389341e-05 0.0000000e+00 
0.0000000e+00 1.2016414e-05 0.0000000e+00 
0.0000000e+00 -2.2477039e-05 0.0000000e+00 
0.0000000e+00 -4.6347766e-05 0.0000000e+00 
0.0000000e+00 -4.4168675e-05 0.0000000e+00 
0.0000000e+00 -1.8639363e-05 0.0000000e+00 
0.0000000e+00 1.1913867e-05 0.0000000e+00 
0.0000000e+00 2.7825547e-05 0.0000000e+00 
0.0000000e+00 2.2253722e-05 0.0000000e+00 
0.0000000e+00 4.9063328e-06 0.0000000e+00 
0.0000000e+00 -6.3569255e-06 0.0000000e+00 
0.0000000e+00 2.0345747e-07 0.0000000e+00 
0.0000000e+00 2.0295853e-05 0.0000000e+00 
0.0000000e+00 3.6587713e-05 0.0000000e+00 
0.0000000e+00 3.3773093e-05 0.0000000e+00 
0.0000000e+00 1.3181920e-05 0.0000000e+00 
0.0000000e+00 -6.6914499e-06 0.0000000e+00 
2.0927724e-05 3.0709158e-05 1.5583402e-05 
-1.0602496e-06 8.5828302e-05 2.6552522e-07 
-9.9260637e-07 1.3525743e-04 -2.7721017e-05 
1.2433762e-05 1.6622429e-04 -4.4110617e-05 
-5.3470063e-05 1.8931158e-04 -6.6862332e-05 
-2.6545646e-05 2.3114591e-04 -1.0366121e-04 
-1.9390791e-05 3.0436722e-04 -1.1501127e-04 
-2.9824587e-05 3.8252686e-04 -1.0792947e-04 
-1.8094619e-06 4.0845491e-04 -8.9537971e-05 
-3.2877091e-05 3.2583720e-04 -5.1910116e-05 
-8.6969070e-05 1.2369225e-04 2.5053718e-05 
-8.8878354e-05 -1.8293572e-04 6.6242319e-05 
-1.1702005e-04 -6.5319933e-04 2.2147270e-04 
-1.6816158e-04 -1.4052714e-03 2.2712984e-04 
-2.1811287e-04 -2.5420673e-03 3.7433821e-04 
-2.8887336e-04 -3.9064088e-03 2.3082409e-04 
-3.4872699e-04 -4.9022851e-03 2.5110459e-04 
-3.2768978e-04 -4.7000782e-03 1.8616978e-04 
-3.1436747e-04 -4.1282224e-03 1.2014012e-04 
-3.0382234e-04 -3.9269165e-03 4.0520834e-05 
-2.5556973e-04 -4.2603174e-03 -3.5086065e-05 
-3.0581406e-04 -4.4558840e-03 -1.7683099e-04 
-2.1635488e-04 -3.6623182e-03 -3.4182929e-04 
-1.4770881e-04 -2.3737429e-03 -2.0061317e-04 
-1.0541631e-04 -1.2311275e-03 -2.9194503e-04 
-6.0997114e-05 -4.4310899e-04 -2.8063587e-04 
3.9122432e-07 -2.1772412e-05 -2.1199207e-04 
1.9795878e-05 1.3417660e-04 -1.4304345e-04 
6.4034008e-05 1.6520312e-04 -6.8685804e-05 
4.4045515e-05 1.5263648e-04 1.2213492e-06 
3.9763081e-06 1.2083672e-04 3.7969039e-05 
-1.5907846e-05 7.6967444e-05 3.9859606e-05 
-2.6735628e-05 3.4185792e-05 3.1470128e-05 
-1.3506201e-05 9.3753044e-07 1.9242674e-05 
1.2930192e-05 -2.0997224e-05 5.2770515e-06 
1.3370599e-05 -3.5481251e-05 3.0569685e-05 
1.5816780e-05 -4.3981618e-05 3.7920006e-05 
1.6294567e-06 -4.2128100e-05 3.9279206e-05 
-1.9968047e-06 -2.8853181e-05 1.2005051e-05 
8.4645562e-06 -1.1632069e-05 -5.3700242e-06 
5.3552312e-06 9.8386281e-06 2.0148671e-07 
1.6928271e-06 4.5019056e-05 1.9351189e-06 
-1.4454027e-05 9.6061725e-05 -4.6138562e-06 
-2.7591554e-05 1.4983569e-04 -5.1494786e-05 
-3.3233082e-05 1.8823067e-04 -8.4313710e-05 
-2.7088854e-05 2.0904915e-04 -1.0511885e-04 
-4.8039117e-05 2.3767483e-04 -1.4615568e-04 
-1.6993188e-05 3.0513492e-04 -9.8788383e-05 
-3.7164216e-05 3.7804045e-04 -8.9397756e-05 
-3.3537777e-05 3.5148504e-04 -4.5849392e-05 
-5.9139064e-05 1.4067230e-04 4.2392508e-05 
-5.6069282e-05 -2.6754854e-04 1.0858189e-04 
-1.0778179e-04 -8.8069565e-04 2.5841911e-04 
-1.7828662e-04 -1.7157824e-03 2.3652313e-04 
-2.2540182e-04 -2.8243025e-03 3.7832122e-04 
-3.1908613e-04 -4.0607299e-03 2.5380173e-04 
-3.8382367e-04 -4.9066143e-03 2.4136429e-04 
-3.6700250e-04 -4.6515469e-03 1.7951240e-04 
-3.3346322e-04 -4.1559660e-03 7.3117473e-05 
-3.2679047e-04 -4.0170848e-03 4.8516408e-06 
-3.1343510e-04 -4.3227286e-03 -6.4990854e-05 
-3.0828538e-04 -4.3852497e-03 -1.6415153e-04 
-2.2459023e-04 -3.4498498e-03 -3.7444496e-04 
-1.4491353e-04 -2.1037888e-03 -2.2690937e-04 
-8.3237581e-05 -1.0050896e-03 -2.9389470e-04 
-3.1810338e-05 -3.0938620e-04 -1.8016249e-04 
1.9034313e-05 3.3882534e-05 -1.9286353e-04 
3.2210741e-05 1.6323931e-04 -1.5067917e-04 
6.4250562e-05 1.8227070e-04 -7.4868498e-05 
5.1376930e-05 1.4436424e-04 -4.6524228e-06 
1.6972397e-05 8.4831023e-05 5.7127243e-05 
2.6392645e-06 3.8197042e-05 6.5606975e-05 
-2.7209042e-05 2.3217583e-05 4.3382362e-05 
-1.6926273e-05 2.4766076e-05 2.2496593e-05 
-7.8621724e-06 1.8688583e-05 2.9126350e-06 
-2.7631147e-06 -4.7285660e-08 -1.3885006e-05 
5.4351508e-06 -1.9317133e-05 -8.7379549e-06 
2.0087307e-06 -2.5410551e-05 -8.1459366e-06 
3.9122829e-06 -1.6725244e-05 -1.0406499e-06 
2.5922659e-06 -3.4887757e-06 1.6933813e-06 
-8.3601941e-07 5.1683478e-06 1.1284407e-06 
-1.1353781e-06 7.0272554e-06 5.9920302e-07 
-1.5625387e-06 4.1681378e-06 -1.5515766e-06 
-4.4194479e-07 7.6035054e-09 5.2475121e-07 
2.5075025e-07 -3.0318122e-06 -5.3983206e-07 
3.9701570e-07 -3.0651765e-06 -5.2284321e-07 
6.7448229e-07 3.2286371e-07 1.5151149e-06 
1.5448752e-08 3.7289788e-06 -4.9846295e-07 
-2.5422463e-07 3.4088391e-06 8.2051699e-08 
4.1095500e-08 -1.5152746e-07 5.6629597e-07 
-1.2256757e-07 -3.5359144e-06 -1.0067258e-06 
-2.1253522e-08 -3.7434600e-06 -1.6092622e-07 
5.2574677e-08 -6.4717767e-07 3.4364476e-07 
-6.4393774e-08 2.5693976e-06 -3.2112038e-07 
2.3018532e-09 3.0203296e-06 5.4919155e-07 
1.3333693e-07 1.1188864e-06 -3.2299702e-08 
-2.7560395e-07 -1.0185697e-06 -8.9568694e-08 
6.8815240e-08 -1.7591789e-06 -2.6827754e-08 
-1.2703087e-07 -9.6853034e-07 6.0345933e-08 
0.0000000e+00 1.3469279e-06 0.0000000e+00 
0.0000000e+00 1.6282972e-06 0.0000000e+00 
0.0000000e+00 1.1065697e-06 0.0000000e+00 
0.0000000e+00 7.8874605e-09 0.0000000e+00 
0.0000000e+00 -1.0570844e-06 0.0000000e+00 
0.0000000e+00 -1.3879261e-06 0.0000000e+00 
0.0000000e+00 -7.6652140e-07 0.0000000e+00 
0.0000000e+00 2.9636169e-07 0.0000000e+00 
0.0000000e+00 9.8757573e-07 0.0000000e+00 
0.0000000e+00 8.8409752e-07 0.0000000e+00 
0.0000000e+00 2.2207244e-07 0.0000000e+00 
0.0000000e+00 -4.3183724e-07 0.0000000e+00 
0.0000000e+00 -6.6801141e-07 0.0000000e+00 
0.0000000e+00 -4.3803311e-07 0.0000000e+00 
0.0000000e+00 3.5056427e-08 0.0000000e+00 
0.0000000e+00 4.2478865e-07 0.0000000e+00 
0.0000000e+00 4.6732953e-07 0.0000000e+00 
0.0000000e+00 1.3959446e-07 0.0000000e+00 
0.0000000e+00 -2.7601851e-07 0.0000000e+00 
0.0000000e+00 -4.0601839e-07 0.0000000e+00 
0.0000000e+00 -1.4929778e-07 0.0000000e+00 
0.0000000e+00 2.0841121e-07 0.0000000e+00 
0.0000000e+00 3.0262922e-07 0.0000000e+00 
0.0000000e+00 8.2962572e-08 0.0000000e+00 
0.0000000e+00 -1.6807772e-07 0.0000000e+00 
0.0000000e+00 -1.8816615e-07 0.0000000e+00 
0.0000000e+00 -1.3823221e-08 0.0000000e+00 
0.0000000e+00 1.2272794e-07 0.0000000e+00 
0.0000000e+00 9.1336958e-08 0.0000000e+00 
0.0000000e+00 -2.2725455e-08 0.0000000e+00 
0.0000000e+00 -7.3291858e-08 0.0000000e+00 
0.0000000e+00 -3.0007186e-08 0.0000000e+00 
0.0000000e+00 2.7582821e-08 0.0000000e+00 
0.0000000e+00 3.4251595e-08 0.0000000e+00 
0.0000000e+00 3.1625005e-09 0.0000000e+00 
0.0000000e+00 -1.9039772e-08 0.0000000e+00 
0.0000000e+00 -1.4047507e-08 0.0000000e+00 
0.0000000e+00 2.7546085e-09 0.0000000e+00 
0.0000000e+00 1.1094178e-08 0.0000000e+00 
0.0000000e+00 2.0777183e-05 0.0000000e+00 
0.0000000e+00 8.8986808e-06 0.0000000e+00 
0.0000000e+00 -1.3903044e-05 0.0000000e+00 
0.0000000e+00 -2.5858984e-05 0.0000000e+00 
0.0000000e+00 -1.6030152e-05 0.0000000e+00 
0.0000000e+00 7.4405898e-06 0.0000000e+00 
0.0000000e+00 2.5183721e-05 0.0000000e+00 
0.0000000e+00 2.2864548e-05 0.0000000e+00 
0.0000000e+00 2.1610977e-06 0.0000000e+00 
0.0000000e+00 -2.1180465e-05 0.0000000e+00 
0.0000000e+00 -2.9392313e-05 0.0000000e+00 
0.0000000e+00 -1.5671007e-05 0.0000000e+00 
0.0000000e+00 1.0702613e-05 0.0000000e+00 
0.0000000e+00 3.0644642e-05 0.0000000e+00 
0.0000000e+00 2.9043666e-05 0.0000000e+00 
0.0000000e+00 6.3224506e-06 0.0000000e+00 
0.0000000e+00 -2.1345546e-05 0.0000000e+00 
0.0000000e+00 -3.4051187e-05 0.0000000e+00 
0.0000000e+00 -2.3227014e-05 0.0000000e+00 
0.0000000e+00 2.2771892e-06 0.0000000e+00 
0.0000000e+00 2.3804456e-05 0.0000000e+00 
0.0000000e+00 2.7559243e-05 0.0000000e+00 
0.0000000e+00 1.4267068e-05 0.0000000e+00 
0.0000000e+00 -3.4766485e-06 0.0000000e+00 
0.0000000e+00 -1.2912940e-05 0.0000000e+00 
0.0000000e+00 -1.1297861e-05 0.0000000e+00 
0.0000000e+00 -6.0110569e-06 0.0000000e+00 
0.0000000e+00 -5.4885131e-06 0.0000000e+00 
0.0000000e+00 -1.0090615e-05 0.0000000e+00 
0.0000000e+00 -1.1589287e-05 0.0000000e+00 
0.0000000e+00 -1.6921466e-06 0.0000000e+00 
0.0000000e+00 1.8262470e-05 0.0000000e+00 
0.0000000e+00 3.5552053e-05 0.0000000e+00 
0.0000000e+00 3.4918354e-05 0.0000000e+00 
0.0000000e+00 1.1603595e-05 0.0000000e+00 
0.0000000e+00 -2.2469128e-05 0.0000000e+00 
0.0000000e+00 -4.5901121e-05 0.0000000e+00 
0.0000000e+00 -4.3647382e-05 0.0000000e+00 
0.0000000e+00 -1.8466371e-05 0.0000000e+00 
0.0000000e+00 1.1619611e-05 0.0000000e+00 
0.0000000e+00 2.7310367e-05 0.0000000e+00 
0.0000000e+00 2.1901744e-05 0.0000000e+00 
0.0000000e+00 4.9724217e-06 0.0000000e+00 
0.0000000e+00 -5.9044046e-06 0.0000000e+00 
0.0000000e+00 7.1246171e-07 0.0000000e+00 
0.0000000e+00 2.0437075e-05 0.0000000e+00 
0.0000000e+00 3.6213471e-05 0.0000000e+00 
0.0000000e+00 3.3199853e-05 0.0000000e+00 
0.0000000e+00 1.2904621e-05 0.0000000e+00 
0.0000000e+00 -6.4861615e-06 0.0000000e+00 
0.0000000e+00 -3.4212862e-06 0.0000000e+00 
0.0000000e+00 3.1431195e-05 0.0000000e+00 
0.0000000e+00 8.5686224e-05 0.0000000e+00 
0.0000000e+00 1.3469919e-04 0.0000000e+00 
0.0000000e+00 1.6556816e-04 0.0000000e+00 
0.0000000e+00 1.8933252e-04 0.0000000e+00 
0.0000000e+00 2.3222085e-04 0.0000000e+00 
0.0000000e+00 3.0602398e-04 0.0000000e+00 
0.0000000e+00 3.8348165e-04 0.0000000e+00 
0.0000000e+00 4.0699670e-04 0.0000000e+00 
0.0000000e+00 3.2429936e-04 0.0000000e+00 
0.0000000e+00 1.2554308e-04 0.0000000e+00 
0.0000000e+00 -1.8117407e-04 0.0000000e+00 
0.0000000e+00 -6.5267680e-04 0.0000000e+00 
0.0000000e+00 -1.4128628e-03 0.0000000e+00 
0.0000000e+00 -2.5570707e-03 0.0000000e+00 
0.0000000e+00 -3.9365501e-03 0.0000000e+00 
0.0000000e+00 -4.9235118e-03 0.0000000e+00 
0.0000000e+00 -4.7263750e-03 0.0000000e+00 
0.0000000e+00 -4.1482975e-03 0.0000000e+00 
0.0000000e+00 -3.9558266e-03 0.0000000e+00 
0.0000000e+00 -4.2860718e-03 0.0000000e+00 
0.0000000e+00 -4.4870209e-03 0.0000000e+00 
0.0000000e+00 -3.6788676e-03 0.0000000e+00 
0.0000000e+00 -2.3906876e-03 0.0000000e+00 
0.0000000e+00 -1.2380336e-03 0.0000000e+00 
0.0000000e+00 -4.4626751e-04 0.0000000e+00 
0.0000000e+00 -2.2358212e-05 0.0000000e+00 
0.0000000e+00 1.3667432e-04 0.0000000e+00 
0.0000000e+00 1.6695845e-04 0.0000000e+00 
0.0000000e+00 1.5290621e-04 0.0000000e+00 
0.0000000e+00 1.2076052e-04 0.0000000e+00 
0.0000000e+00 7.7510529e-05 0.0000000e+00 
0.0000000e+00 3.4407109e-05 0.0000000e+00 
0.0000000e+00 8.2384906e-07 0.0000000e+00 
0.0000000e+00 -2.1377100e-05 0.0000000e+00 
0.0000000e+00 -3.5659959e-05 0.0000000e+00 
0.0000000e+00 -4.3471053e-05 0.0000000e+00 
0.0000000e+00 -4.1530464e-05 0.0000000e+00 
0.0000000e+00 -2.9385963e-05 0.0000000e+00 
0.0000000e+00 -1.2400980e-05 0.0000000e+00 
0.0000000e+00 9.9617091e-06 0.0000000e+00 
0.0000000e+00 4.5774756e-05 0.0000000e+00 
0.0000000e+00 9.6743235e-05 0.0000000e+00 
0.0000000e+00 1.4970312e-04 0.0000000e+00 
0.0000000e+00 1.8700123e-04 0.0000000e+00 
0.0000000e+00 2.0807693e-04 0.0000000e+00 
0.0000000e+00 2.3967389e-04 0.0000000e+00 
0.0000000e+00 3.0826966e-04 0.0000000e+00 
0.0000000e+00 3.7827229e-04 0.0000000e+00 
0.0000000e+00 3.4935225e-04 0.0000000e+00 
0.0000000e+00 1.3971311e-04 0.0000000e+00 
0.0000000e+00 -2.6844090e-04 0.0000000e+00 
0.0000000e+00 -8.7940175e-04 0.0000000e+00 
0.0000000e+00 -1.7220401e-03 0.0000000e+00 
0.0000000e+00 -2.8372507e-03 0.0000000e+00 
0.0000000e+00 -4.0905699e-03 0.0000000e+00 
0.0000000e+00 -4.9313130e-03 0.0000000e+00 
0.0000000e+00 -4.6828538e-03 0.0000000e+00 
0.0000000e+00 -4.1732509e-03 0.0000000e+00 
0.0000000e+00 -4.0441668e-03 0.0000000e+00 
0.0000000e+00 -4.3457751e-03 0.0000000e+00 
0.0000000e+00 -4.4169025e-03 0.0000000e+00 
0.0000000e+00 -3.4672923e-03 0.0000000e+00 
0.0000000e+00 -2.1221067e-03 0.0000000e+00 
0.0000000e+00 -1.0114557e-03 0.0000000e+00 
0.0000000e+00 -3.1132007e-04 0.0000000e+00 
0.0000000e+00 3.5540947e-05 0.0000000e+00 
0.0000000e+00 1.6472129e-04 0.0000000e+00 
0.0000000e+00 1.8275094e-04 0.0000000e+00 
0.0000000e+00 1.4471002e-04 0.0000000e+00 
0.0000000e+00 8.5608590e-05 0.0000000e+00 
0.0000000e+00 3.9276678e-05 0.0000000e+00 
0.0000000e+00 2.3256855e-05 0.0000000e+00 
0.0000000e+00 2.3947301e-05 0.0000000e+00 
0.0000000e+00 1.8255001e-05 0.0000000e+00 
0.0000000e+00 1.2634877e-07 0.0000000e+00 
0.0000000e+00 -1.8887942e-05 0.0000000e+00 
0.0000000e+00 -2.5148767e-05 0.0000000e+00 
0.0000000e+00 -1.6872875e-05 0.0000000e+00 
0.0000000e+00 -3.7051680e-06 0.0000000e+00 
0.0000000e+00 5.0801318e-06 0.0000000e+00 
0.0000000e+00 6.9753251e-06 0.0000000e+00 
0.0000000e+00 4.1933281e-06 0.0000000e+00 
0.0000000e+00 5.4278136e-08 0.0000000e+00 
0.0000000e+00 -2.9636694e-06 0.0000000e+00 
0.0000000e+00 -2.9463770e-06 0.0000000e+00 
0.0000000e+00 2.9421417e-07 0.0000000e+00 
0.0000000e+00 3.5507012e-06 0.0000000e+00 
0.0000000e+00 3.3379524e-06 0.0000000e+00 
0.0000000e+00 -7.7756241e-08 0.0000000e+00 
0.0000000e+00 -3.4268091e-06 0.0000000e+00 
0.0000000e+00 -3.6654189e-06 0.0000000e+00 
0.0000000e+00 -6.9514260e-07 0.0000000e+00 
0.0000000e+00 2.4464500e-06 0.0000000e+00 
0.0000000e+00 2.9890916e-06 0.0000000e+00 
0.0000000e+00 1.1622815e-06 0.0000000e+00 
0.0000000e+00 -9.6719702e-07 0.0000000e+00 
0.0000000e+00 -1.7342729e-06 0.0000000e+00 
0.0000000e+00 -9.8193846e-07 0.0000000e+00 
0.0000000e+00 3.4266606e-07 0.0000000e+00 
0.0000000e+00 1.3414401e-06 0.0000000e+00 
0.0000000e+00 1.6188255e-06 0.0000000e+00 
0.0000000e+00 1.0964624e-06 0.0000000e+00 
0.0000000e+00 1.0417232e-08 0.0000000e+00 
0.0000000e+00 -1.0381918e-06 0.0000000e+00 
0.0000000e+00 -1.3683666e-06 0.0000000e+00 
0.0000000e+00 -7.6516102e-07 0.0000000e+00 
0.0000000e+00 2.7926527e-07 0.0000000e+00 
0.0000000e+00 9.6961332e-07 0.0000000e+00 
0.0000000e+00 8.8008738e-07 0.0000000e+00 
0.0000000e+00 2.3058954e-07 0.0000000e+00 
0.0000000e+00 -4.2130725e-07 0.0000000e+00 
0.0000000e+00 -6.6185368e-07 0.0000000e+00 
0.0000000e+00 -4.3665460e-07 0.0000000e+00 
0.0000000e+00 3.1368273e-08 0.0000000e+00 
0.0000000e+00 4.1599904e-07 0.0000000e+00 
0.0000000e+00 4.5905551e-07 0.0000000e+00 
0.0000000e+00 1.4072043e-07 0.0000000e+00 
0.0000000e+00 -2.6471213e-07 0.0000000e+00 
0.0000000e+00 -3.9597612e-07 0.0000000e+00 
0.0000000e+00 -1.5180241e-07 0.0000000e+00 
0.0000000e+00 1.9648438e-07 0.0000000e+00 
0.0000000e+00 2.9532308e-07 0.0000000e+00 
0.0000000e+00 8.7861544e-08 0.0000000e+00 
0.0000000e+00 -1.5835204e-07 0.0000000e+00 
0.0000000e+00 -1.8533437e-07 0.0000000e+00 
0.0000000e+00 -1.9498472e-08 0.0000000e+00 
0.0000000e+00 1.1694076e-07 0.0000000e+00 
0.0000000e+00 9.1865274e-08 0.0000000e+00 
0.0000000e+00 -1.8341689e-08 0.0000000e+00 
0.0000000e+00 -7.1118926e-08 0.0000000e+00 
0.0000000e+00 -3.1681566e-08 0.0000000e+00 
0.0000000e+00 2.5305788e-08 0.0000000e+00 
0.0000000e+00 3.4103568e-08 0.0000000e+00 
0.0000000e+00 4.4073176e-09 0.0000000e+00 
0.0000000e+00 -1.8397644e-08 0.0000000e+00 
0.0000000e+00 -1.4371102e-08 0.0000000e+00 
0.0000000e+00 2.4440869e-09 0.0000000e+00 
0.0000000e+00 1.1097524e-08 0.0000000e+00 
0.0000000e+00 0.0000000e+00 0.0000000e+00 
0.0000000e+00 0.0000000e+00 0.0000000e+00 
0.0000000e+00 0.0000000e+00 0.0000000e+00 
0.0000000e+00 0.0000000e+00 0.0000000e+00 
0.0000000e+00 0.0000000e+00 0.0000000e+00 
0.0000000e+00 0.0000000e+00 0.0000000e+00 
0.0000000e+00 0.0000000e+00 0.0000000e+00 
0.0000000e+00 0.0000000e+00 0.0000000e+00 
0.0000000e+00 0.0000000e+00 0.0000000e+00 
0.0000000e+00 0.0000000e+00 0.0000000e+00 
0.0000000e+00 0.0000000e+00 0.0000000e+00 
0.0000000e+00 0.0000000e+00 0.0000000e+00 
0.0000000e+00 0.0000000e+00 0.0000000e+00 
0.0000000e+00 0.0000000e+00 0.0000000e+00 
0.0000000e+00 0.0000000e+00 0.0000000e+00 
0.0000000e+00 0.0000000e+00 0.0000000e+00 
0.0000000e+00 0.0000000e+00 0.0000000e+00 
0.0000000e+00 0.0000000e+00 0.0000000e+00 
0.0000000e+00 0.0000000e+00 0.0000000e+00 
0.0000000e+00 0.0000000e+00 0.0000000e+00 
0.0000000e+00 0.0000000e+00 0.0000000e+00 
0.0000000e+00 0.0000000e+00 0.0000000e+00 
0.0000000e+00 0.0000000e+00 0.0000000e+00 
0.0000000e+00 0.0000000e+00 0.0000000e+00 
0.0000000e+00 0.0000000e+00 0.0000000e+00 
0.0000000e+00 0.0000000e+00 0.0000000e+00 
0.0000000e+00 0.0000000e+00 0.0000000e+00 
0.0000000e+00 0.0000000e+00 0.0000000e+00 
0.0000000e+00 0.0000000e+00 0.0000000e+00 
0.0000000e+00 0.0000000e+00 0.0000000e+00 
0.0000000e+00 0.0000000e+00 0.0000000e+00 
0.0000000e+00 0.0000000e+00 0.0000000e+00 
0.0000000e+00 0.0000000e+00 0.0000000e+00 
0.0000000e+00 0.0000000e+00 0.0000000e+00 
0.0000000e+00 0.0000000e+00 0.0000000e+00 
0.0000000e+00 0.0000000e+00 0.0000000e+00 
0.0000000e+00 0.0000000e+00 0.0000000e+00 
0.0000000e+00 0.0000000e+00 0.0000000e+00 
0.0000000e+00 0.0000000e+00 0.0000000e+00 
0.0000000e+00 0.0000000e+00 0.0000000e+00 
0.0000000e+00 0.0000000e+00 0.0000000e+00 
0.0000000e+00 0.0000000e+00 0.0000000e+00 
0.0000000e+00 0.0000000e+00 0.0000000e+00 
0.0000000e+00 0.0000000e+00 0.0000000e+00 
0.0000000e+00 0.0000000e+00 0.0000000e+00 
0.0000000e+00 0.0000000e+00 0.0000000e+00 
0.0000000e+00 0.0000000e+00 0.0000000e+00 
0.0000000e+00 0.0000000e+00 0.0000000e+00 
0.0000000e+00 0.0000000e+00 0.0000000e+00 
0.0000000e+00 0.0000000e+00 0.0000000e+00 
0.0000000e+00 0.0000000e+00 0.0000000e+00 
0.0000000e+00 0.0000000e+00 0.0000000e+00 
0.0000000e+00 0.0000000e+00 0.0000000e+00 
0.0000000e+00 0.0000000e+00 0.0000000e+00 
0.0000000e+00 0.0000000e+00 0.0000000e+00 
0.0000000e+00 0.0000000e+00 0.0000000e+00 
0.0000000e+00 0.0000000e+00 0.0000000e+00 
0.0000000e+00 0.0000000e+00 0.0000000e+00 