# vtk DataFile Version 4.0
vtk output
ASCII
DATASET UNSTRUCTURED_GRID
POINTS 2186 float
0.0000000e+00 0.0000000e+00 0.0000000e+00 
0.0000000e+00 0.0000000e+00 5.0000000e+01 
5.0000000e+00 0.0000000e+00 0.0000000e+00 
5.0000000e+00 0.0000000e+00 5.0000000e+01 
5.0000000e+00 1.0000000e+00 0.0000000e+00 
5.0000000e+00 1.0000000e+00 5.0000000e+01 
0.0000000e+00 1.0000000e+00 0.0000000e+00 
0.0000000e+00 1.0000000e+00 5.0000000e+01 
5.0000000e+00 2.0000000e+00 0.0000000e+00 
5.0000000e+00 2.0000000e+00 5.0000000e+01 
3.0000000e+00 2.0000000e+00 0.0000000e+00 
3.0000000e+00 2.0000000e+00 5.0000000e+01 
0.0000000e+00 2.0000000e+00 0.0000000e+00 
0.0000000e+00 2.0000000e+00 5.0000000e+01 
1.5000000e+00 3.0000000e+00 0.0000000e+00 
1.5000000e+00 3.0000000e+00 5.0000000e+01 
7.5000000e-01 3.0000000e+00 0.0000000e+00 
7.5000000e-01 3.0000000e+00 5.0000000e+01 
0.0000000e+00 3.0000000e+00 0.0000000e+00 
0.0000000e+00 3.0000000e+00 5.0000000e+01 
7.5000000e-01 3.0000000e+00 -2.5000000e+01 
7.5000000e-01 3.0000000e+00 -2.4500000e+01 
7.5000000e-01 3.0000000e+00 -2.4000000e+01 
7.5000000e-01 3.0000000e+00 -2.3500000e+01 
7.5000000e-01 3.0000000e+00 -2.3000000e+01 
7.5000000e-01 3.0000000e+00 -2.2500000e+01 
7.5000000e-01 3.0000000e+00 -2.2000000e+01 
7.5000000e-01 3.0000000e+00 -2.1500000e+01 
7.5000000e-01 3.0000000e+00 -2.1000000e+01 
7.5000000e-01 3.0000000e+00 -2.0500000e+01 
7.5000000e-01 3.0000000e+00 -2.0000000e+01 
7.5000000e-01 3.0000000e+00 -1.9500000e+01 
7.5000000e-01 3.0000000e+00 -1.9000000e+01 
7.5000000e-01 3.0000000e+00 -1.8500000e+01 
7.5000000e-01 3.0000000e+00 -1.8000000e+01 
7.5000000e-01 3.0000000e+00 -1.7500000e+01 
7.5000000e-01 3.0000000e+00 -1.7000000e+01 
7.5000000e-01 3.0000000e+00 -1.6500000e+01 
7.5000000e-01 3.0000000e+00 -1.6000000e+01 
7.5000000e-01 3.0000000e+00 -1.5500000e+01 
7.5000000e-01 3.0000000e+00 -1.5000000e+01 
7.5000000e-01 3.0000000e+00 -1.4500000e+01 
7.5000000e-01 3.0000000e+00 -1.4000000e+01 
7.5000000e-01 3.0000000e+00 -1.3500000e+01 
7.5000000e-01 3.0000000e+00 -1.3000000e+01 
7.5000000e-01 3.0000000e+00 -1.2500000e+01 
7.5000000e-01 3.0000000e+00 -1.2000000e+01 
7.5000000e-01 3.0000000e+00 -1.1500000e+01 
7.5000000e-01 3.0000000e+00 -1.1000000e+01 
7.5000000e-01 3.0000000e+00 -1.0500000e+01 
7.5000000e-01 3.0000000e+00 -1.0000000e+01 
7.5000000e-01 3.0000000e+00 -9.5000000e+00 
7.5000000e-01 3.0000000e+00 -9.0000000e+00 
7.5000000e-01 3.0000000e+00 -8.5000000e+00 
7.5000000e-01 3.0000000e+00 -8.0000000e+00 
7.5000000e-01 3.0000000e+00 -7.5000000e+00 
7.5000000e-01 3.0000000e+00 -7.0000000e+00 
7.5000000e-01 3.0000000e+00 -6.5000000e+00 
7.5000000e-01 3.0000000e+00 -6.0000000e+00 
7.5000000e-01 3.0000000e+00 -5.5000000e+00 
7.5000000e-01 3.0000000e+00 -5.0000000e+00 
7.5000000e-01 3.0000000e+00 -4.5000000e+00 
7.5000000e-01 3.0000000e+00 -4.0000000e+00 
7.5000000e-01 3.0000000e+00 -3.5000000e+00 
7.5000000e-01 3.0000000e+00 -3.0000000e+00 
7.5000000e-01 3.0000000e+00 -2.5000000e+00 
7.5000000e-01 3.0000000e+00 -2.0000000e+00 
7.5000000e-01 3.0000000e+00 -1.5000000e+00 
7.5000000e-01 3.0000000e+00 -1.0000000e+00 
7.5000000e-01 3.0000000e+00 -5.0000000e-01 
7.5000000e-01 3.0000000e+00 5.0000000e-01 
7.5000000e-01 3.0000000e+00 1.0000000e+00 
7.5000000e-01 3.0000000e+00 1.5000000e+00 
7.5000000e-01 3.0000000e+00 2.0000000e+00 
7.5000000e-01 3.0000000e+00 2.5000000e+00 
7.5000000e-01 3.0000000e+00 3.0000000e+00 
7.5000000e-01 3.0000000e+00 3.5000000e+00 
7.5000000e-01 3.0000000e+00 4.0000000e+00 
7.5000000e-01 3.0000000e+00 4.5000000e+00 
7.5000000e-01 3.0000000e+00 5.0000000e+00 
7.5000000e-01 3.0000000e+00 5.5000000e+00 
7.5000000e-01 3.0000000e+00 6.0000000e+00 
7.5000000e-01 3.0000000e+00 6.5000000e+00 
7.5000000e-01 3.0000000e+00 7.0000000e+00 
7.5000000e-01 3.0000000e+00 7.5000000e+00 
7.5000000e-01 3.0000000e+00 8.0000000e+00 
7.5000000e-01 3.0000000e+00 8.5000000e+00 
7.5000000e-01 3.0000000e+00 9.0000000e+00 
7.5000000e-01 3.0000000e+00 9.5000000e+00 
7.5000000e-01 3.0000000e+00 1.0000000e+01 
7.5000000e-01 3.0000000e+00 1.0500000e+01 
7.5000000e-01 3.0000000e+00 1.1000000e+01 
7.5000000e-01 3.0000000e+00 1.1500000e+01 
7.5000000e-01 3.0000000e+00 1.2000000e+01 
7.5000000e-01 3.0000000e+00 1.2500000e+01 
7.5000000e-01 3.0000000e+00 1.3000000e+01 
7.5000000e-01 3.0000000e+00 1.3500000e+01 
7.5000000e-01 3.0000000e+00 1.4000000e+01 
7.5000000e-01 3.0000000e+00 1.4500000e+01 
7.5000000e-01 3.0000000e+00 1.5000000e+01 
7.5000000e-01 3.0000000e+00 1.5500000e+01 
7.5000000e-01 3.0000000e+00 1.6000000e+01 
7.5000000e-01 3.0000000e+00 1.6500000e+01 
7.5000000e-01 3.0000000e+00 1.7000000e+01 
7.5000000e-01 3.0000000e+00 1.7500000e+01 
7.5000000e-01 3.0000000e+00 1.8000000e+01 
7.5000000e-01 3.0000000e+00 1.8500000e+01 
7.5000000e-01 3.0000000e+00 1.9000000e+01 
7.5000000e-01 3.0000000e+00 1.9500000e+01 
7.5000000e-01 3.0000000e+00 2.0000000e+01 
7.5000000e-01 3.0000000e+00 2.0500000e+01 
7.5000000e-01 3.0000000e+00 2.1000000e+01 
7.5000000e-01 3.0000000e+00 2.1500000e+01 
7.5000000e-01 3.0000000e+00 2.2000000e+01 
7.5000000e-01 3.0000000e+00 2.2500000e+01 
7.5000000e-01 3.0000000e+00 2.3000000e+01 
7.5000000e-01 3.0000000e+00 2.3500000e+01 
7.5000000e-01 3.0000000e+00 2.4000000e+01 
7.5000000e-01 3.0000000e+00 2.4500000e+01 
7.5000000e-01 3.0000000e+00 2.5000000e+01 
7.5000000e-01 3.0000000e+00 2.5500000e+01 
7.5000000e-01 3.0000000e+00 2.6000000e+01 
7.5000000e-01 3.0000000e+00 2.6500000e+01 
7.5000000e-01 3.0000000e+00 2.7000000e+01 
7.5000000e-01 3.0000000e+00 2.7500000e+01 
7.5000000e-01 3.0000000e+00 2.8000000e+01 
7.5000000e-01 3.0000000e+00 2.8500000e+01 
7.5000000e-01 3.0000000e+00 2.9000000e+01 
7.5000000e-01 3.0000000e+00 2.9500000e+01 
7.5000000e-01 3.0000000e+00 3.0000000e+01 
7.5000000e-01 3.0000000e+00 3.0500000e+01 
7.5000000e-01 3.0000000e+00 3.1000000e+01 
7.5000000e-01 3.0000000e+00 3.1500000e+01 
7.5000000e-01 3.0000000e+00 3.2000000e+01 
7.5000000e-01 3.0000000e+00 3.2500000e+01 
7.5000000e-01 3.0000000e+00 3.3000000e+01 
7.5000000e-01 3.0000000e+00 3.3500000e+01 
7.5000000e-01 3.0000000e+00 3.4000000e+01 
7.5000000e-01 3.0000000e+00 3.4500000e+01 
7.5000000e-01 3.0000000e+00 3.5000000e+01 
7.5000000e-01 3.0000000e+00 3.5500000e+01 
7.5000000e-01 3.0000000e+00 3.6000000e+01 
7.5000000e-01 3.0000000e+00 3.6500000e+01 
7.5000000e-01 3.0000000e+00 3.7000000e+01 
7.5000000e-01 3.0000000e+00 3.7500000e+01 
7.5000000e-01 3.0000000e+00 3.8000000e+01 
7.5000000e-01 3.0000000e+00 3.8500000e+01 
7.5000000e-01 3.0000000e+00 3.9000000e+01 
7.5000000e-01 3.0000000e+00 3.9500000e+01 
7.5000000e-01 3.0000000e+00 4.0000000e+01 
7.5000000e-01 3.0000000e+00 4.0500000e+01 
7.5000000e-01 3.0000000e+00 4.1000000e+01 
7.5000000e-01 3.0000000e+00 4.1500000e+01 
7.5000000e-01 3.0000000e+00 4.2000000e+01 
7.5000000e-01 3.0000000e+00 4.2500000e+01 
7.5000000e-01 3.0000000e+00 4.3000000e+01 
7.5000000e-01 3.0000000e+00 4.3500000e+01 
7.5000000e-01 3.0000000e+00 4.4000000e+01 
7.5000000e-01 3.0000000e+00 4.4500000e+01 
7.5000000e-01 3.0000000e+00 4.5000000e+01 
7.5000000e-01 3.0000000e+00 4.5500000e+01 
7.5000000e-01 3.0000000e+00 4.6000000e+01 
7.5000000e-01 3.0000000e+00 4.6500000e+01 
7.5000000e-01 3.0000000e+00 4.7000000e+01 
7.5000000e-01 3.0000000e+00 4.7500000e+01 
7.5000000e-01 3.0000000e+00 4.8000000e+01 
7.5000000e-01 3.0000000e+00 4.8500000e+01 
7.5000000e-01 3.0000000e+00 4.9000000e+01 
7.5000000e-01 3.0000000e+00 4.9500000e+01 
7.5000000e-01 3.0000000e+00 5.0500000e+01 
7.5000000e-01 3.0000000e+00 5.1000000e+01 
7.5000000e-01 3.0000000e+00 5.1500000e+01 
7.5000000e-01 3.0000000e+00 5.2000000e+01 
7.5000000e-01 3.0000000e+00 5.2500000e+01 
7.5000000e-01 3.0000000e+00 5.3000000e+01 
7.5000000e-01 3.0000000e+00 5.3500000e+01 
7.5000000e-01 3.0000000e+00 5.4000000e+01 
7.5000000e-01 3.0000000e+00 5.4500000e+01 
7.5000000e-01 3.0000000e+00 5.5000000e+01 
7.5000000e-01 3.0000000e+00 5.5500000e+01 
7.5000000e-01 3.0000000e+00 5.6000000e+01 
7.5000000e-01 3.0000000e+00 5.6500000e+01 
7.5000000e-01 3.0000000e+00 5.7000000e+01 
7.5000000e-01 3.0000000e+00 5.7500000e+01 
7.5000000e-01 3.0000000e+00 5.8000000e+01 
7.5000000e-01 3.0000000e+00 5.8500000e+01 
7.5000000e-01 3.0000000e+00 5.9000000e+01 
7.5000000e-01 3.0000000e+00 5.9500000e+01 
7.5000000e-01 3.0000000e+00 6.0000000e+01 
7.5000000e-01 3.0000000e+00 6.0500000e+01 
7.5000000e-01 3.0000000e+00 6.1000000e+01 
7.5000000e-01 3.0000000e+00 6.1500000e+01 
7.5000000e-01 3.0000000e+00 6.2000000e+01 
7.5000000e-01 3.0000000e+00 6.2500000e+01 
7.5000000e-01 3.0000000e+00 6.3000000e+01 
7.5000000e-01 3.0000000e+00 6.3500000e+01 
7.5000000e-01 3.0000000e+00 6.4000000e+01 
7.5000000e-01 3.0000000e+00 6.4500000e+01 
7.5000000e-01 3.0000000e+00 6.5000000e+01 
7.5000000e-01 3.0000000e+00 6.5500000e+01 
7.5000000e-01 3.0000000e+00 6.6000000e+01 
7.5000000e-01 3.0000000e+00 6.6500000e+01 
7.5000000e-01 3.0000000e+00 6.7000000e+01 
7.5000000e-01 3.0000000e+00 6.7500000e+01 
7.5000000e-01 3.0000000e+00 6.8000000e+01 
7.5000000e-01 3.0000000e+00 6.8500000e+01 
7.5000000e-01 3.0000000e+00 6.9000000e+01 
7.5000000e-01 3.0000000e+00 6.9500000e+01 
7.5000000e-01 3.0250001e+00 -2.5000000e+01 
7.5000000e-01 3.0250001e+00 -2.4500000e+01 
7.5000000e-01 3.0250001e+00 -2.4000000e+01 
7.5000000e-01 3.0250001e+00 -2.3500000e+01 
7.5000000e-01 3.0250001e+00 -2.3000000e+01 
7.5000000e-01 3.0250001e+00 -2.2500000e+01 
7.5000000e-01 3.0250001e+00 -2.2000000e+01 
7.5000000e-01 3.0250001e+00 -2.1500000e+01 
7.5000000e-01 3.0250001e+00 -2.1000000e+01 
7.5000000e-01 3.0250001e+00 -2.0500000e+01 
7.5000000e-01 3.0250001e+00 -2.0000000e+01 
7.5000000e-01 3.0250001e+00 -1.9500000e+01 
7.5000000e-01 3.0250001e+00 -1.9000000e+01 
7.5000000e-01 3.0250001e+00 -1.8500000e+01 
7.5000000e-01 3.0250001e+00 -1.8000000e+01 
7.5000000e-01 3.0250001e+00 -1.7500000e+01 
7.5000000e-01 3.0250001e+00 -1.7000000e+01 
7.5000000e-01 3.0250001e+00 -1.6500000e+01 
7.5000000e-01 3.0250001e+00 -1.6000000e+01 
7.5000000e-01 3.0250001e+00 -1.5500000e+01 
[...]
POINT_DATA 2186
FIELD FieldData 3
DISPLACEMENT 3 2186  float
0.0000000e+00 0.0000000e+00 0.0000000e+00 
0.0000000e+00 0.0000000e+00 0.0000000e+00 
0.0000000e+00 0.0000000e+00 0.0000000e+00 
0.0000000e+00 0.0000000e+00 0.0000000e+00 
9.2398790e-07 3.0188124e-07 -1.4326201e-06 
2.4291833e-07 -6.0615477e-08 -1.6039728e-07 
0.0000000e+00 8.4186049e-06 0.0000000e+00 
0.0000000e+00 -2.5855948e-07 0.0000000e+00 
-1.7733460e-06 5.4565262e-06 3.5709249e-06 
1.9637875e-07 -1.2419213e-07 -5.0397756e-07 
2.9936175e-06 -5.2677283e-06 -8.8689485e-06 
-7.8038147e-07 -1.2706196e-06 -4.4528184e-07 
0.0000000e+00 1.3119646e-05 0.0000000e+00 
0.0000000e+00 3.9649436e-07 0.0000000e+00 
-2.8785905e-06 -8.3355571e-06 1.0931372e-05 
3.2638823e-09 -6.6847446e-07 -2.8063184e-06 
1.4268369e-05 -1.3424162e-05 2.2977707e-07 
5.6378080e-06 2.0650652e-06 -5.1661900e-06 
0.0000000e+00 1.8947441e-05 0.0000000e+00 
0.0000000e+00 8.2690389e-07 0.0000000e+00 
0.0000000e+00 8.5145548e-06 0.0000000e+00 
0.0000000e+00 7.4263994e-06 0.0000000e+00 
0.0000000e+00 4.2653824e-06 0.0000000e+00 
0.0000000e+00 -4.5464640e-07 0.0000000e+00 
0.0000000e+00 -5.6340969e-06 0.0000000e+00 
0.0000000e+00 -9.7303391e-06 0.0000000e+00 
0.0000000e+00 -1.1262127e-05 0.0000000e+00 
0.0000000e+00 -9.4273119e-06 0.0000000e+00 
0.0000000e+00 -4.4873459e-06 0.0000000e+00 
0.0000000e+00 2.2642298e-06 0.0000000e+00 
0.0000000e+00 8.8963288e-06 0.0000000e+00 
0.0000000e+00 1.3412398e-05 0.0000000e+00 
0.0000000e+00 1.4313371e-05 0.0000000e+00 
0.0000000e+00 1.1029164e-05 0.0000000e+00 
0.0000000e+00 4.1512999e-06 0.0000000e+00 
0.0000000e+00 -4.5958500e-06 0.0000000e+00 
0.0000000e+00 -1.2716820e-05 0.0000000e+00 
0.0000000e+00 -1.7639237e-05 0.0000000e+00 
0.0000000e+00 -1.7566839e-05 0.0000000e+00 
0.0000000e+00 -1.2178871e-05 0.0000000e+00 
0.0000000e+00 -2.8908869e-06 0.0000000e+00 
0.0000000e+00 7.4637401e-06 0.0000000e+00 
0.0000000e+00 1.5522211e-05 0.0000000e+00 
0.0000000e+00 1.8644065e-05 0.0000000e+00 
0.0000000e+00 1.6029029e-05 0.0000000e+00 
0.0000000e+00 9.0655340e-06 0.0000000e+00 
0.0000000e+00 6.2299483e-07 0.0000000e+00 
0.0000000e+00 -6.3135462e-06 0.0000000e+00 
0.0000000e+00 -9.8692408e-06 0.0000000e+00 
0.0000000e+00 -9.7987822e-06 0.0000000e+00 
0.0000000e+00 -7.2502839e-06 0.0000000e+00 
0.0000000e+00 -4.0500490e-06 0.0000000e+00 
0.0000000e+00 -1.8627749e-06 0.0000000e+00 
0.0000000e+00 -1.5547105e-06 0.0000000e+00 
0.0000000e+00 -2.9403097e-06 0.0000000e+00 
0.0000000e+00 -4.8798593e-06 0.0000000e+00 
0.0000000e+00 -5.6698805e-06 0.0000000e+00 
0.0000000e+00 -3.7844452e-06 0.0000000e+00 
0.0000000e+00 1.1714077e-06 0.0000000e+00 
0.0000000e+00 7.9310239e-06 0.0000000e+00 
0.0000000e+00 1.4075637e-05 0.0000000e+00 
0.0000000e+00 1.7330425e-05 0.0000000e+00 
0.0000000e+00 1.6671052e-05 0.0000000e+00 
0.0000000e+00 1.2629367e-05 0.0000000e+00 
0.0000000e+00 6.9667008e-06 0.0000000e+00 
0.0000000e+00 1.9467041e-06 0.0000000e+00 
0.0000000e+00 -8.2417529e-07 0.0000000e+00 
0.0000000e+00 -1.5637117e-06 0.0000000e+00 
0.0000000e+00 -2.4221599e-06 0.0000000e+00 
0.0000000e+00 -6.0242774e-06 0.0000000e+00 
4.1750486e-06 -2.2384456e-05 -5.6799477e-06 
1.4570269e-05 -3.0237890e-05 -4.1505587e-06 
1.1461221e-05 -3.4373057e-05 -6.6148514e-06 
2.5796960e-06 -3.2888402e-05 -1.2803820e-05 
5.6911340e-06 -2.5734826e-05 -1.0056673e-05 
5.7247426e-06 -1.6319162e-05 -4.7064941e-06 
1.2066972e-05 -9.2859382e-06 -1.3160829e-05 
1.0159548e-05 -7.8601652e-06 -1.4162712e-05 
2.3014129e-06 -1.0917565e-05 -1.6883334e-05 
4.6025475e-06 -1.2397405e-05 -7.6098136e-06 
1.8459350e-06 -8.8305733e-06 -5.3505227e-07 
8.1881517e-06 -9.8388239e-07 5.4069483e-06 
-2.3917668e-08 2.5553118e-06 -4.9893373e-07 
2.7749106e-06 -7.7605318e-06 -1.7785434e-05 
-9.0981592e-07 -2.6662297e-05 -2.7863560e-05 
9.7055636e-06 -3.2557757e-05 -2.5287540e-05 
1.6137388e-05 -1.6458676e-05 -1.5044936e-05 
1.9716324e-05 9.3525459e-06 -9.2437849e-06 
3.5218723e-05 2.3447064e-05 -8.3136028e-06 
2.2755343e-05 1.0591750e-05 5.1015627e-06 
1.7315546e-05 -1.2308748e-05 8.5798492e-06 
2.0001438e-05 -6.0350712e-06 3.1990028e-05 
1.7643139e-05 3.0828483e-05 7.5013922e-05 
7.0717629e-06 2.5332611e-05 1.0782342e-04 
-6.9600179e-07 -1.4914389e-04 1.5058840e-04 
-5.4066113e-05 -5.9259922e-04 2.5661022e-04 
-7.3106843e-05 -1.3076769e-03 2.7443524e-04 
-1.1879879e-04 -2.2520735e-03 2.1303675e-04 
-1.7215786e-04 -3.3678554e-03 3.2870282e-04 
-2.4517300e-04 -4.4306950e-03 9.4973359e-05 
-3.0132922e-04 -4.9844272e-03 4.7681715e-05 
-2.9137832e-04 -4.7033993e-03 1.3829754e-06 
-3.2945417e-04 -4.3904791e-03 -5.9356411e-05 
-5.6818983e-04 -4.4537024e-03 -4.3622938e-05 
-2.6569588e-04 -4.6534166e-03 -1.4150873e-04 
-1.9141199e-04 -4.3709581e-03 -1.9263756e-04 
-1.3527910e-04 -3.1958187e-03 -3.4879986e-04 
-9.3045222e-05 -1.8182339e-03 -2.1176558e-04 
-1.2353267e-05 -7.8685116e-04 -2.5439303e-04 
8.9090736e-06 -1.7865801e-04 -1.3651287e-04 
4.4190932e-05 1.0939251e-04 -9.1759153e-05 
4.1845757e-05 1.9944174e-04 -3.7947906e-05 
3.9131628e-05 1.7639629e-04 1.0281784e-06 
3.0592604e-05 1.0102332e-04 1.3638852e-05 
1.7341226e-05 2.8374872e-05 2.5101306e-05 
2.0019885e-05 -1.0281572e-05 2.3820674e-05 
1.6110451e-05 -1.5080711e-05 2.2866217e-05 
1.0535061e-05 -7.8269395e-06 1.9019728e-05 
4.4623143e-06 -6.1092869e-06 1.6493963e-05 
4.4817352e-06 -1.0267095e-05 1.3005882e-05 
-1.0030324e-05 -1.2236073e-05 3.4223149e-06 
1.2575332e-06 -7.0960664e-06 -3.9605989e-06 
5.7579355e-06 4.3211932e-07 -9.6037247e-06 
8.9302421e-06 2.4987477e-07 -9.6748736e-06 
9.4485204e-06 -1.2546654e-05 -2.3418070e-06 
1.5288515e-05 -3.2069587e-05 4.6780870e-06 
4.9445835e-06 -4.1352549e-05 1.2266663e-05 
6.0527882e-06 -2.0774431e-05 1.1266256e-05 
1.9005185e-05 1.8985218e-05 1.2488867e-05 
1.9457591e-05 4.4211796e-05 1.1633051e-05 
2.6684873e-05 3.6408768e-05 1.7789524e-05 
2.2093038e-05 -2.0176859e-07 4.9723818e-05 
1.2705934e-05 -4.4697437e-05 8.2316270e-05 
-3.3683120e-06 -9.0774920e-05 9.8179844e-05 
-7.7833174e-06 -2.2775441e-04 1.6521815e-04 
-2.8262144e-05 -6.2775717e-04 1.4861528e-04 
-7.3589850e-05 -1.4111755e-03 2.4644614e-04 
-1.5343100e-04 -2.5336556e-03 1.5860285e-04 
-2.1074612e-04 -3.8019984e-03 2.6138849e-04 
-2.5674040e-04 -4.7470424e-03 6.9403715e-05 
-3.0662931e-04 -4.9016899e-03 4.1746312e-05 
-3.0920058e-04 -4.4637215e-03 2.3498649e-06 
-3.3310356e-04 -4.2444719e-03 -7.6519136e-05 
-2.7807447e-04 -4.4339369e-03 -1.7665865e-04 
-4.1505872e-04 -4.6620071e-03 -1.9935155e-04 
-7.5557196e-05 -4.1351411e-03 -2.1998657e-04 
-2.2998902e-04 -2.9062910e-03 -3.4647222e-04 
-4.4879183e-05 -1.6316451e-03 -2.4658430e-04 
-3.3368106e-05 -6.8584806e-04 -2.4871438e-04 
1.0777740e-05 -1.1108378e-04 -1.4562176e-04 
3.7339443e-05 1.6033514e-04 -7.1093185e-05 
3.7470556e-05 2.1952864e-04 -1.4725820e-05 
2.5448455e-05 1.6586207e-04 1.7843264e-05 
1.7852921e-05 8.7413377e-05 2.4258330e-05 
9.4574170e-06 3.6467609e-05 3.6239402e-05 
7.4704567e-06 1.3903173e-05 3.4316108e-05 
1.9062990e-06 1.0006910e-06 3.2027994e-05 
-3.3279043e-06 -9.4007128e-06 2.9150406e-05 
-4.1353783e-06 -1.1376950e-05 2.5398402e-05 
-3.4561594e-06 -3.7026707e-06 1.6385127e-05 
-1.0028045e-05 5.3814297e-06 4.0575978e-06 
-6.8937966e-06 7.6669758e-06 -4.5761362e-06 
3.4622008e-08 3.5324854e-06 -9.7482862e-06 
-1.3256665e-06 -4.3362013e-07 -6.9630901e-06 
3.3468718e-06 -3.6938960e-07 2.0939378e-06 
2.4110120e-06 1.2224593e-06 4.8420302e-06 
-6.0197131e-06 9.1761819e-07 3.2621974e-06 
-4.3133687e-06 -6.2723126e-07 -1.8592758e-06 
-2.3905752e-06 -4.2313815e-07 -7.0779515e-06 
0.0000000e+00 4.5332131e-06 0.0000000e+00 
0.0000000e+00 5.0098024e-06 0.0000000e+00 
0.0000000e+00 3.4521072e-06 0.0000000e+00 
0.0000000e+00 1.6223040e-06 0.0000000e+00 
0.0000000e+00 8.2499110e-07 0.0000000e+00 
0.0000000e+00 5.8867920e-07 0.0000000e+00 
0.0000000e+00 -2.4304191e-07 0.0000000e+00 
0.0000000e+00 -1.6708385e-06 0.0000000e+00 
0.0000000e+00 -2.4121348e-06 0.0000000e+00 
0.0000000e+00 -1.5638965e-06 0.0000000e+00 
0.0000000e+00 1.7434434e-07 0.0000000e+00 
0.0000000e+00 1.2534097e-06 0.0000000e+00 
0.0000000e+00 9.7292980e-07 0.0000000e+00 
0.0000000e+00 4.3629615e-08 0.0000000e+00 
0.0000000e+00 -4.6973673e-07 0.0000000e+00 
0.0000000e+00 -3.4066031e-07 0.0000000e+00 
0.0000000e+00 -1.2142901e-07 0.0000000e+00 
0.0000000e+00 -1.8230295e-07 0.0000000e+00 
0.0000000e+00 -2.2559486e-07 0.0000000e+00 
0.0000000e+00 1.7225024e-07 0.0000000e+00 
0.0000000e+00 8.3253639e-07 0.0000000e+00 
0.0000000e+00 1.0696367e-06 0.0000000e+00 
0.0000000e+00 4.9261331e-07 0.0000000e+00 
0.0000000e+00 -4.9732563e-07 0.0000000e+00 
0.0000000e+00 -1.1071093e-06 0.0000000e+00 
0.0000000e+00 -9.4494095e-07 0.0000000e+00 
0.0000000e+00 -3.0557777e-07 0.0000000e+00 
0.0000000e+00 2.6220067e-07 0.0000000e+00 
0.0000000e+00 4.9730937e-07 0.0000000e+00 
0.0000000e+00 4.9448943e-07 0.0000000e+00 
0.0000000e+00 3.9680012e-07 0.0000000e+00 
0.0000000e+00 2.0632812e-07 0.0000000e+00 
0.0000000e+00 -9.4222706e-08 0.0000000e+00 
0.0000000e+00 -3.8197800e-07 0.0000000e+00 
0.0000000e+00 -4.6660881e-07 0.0000000e+00 
0.0000000e+00 -2.9250862e-07 0.0000000e+00 
0.0000000e+00 6.3658434e-09 0.0000000e+00 
0.0000000e+00 2.4778805e-07 0.0000000e+00 
0.0000000e+00 3.3452230e-07 0.0000000e+00 
0.0000000e+00 8.4906542e-06 0.0000000e+00 
0.0000000e+00 7.4105956e-06 0.0000000e+00 
0.0000000e+00 4.2671454e-06 0.0000000e+00 
0.0000000e+00 -4.3888133e-07 0.0000000e+00 
0.0000000e+00 -5.6176609e-06 0.0000000e+00 
0.0000000e+00 -9.7255297e-06 0.0000000e+00 
0.0000000e+00 -1.1269367e-05 0.0000000e+00 
0.0000000e+00 -9.4339512e-06 0.0000000e+00 
0.0000000e+00 -4.4791113e-06 0.0000000e+00 
0.0000000e+00 2.2881877e-06 0.0000000e+00 
0.0000000e+00 8.9192590e-06 0.0000000e+00 
0.0000000e+00 1.3412316e-05 0.0000000e+00 
0.0000000e+00 1.4282172e-05 0.0000000e+00 
0.0000000e+00 1.0982008e-05 0.0000000e+00 
0.0000000e+00 4.1177250e-06 0.0000000e+00 
0.0000000e+00 -4.5930269e-06 0.0000000e+00 
0.0000000e+00 -1.2678944e-05 0.0000000e+00 
0.0000000e+00 -1.7591330e-05 0.0000000e+00 
0.0000000e+00 -1.7538474e-05 0.0000000e+00 
0.0000000e+00 -1.2182356e-05 0.0000000e+00 
0.0000000e+00 -2.9159876e-06 0.0000000e+00 
0.0000000e+00 7.4361747e-06 0.0000000e+00 
0.0000000e+00 1.5504176e-05 0.0000000e+00 
0.0000000e+00 1.8636769e-05 0.0000000e+00 
0.0000000e+00 1.6029187e-05 0.0000000e+00 
0.0000000e+00 9.0709200e-06 0.0000000e+00 
0.0000000e+00 6.3408385e-07 0.0000000e+00 
0.0000000e+00 -6.2939080e-06 0.0000000e+00 
0.0000000e+00 -9.8401506e-06 0.0000000e+00 
0.0000000e+00 -9.7693046e-06 0.0000000e+00 
0.0000000e+00 -7.2402972e-06 0.0000000e+00 
0.0000000e+00 -4.0759310e-06 0.0000000e+00 
0.0000000e+00 -1.9199877e-06 0.0000000e+00 
0.0000000e+00 -1.6166778e-06 0.0000000e+00 
0.0000000e+00 -2.9743394e-06 0.0000000e+00 
0.0000000e+00 -4.8654078e-06 0.0000000e+00 
0.0000000e+00 -5.6113245e-06 0.0000000e+00 
0.0000000e+00 -3.7155669e-06 0.0000000e+00 
0.0000000e+00 1.2031496e-06 0.0000000e+00 
0.0000000e+00 7.9025667e-06 0.0000000e+00 
0.0000000e+00 1.4014475e-05 0.0000000e+00 
0.0000000e+00 1.7291473e-05 0.0000000e+00 
0.0000000e+00 1.6684879e-05 0.0000000e+00 
0.0000000e+00 1.2682628e-05 0.0000000e+00 
0.0000000e+00 7.0293290e-06 0.0000000e+00 
0.0000000e+00 1.9976285e-06 0.0000000e+00 
0.0000000e+00 -8.0090956e-07 0.0000000e+00 
0.0000000e+00 -1.5829273e-06 0.0000000e+00 
0.0000000e+00 -2.4843289e-06 0.0000000e+00 
0.0000000e+00 -6.1168712e-06 0.0000000e+00 
0.0000000e+00 -1.3381000e-05 0.0000000e+00 
0.0000000e+00 -2.2355192e-05 0.0000000e+00 
0.0000000e+00 -3.0280009e-05 0.0000000e+00 
0.0000000e+00 -3.4426557e-05 0.0000000e+00 
0.0000000e+00 -3.2815620e-05 0.0000000e+00 
0.0000000e+00 -2.5655756e-05 0.0000000e+00 
0.0000000e+00 -1.6315751e-05 0.0000000e+00 
0.0000000e+00 -9.4417856e-06 0.0000000e+00 
0.0000000e+00 -8.1000444e-06 0.0000000e+00 
0.0000000e+00 -1.0931954e-05 0.0000000e+00 
0.0000000e+00 -1.2351037e-05 0.0000000e+00 
0.0000000e+00 -8.4582261e-06 0.0000000e+00 
0.0000000e+00 -7.5380291e-07 0.0000000e+00 
0.0000000e+00 2.0859593e-06 0.0000000e+00 
0.0000000e+00 -8.5390566e-06 0.0000000e+00 
0.0000000e+00 -2.6534855e-05 0.0000000e+00 
0.0000000e+00 -3.1910793e-05 0.0000000e+00 
0.0000000e+00 -1.5790743e-05 0.0000000e+00 
0.0000000e+00 9.5730184e-06 0.0000000e+00 
0.0000000e+00 2.2292561e-05 0.0000000e+00 
0.0000000e+00 9.3578319e-06 0.0000000e+00 
0.0000000e+00 -1.1613134e-05 0.0000000e+00 
0.0000000e+00 -3.7184507e-06 0.0000000e+00 
0.0000000e+00 3.3599790e-05 0.0000000e+00 
0.0000000e+00 2.5584222e-05 0.0000000e+00 
0.0000000e+00 -1.5256963e-04 0.0000000e+00 
0.0000000e+00 -5.9502351e-04 0.0000000e+00 
0.0000000e+00 -1.3094100e-03 0.0000000e+00 
0.0000000e+00 -2.2584694e-03 0.0000000e+00 
0.0000000e+00 -3.3795275e-03 0.0000000e+00 
0.0000000e+00 -4.4594621e-03 0.0000000e+00 
0.0000000e+00 -5.0128424e-03 0.0000000e+00 
0.0000000e+00 -4.7353399e-03 0.0000000e+00 
0.0000000e+00 -4.4137118e-03 0.0000000e+00 
0.0000000e+00 -4.4698091e-03 0.0000000e+00 
0.0000000e+00 -4.6800035e-03 0.0000000e+00 
0.0000000e+00 -4.4026775e-03 0.0000000e+00 
0.0000000e+00 -3.2171300e-03 0.0000000e+00 
0.0000000e+00 -1.8340547e-03 0.0000000e+00 
0.0000000e+00 -7.9187076e-04 0.0000000e+00 
0.0000000e+00 -1.7864605e-04 0.0000000e+00 
0.0000000e+00 1.1065068e-04 0.0000000e+00 
0.0000000e+00 2.0025259e-04 0.0000000e+00 
0.0000000e+00 1.7681859e-04 0.0000000e+00 
0.0000000e+00 1.0209611e-04 0.0000000e+00 
0.0000000e+00 2.9349809e-05 0.0000000e+00 
0.0000000e+00 -9.8183491e-06 0.0000000e+00 
0.0000000e+00 -1.5251103e-05 0.0000000e+00 
0.0000000e+00 -8.1847083e-06 0.0000000e+00 
0.0000000e+00 -6.3417165e-06 0.0000000e+00 
0.0000000e+00 -1.0393799e-05 0.0000000e+00 
0.0000000e+00 -1.2065749e-05 0.0000000e+00 
0.0000000e+00 -6.8358008e-06 0.0000000e+00 
0.0000000e+00 5.2286396e-07 0.0000000e+00 
0.0000000e+00 6.9084102e-08 0.0000000e+00 
0.0000000e+00 -1.3193270e-05 0.0000000e+00 
0.0000000e+00 -3.2674066e-05 0.0000000e+00 
0.0000000e+00 -4.0361814e-05 0.0000000e+00 
0.0000000e+00 -1.9619452e-05 0.0000000e+00 
0.0000000e+00 1.8847817e-05 0.0000000e+00 
0.0000000e+00 4.3550201e-05 0.0000000e+00 
0.0000000e+00 3.5344823e-05 0.0000000e+00 
0.0000000e+00 -4.2811538e-07 0.0000000e+00 
0.0000000e+00 -4.1479718e-05 0.0000000e+00 
0.0000000e+00 -8.7195025e-05 0.0000000e+00 
0.0000000e+00 -2.2836076e-04 0.0000000e+00 
0.0000000e+00 -6.3287903e-04 0.0000000e+00 
0.0000000e+00 -1.4176017e-03 0.0000000e+00 
0.0000000e+00 -2.5457351e-03 0.0000000e+00 
0.0000000e+00 -3.8122186e-03 0.0000000e+00 
0.0000000e+00 -4.7738021e-03 0.0000000e+00 
0.0000000e+00 -4.9304594e-03 0.0000000e+00 
0.0000000e+00 -4.4962578e-03 0.0000000e+00 
0.0000000e+00 -4.2641531e-03 0.0000000e+00 
0.0000000e+00 -4.4606109e-03 0.0000000e+00 
0.0000000e+00 -4.6830261e-03 0.0000000e+00 
0.0000000e+00 -4.1656792e-03 0.0000000e+00 
0.0000000e+00 -2.9257198e-03 0.0000000e+00 
0.0000000e+00 -1.6420358e-03 0.0000000e+00 
0.0000000e+00 -6.8919553e-04 0.0000000e+00 
0.0000000e+00 -1.1201068e-04 0.0000000e+00 
0.0000000e+00 1.6020477e-04 0.0000000e+00 
0.0000000e+00 2.2052662e-04 0.0000000e+00 
0.0000000e+00 1.6747140e-04 0.0000000e+00 
0.0000000e+00 8.9112596e-05 0.0000000e+00 
0.0000000e+00 3.6825946e-05 0.0000000e+00 
0.0000000e+00 1.3348184e-05 0.0000000e+00 
0.0000000e+00 6.9720949e-07 0.0000000e+00 
0.0000000e+00 -9.0352678e-06 0.0000000e+00 
0.0000000e+00 -1.1096284e-05 0.0000000e+00 
0.0000000e+00 -3.9001288e-06 0.0000000e+00 
0.0000000e+00 5.0398271e-06 0.0000000e+00 
0.0000000e+00 7.5809417e-06 0.0000000e+00 
0.0000000e+00 3.7120240e-06 0.0000000e+00 
0.0000000e+00 -2.6394875e-07 0.0000000e+00 
0.0000000e+00 -4.1851487e-07 0.0000000e+00 
0.0000000e+00 1.0749591e-06 0.0000000e+00 
0.0000000e+00 8.9592771e-07 0.0000000e+00 
0.0000000e+00 -5.0208871e-07 0.0000000e+00 
0.0000000e+00 -3.5536300e-07 0.0000000e+00 
0.0000000e+00 2.0098128e-06 0.0000000e+00 
0.0000000e+00 4.4695112e-06 0.0000000e+00 
0.0000000e+00 4.9851201e-06 0.0000000e+00 
0.0000000e+00 3.4984705e-06 0.0000000e+00 
0.0000000e+00 1.6789196e-06 0.0000000e+00 
0.0000000e+00 8.2223829e-07 0.0000000e+00 
0.0000000e+00 5.3626661e-07 0.0000000e+00 
0.0000000e+00 -2.7386795e-07 0.0000000e+00 
0.0000000e+00 -1.6411351e-06 0.0000000e+00 
0.0000000e+00 -2.3613500e-06 0.0000000e+00 
0.0000000e+00 -1.5542781e-06 0.0000000e+00 
0.0000000e+00 1.3595758e-07 0.0000000e+00 
0.0000000e+00 1.2170034e-06 0.0000000e+00 
0.0000000e+00 9.7757493e-07 0.0000000e+00 
0.0000000e+00 7.2843889e-08 0.0000000e+00 
0.0000000e+00 -4.5821045e-07 0.0000000e+00 
0.0000000e+00 -3.5806889e-07 0.0000000e+00 
0.0000000e+00 -1.3829312e-07 0.0000000e+00 
0.0000000e+00 -1.7175658e-07 0.0000000e+00 
0.0000000e+00 -1.9916965e-07 0.0000000e+00 
0.0000000e+00 1.8087681e-07 0.0000000e+00 
0.0000000e+00 8.1117821e-07 0.0000000e+00 
0.0000000e+00 1.0422153e-06 0.0000000e+00 
0.0000000e+00 4.8886324e-07 0.0000000e+00 
0.0000000e+00 -4.7667305e-07 0.0000000e+00 
0.0000000e+00 -1.0874929e-06 0.0000000e+00 
0.0000000e+00 -9.4517543e-07 0.0000000e+00 
0.0000000e+00 -3.1815000e-07 0.0000000e+00 
0.0000000e+00 2.5610834e-07 0.0000000e+00 
0.0000000e+00 5.0214561e-07 0.0000000e+00 
0.0000000e+00 4.9799240e-07 0.0000000e+00 
0.0000000e+00 3.9036880e-07 0.0000000e+00 
0.0000000e+00 1.9779480e-07 0.0000000e+00 
0.0000000e+00 -9.2243546e-08 0.0000000e+00 
0.0000000e+00 -3.7032112e-07 0.0000000e+00 
0.0000000e+00 -4.5874521e-07 0.0000000e+00 
0.0000000e+00 -2.9653802e-07 0.0000000e+00 
0.0000000e+00 -2.2899618e-09 0.0000000e+00 
0.0000000e+00 2.4589789e-07 0.0000000e+00 
0.0000000e+00 3.3836830e-07 0.0000000e+00 
0.0000000e+00 0.0000000e+00 0.0000000e+00 
0.0000000e+00 0.0000000e+00 0.0000000e+00 
0.0000000e+00 0.0000000e+00 0.0000000e+00 
0.0000000e+00 0.0000000e+00 0.0000000e+00 
0.0000000e+00 0.0000000e+00 0.0000000e+00 
0.0000000e+00 0.0000000e+00 0.0000000e+00 
0.0000000e+00 0.0000000e+00 0.0000000e+00 
0.0000000e+00 0.0000000e+00 0.0000000e+00 
0.0000000e+00 0.0000000e+00 0.0000000e+00 
0.0000000e+00 0.0000000e+00 0.0000000e+00 
0.0000000e+00 0.0000000e+00 0.0000000e+00 
0.0000000e+00 0.0000000e+00 0.0000000e+00 
0.0000000e+00 0.0000000e+00 0.0000000e+00 
0.0000000e+00 0.0000000e+00 0.0000000e+00 
0.0000000e+00 0.0000000e+00 0.0000000e+00 
0.0000000e+00 0.0000000e+00 0.0000000e+00 
0.0000000e+00 0.0000000e+00 0.0000000e+00 
0.0000000e+00 0.0000000e+00 0.0000000e+00 
0.0000000e+00 0.0000000e+00 0.0000000e+00 
0.0000000e+00 0.0000000e+00 0.0000000e+00 
0.0000000e+00 0.0000000e+00 0.0000000e+00 
0.0000000e+00 0.0000000e+00 0.0000000e+00 
0.0000000e+00 0.0000000e+00 0.0000000e+00 
0.0000000e+00 0.0000000e+00 0.0000000e+00 
0.0000000e+00 0.0000000e+00 0.0000000e+00 
0.0000000e+00 0.0000000e+00 0.0000000e+00 
0.0000000e+00 0.0000000e+00 0.0000000e+00 
0.0000000e+00 0.0000000e+00 0.0000000e+00 
0.0000000e+00 0.0000000e+00 0.0000000e+00 
0.0000000e+00 0.0000000e+00 0.0000000e+00 
0.0000000e+00 0.0000000e+00 0.0000000e+00 
0.0000000e+00 0.0000000e+00 0.0000000e+00 
0.0000000e+00 0.0000000e+00 0.0000000e+00 
0.0000000e+00 0.0000000e+00 0.0000000e+00 
0.0000000e+00 0.0000000e+00 0.0000000e+00 
0.0000000e+00 0.0000000e+00 0.0000000e+00 
0.0000000e+00 0.0000000e+00 0.0000000e+00 
0.0000000e+00 0.0000000e+00 0.0000000e+00 
0.0000000e+00 0.0000000e+00 0.0000000e+00 
0.0000000e+00 0.0000000e+00 0.0000000e+00 
0.0000000e+00 0.0000000e+00 0.0000000e+00 
0.0000000e+00 0.0000000e+00 0.0000000e+00 
0.0000000e+00 0.0000000e+00 0.0000000e+00 
0.0000000e+00 0.0000000e+00 0.0000000e+00 
0.0000000e+00 0.0000000e+00 0.0000000e+00 
0.0000000e+00 0.0000000e+00 0.0000000e+00 
0.0000000e+00 0.0000000e+00 0.0000000e+00 
0.0000000e+00 0.0000000e+00 0.0000000e+00 
0.0000000e+00 0.0000000e+00 0.0000000e+00 
0.0000000e+00 0.0000000e+00 0.0000000e+00 
0.0000000e+00 0.0000000e+00 0.0000000e+00 
0.0000000e+00 0.0000000e+00 0.0000000e+00 
0.0000000e+00 0.0000000e+00 0.0000000e+00 
0.0000000e+00 0.0000000e+00 0.0000000e+00 
0.0000000e+00 0.0000000e+00 0.0000000e+00 
0.0000000e+00 0.0000000e+00 0.0000000e+00 
0.0000000e+00 0.0000000e+00 0.0000000e+00 