# vtk DataFile Version 4.0
vtk output
ASCII
DATASET UNSTRUCTURED_GRID
POINTS 2186 float
0.0000000e+00 0.0000000e+00 0.0000000e+00 
0.0000000e+00 0.0000000e+00 5.0000000e+01 
5.0000000e+00 0.0000000e+00 0.0000000e+00 
5.0000000e+00 0.0000000e+00 5.0000000e+01 
5.0000000e+00 1.0000000e+00 0.0000000e+00 
5.0000000e+00 1.0000000e+00 5.0000000e+01 
0.0000000e+00 1.0000000e+00 0.0000000e+00 
0.0000000e+00 1.0000000e+00 5.0000000e+01 
5.0000000e+00 2.0000000e+00 0.0000000e+00 
5.0000000e+00 2.0000000e+00 5.0000000e+01 
3.0000000e+00 2.0000000e+00 0.0000000e+00 
3.0000000e+00 2.0000000e+00 5.0000000e+01 
0.0000000e+00 2.0000000e+00 0.0000000e+00 
0.0000000e+00 2.0000000e+00 5.0000000e+01 
1.5000000e+00 3.0000000e+00 0.0000000e+00 
1.5000000e+00 3.0000000e+00 5.0000000e+01 
7.5000000e-01 3.0000000e+00 0.0000000e+00 
7.5000000e-01 3.0000000e+00 5.0000000e+01 
0.0000000e+00 3.0000000e+00 0.0000000e+00 
0.0000000e+00 3.0000000e+00 5.0000000e+01 
7.5000000e-01 3.0000000e+00 -2.5000000e+01 
7.5000000e-01 3.0000000e+00 -2.4500000e+01 
7.5000000e-01 3.0000000e+00 -2.4000000e+01 
7.5000000e-01 3.0000000e+00 -2.3500000e+01 
7.5000000e-01 3.0000000e+00 -2.3000000e+01 
7.5000000e-01 3.0000000e+00 -2.2500000e+01 
7.5000000e-01 3.0000000e+00 -2.2000000e+01 
7.5000000e-01 3.0000000e+00 -2.1500000e+01 
7.5000000e-01 3.0000000e+00 -2.1000000e+01 
7.5000000e-01 3.0000000e+00 -2.0500000e+01 
7.5000000e-01 3.0000000e+00 -2.0000000e+01 
7.5000000e-01 3.0000000e+00 -1.9500000e+01 
7.5000000e-01 3.0000000e+00 -1.9000000e+01 
7.5000000e-01 3.0000000e+00 -1.8500000e+01 
7.5000000e-01 3.0000000e+00 -1.8000000e+01 
7.5000000e-01 3.0000000e+00 -1.7500000e+01 
7.5000000e-01 3.0000000e+00 -1.7000000e+01 
7.5000000e-01 3.0000000e+00 -1.6500000e+01 
7.5000000e-01 3.0000000e+00 -1.6000000e+01 
7.5000000e-01 3.0000000e+00 -1.5500000e+01 
7.5000000e-01 3.0000000e+00 -1.5000000e+01 
7.5000000e-01 3.0000000e+00 -1.4500000e+01 
7.5000000e-01 3.0000000e+00 -1.4000000e+01 
7.5000000e-01 3.0000000e+00 -1.3500000e+01 
7.5000000e-01 3.0000000e+00 -1.3000000e+01 
7.5000000e-01 3.0000000e+00 -1.2500000e+01 
7.5000000e-01 3.0000000e+00 -1.2000000e+01 
7.5000000e-01 3.0000000e+00 -1.1500000e+01 
7.5000000e-01 3.0000000e+00 -1.1000000e+01 
7.5000000e-01 3.0000000e+00 -1.0500000e+01 
7.5000000e-01 3.0000000e+00 -1.0000000e+01 
7.5000000e-01 3.0000000e+00 -9.5000000e+00 
7.5000000e-01 3.0000000e+00 -9.0000000e+00 
7.5000000e-01 3.0000000e+00 -8.5000000e+00 
7.5000000e-01 3.0000000e+00 -8.0000000e+00 
7.5000000e-01 3.0000000e+00 -7.5000000e+00 
7.5000000e-01 3.0000000e+00 -7.0000000e+00 
7.5000000e-01 3.0000000e+00 -6.5000000e+00 
7.5000000e-01 3.0000000e+00 -6.0000000e+00 
7.5000000e-01 3.0000000e+00 -5.5000000e+00 
7.5000000e-01 3.0000000e+00 -5.0000000e+00 
7.5000000e-01 3.0000000e+00 -4.5000000e+00 
7.5000000e-01 3.0000000e+00 -4.0000000e+00 
7.5000000e-01 3.0000000e+00 -3.5000000e+00 
7.5000000e-01 3.0000000e+00 -3.0000000e+00 
7.5000000e-01 3.0000000e+00 -2.5000000e+00 
7.5000000e-01 3.0000000e+00 -2.0000000e+00 
7.5000000e-01 3.0000000e+00 -1.5000000e+00 
7.5000000e-01 3.0000000e+00 -1.0000000e+00 
7.5000000e-01 3.0000000e+00 -5.0000000e-01 
7.5000000e-01 3.0000000e+00 5.0000000e-01 
7.5000000e-01 3.0000000e+00 1.0000000e+00 
7.5000000e-01 3.0000000e+00 1.5000000e+00 
7.5000000e-01 3.0000000e+00 2.0000000e+00 
7.5000000e-01 3.0000000e+00 2.5000000e+00 
7.5000000e-01 3.0000000e+00 3.0000000e+00 
7.5000000e-01 3.0000000e+00 3.5000000e+00 
7.5000000e-01 3.0000000e+00 4.0000000e+00 
7.5000000e-01 3.0000000e+00 4.5000000e+00 
7.5000000e-01 3.0000000e+00 5.0000000e+00 
7.5000000e-01 3.0000000e+00 5.5000000e+00 
7.5000000e-01 3.0000000e+00 6.0000000e+00 
7.5000000e-01 3.0000000e+00 6.5000000e+00 
7.5000000e-01 3.0000000e+00 7.0000000e+00 
7.5000000e-01 3.0000000e+00 7.5000000e+00 
7.5000000e-01 3.0000000e+00 8.0000000e+00 
7.5000000e-01 3.0000000e+00 8.5000000e+00 
7.5000000e-01 3.0000000e+00 9.0000000e+00 
7.5000000e-01 3.0000000e+00 9.5000000e+00 
7.5000000e-01 3.0000000e+00 1.0000000e+01 
7.5000000e-01 3.0000000e+00 1.0500000e+01 
7.5000000e-01 3.0000000e+00 1.1000000e+01 
7.5000000e-01 3.0000000e+00 1.1500000e+01 
7.5000000e-01 3.0000000e+00 1.2000000e+01 
7.5000000e-01 3.0000000e+00 1.2500000e+01 
7.5000000e-01 3.0000000e+00 1.3000000e+01 
7.5000000e-01 3.0000000e+00 1.3500000e+01 
7.5000000e-01 3.0000000e+00 1.4000000e+01 
7.5000000e-01 3.0000000e+00 1.4500000e+01 
7.5000000e-01 3.0000000e+00 1.5000000e+01 
7.5000000e-01 3.0000000e+00 1.5500000e+01 
7.5000000e-01 3.0000000e+00 1.6000000e+01 
7.5000000e-01 3.0000000e+00 1.6500000e+01 
7.5000000e-01 3.0000000e+00 1.7000000e+01 
7.5000000e-01 3.0000000e+00 1.7500000e+01 
7.5000000e-01 3.0000000e+00 1.8000000e+01 
7.5000000e-01 3.0000000e+00 1.8500000e+01 
7.5000000e-01 3.0000000e+00 1.9000000e+01 
7.5000000e-01 3.0000000e+00 1.9500000e+01 
7.5000000e-01 3.0000000e+00 2.0000000e+01 
7.5000000e-01 3.0000000e+00 2.0500000e+01 
7.5000000e-01 3.0000000e+00 2.1000000e+01 
7.5000000e-01 3.0000000e+00 2.1500000e+01 
7.5000000e-01 3.0000000e+00 2.2000000e+01 
7.5000000e-01 3.0000000e+00 2.2500000e+01 
7.5000000e-01 3.0000000e+00 2.3000000e+01 
7.5000000e-01 3.0000000e+00 2.3500000e+01 
7.5000000e-01 3.0000000e+00 2.4000000e+01 
7.5000000e-01 3.0000000e+00 2.4500000e+01 
7.5000000e-01 3.0000000e+00 2.5000000e+01 
7.5000000e-01 3.0000000e+00 2.5500000e+01 
7.5000000e-01 3.0000000e+00 2.6000000e+01 
7.5000000e-01 3.0000000e+00 2.6500000e+01 
7.5000000e-01 3.0000000e+00 2.7000000e+01 
7.5000000e-01 3.0000000e+00 2.7500000e+01 
7.5000000e-01 3.0000000e+00 2.8000000e+01 
7.5000000e-01 3.0000000e+00 2.8500000e+01 
7.5000000e-01 3.0000000e+00 2.9000000e+01 
7.5000000e-01 3.0000000e+00 2.9500000e+01 
7.5000000e-01 3.0000000e+00 3.0000000e+01 
7.5000000e-01 3.0000000e+00 3.0500000e+01 
7.5000000e-01 3.0000000e+00 3.1000000e+01 
7.5000000e-01 3.0000000e+00 3.1500000e+01 
7.5000000e-01 3.0000000e+00 3.2000000e+01 
7.5000000e-01 3.0000000e+00 3.2500000e+01 
7.5000000e-01 3.0000000e+00 3.3000000e+01 
7.5000000e-01 3.0000000e+00 3.3500000e+01 
7.5000000e-01 3.0000000e+00 3.4000000e+01 
7.5000000e-01 3.0000000e+00 3.4500000e+01 
7.5000000e-01 3.0000000e+00 3.5000000e+01 
7.5000000e-01 3.0000000e+00 3.5500000e+01 
7.5000000e-01 3.0000000e+00 3.6000000e+01 
7.5000000e-01 3.0000000e+00 3.6500000e+01 
7.5000000e-01 3.0000000e+00 3.7000000e+01 
7.5000000e-01 3.0000000e+00 3.7500000e+01 
7.5000000e-01 3.0000000e+00 3.8000000e+01 
7.5000000e-01 3.0000000e+00 3.8500000e+01 
7.5000000e-01 3.0000000e+00 3.9000000e+01 
7.5000000e-01 3.0000000e+00 3.9500000e+01 
7.5000000e-01 3.0000000e+00 4.0000000e+01 
7.5000000e-01 3.0000000e+00 4.0500000e+01 
7.5000000e-01 3.0000000e+00 4.1000000e+01 
7.5000000e-01 3.0000000e+00 4.1500000e+01 
7.5000000e-01 3.0000000e+00 4.2000000e+01 
7.5000000e-01 3.0000000e+00 4.2500000e+01 
7.5000000e-01 3.0000000e+00 4.3000000e+01 
7.5000000e-01 3.0000000e+00 4.3500000e+01 
7.5000000e-01 3.0000000e+00 4.4000000e+01 
7.5000000e-01 3.0000000e+00 4.4500000e+01 
7.5000000e-01 3.0000000e+00 4.5000000e+01 
7.5000000e-01 3.0000000e+00 4.5500000e+01 
7.5000000e-01 3.0000000e+00 4.6000000e+01 
7.5000000e-01 3.0000000e+00 4.6500000e+01 
7.5000000e-01 3.0000000e+00 4.7000000e+01 
7.5000000e-01 3.0000000e+00 4.7500000e+01 
7.5000000e-01 3.0000000e+00 4.8000000e+01 
7.5000000e-01 3.0000000e+00 4.8500000e+01 
7.5000000e-01 3.0000000e+00 4.9000000e+01 
7.5000000e-01 3.0000000e+00 4.9500000e+01 
7.5000000e-01 3.0000000e+00 5.0500000e+01 
7.5000000e-01 3.0000000e+00 5.1000000e+01 
7.5000000e-01 3.0000000e+00 5.1500000e+01 
7.5000000e-01 3.0000000e+00 5.2000000e+01 
7.5000000e-01 3.0000000e+00 5.2500000e+01 
7.5000000e-01 3.0000000e+00 5.3000000e+01 
7.5000000e-01 3.0000000e+00 5.3500000e+01 
7.5000000e-01 3.0000000e+00 5.4000000e+01 
7.5000000e-01 3.0000000e+00 5.4500000e+01 
7.5000000e-01 3.0000000e+00 5.5000000e+01 
7.5000000e-01 3.0000000e+00 5.5500000e+01 
7.5000000e-01 3.0000000e+00 5.6000000e+01 
7.5000000e-01 3.0000000e+00 5.6500000e+01 
7.5000000e-01 3.0000000e+00 5.7000000e+01 
7.5000000e-01 3.0000000e+00 5.7500000e+01 
7.5000000e-01 3.0000000e+00 5.8000000e+01 
7.5000000e-01 3.0000000e+00 5.8500000e+01 
7.5000000e-01 3.0000000e+00 5.9000000e+01 
7.5000000e-01 3.0000000e+00 5.9500000e+01 
7.5000000e-01 3.0000000e+00 6.0000000e+01 
7.5000000e-01 3.0000000e+00 6.0500000e+01 
7.5000000e-01 3.0000000e+00 6.1000000e+01 
7.5000000e-01 3.0000000e+00 6.1500000e+01 
7.5000000e-01 3.0000000e+00 6.2000000e+01 
7.5000000e-01 3.0000000e+00 6.2500000e+01 
7.5000000e-01 3.0000000e+00 6.3000000e+01 
7.5000000e-01 3.0000000e+00 6.3500000e+01 
7.5000000e-01 3.0000000e+00 6.4000000e+01 
7.5000000e-01 3.0000000e+00 6.4500000e+01 
7.5000000e-01 3.0000000e+00 6.5000000e+01 
7.5000000e-01 3.0000000e+00 6.5500000e+01 
7.5000000e-01 3.0000000e+00 6.6000000e+01 
7.5000000e-01 3.0000000e+00 6.6500000e+01 
7.5000000e-01 3.0000000e+00 6.7000000e+01 
7.5000000e-01 3.0000000e+00 6.7500000e+01 
7.5000000e-01 3.0000000e+00 6.8000000e+01 
7.5000000e-01 3.0000000e+00 6.8500000e+01 
7.5000000e-01 3.0000000e+00 6.9000000e+01 
7.5000000e-01 3.0000000e+00 6.9500000e+01 
7.5000000e-01 3.0250001e+00 -2.5000000e+01 
7.5000000e-01 3.0250001e+00 -2.4500000e+01 
7.5000000e-01 3.0250001e+00 -2.4000000e+01 
7.5000000e-01 3.0250001e+00 -2.3500000e+01 
7.5000000e-01 3.0250001e+00 -2.3000000e+01 
7.5000000e-01 3.0250001e+00 -2.2500000e+01 
7.5000000e-01 3.0250001e+00 -2.2000000e+01 
7.5000000e-01 3.0250001e+00 -2.1500000e+01 
7.5000000e-01 3.0250001e+00 -2.1000000e+01 
7.5000000e-01 3.0250001e+00 -2.0500000e+01 
7.5000000e-01 3.0250001e+00 -2.0000000e+01 
7.5000000e-01 3.0250001e+00 -1.9500000e+01 
7.5000000e-01 3.0250001e+00 -1.9000000e+01 
7.5000000e-01 3.0250001e+00 -1.8500000e+01 
7.5000000e-01 3.0250001e+00 -1.8000000e+01 
7.5000000e-01 3.0250001e+00 -1.7500000e+01 
7.5000000e-01 3.0250001e+00 -1.7000000e+01 
7.5000000e-01 3.0250001e+00 -1.6500000e+01 
7.5000000e-01 3.0250001e+00 -1.6000000e+01 
7.5000000e-01 3.0250001e+00 -1.5500000e+01 
[...]
POINT_DATA 2186
FIELD FieldData 3
DISPLACEMENT 3 2186  float
0.0000000e+00 0.0000000e+00 0.0000000e+00 
0.0000000e+00 0.0000000e+00 0.0000000e+00 
0.0000000e+00 0.0000000e+00 0.0000000e+00 
0.0000000e+00 0.0000000e+00 0.0000000e+00 
1.4130893e-06 -1.0112799e-06 -1.9047894e-07 
1.2917798e-06 -9.7043528e-07 2.3955108e-06 
0.0000000e+00 -3.0192468e-06 0.0000000e+00 
0.0000000e+00 -7.3905380e-07 0.0000000e+00 
2.0799523e-06 -7.2854726e-07 -1.3081165e-06 
1.0243355e-06 -4.4485745e-07 2.2852203e-06 
-1.3593975e-06 9.9901126e-07 5.7733308e-07 
-2.8579362e-07 -2.4824435e-06 5.5604728e-06 
0.0000000e+00 -3.7728794e-06 0.0000000e+00 
0.0000000e+00 1.3468335e-06 0.0000000e+00 
-7.4891256e-07 9.3643666e-06 -3.1006421e-06 
-1.3854724e-06 7.4912907e-07 8.2278348e-06 
3.1472312e-06 5.8290448e-06 -4.2947854e-06 
-7.0942865e-06 3.7522443e-06 5.3658941e-06 
0.0000000e+00 1.4224994e-06 0.0000000e+00 
0.0000000e+00 5.8824080e-06 0.0000000e+00 
0.0000000e+00 1.3187864e-05 0.0000000e+00 
0.0000000e+00 1.1126306e-05 0.0000000e+00 
0.0000000e+00 5.9200725e-06 0.0000000e+00 
0.0000000e+00 -3.8417096e-07 0.0000000e+00 
0.0000000e+00 -5.8524183e-06 0.0000000e+00 
0.0000000e+00 -9.4537772e-06 0.0000000e+00 
0.0000000e+00 -1.1079440e-05 0.0000000e+00 
0.0000000e+00 -1.0950175e-05 0.0000000e+00 
0.0000000e+00 -9.0566555e-06 0.0000000e+00 
0.0000000e+00 -5.1786283e-06 0.0000000e+00 
0.0000000e+00 5.4380092e-07 0.0000000e+00 
0.0000000e+00 7.0508108e-06 0.0000000e+00 
0.0000000e+00 1.2422220e-05 0.0000000e+00 
0.0000000e+00 1.4683108e-05 0.0000000e+00 
0.0000000e+00 1.2874208e-05 0.0000000e+00 
0.0000000e+00 7.6440801e-06 0.0000000e+00 
0.0000000e+00 9.1640362e-07 0.0000000e+00 
0.0000000e+00 -5.1610791e-06 0.0000000e+00 
0.0000000e+00 -9.2563350e-06 0.0000000e+00 
0.0000000e+00 -1.1183515e-05 0.0000000e+00 
0.0000000e+00 -1.1409265e-05 0.0000000e+00 
0.0000000e+00 -1.0276139e-05 0.0000000e+00 
0.0000000e+00 -7.6594670e-06 0.0000000e+00 
0.0000000e+00 -3.3382964e-06 0.0000000e+00 
0.0000000e+00 2.2930428e-06 0.0000000e+00 
0.0000000e+00 7.8731500e-06 0.0000000e+00 
0.0000000e+00 1.1523271e-05 0.0000000e+00 
0.0000000e+00 1.1888893e-05 0.0000000e+00 
0.0000000e+00 9.0267195e-06 0.0000000e+00 
0.0000000e+00 4.4362423e-06 0.0000000e+00 
0.0000000e+00 1.7919059e-07 0.0000000e+00 
0.0000000e+00 -2.2668828e-06 0.0000000e+00 
0.0000000e+00 -2.6350701e-06 0.0000000e+00 
0.0000000e+00 -1.6829413e-06 0.0000000e+00 
0.0000000e+00 -5.1017872e-07 0.0000000e+00 
0.0000000e+00 7.3275437e-08 0.0000000e+00 
0.0000000e+00 -2.3266180e-07 0.0000000e+00 
0.0000000e+00 -1.4107152e-06 0.0000000e+00 
0.0000000e+00 -3.4180991e-06 0.0000000e+00 
0.0000000e+00 -6.2003519e-06 0.0000000e+00 
0.0000000e+00 -9.3678045e-06 0.0000000e+00 
0.0000000e+00 -1.1935135e-05 0.0000000e+00 
0.0000000e+00 -1.2586944e-05 0.0000000e+00 
0.0000000e+00 -1.0437478e-05 0.0000000e+00 
0.0000000e+00 -5.7334723e-06 0.0000000e+00 
0.0000000e+00 5.0236402e-08 0.0000000e+00 
0.0000000e+00 4.8614875e-06 0.0000000e+00 
0.0000000e+00 7.1852373e-06 0.0000000e+00 
0.0000000e+00 7.0118631e-06 0.0000000e+00 
0.0000000e+00 5.9006625e-06 0.0000000e+00 
-5.7101120e-06 7.4348795e-06 1.6036228e-06 
-6.0959355e-06 9.6672711e-06 -9.4300697e-07 
-4.6914820e-06 1.0581511e-05 -5.4624907e-06 
-1.8598045e-06 9.0983121e-06 -1.3043198e-05 
-6.8809541e-06 5.4704533e-06 -9.9541785e-06 
-6.8731974e-06 8.7992464e-07 -1.0470257e-05 
-6.6744774e-06 -3.5212724e-06 -6.3060838e-06 
-5.4945531e-06 -7.4163891e-06 -9.8800092e-06 
1.1598927e-06 -1.1083492e-05 -1.2861210e-05 
-8.8406910e-07 -1.5285776e-05 -1.3043630e-05 
-1.8856904e-06 -1.7962557e-05 -1.3300186e-05 
-4.2083561e-06 -1.5580283e-05 -7.7540290e-06 
-7.5575480e-07 -8.7620792e-06 1.4116166e-06 
-3.9912520e-06 -1.7876189e-06 5.3506305e-06 
-5.0017234e-06 1.7095325e-06 3.7893669e-06 
-5.5212181e-06 8.6649140e-07 7.4914201e-06 
-4.2222946e-06 5.0249474e-07 1.0707691e-05 
-6.1945466e-06 6.8988138e-06 1.7080702e-05 
-8.3920440e-06 1.9805368e-05 1.9122819e-05 
-8.0538675e-06 2.9817209e-05 2.0423420e-05 
-8.9681516e-06 2.6795906e-05 2.2356677e-05 
-1.1125957e-05 1.1180464e-05 1.4497357e-05 
-1.0170673e-05 -1.7201994e-06 1.1994872e-06 
-4.4415774e-06 6.4189157e-06 4.8669526e-06 
-6.7953656e-06 3.3073757e-05 1.4033516e-05 
-4.8775855e-06 5.6374818e-05 1.6136117e-05 
7.9222527e-06 5.8485191e-05 1.1768626e-05 
6.5727277e-06 3.8244118e-05 1.3884493e-05 
8.3663542e-07 2.1889518e-05 1.7565282e-05 
6.5086397e-06 4.3679538e-05 2.4642293e-05 
1.2418629e-05 8.5469925e-05 6.2173604e-05 
1.3651949e-06 5.8780188e-05 7.9338024e-05 
-9.8384153e-06 -1.4272143e-04 1.1287702e-04 
-5.9267339e-05 -5.7929760e-04 2.1584296e-04 
-8.1298291e-05 -1.2404808e-03 2.1621300e-04 
-1.2251272e-04 -2.1049550e-03 1.5720959e-04 
-1.7006422e-04 -3.1637689e-03 2.6729680e-04 
-2.3097239e-04 -4.2423429e-03 5.2528325e-05 
-2.7700397e-04 -4.8747570e-03 2.8649078e-05 
-2.7005057e-04 -4.5838030e-03 -1.2680870e-06 
-2.4285025e-04 -4.1572028e-03 -5.3208019e-05 
-2.3225843e-04 -4.0760529e-03 -1.1407684e-04 
-2.3234484e-04 -4.2929058e-03 -9.4113697e-05 
-2.2471027e-04 -4.1536251e-03 -1.6066025e-04 
-1.5429429e-04 -3.1041042e-03 -2.8525537e-04 
-1.1425061e-04 -1.7842451e-03 -1.6057349e-04 
-4.5737954e-05 -7.6464133e-04 -2.0481236e-04 
-2.3452185e-05 -1.5644413e-04 -1.0214625e-04 
7.3101012e-07 1.2625808e-04 -8.0494836e-05 
1.3528683e-06 2.0716638e-04 -4.5500554e-05 
1.1791603e-05 1.8086105e-04 -1.0211726e-05 
9.1993516e-06 1.0862150e-04 4.6701930e-06 
4.2070337e-06 3.9713279e-05 2.0804935e-05 
-1.1204593e-06 5.0127437e-07 2.3827512e-05 
-2.9167579e-06 -7.9203619e-06 2.5731513e-05 
-6.5669710e-06 -5.6977815e-06 2.1090458e-05 
-5.1730021e-06 -8.2351989e-06 1.3834683e-05 
-5.7628886e-06 -1.2657497e-05 1.2267698e-05 
-7.6876449e-06 -6.5399136e-06 8.6599766e-06 
-6.2223412e-06 1.3149421e-05 1.3559579e-05 
-6.5062477e-06 3.3653429e-05 1.7299291e-05 
-4.1823837e-06 3.7725611e-05 1.0212731e-05 
-4.2119700e-06 2.3099486e-05 -7.5989010e-07 
6.2808448e-07 5.5842870e-06 1.0418466e-06 
-7.0885749e-06 6.0245002e-06 -1.5104948e-06 
5.0100414e-07 3.3607095e-05 2.7256863e-06 
1.1069392e-05 7.1330898e-05 1.2038246e-05 
1.6990560e-05 8.5417363e-05 1.2353055e-05 
1.2373087e-05 6.8198169e-05 2.2541657e-05 
1.1559211e-05 3.9383991e-05 4.3631539e-05 
1.1847231e-05 2.1257851e-05 7.1011586e-05 
1.0246846e-05 4.2681089e-07 8.1562197e-05 
-1.0602816e-05 -1.2691515e-04 1.5317296e-04 
-2.9476447e-05 -5.3011189e-04 1.5007656e-04 
-8.7837783e-05 -1.2962060e-03 2.4389259e-04 
-6.9154892e-05 -2.3309467e-03 1.7145455e-04 
-2.7444467e-04 -3.4776479e-03 2.7940050e-04 
-9.6504446e-05 -4.4111921e-03 1.1924061e-04 
-4.0252798e-04 -4.7144573e-03 6.0681807e-05 
-1.0159946e-04 -4.3690680e-03 1.7973711e-05 
-2.6184364e-04 -4.1319942e-03 -4.5224675e-05 
-2.5634954e-04 -4.2505320e-03 -1.4006147e-04 
-2.6035513e-04 -4.4297841e-03 -1.2725583e-04 
-2.2503990e-04 -3.9814799e-03 -1.7321778e-04 
-1.4400136e-04 -2.7989305e-03 -3.0128696e-04 
-9.7797805e-05 -1.5345252e-03 -1.6469210e-04 
-3.0378105e-05 -6.1293336e-04 -1.9868654e-04 
-1.1646439e-05 -6.9217727e-05 -1.0160733e-04 
1.4836831e-05 1.8273306e-04 -6.8288238e-05 
2.0835721e-05 2.3826238e-04 -2.7958064e-05 
1.5577243e-05 1.8157825e-04 2.7622018e-06 
1.0490293e-05 9.1104986e-05 6.2578233e-06 
7.7094091e-06 2.4858171e-05 1.8008252e-05 
5.4474394e-06 -4.0193618e-06 1.6275204e-05 
2.1617957e-06 -1.1207487e-05 1.8341081e-05 
1.3973684e-06 -1.4030607e-05 1.5645248e-05 
1.0222348e-06 -1.5787404e-05 1.2094643e-05 
9.8583632e-07 -1.1946760e-05 1.0416880e-05 
-5.9406278e-07 -2.8587033e-06 7.7165660e-06 
0.0000000e+00 3.5364321e-06 0.0000000e+00 
0.0000000e+00 -1.1153658e-08 0.0000000e+00 
0.0000000e+00 -1.2813705e-06 0.0000000e+00 
0.0000000e+00 6.8467335e-07 0.0000000e+00 
0.0000000e+00 1.9286933e-06 0.0000000e+00 
0.0000000e+00 -4.8837296e-07 0.0000000e+00 
0.0000000e+00 -4.4108797e-06 0.0000000e+00 
0.0000000e+00 -5.3212520e-06 0.0000000e+00 
0.0000000e+00 -1.9792576e-06 0.0000000e+00 
0.0000000e+00 2.1645180e-06 0.0000000e+00 
0.0000000e+00 3.1913389e-06 0.0000000e+00 
0.0000000e+00 1.1123535e-06 0.0000000e+00 
0.0000000e+00 -7.2278959e-07 0.0000000e+00 
0.0000000e+00 7.2812951e-09 0.0000000e+00 
0.0000000e+00 1.9915390e-06 0.0000000e+00 
0.0000000e+00 2.3397538e-06 0.0000000e+00 
0.0000000e+00 3.4247159e-07 0.0000000e+00 
0.0000000e+00 -1.7894190e-06 0.0000000e+00 
0.0000000e+00 -1.8285876e-06 0.0000000e+00 
0.0000000e+00 -1.9760003e-07 0.0000000e+00 
0.0000000e+00 8.3306497e-07 0.0000000e+00 
0.0000000e+00 9.2724711e-08 0.0000000e+00 
0.0000000e+00 -1.2096667e-06 0.0000000e+00 
0.0000000e+00 -1.2540272e-06 0.0000000e+00 
0.0000000e+00 6.5039728e-08 0.0000000e+00 
0.0000000e+00 1.1658948e-06 0.0000000e+00 
0.0000000e+00 8.8709191e-07 0.0000000e+00 
0.0000000e+00 -1.2910631e-07 0.0000000e+00 
0.0000000e+00 -4.2840804e-07 0.0000000e+00 
0.0000000e+00 3.2165497e-07 0.0000000e+00 
0.0000000e+00 9.6027713e-07 0.0000000e+00 
0.0000000e+00 4.1775326e-07 0.0000000e+00 
0.0000000e+00 -8.3720869e-07 0.0000000e+00 
0.0000000e+00 -1.3414988e-06 0.0000000e+00 
0.0000000e+00 -4.7057861e-07 0.0000000e+00 
0.0000000e+00 7.6267116e-07 0.0000000e+00 
0.0000000e+00 9.5253665e-07 0.0000000e+00 
0.0000000e+00 3.7811127e-08 0.0000000e+00 
0.0000000e+00 -6.0758242e-07 0.0000000e+00 
0.0000000e+00 1.3162775e-05 0.0000000e+00 
0.0000000e+00 1.1113711e-05 0.0000000e+00 
0.0000000e+00 5.9323957e-06 0.0000000e+00 
0.0000000e+00 -3.5666872e-07 0.0000000e+00 
0.0000000e+00 -5.8322717e-06 0.0000000e+00 
0.0000000e+00 -9.4571460e-06 0.0000000e+00 
0.0000000e+00 -1.1102696e-05 0.0000000e+00 
0.0000000e+00 -1.0973242e-05 0.0000000e+00 
0.0000000e+00 -9.0600288e-06 0.0000000e+00 
0.0000000e+00 -5.1595307e-06 0.0000000e+00 
0.0000000e+00 5.6949119e-07 0.0000000e+00 
0.0000000e+00 7.0618830e-06 0.0000000e+00 
0.0000000e+00 1.2409363e-05 0.0000000e+00 
0.0000000e+00 1.4656380e-05 0.0000000e+00 
0.0000000e+00 1.2855269e-05 0.0000000e+00 
0.0000000e+00 7.6491851e-06 0.0000000e+00 
0.0000000e+00 9.4309860e-07 0.0000000e+00 
0.0000000e+00 -5.1327279e-06 0.0000000e+00 
0.0000000e+00 -9.2480832e-06 0.0000000e+00 
0.0000000e+00 -1.1201284e-05 0.0000000e+00 
0.0000000e+00 -1.1438544e-05 0.0000000e+00 
0.0000000e+00 -1.0294386e-05 0.0000000e+00 
0.0000000e+00 -7.6546194e-06 0.0000000e+00 
0.0000000e+00 -3.3179849e-06 0.0000000e+00 
0.0000000e+00 2.3082823e-06 0.0000000e+00 
0.0000000e+00 7.8668781e-06 0.0000000e+00 
0.0000000e+00 1.1497334e-05 0.0000000e+00 
0.0000000e+00 1.1863249e-05 0.0000000e+00 
0.0000000e+00 9.0236408e-06 0.0000000e+00 
0.0000000e+00 4.4615595e-06 0.0000000e+00 
0.0000000e+00 2.1772307e-07 0.0000000e+00 
0.0000000e+00 -2.2376930e-06 0.0000000e+00 
0.0000000e+00 -2.6274245e-06 0.0000000e+00 
0.0000000e+00 -1.6929044e-06 0.0000000e+00 
0.0000000e+00 -5.2510813e-07 0.0000000e+00 
0.0000000e+00 6.3946537e-08 0.0000000e+00 
0.0000000e+00 -2.3475270e-07 0.0000000e+00 
0.0000000e+00 -1.4134692e-06 0.0000000e+00 
0.0000000e+00 -3.4315697e-06 0.0000000e+00 
0.0000000e+00 -6.2247827e-06 0.0000000e+00 
0.0000000e+00 -9.3897515e-06 0.0000000e+00 
0.0000000e+00 -1.1939540e-05 0.0000000e+00 
0.0000000e+00 -1.2573183e-05 0.0000000e+00 
0.0000000e+00 -1.0420795e-05 0.0000000e+00 
0.0000000e+00 -5.7319048e-06 0.0000000e+00 
0.0000000e+00 2.7934361e-08 0.0000000e+00 
0.0000000e+00 4.8207712e-06 0.0000000e+00 
0.0000000e+00 7.1477407e-06 0.0000000e+00 
0.0000000e+00 7.0094325e-06 0.0000000e+00 
0.0000000e+00 5.9539366e-06 0.0000000e+00 
0.0000000e+00 5.8911460e-06 0.0000000e+00 
0.0000000e+00 7.4672485e-06 0.0000000e+00 
0.0000000e+00 9.6360136e-06 0.0000000e+00 
0.0000000e+00 1.0537150e-05 0.0000000e+00 
0.0000000e+00 9.0680260e-06 0.0000000e+00 
0.0000000e+00 5.4675047e-06 0.0000000e+00 
0.0000000e+00 9.0310658e-07 0.0000000e+00 
0.0000000e+00 -3.4809414e-06 0.0000000e+00 
0.0000000e+00 -7.3564838e-06 0.0000000e+00 
0.0000000e+00 -1.1191420e-05 0.0000000e+00 
0.0000000e+00 -1.5393689e-05 0.0000000e+00 
0.0000000e+00 -1.7870339e-05 0.0000000e+00 
0.0000000e+00 -1.5467020e-05 0.0000000e+00 
0.0000000e+00 -8.7351445e-06 0.0000000e+00 
0.0000000e+00 -1.8230304e-06 0.0000000e+00 
0.0000000e+00 1.4952053e-06 0.0000000e+00 
0.0000000e+00 7.5287488e-07 0.0000000e+00 
0.0000000e+00 6.3801241e-07 0.0000000e+00 
0.0000000e+00 7.1852287e-06 0.0000000e+00 
0.0000000e+00 2.0011626e-05 0.0000000e+00 
0.0000000e+00 2.9675381e-05 0.0000000e+00 
0.0000000e+00 2.6203261e-05 0.0000000e+00 
0.0000000e+00 1.0770104e-05 0.0000000e+00 
0.0000000e+00 -1.1376034e-06 0.0000000e+00 
0.0000000e+00 7.2893536e-06 0.0000000e+00 
0.0000000e+00 3.3251385e-05 0.0000000e+00 
0.0000000e+00 5.5979155e-05 0.0000000e+00 
0.0000000e+00 5.7470937e-05 0.0000000e+00 
0.0000000e+00 3.7580794e-05 0.0000000e+00 
0.0000000e+00 2.3251645e-05 0.0000000e+00 
0.0000000e+00 4.6165755e-05 0.0000000e+00 
0.0000000e+00 8.7084343e-05 0.0000000e+00 
0.0000000e+00 5.8078440e-05 0.0000000e+00 
0.0000000e+00 -1.4572289e-04 0.0000000e+00 
0.0000000e+00 -5.8061955e-04 0.0000000e+00 
0.0000000e+00 -1.2407304e-03 0.0000000e+00 
0.0000000e+00 -2.1108976e-03 0.0000000e+00 
0.0000000e+00 -3.1757071e-03 0.0000000e+00 
0.0000000e+00 -4.2698770e-03 0.0000000e+00 
0.0000000e+00 -4.9014157e-03 0.0000000e+00 
0.0000000e+00 -4.6135783e-03 0.0000000e+00 
0.0000000e+00 -4.1757086e-03 0.0000000e+00 
0.0000000e+00 -4.0993993e-03 0.0000000e+00 
0.0000000e+00 -4.3156873e-03 0.0000000e+00 
0.0000000e+00 -4.1837804e-03 0.0000000e+00 
0.0000000e+00 -3.1242629e-03 0.0000000e+00 
0.0000000e+00 -1.8001609e-03 0.0000000e+00 
0.0000000e+00 -7.7045296e-04 0.0000000e+00 
0.0000000e+00 -1.5683235e-04 0.0000000e+00 
0.0000000e+00 1.2747316e-04 0.0000000e+00 
0.0000000e+00 2.0820265e-04 0.0000000e+00 
0.0000000e+00 1.8130838e-04 0.0000000e+00 
0.0000000e+00 1.0965414e-04 0.0000000e+00 
0.0000000e+00 4.0625768e-05 0.0000000e+00 
0.0000000e+00 1.0641189e-06 0.0000000e+00 
0.0000000e+00 -8.1825447e-06 0.0000000e+00 
0.0000000e+00 -6.2339009e-06 0.0000000e+00 
0.0000000e+00 -8.5240799e-06 0.0000000e+00 
0.0000000e+00 -1.2436479e-05 0.0000000e+00 
0.0000000e+00 -6.1172836e-06 0.0000000e+00 
0.0000000e+00 1.3349341e-05 0.0000000e+00 
0.0000000e+00 3.3441822e-05 0.0000000e+00 
0.0000000e+00 3.7320046e-05 0.0000000e+00 
0.0000000e+00 2.2598146e-05 0.0000000e+00 
0.0000000e+00 5.5224045e-06 0.0000000e+00 
0.0000000e+00 7.0159363e-06 0.0000000e+00 
0.0000000e+00 3.4678898e-05 0.0000000e+00 
0.0000000e+00 7.0840193e-05 0.0000000e+00 
0.0000000e+00 8.4538238e-05 0.0000000e+00 
0.0000000e+00 6.7501969e-05 0.0000000e+00 
0.0000000e+00 3.9855600e-05 0.0000000e+00 
0.0000000e+00 2.4566027e-05 0.0000000e+00 
0.0000000e+00 4.0418881e-06 0.0000000e+00 
0.0000000e+00 -1.2865519e-04 0.0000000e+00 
0.0000000e+00 -5.3687359e-04 0.0000000e+00 
0.0000000e+00 -1.2997533e-03 0.0000000e+00 
0.0000000e+00 -2.3386118e-03 0.0000000e+00 
0.0000000e+00 -3.4882743e-03 0.0000000e+00 
0.0000000e+00 -4.4384729e-03 0.0000000e+00 
0.0000000e+00 -4.7428627e-03 0.0000000e+00 
0.0000000e+00 -4.4003739e-03 0.0000000e+00 
0.0000000e+00 -4.1510402e-03 0.0000000e+00 
0.0000000e+00 -4.2721280e-03 0.0000000e+00 
0.0000000e+00 -4.4514709e-03 0.0000000e+00 
0.0000000e+00 -4.0122163e-03 0.0000000e+00 
0.0000000e+00 -2.8186166e-03 0.0000000e+00 
0.0000000e+00 -1.5468027e-03 0.0000000e+00 
0.0000000e+00 -6.1619957e-04 0.0000000e+00 
0.0000000e+00 -6.9491078e-05 0.0000000e+00 
0.0000000e+00 1.8305086e-04 0.0000000e+00 
0.0000000e+00 2.3882191e-04 0.0000000e+00 
0.0000000e+00 1.8269573e-04 0.0000000e+00 
0.0000000e+00 9.2792827e-05 0.0000000e+00 
0.0000000e+00 2.5624506e-05 0.0000000e+00 
0.0000000e+00 -4.2294200e-06 0.0000000e+00 
0.0000000e+00 -1.1688093e-05 0.0000000e+00 
0.0000000e+00 -1.4133699e-05 0.0000000e+00 
0.0000000e+00 -1.5561733e-05 0.0000000e+00 
0.0000000e+00 -1.1799561e-05 0.0000000e+00 
0.0000000e+00 -3.0844001e-06 0.0000000e+00 
0.0000000e+00 3.5154574e-06 0.0000000e+00 
0.0000000e+00 3.5638286e-06 0.0000000e+00 
0.0000000e+00 1.7803531e-07 0.0000000e+00 
0.0000000e+00 -1.1748383e-06 0.0000000e+00 
0.0000000e+00 5.8826930e-07 0.0000000e+00 
0.0000000e+00 1.7702084e-06 0.0000000e+00 
0.0000000e+00 -5.0554161e-07 0.0000000e+00 
0.0000000e+00 -4.2747638e-06 0.0000000e+00 
0.0000000e+00 -5.2073610e-06 0.0000000e+00 
0.0000000e+00 -2.0216737e-06 0.0000000e+00 
0.0000000e+00 2.0291391e-06 0.0000000e+00 
0.0000000e+00 3.1297807e-06 0.0000000e+00 
0.0000000e+00 1.1882016e-06 0.0000000e+00 
0.0000000e+00 -6.1384304e-07 0.0000000e+00 
0.0000000e+00 1.6951727e-08 0.0000000e+00 
0.0000000e+00 1.9016001e-06 0.0000000e+00 
0.0000000e+00 2.2694389e-06 0.0000000e+00 
0.0000000e+00 3.7540272e-07 0.0000000e+00 
0.0000000e+00 -1.7027272e-06 0.0000000e+00 
0.0000000e+00 -1.7974219e-06 0.0000000e+00 
0.0000000e+00 -2.5288188e-07 0.0000000e+00 
0.0000000e+00 7.6722802e-07 0.0000000e+00 
0.0000000e+00 9.5571913e-08 0.0000000e+00 
0.0000000e+00 -1.1508030e-06 0.0000000e+00 
0.0000000e+00 -1.2173798e-06 0.0000000e+00 
0.0000000e+00 3.7344751e-08 0.0000000e+00 
0.0000000e+00 1.1144273e-06 0.0000000e+00 
0.0000000e+00 8.7741410e-07 0.0000000e+00 
0.0000000e+00 -8.8267171e-08 0.0000000e+00 
0.0000000e+00 -3.9104111e-07 0.0000000e+00 
0.0000000e+00 3.0909519e-07 0.0000000e+00 
0.0000000e+00 9.1519291e-07 0.0000000e+00 
0.0000000e+00 3.9727340e-07 0.0000000e+00 
0.0000000e+00 -8.0736180e-07 0.0000000e+00 
0.0000000e+00 -1.2977251e-06 0.0000000e+00 
0.0000000e+00 -4.6638365e-07 0.0000000e+00 
0.0000000e+00 7.2138789e-07 0.0000000e+00 
0.0000000e+00 9.1404991e-07 0.0000000e+00 
0.0000000e+00 4.5578364e-08 0.0000000e+00 
0.0000000e+00 -5.7027847e-07 0.0000000e+00 
0.0000000e+00 0.0000000e+00 0.0000000e+00 
0.0000000e+00 0.0000000e+00 0.0000000e+00 
0.0000000e+00 0.0000000e+00 0.0000000e+00 
0.0000000e+00 0.0000000e+00 0.0000000e+00 
0.0000000e+00 0.0000000e+00 0.0000000e+00 
0.0000000e+00 0.0000000e+00 0.0000000e+00 
0.0000000e+00 0.0000000e+00 0.0000000e+00 
0.0000000e+00 0.0000000e+00 0.0000000e+00 
0.0000000e+00 0.0000000e+00 0.0000000e+00 
0.0000000e+00 0.0000000e+00 0.0000000e+00 
0.0000000e+00 0.0000000e+00 0.0000000e+00 
0.0000000e+00 0.0000000e+00 0.0000000e+00 
0.0000000e+00 0.0000000e+00 0.0000000e+00 
0.0000000e+00 0.0000000e+00 0.0000000e+00 
0.0000000e+00 0.0000000e+00 0.0000000e+00 
0.0000000e+00 0.0000000e+00 0.0000000e+00 
0.0000000e+00 0.0000000e+00 0.0000000e+00 
0.0000000e+00 0.0000000e+00 0.0000000e+00 
0.0000000e+00 0.0000000e+00 0.0000000e+00 
0.0000000e+00 0.0000000e+00 0.0000000e+00 
0.0000000e+00 0.0000000e+00 0.0000000e+00 
0.0000000e+00 0.0000000e+00 0.0000000e+00 
0.0000000e+00 0.0000000e+00 0.0000000e+00 
0.0000000e+00 0.0000000e+00 0.0000000e+00 
0.0000000e+00 0.0000000e+00 0.0000000e+00 
0.0000000e+00 0.0000000e+00 0.0000000e+00 
0.0000000e+00 0.0000000e+00 0.0000000e+00 
0.0000000e+00 0.0000000e+00 0.0000000e+00 
0.0000000e+00 0.0000000e+00 0.0000000e+00 
0.0000000e+00 0.0000000e+00 0.0000000e+00 
0.0000000e+00 0.0000000e+00 0.0000000e+00 
0.0000000e+00 0.0000000e+00 0.0000000e+00 
0.0000000e+00 0.0000000e+00 0.0000000e+00 
0.0000000e+00 0.0000000e+00 0.0000000e+00 
0.0000000e+00 0.0000000e+00 0.0000000e+00 
0.0000000e+00 0.0000000e+00 0.0000000e+00 
0.0000000e+00 0.0000000e+00 0.0000000e+00 
0.0000000e+00 0.0000000e+00 0.0000000e+00 
0.0000000e+00 0.0000000e+00 0.0000000e+00 
0.0000000e+00 0.0000000e+00 0.0000000e+00 
0.0000000e+00 0.0000000e+00 0.0000000e+00 
0.0000000e+00 0.0000000e+00 0.0000000e+00 
0.0000000e+00 0.0000000e+00 0.0000000e+00 
0.0000000e+00 0.0000000e+00 0.0000000e+00 
0.0000000e+00 0.0000000e+00 0.0000000e+00 
0.0000000e+00 0.0000000e+00 0.0000000e+00 
0.0000000e+00 0.0000000e+00 0.0000000e+00 
0.0000000e+00 0.0000000e+00 0.0000000e+00 
0.0000000e+00 0.0000000e+00 0.0000000e+00 
0.0000000e+00 0.0000000e+00 0.0000000e+00 
0.0000000e+00 0.0000000e+00 0.0000000e+00 
0.0000000e+00 0.0000000e+00 0.0000000e+00 
0.0000000e+00 0.0000000e+00 0.0000000e+00 
0.0000000e+00 0.0000000e+00 0.0000000e+00 
0.0000000e+00 0.0000000e+00 0.0000000e+00 
0.0000000e+00 0.0000000e+00 0.0000000e+00 
0.0000000e+00 0.0000000e+00 0.0000000e+00 
0.0000000e+00 0.0000000e+00 0.0000000e+00 